/*--------------------------------*- C++ -*----------------------------------*\
| =========                 |                                                 |
| \\      /  F ield         | OpenFOAM: The Open Source CFD Toolbox           |
|  \\    /   O peration     | Version:  2206                                  |
|   \\  /    A nd           | Website:  www.openfoam.com                      |
|    \\/     M anipulation  |                                                 |
\*---------------------------------------------------------------------------*/
FoamFile
{
    version     2.0;
    format      ascii;
    arch        "LSB;label=32;scalar=64";
    class       volScalarField;
    location    "13.5";
    object      epsilon;
}
// * * * * * * * * * * * * * * * * * * * * * * * * * * * * * * * * * * * * * //

dimensions      [0 2 -3 0 0 0 0];

internalField   nonuniform List<scalar> 
28335
(
3.8429e-07
3.9635e-07
3.96355e-07
4.14657e-07
3.84288e-07
3.96352e-07
3.96357e-07
4.14663e-07
3.84235e-07
3.96306e-07
3.96311e-07
4.14652e-07
3.84079e-07
3.96173e-07
3.96178e-07
4.14524e-07
3.84072e-07
3.96168e-07
3.96173e-07
4.14528e-07
3.84072e-07
3.96168e-07
3.96172e-07
4.14523e-07
3.84072e-07
3.96168e-07
3.96172e-07
4.14524e-07
3.84072e-07
3.96168e-07
3.96172e-07
4.14525e-07
3.84072e-07
3.96168e-07
3.96172e-07
4.14525e-07
3.84072e-07
3.96168e-07
3.96172e-07
4.14525e-07
3.84072e-07
3.96168e-07
3.96172e-07
4.14525e-07
3.84072e-07
3.96168e-07
3.96172e-07
4.14525e-07
3.84072e-07
3.96168e-07
3.96173e-07
4.14525e-07
3.84072e-07
3.96168e-07
3.96173e-07
4.14525e-07
3.84072e-07
3.96168e-07
3.96173e-07
4.14526e-07
3.84072e-07
3.96168e-07
3.96173e-07
4.14525e-07
3.84072e-07
3.96168e-07
3.96173e-07
4.14525e-07
4.145e-07
3.96361e-07
3.96363e-07
4.14495e-07
3.96354e-07
3.96368e-07
3.9635e-07
3.96362e-07
4.14506e-07
3.96355e-07
3.96356e-07
4.14502e-07
4.14658e-07
4.14505e-07
3.96364e-07
3.96366e-07
3.96362e-07
3.96364e-07
4.14654e-07
4.145e-07
3.96358e-07
3.96371e-07
3.96356e-07
3.9637e-07
3.96365e-07
3.96353e-07
3.96363e-07
4.14664e-07
4.14511e-07
3.96359e-07
3.96358e-07
3.96357e-07
4.14508e-07
4.14662e-07
4.145e-07
3.96362e-07
3.96364e-07
3.96347e-07
3.96349e-07
4.14658e-07
4.14495e-07
3.96355e-07
3.96369e-07
3.96341e-07
3.96354e-07
3.96363e-07
3.96337e-07
3.96348e-07
4.14668e-07
4.14506e-07
3.96357e-07
3.96342e-07
3.96342e-07
4.14504e-07
4.14651e-07
4.14377e-07
3.96318e-07
3.9632e-07
3.96197e-07
3.96199e-07
4.14647e-07
4.14372e-07
3.96312e-07
3.96326e-07
3.96191e-07
3.96205e-07
3.96319e-07
3.96188e-07
3.96198e-07
4.14657e-07
4.14382e-07
3.96313e-07
3.96193e-07
3.96192e-07
4.14378e-07
4.14525e-07
4.14366e-07
3.96185e-07
3.96187e-07
3.96178e-07
3.9618e-07
4.1452e-07
4.14362e-07
3.96179e-07
3.96193e-07
3.96171e-07
3.96185e-07
3.96186e-07
3.96168e-07
3.96179e-07
4.14531e-07
4.14373e-07
3.9618e-07
3.96173e-07
3.96173e-07
4.1437e-07
4.14527e-07
4.14366e-07
3.96181e-07
3.96183e-07
3.96178e-07
3.9618e-07
4.14522e-07
4.14361e-07
3.96175e-07
3.96189e-07
3.96171e-07
3.96185e-07
3.96183e-07
3.96168e-07
3.96179e-07
4.14533e-07
4.14372e-07
3.96176e-07
3.96172e-07
3.96173e-07
4.14368e-07
4.14523e-07
4.14368e-07
3.9618e-07
3.96182e-07
3.96178e-07
3.9618e-07
4.14519e-07
4.14363e-07
3.96174e-07
3.96188e-07
3.96171e-07
3.96186e-07
3.96182e-07
3.96168e-07
3.96179e-07
4.14529e-07
4.14374e-07
3.96175e-07
3.96173e-07
3.96173e-07
4.1437e-07
4.14525e-07
4.14367e-07
3.9618e-07
3.96182e-07
3.96178e-07
3.9618e-07
4.1452e-07
4.14362e-07
3.96174e-07
3.96188e-07
3.96172e-07
3.96186e-07
3.96182e-07
3.96168e-07
3.96179e-07
4.14531e-07
4.14372e-07
3.96175e-07
3.96173e-07
3.96173e-07
4.1437e-07
4.14525e-07
4.14367e-07
3.9618e-07
3.96182e-07
3.96178e-07
3.9618e-07
4.1452e-07
4.14362e-07
3.96174e-07
3.96188e-07
3.96172e-07
3.96186e-07
3.96182e-07
3.96168e-07
3.96179e-07
4.1453e-07
4.14372e-07
3.96175e-07
3.96173e-07
3.96173e-07
4.1437e-07
4.14525e-07
4.14367e-07
3.9618e-07
3.96182e-07
3.96178e-07
3.9618e-07
4.1452e-07
4.14362e-07
3.96174e-07
3.96188e-07
3.96172e-07
3.96185e-07
3.96182e-07
3.96168e-07
3.96179e-07
4.1453e-07
4.14372e-07
3.96175e-07
3.96173e-07
3.96173e-07
4.1437e-07
4.14525e-07
4.14367e-07
3.9618e-07
3.96182e-07
3.96178e-07
3.9618e-07
4.1452e-07
4.14362e-07
3.96174e-07
3.96188e-07
3.96172e-07
3.96185e-07
3.96182e-07
3.96168e-07
3.96179e-07
4.1453e-07
4.14372e-07
3.96175e-07
3.96172e-07
3.96173e-07
4.1437e-07
4.14525e-07
4.14367e-07
3.9618e-07
3.96182e-07
3.96178e-07
3.9618e-07
4.1452e-07
4.14362e-07
3.96174e-07
3.96188e-07
3.96172e-07
3.96186e-07
3.96182e-07
3.96168e-07
3.96179e-07
4.1453e-07
4.14372e-07
3.96175e-07
3.96173e-07
3.96173e-07
4.1437e-07
4.14524e-07
4.14367e-07
3.9618e-07
3.96182e-07
3.96178e-07
3.9618e-07
4.1452e-07
4.14362e-07
3.96174e-07
3.96188e-07
3.96172e-07
3.96186e-07
3.96182e-07
3.96168e-07
3.96179e-07
4.1453e-07
4.14372e-07
3.96175e-07
3.96173e-07
3.96173e-07
4.14371e-07
4.14525e-07
4.14367e-07
3.9618e-07
3.96182e-07
3.96178e-07
3.9618e-07
4.1452e-07
4.14362e-07
3.96174e-07
3.96188e-07
3.96172e-07
3.96186e-07
3.96182e-07
3.96168e-07
3.96179e-07
4.1453e-07
4.14373e-07
3.96175e-07
3.96173e-07
3.96173e-07
4.14371e-07
4.14525e-07
4.14367e-07
3.9618e-07
3.96182e-07
3.96178e-07
3.9618e-07
4.1452e-07
4.14362e-07
3.96174e-07
3.96188e-07
3.96172e-07
3.96185e-07
3.96182e-07
3.96168e-07
3.96179e-07
4.1453e-07
4.14372e-07
3.96175e-07
3.96173e-07
3.96173e-07
4.14371e-07
4.14525e-07
4.14367e-07
3.9618e-07
3.96182e-07
3.96178e-07
3.9618e-07
4.1452e-07
4.14362e-07
3.96174e-07
3.96188e-07
3.96172e-07
3.96185e-07
3.96182e-07
3.96168e-07
3.96179e-07
4.1453e-07
4.14372e-07
3.96175e-07
3.96173e-07
3.96173e-07
4.1437e-07
4.14525e-07
4.14367e-07
3.9618e-07
3.96182e-07
3.96178e-07
3.9618e-07
4.1452e-07
4.14362e-07
3.96174e-07
3.96188e-07
3.96172e-07
3.96185e-07
3.96182e-07
3.96168e-07
3.96179e-07
4.1453e-07
4.14372e-07
3.96175e-07
3.96173e-07
3.96173e-07
4.1437e-07
4.14525e-07
3.9618e-07
3.96182e-07
4.1452e-07
3.96174e-07
3.96187e-07
3.96181e-07
4.1453e-07
3.96174e-07
1.49028e-06
7.66199e-06
2.48312e-05
1.49016e-06
7.66323e-06
3.8429e-07
3.84292e-07
3.84293e-07
3.84293e-07
5.80311e-07
3.96351e-07
1.21623e-06
3.87454e-07
2.48317e-05
5.80325e-07
3.96356e-07
3.87454e-07
1.21625e-06
4.14492e-07
2.48647e-06
2.48699e-06
1.49016e-06
7.66213e-06
1.49055e-06
7.66161e-06
2.48277e-05
2.48256e-05
1.49003e-06
7.66339e-06
1.49038e-06
7.66286e-06
3.84294e-07
3.84295e-07
3.84293e-07
3.84289e-07
3.8429e-07
3.84291e-07
3.84291e-07
5.80322e-07
1.21684e-06
3.87452e-07
3.96355e-07
5.8043e-07
1.21634e-06
3.87455e-07
2.48285e-05
2.48262e-05
5.80341e-07
3.87452e-07
1.21682e-06
3.9636e-07
5.80469e-07
3.87456e-07
1.21631e-06
2.48706e-06
2.48758e-06
4.14506e-07
2.48674e-06
2.48726e-06
1.49014e-06
7.66181e-06
1.49051e-06
7.66155e-06
2.48251e-05
2.4825e-05
1.48999e-06
7.66306e-06
1.49032e-06
7.66278e-06
3.84289e-07
3.8429e-07
3.8429e-07
3.8427e-07
3.84271e-07
3.84272e-07
3.84271e-07
5.80326e-07
1.21678e-06
3.8745e-07
3.96351e-07
5.80428e-07
1.21631e-06
3.87449e-07
2.48259e-05
2.48256e-05
5.80325e-07
3.87451e-07
1.21671e-06
3.96356e-07
5.80429e-07
3.8745e-07
1.21627e-06
2.4871e-06
2.48761e-06
4.14508e-07
2.4867e-06
2.48722e-06
1.49089e-06
7.66451e-06
1.49102e-06
7.66681e-06
2.48339e-05
2.48365e-05
1.49074e-06
7.66579e-06
1.49084e-06
7.66803e-06
3.84236e-07
3.84237e-07
3.84237e-07
3.84097e-07
3.84096e-07
3.84097e-07
3.84096e-07
5.80378e-07
1.21713e-06
3.874e-07
3.96258e-07
5.80483e-07
1.21679e-06
3.87347e-07
2.48347e-05
2.48372e-05
5.80381e-07
3.87401e-07
1.21705e-06
3.96263e-07
5.80489e-07
3.87348e-07
1.21674e-06
2.48784e-06
2.48835e-06
4.14441e-07
2.48766e-06
2.48818e-06
1.49088e-06
7.6672e-06
1.49127e-06
7.6668e-06
2.48367e-05
2.4836e-05
1.49074e-06
7.66846e-06
1.49107e-06
7.66805e-06
3.84082e-07
3.84083e-07
3.84082e-07
3.84072e-07
3.84073e-07
3.84074e-07
3.84074e-07
5.80364e-07
1.21727e-06
3.87252e-07
3.96171e-07
5.80472e-07
1.21678e-06
3.8725e-07
2.48377e-05
2.48368e-05
5.80368e-07
3.87253e-07
1.2172e-06
3.96176e-07
5.80478e-07
3.87251e-07
1.21674e-06
2.48789e-06
2.48841e-06
4.1436e-07
2.48751e-06
2.48803e-06
1.49088e-06
7.6671e-06
1.49126e-06
7.66677e-06
2.48365e-05
2.4836e-05
1.49074e-06
7.66836e-06
1.49107e-06
7.66801e-06
3.84077e-07
3.84078e-07
3.84078e-07
3.84072e-07
3.84073e-07
3.84074e-07
3.84074e-07
5.80366e-07
1.21726e-06
3.87246e-07
3.9617e-07
5.80469e-07
1.21678e-06
3.87249e-07
2.48375e-05
2.48368e-05
5.80366e-07
3.87247e-07
1.21719e-06
3.96175e-07
5.80472e-07
3.87249e-07
1.21674e-06
2.48787e-06
2.48838e-06
4.14376e-07
2.4875e-06
2.48802e-06
1.49088e-06
7.66709e-06
1.49126e-06
7.66677e-06
2.48366e-05
2.4836e-05
1.49074e-06
7.66826e-06
1.49107e-06
7.66787e-06
3.84076e-07
3.84077e-07
3.84076e-07
3.84072e-07
3.84074e-07
3.84074e-07
3.84074e-07
5.80364e-07
1.21726e-06
3.87246e-07
3.9617e-07
5.80469e-07
1.21678e-06
3.87249e-07
2.48375e-05
2.48368e-05
5.80362e-07
3.87246e-07
1.21719e-06
3.96175e-07
5.80476e-07
3.87249e-07
1.21674e-06
2.48787e-06
2.48838e-06
4.14373e-07
2.4875e-06
2.48802e-06
1.49088e-06
7.6671e-06
1.49126e-06
7.66677e-06
2.48363e-05
2.48357e-05
1.49074e-06
7.6682e-06
1.49107e-06
7.66783e-06
3.84076e-07
3.84077e-07
3.84076e-07
3.84072e-07
3.84074e-07
3.84074e-07
3.84074e-07
5.80364e-07
1.21726e-06
3.87246e-07
3.9617e-07
5.8047e-07
1.21678e-06
3.87248e-07
2.48375e-05
2.48368e-05
5.80363e-07
3.87246e-07
1.21719e-06
3.96175e-07
5.80478e-07
3.87249e-07
1.21674e-06
2.48787e-06
2.48838e-06
4.14372e-07
2.4875e-06
2.48802e-06
1.49088e-06
7.66709e-06
1.49126e-06
7.66676e-06
2.48363e-05
2.48357e-05
1.49074e-06
7.66816e-06
1.49107e-06
7.6678e-06
3.84076e-07
3.84077e-07
3.84076e-07
3.84072e-07
3.84074e-07
3.84074e-07
3.84074e-07
5.80365e-07
1.21726e-06
3.87246e-07
3.9617e-07
5.8047e-07
1.21678e-06
3.87248e-07
2.48375e-05
2.48368e-05
5.80366e-07
3.87246e-07
1.21719e-06
3.96175e-07
5.80479e-07
3.87249e-07
1.21674e-06
2.48787e-06
2.48838e-06
4.14372e-07
2.4875e-06
2.48802e-06
1.49088e-06
7.66709e-06
1.49126e-06
7.66676e-06
2.48363e-05
2.48357e-05
1.49074e-06
7.66814e-06
1.49107e-06
7.66779e-06
3.84076e-07
3.84077e-07
3.84076e-07
3.84072e-07
3.84074e-07
3.84074e-07
3.84074e-07
5.80365e-07
1.21726e-06
3.87246e-07
3.9617e-07
5.8047e-07
1.21678e-06
3.87248e-07
2.48375e-05
2.48368e-05
5.80366e-07
3.87247e-07
1.21719e-06
3.96175e-07
5.80478e-07
3.87249e-07
1.21674e-06
2.48787e-06
2.48838e-06
4.14372e-07
2.4875e-06
2.48802e-06
1.49088e-06
7.66709e-06
1.49126e-06
7.66676e-06
2.48363e-05
2.48357e-05
1.49074e-06
7.66814e-06
1.49107e-06
7.66779e-06
3.84076e-07
3.84077e-07
3.84076e-07
3.84072e-07
3.84074e-07
3.84074e-07
3.84074e-07
5.80365e-07
1.21726e-06
3.87246e-07
3.9617e-07
5.8047e-07
1.21678e-06
3.87248e-07
2.48375e-05
2.48368e-05
5.80366e-07
3.87246e-07
1.21719e-06
3.96175e-07
5.80478e-07
3.87249e-07
1.21674e-06
2.48787e-06
2.48838e-06
4.14372e-07
2.4875e-06
2.48802e-06
1.49088e-06
7.66709e-06
1.49126e-06
7.66676e-06
2.48363e-05
2.48357e-05
1.49074e-06
7.66814e-06
1.49107e-06
7.66779e-06
3.84076e-07
3.84077e-07
3.84076e-07
3.84072e-07
3.84073e-07
3.84074e-07
3.84074e-07
5.80365e-07
1.21726e-06
3.87246e-07
3.9617e-07
5.8047e-07
1.21678e-06
3.87249e-07
2.48375e-05
2.48368e-05
5.80366e-07
3.87247e-07
1.21719e-06
3.96175e-07
5.80478e-07
3.87249e-07
1.21674e-06
2.48787e-06
2.48838e-06
4.14372e-07
2.4875e-06
2.48802e-06
1.49088e-06
7.66709e-06
1.49126e-06
7.66676e-06
2.48363e-05
2.48357e-05
1.49074e-06
7.66814e-06
1.49107e-06
7.66779e-06
3.84076e-07
3.84077e-07
3.84076e-07
3.84072e-07
3.84074e-07
3.84075e-07
3.84074e-07
5.80365e-07
1.21726e-06
3.87246e-07
3.9617e-07
5.8047e-07
1.21678e-06
3.87248e-07
2.48375e-05
2.48368e-05
5.80372e-07
3.87246e-07
1.21719e-06
3.96175e-07
5.8048e-07
3.87249e-07
1.21674e-06
2.48787e-06
2.48838e-06
4.14371e-07
2.4875e-06
2.48802e-06
1.49088e-06
7.66709e-06
1.49126e-06
7.66676e-06
2.48363e-05
2.48357e-05
1.49074e-06
7.66814e-06
1.49107e-06
7.66779e-06
3.84076e-07
3.84077e-07
3.84076e-07
3.84072e-07
3.84074e-07
3.84075e-07
3.84074e-07
5.80365e-07
1.21726e-06
3.87246e-07
3.9617e-07
5.8047e-07
1.21678e-06
3.87248e-07
2.48375e-05
2.48368e-05
5.80382e-07
3.87246e-07
1.21719e-06
3.96175e-07
5.80491e-07
3.87249e-07
1.21674e-06
2.48787e-06
2.48838e-06
4.14371e-07
2.4875e-06
2.48802e-06
1.49088e-06
7.66709e-06
1.49126e-06
7.66676e-06
2.48363e-05
2.48357e-05
1.49074e-06
7.66814e-06
1.49107e-06
7.66779e-06
3.84076e-07
3.84077e-07
3.84076e-07
3.84072e-07
3.84073e-07
3.84074e-07
3.84074e-07
5.80365e-07
1.21726e-06
3.87246e-07
3.9617e-07
5.8047e-07
1.21678e-06
3.87248e-07
2.48375e-05
2.48368e-05
5.80386e-07
3.87247e-07
1.21719e-06
3.96175e-07
5.80497e-07
3.87249e-07
1.21674e-06
2.48787e-06
2.48838e-06
4.14372e-07
2.4875e-06
2.48802e-06
1.49089e-06
7.66709e-06
1.49126e-06
7.66676e-06
2.48363e-05
2.48357e-05
1.49074e-06
7.66814e-06
1.49107e-06
7.66779e-06
3.84076e-07
3.84077e-07
3.84076e-07
3.84072e-07
3.84074e-07
3.84074e-07
3.84074e-07
5.80365e-07
1.21726e-06
3.87246e-07
3.9617e-07
5.80471e-07
1.21678e-06
3.87248e-07
2.48375e-05
2.48367e-05
5.80387e-07
3.87247e-07
1.21719e-06
3.96175e-07
5.80499e-07
3.87249e-07
1.21674e-06
2.48787e-06
2.48838e-06
4.14372e-07
2.4875e-06
2.48802e-06
1.49089e-06
7.66709e-06
1.49126e-06
7.66676e-06
2.48363e-05
2.48357e-05
1.49074e-06
7.66814e-06
1.49107e-06
7.66779e-06
3.84076e-07
3.84077e-07
3.84076e-07
3.84072e-07
3.84073e-07
3.84075e-07
3.84074e-07
5.80364e-07
1.21726e-06
3.87246e-07
3.9617e-07
5.8047e-07
1.21678e-06
3.87248e-07
2.48375e-05
2.48367e-05
5.80385e-07
3.87247e-07
1.21719e-06
3.96175e-07
5.80498e-07
3.87249e-07
1.21674e-06
2.48787e-06
2.48839e-06
4.14372e-07
2.4875e-06
2.48802e-06
1.49088e-06
7.66709e-06
1.49126e-06
7.66676e-06
2.48362e-05
2.48357e-05
1.49074e-06
7.66814e-06
1.49107e-06
7.66779e-06
3.84076e-07
3.84076e-07
3.84075e-07
5.80366e-07
1.21726e-06
3.87246e-07
3.96169e-07
5.8047e-07
1.21678e-06
3.87249e-07
2.48375e-05
2.4837e-05
5.80388e-07
3.87247e-07
1.21719e-06
3.96176e-07
5.805e-07
3.8725e-07
1.21674e-06
2.48786e-06
2.48838e-06
4.14371e-07
2.4877e-06
2.48822e-06
2.48294e-05
2.48319e-05
4.1449e-07
2.48633e-06
2.4869e-06
2.48259e-05
2.48291e-05
2.48283e-05
2.48315e-05
4.14652e-07
2.48655e-06
2.48713e-06
2.48672e-06
2.4873e-06
1.49021e-06
7.66242e-06
5.80328e-07
3.96361e-07
1.21623e-06
3.87454e-07
5.8032e-07
3.96363e-07
1.21631e-06
3.87454e-07
1.49058e-06
7.66185e-06
7.66216e-06
1.4902e-06
1.49052e-06
7.66229e-06
7.66259e-06
1.49016e-06
5.8044e-07
3.96361e-07
1.21634e-06
3.87453e-07
1.21671e-06
3.87453e-07
5.80357e-07
5.80434e-07
3.96363e-07
1.21644e-06
3.87454e-07
1.21681e-06
3.87454e-07
5.80354e-07
4.14486e-07
2.48684e-06
2.48639e-06
2.48276e-05
2.48277e-05
2.48309e-05
4.14647e-07
2.48709e-06
2.48671e-06
2.48726e-06
2.48691e-06
2.48242e-05
2.48276e-05
5.80333e-07
3.96355e-07
1.21642e-06
3.87454e-07
1.49012e-06
7.66328e-06
5.80325e-07
3.96369e-07
3.87456e-07
1.21648e-06
1.49041e-06
7.6631e-06
7.66341e-06
1.49007e-06
5.80443e-07
3.96354e-07
1.21656e-06
3.87454e-07
1.21692e-06
3.87454e-07
5.80366e-07
1.49038e-06
7.66314e-06
7.66347e-06
1.49005e-06
5.80438e-07
3.96368e-07
3.87455e-07
1.2166e-06
3.87455e-07
1.21698e-06
5.80358e-07
1.49023e-06
7.66219e-06
5.80321e-07
3.96363e-07
3.87455e-07
1.21627e-06
1.49023e-06
7.66293e-06
5.80416e-07
3.9635e-07
1.21636e-06
3.87452e-07
1.21673e-06
3.87453e-07
5.80323e-07
1.49054e-06
7.66205e-06
7.66238e-06
1.49017e-06
5.80431e-07
3.96362e-07
3.87454e-07
1.21639e-06
3.87454e-07
1.21676e-06
5.80355e-07
1.49054e-06
7.6628e-06
7.6631e-06
1.49018e-06
4.14497e-07
2.48714e-06
2.48641e-06
2.48309e-05
2.48283e-05
2.48317e-05
4.14658e-07
2.48745e-06
2.48663e-06
2.48765e-06
2.48681e-06
2.48273e-05
2.48306e-05
5.80331e-07
3.96356e-07
3.87455e-07
1.21636e-06
1.4901e-06
7.66307e-06
1.49011e-06
7.66337e-06
5.80438e-07
3.96355e-07
3.87452e-07
1.21638e-06
3.87454e-07
1.21674e-06
5.80352e-07
5.80445e-07
3.96356e-07
3.87454e-07
1.2165e-06
3.87454e-07
1.21686e-06
5.8036e-07
1.49037e-06
7.66293e-06
7.66323e-06
1.49003e-06
1.49037e-06
7.66323e-06
7.66353e-06
1.49004e-06
2.48312e-05
2.48324e-05
4.14654e-07
2.48668e-06
2.4872e-06
2.48687e-06
2.48738e-06
2.48276e-05
2.48308e-05
2.48288e-05
2.48321e-05
2.48258e-05
2.48239e-05
2.48283e-05
2.48263e-05
2.48687e-06
2.48744e-06
4.14506e-07
2.48664e-06
2.48721e-06
2.4823e-05
2.4824e-05
2.48254e-05
2.48265e-05
4.14663e-07
2.48667e-06
2.48724e-06
2.48692e-06
2.4875e-06
1.49014e-06
7.66235e-06
1.49048e-06
7.66206e-06
5.80343e-07
1.21674e-06
3.87456e-07
3.96364e-07
5.80464e-07
1.21626e-06
3.87456e-07
5.80338e-07
1.21685e-06
3.87456e-07
3.96366e-07
5.80462e-07
1.21636e-06
3.87455e-07
1.49048e-06
7.66148e-06
7.66168e-06
1.49014e-06
1.49046e-06
7.66194e-06
7.66214e-06
1.49013e-06
5.80441e-07
3.96363e-07
1.21623e-06
3.87451e-07
1.21667e-06
3.87453e-07
5.80327e-07
5.80437e-07
3.96365e-07
1.21633e-06
3.87451e-07
1.21678e-06
3.87451e-07
5.80323e-07
2.48743e-06
2.48714e-06
4.14501e-07
2.48718e-06
2.48684e-06
2.48244e-05
2.4822e-05
2.48246e-05
2.48257e-05
4.14659e-07
2.48721e-06
2.48688e-06
2.48748e-06
2.48722e-06
2.48211e-05
2.48224e-05
5.80344e-07
1.21696e-06
3.87454e-07
3.96358e-07
5.8047e-07
1.21647e-06
3.87454e-07
1.49002e-06
7.66325e-06
1.49033e-06
7.66294e-06
5.80341e-07
3.87458e-07
1.21706e-06
3.96371e-07
5.80462e-07
3.87457e-07
1.21658e-06
1.49029e-06
7.66273e-06
7.66294e-06
1.49e-06
5.80441e-07
3.96356e-07
1.21645e-06
3.87451e-07
1.21687e-06
3.87452e-07
5.80327e-07
1.49029e-06
7.66283e-06
7.66305e-06
1.49001e-06
5.80439e-07
3.9637e-07
3.87452e-07
1.21656e-06
3.87453e-07
1.21702e-06
5.80327e-07
1.49016e-06
7.66216e-06
1.49049e-06
7.66185e-06
5.8034e-07
3.87456e-07
1.2168e-06
3.96365e-07
5.8046e-07
3.87455e-07
1.21631e-06
1.49016e-06
7.66286e-06
1.4905e-06
7.66257e-06
5.80423e-07
3.96354e-07
1.21631e-06
3.87451e-07
1.21678e-06
3.87453e-07
5.80322e-07
1.49048e-06
7.66172e-06
7.66195e-06
1.49015e-06
5.80437e-07
3.96364e-07
3.87451e-07
1.21628e-06
3.87452e-07
1.21672e-06
5.80328e-07
1.49048e-06
7.66244e-06
7.66265e-06
1.49015e-06
2.48787e-06
2.48695e-06
4.1451e-07
2.48756e-06
2.48671e-06
2.48273e-05
2.48253e-05
2.48252e-05
2.48265e-05
4.14668e-07
2.48761e-06
2.48674e-06
2.48794e-06
2.487e-06
2.48244e-05
2.48255e-05
5.80345e-07
3.87457e-07
1.21691e-06
3.96359e-07
5.80474e-07
3.87456e-07
1.21642e-06
1.49e-06
7.663e-06
1.49031e-06
7.66271e-06
1.49001e-06
7.66329e-06
1.49032e-06
7.663e-06
5.80443e-07
3.96359e-07
3.87452e-07
1.21627e-06
3.87454e-07
1.21672e-06
5.8032e-07
5.80446e-07
3.96358e-07
3.87451e-07
1.21639e-06
3.87453e-07
1.21684e-06
5.80323e-07
1.49028e-06
7.66258e-06
7.66278e-06
1.48998e-06
1.49029e-06
7.66287e-06
7.66308e-06
1.48999e-06
2.48275e-05
2.48256e-05
2.48288e-05
2.48268e-05
4.14664e-07
2.48676e-06
2.48728e-06
2.48703e-06
2.48755e-06
2.48247e-05
2.48257e-05
2.48259e-05
2.4827e-05
2.48233e-05
2.48232e-05
2.48257e-05
2.48256e-05
2.48694e-06
2.48751e-06
4.14506e-07
2.48661e-06
2.48719e-06
2.4828e-05
2.4824e-05
2.48305e-05
2.48264e-05
4.14663e-07
2.48715e-06
2.48773e-06
2.48696e-06
2.48755e-06
1.49013e-06
7.66204e-06
1.49046e-06
7.66197e-06
5.80331e-07
1.21665e-06
3.87451e-07
3.9636e-07
5.8043e-07
1.21624e-06
3.87449e-07
5.80327e-07
1.21676e-06
3.8745e-07
3.96362e-07
5.80427e-07
1.21634e-06
3.87449e-07
1.4905e-06
7.66288e-06
7.66174e-06
1.49047e-06
1.49049e-06
7.6632e-06
7.66215e-06
1.49046e-06
5.80441e-07
3.96356e-07
1.21647e-06
3.87435e-07
1.2167e-06
3.87445e-07
5.80368e-07
5.80438e-07
3.96358e-07
1.21657e-06
3.87435e-07
1.21681e-06
3.87445e-07
5.80364e-07
2.4875e-06
2.48726e-06
4.14501e-07
2.48716e-06
2.48683e-06
2.48216e-05
2.48214e-05
2.48299e-05
2.48258e-05
4.14658e-07
2.4877e-06
2.48733e-06
2.48754e-06
2.48728e-06
2.48265e-05
2.48226e-05
5.80331e-07
1.21686e-06
3.87451e-07
3.96354e-07
5.80429e-07
1.21646e-06
3.87449e-07
1.49e-06
7.66296e-06
1.49029e-06
7.66286e-06
5.80331e-07
3.87452e-07
1.21701e-06
3.96368e-07
5.80429e-07
3.8745e-07
1.21657e-06
1.49031e-06
7.66411e-06
7.66301e-06
1.49033e-06
5.80438e-07
3.9635e-07
1.21669e-06
3.87435e-07
1.21691e-06
3.87445e-07
5.80369e-07
1.49031e-06
7.6641e-06
7.66309e-06
1.49034e-06
5.8044e-07
3.96364e-07
3.87436e-07
1.2168e-06
3.87446e-07
1.21706e-06
5.80369e-07
1.49014e-06
7.66185e-06
1.49047e-06
7.66174e-06
5.8033e-07
3.8745e-07
1.2167e-06
3.96361e-07
5.80429e-07
3.87449e-07
1.21628e-06
1.49014e-06
7.66255e-06
1.49048e-06
7.66247e-06
5.80435e-07
3.96347e-07
1.21655e-06
3.87434e-07
1.2168e-06
3.87444e-07
5.80362e-07
1.4905e-06
7.66301e-06
7.66197e-06
1.49048e-06
5.80438e-07
3.96357e-07
3.87435e-07
1.21652e-06
3.87445e-07
1.21675e-06
5.80367e-07
1.4905e-06
7.66371e-06
7.66265e-06
1.49048e-06
2.48797e-06
2.48701e-06
4.14512e-07
2.48757e-06
2.48668e-06
2.48247e-05
2.48246e-05
2.48306e-05
2.48269e-05
4.14669e-07
2.48807e-06
2.48722e-06
2.48801e-06
2.48704e-06
2.48294e-05
2.48254e-05
5.80327e-07
3.87451e-07
1.21681e-06
3.96355e-07
5.80429e-07
3.87449e-07
1.21639e-06
1.48997e-06
7.66268e-06
1.49027e-06
7.6626e-06
1.48997e-06
7.66297e-06
1.49027e-06
7.6629e-06
5.8044e-07
3.96352e-07
3.87434e-07
1.2165e-06
3.87445e-07
1.21673e-06
5.80361e-07
5.80443e-07
3.96351e-07
3.87435e-07
1.21663e-06
3.87445e-07
1.21686e-06
5.80363e-07
1.49029e-06
7.66381e-06
7.66278e-06
1.49031e-06
1.49029e-06
7.66413e-06
7.66308e-06
1.49031e-06
2.4825e-05
2.48249e-05
2.48262e-05
2.48261e-05
4.14666e-07
2.48725e-06
2.48777e-06
2.48707e-06
2.48759e-06
2.48298e-05
2.48256e-05
2.4831e-05
2.48269e-05
2.4832e-05
2.48349e-05
2.48345e-05
2.48373e-05
2.48767e-06
2.48825e-06
4.14439e-07
2.48758e-06
2.48815e-06
2.48346e-05
2.48353e-05
2.48371e-05
2.48377e-05
4.14578e-07
2.48745e-06
2.48803e-06
2.48785e-06
2.48842e-06
1.49089e-06
7.6648e-06
1.49098e-06
7.66736e-06
5.80381e-07
1.21699e-06
3.87403e-07
3.96269e-07
5.80485e-07
1.2167e-06
3.87348e-07
5.80379e-07
1.2171e-06
3.87403e-07
3.9627e-07
5.80482e-07
1.21681e-06
3.87348e-07
1.49125e-06
7.66689e-06
7.66708e-06
1.4909e-06
1.49125e-06
7.66746e-06
7.66768e-06
1.4909e-06
5.80482e-07
3.96226e-07
1.2167e-06
3.87268e-07
1.21714e-06
3.873e-07
5.80372e-07
5.80481e-07
3.96228e-07
1.21681e-06
3.87268e-07
1.21726e-06
3.873e-07
5.8037e-07
2.48824e-06
2.48804e-06
4.14434e-07
2.48812e-06
2.48789e-06
2.48307e-05
2.48333e-05
2.48361e-05
2.48368e-05
4.14573e-07
2.48799e-06
2.4877e-06
2.48841e-06
2.48826e-06
2.4833e-05
2.48339e-05
5.80382e-07
1.21721e-06
3.87403e-07
3.96262e-07
5.80483e-07
1.21692e-06
3.87348e-07
1.49076e-06
7.66572e-06
1.4908e-06
7.66823e-06
5.80382e-07
3.87405e-07
1.21735e-06
3.96276e-07
5.80485e-07
3.87349e-07
1.21704e-06
1.49105e-06
7.66814e-06
7.66836e-06
1.49075e-06
5.80482e-07
3.9622e-07
1.21692e-06
3.87269e-07
1.21735e-06
3.873e-07
5.80372e-07
1.49107e-06
7.66838e-06
7.66867e-06
1.49077e-06
5.80483e-07
3.96234e-07
3.87269e-07
1.21704e-06
3.87301e-07
1.21752e-06
5.80374e-07
1.49091e-06
7.66466e-06
1.49099e-06
7.66714e-06
5.80382e-07
3.87403e-07
1.21704e-06
3.9627e-07
5.80483e-07
3.87347e-07
1.21676e-06
1.49091e-06
7.66532e-06
1.49099e-06
7.66788e-06
5.80478e-07
3.96215e-07
1.21679e-06
3.87268e-07
1.21726e-06
3.87299e-07
5.80369e-07
1.49126e-06
7.66728e-06
7.66755e-06
1.49092e-06
5.80481e-07
3.96227e-07
3.87268e-07
1.21676e-06
3.873e-07
1.2172e-06
5.80373e-07
1.49126e-06
7.66798e-06
7.6682e-06
1.49092e-06
2.48874e-06
2.48774e-06
4.14444e-07
2.48857e-06
2.48765e-06
2.48334e-05
2.48363e-05
2.4837e-05
2.48379e-05
4.14583e-07
2.4884e-06
2.48753e-06
2.48893e-06
2.48792e-06
2.48361e-05
2.48367e-05
5.80384e-07
3.87403e-07
1.21716e-06
3.96263e-07
5.80488e-07
3.87348e-07
1.21687e-06
1.49074e-06
7.66541e-06
1.49079e-06
7.668e-06
1.49074e-06
7.66575e-06
1.49079e-06
7.66832e-06
5.80486e-07
3.9622e-07
3.87269e-07
1.21675e-06
3.873e-07
1.21719e-06
5.80369e-07
5.80488e-07
3.96221e-07
3.87268e-07
1.21687e-06
3.873e-07
1.21732e-06
5.80374e-07
1.49105e-06
7.66811e-06
7.66834e-06
1.49075e-06
1.49106e-06
7.66842e-06
7.66864e-06
1.49076e-06
2.48338e-05
2.48365e-05
2.4835e-05
2.48378e-05
4.1458e-07
2.48754e-06
2.48807e-06
2.48794e-06
2.48846e-06
2.48363e-05
2.48369e-05
2.48375e-05
2.48382e-05
2.4835e-05
2.48344e-05
2.48374e-05
2.48369e-05
2.48773e-06
2.48831e-06
4.14357e-07
2.48742e-06
2.48799e-06
2.48344e-05
2.48348e-05
2.48368e-05
2.48373e-05
4.14515e-07
2.48741e-06
2.48798e-06
2.48771e-06
2.48829e-06
1.49089e-06
7.66755e-06
1.49123e-06
7.66739e-06
5.80367e-07
1.21712e-06
3.87255e-07
3.96181e-07
5.80474e-07
1.21669e-06
3.8725e-07
5.80365e-07
1.21724e-06
3.87255e-07
3.96183e-07
5.80473e-07
1.2168e-06
3.8725e-07
1.49122e-06
7.66677e-06
7.66691e-06
1.49089e-06
1.49122e-06
7.66736e-06
7.6675e-06
1.49088e-06
5.8047e-07
3.96178e-07
1.21669e-06
3.87247e-07
1.21711e-06
3.87247e-07
5.80366e-07
5.80469e-07
3.9618e-07
1.2168e-06
3.87247e-07
1.21724e-06
3.87247e-07
5.80363e-07
2.48828e-06
2.48806e-06
4.14352e-07
2.48795e-06
2.48763e-06
2.48336e-05
2.48328e-05
2.4836e-05
2.48365e-05
4.14511e-07
2.48794e-06
2.48763e-06
2.48826e-06
2.48801e-06
2.48328e-05
2.48335e-05
5.80367e-07
1.21734e-06
3.87255e-07
3.96175e-07
5.80474e-07
1.21691e-06
3.87251e-07
1.49076e-06
7.6685e-06
1.49106e-06
7.66829e-06
5.80369e-07
3.87256e-07
1.2175e-06
3.96189e-07
5.80476e-07
3.87252e-07
1.21703e-06
1.49103e-06
7.66802e-06
7.66817e-06
1.49074e-06
5.80469e-07
3.96171e-07
1.21691e-06
3.87247e-07
1.21733e-06
3.87247e-07
5.80365e-07
1.49105e-06
7.66825e-06
7.66842e-06
1.49076e-06
5.80471e-07
3.96185e-07
3.87249e-07
1.21703e-06
3.87249e-07
1.21749e-06
5.80367e-07
1.49091e-06
7.66739e-06
1.49125e-06
7.66719e-06
5.80369e-07
3.87255e-07
1.21719e-06
3.96182e-07
5.80474e-07
3.8725e-07
1.21675e-06
1.49091e-06
7.66807e-06
1.49125e-06
7.66791e-06
5.80466e-07
3.9617e-07
1.21678e-06
3.87246e-07
1.21723e-06
3.87248e-07
5.80364e-07
1.49124e-06
7.66715e-06
7.66731e-06
1.4909e-06
5.8047e-07
3.96179e-07
3.87247e-07
1.21675e-06
3.87247e-07
1.21718e-06
5.80368e-07
1.49124e-06
7.66788e-06
7.66801e-06
1.4909e-06
2.48877e-06
2.48781e-06
4.14363e-07
2.48835e-06
2.48749e-06
2.48364e-05
2.48359e-05
2.48367e-05
2.48374e-05
4.14521e-07
2.48834e-06
2.48749e-06
2.48873e-06
2.48779e-06
2.48358e-05
2.48363e-05
5.80374e-07
3.87255e-07
1.2173e-06
3.96176e-07
5.80481e-07
3.87251e-07
1.21686e-06
1.49074e-06
7.6682e-06
1.49105e-06
7.66804e-06
1.49075e-06
7.66851e-06
1.49105e-06
7.66834e-06
5.80475e-07
3.96175e-07
3.87247e-07
1.21674e-06
3.87249e-07
1.21717e-06
5.80362e-07
5.8048e-07
3.96173e-07
3.87248e-07
1.21686e-06
3.87248e-07
1.21729e-06
5.80367e-07
1.49103e-06
7.66801e-06
7.66815e-06
1.49074e-06
1.49104e-06
7.66831e-06
7.66844e-06
1.49074e-06
2.48367e-05
2.48361e-05
2.48379e-05
2.48374e-05
4.14518e-07
2.4875e-06
2.48803e-06
2.48781e-06
2.48833e-06
2.48361e-05
2.48365e-05
2.48373e-05
2.48378e-05
2.48348e-05
2.48344e-05
2.48372e-05
2.48368e-05
2.4877e-06
2.48828e-06
4.14372e-07
2.48741e-06
2.48798e-06
2.48343e-05
2.48348e-05
2.48368e-05
2.48372e-05
4.14528e-07
2.4874e-06
2.48798e-06
2.4877e-06
2.48828e-06
1.49088e-06
7.66747e-06
1.49122e-06
7.66736e-06
5.80369e-07
1.21711e-06
3.87251e-07
3.96181e-07
5.80469e-07
1.21669e-06
3.87251e-07
5.80367e-07
1.21723e-06
3.87251e-07
3.96183e-07
5.80467e-07
1.2168e-06
3.87251e-07
1.49122e-06
7.66676e-06
7.66688e-06
1.49089e-06
1.49122e-06
7.66736e-06
7.66747e-06
1.49088e-06
5.80473e-07
3.96178e-07
1.21669e-06
3.87247e-07
1.21711e-06
3.87247e-07
5.80367e-07
5.80471e-07
3.9618e-07
1.2168e-06
3.87247e-07
1.21723e-06
3.87247e-07
5.80365e-07
2.48825e-06
2.48802e-06
4.14368e-07
2.48794e-06
2.48763e-06
2.48335e-05
2.48328e-05
2.4836e-05
2.48365e-05
4.14524e-07
2.48794e-06
2.48763e-06
2.48825e-06
2.48801e-06
2.48328e-05
2.48335e-05
5.80369e-07
1.21733e-06
3.87251e-07
3.96175e-07
5.80468e-07
1.21691e-06
3.87251e-07
1.49076e-06
7.66839e-06
1.49105e-06
7.66825e-06
5.80371e-07
3.87253e-07
1.21748e-06
3.96189e-07
5.8047e-07
3.87252e-07
1.21703e-06
1.49103e-06
7.66792e-06
7.66814e-06
1.49074e-06
5.80472e-07
3.96172e-07
1.2169e-06
3.87247e-07
1.21732e-06
3.87247e-07
5.80367e-07
1.49105e-06
7.66825e-06
7.66839e-06
1.49076e-06
5.80473e-07
3.96186e-07
3.87248e-07
1.21703e-06
3.87249e-07
1.21748e-06
5.80369e-07
1.4909e-06
7.6673e-06
1.49123e-06
7.66716e-06
5.80371e-07
3.87251e-07
1.21718e-06
3.96183e-07
5.80469e-07
3.87251e-07
1.21675e-06
1.4909e-06
7.66799e-06
1.49124e-06
7.66787e-06
5.80468e-07
3.9617e-07
1.21678e-06
3.87246e-07
1.21723e-06
3.87248e-07
5.80365e-07
1.49123e-06
7.66715e-06
7.6673e-06
1.4909e-06
5.80472e-07
3.9618e-07
3.87247e-07
1.21675e-06
3.87247e-07
1.21718e-06
5.8037e-07
1.49123e-06
7.66787e-06
7.66798e-06
1.4909e-06
2.48873e-06
2.48778e-06
4.14378e-07
2.48834e-06
2.48748e-06
2.48363e-05
2.48358e-05
2.48367e-05
2.48374e-05
4.14534e-07
2.48834e-06
2.48748e-06
2.48872e-06
2.48778e-06
2.48358e-05
2.48362e-05
5.8037e-07
3.87252e-07
1.21729e-06
3.96176e-07
5.80474e-07
3.87251e-07
1.21686e-06
1.49074e-06
7.66812e-06
1.49103e-06
7.668e-06
1.49074e-06
7.66842e-06
1.49104e-06
7.6683e-06
5.80476e-07
3.96175e-07
3.87246e-07
1.21674e-06
3.87249e-07
1.21717e-06
5.80368e-07
5.80481e-07
3.96173e-07
3.87247e-07
1.21686e-06
3.87248e-07
1.21729e-06
5.80375e-07
1.49103e-06
7.668e-06
7.66812e-06
1.49074e-06
1.49104e-06
7.66829e-06
7.66841e-06
1.49074e-06
2.48365e-05
2.48361e-05
2.48378e-05
2.48373e-05
4.14532e-07
2.4875e-06
2.48803e-06
2.48781e-06
2.48832e-06
2.48361e-05
2.48365e-05
2.48373e-05
2.48378e-05
2.48348e-05
2.48343e-05
2.48372e-05
2.48368e-05
2.4877e-06
2.48828e-06
4.14369e-07
2.48741e-06
2.48798e-06
2.48343e-05
2.48348e-05
2.48367e-05
2.48372e-05
4.14526e-07
2.48741e-06
2.48798e-06
2.4877e-06
2.48828e-06
1.49088e-06
7.66747e-06
1.49122e-06
7.66735e-06
5.80367e-07
1.21711e-06
3.87249e-07
3.9618e-07
5.8047e-07
1.21669e-06
3.87249e-07
5.80365e-07
1.21723e-06
3.87249e-07
3.96182e-07
5.80469e-07
1.2168e-06
3.87249e-07
1.49122e-06
7.66676e-06
7.66688e-06
1.49089e-06
1.49122e-06
7.66733e-06
7.66747e-06
1.49088e-06
5.80471e-07
3.96178e-07
1.21669e-06
3.87247e-07
1.21711e-06
3.87247e-07
5.80368e-07
5.80469e-07
3.9618e-07
1.2168e-06
3.87247e-07
1.21723e-06
3.87247e-07
5.80366e-07
2.48825e-06
2.48801e-06
4.14364e-07
2.48794e-06
2.48763e-06
2.48334e-05
2.48328e-05
2.48357e-05
2.48365e-05
4.14522e-07
2.48803e-06
2.48763e-06
2.48825e-06
2.48801e-06
2.48328e-05
2.48334e-05
5.80367e-07
1.21736e-06
3.87249e-07
3.96174e-07
5.80469e-07
1.21692e-06
3.87249e-07
1.49076e-06
7.66839e-06
1.49105e-06
7.66825e-06
5.80368e-07
3.87251e-07
1.21748e-06
3.96188e-07
5.80471e-07
3.87251e-07
1.21703e-06
1.49103e-06
7.66785e-06
7.668e-06
1.49074e-06
5.8047e-07
3.96172e-07
1.21694e-06
3.87247e-07
1.21738e-06