/*--------------------------------*- C++ -*----------------------------------*\
| =========                 |                                                 |
| \\      /  F ield         | OpenFOAM: The Open Source CFD Toolbox           |
|  \\    /   O peration     | Version:  2206                                  |
|   \\  /    A nd           | Website:  www.openfoam.com                      |
|    \\/     M anipulation  |                                                 |
\*---------------------------------------------------------------------------*/
FoamFile
{
    version     2.0;
    format      ascii;
    arch        "LSB;label=32;scalar=64";
    class       surfaceScalarField;
    location    "5";
    object      phi;
}
// * * * * * * * * * * * * * * * * * * * * * * * * * * * * * * * * * * * * * //

dimensions      [0 3 -1 0 0 0 0];

oriented        oriented;

internalField   nonuniform List<scalar> 
82330
(
2.72872e-07
-3.12144e-07
3.63949e-08
2.74071e-07
-3.12806e-07
3.59919e-08
-2.13937e-07
1.50769e-07
1.51797e-07
-2.1365e-07
-1.26015e-07
-7.24685e-08
3.2312e-07
-4.99131e-08
5.92792e-08
-5.10846e-08
-7.19347e-08
3.24593e-07
5.93705e-08
-8.88656e-08
-7.57719e-10
-1.29634e-08
3.92929e-08
2.6323e-08
-4.11036e-07
2.75149e-08
6.65285e-08
-9.2816e-10
1.04903e-07
-2.42519e-07
-2.80227e-08
1.92896e-07
-6.35269e-08
2.64016e-07
-3.10481e-07
1.68477e-07
-4.14112e-07
2.32594e-07
1.81384e-07
-1.86864e-07
-1.05316e-07
-3.48629e-07
-1.2538e-07
-6.1827e-10
-1.00241e-09
5.47313e-08
-2.17074e-07
2.52945e-07
2.89747e-07
-1.87907e-07
3.76162e-07
-8.92265e-08
3.93764e-08
-1.42173e-08
2.66442e-08
-4.11926e-07
3.12576e-07
2.81528e-08
6.7045e-08
-2.43144e-07
1.0328e-07
-2.80017e-08
1.93849e-07
2.14393e-07
-6.12376e-08
-3.09693e-07
1.68959e-07
2.33096e-07
-4.13339e-07
-1.86575e-07
2.64212e-07
-1.05311e-07
1.92323e-07
4.96472e-08
-2.15794e-07
2.53729e-07
2.90923e-07
-1.87105e-07
3.77692e-07
5.07869e-08
-3.47739e-07
-1.26553e-07
-3.57347e-10
2.11695e-07
-5.2146e-08
-3.10879e-07
1.66394e-07
2.30219e-07
-4.14457e-07
-1.88485e-07
2.61494e-07
-1.06721e-07
1.88775e-07
2.01751e-07
4.12406e-07
5.10006e-08
-3.47977e-07
-1.25875e-07
1.5881e-09
3.11558e-07
2.83905e-08
6.52008e-08
2.73419e-07
3.62485e-08
-2.13799e-07
-1.25135e-07
1.51668e-07
1.51678e-07
-7.19311e-08
3.24018e-07
5.90686e-08
-2.72355e-07
-5.0345e-08
-7.22085e-08
3.22601e-07
5.96402e-08
-3.12341e-07
3.699e-08
1.33762e-09
9.0747e-08
-2.42638e-07
1.02776e-07
-2.7052e-08
1.96307e-07
-5.58023e-08
-1.87544e-07
2.63106e-07
-1.06329e-07
-3.10821e-07
1.68053e-07
2.31764e-07
-4.1371e-07
1.68484e-07
-1.25457e-09
6.08694e-08
-2.1708e-07
2.51368e-07
2.88646e-07
-1.8844e-07
3.74917e-07
4.11906e-07
-3.47124e-07
-1.26626e-07
-6.92394e-10
9.07579e-08
-2.42511e-07
1.05508e-07
-2.67501e-08
2.01122e-07
2.12044e-07
-5.17663e-08
-3.11782e-07
1.66448e-07
2.3033e-07
-4.15645e-07
-1.87674e-07
2.62101e-07
-1.06261e-07
1.68556e-07
6.46384e-08
-2.17876e-07
2.507e-07
2.87555e-07
-1.88683e-07
3.7516e-07
4.12832e-07
5.21911e-08
-3.49806e-07
-1.25939e-07
5.54549e-10
1.10798e-09
-1.42697e-08
4.18096e-08
2.75486e-08
2.72136e-08
6.76488e-08
-1.22102e-08
4.20704e-08
2.75097e-08
3.12567e-07
2.70784e-08
6.6624e-08
-1.23454e-07
1.49445e-07
1.50467e-07
-2.71385e-07
-7.27124e-08
3.22124e-07
6.04299e-08
-2.71837e-07
-7.15686e-08
3.22457e-07
6.08813e-08
3.49191e-08
3.61228e-08
2.57826e-07
-2.87539e-07
2.95021e-08
2.58009e-07
-2.87363e-07
2.9449e-08
2.20505e-07
2.185e-07
6.17249e-08
-3.9465e-07
4.57918e-08
-2.63551e-07
1.49537e-07
7.42809e-09
3.56981e-07
-4.78305e-07
1.48089e-08
-3.9359e-07
4.56964e-08
-2.60767e-07
1.50387e-07
3.5414e-07
7.8652e-09
-4.76712e-07
1.49627e-08
-5.54625e-08
-4.27625e-08
-7.99428e-08
1.7257e-07
5.59728e-09
2.20717e-08
2.72281e-08
-7.87886e-10
-9.41919e-08
-1.86926e-08
6.277e-08
-2.01139e-10
4.82129e-08
2.26839e-08
-3.55276e-10
-6.64811e-09
-3.75706e-08
-4.73844e-08
1.09509e-07
-4.33068e-08
-3.35237e-08
1.7271e-11
5.49371e-09
-3.03881e-08
2.03506e-07
-5.47803e-10
7.86906e-08
5.71094e-08
-1.30035e-07
-3.39943e-07
4.60705e-07
-4.97976e-08
-4.43628e-09
5.15862e-08
-2.14047e-08
-5.46911e-08
-8.00772e-08
-4.3044e-08
1.72679e-07
5.1329e-09
-1.91427e-08
6.27643e-08
2.19786e-08
2.7927e-08
-1.23564e-09
-9.46808e-08
2.28712e-08
4.74179e-08
-7.06417e-09
-3.69358e-08
-4.7863e-08
5.57542e-09
1.08745e-07
-4.42056e-08
-3.22392e-08
-2.96264e-08
2.03235e-07
-9.2908e-10
7.90917e-08
5.88854e-08
-1.31002e-07
-3.39872e-07
-4.94088e-08
4.60268e-07
-3.94143e-09
5.11886e-08
-2.01948e-08
-2.93399e-08
2.02962e-07
-1.72789e-07
-8.33129e-10
7.9737e-08
5.96424e-08
-1.32164e-07
1.07439e-09
-3.41432e-07
-4.89483e-08
4.59985e-07
-4.40345e-09
4.7532e-08
5.12237e-08
-1.09763e-07
-2.02888e-08
-1.05736e-08
-2.5867e-09
-6.21216e-08
1.51133e-07
1.50455e-07
-1.1314e-07
-1.11458e-07
-1.48684e-08
2.57599e-07
3.05342e-08
-2.87756e-07
2.57559e-07
3.05532e-08
-2.87791e-07
2.18568e-07
2.19605e-07
1.80694e-07
9.72865e-10
1.7994e-07
1.06836e-09
5.63075e-09
-1.41966e-08
-1.48454e-07
7.10627e-08
-2.71827e-08
-3.94581e-07
4.63354e-08
7.24001e-09
-2.61092e-07
3.54937e-07
1.49864e-07
7.39441e-08
-6.67252e-08
5.43543e-08
-1.30784e-08
8.77483e-08
7.2749e-08
-7.36824e-08
-4.77519e-07
1.18495e-08
-1.52297e-08
-1.48376e-07
7.53424e-09
7.05572e-08
-2.5943e-08
-3.95121e-07
4.68408e-08
-2.6312e-07
7.62365e-09
1.48936e-07
3.56903e-07
-6.62348e-08
7.31897e-08
9.86056e-09
5.55755e-08
-1.27507e-08
-4.78554e-07
1.21694e-08
7.2118e-08
8.97026e-08
-7.34731e-08
4.83722e-08
-1.52166e-09
-5.476e-08
-4.35492e-08
-8.14651e-08
1.73768e-07
6.00619e-09
2.36514e-08
2.86018e-08
-1.21944e-09
-9.56968e-08
-1.73845e-08
6.21e-08
-1.12917e-09
4.66383e-08
2.42514e-08
1.28891e-09
-7.75146e-09
-3.68782e-08
-4.61047e-08
1.08383e-07
-4.4246e-08
-3.24456e-08
-1.37584e-09
6.26254e-09
-3.06045e-08
2.04313e-07
5.9365e-11
7.83339e-08
5.90283e-08
-1.315e-07
-3.41179e-07
4.60117e-07
-2.91755e-09
5.08964e-08
-2.03498e-08
-5.47465e-08
-4.41381e-08
-7.87584e-08
1.71734e-07
5.90892e-09
2.44672e-08
2.87422e-08
1.8914e-10
-9.58417e-08
-1.96142e-08
6.25186e-08
4.90459e-08
2.41367e-08
-7.41123e-09
-3.69728e-08
-4.77041e-08
1.10281e-07
-4.4122e-08
-3.25085e-08
6.52091e-09
-2.95531e-08
2.01898e-07
-6.10555e-10
7.9914e-08
5.91981e-08
-1.3209e-07
-3.40399e-07
-4.99383e-08
4.60012e-07
-3.05114e-09
5.12043e-08
-2.02264e-08
-6.44433e-08
1.52377e-07
1.52104e-07
-1.11897e-07
-1.14078e-07
-1.40628e-08
2.56098e-07
2.90248e-08
-2.8693e-07
2.56678e-07
2.93545e-08
-2.87719e-07
2.17866e-07
2.16617e-07
1.80929e-07
4.72882e-10
1.80623e-07
8.34661e-10
-1.7356e-08
7.0264e-09
-1.47815e-07
7.06671e-08
-2.44203e-08
-3.96023e-07
4.51912e-08
-2.61915e-07
1.0439e-08
3.55892e-07
1.50176e-07
7.36219e-08
-6.6802e-08
1.14138e-08
5.48135e-08
-1.26174e-08
-4.78158e-07
8.89261e-08
7.28563e-08
-7.0695e-08
1.15035e-08
-1.69482e-08
4.75026e-09
-1.48043e-07
7.10294e-08
-2.48663e-08
-3.95976e-07
4.59191e-08
-2.60357e-07
9.29111e-09
3.544e-07
1.50087e-07
7.3837e-08
-6.62768e-08
1.22154e-08
5.34085e-08
-1.23028e-08
-4.77823e-07
8.68563e-08
7.34659e-08
-7.24439e-08
1.22223e-08
-2.61524e-09
-1.5999e-09
-6.50034e-08
-5.24583e-08
7.60779e-07
5.09964e-08
2.55834e-09
-3.0424e-09
-5.84503e-08
2.18731e-07
-4.1207e-09
-1.78372e-09
2.32925e-07
-4.5807e-09
1.07211e-09
1.35955e-07
-5.38044e-08
-5.74315e-08
7.60592e-07
5.46426e-08
5.27048e-08
1.92569e-09
-6.1643e-08
2.26729e-07
4.86588e-09
-4.52278e-10
-6.71869e-08
2.26076e-07
-1.52798e-09
1.37852e-07
-5.51088e-08
-6.30953e-08
7.55599e-07
-5.83234e-09
2.23941e-07
1.75127e-10
-5.41444e-09
2.24752e-07
-3.68774e-09
1.33128e-07
-5.54965e-08
-5.31255e-08
7.53137e-07
3.92187e-09
-6.45412e-08
2.24048e-07
2.81592e-09
2.24277e-07
1.34913e-07
4.90861e-07
-2.62862e-07
-5.6909e-08
4.92917e-07
-5.6685e-08
-3.21325e-08
5.41593e-08
-1.06277e-07
2.69148e-09
-1.24868e-08
-1.55162e-07
-2.98516e-07
-3.0482e-08
2.60296e-07
-8.50681e-08
-4.75471e-08
-7.96802e-10
-4.37891e-08
8.81629e-08
-7.74589e-10
-7.827e-08
-1.9457e-07
-1.43697e-07
-8.01576e-08
-5.10355e-10
-1.44089e-07
-5.66675e-08
4.5794e-08
-1.68969e-07
-1.43125e-07
-2.65652e-07
-2.13859e-08
-5.48954e-10
3.25483e-07
3.134e-07
2.13339e-07
-5.39899e-08
-1.26619e-08
-8.65613e-08
-7.13671e-08
-6.91268e-08
5.4292e-08
3.71904e-09
-1.05112e-07
-1.33309e-08
-1.55363e-07
-8.62988e-08
-4.75108e-08
-2.99595e-07
-3.07585e-08
2.59093e-07
8.75455e-08
-4.51827e-08
-7.82035e-08
-1.95852e-07
-1.43861e-07
-1.44811e-07
-8.04479e-08
4.55069e-08
-1.6817e-07
-5.78376e-08
-1.42523e-07
-2.66873e-07
-2.08864e-08
3.26448e-07
-4.18618e-10
2.14191e-07
3.12506e-07
-1.24314e-08
-6.84877e-08
-7.13403e-08
4.37374e-08
-1.68687e-07
-5.86491e-08
1.33011e-08
-1.40581e-07
-2.66048e-07
-1.89698e-08
-2.59207e-07
3.27415e-07
2.05478e-09
2.14596e-07
3.12691e-07
-1.09006e-08
1.96716e-07
1.44728e-07
-6.65649e-08
-6.94344e-08
8.49208e-08
3.20182e-08
8.5834e-08
-6.11531e-08
-1.25061e-07
-1.24463e-07
-2.4973e-07
-5.6087e-08
4.93272e-07
4.91106e-07
-5.69667e-08
-1.28789e-07
-1.29806e-07
5.33764e-08
6.02898e-09
-1.05864e-07
-1.60622e-08
-1.54559e-07
-8.64054e-08
-4.63724e-08
6.2224e-10
-2.99156e-07
-2.95529e-08
2.58453e-07
8.79369e-08
-4.73623e-08
2.33601e-09
-7.7714e-08
-1.96199e-07
2.13629e-09
-1.42983e-07
-1.47231e-07
-7.97944e-08
4.5964e-08
-6.03222e-08
-1.68274e-07
-1.44251e-07
-2.66437e-07
-2.0978e-08
3.27576e-07
-1.77769e-09
3.12066e-07
2.16371e-07
-1.34374e-08
-7.40406e-08
-6.92156e-08
5.29196e-08
1.77977e-09
-1.06309e-07
-1.2329e-08
-1.53937e-07
-8.47945e-08
-4.62109e-08
-2.98419e-07
-2.91754e-08
2.61189e-07
8.8297e-08
-4.26675e-08
-7.7455e-08
-1.94215e-07
-1.42681e-07
-1.43038e-07
-7.9237e-08
4.54151e-08
-1.68953e-07
-5.69233e-08
-1.4365e-07
-2.65886e-07
-2.04549e-08
3.25551e-07
-2.78705e-10
2.12783e-07
3.13415e-07
-1.2222e-08
-6.84584e-08
-7.25752e-08
2.97225e-08
8.59253e-08
8.55403e-08
-5.94916e-08
-1.25e-07
-1.26169e-07
-2.48444e-07
4.90635e-07
-5.42665e-08
4.91871e-07
-5.49894e-08
-1.27207e-07
-1.28414e-07
5.79576e-08
5.83937e-08
-5.76182e-08
-5.75707e-08
7.65509e-07
-7.66671e-07
2.13994e-07
-5.63136e-08
1.97017e-07
1.72085e-07
2.63761e-07
-1.87717e-07
-1.06233e-07
-3.10776e-07
1.6851e-07
-4.13958e-07
2.3262e-07
-1.72988e-07
5.75836e-08
5.99852e-08
-7.52599e-07
-5.77187e-08
-5.47814e-08
7.4753e-07
-1.66736e-07
2.14039e-07
-5.59899e-08
1.97126e-07
1.653e-07
2.63849e-07
-1.87456e-07
-1.05823e-07
-3.1063e-07
1.68032e-07
2.32352e-07
-4.14064e-07
2.15436e-07
-6.57204e-08
1.89533e-07
1.66832e-07
2.6498e-07
-1.85327e-07
-1.0392e-07
-3.07283e-07
1.70321e-07
-4.10439e-07
2.34302e-07
-1.68715e-07
-2.15828e-07
-2.14699e-07
1.51584e-07
1.53851e-07
-1.24325e-07
2.49415e-07
-1.59347e-07
2.14571e-07
-6.26473e-08
1.88809e-07
2.64142e-07
-1.85036e-07
-1.03733e-07
-3.07538e-07
1.69068e-07
2.32876e-07
-4.11063e-07
-2.14851e-07
-2.14472e-07
1.51129e-07
1.53402e-07
-1.26725e-07
2.51516e-07
1.86057e-07
1.85581e-07
-2.4923e-07
1.24674e-07
-1.23465e-07
-1.23618e-07
1.9501e-07
1.94855e-07
2.64537e-07
-1.87826e-07
-1.06213e-07
-3.1055e-07
1.68538e-07
-4.14078e-07
2.33008e-07
-1.94174e-07
2.14326e-07
-5.72795e-08
1.95072e-07
1.96189e-07
2.64007e-07
-1.86956e-07
-1.05976e-07
-3.10289e-07
1.68889e-07
-4.13871e-07
2.33016e-07
-1.97128e-07
1.89478e-07
-5.78394e-08
-1.91041e-07
1.91661e-07
2.15077e-07
-1.04685e-07
2.64409e-07
2.32914e-07
-4.12923e-07
1.68723e-07
-3.09716e-07
-1.87153e-07
1.90377e-07
-5.59347e-08
-1.92024e-07
1.96397e-07
2.1411e-07
-1.06003e-07
2.63938e-07
2.32476e-07
-4.14086e-07
1.68386e-07
-3.10483e-07
1.51932e-07
1.5158e-07
-1.26034e-07
2.50841e-07
1.87838e-07
-2.51571e-07
1.26455e-07
-1.24802e-07
-1.25073e-07
1.9526e-07
1.74431e-07
2.64252e-07
-1.87347e-07
-1.06409e-07
-3.11265e-07
1.69625e-07
-4.14438e-07
2.3379e-07
-1.73977e-07
-6.01211e-08
1.92587e-07
1.97941e-07
-3.10884e-07
1.70248e-07
2.34262e-07
-4.13897e-07
-1.97136e-07
2.15836e-07
2.65262e-07
-1.87402e-07
-1.06696e-07
1.68967e-07
-6.19143e-08
-1.71042e-07
1.92694e-07
2.14854e-07
-1.04488e-07
2.64752e-07
2.33544e-07
-4.12403e-07
1.69517e-07
-3.089e-07
1.91946e-07
-6.34872e-08
-1.94245e-07
1.88161e-07
2.34239e-07
-4.11134e-07
-3.08047e-07
1.70705e-07
-1.8498e-07
2.16072e-07
-1.04523e-07
2.65294e-07
-5.85475e-08
1.93326e-07
1.99142e-07
-3.10007e-07
1.69285e-07
-4.13371e-07
2.33418e-07
2.15237e-07
-1.97376e-07
2.64681e-07
-1.88572e-07
-1.07216e-07
-5.50501e-08
-1.67924e-07
1.97979e-07
2.1384e-07
-1.06138e-07
2.63674e-07
2.32249e-07
-4.14456e-07
-3.10946e-07
1.67875e-07
1.91725e-07
-5.89971e-08
-1.94633e-07
1.91376e-07
2.33172e-07
-4.12618e-07
-3.09609e-07
1.69445e-07
-1.86276e-07
2.16347e-07
-1.05104e-07
2.65172e-07
-2.14749e-07
-2.14376e-07
1.51145e-07
1.52782e-07
-1.24032e-07
1.87827e-07
1.87577e-07
1.24333e-07
-1.25635e-07
-1.25125e-07
1.9189e-07
1.86905e-07
2.6421e-07
-1.85746e-07
-1.04229e-07
-3.09199e-07
1.68499e-07
2.32671e-07
-4.1269e-07
2.14303e-07
-5.71674e-08
1.9472e-07
1.89111e-07
2.6408e-07
-1.86801e-07
-1.05727e-07
-3.1001e-07
1.68669e-07
2.32798e-07
-4.13598e-07
-5.29765e-08
-1.79659e-07
1.99384e-07
2.12492e-07
-1.05733e-07
2.62466e-07
2.30549e-07
-4.14646e-07
1.66289e-07
-3.10437e-07
-1.84853e-07
1.84388e-07
-6.24669e-08
-1.85094e-07
1.88572e-07
2.15177e-07
-1.03969e-07
2.64785e-07
2.33406e-07
-4.11723e-07
1.69742e-07
-3.07965e-07
1.51837e-07
1.51387e-07
-1.26453e-07
1.85545e-07
-2.50298e-07
1.25237e-07
-1.22785e-07
-1.22552e-07
1.93383e-07
1.66045e-07
2.64225e-07
-1.85444e-07
-1.04431e-07
-3.08695e-07
1.68955e-07
2.32894e-07
-4.12357e-07
2.15648e-07
-6.28319e-08
1.87962e-07
1.90167e-07
2.64787e-07
-1.84679e-07
-1.04275e-07
-3.07816e-07
1.70199e-07
2.33726e-07
-4.10941e-07
-5.16478e-08
-1.59424e-07
1.9992e-07
2.12078e-07
-1.06333e-07
2.61919e-07
2.30285e-07
-4.14321e-07
1.66625e-07
-3.10357e-07
-1.84496e-07
-6.0477e-08
-1.85066e-07
1.897e-07
2.14268e-07
-1.03741e-07
2.63235e-07
2.32337e-07
-4.10652e-07
1.69228e-07
-3.07535e-07
-5.97373e-08
1.90346e-07
1.88852e-07
2.65067e-07
-1.85577e-07
-1.04209e-07
-3.09326e-07
1.69468e-07
-4.12332e-07
2.33346e-07
-6.19715e-08
-1.61504e-07
1.91138e-07
2.14892e-07
-1.04062e-07
2.64535e-07
2.33315e-07
-4.11398e-07
-3.08042e-07
1.69297e-07
-1.85733e-07
-6.07001e-08
-1.83555e-07
1.92275e-07
2.13998e-07
-1.03513e-07
2.63766e-07
2.32702e-07
-4.11676e-07
1.68533e-07
-3.07745e-07
1.53239e-07
1.52666e-07
-1.24175e-07
2.49353e-07
1.22229e-07
-1.21931e-07
-6.24069e-08
1.91307e-07
1.66917e-07
2.64603e-07
-1.85524e-07
-1.04659e-07
-3.08196e-07
1.69716e-07
-4.117e-07
2.33565e-07
-1.68322e-07
1.21627e-07
-1.23196e-07
2.1476e-07
-6.61561e-08
2.64257e-07
-1.84461e-07
-1.03605e-07
1.70033e-07
-4.10158e-07
1.51816e-07
1.51399e-07
-1.24182e-07
3.67463e-10
-8.10835e-09
-3.60364e-08
2.37931e-08
4.7273e-08
-2.72889e-08
3.12064e-07
-4.11078e-07
6.85521e-08
2.74843e-08
2.97747e-09
-4.83106e-08
4.60898e-07
-4.13345e-09
-3.40783e-07
-6.76717e-08
-4.28543e-11
-8.88854e-08
2.69405e-08
3.84652e-08
-1.35308e-08
3.70533e-08
-3.12814e-07
2.737e-07
3.66564e-08
2.45816e-09
4.93284e-08
-1.01329e-08
-2.67274e-09
-3.65228e-08
-7.16754e-09
-6.26798e-10
-3.83201e-08
4.81156e-08
2.30479e-08
-2.5049e-08
3.1278e-07
-4.11266e-07
6.806e-08
2.74864e-08
2.93965e-09
-4.97795e-08
4.60572e-07
-4.16615e-09
-3.39292e-07
-6.73343e-08
-8.89307e-08
-4.00096e-10
2.42439e-08
-1.36872e-08
3.85124e-08
4.02616e-08
-5.55565e-08
-5.67456e-08
7.64656e-07
-7.65947e-07
-6.03414e-08
-5.99869e-08
7.67999e-07
6.143e-08
-7.69222e-07
-6.14637e-08
-5.79916e-08
7.65098e-07
6.13856e-08
-7.65576e-07
-7.57312e-07
-5.96951e-08
-5.53461e-08
7.58328e-07
-7.5997e-07
-5.42455e-08
-5.50967e-08
7.52687e-07
-7.57891e-07
-6.22858e-08
-6.14959e-08
6.5499e-08
7.53252e-07
-7.57302e-07
-6.09274e-08
-5.69172e-08
6.28972e-08
7.43832e-09
-1.46123e-09
-7.72135e-08
-4.37136e-08
8.76208e-08
2.73293e-08
5.07185e-08
4.11061e-07
-1.26229e-07
-6.71623e-10
-3.4796e-07
1.3081e-08
3.80085e-07
1.58134e-09
5.97718e-08
-2.17124e-07
2.52771e-07
-1.88257e-07
2.89657e-07
-3.81468e-07
1.97634e-07
-1.87561e-07
1.70458e-07
-5.60488e-08
2.32524e-07
-4.13994e-07
1.68286e-07
-3.10676e-07
2.1387e-07
-1.0603e-07
2.63623e-07
-5.47869e-08
-4.60163e-07
-1.22758e-08
2.14378e-07
3.09913e-10
3.12538e-07
3.2003e-09
3.77665e-07
5.94115e-08
2.89638e-07
-1.87987e-07
2.52776e-07
-2.16984e-07
8.86001e-08
-3.50833e-10
-2.74433e-08
1.04156e-07
-2.42468e-07
7.75066e-08
-8.54284e-10
-7.04651e-09
-3.23239e-08
-3.05422e-08
2.3189e-08
4.75779e-08
5.5674e-09
3.10914e-07
-4.10962e-07
2.98009e-08
6.46798e-08
3.48216e-08
6.33901e-10
-8.81815e-08
2.94377e-08
3.72686e-08
-1.39802e-08
-4.92237e-08
4.60497e-07
-6.95376e-09
-3.40498e-07
-6.38214e-08
2.22961e-09
-3.12413e-07
2.73115e-07
3.70684e-08
4.99019e-08
-1.05116e-08
-2.69064e-09
-3.66996e-08
-6.98719e-09
-1.26635e-09
-3.12821e-08
-3.18861e-08
4.77907e-08
2.3631e-08
6.65496e-09
3.12322e-07
-4.11073e-07
2.85781e-08
6.35179e-08
3.43795e-08
-8.86994e-08
-1.27251e-09
3.03445e-08
-1.21999e-08
3.74479e-08
-4.97815e-08
4.60303e-07
-7.24151e-09
-3.40083e-07
-6.31976e-08
-5.55299e-08
-5.53985e-08
7.56099e-07
-6.2756e-08
-6.11243e-08
7.48014e-07
-6.08477e-08
-5.74492e-08
7.49404e-07
-7.40786e-07
-5.045e-08
-5.36976e-08
7.45083e-07
-7.48946e-07
-6.12166e-08
-5.93583e-08
-7.38774e-07
-6.2157e-08
-5.7934e-08
-7.39502e-07
-5.58625e-08
-5.83883e-08
6.64361e-09
-1.20817e-09
-7.50839e-08
2.62285e-08
-4.37866e-08
8.72066e-08
1.24759e-08
5.11594e-08
4.11238e-07
-1.25561e-07
-3.48968e-07
-3.43472e-10
3.72324e-07
-3.74153e-07
2.71061e-09
5.7506e-08
-2.16531e-07
2.52899e-07
2.89785e-07
-1.87415e-07
1.95099e-07
-1.86833e-07
1.63678e-07
-5.79608e-08
2.32714e-07
-4.13292e-07
1.68491e-07
-3.09924e-07
2.14438e-07
-1.05294e-07
2.64184e-07
7.64485e-08
8.89104e-08
-1.71698e-09
-2.66199e-08
1.05651e-07
-2.42673e-07
-5.4955e-08
-4.60254e-07
-1.16325e-08
2.14507e-07
-2.42533e-11
3.12359e-07
1.92657e-09
3.70323e-07
5.41678e-08
2.90107e-07
-1.86509e-07
2.53165e-07
-2.15758e-07
-3.12462e-07
2.74259e-07
3.43385e-08
3.86454e-09
4.85006e-08
-9.99788e-09
-5.43454e-09
-3.30682e-08
8.29645e-10
6.67725e-09
-7.03277e-08
8.59575e-08
-4.63978e-08
2.32611e-08
3.70956e-07
-1.18595e-09
4.71788e-08
-2.13532e-07
2.53999e-07
-1.8482e-07
2.91253e-07
-3.74315e-07
5.04443e-08
4.11173e-07
-1.27179e-07
7.78789e-10
-3.47503e-07
1.22857e-08
1.89167e-07
-1.84722e-07
1.63341e-07
-6.59443e-08
2.34059e-07
-4.09848e-07
1.70213e-07
-3.06512e-07
2.15381e-07
-1.03221e-07
2.64919e-07
-9.57274e-10
3.6677e-07
4.73503e-08
2.90863e-07
-1.84248e-07
2.53468e-07
-2.13123e-07
-5.58051e-08
-4.60002e-07
-8.40907e-09
2.16357e-07
-2.33138e-09
3.10191e-07
1.18183e-09
8.97352e-08
-2.50368e-08
-2.43605e-07
1.02938e-07
7.47863e-08
-5.01219e-08
-2.72501e-07
3.22467e-07
5.9982e-08
-7.27838e-08
1.29583e-08
-5.18456e-08
-2.74398e-07
3.23807e-07
6.05284e-08
-7.0552e-08
1.24603e-08
1.85175e-07
1.85353e-07
-2.47637e-07
1.23418e-07
-1.23577e-07
-1.22733e-07
5.54678e-08
9.88422e-09
-1.20641e-08
-6.74677e-08
-6.07881e-08
7.49679e-08
5.57309e-08
9.56339e-09
-1.14808e-08
-6.58903e-08
-6.17324e-08
7.38092e-08
3.46917e-09
-3.1242e-07
2.74824e-07
3.41268e-08
-6.12064e-08
8.87418e-09
5.11715e-08
4.11547e-07
-1.26266e-07
-3.48924e-07
3.59772e-09
-3.64909e-07
-7.7127e-10
4.86114e-08
-2.13915e-07
2.52298e-07
2.89691e-07
-1.84913e-07
7.11511e-08
8.84001e-08
1.62191e-10
-2.23783e-08
1.04635e-07
-2.4197e-07
2.72794e-07
3.78049e-08
1.46484e-09
-8.7019e-09
-2.45141e-09
-3.71573e-08
2.73549e-07
3.81351e-08
1.0953e-09
-1.01102e-08
-2.11468e-09
-3.75547e-08
-5.09241e-08
3.24106e-07
5.82023e-08
-7.19166e-08
1.33262e-08
-5.02424e-08
3.24301e-07
5.68672e-08
-7.13985e-08
1.40213e-08
-2.50481e-07
1.86786e-07
1.8629e-07
1.26038e-07
-1.24089e-07
-1.24545e-07
-1.29374e-08
5.53852e-08
-6.69292e-08
-5.86315e-08
7.44109e-08
-1.37416e-08
5.44526e-08
-6.71106e-08
-5.72998e-08
7.35891e-08
-9.9668e-09
4.91757e-08
-3.52116e-09
-3.56877e-08
2.73122e-07
-3.11775e-07
3.62023e-08
-1.13562e-08
5.04593e-08
-4.15477e-09
-3.49484e-08
2.7409e-07
-3.12505e-07
3.63003e-08
-2.15443e-07
-2.15181e-07
-1.25431e-07
1.51953e-07
1.53622e-07
5.5181e-08
-1.22578e-08
7.43841e-08
-6.04311e-08
-6.68431e-08
5.47049e-08
-1.28718e-08
7.35051e-08
-5.94554e-08
-6.72392e-08
-5.02995e-08
-7.27302e-08
3.23533e-07
5.96805e-08
-5.08211e-08
-7.15794e-08
3.24373e-07
5.83758e-08
-7.70894e-09
-3.58755e-08
2.36135e-08
4.77358e-08
-2.73974e-08
-4.11573e-07
6.70709e-08
2.74685e-08
4.21963e-09
4.60649e-07
-4.30893e-09
-3.40022e-07
-6.69904e-08
-8.8814e-08
2.70148e-08
3.81543e-08
-1.34583e-08
3.70603e-08
8.01736e-10
-7.73924e-08
-4.56443e-08
8.66217e-08
2.75049e-08
-1.25906e-07
-1.57569e-09
-3.48343e-07
1.38229e-08
3.82405e-07
-5.76768e-10
5.47534e-08
-2.16053e-07
2.53996e-07
-1.87215e-07
2.90981e-07
-3.8328e-07
1.92494e-07
1.93329e-07
-5.93501e-08
2.15495e-07
-1.05329e-07
2.65096e-07
2.33541e-07
-4.13106e-07
1.69187e-07
-3.09716e-07
-1.29446e-08
2.15403e-07
1.1955e-09
3.1263e-07
-1.44413e-09
3.79604e-07
5.32511e-08
2.91339e-07
-1.8668e-07
2.5432e-07
-2.1549e-07
-1.77697e-10
-2.7725e-08
1.0422e-07
-2.4345e-07
7.82465e-08
-7.6942e-08
-4.41687e-08
8.69264e-08
2.7277e-08
5.09555e-08
-1.26607e-07
-5.69565e-10
-3.48183e-07
1.28306e-08
3.83352e-07
5.45886e-08
-2.16245e-07
2.53883e-07
-1.87288e-07
2.90792e-07
-3.84587e-07
1.95518e-07
1.94244e-07
-1.86756e-07
-5.72255e-08
2.33057e-07
-4.13831e-07
-3.1021e-07
1.68852e-07
2.1426e-07
-1.05746e-07
2.64029e-07
-1.21616e-08
-5.45348e-08
2.14229e-07
2.53748e-10
3.12863e-07
3.80874e-07
5.42853e-08
2.90963e-07
-1.86877e-07
2.54126e-07
-2.15945e-07
-2.74925e-08
1.04012e-07
-2.43313e-07
7.78018e-08
6.72858e-10
-8.91833e-08
3.89739e-08
-1.43834e-08
2.78836e-08
4.60868e-07
-6.58668e-08
-3.40258e-07
-4.11005e-07
2.84582e-08
6.66379e-08
1.16504e-10
-6.44937e-09
-2.83752e-08
2.22143e-08
4.73154e-08
-8.92169e-08
3.91008e-08
-1.29732e-08
2.78867e-08
4.60732e-07
-5.01355e-08
-3.87664e-09
-6.73256e-08
-3.39395e-07
-4.11594e-07
3.12602e-07
2.77629e-08
6.69195e-08
-6.37138e-09
-3.49309e-08
-2.82592e-08
2.23095e-08
4.73685e-08
6.88833e-10
1.03257e-07
-2.43497e-07
-2.70245e-08
1.9161e-07
-5.8299e-08
-1.86344e-07
2.64916e-07
-1.05011e-07
-3.09767e-07
1.69229e-07
-4.12978e-07
2.33489e-07
-1.10645e-08
3.12591e-07
-4.74556e-10
2.14997e-07
-3.76427e-07
-1.81093e-09
3.74172e-07
5.42561e-08
2.90571e-07
-1.86883e-07
2.53582e-07
-2.15798e-07
-3.47591e-07
-1.26479e-07
-1.79192e-10
-1.78045e-09
5.42517e-08
-2.15792e-07
2.53999e-07
2.91079e-07
-1.86971e-07
3.69764e-10
-7.59863e-08
2.67347e-08
-4.5032e-08
8.74644e-08
1.04742e-07
-2.43358e-07
-2.68541e-08
1.9598e-07
2.14222e-07
-5.60512e-08
-3.10532e-07
1.68593e-07
2.32742e-07
-4.14105e-07
-1.86868e-07
2.64003e-07
-1.05763e-07
-5.4825e-08
-1.18139e-08
3.13042e-07
-1.04638e-10
2.14434e-07
-3.78455e-07
3.77197e-07
5.55238e-08
2.90266e-07
-1.87098e-07
2.5337e-07
-2.16218e-07
5.12461e-08
-3.48774e-07
-1.26326e-07
9.85e-11
5.61949e-08
-2.16415e-07
2.53649e-07
2.90489e-07
-1.87299e-07
-7.59979e-08
2.66411e-08
-4.44022e-08
8.77574e-08
3.24045e-07
5.92039e-08
-7.16758e-08
1.30818e-08
-2.73198e-07
3.23214e-07
6.01953e-08
-7.19921e-08
1.25002e-08
-2.5099e-07
1.2596e-07
-1.24626e-07
-1.24662e-07
-1.29309e-08
-6.63105e-08
-5.92747e-08
7.38486e-08
1.01619e-08
-1.21381e-08
-6.63473e-08
-6.04492e-08
7.39859e-08
-3.12208e-07
3.55836e-08
3.42619e-09
-3.24699e-09
4.90584e-08
-3.56497e-08
-1.10879e-08
-3.6818e-08
2.73586e-07
3.63435e-08
-2.13902e-07
-1.26111e-07
1.51817e-07
1.51427e-07
-1.24586e-08
7.37264e-08
-6.00113e-08
-6.71694e-08
1.0381e-08
5.47516e-08
-1.18234e-08
7.4335e-08
-6.09243e-08
-6.67199e-08
-7.19227e-08
3.24133e-07
5.96914e-08
-2.73123e-07
-5.1115e-08
-7.21064e-08
3.23466e-07
6.07402e-08
4.92782e-08
-2.86122e-09
-3.6036e-08
-3.12042e-07
3.56719e-08
-1.46005e-09
-7.85658e-08
-4.38461e-08
8.78725e-08
2.88318e-08
-1.26623e-07
-2.73796e-09
-3.47217e-07
1.50699e-08
3.82997e-07
1.10282e-09
5.61117e-08
-2.1763e-07
2.54321e-07
-1.88809e-07
2.91169e-07
-3.84003e-07
1.93484e-07
1.73149e-07
-6.06437e-08
2.152e-07
-1.0538e-07
2.64942e-07
2.34036e-07
-4.13627e-07
1.69896e-07
-3.10336e-07
-1.38283e-08
2.13966e-07
2.18168e-09
3.12706e-07
1.71659e-09
3.80606e-07
5.27194e-08
2.91412e-07
-1.87786e-07
2.54597e-07
-2.16785e-07
-4.79917e-10
-2.96048e-08
1.04001e-07
-2.43661e-07
8.08141e-08
-7.15263e-09
-3.81697e-08
2.29071e-08
-2.51781e-08
4.69664e-08
-4.11303e-07
2.71579e-08
6.93104e-08
3.13064e-07
1.77118e-09
-8.90237e-08
2.42822e-08
3.83733e-08
-1.43083e-08
4.02764e-08
4.60578e-07
-4.12922e-09
-3.40424e-07
-6.77731e-08
-4.82512e-08
-7.86468e-08
8.7674e-08
2.89653e-08
-4.66054e-08
3.85912e-07
5.35534e-08
-2.17134e-07
2.54813e-07
-1.88505e-07
2.91902e-07
-3.86852e-07
-1.27211e-07
-3.46771e-07
-3.63448e-09
1.62053e-08
5.01082e-08
1.89147e-07
1.96978e-07
-6.34571e-08
2.34938e-07
-4.12341e-07
-3.09435e-07
1.7104e-07
-1.85922e-07
2.16594e-07
-1.05395e-07
2.65795e-07
3.83381e-07
4.9112e-08
2.92375e-07
-1.87335e-07
2.55214e-07
-2.15972e-07
-2.98384e-08
-2.43998e-07
1.03217e-07
8.11155e-08
-1.4292e-08
2.15697e-07
2.68881e-09
3.1176e-07
-5.52768e-08
-8.87941e-08
-1.06576e-09
-1.31328e-08
3.81156e-08
2.6557e-08
4.60314e-07
-6.44148e-08
-3.38785e-07
-4.10742e-07
2.81236e-08
6.59477e-08
-6.32246e-09
-8.05933e-10
-2.84654e-08
4.77663e-08
2.22071e-08
-1.39259e-09
1.05039e-07
-2.43518e-07
-2.74877e-08
1.93014e-07
-6.16036e-08
-1.85856e-07
2.65e-07
-1.04831e-07
-3.09664e-07
1.69832e-07
-4.13023e-07
2.3406e-07
-1.05964e-08
3.12061e-07
-5.67342e-10
2.14122e-07
-3.77876e-07
1.94492e-09
3.75041e-07
5.03443e-08
2.9077e-07
-1.86111e-07
2.539e-07
-2.1532e-07
-3.48346e-07
-1.26231e-07
-8.15308e-10
2.15424e-09
5.06389e-08
-2.1595e-07
2.54497e-07
2.91306e-07
-1.86903e-07
-1.69572e-09
-7.39254e-08
2.57406e-08
-4.3579e-08
8.7137e-08
-8.89918e-08
3.80367e-08
2.67193e-08
-1.49998e-08
4.60065e-07
-5.59896e-09
-3.40164e-07
-6.54857e-08
-4.88161e-08
-6.47361e-09
-3.42195e-08
-2.86047e-08
2.2182e-08
4.63099e-08
-4.11144e-07
2.84604e-08
6.60763e-08
3.12478e-07
-2.43978e-07
-2.74995e-08
1.02446e-07
1.87754e-07
-6.4051e-08
-3.08548e-07
1.7119e-07
2.34952e-07
-4.11464e-07
2.16752e-07
-1.85085e-07
2.6589e-07
-1.04656e-07
-3.80185e-07
3.77192e-07
4.69439e-08
2.91718e-07
-1.85607e-07
2.54437e-07
-2.14394e-07
-1.10285e-08
3.10969e-07
2.16154e-07
-3.3145e-10
-5.56978e-08
4.74366e-08
-2.15122e-07
2.55007e-07
2.92227e-07
-1.86445e-07
-7.40444e-08
2.5718e-08
8.69752e-08
-4.68183e-08
-3.46524e-07
-1.27839e-07
-9.53589e-10
4.9881e-08
-6.97114e-10
-3.64487e-08
4.8218e-08
2.349e-08
-2.71238e-08
6.55555e-08
2.7846e-08
5.45139e-09
-5.27723e-09
-3.40254e-07
-6.55737e-08
-2.29521e-10
2.69279e-08
-1.34165e-08
3.83388e-08
3.69793e-08
7.62836e-09
-7.71231e-08
8.71765e-08
2.73133e-08
-4.64563e-08
3.83641e-07
5.61778e-08
-2.1635e-07
2.53299e-07
-1.87723e-07
2.90662e-07
-3.84801e-07
4.11136e-07
-1.2685e-07
-3.47502e-07
-1.72648e-09
5.04525e-08
1.44902e-08
1.9168e-07
1.97345e-07
-6.0841e-08
2.33478e-07
-4.12423e-07
-3.09432e-07
1.69589e-07
-1.86191e-07
2.16008e-07
-1.05315e-07
2.65244e-07
3.81835e-07
5.51006e-08
2.90965e-07
-1.87219e-07
2.53617e-07
-2.15777e-07
8.89172e-08
-2.74798e-08
-2.43101e-07
1.03545e-07
7.77686e-08
-4.60576e-07
-1.25357e-08
2.15566e-07
1.13453e-09
3.11655e-07
-5.52435e-08
-3.63637e-08
2.34539e-08
-2.71235e-08
4.69647e-08
2.74452e-08
6.76953e-08
3.69378e-09
3.12302e-07
2.66669e-08
3.84313e-08
-1.37881e-08
3.73773e-08
-4.92513e-09
-3.41651e-07
-6.69094e-08
-4.70904e-08
8.8801e-08
-1.51025e-09
1.05214e-07
-2.42646e-07
-2.70716e-08
1.98456e-07
-5.5424e-08
-1.87679e-07
2.63721e-07
-1.06001e-07
-3.10796e-07
1.68108e-07
2.32422e-07
-4.14176e-07
-4.6028e-07
3.13038e-07
2.05079e-10
2.14265e-07
-3.76054e-07
2.78557e-09
5.86907e-08
2.89784e-07
-1.87609e-07
-2.16687e-07
2.52917e-07
4.11045e-07
-3.48691e-07
-1.25674e-07
-7.08559e-11
2.70659e-09
5.93022e-08
-2.16821e-07
2.52915e-07
2.89772e-07
-1.87808e-07
7.09691e-09
-1.52723e-09
2.68051e-08
-4.34642e-08
8.75378e-08
-1.13784e-09
-1.26705e-08
3.86442e-08
2.75164e-08
-4.57725e-09
-6.63439e-08
-3.4008e-07
2.79582e-08
6.57681e-08
-7.84698e-10
-3.53453e-08
-2.79271e-08
4.82286e-08
2.29255e-08
8.91151e-08
-2.43126e-07
-2.69374e-08
1.02315e-07
1.89175e-07
-5.84849e-08
-3.09101e-07
1.70008e-07
2.33888e-07
-4.1208e-07
2.15839e-07
-1.86117e-07
2.64947e-07
-1.05362e-07
-3.77574e-07
3.75396e-07
5.49438e-08
2.90742e-07
-1.87074e-07
2.53493e-07
-2.15766e-07
-4.60237e-07
-1.19537e-08
3.11903e-07
2.15842e-07
-1.65889e-10
-5.53877e-08
5.54963e-08
-2.16017e-07
2.5336e-07
2.90732e-07
-1.87429e-07
7.01862e-09
-7.63431e-08
2.67251e-08
8.74255e-08
-4.63533e-08
4.12191e-07
-3.46292e-07
-1.27823e-07
-1.95936e-10
4.95841e-08
3.87472e-08
2.75768e-08
-1.47106e-08
-3.67973e-09
-3.40822e-07
-6.77015e-08
-4.8034e-08
-3.55215e-08
-2.78379e-08
2.27515e-08
4.68418e-08
2.88039e-08
6.67525e-08
3.1171e-07
2.72668e-07
3.47248e-08
-1.06324e-08
-4.71426e-09
-3.38771e-08
2.74155e-07
3.40123e-08
-1.13771e-08
-4.79383e-09
-3.36106e-08
-5.06727e-08
3.22991e-07
-7.32974e-08
6.13892e-08
-5.18508e-08
3.23905e-07
-7.15105e-08
6.07394e-08
-2.48526e-07
1.86072e-07
1.8579e-07
1.23617e-07
-1.23528e-07
-1.23426e-07
-1.12279e-08
5.49519e-08
-6.67465e-08
-6.2492e-08
7.4882e-08
-1.15623e-08
5.51082e-08
-6.67351e-08
-6.19551e-08
7.37672e-08
-1.11775e-08
4.93567e-08
-3.43052e-08
2.72775e-07
-3.11166e-07
3.36764e-08
-1.20416e-08
5.04022e-08
-3.41569e-08
2.74185e-07
-3.12657e-07
3.36781e-08
-2.13414e-07
-2.12875e-07
-1.23683e-07
1.49799e-07
1.51649e-07
5.43859e-08
7.55519e-08
-6.37321e-08
-6.63137e-08
5.50691e-08
7.37882e-08
-6.29505e-08
-6.65108e-08
-5.19299e-08
-7.2735e-08
3.22864e-07
6.33482e-08
-5.24061e-08
-7.13487e-08
3.23569e-07
6.28081e-08
-6.81309e-09
-3.26733e-08
-3.02764e-08
2.29027e-08
4.60057e-08
-4.11853e-07
2.77988e-08
6.77646e-08
-8.83992e-08
2.92491e-08
3.7564e-08
-1.27109e-08
4.61311e-07
-4.27009e-09
-3.39645e-07
-6.74942e-08
-1.5936e-09
-7.34123e-08
2.4737e-08
-4.33852e-08
8.66075e-08
-1.25976e-07
-3.48176e-07
1.45324e-09
3.71115e-07
-8.50704e-10
5.28299e-08
-2.15179e-07
2.53583e-07
2.90612e-07
-1.86048e-07
1.93933e-07
1.83572e-07
-5.63757e-08
2.14175e-07
-1.04287e-07
2.63806e-07
2.3227e-07
-4.12913e-07
1.67962e-07
-3.09165e-07
4.95952e-10
-2.56332e-08
1.03763e-07
-2.42794e-07
-8.66367e-09
2.14223e-07
-2.50875e-09
3.12398e-07
5.12911e-10
3.67442e-07
5.42878e-08
2.90218e-07
-1.85746e-07
2.53309e-07
-2.14977e-07
-7.35812e-08
2.49814e-08
-4.6638e-08
8.68311e-08
5.14925e-08
-1.26347e-07
-3.49203e-07
3.90141e-10
3.75117e-07
5.37076e-08
-2.15466e-07