/*--------------------------------*- C++ -*----------------------------------*\
| =========                 |                                                 |
| \\      /  F ield         | OpenFOAM: The Open Source CFD Toolbox           |
|  \\    /   O peration     | Version:  2206                                  |
|   \\  /    A nd           | Website:  www.openfoam.com                      |
|    \\/     M anipulation  |                                                 |
\*---------------------------------------------------------------------------*/
FoamFile
{
    version     2.0;
    format      ascii;
    arch        "LSB;label=32;scalar=64";
    class       volScalarField;
    location    "25.5";
    object      nut;
}
// * * * * * * * * * * * * * * * * * * * * * * * * * * * * * * * * * * * * * //

dimensions      [0 2 -1 0 0 0 0];

internalField   nonuniform List<scalar> 
28897
(
0.000221819
0.000197884
0.000197874
0.000173025
0.000221818
0.000197884
0.000197873
0.000173023
0.000221817
0.000197881
0.000197872
0.000173022
0.000221817
0.00019788
0.00019787
0.000173021
0.000221817
0.000197878
0.000197869
0.000173018
0.000221792
0.000197853
0.000197837
0.000172974
0.000221792
0.000197827
0.000197821
0.000172955
0.000221795
0.000197831
0.000197823
0.000172955
0.000221796
0.000197831
0.000197824
0.000172954
0.000221796
0.000197831
0.000197824
0.000172955
0.000221796
0.000197832
0.000197824
0.000172956
0.000221796
0.000197832
0.000197824
0.000172955
0.000221796
0.000197832
0.000197824
0.000172954
0.000221796
0.000197832
0.000197824
0.000172955
0.000221796
0.000197832
0.000197824
0.000172955
0.000221796
0.000197832
0.000197824
0.000172955
0.000221796
0.000197832
0.000197824
0.000172955
0.000221797
0.000197832
0.000197824
0.000172955
0.000173198
0.000197865
0.000197863
0.000173203
0.00019788
0.000197854
0.000197884
0.000197865
0.00017319
0.000197875
0.000197878
0.000173195
0.00017303
0.000173195
0.000197866
0.000197864
0.000197866
0.000197863
0.000173033
0.000173199
0.000197881
0.000197855
0.00019788
0.000197854
0.000197866
0.000197884
0.000197865
0.000173023
0.000173187
0.000197879
0.000197873
0.000197878
0.000173192
0.000173028
0.000173194
0.000197865
0.000197863
0.000197865
0.000197862
0.000173031
0.000173199
0.00019788
0.000197854
0.000197879
0.000197854
0.000197865
0.000197881
0.000197865
0.00017302
0.000173186
0.000197878
0.000197872
0.000197877
0.000173191
0.000173027
0.000173192
0.000197862
0.000197863
0.000197861
0.000197862
0.000173031
0.000173198
0.000197877
0.000197855
0.000197876
0.000197853
0.000197866
0.000197881
0.000197866
0.000173019
0.000173184
0.000197877
0.00019787
0.000197876
0.00017319
0.000173024
0.000173193
0.000197861
0.000197861
0.000197863
0.000197859
0.00017303
0.000173197
0.000197877
0.00019785
0.000197877
0.000197848
0.000197866
0.000197878
0.000197863
0.000173017
0.000173184
0.000197874
0.00019787
0.000197873
0.000173189
0.000173024
0.000173159
0.000197861
0.000197858
0.000197843
0.000197844
0.000173029
0.000173173
0.000197875
0.000197847
0.000197858
0.000197833
0.000197861
0.000197867
0.000197845
0.000173016
0.000173152
0.000197872
0.000197854
0.000197857
0.000173158
0.000172978
0.000173126
0.000197825
0.000197828
0.000197809
0.000197807
0.000172994
0.00017313
0.00019784
0.000197815
0.000197824
0.000197798
0.000197827
0.000197827
0.000197809
0.000172972
0.000173118
0.000197839
0.000197819
0.000197822
0.000173123
0.000172961
0.000173129
0.000197812
0.000197808
0.000197813
0.00019781
0.000172962
0.000173134
0.000197826
0.0001978
0.000197828
0.000197802
0.000197811
0.000197831
0.000197812
0.000172953
0.000173121
0.000197824
0.000197824
0.000197826
0.000173125
0.00017296
0.000173125
0.000197814
0.00019781
0.000197814
0.00019781
0.000172965
0.000173129
0.000197828
0.000197802
0.000197828
0.000197803
0.000197813
0.000197831
0.000197813
0.000172953
0.000173117
0.000197826
0.000197824
0.000197827
0.000173122
0.000172958
0.000173128
0.000197815
0.000197811
0.000197814
0.000197811
0.000172961
0.000173133
0.000197829
0.000197803
0.000197829
0.000197803
0.000197814
0.000197832
0.000197814
0.000172951
0.00017312
0.000197827
0.000197825
0.000197827
0.000173125
0.00017296
0.000173126
0.000197815
0.000197812
0.000197815
0.000197811
0.000172965
0.000173129
0.000197829
0.000197804
0.000197829
0.000197803
0.000197814
0.000197832
0.000197814
0.000172953
0.000173119
0.000197828
0.000197825
0.000197827
0.000173124
0.00017296
0.000173125
0.000197815
0.000197812
0.000197814
0.000197812
0.000172962
0.00017313
0.000197829
0.000197804
0.000197828
0.000197803
0.000197814
0.000197832
0.000197814
0.000172953
0.000173118
0.000197828
0.000197825
0.000197827
0.000173123
0.000172958
0.000173126
0.000197815
0.000197812
0.000197814
0.000197812
0.000172962
0.000173131
0.000197828
0.000197803
0.000197828
0.000197803
0.000197814
0.000197832
0.000197814
0.000172951
0.000173119
0.000197827
0.000197825
0.000197827
0.000173123
0.000172959
0.000173127
0.000197815
0.000197812
0.000197815
0.000197812
0.000172963
0.000173131
0.000197828
0.000197803
0.000197828
0.000197803
0.000197814
0.000197832
0.000197814
0.000172952
0.00017312
0.000197827
0.000197825
0.000197827
0.000173124
0.000172959
0.000173127
0.000197815
0.000197812
0.000197815
0.000197812
0.000172963
0.000173131
0.000197829
0.000197804
0.000197828
0.000197803
0.000197814
0.000197832
0.000197814
0.000172953
0.00017312
0.000197828
0.000197825
0.000197827
0.000173124
0.00017296
0.000173127
0.000197815
0.000197812
0.000197815
0.000197812
0.000172964
0.000173131
0.000197828
0.000197803
0.000197828
0.000197803
0.000197814
0.000197832
0.000197814
0.000172953
0.00017312
0.000197828
0.000197825
0.000197827
0.000173124
0.00017296
0.000173127
0.000197816
0.000197812
0.000197815
0.000197812
0.000172964
0.000173131
0.000197828
0.000197804
0.000197828
0.000197803
0.000197814
0.000197833
0.000197814
0.000172953
0.00017312
0.000197827
0.000197825
0.000197827
0.000173124
0.00017296
0.000173128
0.000197816
0.000197812
0.000197815
0.000197812
0.000172964
0.000173131
0.000197828
0.000197804
0.000197828
0.000197803
0.000197814
0.000197832
0.000197814
0.000172953
0.00017312
0.000197828
0.000197824
0.000197827
0.000173124
0.00017296
0.000197816
0.000197812
0.000172964
0.000197829
0.000197804
0.000197814
0.000172953
0.000197828
0.000221819
0.000221819
0.000221816
0.000221818
4.3376e-05
4.94243e-05
4.33673e-05
4.94231e-05
2.54312e-05
2.54304e-05
4.33828e-05
4.9423e-05
4.33747e-05
4.94218e-05
0.00022182
0.000221816
0.000221818
0.000221818
0.00022182
0.000221816
0.000221817
0.000100969
5.29235e-05
0.000212891
0.000197885
0.000100944
5.29394e-05
0.000212892
2.54278e-05
2.54271e-05
0.000100972
0.000212888
5.29259e-05
0.000197874
0.000100946
0.000212889
5.29409e-05
3.5239e-05
3.52355e-05
0.000173193
3.52433e-05
3.52373e-05
4.33794e-05
4.94234e-05
4.33713e-05
4.94224e-05
2.543e-05
2.54297e-05
4.33852e-05
4.9422e-05
4.33782e-05
4.94211e-05
0.00022182
0.000221816
0.000221819
0.000221818
0.000221819
0.000221815
0.000221819
0.000100971
5.29268e-05
0.000212891
0.000197882
0.000100943
5.29424e-05
0.000212891
2.54269e-05
2.54266e-05
0.000100971
0.000212888
5.29287e-05
0.000197873
0.000100944
0.000212886
5.29437e-05
3.52445e-05
3.52369e-05
0.000173192
3.52487e-05
3.52413e-05
4.33821e-05
4.9423e-05
4.33738e-05
4.94222e-05
2.54296e-05
2.54295e-05
4.33881e-05
4.94217e-05
4.338e-05
4.94209e-05
0.000221819
0.000221815
0.000221819
0.000221816
0.000221819
0.000221814
0.000221818
0.000100974
5.29296e-05
0.000212891
0.000197881
0.000100946
5.29451e-05
0.00021289
2.54266e-05
2.54265e-05
0.000100972
0.000212886
5.29313e-05
0.00019787
0.000100944
0.000212884
5.29459e-05
3.52498e-05
3.52433e-05
0.000173191
3.52539e-05
3.52477e-05
4.33852e-05
4.9423e-05
4.33773e-05
4.94223e-05
2.54297e-05
2.54297e-05
4.33917e-05
4.94216e-05
4.33844e-05
4.94209e-05
0.000221819
0.000221813
0.000221818
0.000221817
0.000221817
0.000221813
0.000221816
0.000100977
5.29317e-05
0.000212888
0.000197879
0.000100951
5.29468e-05
0.000212888
2.54267e-05
2.54267e-05
0.000100975
0.000212884
5.29333e-05
0.000197871
0.000100947
0.000212885
5.29481e-05
3.52543e-05
3.52481e-05
0.000173189
3.52574e-05
3.52512e-05
4.33797e-05
4.94235e-05
4.33773e-05
4.94234e-05
2.54301e-05
2.54303e-05
4.33862e-05
4.94221e-05
4.33845e-05
4.94221e-05
0.000221817
0.000221813
0.000221816
0.000221806
0.000221809
0.000221803
0.000221805
0.000100965
5.29325e-05
0.000212887
0.000197876
0.000100948
5.29445e-05
0.000212886
2.54272e-05
2.54272e-05
0.000100967
0.000212884
5.29335e-05
0.000197867
0.000100948
0.000212883
5.29434e-05
3.52552e-05
3.52483e-05
0.000173181
3.52553e-05
3.52485e-05
4.33612e-05
4.94254e-05
4.33601e-05
4.9425e-05
2.54302e-05
2.54299e-05
4.33675e-05
4.9424e-05
4.33669e-05
4.94236e-05
0.000221796
0.000221789
0.000221791
0.000221788
0.00022179
0.000221786
0.000221788
0.000100917
5.29189e-05
0.000212863
0.00019784
0.000100921
5.29255e-05
0.000212854
2.54271e-05
2.54268e-05
0.00010091
0.000212855
5.29174e-05
0.000197826
0.000100915
0.000212847
5.29237e-05
3.52482e-05
3.52419e-05
0.000173127
3.5247e-05
3.52405e-05
4.33541e-05
4.94257e-05
4.33483e-05
4.94248e-05
2.54299e-05
2.54297e-05
4.33609e-05
4.94243e-05
4.33555e-05
4.94235e-05
0.000221793
0.00022179
0.000221792
0.000221795
0.000221796
0.000221793
0.000221795
0.000100907
5.29014e-05
0.00021285
0.00019783
0.000100877
5.29137e-05
0.000212853
2.54268e-05
2.54267e-05
0.00010091
0.000212849
5.2903e-05
0.000197824
0.000100881
0.000212851
5.29156e-05
3.52397e-05
3.52338e-05
0.00017313
3.52406e-05
3.52349e-05
4.33534e-05
4.94255e-05
4.33463e-05
4.94247e-05
2.54298e-05
2.54297e-05
4.33602e-05
4.94242e-05
4.33537e-05
4.94234e-05
0.000221797
0.000221793
0.000221795
0.000221796
0.000221796
0.000221793
0.000221795
0.000100907
5.28978e-05
0.000212853
0.000197831
0.000100882
5.29121e-05
0.000212853
2.54268e-05
2.54267e-05
0.00010091
0.000212851
5.29009e-05
0.000197824
0.000100884
0.000212851
5.29148e-05
3.52377e-05
3.52322e-05
0.000173121
3.52398e-05
3.52344e-05
4.33534e-05
4.94255e-05
4.33462e-05
4.94247e-05
2.54298e-05
2.54297e-05
4.33601e-05
4.94242e-05
4.33536e-05
4.94234e-05
0.000221796
0.000221793
0.000221795
0.000221796
0.000221796
0.000221793
0.000221795
0.000100907
5.28975e-05
0.000212853
0.000197832
0.00010088
5.2912e-05
0.000212854
2.54268e-05
2.54267e-05
0.000100909
0.000212851
5.29008e-05
0.000197825
0.000100883
0.000212852
5.29148e-05
3.52376e-05
3.52322e-05
0.000173124
3.52398e-05
3.52344e-05
4.33534e-05
4.94255e-05
4.33462e-05
4.94247e-05
2.54298e-05
2.54297e-05
4.33601e-05
4.94242e-05
4.33536e-05
4.94234e-05
0.000221796
0.000221793
0.000221795
0.000221796
0.000221796
0.000221793
0.000221795
0.000100907
5.28975e-05
0.000212853
0.000197832
0.000100881
5.2912e-05
0.000212854
2.54268e-05
2.54267e-05
0.000100909
0.000212851
5.29008e-05
0.000197825
0.000100883
0.000212851
5.29149e-05
3.52376e-05
3.52322e-05
0.000173122
3.52398e-05
3.52344e-05
4.33534e-05
4.9426e-05
4.33462e-05
4.94256e-05
2.54295e-05
2.54294e-05
4.33602e-05
4.94238e-05
4.33536e-05
4.94229e-05
0.000221796
0.000221793
0.000221795
0.000221796
0.000221796
0.000221793
0.000221795
0.000100907
5.28975e-05
0.000212854
0.000197832
0.000100882
5.2912e-05
0.000212854
2.54268e-05
2.54267e-05
0.00010091
0.000212851
5.29009e-05
0.000197825
0.000100884
0.000212852
5.2915e-05
3.52376e-05
3.52322e-05
0.000173124
3.52398e-05
3.52344e-05
4.33534e-05
4.94267e-05
4.33463e-05
4.94261e-05
2.54293e-05
2.54292e-05
4.33602e-05
4.94233e-05
4.33536e-05
4.94225e-05
0.000221796
0.000221793
0.000221795
0.000221796
0.000221796
0.000221793
0.000221795
0.000100907
5.28975e-05
0.000212853
0.000197832
0.000100881
5.2912e-05
0.000212854
2.54268e-05
2.54267e-05
0.000100909
0.000212851
5.2901e-05
0.000197825
0.000100883
0.000212852
5.29151e-05
3.52376e-05
3.52322e-05
0.000173124
3.52398e-05
3.52344e-05
4.33534e-05
4.94269e-05
4.33462e-05
4.94262e-05
2.54293e-05
2.54292e-05
4.33602e-05
4.94232e-05
4.33536e-05
4.94224e-05
0.000221796
0.000221793
0.000221795
0.000221796
0.000221796
0.000221793
0.000221795
0.000100907
5.28975e-05
0.000212853
0.000197832
0.000100881
5.29121e-05
0.000212854
2.54268e-05
2.54267e-05
0.000100907
0.000212851
5.2901e-05
0.000197825
0.000100881
0.000212851
5.29151e-05
3.52376e-05
3.52322e-05
0.000173124
3.52398e-05
3.52344e-05
4.33534e-05
4.9427e-05
4.33462e-05
4.94263e-05
2.54293e-05
2.54292e-05
4.33601e-05
4.94231e-05
4.33536e-05
4.94224e-05
0.000221796
0.000221793
0.000221795
0.000221796
0.000221796
0.000221793
0.000221795
0.000100906
5.28975e-05
0.000212853
0.000197832
0.000100881
5.29121e-05
0.000212854
2.54268e-05
2.54267e-05
0.000100907
0.000212851
5.2901e-05
0.000197825
0.00010088
0.000212851
5.29151e-05
3.52376e-05
3.52322e-05
0.000173124
3.52398e-05
3.52344e-05
4.33534e-05
4.94271e-05
4.33462e-05
4.94264e-05
2.54293e-05
2.54292e-05
4.33601e-05
4.94231e-05
4.33536e-05
4.94224e-05
0.000221796
0.000221793
0.000221795
0.000221796
0.000221796
0.000221793
0.000221795
0.000100906
5.28975e-05
0.000212853
0.000197832
0.000100879
5.29121e-05
0.000212854
2.54268e-05
2.54267e-05
0.000100906
0.000212851
5.2901e-05
0.000197825
0.00010088
0.000212851
5.29151e-05
3.52376e-05
3.52322e-05
0.000173124
3.52398e-05
3.52344e-05
4.33534e-05
4.94271e-05
4.33462e-05
4.94264e-05
2.54292e-05
2.54292e-05
4.33601e-05
4.94231e-05
4.33536e-05
4.94224e-05
0.000221797
0.000221793
0.000221795
0.000221796
0.000221796
0.000221793
0.000221795
0.000100907
5.28975e-05
0.000212854
0.000197833
0.000100881
5.29121e-05
0.000212854
2.54268e-05
2.54267e-05
0.000100906
0.000212851
5.2901e-05
0.000197825
0.00010088
0.000212852
5.29151e-05
3.52376e-05
3.52322e-05
0.000173124
3.52398e-05
3.52344e-05
4.33534e-05
4.94272e-05
4.33463e-05
4.94264e-05
2.54292e-05
2.54292e-05
4.33601e-05
4.94231e-05
4.33536e-05
4.94224e-05
0.000221797
0.000221793
0.000221795
0.000221796
0.000221796
0.000221793
0.000221795
0.000100907
5.28975e-05
0.000212853
0.000197833
0.00010088
5.29121e-05
0.000212854
2.54268e-05
2.54267e-05
0.000100906
0.000212851
5.29011e-05
0.000197825
0.00010088
0.000212852
5.29152e-05
3.52376e-05
3.52322e-05
0.000173124
3.52398e-05
3.52344e-05
4.94272e-05
4.33463e-05
2.54292e-05
4.94231e-05
4.33536e-05
0.000221797
0.000221793
0.000221796
5.28975e-05
0.000212854
0.000100879
2.54268e-05
0.000212852
5.29011e-05
0.000100879
3.52376e-05
3.52322e-05
2.54307e-05
2.54315e-05
2.54295e-05
2.54302e-05
0.000173003
3.5234e-05
3.52389e-05
3.52315e-05
3.52383e-05
4.3366e-05
4.94238e-05
4.94253e-05
4.33739e-05
4.33668e-05
4.94259e-05
4.94272e-05
4.33747e-05
0.000100945
0.000197865
5.2936e-05
0.000212888
5.29213e-05
0.000212889
0.00010097
0.000100947
0.000197863
5.29405e-05
0.000212888
5.29264e-05
0.000212888
0.000100972
2.54313e-05
3.524e-05
3.52332e-05
2.54315e-05
4.33734e-05
4.94225e-05
4.94238e-05
4.33807e-05
0.000100947
0.00019788
5.2938e-05
0.000212889
5.29239e-05
0.000212889
0.000100971
4.33721e-05
4.94182e-05
4.94194e-05
4.33793e-05
0.000100946
0.000197854
0.000212885
5.29278e-05
0.000212885
5.2913e-05
0.00010097
5.29377e-05
0.000212891
0.000212891
0.00010097
4.9424e-05
4.33673e-05
0.000197865
0.00021289
5.29348e-05
0.00021289
0.000100969
4.94212e-05
4.3367e-05
2.54277e-05
2.54286e-05
0.000172996
3.5227e-05
3.52437e-05
3.52249e-05
3.52423e-05
2.54304e-05
2.54311e-05
0.000100948
0.000197876
0.000212888
5.29395e-05
0.000212888
5.29254e-05
0.000100973
0.000100946
0.000197878
0.000212889
5.29373e-05
0.000212889
5.2923e-05
0.000100972
4.33727e-05
4.94216e-05
4.94229e-05
4.338e-05
4.33732e-05
4.94217e-05
4.9423e-05
4.33806e-05
0.000173001
3.52407e-05
3.52381e-05
3.52365e-05
2.54303e-05
2.54292e-05
2.54299e-05
2.54307e-05
2.54301e-05
2.54294e-05
2.54288e-05
3.52318e-05
3.52364e-05
0.000173195
3.5236e-05
3.52381e-05
2.54297e-05
2.54301e-05
2.54284e-05
2.54288e-05
0.000173028
3.52377e-05
3.52395e-05
3.52339e-05
3.52361e-05
4.33768e-05
4.94264e-05
4.3369e-05
4.94252e-05
0.000100971
5.2923e-05
0.000212889
0.000197866
0.000100946
5.29377e-05
0.000212889
0.000100973
5.29281e-05
0.000212889
0.000197864
0.000100948
5.29422e-05
0.000212889
4.33703e-05
4.94227e-05
4.94237e-05
4.3378e-05
4.33711e-05
4.94248e-05
4.94258e-05
4.33787e-05
0.000100946
0.000197866
5.29392e-05
0.000212889
5.29247e-05
0.000212889
0.000100971
0.000100948
0.000197864
5.29435e-05
0.000212888
5.29297e-05
0.000212889
0.000100973
3.52377e-05
3.52305e-05
0.000173198
3.52392e-05
3.52343e-05
2.54315e-05
2.54307e-05
2.543e-05
2.54304e-05
0.00017303
3.52396e-05
3.52364e-05
3.52368e-05
3.52323e-05
2.54302e-05
2.54308e-05
0.000100973
5.29255e-05
0.00021289
0.000197881
0.000100948
5.29395e-05
0.00021289
4.33815e-05
4.94187e-05
4.33743e-05
4.94175e-05
0.000100972
0.000212886
5.29147e-05
0.000197855
0.000100947
0.000212886
5.29295e-05
4.33776e-05
4.94214e-05
4.94223e-05
4.33845e-05
0.000100949
0.00019788
5.29409e-05
0.00021289
5.29269e-05
0.000212891
0.000100974
4.33763e-05
4.94172e-05
4.94182e-05
4.3383e-05
0.000100947
0.000197855
0.000212886
5.2931e-05
0.000212886
5.29164e-05
0.000100972
4.33718e-05
4.94246e-05
4.33622e-05
4.94233e-05
0.00010097
0.00021289
5.29209e-05
0.000197866
0.000100946
0.00021289
5.29332e-05
4.33715e-05
4.94218e-05
4.33619e-05
4.94208e-05
0.000100946
0.000197885
5.2941e-05
0.000212891
5.29265e-05
0.000212892
0.00010097
4.33665e-05
4.94228e-05
4.94239e-05
4.33757e-05
0.000100947
0.000197866
0.00021289
5.29365e-05
0.00021289
5.29207e-05
0.00010097
4.33663e-05
4.94205e-05
4.94214e-05
4.33755e-05
3.52243e-05
3.52411e-05
0.000173187
3.52282e-05
3.52428e-05
2.54303e-05
2.54297e-05
2.54268e-05
2.54272e-05
0.00017302
3.523e-05
3.5244e-05
3.5226e-05
3.52407e-05
2.54294e-05
2.54298e-05
0.000100974
0.00021289
5.29245e-05
0.000197879
0.000100948
0.000212889
5.29388e-05
4.3382e-05
4.94221e-05
4.33748e-05
4.94209e-05
4.33827e-05
4.94221e-05
4.33753e-05
4.94209e-05
0.000100949
0.000197874
0.000212888
5.29423e-05
0.000212889
5.29285e-05
0.000100971
0.000100951
0.000197879
0.000212889
5.29402e-05
0.00021289
5.2926e-05
0.000100974
4.33768e-05
4.94205e-05
4.94215e-05
4.33834e-05
4.33775e-05
4.94205e-05
4.94215e-05
4.33843e-05
2.54303e-05
2.54296e-05
2.54291e-05
2.54285e-05
0.000173026
3.52461e-05
3.52386e-05
3.52417e-05
3.52352e-05
2.54292e-05
2.54296e-05
2.54282e-05
2.54286e-05
2.54298e-05
2.54295e-05
2.54285e-05
2.54283e-05
3.52355e-05
3.5238e-05
0.000173194
3.524e-05
3.52425e-05
2.54294e-05
2.54296e-05
2.54282e-05
2.54284e-05
0.000173027
3.52436e-05
3.52461e-05
3.52382e-05
3.52413e-05
4.33799e-05
4.94254e-05
4.33728e-05
4.94245e-05
0.000100974
5.29261e-05
0.000212887
0.000197865
0.000100947
5.29407e-05
0.000212887
0.000100976
5.2931e-05
0.000212886
0.000197863
0.000100949
5.29449e-05
0.000212886
4.33734e-05
4.94223e-05
4.94231e-05
4.33805e-05
4.33739e-05
4.94244e-05
4.94252e-05
4.33809e-05
0.000100951
0.000197865
5.29421e-05
0.000212886
5.29276e-05
0.000212886
0.000100974
0.000100952
0.000197863
5.2946e-05
0.000212885
5.29324e-05
0.000212885
0.000100975
3.52378e-05
3.52342e-05
0.000173198
3.52418e-05
3.52381e-05
2.54303e-05
2.54299e-05
2.54296e-05
2.54298e-05
0.00017303
3.5245e-05
3.52412e-05
3.52403e-05
3.52362e-05
2.54298e-05
2.54301e-05
0.000100975
5.29284e-05
0.00021289
0.00019788
0.000100952
5.29425e-05
0.000212889
4.33837e-05
4.94178e-05
4.33776e-05
4.94169e-05
0.000100974
0.000212884
5.29179e-05
0.000197854
0.000100948
0.000212883
5.29325e-05
4.33798e-05
4.9421e-05
4.94218e-05
4.33862e-05
0.000100952
0.00019788
5.29438e-05
0.000212888
5.29299e-05
0.000212889
0.000100974
4.33782e-05
4.94168e-05
4.94176e-05
4.33847e-05
0.000100951
0.000197854
0.000212883
5.29339e-05
0.000212883
5.29193e-05
0.000100973
4.33789e-05
4.94234e-05
4.33703e-05
4.94225e-05
0.000100972
0.00021289
5.29247e-05
0.000197865
0.000100948
0.00021289
5.2941e-05
4.33787e-05
4.94211e-05
4.33701e-05
4.94203e-05
0.000100948
0.000197881
5.29438e-05
0.000212891
5.29293e-05
0.000212891
0.000100973
4.33733e-05
4.94223e-05
4.94231e-05
4.33815e-05
0.000100948
0.000197865
0.00021289
5.29445e-05
0.000212891
5.2929e-05
0.000100973
4.33731e-05
4.94201e-05
4.94209e-05
4.33813e-05
3.52277e-05
3.52424e-05
0.000173186
3.52321e-05
3.52469e-05
2.54295e-05
2.54292e-05
2.54265e-05
2.54267e-05
0.000173019
3.52352e-05
3.52503e-05
3.52301e-05
3.52455e-05
2.54291e-05
2.54293e-05
0.000100973
0.000212887
5.29275e-05
0.000197878
0.000100948
0.000212887
5.29417e-05
4.33839e-05
4.94211e-05
4.3378e-05
4.94203e-05
4.33849e-05
4.94211e-05
4.33788e-05
4.94203e-05
0.000100948
0.000197872
0.000212886
5.2945e-05
0.000212886
5.29313e-05
0.000100971
0.000100949
0.000197877
0.000212886
5.2943e-05
0.000212886
5.2929e-05
0.000100973
4.33784e-05
4.94201e-05
4.94209e-05
4.33848e-05
4.33793e-05
4.94201e-05
4.94209e-05
4.33858e-05
2.54293e-05
2.5429e-05
2.54283e-05
2.5428e-05
0.000173025
3.52514e-05
3.52447e-05
3.52471e-05
3.524e-05
2.54289e-05
2.54291e-05
2.54279e-05
2.54281e-05
2.54296e-05
2.54294e-05
2.54283e-05
2.54282e-05
3.52418e-05
3.52449e-05
0.000173192
3.52466e-05
3.52492e-05
2.54295e-05
2.54296e-05
2.54283e-05
2.54283e-05
0.000173025
3.52486e-05
3.52514e-05
3.52446e-05
3.52477e-05
4.33825e-05
4.9425e-05
4.3375e-05
4.94243e-05
0.000100974
5.2929e-05
0.000212884
0.000197862
0.000100949
5.29433e-05
0.000212883
0.000100975
5.29335e-05
0.000212884
0.000197863
0.00010095
5.29471e-05
0.000212884
4.33764e-05
4.94222e-05
4.94229e-05
4.3384e-05
4.33768e-05
4.94243e-05
4.9425e-05
4.33846e-05
0.000100951
0.000197861
5.29443e-05
0.000212884
5.29301e-05
0.000212883
0.000100974
0.000100951
0.000197863
5.29482e-05
0.000212884
5.29346e-05
0.000212884
0.000100978
3.52436e-05
3.52396e-05
0.000173198
3.52482e-05
3.52448e-05
2.54299e-05
2.54297e-05
2.54296e-05
2.54297e-05
0.00017303
3.52509e-05
3.52473e-05
3.52467e-05
3.5243e-05
2.54298e-05
2.54299e-05
0.000100975
5.29312e-05
0.000212886
0.000197876
0.000100949
5.29449e-05
0.000212885
4.33867e-05
4.94175e-05
4.33795e-05
4.94167e-05
0.000100974
0.00021288
5.29207e-05
0.000197854
0.000100948
0.00021288
5.29353e-05
4.33831e-05
4.94209e-05
4.94216e-05
4.33904e-05
0.000100951
0.000197876
5.29459e-05
0.000212884
5.29322e-05
0.000212884
0.000100978
4.33817e-05
4.94167e-05
4.94174e-05
4.33891e-05
0.000100951
0.000197854
0.000212881
5.29363e-05
0.00021288
5.29221e-05
0.000100977
4.33836e-05
4.9423e-05
4.33758e-05
4.94222e-05
0.000100976
0.00021289
5.29322e-05
0.000197866
0.00010095
0.00021289
5.29471e-05
4.33835e-05
4.94208e-05
4.33756e-05
4.94201e-05
0.000100951
0.00019788
5.2946e-05
0.000212888
5.29319e-05
0.000212889
0.000100976
4.33778e-05
4.94222e-05
4.94229e-05
4.33853e-05
0.000100952
0.000197866
0.000212889
5.29489e-05
0.00021289
5.29346e-05
0.000100978
4.33778e-05
4.94201e-05
4.94208e-05
4.33853e-05
3.52334e-05
3.52489e-05
0.000173185
3.52383e-05
3.52533e-05
2.54292e-05
2.54291e-05
2.54266e-05
2.54267e-05
0.000173018
3.52404e-05
3.52555e-05
3.52362e-05
3.52517e-05
2.54292e-05
2.54293e-05
0.000100975
0.000212886
5.29301e-05
0.000197877
0.000100948
0.000212886
5.29441e-05
4.33868e-05
4.94207e-05
4.33796e-05
4.942e-05
4.33878e-05
4.94208e-05
4.33805e-05
4.942e-05
0.000100948
0.00019787
0.000212883
5.29469e-05
0.000212884
5.29334e-05
0.000100973
0.000100951
0.000197877
0.000212885
5.2945e-05
0.000212885
5.29312e-05
0.000100977
4.33817e-05
4.942e-05
4.94207e-05
4.3389e-05
4.33827e-05
4.942e-05
4.94207e-05
4.33901e-05
2.5429e-05
2.54289e-05
2.5428e-05
2.54279e-05
0.000173024
3.52561e-05
3.52499e-05
3.52522e-05
3.52461e-05
2.5429e-05
2.54291e-05
2.5428e-05
2.54281e-05
2.54297e-05
2.54296e-05
2.54284e-05
2.54284e-05
3.52464e-05
3.52498e-05
0.000173191
3.52498e-05
3.52528e-05
2.54299e-05
2.54298e-05
2.54287e-05
2.54286e-05
0.000173024
3.52496e-05
3.52527e-05
3.52474e-05
3.52509e-05
4.33859e-05
4.94249e-05
4.33789e-05
4.94243e-05
0.000100974
5.29311e-05
0.000212884
0.000197861
0.00010095
5.29454e-05
0.000212885
0.000100975
5.29357e-05
0.000212886
0.000197861
0.000100954
5.29495e-05
0.000212887
4.3379e-05
4.94226e-05
4.9423e-05
4.33849e-05
4.33797e-05
4.94243e-05
4.9425e-05
4.33856e-05
0.000100949
0.000197863
5.29451e-05
0.000212886
5.29322e-05
0.000212886
0.000100972
0.00010095
0.000197861
5.29499e-05
0.000212887
5.2937e-05
0.000212888
0.000100973
3.52492e-05
3.52453e-05
0.000173196
3.52527e-05
3.52489e-05
2.543e-05
2.54299e-05
2.54299e-05
2.54299e-05
0.000173029
3.52531e-05
3.52494e-05
3.52507e-05
3.52466e-05
2.54301e-05
2.54301e-05
0.000100975
5.29332e-05
0.000212886
0.000197877
0.000100955
5.2947e-05
0.000212886
4.33904e-05
4.94175e-05
4.3384e-05
4.94168e-05
0.000100975
0.000212881
5.29231e-05
0.000197849
0.000100954
0.000212882
5.29374e-05
4.33862e-05
4.94212e-05
4.94216e-05
4.33916e-05
0.00010095
0.000197878
5.29467e-05
0.000212888
5.29343e-05
0.000212889
0.000100974
4.33849e-05
4.9417e-05
4.94175e-05
4.33901e-05
0.000100948
0.000197849
0.000212883
5.29369e-05
0.000212883
5.2924e-05
0.000100971
4.33864e-05
4.94229e-05
4.33794e-05
4.94222e-05
0.000100977
0.000212887
5.29363e-05
0.000197865
0.000100956
0.000212886
5.29502e-05
4.33863e-05
4.94208e-05
4.33794e-05
4.94202e-05
0.000100954
0.000197878
5.29473e-05
0.000212888
5.29336e-05
0.000212888
0.000100975
4.33802e-05
4.94222e-05
4.94229e-05
4.33862e-05
0.000100952
0.000197865
0.000212886
5.29499e-05
0.000212886
5.29373e-05
0.000100973
4.338e-05
4.94204e-05
4.94209e-05
4.33858e-05
3.52381e-05
3.52537e-05
0.000173183
3.52416e-05
3.52569e-05
2.54294e-05
2.54293e-05
2.54269e-05
2.54269e-05
0.000173016
3.52413e-05
3.52568e-05
3.52391e-05
3.52549e-05
2.54296e-05
2.54295e-05
0.000100977
0.000212885
5.29322e-05
0.000197874
0.000100951
0.000212885
5.29462e-05
4.33907e-05
4.94207e-05
4.3384e-05
4.94201e-05
4.33917e-05
4.94207e-05
4.33849e-05
4.94201e-05
0.000100952
0.000197871
0.000212884
5.29481e-05
0.000212885
5.29355e-05
0.000100975
0.000100953
0.000197873
0.000212887
5.2946e-05
0.000212886
5.29333e-05
0.000100974
4.33852e-05
4.94203e-05
4.94208e-05
4.33909e-05
4.3386e-05
4.94203e-05
4.94208e-05
4.33915e-05
2.54291e-05
2.54291e-05
2.54282e-05
2.54281e-05
0.000173022
3.52578e-05
3.52511e-05
3.52554e-05
3.52492e-05
2.54293e-05
2.54293e-05
2.54284e-05
2.54283e-05
2.54301e-05
2.54301e-05
2.54289e-05
2.54289e-05
3.52465e-05
3.52501e-05
0.000173184
3.5247e-05
3.52501e-05
2.54299e-05
2.54302e-05
2.54287e-05
2.5429e-05
0.000173011
3.52437e-05
3.52466e-05
3.52435e-05
3.52471e-05
4.33805e-05
4.94251e-05
4.33788e-05
4.9425e-05
0.000100963
5.29309e-05
0.000212886
0.000197858
0.000100944
5.294e-05
0.000212884
0.000100965
5.29367e-05
0.000212886
0.000197856
0.000100946
5.2946e-05
0.000212884
4.33708e-05
4.94245e-05
4.94244e-05
4.33698e-05
4.33716e-05
4.94264e-05
4.9426e-05
4.33705e-05
0.000100934
0.000197854
5.29307e-05
0.000212872
5.29244e-05
0.000212881
0.000100946
0.000100936
0.000197852
5.29367e-05
0.000212872
5.2931e-05
0.00021288
0.000100948
3.52505e-05
3.52467e-05
0.000173192
3.52508e-05
3.52476e-05
2.54304e-05
2.54304e-05
2.54302e-05
2.54304e-05
0.000173021
3.52478e-05
3.52445e-05
3.52477e-05
3.52441e-05
2.54304e-05
2.54307e-05
0.000100963
5.2933e-05
0.000212888
0.000197873
0.000100947
5.29417e-05
0.000212886
4.33849e-05
4.94179e-05
4.33839e-05
4.94178e-05
0.000100963
0.000212883
5.29226e-05
0.000197845
0.000100943
0.000212881
5.29318e-05
4.33778e-05
4.94231e-05
4.9423e-05
4.33761e-05
0.000100935
0.000197868
5.29324e-05
0.000212872
5.29265e-05
0.000212882
0.000100946
4.33765e-05
4.94189e-05
4.94188e-05
4.33748e-05
0.000100934
0.000197842
0.000212868
5.29224e-05
0.000212878
5.2916e-05
0.000100946
4.33823e-05
4.9423e-05
4.33796e-05
4.94227e-05
0.000100964
0.000212885
5.29363e-05
0.000197858
0.000100946
0.000212884
5.29456e-05
4.33818e-05
4.94212e-05
4.33792e-05
4.94211e-05
0.000100936
0.000197873
5.29362e-05
0.000212877
5.29293e-05
0.000212883
0.000100951
4.33737e-05
4.94238e-05
4.94237e-05
4.33725e-05
0.000100935
0.000197854
0.000212874
5.29364e-05
0.000212881
5.29305e-05
0.00010095
4.33732e-05
4.94222e-05
4.9422e-05
4.3372e-05
3.52381e-05
3.5254e-05
0.000173175
3.52386e-05
3.52542e-05
2.54298e-05
2.54298e-05
2.5427e-05
2.54273e-05
0.000173003
3.52352e-05
3.52508e-05
3.5235e-05
3.52511e-05
2.54296e-05
2.54299e-05
0.000100964
0.000212887
5.29321e-05
0.00019787
0.000100946
0.000212886
5.2941e-05
4.33857e-05
4.94211e-05
4.33848e-05
4.94211e-05
4.33862e-05
4.94211e-05
4.33852e-05
4.94211e-05
0.000100937
0.000197863
0.000212872
5.29341e-05
0.000212881
5.29284e-05
0.000100948
0.000100935
0.000197866
0.000212872
5.29316e-05
0.000212883
5.29256e-05
0.000100947
4.33774e-05
4.94222e-05
4.94221e-05
4.33756e-05
4.33777e-05
4.94222e-05
4.94221e-05
4.3376e-05
2.54295e-05
2.54296e-05
2.54286e-05
2.54286e-05
0.00017301
3.52516e-05
3.52452e-05
3.5252e-05
3.52454e-05
2.54295e-05
2.54297e-05
2.54284e-05
2.54287e-05
2.543e-05
2.54297e-05
2.54288e-05
2.54285e-05
3.524e-05
3.52434e-05
0.000173129
3.5239e-05
3.5242e-05
2.54296e-05
2.54299e-05
2.54284e-05
2.54286e-05
0.000172955
3.52343e-05
3.52381e-05
3.52352e-05
3.52387e-05
4.33619e-05
4.94273e-05
4.33616e-05
4.94271e-05
0.000100907
5.29145e-05
0.000212854
0.000197816
0.000100914
5.29204e-05
0.000212848
0.000100909
5.29211e-05
0.000212855
0.000197817
0.000100915
5.29262e-05
0.000212848
4.33532e-05
4.94249e-05
4.94257e-05
4.33562e-05
4.33539e-05
4.9427e-05
4.94277e-05
4.3357e-05
0.000100878
0.00019781
5.29143e-05
0.000212845
5.29048e-05
0.000212844
0.000100903
0.000100879
0.000197809
5.29194e-05
0.000212845
5.29111e-05
0.000212844
0.000100904
3.52447e-05
3.52411e-05
0.000173142
3.52439e-05
3.52409e-05
2.54305e-05
2.54301e-05
2.54298e-05
2.543e-05
0.000172963
3.52392e-05
3.52358e-05
3.52403e-05
3.52371e-05
2.543e-05
2.54303e-05
0.000100908
5.29166e-05
0.000212855
0.00019783
0.000100915
5.29221e-05
0.000212848
4.33662e-05
4.94198e-05
4.33666e-05
4.94194e-05
0.000100907
0.000212851
5.29061e-05
0.000197805
0.000100914
0.000212844
5.29121e-05
4.33602e-05
4.94236e-05
4.94243e-05
4.33628e-05
0.000100879
0.000197824
5.29162e-05
0.000212846
5.29071e-05
0.000212846
0.000100904
4.3359e-05
4.94194e-05
4.94202e-05
4.33615e-05
0.000100878
0.000197798
0.000212842
5.2906e-05
0.000212841
5.28965e-05
0.000100903
4.33631e-05
4.94248e-05
4.33634e-05
4.94247e-05
0.000100915
0.000212859
5.29206e-05
0.000197817
0.00010092
0.000212851
5.29257e-05
4.33626e-05
4.94231e-05
4.33629e-05
4.94229e-05
0.000100883
0.000197831
5.29171e-05
0.000212848
5.29095e-05
0.000212849