/*--------------------------------*- C++ -*----------------------------------*\
| =========                 |                                                 |
| \\      /  F ield         | OpenFOAM: The Open Source CFD Toolbox           |
|  \\    /   O peration     | Version:  2206                                  |
|   \\  /    A nd           | Website:  www.openfoam.com                      |
|    \\/     M anipulation  |                                                 |
\*---------------------------------------------------------------------------*/
FoamFile
{
    version     2.0;
    format      ascii;
    arch        "LSB;label=32;scalar=64";
    class       surfaceScalarField;
    location    "25.5";
    object      phi;
}
// * * * * * * * * * * * * * * * * * * * * * * * * * * * * * * * * * * * * * //

dimensions      [0 3 -1 0 0 0 0];

oriented        oriented;

internalField   nonuniform List<scalar> 
83348
(
1.42546e-09
1.56998e-09
-0.00108306
-1.49512e-09
-1.46087e-09
0.00108306
-0.0010832
-1.19967e-06
-1.52991e-09
2.644e-09
0.0010832
-2.51464e-07
1.20214e-06
2.5043e-07
8.84679e-07
-2.479e-07
-8.84393e-07
2.45104e-07
-0.00108285
-1.19428e-06
-1.55548e-09
2.58249e-09
0.00108285
-2.48695e-07
1.19675e-06
2.47684e-07
8.84521e-07
-2.50497e-07
-8.84256e-07
2.47789e-07
-0.000266201
1.22787e-06
1.1944e-06
-2.27715e-07
-2.32984e-07
0.000264239
1.56218e-09
1.71422e-09
-0.00108306
-1.58257e-09
-1.52905e-09
0.00108306
-0.0010832
-1.19963e-06
-1.65909e-09
2.56858e-09
0.00108319
-2.51426e-07
1.20216e-06
2.50459e-07
8.84704e-07
-2.47828e-07
-8.84359e-07
2.45167e-07
-0.00108285
-1.19425e-06
-1.68718e-09
2.515e-09
0.00108285
-2.48658e-07
1.19677e-06
2.47719e-07
8.84544e-07
-2.50442e-07
-8.84236e-07
2.47845e-07
-0.000266201
1.22784e-06
1.19437e-06
-2.27683e-07
-2.32949e-07
0.000264239
1.7696e-09
1.94221e-09
-0.00108306
-1.68711e-09
-1.62068e-09
0.00108306
-0.00108319
-1.1996e-06
-1.74871e-09
2.53553e-09
0.00108319
-2.51387e-07
1.2022e-06
2.50509e-07
8.8475e-07
-2.47792e-07
-8.84333e-07
2.45224e-07
-0.00108285
-1.19421e-06
-1.91472e-09
2.43312e-09
0.00108285
-2.48613e-07
1.19681e-06
2.47765e-07
8.84612e-07
-2.50378e-07
-8.84178e-07
2.47921e-07
-0.0002662
1.2278e-06
1.19434e-06
-2.27644e-07
-2.32904e-07
0.000264239
1.76256e-09
1.88187e-09
-0.00108305
-1.66426e-09
-1.64098e-09
0.00108305
-0.00108319
-1.19959e-06
-1.75642e-09
2.57244e-09
0.00108319
-2.51383e-07
1.2022e-06
2.50509e-07
8.84786e-07
-2.47755e-07
-8.84297e-07
2.45267e-07
-0.00108285
-1.19424e-06
-1.88177e-09
2.50424e-09
0.00108285
-2.48646e-07
1.19679e-06
2.47759e-07
8.84616e-07
-2.50387e-07
-8.8419e-07
2.4794e-07
-0.0002662
1.22783e-06
1.19434e-06
-2.27622e-07
-2.32904e-07
0.000264238
8.38743e-10
7.49854e-10
-0.00108305
-9.77937e-10
-1.17569e-09
0.00108305
-0.00108319
-1.19956e-06
-1.78128e-09
2.49916e-09
0.00108319
-2.51376e-07
1.2022e-06
2.50503e-07
8.84732e-07
-2.47768e-07
-8.84315e-07
2.45234e-07
-0.00108285
-1.19439e-06
-8.513e-10
3.07629e-09
0.00108285
-2.4886e-07
1.19658e-06
2.47479e-07
8.84284e-07
-2.5065e-07
-8.84434e-07
2.47576e-07
-0.000266199
1.22798e-06
1.19441e-06
-2.27665e-07
-2.33052e-07
0.000264238
8.42337e-10
1.10505e-09
-0.00108306
-1.33748e-09
-1.18685e-09
0.00108306
-0.00108319
-1.19994e-06
-5.0614e-10
3.02826e-09
0.0010832
-2.51805e-07
1.20202e-06
2.50268e-07
8.84431e-07
-2.48553e-07
-8.84844e-07
2.44664e-07
-0.00108285
-1.19442e-06
-1.0424e-09
2.65392e-09
0.00108285
-2.48862e-07
1.19675e-06
2.47685e-07
8.84402e-07
-2.50971e-07
-8.84576e-07
2.47543e-07
-0.0002662
1.22799e-06
1.1946e-06
-2.28021e-07
-2.3319e-07
0.000264239
1.50061e-09
1.6761e-09
-0.00108306
-1.5857e-09
-1.51087e-09
0.00108306
-0.0010832
-1.19963e-06
-1.63855e-09
2.51205e-09
0.0010832
-2.51429e-07
1.20224e-06
2.50549e-07
8.84744e-07
-2.47963e-07
-8.84445e-07
2.45177e-07
-0.00108285
-1.19427e-06
-1.64193e-09
2.49109e-09
0.00108285
-2.48685e-07
1.19682e-06
2.47775e-07
8.84575e-07
-2.50567e-07
-8.8431e-07
2.47842e-07
-0.000266201
1.22786e-06
1.19439e-06
-2.27701e-07
-2.32974e-07
0.000264239
1.41247e-09
1.55235e-09
-0.00108306
-1.4932e-09
-1.46384e-09
0.00108306
-0.0010832
-1.19968e-06
-1.56502e-09
2.59131e-09
0.0010832
-2.51488e-07
1.2022e-06
2.50495e-07
8.84727e-07
-2.47968e-07
-8.84461e-07
2.45159e-07
-0.00108285
-1.1943e-06
-1.53971e-09
2.58121e-09
0.00108285
-2.48731e-07
1.19679e-06
2.47736e-07
8.84551e-07
-2.5059e-07
-8.84339e-07
2.47818e-07
-0.000266201
1.2279e-06
1.19442e-06
-2.27737e-07
-2.33014e-07
0.000264239
1.40663e-09
1.54516e-09
-0.00108306
-1.48912e-09
-1.46216e-09
0.00108306
-0.0010832
-1.19968e-06
-1.54896e-09
2.60305e-09
0.0010832
-2.51494e-07
1.20219e-06
2.50491e-07
8.84724e-07
-2.47972e-07
-8.84464e-07
2.45156e-07
-0.00108285
-1.19431e-06
-1.5285e-09
2.58738e-09
0.00108285
-2.48734e-07
1.19679e-06
2.47734e-07
8.84552e-07
-2.50593e-07
-8.84343e-07
2.4782e-07
-0.000266201
1.2279e-06
1.19442e-06
-2.27739e-07
-2.33014e-07
0.000264239
1.39855e-09
1.52482e-09
-0.00108306
-1.50557e-09
-1.4784e-09
0.00108306
-0.0010832
-1.19969e-06
-1.54745e-09
2.60702e-09
0.0010832
-2.51497e-07
1.20219e-06
2.50491e-07
8.84724e-07
-2.47972e-07
-8.84465e-07
2.45156e-07
-0.00108285
-1.1943e-06
-1.51802e-09
2.57408e-09
0.00108285
-2.48733e-07
1.19679e-06
2.47737e-07
8.84551e-07
-2.50598e-07
-8.84347e-07
2.47819e-07
-0.000266201
1.2279e-06
1.19441e-06
-2.27734e-07
-2.33016e-07
0.000264239
1.33045e-09
-8.6907e-09
-0.00108305
-1.49991e-09
-1.44935e-09
0.00108306
-0.0010832
-1.19969e-06
-1.5729e-09
2.59582e-09
0.0010832
-2.51448e-07
1.2022e-06
2.50476e-07
8.84729e-07
-2.47966e-07
-8.84459e-07
2.4516e-07
-0.00108285
-1.1943e-06
-1.53431e-09
2.57648e-09
0.00108285
-2.48731e-07
1.19679e-06
2.47738e-07
8.84553e-07
-2.50596e-07
-8.84345e-07
2.4782e-07
-0.000266201
1.2279e-06
1.19442e-06
-2.27733e-07
-2.33013e-07
0.000264239
1.36383e-09
1.56599e-09
-0.00108306
-1.51287e-09
-1.43984e-09
0.00108306
-0.0010832
-1.19973e-06
-1.51613e-09
2.69337e-09
0.0010832
-2.48785e-07
1.20216e-06
2.47681e-07
8.84728e-07
-2.47949e-07
-8.84466e-07
2.45136e-07
-0.00108285
-1.19431e-06
-1.53787e-09
2.58781e-09
0.00108285
-2.48733e-07
1.19679e-06
2.47737e-07
8.84551e-07
-2.50598e-07
-8.84348e-07
2.47819e-07
-0.000266201
1.22789e-06
1.19442e-06
-2.27741e-07
-2.33011e-07
0.000264239
1.36891e-09
1.5404e-09
-0.00108306
-1.48428e-09
-1.44444e-09
0.00108306
-0.0010832
-1.19969e-06
-1.53252e-09
2.61935e-09
0.0010832
-2.48745e-07
1.2022e-06
2.4772e-07
8.84721e-07
-2.47944e-07
-8.84467e-07
2.45136e-07
-0.00108285
-1.19431e-06
-1.53755e-09
2.59085e-09
0.00108285
-2.48734e-07
1.19679e-06
2.47737e-07
8.84552e-07
-2.506e-07
-8.84348e-07
2.4782e-07
-0.000266201
1.2279e-06
1.19443e-06
-2.27742e-07
-2.33013e-07
0.000264239
1.36992e-09
1.52167e-09
-0.00108306
-1.47243e-09
-1.44989e-09
0.00108306
-0.0010832
-1.19969e-06
-1.53188e-09
2.61813e-09
0.0010832
-2.48745e-07
1.2022e-06
2.47719e-07
8.84718e-07
-2.47942e-07
-8.84466e-07
2.45132e-07
-0.00108285
-1.19431e-06
-1.53084e-09
2.59585e-09
0.00108285
-2.48732e-07
1.19679e-06
2.47733e-07
8.84548e-07
-2.50596e-07
-8.84346e-07
2.47815e-07
-0.000266201
1.2279e-06
1.19442e-06
-2.27739e-07
-2.33012e-07
0.000264239
1.3736e-09
1.51579e-09
-0.00108306
-1.46732e-09
-1.45174e-09
0.00108306
-0.0010832
-1.19969e-06
-1.53214e-09
2.61834e-09
0.0010832
-2.48745e-07
1.2022e-06
2.47714e-07
8.84715e-07
-2.47941e-07
-8.84465e-07
2.45127e-07
-0.00108285
-1.1943e-06
-1.53092e-09
2.59259e-09
0.00108285
-2.48731e-07
1.19679e-06
2.47731e-07
8.84545e-07
-2.50594e-07
-8.84345e-07
2.47811e-07
-0.000266201
1.2279e-06
1.19442e-06
-2.27737e-07
-2.3301e-07
0.000264239
1.39185e-09
1.52437e-09
-0.00108306
-1.47227e-09
-1.46247e-09
0.00108306
-0.0010832
-1.19969e-06
-1.54154e-09
2.61188e-09
0.0010832
-2.48742e-07
1.2022e-06
2.47718e-07
8.84715e-07
-2.47937e-07
-8.84461e-07
2.45127e-07
-0.00108285
-1.1943e-06
-1.53581e-09
2.59176e-09
0.00108285
-2.4873e-07
1.19679e-06
2.47733e-07
8.84545e-07
-2.50591e-07
-8.84342e-07
2.4781e-07
-0.000266201
1.2279e-06
1.19442e-06
-2.27737e-07
-2.3301e-07
0.000264239
1.40054e-09
1.51867e-09
-0.00108306
-1.47215e-09
-1.46495e-09
0.00108306
-0.0010832
-1.19968e-06
-1.54149e-09
2.61007e-09
0.0010832
-2.48736e-07
1.2022e-06
2.47711e-07
8.84705e-07
-2.47926e-07
-8.84451e-07
2.45113e-07
-0.00108285
-1.1943e-06
-1.53819e-09
2.58858e-09
0.00108285
-2.48723e-07
1.19679e-06
2.47727e-07
8.84533e-07
-2.50578e-07
-8.84332e-07
2.47798e-07
-0.000266201
1.22789e-06
1.19442e-06
-2.27732e-07
-2.33006e-07
0.000264239
1.4064e-09
1.5287e-09
-0.00108306
-1.47052e-09
-1.46161e-09
-0.0010832
-1.19966e-06
-1.55073e-09
2.60994e-09
-2.48709e-07
1.20217e-06
2.47682e-07
8.84675e-07
-2.47883e-07
-8.84413e-07
2.45083e-07
-0.00108285
-1.19428e-06
-1.54788e-09
2.59307e-09
-2.48697e-07
1.19676e-06
2.47697e-07
8.84504e-07
-2.50535e-07
-8.84293e-07
2.47768e-07
-0.000266201
1.22787e-06
1.1944e-06
-2.27712e-07
-2.32985e-07
0.000264239
-1.23828e-06
-1.19951e-06
0.000266217
-0.000264245
2.27657e-07
2.37971e-07
0.00108241
-1.35101e-09
-0.00108241
2.78715e-09
-1.23585e-06
2.55718e-07
-2.56853e-07
-8.87038e-07
2.42273e-07
-2.45174e-07
8.8722e-07
1.24107e-06
0.00108286
-1.34791e-09
-0.00108286
2.75254e-09
-1.23863e-06
2.55794e-07
-2.56909e-07
-8.92689e-07
2.47781e-07
-2.50688e-07
8.92864e-07
-1.20214e-06
0.00026624
-0.000264263
2.30406e-07
2.35247e-07
0.00108347
-1.54156e-09
-0.00108347
2.5956e-09
-1.19707e-06
2.50464e-07
-2.51494e-07
-8.87112e-07
2.47846e-07
-2.50651e-07
8.87446e-07
1.23568e-06
0.00108253
-1.35775e-09
-0.00108253
2.76853e-09
-1.23326e-06
2.55773e-07
-2.5691e-07
-8.87114e-07
2.47749e-07
-2.50612e-07
8.87284e-07
-1.52849e-09
2.62218e-09
-1.19966e-06
2.50433e-07
-2.51456e-07
-8.84406e-07
2.45085e-07
8.84663e-07
-2.47913e-07
1.23029e-06
0.00108232
-1.36579e-09
-0.00108232
2.77392e-09
-1.22788e-06
2.50253e-07
-2.51366e-07
-8.84421e-07
2.44975e-07
-2.47855e-07
8.84584e-07
-1.19674e-06
0.000266196
-0.000264226
2.27831e-07
2.35207e-07
-1.51646e-09
-0.00108285
2.60476e-09
-1.19429e-06
2.47671e-07
-2.48706e-07
-8.84226e-07
2.4774e-07
8.84558e-07
-2.50547e-07
1.19685e-06
0.00108337
-1.50232e-09
-0.00108337
2.6211e-09
-1.1944e-06
2.47723e-07
-2.48769e-07
-8.84515e-07
2.47833e-07
-2.50638e-07
8.84811e-07
-0.000264239
2.30148e-07
2.35438e-07
1.23584e-06
1.19706e-06
-2.2522e-07
-2.35497e-07
0.000264245
-1.2383e-06
-1.19953e-06
0.000266217
-0.000264244
2.27692e-07
2.38007e-07
2.75908e-09
0.00108241
-2.5684e-07
1.23829e-06
2.55733e-07
8.87243e-07
-2.45147e-07
-8.8701e-07
2.423e-07
-1.23864e-06
-1.39124e-09
2.79113e-09
0.00108285
-2.56924e-07
1.24373e-06
2.58516e-07
8.92879e-07
-2.5067e-07
-8.92672e-07
2.478e-07
0.00108241
-1.48448e-09
-0.00108241
2.70054e-09
-1.23581e-06
2.55752e-07
-2.56809e-07
-8.87006e-07
2.42332e-07
-2.45106e-07
8.87246e-07
1.24109e-06
0.00108286
-1.4631e-09
-0.00108285
2.73996e-09
-1.24128e-06
2.55818e-07
-2.59615e-07
-8.92657e-07
2.47841e-07
-2.50622e-07
8.92886e-07
-2.27951e-07
-2.32784e-07
0.000264263
-1.20216e-06
0.00026624
-0.000264263
2.3044e-07
2.35276e-07
2.57407e-09
0.00108347
-2.51483e-07
1.19952e-06
2.50477e-07
8.87462e-07
-2.50625e-07
-8.87093e-07
2.4787e-07
-1.23325e-06
-1.41479e-09
2.74623e-09
0.00108253
-2.56896e-07
1.2357e-06
2.55789e-07
8.87304e-07
-2.50583e-07
-8.87092e-07
2.47776e-07
0.00108347
-1.68982e-09
-0.00108347
2.53266e-09
-1.19704e-06
2.50495e-07
-2.51455e-07
-8.87077e-07
2.47907e-07
-2.50579e-07
8.87468e-07
1.2357e-06
0.00108253
-1.49705e-09
-0.00108253
2.69897e-09
-1.23323e-06
2.55804e-07
-2.56869e-07
-8.87082e-07
2.47807e-07
-2.50545e-07
8.8731e-07
-1.40061e-09
2.74778e-09
0.00108232
-2.51352e-07
1.2303e-06
2.50266e-07
8.84604e-07
-2.47825e-07
2.45001e-07
-8.84399e-07
-1.62504e-09
-0.0010832
2.58701e-09
-1.19964e-06
2.50455e-07
-2.5143e-07
-8.84365e-07
2.45151e-07
8.84695e-07
-2.47844e-07
1.23031e-06
0.00108232
-1.48249e-09
-0.00108232
2.69154e-09
-1.22785e-06
2.50289e-07
-2.5132e-07
-8.84379e-07
2.45028e-07
-2.47785e-07
8.84613e-07
-2.25377e-07
-2.32753e-07
0.000264226
-1.19676e-06
0.000266196
-0.000264226
2.27867e-07
2.35241e-07
-1.55921e-09
2.60369e-09
0.00108337
-2.48757e-07
1.19685e-06
2.47735e-07
8.84831e-07
-2.50606e-07
2.47861e-07
-8.84491e-07
-1.65638e-09
-0.00108285
2.53391e-09
-1.19426e-06
2.47702e-07
-2.48666e-07
-8.84193e-07
2.478e-07
8.84579e-07
-2.50475e-07
1.19686e-06
0.00108337
-1.65404e-09
-0.00108337
2.56669e-09
-1.19438e-06
2.47753e-07
-2.48731e-07
-8.84478e-07
2.47894e-07
-2.50564e-07
8.84835e-07
-0.000264239
2.30178e-07
2.35476e-07
1.23581e-06
1.19703e-06
-2.25185e-07
-2.35465e-07
0.000264244
-1.23833e-06
-1.19956e-06
0.000266216
-0.000264244
2.27731e-07
2.38051e-07
2.67762e-09
0.00108241
-2.56803e-07
1.23831e-06
2.55768e-07
8.8728e-07
-2.4509e-07
-8.86978e-07
2.42359e-07
-1.23861e-06
-1.52285e-09
2.73109e-09
0.00108285
-2.56885e-07
1.24376e-06
2.5855e-07
8.92901e-07
-2.50608e-07
-8.92647e-07
2.47856e-07
0.00108241
-1.5843e-09
-0.00108241
2.67932e-09
-1.23579e-06
2.55798e-07
-2.56775e-07
-8.86966e-07
2.42392e-07
-2.45059e-07
8.87293e-07
1.24378e-06
0.00108285
-1.58046e-09
-0.00108285
2.72843e-09
-1.24126e-06
2.58584e-07
-2.59589e-07
-8.92616e-07
2.47901e-07
-2.50573e-07
8.92938e-07
-2.27912e-07
-2.32745e-07
0.000264263
-1.20219e-06
0.000266243
-0.000264262
2.30517e-07
2.35313e-07
2.51819e-09
0.00108347
-2.51448e-07
1.19955e-06
2.50511e-07
8.87486e-07
-2.50568e-07
-8.87071e-07
2.47928e-07
-1.23323e-06
-1.56146e-09
2.68033e-09
0.00108253
-2.56862e-07
1.23571e-06
2.5582e-07
8.87342e-07
-2.50526e-07
-8.8706e-07
2.47836e-07
0.00108347
-1.79834e-09
-0.00108347
2.51056e-09
-1.19701e-06
2.5054e-07
-2.51421e-07
-8.87039e-07
2.47971e-07
-2.5053e-07
8.87521e-07
1.23573e-06
0.00108252
-1.60204e-09
-0.00108252
2.68007e-09
-1.23321e-06
2.55848e-07
-2.56836e-07
-8.87039e-07
2.47871e-07
-2.50493e-07
8.87359e-07
-1.51803e-09
2.67143e-09
0.00108232
-2.51313e-07
1.23032e-06
2.50301e-07
8.84625e-07
-2.47774e-07
2.45049e-07
-8.84373e-07
-1.68622e-09
-0.00108319
2.54526e-09
-1.19961e-06
2.50497e-07
-2.51396e-07
-8.84341e-07
2.45202e-07
8.8473e-07
-2.47803e-07
1.23035e-06
0.00108232
-1.54048e-09
-0.00108232
2.65276e-09
-1.22782e-06
2.50336e-07
-2.51282e-07
-8.84357e-07
2.45085e-07
-2.47744e-07
8.84648e-07
-2.25342e-07
-2.32722e-07
0.000264226
-1.19679e-06
0.000266195
-0.000264226
2.27907e-07
2.35285e-07
-1.70622e-09
2.55538e-09
0.00108337
-2.48723e-07
1.19687e-06
2.47767e-07
8.84856e-07
-2.50548e-07
2.4792e-07
-8.84468e-07
-1.76047e-09
-0.00108285
2.50937e-09
-1.19423e-06
2.47747e-07
-2.48631e-07
-8.84154e-07
2.47864e-07
8.84632e-07
-2.50427e-07
1.19689e-06
0.00108337
-1.76759e-09
-0.00108337
2.55239e-09
-1.19435e-06
2.47795e-07
-2.487e-07
-8.84441e-07
2.47958e-07
-2.50516e-07
8.84887e-07
-0.000264239
2.3022e-07
2.35518e-07
1.23577e-06
1.19699e-06
-2.25145e-07
-2.35419e-07
0.000264244
-1.23833e-06
-1.19958e-06
0.000266216
-0.000264244
2.27787e-07
2.38094e-07
2.59281e-09
0.00108241
-2.56755e-07
1.23835e-06
2.55818e-07
8.87332e-07
-2.45031e-07
-8.86933e-07
2.4243e-07
-1.24125e-06
-1.68671e-09
2.7132e-09
0.00108285
-2.59577e-07
1.24378e-06
2.58595e-07
8.92967e-07
-2.50552e-07
-8.92599e-07
2.47937e-07
0.0010824
-1.5876e-09
-0.0010824
2.75387e-09
-1.23577e-06
2.55799e-07
-2.56763e-07
-8.86924e-07
2.42443e-07
-2.45014e-07
8.87341e-07
1.24384e-06
0.00108285
-1.65445e-09
-0.00108285
2.62759e-09
-1.2412e-06
2.58647e-07
-2.59536e-07
-8.92573e-07
2.47989e-07
-2.50518e-07
8.93006e-07
-2.27909e-07
-2.32723e-07
0.000264262
-1.20225e-06
0.000266242
-0.000264262
2.3059e-07
2.35392e-07
2.43013e-09
0.00108347
-2.514e-07
1.19958e-06
2.50559e-07
8.87553e-07
-2.50504e-07
-8.87015e-07
2.48004e-07
-1.23319e-06
-1.76549e-09
2.60199e-09
0.00108252
-2.56815e-07
1.23575e-06
2.5587e-07
8.87391e-07
-2.50467e-07
-8.87016e-07
2.47904e-07
0.00108347
-1.73996e-09
-0.00108347
2.53402e-09
-1.19698e-06
2.5055e-07
-2.51401e-07
-8.87009e-07
2.48009e-07
-2.50497e-07
8.87554e-07
1.23574e-06
0.00108252
-1.57213e-09
-0.00108252
2.7117e-09
-1.23318e-06
2.55859e-07
-2.56816e-07
-8.87006e-07
2.47914e-07
-2.50457e-07
8.87399e-07
-1.67269e-09
2.58344e-09
0.00108232
-2.51264e-07
1.23037e-06
2.50356e-07
8.84679e-07
-2.47725e-07
2.45109e-07
-8.84336e-07
-1.86633e-09
-0.00108319
2.46214e-09
-1.19956e-06
2.50561e-07
-2.51348e-07
-8.84279e-07
2.45307e-07
8.84826e-07
-2.47731e-07
1.23037e-06
0.00108232
-1.6199e-09
-0.00108232
2.70215e-09
-1.22778e-06
2.50361e-07
-2.51256e-07
-8.84307e-07
2.4514e-07
-2.47701e-07
8.84717e-07
-2.25303e-07
-2.32676e-07
0.000264226
-1.1968e-06
0.000266195
-0.000264226
2.27958e-07
2.35335e-07
-1.946e-09
2.47797e-09
0.00108337
-2.4868e-07
1.19691e-06
2.47814e-07
8.84926e-07
-2.50484e-07
2.47999e-07
-8.8441e-07
-1.73593e-09
-0.00108285
2.56173e-09
-1.1942e-06
2.47755e-07
-2.48614e-07
-8.84119e-07
2.47906e-07
8.8467e-07
-2.5039e-07
1.19691e-06
0.00108337
-1.71232e-09
-0.00108337
2.54725e-09
-1.19432e-06
2.47812e-07
-2.48677e-07
-8.84408e-07
2.48004e-07
-2.5048e-07
8.84925e-07
-0.000264239
2.30281e-07
2.35575e-07
1.2358e-06
1.19701e-06
-2.2514e-07
-2.35429e-07
0.000264244
-1.23837e-06
-1.19964e-06
0.000266215
-0.000264243
2.2783e-07
2.38118e-07
2.68308e-09
0.0010824
-2.56796e-07
1.23833e-06
2.55803e-07
8.87348e-07
-2.45036e-07
-8.86935e-07
2.42455e-07
-1.24123e-06
-1.63868e-09
2.71582e-09
0.00108285
-2.59567e-07
1.2438e-06
2.58613e-07
8.92972e-07
-2.50532e-07
-8.92593e-07
2.47957e-07
0.0010824
-1.71432e-09
-0.0010824
2.85304e-09
-1.23572e-06
2.55803e-07
-2.5675e-07
-8.86858e-07
2.42486e-07
-2.44971e-07
8.87395e-07
1.24401e-06
0.00108285
-1.98551e-09
-0.00108285
2.22554e-09
-1.24108e-06
2.58802e-07
-2.59423e-07
-8.92489e-07
2.48118e-07
-2.50425e-07
8.93096e-07
-2.2787e-07
-2.32667e-07
0.000264262
-1.20239e-06
0.000266242
-0.000264262
2.30723e-07
2.35558e-07
2.47152e-09
0.00108347
-2.5143e-07
1.19957e-06
2.50558e-07
8.8755e-07
-2.50521e-07
-8.87034e-07
2.48016e-07
-1.23321e-06
-1.72896e-09
2.65354e-09
0.00108252
-2.56846e-07
1.23574e-06
2.55866e-07
8.87402e-07
-2.50477e-07
-8.87025e-07
2.47926e-07
0.00108347
-1.71132e-09
-0.00108347
2.45716e-09
-1.1969e-06
2.50579e-07
-2.51365e-07
-8.86965e-07
2.48029e-07
-2.50472e-07
8.87579e-07
1.2358e-06
0.00108252
-1.59086e-09
-0.00108252
2.67813e-09
-1.23311e-06
2.55881e-07
-2.56788e-07
-8.86958e-07
2.4794e-07
-2.50429e-07
8.87433e-07
-1.66967e-09
2.6912e-09
0.00108232
-2.51296e-07
1.23034e-06
2.50333e-07
8.84707e-07
-2.47723e-07
2.45149e-07
-8.84321e-07
-2.39338e-09
-0.00108319
2.15905e-09
-1.19946e-06
2.50692e-07
-2.51254e-07
-8.84155e-07
2.45457e-07
8.84982e-07
-2.47624e-07
1.23042e-06
0.00108232
-1.98906e-09
-0.00108232
2.73325e-09
-1.22773e-06
2.50377e-07
-2.51231e-07
-8.84193e-07
2.4525e-07
-2.47624e-07
8.84856e-07
-2.25304e-07
-2.32678e-07
0.000264225
-1.19685e-06
0.000266194
-0.000264225
2.27988e-07
2.35371e-07
-1.88525e-09
2.50353e-09
0.00108337
-2.48703e-07
1.19691e-06
2.47819e-07
8.84922e-07
-2.50494e-07
2.48012e-07
-8.84426e-07
-1.78677e-09
-0.00108285
2.57006e-09
-1.19414e-06
2.47768e-07
-2.48593e-07
-8.84064e-07
2.47937e-07
8.84707e-07
-2.50352e-07
1.19703e-06
0.00108337
-1.69273e-09
-0.00108337
2.36269e-09
-1.19422e-06
2.47874e-07
-2.48618e-07
-8.8436e-07
2.4803e-07
-2.50446e-07
8.84953e-07
-0.000264238
2.30384e-07
2.356e-07
1.23597e-06
1.19715e-06
-2.25268e-07
-2.35579e-07
0.000264243
-1.23814e-06
-1.19937e-06
0.000266216
-0.000264244
2.27391e-07
2.37717e-07
3.40888e-09
0.0010824
-2.57027e-07
1.23809e-06
2.55502e-07
8.87041e-07
-2.45285e-07
-8.87158e-07
2.4211e-07
-1.24115e-06
-1.25056e-09
2.48916e-09
0.00108284
-2.59528e-07
1.24386e-06
2.58642e-07
8.92782e-07
-2.50615e-07
-8.92725e-07
2.47819e-07
0.00108241
-2.97274e-10
-0.0010824
3.04575e-09
-1.23614e-06
2.55568e-07
-2.57187e-07
-8.87552e-07
2.41809e-07
-2.45848e-07
8.86906e-07
1.24344e-06
0.00108285
-4.45595e-11
-0.00108285
3.4336e-09
-1.2417e-06
2.58181e-07
-2.60098e-07
-8.93227e-07
2.47205e-07
-2.51449e-07
8.9252e-07
-2.27834e-07
-2.32579e-07
0.000264261
-1.20187e-06
0.000266242
-0.000264262
2.30047e-07
2.34808e-07
2.9521e-09
0.00108347
-2.5163e-07
1.19937e-06
2.50291e-07
8.87208e-07
-2.50799e-07
-8.87291e-07
2.47639e-07
-1.23336e-06
-6.65191e-10
3.17996e-09
0.00108252
-2.57054e-07
1.23552e-06
2.55588e-07
8.87068e-07
-2.50745e-07
-8.87272e-07
2.47558e-07
0.00108347
-5.74731e-10
-0.00108347
2.9259e-09
-1.19736e-06
2.50307e-07
-2.51828e-07
-8.87619e-07
2.47397e-07
-2.51317e-07
8.87147e-07
1.23554e-06
0.00108252
-3.36012e-10
-0.00108252
3.09686e-09
-1.23355e-06
2.55616e-07
-2.57245e-07
-8.87626e-07
2.47282e-07
-2.51289e-07
8.86977e-07
-1.20038e-09
3.32051e-09
0.00108232
-2.5151e-07
1.23012e-06
2.50051e-07
8.84566e-07
-2.47841e-07
2.44972e-07
-8.84406e-07
-9.13831e-11
-0.00108319
3.21465e-09
-1.20005e-06
2.50092e-07
-2.51932e-07
-8.84984e-07
2.44499e-07
8.84253e-07
-2.48632e-07
1.23015e-06
0.00108232
-1.22331e-10
-0.00108232
3.06173e-09
-1.22818e-06
2.501e-07
-2.51714e-07
-8.84997e-07
2.44428e-07
-2.48562e-07
8.84184e-07
-2.25442e-07
-2.32815e-07
0.000264225
-1.19659e-06
0.000266195
-0.000264226
2.27565e-07
2.3495e-07
-7.43827e-10
2.82509e-09
0.00108337
-2.48853e-07
1.19678e-06
2.4761e-07
8.84574e-07
-2.50769e-07
2.47633e-07
-8.84685e-07
-5.17722e-10
-0.00108285
2.91938e-09
-1.19458e-06
2.47512e-07
-2.49042e-07
-8.84734e-07
2.47287e-07
8.84255e-07
-2.5121e-07
1.19665e-06
0.00108337
-5.38117e-10
-0.00108337
3.02066e-09
-1.19473e-06
2.47541e-07
-2.49114e-07
-8.85024e-07
2.47377e-07
-2.51314e-07
8.84514e-07
-0.000264239
2.29817e-07
2.35189e-07
1.23597e-06
1.19721e-06
-2.25461e-07
-2.35714e-07
0.000264244
-1.23838e-06
-1.19961e-06
0.000266217
-0.000264245
2.27746e-07
2.38063e-07
2.73253e-09
0.00108241
-2.5699e-07
1.2383e-06
2.55754e-07
8.87104e-07
-2.45647e-07
-8.87353e-07
2.42036e-07
-1.24162e-06
-5.69898e-10
3.29802e-09
0.00108285
-2.6002e-07
1.24356e-06
2.58317e-07
8.92718e-07
-2.51265e-07
-8.93036e-07
2.4745e-07
0.00108241
-1.48257e-09
-0.00108241
2.58984e-09
-1.23581e-06
2.55848e-07
-2.56807e-07
-8.8707e-07
2.42355e-07
-2.45237e-07
8.87306e-07
1.24383e-06
0.00108285
-1.46741e-09
-0.00108285
2.72487e-09
-1.24129e-06
2.58642e-07
-2.59631e-07
-8.92741e-07
2.47851e-07
-2.50761e-07
8.92927e-07
-2.28361e-07
-2.33224e-07
0.000264262
-1.20224e-06
0.000266243
-0.000264263
2.30539e-07
2.35342e-07
2.69542e-09
0.00108347
-2.51655e-07
1.19951e-06
2.50471e-07
8.87349e-07
-2.51095e-07
-8.8741e-07
2.47633e-07
-1.2334e-06
-9.0234e-10
2.84262e-09
0.00108253
-2.57062e-07
1.23569e-06
2.55791e-07
8.87183e-07
-2.51072e-07
-8.87418e-07
2.47522e-07
0.00108347
-1.73508e-09
-0.00108347
2.49045e-09
-1.19704e-06
2.50581e-07
-2.51465e-07
-8.87135e-07
2.47931e-07
-2.507e-07
8.87532e-07
1.23578e-06
0.00108253
-1.54321e-09
-0.00108253
2.62995e-09
-1.23324e-06
2.55893e-07
-2.56876e-07
-8.87132e-07
2.47835e-07
-2.5066e-07
8.87377e-07
-6.16141e-10
2.72834e-09
0.00108232
-2.51493e-07
1.23033e-06
2.50303e-07
8.84378e-07
-2.48424e-07
2.44629e-07
-8.84836e-07
-1.59009e-09
-0.0010832
2.52455e-09
-1.19963e-06
2.50562e-07
-2.51427e-07
-8.84465e-07
2.45145e-07
8.84733e-07
-2.48017e-07
1.23039e-06
0.00108232
-1.44795e-09
-0.00108232
2.58849e-09
-1.22784e-06
2.50385e-07
-2.51317e-07
-8.84459e-07
2.45034e-07
-2.47941e-07
8.84668e-07
-2.25611e-07
-2.32978e-07
0.000264226
-1.19684e-06
0.000266196
-0.000264226
2.27925e-07
2.35293e-07
-1.10035e-09
2.81761e-09
0.00108337
-2.48964e-07
1.19679e-06
2.47691e-07
8.84726e-07
-2.51077e-07
2.47627e-07
-8.84803e-07
-1.67598e-09
-0.00108285
2.44916e-09
-1.19425e-06
2.47798e-07
-2.48665e-07
-8.84255e-07
2.47818e-07
8.84638e-07
-2.50601e-07
1.19693e-06
0.00108337
-1.69077e-09
-0.00108337
2.54436e-09
-1.19439e-06
2.47829e-07
-2.48754e-07
-8.84536e-07
2.47918e-07
-2.50683e-07
8.84898e-07
-0.000264239
2.30233e-07
2.35528e-07
1.23583e-06
1.19705e-06
-2.25212e-07
-2.35484e-07
0.000264245
-1.23833e-06
-1.19957e-06
0.000266217
-0.000264245
2.27707e-07
2.38015e-07
2.65049e-09
0.00108241
-2.5683e-07
1.23836e-06
2.55824e-07
8.87305e-07
-2.45223e-07
-8.87061e-07
2.42361e-07
-1.24128e-06
-1.49847e-09
2.69008e-09
0.00108285
-2.59618e-07
1.24383e-06
2.58641e-07
8.92931e-07
-2.50732e-07
-8.92732e-07
2.47865e-07
0.00108241
-1.40771e-09
-0.00108241
2.7474e-09
-1.23586e-06
2.55785e-07
-2.56874e-07
-8.87093e-07
2.42343e-07
-2.45241e-07
8.87281e-07
1.2438e-06
0.00108285
-1.4126e-09
-0.00108285
2.73931e-09
-1.24131e-06
2.58596e-07
-2.59661e-07
-8.92746e-07
2.47842e-07
-2.50746e-07
8.92915e-07
-2.27953e-07
-2.32752e-07
0.000264263
-1.2022e-06
0.000266243
-0.000264263
2.30493e-07
2.35301e-07
2.5148e-09
0.00108347
-2.51481e-07
1.19959e-06
2.50562e-07
8.8752e-07
-2.50691e-07
-8.87144e-07
2.47928e-07
-1.23325e-06
-1.51947e-09
2.66514e-09
0.00108253
-2.56893e-07
1.23576e-06
2.55875e-07
8.87368e-07
-2.50648e-07
-8.87137e-07
2.47835e-07
0.00108347
-1.59709e-09
-0.00108347
2.56258e-09
-1.19708e-06
2.50532e-07
-2.51517e-07
-8.87168e-07
2.47907e-07
-2.50707e-07
8.87497e-07
1.23574e-06
0.00108253
-1.41831e-09
-0.00108253
2.73128e-09
-1.23328e-06
2.5584e-07
-2.56931e-07
-8.87166e-07
2.4781e-07
-2.50669e-07
8.87342e-07
-1.46656e-09
2.64752e-09
0.00108232
-2.51342e-07
1.23037e-06
2.50358e-07
8.84669e-07
-2.47903e-07
2.45053e-07
-8.84448e-07
-1.59136e-09
-0.0010832
2.57898e-09
-1.19967e-06
2.50499e-07
-2.51481e-07
-8.84454e-07
2.45164e-07
8.84732e-07
-2.47961e-07
1.23034e-06
0.00108232
-1.41978e-09
-0.00108232
2.74091e-09
-1.2279e-06
2.50321e-07
-2.51387e-07
-8.8447e-07
2.45038e-07
-2.4791e-07
8.84649e-07
-2.25362e-07
-2.32745e-07
0.000264226
-1.19679e-06
0.000266196
-0.000264226
2.27877e-07
2.35251e-07
-1.66116e-09
2.5575e-09
0.00108337
-2.4876e-07
1.19692e-06
2.47817e-07
8.84888e-07
-2.50671e-07
2.47918e-07
-8.84542e-07
-1.56819e-09
-0.00108285
2.56698e-09
-1.1943e-06
2.47739e-07
-2.48726e-07
-8.84283e-07
2.478e-07
8.84609e-07
-2.50605e-07
1.1969e-06
0.00108337
-1.55666e-09
-0.00108337
2.59016e-09
-1.19442e-06
2.47791e-07
-2.4879e-07
-8.84571e-07
2.47893e-07
-2.50694e-07
8.84862e-07
-0.000264239
2.30195e-07
2.35481e-07
1.23587e-06
1.19709e-06
-2.25251e-07
-2.35524e-07
0.000264245
-1.23833e-06
-1.19957e-06
0.000266217
-0.000264245
2.27707e-07
2.38011e-07
2.75987e-09
0.00108241
-2.56878e-07
1.23833e-06
2.55784e-07
8.87282e-07
-2.4525e-07
-8.87092e-07
2.42342e-07
-1.24132e-06
-1.39959e-09
2.74743e-09
0.00108285
-2.59668e-07
1.24379e-06
2.58592e-07
8.92913e-07
-2.50751e-07
-8.92749e-07
2.47839e-07
0.00108241
-1.39054e-09
-0.00108241
2.75944e-09
-1.23587e-06
2.55781e-07
-2.5688e-07
-8.87101e-07
2.42346e-07
-2.45253e-07
8.87277e-07
1.24379e-06
0.00108285
-1.38471e-09
-0.00108285
2.76364e-09
-1.24132e-06
2.58586e-07
-2.59675e-07
-8.92751e-07
2.47835e-07
-2.50751e-07
8.92909e-07
-2.27999e-07
-2.32798e-07
0.000264263
-1.20219e-06
0.000266243
-0.000264263
2.30487e-07
2.35293e-07
2.5726e-09
0.00108347
-2.51521e-07
1.19957e-06
2.5053e-07
8.8749e-07
-2.50715e-07
-8.87177e-07
2.47899e-07
-1.23328e-06
-1.40217e-09
2.7428e-09
0.00108253
-2.56934e-07
1.23574e-06
2.55839e-07
8.87338e-07
-2.50675e-07
-8.87171e-07
2.47806e-07
0.00108347
-1.57167e-09
-0.00108347
2.56855e-09
-1.19709e-06
2.5053e-07
-2.51522e-07
-8.87174e-07
2.47899e-07
-2.50712e-07
8.8749e-07
1.23573e-06
0.00108253
-1.39034e-09
-0.00108253
2.74514e-09
-1.23328e-06
2.55836e-07
-2.56937e-07
-8.87174e-07
2.47804e-07
-2.50676e-07
8.87335e-07
-1.40232e-09
2.74859e-09
0.00108232
-2.51389e-07
1.23034e-06
2.50318e-07
8.84645e-07
-2.47914e-07
2.45035e-07
-8.84475e-07
-1.55903e-09
-0.0010832
2.60342e-09
-1.19968e-06
2.50491e-07
-2.51494e-07
-8.84464e-07
2.45156e-07
8.84724e-07
-2.47971e-07
1.23034e-06
0.00108232
-1.40061e-09
-0.00108232
2.74882e-09
-1.2279e-06
2.50318e-07
-2.51391e-07
-8.84478e-07
2.45032e-07
-2.47917e-07
8.84642e-07
-2.25404e-07
-2.32781e-07
0.000264226
-1.19679e-06
0.000266196
-0.000264226
2.27873e-07
2.35248e-07
-1.54388e-09
2.60099e-09
0.00108337
-2.48792e-07
1.1969e-06
2.47789e-07
8.8486e-07
-2.50697e-07
2.47891e-07
-8.84575e-07
-1.54666e-09
-0.00108285
2.58446e-09
-1.19431e-06
2.47734e-07
-2.48733e-07
-8.8429e-07
2.47798e-07
8.84606e-07
-2.50611e-07
1.1969e-06
0.00108337
-1.53699e-09
-0.00108337
2.59716e-09
-1.19442e-06
2.47787e-07
-2.48795e-07
-8.84577e-07
2.47888e-07
-2.50699e-07
8.84857e-07
-0.000264239
2.30191e-07
2.35479e-07
1.23587e-06
1.19709e-06
-2.25254e-07
-2.35525e-07
0.000264245
-1.23833e-06
-1.19957e-06
0.000266217
-0.000264245
2.27716e-07
2.3801e-07
2.75987e-09
0.00108241
-2.5688e-07
1.23833e-06
2.55782e-07
8.87282e-07
-2.45259e-07
-8.87095e-07
2.42348e-07
-1.24132e-06
-1.38537e-09
2.7602e-09
0.00108285
-2.59674e-07
1.24379e-06
2.58588e-07
8.9291e-07
-2.50751e-07
-8.9275e-07
2.47835e-07
0.00108241
-1.39383e-09
-0.00108241
2.74704e-09
-1.23586e-06
2.55786e-07
-2.56875e-07
-8.87097e-07
2.42363e-07
-2.45253e-07
8.87287e-07
1.24379e-06
0.00108285
-1.36039e-09
-0.00108285
2.7794e-09
-1.24132e-06
2.58587e-07
-2.59676e-07
-8.92753e-07
2.47826e-07
-2.50754e-07
8.92904e-07
-2.28002e-07
-2.32803e-07
0.000264263
-1.20219e-06
0.000266243
-0.000264263
2.30481e-07
2.35293e-07
2.57136e-09
0.00108347
-2.51522e-07
1.19957e-06
2.50531e-07
8.87487e-07
-2.50715e-07
-8.87177e-07
2.47895e-07
-1.23328e-06
-1.38977e-09
2.7488e-09
0.00108253
-2.56936e-07
1.23573e-06
2.55838e-07
8.87336e-07
-2.50678e-07
-8.87174e-07
2.47804e-07
0.00108347
-1.56333e-09
-0.00108347
2.55888e-09
-1.19709e-06
2.50534e-07
-2.51519e-07
-8.87173e-07
2.47894e-07
-2.50711e-07
8.87486e-07
1.23573e-06
0.00108253
-1.37901e-09
-0.00108253
2.75083e-09
-1.23328e-06
2.55833e-07
-2.56939e-07
-8.87175e-07
2.47802e-07
-2.50678e-07
8.87334e-07
-1.39085e-09
2.7494e-09
0.00108232
-2.5139e-07
1.23034e-06
2.50317e-07
8.84642e-07
-2.47917e-07
2.45032e-07
-8.84478e-07
-1.55302e-09
-0.0010832
2.61173e-09
-1.19969e-06
2.50488e-07
-2.51497e-07
-8.84464e-07
2.45155e-07
8.84723e-07
-2.47972e-07
1.23034e-06
0.00108232
-1.36808e-09
-0.00108232
2.75076e-09
-1.2279e-06
2.50313e-07
-2.51395e-07
-8.84483e-07
2.45027e-07
-2.47922e-07
8.84637e-07
-2.25406e-07
-2.32782e-07
0.000264226
-1.19679e-06
0.000266196
-0.000264226
2.27874e-07
2.35247e-07
-1.53282e-09
2.60248e-09
0.00108337
-2.48794e-07
1.1969e-06
2.47787e-07
8.84858e-07
-2.50699e-07
2.47889e-07
-8.84576e-07
-1.53484e-09
-0.00108285
2.58011e-09
-1.1943e-06
2.47736e-07
-2.48732e-07
-8.84296e-07
2.47795e-07
8.84604e-07
-2.50618e-07
1.1969e-06
0.00108337
-1.49749e-09
-0.00108337
2.59847e-09
-1.19442e-06
2.47794e-07
-2.48791e-07
-8.84577e-07
2.4789e-07
-2.50701e-07
8.8486e-07
-0.000264239
2.30195e-07
2.35476e-07