/*--------------------------------*- C++ -*----------------------------------*\
| =========                 |                                                 |
| \\      /  F ield         | OpenFOAM: The Open Source CFD Toolbox           |
|  \\    /   O peration     | Version:  2206                                  |
|   \\  /    A nd           | Website:  www.openfoam.com                      |
|    \\/     M anipulation  |                                                 |
\*---------------------------------------------------------------------------*/
FoamFile
{
    version     2.0;
    format      ascii;
    arch        "LSB;label=32;scalar=64";
    class       volScalarField;
    location    "19.5";
    object      p;
}
// * * * * * * * * * * * * * * * * * * * * * * * * * * * * * * * * * * * * * //

dimensions      [0 2 -2 0 0 0 0];

internalField   nonuniform List<scalar> 
28673
(
0.000532998
0.000535599
0.000488758
0.000488728
0.000488727
0.000491328
0.00044449
0.00044446
0.00044446
0.00044706
0.000400223
0.000400193
0.000400193
0.000402793
0.000355947
0.000355916
0.000355918
0.000358516
0.00031167
0.000311639
0.000311639
0.000314239
0.000267397
0.000267367
0.000267367
0.000269967
0.000223124
0.000223096
0.000223096
0.000225694
0.000178842
0.000178809
0.000178809
0.000181401
0.000134578
0.000134557
0.000134556
0.000137135
9.02875e-05
9.02417e-05
9.02403e-05
9.27844e-05
4.6688e-05
4.6121e-05
4.6118e-05
4.85292e-05
1.03994e-05
1.07248e-05
1.07231e-05
1.03082e-05
0.000544067
0.000541472
0.000544067
0.0004972
0.000532999
0.000532998
0.000499795
0.000499795
0.000535598
0.000497201
0.000499795
0.000499795
0.000532999
0.000499795
0.000499795
0.0004972
0.000532999
0.000499795
0.000499795
0.0004972
0.000491328
0.000452933
0.000488728
0.000488728
0.000455527
0.000455527
0.000491328
0.000452933
0.000488727
0.000488727
0.000455527
0.000455527
0.000488728
0.000455527
0.000455527
0.000491327
0.000452932
0.000488727
0.000455527
0.000455527
0.000452933
0.00044706
0.000408666
0.00044446
0.00044446
0.000411261
0.000411261
0.00044706
0.000408667
0.00044446
0.00044446
0.00041126
0.00041126
0.00044446
0.000411261
0.000411261
0.00044706
0.000408666
0.00044446
0.00041126
0.000411261
0.000408666
0.000402793
0.000364392
0.000400193
0.000400193
0.000366988
0.000366987
0.000402794
0.00036439
0.000400193
0.000400193
0.000366988
0.000366988
0.000400193
0.000366986
0.000366988
0.000402793
0.000364393
0.000400193
0.000366988
0.000366988
0.000364391
0.000358517
0.000320112
0.000355917
0.000355916
0.000322707
0.000322707
0.000358515
0.000320113
0.000355918
0.000355919
0.000322707
0.000322707
0.000355917
0.000322707
0.000322707
0.000358519
0.000320111
0.000355917
0.000322707
0.000322707
0.000320112
0.000314239
0.00027584
0.000311639
0.000311639
0.000278435
0.000278435
0.000314239
0.000275841
0.000311639
0.000311639
0.000278435
0.000278435
0.000311639
0.000278435
0.000278435
0.000314239
0.00027584
0.000311639
0.000278435
0.000278435
0.00027584
0.000269967
0.000231568
0.000267367
0.000267367
0.000234163
0.000234163
0.000269967
0.000231568
0.000267367
0.000267367
0.000234163
0.000234163
0.000267367
0.000234163
0.000234163
0.000269967
0.000231567
0.000267367
0.000234163
0.000234163
0.000231568
0.000225694
0.000187289
0.000223096
0.000223096
0.000189885
0.000189885
0.000225694
0.000187289
0.000223096
0.000223096
0.000189885
0.000189885
0.000223096
0.000189885
0.000189885
0.000225694
0.000187289
0.000223096
0.000189885
0.000189885
0.000187289
0.000181402
0.000143023
0.000178809
0.000178809
0.000145604
0.000145604
0.000181401
0.000143023
0.000178809
0.000178809
0.000145604
0.000145604
0.000178809
0.000145604
0.000145604
0.000181402
0.000143022
0.000178809
0.000145603
0.000145604
0.000143022
0.000137136
9.87528e-05
0.000134557
0.000134556
0.000101327
0.000101327
0.000137136
9.87534e-05
0.000134556
0.000134557
0.000101326
0.000101326
0.000134556
0.000101327
0.000101326
0.000137135
9.87514e-05
0.000134556
0.000101325
0.000101326
9.87515e-05
9.27858e-05
5.45161e-05
9.02422e-05
9.02424e-05
5.71032e-05
5.7104e-05
9.27855e-05
5.45173e-05
9.0241e-05
9.02404e-05
5.71011e-05
5.71005e-05
9.02415e-05
5.71024e-05
5.71004e-05
9.27848e-05
5.45137e-05
9.02404e-05
5.70999e-05
5.70993e-05
5.45131e-05
4.8533e-05
1.41929e-05
4.61227e-05
4.6123e-05
1.64538e-05
1.64531e-05
4.85334e-05
1.41926e-05
4.61213e-05
4.61199e-05
1.6452e-05
1.64484e-05
4.61192e-05
1.64504e-05
1.64465e-05
4.85298e-05
1.41886e-05
4.61173e-05
1.64487e-05
1.6448e-05
1.41872e-05
1.03121e-05
1.07263e-05
1.07265e-05
1.0313e-05
1.07248e-05
1.07225e-05
1.0399e-05
1.03973e-05
1.03968e-05
1.07214e-05
1.03095e-05
1.0722e-05
0.00051919
0.000535764
0.000535765
0.00051919
0.000535765
0.00051919
0.00051919
0.000519191
0.000533029
0.000533029
0.000499825
0.000499825
0.000499825
0.000499825
0.000519245
0.000535732
0.000533006
0.00052193
0.000535716
0.000519221
0.000521938
0.000519189
0.000519246
0.000533006
0.000521931
0.000535716
0.000521938
0.000519221
0.000535769
0.000535769
0.000519335
0.000519186
0.000519186
0.000474922
0.000491494
0.000491495
0.000474921
0.000491495
0.000474921
0.000474921
0.000491493
0.000491495
0.000474922
0.000488758
0.000488758
0.000488758
0.000455557
0.000455557
0.000455557
0.000455557
0.000474977
0.000491462
0.000488736
0.000477661
0.000491445
0.000474952
0.000477669
0.000491494
0.000474921
0.000474977
0.000488735
0.000491462
0.00047766
0.000491445
0.000477668
0.000474952
0.000491498
0.000491498
0.000475067
0.000474917
0.000474917
0.000430655
0.000447226
0.000447227
0.000430655
0.000447227
0.000430654
0.000430654
0.000447226
0.000447227
0.000430654
0.000444491
0.00044449
0.00044449
0.00041129
0.000411291
0.00041129
0.00041129
0.00043071
0.000447195
0.000444468
0.000433393
0.000447177
0.000430685
0.000433401
0.000447227
0.000430652
0.000430709
0.000444468
0.000447194
0.000433393
0.000447177
0.0004334
0.000430684
0.00044723
0.00044723
0.000430799
0.000430651
0.000430651
0.00038639
0.00040296
0.000402961
0.000386391
0.000402965
0.00038639
0.000386388
0.000402959
0.000402961
0.00038639
0.000400224
0.000400223
0.000400223
0.000367017
0.000367017
0.000367018
0.000367017
0.000386443
0.000402931
0.000400201
0.000389125
0.000402911
0.000386421
0.000389132
0.000402959
0.000386388
0.000386443
0.0004002
0.000402927
0.000389125
0.00040291
0.000389132
0.000386419
0.000402964
0.000402964
0.000386532
0.000386389
0.000386389
0.000342106
0.000358683
0.000358688
0.000342105
0.000358682
0.000342104
0.00034211
0.000358686
0.000358692
0.000342107
0.000355946
0.000355948
0.000355947
0.000322738
0.000322738
0.000322738
0.000322738
0.000342159
0.000358651
0.000355924
0.000344845
0.000358633
0.000342136
0.000344853
0.000358688
0.000342105
0.00034216
0.000355925
0.000358656
0.000344847
0.000358634
0.000344854
0.000342138
0.000358688
0.000358689
0.000342249
0.000342101
0.000342101
0.000297833
0.000314405
0.000314407
0.000297832
0.000314406
0.000297832
0.000297832
0.000314405
0.000314406
0.000297832
0.00031167
0.00031167
0.000311669
0.000278465
0.000278465
0.000278465
0.000278465
0.000297887
0.000314374
0.000311647
0.000300571
0.000314356
0.000297863
0.000300579
0.000314406
0.000297831
0.000297887
0.000311647
0.000314373
0.000300571
0.000314356
0.000300578
0.000297862
0.00031441
0.00031441
0.000297976
0.000297828
0.000297828
0.00025356
0.000270133
0.000270135
0.00025356
0.000270134
0.000253559
0.00025356
0.000270133
0.000270135
0.00025356
0.000267397
0.000267397
0.000267397
0.000234191
0.000234191
0.000234191
0.000234191
0.000253614
0.000270102
0.000267375
0.000256299
0.000270084
0.00025359
0.000256306
0.000270134
0.000253559
0.000253614
0.000267375
0.000270102
0.000256299
0.000270084
0.000256306
0.00025359
0.000270138
0.000270138
0.000253704
0.000253556
0.000253556
0.000209287
0.000225859
0.000225859
0.000209282
0.000225861
0.000209279
0.000209286
0.000225859
0.000225859
0.000209282
0.000223124
0.000223124
0.000223123
0.000189908
0.000189908
0.000189907
0.000189907
0.000209341
0.000225826
0.000223102
0.000212027
0.000225809
0.000209321
0.000212032
0.000225861
0.000209279
0.000209341
0.000223102
0.000225826
0.000212027
0.000225809
0.000212032
0.000209321
0.000225863
0.000225863
0.00020943
0.00020928
0.00020928
0.000165033
0.000181568
0.000181565
0.000165025
0.000181586
0.000165001
0.000165032
0.000181571
0.000181564
0.000165025
0.000178842
0.000178842
0.000178842
0.00014563
0.00014563
0.00014563
0.00014563
0.000165075
0.00018151
0.000178817
0.00016773
0.000181513
0.000165082
0.000167735
0.000181586
0.000165
0.000165075
0.000178817
0.000181509
0.00016773
0.000181513
0.000167735
0.000165081
0.000181572
0.000181573
0.000165147
0.000165022
0.000165023
0.000120676
0.000137316
0.000137331
0.000120705
0.000137355
0.000120609
0.000120675
0.000137316
0.000137331
0.000120704
0.000134577
0.000134577
0.000134578
0.000101336
0.000101336
0.000101336
0.000101335
0.000120769
0.000137273
0.00013457
0.000123504
0.000137291
0.000120741
0.000123489
0.000137354
0.000120607
0.000120768
0.00013457
0.000137273
0.000123503
0.000137291
0.000123488
0.00012074
0.00013729
0.00013729
0.000120894
0.000120715
0.000120715
7.63805e-05
9.29518e-05
9.29712e-05
7.64337e-05
9.31609e-05
7.62388e-05
7.63789e-05
9.29507e-05
9.29701e-05
7.64321e-05
9.0286e-05
9.02866e-05
9.02862e-05
5.73267e-05
5.73274e-05
5.73248e-05
5.73248e-05
7.64709e-05
9.28765e-05
9.02761e-05
7.91892e-05
9.29436e-05
7.65051e-05
7.92037e-05
9.31561e-05
7.62425e-05
7.64698e-05
9.02744e-05
9.28761e-05
7.91872e-05
9.29426e-05
7.92024e-05
7.65025e-05
9.29378e-05
9.29367e-05
7.66075e-05
7.64811e-05
7.64811e-05
3.12229e-05
4.82062e-05
4.83958e-05
3.04931e-05
4.86464e-05
2.98577e-05
3.12098e-05
4.81982e-05
4.83896e-05
3.04878e-05
4.66881e-05
4.66852e-05
4.66849e-05
1.79651e-05
1.79641e-05
1.79616e-05
1.79612e-05
3.18646e-05
4.82243e-05
4.63937e-05
3.54783e-05
4.84824e-05
3.10753e-05
3.58863e-05
4.86303e-05
2.98654e-05
3.18647e-05
4.63907e-05
4.82226e-05
3.54755e-05
4.84822e-05
3.58837e-05
3.10775e-05
4.81538e-05
4.8153e-05
3.28002e-05
3.07366e-05
3.07339e-05
6.41502e-06
7.66009e-06
7.52797e-06
3.87348e-07
4.85282e-06
-2.55983e-06
6.43213e-06
7.64138e-06
7.51424e-06
3.94474e-07
3.047e-06
1.07702e-05
1.07686e-05
3.47135e-06
1.10352e-05
3.14007e-06
3.13962e-06
5.41581e-06
7.70485e-06
1.01631e-05
3.64779e-06
9.25013e-06
4.72841e-06
3.28737e-06
4.81834e-06
-2.55248e-06
5.42142e-06
1.01629e-05
7.70117e-06
3.64746e-06
9.25059e-06
3.28801e-06
4.74076e-06
4.14256e-06
4.13985e-06
3.68343e-06
3.99436e-06
4.01023e-06
0.000541327
0.000541357
0.000541325
0.000541323
0.000541323
0.000541325
0.000541357
0.000541327
0.000535764
0.00051919
0.00051919
0.000535769
0.000519336
0.000519186
0.000519187
0.000497055
0.000513629
0.000497054
0.000513629
0.000513462
0.000497051
0.000497051
0.000513632
0.000513632
0.00051919
0.000535764
0.000535765
0.00051919
0.000519246
0.000535733
0.000533006
0.000521931
0.000535716
0.000519221
0.000521938
0.000519245
0.000535732
0.000533006
0.00052193
0.000535716
0.000519221
0.000521938
0.000513629
0.000497055
0.000513627
0.000497056
0.000513629
0.000497056
0.000513627
0.000497056
0.000513579
0.000510862
0.000497086
0.000499803
0.000513596
0.00051087
0.000497111
0.000513579
0.000510862
0.000497086
0.000499803
0.000513596
0.00051087
0.000497111
0.000535768
0.000535767
0.000519335
0.000519186
0.000519186
0.000535765
0.000519189
0.000497055
0.000513629
0.000513462
0.000497052
0.000497052
0.000513632
0.000513632
0.000497055
0.000513629
0.000519246
0.000521931
0.000519221
0.000521938
0.00051919
0.000519191
0.000519246
0.000521931
0.000521938
0.000519221
0.000513629
0.000497055
0.000513628
0.000497055
0.000513579
0.000510862
0.000497086
0.000499803
0.000513596
0.00051087
0.00049711
0.000513629
0.000497055
0.000513628
0.000497055
0.000513579
0.000510863
0.000499803
0.000497086
0.00051087
0.000513596
0.00049711
0.00051919
0.000535763
0.000535765
0.00051919
0.000519246
0.000533006
0.000535733
0.00052193
0.000535716
0.000521938
0.00051922
0.00051919
0.000535764
0.000535765
0.00051919
0.000513579
0.000510862
0.000497086
0.000499803
0.000513596
0.00051087
0.000497111
0.000513629
0.000497056
0.000513627
0.000497056
0.000513579
0.000510862
0.000499803
0.000497086
0.00051087
0.000513596
0.000497111
0.000513629
0.000497055
0.000513627
0.000497056
0.000519336
0.000519187
0.000519187
0.000519189
0.000497054
0.00051363
0.000513463
0.000497051
0.000497051
0.000513632
0.000513632
0.000497055
0.000513629
0.000519246
0.000533006
0.000535733
0.00052193
0.000535716
0.000521938
0.00051922
0.00051919
0.000535765
0.00051919
0.00051919
0.000535764
0.000535765
0.00051919
0.000513579
0.000510863
0.000499802
0.000497086
0.00051087
0.000513596
0.000497111
0.000513579
0.000510862
0.000499803
0.000497086
0.00051087
0.000513596
0.000497111
0.000513628
0.000497055
0.000513627
0.000497056
0.000513628
0.000497055
0.000513627
0.000497056
0.000535764
0.00051919
0.000535764
0.00051919
0.000513462
0.000497051
0.000497051
0.000513632
0.000513632
0.000497055
0.000513629
0.000497055
0.000513629
0.000491495
0.00047492
0.000491494
0.000474921
0.000491498
0.000491498
0.000475066
0.000474917
0.000474918
0.000452787
0.00046936
0.000452787
0.00046936
0.000469194
0.000452784
0.000452784
0.000469363
0.000469364
0.000474922
0.000491493
0.000491495
0.000474922
0.000474977
0.000491462
0.000488735
0.000477661
0.000491445
0.000474952
0.000477669
0.000474977
0.000491462
0.000488736
0.000477661
0.000491445
0.000474952
0.000477669
0.00046936
0.000452788
0.000469359
0.000452788
0.000469361
0.000452788
0.000469359
0.000452788
0.000469311
0.000466594
0.000452818
0.000455535
0.000469328
0.000466602
0.000452843
0.000469311
0.000466594
0.000452818
0.000455535
0.000469328
0.000466602
0.000452843
0.000491498
0.000491498
0.000475067
0.000474918
0.000474918
0.000491495
0.000474921
0.000452787
0.000469361
0.000469194
0.000452784
0.000452784
0.000469364
0.000469364
0.000452787
0.000469361
0.000474977
0.000491462
0.000488735
0.00047766
0.000491444
0.000474952
0.000477668
0.000474921
0.000491493
0.000491495
0.000474922
0.000474976
0.000488735
0.000491461
0.00047766
0.000491444
0.000477668
0.000474952
0.000469361
0.000452788
0.000469359
0.000452787
0.00046931
0.000466594
0.000452818
0.000455535
0.000469328
0.000466602
0.000452843
0.000469361
0.000452787
0.000469359
0.000452787
0.00046931
0.000466594
0.000455535
0.000452818
0.000466602
0.000469328
0.000452842
0.000474922
0.000491493
0.000491495
0.000474922
0.000474977
0.000488735
0.000491462
0.000477661
0.000491445
0.000477669
0.000474952
0.000474922
0.000491494
0.000491495
0.000474921
0.000469311
0.000466594
0.000452819
0.000455535
0.000469328
0.000466602
0.000452843
0.000469361
0.000452788
0.000469359
0.000452788
0.000469311
0.000466594
0.000455535
0.000452818
0.000466602
0.000469328
0.000452843
0.000469361
0.000452788
0.000469359
0.000452788
0.000491497
0.000491498
0.000475066
0.000474918
0.000474918
0.000491494
0.000474921
0.000452786
0.000469361
0.000469194
0.000452783
0.000452784
0.000469364
0.000469364
0.000452787
0.00046936
0.000474977
0.000488735
0.000491462
0.000477661
0.000491445
0.000477669
0.000474952
0.000474922
0.000491493
0.000491494
0.000474921
0.000474922
0.000491494
0.000491494
0.000474921
0.00046931
0.000466594
0.000455535
0.000452818
0.000466601
0.000469328
0.000452843
0.00046931
0.000466594
0.000455535
0.000452818
0.000466602
0.000469328
0.000452843
0.00046936
0.000452788
0.000469359
0.000452788
0.00046936
0.000452788
0.000469359
0.000452788
0.000491495
0.000474921
0.000491495
0.00047492
0.000469194
0.000452784
0.000452784
0.000469363
0.000469363
0.000452788
0.00046936
0.000452788
0.00046936
0.000447227
0.000430655
0.000447227
0.000430653
0.00044723
0.00044723
0.000430799
0.000430651
0.00043065
0.00040852
0.000425095
0.00040852
0.000425094
0.000424927
0.000408516
0.000408517
0.000425098
0.000425097
0.000430655
0.000447226
0.000447227
0.000430655
0.000430709
0.000447194
0.000444468
0.000433393
0.000447177
0.000430685
0.000433401
0.00043071
0.000447195
0.000444468
0.000433393
0.000447177
0.000430685
0.000433401
0.000425094
0.000408521
0.000425093
0.000408522
0.000425094
0.000408524
0.000425092
0.000408522
0.000425044
0.000422327
0.000408552
0.000411268
0.000425061
0.000422334
0.000408576
0.000425044
0.000422328
0.000408554
0.000411268
0.000425061
0.000422334
0.000408577
0.00044723
0.00044723
0.0004308
0.000430651
0.000430651
0.000447228
0.000430654
0.000408524
0.000425094
0.000424928
0.00040852
0.00040852
0.000425097
0.000425097
0.000408523
0.000425094
0.000430709
0.000447194
0.000444467
0.000433393
0.000447176
0.000430685
0.000433401
0.000430654
0.000447226
0.000447227
0.000430654
0.000430709
0.000444467
0.000447194
0.000433393
0.000447177
0.000433401
0.000430684
0.000425093
0.000408521
0.000425092
0.000408521
0.000425043
0.000422326
0.000408551
0.000411267
0.000425061
0.000422334
0.000408576
0.000425093
0.000408521
0.000425092
0.000408521
0.000425043
0.000422325
0.000411267
0.000408551
0.000422334
0.00042506
0.000408575
0.000430655
0.000447226
0.000447228
0.000430655
0.00043071
0.000444468
0.000447195
0.000433393
0.000447177
0.000433401
0.000430685
0.000430655
0.000447226
0.000447228
0.000430655
0.000425044
0.000422328
0.000408554
0.000411268
0.000425061
0.000422335
0.000408577
0.000425094
0.000408524
0.000425092
0.000408523
0.000425044
0.000422327
0.000411268
0.000408552
0.000422335
0.000425062
0.000408577
0.000425094
0.000408522
0.000425093
0.000408522
0.00044723
0.000447231
0.000430798
0.000430649
0.000430649
0.000447227
0.000430653
0.00040852
0.000425093
0.000424926
0.000408517
0.000408517
0.000425096
0.000425097
0.00040852
0.000425094
0.000430709
0.000444468
0.000447194
0.000433393
0.000447177
0.000433401
0.000430685
0.000430655
0.000447226
0.000447227
0.000430654
0.000430655
0.000447226
0.000447227
0.000430655
0.000425043
0.000422326
0.000411268
0.000408551
0.000422334
0.000425061
0.000408576
0.000425043
0.000422327
0.000411268
0.000408552
0.000422334
0.000425061
0.000408576
0.000425094
0.000408521
0.000425092
0.000408522
0.000425094
0.000408521
0.000425093
0.000408522
0.000447227
0.000430655
0.000447227
0.000430655
0.000424927
0.000408517
0.000408516
0.000425098
0.000425098
0.00040852
0.000425095
0.00040852
0.000425095
0.000402961
0.000386392
0.00040296
0.000386389
0.000402964
0.000402963
0.000386531
0.000386388
0.000386386
0.000364247
0.00038083
0.000364251
0.00038083
0.000380658
0.000364246
0.000364249
0.000380835
0.000380833
0.00038639
0.000402964
0.000402962
0.000386391
0.000386443
0.000402929
0.0004002
0.000389125
0.000402911
0.00038642
0.000389132
0.000386443
0.000402931
0.000400201
0.000389125
0.000402911
0.000386421
0.000389132
0.00038083
0.000364249
0.000380828
0.000364252
0.000380829
0.000364246
0.000380826
0.000364252
0.000380776
0.000378057
0.000364281
0.000366995
0.000380796
0.000378064
0.000364302
0.000380776
0.000378057
0.000364278
0.000366994
0.000380796
0.000378064
0.000364302
0.000402968
0.000402968
0.000386532
0.000386388
0.000386388
0.000402966
0.000386389
0.000364244
0.000380826
0.000380657
0.000364243
0.000364243
0.000380832
0.000380832
0.000364244
0.000380827
0.000386442
0.000402928
0.0004002
0.000389125
0.000402909
0.000386419
0.000389133
0.000386388
0.000402958
0.00040296
0.000386389
0.000386442
0.0004002
0.000402927
0.000389125
0.00040291
0.000389133
0.000386419
0.000380827
0.000364251
0.000380828
0.000364255
0.000380776
0.000378057
0.000364282
0.000366995
0.000380795
0.000378064
0.000364305
0.000380827
0.000364253
0.000380828
0.000364255
0.000380776
0.000378057
0.000366995
0.000364283
0.000378064
0.000380795
0.000364305
0.00038639
0.000402964
0.000402962
0.000386391
0.000386443
0.000400201
0.000402929
0.000389125
0.000402911
0.000389133
0.00038642
0.00038639
0.000402961
0.000402962
0.000386391
0.000380776
0.000378057
0.000364278
0.000366994
0.000380795
0.000378064
0.000364302
0.000380829
0.000364246
0.000380826
0.000364252
0.000380776
0.000378057
0.000366994
0.00036428
0.000378064
0.000380796
0.000364302
0.000380829
0.000364248
0.000380828
0.000364252
0.000402962
0.000402963
0.000386531
0.000386385
0.000386386
0.000402959
0.000386389
0.000364252
0.00038083
0.000380658
0.000364251
0.000364249
0.000380833
0.000380834
0.000364251
0.00038083
0.000386443
0.0004002
0.000402929
0.000389125
0.00040291
0.000389132
0.00038642
0.00038639
0.000402959
0.000402961
0.000386389
0.00038639
0.00040296
0.000402961
0.000386391
0.000380776
0.000378057
0.000366995
0.000364282
0.000378064
0.000380795
0.000364303
0.000380776
0.000378057
0.000366995
0.00036428
0.000378064
0.000380796
0.000364303
0.00038083
0.000364252
0.000380828
0.000364254
0.000380829
0.000364249
0.000380828
0.000364253
0.000402961
0.000386392
0.000402961
0.000386392
0.000380658
0.000364245
0.000364245
0.000380834
0.000380835
0.000364246
0.00038083
0.000364247
0.00038083
0.000358683
0.000342104
0.000358686
0.000342105
0.000358689
0.000358692
0.00034225
0.000342102
0.000342103
0.000319967
0.000336543
0.000319967
0.000336543
0.000336376
0.000319964
0.000319963
0.000336547
0.000336547
0.000342106
0.000358682
0.000358688
0.000342105
0.000342159
0.000358654
0.000355924
0.000344846
0.000358633
0.000342136
0.000344853
0.000342159
0.000358652
0.000355924
0.000344845
0.000358633
0.000342136
0.000344853
0.000336543
0.000319968
0.000336542
0.000319968
0.000336543
0.000319968
0.000336542
0.000319968
0.000336492
0.000333776
0.000319998
0.000322715
0.000336511
0.000333784
0.000320022
0.000336492
0.000333776
0.000319998
0.000322715
0.000336511
0.000333784
0.000320022
0.000358687
0.000358687
0.00034225
0.000342101
0.000342101
0.000358682
0.000342104
0.000319967
0.000336543
0.000336376
0.000319964
0.000319964
0.000336546
0.000336546
0.000319967
0.000336543
0.000342161
0.000358655
0.000355925
0.000344847
0.000358637
0.000342139
0.000344855
0.00034211
0.000358688
0.000358692
0.000342107
0.000342161
0.000355925
0.000358657
0.000344848
0.000358637
0.000344855
0.000342139
0.000336546
0.000319968
0.000336543
0.000319968
0.000336493
0.000333777
0.000319998
0.000322715
0.000336512
0.000333784
0.000320022
0.000336546
0.000319967
0.000336543
0.000319968
0.000336493
0.000333777
0.000322715
0.000319998
0.000333784
0.000336513
0.000320022
0.000342106
0.000358681
0.000358688
0.000342105
0.000342159
0.000355924
0.000358653
0.000344846
0.000358633
0.000344853
0.000342136
0.000342106
0.000358683
0.000358688
0.000342105
0.000336492
0.000333776
0.000319999
0.000322715
0.00033651
0.000333784
0.000320022
0.000336543
0.000319968
0.000336542
0.000319968
0.000336492
0.000333776
0.000322715
0.000319998
0.000333784
0.000336511
0.000320022
0.000336543
0.000319968
0.000336541
0.000319968
0.000358693
0.000358692
0.00034225
0.000342104
0.000342102
0.000358687
0.000342104
0.000319966
0.000336543
0.000336377
0.000319963
0.000319963
0.000336547
0.000336547
0.000319966
0.000336542
0.00034216
0.000355924
0.000358654
0.000344846
0.000358634
0.000344854
0.000342136
0.000342107
0.000358687
0.000358689
0.000342106
0.000342107
0.000358683
0.000358689
0.000342105
0.000336492
0.000333777
0.000322715
0.000319998
0.000333784
0.000336512
0.000320022
0.000336492
0.000333776
0.000322715
0.000319998
0.000333784
0.000336511
0.000320022
0.000336544
0.000319967
0.000336542
0.000319968
0.000336544
0.000319968
0.000336542
0.000319968
0.000358683
0.000342104
0.000358683
0.000342104
0.000336376
0.000319963
0.000319963
0.000336546
0.000336546
0.000319967
0.000336542
0.000319967
0.000336543
0.000314406
0.000297831
0.000314406
0.000297831
0.00031441
0.000314409
0.000297976
0.000297828
0.000297828
0.000275695
0.00029227
0.000275695
0.00029227
0.000292103
0.000275692
0.000275692
0.000292274
0.000292274
0.000297833
0.000314405
0.000314407
0.000297832
0.000297887
0.000314374
0.000311647
0.000300571
0.000314356
0.000297862
0.000300579
0.000297887
0.000314374
0.000311647
0.000300571
0.000314356
0.000297863
0.000300579
0.000292271
0.000275696
0.000292269
0.000275697
0.000292271
0.000275696
0.00029227
0.000275697
0.00029222
0.000289503
0.000275727
0.000278442
0.000292238
0.000289511
0.000275751
0.00029222
0.000289503
0.000275727
0.000278443
0.000292238
0.000289511
0.000275751
0.00031441
0.00031441
0.000297977
0.000297829
0.000297829
0.000314407
0.000297831
0.000275695
0.000292271
0.000292103
0.000275692
0.000275693
0.000292274
0.000292274
0.000275695
0.000292271
0.000297886
0.000314373
0.000311647
0.000300571
0.000314355
0.000297862
0.000300578
0.000297832
0.000314404
0.000314406
0.000297832
0.000297886
0.000311646
0.000314373
0.000300571
0.000314355
0.000300578
0.000297862
0.000292271
0.000275696
0.000292269
0.000275696
0.00029222
0.000289503
0.000275727
0.000278442
0.000292238
0.00028951
0.00027575
0.000292271
0.000275696
0.000292269
0.000275696
0.00029222
0.000289503
0.000278442
0.000275726
0.00028951
0.000292238
0.00027575
0.000297833
0.000314405
0.000314407
0.000297833
0.000297887
0.000311647
0.000314374
0.000300571
0.000314356
0.000300579
0.000297863
0.000297833
0.000314405
0.000314407
0.000297832
0.00029222
0.000289503
0.000275727
0.000278443
0.000292238
0.000289511
0.000275751
0.000292271
0.000275696
0.00029227
0.000275697
0.00029222
0.000289503
0.000278443
0.000275727
0.000289511
0.000292238
0.000275751
0.000292271
0.000275696
0.00029227
0.000275697
0.000314409
0.000314409
0.000297976
0.000297828
0.000297828
0.000314406
0.000297831
0.000275695
0.00029227
0.000292103
0.000275692
0.000275692
0.000292273
0.000292274
0.000275695
0.00029227
0.000297887
0.000311647
0.000314374
0.000300571
0.000314356
0.000300579
0.000297863
0.000297832
0.000314405
0.000314406
0.000297832
0.000297833
0.000314405
0.000314406
0.000297832
0.00029222
0.000289503
0.000278442
0.000275726
0.000289511
0.000292238
0.000275751
0.00029222
0.000289503
0.000278443
0.000275727
0.000289511
0.000292238
0.000275751
0.000292271
0.000275696
0.000292269
0.000275697
0.000292271
0.000275696
0.00029227
0.000275697
0.000314406
0.000297831
0.000314406
0.000297831
0.000292103
0.000275692
0.000275692
0.000292274
0.000292274
0.000275695
0.000292271
0.000275695
0.000292271
0.000270134
0.000253559
0.000270134
0.000253559
0.000270138
0.000270138
0.000253704
0.000253556
0.000253556
0.000231421
0.000247997
0.000231421
0.000247998
0.000247831
0.000231419
0.000231419
0.000248001
0.000248001
0.00025356
0.000270133
0.000270135
0.00025356
0.000253614
0.000270102
0.000267375
0.000256299
0.000270084
0.00025359
0.000256306
0.000253614
0.000270102
0.000267375
0.000256299
0.000270084
0.00025359
0.000256306
0.000247998
0.000231422
0.000247996
0.000231424
0.000247998
0.000231422
0.000247996
0.000231424
0.000247947
0.000245231
0.000231454
0.000234169
0.000247965
0.000245238
0.000231478
0.000247947
0.000245231
0.000231454
0.000234169
0.000247965
0.000245239
0.000231478
0.000270138
0.000270138
0.000253704
0.000253556
0.000253556
0.000270135
0.000253559
0.000231421
0.000247998
0.000247831
0.000231419
0.000231419
0.000248001
0.000248001
0.000231421
0.000247998
0.000253614
0.000270102
0.000267374
0.000256299
0.000270084
0.00025359
0.000256306
0.00025356
0.000270133
0.000270135
0.00025356
0.000253614
0.000267375
0.000270102
0.000256299
0.000270084
0.000256306
0.00025359
0.000247998
0.000231422
0.000247996
0.000231424
0.000247947
0.000245231
0.000231454
0.000234169
0.000247965
0.000245238
0.000231478
0.000247998
0.000231422
0.000247996
0.000231424
0.000247947
0.000245231
0.000234169
0.000231454
0.000245238
0.000247965
0.000231478
0.00025356
0.000270133
0.000270135
0.00025356
0.000253614
0.000267375
0.000270102
0.000256299
0.000270084
0.000256306
0.00025359
0.00025356
0.000270133
0.000270135
0.00025356
0.000247947
0.000245231
0.000231454
0.000234169
0.000247965
0.000245239
0.000231478
0.000247998
0.000231422
0.000247996
0.000231424
0.000247947
0.000245231
0.000234169
0.000231454
0.000245239
0.000247965
0.000231478
0.000247998
0.000231422
0.000247996
0.000231424
0.000270137
0.000270138
0.000253704
0.000253556
0.000253556
0.000270134
0.000253559
0.000231421
0.000247998
0.000247831
0.000231419
0.000231419
0.000248001
0.000248001
0.000231421
0.000247998
0.000253614
0.000267375
0.000270102
0.000256299
0.000270084
0.000256306
0.00025359
0.00025356
0.000270133
0.000270135
0.00025356
0.00025356
0.000270133
0.000270135
0.00025356
0.000247947
0.000245231
0.000234169
0.000231454
0.000245238
0.000247965
0.000231478
0.000247947
0.000245231
0.000234169
0.000231454
0.000245239
0.000247965
0.000231478
0.000247998
0.000231422
0.000247996
0.000231424
0.000247997
0.000231422
0.000247996
0.000231424
0.000270134
0.000253559
0.000270134
0.000253559
0.000247831
0.000231419
0.000231419
0.000248001
0.000248001
0.000231421
0.000247997
0.000231421
0.000247998
0.000225861
0.000209279
0.000225861
0.000209279
0.000225863
0.000225863
0.00020943
0.00020928
0.00020928
0.000187131
0.000203725
0.000187132
0.000203725
0.000203553
0.000187142
0.000187143
0.000203723
0.000203723
0.000209287
0.000225859
0.000225859
0.000209282
0.000209341
0.000225826
0.000223102
0.000212027
0.000225809
0.000209321
0.000212032
0.000209341
0.000225826
0.000223102
0.000212027
0.000225809
0.000209321
0.000212032
0.000203717
0.000187144
0.000203721
0.000187151
0.000203717
0.000187144
0.000203721
0.00018715
0.000203667
0.000200958
0.000187201
0.000189889
0.000203678
0.000200964
0.000187206
0.000203666
0.000200958
0.000187201
0.000189889
0.000203678
0.000200964
0.000187206
0.000225863
0.000225863
0.00020943
0.00020928
0.00020928
0.000225861
0.000209279
0.000187131
0.000203725
0.000203553
0.000187142
0.000187142
0.000203723
0.000203723
0.000187131
0.000203725
0.000209341
0.000225826
0.000223102
0.000212027
0.000225809
0.000209321
0.000212032
0.000209286
0.000225859
0.000225859
0.000209282
0.000209341
0.000223102
0.000225826
0.000212027
0.000225809
0.000212032
0.000209321
0.000203717
0.000187144
0.000203721
0.00018715
0.000203666
0.000200958
0.000187201
0.000189889
0.000203677
0.000200964
0.000187205
0.000203717
0.000187143
0.00020372
0.00018715
0.000203666
0.000200958
0.000189889
0.000187199
0.000200964
0.000203678
0.000187205
0.000209287
0.000225859
0.000225859
0.000209282
0.000209341
0.000223102
0.000225826
0.000212027
0.000225809
0.000212032
0.000209321
0.000209287
0.000225859
0.000225859
0.000209282
0.000203666