/*--------------------------------*- C++ -*----------------------------------*\
| =========                 |                                                 |
| \\      /  F ield         | OpenFOAM: The Open Source CFD Toolbox           |
|  \\    /   O peration     | Version:  2206                                  |
|   \\  /    A nd           | Website:  www.openfoam.com                      |
|    \\/     M anipulation  |                                                 |
\*---------------------------------------------------------------------------*/
FoamFile
{
    version     2.0;
    format      ascii;
    arch        "LSB;label=32;scalar=64";
    class       volScalarField;
    location    "30";
    object      k;
}
// * * * * * * * * * * * * * * * * * * * * * * * * * * * * * * * * * * * * * //

dimensions      [0 2 -2 0 0 0 0];

internalField   nonuniform List<scalar> 
28673
(
2.52294e-05
2.46044e-05
2.5824e-05
2.52296e-05
2.52293e-05
2.46077e-05
2.5824e-05
2.52296e-05
2.52293e-05
2.46078e-05
2.5824e-05
2.52297e-05
2.52294e-05
2.4608e-05
2.5824e-05
2.52297e-05
2.52295e-05
2.46082e-05
2.58238e-05
2.52296e-05
2.52294e-05
2.46084e-05
2.58235e-05
2.52287e-05
2.5229e-05
2.46072e-05
2.58187e-05
2.52224e-05
2.52237e-05
2.46012e-05
2.58164e-05
2.52213e-05
2.52212e-05
2.45991e-05
2.58164e-05
2.52214e-05
2.52212e-05
2.45991e-05
2.58165e-05
2.52215e-05
2.52213e-05
2.45991e-05
2.58166e-05
2.52216e-05
2.52215e-05
2.45995e-05
2.58382e-05
2.52655e-05
2.52655e-05
2.46878e-05
2.5229e-05
2.46119e-05
2.52294e-05
2.46118e-05
2.52291e-05
2.5229e-05
2.52291e-05
2.5229e-05
2.4608e-05
2.4612e-05
2.52294e-05
2.52286e-05
2.52291e-05
2.52296e-05
2.5229e-05
2.46115e-05
2.52294e-05
2.52293e-05
2.52293e-05
2.46119e-05
2.46079e-05
2.46122e-05
2.52292e-05
2.52292e-05
2.52292e-05
2.52291e-05
2.46081e-05
2.46122e-05
2.52295e-05
2.52287e-05
2.52295e-05
2.52287e-05
2.52291e-05
2.52296e-05
2.5229e-05
2.46077e-05
2.46117e-05
2.52294e-05
2.52293e-05
2.52294e-05
2.4612e-05
2.46083e-05
2.46124e-05
2.52293e-05
2.52292e-05
2.52293e-05
2.52292e-05
2.46083e-05
2.46123e-05
2.52297e-05
2.52289e-05
2.52296e-05
2.52288e-05
2.52292e-05
2.52297e-05
2.52291e-05
2.46078e-05
2.46118e-05
2.52295e-05
2.52294e-05
2.52294e-05
2.46121e-05
2.46086e-05
2.46127e-05
2.52295e-05
2.52294e-05
2.52295e-05
2.52294e-05
2.46085e-05
2.46126e-05
2.52298e-05
2.5229e-05
2.52298e-05
2.52289e-05
2.52292e-05
2.52297e-05
2.52292e-05
2.4608e-05
2.46121e-05
2.52295e-05
2.52295e-05
2.52295e-05
2.46123e-05
2.46088e-05
2.4613e-05
2.52296e-05
2.52296e-05
2.52296e-05
2.52295e-05
2.46087e-05
2.46128e-05
2.523e-05
2.52291e-05
2.523e-05
2.52291e-05
2.52294e-05
2.52296e-05
2.52293e-05
2.46083e-05
2.46124e-05
2.52297e-05
2.52295e-05
2.52297e-05
2.46126e-05
2.46091e-05
2.46126e-05
2.52296e-05
2.52294e-05
2.52291e-05
2.52288e-05
2.46089e-05
2.46116e-05
2.523e-05
2.52291e-05
2.52297e-05
2.52288e-05
2.52293e-05
2.52292e-05
2.52288e-05
2.46085e-05
2.46121e-05
2.52297e-05
2.52292e-05
2.52292e-05
2.46119e-05
2.46083e-05
2.46076e-05
2.52288e-05
2.52282e-05
2.52245e-05
2.52231e-05
2.46071e-05
2.46055e-05
2.52295e-05
2.52286e-05
2.52258e-05
2.52254e-05
2.52285e-05
2.52237e-05
2.52239e-05
2.4608e-05
2.4608e-05
2.52288e-05
2.52255e-05
2.52243e-05
2.46065e-05
2.46024e-05
2.46033e-05
2.52229e-05
2.5222e-05
2.52209e-05
2.52208e-05
2.46008e-05
2.46032e-05
2.52241e-05
2.52235e-05
2.52214e-05
2.52206e-05
2.52225e-05
2.52213e-05
2.52209e-05
2.46028e-05
2.46031e-05
2.52229e-05
2.52212e-05
2.52212e-05
2.46033e-05
2.45994e-05
2.46033e-05
2.5221e-05
2.52209e-05
2.5221e-05
2.52209e-05
2.45993e-05
2.46033e-05
2.52214e-05
2.52206e-05
2.52213e-05
2.52206e-05
2.5221e-05
2.52214e-05
2.5221e-05
2.45991e-05
2.4603e-05
2.52213e-05
2.52212e-05
2.52213e-05
2.46032e-05
2.45995e-05
2.46031e-05
2.52212e-05
2.52211e-05
2.5221e-05
2.52209e-05
2.45994e-05
2.46032e-05
2.52215e-05
2.52208e-05
2.52214e-05
2.52206e-05
2.52212e-05
2.52215e-05
2.5221e-05
2.45991e-05
2.46028e-05
2.52215e-05
2.52213e-05
2.52213e-05
2.46032e-05
2.45993e-05
2.46036e-05
2.52211e-05
2.5221e-05
2.52215e-05
2.52215e-05
2.45993e-05
2.46035e-05
2.52215e-05
2.52208e-05
2.52219e-05
2.52212e-05
2.52211e-05
2.5222e-05
2.52215e-05
2.45989e-05
2.46032e-05
2.52215e-05
2.52218e-05
2.52219e-05
2.46036e-05
2.45998e-05
2.46398e-05
2.52213e-05
2.52212e-05
2.52552e-05
2.52552e-05
2.45997e-05
2.46397e-05
2.52216e-05
2.52209e-05
2.52555e-05
2.5255e-05
2.52213e-05
2.52555e-05
2.52552e-05
2.45994e-05
2.46395e-05
2.52216e-05
2.52554e-05
2.52555e-05
2.46397e-05
2.46879e-05
2.52654e-05
2.52653e-05
2.46878e-05
2.52656e-05
2.52652e-05
2.58382e-05
2.58382e-05
2.58382e-05
2.52654e-05
2.46876e-05
2.52656e-05
2.82734e-05
6.99634e-05
2.82747e-05
6.99607e-05
7.8518e-05
7.85144e-05
2.8274e-05
6.99629e-05
2.58242e-05
2.58239e-05
2.5824e-05
2.58241e-05
2.58239e-05
2.58239e-05
2.36975e-05
2.78377e-05
2.5566e-05
2.52296e-05
2.36975e-05
2.78342e-05
2.5566e-05
7.8514e-05
2.36967e-05
2.55658e-05
2.52294e-05
2.36968e-05
2.55658e-05
2.78335e-05
3.49038e-05
3.4906e-05
2.46119e-05
3.49028e-05
3.49049e-05
2.82761e-05
6.99623e-05
2.82778e-05
6.99599e-05
7.85114e-05
7.851e-05
2.82772e-05
6.99645e-05
2.82784e-05
6.99624e-05
2.58241e-05
2.58239e-05
2.58239e-05
2.5824e-05
2.58239e-05
2.58238e-05
2.58238e-05
2.36983e-05
2.78401e-05
2.55659e-05
2.52297e-05
2.36983e-05
2.78361e-05
2.5566e-05
7.85105e-05
7.85079e-05
2.36975e-05
2.55657e-05
2.78398e-05
2.52294e-05
2.36975e-05
2.55657e-05
2.78363e-05
3.49076e-05
3.49097e-05
2.46119e-05
3.4906e-05
3.49082e-05
2.82778e-05
6.9961e-05
2.82798e-05
6.99588e-05
7.85096e-05
7.85093e-05
2.8279e-05
6.99637e-05
2.82807e-05
6.99613e-05
2.58241e-05
2.58238e-05
2.58238e-05
2.5824e-05
2.5824e-05
2.58237e-05
2.58236e-05
2.36988e-05
2.78416e-05
2.55659e-05
2.52297e-05
2.36989e-05
2.78374e-05
2.5566e-05
7.85066e-05
7.85053e-05
2.36981e-05
2.55657e-05
2.78417e-05
2.52294e-05
2.36981e-05
2.55658e-05
2.78377e-05
3.49086e-05
3.49109e-05
2.46121e-05
3.49069e-05
3.49091e-05
2.82786e-05
6.99604e-05
2.82809e-05
6.99584e-05
7.85095e-05
7.85097e-05
2.82796e-05
6.9963e-05
2.82818e-05
6.99609e-05
2.5824e-05
2.58239e-05
2.58237e-05
2.5824e-05
2.58238e-05
2.58238e-05
2.58237e-05
2.36992e-05
2.78425e-05
2.55659e-05
2.52298e-05
2.36993e-05
2.78382e-05
2.5566e-05
7.85055e-05
7.85049e-05
2.36984e-05
2.55657e-05
2.78426e-05
2.52296e-05
2.36985e-05
2.55658e-05
2.78386e-05
3.49106e-05
3.49129e-05
2.46123e-05
3.49094e-05
3.49118e-05
2.82792e-05
6.99603e-05
2.82815e-05
6.99586e-05
7.85107e-05
7.85111e-05
2.82803e-05
6.9963e-05
2.82821e-05
6.99612e-05
2.58239e-05
2.58238e-05
2.58239e-05
2.58238e-05
2.58237e-05
2.58236e-05
2.58238e-05
2.36996e-05
2.78431e-05
2.55659e-05
2.52297e-05
2.36996e-05
2.78386e-05
2.5566e-05
7.85061e-05
7.85062e-05
2.36988e-05
2.55658e-05
2.78433e-05
2.52295e-05
2.36988e-05
2.55658e-05
2.78391e-05
3.49131e-05
3.49155e-05
2.46125e-05
3.49115e-05
3.49139e-05
2.8279e-05
6.99608e-05
2.8282e-05
6.99605e-05
7.85128e-05
7.85135e-05
2.82807e-05
6.99636e-05
2.8283e-05
6.9963e-05
2.58237e-05
2.58236e-05
2.58237e-05
2.58236e-05
2.58234e-05
2.58234e-05
2.58234e-05
2.36995e-05
2.78432e-05
2.55659e-05
2.52296e-05
2.37e-05
2.78384e-05
2.55658e-05
7.85077e-05
7.85089e-05
2.36987e-05
2.55656e-05
2.78434e-05
2.52294e-05
2.36992e-05
2.55656e-05
2.78388e-05
3.49138e-05
3.49162e-05
2.46125e-05
3.49112e-05
3.49137e-05
2.82766e-05
6.99641e-05
2.82807e-05
6.99673e-05
7.85123e-05
7.85171e-05
2.82789e-05
6.99663e-05
2.82822e-05
6.99697e-05
2.58232e-05
2.58233e-05
2.58231e-05
2.58203e-05
2.5819e-05
2.58205e-05
2.58193e-05
2.3696e-05
2.78413e-05
2.55652e-05
2.52274e-05
2.36979e-05
2.78335e-05
2.55643e-05
7.85097e-05
7.85152e-05
2.36955e-05
2.55652e-05
2.78418e-05
2.52286e-05
2.36973e-05
2.55647e-05
2.7835e-05
3.49134e-05
3.49158e-05
2.461e-05
3.49102e-05
3.49125e-05
2.82713e-05
6.99664e-05
2.82765e-05
6.99699e-05
7.85091e-05
7.85201e-05
2.82737e-05
6.99696e-05
2.8279e-05
6.99732e-05
2.58178e-05
2.58189e-05
2.5818e-05
2.58165e-05
2.58165e-05
2.58165e-05
2.58165e-05
2.3689e-05
2.78361e-05
2.55595e-05
2.52218e-05
2.36902e-05
2.78262e-05
2.55587e-05
7.85075e-05
7.85178e-05
2.36881e-05
2.55599e-05
2.7838e-05
2.52225e-05
2.36898e-05
2.5559e-05
2.7828e-05
3.49118e-05
3.4914e-05
2.4604e-05
3.4905e-05
3.49072e-05
2.82713e-05
6.9963e-05
2.82757e-05
6.99754e-05
7.85055e-05
7.85206e-05
2.82729e-05
6.99664e-05
2.82771e-05
6.99787e-05
2.58166e-05
2.58165e-05
2.58166e-05
2.58165e-05
2.58165e-05
2.58164e-05
2.58165e-05
2.3689e-05
2.78338e-05
2.55581e-05
2.52215e-05
2.36896e-05
2.78212e-05
2.55582e-05
7.85045e-05
7.85202e-05
2.36881e-05
2.5558e-05
2.78346e-05
2.52213e-05
2.36886e-05
2.55581e-05
2.7822e-05
3.49095e-05
3.49117e-05
2.46033e-05
3.49057e-05
3.49078e-05
2.8272e-05
6.99647e-05
2.82748e-05
6.99865e-05
7.84876e-05
7.8508e-05
2.82733e-05
6.99681e-05
2.82759e-05
6.99905e-05
2.58166e-05
2.58165e-05
2.58166e-05
2.58165e-05
2.58165e-05
2.58164e-05
2.58165e-05
2.36887e-05
2.78316e-05
2.55582e-05
2.52215e-05
2.369e-05
2.78147e-05
2.55583e-05
7.84883e-05
7.85088e-05
2.36879e-05
2.5558e-05
2.78323e-05
2.52213e-05
2.36891e-05
2.55582e-05
2.78161e-05
3.49116e-05
3.49136e-05
2.46032e-05
3.49103e-05
3.49122e-05
2.82762e-05
6.99509e-05
2.82764e-05
6.99865e-05
7.84466e-05
7.84729e-05
2.82774e-05
6.99547e-05
2.82774e-05
6.99903e-05
2.58166e-05
2.58165e-05
2.58166e-05
2.58167e-05
2.58168e-05
2.58167e-05
2.58167e-05
2.36881e-05
2.7842e-05
2.55583e-05
2.52216e-05
2.36908e-05
2.78184e-05
2.55583e-05
7.84483e-05
7.84737e-05
2.36875e-05
2.55582e-05
2.78436e-05
2.52215e-05
2.36902e-05
2.55582e-05
2.782e-05
3.49098e-05
3.49113e-05
2.46032e-05
3.49113e-05
3.49128e-05
2.82824e-05
6.99092e-05
2.82757e-05
6.99672e-05
7.83567e-05
7.83811e-05
2.8284e-05
6.9913e-05
2.82769e-05
6.99708e-05
2.58168e-05
2.58167e-05
2.58167e-05
2.5823e-05
2.58231e-05
2.5823e-05
2.5823e-05
2.36862e-05
2.78698e-05
2.55592e-05
2.52255e-05
2.3692e-05
2.78024e-05
2.55583e-05
7.83571e-05
7.83811e-05
2.36857e-05
2.55591e-05
2.78709e-05
2.52253e-05
2.36914e-05
2.55582e-05
2.7803e-05
3.48937e-05
3.48952e-05
2.46087e-05
3.48876e-05
3.48891e-05
2.57284e-05
6.79847e-05
2.8174e-05
5.86635e-05
7.4062e-05
4.83327e-05
2.57295e-05
6.79924e-05
2.8176e-05
5.86715e-05
2.60633e-05
2.59822e-05
2.59823e-05
2.57711e-05
2.60595e-05
2.59622e-05
2.59622e-05
2.3719e-05
2.75676e-05
2.55966e-05
2.53076e-05
2.37121e-05
3.02686e-05
2.56621e-05
7.40614e-05
4.83309e-05
2.37186e-05
2.55965e-05
2.75674e-05
2.53076e-05
2.37116e-05
2.56621e-05
3.02672e-05
3.51021e-05
3.51035e-05
2.47962e-05
3.35023e-05
3.35001e-05
6.99644e-05
2.78347e-05
7.85187e-05
3.49033e-05
3.48958e-05
7.85145e-05
2.78327e-05
6.99613e-05
7.85201e-05
7.85165e-05
7.85178e-05
3.49038e-05
2.46092e-05
3.49026e-05
3.49027e-05
7.85132e-05
7.8516e-05
7.85136e-05
7.85172e-05
2.46062e-05
3.49047e-05
3.49054e-05
3.49051e-05
3.49055e-05
2.82738e-05
6.99661e-05
2.82751e-05
6.99638e-05
2.36975e-05
2.78374e-05
2.55659e-05
2.5229e-05
2.36976e-05
2.78341e-05
2.55659e-05
2.36977e-05
2.78396e-05
2.5566e-05
2.5229e-05
2.36977e-05
2.78362e-05
2.5566e-05
2.82765e-05
6.99604e-05
6.99625e-05
2.82749e-05
2.82769e-05
6.99634e-05
6.99656e-05
2.82754e-05
2.36981e-05
2.52291e-05
2.78354e-05
2.55658e-05
2.78389e-05
2.55659e-05
2.3698e-05
2.36982e-05
2.5229e-05
2.78373e-05
2.55659e-05
2.7841e-05
2.55659e-05
2.36982e-05
3.49063e-05
3.4899e-05
2.46119e-05
3.49062e-05
3.48985e-05
7.85147e-05
7.85108e-05
7.85116e-05
7.8514e-05
2.4608e-05
3.49078e-05
3.48999e-05
3.49087e-05
3.49012e-05
7.85083e-05
7.85111e-05
2.3698e-05
2.52294e-05
2.78347e-05
2.55659e-05
2.82735e-05
6.996e-05
2.36977e-05
2.52286e-05
2.55657e-05
2.78332e-05
2.82769e-05
6.99625e-05
6.99648e-05
2.82758e-05
2.36985e-05
2.52294e-05
2.7836e-05
2.55658e-05
2.78394e-05
2.55659e-05
2.36984e-05
2.82764e-05
6.99591e-05
6.99618e-05
2.82753e-05
2.36983e-05
2.52286e-05
2.55657e-05
2.78347e-05
2.55657e-05
2.78384e-05
2.36981e-05
2.82737e-05
6.99632e-05
2.8275e-05
6.99607e-05
2.36975e-05
2.55659e-05
2.78372e-05
2.52291e-05
2.36976e-05
2.55659e-05
2.78339e-05
2.82736e-05
6.99649e-05
2.82748e-05
6.99623e-05
2.36982e-05
2.52296e-05
2.78353e-05
2.55659e-05
2.78392e-05
2.5566e-05
2.36981e-05
2.82768e-05
6.99603e-05
6.99627e-05
2.82752e-05
2.36981e-05
2.5229e-05
2.55658e-05
2.78352e-05
2.55658e-05
2.78388e-05
2.3698e-05
2.82766e-05
6.99619e-05
6.9964e-05
2.82751e-05
2.46116e-05
3.4898e-05
3.49011e-05
7.85187e-05
7.85103e-05
7.85141e-05
2.46076e-05
3.49007e-05
3.49037e-05
3.49011e-05
3.49038e-05
7.85145e-05
7.85181e-05
2.36966e-05
2.55658e-05
2.7838e-05
2.52294e-05
2.36967e-05
2.55658e-05
2.78346e-05
2.82725e-05
2.82741e-05
6.99625e-05
2.82724e-05
6.99673e-05
2.8274e-05
6.99647e-05
2.36973e-05
2.52294e-05
2.55657e-05
2.78351e-05
2.55658e-05
2.78384e-05
2.36973e-05
2.36972e-05
2.52293e-05
2.55657e-05
2.78359e-05
2.55658e-05
2.78395e-05
2.36971e-05
2.82758e-05
6.9962e-05
6.99643e-05
2.8274e-05
2.82757e-05
6.99644e-05
6.99665e-05
2.82738e-05
7.85197e-05
7.85162e-05
7.85191e-05
7.85156e-05
2.4608e-05
3.49049e-05
3.49071e-05
3.49054e-05
3.49075e-05
7.85128e-05
7.85157e-05
7.85122e-05
7.85151e-05
7.8513e-05
7.85112e-05
7.85133e-05
7.85108e-05
3.4907e-05
3.49078e-05
2.4612e-05
3.49058e-05
3.49071e-05
7.85102e-05
7.85113e-05
7.85095e-05
7.85109e-05
2.46082e-05
3.49062e-05
3.49076e-05
3.49079e-05
3.49092e-05
2.82765e-05
6.99651e-05
2.82783e-05
6.99625e-05
2.36983e-05
2.78402e-05
2.55659e-05
2.52292e-05
2.36986e-05
2.78364e-05
2.55659e-05
2.36984e-05
2.78421e-05
2.55659e-05
2.52292e-05
2.36987e-05
2.78381e-05
2.55659e-05
2.8279e-05
6.99592e-05
6.99616e-05
2.82771e-05
2.82794e-05
6.99618e-05
6.99642e-05
2.82775e-05
2.36988e-05
2.52292e-05
2.78371e-05
2.55659e-05
2.78411e-05
2.55659e-05
2.36986e-05
2.3699e-05
2.52291e-05
2.78387e-05
2.55658e-05
2.78428e-05
2.55658e-05
2.36988e-05
3.49101e-05
3.49024e-05
2.46121e-05
3.49086e-05
3.4901e-05
7.85087e-05
7.85067e-05
7.85096e-05
7.85103e-05
2.46082e-05
3.49095e-05
3.49022e-05
3.49109e-05
3.49036e-05
7.85057e-05
7.85071e-05
2.36987e-05
2.78407e-05
2.55659e-05
2.52296e-05
2.3699e-05
2.78371e-05
2.55659e-05
2.82767e-05
6.99611e-05
2.82781e-05
6.99587e-05
2.36984e-05
2.55658e-05
2.78398e-05
2.52287e-05
2.36986e-05
2.55658e-05
2.78359e-05
2.82798e-05
6.99618e-05
6.99643e-05
2.82783e-05
2.36992e-05
2.52295e-05
2.78379e-05
2.55659e-05
2.78417e-05
2.55659e-05
2.3699e-05
2.82794e-05
6.99581e-05
6.99607e-05
2.82778e-05
2.36989e-05
2.52287e-05
2.55657e-05
2.78368e-05
2.55657e-05
2.78409e-05
2.36988e-05
2.82764e-05
6.99622e-05
2.82782e-05
6.99594e-05
2.36983e-05
2.55659e-05
2.784e-05
2.52291e-05
2.36986e-05
2.55659e-05
2.78362e-05
2.82763e-05
6.99637e-05
2.8278e-05
6.99613e-05
2.36989e-05
2.52297e-05
2.78368e-05
2.55659e-05
2.78411e-05
2.5566e-05
2.36987e-05
2.82793e-05
6.99587e-05
6.99613e-05
2.82774e-05
2.36988e-05
2.52291e-05
2.55658e-05
2.78368e-05
2.55659e-05
2.78409e-05
2.36986e-05
2.82792e-05
6.99605e-05
6.9963e-05
2.82772e-05
3.49034e-05
3.49062e-05
2.46116e-05
3.49021e-05
3.49055e-05
7.85141e-05
7.85117e-05
7.85062e-05
7.85082e-05
2.46078e-05
3.49031e-05
3.49061e-05
3.49046e-05
3.49077e-05
7.85103e-05
7.85117e-05
2.36975e-05
2.55657e-05
2.78407e-05
2.52294e-05
2.36977e-05
2.55657e-05
2.78369e-05
2.82752e-05
6.99639e-05
2.82773e-05
6.99619e-05
2.8275e-05
6.99662e-05
2.82771e-05
6.99639e-05
2.36981e-05
2.52294e-05
2.55657e-05
2.78372e-05
2.55657e-05
2.78411e-05
2.36979e-05
2.36981e-05
2.52294e-05
2.55656e-05
2.78376e-05
2.55657e-05
2.78416e-05
2.36978e-05
2.82784e-05
6.99612e-05
6.99637e-05
2.82761e-05
2.82782e-05
6.99631e-05
6.99656e-05
2.82759e-05
7.85126e-05
7.85109e-05
7.8512e-05
7.85103e-05
2.46081e-05
3.49063e-05
3.49085e-05
3.4908e-05
3.49102e-05
7.85098e-05
7.8511e-05
7.85092e-05
7.85104e-05
7.85105e-05
7.85097e-05
7.85097e-05
7.85087e-05
3.49082e-05
3.49096e-05
2.46123e-05
3.49068e-05
3.49079e-05
7.85096e-05
7.85101e-05
7.85084e-05
7.8509e-05
2.46085e-05
3.49081e-05
3.49088e-05
3.4909e-05
3.491e-05
2.82782e-05
6.99636e-05
2.82803e-05
6.99614e-05
2.36991e-05
2.78417e-05
2.5566e-05
2.52293e-05
2.36992e-05
2.78376e-05
2.5566e-05
2.36992e-05
2.78434e-05
2.55659e-05
2.52292e-05
2.36993e-05
2.78393e-05
2.55659e-05
2.82806e-05
6.99585e-05
6.99606e-05
2.82783e-05
2.82809e-05
6.99612e-05
6.99633e-05
2.82786e-05
2.36996e-05
2.52293e-05
2.78381e-05
2.5566e-05
2.78422e-05
2.5566e-05
2.36995e-05
2.36997e-05
2.52292e-05
2.78397e-05
2.55659e-05
2.78439e-05
2.55659e-05
2.36995e-05
3.49117e-05
3.49048e-05
2.46123e-05
3.49105e-05
3.49033e-05
7.85062e-05
7.85053e-05
7.85093e-05
7.85098e-05
2.46084e-05
3.49117e-05
3.49047e-05
3.49128e-05
3.49059e-05
7.85054e-05
7.8506e-05
2.36995e-05
2.78424e-05
2.5566e-05
2.52297e-05
2.36996e-05
2.78384e-05
2.5566e-05
2.82786e-05
6.996e-05
2.82804e-05
6.99575e-05
2.36991e-05
2.55658e-05
2.78418e-05
2.52289e-05
2.36993e-05
2.55658e-05
2.78375e-05
2.82816e-05
6.9961e-05
6.99632e-05
2.82795e-05
2.37e-05
2.52296e-05
2.78389e-05
2.55659e-05
2.78429e-05
2.55659e-05
2.36999e-05
2.82811e-05
6.99571e-05
6.99594e-05
2.8279e-05
2.36996e-05
2.52288e-05
2.55657e-05
2.78381e-05
2.55657e-05
2.78424e-05
2.36995e-05
2.8278e-05
6.99606e-05
2.82802e-05
6.99583e-05
2.3699e-05
2.55659e-05
2.78415e-05
2.52292e-05
2.36992e-05
2.55659e-05
2.78374e-05
2.82779e-05
6.99622e-05
2.828e-05
6.99599e-05
2.36994e-05
2.52297e-05
2.78378e-05
2.55659e-05
2.78422e-05
2.5566e-05
2.36992e-05
2.82808e-05
6.99581e-05
6.99603e-05
2.82784e-05
2.36996e-05
2.52291e-05
2.55658e-05
2.78378e-05
2.55658e-05
2.7842e-05
2.36993e-05
2.82807e-05
6.99597e-05
6.99618e-05
2.82783e-05
3.49056e-05
3.49081e-05
2.46118e-05
3.49044e-05
3.49065e-05
7.85105e-05
7.85095e-05
7.8505e-05
7.85059e-05
2.46079e-05
3.49058e-05
3.49075e-05
3.4907e-05
3.49087e-05
7.85092e-05
7.85099e-05
2.36981e-05
2.55657e-05
2.78422e-05
2.52295e-05
2.36983e-05
2.55657e-05
2.78381e-05
2.82768e-05
6.9963e-05
2.82792e-05
6.99606e-05
2.82766e-05
6.99648e-05
2.8279e-05
6.99625e-05
2.36987e-05
2.52294e-05
2.55657e-05
2.78382e-05
2.55657e-05
2.78423e-05
2.36984e-05
2.36987e-05
2.52294e-05
2.55656e-05
2.78385e-05
2.55657e-05
2.78427e-05
2.36984e-05
2.82798e-05
6.99602e-05
6.99624e-05
2.82772e-05
2.82797e-05
6.99622e-05
6.99643e-05
2.8277e-05
7.85101e-05
7.85094e-05
7.85095e-05
7.85087e-05
2.46082e-05
3.4908e-05
3.49103e-05
3.49091e-05
3.49113e-05
7.85092e-05
7.85098e-05
7.85086e-05
7.85092e-05
7.85101e-05
7.85098e-05
7.85089e-05
7.85085e-05
3.49104e-05
3.4911e-05
2.46126e-05
3.49096e-05
3.49102e-05
7.85104e-05
7.85104e-05
7.85089e-05
7.8509e-05
2.46087e-05
3.49109e-05
3.49116e-05
3.49119e-05
3.49124e-05
2.82788e-05
6.99631e-05
2.82813e-05
6.99612e-05
2.36997e-05
2.78427e-05
2.55662e-05
2.52295e-05
2.37e-05
2.78386e-05
2.55662e-05
2.36998e-05
2.78443e-05
2.55661e-05
2.52294e-05
2.37001e-05
2.78401e-05
2.55661e-05
2.82813e-05
6.99583e-05
6.99603e-05
2.82789e-05
2.82815e-05
6.99614e-05
6.99632e-05
2.82791e-05
2.37002e-05
2.52295e-05
2.78389e-05
2.55661e-05
2.78431e-05
2.55661e-05
2.36999e-05
2.37003e-05
2.52294e-05
2.78403e-05
2.5566e-05
2.78446e-05
2.55661e-05
2.37e-05
3.49141e-05
3.49073e-05
2.46125e-05
3.4913e-05
3.49062e-05
7.85062e-05
7.85059e-05
7.85104e-05
7.85103e-05
2.46086e-05
3.4914e-05
3.49072e-05
3.49153e-05
3.49088e-05
7.85066e-05
7.85067e-05
2.36999e-05
2.78434e-05
2.5566e-05
2.52298e-05
2.37003e-05
2.78394e-05
2.5566e-05
2.82792e-05
6.99591e-05
2.82815e-05
6.99568e-05
2.36997e-05
2.55658e-05
2.7843e-05
2.5229e-05
2.37e-05
2.55658e-05
2.78385e-05
2.8282e-05
6.9961e-05
6.99629e-05
2.82798e-05
2.37004e-05
2.52298e-05
2.78397e-05
2.5566e-05
2.78439e-05
2.5566e-05
2.37002e-05
2.82816e-05
6.99569e-05
6.99589e-05
2.82794e-05
2.37002e-05
2.5229e-05
2.55658e-05
2.78389e-05
2.55658e-05
2.78434e-05
2.36999e-05
2.82787e-05
6.99602e-05
2.82811e-05
6.99581e-05
2.36994e-05
2.55659e-05
2.78424e-05
2.52292e-05
2.36998e-05
2.55659e-05
2.78382e-05
2.82785e-05
6.99616e-05
2.8281e-05
6.99596e-05
2.36997e-05
2.52297e-05
2.78385e-05
2.55659e-05
2.7843e-05
2.55659e-05
2.36995e-05
2.82813e-05
6.99583e-05
6.99602e-05
2.82789e-05
2.36999e-05
2.52292e-05
2.55659e-05
2.78386e-05
2.55659e-05
2.78428e-05
2.36997e-05
2.82812e-05
6.99597e-05
6.99616e-05
2.82788e-05
3.49084e-05
3.49098e-05
2.4612e-05
3.49071e-05
3.49089e-05
7.85097e-05
7.85093e-05
7.85054e-05
7.85057e-05
2.46082e-05
3.49082e-05
3.49104e-05
3.49096e-05
3.49112e-05
7.85097e-05
7.85099e-05
2.36985e-05
2.55657e-05
2.78432e-05
2.52295e-05
2.3699e-05
2.55657e-05
2.7839e-05
2.82774e-05
6.99621e-05
2.82802e-05
6.996e-05
2.82773e-05
6.99641e-05
2.828e-05
6.99621e-05
2.36989e-05
2.52295e-05
2.55658e-05
2.78389e-05
2.55658e-05
2.78432e-05
2.36986e-05
2.3699e-05
2.52295e-05
2.55657e-05
2.78393e-05
2.55657e-05
2.78436e-05
2.36987e-05
2.82803e-05
6.99601e-05
6.9962e-05
2.82777e-05
2.82802e-05
6.99622e-05
6.9964e-05
2.82776e-05
7.85097e-05
7.85095e-05
7.85091e-05
7.85089e-05
2.46084e-05
3.49107e-05
3.49131e-05
3.49117e-05
3.49141e-05
7.851e-05
7.85101e-05
7.85094e-05
7.85094e-05
7.85111e-05
7.85112e-05
7.85095e-05
7.85096e-05
3.49131e-05
3.49138e-05
2.46128e-05
3.49118e-05
3.49127e-05
7.85122e-05
7.85119e-05
7.85104e-05
7.85102e-05
2.4609e-05
3.49119e-05
3.49134e-05
3.49138e-05
3.49148e-05
2.82795e-05
6.99634e-05
2.82819e-05
6.99617e-05
2.37003e-05
2.78434e-05
2.55662e-05
2.52296e-05
2.37005e-05
2.78392e-05
2.55661e-05
2.37003e-05
2.78449e-05
2.55661e-05
2.52296e-05
2.37005e-05
2.78405e-05
2.5566e-05
2.82819e-05
6.99589e-05
6.99605e-05
2.82794e-05
2.82822e-05
6.99626e-05
6.99637e-05
2.82798e-05
2.37008e-05
2.52296e-05
2.78392e-05
2.55659e-05
2.78437e-05
2.55661e-05
2.37002e-05
2.37009e-05
2.52296e-05
2.78406e-05
2.55659e-05
2.7845e-05
2.5566e-05
2.37004e-05
3.49163e-05
3.49097e-05
2.46127e-05
3.49146e-05
3.49077e-05
7.85076e-05
7.85074e-05
7.85125e-05
7.85118e-05
2.46089e-05
3.49145e-05
3.49075e-05
3.49167e-05
3.491e-05
7.85087e-05
7.85085e-05
2.37005e-05
2.78442e-05
2.55661e-05
2.523e-05
2.37007e-05
2.784e-05
2.55661e-05
2.82799e-05
6.9959e-05
2.82819e-05
6.99571e-05
2.37003e-05
2.55659e-05
2.78437e-05
2.52291e-05
2.37005e-05
2.55659e-05
2.78392e-05
2.82827e-05
6.99617e-05
6.99633e-05
2.82806e-05
2.37011e-05
2.52299e-05
2.78402e-05
2.55661e-05
2.78445e-05
2.55661e-05
2.37009e-05
2.82824e-05
6.99575e-05
6.99592e-05
2.82803e-05
2.37009e-05
2.52291e-05
2.55658e-05
2.78392e-05
2.55659e-05
2.7844e-05
2.37007e-05
2.82793e-05
6.99605e-05
2.82816e-05
6.99587e-05
2.37e-05
2.5566e-05
2.78431e-05
2.52294e-05
2.37002e-05
2.5566e-05
2.78388e-05
2.82792e-05
6.99616e-05
2.82816e-05
6.99599e-05
2.37002e-05
2.52297e-05
2.78387e-05
2.55659e-05
2.78434e-05
2.55659e-05
2.36999e-05
2.82819e-05
6.99596e-05
6.99608e-05
2.82796e-05
2.37006e-05
2.52293e-05
2.5566e-05
2.78388e-05
2.5566e-05
2.78433e-05
2.37001e-05
2.82819e-05
6.99603e-05
6.99619e-05
2.82795e-05
3.49106e-05
3.49126e-05
2.46122e-05
3.49089e-05
3.49114e-05
7.85104e-05
7.85105e-05
7.8507e-05
7.85071e-05
2.46084e-05
3.49094e-05
3.4912e-05
3.49113e-05
3.49135e-05
7.85113e-05
7.85112e-05
2.36991e-05
2.55658e-05
2.78439e-05
2.52297e-05
2.36993e-05
2.55658e-05
2.78395e-05
2.82781e-05
6.9962e-05
2.82807e-05
6.99602e-05
2.8278e-05
6.99642e-05
2.82806e-05
6.99625e-05
2.36994e-05
2.52295e-05
2.55657e-05
2.78392e-05
2.55657e-05
2.78437e-05
2.36991e-05
2.36997e-05
2.52297e-05
2.55657e-05
2.78396e-05
2.55658e-05
2.78441e-05
2.36992e-05
2.8281e-05
6.99605e-05
6.99622e-05
2.82784e-05
2.8281e-05
6.99629e-05
6.99645e-05
2.82783e-05
7.85107e-05
7.85108e-05
7.85101e-05
7.85102e-05
2.46086e-05
3.49117e-05
3.49141e-05
3.49136e-05
3.49159e-05
7.85118e-05
7.85115e-05
7.85112e-05
7.85108e-05
7.85128e-05
7.85141e-05
7.8511e-05
7.85123e-05
3.49137e-05
3.49154e-05
2.4613e-05
3.49114e-05
3.49134e-05
7.8516e-05
7.8514e-05
7.85154e-05
7.85123e-05
2.46091e-05
3.49111e-05
3.4913e-05
3.49134e-05
3.49153e-05
2.82794e-05
6.99647e-05
2.82825e-05
6.99648e-05
2.3699e-05
2.78437e-05
2.55659e-05
2.52295e-05
2.37004e-05
2.78389e-05
2.55658e-05
2.36993e-05
2.7845e-05
2.55659e-05
2.52292e-05
2.37006e-05
2.78402e-05
2.55658e-05
2.82815e-05
6.99636e-05
6.9962e-05
2.82783e-05
2.8282e-05
6.99676e-05
6.99663e-05
2.82787e-05
2.36993e-05
2.52293e-05
2.78376e-05
2.55655e-05
2.78432e-05
2.55656e-05
2.36983e-05
2.36995e-05
2.5229e-05
2.78388e-05
2.55655e-05
2.78446e-05
2.55657e-05
2.36983e-05
3.49165e-05
3.49098e-05
2.46127e-05
3.49144e-05
3.49074e-05
7.85097e-05
7.851e-05
7.8515e-05
7.85132e-05
2.46086e-05
3.49139e-05
3.4907e-05
3.49165e-05
3.49098e-05
7.85112e-05
7.85098e-05
2.37003e-05
2.78446e-05
2.55661e-05
2.523e-05
2.37013e-05
2.78401e-05
2.55661e-05
2.82804e-05
6.99594e-05
2.82828e-05
6.99586e-05
2.37002e-05
2.55658e-05
2.7844e-05
2.52291e-05
2.37011e-05
2.55657e-05
2.7839e-05
2.82831e-05
6.99656e-05
6.99645e-05
2.82801e-05
2.37003e-05
2.52299e-05
2.78389e-05
2.55659e-05
2.78443e-05
2.5566e-05
2.36991e-05
2.82827e-05
6.99611e-05
6.99601e-05
2.82797e-05
2.37001e-05
2.52289e-05
2.55655e-05
2.78378e-05
2.55656e-05
2.78436e-05
2.36989e-05
2.82792e-05
6.99618e-05
2.82823e-05
6.99617e-05
2.36992e-05
2.55659e-05
2.78433e-05
2.52293e-05
2.37004e-05
2.55658e-05
2.78385e-05
2.82791e-05
6.99622e-05
2.82822e-05
6.99619e-05
2.36995e-05
2.52294e-05
2.7837e-05
2.55655e-05
2.7843e-05
2.55657e-05
2.36981e-05
2.82818e-05
6.99643e-05
6.99634e-05
2.82785e-05
2.36992e-05
2.52291e-05
2.55655e-05
2.78373e-05
2.55656e-05
2.78429e-05
2.36981e-05
2.82816e-05
6.99649e-05
6.99634e-05
2.82783e-05
3.49116e-05
3.49139e-05
2.46124e-05
3.4909e-05
3.49115e-05
7.85118e-05
7.85134e-05
7.8512e-05
7.85092e-05
2.46086e-05
3.49084e-05
3.49108e-05
3.49111e-05
3.49133e-05
7.85163e-05
7.85134e-05
2.36984e-05
2.55657e-05
2.78441e-05
2.52296e-05
2.36996e-05
2.55656e-05
2.78393e-05
2.82781e-05
6.99622e-05
2.82814e-05
6.99613e-05
2.8278e-05
6.99648e-05
2.82813e-05
6.99645e-05
2.36989e-05
2.52293e-05
2.55654e-05
2.78376e-05
2.55655e-05
2.78431e-05
2.36975e-05
2.36987e-05
2.52294e-05
2.55654e-05
2.7838e-05
2.55655e-05
2.78437e-05
2.36974e-05
2.8281e-05
6.99642e-05
6.99627e-05
2.82775e-05
2.82808e-05
6.99675e-05
6.9966e-05
2.82773e-05
7.85124e-05
7.85137e-05
7.85117e-05
7.8513e-05
2.46086e-05
3.49109e-05
3.49133e-05
3.49132e-05
3.49156e-05
7.85156e-05
7.85136e-05
7.8515e-05
7.85129e-05
7.85136e-05
7.85178e-05
7.85133e-05
7.85177e-05
3.49133e-05
3.49152e-05
2.46109e-05
3.49105e-05
3.49126e-05
7.85189e-05
7.85114e-05
7.85183e-05
7.85113e-05
2.4606e-05
3.49082e-05
3.49107e-05
3.49133e-05
3.49155e-05
2.8277e-05
6.9968e-05
2.82812e-05
6.99707e-05
2.36961e-05
2.7842e-05
2.55653e-05
2.52281e-05
2.36982e-05
2.78347e-05
2.55646e-05
2.36962e-05
2.78431e-05
2.55652e-05
2.52267e-05
2.36982e-05
2.78353e-05
2.55643e-05
2.82786e-05
6.99694e-05
6.99668e-05
2.82733e-05
2.8279e-05
6.99727e-05
6.99702e-05
2.82736e-05
2.36956e-05
2.52264e-05
2.78306e-05
2.55612e-05
2.78397e-05
2.5563e-05
2.36905e-05
2.36956e-05
2.52249e-05
2.78309e-05
2.55608e-05
2.78402e-05
2.55626e-05
2.36906e-05
3.49159e-05
3.49093e-05
2.46091e-05
3.49123e-05
3.49052e-05
7.85091e-05
7.85142e-05
7.85183e-05
7.85108e-05
2.46039e-05
3.49094e-05
3.49023e-05
3.49149e-05
3.4908e-05
7.85163e-05
7.85084e-05
2.36979e-05
2.78433e-05
2.55657e-05
2.5229e-05
2.36991e-05
2.78366e-05
2.55653e-05
2.82786e-05
6.99621e-05
2.8282e-05
6.99656e-05
2.36977e-05
2.55654e-05
2.78426e-05
2.52282e-05
2.36989e-05
2.55651e-05
2.78355e-05
2.82809e-05
6.99724e-05
6.99694e-05
2.82761e-05
2.36978e-05
2.52278e-05
2.7833e-05
2.55626e-05
2.78418e-05
2.55643e-05
2.36943e-05
2.82805e-05
6.99684e-05
6.99654e-05
2.82757e-05
2.36976e-05
2.52272e-05
2.55625e-05
2.7832e-05
2.55642e-05
2.7841e-05
2.36941e-05
2.82769e-05
6.99652e-05
2.8281e-05
6.99677e-05
2.3696e-05
2.55652e-05
2.78417e-05
2.52275e-05
2.3698e-05
2.55643e-05
2.78343e-05
2.82767e-05
6.99655e-05
2.82809e-05
6.99687e-05
2.36955e-05
2.52254e-05
2.78291e-05
2.55609e-05
2.78386e-05
2.55625e-05
2.36906e-05
2.82789e-05
6.99697e-05
6.99673e-05
2.82735e-05
2.36955e-05
2.52258e-05
2.5561e-05
2.78302e-05
2.55627e-05
2.78394e-05
2.36905e-05
2.82787e-05
6.99708e-05
6.99682e-05
2.82734e-05
3.4911e-05
3.49131e-05
2.46109e-05
3.4908e-05
3.49108e-05
7.85141e-05
7.85182e-05
7.85167e-05
7.85093e-05
2.46062e-05
3.49063e-05
3.49092e-05
3.49112e-05
3.49138e-05
7.85189e-05
7.85117e-05
2.36953e-05
2.55651e-05
2.78424e-05
2.52278e-05
2.36974e-05
2.55644e-05
2.7835e-05
2.82758e-05
6.99648e-05
2.82799e-05
6.99687e-05
2.82757e-05
6.9968e-05
2.82801e-05
6.99711e-05
2.3695e-05
2.52274e-05
2.55615e-05
2.78313e-05
2.55632e-05
2.78401e-05
2.36903e-05
2.36949e-05
2.52261e-05
2.55611e-05
2.78309e-05
2.55628e-05
2.78401e-05
2.369e-05
2.82776e-05
6.99711e-05
6.99682e-05
2.8272e-05
2.8278e-05
6.99733e-05
6.99706e-05
2.82723e-05
7.85133e-05
7.85175e-05
7.85127e-05
7.85169e-05
2.4605e-05
3.49079e-05
3.49102e-05
3.4913e-05
3.49153e-05
7.85185e-05
7.85111e-05
7.85179e-05
7.85105e-05
7.85101e-05
7.85206e-05
7.85094e-05
7.85197e-05
3.49117e-05
3.49143e-05
2.46045e-05
3.49051e-05
3.49076e-05
7.85224e-05
7.85086e-05
7.85214e-05
7.85077e-05
2.46001e-05
3.49039e-05
3.4906e-05
3.491e-05
3.49124e-05
2.82718e-05
6.99697e-05
2.8277e-05
6.99733e-05
2.36889e-05
2.78374e-05
2.55598e-05
2.52219e-05
2.36903e-05
2.78275e-05
2.55589e-05
2.36891e-05
2.78378e-05
2.55595e-05
2.52213e-05
2.36904e-05
2.78281e-05
2.55587e-05
2.82767e-05
6.9971e-05
6.99637e-05
2.82716e-05
2.82771e-05
6.99745e-05
6.99671e-05
2.8272e-05
2.36898e-05
2.52212e-05
2.78252e-05
2.55581e-05
2.78361e-05
2.55583e-05
2.36889e-05
2.369e-05
2.52209e-05
2.78261e-05
2.55581e-05
2.78369e-05
2.55582e-05
2.36891e-05
3.49131e-05
3.49063e-05
2.46036e-05
3.49063e-05
3.48995e-05
7.85076e-05
7.85178e-05
7.85219e-05
7.85081e-05
2.45996e-05
3.49056e-05
3.48989e-05
3.49115e-05
3.4905e-05
7.85206e-05
7.85061e-05
2.36899e-05
2.78398e-05
2.55609e-05
2.52227e-05
2.36936e-05
2.78296e-05
2.55596e-05
2.82733e-05
6.99656e-05
2.82788e-05
6.99691e-05
2.36896e-05
2.55608e-05
2.78391e-05
2.52222e-05
2.36934e-05
2.55595e-05
2.78285e-05
2.82787e-05
6.99743e-05
6.99671e-05
2.82734e-05
2.36906e-05
2.52218e-05
2.78267e-05
2.55582e-05
2.7838e-05
2.55587e-05
2.36896e-05
2.82783e-05
6.99701e-05
6.9963e-05
2.8273e-05
2.36904e-05
2.52211e-05
2.5558e-05
2.78256e-05
2.55585e-05
2.78372e-05
2.36893e-05
2.82716e-05
6.99669e-05
2.82768e-05
6.99703e-05
2.36889e-05
2.55596e-05
2.78371e-05
2.52217e-05
2.36903e-05
2.55588e-05
2.78272e-05
2.82715e-05
6.99678e-05
2.82767e-05
6.99714e-05
2.369e-05
2.52214e-05
2.78242e-05
2.55581e-05
2.78351e-05
2.55583e-05
2.36891e-05