/*--------------------------------*- C++ -*----------------------------------*\
| =========                 |                                                 |
| \\      /  F ield         | OpenFOAM: The Open Source CFD Toolbox           |
|  \\    /   O peration     | Version:  2206                                  |
|   \\  /    A nd           | Website:  www.openfoam.com                      |
|    \\/     M anipulation  |                                                 |
\*---------------------------------------------------------------------------*/
FoamFile
{
    version     2.0;
    format      ascii;
    arch        "LSB;label=32;scalar=64";
    class       surfaceScalarField;
    location    "30";
    object      phi;
}
// * * * * * * * * * * * * * * * * * * * * * * * * * * * * * * * * * * * * * //

dimensions      [0 3 -1 0 0 0 0];

oriented        oriented;

internalField   nonuniform List<scalar> 
83378
(
-0.00108759
-1.20717e-06
-1.69139e-09
2.9625e-09
0.00108759
-2.54439e-07
1.20991e-06
2.53258e-07
8.94214e-07
-2.56473e-07
-8.9385e-07
2.53269e-07
1.23548e-06
1.2019e-06
-2.31642e-07
-2.36928e-07
0.000265233
1.64857e-09
1.68592e-09
-0.00108772
-1.61704e-09
-1.69619e-09
0.00108772
-0.00108759
-1.20715e-06
-1.79911e-09
2.89973e-09
0.00108759
-2.54412e-07
1.20991e-06
2.53274e-07
8.94246e-07
-2.56419e-07
-8.93803e-07
2.53314e-07
-0.00108725
-1.20176e-06
-1.78325e-09
2.97991e-09
0.00108725
-2.54418e-07
1.20447e-06
2.53274e-07
8.94074e-07
-2.5909e-07
-8.9368e-07
2.55989e-07
-0.000267202
1.23547e-06
1.20188e-06
-2.31621e-07
-2.36914e-07
0.000265233
1.6958e-09
1.73957e-09
-0.00108772
-1.63502e-09
-1.71902e-09
0.00108772
-0.00108759
-1.20713e-06
-1.88339e-09
2.85846e-09
0.00108759
-2.54387e-07
1.20993e-06
2.53299e-07
8.94262e-07
-2.56379e-07
-8.93793e-07
2.53361e-07
-0.00108725
-1.20175e-06
-1.82453e-09
2.95845e-09
0.00108725
-2.54401e-07
1.20448e-06
2.5329e-07
8.94079e-07
-2.59049e-07
-8.93681e-07
2.56037e-07
-0.000267202
1.23546e-06
1.20186e-06
-2.31597e-07
-2.36895e-07
0.000265233
1.7812e-09
1.82767e-09
-0.00108772
-1.67502e-09
-1.7705e-09
0.00108772
-0.00108759
-1.20711e-06
-2.00615e-09
2.82166e-09
0.00108759
-2.54367e-07
1.20996e-06
2.53333e-07
8.94313e-07
-2.56353e-07
-8.93755e-07
2.53398e-07
-0.00108725
-1.20172e-06
-1.92275e-09
2.92091e-09
0.00108725
-2.5438e-07
1.20451e-06
2.53321e-07
8.94131e-07
-2.59009e-07
-8.93638e-07
2.56089e-07
-0.000267201
1.23544e-06
1.20185e-06
-2.31576e-07
-2.36866e-07
0.000265232
1.84593e-09
2.11871e-09
-0.00108771
-1.84108e-09
-1.79216e-09
0.00108771
-0.00108759
-1.20709e-06
-1.99357e-09
2.83969e-09
0.00108759
-2.5435e-07
1.20996e-06
2.53339e-07
8.94324e-07
-2.56313e-07
-8.93719e-07
2.53417e-07
-0.00108725
-1.20166e-06
-2.13038e-09
2.71306e-09
0.00108725
-2.54274e-07
1.20458e-06
2.53387e-07
8.94182e-07
-2.58931e-07
-8.93575e-07
2.56144e-07
-0.000267201
1.23538e-06
1.2018e-06
-2.31518e-07
-2.36802e-07
0.000265232
2.18418e-09
2.69321e-09
-0.00108771
-2.20086e-09
-1.86332e-09
0.00108771
-0.00108759
-1.207e-06
-1.99518e-09
2.86195e-09
0.00108759
-2.54315e-07
1.20994e-06
2.53269e-07
8.94092e-07
-2.55913e-07
-8.93426e-07
2.52888e-07
-0.00108725
-1.20152e-06
-2.62941e-09
2.24017e-09
0.00108725
-2.54136e-07
1.20467e-06
2.53489e-07
8.9402e-07
-2.5845e-07
-8.93243e-07
2.55742e-07
-0.0002672
1.2352e-06
1.20167e-06
-2.31361e-07
-2.36607e-07
0.000265232
2.93135e-10
4.66563e-10
-0.00108771
-1.19478e-09
-1.16985e-09
0.00108772
-0.00108759
-1.20695e-06
-7.23991e-10
2.86154e-09
0.00108759
-2.54249e-07
1.20924e-06
2.52511e-07
8.91846e-07
-2.54222e-07
-8.92687e-07
2.49713e-07
-0.00108725
-1.20159e-06
-4.94867e-10
3.15289e-09
0.00108725
-2.54262e-07
1.20365e-06
2.52334e-07
8.91672e-07
-2.56843e-07
-8.92514e-07
2.52322e-07
-0.000267201
1.23535e-06
1.20179e-06
-2.31223e-07
-2.36489e-07
0.000265232
5.1075e-11
-1.60683e-10
-0.00108772
-9.23373e-10
-1.20603e-09
0.00108772
-0.00108759
-1.20678e-06
-2.41185e-10
3.2478e-09
0.00108759
-2.53176e-07
1.20933e-06
2.51933e-07
8.94805e-07
-2.55697e-07
-8.94368e-07
2.52066e-07
-0.00108725
-1.20148e-06
1.66808e-11
3.55403e-09
0.00108725
-2.53257e-07
1.20385e-06
2.51847e-07
8.94542e-07
-2.58436e-07
-8.9432e-07
2.54676e-07
-0.000267202
1.23511e-06
1.20148e-06
-2.3071e-07
-2.36048e-07
0.000265233
-2.856e-09
-2.74046e-09
-0.00108772
-1.2429e-10
-1.09531e-10
0.00108772
-0.0010876
-1.20521e-06
2.76233e-09
4.61294e-09
0.00108759
-2.51204e-07
1.20735e-06
2.48974e-07
8.89316e-07
-2.48717e-07
-8.89938e-07
2.43954e-07
-0.00108725
-1.19978e-06
2.72241e-09
4.55621e-09
0.00108725
-2.5114e-07
1.20195e-06
2.48979e-07
8.8914e-07
-2.51353e-07
-8.89811e-07
2.46646e-07
-0.000267205
1.23352e-06
1.19993e-06
-2.27346e-07
-2.32636e-07
0.000265231
-8.18356e-09
-8.05728e-09
-0.00108771
1.5766e-09
1.62754e-09
0.00108773
-0.0010876
-1.2041e-06
8.06507e-09
7.98413e-09
0.00108759
-2.49662e-07
1.20486e-06
2.45839e-07
8.84368e-07
-2.43876e-07
-8.86648e-07
2.36853e-07
-0.00108725
-1.1987e-06
8.02908e-09
7.95644e-09
0.00108725
-2.4965e-07
1.19944e-06
2.45861e-07
8.8419e-07
-2.46538e-07
-8.86461e-07
2.39541e-07
-0.000267206
1.23241e-06
1.19882e-06
-2.24889e-07
-2.30175e-07
0.00026523
-1.46075e-09
-1.26192e-09
-0.00108771
-3.7287e-09
-8.75558e-09
0.00108773
-0.0010876
-1.19966e-06
6.42085e-09
3.67883e-09
0.0010876
-2.43307e-07
1.20069e-06
2.42603e-07
8.76162e-07
-2.3209e-07
-8.79522e-07
2.21543e-07
-0.00108727
-1.19155e-06
1.25474e-09
8.81048e-09
0.00108727
-2.4323e-07
1.19259e-06
2.39875e-07
8.73294e-07
-2.32037e-07
-8.76641e-07
2.24247e-07
-0.000267216
1.23062e-06
1.19434e-06
-2.14446e-07
-2.19687e-07
0.000265226
8.25453e-07
8.32495e-07
-0.00108757
-7.08769e-07
-6.98626e-07
0.00108732
-0.00108787
-1.10118e-06
-8.26659e-07
-3.63202e-07
0.00108818
-1.56377e-07
1.35714e-06
3.30408e-07
1.01698e-06
-1.18869e-07
-7.65303e-07
3.15876e-07
-0.00108754
-1.09298e-06
-8.37355e-07
-3.74109e-07
0.00108787
-1.5624e-07
1.35185e-06
3.33268e-07
1.01404e-06
-1.24292e-07
-7.62407e-07
3.18598e-07
-0.000267293
1.13483e-06
1.09315e-06
-1.22806e-07
-1.25337e-07
0.000265313
4.98071e-06
4.97405e-06
-0.00107361
-1.06128e-05
-1.05155e-05
0.000260607
0.000264012
0.000263086
0.000263086
4.03955e-06
6.32784e-06
6.62563e-06
4.04331e-06
6.3286e-06
6.629e-06
-0.000269064
5.14081e-06
-4.97141e-06
5.73301e-06
-3.26348e-06
0.000266425
-0.00026904
-4.97362e-06
5.14605e-06
-3.27139e-06
5.73006e-06
0.000266409
-0.000267749
-5.1378e-06
-5.14887e-06
5.75148e-06
5.73959e-06
0.000266545
1.24897e-06
0.00108725
-1.24629e-06
2.6141e-07
-2.62671e-07
2.55944e-07
-2.59318e-07
-1.20991e-06
0.000267247
-0.000265259
2.34573e-07
2.36861e-07
-1.20717e-06
2.53258e-07
-2.54436e-07
2.53261e-07
-2.56483e-07
-1.2435e-06
-1.20725e-06
0.000267218
-0.000265238
2.31791e-07
2.39597e-07
3.11752e-09
0.00108681
-2.59886e-07
2.58606e-07
8.94114e-07
-2.56454e-07
-8.9382e-07
2.53163e-07
-1.24629e-06
-1.45558e-09
3.12608e-09
0.00108725
-2.62673e-07
1.24897e-06
2.61409e-07
8.99706e-07
-2.59308e-07
-8.99452e-07
2.55954e-07
0.00108681
-1.64333e-09
-0.00108681
3.13438e-09
-1.24083e-06
2.58609e-07
-2.59879e-07
-8.93771e-07
2.53199e-07
-2.56409e-07
8.94153e-07
1.24898e-06
0.00108725
-1.5257e-09
-0.00108725
3.06965e-09
-1.24627e-06
2.61426e-07
-2.6265e-07
-8.99409e-07
2.55985e-07
-2.59272e-07
8.99737e-07
-2.31854e-07
-2.34163e-07
0.000265259
-1.20992e-06
0.000267247
-0.000265259
2.34591e-07
2.36881e-07
0.00108786
-1.68872e-09
-0.00108786
2.92798e-09
-1.20455e-06
2.5607e-07
-2.57223e-07
-8.96547e-07
2.56053e-07
-2.59236e-07
8.97011e-07
1.24356e-06
0.00108692
-1.51177e-09
-0.00108692
3.13485e-09
-1.2409e-06
2.61388e-07
-2.62662e-07
-8.96548e-07
2.55952e-07
-2.59201e-07
8.96846e-07
-1.53768e-09
3.11427e-09
0.00108672
-2.57086e-07
1.23815e-06
2.55865e-07
8.94123e-07
-2.56465e-07
2.53153e-07
-8.93873e-07
-1.77023e-09
-0.00108759
2.91065e-09
-1.20715e-06
2.53274e-07
-2.54416e-07
-8.93807e-07
2.53304e-07
8.94246e-07
-2.56436e-07
1.23815e-06
0.00108672
-1.59666e-09
-0.00108672
3.11304e-09
-1.23547e-06
2.55873e-07
-2.57075e-07
-8.93828e-07
2.53184e-07
-2.56426e-07
8.94157e-07
-1.20447e-06
0.000267197
-0.00026522
2.3198e-07
2.39385e-07
-1.53695e-09
2.95211e-09
0.00108777
-2.54502e-07
1.20456e-06
2.53311e-07
8.94323e-07
-2.59274e-07
2.55998e-07
-8.93967e-07
-1.76616e-09
-0.00108725
2.98258e-09
-1.20177e-06
2.5327e-07
-2.54426e-07
-8.93634e-07
2.55962e-07
8.94129e-07
-2.59121e-07
1.20457e-06
0.00108777
-1.57567e-09
-0.00108777
2.92149e-09
-1.20189e-06
2.53323e-07
-2.54487e-07
-8.93931e-07
2.56025e-07
-2.59237e-07
8.94349e-07
-0.000265233
2.34309e-07
2.39627e-07
1.24082e-06
1.20454e-06
-2.29095e-07
-2.36879e-07
0.000265238
-1.24351e-06
-1.20726e-06
0.000267217
-0.000265238
2.31808e-07
2.39617e-07
3.13442e-09
0.00108681
-2.59873e-07
1.2435e-06
2.5861e-07
8.94144e-07
-2.56403e-07
-8.93778e-07
2.53206e-07
-1.24627e-06
-1.55766e-09
3.0555e-09
0.00108725
-2.62645e-07
1.24898e-06
2.61427e-07
8.99736e-07
-2.59256e-07
-8.99406e-07
2.55997e-07
0.00108681
-1.68806e-09
-0.00108681
3.11966e-09
-1.24081e-06
2.58623e-07
-2.59863e-07
-8.93765e-07
2.53241e-07
-2.56364e-07
8.94152e-07
1.24899e-06
0.00108725
-1.57787e-09
-0.00108725
3.0395e-09
-1.24625e-06
2.61447e-07
-2.62628e-07
-8.99401e-07
2.56025e-07
-2.59229e-07
8.99742e-07
-2.3183e-07
-2.34137e-07
0.000265259
-1.20993e-06
0.000267246
-0.000265259
2.34614e-07
2.36905e-07
2.92344e-09
0.00108786
-2.57215e-07
1.20725e-06
2.56072e-07
8.97012e-07
-2.59239e-07
-8.9654e-07
2.56055e-07
-1.24089e-06
-1.52445e-09
3.13988e-09
0.00108692
-2.62652e-07
1.24356e-06
2.61392e-07
8.96848e-07
-2.59193e-07
-8.96542e-07
2.55959e-07
0.00108786
-1.74632e-09
-0.00108786
2.89656e-09
-1.20453e-06
2.56085e-07
-2.57201e-07
-8.96538e-07
2.56094e-07
-2.59198e-07
8.97017e-07
1.24356e-06
0.00108692
-1.5751e-09
-0.00108692
3.10859e-09
-1.24088e-06
2.61401e-07
-2.62643e-07
-8.96537e-07
2.55993e-07
-2.59161e-07
8.96853e-07
-1.62916e-09
3.11255e-09
0.00108672
-2.57072e-07
1.23815e-06
2.55871e-07
8.94154e-07
-2.56415e-07
2.53194e-07
-8.93826e-07
-1.8327e-09
-0.00108759
2.88821e-09
-1.20714e-06
2.53293e-07
-2.54395e-07
-8.93797e-07
2.53345e-07
8.94255e-07
-2.56394e-07
1.23816e-06
0.00108672
-1.65335e-09
-0.00108672
3.09593e-09
-1.23546e-06
2.55887e-07
-2.5706e-07
-8.93822e-07
2.53232e-07
-2.56379e-07
8.94163e-07
-2.29286e-07
-2.36682e-07
0.00026522
-1.20448e-06
0.000267196
-0.00026522
2.31998e-07
2.39401e-07
-1.58695e-09
2.90731e-09
0.00108777
-2.54481e-07
1.20457e-06
2.53324e-07
8.94344e-07
-2.59229e-07
2.56032e-07
-8.93932e-07
-1.81633e-09
-0.00108725
2.95957e-09
-1.20175e-06
2.53285e-07
-2.54408e-07
-8.93631e-07
2.56004e-07
8.94129e-07
-2.59082e-07
1.20459e-06
0.00108777
-1.60464e-09
-0.00108777
2.88735e-09
-1.20187e-06
2.53342e-07
-2.54466e-07
-8.9393e-07
2.56062e-07
-2.592e-07
8.94348e-07
-0.000265233
2.34332e-07
2.39643e-07
1.2408e-06
1.20452e-06
-2.29077e-07
-2.36855e-07
0.000265238
-1.24353e-06
-1.20729e-06
0.000267217
-0.000265238
2.31847e-07
2.39648e-07
3.10765e-09
0.00108681
-2.59852e-07
1.24352e-06
2.58633e-07
8.94146e-07
-2.56364e-07
-8.93779e-07
2.53246e-07
-1.24624e-06
-1.62697e-09
3.0059e-09
0.00108725
-2.62619e-07
1.249e-06
2.61455e-07
8.99748e-07
-2.59219e-07
-8.994e-07
2.56039e-07
0.00108681
-1.76755e-09
-0.00108681
3.08694e-09
-1.24079e-06
2.58646e-07
-2.59842e-07
-8.93724e-07
2.53291e-07
-2.56328e-07
8.94211e-07
1.249e-06
0.00108725
-1.62767e-09
-0.00108725
3.03424e-09
-1.24623e-06
2.61466e-07
-2.62607e-07
-8.99374e-07
2.56066e-07
-2.59195e-07
8.99781e-07
-2.31807e-07
-2.3411e-07
0.000265259
-1.20994e-06
0.000267246
-0.000265259
2.34642e-07
2.36928e-07
2.89312e-09
0.00108786
-2.57197e-07
1.20727e-06
2.56093e-07
8.9702e-07
-2.59196e-07
-8.96534e-07
2.561e-07
-1.24088e-06
-1.55363e-09
3.12628e-09
0.00108692
-2.62638e-07
1.24357e-06
2.61407e-07
8.96848e-07
-2.59158e-07
-8.96542e-07
2.55996e-07
0.00108786
-1.84327e-09
-0.00108786
2.85204e-09
-1.2045e-06
2.56125e-07
-2.57173e-07
-8.96516e-07
2.56138e-07
-2.59163e-07
8.97052e-07
1.2436e-06
0.00108692
-1.70076e-09
-0.00108692
3.03752e-09
-1.24085e-06
2.61435e-07
-2.62611e-07
-8.96501e-07
2.56044e-07
-2.59121e-07
8.96906e-07
-1.70112e-09
3.08213e-09
0.00108672
-2.57053e-07
1.23817e-06
2.55894e-07
8.94169e-07
-2.56369e-07
2.53243e-07
-8.93817e-07
-1.8822e-09
-0.00108759
2.89031e-09
-1.20712e-06
2.53313e-07
-2.54376e-07
-8.93769e-07
2.53383e-07
8.94293e-07
-2.5636e-07
1.23819e-06
0.00108672
-1.72111e-09
-0.00108672
3.0588e-09
-1.23543e-06
2.55917e-07
-2.57035e-07
-8.93789e-07
2.53278e-07
-2.56343e-07
8.94205e-07
-2.29271e-07
-2.36665e-07
0.00026522
-1.2045e-06
0.000267196
-0.00026522
2.32028e-07
2.39438e-07
-1.64022e-09
2.86723e-09
0.00108777
-2.54458e-07
1.20459e-06
2.5335e-07
8.94356e-07
-2.59193e-07
2.56073e-07
-8.93928e-07
-1.92959e-09
-0.00108725
2.91823e-09
-1.20173e-06
2.53308e-07
-2.54386e-07
-8.93591e-07
2.5606e-07
8.94181e-07
-2.59032e-07
1.20461e-06
0.00108776
-1.71842e-09
-0.00108776
2.85466e-09
-1.20185e-06
2.53368e-07
-2.54444e-07
-8.93874e-07
2.5612e-07
-2.59154e-07
8.94415e-07
-0.000265233
2.34364e-07
2.39684e-07
1.24079e-06
1.2045e-06
-2.29047e-07
-2.36828e-07
0.000265238
-1.24359e-06
-1.20733e-06
0.000267217
-0.000265237
2.31888e-07
2.3971e-07
3.09257e-09
0.00108681
-2.59836e-07
1.24353e-06
2.58653e-07
8.94208e-07
-2.56326e-07
-8.93726e-07
2.5329e-07
-1.24623e-06
-1.7611e-09
2.96938e-09
0.00108725
-2.626e-07
1.24902e-06
2.61486e-07
8.99803e-07
-2.59187e-07
-8.99357e-07
2.56083e-07
0.00108681
-1.91206e-09
-0.00108681
2.96408e-09
-1.24074e-06
2.58711e-07
-2.59785e-07
-8.93668e-07
2.53351e-07
-2.56264e-07
8.94262e-07
1.24904e-06
0.00108724
-1.68413e-09
-0.00108724
3.06684e-09
-1.2462e-06
2.61498e-07
-2.62582e-07
-8.99319e-07
2.56109e-07
-2.59147e-07
8.99828e-07
-2.31782e-07
-2.34094e-07
0.000265259
-1.20998e-06
0.000267246
-0.000265258
2.34694e-07
2.36983e-07
2.86834e-09
0.00108786
-2.57167e-07
1.20728e-06
2.5612e-07
8.97066e-07
-2.59158e-07
-8.96501e-07
2.56152e-07
-1.24085e-06
-1.68547e-09
3.07822e-09
0.00108692
-2.62612e-07
1.24359e-06
2.61436e-07
8.96918e-07
-2.59111e-07
-8.96485e-07
2.56059e-07
0.00108786
-2.07601e-09
-0.00108786
2.80112e-09
-1.20446e-06
2.56165e-07
-2.57127e-07
-8.96437e-07
2.56224e-07
-2.59084e-07
8.97128e-07
1.24364e-06
0.00108692
-1.92394e-09
-0.00108692
2.96771e-09
-1.24081e-06
2.61485e-07
-2.62572e-07
-8.96438e-07
2.56116e-07
-2.59055e-07
8.96961e-07
-1.76194e-09
3.07452e-09
0.00108672
-2.57034e-07
1.23819e-06
2.55917e-07
8.94208e-07
-2.56338e-07
2.53283e-07
-8.93786e-07
-1.91503e-09
-0.00108759
2.89446e-09
-1.20708e-06
2.53347e-07
-2.54348e-07
-8.93718e-07
2.53426e-07
8.94336e-07
-2.56312e-07
1.23825e-06
0.00108671
-1.84638e-09
-0.00108671
2.96296e-09
-1.23539e-06
2.55976e-07
-2.56985e-07
-8.93736e-07
2.5334e-07
-2.56281e-07
8.94257e-07
-2.29235e-07
-2.36631e-07
0.000265219
-1.20457e-06
0.000267198
-0.000265219
2.32089e-07
2.36929e-07
-1.73216e-09
2.86695e-09
0.00108776
-2.54444e-07
1.20461e-06
2.53368e-07
8.94413e-07
-2.5915e-07
2.56122e-07
-8.93876e-07
-2.111e-09
-0.00108725
2.80401e-09
-1.20168e-06
2.53346e-07
-2.54335e-07
-8.93542e-07
2.56117e-07
8.94229e-07
-2.58985e-07
1.20466e-06
0.00108776
-1.89373e-09
-0.00108776
2.80813e-09
-1.2018e-06
2.53426e-07
-2.54395e-07
-8.93831e-07
2.56186e-07
-2.59092e-07
8.94463e-07
-0.000265232
2.34415e-07
2.39737e-07
1.24073e-06
1.20445e-06
-2.28998e-07
-2.36761e-07
0.000265237
-1.24366e-06
-1.20733e-06
0.000267216
-0.000265237
2.31871e-07
2.39738e-07
2.93684e-09
0.00108681
-2.59779e-07
1.24359e-06
2.58701e-07
8.94237e-07
-2.56275e-07
-8.93678e-07
2.53319e-07
-1.24621e-06
-1.77663e-09
3.02142e-09
0.00108724
-2.62586e-07
1.24902e-06
2.61488e-07
8.9982e-07
-2.59147e-07
-8.99317e-07
2.56104e-07
0.00108681
-1.99919e-09
-0.00108681
2.82227e-09
-1.24065e-06
2.5878e-07
-2.59689e-07
-8.93519e-07
2.53151e-07
-2.56054e-07
8.94173e-07
1.24912e-06
0.00108724
-1.85274e-09
-0.00108724
3.04645e-09
-1.2461e-06
2.61539e-07
-2.62504e-07
-8.99112e-07
2.55944e-07
-2.58898e-07
8.99792e-07
-2.31734e-07
-2.34044e-07
0.000265258
-1.21006e-06
0.000267245
-0.000265258
2.34736e-07
2.37017e-07
2.78515e-09
0.00108786
-2.57131e-07
1.20733e-06
2.56162e-07
8.97123e-07
-2.59067e-07
-8.96416e-07
2.56202e-07
-1.24079e-06
-2.02701e-09
2.90572e-09
0.00108692
-2.62545e-07
1.24366e-06
2.61507e-07
8.96971e-07
-2.59018e-07
-8.96416e-07
2.56127e-07
0.00108786
-2.09729e-09
-0.00108786
2.90808e-09
-1.20444e-06
2.56142e-07
-2.57119e-07
-8.96269e-07
2.56027e-07
-2.58838e-07
8.97028e-07
1.24361e-06
0.00108692
-1.79499e-09
-0.00108692
3.07094e-09
-1.2408e-06
2.61466e-07
-2.62549e-07
-8.96303e-07
2.5589e-07
-2.58848e-07
8.96826e-07
-1.81043e-09
2.97061e-09
0.00108671
-2.56986e-07
1.23823e-06
2.55956e-07
8.94237e-07
-2.56286e-07
2.53304e-07
-8.93735e-07
-2.04631e-09
-0.00108759
2.85052e-09
-1.20697e-06
2.53394e-07
-2.54261e-07
-8.93523e-07
2.53249e-07
8.94288e-07
-2.56074e-07
1.23833e-06
0.00108671
-1.92493e-09
-0.00108671
2.81717e-09
-1.2353e-06
2.56043e-07
-2.56896e-07
-8.93572e-07
2.53148e-07
-2.56058e-07
8.94179e-07
-2.29163e-07
-2.34025e-07
0.000265219
-1.20457e-06
0.000267198
-0.000265219
2.3208e-07
2.3689e-07
-1.86793e-09
2.84823e-09
0.00108776
-2.54403e-07
1.20464e-06
2.53398e-07
8.94452e-07
-2.59089e-07
2.56156e-07
-8.93821e-07
-2.11136e-09
-0.00108725
2.81621e-09
-1.20163e-06
2.53369e-07
-2.54271e-07
-8.93398e-07
2.55914e-07
8.94121e-07
-2.58767e-07
1.2047e-06
0.00108776
-2.10803e-09
-0.00108776
2.82114e-09
-1.20175e-06
2.53451e-07
-2.54344e-07
-8.93635e-07
2.56025e-07
-2.58839e-07
8.94421e-07
-0.000265232
2.34425e-07
2.39784e-07
1.24055e-06
1.20434e-06
-2.28856e-07
-2.3658e-07
0.000265237
-1.24297e-06
-1.20652e-06
0.000267217
-0.000265237
2.30642e-07
2.38654e-07
2.34891e-09
0.0010868
-2.59617e-07
1.24372e-06
2.58815e-07
8.94058e-07
-2.55815e-07
-8.93361e-07
2.529e-07
-1.24613e-06
-1.82212e-09
3.08583e-09
0.00108724
-2.62561e-07
1.24899e-06
2.61409e-07
8.99596e-07
-2.58733e-07
-8.9901e-07
2.55586e-07
0.00108681
3.63888e-10
-0.0010868
3.86786e-09
-1.24072e-06
2.58075e-07
-2.59904e-07
-8.93089e-07
2.50076e-07
-2.54834e-07
8.92172e-07
1.24834e-06
0.00108724
3.84573e-10
-0.00108724
4.20358e-09
-1.24637e-06
2.60786e-07
-2.6287e-07
-8.98747e-07
2.52888e-07
-2.57742e-07
8.97763e-07
-2.31608e-07
-2.33929e-07
0.000265258
-1.20928e-06
0.000267246
-0.000265258
2.33503e-07
2.35789e-07
2.55265e-09
0.00108786
-2.57046e-07
1.20739e-06
2.56204e-07
8.96989e-07
-2.5859e-07
-8.96076e-07
2.55797e-07
-1.24067e-06
-2.54818e-09
2.49642e-09
0.00108692
-2.62435e-07
1.24373e-06
2.61585e-07
8.96826e-07
-2.58547e-07
-8.96092e-07
2.55731e-07
0.00108786
-3.42252e-10
-0.00108786
4.1819e-09
-1.20464e-06
2.55319e-07
-2.57447e-07
-8.9555e-07
2.53293e-07
-2.5728e-07
8.95283e-07
1.24296e-06
0.00108692
-3.37252e-10
-0.00108692
3.98364e-09
-1.24081e-06
2.60807e-07
-2.62674e-07
-8.95499e-07
2.53202e-07
-2.57216e-07
8.95142e-07
-2.11843e-09
2.45023e-09
0.00108671
-2.56836e-07
1.23835e-06
2.56054e-07
8.94055e-07
-2.5583e-07
2.52873e-07
-8.93413e-07
2.47327e-10
-0.00108759
3.98316e-09
-1.20724e-06
2.52639e-07
-2.54627e-07
-8.93161e-07
2.50199e-07
8.92264e-07
-2.54913e-07
1.23753e-06
0.00108671
3.94242e-10
-0.00108671
4.05419e-09
-1.2355e-06
2.55243e-07
-2.57214e-07
-8.93134e-07
2.50096e-07
-2.54832e-07
8.92192e-07
-2.29014e-07
-2.33894e-07
0.000265219
-1.20401e-06
0.000267198
-0.000265218
2.3112e-07
2.35835e-07
-2.44247e-09
2.63119e-09
0.00108776
-2.54301e-07
1.2047e-06
2.53443e-07
8.94322e-07
-2.58592e-07
2.55769e-07
-8.93455e-07
-5.71144e-11
-0.00108725
3.49654e-09
-1.20157e-06
2.52774e-07
-2.54337e-07
-8.92818e-07
2.53027e-07
8.92253e-07
-2.57326e-07
1.20388e-06
0.00108776
2.34775e-10
-0.00108776
4.15596e-09
-1.20198e-06
2.52632e-07
-2.54691e-07
-8.93193e-07
2.52989e-07
-2.57585e-07
8.92433e-07
-0.000265231
2.33188e-07
2.38553e-07
1.24066e-06
1.20449e-06
-2.28732e-07
-2.36391e-07
0.000265237
-1.24299e-06
-1.20689e-06
0.000267218
-0.000265238
2.30867e-07
2.38516e-07
3.33205e-09
0.00108681
-2.59752e-07
1.2427e-06
2.57723e-07
8.91721e-07
-2.5427e-07
-8.9267e-07
2.49492e-07
-1.24607e-06
-4.87942e-10
3.01694e-09
0.00108725
-2.62487e-07
1.2483e-06
2.6066e-07
8.97346e-07
-2.57049e-07
-8.9827e-07
2.524e-07
0.00108681
-2.70216e-09
-0.00108681
3.28622e-09
-1.24035e-06
2.5727e-07
-2.58589e-07
-8.93048e-07
2.52158e-07
-2.54877e-07
8.9417e-07
1.24859e-06
0.00108725
-2.58391e-09
-0.00108725
2.7889e-09
-1.24563e-06
2.60213e-07
-2.61195e-07
-8.98675e-07
2.5493e-07
-2.57716e-07
8.99749e-07
-2.3134e-07
-2.33655e-07
0.000265258
-1.20952e-06
0.000267247
-0.000265259
2.33639e-07
2.35939e-07
3.25941e-09
0.00108786
-2.57252e-07
1.20639e-06
2.55075e-07
8.94585e-07
-2.56864e-07
-8.9532e-07
2.52482e-07
-1.24079e-06
-2.93338e-10
3.46046e-09
0.00108692
-2.6261e-07
1.24269e-06
2.60394e-07
8.94424e-07
-2.56851e-07
-8.95302e-07
2.52346e-07
0.00108786
-2.20409e-09
-0.00108786
2.64254e-09
-1.20389e-06
2.54895e-07
-2.55759e-07
-8.96062e-07
2.54777e-07
-2.57943e-07
8.9682e-07
1.24309e-06
0.00108692
-1.90499e-09
-0.00108692
3.20986e-09
-1.24037e-06
2.60072e-07
-2.61365e-07
-8.96073e-07
2.54654e-07
-2.57922e-07
8.9667e-07
-3.25887e-10
3.31261e-09
0.00108672
-2.57e-07
1.23736e-06
2.54973e-07
8.91741e-07
-2.54246e-07
2.49517e-07
-8.92696e-07
-2.86796e-09
-0.00108759
2.68978e-09
-1.20652e-06
2.5205e-07
-2.5297e-07
-8.93073e-07
2.52271e-07
8.94272e-07
-2.54881e-07
1.23772e-06
0.00108672
-2.65979e-09
-0.00108672
3.11188e-09
-1.23491e-06
2.54608e-07
-2.55702e-07
-8.9311e-07
2.52114e-07
-2.54902e-07
8.94152e-07
-2.28749e-07
-2.33689e-07
0.000265218
-1.20392e-06
0.0002672
-0.000265219
2.30838e-07
2.35785e-07
-2.93613e-10
3.14664e-09
0.00108776
-2.54442e-07
1.20377e-06
2.52403e-07
8.91934e-07
-2.57032e-07
2.52374e-07
-8.92799e-07
-2.47039e-09
-0.00108725
3.28664e-09
-1.20135e-06
2.51829e-07
-2.53232e-07
-8.92987e-07
2.548e-07
8.94049e-07
-2.57718e-07
1.20419e-06
0.00108777
-2.44115e-09
-0.00108777
2.63206e-09
-1.20126e-06
2.52112e-07
-2.53053e-07
-8.93272e-07
2.54917e-07
-2.5776e-07
8.9431e-07
-0.000265232
2.33362e-07
2.38637e-07
1.24051e-06
1.20411e-06
-2.28175e-07
-2.36066e-07
0.000265238
-1.24213e-06
-1.20585e-06
0.00026722
-0.000265237
2.28342e-07
2.3618e-07
3.63127e-09
0.00108681
-2.58705e-07
1.24288e-06
2.57231e-07
8.94688e-07
-2.55677e-07
-8.94353e-07
2.51961e-07
-1.24588e-06
6.81555e-11
3.35977e-09
0.00108725
-2.61397e-07
1.2484e-06
2.60096e-07
9.00275e-07
-2.58532e-07
-8.99965e-07
2.54712e-07
0.00108681
-5.20585e-09
-0.00108681
2.07883e-09
-1.23877e-06
2.56325e-07
-2.57147e-07
-8.90248e-07
2.46656e-07
-2.49686e-07
8.91151e-07
1.24757e-06
0.00108725
-5.08294e-09
-0.00108725
2.13447e-09
-1.24424e-06
2.59105e-07
-2.5995e-07
-8.95886e-07
2.49424e-07
-2.52549e-07
8.96736e-07
-2.30948e-07
-2.33242e-07
0.000265259
-1.2085e-06
0.000267249
-0.000265258
2.31133e-07
2.33421e-07
3.15311e-09
0.00108786
-2.55917e-07
1.20672e-06
2.54796e-07
8.97463e-07
-2.58662e-07
-8.97247e-07
2.54661e-07
-1.24053e-06
3.24465e-10
3.57402e-09
0.00108692
-2.61441e-07
1.24298e-06
2.60058e-07
8.97288e-07
-2.58611e-07
-8.97257e-07
2.54583e-07
0.00108786
-5.33261e-09
-0.00108786
1.91509e-09
-1.2025e-06
2.53769e-07
-2.54498e-07
-8.92984e-07
2.49523e-07
-2.52494e-07
8.94026e-07
1.24217e-06
0.00108692
-5.17397e-09
-0.00108692
2.08734e-09
-1.23883e-06
2.59111e-07
-2.59914e-07
-8.92997e-07
2.49447e-07
-2.52458e-07
8.93876e-07
-5.33269e-11
3.52174e-09
0.00108672
-2.55849e-07
1.23756e-06
2.54532e-07
8.9468e-07
-2.5569e-07
2.51911e-07
-8.94393e-07
-5.29902e-09
-0.00108759
1.96349e-09
-1.20513e-06
2.50948e-07
-2.5172e-07
-8.90285e-07
2.46744e-07
8.9124e-07
-2.49723e-07
1.23675e-06
0.00108672
-5.15918e-09
-0.00108672
2.10934e-09
-1.23344e-06
2.5357e-07
-2.54362e-07
-8.90311e-07
2.4664e-07
-2.49696e-07
8.91169e-07
-2.28512e-07
-2.33279e-07
0.00026522
-1.20311e-06
0.000267202
-0.000265219
2.28577e-07
2.33394e-07
1.00321e-10
3.13867e-09
0.00108777
-2.53206e-07
1.20403e-06
2.52025e-07
8.94866e-07
-2.58543e-07
2.54726e-07
-8.94544e-07
-5.35688e-09
-0.00108725
1.89978e-09
-1.1997e-06
2.50972e-07
-2.51642e-07
-8.90107e-07
2.49411e-07
8.9111e-07
-2.52383e-07
1.20318e-06
0.00108777
-5.19684e-09
-0.00108777
1.91926e-09
-1.19984e-06
2.51026e-07
-2.51756e-07
-8.90407e-07
2.49477e-07
-2.52501e-07
8.91365e-07
-0.000265232
2.30866e-07
2.36176e-07
1.23885e-06
1.20259e-06
-2.24832e-07
-2.32579e-07
0.000265236
-1.24162e-06
-1.20534e-06
0.000267222
-0.000265236
2.26628e-07
2.3445e-07
4.72105e-09
0.00108681
-2.56632e-07
1.24097e-06
2.5435e-07
8.89234e-07
-2.48685e-07
-8.89926e-07
2.43867e-07
-1.24433e-06
2.9539e-09
4.78343e-09
0.00108725
-2.59435e-07
1.24642e-06
2.57132e-07
8.94819e-07
-2.5155e-07
-8.95551e-07
2.46644e-07
0.00108681
-8.03737e-09
-0.00108681
-1.15662e-10
-1.23768e-06
2.55336e-07
-2.55159e-07
-8.8668e-07
2.42533e-07
-2.44443e-07
8.88455e-07
1.24707e-06
0.00108725
-7.96619e-09
-0.00108725
-5.15136e-11
-1.24315e-06
2.58125e-07
-2.57951e-07
-8.92303e-07
2.4532e-07
-2.47296e-07
8.9404e-07
-2.27569e-07
-2.2988e-07
0.000265257
-1.208e-06
0.000267251
-0.000265257
2.29429e-07
2.3171e-07
4.58371e-09
0.00108786
-2.53995e-07
1.20469e-06
2.51781e-07
8.92109e-07
-2.51477e-07
-8.9264e-07
2.46747e-07
-1.23892e-06
2.85896e-09
4.75839e-09
0.00108692
-2.59414e-07
1.24101e-06
2.5712e-07
8.91962e-07
-2.51459e-07
-8.92659e-07
2.46664e-07
0.00108786
-8.2167e-09
-0.00108786
-2.31233e-10
-1.20142e-06
2.52773e-07
-2.52524e-07
-8.8942e-07
2.45421e-07
-2.4723e-07
8.91322e-07
1.24166e-06
0.00108692
-8.01297e-09
-0.00108692
-7.16359e-11
-1.23775e-06
2.58107e-07
-2.57944e-07
-8.8944e-07
2.45323e-07
-2.47216e-07
8.91168e-07
2.88752e-09
4.73753e-09
0.00108672
-2.5385e-07
1.23561e-06
2.51592e-07
8.89238e-07
-2.487e-07
2.4385e-07
-8.89958e-07
-8.17189e-09
-0.00108759
-2.13716e-10
-1.20403e-06
2.49968e-07
-2.4972e-07
-8.86708e-07
2.42641e-07
8.88545e-07
-2.44474e-07
1.23626e-06
0.00108672
-7.99705e-09
-0.00108672
-8.25865e-11
-1.23235e-06
2.52581e-07
-2.52373e-07
-8.86727e-07
2.42525e-07
-2.44451e-07
8.88466e-07
-2.24981e-07
-2.29839e-07
0.000265218
-1.20259e-06
0.000267201
-0.000265218
2.26848e-07
2.34221e-07
2.8592e-09
4.60042e-09
0.00108777
-2.51252e-07
1.20202e-06
2.49033e-07
8.89444e-07
-2.51493e-07
2.46689e-07
-8.90059e-07
-8.19977e-09
-0.00108725
-2.50718e-10
-1.19862e-06
2.49989e-07
-2.4971e-07
-8.8652e-07
2.45323e-07
8.88366e-07
-2.4714e-07
1.20267e-06
0.00108777
-8.15551e-09
-0.00108776
-1.97693e-10
-1.19875e-06
2.50024e-07
-2.49773e-07
-8.86816e-07
2.45386e-07
-2.47237e-07
8.88688e-07
-0.000265231
2.29143e-07
2.34465e-07
1.23775e-06
1.20149e-06
-2.22377e-07
-2.30134e-07
0.000265235
-1.24101e-06
-1.20477e-06
0.00026723
-0.000265234
2.22553e-07
2.27902e-07
8.11072e-09
0.00108681
-2.55098e-07
1.23847e-06
2.5121e-07
8.8427e-07
-2.4385e-07
-8.86632e-07
2.36749e-07
-1.24321e-06
8.2483e-09
8.16158e-09
0.00108725
-2.57886e-07
1.24393e-06
2.53998e-07
8.89862e-07
-2.467e-07
-8.9224e-07
2.39542e-07
0.00108681
-1.44718e-08
-0.0010868
-1.06188e-08
-1.23524e-06
2.53e-07
-2.4795e-07
-8.7892e-07
2.32895e-07
-2.32715e-07
8.82754e-07
1.24646e-06
0.00108727
-2.50262e-08
-0.00108725
-5.19184e-09
-1.23803e-06
2.53042e-07
-2.50741e-07
-8.79179e-07
2.30239e-07
-2.30156e-07
8.82979e-07
-2.25112e-07
-2.27415e-07
0.000265256
-1.20739e-06
0.000267254
-0.000265253
2.22835e-07
2.30206e-07
7.94483e-09
0.00108786
-2.52466e-07
1.20488e-06
2.51382e-07
8.87146e-07
-2.4665e-07
-8.89362e-07
2.39626e-07
-1.23782e-06
8.18414e-09
8.16217e-09
0.00108692
-2.57878e-07
1.23852e-06
2.53982e-07
8.86989e-07
-2.46619e-07
-8.89376e-07
2.39536e-07
0.00108787
-1.47028e-08
-0.00108786
-5.38666e-09
-1.19901e-06
2.50432e-07
-2.48048e-07
-8.81648e-07
2.33043e-07
-2.32799e-07
8.85623e-07
1.23572e-06
0.00108693
-1.44773e-08
-0.00108692
-1.05941e-08
-1.22997e-06
2.53043e-07
-2.50718e-07
-8.79039e-07
2.32954e-07
-2.3278e-07
8.82848e-07
8.20063e-09
8.10006e-09
0.00108672
-2.52308e-07
1.23312e-06
2.48461e-07
8.84281e-07
-2.43854e-07
2.36746e-07
-8.86658e-07
-1.99484e-08
-0.0010876
-5.34066e-09
-1.19895e-06
2.449e-07
-2.42521e-07
-8.78948e-07
2.32963e-07
8.85524e-07
-2.30043e-07
1.23569e-06
0.00108672
-1.98037e-08
-0.00108672
-5.27277e-09
-1.22726e-06
2.50273e-07
-2.45163e-07
-8.78965e-07
2.32872e-07
-2.30019e-07
8.82767e-07
-2.22552e-07
-2.29935e-07
0.000265217
-1.19933e-06
0.000267203
-0.000265219
2.2279e-07
2.27634e-07
8.09056e-09
8.01155e-09
0.00108777
-2.49711e-07
1.19953e-06
2.45894e-07
8.84508e-07
-2.46639e-07
2.39607e-07
-8.86753e-07
-1.47087e-08
-0.00108726
-1.07312e-08
-1.19354e-06
2.44912e-07
-2.425e-07
-8.76065e-07
2.32966e-07
8.7999e-07
-2.32685e-07
1.19939e-06
0.00108777
-1.46535e-08
-0.00108777
-1.06508e-08
-1.18832e-06
2.44939e-07
-2.39819e-07
-8.7367e-07
2.30316e-07
-2.30074e-07
8.80271e-07
-0.000265234
2.22593e-07
2.30411e-07
1.23329e-06
1.19438e-06
-2.1698e-07
-2.1967e-07
0.000265239
-1.28815e-06
-1.25186e-06
0.000267306
-0.000265263
2.45638e-07
2.51046e-07
1.41403e-08
0.00108681
-2.48683e-07
1.23701e-06
2.45264e-07
8.76041e-07
-2.32073e-07
-8.79492e-07
2.21478e-07
-1.23871e-06
1.17652e-08
9.03191e-09
0.00108725
-2.51484e-07
1.23977e-06
2.48035e-07
8.79035e-07
-2.29475e-07
-8.79813e-07
2.24215e-07
0.00108709
-3.4093e-07
-0.00108691
-1.63273e-07
-1.19267e-06
2.73563e-07
-2.10274e-07
-8.21754e-07
2.45393e-07
-1.74613e-07
9.15384e-07
1.29354e-06
0.00108752
-3.40952e-07
-0.00108735
-1.57753e-07
-1.19819e-06
2.73528e-07
-2.10387e-07
-8.30114e-07
2.48136e-07
-1.74709e-07
9.237e-07
-2.17219e-07
-2.22035e-07
0.000265254
-1.25184e-06
0.00026733
-0.000265284
2.48459e-07
2.5072e-07
8.8503e-09
0.00108788
-2.46032e-07
1.19537e-06
2.399e-07
8.76284e-07
-2.32129e-07
-8.79593e-07
2.24336e-07
-1.22801e-06
1.40519e-09
8.93577e-09
0.00108693
-2.48673e-07
1.2317e-06
2.45258e-07
8.76168e-07
-2.29396e-07
-8.7963e-07
2.21521e-07
0.00108813
-3.47087e-07
-0.00108796
-1.57706e-07
-1.15377e-06
2.70905e-07
-2.04924e-07
-8.27113e-07
2.48341e-07
-1.74584e-07
9.21021e-07
1.28547e-06
0.00108721
-3.46364e-07
-0.00108702
-1.63188e-07
-1.19011e-06
2.73587e-07
-2.07592e-07
-8.245e-07
2.4821e-07
-1.77289e-07
9.18187e-07
6.52002e-09
8.92309e-09
0.00108672
-2.48633e-07
1.23165e-06
2.45249e-07
8.76107e-07
-2.2934e-07
2.21462e-07
-8.76866e-07
-3.41527e-07
-0.00108769
-1.6289e-07
-1.15639e-06
2.68096e-07
-2.02217e-07
-8.24515e-07
2.45452e-07
9.182e-07
-1.74609e-07
1.28544e-06
0.00108699
-3.40971e-07
-0.00108682
-1.63271e-07
-1.18737e-06
2.73549e-07
-2.04795e-07
-8.2445e-07
2.48127e-07
-1.77296e-07
9.18104e-07