/*--------------------------------*- C++ -*----------------------------------*\
| =========                 |                                                 |
| \\      /  F ield         | OpenFOAM: The Open Source CFD Toolbox           |
|  \\    /   O peration     | Version:  2206                                  |
|   \\  /    A nd           | Website:  www.openfoam.com                      |
|    \\/     M anipulation  |                                                 |
\*---------------------------------------------------------------------------*/
FoamFile
{
    version     2.0;
    format      ascii;
    arch        "LSB;label=32;scalar=64";
    class       volScalarField;
    location    "36.5";
    object      p;
}
// * * * * * * * * * * * * * * * * * * * * * * * * * * * * * * * * * * * * * //

dimensions      [0 2 -2 0 0 0 0];

internalField   nonuniform List<scalar> 
171728
(
0.00386757
0.0038679
0.0038679
0.00387095
0.00381221
0.00381263
0.00381263
0.00381562
0.00376146
0.00376144
0.00376143
0.00376419
0.00370908
0.00370909
0.00370909
0.00371186
0.00365774
0.00365775
0.00365775
0.0036605
0.00360778
0.00360777
0.00360777
0.00361049
0.0035595
0.00355937
0.00355937
0.00356197
0.00351418
0.00351403
0.00351404
0.00351643
0.00347248
0.00347239
0.00347239
0.00347482
0.00343188
0.00343183
0.00343183
0.00343424
0.00339147
0.00339142
0.00339142
0.00339382
0.00335111
0.00335107
0.00335107
0.00335346
0.00331076
0.00331072
0.00331072
0.00331311
0.00327041
0.00327037
0.00327037
0.00327276
0.00323006
0.00323002
0.00323002
0.00323241
0.00318971
0.00318967
0.00318967
0.00319206
0.00314936
0.00314932
0.00314932
0.00315171
0.003109
0.00310896
0.00310896
0.00311135
0.00306864
0.0030686
0.0030686
0.00307099
0.00302828
0.00302824
0.00302824
0.00303064
0.00298792
0.00298788
0.00298788
0.00299027
0.00294756
0.00294752
0.00294752
0.00294991
0.00290719
0.00290715
0.00290715
0.00290954
0.00286682
0.00286678
0.00286678
0.00286918
0.00282645
0.00282641
0.00282641
0.00282881
0.00278608
0.00278604
0.00278604
0.00278844
0.00274571
0.00274567
0.00274567
0.00274807
0.00270534
0.0027053
0.0027053
0.00270769
0.00266497
0.00266493
0.00266493
0.00266732
0.0026246
0.00262456
0.00262456
0.00262695
0.00258423
0.00258419
0.00258419
0.00258658
0.00254385
0.00254381
0.00254381
0.0025462
0.00250348
0.00250344
0.00250344
0.00250583
0.0024631
0.00246306
0.00246306
0.00246545
0.00242272
0.00242268
0.00242268
0.00242508
0.00238234
0.0023823
0.0023823
0.0023847
0.00234196
0.00234192
0.00234192
0.00234432
0.00230158
0.00230154
0.00230154
0.00230394
0.0022612
0.00226116
0.00226116
0.00226355
0.00222082
0.00222078
0.00222078
0.00222317
0.00218044
0.0021804
0.0021804
0.00218279
0.00214006
0.00214002
0.00214002
0.00214241
0.00209967
0.00209963
0.00209963
0.00210203
0.00205929
0.00205925
0.00205925
0.00206164
0.00201891
0.00201887
0.00201887
0.00202126
0.00197852
0.00197848
0.00197848
0.00198088
0.00193814
0.0019381
0.0019381
0.00194049
0.00189775
0.00189771
0.00189771
0.00190011
0.00185737
0.00185733
0.00185733
0.00185972
0.00181698
0.00181694
0.00181694
0.00181934
0.0017766
0.00177656
0.00177656
0.00177895
0.00173621
0.00173617
0.00173617
0.00173857
0.00169583
0.00169579
0.00169579
0.00169818
0.00165545
0.00165541
0.00165541
0.0016578
0.00161506
0.00161502
0.00161502
0.00161742
0.00157468
0.00157464
0.00157464
0.00157703
0.0015343
0.00153426
0.00153426
0.00153665
0.00149391
0.00149387
0.00149387
0.00149626
0.00145353
0.00145349
0.00145349
0.00145588
0.00141314
0.0014131
0.0014131
0.00141549
0.00137276
0.00137272
0.00137272
0.00137511
0.00133238
0.00133234
0.00133234
0.00133473
0.00129199
0.00129195
0.00129195
0.00129435
0.00125161
0.00125157
0.00125157
0.00125397
0.00121123
0.00121119
0.00121119
0.00121359
0.00117086
0.00117082
0.00117082
0.00117321
0.00113048
0.00113044
0.00113044
0.00113283
0.0010901
0.00109006
0.00109006
0.00109245
0.00104972
0.00104968
0.00104968
0.00105208
0.00100935
0.00100931
0.00100931
0.0010117
0.000968968
0.000968928
0.000968928
0.000971322
0.000928589
0.000928549
0.000928549
0.000930943
0.000888211
0.00088817
0.000888171
0.000890564
0.000847832
0.000847792
0.000847792
0.000850186
0.000807454
0.000807414
0.000807414
0.000809808
0.000767076
0.000767036
0.000767036
0.000769429
0.000726699
0.000726658
0.000726658
0.000729052
0.000686322
0.000686282
0.000686282
0.000688675
0.000645949
0.000645909
0.000645908
0.000648302
0.000605577
0.000605537
0.000605537
0.00060793
0.000565206
0.000565166
0.000565166
0.000567559
0.000524835
0.000524795
0.000524795
0.000527188
0.000484464
0.000484423
0.000484424
0.000486817
0.000444092
0.000444052
0.000444052
0.000446445
0.00040372
0.00040368
0.00040368
0.000406073
0.000363347
0.000363308
0.000363308
0.000365701
0.000322972
0.000322933
0.000322933
0.000325326
0.000282596
0.000282552
0.000282552
0.000284944
0.000242222
0.000242187
0.000242187
0.000244575
0.000201838
0.000201794
0.000201794
0.000204183
0.000161451
0.000161411
0.000161411
0.00016379
0.000121054
0.000121022
0.000121022
0.000123388
8.06609e-05
8.06156e-05
8.06142e-05
8.29526e-05
4.09544e-05
4.04027e-05
4.04004e-05
4.26049e-05
8.37632e-06
8.50847e-06
8.5063e-06
8.05406e-06
0.00388098
0.0038812
0.0038812
0.00388098
0.0038812
0.0038812
0.00388196
0.00388196
0.00388196
0.00388196
0.0038812
0.0038812
0.00388098
0.0038812
0.0038812
0.00388098
0.00387095
0.00382219
0.00386789
0.00386789
0.00382447
0.00382447
0.00387095
0.00382219
0.0038679
0.00386789
0.00382447
0.00382447
0.00386789
0.00382447
0.00382447
0.00387095
0.00382219
0.0038679
0.00382447
0.00382447
0.00382219
0.00381562
0.00377112
0.00381263
0.00381263
0.00377456
0.00377456
0.00381562
0.00377112
0.00381263
0.00381263
0.00377456
0.00377456
0.00381263
0.00377456
0.00377456
0.00381562
0.00377111
0.00381263
0.00377456
0.00377456
0.00377112
0.00376419
0.00371874
0.00376144
0.00376144
0.00372211
0.00372211
0.00376419
0.00371874
0.00376144
0.00376144
0.00372211
0.00372211
0.00376144
0.00372211
0.00372211
0.00376419
0.00371874
0.00376144
0.00372211
0.00372211
0.00371874
0.00371186
0.00366721
0.00370909
0.00370909
0.00367047
0.00367047
0.00371186
0.00366721
0.00370909
0.00370909
0.00367047
0.00367047
0.00370909
0.00367047
0.00367047
0.00371186
0.00366721
0.00370909
0.00367047
0.00367047
0.00366721
0.0036605
0.00361699
0.00365775
0.00365775
0.00362011
0.00362011
0.0036605
0.00361699
0.00365775
0.00365775
0.00362011
0.00362011
0.00365775
0.00362011
0.00362011
0.0036605
0.00361699
0.00365775
0.00362011
0.00362011
0.00361699
0.00361049
0.00356825
0.00360777
0.00360777
0.00357129
0.00357129
0.00361049
0.00356825
0.00360777
0.00360777
0.00357129
0.0035713
0.00360777
0.00357129
0.0035713
0.00361049
0.00356825
0.00360777
0.00357129
0.00357129
0.00356825
0.00356197
0.00352211
0.00355936
0.00355936
0.00352501
0.00352501
0.00356197
0.00352211
0.00355937
0.00355937
0.00352501
0.00352501
0.00355937
0.00352501
0.00352501
0.00356197
0.00352211
0.00355936
0.00352501
0.00352501
0.00352212
0.00351643
0.00348018
0.00351403
0.00351403
0.0034826
0.0034826
0.00351643
0.00348018
0.00351404
0.00351404
0.0034826
0.0034826
0.00351404
0.0034826
0.0034826
0.00351643
0.00348018
0.00351403
0.0034826
0.0034826
0.00348018
0.00347482
0.00343956
0.00347239
0.00347239
0.00344195
0.00344195
0.00347482
0.00343956
0.00347239
0.00347239
0.00344195
0.00344195
0.00347239
0.00344195
0.00344195
0.00347482
0.00343956
0.00347239
0.00344195
0.00344195
0.00343956
0.00343424
0.00339913
0.00343183
0.00343183
0.00340152
0.00340151
0.00343424
0.00339913
0.00343183
0.00343183
0.00340152
0.00340152
0.00343183
0.00340151
0.00340152
0.00343424
0.00339913
0.00343183
0.00340152
0.00340152
0.00339913
0.00339382
0.00335877
0.00339142
0.00339142
0.00336116
0.00336116
0.00339382
0.00335877
0.00339142
0.00339142
0.00336116
0.00336116
0.00339142
0.00336116
0.00336116
0.00339382
0.00335877
0.00339142
0.00336116
0.00336116
0.00335877
0.00335346
0.00331842
0.00335107
0.00335107
0.00332081
0.00332081
0.00335346
0.00331842
0.00335107
0.00335107
0.00332081
0.00332081
0.00335107
0.00332081
0.00332081
0.00335346
0.00331842
0.00335107
0.00332081
0.00332081
0.00331842
0.00331311
0.00327808
0.00331072
0.00331072
0.00328046
0.00328046
0.00331311
0.00327808
0.00331072
0.00331072
0.00328046
0.00328046
0.00331072
0.00328046
0.00328046
0.00331311
0.00327807
0.00331072
0.00328046
0.00328046
0.00327807
0.00327276
0.00323772
0.00327037
0.00327037
0.00324011
0.00324011
0.00327276
0.00323773
0.00327037
0.00327037
0.00324011
0.00324011
0.00327037
0.00324011
0.00324011
0.00327276
0.00323772
0.00327037
0.00324011
0.00324011
0.00323772
0.00323241
0.00319737
0.00323002
0.00323002
0.00319976
0.00319976
0.00323241
0.00319737
0.00323002
0.00323002
0.00319976
0.00319976
0.00323002
0.00319976
0.00319976
0.00323241
0.00319737
0.00323002
0.00319976
0.00319976
0.00319737
0.00319206
0.00315702
0.00318967
0.00318967
0.0031594
0.0031594
0.00319206
0.00315702
0.00318967
0.00318967
0.0031594
0.00315941
0.00318967
0.0031594
0.00315941
0.00319206
0.00315702
0.00318967
0.00315941
0.00315941
0.00315702
0.00315171
0.00311667
0.00314932
0.00314932
0.00311905
0.00311905
0.00315171
0.00311667
0.00314932
0.00314932
0.00311905
0.00311905
0.00314932
0.00311905
0.00311905
0.00315171
0.00311667
0.00314932
0.00311905
0.00311905
0.00311667
0.00311135
0.00307631
0.00310896
0.00310896
0.00307869
0.00307869
0.00311135
0.00307631
0.00310896
0.00310896
0.00307869
0.00307869
0.00310896
0.00307869
0.00307869
0.00311135
0.00307631
0.00310896
0.00307869
0.00307869
0.00307631
0.003071
0.00303595
0.0030686
0.0030686
0.00303833
0.00303833
0.00307099
0.00303595
0.0030686
0.0030686
0.00303833
0.00303833
0.0030686
0.00303833
0.00303833
0.00307099
0.00303595
0.0030686
0.00303833
0.00303833
0.00303595
0.00303063
0.00299559
0.00302824
0.00302824
0.00299797
0.00299797
0.00303063
0.00299559
0.00302824
0.00302824
0.00299797
0.00299797
0.00302824
0.00299797
0.00299797
0.00303063
0.00299559
0.00302824
0.00299797
0.00299797
0.00299559
0.00299027
0.00295522
0.00298788
0.00298788
0.00295761
0.00295761
0.00299027
0.00295522
0.00298788
0.00298788
0.00295761
0.00295761
0.00298788
0.00295761
0.00295761
0.00299027
0.00295522
0.00298788
0.00295761
0.00295761
0.00295522
0.00294991
0.00291486
0.00294752
0.00294752
0.00291724
0.00291724
0.00294991
0.00291486
0.00294752
0.00294752
0.00291724
0.00291724
0.00294752
0.00291724
0.00291724
0.00294991
0.00291486
0.00294752
0.00291724
0.00291724
0.00291486
0.00290954
0.00287449
0.00290715
0.00290715
0.00287687
0.00287687
0.00290954
0.00287449
0.00290715
0.00290715
0.00287687
0.00287687
0.00290715
0.00287687
0.00287687
0.00290954
0.00287449
0.00290715
0.00287687
0.00287687
0.00287449
0.00286917
0.00283412
0.00286678
0.00286678
0.00283651
0.00283651
0.00286918
0.00283412
0.00286678
0.00286678
0.00283651
0.00283651
0.00286678
0.00283651
0.00283651
0.00286917
0.00283412
0.00286678
0.00283651
0.00283651
0.00283412
0.00282881
0.00279375
0.00282641
0.00282641
0.00279614
0.00279614
0.00282881
0.00279375
0.00282641
0.00282641
0.00279614
0.00279614
0.00282641
0.00279614
0.00279614
0.00282881
0.00279375
0.00282641
0.00279614
0.00279614
0.00279375
0.00278844
0.00275338
0.00278604
0.00278604
0.00275577
0.00275577
0.00278844
0.00275338
0.00278604
0.00278604
0.00275577
0.00275577
0.00278604
0.00275577
0.00275577
0.00278844
0.00275338
0.00278604
0.00275577
0.00275577
0.00275338
0.00274807
0.00271301
0.00274567
0.00274567
0.00271539
0.00271539
0.00274807
0.00271301
0.00274567
0.00274567
0.00271539
0.00271539
0.00274567
0.00271539
0.00271539
0.00274807
0.00271301
0.00274567
0.00271539
0.00271539
0.00271301
0.00270769
0.00267264
0.0027053
0.0027053
0.00267502
0.00267502
0.00270769
0.00267264
0.0027053
0.0027053
0.00267502
0.00267502
0.0027053
0.00267502
0.00267502
0.00270769
0.00267264
0.0027053
0.00267502
0.00267502
0.00267264
0.00266732
0.00263227
0.00266493
0.00266493
0.00263465
0.00263465
0.00266732
0.00263227
0.00266493
0.00266493
0.00263465
0.00263465
0.00266493
0.00263465
0.00263465
0.00266732
0.00263227
0.00266493
0.00263465
0.00263465
0.00263227
0.00262695
0.00259189
0.00262456
0.00262456
0.00259428
0.00259428
0.00262695
0.00259189
0.00262456
0.00262456
0.00259428
0.00259428
0.00262456
0.00259428
0.00259428
0.00262695
0.00259189
0.00262456
0.00259428
0.00259428
0.00259189
0.00258658
0.00255152
0.00258419
0.00258419
0.00255391
0.0025539
0.00258658
0.00255152
0.00258419
0.00258419
0.00255391
0.00255391
0.00258419
0.0025539
0.00255391
0.00258658
0.00255152
0.00258419
0.00255391
0.00255391
0.00255152
0.0025462
0.00251114
0.00254381
0.00254381
0.00251353
0.00251353
0.0025462
0.00251114
0.00254381
0.00254381
0.00251353
0.00251353
0.00254381
0.00251353
0.00251353
0.00254621
0.00251114
0.00254381
0.00251353
0.00251353
0.00251114
0.00250583
0.00247077
0.00250344
0.00250344
0.00247315
0.00247315
0.00250583
0.00247077
0.00250344
0.00250344
0.00247315
0.00247315
0.00250344
0.00247315
0.00247315
0.00250583
0.00247077
0.00250344
0.00247315
0.00247315
0.00247077
0.00246545
0.00243039
0.00246306
0.00246306
0.00243278
0.00243278
0.00246545
0.00243039
0.00246306
0.00246306
0.00243278
0.00243278
0.00246306
0.00243278
0.00243278
0.00246545
0.00243039
0.00246306
0.00243278
0.00243278
0.00243039
0.00242508
0.00239001
0.00242268
0.00242268
0.0023924
0.0023924
0.00242508
0.00239001
0.00242268
0.00242268
0.0023924
0.0023924
0.00242268
0.0023924
0.0023924
0.00242508
0.00239001
0.00242268
0.0023924
0.0023924
0.00239001
0.0023847
0.00234963
0.0023823
0.0023823
0.00235202
0.00235202
0.0023847
0.00234963
0.0023823
0.0023823
0.00235202
0.00235202
0.0023823
0.00235202
0.00235202
0.0023847
0.00234963
0.0023823
0.00235202
0.00235202
0.00234963
0.00234432
0.00230925
0.00234192
0.00234192
0.00231164
0.00231164
0.00234432
0.00230925
0.00234192
0.00234192
0.00231164
0.00231164
0.00234192
0.00231164
0.00231164
0.00234432
0.00230925
0.00234192
0.00231164
0.00231164
0.00230925
0.00230394
0.00226887
0.00230154
0.00230154
0.00227126
0.00227126
0.00230394
0.00226887
0.00230154
0.00230154
0.00227126
0.00227126
0.00230154
0.00227126
0.00227126
0.00230394
0.00226887
0.00230154
0.00227126
0.00227126
0.00226887
0.00226355
0.00222849
0.00226116
0.00226116
0.00223088
0.00223088
0.00226355
0.00222849
0.00226116
0.00226116
0.00223088
0.00223088
0.00226116
0.00223088
0.00223088
0.00226355
0.00222849
0.00226116
0.00223088
0.00223088
0.00222849
0.00222317
0.00218811
0.00222078
0.00222078
0.00219049
0.00219049
0.00222317
0.00218811
0.00222078
0.00222078
0.00219049
0.00219049
0.00222078
0.00219049
0.00219049
0.00222317
0.00218811
0.00222078
0.00219049
0.00219049
0.00218811
0.00218279
0.00214773
0.0021804
0.0021804
0.00215011
0.00215011
0.00218279
0.00214773
0.0021804
0.0021804
0.00215011
0.00215011
0.0021804
0.00215011
0.00215011
0.00218279
0.00214773
0.0021804
0.00215011
0.00215011
0.00214773
0.00214241
0.00210734
0.00214002
0.00214002
0.00210973
0.00210973
0.00214241
0.00210734
0.00214002
0.00214002
0.00210973
0.00210973
0.00214002
0.00210973
0.00210973
0.00214241
0.00210734
0.00214002
0.00210973
0.00210973
0.00210734
0.00210203
0.00206696
0.00209963
0.00209963
0.00206935
0.00206935
0.00210203
0.00206696
0.00209963
0.00209963
0.00206934
0.00206935
0.00209963
0.00206935
0.00206935
0.00210203
0.00206696
0.00209963
0.00206935
0.00206935
0.00206696
0.00206164
0.00202658
0.00205925
0.00205925
0.00202896
0.00202896
0.00206164
0.00202658
0.00205925
0.00205925
0.00202896
0.00202896
0.00205925
0.00202896
0.00202896
0.00206164
0.00202658
0.00205925
0.00202896
0.00202896
0.00202658
0.00202126
0.00198619
0.00201887
0.00201887
0.00198858
0.00198858
0.00202126
0.00198619
0.00201887
0.00201887
0.00198858
0.00198858
0.00201887
0.00198858
0.00198858
0.00202126
0.00198619
0.00201887
0.00198858
0.00198858
0.00198619
0.00198088
0.00194581
0.00197848
0.00197848
0.00194819
0.00194819
0.00198088
0.00194581
0.00197848
0.00197848
0.00194819
0.00194819
0.00197848
0.00194819
0.00194819
0.00198088
0.00194581
0.00197848
0.00194819
0.00194819
0.00194581
0.00194049
0.00190542
0.0019381
0.0019381
0.00190781
0.00190781
0.00194049
0.00190542
0.0019381
0.0019381
0.00190781
0.00190781
0.0019381
0.00190781
0.00190781
0.00194049
0.00190542
0.0019381
0.00190781
0.00190781
0.00190542
0.00190011
0.00186504
0.00189771
0.00189771
0.00186742
0.00186742
0.00190011
0.00186504
0.00189771
0.00189771
0.00186742
0.00186742
0.00189771
0.00186742
0.00186742
0.00190011
0.00186504
0.00189771
0.00186742
0.00186742
0.00186504
0.00185972
0.00182465
0.00185733
0.00185733
0.00182704
0.00182704
0.00185972
0.00182465
0.00185733
0.00185733
0.00182704
0.00182704
0.00185733
0.00182704
0.00182704
0.00185972
0.00182465
0.00185733
0.00182704
0.00182704
0.00182465
0.00181934
0.00178427
0.00181694
0.00181694
0.00178665
0.00178665
0.00181934
0.00178427
0.00181694
0.00181694
0.00178665
0.00178665
0.00181694
0.00178665
0.00178665
0.00181934
0.00178427
0.00181694
0.00178665
0.00178665
0.00178427
0.00177895
0.00174388
0.00177656
0.00177656
0.00174627
0.00174627
0.00177895
0.00174388
0.00177656
0.00177656
0.00174627
0.00174627
0.00177656
0.00174627
0.00174627
0.00177895
0.00174388
0.00177656
0.00174627
0.00174627
0.00174388
0.00173857
0.0017035
0.00173617
0.00173617
0.00170589
0.00170589
0.00173857
0.0017035
0.00173617
0.00173617
0.00170589
0.00170589
0.00173617
0.00170589
0.00170589
0.00173857
0.0017035
0.00173617
0.00170589
0.00170589
0.0017035
0.00169818
0.00166312
0.00169579
0.00169579
0.0016655
0.0016655
0.00169818
0.00166312
0.00169579
0.00169579
0.0016655
0.0016655
0.00169579
0.0016655
0.0016655
0.00169818
0.00166312
0.00169579
0.0016655
0.0016655
0.00166312
0.0016578
0.00162273
0.00165541
0.00165541
0.00162512
0.00162512
0.0016578
0.00162273
0.00165541
0.00165541
0.00162512
0.00162512
0.00165541
0.00162512
0.00162512
0.0016578
0.00162273
0.00165541
0.00162512
0.00162512
0.00162273
0.00161742
0.00158235
0.00161502
0.00161502
0.00158473
0.00158474
0.00161742
0.00158235
0.00161502
0.00161502
0.00158473
0.00158473
0.00161502
0.00158473
0.00158473
0.00161742
0.00158235
0.00161502
0.00158473
0.00158473
0.00158235
0.00157703
0.00154197
0.00157464
0.00157464
0.00154435
0.00154435
0.00157703
0.00154197
0.00157464
0.00157464
0.00154435
0.00154435
0.00157464
0.00154435
0.00154435
0.00157703
0.00154197
0.00157464
0.00154435
0.00154435
0.00154197
0.00153665
0.00150158
0.00153426
0.00153426
0.00150397
0.00150397
0.00153665
0.00150158
0.00153426
0.00153426
0.00150397
0.00150397
0.00153426
0.00150397
0.00150397
0.00153665
0.00150158
0.00153426
0.00150397
0.00150397
0.00150158
0.00149626
0.0014612
0.00149387
0.00149387
0.00146358
0.00146358
0.00149626
0.0014612
0.00149387
0.00149387
0.00146358
0.00146358
0.00149387
0.00146358
0.00146358
0.00149626
0.0014612
0.00149387
0.00146358
0.00146358
0.0014612
0.00145588
0.00142081
0.00145349
0.00145349
0.0014232
0.0014232
0.00145588
0.00142081
0.00145349
0.00145349
0.0014232
0.0014232
0.00145349
0.0014232
0.0014232
0.00145588
0.00142081
0.00145349
0.0014232
0.0014232
0.00142081
0.00141549
0.00138043
0.0014131
0.0014131
0.00138281
0.00138281
0.00141549
0.00138043
0.0014131
0.0014131
0.00138281
0.00138281
0.0014131
0.00138281
0.00138281
0.00141549
0.00138043
0.0014131
0.00138281
0.00138281
0.00138043
0.00137511
0.00134004
0.00137272
0.00137272
0.00134243
0.00134243
0.00137511
0.00134004
0.00137272
0.00137272
0.00134243
0.00134243
0.00137272
0.00134243
0.00134243
0.00137511
0.00134004
0.00137272
0.00134243
0.00134243
0.00134004
0.00133473
0.00129966
0.00133233
0.00133233
0.00130205
0.00130205
0.00133473
0.00129966
0.00133233
0.00133233
0.00130205
0.00130205
0.00133234
0.00130205
0.00130205
0.00133473
0.00129966
0.00133234
0.00130205
0.00130205
0.00129966
0.00129435
0.00125928
0.00129195
0.00129195
0.00126167
0.00126167
0.00129435
0.00125928
0.00129195
0.00129195
0.00126167
0.00126167
0.00129195
0.00126167
0.00126167
0.00129435
0.00125928
0.00129195
0.00126167
0.00126167
0.00125928
0.00125397
0.0012189
0.00125157
0.00125157
0.00122129
0.00122129
0.00125397
0.0012189
0.00125157
0.00125157
0.00122129
0.00122129
0.00125157
0.00122129
0.00122129
0.00125397
0.0012189
0.00125157
0.00122129
0.00122129
0.0012189
0.00121359
0.00117852
0.00121119
0.00121119
0.00118091
0.00118091
0.00121359
0.00117852
0.00121119
0.00121119
0.00118091
0.00118091
0.00121119
0.00118091
0.00118091
0.00121359
0.00117853
0.00121119
0.00118091
0.00118091
0.00117852
0.00117321
0.00113815
0.00117082
0.00117082
0.00114053
0.00114053
0.00117321
0.00113815
0.00117082
0.00117082
0.00114053
0.00114053
0.00117082
0.00114053
0.00114053
0.00117321
0.00113815
0.00117082
0.00114053
0.00114053
0.00113815
0.00113283
0.00109777
0.00113044
0.00113044
0.00110016
0.00110016
0.00113283
0.00109777
0.00113044
0.00113044
0.00110016
0.00110016
0.00113044
0.00110016
0.00110016
0.00113283
0.00109777
0.00113044
0.00110016
0.00110016
0.00109777
0.00109246
0.00105739
0.00109006
0.00109006
0.00105978
0.00105978
0.00109245
0.00105739
0.00109006
0.00109006
0.00105978
0.00105978
0.00109006
0.00105978
0.00105978
0.00109245
0.00105739
0.00109006
0.00105978
0.00105978
0.00105739
0.00105208
0.00101702
0.00104968
0.00104968
0.0010194
0.0010194
0.00105208
0.00101702
0.00104968
0.00104968
0.0010194
0.0010194
0.00104968
0.0010194
0.0010194
0.00105208
0.00101701
0.00104968
0.0010194
0.0010194
0.00101701
0.0010117
0.000976637
0.00100931
0.00100931
0.000979022
0.000979022
0.0010117
0.000976637
0.00100931
0.00100931
0.000979022
0.000979022
0.00100931
0.000979022
0.000979023
0.0010117
0.000976637
0.00100931
0.000979023
0.000979023
0.000976637
0.000971321
0.000936258
0.000968928
0.000968928
0.000938644
0.000938644
0.000971321
0.000936258
0.000968927
0.000968928
0.000938644
0.000938644
0.000968928
0.000938644
0.000938644
0.000971321
0.000936258
0.000968928
0.000938644
0.000938644
0.000936258
0.000930943
0.000895879
0.000928549
0.000928549
0.000898265
0.000898265
0.000930943
0.00089588
0.000928549
0.000928549
0.000898265
0.000898265
0.000928549
0.000898265
0.000898265
0.000930943
0.00089588
0.000928549
0.000898265
0.000898265
0.000895879
0.000890564
0.000855501
0.00088817
0.00088817
0.000857887
0.000857887
0.000890564
0.000855501
0.00088817
0.000888171
0.000857887
0.000857887
0.000888171
0.000857887
0.000857887
0.000890564
0.000855501
0.000888171
0.000857887
0.000857887
0.000855501
0.000850186
0.000815123
0.000847792
0.000847792
0.000817508
0.000817508
0.000850186
0.000815123
0.000847792
0.000847792
0.000817508
0.000817508
0.000847792
0.000817508
0.000817509
0.000850186
0.000815123
0.000847792
0.000817508
0.000817508
0.000815123
0.000809807
0.000774745
0.000807414
0.000807414
0.00077713
0.00077713
0.000809807
0.000774745
0.000807414
0.000807414
0.00077713
0.00077713
0.000807414
0.00077713
0.00077713
0.000809807
0.000774744
0.000807414
0.00077713
0.00077713
0.000774744
0.000769429
0.000734367
0.000767036
0.000767036
0.000736753
0.000736752
0.000769429
0.000734367
0.000767036
0.000767036
0.000736753
0.000736752
0.000767036
0.000736752
0.000736753
0.000769429
0.000734367
0.000767036
0.000736752
0.000736752
0.000734367
0.000729052
0.00069399
0.000726658
0.000726658
0.000696376
0.000696376
0.000729052
0.00069399
0.000726658
0.000726658
0.000696376
0.000696376
0.000726658
0.000696376
0.000696376
0.000729052
0.00069399
0.000726658
0.000696376
0.000696376
0.00069399
0.000688675
0.000653616
0.000686282
0.000686282
0.000656002
0.000656002
0.000688675
0.000653616
0.000686282
0.000686282
0.000656001
0.000656002
0.000686282
0.000656002
0.000656002
0.000688675
0.000653616
0.000686282
0.000656002
0.000656002
0.000653616
0.000648302
0.000613244
0.000645909
0.000645908
0.00061563
0.00061563
0.000648302
0.000613244
0.000645908
0.000645909
0.00061563
0.00061563
0.000645909
0.00061563
0.00061563
0.000648302
0.000613244
0.000645908
0.00061563
0.00061563
0.000613244
0.00060793
0.000572873
0.000605537
0.000605537
0.000575258
0.000575258
0.00060793
0.000572873
0.000605537
0.000605537
0.000575258
0.000575258
0.000605537
0.000575258
0.000575259
0.00060793
0.000572873
0.000605537
0.000575258
0.000575258
0.000572873
0.000567559
0.000532502
0.000565166
0.000565166
0.000534887
0.000534887
0.000567559
0.000532502
0.000565165
0.000565166
0.000534887
0.000534887
0.000565166
0.000534887
0.000534888
0.000567559
0.000532502
0.000565166
0.000534887
0.000534887
0.000532502
0.000527188
0.000492131
0.000524795
0.000524795
0.000494516
0.000494516
0.000527188
0.000492131
0.000524794
0.000524795
0.000494516
0.000494516
0.000524795
0.000494516
0.000494516
0.000527188
0.000492131
0.000524795
0.000494516
0.000494516
0.000492131
0.000486817
0.000451759
0.000484424
0.000484423
0.000454145
0.000454145
0.000486817
0.00045176
0.000484423
0.000484424
0.000454145
0.000454145
0.000484424
0.000454145
0.000454145
0.000486817
0.000451759
0.000484423
0.000454145
0.000454145
0.000451759
0.000446445
0.000411387
0.000444052
0.000444052
0.000413773
0.000413773
0.000446445
0.000411388
0.000444052
0.000444052
0.000413773
0.000413773
0.000444052
0.000413773
0.000413773
0.000446445
0.000411387
0.000444052
0.000413773
0.000413773
0.000411387
0.000406073
0.000371015
0.00040368
0.00040368
0.0003734
0.0003734
0.000406073
0.000371015
0.00040368
0.00040368
0.0003734
0.0003734
0.00040368
0.0003734
0.000373401
0.000406073
0.000371015
0.00040368
0.0003734
0.0003734
0.000371015
0.000365701
0.000330641
0.000363308
0.000363308
0.000333027
0.000333027
0.000365701
0.000330641
0.000363307
0.000363308
0.000333027
0.000333027
0.000363308
0.000333027
0.000333027
0.000365701
0.000330641
0.000363308
0.000333027
0.000333027
0.000330641
0.000325326
0.000290263
0.000322933
0.000322933
0.000292645
0.000292645
0.000325326
0.000290263
0.000322933
0.000322933
0.000292645
0.000292646
0.000322933
0.000292646
0.000292646
0.000325326
0.000290263
0.000322933
0.000292646
0.000292645
0.000290263
0.000284944
0.000249895
0.000282552
0.000282551
0.000252284
0.000252284
0.000284944
0.000249896
0.000282551
0.000282552
0.000252284
0.000252284
0.000282552
0.000252284
0.000252284
0.000284945
0.000249895
0.000282551
0.000252284
0.000252284
0.000249895
0.000244574
0.000209509
0.000242187
0.000242187
0.000211889
0.000211889
0.000244574
0.000209509
0.000242187
0.000242187
0.000211889
0.000211889
0.000242187
0.000211889
0.000211889
0.000244575
0.000209509
0.000242187
0.000211889
0.000211889
0.000209509
0.000204183
0.000169131
0.000201794
0.000201794
0.000171515
0.000171515
0.000204183
0.000169131
0.000201794
0.000201794
0.000171515
0.000171515
0.000201794
0.000171515
0.000171515
0.000204183
0.000169131
0.000201794
0.000171515
0.000171515
0.000169131
0.00016379
0.000128745
0.000161411
0.000161411
0.000131126
0.000131127
0.00016379
0.000128745
0.00016141
0.000161411
0.000131126
0.000131126
0.000161411
0.000131126
0.000131126
0.00016379
0.000128745
0.000161411
0.000131126
0.000131126
0.000128745
0.000123388
8.83492e-05
0.000121022
0.000121022
9.07264e-05
9.07269e-05
0.000123389
8.835e-05
0.000121022
0.000121022
9.07261e-05
9.07258e-05
0.000121022
9.07266e-05
9.07262e-05
0.000123388
8.83485e-05
0.000121022
9.07257e-05
9.07257e-05
8.83488e-05
8.29535e-05
4.79896e-05
8.06154e-05
8.06158e-05
5.03713e-05
5.03716e-05
8.29536e-05
4.79906e-05
8.06147e-05
8.06142e-05
5.03693e-05
5.03689e-05
8.06149e-05
5.03703e-05
5.03686e-05
8.2953e-05
4.79873e-05
8.06143e-05
5.03681e-05
5.03674e-05
4.79869e-05
4.26084e-05
1.15169e-05
4.04051e-05
4.04047e-05
1.36646e-05
1.36636e-05
4.26087e-05
1.1516e-05
4.04029e-05
4.04016e-05
1.36624e-05
1.36583e-05
4.04008e-05
1.36609e-05
1.36576e-05
4.26053e-05
1.15115e-05
4.03996e-05
1.36588e-05
1.36591e-05
1.15119e-05
8.05748e-06
8.51041e-06
8.51009e-06
8.05768e-06
8.50865e-06
8.50534e-06
8.3759e-06
8.37369e-06
8.37392e-06
8.50559e-06
8.05352e-06
8.50646e-06
0.00388935
0.00389911
0.00389391
0.00389391
0.00391629
0.00390307
0.00393167
0.00389712
0.00391629
0.00390308
0.00389712
0.00393167
0.00390764
0.00393541
0.00393541
0.00384471
0.00386385
0.00387305
0.00383678
0.00383755
0.00384029
0.00384469
0.00386383
0.00387304
0.00383676
0.00386757
0.00386757
0.00386757
0.00382416
0.00382416
0.00382416
0.00382416
0.00384221
0.00386804
0.00386797
0.00385103
0.00387106
0.00384111
0.00385192
0.00383765
0.00384029
0.00384222
0.00386797
0.00386805
0.00385104
0.00387105
0.00385192
0.00384111
0.00387391
0.0038739
0.00384544
0.00384075
0.00384074
0.00379807
0.00381736
0.00381872
0.0037966
0.00381627
0.00379616
0.00379806
0.00381736
0.00381872
0.00379659
0.00381221
0.00381221
0.00381221
0.00377463
0.00377463
0.00377463
0.00377463
0.00379666
0.00381743
0.00381221
0.00380034
0.00381622
0.00379719
0.00380007
0.00381626
0.00379616
0.00379666
0.00381221
0.00381743
0.00380034
0.00381622
0.00380007
0.00379719
0.00381846
0.00381845
0.00379689
0.00379752
0.00379752
0.00374584
0.00376465
0.0037657
0.00374481
0.00376429
0.00374452
0.00374584
0.00376465
0.0037657
0.00374481
0.00376146
0.00376146
0.00376146
0.00372209
0.00372209
0.00372209
0.00372209
0.00374493
0.00376503
0.00376134
0.0037483
0.00376447
0.0037453
0.0037482
0.00376429
0.00374452
0.00374493
0.00376134
0.00376503
0.0037483
0.00376447
0.0037482
0.0037453
0.00376528
0.00376528
0.00374492
0.00374537
0.00374537
0.00369332
0.00371195
0.0037128
0.00369254
0.00371174
0.00369236
0.00369332
0.00371195
0.0037128
0.00369254
0.00370908
0.00370908
0.00370908
0.00367047
0.00367047
0.00367047
0.00367047
0.0036928
0.00371235
0.00370904
0.00369614
0.00371206
0.00369299
0.00369609
0.00371174
0.00369236
0.0036928
0.00370904
0.00371235
0.00369613
0.00371206
0.00369609
0.00369299
0.00371239
0.00371239
0.00369283
0.00369293
0.00369293
0.0036421
0.00366048
0.00366109
0.00364153
0.00366034
0.00364139
0.0036421
0.00366048
0.00366109
0.00364152
0.00365774
0.00365774
0.00365774
0.00362011
0.00362011
0.00362011
0.00362011
0.00364182
0.00366082
0.00365772
0.00364511
0.00366064
0.00364192
0.00364508
0.00366033
0.00364139
0.00364182
0.00365772
0.00366082
0.00364511
0.00366064
0.00364508
0.00364192
0.00366082
0.00366082
0.0036419
0.00364182
0.00364182
0.00359245
0.00361036
0.00361086
0.00359208
0.00361026
0.00359194
0.00359245
0.00361036
0.00361086
0.00359208
0.00360778
0.00360778
0.00360778
0.00357136
0.00357136
0.00357136
0.00357136
0.00359233
0.00361068
0.00360775
0.00359553
0.00361059