/*--------------------------------*- C++ -*----------------------------------*\
| =========                 |                                                 |
| \\      /  F ield         | OpenFOAM: The Open Source CFD Toolbox           |
|  \\    /   O peration     | Version:  2206                                  |
|   \\  /    A nd           | Website:  www.openfoam.com                      |
|    \\/     M anipulation  |                                                 |
\*---------------------------------------------------------------------------*/
FoamFile
{
    version     2.0;
    format      ascii;
    arch        "LSB;label=32;scalar=64";
    class       volScalarField;
    location    "34";
    object      k;
}
// * * * * * * * * * * * * * * * * * * * * * * * * * * * * * * * * * * * * * //

dimensions      [0 2 -2 0 0 0 0];

internalField   nonuniform List<scalar> 
28448
(
2.46909e-05
2.39972e-05
2.39969e-05
2.33213e-05
2.4691e-05
2.39973e-05
2.39969e-05
2.33214e-05
2.4691e-05
2.39973e-05
2.3997e-05
2.33216e-05
2.46911e-05
2.39974e-05
2.3997e-05
2.33219e-05
2.4691e-05
2.39975e-05
2.3997e-05
2.33221e-05
2.46909e-05
2.39976e-05
2.39971e-05
2.33222e-05
2.46908e-05
2.39972e-05
2.39969e-05
2.33219e-05
2.46892e-05
2.3995e-05
2.39936e-05
2.33182e-05
2.46844e-05
2.39899e-05
2.39895e-05
2.33137e-05
2.46839e-05
2.39895e-05
2.39894e-05
2.33135e-05
2.46839e-05
2.39896e-05
2.39894e-05
2.33135e-05
2.46839e-05
2.39896e-05
2.39894e-05
2.33135e-05
2.46839e-05
2.39896e-05
2.39894e-05
2.33135e-05
2.46839e-05
2.39896e-05
2.39894e-05
2.33135e-05
2.46839e-05
2.39896e-05
2.39894e-05
2.33135e-05
2.46839e-05
2.39896e-05
2.39894e-05
2.33135e-05
2.46839e-05
2.39896e-05
2.39894e-05
2.33135e-05
2.46843e-05
2.39896e-05
2.33255e-05
2.39967e-05
2.39965e-05
2.33255e-05
2.39971e-05
2.39962e-05
2.39972e-05
2.39966e-05
2.33252e-05
2.39969e-05
2.3997e-05
2.33255e-05
2.33215e-05
2.33255e-05
2.39967e-05
2.39965e-05
2.39966e-05
2.39965e-05
2.33215e-05
2.33256e-05
2.39971e-05
2.39963e-05
2.3997e-05
2.39963e-05
2.39968e-05
2.39973e-05
2.39968e-05
2.33211e-05
2.33252e-05
2.39972e-05
2.39969e-05
2.39972e-05
2.33256e-05
2.33215e-05
2.33258e-05
2.39967e-05
2.39966e-05
2.39967e-05
2.39966e-05
2.33215e-05
2.33258e-05
2.39972e-05
2.39964e-05
2.39971e-05
2.39964e-05
2.39969e-05
2.39973e-05
2.39969e-05
2.33212e-05
2.33254e-05
2.39973e-05
2.3997e-05
2.39973e-05
2.33258e-05
2.33218e-05
2.3326e-05
2.39969e-05
2.39968e-05
2.39969e-05
2.39968e-05
2.33218e-05
2.3326e-05
2.39973e-05
2.39966e-05
2.39973e-05
2.39966e-05
2.3997e-05
2.39974e-05
2.3997e-05
2.33214e-05
2.33256e-05
2.39974e-05
2.3997e-05
2.39974e-05
2.33261e-05
2.3322e-05
2.33263e-05
2.3997e-05
2.39969e-05
2.3997e-05
2.39969e-05
2.3322e-05
2.33263e-05
2.39974e-05
2.39968e-05
2.39974e-05
2.39967e-05
2.39972e-05
2.39975e-05
2.39972e-05
2.33216e-05
2.33259e-05
2.39975e-05
2.39971e-05
2.39975e-05
2.33263e-05
2.33222e-05
2.33265e-05
2.39972e-05
2.39971e-05
2.39972e-05
2.39971e-05
2.33222e-05
2.33265e-05
2.39976e-05
2.39968e-05
2.39976e-05
2.39965e-05
2.39973e-05
2.39976e-05
2.3997e-05
2.33219e-05
2.3326e-05
2.39977e-05
2.39971e-05
2.39975e-05
2.33265e-05
2.33225e-05
2.33267e-05
2.39973e-05
2.39971e-05
2.39971e-05
2.39969e-05
2.33225e-05
2.33266e-05
2.39976e-05
2.39964e-05
2.39976e-05
2.39962e-05
2.39969e-05
2.39973e-05
2.39967e-05
2.3322e-05
2.3326e-05
2.39974e-05
2.3997e-05
2.39971e-05
2.33263e-05
2.33226e-05
2.33249e-05
2.3997e-05
2.39968e-05
2.39961e-05
2.39959e-05
2.33225e-05
2.33248e-05
2.39976e-05
2.39962e-05
2.39965e-05
2.39947e-05
2.39966e-05
2.39964e-05
2.39951e-05
2.33219e-05
2.33234e-05
2.3997e-05
2.39954e-05
2.39954e-05
2.33236e-05
2.33201e-05
2.33192e-05
2.39949e-05
2.39947e-05
2.39903e-05
2.39901e-05
2.332e-05
2.33191e-05
2.39952e-05
2.3993e-05
2.39907e-05
2.39891e-05
2.39933e-05
2.39906e-05
2.39896e-05
2.33183e-05
2.3318e-05
2.39937e-05
2.39899e-05
2.39899e-05
2.33183e-05
2.33146e-05
2.33177e-05
2.39896e-05
2.39894e-05
2.3989e-05
2.39889e-05
2.33146e-05
2.33177e-05
2.399e-05
2.39888e-05
2.39895e-05
2.39886e-05
2.39893e-05
2.39895e-05
2.39891e-05
2.33137e-05
2.33173e-05
2.39897e-05
2.39894e-05
2.39895e-05
2.33177e-05
2.33136e-05
2.33177e-05
2.39892e-05
2.3989e-05
2.39891e-05
2.3989e-05
2.33136e-05
2.33177e-05
2.39896e-05
2.39887e-05
2.39895e-05
2.39886e-05
2.39892e-05
2.39896e-05
2.39891e-05
2.33133e-05
2.33173e-05
2.39896e-05
2.39894e-05
2.39895e-05
2.33177e-05
2.33137e-05
2.33178e-05
2.39892e-05
2.39891e-05
2.39891e-05
2.3989e-05
2.33136e-05
2.33178e-05
2.39896e-05
2.39887e-05
2.39895e-05
2.39887e-05
2.39892e-05
2.39896e-05
2.39891e-05
2.33133e-05
2.33174e-05
2.39896e-05
2.39894e-05
2.39895e-05
2.33178e-05
2.33138e-05
2.33177e-05
2.39892e-05
2.39891e-05
2.39891e-05
2.3989e-05
2.33137e-05
2.33177e-05
2.39896e-05
2.39887e-05
2.39895e-05
2.39887e-05
2.39892e-05
2.39896e-05
2.39891e-05
2.33133e-05
2.33174e-05
2.39896e-05
2.39894e-05
2.39895e-05
2.33177e-05
2.33137e-05
2.33178e-05
2.39892e-05
2.39891e-05
2.39891e-05
2.3989e-05
2.33137e-05
2.33178e-05
2.39896e-05
2.39887e-05
2.39895e-05
2.39887e-05
2.39892e-05
2.39896e-05
2.39891e-05
2.33133e-05
2.33174e-05
2.39896e-05
2.39894e-05
2.39895e-05
2.33178e-05
2.33137e-05
2.33178e-05
2.39892e-05
2.39891e-05
2.39891e-05
2.3989e-05
2.33137e-05
2.33178e-05
2.39896e-05
2.39887e-05
2.39895e-05
2.39887e-05
2.39892e-05
2.39896e-05
2.39891e-05
2.33133e-05
2.33174e-05
2.39896e-05
2.39894e-05
2.39895e-05
2.33178e-05
2.33137e-05
2.33178e-05
2.39892e-05
2.39891e-05
2.39891e-05
2.3989e-05
2.33137e-05
2.33177e-05
2.39896e-05
2.39887e-05
2.39895e-05
2.39887e-05
2.39892e-05
2.39896e-05
2.39891e-05
2.33133e-05
2.33174e-05
2.39896e-05
2.39894e-05
2.39895e-05
2.33177e-05
2.33137e-05
2.33178e-05
2.39892e-05
2.39891e-05
2.39891e-05
2.3989e-05
2.33137e-05
2.33178e-05
2.39896e-05
2.39887e-05
2.39895e-05
2.39887e-05
2.39892e-05
2.39896e-05
2.39891e-05
2.33133e-05
2.33174e-05
2.39896e-05
2.39894e-05
2.39895e-05
2.33177e-05
2.33137e-05
2.33178e-05
2.39892e-05
2.39891e-05
2.39893e-05
2.33137e-05
2.39896e-05
2.39887e-05
2.39895e-05
2.39887e-05
2.39892e-05
2.39893e-05
2.33133e-05
2.33174e-05
2.39896e-05
2.39894e-05
2.39897e-05
2.33179e-05
2.3314e-05
2.39896e-05
2.39888e-05
2.33133e-05
2.46909e-05
2.46911e-05
2.46909e-05
2.4691e-05
2.8055e-05
6.98844e-05
2.80565e-05
6.98819e-05
7.68349e-05
7.68331e-05
2.80567e-05
6.98861e-05
2.80579e-05
6.98834e-05
2.46911e-05
2.4691e-05
2.46911e-05
2.4691e-05
2.4691e-05
2.4691e-05
2.4691e-05
2.24787e-05
2.75875e-05
2.43743e-05
2.39974e-05
2.24787e-05
2.75834e-05
2.43745e-05
7.68291e-05
7.68271e-05
2.24786e-05
2.43742e-05
2.75885e-05
2.3997e-05
2.24786e-05
2.43743e-05
2.75844e-05
3.61533e-05
3.61564e-05
2.33255e-05
3.61524e-05
3.61555e-05
2.80576e-05
6.98828e-05
2.80595e-05
6.98809e-05
7.68298e-05
7.68292e-05
2.80594e-05
6.98844e-05
2.8061e-05
6.98822e-05
2.4691e-05
2.4691e-05
2.46911e-05
2.4691e-05
2.46909e-05
2.46909e-05
2.4691e-05
2.24794e-05
2.75903e-05
2.43744e-05
2.39974e-05
2.24794e-05
2.75857e-05
2.43744e-05
7.68255e-05
7.68248e-05
2.24793e-05
2.43742e-05
2.75908e-05
2.3997e-05
2.24793e-05
2.43743e-05
2.75864e-05
3.61573e-05
3.61604e-05
2.33257e-05
3.61558e-05
3.61589e-05
2.80594e-05
6.98825e-05
2.80616e-05
6.98805e-05
7.6828e-05
7.68282e-05
2.80612e-05
6.98838e-05
2.80632e-05
6.98817e-05
2.4691e-05
2.46909e-05
2.46911e-05
2.4691e-05
2.4691e-05
2.46908e-05
2.46911e-05
2.248e-05
2.75918e-05
2.43744e-05
2.39974e-05
2.248e-05
2.75869e-05
2.43745e-05
7.6824e-05
7.68238e-05
2.248e-05
2.43742e-05
2.75922e-05
2.39971e-05
2.248e-05
2.43743e-05
2.75875e-05
3.6159e-05
3.61622e-05
2.3326e-05
3.61568e-05
3.616e-05
2.80604e-05
6.98821e-05
2.80629e-05
6.98802e-05
7.6828e-05
7.68285e-05
2.8062e-05
6.98835e-05
2.80644e-05
6.98816e-05
2.46912e-05
2.46909e-05
2.46912e-05
2.46911e-05
2.46912e-05
2.46908e-05
2.46911e-05
2.24806e-05
2.75928e-05
2.43744e-05
2.39975e-05
2.24807e-05
2.75878e-05
2.43746e-05
7.68237e-05
7.68241e-05
2.24804e-05
2.43742e-05
2.75929e-05
2.39972e-05
2.24806e-05
2.43742e-05
2.75882e-05
3.616e-05
3.61632e-05
2.33262e-05
3.61581e-05
3.61614e-05
2.80608e-05
6.98821e-05
2.80634e-05
6.98804e-05
7.68286e-05
7.68294e-05
2.80624e-05
6.98837e-05
2.80647e-05
6.98819e-05
2.46912e-05
2.46908e-05
2.46911e-05
2.46909e-05
2.46911e-05
2.46906e-05
2.46908e-05
2.2481e-05
2.75935e-05
2.43745e-05
2.39977e-05
2.24811e-05
2.75885e-05
2.43746e-05
7.6825e-05
7.68255e-05
2.24808e-05
2.43741e-05
2.75936e-05
2.39971e-05
2.24809e-05
2.43743e-05
2.75888e-05
3.61617e-05
3.6165e-05
2.33264e-05
3.61597e-05
3.6163e-05
2.80611e-05
6.98826e-05
2.80638e-05
6.98811e-05
7.68298e-05
7.68309e-05
2.80627e-05
6.98842e-05
2.80651e-05
6.98825e-05
2.4691e-05
2.46906e-05
2.46908e-05
2.46908e-05
2.46907e-05
2.46904e-05
2.46905e-05
2.24813e-05
2.75939e-05
2.43744e-05
2.39975e-05
2.24814e-05
2.75886e-05
2.43744e-05
7.68265e-05
7.68273e-05
2.24811e-05
2.43742e-05
2.75939e-05
2.39971e-05
2.24813e-05
2.43742e-05
2.75889e-05
3.61625e-05
3.61658e-05
2.33264e-05
3.61598e-05
3.61632e-05
2.806e-05
6.98842e-05
2.80633e-05
6.98833e-05
7.68317e-05
7.68318e-05
2.80614e-05
6.98857e-05
2.80645e-05
6.98848e-05
2.46907e-05
2.46904e-05
2.46905e-05
2.46902e-05
2.46901e-05
2.46894e-05
2.46895e-05
2.24793e-05
2.75936e-05
2.43742e-05
2.39972e-05
2.24808e-05
2.75879e-05
2.43741e-05
7.68274e-05
7.68267e-05
2.24789e-05
2.4374e-05
2.75937e-05
2.39967e-05
2.24805e-05
2.43738e-05
2.75883e-05
3.61623e-05
3.61655e-05
2.33256e-05
3.61596e-05
3.6163e-05
2.80569e-05
6.98858e-05
2.80615e-05
6.98838e-05
7.68293e-05
7.6829e-05
2.80579e-05
6.98875e-05
2.80623e-05
6.98854e-05
2.46892e-05
2.46879e-05
2.46879e-05
2.46852e-05
2.46851e-05
2.46844e-05
2.46845e-05
2.24725e-05
2.75916e-05
2.43717e-05
2.39934e-05
2.24767e-05
2.75845e-05
2.43703e-05
7.68249e-05
7.68243e-05
2.24721e-05
2.4371e-05
2.75912e-05
2.39921e-05
2.24762e-05
2.43696e-05
2.75843e-05
3.6161e-05
3.61643e-05
2.33205e-05
3.61571e-05
3.61605e-05
2.80529e-05
6.98849e-05
2.80568e-05
6.98827e-05
7.68281e-05
7.68282e-05
2.80543e-05
6.98866e-05
2.80578e-05
6.98843e-05
2.46845e-05
2.46841e-05
2.46842e-05
2.46839e-05
2.4684e-05
2.46839e-05
2.4684e-05
2.24713e-05
2.75871e-05
2.43673e-05
2.39897e-05
2.24716e-05
2.75809e-05
2.43672e-05
7.68237e-05
7.68236e-05
2.24712e-05
2.43671e-05
2.75871e-05
2.39895e-05
2.24715e-05
2.43671e-05
2.75814e-05
3.61577e-05
3.6161e-05
2.33178e-05
3.61545e-05
3.61578e-05
2.80519e-05
6.98842e-05
2.80549e-05
6.98824e-05
7.68278e-05
7.68282e-05
2.80534e-05
6.98859e-05
2.80561e-05
6.98839e-05
2.46842e-05
2.4684e-05
2.46841e-05
2.46839e-05
2.4684e-05
2.46839e-05
2.4684e-05
2.24711e-05
2.75855e-05
2.4367e-05
2.39896e-05
2.24714e-05
2.75801e-05
2.43671e-05
7.68236e-05
7.68236e-05
2.24711e-05
2.43669e-05
2.7586e-05
2.39895e-05
2.24713e-05
2.4367e-05
2.75809e-05
3.61565e-05
3.61598e-05
2.33177e-05
3.61539e-05
3.61572e-05
2.80518e-05
6.98841e-05
2.80546e-05
6.98823e-05
7.68278e-05
7.68282e-05
2.80533e-05
6.98858e-05
2.80559e-05
6.98839e-05
2.46841e-05
2.4684e-05
2.46841e-05
2.46839e-05
2.46841e-05
2.46839e-05
2.4684e-05
2.24711e-05
2.75852e-05
2.4367e-05
2.39897e-05
2.24713e-05
2.758e-05
2.43671e-05
7.68236e-05
7.68236e-05
2.24711e-05
2.43669e-05
2.75858e-05
2.39895e-05
2.24713e-05
2.4367e-05
2.75808e-05
3.61564e-05
3.61596e-05
2.33177e-05
3.61538e-05
3.61572e-05
2.80518e-05
6.98841e-05
2.80546e-05
6.98823e-05
7.68278e-05
7.68282e-05
2.80533e-05
6.98858e-05
2.80559e-05
6.98839e-05
2.46841e-05
2.4684e-05
2.46841e-05
2.46839e-05
2.46841e-05
2.46839e-05
2.4684e-05
2.24711e-05
2.75852e-05
2.4367e-05
2.39897e-05
2.24713e-05
2.758e-05
2.43671e-05
7.68236e-05
7.68236e-05
2.2471e-05
2.43669e-05
2.75858e-05
2.39895e-05
2.24713e-05
2.4367e-05
2.75808e-05
3.61564e-05
3.61596e-05
2.33177e-05
3.61538e-05
3.61572e-05
2.80518e-05
6.98841e-05
2.80546e-05
6.98823e-05
7.68278e-05
7.68282e-05
2.80533e-05
6.98858e-05
2.80559e-05
6.98839e-05
2.46841e-05
2.4684e-05
2.46841e-05
2.46839e-05
2.46841e-05
2.46839e-05
2.4684e-05
2.24711e-05
2.75852e-05
2.4367e-05
2.39897e-05
2.24713e-05
2.758e-05
2.43671e-05
7.68236e-05
7.68236e-05
2.24709e-05
2.43669e-05
2.75858e-05
2.39895e-05
2.24712e-05
2.4367e-05
2.75808e-05
3.61564e-05
3.61596e-05
2.33177e-05
3.61538e-05
3.61572e-05
2.80518e-05
6.98841e-05
2.80546e-05
6.98823e-05
7.68278e-05
7.68282e-05
2.80533e-05
6.98858e-05
2.80559e-05
6.98839e-05
2.46841e-05
2.4684e-05
2.46841e-05
2.4684e-05
2.46841e-05
2.46839e-05
2.4684e-05
2.24711e-05
2.75852e-05
2.4367e-05
2.39897e-05
2.24713e-05
2.758e-05
2.43671e-05
7.68236e-05
7.68236e-05
2.24707e-05
2.43669e-05
2.75858e-05
2.39895e-05
2.2471e-05
2.4367e-05
2.75808e-05
3.61564e-05
3.61596e-05
2.33177e-05
3.61538e-05
3.61571e-05
2.80518e-05
6.98841e-05
2.80546e-05
6.98823e-05
7.68278e-05
7.68282e-05
2.80533e-05
6.98858e-05
2.80559e-05
6.98839e-05
2.46841e-05
2.4684e-05
2.46841e-05
2.4684e-05
2.46841e-05
2.46839e-05
2.4684e-05
2.24711e-05
2.75852e-05
2.4367e-05
2.39897e-05
2.24713e-05
2.758e-05
2.43671e-05
7.68236e-05
7.68236e-05
2.24706e-05
2.43669e-05
2.75858e-05
2.39895e-05
2.24709e-05
2.4367e-05
2.75808e-05
3.61563e-05
3.61596e-05
2.33177e-05
3.61538e-05
3.61571e-05
2.80518e-05
6.98841e-05
2.80546e-05
6.98823e-05
7.68278e-05
7.68282e-05
2.80533e-05
6.98858e-05
2.80559e-05
6.98839e-05
2.46841e-05
2.4684e-05
2.46841e-05
2.46839e-05
2.46841e-05
2.46839e-05
2.4684e-05
2.2471e-05
2.75852e-05
2.4367e-05
2.39897e-05
2.24713e-05
2.758e-05
2.43671e-05
7.68236e-05
7.68236e-05
2.24705e-05
2.43669e-05
2.75858e-05
2.39895e-05
2.24708e-05
2.4367e-05
2.75808e-05
3.61563e-05
3.61596e-05
2.33177e-05
3.61538e-05
3.61571e-05
2.80518e-05
6.98841e-05
2.80546e-05
6.98823e-05
7.68278e-05
7.68282e-05
2.80533e-05
6.98858e-05
2.80559e-05
6.98839e-05
2.46841e-05
2.4684e-05
2.46841e-05
2.4684e-05
2.46844e-05
2.46839e-05
2.46841e-05
2.24711e-05
2.75852e-05
2.4367e-05
2.39896e-05
2.24713e-05
2.758e-05
2.43671e-05
7.68236e-05
7.68236e-05
2.24704e-05
2.43669e-05
2.75858e-05
2.39895e-05
2.24706e-05
2.4367e-05
2.75808e-05
3.61564e-05
3.61596e-05
2.33177e-05
3.61538e-05
3.61571e-05
6.98858e-05
2.80559e-05
2.46841e-05
7.68237e-05
2.75859e-05
7.68367e-05
7.68353e-05
3.6149e-05
3.61513e-05
6.98829e-05
2.80533e-05
6.98867e-05
2.80537e-05
2.75827e-05
2.43744e-05
2.24785e-05
2.7584e-05
2.43744e-05
2.24787e-05
7.68362e-05
3.61522e-05
3.61505e-05
7.68318e-05
6.98844e-05
2.80549e-05
2.75839e-05
2.43745e-05
2.24794e-05
2.80564e-05
6.98808e-05
6.98836e-05
2.80551e-05
2.24789e-05
2.39962e-05
2.43742e-05
2.75831e-05
2.43742e-05
2.75873e-05
2.24787e-05
2.24786e-05
2.75817e-05
2.43743e-05
2.43743e-05
2.24784e-05
2.80559e-05
6.98829e-05
2.80544e-05
2.24786e-05
2.39966e-05
2.43743e-05
2.75832e-05
2.43743e-05
2.75871e-05
2.24784e-05
2.80558e-05
6.98838e-05
6.98864e-05
2.80543e-05
7.68298e-05
7.68319e-05
2.33179e-05
3.61479e-05
3.61501e-05
3.615e-05
3.61522e-05
7.68346e-05
7.68366e-05
2.24786e-05
2.39969e-05
2.43742e-05
2.75831e-05
2.43742e-05
2.7587e-05
2.24783e-05
2.24786e-05
2.3997e-05
2.43743e-05
2.7584e-05
2.43743e-05
2.7588e-05
2.24784e-05
2.80561e-05
6.98842e-05
6.98868e-05
2.80545e-05
2.80561e-05
6.98864e-05
6.9889e-05
2.80549e-05
2.33182e-05
3.61502e-05
3.61534e-05
3.61523e-05
3.61555e-05
7.68346e-05
7.68366e-05
7.68339e-05
7.68359e-05
7.68356e-05
7.68334e-05
7.68342e-05
7.68321e-05
3.61518e-05
3.61542e-05
2.33255e-05
3.61513e-05
3.61538e-05
7.68309e-05
7.68325e-05
7.68296e-05
7.68311e-05
2.33215e-05
3.61534e-05
3.61559e-05
3.61539e-05
3.61564e-05
2.80555e-05
6.98883e-05
2.8057e-05
6.98856e-05
2.24789e-05
2.75882e-05
2.43744e-05
2.39967e-05
2.24792e-05
2.75842e-05
2.43744e-05
2.24791e-05
2.75895e-05
2.43744e-05
2.39965e-05
2.24793e-05
2.75855e-05
2.43744e-05
2.80582e-05
6.98811e-05
6.98835e-05
2.80564e-05
2.80587e-05
6.98848e-05
6.98873e-05
2.80569e-05
2.24796e-05
2.39966e-05
2.75855e-05
2.43743e-05
2.75896e-05
2.43743e-05
2.24794e-05
2.24798e-05
2.39965e-05
2.75868e-05
2.43743e-05
2.7591e-05
2.43743e-05
2.24796e-05
3.61552e-05
3.61536e-05
2.33255e-05
3.61549e-05
3.61523e-05
7.68315e-05
7.6829e-05
7.68305e-05
7.6832e-05
2.33215e-05
3.6157e-05
3.61528e-05
3.61577e-05
3.61549e-05
7.68271e-05
7.6829e-05
2.24797e-05
2.75896e-05
2.43745e-05
2.39971e-05
2.248e-05
2.75854e-05
2.43745e-05
2.80566e-05
6.98825e-05
2.80581e-05
6.98799e-05
2.24791e-05
2.43743e-05
2.75889e-05
2.39963e-05
2.24793e-05
2.43743e-05
2.75845e-05
2.80596e-05
6.98826e-05
6.98852e-05
2.80582e-05
2.24804e-05
2.3997e-05
2.75866e-05
2.43744e-05
2.7591e-05
2.43744e-05
2.24802e-05
2.80595e-05
6.98794e-05
6.98817e-05
2.80579e-05
2.24797e-05
2.39963e-05
2.43743e-05
2.75855e-05
2.43743e-05
2.75901e-05
2.24796e-05
2.80559e-05
6.98847e-05
2.80576e-05
6.98821e-05
2.24787e-05
2.43745e-05
2.75886e-05
2.39968e-05
2.2479e-05
2.43745e-05
2.75845e-05
2.80557e-05
6.98854e-05
2.80575e-05
6.98829e-05
2.24793e-05
2.39974e-05
2.75847e-05
2.43745e-05
2.75891e-05
2.43745e-05
2.24791e-05
2.8059e-05
6.98815e-05
6.98839e-05
2.80571e-05
2.24794e-05
2.39968e-05
2.43744e-05
2.75856e-05
2.43745e-05
2.75898e-05
2.24792e-05
2.80589e-05
6.98823e-05
6.98846e-05
2.8057e-05
3.61509e-05
3.61527e-05
2.33251e-05
3.61501e-05
3.61522e-05
7.68334e-05
7.68316e-05
7.68257e-05
7.68271e-05
2.33211e-05
3.61518e-05
3.61541e-05
3.6153e-05
3.61548e-05
7.68297e-05
7.68309e-05
2.24787e-05
2.43744e-05
2.75895e-05
2.39972e-05
2.2479e-05
2.43744e-05
2.75853e-05
2.80559e-05
6.98858e-05
2.80578e-05
6.98832e-05
2.80563e-05
6.9888e-05
2.80578e-05
6.98855e-05
2.24793e-05
2.3997e-05
2.43742e-05
2.75855e-05
2.43743e-05
2.75898e-05
2.2479e-05
2.24794e-05
2.39972e-05
2.43744e-05
2.75865e-05
2.43744e-05
2.75907e-05
2.24792e-05
2.80591e-05
6.98827e-05
6.98849e-05
2.80571e-05
2.80592e-05
6.9885e-05
6.98872e-05
2.80576e-05
7.68334e-05
7.68316e-05
7.68327e-05
7.68309e-05
2.33215e-05
3.61544e-05
3.61575e-05
3.61551e-05
3.61582e-05
7.68297e-05
7.68309e-05
7.6829e-05
7.68301e-05
7.68304e-05
7.68295e-05
7.68291e-05
7.68281e-05
3.61559e-05
3.61584e-05
2.33257e-05
3.6155e-05
3.61576e-05
7.68288e-05
7.68294e-05
7.68274e-05
7.68279e-05
2.33217e-05
3.61561e-05
3.61587e-05
3.61575e-05
3.616e-05
2.80581e-05
6.98866e-05
2.806e-05
6.98845e-05
2.24798e-05
2.75908e-05
2.43744e-05
2.39967e-05
2.248e-05
2.75865e-05
2.43744e-05
2.248e-05
2.75922e-05
2.43744e-05
2.39966e-05
2.24802e-05
2.75878e-05
2.43744e-05
2.80607e-05
6.98807e-05
6.98827e-05
2.80586e-05
2.80612e-05
6.98843e-05
6.98863e-05
2.80591e-05
2.24805e-05
2.39967e-05
2.75873e-05
2.43744e-05
2.75918e-05
2.43744e-05
2.24802e-05
2.24806e-05
2.39966e-05
2.75886e-05
2.43743e-05
2.75931e-05
2.43743e-05
2.24804e-05
3.61597e-05
3.61552e-05
2.33257e-05
3.61586e-05
3.61523e-05
7.68271e-05
7.68258e-05
7.68283e-05
7.68289e-05
2.33217e-05
3.61597e-05
3.61517e-05
3.61611e-05
3.61546e-05
7.68249e-05
7.68257e-05
2.24806e-05
2.75922e-05
2.43745e-05
2.39972e-05
2.24808e-05
2.75877e-05
2.43745e-05
2.8059e-05
6.98813e-05
2.80607e-05
6.98792e-05
2.248e-05
2.43743e-05
2.75911e-05
2.39964e-05
2.24802e-05
2.43743e-05
2.75864e-05
2.80622e-05
6.98819e-05
6.98841e-05
2.80604e-05
2.24813e-05
2.39971e-05
2.75884e-05
2.43744e-05
2.75932e-05
2.43744e-05
2.24811e-05
2.80618e-05
6.9879e-05
6.98811e-05
2.80599e-05
2.24807e-05
2.39964e-05
2.43742e-05
2.75871e-05
2.43742e-05
2.7592e-05
2.24805e-05
2.80581e-05
6.98835e-05
2.80602e-05
6.98813e-05
2.24796e-05
2.43744e-05
2.75909e-05
2.39969e-05
2.24798e-05
2.43744e-05
2.75865e-05
2.8058e-05
6.98841e-05
2.80601e-05
6.98821e-05
2.248e-05
2.39974e-05
2.75864e-05
2.43744e-05
2.75912e-05
2.43744e-05
2.24798e-05
2.80612e-05
6.98812e-05
6.98833e-05
2.8059e-05
2.24802e-05
2.39969e-05
2.43743e-05
2.75871e-05
2.43743e-05
2.75917e-05
2.24799e-05
2.80611e-05
6.98818e-05
6.98839e-05
2.80589e-05
3.61546e-05
3.61566e-05
2.33253e-05
3.6153e-05
3.61555e-05
7.68294e-05
7.68288e-05
7.68241e-05
7.68248e-05
2.33213e-05
3.61537e-05
3.61563e-05
3.61556e-05
3.61579e-05
7.68282e-05
7.68288e-05
2.24796e-05
2.43744e-05
2.75918e-05
2.39973e-05
2.24798e-05
2.43743e-05
2.75874e-05
2.80581e-05
6.98845e-05
2.80603e-05
6.98824e-05
2.80586e-05
6.98868e-05
2.80604e-05
6.98849e-05
2.248e-05
2.3997e-05
2.43742e-05
2.7587e-05
2.43743e-05
2.75916e-05
2.24797e-05
2.24803e-05
2.39973e-05
2.43743e-05
2.7588e-05
2.43743e-05
2.75927e-05
2.248e-05
2.80612e-05
6.98822e-05
6.98842e-05
2.80589e-05
2.80614e-05
6.98847e-05
6.98867e-05
2.80595e-05
7.68294e-05
7.68288e-05
7.68286e-05
7.68281e-05
2.33217e-05
3.61565e-05
3.61597e-05
3.61581e-05
3.61613e-05
7.68282e-05
7.68287e-05
7.68275e-05
7.6828e-05
7.68288e-05
7.68286e-05
7.68274e-05
7.68272e-05
3.61584e-05
3.61609e-05
2.33259e-05
3.61567e-05
3.61592e-05
7.68286e-05
7.68286e-05
7.68272e-05
7.68272e-05
2.33219e-05
3.61571e-05
3.61596e-05
3.61589e-05
3.61614e-05
2.80598e-05
6.98861e-05
2.80621e-05
6.9884e-05
2.24805e-05
2.75925e-05
2.43744e-05
2.39969e-05
2.24808e-05
2.75879e-05
2.43744e-05
2.24806e-05
2.75938e-05
2.43743e-05
2.39968e-05
2.2481e-05
2.75892e-05
2.43743e-05
2.80624e-05
6.98803e-05
6.98823e-05
2.806e-05
2.80628e-05
6.98839e-05
6.98858e-05
2.80604e-05
2.24811e-05
2.39969e-05
2.75883e-05
2.43743e-05
2.7593e-05
2.43743e-05
2.24807e-05
2.24812e-05
2.39968e-05
2.75896e-05
2.43743e-05
2.75944e-05
2.43743e-05
2.24809e-05
3.6162e-05
3.61541e-05
2.33259e-05
3.61603e-05
3.61519e-05
7.68249e-05
7.68243e-05
7.68282e-05
7.68282e-05
2.33219e-05
3.61609e-05
3.61526e-05
3.61626e-05
3.61545e-05
7.68242e-05
7.68244e-05
2.24814e-05
2.75939e-05
2.43745e-05
2.39973e-05
2.24817e-05
2.7589e-05
2.43745e-05
2.80606e-05
6.9881e-05
2.80626e-05
6.98788e-05
2.24808e-05
2.43743e-05
2.75926e-05
2.39966e-05
2.24811e-05
2.43743e-05
2.75876e-05
2.80639e-05
6.98815e-05
6.98836e-05
2.80617e-05
2.24819e-05
2.39973e-05
2.75894e-05
2.43745e-05
2.75944e-05
2.43745e-05
2.24816e-05
2.80633e-05
6.98787e-05
6.98808e-05
2.80611e-05
2.24814e-05
2.39966e-05
2.43743e-05
2.75881e-05
2.43743e-05
2.75931e-05
2.24812e-05
2.80597e-05
6.98832e-05
2.8062e-05
6.98811e-05
2.24802e-05
2.43745e-05
2.75923e-05
2.3997e-05
2.24806e-05
2.43745e-05
2.75876e-05
2.80596e-05
6.98836e-05
2.80619e-05
6.98816e-05
2.24807e-05
2.39974e-05
2.75874e-05
2.43744e-05
2.75924e-05
2.43744e-05
2.24804e-05
2.80626e-05
6.98809e-05
6.9883e-05
2.80601e-05
2.24809e-05
2.3997e-05
2.43744e-05
2.7588e-05
2.43744e-05
2.75927e-05
2.24806e-05
2.80626e-05
6.98815e-05
6.98834e-05
2.80601e-05
3.61562e-05
3.61585e-05
2.33256e-05
3.61543e-05
3.61566e-05
7.68282e-05
7.68282e-05
7.68236e-05
7.68239e-05
2.33215e-05
3.61551e-05
3.61571e-05
3.61569e-05
3.61588e-05
7.68283e-05
7.68282e-05
2.24804e-05
2.43744e-05
2.75933e-05
2.39974e-05
2.24806e-05
2.43744e-05
2.75885e-05
2.80596e-05
6.9884e-05
2.8062e-05
6.98819e-05
2.80601e-05
6.98865e-05
2.80622e-05
6.98845e-05
2.24806e-05
2.39971e-05
2.43743e-05
2.75879e-05
2.43743e-05
2.75926e-05
2.24803e-05
2.2481e-05
2.39974e-05
2.43743e-05
2.75889e-05
2.43743e-05
2.75937e-05
2.24807e-05
2.80626e-05
6.98819e-05
6.98838e-05
2.80601e-05
2.80629e-05
6.98844e-05
6.98863e-05
2.80606e-05
7.68282e-05
7.68282e-05
7.68275e-05
7.68275e-05
2.3322e-05
3.61573e-05
3.61606e-05
3.6159e-05
3.61622e-05
7.68283e-05
7.68282e-05
7.68276e-05
7.68275e-05
7.68286e-05
7.68288e-05
7.68272e-05
7.68274e-05
3.61594e-05
3.61619e-05
2.33262e-05
3.61579e-05
3.61604e-05
7.68292e-05
7.68288e-05
7.68279e-05
7.68274e-05
2.33222e-05
3.61588e-05
3.61613e-05
3.61602e-05
3.61627e-05
2.80608e-05
6.98857e-05
2.80634e-05
6.98839e-05
2.2481e-05
2.75934e-05
2.43745e-05
2.3997e-05
2.24813e-05
2.75887e-05
2.43745e-05
2.24812e-05
2.75948e-05
2.43745e-05
2.39969e-05
2.24815e-05
2.759e-05
2.43745e-05
2.80633e-05
6.98802e-05
6.9882e-05
2.80606e-05
2.80637e-05
6.9884e-05
6.98857e-05
2.8061e-05
2.24816e-05
2.3997e-05
2.7589e-05
2.43745e-05
2.75938e-05
2.43745e-05
2.24812e-05
2.24817e-05
2.39969e-05
2.75903e-05
2.43745e-05
2.75952e-05
2.43745e-05
2.24813e-05
3.61633e-05
3.61553e-05
2.33262e-05
3.61616e-05
3.61535e-05
7.68243e-05
7.68243e-05
7.68288e-05
7.68285e-05
2.33222e-05
3.61625e-05
3.61545e-05
3.6164e-05
3.61562e-05
7.68249e-05
7.68247e-05
2.24818e-05
2.75948e-05
2.43746e-05
2.39974e-05
2.24822e-05
2.75898e-05
2.43746e-05
2.80614e-05
6.98807e-05
2.80637e-05
6.98787e-05
2.24814e-05
2.43744e-05
2.75935e-05
2.39968e-05
2.24818e-05
2.43744e-05
2.75885e-05
2.80646e-05
6.98817e-05
6.98836e-05
2.80622e-05
2.24823e-05
2.39974e-05
2.75901e-05
2.43745e-05
2.75952e-05
2.43746e-05
2.24819e-05
2.8064e-05
6.98788e-05
6.98807e-05
2.80615e-05
2.2482e-05
2.39968e-05
2.43744e-05
2.75888e-05
2.43744e-05
2.75939e-05
2.24815e-05
2.80604e-05
6.98829e-05
2.80631e-05
6.98809e-05
2.24809e-05
2.43745e-05
2.75931e-05
2.39972e-05
2.24812e-05
2.43745e-05
2.75883e-05
2.80605e-05
6.98834e-05
2.80631e-05
6.98816e-05
2.24812e-05
2.39975e-05
2.75882e-05
2.43745e-05
2.75932e-05
2.43746e-05
2.24808e-05
2.80633e-05
6.9881e-05
6.98829e-05
2.80606e-05
2.24815e-05
2.39972e-05
2.43745e-05
2.75887e-05
2.43745e-05
2.75935e-05
2.24811e-05
2.80633e-05
6.98818e-05
6.98835e-05
2.80606e-05
3.61577e-05
3.61594e-05
2.33258e-05
3.61559e-05
3.6158e-05
7.68282e-05
7.68286e-05
7.68246e-05
7.68245e-05
2.33218e-05
3.61567e-05
3.61589e-05
3.61585e-05
3.61603e-05
7.68291e-05
7.68286e-05
2.24809e-05
2.43744e-05
2.75941e-05
2.39975e-05
2.24813e-05
2.43744e-05
2.75893e-05
2.80603e-05
6.98837e-05
2.8063e-05
6.98819e-05
2.80608e-05
6.98862e-05
2.80633e-05
6.98843e-05
2.24811e-05
2.39972e-05
2.43741e-05
2.75885e-05
2.43742e-05
2.75933e-05
2.24806e-05
2.24814e-05
2.39975e-05
2.43743e-05
2.75896e-05
2.43743e-05
2.75944e-05
2.2481e-05
2.80632e-05
6.98821e-05
6.98839e-05
2.80604e-05
2.80634e-05
6.98845e-05
6.98862e-05
2.8061e-05
7.68282e-05
7.68286e-05
7.68276e-05
7.68279e-05
2.33222e-05
3.6159e-05
3.61623e-05
3.61605e-05
3.61637e-05
7.68291e-05
7.68286e-05
7.68284e-05
7.68279e-05
7.68292e-05
7.68298e-05
7.68279e-05
7.68284e-05
3.61612e-05
3.61636e-05
2.33264e-05
3.61597e-05
3.61621e-05
7.68304e-05
7.68298e-05
7.68291e-05
7.68284e-05
2.33224e-05
3.61603e-05
3.61626e-05
3.6162e-05
3.61644e-05
2.80612e-05
6.98859e-05
2.80639e-05
6.98842e-05
2.24814e-05
2.75941e-05
2.43746e-05
2.39972e-05
2.24818e-05
2.75893e-05
2.43746e-05
2.24815e-05
2.75955e-05
2.43746e-05
2.39971e-05
2.24819e-05
2.75906e-05
2.43746e-05
2.80636e-05
6.98807e-05
6.98824e-05
2.8061e-05
2.8064e-05
6.98845e-05
6.98861e-05
2.80613e-05
2.2482e-05
2.39972e-05
2.75895e-05
2.43746e-05
2.75944e-05
2.43746e-05
2.24817e-05
2.24821e-05
2.39971e-05
2.75908e-05
2.43746e-05
2.75957e-05
2.43746e-05
2.24817e-05
3.61649e-05
3.61571e-05
2.33264e-05
3.61633e-05
3.61553e-05
7.68252e-05
7.68256e-05
7.68299e-05
7.68294e-05
2.33224e-05
3.61638e-05
3.61558e-05
3.61656e-05
3.61579e-05
7.68263e-05
7.68261e-05
2.24821e-05
2.75955e-05
2.43746e-05
2.39976e-05
2.24825e-05
2.75904e-05
2.43746e-05
2.80618e-05
6.98809e-05
2.80641e-05
6.98791e-05
2.24817e-05
2.43744e-05
2.75942e-05
2.39968e-05
2.24821e-05
2.43744e-05
2.75891e-05
2.8065e-05
6.98822e-05
6.9884e-05
2.80626e-05
2.24827e-05
2.39976e-05
2.75906e-05
2.43746e-05
2.75958e-05
2.43746e-05
2.24824e-05
2.80644e-05
6.98794e-05
6.98812e-05
2.8062e-05
2.24823e-05
2.39966e-05
2.43742e-05
2.75892e-05
2.43743e-05
2.75945e-05
2.2482e-05
2.80608e-05
6.98831e-05
2.80634e-05
6.98812e-05
2.24813e-05
2.43747e-05
2.75938e-05
2.39973e-05
2.24817e-05
2.43747e-05
2.75889e-05
2.80608e-05
6.98837e-05
2.80635e-05
6.9882e-05
2.24815e-05
2.39977e-05
2.75886e-05
2.43745e-05
2.75938e-05
2.43745e-05
2.24812e-05
2.80636e-05
6.98814e-05
6.98833e-05
2.80609e-05
2.24819e-05
2.39972e-05
2.43745e-05
2.75891e-05
2.43746e-05
2.75941e-05
2.24815e-05
2.80637e-05
6.98823e-05
6.9884e-05
2.8061e-05
3.61594e-05
3.61613e-05
2.3326e-05
3.61574e-05
3.61597e-05
7.68291e-05
7.68297e-05
7.68261e-05
7.68259e-05
2.3322e-05
3.61578e-05
3.61601e-05
3.616e-05
3.6162e-05
7.68303e-05
7.68297e-05
2.24812e-05
2.43744e-05
2.75947e-05
2.39977e-05
2.24816e-05
2.43744e-05
2.75898e-05
2.80606e-05
6.98841e-05
2.80632e-05
6.98824e-05
2.80612e-05
6.98864e-05
2.80636e-05
6.98847e-05
2.24814e-05
2.39971e-05
2.43742e-05
2.75889e-05
2.43742e-05
2.75939e-05
2.2481e-05
2.24818e-05
2.39976e-05
2.43744e-05
2.759e-05
2.43744e-05
2.7595e-05
2.24815e-05
2.80635e-05
6.98826e-05
6.98844e-05
2.80608e-05
2.80637e-05
6.9885e-05
6.98867e-05
2.80614e-05
7.68291e-05
7.68297e-05
7.68284e-05
7.6829e-05
2.33224e-05
3.61601e-05
3.61634e-05
3.6162e-05
3.61653e-05
7.68303e-05
7.68297e-05
7.68296e-05
7.6829e-05
7.68305e-05
7.68313e-05
7.68291e-05
7.683e-05
3.61624e-05
3.61648e-05
2.33267e-05
3.61603e-05
3.61626e-05
7.68325e-05
7.68315e-05
7.68311e-05
7.68301e-05
2.33227e-05
3.616e-05
3.61622e-05
3.61623e-05
3.61646e-05
2.80615e-05
6.98864e-05
2.80642e-05
6.98848e-05
2.24818e-05
2.75945e-05
2.43746e-05
2.39973e-05
2.24823e-05
2.75895e-05
2.43746e-05
2.24819e-05
2.75959e-05
2.43746e-05
2.39971e-05
2.24823e-05
2.75908e-05
2.43746e-05
2.80639e-05
6.9882e-05
6.98831e-05
2.80607e-05
2.80644e-05
6.98857e-05
6.98868e-05
2.80612e-05
2.24823e-05
2.39972e-05
2.75894e-05
2.43744e-05
2.75946e-05
2.43746e-05
2.24812e-05
2.24824e-05
2.39971e-05
2.75907e-05
2.43743e-05
2.75959e-05
2.43744e-05
2.24813e-05
3.61661e-05
3.61583e-05
2.33266e-05
3.61638e-05
3.61557e-05
7.68267e-05
7.68273e-05
7.68319e-05
7.6831e-05
2.33226e-05
3.61634e-05
3.61551e-05
3.61658e-05
3.61579e-05
7.68287e-05
7.68279e-05
2.24823e-05
2.75959e-05
2.43747e-05
2.39976e-05
2.24829e-05
2.75906e-05
2.43747e-05
2.80621e-05
6.98815e-05
2.80646e-05
6.988e-05
2.2482e-05
2.43742e-05
2.75946e-05
2.39964e-05
2.24826e-05
2.43742e-05
2.75892e-05
2.80652e-05
6.98834e-05
6.98846e-05
2.80622e-05
2.24827e-05
2.39976e-05
2.75905e-05
2.43745e-05
2.75959e-05
2.43747e-05
2.24814e-05
2.80646e-05
6.98812e-05
6.98823e-05
2.80615e-05
2.24823e-05
2.39962e-05
2.43741e-05
2.7589e-05
2.43742e-05
2.75946e-05
2.2481e-05
2.8061e-05
6.98835e-05
2.80638e-05
6.98816e-05
2.24814e-05
2.43744e-05
2.75941e-05
2.39968e-05
2.24821e-05
2.43743e-05
2.75891e-05
2.8061e-05
6.98843e-05
2.80638e-05
6.98829e-05
2.24818e-05
2.39974e-05
2.75884e-05
2.43743e-05
2.75939e-05
2.43743e-05
2.24808e-05
2.80637e-05
6.98824e-05
6.98837e-05
2.80605e-05
2.24818e-05
2.39967e-05
2.43742e-05
2.75889e-05
2.43742e-05
2.75941e-05
2.24805e-05
2.80637e-05
6.9884e-05
6.9885e-05
2.80603e-05
3.61602e-05
3.61621e-05
2.3326e-05
3.61575e-05
3.61598e-05
7.68304e-05
7.68314e-05
7.68276e-05
7.68277e-05
2.3322e-05
3.61574e-05
3.61597e-05
3.61599e-05
3.61618e-05
7.68319e-05
7.68315e-05
2.24813e-05
2.43744e-05
2.75951e-05
2.39973e-05
2.2482e-05
2.43743e-05
2.759e-05
2.80609e-05