/*--------------------------------*- C++ -*----------------------------------*\
| =========                 |                                                 |
| \\      /  F ield         | OpenFOAM: The Open Source CFD Toolbox           |
|  \\    /   O peration     | Version:  2206                                  |
|   \\  /    A nd           | Website:  www.openfoam.com                      |
|    \\/     M anipulation  |                                                 |
\*---------------------------------------------------------------------------*/
FoamFile
{
    version     2.0;
    format      ascii;
    arch        "LSB;label=32;scalar=64";
    class       volScalarField;
    location    "20";
    object      nut;
}
// * * * * * * * * * * * * * * * * * * * * * * * * * * * * * * * * * * * * * //

dimensions      [0 2 -1 0 0 0 0];

internalField   nonuniform List<scalar> 
28335
(
0.000226329
0.000209139
0.000209133
0.000188842
0.000226328
0.000209136
0.00020913
0.000188841
0.000226329
0.000209137
0.000209131
0.000188842
0.000226324
0.00020913
0.000209124
0.000188828
0.000226301
0.000209084
0.000209078
0.000188758
0.00022631
0.000209088
0.000209082
0.000188771
0.00022631
0.000209089
0.000209083
0.000188763
0.00022631
0.000209089
0.000209083
0.000188768
0.00022631
0.000209089
0.000209083
0.000188767
0.00022631
0.000209089
0.000209083
0.000188766
0.00022631
0.000209089
0.000209083
0.000188766
0.00022631
0.000209089
0.000209083
0.000188766
0.00022631
0.000209089
0.000209083
0.000188766
0.00022631
0.000209089
0.000209083
0.000188766
0.00022631
0.000209089
0.000209083
0.000188766
0.00022631
0.000209089
0.000209083
0.000188766
0.00022631
0.000209089
0.000209083
0.000188766
0.000188993
0.000209127
0.000209125
0.000188996
0.000209137
0.000209118
0.00020914
0.000209126
0.000188986
0.000209134
0.000209136
0.000188988
0.00018885
0.00018899
0.000209127
0.000209125
0.000209127
0.000209124
0.000188853
0.000188993
0.000209136
0.000209118
0.000209136
0.000209118
0.000209126
0.000209136
0.000209125
0.000188843
0.000188983
0.000209135
0.00020913
0.000209134
0.000188986
0.000188847
0.00018899
0.000209128
0.000209124
0.000209128
0.000209124
0.00018885
0.000188992
0.000209135
0.000209119
0.000209137
0.000209119
0.000209125
0.000209136
0.000209125
0.000188841
0.000188983
0.000209134
0.000209131
0.000209134
0.000188986
0.000188848
0.000188983
0.000209128
0.000209126
0.000209123
0.000209122
0.00018885
0.000188986
0.000209138
0.000209118
0.000209133
0.000209114
0.000209127
0.000209134
0.000209122
0.000188841
0.000188976
0.000209136
0.000209127
0.000209131
0.00018898
0.000188836
0.000188916
0.000209119
0.000209117
0.000209076
0.000209074
0.000188839
0.00018892
0.000209128
0.00020911
0.000209085
0.000209067
0.000209117
0.00020909
0.000209075
0.000188829
0.00018891
0.000209126
0.000209083
0.000209084
0.000188913
0.000188765
0.000188918
0.000209072
0.00020907
0.000209075
0.000209073
0.000188768
0.000188922
0.000209081
0.000209063
0.000209085
0.000209066
0.000209071
0.000209088
0.000209074
0.000188758
0.000188911
0.00020908
0.000209082
0.000209083
0.000188917
0.000188775
0.000188911
0.000209077
0.000209074
0.000209076
0.000209074
0.000188778
0.000188914
0.000209086
0.000209067
0.000209086
0.000209067
0.000209075
0.000209089
0.000209075
0.000188769
0.000188904
0.000209084
0.000209083
0.000209084
0.000188909
0.000188768
0.000188916
0.000209077
0.000209074
0.000209077
0.000209074
0.000188771
0.000188919
0.000209086
0.000209067
0.000209086
0.000209067
0.000209075
0.00020909
0.000209076
0.000188761
0.000188909
0.000209084
0.000209084
0.000209085
0.000188913
0.000188772
0.000188913
0.000209077
0.000209075
0.000209077
0.000209075
0.000188775
0.000188917
0.000209086
0.000209068
0.000209086
0.000209067
0.000209076
0.00020909
0.000209076
0.000188766
0.000188907
0.000209085
0.000209084
0.000209085
0.000188911
0.000188771
0.000188913
0.000209077
0.000209075
0.000209077
0.000209074
0.000188774
0.000188917
0.000209086
0.000209068
0.000209086
0.000209067
0.000209076
0.00020909
0.000209076
0.000188765
0.000188907
0.000209085
0.000209084
0.000209085
0.000188911
0.000188771
0.000188914
0.000209077
0.000209075
0.000209077
0.000209074
0.000188774
0.000188917
0.000209086
0.000209068
0.000209086
0.000209067
0.000209076
0.00020909
0.000209076
0.000188764
0.000188907
0.000209085
0.000209084
0.000209085
0.000188911
0.000188771
0.000188914
0.000209077
0.000209075
0.000209077
0.000209074
0.000188774
0.000188917
0.000209086
0.000209068
0.000209086
0.000209067
0.000209076
0.00020909
0.000209076
0.000188765
0.000188907
0.000209085
0.000209084
0.000209085
0.000188911
0.000188771
0.000188914
0.000209077
0.000209075
0.000209077
0.000209074
0.000188774
0.000188917
0.000209086
0.000209068
0.000209086
0.000209067
0.000209076
0.00020909
0.000209076
0.000188765
0.000188907
0.000209085
0.000209084
0.000209085
0.000188911
0.000188771
0.000188914
0.000209077
0.000209075
0.000209077
0.000209074
0.000188775
0.000188917
0.000209086
0.000209068
0.000209086
0.000209067
0.000209076
0.00020909
0.000209076
0.000188765
0.000188907
0.000209085
0.000209084
0.000209085
0.000188911
0.000188771
0.000188914
0.000209077
0.000209075
0.000209077
0.000209074
0.000188774
0.000188917
0.000209086
0.000209068
0.000209086
0.000209067
0.000209076
0.00020909
0.000209076
0.000188765
0.000188907
0.000209085
0.000209084
0.000209085
0.000188911
0.000188771
0.000188914
0.000209077
0.000209075
0.000209077
0.000209074
0.000188774
0.000188917
0.000209086
0.000209068
0.000209086
0.000209067
0.000209076
0.00020909
0.000209076
0.000188765
0.000188907
0.000209085
0.000209084
0.000209085
0.000188911
0.000188771
0.000188914
0.000209077
0.000209075
0.000209077
0.000209074
0.000188774
0.000188918
0.000209086
0.000209068
0.000209086
0.000209067
0.000209076
0.00020909
0.000209076
0.000188765
0.000188907
0.000209085
0.000209084
0.000209085
0.000188911
0.000188771
0.000209077
0.000209075
0.000188775
0.000209086
0.000209067
0.000209076
0.000188765
0.000209085
4.91107e-05
4.88976e-05
2.58643e-05
4.91178e-05
4.88935e-05
0.000226329
0.00022633
0.000226328
0.000226329
0.000117385
0.000209141
5.98377e-05
0.000220547
2.58618e-05
0.000117386
0.000209134
0.000220546
5.98406e-05
0.000188993
3.59165e-05
3.59097e-05
4.91115e-05
4.88978e-05
4.91031e-05
4.88967e-05
2.58633e-05
2.58627e-05
4.91155e-05
4.88937e-05
4.91072e-05
4.88927e-05
0.000226329
0.000226327
0.000226328
0.000226328
0.000226327
0.000226325
0.000226327
0.000117382
5.98218e-05
0.000220546
0.000209137
0.000117356
5.98404e-05
0.000220544
2.58609e-05
2.58602e-05
0.000117381
0.000220545
5.98253e-05
0.000209131
0.000117354
0.000220542
5.98429e-05
3.59178e-05
3.59114e-05
0.000188987
3.59253e-05
3.5919e-05
4.91172e-05
4.88971e-05
4.91058e-05
4.88963e-05
2.58624e-05
2.58622e-05
4.91241e-05
4.88931e-05
4.91131e-05
4.88922e-05
0.000226327
0.000226325
0.000226327
0.000226329
0.000226328
0.000226326
0.000226328
0.000117384
5.98241e-05
0.000220543
0.000209137
0.000117356
5.98421e-05
0.000220544
2.586e-05
2.58597e-05
0.000117383
0.000220541
5.98266e-05
0.00020913
0.000117354
0.000220542
5.98439e-05
3.59287e-05
3.59224e-05
0.000188986
3.59345e-05
3.5928e-05
4.91211e-05
4.88969e-05
4.9112e-05
4.88962e-05
2.58624e-05
2.58623e-05
4.91283e-05
4.88928e-05
4.91199e-05
4.88921e-05
0.00022633
0.000226326
0.000226328
0.000226327
0.000226328
0.000226325
0.000226326
0.000117389
5.98267e-05
0.000220546
0.000209136
0.00011736
5.98452e-05
0.000220545
2.586e-05
2.58599e-05
0.000117388
0.000220544
5.98296e-05
0.00020913
0.000117359
0.000220544
5.98477e-05
3.5935e-05
3.59286e-05
0.000188987
3.59391e-05
3.59326e-05
4.9102e-05
4.8898e-05
4.91051e-05
4.88993e-05
2.58631e-05
2.58632e-05
4.91088e-05
4.8894e-05
4.9113e-05
4.88951e-05
0.000226325
0.000226323
0.000226324
0.0002263
0.0002263
0.000226298
0.000226299
0.00011736
5.98208e-05
0.00022054
0.000209122
0.00011735
5.98268e-05
0.000220532
2.58607e-05
2.58608e-05
0.00011736
0.000220539
5.98241e-05
0.000209116
0.000117349
0.000220531
5.98295e-05
3.59318e-05
3.59253e-05
0.000188955
3.59302e-05
3.59236e-05
4.90776e-05
4.89022e-05
4.90743e-05
4.89015e-05
2.58633e-05
2.58631e-05
4.90847e-05
4.88981e-05
4.90814e-05
4.88974e-05
0.000226302
0.000226299
0.000226301
0.000226309
0.00022631
0.000226308
0.000226309
0.000117296
5.97882e-05
0.000220506
0.000209085
0.00011727
5.97995e-05
0.000220508
2.58609e-05
2.58607e-05
0.000117297
0.000220504
5.97916e-05
0.000209079
0.000117268
0.000220507
5.98024e-05
3.59158e-05
3.59094e-05
0.000188912
3.59143e-05
3.59077e-05
4.90753e-05
4.89021e-05
4.90667e-05
4.89013e-05
2.58632e-05
2.58631e-05
4.90826e-05
4.88981e-05
4.90748e-05
4.88973e-05
0.000226311
0.000226309
0.00022631
0.00022631
0.000226311
0.000226309
0.00022631
0.000117299
5.9779e-05
0.000220513
0.000209089
0.00011727
5.97961e-05
0.000220514
2.58608e-05
2.58606e-05
0.000117298
0.000220512
5.97828e-05
0.000209083
0.00011727
0.000220512
5.97992e-05
3.591e-05
3.59035e-05
0.000188913
3.59129e-05
3.59063e-05
4.90752e-05
4.8902e-05
4.90664e-05
4.89013e-05
2.58634e-05
2.58632e-05
4.90826e-05
4.88979e-05
4.90746e-05
4.88971e-05
0.000226311
0.000226309
0.00022631
0.000226311
0.000226311
0.000226309
0.00022631
0.000117299
5.97785e-05
0.000220513
0.00020909
0.00011727
5.9796e-05
0.000220514
2.58608e-05
2.58606e-05
0.000117298
0.000220512
5.97823e-05
0.000209084
0.000117269
0.000220513
5.97991e-05
3.59099e-05
3.59034e-05
0.00018891
3.59129e-05
3.59063e-05
4.90752e-05
4.8902e-05
4.90664e-05
4.89013e-05
2.58634e-05
2.58632e-05
4.90826e-05
4.88978e-05
4.90746e-05
4.8897e-05
0.000226311
0.000226309
0.00022631
0.000226311
0.000226311
0.000226309
0.00022631
0.000117298
5.97785e-05
0.000220514
0.00020909
0.000117271
5.9796e-05
0.000220514
2.58608e-05
2.58606e-05
0.000117298
0.000220512
5.97823e-05
0.000209084
0.00011727
0.000220513
5.97991e-05
3.59099e-05
3.59034e-05
0.00018891
3.59129e-05
3.59063e-05
4.90752e-05
4.8902e-05
4.90664e-05
4.89013e-05
2.58634e-05
2.58632e-05
4.90826e-05
4.88978e-05
4.90747e-05
4.8897e-05
0.000226311
0.000226309
0.00022631
0.00022631
0.000226311
0.000226309
0.00022631
0.000117299
5.97785e-05
0.000220514
0.00020909
0.00011727
5.9796e-05
0.000220514
2.58608e-05
2.58606e-05
0.000117298
0.000220513
5.97823e-05
0.000209084
0.000117269
0.000220513
5.97991e-05
3.59099e-05
3.59034e-05
0.000188912
3.59129e-05
3.59063e-05
4.90752e-05
4.8902e-05
4.90664e-05
4.89013e-05
2.58634e-05
2.58632e-05
4.90826e-05
4.88978e-05
4.90746e-05
4.8897e-05
0.000226311
0.000226309
0.00022631
0.000226311
0.000226311
0.000226309
0.00022631
0.000117299
5.97785e-05
0.000220514
0.00020909
0.00011727
5.9796e-05
0.000220514
2.58608e-05
2.58606e-05
0.000117298
0.000220512
5.97823e-05
0.000209084
0.000117269
0.000220513
5.97991e-05
3.59099e-05
3.59034e-05
0.000188912
3.59129e-05
3.59063e-05
4.90752e-05
4.8902e-05
4.90664e-05
4.89013e-05
2.58634e-05
2.58632e-05
4.90826e-05
4.88977e-05
4.90746e-05
4.8897e-05
0.000226311
0.000226309
0.00022631
0.00022631
0.000226311
0.000226309
0.00022631
0.000117298
5.97785e-05
0.000220514
0.00020909
0.00011727
5.9796e-05
0.000220514
2.58608e-05
2.58606e-05
0.000117297
0.000220512
5.97823e-05
0.000209084
0.000117269
0.000220513
5.97991e-05
3.59099e-05
3.59034e-05
0.000188911
3.59129e-05
3.59063e-05
4.90752e-05
4.8902e-05
4.90664e-05
4.89013e-05
2.58634e-05
2.58632e-05
4.90826e-05
4.88977e-05
4.90746e-05
4.8897e-05
0.000226311
0.000226309
0.00022631
0.00022631
0.000226311
0.000226309
0.00022631
0.000117299
5.97785e-05
0.000220513
0.00020909
0.00011727
5.9796e-05
0.000220514
2.58608e-05
2.58606e-05
0.000117296
0.000220512
5.97823e-05
0.000209084
0.000117268
0.000220513
5.97991e-05
3.59099e-05
3.59034e-05
0.000188911
3.59129e-05
3.59063e-05
4.90752e-05
4.8902e-05
4.90664e-05
4.89013e-05
2.58634e-05
2.58632e-05
4.90826e-05
4.88977e-05
4.90746e-05
4.8897e-05
0.000226311
0.000226309
0.00022631
0.00022631
0.000226311
0.000226309
0.00022631
0.000117298
5.97785e-05
0.000220514
0.00020909
0.00011727
5.9796e-05
0.000220514
2.58608e-05
2.58606e-05
0.000117294
0.000220512
5.97823e-05
0.000209084
0.000117267
0.000220513
5.97991e-05
3.59099e-05
3.59034e-05
0.000188911
3.59129e-05
3.59063e-05
4.90752e-05
4.8902e-05
4.90664e-05
4.89013e-05
2.58634e-05
2.58632e-05
4.90826e-05
4.88977e-05
4.90746e-05
4.8897e-05
0.000226311
0.000226309
0.00022631
0.000226311
0.000226311
0.000226309
0.00022631
0.000117298
5.97785e-05
0.000220514
0.00020909
0.00011727
5.9796e-05
0.000220514
2.58608e-05
2.58606e-05
0.000117292
0.000220512
5.97823e-05
0.000209084
0.000117264
0.000220512
5.97991e-05
3.59099e-05
3.59034e-05
0.000188911
3.59129e-05
3.59063e-05
4.90752e-05
4.8902e-05
4.90664e-05
4.89013e-05
2.58634e-05
2.58632e-05
4.90826e-05
4.88977e-05
4.90746e-05
4.8897e-05
0.000226311
0.000226309
0.00022631
0.000226311
0.000226311
0.000226309
0.00022631
0.000117298
5.97785e-05
0.000220514
0.00020909
0.00011727
5.9796e-05
0.000220514
2.58608e-05
2.58606e-05
0.000117291
0.000220512
5.97823e-05
0.000209084
0.000117263
0.000220512
5.97991e-05
3.59099e-05
3.59034e-05
0.000188911
3.59129e-05
3.59063e-05
4.90752e-05
4.8902e-05
4.90664e-05
4.89013e-05
2.58634e-05
2.58632e-05
4.90826e-05
4.88977e-05
4.90746e-05
4.8897e-05
0.000226311
0.000226309
0.00022631
0.00022631
0.000226311
0.000226309
0.00022631
0.000117299
5.97785e-05
0.000220514
0.00020909
0.00011727
5.9796e-05
0.000220514
2.58608e-05
2.58606e-05
0.000117291
0.000220512
5.97822e-05
0.000209084
0.000117263
0.000220512
5.97991e-05
3.59099e-05
3.59034e-05
0.000188911
3.59129e-05
3.59063e-05
4.90752e-05
4.8902e-05
4.90664e-05
4.89013e-05
2.58634e-05
2.58632e-05
4.90827e-05
4.88977e-05
4.90747e-05
4.8897e-05
0.000226311
0.000226309
0.00022631
0.0001173
5.97786e-05
0.000220514
0.000209089
0.00011727
5.9796e-05
0.000220514
2.58608e-05
2.58606e-05
0.000117293
0.000220512
5.97823e-05
0.000209084
0.000117262
0.000220513
5.97999e-05
3.59099e-05
3.59034e-05
0.000188914
3.59101e-05
3.59033e-05
2.58655e-05
2.58636e-05
0.000188997
3.59171e-05
3.59098e-05
2.58645e-05
2.58655e-05
2.58626e-05
2.58636e-05
0.000188852
3.59212e-05
3.59135e-05
3.59151e-05
3.59077e-05
4.91115e-05
4.88972e-05
0.000117387
0.000209129
5.98435e-05
0.000220547
0.000117389
0.000209126
5.98405e-05
0.000220546
4.9104e-05
4.88971e-05
4.88981e-05
4.9112e-05
4.91047e-05
4.88967e-05
4.88977e-05
4.91121e-05
0.000117363
0.000209128
5.98447e-05
0.000220546
5.98291e-05
0.000220547
0.000117386
0.000117364
0.000209125
5.98418e-05
0.000220546
5.98257e-05
0.000220546
0.000117388
0.000189001
3.59134e-05
3.59105e-05
2.58651e-05
2.58633e-05
2.58642e-05
0.000188855
3.59158e-05
3.59108e-05
3.59109e-05
3.59063e-05
2.58641e-05
2.58651e-05
0.000117389
0.000209138
5.98349e-05
0.000220547
4.91161e-05
4.88907e-05
0.000117388
0.000209119
0.000220543
5.98266e-05
4.91112e-05
4.88931e-05
4.88941e-05
4.91157e-05
0.000117364
0.000209137
5.98361e-05
0.000220546
5.98205e-05
0.000220546
0.000117387
4.91097e-05
4.88902e-05
4.88912e-05
4.91145e-05
0.000117363
0.000209119
0.000220543
5.98277e-05
0.000220543
5.98112e-05
0.000117386
4.91105e-05
4.88957e-05
0.000117386
0.000209127
0.000220546
5.98402e-05
4.91101e-05
4.8894e-05
0.000117361
0.00020914
5.98388e-05
0.000220547
5.98224e-05
0.000220547
0.000117383
4.91038e-05
4.88952e-05
4.88963e-05
4.91118e-05
0.000117362
0.000209127
0.000220546
5.98413e-05
0.000220547
5.98255e-05
0.000117385
4.91034e-05
4.88935e-05
4.88945e-05
4.91115e-05
0.000188991
3.59039e-05
3.59162e-05
2.58644e-05
2.58609e-05
2.58619e-05
0.000188845
3.59034e-05
3.59199e-05
3.58997e-05
3.59141e-05
2.58634e-05
2.58643e-05
0.000117388
0.000209137
0.000220546
5.98372e-05
4.9117e-05
4.88938e-05
4.91173e-05
4.88937e-05
0.00011736
0.000209134
0.000220545
5.98418e-05
0.000220545
5.9826e-05
0.000117383
0.000117363
0.000209136
0.000220546
5.98382e-05
0.000220547
5.98223e-05
0.000117387
4.91106e-05
4.88933e-05
4.88942e-05
4.91159e-05
4.91109e-05
4.88932e-05
4.88941e-05
4.91163e-05
2.58642e-05
2.58633e-05
0.000188848
3.59194e-05
3.59129e-05
3.59143e-05
3.59076e-05
2.58632e-05
2.58642e-05
2.58622e-05
2.58632e-05
2.58646e-05
2.58639e-05
2.58627e-05
2.5862e-05
3.59203e-05
3.59125e-05
0.000188991
3.59274e-05
3.59197e-05
2.58636e-05
2.5864e-05
2.58617e-05
2.58622e-05
0.000188848
3.59324e-05
3.59247e-05
3.59263e-05
3.59185e-05
4.91113e-05
4.88972e-05
4.91045e-05
4.88963e-05
0.000117386
5.98303e-05
0.000220546
0.000209127
0.000117363
5.98459e-05
0.000220546
0.000117387
5.9827e-05
0.000220546
0.000209125
0.000117364
5.9843e-05
0.000220546
4.91046e-05
4.88965e-05
4.88972e-05
4.91136e-05
4.91045e-05
4.8896e-05
4.88968e-05
4.91144e-05
0.000117363
0.000209128
5.98461e-05
0.000220546
5.98313e-05
0.000220546
0.000117386
0.000117363
0.000209125
5.98434e-05
0.000220546
5.98281e-05
0.000220546
0.000117387
3.59145e-05
3.59105e-05
0.000188994
3.59214e-05
3.5919e-05
2.58642e-05
2.58635e-05
2.58623e-05
2.58628e-05
0.000188851
3.59263e-05
3.59239e-05
3.59202e-05
3.59178e-05
2.58631e-05
2.58636e-05
0.000117386
5.98217e-05
0.000220545
0.000209136
0.000117364
5.98373e-05
0.000220545
4.91146e-05
4.88907e-05
4.91077e-05
4.88898e-05
0.000117386
0.000220543
5.98125e-05
0.000209118
0.000117363
0.000220543
5.98295e-05
4.911e-05
4.88924e-05
4.88932e-05
4.91198e-05
0.000117363
0.000209136
5.98376e-05
0.000220545
5.98228e-05
0.000220545
0.000117387
4.91091e-05
4.88895e-05
4.88903e-05
4.91189e-05
0.000117362
0.000209119
0.000220543
5.98305e-05
0.000220543
5.98142e-05
0.000117387
4.91115e-05
4.88957e-05
4.91045e-05
4.88948e-05
0.000117385
0.000220545
5.98267e-05
0.000209126
0.000117362
0.000220545
5.98425e-05
4.91114e-05
4.8894e-05
4.91042e-05
4.88931e-05
0.000117359
0.000209137
5.98414e-05
0.000220543
5.98252e-05
0.000220544
0.000117383
4.91047e-05
4.88945e-05
4.88954e-05
4.91139e-05
0.000117362
0.000209126
0.000220544
5.98428e-05
0.000220544
5.98277e-05
0.000117385
4.91045e-05
4.88928e-05
4.88936e-05
4.91138e-05
3.59019e-05
3.59189e-05
0.000188984
3.59106e-05
3.59262e-05
2.58634e-05
2.58628e-05
2.58599e-05
2.58604e-05
0.000188841
3.59157e-05
3.59312e-05
3.59091e-05
3.5925e-05
2.58624e-05
2.58629e-05
0.000117385
0.000220545
5.98234e-05
0.000209135
0.000117362
0.000220544
5.98394e-05
4.91154e-05
4.88937e-05
4.91088e-05
4.88929e-05
4.9116e-05
4.88936e-05
4.91093e-05
4.88927e-05
0.000117357
0.000209131
0.000220542
5.98433e-05
0.000220542
5.98282e-05
0.000117382
0.00011736
0.000209135
0.000220544
5.98395e-05
0.000220544
5.98244e-05
0.000117385
4.91097e-05
4.88926e-05
4.88933e-05
4.91194e-05
4.91102e-05
4.88925e-05
4.88932e-05
4.91199e-05
2.58632e-05
2.58626e-05
2.58623e-05
2.58617e-05
0.000188845
3.59306e-05
3.59242e-05
3.59242e-05
3.59179e-05
2.58623e-05
2.58627e-05
2.58613e-05
2.58618e-05
2.58637e-05
2.58634e-05
2.58618e-05
2.58615e-05
3.5931e-05
3.59232e-05
0.000188988
3.59363e-05
3.59285e-05
2.58634e-05
2.58636e-05
2.58616e-05
2.58617e-05
0.000188846
3.59392e-05
3.59315e-05
3.59347e-05
3.59269e-05
4.91185e-05
4.88965e-05
4.91084e-05
4.88958e-05
0.000117388
5.98314e-05
0.000220545
0.000209128
0.000117363
5.98468e-05
0.000220545
0.000117389
5.98284e-05
0.000220543
0.000209123
0.000117364
5.98442e-05
0.000220543
4.91109e-05
4.88962e-05
4.88968e-05
4.91202e-05
4.91122e-05
4.88958e-05
4.88964e-05
4.91214e-05
0.000117365
0.000209128
5.9849e-05
0.000220546
5.98326e-05
0.000220545
0.00011739
0.000117366
0.000209124
5.98462e-05
0.000220545
5.98295e-05
0.000220543
0.000117392
3.59248e-05
3.59219e-05
0.000188991
3.593e-05
3.59272e-05
2.58633e-05
2.58629e-05
2.58622e-05
2.58624e-05
0.000188848
3.59328e-05
3.59298e-05
3.59284e-05
3.59251e-05
2.5863e-05
2.58632e-05
0.000117389
5.98229e-05
0.000220545
0.000209135
0.000117365
5.98384e-05
0.000220545
4.91232e-05
4.88901e-05
4.91138e-05
4.88894e-05
0.000117389
0.000220541
5.98151e-05
0.000209119
0.000117364
0.000220541
5.98315e-05
4.91187e-05
4.88921e-05
4.88927e-05
4.91273e-05
0.000117366
0.000209136
5.98407e-05
0.000220547
5.98242e-05
0.000220547
0.000117392
4.91178e-05
4.88893e-05
4.88899e-05
4.91262e-05
0.000117366
0.000209119
0.000220542
5.98331e-05
0.000220541
5.98162e-05
0.000117391
4.91175e-05
4.88951e-05
4.91077e-05
4.88944e-05
0.000117387
0.000220543
5.9828e-05
0.000209125
0.000117363
0.000220543
5.98437e-05
4.91174e-05
4.88933e-05
4.91076e-05
4.88927e-05
0.000117361
0.000209137
5.98436e-05
0.000220545
5.98269e-05
0.000220545
0.000117387
4.91111e-05
4.88943e-05
4.88949e-05
4.91204e-05
0.000117364
0.000209125
0.000220545
5.98458e-05
0.000220544
5.98292e-05
0.000117389
4.9111e-05
4.88926e-05
4.88932e-05
4.91202e-05
3.59136e-05
3.59297e-05
0.000188982
3.59192e-05
3.5935e-05
2.58626e-05
2.58623e-05
2.58597e-05
2.586e-05
0.000188839
3.59218e-05
3.59379e-05
3.5917e-05
3.59334e-05
2.58623e-05
2.58625e-05
0.000117387
0.000220541
5.98244e-05
0.000209134
0.000117361
0.000220541
5.98401e-05
4.91235e-05
4.88931e-05
4.91141e-05
4.88924e-05
4.91239e-05
4.8893e-05
4.91145e-05
4.88923e-05
0.000117359
0.000209131
0.000220543
5.98458e-05
0.000220543
5.98294e-05
0.000117386
0.000117363
0.000209134
0.000220543
5.98421e-05
0.000220541
5.98254e-05
0.000117389
4.91179e-05
4.88923e-05
4.88929e-05
4.91267e-05
4.91183e-05
4.88922e-05
4.88928e-05
4.91269e-05
2.58624e-05
2.58621e-05
2.58614e-05
2.58611e-05
0.000188843
3.59374e-05
3.5931e-05
3.59328e-05
3.59264e-05
2.58621e-05
2.58623e-05
2.58612e-05
2.58613e-05
2.58637e-05
2.58636e-05
2.58618e-05
2.58617e-05
3.59373e-05
3.59295e-05
0.000188989
3.5941e-05
3.59332e-05
2.58641e-05
2.58639e-05
2.58622e-05
2.5862e-05
0.000188845
3.59382e-05
3.59304e-05
3.59385e-05
3.59307e-05
4.91223e-05
4.88963e-05
4.91147e-05
4.88957e-05
0.000117389
5.98349e-05
0.000220546
0.000209127
0.000117367
5.98509e-05
0.000220546
0.000117392
5.98317e-05
0.000220545
0.000209126
0.000117369
5.98481e-05
0.000220546
4.91139e-05
4.88969e-05
4.88968e-05
4.91171e-05
4.91151e-05
4.88964e-05
4.88964e-05
4.91183e-05
0.000117361
0.000209126
5.98465e-05
0.000220544
5.9836e-05
0.000220545
0.000117378
0.000117363
0.000209125
5.98438e-05
0.000220544
5.98329e-05
0.000220545
0.00011738
3.59308e-05
3.59273e-05
0.000188992
3.59345e-05
3.59314e-05
2.58633e-05
2.58631e-05
2.58628e-05
2.58626e-05
0.000188848
3.59316e-05
3.59287e-05
3.59319e-05
3.59284e-05
2.58636e-05
2.58635e-05
0.00011739
5.98266e-05
0.000220548
0.000209138
0.000117369
5.98425e-05
0.000220547
4.91272e-05
4.88899e-05
4.91204e-05
4.88893e-05
0.00011739
0.000220543
5.98179e-05
0.000209118
0.000117368
0.000220543
5.98345e-05
4.91218e-05
4.88928e-05
4.88927e-05
4.91242e-05
0.000117362
0.000209136
5.98381e-05
0.000220543
5.98277e-05
0.000220546
0.00011738
4.91208e-05
4.889e-05
4.889e-05
4.91232e-05
0.000117361
0.000209117
0.00022054
5.98301e-05
0.000220542
5.98187e-05
0.00011738
4.91214e-05
4.88949e-05
4.91136e-05
4.88943e-05
0.00011739
0.000220545
5.98314e-05
0.000209127
0.000117367
0.000220546
5.98476e-05
4.91211e-05
4.88931e-05
4.91135e-05
4.88925e-05
0.000117365
0.000209136
5.98411e-05
0.000220543
5.98296e-05
0.000220545
0.000117381
4.91143e-05
4.8895e-05
4.8895e-05
4.91175e-05
0.000117361
0.000209125
0.000220543
5.98433e-05
0.000220545
5.98325e-05
0.000117379
4.91139e-05
4.88932e-05
4.88932e-05
4.91171e-05
3.59192e-05
3.59359e-05
0.000188982
3.59233e-05
3.59397e-05
2.58625e-05
2.58624e-05
2.58604e-05
2.58602e-05
0.000188839
3.59204e-05
3.59369e-05
3.59201e-05
3.59371e-05
2.5863e-05
2.58628e-05
0.000117388
0.000220545
5.98276e-05
0.000209136
0.000117366
0.000220546
5.9844e-05
4.91278e-05
4.88929e-05
4.91207e-05
4.88923e-05
4.91278e-05
4.88927e-05
4.91209e-05
4.88921e-05
0.00011736
0.000209129
0.000220542
5.98438e-05
0.000220544
5.98328e-05
0.00011738
0.00011736
0.000209134
0.000220543
5.98396e-05
0.000220546
5.98287e-05
0.000117379
4.91214e-05
4.8893e-05
4.88929e-05
4.9124e-05
4.91213e-05
4.88928e-05
4.88928e-05
4.91238e-05
2.58624e-05
2.58622e-05
2.58614e-05
2.58613e-05
0.000188843
3.59364e-05
3.59298e-05
3.59365e-05
3.59301e-05
2.58628e-05
2.58626e-05
2.58618e-05
2.58616e-05
2.58644e-05
2.58644e-05
2.58625e-05
2.58625e-05
3.5934e-05
3.59262e-05
0.000188957
3.59319e-05
3.59241e-05
2.58644e-05
2.58647e-05
2.58625e-05
2.58628e-05
0.000188796
3.59229e-05
3.59151e-05
3.59274e-05
3.59196e-05
4.9103e-05
4.88974e-05
4.91078e-05
4.88987e-05
0.00011736
5.98287e-05
0.00022054
0.000209108
0.000117348
5.98319e-05
0.000220531
0.000117361
5.98256e-05
0.00022054
0.000209106
0.00011735
5.98292e-05
0.000220531
4.90901e-05
4.89014e-05
4.89009e-05
4.9086e-05
4.90908e-05
4.89011e-05
4.89005e-05
4.90867e-05
0.000117319
0.000209088
5.98144e-05
0.000220506
5.98125e-05
0.000220513
0.000117304
0.00011732
0.000209086
5.98114e-05
0.000220505
5.98092e-05
0.000220513
0.000117305
3.59274e-05
3.5924e-05
0.00018896
3.59253e-05
3.59223e-05
2.5864e-05
2.5864e-05
2.58632e-05
2.58634e-05
0.000188799
3.59163e-05
3.59131e-05
3.59209e-05
3.59176e-05
2.5864e-05
2.58643e-05
0.000117361
5.98203e-05
0.000220539
0.000209118
0.00011735
5.98235e-05
0.00022053
4.91076e-05
4.8891e-05
4.91136e-05
4.88922e-05
0.000117361
0.000220537
5.98114e-05
0.000209099
0.00011735
0.000220528
5.98156e-05
4.90975e-05
4.88973e-05
4.88968e-05
4.90924e-05
0.00011732
0.000209097
5.98059e-05
0.000220505
5.9804e-05
0.000220512
0.000117304
4.90961e-05
4.88947e-05
4.88939e-05
4.90909e-05
0.000117319
0.000209079
0.000220503
5.97978e-05
0.00022051
5.97951e-05
0.000117303
4.91022e-05
4.8896e-05
4.91071e-05
4.88973e-05
0.000117359
0.00022054
5.98253e-05
0.000209107
0.000117349
0.00022053
5.98288e-05
4.91017e-05
4.88941e-05
4.91066e-05
4.88956e-05
0.000117321
0.000209102
5.9809e-05
0.000220507
5.98064e-05
0.000220514
0.000117305
4.90901e-05
4.88997e-05
4.8899e-05
4.90859e-05
0.000117319
0.000209087
0.000220505
5.9811e-05
0.000220513
5.98089e-05
0.000117303
4.90896e-05
4.88979e-05
4.88973e-05
4.90854e-05
3.59156e-05
3.59327e-05
0.00018895
3.5914e-05
3.59307e-05
2.58633e-05
2.58633e-05
2.58607e-05
2.5861e-05
0.00018879
3.59052e-05
3.59216e-05
3.5909e-05
3.59262e-05
2.58633e-05
2.58635e-05
0.000117359
0.000220539
5.98214e-05
0.000209116
0.000117349
0.00022053
5.9825e-05
4.91084e-05
4.88939e-05
4.91142e-05
4.88953e-05
4.91082e-05
4.88937e-05
4.91141e-05
4.88951e-05
0.000117319
0.000209096
0.000220506
5.98117e-05
0.000220513
5.98098e-05
0.000117304
0.000117317
0.000209096
0.000220505
5.98072e-05
0.000220512
5.9805e-05
0.000117302
4.90968e-05
4.88977e-05
4.8897e-05
4.90918e-05
4.90966e-05
4.88975e-05
4.88969e-05
4.90915e-05
2.58631e-05
2.58631e-05
2.58621e-05
2.58621e-05
0.000188794
3.59214e-05
3.59148e-05
3.59257e-05
3.59192e-05
2.58631e-05
2.58633e-05
2.58621e-05
2.58624e-05
2.58646e-05
2.58643e-05
2.58627e-05
2.58624e-05
3.59178e-05
3.591e-05
0.000188913
3.59156e-05
3.59078e-05
2.58643e-05
2.58645e-05
2.58624e-05
2.58626e-05
0.000188772
3.59143e-05
3.59066e-05
3.59126e-05
3.59047e-05
4.90783e-05
4.89017e-05
4.90763e-05
4.89012e-05
0.000117296
5.97963e-05
0.000220505
0.000209073
0.000117272
5.98051e-05
0.000220508
0.000117297
5.97929e-05
0.000220505
0.00020907
0.000117272
5.98021e-05
0.000220507
4.90696e-05
4.89014e-05
4.8902e-05
4.90757e-05
4.90703e-05
4.89011e-05
4.89017e-05
4.90763e-05
0.000117272
0.000209074
5.98025e-05
0.000220512
5.97894e-05
0.00022051
0.000117298
0.000117273
0.000209071
5.97994e-05
0.000220512
5.97859e-05
0.00022051
0.0001173
3.59118e-05
3.59087e-05
0.000188916
3.5909e-05
3.59053e-05
2.58642e-05
2.58639e-05
2.58631e-05
2.58633e-05
0.000188775
3.59078e-05
3.59039e-05
3.59059e-05
3.59016e-05
2.58639e-05
2.58641e-05
0.000117298
5.97877e-05
0.000220505
0.000209082
0.000117273
5.97966e-05
0.000220507
4.90831e-05
4.88954e-05
4.90816e-05
4.88948e-05
0.000117297
0.000220502
5.97786e-05
0.000209063
0.000117272
0.000220504
5.97882e-05
4.90776e-05
4.88974e-05
4.8898e-05
4.9083e-05
0.000117275
0.000209083
5.97942e-05
0.000220512
5.97809e-05
0.00022051
0.0001173
4.9076e-05
4.88946e-05
4.88953e-05
4.90813e-05
0.000117273
0.000209064
0.000220509
5.97854e-05
0.000220507
5.97715e-05
0.000117299
4.90775e-05
4.89004e-05
4.90755e-05
4.88998e-05
0.000117295
0.000220505
5.97927e-05
0.000209071
0.000117271
0.000220507
5.98018e-05
4.9077e-05
4.88986e-05
4.9075e-05
4.8898e-05
0.000117273
0.000209087
5.97967e-05
0.000220513
5.97828e-05
0.000220512
0.000117297
4.90694e-05
4.88996e-05
4.89003e-05
4.90754e-05
0.000117271
0.000209072
0.000220512
5.97991e-05
0.00022051
5.97858e-05
0.000117297
4.90689e-05
4.88979e-05
4.88985e-05
4.9075e-05
3.59002e-05
3.59165e-05
0.000188906
3.58975e-05
3.59144e-05
2.58635e-05
2.58632e-05
2.58606e-05
2.58609e-05
0.000188765
3.58961e-05
3.59131e-05
3.58937e-05
3.59113e-05
2.58632e-05
2.58634e-05
0.000117295
0.000220504
5.97887e-05
0.000209081
0.000117269
0.000220507
5.9798e-05
4.90839e-05
4.88983e-05
4.90822e-05
4.88978e-05
4.90837e-05
4.88982e-05
4.9082e-05
4.88976e-05
0.000117272
0.000209081
0.000220512
5.97998e-05
0.00022051
5.97865e-05
0.000117298
0.000117271
0.000209081
0.000220511
5.97953e-05
0.000220509
5.97818e-05
0.000117297
4.90765e-05
4.88976e-05
4.88983e-05
4.9082e-05
4.90763e-05
4.88975e-05
4.88981e-05
4.90817e-05
2.58633e-05
2.5863e-05
2.58623e-05
2.58621e-05
0.000188772
3.59131e-05
3.59065e-05
3.59112e-05
3.59047e-05
2.5863e-05
2.58632e-05
2.5862e-05
2.58623e-05
2.58645e-05
2.58643e-05
2.58626e-05
2.58624e-05
3.59118e-05
3.59039e-05
0.000188916
3.59142e-05
3.59064e-05
2.58643e-05
2.58645e-05
2.58624e-05
2.58626e-05
0.000188772
3.59142e-05
3.59064e-05
3.59117e-05
3.59038e-05
4.9076e-05
4.89016e-05
4.9069e-05
4.8901e-05
0.000117299
5.97874e-05
0.000220513
0.000209077
0.000117274
5.98019e-05
0.000220513
0.0001173
5.9784e-05
0.000220513
0.000209074
0.000117275
5.97989e-05
0.000220513
4.9068e-05
4.89013e-05
4.89019e-05
4.90752e-05
4.90687e-05
4.8901e-05
4.89016e-05
4.9076e-05
0.000117274
0.000209077
5.98018e-05
0.000220513
5.97871e-05
0.000220514
0.000117298
0.000117275
0.000209074
5.97988e-05
0.000220513
5.97837e-05
0.000220513
0.0001173
3.59052e-05
3.59008e-05
0.000188919
3.59076e-05
3.59038e-05
2.58641e-05
2.58638e-05
2.58632e-05
2.58633e-05
0.000188775
3.59067e-05
3.59038e-05
3.59051e-05
3.59008e-05
2.58638e-05
2.58641e-05
0.000117301
5.97781e-05
0.000220513
0.000209086
0.000117276
5.9793e-05
0.000220513
4.9081e-05
4.88952e-05
4.90747e-05
4.88946e-05
0.0001173
0.00022051
5.97695e-05
0.000209067
0.000117275
0.00022051
5.97848e-05
4.90762e-05
4.88972e-05
4.88978e-05
4.90826e-05
0.000117276
0.000209086
5.97924e-05
0.000220513
5.97772e-05