/*--------------------------------*- C++ -*----------------------------------*\
| =========                 |                                                 |
| \\      /  F ield         | OpenFOAM: The Open Source CFD Toolbox           |
|  \\    /   O peration     | Version:  2206                                  |
|   \\  /    A nd           | Website:  www.openfoam.com                      |
|    \\/     M anipulation  |                                                 |
\*---------------------------------------------------------------------------*/
FoamFile
{
    version     2.0;
    format      ascii;
    arch        "LSB;label=32;scalar=64";
    class       volScalarField;
    location    "5";
    object      epsilon;
}
// * * * * * * * * * * * * * * * * * * * * * * * * * * * * * * * * * * * * * //

dimensions      [0 2 -3 0 0 0 0];

internalField   nonuniform List<scalar> 
28673
(
4.73395e-07
4.75394e-07
4.71913e-07
4.73192e-07
4.73347e-07
4.75315e-07
4.71667e-07
4.73107e-07
4.73113e-07
4.75138e-07
4.71663e-07
4.73108e-07
4.73109e-07
4.75141e-07
4.71662e-07
4.73108e-07
4.73109e-07
4.75141e-07
4.71662e-07
4.73108e-07
4.73109e-07
4.75141e-07
4.71662e-07
4.73108e-07
4.73109e-07
4.75141e-07
4.71662e-07
4.73108e-07
4.73109e-07
4.75141e-07
4.71662e-07
4.73108e-07
4.73109e-07
4.75141e-07
4.71662e-07
4.73108e-07
4.73109e-07
4.75141e-07
4.71662e-07
4.73108e-07
4.73108e-07
4.7514e-07
4.71662e-07
4.73103e-07
4.73104e-07
4.75134e-07
4.71643e-07
4.72424e-07
4.72424e-07
4.74696e-07
4.73399e-07
4.75371e-07
4.73397e-07
4.75379e-07
4.73398e-07
4.73397e-07
4.73358e-07
4.73281e-07
4.75402e-07
4.75212e-07
4.73383e-07
4.73385e-07
4.73398e-07
4.73286e-07
4.73353e-07
4.75372e-07
4.73397e-07
4.73384e-07
4.73352e-07
4.75323e-07
4.75395e-07
4.75118e-07
4.73277e-07
4.73193e-07
4.73115e-07
4.73109e-07
4.75216e-07
4.7511e-07
4.73354e-07
4.73356e-07
4.73131e-07
4.73133e-07
4.73264e-07
4.73108e-07
4.73114e-07
4.75393e-07
4.75121e-07
4.73263e-07
4.73129e-07
4.73113e-07
4.75114e-07
4.75143e-07
4.75114e-07
4.73114e-07
4.73112e-07
4.7311e-07
4.7311e-07
4.7514e-07
4.75112e-07
4.73117e-07
4.73118e-07
4.73109e-07
4.7311e-07
4.73114e-07
4.7311e-07
4.7311e-07
4.75145e-07
4.75114e-07
4.73113e-07
4.7311e-07
4.73109e-07
4.75117e-07
4.75142e-07
4.75113e-07
4.73113e-07
4.73113e-07
4.7311e-07
4.7311e-07
4.75141e-07
4.75112e-07
4.73113e-07
4.73114e-07
4.73109e-07
4.73111e-07
4.73113e-07
4.73109e-07
4.7311e-07
4.75143e-07
4.75113e-07
4.73113e-07
4.73109e-07
4.73109e-07
4.75117e-07
4.75142e-07
4.75113e-07
4.73113e-07
4.73113e-07
4.7311e-07
4.7311e-07
4.75141e-07
4.75112e-07
4.73112e-07
4.73114e-07
4.73109e-07
4.73111e-07
4.73113e-07
4.73109e-07
4.7311e-07
4.75142e-07
4.75113e-07
4.73113e-07
4.7311e-07
4.73109e-07
4.75117e-07
4.75142e-07
4.75113e-07
4.73113e-07
4.73113e-07
4.7311e-07
4.7311e-07
4.75141e-07
4.75112e-07
4.73113e-07
4.73114e-07
4.73109e-07
4.73111e-07
4.73113e-07
4.73109e-07
4.7311e-07
4.75142e-07
4.75113e-07
4.73113e-07
4.7311e-07
4.73109e-07
4.75117e-07
4.75142e-07
4.75113e-07
4.73113e-07
4.73113e-07
4.7311e-07
4.7311e-07
4.75141e-07
4.75112e-07
4.73112e-07
4.73114e-07
4.73109e-07
4.73111e-07
4.73113e-07
4.73109e-07
4.7311e-07
4.75142e-07
4.75113e-07
4.73113e-07
4.7311e-07
4.73109e-07
4.75117e-07
4.75142e-07
4.75113e-07
4.73113e-07
4.73113e-07
4.7311e-07
4.7311e-07
4.75141e-07
4.75112e-07
4.73113e-07
4.73114e-07
4.73109e-07
4.73111e-07
4.73113e-07
4.73109e-07
4.7311e-07
4.75142e-07
4.75114e-07
4.73113e-07
4.7311e-07
4.73109e-07
4.75117e-07
4.75142e-07
4.75113e-07
4.73113e-07
4.73113e-07
4.7311e-07
4.7311e-07
4.75141e-07
4.75112e-07
4.73112e-07
4.73114e-07
4.73109e-07
4.73111e-07
4.73113e-07
4.73109e-07
4.7311e-07
4.75142e-07
4.75114e-07
4.73113e-07
4.7311e-07
4.73109e-07
4.75117e-07
4.75142e-07
4.75113e-07
4.73113e-07
4.73113e-07
4.7311e-07
4.7311e-07
4.75141e-07
4.75112e-07
4.73112e-07
4.73114e-07
4.73109e-07
4.73111e-07
4.73113e-07
4.73109e-07
4.7311e-07
4.75142e-07
4.75114e-07
4.73113e-07
4.73109e-07
4.73109e-07
4.75117e-07
4.75142e-07
4.7511e-07
4.73113e-07
4.73113e-07
4.73105e-07
4.73105e-07
4.75141e-07
4.75109e-07
4.73112e-07
4.73114e-07
4.73104e-07
4.73106e-07
4.73113e-07
4.73108e-07
4.73105e-07
4.75142e-07
4.75111e-07
4.73112e-07
4.73108e-07
4.73104e-07
4.75114e-07
4.75139e-07
4.74891e-07
4.73111e-07
4.7311e-07
4.72721e-07
4.72721e-07
4.75137e-07
4.74891e-07
4.7311e-07
4.73112e-07
4.72721e-07
4.72721e-07
4.73111e-07
4.72722e-07
4.72721e-07
4.75139e-07
4.74892e-07
4.7311e-07
4.72722e-07
4.72721e-07
4.74892e-07
4.74699e-07
4.72426e-07
4.72425e-07
4.74698e-07
4.72426e-07
4.72425e-07
4.7164e-07
4.71639e-07
4.7164e-07
4.72426e-07
4.74698e-07
4.72426e-07
1.03415e-06
5.2942e-06
1.0343e-06
5.29434e-06
1.78324e-05
1.78322e-05
1.03405e-06
5.29515e-06
4.71974e-07
4.71969e-07
4.71954e-07
4.71914e-07
4.71954e-07
4.7192e-07
5.37514e-07
8.98937e-07
4.72192e-07
4.73389e-07
5.37578e-07
8.98795e-07
4.72188e-07
1.78365e-05
5.37531e-07
4.72189e-07
4.734e-07
5.376e-07
4.72186e-07
8.98709e-07
1.59356e-06
1.59385e-06
4.7537e-07
1.59366e-06
1.59396e-06
1.03588e-06
5.3002e-06
1.03532e-06
5.3028e-06
1.78798e-05
1.78804e-05
1.03534e-06
5.29595e-06
1.03438e-06
5.30234e-06
4.71815e-07
4.71919e-07
4.71826e-07
4.71684e-07
4.71666e-07
4.71685e-07
4.71667e-07
5.37644e-07
9.00098e-07
4.72039e-07
4.73143e-07
5.37632e-07
9.00038e-07
4.71959e-07
1.78396e-05
1.78762e-05
5.37657e-07
4.72052e-07
8.99142e-07
4.73258e-07
5.37647e-07
4.71967e-07
8.99615e-07
1.59619e-06
1.59649e-06
4.7514e-07
1.5973e-06
1.5976e-06
1.03593e-06
5.30306e-06
1.03609e-06
5.30294e-06
1.78814e-05
1.78805e-05
1.03584e-06
5.30388e-06
1.03599e-06
5.30372e-06
4.71667e-07
4.7167e-07
4.71667e-07
4.71664e-07
4.71663e-07
4.71662e-07
4.71663e-07
5.37653e-07
9.00267e-07
4.71885e-07
4.73112e-07
5.37703e-07
9.00042e-07
4.71889e-07
1.78837e-05
1.78827e-05
5.37674e-07
4.71886e-07
9.00212e-07
4.73113e-07
5.37725e-07
4.71889e-07
9.00009e-07
1.59748e-06
1.59778e-06
4.75116e-07
1.59728e-06
1.59758e-06
1.03593e-06
5.30304e-06
1.03609e-06
5.30293e-06
1.78814e-05
1.78806e-05
1.03584e-06
5.30384e-06
1.03597e-06
5.30371e-06
4.71666e-07
4.71666e-07
4.71666e-07
4.71663e-07
4.71663e-07
4.71662e-07
4.71663e-07
5.37656e-07
9.00266e-07
4.71885e-07
4.73112e-07
5.37702e-07
9.00042e-07
4.71889e-07
1.78833e-05
1.78827e-05
5.37677e-07
4.71886e-07
9.00214e-07
4.73112e-07
5.37723e-07
4.71889e-07
9.00009e-07
1.59747e-06
1.59777e-06
4.75116e-07
1.59727e-06
1.59757e-06
1.03593e-06
5.30304e-06
1.03609e-06
5.30293e-06
1.78814e-05
1.78806e-05
1.03584e-06
5.30384e-06
1.03597e-06
5.30371e-06
4.71666e-07
4.71666e-07
4.71666e-07
4.71663e-07
4.71663e-07
4.71663e-07
4.71663e-07
5.37656e-07
9.00266e-07
4.71885e-07
4.73112e-07
5.37703e-07
9.00042e-07
4.71889e-07
1.78833e-05
1.78827e-05
5.37677e-07
4.71885e-07
9.00214e-07
4.73112e-07
5.37722e-07
4.71889e-07
9.00009e-07
1.59747e-06
1.59777e-06
4.75116e-07
1.59727e-06
1.59757e-06
1.03593e-06
5.30304e-06
1.03609e-06
5.30293e-06
1.78814e-05
1.78806e-05
1.03584e-06
5.30384e-06
1.03597e-06
5.30371e-06
4.71666e-07
4.71666e-07
4.71666e-07
4.71663e-07
4.71662e-07
4.71663e-07
4.71663e-07
5.37656e-07
9.00266e-07
4.71885e-07
4.73112e-07
5.37701e-07
9.00041e-07
4.71889e-07
1.78833e-05
1.78826e-05
5.37677e-07
4.71885e-07
9.00214e-07
4.73112e-07
5.37722e-07
4.71889e-07
9.00009e-07
1.59747e-06
1.59777e-06
4.75116e-07
1.59727e-06
1.59757e-06
1.03593e-06
5.30304e-06
1.03609e-06
5.30293e-06
1.78814e-05
1.78806e-05
1.03584e-06
5.30384e-06
1.03597e-06
5.30371e-06
4.71666e-07
4.71666e-07
4.71666e-07
4.71663e-07
4.71663e-07
4.71663e-07
4.71663e-07
5.37655e-07
9.00265e-07
4.71885e-07
4.73112e-07
5.37701e-07
9.00041e-07
4.71889e-07
1.78833e-05
1.78827e-05
5.37675e-07
4.71885e-07
9.00214e-07
4.73112e-07
5.37721e-07
4.71889e-07
9.00009e-07
1.59747e-06
1.59777e-06
4.75116e-07
1.59727e-06
1.59757e-06
1.03593e-06
5.30304e-06
1.03609e-06
5.30293e-06
1.78814e-05
1.78806e-05
1.03584e-06
5.30384e-06
1.03597e-06
5.30371e-06
4.71666e-07
4.71666e-07
4.71666e-07
4.71663e-07
4.71662e-07
4.71663e-07
4.71663e-07
5.37656e-07
9.00266e-07
4.71885e-07
4.73112e-07
5.37702e-07
9.00042e-07
4.71889e-07
1.78833e-05
1.78827e-05
5.37667e-07
4.71885e-07
9.00214e-07
4.73112e-07
5.37714e-07
4.71889e-07
9.00009e-07
1.59747e-06
1.59777e-06
4.75116e-07
1.59727e-06
1.59757e-06
1.03593e-06
5.30304e-06
1.03609e-06
5.30293e-06
1.78814e-05
1.78806e-05
1.03584e-06
5.30384e-06
1.03597e-06
5.30371e-06
4.71666e-07
4.71666e-07
4.71666e-07
4.71663e-07
4.71663e-07
4.71663e-07
4.71663e-07
5.37656e-07
9.00266e-07
4.71885e-07
4.73112e-07
5.37701e-07
9.00042e-07
4.71889e-07
1.78833e-05
1.78826e-05
5.37664e-07
4.71885e-07
9.00214e-07
4.73112e-07
5.37708e-07
4.71889e-07
9.00009e-07
1.59747e-06
1.59777e-06
4.75116e-07
1.59727e-06
1.59757e-06
1.03593e-06
5.30304e-06
1.03609e-06
5.30293e-06
1.78814e-05
1.78806e-05
1.03584e-06
5.30379e-06
1.03597e-06
5.30365e-06
4.71666e-07
4.71666e-07
4.71666e-07
4.71663e-07
4.71662e-07
4.71663e-07
4.71662e-07
5.37656e-07
9.00265e-07
4.71885e-07
4.73112e-07
5.377e-07
9.00041e-07
4.71889e-07
1.78833e-05
1.78827e-05
5.37664e-07
4.71885e-07
9.00213e-07
4.73112e-07
5.37708e-07
4.71889e-07
9.00008e-07
1.59747e-06
1.59777e-06
4.75116e-07
1.59727e-06
1.59757e-06
1.03591e-06
5.30304e-06
1.03608e-06
5.30296e-06
1.78815e-05
1.78806e-05
1.03581e-06
5.30376e-06
1.03596e-06
5.30368e-06
4.71666e-07
4.71666e-07
4.71666e-07
4.71663e-07
4.71662e-07
4.71662e-07
4.71663e-07
5.37651e-07
9.0026e-07
4.71885e-07
4.73111e-07
5.37701e-07
9.00023e-07
4.71888e-07
1.78833e-05
1.78828e-05
5.37662e-07
4.71885e-07
9.00208e-07
4.73112e-07
5.3771e-07
4.71889e-07
8.99991e-07
1.59746e-06
1.59775e-06
4.75115e-07
1.59726e-06
1.59754e-06
1.03459e-06
5.30118e-06
1.03607e-06
5.30025e-06
1.78748e-05
1.78695e-05
1.03462e-06
5.30199e-06
1.03598e-06
5.30097e-06
4.71665e-07
4.71666e-07
4.71666e-07
4.71659e-07
4.71657e-07
4.71657e-07
4.71657e-07
5.37289e-07
8.99928e-07
4.71882e-07
4.73081e-07
5.37658e-07
9.00038e-07
4.71887e-07
1.78774e-05
1.78718e-05
5.37295e-07
4.71882e-07
8.99948e-07
4.73081e-07
5.37667e-07
4.71887e-07
9.00054e-07
1.59749e-06
1.59777e-06
4.75079e-07
1.60243e-06
1.60259e-06
7.87469e-07
4.77149e-06
1.02657e-06
2.04671e-06
1.43013e-05
4.88338e-06
7.87487e-07
4.77245e-06
1.02662e-06
2.04696e-06
4.71609e-07
4.71611e-07
4.71611e-07
4.7167e-07
4.71608e-07
4.71613e-07
4.71613e-07
5.26123e-07
8.72619e-07
4.71818e-07
4.72159e-07
5.34093e-07
8.89778e-07
4.71681e-07
1.43028e-05
4.88315e-06
5.26129e-07
4.71818e-07
8.72606e-07
4.72159e-07
5.34095e-07
4.71681e-07
8.8977e-07
1.58336e-06
1.58384e-06
4.74199e-07
1.35269e-06
1.35269e-06
5.29431e-06
8.98755e-07
1.78328e-05
1.5937e-06
1.59355e-06
1.78308e-05
8.98722e-07
5.29435e-06
1.78339e-05
1.78323e-05
1.78342e-05
1.59352e-06
4.75397e-07
1.5936e-06
1.59367e-06
1.78469e-05
1.78319e-05
1.78338e-05
1.78333e-05
4.75426e-07
1.59451e-06
1.59396e-06
1.5936e-06
1.59371e-06
1.03414e-06
5.29436e-06
1.03431e-06
5.29474e-06
5.37514e-07
8.99028e-07
4.72188e-07
4.73395e-07
5.3758e-07
8.98733e-07
4.72185e-07
5.37514e-07
8.98921e-07
4.7219e-07
4.73388e-07
5.3758e-07
8.98835e-07
4.72186e-07
1.03425e-06
5.29708e-06
5.29433e-06
1.0346e-06
1.03424e-06
5.30178e-06
5.29528e-06
1.03458e-06
5.37558e-07
4.73386e-07
8.9907e-07
4.72141e-07
8.98893e-07
4.72173e-07
5.37554e-07
5.37558e-07
4.73362e-07
8.99632e-07
4.72138e-07
8.99091e-07
4.72174e-07
5.37551e-07
1.59379e-06
1.59378e-06
4.75372e-07
1.59387e-06
1.59376e-06
1.78308e-05
1.78314e-05
1.78739e-05
1.78353e-05
4.75393e-07
1.59677e-06
1.59656e-06
1.59418e-06
1.59419e-06
1.78723e-05
1.78342e-05
5.37508e-07
4.73396e-07
8.98829e-07
4.72187e-07
1.03402e-06
5.29506e-06
5.3751e-07
4.73398e-07
4.72186e-07
8.98882e-07
1.03414e-06
5.29538e-06
5.29515e-06
1.03414e-06
5.3755e-07
4.73393e-07
8.9891e-07
4.72173e-07
8.98982e-07
4.72183e-07
5.3752e-07
1.03411e-06
5.29529e-06
5.29506e-06
1.03412e-06
5.37553e-07
4.73394e-07
4.72173e-07
8.98963e-07
4.72183e-07
8.99064e-07
5.37521e-07
1.03415e-06
5.29444e-06
1.03432e-06
5.2948e-06
5.37515e-07
4.72187e-07
8.9906e-07
4.73395e-07
5.37578e-07
4.72184e-07
8.98763e-07
1.03415e-06
5.29494e-06
1.03432e-06
5.29504e-06
5.37557e-07
4.73364e-07
8.99601e-07
4.7214e-07
8.99084e-07
4.72176e-07
5.37547e-07
1.03425e-06
5.30179e-06
5.29535e-06
1.03459e-06
5.37558e-07
4.73384e-07
4.7214e-07
8.99098e-07
4.72173e-07
8.98925e-07
5.37548e-07
1.03425e-06
5.29766e-06
5.29504e-06
1.03459e-06
4.75374e-07
1.59408e-06
1.59347e-06
1.78333e-05
1.78363e-05
1.7836e-05
4.75404e-07
1.59424e-06
1.59365e-06
1.59429e-06
1.59354e-06
1.78329e-05
1.78324e-05
5.37533e-07
4.72188e-07
8.99139e-07
4.73394e-07
5.37602e-07
4.72185e-07
8.98838e-07
1.03426e-06
1.03449e-06
5.29474e-06
1.03426e-06
5.29515e-06
1.03451e-06
5.29526e-06
5.37573e-07
4.73396e-07
4.72145e-07
8.9881e-07
4.72176e-07
8.98874e-07
5.37563e-07
5.37574e-07
4.73383e-07
4.72141e-07
8.99174e-07
4.72173e-07
8.99003e-07
5.37564e-07
1.03441e-06
5.29498e-06
5.29473e-06
1.03471e-06
1.03441e-06
5.29788e-06
5.29525e-06
1.03471e-06
1.78355e-05
1.78339e-05
1.78366e-05
1.7835e-05
4.75398e-07
1.59465e-06
1.59495e-06
1.59366e-06
1.59396e-06
1.78494e-05
1.78335e-05
1.78505e-05
1.78346e-05
1.7863e-05
1.78791e-05
1.78368e-05
1.78753e-05
1.59601e-06
1.59452e-06
4.75193e-07
1.59728e-06
1.59693e-06
1.78793e-05
1.78783e-05
1.78817e-05
1.78794e-05
4.75201e-07
1.59729e-06
1.59764e-06
1.5973e-06
1.59763e-06
1.03589e-06
5.3028e-06
1.03526e-06
5.30306e-06
5.37648e-07
8.99578e-07
4.72048e-07
4.73193e-07
5.37633e-07
8.99943e-07
4.71963e-07
5.37649e-07
9.0007e-07
4.72042e-07
4.73145e-07
5.37633e-07
9.00054e-07
4.71959e-07
1.03602e-06
5.30279e-06
5.30263e-06
1.03593e-06
1.03603e-06
5.30305e-06
5.30284e-06
1.03593e-06
5.37701e-07
4.73137e-07
8.99993e-07
4.71889e-07
9.00119e-07
4.71909e-07
5.37661e-07
5.37701e-07
4.73117e-07
9.00063e-07
4.71889e-07
9.00207e-07
4.71907e-07
5.37661e-07
1.5976e-06
1.59748e-06
4.75121e-07
1.59761e-06
1.59751e-06
1.7877e-05
1.78784e-05
1.78803e-05
1.78787e-05
4.75145e-07
1.59756e-06
1.59751e-06
1.59762e-06
1.59771e-06
1.78785e-05
1.78771e-05
5.37605e-07
8.9918e-07
4.72143e-07
4.73268e-07
5.37575e-07
8.99723e-07
4.72053e-07
1.03537e-06
5.29588e-06
1.03429e-06
5.30254e-06
5.37608e-07
4.72143e-07
8.9926e-07
4.7327e-07
5.37578e-07
4.72053e-07
8.99767e-07
1.03585e-06
5.30369e-06
5.3033e-06
1.03585e-06
5.37681e-07
4.7318e-07
9.00122e-07
4.71908e-07
9.00132e-07
4.71959e-07
5.3766e-07
1.03587e-06
5.30395e-06
5.30359e-06
1.03587e-06
5.37685e-07
4.73182e-07
4.71908e-07
9.00209e-07
4.71959e-07
9.0023e-07
5.37663e-07
1.0359e-06
5.30285e-06
1.03527e-06
5.3031e-06
5.37646e-07
4.72047e-07
8.99608e-07
4.73183e-07
5.37627e-07
4.71962e-07
8.99969e-07
1.0359e-06
5.30064e-06
1.03527e-06
5.30352e-06
5.37697e-07
4.73118e-07
9.00048e-07
4.71889e-07
9.00208e-07
4.71909e-07
5.3766e-07
1.03604e-06
5.30308e-06
5.30288e-06
1.03594e-06
5.37698e-07
4.73133e-07
4.71889e-07
9.00024e-07
4.71909e-07
9.0015e-07
5.37661e-07
1.03604e-06
5.30347e-06
5.30339e-06
1.03594e-06
1.59473e-06
1.59394e-06
4.75208e-07
1.59702e-06
1.59648e-06
1.78356e-05
1.78739e-05
1.78827e-05
1.78806e-05
4.75213e-07
1.59796e-06
1.59735e-06
1.59794e-06
1.59728e-06
1.78809e-05
1.78783e-05
5.3766e-07
4.72048e-07
8.99685e-07
4.73183e-07
5.37643e-07
4.71962e-07
9.00044e-07
1.03599e-06
5.29563e-06
1.03543e-06
5.30233e-06
1.03599e-06
5.30087e-06
1.03543e-06
5.30374e-06
5.37712e-07
4.73175e-07
4.71891e-07
9.00004e-07
4.71913e-07
9.00029e-07
5.3768e-07
5.37715e-07
4.73132e-07
4.7189e-07
9.00101e-07
4.71909e-07
9.00229e-07
5.37682e-07
1.03622e-06
5.30362e-06
5.30327e-06
1.03609e-06
1.03622e-06
5.30369e-06
5.30362e-06
1.0361e-06
1.78653e-05
1.78807e-05
1.78664e-05
1.78819e-05
4.7516e-07
1.59733e-06
1.59763e-06
1.59731e-06
1.59762e-06
1.78809e-05
1.78799e-05
1.7882e-05
1.7881e-05
1.78788e-05
1.78791e-05
1.78805e-05
1.78814e-05
1.59729e-06
1.59765e-06
4.75113e-07
1.59728e-06
1.59761e-06
1.78794e-05
1.78776e-05
1.78816e-05
1.78799e-05
4.75143e-07
1.59728e-06
1.59761e-06
1.59728e-06
1.59761e-06
1.03593e-06
5.3029e-06
1.03602e-06
5.30299e-06
5.37651e-07
9.00145e-07
4.7189e-07
4.73113e-07
5.37699e-07
9.00005e-07
4.71889e-07
5.37653e-07
9.0021e-07
4.71889e-07
4.73112e-07
5.377e-07
9.00061e-07
4.71888e-07
1.03602e-06
5.30281e-06
5.30269e-06
1.03592e-06
1.03602e-06
5.30305e-06
5.30277e-06
1.03593e-06
5.37696e-07
4.7311e-07
8.99995e-07
4.71886e-07
9.00146e-07
4.71886e-07
5.3766e-07
5.37698e-07
4.7311e-07
9.00062e-07
4.71885e-07
9.00206e-07
4.71886e-07
5.37659e-07
1.59761e-06
1.59769e-06
4.75115e-07
1.59758e-06
1.59745e-06
1.78776e-05
1.78782e-05
1.78803e-05
1.78789e-05
4.75144e-07
1.59757e-06
1.59745e-06
1.5976e-06
1.59767e-06
1.78785e-05
1.7877e-05
5.37646e-07
9.00274e-07
4.71893e-07
4.73113e-07
5.37701e-07
9.00137e-07
4.71889e-07
1.03586e-06
5.30372e-06
1.03592e-06
5.30382e-06
5.37651e-07
4.71893e-07
9.00378e-07
4.73114e-07
5.37704e-07
4.71889e-07
9.00214e-07
1.03589e-06
5.30362e-06
5.30347e-06
1.03583e-06
5.37688e-07
4.73109e-07
9.00128e-07
4.71885e-07
9.00274e-07
4.71885e-07
5.37652e-07
1.03592e-06
5.30383e-06
5.30359e-06
1.03586e-06
5.37694e-07
4.7311e-07
4.71885e-07
9.0021e-07
4.71885e-07
9.00376e-07
5.37659e-07
1.03594e-06
5.30288e-06
1.03603e-06
5.30305e-06
5.37653e-07
4.71889e-07
9.00168e-07
4.73113e-07
5.37699e-07
4.71888e-07
9.0002e-07
1.03594e-06
5.30326e-06
1.03603e-06
5.30343e-06
5.37695e-07
4.73112e-07
9.00045e-07
4.71887e-07
9.00204e-07
4.71889e-07
5.37657e-07
1.03603e-06
5.30307e-06
5.30283e-06
1.03594e-06
5.37696e-07
4.7311e-07
4.71885e-07
9.00023e-07
4.71886e-07
9.00166e-07
5.37658e-07
1.03603e-06
5.30347e-06
5.3032e-06
1.03594e-06
1.59811e-06
1.59735e-06
4.75113e-07
1.59796e-06
1.59732e-06
1.78797e-05
1.78806e-05
1.7882e-05
1.78812e-05
4.75142e-07
1.59788e-06
1.59732e-06
1.59813e-06
1.59733e-06
1.78808e-05
1.7879e-05
5.37675e-07
4.7189e-07
9.00247e-07
4.73112e-07
5.37723e-07
4.71889e-07
9.00096e-07
1.03607e-06
5.30338e-06
1.03622e-06
5.30347e-06
1.03608e-06
5.30347e-06
1.03623e-06
5.30364e-06
5.37714e-07
4.73112e-07
4.71887e-07
9.00012e-07
4.71889e-07
9.00153e-07
5.37675e-07
5.37715e-07
4.7311e-07
4.71886e-07
9.00099e-07
4.71886e-07
9.00245e-07
5.37676e-07
1.03621e-06
5.30354e-06
5.30325e-06
1.03608e-06
1.03621e-06
5.30369e-06
5.30342e-06
1.03609e-06
1.78803e-05
1.78806e-05
1.78815e-05
1.78818e-05
4.75146e-07
1.59731e-06
1.59761e-06
1.59728e-06
1.59758e-06
1.7881e-05
1.78792e-05
1.78821e-05
1.78803e-05
1.78788e-05
1.78791e-05
1.7881e-05
1.78813e-05
1.59729e-06
1.59762e-06
4.75116e-07
1.59728e-06
1.59761e-06
1.78794e-05
1.78776e-05
1.78816e-05
1.78798e-05
4.75145e-07
1.59728e-06
1.59762e-06
1.59728e-06
1.59761e-06
1.03593e-06
5.30293e-06
1.03602e-06
5.30299e-06
5.37651e-07
9.00145e-07
4.71889e-07
4.73113e-07
5.37701e-07
9.00005e-07
4.71889e-07
5.37656e-07
9.0021e-07
4.71888e-07
4.73113e-07
5.37702e-07
9.00061e-07
4.71888e-07
1.03602e-06
5.30281e-06
5.30268e-06
1.03592e-06
1.03602e-06
5.30305e-06
5.30277e-06
1.03593e-06
5.37695e-07
4.73111e-07
8.99995e-07
4.71885e-07
9.00146e-07
4.71886e-07
5.3766e-07
5.37698e-07
4.73111e-07
9.00062e-07
4.71885e-07
9.00206e-07
4.71885e-07
5.37658e-07
1.59761e-06
1.59767e-06
4.75115e-07
1.59758e-06
1.59747e-06
1.78774e-05
1.78782e-05
1.78803e-05
1.78789e-05
4.75144e-07
1.59757e-06
1.59746e-06
1.5976e-06
1.59765e-06
1.78785e-05
1.7877e-05
5.37648e-07
9.00274e-07
4.71889e-07
4.73112e-07
5.37695e-07
9.00137e-07
4.71889e-07
1.03586e-06
5.30367e-06
1.03592e-06
5.30383e-06
5.37654e-07
4.7189e-07
9.00376e-07
4.73114e-07
5.37701e-07
4.71889e-07
9.00213e-07
1.03589e-06
5.30362e-06
5.30346e-06
1.03583e-06
5.3769e-07
4.7311e-07
9.00128e-07
4.71885e-07
9.00274e-07
4.71886e-07
5.37652e-07
1.03592e-06
5.30383e-06
5.30361e-06
1.03586e-06
5.37697e-07
4.73112e-07
4.71885e-07
9.0021e-07
4.71886e-07
9.00376e-07
5.37657e-07
1.03594e-06
5.30289e-06
1.03603e-06
5.30305e-06
5.37657e-07
4.71888e-07
9.00167e-07
4.73113e-07
5.37699e-07
4.71888e-07
9.00019e-07
1.03594e-06
5.3033e-06
1.03603e-06
5.3034e-06
5.37698e-07
4.73111e-07
9.00045e-07
4.71886e-07
9.00204e-07
4.71888e-07
5.37658e-07
1.03603e-06
5.30307e-06
5.30283e-06
1.03594e-06
5.37698e-07
4.73111e-07
4.71885e-07
9.00023e-07
4.71886e-07
9.00165e-07
5.37656e-07
1.03603e-06
5.30347e-06
5.30317e-06
1.03594e-06
1.59805e-06
1.59733e-06
4.75116e-07
1.59797e-06
1.59732e-06
1.78802e-05
1.78805e-05
1.7882e-05
1.78811e-05
4.75144e-07
1.59788e-06
1.59732e-06
1.59813e-06
1.59732e-06
1.78808e-05
1.7879e-05
5.37678e-07
4.71889e-07
9.00246e-07
4.73113e-07
5.37721e-07
4.71889e-07
9.00095e-07
1.03608e-06
5.30339e-06
1.03622e-06
5.30347e-06
1.03608e-06
5.3035e-06
1.03623e-06
5.30361e-06
5.37717e-07
4.73112e-07
4.71886e-07
9.00011e-07
4.71888e-07
9.00153e-07
5.37674e-07
5.37717e-07
4.7311e-07
4.71885e-07
9.00099e-07
4.71886e-07
9.00244e-07
5.37675e-07
1.03622e-06
5.30354e-06
5.30325e-06
1.03608e-06
1.03621e-06
5.30369e-06
5.30339e-06
1.03609e-06
1.78804e-05
1.78807e-05
1.78815e-05
1.78818e-05
4.75146e-07
1.59731e-06
1.59761e-06
1.59728e-06
1.59758e-06
1.7881e-05
1.78792e-05
1.78821e-05
1.78803e-05
1.78788e-05
1.78791e-05
1.7881e-05
1.78813e-05
1.59729e-06
1.59763e-06
4.75116e-07
1.59728e-06
1.59761e-06
1.78794e-05
1.78776e-05
1.78816e-05
1.78798e-05
4.75145e-07
1.59728e-06
1.59761e-06
1.59728e-06
1.59761e-06
1.03593e-06
5.30294e-06
1.03602e-06
5.30299e-06
5.37651e-07
9.00145e-07
4.71889e-07
4.73113e-07
5.37701e-07
9.00004e-07
4.71889e-07
5.37656e-07
9.0021e-07
4.71888e-07
4.73113e-07
5.37701e-07
9.00061e-07
4.71888e-07
1.03602e-06
5.30281e-06
5.30268e-06
1.03592e-06
1.03602e-06
5.30305e-06
5.30277e-06
1.03593e-06
5.37695e-07
4.73111e-07
8.99994e-07
4.71885e-07
9.00145e-07
4.71886e-07
5.3766e-07
5.37699e-07
4.73111e-07
9.00061e-07
4.71885e-07
9.00206e-07
4.71886e-07
5.37658e-07
1.59761e-06
1.59767e-06
4.75115e-07
1.59758e-06
1.59747e-06
1.78774e-05
1.78782e-05
1.78803e-05
1.78789e-05
4.75143e-07
1.59757e-06
1.59746e-06
1.5976e-06
1.59765e-06
1.78785e-05
1.7877e-05
5.37648e-07
9.00274e-07
4.71888e-07
4.73112e-07
5.37694e-07
9.00136e-07
4.71888e-07
1.03586e-06
5.30367e-06
1.03592e-06
5.30384e-06
5.37655e-07
4.71889e-07
9.00376e-07
4.73114e-07
5.377e-07
4.71888e-07
9.00213e-07
1.03589e-06
5.30362e-06
5.30346e-06
1.03583e-06
5.3769e-07
4.7311e-07
9.00128e-07
4.71885e-07
9.00274e-07
4.71886e-07
5.37652e-07
1.03592e-06
5.30383e-06
5.30361e-06
1.03586e-06
5.37697e-07
4.73112e-07
4.71885e-07
9.0021e-07
4.71886e-07
9.00376e-07
5.37657e-07
1.03594e-06
5.30289e-06
1.03603e-06
5.30306e-06
5.37657e-07
4.71888e-07
9.00167e-07
4.73113e-07
5.37698e-07
4.71888e-07
9.00019e-07
1.03594e-06
5.30328e-06
1.03603e-06
5.30339e-06
5.37697e-07
4.73111e-07
9.00045e-07
4.71886e-07
9.00204e-07
4.71888e-07
5.37656e-07
1.03603e-06
5.30307e-06
5.30283e-06
1.03594e-06
5.37699e-07
4.73111e-07
4.71885e-07
9.00023e-07
4.71886e-07
9.00165e-07
5.37655e-07
1.03603e-06
5.30347e-06
5.30317e-06
1.03594e-06
1.59805e-06
1.59733e-06
4.75117e-07
1.59797e-06
1.59732e-06
1.78802e-05
1.78805e-05
1.7882e-05
1.78811e-05
4.75145e-07
1.59788e-06
1.59732e-06
1.59813e-06
1.59732e-06
1.78808e-05
1.7879e-05
5.37679e-07
4.71889e-07
9.00245e-07
4.73112e-07
5.3772e-07
4.71889e-07
9.00096e-07
1.03608e-06
5.3034e-06
1.03622e-06
5.30347e-06
1.03608e-06
5.3035e-06
1.03623e-06
5.30361e-06
5.37717e-07
4.73112e-07
4.71886e-07
9.00011e-07
4.71888e-07
9.00153e-07
5.37674e-07
5.37717e-07
4.7311e-07
4.71886e-07
9.00099e-07
4.71886e-07
9.00244e-07
5.37675e-07
1.03622e-06
5.30354e-06
5.30325e-06
1.03608e-06
1.03621e-06
5.30369e-06
5.30339e-06
1.03609e-06
1.78804e-05
1.78807e-05
1.78815e-05
1.78818e-05
4.75146e-07
1.59731e-06
1.59761e-06
1.59728e-06
1.59758e-06
1.7881e-05
1.78792e-05
1.78821e-05
1.78803e-05
1.78788e-05
1.78791e-05
1.7881e-05
1.78813e-05
1.59729e-06
1.59762e-06
4.75116e-07
1.59728e-06
1.59761e-06
1.78794e-05
1.78776e-05
1.78816e-05
1.78798e-05
4.75145e-07
1.59729e-06
1.59762e-06
1.59728e-06
1.59762e-06
1.03593e-06
5.30294e-06
1.03602e-06
5.30299e-06
5.37651e-07
9.00145e-07
4.71889e-07
4.73113e-07
5.37701e-07
9.00005e-07
4.71889e-07
5.37656e-07
9.0021e-07
4.71888e-07
4.73113e-07
5.37701e-07
9.00061e-07
4.71888e-07
1.03602e-06
5.30281e-06
5.30268e-06
1.03592e-06
1.03602e-06
5.30305e-06
5.30277e-06
1.03593e-06
5.37695e-07
4.73111e-07
8.99995e-07
4.71885e-07
9.00146e-07
4.71886e-07
5.3766e-07
5.37699e-07
4.73111e-07
9.00061e-07
4.71885e-07
9.00206e-07
4.71886e-07
5.37658e-07
1.59761e-06
1.59767e-06
4.75115e-07
1.59758e-06
1.59747e-06
1.78774e-05
1.78782e-05
1.78803e-05
1.78789e-05
4.75143e-07
1.59757e-06
1.59746e-06
1.5976e-06
1.59765e-06
1.78785e-05
1.7877e-05
5.37649e-07
9.00274e-07
4.71889e-07
4.73112e-07
5.37695e-07
9.00137e-07
4.71888e-07
1.03586e-06
5.30367e-06
1.03592e-06
5.30384e-06
5.37655e-07
4.71888e-07
9.00376e-07
4.73114e-07
5.377e-07
4.71888e-07
9.00213e-07
1.03589e-06
5.30362e-06
5.30346e-06
1.03583e-06
5.3769e-07
4.7311e-07
9.00128e-07
4.71885e-07
9.00275e-07
4.71886e-07
5.37652e-07
1.03592e-06
5.30383e-06
5.30361e-06
1.03586e-06
5.37697e-07
4.73112e-07
4.71885e-07
9.0021e-07
4.71886e-07
9.00376e-07
5.37657e-07
1.03594e-06
5.3029e-06
1.03603e-06
5.30305e-06
5.37658e-07
4.71889e-07
9.00167e-07
4.73113e-07
5.37697e-07
4.71889e-07
9.00019e-07
1.03594e-06
5.30328e-06
1.03603e-06
5.3034e-06
5.37698e-07
4.73111e-07
9.00045e-07
4.71886e-07
9.00204e-07
4.71888e-07
5.37656e-07
1.03603e-06
5.30307e-06
5.30283e-06
1.03594e-06
5.37699e-07
4.73111e-07
4.71885e-07
9.00023e-07
4.71886e-07
9.00165e-07
5.37655e-07
1.03603e-06
5.30347e-06
5.30317e-06
1.03594e-06
1.59805e-06
1.59733e-06
4.75116e-07
1.59797e-06
1.59732e-06
1.78802e-05
1.78805e-05
1.7882e-05
1.78811e-05
4.75145e-07
1.59788e-06
1.59732e-06
1.59813e-06
1.59732e-06
1.78808e-05
1.7879e-05
5.37678e-07
4.71889e-07
9.00246e-07
4.73113e-07
5.3772e-07
4.71889e-07
9.00095e-07
1.03608e-06
5.3034e-06
1.03622e-06
5.30347e-06
1.03608e-06
5.3035e-06
1.03623e-06
5.30361e-06
5.37717e-07
4.73112e-07
4.71886e-07
9.00011e-07
4.71888e-07
9.00153e-07
5.37674e-07
5.37717e-07
4.7311e-07
4.71886e-07
9.00099e-07
4.71886e-07
9.00244e-07
5.37675e-07
1.03622e-06
5.30354e-06
5.30325e-06
1.03608e-06
1.03621e-06
5.30369e-06
5.30339e-06
1.03609e-06
1.78804e-05
1.78807e-05
1.78815e-05
1.78818e-05
4.75146e-07
1.59731e-06
1.59761e-06
1.59728e-06
1.59758e-06
1.7881e-05
1.78792e-05
1.78821e-05
1.78803e-05
1.78788e-05
1.78791e-05
1.7881e-05
1.78813e-05
1.59729e-06
1.59763e-06
4.75116e-07
1.59728e-06
1.59761e-06
1.78794e-05
1.78776e-05
1.78816e-05
1.78798e-05
4.75145e-07
1.59728e-06
1.59761e-06
1.59728e-06
1.59761e-06
1.03593e-06
5.30294e-06
1.03602e-06
5.30299e-06
5.37651e-07
9.00145e-07
4.71889e-07
4.73113e-07
5.37701e-07
9.00004e-07
4.71889e-07
5.37656e-07
9.0021e-07
4.71888e-07
4.73113e-07
5.37701e-07
9.00061e-07
4.71888e-07
1.03602e-06
5.30281e-06
5.30268e-06
1.03592e-06
1.03602e-06
5.30305e-06
5.30277e-06
1.03593e-06
5.37695e-07
4.73111e-07
8.99995e-07
4.71885e-07
9.00146e-07
4.71886e-07
5.3766e-07
5.37699e-07
4.73111e-07
9.00062e-07
4.71885e-07
9.00206e-07
4.71886e-07
5.37658e-07
1.59761e-06
1.59767e-06
4.75115e-07
1.59758e-06
1.59747e-06
1.78774e-05
1.78782e-05
1.78803e-05
1.78789e-05
4.75143e-07
1.59757e-06
1.59746e-06
1.5976e-06
1.59765e-06
1.78785e-05
1.7877e-05
5.37648e-07
9.00274e-07
4.71888e-07
4.73112e-07
5.37695e-07
9.00136e-07
4.71888e-07
1.03586e-06
5.30367e-06
1.03591e-06
5.30384e-06
5.37655e-07
4.71889e-07
9.00376e-07
4.73114e-07
5.377e-07
4.71889e-07
9.00213e-07
1.03589e-06
5.30362e-06
5.30346e-06
1.03583e-06
5.3769e-07
4.7311e-07
9.00128e-07
4.71885e-07
9.00274e-07
4.71886e-07
5.37652e-07
1.03592e-06
5.30383e-06
5.30361e-06
1.03586e-06
5.37697e-07
4.73112e-07
4.71885e-07
9.0021e-07
4.71886e-07
9.00376e-07
5.37657e-07
1.03594e-06
5.3029e-06
1.03603e-06
5.30305e-06
5.37657e-07
4.71889e-07
9.00167e-07
4.73113e-07
5.37698e-07
4.71888e-07
9.00019e-07
1.03594e-06
5.30328e-06
1.03603e-06
5.30339e-06
5.37697e-07
4.73111e-07
9.00045e-07
4.71886e-07
9.00204e-07
4.71888e-07
5.37657e-07
1.03603e-06
5.30307e-06
5.30283e-06
1.03594e-06
5.37699e-07
4.73111e-07
4.71885e-07
9.00023e-07
4.71886e-07
9.00165e-07
5.37656e-07
1.03603e-06
5.30347e-06
5.30317e-06
1.03594e-06
1.59805e-06
1.59733e-06
4.75116e-07
1.59797e-06
1.59732e-06
1.78802e-05
1.78805e-05
1.7882e-05
1.78811e-05
4.75145e-07
1.59788e-06
1.59732e-06
1.59813e-06
1.59732e-06
1.78808e-05
1.7879e-05
5.37678e-07
4.71889e-07
9.00245e-07
4.73113e-07
5.3772e-07
4.71889e-07
9.00095e-07
1.03606e-06
5.3034e-06
1.03617e-06
5.30347e-06
1.03608e-06
5.3035e-06
1.03623e-06
5.30361e-06
5.37714e-07
4.73112e-07
4.71886e-07
9.00011e-07
4.71888e-07
9.00153e-07
5.37668e-07
5.37716e-07
4.7311e-07
4.71886e-07
9.00099e-07
4.71886e-07
9.00244e-07
5.37674e-07
1.03614e-06
5.30354e-06
5.30325e-06
1.036e-06
1.03621e-06
5.30369e-06
5.30339e-06
1.03608e-06
1.78804e-05
1.78807e-05
1.78815e-05
1.78818e-05
4.75146e-07
1.59731e-06
1.59761e-06
1.59728e-06
1.59758e-06
1.7881e-05
1.78792e-05
1.78821e-05
1.78803e-05
1.78788e-05
1.78791e-05
1.7881e-05
1.78813e-05
1.59729e-06
1.59762e-06
4.75116e-07
1.59728e-06
1.59761e-06
1.78794e-05
1.78776e-05
1.78816e-05
1.78798e-05
4.75145e-07
1.59728e-06
1.59761e-06
1.59728e-06
1.59761e-06
1.03593e-06
5.30294e-06
1.03602e-06
5.30299e-06
5.37651e-07
9.00145e-07
4.71888e-07
4.73113e-07
5.37701e-07
9.00004e-07
4.71888e-07
5.37657e-07
9.0021e-07
4.71889e-07
4.73113e-07
5.37701e-07
9.00061e-07
4.71888e-07
1.03602e-06
5.30281e-06
5.30268e-06
1.03592e-06
1.03602e-06
5.30305e-06
5.30277e-06
1.03593e-06
5.37695e-07
4.73111e-07
8.99994e-07
4.71885e-07
9.00145e-07
4.71886e-07
5.3766e-07
5.37699e-07
4.73111e-07
9.00062e-07
4.71885e-07
9.00206e-07
4.71886e-07
5.37658e-07
1.59761e-06
1.59767e-06
4.75115e-07
1.59758e-06
1.59747e-06
1.78774e-05
1.78782e-05
1.78803e-05
1.78789e-05
4.75144e-07
1.59757e-06
1.59746e-06
1.5976e-06
1.59765e-06
1.78785e-05
1.7877e-05
5.37649e-07
9.00274e-07
4.71888e-07
4.73112e-07
5.37695e-07
9.00137e-07
4.71888e-07
1.03586e-06
5.30367e-06
1.03592e-06
5.30384e-06
5.37655e-07
4.71889e-07
9.00376e-07
4.73114e-07
5.377e-07
4.71889e-07
9.00213e-07
1.03589e-06
5.30362e-06
5.30346e-06
1.03583e-06
5.3769e-07
4.7311e-07
9.00128e-07
4.71885e-07
9.00274e-07
4.71886e-07
5.37652e-07
1.03592e-06
5.30383e-06
5.30361e-06
1.03586e-06
5.37697e-07
4.73112e-07
4.71885e-07
9.0021e-07
4.71886e-07
9.00376e-07
5.37657e-07
1.03594e-06
5.3029e-06
1.03603e-06
5.30305e-06
5.37658e-07
4.71888e-07
9.00167e-07
4.73113e-07
5.37698e-07
4.71888e-07
9.00019e-07
1.03594e-06
5.30328e-06