/*--------------------------------*- C++ -*----------------------------------*\
| =========                 |                                                 |
| \\      /  F ield         | OpenFOAM: The Open Source CFD Toolbox           |
|  \\    /   O peration     | Version:  2206                                  |
|   \\  /    A nd           | Website:  www.openfoam.com                      |
|    \\/     M anipulation  |                                                 |
\*---------------------------------------------------------------------------*/
FoamFile
{
    version     2.0;
    format      ascii;
    arch        "LSB;label=32;scalar=64";
    class       volScalarField;
    location    "5";
    object      p;
}
// * * * * * * * * * * * * * * * * * * * * * * * * * * * * * * * * * * * * * //

dimensions      [0 2 -2 0 0 0 0];

internalField   nonuniform List<scalar> 
28673
(
0.000534904
0.000537472
0.000490562
0.000490541
0.000490542
0.000493112
0.000446182
0.00044616
0.000446161
0.000448731
0.000401801
0.000401779
0.000401779
0.00040435
0.000357419
0.000357398
0.000357398
0.000359969
0.000313038
0.000313017
0.000313017
0.000315587
0.000268657
0.000268635
0.000268635
0.000271206
0.000224275
0.000224253
0.000224253
0.000226824
0.000179892
0.00017987
0.00017987
0.000182441
0.000135509
0.000135489
0.000135488
0.000138059
9.11423e-05
9.11178e-05
9.11166e-05
9.36773e-05
4.73183e-05
4.67513e-05
4.67485e-05
4.91538e-05
1.1181e-05
1.17288e-05
1.17265e-05
1.13399e-05
0.000545994
0.000543433
0.000545994
0.000499073
0.000534902
0.000534903
0.000501635
0.000501637
0.000537473
0.000499073
0.000501633
0.000501631
0.000534903
0.000501637
0.000501635
0.000499073
0.000534902
0.000501631
0.000501635
0.000499073
0.000493113
0.000454693
0.000490543
0.000490541
0.000457256
0.000457256
0.000493111
0.000454693
0.000490543
0.000490542
0.000457256
0.000457257
0.000490543
0.000457256
0.000457256
0.000493113
0.000454694
0.000490543
0.000457257
0.000457256
0.000454693
0.000448731
0.000410312
0.000446161
0.00044616
0.000412875
0.000412874
0.000448731
0.000410312
0.000446161
0.000446161
0.000412874
0.000412875
0.000446161
0.000412874
0.000412875
0.000448732
0.000410312
0.00044616
0.000412875
0.000412874
0.000410312
0.00040435
0.00036593
0.000401779
0.000401779
0.000368493
0.000368493
0.00040435
0.000365931
0.000401779
0.000401779
0.000368493
0.000368493
0.000401779
0.000368493
0.000368493
0.00040435
0.00036593
0.000401779
0.000368493
0.000368493
0.000365931
0.000359968
0.000321549
0.000357398
0.000357398
0.000324112
0.000324112
0.000359968
0.000321549
0.000357398
0.000357398
0.000324112
0.000324112
0.000357398
0.000324112
0.000324112
0.000359969
0.000321549
0.000357398
0.000324112
0.000324112
0.000321549
0.000315587
0.000277168
0.000313017
0.000313017
0.000279731
0.000279731
0.000315587
0.000277168
0.000313017
0.000313017
0.000279731
0.000279731
0.000313017
0.000279731
0.000279731
0.000315588
0.000277168
0.000313017
0.000279731
0.000279731
0.000277168
0.000271206
0.000232786
0.000268635
0.000268635
0.000235349
0.000235349
0.000271206
0.000232786
0.000268635
0.000268635
0.000235349
0.000235349
0.000268636
0.000235349
0.000235349
0.000271206
0.000232786
0.000268635
0.000235349
0.000235349
0.000232786
0.000226824
0.000188403
0.000224253
0.000224253
0.000190966
0.000190966
0.000226824
0.000188403
0.000224253
0.000224253
0.000190966
0.000190966
0.000224253
0.000190966
0.000190966
0.000226824
0.000188403
0.000224253
0.000190966
0.000190966
0.000188403
0.000182441
0.000144021
0.00017987
0.00017987
0.000146584
0.000146584
0.000182441
0.000144021
0.00017987
0.00017987
0.000146584
0.000146583
0.000179871
0.000146584
0.000146584
0.000182441
0.000144021
0.00017987
0.000146584
0.000146584
0.000144021
0.000138059
9.96421e-05
0.000135488
0.000135488
0.000102208
0.000102209
0.000138059
9.9643e-05
0.000135488
0.000135488
0.000102208
0.000102208
0.000135489
0.000102209
0.000102208
0.000138059
9.96416e-05
0.000135488
0.000102208
0.000102208
9.96418e-05
9.36778e-05
5.52263e-05
9.1118e-05
9.11176e-05
5.78405e-05
5.78411e-05
9.36777e-05
5.52282e-05
9.1117e-05
9.11168e-05
5.78383e-05
5.7838e-05
9.11173e-05
5.78394e-05
5.78385e-05
9.36777e-05
5.5225e-05
9.11172e-05
5.78373e-05
5.78366e-05
5.52251e-05
4.9156e-05
1.49041e-05
4.6753e-05
4.67532e-05
1.71835e-05
1.71834e-05
4.91565e-05
1.49051e-05
4.67513e-05
4.67497e-05
1.71822e-05
1.71778e-05
4.67497e-05
1.71811e-05
1.71766e-05
4.91539e-05
1.48994e-05
4.6747e-05
1.71787e-05
1.71783e-05
1.48987e-05
1.13434e-05
1.17296e-05
1.17305e-05
1.13448e-05
1.17282e-05
1.17258e-05
1.11813e-05
1.1179e-05
1.11788e-05
1.17254e-05
1.13406e-05
1.17259e-05
0.000521067
0.000537663
0.000537658
0.000521062
0.000537671
0.000521069
0.000521056
0.000521052
0.000534926
0.000534925
0.000501654
0.000501655
0.000501654
0.000501655
0.000521139
0.000537632
0.00053491
0.000523814
0.000537605
0.000521105
0.00052382
0.000521063
0.000521136
0.000534909
0.00052381
0.000537604
0.000523818
0.000521089
0.000537661
0.000537661
0.000521252
0.000521061
0.00052106
0.000476705
0.000493322
0.000493321
0.000476699
0.000493316
0.000476696
0.000476713
0.000493321
0.000493317
0.000476704
0.000490562
0.000490563
0.000490562
0.000457278
0.000457277
0.000457278
0.000457277
0.000476767
0.000493281
0.000490547
0.000479446
0.000493247
0.000476731
0.000479452
0.000493318
0.000476696
0.000476768
0.000490547
0.000493284
0.000479449
0.000493247
0.000479453
0.000476739
0.000493327
0.000493327
0.000476884
0.000476697
0.000476697
0.000432321
0.000448932
0.000448928
0.000432315
0.000448933
0.000432314
0.000432321
0.000448932
0.000448929
0.000432315
0.000446182
0.000446182
0.000446182
0.000412896
0.000412896
0.000412896
0.000412896
0.000432386
0.000448897
0.000446166
0.000435065
0.000448865
0.000432349
0.000435071
0.000448934
0.000432314
0.000432386
0.000446167
0.000448898
0.000435065
0.000448866
0.000435071
0.00043235
0.000448934
0.000448934
0.000432502
0.000432313
0.000432314
0.00038794
0.00040455
0.000404547
0.000387934
0.000404552
0.000387932
0.000387939
0.00040455
0.000404547
0.000387934
0.0004018
0.000401801
0.0004018
0.000368515
0.000368514
0.000368515
0.000368514
0.000388004
0.000404515
0.000401785
0.000390684
0.000404484
0.000387968
0.00039069
0.000404552
0.000387932
0.000388005
0.000401785
0.000404516
0.000390684
0.000404484
0.00039069
0.000387968
0.000404552
0.000404552
0.000388121
0.000387932
0.000387932
0.000343558
0.000360169
0.000360165
0.000343552
0.00036017
0.000343551
0.000343558
0.000360169
0.000360166
0.000343552
0.000357419
0.000357419
0.000357419
0.000324133
0.000324133
0.000324133
0.000324133
0.000343623
0.000360134
0.000357404
0.000346303
0.000360103
0.000343587
0.000346309
0.000360171
0.000343551
0.000343623
0.000357404
0.000360134
0.000346303
0.000360103
0.000346309
0.000343587
0.000360171
0.000360171
0.00034374
0.000343551
0.000343551
0.000299177
0.000315788
0.000315784
0.000299171
0.000315789
0.00029917
0.000299177
0.000315788
0.000315785
0.000299171
0.000313038
0.000313038
0.000313038
0.000279752
0.000279752
0.000279752
0.000279752
0.000299242
0.000315753
0.000313023
0.000301921
0.000315722
0.000299206
0.000301928
0.00031579
0.00029917
0.000299242
0.000313023
0.000315753
0.000301921
0.000315721
0.000301927
0.000299206
0.00031579
0.00031579
0.000299359
0.00029917
0.00029917
0.000254796
0.000271407
0.000271403
0.00025479
0.000271408
0.000254789
0.000254796
0.000271407
0.000271403
0.00025479
0.000268657
0.000268657
0.000268657
0.00023537
0.00023537
0.00023537
0.00023537
0.000254861
0.000271372
0.000268642
0.00025754
0.00027134
0.000254824
0.000257546
0.000271408
0.000254788
0.000254861
0.000268641
0.000271372
0.00025754
0.00027134
0.000257546
0.000254824
0.000271409
0.000271409
0.000254977
0.000254789
0.000254789
0.000210413
0.000227025
0.000227021
0.000210407
0.000227026
0.000210406
0.000210413
0.000227025
0.000227021
0.000210407
0.000224274
0.000224275
0.000224274
0.000190988
0.000190987
0.000190987
0.000190987
0.000210478
0.00022699
0.000224259
0.000213158
0.000226958
0.000210442
0.000213164
0.000227026
0.000210406
0.000210478
0.000224259
0.00022699
0.000213158
0.000226958
0.000213163
0.000210442
0.000227027
0.000227027
0.000210595
0.000210406
0.000210406
0.000166031
0.000182642
0.000182638
0.000166025
0.000182643
0.000166024
0.00016603
0.000182642
0.000182638
0.000166024
0.000179892
0.000179892
0.000179892
0.000146604
0.000146605
0.000146604
0.000146605
0.000166095
0.000182607
0.000179877
0.000168775
0.000182575
0.000166059
0.000168781
0.000182643
0.000166023
0.000166095
0.000179876
0.000182607
0.000168775
0.000182575
0.000168781
0.000166059
0.000182644
0.000182644
0.000166212
0.000166023
0.000166023
0.000121648
0.000138259
0.000138256
0.000121642
0.000138261
0.00012164
0.000121647
0.000138259
0.000138256
0.000121641
0.000135509
0.000135509
0.000135508
0.000102224
0.000102225
0.000102224
0.000102225
0.000121713
0.000138224
0.000135495
0.000124394
0.000138193
0.000121677
0.0001244
0.000138261
0.00012164
0.000121713
0.000135495
0.000138224
0.000124394
0.000138193
0.0001244
0.000121676
0.000138261
0.000138261
0.00012183
0.000121641
0.000121641
7.72305e-05
9.38637e-05
9.38623e-05
7.72247e-05
9.38682e-05
7.71992e-05
7.72283e-05
9.3863e-05
9.38613e-05
7.72234e-05
9.11429e-05
9.11415e-05
9.1142e-05
5.8026e-05
5.80263e-05
5.80242e-05
5.80242e-05
7.73035e-05
9.38302e-05
9.11284e-05
8.00325e-05
9.38034e-05
7.72772e-05
8.00393e-05
9.38651e-05
7.72089e-05
7.73016e-05
9.11277e-05
9.38294e-05
8.00311e-05
9.38026e-05
8.00384e-05
7.72739e-05
9.38664e-05
9.38663e-05
7.74477e-05
7.72194e-05
7.72206e-05
3.17808e-05
4.90082e-05
4.91514e-05
3.09393e-05
4.93542e-05
3.0172e-05
3.1767e-05
4.89995e-05
4.91446e-05
3.09422e-05
4.73186e-05
4.73152e-05
4.73153e-05
1.8652e-05
1.86512e-05
1.86482e-05
1.86481e-05
3.25529e-05
4.87805e-05
4.70389e-05
3.59769e-05
4.91324e-05
3.17496e-05
3.64009e-05
4.93424e-05
3.01833e-05
3.25528e-05
4.70352e-05
4.87744e-05
3.59737e-05
4.913e-05
3.63976e-05
3.17516e-05
4.88955e-05
4.88984e-05
3.33767e-05
3.15583e-05
3.15551e-05
9.87448e-06
7.81685e-06
8.56826e-06
1.79675e-06
4.58738e-06
1.97146e-07
9.88971e-06
7.79834e-06
8.5464e-06
1.79143e-06
3.44632e-06
1.15222e-05
1.15203e-05
4.34101e-06
1.17062e-05
3.65211e-06
3.65156e-06
6.89424e-06
9.19525e-06
1.10294e-05
4.78193e-06
1.02368e-05
6.47757e-06
3.91297e-06
4.5428e-06
2.00317e-07
6.90206e-06
1.10284e-05
9.18992e-06
4.78198e-06
1.02345e-05
3.91385e-06
6.48391e-06
4.46921e-06
4.46809e-06
5.21383e-06
5.49655e-06
5.50736e-06
0.000543235
0.000543271
0.000543248
0.000543231
0.000543232
0.000543248
0.000543271
0.000543235
0.000537679
0.00052106
0.000521067
0.000537661
0.000521251
0.00052106
0.000521051
0.000498883
0.0005155
0.00049889
0.00051549
0.000515293
0.000498899
0.000498891
0.000515497
0.000515487
0.000521068
0.000537664
0.000537659
0.00052107
0.000521138
0.000537629
0.000534909
0.000523812
0.000537605
0.000521097
0.000523819
0.000521139
0.000537632
0.00053491
0.000523814
0.000537605
0.000521104
0.00052382
0.000515491
0.000498895
0.000515498
0.000498903
0.000515491
0.000498893
0.000515503
0.000498903
0.000515432
0.000512723
0.000498929
0.00050164
0.00051546
0.00051273
0.000498958
0.000515432
0.000512727
0.000498927
0.000501641
0.000515468
0.000512731
0.000498958
0.000537667
0.000537667
0.000521256
0.000521071
0.000521072
0.000537673
0.000521069
0.000498884
0.000515499
0.000515297
0.000498894
0.000498894
0.000515509
0.000515509
0.000498884
0.0005155
0.000521131
0.000523811
0.000521089
0.000523817
0.000521056
0.00052105
0.000521131
0.00052381
0.000523817
0.000521088
0.000515478
0.000498891
0.000515484
0.000498893
0.000515424
0.000512721
0.000498924
0.000501638
0.000515452
0.000512728
0.000498958
0.000515478
0.00049889
0.000515482
0.000498894
0.000515424
0.00051272
0.000501638
0.000498922
0.000512727
0.000515449
0.000498958
0.000521068
0.000537665
0.000537659
0.00052107
0.000521139
0.00053491
0.00053763
0.000523813
0.000537604
0.00052382
0.000521097
0.000521067
0.000537663
0.000537658
0.000521062
0.000515432
0.000512727
0.000498927
0.000501641
0.000515468
0.000512731
0.000498958
0.000515491
0.000498893
0.000515504
0.000498903
0.000515432
0.000512723
0.000501641
0.000498929
0.000512731
0.000515461
0.000498958
0.000515491
0.000498895
0.000515498
0.000498904
0.000521248
0.000521047
0.000521048
0.000521065
0.00049889
0.000515487
0.00051529
0.00049889
0.00049889
0.000515482
0.000515486
0.000498891
0.000515491
0.000521137
0.000534909
0.000537629
0.000523812
0.000537604
0.000523819
0.000521096
0.000521064
0.000537657
0.000521054
0.000521065
0.000537663
0.000537657
0.000521062
0.000515429
0.000512721
0.000501639
0.000498922
0.000512728
0.000515451
0.000498957
0.000515429
0.000512723
0.00050164
0.000498929
0.000512729
0.00051546
0.000498957
0.000515488
0.000498891
0.000515488
0.000498903
0.000515488
0.000498895
0.000515498
0.000498903
0.00053768
0.000521061
0.000537679
0.00052106
0.000515295
0.000498899
0.000498899
0.000515499
0.000515498
0.000498883
0.000515501
0.000498883
0.0005155
0.000493313
0.000476696
0.000493317
0.000476694
0.000493327
0.000493326
0.000476884
0.000476698
0.000476704
0.000454505
0.000471125
0.000454505
0.000471125
0.000470922
0.000454505
0.000454506
0.000471126
0.000471129
0.000476705
0.000493318
0.000493321
0.000476697
0.000476767
0.000493286
0.000490547
0.000479447
0.000493247
0.000476733
0.000479452
0.000476767
0.000493282
0.000490547
0.000479446
0.000493247
0.000476731
0.000479452
0.00047112
0.000454506
0.000471124
0.000454512
0.00047112
0.000454506
0.000471123
0.000454512
0.000471057
0.000468352
0.000454541
0.000457262
0.000471089
0.000468357
0.000454577
0.000471056
0.000468351
0.00045454
0.000457262
0.000471088
0.000468357
0.000454577
0.000493319
0.000493319
0.000476884
0.000476696
0.000476696
0.000493316
0.000476696
0.000454504
0.000471125
0.000470921
0.000454505
0.000454505
0.000471124
0.000471124
0.000454504
0.000471125
0.000476769
0.000493284
0.000490547
0.000479448
0.000493248
0.000476738
0.000479453
0.000476713
0.00049332
0.000493317
0.000476705
0.000476769
0.000490548
0.000493284
0.000479449
0.000493248
0.000479454
0.000476739
0.000471125
0.000454507
0.000471127
0.000454513
0.000471057
0.000468352
0.000454541
0.000457262
0.000471092
0.000468358
0.000454578
0.000471126
0.000454507
0.000471128
0.000454513
0.000471058
0.000468353
0.000457263
0.000454542
0.000468358
0.000471093
0.000454578
0.000476705
0.000493318
0.00049332
0.000476697
0.000476768
0.000490547
0.000493286
0.000479447
0.000493247
0.000479452
0.000476733
0.000476705
0.000493321
0.000493321
0.000476698
0.000471056
0.000468351
0.00045454
0.000457262
0.000471088
0.000468357
0.000454577
0.00047112
0.000454506
0.000471123
0.000454512
0.000471056
0.000468351
0.000457262
0.00045454
0.000468357
0.000471089
0.000454577
0.00047112
0.000454506
0.000471124
0.000454512
0.000493325
0.000493325
0.000476885
0.000476706
0.000476705
0.000493318
0.000476693
0.000454505
0.000471127
0.000470923
0.000454506
0.000454506
0.00047113
0.00047113
0.000454505
0.000471125
0.000476768
0.000490547
0.000493286
0.000479447
0.000493246
0.000479453
0.000476733
0.000476706
0.000493321
0.00049332
0.000476703
0.000476706
0.000493321
0.00049332
0.000476699
0.000471057
0.000468353
0.000457262
0.000454541
0.000468358
0.000471093
0.000454577
0.000471057
0.000468351
0.000457262
0.00045454
0.000468358
0.000471089
0.000454577
0.000471121
0.000454507
0.000471127
0.000454513
0.00047112
0.000454506
0.000471124
0.000454513
0.000493313
0.000476696
0.000493313
0.000476696
0.000470922
0.000454505
0.000454505
0.000471125
0.000471125
0.000454504
0.000471125
0.000454504
0.000471125
0.000448934
0.000432314
0.000448934
0.000432314
0.000448934
0.000448934
0.000432502
0.000432314
0.000432314
0.000410123
0.000426743
0.000410123
0.000426743
0.00042654
0.000410124
0.000410124
0.000426743
0.000426743
0.000432321
0.000448932
0.000448928
0.000432315
0.000432386
0.000448897
0.000446167
0.000435065
0.000448866
0.00043235
0.000435071
0.000432386
0.000448897
0.000446167
0.000435065
0.000448866
0.000432349
0.000435071
0.000426737
0.000410124
0.000426741
0.000410131
0.000426737
0.000410124
0.000426741
0.00041013
0.000426675
0.00042397
0.000410159
0.000412881
0.000426706
0.000423976
0.000410195
0.000426675
0.00042397
0.000410159
0.000412881
0.000426706
0.000423976
0.000410195
0.000448934
0.000448933
0.000432502
0.000432314
0.000432314
0.000448934
0.000432313
0.000410123
0.000426743
0.00042654
0.000410124
0.000410124
0.000426742
0.000426742
0.000410123
0.000426743
0.000432386
0.000448898
0.000446167
0.000435065
0.000448866
0.00043235
0.000435071
0.000432321
0.000448933
0.000448929
0.000432315
0.000432386
0.000446167
0.000448898
0.000435065
0.000448866
0.000435071
0.00043235
0.000426737
0.000410124
0.000426741
0.000410131
0.000426675
0.00042397
0.000410159
0.000412881
0.000426706
0.000423976
0.000410196
0.000426737
0.000410124
0.000426741
0.00041013
0.000426675
0.00042397
0.000412881
0.000410159
0.000423976
0.000426706
0.000410195
0.000432321
0.000448932
0.000448928
0.000432315
0.000432386
0.000446167
0.000448897
0.000435065
0.000448865
0.000435071
0.000432349
0.000432321
0.000448932
0.000448928
0.000432315
0.000426674
0.00042397
0.000410159
0.00041288
0.000426706
0.000423976
0.000410195
0.000426737
0.000410124
0.000426741
0.00041013
0.000426674
0.00042397
0.000412881
0.000410159
0.000423976
0.000426706
0.000410195
0.000426737
0.000410124
0.000426741
0.00041013
0.000448934
0.000448934
0.000432502
0.000432314
0.000432314
0.000448934
0.000432314
0.000410123
0.000426743
0.00042654
0.000410124
0.000410124
0.000426742
0.000426743
0.000410123
0.000426743
0.000432386
0.000446167
0.000448897
0.000435065
0.000448865
0.000435071
0.000432349
0.000432321
0.000448932
0.000448928
0.000432315
0.000432321
0.000448932
0.000448928
0.000432315
0.000426675
0.00042397
0.00041288
0.000410159
0.000423976
0.000426706
0.000410195
0.000426674
0.00042397
0.000412881
0.000410159
0.000423976
0.000426706
0.000410195
0.000426737
0.000410124
0.000426741
0.000410131
0.000426737
0.000410124
0.000426741
0.000410131
0.000448933
0.000432313
0.000448933
0.000432313
0.00042654
0.000410123
0.000410124
0.000426742
0.000426742
0.000410123
0.000426743
0.000410123
0.000426743
0.000404552
0.000387932
0.000404552
0.000387932
0.000404552
0.000404552
0.000388121
0.000387932
0.000387933
0.000365742
0.000382362
0.000365742
0.000382362
0.000382159
0.000365742
0.000365743
0.000382361
0.000382361
0.00038794
0.000404551
0.000404546
0.000387933
0.000388004
0.000404516
0.000401785
0.000390684
0.000404484
0.000387968
0.00039069
0.000388004
0.000404516
0.000401785
0.000390684
0.000404484
0.000387968
0.00039069
0.000382356
0.000365743
0.00038236
0.000365749
0.000382356
0.000365743
0.00038236
0.000365749
0.000382293
0.000379589
0.000365778
0.000368499
0.000382325
0.000379594
0.000365814
0.000382293
0.000379588
0.000365778
0.000368499
0.000382325
0.000379595
0.000365814
0.000404553
0.000404552
0.000388121
0.000387932
0.000387933
0.000404553
0.000387932
0.000365741
0.000382362
0.000382159
0.000365743
0.000365743
0.000382361
0.000382361
0.000365741
0.000382362
0.000388005
0.000404516
0.000401785
0.000390684
0.000404484
0.000387968
0.00039069
0.00038794
0.000404551
0.000404547
0.000387934
0.000388005
0.000401785
0.000404516
0.000390684
0.000404484
0.00039069
0.000387968
0.000382356
0.000365743
0.00038236
0.000365749
0.000382293
0.000379588
0.000365778
0.000368499
0.000382325
0.000379595
0.000365814
0.000382356
0.000365743
0.00038236
0.000365749
0.000382293
0.000379588
0.000368499
0.000365778
0.000379595
0.000382325
0.000365814
0.00038794
0.00040455
0.000404546
0.000387934
0.000388005
0.000401785
0.000404515
0.000390684
0.000404484
0.00039069
0.000387968
0.00038794
0.00040455
0.000404546
0.000387933
0.000382293
0.000379588
0.000365778
0.000368499
0.000382325
0.000379595
0.000365814
0.000382356
0.000365743
0.00038236
0.000365749
0.000382293
0.000379589
0.000368499
0.000365778
0.000379595
0.000382325
0.000365814
0.000382356
0.000365743
0.00038236
0.000365749
0.000404552
0.000404552
0.000388121
0.000387933
0.000387932
0.000404552
0.000387932
0.000365742
0.000382362
0.000382159
0.000365743
0.000365743
0.000382361
0.000382361
0.000365742
0.000382362
0.000388005
0.000401785
0.000404516
0.000390684
0.000404484
0.00039069
0.000387968
0.00038794
0.00040455
0.000404546
0.000387934
0.00038794
0.00040455
0.000404546
0.000387934
0.000382293
0.000379589
0.000368499
0.000365778
0.000379595
0.000382325
0.000365814
0.000382293
0.000379588
0.000368499
0.000365778
0.000379595
0.000382325
0.000365814
0.000382356
0.000365743
0.00038236
0.000365749
0.000382355
0.000365743
0.00038236
0.000365749
0.000404552
0.000387932
0.000404552
0.000387932
0.000382159
0.000365742
0.000365743
0.000382361
0.000382361
0.000365742
0.000382362
0.000365742
0.000382362
0.000360171
0.000343551
0.000360171
0.000343551
0.000360171
0.000360171
0.00034374
0.000343551
0.000343551
0.00032136
0.000337981
0.00032136
0.000337981
0.000337778
0.000321361
0.000321361
0.00033798
0.00033798
0.000343558
0.000360169
0.000360165
0.000343552
0.000343623
0.000360134
0.000357404
0.000346303
0.000360103
0.000343587
0.000346309
0.000343623
0.000360134
0.000357404
0.000346302
0.000360103
0.000343587
0.000346309
0.000337974
0.000321362
0.000337979
0.000321368
0.000337974
0.000321362
0.000337978
0.000321368
0.000337912
0.000335207
0.000321397
0.000324118
0.000337943
0.000335213
0.000321433
0.000337912
0.000335207
0.000321396
0.000324118
0.000337943
0.000335213
0.000321433
0.000360171
0.000360171
0.00034374
0.000343551
0.000343552
0.000360171
0.000343551
0.00032136
0.000337981
0.000337778
0.000321361
0.000321362
0.00033798
0.00033798
0.00032136
0.000337981
0.000343623
0.000360134
0.000357404
0.000346303
0.000360103
0.000343587
0.000346309
0.000343558
0.000360169
0.000360165
0.000343552
0.000343623
0.000357404
0.000360134
0.000346303
0.000360103
0.000346309
0.000343587
0.000337974
0.000321362
0.000337978
0.000321368
0.000337912
0.000335207
0.000321397
0.000324118
0.000337943
0.000335213
0.000321433
0.000337975
0.000321362
0.000337979
0.000321368
0.000337912
0.000335207
0.000324118
0.000321397
0.000335213
0.000337944
0.000321433
0.000343559
0.000360169
0.000360165
0.000343552
0.000343623
0.000357404
0.000360134
0.000346303
0.000360103
0.000346309
0.000343587
0.000343559
0.000360169
0.000360165
0.000343552
0.000337912
0.000335207
0.000321397
0.000324118
0.000337944
0.000335213
0.000321433
0.000337975
0.000321362
0.000337979
0.000321368
0.000337912
0.000335208
0.000324118
0.000321397
0.000335213
0.000337944
0.000321433
0.000337975
0.000321362
0.000337979
0.000321368
0.000360171
0.000360171
0.00034374
0.000343551
0.000343551
0.000360171
0.000343551
0.00032136
0.000337981
0.000337778
0.000321361
0.000321361
0.00033798
0.00033798
0.00032136
0.000337981
0.000343624
0.000357404
0.000360135
0.000346303
0.000360103
0.000346309
0.000343587
0.000343559
0.000360169
0.000360165
0.000343552
0.000343559
0.000360169
0.000360165
0.000343552
0.000337912
0.000335207
0.000324118
0.000321396
0.000335213
0.000337944
0.000321433
0.000337912
0.000335207
0.000324118
0.000321396
0.000335213
0.000337944
0.000321433
0.000337974
0.000321362
0.000337979
0.000321368
0.000337974
0.000321362
0.000337979
0.000321368
0.000360171
0.000343551
0.000360171
0.000343551
0.000337778
0.000321361
0.000321361
0.00033798
0.00033798
0.000321361
0.000337981
0.00032136
0.000337981
0.00031579
0.00029917
0.00031579
0.00029917
0.00031579
0.00031579
0.000299359
0.00029917
0.00029917
0.000276979
0.000293599
0.000276979
0.000293599
0.000293397
0.00027698
0.00027698
0.000293599
0.000293599
0.000299177
0.000315788
0.000315784
0.000299171
0.000299242
0.000315753
0.000313023
0.000301921
0.000315722
0.000299206
0.000301927
0.000299242
0.000315753
0.000313023
0.000301921
0.000315722
0.000299206
0.000301928
0.000293593
0.000276981
0.000293597
0.000276987
0.000293593
0.000276981
0.000293597
0.000276987
0.000293531
0.000290826
0.000277015
0.000279737
0.000293562
0.000290832
0.000277052
0.000293531
0.000290826
0.000277015
0.000279737
0.000293562
0.000290832
0.000277051
0.00031579
0.00031579
0.000299359
0.00029917
0.00029917
0.00031579
0.00029917
0.000276979
0.000293599
0.000293396
0.00027698
0.00027698
0.000293599
0.000293599
0.000276979
0.0002936
0.000299242
0.000315753
0.000313023
0.000301921
0.000315721
0.000299206
0.000301927
0.000299177
0.000315788
0.000315784
0.000299171
0.000299242
0.000313023
0.000315753
0.000301921
0.000315721
0.000301927
0.000299206
0.000293593
0.000276981
0.000293597
0.000276987
0.000293531
0.000290826
0.000277015
0.000279737
0.000293562
0.000290832
0.000277052
0.000293594
0.000276981
0.000293597
0.000276987
0.000293531
0.000290826
0.000279737
0.000277016
0.000290832
0.000293562
0.000277052
0.000299177
0.000315788
0.000315784
0.000299171
0.000299242
0.000313023
0.000315753
0.000301922
0.000315721
0.000301928
0.000299206
0.000299177
0.000315788
0.000315784
0.000299171
0.000293531
0.000290826
0.000277015
0.000279737
0.000293562
0.000290832
0.000277052
0.000293593
0.000276981
0.000293597
0.000276987
0.000293531
0.000290826
0.000279737
0.000277015
0.000290832
0.000293563
0.000277052
0.000293593
0.000276981
0.000293598
0.000276987
0.00031579
0.00031579
0.000299358
0.00029917
0.00029917
0.00031579
0.00029917
0.000276979
0.0002936
0.000293397
0.00027698
0.00027698
0.000293599
0.000293599
0.000276979
0.000293599
0.000299242
0.000313023
0.000315753
0.000301921
0.000315721
0.000301928
0.000299206
0.000299177
0.000315788
0.000315784
0.000299171
0.000299177
0.000315788
0.000315784
0.000299171
0.000293531
0.000290826
0.000279737
0.000277015
0.000290832
0.000293563
0.000277052
0.000293531
0.000290826
0.000279737
0.000277015
0.000290832
0.000293563
0.000277052
0.000293593
0.000276981
0.000293597
0.000276987
0.000293593
0.000276981
0.000293598
0.000276987
0.00031579
0.00029917
0.00031579
0.00029917
0.000293397
0.00027698
0.00027698
0.000293599
0.000293599
0.000276979
0.000293599
0.000276979
0.0002936
0.000271408
0.000254789
0.000271408
0.000254789
0.000271409
0.000271409
0.000254977
0.000254789
0.000254789
0.000232597
0.000249218
0.000232597
0.000249218
0.000249015
0.000232598
0.000232598
0.000249217
0.000249218
0.000254796
0.000271407
0.000271403
0.00025479
0.000254861
0.000271372
0.000268641
0.00025754
0.00027134
0.000254824
0.000257546
0.000254861
0.000271372
0.000268642
0.00025754
0.00027134
0.000254824
0.000257546
0.000249212
0.000232599
0.000249216
0.000232605
0.000249212
0.000232599
0.000249216
0.000232605
0.000249149
0.000246444
0.000232634
0.000235355
0.000249181
0.00024645
0.00023267
0.000249149
0.000246444
0.000232633
0.000235355
0.000249181
0.000246451
0.00023267
0.000271409
0.000271408
0.000254977
0.000254788
0.000254789
0.000271409
0.000254788
0.000232597
0.000249218
0.000249015
0.000232598
0.000232598
0.000249217
0.000249217
0.000232597
0.000249218
0.000254861
0.000271372
0.000268641
0.00025754
0.00027134
0.000254825
0.000257546
0.000254796
0.000271407
0.000271403
0.00025479
0.000254861
0.000268642
0.000271372
0.00025754
0.00027134
0.000257546
0.000254824
0.000249212
0.000232599
0.000249216
0.000232605
0.000249149
0.000246444
0.000232633
0.000235355
0.000249181
0.00024645
0.00023267
0.000249212
0.000232599
0.000249216
0.000232605
0.000249149
0.000246444
0.000235355
0.000232633
0.00024645
0.000249181
0.00023267
0.000254796
0.000271407
0.000271403
0.00025479
0.000254861
0.000268642
0.000271372
0.00025754
0.00027134
0.000257546
0.000254824
0.000254796
0.000271407
0.000271403
0.00025479
0.000249149
0.000246444
0.000232633
0.000235355
0.000249181
0.000246451
0.00023267
0.000249212
0.000232599
0.000249216
0.000232605
0.000249149
0.000246445
0.000235355
0.000232633
0.000246451
0.000249181
0.00023267
0.000249212
0.000232599
0.000249216
0.000232605
0.000271409
0.000271409
0.000254977
0.000254789
0.000254789
0.000271409
0.000254789
0.000232597
0.000249218
0.000249015
0.000232598
0.000232598
0.000249217
0.000249217
0.000232597
0.000249218
0.000254861
0.000268642
0.000271372
0.00025754
0.00027134
0.000257546
0.000254824
0.000254796
0.000271407
0.000271403
0.00025479
0.000254796
0.000271407
0.000271403
0.00025479
0.000249149
0.000246444
0.000235355
0.000232633
0.00024645
0.000249181
0.00023267
0.000249149
0.000246444
0.000235355
0.000232633
0.000246451
0.000249181
0.00023267
0.000249212
0.000232599
0.000249216
0.000232605
0.000249212
0.000232599
0.000249216
0.000232605
0.000271409
0.000254789
0.000271409
0.000254789
0.000249015
0.000232598
0.000232598
0.000249217
0.000249217
0.000232597
0.000249218
0.000232597
0.000249218
0.000227026
0.000210406
0.000227026
0.000210406
0.000227027
0.000227027
0.000210595
0.000210406
0.000210406
0.000188215
0.000204835
0.000188215
0.000204835
0.000204633
0.000188215
0.000188215
0.000204835
0.000204835
0.000210413
0.000227025
0.000227021
0.000210407
0.000210478
0.00022699
0.000224259
0.000213158
0.000226958
0.000210442
0.000213164
0.000210478
0.00022699
0.000224259
0.000213157
0.000226958
0.000210442
0.000213164
0.000204829
0.000188216
0.000204833
0.000188222
0.000204829
0.000188216
0.000204833
0.000188222
0.000204767
0.000202062
0.000188251
0.000190972
0.000204798
0.000202068
0.000188287
0.000204767
0.000202062
0.000188251
0.000190972
0.000204798
0.000202068
0.000188287
0.000227027
0.000227026
0.000210595
0.000210406
0.000210406
0.000227027
0.000210406
0.000188214
0.000204835
0.000204632
0.000188216
0.000188215
0.000204834
0.000204835
0.000188214
0.000204835
0.000210478
0.00022699
0.000224259
0.000213158
0.000226958
0.000210442
0.000213164
0.000210413
0.000227025
0.000227021
0.000210407
0.000210478
0.000224259
0.00022699
0.000213157
0.000226958
0.000213164
0.000210442
0.000204829
0.000188216
0.000204833
0.000188222
0.000204767
0.000202062
0.000188251
0.000190972
0.000204798
0.000202068
0.000188287
0.000204829
0.000188216
0.000204833
0.000188222
0.000204767
0.000202062
0.000190972
0.000188251
0.000202068
0.000204798
0.000188287
0.000210413
0.000227025
0.000227021
0.000210407
0.000210478
0.000224259
0.00022699
0.000213158
0.000226958
0.000213164
0.000210442
0.000210413
0.000227025
0.000227021
0.000210407
0.000204767
0.000202062
0.000188251