/*--------------------------------*- C++ -*----------------------------------*\
| =========                 |                                                 |
| \\      /  F ield         | OpenFOAM: The Open Source CFD Toolbox           |
|  \\    /   O peration     | Version:  2206                                  |
|   \\  /    A nd           | Website:  www.openfoam.com                      |
|    \\/     M anipulation  |                                                 |
\*---------------------------------------------------------------------------*/
FoamFile
{
    version     2.0;
    format      ascii;
    arch        "LSB;label=32;scalar=64";
    class       surfaceScalarField;
    location    "5";
    object      phi;
}
// * * * * * * * * * * * * * * * * * * * * * * * * * * * * * * * * * * * * * //

dimensions      [0 3 -1 0 0 0 0];

oriented        oriented;

internalField   nonuniform List<scalar> 
83612
(
5.41026e-08
5.41905e-08
-7.36202e-07
-5.4654e-08
-5.64245e-08
7.38988e-07
-1.55938e-07
2.11293e-07
-5.01475e-08
1.99981e-07
1.57146e-07
2.61037e-07
-1.88056e-07
-1.06437e-07
-3.10426e-07
1.66233e-07
2.29396e-07
-4.14081e-07
-1.58367e-07
2.12053e-07
-5.34737e-08
1.97603e-07
1.58958e-07
2.61631e-07
-1.87195e-07
-1.05662e-07
-3.09834e-07
1.67119e-07
2.30403e-07
-4.13235e-07
2.46916e-07
-2.11125e-07
-2.10281e-07
1.47364e-07
1.50103e-07
-1.22977e-07
5.88702e-08
5.14359e-08
-7.55242e-07
-5.24448e-08
-6.2455e-08
7.59836e-07
-1.66117e-07
2.12866e-07
-5.36692e-08
1.99959e-07
1.68911e-07
2.62581e-07
-1.89469e-07
-1.0779e-07
-3.12132e-07
1.68002e-07
2.32087e-07
-4.1523e-07
-1.65803e-07
2.12767e-07
-5.70943e-08
2.01191e-07
1.68145e-07
2.63212e-07
-1.89227e-07
-1.06582e-07
-3.11587e-07
1.67827e-07
2.32234e-07
-4.15083e-07
2.50425e-07
-2.13583e-07
-2.1312e-07
1.50077e-07
1.52335e-07
-1.26134e-07
5.59671e-08
5.85452e-08
-7.70856e-07
-5.73086e-08
-5.85036e-08
7.72156e-07
-1.74551e-07
2.15684e-07
-6.14779e-08
1.92931e-07
1.74984e-07
2.65851e-07
-1.87574e-07
-1.05524e-07
-3.11203e-07
1.70284e-07
2.34888e-07
-4.14292e-07
-1.74888e-07
2.14705e-07
-5.65737e-08
1.98569e-07
1.76427e-07
2.64773e-07
-1.89775e-07
-1.07893e-07
-3.12941e-07
1.69518e-07
2.34019e-07
-4.15939e-07
2.5141e-07
-2.14897e-07
-2.14291e-07
1.51208e-07
1.53833e-07
-1.27262e-07
5.6123e-08
6.2219e-08
-7.6604e-07
-5.91552e-08
-5.60824e-08
7.62935e-07
-1.74403e-07
2.14907e-07
-6.05618e-08
1.95305e-07
1.73936e-07
2.65112e-07
-1.8777e-07
-1.05908e-07
-3.10364e-07
1.69458e-07
2.34007e-07
-4.1372e-07
-1.76601e-07
2.16083e-07
-6.35212e-08
1.89962e-07
1.74556e-07
2.65932e-07
-1.85611e-07
-1.03982e-07
-3.09667e-07
1.70559e-07
2.3509e-07
-4.128e-07
2.51068e-07
-2.15458e-07
-2.15514e-07
1.52262e-07
1.54041e-07
-1.26399e-07
6.1164e-08
5.66829e-08
-7.50355e-07
-5.31295e-08
-5.99926e-08
7.45631e-07
-1.66315e-07
2.15008e-07
-6.11885e-08
1.91273e-07
1.63591e-07
2.64673e-07
-1.85398e-07
-1.03837e-07
-3.08403e-07
1.6919e-07
2.33201e-07
-4.11794e-07
-1.67455e-07
2.13883e-07
-6.19355e-08
1.94907e-07
1.65383e-07
2.64501e-07
-1.8579e-07
-1.03399e-07
-3.08141e-07
1.67873e-07
2.32372e-07
-4.12199e-07
2.47758e-07
-2.15099e-07
-2.15118e-07
1.5186e-07
1.53343e-07
-1.22745e-07
5.60811e-08
5.79837e-08
-7.38976e-07
-5.57747e-08
-5.84369e-08
7.39123e-07
-1.58583e-07
2.13755e-07
-6.09265e-08
1.93723e-07
1.57201e-07
2.63813e-07
-1.86514e-07
-1.04478e-07
-3.07646e-07
1.68673e-07
2.32302e-07
-4.11319e-07
-1.59707e-07
2.13175e-07
-5.73768e-08
1.95363e-07
1.57657e-07
2.63008e-07
-1.86265e-07
-1.04569e-07
-3.08122e-07
1.67725e-07
2.31048e-07
-4.11935e-07
2.45702e-07
-2.13106e-07
-2.12246e-07
1.49134e-07
1.51744e-07
-1.21228e-07
5.80284e-08
5.34429e-08
-7.46309e-07
-5.3325e-08
-6.22269e-08
7.5039e-07
-1.61515e-07
2.12954e-07
-5.51506e-08
1.97484e-07
1.63295e-07
2.62449e-07
-1.88441e-07
-1.06829e-07
-3.10558e-07
1.682e-07
2.31711e-07
-4.13599e-07
-1.60749e-07
2.11746e-07
-5.19168e-08
2.03462e-07
1.64043e-07
2.61768e-07
-1.89876e-07
-1.07686e-07
-3.12345e-07
1.66694e-07
2.30643e-07
-4.15784e-07
2.4926e-07
-2.12396e-07
-2.11853e-07
1.48739e-07
1.51407e-07
-1.25157e-07
5.81047e-08
5.84285e-08
-7.55257e-07
-5.63035e-08
-5.86744e-08
7.53702e-07
-1.67963e-07
2.15108e-07
-5.80344e-08
1.95522e-07
1.68871e-07
2.64537e-07
-1.88286e-07
-1.0666e-07
-3.1185e-07
1.69789e-07
2.33766e-07
-4.148e-07
-1.70198e-07
2.15787e-07
-6.08523e-08
1.94409e-07
1.69746e-07
2.65463e-07
-1.878e-07
-1.05882e-07
-3.11184e-07
1.70255e-07
2.34542e-07
-4.14286e-07
2.50304e-07
-2.16062e-07
-2.15739e-07
1.52601e-07
1.54744e-07
-1.25847e-07
6.33346e-08
6.37852e-08
-7.41094e-07
-5.62193e-08
-5.66779e-08
7.26872e-07
-1.70086e-07
2.20646e-07
-6.57811e-08
1.98179e-07
1.72612e-07
2.69865e-07
-1.93963e-07
-1.10406e-07
-3.16676e-07
1.76018e-07
2.40593e-07
-4.21e-07
-1.70617e-07
2.21143e-07
-6.80215e-08
1.96286e-07
1.7385e-07
2.70462e-07
-1.93512e-07
-1.09822e-07
-3.16448e-07
1.76299e-07
2.41087e-07
-4.20706e-07
2.46831e-07
-2.21403e-07
-2.21274e-07
1.59062e-07
1.60944e-07
-1.2416e-07
-4.20733e-08
-4.02027e-08
-6.10094e-07
2.22667e-09
8.11646e-11
6.90062e-07
-1.58997e-07
2.18629e-07
3.32422e-08
3.37542e-07
2.82806e-07
2.63988e-07
-2.82799e-07
-1.87396e-07
-4.08816e-07
1.7722e-07
2.4161e-07
-5.17028e-07
-1.58951e-07
2.17394e-07
3.8998e-08
3.3989e-07
2.82058e-07
2.62844e-07
-2.83109e-07
-1.878e-07
-4.09487e-07
1.75882e-07
2.40073e-07
-5.17792e-07
2.1072e-07
-2.18536e-07
-2.17944e-07
1.75795e-07
1.78089e-07
-1.28125e-07
-1.92259e-06
-1.91528e-06
4.44275e-07
6.95283e-07
6.97138e-07
2.00117e-06
-3.33908e-07
2.17792e-08
1.91461e-06
1.84639e-06
2.25772e-07
6.23178e-08
-8.83371e-07
-6.95473e-07
-1.03822e-06
-3.92539e-08
4.55305e-08
-1.12617e-06
-3.25596e-07
2.51487e-08
1.91885e-06
1.82223e-06
2.2587e-07
6.62376e-08
-8.79212e-07
-6.91098e-07
-1.04458e-06
-3.79327e-08
4.56206e-08
-1.12554e-06
-9.04967e-08
-2.15817e-08
-2.59464e-08
1.39895e-07
1.40257e-07
-1.42127e-07
-5.12612e-06
-5.12667e-06
9.58767e-06
1.77234e-05
1.77188e-05
3.93814e-06
6.87236e-07
2.41672e-06
2.41673e-06
-5.48461e-06
-7.66149e-06
-8.97034e-06
-5.48509e-06
-7.66291e-06
-8.97153e-06
-4.68129e-06
-3.90331e-06
5.12475e-06
-3.04656e-06
2.85091e-06
3.6555e-06
-4.6806e-06
5.12545e-06
-3.90435e-06
2.85225e-06
-3.04761e-06
3.65486e-06
-4.11492e-06
3.89754e-06
3.89708e-06
-3.23675e-06
-3.24011e-06
2.79716e-06
1.86172e-07
1.86169e-07
-2.49114e-07
1.23614e-07
-1.23863e-07
-1.22978e-07
1.78484e-07
-5.55188e-08
-1.79006e-07
1.95455e-07
2.13458e-07
-1.0413e-07
2.63418e-07
2.30527e-07
-4.13583e-07
1.66489e-07
-3.09422e-07
-1.85589e-07
1.79604e-07
-5.80674e-08
-1.80301e-07
1.94797e-07
2.12758e-07
-1.04064e-07
2.62943e-07
2.31454e-07
-4.12922e-07
1.68014e-07
-3.08627e-07
1.8673e-07
-2.48295e-07
1.22788e-07
-1.23883e-07
-1.22928e-07
1.58009e-07
-5.64527e-08
-1.586e-07
1.95943e-07
2.12696e-07
-1.04999e-07
2.6268e-07
2.31087e-07
-4.12793e-07
1.67489e-07
-3.08891e-07
-1.85568e-07
1.81856e-07
-6.00767e-08
-1.81521e-07
1.94255e-07
2.13066e-07
-1.03966e-07
2.63404e-07
2.31281e-07
-4.12408e-07
1.67912e-07
-3.08236e-07
-5.37037e-08
-1.5618e-07
1.9619e-07
2.12166e-07
-1.05218e-07
2.61949e-07
2.30266e-07
-4.12913e-07
-3.08909e-07
1.67145e-07
-1.87388e-07
1.77517e-07
-5.38979e-08
-1.78011e-07
2.00921e-07
2.11566e-07
-1.04875e-07
2.62316e-07
2.29558e-07
-4.14172e-07
1.65828e-07
-3.09362e-07
1.86685e-07
-2.47279e-07
1.22274e-07
-1.23937e-07
-1.23311e-07
-5.44874e-08
-1.57852e-07
1.96244e-07
2.12303e-07
-1.0537e-07
2.61784e-07
2.30334e-07
-4.1266e-07
-3.09165e-07
1.67188e-07
-1.87674e-07
1.57438e-07
-4.95641e-08
-1.57274e-07
2.03153e-07
2.10509e-07
-1.06571e-07
2.60407e-07
2.29047e-07
-4.14851e-07
1.65972e-07
-3.10592e-07
1.21822e-07
-1.25152e-07
-1.24816e-07
-2.1335e-07
-2.12359e-07
1.49166e-07
1.51727e-07
-1.24299e-07
1.88313e-07
1.88864e-07
-2.50917e-07
1.25852e-07
-1.26701e-07
-1.25412e-07
1.96424e-07
1.78173e-07
2.63388e-07
-1.86908e-07
-1.04682e-07
-3.10196e-07
1.666e-07
2.30658e-07
-4.1422e-07
2.12032e-07
-5.57712e-08
1.98286e-07
1.8068e-07
2.62445e-07
-1.86748e-07
-1.0491e-07
-3.09842e-07
1.67015e-07
2.30624e-07
-4.14206e-07
1.87848e-07
-5.83731e-08
-1.85006e-07
1.97804e-07
2.13511e-07
-1.05683e-07
2.63841e-07
2.32042e-07
-4.1445e-07
1.67454e-07
-3.10675e-07
-1.88466e-07
1.89951e-07
-5.4891e-08
-1.86892e-07
1.99678e-07
2.12806e-07
-1.06852e-07
2.63059e-07
2.31367e-07
-4.15341e-07
1.67071e-07
-3.1149e-07
1.49357e-07
1.49426e-07
-1.23753e-07
1.89546e-07
-2.52306e-07
1.2701e-07
-1.26683e-07
-1.26034e-07
1.98272e-07
1.57551e-07
2.62236e-07
-1.87163e-07
-1.05994e-07
-3.09728e-07
1.67386e-07
2.30805e-07
-4.13523e-07
2.1283e-07
-5.82236e-08
1.96314e-07
1.82654e-07
2.63115e-07
-1.86213e-07
-1.04585e-07
-3.09085e-07
1.67389e-07
2.3082e-07
-4.13159e-07
1.66158e-07
-5.12475e-08
-1.63207e-07
2.00753e-07
2.12097e-07
-1.08203e-07
2.6135e-07
2.30551e-07
-4.14954e-07
1.67347e-07
-3.11781e-07
-1.88554e-07
1.87906e-07
-5.17713e-08
-1.86618e-07
2.01098e-07
2.12454e-07
-1.07501e-07
2.62029e-07
2.30373e-07
-4.14871e-07
1.66753e-07
-3.11298e-07
-5.09836e-08
2.02664e-07
1.79245e-07
2.61614e-07
-1.88377e-07
-1.05987e-07
-3.10792e-07
1.65141e-07
-4.15088e-07
2.28955e-07
-5.14304e-08
-1.63139e-07
2.01541e-07
2.11988e-07
-1.07931e-07
2.6169e-07
2.3104e-07
-4.15318e-07
-3.12034e-07
1.67022e-07
-1.88805e-07
1.87704e-07
-5.34393e-08
-1.85306e-07
2.00509e-07
2.1296e-07
-1.06954e-07
2.62925e-07
2.30914e-07
-4.15316e-07
1.66579e-07
-3.11771e-07
1.49918e-07
1.50482e-07
-1.22796e-07
1.88439e-07
-2.50421e-07
1.25313e-07
-1.25232e-07
-1.26653e-07
-4.96952e-08
2.04451e-07
1.59404e-07
2.60368e-07
-1.88411e-07
-1.07018e-07
-3.11252e-07
1.65682e-07
-4.15388e-07
2.29015e-07
-5.61104e-08
-1.63557e-07
2.00064e-07
2.12577e-07
-1.06129e-07
2.6274e-07
2.31677e-07
-4.1482e-07
-3.11254e-07
1.67449e-07
-1.8862e-07
1.67725e-07
-5.5296e-08
-1.65259e-07
2.00436e-07
2.12511e-07
-1.07285e-07
2.62502e-07
2.31641e-07
-4.14897e-07
1.67757e-07
-3.11212e-07
1.25645e-07
-1.26452e-07
-1.26193e-07
-2.13832e-07
-2.12438e-07
1.4917e-07
1.5252e-07
-1.26337e-07
1.89068e-07
1.8827e-07
-2.52238e-07
1.2752e-07
-1.2582e-07
-1.268e-07
1.97943e-07
1.90416e-07
2.64216e-07
-1.88472e-07
-1.05912e-07
-3.10932e-07
1.67836e-07
2.32468e-07
-4.14676e-07
2.13626e-07
-5.51893e-08
1.98286e-07
1.93169e-07
2.63624e-07
-1.8843e-07
-1.07034e-07
-3.11831e-07
1.67605e-07
2.31738e-07
-4.15614e-07
1.95862e-07
-5.80475e-08
-1.95029e-07
1.98148e-07
2.1481e-07
-1.07255e-07
2.64654e-07
2.33171e-07
-4.14633e-07
1.68594e-07
-3.11207e-07
-1.8804e-07
1.98501e-07
-5.78189e-08
-1.97662e-07
1.95589e-07
2.14977e-07
-1.07321e-07
2.64551e-07
2.33411e-07
-4.14328e-07
1.69294e-07
-3.11154e-07
1.50523e-07
1.51209e-07
-1.27545e-07
1.87972e-07
-2.52874e-07
1.27918e-07
-1.24817e-07
-1.26239e-07
2.00084e-07
1.68453e-07
2.61716e-07
-1.88968e-07
-1.08389e-07
-3.12179e-07
1.68091e-07
2.31395e-07
-4.15045e-07
2.12564e-07
-4.84036e-08
2.02479e-07
1.90254e-07
2.61809e-07
-1.8928e-07
-1.08414e-07
-3.13169e-07
1.6647e-07
2.30085e-07
-4.1649e-07
1.75565e-07
-5.52867e-08
-1.73747e-07
1.95824e-07
2.14441e-07
-1.07316e-07
2.63899e-07
2.33851e-07
-4.15871e-07
1.69937e-07
-3.13025e-07
-1.89916e-07
1.98499e-07
-5.2721e-08
-1.95767e-07
2.01876e-07
2.13807e-07
-1.08606e-07
2.63578e-07
2.32638e-07
-4.17469e-07
1.68323e-07
-3.14241e-07
-5.39825e-08
2.0016e-07
1.89979e-07
2.63361e-07
-1.88993e-07
-1.07076e-07
-3.12255e-07
1.67197e-07
-4.1578e-07
2.31512e-07
-5.94011e-08
-1.72969e-07
1.93928e-07
2.15133e-07
-1.06119e-07
2.65096e-07
2.34425e-07
-4.14795e-07
-3.11802e-07
1.69926e-07
-1.88941e-07
1.96528e-07
-5.7174e-08
-1.94836e-07
1.99543e-07
2.14412e-07
-1.06749e-07
2.64739e-07
2.33023e-07
-4.16088e-07
1.68139e-07
-3.12594e-07
1.50818e-07
1.50214e-07
-1.26122e-07
1.90419e-07
-2.53282e-07
1.28562e-07
-1.2784e-07
-1.27776e-07
-5.51818e-08
1.99567e-07
1.6968e-07
2.63022e-07
-1.88897e-07
-1.0761e-07
-3.1159e-07
1.68434e-07
-4.15109e-07
2.32291e-07
-5.46514e-08
-1.72075e-07
2.01392e-07
2.13617e-07
-1.08318e-07
2.63882e-07
2.33087e-07
-4.16519e-07
-3.13429e-07
1.68546e-07
-1.89051e-07
1.76445e-07
-5.22132e-08
-1.74563e-07
1.99077e-07
2.1371e-07
-1.08191e-07
2.63411e-07
2.32592e-07
-4.16447e-07
1.68706e-07
-3.13475e-07
1.26835e-07
-1.2709e-07
-1.26327e-07
-2.14982e-07
-2.15014e-07
1.51683e-07
1.53969e-07
-1.27895e-07
1.87744e-07
1.8688e-07
-2.5109e-07
1.26689e-07
-1.24981e-07
-1.25242e-07
1.98077e-07
1.96331e-07
2.64478e-07
-1.89215e-07
-1.07812e-07
-3.11802e-07
1.6872e-07
2.33063e-07
-4.14992e-07
2.15182e-07
-5.58736e-08
1.95327e-07
1.98248e-07
2.64347e-07
-1.87911e-07
-1.07532e-07
-3.11516e-07
1.69411e-07
2.33237e-07
-4.14418e-07
1.95008e-07
-5.53017e-08
-1.96286e-07
1.94552e-07
2.15404e-07
-1.0672e-07
2.64434e-07
2.33353e-07
-4.14424e-07
1.69242e-07
-3.11516e-07
-1.87997e-07
1.97367e-07
-5.47885e-08
-1.98318e-07
1.9721e-07
2.14442e-07
-1.07495e-07
2.63658e-07
2.33229e-07
-4.14875e-07
1.69381e-07
-3.11814e-07
1.53339e-07
1.52552e-07
-1.27899e-07
1.88028e-07
-2.52266e-07
1.27522e-07
-1.25302e-07
-1.25979e-07
1.94853e-07
1.76711e-07
2.64899e-07
-1.88095e-07
-1.0685e-07
-3.12445e-07
1.70641e-07
2.34853e-07
-4.1547e-07
2.14995e-07
-5.56653e-08
1.98519e-07
2.00171e-07
2.64752e-07
-1.89233e-07
-1.08038e-07
-3.13521e-07
1.69373e-07
2.3379e-07
-4.16644e-07
1.74937e-07
-6.36304e-08
-1.76644e-07
1.93226e-07
2.15623e-07
-1.05562e-07
2.65759e-07
2.35076e-07
-4.13022e-07
1.70788e-07
-3.09671e-07
-1.86312e-07
1.99908e-07
-6.31103e-08
-2.01406e-07
1.90659e-07
2.16301e-07
-1.05697e-07
2.65764e-07
2.34927e-07
-4.12555e-07
1.7083e-07
-3.09309e-07
-5.7301e-08
1.984e-07
1.96857e-07
2.65146e-07
-1.8887e-07
-1.0676e-07
-3.12165e-07
1.68517e-07
-4.1569e-07
2.33497e-07
-6.00374e-08
-1.74804e-07
1.95544e-07
2.15075e-07
-1.0594e-07
2.65364e-07
2.34097e-07
-4.14264e-07
-3.10931e-07
1.69521e-07
-1.88255e-07
1.96644e-07
-5.69756e-08
-1.97083e-07
1.95746e-07
2.15122e-07
-1.06877e-07
2.64834e-07
2.33541e-07
-4.14458e-07
1.68899e-07
-3.11138e-07
1.52842e-07
1.52529e-07
-1.28953e-07
1.8645e-07
-2.50523e-07
1.26462e-07
-1.23761e-07
-1.24941e-07
-5.29598e-08
1.98202e-07
1.77134e-07
2.63967e-07
-1.88807e-07
-1.07962e-07
-3.13374e-07
1.69175e-07
-4.16409e-07
2.33188e-07
-6.27327e-08
-1.77419e-07
1.90282e-07
2.16378e-07
-1.05007e-07
2.66063e-07
2.35398e-07
-4.13477e-07
-3.10522e-07
1.70887e-07
-1.87639e-07
1.76911e-07
-5.94188e-08
-1.77679e-07
1.95541e-07
2.15001e-07
-1.0654e-07
2.64961e-07
2.34597e-07
-4.14703e-07
1.70212e-07
-3.11242e-07
1.26822e-07
-1.25439e-07
-1.2621e-07
-2.1511e-07
-2.15017e-07
1.51924e-07
1.53277e-07
-1.26163e-07
1.85781e-07
1.85848e-07
-2.48991e-07
1.24205e-07
-1.23882e-07
-1.22961e-07
1.93932e-07
1.94101e-07
2.64298e-07
-1.87182e-07
-1.05993e-07
-3.11229e-07
1.69078e-07
2.33274e-07
-4.14258e-07
2.14462e-07
-5.68875e-08
1.95531e-07
1.97136e-07
2.63841e-07
-1.87537e-07
-1.06991e-07
-3.11168e-07
1.69672e-07
2.33675e-07
-4.14365e-07
1.88497e-07
-6.19646e-08
-1.90737e-07
1.92996e-07
2.1493e-07
-1.03905e-07
2.64759e-07
2.33178e-07
-4.12208e-07
1.68767e-07
-3.08531e-07
-1.84795e-07
1.90898e-07
-6.1967e-08
-1.9364e-07
1.88565e-07
2.15609e-07
-1.04232e-07
2.64993e-07
2.33899e-07
-4.11365e-07
1.70131e-07
-3.08096e-07
1.52991e-07
1.51535e-07
-1.27422e-07
1.85382e-07
-2.50047e-07
1.25158e-07
-1.22493e-07
-1.22794e-07
1.93387e-07
1.73588e-07
2.65112e-07
-1.86714e-07
-1.05598e-07
-3.09344e-07
1.70164e-07
2.34204e-07
-4.1266e-07
2.15687e-07
-6.13702e-08
1.90643e-07
1.97514e-07
2.65007e-07
-1.8585e-07
-1.05476e-07
-3.08791e-07
1.70311e-07
2.3419e-07
-4.11959e-07
1.67144e-07
-5.71022e-08
-1.69307e-07
1.93048e-07
2.14074e-07
-1.05454e-07
2.63373e-07
2.32356e-07
-4.12137e-07
1.68997e-07
-3.09145e-07
-1.85963e-07
1.90118e-07
-5.33446e-08
-1.92314e-07
1.95154e-07
2.13335e-07
-1.05807e-07
2.62337e-07
2.31172e-07
-4.12818e-07
1.67879e-07
-3.09748e-07
-5.81905e-08
1.93403e-07
1.95772e-07
2.64961e-07
-1.87404e-07
-1.06318e-07
-3.10378e-07
1.69276e-07
-4.13622e-07
2.33686e-07
-6.18392e-08
-1.69457e-07
1.90114e-07
2.15539e-07
-1.04056e-07
2.65187e-07
2.33822e-07
-4.11554e-07
-3.08411e-07
1.69722e-07
-1.84887e-07
1.88955e-07
-6.13213e-08
-1.91478e-07
1.89852e-07
2.15338e-07
-1.03947e-07
2.64648e-07
2.33242e-07
-4.11403e-07
1.69283e-07
-3.08282e-07
1.53666e-07
1.52886e-07
-1.25304e-07
1.85414e-07
-2.48527e-07
1.23653e-07
-1.2229e-07
-1.24212e-07
-6.23728e-08
1.92318e-07
1.75835e-07
2.65548e-07
-1.86652e-07
-1.05587e-07
-3.10013e-07
1.70745e-07
-4.13485e-07
2.35061e-07
-6.27478e-08
-1.69761e-07
1.93283e-07
2.14341e-07
-1.03028e-07
2.64971e-07
2.33049e-07
-4.12213e-07
-3.08436e-07
1.685e-07
-1.84143e-07
1.69909e-07
-6.54975e-08
-1.7177e-07
1.86862e-07
2.15542e-07
-1.03232e-07
2.65489e-07
2.34274e-07
-4.10655e-07
1.705e-07
-3.07278e-07
1.23359e-07
-1.22169e-07
-1.22461e-07
-2.14593e-07
-2.13749e-07
1.50328e-07
1.53046e-07
-1.24023e-07
1.8657e-07
1.8624e-07
-2.49286e-07
1.24148e-07
-1.24013e-07
-1.23659e-07
1.93151e-07
1.8523e-07
2.64562e-07
-1.85687e-07
-1.0379e-07
-3.08147e-07
1.68571e-07
2.33064e-07
-4.11887e-07
2.15044e-07
-6.03597e-08
1.8955e-07
1.87618e-07
2.64455e-07
-1.84981e-07
-1.04376e-07
-3.07961e-07
1.69764e-07
2.33442e-07
-4.11298e-07
1.79351e-07
-5.56414e-08
-1.80413e-07
1.95322e-07
2.13839e-07
-1.04793e-07
2.63417e-07
2.31064e-07
-4.13205e-07
1.67201e-07
-3.09574e-07
-1.85949e-07
1.81359e-07
-5.57828e-08
-1.82654e-07
1.93624e-07
2.13392e-07
-1.05389e-07
2.62617e-07
2.31699e-07
-4.12351e-07
1.68383e-07
-3.0895e-07
1.5271e-07
1.51944e-07
-1.24649e-07
1.86083e-07
-2.49839e-07
1.24398e-07
-1.22971e-07
-1.2362e-07
1.93004e-07
1.64416e-07
2.63119e-07
-1.85606e-07
-1.05109e-07
-3.09036e-07
1.6901e-07
2.32407e-07
-4.12127e-07
2.13109e-07
-5.29667e-08
1.95386e-07
1.87761e-07
2.62201e-07
-1.86054e-07
-1.05725e-07
-3.09664e-07
1.67787e-07
2.31184e-07
-4.129e-07
1.59185e-07
-5.84615e-08
-1.60349e-07
1.95026e-07
2.13246e-07
-1.05123e-07
2.62987e-07
2.31936e-07
-4.12181e-07
1.68549e-07
-3.08575e-07
-1.84963e-07
1.83146e-07
-5.94474e-08
-1.84855e-07
1.92147e-07
2.13845e-07
-1.04081e-07
2.63396e-07
2.31954e-07
-4.11729e-07
1.68471e-07
-3.07885e-07
-6.0669e-08
1.89461e-07
1.86282e-07
2.644e-07
-1.84598e-07
-1.0358e-07
-3.07976e-07
1.68971e-07
-4.11323e-07
2.32888e-07
-6.15889e-08
-1.59108e-07
1.93341e-07
2.13682e-07
-1.04e-07
2.63834e-07
2.32172e-07
-4.11503e-07
-3.07698e-07
1.68369e-07
-1.84998e-07
1.80536e-07
-5.99829e-08
-1.82171e-07
1.92548e-07
2.13588e-07
-1.03151e-07
2.63697e-07
2.31621e-07
-4.11942e-07
1.67833e-07
-3.07578e-07
1.52146e-07
1.50068e-07
-1.23749e-07
1.85686e-07
-2.47704e-07
1.22863e-07
-1.23072e-07
-1.22737e-07
-6.51362e-08
1.87222e-07
1.67402e-07
2.65086e-07
-1.84112e-07
-1.03203e-07
-3.06484e-07
1.7024e-07
-4.10082e-07
2.3386e-07
-5.97681e-08
-1.61006e-07
1.93452e-07
2.1369e-07
-1.04059e-07
2.63568e-07
2.31335e-07
-4.11374e-07
-3.07598e-07
1.67739e-07
-1.85247e-07
1.60342e-07
-5.79434e-08
-1.62255e-07
1.9373e-07
2.1281e-07
-1.04562e-07
2.62552e-07
2.3128e-07
-4.11583e-07
1.68407e-07
-3.0753e-07
1.21095e-07
-1.23373e-07
-1.22266e-07
-2.13648e-07
-2.12917e-07
1.49559e-07
1.52053e-07
-1.24332e-07
1.87242e-07
1.87542e-07
-2.50137e-07
1.24912e-07
-1.25389e-07
-1.2417e-07
1.95671e-07
1.79105e-07
2.63298e-07
-1.86747e-07
-1.048e-07
-3.09765e-07
1.67256e-07
2.31224e-07
-4.13459e-07
2.13697e-07
-5.59003e-08
1.93572e-07
1.81128e-07
2.62869e-07
-1.85921e-07
-1.05123e-07
-3.09587e-07
1.68202e-07
2.31535e-07
-4.13113e-07
1.83075e-07
-6.00806e-08
-1.81418e-07
1.95721e-07
2.14071e-07
-1.04749e-07
2.64174e-07
2.32129e-07
-4.13648e-07
1.67747e-07
-3.0978e-07
-1.86622e-07
1.85064e-07
-5.9825e-08
-1.83614e-07
1.94628e-07
2.1396e-07
-1.04969e-07
2.63903e-07
2.32253e-07
-4.1349e-07
1.68441e-07
-3.09727e-07
1.51561e-07
1.5062e-07
-1.24569e-07
1.87807e-07
-2.50515e-07
1.25243e-07
-1.25141e-07
-1.24015e-07
1.95673e-07
1.58378e-07
2.62738e-07
-1.86657e-07
-1.0556e-07
-3.08651e-07
1.68603e-07
2.31959e-07
-4.12232e-07
2.1351e-07
-5.82437e-08
1.93861e-07
1.81695e-07
2.63276e-07
-1.854e-07
-1.04236e-07
-3.08447e-07
1.68109e-07
2.31612e-07
-4.12591e-07
1.62248e-07
-5.40375e-08
-1.60132e-07
1.96351e-07
2.12862e-07
-1.06826e-07
2.62033e-07
2.31363e-07
-4.13765e-07
1.6822e-07
-3.10775e-07
-1.88782e-07
1.83321e-07
-5.19547e-08
-1.81563e-07
2.03788e-07
2.11728e-07
-1.07066e-07
2.61802e-07
2.29907e-07
-4.15648e-07
1.66151e-07
-3.11684e-07
-5.77546e-08
1.95486e-07
1.78929e-07
2.63382e-07
-1.85742e-07
-1.03568e-07
-3.08375e-07
1.67184e-07
-4.13014e-07
2.30903e-07
-5.55504e-08
-1.59429e-07
1.95621e-07
2.13246e-07
-1.06209e-07
2.62705e-07
2.31357e-07
-4.13246e-07
-3.10232e-07
1.68031e-07
-1.89175e-07
1.82142e-07
-5.20044e-08
-1.79386e-07
2.04061e-07
2.11696e-07
-1.06768e-07
2.61907e-07
2.29547e-07
-4.15674e-07
1.65325e-07
-3.11671e-07
1.51034e-07
1.50529e-07
-1.22582e-07
1.89381e-07
-2.50491e-07
1.25079e-07
-1.26359e-07
-1.26393e-07
-5.47697e-08
1.96556e-07
1.5862e-07
2.62011e-07
-1.86031e-07
-1.05176e-07
-3.08611e-07
1.67785e-07
-4.12766e-07
2.30477e-07
-5.00296e-08
-1.5805e-07
2.03215e-07
2.11412e-07
-1.07219e-07
2.61386e-07
2.2981e-07
-4.15687e-07
-3.12305e-07
1.66099e-07
-1.89083e-07
1.6228e-07
-4.98645e-08
-1.59446e-07
2.02772e-07
2.11027e-07
-1.07706e-07
2.60919e-07
2.29918e-07
-4.15465e-07
1.66508e-07
-3.11859e-07
1.24284e-07
-1.26832e-07
-1.26449e-07
-2.14202e-07
-2.13034e-07
1.49621e-07
1.52898e-07
-1.2542e-07
1.87629e-07
1.87422e-07
-2.49831e-07
1.25403e-07
-1.25473e-07
-1.2515e-07
1.96531e-07
1.84383e-07
2.64221e-07
-1.87727e-07
-1.05317e-07
-3.10514e-07
1.67672e-07
2.31976e-07
-4.14322e-07
2.13842e-07
-5.85597e-08
1.957e-07
1.86908e-07
2.63793e-07
-1.87225e-07
-1.05658e-07
-3.10234e-07
1.68331e-07
2.32169e-07
-4.14004e-07
1.8969e-07
-5.87359e-08
-1.89852e-07
1.94792e-07
2.15204e-07
-1.05678e-07
2.64845e-07
2.33158e-07
-4.1405e-07
1.68651e-07
-3.10395e-07
-1.8752e-07
1.92261e-07
-6.01956e-08
-1.91675e-07
1.95493e-07
2.14838e-07
-1.06157e-07
2.64695e-07
2.33338e-07
-4.13983e-07
1.69271e-07
-3.10366e-07
1.50685e-07
1.51221e-07
-1.25626e-07
1.8839e-07
-2.51442e-07
1.26586e-07
-1.2564e-07
-1.25413e-07
1.96889e-07
1.63769e-07
2.62317e-07
-1.87918e-07
-1.07078e-07
-3.11256e-07
1.68507e-07
2.31667e-07
-4.14239e-07
2.12129e-07
-5.16492e-08
2.03506e-07
1.86447e-07
2.62059e-07
-1.89346e-07
-1.07868e-07
-3.12455e-07
1.66353e-07
2.3029e-07
-4.16146e-07
1.69097e-07
-5.82693e-08
-1.69188e-07
1.95162e-07
2.14458e-07
-1.06451e-07
2.63878e-07
2.33685e-07
-4.13986e-07
1.69831e-07
-3.10794e-07
-1.87328e-07
1.93287e-07
-5.96697e-08
-1.93022e-07
1.94424e-07
2.15418e-07
-1.06326e-07
2.64876e-07
2.33512e-07
-4.14042e-07
1.69535e-07
-3.10665e-07
-5.24085e-08
2.0319e-07
1.84714e-07
2.62464e-07
-1.89272e-07
-1.06978e-07
-3.11993e-07
1.65858e-07
-4.15863e-07
2.30034e-07
-5.64566e-08
-1.67085e-07
1.96848e-07
2.1433e-07
-1.06846e-07
2.63833e-07
2.33122e-07
-4.14683e-07
-3.11795e-07
1.6916e-07
-1.88356e-07
1.91074e-07
-5.71939e-08
-1.89519e-07
1.96681e-07
2.14982e-07
-1.06721e-07
2.64593e-07
2.32794e-07
-4.15095e-07
1.68524e-07
-3.11763e-07
1.49844e-07
1.49879e-07
-1.26339e-07
1.87738e-07
-2.50639e-07
1.26274e-07
-1.25066e-07
-1.25634e-07
-5.11339e-08
2.01882e-07
1.65002e-07
2.61749e-07
-1.89079e-07
-1.07723e-07
-3.12342e-07
1.67165e-07
-4.15795e-07
2.307e-07
-6.04152e-08
-1.69585e-07
1.94807e-07
2.15326e-07
-1.05943e-07
2.65112e-07
2.34076e-07
-4.14336e-07
-3.11282e-07
1.69779e-07
-1.88067e-07
1.7154e-07
-6.01342e-08
-1.70186e-07
1.96514e-07
2.14645e-07
-1.06801e-07
2.64526e-07
2.33909e-07
-4.14649e-07
1.69941e-07
-3.11238e-07
1.2606e-07
-1.26131e-07
-1.26048e-07
-2.15276e-07
-2.14588e-07
1.51337e-07
1.54001e-07
-1.25305e-07
1.90629e-07
1.90422e-07
-2.47302e-07
1.24296e-07
-1.29193e-07
-1.28851e-07
1.95451e-07
1.89607e-07
2.64896e-07
-1.87954e-07
-1.05933e-07
-3.1106e-07
1.68875e-07
2.33376e-07
-4.1474e-07
2.15482e-07
-6.03499e-08
1.93808e-07
1.92304e-07
2.65204e-07
-1.87517e-07
-1.06249e-07
-3.10458e-07
1.70033e-07
2.34033e-07
-4.1403e-07
1.91428e-07
-6.16521e-08
-1.89998e-07
1.95662e-07
2.18357e-07
-1.07791e-07
2.67689e-07
2.36729e-07
-4.18063e-07
1.72132e-07
-3.13864e-07
-1.90247e-07
1.93375e-07
-6.24841e-08
-1.92534e-07
1.94231e-07
2.18135e-07
-1.08577e-07
2.67092e-07
2.3763e-07
-4.1707e-07
1.73536e-07
-3.13087e-07
1.5282e-07
1.52878e-07
-1.26551e-07
1.90422e-07
-2.4804e-07
1.24816e-07
-1.2825e-07
-1.29195e-07
1.95604e-07
1.68989e-07
2.6418e-07
-1.8777e-07
-1.0665e-07
-3.11106e-07
1.70092e-07
2.34003e-07
-4.14403e-07
2.15853e-07
-5.89318e-08
1.93533e-07
1.92488e-07
2.65171e-07
-1.87347e-07
-1.06377e-07
-3.10889e-07
1.70056e-07
2.33961e-07
-4.14231e-07
1.70443e-07
-6.15943e-08
-1.69238e-07
1.95837e-07
2.17718e-07
-1.08495e-07
2.66988e-07
2.37202e-07
-4.17768e-07
1.73159e-07
-3.1383e-07
-1.90492e-07
1.93694e-07
-6.18156e-08
-1.92207e-07
1.94967e-07
2.18078e-07
-1.08921e-07
2.66962e-07
2.37368e-07
-4.17397e-07
1.73282e-07
-3.13517e-07
-5.89372e-08
1.9474e-07
1.90431e-07
2.65498e-07
-1.88005e-07
-1.0638e-07
-3.11334e-07
1.69692e-07
-4.14699e-07
2.34006e-07
-6.52159e-08
-1.69336e-07
1.94735e-07
2.1831e-07
-1.07623e-07
2.67909e-07
2.38081e-07
-4.16965e-07
-3.1312e-07
1.73561e-07
-1.90308e-07
1.91875e-07
-6.49806e-08
-1.91169e-07
1.92998e-07
2.19259e-07
-1.07938e-07
2.68331e-07
2.38023e-07
-4.16714e-07
1.73595e-07
-3.12972e-07
1.53619e-07
1.53168e-07
-1.25786e-07
1.90395e-07
-2.47665e-07
1.24757e-07
-1.28333e-07
-1.29647e-07
-6.15167e-08
1.94519e-07
1.70374e-07
2.65458e-07
-1.87785e-07
-1.06594e-07
-3.10725e-07
1.7111e-07
-4.14094e-07
2.35056e-07
-6.61493e-08
-1.69068e-07
1.9454e-07
2.18441e-07
-1.07398e-07
2.68202e-07
2.38254e-07
-4.17211e-07
-3.13346e-07
1.73514e-07
-1.89886e-07
1.71567e-07
-6.67893e-08
-1.70942e-07
1.92281e-07
2.19059e-07
-1.07931e-07
2.68359e-07
2.38847e-07
-4.16512e-07
1.74778e-07
-3.1283e-07
1.24267e-07
-1.28759e-07
-1.28871e-07
-2.20743e-07
-2.20173e-07
1.57892e-07
1.60275e-07
-1.24554e-07
1.93485e-07
1.92751e-07
-2.1241e-07
1.12058e-07
-1.43026e-07
-1.42859e-07
1.98076e-07
1.9369e-07
2.6972e-07
-1.94004e-07
-1.10547e-07
-3.16745e-07
1.7523e-07
2.39903e-07
-4.21302e-07
2.20479e-07
-6.34086e-08
1.97214e-07
1.96084e-07
2.6901e-07
-1.93823e-07
-1.11429e-07
-3.16522e-07
1.76268e-07
2.40377e-07
-4.20875e-07
1.83204e-07
-1.98446e-07
-2.1741e-07
1.32137e-07
2.76935e-07
-1.05498e-07
3.20124e-07
3.01587e-07
-4.20587e-07
2.33432e-07
-3.11993e-07
-1.92601e-07
1.84601e-07
-2.00673e-07
-2.18475e-07
1.27815e-07
2.77215e-07
-1.05731e-07
3.20023e-07
3.02578e-07
-4.19008e-07
2.35178e-07
-3.10921e-07
1.59502e-07
1.58617e-07
-1.25034e-07
1.92441e-07
-2.13572e-07
1.12753e-07
-1.41366e-07
-1.42857e-07
1.98044e-07
1.73235e-07
2.69134e-07
-1.93661e-07
-1.10995e-07
-3.1688e-07
1.76096e-07
2.40301e-07
-4.21219e-07
2.20821e-07
-6.42795e-08
1.96034e-07
1.96886e-07
2.69245e-07
-1.93545e-07
-1.11271e-07
-3.16452e-07
1.76337e-07
2.4055e-07
-4.20632e-07
1.58144e-07
-2.00887e-07
-1.96541e-07
1.31601e-07
2.77119e-07
-1.05199e-07
3.20549e-07
3.02833e-07
-4.19256e-07
2.3511e-07
-3.10722e-07
-1.92103e-07
1.84266e-07
-1.99871e-07
-2.18874e-07
1.28281e-07
2.76853e-07
-1.05209e-07
3.19766e-07
3.02153e-07
-4.19141e-07
2.34616e-07
-3.10736e-07
-6.61503e-08
1.95034e-07
1.95472e-07
2.70016e-07
-1.93748e-07
-1.10742e-07
-3.16188e-07
1.76329e-07
-4.2032e-07
2.40769e-07
-2.04062e-07
-1.9558e-07
1.30269e-07
2.77848e-07
-1.04337e-07
3.21325e-07
3.02943e-07
-4.19073e-07
-3.10746e-07
2.34857e-07
-1.92008e-07
1.84908e-07
-2.03427e-07
-2.18458e-07
1.27116e-07
2.77731e-07
-1.04386e-07
3.20676e-07
3.02669e-07
-4.18943e-07
2.34636e-07
-3.10514e-07
1.60058e-07
1.58965e-07
-1.24724e-07
1.92074e-07
-2.10638e-07
1.10478e-07
-1.41473e-07
-1.42544e-07
-6.88761e-08
1.94254e-07
1.75316e-07
2.70239e-07
-1.93222e-07
-1.10492e-07
-3.15891e-07
1.77464e-07
-4.20068e-07
2.41569e-07
-2.02784e-07
-1.96592e-07
1.30615e-07
2.77496e-07
-1.03953e-07
3.21108e-07
3.02368e-07
-4.18992e-07
-3.10449e-07
2.34306e-07
-1.91366e-07
1.58432e-07
-2.05017e-07
-1.97127e-07
1.26574e-07
2.78053e-07
-1.04263e-07
3.21177e-07
3.03749e-07
-4.17409e-07
2.36313e-07
-3.09116e-07
1.10239e-07
-1.41674e-07
-1.41218e-07
-2.17526e-07
-2.17003e-07
1.74663e-07
1.76935e-07
-1.2948e-07
9.40275e-08
9.28288e-08
8.80341e-08
-1.62674e-08
-1.29651e-07
-1.28972e-07
3.41596e-07
3.04664e-07
2.6262e-07
-2.83683e-07
-1.88492e-07
-4.10194e-07
1.75519e-07
2.40278e-07
-5.18704e-07
2.18415e-07
4.08634e-08
3.36461e-07
3.04958e-07
2.629e-07
-2.82558e-07
-1.88553e-07
-4.09369e-07
1.77511e-07
2.41244e-07
-5.17272e-07
3.60308e-07
-1.80561e-06
-4.58638e-07
-7.5108e-07
7.87518e-07
2.72862e-08
7.3862e-07
8.5148e-07
-2.47017e-07
7.29382e-07
-1.38218e-07
-9.24981e-08
3.61007e-07
-1.81027e-06
-4.60141e-07
-7.57309e-07
7.89136e-07
2.78393e-08
7.38975e-07
8.53039e-07
-2.44891e-07
7.31841e-07
-1.36725e-07
1.77462e-07
1.7626e-07
-1.3025e-07
9.2862e-08
8.94672e-08
-1.75909e-08
-1.28491e-07
-1.28745e-07
3.39727e-07
2.82092e-07
2.62187e-07
-2.83793e-07
-1.89242e-07
-4.09523e-07
1.76651e-07
2.40672e-07
-5.17832e-07
2.17266e-07
4.39992e-08
3.38883e-07
3.04344e-07
2.62099e-07
-2.82705e-07
-1.886e-07
-4.0971e-07
1.76333e-07
2.40126e-07
-5.17769e-07
3.30669e-07
-1.80739e-06
-4.34823e-07
-7.53833e-07
7.88955e-07
2.7843e-08
7.38975e-07
8.52871e-07
-2.45173e-07
7.31861e-07
-1.37125e-07
-9.28353e-08
3.56148e-07
-1.79844e-06
-4.57505e-07
-7.56628e-07
7.88023e-07
2.71777e-08
7.38076e-07
8.51024e-07
-2.46614e-07
7.29782e-07
-1.38206e-07
3.81796e-08
3.37857e-07
3.05384e-07
2.63584e-07
-2.82448e-07
-1.87352e-07
-4.0912e-07
1.76665e-07
-5.17417e-07
2.41041e-07
-1.81403e-06
-4.3737e-07
-7.54219e-07
7.90237e-07
2.83849e-08
7.40189e-07
8.53898e-07
-2.44244e-07
-1.36382e-07
7.32488e-07
-9.32724e-08
3.64922e-07
-1.80585e-06
-4.63821e-07
-7.54997e-07
7.888e-07
2.77602e-08
7.39269e-07
8.51665e-07
-2.46265e-07
7.29831e-07
-1.38042e-07
1.76552e-07
1.75361e-07
-1.27892e-07
9.2353e-08
8.85526e-08
-1.70597e-08
-1.27975e-07
-1.28706e-07
3.86057e-08
3.36372e-07
2.80568e-07
2.62797e-07
-2.82682e-07
-1.88466e-07
-4.08711e-07
1.77598e-07
-5.16663e-07
2.41068e-07
-1.8066e-06
-4.33906e-07
-7.54917e-07
7.89964e-07
2.92207e-08
7.40305e-07
8.52901e-07
-2.44799e-07
-1.36638e-07
7.31226e-07
-9.15344e-08
3.26216e-07
-1.8095e-06
-4.35191e-07
-7.59451e-07
7.90795e-07
2.94565e-08
7.40442e-07
8.54354e-07
-2.43376e-07
7.33343e-07
-1.35552e-07
-1.93544e-08
-1.28113e-07
-1.27837e-07
-2.09948e-08
-2.41815e-08
1.38141e-07
1.39206e-07
-1.44136e-07
-3.68655e-07
-3.6959e-07
4.11193e-06