/*--------------------------------*- C++ -*----------------------------------*\
| =========                 |                                                 |
| \\      /  F ield         | OpenFOAM: The Open Source CFD Toolbox           |
|  \\    /   O peration     | Version:  2206                                  |
|   \\  /    A nd           | Website:  www.openfoam.com                      |
|    \\/     M anipulation  |                                                 |
\*---------------------------------------------------------------------------*/
FoamFile
{
    version     2.0;
    format      ascii;
    arch        "LSB;label=32;scalar=64";
    class       volVectorField;
    location    "5";
    object      U;
}
// * * * * * * * * * * * * * * * * * * * * * * * * * * * * * * * * * * * * * //

dimensions      [0 1 -1 0 0 0 0];

internalField   nonuniform List<vector> 
28755
(
(-0.000123437 -0.000123629 7.04211e-05)
(-0.000110101 5.5867e-05 1.51165e-05)
(5.54157e-05 -0.000109656 1.54124e-05)
(0.00016022 0.0001608 -6.82181e-05)
(-0.000123323 -0.000124244 7.24679e-05)
(-0.000109801 5.58699e-05 1.62342e-05)
(5.58324e-05 -0.000109416 1.62271e-05)
(0.000161437 0.000161893 -6.91513e-05)
(-0.000123906 -0.00012393 7.37934e-05)
(-0.000108573 5.48938e-05 1.69998e-05)
(5.55933e-05 -0.000109439 1.70583e-05)
(0.000161955 0.000162454 -6.93651e-05)
(-0.000123974 -0.00012368 7.3179e-05)
(-0.000108593 5.50874e-05 1.68861e-05)
(5.4192e-05 -0.000108065 1.70745e-05)
(0.000162259 0.000162517 -6.87562e-05)
(-0.000123333 -0.000123907 7.15175e-05)
(-0.000108328 5.43962e-05 1.59403e-05)
(5.47582e-05 -0.000108367 1.61084e-05)
(0.000161887 0.000162145 -6.76448e-05)
(-0.000123604 -0.000123822 7.06932e-05)
(-0.000108379 5.48476e-05 1.53515e-05)
(5.4867e-05 -0.000108944 1.53812e-05)
(0.000160847 0.000161429 -6.75214e-05)
(-0.000123405 -0.000124147 7.15572e-05)
(-0.000109389 5.55407e-05 1.58209e-05)
(5.62407e-05 -0.000110199 1.58659e-05)
(0.00016092 0.000161423 -6.89825e-05)
(-0.000123795 -0.000124007 7.21674e-05)
(-0.00010908 5.51129e-05 1.62585e-05)
(5.48195e-05 -0.000108646 1.64335e-05)
(0.0001625 0.000162898 -6.90088e-05)
(-0.00012448 -0.000124545 6.90711e-05)
(-0.000108255 5.55587e-05 1.50902e-05)
(5.52147e-05 -0.000107972 1.5202e-05)
(0.00016545 0.000165772 -7.08416e-05)
(-0.000123403 -0.000123537 2.40281e-05)
(-0.000127671 7.83782e-05 -7.89737e-06)
(7.85641e-05 -0.000128327 -7.98175e-06)
(0.000172967 0.000173485 -8.08949e-05)
(-2.06746e-05 -2.01184e-05 -0.000354392)
(-0.000364777 0.000290396 -9.10726e-05)
(0.000287807 -0.000364858 -9.19213e-05)
(0.000158905 0.000158171 -4.98528e-05)
(0.00292993 0.00292987 -0.00449046)
(-0.00140271 0.00126268 0.00317072)
(0.00126329 -0.00140315 0.00317066)
(-0.0016374 -0.00163766 0.00245796)
(9.64387e-05 9.62893e-05 -6.75091e-05)
(5.50574e-05 0.000109368 1.75467e-05)
(-5.49017e-05 0.00010889 1.75081e-05)
(-9.62085e-05 9.65713e-05 -6.69266e-05)
(0.000109102 5.50953e-05 1.55746e-05)
(0.000108745 -5.4756e-05 1.76773e-05)
(-0.000109405 5.53069e-05 1.52115e-05)
(-0.000109566 -5.56758e-05 1.72657e-05)
(9.66073e-05 -9.6278e-05 -6.67951e-05)
(5.52043e-05 -0.000109446 1.53987e-05)
(-5.59588e-05 -0.000110242 1.52399e-05)
(-9.68135e-05 -9.69086e-05 -6.64863e-05)
(-0.000161642 -0.000160993 -6.87396e-05)
(9.74001e-05 9.7405e-05 -6.85041e-05)
(5.52331e-05 0.000109594 1.71501e-05)
(-5.54444e-05 0.000109458 1.73868e-05)
(5.55139e-05 0.000109209 1.81506e-05)
(-5.57411e-05 0.000109713 1.83527e-05)
(0.000160983 -0.000160647 -6.86626e-05)
(-9.73606e-05 9.77039e-05 -6.89896e-05)
(0.000109509 5.54181e-05 1.51496e-05)
(0.000109085 -5.50526e-05 1.76653e-05)
(0.000110108 5.59001e-05 1.60296e-05)
(0.000110135 -5.58059e-05 1.81972e-05)
(-0.000110181 -5.60494e-05 1.72412e-05)
(-0.000110134 5.61258e-05 1.60505e-05)
(-0.000109945 -5.58346e-05 1.8163e-05)
(-0.000160897 0.000161288 -6.81498e-05)
(9.7262e-05 -9.74081e-05 -6.81254e-05)
(-5.62016e-05 -0.0001104 1.53705e-05)
(5.57422e-05 -0.000109535 1.60041e-05)
(-5.57837e-05 -0.000109581 1.62488e-05)
(-9.73176e-05 -9.75287e-05 -6.8409e-05)
(-0.000161915 -0.000161099 -6.93495e-05)
(9.77496e-05 9.72582e-05 -6.9444e-05)
(5.54844e-05 0.000109169 1.83456e-05)
(-5.55644e-05 0.0001097 1.85315e-05)
(5.55439e-05 0.000109251 1.91088e-05)
(-5.52136e-05 0.000109106 1.92365e-05)
(0.000161796 -0.000161384 -6.97969e-05)
(-9.73014e-05 9.71932e-05 -6.97082e-05)
(0.000110018 5.58028e-05 1.62604e-05)
(0.000110793 -5.59607e-05 1.83012e-05)
(0.000109516 5.53301e-05 1.70938e-05)
(0.000110171 -5.59009e-05 1.91953e-05)
(-0.000109901 -5.5723e-05 1.83081e-05)
(-0.000108919 5.51469e-05 1.69092e-05)
(-0.000109477 -5.56486e-05 1.89976e-05)
(-0.000161353 0.000161418 -6.93677e-05)
(9.81733e-05 -9.80531e-05 -6.993e-05)
(-5.56709e-05 -0.000109548 1.63421e-05)
(5.60366e-05 -0.000109811 1.69224e-05)
(-5.57181e-05 -0.000110025 1.70216e-05)
(-9.75293e-05 -9.76272e-05 -6.91404e-05)
(-0.000162503 -0.000162177 -6.95992e-05)
(9.72421e-05 9.67764e-05 -6.92665e-05)
(5.55042e-05 0.0001095 1.89231e-05)
(-5.51049e-05 0.000109358 1.92968e-05)
(5.50345e-05 0.000109319 1.8931e-05)
(-5.52775e-05 0.000109407 1.91853e-05)
(0.000162413 -0.000162481 -6.96795e-05)
(-9.72557e-05 9.72312e-05 -6.95451e-05)
(0.000109033 5.51313e-05 1.70002e-05)
(0.00010963 -5.54294e-05 1.93447e-05)
(0.000108127 5.46901e-05 1.70012e-05)
(0.000108054 -5.43058e-05 1.94751e-05)
(-0.000109339 -5.54758e-05 1.91672e-05)
(-0.000108717 5.51613e-05 1.69873e-05)
(-0.000109088 -5.5163e-05 1.91662e-05)
(-0.000162228 0.00016244 -6.99329e-05)
(9.66971e-05 -9.67437e-05 -6.93616e-05)
(-5.55066e-05 -0.000109874 1.72477e-05)
(5.4353e-05 -0.000108232 1.72387e-05)
(-5.49938e-05 -0.000108798 1.72661e-05)
(-9.70657e-05 -9.74712e-05 -6.94083e-05)
(-0.000162349 -0.000162048 -6.8836e-05)
(9.64187e-05 9.62642e-05 -6.8001e-05)
(5.48928e-05 0.000109209 1.89408e-05)
(-5.51076e-05 0.000109062 1.91154e-05)
(5.45385e-05 0.000108272 1.85102e-05)
(-5.40604e-05 0.000108006 1.87707e-05)
(0.000162029 -0.000162159 -6.93599e-05)
(-9.6043e-05 9.61932e-05 -6.84752e-05)
(0.000108289 5.47148e-05 1.69744e-05)
(0.0001082 -5.42898e-05 1.93345e-05)
(0.000108815 5.46752e-05 1.64294e-05)
(0.000109402 -5.4834e-05 1.86435e-05)
(-0.000108843 -5.4839e-05 1.90197e-05)
(-0.000108209 5.42632e-05 1.63826e-05)
(-0.00010825 -5.41593e-05 1.85e-05)
(-0.000162464 0.000162407 -6.83522e-05)
(9.6126e-05 -9.63981e-05 -6.76855e-05)
(-5.45741e-05 -0.000108289 1.70871e-05)
(5.45184e-05 -0.000108218 1.64424e-05)
(-5.38401e-05 -0.00010754 1.66216e-05)
(-9.56874e-05 -9.60972e-05 -6.77572e-05)
(-0.00016203 -0.000161422 -6.83069e-05)
(9.67051e-05 9.64059e-05 -6.77291e-05)
(5.45997e-05 0.000108318 1.81134e-05)
(-5.42282e-05 0.000108183 1.83005e-05)
(5.49844e-05 0.00010935 1.74622e-05)
(-5.48095e-05 0.000109136 1.76747e-05)
(0.000162076 -0.000162018 -6.85349e-05)
(-9.64272e-05 9.64106e-05 -6.78573e-05)
(0.000108853 5.46946e-05 1.60516e-05)
(0.000109445 -5.49102e-05 1.8285e-05)
(0.000108786 5.49288e-05 1.55293e-05)
(0.000108596 -5.44195e-05 1.79418e-05)
(-0.000108327 -5.41408e-05 1.8216e-05)
(-0.000108348 5.47946e-05 1.54934e-05)
(-0.000108553 -5.45367e-05 1.75988e-05)
(-0.000161605 0.000161345 -6.82214e-05)
(9.62792e-05 -9.60684e-05 -6.72e-05)
(-5.39193e-05 -0.000107522 1.63967e-05)
(5.46462e-05 -0.00010862 1.56889e-05)
(-5.46871e-05 -0.000108701 1.56643e-05)
(-9.60197e-05 -9.60797e-05 -6.62847e-05)
(-0.000161706 -0.000161125 -6.86774e-05)
(9.69753e-05 9.69026e-05 -6.80951e-05)
(5.50438e-05 0.000109352 1.74002e-05)
(-5.48004e-05 0.000109288 1.7565e-05)
(5.51527e-05 0.000108947 1.77787e-05)
(-5.49484e-05 0.000108876 1.78943e-05)
(0.000161604 -0.000161543 -6.88324e-05)
(-9.67103e-05 9.7113e-05 -6.81803e-05)
(0.00010884 5.50581e-05 1.54204e-05)
(0.000108893 -5.46333e-05 1.76472e-05)
(0.000109569 5.53947e-05 1.57153e-05)
(0.000110331 -5.60804e-05 1.76629e-05)
(-0.00010899 -5.49021e-05 1.74952e-05)
(-0.000109297 5.53338e-05 1.55769e-05)
(-0.000110322 -5.61589e-05 1.75122e-05)
(-0.000161281 0.00016148 -6.80243e-05)
(9.76059e-05 -9.74373e-05 -6.79596e-05)
(-5.50596e-05 -0.000109265 1.5511e-05)
(5.62327e-05 -0.000110429 1.53951e-05)
(-5.6155e-05 -0.000110338 1.55802e-05)
(-9.74679e-05 -9.76507e-05 -6.75985e-05)
(-0.000162058 -0.000161305 -6.90761e-05)
(9.72056e-05 9.69567e-05 -6.82637e-05)
(5.52327e-05 0.000109251 1.7803e-05)
(-5.51109e-05 0.000109091 1.80503e-05)
(5.50171e-05 0.000108994 1.85133e-05)
(-5.50932e-05 0.000108821 1.87212e-05)
(0.000161772 -0.000161346 -6.91761e-05)
(-9.70905e-05 9.73682e-05 -6.88281e-05)
(0.000109646 5.54168e-05 1.58285e-05)
(0.000110416 -5.60786e-05 1.79593e-05)
(0.000108936 5.50221e-05 1.65307e-05)
(0.000108891 -5.48278e-05 1.8873e-05)
(-0.000110255 -5.60511e-05 1.78897e-05)
(-0.000109288 5.53678e-05 1.63773e-05)
(-0.000109337 -5.52477e-05 1.85808e-05)
(-0.000160985 0.000161248 -6.94874e-05)
(9.71739e-05 -9.70927e-05 -6.88039e-05)
(-5.59982e-05 -0.000110217 1.59662e-05)
(5.49342e-05 -0.000108741 1.66432e-05)
(-5.51522e-05 -0.000108812 1.67229e-05)
(-9.72468e-05 -9.74954e-05 -6.86877e-05)
(-0.000162552 -0.000161983 -6.89598e-05)
(9.87039e-05 9.84494e-05 -6.55003e-05)
(5.51037e-05 0.000109099 1.83307e-05)
(-5.48851e-05 0.000108709 1.86074e-05)
(5.51944e-05 0.000108761 1.87777e-05)
(-5.50308e-05 0.000108438 1.89699e-05)
(0.000162518 -0.000162291 -6.94831e-05)
(-9.85437e-05 9.85415e-05 -6.57498e-05)
(0.00010894 5.50938e-05 1.63161e-05)
(0.000108923 -5.47204e-05 1.86623e-05)
(0.000108736 5.52052e-05 1.6744e-05)
(0.000108669 -5.50687e-05 1.89534e-05)
(-0.000108945 -5.4954e-05 1.85388e-05)
(-0.000108149 5.50364e-05 1.67795e-05)
(-0.000108151 -5.47939e-05 1.88099e-05)
(-0.000162553 0.000162667 -6.90657e-05)
(9.85617e-05 -9.86721e-05 -6.57964e-05)
(-5.4859e-05 -0.00010848 1.66043e-05)
(5.49617e-05 -0.000108156 1.67768e-05)
(-5.46522e-05 -0.000107873 1.68479e-05)
(-9.83927e-05 -9.8698e-05 -6.55845e-05)
(-0.000165568 -0.000165061 -7.1182e-05)
(0.000103995 0.000103547 -3.91479e-05)
(5.55876e-05 0.000108539 1.7287e-05)
(-5.55163e-05 0.000108414 1.74418e-05)
(4.54e-05 9.23007e-05 3.51502e-05)
(-4.4994e-05 9.18389e-05 3.52915e-05)
(0.000165347 -0.000165342 -7.14118e-05)
(-0.000103657 0.000103422 -3.95214e-05)
(0.000108504 5.55662e-05 1.5199e-05)
(0.000108318 -5.52742e-05 1.75286e-05)
(9.17282e-05 4.51469e-05 3.30921e-05)
(9.19094e-05 -4.48524e-05 3.53278e-05)
(-0.000108083 -5.52161e-05 1.73188e-05)
(-9.15786e-05 4.50631e-05 3.31306e-05)
(-9.1624e-05 -4.47976e-05 3.52912e-05)
(-0.000165491 0.000165456 -7.1162e-05)
(0.000103342 -0.000103475 -3.84122e-05)
(-5.50514e-05 -0.000107707 1.52899e-05)
(4.48663e-05 -9.16508e-05 3.32106e-05)
(-4.45747e-05 -9.11358e-05 3.31073e-05)
(-0.000103052 -0.000103454 -3.82945e-05)
(-0.000173149 -0.00017263 -8.12578e-05)
(9.89122e-05 9.84114e-05 0.000131062)
(7.88904e-05 0.00012856 -5.64244e-06)
(-7.82945e-05 0.000128235 -5.55295e-06)
(-7.323e-05 -9.13567e-05 0.000142681)
(7.39189e-05 -9.19286e-05 0.000142834)
(0.000173329 -0.000173367 -8.16549e-05)
(-9.83363e-05 9.84031e-05 0.000131691)
(0.000128257 7.87769e-05 -8.01989e-06)
(0.000128568 -7.84845e-05 -5.64111e-06)
(-9.14015e-05 -7.39319e-05 0.00014016)
(-9.05476e-05 7.36816e-05 0.000142431)
(-0.000128071 -7.83268e-05 -5.47886e-06)
(9.225e-05 -7.38053e-05 0.000140515)
(9.13521e-05 7.36686e-05 0.000143164)
(-0.00017283 0.000172836 -8.0721e-05)
(9.82448e-05 -9.84323e-05 0.000131397)
(-7.82928e-05 -0.00012803 -7.98187e-06)
(-7.41027e-05 9.12851e-05 0.000139968)
(7.45794e-05 9.18034e-05 0.000139877)
(-9.79672e-05 -9.86962e-05 0.000132252)
(-0.000157874 -0.000158222 -5.07368e-05)
(0.000663163 0.000662788 0.000826649)
(0.000290943 0.000365279 -8.87223e-05)
(-0.000290057 0.00036479 -8.87819e-05)
(-0.0017161 -0.00206188 -0.00116013)
(0.00171644 -0.0020617 -0.00115995)
(0.000158304 -0.000157988 -5.0173e-05)
(-0.000662314 0.000663643 0.000826719)
(0.000364391 0.000287924 -9.12899e-05)
(0.000366252 -0.000290403 -8.91892e-05)
(-0.00206246 -0.00171669 -0.00116065)
(-0.00206117 0.00171626 -0.00116001)
(-0.000365995 -0.000290839 -8.84105e-05)
(0.00206357 -0.0017158 -0.00116033)
(0.00206311 0.00171718 -0.00115865)
(-0.000158795 0.000158197 -5.06155e-05)
(0.000663453 -0.000662431 0.000826369)
(-0.000287159 -0.00036448 -9.17492e-05)
(-0.00171581 0.00206332 -0.00116038)
(0.00171794 0.00206428 -0.00115876)
(-0.00066122 -0.00066186 0.000827675)
(0.00163891 0.00163878 0.00245659)
(0.00126196 0.00140342 0.00317066)
(-0.00126171 0.00140362 0.0031705)
(-0.00163859 0.00163937 0.00245604)
(0.0014033 0.00126171 0.00317102)
(0.00140422 -0.00126228 0.00317036)
(-0.0029289 0.00293058 -0.00449032)
(0.00293113 -0.00292909 -0.00449093)
(-0.00292821 -0.00292812 -0.00449039)
(-0.00140186 -0.00126063 0.00317151)
(0.00163978 -0.00163922 0.0024559)
(-0.00126034 -0.00140143 0.00317211)
(-5.75397e-05 4.75171e-05 6.78746e-06)
(-0.000123531 -0.000123717 7.04262e-05)
(0.00012325 -0.000123756 7.01219e-05)
(-0.000124047 0.00012346 7.02081e-05)
(0.000123551 0.000123133 6.98689e-05)
(5.20934e-05 1.56126e-05 -1.46488e-05)
(-0.000107897 5.40473e-05 1.56926e-05)
(2.9185e-05 2.91364e-05 2.06442e-07)
(-6.15921e-05 -2.32095e-05 3.51285e-05)
(-9.62399e-05 -9.61495e-05 -6.62219e-05)
(7.21603e-05 -2.57523e-05 6.53626e-06)
(-2.60211e-05 7.24311e-05 6.76284e-06)
(2.35919e-06 5.38614e-05 3.61581e-07)
(-8.27253e-05 -0.000454306 8.61351e-06)
(-3.46458e-06 -0.000127197 2.32226e-07)
(-4.95503e-05 0.000418542 1.04351e-05)
(0.000145476 -4.41624e-05 7.14818e-06)
(-5.77337e-05 4.75774e-05 8.9303e-06)
(5.3686e-05 2.36e-06 1.00939e-06)
(-0.000454249 -8.29566e-05 8.18241e-06)
(-0.000127007 -3.45631e-06 3.46564e-07)
(0.00041845 -4.97603e-05 1.01002e-05)
(0.000123155 -0.000123817 7.04453e-05)
(-0.000123979 0.000123443 7.04059e-05)
(0.000123512 0.000123323 7.02618e-05)
(-0.000123374 -0.000124177 7.20196e-05)
(0.000123466 -0.000123872 7.24566e-05)
(-0.000123592 0.000123905 7.17476e-05)
(0.000123817 0.000123734 7.21072e-05)
(5.23913e-05 1.52244e-05 -1.53499e-05)
(-0.000104564 -6.14082e-05 -4.2511e-07)
(-6.3852e-05 -2.29325e-05 3.49701e-05)
(-0.000110482 5.62104e-05 1.54497e-05)
(-4.11741e-05 -2.15036e-05 -1.5262e-05)
(2.91046e-05 2.9061e-05 -1.33753e-07)
(-6.44018e-05 -2.28987e-05 3.53987e-05)
(-4.38239e-05 0.000145723 6.69349e-06)
(4.7693e-05 -5.73627e-05 7.65663e-06)
(1.53347e-05 5.25658e-05 -1.57416e-05)
(-2.29027e-05 -6.36212e-05 3.50429e-05)
(-6.09592e-05 -0.000104478 -9.65792e-07)
(5.5684e-05 -0.000109869 1.55058e-05)
(-2.12464e-05 -4.10351e-05 -1.58538e-05)
(-2.28935e-05 -6.39617e-05 3.52001e-05)
(2.89174e-05 2.90959e-05 -4.60765e-07)
(-0.000263699 -1.69493e-05 5.77125e-06)
(-1.71581e-05 -0.000264121 5.79046e-06)
(-9.71952e-05 -9.74073e-05 -6.75637e-05)
(7.26637e-05 -2.57265e-05 6.37386e-06)
(-2.5756e-05 7.27399e-05 6.39952e-06)
(2.12082e-06 5.31203e-05 -9.6072e-07)
(-8.33348e-05 -0.000454348 9.71667e-06)
(-2.96607e-06 -0.000126346 -1.56701e-06)
(-4.96934e-05 0.000418685 1.0638e-05)
(0.000145826 -4.4374e-05 9.63961e-06)
(-5.70218e-05 4.84203e-05 1.00411e-05)
(5.27189e-05 2.37454e-06 -8.96534e-07)
(-0.000454425 -8.39498e-05 9.33217e-06)
(-0.000127174 -2.79831e-06 -1.67344e-06)
(0.000418822 -5.03076e-05 1.15245e-05)
(0.000123629 -0.000123921 7.29456e-05)
(-0.000123502 0.000123995 7.22163e-05)
(0.000123888 0.000123679 7.23992e-05)
(-0.000123671 -0.000124139 7.36729e-05)
(0.000124011 -0.000123903 7.38028e-05)
(-0.000123831 0.000123847 7.38718e-05)
(0.000124168 0.000123491 7.34916e-05)
(5.29079e-05 1.52687e-05 -1.88124e-05)
(-0.000105227 -6.04255e-05 -2.83544e-06)
(-6.37169e-05 -2.29273e-05 3.64926e-05)
(-0.0001095 5.55781e-05 1.65906e-05)
(-4.18383e-05 -2.1421e-05 -1.88713e-05)
(2.96229e-05 2.82248e-05 -2.29656e-06)
(-6.36015e-05 -2.30404e-05 3.68138e-05)
(-4.41066e-05 0.000145953 8.79582e-06)
(4.87142e-05 -5.65195e-05 1.06427e-05)
(1.49878e-05 5.29517e-05 -1.77481e-05)
(-2.26759e-05 -6.33368e-05 3.62257e-05)
(-6.08242e-05 -0.000105339 -2.47388e-06)
(5.59399e-05 -0.000109503 1.64655e-05)
(-2.15322e-05 -4.17953e-05 -1.80367e-05)
(-2.26481e-05 -6.36422e-05 3.65552e-05)
(2.81778e-05 2.94317e-05 -1.85007e-06)
(-0.000264463 -1.73216e-05 4.95895e-06)
(-1.72819e-05 -0.000264804 5.08517e-06)
(-9.75897e-05 -9.76877e-05 -6.87187e-05)
(7.26402e-05 -2.55513e-05 5.28792e-06)
(-2.59178e-05 7.28793e-05 5.40671e-06)
(2.19819e-06 5.26365e-05 -1.43311e-06)
(-8.37243e-05 -0.000454576 9.97304e-06)
(-3.13708e-06 -0.000126333 -2.17303e-06)
(-5.02039e-05 0.000418898 1.15231e-05)
(0.000145875 -4.42234e-05 9.80107e-06)
(-5.66166e-05 4.87308e-05 1.0691e-05)
(5.36572e-05 2.14592e-06 -3.033e-06)
(-0.000454896 -8.33375e-05 1.08431e-05)
(-0.000125789 -2.70862e-06 -3.17381e-06)
(0.000418949 -4.89935e-05 1.10702e-05)
(0.00012412 -0.000123726 7.38473e-05)
(-0.000123942 0.000123897 7.41584e-05)
(0.000124056 0.000123507 7.37314e-05)
(-0.000124118 -0.000123607 7.33715e-05)
(0.000123948 -0.000123537 7.37854e-05)
(-0.000124007 0.00012405 7.3595e-05)
(0.000123734 0.000123855 7.3667e-05)
(5.27961e-05 1.5266e-05 -1.93591e-05)
(-0.000105587 -6.03404e-05 -3.12835e-06)
(-6.24284e-05 -2.32056e-05 3.73737e-05)
(-0.000108427 5.4892e-05 1.69901e-05)
(-4.1984e-05 -2.11974e-05 -1.95044e-05)
(2.95407e-05 2.79955e-05 -2.74933e-06)
(-6.23316e-05 -2.31342e-05 3.73572e-05)
(-4.48438e-05 0.000145242 1.12879e-05)
(4.87921e-05 -5.66949e-05 1.08057e-05)
(1.5293e-05 5.28026e-05 -2.02162e-05)
(-2.28883e-05 -6.33123e-05 3.74099e-05)
(-6.03446e-05 -0.000105586 -3.98087e-06)
(5.51085e-05 -0.000108984 1.72201e-05)
(-2.15343e-05 -4.17748e-05 -2.01192e-05)
(-2.30458e-05 -6.29235e-05 3.74884e-05)
(2.79827e-05 2.96541e-05 -3.72968e-06)
(-0.000264548 -1.71446e-05 4.44801e-06)
(-1.74009e-05 -0.000264633 4.41611e-06)
(-9.7527e-05 -9.7783e-05 -6.95004e-05)
(7.31158e-05 -2.5592e-05 4.82976e-06)
(-2.57514e-05 7.33027e-05 4.86778e-06)
(1.94188e-06 5.33403e-05 -1.83064e-06)
(-8.36367e-05 -0.000454367 1.02073e-05)
(-2.90281e-06 -0.000126434 -2.31485e-06)
(-5.00048e-05 0.00041869 1.0486e-05)
(0.000145775 -4.43099e-05 1.0266e-05)
(-5.67314e-05 4.854e-05 9.80522e-06)
(5.31182e-05 2.47243e-06 -4.89472e-07)
(-0.00045422 -8.34739e-05 9.68168e-06)
(-0.000126001 -3.15811e-06 -1.32134e-06)
(0.000418333 -4.95762e-05 9.81409e-06)
(0.000123939 -0.000123657 7.36734e-05)
(-0.000123776 0.000124058 7.30497e-05)
(0.000123759 0.000123996 7.33747e-05)
(-0.000123384 -0.000124036 7.20331e-05)
(0.000123843 -0.000123728 7.23752e-05)
(-0.000123218 0.000124049 7.18371e-05)
(0.000123863 0.000123941 7.19399e-05)
(5.31631e-05 1.473e-05 -1.84589e-05)
(-0.000105751 -6.06226e-05 -2.81079e-06)
(-6.23537e-05 -2.298e-05 3.72008e-05)
(-0.000108347 5.46646e-05 1.69088e-05)
(-4.16826e-05 -2.15306e-05 -1.86648e-05)
(2.96645e-05 2.8113e-05 -2.22205e-06)
(-6.22241e-05 -2.30276e-05 3.69691e-05)
(-4.38565e-05 0.000145993 8.50229e-06)
(4.81367e-05 -5.69102e-05 7.80173e-06)
(1.45482e-05 5.29778e-05 -1.85194e-05)
(-2.30352e-05 -6.16723e-05 3.69957e-05)
(-6.01863e-05 -0.000105665 -2.69672e-06)
(5.41589e-05 -0.000108063 1.68465e-05)
(-2.12645e-05 -4.15543e-05 -1.86611e-05)
(-2.29289e-05 -6.16391e-05 3.65854e-05)
(2.7709e-05 2.94579e-05 -2.21325e-06)
(-0.000264853 -1.75122e-05 4.49672e-06)
(-1.75127e-05 -0.000265105 4.57975e-06)
(-9.62314e-05 -9.66688e-05 -6.88135e-05)
(7.25341e-05 -2.59297e-05 5.0137e-06)
(-2.58921e-05 7.28597e-05 4.96974e-06)
(2.22675e-06 5.37979e-05 8.91618e-07)
(-8.26103e-05 -0.0004539 8.53317e-06)
(-3.35482e-06 -0.00012615 -5.6182e-07)
(-4.95493e-05 0.000418071 9.62359e-06)
(0.000145682 -4.39804e-05 7.71173e-06)
(-5.73927e-05 4.77512e-05 7.74438e-06)
(5.40454e-05 2.50612e-06 1.58115e-07)
(-0.000454187 -8.31634e-05 8.46026e-06)
(-0.000126737 -3.08113e-06 -1.00157e-06)
(0.000418284 -4.92349e-05 9.95162e-06)
(0.000123822 -0.000123553 7.17793e-05)
(-0.000123178 0.00012402 7.14971e-05)
(0.000123801 0.000123846 7.14148e-05)
(-0.000123657 -0.000123724 7.06943e-05)
(0.000123931 -0.000123498 7.08474e-05)
(-0.000123761 0.0001238 7.04773e-05)
(0.000123876 0.00012345 7.0067e-05)
(5.26429e-05 1.50844e-05 -1.62013e-05)
(-0.000105102 -6.10852e-05 -1.53794e-06)
(-6.19144e-05 -2.30113e-05 3.5825e-05)
(-0.000108174 5.44065e-05 1.58676e-05)
(-4.17986e-05 -2.18736e-05 -1.68537e-05)
(2.9232e-05 2.84918e-05 -6.17724e-07)
(-6.17304e-05 -2.29607e-05 3.55923e-05)
(-4.4107e-05 0.000145454 7.30829e-06)
(4.78801e-05 -5.72453e-05 8.55974e-06)
(1.47541e-05 5.24884e-05 -1.50876e-05)
(-2.27312e-05 -6.15725e-05 3.59548e-05)
(-6.16989e-05 -0.00010531 -1.43786e-06)
(5.46338e-05 -0.000108204 1.60556e-05)
(-2.23182e-05 -4.15714e-05 -1.58743e-05)
(-2.27258e-05 -6.1615e-05 3.57499e-05)
(2.84956e-05 2.89909e-05 -4.7919e-07)
(-0.000264067 -1.76887e-05 5.27288e-06)
(-1.74434e-05 -0.000264628 5.32711e-06)
(-9.57467e-05 -9.59132e-05 -6.69291e-05)
(7.22566e-05 -2.58208e-05 6.19207e-06)
(-2.61429e-05 7.25917e-05 6.32862e-06)
(2.22299e-06 5.39278e-05 4.72091e-07)
(-8.31332e-05 -0.000454445 8.61504e-06)
(-3.38139e-06 -0.00012729 -5.22664e-07)
(-4.99721e-05 0.000418604 1.06012e-05)
(0.00014595 -4.39889e-05 8.22505e-06)
(-5.71472e-05 4.80869e-05 9.42399e-06)
(5.3947e-05 2.57339e-06 1.19632e-06)
(-0.000454249 -8.32655e-05 8.43764e-06)
(-0.000127149 -3.26322e-06 -1.72727e-07)
(0.000418462 -4.99736e-05 1.00376e-05)
(0.000123817 -0.000123675 7.0808e-05)
(-0.000123793 0.000123598 7.015e-05)
(0.000123824 0.000123313 6.98874e-05)
(-0.00012346 -0.000124293 7.12121e-05)
(0.000123549 -0.000124124 7.14067e-05)
(-0.000123836 0.000123454 7.09917e-05)
(0.000123881 0.000123294 7.0937e-05)
(5.22697e-05 1.59171e-05 -1.46871e-05)
(-0.000104653 -6.14805e-05 -8.33369e-07)
(-6.23817e-05 -2.30252e-05 3.51684e-05)
(-0.000108884 5.5099e-05 1.52165e-05)
(-4.09681e-05 -2.15831e-05 -1.52345e-05)
(2.92172e-05 2.93675e-05 1.04153e-07)
(-6.29255e-05 -2.30986e-05 3.50815e-05)
(-4.36705e-05 0.000146004 7.01133e-06)
(4.78247e-05 -5.71136e-05 7.30699e-06)
(1.53972e-05 5.21196e-05 -1.41056e-05)
(-2.27546e-05 -6.30042e-05 3.49377e-05)
(-6.15519e-05 -0.000104596 -7.03921e-07)
(5.5427e-05 -0.000109574 1.52804e-05)
(-2.17967e-05 -4.05827e-05 -1.47974e-05)
(-2.27503e-05 -6.35968e-05 3.48618e-05)
(2.91872e-05 2.89643e-05 3.87292e-07)
(-0.000264032 -1.72529e-05 5.74945e-06)
(-1.73481e-05 -0.000264205 5.77771e-06)
(-9.67293e-05 -9.68146e-05 -6.64644e-05)
(7.24546e-05 -2.54283e-05 7.0244e-06)
(-2.60155e-05 7.26092e-05 7.13929e-06)
(2.3303e-06 5.39701e-05 -1.8065e-08)
(-8.30733e-05 -0.000454663 9.41314e-06)
(-3.40921e-06 -0.00012684 -6.07654e-07)
(-4.97466e-05 0.000418921 1.07533e-05)
(0.000145901 -4.41136e-05 8.90168e-06)
(-5.70723e-05 4.81735e-05 9.58348e-06)
(5.3465e-05 2.50734e-06 -4.90909e-07)
(-0.000454589 -8.35957e-05 9.32198e-06)
(-0.000127112 -2.76706e-06 -1.14227e-06)
(0.000419055 -4.98333e-05 1.1014e-05)
(0.000123551 -0.00012406 7.17339e-05)
(-0.000123853 0.000123639 7.17424e-05)
(0.000123898 0.000123457 7.15415e-05)
(-0.000123758 -0.000124042 7.23197e-05)
(0.000123736 -0.000124147 7.26898e-05)
(-0.000124095 0.000124053 7.26775e-05)
(0.000124035 0.000124031 7.27186e-05)
(5.30239e-05 1.55726e-05 -1.6973e-05)
(-0.0001048 -6.06405e-05 -1.66604e-06)
(-6.3643e-05 -2.3044e-05 3.57982e-05)
(-0.000109425 5.56163e-05 1.59314e-05)
(-4.16538e-05 -2.08233e-05 -1.72925e-05)
(2.93537e-05 2.90247e-05 -9.81039e-07)
(-6.37398e-05 -2.30263e-05 3.60389e-05)
(-4.42466e-05 0.000145822 8.91442e-06)
(4.85626e-05 -5.6688e-05 1.04274e-05)
(1.50827e-05 5.29674e-05 -1.77699e-05)
(-2.26798e-05 -6.4101e-05 3.58065e-05)
(-6.08592e-05 -0.000105086 -2.39711e-06)
(5.58911e-05 -0.000109765 1.60409e-05)
(-2.16006e-05 -4.1738e-05 -1.79753e-05)
(-2.28118e-05 -6.38407e-05 3.61265e-05)
(2.85814e-05 2.93158e-05 -1.86089e-06)
(-0.000263992 -1.6901e-05 5.23772e-06)
(-1.72679e-05 -0.000264318 5.24689e-06)
(-9.76239e-05 -9.78574e-05 -6.85928e-05)
(7.26549e-05 -2.57705e-05 5.96827e-06)
(-2.59176e-05 7.29167e-05 5.92999e-06)
(2.18285e-06 5.43959e-05 9.2459e-07)
(-8.32936e-05 -0.00045478 9.19168e-06)
(-3.22374e-06 -0.00012717 -1.68078e-06)
(-4.97284e-05 0.000419312 1.22657e-05)
(0.000146048 -4.41368e-05 9.13887e-06)
(-5.66939e-05 4.85356e-05 1.09614e-05)
(5.45607e-05 2.34527e-06 7.49745e-07)
(-0.000454769 -8.32959e-05 9.13787e-06)
(-0.000126657 -2.97857e-06 -1.79467e-06)
(0.000419155 -4.93203e-05 1.2007e-05)
(0.000123873 -0.000124067 7.26029e-05)
(-0.000123965 0.000124053 7.23059e-05)
(0.000124027 0.000124 7.24518e-05)
(-0.000124276 -0.00012444 7.13488e-05)
(0.000124503 -0.000124256 7.15801e-05)
(-0.000124332 0.000124709 7.14914e-05)
(0.000124546 0.000124537 7.14117e-05)
(5.2774e-05 1.4981e-05 -1.73024e-05)
(-0.000105127 -6.05814e-05 -2.6669e-06)
(-6.29944e-05 -2.29553e-05 3.63929e-05)
(-0.000108716 5.49103e-05 1.65684e-05)
(-4.1802e-05 -2.13272e-05 -1.87661e-05)
(2.91574e-05 2.87662e-05 -7.84289e-07)
(-6.26033e-05 -2.29865e-05 3.6494e-05)
(-4.4154e-05 0.000145819 8.66918e-06)
(4.8449e-05 -5.67203e-05 1.04592e-05)
(1.47015e-05 5.29343e-05 -1.70697e-05)
(-2.28575e-05 -6.26366e-05 3.63236e-05)
(-6.06098e-05 -0.000105329 -2.76998e-06)
(5.48631e-05 -0.000108671 1.65692e-05)
(-2.14683e-05 -4.15843e-05 -1.83776e-05)
(-2.28832e-05 -6.26205e-05 3.6307e-05)
(2.83985e-05 2.93407e-05 -7.94126e-07)
(-0.00026439 -1.74172e-05 4.59932e-06)
(-1.7277e-05 -0.000264749 4.61632e-06)
(-9.7439e-05 -9.76522e-05 -6.79686e-05)
(7.24794e-05 -2.59216e-05 6.72026e-06)
(-2.59323e-05 7.28214e-05 6.84415e-06)
(1.53636e-06 5.91431e-05 1.46823e-05)
(-8.26855e-05 -0.000456802 2.39402e-06)
(-3.21665e-06 -0.000129552 -6.14307e-06)
(-5.08925e-05 0.000423387 2.76144e-05)
(0.000145347 -4.47158e-05 1.71122e-06)
(-5.56649e-05 4.97325e-05 2.63398e-05)
(5.94417e-05 1.59999e-06 1.43002e-05)
(-0.000457153 -8.29648e-05 2.47697e-06)
(-0.000129772 -3.1983e-06 -6.42253e-06)
(0.000423535 -5.04383e-05 2.76798e-05)
(0.000124691 -0.000124391 6.92714e-05)
(-0.000124478 0.000124892 6.92147e-05)
(0.00012469 0.000124782 6.90902e-05)
(-0.000136508 -0.000136734 8.39339e-05)
(0.000137038 -0.000136678 8.43987e-05)
(-0.000136592 0.000136857 8.36362e-05)
(0.000137072 0.000136761 8.36484e-05)
(5.14765e-05 1.52081e-05 -6.61558e-06)
(-0.000103847 -6.26991e-05 -5.94205e-06)
(-6.2924e-05 -2.28583e-05 3.46468e-05)
(-0.000105998 5.37444e-05 1.99629e-05)
(-3.94131e-05 -2.19499e-05 -2.05493e-05)
(2.79814e-05 3.08614e-05 1.11054e-05)
(-5.9318e-05 -2.32037e-05 4.05901e-05)
(-4.47696e-05 0.000145254 2.11334e-06)
(4.97982e-05 -5.55903e-05 2.5846e-05)
(1.53341e-05 5.13058e-05 -6.46622e-06)
(-2.28367e-05 -6.25619e-05 3.45816e-05)
(-6.27663e-05 -0.000103926 -6.14137e-06)
(5.3178e-05 -0.000105542 2.01093e-05)
(-2.20635e-05 -3.94071e-05 -2.05299e-05)
(-2.31883e-05 -5.88769e-05 4.0512e-05)
(3.09841e-05 2.77401e-05 1.09265e-05)
(-0.000263077 -1.68079e-05 2.67323e-08)
(-1.66189e-05 -0.00026326 1.23176e-07)
(-0.000100481 -0.000100946 -5.81605e-05)
(7.14195e-05 -2.62679e-05 2.02229e-05)
(-2.65763e-05 7.14749e-05 2.0126e-05)
(-1.07204e-06 8.67941e-05 9.79515e-05)
(-8.20018e-05 -0.000473589 -3.94465e-05)
(-2.92154e-06 -0.00014573 -3.91498e-05)
(-5.63933e-05 0.00045405 0.000141228)
(0.000142651 -4.93464e-05 -4.22582e-05)
(-4.55162e-05 6.49434e-05 0.000144421)
(8.63282e-05 -7.01416e-07 9.84107e-05)
(-0.000473659 -8.22154e-05 -3.99989e-05)
(-0.000145943 -2.9188e-06 -3.87053e-05)
(0.000453604 -5.65081e-05 0.000141032)
(0.000123901 -0.000123361 2.43581e-05)
(-0.000123198 0.000123685 2.37139e-05)
(0.000123644 0.000123427 2.37792e-05)
(-0.000267894 -0.000268106 0.000255868)
(0.000268419 -0.000268358 0.000255715)
(-0.000267526 0.000267981 0.000256259)
(0.000268172 0.000267894 0.000255783)
(5.20809e-05 1.64436e-05 6.7371e-05)
(-9.96653e-05 -7.20735e-05 -2.5736e-05)
(-9.09653e-05 -1.95555e-05 4.25493e-06)
(-4.45065e-05 1.36565e-05 6.96243e-05)
(-3.14429e-05 -2.23198e-05 -3.37674e-05)
(3.08513e-05 4.08263e-05 9.52452e-05)
(1.11853e-05 -3.16439e-05 9.92645e-05)
(-4.93301e-05 0.000142416 -4.37738e-05)
(6.47311e-05 -4.55155e-05 0.000143425)
(1.61226e-05 5.2098e-05 6.79539e-05)
(-1.92796e-05 -9.1568e-05 3.79736e-06)
(-7.22424e-05 -9.95463e-05 -2.51969e-05)
(1.37339e-05 -4.54707e-05 6.95763e-05)
(-2.24375e-05 -3.10569e-05 -3.28533e-05)
(-3.13781e-05 1.04847e-05 9.87697e-05)
(4.05733e-05 3.08651e-05 9.55563e-05)
(-0.00025544 -1.18444e-05 -2.95652e-05)
(-1.1673e-05 -0.000255751 -2.94676e-05)
(-0.000103359 -0.00010372 1.0906e-05)
(6.41185e-05 -2.77998e-05 0.000111565)
(-2.79778e-05 6.45321e-05 0.000111662)
(2.30378e-06 0.000104097 0.000576462)
(-7.3657e-05 -0.000558201 -0.00022264)
(1.10271e-06 -0.000192315 -0.000129102)
(-9.33879e-05 0.000579672 0.000729485)
(0.000135923 -7.10899e-05 -0.000256786)
(-3.84409e-05 0.000107763 0.00081738)
(0.000104764 2.57681e-06 0.000575258)
(-0.000558705 -7.35401e-05 -0.000222216)
(-0.000192414 1.45645e-06 -0.000128707)
(0.000579456 -9.26129e-05 0.000729396)
(2.13483e-05 -2.0974e-05 -0.000354662)
(-1.91524e-05 2.03729e-05 -0.000353903)
(1.9897e-05 2.03823e-05 -0.000354213)
(-0.00243108 -0.00243033 0.0025363)
(0.00243169 -0.00243004 0.00253661)
(-0.00242947 0.00243149 0.00253624)
(0.00243118 0.00243205 0.00253716)
(0.000200827 1.87096e-05 0.00050468)
(-0.000116986 -9.12276e-05 -6.62386e-05)
(-0.000378271 4.85133e-05 -0.000276839)
(0.000506188 -0.000365874 0.000147202)
(-3.18211e-05 -1.70963e-05 -2.27e-05)
(0.000109735 4.26199e-05 0.000494143)
(0.000696181 -0.000263258 0.000618591)
(-7.1496e-05 0.000135331 -0.000256514)
(0.000107413 -3.88821e-05 0.000817736)
(1.83547e-05 0.00020199 0.000500871)
(4.64776e-05 -0.000373393 -0.000280274)
(-9.0138e-05 -0.000116085 -6.5719e-05)
(-0.00036966 0.000506599 0.000148086)
(-1.72295e-05 -2.94273e-05 -1.96836e-05)
(-0.000265777 0.00070428 0.000621865)
(4.39496e-05 0.000110533 0.000492943)
(-0.000240348 3.83147e-07 -0.000130069)
(4.92079e-07 -0.000240221 -0.000129519)
(-3.24523e-05 -3.46236e-05 0.000360684)
(6.00977e-05 -1.20638e-05 0.000569139)
(-1.22122e-05 6.03706e-05 0.000568839)
(0.000308063 0.00384552 -2.24005e-05)
(0.000199384 6.14326e-05 0.00129855)
(-0.000167397 0.000249867 0.000210256)
(0.000741179 0.0013844 -0.00135218)
(0.00237519 -0.00204178 -0.00449707)
(-0.000715513 0.00143935 -0.00123716)
(0.00384123 0.000306861 -2.07246e-05)
(6.42951e-05 0.000199762 0.00129634)
(0.000248935 -0.000166601 0.000210631)
(0.00138086 0.000743576 -0.00135145)
(-5.8877e-05 -5.84066e-05 -0.00305042)
(0.000374819 0.00195337 -0.00666645)
(0.00195368 0.00037486 -0.00666652)