/*--------------------------------*- C++ -*----------------------------------*\
| =========                 |                                                 |
| \\      /  F ield         | OpenFOAM: The Open Source CFD Toolbox           |
|  \\    /   O peration     | Version:  2206                                  |
|   \\  /    A nd           | Website:  www.openfoam.com                      |
|    \\/     M anipulation  |                                                 |
\*---------------------------------------------------------------------------*/
FoamFile
{
    version     2.0;
    format      ascii;
    arch        "LSB;label=32;scalar=64";
    class       volScalarField;
    location    "36";
    object      Ux;
}
// * * * * * * * * * * * * * * * * * * * * * * * * * * * * * * * * * * * * * //

dimensions      [0 1 -1 0 0 0 0];

internalField   nonuniform List<scalar> 
171728
(
0.00010801
-0.000190226
0.000119357
-0.000239518
9.43932e-05
-0.00015917
9.69671e-05
-0.00020092
9.57881e-05
-0.000156112
9.35847e-05
-0.000201524
9.40793e-05
-0.000151874
8.98314e-05
-0.000197755
9.00967e-05
-0.000144686
8.43516e-05
-0.000191508
8.8156e-05
-0.000139838
8.09727e-05
-0.000185413
7.75257e-05
-0.000128566
7.39557e-05
-0.000170908
4.84486e-05
-7.11723e-05
4.0402e-05
-0.000116413
2.37093e-05
-3.3109e-05
2.26741e-05
-7.57828e-05
5.14036e-06
-7.95552e-06
6.19346e-06
-5.3669e-05
-2.14054e-07
-1.27747e-06
1.41275e-06
-4.80918e-05
-8.49403e-07
-6.11231e-07
9.33895e-07
-4.76618e-05
-8.86175e-07
-5.97901e-07
9.11649e-07
-4.76482e-05
-8.87054e-07
-5.97308e-07
9.1267e-07
-4.765e-05
-8.89953e-07
-5.92007e-07
9.11944e-07
-4.76502e-05
-8.90214e-07
-5.92139e-07
9.11646e-07
-4.765e-05
-8.89326e-07
-5.92713e-07
9.11947e-07
-4.76494e-05
-8.89544e-07
-5.91945e-07
9.12015e-07
-4.76496e-05
-8.87398e-07
-5.92363e-07
9.11984e-07
-4.76493e-05
-8.81088e-07
-5.90081e-07
9.12809e-07
-4.76496e-05
-8.77071e-07
-5.9615e-07
9.13397e-07
-4.76491e-05
-8.86312e-07
-5.92589e-07
9.12952e-07
-4.76491e-05
-8.87058e-07
-5.91587e-07
9.12751e-07
-4.76492e-05
-8.87963e-07
-5.9103e-07
9.12576e-07
-4.76492e-05
-8.88424e-07
-5.90568e-07
9.12147e-07
-4.76496e-05
-8.89195e-07
-5.89673e-07
9.11762e-07
-4.76497e-05
-8.90062e-07
-5.89129e-07
9.11675e-07
-4.76498e-05
-8.90097e-07
-5.89341e-07
9.11976e-07
-4.76498e-05
-8.89689e-07
-5.89885e-07
9.12423e-07
-4.76504e-05
-8.88832e-07
-5.89865e-07
9.1272e-07
-4.76506e-05
-8.8848e-07
-5.90476e-07
9.12667e-07
-4.76512e-05
-8.88917e-07
-5.90486e-07
9.12815e-07
-4.76509e-05
-8.88992e-07
-5.89662e-07
9.12604e-07
-4.76503e-05
-8.89658e-07
-5.89132e-07
9.12023e-07
-4.76503e-05
-8.89812e-07
-5.88954e-07
9.11953e-07
-4.76498e-05
-8.89495e-07
-5.88838e-07
9.12171e-07
-4.765e-05
-8.89201e-07
-5.89073e-07
9.12689e-07
-4.76505e-05
-8.88946e-07
-5.89969e-07
9.12987e-07
-4.7651e-05
-8.88833e-07
-5.89803e-07
9.1301e-07
-4.7651e-05
-8.88782e-07
-5.8957e-07
9.1174e-07
-4.76486e-05
-8.85006e-07
-5.86773e-07
9.11515e-07
-4.76484e-05
-8.92012e-07
-5.90019e-07
9.12095e-07
-4.76511e-05
-8.89763e-07
-5.88925e-07
9.11756e-07
-4.76502e-05
-8.88715e-07
-5.9007e-07
9.11614e-07
-4.76501e-05
-8.87846e-07
-5.91095e-07
9.1148e-07
-4.7651e-05
-8.8672e-07
-5.91374e-07
9.12044e-07
-4.76509e-05
-8.85758e-07
-5.91956e-07
9.12209e-07
-4.76512e-05
-8.86461e-07
-5.91406e-07
9.11925e-07
-4.76511e-05
-8.86786e-07
-5.91843e-07
9.11766e-07
-4.76514e-05
-8.87132e-07
-5.90424e-07
9.11504e-07
-4.76506e-05
-8.87306e-07
-5.91098e-07
9.11863e-07
-4.76507e-05
-8.8746e-07
-5.90941e-07
9.11843e-07
-4.76509e-05
-8.86607e-07
-5.91258e-07
9.12279e-07
-4.76513e-05
-8.85092e-07
-5.91573e-07
9.1295e-07
-4.76514e-05
-8.84264e-07
-5.915e-07
9.13066e-07
-4.7651e-05
-8.86127e-07
-5.92719e-07
9.12436e-07
-4.76523e-05
-8.86083e-07
-5.93622e-07
9.12269e-07
-4.7654e-05
-8.85879e-07
-5.93385e-07
9.12716e-07
-4.76537e-05
-8.86059e-07
-5.92919e-07
9.12659e-07
-4.76538e-05
-8.85794e-07
-5.9352e-07
9.13121e-07
-4.76536e-05
-8.84972e-07
-5.93855e-07
9.1348e-07
-4.7654e-05
-8.84811e-07
-5.94357e-07
9.1353e-07
-4.76543e-05
-8.8455e-07
-5.9481e-07
9.14097e-07
-4.76546e-05
-8.84664e-07
-5.93951e-07
9.13705e-07
-4.7654e-05
-8.84751e-07
-5.93687e-07
9.13492e-07
-4.76538e-05
-8.85902e-07
-5.92963e-07
9.12903e-07
-4.76534e-05
-8.85846e-07
-5.9309e-07
9.13129e-07
-4.76532e-05
-8.85251e-07
-5.93259e-07
9.13419e-07
-4.76541e-05
-8.84691e-07
-5.9355e-07
9.1488e-07
-4.7655e-05
-8.83948e-07
-5.94447e-07
9.20765e-07
-4.76589e-05
-8.83936e-07
-5.93991e-07
9.17155e-07
-4.76581e-05
-8.8426e-07
-5.94215e-07
9.14025e-07
-4.76542e-05
-8.85319e-07
-5.93123e-07
9.13357e-07
-4.76539e-05
-8.858e-07
-5.93644e-07
9.12976e-07
-4.76538e-05
-8.85767e-07
-5.92604e-07
9.13014e-07
-4.7654e-05
-8.85513e-07
-5.93521e-07
9.13489e-07
-4.76543e-05
-8.84929e-07
-5.93928e-07
9.13791e-07
-4.76552e-05
-8.84671e-07
-5.93982e-07
9.14235e-07
-4.76554e-05
-8.84329e-07
-5.94513e-07
9.14794e-07
-4.76554e-05
-8.84838e-07
-5.94278e-07
9.13891e-07
-4.76554e-05
-8.853e-07
-5.9342e-07
9.13482e-07
-4.76548e-05
-8.85556e-07
-5.93213e-07
9.13592e-07
-4.76546e-05
-8.85888e-07
-5.9331e-07
9.13228e-07
-4.76544e-05
-8.85415e-07
-5.92524e-07
9.13097e-07
-4.76547e-05
-8.8639e-07
-5.91009e-07
9.11322e-07
-4.76548e-05
-8.92232e-07
-5.83503e-07
9.03745e-07
-4.76499e-05
-9.02935e-07
-5.73423e-07
8.8868e-07
-4.76177e-05
-9.18324e-07
-5.96878e-07
9.09628e-07
-4.7445e-05
-8.10045e-07
-7.31477e-07
9.8821e-07
-4.74695e-05
-7.77835e-07
-9.12163e-07
1.1029e-06
-4.68794e-05
-6.22467e-07
-1.33663e-06
1.38814e-06
-4.63374e-05
-4.85581e-07
-2.2042e-06
2.03888e-06
-4.51184e-05
-4.91144e-07
-3.83042e-06
3.35931e-06
-4.14055e-05
-5.91092e-06
-2.49203e-06
3.62268e-06
-2.68885e-05
-4.06778e-05
4.24977e-05
-3.38791e-05
4.55643e-05
0.000135021
0.000124247
-0.000124239
-0.000135018
0.000152895
0.000152867
9.07941e-05
-9.07842e-05
9.07682e-05
-9.07658e-05
-0.00015289
-0.000152876
0.000135011
0.000124199
-0.000124196
-0.000135019
0.000239561
0.000111495
0.000119407
-0.000119359
8.91076e-05
-8.9069e-05
-0.000239571
-0.000111456
0.000190263
0.000190201
0.000147239
0.000147274
-0.000190183
-0.00014721
-0.000147231
0.000239492
0.000111448
-0.000119337
8.90815e-05
-8.90608e-05
-0.000111445
0.000201008
0.000105933
9.69744e-05
-9.69478e-05
9.40285e-05
-9.40289e-05
-0.000200969
-0.000105922
0.000159203
0.000159221
0.000156392
0.000156433
-0.000159199
-0.000156389
-0.000156411
0.000200916
0.000105897
-9.69493e-05
9.40303e-05
-9.40362e-05
-0.000105913
0.000201593
9.70512e-05
9.35773e-05
-9.35825e-05
9.06641e-05
-9.06531e-05
-0.000201579
-9.70384e-05
0.000156119
0.00015616
0.000152588
0.000152621
-0.000156142
-0.000152584
-0.000152622
0.000201505
9.70101e-05
-9.35925e-05
9.06677e-05
-9.06575e-05
-9.70671e-05
0.000197785
8.74994e-05
8.98287e-05
-8.98168e-05
8.59396e-05
-8.59275e-05
-0.000197771
-8.74782e-05
0.000151882
0.000151912
0.000146455
0.000146489
-0.000151914
-0.000146451
-0.000146494
0.000197693
8.745e-05
-8.98176e-05
8.59451e-05
-8.5925e-05
-8.7519e-05
0.000191532
8.01187e-05
8.43458e-05
-8.43394e-05
8.37262e-05
-8.37171e-05
-0.00019152
-8.01152e-05
0.000144691
0.00014472
0.000143661
0.000143695
-0.000144728
-0.000143659
-0.000143704
0.00019144
8.00911e-05
-8.4331e-05
8.37426e-05
-8.37176e-05
-8.01585e-05
0.000185422
6.83148e-05
8.09614e-05
-8.09532e-05
7.67673e-05
-7.67379e-05
-0.000185425
-6.83095e-05
0.000139842
0.000139871
0.000132274
0.000132295
-0.000139887
-0.000132263
-0.000132305
0.000185348
6.82444e-05
-8.09478e-05
7.68058e-05
-7.67782e-05
-6.83397e-05
0.000170914
2.43261e-05
7.39211e-05
-7.39016e-05
4.73415e-05
-4.73461e-05
-0.0001709
-2.43179e-05
0.000128567
0.000128595
8.55187e-05
8.55586e-05
-0.000128606
-8.54821e-05
-8.55425e-05
0.000170804
2.43654e-05
-7.3923e-05
4.72986e-05
-4.72802e-05
-2.43365e-05
0.000116436
-1.88296e-05
4.04438e-05
-4.0449e-05
2.74358e-05
-2.74315e-05
-0.000116427
1.88377e-05
7.11927e-05
7.12219e-05
4.16933e-05
4.17016e-05
-7.12143e-05
-4.16806e-05
-4.16872e-05
0.00011641
-1.88031e-05
-4.03897e-05
2.73839e-05
-2.73839e-05
1.88233e-05
7.58224e-05
-4.23857e-05
2.2722e-05
-2.2717e-05
9.21205e-06
-9.20902e-06
-7.58048e-05
4.2396e-05
3.31282e-05
3.31312e-05
1.22214e-05
1.22376e-05
-3.31162e-05
-1.22084e-05
-1.22372e-05
7.57929e-05
-4.23695e-05
-2.26745e-05
9.17133e-06
-9.17302e-06
4.23701e-05
5.36816e-05
-4.94357e-05
6.23488e-06
-6.22844e-06
1.93086e-06
-1.91849e-06
-5.36704e-05
4.94448e-05
7.97122e-06
7.98451e-06
1.95266e-06
1.97289e-06
-7.98877e-06
-1.94366e-06
-1.97691e-06
5.36513e-05
-4.9412e-05
-6.19624e-06
1.88641e-06
-1.88707e-06
4.94116e-05
4.80964e-05
-5.00601e-05
1.45529e-06
-1.44137e-06
9.97e-07
-9.95724e-07
-4.8093e-05
5.00674e-05
1.28772e-06
1.30718e-06
6.45947e-07
6.73229e-07
-1.30915e-06
-6.41487e-07
-6.73728e-07
4.80773e-05
-5.00335e-05
-1.41155e-06
9.63055e-07
-9.6048e-07
5.00363e-05
4.76655e-05
-5.00841e-05
9.67448e-07
-9.65599e-07
9.43426e-07
-9.44208e-07
-4.76654e-05
5.00877e-05
6.16656e-07
6.40558e-07
5.92321e-07
6.20277e-07
-6.40813e-07
-5.95271e-07
-6.22824e-07
4.76493e-05
-5.00568e-05
-9.31205e-07
9.11349e-07
-9.09301e-07
5.00582e-05
4.76499e-05
-5.00835e-05
9.42749e-07
-9.42824e-07
9.42763e-07
-9.4382e-07
-4.76538e-05
5.00839e-05
5.94641e-07
6.20052e-07
5.92124e-07
6.20527e-07
-6.22829e-07
-5.96728e-07
-6.2439e-07
4.76345e-05
-5.00549e-05
-9.09054e-07
9.12126e-07
-9.09428e-07
5.00562e-05
4.76506e-05
-5.00788e-05
9.44191e-07
-9.44324e-07
9.41529e-07
-9.46568e-07
-4.76573e-05
5.00865e-05
5.95436e-07
6.20798e-07
5.93015e-07
6.20849e-07
-6.2404e-07
-5.91335e-07
-6.23678e-07
4.76361e-05
-5.00549e-05
-9.09934e-07
9.11245e-07
-9.10095e-07
5.00559e-05
4.7653e-05
-5.00805e-05
9.40014e-07
-9.48625e-07
9.37944e-07
-9.56002e-07
-4.76562e-05
5.00829e-05
5.96106e-07
6.21011e-07
5.93217e-07
6.21139e-07
-6.23163e-07
-5.92146e-07
-6.23507e-07
4.76359e-05
-5.00548e-05
-9.10774e-07
9.11075e-07
-9.10599e-07
5.0056e-05
4.76516e-05
-5.00781e-05
9.36998e-07
-9.52723e-07
9.39909e-07
-9.47025e-07
-4.76555e-05
5.0084e-05
5.96466e-07
6.21199e-07
5.94169e-07
6.21149e-07
-6.23093e-07
-5.91415e-07
-6.22654e-07
4.76361e-05
-5.00546e-05
-9.10889e-07
9.11333e-07
-9.10327e-07
5.00565e-05
4.76531e-05
-5.00796e-05
9.39129e-07
-9.47067e-07
9.39167e-07
-9.45892e-07
-4.7653e-05
5.00863e-05
5.97304e-07
6.21276e-07
5.93875e-07
6.21169e-07
-6.22331e-07
-5.91423e-07
-6.22085e-07
4.76363e-05
-5.00547e-05
-9.10488e-07
9.11291e-07
-9.09873e-07
5.0057e-05
4.76526e-05
-5.00821e-05
9.37072e-07
-9.45978e-07
9.4049e-07
-9.50329e-07
-4.76511e-05
5.00858e-05
5.96602e-07
6.21295e-07
5.93065e-07
6.21167e-07
-6.21975e-07
-5.91473e-07
-6.21999e-07
4.76366e-05
-5.00549e-05
-9.10125e-07
9.11196e-07
-9.08919e-07
5.00575e-05
4.76541e-05
-5.00828e-05
9.42674e-07
-9.51931e-07
9.43515e-07
-9.40591e-07
-4.76551e-05
5.00903e-05
5.95944e-07
6.21131e-07
5.94011e-07
6.20669e-07
-6.22799e-07
-5.90807e-07
-6.2651e-07
4.76367e-05
-5.00552e-05
-9.08872e-07
9.11628e-07
-9.07076e-07
5.00564e-05
4.76565e-05
-5.00857e-05
9.43786e-07
-9.31203e-07
9.46839e-07
-9.4494e-07
-4.76384e-05
5.00778e-05
5.98114e-07
6.20953e-07
6.00755e-07
6.21654e-07
-6.26697e-07
-5.95292e-07
-6.21614e-07
4.76361e-05
-5.00542e-05
-9.07489e-07
9.1279e-07
-9.08069e-07
5.00567e-05
4.76542e-05
-5.00837e-05
9.48363e-07
-9.44612e-07
9.40589e-07
-9.43719e-07
-4.76567e-05
5.00893e-05
6.02946e-07
6.21908e-07
5.95412e-07
6.21469e-07
-6.21e-07
-5.91441e-07
-6.21948e-07
4.76364e-05
-5.00541e-05
-9.08788e-07
9.12178e-07
-9.08851e-07
5.00567e-05
4.76573e-05
-5.00826e-05
9.40833e-07
-9.4605e-07
9.42506e-07
-9.47713e-07
-4.76467e-05
5.0084e-05
5.97657e-07
6.21558e-07
5.94852e-07
6.21744e-07
-6.21708e-07
-5.91078e-07
-6.22402e-07
4.76363e-05
-5.00536e-05
-9.09687e-07
9.1217e-07
-9.09977e-07
5.00564e-05
4.76589e-05
-5.00826e-05
9.42435e-07
-9.48196e-07
9.4314e-07
-9.48373e-07
-4.76508e-05
5.00839e-05
5.98019e-07
6.21881e-07
5.94138e-07
6.2169e-07
-6.22157e-07
-5.90216e-07
-6.22569e-07
4.76367e-05
-5.00537e-05
-9.1042e-07
9.11862e-07
-9.09823e-07
5.00565e-05
4.76587e-05
-5.0083e-05
9.42981e-07
-9.48748e-07
9.4328e-07
-9.48452e-07
-4.76508e-05
5.00838e-05
5.9728e-07
6.21859e-07
5.93377e-07
6.21323e-07
-6.22151e-07
-5.89736e-07
-6.21841e-07
4.76366e-05
-5.00539e-05
-9.10468e-07
9.11522e-07
-9.0983e-07
5.00561e-05
4.76582e-05
-5.00833e-05
9.43461e-07
-9.48766e-07
9.4348e-07
-9.48558e-07
-4.76509e-05
5.00839e-05
5.96681e-07
6.21314e-07
5.92857e-07
6.20724e-07
-6.21302e-07
-5.89022e-07
-6.21008e-07
4.76362e-05
-5.00545e-05
-9.10277e-07
9.11158e-07
-9.09757e-07
5.0056e-05
4.76577e-05
-5.00843e-05
9.43218e-07
-9.48974e-07
9.43167e-07
-9.48859e-07
-4.76507e-05
5.00841e-05
5.95889e-07
6.20688e-07
5.91712e-07
6.20123e-07
-6.20521e-07
-5.88355e-07
-6.20484e-07
4.76356e-05
-5.00547e-05
-9.1018e-07
9.10999e-07
-9.09744e-07
5.0056e-05
4.76568e-05
-5.00848e-05
9.42955e-07
-9.49347e-07
9.42776e-07
-9.48437e-07
-4.76506e-05
5.00844e-05
5.94939e-07
6.20178e-07
5.91554e-07
6.20126e-07
-6.20062e-07
-5.88322e-07
-6.20103e-07
4.76354e-05
-5.00547e-05
-9.10227e-07
9.11096e-07
-9.09704e-07
5.0056e-05
4.76565e-05
-5.00839e-05
9.42904e-07
-9.49408e-07
9.43645e-07
-9.48515e-07
-4.76504e-05
5.00839e-05
5.9514e-07
6.20415e-07
5.92167e-07
6.20677e-07
-6.19951e-07
-5.88854e-07
-6.20603e-07
4.76355e-05
-5.00541e-05
-9.10292e-07
9.11664e-07
-9.10128e-07
5.00554e-05
4.76573e-05
-5.00833e-05
9.43705e-07
-9.50283e-07
9.44766e-07
-9.47957e-07
-4.76512e-05
5.00835e-05
5.95633e-07
6.20943e-07
5.92396e-07
6.20883e-07
-6.2028e-07
-5.88994e-07
-6.20711e-07
4.76362e-05
-5.00539e-05
-9.10558e-07
9.11863e-07
-9.10214e-07
5.00552e-05
4.76579e-05
-5.0083e-05
9.45012e-07
-9.50828e-07
9.45547e-07
-9.46938e-07
-4.76517e-05
5.00831e-05
5.9594e-07
6.21315e-07
5.92882e-07
6.2162e-07
-6.2069e-07
-5.89556e-07
-6.21471e-07
4.76364e-05
-5.00535e-05
-9.10831e-07
9.12198e-07
-9.10645e-07
5.00546e-05
4.76582e-05
-5.00836e-05
9.45465e-07
-9.53276e-07
9.4515e-07
-9.48758e-07
-4.76528e-05
5.0084e-05
5.96163e-07
6.21607e-07
5.92364e-07
6.21228e-07
-6.21132e-07
-5.89691e-07
-6.21372e-07
4.76366e-05
-5.0054e-05
-9.11078e-07
9.1195e-07
-9.1062e-07
5.00548e-05
4.76576e-05
-5.00838e-05
9.44938e-07
-9.51118e-07
9.4495e-07
-9.50564e-07
-4.76523e-05
5.00852e-05
5.95808e-07
6.21594e-07
5.92103e-07
6.21053e-07
-6.20962e-07
-5.88961e-07
-6.20658e-07
4.76364e-05
-5.00538e-05
-9.10913e-07
9.12103e-07
-9.09993e-07
5.00554e-05
4.76574e-05
-5.00841e-05
9.45079e-07
-9.50751e-07
9.44819e-07
-9.5084e-07
-4.76505e-05
5.00859e-05
5.95428e-07
6.21108e-07
5.91846e-07
6.20619e-07
-6.20434e-07
-5.88601e-07
-6.20551e-07
4.76363e-05
-5.00544e-05
-9.10485e-07
9.11555e-07
-9.09963e-07
5.00554e-05
4.7657e-05
-5.00847e-05
9.44346e-07
-9.50934e-07
9.44254e-07
-9.50847e-07
-4.76499e-05
5.00865e-05
5.94938e-07
6.206e-07
5.90981e-07
6.19887e-07
-6.20074e-07
-5.8807e-07
-6.20008e-07
4.76358e-05
-5.00549e-05
-9.10167e-07
9.1112e-07
-9.09543e-07
5.00561e-05
4.76566e-05
-5.0084e-05
9.44521e-07
-9.51126e-07
9.4496e-07
-9.51117e-07
-4.76494e-05
5.00862e-05
5.94536e-07
6.2027e-07
5.91732e-07
6.20438e-07
-6.19898e-07
-5.87966e-07
-6.19965e-07
4.76354e-05
-5.00544e-05
-9.10033e-07
9.11591e-07
-9.09661e-07
5.00559e-05
4.76573e-05
-5.00843e-05
9.44866e-07
-9.51114e-07
9.44677e-07
-9.51327e-07
-4.76495e-05
5.00862e-05
5.94938e-07
6.20503e-07
5.9175e-07
6.20467e-07
-6.19779e-07
-5.88219e-07
-6.20262e-07
4.76359e-05
-5.00544e-05
-9.10143e-07
9.11752e-07
-9.10139e-07
5.00555e-05
4.76571e-05
-5.00836e-05
9.44955e-07
-9.51378e-07
9.44953e-07
-9.51932e-07
-4.76496e-05
5.00858e-05
5.95366e-07
6.20981e-07
5.92358e-07
6.21028e-07
-6.20259e-07
-5.88801e-07
-6.20892e-07
4.76361e-05
-5.00536e-05
-9.1067e-07
9.12339e-07
-9.10695e-07
5.00549e-05
4.76576e-05
-5.00836e-05
9.45138e-07
-9.51875e-07
9.44736e-07
-9.52636e-07
-4.76502e-05
5.00851e-05
5.95569e-07
6.21275e-07
5.92568e-07
6.2119e-07
-6.20878e-07
-5.89184e-07
-6.21066e-07
4.76367e-05
-5.00537e-05
-9.11102e-07
9.12357e-07
-9.10903e-07
5.00546e-05
4.76573e-05
-5.0084e-05
9.45208e-07
-9.51734e-07
9.4332e-07
-9.53171e-07
-4.76503e-05
5.00869e-05
5.95711e-07
6.21547e-07
5.94094e-07
6.21918e-07
-6.20983e-07
-5.88998e-07
-6.23794e-07
4.76366e-05
-5.00547e-05
-9.1096e-07
9.11614e-07
-9.1019e-07
5.00571e-05
4.76551e-05
-5.00775e-05
9.43116e-07
-9.50823e-07
9.43234e-07
-9.50067e-07
-4.76485e-05
5.00872e-05
5.98322e-07
6.22456e-07
5.98976e-07
6.22049e-07
-6.25357e-07
-5.857e-07
-6.25921e-07
4.76357e-05
-5.00559e-05
-9.08293e-07
9.10525e-07
-9.05838e-07
5.00584e-05
4.76615e-05
-5.0088e-05
9.48051e-07
-9.50145e-07
9.3913e-07
-9.5484e-07
-4.76509e-05
5.00815e-05
6.02576e-07
6.21946e-07
5.91735e-07
6.21025e-07
-6.22803e-07
-5.89405e-07
-6.2119e-07
4.76349e-05
-5.00559e-05
-9.07808e-07
9.11573e-07
-9.09929e-07
5.00554e-05
4.76495e-05
-5.00852e-05
9.39873e-07
-9.57287e-07
9.41472e-07
-9.46782e-07
-4.76574e-05
5.00865e-05
5.93599e-07
6.21236e-07
5.91687e-07
6.2065e-07
-6.21404e-07
-5.88145e-07
-6.2067e-07
4.7635e-05
-5.0056e-05
-9.10363e-07
9.11339e-07
-9.09863e-07
5.00559e-05
4.76518e-05
-5.00837e-05
9.4165e-07
-9.46904e-07
9.43112e-07
-9.46888e-07
-4.76491e-05
5.00872e-05
5.94729e-07
6.20871e-07
5.92404e-07
6.20505e-07
-6.20018e-07
-5.88886e-07
-6.19738e-07
4.76346e-05
-5.00563e-05
-9.09968e-07
9.11259e-07
-9.09556e-07
5.00562e-05
4.7653e-05
-5.00835e-05
9.42393e-07
-9.47011e-07
9.4285e-07
-9.47219e-07
-4.76493e-05
5.00866e-05
5.95586e-07
6.20986e-07
5.9295e-07
6.2121e-07
-6.19932e-07
-5.90368e-07
-6.20733e-07
4.76343e-05
-5.00557e-05
-9.10074e-07
9.11859e-07
-9.10456e-07
5.00552e-05
4.76533e-05
-5.00828e-05
9.42347e-07
-9.47275e-07
9.43128e-07
-9.46717e-07
-4.76496e-05
5.00872e-05
5.96124e-07
6.21665e-07
5.9334e-07
6.21504e-07
-6.20544e-07
-5.90377e-07
-6.20561e-07
4.76349e-05
-5.00554e-05
-9.10523e-07
9.12078e-07
-9.10334e-07
5.00553e-05
4.7654e-05
-5.00815e-05
9.42979e-07
-9.46987e-07
9.43897e-07
-9.46874e-07
-4.76491e-05
5.00869e-05
5.96707e-07
6.22098e-07
5.94628e-07
6.22495e-07
-6.20668e-07
-5.91088e-07
-6.2113e-07
4.76352e-05
-5.00547e-05
-9.10658e-07
9.1253e-07
-9.10595e-07
5.00549e-05
4.7655e-05
-5.00821e-05
9.43413e-07
-9.4708e-07
9.43164e-07
-9.46348e-07
-4.76492e-05
5.00873e-05
5.97713e-07
6.228e-07
5.93735e-07
6.21837e-07
-6.20941e-07
-5.90752e-07
-6.20806e-07
4.76357e-05
-5.00552e-05
-9.10848e-07
9.12152e-07
-9.10747e-07
5.00549e-05
4.76542e-05
-5.00822e-05
9.42491e-07
-9.46524e-07
9.42217e-07
-9.4654e-07
-4.76486e-05
5.00874e-05
5.96714e-07
6.22082e-07
5.93852e-07
6.21634e-07
-6.20676e-07
-5.90891e-07
-6.20936e-07
4.76352e-05
-5.00553e-05
-9.1115e-07
9.1207e-07
-9.11203e-07
5.00546e-05
4.76542e-05
-5.0082e-05
9.41616e-07
-9.46865e-07
9.41717e-07
-9.4604e-07
-4.76487e-05
5.00878e-05
5.97002e-07
6.21775e-07
5.93833e-07
6.21125e-07
-6.20646e-07
-5.90111e-07
-6.19937e-07
4.7635e-05
-5.00558e-05
-9.11451e-07
9.11693e-07
-9.1054e-07
5.00553e-05
4.76543e-05
-5.00823e-05
9.41141e-07
-9.45959e-07
9.41243e-07
-9.45945e-07
-4.76479e-05
5.00881e-05
5.96792e-07
6.21317e-07
5.93612e-07
6.21185e-07
-6.1946e-07
-5.89925e-07
-6.19705e-07
4.76345e-05
-5.00555e-05
-9.10667e-07
9.11997e-07
-9.10425e-07
5.00553e-05
4.76539e-05
-5.00824e-05
9.40739e-07
-9.46469e-07
9.41101e-07
-9.46068e-07
-4.76481e-05
5.00877e-05
5.96658e-07
6.21485e-07
5.93437e-07
6.21212e-07
-6.19622e-07
-5.90287e-07
-6.2002e-07
4.76348e-05
-5.00554e-05
-9.10803e-07
9.11996e-07
-9.10643e-07
5.0055e-05
4.76538e-05
-5.00816e-05
9.40698e-07
-9.46209e-07
9.41661e-07
-9.45974e-07
-4.76481e-05
5.00878e-05
5.96473e-07
6.21418e-07
5.93967e-07
6.21398e-07
-6.1973e-07
-5.90194e-07
-6.20141e-07
4.76348e-05
-5.00551e-05
-9.10971e-07
9.12289e-07
-9.11066e-07
5.00547e-05
4.76547e-05
-5.00798e-05
9.41551e-07
-9.46353e-07
9.43301e-07
-9.45501e-07
-4.76482e-05
5.00868e-05
5.97367e-07
6.21867e-07
5.95522e-07
6.2244e-07
-6.19995e-07
-5.91086e-07
-6.20635e-07
4.76351e-05
-5.00542e-05
-9.11507e-07
9.12912e-07
-9.11239e-07
5.00542e-05
4.76559e-05
-5.00786e-05
9.43398e-07
-9.44592e-07
9.45233e-07
-9.36685e-07
-4.76478e-05
5.00903e-05
5.98824e-07
6.22705e-07
5.96172e-07
6.22373e-07
-6.20369e-07
-5.90221e-07
-6.19756e-07
4.76357e-05
-5.0054e-05
-9.11553e-07
9.13222e-07
-9.10913e-07
5.00547e-05
4.76569e-05
-5.00803e-05
9.44887e-07
-9.36906e-07
9.43197e-07
-9.46749e-07
-4.76448e-05
5.00876e-05
5.99318e-07
6.22533e-07
5.955e-07
6.22189e-07
-6.19763e-07
-5.92228e-07
-6.21068e-07
4.76357e-05
-5.00543e-05
-9.11139e-07
9.12805e-07
-9.11093e-07
5.0054e-05
4.76556e-05
-5.00824e-05
9.42021e-07
-9.4605e-07
9.41801e-07
-9.45994e-07
-4.76484e-05
5.00867e-05
5.98039e-07
6.21942e-07
5.93487e-07
6.19824e-07
-6.22693e-07
-5.92979e-07
-6.26765e-07
4.76356e-05
-5.00562e-05
-9.11087e-07
9.12164e-07
-9.09482e-07
5.00519e-05
4.76538e-05
-5.00828e-05
9.41416e-07
-9.45813e-07
9.41881e-07
-9.44992e-07
-4.7649e-05
5.00873e-05
5.962e-07
6.19485e-07
5.92684e-07
6.18943e-07
-6.27887e-07
-5.92442e-07
-6.25947e-07
4.76338e-05
-5.00568e-05
-9.09231e-07
9.12823e-07
-9.08828e-07
5.00523e-05
4.76534e-05
-5.00831e-05
9.41399e-07
-9.45306e-07
9.41658e-07
-9.45e-07
-4.76485e-05
5.00871e-05
5.95626e-07
6.1897e-07
5.92285e-07
6.18522e-07
-6.26993e-07
-5.92584e-07
-6.26063e-07
4.76333e-05
-5.00571e-05
-9.09023e-07
9.12733e-07
-9.09091e-07
5.00522e-05
4.76531e-05
-5.0083e-05
9.41215e-07
-9.4497e-07
9.41716e-07
-9.45035e-07
-4.76485e-05
5.00873e-05
5.95328e-07
6.18613e-07
5.92315e-07
6.18661e-07
-6.27015e-07
-5.9251e-07
-6.25957e-07
4.76331e-05
-5.00567e-05
-9.09265e-07
9.13041e-07
-9.09356e-07
5.00524e-05
4.76533e-05
-5.00824e-05
9.41412e-07
-9.45491e-07
9.42157e-07
-9.45694e-07
-4.76488e-05
5.00863e-05
5.95479e-07
6.18977e-07
5.9308e-07
6.19389e-07
-6.27147e-07
-5.93299e-07
-6.26473e-07
4.76335e-05
-5.00562e-05
-9.09621e-07
9.13565e-07
-9.09861e-07
5.0052e-05
4.76539e-05
-5.00822e-05
9.41807e-07
-9.45856e-07
9.42267e-07
-9.45737e-07
-4.76494e-05
5.00864e-05
5.96211e-07
6.19616e-07
5.93339e-07
6.19613e-07
-6.27467e-07
-5.93363e-07
-6.26723e-07
4.7634e-05
-5.00562e-05
-9.10023e-07
9.13556e-07
-9.10142e-07
5.00518e-05
4.7654e-05
-5.00819e-05
9.4184e-07
-9.4624e-07
9.42439e-07
-9.46644e-07
-4.76495e-05
5.00854e-05
5.96242e-07
6.19817e-07
5.93926e-07
6.20279e-07
-6.28003e-07
-5.94238e-07
-6.27428e-07
4.7634e-05
-5.00556e-05
-9.10477e-07
9.14069e-07
-9.1059e-07
5.00514e-05
4.76543e-05
-5.00821e-05
9.41932e-07
-9.46818e-07
9.42331e-07
-9.46143e-07
-4.76502e-05
5.00863e-05
5.96576e-07
6.20567e-07
5.93862e-07
6.20244e-07
-6.28418e-07
-5.93556e-07
-6.26929e-07
4.76347e-05
-5.00555e-05
-9.10703e-07
9.14047e-07
-9.10337e-07
5.00518e-05
4.76541e-05
-5.00818e-05
9.4192e-07
-9.46134e-07
9.4246e-07
-9.45815e-07
-4.76493e-05
5.00866e-05
5.96133e-07
6.20166e-07
5.93987e-07
6.19746e-07
-6.27744e-07
-5.93006e-07
-6.2645e-07
4.76345e-05
-5.00561e-05
-9.10411e-07
9.13552e-07
-9.10496e-07
5.00521e-05
4.76543e-05
-5.0083e-05
9.4191e-07
-9.46077e-07
9.41675e-07
-9.45577e-07
-4.7649e-05
5.00869e-05
5.95638e-07
6.19861e-07
5.93212e-07
6.18933e-07
-6.27567e-07
-5.92511e-07
-6.25922e-07
4.7634e-05
-5.00566e-05
-9.10889e-07
9.13077e-07
-9.10567e-07
5.00525e-05
4.7653e-05
-5.00834e-05
9.40979e-07
-9.45637e-07
9.41364e-07
-9.45375e-07
-4.76486e-05
5.00871e-05
5.94499e-07
6.18781e-07
5.92784e-07
6.18631e-07
-6.26682e-07
-5.92229e-07
-6.25328e-07
4.76334e-05
-5.00566e-05
-9.10659e-07
9.12992e-07
-9.10271e-07
5.0053e-05
4.76528e-05
-5.00826e-05
9.41053e-07
-9.45703e-07
9.41865e-07
-9.45679e-07
-4.76485e-05
5.00866e-05
5.94725e-07
6.19022e-07
5.93518e-07
6.1932e-07
-6.26717e-07
-5.92722e-07
-6.26145e-07
4.76337e-05
-5.0056e-05
-9.10713e-07
9.13552e-07
-9.11191e-07
5.00518e-05
4.76532e-05
-5.00826e-05
9.41369e-07
-9.45835e-07
9.41792e-07
-9.45665e-07
-4.76487e-05
5.00865e-05
5.95095e-07
6.19374e-07
5.93434e-07
6.20027e-07
-6.27134e-07
-5.927e-07
-6.26704e-07
4.76342e-05
-5.00543e-05
-9.11429e-07
9.14099e-07
-9.12136e-07
5.00504e-05
4.76529e-05
-5.00818e-05
9.41467e-07
-9.46023e-07
9.42264e-07
-9.4624e-07
-4.76485e-05
5.00857e-05
5.95306e-07
6.20991e-07
5.93977e-07
6.23341e-07
-6.28494e-07
-5.93565e-07
-6.2994e-07
4.76353e-05
-5.00483e-05
-9.13131e-07
9.19398e-07
-9.16718e-07
5.0045e-05
4.76535e-05
-5.0082e-05
9.41817e-07
-9.46648e-07
9.42384e-07
-9.46332e-07
-4.76491e-05
5.00858e-05
5.95636e-07
6.23842e-07
5.94045e-07
6.22246e-07
-6.31601e-07
-5.93563e-07
-6.29339e-07
4.76397e-05
-5.00521e-05
-9.17902e-07
9.19235e-07
-9.16618e-07
5.00471e-05
4.76538e-05
-5.00821e-05
9.41851e-07
-9.46332e-07
9.42254e-07
-9.46064e-07
-4.76493e-05
5.00863e-05
5.95659e-07
6.21465e-07
5.94173e-07
6.19901e-07
-6.29393e-07
-5.93364e-07
-6.264e-07
4.76374e-05
-5.00557e-05
-9.15458e-07
9.14173e-07
-9.11953e-07
5.00518e-05
4.76539e-05
-5.00826e-05
9.4186e-07
-9.46367e-07
9.42014e-07
-9.45766e-07
-4.76494e-05
5.00865e-05
5.95939e-07
6.20093e-07
5.93751e-07
6.19447e-07
-6.27644e-07
-5.92938e-07
-6.26176e-07
4.76345e-05
-5.0056e-05
-9.12114e-07
9.13521e-07
-9.11417e-07
5.00518e-05
4.76534e-05
-5.00833e-05
9.41343e-07
-9.45732e-07
9.41518e-07
-9.45756e-07
-4.76488e-05
5.00867e-05
5.95139e-07
6.19239e-07
5.93217e-07
6.18864e-07
-6.26748e-07
-5.92657e-07
-6.25661e-07
4.76339e-05
-5.00565e-05
-9.11454e-07
9.13186e-07
-9.11173e-07
5.00521e-05
4.76528e-05
-5.00834e-05
9.41e-07
-9.46223e-07
9.41453e-07
-9.45576e-07
-4.76491e-05
5.00867e-05
5.94868e-07
6.18985e-07
5.93146e-07
6.18708e-07
-6.26686e-07
-5.92438e-07
-6.2536e-07
4.76336e-05
-5.00566e-05
-9.11352e-07
9.13006e-07
-9.11428e-07
5.00518e-05
4.76528e-05
-5.00831e-05
9.4105e-07
-9.45365e-07
9.41698e-07
-9.45321e-07
-4.76485e-05
5.00872e-05
5.94766e-07
6.18804e-07
5.93218e-07
6.18758e-07
-6.26212e-07
-5.92318e-07
-6.25194e-07
4.76335e-05
-5.00563e-05
-9.11633e-07
9.13359e-07
-9.11629e-07
5.00516e-05
4.76531e-05
-5.00825e-05
9.41361e-07
-9.45919e-07
9.42181e-07
-9.45887e-07
-4.76487e-05
5.00862e-05
5.95131e-07
6.19147e-07
5.94003e-07
6.19569e-07
-6.26585e-07
-5.93286e-07
-6.26202e-07
4.76339e-05
-5.00556e-05
-9.12132e-07
9.13861e-07
-9.12379e-07
5.00507e-05
4.76536e-05
-5.00825e-05
9.41707e-07
-9.46036e-07
9.42156e-07
-9.4589e-07
-4.76492e-05
5.00864e-05
5.95673e-07
6.19656e-07
5.94134e-07
6.19676e-07
-6.27275e-07
-5.93261e-07
-6.26475e-07
4.76344e-05
-5.00555e-05
-9.1273e-07
9.14039e-07
-9.12817e-07
5.00504e-05
4.76537e-05
-5.0082e-05
9.41807e-07
-9.46138e-07
9.425e-07
-9.46282e-07
-4.76491e-05
5.00859e-05
5.95974e-07
6.20049e-07
5.94601e-07
6.20533e-07
-6.2754e-07
-5.93747e-07
-6.26424e-07
4.76346e-05
-5.00545e-05
-9.13006e-07
9.14895e-07
-9.12802e-07
5.00504e-05
4.7654e-05
-5.00824e-05
9.42033e-07
-9.46659e-07
9.42218e-07
-9.46508e-07
-4.76497e-05
5.00857e-05
5.96255e-07
6.20684e-07
5.94282e-07
6.20073e-07
-6.27617e-07
-5.93819e-07
-6.26748e-07
4.76355e-05
-5.00554e-05
-9.13153e-07
9.14203e-07
-9.13084e-07
5.00502e-05
4.76536e-05
-5.00828e-05
9.41603e-07
-9.46516e-07
9.41912e-07
-9.45698e-07
-4.76496e-05
5.00867e-05
5.95738e-07
6.1996e-07
5.9363e-07
6.19279e-07
-6.27619e-07
-5.92882e-07
-6.25934e-07
4.76344e-05
-5.0056e-05
-9.13194e-07
9.136e-07
-9.12559e-07
5.00508e-05
4.76532e-05
-5.0083e-05
9.41452e-07
-9.45738e-07
9.41748e-07
-9.45651e-07
-4.76487e-05
5.00868e-05
5.95244e-07
6.19361e-07
5.9345e-07
6.19261e-07
-6.27015e-07
-5.92744e-07
-6.25721e-07
4.76339e-05
-5.00559e-05
-9.12723e-07
9.13729e-07
-9.12272e-07
5.00511e-05
4.7653e-05
-5.00832e-05
9.41207e-07
-9.45886e-07
9.41521e-07
-9.45623e-07
-4.76487e-05
5.00868e-05
5.9505e-07
6.19336e-07
5.93066e-07
6.18853e-07
-6.26526e-07
-5.92483e-07
-6.25318e-07
4.76341e-05
-5.00562e-05
-9.12377e-07
9.13419e-07
-9.11927e-07
5.00514e-05
4.76528e-05
-5.0083e-05
9.40947e-07
-9.45808e-07
9.42043e-07
-9.45641e-07
-4.76487e-05
5.00869e-05
5.94652e-07
6.18872e-07
5.93728e-07
6.19315e-07
-6.26445e-07
-5.92782e-07
-6.25715e-07
4.76337e-05
-5.0056e-05
-9.1218e-07
9.13712e-07
-9.12218e-07
5.00511e-05
4.76532e-05
-5.00819e-05
9.41109e-07
-9.45034e-07
9.43921e-07
-9.47368e-07
-4.76485e-05
5.00862e-05
5.94821e-07
6.18821e-07
5.95786e-07
6.21281e-07
-6.26053e-07
-5.94842e-07
-6.27864e-07
4.7634e-05
-5.00552e-05
-9.11844e-07
9.15388e-07
-9.13992e-07
5.00502e-05
4.76534e-05
-5.00778e-05
9.39273e-07
-9.43474e-07
9.49403e-07
-9.53326e-07
-4.76487e-05
5.00818e-05
5.92801e-07
6.16772e-07
6.02842e-07
6.28248e-07
-6.24278e-07
-6.02092e-07
-6.34993e-07
4.7634e-05
-5.0051e-05
-9.1007e-07
9.20658e-07
-9.19489e-07
5.00462e-05
4.76486e-05
-5.00627e-05
9.31506e-07
-9.36104e-07
9.57893e-07
-9.62134e-07
-4.76442e-05
5.00666e-05
5.85173e-07
6.09007e-07
6.14345e-07
6.39793e-07
-6.16503e-07
-6.13482e-07
-6.47404e-07
4.76291e-05
-5.00362e-05
-9.02354e-07
9.2924e-07
-9.28198e-07
5.00313e-05
4.76165e-05
-4.99014e-05
9.15959e-07
-9.20869e-07
9.51698e-07
-9.55808e-07
-4.76125e-05
4.99049e-05
5.7504e-07
5.98717e-07
6.07049e-07
6.32629e-07
-6.07414e-07
-6.06311e-07
-6.41433e-07
4.75963e-05
-4.98753e-05
-8.87198e-07
9.23068e-07
-9.22118e-07
4.98701e-05
4.74449e-05
-4.99505e-05
9.37108e-07
-9.41219e-07
8.93989e-07
-8.98315e-07
-4.74403e-05
4.99543e-05
5.995e-07
6.22235e-07
4.89574e-07
5.15492e-07
-6.3205e-07
-4.8861e-07
-5.21382e-07
4.7424e-05
-4.99248e-05
-9.08169e-07
8.64866e-07
-8.64569e-07
4.9919e-05
4.74694e-05
-4.94223e-05
1.01581e-06
-1.02074e-06
7.88399e-07
-7.93514e-07
-4.74638e-05
4.94263e-05
7.33352e-07
7.5662e-07
3.31186e-07
3.56497e-07
-7.65104e-07
-3.31057e-07
-3.63941e-07
4.74489e-05
-4.93949e-05
-9.87314e-07
7.60195e-07
-7.59241e-07
4.93904e-05
4.6881e-05
-4.90853e-05
1.13037e-06
-1.1348e-06
5.34931e-07
-5.41498e-07
-4.68743e-05
4.90889e-05
9.15077e-07
9.36562e-07
1.23946e-08
3.97562e-08
-9.45051e-07
-1.16066e-08
-4.47474e-08
4.6861e-05
-4.90593e-05
-1.10168e-06
5.06605e-07
-5.06965e-07
4.9053e-05
4.63398e-05
-4.80236e-05
1.41398e-06
-1.41935e-06
-2.4023e-08
1.62016e-08
-4.63347e-05
4.80273e-05
1.33874e-06
1.36317e-06
-6.59864e-07
-6.27763e-07
-1.36839e-06
6.60618e-07
6.33298e-07
4.63197e-05
-4.79999e-05
-1.38626e-06
-5.04548e-08
4.86145e-08
4.79932e-05
4.5118e-05
-4.51172e-05
2.06052e-06
-2.0658e-06
-1.27734e-06
1.26581e-06
-4.51172e-05
4.51207e-05
2.20897e-06
2.23417e-06
-2.04941e-06
-2.01503e-06
-2.23211e-06
2.04155e-06
2.01363e-06
4.51043e-05
-4.50933e-05
-2.03381e-06
-1.29816e-06
1.29378e-06
4.5079e-05
4.13934e-05
-3.65564e-05
3.38118e-06
-3.39049e-06
-5.22572e-06
5.20215e-06
-4.1396e-05
3.6528e-05
3.8202e-06
3.8441e-06
-6.82481e-06
-6.79961e-06
-3.84944e-06
6.80226e-06
6.78932e-06
4.13911e-05
-3.65344e-05
-3.35915e-06