/*--------------------------------*- C++ -*----------------------------------*\
| =========                 |                                                 |
| \\      /  F ield         | OpenFOAM: The Open Source CFD Toolbox           |
|  \\    /   O peration     | Version:  2206                                  |
|   \\  /    A nd           | Website:  www.openfoam.com                      |
|    \\/     M anipulation  |                                                 |
\*---------------------------------------------------------------------------*/
FoamFile
{
    version     2.0;
    format      ascii;
    arch        "LSB;label=32;scalar=64";
    class       volScalarField;
    location    "2";
    object      p;
}
// * * * * * * * * * * * * * * * * * * * * * * * * * * * * * * * * * * * * * //

dimensions      [0 2 -2 0 0 0 0];

internalField   nonuniform List<scalar> 
28448
(
0.00119082
0.0011908
0.0011908
0.00119318
0.00114978
0.00114976
0.00114976
0.00115214
0.00110873
0.00110871
0.00110871
0.0011111
0.00106769
0.00106767
0.00106767
0.00107005
0.00102665
0.00102663
0.00102663
0.00102901
0.000985604
0.000985583
0.000985583
0.000987969
0.00094456
0.000944539
0.000944539
0.000946925
0.000903517
0.000903496
0.000903495
0.000905882
0.000862473
0.000862452
0.000862452
0.000864838
0.00082143
0.000821408
0.000821408
0.000823794
0.000780386
0.000780365
0.000780365
0.000782751
0.000739343
0.000739321
0.000739322
0.000741707
0.000698299
0.000698278
0.000698278
0.000700664
0.000657255
0.000657234
0.000657234
0.00065962
0.000616212
0.00061619
0.000616191
0.000618577
0.000575168
0.000575147
0.000575147
0.000577533
0.000534125
0.000534103
0.000534104
0.00053649
0.000493087
0.000493064
0.00119868
0.00120105
0.00120105
0.00119868
0.00120105
0.00120105
0.00120105
0.00120106
0.00119869
0.00120106
0.00120105
0.00119869
0.00119318
0.00115765
0.0011908
0.0011908
0.00116002
0.00116002
0.00119318
0.00115765
0.0011908
0.0011908
0.00116002
0.00116002
0.0011908
0.00116002
0.00116002
0.00119318
0.00115764
0.0011908
0.00116002
0.00116002
0.00115764
0.00115214
0.0011166
0.00114976
0.00114976
0.00111897
0.00111897
0.00115214
0.0011166
0.00114976
0.00114976
0.00111897
0.00111897
0.00114976
0.00111897
0.00111897
0.00115214
0.0011166
0.00114976
0.00111897
0.00111897
0.0011166
0.0011111
0.00107556
0.00110871
0.00110871
0.00107793
0.00107793
0.0011111
0.00107556
0.00110871
0.00110871
0.00107793
0.00107793
0.00110871
0.00107793
0.00107793
0.0011111
0.00107556
0.00110871
0.00107793
0.00107793
0.00107556
0.00107005
0.00103451
0.00106767
0.00106767
0.00103689
0.00103689
0.00107005
0.00103451
0.00106767
0.00106767
0.00103689
0.00103689
0.00106767
0.00103689
0.00103689
0.00107005
0.00103451
0.00106767
0.00103689
0.00103689
0.00103451
0.00102901
0.000993472
0.00102663
0.00102663
0.000995843
0.000995843
0.00102901
0.000993472
0.00102663
0.00102663
0.000995843
0.000995843
0.00102663
0.000995843
0.000995844
0.00102901
0.000993472
0.00102663
0.000995844
0.000995844
0.000993472
0.000987968
0.000952428
0.000985582
0.000985582
0.0009548
0.0009548
0.000987968
0.000952429
0.000985582
0.000985582
0.0009548
0.0009548
0.000985583
0.0009548
0.0009548
0.000987968
0.000952428
0.000985583
0.0009548
0.0009548
0.000952428
0.000946925
0.000911385
0.000944539
0.000944539
0.000913757
0.000913756
0.000946925
0.000911385
0.000944539
0.000944539
0.000913756
0.000913756
0.000944539
0.000913757
0.000913757
0.000946925
0.000911385
0.000944539
0.000913756
0.000913756
0.000911385
0.000905882
0.000870341
0.000903496
0.000903496
0.000872713
0.000872713
0.000905882
0.000870341
0.000903496
0.000903495
0.000872713
0.000872713
0.000903496
0.000872713
0.000872713
0.000905881
0.000870341
0.000903495
0.000872713
0.000872713
0.000870341
0.000864838
0.000829298
0.000862452
0.000862452
0.000831669
0.000831669
0.000864838
0.000829298
0.000862452
0.000862452
0.000831669
0.000831669
0.000862452
0.000831669
0.00083167
0.000864838
0.000829298
0.000862452
0.000831669
0.000831669
0.000829298
0.000823794
0.000788254
0.000821408
0.000821408
0.000790626
0.000790625
0.000823794
0.000788254
0.000821408
0.000821408
0.000790625
0.000790626
0.000821409
0.000790626
0.000790626
0.000823794
0.000788254
0.000821408
0.000790626
0.000790626
0.000788254
0.000782751
0.000747211
0.000780365
0.000780364
0.000749582
0.000749582
0.00078275
0.000747211
0.000780365
0.000780365
0.000749582
0.000749582
0.000780365
0.000749582
0.000749583
0.000782751
0.000747211
0.000780365
0.000749582
0.000749582
0.000747211
0.000741707
0.000706167
0.000739321
0.000739321
0.000708539
0.000708538
0.000741707
0.000706167
0.000739321
0.000739321
0.000708539
0.000708539
0.000739322
0.000708539
0.000708539
0.000741707
0.000706167
0.000739321
0.000708539
0.000708539
0.000706167
0.000700664
0.000665123
0.000698278
0.000698277
0.000667495
0.000667495
0.000700663
0.000665123
0.000698278
0.000698278
0.000667495
0.000667495
0.000698278
0.000667495
0.000667495
0.000700664
0.000665124
0.000698278
0.000667495
0.000667495
0.000665124
0.00065962
0.00062408
0.000657234
0.000657234
0.000626451
0.000626451
0.00065962
0.00062408
0.000657234
0.000657234
0.000626451
0.000626451
0.000657234
0.000626451
0.000626452
0.00065962
0.00062408
0.000657234
0.000626452
0.000626451
0.00062408
0.000618576
0.000583037
0.00061619
0.00061619
0.000585408
0.000585408
0.000618576
0.000583036
0.00061619
0.000616191
0.000585408
0.000585408
0.000616191
0.000585408
0.000585408
0.000618577
0.000583037
0.00061619
0.000585408
0.000585408
0.000583036
0.000577533
0.000541993
0.000575147
0.000575147
0.000544365
0.000544364
0.000577533
0.000541993
0.000575147
0.000575147
0.000544365
0.000544365
0.000575147
0.000544364
0.000544365
0.000577533
0.000541993
0.000575147
0.000544365
0.000544365
0.000541993
0.00053649
0.000500951
0.000534104
0.000534103
0.000503323
0.000536489
0.000534104
0.000534104
0.000503323
0.000503323
0.000534104
0.000503324
0.00053649
0.000500951
0.000534104
0.000503323
0.000503323
0.000500952
0.000495449
0.000493065
0.000493064
0.000495449
0.00120107
0.00120107
0.00120108
0.00120107
0.00117801
0.00119336
0.00119336
0.001178
0.00119335
0.001178
0.00117801
0.00119337
0.00119336
0.001178
0.00119082
0.00119082
0.00119082
0.00116004
0.00116004
0.00116004
0.00116004
0.00117807
0.00119333
0.0011908
0.00118054
0.00119329
0.00117803
0.00118054
0.00119336
0.001178
0.00117807
0.0011908
0.00119333
0.00118054
0.00119329
0.00118054
0.00117803
0.00119337
0.00119337
0.00117817
0.001178
0.001178
0.00113696
0.00115232
0.00115231
0.00113696
0.00115232
0.00113695
0.00113696
0.00115232
0.00115231
0.00113696
0.00114978
0.00114978
0.00114978
0.00111899
0.00111899
0.00111899
0.00111899
0.00113703
0.00115228
0.00114976
0.00113949
0.00115225
0.00113699
0.0011395
0.00115232
0.00113695
0.00113703
0.00114976
0.00115228
0.00113949
0.00115225
0.0011395
0.00113699
0.00115232
0.00115232
0.00113712
0.00113696
0.00113696
0.00109592
0.00111127
0.00111127
0.00109591
0.00111128
0.00109591
0.00109592
0.00111127
0.00111127
0.00109591
0.00110873
0.00110873
0.00110873
0.00107795
0.00107795
0.00107795
0.00107795
0.00109598
0.00111124
0.00110872
0.00109845
0.00111121
0.00109594
0.00109846
0.00111128
0.00109591
0.00109598
0.00110872
0.00111124
0.00109845
0.00111121
0.00109846
0.00109594
0.00111127
0.00111127
0.00109608
0.00109591
0.00109591
0.00105488
0.00107023
0.00107022
0.00105487
0.00107023
0.00105487
0.00105488
0.00107023
0.00107022
0.00105487
0.00106769
0.00106769
0.00106769
0.00103691
0.00103691
0.00103691
0.00103691
0.00105494
0.0010702
0.00106768
0.00105741
0.00107016
0.0010549
0.00105741
0.00107023
0.00105487
0.00105494
0.00106767
0.0010702
0.00105741
0.00107016
0.00105741
0.0010549
0.00107023
0.00107023
0.00105504
0.00105487
0.00105487
0.00101383
0.00102919
0.00102918
0.00101383
0.00102919
0.00101382
0.00101383
0.00102919
0.00102918
0.00101383
0.00102665
0.00102665
0.00102665
0.000995864
0.000995864
0.000995865
0.000995864
0.0010139
0.00102915
0.00102663
0.00101636
0.00102912
0.00101386
0.00101637
0.00102919
0.00101382
0.0010139
0.00102663
0.00102915
0.00101636
0.00102912
0.00101637
0.00101386
0.00102919
0.00102919
0.00101399
0.00101383
0.00101383
0.000972791
0.000988144
0.000988138
0.000972783
0.000988148
0.00097278
0.00097279
0.000988144
0.000988138
0.000972782
0.000985603
0.000985604
0.000985603
0.000954821
0.000954821
0.000954821
0.000954821
0.000972854
0.000988111
0.000985589
0.000975322
0.000988078
0.000972815
0.000975328
0.000988148
0.00097278
0.000972854
0.000985589
0.000988112
0.000975322
0.000988078
0.000975328
0.000972815
0.000988145
0.000988145
0.00097295
0.000972783
0.000972783
0.000931748
0.000947101
0.000947095
0.000931739
0.000947105
0.000931736
0.000931747
0.000947101
0.000947095
0.000931739
0.00094456
0.00094456
0.00094456
0.000913778
0.000913778
0.000913778
0.000913777
0.00093181
0.000947068
0.000944546
0.000934278
0.000947034
0.000931772
0.000934285
0.000947105
0.000931736
0.00093181
0.000944545
0.000947068
0.000934278
0.000947034
0.000934284
0.000931771
0.000947101
0.000947101
0.000931906
0.000931739
0.000931739
0.000890704
0.000906058
0.000906052
0.000890696
0.000906061
0.000890693
0.000890704
0.000906058
0.000906052
0.000890696
0.000903517
0.000903517
0.000903516
0.000872734
0.000872734
0.000872734
0.000872733
0.000890767
0.000906024
0.000903502
0.000893235
0.000905991
0.000890728
0.000893241
0.000906061
0.000890693
0.000890767
0.000903502
0.000906024
0.000893235
0.00090599
0.000893241
0.000890728
0.000906058
0.000906058
0.000890863
0.000890696
0.000890696
0.00084966
0.000865014
0.000865008
0.000849652
0.000865018
0.000849649
0.00084966
0.000865014
0.000865008
0.000849652
0.000862473
0.000862473
0.000862472
0.00083169
0.00083169
0.000831691
0.00083169
0.000849723
0.00086498
0.000862458
0.000852191
0.000864947
0.000849684
0.000852197
0.000865017
0.000849649
0.000849723
0.000862458
0.00086498
0.000852191
0.000864946
0.000852197
0.000849684
0.000865014
0.000865014
0.000849819
0.000849652
0.000849652
0.000808616
0.00082397
0.000823964
0.000808608
0.000823974
0.000808605
0.000808616
0.00082397
0.000823964
0.000808608
0.000821429
0.00082143
0.000821429
0.000790647
0.000790647
0.000790647
0.000790646
0.000808679
0.000823937
0.000821415
0.000811147
0.000823903
0.000808641
0.000811154
0.000823974
0.000808605
0.00080868
0.000821415
0.000823937
0.000811147
0.000823903
0.000811154
0.000808641
0.000823971
0.000823971
0.000808776
0.000808609
0.000808609
0.000767573
0.000782926
0.00078292
0.000767565
0.00078293
0.000767562
0.000767573
0.000782927
0.000782921
0.000767565
0.000780386
0.000780386
0.000780385
0.000749603
0.000749603
0.000749604
0.000749603
0.000767636
0.000782893
0.000780371
0.000770104
0.00078286
0.000767597
0.00077011
0.00078293
0.000767562
0.000767636
0.000780371
0.000782894
0.000770104
0.000782859
0.00077011
0.000767597
0.000782927
0.000782927
0.000767732
0.000767565
0.000767565
0.000726529
0.000741883
0.000741877
0.000726521
0.000741887
0.000726518
0.00072653
0.000741883
0.000741878
0.000726521
0.000739342
0.000739343
0.000739342
0.00070856
0.00070856
0.00070856
0.00070856
0.000726593
0.00074185
0.000739328
0.00072906
0.000741816
0.000726554
0.000729067
0.000741887
0.000726519
0.000726593
0.000739328
0.00074185
0.000729061
0.000741816
0.000729067
0.000726554
0.000741884
0.000741884
0.000726689
0.000726522
0.000726522
0.000685486
0.000700839
0.000700834
0.000685477
0.000700843
0.000685475
0.000685486
0.00070084
0.000700834
0.000685478
0.000698299
0.000698299
0.000698299
0.000667516
0.000667516
0.000667517
0.000667516
0.000685549
0.000700806
0.000698284
0.000688017
0.000700773
0.00068551
0.000688023
0.000700844
0.000685475
0.000685549
0.000698284
0.000700807
0.000688017
0.000700773
0.000688023
0.000685511
0.00070084
0.00070084
0.000685645
0.000685478
0.000685478
0.000644442
0.000659796
0.00065979
0.000644434
0.000659799
0.000644431
0.000644442
0.000659796
0.00065979
0.000644434
0.000657255
0.000657256
0.000657255
0.000626472
0.000626472
0.000626473
0.000626472
0.000644505
0.000659762
0.00065724
0.000646973
0.000659729
0.000644466
0.000646979
0.0006598
0.000644431
0.000644505
0.000657241
0.000659763
0.000646973
0.000659729
0.00064698
0.000644467
0.000659796
0.000659797
0.000644602
0.000644435
0.000644435
0.000603399
0.000618752
0.000618746
0.00060339
0.000618756
0.000603388
0.000603399
0.000618753
0.000618747
0.000603391
0.000616211
0.000616212
0.000616211
0.000585429
0.000585429
0.00058543
0.000585429
0.000603462
0.000618719
0.000616197
0.000605929
0.000618685
0.000603423
0.000605936
0.000618756
0.000603388
0.000603462
0.000616197
0.000618719
0.00060593
0.000618685
0.000605936
0.000603423
0.000618753
0.000618753
0.000603558
0.000603391
0.000603391
0.000562355
0.000577709
0.000577703
0.000562347
0.000577713
0.000562344
0.000562356
0.000577709
0.000577704
0.000562347
0.000575168
0.000575169
0.000575168
0.000544386
0.000544385
0.000544386
0.000544385
0.000562418
0.000577676
0.000575154
0.000564886
0.000577642
0.00056238
0.000564893
0.000577713
0.000562345
0.000562419
0.000575154
0.000577676
0.000564887
0.000577642
0.000564893
0.00056238
0.000577709
0.000577709
0.000562515
0.000562348
0.000562348
0.000521311
0.000536665
0.000536659
0.000521303
0.000536668
0.000521299
0.000521312
0.000536666
0.00053666
0.000521304
0.000534125
0.000534125
0.000534124
0.000503345
0.000503346
0.000503345
0.000503344
0.000521374
0.000536631
0.00053411
0.000523843
0.000536598
0.000521334
0.00052385
0.00053667
0.000521301
0.000521375
0.00053411
0.000536632
0.000523843
0.000536598
0.00052385
0.000521336
0.000536666
0.000536666
0.000521471
0.000521303
0.000521303
0.000495621
0.000495616
0.000493086
0.000495624
0.000495589
0.00119851
0.00119851
0.00119851
0.00119851
0.00119851
0.00119852
0.00119851
0.00119852
0.00119854
0.00120106
0.00119859
0.00119854
0.00120106
0.00119859
0.00119851
0.00119851
0.00119851
0.00119852
0.00119851
0.00119852
0.00119855
0.00120106
0.00119859
0.00121385
0.00119853
0.00121386
0.00119853
0.0012138
0.00121131
0.00120106
0.00119856
0.00121132
0.00121383
0.00119859
0.0012138
0.00119855
0.00120106
0.00121132
0.00119859
0.00121385
0.00119852
0.00119853
0.0012138
0.00121131
0.00120106
0.00119856
0.00121132
0.00121383
0.00119859
0.00121385
0.00119853
0.00121386
0.00119853
0.00119851
0.00121389
0.00121369
0.00119853
0.00119853
0.00121385
0.00121385
0.00119851
0.00121389
0.0012138
0.00121131
0.00120106
0.00119856
0.00121132
0.00121383
0.00119859
0.0012138
0.00121131
0.00120106
0.00119856
0.00121132
0.00121383
0.00119859
0.00121385
0.00119853
0.00121386
0.00119854
0.00121385
0.00119853
0.00121386
0.00119854
0.00121369
0.00119853
0.00119853
0.00121385
0.00121385
0.00119851
0.00121389
0.00119851
0.00121389
0.00119335
0.001178
0.00119335
0.001178
0.00119337
0.00119337
0.00117817
0.001178
0.001178
0.00115748
0.00117285
0.00115748
0.00117285
0.00117266
0.00115748
0.00115748
0.00117284
0.00117284
0.00117801
0.00119337
0.00119336
0.001178
0.00117807
0.00119333
0.0011908
0.00118054
0.00119329
0.00117804
0.00118054
0.00117807
0.00119333
0.0011908
0.00118054
0.00119329
0.00117803
0.00118054
0.00117284
0.00115748
0.00117284
0.00115749
0.00117284
0.00115748
0.00117284
0.00115749
0.00117277
0.00117028
0.00115751
0.00116002
0.00117281
0.00117028
0.00115755
0.00117277
0.00117028
0.00115751
0.00116002
0.00117281
0.00117028
0.00115755
0.00119337
0.00119337
0.00117817
0.001178
0.001178
0.00119336
0.001178
0.00115748
0.00117284
0.00117266
0.00115748
0.00115748
0.00117284
0.00117284
0.00115748
0.00117284
0.00117807
0.00119333
0.0011908
0.00118054
0.00119329
0.00117804
0.00118054
0.00117801
0.00119337
0.00119336
0.001178
0.00117807
0.0011908
0.00119333
0.00118054
0.00119329
0.00118054
0.00117803
0.00117284
0.00115748
0.00117284
0.00115749
0.00117277
0.00117028
0.00115751
0.00116002
0.00117281
0.00117028
0.00115755
0.00117283
0.00115748
0.00117284
0.00115749
0.00117277
0.00117028
0.00116002
0.00115751
0.00117028
0.00117281
0.00115755
0.00117801
0.00119337
0.00119336
0.001178
0.00117807
0.0011908
0.00119333
0.00118054
0.00119329
0.00118054
0.00117803
0.00117801
0.00119337
0.00119336
0.001178
0.00117277
0.00117028
0.00115751
0.00116002
0.00117281
0.00117028
0.00115755
0.00117283
0.00115748
0.00117284
0.00115749
0.00117277
0.00117028
0.00116002
0.00115751
0.00117028
0.00117281
0.00115755
0.00117283
0.00115748
0.00117284
0.00115749
0.00119337
0.00119337
0.00117817
0.001178
0.001178
0.00119336
0.001178
0.00115747
0.00117284
0.00117266
0.00115748
0.00115748
0.00117284
0.00117284
0.00115748
0.00117284
0.00117807
0.0011908
0.00119333
0.00118054
0.00119329
0.00118054
0.00117803
0.00117801
0.00119337
0.00119336
0.001178
0.00117801
0.00119337
0.00119336
0.001178
0.00117277
0.00117028
0.00116002
0.00115751
0.00117028
0.00117281
0.00115755
0.00117277
0.00117028
0.00116002
0.00115751
0.00117028
0.00117281
0.00115755
0.00117283
0.00115748
0.00117284
0.00115749
0.00117283
0.00115748
0.00117284
0.00115749
0.00119336
0.001178
0.00119336
0.001178
0.00117266
0.00115748
0.00115748
0.00117284
0.00117284
0.00115748
0.00117284
0.00115748
0.00117284
0.00115232
0.00113695
0.00115232
0.00113695
0.00115232
0.00115232
0.00113712
0.00113696
0.00113696
0.00111643
0.0011318
0.00111643
0.0011318
0.00113162
0.00111643
0.00111643
0.0011318
0.0011318
0.00113696
0.00115232
0.00115231
0.00113696
0.00113703
0.00115228
0.00114976
0.00113949
0.00115225
0.00113699
0.0011395
0.00113703
0.00115228
0.00114976
0.00113949
0.00115225
0.00113699
0.0011395
0.00113179
0.00111643
0.0011318
0.00111644
0.00113179
0.00111643
0.0011318
0.00111644
0.00113173
0.00112923
0.00111647
0.00111898
0.00113176
0.00112924
0.00111651
0.00113173
0.00112923
0.00111647
0.00111898
0.00113176
0.00112924
0.00111651
0.00115232
0.00115232
0.00113712
0.00113696
0.00113696
0.00115232
0.00113695
0.00111643
0.0011318
0.00113162
0.00111643
0.00111643
0.0011318
0.0011318
0.00111643
0.0011318
0.00113703
0.00115228
0.00114976
0.00113949
0.00115225
0.00113699
0.0011395
0.00113696
0.00115232
0.00115231
0.00113696
0.00113703
0.00114976
0.00115228
0.00113949
0.00115225
0.0011395
0.00113699
0.00113179
0.00111643
0.0011318
0.00111644
0.00113173
0.00112923
0.00111647
0.00111898
0.00113176
0.00112924
0.00111651
0.00113179
0.00111643
0.0011318
0.00111644
0.00113173
0.00112923
0.00111898
0.00111647
0.00112924
0.00113176
0.0011165
0.00113696
0.00115232
0.00115231
0.00113696
0.00113703
0.00114976
0.00115228
0.0011395
0.00115225
0.0011395
0.00113699
0.00113696
0.00115232
0.00115231
0.00113696
0.00113173
0.00112923
0.00111647
0.00111898
0.00113176
0.00112924
0.00111651
0.00113179
0.00111643
0.0011318
0.00111644
0.00113173
0.00112923
0.00111898
0.00111647
0.00112924
0.00113176
0.00111651
0.00113179
0.00111643
0.0011318
0.00111644
0.00115232
0.00115232
0.00113712
0.00113696
0.00113696
0.00115232
0.00113695
0.00111643
0.0011318
0.00113162
0.00111643
0.00111643
0.0011318
0.0011318
0.00111643
0.0011318
0.00113703
0.00114976
0.00115228
0.00113949
0.00115225
0.0011395
0.00113699
0.00113696
0.00115232
0.00115231
0.00113696
0.00113696
0.00115232
0.00115231
0.00113696
0.00113173
0.00112923
0.00111898
0.00111647
0.00112924
0.00113176
0.0011165
0.00113173
0.00112923
0.00111898
0.00111647
0.00112924
0.00113176
0.00111651
0.00113179
0.00111643
0.0011318
0.00111644
0.00113179
0.00111643
0.0011318
0.00111644
0.00115232
0.00113695
0.00115232
0.00113695
0.00113162
0.00111643
0.00111643
0.0011318
0.0011318
0.00111643
0.0011318
0.00111643
0.0011318
0.00111128
0.00109591
0.00111128
0.00109591
0.00111127
0.00111127
0.00109608
0.00109591
0.00109591
0.00107539
0.00109076
0.00107539
0.00109076
0.00109058
0.00107539
0.00107539
0.00109075
0.00109075
0.00109592
0.00111127
0.00111127
0.00109591
0.00109598
0.00111124
0.00110872
0.00109845
0.00111121
0.00109594
0.00109846
0.00109598
0.00111124
0.00110872
0.00109845
0.00111121
0.00109594
0.00109846
0.00109075
0.00107539
0.00109075
0.0010754
0.00109075
0.00107539
0.00109075
0.0010754
0.00109069
0.00108819
0.00107542
0.00107794
0.00109072
0.0010882
0.00107546
0.00109069
0.00108819
0.00107542
0.00107794
0.00109072
0.0010882
0.00107546
0.00111127
0.00111127
0.00109608
0.00109591
0.00109591
0.00111128
0.00109591
0.00107539
0.00109076
0.00109058
0.00107539
0.00107539
0.00109075
0.00109075
0.00107539
0.00109076
0.00109598
0.00111124
0.00110872
0.00109845
0.00111121
0.00109594
0.00109846
0.00109592
0.00111127
0.00111127
0.00109591
0.00109598
0.00110872
0.00111124
0.00109845
0.00111121
0.00109846
0.00109594
0.00109075
0.00107539
0.00109075
0.0010754
0.00109068
0.00108819
0.00107542
0.00107794
0.00109072
0.0010882
0.00107546
0.00109075
0.00107539
0.00109075
0.0010754
0.00109068
0.00108819
0.00107794
0.00107542
0.0010882
0.00109072
0.00107546
0.00109592
0.00111127
0.00111127
0.00109591
0.00109598
0.00110872
0.00111124
0.00109845
0.00111121
0.00109846
0.00109594
0.00109592
0.00111127
0.00111127
0.00109591
0.00109069
0.00108819
0.00107542
0.00107794
0.00109072
0.0010882
0.00107546
0.00109075
0.00107539
0.00109075
0.0010754
0.00109069
0.00108819
0.00107794
0.00107542
0.0010882
0.00109072
0.00107546
0.00109075
0.00107539
0.00109075
0.0010754
0.00111127
0.00111127
0.00109608
0.00109591
0.00109591
0.00111128
0.00109591
0.00107539
0.00109076
0.00109058
0.00107539
0.00107539
0.00109075
0.00109075
0.00107539
0.00109076
0.00109598
0.00110872
0.00111124
0.00109845
0.00111121
0.00109846
0.00109594
0.00109592
0.00111127
0.00111127
0.00109591
0.00109592
0.00111127
0.00111127
0.00109591
0.00109068
0.00108819
0.00107794
0.00107542
0.0010882
0.00109072
0.00107546
0.00109068
0.00108819
0.00107794
0.00107542
0.0010882
0.00109072
0.00107546
0.00109075
0.00107539
0.00109075
0.0010754
0.00109075
0.00107539
0.00109075
0.0010754
0.00111128
0.00109591
0.00111128
0.00109591
0.00109058
0.00107539
0.00107539
0.00109075
0.00109075
0.00107539
0.00109076
0.00107539
0.00109076
0.00107023
0.00105487
0.00107023
0.00105487
0.00107023
0.00107023
0.00105504
0.00105487
0.00105487
0.00103434
0.00104971
0.00103434
0.00104971
0.00104953
0.00103435
0.00103435
0.00104971
0.00104971
0.00105488
0.00107023
0.00107022
0.00105487
0.00105494
0.0010702
0.00106767
0.00105741
0.00107016
0.0010549
0.00105741
0.00105494
0.0010702
0.00106768
0.00105741
0.00107016
0.0010549
0.00105741
0.0010497
0.00103435
0.00104971
0.00103436
0.0010497
0.00103435
0.00104971
0.00103436
0.00104964
0.00104715
0.00103438
0.00103689
0.00104968
0.00104715
0.00103442
0.00104964
0.00104715
0.00103438
0.00103689
0.00104968
0.00104715
0.00103442
0.00107023
0.00107023
0.00105504
0.00105487
0.00105487
0.00107023
0.00105487
0.00103434
0.00104971
0.00104953
0.00103435
0.00103435
0.00104971
0.00104971
0.00103434
0.00104971
0.00105494
0.0010702
0.00106767
0.00105741
0.00107016
0.0010549
0.00105741
0.00105488
0.00107023
0.00107022
0.00105487
0.00105494
0.00106767
0.0010702
0.00105741
0.00107016
0.00105741
0.0010549
0.0010497
0.00103435
0.00104971
0.00103436
0.00104964
0.00104715
0.00103438
0.00103689
0.00104968
0.00104715
0.00103442
0.0010497
0.00103435
0.00104971
0.00103436
0.00104964
0.00104715
0.00103689
0.00103438
0.00104715
0.00104968
0.00103442
0.00105488
0.00107023
0.00107022
0.00105487
0.00105494
0.00106768
0.0010702
0.00105741
0.00107016
0.00105741
0.0010549
0.00105488
0.00107023
0.00107022
0.00105487
0.00104964
0.00104715
0.00103438
0.00103689
0.00104968
0.00104715
0.00103442
0.0010497
0.00103435
0.00104971
0.00103436
0.00104964
0.00104715
0.00103689
0.00103438
0.00104715
0.00104968
0.00103442
0.0010497
0.00103435
0.00104971
0.00103436
0.00107023
0.00107023
0.00105504
0.00105487
0.00105487
0.00107023
0.00105486
0.00103434
0.00104971
0.00104953
0.00103435
0.00103435
0.00104971
0.00104971
0.00103434
0.00104971
0.00105494
0.00106767
0.0010702
0.00105741
0.00107016
0.00105741
0.0010549
0.00105487
0.00107023
0.00107022
0.00105487
0.00105487
0.00107023
0.00107022
0.00105487
0.00104964
0.00104715
0.00103689
0.00103438
0.00104715
0.00104967
0.00103442
0.00104964
0.00104715
0.00103689
0.00103438
0.00104715
0.00104967
0.00103442
0.0010497
0.00103435
0.00104971
0.00103436
0.0010497
0.00103435
0.00104971
0.00103435
0.00107023
0.00105487
0.00107023
0.00105487
0.00104953
0.00103435
0.00103435
0.00104971
0.00104971
0.00103434
0.00104971
0.00103434
0.00104971
0.00102919
0.00101382
0.00102919
0.00101382
0.00102919
0.00102919
0.00101399
0.00101383
0.00101383
0.000993302
0.00100867
0.000993302
0.00100867
0.00100849
0.000993304
0.000993304
0.00100867
0.00100867
0.00101383
0.00102919
0.00102918
0.00101383
0.0010139
0.00102915
0.00102663
0.00101636
0.00102912
0.00101386
0.00101637
0.0010139
0.00102915
0.00102663
0.00101636
0.00102912
0.00101386
0.00101637
0.00100866
0.000993304
0.00100867
0.000993313
0.00100866
0.000993304
0.00100867
0.000993312
0.0010086
0.0010061
0.000993337
0.00099585
0.00100863
0.00100611
0.000993375
0.0010086
0.0010061
0.000993336
0.00099585
0.00100863
0.00100611
0.000993375
0.00102919
0.00102919
0.00101399
0.00101383
0.00101383
0.00102919
0.00101382
0.000993302
0.00100867
0.00100849
0.000993305
0.000993305
0.00100867
0.00100867
0.000993302
0.00100867
0.0010139
0.00102915
0.00102663
0.00101636
0.00102912
0.00101386
0.00101637
0.00101383
0.00102919
0.00102918
0.00101383
0.0010139
0.00102663
0.00102915
0.00101636
0.00102912
0.00101637
0.00101386
0.00100866
0.000993304
0.00100867
0.000993312
0.0010086
0.0010061
0.000993337
0.000995849
0.00100863
0.00100611
0.000993375
0.00100866
0.000993304
0.00100867
0.000993312
0.0010086
0.0010061
0.00099585
0.000993337
0.00100611
0.00100863
0.000993375
0.00101383
0.00102919
0.00102918
0.00101383
0.0010139
0.00102663
0.00102915
0.00101637
0.00102912
0.00101637
0.00101386
0.00101383
0.00102919
0.00102918
0.00101383
0.0010086
0.0010061
0.000993337
0.00099585
0.00100863
0.00100611
0.000993375
0.00100866
0.000993304
0.00100867
0.000993313
0.0010086
0.0010061
0.00099585
0.000993337
0.00100611
0.00100863
0.000993376
0.00100866
0.000993304
0.00100867
0.000993313
0.00102919
0.00102919
0.00101399
0.00101383
0.00101383
0.00102919
0.00101382
0.000993301
0.00100867
0.00100849
0.000993305
0.000993305
0.00100867
0.00100867
0.000993302
0.00100867
0.0010139
0.00102663
0.00102915
0.00101636
0.00102912
0.00101637
0.00101386
0.00101383
0.00102919
0.00102918
0.00101383
0.00101383
0.00102919
0.00102918
0.00101383
0.0010086
0.0010061
0.00099585
0.000993337
0.00100611
0.00100863
0.000993377
0.0010086
0.0010061
0.00099585
0.000993337
0.00100611
0.00100863
0.000993377
0.00100866
0.000993305
0.00100867
0.000993314
0.00100866
0.000993305
0.00100867
0.000993314
0.00102919
0.00101382
0.00102919
0.00101382
0.00100849
0.000993304
0.000993305
0.00100867
0.00100867
0.000993302
0.00100867
0.000993303
0.00100867
0.000988148
0.00097278
0.000988148
0.00097278
0.000988145
0.000988145
0.00097295
0.000972783
0.000972783
0.000952258
0.000967626
0.000952258
0.000967626
0.000967447
0.000952261
0.000952261
0.000967624
0.000967623
0.000972791
0.000988145
0.000988138
0.000972783
0.000972854
0.000988111
0.000985589
0.000975322
0.000988077
0.000972815
0.000975328
0.000972854
0.000988111
0.000985589
0.000975322
0.000988077
0.000972815
0.000975328
0.000967617
0.00095226
0.000967623
0.000952269
0.000967617
0.000952261
0.000967623
0.000952269
0.000967556
0.000965061
0.000952293
0.000954806
0.00096759
0.000965067
0.000952332
0.000967556
0.000965061
0.000952293
0.000954806
0.00096759
0.000965067
0.000952332
0.000988145
0.000988145
0.00097295
0.000972783
0.000972783
0.000988149
0.00097278
0.000952258
0.000967626
0.000967447
0.000952261
0.000952261
0.000967624
0.000967623
0.000952258
0.000967627
0.000972854
0.000988111
0.000985589
0.000975321
0.000988077
0.000972815
0.000975328
0.00097279
0.000988144
0.000988138
0.000972782
0.000972854
0.000985589
0.000988111
0.000975322
0.000988077
0.000975328
0.000972815
0.000967617
0.00095226
0.000967623
0.000952269
0.000967555
0.000965061
0.000952293
0.000954806
0.00096759
0.000965067
0.000952332
0.000967616
0.000952261
0.000967623
0.000952269
0.000967555
0.000965061
0.000954806
0.000952293
0.000965067
0.000967589
0.000952332
0.000972791
0.000988145
0.000988138
0.000972783
0.000972854
0.000985589
0.000988111
0.000975322
0.000988077
0.000975328
0.000972815
0.000972791
0.000988145
0.000988138
0.000972783
0.000967556
0.000965061
0.000952293
0.000954806
0.00096759
0.000965067
0.000952332
0.000967617
0.000952261
0.000967623
0.000952269
0.000967556
0.000965061
0.000954807
0.000952293
0.000965067
0.00096759
0.000952332
0.000967617
0.00095226
0.000967623
0.000952269
0.000988145
0.000988145
0.00097295
0.000972783
0.000972783
0.000988149
0.00097278
0.000952258
0.000967626
0.000967447
0.000952261
0.000952261
0.000967623
0.000967624
0.000952258
0.000967627
0.000972854
0.000985589
0.000988112
0.000975322
0.000988078
0.000975328
0.000972816
0.000972791
0.000988145
0.000988139
0.000972783
0.000972791
0.000988145
0.000988139
0.000972783
0.000967556
0.000965061
0.000954806
0.000952293
0.000965067
0.00096759
0.000952332
0.000967556
0.000965061
0.000954806
0.000952293
0.000965067
0.00096759
0.000952332
0.000967617
0.00095226
0.000967623
0.000952269
0.000967617
0.00095226
0.000967623
0.000952269
0.000988149
0.00097278
0.000988149
0.00097278
0.000967447
0.000952261
0.000952261
0.000967624
0.000967624
0.000952258
0.000967627
0.000952258
0.000967627
0.000947105
0.000931736
0.000947105
0.000931736
0.000947101
0.000947101
0.000931906
0.000931739
0.000931739
0.000911215
0.000926583
0.000911215
0.000926583
0.000926403
0.000911217
0.000911217
0.00092658
0.00092658
0.000931747
0.000947101
0.000947095
0.000931739
0.00093181
0.000947068
0.000944545
0.000934278
0.000947034
0.000931772
0.000934285
0.00093181
0.000947068
0.000944546
0.000934278
0.000947034
0.000931772
0.000934285
0.000926573
0.000911217
0.00092658
0.000911226
0.000926573
0.000911217
0.00092658
0.000911226
0.000926513
0.000924017
0.00091125
0.000913763
0.000926546
0.000924024
0.000911289
0.000926513
0.000924017
0.00091125
0.000913763
0.000926546
0.000924024
0.000911289
0.000947102
0.000947101
0.000931907
0.00093174
0.00093174
0.000947105
0.000931736
0.000911215
0.000926583
0.000926403
0.000911218
0.000911218
0.00092658
0.00092658
0.000911215
0.000926583
0.00093181
0.000947068
0.000944545
0.000934278
0.000947033
0.000931772