/*--------------------------------*- C++ -*----------------------------------*\
| =========                 |                                                 |
| \\      /  F ield         | OpenFOAM: The Open Source CFD Toolbox           |
|  \\    /   O peration     | Version:  2206                                  |
|   \\  /    A nd           | Website:  www.openfoam.com                      |
|    \\/     M anipulation  |                                                 |
\*---------------------------------------------------------------------------*/
FoamFile
{
    version     2.0;
    format      ascii;
    arch        "LSB;label=32;scalar=64";
    class       surfaceScalarField;
    location    "2";
    object      phi;
}
// * * * * * * * * * * * * * * * * * * * * * * * * * * * * * * * * * * * * * //

dimensions      [0 3 -1 0 0 0 0];

oriented        oriented;

internalField   nonuniform List<scalar> 
82330
(
-2.55904e-07
-2.18585e-07
3.76863e-07
-2.54001e-07
-2.19891e-07
3.76465e-07
-3.04295e-06
2.84492e-06
2.85364e-06
-3.04187e-06
-4.78941e-08
1.10719e-07
-4.80337e-07
-9.24762e-07
8.2989e-07
-9.26403e-07
1.10761e-07
-4.772e-07
8.29817e-07
-1.51625e-06
-9.39983e-10
-1.16392e-07
7.99127e-07
6.41317e-07
-1.71124e-06
6.74225e-07
6.53956e-07
-1.13615e-09
2.46164e-07
-2.48825e-06
5.3708e-07
6.76267e-07
-3.62769e-07
2.13745e-06
-2.9599e-06
2.2859e-06
-2.61796e-06
2.793e-06
8.57032e-07
-3.28552e-06
-1.7239e-06
-1.30275e-06
-2.08756e-06
6.09496e-07
-1.1549e-09
3.50899e-07
-2.77563e-06
2.92376e-06
2.92188e-06
-2.74363e-06
1.09503e-06
-1.5168e-06
7.98983e-07
-1.17975e-07
6.41841e-07
-1.71211e-06
2.20055e-07
6.74544e-07
6.54315e-07
-2.48874e-06
2.44165e-07
5.36821e-07
6.77509e-07
3.04126e-06
-3.56163e-07
-2.95794e-06
2.28605e-06
2.7932e-06
-2.61624e-06
-3.28394e-06
2.13772e-06
-1.72357e-06
8.67481e-07
3.4219e-07
-2.77341e-06
2.92488e-06
2.92338e-06
-2.74216e-06
1.09737e-06
9.26132e-07
-1.30198e-06
-2.08875e-06
6.09756e-07
3.04055e-06
-3.4534e-07
-2.96076e-06
2.2837e-06
2.79155e-06
-2.61823e-06
-3.2901e-06
2.13978e-06
-1.73037e-06
8.61502e-07
6.86806e-07
1.71103e-06
9.25101e-07
-1.30079e-06
-2.08756e-06
6.12233e-07
2.17713e-07
6.75142e-07
6.51018e-07
-2.54251e-07
3.76729e-07
-3.04445e-06
-4.60594e-08
2.85288e-06
2.84707e-06
1.10968e-07
-4.77205e-07
8.29378e-07
2.56824e-07
-9.24734e-07
1.10964e-07
-4.8151e-07
8.30132e-07
-2.18458e-07
3.77532e-07
2.26354e-09
1.51811e-06
-2.4885e-06
2.42438e-07
5.38554e-07
6.80611e-07
-3.4955e-07
-3.29039e-06
2.14089e-06
-1.72913e-06
-2.95942e-06
2.28512e-06
2.79223e-06
-2.61652e-06
8.37809e-07
-1.14106e-09
3.5428e-07
-2.77584e-06
2.92301e-06
2.92141e-06
-2.74446e-06
1.09511e-06
1.71178e-06
-1.2992e-06
-2.08921e-06
6.08956e-07
1.51796e-06
-2.48811e-06
2.47019e-07
5.38974e-07
6.86522e-07
3.04251e-06
-3.46324e-07
-2.9622e-06
2.2846e-06
2.79197e-06
-2.62033e-06
-3.28932e-06
2.13678e-06
-1.72643e-06
8.36748e-07
3.59482e-07
-2.77707e-06
2.92258e-06
2.9208e-06
-2.74541e-06
1.0957e-06
1.71288e-06
9.27303e-07
-1.30327e-06
-2.0887e-06
6.10972e-07
2.14363e-09
-1.19083e-07
8.00689e-07
6.43093e-07
6.74354e-07
6.55031e-07
-1.15283e-07
8.01134e-07
6.42882e-07
2.1968e-07
6.73557e-07
6.53408e-07
-4.32105e-08
2.84635e-06
2.85418e-06
2.57235e-07
1.09974e-07
-4.80425e-07
8.30346e-07
2.56076e-07
1.11748e-07
-4.79126e-07
8.31027e-07
3.74591e-07
3.76137e-07
5.66016e-07
-9.62092e-07
3.18191e-07
5.66165e-07
-9.61771e-07
3.18119e-07
1.47e-07
1.40252e-07
6.76137e-07
-1.58517e-06
5.99949e-07
-7.58738e-07
-1.30966e-06
5.61912e-07
8.79793e-07
-2.89481e-06
5.64527e-07
-1.58403e-06
5.99674e-07
-7.5163e-07
-1.30978e-06
8.75426e-07
5.62453e-07
-2.8936e-06
5.6474e-07
-5.45556e-07
6.83445e-07
-6.0711e-08
6.46681e-08
-1.41846e-07
7.35075e-07
6.34501e-07
-2.03379e-07
-1.46829e-06
-1.2224e-08
6.38256e-07
-2.01089e-10
1.99694e-07
-7.4967e-07
-2.18719e-10
1.3853e-06
-1.93793e-07
3.4382e-08
3.74917e-07
1.32912e-06
-1.86399e-07
1.324e-10
-1.72259e-07
-3.3169e-07
4.87718e-07
-9.13597e-08
3.89109e-07
8.38499e-07
-9.96131e-07
-1.09142e-06
1.72144e-06
1.87485e-07
-1.63552e-07
8.49722e-07
-2.40008e-07
-5.44256e-07
-6.11171e-08
6.8281e-07
6.48564e-08
-1.42293e-07
-1.26844e-08
6.38056e-07
7.34643e-07
6.35814e-07
-2.04329e-07
-1.46886e-06
-7.49211e-07
1.9934e-07
1.38461e-06
-1.93116e-07
3.40447e-08
-1.72136e-07
3.74679e-07
1.32847e-06
-1.85187e-07
-3.30446e-07
4.87068e-07
-9.17651e-08
3.88986e-07
8.4021e-07
-9.96935e-07
-1.09168e-06
1.88143e-07
1.72081e-06
-1.62959e-07
8.4859e-07
-2.38308e-07
-3.29588e-07
4.86191e-07
-6.49309e-08
-9.16725e-08
3.89111e-07
8.40098e-07
-9.96964e-07
2.04969e-07
-1.09444e-06
1.90156e-07
1.71879e-06
-1.63497e-07
-3.45057e-08
8.47135e-07
-3.76897e-07
-2.38393e-07
6.62092e-07
-9.72207e-08
-6.76409e-07
4.72408e-07
4.70822e-07
-4.75529e-08
-5.05172e-08
-1.68751e-07
5.65869e-07
3.1945e-07
-9.62436e-07
5.65406e-07
3.19519e-07
-9.62141e-07
1.4015e-07
1.46127e-07
8.68333e-07
-7.64759e-08
8.66743e-07
-7.6406e-08
-3.90392e-07
-5.62793e-07
-1.25599e-06
2.29657e-06
-1.3495e-07
-1.58547e-06
6.00758e-07
5.60539e-07
-7.52588e-07
8.77024e-07
-1.3091e-06
1.09837e-06
-3.45637e-07
9.47595e-07
-2.08858e-07
-3.24214e-07
1.74043e-06
-1.47702e-07
-2.89465e-06
-1.32543e-07
-5.65309e-07
-1.25562e-06
-3.90773e-07
2.29492e-06
-1.3374e-07
-1.58563e-06
6.01352e-07
-7.57744e-07
5.62717e-07
-1.31147e-06
8.7943e-07
-3.44841e-07
1.09996e-06
-6.64743e-07
9.48458e-07
-2.08706e-07
-2.89509e-06
-1.32369e-07
1.74031e-06
-3.21531e-07
-1.46875e-07
-1.91151e-07
-9.60587e-08
-5.43968e-07
6.81613e-07
-6.31712e-08
6.67991e-08
-1.41273e-07
7.35993e-07
6.36205e-07
-2.0576e-07
-1.46928e-06
-1.12586e-08
6.36793e-07
-1.02395e-09
1.99304e-07
-7.46897e-07
7.26491e-10
1.38307e-06
-1.93116e-07
3.54981e-08
3.75627e-07
1.32708e-06
-1.8558e-07
-1.98991e-09
-1.71284e-07
-3.31552e-07
4.88985e-07
-9.06331e-08
3.8859e-07
8.40125e-07
-9.98234e-07
-1.09463e-06
1.72016e-06
-1.61646e-07
8.48654e-07
-2.38545e-07
-5.44155e-07
6.81162e-07
-5.93847e-08
6.37982e-08
-1.4142e-07
7.36402e-07
6.36647e-07
-2.0235e-07
-1.46947e-06
-1.32634e-08
6.37374e-07
2.00638e-07
-7.4703e-07
1.38338e-06
-1.93386e-07
3.35034e-08
3.76489e-07
1.32759e-06
-1.85632e-07
-1.71034e-07
-3.30278e-07
4.85524e-07
-9.14495e-08
3.90537e-07
8.40637e-07
-9.9809e-07
-1.0924e-06
1.87371e-07
1.72024e-06
-1.61807e-07
8.4857e-07
-2.38325e-07
-6.7872e-07
4.74007e-07
4.74517e-07
-5.28345e-08
-4.95281e-08
-1.67441e-07
5.64244e-07
3.17063e-07
-9.60915e-07
5.65422e-07
3.17458e-07
-9.62344e-07
1.45632e-07
1.38748e-07
8.68109e-07
-7.70365e-08
8.68596e-07
-7.66217e-08
-5.6807e-07
-3.93315e-07
-1.25406e-06
2.2953e-06
-1.32689e-07
-1.58547e-06
5.97719e-07
-7.57723e-07
5.66915e-07
8.79386e-07
-1.31021e-06
1.09901e-06
-3.45166e-07
-6.62048e-07
9.46936e-07
-2.08385e-07
-2.89514e-06
-3.24398e-07
1.74168e-06
-1.44677e-07
-1.33404e-07
-5.67518e-07
-3.90618e-07
-1.25436e-06
2.2959e-06
-1.32931e-07
-1.58564e-06
5.98759e-07
-7.50984e-07
5.6482e-07
8.75374e-07
-1.31074e-06
1.09793e-06
-3.45269e-07
-6.59671e-07
9.46012e-07
-2.07975e-07
-2.89511e-06
-3.24309e-07
1.74257e-06
-1.46134e-07
-1.32281e-07
-9.73018e-08
-9.61615e-08
-3.61485e-07
-3.45307e-07
1.57887e-06
3.40219e-07
3.64303e-09
-2.36217e-09
-3.50169e-07
8.34226e-07
-3.96745e-09
-3.66428e-09
8.57478e-07
-5.17389e-09
2.3604e-09
8.03876e-07
-3.49108e-07
-3.51398e-07
1.57934e-06
3.48577e-07
3.46917e-07
1.64734e-09
-3.56531e-07
8.47377e-07
6.26818e-09
-6.44048e-10
-3.62788e-07
8.46578e-07
-2.31788e-09
8.06478e-07
-3.48611e-07
-3.57605e-07
1.57175e-06
-5.57326e-09
8.41928e-07
-5.94621e-10
-6.21652e-09
8.45079e-07
-2.37042e-09
7.99979e-07
-3.49471e-07
-3.48002e-07
1.56883e-06
3.07181e-09
-3.58368e-07
8.45236e-07
2.87046e-09
8.44752e-07
8.02007e-07
3.18038e-06
-2.14055e-06
3.45775e-07
3.18394e-06
3.4669e-07
4.63581e-07
-2.80496e-07
-2.29474e-06
-2.58214e-08
4.8473e-08
-2.23039e-07
-2.52601e-06
5.32262e-07
5.77921e-07
-6.89665e-08
3.13348e-07
-1.13841e-09
-1.49195e-07
2.26285e-06
-7.35486e-10
-1.90538e-07
-1.75661e-07
-3.87723e-07
-1.94833e-07
-6.8334e-10
-1.92573e-07
4.47071e-08
-3.33965e-07
-2.39459e-06
-2.27583e-07
-2.47852e-06
5.65855e-07
5.17195e-07
4.23117e-07
2.24839e-06
1.17393e-06
-9.47481e-07
-1.43902e-07
3.24996e-07
-1.32659e-07
-1.92804e-07
-2.78939e-07
-2.50204e-08
-2.29336e-06
4.71648e-08
-2.23259e-07
-7.06932e-08
3.1415e-07
-2.52677e-06
5.30535e-07
5.77013e-07
2.26169e-06
-1.50426e-07
-1.90576e-07
-1.76082e-07
-1.92025e-07
-3.89304e-07
-1.95471e-07
-3.35007e-07
-2.39256e-06
4.38399e-08
-2.27043e-07
-2.4796e-06
5.66321e-07
4.24385e-07
5.16463e-07
1.1749e-06
2.24681e-06
-1.43549e-07
-1.92058e-07
-1.33343e-07
-3.40092e-07
-2.39326e-06
4.4258e-08
-4.70662e-08
-2.24598e-07
-2.47896e-06
5.71112e-07
-5.76686e-07
4.26437e-07
5.20151e-07
1.17382e-06
2.24656e-06
-1.4241e-07
1.76577e-07
3.88634e-07
-1.8983e-07
-1.31662e-07
2.58398e-06
-4.63577e-07
2.58412e-06
-1.13032e-07
-3.09825e-06
-3.09096e-06
-4.31185e-07
3.47948e-07
3.18409e-06
3.18092e-06
3.45382e-07
-1.49466e-07
-1.50272e-07
-2.83275e-07
-2.36128e-08
-2.29348e-06
4.57606e-08
-2.21232e-07
-7.16527e-08
3.16375e-07
1.43584e-09
-2.52612e-06
5.33383e-07
5.74301e-07
2.2624e-06
-1.52185e-07
1.81702e-09
-1.90403e-07
-1.78856e-07
1.82464e-09
-1.9113e-07
-3.90478e-07
-1.94732e-07
-3.33969e-07
4.21176e-08
-2.39358e-06
-2.28228e-07
-2.48016e-06
5.6695e-07
4.27103e-07
5.14521e-07
2.24613e-06
1.17588e-06
-1.44441e-07
-1.35279e-07
-1.92573e-07
-2.84314e-07
-2.73622e-08
-2.2949e-06
5.04228e-08
-2.20918e-07
-6.89254e-08
3.17731e-07
-2.52581e-06
5.34621e-07
5.7868e-07
2.26266e-06
-1.48199e-07
-1.90282e-07
-1.76066e-07
-1.90565e-07
-3.86843e-07
-1.94045e-07
-3.35161e-07
-2.39438e-06
4.53203e-08
-2.27552e-07
-2.4795e-06
5.68315e-07
4.23423e-07
5.17536e-07
1.1724e-06
2.24827e-06
-1.4345e-07
-1.91938e-07
-1.3351e-07
-4.67434e-07
2.58386e-06
2.58638e-06
-1.11602e-07
-3.09337e-06
-3.10155e-06
-4.27711e-07
3.18055e-06
3.50275e-07
3.18419e-06
3.50455e-07
-1.47934e-07
-1.48577e-07
3.51891e-07
3.53789e-07
-3.5184e-07
-3.52537e-07
1.58299e-06
-1.58429e-06
3.04446e-06
-3.51217e-07
6.81652e-07
8.41721e-07
2.14161e-06
-3.29014e-06
-1.72883e-06
-2.95918e-06
2.28574e-06
-2.61645e-06
2.79312e-06
-8.42498e-07
3.51344e-07
3.55621e-07
-1.5683e-06
-3.51484e-07
-3.49891e-07
1.56271e-06
-8.35474e-07
3.04502e-06
-3.50986e-07
6.82571e-07
8.33827e-07
2.1423e-06
-3.29055e-06
-1.72877e-06
-2.96036e-06
2.28602e-06
2.79397e-06
-2.61756e-06
3.04746e-06
-3.61215e-07
6.74391e-07
8.34662e-07
2.14452e-06
-3.28966e-06
-1.72732e-06
-2.95696e-06
2.28878e-06
-2.61374e-06
2.7965e-06
-8.3742e-07
-3.04493e-06
-3.04562e-06
2.84772e-06
2.85703e-06
-4.49526e-08
4.30753e-07
-8.25108e-07
3.04806e-06
-3.57379e-07
6.73166e-07
2.14561e-06
-3.29142e-06
-1.7292e-06
-2.96099e-06
2.29e-06
2.79863e-06
-2.6172e-06
-3.04107e-06
-3.0428e-06
2.84433e-06
2.85262e-06
-4.89442e-08
4.35861e-07
3.28709e-06
3.28692e-06
-4.3092e-07
4.59825e-08
-3.09092e-06
-3.09815e-06
6.80216e-07
8.71269e-07
2.1405e-06
-3.28649e-06
-1.72736e-06
-2.95818e-06
2.28447e-06
-2.61584e-06
2.7923e-06
-8.70068e-07
3.04111e-06
-3.51315e-07
6.79569e-07
8.71893e-07
2.13722e-06
-3.28494e-06
-1.72455e-06
-2.959e-06
2.28623e-06
-2.61674e-06
2.79365e-06
-8.73121e-07
8.63114e-07
-3.51271e-07
-8.65413e-07
6.76751e-07
3.04376e-06
-1.72753e-06
2.14271e-06
2.79405e-06
-2.61593e-06
2.2861e-06
-2.95924e-06
-3.2857e-06
8.65066e-07
-3.49798e-07
-8.66809e-07
6.81244e-07
3.04119e-06
-1.72481e-06
2.13753e-06
2.79403e-06
-2.61788e-06
2.28643e-06
-2.96049e-06
2.85279e-06
2.84651e-06
-4.87049e-08
4.3498e-07
3.29081e-06
-4.35618e-07
4.90644e-08
-3.09778e-06
-3.09217e-06
6.7938e-07
8.46225e-07
2.13682e-06
-3.28651e-06
-1.72424e-06
-2.95838e-06
2.28626e-06
-2.61618e-06
2.79308e-06
-8.45457e-07
-3.5398e-07
6.76511e-07
8.76039e-07
-2.95657e-06
2.2853e-06
2.7918e-06
-2.61421e-06
-8.75167e-07
3.04004e-06
2.13604e-06
-3.28276e-06
-1.72304e-06
8.37485e-07
-3.57982e-07
-8.40752e-07
6.77834e-07
3.04538e-06
-1.72381e-06
2.13969e-06
2.79615e-06
-2.61628e-06
2.28848e-06
-2.95926e-06
8.6633e-07
-3.57069e-07
-8.69564e-07
6.71988e-07
2.79543e-06
-2.6141e-06
-2.95727e-06
2.28854e-06
-3.2836e-06
3.0432e-06
-1.72317e-06
2.13929e-06
-3.52097e-07
6.78017e-07
8.76997e-07
-2.95727e-06
2.28485e-06
-2.61446e-06
2.79231e-06
3.04054e-06
-8.74245e-07
2.14003e-06
-3.28676e-06
-1.72791e-06
-3.49964e-07
-8.36692e-07
6.83465e-07
3.0447e-06
-1.72898e-06
2.1419e-06
2.79357e-06
-2.61779e-06
-2.96042e-06
2.28554e-06
8.65784e-07
-3.52166e-07
-8.69299e-07
6.75625e-07
2.79368e-06
-2.61507e-06
-2.95822e-06
2.28638e-06
-3.28635e-06
3.04436e-06
-1.72727e-06
2.14256e-06
-3.04416e-06
-3.04553e-06
2.84759e-06
2.85618e-06
-4.50056e-08
3.29076e-06
3.29154e-06
4.55144e-08
-3.09654e-06
-3.10245e-06
6.76951e-07
8.59626e-07
2.14335e-06
-3.28735e-06
-1.72773e-06
-2.95953e-06
2.28652e-06
2.79476e-06
-2.6163e-06
3.04164e-06
-3.51149e-07
6.79327e-07
8.63827e-07
2.13785e-06
-3.28553e-06
-1.72468e-06
-2.96044e-06
2.28706e-06
2.79492e-06
-2.61775e-06
-3.46669e-07
-8.49362e-07
6.856e-07
3.04287e-06
-1.73188e-06
2.14302e-06
2.79407e-06
-2.62025e-06
2.28527e-06
-2.96321e-06
-3.28503e-06
8.56967e-07
-3.56436e-07
-8.58055e-07
6.72429e-07
3.04393e-06
-1.72411e-06
2.14059e-06
2.79762e-06
-2.61746e-06
2.28992e-06
-2.96037e-06
2.85327e-06
2.84686e-06
-4.90928e-08
3.29066e-06
-4.32465e-07
4.71422e-08
-3.09833e-06
-3.09204e-06
6.78535e-07
8.33357e-07
2.13979e-06
-3.28759e-06
-1.7246e-06
-2.96012e-06
2.28873e-06
2.79663e-06
-2.61715e-06
3.04386e-06
-3.56504e-07
6.71663e-07
8.63939e-07
2.13967e-06
-3.28444e-06
-1.7239e-06
-2.9581e-06
2.28893e-06
2.79607e-06
-2.61486e-06
-3.46051e-07
-8.24736e-07
6.85303e-07
3.04459e-06
-1.72924e-06
2.13879e-06
2.79567e-06
-2.62105e-06
2.28752e-06
-2.96408e-06
-3.28691e-06
-3.54151e-07
-8.56575e-07
6.73542e-07
3.04517e-06
-1.72483e-06
2.13926e-06
2.7968e-06
-2.61573e-06
2.28926e-06
-2.96011e-06
-3.5341e-07
6.74234e-07
8.62561e-07
2.1438e-06
-3.28672e-06
-1.727e-06
-2.95889e-06
2.28725e-06
-2.61552e-06
2.79453e-06
-3.56973e-07
-8.28653e-07
6.76569e-07
3.04785e-06
-1.72841e-06
2.14517e-06
2.79756e-06
-2.61658e-06
-2.96021e-06
2.28922e-06
-3.29228e-06
-3.54344e-07
-8.54296e-07
6.77717e-07
3.04697e-06
-1.7289e-06
2.14504e-06
2.79722e-06
-2.61715e-06
2.2884e-06
-2.96038e-06
2.8562e-06
2.84948e-06
-4.53056e-08
4.30943e-07
4.19149e-08
-3.09938e-06
-3.57582e-07
6.7643e-07
8.34139e-07
2.13998e-06
-3.28774e-06
-1.72446e-06
-2.95906e-06
2.28933e-06
-2.61612e-06
2.79657e-06
-8.37119e-07
4.04517e-08
-3.09604e-06
3.04464e-06
-3.61407e-07
2.14065e-06
-3.28587e-06
-1.72491e-06
2.29058e-06
-2.61586e-06
2.85606e-06
2.85013e-06
-4.59445e-08
-7.60934e-11
1.38305e-06
-1.92273e-07
-7.47537e-07
1.99669e-07
-6.42835e-07
2.17723e-07
-1.71098e-06
6.56623e-07
6.74712e-07
1.61921e-07
1.90823e-07
1.72116e-06
-1.6328e-07
-1.09342e-06
-6.55284e-07
4.7427e-10
-1.5159e-06
6.42326e-07
7.9768e-07
-1.17767e-07
1.93191e-07
-2.19951e-07
-2.54368e-07
3.77129e-07
9.71901e-08
-1.88399e-07
6.62727e-07
-9.74066e-08
-3.76921e-07
1.38452e-06
-2.74807e-10
-1.94271e-07
1.9914e-07
-7.49699e-07
-6.39418e-07
2.20365e-07
-1.71255e-06
6.57072e-07
6.73301e-07
1.61816e-07
1.87698e-07
1.72186e-06
-1.63214e-07
-1.09057e-06
-6.55774e-07
-1.51659e-06
-1.08877e-09
6.38345e-07
-1.16255e-07
7.99592e-07
1.95993e-07
-3.49757e-07
-3.51831e-07
1.58161e-06
-1.58256e-06
-3.54461e-07
-3.54771e-07
1.58622e-06
3.56624e-07
-1.58759e-06
-3.54964e-07
-3.53494e-07
1.58212e-06
3.56995e-07
-1.58275e-06
-1.57378e-06
-3.53435e-07
-3.50345e-07
1.57692e-06
-1.57781e-06
-3.48776e-07
-3.50097e-07
1.56871e-06
-1.57425e-06
-3.56242e-07
-3.56123e-07
3.60836e-07
1.56953e-06
-1.57352e-06
-3.55194e-07
-3.51484e-07
3.58499e-07
-1.38371e-06
-1.37955e-09
-1.89554e-07
-1.49273e-07
2.26208e-06
-5.38162e-07
9.2577e-07
1.71066e-06
-2.0886e-06
6.09257e-07
-1.30115e-06
1.44059e-07
1.10101e-06
2.16569e-09
3.54952e-07
-2.77542e-06
2.92334e-06
-2.74358e-06
2.92181e-06
-1.10262e-06
6.82612e-07
-3.28993e-06
8.39749e-07
-3.51234e-07
2.79327e-06
-2.61662e-06
2.2857e-06
-2.95925e-06
3.04432e-06
-1.72836e-06
2.14148e-06
-9.47769e-07
-1.72015e-06
-1.4311e-07
1.17433e-06
-6.10012e-07
2.24671e-06
4.01485e-09
1.09804e-06
3.54733e-07
2.92204e-06
-2.74347e-06
2.92363e-06
-2.77537e-06
1.51521e-06
-1.14815e-09
5.38138e-07
2.45727e-07
-2.48783e-06
1.89902e-07
-7.78244e-10
1.38277e-06
-1.89227e-07
-6.47035e-07
-7.46285e-07
2.00561e-07
1.64963e-07
2.16899e-07
-1.70902e-06
6.76932e-07
6.50224e-07
1.91214e-07
4.87363e-10
-1.51401e-06
6.45557e-07
7.94925e-07
-1.18169e-07
1.89241e-07
1.71867e-06
-1.66756e-07
-1.09249e-06
-6.48665e-07
9.68604e-08
-2.19033e-07
-2.55351e-07
3.77524e-07
-1.88271e-07
6.62583e-07
-9.73664e-08
-3.76945e-07
1.38136e-06
-1.23493e-09
-1.88138e-07
-6.48011e-07
2.00911e-07
-7.4489e-07
1.66254e-07
2.18861e-07
-1.70987e-06
6.76285e-07
6.48467e-07
1.90809e-07
-1.51307e-06
-1.82127e-09
6.46223e-07
-1.16409e-07
7.9427e-07
1.8829e-07
1.71902e-06
-1.6706e-07
-1.09263e-06
-6.47617e-07
-3.49904e-07
-3.50447e-07
1.57514e-06
-3.56878e-07
-3.55986e-07
1.56386e-06
-3.54774e-07
-3.5234e-07
1.56565e-06
-1.55684e-06
-3.44734e-07
-3.48364e-07
1.56348e-06
-1.56779e-06
-3.54952e-07
-3.54144e-07
-1.55382e-06
-3.56175e-07
-3.52975e-07
-1.55468e-06
-3.49953e-07
-3.51954e-07
-1.38458e-06
-2.03195e-09
-1.87314e-07
-5.40484e-07
-1.48318e-07
2.26272e-06
1.43585e-07
9.25956e-07
1.71065e-06
-2.08827e-06
-1.30157e-06
6.09653e-07
1.09271e-06
-1.09444e-06
3.20865e-09
3.52751e-07
-2.77611e-06
2.92551e-06
2.92344e-06
-2.74449e-06
6.8053e-07
-3.29052e-06
8.3173e-07
-3.52819e-07
2.79486e-06
-2.61718e-06
2.28696e-06
-2.9603e-06
3.04592e-06
-1.72853e-06
2.14318e-06
1.8866e-07
1.51601e-06
-1.84871e-09
5.39906e-07
2.46574e-07
-2.48931e-06
-9.47483e-07
-1.72014e-06
-1.42671e-07
1.17344e-06
-6.10226e-07
2.24707e-06
2.3305e-09
1.09039e-06
3.49331e-07
2.92446e-06
-2.74413e-06
2.92652e-06
-2.77566e-06
-2.19546e-07
-2.52907e-07
3.73838e-07
9.86154e-08
-1.90108e-07
6.6256e-07
-1.00421e-07
-3.72031e-07
7.69087e-10
-1.38153e-06
-1.82553e-07
2.26049e-06
-1.50931e-07
-5.46249e-07
1.08956e-06
-1.41573e-09
3.42375e-07
-2.77341e-06
2.92765e-06
-2.74213e-06
2.92601e-06
-1.09424e-06
9.23854e-07
1.70973e-06
-2.08918e-06
6.10998e-07
-1.29845e-06
1.43042e-07
6.74058e-07
-3.28956e-06
8.29061e-07
-3.61613e-07
2.79759e-06
-2.61397e-06
2.28963e-06
-2.95734e-06
3.04852e-06
-1.72714e-06
2.14543e-06
-1.22172e-09
1.08382e-06
3.42688e-07
2.92702e-06
-2.7432e-06
2.92873e-06
-2.7742e-06
-9.46889e-07
-1.71834e-06
-1.39374e-07
1.17425e-06
-6.13443e-07
2.2438e-06
1.45455e-09
1.51459e-06
5.43298e-07
-2.48926e-06
2.42847e-07
1.87064e-07
-9.24719e-07
2.56044e-07
-4.8045e-07
8.30066e-07
1.10216e-07
2.08843e-07
-9.25468e-07
2.53728e-07
-4.78523e-07
8.30653e-07
1.11785e-07
2.07825e-07
3.28729e-06
3.28844e-06
-4.26729e-07
4.33952e-08
-3.09288e-06
-3.09951e-06
9.4829e-07
-6.63387e-07
-2.07466e-07
-3.46988e-07
-8.30645e-07
1.1002e-06
9.467e-07
-6.63442e-07
-2.06443e-07
-3.43746e-07
-8.31603e-07
1.09853e-06
9.82299e-08
-2.19424e-07
-2.51998e-07
3.73192e-07
-3.55234e-07
1.40302e-07
9.24001e-07
1.70907e-06
-2.08912e-06
-1.2996e-06
6.15347e-07
-1.08369e-06
-5.49649e-10
3.42986e-07
-2.77745e-06
2.9298e-06
2.92811e-06
-2.74692e-06
1.83233e-07
1.51176e-06
6.32401e-10
5.49772e-07
2.44369e-07
-2.48976e-06
-2.5716e-07
3.78819e-07
9.60641e-08
6.65911e-07
-9.71758e-08
-3.77913e-07
-2.54831e-07
3.79553e-07
9.56434e-08
6.63118e-07
-9.67527e-08
-3.78669e-07
-9.2597e-07
-4.801e-07
8.29042e-07
1.10325e-07
2.0954e-07
-9.26592e-07
-4.78618e-07
8.27707e-07
1.12254e-07
2.10417e-07
-4.33964e-07
3.2859e-06
3.28583e-06
4.7855e-08
-3.08938e-06
-3.09624e-06
-2.08862e-07
9.48699e-07
-3.45647e-07
-8.29336e-07
1.10106e-06
-2.09755e-07
9.48457e-07
-3.46703e-07
-8.27986e-07
1.09911e-06
6.6346e-07
-1.8941e-07
-9.83679e-08
-3.75682e-07
-2.55906e-07
-2.17778e-07
3.76508e-07
6.61158e-07
-1.87305e-07
-9.90578e-08
-3.74795e-07
-2.54038e-07
-2.19503e-07
3.76789e-07
-3.04315e-06
-3.04487e-06
-4.71169e-08
2.84662e-06
2.85455e-06
9.48098e-07
-2.0772e-07
1.09978e-06
-8.30743e-07
-3.45956e-07
9.47006e-07
-2.08178e-07
1.09816e-06
-8.29661e-07
-3.46168e-07
-9.24984e-07
1.09747e-07
-4.79719e-07
8.30188e-07
-9.26217e-07
1.1134e-07
-4.77724e-07
8.28811e-07
1.38337e-06
-1.92189e-07
-7.47713e-07
1.99565e-07
-6.43111e-07
-1.71186e-06
6.54543e-07
6.74017e-07
1.63345e-07
1.72119e-06
-1.63456e-07
-1.09188e-06
-6.54255e-07
-1.51562e-06
6.42524e-07
7.97276e-07
-1.16911e-07
1.93202e-07
4.74482e-10
-1.89879e-07
-1.50833e-07
2.26057e-06
-5.37279e-07
-2.08787e-06
6.07035e-07
-1.30136e-06
1.45245e-07
1.10214e-06
-5.25966e-10
3.48859e-07
-2.77334e-06
2.925e-06
-2.74163e-06
2.92312e-06
-1.1034e-06
6.77501e-07
8.68633e-07
-3.53332e-07
3.04254e-06
-1.72658e-06
2.14187e-06
2.79336e-06
-2.61496e-06
2.28568e-06
-2.95754e-06
-1.44153e-07
1.17535e-06
-6.07715e-07
2.24638e-06
-1.40258e-09
1.09856e-06
3.47152e-07
2.92393e-06
-2.74129e-06
2.92562e-06
-2.77291e-06
3.72831e-10
5.37096e-07
2.44748e-07
-2.4888e-06
1.90685e-07
-1.89163e-07
-1.49728e-07
2.26101e-06
-5.38277e-07
9.26246e-07
-2.08907e-06
6.08816e-07
-1.30191e-06
1.44062e-07
1.1034e-06
3.48567e-07
-2.77445e-06
2.92525e-06
-2.74234e-06
2.92371e-06
-1.10509e-06
6.80204e-07
8.69325e-07
-3.28465e-06
-3.51439e-07
2.79406e-06
-2.61691e-06
-2.95929e-06
2.28645e-06
3.04099e-06
-1.72413e-06
2.13729e-06
-1.43429e-07
-9.47421e-07
1.17419e-06
-6.09243e-07
2.24709e-06
1.1003e-06
3.4828e-07
2.92418e-06
-2.74211e-06
2.92589e-06
-2.77434e-06
5.38024e-07
2.45501e-07
-2.48882e-06
1.9005e-07
1.08748e-09
-1.51614e-06
7.97721e-07
-1.1853e-07
6.43585e-07
1.72013e-06
-6.52254e-07
-1.09233e-06
-1.71018e-06
6.75586e-07
6.53539e-07
2.20506e-10
1.38458e-06
-6.44182e-07
-7.48876e-07
1.99472e-07
-1.51619e-06
7.9798e-07
-1.16664e-07
6.43772e-07
1.72117e-06
1.87772e-07
-1.62854e-07
-6.54509e-07
-1.09158e-06
-1.71164e-06
2.19536e-07
6.7462e-07
6.54025e-07
1.38472e-06
-1.91322e-07
-6.44269e-07
-7.48798e-07
1.99886e-07
1.05354e-09
2.44058e-07
-2.48938e-06
5.38249e-07
6.76471e-07
-3.51726e-07
-3.28643e-06
2.14255e-06
-1.72714e-06
-2.95855e-06
2.28635e-06
-2.61551e-06
2.79406e-06
-1.42224e-07
2.24637e-06
-6.10409e-07
1.17449e-06
-1.09507e-06
-1.74676e-09
1.09272e-06
3.48078e-07
2.92458e-06
-2.74321e-06
2.92622e-06
-2.77483e-06
-1.30014e-06
-2.08855e-06
6.0937e-07
-1.81425e-09
3.48066e-07
-2.77424e-06
2.92605e-06
2.92444e-06
-2.74255e-06
7.64092e-10
-1.88464e-07
-5.39163e-07
-1.50705e-07
2.26215e-06
2.45977e-07
-2.48936e-06
5.39083e-07
6.80608e-07
3.0411e-06
-3.50061e-07
-2.9602e-06
2.28654e-06
2.79411e-06
-2.61761e-06
-3.28506e-06
2.13742e-06
-1.72433e-06
-9.47327e-07
-1.4315e-07
2.24772e-06
-6.09697e-07
1.17362e-06
-1.09769e-06
1.09669e-06
3.49483e-07
2.92424e-06
-2.7438e-06
2.92633e-06
-2.77576e-06
9.26171e-07
-1.3019e-06
-2.08911e-06
6.09774e-07
3.50525e-07
-2.77564e-06
2.92595e-06
2.92407e-06
-2.74351e-06
-1.88176e-07
-5.39626e-07
-1.49097e-07
2.26238e-06
-4.77829e-07
8.29697e-07
1.11083e-07
2.08927e-07
2.56108e-07
-4.8095e-07
8.31449e-07
1.11053e-07
2.08109e-07
-4.34941e-07
4.85278e-08
-3.09702e-06
-3.09115e-06
-2.08653e-07
-3.44942e-07
-8.29661e-07
1.09856e-06
-6.63999e-07
-2.0768e-07
-3.45095e-07
-8.31596e-07
1.1006e-06
-2.18049e-07
3.75805e-07
9.8351e-08
-9.8122e-08
-1.90016e-07
-3.75862e-07
6.61898e-07
-3.77267e-07
-2.54537e-07
3.76667e-07
-3.04454e-06
-4.86335e-08
2.85295e-06
2.84638e-06
-2.08026e-07
1.0987e-06
-8.30558e-07
-3.45542e-07
-6.63795e-07
9.47582e-07
-2.07246e-07
1.10118e-06
-8.32188e-07
-3.45536e-07
1.10505e-07
-4.77627e-07
8.30101e-07
2.56269e-07
-9.26046e-07
1.10826e-07
-4.80537e-07
8.3181e-07
-1.89805e-07
-9.76477e-08
-3.76341e-07
-2.17747e-07
3.75896e-07
-1.2512e-09
-1.90987e-07
-1.49655e-07
2.26152e-06
-5.35102e-07
-2.08949e-06
6.06399e-07
-1.3019e-06
1.45842e-07
1.10519e-06
1.19615e-09
3.51223e-07
-2.77399e-06
2.92295e-06
-2.74223e-06
2.92151e-06
-1.10647e-06
6.77957e-07
8.43979e-07
-3.56348e-07
3.04436e-06
-1.72322e-06
2.13815e-06
2.7941e-06
-2.61584e-06
2.28709e-06
-2.95817e-06
-1.44465e-07
1.17508e-06
-6.07258e-07
2.24696e-06
2.05184e-09
1.10204e-06
3.48276e-07
2.92258e-06
-2.742e-06
2.92405e-06
-2.77385e-06
-1.30346e-09
5.33618e-07
2.45856e-07
-2.48812e-06
1.93368e-07
1.38437e-06
-1.94173e-07
-7.4978e-07
-6.39577e-07
1.98881e-07
-1.71312e-06
6.73667e-07
6.58794e-07
2.20362e-07
1.60294e-07
-1.51667e-06
6.38408e-07
7.99306e-07
-1.18151e-07
1.96017e-07
1.72196e-06
-1.63096e-07
-1.09261e-06
-6.56219e-07
1.89966e-07
-1.90946e-07
2.26065e-06
-5.34823e-07
-1.51757e-07
1.10713e-06
3.47269e-07
-2.7725e-06
2.92351e-06
-2.74117e-06
2.92187e-06
-1.1084e-06
-2.08959e-06
-1.30081e-06
6.0405e-07
1.47408e-07
9.25825e-07
6.72566e-07
8.74065e-07
-3.57487e-07
2.79358e-06
-2.61312e-06
-2.95591e-06
2.28693e-06
-3.28222e-06
3.04213e-06
-1.72206e-06
2.13755e-06
1.1038e-06
3.42761e-07
2.92332e-06
-2.74078e-06
2.92481e-06
-2.77217e-06
5.33187e-07
-2.48823e-06
2.4357e-07
1.93498e-07
-1.45126e-07
1.17638e-06
-6.05588e-07
2.24503e-06
-9.48739e-07
-1.51512e-06
-1.60775e-09
-1.1642e-07
7.97522e-07
6.41359e-07
1.72017e-06
-6.50406e-07
-1.09082e-06
-1.71098e-06
6.75092e-07
6.53173e-07
1.38375e-06
-5.47625e-10
-6.43834e-07
1.99803e-07
-7.48365e-07
-1.9579e-09
2.46375e-07
-2.48858e-06
5.38055e-07
6.77924e-07
-3.57422e-07
-3.28625e-06
2.13907e-06
-1.72337e-06
-2.9587e-06
2.28785e-06
-2.6161e-06
2.79535e-06
-1.41168e-07
2.2464e-06
-6.11351e-07
1.17329e-06
-1.09866e-06
2.33779e-09
1.09509e-06
3.45917e-07
2.92494e-06
-2.74338e-06
2.92667e-06
-2.77507e-06
-1.30184e-06
-2.08902e-06
6.09191e-07
2.51851e-09
3.46164e-07
-2.77428e-06
2.9255e-06
2.92387e-06
-2.74248e-06
-1.58134e-09
-1.86021e-07
-5.41745e-07
-1.48757e-07
2.26186e-06
-1.51531e-06
7.97192e-07
6.41576e-07
-1.19239e-07
1.71995e-06
-1.6488e-07
-1.09309e-06
-6.51652e-07
1.89677e-07
1.38336e-06
-1.90701e-07
-6.44017e-07
-7.48298e-07
1.99103e-07
-1.71154e-06
6.75636e-07
6.5313e-07
2.19675e-07
-2.48877e-06
5.37792e-07
2.42763e-07
6.7138e-07
-3.57805e-07
-2.95637e-06
2.28816e-06
2.795e-06
-2.61337e-06
3.04336e-06
-3.28247e-06
2.13891e-06
-1.7223e-06
-1.09979e-06
1.09593e-06
3.40511e-07
2.92572e-06
-2.74206e-06
2.92743e-06
-2.77342e-06
-1.4207e-07
2.24452e-06
1.17528e-06
-6.10044e-07
-9.47741e-07
3.41228e-07
-2.77281e-06
2.92614e-06
2.92468e-06
-2.74133e-06
-1.86016e-07
-5.41395e-07
2.2608e-06
-1.51604e-07
-1.29944e-06
-2.09006e-06
6.08328e-07
9.24512e-07
-2.06619e-10
-1.92726e-07
1.99952e-07
-7.48044e-07
-6.42683e-07
6.5273e-07
6.75051e-07
1.64833e-07
-1.64618e-07
-1.0929e-06
-6.52646e-07
-1.19176e-09
6.42502e-07
-1.16757e-07
7.97564e-07
1.93089e-07
-1.38326e-06
-1.89193e-07
2.26082e-06
-5.38328e-07
-1.51421e-07
1.10381e-06
3.49978e-07
-2.7732e-06
2.92409e-06
-2.74203e-06
2.92252e-06
-1.10498e-06
1.71124e-06
-2.08871e-06
-1.30019e-06
6.0686e-07
9.24982e-07
1.45826e-07
6.76131e-07
8.69841e-07
-3.55101e-07
2.79273e-06
-2.61449e-06
-2.95748e-06
2.28588e-06
-3.2808e-06
3.04195e-06
-1.72134e-06
2.13968e-06
1.10189e-06
3.48613e-07
2.92338e-06
-2.7418e-06
2.92482e-06
-2.77296e-06
1.51552e-06
5.3788e-07
-2.48814e-06
2.43575e-07
1.90023e-07
-1.72154e-06
-1.43469e-07
1.17543e-06
-6.08159e-07
2.24563e-06
-9.47889e-07
-1.92623e-07
-7.4798e-07
-6.42568e-07
1.99708e-07
6.74885e-07
6.55588e-07
1.62579e-07
2.18183e-07
6.41917e-07
7.9761e-07
-1.18677e-07
1.93476e-07
-1.64338e-07
-1.09459e-06
-6.54225e-07
1.91606e-07
1.51562e-06
-1.90648e-09
2.46536e-07
-2.48855e-06
5.38744e-07
6.83943e-07
-3.5043e-07
-3.29052e-06
2.14184e-06
-1.72863e-06
-2.95977e-06
2.28565e-06
2.79353e-06
-2.61709e-06
-1.72034e-06
2.24769e-06
-6.09928e-07
1.17374e-06
-1.09648e-06
3.04949e-09
3.53757e-07
2.92318e-06
-2.74393e-06
-2.7756e-06
2.92504e-06
1.71043e-06
-1.30171e-06
-2.08822e-06
6.10339e-07
3.46889e-09
3.54309e-07
-2.77548e-06
2.92435e-06
2.92258e-06
-2.74373e-06
-1.38425e-06
-1.77284e-09
-5.3942e-07
-1.48494e-07
2.2626e-06
-1.82851e-09
-1.1623e-07
7.97762e-07
6.43189e-07
-1.6368e-07
-6.53557e-07
-1.0929e-06
6.7524e-07
6.52829e-07
-6.57229e-10
-1.91831e-07
-6.43747e-07
2.00454e-07
-7.48468e-07
1.51596e-06
-2.48889e-06
5.39098e-07
2.42732e-07
6.71834e-07
-3.51092e-07
-2.95707e-06
2.28749e-06
2.79459e-06
-2.61423e-06
3.04055e-06
-3.28418e-06
2.13774e-06
-1.7251e-06
-1.09658e-06
1.0942e-06
3.48233e-07
2.92414e-06
-2.74294e-06
2.92587e-06
-2.77425e-06
-1.72e-06
-1.43333e-07
2.2456e-06
1.17586e-06
-6.09776e-07
-9.48358e-07
3.49034e-07
-2.77415e-06
2.92504e-06
2.92365e-06
-2.74296e-06
-1.38404e-06
-1.88375e-07
-5.39648e-07
2.26191e-06
-1.51621e-07
1.71267e-06
-1.29876e-06
-2.09068e-06
6.09603e-07
9.23691e-07
7.97642e-07
6.43202e-07
-1.19336e-07
-1.62494e-07
-1.09358e-06
-6.54894e-07
1.90967e-07
-1.92023e-07
-6.43404e-07
-7.48602e-07
1.99334e-07
6.75613e-07
6.53817e-07
2.18904e-07
-2.55711e-07
3.74242e-07
6.61969e-07
-9.97609e-08
-3.72966e-07
-2.53502e-07
3.73303e-07
6.60679e-07
-9.97954e-08
-3.72593e-07
-9.25301e-07
-4.79141e-07
1.09504e-07
8.31509e-07
-9.25747e-07
-4.7739e-07
1.10716e-07
8.30742e-07
-4.28393e-07
3.28844e-06
3.28881e-06
4.41647e-08
-3.09308e-06
-3.09995e-06
-2.06233e-07
9.47112e-07
-3.45846e-07
-8.3249e-07
1.09943e-06
-2.06436e-07
9.46125e-07
-3.45028e-07
-8.3182e-07
1.09784e-06
6.61172e-07
-1.89035e-07
-3.73407e-07
-2.55343e-07
-2.17036e-07
3.72619e-07
6.59793e-07
-1.8744e-07
-3.73284e-07
-2.53078e-07
-2.19328e-07
3.72611e-07
-3.04381e-06
-3.04498e-06
-4.4331e-08
2.84792e-06
2.85681e-06
9.45527e-07
1.10032e-06
-8.33852e-07
-3.44742e-07
9.45411e-07
1.09799e-06
-8.32977e-07
-3.44288e-07
-9.25919e-07
1.09882e-07
-4.78767e-07
8.33226e-07
-9.25439e-07
1.10659e-07
-4.77386e-07
8.32651e-07
1.38327e-06
-1.89486e-07
-6.46869e-07
-7.46833e-07
1.99145e-07
-1.71195e-06
6.75173e-07
6.54888e-07
-1.51453e-06
6.45427e-07
7.95478e-07
-1.17212e-07
1.72154e-06
-1.63323e-07
-1.09217e-06
-6.54318e-07
-1.12026e-09
-1.85453e-07
-5.43554e-07
-1.48909e-07
2.2618e-06
-2.08767e-06
-1.30093e-06
6.12061e-07
1.0892e-06
-6.82735e-10
3.46317e-07
-2.77486e-06
2.92728e-06
2.92553e-06
-2.7431e-06
6.7945e-07
8.54871e-07
-3.50142e-07
3.04438e-06
-1.72852e-06
2.14371e-06
2.79509e-06
-2.61709e-06
2.28652e-06
-2.96022e-06
6.1085e-11
5.41393e-07
2.45243e-07
-2.48917e-06
-1.39873e-07
1.17297e-06
-6.1371e-07
2.24639e-06
8.06083e-10
1.08476e-06
3.48504e-07
2.92593e-06
-2.74375e-06
2.92775e-06
-2.77536e-06
-1.85362e-07
-5.43648e-07
-1.5095e-07
2.26211e-06
9.26162e-07
-2.08942e-06
-1.30183e-06
6.09989e-07
1.09423e-06
3.47444e-07
-2.77549e-06