/*--------------------------------*- C++ -*----------------------------------*\
| =========                 |                                                 |
| \\      /  F ield         | OpenFOAM: The Open Source CFD Toolbox           |
|  \\    /   O peration     | Version:  2206                                  |
|   \\  /    A nd           | Website:  www.openfoam.com                      |
|    \\/     M anipulation  |                                                 |
\*---------------------------------------------------------------------------*/
FoamFile
{
    version     2.0;
    format      ascii;
    arch        "LSB;label=32;scalar=64";
    class       volScalarField;
    location    "12.5";
    object      nut;
}
// * * * * * * * * * * * * * * * * * * * * * * * * * * * * * * * * * * * * * //

dimensions      [0 2 -1 0 0 0 0];

internalField   nonuniform List<scalar> 
28688
(
0.000233975
0.00023313
0.00023313
0.000233474
0.000232589
0.000227991
0.00022799
0.000223995
0.000230603
0.000220729
0.000220727
0.000209324
0.000230732
0.000222857
0.000222854
0.000211461
0.000230829
0.000223467
0.000223464
0.000212904
0.000230833
0.000223485
0.000223483
0.000212942
0.000230832
0.000223487
0.000223485
0.000212943
0.000230833
0.000223487
0.000223485
0.000212942
0.000230833
0.000223487
0.000223485
0.000212942
0.000230833
0.000223487
0.000223485
0.000212942
0.000230833
0.000223487
0.000223485
0.000212942
0.000230833
0.000223487
0.000223485
0.000212943
0.000234236
0.000234446
0.000234447
0.000234236
0.000234447
0.000234447
0.000234281
0.000234281
0.000234281
0.000234281
0.000234446
0.000234446
0.000234236
0.000234446
0.000234447
0.000234236
0.000233475
0.000226088
0.00023313
0.000233128
0.000229459
0.000229455
0.000233474
0.000226089
0.000233128
0.000233128
0.000229457
0.000229454
0.00023313
0.000229462
0.000229459
0.000233475
0.000226086
0.000233128
0.000229461
0.000229457
0.000226086
0.000223995
0.000211368
0.000227988
0.000227983
0.000221687
0.000221681
0.000223996
0.000211371
0.000227986
0.000227982
0.000221688
0.000221678
0.000227987
0.000221694
0.000221686
0.000223994
0.000211365
0.000227986
0.000221691
0.000221686
0.000211366
0.000209326
0.000211178
0.000220721
0.000220715
0.000222271
0.000222268
0.000209328
0.00021118
0.000220722
0.000220712
0.000222273
0.000222265
0.000220719
0.000222277
0.000222269
0.000209323
0.000211174
0.000220721
0.000222274
0.000222273
0.000211178
0.000211467
0.000212973
0.000222852
0.00022285
0.00022343
0.000223428
0.000211469
0.000212976
0.000222855
0.000222847
0.000223433
0.000223425
0.00022285
0.000223435
0.000223429
0.000211464
0.00021297
0.000222855
0.000223433
0.000223433
0.000212973
0.000212905
0.00021303
0.000223462
0.00022346
0.000223479
0.000223478
0.000212908
0.000213032
0.000223465
0.000223457
0.000223483
0.000223474
0.000223461
0.000223484
0.000223479
0.000212902
0.000213026
0.000223466
0.000223482
0.000223483
0.00021303
0.000212945
0.000213031
0.00022348
0.000223479
0.000223482
0.000223481
0.000212947
0.000213033
0.000223484
0.000223475
0.000223486
0.000223477
0.00022348
0.000223487
0.000223481
0.000212942
0.000213027
0.000223484
0.000223485
0.000223486
0.00021303
0.000212947
0.00021303
0.000223483
0.000223482
0.000223482
0.000223481
0.000212948
0.000213032
0.000223486
0.000223478
0.000223486
0.000223477
0.000223482
0.000223488
0.000223481
0.000212943
0.000213026
0.000223486
0.000223485
0.000223486
0.00021303
0.000212946
0.00021303
0.000223483
0.000223481
0.000223482
0.000223481
0.000212947
0.000213032
0.000223486
0.000223477
0.000223485
0.000223477
0.000223482
0.000223488
0.000223481
0.000212943
0.000213027
0.000223486
0.000223486
0.000223486
0.00021303
0.000212946
0.00021303
0.000223482
0.000223481
0.000223482
0.000223481
0.000212947
0.000213032
0.000223486
0.000223477
0.000223485
0.000223477
0.000223482
0.000223488
0.000223481
0.000212943
0.000213027
0.000223486
0.000223486
0.000223486
0.00021303
0.000212946
0.000213031
0.000223482
0.000223481
0.000223482
0.000223481
0.000212947
0.000213032
0.000223486
0.000223477
0.000223486
0.000223477
0.000223482
0.000223488
0.000223481
0.000212943
0.000213026
0.000223486
0.000223486
0.000223486
0.00021303
0.000212947
0.000213031
0.000223482
0.000223481
0.000223482
0.000223481
0.000212947
0.000213031
0.000223486
0.000223477
0.000223485
0.000223477
0.000223482
0.000223488
0.000223481
0.000212942
0.000213026
0.000223486
0.000223485
0.000223486
0.00021303
0.000212947
0.000213035
0.000223482
0.000223481
0.000223483
0.000212947
0.000223486
0.000223477
0.000223487
0.000223478
0.000223482
0.000223483
0.000212942
0.000213031
0.000223486
0.000223486
0.000223487
0.000213035
0.000234731
0.000234746
0.000234729
0.000234729
0.000235109
0.000234795
0.000234701
0.000234726
0.000235109
0.000234795
0.000234726
0.000234701
0.00023485
0.000233566
0.000233566
0.000104389
3.87451e-05
0.000129509
3.98161e-05
2.16835e-05
2.28271e-05
0.000104384
3.8741e-05
0.000129505
3.98127e-05
0.000233975
0.000233975
0.000233975
0.000232987
0.000232987
0.000232987
0.000232987
0.000205927
9.36004e-05
0.000233975
0.000231958
0.000222841
8.7243e-05
0.000233599
2.16825e-05
2.28261e-05
0.000205921
0.000233975
9.36031e-05
0.000231958
0.00022285
0.000233599
8.72435e-05
4.7734e-05
4.77217e-05
0.000231274
4.40456e-05
4.40365e-05
7.2899e-05
4.24314e-05
8.13007e-05
4.3762e-05
2.4779e-05
2.54624e-05
7.2893e-05
4.24278e-05
8.12901e-05
4.37582e-05
0.000232589
0.000232589
0.000232589
0.000230902
0.000230903
0.000230902
0.000230902
0.000167971
7.92179e-05
0.000232165
0.000226029
0.00018008
7.49079e-05
0.000231386
2.47775e-05
2.54605e-05
0.000167964
0.000232165
7.9215e-05
0.000226028
0.000180075
0.000231385
7.49028e-05
3.89767e-05
3.89656e-05
0.000219467
3.67594e-05
3.67497e-05
6.22364e-05
4.55031e-05
6.18539e-05
4.61998e-05
2.59763e-05
2.6013e-05
6.22255e-05
4.55003e-05
6.18506e-05
4.61967e-05
0.000230604
0.000230603
0.000230603
0.000230655
0.000230655
0.000230654
0.000230655
0.000146879
6.83329e-05
0.000228686
0.000220826
0.000148618
7.03992e-05
0.000228427
2.59744e-05
2.60105e-05
0.000146875
0.000228685
6.83287e-05
0.000220823
0.000148612
0.000228426
7.03934e-05
3.40754e-05
3.40661e-05
0.000208592
3.62492e-05
3.62397e-05
6.49231e-05
4.67091e-05
6.45629e-05
4.67487e-05
2.603e-05
2.60332e-05
6.49292e-05
4.6706e-05
6.45666e-05
4.67461e-05
0.000230733
0.000230732
0.000230732
0.000230823
0.000230823
0.000230823
0.000230823
0.000150689
7.67505e-05
0.000228712
0.000223196
0.000149861
7.77422e-05
0.000228793
2.60278e-05
2.60305e-05
0.000150689
0.000228711
7.67472e-05
0.000223194
0.00014986
0.000228793
7.77439e-05
4.13514e-05
4.13429e-05
0.000212699
4.20077e-05
4.19991e-05
6.50399e-05
4.67531e-05
6.50171e-05
4.6752e-05
2.60338e-05
2.60335e-05
6.50467e-05
4.67502e-05
6.50249e-05
4.67489e-05
0.00023083
0.000230829
0.000230829
0.000230833
0.000230832
0.000230832
0.000230832
0.000150924
7.79923e-05
0.00022887
0.000223479
0.000150871
7.80303e-05
0.000228874
2.60312e-05
2.60309e-05
0.000150926
0.000228869
7.79956e-05
0.000223476
0.000150872
0.000228873
7.80324e-05
4.21453e-05
4.21368e-05
0.000213028
4.21532e-05
4.21446e-05
6.50468e-05
4.67524e-05
6.50341e-05
4.67517e-05
2.60337e-05
2.60332e-05
6.50553e-05
4.67493e-05
6.50436e-05
4.67484e-05
0.000230832
0.000230832
0.000230832
0.000230833
0.000230833
0.000230832
0.000230832
0.00015094
7.80164e-05
0.000228875
0.000223486
0.000150911
7.80395e-05
0.000228875
2.60311e-05
2.60308e-05
0.000150943
0.000228874
7.80204e-05
0.000223484
0.000150914
0.000228875
7.80424e-05
4.21513e-05
4.21429e-05
0.00021303
4.2156e-05
4.21475e-05
6.50471e-05
4.67523e-05
6.50351e-05
4.67517e-05
2.60334e-05
2.60333e-05
6.50557e-05
4.67492e-05
6.50451e-05
4.67484e-05
0.000230833
0.000230832
0.000230832
0.000230833
0.000230833
0.000230832
0.000230832
0.00015094
7.80179e-05
0.000228875
0.000223488
0.000150912
7.80398e-05
0.000228875
2.60311e-05
2.60308e-05
0.000150943
0.000228875
7.80221e-05
0.000223485
0.000150915
0.000228875
7.80429e-05
4.21519e-05
4.21435e-05
0.000213031
4.21561e-05
4.21477e-05
6.50471e-05
4.67523e-05
6.50351e-05
4.67517e-05
2.60335e-05
2.60333e-05
6.50557e-05
4.67492e-05
6.50452e-05
4.67484e-05
0.000230833
0.000230832
0.000230832
0.000230833
0.000230833
0.000230832
0.000230832
0.000150941
7.80179e-05
0.000228875
0.000223488
0.000150912
7.80398e-05
0.000228875
2.60311e-05
2.60308e-05
0.000150943
0.000228874
7.80222e-05
0.000223485
0.000150915
0.000228875
7.80429e-05
4.21519e-05
4.21435e-05
0.000213031
4.21562e-05
4.21477e-05
6.50471e-05
4.67523e-05
6.50352e-05
4.67516e-05
2.60335e-05
2.60333e-05
6.50557e-05
4.67492e-05
6.50452e-05
4.67484e-05
0.000230833
0.000230832
0.000230832
0.000230833
0.000230833
0.000230832
0.000230832
0.00015094
7.80179e-05
0.000228875
0.000223488
0.000150912
7.80398e-05
0.000228875
2.60311e-05
2.60308e-05
0.000150944
0.000228874
7.80222e-05
0.000223485
0.000150915
0.000228875
7.80429e-05
4.21519e-05
4.21435e-05
0.000213031
4.21561e-05
4.21476e-05
6.50471e-05
4.67524e-05
6.50352e-05
4.67516e-05
2.60335e-05
2.60333e-05
6.50557e-05
4.67493e-05
6.50451e-05
4.67485e-05
0.000230833
0.000230832
0.000230832
0.000230833
0.000230833
0.000230832
0.000230832
0.00015094
7.80179e-05
0.000228875
0.000223488
0.000150912
7.80398e-05
0.000228875
2.60311e-05
2.60308e-05
0.000150944
0.000228874
7.80222e-05
0.000223485
0.000150915
0.000228875
7.80429e-05
4.21519e-05
4.21434e-05
0.000213031
4.21561e-05
4.21476e-05
6.5047e-05
4.67525e-05
6.50351e-05
4.67519e-05
2.60335e-05
2.60333e-05
6.50557e-05
4.67492e-05
6.50451e-05
4.67484e-05
0.000230833
0.000230832
0.000230832
0.000230833
0.000230833
0.000230832
0.000230832
0.00015094
7.80179e-05
0.000228875
0.000223488
0.000150912
7.80398e-05
0.000228875
2.60311e-05
2.60308e-05
0.000150944
0.000228874
7.80222e-05
0.000223485
0.000150915
0.000228875
7.80429e-05
4.21518e-05
4.21434e-05
0.000213031
4.21561e-05
4.21476e-05
6.5047e-05
4.67526e-05
6.50351e-05
4.6752e-05
2.60335e-05
2.60333e-05
6.50557e-05
4.67491e-05
6.50451e-05
4.67483e-05
0.000230833
0.000230832
0.000230832
0.000230833
0.000230835
0.000230833
0.000230833
0.00015094
7.80179e-05
0.000228875
0.000223488
0.000150912
7.80398e-05
0.000228875
2.60311e-05
2.60308e-05
0.000150944
0.000228874
7.80222e-05
0.000223485
0.000150915
0.000228874
7.80429e-05
4.21518e-05
4.21434e-05
0.000213031
4.21561e-05
4.21476e-05
0.00023485
0.000233564
0.000233566
2.32574e-05
0.000214159
2.32563e-05
0.000214162
0.000234462
5.13676e-05
5.13495e-05
0.00022999
0.000229991
0.000235109
0.000234795
0.000234701
0.000234726
0.000235109
0.000234795
0.000234701
0.000234726
0.000234477
4.02626e-05
0.000218814
0.000147565
0.000234477
4.0262e-05
0.000218814
0.000147573
0.000233903
0.000234482
0.000100155
0.000234272
0.000233359
0.000234594
0.000228444
0.000233903
0.000234482
0.000100143
0.000234272
0.000233359
0.000234594
0.000228443
0.00023485
0.000233565
0.000233566
2.32571e-05
0.000214167
0.000234461
5.13595e-05
5.13551e-05
0.000229989
0.000229991
2.3257e-05
0.000214169
0.000235109
0.000234795
0.000234701
0.000234726
0.000235109
0.000234795
0.000234726
0.000234701
0.000234477
4.02594e-05
0.000218815
0.000147543
0.000233903
0.000234482
0.000100133
0.000234272
0.000233359
0.000234594
0.00022844
0.000234477
4.02589e-05
0.000218816
0.000147558
0.000233903
0.000234482
0.000234272
0.000100142
0.000234594
0.000233359
0.000228442
0.000234731
0.000234746
0.000234729
0.000234729
0.000234731
0.000234746
0.000234729
0.000234729
0.000234731
0.000234746
0.000234729
0.000234729
0.000234587
0.000234573
0.000234259
0.000234259
0.000234589
0.000234589
0.000234258
0.000234587
0.000234573
0.000234259
0.000234259
0.000234589
0.000234589
0.000234258
0.000234587
0.000234573
0.000234259
0.000234259
0.000234589
0.000234589
0.000234258
0.000234587
0.000234573
0.000234259
0.000234259
0.000234589
0.000234589
0.000234258
0.000235109
0.000234795
0.000234726
0.000234701
0.000233903
0.000234482
0.000100138
0.000234272
0.000233359
0.000234594
0.000228442
0.000234477
4.02601e-05
0.000218818
0.000147558
0.000233903
0.000234482
0.000234272
0.000100149
0.000234594
0.00023336
0.000228443
0.000234477
4.02596e-05
0.000218816
0.000147565
0.00023485
0.000233566
0.000233566
2.32564e-05
0.000214163
0.000234461
5.13537e-05
5.1356e-05
0.000229991
0.000229993
2.32568e-05
0.000214171
0.000235109
0.000234795
0.000234726
0.000234701
0.000233903
0.000234482
0.000234272
0.000100143
0.000234594
0.00023336
0.000228442
0.000233903
0.000234482
0.000234272
0.000100133
0.000234594
0.000233359
0.00022844
0.000234477
4.02592e-05
0.000218818
0.000147544
0.000234477
4.0259e-05
0.000218814
0.000147531
0.000234461
5.13602e-05
5.13482e-05
0.000229992
0.000229992
2.32569e-05
0.000214169
2.32563e-05
0.000214164
2.16839e-05
2.2828e-05
2.16826e-05
2.28265e-05
4.7735e-05
4.77232e-05
0.000231274
4.40521e-05
4.4037e-05
2.44812e-05
2.33075e-05
2.44797e-05
2.33062e-05
0.000229741
4.01566e-05
4.01411e-05
4.30621e-05
4.30487e-05
0.000104404
3.87441e-05
0.000129495
3.98143e-05
0.00020593
9.36119e-05
0.000233975
0.000231957
0.000222837
8.72487e-05
0.000233599
0.000205933
9.35971e-05
0.000233975
0.000231954
0.000222833
8.72332e-05
0.000233599
9.89594e-05
4.19612e-05
4.03762e-05
8.48712e-05
9.89521e-05
4.19599e-05
4.03749e-05
8.48731e-05
0.000200486
0.000230713
8.09149e-05
0.000232704
8.5647e-05
0.000233164
0.000184989
0.000200485
0.000230708
8.09025e-05
0.000232704
8.5633e-05
0.000233164
0.000184992
4.77268e-05
4.77313e-05
0.000231275
4.40407e-05
4.40483e-05
2.16836e-05
2.2828e-05
2.44804e-05
2.33067e-05
0.000229741
4.01462e-05
4.0151e-05
4.30525e-05
4.30557e-05
2.44813e-05
2.33078e-05
0.000205922
9.3591e-05
0.000233975
0.000231955
0.000222836
8.72288e-05
0.000233599
0.000104388
3.87408e-05
0.000129524
3.98118e-05
0.000205923
0.000233975
9.35934e-05
0.000231953
0.000222841
0.000233599
8.72302e-05
9.8952e-05
4.19576e-05
4.03725e-05
8.48718e-05
0.000200482
0.00023071
8.08982e-05
0.000232704
8.56321e-05
0.000233164
0.000184988
9.89528e-05
4.19566e-05
4.0372e-05
8.48703e-05
0.000200482
0.000230707
0.000232704
8.08968e-05
0.000233164
8.56277e-05
0.000184985
0.000104393
3.87417e-05
0.000129513
3.98147e-05
0.000205927
0.000233975
9.36044e-05
0.000231957
0.000222847
0.000233599
8.72428e-05
0.000104388
3.87421e-05
0.000129534
3.98132e-05
0.000200486
0.000230715
8.09114e-05
0.000232704
8.56442e-05
0.000233165
0.000184991
9.89552e-05
4.19598e-05
4.03738e-05
8.48708e-05
0.000200487
0.000230712
0.000232704
8.09107e-05
0.000233164
8.56445e-05
0.00018499
9.89633e-05
4.19588e-05
4.03739e-05
8.48704e-05
4.77224e-05
4.77322e-05
0.000231274
4.40371e-05
4.40519e-05
2.1683e-05
2.28272e-05
2.44789e-05
2.33055e-05
0.00022974
4.01409e-05
4.01545e-05
4.30491e-05
4.30578e-05
2.44804e-05
2.33066e-05
0.000205919
0.000233975
9.35913e-05
0.000231954
0.000222845
0.000233599
8.72309e-05
0.000104372
3.87412e-05
0.000129542
3.98134e-05
0.000104368
3.87406e-05
0.000129528
3.98124e-05
0.000200484
0.000230714
0.000232704
8.09109e-05
0.000233165
8.56409e-05
0.000184986
0.000200485
0.00023071
0.000232704
8.09016e-05
0.000233164
8.56324e-05
0.000184985
9.89682e-05
4.19584e-05
4.03735e-05
8.48695e-05
9.89684e-05
4.19577e-05
4.03721e-05
8.48676e-05
2.16834e-05
2.28272e-05
2.16825e-05
2.28266e-05
0.000229741
4.01526e-05
4.01417e-05
4.30639e-05
4.30491e-05
2.44806e-05
2.33069e-05
2.44797e-05
2.33062e-05
2.47798e-05
2.54633e-05
2.4778e-05
2.54617e-05
3.89778e-05
3.89645e-05
0.000219468
3.67627e-05
3.67507e-05
2.59375e-05
2.56367e-05
2.59362e-05
2.56347e-05
0.000216837
3.39312e-05
3.39186e-05
3.56218e-05
3.56103e-05
7.29017e-05
4.243e-05
8.13029e-05
4.37609e-05
0.000167969
7.9218e-05
0.000232165
0.000226024
0.000180079
7.49073e-05
0.000231385
0.000167972
7.92067e-05
0.000232165
0.000226019
0.000180081
7.48959e-05
0.000231385
6.93467e-05
4.5218e-05
4.41761e-05
6.28961e-05
6.93506e-05
4.52175e-05
4.41746e-05
6.28982e-05
0.000162737
0.000223686
6.85816e-05
0.00022936
7.29117e-05
0.000230361
0.00015113
0.000162742
0.00022368
6.85731e-05
0.00022936
7.29e-05
0.000230361
0.000151133
3.89686e-05
3.89735e-05
0.00021947
3.67541e-05
3.67607e-05
2.478e-05
2.54634e-05
2.59372e-05
2.56357e-05
0.000216838
3.39226e-05
3.39279e-05
3.56131e-05
3.56166e-05
2.59378e-05
2.56367e-05
0.000167965
7.92044e-05
0.000232165
0.000226023
0.000180074
7.48943e-05
0.000231385
7.28909e-05
4.24268e-05
8.12894e-05
4.37571e-05
0.000167963
0.000232164
7.92018e-05
0.000226017
0.000180071
0.000231384
7.48914e-05
6.9349e-05
4.52148e-05
4.41728e-05
6.28949e-05
0.000162735
0.000223684
6.85707e-05
0.00022936
7.28983e-05
0.000230361
0.000151127
6.93472e-05
4.52135e-05
4.41709e-05
6.28935e-05
0.000162731
0.000223677
0.000229358
6.85677e-05
0.00023036
7.28932e-05
0.000151124
7.28946e-05
4.24296e-05
8.13002e-05
4.37606e-05
0.000167967
0.000232165
7.9216e-05
0.000226023
0.000180078
0.000231385
7.49024e-05
7.28973e-05
4.2429e-05
8.12949e-05
4.37592e-05
0.000162741
0.000223691
6.85821e-05
0.000229361
7.29092e-05
0.000230362
0.000151131
6.93535e-05
4.5217e-05
4.41744e-05
6.28953e-05
0.000162739
0.000223684
0.00022936
6.8578e-05
0.000230361
7.29056e-05
0.000151129
6.93507e-05
4.52157e-05
4.41731e-05
6.28937e-05
3.89644e-05
3.89763e-05
0.000219466
3.6751e-05
3.67603e-05
2.47791e-05
2.54621e-05
2.59349e-05
2.56339e-05
0.000216835
3.39191e-05
3.39288e-05
3.56066e-05
3.56193e-05
2.59368e-05
2.56353e-05
0.000167967
0.000232165
7.92051e-05
0.000226022
0.000180077
0.000231385
7.48931e-05
7.28911e-05
4.24285e-05
8.12898e-05
4.37594e-05
7.28977e-05
4.24273e-05
8.1292e-05
4.37582e-05
0.000162733
0.000223689
0.00022936
6.85784e-05
0.000230361
7.29066e-05
0.000151125
0.000162737
0.000223684
0.000229359
6.85701e-05
0.000230361
7.28971e-05
0.000151127
6.9348e-05
4.52159e-05
4.41731e-05
6.28943e-05
6.93496e-05
4.52145e-05
4.41717e-05
6.28949e-05
2.4779e-05
2.54619e-05
2.47782e-05
2.54612e-05
0.000216835
3.39277e-05
3.39182e-05
3.56177e-05
3.56083e-05
2.59367e-05
2.56351e-05
2.59359e-05
2.56344e-05
2.59769e-05
2.60132e-05
2.59751e-05
2.60119e-05
3.40768e-05
3.4067e-05
0.000208594
3.62521e-05
3.62387e-05
2.60267e-05
2.60189e-05
2.60248e-05
2.60171e-05
0.000208709
4.08543e-05
4.08406e-05
3.78151e-05
3.78041e-05
6.22364e-05
4.55024e-05
6.18559e-05
4.61998e-05
0.000146881
6.83326e-05
0.000228684
0.000220819
0.000148617
7.0399e-05
0.000228427
0.000146882
6.83238e-05
0.000228684
0.000220814
0.000148619
7.03897e-05
0.000228426
6.28695e-05
4.66661e-05
4.63733e-05
6.43124e-05
6.28694e-05
4.66663e-05
4.63727e-05
6.43125e-05
0.000147349
0.000221501
7.59799e-05
0.000228587
7.19464e-05
0.000228456
0.000149511
0.000147349
0.000221497
7.59767e-05
0.000228586
7.19364e-05
0.000228455
0.00014951
3.40707e-05
3.40728e-05
0.000208598
3.62432e-05
3.62483e-05
2.59773e-05
2.60135e-05
2.6026e-05
2.60183e-05
0.00020871
4.08435e-05
4.08521e-05
3.78072e-05
3.78117e-05
2.60267e-05
2.60191e-05
0.000146872
6.83216e-05
0.000228684
0.000220821
0.000148613
7.03887e-05
0.000228426
6.2226e-05
4.54985e-05
6.18502e-05
4.61954e-05
0.000146872
0.000228682
6.83184e-05
0.000220811
0.000148611
0.000228425
7.03854e-05
6.28705e-05
4.66632e-05
4.63702e-05
6.43129e-05
0.000147343
0.000221503
7.59711e-05
0.000228586
7.19344e-05
0.000228455
0.000149506
6.28712e-05
4.66614e-05
4.63685e-05
6.4313e-05
0.000147342
0.000221494
0.000228586
7.59656e-05
0.000228454
7.19324e-05
0.000149505
6.22329e-05
4.5502e-05
6.18531e-05
4.61993e-05
0.000146879
0.000228684
6.83287e-05
0.000220818
0.000148617
0.000228426
7.03944e-05
6.22335e-05
4.55005e-05
6.18518e-05
4.61976e-05
0.000147348
0.000221508
7.59809e-05
0.000228588
7.19457e-05
0.000228456
0.00014951
6.28662e-05
4.66656e-05
4.63725e-05
6.43112e-05
0.000147349
0.0002215
0.000228587
7.59792e-05
0.000228455
7.19405e-05
0.000149509
6.28666e-05
4.66638e-05
4.63704e-05
6.43109e-05
3.40641e-05
3.40768e-05
0.000208591
3.62388e-05
3.625e-05
2.59759e-05
2.60125e-05
2.60237e-05
2.60162e-05
0.000208705
4.08407e-05
4.08505e-05
3.78014e-05
3.78142e-05
2.60256e-05
2.60178e-05
0.000146875
0.000228683
6.83217e-05
0.00022082
0.000148614
0.000228426
7.03873e-05
6.22264e-05
4.55004e-05
6.1851e-05
4.61973e-05
6.22252e-05
4.54994e-05
6.18512e-05
4.61967e-05
0.000147346
0.000221505
0.000228587
7.59795e-05
0.000228455
7.19397e-05
0.000149508
0.000147345
0.000221503
0.000228586
7.59726e-05
0.000228454
7.19333e-05
0.000149509
6.28718e-05
4.66635e-05
4.63702e-05
6.43138e-05
6.28705e-05
4.66631e-05
4.63696e-05
6.43132e-05
2.59757e-05
2.60124e-05
2.59749e-05
2.60116e-05
0.000208707
4.08501e-05
4.08409e-05
3.78124e-05
3.78031e-05
2.60255e-05
2.60177e-05
2.60246e-05
2.60169e-05
2.60307e-05
2.60335e-05
2.60288e-05
2.60321e-05
4.13531e-05
4.1345e-05
0.000212701
4.20045e-05
4.19999e-05
2.60344e-05
2.60343e-05
2.60325e-05
2.60326e-05
0.000212688
4.21378e-05
4.21333e-05
4.20675e-05
4.20632e-05
6.49228e-05
4.67087e-05
6.45642e-05
4.67492e-05
0.000150688
7.67531e-05
0.000228712
0.00022319
0.000149866
7.77417e-05
0.000228793
0.000150688
7.67491e-05
0.000228712
0.000223189
0.000149865
7.77415e-05
0.000228792
6.4968e-05
4.67525e-05
4.67525e-05
6.50213e-05
6.49677e-05
4.67528e-05
4.67528e-05
6.50213e-05
0.000150734
0.000223354
7.80006e-05
0.000228859
7.78648e-05
0.000228835
0.000150883
0.000150733
0.000223352
7.79995e-05
0.000228858
7.78645e-05
0.000228835
0.000150883
4.1347e-05
4.13516e-05
0.000212704
4.20013e-05
4.20037e-05
2.60307e-05
2.60335e-05
2.60336e-05
2.60336e-05
0.000212691
4.21341e-05
4.21303e-05
4.20639e-05
4.20645e-05
2.6034e-05
2.6034e-05
0.000150687
7.67435e-05
0.000228712
0.000223194
0.000149862
7.77358e-05
0.000228792
6.49277e-05
4.67039e-05
6.45678e-05
4.6744e-05
0.000150685
0.000228711
7.67393e-05
0.000223185
0.000149861
0.000228791
7.77257e-05
6.49737e-05
4.67497e-05
4.67497e-05
6.50279e-05
0.000150733
0.000223357
7.79952e-05
0.000228858
7.78592e-05
0.000228835
0.000150883
6.49721e-05
4.67477e-05
4.67478e-05
6.50262e-05
0.000150731
0.000223349
0.000228857
7.79833e-05
0.000228834
7.78494e-05
0.000150881
6.49222e-05
4.67081e-05
6.45633e-05
4.67483e-05
0.000150686
0.000228712
7.6751e-05
0.000223189
0.000149865
0.000228793
7.77429e-05
6.49213e-05
4.67062e-05
6.45627e-05
4.67467e-05
0.000150733
0.00022336
7.79988e-05
0.000228859
7.78657e-05
0.000228836
0.000150883
6.4967e-05
4.6752e-05
4.6752e-05
6.50205e-05
0.000150733
0.000223353
0.000228858
7.80008e-05
0.000228835
7.78658e-05
0.000150881
6.49662e-05
4.67503e-05
4.67503e-05
6.50196e-05
4.13398e-05
4.13537e-05
0.000212698
4.19916e-05
4.20082e-05
2.60297e-05
2.60329e-05
2.60309e-05
2.6031e-05
0.000212685
4.21196e-05
4.21403e-05
4.20521e-05
4.20706e-05
2.60333e-05
2.60333e-05
0.00015069
0.000228712
7.67448e-05
0.000223193
0.000149865
0.000228792
7.77377e-05
6.49286e-05
4.67059e-05
6.45686e-05
4.67464e-05
6.49287e-05
4.67055e-05
6.45681e-05
4.67461e-05
0.000150734
0.000223357
0.000228858
7.80008e-05
0.000228836
7.78668e-05
0.000150884
0.000150735
0.000223357
0.000228859
7.79959e-05
0.000228835
7.78606e-05
0.000150886
6.49729e-05
4.67501e-05
4.675e-05
6.5027e-05
6.4973e-05
4.67497e-05
4.67497e-05
6.50271e-05
2.60295e-05
2.60327e-05
2.60287e-05
2.60319e-05
0.000212687
4.21405e-05
4.21319e-05
4.20702e-05
4.20619e-05
2.60332e-05
2.60332e-05
2.60323e-05
2.60323e-05
2.60346e-05
2.60344e-05
2.60326e-05
2.60325e-05
4.21448e-05
4.214e-05
0.000213025
4.21524e-05
4.2146e-05
2.60344e-05
2.60346e-05
2.60324e-05
2.60325e-05
0.000212946
4.2156e-05
4.21484e-05
4.21513e-05
4.21447e-05
6.50398e-05
4.67529e-05
6.50202e-05
4.67523e-05
0.000150924
7.79982e-05
0.00022887
0.000223473
0.000150874
7.80329e-05
0.000228873
0.000150924
7.79971e-05
0.00022887
0.000223472
0.000150873
7.80306e-05
0.000228873
6.50337e-05
4.67518e-05
4.67521e-05
6.50454e-05
6.50336e-05
4.67519e-05
4.67523e-05
6.50455e-05
0.000150903
0.000223478
7.80416e-05
0.000228875
7.80192e-05
0.000228875
0.000150935
0.000150903
0.000223477
7.80382e-05
0.000228874
7.80166e-05
0.000228874
0.000150936
4.21404e-05
4.21356e-05
0.000213028
4.21464e-05
4.21439e-05
2.60342e-05
2.60339e-05
2.60335e-05
2.60336e-05
0.000212948
4.21487e-05
4.21455e-05
4.21446e-05
4.21413e-05
2.60338e-05
2.6034e-05
0.000150925
7.79929e-05
0.00022887
0.000223477
0.000150874
7.80258e-05
0.000228873
6.50446e-05
4.67478e-05
6.50259e-05
4.6747e-05
0.000150923
0.000228869
7.79799e-05
0.000223468
0.000150871
0.000228872
7.80144e-05
6.50421e-05
4.67486e-05
4.67491e-05
6.50534e-05
0.000150905
0.000223482
7.80331e-05
0.000228875
7.80121e-05
0.000228875
0.000150938
6.504e-05
4.67466e-05
4.67471e-05
6.5051e-05
0.000150902
0.000223473
0.000228873
7.80215e-05
0.000228873
7.79991e-05
0.000150934
6.50389e-05
4.67521e-05
6.50194e-05
4.67513e-05
0.000150922
0.00022887
7.79983e-05
0.000223473
0.000150872
0.000228873
7.8032e-05
6.50382e-05
4.67504e-05
6.50185e-05
4.67497e-05
0.000150904
0.000223482
7.80376e-05
0.000228875
7.80153e-05
0.000228875
0.000150936
6.50327e-05
4.67509e-05
4.67514e-05
6.50447e-05
0.000150902
0.000223477
0.000228875
7.80398e-05
0.000228875
7.8018e-05
0.000150934
6.5032e-05
4.67493e-05
4.67498e-05
6.50441e-05
4.21253e-05
4.21466e-05
0.000213022
4.21332e-05
4.21528e-05
2.60335e-05
2.60333e-05
2.60308e-05
2.6031e-05
0.000212942
4.21348e-05
4.21551e-05
4.21304e-05
4.21512e-05
2.60332e-05
2.60334e-05
0.000150927
0.00022887
7.79933e-05
0.000223477
0.000150876
0.000228873
7.80272e-05
6.50455e-05
4.67501e-05
6.50267e-05
4.67495e-05
6.50458e-05
4.67498e-05
6.50268e-05
4.67491e-05
0.000150906
0.00022348
0.000228875
7.80403e-05
0.000228875
7.80187e-05
0.000150939
0.000150907
0.000223482
0.000228875
7.80349e-05
0.000228875
7.80129e-05
0.00015094
6.50409e-05
4.67491e-05
4.67495e-05
6.50522e-05
6.50411e-05
4.67487e-05
4.67492e-05
6.50524e-05
2.60333e-05
2.60331e-05
2.60324e-05
2.60322e-05
0.000212948
4.21554e-05
4.21469e-05
4.21515e-05
4.2143e-05
2.6033e-05
2.60332e-05
2.60322e-05
2.60323e-05
2.60347e-05
2.60346e-05
2.60325e-05
2.60324e-05
4.21541e-05
4.21464e-05
0.00021303
4.21574e-05
4.2149e-05
2.60346e-05
2.60347e-05
2.60324e-05
2.60325e-05
0.000212947
4.21581e-05
4.21492e-05
4.21552e-05
4.21469e-05
6.50471e-05
4.6752e-05
6.50379e-05
4.67518e-05
0.00015094
7.80257e-05
0.000228874
0.000223481
0.000150915
7.80445e-05
0.000228874
0.000150941
7.80221e-05
0.000228874
0.00022348
0.000150915
7.80401e-05
0.000228874
6.50386e-05
4.67517e-05
4.67518e-05
6.50469e-05
6.5039e-05
4.67517e-05
4.67519e-05
6.50474e-05
0.000150919
0.000223482
7.80458e-05
0.000228875
7.80283e-05
0.000228875
0.00015094
0.000150919
0.000223481
7.80406e-05
0.000228874
7.80234e-05
0.000228875
0.000150941
4.21463e-05
4.2142e-05
0.000213032
4.2149e-05
4.21459e-05
2.6034e-05
2.60338e-05
2.60332e-05
2.60333e-05
0.000212948
4.21494e-05
4.21459e-05
4.21465e-05
4.21425e-05
2.60338e-05
2.6034e-05
0.000150943
7.80171e-05
0.000228874
0.000223484
0.000150918
7.80348e-05
0.000228874
6.50529e-05
4.67468e-05
6.50448e-05
4.67464e-05
0.00015094
0.000228873
7.80043e-05
0.000223476
0.000150914
0.000228873
7.80235e-05
6.50485e-05
4.67484e-05
4.67487e-05
6.50556e-05
0.000150922
0.000223486
7.80351e-05
0.000228875
7.80185e-05
0.000228875
0.000150944
6.50461e-05
4.67464e-05
4.67466e-05
6.50533e-05
0.000150918
0.000223477
0.000228874
7.80238e-05
0.000228874
7.80057e-05
0.000150941
6.50462e-05
4.67511e-05
6.5037e-05
4.67507e-05
0.000150939
0.000228874
7.80236e-05
0.00022348
0.000150914
0.000228874
7.80418e-05
6.50459e-05
4.67494e-05
6.50364e-05
4.67491e-05
0.000150918
0.000223487
7.80397e-05
0.000228875
7.80218e-05
0.000228875
0.000150939
6.50381e-05
4.67507e-05
4.6751e-05
6.50465e-05
0.000150918
0.000223482
0.000228875
7.80422e-05
0.000228875
7.80251e-05
0.00015094
6.50377e-05
4.67491e-05
4.67493e-05
6.50461e-05
4.21316e-05
4.2153e-05
0.000213026
4.21353e-05
4.21559e-05
2.60333e-05
2.60332e-05
2.60308e-05
2.6031e-05
0.000212943
4.21354e-05
4.21561e-05
4.21319e-05
4.21535e-05
2.60331e-05
2.60333e-05
0.000150945
0.000228874
7.80185e-05
0.000223485
0.000150919
0.000228874
7.8037e-05
6.5054e-05
4.67492e-05
6.50459e-05
4.67489e-05
6.50544e-05
4.67488e-05
6.50462e-05
4.67485e-05
0.000150921
0.000223484
0.000228875
7.80428e-05
0.000228875
7.8026e-05
0.000150941
0.000150924
0.000223486
0.000228875
7.80374e-05
0.000228875
7.802e-05
0.000150945
6.50471e-05
4.67489e-05
4.67491e-05
6.50542e-05
6.50476e-05
4.67485e-05
4.67487e-05
6.50547e-05
2.60331e-05
2.6033e-05
2.60323e-05
2.60321e-05
0.000212947
4.21562e-05
4.21477e-05
4.21536e-05
4.21452e-05
2.6033e-05
2.60331e-05
2.60321e-05
2.60323e-05
2.60348e-05
2.60347e-05
2.60325e-05
2.60324e-05
4.21558e-05
4.2147e-05
0.000213032
4.21583e-05
4.21491e-05
2.60346e-05
2.60347e-05
2.60324e-05
2.60325e-05
0.000212948
4.21578e-05
4.21492e-05
4.21555e-05
4.2147e-05
6.50476e-05
4.67519e-05
6.50392e-05
4.67517e-05
0.000150941
7.80291e-05
0.000228875
0.000223483
0.000150918
7.80462e-05
0.000228875
0.000150942
7.80238e-05
0.000228875
0.000223481
0.000150919
7.80407e-05
0.000228875
6.50388e-05
4.67517e-05
4.67518e-05
6.5047e-05
6.50393e-05
4.67517e-05
4.67519e-05
6.50476e-05
0.000150918
0.000223483
7.80462e-05
0.000228875
7.80295e-05
0.000228875
0.00015094
0.000150919
0.000223481
7.80407e-05
0.000228874
7.80238e-05
0.000228875
0.000150942
4.21468e-05
4.21423e-05
0.000213034
4.21492e-05
4.21458e-05
2.6034e-05
2.60338e-05
2.60333e-05
2.60334e-05
0.000212949
4.21494e-05
4.21459e-05
4.21468e-05
4.21423e-05
2.60338e-05
2.6034e-05
0.000150944
7.80185e-05
0.000228875
0.000223486
0.000150922
7.8035e-05
0.000228875
6.50534e-05
4.67466e-05
6.50464e-05
4.67464e-05
0.000150941
0.000228874
7.80059e-05
0.000223477
0.000150918
0.000228874
7.8024e-05
6.50488e-05
4.67484e-05
4.67487e-05
6.50557e-05
0.000150922
0.000223486
7.80348e-05
0.000228875
7.80185e-05
0.000228876
0.000150944
6.50464e-05
4.67464e-05
4.67466e-05
6.50533e-05
0.000150919
0.000223477
0.000228873
7.80239e-05
0.000228874
7.8006e-05
0.000150941
6.50466e-05
4.67509e-05
6.50383e-05
4.67507e-05
0.00015094
0.000228875
7.80253e-05
0.000223482
0.000150918
0.000228875
7.80424e-05
6.50462e-05
4.67493e-05
6.50378e-05
4.67491e-05
0.000150919
0.000223488
7.80398e-05
0.000228875
7.8022e-05
0.000228875
0.000150939
6.50383e-05
4.67507e-05
4.67509e-05
6.50466e-05
0.000150918
0.000223482
0.000228875
7.80423e-05
0.000228875
7.80254e-05
0.000150939
6.50379e-05
4.67491e-05
4.67493e-05
6.50461e-05
4.2132e-05
4.21537e-05
0.000213029
4.21353e-05
4.21561e-05
2.60333e-05
2.60331e-05