/*--------------------------------*- C++ -*----------------------------------*\
| =========                 |                                                 |
| \\      /  F ield         | OpenFOAM: The Open Source CFD Toolbox           |
|  \\    /   O peration     | Version:  2206                                  |
|   \\  /    A nd           | Website:  www.openfoam.com                      |
|    \\/     M anipulation  |                                                 |
\*---------------------------------------------------------------------------*/
FoamFile
{
    version     2.0;
    format      ascii;
    arch        "LSB;label=32;scalar=64";
    class       volScalarField;
    location    "3.5";
    object      epsilon;
}
// * * * * * * * * * * * * * * * * * * * * * * * * * * * * * * * * * * * * * //

dimensions      [0 2 -3 0 0 0 0];

internalField   nonuniform List<scalar> 
28335
(
4.90594e-07
4.91152e-07
4.91153e-07
4.9183e-07
4.90463e-07
4.91027e-07
4.91027e-07
4.91692e-07
4.90463e-07
4.91027e-07
4.91027e-07
4.91692e-07
4.90463e-07
4.91027e-07
4.91027e-07
4.91692e-07
4.90463e-07
4.91027e-07
4.91027e-07
4.91692e-07
4.90463e-07
4.91027e-07
4.91027e-07
4.91692e-07
4.90463e-07
4.91027e-07
4.91027e-07
4.91692e-07
4.90463e-07
4.91027e-07
4.91027e-07
4.91692e-07
4.90463e-07
4.91027e-07
4.91027e-07
4.91692e-07
4.90463e-07
4.91027e-07
4.91027e-07
4.91692e-07
4.90463e-07
4.91027e-07
4.91027e-07
4.91692e-07
4.90463e-07
4.91027e-07
4.91027e-07
4.91692e-07
4.90463e-07
4.91027e-07
4.91027e-07
4.91692e-07
4.90463e-07
4.91027e-07
4.91027e-07
4.91692e-07
4.90463e-07
4.91027e-07
4.91027e-07
4.91692e-07
4.90463e-07
4.91027e-07
4.91027e-07
4.91692e-07
4.90463e-07
4.91027e-07
4.91027e-07
4.91692e-07
4.9191e-07
4.91272e-07
4.91272e-07
4.91909e-07
4.91272e-07
4.91273e-07
4.91271e-07
4.91271e-07
4.91911e-07
4.91272e-07
4.91271e-07
4.91905e-07
4.91842e-07
4.91685e-07
4.91159e-07
4.91158e-07
4.91028e-07
4.91028e-07
4.91841e-07
4.91684e-07
4.91159e-07
4.9116e-07
4.91028e-07
4.91029e-07
4.91158e-07
4.91028e-07
4.91028e-07
4.91843e-07
4.91684e-07
4.91158e-07
4.91028e-07
4.91028e-07
4.91687e-07
4.91699e-07
4.91686e-07
4.91032e-07
4.91032e-07
4.91028e-07
4.91028e-07
4.91698e-07
4.91685e-07
4.91032e-07
4.91032e-07
4.91028e-07
4.91028e-07
4.91032e-07
4.91029e-07
4.91028e-07
4.91698e-07
4.91686e-07
4.91031e-07
4.91029e-07
4.91028e-07
4.91688e-07
4.917e-07
4.91686e-07
4.91032e-07
4.91032e-07
4.91028e-07
4.91028e-07
4.91699e-07
4.91685e-07
4.91032e-07
4.91032e-07
4.91028e-07
4.91028e-07
4.91032e-07
4.91028e-07
4.91028e-07
4.91699e-07
4.91686e-07
4.91031e-07
4.91028e-07
4.91028e-07
4.91688e-07
4.917e-07
4.91686e-07
4.91032e-07
4.91032e-07
4.91028e-07
4.91028e-07
4.91699e-07
4.91685e-07
4.91032e-07
4.91032e-07
4.91028e-07
4.91028e-07
4.91032e-07
4.91028e-07
4.91028e-07
4.91699e-07
4.91685e-07
4.91031e-07
4.91028e-07
4.91028e-07
4.91687e-07
4.917e-07
4.91686e-07
4.91032e-07
4.91032e-07
4.91028e-07
4.91028e-07
4.91699e-07
4.91685e-07
4.91032e-07
4.91032e-07
4.91028e-07
4.91028e-07
4.91032e-07
4.91028e-07
4.91028e-07
4.91699e-07
4.91686e-07
4.91031e-07
4.91028e-07
4.91028e-07
4.91688e-07
4.917e-07
4.91686e-07
4.91032e-07
4.91032e-07
4.91028e-07
4.91028e-07
4.91699e-07
4.91685e-07
4.91032e-07
4.91032e-07
4.91028e-07
4.91028e-07
4.91032e-07
4.91028e-07
4.91028e-07
4.91699e-07
4.91685e-07
4.91031e-07
4.91028e-07
4.91028e-07
4.91688e-07
4.917e-07
4.91686e-07
4.91032e-07
4.91032e-07
4.91028e-07
4.91028e-07
4.91699e-07
4.91685e-07
4.91032e-07
4.91032e-07
4.91028e-07
4.91028e-07
4.91032e-07
4.91028e-07
4.91028e-07
4.91699e-07
4.91685e-07
4.91031e-07
4.91028e-07
4.91028e-07
4.91688e-07
4.917e-07
4.91686e-07
4.91032e-07
4.91032e-07
4.91028e-07
4.91028e-07
4.91699e-07
4.91685e-07
4.91032e-07
4.91032e-07
4.91028e-07
4.91028e-07
4.91032e-07
4.91028e-07
4.91028e-07
4.91699e-07
4.91685e-07
4.91031e-07
4.91028e-07
4.91028e-07
4.91688e-07
4.917e-07
4.91686e-07
4.91032e-07
4.91032e-07
4.91028e-07
4.91028e-07
4.91699e-07
4.91685e-07
4.91032e-07
4.91032e-07
4.91028e-07
4.91028e-07
4.91032e-07
4.91028e-07
4.91028e-07
4.91699e-07
4.91686e-07
4.91031e-07
4.91028e-07
4.91028e-07
4.91688e-07
4.917e-07
4.91686e-07
4.91032e-07
4.91032e-07
4.91028e-07
4.91028e-07
4.91699e-07
4.91685e-07
4.91032e-07
4.91032e-07
4.91028e-07
4.91028e-07
4.91032e-07
4.91028e-07
4.91028e-07
4.917e-07
4.91686e-07
4.91031e-07
4.91028e-07
4.91028e-07
4.91688e-07
4.917e-07
4.91686e-07
4.91032e-07
4.91032e-07
4.91028e-07
4.91028e-07
4.91699e-07
4.91685e-07
4.91032e-07
4.91032e-07
4.91028e-07
4.91028e-07
4.91032e-07
4.91028e-07
4.91028e-07
4.91699e-07
4.91685e-07
4.91031e-07
4.91028e-07
4.91028e-07
4.91688e-07
4.917e-07
4.91686e-07
4.91032e-07
4.91032e-07
4.91028e-07
4.91028e-07
4.91699e-07
4.91685e-07
4.91032e-07
4.91032e-07
4.91028e-07
4.91028e-07
4.91032e-07
4.91028e-07
4.91028e-07
4.91699e-07
4.91685e-07
4.91031e-07
4.91028e-07
4.91028e-07
4.91687e-07
4.917e-07
4.91686e-07
4.91032e-07
4.91032e-07
4.91028e-07
4.91028e-07
4.91699e-07
4.91685e-07
4.91032e-07
4.91032e-07
4.91028e-07
4.91028e-07
4.91032e-07
4.91028e-07
4.91028e-07
4.91699e-07
4.91685e-07
4.91031e-07
4.91028e-07
4.91028e-07
4.91688e-07
4.917e-07
4.91686e-07
4.91032e-07
4.91032e-07
4.91028e-07
4.91028e-07
4.91699e-07
4.91685e-07
4.91032e-07
4.91032e-07
4.91028e-07
4.91028e-07
4.91032e-07
4.91028e-07
4.91028e-07
4.91699e-07
4.91686e-07
4.91031e-07
4.91028e-07
4.91028e-07
4.91688e-07
4.917e-07
4.91686e-07
4.91032e-07
4.91032e-07
4.91028e-07
4.91028e-07
4.91699e-07
4.91685e-07
4.91032e-07
4.91032e-07
4.91028e-07
4.91028e-07
4.91032e-07
4.91028e-07
4.91028e-07
4.91699e-07
4.91685e-07
4.91031e-07
4.91028e-07
4.91028e-07
4.91688e-07
4.917e-07
4.91686e-07
4.91032e-07
4.91032e-07
4.91028e-07
4.91028e-07
4.91699e-07
4.91685e-07
4.91032e-07
4.91032e-07
4.91028e-07
4.91028e-07
4.91032e-07
4.91028e-07
4.91028e-07
4.91699e-07
4.91685e-07
4.91031e-07
4.91028e-07
4.91028e-07
4.91688e-07
4.917e-07
4.91032e-07
4.91032e-07
4.91699e-07
4.91032e-07
4.91031e-07
4.9103e-07
4.91699e-07
4.9103e-07
9.1486e-07
4.76836e-06
1.49243e-05
9.14788e-07
4.76904e-06
4.90715e-07
4.90714e-07
4.90714e-07
4.90715e-07
5.30066e-07
4.91331e-07
8.1263e-07
4.90846e-07
1.49262e-05
5.30065e-07
4.91332e-07
4.90846e-07
8.12614e-07
4.91982e-07
1.33952e-06
1.33975e-06
9.16911e-07
4.77562e-06
9.1642e-07
4.77712e-06
1.49682e-05
1.49772e-05
9.16856e-07
4.77631e-06
9.16339e-07
4.77785e-06
4.90599e-07
4.90599e-07
4.906e-07
4.90464e-07
4.90464e-07
4.90464e-07
4.90464e-07
5.30164e-07
8.13824e-07
4.90663e-07
4.91079e-07
5.30158e-07
8.14129e-07
4.90587e-07
1.49698e-05
1.49788e-05
5.30166e-07
4.90662e-07
8.13791e-07
4.9108e-07
5.30163e-07
4.90586e-07
8.14104e-07
1.34293e-06
1.34317e-06
4.91695e-07
1.34392e-06
1.34415e-06
9.16932e-07
4.77743e-06
9.17069e-07
4.77711e-06
1.49786e-05
1.49769e-05
9.16842e-07
4.77813e-06
9.16969e-07
4.7778e-06
4.90466e-07
4.90467e-07
4.90467e-07
4.90464e-07
4.90463e-07
4.90463e-07
4.90463e-07
5.30164e-07
8.14327e-07
4.90533e-07
4.91032e-07
5.30191e-07
8.14143e-07
4.90538e-07
1.49804e-05
1.49787e-05
5.30163e-07
4.90533e-07
8.14282e-07
4.91033e-07
5.30194e-07
4.90538e-07
8.14115e-07
1.34403e-06
1.34426e-06
4.91688e-07
1.34386e-06
1.34409e-06
9.16932e-07
4.77743e-06
9.17072e-07
4.77711e-06
1.49785e-05
1.49769e-05
9.16842e-07
4.77811e-06
9.16962e-07
4.77779e-06
4.90467e-07
4.90467e-07
4.90467e-07
4.90463e-07
4.90463e-07
4.90463e-07
4.90463e-07
5.30163e-07
8.14326e-07
4.90533e-07
4.91031e-07
5.30197e-07
8.14143e-07
4.90537e-07
1.49804e-05
1.49787e-05
5.30163e-07
4.90533e-07
8.14281e-07
4.91032e-07
5.30197e-07
4.90537e-07
8.14115e-07
1.34403e-06
1.34426e-06
4.91688e-07
1.34386e-06
1.34409e-06
9.16932e-07
4.77743e-06
9.17071e-07
4.77711e-06
1.49785e-05
1.49769e-05
9.16842e-07
4.77811e-06
9.16962e-07
4.77779e-06
4.90467e-07
4.90467e-07
4.90467e-07
4.90463e-07
4.90463e-07
4.90463e-07
4.90463e-07
5.30164e-07
8.14326e-07
4.90533e-07
4.91031e-07
5.30197e-07
8.14143e-07
4.90537e-07
1.49804e-05
1.49787e-05
5.30163e-07
4.90533e-07
8.14281e-07
4.91032e-07
5.30197e-07
4.90537e-07
8.14115e-07
1.34403e-06
1.34427e-06
4.91688e-07
1.34386e-06
1.34409e-06
9.16932e-07
4.77743e-06
9.17072e-07
4.77711e-06
1.49785e-05
1.49769e-05
9.16842e-07
4.77811e-06
9.16962e-07
4.77779e-06
4.90467e-07
4.90466e-07
4.90467e-07
4.90463e-07
4.90463e-07
4.90463e-07
4.90463e-07
5.30163e-07
8.14326e-07
4.90533e-07
4.91031e-07
5.30197e-07
8.14143e-07
4.90537e-07
1.49804e-05
1.49787e-05
5.30163e-07
4.90533e-07
8.14281e-07
4.91032e-07
5.30197e-07
4.90537e-07
8.14115e-07
1.34403e-06
1.34427e-06
4.91688e-07
1.34386e-06
1.34409e-06
9.16932e-07
4.77743e-06
9.17071e-07
4.77711e-06
1.49785e-05
1.49769e-05
9.16842e-07
4.77807e-06
9.16962e-07
4.77776e-06
4.90467e-07
4.90467e-07
4.90467e-07
4.90463e-07
4.90463e-07
4.90463e-07
4.90463e-07
5.30163e-07
8.14326e-07
4.90533e-07
4.91031e-07
5.30198e-07
8.14143e-07
4.90537e-07
1.49804e-05
1.49787e-05
5.30163e-07
4.90533e-07
8.14281e-07
4.91032e-07
5.30197e-07
4.90537e-07
8.14115e-07
1.34403e-06
1.34427e-06
4.91688e-07
1.34386e-06
1.34409e-06
9.16932e-07
4.77743e-06
9.17071e-07
4.77711e-06
1.49784e-05
1.49768e-05
9.16842e-07
4.77808e-06
9.16962e-07
4.77776e-06
4.90467e-07
4.90467e-07
4.90467e-07
4.90463e-07
4.90463e-07
4.90463e-07
4.90463e-07
5.30163e-07
8.14326e-07
4.90533e-07
4.91031e-07
5.30198e-07
8.14143e-07
4.90537e-07
1.49804e-05
1.49787e-05
5.30163e-07
4.90533e-07
8.14281e-07
4.91032e-07
5.30197e-07
4.90537e-07
8.14115e-07
1.34403e-06
1.34426e-06
4.91688e-07
1.34386e-06
1.34409e-06
9.16932e-07
4.77743e-06
9.17071e-07
4.77711e-06
1.49783e-05
1.49767e-05
9.16842e-07
4.77808e-06
9.16962e-07
4.77777e-06
4.90467e-07
4.90466e-07
4.90467e-07
4.90463e-07
4.90463e-07
4.90463e-07
4.90463e-07
5.30164e-07
8.14326e-07
4.90533e-07
4.91031e-07
5.30197e-07
8.14143e-07
4.90537e-07
1.49804e-05
1.49787e-05
5.30163e-07
4.90533e-07
8.14281e-07
4.91032e-07
5.30197e-07
4.90537e-07
8.14115e-07
1.34403e-06
1.34426e-06
4.91688e-07
1.34386e-06
1.34409e-06
9.16932e-07
4.77743e-06
9.17071e-07
4.77711e-06
1.49783e-05
1.49767e-05
9.16842e-07
4.77808e-06
9.16962e-07
4.77777e-06
4.90467e-07
4.90466e-07
4.90467e-07
4.90463e-07
4.90463e-07
4.90463e-07
4.90463e-07
5.30164e-07
8.14326e-07
4.90533e-07
4.91031e-07
5.30197e-07
8.14143e-07
4.90537e-07
1.49804e-05
1.49787e-05
5.30163e-07
4.90533e-07
8.1428e-07
4.91032e-07
5.30198e-07
4.90537e-07
8.14115e-07
1.34403e-06
1.34426e-06
4.91688e-07
1.34386e-06
1.34409e-06
9.16932e-07
4.77743e-06
9.17072e-07
4.77711e-06
1.49783e-05
1.49767e-05
9.16842e-07
4.77808e-06
9.16962e-07
4.77777e-06
4.90466e-07
4.90466e-07
4.90467e-07
4.90463e-07
4.90463e-07
4.90463e-07
4.90463e-07
5.30164e-07
8.14326e-07
4.90533e-07
4.91031e-07
5.30197e-07
8.14143e-07
4.90537e-07
1.49804e-05
1.49787e-05
5.30163e-07
4.90533e-07
8.14281e-07
4.91032e-07
5.30198e-07
4.90537e-07
8.14115e-07
1.34403e-06
1.34426e-06
4.91688e-07
1.34386e-06
1.34409e-06
9.16932e-07
4.77743e-06
9.17072e-07
4.77711e-06
1.49783e-05
1.49767e-05
9.16842e-07
4.77808e-06
9.16962e-07
4.77777e-06
4.90467e-07
4.90467e-07
4.90467e-07
4.90463e-07
4.90463e-07
4.90463e-07
4.90463e-07
5.30163e-07
8.14326e-07
4.90533e-07
4.91031e-07
5.30196e-07
8.14143e-07
4.90537e-07
1.49804e-05
1.49787e-05
5.30163e-07
4.90533e-07
8.14281e-07
4.91032e-07
5.30198e-07
4.90537e-07
8.14115e-07
1.34403e-06
1.34426e-06
4.91688e-07
1.34386e-06
1.34408e-06
9.16932e-07
4.77743e-06
9.17072e-07
4.77711e-06
1.49783e-05
1.49767e-05
9.16842e-07
4.77808e-06
9.16962e-07
4.77777e-06
4.90467e-07
4.90467e-07
4.90467e-07
4.90463e-07
4.90463e-07
4.90463e-07
4.90463e-07
5.30164e-07
8.14326e-07
4.90533e-07
4.91031e-07
5.30197e-07
8.14143e-07
4.90537e-07
1.49804e-05
1.49787e-05
5.30169e-07
4.90533e-07
8.14281e-07
4.91032e-07
5.302e-07
4.90537e-07
8.14115e-07
1.34403e-06
1.34426e-06
4.91688e-07
1.34386e-06
1.34409e-06
9.16932e-07
4.77743e-06
9.17072e-07
4.77711e-06
1.49783e-05
1.49767e-05
9.16842e-07
4.77808e-06
9.16962e-07
4.77777e-06
4.90467e-07
4.90466e-07
4.90467e-07
4.90463e-07
4.90463e-07
4.90463e-07
4.90463e-07
5.30162e-07
8.14326e-07
4.90533e-07
4.91031e-07
5.30198e-07
8.14143e-07
4.90537e-07
1.49804e-05
1.49787e-05
5.30168e-07
4.90533e-07
8.14281e-07
4.91032e-07
5.30206e-07
4.90537e-07
8.14115e-07
1.34403e-06
1.34427e-06
4.91688e-07
1.34386e-06
1.34409e-06
9.16932e-07
4.77743e-06
9.17071e-07
4.77711e-06
1.49783e-05
1.49767e-05
9.16842e-07
4.77808e-06
9.16962e-07
4.77777e-06
4.90467e-07
4.90467e-07
4.90467e-07
4.90463e-07
4.90463e-07
4.90463e-07
4.90463e-07
5.30163e-07
8.14326e-07
4.90533e-07
4.91031e-07
5.30198e-07
8.14143e-07
4.90537e-07
1.49804e-05
1.49787e-05
5.30168e-07
4.90533e-07
8.14281e-07
4.91032e-07
5.30204e-07
4.90537e-07
8.14115e-07
1.34403e-06
1.34426e-06
4.91688e-07
1.34386e-06
1.34409e-06
9.16932e-07
4.77743e-06
9.17072e-07
4.77711e-06
1.49783e-05
1.49767e-05
9.16842e-07
4.77808e-06
9.16962e-07
4.77777e-06
4.90467e-07
4.90467e-07
4.90467e-07
4.90463e-07
4.90463e-07
4.90463e-07
4.90463e-07
5.30164e-07
8.14326e-07
4.90533e-07
4.91031e-07
5.30197e-07
8.14143e-07
4.90537e-07
1.49804e-05
1.49787e-05
5.30168e-07
4.90533e-07
8.14281e-07
4.91032e-07
5.30204e-07
4.90537e-07
8.14115e-07
1.34403e-06
1.34426e-06
4.91688e-07
1.34386e-06
1.34409e-06
9.16932e-07
4.77743e-06
9.17071e-07
4.77711e-06
1.49783e-05
1.49767e-05
9.16842e-07
4.77808e-06
9.16962e-07
4.77777e-06
4.90467e-07
4.90466e-07
4.90467e-07
4.90463e-07
4.90463e-07
4.90463e-07
4.90463e-07
5.30164e-07
8.14326e-07
4.90533e-07
4.91031e-07
5.30197e-07
8.14143e-07
4.90537e-07
1.49804e-05
1.49787e-05
5.30167e-07
4.90533e-07
8.14281e-07
4.91032e-07
5.30204e-07
4.90537e-07
8.14115e-07
1.34403e-06
1.34426e-06
4.91688e-07
1.34386e-06
1.34408e-06
9.16933e-07
4.77743e-06
9.17072e-07
4.77711e-06
1.49783e-05
1.49767e-05
9.16847e-07
4.77808e-06
9.16963e-07
4.77777e-06
4.90467e-07
4.90465e-07
4.90465e-07
5.30163e-07
8.14326e-07
4.90533e-07
4.91029e-07
5.30196e-07
8.14143e-07
4.90538e-07
1.49804e-05
1.49785e-05
5.30168e-07
4.90533e-07
8.14281e-07
4.91032e-07
5.30204e-07
4.90538e-07
8.14132e-07
1.34404e-06
1.34427e-06
4.91693e-07
1.34383e-06
1.34406e-06
1.4922e-05
1.49238e-05
4.91984e-07
1.33943e-06
1.33967e-06
1.49507e-05
1.49219e-05
1.49536e-05
1.49238e-05
4.91998e-07
1.34117e-06
1.34146e-06
1.33946e-06
1.33971e-06
9.14813e-07
4.76824e-06
5.3007e-07
4.91332e-07
8.12578e-07
4.90846e-07
5.30068e-07
4.91331e-07
8.12625e-07
4.90845e-07
9.14947e-07
4.7728e-06
4.76836e-06
9.15493e-07
9.1491e-07
4.77312e-06
4.76831e-06
9.15479e-07
5.30098e-07
4.91319e-07
8.13062e-07
4.90785e-07
8.12718e-07
4.90832e-07
5.30096e-07
5.30097e-07
4.91319e-07
8.13122e-07
4.90784e-07
8.12769e-07
4.90832e-07
5.30096e-07
4.91984e-07
1.33967e-06
1.33954e-06
1.49215e-05
1.4952e-05
1.49242e-05
4.91997e-07
1.3414e-06
1.34124e-06
1.33975e-06
1.33974e-06
1.49513e-05
1.49214e-05
5.30063e-07
4.91332e-07
8.12674e-07
4.90845e-07
9.1477e-07
4.76893e-06
5.30065e-07
4.91332e-07
4.90845e-07
8.12732e-07
9.14844e-07
4.77347e-06
4.76904e-06
9.15441e-07
5.30092e-07
4.91319e-07
8.13174e-07
4.90784e-07
8.12815e-07
4.90832e-07
5.30093e-07
9.14829e-07
4.77365e-06
4.76902e-06
9.15446e-07
5.30094e-07
4.91319e-07
4.90784e-07
8.1322e-07
4.90832e-07
8.12894e-07
5.30096e-07
9.14818e-07
4.76827e-06
5.30066e-07
4.91331e-07
4.90845e-07
8.12589e-07
9.14818e-07
4.76861e-06
5.30092e-07
4.91318e-07
8.13126e-07
4.90784e-07
8.12787e-07
4.90832e-07
5.3009e-07
9.1491e-07
4.77317e-06
4.76837e-06
9.15473e-07
5.30093e-07
4.91318e-07
4.90783e-07
8.13092e-07
4.90832e-07
8.12735e-07
5.30092e-07
9.14914e-07
4.77349e-06
4.76868e-06
9.15483e-07
4.91984e-07
1.33992e-06
1.33947e-06
1.49231e-05
1.49533e-05
1.49262e-05
4.91997e-07
1.34157e-06
1.3412e-06
1.34004e-06
1.33949e-06
1.49518e-05
1.49231e-05
5.30064e-07
4.91331e-07
4.90845e-07
8.12654e-07
9.14771e-07
4.76865e-06
9.14764e-07
4.76879e-06
5.30094e-07
4.91318e-07
4.90784e-07
8.13106e-07
4.90832e-07
8.12749e-07
5.30091e-07
5.30093e-07
4.91318e-07
4.90783e-07
8.13156e-07
4.90832e-07
8.12801e-07
5.30088e-07
9.14829e-07
4.77353e-06
4.76872e-06
9.15439e-07
9.14825e-07
4.77366e-06
4.76886e-06
9.1542e-07
1.49233e-05
1.49242e-05
4.91995e-07
1.34128e-06
1.34152e-06
1.33956e-06
1.33979e-06
1.49531e-05
1.49233e-05
1.4954e-05
1.49242e-05
1.49656e-05
1.49766e-05
1.4968e-05
1.49784e-05
1.34276e-06
1.34304e-06
4.91694e-07
1.34391e-06
1.34417e-06
1.49767e-05
1.49754e-05
1.49785e-05
1.49772e-05
4.91704e-07
1.3439e-06
1.34415e-06
1.34392e-06
1.34418e-06
9.16932e-07
4.77566e-06
9.16369e-07
4.77741e-06
5.30166e-07
8.13722e-07
4.90668e-07
4.9108e-07
5.30161e-07
8.14107e-07
4.90586e-07
5.30167e-07
8.13783e-07
4.90667e-07
4.91079e-07
5.30162e-07
8.14165e-07
4.90585e-07
9.16988e-07
4.77734e-06
4.77687e-06
9.16929e-07
9.17004e-07
4.77739e-06
4.77717e-06
9.16934e-07
5.30195e-07
4.91038e-07
8.14116e-07
4.90534e-07
8.14206e-07
4.90544e-07
5.3016e-07
5.30198e-07
4.91038e-07
8.14174e-07
4.90533e-07
8.14267e-07
4.90543e-07
5.30163e-07
1.34306e-06
1.34305e-06
4.91693e-07
1.34415e-06
1.34403e-06
1.49661e-05
1.49763e-05
1.49785e-05
1.4976e-05
4.91703e-07
1.34416e-06
1.34403e-06
1.3441e-06
1.34419e-06
1.49761e-05
1.4975e-05
5.30166e-07
8.13831e-07
4.90667e-07
4.91079e-07
5.30159e-07
8.14223e-07
4.90586e-07
9.16891e-07
4.77629e-06
9.16298e-07
4.77813e-06
5.30169e-07
4.90667e-07
8.13906e-07
4.9108e-07
5.30163e-07
4.90585e-07
8.14279e-07
9.16883e-07
4.77804e-06
4.77763e-06
9.16865e-07
5.30194e-07
4.91038e-07
8.14229e-07
4.90533e-07
8.1432e-07
4.90543e-07
5.30157e-07
9.16911e-07
4.77808e-06
4.77788e-06
9.16886e-07
5.30197e-07
4.91039e-07
4.90533e-07
8.14293e-07
4.90543e-07
8.14405e-07
5.30161e-07
9.16936e-07
4.77573e-06
9.16375e-07
4.77747e-06
5.30166e-07
4.90667e-07
8.13751e-07
4.91079e-07
5.30156e-07
4.90585e-07
8.14131e-07
9.1694e-07
4.77602e-06
9.16376e-07
4.77778e-06
5.30195e-07
4.91039e-07
8.14155e-07
4.90534e-07
8.14259e-07
4.90545e-07
5.30161e-07
9.17007e-07
4.77742e-06
4.77722e-06
9.16924e-07
5.30196e-07
4.91038e-07
4.90533e-07
8.14137e-07
4.90543e-07
8.14233e-07
5.30162e-07
9.17012e-07
4.77775e-06
4.77755e-06
9.16936e-07
1.3434e-06
1.34279e-06
4.91694e-07
1.34439e-06
1.34393e-06
1.49667e-05
1.49777e-05
1.498e-05
1.49775e-05
4.91703e-07
1.34438e-06
1.34393e-06
1.34444e-06
1.34393e-06
1.49778e-05
1.49765e-05
5.30166e-07
4.90667e-07
8.13817e-07
4.91079e-07
5.30157e-07
4.90585e-07
8.14194e-07
9.16887e-07
4.77607e-06
9.16294e-07
4.77784e-06
9.16888e-07
4.7762e-06
9.16279e-07
4.77796e-06
5.30199e-07
4.9104e-07
4.90534e-07
8.14124e-07
4.90545e-07
8.1421e-07
5.30161e-07
5.30199e-07
4.91038e-07
4.90533e-07
8.14202e-07
4.90543e-07
8.14299e-07
5.3016e-07
9.16909e-07
4.7778e-06
4.77761e-06
9.16886e-07
9.16912e-07
4.77792e-06
4.77773e-06
9.16882e-07
1.49675e-05
1.49779e-05
1.49684e-05
1.49788e-05
4.91706e-07
1.34392e-06
1.34415e-06
1.34392e-06
1.34415e-06
1.4978e-05
1.49766e-05
1.49788e-05
1.49775e-05
1.49754e-05
1.4976e-05
1.49772e-05
1.49778e-05
1.34389e-06
1.34415e-06
4.91684e-07
1.34387e-06
1.34412e-06
1.49767e-05
1.49752e-05
1.49785e-05
1.4977e-05
4.91698e-07
1.3439e-06
1.34416e-06
1.34387e-06
1.34412e-06
9.16936e-07
4.7771e-06
9.16991e-07
4.77729e-06
5.30167e-07
8.14215e-07
4.90537e-07
4.91032e-07
5.3019e-07
8.14113e-07
4.90537e-07
5.30167e-07
8.14266e-07
4.90537e-07
4.91031e-07
5.30194e-07
8.14169e-07
4.90536e-07
9.16983e-07
4.77734e-06
4.77684e-06
9.16925e-07
9.16992e-07
4.77739e-06
4.77719e-06
9.16938e-07
5.30195e-07
4.9103e-07
8.14115e-07
4.90533e-07
8.14203e-07
4.90535e-07
5.3016e-07
5.30196e-07
4.9103e-07
8.14173e-07
4.90533e-07
8.14264e-07
4.90534e-07
5.30166e-07
1.34412e-06
1.34419e-06
4.91683e-07
1.34413e-06
1.34397e-06
1.49746e-05
1.49757e-05
1.49784e-05
1.49756e-05
4.91697e-07
1.34415e-06
1.34402e-06
1.34407e-06
1.34417e-06
1.49761e-05
1.4975e-05
5.30158e-07
8.14322e-07
4.90536e-07
4.91031e-07
5.30185e-07
8.14224e-07
4.90536e-07
9.1689e-07
4.7778e-06
9.16902e-07
4.77801e-06
5.30164e-07
4.90537e-07
8.14404e-07
4.91032e-07
5.30191e-07
4.90536e-07
8.14287e-07
9.16863e-07
4.77801e-06
4.77752e-06
9.16854e-07
5.30187e-07
4.9103e-07
8.14227e-07
4.90533e-07
8.1431e-07
4.90534e-07
5.30156e-07
9.16906e-07
4.7781e-06
4.77785e-06
9.16883e-07
5.30193e-07
4.9103e-07
4.90533e-07
8.14291e-07
4.90534e-07
8.14399e-07
5.30163e-07
9.16947e-07
4.77712e-06
9.1698e-07
4.77736e-06
5.30164e-07
4.90536e-07
8.14226e-07
4.91032e-07
5.3019e-07
4.90536e-07
8.1413e-07
9.16946e-07
4.77746e-06
9.16993e-07
4.77767e-06
5.30193e-07
4.91032e-07
8.14152e-07
4.90534e-07
8.14256e-07
4.90538e-07
5.30166e-07
9.17002e-07
4.77744e-06
4.77724e-06
9.16944e-07
5.30192e-07
4.9103e-07
4.90532e-07
8.14136e-07
4.90534e-07
8.14227e-07
5.30166e-07
9.17002e-07
4.77775e-06
4.77756e-06
9.16947e-07
1.34455e-06
1.34392e-06
4.91683e-07
1.34436e-06
1.34389e-06
1.49766e-05
1.49772e-05
1.498e-05
1.49771e-05
4.91697e-07
1.34438e-06
1.34393e-06
1.34444e-06
1.34389e-06
1.49778e-05
1.49763e-05
5.30161e-07
4.90536e-07
8.14293e-07
4.91031e-07
5.30189e-07
4.90536e-07
8.14194e-07
9.16896e-07
4.77749e-06
9.16905e-07
4.77771e-06
9.16888e-07
4.77764e-06
9.16902e-07
4.77784e-06
5.30193e-07
4.91033e-07
4.90534e-07
8.14121e-07
4.90538e-07
8.14209e-07
5.30164e-07
5.30192e-07
4.9103e-07
4.90533e-07
8.142e-07
4.90534e-07
8.14292e-07
5.30162e-07
9.16913e-07
4.77781e-06
4.77762e-06
9.16888e-07
9.16907e-07
4.77792e-06
4.77774e-06
9.16881e-07
1.49767e-05
1.49773e-05
1.49776e-05
1.49782e-05
4.91702e-07
1.34392e-06
1.34416e-06
1.34386e-06
1.34409e-06
1.4978e-05
1.49765e-05
1.49788e-05
1.49774e-05
1.49754e-05
1.4976e-05
1.49772e-05
1.49778e-05
1.34389e-06
1.34415e-06
4.91684e-07
1.34387e-06
1.34413e-06
1.49767e-05
1.49752e-05
1.49785e-05
1.4977e-05
4.91698e-07
1.3439e-06
1.34415e-06
1.34387e-06
1.34413e-06
9.16938e-07
4.77708e-06
9.16993e-07
4.77728e-06
5.30167e-07
8.14215e-07
4.90537e-07
4.91032e-07
5.3019e-07
8.14112e-07
4.90537e-07
5.30166e-07
8.14265e-07
4.90536e-07
4.91031e-07
5.30196e-07
8.14169e-07
4.90536e-07
9.16983e-07
4.77734e-06
4.77684e-06
9.16925e-07
9.16994e-07
4.77739e-06
4.77719e-06
9.16937e-07
5.30195e-07
4.9103e-07
8.14115e-07
4.90533e-07
8.14203e-07
4.90535e-07
5.3016e-07
5.30196e-07
4.9103e-07
8.14173e-07
4.90532e-07
8.14264e-07
4.90534e-07
5.30166e-07
1.34411e-06
1.34419e-06
4.91683e-07
1.34413e-06
1.34397e-06
1.49744e-05
1.49757e-05
1.49784e-05
1.49755e-05
4.91697e-07
1.34415e-06
1.34403e-06
1.34407e-06
1.34417e-06
1.49761e-05
1.4975e-05
5.30159e-07
8.14322e-07
4.90536e-07
4.91031e-07
5.30185e-07
8.14226e-07
4.90536e-07
9.16889e-07
4.77779e-06
9.169e-07
4.778e-06
5.30164e-07
4.90536e-07
8.14403e-07
4.91032e-07
5.30192e-07
4.90536e-07
8.14286e-07
9.16863e-07
4.77801e-06
4.77752e-06
9.16854e-07
5.30188e-07
4.9103e-07
8.14226e-07
4.90533e-07
8.14312e-07
4.90534e-07
5.30157e-07
9.16905e-07
4.7781e-06
4.77785e-06
9.16883e-07
5.30193e-07
4.9103e-07
4.90533e-07
8.14291e-07
4.90534e-07
8.14399e-07
5.30163e-07
9.16946e-07
4.77713e-06
9.16999e-07
4.77736e-06
5.30162e-07
4.90536e-07
8.14226e-07
4.91032e-07
5.30194e-07
4.90536e-07
8.1413e-07
9.16944e-07
4.77743e-06
9.17003e-07
4.77766e-06
5.30191e-07
4.91031e-07
8.14152e-07
4.90533e-07
8.14256e-07
4.90537e-07
5.30166e-07
9.17e-07
4.77744e-06
4.77724e-06
9.16942e-07
5.30191e-07
4.9103e-07
4.90533e-07
8.14136e-07
4.90534e-07
8.14226e-07
5.30166e-07
9.17001e-07
4.77775e-06
4.77756e-06
9.16947e-07
1.34455e-06
1.34393e-06
4.91683e-07
1.34436e-06
1.34389e-06
1.49766e-05
1.49772e-05
1.498e-05
1.4977e-05
4.91697e-07
1.34438e-06
1.34392e-06
1.34444e-06
1.34389e-06
1.49778e-05
1.49763e-05
5.30161e-07
4.90536e-07
8.14292e-07
4.91031e-07
5.30192e-07
4.90536e-07
8.14194e-07
9.16898e-07
4.7775e-06
9.16905e-07
4.77771e-06
9.16888e-07
4.77761e-06
9.169e-07
4.77784e-06
5.30194e-07
4.91031e-07
4.90533e-07
8.14121e-07
4.90537e-07
8.14209e-07
5.30164e-07
5.30192e-07
4.91029e-07
4.90533e-07
8.142e-07
4.90534e-07
8.14292e-07
5.30162e-07
9.16916e-07
4.77781e-06
4.77762e-06
9.1689e-07
9.16907e-07
4.77792e-06
4.77773e-06
9.1688e-07
1.49767e-05
1.49773e-05
1.49776e-05
1.49782e-05
4.91702e-07
1.34392e-06
1.34416e-06
1.34386e-06
1.34409e-06
1.4978e-05
1.49765e-05
1.49789e-05
1.49774e-05
1.49754e-05
1.4976e-05
1.49772e-05
1.49778e-05
1.34389e-06
1.34415e-06
4.91684e-07
1.34387e-06
1.34412e-06
1.49767e-05
1.49752e-05
1.49785e-05
1.4977e-05
4.91698e-07
1.3439e-06
1.34416e-06
1.34388e-06
1.34412e-06
9.16938e-07
4.77708e-06
9.16993e-07
4.77728e-06
5.30167e-07
8.14215e-07
4.90537e-07
4.91032e-07
5.3019e-07
8.14113e-07
4.90537e-07
5.30166e-07
8.14265e-07
4.90536e-07
4.91032e-07
5.30195e-07
8.14169e-07
4.90536e-07
9.16983e-07
4.77734e-06
4.77684e-06
9.16925e-07
9.16994e-07
4.77739e-06
4.77719e-06
9.16938e-07
5.30195e-07
4.9103e-07
8.14114e-07
4.90533e-07
8.14203e-07
4.90535e-07
5.3016e-07
5.30196e-07
4.9103e-07
8.14173e-07
4.90532e-07
8.14264e-07
4.90534e-07
5.30166e-07
1.34411e-06
1.34419e-06
4.91683e-07
1.34413e-06
1.34397e-06
1.49744e-05
1.49757e-05
1.49784e-05
1.49755e-05
4.91697e-07
1.34415e-06
1.34402e-06
1.34407e-06
1.34417e-06
1.49761e-05
1.4975e-05
5.30159e-07
8.14321e-07
4.90536e-07
4.91032e-07
5.30185e-07
8.14224e-07
4.90536e-07
9.1689e-07
4.77779e-06
9.16899e-07
4.778e-06
5.30164e-07
4.90536e-07
8.14403e-07
4.91032e-07
5.30192e-07
4.90536e-07
8.14286e-07
9.16863e-07
4.77801e-06
4.77751e-06
9.16854e-07
5.30188e-07
4.9103e-07
8.14227e-07
4.90533e-07
8.1431e-07
4.90534e-07
5.30156e-07
9.16906e-07
4.7781e-06
4.77785e-06
9.16883e-07
5.30193e-07
4.9103e-07
4.90533e-07
8.14291e-07
4.90534e-07
8.14399e-07
5.30163e-07
9.16946e-07
4.77713e-06
9.16997e-07
4.77736e-06
5.30162e-07
4.90536e-07
8.14226e-07
4.91032e-07
5.30194e-07
4.90536e-07
8.1413e-07
9.16943e-07
4.77743e-06
9.17003e-07
4.77766e-06
5.30191e-07
4.91031e-07
8.14152e-07
4.90533e-07
8.14256e-07
4.90537e-07
5.30165e-07
9.17001e-07
4.77744e-06
4.77723e-06
9.16942e-07
5.30191e-07
4.9103e-07
4.90533e-07
8.14136e-07
4.90534e-07
8.14226e-07
5.30166e-07
9.17e-07
4.77775e-06
4.77756e-06
9.16947e-07
1.34455e-06
1.34392e-06
4.91683e-07
1.34436e-06
1.34389e-06
1.49766e-05
1.49772e-05
1.498e-05
1.4977e-05
4.91697e-07
1.34438e-06
1.34392e-06
1.34444e-06
1.3439e-06
1.49778e-05
1.49763e-05
5.30161e-07
4.90537e-07
8.14292e-07
4.91031e-07
5.30193e-07
4.90536e-07
8.14195e-07
9.16899e-07
4.7775e-06
9.16908e-07
4.77771e-06
9.16888e-07
4.77761e-06
9.169e-07
4.77784e-06
5.30193e-07
4.91031e-07
4.90534e-07
8.14121e-07
4.90537e-07
8.14209e-07
5.30164e-07
5.30192e-07
4.9103e-07
4.90533e-07
8.14201e-07
4.90534e-07
8.14293e-07
5.30162e-07
9.16916e-07
4.77781e-06
4.77762e-06
9.1689e-07
9.16907e-07
4.77792e-06
4.77773e-06
9.1688e-07
1.49766e-05
1.49773e-05
1.49776e-05
1.49782e-05
4.91702e-07
1.34392e-06
1.34416e-06
1.34386e-06
1.34409e-06
1.4978e-05
1.49765e-05
1.49788e-05
1.49774e-05
1.49754e-05
1.4976e-05
1.49772e-05
1.49778e-05
1.34389e-06
1.34414e-06
4.91684e-07
1.34386e-06
1.34413e-06
1.49767e-05
1.49752e-05
1.49785e-05
1.4977e-05
4.91698e-07
1.34391e-06
1.34415e-06
1.34386e-06
1.34413e-06
9.16937e-07
4.77708e-06
9.16994e-07
4.77728e-06
5.30167e-07
8.14214e-07
4.90537e-07
4.91032e-07
5.3019e-07
8.14111e-07
4.90536e-07
5.30166e-07
8.14265e-07
4.90536e-07
4.91032e-07
5.30196e-07
8.14169e-07
4.90536e-07
9.16982e-07
4.77734e-06
4.77684e-06
9.16925e-07
9.16993e-07
4.77739e-06
4.77719e-06
9.16937e-07
5.30195e-07
4.9103e-07
8.14115e-07
4.90533e-07
8.14202e-07
4.90534e-07
5.3016e-07
5.30195e-07
4.9103e-07
8.14172e-07
4.90532e-07
8.14264e-07
4.90534e-07
5.30166e-07
1.34411e-06
1.34419e-06
4.91683e-07
1.34413e-06
1.34397e-06
1.49744e-05
1.49757e-05
1.49784e-05
1.49755e-05
4.91697e-07
1.34415e-06
1.34402e-06
1.34407e-06
1.34417e-06
1.49761e-05
1.4975e-05
5.30159e-07
8.14322e-07
4.90536e-07
4.91032e-07
5.30185e-07
8.14226e-07
4.90536e-07
9.16889e-07
4.77779e-06
9.16899e-07
4.778e-06
5.30164e-07
4.90537e-07
8.14403e-07
4.91032e-07
5.30192e-07
4.90537e-07
8.14286e-07
9.16863e-07
4.77796e-06
4.77752e-06
9.16854e-07
5.30188e-07
4.9103e-07
8.14224e-07
4.90533e-07
8.14312e-07
4.90535e-07
5.30157e-07
9.16905e-07
4.7781e-06
4.77785e-06
9.16883e-07
5.30193e-07
4.9103e-07
4.90533e-07
8.14291e-07
4.90535e-07
8.14399e-07
5.30164e-07
9.16946e-07
4.77713e-06
9.16997e-07
4.77736e-06
5.30162e-07
4.90537e-07
8.14226e-07
4.91032e-07
5.30194e-07
4.90537e-07
8.1413e-07
9.16944e-07
4.77743e-06
9.17002e-07
4.77766e-06
5.30191e-07
4.91031e-07
8.14152e-07
4.90533e-07
8.14256e-07
4.90537e-07
5.30167e-07
9.17001e-07
4.77744e-06
4.77724e-06
9.1695e-07
5.30191e-07
4.9103e-07
4.90533e-07
8.14136e-07
4.90535e-07
8.14226e-07
5.30166e-07
9.17001e-07
4.77775e-06
4.77756e-06
9.16948e-07
1.34455e-06
1.34392e-06
4.91683e-07
1.34436e-06
1.34389e-06
1.49766e-05
1.49772e-05
1.498e-05
1.4977e-05
4.91697e-07
1.34438e-06
1.34392e-06
1.34444e-06
1.3439e-06
1.49778e-05
1.49763e-05
5.30161e-07
4.90536e-07
8.14292e-07
4.91031e-07
5.30193e-07
4.90536e-07
8.14194e-07
9.16897e-07
4.7775e-06
9.16907e-07
4.77771e-06
9.16888e-07
4.77761e-06
9.169e-07
4.77784e-06
5.30193e-07
4.91031e-07
4.90534e-07
8.14121e-07
4.90537e-07
8.14209e-07
5.30163e-07
5.30192e-07
4.9103e-07
4.90533e-07
8.14201e-07
4.90534e-07
8.14292e-07
5.30162e-07
9.16914e-07
4.77781e-06
4.77762e-06
9.16888e-07
9.16907e-07
4.77792e-06
4.77773e-06
9.1688e-07
1.49766e-05
1.49773e-05
1.49775e-05
1.49782e-05
4.91702e-07
1.34392e-06
1.34416e-06
1.34386e-06
1.34409e-06
1.4978e-05
1.49765e-05
1.49789e-05
1.49774e-05
1.49755e-05
1.4976e-05
1.49772e-05
1.49778e-05
1.3439e-06
1.34415e-06
4.91684e-07
1.34388e-06
1.34412e-06
1.49767e-05
1.49752e-05
1.49785e-05
1.4977e-05
4.91698e-07
1.3439e-06
1.34416e-06
1.34388e-06
1.34412e-06
9.16938e-07
4.77708e-06
9.16993e-07
4.77728e-06
5.30167e-07
8.14215e-07
4.90536e-07
4.91032e-07
5.3019e-07
8.14113e-07
4.90536e-07
5.30166e-07
8.14265e-07
4.90536e-07
4.91032e-07
5.30196e-07
8.14168e-07
4.90536e-07
9.16982e-07
4.77734e-06
4.77684e-06
9.16925e-07
9.16993e-07
4.77738e-06
4.77719e-06
9.16937e-07
5.30195e-07
4.9103e-07
8.14114e-07
4.90533e-07
8.14203e-07
4.90534e-07
5.3016e-07
5.30196e-07
4.9103e-07
8.14172e-07
4.90532e-07
8.14263e-07
4.90534e-07
5.30166e-07
1.34411e-06
1.34419e-06
4.91683e-07
1.34412e-06
1.34397e-06
1.49744e-05
1.49757e-05
1.49783e-05
1.49756e-05
4.91697e-07
1.34421e-06
1.34403e-06
1.34406e-06
1.34417e-06
1.49761e-05
1.4975e-05
5.30159e-07
8.14347e-07
4.90537e-07
4.91032e-07
5.30185e-07
8.14236e-07
4.90537e-07
9.1689e-07
4.77779e-06
9.16899e-07
4.778e-06
5.30164e-07
4.90537e-07
8.14403e-07
4.91032e-07
5.30193e-07
4.90536e-07
8.14286e-07
9.16863e-07