/*--------------------------------*- C++ -*----------------------------------*\
| =========                 |                                                 |
| \\      /  F ield         | OpenFOAM: The Open Source CFD Toolbox           |
|  \\    /   O peration     | Version:  2206                                  |
|   \\  /    A nd           | Website:  www.openfoam.com                      |
|    \\/     M anipulation  |                                                 |
\*---------------------------------------------------------------------------*/
FoamFile
{
    version     2.0;
    format      ascii;
    arch        "LSB;label=32;scalar=64";
    class       volScalarField;
    location    "16";
    object      epsilon;
}
// * * * * * * * * * * * * * * * * * * * * * * * * * * * * * * * * * * * * * //

dimensions      [0 2 -3 0 0 0 0];

internalField   nonuniform List<scalar> 
28688
(
4.95607e-07
4.97316e-07
4.97316e-07
4.99547e-07
4.45368e-07
4.53594e-07
4.53596e-07
4.63646e-07
4.02823e-07
4.18117e-07
4.18121e-07
4.39314e-07
3.70788e-07
3.88498e-07
3.88504e-07
4.15342e-07
3.63859e-07
3.79666e-07
3.79671e-07
4.02728e-07
3.63408e-07
3.78982e-07
3.78988e-07
4.01799e-07
3.63402e-07
3.78971e-07
3.78976e-07
4.01793e-07
3.63402e-07
3.7897e-07
3.78976e-07
4.01787e-07
3.63402e-07
3.7897e-07
3.78976e-07
4.01789e-07
3.63402e-07
3.7897e-07
3.78976e-07
4.01789e-07
3.63402e-07
3.7897e-07
3.78976e-07
4.01789e-07
3.63402e-07
3.7897e-07
3.78976e-07
4.01789e-07
5.06425e-07
5.05568e-07
5.05567e-07
5.06425e-07
5.05567e-07
5.05567e-07
5.0959e-07
5.0959e-07
5.0959e-07
5.0959e-07
5.05569e-07
5.05568e-07
5.06425e-07
5.05569e-07
5.05567e-07
5.06425e-07
4.99546e-07
4.6724e-07
4.97317e-07
4.97322e-07
4.63478e-07
4.63486e-07
4.99547e-07
4.67237e-07
4.97321e-07
4.97322e-07
4.63483e-07
4.63489e-07
4.97318e-07
4.63474e-07
4.6348e-07
4.99546e-07
4.67243e-07
4.97321e-07
4.63476e-07
4.63484e-07
4.67243e-07
4.63646e-07
4.41437e-07
4.53599e-07
4.53608e-07
4.26976e-07
4.26984e-07
4.63644e-07
4.41431e-07
4.53604e-07
4.53611e-07
4.26978e-07
4.26989e-07
4.53601e-07
4.26969e-07
4.26978e-07
4.63648e-07
4.41442e-07
4.53604e-07
4.26973e-07
4.26979e-07
4.4144e-07
4.39311e-07
4.17363e-07
4.18127e-07
4.18135e-07
3.94183e-07
3.9419e-07
4.39309e-07
4.17355e-07
4.18127e-07
4.18141e-07
3.94179e-07
3.94196e-07
4.1813e-07
3.94171e-07
3.94186e-07
4.39318e-07
4.17369e-07
4.18129e-07
3.94176e-07
3.9418e-07
4.17367e-07
4.15337e-07
4.02765e-07
3.88513e-07
3.88519e-07
3.80464e-07
3.80468e-07
4.15334e-07
4.02759e-07
3.88508e-07
3.88525e-07
3.80457e-07
3.80474e-07
3.88516e-07
3.80451e-07
3.80467e-07
4.15344e-07
4.02771e-07
3.88508e-07
3.80457e-07
3.80457e-07
4.02769e-07
4.02724e-07
4.01626e-07
3.79678e-07
3.79682e-07
3.79026e-07
3.79029e-07
4.02719e-07
4.01619e-07
3.79671e-07
3.79688e-07
3.79019e-07
3.79036e-07
3.79681e-07
3.79015e-07
3.79029e-07
4.0273e-07
4.01631e-07
3.79671e-07
3.79021e-07
3.79018e-07
4.01629e-07
4.01798e-07
4.01598e-07
3.78996e-07
3.78998e-07
3.78982e-07
3.78985e-07
4.01792e-07
4.01592e-07
3.78988e-07
3.79005e-07
3.78974e-07
3.78992e-07
3.78998e-07
3.78971e-07
3.78984e-07
4.01804e-07
4.01604e-07
3.78987e-07
3.78976e-07
3.78974e-07
4.01602e-07
4.01791e-07
4.01598e-07
3.78985e-07
3.78988e-07
3.78982e-07
3.78985e-07
4.01786e-07
4.01593e-07
3.78978e-07
3.78996e-07
3.78974e-07
3.78992e-07
3.78988e-07
3.7897e-07
3.78984e-07
4.01798e-07
4.01605e-07
3.78977e-07
3.78976e-07
3.78974e-07
4.01601e-07
4.01786e-07
4.016e-07
3.78984e-07
3.78987e-07
3.78983e-07
3.78985e-07
4.01782e-07
4.01595e-07
3.78976e-07
3.78994e-07
3.78974e-07
3.78992e-07
3.78986e-07
3.7897e-07
3.78984e-07
4.01793e-07
4.01606e-07
3.78976e-07
3.78976e-07
3.78974e-07
4.01603e-07
4.01789e-07
4.01599e-07
3.78986e-07
3.78987e-07
3.78983e-07
3.78985e-07
4.01785e-07
4.01594e-07
3.78976e-07
3.78994e-07
3.78974e-07
3.78992e-07
3.78986e-07
3.7897e-07
3.78984e-07
4.01795e-07
4.01606e-07
3.78976e-07
3.78976e-07
3.78974e-07
4.01602e-07
4.01788e-07
4.01598e-07
3.78985e-07
3.78987e-07
3.78983e-07
3.78985e-07
4.01785e-07
4.01594e-07
3.78976e-07
3.78994e-07
3.78974e-07
3.78992e-07
3.78986e-07
3.7897e-07
3.78984e-07
4.01795e-07
4.01605e-07
3.78976e-07
3.78976e-07
3.78974e-07
4.01602e-07
4.01787e-07
4.01597e-07
3.78985e-07
3.78987e-07
3.78983e-07
3.78985e-07
4.01785e-07
4.01594e-07
3.78976e-07
3.78994e-07
3.78974e-07
3.78992e-07
3.78986e-07
3.7897e-07
3.78984e-07
4.01795e-07
4.01605e-07
3.78976e-07
3.78976e-07
3.78974e-07
4.01603e-07
4.01787e-07
4.01598e-07
3.78985e-07
3.78987e-07
3.78986e-07
4.01785e-07
3.78976e-07
3.78994e-07
3.78977e-07
3.78995e-07
3.78986e-07
3.78987e-07
4.01795e-07
4.01605e-07
3.78976e-07
3.7898e-07
3.78977e-07
4.01603e-07
5.35662e-07
5.356e-07
5.35655e-07
5.35655e-07
5.34574e-07
5.35512e-07
5.33635e-07
5.35656e-07
5.34574e-07
5.35512e-07
5.35656e-07
5.33634e-07
5.35265e-07
5.35987e-07
5.35987e-07
1.109e-06
3.88225e-06
9.31902e-07
4.60331e-06
1.26083e-05
1.65901e-05
1.10908e-06
3.88247e-06
9.31961e-07
4.60367e-06
4.95608e-07
4.95608e-07
4.95608e-07
4.5682e-07
4.5682e-07
4.5682e-07
4.5682e-07
5.43569e-07
1.22011e-06
4.95599e-07
4.85621e-07
5.24992e-07
1.20984e-06
4.82471e-07
1.26099e-05
1.6592e-05
5.43584e-07
4.95599e-07
1.22009e-06
4.85622e-07
5.24974e-07
4.82472e-07
1.20983e-06
2.52145e-06
2.52215e-06
4.84216e-07
2.372e-06
2.3724e-06
1.43636e-06
5.59284e-06
1.3271e-06
6.13752e-06
2.12896e-05
2.31097e-05
1.43672e-06
5.59352e-06
1.3272e-06
6.13816e-06
4.45369e-07
4.4537e-07
4.4537e-07
4.13887e-07
4.13885e-07
4.13886e-07
4.13886e-07
5.87677e-07
1.19424e-06
4.4625e-07
4.44572e-07
5.73452e-07
1.20523e-06
4.3613e-07
2.12927e-05
2.31126e-05
5.87702e-07
4.46251e-07
1.19426e-06
4.44575e-07
5.73457e-07
4.36131e-07
1.20538e-06
2.30986e-06
2.31036e-06
4.53601e-07
2.36156e-06
2.36202e-06
1.6926e-06
6.9204e-06
1.57877e-06
7.32504e-06
2.46694e-05
2.49192e-05
1.69278e-06
6.92125e-06
1.57862e-06
7.32598e-06
4.02823e-07
4.02825e-07
4.02825e-07
3.75901e-07
3.759e-07
3.75902e-07
3.75901e-07
6.19045e-07
1.24238e-06
4.05735e-07
4.09448e-07
6.05403e-07
1.26845e-06
3.95919e-07
2.46731e-05
2.49226e-05
6.19063e-07
4.05737e-07
1.24248e-06
4.09453e-07
6.05418e-07
3.95921e-07
1.26867e-06
2.4745e-06
2.47495e-06
4.29874e-07
2.54428e-06
2.54476e-06
1.58681e-06
7.78795e-06
1.65389e-06
7.97859e-06
2.47884e-05
2.47871e-05
1.58704e-06
7.78892e-06
1.65372e-06
7.97966e-06
3.70789e-07
3.70791e-07
3.70791e-07
3.64416e-07
3.64416e-07
3.64418e-07
3.64417e-07
5.9183e-07
1.25481e-06
3.75353e-07
3.84481e-07
6.07633e-07
1.25213e-06
3.72004e-07
2.47916e-05
2.479e-05
5.91842e-07
3.75355e-07
1.25478e-06
3.84487e-07
6.07633e-07
3.72006e-07
1.25223e-06
2.49287e-06
2.49332e-06
4.07172e-07
2.52565e-06
2.52613e-06
1.56984e-06
8.09083e-06
1.56999e-06
8.09709e-06
2.48419e-05
2.48465e-05
1.5697e-06
8.09226e-06
1.5698e-06
8.09839e-06
3.6386e-07
3.63861e-07
3.6386e-07
3.63426e-07
3.63426e-07
3.63427e-07
3.63426e-07
5.84851e-07
1.26728e-06
3.68274e-07
3.79279e-07
5.85417e-07
1.26855e-06
3.68003e-07
2.48437e-05
2.48476e-05
5.84842e-07
3.68275e-07
1.26722e-06
3.79285e-07
5.85411e-07
3.68005e-07
1.2685e-06
2.60461e-06
2.60514e-06
4.01824e-07
2.6127e-06
2.61325e-06
1.56995e-06
8.09772e-06
1.57039e-06
8.09723e-06
2.48479e-05
2.48473e-05
1.56981e-06
8.099e-06
1.5702e-06
8.09846e-06
3.63411e-07
3.63412e-07
3.63411e-07
3.63402e-07
3.63404e-07
3.63405e-07
3.63404e-07
5.84724e-07
1.26955e-06
3.67807e-07
3.78974e-07
5.8486e-07
1.269e-06
3.67804e-07
2.48492e-05
2.48484e-05
5.84715e-07
3.67807e-07
1.26948e-06
3.7898e-07
5.8485e-07
3.67805e-07
1.26896e-06
2.61499e-06
2.61555e-06
4.01585e-07
2.61465e-06
2.61521e-06
1.56993e-06
8.0975e-06
1.57035e-06
8.09713e-06
2.48479e-05
2.48474e-05
1.56978e-06
8.09873e-06
1.57016e-06
8.09832e-06
3.63407e-07
3.63408e-07
3.63407e-07
3.63402e-07
3.63404e-07
3.63405e-07
3.63404e-07
5.84726e-07
1.26953e-06
3.67801e-07
3.78973e-07
5.84842e-07
1.26898e-06
3.67804e-07
2.48491e-05
2.48484e-05
5.84717e-07
3.67802e-07
1.26946e-06
3.78979e-07
5.84832e-07
3.67804e-07
1.26894e-06
2.61508e-06
2.61563e-06
4.01608e-07
2.61467e-06
2.61523e-06
1.56993e-06
8.0975e-06
1.57035e-06
8.09713e-06
2.4848e-05
2.48475e-05
1.56978e-06
8.0987e-06
1.57016e-06
8.09831e-06
3.63406e-07
3.63408e-07
3.63407e-07
3.63403e-07
3.63404e-07
3.63405e-07
3.63404e-07
5.84725e-07
1.26953e-06
3.67801e-07
3.78973e-07
5.84842e-07
1.26898e-06
3.67804e-07
2.48491e-05
2.48484e-05
5.84716e-07
3.67802e-07
1.26946e-06
3.78978e-07
5.84833e-07
3.67804e-07
1.26894e-06
2.61508e-06
2.61563e-06
4.01604e-07
2.61467e-06
2.61523e-06
1.56993e-06
8.09748e-06
1.57035e-06
8.09712e-06
2.4848e-05
2.48475e-05
1.56978e-06
8.0987e-06
1.57016e-06
8.09831e-06
3.63406e-07
3.63408e-07
3.63407e-07
3.63403e-07
3.63404e-07
3.63405e-07
3.63404e-07
5.84725e-07
1.26953e-06
3.67801e-07
3.78972e-07
5.84842e-07
1.26898e-06
3.67803e-07
2.48491e-05
2.48484e-05
5.84716e-07
3.67802e-07
1.26946e-06
3.78978e-07
5.84834e-07
3.67804e-07
1.26894e-06
2.61508e-06
2.61563e-06
4.01603e-07
2.61467e-06
2.61523e-06
1.56993e-06
8.09736e-06
1.57035e-06
8.0969e-06
2.4848e-05
2.48475e-05
1.56978e-06
8.09859e-06
1.57016e-06
8.09816e-06
3.63406e-07
3.63408e-07
3.63407e-07
3.63403e-07
3.63404e-07
3.63405e-07
3.63404e-07
5.84725e-07
1.26953e-06
3.67801e-07
3.78972e-07
5.84843e-07
1.26898e-06
3.67803e-07
2.48491e-05
2.48484e-05
5.84715e-07
3.67802e-07
1.26946e-06
3.78978e-07
5.84834e-07
3.67804e-07
1.26894e-06
2.61508e-06
2.61563e-06
4.01603e-07
2.61467e-06
2.61523e-06
1.56993e-06
8.09724e-06
1.57035e-06
8.09691e-06
2.4848e-05
2.48475e-05
1.56978e-06
8.09852e-06
1.57016e-06
8.09811e-06
3.63406e-07
3.63408e-07
3.63407e-07
3.63402e-07
3.63404e-07
3.63405e-07
3.63404e-07
5.84725e-07
1.26953e-06
3.67801e-07
3.78972e-07
5.84843e-07
1.26898e-06
3.67803e-07
2.48491e-05
2.48484e-05
5.84715e-07
3.67802e-07
1.26946e-06
3.78978e-07
5.84834e-07
3.67804e-07
1.26894e-06
2.61508e-06
2.61563e-06
4.01603e-07
2.61468e-06
2.61523e-06
1.56993e-06
8.09729e-06
1.57035e-06
8.09694e-06
2.4848e-05
2.48475e-05
1.56978e-06
8.09849e-06
1.57015e-06
8.09809e-06
3.63406e-07
3.63408e-07
3.63407e-07
3.63407e-07
3.63411e-07
3.63409e-07
3.63408e-07
5.84725e-07
1.26953e-06
3.67801e-07
3.78971e-07
5.84843e-07
1.26898e-06
3.67803e-07
2.48491e-05
2.48484e-05
5.84715e-07
3.67802e-07
1.26946e-06
3.78978e-07
5.84834e-07
3.67804e-07
1.26894e-06
2.61508e-06
2.61563e-06
4.01603e-07
2.61467e-06
2.61523e-06
5.35265e-07
5.3599e-07
5.35988e-07
1.0916e-05
5.81346e-07
1.09173e-05
5.81338e-07
5.28194e-07
2.43138e-06
2.43231e-06
5.40833e-07
5.4083e-07
5.34574e-07
5.35513e-07
5.33635e-07
5.35656e-07
5.34574e-07
5.35513e-07
5.33634e-07
5.35656e-07
5.30398e-07
3.47223e-06
5.68207e-07
8.22306e-07
5.30397e-07
3.47226e-06
5.68206e-07
8.22267e-07
5.29522e-07
5.28389e-07
1.1668e-06
5.09552e-07
5.32664e-07
5.2833e-07
5.19226e-07
5.29522e-07
5.2839e-07
1.16695e-06
5.09552e-07
5.32664e-07
5.2833e-07
5.19228e-07
5.35265e-07
5.35989e-07
5.35988e-07
1.09162e-05
5.81325e-07
5.28195e-07
2.43185e-06
2.43201e-06
5.40834e-07
5.40829e-07
1.09169e-05
5.81319e-07
5.34574e-07
5.35512e-07
5.33635e-07
5.35656e-07
5.34574e-07
5.35513e-07
5.35656e-07
5.33635e-07
5.30397e-07
3.47257e-06
5.68204e-07
8.22432e-07
5.29522e-07
5.2839e-07
1.16707e-06
5.09552e-07
5.32663e-07
5.2833e-07
5.19234e-07
5.30397e-07
3.47267e-06
5.68202e-07
8.22336e-07
5.29522e-07
5.2839e-07
5.09552e-07
1.16697e-06
5.2833e-07
5.32663e-07
5.19228e-07
5.35662e-07
5.356e-07
5.35655e-07
5.35655e-07
5.35662e-07
5.356e-07
5.35655e-07
5.35655e-07
5.35662e-07
5.356e-07
5.35655e-07
5.35655e-07
5.28411e-07
5.28363e-07
5.09661e-07
5.09661e-07
5.28385e-07
5.28385e-07
5.09714e-07
5.28411e-07
5.28362e-07
5.0966e-07
5.0966e-07
5.28385e-07
5.28385e-07
5.09715e-07
5.28411e-07
5.28363e-07
5.0966e-07
5.0966e-07
5.28385e-07
5.28385e-07
5.09715e-07
5.28411e-07
5.28362e-07
5.0966e-07
5.0966e-07
5.28385e-07
5.28385e-07
5.09715e-07
5.34574e-07
5.35513e-07
5.35656e-07
5.33635e-07
5.29522e-07
5.2839e-07
1.16701e-06
5.09552e-07
5.32663e-07
5.2833e-07
5.19232e-07
5.30398e-07
3.47246e-06
5.68198e-07
8.22351e-07
5.29522e-07
5.28389e-07
5.09552e-07
1.16689e-06
5.2833e-07
5.32662e-07
5.19228e-07
5.30398e-07
3.47259e-06
5.68202e-07
8.223e-07
5.35265e-07
5.35987e-07
5.35986e-07
1.09174e-05
5.81335e-07
5.28194e-07
2.43213e-06
2.43197e-06
5.40829e-07
5.40827e-07
1.09173e-05
5.81314e-07
5.34574e-07
5.35512e-07
5.35656e-07
5.33635e-07
5.29522e-07
5.2839e-07
5.09552e-07
1.16695e-06
5.28331e-07
5.32662e-07
5.19231e-07
5.29522e-07
5.2839e-07
5.09552e-07
1.16707e-06
5.2833e-07
5.32663e-07
5.19234e-07
5.30397e-07
3.47262e-06
5.68196e-07
8.22411e-07
5.30397e-07
3.47263e-06
5.68207e-07
8.22501e-07
5.28195e-07
2.43177e-06
2.43244e-06
5.40828e-07
5.40829e-07
1.09172e-05
5.81318e-07
1.09174e-05
5.81332e-07
1.26081e-05
1.65888e-05
1.26097e-05
1.65917e-05
2.5214e-06
2.52214e-06
4.84215e-07
2.37169e-06
2.37241e-06
2.05197e-05
1.76934e-05
2.05234e-05
1.76961e-05
4.79285e-07
2.30702e-06
2.30768e-06
2.33594e-06
2.3367e-06
1.10884e-06
3.88216e-06
9.32018e-07
4.60325e-06
5.43557e-07
1.21998e-06
4.956e-07
4.85622e-07
5.25002e-07
1.20978e-06
4.82471e-07
5.43551e-07
1.22017e-06
4.956e-07
4.85629e-07
5.25011e-07
1.21001e-06
4.8247e-07
1.15702e-06
5.40636e-06
4.81079e-06
1.28603e-06
1.15713e-06
5.40634e-06
4.81077e-06
1.28603e-06
5.5034e-07
4.74299e-07
1.19335e-06
4.57405e-07
1.20351e-06
4.69663e-07
5.67296e-07
5.50343e-07
4.74307e-07
1.19353e-06
4.57405e-07
1.20368e-06
4.69663e-07
5.67292e-07
2.52188e-06
2.52162e-06
4.84213e-07
2.37228e-06
2.37181e-06
1.26088e-05
1.65898e-05
2.05213e-05
1.76947e-05
4.79285e-07
2.30751e-06
2.30723e-06
2.33647e-06
2.33628e-06
2.05207e-05
1.76944e-05
5.43583e-07
1.22025e-06
4.956e-07
4.85627e-07
5.25009e-07
1.21003e-06
4.82471e-07
1.10903e-06
3.88276e-06
9.31804e-07
4.60399e-06
5.43578e-07
4.956e-07
1.22021e-06
4.8563e-07
5.24997e-07
4.82471e-07
1.21004e-06
1.15708e-06
5.40682e-06
4.81112e-06
1.28614e-06
5.50346e-07
4.74305e-07
1.19354e-06
4.57405e-07
1.2037e-06
4.69663e-07
5.67313e-07
1.15707e-06
5.40726e-06
4.81161e-06
1.28614e-06
5.50347e-07
4.74309e-07
4.57406e-07
1.1936e-06
4.69664e-07
1.20375e-06
5.67318e-07
1.10899e-06
3.88223e-06
9.3188e-07
4.60348e-06
5.43567e-07
4.956e-07
1.22007e-06
4.85623e-07
5.2498e-07
4.82471e-07
1.20989e-06
1.10901e-06
3.88265e-06
9.31714e-07
4.60374e-06
5.50337e-07
4.74295e-07
1.19335e-06
4.57404e-07
1.20352e-06
4.69661e-07
5.67302e-07
1.15706e-06
5.40636e-06
4.81057e-06
1.28613e-06
5.50336e-07
4.743e-07
4.57405e-07
1.1934e-06
4.69663e-07
1.20351e-06
5.673e-07
1.15697e-06
5.40679e-06
4.81135e-06
1.2861e-06
2.52206e-06
2.52156e-06
4.84217e-07
2.37241e-06
2.37164e-06
1.26097e-05
1.65909e-05
2.05239e-05
1.76969e-05
4.79286e-07
2.30776e-06
2.30719e-06
2.33661e-06
2.33614e-06
2.05222e-05
1.76954e-05
5.43592e-07
4.956e-07
1.22025e-06
4.85628e-07
5.24986e-07
4.82471e-07
1.21002e-06
1.10923e-06
3.88261e-06
9.31672e-07
4.60383e-06
1.10929e-06
3.8825e-06
9.31786e-07
4.60373e-06
5.5034e-07
4.74297e-07
4.57405e-07
1.1934e-06
4.69662e-07
1.20357e-06
5.67316e-07
5.50339e-07
4.74304e-07
4.57405e-07
1.19352e-06
4.69663e-07
1.20367e-06
5.67322e-07
1.15685e-06
5.40705e-06
4.81132e-06
1.28617e-06
1.15687e-06
5.40702e-06
4.81107e-06
1.2862e-06
1.26092e-05
1.65907e-05
1.26098e-05
1.65915e-05
4.79286e-07
2.30715e-06
2.30765e-06
2.33584e-06
2.33665e-06
2.05215e-05
1.76949e-05
2.05232e-05
1.76962e-05
2.12881e-05
2.31078e-05
2.12916e-05
2.31121e-05
2.30972e-06
2.31044e-06
4.53597e-07
2.36124e-06
2.36188e-06
2.44588e-05
2.3548e-05
2.44625e-05
2.35515e-05
4.51043e-07
2.43432e-06
2.4353e-06
2.38322e-06
2.38379e-06
1.43635e-06
5.59288e-06
1.32707e-06
6.13768e-06
5.8767e-07
1.19423e-06
4.46252e-07
4.44578e-07
5.73458e-07
1.2053e-06
4.3613e-07
5.87668e-07
1.19438e-06
4.46252e-07
4.44586e-07
5.73452e-07
1.20549e-06
4.3613e-07
1.47898e-06
6.76946e-06
6.30625e-06
1.54777e-06
1.47895e-06
6.7696e-06
6.30625e-06
1.54775e-06
5.93992e-07
4.35803e-07
1.22858e-06
4.16061e-07
1.21296e-06
4.26251e-07
6.02156e-07
5.93982e-07
4.35811e-07
1.22869e-06
4.16062e-07
1.21311e-06
4.26251e-07
6.0215e-07
2.3102e-06
2.3099e-06
4.53594e-07
2.36175e-06
2.36095e-06
2.12892e-05
2.31085e-05
2.44601e-05
2.35495e-05
4.51041e-07
2.43511e-06
2.4342e-06
2.38363e-06
2.38362e-06
2.44593e-05
2.35492e-05
5.87696e-07
1.19443e-06
4.46252e-07
4.44581e-07
5.73468e-07
1.20549e-06
4.36131e-07
1.43672e-06
5.59394e-06
1.32719e-06
6.13879e-06
5.87698e-07
4.46253e-07
1.19446e-06
4.44589e-07
5.73473e-07
4.36131e-07
1.20551e-06
1.47875e-06
6.77011e-06
6.30706e-06
1.54807e-06
5.94005e-07
4.35806e-07
1.2287e-06
4.16062e-07
1.21312e-06
4.26251e-07
6.0217e-07
1.47876e-06
6.77082e-06
6.3075e-06
1.54808e-06
5.94008e-07
4.35816e-07
4.16063e-07
1.22877e-06
4.26253e-07
1.21326e-06
6.02173e-07
1.43652e-06
5.59287e-06
1.32705e-06
6.13763e-06
5.87682e-07
4.46252e-07
1.19427e-06
4.4458e-07
5.73456e-07
4.3613e-07
1.20542e-06
1.4364e-06
5.59346e-06
1.32715e-06
6.1382e-06
5.93986e-07
4.35796e-07
1.2285e-06
4.16061e-07
1.21299e-06
4.26249e-07
6.02155e-07
1.47885e-06
6.76958e-06
6.3063e-06
1.54782e-06
5.9399e-07
4.35806e-07
4.16062e-07
1.22861e-06
4.26251e-07
1.21304e-06
6.02158e-07
1.47888e-06
6.77029e-06
6.30693e-06
1.54783e-06
2.31046e-06
2.30972e-06
4.53602e-07
2.36167e-06
2.36137e-06
2.129e-05
2.31105e-05
2.44635e-05
2.35533e-05
4.51046e-07
2.43499e-06
2.43472e-06
2.38421e-06
2.38338e-06
2.44609e-05
2.35504e-05
5.87694e-07
4.46252e-07
1.19437e-06
4.44583e-07
5.73456e-07
4.36131e-07
1.20553e-06
1.43672e-06
5.59352e-06
1.32718e-06
6.13839e-06
1.43659e-06
5.59338e-06
1.32717e-06
6.13837e-06
5.93997e-07
4.35799e-07
4.16063e-07
1.2286e-06
4.2625e-07
1.21301e-06
6.02167e-07
5.93994e-07
4.35806e-07
4.16062e-07
1.22871e-06
4.26252e-07
1.21313e-06
6.02166e-07
1.47873e-06
6.77032e-06
6.30697e-06
1.54807e-06
1.47876e-06
6.77041e-06
6.30699e-06
1.54809e-06
2.129e-05
2.31107e-05
2.12916e-05
2.31122e-05
4.51045e-07
2.43488e-06
2.43535e-06
2.38344e-06
2.38389e-06
2.44612e-05
2.35505e-05
2.44626e-05
2.35521e-05
2.46686e-05
2.49184e-05
2.46714e-05
2.49213e-05
2.47465e-06
2.47482e-06
4.2987e-07
2.54407e-06
2.54469e-06
2.4803e-05
2.49075e-05
2.48059e-05
2.49101e-05
4.27823e-07
2.5009e-06
2.50155e-06
2.54472e-06
2.54506e-06
1.69256e-06
6.92035e-06
1.57873e-06
7.32529e-06
6.19043e-07
1.24246e-06
4.05737e-07
4.09459e-07
6.05404e-07
1.26853e-06
3.95919e-07
6.19037e-07
1.24256e-06
4.05738e-07
4.09466e-07
6.05397e-07
1.26871e-06
3.9592e-07
1.70676e-06
7.70797e-06
7.43694e-06
1.68055e-06
1.70673e-06
7.70831e-06
7.43687e-06
1.68054e-06
6.1968e-07
4.0132e-07
1.25972e-06
3.80405e-07
1.27017e-06
3.87311e-07
6.12685e-07
6.19677e-07
4.01327e-07
1.25988e-06
3.80407e-07
1.27026e-06
3.87312e-07
6.12685e-07
2.47475e-06
2.47463e-06
4.29861e-07
2.54459e-06
2.54396e-06
2.46689e-05
2.49186e-05
2.48041e-05
2.4908e-05
4.27821e-07
2.50143e-06
2.50078e-06
2.545e-06
2.54466e-06
2.48033e-05
2.49076e-05
6.19068e-07
1.24259e-06
4.05738e-07
4.09457e-07
6.05424e-07
1.26868e-06
3.95921e-07
1.69278e-06
6.92166e-06
1.57862e-06
7.32659e-06
6.19069e-07
4.05741e-07
1.24266e-06
4.09472e-07
6.05421e-07
3.95922e-07
1.26873e-06
1.70677e-06
7.70903e-06
7.43785e-06
1.68086e-06
6.19704e-07
4.01316e-07
1.25996e-06
3.80407e-07
1.27033e-06
3.87313e-07
6.12721e-07
1.70677e-06
7.70957e-06
7.43829e-06
1.68082e-06
6.19704e-07
4.01333e-07
3.80409e-07
1.25995e-06
3.87315e-07
1.27039e-06
6.12719e-07
1.69263e-06
6.92041e-06
1.5788e-06
7.32533e-06
6.19049e-07
4.05738e-07
1.24249e-06
4.09462e-07
6.05405e-07
3.9592e-07
1.26864e-06
1.69264e-06
6.92102e-06
1.57881e-06
7.32602e-06
6.19682e-07
4.01306e-07
1.25968e-06
3.80405e-07
1.2701e-06
3.87309e-07
6.12697e-07
1.70681e-06
7.7083e-06
7.437e-06
1.68063e-06
6.19684e-07
4.01323e-07
3.80406e-07
1.25981e-06
3.87312e-07
1.27019e-06
6.12697e-07
1.7068e-06
7.70895e-06
7.43759e-06
1.6806e-06
2.4753e-06
2.47449e-06
4.29875e-07
2.54475e-06
2.54426e-06
2.46702e-05
2.49199e-05
2.4807e-05
2.49115e-05
4.27829e-07
2.50153e-06
2.5011e-06
2.5454e-06
2.54466e-06
2.48047e-05
2.49087e-05
6.19062e-07
4.05739e-07
1.24259e-06
4.09459e-07
6.05416e-07
3.95921e-07
1.26873e-06
1.69277e-06
6.92107e-06
1.5786e-06
7.32611e-06
1.69278e-06
6.92117e-06
1.57862e-06
7.3262e-06
6.19697e-07
4.01311e-07
3.80407e-07
1.25983e-06
3.87311e-07
1.27021e-06
6.1271e-07
6.19699e-07
4.01318e-07
3.80407e-07
1.2599e-06
3.87314e-07
1.27029e-06
6.12711e-07
1.70675e-06
7.70906e-06
7.43769e-06
1.68081e-06
1.70677e-06
7.70925e-06
7.43778e-06
1.68085e-06
2.46704e-05
2.49202e-05
2.46718e-05
2.49215e-05
4.27827e-07
2.50113e-06
2.50159e-06
2.54468e-06
2.54516e-06
2.4805e-05
2.4909e-05
2.48062e-05
2.49103e-05
2.47878e-05
2.47861e-05
2.47901e-05
2.47886e-05
2.4929e-06
2.49322e-06
4.07168e-07
2.52565e-06
2.52605e-06
2.48314e-05
2.47999e-05
2.48351e-05
2.48031e-05
4.06309e-07
2.59596e-06
2.59656e-06
2.5519e-06
2.55239e-06
1.5868e-06
7.78802e-06
1.65386e-06
7.97889e-06
5.91822e-07
1.25484e-06
3.75356e-07
3.84492e-07
6.07621e-07
1.25217e-06
3.72003e-07
5.91821e-07
1.25484e-06
3.75357e-07
3.84497e-07
6.07623e-07
1.25229e-06
3.72004e-07
1.5792e-06
8.082e-06
8.02088e-06
1.56969e-06
1.57919e-06
8.08247e-06
8.02104e-06
1.56969e-06
5.89731e-07
3.81937e-07
1.26423e-06
3.68851e-07
1.25654e-06
3.69973e-07
5.85487e-07
5.8973e-07
3.81942e-07
1.26432e-06
3.68852e-07
1.25667e-06
3.69974e-07
5.85484e-07
2.49315e-06
2.49282e-06
4.07161e-07
2.52598e-06
2.52543e-06
2.47878e-05
2.47861e-05
2.48334e-05
2.48016e-05
4.06305e-07
2.59642e-06
2.5958e-06
2.55232e-06
2.552e-06
2.48314e-05
2.48013e-05
5.91853e-07
1.25491e-06
3.75357e-07
3.84486e-07
6.07637e-07
1.25235e-06
3.72005e-07
1.58703e-06
7.78938e-06
1.65365e-06
7.98009e-06
5.91852e-07
3.7536e-07
1.25507e-06
3.84503e-07
6.07638e-07
3.72006e-07
1.25238e-06
1.57908e-06
8.08335e-06
8.02201e-06
1.56956e-06
5.89744e-07
3.81931e-07
1.26438e-06
3.68852e-07
1.25673e-06
3.69974e-07
5.85491e-07
1.57908e-06
8.0833e-06
8.02234e-06
1.56957e-06
5.89746e-07
3.81948e-07
3.68853e-07
1.26449e-06
3.69976e-07
1.25683e-06
5.85494e-07
1.58686e-06
7.78812e-06
1.65394e-06
7.9789e-06
5.91833e-07
3.75357e-07
1.25477e-06
3.84495e-07
6.0762e-07
3.72003e-07
1.25222e-06
1.58684e-06
7.78862e-06
1.65391e-06
7.9794e-06
5.89732e-07
3.81923e-07
1.26423e-06
3.6885e-07
1.25657e-06
3.69971e-07
5.85488e-07
1.57924e-06
8.08216e-06
8.02116e-06
1.56971e-06
5.89731e-07
3.8194e-07
3.68851e-07
1.26426e-06
3.69974e-07
1.25661e-06
5.85493e-07
1.57923e-06
8.08292e-06
8.02153e-06
1.56971e-06
2.49357e-06
2.49282e-06
4.07174e-07
2.52624e-06
2.52565e-06
2.4789e-05
2.47877e-05
2.4835e-05
2.48051e-05
4.06315e-07
2.5966e-06
2.59607e-06
2.5528e-06
2.55197e-06
2.48341e-05
2.48023e-05
5.9184e-07
3.75358e-07
1.25487e-06
3.84486e-07
6.07634e-07
3.72004e-07
1.25233e-06
1.58701e-06
7.78874e-06
1.65364e-06
7.97953e-06
1.58703e-06
7.78895e-06
1.65367e-06
7.9798e-06
5.89735e-07
3.8193e-07
3.68852e-07
1.26427e-06
3.69972e-07
1.25661e-06
5.85484e-07
5.89737e-07
3.81931e-07
3.68852e-07
1.26437e-06
3.69974e-07
1.25672e-06
5.85479e-07
1.57906e-06
8.08306e-06
8.02165e-06
1.56955e-06
1.57907e-06
8.08339e-06
8.02195e-06
1.56955e-06
2.47893e-05
2.47879e-05
2.47904e-05
2.4789e-05
4.06314e-07
2.59607e-06
2.59661e-06
2.55201e-06
2.55247e-06
2.48343e-05
2.48025e-05
2.48354e-05
2.48036e-05
2.48399e-05
2.48446e-05
2.48436e-05
2.48481e-05
2.60441e-06
2.60502e-06
4.0182e-07
2.61249e-06
2.61316e-06
2.48455e-05
2.48456e-05
2.48489e-05
2.48491e-05
4.01955e-07
2.61427e-06
2.61499e-06
2.61404e-06
2.61474e-06
1.56984e-06
8.09119e-06
1.56997e-06
8.09764e-06
5.8485e-07
1.2672e-06
3.68276e-07
3.7929e-07
5.85417e-07
1.26846e-06
3.68003e-07
5.84848e-07
1.26728e-06
3.68276e-07
3.79293e-07
5.85416e-07
1.26857e-06
3.68004e-07
1.5703e-06
8.09741e-06
8.09772e-06
1.56997e-06
1.57031e-06
8.09797e-06
8.09827e-06
1.56998e-06
5.84946e-07
3.79108e-07
1.26888e-06
3.67826e-07
1.26918e-06
3.67879e-07
5.84751e-07
5.84945e-07
3.79111e-07
1.26902e-06
3.67827e-07
1.2693e-06
3.6788e-07
5.84749e-07
2.60496e-06
2.60491e-06
4.01814e-07
2.61307e-06
2.61269e-06
2.48401e-05
2.48439e-05
2.48473e-05
2.48475e-05
4.01949e-07
2.61488e-06
2.61464e-06
2.61466e-06
2.61446e-06
2.48449e-05
2.48453e-05
5.84848e-07
1.26734e-06
3.68276e-07
3.79283e-07
5.85417e-07
1.26865e-06
3.68004e-07
1.56971e-06
8.09212e-06
1.56979e-06
8.09843e-06
5.84852e-07
3.68278e-07
1.26754e-06
3.793e-07
5.85422e-07
3.68006e-07
1.26881e-06
1.57011e-06
8.09866e-06
8.09902e-06
1.56983e-06
5.84942e-07
3.791e-07
1.26911e-06
3.67827e-07
1.26937e-06
3.6788e-07
5.84748e-07
1.57012e-06
8.09874e-06
8.0991e-06
1.56985e-06
5.84947e-07
3.79118e-07
3.67829e-07
1.26925e-06
3.67881e-07
1.26957e-06
5.84753e-07
1.56986e-06
8.09099e-06
1.56999e-06
8.09733e-06
5.84855e-07
3.68276e-07
1.26722e-06
3.79293e-07
5.8542e-07
3.68004e-07
1.2685e-06
1.56986e-06
8.09164e-06
1.56999e-06
8.09807e-06
5.84945e-07
3.79096e-07
1.26899e-06
3.67826e-07
1.26931e-06
3.67878e-07
5.84751e-07
1.57033e-06
8.09765e-06
8.09801e-06
1.57e-06
5.84948e-07
3.7911e-07
3.67827e-07
1.26895e-06
3.67879e-07
1.26923e-06
5.84755e-07
1.57033e-06
8.09838e-06
8.09868e-06
1.57e-06
2.60563e-06
2.60458e-06
4.01826e-07
2.61346e-06
2.61268e-06
2.48426e-05
2.4847e-05
2.48485e-05
2.48489e-05
4.01961e-07
2.61539e-06
2.6145e-06
2.6152e-06
2.61427e-06
2.48478e-05
2.4848e-05
5.84837e-07
3.68276e-07
1.26734e-06
3.79283e-07
5.85408e-07
3.68004e-07
1.26862e-06
1.56969e-06
8.09177e-06
1.56977e-06
8.0982e-06
1.56969e-06
8.09211e-06
1.56977e-06
8.09855e-06
5.84936e-07
3.79102e-07
3.67827e-07
1.26895e-06
3.67879e-07
1.26923e-06
5.84742e-07
5.84933e-07
3.791e-07
3.67826e-07
1.26907e-06
3.67879e-07
1.26935e-06
5.84737e-07
1.5701e-06
8.09852e-06
8.09882e-06
1.56983e-06
1.5701e-06
8.09886e-06
8.09916e-06
1.56983e-06
2.48428e-05
2.48472e-05
2.4844e-05
2.48483e-05
4.0196e-07
2.61452e-06
2.61508e-06
2.61429e-06
2.61485e-06
2.48481e-05
2.48482e-05
2.48492e-05
2.48493e-05
2.4846e-05
2.48454e-05
2.48494e-05
2.48488e-05
2.6147e-06
2.6154e-06
4.01582e-07
2.61443e-06
2.61513e-06
2.48454e-05
2.4846e-05
2.48488e-05
2.48493e-05
4.01771e-07
2.61447e-06
2.61514e-06
2.6148e-06
2.61548e-06
1.56996e-06
8.09812e-06
1.57037e-06
8.0978e-06
5.84723e-07
1.26939e-06
3.6781e-07
3.78986e-07
5.8486e-07
1.26888e-06
3.67805e-07
5.84722e-07
1.26954e-06
3.6781e-07
3.78989e-07
5.84859e-07
1.26904e-06
3.67805e-07
1.57034e-06
8.09715e-06
8.09739e-06
1.56993e-06
1.57035e-06
8.09767e-06
8.09795e-06
1.56994e-06
5.84839e-07
3.78982e-07
1.26887e-06
3.67802e-07
1.26938e-06
3.67802e-07
5.84723e-07
5.84838e-07
3.78985e-07
1.26903e-06
3.67803e-07
1.26954e-06
3.67803e-07
5.84721e-07
2.61533e-06
2.61514e-06
4.01575e-07
2.61504e-06
2.61473e-06
2.48456e-05
2.48448e-05
2.48473e-05
2.48479e-05
4.01765e-07
2.61504e-06
2.61473e-06
2.61541e-06
2.61518e-06
2.48447e-05
2.48455e-05
5.8472e-07
1.26962e-06
3.6781e-07
3.78978e-07
5.84856e-07
1.26912e-06
3.67805e-07
1.56982e-06
8.0989e-06
1.57019e-06
8.09851e-06
5.84725e-07
3.67812e-07
1.2698e-06
3.78996e-07
5.84861e-07
3.67807e-07
1.26925e-06
1.57014e-06
8.09835e-06
8.09865e-06
1.56979e-06
5.84833e-07
3.78974e-07
1.26912e-06
3.67802e-07
1.26961e-06
3.67802e-07
5.84719e-07
1.57016e-06
8.09839e-06
8.09869e-06
1.56981e-06
5.84839e-07
3.78992e-07
3.67805e-07
1.26924e-06
3.67804e-07
1.26978e-06
5.84724e-07
1.56998e-06
8.09782e-06
1.57039e-06
8.09743e-06
5.84728e-07
3.6781e-07
1.26947e-06
3.78988e-07
5.84863e-07
3.67805e-07
1.26896e-06
1.56998e-06
8.09852e-06
1.57039e-06
8.09818e-06
5.84839e-07
3.78971e-07
1.26899e-06
3.67802e-07
1.26952e-06
3.67803e-07
5.84724e-07
1.57037e-06
8.09731e-06
8.09762e-06
1.56996e-06
5.84841e-07
3.78984e-07
3.67802e-07
1.26895e-06
3.67802e-07
1.26946e-06
5.84727e-07
1.57037e-06
8.09806e-06
8.09834e-06
1.56996e-06
2.61588e-06
2.61493e-06
4.01588e-07
2.61549e-06
2.61464e-06
2.48484e-05
2.48478e-05
2.48484e-05
2.48492e-05
4.01777e-07
2.61549e-06
2.61465e-06
2.61594e-06
2.615e-06
2.48477e-05
2.48483e-05
5.84709e-07
3.6781e-07
1.26959e-06
3.78978e-07
5.84847e-07
3.67805e-07
1.26907e-06
1.56981e-06
8.09866e-06
1.57017e-06
8.09832e-06
1.56981e-06
8.09901e-06
1.57017e-06
8.09866e-06
5.84829e-07
3.78977e-07
3.67803e-07
1.26895e-06
3.67803e-07
1.26945e-06
5.84714e-07
5.84824e-07
3.78974e-07
3.67802e-07
1.26907e-06
3.67802e-07
1.26958e-06
5.84709e-07
1.57015e-06
8.09821e-06
8.09848e-06
1.56979e-06
1.57015e-06
8.09855e-06
8.09882e-06
1.56979e-06
2.48486e-05
2.4848e-05
2.48498e-05
2.48491e-05
4.01775e-07
2.61467e-06
2.61523e-06
2.61502e-06
2.61557e-06
2.4848e-05
2.48486e-05
2.48491e-05
2.48497e-05
2.4846e-05
2.48455e-05
2.48493e-05
2.48488e-05
2.61484e-06
2.61549e-06
4.01605e-07
2.6145e-06
2.61514e-06
2.48457e-05
2.48462e-05
2.48488e-05
2.48493e-05
4.01791e-07
2.61454e-06
2.61514e-06
2.61488e-06
2.61549e-06
1.56994e-06
8.09785e-06
1.57033e-06
8.09763e-06
5.84727e-07
1.26937e-06
3.67806e-07
3.78985e-07
5.84842e-07
1.26887e-06
3.67806e-07
5.84726e-07
1.26953e-06
3.67807e-07
3.78988e-07
5.8484e-07
1.26902e-06
3.67806e-07
1.57032e-06
8.09714e-06
8.09733e-06
1.56993e-06
1.57033e-06
8.09761e-06
8.09781e-06
1.56993e-06
5.84845e-07
3.78982e-07
1.26888e-06
3.67802e-07
1.26938e-06
3.67803e-07
5.84727e-07
5.84844e-07
3.78986e-07
1.26902e-06
3.67802e-07
1.26952e-06
3.67803e-07
5.84726e-07
2.6154e-06
2.61517e-06
4.01599e-07
2.61504e-06
2.61472e-06
2.48455e-05
2.48447e-05
2.48475e-05
2.4848e-05
4.01787e-07
2.61504e-06
2.61472e-06
2.6154e-06
2.61517e-06
2.48447e-05
2.48454e-05
5.84724e-07
1.26961e-06
3.67806e-07
3.78978e-07
5.84836e-07
1.26912e-06
3.67806e-07
1.5698e-06
8.0986e-06
1.57015e-06
8.09834e-06
5.84728e-07
3.67808e-07
1.26977e-06
3.78996e-07
5.84842e-07
3.67808e-07
1.26924e-06
1.57013e-06
8.09831e-06
8.09855e-06
1.56978e-06
5.84839e-07
3.78975e-07
1.26912e-06
3.67802e-07
1.26961e-06
3.67803e-07
5.84724e-07
1.57014e-06
8.09833e-06
8.09856e-06
1.56979e-06
5.84845e-07
3.78993e-07
3.67804e-07
1.26924e-06
3.67805e-07
1.26977e-06
5.84728e-07
1.56995e-06
8.09752e-06
1.57035e-06
8.09727e-06
5.8473e-07
3.67806e-07
1.26945e-06
3.78988e-07
5.84843e-07
3.67806e-07
1.26895e-06
1.56995e-06
8.09824e-06
1.57035e-06
8.09802e-06
5.84842e-07
3.78973e-07
1.26898e-06
3.67801e-07
1.26951e-06
3.67803e-07
5.84725e-07
1.57035e-06
8.09726e-06
8.09749e-06
1.56995e-06
5.84846e-07
3.78985e-07
3.67802e-07
1.26895e-06
3.67803e-07
1.26945e-06
5.8473e-07
1.57035e-06
8.09801e-06
8.09821e-06
1.56995e-06
2.61593e-06
2.61501e-06
4.01611e-07
2.61549e-06
2.61465e-06
2.48483e-05
2.48477e-05
2.48483e-05
2.48491e-05
4.01798e-07
2.61549e-06
2.61466e-06
2.61593e-06