/*--------------------------------*- C++ -*----------------------------------*\
| =========                 |                                                 |
| \\      /  F ield         | OpenFOAM: The Open Source CFD Toolbox           |
|  \\    /   O peration     | Version:  2206                                  |
|   \\  /    A nd           | Website:  www.openfoam.com                      |
|    \\/     M anipulation  |                                                 |
\*---------------------------------------------------------------------------*/
FoamFile
{
    version     2.0;
    format      ascii;
    arch        "LSB;label=32;scalar=64";
    class       volScalarField;
    location    "16";
    object      nut;
}
// * * * * * * * * * * * * * * * * * * * * * * * * * * * * * * * * * * * * * //

dimensions      [0 2 -1 0 0 0 0];

internalField   nonuniform List<scalar> 
28688
(
0.000233968
0.000233107
0.000233107
0.000233447
0.000232496
0.000227723
0.000227722
0.000223893
0.000230435
0.000220184
0.000220182
0.000209401
0.000228455
0.000214096
0.000214092
0.000196338
0.000228864
0.000216606
0.000216601
0.000200541
0.000228975
0.000217077
0.000217073
0.00020149
0.000228979
0.000217095
0.000217091
0.000201522
0.00022898
0.000217098
0.000217095
0.000201525
0.00022898
0.000217099
0.000217095
0.000201524
0.00022898
0.000217099
0.000217095
0.000201524
0.00022898
0.000217099
0.000217095
0.000201524
0.00022898
0.000217099
0.000217095
0.000201524
0.000234249
0.000234452
0.000234452
0.00023425
0.000234452
0.000234452
0.000234272
0.000234272
0.000234272
0.000234272
0.000234451
0.000234452
0.000234249
0.000234451
0.000234452
0.000234249
0.000233447
0.000226126
0.000233107
0.000233104
0.00022934
0.000229336
0.000233446
0.000226127
0.000233104
0.000233104
0.000229338
0.000229335
0.000233106
0.000229343
0.00022934
0.000233447
0.000226124
0.000233105
0.000229343
0.000229338
0.000226124
0.000223893
0.000212252
0.00022772
0.000227715
0.000222568
0.000222563
0.000223894
0.000212256
0.000227717
0.000227713
0.000222568
0.00022256
0.000227719
0.000222575
0.000222567
0.000223892
0.00021225
0.000227717
0.000222572
0.000222567
0.00021225
0.000209403
0.000197439
0.000220177
0.000220172
0.000214169
0.000214164
0.000209404
0.000197444
0.000220178
0.000220168
0.000214173
0.000214159
0.000220175
0.00021418
0.000214167
0.000209399
0.000197435
0.000220177
0.000214176
0.000214172
0.000197436
0.000196343
0.000200422
0.000214086
0.00021408
0.000216151
0.000216148
0.000196345
0.000200426
0.000214089
0.000214076
0.000216156
0.000216143
0.000214083
0.00021616
0.000216149
0.000196338
0.000200418
0.000214089
0.000216156
0.000216156
0.000200417
0.000200549
0.000201592
0.000216598
0.000216595
0.000217041
0.000217039
0.000200551
0.000201596
0.000216603
0.00021659
0.000217047
0.000217034
0.000216595
0.000217049
0.00021704
0.000200545
0.000201588
0.000216603
0.000217045
0.000217047
0.000201592
0.000201492
0.000201642
0.000217069
0.000217067
0.000217086
0.000217084
0.000201494
0.000201645
0.000217075
0.000217062
0.000217092
0.000217078
0.000217068
0.000217094
0.000217085
0.000201487
0.000201637
0.000217076
0.00021709
0.000217092
0.000201641
0.000201525
0.000201644
0.000217087
0.000217085
0.00021709
0.000217088
0.000201527
0.000201646
0.000217093
0.000217079
0.000217096
0.000217083
0.000217086
0.000217098
0.000217089
0.00020152
0.000201639
0.000217093
0.000217095
0.000217097
0.000201644
0.000201529
0.000201643
0.000217092
0.00021709
0.00021709
0.000217089
0.00020153
0.000201645
0.000217097
0.000217084
0.000217096
0.000217083
0.00021709
0.000217099
0.000217089
0.000201524
0.000201638
0.000217098
0.000217095
0.000217097
0.000201643
0.000201528
0.000201644
0.00021709
0.000217089
0.00021709
0.000217089
0.000201529
0.000201645
0.000217097
0.000217084
0.000217097
0.000217083
0.00021709
0.000217099
0.000217089
0.000201522
0.000201638
0.000217097
0.000217096
0.000217097
0.000201643
0.000201528
0.000201644
0.00021709
0.000217089
0.00021709
0.000217089
0.000201529
0.000201646
0.000217097
0.000217084
0.000217097
0.000217083
0.00021709
0.000217099
0.000217089
0.000201522
0.000201638
0.000217098
0.000217096
0.000217097
0.000201643
0.000201528
0.000201645
0.000217091
0.000217089
0.00021709
0.000217089
0.000201529
0.000201646
0.000217097
0.000217084
0.000217097
0.000217083
0.00021709
0.000217099
0.000217089
0.000201522
0.000201638
0.000217098
0.000217096
0.000217097
0.000201643
0.000201529
0.000201649
0.000217091
0.000217089
0.000217091
0.000201529
0.000217097
0.000217084
0.000217098
0.000217085
0.00021709
0.000217091
0.000201522
0.000201643
0.000217098
0.000217096
0.000217099
0.000201647
0.000234729
0.000234746
0.000234729
0.000234729
0.000235112
0.000234795
0.000234701
0.000234727
0.000235112
0.000234795
0.000234727
0.000234701
0.000234856
0.000233566
0.000233566
0.000104461
3.87458e-05
0.000129399
3.98173e-05
2.16835e-05
2.28264e-05
0.000104456
3.87418e-05
0.000129391
3.98138e-05
0.000233968
0.000233968
0.000233968
0.000232914
0.000232915
0.000232914
0.000232914
0.000206013
9.36211e-05
0.000233963
0.000232006
0.000222777
8.72645e-05
0.000233614
2.16824e-05
2.28254e-05
0.000206008
0.000233963
9.36234e-05
0.000232006
0.000222784
0.000233614
8.72664e-05
4.7772e-05
4.77596e-05
0.000231319
4.40707e-05
4.40617e-05
7.23729e-05
4.24336e-05
8.15075e-05
4.37657e-05
2.4777e-05
2.54631e-05
7.23617e-05
4.24301e-05
8.15022e-05
4.37619e-05
0.000232496
0.000232495
0.000232495
0.000231158
0.000231158
0.000231157
0.000231158
0.000167365
7.93054e-05
0.000232047
0.000226079
0.000180284
7.47064e-05
0.000231351
2.47755e-05
2.54614e-05
0.000167357
0.000232046
7.93012e-05
0.000226077
0.00018028
0.00023135
7.47029e-05
3.90713e-05
3.90603e-05
0.000219508
3.66329e-05
3.66229e-05
5.54745e-05
4.55497e-05
6.17898e-05
4.64245e-05
2.60227e-05
2.61125e-05
5.54738e-05
4.5547e-05
6.17912e-05
4.64216e-05
0.000230435
0.000230434
0.000230435
0.000228578
0.000228578
0.000228577
0.000228577
0.000137649
6.76474e-05
0.000228628
0.000217534
0.000148997
6.31269e-05
0.000227229
2.60207e-05
2.61103e-05
0.000137642
0.000228626
6.76407e-05
0.000217531
0.000148991
0.000227227
6.31213e-05
3.3365e-05
3.3356e-05
0.000203917
3.16798e-05
3.16713e-05
5.45383e-05
4.73864e-05
5.26496e-05
4.77774e-05
2.60631e-05
2.60614e-05
5.45305e-05
4.7383e-05
5.2654e-05
4.77741e-05
0.000228455
0.000228453
0.000228454
0.000228772
0.000228772
0.00022877
0.000228771
0.000130584
6.14504e-05
0.000224693
0.000214675
0.000128655
6.38386e-05
0.000224708
2.60608e-05
2.60591e-05
0.00013058
0.000224691
6.14536e-05
0.000214671
0.000128653
0.000224706
6.38399e-05
3.25608e-05
3.25522e-05
0.000197999
3.54355e-05
3.54271e-05
5.58719e-05
4.80148e-05
5.57302e-05
4.8029e-05
2.6081e-05
2.60827e-05
5.58771e-05
4.80119e-05
5.5735e-05
4.80259e-05
0.000228864
0.000228863
0.000228863
0.000228967
0.000228968
0.000228966
0.000228967
0.000133062
6.71902e-05
0.00022521
0.000216852
0.000132663
6.76036e-05
0.000225295
2.60783e-05
2.60799e-05
0.000133063
0.000225209
6.71893e-05
0.000216848
0.000132663
0.000225294
6.76057e-05
3.77529e-05
3.77455e-05
0.000201391
3.80074e-05
3.8e-05
5.59267e-05
4.80305e-05
5.59101e-05
4.80295e-05
2.60833e-05
2.60828e-05
5.59335e-05
4.80274e-05
5.59173e-05
4.80263e-05
0.000228976
0.000228975
0.000228975
0.00022898
0.000228979
0.000228978
0.000228979
0.000133199
6.77051e-05
0.000225378
0.000217089
0.000133156
6.77344e-05
0.000225382
2.60805e-05
2.60803e-05
0.000133202
0.000225377
6.77081e-05
0.000217085
0.000133158
0.000225381
6.77366e-05
3.80693e-05
3.8062e-05
0.000201642
3.80745e-05
3.8067e-05
5.59315e-05
4.803e-05
5.59206e-05
4.80293e-05
2.6083e-05
2.60829e-05
5.59393e-05
4.80268e-05
5.59292e-05
4.8026e-05
0.000228979
0.000228978
0.000228979
0.00022898
0.00022898
0.000228979
0.000228979
0.000133213
6.77202e-05
0.000225383
0.000217096
0.000133183
6.7741e-05
0.000225383
2.60805e-05
2.60802e-05
0.000133217
0.000225382
6.77237e-05
0.000217092
0.000133186
0.000225382
6.77437e-05
3.80724e-05
3.80651e-05
0.00020164
3.80763e-05
3.80689e-05
5.59318e-05
4.803e-05
5.59215e-05
4.80293e-05
2.60831e-05
2.60829e-05
5.59397e-05
4.80268e-05
5.59305e-05
4.8026e-05
0.00022898
0.000228979
0.000228979
0.00022898
0.00022898
0.000228979
0.000228979
0.000133214
6.77215e-05
0.000225383
0.000217099
0.000133186
6.77413e-05
0.000225383
2.60805e-05
2.60802e-05
0.000133217
0.000225383
6.77252e-05
0.000217096
0.000133189
0.000225383
6.7744e-05
3.80728e-05
3.80655e-05
0.000201642
3.80765e-05
3.80691e-05
5.59318e-05
4.803e-05
5.59215e-05
4.80293e-05
2.60831e-05
2.60829e-05
5.59397e-05
4.80268e-05
5.59305e-05
4.8026e-05
0.00022898
0.000228979
0.000228979
0.00022898
0.00022898
0.000228979
0.000228979
0.000133214
6.77215e-05
0.000225383
0.000217099
0.000133185
6.77413e-05
0.000225384
2.60805e-05
2.60802e-05
0.000133218
0.000225383
6.77252e-05
0.000217096
0.000133189
0.000225383
6.77441e-05
3.80728e-05
3.80655e-05
0.000201643
3.80765e-05
3.80691e-05
5.59318e-05
4.80301e-05
5.59215e-05
4.80292e-05
2.60831e-05
2.60829e-05
5.59396e-05
4.80269e-05
5.59304e-05
4.8026e-05
0.00022898
0.000228979
0.000228979
0.00022898
0.00022898
0.000228979
0.000228979
0.000133214
6.77215e-05
0.000225383
0.000217099
0.000133185
6.77413e-05
0.000225384
2.60805e-05
2.60802e-05
0.000133218
0.000225382
6.77252e-05
0.000217096
0.000133189
0.000225383
6.7744e-05
3.80728e-05
3.80655e-05
0.000201642
3.80765e-05
3.8069e-05
5.59317e-05
4.80302e-05
5.59215e-05
4.80295e-05
2.60831e-05
2.60829e-05
5.59397e-05
4.80267e-05
5.59304e-05
4.80259e-05
0.00022898
0.000228979
0.000228979
0.00022898
0.00022898
0.000228979
0.000228979
0.000133214
6.77215e-05
0.000225383
0.000217099
0.000133185
6.77413e-05
0.000225384
2.60805e-05
2.60802e-05
0.000133218
0.000225382
6.77252e-05
0.000217096
0.000133189
0.000225383
6.7744e-05
3.80728e-05
3.80655e-05
0.000201642
3.80765e-05
3.8069e-05
5.59317e-05
4.80303e-05
5.59215e-05
4.80296e-05
2.60831e-05
2.60829e-05
5.59397e-05
4.80267e-05
5.59305e-05
4.80259e-05
0.00022898
0.000228979
0.000228979
0.00022898
0.000228982
0.000228979
0.00022898
0.000133214
6.77215e-05
0.000225383
0.000217099
0.000133185
6.77413e-05
0.000225384
2.60805e-05
2.60802e-05
0.000133218
0.000225383
6.77252e-05
0.000217096
0.000133189
0.000225383
6.77441e-05
3.80728e-05
3.80655e-05
0.000201642
3.80765e-05
3.80691e-05
0.000234855
0.000233564
0.000233566
2.32575e-05
0.000214159
2.32564e-05
0.000214162
0.000234451
5.13582e-05
5.13397e-05
0.00022999
0.000229991
0.000235112
0.000234795
0.000234701
0.000234727
0.000235112
0.000234795
0.000234701
0.000234727
0.000234477
4.02626e-05
0.000218814
0.00014762
0.000234477
4.02621e-05
0.000218814
0.000147628
0.000233898
0.000234478
0.000100151
0.00023427
0.000233359
0.000234597
0.000228453
0.000233898
0.000234478
0.000100139
0.00023427
0.000233359
0.000234597
0.000228452
0.000234856
0.000233565
0.000233566
2.32572e-05
0.000214167
0.00023445
5.13498e-05
5.1346e-05
0.000229989
0.000229991
2.32571e-05
0.000214169
0.000235112
0.000234795
0.000234701
0.000234727
0.000235112
0.000234795
0.000234727
0.000234701
0.000234477
4.02594e-05
0.000218815
0.000147599
0.000233899
0.000234478
0.000100127
0.00023427
0.000233359
0.000234596
0.00022845
0.000234477
4.02589e-05
0.000218816
0.000147614
0.000233898
0.000234478
0.00023427
0.000100137
0.000234597
0.000233359
0.000228452
0.000234729
0.000234746
0.000234729
0.000234729
0.000234729
0.000234746
0.000234729
0.000234729
0.000234729
0.000234746
0.000234729
0.000234729
0.000234592
0.000234574
0.00023425
0.00023425
0.000234592
0.000234592
0.000234249
0.000234592
0.000234574
0.00023425
0.00023425
0.000234592
0.000234592
0.000234249
0.000234592
0.000234574
0.00023425
0.00023425
0.000234592
0.000234592
0.000234249
0.000234592
0.000234574
0.00023425
0.00023425
0.000234592
0.000234592
0.000234249
0.000235112
0.000234795
0.000234727
0.000234701
0.000233898
0.000234478
0.000100133
0.00023427
0.000233359
0.000234596
0.000228451
0.000234477
4.02601e-05
0.000218818
0.000147613
0.000233898
0.000234478
0.00023427
0.000100144
0.000234597
0.00023336
0.000228452
0.000234477
4.02597e-05
0.000218816
0.00014762
0.000234855
0.000233566
0.000233566
2.32564e-05
0.000214163
0.00023445
5.13438e-05
5.13473e-05
0.000229991
0.000229993
2.32568e-05
0.000214171
0.000235112
0.000234795
0.000234727
0.000234701
0.000233898
0.000234478
0.00023427
0.000100139
0.000234596
0.00023336
0.000228451
0.000233898
0.000234478
0.00023427
0.000100129
0.000234596
0.000233359
0.00022845
0.000234477
4.02593e-05
0.000218818
0.000147601
0.000234477
4.02591e-05
0.000218814
0.000147587
0.00023445
5.13499e-05
5.13378e-05
0.000229992
0.000229992
2.32569e-05
0.000214169
2.32564e-05
0.000214164
2.16839e-05
2.28273e-05
2.16826e-05
2.28259e-05
4.77721e-05
4.77608e-05
0.000231319
4.40771e-05
4.40612e-05
2.44773e-05
2.33085e-05
2.44757e-05
2.33071e-05
0.00022971
4.01525e-05
4.0137e-05
4.30797e-05
4.30665e-05
0.000104475
3.87447e-05
0.000129384
3.98155e-05
0.000206017
9.3632e-05
0.000233963
0.000232005
0.000222773
8.72713e-05
0.000233614
0.000206019
9.36176e-05
0.000233963
0.000232002
0.000222769
8.72558e-05
0.000233613
9.87515e-05
4.1959e-05
4.03788e-05
8.52088e-05
9.87447e-05
4.19575e-05
4.03776e-05
8.52102e-05
0.000200335
0.000230781
8.09332e-05
0.000232681
8.56361e-05
0.000233203
0.000185294
0.000200335
0.000230777
8.09222e-05
0.000232681
8.56217e-05
0.000233203
0.000185297
4.77641e-05
4.77682e-05
0.00023132
4.40659e-05
4.40716e-05
2.16835e-05
2.28273e-05
2.44765e-05
2.33077e-05
0.00022971
4.01423e-05
4.01458e-05
4.30698e-05
4.30747e-05
2.44774e-05
2.33087e-05
0.000206008
9.36119e-05
0.000233963
0.000232003
0.00022277
8.72509e-05
0.000233614
0.000104459
3.87414e-05
0.00012941
3.98131e-05
0.000206009
0.000233963
9.36141e-05
0.000232001
0.000222774
0.000233613
8.7252e-05
9.87466e-05
4.19552e-05
4.03753e-05
8.52043e-05
0.000200333
0.000230778
8.09177e-05
0.000232681
8.56209e-05
0.000233203
0.000185291
9.87474e-05
4.19542e-05
4.03747e-05
8.52029e-05
0.000200333
0.000230776
0.000232681
8.09146e-05
0.000233203
8.56175e-05
0.000185287
0.000104463
3.87423e-05
0.000129402
3.9816e-05
0.000206014
0.000233963
9.36253e-05
0.000232005
0.000222782
0.000233614
8.72642e-05
0.000104461
3.87427e-05
0.000129423
3.98145e-05
0.000200337
0.000230782
8.09293e-05
0.000232682
8.56339e-05
0.000233203
0.000185294
9.87499e-05
4.19574e-05
4.03765e-05
8.52041e-05
0.000200337
0.00023078
0.000232681
8.09303e-05
0.000233203
8.56334e-05
0.000185294
9.8755e-05
4.19564e-05
4.03767e-05
8.52051e-05
4.77601e-05
4.77689e-05
0.000231318
4.40614e-05
4.40765e-05
2.16829e-05
2.28265e-05
2.4475e-05
2.33065e-05
0.00022971
4.0136e-05
4.01503e-05
4.30672e-05
4.30755e-05
2.44765e-05
2.33076e-05
0.000206005
0.000233963
9.36117e-05
0.000232002
0.00022278
0.000233614
8.72533e-05
0.000104443
3.87418e-05
0.000129428
3.98147e-05
0.000104439
3.87412e-05
0.000129415
3.98136e-05
0.000200335
0.000230782
0.000232681
8.09306e-05
0.000233203
8.56295e-05
0.000185289
0.000200336
0.000230778
0.000232681
8.09213e-05
0.000233203
8.56208e-05
0.000185288
9.87625e-05
4.1956e-05
4.03763e-05
8.52018e-05
9.87616e-05
4.19553e-05
4.03749e-05
8.52014e-05
2.16834e-05
2.28265e-05
2.16825e-05
2.28259e-05
0.00022971
4.0149e-05
4.01379e-05
4.30811e-05
4.30662e-05
2.44766e-05
2.33079e-05
2.44757e-05
2.33072e-05
2.47778e-05
2.54641e-05
2.4776e-05
2.54624e-05
3.90726e-05
3.90596e-05
0.00021951
3.66376e-05
3.66238e-05
2.59494e-05
2.56251e-05
2.5948e-05
2.56232e-05
0.000216853
3.39844e-05
3.39669e-05
3.57059e-05
3.56933e-05
7.23752e-05
4.24324e-05
8.15104e-05
4.37645e-05
0.000167365
7.93061e-05
0.000232046
0.000226075
0.000180281
7.47058e-05
0.00023135
0.000167367
7.92928e-05
0.000232046
0.00022607
0.000180284
7.46966e-05
0.00023135
6.93425e-05
4.52172e-05
4.41644e-05
6.37582e-05
6.93451e-05
4.52169e-05
4.4163e-05
6.37606e-05
0.000162619
0.000224451
6.89999e-05
0.000229787
7.30099e-05
0.000230637
0.000152418
0.000162623
0.000224446
6.89961e-05
0.000229786
7.29953e-05
0.000230636
0.000152421
3.90633e-05
3.90693e-05
0.000219513
3.66277e-05
3.66375e-05
2.4778e-05
2.54642e-05
2.5949e-05
2.56241e-05
0.000216854
3.39713e-05
3.39806e-05
3.5697e-05
3.57009e-05
2.59497e-05
2.56251e-05
0.00016736
7.92903e-05
0.000232046
0.000226074
0.000180278
7.46945e-05
0.00023135
7.23601e-05
4.24291e-05
8.15017e-05
4.37608e-05
0.000167358
0.000232045
7.929e-05
0.000226068
0.000180276
0.000231349
7.46903e-05
6.93487e-05
4.52142e-05
4.41611e-05
6.37524e-05
0.000162615
0.00022445
6.89923e-05
0.000229786
7.29939e-05
0.000230636
0.000152416
6.93472e-05
4.52128e-05
4.41593e-05
6.37507e-05
0.000162613
0.000224444
0.000229785
6.89862e-05
0.000230635
7.29909e-05
0.000152413
7.23681e-05
4.24319e-05
8.1511e-05
4.37642e-05
0.000167362
0.000232046
7.9302e-05
0.000226074
0.000180282
0.00023135
7.47025e-05
7.23711e-05
4.24313e-05
8.15051e-05
4.37628e-05
0.000162622
0.000224457
6.9001e-05
0.000229788
7.3007e-05
0.000230637
0.00015242
6.93476e-05
4.52164e-05
4.41627e-05
6.37577e-05
0.00016262
0.00022445
0.000229786
6.90016e-05
0.000230636
7.30007e-05
0.000152417
6.93453e-05
4.52151e-05
4.41614e-05
6.37561e-05
3.90596e-05
3.90712e-05
0.000219508
3.66277e-05
3.66345e-05
2.47771e-05
2.54628e-05
2.59468e-05
2.56222e-05
0.000216851
3.39713e-05
3.39783e-05
3.56907e-05
3.57032e-05
2.59486e-05
2.56238e-05
0.000167361
0.000232046
7.92915e-05
0.000226072
0.000180282
0.00023135
7.46934e-05
7.23602e-05
4.24309e-05
8.15022e-05
4.3763e-05
7.23664e-05
4.24297e-05
8.15038e-05
4.37618e-05
0.000162616
0.000224455
0.000229786
6.9001e-05
0.000230637
7.30031e-05
0.000152415
0.000162619
0.00022445
0.000229786
6.8994e-05
0.000230636
7.2993e-05
0.000152417
6.93483e-05
4.52152e-05
4.41614e-05
6.37513e-05
6.93492e-05
4.52139e-05
4.41601e-05
6.37519e-05
2.47771e-05
2.54626e-05
2.47763e-05
2.54619e-05
0.000216851
3.39768e-05
3.39669e-05
3.57013e-05
3.5692e-05
2.59484e-05
2.56236e-05
2.59477e-05
2.56229e-05
2.60233e-05
2.61131e-05
2.60216e-05
2.61113e-05
3.33644e-05
3.33572e-05
0.000203919
3.16824e-05
3.1672e-05
2.60703e-05
2.61092e-05
2.60684e-05
2.61074e-05
0.000200971
3.21976e-05
3.21856e-05
3.15403e-05
3.15314e-05
5.54769e-05
4.55489e-05
6.17925e-05
4.64244e-05
0.000137646
6.76471e-05
0.000228627
0.000217525
0.000148995
6.31258e-05
0.000227227
0.00013765
6.76349e-05
0.000228626
0.000217519
0.000148999
6.31179e-05
0.000227226
5.4335e-05
4.72238e-05
4.66618e-05
5.23299e-05
5.43373e-05
4.72239e-05
4.6661e-05
5.23311e-05
0.000134734
0.000215322
6.11724e-05
0.000225048
6.19979e-05
0.000225922
0.000129035
0.000134737
0.000215317
6.11646e-05
0.000225047
6.19892e-05
0.000225921
0.000129036
3.33598e-05
3.33607e-05
0.000203925
3.16745e-05
3.16806e-05
2.60236e-05
2.61134e-05
2.60696e-05
2.61085e-05
0.000200972
3.2189e-05
3.21947e-05
3.15339e-05
3.15382e-05
2.60704e-05
2.61095e-05
0.000137643
6.76341e-05
0.000228626
0.000217527
0.000148991
6.31158e-05
0.000227226
5.54721e-05
4.55449e-05
6.17903e-05
4.64202e-05
0.00013764
0.000228625
6.7633e-05
0.000217515
0.00014899
0.000227224
6.31135e-05
5.43322e-05
4.72207e-05
4.66588e-05
5.23234e-05
0.00013473
0.000215325
6.11601e-05
0.000225046
6.19875e-05
0.000225921
0.000129028
5.43311e-05
4.72193e-05
4.66569e-05
5.23233e-05
0.000134728
0.000215312
0.000225045
6.11594e-05
0.000225919
6.1985e-05
0.000129026
5.54746e-05
4.55486e-05
6.17899e-05
4.6424e-05
0.000137645
0.000228626
6.764e-05
0.000217523
0.000148995
0.000227227
6.31222e-05
5.5473e-05
4.5547e-05
6.17881e-05
4.64225e-05
0.000134736
0.000215332
6.11718e-05
0.000225049
6.19984e-05
0.000225923
0.000129034
5.4335e-05
4.72234e-05
4.66608e-05
5.23284e-05
0.000134734
0.00021532
0.000225047
6.11685e-05
0.000225921
6.19932e-05
0.000129032
5.43336e-05
4.72216e-05
4.6659e-05
5.23281e-05
3.33523e-05
3.33654e-05
0.000203916
3.1672e-05
3.16808e-05
2.60224e-05
2.61121e-05
2.60673e-05
2.61064e-05
0.000200967
3.21868e-05
3.21952e-05
3.15296e-05
3.154e-05
2.60692e-05
2.61081e-05
0.000137644
0.000228626
6.76324e-05
0.000217525
0.000148993
0.000227226
6.31155e-05
5.54726e-05
4.55469e-05
6.17907e-05
4.64222e-05
5.54738e-05
4.55459e-05
6.17917e-05
4.64214e-05
0.000134729
0.000215328
0.000225047
6.11678e-05
0.000225921
6.1993e-05
0.000129029
0.000134731
0.000215324
0.000225046
6.11624e-05
0.00022592
6.19865e-05
0.00012903
5.43315e-05
4.72213e-05
4.66587e-05
5.23238e-05
5.43325e-05
4.72208e-05
4.6658e-05
5.23237e-05
2.60222e-05
2.61119e-05
2.60214e-05
2.61111e-05
0.000200967
3.21943e-05
3.21855e-05
3.1539e-05
3.15306e-05
2.6069e-05
2.6108e-05
2.60681e-05
2.61071e-05
2.6064e-05
2.60622e-05
2.60618e-05
2.60601e-05
3.25618e-05
3.25528e-05
0.000198002
3.54355e-05
3.54265e-05
2.60786e-05
2.60671e-05
2.60765e-05
2.60648e-05
0.000198269
3.75544e-05
3.75464e-05
3.61881e-05
3.61783e-05
5.45385e-05
4.73859e-05
5.26515e-05
4.77773e-05
0.000130585
6.14518e-05
0.000224692
0.000214666
0.000128657
6.38412e-05
0.000224707
0.000130585
6.14504e-05
0.00022469
0.000214661
0.000128658
6.38368e-05
0.000224706
5.48476e-05
4.79957e-05
4.78657e-05
5.56051e-05
5.48479e-05
4.79957e-05
4.78651e-05
5.56051e-05
0.000131051
0.000215461
6.68826e-05
0.000225072
6.49563e-05
0.000224885
0.000132476
0.000131051
0.000215457
6.68789e-05
0.000225071
6.49498e-05
0.000224883
0.000132476
3.25559e-05
3.25591e-05
0.000198006
3.54292e-05
3.54337e-05
2.60639e-05
2.60622e-05
2.60778e-05
2.60661e-05
0.000198271
3.75487e-05
3.75531e-05
3.61799e-05
3.61846e-05
2.60782e-05
2.60671e-05
0.000130577
6.14458e-05
0.000224691
0.00021467
0.000128654
6.38322e-05
0.000224706
5.45304e-05
4.73815e-05
5.26554e-05
4.77725e-05
0.000130577
0.000224689
6.14384e-05
0.000214657
0.000128652
0.000224704
6.38259e-05
5.48495e-05
4.79927e-05
4.78623e-05
5.56117e-05
0.000131046
0.000215465
6.68737e-05
0.000225071
6.49462e-05
0.000224884
0.000132475
5.48494e-05
4.79901e-05
4.78605e-05
5.56109e-05
0.000131045
0.000215452
0.000225069
6.68685e-05
0.000224882
6.49438e-05
0.000132473
5.45362e-05
4.73856e-05
5.26486e-05
4.77769e-05
0.000130582
0.000224691
6.14541e-05
0.000214664
0.000128657
0.000224707
6.38396e-05
5.45363e-05
4.73836e-05
5.26486e-05
4.77748e-05
0.00013105
0.000215471
6.68814e-05
0.000225073
6.49556e-05
0.000224885
0.000132476
5.4846e-05
4.79946e-05
4.78649e-05
5.56042e-05
0.00013105
0.000215459
0.000225072
6.68799e-05
0.000224884
6.49519e-05
0.000132474
5.48459e-05
4.7993e-05
4.78625e-05
5.56037e-05
3.25505e-05
3.2562e-05
0.000197998
3.54247e-05
3.54356e-05
2.60627e-05
2.6061e-05
2.6075e-05
2.60641e-05
0.000198264
3.75434e-05
3.75547e-05
3.61748e-05
3.61862e-05
2.60774e-05
2.60657e-05
0.000130581
0.00022469
6.14474e-05
0.00021467
0.000128655
0.000224706
6.38338e-05
5.45309e-05
4.73833e-05
5.2656e-05
4.77745e-05
5.45304e-05
4.73828e-05
5.26555e-05
4.77741e-05
0.000131049
0.000215467
0.000225072
6.68799e-05
0.000224884
6.49514e-05
0.000132477
0.000131049
0.000215465
0.000225071
6.68754e-05
0.000224883
6.49462e-05
0.000132478
5.48501e-05
4.79927e-05
4.78622e-05
5.56117e-05
5.48497e-05
4.79925e-05
4.78619e-05
5.56117e-05
2.60625e-05
2.60608e-05
2.60616e-05
2.60599e-05
0.000198267
3.75541e-05
3.75463e-05
3.61851e-05
3.61775e-05
2.60772e-05
2.60656e-05
2.60763e-05
2.60647e-05
2.60819e-05
2.60837e-05
2.60798e-05
2.60816e-05
3.77545e-05
3.77477e-05
0.000201393
3.80067e-05
3.80009e-05
2.60841e-05
2.60841e-05
2.60819e-05
2.6082e-05
0.000201327
3.80709e-05
3.80648e-05
3.80364e-05
3.80307e-05
5.58719e-05
4.80145e-05
5.57316e-05
4.80291e-05
0.000133061
6.71923e-05
0.000225211
0.000216843
0.000132666
6.76064e-05
0.000225294
0.000133062
6.71899e-05
0.00022521
0.000216841
0.000132665
6.76042e-05
0.000225293
5.58912e-05
4.80299e-05
4.80305e-05
5.59168e-05
5.58913e-05
4.80301e-05
4.80306e-05
5.59169e-05
0.000133078
0.000216978
6.77237e-05
0.000225365
6.76637e-05
0.000225339
0.000133172
0.000133078
0.000216976
6.77212e-05
0.000225365
6.76615e-05
0.000225339
0.000133172
3.77481e-05
3.77485e-05
0.000201397
3.80014e-05
3.8002e-05
2.60815e-05
2.60831e-05
2.60831e-05
2.60831e-05
0.00020133
3.80648e-05
3.80597e-05
3.80307e-05
3.80302e-05
2.60834e-05
2.60836e-05
0.000133062
6.71865e-05
0.00022521
0.000216849
0.000132665
6.75993e-05
0.000225293
5.58757e-05
4.80091e-05
5.57354e-05
4.80234e-05
0.00013306
0.000225208
6.71786e-05
0.000216836
0.000132663
0.000225292
6.75898e-05
5.58975e-05
4.80267e-05
4.80274e-05
5.59232e-05
0.000133079
0.000216983
6.77165e-05
0.000225365
6.76576e-05
0.000225339
0.000133173
5.5896e-05
4.80243e-05
4.8025e-05
5.59216e-05
0.000133076
0.000216971
0.000225363
6.77064e-05
0.000225337
6.76473e-05
0.000133171
5.58712e-05
4.80137e-05
5.57308e-05
4.8028e-05
0.00013306
0.00022521
6.71906e-05
0.000216841
0.000132664
0.000225294
6.7605e-05
5.58705e-05
4.80118e-05
5.57302e-05
4.80264e-05
0.000133077
0.000216985
6.77199e-05
0.000225366
6.7661e-05
0.000225341
0.000133172
5.58906e-05
4.8029e-05
4.80296e-05
5.59161e-05
0.000133077
0.000216976
0.000225365
6.77219e-05
0.000225339
6.76623e-05
0.00013317
5.58899e-05
4.80273e-05
4.80278e-05
5.59154e-05
3.77382e-05
3.77544e-05
0.000201389
3.79917e-05
3.80076e-05
2.60807e-05
2.60824e-05
2.60803e-05
2.60804e-05
0.000201322
3.80513e-05
3.80706e-05
3.80201e-05
3.80367e-05
2.60828e-05
2.60828e-05
0.000133064
0.00022521
6.71863e-05
0.000216849
0.000132667
0.000225294
6.76011e-05
5.58765e-05
4.80116e-05
5.57362e-05
4.80261e-05
5.58767e-05
4.80113e-05
5.57362e-05
4.80258e-05
0.000133079
0.000216981
0.000225365
6.77222e-05
0.00022534
6.76629e-05
0.000133174
0.000133081
0.000216984
0.000225365
6.77181e-05
0.000225339
6.76583e-05
0.000133176
5.58968e-05
4.8027e-05
4.80276e-05
5.59224e-05
5.5897e-05
4.80268e-05
4.80273e-05
5.59226e-05
2.60805e-05
2.60822e-05
2.60796e-05
2.60813e-05
0.000201325
3.80706e-05
3.80631e-05
3.80366e-05
3.80292e-05
2.60826e-05
2.60826e-05
2.60817e-05
2.60817e-05
2.60845e-05
2.60843e-05
2.60821e-05
2.60819e-05
3.80705e-05
3.80645e-05
0.00020164
3.8075e-05
3.80686e-05
2.60843e-05
2.60845e-05
2.60819e-05
2.60821e-05
0.000201528
3.80768e-05
3.80699e-05
3.8073e-05
3.80666e-05
5.59269e-05
4.80304e-05
5.59125e-05
4.80297e-05
0.000133199
6.77124e-05
0.000225377
0.00021708
0.000133157
6.77384e-05
0.000225381
0.0001332
6.77096e-05
0.000225377
0.000217078
0.000133158
6.77352e-05
0.00022538
5.59202e-05
4.80293e-05
4.80298e-05
5.59304e-05
5.59203e-05
4.80295e-05
4.803e-05
5.59307e-05
0.000133177
0.000217084
6.7744e-05
0.000225383
6.77244e-05
0.000225382
0.000133208
0.000133177
0.000217082
6.77403e-05
0.000225382
6.77209e-05
0.000225381
0.000133208
3.80642e-05
3.80601e-05
0.000201644
3.80684e-05
3.80658e-05
2.60837e-05
2.60834e-05
2.60828e-05
2.6083e-05
0.000201531
3.80698e-05
3.80667e-05
3.80661e-05
3.80629e-05
2.60834e-05
2.60837e-05
0.000133201
6.77053e-05
0.000225377
0.000217086
0.000133159
6.77306e-05
0.00022538
5.59317e-05
4.80247e-05
5.5918e-05
4.80239e-05
0.000133199
0.000225375
6.76942e-05
0.000217073
0.000133156
0.000225378
6.77207e-05
5.59282e-05
4.80261e-05
4.80267e-05
5.59379e-05
0.000133179
0.00021709
6.77355e-05
0.000225383
6.77165e-05
0.000225382
0.000133211
5.59263e-05
4.80236e-05
4.80243e-05
5.59359e-05
0.000133176
0.000217077
0.00022538
6.77255e-05
0.00022538
6.77054e-05
0.000133207
5.5926e-05
4.80293e-05
5.59117e-05
4.80285e-05
0.000133198
0.000225377
6.77104e-05
0.000217079
0.000133156
0.00022538
6.77362e-05
5.59254e-05
4.80275e-05
5.5911e-05
4.80269e-05
0.000133178
0.000217091
6.77394e-05
0.000225383
6.77193e-05
0.000225383
0.000133209
5.59195e-05
4.80283e-05
4.80289e-05
5.593e-05
0.000133176
0.000217083
0.000225382
6.77412e-05
0.000225382
6.77218e-05
0.000133207
5.59189e-05
4.80266e-05
4.80272e-05
5.59294e-05
3.80511e-05
3.80701e-05
0.000201636
3.80564e-05
3.80744e-05
2.6083e-05
2.60828e-05
2.60802e-05
2.60805e-05
0.000201523
3.80576e-05
3.80758e-05
3.80535e-05
3.80723e-05
2.60827e-05
2.60829e-05
0.000133204
0.000225377
6.77064e-05
0.000217087
0.000133161
0.000225381
6.77323e-05
5.59325e-05
4.80273e-05
5.59188e-05
4.80266e-05
5.59328e-05
4.8027e-05
5.5919e-05
4.80264e-05
0.00013318
0.000217088
0.000225382
6.77418e-05
0.000225383
6.77225e-05
0.000133212
0.000133181
0.000217091
0.000225383
6.77374e-05
0.000225382
6.77178e-05
0.000133213
5.59271e-05
4.80264e-05
4.80269e-05
5.59368e-05
5.59274e-05
4.80261e-05
4.80267e-05
5.59371e-05
2.60828e-05
2.60826e-05
2.60819e-05
2.60817e-05
0.000201529
3.80758e-05
3.80684e-05
3.80723e-05
3.80649e-05
2.60826e-05
2.60828e-05
2.60816e-05
2.60819e-05
2.60845e-05
2.60843e-05
2.60821e-05
2.60819e-05
3.80745e-05
3.80677e-05
0.000201641
3.80778e-05
3.80705e-05
2.60843e-05
2.60845e-05
2.60819e-05
2.6082e-05
0.000201527
3.80778e-05
3.80706e-05
3.80749e-05
3.80682e-05
5.59319e-05
4.80298e-05
5.59233e-05
4.80294e-05
0.000133212
6.77285e-05
0.000225383
0.000217088
0.000133185
6.7746e-05
0.000225383
0.000133213
6.77247e-05
0.000225382
0.000217085
0.000133185
6.77421e-05
0.000225382
5.59237e-05
4.80293e-05
4.80297e-05
5.59318e-05
5.59242e-05
4.80293e-05
4.80297e-05
5.59323e-05
0.000133189
0.000217089
6.77468e-05
0.000225383
6.77303e-05
0.000225383
0.000133214
0.000133189
0.000217087
6.77426e-05
0.000225383
6.77262e-05
0.000225383
0.000133215
3.80673e-05
3.80636e-05
0.000201644
3.80704e-05
3.80671e-05
2.60836e-05
2.60834e-05
2.60829e-05
2.60831e-05
0.000201529
3.80705e-05
3.80671e-05
3.80678e-05
3.80638e-05
2.60834e-05
2.60836e-05
0.000133215
6.77201e-05
0.000225382
0.000217093
0.000133188
6.77371e-05
0.000225382
5.59373e-05
4.80241e-05
5.59296e-05
4.80235e-05
0.000133212
0.00022538
6.7709e-05
0.00021708
0.000133185
0.00022538
6.77272e-05
5.59326e-05
4.8026e-05
4.80265e-05
5.59397e-05
0.000133192
0.000217095
6.77375e-05
0.000225383
6.77214e-05
0.000225383
0.000133217
5.59306e-05
4.80235e-05
4.8024e-05
5.59377e-05
0.000133189
0.000217082
0.000225381
6.77276e-05
0.000225381
6.77103e-05
0.000133215
5.59311e-05
4.80287e-05
5.59225e-05
4.80282e-05
0.000133211
0.000225382
6.77256e-05
0.000217087
0.000133184
0.000225382
6.7743e-05
5.59307e-05
4.8027e-05
5.5922e-05
4.80265e-05
0.000133191
0.000217097
6.77412e-05
0.000225384
6.77242e-05
0.000225384
0.000133213
5.59233e-05
4.80282e-05
4.80286e-05
5.59315e-05
0.000133189
0.000217088
0.000225383
6.77435e-05
0.000225383
6.7727e-05
0.000133213
5.59229e-05
4.80265e-05
4.80269e-05
5.5931e-05
3.80543e-05
3.80734e-05
0.000201636
3.8058e-05
3.80764e-05
2.60829e-05
2.60827e-05
2.60802e-05
2.60805e-05
0.000201522
3.8058e-05
3.80765e-05
3.80547e-05