/*--------------------------------*- C++ -*----------------------------------*\
| =========                 |                                                 |
| \\      /  F ield         | OpenFOAM: The Open Source CFD Toolbox           |
|  \\    /   O peration     | Version:  2206                                  |
|   \\  /    A nd           | Website:  www.openfoam.com                      |
|    \\/     M anipulation  |                                                 |
\*---------------------------------------------------------------------------*/
FoamFile
{
    version     2.0;
    format      ascii;
    arch        "LSB;label=32;scalar=64";
    class       volVectorField;
    location    "30";
    object      U;
}
// * * * * * * * * * * * * * * * * * * * * * * * * * * * * * * * * * * * * * //

dimensions      [0 1 -1 0 0 0 0];

internalField   nonuniform List<vector> 
28897
(
(-7.78393e-07 -7.70825e-07 0.103334)
(-5.21848e-07 7.97598e-07 0.103255)
(7.93796e-07 -5.24025e-07 0.103255)
(-4.52317e-05 -4.52465e-05 0.103146)
(-7.84343e-07 -7.75995e-07 0.103334)
(-5.11594e-07 7.92741e-07 0.103255)
(7.88848e-07 -5.14249e-07 0.103255)
(-4.52257e-05 -4.52389e-05 0.103146)
(-7.91354e-07 -7.83664e-07 0.103334)
(-4.96603e-07 7.82405e-07 0.103255)
(7.7749e-07 -4.99257e-07 0.103255)
(-4.52147e-05 -4.52281e-05 0.103146)
(-8.04212e-07 -7.9504e-07 0.103333)
(-4.83441e-07 7.77955e-07 0.103255)
(7.63103e-07 -4.69921e-07 0.103255)
(-4.52074e-05 -4.52168e-05 0.103146)
(-8.04983e-07 -7.98478e-07 0.103333)
(-4.97804e-07 7.93994e-07 0.103255)
(7.66891e-07 -4.71579e-07 0.103255)
(-4.52156e-05 -4.52345e-05 0.103146)
(-7.12572e-07 -7.23691e-07 0.103333)
(-5.437e-07 8.26116e-07 0.103255)
(8.80676e-07 -6.20926e-07 0.103255)
(-4.52639e-05 -4.5316e-05 0.103146)
(-7.54903e-07 -7.35361e-07 0.103334)
(-6.01505e-07 8.28622e-07 0.103255)
(7.88884e-07 -5.58013e-07 0.103255)
(-4.53283e-05 -4.53058e-05 0.103146)
(-7.95558e-07 -7.84801e-07 0.103334)
(-5.003e-07 7.71354e-07 0.103255)
(7.74045e-07 -5.06576e-07 0.103255)
(-4.52243e-05 -4.52389e-05 0.103146)
(-7.80791e-07 -7.74419e-07 0.103334)
(-5.14344e-07 7.89784e-07 0.103255)
(7.90492e-07 -5.20524e-07 0.103255)
(-4.52425e-05 -4.52605e-05 0.103146)
(-7.79091e-07 -7.72191e-07 0.103334)
(-5.16592e-07 7.92638e-07 0.103255)
(7.90737e-07 -5.21933e-07 0.103255)
(-4.52418e-05 -4.52627e-05 0.103146)
(-7.74405e-07 -7.67166e-07 0.103334)
(-5.15898e-07 7.91592e-07 0.103255)
(7.91588e-07 -5.21341e-07 0.103255)
(-4.52432e-05 -4.52616e-05 0.103146)
(-7.82013e-07 -7.69838e-07 0.103334)
(-5.17736e-07 8.0334e-07 0.103255)
(7.91208e-07 -5.19195e-07 0.103255)
(-4.52457e-05 -4.5259e-05 0.103146)
(-7.78939e-07 -7.70356e-07 0.103334)
(-5.18734e-07 7.9486e-07 0.103255)
(7.918e-07 -5.20176e-07 0.103255)
(-4.52456e-05 -4.52594e-05 0.103146)
(-7.77964e-07 -7.71551e-07 0.103334)
(-5.18989e-07 7.95048e-07 0.103255)
(7.91959e-07 -5.20077e-07 0.103255)
(-4.52457e-05 -4.52603e-05 0.103146)
(-7.76784e-07 -7.7153e-07 0.103334)
(-5.19607e-07 7.9538e-07 0.103255)
(7.91556e-07 -5.2017e-07 0.103255)
(-4.52458e-05 -4.52609e-05 0.103146)
(-7.7615e-07 -7.71373e-07 0.103334)
(-5.19892e-07 7.95634e-07 0.103255)
(7.9185e-07 -5.20251e-07 0.103255)
(-4.52451e-05 -4.52602e-05 0.103146)
(-7.76363e-07 -7.72317e-07 0.103334)
(-5.19496e-07 7.95027e-07 0.103255)
(7.91471e-07 -5.20046e-07 0.103255)
(-4.52424e-05 -4.52575e-05 0.103146)
(-7.75849e-07 -7.7205e-07 0.103334)
(-5.19655e-07 7.94773e-07 0.103255)
(7.91229e-07 -5.1981e-07 0.103255)
(-4.52348e-05 -4.52495e-05 0.103146)
(-4.73877e-05 -4.73541e-05 0.103152)
(8.23523e-07 5.49365e-07 0.103255)
(-8.23555e-07 5.56634e-07 0.103255)
(4.7388e-05 -4.73599e-05 0.103152)
(5.23915e-07 7.97083e-07 0.103255)
(5.48908e-07 -8.20525e-07 0.103255)
(-5.21185e-07 7.95504e-07 0.103255)
(-5.46606e-07 -8.1681e-07 0.103255)
(-4.73577e-05 4.7393e-05 0.103152)
(7.94377e-07 -5.24032e-07 0.103255)
(-7.93138e-07 -5.24552e-07 0.103255)
(4.73611e-05 4.73805e-05 0.103152)
(4.52399e-05 4.52174e-05 0.103146)
(-4.73935e-05 -4.73591e-05 0.103152)
(8.21457e-07 5.4394e-07 0.103255)
(-8.31117e-07 5.5428e-07 0.103255)
(8.1712e-07 5.3798e-07 0.103255)
(-8.23314e-07 5.4557e-07 0.103255)
(-4.52371e-05 4.52124e-05 0.103146)
(4.73927e-05 -4.73643e-05 0.103152)
(5.24865e-07 7.96212e-07 0.103255)
(5.46538e-07 -8.197e-07 0.103255)
(5.12027e-07 7.91637e-07 0.103255)
(5.37194e-07 -8.14972e-07 0.103255)
(-5.4573e-07 -8.15633e-07 0.103255)
(-5.13104e-07 7.92919e-07 0.103255)
(-5.38018e-07 -8.11944e-07 0.103255)
(4.52194e-05 -4.52524e-05 0.103146)
(-4.73627e-05 4.73985e-05 0.103152)
(-7.92389e-07 -5.21785e-07 0.103255)
(7.88924e-07 -5.12393e-07 0.103255)
(-7.88072e-07 -5.12091e-07 0.103255)
(4.73637e-05 4.7385e-05 0.103152)
(4.52317e-05 4.52106e-05 0.103146)
(-4.74046e-05 -4.73707e-05 0.103152)
(8.16567e-07 5.3635e-07 0.103255)
(-8.24608e-07 5.4413e-07 0.103255)
(8.08896e-07 5.25736e-07 0.103255)
(-8.19577e-07 5.35385e-07 0.103255)
(-4.52278e-05 4.52027e-05 0.103146)
(4.74032e-05 -4.73729e-05 0.103152)
(5.15076e-07 7.91549e-07 0.103255)
(5.38461e-07 -8.14943e-07 0.103255)
(4.99553e-07 7.83881e-07 0.103255)
(5.24885e-07 -8.07136e-07 0.103255)
(-5.35727e-07 -8.10858e-07 0.103255)
(-5.02449e-07 7.87627e-07 0.103255)
(-5.27249e-07 -8.0506e-07 0.103255)
(4.5212e-05 -4.52442e-05 0.103146)
(-4.73743e-05 4.74095e-05 0.103152)
(-7.87597e-07 -5.11676e-07 0.103255)
(7.80737e-07 -5.0022e-07 0.103255)
(-7.81311e-07 -4.99764e-07 0.103255)
(4.73747e-05 4.73966e-05 0.103152)
(4.52211e-05 4.51978e-05 0.103146)
(-4.74163e-05 -4.73816e-05 0.103151)
(8.05753e-07 5.18659e-07 0.103255)
(-8.16963e-07 5.29562e-07 0.103255)
(8.07523e-07 5.1315e-07 0.103255)
(-8.26525e-07 5.27467e-07 0.103255)
(-4.52158e-05 4.51919e-05 0.103146)
(4.74109e-05 -4.73865e-05 0.103151)
(4.99681e-07 7.8135e-07 0.103255)
(5.19943e-07 -8.04366e-07 0.103255)
(4.85527e-07 7.82152e-07 0.103255)
(5.12148e-07 -8.05803e-07 0.103255)
(-5.21861e-07 -8.00218e-07 0.103255)
(-5.03973e-07 7.90705e-07 0.103255)
(-5.22488e-07 -8.01607e-07 0.103255)
(4.51993e-05 -4.52338e-05 0.103146)
(-4.73852e-05 4.74208e-05 0.103151)
(-7.78874e-07 -4.95486e-07 0.103255)
(7.78922e-07 -4.86614e-07 0.103255)
(-7.80718e-07 -4.84751e-07 0.103255)
(4.73855e-05 4.74107e-05 0.103151)
(4.52131e-05 4.51915e-05 0.103146)
(-4.74146e-05 -4.7385e-05 0.103151)
(7.90426e-07 4.92301e-07 0.103255)
(-8.13477e-07 5.09334e-07 0.103255)
(8.28711e-07 5.30263e-07 0.103255)
(-8.29951e-07 5.41448e-07 0.103255)
(-4.52143e-05 4.51842e-05 0.103146)
(4.74303e-05 -4.73995e-05 0.103151)
(4.70808e-07 7.65705e-07 0.103255)
(4.9419e-07 -7.89176e-07 0.103255)
(5.07729e-07 7.99228e-07 0.103255)
(5.31874e-07 -8.23197e-07 0.103255)
(-5.00073e-07 -7.85387e-07 0.103255)
(-5.04617e-07 7.96885e-07 0.103255)
(-5.31562e-07 -8.2098e-07 0.103255)
(4.51935e-05 -4.52256e-05 0.103146)
(-4.73864e-05 4.7423e-05 0.103151)
(-7.64431e-07 -4.66105e-07 0.103255)
(7.98552e-07 -5.05881e-07 0.103255)
(-7.94297e-07 -5.07054e-07 0.103255)
(4.73939e-05 4.7414e-05 0.103151)
(4.52305e-05 4.52032e-05 0.103146)
(-4.74002e-05 -4.73793e-05 0.103151)
(7.96143e-07 4.92271e-07 0.103255)
(-8.21734e-07 5.25483e-07 0.103255)
(8.58845e-07 5.48665e-07 0.103255)
(-7.87363e-07 5.24047e-07 0.103255)
(-4.52127e-05 4.51916e-05 0.103146)
(4.74769e-05 -4.74322e-05 0.103151)
(4.74726e-07 7.66654e-07 0.103255)
(4.96227e-07 -7.91286e-07 0.103255)
(5.37931e-07 8.16153e-07 0.103255)
(5.58324e-07 -8.44219e-07 0.103255)
(-5.06252e-07 -7.99563e-07 0.103255)
(-4.60934e-07 7.6396e-07 0.103255)
(-5.15209e-07 -8.39772e-07 0.103255)
(4.52073e-05 -4.52399e-05 0.103146)
(-4.7376e-05 4.74128e-05 0.103151)
(-7.65499e-07 -4.70928e-07 0.103255)
(8.22436e-07 -5.32012e-07 0.103255)
(-7.96757e-07 -5.38557e-07 0.103255)
(4.74095e-05 4.74017e-05 0.103151)
(4.53155e-05 4.52797e-05 0.103146)
(-4.73312e-05 -4.72903e-05 0.103151)
(9.18412e-07 6.31585e-07 0.103255)
(-8.4121e-07 6.13475e-07 0.103255)
(8.48022e-07 6.36471e-07 0.103255)
(-9.06187e-07 6.61145e-07 0.103255)
(-4.52104e-05 4.52067e-05 0.103146)
(4.72631e-05 -4.72502e-05 0.103151)
(6.27782e-07 8.74327e-07 0.103255)
(6.44324e-07 -9.02613e-07 0.103255)
(6.03632e-07 8.28571e-07 0.103255)
(6.31929e-07 -8.50352e-07 0.103255)
(-5.9899e-07 -9.09974e-07 0.103255)
(-6.45851e-07 8.64302e-07 0.103255)
(-6.54593e-07 -8.44918e-07 0.103255)
(4.52874e-05 -4.53208e-05 0.103146)
(-4.72962e-05 4.73325e-05 0.103151)
(-8.54487e-07 -6.27247e-07 0.103255)
(8.23179e-07 -6.05958e-07 0.103255)
(-8.34864e-07 -6.02314e-07 0.103255)
(4.72752e-05 4.73246e-05 0.103151)
(4.53025e-05 4.52921e-05 0.103146)
(-4.74375e-05 -4.74027e-05 0.103152)
(8.09722e-07 5.85836e-07 0.103255)
(-8.77434e-07 6.10517e-07 0.103255)
(7.92678e-07 5.27986e-07 0.103255)
(-8.07863e-07 5.34951e-07 0.103255)
(-4.53769e-05 4.53286e-05 0.103146)
(4.74378e-05 -4.74097e-05 0.103152)
(5.55576e-07 7.96985e-07 0.103255)
(5.80731e-07 -8.16537e-07 0.103255)
(4.9903e-07 7.73938e-07 0.103255)
(5.24186e-07 -7.94676e-07 0.103255)
(-6.07861e-07 -8.02843e-07 0.103255)
(-5.02866e-07 7.70052e-07 0.103255)
(-5.29988e-07 -7.87013e-07 0.103255)
(4.52883e-05 -4.53202e-05 0.103146)
(-4.74078e-05 4.74403e-05 0.103152)
(-8.04968e-07 -5.49882e-07 0.103255)
(7.66882e-07 -5.01314e-07 0.103255)
(-7.72944e-07 -4.9965e-07 0.103255)
(4.74057e-05 4.74296e-05 0.103152)
(4.52311e-05 4.5211e-05 0.103146)
(-4.74129e-05 -4.73822e-05 0.103152)
(8.01224e-07 5.27395e-07 0.103255)
(-8.06302e-07 5.34605e-07 0.103255)
(8.17102e-07 5.39874e-07 0.103255)
(-8.19734e-07 5.47223e-07 0.103255)
(-4.52196e-05 4.51954e-05 0.103146)
(4.74191e-05 -4.73871e-05 0.103152)
(5.06131e-07 7.79336e-07 0.103255)
(5.27521e-07 -8.01102e-07 0.103255)
(5.15872e-07 7.90615e-07 0.103255)
(5.40214e-07 -8.14321e-07 0.103255)
(-5.28856e-07 -7.96314e-07 0.103255)
(-5.10528e-07 7.87278e-07 0.103255)
(-5.38374e-07 -8.11926e-07 0.103255)
(4.52094e-05 -4.52451e-05 0.103146)
(-4.73838e-05 4.74185e-05 0.103152)
(-7.76397e-07 -5.03343e-07 0.103255)
(7.88012e-07 -5.16053e-07 0.103255)
(-7.86588e-07 -5.1686e-07 0.103255)
(4.73873e-05 4.74046e-05 0.103152)
(4.52524e-05 4.52308e-05 0.103146)
(-4.7411e-05 -4.73812e-05 0.103152)
(8.1935e-07 5.40634e-07 0.103255)
(-8.2221e-07 5.49217e-07 0.103255)
(8.18278e-07 5.42435e-07 0.103255)
(-8.26312e-07 5.53001e-07 0.103255)
(-4.52416e-05 4.52186e-05 0.103146)
(4.74148e-05 -4.7382e-05 0.103152)
(5.21244e-07 7.92592e-07 0.103255)
(5.42567e-07 -8.16564e-07 0.103255)
(5.2075e-07 7.92561e-07 0.103255)
(5.44666e-07 -8.17677e-07 0.103255)
(-5.40765e-07 -8.14076e-07 0.103255)
(-5.15997e-07 7.93272e-07 0.103255)
(-5.45251e-07 -8.14955e-07 0.103255)
(4.52309e-05 -4.52647e-05 0.103146)
(-4.73819e-05 4.74154e-05 0.103152)
(-7.88541e-07 -5.18422e-07 0.103255)
(7.90424e-07 -5.19414e-07 0.103255)
(-7.88663e-07 -5.22746e-07 0.103255)
(4.73866e-05 4.74013e-05 0.103152)
(4.52513e-05 4.52302e-05 0.103146)
(-4.74035e-05 -4.73867e-05 0.103152)
(8.18229e-07 5.42099e-07 0.103255)
(-8.24191e-07 5.53985e-07 0.103255)
(8.18373e-07 5.44e-07 0.103255)
(-8.248e-07 5.56766e-07 0.103255)
(-4.52438e-05 4.52231e-05 0.103146)
(4.74137e-05 -4.73777e-05 0.103152)
(5.25141e-07 7.92559e-07 0.103255)
(5.45083e-07 -8.1826e-07 0.103255)
(5.26394e-07 7.95018e-07 0.103255)
(5.45803e-07 -8.17591e-07 0.103255)
(-5.47682e-07 -8.15982e-07 0.103255)
(-5.14296e-07 7.90505e-07 0.103255)
(-5.49264e-07 -8.15214e-07 0.103255)
(4.52317e-05 -4.52667e-05 0.103146)
(-4.73818e-05 4.74157e-05 0.103152)
(-7.87205e-07 -5.24428e-07 0.103255)
(7.90399e-07 -5.19888e-07 0.103255)
(-7.85526e-07 -5.24699e-07 0.103255)
(4.73866e-05 4.74018e-05 0.103152)
(4.52585e-05 4.5233e-05 0.103146)
(-4.74141e-05 -4.73863e-05 0.103152)
(8.23584e-07 5.52022e-07 0.103255)
(-8.25465e-07 5.5088e-07 0.103255)
(8.14286e-07 5.37883e-07 0.103255)
(-8.29835e-07 5.62242e-07 0.103255)
(-4.52477e-05 4.52233e-05 0.103146)
(4.7408e-05 -4.73726e-05 0.103152)
(5.3072e-07 7.96803e-07 0.103255)
(5.45978e-07 -8.17548e-07 0.103255)
(5.19055e-07 7.92258e-07 0.103255)
(5.44482e-07 -8.16307e-07 0.103255)
(-5.46398e-07 -8.14464e-07 0.103255)
(-5.17609e-07 8.01122e-07 0.103255)
(-5.43729e-07 -8.1175e-07 0.103255)
(4.52322e-05 -4.52665e-05 0.103146)
(-4.73822e-05 4.74174e-05 0.103152)
(-7.87945e-07 -5.20979e-07 0.103255)
(7.91024e-07 -5.17662e-07 0.103255)
(-7.89504e-07 -5.18076e-07 0.103255)
(4.73838e-05 4.74056e-05 0.103152)
(4.52464e-05 4.52348e-05 0.103146)
(-4.74099e-05 -4.73791e-05 0.103152)
(8.1491e-07 5.45982e-07 0.103255)
(-8.32114e-07 5.63856e-07 0.103255)
(8.17531e-07 5.41271e-07 0.103255)
(-8.22396e-07 5.50022e-07 0.103255)
(-4.52541e-05 4.52366e-05 0.103146)
(4.74115e-05 -4.73828e-05 0.103152)
(5.21062e-07 7.95434e-07 0.103255)
(5.44411e-07 -8.17019e-07 0.103255)
(5.19807e-07 7.96676e-07 0.103255)
(5.44874e-07 -8.17411e-07 0.103255)
(-5.44e-07 -8.11895e-07 0.103255)
(-5.17245e-07 7.95394e-07 0.103255)
(-5.44391e-07 -8.12655e-07 0.103255)
(4.52319e-05 -4.52653e-05 0.103146)
(-4.73815e-05 4.74159e-05 0.103152)
(-7.89987e-07 -5.17408e-07 0.103255)
(7.91092e-07 -5.18411e-07 0.103255)
(-7.90445e-07 -5.19066e-07 0.103255)
(4.73826e-05 4.74039e-05 0.103152)
(4.52488e-05 4.5238e-05 0.103146)
(-4.74093e-05 -4.73798e-05 0.103152)
(8.17663e-07 5.45901e-07 0.103255)
(-8.23188e-07 5.50829e-07 0.103255)
(8.19128e-07 5.40802e-07 0.103255)
(-8.22816e-07 5.49926e-07 0.103255)
(-4.52465e-05 4.522e-05 0.103146)
(4.74125e-05 -4.73843e-05 0.103152)
(5.23139e-07 7.96978e-07 0.103255)
(5.45274e-07 -8.18118e-07 0.103255)
(5.20806e-07 7.9635e-07 0.103255)
(5.45239e-07 -8.1802e-07 0.103255)
(-5.44524e-07 -8.13722e-07 0.103255)
(-5.18586e-07 7.95783e-07 0.103255)
(-5.44308e-07 -8.14117e-07 0.103255)
(4.52314e-05 -4.52655e-05 0.103146)
(-4.73816e-05 4.74161e-05 0.103152)
(-7.91158e-07 -5.18636e-07 0.103255)
(7.91723e-07 -5.19052e-07 0.103255)
(-7.90682e-07 -5.20191e-07 0.103255)
(4.73831e-05 4.74035e-05 0.103152)
(4.52501e-05 4.52381e-05 0.103146)
(-4.74084e-05 -4.73795e-05 0.103152)
(8.18305e-07 5.4542e-07 0.103255)
(-8.22523e-07 5.49458e-07 0.103255)
(8.19369e-07 5.40656e-07 0.103255)
(-8.22359e-07 5.49499e-07 0.103255)
(-4.52465e-05 4.52199e-05 0.103146)
(4.74127e-05 -4.73843e-05 0.103152)
(5.23658e-07 7.9691e-07 0.103255)
(5.45451e-07 -8.18607e-07 0.103255)
(5.2131e-07 7.96623e-07 0.103255)
(5.45749e-07 -8.18292e-07 0.103255)
(-5.44088e-07 -8.14411e-07 0.103255)
(-5.19041e-07 7.9587e-07 0.103255)
(-5.44233e-07 -8.14493e-07 0.103255)
(4.52319e-05 -4.5266e-05 0.103146)
(-4.73811e-05 4.74156e-05 0.103152)
(-7.90948e-07 -5.18815e-07 0.103255)
(7.92111e-07 -5.1951e-07 0.103255)
(-7.90669e-07 -5.20827e-07 0.103255)
(4.73829e-05 4.74029e-05 0.103152)
(4.52508e-05 4.52382e-05 0.103146)
(-4.74067e-05 -4.73783e-05 0.103152)
(8.1897e-07 5.45798e-07 0.103255)
(-8.22566e-07 5.4949e-07 0.103255)
(8.19764e-07 5.41081e-07 0.103255)
(-8.22382e-07 5.49752e-07 0.103255)
(-4.52463e-05 4.52199e-05 0.103146)
(4.7412e-05 -4.73833e-05 0.103152)
(5.24639e-07 7.97559e-07 0.103255)
(5.45822e-07 -8.18876e-07 0.103255)
(5.22008e-07 7.97231e-07 0.103255)
(5.46245e-07 -8.18494e-07 0.103255)
(-5.44214e-07 -8.14955e-07 0.103255)
(-5.19402e-07 7.96247e-07 0.103255)
(-5.44488e-07 -8.14765e-07 0.103255)
(4.52323e-05 -4.52663e-05 0.103146)
(-4.73798e-05 4.74144e-05 0.103152)
(-7.90884e-07 -5.19188e-07 0.103255)
(7.92402e-07 -5.19877e-07 0.103255)
(-7.90842e-07 -5.21282e-07 0.103255)
(4.73818e-05 4.74017e-05 0.103152)
(4.52507e-05 4.52376e-05 0.103146)
(-4.74052e-05 -4.73775e-05 0.103152)
(8.18979e-07 5.45983e-07 0.103255)
(-8.22438e-07 5.495e-07 0.103255)
(8.18832e-07 5.39912e-07 0.103255)
(-8.21625e-07 5.48408e-07 0.103255)
(-4.52453e-05 4.52193e-05 0.103146)
(4.74107e-05 -4.73826e-05 0.103152)
(5.24835e-07 7.97713e-07 0.103255)
(5.46068e-07 -8.18778e-07 0.103255)
(5.21599e-07 7.96581e-07 0.103255)
(5.45768e-07 -8.18072e-07 0.103255)
(-5.44138e-07 -8.14883e-07 0.103255)
(-5.18936e-07 7.95554e-07 0.103255)
(-5.43857e-07 -8.14251e-07 0.103255)
(4.52317e-05 -4.52658e-05 0.103146)
(-4.73785e-05 4.7413e-05 0.103152)
(-7.90974e-07 -5.18927e-07 0.103255)
(7.91884e-07 -5.19333e-07 0.103255)
(-7.90341e-07 -5.20752e-07 0.103255)
(4.73805e-05 4.74004e-05 0.103152)
(4.52478e-05 4.52339e-05 0.103146)
(-4.73985e-05 -4.73723e-05 0.103152)
(8.17855e-07 5.4457e-07 0.103255)
(-8.21992e-07 5.48362e-07 0.103255)
(8.17551e-07 5.38162e-07 0.103255)
(-8.21631e-07 5.47455e-07 0.103255)
(-4.52423e-05 4.52157e-05 0.103146)
(4.7404e-05 -4.73759e-05 0.103152)
(5.24506e-07 7.96923e-07 0.103255)
(5.45653e-07 -8.18532e-07 0.103255)
(5.21106e-07 7.95698e-07 0.103255)
(5.44669e-07 -8.1756e-07 0.103255)
(-5.43706e-07 -8.14567e-07 0.103255)
(-5.185e-07 7.95137e-07 0.103255)
(-5.43456e-07 -8.13945e-07 0.103255)
(4.52289e-05 -4.52629e-05 0.103146)
(-4.73721e-05 4.74066e-05 0.103152)
(-7.90712e-07 -5.18567e-07 0.103255)
(7.91365e-07 -5.18626e-07 0.103255)
(-7.9048e-07 -5.19978e-07 0.103255)
(4.7374e-05 4.73942e-05 0.103152)
(4.52394e-05 4.52239e-05 0.103146)
(8.17163e-07 5.43497e-07 0.103255)
(-8.22253e-07 5.48072e-07 0.103255)
(-4.52338e-05 4.52072e-05 0.103146)
(5.24925e-07 7.96684e-07 0.103255)
(5.45384e-07 -8.18423e-07 0.103255)
(-5.438e-07 -8.14448e-07 0.103255)
(4.52201e-05 -4.52541e-05 0.103146)
(-7.91135e-07 -5.18594e-07 0.103255)
(-7.7889e-07 -7.69586e-07 0.103334)
(7.74449e-07 -7.742e-07 0.103334)
(-7.70232e-07 7.75056e-07 0.103334)
(7.68882e-07 7.72615e-07 0.103334)
(7.31187e-08 -9.82003e-06 0.100365)
(6.51959e-07 6.94874e-06 0.0922577)
(-9.64816e-08 9.47842e-06 0.100348)
(-1.11994e-06 -6.72023e-06 0.0922819)
(-2.04775e-06 3.00948e-06 0.0797838)
(2.00688e-06 -2.94141e-06 0.0798067)
(-9.8864e-06 6.54994e-08 0.100365)
(7.0008e-06 6.42427e-07 0.092258)
(9.55248e-06 -7.60038e-08 0.100349)
(-6.77368e-06 -1.11671e-06 0.0922817)
(7.73862e-07 -7.7578e-07 0.103334)
(-7.70505e-07 7.75376e-07 0.103334)
(7.69087e-07 7.73017e-07 0.103334)
(-7.85401e-07 -7.74944e-07 0.103334)
(7.77527e-07 -7.78319e-07 0.103334)
(-7.75764e-07 7.80997e-07 0.103334)
(7.74654e-07 7.79064e-07 0.103334)
(1.60262e-05 1.11984e-07 0.102639)
(-1.55887e-05 4.40438e-06 0.100786)
(-6.65748e-07 -1.97852e-07 0.103309)
(-5.18098e-07 7.9449e-07 0.103255)
(-1.61628e-05 -1.19133e-07 0.102631)
(1.48874e-05 -4.85304e-06 0.100812)
(-6.60954e-07 -1.97572e-07 0.103309)
(2.8721e-06 -1.96086e-06 0.0797803)
(-2.81612e-06 1.93421e-06 0.0798073)
(1.17033e-07 1.60362e-05 0.102639)
(-2.01986e-07 -6.62861e-07 0.103309)
(4.44613e-06 -1.56438e-05 0.100787)
(7.91891e-07 -5.18263e-07 0.103255)
(-1.24183e-07 -1.61791e-05 0.102631)
(-2.02453e-07 -6.54183e-07 0.103309)
(-4.90115e-06 1.49439e-05 0.100811)
(-4.67726e-06 -5.73953e-06 0.0976309)
(-5.72582e-06 -4.67813e-06 0.0976301)
(4.73629e-05 4.73835e-05 0.103152)
(4.33274e-06 5.57467e-06 0.0976558)
(5.57226e-06 4.32677e-06 0.0976546)
(8.09079e-08 -9.8367e-06 0.100365)
(6.67364e-07 6.91283e-06 0.0922579)
(-9.10722e-08 9.46485e-06 0.100348)
(-1.14425e-06 -6.75733e-06 0.0922821)
(-2.03735e-06 2.97502e-06 0.0797838)
(2.0062e-06 -2.95411e-06 0.0798067)
(-9.90517e-06 6.87474e-08 0.100365)
(6.96964e-06 6.68002e-07 0.0922581)
(9.53952e-06 -6.98984e-08 0.100349)
(-6.81125e-06 -1.1231e-06 0.0922819)
(7.78759e-07 -7.79725e-07 0.103334)
(-7.75557e-07 7.81112e-07 0.103334)
(7.75279e-07 7.79094e-07 0.103334)
(-7.92477e-07 -7.81975e-07 0.103334)
(7.83085e-07 -7.84121e-07 0.103334)
(-7.83249e-07 7.87737e-07 0.103334)
(7.80503e-07 7.85857e-07 0.103334)
(1.60498e-05 1.08575e-07 0.102639)
(-1.55694e-05 4.38239e-06 0.100786)
(-6.52214e-07 -1.98727e-07 0.103309)
(-5.1017e-07 7.92479e-07 0.103255)
(-1.61397e-05 -1.19363e-07 0.102631)
(1.49082e-05 -4.87112e-06 0.100812)
(-6.4867e-07 -1.99675e-07 0.103309)
(2.84811e-06 -1.96147e-06 0.0797804)
(-2.83288e-06 1.95428e-06 0.0798075)
(1.15037e-07 1.60592e-05 0.102639)
(-2.04322e-07 -6.49262e-07 0.103309)
(4.42397e-06 -1.56271e-05 0.100787)
(7.88608e-07 -5.12252e-07 0.103255)
(-1.23907e-07 -1.61537e-05 0.102631)
(-2.0498e-07 -6.45161e-07 0.103309)
(-4.92882e-06 1.49667e-05 0.100811)
(-4.69733e-06 -5.73274e-06 0.097631)
(-5.71762e-06 -4.68468e-06 0.0976302)
(4.73683e-05 4.73898e-05 0.103152)
(4.33006e-06 5.58216e-06 0.0976559)
(5.57932e-06 4.3289e-06 0.0976547)
(7.0773e-08 -9.86513e-06 0.100365)
(6.51731e-07 6.89732e-06 0.0922582)
(-9.78382e-08 9.45091e-06 0.100348)
(-1.12737e-06 -6.79244e-06 0.0922825)
(-2.02567e-06 2.95304e-06 0.079784)
(2.01602e-06 -2.97965e-06 0.0798072)
(-9.93483e-06 7.05099e-08 0.100365)
(6.95159e-06 6.39057e-07 0.0922585)
(9.52127e-06 -7.47339e-08 0.100349)
(-6.83955e-06 -1.12176e-06 0.0922823)
(7.85699e-07 -7.87583e-07 0.103334)
(-7.83989e-07 7.87504e-07 0.103333)
(7.80155e-07 7.85807e-07 0.103334)
(-8.02165e-07 -7.90165e-07 0.103333)
(7.85678e-07 -7.92027e-07 0.103333)
(-7.9231e-07 7.96408e-07 0.103333)
(7.84973e-07 7.96189e-07 0.103333)
(1.60744e-05 1.07119e-07 0.102639)
(-1.55456e-05 4.35826e-06 0.100786)
(-6.33075e-07 -2.0337e-07 0.103309)
(-4.96097e-07 7.80473e-07 0.103255)
(-1.61165e-05 -1.19898e-07 0.102631)
(1.49364e-05 -4.8987e-06 0.100812)
(-6.32116e-07 -2.04047e-07 0.103309)
(2.82986e-06 -1.93188e-06 0.0797808)
(-2.86404e-06 1.95264e-06 0.079808)
(1.12941e-07 1.60927e-05 0.102639)
(-2.07969e-07 -6.2851e-07 0.103309)
(4.39443e-06 -1.56017e-05 0.100786)
(7.82578e-07 -5.03143e-07 0.103255)
(-1.25737e-07 -1.61365e-05 0.102631)
(-2.08472e-07 -6.3018e-07 0.103309)
(-4.94391e-06 1.49932e-05 0.100811)
(-4.68001e-06 -5.72607e-06 0.097631)
(-5.71481e-06 -4.67562e-06 0.0976303)
(4.73798e-05 4.74051e-05 0.103151)
(4.34221e-06 5.58744e-06 0.0976559)
(5.57439e-06 4.33592e-06 0.0976548)
(7.69431e-08 -9.8991e-06 0.100365)
(6.64421e-07 6.87771e-06 0.0922586)
(-9.51002e-08 9.4066e-06 0.100348)
(-1.16296e-06 -6.79701e-06 0.0922829)
(-2.01664e-06 2.92614e-06 0.0797849)
(2.03139e-06 -2.99232e-06 0.0798081)
(-9.96601e-06 6.72846e-08 0.100365)
(6.92822e-06 6.57808e-07 0.0922589)
(9.48048e-06 -7.58588e-08 0.100349)
(-6.84765e-06 -1.15533e-06 0.0922827)
(7.92712e-07 -7.9782e-07 0.103333)
(-7.9498e-07 7.99994e-07 0.103333)
(7.90918e-07 7.99884e-07 0.103333)
(-7.96957e-07 -7.89686e-07 0.103333)
(7.94391e-07 -7.94215e-07 0.103333)
(-7.88492e-07 7.94446e-07 0.103333)
(7.88723e-07 7.91481e-07 0.103333)
(1.61127e-05 1.05352e-07 0.102639)
(-1.55236e-05 4.35216e-06 0.100786)
(-6.1624e-07 -2.05264e-07 0.103309)
(-4.67179e-07 7.63372e-07 0.103255)
(-1.60952e-05 -1.20575e-07 0.102631)
(1.49633e-05 -4.90927e-06 0.100812)
(-6.01527e-07 -2.078e-07 0.103309)
(2.81456e-06 -1.96681e-06 0.0797816)
(-2.87541e-06 2.01159e-06 0.079809)
(1.1214e-07 1.6111e-05 0.102639)
(-2.10319e-07 -5.97203e-07 0.103309)
(4.39094e-06 -1.5575e-05 0.100786)
(7.67618e-07 -4.78073e-07 0.103255)
(-1.26524e-07 -1.60906e-05 0.102631)
(-2.12149e-07 -6.03176e-07 0.103309)
(-4.96603e-06 1.5026e-05 0.100811)
(-4.67178e-06 -5.72333e-06 0.0976311)
(-5.71599e-06 -4.66561e-06 0.0976303)
(4.74086e-05 4.74277e-05 0.103151)
(4.35981e-06 5.60425e-06 0.097656)
(5.59662e-06 4.34924e-06 0.0976548)
(6.89902e-08 -9.88021e-06 0.100365)
(6.63087e-07 6.86655e-06 0.0922592)
(-8.94383e-08 9.35745e-06 0.100348)
(-1.17863e-06 -6.80263e-06 0.0922835)
(-2.04162e-06 2.96018e-06 0.079786)
(2.10657e-06 -2.99673e-06 0.0798092)
(-9.94562e-06 4.78395e-08 0.100364)
(6.92141e-06 6.48619e-07 0.0922594)
(9.43117e-06 -7.8717e-08 0.100349)
(-6.84957e-06 -1.18222e-06 0.0922833)
(7.93939e-07 -7.95992e-07 0.103333)
(-7.96075e-07 8.02259e-07 0.103333)
(7.94913e-07 8.00404e-07 0.103333)
(-7.62259e-07 -7.71871e-07 0.103333)
(8.14217e-07 -7.98497e-07 0.103333)
(-7.60472e-07 7.6935e-07 0.103333)
(7.88355e-07 7.59735e-07 0.103333)
(1.61019e-05 9.26553e-08 0.102639)
(-1.55096e-05 4.33021e-06 0.100786)
(-6.34542e-07 -2.05356e-07 0.103309)
(-4.55699e-07 7.56796e-07 0.103255)
(-1.60544e-05 -1.26694e-07 0.102631)
(1.49906e-05 -4.93443e-06 0.100812)
(-5.95678e-07 -2.11251e-07 0.103309)
(2.82946e-06 -1.95103e-06 0.0797826)
(-2.88221e-06 2.06815e-06 0.0798103)
(1.14263e-07 1.61054e-05 0.102638)
(-2.08393e-07 -6.09497e-07 0.103309)
(4.37443e-06 -1.55504e-05 0.100786)
(7.3483e-07 -4.34788e-07 0.103255)
(-1.27198e-07 -1.60645e-05 0.102631)
(-2.14346e-07 -5.73234e-07 0.103308)
(-4.98794e-06 1.50471e-05 0.100811)
(-4.63638e-06 -5.70409e-06 0.0976312)
(-5.68748e-06 -4.64722e-06 0.0976304)
(4.74441e-05 4.74537e-05 0.103151)
(4.37626e-06 5.61778e-06 0.0976561)
(5.62817e-06 4.38326e-06 0.0976549)
(9.27092e-08 -9.61756e-06 0.100365)
(7.0992e-07 6.95573e-06 0.0922598)
(-2.94183e-08 9.41653e-06 0.100348)
(-1.06584e-06 -6.48716e-06 0.0922838)
(-2.05669e-06 3.04788e-06 0.0797875)
(1.94939e-06 -2.80211e-06 0.0798098)
(-9.68275e-06 6.47484e-08 0.100364)
(7.01507e-06 6.91514e-07 0.09226)
(9.4972e-06 -3.98342e-08 0.100349)
(-6.53034e-06 -1.05712e-06 0.0922836)
(7.77847e-07 -7.58045e-07 0.103333)
(-7.11496e-07 7.19854e-07 0.103333)
(7.44061e-07 7.10944e-07 0.103333)
(-7.17061e-07 -6.99422e-07 0.103334)
(6.77658e-07 -6.88188e-07 0.103334)
(-7.04711e-07 7.08027e-07 0.103334)
(6.88602e-07 7.088e-07 0.103334)
(1.58216e-05 1.01673e-07 0.102639)
(-1.5549e-05 4.32568e-06 0.100786)
(-6.86909e-07 -2.09032e-07 0.103308)
(-6.23969e-07 8.74966e-07 0.103255)
(-1.60892e-05 -1.31439e-07 0.102631)
(1.47667e-05 -4.82929e-06 0.100812)
(-7.87918e-07 -1.89201e-07 0.103308)
(2.93189e-06 -2.13039e-06 0.0797836)
(-2.68611e-06 1.89006e-06 0.0798096)
(1.35752e-07 1.57207e-05 0.102638)
(-1.74993e-07 -7.58585e-07 0.103308)
(4.44922e-06 -1.567e-05 0.100786)
(8.92472e-07 -6.62275e-07 0.103255)
(-1.075e-07 -1.61749e-05 0.102631)
(-1.66067e-07 -8.29691e-07 0.103308)
(-4.79929e-06 1.47357e-05 0.100811)
(-4.63635e-06 -5.85087e-06 0.0976315)
(-5.7713e-06 -4.72128e-06 0.0976307)
(4.72416e-05 4.72276e-05 0.103151)
(4.17782e-06 5.46583e-06 0.0976563)
(5.492e-06 4.14991e-06 0.097655)
(3.49355e-08 -9.68336e-06 0.100365)
(6.81593e-07 7.27542e-06 0.0922587)
(-1.50458e-07 9.74528e-06 0.100348)
(-1.12233e-06 -6.55709e-06 0.0922821)
(-2.06821e-06 3.04758e-06 0.0797849)
(2.00532e-06 -2.90821e-06 0.0798072)
(-9.75735e-06 4.93454e-08 0.100364)
(7.3095e-06 6.91095e-07 0.0922589)
(9.81368e-06 -1.14773e-07 0.100349)
(-6.61459e-06 -1.10822e-06 0.0922819)
(7.00939e-07 -7.17167e-07 0.103334)
(-7.42621e-07 7.45461e-07 0.103334)
(7.19036e-07 7.47231e-07 0.103334)
(-8.00293e-07 -7.84321e-07 0.103334)
(7.81862e-07 -7.87437e-07 0.103334)
(-7.90186e-07 7.92727e-07 0.103334)
(7.79971e-07 7.92857e-07 0.103334)
(1.58737e-05 1.32691e-07 0.102639)
(-1.58554e-05 4.59456e-06 0.100786)
(-7.74193e-07 -1.65195e-07 0.103309)
(-5.51906e-07 7.96785e-07 0.103255)
(-1.64986e-05 -9.59866e-08 0.102631)
(1.47161e-05 -4.69724e-06 0.100812)
(-7.16868e-07 -1.78132e-07 0.103309)
(2.93834e-06 -1.90984e-06 0.079781)
(-2.77889e-06 1.97325e-06 0.0798076)
(1.07958e-07 1.59397e-05 0.102639)
(-1.96703e-07 -7.22812e-07 0.103309)
(4.5958e-06 -1.58682e-05 0.100786)
(7.68918e-07 -5.20402e-07 0.103255)
(-1.21173e-07 -1.64429e-05 0.102631)
(-2.07179e-07 -6.78741e-07 0.103309)
(-4.81308e-06 1.4833e-05 0.100811)
(-4.85325e-06 -5.68766e-06 0.0976308)
(-5.73785e-06 -4.78809e-06 0.09763)
(4.73808e-05 4.74308e-05 0.103152)
(4.26332e-06 5.61421e-06 0.0976555)
(5.57196e-06 4.28162e-06 0.0976544)
(7.3838e-08 -9.80813e-06 0.100365)
(6.79016e-07 6.99643e-06 0.0922578)
(-1.04223e-07 9.50023e-06 0.100348)
(-1.12873e-06 -6.71849e-06 0.0922816)
(-2.02258e-06 3.00078e-06 0.0797839)
(2.02161e-06 -2.93431e-06 0.0798068)
(-9.87731e-06 6.53861e-08 0.100365)
(7.03791e-06 6.71261e-07 0.0922581)
(9.5724e-06 -7.82076e-08 0.100349)
(-6.75582e-06 -1.12217e-06 0.0922815)
(7.86991e-07 -7.90347e-07 0.103334)
(-7.87376e-07 7.90639e-07 0.103334)
(7.81417e-07 7.89368e-07 0.103334)
(-7.83673e-07 -7.75037e-07 0.103334)
(7.81324e-07 -7.81416e-07 0.103334)
(-7.75667e-07 7.79893e-07 0.103334)
(7.75249e-07 7.77093e-07 0.103334)
(1.60239e-05 1.03791e-07 0.102639)
(-1.56149e-05 4.41267e-06 0.100786)
(-6.5327e-07 -2.03414e-07 0.103309)
(-5.01809e-07 7.77074e-07 0.103255)
(-1.61775e-05 -1.19074e-07 0.102631)
(1.4883e-05 -4.86411e-06 0.100812)
(-6.50082e-07 -2.04532e-07 0.103309)
(2.87452e-06 -1.94838e-06 0.0797804)
(-2.81209e-06 1.94952e-06 0.0798074)
(1.13623e-07 1.60329e-05 0.102639)
(-2.09043e-07 -6.45732e-07 0.103309)
(4.43927e-06 -1.56595e-05 0.100786)
(7.7983e-07 -5.0855e-07 0.103255)
(-1.28766e-07 -1.61818e-05 0.102631)
(-2.06888e-07 -6.48926e-07 0.103309)
(-4.90857e-06 1.49419e-05 0.100811)
(-4.68837e-06 -5.73571e-06 0.0976307)
(-5.72237e-06 -4.69114e-06 0.0976299)
(4.73948e-05 4.74116e-05 0.103152)
(4.32959e-06 5.57223e-06 0.0976557)
(5.57224e-06 4.31533e-06 0.0976545)
(7.27994e-08 -9.80795e-06 0.100365)
(6.74735e-07 6.99087e-06 0.0922579)
(-9.63974e-08 9.48772e-06 0.100348)
(-1.13911e-06 -6.73449e-06 0.0922814)
(-2.02981e-06 2.9891e-06 0.0797838)
(2.01586e-06 -2.94041e-06 0.0798068)
(-9.87749e-06 6.42189e-08 0.100365)
(7.02228e-06 6.66736e-07 0.0922581)
(9.56248e-06 -7.92714e-08 0.100349)
(-6.75716e-06 -1.12911e-06 0.0922813)
(7.78679e-07 -7.79136e-07 0.103334)
(-7.73404e-07 7.78037e-07 0.103334)
(7.72871e-07 7.75176e-07 0.103334)
(-7.80412e-07 -7.71808e-07 0.103334)
(7.75969e-07 -7.74952e-07 0.103334)
(-7.70798e-07 7.75475e-07 0.103334)
(7.70268e-07 7.72019e-07 0.103334)
(1.60144e-05 1.06724e-07 0.102639)
(-1.55939e-05 4.39154e-06 0.100786)
(-6.5966e-07 -2.00699e-07 0.103309)
(-5.14876e-07 7.91934e-07 0.103255)
(-1.61753e-05 -1.22029e-07 0.102631)
(1.48821e-05 -4.85959e-06 0.100812)
(-6.58385e-07 -2.00205e-07 0.103309)
(2.86544e-06 -1.95315e-06 0.0797804)
(-2.81544e-06 1.94808e-06 0.0798073)
(1.16076e-07 1.6023e-05 0.102639)
(-2.02389e-07 -6.55946e-07 0.103309)
(4.43324e-06 -1.56552e-05 0.100787)
(7.90626e-07 -5.18551e-07 0.103255)
(-1.23227e-07 -1.61902e-05 0.102631)
(-2.01931e-07 -6.57855e-07 0.103309)
(-4.90409e-06 1.49398e-05 0.100811)
(-4.69685e-06 -5.73711e-06 0.0976308)
(-5.72177e-06 -4.69489e-06 0.09763)
(4.73843e-05 4.74021e-05 0.103152)
(4.32126e-06 5.57511e-06 0.0976557)
(5.57281e-06 4.31276e-06 0.0976545)
(5.9178e-08 -9.80755e-06 0.100365)
(6.73942e-07 7.01295e-06 0.0922582)
(-1.04247e-07 9.48775e-06 0.100348)
(-1.20935e-06 -6.78585e-06 0.0922811)
(-2.03231e-06 2.99267e-06 0.0797838)
(2.00206e-06 -2.8721e-06 0.0798066)
(-9.87704e-06 6.43908e-08 0.100365)
(7.0234e-06 6.67699e-07 0.0922583)
(9.56374e-06 -8.01218e-08 0.100349)
(-6.75489e-06 -1.12946e-06 0.0922811)
(7.75598e-07 -7.7279e-07 0.103334)
(-7.70107e-07 7.75317e-07 0.103334)
(7.67672e-07 7.69601e-07 0.103334)