/*--------------------------------*- C++ -*----------------------------------*\
| =========                 |                                                 |
| \\      /  F ield         | OpenFOAM: The Open Source CFD Toolbox           |
|  \\    /   O peration     | Version:  2206                                  |
|   \\  /    A nd           | Website:  www.openfoam.com                      |
|    \\/     M anipulation  |                                                 |
\*---------------------------------------------------------------------------*/
FoamFile
{
    version     2.0;
    format      ascii;
    arch        "LSB;label=32;scalar=64";
    class       volScalarField;
    location    "25.5";
    object      k;
}
// * * * * * * * * * * * * * * * * * * * * * * * * * * * * * * * * * * * * * //

dimensions      [0 2 -2 0 0 0 0];

internalField   nonuniform List<scalar> 
28688
(
3.58928e-05
3.58913e-05
3.58913e-05
3.59957e-05
3.39291e-05
3.38893e-05
3.38893e-05
3.39626e-05
3.2167e-05
3.20147e-05
3.20147e-05
3.19544e-05
3.05312e-05
3.02217e-05
3.02216e-05
2.9987e-05
2.90154e-05
2.85518e-05
2.85517e-05
2.81479e-05
2.76128e-05
2.69782e-05
2.6978e-05
2.63712e-05
2.72109e-05
2.66901e-05
2.669e-05
2.60776e-05
2.71781e-05
2.67102e-05
2.67101e-05
2.61782e-05
2.71779e-05
2.67145e-05
2.67144e-05
2.61885e-05
2.7178e-05
2.67151e-05
2.6715e-05
2.61895e-05
2.71781e-05
2.67153e-05
2.67152e-05
2.61896e-05
2.71781e-05
2.67155e-05
2.67154e-05
2.61897e-05
3.63068e-05
3.6291e-05
3.6291e-05
3.63068e-05
3.6291e-05
3.6291e-05
3.64235e-05
3.64235e-05
3.64235e-05
3.64235e-05
3.6291e-05
3.6291e-05
3.63068e-05
3.6291e-05
3.6291e-05
3.63068e-05
3.59957e-05
3.42687e-05
3.58913e-05
3.58913e-05
3.43783e-05
3.43783e-05
3.59957e-05
3.42687e-05
3.58912e-05
3.58913e-05
3.43783e-05
3.43783e-05
3.58913e-05
3.43784e-05
3.43783e-05
3.59957e-05
3.42686e-05
3.58913e-05
3.43784e-05
3.43783e-05
3.42686e-05
3.39626e-05
3.22628e-05
3.38893e-05
3.38892e-05
3.24708e-05
3.24707e-05
3.39626e-05
3.22629e-05
3.38893e-05
3.38892e-05
3.24708e-05
3.24706e-05
3.38892e-05
3.24709e-05
3.24707e-05
3.39626e-05
3.22628e-05
3.38893e-05
3.24709e-05
3.24708e-05
3.22628e-05
3.19544e-05
3.02891e-05
3.20145e-05
3.20144e-05
3.06502e-05
3.065e-05
3.19544e-05
3.02892e-05
3.20146e-05
3.20144e-05
3.06503e-05
3.065e-05
3.20145e-05
3.06505e-05
3.06501e-05
3.19544e-05
3.0289e-05
3.20146e-05
3.06504e-05
3.06503e-05
3.0289e-05
2.99871e-05
2.84332e-05
3.02214e-05
3.02212e-05
2.89967e-05
2.89965e-05
2.99871e-05
2.84334e-05
3.02215e-05
3.02212e-05
2.89969e-05
2.89964e-05
3.02214e-05
2.89971e-05
2.89966e-05
2.9987e-05
2.84331e-05
3.02215e-05
2.8997e-05
2.89969e-05
2.84331e-05
2.8148e-05
2.65686e-05
2.85514e-05
2.85512e-05
2.72559e-05
2.72556e-05
2.8148e-05
2.65688e-05
2.85516e-05
2.85511e-05
2.72561e-05
2.72554e-05
2.85514e-05
2.72564e-05
2.72558e-05
2.81479e-05
2.65685e-05
2.85516e-05
2.72562e-05
2.72561e-05
2.65685e-05
2.63714e-05
2.60702e-05
2.69777e-05
2.69774e-05
2.66929e-05
2.66927e-05
2.63715e-05
2.60703e-05
2.69779e-05
2.69773e-05
2.66931e-05
2.66926e-05
2.69776e-05
2.66933e-05
2.66928e-05
2.63713e-05
2.607e-05
2.69779e-05
2.66932e-05
2.66931e-05
2.60701e-05
2.60779e-05
2.61797e-05
2.66898e-05
2.66896e-05
2.67062e-05
2.67061e-05
2.6078e-05
2.61797e-05
2.669e-05
2.66895e-05
2.67065e-05
2.67059e-05
2.66897e-05
2.67066e-05
2.67062e-05
2.60777e-05
2.61794e-05
2.669e-05
2.67065e-05
2.67065e-05
2.61797e-05
2.61784e-05
2.61916e-05
2.671e-05
2.671e-05
2.67139e-05
2.67138e-05
2.61784e-05
2.61916e-05
2.67103e-05
2.67097e-05
2.67142e-05
2.67136e-05
2.671e-05
2.67142e-05
2.67139e-05
2.61781e-05
2.61914e-05
2.67104e-05
2.67141e-05
2.67142e-05
2.61917e-05
2.61886e-05
2.6193e-05
2.67143e-05
2.67142e-05
2.67147e-05
2.67146e-05
2.61886e-05
2.61929e-05
2.67146e-05
2.6714e-05
2.6715e-05
2.67144e-05
2.67143e-05
2.67151e-05
2.67147e-05
2.61883e-05
2.61927e-05
2.67146e-05
2.6715e-05
2.6715e-05
2.6193e-05
2.61897e-05
2.61931e-05
2.67149e-05
2.67148e-05
2.6715e-05
2.67149e-05
2.61896e-05
2.6193e-05
2.67152e-05
2.67146e-05
2.67153e-05
2.67147e-05
2.67149e-05
2.67153e-05
2.67151e-05
2.61894e-05
2.61928e-05
2.67152e-05
2.67152e-05
2.67154e-05
2.61932e-05
2.61898e-05
2.61932e-05
2.67152e-05
2.67151e-05
2.67152e-05
2.67151e-05
2.61897e-05
2.61931e-05
2.67155e-05
2.67149e-05
2.67155e-05
2.67149e-05
2.67152e-05
2.67155e-05
2.67152e-05
2.61895e-05
2.61929e-05
2.67156e-05
2.67154e-05
2.67155e-05
2.61932e-05
2.61898e-05
2.61934e-05
2.67153e-05
2.67153e-05
2.67153e-05
2.61898e-05
2.67156e-05
2.6715e-05
2.67156e-05
2.6715e-05
2.67154e-05
2.67154e-05
2.61896e-05
2.61931e-05
2.67157e-05
2.67156e-05
2.67157e-05
2.61934e-05
3.73774e-05
3.73765e-05
3.73771e-05
3.73771e-05
3.73701e-05
3.73777e-05
3.73043e-05
3.73768e-05
3.73701e-05
3.73777e-05
3.73768e-05
3.73043e-05
3.73741e-05
3.72959e-05
3.72959e-05
3.58819e-05
4.08826e-05
3.6603e-05
4.51325e-05
5.51151e-05
6.4874e-05
3.5882e-05
4.08818e-05
3.66033e-05
4.51321e-05
3.58928e-05
3.58928e-05
3.58928e-05
3.44033e-05
3.44033e-05
3.44033e-05
3.44033e-05
3.52763e-05
3.56318e-05
3.58926e-05
3.53764e-05
3.60477e-05
3.42455e-05
3.53812e-05
5.51171e-05
6.48773e-05
3.52763e-05
3.58926e-05
3.56316e-05
3.53764e-05
3.60476e-05
3.53812e-05
3.42464e-05
3.65889e-05
3.65893e-05
3.52788e-05
3.40717e-05
3.4071e-05
3.39719e-05
5.13629e-05
3.46746e-05
5.46066e-05
7.65683e-05
8.08414e-05
3.39737e-05
5.13639e-05
3.46747e-05
5.46069e-05
3.39291e-05
3.39291e-05
3.39291e-05
3.25911e-05
3.25911e-05
3.25911e-05
3.25911e-05
3.30546e-05
3.24595e-05
3.39292e-05
3.34059e-05
3.38954e-05
3.15867e-05
3.34641e-05
7.65705e-05
8.08447e-05
3.30546e-05
3.39292e-05
3.24583e-05
3.34059e-05
3.38951e-05
3.3464e-05
3.15889e-05
3.16979e-05
3.16972e-05
3.32624e-05
3.09251e-05
3.09236e-05
3.22787e-05
5.91775e-05
3.29015e-05
6.14336e-05
8.4397e-05
8.50577e-05
3.2282e-05
5.91795e-05
3.28996e-05
6.14354e-05
3.21671e-05
3.21671e-05
3.21671e-05
3.09106e-05
3.09106e-05
3.09106e-05
3.09106e-05
3.07994e-05
3.04962e-05
3.21448e-05
3.15572e-05
3.16302e-05
2.99112e-05
3.17118e-05
8.43998e-05
8.506e-05
3.07994e-05
3.21448e-05
3.04948e-05
3.15571e-05
3.16297e-05
3.17117e-05
2.99129e-05
3.02025e-05
3.02014e-05
3.12735e-05
3.00276e-05
3.00263e-05
3.07443e-05
6.43762e-05
3.13567e-05
6.56997e-05
8.46446e-05
8.387e-05
3.07457e-05
6.43784e-05
3.13548e-05
6.57025e-05
3.05312e-05
3.05312e-05
3.05312e-05
2.94258e-05
2.94257e-05
2.94257e-05
2.94257e-05
2.85956e-05
2.91447e-05
3.04646e-05
2.98132e-05
2.94181e-05
2.86697e-05
3.00849e-05
8.46459e-05
8.38714e-05
2.85953e-05
3.04645e-05
2.91461e-05
2.98131e-05
2.94177e-05
3.00849e-05
2.86709e-05
2.99435e-05
2.99424e-05
2.93476e-05
3.00353e-05
3.00343e-05
2.9622e-05
6.73547e-05
2.99624e-05
6.80095e-05
8.22414e-05
8.11439e-05
2.96226e-05
6.73575e-05
2.99608e-05
6.80129e-05
2.90155e-05
2.90154e-05
2.90155e-05
2.78715e-05
2.78714e-05
2.78714e-05
2.78714e-05
2.65803e-05
2.8159e-05
2.88948e-05
2.80851e-05
2.73276e-05
2.77444e-05
2.84597e-05
8.22419e-05
8.11444e-05
2.65799e-05
2.88947e-05
2.81602e-05
2.8085e-05
2.73272e-05
2.84596e-05
2.77436e-05
3.04451e-05
3.04444e-05
2.74879e-05
3.07228e-05
3.07223e-05
2.8483e-05
6.85713e-05
2.85399e-05
6.90367e-05
8.04109e-05
8.0448e-05
2.8483e-05
6.85744e-05
2.85397e-05
6.90395e-05
2.76128e-05
2.76128e-05
2.76128e-05
2.72482e-05
2.72482e-05
2.72481e-05
2.72481e-05
2.50976e-05
2.71468e-05
2.74058e-05
2.6806e-05
2.53254e-05
2.72097e-05
2.72174e-05
8.04107e-05
8.04468e-05
2.50974e-05
2.74057e-05
2.71474e-05
2.68059e-05
2.53251e-05
2.72173e-05
2.72109e-05
3.11499e-05
3.11496e-05
2.61096e-05
3.21002e-05
3.21004e-05
2.88142e-05
6.9566e-05
2.87292e-05
6.96434e-05
8.06471e-05
8.06749e-05
2.88144e-05
6.95692e-05
2.8729e-05
6.96461e-05
2.7211e-05
2.72109e-05
2.7211e-05
2.71795e-05
2.71795e-05
2.71795e-05
2.71795e-05
2.52477e-05
2.81176e-05
2.70089e-05
2.66925e-05
2.51727e-05
2.83293e-05
2.69955e-05
8.06449e-05
8.06712e-05
2.52478e-05
2.70088e-05
2.81164e-05
2.66924e-05
2.51727e-05
2.69954e-05
2.8329e-05
3.34598e-05
3.34607e-05
2.6147e-05
3.37271e-05
3.37286e-05
2.8862e-05
6.96682e-05
2.88613e-05
6.9667e-05
8.06853e-05
8.06854e-05
2.88629e-05
6.96713e-05
2.88621e-05
6.96699e-05
2.71783e-05
2.71782e-05
2.71782e-05
2.71779e-05
2.71779e-05
2.71778e-05
2.71779e-05
2.5293e-05
2.84426e-05
2.69887e-05
2.67126e-05
2.52885e-05
2.84439e-05
2.69889e-05
8.0682e-05
8.06816e-05
2.52933e-05
2.69886e-05
2.84429e-05
2.67125e-05
2.52887e-05
2.69889e-05
2.84442e-05
3.38418e-05
3.38432e-05
2.61891e-05
3.38433e-05
3.38447e-05
2.88648e-05
6.9669e-05
2.88664e-05
6.9667e-05
8.0686e-05
8.06856e-05
2.88659e-05
6.9672e-05
2.88672e-05
6.96698e-05
2.71781e-05
2.7178e-05
2.7178e-05
2.7178e-05
2.71781e-05
2.7178e-05
2.71781e-05
2.52965e-05
2.8451e-05
2.69892e-05
2.67149e-05
2.52959e-05
2.84479e-05
2.69894e-05
8.06825e-05
8.06817e-05
2.52967e-05
2.69892e-05
2.84511e-05
2.67148e-05
2.52961e-05
2.69894e-05
2.84483e-05
3.38464e-05
3.38478e-05
2.61927e-05
3.38449e-05
3.38463e-05
2.88654e-05
6.96685e-05
2.88675e-05
6.96658e-05
8.06861e-05
8.06856e-05
2.88665e-05
6.96715e-05
2.88683e-05
6.96691e-05
2.71782e-05
2.71782e-05
2.71782e-05
2.71781e-05
2.71782e-05
2.71781e-05
2.71781e-05
2.52977e-05
2.84523e-05
2.69895e-05
2.67153e-05
2.52975e-05
2.84486e-05
2.69896e-05
8.06825e-05
8.06817e-05
2.5298e-05
2.69895e-05
2.84525e-05
2.67152e-05
2.52977e-05
2.69896e-05
2.8449e-05
3.38471e-05
3.38485e-05
2.61931e-05
3.38453e-05
3.38467e-05
2.88654e-05
6.96679e-05
2.88676e-05
6.9666e-05
8.06861e-05
8.06856e-05
2.88666e-05
6.9671e-05
2.88685e-05
6.96687e-05
2.71783e-05
2.71782e-05
2.71782e-05
2.71781e-05
2.71782e-05
2.71781e-05
2.71782e-05
2.52976e-05
2.84525e-05
2.69896e-05
2.67155e-05
2.52978e-05
2.84486e-05
2.69897e-05
8.06825e-05
8.06818e-05
2.52979e-05
2.69896e-05
2.84526e-05
2.67154e-05
2.52981e-05
2.69897e-05
2.8449e-05
3.38472e-05
3.38487e-05
2.61932e-05
3.38453e-05
3.38468e-05
2.88654e-05
6.96682e-05
2.88676e-05
6.96663e-05
8.06862e-05
8.06857e-05
2.88666e-05
6.96707e-05
2.88685e-05
6.96684e-05
2.71783e-05
2.71782e-05
2.71782e-05
2.71783e-05
2.71786e-05
2.71783e-05
2.71783e-05
2.52975e-05
2.84525e-05
2.69896e-05
2.67155e-05
2.52974e-05
2.84486e-05
2.69897e-05
8.06825e-05
8.06818e-05
2.52979e-05
2.69896e-05
2.84526e-05
2.67155e-05
2.5298e-05
2.69897e-05
2.8449e-05
3.38472e-05
3.38487e-05
2.61932e-05
3.38453e-05
3.38468e-05
3.73741e-05
3.72959e-05
3.72959e-05
5.31119e-05
3.71932e-05
5.31138e-05
3.71932e-05
3.70929e-05
3.7247e-05
3.72474e-05
3.71762e-05
3.71762e-05
3.737e-05
3.73777e-05
3.73043e-05
3.73768e-05
3.73701e-05
3.73777e-05
3.73043e-05
3.73768e-05
3.71732e-05
3.94122e-05
3.7168e-05
3.67255e-05
3.71732e-05
3.94121e-05
3.7168e-05
3.67256e-05
3.7096e-05
3.71021e-05
3.60313e-05
3.64214e-05
3.71636e-05
3.7111e-05
3.63054e-05
3.7096e-05
3.71021e-05
3.60315e-05
3.64214e-05
3.71636e-05
3.7111e-05
3.63054e-05
3.73741e-05
3.72959e-05
3.72959e-05
5.31121e-05
3.71933e-05
3.70929e-05
3.72477e-05
3.72468e-05
3.71762e-05
3.71762e-05
5.31136e-05
3.71933e-05
3.737e-05
3.73777e-05
3.73043e-05
3.73768e-05
3.737e-05
3.73777e-05
3.73768e-05
3.73043e-05
3.71732e-05
3.94126e-05
3.7168e-05
3.67258e-05
3.7096e-05
3.71021e-05
3.60312e-05
3.64214e-05
3.71636e-05
3.7111e-05
3.63054e-05
3.71732e-05
3.94129e-05
3.7168e-05
3.67255e-05
3.7096e-05
3.71021e-05
3.64214e-05
3.60313e-05
3.7111e-05
3.71636e-05
3.63054e-05
3.73774e-05
3.73765e-05
3.73771e-05
3.73771e-05
3.73774e-05
3.73765e-05
3.73771e-05
3.73771e-05
3.73774e-05
3.73765e-05
3.73771e-05
3.73771e-05
3.71134e-05
3.711e-05
3.64246e-05
3.64246e-05
3.71126e-05
3.71126e-05
3.64267e-05
3.71134e-05
3.711e-05
3.64246e-05
3.64246e-05
3.71126e-05
3.71126e-05
3.64267e-05
3.71134e-05
3.711e-05
3.64246e-05
3.64246e-05
3.71126e-05
3.71126e-05
3.64267e-05
3.71134e-05
3.711e-05
3.64246e-05
3.64246e-05
3.71126e-05
3.71126e-05
3.64267e-05
3.73701e-05
3.73777e-05
3.73768e-05
3.73043e-05
3.7096e-05
3.71021e-05
3.60311e-05
3.64214e-05
3.71636e-05
3.7111e-05
3.63054e-05
3.71732e-05
3.94123e-05
3.7168e-05
3.67257e-05
3.7096e-05
3.71021e-05
3.64214e-05
3.60315e-05
3.7111e-05
3.71636e-05
3.63054e-05
3.71732e-05
3.94128e-05
3.7168e-05
3.67254e-05
3.73741e-05
3.72959e-05
3.72959e-05
5.31143e-05
3.71933e-05
3.70929e-05
3.72474e-05
3.72476e-05
3.71762e-05
3.71762e-05
5.31144e-05
3.71933e-05
3.73701e-05
3.73777e-05
3.73768e-05
3.73043e-05
3.7096e-05
3.71021e-05
3.64214e-05
3.60316e-05
3.7111e-05
3.71636e-05
3.63054e-05
3.7096e-05
3.71021e-05
3.64214e-05
3.60316e-05
3.7111e-05
3.71636e-05
3.63054e-05
3.71732e-05
3.94128e-05
3.7168e-05
3.67255e-05
3.71732e-05
3.94128e-05
3.7168e-05
3.67257e-05
3.70929e-05
3.72472e-05
3.72479e-05
3.71762e-05
3.71762e-05
5.31142e-05
3.71933e-05
5.31141e-05
3.71932e-05
5.5115e-05
6.48736e-05
5.51168e-05
6.48765e-05
3.65888e-05
3.65899e-05
3.52788e-05
3.40714e-05
3.40706e-05
7.47102e-05
6.76965e-05
7.4714e-05
6.77005e-05
3.49728e-05
3.20422e-05
3.20404e-05
3.34538e-05
3.3454e-05
3.58817e-05
4.08819e-05
3.66032e-05
4.51309e-05
3.52762e-05
3.5632e-05
3.58926e-05
3.53763e-05
3.60476e-05
3.4246e-05
3.53812e-05
3.52762e-05
3.56316e-05
3.58926e-05
3.53763e-05
3.60477e-05
3.42468e-05
3.53812e-05
3.56306e-05
5.01979e-05
4.64668e-05
3.48975e-05
3.56311e-05
5.01968e-05
4.64663e-05
3.48979e-05
3.49988e-05
3.48727e-05
3.27404e-05
3.44039e-05
3.38527e-05
3.48864e-05
3.41807e-05
3.49988e-05
3.48727e-05
3.27414e-05
3.44039e-05
3.38517e-05
3.48864e-05
3.41808e-05
3.65891e-05
3.65896e-05
3.52788e-05
3.40717e-05
3.40698e-05
5.51162e-05
6.48755e-05
7.4711e-05
6.76988e-05
3.49728e-05
3.20415e-05
3.20408e-05
3.34532e-05
3.34551e-05
7.47122e-05
6.76988e-05
3.52763e-05
3.56319e-05
3.58926e-05
3.53763e-05
3.60477e-05
3.4246e-05
3.53812e-05
3.58817e-05
4.08831e-05
3.66029e-05
4.51334e-05
3.52762e-05
3.58926e-05
3.56319e-05
3.53763e-05
3.60477e-05
3.53812e-05
3.4246e-05
3.56308e-05
5.01977e-05
4.64665e-05
3.48982e-05
3.49988e-05
3.48727e-05
3.27403e-05
3.44039e-05
3.3852e-05
3.48864e-05
3.41809e-05
3.56307e-05
5.01994e-05
4.64684e-05
3.48979e-05
3.49988e-05
3.48727e-05
3.44039e-05
3.27401e-05
3.48864e-05
3.38523e-05
3.41808e-05
3.58819e-05
4.08807e-05
3.66031e-05
4.51325e-05
3.52762e-05
3.58926e-05
3.56317e-05
3.53763e-05
3.60476e-05
3.53812e-05
3.42467e-05
3.58819e-05
4.08834e-05
3.66027e-05
4.51327e-05
3.49989e-05
3.48727e-05
3.27396e-05
3.4404e-05
3.38524e-05
3.48864e-05
3.41809e-05
3.56309e-05
5.01971e-05
4.64644e-05
3.48979e-05
3.49988e-05
3.48727e-05
3.44039e-05
3.27413e-05
3.48864e-05
3.38515e-05
3.41808e-05
3.56305e-05
5.01982e-05
4.64685e-05
3.48978e-05
3.65892e-05
3.65889e-05
3.52788e-05
3.40704e-05
3.4071e-05
5.51172e-05
6.48755e-05
7.47146e-05
6.77004e-05
3.49728e-05
3.20411e-05
3.20423e-05
3.34539e-05
3.34536e-05
7.47126e-05
6.77002e-05
3.52763e-05
3.58926e-05
3.56316e-05
3.53763e-05
3.60477e-05
3.53812e-05
3.42465e-05
3.58822e-05
4.08827e-05
3.66028e-05
4.51332e-05
3.58825e-05
4.08818e-05
3.66032e-05
4.51322e-05
3.49987e-05
3.48727e-05
3.4404e-05
3.27413e-05
3.48864e-05
3.38518e-05
3.41808e-05
3.49988e-05
3.48727e-05
3.44039e-05
3.27412e-05
3.48864e-05
3.38513e-05
3.41809e-05
3.56301e-05
5.01992e-05
4.64681e-05
3.4898e-05
3.56303e-05
5.01987e-05
4.64661e-05
3.48984e-05
5.51168e-05
6.48754e-05
5.51168e-05
6.4876e-05
3.49728e-05
3.20418e-05
3.20407e-05
3.3453e-05
3.34532e-05
7.47117e-05
6.76996e-05
7.47132e-05
6.7701e-05
7.65659e-05
8.08403e-05
7.657e-05
8.08446e-05
3.16983e-05
3.16976e-05
3.32624e-05
3.09248e-05
3.09227e-05
8.39875e-05
8.18712e-05
8.3991e-05
8.18745e-05
3.29539e-05
3.03233e-05
3.03222e-05
3.07241e-05
3.07236e-05
3.39724e-05
5.13625e-05
3.46748e-05
5.46064e-05
3.30544e-05
3.24596e-05
3.39292e-05
3.34058e-05
3.38953e-05
3.15874e-05
3.3464e-05
3.30546e-05
3.24582e-05
3.39292e-05
3.34058e-05
3.38953e-05
3.1589e-05
3.3464e-05
3.37685e-05
5.83576e-05
5.56046e-05
3.3093e-05
3.37687e-05
5.83576e-05
5.56038e-05
3.30934e-05
3.27666e-05
3.29326e-05
3.06674e-05
3.25765e-05
3.1374e-05
3.30134e-05
3.19195e-05
3.27667e-05
3.29325e-05
3.06692e-05
3.25765e-05
3.13717e-05
3.30134e-05
3.19197e-05
3.16973e-05
3.16981e-05
3.32624e-05
3.0924e-05
3.09215e-05
7.65681e-05
8.0842e-05
8.39884e-05
8.18729e-05
3.29539e-05
3.0323e-05
3.03211e-05
3.07238e-05
3.07236e-05
8.3989e-05
8.18731e-05
3.30547e-05
3.24587e-05
3.39292e-05
3.34059e-05
3.38952e-05
3.1588e-05
3.3464e-05
3.39733e-05
5.13651e-05
3.46745e-05
5.46094e-05
3.30545e-05
3.39292e-05
3.24594e-05
3.34058e-05
3.38951e-05
3.3464e-05
3.15869e-05
3.37671e-05
5.83582e-05
5.56062e-05
3.30954e-05
3.27665e-05
3.29326e-05
3.06678e-05
3.25765e-05
3.13722e-05
3.30135e-05
3.19198e-05
3.37669e-05
5.83607e-05
5.56067e-05
3.30949e-05
3.27664e-05
3.29325e-05
3.25765e-05
3.06668e-05
3.30134e-05
3.13738e-05
3.19196e-05
3.39728e-05
5.1362e-05
3.46747e-05
5.46062e-05
3.30545e-05
3.39292e-05
3.24584e-05
3.34058e-05
3.38953e-05
3.3464e-05
3.15894e-05
3.3972e-05
5.13645e-05
3.46748e-05
5.46077e-05
3.27667e-05
3.29327e-05
3.06667e-05
3.25765e-05
3.13736e-05
3.30135e-05
3.19197e-05
3.37682e-05
5.83577e-05
5.56035e-05
3.30935e-05
3.27666e-05
3.29326e-05
3.25765e-05
3.06694e-05
3.30134e-05
3.1372e-05
3.19195e-05
3.3768e-05
5.83595e-05
5.56058e-05
3.30932e-05
3.16978e-05
3.16975e-05
3.32624e-05
3.09227e-05
3.0924e-05
7.65692e-05
8.08423e-05
8.39914e-05
8.18758e-05
3.29539e-05
3.03221e-05
3.03235e-05
3.07231e-05
3.07248e-05
8.39892e-05
8.18738e-05
3.30547e-05
3.39292e-05
3.24577e-05
3.34058e-05
3.38952e-05
3.3464e-05
3.15889e-05
3.39734e-05
5.13645e-05
3.46745e-05
5.46086e-05
3.39733e-05
5.13632e-05
3.46747e-05
5.46077e-05
3.27664e-05
3.29327e-05
3.25765e-05
3.06691e-05
3.30134e-05
3.1372e-05
3.19197e-05
3.27665e-05
3.29326e-05
3.25765e-05
3.06689e-05
3.30134e-05
3.13716e-05
3.19199e-05
3.37668e-05
5.83597e-05
5.56059e-05
3.3095e-05
3.37672e-05
5.83592e-05
5.56053e-05
3.30955e-05
7.6569e-05
8.08422e-05
7.65708e-05
8.08438e-05
3.29539e-05
3.03241e-05
3.03225e-05
3.07245e-05
3.07234e-05
8.39893e-05
8.18738e-05
8.39905e-05
8.18753e-05
8.43965e-05
8.50573e-05
8.43985e-05
8.50596e-05
3.0202e-05
3.02015e-05
3.12736e-05
3.00289e-05
3.00259e-05
8.48395e-05
8.507e-05
8.48415e-05
8.50714e-05
3.09642e-05
2.99251e-05
2.99243e-05
2.99778e-05
2.99761e-05
3.22792e-05
5.91768e-05
3.29017e-05
6.14344e-05
3.07992e-05
3.0497e-05
3.21448e-05
3.15569e-05
3.163e-05
2.99118e-05
3.17117e-05
3.07994e-05
3.04944e-05
3.21448e-05
3.15568e-05
3.16301e-05
2.99126e-05
3.17117e-05
3.21069e-05
6.3846e-05
6.20984e-05
3.14792e-05
3.21071e-05
6.38475e-05
6.20977e-05
3.14796e-05
3.05128e-05
3.10988e-05
2.92316e-05
3.0862e-05
2.97843e-05
3.12804e-05
2.96808e-05
3.05129e-05
3.10986e-05
2.92325e-05
3.0862e-05
2.97832e-05
3.12804e-05
2.9681e-05
3.02019e-05
3.02004e-05
3.12737e-05
3.00268e-05
3.00275e-05
8.43976e-05
8.5058e-05
8.48393e-05
8.50701e-05
3.09642e-05
2.99249e-05
2.9923e-05
2.99765e-05
2.99771e-05
8.484e-05
8.50705e-05
3.07996e-05
3.04952e-05
3.21448e-05
3.1557e-05
3.16299e-05
2.99114e-05
3.17117e-05
3.22815e-05
5.91798e-05
3.28994e-05
6.14371e-05
3.07993e-05
3.21448e-05
3.04964e-05
3.15568e-05
3.16297e-05
3.17117e-05
2.99113e-05
3.21043e-05
6.38488e-05
6.21003e-05
3.14823e-05
3.05126e-05
3.10988e-05
2.92322e-05
3.0862e-05
2.97836e-05
3.12804e-05
2.96811e-05
3.21041e-05
6.38499e-05
6.21006e-05
3.14819e-05
3.05124e-05
3.10986e-05
3.08619e-05
2.9231e-05
3.12803e-05
2.97838e-05
2.96809e-05
3.22792e-05
5.91767e-05
3.29017e-05
6.14345e-05
3.07992e-05
3.21448e-05
3.04947e-05
3.15569e-05
3.163e-05
3.17117e-05
2.99127e-05
3.22788e-05
5.91786e-05
3.29014e-05
6.14359e-05
3.05129e-05
3.1099e-05
2.92308e-05
3.08621e-05
2.97837e-05
3.12804e-05
2.9681e-05
3.21071e-05
6.38477e-05
6.20978e-05
3.14796e-05
3.05127e-05
3.10987e-05
3.0862e-05
2.92325e-05
3.12804e-05
2.97833e-05
2.96808e-05
3.21067e-05
6.38488e-05
6.20992e-05
3.14792e-05
3.02003e-05
3.02025e-05
3.12735e-05
3.0028e-05
3.0028e-05
8.43978e-05
8.50583e-05
8.48413e-05
8.50721e-05
3.09641e-05
2.99239e-05
2.99257e-05
2.9977e-05
2.99775e-05
8.48398e-05
8.50707e-05
3.07996e-05
3.21448e-05
3.04942e-05
3.1557e-05
3.16299e-05
3.17117e-05
2.99123e-05
3.22817e-05
5.91786e-05
3.28993e-05
6.14361e-05
3.22821e-05
5.91784e-05
3.28997e-05
6.14361e-05
3.05124e-05
3.10989e-05
3.0862e-05
2.92326e-05
3.12804e-05
2.97835e-05
2.9681e-05
3.05126e-05
3.10988e-05
3.0862e-05
2.92322e-05
3.12804e-05
2.97829e-05
2.96812e-05
3.21039e-05
6.3849e-05
6.20994e-05
3.1482e-05
3.21043e-05
6.38494e-05
6.20995e-05
3.14824e-05
8.43979e-05
8.50585e-05
8.43991e-05
8.50594e-05
3.09641e-05
2.99256e-05
2.99244e-05
2.99771e-05
2.9976e-05
8.484e-05
8.50709e-05
8.48404e-05
8.50715e-05
8.46449e-05
8.38708e-05
8.46449e-05
8.38714e-05
2.99439e-05
2.99423e-05
2.93478e-05
3.00359e-05
3.00344e-05
8.26277e-05
8.35854e-05
8.26279e-05
8.35854e-05
2.90573e-05
3.03247e-05
3.03231e-05
3.00989e-05
3.0099e-05
3.07448e-05
6.43759e-05
3.1357e-05
6.5701e-05
2.85954e-05
2.91455e-05
3.04645e-05
2.98129e-05
2.94179e-05
2.86711e-05
3.00849e-05
2.85957e-05
2.9146e-05
3.04645e-05
2.98127e-05
2.94181e-05
2.86708e-05
3.00848e-05
3.06042e-05
6.707e-05
6.60702e-05
3.01037e-05
3.06045e-05
6.70717e-05
6.60702e-05
3.0104e-05
2.83295e-05
2.94117e-05
2.82164e-05
2.93147e-05
2.85629e-05
2.9708e-05
2.75734e-05
2.83297e-05
2.94116e-05
2.82166e-05
2.93147e-05
2.85631e-05
2.9708e-05
2.75736e-05
2.99429e-05
2.99423e-05
2.93479e-05
3.00348e-05
3.00349e-05
8.46448e-05
8.38707e-05
8.26269e-05
8.35853e-05
2.90574e-05
3.03242e-05
3.03199e-05
3.0099e-05
3.00992e-05
8.26276e-05
8.35857e-05
2.85955e-05
2.91457e-05
3.04645e-05
2.9813e-05
2.94179e-05
2.86705e-05
3.00848e-05
3.07453e-05
6.43782e-05
3.13545e-05
6.57032e-05
2.85953e-05
3.04645e-05
2.91449e-05
2.98126e-05
2.94176e-05
3.00848e-05
2.86698e-05
3.06027e-05
6.70734e-05
6.60726e-05
3.0105e-05
2.83294e-05
2.94119e-05
2.82162e-05
2.93147e-05
2.85629e-05
2.9708e-05
2.75735e-05
3.06023e-05
6.7073e-05
6.60724e-05
3.01046e-05
2.83292e-05
2.94114e-05
2.93146e-05
2.8215e-05
2.9708e-05
2.85639e-05
2.75732e-05
3.07447e-05
6.43761e-05
3.1357e-05
6.57013e-05
2.85954e-05
3.04645e-05
2.91461e-05
2.98128e-05
2.94179e-05
3.00848e-05
2.86707e-05
3.07443e-05
6.43771e-05
3.13566e-05
6.57019e-05
2.83297e-05
2.94121e-05
2.82148e-05
2.93148e-05
2.85637e-05
2.97081e-05
2.75736e-05
3.06045e-05
6.70718e-05
6.60706e-05
3.01039e-05
2.83294e-05
2.94117e-05
2.93147e-05
2.82164e-05
2.9708e-05
2.8563e-05
2.75733e-05
3.06041e-05
6.70721e-05
6.6071e-05
3.01035e-05
2.99428e-05
2.99437e-05
2.93477e-05
3.00355e-05
3.00358e-05
8.46453e-05
8.38704e-05
8.26278e-05
8.35861e-05
2.90572e-05
3.03223e-05
3.03249e-05
3.00995e-05
3.01001e-05
8.26274e-05
8.35859e-05
2.85956e-05
3.04645e-05
2.91457e-05
2.9813e-05
2.94179e-05
3.00848e-05
2.86704e-05
3.07454e-05
6.43773e-05
3.13545e-05
6.57023e-05
3.07458e-05
6.43778e-05
3.13549e-05
6.57029e-05
2.83293e-05
2.9412e-05
2.93147e-05
2.82165e-05
2.9708e-05
2.85631e-05
2.75734e-05
2.83294e-05
2.94119e-05
2.93147e-05
2.82163e-05
2.9708e-05
2.85627e-05
2.75736e-05
3.06023e-05
6.70725e-05
6.60713e-05
3.01046e-05
3.06027e-05
6.70734e-05
6.6072e-05
3.0105e-05
8.46454e-05
8.38706e-05
8.46457e-05
8.38705e-05
2.90573e-05
3.03246e-05
3.03235e-05
3.00996e-05
3.00988e-05
8.26276e-05
8.35861e-05
8.26271e-05
8.35859e-05
8.22419e-05
8.11445e-05
8.22413e-05
8.11442e-05
3.04453e-05
3.04442e-05
2.7488e-05
3.07232e-05
3.0722e-05
8.04369e-05
8.08622e-05
8.04365e-05
8.08613e-05
2.71958e-05
3.10404e-05
3.10401e-05
3.08266e-05
3.0826e-05
2.96223e-05
6.73555e-05
2.99627e-05
6.80111e-05
2.65801e-05
2.81603e-05
2.88948e-05
2.80846e-05
2.73274e-05
2.77442e-05
2.84596e-05
2.65803e-05
2.81604e-05
2.88948e-05
2.80844e-05
2.73276e-05
2.77438e-05
2.84596e-05
2.94149e-05
6.84409e-05
6.81423e-05
2.86554e-05
2.94152e-05
6.84425e-05
6.81436e-05
2.86557e-05
2.62934e-05
2.76359e-05
2.71607e-05
2.76822e-05
2.75621e-05
2.80422e-05
2.55045e-05
2.62936e-05
2.76357e-05
2.71609e-05
2.76821e-05
2.75619e-05
2.80421e-05
2.55046e-05
3.04445e-05
3.04452e-05
2.74882e-05
3.07222e-05
3.0721e-05
8.22418e-05
8.11444e-05
8.04363e-05
8.08614e-05
2.71959e-05
3.10401e-05
3.10388e-05
3.0826e-05
3.08268e-05
8.04365e-05
8.08619e-05
2.658e-05
2.81599e-05
2.88948e-05
2.80848e-05
2.73273e-05
2.77437e-05
2.84596e-05
2.96222e-05
6.7357e-05
2.99605e-05
6.80119e-05
2.65798e-05
2.88947e-05
2.81593e-05
2.80842e-05
2.73271e-05
2.84595e-05
2.77447e-05
2.94126e-05
6.8444e-05
6.81453e-05
2.86566e-05
2.62932e-05
2.76362e-05
2.71605e-05
2.76821e-05
2.75625e-05
2.80421e-05
2.55045e-05
2.94122e-05
6.84428e-05
6.81447e-05
2.86563e-05
2.6293e-05
2.76355e-05
2.7682e-05
2.716e-05
2.8042e-05
2.75639e-05
2.55043e-05
2.96221e-05
6.73559e-05
2.99626e-05
6.80112e-05
2.658e-05
2.88948e-05
2.81602e-05
2.80845e-05
2.73274e-05
2.84596e-05
2.77435e-05
2.96217e-05
6.73558e-05
2.99622e-05
6.80111e-05
2.62935e-05
2.76364e-05
2.71596e-05
2.76822e-05
2.75635e-05
2.80422e-05
2.55046e-05
2.94151e-05
6.84425e-05
6.81441e-05
2.86556e-05
2.62933e-05
2.76358e-05
2.76821e-05
2.71605e-05
2.80421e-05
2.75615e-05
2.55044e-05
2.94147e-05
6.8442e-05
6.81434e-05
2.86552e-05
3.0446e-05
3.04453e-05
2.74879e-05
3.07228e-05
3.07232e-05
8.2242e-05
8.11444e-05
8.04364e-05
8.08618e-05
2.71957e-05
3.10405e-05
3.1041e-05
3.08279e-05
3.08269e-05
8.0437e-05
8.08621e-05
2.65801e-05
2.88948e-05
2.816e-05
2.80848e-05
2.73274e-05
2.84596e-05
2.77434e-05
2.96222e-05
6.73562e-05
2.99605e-05
6.80116e-05
2.96226e-05
6.73572e-05
2.99608e-05
6.80128e-05
2.6293e-05
2.76362e-05
2.76821e-05
2.71606e-05
2.80421e-05
2.75615e-05
2.55044e-05
2.62932e-05
2.76361e-05
2.76821e-05
2.71605e-05
2.80421e-05
2.75614e-05
2.55046e-05
2.94121e-05
6.84425e-05
6.81439e-05
2.86563e-05
2.94125e-05
6.84441e-05
6.81452e-05
2.86566e-05
8.22422e-05
8.11445e-05
8.22416e-05
8.11438e-05
2.71956e-05
3.10406e-05
3.10402e-05
3.08265e-05
3.08261e-05
8.0437e-05
8.08621e-05
8.04363e-05
8.08615e-05
8.04114e-05
8.04489e-05
8.04107e-05
8.0449e-05
3.11496e-05
3.11494e-05
2.61098e-05
3.20999e-05
3.20994e-05
8.0619e-05
8.05138e-05
8.06194e-05
8.05132e-05
2.60664e-05
3.32725e-05
3.3273e-05
3.24625e-05
3.24628e-05
2.84832e-05
6.8573e-05
2.85401e-05
6.90387e-05
2.50976e-05
2.71474e-05
2.74058e-05
2.68056e-05
2.53253e-05
2.72109e-05
2.72172e-05
2.50976e-05
2.71478e-05
2.74057e-05
2.68053e-05
2.53254e-05
2.72113e-05
2.72172e-05
2.85061e-05
6.94994e-05
6.91912e-05
2.86617e-05
2.85063e-05
6.95015e-05
6.91931e-05
2.86618e-05
2.50915e-05
2.67207e-05
2.79496e-05
2.70396e-05
2.73911e-05
2.71024e-05
2.51364e-05
2.50916e-05
2.67205e-05
2.79502e-05
2.70396e-05
2.73916e-05
2.71023e-05
2.51364e-05
3.11496e-05
3.11486e-05
2.61099e-05
3.21001e-05
3.20972e-05
8.04108e-05
8.04467e-05
8.06188e-05
8.05132e-05
2.60665e-05
3.32729e-05
3.32697e-05
3.24629e-05
3.24625e-05
8.06156e-05
8.05124e-05
2.50974e-05
2.71473e-05
2.74057e-05
2.68058e-05
2.53252e-05
2.72107e-05
2.72172e-05
2.84828e-05
6.85739e-05
2.85393e-05
6.90385e-05
2.50973e-05
2.74056e-05
2.71472e-05
2.68051e-05
2.5325e-05
2.7217e-05
2.72101e-05
2.85045e-05
6.95018e-05
6.91943e-05
2.86632e-05
2.50913e-05
2.67209e-05
2.79498e-05
2.70396e-05
2.73914e-05
2.71023e-05
2.51365e-05
2.85045e-05
6.94986e-05
6.91936e-05
2.86629e-05
2.50912e-05
2.67203e-05
2.70395e-05
2.79495e-05
2.71022e-05
2.73913e-05
2.51364e-05
2.8483e-05
6.85735e-05
2.85399e-05
6.90383e-05
2.50975e-05
2.74058e-05
2.71473e-05
2.68055e-05
2.53252e-05
2.72172e-05
2.72108e-05
2.84827e-05
6.85723e-05
2.85396e-05
6.90375e-05
2.50915e-05
2.67211e-05
2.7949e-05
2.70397e-05
2.73905e-05
2.71024e-05
2.51364e-05
2.85061e-05
6.94987e-05
6.91934e-05
2.86617e-05
2.50914e-05
2.67206e-05
2.70396e-05
2.79493e-05
2.71023e-05
2.7391e-05
2.51363e-05
2.85059e-05
6.95001e-05
6.91919e-05
2.86615e-05
3.11503e-05
3.11502e-05
2.61096e-05
3.20994e-05
3.21005e-05
8.04114e-05
8.04489e-05
8.06154e-05
8.05124e-05
2.60662e-05
3.3272e-05
3.3273e-05
3.24645e-05
3.2463e-05
8.06193e-05
8.05139e-05
2.50975e-05
2.74057e-05
2.71473e-05
2.68058e-05
2.53253e-05
2.72172e-05
2.72108e-05
2.84828e-05
6.85728e-05
2.85393e-05
6.9038e-05
2.84829e-05
6.85744e-05
2.85396e-05
6.90397e-05
2.50914e-05
2.6721e-05
2.70396e-05
2.79495e-05
2.71023e-05
2.73908e-05
2.51366e-05
2.50914e-05
2.6721e-05
2.70396e-05
2.79498e-05
2.71023e-05
2.73912e-05
2.51366e-05
2.85045e-05
6.95005e-05
6.91923e-05
2.86631e-05
2.85046e-05
6.95024e-05
6.91941e-05
2.86631e-05
8.04114e-05
8.04489e-05
8.04107e-05
8.04483e-05
2.60663e-05
3.32728e-05
3.32737e-05
3.24629e-05
3.2463e-05
8.06193e-05
8.05139e-05
8.06188e-05
8.05134e-05
8.06474e-05
8.06749e-05
8.06469e-05
8.06749e-05
3.34593e-05
3.34609e-05
2.61472e-05
3.37264e-05
3.37284e-05
8.06844e-05
8.06814e-05
8.06844e-05
8.06811e-05
2.61512e-05
3.38293e-05
3.38321e-05
3.37775e-05
3.37802e-05
2.88143e-05
6.95683e-05
2.87294e-05
6.9646e-05
2.52477e-05
2.81169e-05
2.70089e-05
2.66921e-05
2.5173e-05
2.83289e-05
2.69954e-05
2.52477e-05
2.81176e-05
2.70088e-05
2.6692e-05
2.5173e-05
2.833e-05
2.69954e-05
2.88402e-05
6.96656e-05
6.96594e-05
2.88568e-05
2.88403e-05
6.96684e-05
6.96621e-05
2.88571e-05
2.5263e-05
2.66998e-05
2.84327e-05
2.69887e-05
2.83871e-05
2.69902e-05
2.52845e-05
2.5263e-05
2.66997e-05
2.84341e-05
2.69887e-05
2.83883e-05
2.69901e-05
2.52846e-05
3.34602e-05
3.34585e-05
2.61473e-05
3.37275e-05
3.37235e-05
8.06452e-05
8.06714e-05
8.06843e-05
8.06814e-05
2.61512e-05
3.38307e-05
3.38257e-05
3.3779e-05
3.37768e-05
8.06807e-05
8.06782e-05
2.52477e-05
2.81179e-05
2.70089e-05
2.66924e-05
2.5173e-05
2.83302e-05
2.69954e-05
2.88142e-05
6.9566e-05
2.87289e-05
6.96423e-05
2.52476e-05
2.70087e-05
2.81184e-05
2.66918e-05
2.51729e-05
2.69953e-05
2.83296e-05
2.88398e-05
6.96686e-05
6.96625e-05
2.88581e-05
2.5263e-05
2.67001e-05
2.84342e-05
2.69887e-05
2.83887e-05
2.69901e-05
2.52848e-05
2.88396e-05
6.96648e-05
6.96587e-05
2.88577e-05
2.52629e-05
2.66995e-05
2.69886e-05
2.84329e-05
2.699e-05
2.83886e-05
2.52846e-05
2.88142e-05
6.95661e-05
2.87293e-05
6.96427e-05
2.52476e-05
2.70089e-05
2.81166e-05
2.66921e-05
2.51729e-05
2.69954e-05
2.83289e-05
2.88141e-05
6.95668e-05
2.87292e-05
6.96444e-05
2.52629e-05
2.67001e-05
2.84327e-05
2.69888e-05
2.83883e-05
2.69902e-05
2.52846e-05
2.88403e-05
6.96654e-05
6.96592e-05
2.8857e-05
2.52629e-05
2.66998e-05
2.69887e-05
2.8433e-05
2.69901e-05
2.83872e-05
2.52845e-05
2.88401e-05
6.96668e-05
6.96604e-05
2.88568e-05
3.34602e-05
3.346e-05
2.6147e-05
3.37248e-05
3.37273e-05
8.06478e-05
8.06752e-05
8.06805e-05
8.0678e-05
2.6151e-05
3.38275e-05
3.38303e-05
3.37777e-05
3.37786e-05
8.06845e-05