/*--------------------------------*- C++ -*----------------------------------*\
| =========                 |                                                 |
| \\      /  F ield         | OpenFOAM: The Open Source CFD Toolbox           |
|  \\    /   O peration     | Version:  2206                                  |
|   \\  /    A nd           | Website:  www.openfoam.com                      |
|    \\/     M anipulation  |                                                 |
\*---------------------------------------------------------------------------*/
FoamFile
{
    version     2.0;
    format      ascii;
    arch        "LSB;label=32;scalar=64";
    class       surfaceScalarField;
    location    "25.5";
    object      phi;
}
// * * * * * * * * * * * * * * * * * * * * * * * * * * * * * * * * * * * * * //

dimensions      [0 3 -1 0 0 0 0];

oriented        oriented;

internalField   nonuniform List<scalar> 
83438
(
-0.00104221
-1.458e-05
-1.44762e-05
9.34722e-06
9.17712e-06
0.00105274
-0.00026146
-5.64129e-06
1.44568e-05
6.83909e-06
0.00105942
-4.53225e-06
-1.62525e-06
-2.21859e-06
-2.57656e-06
-6.5898e-06
-7.04286e-06
-3.1653e-06
-0.000263303
-0.000259727
-0.000262829
-0.000261437
-5.64628e-06
1.44859e-05
6.92866e-06
0.00105921
-4.53736e-06
-1.63543e-06
-2.22619e-06
-2.58087e-06
-6.58389e-06
-7.03893e-06
-3.16748e-06
-0.000259699
-0.000263275
-0.000262793
-0.000260564
5.61678e-06
5.65688e-06
-4.87736e-06
-4.87142e-06
0.000259039
-1.63437e-06
-1.63626e-06
-0.00106073
8.99601e-07
9.00365e-07
0.0010622
-0.00106268
-1.60581e-06
1.63032e-06
8.29117e-07
0.00106396
-6.52936e-07
7.83155e-07
-1.49792e-07
3.74174e-07
-7.97932e-07
-1.39268e-06
-2.95357e-07
-0.00106236
-1.60072e-06
1.64085e-06
8.24333e-07
0.00106364
-6.52914e-07
7.77661e-07
-1.49841e-07
3.71553e-07
-8.00455e-07
-1.39237e-06
-2.92814e-07
-0.000261534
1.63843e-06
1.60087e-06
-7.11872e-07
-7.15023e-07
0.000259722
-1.33922e-06
-1.34059e-06
-0.0010664
6.69159e-07
6.69954e-07
0.00106774
-0.0010679
-1.55229e-06
1.34534e-06
6.77309e-07
0.00106926
-6.16505e-07
8.38508e-07
-1.07812e-07
4.20232e-07
-7.69022e-07
-1.35033e-06
-2.50533e-07
-0.00106758
-1.54704e-06
1.34017e-06
6.8266e-07
0.00106893
-6.16508e-07
8.33085e-07
-1.07794e-07
4.20173e-07
-7.6895e-07
-1.34478e-06
-2.47989e-07
-0.000262765
1.58247e-06
1.54719e-06
-6.6955e-07
-6.77721e-07
0.000260982
-1.32783e-06
-1.32916e-06
-0.00107189
6.60588e-07
6.61407e-07
0.00107322
-0.00107325
-1.55124e-06
1.32883e-06
6.59262e-07
0.00107459
-6.13403e-07
8.5929e-07
-8.63986e-08
4.26887e-07
-7.65288e-07
-1.35788e-06
-2.33568e-07
-0.00107292
-1.54592e-06
1.32874e-06
6.59372e-07
0.00107425
-6.10709e-07
8.5385e-07
-8.88729e-08
4.26828e-07
-7.67735e-07
-1.35765e-06
-2.31006e-07
-0.00026404
1.57893e-06
1.54612e-06
-6.60268e-07
-6.65913e-07
0.000262241
-1.23178e-06
-1.23275e-06
-0.00107713
5.94569e-07
5.95523e-07
0.00107841
-0.00107843
-1.527e-06
1.23254e-06
6.03815e-07
0.00107967
-5.79206e-07
8.90429e-07
-5.43739e-08
4.5394e-07
-7.28295e-07
-1.33681e-06
-1.98621e-07
-0.00107809
-1.5216e-06
1.23236e-06
6.03817e-07
0.00107933
-5.76458e-07
8.85027e-07
-5.67814e-08
4.53891e-07
-7.30735e-07
-1.33658e-06
-1.9603e-07
-0.000265265
1.55481e-06
1.52182e-06
-6.2641e-07
-6.32048e-07
0.000263446
-6.23487e-07
-6.24283e-07
-0.00108122
3.39615e-07
3.39955e-07
0.00108179
-0.00108221
-1.35121e-06
6.24169e-07
2.96835e-07
0.00108261
-3.91686e-07
1.069e-06
1.26529e-07
7.03339e-07
-4.53064e-07
-1.08715e-06
6.19485e-08
-0.00108187
-1.34586e-06
6.24097e-07
2.96908e-07
0.00108227
-3.88954e-07
1.06352e-06
1.2374e-07
7.03225e-07
-4.55537e-07
-1.08694e-06
6.48549e-08
-0.000266119
1.37922e-06
1.34595e-06
-3.99145e-07
-4.04522e-07
0.000264198
-1.7692e-07
-1.77285e-07
-0.00108274
1.07934e-07
1.07932e-07
0.00108288
-0.00108313
-1.24174e-06
1.77169e-07
1.01265e-07
0.00108317
-2.88348e-07
1.16688e-06
2.19124e-07
8.41636e-07
-2.94034e-07
-9.35942e-07
2.05999e-07
-0.00108278
-1.23637e-06
1.77166e-07
1.01391e-07
0.00108283
-2.85649e-07
1.16143e-06
2.16335e-07
8.41484e-07
-2.96633e-07
-9.35795e-07
2.08682e-07
-0.000266226
1.26994e-06
1.23648e-06
-2.69636e-07
-2.74981e-07
0.000264265
-1.9654e-08
-1.96228e-08
-0.00108304
1.30812e-08
1.30831e-08
0.00108305
-0.0010832
-1.20407e-06
1.95723e-08
1.4122e-08
0.0010832
-2.55205e-07
1.19882e-06
2.47505e-07
8.80832e-07
-2.5235e-07
-8.89328e-07
2.41549e-07
-0.00108286
-1.19866e-06
1.95957e-08
1.41275e-08
0.00108286
-2.52461e-07
1.1934e-06
2.44753e-07
8.80661e-07
-2.54974e-07
-8.89201e-07
2.44205e-07
-0.000266206
1.23226e-06
1.19879e-06
-2.31552e-07
-2.36832e-07
0.000264244
5.20016e-11
2.1693e-10
-0.00108306
-4.91216e-10
-4.76908e-10
0.00108306
-0.0010832
-1.1999e-06
-2.42815e-10
3.15657e-09
0.0010832
-2.51646e-07
1.20207e-06
2.5036e-07
8.8458e-07
-2.48152e-07
-8.8466e-07
2.45025e-07
-0.00108286
-1.1945e-06
-2.20843e-10
3.13491e-09
0.00108286
-2.48896e-07
1.19665e-06
2.47609e-07
8.84407e-07
-2.50765e-07
-8.84533e-07
2.47685e-07
-0.000266201
1.22809e-06
1.19461e-06
-2.27881e-07
-2.33156e-07
0.00026424
1.32012e-09
1.47745e-09
-0.00108306
-1.41025e-09
-1.37989e-09
0.00108306
-0.0010832
-1.19972e-06
-1.51785e-09
2.63282e-09
0.0010832
-2.5149e-07
1.20221e-06
2.50479e-07
8.84723e-07
-2.47972e-07
-8.84466e-07
2.45155e-07
-0.00108285
-1.19431e-06
-1.50348e-09
2.6037e-09
0.00108285
-2.48736e-07
1.19679e-06
2.4773e-07
8.84549e-07
-2.50585e-07
-8.84338e-07
2.47817e-07
-0.000266201
1.2279e-06
1.19442e-06
-2.27735e-07
-2.33011e-07
0.000264239
1.27357e-09
1.49149e-09
-0.00108306
-1.42745e-09
-1.38717e-09
0.00108306
-0.0010832
-1.19972e-06
-1.55664e-09
2.6276e-09
0.0010832
-2.48757e-07
1.20221e-06
2.47742e-07
8.84718e-07
-2.47937e-07
-8.84459e-07
2.45124e-07
-0.00108285
-1.19431e-06
-1.53479e-09
2.59799e-09
0.00108285
-2.48735e-07
1.19678e-06
2.47728e-07
8.84545e-07
-2.50582e-07
-8.84333e-07
2.47809e-07
-0.000266201
1.2279e-06
1.19442e-06
-2.27734e-07
-2.3301e-07
0.000264239
1.38729e-09
1.5235e-09
-0.00108306
-1.47665e-09
-1.45433e-09
0.00108306
-0.0010832
-1.1997e-06
-1.54172e-09
2.61283e-09
0.0010832
-2.48742e-07
1.2022e-06
2.47731e-07
8.84699e-07
-2.47915e-07
-8.84444e-07
2.45099e-07
-0.00108285
-1.1943e-06
-1.52807e-09
2.59393e-09
0.00108285
-2.48723e-07
1.19678e-06
2.47719e-07
8.84528e-07
-2.50565e-07
-8.84319e-07
2.47791e-07
-0.000266201
1.22789e-06
1.19441e-06
-2.27726e-07
-2.33002e-07
0.000264239
5.22174e-06
5.23258e-06
0.000260567
-0.00025917
-5.93254e-06
-5.91842e-06
5.08172e-06
0.000261409
-0.000258686
-5.96236e-06
3.37927e-06
-5.22181e-06
5.0767e-06
0.000261442
-0.000258701
-5.97037e-06
3.37443e-06
5.22241e-06
0.00026058
-0.000259173
-5.90393e-06
-5.94715e-06
5.07482e-06
0.000261473
-0.000258717
-5.96788e-06
3.36911e-06
5.08154e-06
-5.22406e-06
0.000261417
-0.000258686
3.38433e-06
-5.97257e-06
1.07109e-05
1.06171e-05
-0.000252649
-0.000256079
-0.000255118
-0.000255118
-6.41705e-06
-4.12531e-06
-6.66213e-06
-6.41742e-06
-4.12624e-06
-6.66767e-06
-5.06977e-06
0.00104223
1.06705e-05
1.06224e-05
-0.000252651
-0.000256076
-0.000255121
-0.000255121
-6.41967e-06
-4.1256e-06
-6.66487e-06
-6.41488e-06
-4.12103e-06
-6.66008e-06
-5.06942e-06
0.00104211
1.07307e-05
1.0683e-05
-0.000252644
-0.000256071
-0.000255118
-0.000255113
-6.41952e-06
-4.13297e-06
-6.6648e-06
-6.41972e-06
-4.12325e-06
-6.66241e-06
-5.08411e-06
-5.07223e-06
0.00104217
1.0726e-05
1.06274e-05
-0.000252646
-0.000256074
-0.000255118
-0.000255118
-6.41441e-06
-4.12792e-06
-6.6598e-06
-6.41986e-06
-4.12608e-06
-6.66513e-06
-0.000258711
-5.96024e-06
3.36406e-06
-5.22165e-06
0.000261404
-0.000258684
3.37931e-06
-5.96231e-06
5.2248e-06
0.000260559
-0.000259158
-5.90624e-06
-5.94438e-06
-0.000258696
3.3716e-06
-5.95736e-06
-5.23256e-06
0.000261471
-0.000258712
3.3666e-06
-5.96535e-06
-0.000259168
-5.93241e-06
-5.91845e-06
5.61703e-06
5.65425e-06
-4.87759e-06
-4.87144e-06
0.000259045
-7.79605e-07
-7.4373e-07
0.000261545
-0.000259461
-2.83936e-07
-2.76542e-07
7.09155e-06
0.00105882
-4.52959e-06
-1.57872e-06
-2.21327e-06
-2.57769e-06
-6.60425e-06
-7.04869e-06
-3.17229e-06
-0.000263264
-0.000259684
-0.000262793
-5.62749e-06
1.45535e-05
7.03096e-06
0.00105919
-4.54871e-06
-1.5711e-06
-2.21642e-06
-2.58859e-06
-6.63577e-06
-7.0656e-06
-3.18796e-06
-0.000263338
-0.000259714
-0.000262834
0.00106193
2.01936e-06
-0.00106086
9.71405e-07
-1.71715e-06
-1.7017e-07
-6.91006e-07
-1.46266e-06
-3.10418e-07
-8.24734e-07
3.41094e-07
7.87691e-07
0.00106235
2.01972e-06
-0.00106128
9.66331e-07
-1.72756e-06
-1.6267e-07
-6.96502e-07
-1.46837e-06
-3.10571e-07
-8.25102e-07
3.46511e-07
-4.87567e-06
-4.86834e-06
0.000259055
-7.46406e-07
0.00026157
-0.000259481
-2.81286e-07
-2.73668e-07
6.8128e-06
0.00105966
-4.55387e-06
-1.63805e-06
-2.22947e-06
-2.58689e-06
-6.61827e-06
-7.06097e-06
-3.18318e-06
-0.000263359
-0.000259742
-0.000262847
-5.62719e-06
1.45879e-05
7.12501e-06
0.00105897
-4.54854e-06
-1.58118e-06
-2.22145e-06
-2.59055e-06
-6.63507e-06
-7.06447e-06
-3.18758e-06
-0.000259684
-0.000263315
-0.000262806
0.00106294
2.02692e-06
-0.00106187
9.59891e-07
-1.68722e-06
-1.72675e-07
-6.91273e-07
-1.46569e-06
-3.10534e-07
-8.22504e-07
3.43478e-07
7.77067e-07
0.00106204
2.02994e-06
-0.00106099
9.81698e-07
-1.71722e-06
-1.67716e-07
-6.91201e-07
-1.46547e-06
-3.07954e-07
-8.27498e-07
3.41041e-07
1.45849e-05
7.11233e-06
0.00105877
-4.52953e-06
-1.57861e-06
-2.21065e-06
-2.57771e-06
-6.60425e-06
-3.17234e-06
-7.04636e-06
-0.000259679
-0.000263259
-0.000262788
2.02624e-06
-0.00106161
9.65124e-07
-1.68712e-06
-1.69999e-07
-6.88359e-07
-1.46298e-06
-3.12904e-07
3.38285e-07
-8.22232e-07
7.77041e-07
0.00106183
2.02957e-06
-0.00106078
9.81731e-07
-1.71713e-06
-1.67601e-07
-6.9096e-07
-1.46533e-06
-3.10387e-07
-8.24689e-07
3.43633e-07
-4.8805e-06
-4.86811e-06
0.000259034
-7.3826e-07
0.000261522
-0.000259443
-2.84334e-07
-2.78904e-07
1.4486e-05
6.8313e-06
0.00105961
-4.55401e-06
-1.63806e-06
-2.22953e-06
-2.58672e-06
-6.61814e-06
-3.18308e-06
-7.05824e-06
-0.000259732
-0.000263357
-0.000262842
2.0313e-06
-0.00106131
9.8068e-07
-1.68465e-06
-1.72548e-07
-6.91031e-07
-1.45985e-06
-3.07887e-07
3.38322e-07
-8.24758e-07
7.38354e-07
0.00106285
2.03194e-06
-0.00106179
9.70236e-07
-1.68219e-06
-1.72703e-07
-6.88696e-07
-1.46293e-06
-3.10381e-07
-8.24926e-07
3.38479e-07
-0.000259458
-2.81466e-07
-2.7912e-07
1.63851e-06
1.6033e-06
-7.0916e-07
-7.17631e-07
0.00025973
-8.65321e-07
-8.2663e-07
0.000262778
-0.000260664
-2.14427e-07
-2.06863e-07
8.30346e-07
0.0010632
-6.55493e-07
8.16407e-07
-1.44944e-07
3.74325e-07
-7.97813e-07
-1.39498e-06
-2.95275e-07
-1.64379e-06
1.63477e-06
8.25133e-07
0.00106363
-6.58346e-07
8.2448e-07
-1.44953e-07
3.79752e-07
-8.00788e-07
-1.40067e-06
-2.9297e-07
0.00106713
1.36825e-06
-0.0010658
6.97807e-07
-1.58932e-06
-1.04708e-07
-6.25108e-07
-1.34768e-06
-2.5285e-07
-7.68386e-07
4.19872e-07
8.70687e-07
0.00106757
1.36852e-06
-0.00106623
6.92724e-07
-1.59465e-06
-1.04829e-07
-6.25335e-07
-1.35067e-06
-2.52966e-07
-7.68731e-07
4.2267e-07
-7.09655e-07
-7.16958e-07
0.000259747
-8.31886e-07
0.000262804
-0.000260677
-2.14475e-07
-2.0935e-07
8.23846e-07
0.00106422
-6.53123e-07
7.80505e-07
-1.47399e-07
3.76773e-07
-8.00857e-07
-1.39812e-06
-2.92922e-07
-1.63851e-06
1.64001e-06
8.30406e-07
0.00106331
-6.58332e-07
8.16512e-07
-1.44985e-07
3.74344e-07
-8.00524e-07
-1.39517e-06
-2.9279e-07
0.00106816
1.36958e-06
-0.00106683
6.96781e-07
-1.55141e-06
-1.09648e-07
-6.20104e-07
-1.34537e-06
-2.50428e-07
-7.68719e-07
4.22518e-07
8.60101e-07
0.00106725
1.36825e-06
-0.00106591
6.97876e-07
-1.58673e-06
-1.07293e-07
-6.2525e-07
-1.3478e-06
-2.52812e-07
-7.68441e-07
4.22649e-07
1.63457e-06
8.30437e-07
0.00106311
-6.58119e-07
8.13838e-07
-1.47379e-07
3.74269e-07
-8.0044e-07
-2.92827e-07
-1.39507e-06
1.36917e-06
-0.00106657
7.02136e-07
-1.55919e-06
-1.12067e-07
-6.19949e-07
-1.34529e-06
-2.50433e-07
4.22396e-07
-7.68538e-07
8.62697e-07
0.00106704
1.36298e-06
-0.0010657
6.97895e-07
-1.58665e-06
-1.07165e-07
-6.25087e-07
-1.34774e-06
-2.52879e-07
-7.68376e-07
4.19885e-07
-7.12423e-07
-7.14408e-07
0.000259709
-8.23815e-07
0.000262752
-0.000260644
-2.14658e-07
-2.0932e-07
1.63604e-06
8.18765e-07
0.00106414
-6.53185e-07
7.75083e-07
-1.52515e-07
3.71632e-07
-7.98075e-07
-2.97763e-07
-1.3926e-06
1.36922e-06
-0.00106624
6.97063e-07
-1.54868e-06
-1.12073e-07
-6.19915e-07
-1.33972e-06
-2.52859e-07
4.14328e-07
-7.68455e-07
8.26492e-07
0.00106807
1.36958e-06
-0.00106673
6.96867e-07
-1.54887e-06
-1.12221e-07
-6.20185e-07
-1.34795e-06
-2.52881e-07
-7.71299e-07
4.19855e-07
-0.000260652
-2.14535e-07
-2.09455e-07
1.58511e-06
1.55236e-06
-6.66836e-07
-6.75174e-07
0.000260982
-8.80064e-07
-8.43835e-07
0.000264056
-0.000261932
-2.02652e-07
-1.9759e-07
6.78178e-07
0.0010685
-6.24383e-07
8.71953e-07
-1.00491e-07
4.2036e-07
-7.66276e-07
-1.34481e-06
-2.5294e-07
-1.59047e-06
1.33954e-06
6.88788e-07
0.00106892
-6.2459e-07
8.77363e-07
-1.00551e-07
4.259e-07
-7.69236e-07
-1.35044e-06
-2.48085e-07
0.00107249
1.36734e-06
-0.00107116
6.86789e-07
-1.58853e-06
-9.56774e-08
-6.21627e-07
-1.35885e-06
-2.47702e-07
-7.66968e-07
4.17091e-07
8.8551e-07
0.00107291
1.36763e-06
-0.00107158
6.86988e-07
-1.59388e-06
-9.32409e-08
-6.24484e-07
-1.36715e-06
-2.42785e-07
-7.72529e-07
4.25361e-07
-6.69888e-07
-6.72087e-07
0.000261003
-8.46509e-07
0.000264084
-0.000261957
-2.00039e-07
-1.94845e-07
6.77202e-07
0.00106953
-6.22031e-07
8.35868e-07
-1.05422e-07
4.22987e-07
-7.69199e-07
-1.3504e-06
-2.48038e-07
-1.5825e-06
1.33936e-06
6.8352e-07
0.0010686
-6.2454e-07
8.69377e-07
-1.00526e-07
4.23118e-07
-7.68919e-07
-1.34757e-06
-2.47912e-07
0.00107352
1.36867e-06
-0.00107219
6.85794e-07
-1.55301e-06
-9.81381e-08
-6.19224e-07
-1.36177e-06
-2.42762e-07
-7.72518e-07
4.19771e-07
8.80147e-07
0.00107259
1.36744e-06
-0.00107126
6.86936e-07
-1.58855e-06
-9.31982e-08
-6.24422e-07
-1.36152e-06
-2.42632e-07
-7.72223e-07
4.19854e-07
1.34432e-06
6.7828e-07
0.00106841
-6.21688e-07
8.66683e-07
-1.05404e-07
4.23021e-07
-7.68872e-07
-2.5047e-07
-1.34753e-06
1.36834e-06
-0.00107192
6.85938e-07
-1.55559e-06
-9.80213e-08
-6.19072e-07
-1.35908e-06
-2.45277e-07
4.1699e-07
-7.69772e-07
8.7475e-07
0.00107239
1.36723e-06
-0.00107106
6.86898e-07
-1.58324e-06
-9.81024e-08
-6.18893e-07
-1.35891e-06
-2.45204e-07
-7.69558e-07
4.17113e-07
-6.69975e-07
-6.74616e-07
0.000260967
-8.4108e-07
0.000264035
-0.000261916
-2.02743e-07
-1.94846e-07
1.34057e-06
6.82502e-07
0.00106944
-6.16775e-07
8.27826e-07
-1.10423e-07
4.20403e-07
-7.66522e-07
-2.50496e-07
-1.34512e-06
1.36824e-06
-0.00107159
6.86022e-07
-1.55027e-06
-1.00493e-07
-6.16365e-07
-1.35878e-06
-2.42726e-07
4.16988e-07
-7.72259e-07
8.41074e-07
0.00107343
1.36871e-06
-0.0010721
6.85853e-07
-1.55048e-06
-1.00641e-07
-6.16637e-07
-1.35652e-06
-2.45243e-07
-7.69836e-07
4.14471e-07
-0.000261929
-2.00161e-07
-1.94981e-07
1.58421e-06
1.54866e-06
-6.57567e-07
-6.6327e-07
0.000262244
-9.08485e-07
-8.72118e-07
0.00026528
-0.000263157
-1.73961e-07
-1.68839e-07
6.60107e-07
0.00107382
-6.15962e-07
8.92873e-07
-8.40685e-08
4.27001e-07
-7.62468e-07
-1.35766e-06
-2.35991e-07
-1.58958e-06
1.3281e-06
6.60293e-07
0.00107424
-6.18826e-07
8.98322e-07
-8.1643e-08
4.35265e-07
-7.68006e-07
-1.36595e-06
-2.31063e-07
0.00107766
1.27695e-06
-0.00107638
6.36764e-07
-1.56801e-06
-6.89265e-08
-5.9548e-07
-1.34527e-06
-2.19568e-07
-7.3838e-07
4.361e-07
9.13942e-07
0.00107808
1.27729e-06
-0.0010768
6.37003e-07
-1.5734e-06
-6.65081e-08
-5.98353e-07
-1.35359e-06
-2.14624e-07
-7.4393e-07
4.44387e-07
-6.60672e-07
-6.6539e-07
0.00026227
-8.74786e-07
0.000265309
-0.000263183
-1.71344e-07
-1.66099e-07
6.59159e-07
0.00107485
-6.13559e-07
8.56607e-07
-8.65204e-08
4.29662e-07
-7.68026e-07
-1.36058e-06
-2.31057e-07
-1.58424e-06
1.32793e-06
6.60243e-07
0.00107392
-6.18762e-07
8.92957e-07
-8.16006e-08
4.29778e-07
-7.6773e-07
-1.36033e-06
-2.30918e-07
0.00107869
1.27812e-06
-0.00107742
6.35838e-07
-1.53231e-06
-7.13614e-08
-5.93051e-07
-1.34819e-06
-2.14602e-07
-7.43946e-07
4.3881e-07
9.0857e-07
0.00107776
1.277e-06
-0.00107649
6.36891e-07
-1.56803e-06
-6.6455e-08
-5.98285e-07
-1.34793e-06
-2.14475e-07
-7.43646e-07
4.38897e-07
1.32775e-06
6.60193e-07
0.00107372
-6.13234e-07
8.87544e-07
-8.64901e-08
4.27002e-07
-7.65046e-07
-2.33496e-07
-1.3577e-06
1.27786e-06
-0.00107715
6.35994e-07
-1.53492e-06
-7.12622e-08
-5.92914e-07
-1.34548e-06
-2.17128e-07
4.36021e-07
-7.4121e-07
9.0313e-07
0.00107756
1.27684e-06
-0.00107628
6.36864e-07
-1.56273e-06
-7.13441e-08
-5.92746e-07
-1.34532e-06
-2.17058e-07
-7.40977e-07
4.36124e-07
-6.5812e-07
-6.65315e-07
0.000262228
-8.69371e-07
0.00026526
-0.000263142
-1.74011e-07
-1.66101e-07
1.32916e-06
6.59186e-07
0.00107476
-6.10963e-07
8.53848e-07
-8.90079e-08
4.24362e-07
-7.65335e-07
-2.33528e-07
-1.35532e-06
1.2777e-06
-0.00107681
6.35998e-07
-1.52955e-06
-7.3704e-08
-5.90189e-07
-1.34521e-06
-2.14568e-07
4.36002e-07
-7.43701e-07
8.69353e-07
0.0010786
1.27811e-06
-0.00107733
6.35884e-07
-1.52977e-06
-7.38415e-08
-5.90439e-07
-1.34293e-06
-2.17084e-07
-7.41256e-07
4.33485e-07
-0.000263154
-1.71458e-07
-1.66229e-07
1.56011e-06
1.52439e-06
-6.237e-07
-6.2939e-07
0.000263449
-1.0635e-06
-1.02726e-06
0.000266135
-0.000264113
3.2052e-08
3.69636e-08
6.04469e-07
0.0010789
-5.81761e-07
9.24153e-07
-5.2041e-08
4.53974e-07
-7.25505e-07
-1.33666e-06
-2.01092e-07
-1.56552e-06
1.23207e-06
6.04661e-07
0.00107933
-5.84627e-07
9.29616e-07
-4.96399e-08
4.62276e-07
-7.31049e-07
-1.34498e-06
-1.96135e-07
0.00108143
7.77128e-07
-0.00108083
3.60522e-07
-1.42889e-06
9.04905e-08
-4.38387e-07
-1.14633e-06
-7.46206e-09
-5.21148e-07
6.50976e-07
1.06897e-06
0.00108186
7.77464e-07
-0.00108126
3.60872e-07
-1.43431e-06
9.33171e-08
-4.41202e-07
-1.15461e-06
-3.2535e-09
-5.26622e-07
6.59356e-07
-6.26825e-07
-6.31542e-07
0.000263475
-1.02989e-06
0.000266164
-0.000264139
3.46464e-08
3.94166e-08
6.03686e-07
0.00107994
-5.79339e-07
8.87746e-07
-5.44756e-08
4.56739e-07
-7.31013e-07
-1.33952e-06
-1.96081e-07
-1.56014e-06
1.23175e-06
6.04545e-07
0.00107901
-5.84549e-07
9.24239e-07
-4.95875e-08
4.56797e-07
-7.30763e-07
-1.33931e-06
-1.95983e-07
0.00108247
7.78093e-07
-0.00108187
3.59981e-07
-1.39285e-06
8.7842e-08
-4.35773e-07
-1.14911e-06
-3.20308e-09
-5.26557e-07
6.53839e-07
1.06361e-06
0.00108154
7.77319e-07
-0.00108094
3.60794e-07
-1.42889e-06
9.3362e-08
-4.4115e-07
-1.14898e-06
-3.20047e-09
-5.26401e-07
6.53784e-07
1.2316e-06
6.04517e-07
0.0010788
-5.79013e-07
9.18804e-07
-5.44289e-08
4.54027e-07
-7.28066e-07
-1.9856e-07
-1.33667e-06
7.77871e-07
-0.00108161
3.60018e-07
-1.39556e-06
8.78835e-08
-4.35708e-07
-1.14647e-06
-5.34805e-09
6.50953e-07
-5.23884e-07
1.05827e-06
0.00108133
7.77282e-07
-0.00108074
3.60654e-07
-1.42349e-06
8.7745e-08
-4.35585e-07
-1.14638e-06
-5.35446e-09
-5.23733e-07
6.5098e-07
-6.24187e-07
-6.31474e-07
0.000263433
-1.02448e-06
0.000266114
-0.000264097
3.21741e-08
3.93914e-08
1.23274e-06
6.03657e-07
0.00107985
-5.76711e-07
8.85005e-07
-5.69166e-08
4.51418e-07
-7.28313e-07
-1.98561e-07
-1.33424e-06
7.77899e-07
-0.00108127
3.60137e-07
-1.39008e-06
8.51119e-08
-4.32899e-07
-1.14618e-06
-3.22621e-09
6.50981e-07
-5.26387e-07
1.02457e-06
0.00108238
7.77986e-07
-0.00108178
3.59968e-07
-1.39026e-06
8.4999e-08
-4.33131e-07
-1.14385e-06
-5.26934e-09
-5.23857e-07
6.48469e-07
-0.00026411
3.45267e-08
3.95586e-08
1.38463e-06
1.34862e-06
-3.96599e-07
-4.02038e-07
0.0002642
-1.18209e-06
-1.14598e-06
0.000266242
-0.00026427
1.75238e-07
1.80366e-07
2.97459e-07
0.00108184
-3.94325e-07
1.10254e-06
1.29138e-07
7.03367e-07
-4.50254e-07
-1.08696e-06
5.92147e-08
-1.39008e-06
6.23613e-07
2.97562e-07
0.00108226
-3.97219e-07
1.10796e-06
1.31864e-07
7.11622e-07
-4.55759e-07
-1.09529e-06
6.48261e-08
0.00108235
2.62937e-07
-0.00108226
1.45674e-07
-1.29548e-06
2.0523e-07
-3.09356e-07
-9.64108e-07
1.80076e-07
-3.17574e-07
8.16594e-07
1.18753e-06
0.00108278
2.63048e-07
-0.00108268
1.45695e-07
-1.30091e-06
2.08037e-07
-3.12144e-07
-9.72451e-07
1.85574e-07
-3.23107e-07
8.2487e-07
-3.99494e-07
-4.04276e-07
0.000264226
-1.14864e-06
0.000266271
-0.000264296
1.7799e-07
1.82785e-07
2.96722e-07
0.00108287
-3.91756e-07
1.06631e-06
1.26507e-07
7.06119e-07
-4.55735e-07
-1.08982e-06
6.48616e-08
-1.3847e-06
6.23614e-07
2.97524e-07
0.00108194
-3.97155e-07
1.10258e-06
1.31931e-07
7.06055e-07
-4.55586e-07
-1.08972e-06
6.4867e-08
0.00108339
2.63446e-07
-0.0010833
1.45143e-07
-1.25932e-06
2.02711e-07
-3.0668e-07
-9.66967e-07
1.85526e-07
-3.23151e-07
8.19363e-07
1.18216e-06
0.00108246
2.6314e-07
-0.00108236
1.45661e-07
-1.29552e-06
2.08033e-07
-3.12135e-07
-9.66877e-07
1.85549e-07
-3.2303e-07
8.19287e-07
6.23613e-07
2.97487e-07
0.00108174
-3.91584e-07
1.09728e-06
1.26355e-07
7.0334e-07
-4.52898e-07
6.19675e-08
-1.08706e-06
2.63327e-07
-0.00108303
1.45186e-07
-1.26195e-06
2.02709e-07
-3.06648e-07
-9.6424e-07
1.82809e-07
8.16607e-07
-3.20384e-07
1.17677e-06
0.00108225
2.63104e-07
-0.00108216
1.4571e-07
-1.29014e-06
2.02511e-07
-3.06601e-07
-9.64183e-07
1.82716e-07
-3.20282e-07
8.16592e-07
-3.96935e-07
-4.04255e-07
0.000264185
-1.14317e-06
0.000266221
-0.000264254
1.75357e-07
1.82793e-07
6.24265e-07
2.96883e-07
0.00108278
-3.8912e-07
1.06366e-06
1.23676e-07
7.00853e-07
-4.53038e-07
6.20458e-08
-1.08453e-06
2.63303e-07
-0.00108269
1.45322e-07
-1.25661e-06
1.99896e-07
-3.03967e-07
-9.64014e-07
1.85478e-07
8.16532e-07
-3.22972e-07
1.1433e-06
0.0010833
2.63431e-07
-0.00108321
1.45317e-07
-1.2567e-06
1.9996e-07
-3.04024e-07
-9.61665e-07
1.82831e-07
-3.20411e-07
8.14069e-07
-0.000264267
1.77759e-07
1.82962e-07
1.27528e-06
1.23911e-06
-2.67061e-07
-2.72423e-07
0.000264267
-1.23163e-06
-1.19284e-06
0.000266225
-0.00026425
2.22119e-07
2.2735e-07
1.017e-07
0.0010824
-2.9106e-07
1.20299e-06
2.24383e-07
8.41587e-07
-2.91256e-07
-9.35849e-07
2.03256e-07
-1.2807e-06
1.77019e-07
1.01667e-07
0.00108283
-2.93827e-07
1.20577e-06
2.24468e-07
8.49869e-07
-2.96763e-07
-9.44168e-07
2.08731e-07
0.00108242
3.74617e-08
-0.00108242
2.45019e-08
-1.24438e-06
2.49836e-07
-2.64215e-07
-8.93948e-07
2.35275e-07
-2.53799e-07
8.76941e-07
1.23442e-06
0.00108285
3.75121e-08
-0.00108285
2.44206e-08
-1.24712e-06
2.49927e-07
-2.64253e-07
-8.99574e-07
2.40753e-07
-2.59297e-07
8.8257e-07
-2.69876e-07
-2.74748e-07
0.000264293
-1.19551e-06
0.000266251
-0.000264276
2.24897e-07
2.29746e-07
1.0128e-07
0.00108344
-2.88376e-07
1.16421e-06
2.19125e-07
8.44366e-07
-2.9681e-07
-9.38672e-07
2.08732e-07
-1.27533e-06
1.77089e-07
1.01674e-07
0.0010825
-2.93833e-07
1.20039e-06
2.24456e-07
8.44291e-07
-2.96685e-07
-9.386e-07
2.08708e-07
0.00108347
3.74464e-08
-0.00108347
2.42608e-08
-1.20556e-06
2.44544e-07
-2.58848e-07
-8.96704e-07
2.40815e-07
-2.59259e-07
8.7981e-07
1.22903e-06
0.00108253
3.74747e-08
-0.00108253
2.44323e-08
-1.24176e-06
2.49912e-07
-2.64259e-07
-8.96663e-07
2.40746e-07
-2.592e-07
8.79678e-07
1.77068e-07
1.01728e-07
0.0010823
-2.88292e-07
1.195e-06
2.18932e-07
8.41597e-07
-2.93961e-07
2.05905e-07
-9.35909e-07
3.73902e-08
-0.0010832
2.42172e-08
-1.20819e-06
2.44564e-07
-2.58798e-07
-8.93989e-07
2.38088e-07
8.77045e-07
-2.56503e-07
1.22363e-06
0.00108233
3.75162e-08
-0.00108233
2.44728e-08
-1.23638e-06
2.44388e-07
-2.58719e-07
-8.93983e-07
2.37951e-07
-2.56464e-07
8.76975e-07
-2.67347e-07
-2.74712e-07
0.000264252
-1.19009e-06
0.000266201
-0.000264234
2.22335e-07
2.29692e-07
1.77267e-07
1.01401e-07
0.00108335
-2.85701e-07
1.16154e-06
2.16394e-07
8.39089e-07
-2.9408e-07
2.06031e-07
-9.33382e-07
3.74054e-08
-0.00108286
2.42336e-08
-1.20278e-06
2.41813e-07
-2.56052e-07
-8.93806e-07
2.40719e-07
8.76926e-07
-2.59149e-07
1.19019e-06
0.00108338
3.74502e-08
-0.00108338
2.42816e-08
-1.20291e-06
2.41861e-07
-2.56118e-07
-8.91429e-07
2.38107e-07
-2.56551e-07
8.74502e-07
-0.000264247
2.24642e-07
2.29922e-07
1.24025e-06
1.20144e-06
-2.29033e-07
-2.34255e-07
0.000264246
-1.23802e-06
-1.19923e-06
0.00026622
-0.000264243
2.27454e-07
2.32691e-07
1.43466e-08
0.00108242
-2.60605e-07
1.23495e-06
2.52819e-07
8.80727e-07
-2.49632e-07
-8.89303e-07
2.41449e-07
-1.243e-06
1.97112e-08
1.42912e-08
0.00108285
-2.60656e-07
1.23773e-06
2.52871e-07
8.86353e-07
-2.55137e-07
-8.94915e-07
2.44219e-07
0.00108242
1.23775e-09
-0.00108242
4.04264e-09
-1.23631e-06
2.5551e-07
-2.57253e-07
-8.84908e-07
2.44712e-07
-2.48361e-07
8.84243e-07
1.24079e-06
0.00108285
1.26132e-09
-0.00108285
4.02387e-09
-1.23908e-06
2.55564e-07
-2.57295e-07
-8.90532e-07
2.47498e-07
-2.51174e-07
8.89875e-07
-2.31782e-07
-2.36602e-07
0.000264272
-1.20189e-06
0.000266246
-0.000264269
2.3023e-07
2.35064e-07
1.41503e-08
0.00108347
-2.55249e-07
1.19616e-06
2.47496e-07
8.83595e-07
-2.55103e-07
-8.92043e-07
2.44281e-07
-1.23764e-06
1.96714e-08
1.4315e-08
0.00108253
-2.60666e-07
1.23234e-06
2.52856e-07
8.83458e-07
-2.5505e-07
-8.92023e-07
2.44207e-07
0.00108346
1.12453e-09
-0.00108346
3.86883e-09
-1.1975e-06
2.50187e-07
-2.51871e-07
-8.87639e-07
2.47554e-07
-2.51128e-07
8.87119e-07
1.2354e-06
0.00108253
1.25186e-09
-0.00108253
4.02735e-09
-1.23371e-06
2.55546e-07
-2.57297e-07
-8.87636e-07
2.47468e-07
-2.51094e-07
8.86972e-07
1.97114e-08
1.43417e-08
0.00108233
-2.55126e-07
1.22695e-06
2.4733e-07
8.80756e-07
-2.52308e-07
2.41419e-07
-8.8933e-07
1.12663e-09
-0.0010832
3.88379e-09
-1.20014e-06
2.50196e-07
-2.51846e-07
-8.84933e-07
2.44818e-07
8.84356e-07
-2.48397e-07
1.23001e-06
0.00108232
1.25956e-09
-0.00108232
4.03462e-09
-1.22833e-06
2.50027e-07
-2.51753e-07
-8.84944e-07
2.44691e-07
-2.4834e-07
8.84275e-07
-2.29209e-07
-2.36599e-07
0.000264231
-1.19646e-06
0.000266196
-0.000264227
2.27648e-07
2.35023e-07
1.96136e-08
1.41772e-08
0.00108338
-2.52525e-07
1.1935e-06
2.44802e-07
8.78288e-07
-2.52394e-07
2.41575e-07
-8.86766e-07
1.12822e-09
-0.00108286
3.8564e-09
-1.19473e-06
2.47444e-07
-2.49092e-07
-8.84753e-07
2.47455e-07
8.84238e-07
-2.51028e-07
1.19657e-06
0.00108337
1.13325e-09
-0.00108337
3.88859e-09
-1.19485e-06
2.47497e-07
-2.49154e-07
-8.82368e-07
2.44847e-07
-2.48425e-07
8.81813e-07
-0.00026424
2.29965e-07
2.35255e-07
1.23608e-06
1.19726e-06
-2.25361e-07
-2.30575e-07
0.000264242
-1.23834e-06
-1.19954e-06
0.000266219
-0.000264242
2.27666e-07
2.32909e-07
3.30828e-09
0.00108242
-2.57056e-07
1.2382e-06
2.55674e-07
8.84463e-07
-2.48121e-07
-8.84642e-07
2.44919e-07
-1.23885e-06
-1.1913e-11
3.27941e-09
0.00108285
-2.57098e-07
1.24098e-06
2.55725e-07
8.90091e-07
-2.50934e-07
-8.90266e-07
2.47699e-07
0.00108241
-1.28181e-09
-0.00108241
2.8139e-09
-1.2359e-06
2.55784e-07
-2.56903e-07
-8.84456e-07
2.45046e-07
-2.47948e-07
8.846e-07
1.24112e-06
0.00108285
-1.28326e-09
-0.00108285
2.76959e-09
-1.23866e-06
2.55847e-07
-2.56938e-07
-8.90075e-07
2.47827e-07
-2.50753e-07
8.90231e-07
-2.28112e-07
-2.32946e-07
0.000264268
-1.2022e-06
0.000266246
-0.000264268
2.30444e-07
2.35286e-07
3.15079e-09
0.00108346
-2.51674e-07
1.19941e-06
2.50352e-07
8.87342e-07
-2.50888e-07
-8.87372e-07
2.47761e-07
-1.23348e-06
-3.94106e-11
3.2935e-09
0.00108253
-2.571e-07
1.23559e-06
2.55711e-07
8.87191e-07
-2.50855e-07
-8.87369e-07
2.47672e-07
0.00108346
-1.45496e-09
-0.00108346
2.6496e-09
-1.19709e-06
2.50462e-07
-2.51522e-07
-8.87176e-07
2.47888e-07
-2.50709e-07
8.87483e-07
1.23573e-06
0.00108253
-1.28594e-09
-0.00108253
2.76777e-09
-1.23329e-06
2.55829e-07
-2.56941e-07
-8.8718e-07
2.47795e-07
-2.5068e-07
8.87326e-07
-3.41011e-11
3.29475e-09
0.00108232
-2.51555e-07
1.2302e-06
2.5019e-07
8.84495e-07
-2.48097e-07
2.44899e-07
-8.84675e-07
-1.46791e-09
-0.0010832
2.65548e-09
-1.19972e-06
2.50473e-07
-2.51492e-07
-8.84469e-07
2.45151e-07
8.84718e-07
-2.47972e-07
1.23033e-06
0.00108232
-1.29837e-09
-0.00108232
2.7775e-09
-1.22791e-06
2.5031e-07
-2.51396e-07
-8.84483e-07
2.45024e-07
-2.4792e-07
8.84634e-07
-2.25548e-07
-2.32925e-07
0.000264227
-1.19678e-06
0.000266196
-0.000264226
2.27865e-07
2.35244e-07
-2.37006e-10
3.16076e-09
0.00108337
-2.48953e-07
1.19676e-06
2.47666e-07
8.82037e-07
-2.48179e-07
2.45058e-07
-8.82095e-07
-1.46444e-09
-0.00108285
2.61989e-09
-1.19432e-06
2.47724e-07
-2.48739e-07
-8.8429e-07
2.4779e-07
8.84599e-07
-2.50607e-07
1.19689e-06
0.00108337
-1.46146e-09
-0.00108337
2.6365e-09
-1.19443e-06
2.47782e-07
-2.48796e-07
-8.81904e-07
2.45181e-07
-2.48003e-07
8.82173e-07
-0.000264239
2.30186e-07
2.35474e-07
1.23589e-06
1.19708e-06
-2.25226e-07
-2.30433e-07
0.000264242
-1.23833e-06
-1.19952e-06
0.000266219
-0.000264242
2.27615e-07
2.32906e-07
2.7947e-09
0.00108241
-2.56902e-07
1.23834e-06
2.55789e-07
8.846e-07
-2.47951e-07
-8.84458e-07
2.45046e-07
-1.23865e-06
-1.28941e-09
-2.52423e-09
0.00108285
-2.56933e-07
1.24113e-06
2.55858e-07
8.90196e-07
-2.5076e-07
-8.90082e-07
2.47827e-07
0.00108241
-1.26423e-09
-0.00108241
2.85361e-09
-1.2359e-06
2.55759e-07
-2.56927e-07
-8.84481e-07
2.44993e-07
-2.47997e-07
8.84569e-07
1.24113e-06
0.00108285
-1.33862e-09
-0.00108285
7.85198e-09
-1.23865e-06
2.55858e-07
-2.56927e-07
-8.90027e-07
2.4783e-07
-2.50746e-07
8.90237e-07
-2.27973e-07
-2.32799e-07
0.000264268
-1.2022e-06
0.000266246
-0.000264268
2.30442e-07
2.35293e-07
2.64496e-09
0.00108346
-2.51523e-07
1.19954e-06
2.50463e-07
8.87485e-07
-2.50711e-07
-8.87177e-07
2.47888e-07
-1.23328e-06
-1.34101e-09
2.74428e-09
0.00108253
-2.56934e-07
1.23574e-06
2.55839e-07
8.87331e-07
-2.50679e-07
-8.87177e-07
2.47799e-07
0.00108346
-1.52086e-09
-0.00108346
2.67667e-09
-1.19711e-06
2.50431e-07
-2.51551e-07
-8.87168e-07
2.47889e-07
-2.50705e-07
8.87488e-07
1.23574e-06
0.00108253
-1.366e-09
-0.00108253
2.71906e-09
-1.23328e-06
2.55838e-07
-2.56931e-07
-8.87173e-07
2.47793e-07
-2.50675e-07
8.87326e-07
-1.351e-09
2.75508e-09
0.00108232
-2.5139e-07
1.23034e-06
2.50316e-07
8.84639e-07
-2.47915e-07
2.4503e-07
-8.84478e-07
-1.5585e-09
-0.0010832
2.63352e-09
-1.19972e-06
2.47742e-07
-2.48757e-07
-8.84457e-07
2.45126e-07
8.84719e-07
-2.47939e-07
1.23034e-06
0.00108232
-1.384e-09
-0.00108232
2.74281e-09
-1.2279e-06
2.50315e-07
-2.51389e-07
-8.84475e-07
2.45022e-07
-2.47914e-07
8.84634e-07
-2.25407e-07
-2.32778e-07
0.000264226
-1.19679e-06
0.000266196
-0.000264226
2.27866e-07
2.35248e-07
-1.51276e-09
2.6206e-09
0.00108337
-2.4879e-07
1.1969e-06
2.47788e-07
8.82179e-07
-2.47999e-07
2.45187e-07
-8.819e-07
-1.56236e-09
-0.00108285
2.58968e-09
-1.19431e-06
2.47729e-07
-2.48733e-07
-8.84279e-07
2.47791e-07
8.84602e-07
-2.506e-07
1.1969e-06
0.00108337
-1.54991e-09
-0.00108337
2.60134e-09
-1.19442e-06
2.47788e-07
-2.48788e-07
-8.81895e-07