/*--------------------------------*- C++ -*----------------------------------*\
| =========                 |                                                 |
| \\      /  F ield         | OpenFOAM: The Open Source CFD Toolbox           |
|  \\    /   O peration     | Version:  2206                                  |
|   \\  /    A nd           | Website:  www.openfoam.com                      |
|    \\/     M anipulation  |                                                 |
\*---------------------------------------------------------------------------*/
FoamFile
{
    version     2.0;
    format      ascii;
    arch        "LSB;label=32;scalar=64";
    class       volScalarField;
    location    "6";
    object      epsilon;
}
// * * * * * * * * * * * * * * * * * * * * * * * * * * * * * * * * * * * * * //

dimensions      [0 2 -3 0 0 0 0];

internalField   nonuniform List<scalar> 
28335
(
4.6002e-07
4.62276e-07
4.62277e-07
4.65638e-07
4.59766e-07
4.62041e-07
4.62042e-07
4.65426e-07
4.59744e-07
4.62021e-07
4.62022e-07
4.65411e-07
4.59743e-07
4.6202e-07
4.62021e-07
4.65409e-07
4.59743e-07
4.6202e-07
4.62021e-07
4.65409e-07
4.59743e-07
4.6202e-07
4.62021e-07
4.65409e-07
4.59743e-07
4.6202e-07
4.62021e-07
4.65409e-07
4.59743e-07
4.6202e-07
4.62021e-07
4.65409e-07
4.59743e-07
4.6202e-07
4.62021e-07
4.65409e-07
4.59743e-07
4.6202e-07
4.62021e-07
4.65409e-07
4.59743e-07
4.6202e-07
4.62021e-07
4.65409e-07
4.59743e-07
4.6202e-07
4.62021e-07
4.65409e-07
4.59743e-07
4.6202e-07
4.62021e-07
4.65409e-07
4.59743e-07
4.6202e-07
4.62021e-07
4.65409e-07
4.59743e-07
4.6202e-07
4.62021e-07
4.65409e-07
4.59743e-07
4.6202e-07
4.62021e-07
4.65409e-07
4.59743e-07
4.6202e-07
4.62021e-07
4.65409e-07
4.65605e-07
4.62289e-07
4.62289e-07
4.65603e-07
4.62288e-07
4.62291e-07
4.62287e-07
4.62289e-07
4.65605e-07
4.62288e-07
4.62288e-07
4.65602e-07
4.65644e-07
4.65399e-07
4.6228e-07
4.6228e-07
4.62085e-07
4.62085e-07
4.65643e-07
4.65397e-07
4.62279e-07
4.62281e-07
4.62084e-07
4.62087e-07
4.62279e-07
4.62083e-07
4.62085e-07
4.65645e-07
4.654e-07
4.62278e-07
4.62085e-07
4.62084e-07
4.65399e-07
4.65429e-07
4.65367e-07
4.62046e-07
4.62046e-07
4.62022e-07
4.62022e-07
4.65427e-07
4.65365e-07
4.62045e-07
4.62048e-07
4.62021e-07
4.62023e-07
4.62046e-07
4.62021e-07
4.62022e-07
4.6543e-07
4.65368e-07
4.62045e-07
4.62022e-07
4.62021e-07
4.65371e-07
4.65409e-07
4.65369e-07
4.62026e-07
4.62026e-07
4.62022e-07
4.62023e-07
4.65408e-07
4.65367e-07
4.62025e-07
4.62028e-07
4.62022e-07
4.62024e-07
4.62026e-07
4.62021e-07
4.62023e-07
4.6541e-07
4.65369e-07
4.62025e-07
4.62022e-07
4.62022e-07
4.65371e-07
4.65409e-07
4.65369e-07
4.62026e-07
4.62026e-07
4.62023e-07
4.62023e-07
4.65408e-07
4.65367e-07
4.62025e-07
4.62027e-07
4.62022e-07
4.62024e-07
4.62026e-07
4.62021e-07
4.62023e-07
4.6541e-07
4.6537e-07
4.62025e-07
4.62022e-07
4.62022e-07
4.6537e-07
4.6541e-07
4.65369e-07
4.62026e-07
4.62026e-07
4.62023e-07
4.62023e-07
4.65408e-07
4.65367e-07
4.62025e-07
4.62027e-07
4.62022e-07
4.62024e-07
4.62026e-07
4.62021e-07
4.62023e-07
4.65411e-07
4.6537e-07
4.62025e-07
4.62022e-07
4.62022e-07
4.6537e-07
4.6541e-07
4.65369e-07
4.62026e-07
4.62026e-07
4.62023e-07
4.62023e-07
4.65408e-07
4.65367e-07
4.62025e-07
4.62027e-07
4.62022e-07
4.62024e-07
4.62026e-07
4.62021e-07
4.62023e-07
4.6541e-07
4.6537e-07
4.62025e-07
4.62022e-07
4.62022e-07
4.6537e-07
4.65409e-07
4.65369e-07
4.62026e-07
4.62026e-07
4.62023e-07
4.62023e-07
4.65408e-07
4.65368e-07
4.62025e-07
4.62027e-07
4.62022e-07
4.62024e-07
4.62026e-07
4.62021e-07
4.62023e-07
4.6541e-07
4.65369e-07
4.62025e-07
4.62022e-07
4.62022e-07
4.6537e-07
4.65409e-07
4.65369e-07
4.62026e-07
4.62026e-07
4.62023e-07
4.62023e-07
4.65408e-07
4.65367e-07
4.62025e-07
4.62027e-07
4.62022e-07
4.62024e-07
4.62026e-07
4.62021e-07
4.62023e-07
4.6541e-07
4.65369e-07
4.62025e-07
4.62022e-07
4.62022e-07
4.6537e-07
4.6541e-07
4.65369e-07
4.62026e-07
4.62026e-07
4.62023e-07
4.62023e-07
4.65408e-07
4.65367e-07
4.62025e-07
4.62027e-07
4.62022e-07
4.62024e-07
4.62026e-07
4.62021e-07
4.62023e-07
4.6541e-07
4.6537e-07
4.62025e-07
4.62022e-07
4.62022e-07
4.6537e-07
4.65409e-07
4.65369e-07
4.62026e-07
4.62026e-07
4.62023e-07
4.62023e-07
4.65408e-07
4.65367e-07
4.62025e-07
4.62027e-07
4.62022e-07
4.62024e-07
4.62026e-07
4.62021e-07
4.62023e-07
4.6541e-07
4.6537e-07
4.62025e-07
4.62022e-07
4.62022e-07
4.6537e-07
4.6541e-07
4.65369e-07
4.62026e-07
4.62026e-07
4.62023e-07
4.62023e-07
4.65408e-07
4.65368e-07
4.62025e-07
4.62027e-07
4.62022e-07
4.62024e-07
4.62026e-07
4.62021e-07
4.62023e-07
4.65411e-07
4.6537e-07
4.62025e-07
4.62022e-07
4.62022e-07
4.6537e-07
4.65409e-07
4.65369e-07
4.62026e-07
4.62026e-07
4.62023e-07
4.62023e-07
4.65408e-07
4.65367e-07
4.62025e-07
4.62027e-07
4.62022e-07
4.62024e-07
4.62026e-07
4.62021e-07
4.62023e-07
4.6541e-07
4.6537e-07
4.62025e-07
4.62022e-07
4.62022e-07
4.6537e-07
4.6541e-07
4.65369e-07
4.62026e-07
4.62026e-07
4.62023e-07
4.62023e-07
4.65408e-07
4.65367e-07
4.62025e-07
4.62027e-07
4.62022e-07
4.62024e-07
4.62026e-07
4.62021e-07
4.62023e-07
4.6541e-07
4.65369e-07
4.62025e-07
4.62022e-07
4.62022e-07
4.6537e-07
4.6541e-07
4.65369e-07
4.62026e-07
4.62026e-07
4.62023e-07
4.62023e-07
4.65408e-07
4.65367e-07
4.62025e-07
4.62027e-07
4.62022e-07
4.62024e-07
4.62026e-07
4.62021e-07
4.62023e-07
4.6541e-07
4.6537e-07
4.62025e-07
4.62022e-07
4.62022e-07
4.6537e-07
4.6541e-07
4.65369e-07
4.62026e-07
4.62026e-07
4.62023e-07
4.62023e-07
4.65408e-07
4.65367e-07
4.62025e-07
4.62027e-07
4.62022e-07
4.62024e-07
4.62026e-07
4.62021e-07
4.62023e-07
4.6541e-07
4.6537e-07
4.62025e-07
4.62022e-07
4.62022e-07
4.6537e-07
4.65409e-07
4.65369e-07
4.62026e-07
4.62026e-07
4.62023e-07
4.62023e-07
4.65408e-07
4.65368e-07
4.62025e-07
4.62027e-07
4.62022e-07
4.62024e-07
4.62026e-07
4.62021e-07
4.62023e-07
4.65411e-07
4.65369e-07
4.62025e-07
4.62022e-07
4.62022e-07
4.6537e-07
4.65409e-07
4.62026e-07
4.62026e-07
4.65408e-07
4.62025e-07
4.62026e-07
4.62025e-07
4.6541e-07
4.62024e-07
1.10557e-06
5.63312e-06
1.9493e-05
1.10549e-06
5.63398e-06
4.60032e-07
4.60032e-07
4.60032e-07
4.60033e-07
5.43495e-07
4.62293e-07
9.49872e-07
4.60424e-07
1.94941e-05
5.43493e-07
4.62294e-07
4.60424e-07
9.49854e-07
4.65597e-07
1.74584e-06
1.74618e-06
1.10609e-06
5.63336e-06
1.10582e-06
5.63597e-06
1.94907e-05
1.95076e-05
1.10601e-06
5.63426e-06
1.10569e-06
5.63681e-06
4.60022e-07
4.60022e-07
4.60022e-07
4.59813e-07
4.59812e-07
4.59812e-07
4.59812e-07
5.43538e-07
9.50153e-07
4.60406e-07
4.62244e-07
5.43555e-07
9.50258e-07
4.60372e-07
1.94929e-05
1.9509e-05
5.43537e-07
4.60406e-07
9.50104e-07
4.62245e-07
5.43556e-07
4.60372e-07
9.50243e-07
1.74614e-06
1.74647e-06
4.65545e-07
1.74707e-06
1.74741e-06
1.10723e-06
5.64155e-06
1.10741e-06
5.64135e-06
1.95337e-05
1.95331e-05
1.10713e-06
5.64249e-06
1.10729e-06
5.64224e-06
4.59769e-07
4.5977e-07
4.5977e-07
4.59744e-07
4.59743e-07
4.59743e-07
4.59743e-07
5.43651e-07
9.51258e-07
4.60156e-07
4.62029e-07
5.43705e-07
9.51033e-07
4.60143e-07
1.95355e-05
1.95346e-05
5.43652e-07
4.60156e-07
9.51204e-07
4.6203e-07
5.4371e-07
4.60143e-07
9.50998e-07
1.74947e-06
1.74981e-06
4.65365e-07
1.74923e-06
1.74957e-06
1.10722e-06
5.64149e-06
1.10741e-06
5.64135e-06
1.95331e-05
1.9533e-05
1.10712e-06
5.64238e-06
1.10728e-06
5.64221e-06
4.59748e-07
4.59748e-07
4.59748e-07
4.59744e-07
4.59744e-07
4.59744e-07
4.59744e-07
5.43651e-07
9.51283e-07
4.60134e-07
4.62024e-07
5.43702e-07
9.51034e-07
4.60138e-07
1.95349e-05
1.95345e-05
5.43649e-07
4.60134e-07
9.5123e-07
4.62025e-07
5.43704e-07
4.60138e-07
9.50999e-07
1.74943e-06
1.74976e-06
4.65367e-07
1.74922e-06
1.74956e-06
1.10722e-06
5.64149e-06
1.10741e-06
5.64135e-06
1.95331e-05
1.9533e-05
1.10712e-06
5.64237e-06
1.10727e-06
5.64221e-06
4.59747e-07
4.59747e-07
4.59747e-07
4.59744e-07
4.59744e-07
4.59744e-07
4.59744e-07
5.43648e-07
9.51283e-07
4.60134e-07
4.62024e-07
5.43703e-07
9.51034e-07
4.60137e-07
1.95349e-05
1.95345e-05
5.43648e-07
4.60134e-07
9.51229e-07
4.62024e-07
5.43706e-07
4.60137e-07
9.50999e-07
1.74942e-06
1.74976e-06
4.65368e-07
1.74922e-06
1.74956e-06
1.10722e-06
5.64149e-06
1.10741e-06
5.64135e-06
1.95331e-05
1.9533e-05
1.10712e-06
5.64237e-06
1.10727e-06
5.64221e-06
4.59747e-07
4.59747e-07
4.59747e-07
4.59744e-07
4.59744e-07
4.59744e-07
4.59744e-07
5.43648e-07
9.51284e-07
4.60134e-07
4.62024e-07
5.43704e-07
9.51034e-07
4.60137e-07
1.95349e-05
1.95345e-05
5.43648e-07
4.60134e-07
9.51229e-07
4.62024e-07
5.43706e-07
4.60137e-07
9.50999e-07
1.74942e-06
1.74976e-06
4.65368e-07
1.74922e-06
1.74956e-06
1.10722e-06
5.64148e-06
1.10741e-06
5.64135e-06
1.95331e-05
1.9533e-05
1.10712e-06
5.64231e-06
1.10727e-06
5.64212e-06
4.59747e-07
4.59747e-07
4.59747e-07
4.59744e-07
4.59744e-07
4.59744e-07
4.59744e-07
5.43648e-07
9.51283e-07
4.60134e-07
4.62024e-07
5.43703e-07
9.51034e-07
4.60137e-07
1.95349e-05
1.95345e-05
5.43647e-07
4.60134e-07
9.51229e-07
4.62025e-07
5.43706e-07
4.60137e-07
9.50999e-07
1.74942e-06
1.74976e-06
4.65368e-07
1.74922e-06
1.74956e-06
1.10722e-06
5.64149e-06
1.10741e-06
5.64135e-06
1.95328e-05
1.95327e-05
1.10712e-06
5.64228e-06
1.10727e-06
5.64211e-06
4.59747e-07
4.59747e-07
4.59747e-07
4.59744e-07
4.59744e-07
4.59744e-07
4.59744e-07
5.43648e-07
9.51284e-07
4.60134e-07
4.62024e-07
5.43704e-07
9.51034e-07
4.60137e-07
1.95349e-05
1.95345e-05
5.43648e-07
4.60134e-07
9.51229e-07
4.62025e-07
5.43706e-07
4.60137e-07
9.50999e-07
1.74942e-06
1.74976e-06
4.65368e-07
1.74922e-06
1.74956e-06
1.10722e-06
5.64148e-06
1.10741e-06
5.64135e-06
1.95329e-05
1.95327e-05
1.10712e-06
5.64228e-06
1.10727e-06
5.64211e-06
4.59747e-07
4.59747e-07
4.59747e-07
4.59744e-07
4.59744e-07
4.59744e-07
4.59744e-07
5.43648e-07
9.51283e-07
4.60134e-07
4.62024e-07
5.43704e-07
9.51034e-07
4.60137e-07
1.95349e-05
1.95345e-05
5.43648e-07
4.60134e-07
9.51229e-07
4.62024e-07
5.43707e-07
4.60137e-07
9.50998e-07
1.74942e-06
1.74976e-06
4.65368e-07
1.74922e-06
1.74956e-06
1.10722e-06
5.64149e-06
1.10741e-06
5.64135e-06
1.95328e-05
1.95327e-05
1.10712e-06
5.64228e-06
1.10727e-06
5.64211e-06
4.59747e-07
4.59747e-07
4.59747e-07
4.59744e-07
4.59744e-07
4.59744e-07
4.59744e-07
5.43649e-07
9.51283e-07
4.60134e-07
4.62024e-07
5.43704e-07
9.51034e-07
4.60137e-07
1.95349e-05
1.95345e-05
5.43648e-07
4.60134e-07
9.51229e-07
4.62024e-07
5.43707e-07
4.60137e-07
9.50998e-07
1.74942e-06
1.74976e-06
4.65368e-07
1.74922e-06
1.74956e-06
1.10722e-06
5.64148e-06
1.10741e-06
5.64135e-06
1.95328e-05
1.95327e-05
1.10712e-06
5.64228e-06
1.10727e-06
5.64211e-06
4.59747e-07
4.59747e-07
4.59747e-07
4.59744e-07
4.59744e-07
4.59744e-07
4.59744e-07
5.43649e-07
9.51283e-07
4.60134e-07
4.62024e-07
5.43704e-07
9.51034e-07
4.60137e-07
1.95349e-05
1.95345e-05
5.43648e-07
4.60134e-07
9.51229e-07
4.62025e-07
5.43707e-07
4.60137e-07
9.50998e-07
1.74942e-06
1.74976e-06
4.65368e-07
1.74922e-06
1.74956e-06
1.10722e-06
5.64148e-06
1.10741e-06
5.64135e-06
1.95328e-05
1.95327e-05
1.10712e-06
5.64228e-06
1.10727e-06
5.64211e-06
4.59747e-07
4.59747e-07
4.59747e-07
4.59744e-07
4.59744e-07
4.59744e-07
4.59744e-07
5.43649e-07
9.51283e-07
4.60134e-07
4.62024e-07
5.43704e-07
9.51033e-07
4.60137e-07
1.95349e-05
1.95345e-05
5.43648e-07
4.60134e-07
9.51229e-07
4.62025e-07
5.43707e-07
4.60137e-07
9.50998e-07
1.74942e-06
1.74976e-06
4.65368e-07
1.74922e-06
1.74956e-06
1.10722e-06
5.64148e-06
1.10741e-06
5.64135e-06
1.95328e-05
1.95327e-05
1.10712e-06
5.64228e-06
1.10727e-06
5.64211e-06
4.59747e-07
4.59748e-07
4.59747e-07
4.59744e-07
4.59744e-07
4.59744e-07
4.59744e-07
5.43649e-07
9.51283e-07
4.60134e-07
4.62024e-07
5.43703e-07
9.51034e-07
4.60137e-07
1.95349e-05
1.95345e-05
5.43654e-07
4.60134e-07
9.51229e-07
4.62025e-07
5.43709e-07
4.60137e-07
9.50999e-07
1.74942e-06
1.74976e-06
4.65368e-07
1.74922e-06
1.74956e-06
1.10722e-06
5.64148e-06
1.10741e-06
5.64135e-06
1.95328e-05
1.95327e-05
1.10712e-06
5.64228e-06
1.10727e-06
5.64211e-06
4.59747e-07
4.59747e-07
4.59747e-07
4.59744e-07
4.59744e-07
4.59744e-07
4.59744e-07
5.43649e-07
9.51283e-07
4.60134e-07
4.62024e-07
5.43704e-07
9.51034e-07
4.60137e-07
1.95349e-05
1.95345e-05
5.43663e-07
4.60134e-07
9.5123e-07
4.62024e-07
5.43719e-07
4.60137e-07
9.50999e-07
1.74942e-06
1.74976e-06
4.65367e-07
1.74922e-06
1.74956e-06
1.10722e-06
5.64148e-06
1.10741e-06
5.64135e-06
1.95328e-05
1.95327e-05
1.10712e-06
5.64228e-06
1.10727e-06
5.64211e-06
4.59747e-07
4.59747e-07
4.59747e-07
4.59744e-07
4.59744e-07
4.59744e-07
4.59744e-07
5.43647e-07
9.51283e-07
4.60134e-07
4.62024e-07
5.43703e-07
9.51034e-07
4.60137e-07
1.95349e-05
1.95345e-05
5.43659e-07
4.60134e-07
9.5123e-07
4.62025e-07
5.43717e-07
4.60137e-07
9.50999e-07
1.74942e-06
1.74976e-06
4.65368e-07
1.74922e-06
1.74956e-06
1.10722e-06
5.64148e-06
1.10741e-06
5.64135e-06
1.95328e-05
1.95327e-05
1.10712e-06
5.64228e-06
1.10727e-06
5.64211e-06
4.59747e-07
4.59747e-07
4.59747e-07
4.59744e-07
4.59744e-07
4.59744e-07
4.59744e-07
5.43647e-07
9.51283e-07
4.60134e-07
4.62024e-07
5.43704e-07
9.51034e-07
4.60137e-07
1.95349e-05
1.95345e-05
5.4366e-07
4.60134e-07
9.5123e-07
4.62025e-07
5.43717e-07
4.60137e-07
9.50999e-07
1.74942e-06
1.74976e-06
4.65368e-07
1.74922e-06
1.74956e-06
1.10722e-06
5.64148e-06
1.10741e-06
5.64134e-06
1.95328e-05
1.95327e-05
1.10712e-06
5.64228e-06
1.10727e-06
5.64211e-06
4.59747e-07
4.59747e-07
4.59747e-07
4.59744e-07
4.59744e-07
4.59744e-07
4.59744e-07
5.43648e-07
9.51283e-07
4.60134e-07
4.62024e-07
5.43704e-07
9.51034e-07
4.60137e-07
1.95349e-05
1.95345e-05
5.4366e-07
4.60134e-07
9.5123e-07
4.62024e-07
5.43717e-07
4.60137e-07
9.50999e-07
1.74942e-06
1.74976e-06
4.65367e-07
1.74922e-06
1.74957e-06
1.10722e-06
5.64149e-06
1.10741e-06
5.64134e-06
1.95328e-05
1.95327e-05
1.10712e-06
5.64228e-06
1.10728e-06
5.64211e-06
4.59747e-07
4.59746e-07
4.59746e-07
5.43645e-07
9.51284e-07
4.60134e-07
4.62022e-07
5.43704e-07
9.51033e-07
4.60138e-07
1.95348e-05
1.95341e-05
5.43658e-07
4.60134e-07
9.51229e-07
4.62026e-07
5.43717e-07
4.60139e-07
9.51067e-07
1.74943e-06
1.74976e-06
4.6537e-07
1.74927e-06
1.74961e-06
1.94904e-05
1.94928e-05
4.65597e-07
1.74574e-06
1.74612e-06
1.94877e-05
1.94895e-05
1.94901e-05
1.94919e-05
4.65642e-07
1.74582e-06
1.7462e-06
1.74587e-06
1.74625e-06
1.10552e-06
5.63312e-06
5.43495e-07
4.62295e-07
9.49813e-07
4.60424e-07
5.43492e-07
4.62295e-07
9.4987e-07
4.60423e-07
1.10572e-06
5.63321e-06
5.63312e-06
1.1056e-06
1.10567e-06
5.63316e-06
5.63312e-06
1.10556e-06
5.43546e-07
4.62293e-07
9.49824e-07
4.60418e-07
9.50006e-07
4.60422e-07
5.43503e-07
5.43544e-07
4.62293e-07
9.49876e-07
4.60418e-07
9.50065e-07
4.60422e-07
5.43498e-07
4.65596e-07
1.74609e-06
1.7459e-06
1.94885e-05
1.94903e-05
1.94923e-05
4.6564e-07
1.74622e-06
1.74601e-06
1.74625e-06
1.74616e-06
1.94867e-05
1.94883e-05
5.4349e-07
4.62294e-07
9.49936e-07
4.60424e-07
1.10546e-06
5.63395e-06
5.43493e-07
4.62296e-07
4.60424e-07
9.5002e-07
1.10561e-06
5.6341e-06
5.63398e-06
1.10551e-06
5.43541e-07
4.62292e-07
9.4996e-07
4.60418e-07
9.50129e-07
4.60422e-07
5.43498e-07
1.10558e-06
5.63403e-06
5.63395e-06
1.10549e-06
5.43544e-07
4.62295e-07
4.60418e-07
9.50036e-07
4.60422e-07
9.50236e-07
5.43499e-07
1.10553e-06
5.63309e-06
5.43494e-07
4.62295e-07
4.60424e-07
9.49828e-07
1.10553e-06
5.63353e-06
5.43544e-07
4.62291e-07
9.49872e-07
4.60417e-07
9.5008e-07
4.60422e-07
5.43496e-07
1.10568e-06
5.63317e-06
5.63309e-06
1.10557e-06
5.43544e-07
4.62293e-07
4.60418e-07
9.49838e-07
4.60422e-07
9.50022e-07
5.43498e-07
1.10568e-06
5.63358e-06
5.63353e-06
1.10557e-06
4.65598e-07
1.74642e-06
1.74579e-06
1.94919e-05
1.94923e-05
1.94941e-05
4.65642e-07
1.7466e-06
1.74588e-06
1.74668e-06
1.74592e-06
1.94892e-05
1.9491e-05
5.43493e-07
4.62294e-07
4.60424e-07
9.49909e-07
1.10545e-06
5.63363e-06
1.10545e-06
5.63377e-06
5.43545e-07
4.62292e-07
4.60417e-07
9.49845e-07
4.60422e-07
9.5004e-07
5.43494e-07
5.43545e-07
4.62292e-07
4.60418e-07
9.49919e-07
4.60422e-07
9.50106e-07
5.43495e-07
1.10557e-06
5.63366e-06
5.63363e-06
1.10547e-06
1.10557e-06
5.63383e-06
5.63377e-06
1.10548e-06
1.94921e-05
1.94933e-05
4.65641e-07
1.74593e-06
1.74627e-06
1.74597e-06
1.74631e-06
1.94894e-05
1.94912e-05
1.94906e-05
1.94924e-05
1.94877e-05
1.95054e-05
1.94901e-05
1.95087e-05
1.74586e-06
1.74624e-06
4.65548e-07
1.74697e-06
1.74737e-06
1.95313e-05
1.95182e-05
1.95338e-05
1.95212e-05
4.65564e-07
1.74924e-06
1.74963e-06
1.74831e-06
1.74872e-06
1.10608e-06
5.63316e-06
1.10571e-06
5.6364e-06
5.43548e-07
9.50031e-07
4.60408e-07
4.62248e-07
5.43558e-07
9.50212e-07
4.60374e-07
5.43545e-07
9.50088e-07
4.60407e-07
4.62248e-07
5.43554e-07
9.50278e-07
4.60373e-07
1.10677e-06
5.64135e-06
5.63875e-06
1.10719e-06
1.10678e-06
5.64167e-06
5.63909e-06
1.10719e-06
5.43637e-07
4.62162e-07
9.50917e-07
4.602e-07
9.50688e-07
4.60282e-07
5.43643e-07
5.43637e-07
4.62162e-07
9.50991e-07
4.602e-07
9.50765e-07
4.60281e-07
5.43643e-07
1.74629e-06
1.74629e-06
4.65546e-07
1.74736e-06
1.74718e-06
1.94868e-05
1.95055e-05
1.95329e-05
1.95202e-05
4.65562e-07
1.74959e-06
1.74941e-06
1.74873e-06
1.74865e-06
1.95304e-05
1.95185e-05
5.43545e-07
9.50167e-07
4.60408e-07
4.62247e-07
5.43552e-07
9.50358e-07
4.60374e-07
1.10602e-06
5.63403e-06
1.1056e-06
5.63708e-06
5.43547e-07
4.60408e-07
9.50267e-07
4.62249e-07
5.43554e-07
4.60374e-07
9.50419e-07
1.10664e-06
5.64227e-06
5.63965e-06
1.10711e-06
5.43635e-07
4.62161e-07
9.51069e-07
4.602e-07
9.50824e-07
4.60281e-07
5.43644e-07
1.10667e-06
5.64252e-06
5.63988e-06
1.10713e-06
5.43639e-07
4.62164e-07
4.602e-07
9.51155e-07
4.60282e-07
9.50934e-07
5.43646e-07
1.10608e-06
5.63317e-06
1.10571e-06
5.6364e-06
5.43542e-07
4.60407e-07
9.50048e-07
4.62247e-07
5.43551e-07
4.60373e-07
9.50243e-07
1.10609e-06
5.63358e-06
1.10572e-06
5.63685e-06
5.43629e-07
4.62157e-07
9.50969e-07
4.60201e-07
9.50753e-07
4.6028e-07
5.43639e-07
1.10678e-06
5.64169e-06
5.63915e-06
1.1072e-06
5.43632e-07
4.62161e-07
4.602e-07
9.50954e-07
4.60281e-07
9.50727e-07
5.43642e-07
1.10679e-06
5.64212e-06
5.63953e-06
1.10721e-06
1.74682e-06
1.74592e-06
4.65549e-07
1.74769e-06
1.74702e-06
1.94891e-05
1.95069e-05
1.95344e-05
1.95224e-05
4.65565e-07
1.74992e-06
1.74929e-06
1.74914e-06
1.74835e-06
1.95328e-05
1.95197e-05
5.43537e-07
4.60408e-07
9.50132e-07
4.62246e-07
5.43552e-07
4.60373e-07
9.50323e-07
1.10601e-06
5.63366e-06
1.10558e-06
5.63689e-06
1.106e-06
5.63383e-06
1.10559e-06
5.63709e-06
5.43633e-07
4.62159e-07
4.60201e-07
9.50939e-07
4.60279e-07
9.50713e-07
5.43641e-07
5.43633e-07
4.6216e-07
4.602e-07
9.51035e-07
4.60281e-07
9.50809e-07
5.43641e-07
1.10667e-06
5.6422e-06
5.63958e-06
1.10712e-06
1.10665e-06
5.64237e-06
5.63977e-06
1.10712e-06
1.94894e-05
1.95081e-05
1.94906e-05
1.95093e-05
4.65561e-07
1.74929e-06
1.74964e-06
1.74838e-06
1.74873e-06
1.9533e-05
1.95206e-05
1.95342e-05
1.95218e-05
1.95307e-05
1.95311e-05
1.95332e-05
1.95335e-05
1.74927e-06
1.74966e-06
4.65365e-07
1.74922e-06
1.7496e-06
1.9531e-05
1.95301e-05
1.95334e-05
1.95325e-05
4.65405e-07
1.7492e-06
1.74958e-06
1.74924e-06
1.74962e-06
1.10722e-06
5.64156e-06
1.10733e-06
5.6416e-06
5.43653e-07
9.51132e-07
4.60159e-07
4.62031e-07
5.43702e-07
9.50987e-07
4.60143e-07
5.43653e-07
9.51207e-07
4.60158e-07
4.62031e-07
5.43703e-07
9.51052e-07
4.60142e-07
1.10734e-06
5.64131e-06
5.64118e-06
1.10722e-06
1.10734e-06
5.64153e-06
5.64144e-06
1.10722e-06
5.437e-07
4.62022e-07
9.50981e-07
4.60133e-07
9.51165e-07
4.60134e-07
5.43647e-07
5.43701e-07
4.62022e-07
9.51048e-07
4.60133e-07
9.51233e-07
4.60133e-07
5.43647e-07
1.74965e-06
1.7497e-06
4.65364e-07
1.74958e-06
1.74946e-06
1.95298e-05
1.95301e-05
1.95322e-05
1.95318e-05
4.65404e-07
1.74953e-06
1.74941e-06
1.74963e-06
1.74965e-06
1.953e-05
1.9529e-05
5.43649e-07
9.5128e-07
4.60159e-07
4.6203e-07
5.43701e-07
9.51135e-07
4.60143e-07
1.10714e-06
5.64242e-06
1.10723e-06
5.64245e-06
5.43653e-07
4.60159e-07
9.51392e-07
4.62033e-07
5.43704e-07
4.60142e-07
9.51219e-07
1.10721e-06
5.64221e-06
5.64207e-06
1.10711e-06
5.43696e-07
4.62021e-07
9.51128e-07
4.60133e-07
9.51308e-07
4.60133e-07
5.4364e-07
1.10723e-06
5.64238e-06
5.64229e-06
1.10715e-06
5.437e-07
4.62024e-07
4.60134e-07
9.51215e-07
4.60134e-07
9.51419e-07
5.43646e-07
1.10722e-06
5.64159e-06
1.10734e-06
5.64159e-06
5.43654e-07
4.60159e-07
9.51165e-07
4.62031e-07
5.43701e-07
4.60142e-07
9.51009e-07
1.10723e-06
5.642e-06
1.10734e-06
5.64203e-06
5.43698e-07
4.62023e-07
9.51032e-07
4.60134e-07
9.5123e-07
4.60136e-07
5.43645e-07
1.10734e-06
5.64153e-06
5.64143e-06
1.10723e-06
5.437e-07
4.62022e-07
4.60133e-07
9.51008e-07
4.60133e-07
9.51188e-07
5.43646e-07
1.10735e-06
5.64197e-06
5.64185e-06
1.10723e-06
1.75017e-06
1.74932e-06
4.65366e-07
1.74996e-06
1.74926e-06
1.95322e-05
1.95326e-05
1.95341e-05
1.95336e-05
4.65406e-07
1.74995e-06
1.74924e-06
1.75015e-06
1.74929e-06
1.95325e-05
1.95316e-05
5.43654e-07
4.60159e-07
9.5125e-07
4.6203e-07
5.43705e-07
4.60142e-07
9.51091e-07
1.10713e-06
5.6421e-06
1.10722e-06
5.64211e-06
1.10713e-06
5.64225e-06
1.10722e-06
5.64228e-06
5.43703e-07
4.62024e-07
4.60134e-07
9.50998e-07
4.60136e-07
9.51176e-07
5.43644e-07
5.43703e-07
4.62021e-07
4.60133e-07
9.5109e-07
4.60134e-07
9.51273e-07
5.43643e-07
1.10722e-06
5.64204e-06
5.64195e-06
1.10714e-06
1.10722e-06
5.64221e-06
5.6421e-06
1.10714e-06
1.95324e-05
1.95328e-05
1.95336e-05
1.9534e-05
4.65406e-07
1.74923e-06
1.74957e-06
1.74926e-06
1.7496e-06
1.95327e-05
1.95318e-05
1.95339e-05
1.9533e-05
1.95307e-05
1.95312e-05
1.95331e-05
1.95336e-05
1.74923e-06
1.74962e-06
4.65368e-07
1.74921e-06
1.74959e-06
1.95309e-05
1.953e-05
1.95333e-05
1.95324e-05
4.65409e-07
1.74919e-06
1.74958e-06
1.74923e-06
1.74962e-06
1.10722e-06
5.64137e-06
1.10733e-06
5.64159e-06
5.43651e-07
9.51162e-07
4.60138e-07
4.62026e-07
5.43701e-07
9.50987e-07
4.60138e-07
5.43651e-07
9.51231e-07
4.60138e-07
4.62026e-07
5.43701e-07
9.51053e-07
4.60138e-07
1.10733e-06
5.64131e-06
5.64121e-06
1.10722e-06
1.10734e-06
5.64153e-06
5.64144e-06
1.10722e-06
5.43699e-07
4.62023e-07
9.50981e-07
4.60134e-07
9.51164e-07
4.60135e-07
5.43648e-07
5.43701e-07
4.62024e-07
9.51048e-07
4.60133e-07
9.51233e-07
4.60135e-07
5.43649e-07
1.7496e-06
1.74965e-06
4.65366e-07
1.74956e-06
1.74944e-06
1.95295e-05
1.95303e-05
1.95322e-05
1.95319e-05
4.65408e-07
1.74953e-06
1.74942e-06
1.74962e-06
1.74967e-06
1.953e-05
1.95292e-05
5.43646e-07
9.51304e-07
4.60138e-07
4.62025e-07
5.43693e-07
9.51133e-07
4.60138e-07
1.10714e-06
5.64222e-06
1.10723e-06
5.64244e-06
5.43651e-07
4.60138e-07
9.51415e-07
4.62028e-07
5.437e-07
4.60138e-07
9.51219e-07
1.1072e-06
5.6422e-06
5.64209e-06
1.10711e-06
5.43695e-07
4.62022e-07
9.51128e-07
4.60134e-07
9.51306e-07
4.60135e-07
5.43642e-07
1.10723e-06
5.6424e-06
5.64226e-06
1.10715e-06
5.437e-07
4.62025e-07
4.60134e-07
9.51216e-07
4.60135e-07
9.51419e-07
5.43648e-07
1.10723e-06
5.64137e-06
1.10734e-06
5.6416e-06
5.43652e-07
4.60138e-07
9.51187e-07
4.62026e-07
5.43698e-07
4.60138e-07
9.51008e-07
1.10723e-06
5.64181e-06
1.10734e-06
5.64202e-06
5.437e-07
4.62023e-07
9.51033e-07
4.60134e-07
9.51231e-07
4.60137e-07
5.43648e-07
1.10735e-06
5.64155e-06
5.64143e-06
1.10723e-06
5.43701e-07
4.62024e-07
4.60134e-07
9.51007e-07
4.60134e-07
9.51188e-07
5.4365e-07
1.10735e-06
5.64197e-06
5.64184e-06
1.10723e-06
1.75012e-06
1.74928e-06
4.65368e-07
1.74993e-06
1.74925e-06
1.95322e-05
1.95326e-05
1.95341e-05
1.95337e-05
4.6541e-07
1.74995e-06
1.74924e-06
1.75016e-06
1.74928e-06
1.95324e-05
1.95314e-05
5.43651e-07
4.60138e-07
9.51272e-07
4.62025e-07
5.43699e-07
4.60138e-07
9.51091e-07
1.10713e-06
5.6419e-06
1.10722e-06
5.64211e-06
1.10713e-06
5.64206e-06
1.10722e-06
5.64226e-06
5.43702e-07
4.62024e-07
4.60134e-07
9.50998e-07
4.60137e-07
9.51176e-07
5.43647e-07
5.43704e-07
4.62023e-07
4.60134e-07
9.51089e-07
4.60135e-07
9.51273e-07
5.43647e-07
1.10722e-06
5.64204e-06
5.64195e-06
1.10714e-06
1.10722e-06
5.64222e-06
5.64208e-06
1.10714e-06
1.95324e-05
1.95329e-05
1.95336e-05
1.95341e-05
4.65409e-07
1.74923e-06
1.74957e-06
1.74926e-06
1.74959e-06
1.95326e-05
1.95317e-05
1.95338e-05
1.95329e-05
1.95307e-05
1.95312e-05
1.95331e-05
1.95336e-05
1.74923e-06
1.74962e-06
4.65367e-07
1.7492e-06
1.74959e-06
1.95309e-05
1.953e-05
1.95333e-05
1.95324e-05
4.65409e-07
1.7492e-06
1.74957e-06
1.74923e-06
1.74961e-06
1.10722e-06
5.64137e-06
1.10733e-06
5.64159e-06
5.4365e-07
9.51161e-07
4.60137e-07
4.62026e-07
5.43702e-07
9.50987e-07
4.60137e-07
5.4365e-07
9.51231e-07
4.60137e-07
4.62026e-07
5.43702e-07
9.51052e-07
4.60137e-07
1.10733e-06
5.64131e-06
5.6412e-06
1.10722e-06
1.10734e-06
5.64152e-06
5.64144e-06
1.10722e-06
5.43699e-07
4.62023e-07
9.50981e-07
4.60134e-07
9.51164e-07
4.60135e-07
5.43648e-07
5.43701e-07
4.62024e-07
9.51048e-07
4.60134e-07
9.51232e-07
4.60134e-07
5.43649e-07
1.7496e-06
1.74964e-06
4.65365e-07
1.74956e-06
1.74944e-06
1.95293e-05
1.95301e-05
1.95322e-05
1.95319e-05
4.65407e-07
1.74953e-06
1.74942e-06
1.74962e-06
1.74967e-06
1.953e-05
1.9529e-05
5.43645e-07
9.51304e-07
4.60137e-07
4.62025e-07
5.43694e-07
9.51133e-07
4.60137e-07
1.10714e-06
5.64224e-06
1.10723e-06
5.64244e-06
5.4365e-07
4.60137e-07
9.51415e-07
4.62027e-07
5.437e-07
4.60137e-07
9.51219e-07
1.1072e-06
5.6422e-06
5.64209e-06
1.10711e-06
5.43695e-07
4.62022e-07
9.51127e-07
4.60134e-07
9.51305e-07
4.60135e-07
5.43642e-07
1.10723e-06
5.6424e-06
5.64226e-06
1.10715e-06
5.437e-07
4.62025e-07
4.60134e-07
9.51216e-07
4.60135e-07
9.51419e-07
5.43649e-07
1.10723e-06
5.6414e-06
1.10734e-06
5.6416e-06
5.43649e-07
4.60137e-07
9.51187e-07
4.62026e-07
5.437e-07
4.60137e-07
9.51008e-07
1.10723e-06
5.64181e-06
1.10734e-06
5.64201e-06
5.43698e-07
4.62023e-07
9.51033e-07
4.60134e-07
9.51231e-07
4.60136e-07
5.4365e-07
1.10735e-06
5.64155e-06
5.64142e-06
1.10723e-06
5.437e-07
4.62024e-07
4.60134e-07
9.51007e-07
4.60134e-07
9.51187e-07
5.43651e-07
1.10735e-06
5.64197e-06
5.64183e-06
1.10723e-06
1.75012e-06
1.74928e-06
4.65368e-07
1.74993e-06
1.74925e-06
1.95322e-05
1.95326e-05
1.95341e-05
1.95337e-05
4.6541e-07
1.74995e-06
1.74924e-06
1.75016e-06
1.74928e-06
1.95324e-05
1.95314e-05
5.43649e-07
4.60137e-07
9.51271e-07
4.62025e-07
5.43702e-07
4.60137e-07
9.5109e-07
1.10713e-06
5.6419e-06
1.10722e-06
5.64211e-06
1.10713e-06
5.64206e-06
1.10722e-06
5.64225e-06
5.43702e-07
4.62024e-07
4.60134e-07
9.50998e-07
4.60137e-07
9.51176e-07
5.43648e-07
5.43703e-07
4.62023e-07
4.60134e-07
9.5109e-07
4.60135e-07
9.51272e-07
5.43648e-07
1.10722e-06
5.64205e-06
5.64194e-06
1.10714e-06
1.10722e-06
5.64221e-06
5.64207e-06
1.10714e-06
1.95324e-05
1.95329e-05
1.95336e-05
1.95341e-05
4.65409e-07
1.74923e-06
1.74957e-06
1.74925e-06
1.74959e-06
1.95326e-05
1.95316e-05
1.95338e-05
1.95329e-05
1.95307e-05
1.95312e-05
1.95331e-05
1.95336e-05
1.74923e-06
1.74961e-06
4.65367e-07
1.74921e-06
1.74958e-06
1.95309e-05
1.953e-05
1.95333e-05
1.95324e-05
4.65409e-07
1.74919e-06
1.74958e-06
1.74923e-06
1.74961e-06
1.10722e-06
5.64137e-06
1.10733e-06
5.64159e-06
5.43651e-07
9.51162e-07
4.60137e-07
4.62026e-07
5.43702e-07
9.50987e-07
4.60137e-07
5.4365e-07
9.51231e-07
4.60137e-07
4.62026e-07
5.43701e-07
9.51052e-07
4.60137e-07
1.10733e-06
5.64131e-06
5.6412e-06
1.10722e-06
1.10734e-06
5.64152e-06
5.64144e-06
1.10722e-06
5.43699e-07
4.62023e-07
9.50981e-07
4.60134e-07
9.51164e-07
4.60135e-07
5.43648e-07
5.43701e-07
4.62024e-07
9.51048e-07
4.60134e-07
9.51233e-07
4.60134e-07
5.43649e-07
1.7496e-06
1.74964e-06
4.65365e-07
1.74956e-06
1.74944e-06
1.95294e-05
1.95301e-05
1.95322e-05
1.95319e-05
4.65407e-07
1.74953e-06
1.74942e-06
1.74962e-06
1.74967e-06
1.953e-05
1.9529e-05
5.43645e-07
9.51303e-07
4.60137e-07
4.62025e-07
5.43694e-07
9.51133e-07
4.60137e-07
1.10714e-06
5.64224e-06
1.10723e-06
5.64244e-06
5.4365e-07
4.60137e-07
9.51415e-07
4.62027e-07
5.437e-07
4.60137e-07
9.51219e-07
1.1072e-06
5.64214e-06
5.6421e-06
1.10711e-06
5.43695e-07
4.62022e-07
9.51125e-07
4.60134e-07
9.51305e-07
4.60135e-07
5.43642e-07
1.10723e-06
5.6424e-06
5.64226e-06
1.10715e-06
5.437e-07
4.62025e-07
4.60134e-07
9.51216e-07
4.60135e-07
9.51419e-07
5.43649e-07
1.10723e-06
5.6414e-06
1.10734e-06
5.6416e-06
5.43649e-07
4.60137e-07
9.51187e-07
4.62026e-07
5.437e-07
4.60137e-07
9.51008e-07
1.10723e-06
5.64181e-06
1.10734e-06
5.64201e-06
5.43698e-07
4.62023e-07
9.51033e-07
4.60134e-07
9.51231e-07
4.60136e-07
5.43649e-07
1.10735e-06
5.64155e-06
5.64142e-06
1.10723e-06
5.437e-07
4.62024e-07
4.60134e-07
9.51007e-07
4.60135e-07
9.51187e-07
5.43651e-07
1.10735e-06
5.64197e-06
5.64183e-06
1.10723e-06
1.75012e-06
1.74928e-06
4.65367e-07
1.74993e-06
1.74925e-06
1.95322e-05
1.95326e-05
1.95341e-05
1.95337e-05
4.65409e-07
1.74995e-06
1.74924e-06
1.75016e-06
1.74928e-06
1.95324e-05
1.95314e-05
5.43649e-07
4.60137e-07
9.51272e-07
4.62025e-07
5.43702e-07
4.60137e-07
9.51091e-07
1.10713e-06
5.6419e-06
1.10722e-06
5.64211e-06
1.10713e-06
5.64205e-06
1.10722e-06
5.64225e-06
5.43701e-07
4.62024e-07
4.60134e-07
9.50998e-07
4.60137e-07
9.51176e-07
5.43648e-07
5.43703e-07
4.62023e-07
4.60134e-07
9.5109e-07
4.60135e-07
9.51272e-07
5.43648e-07
1.10722e-06
5.64205e-06
5.64194e-06
1.10714e-06
1.10722e-06
5.64221e-06
5.64207e-06
1.10714e-06
1.95324e-05
1.95329e-05
1.95336e-05
1.95341e-05
4.65409e-07
1.74923e-06
1.74957e-06
1.74926e-06
1.7496e-06
1.95326e-05
1.95316e-05
1.95338e-05
1.95329e-05
1.95307e-05
1.95312e-05
1.95331e-05
1.95336e-05
1.74923e-06
1.74962e-06
4.65367e-07
1.7492e-06
1.74959e-06
1.95309e-05
1.953e-05
1.95333e-05
1.95324e-05
4.65409e-07
1.74919e-06
1.74957e-06
1.74923e-06
1.74962e-06
1.10722e-06
5.64137e-06
1.10733e-06
5.6416e-06
5.43651e-07
9.51161e-07
4.60137e-07
4.62026e-07
5.43702e-07
9.50987e-07
4.60137e-07
5.4365e-07
9.51231e-07
4.60137e-07
4.62026e-07
5.43702e-07
9.51052e-07
4.60137e-07
1.10733e-06
5.64131e-06
5.6412e-06
1.10722e-06
1.10733e-06
5.6415e-06
5.64144e-06
1.10722e-06
5.43699e-07
4.62023e-07
9.50981e-07
4.60134e-07
9.51164e-07
4.60135e-07
5.43648e-07
5.43701e-07
4.62024e-07
9.51046e-07
4.60134e-07
9.51231e-07
4.60134e-07
5.43649e-07
1.7496e-06
1.74964e-06
4.65365e-07
1.74956e-06
1.74944e-06
1.95294e-05
1.95301e-05
1.95321e-05
1.95319e-05
4.65407e-07
1.7496e-06
1.74942e-06
1.74961e-06
1.74967e-06
1.953e-05
1.9529e-05
5.43646e-07
9.51333e-07
4.60137e-07
4.62025e-07
5.43694e-07
9.51146e-07
4.60137e-07
1.10714e-06
5.64224e-06
1.10723e-06
5.64244e-06
5.4365e-07
4.60138e-07
9.51415e-07
4.62027e-07
5.437e-07
4.60137e-07
9.51219e-07
1.1072e-06
5.6421e-06
5.64195e-06
1.10711e-06