/*--------------------------------*- C++ -*----------------------------------*\
| =========                 |                                                 |
| \\      /  F ield         | OpenFOAM: The Open Source CFD Toolbox           |
|  \\    /   O peration     | Version:  2206                                  |
|   \\  /    A nd           | Website:  www.openfoam.com                      |
|    \\/     M anipulation  |                                                 |
\*---------------------------------------------------------------------------*/
FoamFile
{
    version     2.0;
    format      ascii;
    arch        "LSB;label=32;scalar=64";
    class       volVectorField;
    location    "6";
    object      U;
}
// * * * * * * * * * * * * * * * * * * * * * * * * * * * * * * * * * * * * * //

dimensions      [0 1 -1 0 0 0 0];

internalField   nonuniform List<vector> 
28335
(
(-2.73512e-07 -2.73073e-07 0.100824)
(-2.10045e-07 3.59973e-07 0.100824)
(3.58297e-07 -2.09984e-07 0.100824)
(-3.28964e-05 -3.29108e-05 0.100823)
(-2.60514e-07 -2.60011e-07 0.100824)
(-2.08875e-07 3.52029e-07 0.100824)
(3.51028e-07 -2.09521e-07 0.100824)
(-3.29425e-05 -3.29585e-05 0.100823)
(-2.75627e-07 -2.74937e-07 0.100824)
(-1.87185e-07 3.39301e-07 0.100824)
(3.37976e-07 -1.87449e-07 0.100824)
(-3.29182e-05 -3.29338e-05 0.100823)
(-2.76995e-07 -2.76504e-07 0.100824)
(-1.85307e-07 3.37763e-07 0.100824)
(3.36608e-07 -1.85818e-07 0.100824)
(-3.29171e-05 -3.29329e-05 0.100823)
(-2.76677e-07 -2.76739e-07 0.100824)
(-1.8557e-07 3.37701e-07 0.100824)
(3.3708e-07 -1.86283e-07 0.100824)
(-3.29167e-05 -3.29329e-05 0.100823)
(-2.75234e-07 -2.77279e-07 0.100824)
(-1.86705e-07 3.35887e-07 0.100824)
(3.38158e-07 -1.8759e-07 0.100824)
(-3.29172e-05 -3.29344e-05 0.100823)
(-2.73594e-07 -2.78099e-07 0.100824)
(-1.87354e-07 3.28787e-07 0.100824)
(3.38554e-07 -1.88161e-07 0.100824)
(-3.29174e-05 -3.29352e-05 0.100823)
(-2.75527e-07 -2.76704e-07 0.100824)
(-1.88239e-07 3.38766e-07 0.100824)
(3.38812e-07 -1.87829e-07 0.100824)
(-3.29192e-05 -3.29344e-05 0.100823)
(-2.75706e-07 -2.77687e-07 0.100824)
(-1.88013e-07 3.3781e-07 0.100824)
(3.38545e-07 -1.84678e-07 0.100824)
(-3.29204e-05 -3.29315e-05 0.100823)
(-2.75356e-07 -2.77736e-07 0.100824)
(-1.87515e-07 3.37054e-07 0.100824)
(3.38323e-07 -1.83679e-07 0.100824)
(-3.29199e-05 -3.29303e-05 0.100823)
(-2.75598e-07 -2.78075e-07 0.100824)
(-1.86787e-07 3.36313e-07 0.100824)
(3.37845e-07 -1.83086e-07 0.100824)
(-3.29198e-05 -3.29299e-05 0.100823)
(-2.75958e-07 -2.78466e-07 0.100824)
(-1.86673e-07 3.363e-07 0.100824)
(3.38e-07 -1.82914e-07 0.100824)
(-3.29195e-05 -3.29294e-05 0.100823)
(-2.7537e-07 -2.7792e-07 0.100824)
(-1.8719e-07 3.3672e-07 0.100824)
(3.3816e-07 -1.83116e-07 0.100824)
(-3.29198e-05 -3.293e-05 0.100823)
(-2.75263e-07 -2.77754e-07 0.100824)
(-1.87508e-07 3.37048e-07 0.100824)
(3.38374e-07 -1.83343e-07 0.100824)
(-3.29199e-05 -3.29303e-05 0.100823)
(-2.75041e-07 -2.7735e-07 0.100824)
(-1.88871e-07 3.38239e-07 0.100824)
(3.39479e-07 -1.84792e-07 0.100824)
(-3.29213e-05 -3.29311e-05 0.100823)
(-2.75325e-07 -2.76712e-07 0.100824)
(-1.87583e-07 3.38312e-07 0.100824)
(3.38973e-07 -1.83089e-07 0.100824)
(-3.2921e-05 -3.293e-05 0.100823)
(-2.82288e-07 -2.79246e-07 0.100824)
(-1.76308e-07 3.39448e-07 0.100824)
(3.27458e-07 -1.64842e-07 0.100824)
(-3.29031e-05 -3.29112e-05 0.100823)
(-3.3985e-05 -3.39622e-05 0.100823)
(3.21318e-07 1.45169e-07 0.100824)
(-3.22602e-07 1.49285e-07 0.100824)
(3.39874e-05 -3.39623e-05 0.100823)
(1.41563e-07 3.14479e-07 0.100824)
(1.48406e-07 -3.20293e-07 0.100824)
(-1.40581e-07 3.15468e-07 0.100824)
(-1.47663e-07 -3.19085e-07 0.100824)
(-3.3959e-05 3.39915e-05 0.100823)
(3.13595e-07 -1.39943e-07 0.100824)
(-3.12401e-07 -1.40696e-07 0.100824)
(3.39656e-05 3.39837e-05 0.100823)
(3.29097e-05 3.28895e-05 0.100823)
(-3.39133e-05 -3.38906e-05 0.100823)
(3.65555e-07 2.17883e-07 0.100824)
(-3.67474e-07 2.18103e-07 0.100824)
(3.66927e-07 2.27431e-07 0.100824)
(-3.67983e-07 2.3106e-07 0.100824)
(-3.29072e-05 3.28825e-05 0.100823)
(3.39155e-05 -3.38916e-05 0.100823)
(2.11783e-07 3.60484e-07 0.100824)
(2.17321e-07 -3.65941e-07 0.100824)
(2.23479e-07 3.60111e-07 0.100824)
(2.30239e-07 -3.6672e-07 0.100824)
(-2.16438e-07 -3.63979e-07 0.100824)
(-2.23274e-07 3.60658e-07 0.100824)
(-2.29608e-07 -3.65636e-07 0.100824)
(3.28861e-05 -3.29171e-05 0.100823)
(-3.38882e-05 3.39184e-05 0.100823)
(-3.56581e-07 -2.08088e-07 0.100824)
(3.59195e-07 -2.2385e-07 0.100824)
(-3.58236e-07 -2.24663e-07 0.100824)
(3.38931e-05 3.391e-05 0.100823)
(3.29534e-05 3.29338e-05 0.100823)
(-3.39443e-05 -3.3922e-05 0.100823)
(3.58008e-07 2.16355e-07 0.100824)
(-3.59819e-07 2.16733e-07 0.100824)
(3.46283e-07 1.92365e-07 0.100824)
(-3.47257e-07 1.96299e-07 0.100824)
(-3.29516e-05 3.29264e-05 0.100823)
(3.39469e-05 -3.39236e-05 0.100823)
(2.10658e-07 3.52203e-07 0.100824)
(2.15761e-07 -3.58683e-07 0.100824)
(1.88769e-07 3.39643e-07 0.100824)
(1.95174e-07 -3.45476e-07 0.100824)
(-2.15407e-07 -3.58106e-07 0.100824)
(-1.88096e-07 3.40182e-07 0.100824)
(-1.94864e-07 -3.44438e-07 0.100824)
(3.293e-05 -3.2963e-05 0.100823)
(-3.39202e-05 3.39506e-05 0.100823)
(-3.50767e-07 -2.08926e-07 0.100824)
(3.38319e-07 -1.88029e-07 0.100824)
(-3.37212e-07 -1.88401e-07 0.100824)
(3.39257e-05 3.39432e-05 0.100823)
(3.29297e-05 3.29102e-05 0.100823)
(-3.39466e-05 -3.39243e-05 0.100823)
(3.45047e-07 1.94876e-07 0.100824)
(-3.46945e-07 1.95363e-07 0.100824)
(3.43815e-07 1.8898e-07 0.100824)
(-3.44974e-07 1.92969e-07 0.100824)
(-3.2928e-05 3.29022e-05 0.100823)
(3.39489e-05 -3.39257e-05 0.100823)
(1.89323e-07 3.39468e-07 0.100824)
(1.94284e-07 -3.45429e-07 0.100824)
(1.85455e-07 3.37061e-07 0.100824)
(1.92151e-07 -3.43371e-07 0.100824)
(-1.93857e-07 -3.44926e-07 0.100824)
(-1.84994e-07 3.37892e-07 0.100824)
(-1.91991e-07 -3.42739e-07 0.100824)
(3.29056e-05 -3.29384e-05 0.100823)
(-3.39221e-05 3.39525e-05 0.100823)
(-3.37609e-07 -1.87222e-07 0.100824)
(3.36127e-07 -1.85029e-07 0.100824)
(-3.353e-07 -1.8551e-07 0.100824)
(3.39273e-05 3.39447e-05 0.100823)
(3.29279e-05 3.29082e-05 0.100823)
(-3.39464e-05 -3.39245e-05 0.100823)
(3.43537e-07 1.92849e-07 0.100824)
(-3.45459e-07 1.93412e-07 0.100824)
(3.43956e-07 1.88636e-07 0.100824)
(-3.44622e-07 1.92587e-07 0.100824)
(-3.29263e-05 3.29006e-05 0.100823)
(3.39494e-05 -3.39259e-05 0.100823)
(1.87402e-07 3.37849e-07 0.100824)
(1.92497e-07 -3.4413e-07 0.100824)
(1.85485e-07 3.36863e-07 0.100824)
(1.91922e-07 -3.43323e-07 0.100824)
(-1.92219e-07 -3.43899e-07 0.100824)
(-1.84551e-07 3.37394e-07 0.100824)
(-1.9118e-07 -3.4237e-07 0.100824)
(3.29041e-05 -3.2937e-05 0.100823)
(-3.39219e-05 3.39525e-05 0.100823)
(-3.36383e-07 -1.85905e-07 0.100824)
(3.36083e-07 -1.84799e-07 0.100824)
(-3.34815e-07 -1.85335e-07 0.100824)
(3.39274e-05 3.39445e-05 0.100823)
(3.29283e-05 3.29082e-05 0.100823)
(-3.39442e-05 -3.39242e-05 0.100823)
(3.44317e-07 1.93107e-07 0.100824)
(-3.45498e-07 1.93626e-07 0.100824)
(3.46431e-07 1.89292e-07 0.100824)
(-3.44397e-07 1.92517e-07 0.100824)
(-3.29262e-05 3.29003e-05 0.100823)
(3.3948e-05 -3.39261e-05 0.100823)
(1.87999e-07 3.38102e-07 0.100824)
(1.9291e-07 -3.44593e-07 0.100824)
(1.87587e-07 3.37456e-07 0.100824)
(1.93408e-07 -3.4469e-07 0.100824)
(-1.923e-07 -3.44434e-07 0.100824)
(-1.85917e-07 3.36603e-07 0.100824)
(-1.92119e-07 -3.44118e-07 0.100824)
(3.29042e-05 -3.29369e-05 0.100823)
(-3.39211e-05 3.39513e-05 0.100823)
(-3.36591e-07 -1.86771e-07 0.100824)
(3.37285e-07 -1.86089e-07 0.100824)
(-3.35288e-07 -1.86847e-07 0.100824)
(3.3927e-05 3.39431e-05 0.100823)
(3.29303e-05 3.29081e-05 0.100823)
(-3.39427e-05 -3.39249e-05 0.100823)
(3.4687e-07 1.93058e-07 0.100824)
(-3.45907e-07 1.933e-07 0.100824)
(3.487e-07 1.87658e-07 0.100824)
(-3.33187e-07 1.77284e-07 0.100824)
(-3.29265e-05 3.28973e-05 0.100823)
(3.39509e-05 -3.39453e-05 0.100823)
(1.90329e-07 3.38137e-07 0.100824)
(1.9413e-07 -3.45944e-07 0.100824)
(1.88424e-07 3.36551e-07 0.100824)
(1.93709e-07 -3.45193e-07 0.100824)
(-1.93193e-07 -3.46586e-07 0.100824)
(-1.85839e-07 3.27115e-07 0.100824)
(-1.91967e-07 -3.45557e-07 0.100824)
(3.29051e-05 -3.29383e-05 0.100823)
(-3.39206e-05 3.39509e-05 0.100823)
(-3.37209e-07 -1.88386e-07 0.100824)
(3.37686e-07 -1.86495e-07 0.100824)
(-3.35208e-07 -1.87676e-07 0.100824)
(3.39272e-05 3.39421e-05 0.100823)
(3.29314e-05 3.29079e-05 0.100823)
(-3.39444e-05 -3.39233e-05 0.100823)
(3.48408e-07 1.91788e-07 0.100824)
(-3.34418e-07 1.8168e-07 0.100824)
(3.4612e-07 1.89633e-07 0.100824)
(-3.44848e-07 1.93661e-07 0.100824)
(-3.2924e-05 3.28795e-05 0.100823)
(3.39485e-05 -3.39267e-05 0.100823)
(1.90999e-07 3.37496e-07 0.100824)
(1.94359e-07 -3.46245e-07 0.100824)
(1.87858e-07 3.37903e-07 0.100824)
(1.94081e-07 -3.45515e-07 0.100824)
(-1.92864e-07 -3.47381e-07 0.100824)
(-1.87074e-07 3.37904e-07 0.100824)
(-1.9449e-07 -3.44917e-07 0.100824)
(3.29056e-05 -3.29386e-05 0.100823)
(-3.392e-05 3.39507e-05 0.100823)
(-3.37048e-07 -1.88942e-07 0.100824)
(3.38244e-07 -1.86853e-07 0.100824)
(-3.3628e-07 -1.89281e-07 0.100824)
(3.39258e-05 3.39429e-05 0.100823)
(3.29303e-05 3.29098e-05 0.100823)
(-3.3946e-05 -3.39236e-05 0.100823)
(3.45965e-07 1.94273e-07 0.100824)
(-3.4621e-07 1.95637e-07 0.100824)
(3.45416e-07 1.89459e-07 0.100824)
(-3.4553e-07 1.96427e-07 0.100824)
(-3.29279e-05 3.29009e-05 0.100823)
(3.39474e-05 -3.39256e-05 0.100823)
(1.90316e-07 3.39293e-07 0.100824)
(1.94496e-07 -3.4649e-07 0.100824)
(1.86459e-07 3.38422e-07 0.100824)
(1.91494e-07 -3.45085e-07 0.100824)
(-1.96599e-07 -3.45952e-07 0.100824)
(-1.87611e-07 3.37887e-07 0.100824)
(-2.01282e-07 -3.41757e-07 0.100824)
(3.29062e-05 -3.2939e-05 0.100823)
(-3.39221e-05 3.39514e-05 0.100823)
(-3.37474e-07 -1.91568e-07 0.100824)
(3.37537e-07 -1.83766e-07 0.100824)
(-3.3492e-07 -1.96925e-07 0.100824)
(3.39242e-05 3.39459e-05 0.100823)
(3.29288e-05 3.29096e-05 0.100823)
(-3.39462e-05 -3.39232e-05 0.100823)
(3.45235e-07 1.93235e-07 0.100824)
(-3.46167e-07 1.97456e-07 0.100824)
(3.45329e-07 1.89145e-07 0.100824)
(-3.45072e-07 1.97064e-07 0.100824)
(-3.29283e-05 3.2901e-05 0.100823)
(3.39475e-05 -3.39258e-05 0.100823)
(1.88656e-07 3.39453e-07 0.100824)
(1.91768e-07 -3.46159e-07 0.100824)
(1.86048e-07 3.3873e-07 0.100824)
(1.90808e-07 -3.44788e-07 0.100824)
(-2.01971e-07 -3.42739e-07 0.100824)
(-1.8711e-07 3.37125e-07 0.100824)
(-2.00243e-07 -3.40039e-07 0.100824)
(3.29044e-05 -3.29386e-05 0.100823)
(-3.39224e-05 3.39515e-05 0.100823)
(-3.36251e-07 -1.98291e-07 0.100824)
(3.37699e-07 -1.82493e-07 0.100824)
(-3.34522e-07 -1.9667e-07 0.100824)
(3.39247e-05 3.39471e-05 0.100823)
(3.29285e-05 3.29098e-05 0.100823)
(-3.39468e-05 -3.39236e-05 0.100823)
(3.44997e-07 1.92909e-07 0.100824)
(-3.45502e-07 1.9755e-07 0.100824)
(3.4487e-07 1.88445e-07 0.100824)
(-3.44738e-07 1.96613e-07 0.100824)
(-3.2928e-05 3.29007e-05 0.100823)
(3.39477e-05 -3.39262e-05 0.100823)
(1.8827e-07 3.39595e-07 0.100824)
(1.9111e-07 -3.45635e-07 0.100824)
(1.85414e-07 3.38441e-07 0.100824)
(1.90279e-07 -3.44692e-07 0.100824)
(-2.01182e-07 -3.41342e-07 0.100824)
(-1.86748e-07 3.36518e-07 0.100824)
(-2.00005e-07 -3.39642e-07 0.100824)
(3.2904e-05 -3.29383e-05 0.100823)
(-3.39226e-05 3.39516e-05 0.100823)
(-3.35735e-07 -1.98098e-07 0.100824)
(3.37456e-07 -1.8213e-07 0.100824)
(-3.34432e-07 -1.96626e-07 0.100824)
(3.39244e-05 3.39473e-05 0.100823)
(3.29278e-05 3.29093e-05 0.100823)
(-3.39475e-05 -3.39241e-05 0.100823)
(3.44211e-07 1.92022e-07 0.100824)
(-3.44987e-07 1.96984e-07 0.100824)
(3.43718e-07 1.87259e-07 0.100824)
(-3.44038e-07 1.95624e-07 0.100824)
(-3.29276e-05 3.29e-05 0.100823)
(3.39482e-05 -3.39266e-05 0.100823)
(1.87231e-07 3.38858e-07 0.100824)
(1.90406e-07 -3.45232e-07 0.100824)
(1.84068e-07 3.37415e-07 0.100824)
(1.89202e-07 -3.43962e-07 0.100824)
(-2.00482e-07 -3.40589e-07 0.100824)
(-1.85946e-07 3.35898e-07 0.100824)
(-1.99368e-07 -3.39028e-07 0.100824)
(3.29036e-05 -3.2938e-05 0.100823)
(-3.39229e-05 3.39522e-05 0.100823)
(-3.35184e-07 -1.97517e-07 0.100824)
(3.36919e-07 -1.81374e-07 0.100824)
(-3.34053e-07 -1.95893e-07 0.100824)
(3.39247e-05 3.39479e-05 0.100823)
(3.2927e-05 3.29087e-05 0.100823)
(-3.39469e-05 -3.39236e-05 0.100823)
(3.43831e-07 1.91498e-07 0.100824)
(-3.44877e-07 1.96562e-07 0.100824)
(3.44772e-07 1.88303e-07 0.100824)
(-3.44535e-07 1.9652e-07 0.100824)
(-3.29271e-05 3.28996e-05 0.100823)
(3.39479e-05 -3.39264e-05 0.100823)
(1.86914e-07 3.38638e-07 0.100824)
(1.90182e-07 -3.45244e-07 0.100824)
(1.85347e-07 3.38422e-07 0.100824)
(1.90209e-07 -3.44521e-07 0.100824)
(-2.00521e-07 -3.40681e-07 0.100824)
(-1.86451e-07 3.36375e-07 0.100824)
(-1.99892e-07 -3.39426e-07 0.100824)
(3.29033e-05 -3.29374e-05 0.100823)
(-3.39228e-05 3.39516e-05 0.100823)
(-3.35481e-07 -1.97571e-07 0.100824)
(3.37358e-07 -1.81692e-07 0.100824)
(-3.34179e-07 -1.96215e-07 0.100824)
(3.39248e-05 3.39475e-05 0.100823)
(3.29279e-05 3.29094e-05 0.100823)
(-3.39466e-05 -3.39233e-05 0.100823)
(3.44888e-07 1.92492e-07 0.100824)
(-3.45383e-07 1.97337e-07 0.100824)
(3.45139e-07 1.88533e-07 0.100824)
(-3.44957e-07 1.96834e-07 0.100824)
(-3.29277e-05 3.28999e-05 0.100823)
(3.39474e-05 -3.3926e-05 0.100823)
(1.87894e-07 3.3954e-07 0.100824)
(1.90868e-07 -3.45602e-07 0.100824)
(1.85537e-07 3.3872e-07 0.100824)
(1.90416e-07 -3.44795e-07 0.100824)
(-2.00975e-07 -3.41024e-07 0.100824)
(-1.86923e-07 3.36837e-07 0.100824)
(-2.00149e-07 -3.39795e-07 0.100824)
(3.29035e-05 -3.29381e-05 0.100823)
(-3.39225e-05 3.39513e-05 0.100823)
(-3.35496e-07 -1.97867e-07 0.100824)
(3.37539e-07 -1.81958e-07 0.100824)
(-3.34434e-07 -1.96526e-07 0.100824)
(3.39247e-05 3.39472e-05 0.100823)
(3.29282e-05 3.29097e-05 0.100823)
(-3.39459e-05 -3.39225e-05 0.100823)
(3.44893e-07 1.92705e-07 0.100824)
(-3.4552e-07 1.97683e-07 0.100824)
(3.45415e-07 1.89345e-07 0.100824)
(-3.45608e-07 1.97758e-07 0.100824)
(-3.29281e-05 3.29004e-05 0.100823)
(3.39468e-05 -3.39249e-05 0.100823)
(1.88062e-07 3.39583e-07 0.100824)
(1.91122e-07 -3.45708e-07 0.100824)
(1.86075e-07 3.39335e-07 0.100824)
(1.91209e-07 -3.45281e-07 0.100824)
(-2.01166e-07 -3.41188e-07 0.100824)
(-1.8799e-07 3.37697e-07 0.100824)
(-2.01518e-07 -3.40549e-07 0.100824)
(3.29039e-05 -3.29385e-05 0.100823)
(-3.39216e-05 3.39509e-05 0.100823)
(-3.35667e-07 -1.97984e-07 0.100824)
(3.38284e-07 -1.82987e-07 0.100824)
(-3.35532e-07 -1.9761e-07 0.100824)
(3.39235e-05 3.39466e-05 0.100823)
(3.29287e-05 3.29106e-05 0.100823)
(-3.39462e-05 -3.39216e-05 0.100823)
(3.45457e-07 1.93771e-07 0.100824)
(-3.465e-07 1.9888e-07 0.100824)
(3.45188e-07 1.89908e-07 0.100824)
(-3.44947e-07 1.98234e-07 0.100824)
(-3.29286e-05 3.29015e-05 0.100823)
(3.39473e-05 -3.39245e-05 0.100823)
(1.88784e-07 3.40545e-07 0.100824)
(1.92245e-07 -3.46523e-07 0.100824)
(1.8589e-07 3.39946e-07 0.100824)
(1.9139e-07 -3.44456e-07 0.100824)
(-2.02883e-07 -3.42144e-07 0.100824)
(-1.86966e-07 3.38209e-07 0.100824)
(-2.01176e-07 -3.3946e-07 0.100824)
(3.29051e-05 -3.2939e-05 0.100823)
(-3.39219e-05 3.39521e-05 0.100823)
(-3.37095e-07 -1.99594e-07 0.100824)
(3.38281e-07 -1.82513e-07 0.100824)
(-3.35205e-07 -1.96838e-07 0.100824)
(3.39241e-05 3.39479e-05 0.100823)
(3.29281e-05 3.29114e-05 0.100823)
(-3.39449e-05 -3.39182e-05 0.100823)
(3.44935e-07 1.93783e-07 0.100824)
(-3.45342e-07 1.98613e-07 0.100824)
(3.4309e-07 1.88636e-07 0.100824)
(-3.41606e-07 1.96724e-07 0.100824)
(-3.29276e-05 3.29019e-05 0.100823)
(3.39475e-05 -3.39205e-05 0.100823)
(1.88021e-07 3.41241e-07 0.100824)
(1.91897e-07 -3.44691e-07 0.100824)
(1.82393e-07 3.40601e-07 0.100824)
(1.88254e-07 -3.3877e-07 0.100824)
(-2.0217e-07 -3.4059e-07 0.100824)
(-1.82826e-07 3.38817e-07 0.100824)
(-1.96538e-07 -3.3457e-07 0.100824)
(3.29049e-05 -3.29378e-05 0.100823)
(-3.39187e-05 3.39516e-05 0.100823)
(-3.36543e-07 -1.98056e-07 0.100824)
(3.35981e-07 -1.76185e-07 0.100824)
(-3.32221e-07 -1.9079e-07 0.100824)
(3.39218e-05 3.39467e-05 0.100823)
(3.29166e-05 3.29014e-05 0.100823)
(3.41839e-07 1.90712e-07 0.100824)
(-3.40899e-07 1.95993e-07 0.100824)
(-3.29145e-05 3.28927e-05 0.100823)
(1.80615e-07 3.41669e-07 0.100824)
(1.77012e-07 -3.29752e-07 0.100824)
(-1.85464e-07 -3.26239e-07 0.100824)
(3.28883e-05 -3.29186e-05 0.100823)
(-3.24617e-07 -1.79444e-07 0.100824)
(-2.74617e-08 -4.8424e-06 0.100581)
(-5.97546e-07 -4.44005e-06 0.0987185)
(1.19108e-06 -1.62452e-06 0.0938683)
(-4.86535e-06 -2.82657e-08 0.100581)
(-4.42791e-06 -5.79691e-07 0.0987183)
(-3.13653e-07 -3.1251e-07 0.100824)
(3.13292e-07 -3.1308e-07 0.100824)
(-3.11852e-07 3.13068e-07 0.100824)
(3.11605e-07 3.12673e-07 0.100824)
(9.17679e-06 -5.11591e-08 0.100795)
(-1.42352e-07 3.13102e-07 0.100824)
(7.43943e-06 -2.52378e-06 0.100637)
(-1.74077e-07 -1.1699e-07 0.100824)
(-1.58126e-06 1.16647e-06 0.0938681)
(-4.52009e-08 9.18201e-06 0.100795)
(3.11519e-07 -1.4201e-07 0.100824)
(-1.17081e-07 -1.7753e-07 0.100824)
(-2.54165e-06 7.45985e-06 0.100637)
(3.39397e-05 3.39573e-05 0.100823)
(2.05828e-06 2.78838e-06 0.100316)
(2.78316e-06 2.05321e-06 0.100315)
(2.76726e-08 -4.76976e-06 0.100581)
(7.38645e-07 3.68164e-06 0.0987181)
(-1.01774e-08 4.68755e-06 0.10058)
(-8.32822e-07 -3.31178e-06 0.098719)
(-5.97961e-07 3.72434e-07 0.093872)
(2.27679e-07 1.28001e-07 0.0938712)
(-4.79634e-06 2.23461e-08 0.100581)
(3.6717e-06 7.22161e-07 0.0987179)
(4.71031e-06 -4.18315e-09 0.10058)
(-3.30098e-06 -8.19558e-07 0.0987188)
(2.72468e-07 -2.73251e-07 0.100824)
(-2.72354e-07 2.72713e-07 0.100824)
(2.71073e-07 2.71732e-07 0.100824)
(-2.49699e-07 -2.48585e-07 0.100824)
(2.49455e-07 -2.49913e-07 0.100824)
(-2.48619e-07 2.48366e-07 0.100824)
(2.48417e-07 2.47751e-07 0.100824)
(8.75562e-06 -2.77187e-08 0.100794)
(-7.43389e-06 2.11975e-06 0.100636)
(-2.37706e-07 -1.10981e-07 0.100824)
(-2.42391e-07 3.7534e-07 0.100824)
(-8.96804e-06 2.69067e-08 0.100794)
(7.11607e-06 -2.10693e-06 0.100637)
(-2.94953e-07 -9.0659e-08 0.100824)
(3.25037e-07 -5.66024e-07 0.0938711)
(1.98892e-07 1.99503e-07 0.093871)
(-2.0234e-08 8.75967e-06 0.100794)
(-1.11736e-07 -2.30566e-07 0.100824)
(2.12882e-06 -7.45275e-06 0.100636)
(3.73493e-07 -2.42344e-07 0.100824)
(2.30205e-08 -8.97008e-06 0.100794)
(-9.10249e-08 -2.99235e-07 0.100824)
(-2.11726e-06 7.1407e-06 0.100637)
(-2.49908e-06 -2.66817e-06 0.100314)
(-2.6616e-06 -2.49201e-06 0.100314)
(3.38615e-05 3.38788e-05 0.100823)
(2.61669e-06 2.51554e-06 0.100315)
(2.50952e-06 2.61115e-06 0.100315)
(-8.8471e-09 -4.81675e-06 0.100581)
(5.57022e-07 4.18066e-06 0.0987174)
(1.09318e-08 4.78297e-06 0.100581)
(-6.42211e-07 -4.03876e-06 0.0987182)
(-9.7548e-07 1.13154e-06 0.0938666)
(8.88801e-07 -1.05189e-06 0.0938673)
(-4.84191e-06 -1.23527e-08 0.100581)
(4.16845e-06 5.43844e-07 0.0987172)
(4.80595e-06 1.36135e-08 0.100581)
(-4.03212e-06 -6.29083e-07 0.098718)
(2.60462e-07 -2.60776e-07 0.100824)
(-2.59051e-07 2.59625e-07 0.100824)
(2.58466e-07 2.58696e-07 0.100824)
(-2.74715e-07 -2.73409e-07 0.100824)
(2.74131e-07 -2.74328e-07 0.100824)
(-2.73244e-07 2.73618e-07 0.100824)
(2.73068e-07 2.73314e-07 0.100824)
(9.01787e-06 -4.55918e-08 0.100795)
(-7.60216e-06 2.38422e-06 0.100637)
(-2.57466e-07 -1.0051e-07 0.100824)
(-1.96744e-07 3.45836e-07 0.100824)
(-9.15603e-06 4.81325e-08 0.100795)
(7.33666e-06 -2.40942e-06 0.100637)
(-2.3986e-07 -1.03991e-07 0.100824)
(1.07215e-06 -9.44164e-07 0.0938658)
(-9.82384e-07 8.55672e-07 0.093867)
(-3.83198e-08 9.02233e-06 0.100795)
(-1.00152e-07 -2.51128e-07 0.100824)
(2.40139e-06 -7.6264e-06 0.100637)
(3.44321e-07 -1.9675e-07 0.100824)
(4.66516e-08 -9.15838e-06 0.100795)
(-1.03962e-07 -2.43621e-07 0.100824)
(-2.42191e-06 7.35832e-06 0.100637)
(-2.31808e-06 -2.8069e-06 0.100315)
(-2.80006e-06 -2.31567e-06 0.100315)
(3.39171e-05 3.39342e-05 0.100823)
(2.27775e-06 2.71835e-06 0.100316)
(2.7133e-06 2.27343e-06 0.100315)
(-1.02165e-08 -4.82517e-06 0.100581)
(5.69482e-07 4.12326e-06 0.0987174)
(5.91006e-09 4.75122e-06 0.100581)
(-6.40776e-07 -4.04068e-06 0.0987182)
(-9.67091e-07 1.08416e-06 0.0938666)
(8.84741e-07 -1.05037e-06 0.0938673)
(-4.84984e-06 -1.29471e-08 0.100581)
(4.1083e-06 5.51608e-07 0.0987172)
(4.77413e-06 9.30922e-09 0.100581)
(-4.02981e-06 -6.23604e-07 0.098718)
(2.7516e-07 -2.75451e-07 0.100824)
(-2.73982e-07 2.74816e-07 0.100824)
(2.73252e-07 2.73648e-07 0.100824)
(-2.77112e-07 -2.76017e-07 0.100824)
(2.76396e-07 -2.76901e-07 0.100824)
(-2.75701e-07 2.75732e-07 0.100824)
(2.75177e-07 2.75152e-07 0.100824)
(9.02999e-06 -4.59937e-08 0.100795)
(-7.55728e-06 2.34401e-06 0.100637)
(-2.25638e-07 -1.06003e-07 0.100825)
(-1.85248e-07 3.38873e-07 0.100824)
(-9.09973e-06 4.2969e-08 0.100795)
(7.34634e-06 -2.41356e-06 0.100637)
(-2.22933e-07 -1.06466e-07 0.100825)
(1.00749e-06 -9.26502e-07 0.0938657)
(-9.77177e-07 8.49378e-07 0.093867)
(-4.15512e-08 9.03383e-06 0.100795)
(-1.06144e-07 -2.19301e-07 0.100825)
(2.35756e-06 -7.57992e-06 0.100637)
(3.37125e-07 -1.84979e-07 0.100824)
(4.07038e-08 -9.10168e-06 0.100795)
(-1.06668e-07 -2.25828e-07 0.100825)
(-2.42649e-06 7.36804e-06 0.100637)
(-2.31663e-06 -2.78667e-06 0.100315)
(-2.77944e-06 -2.31296e-06 0.100315)
(3.3925e-05 3.39423e-05 0.100823)
(2.28265e-06 2.71776e-06 0.100316)
(2.71247e-06 2.27832e-06 0.100315)
(-1.01393e-08 -4.82582e-06 0.100581)
(5.69795e-07 4.12239e-06 0.0987174)
(5.99846e-09 4.7505e-06 0.100581)
(-6.40207e-07 -4.04099e-06 0.0987182)
(-9.67432e-07 1.08441e-06 0.0938666)
(8.8431e-07 -1.05046e-06 0.0938673)
(-4.85021e-06 -1.31079e-08 0.100581)
(4.10807e-06 5.52234e-07 0.0987172)
(4.7736e-06 9.43646e-09 0.100581)
(-4.02984e-06 -6.23959e-07 0.098718)
(2.76446e-07 -2.76959e-07 0.100824)
(-2.75316e-07 2.75845e-07 0.100824)
(2.74348e-07 2.7449e-07 0.100824)
(-2.77196e-07 -2.76486e-07 0.100824)
(2.76824e-07 -2.77397e-07 0.100824)
(-2.75951e-07 2.75934e-07 0.100824)
(2.757e-07 2.75262e-07 0.100824)
(9.03045e-06 -4.62319e-08 0.100795)
(-7.55581e-06 2.34366e-06 0.100637)
(-2.23087e-07 -1.0655e-07 0.100825)
(-1.84538e-07 3.38006e-07 0.100824)
(-9.0978e-06 4.30698e-08 0.100795)
(7.34681e-06 -2.41358e-06 0.100637)
(-2.21806e-07 -1.0708e-07 0.100825)
(1.008e-06 -9.27236e-07 0.0938657)
(-9.7694e-07 8.4928e-07 0.093867)
(-4.15498e-08 9.03442e-06 0.100795)
(-1.06522e-07 -2.17149e-07 0.100825)
(2.35798e-06 -7.57924e-06 0.100637)
(3.36519e-07 -1.84544e-07 0.100824)
(4.08306e-08 -9.09997e-06 0.100795)
(-1.07004e-07 -2.2514e-07 0.100825)
(-2.42649e-06 7.36835e-06 0.100637)
(-2.31575e-06 -2.78566e-06 0.100315)
(-2.77905e-06 -2.3125e-06 0.100315)
(3.39257e-05 3.39428e-05 0.100823)
(2.2828e-06 2.71699e-06 0.100316)
(2.71212e-06 2.27869e-06 0.100315)
(-9.91162e-09 -4.82589e-06 0.100581)
(5.69761e-07 4.12275e-06 0.0987174)
(6.28591e-09 4.75013e-06 0.100581)
(-6.40461e-07 -4.04118e-06 0.0987182)
(-9.66199e-07 1.08392e-06 0.0938666)
(8.78211e-07 -1.04633e-06 0.0938673)
(-4.85033e-06 -1.36453e-08 0.100581)
(4.10324e-06 5.49897e-07 0.0987172)
(4.77292e-06 9.18088e-09 0.100581)
(-4.02143e-06 -6.22037e-07 0.098718)
(2.76873e-07 -2.77298e-07 0.100824)
(-2.75271e-07 2.75924e-07 0.100824)
(2.74851e-07 2.74397e-07 0.100824)
(-2.75927e-07 -2.76799e-07 0.100824)
(2.77404e-07 -2.78547e-07 0.100824)
(-2.75018e-07 2.7527e-07 0.100824)
(2.75813e-07 2.7434e-07 0.100824)
(9.02999e-06 -4.71385e-08 0.100795)
(-7.55629e-06 2.34327e-06 0.100637)
(-2.23168e-07 -1.06839e-07 0.100825)
(-1.85115e-07 3.37923e-07 0.100824)
(-9.0978e-06 4.2649e-08 0.100795)
(7.34608e-06 -2.41433e-06 0.100637)
(-2.22356e-07 -1.07674e-07 0.100825)
(1.00806e-06 -9.27236e-07 0.0938657)
(-9.77343e-07 8.4864e-07 0.093867)
(-4.18303e-08 9.03406e-06 0.100795)
(-1.06293e-07 -2.17744e-07 0.100825)
(2.35752e-06 -7.57915e-06 0.100637)
(3.3716e-07 -1.85248e-07 0.100824)
(4.04984e-08 -9.09992e-06 0.100795)
(-1.06825e-07 -2.26248e-07 0.100825)
(-2.42688e-06 7.36814e-06 0.100637)
(-2.31605e-06 -2.78692e-06 0.100315)
(-2.77872e-06 -2.31332e-06 0.100315)
(3.39257e-05 3.39421e-05 0.100823)
(2.28305e-06 2.71668e-06 0.100316)
(2.71338e-06 2.27767e-06 0.100315)
(-3.37391e-09 -4.82833e-06 0.100581)
(5.71104e-07 4.12221e-06 0.0987174)
(8.66634e-09 4.74856e-06 0.100581)
(-6.38019e-07 -4.04194e-06 0.0987182)
(-9.40083e-07 1.05156e-06 0.0938666)
(8.66713e-07 -1.013e-06 0.0938674)
(-4.85043e-06 -1.42071e-08 0.100581)
(4.09929e-06 5.47243e-07 0.0987171)
(4.77275e-06 8.36548e-09 0.100581)
(-4.01663e-06 -6.21448e-07 0.098718)
(2.77721e-07 -2.79658e-07 0.100824)
(-2.74403e-07 2.75053e-07 0.100824)
(2.74777e-07 2.73155e-07 0.100824)
(-2.74205e-07 -2.77837e-07 0.100824)
(2.80459e-07 -2.84936e-07 0.100824)
(-2.743e-07 2.7455e-07 0.100824)
(2.75957e-07 2.7295e-07 0.100824)
(9.03029e-06 -5.03263e-08 0.100795)
(-7.55686e-06 2.34041e-06 0.100637)
(-2.24353e-07 -1.09321e-07 0.100825)
(-1.85656e-07 3.32481e-07 0.100824)
(-9.09816e-06 4.03941e-08 0.100795)
(7.34474e-06 -2.42039e-06 0.100637)
(-2.2261e-07 -1.11216e-07 0.100825)
(1.00825e-06 -9.27289e-07 0.0938657)
(-9.76501e-07 8.49442e-07 0.093867)
(-4.10022e-08 9.03408e-06 0.100795)
(-1.05861e-07 -2.1947e-07 0.100825)
(2.35758e-06 -7.57976e-06 0.100637)
(3.37718e-07 -1.85851e-07 0.100824)
(4.0988e-08 -9.10074e-06 0.100795)
(-1.06285e-07 -2.26953e-07 0.100825)
(-2.42645e-06 7.36787e-06 0.100637)
(-2.31615e-06 -2.78694e-06 0.100315)
(-2.77871e-06 -2.31368e-06 0.100315)
(3.39255e-05 3.39404e-05 0.100823)
(2.28415e-06 2.71633e-06 0.100316)
(2.71319e-06 2.27887e-06 0.100315)
(-6.30794e-09 -4.82686e-06 0.100581)
(5.73507e-07 4.12053e-06 0.0987174)
(1.6735e-08 4.74783e-06 0.100581)
(-6.38806e-07 -4.04277e-06 0.0987182)
(-8.06393e-07 9.24583e-07 0.0938664)
(8.96556e-07 -1.0615e-06 0.0938674)
(-4.85063e-06 -1.37131e-08 0.100581)
(4.09829e-06 5.47047e-07 0.0987171)
(4.77312e-06 8.08126e-09 0.100581)
(-4.01562e-06 -6.20701e-07 0.098718)
(2.81119e-07 -2.85005e-07 0.100824)
(-2.74085e-07 2.74362e-07 0.100824)
(2.7492e-07 2.7182e-07 0.100824)
(-2.75527e-07 -2.76405e-07 0.100824)
(2.7712e-07 -2.76947e-07 0.100824)
(-2.74463e-07 2.74723e-07 0.100824)
(2.76053e-07 2.72781e-07 0.100824)
(9.02966e-06 -4.87369e-08 0.100795)
(-7.55928e-06 2.3348e-06 0.100637)
(-2.24047e-07 -1.14143e-07 0.100824)
(-1.8724e-07 3.37315e-07 0.100824)
(-9.09882e-06 3.81739e-08 0.100795)
(7.34509e-06 -2.41606e-06 0.100637)
(-2.23511e-07 -1.12428e-07 0.100824)
(1.00791e-06 -9.27319e-07 0.0938657)
(-9.77297e-07 8.49028e-07 0.093867)
(-4.12429e-08 9.03366e-06 0.100795)
(-1.05687e-07 -2.21545e-07 0.100825)
(2.35778e-06 -7.57958e-06 0.100637)
(3.38497e-07 -1.86458e-07 0.100824)
(4.11107e-08 -9.10075e-06 0.100795)
(-1.06127e-07 -2.26582e-07 0.100825)
(-2.42654e-06 7.36838e-06 0.100637)
(-2.31562e-06 -2.78749e-06 0.100315)
(-2.7787e-06 -2.31357e-06 0.100315)
(3.39246e-05 3.394e-05 0.100823)
(2.28384e-06 2.71671e-06 0.100316)
(2.71348e-06 2.27843e-06 0.100315)
(-9.44169e-09 -4.82657e-06 0.100581)
(5.71014e-07 4.12272e-06 0.0987174)
(7.00672e-09 4.75099e-06 0.100581)
(-6.4041e-07 -4.04114e-06 0.0987182)
(-9.61909e-07 1.0816e-06 0.0938666)
(8.8799e-07 -1.05554e-06 0.0938674)
(-4.85116e-06 -1.32751e-08 0.100581)
(4.09854e-06 5.47358e-07 0.0987171)
(4.77394e-06 8.91441e-09 0.100581)
(-4.01622e-06 -6.20863e-07 0.098718)
(2.7705e-07 -2.75965e-07 0.100824)
(-2.74097e-07 2.75129e-07 0.100824)
(2.76413e-07 2.7156e-07 0.100824)
(-2.76183e-07 -2.77239e-07 0.100824)
(2.77903e-07 -2.7326e-07 0.100824)
(-2.73396e-07 2.76955e-07 0.100824)
(2.84789e-07 2.67853e-07 0.100824)
(9.02977e-06 -4.63549e-08 0.100795)
(-7.55696e-06 2.34284e-06 0.100637)
(-2.26822e-07 -1.07387e-07 0.100825)
(-1.8742e-07 3.38909e-07 0.100824)
(-9.09868e-06 4.24559e-08 0.100795)
(7.34627e-06 -2.41388e-06 0.100637)
(-2.26205e-07 -1.0753e-07 0.100825)
(1.00798e-06 -9.27548e-07 0.0938657)
(-9.77174e-07 8.49285e-07 0.093867)
(-4.27773e-08 9.03171e-06 0.100795)
(-1.05896e-07 -2.23615e-07 0.100825)
(2.35794e-06 -7.57951e-06 0.100637)
(3.3824e-07 -1.85251e-07 0.100824)
(4.21034e-08 -9.10012e-06 0.100795)
(-1.06234e-07 -2.25368e-07 0.100825)
(-2.42639e-06 7.36854e-06 0.100637)
(-2.31597e-06 -2.78601e-06 0.100315)
(-2.77835e-06 -2.31327e-06 0.100315)
(3.39228e-05 3.39419e-05 0.100823)
(2.28324e-06 2.71684e-06 0.100316)
(2.71234e-06 2.279e-06 0.100315)
(-9.96392e-09 -4.82683e-06 0.100581)
(5.69336e-07 4.12219e-06 0.0987174)
(6.32872e-09 4.75003e-06 0.100581)
(-6.41329e-07 -4.04169e-06 0.0987182)
(-9.67324e-07 1.08408e-06 0.0938666)
(8.84522e-07 -1.04994e-06 0.0938674)
(-4.85112e-06 -1.3377e-08 0.100581)
(4.09783e-06 5.47864e-07 0.0987171)
(4.77298e-06 8.70683e-09 0.100581)
(-4.01674e-06 -6.2024e-07 0.098718)
(2.7808e-07 -2.7275e-07 0.100824)
(-2.7269e-07 2.77273e-07 0.100824)
(2.8476e-07 2.67053e-07 0.100824)
(-2.75667e-07 -2.77381e-07 0.100824)
(2.78494e-07 -2.72424e-07 0.100824)
(-2.72754e-07 2.77846e-07 0.100824)
(2.85617e-07 2.68064e-07 0.100824)
(9.02951e-06 -4.60215e-08 0.100795)
(-7.55677e-06 2.34356e-06 0.100637)
(-2.27715e-07 -1.07323e-07 0.100825)
(-1.86935e-07 3.37617e-07 0.100824)
(-9.09923e-06 4.32038e-08 0.100795)
(7.34657e-06 -2.41363e-06 0.100637)
(-2.26178e-07 -1.0779e-07 0.100825)
(1.0081e-06 -9.27176e-07 0.0938657)
(-9.77054e-07 8.49657e-07 0.093867)
(-4.34474e-08 9.03168e-06 0.100795)
(-1.06656e-07 -2.24321e-07 0.100825)
(2.35773e-06 -7.57899e-06 0.100637)
(3.38175e-07 -1.82422e-07 0.100824)
(4.16778e-08 -9.09991e-06 0.100795)
(-1.06995e-07 -2.26063e-07 0.100825)
(-2.42663e-06 7.36911e-06 0.100637)
(-2.31647e-06 -2.78596e-06 0.100315)
(-2.77929e-06 -2.31296e-06 0.100315)
(3.39226e-05 3.39445e-05 0.100823)
(2.28274e-06 2.71755e-06 0.100316)
(2.7121e-06 2.27863e-06 0.100315)
(-9.87903e-09 -4.82524e-06 0.100581)
(5.69396e-07 4.1227e-06 0.0987174)
(6.1894e-09 4.74992e-06 0.100581)
(-6.40137e-07 -4.04068e-06 0.0987182)
(-9.67429e-07 1.08442e-06 0.0938666)
(8.84285e-07 -1.05045e-06 0.0938674)
(-4.85e-06 -1.32079e-08 0.100581)
(4.09805e-06 5.48009e-07 0.0987171)
(4.77322e-06 8.78236e-09 0.100581)
(-4.01643e-06 -6.20139e-07 0.098718)
(2.78487e-07 -2.72227e-07 0.100824)
(-2.72508e-07 2.77928e-07 0.100824)
(2.85527e-07 2.67255e-07 0.100824)
(-2.7575e-07 -2.77665e-07 0.100824)
(2.78471e-07 -2.72383e-07 0.100824)
(-2.72737e-07 2.77837e-07 0.100824)
(2.85624e-07 2.67854e-07 0.100824)
(9.02884e-06 -4.59163e-08 0.100795)
(-7.55618e-06 2.34358e-06 0.100637)
(-2.27084e-07 -1.07298e-07 0.100825)
(-1.86771e-07 3.3711e-07 0.100824)
(-9.0987e-06 4.32984e-08 0.100795)
(7.34617e-06 -2.41343e-06 0.100637)