/*--------------------------------*- C++ -*----------------------------------*\
| =========                 |                                                 |
| \\      /  F ield         | OpenFOAM: The Open Source CFD Toolbox           |
|  \\    /   O peration     | Version:  2206                                  |
|   \\  /    A nd           | Website:  www.openfoam.com                      |
|    \\/     M anipulation  |                                                 |
\*---------------------------------------------------------------------------*/
FoamFile
{
    version     2.0;
    format      ascii;
    arch        "LSB;label=32;scalar=64";
    class       volScalarField;
    location    "37.5";
    object      epsilon;
}
// * * * * * * * * * * * * * * * * * * * * * * * * * * * * * * * * * * * * * //

dimensions      [0 2 -3 0 0 0 0];

internalField   nonuniform List<scalar> 
28673
(
2.71628e-07
3.06599e-07
2.42023e-07
2.71631e-07
2.71642e-07
3.06616e-07
2.42024e-07
2.71636e-07
2.71646e-07
3.06622e-07
2.42025e-07
2.7164e-07
2.71649e-07
3.06631e-07
2.42026e-07
2.71644e-07
2.71653e-07
3.06639e-07
2.42025e-07
2.71646e-07
2.71656e-07
3.06647e-07
2.42023e-07
2.71647e-07
2.71657e-07
3.06653e-07
2.42021e-07
2.71648e-07
2.71657e-07
3.06656e-07
2.42017e-07
2.71625e-07
2.71649e-07
3.06644e-07
2.41949e-07
2.71537e-07
2.71566e-07
3.06546e-07
2.41918e-07
2.71504e-07
2.71516e-07
3.06488e-07
2.41917e-07
2.71503e-07
2.71514e-07
3.06454e-07
2.41023e-07
2.67559e-07
2.67562e-07
3.0035e-07
2.7166e-07
3.06307e-07
2.71628e-07
3.06331e-07
2.71653e-07
2.7166e-07
2.71652e-07
2.7166e-07
3.06591e-07
3.06321e-07
2.71637e-07
2.71665e-07
2.71656e-07
2.7163e-07
2.71656e-07
3.06332e-07
2.71638e-07
2.71641e-07
2.71638e-07
3.06338e-07
3.06611e-07
3.06334e-07
2.71655e-07
2.71663e-07
2.71656e-07
2.71664e-07
3.06604e-07
3.06329e-07
2.71639e-07
2.71668e-07
2.7164e-07
2.71668e-07
2.71659e-07
2.71635e-07
2.71659e-07
3.06613e-07
3.06342e-07
2.7164e-07
2.71645e-07
2.71641e-07
3.06344e-07
3.06614e-07
3.06348e-07
2.71659e-07
2.71667e-07
2.7166e-07
2.71668e-07
3.0661e-07
3.06337e-07
2.71643e-07
2.71671e-07
2.71644e-07
2.71673e-07
2.71662e-07
2.71639e-07
2.71663e-07
3.06622e-07
3.0635e-07
2.71644e-07
2.71649e-07
2.71645e-07
3.06352e-07
3.06629e-07
3.06355e-07
2.71663e-07
2.71671e-07
2.71665e-07
2.71673e-07
3.06618e-07
3.06346e-07
2.71647e-07
2.71675e-07
2.71648e-07
2.71677e-07
2.71666e-07
2.71643e-07
2.71667e-07
3.0663e-07
3.06359e-07
2.71648e-07
2.71653e-07
2.71649e-07
3.0636e-07
3.06635e-07
3.06363e-07
2.71668e-07
2.71676e-07
2.71669e-07
2.71676e-07
3.06627e-07
3.06353e-07
2.71651e-07
2.7168e-07
2.71651e-07
2.7168e-07
2.7167e-07
2.71646e-07
2.7167e-07
3.06638e-07
3.06367e-07
2.71652e-07
2.71656e-07
2.71652e-07
3.06368e-07
3.06643e-07
3.0637e-07
2.71672e-07
2.71678e-07
2.71671e-07
2.71677e-07
3.06634e-07
3.0636e-07
2.71654e-07
2.71683e-07
2.71653e-07
2.71682e-07
2.71673e-07
2.71647e-07
2.71672e-07
3.06646e-07
3.06374e-07
2.71655e-07
2.71657e-07
2.71654e-07
3.06374e-07
3.0665e-07
3.06375e-07
2.71673e-07
2.71679e-07
2.71671e-07
2.71678e-07
3.06641e-07
3.06365e-07
2.71655e-07
2.71684e-07
2.71654e-07
2.71681e-07
2.71673e-07
2.71648e-07
2.71672e-07
3.06653e-07
3.06378e-07
2.71655e-07
2.71657e-07
2.71654e-07
3.06379e-07
3.06654e-07
3.06372e-07
2.71673e-07
2.71679e-07
2.71666e-07
2.71666e-07
3.06645e-07
3.06351e-07
2.71655e-07
2.71682e-07
2.71651e-07
2.71679e-07
2.71673e-07
2.71637e-07
2.71665e-07
3.06656e-07
3.06376e-07
2.71655e-07
2.71653e-07
2.71647e-07
3.06371e-07
3.06647e-07
3.0629e-07
2.71659e-07
2.71656e-07
2.71588e-07
2.71579e-07
3.06623e-07
3.06247e-07
2.71647e-07
2.71676e-07
2.71583e-07
2.71615e-07
2.71658e-07
2.71548e-07
2.71584e-07
3.06652e-07
3.06309e-07
2.7164e-07
2.71582e-07
2.71566e-07
3.06284e-07
3.06554e-07
3.06206e-07
2.71574e-07
2.71569e-07
2.71529e-07
2.71534e-07
3.06513e-07
3.06196e-07
2.71567e-07
2.71599e-07
2.71513e-07
2.71543e-07
2.71572e-07
2.71503e-07
2.71531e-07
3.06572e-07
3.06214e-07
2.71554e-07
2.71517e-07
2.71512e-07
3.06213e-07
3.06482e-07
3.06176e-07
2.7153e-07
2.71535e-07
2.71474e-07
2.71478e-07
3.06476e-07
3.06165e-07
2.71514e-07
2.71542e-07
2.71455e-07
2.71483e-07
2.71532e-07
2.71449e-07
2.71478e-07
3.06488e-07
3.06182e-07
2.71513e-07
2.71459e-07
2.71456e-07
3.06183e-07
3.0645e-07
3.0359e-07
2.71529e-07
2.71534e-07
2.68984e-07
2.68988e-07
3.06439e-07
3.03583e-07
2.71511e-07
2.7154e-07
2.68971e-07
2.68988e-07
2.71534e-07
2.68967e-07
2.68986e-07
3.06454e-07
3.03591e-07
2.71511e-07
2.68972e-07
2.6897e-07
3.0359e-07
3.0035e-07
2.67572e-07
2.67575e-07
3.00346e-07
2.67562e-07
2.67575e-07
2.41023e-07
2.41023e-07
2.41023e-07
2.67574e-07
3.00351e-07
2.67561e-07
1.83351e-06
8.84534e-06
1.834e-06
8.84486e-06
2.0886e-05
2.08855e-05
1.83336e-06
8.84628e-06
2.42025e-07
2.42025e-07
2.42023e-07
2.42024e-07
2.42027e-07
2.42024e-07
5.34118e-07
1.47302e-06
2.52332e-07
2.7163e-07
5.34289e-07
1.47219e-06
2.52332e-07
2.08863e-05
5.34136e-07
2.52333e-07
2.71641e-07
5.3431e-07
2.52333e-07
1.47208e-06
3.3198e-06
3.32088e-06
3.06332e-07
3.31923e-06
3.32027e-06
1.83369e-06
8.84497e-06
1.83425e-06
8.84456e-06
2.08844e-05
2.08844e-05
1.83359e-06
8.84647e-06
1.83408e-06
8.84605e-06
2.42024e-07
2.42028e-07
2.42024e-07
2.42024e-07
2.42023e-07
2.42027e-07
2.42023e-07
5.34155e-07
1.47319e-06
2.52331e-07
2.71634e-07
5.34323e-07
1.47233e-06
2.52333e-07
2.0885e-05
2.08848e-05
5.34171e-07
2.52332e-07
1.47308e-06
2.71645e-07
5.3434e-07
2.52335e-07
1.47226e-06
3.31995e-06
3.32097e-06
3.0634e-07
3.31945e-06
3.32046e-06
1.83379e-06
8.84483e-06
1.83437e-06
8.84451e-06
2.08838e-05
2.0884e-05
1.83371e-06
8.84631e-06
1.83423e-06
8.84595e-06
2.42024e-07
2.42028e-07
2.42026e-07
2.42025e-07
2.42024e-07
2.42028e-07
2.42025e-07
5.3419e-07
1.47329e-06
2.52333e-07
2.71638e-07
5.34359e-07
1.47241e-06
2.52335e-07
2.0884e-05
2.08841e-05
5.34204e-07
2.52334e-07
1.47321e-06
2.71648e-07
5.34375e-07
2.52337e-07
1.47238e-06
3.32018e-06
3.32118e-06
3.06348e-07
3.31965e-06
3.32067e-06
1.83384e-06
8.84486e-06
1.83444e-06
8.84457e-06
2.08837e-05
2.0884e-05
1.83378e-06
8.84631e-06
1.83432e-06
8.846e-06
2.42027e-07
2.42029e-07
2.42026e-07
2.42026e-07
2.42026e-07
2.42028e-07
2.42025e-07
5.34217e-07
1.47334e-06
2.52335e-07
2.71643e-07
5.3439e-07
1.47245e-06
2.52338e-07
2.08837e-05
2.0884e-05
5.34231e-07
2.52336e-07
1.47329e-06
2.71652e-07
5.34404e-07
2.52339e-07
1.47244e-06
3.32031e-06
3.32132e-06
3.06356e-07
3.31973e-06
3.32075e-06
1.83389e-06
8.8449e-06
1.8345e-06
8.84481e-06
2.08839e-05
2.08849e-05
1.83383e-06
8.84634e-06
1.83438e-06
8.84624e-06
2.42026e-07
2.4203e-07
2.42026e-07
2.42025e-07
2.42024e-07
2.42029e-07
2.42026e-07
5.34234e-07
1.47333e-06
2.52337e-07
2.71646e-07
5.34409e-07
1.4724e-06
2.52339e-07
2.08838e-05
2.08846e-05
5.34248e-07
2.52338e-07
1.47329e-06
2.71656e-07
5.34424e-07
2.52341e-07
1.4724e-06
3.32028e-06
3.32129e-06
3.06364e-07
3.31968e-06
3.3207e-06
1.83377e-06
8.8451e-06
1.83441e-06
8.84527e-06
2.08846e-05
2.08872e-05
1.83369e-06
8.84659e-06
1.83429e-06
8.84674e-06
2.42024e-07
2.4203e-07
2.42026e-07
2.42023e-07
2.42022e-07
2.42028e-07
2.42024e-07
5.34226e-07
1.47323e-06
2.52337e-07
2.71648e-07
5.3441e-07
1.47224e-06
2.52338e-07
2.08843e-05
2.08869e-05
5.3424e-07
2.52339e-07
1.47319e-06
2.71658e-07
5.34424e-07
2.5234e-07
1.47223e-06
3.32005e-06
3.32107e-06
3.06371e-07
3.31938e-06
3.32041e-06
1.83397e-06
8.84503e-06
1.83465e-06
8.84554e-06
2.0885e-05
2.08891e-05
1.83389e-06
8.84657e-06
1.83452e-06
8.84705e-06
2.42022e-07
2.42027e-07
2.42023e-07
2.42021e-07
2.4202e-07
2.42024e-07
2.42021e-07
5.34243e-07
1.47328e-06
2.52336e-07
2.71649e-07
5.34433e-07
1.4722e-06
2.52337e-07
2.08847e-05
2.08888e-05
5.34256e-07
2.52338e-07
1.47325e-06
2.71659e-07
5.34448e-07
2.52338e-07
1.47218e-06
3.32008e-06
3.3211e-06
3.06377e-07
3.31919e-06
3.32022e-06
1.83416e-06
8.84524e-06
1.83481e-06
8.84671e-06
2.08852e-05
2.08905e-05
1.83402e-06
8.84676e-06
1.83467e-06
8.84821e-06
2.42021e-07
2.42024e-07
2.42021e-07
2.4202e-07
2.42017e-07
2.42021e-07
2.42017e-07
5.34242e-07
1.47313e-06
2.52336e-07
2.71648e-07
5.34437e-07
1.47192e-06
2.52335e-07
2.08856e-05
2.08916e-05
5.3425e-07
2.52336e-07
1.47304e-06
2.71658e-07
5.34446e-07
2.52336e-07
1.47186e-06
3.31975e-06
3.32077e-06
3.06379e-07
3.31933e-06
3.32034e-06
1.83431e-06
8.84577e-06
1.83503e-06
8.84848e-06
2.08818e-05
2.08888e-05
1.8343e-06
8.84736e-06
1.83491e-06
8.8501e-06
2.42011e-07
2.4202e-07
2.42013e-07
2.41967e-07
2.4195e-07
2.41973e-07
2.41956e-07
5.34162e-07
1.47272e-06
2.52324e-07
2.71598e-07
5.34424e-07
1.47113e-06
2.52307e-07
2.08835e-05
2.08905e-05
5.34169e-07
2.52329e-07
1.47268e-06
2.71634e-07
5.34432e-07
2.52317e-07
1.47117e-06
3.32054e-06
3.32153e-06
3.06342e-07
3.32098e-06
3.32197e-06
1.83467e-06
8.84601e-06
1.83517e-06
8.85016e-06
2.08734e-05
2.08832e-05
1.83463e-06
8.8477e-06
1.8351e-06
8.85189e-06
2.41937e-07
2.41956e-07
2.41942e-07
2.41919e-07
2.41917e-07
2.41922e-07
2.41919e-07
5.34026e-07
1.47192e-06
2.52247e-07
2.71519e-07
5.34309e-07
1.47044e-06
2.52233e-07
2.08754e-05
2.08852e-05
5.34026e-07
2.52255e-07
1.47204e-06
2.71541e-07
5.34313e-07
2.52239e-07
1.47064e-06
3.32256e-06
3.32351e-06
3.06231e-07
3.3244e-06
3.32534e-06
1.83586e-06
8.84296e-06
1.83595e-06
8.84968e-06
2.08576e-05
2.087e-05
1.83578e-06
8.84461e-06
1.83581e-06
8.8513e-06
2.41919e-07
2.41923e-07
2.41921e-07
2.41906e-07
2.41906e-07
2.41909e-07
2.41907e-07
5.3396e-07
1.47312e-06
2.52223e-07
2.71493e-07
5.3429e-07
1.47167e-06
2.52225e-07
2.086e-05
2.08721e-05
5.3396e-07
2.52225e-07
1.47336e-06
2.71503e-07
5.34289e-07
2.52227e-07
1.47191e-06
3.32585e-06
3.32674e-06
3.06215e-07
3.33036e-06
3.33126e-06
1.83444e-06
8.83395e-06
1.83677e-06
8.84125e-06
2.0822e-05
2.08265e-05
1.83449e-06
8.83561e-06
1.83671e-06
8.84274e-06
2.41918e-07
2.41922e-07
2.4192e-07
2.41663e-07
2.41664e-07
2.41665e-07
2.41664e-07
5.32817e-07
1.47635e-06
2.52167e-07
2.71182e-07
5.3416e-07
1.46948e-06
2.52232e-07
2.0824e-05
2.08282e-05
5.32813e-07
2.52169e-07
1.47653e-06
2.71191e-07
5.3416e-07
2.52233e-07
1.46958e-06
3.33143e-06
3.33233e-06
3.05764e-07
3.34106e-06
3.3418e-06
1.33539e-06
7.8222e-06
1.80206e-06
4.01266e-06
1.7172e-05
7.59642e-06
1.33546e-06
7.82383e-06
1.80224e-06
4.01384e-06
2.33315e-07
2.35833e-07
2.35831e-07
2.43231e-07
2.33401e-07
2.36416e-07
2.36415e-07
5.02169e-07
1.39496e-06
2.5051e-07
2.64624e-07
5.21812e-07
1.42294e-06
2.47966e-07
1.71729e-05
7.59623e-06
5.02173e-07
2.50511e-07
1.39495e-06
2.64625e-07
5.21805e-07
2.47966e-07
1.42286e-06
3.28294e-06
3.2839e-06
2.92902e-07
2.86056e-06
2.86085e-06
8.84591e-06
1.47224e-06
2.08866e-05
3.31998e-06
3.31868e-06
2.08838e-05
1.47208e-06
8.84538e-06
2.08859e-05
2.08853e-05
2.08868e-05
3.31977e-06
3.06329e-07
3.31918e-06
3.32009e-06
2.08844e-05
2.08848e-05
2.08858e-05
2.08864e-05
3.06611e-07
3.31925e-06
3.32017e-06
3.31973e-06
3.32065e-06
1.83354e-06
8.84621e-06
1.83403e-06
8.84574e-06
5.34113e-07
1.47287e-06
2.52331e-07
2.71653e-07
5.34285e-07
1.4721e-06
2.52331e-07
5.34119e-07
1.47314e-06
2.52333e-07
2.71659e-07
5.34291e-07
1.47235e-06
2.52333e-07
1.83414e-06
8.84468e-06
8.84514e-06
1.83362e-06
1.83417e-06
8.84559e-06
8.84604e-06
1.83365e-06
5.34303e-07
2.71652e-07
1.47218e-06
2.5233e-07
1.47298e-06
2.5233e-07
5.34131e-07
5.34309e-07
2.71659e-07
1.47242e-06
2.52332e-07
1.47324e-06
2.52332e-07
5.34137e-07
3.32058e-06
3.3194e-06
3.06316e-07
3.32014e-06
3.31898e-06
2.08835e-05
2.08829e-05
2.08848e-05
2.08851e-05
3.06597e-07
3.32029e-06
3.31917e-06
3.32073e-06
3.31966e-06
2.08823e-05
2.08826e-05
5.34141e-07
2.71637e-07
1.47241e-06
2.52334e-07
1.83334e-06
8.84587e-06
5.34126e-07
2.71665e-07
2.52336e-07
1.47239e-06
1.83395e-06
8.84615e-06
8.8466e-06
1.8335e-06
5.34326e-07
2.71637e-07
1.47249e-06
2.52334e-07
1.47329e-06
2.52333e-07
5.3416e-07
1.83393e-06
8.84568e-06
8.84618e-06
1.83348e-06
5.34313e-07
2.71665e-07
2.52336e-07
1.4725e-06
2.52336e-07
1.47333e-06
5.34145e-07
1.83355e-06
8.84571e-06
1.83404e-06
8.84521e-06
5.34124e-07
2.52333e-07
1.47294e-06
2.71656e-07
5.34294e-07
2.52333e-07
1.47216e-06
1.83354e-06
8.84635e-06
1.83403e-06
8.84587e-06
5.34307e-07
2.7163e-07
1.47227e-06
2.52331e-07
1.47311e-06
2.52331e-07
5.34137e-07
1.83418e-06
8.84507e-06
8.84554e-06
1.83366e-06
5.34311e-07
2.71656e-07
2.52332e-07
1.47224e-06
2.52332e-07
1.47305e-06
5.34142e-07
1.83418e-06
8.84571e-06
8.84617e-06
1.83365e-06
3.06325e-07
3.31974e-06
3.31916e-06
2.08866e-05
2.08854e-05
2.0886e-05
3.06608e-07
3.32004e-06
3.31924e-06
3.32047e-06
3.31972e-06
2.08856e-05
2.08862e-05
5.34138e-07
2.52333e-07
1.47312e-06
2.71638e-07
5.34311e-07
2.52333e-07
1.47233e-06
1.83372e-06
1.83427e-06
8.84597e-06
1.83372e-06
8.84707e-06
1.83427e-06
8.84659e-06
5.34325e-07
2.71641e-07
2.52332e-07
1.47218e-06
2.52332e-07
1.47297e-06
5.34154e-07
5.34326e-07
2.71637e-07
2.52332e-07
1.47242e-06
2.52332e-07
1.47323e-06
5.34155e-07
1.83441e-06
8.84583e-06
8.84627e-06
1.83383e-06
1.83441e-06
8.84642e-06
8.84688e-06
1.83382e-06
2.08868e-05
2.08862e-05
2.08873e-05
2.08867e-05
3.06614e-07
3.31933e-06
3.32036e-06
3.31981e-06
3.32083e-06
2.08853e-05
2.08857e-05
2.08858e-05
2.08862e-05
2.08841e-05
2.08838e-05
2.08854e-05
2.08851e-05
3.31981e-06
3.32074e-06
3.06333e-07
3.31935e-06
3.32028e-06
2.08835e-05
2.08835e-05
2.08846e-05
2.08848e-05
3.06613e-07
3.31945e-06
3.32039e-06
3.31991e-06
3.32085e-06
1.83372e-06
8.8459e-06
1.83427e-06
8.84548e-06
5.3415e-07
1.47306e-06
2.52333e-07
2.71655e-07
5.34321e-07
1.47225e-06
2.52333e-07
5.34155e-07
1.47331e-06
2.52335e-07
2.71663e-07
5.34327e-07
1.47248e-06
2.52335e-07
1.83431e-06
8.84451e-06
8.84488e-06
1.83375e-06
1.83434e-06
8.84543e-06
8.8458e-06
1.83378e-06
5.34339e-07
2.71656e-07
1.4723e-06
2.52332e-07
1.47312e-06
2.52332e-07
5.34167e-07
5.34345e-07
2.71664e-07
1.47253e-06
2.52334e-07
1.47337e-06
2.52334e-07
5.34173e-07
3.32088e-06
3.31983e-06
3.06328e-07
3.32042e-06
3.31931e-06
2.0882e-05
2.08819e-05
2.08841e-05
2.08841e-05
3.06608e-07
3.32053e-06
3.31941e-06
3.32101e-06
3.31996e-06
2.08816e-05
2.08817e-05
5.34178e-07
1.47335e-06
2.52336e-07
2.71639e-07
5.34345e-07
1.47254e-06
2.52336e-07
1.83358e-06
8.846e-06
1.83406e-06
8.84553e-06
5.34164e-07
2.52338e-07
1.47343e-06
2.71668e-07
5.34333e-07
2.52338e-07
1.47258e-06
1.83416e-06
8.84597e-06
8.84638e-06
1.83366e-06
5.34364e-07
2.71639e-07
1.47259e-06
2.52334e-07
1.47341e-06
2.52334e-07
5.34197e-07
1.83415e-06
8.84544e-06
8.84586e-06
1.83364e-06
5.34351e-07
2.71668e-07
2.52337e-07
1.47264e-06
2.52337e-07
1.4735e-06
5.34182e-07
1.83374e-06
8.8454e-06
1.83428e-06
8.84496e-06
5.34161e-07
2.52334e-07
1.47313e-06
2.71659e-07
5.3433e-07
2.52334e-07
1.47231e-06
1.83373e-06
8.84601e-06
1.83428e-06
8.84558e-06
5.34344e-07
2.71634e-07
1.47237e-06
2.52333e-07
1.47323e-06
2.52333e-07
5.34174e-07
1.83435e-06
8.84491e-06
8.84531e-06
1.83379e-06
5.34348e-07
2.71659e-07
2.52334e-07
1.47236e-06
2.52333e-07
1.47319e-06
5.34179e-07
1.83435e-06
8.84551e-06
8.84589e-06
1.83379e-06
3.32073e-06
3.31982e-06
3.06341e-07
3.32024e-06
3.31936e-06
2.08852e-05
2.08848e-05
2.08844e-05
2.08845e-05
3.06622e-07
3.32038e-06
3.31947e-06
3.32091e-06
3.31993e-06
2.08844e-05
2.08845e-05
5.34171e-07
2.52335e-07
1.47331e-06
2.7164e-07
5.34343e-07
2.52335e-07
1.47248e-06
1.83391e-06
8.84614e-06
1.83451e-06
8.84571e-06
1.8339e-06
8.84672e-06
1.8345e-06
8.8463e-06
5.3436e-07
2.71645e-07
2.52334e-07
1.47233e-06
2.52334e-07
1.47314e-06
5.34188e-07
5.34359e-07
2.7164e-07
2.52334e-07
1.47253e-06
2.52334e-07
1.47337e-06
5.34188e-07
1.83458e-06
8.84563e-06
8.84603e-06
1.83396e-06
1.83457e-06
8.84624e-06
8.84661e-06
1.83395e-06
2.0885e-05
2.08847e-05
2.08855e-05
2.08852e-05
3.06621e-07
3.31956e-06
3.32057e-06
3.32003e-06
3.32104e-06
2.08844e-05
2.08844e-05
2.08849e-05
2.08849e-05
2.08832e-05
2.08833e-05
2.08844e-05
2.08844e-05
3.32001e-06
3.32096e-06
3.0634e-07
3.31954e-06
3.3205e-06
2.08832e-05
2.08831e-05
2.08843e-05
2.08842e-05
3.06622e-07
3.31961e-06
3.32058e-06
3.3201e-06
3.32106e-06
1.83382e-06
8.84576e-06
1.83439e-06
8.84541e-06
5.34184e-07
1.47317e-06
2.52335e-07
2.71659e-07
5.34357e-07
1.47234e-06
2.52335e-07
5.3419e-07
1.47341e-06
2.52337e-07
2.71667e-07
5.34363e-07
1.47257e-06
2.52337e-07
1.8344e-06
8.84453e-06
8.84485e-06
1.83382e-06
1.83443e-06
8.84541e-06
8.84575e-06
1.83385e-06
5.34373e-07
2.7166e-07
1.47237e-06
2.52334e-07
1.47321e-06
2.52334e-07
5.34199e-07
5.34379e-07
2.71668e-07
1.47259e-06
2.52336e-07
1.47345e-06
2.52336e-07
5.34204e-07
3.32111e-06
3.32005e-06
3.06334e-07
3.3206e-06
3.31947e-06
2.08814e-05
2.08815e-05
2.0884e-05
2.08838e-05
3.06616e-07
3.32065e-06
3.31952e-06
3.32117e-06
3.32011e-06
2.08814e-05
2.08813e-05
5.34213e-07
1.47346e-06
2.52337e-07
2.71643e-07
5.34382e-07
1.47264e-06
2.52337e-07
1.8337e-06
8.84579e-06
1.83421e-06
8.84541e-06
5.34199e-07
2.5234e-07
1.47356e-06
2.71671e-07
5.34369e-07
2.5234e-07
1.47269e-06
1.83427e-06
8.84597e-06
8.84631e-06
1.83375e-06
5.34398e-07
2.71644e-07
1.47267e-06
2.52336e-07
1.4735e-06
2.52336e-07
5.34228e-07
1.83426e-06
8.84542e-06
8.84577e-06
1.83374e-06
5.34386e-07
2.71672e-07
2.52339e-07
1.47273e-06
2.52339e-07
1.4736e-06
5.34214e-07
1.83384e-06
8.84527e-06
1.83441e-06
8.84489e-06
5.34195e-07
2.52336e-07
1.47324e-06
2.71662e-07
5.34366e-07
2.52336e-07
1.4724e-06
1.83383e-06
8.84583e-06
1.8344e-06
8.84548e-06
5.34378e-07
2.71639e-07
1.47243e-06
2.52335e-07
1.47331e-06
2.52335e-07
5.34205e-07
1.83445e-06
8.84489e-06
8.84525e-06
1.83387e-06
5.34382e-07
2.71663e-07
2.52336e-07
1.47243e-06
2.52335e-07
1.47328e-06
5.3421e-07
1.83444e-06
8.84549e-06
8.84582e-06
1.83386e-06
3.32104e-06
3.32005e-06
3.06347e-07
3.32048e-06
3.31958e-06
2.08841e-05
2.08841e-05
2.0884e-05
2.0884e-05
3.06627e-07
3.32055e-06
3.31966e-06
3.32113e-06
3.32014e-06
2.0884e-05
2.08839e-05
5.34204e-07
2.52336e-07
1.47341e-06
2.71644e-07
5.34377e-07
2.52336e-07
1.47258e-06
1.834e-06
8.84596e-06
1.83463e-06
8.84561e-06
1.83399e-06
8.84658e-06
1.83462e-06
8.84624e-06
5.34393e-07
2.71648e-07
2.52336e-07
1.47242e-06
2.52336e-07
1.47325e-06
5.34219e-07
5.34392e-07
2.71644e-07
2.52336e-07
1.47261e-06
2.52336e-07
1.47346e-06
5.34219e-07
1.83467e-06
8.84562e-06
8.84595e-06
1.83403e-06
1.83466e-06
8.84626e-06
8.84658e-06
1.83402e-06
2.08842e-05
2.08842e-05
2.08847e-05
2.08847e-05
3.06628e-07
3.31971e-06
3.32073e-06
3.32022e-06
3.32123e-06
2.08841e-05
2.0884e-05
2.08847e-05
2.08845e-05
2.08831e-05
2.08833e-05
2.08841e-05
2.08842e-05
3.32015e-06
3.32113e-06
3.06352e-07
3.31963e-06
3.32062e-06
2.08835e-05
2.08831e-05
2.08844e-05
2.0884e-05
3.06633e-07
3.31963e-06
3.32061e-06
3.32016e-06
3.32115e-06
1.83387e-06
8.84575e-06
1.83446e-06
8.84544e-06
5.34211e-07
1.47323e-06
2.52337e-07
2.71664e-07
5.34387e-07
1.47239e-06
2.52337e-07
5.34216e-07
1.47346e-06
2.52339e-07
2.71671e-07
5.34393e-07
1.4726e-06
2.52339e-07
1.83446e-06
8.84465e-06
8.84488e-06
1.83387e-06
1.83448e-06
8.84552e-06
8.84576e-06
1.83389e-06
5.34399e-07
2.71664e-07
1.47239e-06
2.52337e-07
1.47324e-06
2.52336e-07
5.34223e-07
5.34404e-07
2.71672e-07
1.4726e-06
2.52338e-07
1.47347e-06
2.52338e-07
5.34227e-07
3.32121e-06
3.32015e-06
3.06342e-07
3.32067e-06
3.31955e-06
2.08812e-05
2.08814e-05
2.08843e-05
2.08839e-05
3.06624e-07
3.32068e-06
3.31956e-06
3.32122e-06
3.32017e-06
2.08817e-05
2.08813e-05
5.34241e-07
1.47353e-06
2.52338e-07
2.71647e-07
5.34413e-07
1.47269e-06
2.52339e-07
1.83376e-06
8.84578e-06
1.83429e-06
8.84545e-06
5.34227e-07
2.52342e-07
1.47364e-06
2.71675e-07
5.34401e-07
2.52342e-07
1.47275e-06
1.83434e-06
8.84607e-06
8.84633e-06
1.8338e-06
5.34425e-07
2.71648e-07
1.47269e-06
2.52338e-07
1.47354e-06
2.52337e-07
5.34253e-07
1.83432e-06
8.84552e-06
8.84579e-06
1.83379e-06
5.34413e-07
2.71676e-07
2.52341e-07
1.47275e-06
2.52341e-07
1.47365e-06
5.34239e-07
1.83389e-06
8.84525e-06
1.83447e-06
8.84491e-06
5.34222e-07
2.52338e-07
1.4733e-06
2.71666e-07
5.34396e-07
2.52338e-07
1.47245e-06
1.83388e-06
8.84582e-06
1.83447e-06
8.84551e-06
5.34403e-07
2.71643e-07
1.47244e-06
2.52337e-07
1.47334e-06
2.52338e-07
5.34227e-07
1.8345e-06
8.84499e-06
8.84525e-06
1.83391e-06
5.34407e-07
2.71667e-07
2.52338e-07
1.47244e-06
2.52337e-07
1.4733e-06
5.34232e-07
1.83449e-06
8.84558e-06
8.84582e-06
1.8339e-06
3.32119e-06
3.32021e-06
3.06355e-07
3.32059e-06
3.3197e-06
2.08838e-05
2.0884e-05
2.08841e-05
2.08838e-05
3.06635e-07
3.32061e-06
3.3197e-06
3.32122e-06
3.32024e-06
2.08841e-05
2.08838e-05
5.34231e-07
2.52338e-07
1.47348e-06
2.71648e-07
5.34406e-07
2.52338e-07
1.47263e-06
1.83406e-06
8.84596e-06
1.8347e-06
8.84566e-06
1.83404e-06
8.84659e-06
1.83469e-06
8.84628e-06
5.34418e-07
2.71652e-07
2.52338e-07
1.47244e-06
2.52338e-07
1.4733e-06
5.34241e-07
5.34418e-07
2.71648e-07
2.52338e-07
1.47262e-06
2.52338e-07
1.47349e-06
5.34241e-07
1.83472e-06
8.84573e-06
8.84597e-06
1.83408e-06
1.83471e-06
8.84634e-06
8.84659e-06
1.83407e-06
2.0884e-05
2.08842e-05
2.08845e-05
2.08847e-05
3.06637e-07
3.31973e-06
3.32075e-06
3.32028e-06
3.32129e-06
2.08843e-05
2.0884e-05
2.08849e-05
2.08845e-05
2.08832e-05
2.0884e-05
2.08841e-05
2.08849e-05
3.32013e-06
3.32111e-06
3.0636e-07
3.31958e-06
3.32056e-06
2.08851e-05
2.08834e-05
2.0886e-05
2.08843e-05
3.06641e-07
3.31947e-06
3.32044e-06
3.32003e-06
3.321e-06
1.83391e-06
8.84579e-06
1.83451e-06
8.8457e-06
5.34231e-07
1.47322e-06
2.52339e-07
2.71668e-07
5.34409e-07
1.47235e-06
2.52339e-07
5.34235e-07
1.47344e-06
2.52341e-07
2.71676e-07
5.34414e-07
1.47256e-06
2.52341e-07
1.83448e-06
8.84501e-06
8.84498e-06
1.83386e-06
1.8345e-06
8.84593e-06
8.84587e-06
1.83388e-06
5.34414e-07
2.71669e-07
1.47226e-06
2.52338e-07
1.47317e-06
2.52338e-07
5.34233e-07
5.34418e-07
2.71675e-07
1.47247e-06
2.5234e-07
1.47339e-06
2.5234e-07
5.34236e-07
3.32119e-06
3.32015e-06
3.0635e-07
3.32064e-06
3.31953e-06
2.08814e-05
2.08823e-05
2.0886e-05
2.08843e-05
3.06632e-07
3.32051e-06
3.31942e-06
3.3211e-06
3.32006e-06
2.08835e-05
2.08817e-05
5.34262e-07
1.47352e-06
2.5234e-07
2.71651e-07
5.34436e-07
1.47265e-06
2.5234e-07
1.83381e-06
8.8458e-06
1.83435e-06
8.84566e-06
5.34247e-07
2.52344e-07
1.47363e-06
2.7168e-07
5.34424e-07
2.52344e-07
1.47272e-06
1.83436e-06
8.84645e-06
8.84643e-06
1.8338e-06
5.3444e-07
2.71651e-07
1.47256e-06
2.52339e-07
1.47346e-06
2.52339e-07
5.34263e-07
1.83434e-06
8.84584e-06
8.84585e-06
1.83378e-06
5.34428e-07
2.7168e-07
2.52343e-07
1.47263e-06
2.52343e-07
1.47358e-06
5.34249e-07
1.83393e-06
8.84528e-06
1.83452e-06
8.84517e-06
5.3424e-07
2.5234e-07
1.47328e-06
2.7167e-07
5.34416e-07
2.5234e-07
1.4724e-06
1.83392e-06
8.84584e-06
1.83452e-06
8.84574e-06
5.34414e-07
2.71646e-07
1.47232e-06
2.52338e-07
1.47326e-06
2.52339e-07
5.34234e-07
1.83451e-06
8.84538e-06
8.84538e-06
1.83389e-06
5.34419e-07
2.7167e-07
2.52339e-07
1.47232e-06
2.52339e-07
1.47323e-06
5.3424e-07
1.83451e-06
8.84596e-06
8.84591e-06
1.83389e-06
3.3212e-06
3.3202e-06
3.06363e-07
3.32058e-06
3.31965e-06
2.08839e-05
2.08847e-05
2.08857e-05
2.08841e-05
3.06643e-07
3.32047e-06
3.31953e-06
3.32112e-06
3.32009e-06
2.08858e-05
2.08841e-05
5.34248e-07
2.5234e-07
1.47347e-06
2.71652e-07
5.34427e-07
2.5234e-07
1.47258e-06
1.8341e-06
8.84599e-06
1.83475e-06
8.84588e-06
1.83408e-06
8.8466e-06
1.83474e-06
8.84649e-06
5.34429e-07
2.71656e-07
2.52339e-07
1.47231e-06
2.5234e-07
1.47322e-06
5.34248e-07
5.34429e-07
2.71652e-07
2.52339e-07
1.47249e-06
2.52339e-07
1.47341e-06
5.34248e-07
1.83474e-06
8.84609e-06
8.84605e-06
1.83407e-06
1.83472e-06
8.8467e-06
8.84665e-06
1.83405e-06
2.08841e-05
2.08849e-05
2.08846e-05
2.08854e-05
3.06645e-07
3.31956e-06
3.32058e-06
3.32013e-06
3.32115e-06
2.0886e-05
2.08843e-05
2.08865e-05
2.08848e-05
2.08838e-05
2.08863e-05
2.08847e-05
2.08872e-05
3.31991e-06
3.32088e-06
3.06367e-07
3.3193e-06
3.32026e-06
2.08872e-05
2.08841e-05
2.0888e-05
2.0885e-05
3.06648e-07
3.31919e-06
3.32016e-06
3.3199e-06
3.32087e-06
1.83379e-06
8.84603e-06
1.83441e-06
8.84622e-06
5.34227e-07
1.47312e-06
2.52341e-07
2.71672e-07
5.34413e-07
1.47219e-06
2.52341e-07
5.34231e-07
1.47334e-06
2.52342e-07
2.71679e-07
5.34417e-07
1.47239e-06
2.52341e-07
1.83441e-06
8.8454e-06
8.84517e-06
1.83375e-06
1.83443e-06
8.84638e-06
8.84612e-06
1.83377e-06
5.34422e-07
2.71671e-07
1.47216e-06
2.52338e-07
1.47314e-06
2.52339e-07
5.34227e-07
5.34426e-07
2.71677e-07
1.47237e-06
2.52339e-07
1.47336e-06
2.5234e-07
5.34231e-07
3.32097e-06
3.31995e-06
3.06357e-07
3.32033e-06
3.31924e-06
2.08822e-05
2.08847e-05
2.08881e-05
2.0885e-05
3.06639e-07
3.32019e-06
3.3191e-06
3.32094e-06
3.31992e-06
2.08856e-05
2.08825e-05
5.34256e-07
1.47342e-06
2.52342e-07
2.71654e-07
5.34439e-07
1.47249e-06
2.52342e-07
1.83368e-06
8.84601e-06
1.83426e-06
8.84613e-06
5.34242e-07
2.52345e-07
1.47354e-06
2.71683e-07
5.34427e-07
2.52345e-07
1.47255e-06
1.83428e-06
8.84691e-06
8.84666e-06
1.83369e-06
5.34447e-07
2.71653e-07
1.47247e-06
2.52341e-07
1.47344e-06
2.52341e-07
5.34257e-07
1.83427e-06
8.84628e-06
8.84605e-06
1.83367e-06
5.34436e-07
2.71682e-07
2.52343e-07
1.47253e-06
2.52344e-07
1.47356e-06
5.34244e-07
1.8338e-06
8.84556e-06
1.83443e-06
8.84571e-06
5.34233e-07
2.52341e-07
1.47318e-06
2.71673e-07
5.34418e-07
2.52341e-07
1.47224e-06
1.83379e-06
8.84606e-06
1.83442e-06
8.84624e-06
5.3442e-07
2.71648e-07
1.47221e-06
2.52336e-07
1.47324e-06
2.52338e-07
5.34226e-07
1.83444e-06
8.84586e-06
8.84564e-06
1.83378e-06
5.34426e-07
2.71672e-07
2.52339e-07
1.47222e-06
2.52339e-07
1.4732e-06
5.34234e-07
1.83444e-06
8.84639e-06
8.84615e-06
1.83378e-06
3.32101e-06
3.31998e-06
3.06371e-07
3.32029e-06
3.31935e-06
2.08845e-05
2.0887e-05
2.08878e-05
2.08848e-05
3.06651e-07
3.32018e-06
3.31925e-06
3.32098e-06
3.31996e-06
2.08878e-05
2.08848e-05
5.34242e-07
2.5234e-07
1.47336e-06
2.71655e-07
5.34427e-07
2.5234e-07
1.47241e-06
1.83397e-06
8.84619e-06
1.83465e-06
8.84636e-06
1.83395e-06
8.84679e-06
1.83464e-06
8.84697e-06
5.34435e-07
2.71658e-07
2.52338e-07
1.47222e-06
2.5234e-07
1.4732e-06
5.34241e-07
5.34435e-07
2.71654e-07
2.52338e-07
1.47239e-06
2.52339e-07
1.47339e-06
5.34242e-07
1.83467e-06
8.84651e-06
8.84627e-06
1.83397e-06
1.83466e-06
8.84712e-06
8.84687e-06
1.83394e-06
2.08847e-05
2.08872e-05
2.08852e-05
2.08877e-05
3.06652e-07
3.31927e-06
3.32029e-06
3.32e-06
3.32101e-06
2.08881e-05
2.0885e-05
2.08886e-05
2.08855e-05
2.08842e-05
2.08882e-05
2.0885e-05
2.0889e-05
3.31995e-06
3.32093e-06
3.06373e-07
3.31911e-06
3.3201e-06
2.08894e-05
2.08844e-05
2.08904e-05
2.08853e-05
3.06654e-07
3.31903e-06
3.32e-06
3.31986e-06
3.32086e-06
1.834e-06
8.84604e-06
1.83466e-06
8.8466e-06
5.34243e-07
1.47318e-06
2.52339e-07
2.71672e-07
5.34439e-07
1.47213e-06
2.52339e-07
5.34248e-07
1.4734e-06
2.5234e-07
2.71679e-07
5.34443e-07
1.47235e-06
2.5234e-07
1.83485e-06
8.84601e-06
8.84502e-06
1.83411e-06
1.83488e-06
8.84711e-06
8.84611e-06
1.83414e-06
5.34439e-07
2.71673e-07
1.47203e-06
2.52336e-07
1.47313e-06
2.52338e-07
5.34242e-07
5.34445e-07
2.71679e-07
1.47226e-06
2.52337e-07
1.47336e-06
2.52338e-07
5.34248e-07
3.32096e-06
3.31995e-06
3.06363e-07
3.32013e-06
3.31904e-06
2.08827e-05
2.08866e-05
2.089e-05
2.08852e-05
3.06644e-07
3.32011e-06
3.31902e-06
3.32091e-06
3.31989e-06
2.08876e-05
2.08828e-05
5.34273e-07
1.47348e-06
2.5234e-07
2.71655e-07
5.34464e-07
1.47244e-06
2.5234e-07
1.83388e-06
8.84596e-06
1.8345e-06
8.84641e-06
5.3426e-07
2.52344e-07
1.4736e-06
2.71684e-07
5.34453e-07
2.52344e-07
1.4725e-06
1.83472e-06
8.84752e-06
8.84655e-06
1.83405e-06
5.34467e-07
2.71655e-07
1.47234e-06
2.52337e-07
1.47344e-06
2.52338e-07
5.34277e-07
1.83471e-06
8.84686e-06
8.84591e-06
1.83404e-06
5.34456e-07
2.71683e-07
2.52341e-07
1.47239e-06
2.52342e-07
1.47355e-06
5.34263e-07
1.83401e-06
8.84555e-06
1.83467e-06
8.84608e-06
5.34251e-07
2.5234e-07
1.47324e-06
2.71673e-07
5.34443e-07
2.5234e-07
1.47219e-06
1.83401e-06
8.84603e-06
1.83467e-06
8.84654e-06
5.3444e-07
2.71649e-07
1.47211e-06
2.52336e-07
1.47324e-06
2.52337e-07
5.34247e-07
1.83489e-06
8.84659e-06
8.84562e-06
1.83415e-06
5.34446e-07
2.71673e-07
2.52337e-07
1.47209e-06
2.52338e-07
1.47319e-06
5.34251e-07
1.83488e-06
8.84703e-06
8.84603e-06
1.83415e-06
3.32103e-06
3.32002e-06
3.06377e-07
3.32011e-06
3.31918e-06
2.08848e-05
2.08888e-05
2.08902e-05
2.08851e-05
3.06656e-07
3.31999e-06
3.31906e-06
3.32095e-06
3.31994e-06
2.08903e-05
2.08851e-05
5.34259e-07
2.52339e-07
1.47342e-06
2.71655e-07
5.34452e-07
2.52339e-07
1.47236e-06
1.83415e-06
8.84615e-06
1.83483e-06
8.84662e-06
1.83417e-06
8.84677e-06
1.83489e-06
8.84728e-06
5.34452e-07
2.71659e-07
2.52336e-07
1.47206e-06
2.52338e-07
1.47318e-06
5.34256e-07
5.34455e-07
2.71655e-07
2.52337e-07
1.47226e-06
2.52338e-07
1.47337e-06
5.34261e-07
1.83499e-06
8.84705e-06
8.84609e-06
1.83419e-06
1.8351e-06
8.84776e-06
8.84677e-06
1.83431e-06
2.08851e-05
2.08891e-05
2.08856e-05
2.08896e-05
3.06657e-07
3.31911e-06
3.32015e-06
3.31996e-06
3.32098e-06
2.08903e-05
2.08853e-05
2.08908e-05
2.08858e-05
2.08848e-05
2.089e-05
2.08858e-05
2.08913e-05
3.31961e-06
3.32058e-06
3.06376e-07
3.31923e-06
3.3202e-06
2.08895e-05
2.08837e-05
2.08909e-05
2.0885e-05
3.06656e-07
3.31991e-06
3.32092e-06
3.31981e-06
3.3208e-06
1.83418e-06
8.84633e-06
1.83482e-06
8.84774e-06
5.34237e-07
1.473e-06
2.52337e-07
2.71672e-07
5.34436e-07
1.47184e-06
2.52336e-07
5.34242e-07
1.47324e-06
2.52338e-07
2.71678e-07
5.34442e-07
1.47207e-06
2.52337e-07
1.83494e-06
8.84752e-06
8.84554e-06
1.8343e-06
1.83497e-06
8.84848e-06
8.84653e-06
1.83433e-06
5.34444e-07
2.71671e-07
1.47157e-06
2.52332e-07
1.47288e-06
2.52335e-07
5.34221e-07
5.34449e-07
2.71675e-07
1.47177e-06
2.52333e-07
1.47312e-06
2.52336e-07
5.34225e-07
3.32071e-06
3.31969e-06
3.06364e-07
3.32025e-06
3.31897e-06
2.0883e-05
2.08887e-05
2.08901e-05
2.08842e-05
3.06643e-07
3.32083e-06
3.31943e-06
3.32083e-06
3.31957e-06
2.08887e-05
2.08825e-05
5.34267e-07
1.4733e-06
2.52336e-07
2.71655e-07
5.34465e-07
1.47213e-06
2.52336e-07
1.83401e-06
8.84612e-06
1.83465e-06
8.84757e-06
5.34254e-07
2.52342e-07
1.4734e-06
2.71682e-07
5.34454e-07
2.5234e-07
1.47219e-06
1.83474e-06
8.84907e-06
8.84706e-06
1.83421e-06
5.34471e-07
2.71654e-07
1.47188e-06
2.52335e-07
1.47316e-06
2.52335e-07
5.34264e-07
1.83473e-06
8.84846e-06
8.84644e-06
1.8342e-06
5.3446e-07
2.71681e-07
2.52338e-07
1.47194e-06
2.52339e-07
1.47327e-06
5.34251e-07
1.83419e-06
8.84584e-06
1.83483e-06
8.84723e-06
5.34246e-07
2.52337e-07
1.47306e-06
2.71672e-07
5.34443e-07
2.52336e-07
1.47189e-06
1.83419e-06
8.84626e-06
1.83483e-06
8.84772e-06
5.34448e-07