/*--------------------------------*- C++ -*----------------------------------*\
| =========                 |                                                 |
| \\      /  F ield         | OpenFOAM: The Open Source CFD Toolbox           |
|  \\    /   O peration     | Version:  2206                                  |
|   \\  /    A nd           | Website:  www.openfoam.com                      |
|    \\/     M anipulation  |                                                 |
\*---------------------------------------------------------------------------*/
FoamFile
{
    version     2.0;
    format      ascii;
    arch        "LSB;label=32;scalar=64";
    class       volScalarField;
    location    "11.5";
    object      epsilon;
}
// * * * * * * * * * * * * * * * * * * * * * * * * * * * * * * * * * * * * * //

dimensions      [0 2 -3 0 0 0 0];

internalField   nonuniform List<scalar> 
28897
(
4.02338e-07
4.11507e-07
4.11504e-07
4.25724e-07
4.02335e-07
4.11509e-07
4.11502e-07
4.2573e-07
4.02223e-07
4.11447e-07
4.11408e-07
4.2569e-07
4.02103e-07
4.11305e-07
4.11305e-07
4.25574e-07
4.02101e-07
4.11301e-07
4.11304e-07
4.25587e-07
4.02101e-07
4.113e-07
4.11303e-07
4.25584e-07
4.02101e-07
4.113e-07
4.11303e-07
4.25583e-07
4.02101e-07
4.113e-07
4.11303e-07
4.25583e-07
4.02101e-07
4.113e-07
4.11304e-07
4.25583e-07
4.02101e-07
4.113e-07
4.11303e-07
4.25583e-07
4.02101e-07
4.113e-07
4.11304e-07
4.25583e-07
4.02101e-07
4.113e-07
4.11304e-07
4.25583e-07
4.02101e-07
4.113e-07
4.11304e-07
4.25583e-07
4.02101e-07
4.113e-07
4.11304e-07
4.25583e-07
4.02101e-07
4.113e-07
4.11304e-07
4.25583e-07
4.02101e-07
4.113e-07
4.11304e-07
4.25583e-07
4.02101e-07
4.113e-07
4.11304e-07
4.25583e-07
4.02105e-07
4.11303e-07
4.11307e-07
4.25583e-07
4.25595e-07
4.11509e-07
4.1151e-07
4.25598e-07
4.11504e-07
4.11515e-07
4.11507e-07
4.11509e-07
4.256e-07
4.11504e-07
4.11505e-07
4.25597e-07
4.25725e-07
4.25604e-07
4.11514e-07
4.11515e-07
4.11512e-07
4.11514e-07
4.25731e-07
4.2561e-07
4.11508e-07
4.1152e-07
4.11506e-07
4.11517e-07
4.11514e-07
4.1151e-07
4.11512e-07
4.25729e-07
4.25608e-07
4.1151e-07
4.11503e-07
4.11508e-07
4.25605e-07
4.25732e-07
4.25581e-07
4.11511e-07
4.11514e-07
4.11471e-07
4.11478e-07
4.25738e-07
4.25597e-07
4.11505e-07
4.11516e-07
4.11466e-07
4.11477e-07
4.11511e-07
4.11489e-07
4.11474e-07
4.25735e-07
4.25585e-07
4.11507e-07
4.11466e-07
4.11467e-07
4.25584e-07
4.25691e-07
4.25452e-07
4.11414e-07
4.11422e-07
4.11314e-07
4.11317e-07
4.25714e-07
4.25459e-07
4.11409e-07
4.1142e-07
4.11309e-07
4.1132e-07
4.11417e-07
4.11318e-07
4.11315e-07
4.25694e-07
4.25456e-07
4.1141e-07
4.1131e-07
4.1131e-07
4.25453e-07
4.25576e-07
4.25459e-07
4.11311e-07
4.11313e-07
4.11308e-07
4.11309e-07
4.25579e-07
4.25452e-07
4.11306e-07
4.11317e-07
4.11303e-07
4.11314e-07
4.11312e-07
4.11301e-07
4.11309e-07
4.25579e-07
4.25463e-07
4.11307e-07
4.11305e-07
4.11304e-07
4.25462e-07
4.25588e-07
4.25455e-07
4.11311e-07
4.11312e-07
4.11308e-07
4.11309e-07
4.25583e-07
4.2545e-07
4.11306e-07
4.11317e-07
4.11303e-07
4.11314e-07
4.11312e-07
4.113e-07
4.11309e-07
4.25592e-07
4.25459e-07
4.11307e-07
4.11303e-07
4.11304e-07
4.25459e-07
4.25583e-07
4.25456e-07
4.11311e-07
4.11312e-07
4.11308e-07
4.11309e-07
4.25578e-07
4.25452e-07
4.11305e-07
4.11316e-07
4.11303e-07
4.11314e-07
4.11311e-07
4.113e-07
4.11309e-07
4.25587e-07
4.2546e-07
4.11306e-07
4.11304e-07
4.11304e-07
4.25459e-07
4.25583e-07
4.25456e-07
4.11311e-07
4.11312e-07
4.11308e-07
4.11309e-07
4.2558e-07
4.25452e-07
4.11305e-07
4.11316e-07
4.11303e-07
4.11314e-07
4.11311e-07
4.113e-07
4.11309e-07
4.25587e-07
4.25461e-07
4.11306e-07
4.11304e-07
4.11304e-07
4.25458e-07
4.25584e-07
4.25456e-07
4.11311e-07
4.11312e-07
4.11308e-07
4.11309e-07
4.2558e-07
4.25453e-07
4.11305e-07
4.11316e-07
4.11303e-07
4.11314e-07
4.11311e-07
4.113e-07
4.11309e-07
4.25588e-07
4.25461e-07
4.11306e-07
4.11304e-07
4.11304e-07
4.25459e-07
4.25584e-07
4.25456e-07
4.11311e-07
4.11312e-07
4.11308e-07
4.11309e-07
4.2558e-07
4.25453e-07
4.11305e-07
4.11316e-07
4.11303e-07
4.11314e-07
4.11311e-07
4.113e-07
4.11309e-07
4.25588e-07
4.25461e-07
4.11306e-07
4.11304e-07
4.11304e-07
4.25459e-07
4.25584e-07
4.25456e-07
4.11311e-07
4.11312e-07
4.11308e-07
4.11309e-07
4.2558e-07
4.25453e-07
4.11305e-07
4.11316e-07
4.11303e-07
4.11314e-07
4.11311e-07
4.113e-07
4.11309e-07
4.25588e-07
4.25461e-07
4.11306e-07
4.11304e-07
4.11304e-07
4.25459e-07
4.25583e-07
4.25457e-07
4.1131e-07
4.11312e-07
4.11308e-07
4.11309e-07
4.2558e-07
4.25453e-07
4.11305e-07
4.11316e-07
4.11303e-07
4.11314e-07
4.11311e-07
4.113e-07
4.11309e-07
4.25588e-07
4.25461e-07
4.11306e-07
4.11304e-07
4.11304e-07
4.25459e-07
4.25583e-07
4.25456e-07
4.1131e-07
4.11312e-07
4.11308e-07
4.11309e-07
4.25581e-07
4.25453e-07
4.11305e-07
4.11316e-07
4.11303e-07
4.11314e-07
4.11311e-07
4.113e-07
4.11309e-07
4.25588e-07
4.25461e-07
4.11306e-07
4.11304e-07
4.11304e-07
4.25458e-07
4.25583e-07
4.25456e-07
4.1131e-07
4.11312e-07
4.11308e-07
4.11309e-07
4.2558e-07
4.25453e-07
4.11306e-07
4.11316e-07
4.11303e-07
4.11314e-07
4.11311e-07
4.113e-07
4.11309e-07
4.25588e-07
4.25461e-07
4.11306e-07
4.11304e-07
4.11304e-07
4.25459e-07
4.25583e-07
4.25456e-07
4.1131e-07
4.11312e-07
4.11308e-07
4.11309e-07
4.2558e-07
4.25452e-07
4.11306e-07
4.11316e-07
4.11303e-07
4.11314e-07
4.11311e-07
4.113e-07
4.11309e-07
4.25588e-07
4.25461e-07
4.11306e-07
4.11304e-07
4.11304e-07
4.25459e-07
4.25583e-07
4.25456e-07
4.1131e-07
4.11312e-07
4.11308e-07
4.11309e-07
4.2558e-07
4.25452e-07
4.11306e-07
4.11316e-07
4.11303e-07
4.11314e-07
4.11311e-07
4.113e-07
4.11309e-07
4.25588e-07
4.25461e-07
4.11306e-07
4.11304e-07
4.11304e-07
4.25459e-07
4.25583e-07
4.25456e-07
4.1131e-07
4.11312e-07
4.11308e-07
4.11309e-07
4.2558e-07
4.25452e-07
4.11306e-07
4.11316e-07
4.11303e-07
4.11314e-07
4.11311e-07
4.113e-07
4.11309e-07
4.25588e-07
4.25461e-07
4.11306e-07
4.11304e-07
4.11304e-07
4.25459e-07
4.25583e-07
4.25456e-07
4.1131e-07
4.11312e-07
4.11308e-07
4.11309e-07
4.25579e-07
4.25452e-07
4.11306e-07
4.11316e-07
4.11303e-07
4.11314e-07
4.11311e-07
4.11301e-07
4.11309e-07
4.25587e-07
4.25461e-07
4.11306e-07
4.11305e-07
4.11304e-07
4.25459e-07
4.25583e-07
4.11311e-07
4.11312e-07
4.25579e-07
4.11306e-07
4.11317e-07
4.11312e-07
4.25588e-07
4.11307e-07
4.02338e-07
4.0234e-07
4.02341e-07
4.0234e-07
1.41067e-06
7.22639e-06
1.41101e-06
7.22588e-06
2.43849e-05
2.43817e-05
1.41054e-06
7.22766e-06
1.41085e-06
7.22716e-06
4.02346e-07
4.02346e-07
4.02345e-07
4.02336e-07
4.02342e-07
4.02342e-07
4.02342e-07
5.73642e-07
1.16344e-06
4.04565e-07
4.11511e-07
5.73732e-07
1.16287e-06
4.0457e-07
2.43855e-05
2.43825e-05
5.73641e-07
4.04565e-07
1.16328e-06
4.11507e-07
5.73784e-07
4.04568e-07
1.16282e-06
2.35098e-06
2.35169e-06
4.25602e-07
2.35081e-06
2.35143e-06
1.41071e-06
7.22615e-06
1.41098e-06
7.226e-06
2.43799e-05
2.43788e-05
1.41058e-06
7.22741e-06
1.4108e-06
7.22727e-06
4.02341e-07
4.0234e-07
4.0234e-07
4.0229e-07
4.02297e-07
4.02292e-07
4.02292e-07
5.73655e-07
1.16323e-06
4.04565e-07
4.11508e-07
5.73746e-07
1.16282e-06
4.04562e-07
2.4382e-05
2.43821e-05
5.73655e-07
4.04562e-07
1.16318e-06
4.115e-07
5.73741e-07
4.04559e-07
1.16285e-06
2.35121e-06
2.35173e-06
4.25604e-07
2.3509e-06
2.3515e-06
1.41161e-06
7.23155e-06
1.41178e-06
7.23224e-06
2.43902e-05
2.43967e-05
1.41147e-06
7.23279e-06
1.4116e-06
7.23348e-06
4.02234e-07
4.02226e-07
4.02226e-07
4.0211e-07
4.02112e-07
4.0211e-07
4.0211e-07
5.73731e-07
1.16356e-06
4.04465e-07
4.11393e-07
5.7381e-07
1.16338e-06
4.04413e-07
2.43987e-05
2.43992e-05
5.73728e-07
4.04455e-07
1.1637e-06
4.11363e-07
5.73817e-07
4.04405e-07
1.16341e-06
2.35245e-06
2.35304e-06
4.25497e-07
2.35235e-06
2.35279e-06
1.41163e-06
7.23243e-06
1.41195e-06
7.23204e-06
2.43973e-05
2.43967e-05
1.41149e-06
7.23369e-06
1.41178e-06
7.2333e-06
4.02107e-07
4.02107e-07
4.02107e-07
4.02102e-07
4.02103e-07
4.02103e-07
4.02103e-07
5.73736e-07
1.16388e-06
4.04341e-07
4.11304e-07
5.73833e-07
1.16346e-06
4.04342e-07
2.43995e-05
2.43986e-05
5.73728e-07
4.04341e-07
1.16382e-06
4.11306e-07
5.73827e-07
4.04343e-07
1.16343e-06
2.35259e-06
2.35306e-06
4.25452e-07
2.35224e-06
2.35273e-06
1.41163e-06
7.23236e-06
1.41196e-06
7.23201e-06
2.43972e-05
2.43967e-05
1.41149e-06
7.23362e-06
1.41178e-06
7.23327e-06
4.02106e-07
4.02106e-07
4.02106e-07
4.02101e-07
4.02102e-07
4.02103e-07
4.02102e-07
5.73737e-07
1.16388e-06
4.04339e-07
4.11303e-07
5.7383e-07
1.16346e-06
4.04342e-07
2.43994e-05
2.43986e-05
5.7373e-07
4.0434e-07
1.16382e-06
4.11306e-07
5.73824e-07
4.04342e-07
1.16342e-06
2.35257e-06
2.35305e-06
4.25456e-07
2.35223e-06
2.35273e-06
1.41163e-06
7.23236e-06
1.41196e-06
7.23201e-06
2.43972e-05
2.43967e-05
1.41149e-06
7.23361e-06
1.41178e-06
7.23327e-06
4.02105e-07
4.02106e-07
4.02105e-07
4.02101e-07
4.02102e-07
4.02103e-07
4.02103e-07
5.73736e-07
1.16388e-06
4.04338e-07
4.11303e-07
5.73829e-07
1.16346e-06
4.04341e-07
2.43994e-05
2.43986e-05
5.73729e-07
4.04339e-07
1.16382e-06
4.11306e-07
5.73823e-07
4.04342e-07
1.16342e-06
2.35256e-06
2.35305e-06
4.25457e-07
2.35223e-06
2.35272e-06
1.41163e-06
7.23236e-06
1.41196e-06
7.23201e-06
2.43972e-05
2.43967e-05
1.41149e-06
7.23361e-06
1.41178e-06
7.23327e-06
4.02105e-07
4.02106e-07
4.02105e-07
4.02101e-07
4.02102e-07
4.02103e-07
4.02102e-07
5.73736e-07
1.16388e-06
4.04338e-07
4.11303e-07
5.73829e-07
1.16346e-06
4.04342e-07
2.43993e-05
2.43986e-05
5.73729e-07
4.04339e-07
1.16382e-06
4.11306e-07
5.73824e-07
4.04342e-07
1.16342e-06
2.35256e-06
2.35305e-06
4.25457e-07
2.35223e-06
2.35272e-06
1.41163e-06
7.23236e-06
1.41196e-06
7.23201e-06
2.43972e-05
2.43967e-05
1.41149e-06
7.23361e-06
1.41178e-06
7.23327e-06
4.02105e-07
4.02106e-07
4.02105e-07
4.02101e-07
4.02102e-07
4.02103e-07
4.02102e-07
5.73736e-07
1.16388e-06
4.04339e-07
4.11303e-07
5.73829e-07
1.16346e-06
4.04341e-07
2.43993e-05
2.43985e-05
5.73729e-07
4.04339e-07
1.16382e-06
4.11306e-07
5.73824e-07
4.04342e-07
1.16342e-06
2.35256e-06
2.35305e-06
4.25457e-07
2.35223e-06
2.35272e-06
1.41163e-06
7.23236e-06
1.41196e-06
7.23201e-06
2.43972e-05
2.43967e-05
1.41149e-06
7.23361e-06
1.41178e-06
7.23327e-06
4.02105e-07
4.02106e-07
4.02105e-07
4.02101e-07
4.02102e-07
4.02103e-07
4.02103e-07
5.73736e-07
1.16388e-06
4.04338e-07
4.11303e-07
5.73829e-07
1.16346e-06
4.04341e-07
2.43993e-05
2.43986e-05
5.73729e-07
4.04339e-07
1.16382e-06
4.11306e-07
5.73824e-07
4.04342e-07
1.16342e-06
2.35256e-06
2.35305e-06
4.25457e-07
2.35223e-06
2.35273e-06
1.41163e-06
7.23235e-06
1.41196e-06
7.23201e-06
2.43972e-05
2.43967e-05
1.41149e-06
7.23361e-06
1.41178e-06
7.23326e-06
4.02105e-07
4.02106e-07
4.02105e-07
4.02101e-07
4.02102e-07
4.02103e-07
4.02103e-07
5.73736e-07
1.16388e-06
4.04339e-07
4.11303e-07
5.73829e-07
1.16346e-06
4.04341e-07
2.43993e-05
2.43986e-05
5.73729e-07
4.04339e-07
1.16382e-06
4.11306e-07
5.73824e-07
4.04342e-07
1.16342e-06
2.35256e-06
2.35305e-06
4.25457e-07
2.35223e-06
2.35272e-06
1.41163e-06
7.2324e-06
1.41196e-06
7.23205e-06
2.43979e-05
2.43973e-05
1.41149e-06
7.2336e-06
1.41178e-06
7.23318e-06
4.02105e-07
4.02106e-07
4.02105e-07
4.02101e-07
4.02102e-07
4.02103e-07
4.02102e-07
5.73736e-07
1.16388e-06
4.04339e-07
4.11303e-07
5.73829e-07
1.16346e-06
4.04341e-07
2.43993e-05
2.43986e-05
5.73729e-07
4.04339e-07
1.16382e-06
4.11306e-07
5.73824e-07
4.04342e-07
1.16342e-06
2.35256e-06
2.35305e-06
4.25457e-07
2.35223e-06
2.35272e-06
1.41163e-06
7.23236e-06
1.41196e-06
7.23206e-06
2.43979e-05
2.43976e-05
1.41149e-06
7.23351e-06
1.41178e-06
7.23318e-06
4.02105e-07
4.02106e-07
4.02105e-07
4.02101e-07
4.02102e-07
4.02103e-07
4.02102e-07
5.73736e-07
1.16388e-06
4.04338e-07
4.11302e-07
5.7383e-07
1.16346e-06
4.04342e-07
2.43993e-05
2.43986e-05
5.73731e-07
4.04339e-07
1.16382e-06
4.11306e-07
5.73828e-07
4.04342e-07
1.16342e-06
2.35256e-06
2.35305e-06
4.25457e-07
2.35223e-06
2.35273e-06
1.41163e-06
7.23238e-06
1.41196e-06
7.23205e-06
2.43981e-05
2.43975e-05
1.41149e-06
7.23352e-06
1.41178e-06
7.23321e-06
4.02105e-07
4.02106e-07
4.02105e-07
4.02101e-07
4.02102e-07
4.02103e-07
4.02102e-07
5.73736e-07
1.16388e-06
4.04339e-07
4.11302e-07
5.73829e-07
1.16346e-06
4.04342e-07
2.43994e-05
2.43986e-05
5.73735e-07
4.04339e-07
1.16382e-06
4.11306e-07
5.73833e-07
4.04342e-07
1.16342e-06
2.35256e-06
2.35305e-06
4.25457e-07
2.35223e-06
2.35272e-06
1.41163e-06
7.23237e-06
1.41196e-06
7.23205e-06
2.43981e-05
2.43976e-05
1.41149e-06
7.23356e-06
1.41178e-06
7.23323e-06
4.02105e-07
4.02106e-07
4.02105e-07
4.02101e-07
4.02102e-07
4.02103e-07
4.02103e-07
5.73736e-07
1.16388e-06
4.04338e-07
4.11302e-07
5.7383e-07
1.16346e-06
4.04341e-07
2.43994e-05
2.43986e-05
5.73736e-07
4.04339e-07
1.16382e-06
4.11306e-07
5.73835e-07
4.04342e-07
1.16342e-06
2.35256e-06
2.35305e-06
4.25457e-07
2.35223e-06
2.35272e-06
1.41163e-06
7.23238e-06
1.41196e-06
7.23205e-06
2.43981e-05
2.43976e-05
1.41149e-06
7.23356e-06
1.41178e-06
7.23323e-06
4.02105e-07
4.02106e-07
4.02105e-07
4.02101e-07
4.02102e-07
4.02103e-07
4.02103e-07
5.73736e-07
1.16388e-06
4.04339e-07
4.11302e-07
5.7383e-07
1.16346e-06
4.04341e-07
2.43994e-05
2.43986e-05
5.73735e-07
4.04339e-07
1.16382e-06
4.11306e-07
5.73834e-07
4.04342e-07
1.16342e-06
2.35256e-06
2.35305e-06
4.25458e-07
2.35223e-06
2.35272e-06
1.41163e-06
7.23238e-06
1.41196e-06
7.23205e-06
2.43982e-05
2.43976e-05
1.41149e-06
7.23356e-06
1.41178e-06
7.23323e-06
4.02105e-07
4.02106e-07
4.02105e-07
4.02101e-07
4.02102e-07
4.02103e-07
4.02103e-07
5.73736e-07
1.16388e-06
4.04339e-07
4.11302e-07
5.7383e-07
1.16346e-06
4.04341e-07
2.43994e-05
2.43985e-05
5.73736e-07
4.04339e-07
1.16382e-06
4.11306e-07
5.73836e-07
4.04342e-07
1.16342e-06
2.35257e-06
2.35305e-06
4.25457e-07
2.35224e-06
2.35273e-06
1.41163e-06
7.23238e-06
1.41196e-06
7.23205e-06
2.43981e-05
2.43976e-05
1.41149e-06
7.23356e-06
1.41178e-06
7.23323e-06
4.02105e-07
4.02106e-07
4.02105e-07
4.02102e-07
4.02102e-07
4.02103e-07
4.02102e-07
5.73736e-07
1.16388e-06
4.04338e-07
4.11302e-07
5.73829e-07
1.16346e-06
4.04342e-07
2.43993e-05
2.43985e-05
5.73736e-07
4.04339e-07
1.16382e-06
4.11306e-07
5.73835e-07
4.04342e-07
1.16342e-06
2.35257e-06
2.35305e-06
4.25457e-07
2.35224e-06
2.35273e-06
7.23238e-06
1.41196e-06
2.43981e-05
7.23356e-06
1.41178e-06
4.02106e-07
4.02107e-07
4.02106e-07
1.16388e-06
4.04343e-07
5.73829e-07
2.43993e-05
4.04343e-07
1.16382e-06
5.73835e-07
2.35256e-06
2.35304e-06
2.43818e-05
2.43874e-05
2.43857e-05
2.43904e-05
4.25708e-07
2.35094e-06
2.35126e-06
2.35127e-06
2.35147e-06
1.41126e-06
7.22612e-06
7.22656e-06
1.41069e-06
1.41126e-06
7.22666e-06
7.22703e-06
1.41069e-06
5.73812e-07
4.1151e-07
1.16299e-06
4.04566e-07
1.16383e-06
4.04567e-07
5.73712e-07
5.7381e-07
4.11511e-07
1.16299e-06
4.04566e-07
1.16373e-06
4.04566e-07
5.73706e-07
2.43853e-05
2.35096e-06
2.35071e-06
2.43828e-05
1.41109e-06
7.2274e-06
7.22782e-06
1.41058e-06
5.73813e-07
4.11504e-07
1.16303e-06
4.04566e-07
1.16376e-06
4.04566e-07
5.73706e-07
1.4111e-06
7.22764e-06
7.22808e-06
1.41059e-06
5.73817e-07
4.11515e-07
4.04567e-07
1.16319e-06
4.04567e-07
1.16377e-06
5.7371e-07
1.16313e-06
4.04564e-07
4.04565e-07
5.73635e-07
7.22648e-06
1.41058e-06
4.1151e-07
4.04566e-07
1.1627e-06
4.04566e-07
5.73639e-07
7.22695e-06
1.41058e-06
2.43853e-05
2.43909e-05
4.25712e-07
2.35162e-06
2.35084e-06
2.35193e-06
2.35106e-06
2.43846e-05
2.43892e-05
5.73808e-07
4.11505e-07
4.04565e-07
1.16294e-06
4.04566e-07
1.16368e-06
5.73701e-07
5.7382e-07
4.11505e-07
4.04566e-07
1.16305e-06
4.04566e-07
1.16375e-06
5.73708e-07
1.41109e-06
7.22739e-06
7.2278e-06
1.41058e-06
1.41109e-06
7.22762e-06
7.22803e-06
1.41057e-06
4.25709e-07
2.35058e-06
2.35134e-06
2.35155e-06
2.43852e-05
2.43861e-05
2.43908e-05
2.43818e-05
2.43791e-05
2.43855e-05
2.43831e-05
2.35137e-06
2.35152e-06
4.25601e-07
2.35112e-06
2.35135e-06
2.43778e-05
2.43793e-05
2.43819e-05
2.43831e-05
4.25731e-07
2.35119e-06
2.35137e-06
2.35149e-06
2.35158e-06
1.41067e-06
7.22666e-06
1.41096e-06
7.22643e-06
5.73652e-07
1.16333e-06
4.04571e-07
4.11514e-07
5.73791e-07
1.16287e-06
4.04571e-07
5.73648e-07
1.1633e-06
4.04571e-07
4.11515e-07
5.73787e-07
1.16287e-06
4.04571e-07
1.41093e-06
7.22582e-06
7.22595e-06
1.41066e-06
1.41094e-06
7.2263e-06
7.22645e-06
1.41066e-06
5.73741e-07
4.11512e-07
1.16285e-06
4.04568e-07
1.16325e-06
4.04569e-07
5.73655e-07
5.73738e-07
4.11514e-07
1.16285e-06
4.04568e-07
1.16321e-06
4.04569e-07
5.73651e-07
2.3513e-06
2.35116e-06
4.25608e-07
2.35119e-06
2.35099e-06
2.43828e-05
2.43793e-05
2.43797e-05
2.43816e-05
4.25737e-07
2.35123e-06
2.35107e-06
2.35144e-06
2.35136e-06
2.43773e-05
2.43794e-05
5.73648e-07
1.16335e-06
4.04571e-07
4.11508e-07
5.73787e-07
1.16291e-06
4.04571e-07
1.41056e-06
7.22769e-06
1.41082e-06
7.2274e-06
5.73653e-07
4.04572e-07
1.16354e-06
4.1152e-07
5.73791e-07
4.04572e-07
1.16308e-06
1.41076e-06
7.22708e-06
7.22722e-06
1.41053e-06
5.73739e-07
4.11507e-07
1.16289e-06
4.04567e-07
1.16326e-06
4.04568e-07
5.73653e-07
1.41078e-06
7.22732e-06
7.22746e-06
1.41055e-06
5.73742e-07
4.11518e-07
4.04568e-07
1.16306e-06
4.0457e-07
1.16346e-06
5.73656e-07
1.41062e-06
7.22661e-06
1.41087e-06
7.22632e-06
5.73647e-07
4.04571e-07
1.16307e-06
4.11514e-07
5.73731e-07
4.04571e-07
1.16273e-06
1.41062e-06
7.22697e-06
1.41087e-06
7.22679e-06
5.73734e-07
4.1151e-07
1.16282e-06
4.04567e-07
1.16323e-06
4.04569e-07
5.7365e-07
1.4109e-06
7.22613e-06
7.22638e-06
1.41064e-06
5.73739e-07
4.11512e-07
4.04569e-07
1.16275e-06
4.04569e-07
1.16309e-06
5.73654e-07
1.4109e-06
7.22674e-06
7.22682e-06
1.41064e-06
2.352e-06
2.35111e-06
4.25606e-07
2.35176e-06
2.35093e-06
2.43843e-05
2.43819e-05
2.43812e-05
2.43827e-05
4.25734e-07
2.35181e-06
2.35095e-06
2.35209e-06
2.35117e-06
2.43806e-05
2.43819e-05
5.73645e-07
4.04571e-07
1.16336e-06
4.1151e-07
5.73795e-07
4.04571e-07
1.16292e-06
1.41055e-06
7.2274e-06
1.4108e-06
7.22715e-06
1.41054e-06
7.22763e-06
1.4108e-06
7.22739e-06
5.73731e-07
4.11506e-07
4.04564e-07
1.16279e-06
4.04566e-07
1.16316e-06
5.73644e-07
5.73739e-07
4.11508e-07
4.04567e-07
1.1629e-06
4.04569e-07
1.16328e-06
5.73645e-07
1.41077e-06
7.22704e-06
7.22717e-06
1.41053e-06
1.41077e-06
7.22728e-06
7.22741e-06
1.41052e-06
2.4385e-05
2.43823e-05
2.43859e-05
2.43835e-05
4.25731e-07
2.3509e-06
2.35146e-06
2.35107e-06
2.35167e-06
2.43808e-05
2.43823e-05
2.43822e-05
2.43835e-05
2.43781e-05
2.43783e-05
2.43819e-05
2.43821e-05
2.35152e-06
2.35155e-06
4.25603e-07
2.35117e-06
2.35141e-06
2.439e-05
2.438e-05
2.43943e-05
2.43832e-05
4.25731e-07
2.35213e-06
2.35242e-06
2.35175e-06
2.35183e-06
1.41071e-06
7.22634e-06
1.41093e-06
7.22629e-06
5.73664e-07
1.16324e-06
4.04566e-07
4.11507e-07
5.73746e-07
1.16291e-06
4.04562e-07
5.73661e-07
1.1632e-06
4.04566e-07
4.1151e-07
5.73743e-07
1.16287e-06
4.04562e-07
1.41109e-06
7.22925e-06
7.22629e-06
1.41128e-06
1.41109e-06
7.22858e-06
7.22639e-06
1.41127e-06
5.73771e-07
4.11498e-07
1.16327e-06
4.04521e-07
1.16338e-06
4.04551e-07
5.73717e-07
5.73767e-07
4.11502e-07
1.16318e-06
4.04522e-07
1.16328e-06
4.04551e-07
5.73713e-07
2.35147e-06
2.35143e-06
4.25609e-07
2.35121e-06
2.35107e-06
2.43775e-05
2.43766e-05
2.43838e-05
2.43792e-05
4.25737e-07
2.3517e-06
2.35149e-06
2.35147e-06
2.35142e-06
2.4381e-05
2.43773e-05
5.73662e-07
1.16325e-06
4.04566e-07
4.11502e-07
5.73745e-07
1.16295e-06
4.04561e-07
1.4106e-06
7.2274e-06
1.41077e-06
7.22748e-06
5.73665e-07
4.04567e-07
1.16345e-06
4.11512e-07
5.73748e-07
4.04562e-07
1.16313e-06
1.41092e-06
7.2305e-06
7.22753e-06
1.41115e-06
5.73766e-07
4.11493e-07
1.1633e-06
4.04521e-07
1.16338e-06
4.04551e-07
5.73717e-07
1.41093e-06
7.23056e-06
7.2277e-06
1.41116e-06
5.73771e-07
4.11503e-07
4.04522e-07
1.16348e-06
4.04552e-07
1.16359e-06
5.73719e-07
1.41067e-06
7.22621e-06
1.41092e-06
7.22609e-06
5.73659e-07
4.04567e-07
1.16312e-06
4.11508e-07
5.73745e-07
4.04563e-07
1.16279e-06
1.41067e-06
7.22678e-06
1.41092e-06
7.22682e-06
5.73753e-07
4.11502e-07
1.16303e-06
4.04527e-07
1.16323e-06
4.04552e-07
5.73697e-07
1.41099e-06
7.22687e-06
7.22618e-06
1.41109e-06
5.73756e-07
4.11499e-07
4.04524e-07
1.1631e-06
4.04552e-07
1.1632e-06
5.73701e-07
1.41099e-06
7.22854e-06
7.22692e-06
1.41109e-06
2.35211e-06
2.35114e-06
4.25607e-07
2.35183e-06
2.351e-06
2.43807e-05
2.4381e-05
2.4394e-05
2.43839e-05
4.25733e-07
2.35279e-06
2.35199e-06
2.35238e-06
2.35142e-06
2.4393e-05
2.43821e-05
5.73655e-07
4.04566e-07
1.16326e-06
4.11503e-07
5.73747e-07
4.04561e-07
1.16295e-06
1.41058e-06
7.22708e-06
1.41075e-06
7.22717e-06
1.41057e-06
7.22732e-06
1.41075e-06
7.22741e-06
5.73761e-07
4.11491e-07
4.0452e-07
1.16321e-06
4.04549e-07
1.16328e-06
5.73707e-07
5.73767e-07
4.11494e-07
4.04521e-07
1.16331e-06
4.04551e-07
1.16339e-06
5.73709e-07
1.41091e-06
7.2303e-06
7.22733e-06
1.41115e-06
1.41091e-06
7.23044e-06
7.22756e-06
1.41114e-06
2.43808e-05
2.43804e-05
2.43822e-05
2.43825e-05
4.25731e-07
2.35177e-06
2.3525e-06
2.35125e-06
2.35193e-06
2.43886e-05
2.43808e-05
2.43944e-05
2.43836e-05
2.43947e-05
2.43954e-05
2.43982e-05
2.43992e-05
2.35286e-06
2.35287e-06
4.25496e-07
2.35259e-06
2.35271e-06
2.43951e-05
2.43958e-05
2.43989e-05
2.43993e-05
4.25611e-07
2.35246e-06
2.35266e-06
2.35292e-06
2.35292e-06
1.4116e-06
7.23093e-06
1.41172e-06
7.2327e-06
5.73738e-07
1.16376e-06
4.04458e-07
4.11368e-07
5.73821e-07
1.16348e-06
4.04406e-07
5.73735e-07
1.16366e-06
4.04459e-07
4.11374e-07
5.73818e-07
1.16345e-06
4.04407e-07
1.4119e-06
7.23213e-06
7.23232e-06
1.41163e-06
1.4119e-06
7.2326e-06
7.23274e-06
1.41162e-06
5.73831e-07
4.11332e-07
1.16349e-06
4.04347e-07
1.16388e-06
4.04367e-07
5.73743e-07
5.73828e-07
4.11337e-07
1.16348e-06
4.04347e-07
1.16383e-06
4.04367e-07
5.7374e-07
2.3523e-06
2.35227e-06
4.25517e-07
2.35257e-06
2.3525e-06
2.43869e-05
2.43942e-05
2.43967e-05
2.43971e-05
4.25629e-07
2.35255e-06
2.35247e-06
2.35283e-06
2.35291e-06
2.43946e-05
2.43954e-05
5.73739e-07
1.16377e-06
4.04458e-07
4.11362e-07
5.73818e-07
1.1635e-06
4.04406e-07
1.41149e-06
7.23281e-06
1.41157e-06
7.23378e-06
5.7374e-07
4.04459e-07
1.16397e-06
4.11374e-07
5.73823e-07
4.04407e-07
1.16369e-06
1.41172e-06
7.23338e-06
7.23355e-06
1.41149e-06
5.73831e-07
4.11327e-07
1.16351e-06
4.04347e-07
1.16388e-06
4.04366e-07
5.73743e-07
1.41174e-06
7.23362e-06
7.23384e-06
1.41151e-06
5.73833e-07
4.11338e-07
4.04348e-07
1.1637e-06
4.04367e-07
1.16409e-06
5.73745e-07
1.41159e-06
7.22842e-06
1.41158e-06
7.23203e-06
5.73735e-07
4.04462e-07
1.16359e-06
4.1137e-07
5.73809e-07
4.04409e-07
1.16339e-06
1.41159e-06
7.23081e-06
1.41159e-06
7.23322e-06
5.73824e-07
4.11347e-07
1.16345e-06
4.04348e-07
1.16381e-06
4.04371e-07
5.73738e-07
1.4119e-06
7.23257e-06
7.23281e-06
1.41164e-06
5.73827e-07
4.11334e-07
4.04347e-07
1.16343e-06
4.04368e-07
1.16378e-06
5.73743e-07
1.41191e-06
7.23321e-06
7.23331e-06
1.41164e-06
2.35348e-06
2.35245e-06
4.255e-07
2.35321e-06
2.35228e-06
2.4397e-05
2.43979e-05
2.43987e-05
2.43995e-05
4.25614e-07
2.35311e-06
2.35224e-06
2.35351e-06
2.35251e-06
2.43976e-05
2.4398e-05
5.73731e-07
4.04458e-07
1.16377e-06
4.11364e-07
5.73819e-07
4.04406e-07
1.16351e-06
1.41147e-06
7.23252e-06
1.41155e-06
7.23343e-06
1.41146e-06
7.23268e-06
1.41155e-06
7.23368e-06
5.73821e-07
4.11328e-07
4.04347e-07
1.16343e-06
4.04367e-07
1.16378e-06
5.73733e-07
5.73832e-07
4.11328e-07
4.04347e-07
1.16353e-06
4.04366e-07
1.16389e-06
5.73737e-07
1.41173e-06
7.23333e-06
7.23346e-06
1.4115e-06
1.41172e-06
7.23358e-06
7.2337e-06
1.41149e-06
2.43946e-05
2.43982e-05
2.43985e-05
2.43994e-05
4.25611e-07
2.35227e-06
2.35274e-06
2.35258e-06
2.35302e-06
2.43979e-05
2.43984e-05
2.43992e-05
2.43996e-05
2.43954e-05
2.4395e-05
2.4399e-05
2.43988e-05
2.35281e-06
2.35289e-06
4.25449e-07
2.35244e-06
2.35265e-06
2.4395e-05
2.43954e-05
2.43987e-05
2.43989e-05
4.2558e-07
2.35245e-06
2.35264e-06
2.3528e-06
2.35288e-06
1.41162e-06
7.23263e-06
1.4119e-06
7.23254e-06
5.73738e-07
1.16388e-06
4.04344e-07
4.11311e-07
5.73833e-07
1.16348e-06
4.04343e-07
5.73734e-07
1.16384e-06
4.04344e-07
4.11312e-07
5.73831e-07
1.16348e-06
4.04343e-07
1.41191e-06
7.23203e-06
7.23212e-06
1.41163e-06
1.4119e-06
7.23251e-06
7.23257e-06
1.41162e-06
5.73828e-07
4.11308e-07
1.16348e-06
4.0434e-07
1.16387e-06
4.0434e-07
5.73739e-07
5.73824e-07
4.11309e-07
1.16348e-06
4.0434e-07
1.16384e-06
4.0434e-07
5.73734e-07
2.35279e-06
2.3528e-06
4.25441e-07
2.35254e-06
2.3524e-06
2.4395e-05
2.43944e-05
2.43966e-05
2.43969e-05
4.25571e-07
2.35253e-06
2.3524e-06
2.35278e-06
2.35275e-06
2.43944e-05
2.43948e-05
5.73733e-07
1.16388e-06
4.04343e-07
4.11305e-07
5.73832e-07
1.16351e-06
4.04342e-07
1.41151e-06
7.23369e-06
1.41175e-06
7.23355e-06
5.73737e-07
4.04345e-07
1.16409e-06
4.11316e-07
5.73835e-07
4.04343e-07
1.1637e-06
1.41173e-06
7.23329e-06
7.23337e-06
1.41149e-06
5.73824e-07
4.11303e-07
1.16351e-06
4.0434e-07
1.16388e-06
4.0434e-07
5.73737e-07
1.41175e-06
7.23353e-06
7.23363e-06
1.41151e-06
5.73828e-07
4.11314e-07
4.04341e-07
1.1637e-06
4.04341e-07
1.16409e-06
5.73739e-07
1.41164e-06
7.23264e-06
1.41192e-06
7.2325e-06
5.7374e-07
4.04344e-07
1.1638e-06
4.11311e-07
5.73833e-07
4.04342e-07
1.16343e-06
1.41164e-06
7.23325e-06
1.41192e-06
7.23317e-06
5.73826e-07
4.11303e-07
1.16346e-06
4.0434e-07
1.16385e-06
4.04342e-07
5.73734e-07
1.41192e-06
7.23246e-06
7.23257e-06
1.41164e-06
5.73829e-07
4.11309e-07
4.0434e-07
1.16343e-06
4.0434e-07
1.1638e-06
5.73738e-07
1.41192e-06
7.23314e-06
7.2332e-06
1.41164e-06
2.35343e-06
2.35248e-06
4.25453e-07
2.35309e-06
2.35223e-06
2.43978e-05
2.43975e-05
2.43985e-05
2.4399e-05
4.25584e-07
2.35308e-06
2.35222e-06
2.35342e-06
2.35247e-06
2.43975e-05
2.43977e-05
5.73729e-07
4.04344e-07
1.1639e-06
4.11306e-07
5.73836e-07
4.04342e-07
1.16353e-06
1.41149e-06
7.23337e-06
1.41173e-06
7.23328e-06
1.41148e-06
7.23361e-06
1.41173e-06
7.23353e-06
5.73817e-07
4.11306e-07
4.04341e-07
1.16342e-06
4.04342e-07
1.16379e-06
5.73727e-07
5.73824e-07
4.11304e-07
4.0434e-07
1.16353e-06
4.0434e-07
1.1639e-06
5.73728e-07
1.41173e-06
7.23326e-06
7.23332e-06
1.41149e-06
1.41173e-06
7.23351e-06
7.23356e-06
1.41149e-06
2.43981e-05
2.43978e-05
2.43994e-05
2.43991e-05
4.25583e-07
2.35224e-06
2.35273e-06
2.35249e-06
2.35297e-06
2.43977e-05
2.4398e-05
2.4399e-05
2.43993e-05
2.43954e-05
2.4395e-05
2.43989e-05
2.43987e-05
2.35281e-06
2.35287e-06
4.25457e-07
2.35245e-06
2.35264e-06
2.4395e-05
2.43954e-05
2.43987e-05
2.43989e-05
4.25584e-07
2.35245e-06
2.35264e-06
2.3528e-06
2.35287e-06
1.41162e-06
7.23256e-06
1.4119e-06
7.23251e-06
5.73741e-07
1.16388e-06
4.04343e-07
4.11311e-07
5.73831e-07
1.16348e-06
4.04343e-07
5.73738e-07
1.16384e-06
4.04343e-07
4.11312e-07
5.73827e-07
1.16348e-06
4.04343e-07
1.41191e-06
7.23203e-06
7.23209e-06
1.41163e-06
1.41191e-06
7.23251e-06
7.23256e-06
1.41162e-06
5.7383e-07
4.11308e-07
1.16348e-06
4.0434e-07
1.16387e-06
4.0434e-07
5.73739e-07
5.73828e-07
4.11309e-07
1.16348e-06
4.0434e-07
1.16384e-06
4.0434e-07
5.73734e-07
2.35278e-06
2.35275e-06
4.25455e-07
2.35254e-06
2.3524e-06
2.43948e-05
2.43944e-05
2.43966e-05
2.43968e-05
4.25582e-07
2.35253e-06
2.3524e-06
2.35278e-06
2.35275e-06
2.43944e-05
2.43948e-05
5.73738e-07
1.16388e-06
4.04343e-07
4.11305e-07
5.7383e-07
1.16351e-06
4.04343e-07
1.41151e-06
7.23362e-06
1.41175e-06
7.23353e-06
5.73742e-07
4.04344e-07
1.16409e-06
4.11317e-07
5.73832e-07
4.04344e-07
1.1637e-06
1.41173e-06
7.23328e-06
7.23334e-06
1.41149e-06
5.73828e-07
4.11303e-07
1.16351e-06
4.04339e-07
1.16388e-06
4.04339e-07
5.73736e-07
1.41175e-06
7.23353e-06
7.23362e-06
1.41151e-06
5.73831e-07
4.11314e-07
4.04341e-07
1.1637e-06
4.04341e-07
1.16409e-06
5.73738e-07
1.41164e-06
7.23255e-06
1.41192e-06
7.23246e-06
5.73742e-07
4.04343e-07
1.16379e-06
4.11312e-07
5.73829e-07
4.04343e-07
1.16343e-06
1.41164e-06
7.23318e-06
1.41192e-06
7.23314e-06
5.73827e-07
4.11303e-07
1.16346e-06
4.04338e-07
1.16385e-06
4.04341e-07
5.73735e-07
1.41192e-06
7.23246e-06
7.23254e-06
1.41164e-06
5.73831e-07
4.11309e-07
4.04339e-07
1.16343e-06
4.0434e-07
1.16379e-06
5.73738e-07
1.41192e-06
7.23314e-06
7.23318e-06
1.41164e-06
2.35341e-06
2.35246e-06
4.25461e-07
2.35309e-06
2.35222e-06
2.43976e-05
2.43974e-05
2.43985e-05
2.4399e-05
4.25588e-07
2.35308e-06
2.35222e-06
2.35342e-06
2.35246e-06
2.43974e-05
2.43976e-05
5.73736e-07
4.04343e-07
1.1639e-06
4.11307e-07
5.73828e-07
4.04343e-07
1.16353e-06
1.41149e-06
7.2333e-06
1.41173e-06
7.23326e-06
1.41148e-06
7.23355e-06
1.41173e-06
7.2335e-06
5.7382e-07
4.11306e-07
4.04339e-07
1.16343e-06
4.04341e-07
1.16378e-06
5.73728e-07
5.73832e-07
4.11304e-07
4.0434e-07
1.16353e-06
4.0434e-07
1.1639e-06
5.73729e-07
1.41173e-06
7.23326e-06
7.23331e-06
1.41149e-06
1.41173e-06
7.2335e-06
7.23354e-06
1.41148e-06
2.43979e-05
2.43977e-05
2.43992e-05
2.4399e-05
4.25584e-07
2.35224e-06
2.35273e-06
2.35248e-06
2.35297e-06
2.43977e-05
2.43979e-05
2.4399e-05
2.43992e-05
2.43954e-05
2.4395e-05
2.43989e-05
2.43987e-05
2.3528e-06
2.35287e-06
4.25457e-07
2.35245e-06
2.35264e-06
2.4395e-05
2.43954e-05
2.43987e-05
2.43989e-05
4.25586e-07
2.35245e-06
2.35264e-06
2.3528e-06
2.35287e-06
1.41162e-06
7.23255e-06
1.4119e-06
7.23251e-06
5.73739e-07
1.16387e-06
4.04343e-07
4.11311e-07
5.73831e-07
1.16348e-06
4.04343e-07
5.73737e-07
1.16384e-06
4.04342e-07
4.11312e-07
5.73826e-07
1.16348e-06
4.04342e-07
1.41191e-06
7.23203e-06
7.23209e-06
1.41163e-06
1.4119e-06
7.2325e-06
7.23255e-06
1.41162e-06
5.73829e-07
4.11309e-07
1.16348e-06
4.0434e-07
1.16387e-06
4.04341e-07
5.73741e-07
5.73827e-07
4.1131e-07
1.16348e-06
4.0434e-07
1.16384e-06
4.0434e-07
5.73735e-07
2.35278e-06
2.35275e-06
4.25453e-07
2.35254e-06
2.3524e-06
2.43948e-05
2.43944e-05
2.43966e-05
2.43968e-05
4.25582e-07
2.35253e-06
2.3524e-06
2.35278e-06
2.35275e-06
2.43944e-05
2.43948e-05
5.73738e-07
1.16388e-06
4.04342e-07
4.11305e-07
5.73828e-07
1.16351e-06
4.04342e-07
1.41151e-06
7.23362e-06
1.41174e-06
7.23353e-06
5.73741e-07
4.04343e-07
1.16409e-06
4.11316e-07
5.73831e-07
4.04343e-07
1.1637e-06
1.41173e-06
7.23328e-06
7.23334e-06
1.41149e-06
5.73828e-07
4.11303e-07
1.16351e-06
4.04339e-07
1.16388e-06
4.04339e-07
5.73737e-07
1.41175e-06
7.23353e-06
7.23362e-06
1.41151e-06
5.73831e-07
4.11314e-07
4.04341e-07
1.1637e-06
4.04341e-07
1.16409e-06
5.73739e-07
1.41164e-06
7.23254e-06
1.41192e-06
7.23246e-06
5.73741e-07
4.04342e-07
1.16379e-06
4.11311e-07
5.73829e-07
4.04342e-07
1.16343e-06
1.41164e-06
7.23318e-06
1.41192e-06
7.23314e-06
5.73827e-07
4.11302e-07
1.16346e-06
4.04338e-07
1.16385e-06
4.04341e-07