/*--------------------------------*- C++ -*----------------------------------*\
| =========                 |                                                 |
| \\      /  F ield         | OpenFOAM: The Open Source CFD Toolbox           |
|  \\    /   O peration     | Version:  2206                                  |
|   \\  /    A nd           | Website:  www.openfoam.com                      |
|    \\/     M anipulation  |                                                 |
\*---------------------------------------------------------------------------*/
FoamFile
{
    version     2.0;
    format      ascii;
    arch        "LSB;label=32;scalar=64";
    class       volScalarField;
    location    "11.5";
    object      nut;
}
// * * * * * * * * * * * * * * * * * * * * * * * * * * * * * * * * * * * * * //

dimensions      [0 2 -1 0 0 0 0];

internalField   nonuniform List<scalar> 
28897
(
0.000231291
0.000225171
0.000225167
0.000216176
0.00023129
0.000225169
0.000225165
0.000216172
0.000231265
0.000225133
0.000225122
0.000216095
0.000231279
0.000225127
0.000225126
0.0002161
0.00023128
0.000225129
0.000225127
0.000216093
0.00023128
0.000225129
0.000225127
0.000216095
0.00023128
0.000225129
0.000225127
0.000216095
0.00023128
0.000225129
0.000225127
0.000216095
0.00023128
0.000225129
0.000225127
0.000216095
0.00023128
0.000225129
0.000225127
0.000216095
0.00023128
0.000225129
0.000225127
0.000216095
0.00023128
0.000225129
0.000225127
0.000216095
0.00023128
0.000225129
0.000225127
0.000216095
0.00023128
0.00022513
0.000225127
0.000216095
0.00023128
0.00022513
0.000225127
0.000216095
0.00023128
0.00022513
0.000225127
0.000216095
0.00023128
0.00022513
0.000225127
0.000216095
0.000231281
0.00022513
0.000225128
0.000216095
0.000216255
0.000225164
0.000225164
0.000216262
0.000225168
0.000225161
0.000225172
0.000225165
0.000216252
0.000225168
0.000225167
0.000216254
0.000216181
0.00021625
0.000225165
0.000225165
0.000225164
0.000225164
0.000216186
0.000216252
0.000225169
0.000225161
0.000225168
0.00022516
0.000225166
0.00022517
0.000225165
0.000216178
0.000216244
0.000225168
0.000225165
0.000225167
0.000216249
0.000216176
0.0002162
0.000225163
0.000225163
0.000225134
0.000225141
0.000216177
0.000216225
0.000225167
0.000225159
0.000225138
0.00022513
0.000225164
0.000225154
0.000225138
0.00021617
0.000216198
0.000225166
0.000225137
0.000225138
0.000216202
0.000216095
0.000216176
0.00022512
0.000225126
0.000225122
0.000225121
0.00021613
0.000216171
0.000225123
0.000225116
0.000225125
0.000225118
0.000225123
0.000225124
0.000225121
0.000216092
0.000216172
0.000225123
0.000225124
0.000225125
0.000216174
0.000216104
0.000216172
0.000225124
0.000225123
0.000225124
0.000225124
0.000216101
0.000216176
0.000225128
0.00022512
0.000225128
0.00022512
0.000225124
0.000225129
0.000225124
0.000216101
0.000216169
0.000225127
0.000225127
0.000225127
0.000216169
0.000216098
0.000216175
0.000225124
0.000225124
0.000225124
0.000225124
0.000216101
0.000216177
0.000225128
0.00022512
0.000225128
0.00022512
0.000225124
0.00022513
0.000225124
0.000216096
0.000216171
0.000225127
0.000225128
0.000225127
0.000216171
0.000216101
0.000216174
0.000225125
0.000225124
0.000225124
0.000225124
0.000216103
0.000216176
0.000225128
0.000225121
0.000225128
0.00022512
0.000225124
0.00022513
0.000225124
0.000216098
0.000216171
0.000225128
0.000225128
0.000225127
0.000216171
0.000216101
0.000216174
0.000225125
0.000225124
0.000225124
0.000225124
0.000216102
0.000216176
0.000225128
0.000225121
0.000225128
0.00022512
0.000225124
0.00022513
0.000225124
0.000216098
0.000216171
0.000225128
0.000225128
0.000225127
0.000216171
0.000216101
0.000216174
0.000225125
0.000225124
0.000225124
0.000225124
0.000216102
0.000216176
0.000225128
0.000225121
0.000225128
0.00022512
0.000225124
0.00022513
0.000225124
0.000216098
0.000216171
0.000225128
0.000225128
0.000225127
0.000216171
0.000216101
0.000216174
0.000225125
0.000225124
0.000225124
0.000225124
0.000216102
0.000216176
0.000225128
0.000225121
0.000225128
0.00022512
0.000225124
0.00022513
0.000225124
0.000216098
0.00021617
0.000225128
0.000225128
0.000225127
0.000216171
0.000216101
0.000216174
0.000225125
0.000225124
0.000225124
0.000225124
0.000216102
0.000216176
0.000225128
0.000225121
0.000225128
0.00022512
0.000225124
0.00022513
0.000225124
0.000216098
0.000216171
0.000225128
0.000225128
0.000225127
0.000216171
0.000216101
0.000216174
0.000225125
0.000225124
0.000225124
0.000225124
0.000216102
0.000216175
0.000225128
0.000225121
0.000225128
0.00022512
0.000225124
0.00022513
0.000225124
0.000216098
0.000216171
0.000225128
0.000225128
0.000225127
0.000216171
0.000216101
0.000216174
0.000225125
0.000225124
0.000225125
0.000225124
0.000216102
0.000216175
0.000225128
0.000225121
0.000225128
0.00022512
0.000225124
0.00022513
0.000225124
0.000216098
0.00021617
0.000225128
0.000225128
0.000225127
0.000216171
0.000216101
0.000216174
0.000225125
0.000225124
0.000225125
0.000225124
0.000216102
0.000216176
0.000225128
0.000225121
0.000225128
0.00022512
0.000225124
0.00022513
0.000225124
0.000216098
0.00021617
0.000225128
0.000225128
0.000225127
0.000216171
0.000216101
0.000216174
0.000225125
0.000225124
0.000225125
0.000225124
0.000216102
0.000216176
0.000225128
0.000225121
0.000225128
0.00022512
0.000225124
0.00022513
0.000225124
0.000216097
0.000216171
0.000225128
0.000225128
0.000225127
0.000216171
0.000216101
0.000216174
0.000225125
0.000225124
0.000225125
0.000225124
0.000216102
0.000216176
0.000225128
0.000225121
0.000225128
0.00022512
0.000225124
0.00022513
0.000225124
0.000216098
0.00021617
0.000225128
0.000225128
0.000225127
0.000216171
0.000216101
0.000216174
0.000225125
0.000225124
0.000225125
0.000225124
0.000216103
0.000216176
0.000225128
0.000225121
0.000225128
0.00022512
0.000225124
0.00022513
0.000225124
0.000216097
0.000216171
0.000225128
0.000225128
0.000225127
0.000216171
0.000216101
0.000216174
0.000225125
0.000225124
0.000225125
0.000225124
0.000216103
0.000216176
0.000225128
0.000225121
0.000225128
0.00022512
0.000225124
0.000225129
0.000225124
0.000216098
0.00021617
0.000225128
0.000225127
0.000225127
0.000216171
0.000216101
0.000225126
0.000225125
0.000216103
0.000225129
0.000225121
0.000225125
0.000216097
0.000225128
0.000231291
0.000231292
0.000231291
0.000231291
6.85317e-05
4.62646e-05
6.85153e-05
4.62635e-05
2.59356e-05
2.59344e-05
6.85401e-05
4.62625e-05
6.85246e-05
4.62614e-05
0.000231292
0.000231291
0.000231291
0.000231291
0.000231291
0.00023129
0.000231291
0.000156945
8.18729e-05
0.000229734
0.000225172
0.000156916
8.19101e-05
0.000229734
2.59324e-05
2.59314e-05
0.000156943
0.000229733
8.18822e-05
0.000225165
0.000156899
0.000229731
8.19128e-05
4.39762e-05
4.39653e-05
0.000216252
4.39848e-05
4.39747e-05
6.85308e-05
4.6264e-05
6.85232e-05
4.62637e-05
2.59338e-05
2.59334e-05
6.85394e-05
4.6262e-05
6.85333e-05
4.62616e-05
0.000231291
0.00023129
0.00023129
0.000231268
0.000231272
0.000231268
0.000231268
0.000156938
8.18965e-05
0.000229731
0.000225167
0.000156918
8.19193e-05
0.00022973
2.59312e-05
2.59312e-05
0.000156938
0.000229731
8.18981e-05
0.000225163
0.000156918
0.000229729
8.19139e-05
4.39872e-05
4.3978e-05
0.000216246
4.39923e-05
4.39803e-05
6.84445e-05
4.6275e-05
6.84679e-05
4.62769e-05
2.59371e-05
2.59396e-05
6.84524e-05
4.62729e-05
6.84764e-05
4.62748e-05
0.000231267
0.000231265
0.000231265
0.000231277
0.000231277
0.000231277
0.000231277
0.000156801
8.18613e-05
0.000229704
0.000225123
0.000156848
8.18405e-05
0.000229702
2.59369e-05
2.59371e-05
0.000156796
0.000229699
8.18384e-05
0.000225119
0.000156819
0.000229701
8.18248e-05
4.39588e-05
4.39417e-05
0.000216164
4.39344e-05
4.39202e-05
6.84386e-05
4.62773e-05
6.84262e-05
4.62765e-05
2.59398e-05
2.59396e-05
6.84477e-05
4.62752e-05
6.84367e-05
4.62744e-05
0.00023128
0.000231279
0.000231279
0.00023128
0.00023128
0.00023128
0.00023128
0.00015679
8.17919e-05
0.000229712
0.000225129
0.000156761
8.18128e-05
0.000229713
2.59373e-05
2.59369e-05
0.000156793
0.000229712
8.17949e-05
0.000225127
0.000156764
0.000229713
8.18159e-05
4.39221e-05
4.39134e-05
0.000216177
4.39268e-05
4.3918e-05
6.84386e-05
4.62772e-05
6.84263e-05
4.62764e-05
2.59398e-05
2.59396e-05
6.84478e-05
4.62751e-05
6.84369e-05
4.62743e-05
0.00023128
0.00023128
0.00023128
0.00023128
0.00023128
0.00023128
0.00023128
0.00015679
8.17899e-05
0.000229712
0.000225129
0.000156762
8.18126e-05
0.000229713
2.59372e-05
2.59369e-05
0.000156792
0.000229712
8.17945e-05
0.000225127
0.000156764
0.000229713
8.18158e-05
4.39224e-05
4.39136e-05
0.000216175
4.3927e-05
4.39181e-05
6.84387e-05
4.62771e-05
6.84263e-05
4.62764e-05
2.59398e-05
2.59396e-05
6.84479e-05
4.62751e-05
6.84369e-05
4.62743e-05
0.00023128
0.00023128
0.00023128
0.00023128
0.00023128
0.00023128
0.00023128
0.00015679
8.17899e-05
0.000229713
0.00022513
0.000156762
8.18125e-05
0.000229713
2.59372e-05
2.59369e-05
0.000156792
0.000229712
8.17945e-05
0.000225128
0.000156765
0.000229713
8.18159e-05
4.39224e-05
4.39136e-05
0.000216174
4.3927e-05
4.39181e-05
6.84387e-05
4.62771e-05
6.84263e-05
4.62764e-05
2.59398e-05
2.59396e-05
6.84479e-05
4.62751e-05
6.84369e-05
4.62743e-05
0.00023128
0.00023128
0.00023128
0.00023128
0.00023128
0.00023128
0.00023128
0.00015679
8.17899e-05
0.000229713
0.00022513
0.000156762
8.18126e-05
0.000229713
2.59372e-05
2.59369e-05
0.000156792
0.000229712
8.17945e-05
0.000225128
0.000156765
0.000229713
8.18158e-05
4.39224e-05
4.39136e-05
0.000216174
4.3927e-05
4.39181e-05
6.84387e-05
4.62771e-05
6.84263e-05
4.62764e-05
2.59398e-05
2.59396e-05
6.84479e-05
4.62751e-05
6.84369e-05
4.62743e-05
0.00023128
0.00023128
0.00023128
0.00023128
0.00023128
0.00023128
0.00023128
0.00015679
8.17899e-05
0.000229713
0.00022513
0.000156762
8.18126e-05
0.000229713
2.59372e-05
2.59369e-05
0.000156792
0.000229712
8.17945e-05
0.000225128
0.000156765
0.000229713
8.18158e-05
4.39224e-05
4.39136e-05
0.000216174
4.3927e-05
4.39181e-05
6.84387e-05
4.62771e-05
6.84263e-05
4.62764e-05
2.59398e-05
2.59396e-05
6.84479e-05
4.62751e-05
6.84369e-05
4.62743e-05
0.00023128
0.00023128
0.00023128
0.00023128
0.00023128
0.00023128
0.00023128
0.00015679
8.17899e-05
0.000229713
0.00022513
0.000156762
8.18126e-05
0.000229713
2.59372e-05
2.59369e-05
0.000156792
0.000229712
8.17945e-05
0.000225128
0.000156764
0.000229713
8.18158e-05
4.39225e-05
4.39137e-05
0.000216174
4.3927e-05
4.39182e-05
6.84387e-05
4.62771e-05
6.84263e-05
4.62764e-05
2.59398e-05
2.59396e-05
6.84479e-05
4.62751e-05
6.84369e-05
4.62743e-05
0.00023128
0.00023128
0.00023128
0.00023128
0.00023128
0.00023128
0.00023128
0.00015679
8.17899e-05
0.000229713
0.00022513
0.000156762
8.18126e-05
0.000229713
2.59372e-05
2.59369e-05
0.000156792
0.000229712
8.17944e-05
0.000225128
0.000156765
0.000229713
8.1816e-05
4.39225e-05
4.39137e-05
0.000216174
4.3927e-05
4.39181e-05
6.84387e-05
4.62776e-05
6.84264e-05
4.62772e-05
2.59395e-05
2.59393e-05
6.84479e-05
4.62747e-05
6.84369e-05
4.62738e-05
0.00023128
0.00023128
0.00023128
0.00023128
0.00023128
0.00023128
0.00023128
0.00015679
8.17899e-05
0.000229713
0.00022513
0.000156762
8.18126e-05
0.000229713
2.59372e-05
2.59369e-05
0.000156792
0.000229712
8.17945e-05
0.000225128
0.000156765
0.000229713
8.18161e-05
4.39225e-05
4.39137e-05
0.000216174
4.3927e-05
4.39181e-05
6.84387e-05
4.62781e-05
6.84263e-05
4.62775e-05
2.59394e-05
2.59391e-05
6.84479e-05
4.62742e-05
6.84369e-05
4.62735e-05
0.00023128
0.00023128
0.00023128
0.00023128
0.00023128
0.00023128
0.00023128
0.00015679
8.17899e-05
0.000229713
0.00022513
0.000156762
8.18125e-05
0.000229713
2.59372e-05
2.59369e-05
0.000156792
0.000229712
8.17945e-05
0.000225128
0.000156764
0.000229713
8.18161e-05
4.39224e-05
4.39137e-05
0.000216174
4.3927e-05
4.39182e-05
6.84387e-05
4.62782e-05
6.84263e-05
4.62775e-05
2.59393e-05
2.59391e-05
6.84479e-05
4.62742e-05
6.84369e-05
4.62736e-05
0.00023128
0.00023128
0.00023128
0.00023128
0.00023128
0.00023128
0.00023128
0.00015679
8.17899e-05
0.000229713
0.00022513
0.000156762
8.18126e-05
0.000229713
2.59372e-05
2.59369e-05
0.000156791
0.000229712
8.17946e-05
0.000225128
0.000156762
0.000229713
8.18162e-05
4.39224e-05
4.39137e-05
0.000216174
4.3927e-05
4.39181e-05
6.84387e-05
4.62782e-05
6.84263e-05
4.62775e-05
2.59393e-05
2.59391e-05
6.84479e-05
4.62743e-05
6.8437e-05
4.62736e-05
0.00023128
0.00023128
0.00023128
0.00023128
0.00023128
0.00023128
0.00023128
0.00015679
8.17899e-05
0.000229713
0.00022513
0.000156762
8.18126e-05
0.000229713
2.59372e-05
2.59369e-05
0.000156791
0.000229712
8.17946e-05
0.000225128
0.000156762
0.000229713
8.18162e-05
4.39224e-05
4.39137e-05
0.000216174
4.3927e-05
4.39181e-05
6.84387e-05
4.62782e-05
6.84263e-05
4.62775e-05
2.59393e-05
2.59391e-05
6.8448e-05
4.62743e-05
6.8437e-05
4.62736e-05
0.00023128
0.00023128
0.00023128
0.00023128
0.00023128
0.00023128
0.00023128
0.00015679
8.17899e-05
0.000229713
0.00022513
0.000156762
8.18126e-05
0.000229713
2.59372e-05
2.59369e-05
0.000156791
0.000229712
8.17947e-05
0.000225128
0.000156762
0.000229713
8.18162e-05
4.39224e-05
4.39137e-05
0.000216174
4.3927e-05
4.39181e-05
6.84387e-05
4.62782e-05
6.84263e-05
4.62775e-05
2.59393e-05
2.59391e-05
6.84479e-05
4.62743e-05
6.8437e-05
4.62736e-05
0.00023128
0.00023128
0.00023128
0.00023128
0.00023128
0.00023128
0.00023128
0.00015679
8.17899e-05
0.000229713
0.00022513
0.000156762
8.18125e-05
0.000229713
2.59372e-05
2.59369e-05
0.00015679
0.000229712
8.17946e-05
0.000225128
0.000156761
0.000229713
8.18162e-05
4.39224e-05
4.39136e-05
0.000216174
4.3927e-05
4.39181e-05
6.84387e-05
4.62782e-05
6.84263e-05
4.62775e-05
2.59393e-05
2.59391e-05
6.8448e-05
4.62743e-05
6.8437e-05
4.62736e-05
0.00023128
0.00023128
0.00023128
0.00023128
0.00023128
0.00023128
0.00023128
0.00015679
8.17899e-05
0.000229713
0.00022513
0.000156762
8.18125e-05
0.000229713
2.59372e-05
2.59369e-05
0.00015679
0.000229713
8.17946e-05
0.000225128
0.000156761
0.000229713
8.18162e-05
4.39224e-05
4.39136e-05
0.000216174
4.3927e-05
4.39181e-05
4.62782e-05
6.84263e-05
2.59393e-05
4.62743e-05
6.8437e-05
0.000231281
0.00023128
0.000231281
8.17898e-05
0.000229713
0.000156762
2.59372e-05
0.000229713
8.17946e-05
0.000156761
4.39224e-05
4.39136e-05
2.59349e-05
2.59369e-05
2.5934e-05
2.59357e-05
0.000216185
4.39682e-05
4.39688e-05
4.39567e-05
4.39587e-05
6.8499e-05
4.6264e-05
4.62649e-05
6.85258e-05
6.84996e-05
4.62653e-05
4.6266e-05
6.85263e-05
0.000156897
0.000225165
8.18938e-05
0.000229733
8.18409e-05
0.000229733
0.000156922
0.000156897
0.000225164
8.18977e-05
0.000229733
8.18516e-05
0.000229733
0.000156924
2.59357e-05
4.397e-05
4.39657e-05
2.59359e-05
6.85089e-05
4.6262e-05
4.62629e-05
6.85336e-05
0.000156898
0.000225168
8.18938e-05
0.000229733
8.18481e-05
0.000229733
0.000156926
6.85066e-05
4.62594e-05
4.62604e-05
6.85309e-05
0.000156896
0.000225161
0.000229732
8.18805e-05
0.000229732
8.18466e-05
0.000156923
8.1887e-05
0.000229734
0.000229734
0.000156943
4.62635e-05
6.85308e-05
0.000225165
0.000229734
8.19156e-05
0.000229734
0.000156944
4.62615e-05
6.85304e-05
2.59324e-05
2.59344e-05
0.000216182
4.39568e-05
4.39762e-05
4.39454e-05
4.39659e-05
2.59348e-05
2.59365e-05
0.000156897
0.000225168
0.000229733
8.18986e-05
0.000229733
8.18525e-05
0.000156922
0.000156896
0.000225168
0.000229733
8.18928e-05
0.000229733
8.18489e-05
0.000156924
6.85076e-05
4.62619e-05
4.62628e-05
6.85318e-05
6.8508e-05
4.62615e-05
4.62624e-05
6.85327e-05
0.000216186
4.39787e-05
4.39674e-05
4.39574e-05
2.59348e-05
2.59338e-05
2.59355e-05
2.59349e-05
2.5934e-05
2.59339e-05
2.59331e-05
4.39669e-05
4.39686e-05
0.000216251
4.39746e-05
4.39761e-05
2.59335e-05
2.59341e-05
2.59326e-05
2.59331e-05
0.000216176
4.398e-05
4.39821e-05
4.39734e-05
4.39757e-05
6.85321e-05
4.62653e-05
6.85197e-05
4.62648e-05
0.000156943
8.18806e-05
0.000229733
0.000225165
0.000156906
8.19079e-05
0.000229733
0.000156945
8.18859e-05
0.000229733
0.000225165
0.000156907
8.19116e-05
0.000229733
6.85248e-05
4.62633e-05
4.62636e-05
6.85348e-05
6.85252e-05
4.62645e-05
4.62648e-05
6.85352e-05
0.00015692
0.000225164
8.19133e-05
0.000229732
8.18919e-05
0.000229733
0.00015694
0.000156925
0.000225165
8.19174e-05
0.000229732
8.18971e-05
0.000229733
0.000156943
4.39693e-05
4.39648e-05
0.000216258
4.3977e-05
4.39723e-05
2.59359e-05
2.59347e-05
2.59337e-05
2.59344e-05
0.000216182
4.39839e-05
4.39789e-05
4.39769e-05
4.39717e-05
2.59339e-05
2.59347e-05
0.000156946
8.18816e-05
0.000229734
0.000225169
0.000156909
8.19079e-05
0.000229733
6.85374e-05
4.62595e-05
6.8526e-05
4.62589e-05
0.000156944
0.000229733
8.1867e-05
0.000225161
0.000156907
0.000229732
8.18943e-05
6.85346e-05
4.62613e-05
4.62616e-05
6.85434e-05
0.000156922
0.000225168
8.19136e-05
0.000229733
8.1893e-05
0.000229733
0.000156943
6.8532e-05
4.62587e-05
4.62591e-05
6.8541e-05
0.000156924
0.000225161
0.000229732
8.18996e-05
0.000229732
8.18782e-05
0.000156942
6.85347e-05
4.62638e-05
6.85238e-05
4.62632e-05
0.000156945
0.000229734
8.18998e-05
0.000225166
0.000156924
0.000229734
8.19198e-05
6.85344e-05
4.62615e-05
6.85234e-05
4.62611e-05
0.000156926
0.000225172
8.19181e-05
0.000229732
8.18952e-05
0.000229733
0.000156946
6.85275e-05
4.62627e-05
4.62633e-05
6.85372e-05
0.000156925
0.000225166
0.000229732
8.19223e-05
0.000229733
8.19038e-05
0.000156945
6.85271e-05
4.6261e-05
4.62612e-05
6.85367e-05
4.39559e-05
4.39759e-05
0.000216248
4.39636e-05
4.39835e-05
2.59347e-05
2.59339e-05
2.59309e-05
2.59314e-05
0.000216172
4.39692e-05
4.39896e-05
4.39625e-05
4.39829e-05
2.59334e-05
2.59339e-05
0.000156946
0.000229733
8.18805e-05
0.000225168
0.000156906
0.000229733
8.19071e-05
6.85382e-05
4.62619e-05
6.85268e-05
4.62614e-05
6.85392e-05
4.62615e-05
6.85275e-05
4.6261e-05
0.000156924
0.000225165
0.000229731
8.19185e-05
0.000229731
8.18982e-05
0.000156946
0.000156925
0.000225168
0.000229732
8.19126e-05
0.000229733
8.18918e-05
0.000156949
6.85328e-05
4.62611e-05
4.62614e-05
6.85421e-05
6.85336e-05
4.62608e-05
4.6261e-05
6.85429e-05
2.59347e-05
2.59338e-05
2.59337e-05
2.59329e-05
0.000216178
4.39903e-05
4.39808e-05
4.39844e-05
4.39742e-05
2.59332e-05
2.59337e-05
2.59324e-05
2.59329e-05
2.59337e-05
2.59337e-05
2.59327e-05
2.59327e-05
4.39778e-05
4.39817e-05
0.000216243
4.39815e-05
4.39817e-05
2.59375e-05
2.59342e-05
2.59367e-05
2.5933e-05
0.000216162
4.39566e-05
4.39562e-05
4.3973e-05
4.39757e-05
6.85314e-05
4.62646e-05
6.85277e-05
4.62644e-05
0.000156934
8.18959e-05
0.000229731
0.000225161
0.000156919
8.19085e-05
0.000229729
0.000156934
8.19017e-05
0.000229731
0.000225161
0.000156917
8.19158e-05
0.000229729
6.85165e-05
4.627e-05
4.62642e-05
6.84928e-05
6.85171e-05
4.62687e-05
4.62646e-05
6.84934e-05
0.000156902
0.000225154
8.18683e-05
0.000229707
8.1884e-05
0.000229724
0.000156874
0.000156903
0.000225156
8.1882e-05
0.000229708
8.18947e-05
0.000229724
0.000156876
4.39831e-05
4.39773e-05
0.000216248
4.39876e-05
4.39837e-05
2.5934e-05
2.59337e-05
2.5935e-05
2.59335e-05
0.00021617
4.39743e-05
4.3973e-05
4.39844e-05
4.39801e-05
2.5935e-05
2.59339e-05
0.000156936
8.18973e-05
0.000229732
0.000225164
0.000156921
8.19087e-05
0.00022973
6.85371e-05
4.62589e-05
6.85349e-05
4.62591e-05
0.000156933
0.000229731
8.18822e-05
0.000225157
0.000156915
0.000229729
8.18946e-05
6.85262e-05
4.62679e-05
4.62621e-05
6.85007e-05
0.000156905
0.000225158
8.1868e-05
0.000229707
8.18852e-05
0.000229724
0.000156875
6.85241e-05
4.6265e-05
4.62595e-05
6.84988e-05
0.000156902
0.00022515
0.000229706
8.18544e-05
0.000229723
8.187e-05
0.000156873
6.85357e-05
4.62629e-05
6.85293e-05
4.62626e-05
0.000156936
0.000229731
8.19057e-05
0.000225162
0.000156919
0.00022973
8.19196e-05
6.85352e-05
4.62611e-05
6.85287e-05
4.62612e-05
0.000156909
0.000225164
8.18961e-05
0.000229714
8.18992e-05
0.000229726
0.000156903
6.8524e-05
4.62641e-05
4.62628e-05
6.8507e-05
0.000156908
0.000225156
0.000229711
8.18871e-05
0.000229725
8.18982e-05
0.000156901
6.85235e-05
4.62644e-05
4.62614e-05
6.85064e-05
4.39671e-05
4.39889e-05
0.000216239
4.39691e-05
4.39891e-05
2.59334e-05
2.59335e-05
2.59351e-05
2.59317e-05
0.000216159
4.3945e-05
4.39637e-05
4.39609e-05
4.39827e-05
2.59375e-05
2.59338e-05
0.000156938
0.000229731
8.18962e-05
0.000225164
0.00015692
0.000229729
8.19081e-05
6.85384e-05
4.62612e-05
6.85361e-05
4.62614e-05
6.85391e-05
4.62608e-05
6.85366e-05
4.6261e-05
0.000156907
0.000225157
0.000229707
8.18728e-05
0.000229724
8.18907e-05
0.000156879
0.000156905
0.000225157
0.000229707
8.18673e-05
0.000229724
8.18843e-05
0.000156877
6.85253e-05
4.62674e-05
4.62617e-05
6.85e-05
6.85257e-05
4.62668e-05
4.62613e-05
6.85006e-05
2.59332e-05
2.59331e-05
2.59324e-05
2.59325e-05
0.000216165
4.39726e-05
4.39549e-05
4.39875e-05
4.39738e-05
2.59356e-05
2.59332e-05
2.59364e-05
2.59328e-05
2.59393e-05
2.59397e-05
2.59382e-05
2.59386e-05
4.39432e-05
4.39447e-05
0.000216161
4.39201e-05
4.39214e-05
2.59395e-05
2.59398e-05
2.59385e-05
2.59387e-05
0.000216088
4.3915e-05
4.39194e-05
4.39144e-05
4.39179e-05
6.84449e-05
4.62737e-05
6.8471e-05
4.6278e-05
0.000156792
8.18364e-05
0.0002297
0.000225117
0.00015682
8.18204e-05
0.000229701
0.000156794
8.18509e-05
0.0002297
0.000225119
0.000156821
8.18296e-05
0.000229701
6.84327e-05
4.62767e-05
4.62771e-05
6.84387e-05
6.84332e-05
4.62778e-05
4.62781e-05
6.84393e-05
0.000156768
0.000225118
8.18106e-05
0.00022971
8.17975e-05
0.000229705
0.000156789
0.00015677
0.000225118
8.18162e-05
0.00022971
8.1807e-05
0.000229705
0.00015679
4.39632e-05
4.39602e-05
0.000216171
4.39358e-05
4.39363e-05
2.5937e-05
2.59397e-05
2.59396e-05
2.59398e-05
0.000216085
4.39207e-05
4.39159e-05
4.39271e-05
4.39264e-05
2.59399e-05
2.59402e-05
0.000156794
8.18362e-05
0.0002297
0.000225121
0.000156821
8.18206e-05
0.000229701
6.845e-05
4.62699e-05
6.84769e-05
4.62724e-05
0.000156792
0.000229698
8.18223e-05
0.000225113
0.000156818
0.0002297
8.18064e-05
6.84427e-05
4.62746e-05
4.62749e-05
6.84478e-05
0.00015677
0.000225122
8.1812e-05
0.00022971
8.17996e-05
0.000229705
0.000156791
6.84402e-05
4.62721e-05
4.62725e-05
6.84452e-05
0.000156768
0.000225114
0.000229709
8.17968e-05
0.000229704
8.17835e-05
0.000156789
6.8451e-05
4.6267e-05
6.84847e-05
4.62749e-05
0.000156799
0.000229702
8.18556e-05
0.000225118
0.00015685
0.000229702
8.18315e-05
6.84505e-05
4.6269e-05
6.8484e-05
4.62746e-05
0.000156772
0.000225121
8.18161e-05
0.000229709
8.18124e-05
0.000229705
0.000156788
6.84364e-05
4.62763e-05
4.62768e-05
6.84386e-05
0.000156771
0.000225118
0.00022971
8.1817e-05
0.000229705
8.18077e-05
0.000156788
6.84359e-05
4.62747e-05
4.62749e-05
6.84382e-05
4.39312e-05
4.3952e-05
0.000216158
4.39081e-05
4.39286e-05
2.5939e-05
2.59394e-05
2.5937e-05
2.59373e-05
0.000216085
4.39046e-05
4.39265e-05
4.39026e-05
4.39247e-05
2.59393e-05
2.59394e-05
0.000156795
0.000229699
8.18354e-05
0.00022512
0.000156821
0.000229701
8.18199e-05
6.84509e-05
4.62723e-05
6.84781e-05
4.62746e-05
6.84517e-05
4.62717e-05
6.84785e-05
4.62743e-05
0.000156772
0.000225121
0.000229709
8.18166e-05
0.000229705
8.18042e-05
0.00015679
0.000156769
0.000225121
0.00022971
8.18109e-05
0.000229705
8.17984e-05
0.000156791
6.84411e-05
4.62744e-05
4.62747e-05
6.84461e-05
6.84416e-05
4.62741e-05
4.62743e-05
6.84469e-05
2.59378e-05
2.59392e-05
2.5938e-05
2.59384e-05
0.000216089
4.39266e-05
4.39179e-05
4.39277e-05
4.39162e-05
2.59392e-05
2.59393e-05
2.59383e-05
2.59384e-05
2.59397e-05
2.59395e-05
2.59386e-05
2.59385e-05
4.39113e-05
4.39174e-05
0.000216178
4.39158e-05
4.39195e-05
2.59395e-05
2.59396e-05
2.59385e-05
2.59385e-05
0.000216102
4.39159e-05
4.39196e-05
4.39123e-05
4.39176e-05
6.84393e-05
4.62778e-05
6.84309e-05
4.62776e-05
0.00015679
8.17918e-05
0.000229712
0.000225124
0.000156767
8.18096e-05
0.000229712
0.000156792
8.17987e-05
0.000229712
0.000225124
0.000156769
8.18144e-05
0.000229712
6.84303e-05
4.62765e-05
4.62766e-05
6.84387e-05
6.84309e-05
4.62776e-05
4.62777e-05
6.84393e-05
0.000156769
0.000225125
8.18097e-05
0.000229712
8.17916e-05
0.000229713
0.00015679
0.000156771
0.000225124
8.18143e-05
0.000229712
8.17978e-05
0.000229713
0.000156792
4.39181e-05
4.39118e-05
0.000216182
4.39205e-05
4.39157e-05
2.59401e-05
2.59399e-05
2.59396e-05
2.59397e-05
0.000216107
4.39209e-05
4.39157e-05
4.39184e-05
4.39121e-05
2.59399e-05
2.594e-05
0.000156794
8.17944e-05
0.000229713
0.000225128
0.00015677
8.1811e-05
0.000229713
6.84451e-05
4.62722e-05
6.84382e-05
4.62719e-05
0.000156791
0.000229711
8.17782e-05
0.00022512
0.000156768
0.000229712
8.1796e-05
6.84409e-05
4.62744e-05
4.62745e-05
6.84479e-05
0.000156772
0.000225128
8.18111e-05
0.000229713
8.17941e-05
0.000229713
0.000156793
6.84382e-05
4.62719e-05
4.62721e-05
6.84451e-05
0.00015677
0.000225121
0.000229712
8.17959e-05
0.000229712
8.17778e-05
0.000156791
6.84381e-05
4.62765e-05
6.843e-05
4.62762e-05
0.00015679
0.000229712
8.17991e-05
0.000225124
0.000156767
0.000229713
8.18153e-05
6.84378e-05
4.62748e-05
6.84295e-05
4.62746e-05
0.000156769
0.000225129
8.18125e-05
0.000229713
8.17947e-05
0.000229713
0.000156789
6.84298e-05
4.62761e-05
4.62763e-05
6.84382e-05
0.000156768
0.000225124
0.000229713
8.18151e-05
0.000229713
8.17982e-05
0.00015679
6.84294e-05
4.62745e-05
4.62747e-05
6.84378e-05
4.39014e-05
4.39243e-05
0.000216175
4.39052e-05
4.39267e-05
2.59394e-05
2.59393e-05
2.59369e-05
2.59371e-05
0.000216099
4.39052e-05
4.39269e-05
4.39019e-05
4.39245e-05
2.59392e-05
2.59393e-05
0.000156794
0.000229712
8.17932e-05
0.000225127
0.000156768
0.000229713
8.18101e-05
6.8446e-05
4.62745e-05
6.84391e-05
4.62743e-05
6.84469e-05
4.62741e-05
6.84397e-05
4.62739e-05
0.000156772
0.000225127
0.000229712
8.18158e-05
0.000229713
8.17992e-05
0.000156791
0.000156772
0.000225128
0.000229713
8.18099e-05
0.000229713
8.17928e-05
0.000156794
6.84391e-05
4.62743e-05
4.62744e-05
6.84461e-05
6.84398e-05
4.62739e-05
4.6274e-05
6.8447e-05
2.59392e-05
2.59391e-05
2.59384e-05
2.59383e-05
0.000216101
4.39269e-05
4.39181e-05
4.39245e-05
4.39158e-05
2.59391e-05
2.59392e-05
2.59382e-05
2.59383e-05
2.59396e-05
2.59395e-05
2.59385e-05
2.59385e-05
4.39121e-05
4.39176e-05
0.000216173
4.39159e-05
4.39196e-05
2.59395e-05
2.59396e-05
2.59385e-05
2.59385e-05
0.000216099
4.39159e-05
4.39196e-05
4.39123e-05
4.39176e-05
6.84392e-05
4.62777e-05
6.8431e-05
4.62776e-05
0.000156789
8.17914e-05
0.000229712
0.000225124
0.000156768
8.18096e-05
0.000229712
0.000156791
8.17977e-05
0.000229712
0.000225124
0.00015677
8.18143e-05
0.000229712
6.84303e-05
4.62764e-05
4.62766e-05
6.84387e-05
6.84309e-05
4.62776e-05
4.62777e-05
6.84392e-05
0.000156768
0.000225125
8.18097e-05
0.000229712
8.17916e-05
0.000229713
0.00015679
0.000156769
0.000225124
8.18143e-05
0.000229712
8.17977e-05
0.000229713
0.000156792
4.39185e-05
4.3912e-05
0.000216174
4.39208e-05
4.39158e-05
2.594e-05
2.59399e-05
2.59396e-05
2.59397e-05
0.0002161
4.39209e-05
4.39158e-05
4.39186e-05
4.39123e-05
2.59399e-05
2.594e-05
0.000156793
8.17939e-05
0.000229713
0.000225128
0.00015677
8.1811e-05
0.000229713
6.84452e-05
4.6272e-05
6.84382e-05
4.62719e-05
0.00015679
0.000229712
8.17777e-05
0.000225121
0.000156768
0.000229712
8.17959e-05
6.8441e-05
4.62744e-05
4.62745e-05
6.84479e-05
0.000156771
0.000225128
8.18111e-05
0.000229713
8.17941e-05
0.000229714
0.000156793
6.84382e-05
4.62719e-05
4.6272e-05
6.84452e-05
0.000156768
0.000225121
0.000229712
8.17959e-05
0.000229712
8.17778e-05
0.000156791
6.84382e-05
4.62763e-05
6.843e-05
4.62761e-05
0.000156789
0.000229712
8.17981e-05
0.000225124
0.000156768
0.000229713
8.18152e-05
6.84378e-05
4.62746e-05
6.84295e-05
4.62745e-05
0.000156768
0.00022513
8.18125e-05
0.000229713
8.17946e-05
0.000229713
0.000156789
6.84299e-05
4.62761e-05
4.62763e-05
6.84382e-05
0.000156768
0.000225125
0.000229713
8.18151e-05
0.000229713
8.17981e-05
0.00015679
6.84294e-05
4.62745e-05
4.62746e-05
6.84378e-05
4.39018e-05
4.39246e-05
0.00021617
4.39052e-05
4.39269e-05
2.59393e-05
2.59392e-05
2.59369e-05
2.59371e-05
0.000216096
4.39052e-05
4.39269e-05
4.39019e-05
4.39246e-05
2.59392e-05
2.59393e-05
0.000156792
0.000229712
8.17927e-05
0.000225128
0.00015677
0.000229713
8.181e-05
6.84461e-05
4.62744e-05
6.84392e-05
4.62743e-05
6.8447e-05
4.6274e-05
6.84398e-05
4.62739e-05
0.000156772
0.000225128
0.000229713
8.18158e-05
0.000229713
8.17992e-05
0.000156791
0.000156769
0.000225128
0.000229713
8.18099e-05
0.000229713
8.17927e-05
0.000156794
6.84392e-05
4.62743e-05
4.62744e-05
6.84462e-05
6.84398e-05
4.62739e-05
4.6274e-05
6.8447e-05
2.59392e-05
2.59391e-05
2.59383e-05
2.59382e-05
0.000216101
4.3927e-05
4.39181e-05
4.39247e-05
4.39159e-05
2.59391e-05
2.59391e-05
2.59382e-05
2.59383e-05
2.59396e-05
2.59395e-05
2.59385e-05
2.59385e-05
4.3912e-05
4.39176e-05
0.000216173
4.39159e-05
4.39196e-05
2.59395e-05
2.59396e-05
2.59385e-05
2.59385e-05
0.000216098
4.39158e-05
4.39196e-05
4.39123e-05
4.39176e-05
6.84392e-05
4.62777e-05
6.84309e-05
4.62776e-05
0.00015679
8.17914e-05
0.000229713
0.000225125
0.000156768
8.18096e-05
0.000229713
0.000156791
8.17977e-05
0.000229713
0.000225124
0.00015677
8.18143e-05
0.000229713
6.84303e-05
4.62764e-05
4.62766e-05
6.84386e-05
6.84308e-05
4.62776e-05
4.62777e-05
6.84392e-05
0.000156769
0.000225125
8.18097e-05
0.000229712
8.17916e-05
0.000229713
0.000156789
0.000156769
0.000225124
8.18143e-05
0.000229712
8.17977e-05
0.000229713
0.000156792
4.39185e-05
4.3912e-05
0.000216175
4.39208e-05
4.39157e-05
2.594e-05
2.59399e-05
2.59396e-05
2.59397e-05
0.0002161
4.39209e-05
4.39158e-05
4.39186e-05
4.39123e-05
2.59399e-05
2.594e-05
0.000156793
8.1794e-05
0.000229713
0.000225128
0.000156771
8.1811e-05
0.000229713
6.84452e-05
4.6272e-05
6.84383e-05
4.62719e-05
0.00015679
0.000229712
8.17777e-05
0.000225121
0.000156769
0.000229712
8.17959e-05
6.8441e-05
4.62744e-05
4.62745e-05
6.84479e-05
0.000156771
0.000225128
8.18111e-05
0.000229713
8.17941e-05
0.000229714
0.000156793
6.84383e-05
4.62719e-05
4.6272e-05
6.84452e-05
0.000156768
0.000225121
0.000229712
8.17959e-05
0.000229712
8.17778e-05
0.000156791
6.84382e-05
4.62763e-05
6.84299e-05
4.62761e-05
0.000156789
0.000229713
8.17981e-05
0.000225124
0.000156768
0.000229713
8.18152e-05
6.84378e-05
4.62746e-05
6.84295e-05
4.62745e-05
0.000156768
0.00022513
8.18125e-05
0.000229713
8.17946e-05
0.000229713
0.000156788
6.84298e-05
4.62761e-05
4.62763e-05
6.84382e-05
0.000156768
0.000225125
0.000229713
8.18151e-05
0.000229713