/*--------------------------------*- C++ -*----------------------------------*\
| =========                 |                                                 |
| \\      /  F ield         | OpenFOAM: The Open Source CFD Toolbox           |
|  \\    /   O peration     | Version:  2206                                  |
|   \\  /    A nd           | Website:  www.openfoam.com                      |
|    \\/     M anipulation  |                                                 |
\*---------------------------------------------------------------------------*/
FoamFile
{
    version     2.0;
    format      ascii;
    arch        "LSB;label=32;scalar=64";
    class       volScalarField;
    location    "30.5";
    object      p;
}
// * * * * * * * * * * * * * * * * * * * * * * * * * * * * * * * * * * * * * //

dimensions      [0 2 -2 0 0 0 0];

internalField   nonuniform List<scalar> 
28688
(
0.00396026
0.00396059
0.00396059
0.00396364
0.00390489
0.00390531
0.00390531
0.00390831
0.00385413
0.00385411
0.00385411
0.00385686
0.00380172
0.00380175
0.00380175
0.00380454
0.00375041
0.00375043
0.00375043
0.00375318
0.0037008
0.00370064
0.00370064
0.00370324
0.00365499
0.00365483
0.00365483
0.00365726
0.00361272
0.00361266
0.00361266
0.00361515
0.00357106
0.00357101
0.00357101
0.00357348
0.00352951
0.00352947
0.00352947
0.00353192
0.00348797
0.00348794
0.00348794
0.00349039
0.00344645
0.00344641
0.00344641
0.00344886
0.00397367
0.00397389
0.00397389
0.00397367
0.00397389
0.0039739
0.00397466
0.00397466
0.00397466
0.00397466
0.00397389
0.0039739
0.00397367
0.0039739
0.0039739
0.00397367
0.00396364
0.00391488
0.00396058
0.00396059
0.00391716
0.00391716
0.00396364
0.00391488
0.00396059
0.00396059
0.00391716
0.00391716
0.00396059
0.00391716
0.00391716
0.00396364
0.00391488
0.00396059
0.00391716
0.00391716
0.00391488
0.00390831
0.0038638
0.00390531
0.00390532
0.00386724
0.00386724
0.00390831
0.0038638
0.00390531
0.00390531
0.00386724
0.00386724
0.00390531
0.00386724
0.00386724
0.00390831
0.00386379
0.00390531
0.00386724
0.00386724
0.0038638
0.00385686
0.00381142
0.00385411
0.00385411
0.00381477
0.00381477
0.00385686
0.00381142
0.00385411
0.00385411
0.00381477
0.00381477
0.00385411
0.00381477
0.00381477
0.00385686
0.00381142
0.00385411
0.00381477
0.00381477
0.00381142
0.00380454
0.00375991
0.00380175
0.00380175
0.00376314
0.00376314
0.00380454
0.00375991
0.00380175
0.00380175
0.00376314
0.00376314
0.00380175
0.00376314
0.00376314
0.00380454
0.00375991
0.00380175
0.00376314
0.00376314
0.00375991
0.00375318
0.00370969
0.00375043
0.00375043
0.00371281
0.00371281
0.00375318
0.00370969
0.00375043
0.00375043
0.00371281
0.00371281
0.00375043
0.00371281
0.00371281
0.00375318
0.00370969
0.00375043
0.00371281
0.00371281
0.00370969
0.00370324
0.00366297
0.00370064
0.00370064
0.00366582
0.00366581
0.00370324
0.00366297
0.00370064
0.00370064
0.00366581
0.00366581
0.00370064
0.00366582
0.00366582
0.00370324
0.00366297
0.00370064
0.00366581
0.00366582
0.00366297
0.00365726
0.00362065
0.00365483
0.00365483
0.0036231
0.0036231
0.00365726
0.00362065
0.00365483
0.00365483
0.0036231
0.0036231
0.00365483
0.0036231
0.0036231
0.00365726
0.00362065
0.00365483
0.0036231
0.0036231
0.00362065
0.00361515
0.00357896
0.00361266
0.00361266
0.00358141
0.00358141
0.00361515
0.00357896
0.00361266
0.00361266
0.00358141
0.00358141
0.00361266
0.00358141
0.00358141
0.00361515
0.00357896
0.00361266
0.00358141
0.00358141
0.00357896
0.00357348
0.0035374
0.00357101
0.00357101
0.00353985
0.00353985
0.00357348
0.0035374
0.00357101
0.00357101
0.00353985
0.00353985
0.00357101
0.00353985
0.00353985
0.00357348
0.0035374
0.00357101
0.00353985
0.00353985
0.0035374
0.00353192
0.00349587
0.00352947
0.00352947
0.00349832
0.00349832
0.00353192
0.00349587
0.00352947
0.00352947
0.00349832
0.00349832
0.00352947
0.00349832
0.00349832
0.00353192
0.00349587
0.00352947
0.00349832
0.00349832
0.00349587
0.00349039
0.00345434
0.00348794
0.00348794
0.00345679
0.00345679
0.00349039
0.00345434
0.00348794
0.00348794
0.00345679
0.00345679
0.00348794
0.00345679
0.00345679
0.00349039
0.00345434
0.00348794
0.00345679
0.00345679
0.00345434
0.00344886
0.00341282
0.00344641
0.00344641
0.00341526
0.00344886
0.00344641
0.00344641
0.00341526
0.00341526
0.00344641
0.00341527
0.00344886
0.00341282
0.00344641
0.00341526
0.00341527
0.00341282
0.00398204
0.0039918
0.0039866
0.00398661
0.00400898
0.00399577
0.00402437
0.00398981
0.00400898
0.00399577
0.00398982
0.00402437
0.00400034
0.0040281
0.00402811
0.0039374
0.00395655
0.00396574
0.00392947
0.00393024
0.00393298
0.00393738
0.00395652
0.00396573
0.00392945
0.00396026
0.00396026
0.00396026
0.00391685
0.00391685
0.00391685
0.00391685
0.0039349
0.00396073
0.00396066
0.00394372
0.00396375
0.0039338
0.0039446
0.00393035
0.00393298
0.00393491
0.00396066
0.00396074
0.00394373
0.00396375
0.0039446
0.0039338
0.0039666
0.00396659
0.00393813
0.00393344
0.00393343
0.00389074
0.00391005
0.00391141
0.00388924
0.00390896
0.00388882
0.00389073
0.00391005
0.0039114
0.00388923
0.00390489
0.00390489
0.00390489
0.00386731
0.00386731
0.00386731
0.00386731
0.00388933
0.00391012
0.00390489
0.00389302
0.00390891
0.00388986
0.00389275
0.00390895
0.00388881
0.00388933
0.00390489
0.00391012
0.00389302
0.00390891
0.00389275
0.00388986
0.00391115
0.00391115
0.00388957
0.00389017
0.00389018
0.00383851
0.00385737
0.00385842
0.00383745
0.00385703
0.00383716
0.00383851
0.00385737
0.00385842
0.00383745
0.00385413
0.00385413
0.00385413
0.00381475
0.00381475
0.00381475
0.00381475
0.00383761
0.00385774
0.00385401
0.00384096
0.00385716
0.00383796
0.00384087
0.00385703
0.00383716
0.00383761
0.00385401
0.00385774
0.00384096
0.00385716
0.00384087
0.00383796
0.003858
0.003858
0.00383759
0.00383802
0.00383802
0.00378594
0.00380469
0.00380552
0.00378514
0.00380449
0.00378495
0.00378594
0.00380469
0.00380552
0.00378514
0.00380172
0.00380172
0.00380172
0.00376315
0.00376315
0.00376315
0.00376315
0.00378544
0.00380506
0.00380169
0.00378882
0.00380476
0.00378561
0.00378878
0.00380449
0.00378495
0.00378544
0.00380169
0.00380506
0.00378881
0.00380476
0.00378878
0.00378561
0.00380513
0.00380513
0.00378549
0.00378552
0.00378552
0.00373472
0.00375308
0.00375379
0.00373424
0.00375293
0.00373409
0.00373472
0.00375308
0.00375379
0.00373424
0.00375041
0.00375041
0.00375041
0.00371296
0.00371296
0.00371296
0.00371296
0.00373448
0.00375346
0.00375039
0.0037378
0.00375332
0.00373461
0.00373777
0.00375293
0.00373409
0.00373448
0.00375039
0.00375346
0.0037378
0.00375332
0.00373777
0.00373461
0.00375341
0.00375341
0.00373457
0.00373453
0.00373453
0.00368533
0.00370285
0.00370357
0.00368482
0.00370274
0.00368455
0.00368533
0.00370285
0.00370357
0.00368482
0.0037008
0.00370081
0.00370081
0.00366598
0.00366598
0.00366598
0.00366598
0.00368536
0.00370325
0.00370069
0.00368876
0.0037033
0.00368525
0.00368879
0.00370273
0.00368456
0.00368536
0.00370069
0.00370325
0.00368876
0.0037033
0.0036888
0.00368525
0.00370311
0.00370311
0.00368566
0.00368493
0.00368493
0.00364093
0.00365677
0.00365664
0.00364102
0.00365664
0.003641
0.00364093
0.00365677
0.00365664
0.00364101
0.00365499
0.00365499
0.00365499
0.00362317
0.00362317
0.00362317
0.00362317
0.00364129
0.00365701
0.0036549
0.00364412
0.00365704
0.00364123
0.00364417
0.00365664
0.003641
0.00364129
0.0036549
0.00365701
0.00364412
0.00365704
0.00364417
0.00364123
0.00365686
0.00365686
0.00364158
0.00364116
0.00364116
0.00359961
0.00361507
0.00361514
0.00359956
0.0036151
0.00359958
0.00359961
0.00361506
0.00361514
0.00359956
0.00361272
0.00361272
0.00361272
0.00358146
0.00358146
0.00358146
0.00358146
0.00359968
0.00361511
0.00361267
0.00360223
0.00361515
0.00359962
0.00360225
0.0036151
0.00359958
0.00359968
0.00361267
0.00361511
0.00360223
0.00361515
0.00360225
0.00359962
0.00361516
0.00361516
0.00359978
0.00359959
0.00359959
0.00355805
0.00357359
0.00357361
0.00355805
0.00357359
0.00355805
0.00355805
0.00357359
0.00357361
0.00355805
0.00357106
0.00357106
0.00357106
0.00353989
0.00353989
0.00353989
0.00353989
0.0035581
0.00357356
0.00357103
0.00356062
0.00357357
0.00355808
0.00356064
0.0035736
0.00355805
0.0035581
0.00357103
0.00357356
0.00356062
0.00357357
0.00356064
0.00355808
0.0035736
0.0035736
0.00355817
0.00355805
0.00355805
0.00351652
0.00353206
0.00353207
0.00351652
0.00353207
0.00351652
0.00351652
0.00353206
0.00353207
0.00351652
0.00352951
0.00352951
0.00352951
0.00349836
0.00349836
0.00349836
0.00349836
0.00351657
0.00353203
0.00352948
0.00351909
0.00353202
0.00351655
0.0035191
0.00353207
0.00351652
0.00351657
0.00352948
0.00353203
0.00351909
0.00353202
0.0035191
0.00351655
0.00353207
0.00353207
0.00351664
0.00351652
0.00351652
0.00347499
0.00349053
0.00349054
0.00347499
0.00349054
0.00347499
0.00347499
0.00349053
0.00349054
0.00347499
0.00348797
0.00348797
0.00348797
0.00345683
0.00345683
0.00345683
0.00345683
0.00347504
0.0034905
0.00348795
0.00347755
0.00349049
0.00347502
0.00347756
0.00349054
0.00347499
0.00347504
0.00348795
0.0034905
0.00347756
0.00349049
0.00347756
0.00347502
0.00349054
0.00349054
0.00347511
0.00347499
0.00347499
0.00343346
0.003449
0.00344901
0.00343346
0.00344901
0.00343346
0.00343346
0.003449
0.00344901
0.00343346
0.00344645
0.00344645
0.00344645
0.0034153
0.0034153
0.0034153
0.0034153
0.00343351
0.00344897
0.00344642
0.00343603
0.00344896
0.00343349
0.00343604
0.00344901
0.00343346
0.00343351
0.00344642
0.00344897
0.00343603
0.00344896
0.00343604
0.00343349
0.00344901
0.00344901
0.00343358
0.00343346
0.00343346
0.00400033
0.00402809
0.00402811
0.00399247
0.00402763
0.00399244
0.00402765
0.00399719
0.00398426
0.00398426
0.00402292
0.00402293
0.00400896
0.00399577
0.00402435
0.00398981
0.00400897
0.00399576
0.00402436
0.00398981
0.00401349
0.00398454
0.00402477
0.00397935
0.00401349
0.00398452
0.00402477
0.00397936
0.00400457
0.00399329
0.00397572
0.00397612
0.00401964
0.00398825
0.00397634
0.00400457
0.00399329
0.00397572
0.00397612
0.00401964
0.00398825
0.00397634
0.00400033
0.00402809
0.0040281
0.00399243
0.00402764
0.00399719
0.00398424
0.00398427
0.00402292
0.00402292
0.00399246
0.00402764
0.00400898
0.00399577
0.00402437
0.00398981
0.00400898
0.00399577
0.00398981
0.00402437
0.00401351
0.00398453
0.00402479
0.00397936
0.00400459
0.00399329
0.00397572
0.00397612
0.00401965
0.00398825
0.00397635
0.00401351
0.00398454
0.00402478
0.00397935
0.00400459
0.0039933
0.00397612
0.00397573
0.00398825
0.00401965
0.00397635
0.00398204
0.0039918
0.0039866
0.00398661
0.00398204
0.00399181
0.00398661
0.00398661
0.00398204
0.00399181
0.00398661
0.00398661
0.00398081
0.00398989
0.00397277
0.00397278
0.00398517
0.00398517
0.00397095
0.00398081
0.00398989
0.00397277
0.00397277
0.00398517
0.00398517
0.00397095
0.00398081
0.00398989
0.00397278
0.00397278
0.00398517
0.00398517
0.00397095
0.00398081
0.00398989
0.00397278
0.00397278
0.00398517
0.00398517
0.00397095
0.00400898
0.00399577
0.00398981
0.00402436
0.00400459
0.00399329
0.00397572
0.00397612
0.00401965
0.00398825
0.00397635
0.00401351
0.00398454
0.00402478
0.00397936
0.00400459
0.0039933
0.00397612
0.00397573
0.00398825
0.00401965
0.00397635
0.00401351
0.00398453
0.00402478
0.00397935
0.00400034
0.00402811
0.00402811
0.00399241
0.00402764
0.00399719
0.00398426
0.00398426
0.00402293
0.00402293
0.00399241
0.00402765
0.00400898
0.00399577
0.00398982
0.00402437
0.00400459
0.0039933
0.00397612
0.00397573
0.00398826
0.00401965
0.00397635
0.00400459
0.0039933
0.00397612
0.00397573
0.00398826
0.00401965
0.00397635
0.00401351
0.00398454
0.00402478
0.00397935
0.00401351
0.00398455
0.00402479
0.00397936
0.00399719
0.00398426
0.00398426
0.00402293
0.00402293
0.00399242
0.00402764
0.00399244
0.00402765
0.00393024
0.00393298
0.00393034
0.00393296
0.00396656
0.0039666
0.00393814
0.00393343
0.00393343
0.00391572
0.00393263
0.00391572
0.00393264
0.00393147
0.00391834
0.00391835
0.00393159
0.00393159
0.0039374
0.00395653
0.00396574
0.00392947
0.00393492
0.00396073
0.00396066
0.00394372
0.00396375
0.00393381
0.00394461
0.00393492
0.00396073
0.00396066
0.00394372
0.00396375
0.00393381
0.00394461
0.00393285
0.00391747
0.00393037
0.00391821
0.00393285
0.00391748
0.00393038
0.00391821
0.00392989
0.00392941
0.00391715
0.00391689
0.00393097
0.00392983
0.00391549
0.00392989
0.00392942
0.00391715
0.00391689
0.00393097
0.00392983
0.00391549
0.00396656
0.0039666
0.00393815
0.00393343
0.00393343
0.00393039
0.00393296
0.00391572
0.00393264
0.00393148
0.00391834
0.00391834
0.00393159
0.00393158
0.00391571
0.00393265
0.0039349
0.00396073
0.00396066
0.00394373
0.00396375
0.0039338
0.0039446
0.00393738
0.00395654
0.00396572
0.00392947
0.00393491
0.00396066
0.00396073
0.00394372
0.00396375
0.0039446
0.00393381
0.00393284
0.00391748
0.00393037
0.00391821
0.00392988
0.00392941
0.00391715
0.00391689
0.00393096
0.00392983
0.00391549
0.00393285
0.00391747
0.00393039
0.00391821
0.00392989
0.00392941
0.00391689
0.00391715
0.00392983
0.00393097
0.00391549
0.00393738
0.00395653
0.00396573
0.00392946
0.00393491
0.00396066
0.00396074
0.00394372
0.00396375
0.0039446
0.0039338
0.00393738
0.00395655
0.00396572
0.00392946
0.00392988
0.00392941
0.00391715
0.00391689
0.00393096
0.00392983
0.00391549
0.00393284
0.00391747
0.00393037
0.00391821
0.00392988
0.00392941
0.00391689
0.00391715
0.00392983
0.00393096
0.00391549
0.00393285
0.00391748
0.00393036
0.00391821
0.00396659
0.00396661
0.00393812
0.00393344
0.00393343
0.00393035
0.00393296
0.00391572
0.00393265
0.00393147
0.00391834
0.00391835
0.00393159
0.00393158
0.00391572
0.00393261
0.0039349
0.00396066
0.00396073
0.00394373
0.00396375
0.0039446
0.0039338
0.00393738
0.00395654
0.00396572
0.00392945
0.00393738
0.00395654
0.00396573
0.00392946
0.00392988
0.00392941
0.00391689
0.00391715
0.00392982
0.00393096
0.00391549
0.00392988
0.00392941
0.00391689
0.00391715
0.00392982
0.00393096
0.00391549
0.00393285
0.00391747
0.00393037
0.00391821
0.00393284
0.00391747
0.00393037
0.00391821
0.00393037
0.00393296
0.00393037
0.00393296
0.00393147
0.00391835
0.00391834
0.00393158
0.00393158
0.00391573
0.00393262
0.00391571
0.00393263
0.00390896
0.00388882
0.00390895
0.00388882
0.00391115
0.00391115
0.00388957
0.00389018
0.00389017
0.00386351
0.00388236
0.00386351
0.00388236
0.00388277
0.00386456
0.00386456
0.00388371
0.0038837
0.00389074
0.00391005
0.00391141
0.00388924
0.00388933
0.00391012
0.00390489
0.00389303
0.00390891
0.00388986
0.00389275
0.00388933
0.00391012
0.00390489
0.00389303
0.00390891
0.00388986
0.00389275
0.0038842
0.00386391
0.00388287
0.00386499
0.0038842
0.00386391
0.00388287
0.00386499
0.00388279
0.00388026
0.00386436
0.00386715
0.0038834
0.00388013
0.00386382
0.00388279
0.00388026
0.00386436
0.00386715
0.00388341
0.00388013
0.00386381
0.00391115
0.00391115
0.00388957
0.00389018
0.00389018
0.00390896
0.00388882
0.00386351
0.00388236
0.00388277
0.00386456
0.00386456
0.00388371
0.00388371
0.00386351
0.00388237
0.00388933
0.00391012
0.00390489
0.00389302
0.00390891
0.00388985
0.00389275
0.00389073
0.00391005
0.0039114
0.00388924
0.00388933
0.00390489
0.00391011
0.00389302
0.00390891
0.00389275
0.00388985
0.0038842
0.00386391
0.00388286
0.00386499
0.00388279
0.00388026
0.00386436
0.00386715
0.0038834
0.00388013
0.00386381
0.0038842
0.00386391
0.00388286
0.00386499
0.00388279
0.00388026
0.00386715
0.00386436
0.00388013
0.0038834
0.00386381
0.00389074
0.00391005
0.00391141
0.00388924
0.00388933
0.00390489
0.00391012
0.00389302
0.00390891
0.00389275
0.00388986
0.00389074
0.00391005
0.00391141
0.00388924
0.00388279
0.00388026
0.00386436
0.00386715
0.0038834
0.00388013
0.00386381
0.0038842
0.00386391
0.00388287
0.00386499
0.00388279
0.00388026
0.00386715
0.00386436
0.00388013
0.0038834
0.00386381
0.0038842
0.00386391
0.00388286
0.00386499
0.00391115
0.00391115
0.00388957
0.00389017
0.00389018
0.00390896
0.00388882
0.00386351
0.00388236
0.00388277
0.00386456
0.00386456
0.0038837
0.0038837
0.00386351
0.00388236
0.00388933
0.00390489
0.00391012
0.00389302
0.00390891
0.00389275
0.00388986
0.00389074
0.00391005
0.0039114
0.00388924
0.00389074
0.00391005
0.0039114
0.00388924
0.00388279
0.00388026
0.00386715
0.00386436
0.00388013
0.0038834
0.00386381
0.00388279
0.00388026
0.00386715
0.00386436
0.00388013
0.0038834
0.00386381
0.0038842
0.00386391
0.00388286
0.00386499
0.0038842
0.00386391
0.00388287
0.00386499
0.00390896
0.00388882
0.00390895
0.00388882
0.00388277
0.00386456
0.00386456
0.0038837
0.00388371
0.00386351
0.00388236
0.00386351
0.00388237
0.00385703
0.00383716
0.00385703
0.00383716
0.003858
0.003858
0.0038376
0.00383802
0.00383802
0.00381097
0.00383048
0.00381097
0.00383048
0.00383062
0.00381164
0.00381164
0.00383128
0.00383128
0.00383851
0.00385737
0.00385842
0.00383745
0.00383761
0.00385774
0.00385401
0.00384096
0.00385716
0.00383796
0.00384087
0.00383761
0.00385774
0.00385401
0.00384097
0.00385716
0.00383796
0.00384087
0.00383178
0.0038112
0.00383073
0.00381204
0.00383178
0.0038112
0.00383073
0.00381204
0.00383085
0.00382786
0.00381165
0.00381471
0.0038312
0.00382778
0.00381138
0.00383085
0.00382786
0.00381165
0.00381471
0.0038312
0.00382778
0.00381138
0.003858
0.003858
0.00383759
0.00383802
0.00383802
0.00385703
0.00383716
0.00381097
0.00383048
0.00383062
0.00381164
0.00381164
0.00383128
0.00383128
0.00381097
0.00383048
0.00383761
0.00385774
0.00385401
0.00384096
0.00385716
0.00383796
0.00384087
0.00383851
0.00385737
0.00385842
0.00383745
0.00383761
0.00385401
0.00385774
0.00384097
0.00385716
0.00384087
0.00383796
0.00383178
0.0038112
0.00383073
0.00381204
0.00383085
0.00382786
0.00381165
0.00381471
0.0038312
0.00382778
0.00381138
0.00383178
0.0038112
0.00383073
0.00381204
0.00383085
0.00382786
0.00381471
0.00381165
0.00382778
0.0038312
0.00381138
0.00383851
0.00385737
0.00385842
0.00383745
0.00383761
0.00385401
0.00385774
0.00384096
0.00385716
0.00384087
0.00383796
0.00383851
0.00385737
0.00385842
0.00383745
0.00383085
0.00382786
0.00381165
0.00381471
0.0038312
0.00382778
0.00381138
0.00383178
0.0038112
0.00383073
0.00381204
0.00383085
0.00382786
0.00381471
0.00381165
0.00382778
0.0038312
0.00381138
0.00383178
0.0038112
0.00383073
0.00381204
0.003858
0.003858
0.0038376
0.00383802
0.00383802
0.00385703
0.00383716
0.00381097
0.00383048
0.00383062
0.00381164
0.00381164
0.00383128
0.00383128
0.00381097
0.00383047
0.00383761
0.00385401
0.00385774
0.00384096
0.00385716
0.00384087
0.00383796
0.00383851
0.00385737
0.00385842
0.00383745
0.00383851
0.00385737
0.00385842
0.00383745
0.00383085
0.00382786
0.00381471
0.00381165
0.00382778
0.0038312
0.00381138
0.00383085
0.00382786
0.00381471
0.00381165
0.00382778
0.0038312
0.00381138
0.00383178
0.0038112
0.00383073
0.00381204
0.00383178
0.0038112
0.00383073
0.00381204
0.00385703
0.00383716
0.00385703
0.00383716
0.00383062
0.00381164
0.00381164
0.00383128
0.00383128
0.00381097
0.00383048
0.00381097
0.00383048
0.00380449
0.00378495
0.00380449
0.00378495
0.00380513
0.00380513
0.00378549
0.00378552
0.00378552
0.00375937
0.00377848
0.00375937
0.00377848
0.00377867
0.00375986
0.00375986
0.00377902
0.00377902
0.00378594
0.00380469
0.00380552
0.00378514
0.00378544
0.00380506
0.00380169
0.00378882
0.00380476
0.00378561
0.00378878
0.00378544
0.00380506
0.00380169
0.00378882
0.00380476
0.00378561
0.00378878
0.00377936
0.00375952
0.00377865
0.00376023
0.00377936
0.00375952
0.00377865
0.00376023
0.00377882
0.00377594
0.00375995
0.00376312
0.00377902
0.00377592
0.00375984
0.00377882
0.00377594
0.00375996
0.00376312
0.00377902
0.00377592
0.00375984
0.00380513
0.00380513
0.00378549
0.00378552
0.00378552
0.00380449
0.00378495
0.00375937
0.00377848
0.00377867
0.00375987
0.00375987
0.00377902
0.00377902
0.00375937
0.00377848
0.00378544
0.00380506
0.00380169
0.00378881
0.00380476
0.00378561
0.00378878
0.00378594
0.00380469
0.00380552
0.00378514
0.00378544
0.00380169
0.00380506
0.00378882
0.00380476
0.00378878
0.00378561
0.00377936
0.00375952
0.00377865
0.00376023
0.00377882
0.00377594
0.00375995
0.00376312
0.00377902
0.00377592
0.00375984
0.00377936
0.00375952
0.00377865
0.00376023
0.00377882
0.00377594
0.00376312
0.00375995
0.00377592
0.00377902
0.00375984
0.00378594
0.00380469
0.00380552
0.00378514
0.00378544
0.00380169
0.00380506
0.00378882
0.00380476
0.00378878
0.00378561
0.00378594
0.00380469
0.00380552
0.00378514
0.00377882
0.00377594
0.00375996
0.00376312
0.00377902
0.00377592
0.00375984
0.00377936
0.00375952
0.00377865
0.00376023
0.00377882
0.00377594
0.00376312
0.00375995
0.00377592
0.00377902
0.00375984
0.00377936
0.00375952
0.00377865
0.00376023
0.00380513
0.00380513
0.00378549
0.00378552
0.00378552
0.00380449
0.00378495
0.00375937
0.00377848
0.00377867
0.00375986
0.00375986
0.00377902
0.00377902
0.00375937
0.00377848
0.00378544
0.0038017
0.00380506
0.00378882
0.00380476
0.00378878
0.00378561
0.00378594
0.00380469
0.00380552
0.00378514
0.00378594
0.00380469
0.00380552
0.00378514
0.00377882
0.00377593
0.00376312
0.00375995
0.00377592
0.00377902
0.00375984
0.00377882
0.00377594
0.00376312
0.00375995
0.00377592
0.00377902
0.00375984
0.00377936
0.00375952
0.00377865
0.00376023
0.00377936
0.00375952
0.00377865
0.00376023
0.00380449
0.00378495
0.00380449
0.00378495
0.00377867
0.00375986
0.00375986
0.00377902
0.00377902
0.00375937
0.00377848
0.00375937
0.00377848
0.00375293
0.00373409
0.00375293
0.00373409
0.00375341
0.00375341
0.00373457
0.00373453
0.00373453
0.00370897
0.00372778
0.00370897
0.00372778
0.00372794
0.00370937
0.00370936
0.00372821
0.00372821
0.00373472
0.00375308
0.00375379
0.00373424
0.00373448
0.00375346
0.00375039
0.0037378
0.00375332
0.00373461
0.00373777
0.00373448
0.00375346
0.00375039
0.0037378
0.00375332
0.00373461
0.00373777
0.00372835
0.00370906
0.00372791
0.00370971
0.00372835
0.00370907
0.00372791
0.00370971
0.00372807
0.00372525
0.0037095
0.00371286
0.0037282
0.00372527
0.00370955
0.00372807
0.00372525
0.0037095
0.00371286
0.0037282
0.00372527
0.00370955
0.00375341
0.00375341
0.00373457
0.00373453
0.00373453
0.00375293
0.00373409
0.00370897
0.00372778
0.00372794
0.00370937
0.00370937
0.00372821
0.00372821
0.00370897
0.00372778
0.00373448
0.00375346
0.00375039
0.0037378
0.00375332
0.00373461
0.00373777
0.00373472
0.00375308
0.00375379
0.00373424
0.00373448
0.00375039
0.00375346
0.0037378
0.00375332
0.00373777
0.00373461
0.00372835
0.00370906
0.00372791
0.00370971
0.00372807
0.00372525
0.0037095
0.00371286
0.0037282
0.00372527
0.00370955
0.00372835
0.00370906
0.0037279
0.00370971
0.00372807
0.00372525
0.00371286
0.0037095
0.00372527
0.0037282
0.00370955
0.00373472
0.00375308
0.00375379
0.00373424
0.00373448
0.00375039
0.00375346
0.0037378
0.00375332
0.00373777
0.00373461
0.00373472
0.00375308
0.00375379
0.00373424
0.00372807
0.00372525
0.0037095
0.00371286
0.0037282
0.00372527
0.00370955
0.00372835
0.00370906
0.00372791
0.00370971
0.00372807
0.00372525
0.00371286
0.0037095
0.00372527
0.0037282
0.00370955
0.00372835
0.00370906
0.00372791
0.00370971
0.00375341
0.00375341
0.00373457
0.00373453
0.00373453
0.00375293
0.00373409
0.00370897
0.00372778
0.00372794
0.00370937
0.00370937
0.00372821
0.00372821
0.00370897
0.00372778
0.00373448
0.00375039
0.00375346
0.0037378
0.00375332
0.00373777
0.00373461
0.00373472
0.00375308
0.00375379
0.00373424
0.00373472
0.00375308
0.00375379
0.00373424
0.00372807
0.00372525
0.00371286
0.0037095
0.00372527
0.0037282
0.00370955
0.00372807
0.00372525
0.00371286
0.0037095
0.00372527
0.0037282
0.00370955
0.00372835
0.00370906
0.00372791
0.00370971
0.00372835
0.00370906
0.00372791
0.00370971
0.00375293
0.00373409
0.00375293
0.00373409
0.00372794
0.00370936
0.00370936
0.00372821
0.00372821
0.00370897
0.00372778
0.00370897
0.00372778
0.00370273
0.00368456
0.00370273
0.00368456
0.00370311
0.00370311
0.00368567
0.00368493
0.00368493
0.00366201
0.00367869
0.00366202
0.00367869
0.00367952
0.00366224
0.00366224
0.00367905
0.00367905
0.00368533
0.00370285
0.00370357
0.00368482
0.00368536
0.00370325
0.00370069
0.00368875
0.0037033
0.00368525
0.00368879
0.00368536
0.00370325
0.00370069
0.00368875
0.0037033
0.00368525
0.00368879
0.0036793
0.00366219
0.00367897
0.0036621
0.0036793
0.00366219
0.00367897
0.0036621
0.00367937
0.00367711
0.0036625
0.00366587
0.00367931
0.00367717
0.00366257
0.00367937
0.00367711
0.00366251
0.00366587
0.00367931
0.00367717
0.00366257
0.00370312
0.00370311
0.00368567
0.00368493
0.00368493
0.00370273
0.00368456
0.00366202
0.00367869
0.00367952
0.00366224
0.00366223
0.00367905
0.00367905
0.00366201
0.00367869
0.00368536
0.00370325
0.00370069
0.00368876
0.0037033
0.00368525
0.00368879
0.00368533
0.00370285
0.00370357
0.00368482
0.00368536
0.00370069
0.00370325
0.00368875
0.0037033
0.00368879
0.00368525
0.0036793
0.00366219
0.00367897
0.00366211
0.00367937
0.00367711
0.00366251
0.00366587
0.00367931
0.00367717
0.00366257
0.0036793
0.00366219
0.00367897
0.00366211
0.00367937
0.00367711
0.00366587
0.00366251
0.00367717
0.00367931
0.00366257
0.00368533
0.00370285
0.00370357
0.00368482
0.00368536
0.00370069
0.00370325
0.00368876
0.0037033
0.00368879
0.00368525
0.00368533
0.00370285
0.00370357
0.00368482
0.00367937
0.00367711
0.0036625
0.00366587
0.00367931
0.00367717
0.00366257
0.0036793
0.00366219
0.00367897
0.0036621
0.00367937
0.00367711
0.00366587
0.0036625
0.00367717
0.00367931
0.00366257
0.0036793
0.00366219
0.00367897
0.0036621
0.00370311
0.00370311
0.00368566
0.00368493
0.00368493
0.00370273
0.00368456
0.00366202
0.0036787
0.00367952
0.00366224
0.00366224
0.00367905
0.00367905
0.00366201
0.00367869
0.00368536
0.00370069
0.00370325
0.00368876
0.0037033
0.0036888
0.00368525
0.00368533
0.00370285
0.00370357
0.00368482
0.00368533
0.00370285
0.00370357
0.00368481
0.00367937
0.00367711
0.00366587
0.00366251
0.00367717
0.00367931
0.00366257
0.00367937
0.00367711
0.00366587
0.0036625
0.00367717
0.00367931
0.00366257
0.0036793
0.00366219
0.00367897
0.0036621
0.0036793
0.00366219
0.00367897
0.0036621
0.00370273
0.00368456
0.00370273
0.00368456
0.00367952
0.00366223
0.00366223
0.00367905
0.00367905
0.00366201
0.00367869
0.00366201
0.00367869
0.00365664
0.003641
0.00365664
0.003641
0.00365686
0.00365686
0.00364158
0.00364116
0.00364116
0.0036203
0.0036358
0.00362031
0.0036358
0.00363605
0.00362037
0.00362037
0.00363594
0.00363594
0.00364093
0.00365677
0.00365664
0.00364101
0.00364129
0.00365701
0.0036549
0.00364412
0.00365704
0.00364123
0.00364417
0.00364129
0.00365702
0.0036549
0.00364412
0.00365704
0.00364123
0.00364417
0.00363576
0.00362026
0.00363578
0.00362033
0.00363576
0.00362027
0.00363578
0.00362033
0.00363594
0.00363357
0.0036204
0.00362312
0.00363591
0.0036336
0.00362047
0.00363594
0.00363357
0.0036204
0.00362312
0.00363591
0.0036336
0.00362047
0.00365686
0.00365684
0.00364158
0.00364116
0.00364116
0.00365663
0.003641
0.00362031
0.0036358
0.00363605
0.00362038
0.00362038
0.00363594
0.00363594
0.0036203
0.0036358
0.00364129
0.00365702
0.0036549
0.00364412
0.00365704
0.00364123
0.00364417
0.00364093
0.00365677
0.00365664
0.00364101
0.00364129
0.0036549
0.00365702
0.00364412
0.00365704
0.00364417
0.00364123
0.00363576
0.00362027
0.00363578
0.00362033
0.00363594
0.00363357
0.0036204
0.00362312
0.00363591
0.0036336
0.00362047
0.00363576
0.00362022
0.00363578
0.00362033
0.00363594
0.00363357
0.00362312
0.00362043
0.0036336
0.00363591
0.00362047
0.00364093
0.00365676
0.00365664
0.00364101
0.00364129
0.0036549
0.00365701
0.00364412
0.00365704
0.00364417
0.00364123
0.00364093
0.00365676
0.00365664
0.00364101
0.00363593
0.00363357
0.00362043
0.00362312
0.00363591
0.0036336
0.00362047
0.00363576
0.00362023
0.00363578
0.00362033
0.00363593
0.00363357
0.00362312
0.0036204
0.0036336
0.00363591
0.00362047
0.00363576
0.00362026
0.00363578
0.00362033
0.00365686
0.00365686
0.00364158
0.00364116
0.00364116
0.00365664
0.003641
0.0036203
0.0036358
0.00363605
0.00362038
0.00362038
0.00363594
0.00363594
0.00362031
0.0036358
0.00364128
0.0036549
0.00365701
0.00364412
0.00365704
0.00364417
0.00364123
0.00364093
0.00365677
0.00365664
0.00364101
0.00364093
0.00365676
0.00365664
0.00364101
0.00363593
0.00363357
0.00362312
0.0036204
0.0036336
0.00363591
0.00362047
0.00363593
0.00363357
0.00362312
0.0036204
0.0036336
0.00363591
0.00362047
0.00363576
0.00362027
0.00363578
0.00362033
0.00363576
0.00362026
0.00363578
0.00362033
0.00365664
0.003641
0.00365664
0.003641
0.00363605
0.00362038
0.00362037
0.00363594
0.00363594
0.00362031
0.0036358
0.00362031
0.0036358
0.0036151
0.00359958
0.00361511
0.00359958
0.00361516
0.00361517
0.00359978
0.00359959
0.00359959
0.00357881
0.00359436
0.00357881
0.00359436
0.00359429
0.00357882
0.00357882
0.00359438
0.00359438
0.00359961
0.00361507
0.00361514
0.00359956
0.00359968
0.00361511
0.00361267
0.00360223
0.00361515
0.00359962
0.00360225
0.00359968
0.00361511
0.00361267
0.00360223
0.00361516
0.00359962
0.00360225
0.00359439
0.00357881
0.00359434
0.00357883
0.00359439
0.00357881
0.00359434
0.00357883
0.00359436
0.00359182
0.00357885
0.00358143
0.00359434
0.00359183
0.00357888
0.00359436
0.00359182
0.00357885
0.00358143
0.00359434
0.00359183
0.00357888
0.00361516
0.00361517
0.00359978
0.00359959
0.00359959
0.0036151
0.00359958
0.00357881
0.00359436
0.00359429
0.00357882
0.00357882
0.00359438
0.00359438
0.00357881
0.00359436
0.00359968
0.00361511
0.00361267
0.00360223
0.00361515
0.00359962
0.00360225
0.00359961
0.00361506
0.00361514
0.00359956
0.00359968
0.00361267
0.00361511
0.00360223
0.00361515
0.00360225
0.00359962
0.00359439
0.00357881
0.00359434
0.00357883
0.00359436
0.00359182
0.00357885
0.00358143
0.00359434
0.00359183
0.00357888
0.00359439
0.00357881
0.00359434
0.00357883
0.00359436
0.00359182
0.00358143
0.00357885
0.00359183
0.00359434
0.00357888
0.00359961
0.00361506
0.00361514
0.00359956
0.00359968
0.00361267
0.00361511
0.00360223
0.00361515
0.00360225
0.00359962
0.00359961
0.00361507
0.00361514
0.00359956
0.00359436
0.00359182
0.00357885
0.00358143
0.00359434
0.00359183
0.00357888
0.00359439
0.00357881
0.00359434
0.00357883
0.00359436
0.00359182
0.00358143
0.00357885
0.00359183
0.00359434
0.00357888
0.00359439
0.00357881
0.00359434
0.00357883
0.00361517
0.00361517
0.00359978
0.00359959
0.00359959
0.0036151
0.00359958
0.00357881
0.00359436
0.00359429
0.00357882
0.00357882
0.00359438
0.00359438
0.00357881