/*--------------------------------*- C++ -*----------------------------------*\
| =========                 |                                                 |
| \\      /  F ield         | OpenFOAM: The Open Source CFD Toolbox           |
|  \\    /   O peration     | Version:  2206                                  |
|   \\  /    A nd           | Website:  www.openfoam.com                      |
|    \\/     M anipulation  |                                                 |
\*---------------------------------------------------------------------------*/
FoamFile
{
    version     2.0;
    format      ascii;
    arch        "LSB;label=32;scalar=64";
    class       volScalarField;
    location    "38";
    object      epsilon;
}
// * * * * * * * * * * * * * * * * * * * * * * * * * * * * * * * * * * * * * //

dimensions      [0 2 -3 0 0 0 0];

internalField   nonuniform List<scalar> 
28687
(
2.39999e-07
2.69721e-07
2.69732e-07
3.04778e-07
2.39998e-07
2.69724e-07
2.69733e-07
3.04784e-07
2.4e-07
2.69729e-07
2.69738e-07
3.04795e-07
2.40001e-07
2.69733e-07
2.69742e-07
3.04801e-07
2.40002e-07
2.69738e-07
2.69746e-07
3.04809e-07
2.40003e-07
2.69742e-07
2.6975e-07
3.04819e-07
2.4e-07
2.69744e-07
2.69752e-07
3.04825e-07
2.39998e-07
2.69746e-07
2.69754e-07
3.04831e-07
2.39993e-07
2.69732e-07
2.69748e-07
3.04827e-07
2.39925e-07
2.69648e-07
2.69667e-07
3.04746e-07
2.39897e-07
2.69627e-07
2.69638e-07
3.04685e-07
2.39897e-07
2.69627e-07
2.69638e-07
3.047e-07
2.39897e-07
2.69627e-07
2.69637e-07
3.04694e-07
2.39896e-07
2.69627e-07
2.69637e-07
3.04696e-07
2.39896e-07
2.69627e-07
2.69637e-07
3.04697e-07
2.39896e-07
2.69627e-07
2.69637e-07
3.04698e-07
2.39896e-07
2.69627e-07
2.69637e-07
3.04695e-07
2.39896e-07
2.69627e-07
2.69637e-07
3.04694e-07
2.6975e-07
3.0448e-07
2.69719e-07
3.04769e-07
3.04497e-07
2.69745e-07
2.69751e-07
2.69747e-07
2.69754e-07
3.04767e-07
3.04486e-07
2.69728e-07
2.69757e-07
2.6973e-07
2.69758e-07
2.69748e-07
2.69724e-07
2.6975e-07
3.04777e-07
3.04503e-07
2.69727e-07
2.69733e-07
2.69729e-07
3.04505e-07
3.04778e-07
3.04506e-07
2.69749e-07
2.69757e-07
2.69751e-07
2.69758e-07
3.0477e-07
3.045e-07
2.69733e-07
2.69761e-07
2.69734e-07
2.69762e-07
2.69753e-07
2.69728e-07
2.69753e-07
3.04784e-07
3.04514e-07
2.69731e-07
2.69737e-07
2.69732e-07
3.04516e-07
3.04789e-07
3.04512e-07
2.69753e-07
2.69761e-07
2.69756e-07
2.69762e-07
3.04783e-07
3.04506e-07
2.69737e-07
2.69765e-07
2.69738e-07
2.69766e-07
2.69756e-07
2.69733e-07
2.69757e-07
3.04795e-07
3.04519e-07
2.69735e-07
2.69741e-07
2.69736e-07
3.0452e-07
3.04795e-07
3.04523e-07
2.69759e-07
2.69765e-07
2.69761e-07
2.69766e-07
3.04789e-07
3.04515e-07
2.69741e-07
2.69769e-07
2.69743e-07
2.69771e-07
2.6976e-07
2.69737e-07
2.69762e-07
3.04801e-07
3.04529e-07
2.69739e-07
2.69745e-07
2.6974e-07
3.0453e-07
3.04805e-07
3.04531e-07
2.69764e-07
2.69768e-07
2.69766e-07
2.69768e-07
3.04798e-07
3.04523e-07
2.69746e-07
2.69774e-07
2.69748e-07
2.69775e-07
2.69764e-07
2.69741e-07
2.69766e-07
3.0481e-07
3.04537e-07
2.69743e-07
2.69749e-07
2.69744e-07
3.04539e-07
3.04814e-07
3.04538e-07
2.69769e-07
2.69771e-07
2.6977e-07
2.69771e-07
3.04806e-07
3.0453e-07
2.6975e-07
2.69778e-07
2.6975e-07
2.69778e-07
2.69768e-07
2.69744e-07
2.69769e-07
3.04819e-07
3.04545e-07
2.69747e-07
2.69752e-07
2.69747e-07
3.04546e-07
3.04821e-07
3.04545e-07
2.69773e-07
2.69773e-07
2.69772e-07
2.69774e-07
3.04812e-07
3.04536e-07
2.69753e-07
2.6978e-07
2.69752e-07
2.69779e-07
2.69771e-07
2.69746e-07
2.6977e-07
3.04826e-07
3.0455e-07
2.6975e-07
2.69754e-07
2.69749e-07
3.04551e-07
3.04827e-07
3.04545e-07
2.69774e-07
2.69776e-07
2.69771e-07
2.69771e-07
3.04818e-07
3.0453e-07
2.69754e-07
2.69782e-07
2.69751e-07
2.69779e-07
2.69772e-07
2.69742e-07
2.6977e-07
3.04831e-07
3.04551e-07
2.69751e-07
2.69754e-07
2.69749e-07
3.04551e-07
3.04823e-07
3.04475e-07
2.69765e-07
2.69761e-07
2.69704e-07
2.69696e-07
3.04806e-07
3.04442e-07
2.69746e-07
2.69775e-07
2.69686e-07
2.69715e-07
2.69765e-07
2.69668e-07
2.69705e-07
3.04828e-07
3.04481e-07
2.69744e-07
2.69689e-07
2.69684e-07
3.04482e-07
3.04742e-07
3.04399e-07
2.69683e-07
2.69678e-07
2.69653e-07
2.69658e-07
3.04709e-07
3.04387e-07
2.69666e-07
2.69694e-07
2.69636e-07
2.69665e-07
2.69684e-07
2.69627e-07
2.69656e-07
3.04746e-07
3.04405e-07
2.69663e-07
2.69639e-07
2.69635e-07
3.04406e-07
3.0468e-07
3.04413e-07
2.69653e-07
2.69659e-07
2.69652e-07
2.69658e-07
3.04671e-07
3.04402e-07
2.69636e-07
2.69665e-07
2.69635e-07
2.69664e-07
2.69657e-07
2.69628e-07
2.69656e-07
3.04685e-07
3.0442e-07
2.69635e-07
2.69639e-07
2.69635e-07
3.04421e-07
3.04695e-07
3.04407e-07
2.69653e-07
2.69659e-07
2.6965e-07
2.69656e-07
3.04684e-07
3.04396e-07
2.69636e-07
2.69665e-07
2.69633e-07
2.69663e-07
2.69657e-07
2.69627e-07
2.69654e-07
3.04701e-07
3.04413e-07
2.69637e-07
2.69637e-07
2.69636e-07
3.04415e-07
3.04688e-07
3.04408e-07
2.69651e-07
2.69657e-07
2.6965e-07
2.69656e-07
3.04679e-07
3.04397e-07
2.69634e-07
2.69664e-07
2.69633e-07
2.69663e-07
2.69656e-07
2.69627e-07
2.69654e-07
3.04694e-07
3.04415e-07
2.69638e-07
2.69637e-07
2.69637e-07
3.04418e-07
3.04689e-07
3.04409e-07
2.69651e-07
2.69658e-07
2.69649e-07
2.69656e-07
3.04679e-07
3.04399e-07
2.69634e-07
2.69664e-07
2.69633e-07
2.69663e-07
2.69656e-07
2.69627e-07
2.69654e-07
3.04695e-07
3.04416e-07
2.69638e-07
2.69637e-07
2.69637e-07
3.04419e-07
3.0469e-07
3.04407e-07
2.69651e-07
2.69658e-07
2.69649e-07
2.69657e-07
3.0468e-07
3.04401e-07
2.69634e-07
2.69665e-07
2.69633e-07
2.69663e-07
2.69656e-07
2.69627e-07
2.69654e-07
3.04696e-07
3.04415e-07
2.69638e-07
2.69637e-07
2.69636e-07
3.04418e-07
3.0469e-07
3.04405e-07
2.6965e-07
2.69658e-07
2.69649e-07
2.69657e-07
3.04683e-07
3.04397e-07
2.69635e-07
2.69664e-07
2.69633e-07
2.69663e-07
2.69656e-07
2.69627e-07
2.69654e-07
3.04697e-07
3.04413e-07
2.69638e-07
2.69637e-07
2.69636e-07
3.04415e-07
3.04687e-07
3.04406e-07
2.6965e-07
2.69658e-07
2.69649e-07
2.69657e-07
3.0468e-07
3.04396e-07
2.69635e-07
2.69665e-07
2.69633e-07
2.69663e-07
2.69656e-07
2.69627e-07
2.69654e-07
3.04694e-07
3.04414e-07
2.69638e-07
2.69637e-07
2.69636e-07
3.04416e-07
3.04686e-07
2.6965e-07
2.69658e-07
3.04678e-07
2.69634e-07
2.69664e-07
2.69655e-07
3.04694e-07
2.69637e-07
1.83876e-06
8.83974e-06
1.83924e-06
8.83928e-06
2.08179e-05
2.08175e-05
1.83871e-06
8.84107e-06
1.83913e-06
8.84056e-06
2.40001e-07
2.40003e-07
2.40001e-07
2.39998e-07
2.40001e-07
2.40003e-07
2.40001e-07
5.33003e-07
1.47817e-06
2.50345e-07
2.69723e-07
5.33167e-07
1.47735e-06
2.50345e-07
2.08184e-05
2.08178e-05
5.3301e-07
2.50346e-07
1.47808e-06
2.69733e-07
5.33174e-07
2.50347e-07
1.47731e-06
3.33827e-06
3.33929e-06
3.04504e-07
3.33766e-06
3.33872e-06
1.83895e-06
8.83941e-06
1.83951e-06
8.83901e-06
2.08163e-05
2.08164e-05
1.8389e-06
8.8407e-06
1.83941e-06
8.84026e-06
2.40002e-07
2.40005e-07
2.40002e-07
2.4e-07
2.4e-07
2.40003e-07
2.4e-07
5.33043e-07
1.47837e-06
2.50343e-07
2.69727e-07
5.33211e-07
1.47751e-06
2.50346e-07
2.08167e-05
2.08166e-05
5.33052e-07
2.50344e-07
1.47829e-06
2.69736e-07
5.33221e-07
2.50346e-07
1.47746e-06
3.33839e-06
3.33941e-06
3.04508e-07
3.33788e-06
3.33891e-06
1.83906e-06
8.83927e-06
1.83964e-06
8.83896e-06
2.08158e-05
2.0816e-05
1.839e-06
8.84051e-06
1.83953e-06
8.84014e-06
2.40002e-07
2.40004e-07
2.40001e-07
2.40001e-07
2.40001e-07
2.40004e-07
2.40001e-07
5.33078e-07
1.47848e-06
2.50346e-07
2.69732e-07
5.33249e-07
1.47758e-06
2.50348e-07
2.0816e-05
2.08162e-05
5.33088e-07
2.50346e-07
1.4784e-06
2.6974e-07
5.33259e-07
2.50347e-07
1.47756e-06
3.33861e-06
3.33963e-06
3.04517e-07
3.33809e-06
3.33912e-06
1.83911e-06
8.83932e-06
1.83971e-06
8.83902e-06
2.08156e-05
2.08161e-05
1.83905e-06
8.84049e-06
1.8396e-06
8.84015e-06
2.40003e-07
2.40006e-07
2.40004e-07
2.40002e-07
2.40002e-07
2.40005e-07
2.40002e-07
5.33106e-07
1.47851e-06
2.50348e-07
2.69736e-07
5.33279e-07
1.47761e-06
2.50351e-07
2.08158e-05
2.0816e-05
5.33115e-07
2.50348e-07
1.47847e-06
2.69745e-07
5.33288e-07
2.5035e-07
1.47761e-06
3.33876e-06
3.33978e-06
3.04527e-07
3.33818e-06
3.33922e-06
1.83913e-06
8.83938e-06
1.83974e-06
8.83909e-06
2.08159e-05
2.08164e-05
1.83907e-06
8.84052e-06
1.83963e-06
8.8402e-06
2.40005e-07
2.40006e-07
2.40004e-07
2.40003e-07
2.40002e-07
2.40005e-07
2.40003e-07
5.33123e-07
1.47854e-06
2.5035e-07
2.69741e-07
5.33301e-07
1.47764e-06
2.50352e-07
2.08158e-05
2.08162e-05
5.3313e-07
2.50349e-07
1.4785e-06
2.69749e-07
5.33309e-07
2.50351e-07
1.47763e-06
3.33879e-06
3.33982e-06
3.04534e-07
3.3382e-06
3.33924e-06
1.83912e-06
8.83945e-06
1.83974e-06
8.83915e-06
2.08164e-05
2.08161e-05
1.83905e-06
8.84061e-06
1.83961e-06
8.8403e-06
2.40003e-07
2.40005e-07
2.40004e-07
2.4e-07
2.40002e-07
2.40004e-07
2.40004e-07
5.33131e-07
1.47856e-06
2.50351e-07
2.69744e-07
5.33312e-07
1.47765e-06
2.50352e-07
2.08162e-05
2.08167e-05
5.33135e-07
2.50351e-07
1.47851e-06
2.69752e-07
5.33317e-07
2.50352e-07
1.47764e-06
3.33882e-06
3.33985e-06
3.04541e-07
3.33824e-06
3.33928e-06
1.83911e-06
8.83945e-06
1.83971e-06
8.83919e-06
2.0816e-05
2.08171e-05
1.83904e-06
8.84072e-06
1.83959e-06
8.84042e-06
2.40001e-07
2.40004e-07
2.40004e-07
2.39998e-07
2.39998e-07
2.40001e-07
2.39998e-07
5.33138e-07
1.47856e-06
2.5035e-07
2.69746e-07
5.33317e-07
1.47765e-06
2.50351e-07
2.08167e-05
2.08173e-05
5.33143e-07
2.50351e-07
1.47851e-06
2.69755e-07
5.33322e-07
2.50352e-07
1.47764e-06
3.33884e-06
3.33987e-06
3.04548e-07
3.33822e-06
3.33927e-06
1.83915e-06
8.83973e-06
1.83971e-06
8.8396e-06
2.08169e-05
2.0817e-05
1.83908e-06
8.84096e-06
1.83958e-06
8.84073e-06
2.39998e-07
2.40001e-07
2.39998e-07
2.39996e-07
2.39995e-07
2.39999e-07
2.39995e-07
5.33141e-07
1.4786e-06
2.50349e-07
2.69747e-07
5.33322e-07
1.47773e-06
2.50349e-07
2.08172e-05
2.08174e-05
5.33147e-07
2.50351e-07
1.47853e-06
2.69756e-07
5.33327e-07
2.50352e-07
1.4777e-06
3.33883e-06
3.33987e-06
3.04553e-07
3.33831e-06
3.33935e-06
1.8392e-06
8.84001e-06
1.83988e-06
8.83963e-06
2.08159e-05
2.08156e-05
1.83914e-06
8.84111e-06
1.83976e-06
8.84084e-06
2.39991e-07
2.39996e-07
2.39993e-07
2.39945e-07
2.39938e-07
2.39948e-07
2.39945e-07
5.33091e-07
1.47866e-06
2.50342e-07
2.69714e-07
5.33313e-07
1.47769e-06
2.50332e-07
2.08164e-05
2.08164e-05
5.33101e-07
2.50345e-07
1.47862e-06
2.69735e-07
5.33321e-07
2.50337e-07
1.4777e-06
3.33898e-06
3.34001e-06
3.04529e-07
3.33835e-06
3.33939e-06
1.83897e-06
8.83968e-06
1.83966e-06
8.83919e-06
2.08151e-05
2.08154e-05
1.8389e-06
8.84112e-06
1.83954e-06
8.84079e-06
2.3992e-07
2.39928e-07
2.39926e-07
2.39899e-07
2.39899e-07
2.39903e-07
2.39901e-07
5.32972e-07
1.47848e-06
2.50268e-07
2.69638e-07
5.33188e-07
1.47751e-06
2.50257e-07
2.08158e-05
2.0816e-05
5.32983e-07
2.50273e-07
1.47846e-06
2.69653e-07
5.33199e-07
2.50261e-07
1.47753e-06
3.33883e-06
3.33986e-06
3.04427e-07
3.33816e-06
3.3392e-06
1.83888e-06
8.83937e-06
1.83952e-06
8.83897e-06
2.08151e-05
2.08154e-05
1.83882e-06
8.84112e-06
1.8394e-06
8.84082e-06
2.399e-07
2.39904e-07
2.39901e-07
2.39897e-07
2.39898e-07
2.39902e-07
2.399e-07
5.32939e-07
1.47837e-06
2.50244e-07
2.69629e-07
5.33127e-07
1.47745e-06
2.50245e-07
2.08157e-05
2.08159e-05
5.32949e-07
2.50246e-07
1.47834e-06
2.69639e-07
5.33138e-07
2.50247e-07
1.47746e-06
3.33868e-06
3.33971e-06
3.04413e-07
3.33807e-06
3.33911e-06
1.83887e-06
8.83924e-06
1.83949e-06
8.83887e-06
2.08151e-05
2.08155e-05
1.83881e-06
8.84117e-06
1.83937e-06
8.84087e-06
2.39899e-07
2.39903e-07
2.39901e-07
2.39897e-07
2.39898e-07
2.39902e-07
2.399e-07
5.32939e-07
1.47836e-06
2.50244e-07
2.69628e-07
5.33122e-07
1.47744e-06
2.50245e-07
2.08156e-05
2.08159e-05
5.32947e-07
2.50246e-07
1.47832e-06
2.69639e-07
5.33131e-07
2.50247e-07
1.47745e-06
3.33865e-06
3.33968e-06
3.04419e-07
3.33805e-06
3.33909e-06
1.83887e-06
8.83918e-06
1.83949e-06
8.83881e-06
2.08152e-05
2.08155e-05
1.8388e-06
8.84122e-06
1.83937e-06
8.84091e-06
2.39899e-07
2.39903e-07
2.39901e-07
2.39897e-07
2.39898e-07
2.39902e-07
2.399e-07
5.32936e-07
1.47836e-06
2.50243e-07
2.69628e-07
5.3312e-07
1.47744e-06
2.50244e-07
2.08156e-05
2.08159e-05
5.32945e-07
2.50245e-07
1.47832e-06
2.69639e-07
5.33128e-07
2.50247e-07
1.47745e-06
3.33865e-06
3.33968e-06
3.04417e-07
3.33805e-06
3.33909e-06
1.83887e-06
8.83913e-06
1.83949e-06
8.83877e-06
2.08152e-05
2.08155e-05
1.8388e-06
8.84124e-06
1.83937e-06
8.84093e-06
2.39899e-07
2.39903e-07
2.39901e-07
2.39897e-07
2.39898e-07
2.39902e-07
2.399e-07
5.32937e-07
1.47836e-06
2.50243e-07
2.69628e-07
5.33119e-07
1.47744e-06
2.50244e-07
2.08156e-05
2.08159e-05
5.32946e-07
2.50245e-07
1.47832e-06
2.69639e-07
5.33129e-07
2.50247e-07
1.47745e-06
3.33865e-06
3.33968e-06
3.04417e-07
3.33805e-06
3.33909e-06
1.83887e-06
8.8391e-06
1.83948e-06
8.83875e-06
2.08153e-05
2.08156e-05
1.8388e-06
8.84126e-06
1.83937e-06
8.84094e-06
2.39899e-07
2.39903e-07
2.39901e-07
2.39896e-07
2.39898e-07
2.39902e-07
2.399e-07
5.32937e-07
1.47836e-06
2.50243e-07
2.69628e-07
5.3312e-07
1.47744e-06
2.50244e-07
2.08156e-05
2.08159e-05
5.32947e-07
2.50245e-07
1.47832e-06
2.69639e-07
5.3313e-07
2.50247e-07
1.47745e-06
3.33865e-06
3.33968e-06
3.04416e-07
3.33805e-06
3.33909e-06
1.83887e-06
8.83908e-06
1.83949e-06
8.83873e-06
2.08153e-05
2.08156e-05
1.8388e-06
8.84127e-06
1.83937e-06
8.84095e-06
2.39899e-07
2.39903e-07
2.39901e-07
2.39896e-07
2.39898e-07
2.39902e-07
2.399e-07
5.32937e-07
1.47836e-06
2.50243e-07
2.69628e-07
5.3312e-07
1.47744e-06
2.50244e-07
2.08156e-05
2.08159e-05
5.32948e-07
2.50246e-07
1.47832e-06
2.69639e-07
5.33131e-07
2.50247e-07
1.47745e-06
3.33865e-06
3.33968e-06
3.04418e-07
3.33805e-06
3.33909e-06
1.83887e-06
8.83907e-06
1.83948e-06
8.83871e-06
2.08153e-05
2.08156e-05
1.8388e-06
8.84128e-06
1.83937e-06
8.84095e-06
2.39899e-07
2.39903e-07
2.39901e-07
2.39896e-07
2.39898e-07
2.39902e-07
2.399e-07
5.32938e-07
1.47836e-06
2.50243e-07
2.69628e-07
5.33121e-07
1.47744e-06
2.50244e-07
2.08156e-05
2.08159e-05
5.32949e-07
2.50246e-07
1.47832e-06
2.69639e-07
5.33132e-07
2.50247e-07
1.47745e-06
3.33865e-06
3.33968e-06
3.0442e-07
3.33805e-06
3.33909e-06
1.83887e-06
8.83906e-06
1.83948e-06
8.83872e-06
2.08153e-05
2.08156e-05
1.8388e-06
8.84128e-06
1.83937e-06
8.84097e-06
2.39899e-07
2.39903e-07
2.39901e-07
5.32937e-07
1.47836e-06
2.50243e-07
2.69628e-07
5.3312e-07
1.47744e-06
2.50245e-07
2.08156e-05
2.08156e-05
5.3295e-07
2.50245e-07
1.47832e-06
2.69639e-07
5.33131e-07
2.50248e-07
1.47745e-06
3.33865e-06
3.33968e-06
3.04418e-07
3.33805e-06
3.33934e-06
8.84042e-06
1.47738e-06
2.08184e-05
3.33835e-06
3.33722e-06
2.08159e-05
1.47722e-06
8.83977e-06
2.08176e-05
2.0817e-05
2.0819e-05
2.08186e-05
3.33813e-06
3.33922e-06
3.04495e-07
3.33755e-06
3.33868e-06
2.08162e-05
2.08166e-05
2.08178e-05
2.08181e-05
3.04775e-07
3.33764e-06
3.33876e-06
3.33812e-06
3.33925e-06
1.83879e-06
8.84071e-06
1.83927e-06
8.84024e-06
5.32996e-07
1.47801e-06
2.50344e-07
2.69746e-07
5.33161e-07
1.47723e-06
2.50344e-07
5.33001e-07
1.47829e-06
2.50346e-07
2.69752e-07
5.33166e-07
1.4775e-06
2.50346e-07
1.8394e-06
8.83912e-06
8.83957e-06
1.83888e-06
1.83943e-06
8.84009e-06
8.84053e-06
1.8389e-06
5.33188e-07
2.69746e-07
1.47732e-06
2.50343e-07
1.47813e-06
2.50343e-07
5.33017e-07
5.33194e-07
2.69753e-07
1.47758e-06
2.50345e-07
1.4784e-06
2.50345e-07
5.33023e-07
3.33896e-06
3.33802e-06
3.04485e-07
3.33854e-06
3.33769e-06
2.08155e-05
2.08151e-05
2.08168e-05
2.08171e-05
3.04765e-07
3.3387e-06
3.33791e-06
3.33914e-06
3.3384e-06
2.08145e-05
2.08148e-05
5.33019e-07
1.47845e-06
2.50345e-07
2.69729e-07
5.33181e-07
1.47764e-06
2.50346e-07
1.83868e-06
8.84065e-06
1.83911e-06
8.84015e-06
5.33013e-07
2.50349e-07
1.47842e-06
2.69758e-07
5.33175e-07
2.50349e-07
1.47761e-06
1.83929e-06
8.84039e-06
8.84087e-06
1.83882e-06
5.33209e-07
2.6973e-07
1.47773e-06
2.50344e-07
1.47857e-06
2.50344e-07
5.33042e-07
1.83927e-06
8.83999e-06
8.84046e-06
1.8388e-06
5.33204e-07
2.69758e-07
2.50348e-07
1.4777e-06
2.50348e-07
1.47854e-06
5.33035e-07
1.83881e-06
8.84009e-06
1.83929e-06
8.83961e-06
5.33008e-07
2.50346e-07
1.47809e-06
2.69749e-07
5.3317e-07
2.50346e-07
1.47731e-06
1.8388e-06
8.84073e-06
1.83928e-06
8.84026e-06
5.33194e-07
2.69723e-07
1.47744e-06
2.50343e-07
1.47828e-06
2.50344e-07
5.33024e-07
1.83945e-06
8.83947e-06
8.83993e-06
1.83892e-06
5.33198e-07
2.6975e-07
2.50344e-07
1.4774e-06
2.50344e-07
1.47821e-06
5.33029e-07
1.83944e-06
8.8401e-06
8.84055e-06
1.83892e-06
3.33897e-06
3.33825e-06
3.04503e-07
3.33836e-06
3.33766e-06
2.08186e-05
2.0818e-05
2.08171e-05
2.08174e-05
3.04782e-07
3.3386e-06
3.33774e-06
3.33906e-06
3.33822e-06
2.08172e-05
2.08176e-05
5.33008e-07
2.50345e-07
1.47828e-06
2.69728e-07
5.33172e-07
2.50345e-07
1.4775e-06
1.83869e-06
8.84087e-06
1.83911e-06
8.8404e-06
1.8387e-06
8.84158e-06
1.83912e-06
8.8411e-06
5.33202e-07
2.69733e-07
2.50344e-07
1.4774e-06
2.50345e-07
1.4782e-06
5.33033e-07
5.332e-07
2.69728e-07
2.50344e-07
1.47759e-06
2.50344e-07
1.4784e-06
5.33031e-07
1.83927e-06
8.84024e-06
8.84069e-06
1.8388e-06
1.83928e-06
8.84094e-06
8.8414e-06
1.83881e-06
2.08188e-05
2.08182e-05
2.08193e-05
2.08187e-05
3.04784e-07
3.33777e-06
3.33881e-06
3.33824e-06
3.33928e-06
2.08174e-05
2.08178e-05
2.08179e-05
2.08183e-05
2.08159e-05
2.08157e-05
2.08174e-05
2.08173e-05
3.33822e-06
3.33933e-06
3.04499e-07
3.33775e-06
3.33886e-06
2.08153e-05
2.08154e-05
2.0817e-05
2.08169e-05
3.04782e-07
3.33786e-06
3.33896e-06
3.33832e-06
3.33944e-06
1.83898e-06
8.8404e-06
1.83953e-06
8.83999e-06
5.33036e-07
1.47822e-06
2.50344e-07
2.6975e-07
5.33208e-07
1.47739e-06
2.50345e-07
5.33043e-07
1.47848e-06
2.50347e-07
2.69757e-07
5.33215e-07
1.47765e-06
2.50347e-07
1.83957e-06
8.83895e-06
8.83932e-06
1.83901e-06
1.8396e-06
8.83994e-06
8.8403e-06
1.83904e-06
5.33228e-07
2.69749e-07
1.47743e-06
2.50345e-07
1.47828e-06
2.50344e-07
5.33056e-07
5.33234e-07
2.69758e-07
1.4777e-06
2.50347e-07
1.47854e-06
2.50347e-07
5.33062e-07
3.3393e-06
3.33857e-06
3.04494e-07
3.33885e-06
3.33799e-06
2.08142e-05
2.08141e-05
2.08161e-05
2.08161e-05
3.04778e-07
3.33896e-06
3.338e-06
3.33944e-06
3.33864e-06
2.08138e-05
2.08139e-05
5.33062e-07
1.47866e-06
2.50346e-07
2.69733e-07
5.33231e-07
1.4778e-06
2.50347e-07
1.83888e-06
8.84031e-06
1.83937e-06
8.83986e-06
5.33055e-07
2.5035e-07
1.47863e-06
2.69761e-07
5.33225e-07
2.5035e-07
1.47777e-06
1.83947e-06
8.84018e-06
8.84059e-06
1.83896e-06
5.33251e-07
2.69733e-07
1.47785e-06
2.50347e-07
1.47872e-06
2.50346e-07
5.33082e-07
1.83944e-06
8.8398e-06
8.84019e-06
1.83893e-06
5.33245e-07
2.69762e-07
2.5035e-07
1.47782e-06
2.50349e-07
1.47869e-06
5.33074e-07
1.839e-06
8.8398e-06
1.83955e-06
8.83937e-06
5.33048e-07
2.50346e-07
1.47829e-06
2.69753e-07
5.33218e-07
2.50346e-07
1.47747e-06
1.83899e-06
8.8404e-06
1.83954e-06
8.83997e-06
5.33233e-07
2.69728e-07
1.47755e-06
2.50346e-07
1.47842e-06
2.50346e-07
5.33062e-07
1.83962e-06
8.83932e-06
8.83971e-06
1.83906e-06
5.33237e-07
2.69753e-07
2.50346e-07
1.47752e-06
2.50346e-07
1.47835e-06
5.33067e-07
1.83961e-06
8.8399e-06
8.84028e-06
1.83905e-06
3.33927e-06
3.33831e-06
3.04506e-07
3.33876e-06
3.33785e-06
2.08169e-05
2.08167e-05
2.08163e-05
2.08164e-05
3.04788e-07
3.33888e-06
3.33795e-06
3.33942e-06
3.33842e-06
2.08163e-05
2.08164e-05
5.33051e-07
2.50345e-07
1.47849e-06
2.69732e-07
5.33221e-07
2.50345e-07
1.47766e-06
1.83888e-06
8.84054e-06
1.83938e-06
8.84011e-06
1.83889e-06
8.84124e-06
1.83939e-06
8.84082e-06
5.33243e-07
2.69737e-07
2.50346e-07
1.47752e-06
2.50346e-07
1.47834e-06
5.33072e-07
5.33241e-07
2.69732e-07
2.50345e-07
1.47771e-06
2.50345e-07
1.47855e-06
5.3307e-07
1.83945e-06
8.84003e-06
8.84042e-06
1.83894e-06
1.83946e-06
8.84074e-06
8.84113e-06
1.83895e-06
2.0817e-05
2.08168e-05
2.08176e-05
2.08173e-05
3.04791e-07
3.33799e-06
3.33902e-06
3.33846e-06
3.33948e-06
2.08165e-05
2.08165e-05
2.0817e-05
2.08171e-05
2.08151e-05
2.08152e-05
2.08166e-05
2.08168e-05
3.33843e-06
3.33953e-06
3.04509e-07
3.33797e-06
3.33904e-06
2.08151e-05
2.0815e-05
2.08167e-05
2.08164e-05
3.04791e-07
3.33806e-06
3.3391e-06
3.33855e-06
3.33961e-06
1.83908e-06
8.84027e-06
1.83966e-06
8.83993e-06
5.33073e-07
1.47832e-06
2.50348e-07
2.69754e-07
5.33247e-07
1.47748e-06
2.50348e-07
5.33079e-07
1.47858e-06
2.5035e-07
2.69761e-07
5.33253e-07
1.47773e-06
2.5035e-07
1.83967e-06
8.83899e-06
8.8393e-06
1.83909e-06
1.8397e-06
8.83995e-06
8.84027e-06
1.83912e-06
5.33263e-07
2.69755e-07
1.47751e-06
2.50347e-07
1.47836e-06
2.50347e-07
5.33087e-07
5.33269e-07
2.69762e-07
1.47776e-06
2.50349e-07
1.47862e-06
2.50349e-07
5.33093e-07
3.33954e-06
3.33863e-06
3.04503e-07
3.33905e-06
3.33796e-06
2.08136e-05
2.08136e-05
2.08159e-05
2.08158e-05
3.04786e-07
3.33913e-06
3.33792e-06
3.33964e-06
3.33859e-06
2.08135e-05
2.08134e-05
5.33098e-07
1.47877e-06
2.50349e-07
2.69737e-07
5.33269e-07
1.47789e-06
2.50349e-07
1.83898e-06
8.84016e-06
1.8395e-06
8.8398e-06
5.33091e-07
2.50352e-07
1.47874e-06
2.69765e-07
5.33264e-07
2.50352e-07
1.47787e-06
1.83956e-06
8.84014e-06
8.8405e-06
1.83903e-06
5.33285e-07
2.69738e-07
1.47792e-06
2.50348e-07
1.4788e-06
2.50348e-07
5.33112e-07
1.83954e-06
8.83982e-06
8.84017e-06
1.83901e-06
5.3328e-07
2.69766e-07
2.50352e-07
1.4779e-06
2.50352e-07
1.47879e-06
5.33105e-07
1.8391e-06
8.83967e-06
1.83967e-06
8.83929e-06
5.33084e-07
2.50349e-07
1.4784e-06
2.69756e-07
5.33256e-07
2.50349e-07
1.47757e-06
1.8391e-06
8.84022e-06
1.83967e-06
8.83987e-06
5.33267e-07
2.69732e-07
1.4776e-06
2.50348e-07
1.47849e-06
2.50348e-07
5.33093e-07
1.83971e-06
8.83929e-06
8.83965e-06
1.83913e-06
5.33272e-07
2.69757e-07
2.50348e-07
1.4776e-06
2.50348e-07
1.47844e-06
5.33098e-07
1.83971e-06
8.83987e-06
8.8402e-06
1.83913e-06
3.33953e-06
3.33853e-06
3.04516e-07
3.33896e-06
3.33805e-06
2.08161e-05
2.08162e-05
2.08161e-05
2.0816e-05
3.04797e-07
3.33902e-06
3.33812e-06
3.33961e-06
3.33861e-06
2.08161e-05
2.0816e-05
5.33087e-07
2.50348e-07
1.4786e-06
2.69735e-07
5.3326e-07
2.50348e-07
1.47776e-06
1.83898e-06
8.84035e-06
1.8395e-06
8.84e-06
1.83899e-06
8.84107e-06
1.83951e-06
8.84071e-06
5.33277e-07
2.6974e-07
2.50348e-07
1.47759e-06
2.50347e-07
1.47843e-06
5.33102e-07
5.33276e-07
2.69736e-07
2.50347e-07
1.47779e-06
2.50347e-07
1.47864e-06
5.33101e-07
1.83954e-06
8.84e-06
8.84034e-06
1.83902e-06
1.83955e-06
8.84071e-06
8.84105e-06
1.83902e-06
2.08162e-05
2.08163e-05
2.08168e-05
2.08168e-05
3.04798e-07
3.33815e-06
3.33919e-06
3.33866e-06
3.33968e-06
2.08163e-05
2.08161e-05
2.08168e-05
2.08166e-05
2.08149e-05
2.08151e-05
2.08164e-05
2.08166e-05
3.33862e-06
3.33966e-06
3.04519e-07
3.33808e-06
3.33913e-06
2.08152e-05
2.08149e-05
2.08167e-05
2.08163e-05
3.04802e-07
3.33808e-06
3.33914e-06
3.33863e-06
3.33968e-06
1.83914e-06
8.84029e-06
1.83972e-06
8.83997e-06
5.33101e-07
1.47839e-06
2.5035e-07
2.69759e-07
5.33277e-07
1.47753e-06
2.5035e-07
5.33107e-07
1.47865e-06
2.50352e-07
2.69766e-07
5.33284e-07
1.47778e-06
2.50352e-07
1.83972e-06
8.83905e-06
8.83936e-06
1.83913e-06
1.83974e-06
8.84e-06
8.84031e-06
1.83915e-06
5.33291e-07
2.6976e-07
1.47754e-06
2.50349e-07
1.47841e-06
2.50349e-07
5.33112e-07
5.33297e-07
2.69765e-07
1.47779e-06
2.50351e-07
1.47866e-06
2.50351e-07
5.33118e-07
3.3397e-06
3.33856e-06
3.04512e-07
3.33916e-06
3.33793e-06
2.08133e-05
2.08135e-05
2.08162e-05
2.08159e-05
3.04795e-07
3.33914e-06
3.33798e-06
3.3397e-06
3.33857e-06
2.08136e-05
2.08134e-05
5.33125e-07
1.47883e-06
2.50351e-07
2.69742e-07
5.33299e-07
1.47794e-06
2.50351e-07
1.83903e-06
8.84019e-06
1.83957e-06
8.83984e-06
5.33119e-07
2.50354e-07
1.47881e-06
2.69769e-07
5.33293e-07
2.50354e-07
1.47792e-06
1.83961e-06
8.84017e-06
8.84051e-06
1.83907e-06
5.33311e-07
2.69742e-07
1.47795e-06
2.5035e-07
1.47885e-06
2.5035e-07
5.33135e-07
1.83959e-06
8.83985e-06
8.8402e-06
1.83905e-06
5.33306e-07
2.6977e-07
2.50354e-07
1.47794e-06
2.50354e-07
1.47884e-06
5.33129e-07
1.83915e-06
8.83965e-06
1.83974e-06
8.8393e-06
5.33112e-07
2.50351e-07
1.47847e-06
2.6976e-07
5.33286e-07
2.50351e-07
1.47762e-06
1.83915e-06
8.84021e-06
1.83974e-06
8.83988e-06
5.33295e-07
2.69737e-07
1.47763e-06
2.5035e-07
1.47852e-06
2.5035e-07
5.33116e-07
1.83976e-06
8.83933e-06
8.83966e-06
1.83917e-06
5.33299e-07
2.69761e-07
2.50351e-07
1.47763e-06
2.5035e-07
1.47849e-06
5.33122e-07
1.83975e-06
8.8399e-06
8.84022e-06
1.83916e-06
3.33966e-06
3.33867e-06
3.04525e-07
3.33905e-06
3.33815e-06
2.08159e-05
2.08161e-05
2.08161e-05
2.08159e-05
3.04807e-07
3.33907e-06
3.33816e-06
3.33969e-06
3.3387e-06
2.08161e-05
2.08159e-05
5.33114e-07
2.5035e-07
1.47867e-06
2.69739e-07
5.3329e-07
2.5035e-07
1.47781e-06
1.83904e-06
8.84034e-06
1.83957e-06
8.84001e-06
1.83904e-06
8.84105e-06
1.83958e-06
8.84072e-06
5.33303e-07
2.69745e-07
2.50349e-07
1.47762e-06
2.5035e-07
1.47848e-06
5.33124e-07
5.33303e-07
2.6974e-07
2.50349e-07
1.47782e-06
2.50349e-07
1.47869e-06
5.33124e-07
1.83959e-06
8.84003e-06
8.84035e-06
1.83905e-06
1.8396e-06
8.84074e-06
8.84106e-06
1.83906e-06
2.08161e-05
2.08162e-05
2.08166e-05
2.08168e-05
3.04809e-07
3.33819e-06
3.33923e-06
3.33874e-06
3.33977e-06
2.08163e-05
2.08161e-05
2.08168e-05
2.08166e-05
2.0815e-05
2.08153e-05
2.08164e-05
2.08168e-05
3.33862e-06
3.33969e-06
3.04526e-07
3.33809e-06
3.33915e-06
2.08155e-05
2.08152e-05
2.0817e-05
2.08166e-05
3.04809e-07
3.33809e-06
3.33918e-06
3.33863e-06
3.33971e-06
1.83916e-06
8.84034e-06
1.83976e-06
8.84004e-06
5.33121e-07
1.47842e-06
2.50352e-07
2.69765e-07
5.33301e-07
1.47756e-06
2.50352e-07
5.33127e-07
1.47867e-06
2.50354e-07
2.69768e-07
5.33307e-07
1.47779e-06
2.50354e-07
1.83974e-06
8.83912e-06
8.83943e-06
1.83913e-06
1.83976e-06
8.84009e-06
8.84038e-06
1.83916e-06
5.33309e-07
2.69766e-07
1.47756e-06
2.50352e-07
1.47843e-06
2.50351e-07
5.33127e-07
5.33315e-07
2.69768e-07
1.47779e-06
2.50353e-07
1.47867e-06
2.50353e-07
5.33133e-07
3.33968e-06
3.33862e-06
3.04519e-07
3.33913e-06
3.33803e-06
2.08135e-05
2.08138e-05
2.08167e-05
2.08162e-05
3.04802e-07
3.33914e-06
3.33806e-06
3.33969e-06
3.33867e-06
2.0814e-05
2.08137e-05
5.33143e-07
1.47886e-06
2.50352e-07
2.69746e-07
5.33321e-07
1.47796e-06
2.50353e-07
1.83905e-06
8.84021e-06
1.8396e-06
8.83987e-06
5.33137e-07
2.50356e-07
1.47885e-06
2.69774e-07
5.33316e-07
2.50356e-07
1.47795e-06
1.83962e-06
8.84025e-06
8.84057e-06
1.83906e-06
5.33328e-07
2.69747e-07
1.47797e-06
2.50352e-07
1.47887e-06
2.50352e-07
5.33148e-07
1.8396e-06
8.8399e-06
8.84023e-06
1.83904e-06
5.33323e-07
2.69774e-07
2.50356e-07
1.47795e-06
2.50355e-07
1.47886e-06
5.33142e-07
1.83917e-06
8.8397e-06
1.83977e-06
8.83938e-06
5.3313e-07
2.50353e-07
1.4785e-06
2.69765e-07
5.33308e-07
2.50353e-07
1.47764e-06
1.83917e-06
8.84025e-06
1.83977e-06
8.83993e-06
5.3331e-07
2.69741e-07
1.47765e-06
2.50351e-07
1.47854e-06
2.50352e-07
5.33129e-07
1.83977e-06
8.83943e-06
8.83975e-06
1.83917e-06
5.33316e-07
2.69765e-07
2.50352e-07
1.47765e-06
2.50352e-07
1.47851e-06
5.33135e-07
1.83977e-06
8.83998e-06
8.84028e-06
1.83916e-06
3.33971e-06
3.33871e-06
3.04533e-07
3.33909e-06
3.33817e-06
2.0816e-05
2.08163e-05
2.08164e-05
2.08161e-05
3.04814e-07
3.33912e-06
3.33819e-06
3.33973e-06
3.33872e-06
2.08164e-05
2.08161e-05
5.33131e-07
2.50351e-07
1.4787e-06
2.69743e-07
5.33311e-07
2.50351e-07
1.47783e-06
1.83905e-06
8.84038e-06
1.8396e-06
8.84007e-06
1.83906e-06
8.84108e-06
1.83961e-06
8.84077e-06
5.33317e-07
2.69749e-07
2.50351e-07
1.47764e-06
2.50351e-07
1.47849e-06
5.33134e-07
5.33318e-07
2.69744e-07
2.50351e-07
1.47784e-06
2.50351e-07
1.47871e-06
5.33135e-07
1.8396e-06
8.84011e-06
8.84041e-06
1.83904e-06
1.83961e-06
8.84082e-06
8.84112e-06
1.83905e-06
2.08161e-05
2.08164e-05
2.08167e-05
2.0817e-05
3.04816e-07
3.33822e-06
3.33927e-06
3.33876e-06
3.33979e-06
2.08166e-05
2.08163e-05
2.08171e-05
2.08168e-05
2.08153e-05
2.08158e-05
2.08168e-05
2.08173e-05
3.33863e-06
3.33973e-06
3.04535e-07
3.33809e-06
3.3392e-06
2.0816e-05
2.08156e-05
2.08175e-05
2.08171e-05
3.04818e-07
3.3381e-06
3.33922e-06
3.33864e-06
3.33976e-06
1.83915e-06
8.84043e-06
1.83975e-06
8.83996e-06
5.33131e-07
1.47844e-06
2.50354e-07
2.69769e-07
5.33315e-07
1.47757e-06
2.50354e-07
5.33137e-07
1.47867e-06
2.50355e-07
2.69771e-07
5.33321e-07
1.47783e-06
2.50355e-07
1.83972e-06
8.83915e-06
8.83949e-06
1.83911e-06
1.83975e-06
8.8399e-06
8.84032e-06
1.83913e-06
5.33318e-07
2.6977e-07
1.47757e-06
2.50353e-07
1.47844e-06
2.50353e-07
5.33135e-07
5.33325e-07
2.69771e-07
1.47789e-06
2.50353e-07
1.47876e-06
2.50354e-07
5.33142e-07
3.33969e-06
3.33869e-06
3.04527e-07
3.33922e-06
3.33808e-06
2.08139e-05
2.08143e-05
2.0816e-05
2.0816e-05
3.04809e-07
3.33929e-06
3.33807e-06
3.33985e-06
3.33871e-06
2.08146e-05
2.08142e-05
5.3315e-07
1.47887e-06
2.50355e-07
2.6975e-07
5.33332e-07
1.47798e-06
2.50355e-07
1.83903e-06
8.84027e-06
1.83958e-06
8.83994e-06
5.33144e-07
2.50358e-07
1.47886e-06
2.69778e-07
5.33327e-07
2.50358e-07
1.47796e-06
1.8396e-06
8.84036e-06
8.84067e-06
1.83904e-06
5.33335e-07
2.6975e-07
1.47798e-06
2.50354e-07
1.47888e-06
2.50354e-07
5.33154e-07
1.83958e-06
8.84e-06
8.84032e-06
1.83901e-06
5.3333e-07
2.69777e-07
2.50355e-07
1.47796e-06
2.50356e-07
1.47887e-06
5.33148e-07
1.83915e-06
8.83981e-06
1.83976e-06
8.83949e-06
5.33138e-07
2.50355e-07
1.47851e-06
2.69769e-07
5.3332e-07
2.50355e-07
1.47765e-06
1.83915e-06
8.84033e-06
1.83976e-06
8.84003e-06
5.33317e-07
2.69744e-07
1.47765e-06
2.50351e-07
1.47855e-06
2.50352e-07
5.33134e-07
1.83975e-06
8.83956e-06
8.83987e-06
1.83914e-06
5.33323e-07
2.69768e-07
2.50353e-07
1.47765e-06
2.50353e-07
1.47852e-06
5.33141e-07
1.83975e-06
8.84008e-06
8.84038e-06
1.83913e-06
3.33975e-06
3.33874e-06
3.04541e-07
3.33913e-06
3.33821e-06
2.08163e-05
2.08167e-05
2.08169e-05
2.08166e-05
3.04823e-07
3.33914e-06
3.33822e-06
3.33977e-06
3.33876e-06
2.08169e-05
2.08166e-05
5.33137e-07
2.50353e-07
1.47871e-06
2.69747e-07
5.33321e-07
2.50353e-07
1.47784e-06
1.83902e-06
8.84046e-06
1.83958e-06
8.84016e-06
1.83903e-06
8.84117e-06
1.83959e-06
8.84087e-06
5.33322e-07
2.69752e-07
2.50351e-07
1.47765e-06
2.50352e-07
1.4785e-06
5.33139e-07
5.33323e-07
2.69747e-07
2.50351e-07
1.47785e-06
2.50352e-07
1.47872e-06
5.33141e-07
1.83957e-06
8.84022e-06
8.84051e-06
1.83901e-06
1.83958e-06
8.84093e-06
8.84122e-06
1.83902e-06
2.08165e-05
2.08169e-05
2.0817e-05
2.08174e-05
3.04823e-07
3.33825e-06
3.3393e-06
3.3388e-06
3.33983e-06
2.08171e-05
2.08167e-05
2.08176e-05
2.08173e-05
2.08158e-05
2.08168e-05
2.08173e-05
2.08179e-05
3.33865e-06
3.33976e-06
3.04543e-07
3.33809e-06
3.33919e-06
2.0817e-05
2.08166e-05
2.08181e-05
2.08177e-05
3.04825e-07
3.3381e-06