/*--------------------------------*- C++ -*----------------------------------*\
| =========                 |                                                 |
| \\      /  F ield         | OpenFOAM: The Open Source CFD Toolbox           |
|  \\    /   O peration     | Version:  2206                                  |
|   \\  /    A nd           | Website:  www.openfoam.com                      |
|    \\/     M anipulation  |                                                 |
\*---------------------------------------------------------------------------*/
FoamFile
{
    version     2.0;
    format      ascii;
    arch        "LSB;label=32;scalar=64";
    class       volScalarField;
    location    "18.5";
    object      p;
}
// * * * * * * * * * * * * * * * * * * * * * * * * * * * * * * * * * * * * * //

dimensions      [0 2 -2 0 0 0 0];

internalField   nonuniform List<scalar> 
171728
(
0.00421544
0.00421577
0.00421577
0.00421882
0.00416004
0.00416051
0.00416051
0.00416352
0.00410929
0.00410931
0.00410931
0.00411209
0.0040577
0.0040575
0.0040575
0.00405995
0.00401083
0.00401074
0.00401074
0.00401335
0.00396608
0.00396604
0.00396604
0.00396866
0.00392152
0.00392149
0.00392149
0.0039241
0.00387698
0.00387695
0.00387695
0.00387956
0.00383245
0.00383242
0.00383242
0.00383503
0.00378791
0.00378788
0.00378788
0.00379049
0.00374337
0.00374334
0.00374334
0.00374595
0.00369882
0.00369879
0.00369879
0.00370141
0.00365428
0.00365425
0.00365425
0.00365686
0.00360973
0.0036097
0.0036097
0.00361232
0.0035652
0.00356517
0.00356517
0.00356778
0.00352066
0.00352063
0.00352063
0.00352324
0.00347611
0.00347608
0.00347608
0.00347869
0.00343157
0.00343154
0.00343154
0.00343415
0.00338703
0.003387
0.003387
0.00338961
0.00334249
0.00334246
0.00334246
0.00334507
0.00329795
0.00329792
0.00329792
0.00330053
0.00325341
0.00325338
0.00325338
0.00325599
0.00320887
0.00320884
0.00320884
0.00321145
0.00316432
0.00316429
0.00316429
0.00316691
0.00311978
0.00311975
0.00311975
0.00312236
0.00307523
0.0030752
0.0030752
0.00307782
0.00303069
0.00303066
0.00303066
0.00303327
0.00298615
0.00298612
0.00298612
0.00298873
0.0029416
0.00294157
0.00294157
0.00294419
0.00289706
0.00289703
0.00289703
0.00289964
0.00285252
0.00285249
0.00285249
0.0028551
0.00280798
0.00280795
0.00280795
0.00281057
0.00276345
0.00276342
0.00276342
0.00276603
0.00271891
0.00271888
0.00271888
0.00272149
0.00267436
0.00267433
0.00267433
0.00267694
0.00262982
0.00262979
0.00262979
0.0026324
0.00258528
0.00258525
0.00258525
0.00258786
0.00254073
0.00254071
0.00254071
0.00254332
0.00249619
0.00249616
0.00249616
0.00249878
0.00245165
0.00245162
0.00245162
0.00245424
0.00240712
0.00240709
0.00240709
0.0024097
0.00236258
0.00236255
0.00236255
0.00236516
0.00231804
0.00231801
0.00231801
0.00232062
0.0022735
0.00227347
0.00227347
0.00227608
0.00222896
0.00222893
0.00222893
0.00223154
0.00218442
0.00218439
0.00218439
0.002187
0.00213988
0.00213985
0.00213985
0.00214246
0.00209534
0.00209531
0.00209531
0.00209793
0.0020508
0.00205077
0.00205077
0.00205339
0.00200627
0.00200624
0.00200624
0.00200885
0.00196174
0.00196171
0.00196171
0.00196432
0.00191719
0.00191716
0.00191716
0.00191978
0.00187265
0.00187262
0.00187262
0.00187523
0.0018281
0.00182807
0.00182807
0.00183069
0.00178356
0.00178353
0.00178353
0.00178615
0.00173902
0.00173899
0.00173899
0.00174161
0.00169448
0.00169445
0.00169445
0.00169707
0.00164994
0.00164991
0.00164991
0.00165252
0.0016054
0.00160537
0.00160537
0.00160798
0.00156085
0.00156082
0.00156082
0.00156344
0.00151631
0.00151628
0.00151628
0.0015189
0.00147177
0.00147174
0.00147174
0.00147436
0.00142723
0.0014272
0.0014272
0.00142981
0.00138269
0.00138266
0.00138266
0.00138527
0.00133814
0.00133812
0.00133812
0.00134073
0.0012936
0.00129357
0.00129357
0.00129619
0.00124906
0.00124904
0.00124904
0.00125165
0.00120453
0.0012045
0.0012045
0.00120712
0.00115999
0.00115996
0.00115996
0.00116258
0.00111544
0.00111541
0.00111541
0.00111803
0.0010709
0.00107087
0.00107087
0.00107348
0.00102636
0.00102633
0.00102633
0.00102894
0.000981817
0.000981787
0.000981787
0.000984401
0.000937275
0.000937245
0.000937245
0.000939859
0.000892733
0.000892704
0.000892704
0.000895318
0.000848192
0.000848162
0.000848162
0.000850776
0.000803651
0.000803621
0.000803621
0.000806235
0.00075911
0.00075908
0.00075908
0.000761694
0.000714569
0.000714539
0.000714539
0.000717153
0.000670028
0.000669998
0.000669998
0.000672612
0.000625486
0.000625457
0.000625457
0.000628071
0.000580945
0.000580915
0.000580915
0.000583529
0.000536403
0.000536373
0.000536374
0.000538988
0.000491863
0.000491834
0.000491833
0.000494448
0.000447327
0.000447298
0.000447297
0.000449911
0.000402791
0.000402761
0.000402761
0.000405376
0.000358243
0.000358212
0.000358214
0.000360826
0.000313695
0.000313666
0.000313665
0.00031628
0.000269152
0.000269122
0.000269122
0.000271736
0.000224608
0.00022458
0.00022458
0.000227193
0.000180056
0.000180029
0.000180029
0.000182636
0.000135516
0.000135477
0.000135477
0.000138076
9.09538e-05
9.09049e-05
9.09039e-05
9.34638e-05
4.70869e-05
4.65332e-05
4.65302e-05
4.89567e-05
1.05316e-05
1.08782e-05
1.08764e-05
1.04683e-05
0.00422885
0.00422908
0.00422908
0.00422885
0.00422908
0.00422908
0.00422985
0.00422985
0.00422985
0.00422985
0.00422908
0.00422908
0.00422885
0.00422908
0.00422908
0.00422885
0.00421882
0.00417008
0.00421576
0.00421577
0.00417234
0.00417234
0.00421882
0.00417008
0.00421577
0.00421577
0.00417233
0.00417234
0.00421577
0.00417233
0.00417234
0.00421882
0.00417008
0.00421577
0.00417233
0.00417233
0.00417008
0.00416352
0.00411904
0.00416051
0.00416051
0.00412246
0.00412246
0.00416352
0.00411904
0.00416051
0.00416051
0.00412246
0.00412246
0.00416051
0.00412246
0.00412246
0.00416352
0.00411904
0.00416051
0.00412246
0.00412246
0.00411904
0.00411209
0.00406668
0.00410931
0.00410931
0.00407011
0.00407011
0.00411209
0.00406668
0.00410931
0.00410931
0.00407011
0.00407011
0.00410931
0.00407011
0.00407011
0.00411209
0.00406668
0.00410931
0.00407011
0.00407011
0.00406668
0.00405995
0.00401927
0.0040575
0.0040575
0.00402202
0.00402202
0.00405995
0.00401927
0.0040575
0.0040575
0.00402202
0.00402202
0.0040575
0.00402202
0.00402202
0.00405995
0.00401927
0.0040575
0.00402201
0.00402202
0.00401927
0.00401335
0.00397458
0.00401074
0.00401074
0.00397719
0.00397719
0.00401335
0.00397458
0.00401074
0.00401074
0.00397719
0.00397719
0.00401074
0.00397719
0.00397719
0.00401335
0.00397458
0.00401074
0.00397719
0.00397719
0.00397458
0.00396866
0.00393001
0.00396604
0.00396604
0.00393262
0.00393262
0.00396866
0.00393001
0.00396604
0.00396604
0.00393262
0.00393262
0.00396604
0.00393262
0.00393262
0.00396866
0.00393001
0.00396604
0.00393262
0.00393262
0.00393001
0.0039241
0.00388547
0.00392149
0.00392148
0.00388808
0.00388808
0.0039241
0.00388547
0.00392149
0.00392149
0.00388808
0.00388808
0.00392149
0.00388808
0.00388808
0.0039241
0.00388547
0.00392149
0.00388808
0.00388808
0.00388547
0.00387956
0.00384094
0.00387695
0.00387695
0.00384355
0.00384355
0.00387956
0.00384094
0.00387695
0.00387695
0.00384355
0.00384355
0.00387695
0.00384355
0.00384355
0.00387956
0.00384094
0.00387695
0.00384355
0.00384355
0.00384094
0.00383503
0.00379641
0.00383242
0.00383242
0.00379901
0.00379901
0.00383503
0.00379641
0.00383242
0.00383242
0.00379901
0.00379901
0.00383242
0.00379901
0.00379901
0.00383503
0.00379641
0.00383242
0.00379901
0.00379901
0.00379641
0.00379049
0.00375186
0.00378788
0.00378788
0.00375447
0.00375447
0.00379049
0.00375186
0.00378788
0.00378788
0.00375447
0.00375447
0.00378788
0.00375447
0.00375447
0.00379049
0.00375186
0.00378788
0.00375447
0.00375447
0.00375186
0.00374595
0.00370732
0.00374334
0.00374334
0.00370993
0.00370993
0.00374595
0.00370732
0.00374334
0.00374334
0.00370993
0.00370993
0.00374334
0.00370993
0.00370993
0.00374595
0.00370732
0.00374334
0.00370993
0.00370993
0.00370732
0.00370141
0.00366278
0.00369879
0.00369879
0.00366539
0.00366539
0.00370141
0.00366278
0.00369879
0.00369879
0.00366539
0.00366539
0.00369879
0.00366539
0.00366539
0.00370141
0.00366278
0.00369879
0.00366539
0.00366539
0.00366278
0.00365686
0.00361823
0.00365425
0.00365425
0.00362084
0.00362084
0.00365686
0.00361823
0.00365425
0.00365425
0.00362084
0.00362084
0.00365425
0.00362084
0.00362084
0.00365686
0.00361823
0.00365425
0.00362084
0.00362084
0.00361823
0.00361232
0.00357369
0.0036097
0.0036097
0.0035763
0.0035763
0.00361232
0.00357369
0.0036097
0.0036097
0.0035763
0.0035763
0.0036097
0.0035763
0.0035763
0.00361232
0.00357369
0.0036097
0.0035763
0.0035763
0.00357369
0.00356778
0.00352916
0.00356517
0.00356517
0.00353176
0.00353176
0.00356778
0.00352916
0.00356517
0.00356517
0.00353176
0.00353176
0.00356517
0.00353176
0.00353176
0.00356778
0.00352916
0.00356517
0.00353176
0.00353176
0.00352916
0.00352324
0.00348461
0.00352063
0.00352063
0.00348722
0.00348722
0.00352324
0.00348461
0.00352063
0.00352063
0.00348722
0.00348722
0.00352063
0.00348722
0.00348722
0.00352324
0.00348461
0.00352063
0.00348722
0.00348722
0.00348461
0.00347869
0.00344006
0.00347608
0.00347608
0.00344267
0.00344267
0.00347869
0.00344007
0.00347608
0.00347608
0.00344267
0.00344267
0.00347608
0.00344267
0.00344267
0.00347869
0.00344006
0.00347608
0.00344267
0.00344267
0.00344006
0.00343415
0.00339553
0.00343154
0.00343154
0.00339813
0.00339813
0.00343415
0.00339553
0.00343154
0.00343154
0.00339813
0.00339813
0.00343154
0.00339813
0.00339813
0.00343415
0.00339553
0.00343154
0.00339813
0.00339813
0.00339553
0.00338961
0.00335098
0.003387
0.003387
0.00335359
0.00335359
0.00338961
0.00335098
0.003387
0.003387
0.00335359
0.00335359
0.003387
0.00335359
0.00335359
0.00338961
0.00335099
0.003387
0.00335359
0.00335359
0.00335099
0.00334507
0.00330645
0.00334246
0.00334246
0.00330905
0.00330905
0.00334507
0.00330645
0.00334246
0.00334246
0.00330905
0.00330905
0.00334246
0.00330905
0.00330905
0.00334507
0.00330645
0.00334246
0.00330905
0.00330905
0.00330645
0.00330053
0.0032619
0.00329792
0.00329792
0.00326451
0.00326451
0.00330053
0.0032619
0.00329792
0.00329792
0.00326451
0.00326451
0.00329792
0.00326451
0.00326451
0.00330053
0.0032619
0.00329792
0.00326451
0.00326451
0.0032619
0.00325599
0.00321736
0.00325338
0.00325338
0.00321997
0.00321997
0.00325599
0.00321736
0.00325338
0.00325338
0.00321997
0.00321997
0.00325338
0.00321997
0.00321997
0.00325599
0.00321736
0.00325338
0.00321997
0.00321997
0.00321736
0.00321145
0.00317282
0.00320884
0.00320884
0.00317543
0.00317543
0.00321145
0.00317282
0.00320884
0.00320884
0.00317543
0.00317543
0.00320884
0.00317543
0.00317543
0.00321145
0.00317282
0.00320884
0.00317543
0.00317543
0.00317282
0.00316691
0.00312828
0.00316429
0.00316429
0.00313088
0.00313088
0.00316691
0.00312828
0.00316429
0.00316429
0.00313088
0.00313088
0.00316429
0.00313088
0.00313088
0.00316691
0.00312828
0.00316429
0.00313088
0.00313088
0.00312828
0.00312236
0.00308373
0.00311975
0.00311975
0.00308634
0.00308634
0.00312236
0.00308373
0.00311975
0.00311975
0.00308634
0.00308634
0.00311975
0.00308634
0.00308634
0.00312236
0.00308373
0.00311975
0.00308634
0.00308634
0.00308373
0.00307782
0.00303919
0.0030752
0.0030752
0.0030418
0.0030418
0.00307782
0.00303919
0.0030752
0.0030752
0.0030418
0.0030418
0.0030752
0.0030418
0.0030418
0.00307782
0.00303919
0.0030752
0.0030418
0.0030418
0.00303919
0.00303327
0.00299464
0.00303066
0.00303066
0.00299725
0.00299725
0.00303327
0.00299464
0.00303066
0.00303066
0.00299725
0.00299725
0.00303066
0.00299725
0.00299725
0.00303327
0.00299464
0.00303066
0.00299725
0.00299725
0.00299464
0.00298873
0.0029501
0.00298612
0.00298612
0.00295271
0.00295271
0.00298873
0.0029501
0.00298612
0.00298612
0.00295271
0.00295271
0.00298612
0.00295271
0.00295271
0.00298873
0.0029501
0.00298612
0.00295271
0.00295271
0.0029501
0.00294419
0.00290556
0.00294157
0.00294157
0.00290817
0.00290817
0.00294419
0.00290556
0.00294157
0.00294157
0.00290817
0.00290817
0.00294157
0.00290817
0.00290817
0.00294419
0.00290556
0.00294157
0.00290817
0.00290817
0.00290556
0.00289964
0.00286102
0.00289703
0.00289703
0.00286362
0.00286362
0.00289964
0.00286102
0.00289703
0.00289703
0.00286362
0.00286362
0.00289703
0.00286362
0.00286362
0.00289964
0.00286102
0.00289703
0.00286362
0.00286362
0.00286102
0.0028551
0.00281648
0.00285249
0.00285249
0.00281909
0.00281909
0.0028551
0.00281648
0.00285249
0.00285249
0.00281909
0.00281909
0.00285249
0.00281909
0.00281909
0.0028551
0.00281648
0.00285249
0.00281909
0.00281909
0.00281648
0.00281057
0.00277194
0.00280795
0.00280795
0.00277455
0.00277455
0.00281057
0.00277194
0.00280795
0.00280795
0.00277455
0.00277455
0.00280795
0.00277455
0.00277455
0.00281057
0.00277194
0.00280795
0.00277455
0.00277455
0.00277194
0.00276603
0.00272741
0.00276342
0.00276342
0.00273001
0.00273001
0.00276603
0.00272741
0.00276342
0.00276342
0.00273001
0.00273001
0.00276342
0.00273001
0.00273001
0.00276603
0.00272741
0.00276342
0.00273001
0.00273001
0.00272741
0.00272149
0.00268285
0.00271888
0.00271888
0.00268546
0.00268546
0.00272149
0.00268285
0.00271888
0.00271888
0.00268546
0.00268546
0.00271888
0.00268546
0.00268546
0.00272149
0.00268285
0.00271888
0.00268546
0.00268546
0.00268285
0.00267694
0.00263831
0.00267433
0.00267433
0.00264092
0.00264092
0.00267694
0.00263831
0.00267433
0.00267433
0.00264092
0.00264092
0.00267433
0.00264092
0.00264092
0.00267694
0.00263831
0.00267433
0.00264092
0.00264092
0.00263831
0.0026324
0.00259377
0.00262979
0.00262979
0.00259638
0.00259638
0.0026324
0.00259377
0.00262979
0.00262979
0.00259638
0.00259638
0.00262979
0.00259638
0.00259638
0.0026324
0.00259377
0.00262979
0.00259638
0.00259638
0.00259377
0.00258786
0.00254923
0.00258525
0.00258525
0.00255184
0.00255184
0.00258786
0.00254923
0.00258525
0.00258525
0.00255184
0.00255184
0.00258525
0.00255184
0.00255184
0.00258786
0.00254923
0.00258525
0.00255184
0.00255184
0.00254923
0.00254332
0.00250469
0.00254071
0.00254071
0.0025073
0.0025073
0.00254332
0.00250469
0.00254071
0.00254071
0.0025073
0.0025073
0.00254071
0.0025073
0.0025073
0.00254332
0.00250469
0.00254071
0.0025073
0.0025073
0.00250469
0.00249878
0.00246015
0.00249616
0.00249616
0.00246276
0.00246276
0.00249878
0.00246015
0.00249616
0.00249616
0.00246276
0.00246276
0.00249616
0.00246276
0.00246276
0.00249878
0.00246015
0.00249616
0.00246276
0.00246276
0.00246015
0.00245424
0.00241561
0.00245162
0.00245162
0.00241822
0.00241822
0.00245424
0.00241561
0.00245162
0.00245162
0.00241822
0.00241822
0.00245162
0.00241822
0.00241822
0.00245424
0.00241561
0.00245163
0.00241822
0.00241822
0.00241561
0.0024097
0.00237107
0.00240709
0.00240709
0.00237368
0.00237368
0.0024097
0.00237107
0.00240709
0.00240709
0.00237368
0.00237368
0.00240709
0.00237368
0.00237368
0.0024097
0.00237107
0.00240709
0.00237368
0.00237368
0.00237107
0.00236516
0.00232654
0.00236255
0.00236255
0.00232914
0.00232914
0.00236516
0.00232653
0.00236255
0.00236255
0.00232914
0.00232914
0.00236255
0.00232914
0.00232914
0.00236516
0.00232654
0.00236255
0.00232914
0.00232914
0.00232654
0.00232062
0.002282
0.00231801
0.00231801
0.0022846
0.0022846
0.00232062
0.002282
0.00231801
0.00231801
0.0022846
0.0022846
0.00231801
0.0022846
0.0022846
0.00232062
0.002282
0.00231801
0.0022846
0.0022846
0.002282
0.00227608
0.00223746
0.00227347
0.00227347
0.00224007
0.00224007
0.00227608
0.00223746
0.00227347
0.00227347
0.00224007
0.00224007
0.00227347
0.00224007
0.00224007
0.00227608
0.00223746
0.00227347
0.00224007
0.00224007
0.00223746
0.00223154
0.00219292
0.00222893
0.00222893
0.00219553
0.00219553
0.00223154
0.00219292
0.00222893
0.00222893
0.00219553
0.00219553
0.00222893
0.00219553
0.00219553
0.00223154
0.00219292
0.00222893
0.00219553
0.00219553
0.00219292
0.002187
0.00214838
0.00218439
0.00218439
0.00215099
0.00215099
0.002187
0.00214838
0.00218439
0.00218439
0.00215099
0.00215099
0.00218439
0.00215099
0.00215099
0.002187
0.00214838
0.00218439
0.00215099
0.00215099
0.00214838
0.00214246
0.00210384
0.00213985
0.00213985
0.00210645
0.00210645
0.00214246
0.00210384
0.00213985
0.00213985
0.00210645
0.00210645
0.00213985
0.00210645
0.00210645
0.00214246
0.00210384
0.00213985
0.00210645
0.00210645
0.00210384
0.00209793
0.0020593
0.00209531
0.00209531
0.00206191
0.00206191
0.00209793
0.0020593
0.00209531
0.00209531
0.00206191
0.00206191
0.00209531
0.00206191
0.00206191
0.00209793
0.0020593
0.00209531
0.00206191
0.00206191
0.0020593
0.00205339
0.00201477
0.00205077
0.00205077
0.00201737
0.00201737
0.00205339
0.00201477
0.00205077
0.00205077
0.00201737
0.00201737
0.00205077
0.00201737
0.00201737
0.00205339
0.00201477
0.00205077
0.00201737
0.00201737
0.00201477
0.00200885
0.00197023
0.00200624
0.00200624
0.00197284
0.00197284
0.00200885
0.00197023
0.00200624
0.00200624
0.00197284
0.00197284
0.00200624
0.00197284
0.00197284
0.00200885
0.00197023
0.00200624
0.00197284
0.00197284
0.00197023
0.00196432
0.00192569
0.00196171
0.00196171
0.0019283
0.0019283
0.00196432
0.00192569
0.00196171
0.00196171
0.0019283
0.0019283
0.00196171
0.0019283
0.0019283
0.00196432
0.00192569
0.00196171
0.0019283
0.0019283
0.00192569
0.00191978
0.00188114
0.00191716
0.00191716
0.00188375
0.00188375
0.00191978
0.00188114
0.00191716
0.00191716
0.00188375
0.00188375
0.00191716
0.00188375
0.00188375
0.00191978
0.00188114
0.00191716
0.00188375
0.00188375
0.00188114
0.00187523
0.0018366
0.00187262
0.00187262
0.00183921
0.00183921
0.00187523
0.0018366
0.00187262
0.00187262
0.00183921
0.00183921
0.00187262
0.00183921
0.00183921
0.00187523
0.0018366
0.00187262
0.00183921
0.00183921
0.0018366
0.00183069
0.00179206
0.00182807
0.00182807
0.00179467
0.00179467
0.00183069
0.00179206
0.00182807
0.00182807
0.00179467
0.00179467
0.00182807
0.00179467
0.00179467
0.00183069
0.00179206
0.00182807
0.00179467
0.00179467
0.00179206
0.00178615
0.00174752
0.00178353
0.00178353
0.00175013
0.00175013
0.00178615
0.00174752
0.00178353
0.00178353
0.00175013
0.00175013
0.00178353
0.00175013
0.00175013
0.00178615
0.00174752
0.00178353
0.00175013
0.00175013
0.00174752
0.00174161
0.00170298
0.00173899
0.00173899
0.00170559
0.00170559
0.00174161
0.00170298
0.00173899
0.00173899
0.00170559
0.00170559
0.00173899
0.00170559
0.00170559
0.00174161
0.00170298
0.00173899
0.00170559
0.00170559
0.00170298
0.00169706
0.00165844
0.00169445
0.00169445
0.00166104
0.00166104
0.00169706
0.00165844
0.00169445
0.00169445
0.00166104
0.00166104
0.00169445
0.00166104
0.00166104
0.00169706
0.00165844
0.00169445
0.00166104
0.00166104
0.00165844
0.00165252
0.00161389
0.00164991
0.00164991
0.0016165
0.0016165
0.00165252
0.00161389
0.00164991
0.00164991
0.0016165
0.0016165
0.00164991
0.0016165
0.0016165
0.00165252
0.00161389
0.00164991
0.0016165
0.0016165
0.00161389
0.00160798
0.00156935
0.00160537
0.00160537
0.00157196
0.00157196
0.00160798
0.00156935
0.00160537
0.00160537
0.00157196
0.00157196
0.00160537
0.00157196
0.00157196
0.00160798
0.00156935
0.00160537
0.00157196
0.00157196
0.00156935
0.00156344
0.00152481
0.00156082
0.00156082
0.00152742
0.00152742
0.00156344
0.00152481
0.00156082
0.00156082
0.00152742
0.00152742
0.00156082
0.00152742
0.00152742
0.00156344
0.00152481
0.00156082
0.00152742
0.00152742
0.00152481
0.0015189
0.00148027
0.00151628
0.00151628
0.00148288
0.00148288
0.0015189
0.00148027
0.00151628
0.00151628
0.00148288
0.00148288
0.00151628
0.00148288
0.00148288
0.0015189
0.00148027
0.00151628
0.00148288
0.00148288
0.00148027
0.00147436
0.00143573
0.00147174
0.00147174
0.00143834
0.00143834
0.00147436
0.00143573
0.00147174
0.00147174
0.00143834
0.00143834
0.00147174
0.00143834
0.00143834
0.00147436
0.00143573
0.00147174
0.00143834
0.00143834
0.00143573
0.00142981
0.00139118
0.0014272
0.0014272
0.00139379
0.00139379
0.00142981
0.00139118
0.0014272
0.0014272
0.00139379
0.00139379
0.0014272
0.00139379
0.00139379
0.00142981
0.00139118
0.0014272
0.00139379
0.00139379
0.00139118
0.00138527
0.00134664
0.00138266
0.00138266
0.00134925
0.00134925
0.00138527
0.00134664
0.00138266
0.00138266
0.00134925
0.00134925
0.00138266
0.00134925
0.00134925
0.00138527
0.00134664
0.00138266
0.00134925
0.00134925
0.00134664
0.00134073
0.0013021
0.00133812
0.00133812
0.00130471
0.00130471
0.00134073
0.0013021
0.00133812
0.00133812
0.00130471
0.00130471
0.00133812
0.00130471
0.00130471
0.00134073
0.0013021
0.00133812
0.00130471
0.00130471
0.0013021
0.00129619
0.00125756
0.00129357
0.00129357
0.00126017
0.00126017
0.00129619
0.00125756
0.00129357
0.00129357
0.00126017
0.00126017
0.00129357
0.00126017
0.00126017
0.00129619
0.00125756
0.00129357
0.00126017
0.00126017
0.00125756
0.00125165
0.00121303
0.00124904
0.00124903
0.00121563
0.00121563
0.00125165
0.00121303
0.00124904
0.00124904
0.00121563
0.00121563
0.00124904
0.00121563
0.00121563
0.00125165
0.00121303
0.00124904
0.00121563
0.00121563
0.00121303
0.00120711
0.00116849
0.0012045
0.0012045
0.0011711
0.0011711
0.00120711
0.00116849
0.0012045
0.0012045
0.0011711
0.0011711
0.0012045
0.0011711
0.0011711
0.00120712
0.00116849
0.0012045
0.0011711
0.0011711
0.00116849
0.00116258
0.00112394
0.00115996
0.00115996
0.00112655
0.00112655
0.00116258
0.00112394
0.00115996
0.00115996
0.00112655
0.00112655
0.00115996
0.00112655
0.00112655
0.00116258
0.00112394
0.00115996
0.00112655
0.00112655
0.00112394
0.00111803
0.0010794
0.00111541
0.00111541
0.001082
0.001082
0.00111803
0.0010794
0.00111541
0.00111541
0.001082
0.00108201
0.00111541
0.00108201
0.00108201
0.00111803
0.0010794
0.00111541
0.00108201
0.00108201
0.0010794
0.00107348
0.00103486
0.00107087
0.00107087
0.00103746
0.00103746
0.00107348
0.00103486
0.00107087
0.00107087
0.00103746
0.00103746
0.00107087
0.00103746
0.00103746
0.00107348
0.00103486
0.00107087
0.00103746
0.00103746
0.00103486
0.00102894
0.000990314
0.00102633
0.00102633
0.000992923
0.000992922
0.00102894
0.000990314
0.00102633
0.00102633
0.000992922
0.000992923
0.00102633
0.000992923
0.000992923
0.00102894
0.000990314
0.00102633
0.000992923
0.000992923
0.000990314
0.000984401
0.000945772
0.000981787
0.000981787
0.000948381
0.000948381
0.000984401
0.000945772
0.000981787
0.000981787
0.000948381
0.000948381
0.000981787
0.000948381
0.000948381
0.000984401
0.000945772
0.000981787
0.000948381
0.000948381
0.000945772
0.000939859
0.00090123
0.000937245
0.000937245
0.000903839
0.000903839
0.000939859
0.00090123
0.000937245
0.000937245
0.000903839
0.000903839
0.000937246
0.000903839
0.000903839
0.000939859
0.00090123
0.000937245
0.000903839
0.000903839
0.00090123
0.000895317
0.000856689
0.000892704
0.000892704
0.000859298
0.000859297
0.000895317
0.000856689
0.000892703
0.000892704
0.000859297
0.000859297
0.000892704
0.000859297
0.000859298
0.000895317
0.000856689
0.000892704
0.000859297
0.000859297
0.000856689
0.000850776
0.000812147
0.000848162
0.000848162
0.000814756
0.000814756
0.000850776
0.000812148
0.000848162
0.000848162
0.000814756
0.000814756
0.000848162
0.000814756
0.000814756
0.000850776
0.000812147
0.000848162
0.000814756
0.000814756
0.000812147
0.000806235
0.000767606
0.000803621
0.000803621
0.000770215
0.000770215
0.000806235
0.000767607
0.000803621
0.000803621
0.000770215
0.000770215
0.000803621
0.000770215
0.000770216
0.000806235
0.000767606
0.000803621
0.000770215
0.000770215
0.000767607
0.000761694
0.000723066
0.00075908
0.00075908
0.000725674
0.000725674
0.000761694
0.000723066
0.00075908
0.00075908
0.000725674
0.000725674
0.00075908
0.000725674
0.000725675
0.000761694
0.000723066
0.00075908
0.000725674
0.000725674
0.000723066
0.000717153
0.000678525
0.000714539
0.000714539
0.000681133
0.000681133
0.000717153
0.000678525
0.000714539
0.000714539
0.000681133
0.000681133
0.000714539
0.000681133
0.000681134
0.000717153
0.000678525
0.000714539
0.000681133
0.000681133
0.000678525
0.000672612
0.000633983
0.000669998
0.000669998
0.000636592
0.000636592
0.000672612
0.000633983
0.000669998
0.000669998
0.000636592
0.000636592
0.000669998
0.000636592
0.000636592
0.000672612
0.000633983
0.000669998
0.000636592
0.000636592
0.000633983
0.000628071
0.000589442
0.000625457
0.000625457
0.000592051
0.00059205
0.00062807
0.000589442
0.000625457
0.000625457
0.00059205
0.000592051
0.000625457
0.000592051
0.000592051
0.000628071
0.000589442
0.000625457
0.000592051
0.000592051
0.000589442
0.000583529
0.0005449
0.000580915
0.000580915
0.000547509
0.000547509
0.000583529
0.0005449
0.000580915
0.000580915
0.000547509
0.000547509
0.000580915
0.000547509
0.000547509
0.000583529
0.0005449
0.000580915
0.000547509
0.000547509
0.0005449
0.000538988
0.000500359
0.000536374
0.000536373
0.000502968
0.000502968
0.000538987
0.00050036
0.000536374
0.000536374
0.000502967
0.000502968
0.000536374
0.000502968
0.000502968
0.000538988
0.000500359
0.000536374
0.000502968
0.000502968
0.00050036
0.000494447
0.000455823
0.000491834
0.000491834
0.000458432
0.000458432
0.000494448
0.000455824
0.000491833
0.000491833
0.000458432
0.000458432
0.000491834
0.000458432
0.000458432
0.000494447
0.000455823
0.000491834
0.000458432
0.000458432
0.000455823
0.000449911
0.000411288
0.000447297
0.000447297
0.000413896
0.000413896
0.000449912
0.000411289
0.000447297
0.000447298
0.000413896
0.000413896
0.000447297
0.000413896
0.000413897
0.000449911
0.000411287
0.000447297
0.000413896
0.000413896
0.000411288
0.000405375
0.000366741
0.000402761
0.000402761
0.000369351
0.00036935
0.000405376
0.000366739
0.000402761
0.000402761
0.000369352
0.000369353
0.000402761
0.00036935
0.000369351
0.000405375
0.000366743
0.000402761
0.000369352
0.000369351
0.00036674
0.000360827
0.000322192
0.000358213
0.000358212
0.000324802
0.000324802
0.000360825
0.000322193
0.000358214
0.000358215
0.000324801
0.000324801
0.000358213
0.000324802
0.000324802
0.000360828
0.000322192
0.000358213
0.000324802
0.000324802
0.000322193
0.000316279
0.000277649
0.000313666
0.000313666
0.000280258
0.000280258
0.00031628
0.000277649
0.000313665
0.000313665
0.000280258
0.000280258
0.000313666
0.000280258
0.000280258
0.000316279
0.000277649
0.000313666
0.000280258
0.000280258
0.000277649
0.000271736
0.000233106
0.000269122
0.000269122
0.000235715
0.000235715
0.000271736
0.000233106
0.000269122
0.000269122
0.000235715
0.000235715
0.000269122
0.000235715
0.000235715
0.000271736
0.000233106
0.000269122
0.000235715
0.000235715
0.000233106
0.000227193
0.000188559
0.00022458
0.00022458
0.00019117
0.00019117
0.000227193
0.000188559
0.00022458
0.00022458
0.00019117
0.00019117
0.00022458
0.00019117
0.00019117
0.000227193
0.000188558
0.00022458
0.00019117
0.00019117
0.000188559
0.000182636
0.00014401
0.000180029
0.000180029
0.000146598
0.000146598
0.000182635
0.000144009
0.000180029
0.000180029
0.000146597
0.000146597
0.000180029
0.000146597
0.000146598
0.000182635
0.000144009
0.000180029
0.000146597
0.000146598
0.000144009
0.000138076
9.94698e-05
0.000135478
0.000135477
0.000102076
0.000102076
0.000138075
9.94705e-05
0.000135477
0.000135477
0.000102075
0.000102075
0.000135477
0.000102075
0.000102075
0.000138075
9.94688e-05
0.000135477
0.000102074
0.000102075
9.94693e-05
9.34648e-05
5.49557e-05
9.09061e-05
9.0906e-05
5.75604e-05
5.75612e-05
9.34644e-05
5.49571e-05
9.09045e-05
9.0904e-05
5.75578e-05
5.75575e-05
9.09052e-05
5.75595e-05
5.75575e-05
9.34639e-05
5.49534e-05
9.09042e-05
5.7557e-05
5.75562e-05
5.49529e-05
4.89604e-05
1.43779e-05
4.6535e-05
4.65351e-05
1.66441e-05
1.66434e-05
4.89609e-05
1.43776e-05
4.65326e-05
4.65311e-05
1.66424e-05
1.66386e-05
4.65304e-05
1.66408e-05
1.66368e-05
4.89572e-05
1.43735e-05
4.65295e-05
1.6639e-05
1.66383e-05
1.43721e-05
1.04724e-05
1.08796e-05
1.08799e-05
1.04732e-05
1.08782e-05
1.08758e-05
1.05313e-05
1.05295e-05
1.0529e-05
1.08747e-05
1.04696e-05
1.08753e-05
0.00423723
0.00424699
0.00424178
0.00424179
0.00426415
0.00425095
0.00427954
0.004245
0.00426415
0.00425095
0.004245
0.00427954
0.00425552
0.00428328
0.00428328
0.00419257
0.0042117
0.00422091
0.0041846
0.00418542
0.00418819
0.00419255
0.00421168
0.0042209
0.00418458
0.00421544
0.00421545
0.00421545
0.00417204
0.00417204
0.00417204
0.00417204
0.00419008
0.0042159
0.00421584
0.00419887
0.00421892
0.00418898
0.00419975
0.00418552
0.00418819
0.00419009
0.00421584
0.00421592
0.00419888
0.00421892
0.00419975
0.00418898
0.00422177
0.00422176
0.0041933
0.00418859
0.00418858
0.00414564
0.00416526
0.00416664
0.00414408
0.0041642
0.00414356
0.00414564
0.00416526
0.00416664
0.00414407
0.00416004
0.00416004
0.00416004
0.00412248
0.00412248
0.00412248
0.00412248
0.00414436
0.00416533
0.00416005
0.00414822
0.00416411
0.0041448
0.00414798
0.00416419
0.00414355
0.00414436
0.00416005
0.00416533
0.00414822
0.00416411
0.00414798
0.0041448
0.0041664
0.0041664
0.00414467
0.00414503
0.00414503
0.00409345
0.00411247
0.00411371
0.00409256
0.00411206
0.00409233
0.00409345
0.00411247
0.00411371
0.00409256
0.00410929
0.00410929
0.00410929
0.00407029
0.00407029
0.00407029
0.00407029
0.00409257
0.00411295
0.0041092
0.00409601
0.00411244
0.00409298
0.00409599
0.00411207
0.00409233
0.00409257
0.0041092
0.00411295
0.004096
0.00411244
0.00409599
0.00409298
0.00411314
0.00411314
0.00409257
0.00409316
0.00409316
0.00404135
0.00405919
0.00406026
0.00404091
0.00405874
0.00404052
0.00404135
0.00405919
0.00406026
0.00404091
0.0040577
0.0040577
0.0040577
0.00402214
0.00402215
0.00402214
0.00402214
0.00404166
0.00405984
0.00405758
0.00404526
0.00405987
0.00404158
0.00404536
0.00405874
0.00404052
0.00404166
0.00405758
0.00405984
0.00404526
0.00405987
0.00404535
0.00404158
0.00405936
0.00405936
0.00404213
0.00404092
0.00404092
0.00399661
0.00401302
0.00401312
0.00399654
0.00401303
0.00399658
0.00399661
0.00401301
0.00401312
0.00399654
0.00401083
0.00401083
0.00401083
0.00397724
0.00397724
0.00397724
0.00397724
0.00399673
0.00401327
0.00401077
0.00399953
0.00401327
0.00399668
0.00399955
0.00401302
0.00399658
0.00399673
0.00401076
0.00401328
0.00399953
0.00401327
0.00399955
0.00399669
0.00401321
0.00401321
0.00399691
0.00399666
0.00399666
0.00395213
0.00396879
0.00396881
0.00395213
0.00396881
0.00395212
0.00395213
0.00396879
0.00396881
0.00395213
0.00396608
0.00396608
0.00396608
0.00393265
0.00393265
0.00393265
0.00393265
0.00395219
0.00396877
0.00396605
0.0039549
0.00396876
0.00395216
0.00395491
0.0039688
0.00395213
0.00395219
0.00396605
0.00396877
0.0039549