/*--------------------------------*- C++ -*----------------------------------*\
| =========                 |                                                 |
| \\      /  F ield         | OpenFOAM: The Open Source CFD Toolbox           |
|  \\    /   O peration     | Version:  2206                                  |
|   \\  /    A nd           | Website:  www.openfoam.com                      |
|    \\/     M anipulation  |                                                 |
\*---------------------------------------------------------------------------*/
FoamFile
{
    version     2.0;
    format      ascii;
    arch        "LSB;label=32;scalar=64";
    class       volScalarField;
    location    "18.5";
    object      Ux;
}
// * * * * * * * * * * * * * * * * * * * * * * * * * * * * * * * * * * * * * //

dimensions      [0 1 -1 0 0 0 0];

internalField   nonuniform List<scalar> 
171728
(
0.000108158
-0.000190718
0.000119649
-0.000238967
9.4646e-05
-0.00015885
9.61526e-05
-0.000199809
9.09319e-05
-0.000149908
8.91967e-05
-0.000194579
8.06646e-05
-0.000123804
7.11177e-05
-0.000171331
2.81719e-05
-3.64503e-05
2.38774e-05
-7.34374e-05
3.38531e-06
-4.86163e-06
3.80442e-06
-4.37945e-05
-2.91071e-07
-6.15859e-07
7.5927e-07
-4.04511e-05
-5.5e-07
-3.79909e-07
5.88341e-07
-4.03093e-05
-5.63168e-07
-3.76452e-07
5.82975e-07
-4.03061e-05
-5.61957e-07
-3.76795e-07
5.84162e-07
-4.03065e-05
-5.59161e-07
-3.76425e-07
5.83833e-07
-4.0307e-05
-5.63405e-07
-3.79302e-07
5.8356e-07
-4.0307e-05
-5.62378e-07
-3.86235e-07
5.83093e-07
-4.03073e-05
-5.62953e-07
-3.82864e-07
5.82422e-07
-4.03072e-05
-5.66491e-07
-3.7617e-07
5.81891e-07
-4.03066e-05
-5.66831e-07
-3.76423e-07
5.81888e-07
-4.03064e-05
-5.64649e-07
-3.78277e-07
5.8242e-07
-4.03073e-05
-5.63876e-07
-3.77924e-07
5.83242e-07
-4.03073e-05
-5.61401e-07
-3.78983e-07
5.84028e-07
-4.03087e-05
-5.55384e-07
-3.75646e-07
5.84439e-07
-4.03081e-05
-5.51863e-07
-3.82069e-07
5.84402e-07
-4.03068e-05
-5.61366e-07
-3.78403e-07
5.83138e-07
-4.03064e-05
-5.63551e-07
-3.76835e-07
5.82661e-07
-4.03056e-05
-5.64405e-07
-3.76612e-07
5.82188e-07
-4.03057e-05
-5.64357e-07
-3.77204e-07
5.82787e-07
-4.03072e-05
-5.6376e-07
-3.7757e-07
5.83282e-07
-4.03075e-05
-5.6329e-07
-3.7832e-07
5.8383e-07
-4.03085e-05
-5.638e-07
-3.77802e-07
5.83218e-07
-4.03078e-05
-5.64042e-07
-3.76984e-07
5.82998e-07
-4.03071e-05
-5.64461e-07
-3.76628e-07
5.82713e-07
-4.03075e-05
-5.64946e-07
-3.76098e-07
5.82276e-07
-4.03064e-05
-5.64296e-07
-3.76145e-07
5.82738e-07
-4.03066e-05
-5.64065e-07
-3.77082e-07
5.83039e-07
-4.03074e-05
-5.63704e-07
-3.77626e-07
5.83618e-07
-4.03079e-05
-5.63447e-07
-3.7782e-07
5.83611e-07
-4.0308e-05
-5.63548e-07
-3.77816e-07
5.83693e-07
-4.03081e-05
-5.64417e-07
-3.76413e-07
5.82721e-07
-4.03071e-05
-5.64405e-07
-3.76656e-07
5.82728e-07
-4.03074e-05
-5.64939e-07
-3.75522e-07
5.82314e-07
-4.03063e-05
-5.64281e-07
-3.75403e-07
5.81361e-07
-4.03031e-05
-5.58958e-07
-3.75082e-07
5.82328e-07
-4.03056e-05
-5.66364e-07
-3.7659e-07
5.82713e-07
-4.03082e-05
-5.62976e-07
-3.77657e-07
5.83383e-07
-4.03087e-05
-5.63108e-07
-3.77177e-07
5.82913e-07
-4.03079e-05
-5.63327e-07
-3.77456e-07
5.81963e-07
-4.03078e-05
-5.63525e-07
-3.76013e-07
5.81574e-07
-4.03065e-05
-5.63346e-07
-3.76603e-07
5.81961e-07
-4.03067e-05
-5.63759e-07
-3.76466e-07
5.81873e-07
-4.0307e-05
-5.62941e-07
-3.77351e-07
5.8253e-07
-4.03076e-05
-5.6234e-07
-3.78372e-07
5.83055e-07
-4.03084e-05
-5.62759e-07
-3.77801e-07
5.82892e-07
-4.0308e-05
-5.6252e-07
-3.78441e-07
5.83035e-07
-4.03082e-05
-5.62991e-07
-3.77049e-07
5.82112e-07
-4.03066e-05
-5.62019e-07
-3.76151e-07
5.8244e-07
-4.03057e-05
-5.61237e-07
-3.76438e-07
5.82273e-07
-4.03061e-05
-5.62953e-07
-3.76968e-07
5.82244e-07
-4.03071e-05
-5.61693e-07
-3.79378e-07
5.8317e-07
-4.03101e-05
-5.61181e-07
-3.79744e-07
5.83713e-07
-4.03104e-05
-5.60757e-07
-3.80637e-07
5.84293e-07
-4.03109e-05
-5.61185e-07
-3.79462e-07
5.84006e-07
-4.03101e-05
-5.61178e-07
-3.79076e-07
5.83593e-07
-4.03096e-05
-5.62318e-07
-3.78015e-07
5.82785e-07
-4.03091e-05
-5.6231e-07
-3.78477e-07
5.83216e-07
-4.03084e-05
-5.61505e-07
-3.78806e-07
5.83335e-07
-4.03096e-05
-5.61549e-07
-3.78888e-07
5.83208e-07
-4.03093e-05
-5.6081e-07
-3.80297e-07
5.84511e-07
-4.03106e-05
-5.60709e-07
-3.79835e-07
5.84093e-07
-4.03107e-05
-5.60898e-07
-3.79946e-07
5.84122e-07
-4.03104e-05
-5.61509e-07
-3.78512e-07
5.84871e-07
-4.03111e-05
-5.61312e-07
-3.78383e-07
5.90573e-07
-4.03138e-05
-5.61543e-07
-3.77815e-07
5.86582e-07
-4.03125e-05
-5.61665e-07
-3.78714e-07
5.83704e-07
-4.03093e-05
-5.60957e-07
-3.79481e-07
5.83865e-07
-4.03104e-05
-5.61082e-07
-3.7977e-07
5.83861e-07
-4.03106e-05
-5.60479e-07
-3.80388e-07
5.85066e-07
-4.03108e-05
-5.61245e-07
-3.7968e-07
5.83838e-07
-4.03107e-05
-5.6179e-07
-3.7853e-07
5.8343e-07
-4.03098e-05
-5.62069e-07
-3.78467e-07
5.83557e-07
-4.03097e-05
-5.62279e-07
-3.78274e-07
5.83101e-07
-4.03092e-05
-5.61783e-07
-3.78512e-07
5.83406e-07
-4.03097e-05
-5.61249e-07
-3.79684e-07
5.83945e-07
-4.03106e-05
-5.60704e-07
-3.80148e-07
5.8428e-07
-4.03107e-05
-5.60932e-07
-3.80011e-07
5.84135e-07
-4.03109e-05
-5.61051e-07
-3.79585e-07
5.83835e-07
-4.03106e-05
-5.61763e-07
-3.78865e-07
5.83284e-07
-4.03097e-05
-5.61847e-07
-3.78448e-07
5.83181e-07
-4.03092e-05
-5.62215e-07
-3.78323e-07
5.83444e-07
-4.03096e-05
-5.62098e-07
-3.7839e-07
5.83574e-07
-4.031e-05
-5.64939e-07
-3.76517e-07
5.81866e-07
-4.03097e-05
-5.77746e-07
-3.79482e-07
5.81719e-07
-4.02798e-05
-5.51285e-07
-5.93931e-07
6.885e-07
-3.99849e-05
-6.87488e-07
-1.23525e-06
1.16901e-06
-3.89352e-05
-1.00701e-08
-3.21708e-06
2.68006e-06
-3.66233e-05
-5.43351e-06
-2.16244e-06
3.00093e-06
-2.62235e-05
-4.26267e-05
4.14084e-05
-3.50032e-05
4.92159e-05
0.000135328
0.000123911
-0.000123901
-0.000135323
0.00015233
0.000152302
9.05858e-05
-9.05764e-05
9.05623e-05
-9.05605e-05
-0.000152325
-0.000152313
0.000135315
0.000123859
-0.000123856
-0.000135324
0.000239015
0.000112498
0.000119698
-0.000119651
8.83475e-05
-8.83087e-05
-0.000239026
-0.000112458
0.000190753
0.000190689
0.000145746
0.000145773
-0.000190668
-0.000145712
-0.00014573
0.000238942
0.000112446
-0.000119629
8.83258e-05
-8.83054e-05
-0.000112445
0.000199896
0.000106648
9.61588e-05
-9.61305e-05
8.95035e-05
-8.94996e-05
-0.000199859
-0.000106638
0.000158883
0.000158905
0.000150383
0.000150428
-0.000158884
-0.000150384
-0.0001504
0.000199806
0.000106612
-9.61354e-05
8.95039e-05
-8.95083e-05
-0.000106624
0.000194649
9.67034e-05
8.91905e-05
-8.91997e-05
8.61652e-05
-8.61448e-05
-0.000194638
-9.66911e-05
0.000149921
0.000149955
0.000146798
0.00014683
-0.000149937
-0.000146796
-0.000146833
0.000194562
9.66494e-05
-8.92021e-05
8.61979e-05
-8.61821e-05
-9.67094e-05
0.000171337
-1.28909e-06
7.11001e-05
-7.10793e-05
3.28446e-05
-3.28545e-05
-0.000171333
1.27627e-06
0.000123803
0.000123833
5.29207e-05
5.29274e-05
-0.000123842
-5.29218e-05
-5.29147e-05
0.000171258
-1.24792e-06
-7.10958e-05
3.28154e-05
-3.28135e-05
1.27726e-06
7.34568e-05
-3.70378e-05
2.39029e-05
-2.39132e-05
6.45095e-06
-6.46362e-06
-7.34687e-05
3.70375e-05
3.64548e-05
3.64554e-05
8.58835e-06
8.60333e-06
-3.64449e-05
-8.58901e-06
-8.60364e-06
7.34453e-05
-3.70155e-05
-2.38767e-05
6.43335e-06
-6.4341e-06
3.70173e-05
4.38007e-05
-4.17327e-05
3.82128e-06
-3.83457e-06
9.87352e-07
-9.92036e-07
-4.38037e-05
4.17334e-05
4.86509e-06
4.87516e-06
9.2272e-07
9.37155e-07
-4.87937e-06
-9.22523e-07
-9.3953e-07
4.37793e-05
-4.17058e-05
-3.80519e-06
9.70091e-07
-9.70737e-07
4.17093e-05
4.0457e-05
-4.19512e-05
7.80319e-07
-7.77549e-07
6.21345e-07
-6.13511e-07
-4.0455e-05
4.19554e-05
6.20236e-07
6.31098e-07
3.90003e-07
4.06233e-07
-6.32576e-07
-3.88337e-07
-4.04692e-07
4.04383e-05
-4.19254e-05
-7.5947e-07
5.95423e-07
-5.93977e-07
4.19315e-05
4.03168e-05
-4.19565e-05
6.09234e-07
-6.06449e-07
6.03254e-07
-6.02972e-07
-4.03148e-05
4.19597e-05
3.84892e-07
3.97823e-07
3.77064e-07
3.92961e-07
-3.96273e-07
-3.75797e-07
-3.91447e-07
4.02986e-05
-4.19311e-05
-5.86742e-07
5.82066e-07
-5.8056e-07
4.1937e-05
4.03141e-05
-4.19573e-05
6.02744e-07
-6.03178e-07
6.03744e-07
-6.0293e-07
-4.03129e-05
4.19615e-05
3.81368e-07
3.9356e-07
3.77433e-07
3.94216e-07
-3.92286e-07
-3.76059e-07
-3.91936e-07
4.02952e-05
-4.19296e-05
-5.81324e-07
5.83016e-07
-5.80549e-07
4.19367e-05
4.03145e-05
-4.19532e-05
6.05135e-07
-6.02623e-07
6.13506e-07
-6.02358e-07
-4.03126e-05
4.19665e-05
3.82085e-07
3.94757e-07
3.78095e-07
3.94728e-07
-3.9259e-07
-3.75336e-07
-3.92098e-07
4.0297e-05
-4.19297e-05
-5.8145e-07
5.82732e-07
-5.8067e-07
4.19364e-05
4.03179e-05
-4.19549e-05
6.13077e-07
-6.0207e-07
6.02682e-07
-6.04386e-07
-4.03118e-05
4.1965e-05
3.81879e-07
3.95098e-07
3.77508e-07
3.94514e-07
-3.92844e-07
-3.76833e-07
-3.92372e-07
4.02969e-05
-4.19298e-05
-5.81615e-07
5.82743e-07
-5.80778e-07
4.19361e-05
4.03152e-05
-4.19565e-05
6.04075e-07
-6.0465e-07
6.01407e-07
-6.03283e-07
-4.03134e-05
4.19625e-05
3.8192e-07
3.94529e-07
3.7622e-07
3.93242e-07
-3.93161e-07
-3.83274e-07
-3.93435e-07
4.02965e-05
-4.1931e-05
-5.81596e-07
5.82047e-07
-5.8039e-07
4.19357e-05
4.03141e-05
-4.19593e-05
6.01269e-07
-6.02907e-07
5.99497e-07
-6.0086e-07
-4.03162e-05
4.19587e-05
3.79679e-07
3.93153e-07
3.74547e-07
3.9214e-07
-3.94185e-07
-3.83007e-07
-3.93525e-07
4.02954e-05
-4.19318e-05
-5.81007e-07
5.81595e-07
-5.80133e-07
4.19361e-05
4.03121e-05
-4.1956e-05
6.01567e-07
-6.01947e-07
5.98299e-07
-6.03064e-07
-4.03191e-05
4.19626e-05
3.78582e-07
3.92314e-07
3.74723e-07
3.91793e-07
-3.93652e-07
-3.75557e-07
-3.91995e-07
4.02947e-05
-4.1932e-05
-5.81021e-07
5.81047e-07
-5.80302e-07
4.1937e-05
4.03128e-05
-4.19578e-05
5.97146e-07
-6.05797e-07
5.95265e-07
-6.13453e-07
-4.03175e-05
4.19592e-05
3.78534e-07
3.92057e-07
3.74829e-07
3.91791e-07
-3.92484e-07
-3.75682e-07
-3.91703e-07
4.02947e-05
-4.19323e-05
-5.81381e-07
5.80604e-07
-5.80632e-07
4.19373e-05
4.03114e-05
-4.19542e-05
5.94971e-07
-6.09859e-07
5.98777e-07
-6.03971e-07
-4.03174e-05
4.19593e-05
3.79049e-07
3.92469e-07
3.76998e-07
3.92817e-07
-3.92498e-07
-3.76314e-07
-3.92483e-07
4.02947e-05
-4.19314e-05
-5.81744e-07
5.81302e-07
-5.81402e-07
4.19363e-05
4.03141e-05
-4.19554e-05
5.9851e-07
-6.05269e-07
5.98191e-07
-6.03099e-07
-4.03158e-05
4.19616e-05
3.81094e-07
3.93191e-07
3.77216e-07
3.93602e-07
-3.9285e-07
-3.76705e-07
-3.9215e-07
4.02956e-05
-4.19309e-05
-5.82027e-07
5.81778e-07
-5.80837e-07
4.19369e-05
4.03137e-05
-4.19567e-05
5.97088e-07
-6.03192e-07
6.01344e-07
-6.08915e-07
-4.03138e-05
4.19595e-05
3.81422e-07
3.94313e-07
3.77537e-07
3.9458e-07
-3.93442e-07
-3.78052e-07
-3.93792e-07
4.02965e-05
-4.19298e-05
-5.81987e-07
5.829e-07
-5.81386e-07
4.19356e-05
4.03156e-05
-4.19582e-05
6.03324e-07
-6.11611e-07
6.04191e-07
-5.9852e-07
-4.032e-05
4.1966e-05
3.81207e-07
3.94987e-07
3.77958e-07
3.93913e-07
-3.95346e-07
-3.75891e-07
-3.98176e-07
4.02977e-05
-4.19303e-05
-5.81853e-07
5.83102e-07
-5.79283e-07
4.19353e-05
4.03183e-05
-4.19634e-05
6.04648e-07
-5.89182e-07
6.05393e-07
-6.03548e-07
-4.03012e-05
4.19542e-05
3.82652e-07
3.94182e-07
3.83366e-07
3.9439e-07
-3.98988e-07
-3.80647e-07
-3.91753e-07
4.02969e-05
-4.19298e-05
-5.79972e-07
5.83719e-07
-5.79595e-07
4.19366e-05
4.03147e-05
-4.1962e-05
6.08854e-07
-6.00371e-07
6.003e-07
-6.02109e-07
-4.03179e-05
4.19653e-05
3.85768e-07
3.94535e-07
3.77977e-07
3.92984e-07
-3.91928e-07
-3.77521e-07
-3.91392e-07
4.02967e-05
-4.1931e-05
-5.80659e-07
5.82201e-07
-5.7998e-07
4.19369e-05
4.03179e-05
-4.19621e-05
5.99431e-07
-6.03725e-07
5.99834e-07
-6.03493e-07
-4.03094e-05
4.19616e-05
3.79555e-07
3.93012e-07
3.75386e-07
3.92252e-07
-3.91565e-07
-3.7479e-07
-3.90628e-07
4.02955e-05
-4.19314e-05
-5.80925e-07
5.81541e-07
-5.80039e-07
4.19378e-05
4.03185e-05
-4.19621e-05
6.00855e-07
-6.04369e-07
6.00122e-07
-6.03857e-07
-4.0312e-05
4.19608e-05
3.79759e-07
3.92559e-07
3.75307e-07
3.92179e-07
-3.91579e-07
-3.75259e-07
-3.90782e-07
4.02952e-05
-4.19315e-05
-5.81219e-07
5.81097e-07
-5.79833e-07
4.19377e-05
4.03183e-05
-4.19614e-05
6.00296e-07
-6.04695e-07
6.01026e-07
-6.04548e-07
-4.03126e-05
4.196e-05
3.7956e-07
3.92547e-07
3.76007e-07
3.92823e-07
-3.9147e-07
-3.75901e-07
-3.91467e-07
4.02949e-05
-4.19308e-05
-5.80984e-07
5.81657e-07
-5.80795e-07
4.19363e-05
4.0319e-05
-4.19604e-05
6.01448e-07
-6.05332e-07
6.0212e-07
-6.04982e-07
-4.03134e-05
4.19592e-05
3.80551e-07
3.93342e-07
3.76466e-07
3.93269e-07
-3.92068e-07
-3.76177e-07
-3.91352e-07
4.02957e-05
-4.19303e-05
-5.81727e-07
5.82164e-07
-5.80841e-07
4.1936e-05
4.03199e-05
-4.19598e-05
6.02571e-07
-6.05533e-07
6.03055e-07
-6.05062e-07
-4.03141e-05
4.19594e-05
3.8087e-07
3.93785e-07
3.77329e-07
3.94291e-07
-3.92347e-07
-3.76998e-07
-3.92597e-07
4.02962e-05
-4.19297e-05
-5.82032e-07
5.82878e-07
-5.81786e-07
4.19348e-05
4.03206e-05
-4.19606e-05
6.0317e-07
-6.05942e-07
6.02499e-07
-6.04514e-07
-4.03142e-05
4.19595e-05
3.81532e-07
3.94543e-07
3.76514e-07
3.93294e-07
-3.93072e-07
-3.765e-07
-3.91728e-07
4.02968e-05
-4.19307e-05
-5.8274e-07
5.8202e-07
-5.81402e-07
4.19354e-05
4.03198e-05
-4.19607e-05
6.02521e-07
-6.05791e-07
6.02125e-07
-6.03961e-07
-4.03138e-05
4.19598e-05
3.80836e-07
3.93702e-07
3.76342e-07
3.93423e-07
-3.92222e-07
-3.76057e-07
-3.90955e-07
4.02957e-05
-4.19302e-05
-5.82185e-07
5.82395e-07
-5.80672e-07
4.19362e-05
4.03195e-05
-4.1961e-05
6.02174e-07
-6.05574e-07
6.0228e-07
-6.02818e-07
-4.03134e-05
4.19606e-05
3.80287e-07
3.93263e-07
3.75942e-07
3.92731e-07
-3.9142e-07
-3.75678e-07
-3.91265e-07
4.02961e-05
-4.1931e-05
-5.81453e-07
5.81837e-07
-5.81095e-07
4.19358e-05
4.03193e-05
-4.19621e-05
6.02016e-07
-6.06449e-07
6.01018e-07
-6.00692e-07
-4.03132e-05
4.19609e-05
3.79931e-07
3.92766e-07
3.74563e-07
3.91636e-07
-3.91392e-07
-3.74817e-07
-3.89993e-07
4.02955e-05
-4.19317e-05
-5.81668e-07
5.81229e-07
-5.80161e-07
4.1937e-05
4.03183e-05
-4.19609e-05
6.01533e-07
-6.08964e-07
6.02239e-07
-6.02953e-07
-4.03134e-05
4.19612e-05
3.7896e-07
3.9206e-07
3.75913e-07
3.92589e-07
-3.90919e-07
-3.75204e-07
-3.902e-07
4.02948e-05
-4.19311e-05
-5.81263e-07
5.8173e-07
-5.80206e-07
4.19368e-05
4.03195e-05
-4.19615e-05
6.02205e-07
-6.06334e-07
6.0187e-07
-6.0549e-07
-4.03138e-05
4.19618e-05
3.80019e-07
3.92892e-07
3.7562e-07
3.92591e-07
-3.90922e-07
-3.75631e-07
-3.90975e-07
4.02955e-05
-4.19312e-05
-5.81156e-07
5.8172e-07
-5.80857e-07
4.19361e-05
4.03191e-05
-4.19603e-05
6.02231e-07
-6.06565e-07
6.02695e-07
-6.06225e-07
-4.0313e-05
4.19617e-05
3.80363e-07
3.93311e-07
3.76755e-07
3.93642e-07
-3.92042e-07
-3.7611e-07
-3.91627e-07
4.02955e-05
-4.19301e-05
-5.82009e-07
5.8256e-07
-5.81195e-07
4.19356e-05
4.03201e-05
-4.19605e-05
6.02697e-07
-6.07112e-07
6.02595e-07
-6.06786e-07
-4.03133e-05
4.19609e-05
3.80877e-07
3.94004e-07
3.76872e-07
3.93827e-07
-3.92748e-07
-3.76514e-07
-3.91765e-07
4.02965e-05
-4.19304e-05
-5.82407e-07
5.82323e-07
-5.8131e-07
4.19354e-05
4.03201e-05
-4.19604e-05
6.03014e-07
-6.07513e-07
6.02615e-07
-6.06592e-07
-4.03138e-05
4.19614e-05
3.8146e-07
3.94404e-07
3.76803e-07
3.93667e-07
-3.92645e-07
-3.76289e-07
-3.91765e-07
4.02963e-05
-4.19301e-05
-5.82303e-07
5.8254e-07
-5.81399e-07
4.19353e-05
4.03199e-05
-4.19611e-05
6.02982e-07
-6.07416e-07
6.01717e-07
-6.06217e-07
-4.03134e-05
4.19615e-05
3.81301e-07
3.94309e-07
3.75835e-07
3.92754e-07
-3.92699e-07
-3.75549e-07
-3.90584e-07
4.02963e-05
-4.19309e-05
-5.82451e-07
5.81817e-07
-5.8074e-07
4.19361e-05
4.03191e-05
-4.19612e-05
6.02138e-07
-6.06415e-07
6.01639e-07
-6.05768e-07
-4.03127e-05
4.19625e-05
3.79877e-07
3.92963e-07
3.75477e-07
3.92098e-07
-3.91153e-07
-3.75171e-07
-3.9076e-07
4.02953e-05
-4.19311e-05
-5.81333e-07
5.81713e-07
-5.81084e-07
4.19358e-05
4.03189e-05
-4.19614e-05
6.02056e-07
-6.06283e-07
6.01183e-07
-6.0645e-07
-4.03123e-05
4.19619e-05
3.79895e-07
3.92699e-07
3.75328e-07
3.92249e-07
-3.91416e-07
-3.75096e-07
-3.90171e-07
4.02953e-05
-4.19308e-05
-5.81645e-07
5.82009e-07
-5.80645e-07
4.19364e-05
4.03182e-05
-4.19615e-05
6.01482e-07
-6.05414e-07
5.99405e-07
-6.06632e-07
-4.03119e-05
4.19642e-05
3.79033e-07
3.92202e-07
3.76887e-07
3.92665e-07
-3.90408e-07
-3.74524e-07
-3.926e-07
4.02953e-05
-4.19326e-05
-5.80669e-07
5.80663e-07
-5.79236e-07
4.19399e-05
4.03164e-05
-4.19531e-05
6.00298e-07
-6.04622e-07
5.99971e-07
-6.04712e-07
-4.031e-05
4.19628e-05
3.8216e-07
3.93589e-07
3.8285e-07
3.94249e-07
-3.96492e-07
-3.7281e-07
-3.97818e-07
4.02942e-05
-4.1932e-05
-5.7811e-07
5.80786e-07
-5.76926e-07
4.19388e-05
4.03239e-05
-4.19633e-05
6.05814e-07
-6.06255e-07
5.96531e-07
-6.1093e-07
-4.0314e-05
4.19572e-05
3.88229e-07
3.94781e-07
3.75823e-07
3.93328e-07
-3.95051e-07
-3.76342e-07
-3.91918e-07
4.02951e-05
-4.19316e-05
-5.79547e-07
5.81759e-07
-5.80929e-07
4.19357e-05
4.03122e-05
-4.19591e-05
5.98235e-07
-6.13566e-07
5.99844e-07
-6.03146e-07
-4.03201e-05
4.19603e-05
3.78846e-07
3.93849e-07
3.7659e-07
3.94419e-07
-3.93377e-07
-3.7598e-07
-3.92933e-07
4.02953e-05
-4.19308e-05
-5.81985e-07
5.82428e-07
-5.82035e-07
4.19347e-05
4.03155e-05
-4.19579e-05
6.02118e-07
-6.04152e-07
6.0165e-07
-6.02193e-07
-4.03137e-05
4.19621e-05
3.81243e-07
3.94914e-07
3.77182e-07
3.93661e-07
-3.93241e-07
-3.75757e-07
-3.91856e-07
4.0296e-05
-4.19311e-05
-5.82593e-07
5.82327e-07
-5.81466e-07
4.19355e-05
4.03162e-05
-4.19581e-05
6.01154e-07
-6.03852e-07
6.00495e-07
-6.03303e-07
-4.03126e-05
4.19619e-05
3.80776e-07
3.94e-07
3.77015e-07
3.93307e-07
-3.9238e-07
-3.76338e-07
-3.91538e-07
4.02955e-05
-4.19313e-05
-5.82145e-07
5.82276e-07
-5.81485e-07
4.19356e-05
4.03159e-05
-4.19584e-05
6.00042e-07
-6.03965e-07
5.9957e-07
-6.02482e-07
-4.03127e-05
4.19627e-05
3.81139e-07
3.93759e-07
3.76742e-07
3.92251e-07
-3.9215e-07
-3.75253e-07
-3.89987e-07
4.02952e-05
-4.19324e-05
-5.81909e-07
5.81515e-07
-5.80478e-07
4.19369e-05
4.03157e-05
-4.19584e-05
5.99416e-07
-6.0295e-07
5.99418e-07
-6.02112e-07
-4.03115e-05
4.19632e-05
3.80601e-07
3.92817e-07
3.76882e-07
3.92597e-07
-3.90481e-07
-3.74975e-07
-3.90026e-07
4.02941e-05
-4.19319e-05
-5.80795e-07
5.81796e-07
-5.80296e-07
4.19368e-05
4.03156e-05
-4.19587e-05
5.99273e-07
-6.03137e-07
5.99186e-07
-6.02487e-07
-4.03116e-05
4.19624e-05
3.80831e-07
3.93253e-07
3.76307e-07
3.92521e-07
-3.91035e-07
-3.75649e-07
-3.90598e-07
4.02946e-05
-4.19318e-05
-5.81135e-07
5.81916e-07
-5.808e-07
4.19364e-05
4.03152e-05
-4.1958e-05
5.98998e-07
-6.03004e-07
5.99624e-07
-6.02645e-07
-4.03118e-05
4.19623e-05
3.80183e-07
3.92904e-07
3.76903e-07
3.9298e-07
-3.91151e-07
-3.75877e-07
-3.90805e-07
4.02947e-05
-4.19313e-05
-5.81509e-07
5.82299e-07
-5.81066e-07
4.19361e-05
4.03162e-05
-4.19571e-05
5.99835e-07
-6.03682e-07
6.0054e-07
-6.03484e-07
-4.03125e-05
4.19614e-05
3.81286e-07
3.93841e-07
3.78287e-07
3.94229e-07
-3.91826e-07
-3.77184e-07
-3.91863e-07
4.02953e-05
-4.19306e-05
-5.82054e-07
5.82875e-07
-5.81787e-07
4.1935e-05
4.03168e-05
-4.19576e-05
6.00362e-07
-6.04255e-07
6.0016e-07
-6.03027e-07
-4.03131e-05
4.1962e-05
3.82079e-07
3.94699e-07
3.77768e-07
3.93799e-07
-3.9271e-07
-3.76556e-07
-3.91634e-07
4.02959e-05
-4.19308e-05
-5.82667e-07
5.82825e-07
-5.81702e-07
4.19351e-05
4.03163e-05
-4.19568e-05
5.99938e-07
-6.03906e-07
6.00637e-07
-6.03539e-07
-4.03124e-05
4.19612e-05
3.81515e-07
3.94154e-07
3.78165e-07
3.94185e-07
-3.92173e-07
-3.77281e-07
-3.92224e-07
4.02956e-05
-4.19305e-05
-5.82287e-07
5.82939e-07
-5.8193e-07
4.1935e-05
4.0317e-05
-4.19579e-05
6.0033e-07
-6.04332e-07
5.99845e-07
-6.03131e-07
-4.03132e-05
4.1962e-05
3.81965e-07
3.94586e-07
3.77356e-07
3.93157e-07
-3.92858e-07
-3.76223e-07
-3.90564e-07
4.02959e-05
-4.19315e-05
-5.82813e-07
5.82122e-07
-5.81078e-07
4.19363e-05
4.03159e-05
-4.19569e-05
5.99743e-07
-6.03214e-07
6.00854e-07
-6.00876e-07
-4.03122e-05
4.19629e-05
3.81059e-07
3.93285e-07
3.77648e-07
3.92828e-07
-3.90867e-07
-3.75239e-07
-3.89425e-07
4.02946e-05
-4.19315e-05
-5.81642e-07
5.8213e-07
-5.80161e-07
4.19372e-05
4.03166e-05
-4.1956e-05
6.01232e-07
-6.00937e-07
6.02489e-07
-5.91303e-07
-4.03104e-05
4.19659e-05
3.81769e-07
3.9324e-07
3.78075e-07
3.92429e-07
-3.89998e-07
-3.75222e-07
-3.89366e-07
4.02946e-05
-4.19317e-05
-5.80935e-07
5.82086e-07
-5.80257e-07
4.19369e-05
4.03172e-05
-4.19579e-05
6.02268e-07
-5.92492e-07
6.00242e-07
-6.01715e-07
-4.03076e-05
4.19649e-05
3.81843e-07
3.92694e-07
3.77234e-07
3.92174e-07
-3.89984e-07
-3.75708e-07
-3.90303e-07
4.02944e-05
-4.19316e-05
-5.809e-07
5.8198e-07
-5.79942e-07
4.19365e-05
4.0316e-05
-4.19578e-05
5.99705e-07
-6.00667e-07
6.0043e-07
-6.01856e-07
-4.031e-05
4.19616e-05
3.80949e-07
3.92483e-07
3.77281e-07
3.91572e-07
-3.92775e-07
-3.78086e-07
-3.98426e-07
4.02947e-05
-4.19318e-05
-5.80531e-07
5.82661e-07
-5.7964e-07
4.19332e-05
4.03162e-05
-4.19581e-05
6.00488e-07
-6.02964e-07
6.00769e-07
-6.02025e-07
-4.03128e-05
4.19612e-05
3.81331e-07
3.91791e-07
3.77147e-07
3.91329e-07
-4.00353e-07
-3.78419e-07
-3.98512e-07
4.02946e-05
-4.19321e-05
-5.80336e-07
5.83458e-07
-5.8007e-07
4.19329e-05
4.0316e-05
-4.19578e-05
6.00584e-07
-6.02833e-07
6.00797e-07
-6.03026e-07
-4.03133e-05
4.19599e-05
3.80838e-07
3.9154e-07
3.77402e-07
3.91717e-07
-4.00389e-07
-3.79625e-07
-3.99384e-07
4.02944e-05
-4.19315e-05
-5.81112e-07
5.83958e-07
-5.8097e-07
4.19324e-05
4.03163e-05
-4.19583e-05
6.00739e-07
-6.03792e-07
6.00317e-07
-6.0253e-07
-4.03145e-05
4.1961e-05
3.81418e-07
3.92203e-07
3.76806e-07
3.91511e-07
-4.00785e-07
-3.78538e-07
-3.98331e-07
4.0295e-05
-4.19314e-05
-5.8164e-07
5.83964e-07
-5.80689e-07
4.19331e-05
4.03155e-05
-4.1958e-05
6.00211e-07
-6.03074e-07
6.0071e-07
-6.02214e-07
-4.03133e-05
4.19614e-05
3.80671e-07
3.91577e-07
3.7689e-07
3.90915e-07
-3.99671e-07
-3.78029e-07
-3.97692e-07
4.02948e-05
-4.19323e-05
-5.81353e-07
5.8337e-07
-5.80384e-07
4.19336e-05
4.03159e-05
-4.19593e-05
6.00355e-07
-6.02923e-07
5.99682e-07
-6.01888e-07
-4.0313e-05
4.19619e-05
3.80519e-07
3.91216e-07
3.75849e-07
3.90232e-07
-3.99376e-07
-3.77405e-07
-3.97433e-07
4.02941e-05
-4.19329e-05
-5.81172e-07
5.82897e-07
-5.80176e-07
4.1934e-05
4.03145e-05
-4.19598e-05
5.99285e-07
-6.02249e-07
5.99169e-07
-6.01496e-07
-4.03123e-05
4.19622e-05
3.79224e-07
3.90093e-07
3.75063e-07
3.89742e-07
-3.98249e-07
-3.76936e-07
-3.96587e-07
4.02933e-05
-4.1933e-05
-5.8038e-07
5.82678e-07
-5.79328e-07
4.1935e-05
4.03144e-05
-4.19584e-05
5.99411e-07
-6.02556e-07
6.00233e-07
-6.02202e-07
-4.03123e-05
4.19613e-05
3.79395e-07
3.9063e-07
3.76717e-07
3.90843e-07
-3.98653e-07
-3.77805e-07
-3.97693e-07
4.02936e-05
-4.19322e-05
-5.80357e-07
5.83263e-07
-5.80345e-07
4.19336e-05
4.03154e-05
-4.19587e-05
5.9998e-07
-6.02821e-07
6.00105e-07
-6.02054e-07
-4.0313e-05
4.19616e-05
3.79848e-07
3.91062e-07
3.76796e-07
3.90518e-07
-3.99145e-07
-3.7759e-07
-3.97313e-07
4.0294e-05
-4.19327e-05
-5.81089e-07
5.82936e-07
-5.80398e-07
4.19341e-05
4.03154e-05
-4.19578e-05
5.99973e-07
-6.02849e-07
6.00817e-07
-6.02819e-07
-4.03129e-05
4.19604e-05
3.79377e-07
3.90905e-07
3.78073e-07
3.91675e-07
-3.98991e-07
-3.79015e-07
-3.98623e-07
4.02939e-05
-4.1931e-05
-5.81207e-07
5.84197e-07
-5.81354e-07
4.19327e-05
4.03163e-05
-4.1958e-05
6.00672e-07
-6.03659e-07
6.00805e-07
-6.03044e-07
-4.0314e-05
4.19603e-05
3.8049e-07
3.92186e-07
3.78092e-07
3.91675e-07
-4.00341e-07
-3.79173e-07
-3.98763e-07
4.02955e-05
-4.19314e-05
-5.82253e-07
5.84125e-07
-5.81937e-07
4.19325e-05
4.03159e-05
-4.19582e-05
6.0068e-07
-6.03547e-07
6.00564e-07
-6.02467e-07
-4.03139e-05
4.1961e-05
3.80419e-07
3.91894e-07
3.7789e-07
3.91202e-07
-3.9987e-07
-3.78645e-07
-3.98411e-07
4.0295e-05
-4.19319e-05
-5.82284e-07
5.8371e-07
-5.81475e-07
4.1933e-05
4.03155e-05
-4.19586e-05
6.00307e-07
-6.03345e-07
6.00228e-07
-6.02059e-07
-4.03133e-05
4.19612e-05
3.80091e-07
3.91725e-07
3.77057e-07
3.9175e-07
-4.00156e-07
-3.77819e-07
-3.98643e-07
4.02947e-05
-4.19303e-05
-5.82425e-07
5.84203e-07
-5.82168e-07
4.19318e-05
4.03146e-05
-4.19593e-05
5.99763e-07
-6.02483e-07
5.99588e-07
-6.01845e-07
-4.03123e-05
4.19616e-05
3.78971e-07
3.92142e-07
3.76189e-07
3.93435e-07
-4.00457e-07
-3.76968e-07
-3.99869e-07
4.02956e-05
-4.19257e-05
-5.8347e-07
5.88884e-07
-5.86029e-07
4.19278e-05
4.03141e-05
-4.19594e-05
5.99552e-07
-6.02714e-07
5.995e-07
-6.01942e-07
-4.03122e-05
4.19613e-05
3.78657e-07
3.94558e-07
3.7616e-07
3.92375e-07
-4.02516e-07
-3.77305e-07
-3.99759e-07
4.02989e-05
-4.19294e-05
-5.87727e-07
5.88327e-07
-5.85822e-07
4.19299e-05
4.03142e-05
-4.19591e-05
5.9939e-07
-6.02275e-07
5.99771e-07
-6.01547e-07
-4.03124e-05
4.19622e-05
3.7841e-07
3.91463e-07
3.7635e-07
3.90457e-07
-3.99512e-07
-3.77004e-07
-3.97058e-07
4.02963e-05
-4.19323e-05
-5.8495e-07
5.83543e-07
-5.80897e-07
4.19341e-05
4.03149e-05
-4.19583e-05
5.99812e-07
-6.02758e-07
6.00407e-07
-6.02497e-07
-4.03125e-05
4.19606e-05
3.78994e-07
3.91001e-07
3.7758e-07
3.91388e-07
-3.98966e-07
-3.78567e-07
-3.98298e-07
4.02942e-05
-4.19317e-05
-5.81666e-07
5.83692e-07
-5.81455e-07
4.1933e-05
4.03157e-05
-4.19586e-05
6.0047e-07
-6.03052e-07
6.00292e-07
-6.02466e-07
-4.03135e-05
4.1961e-05
3.80151e-07
3.91719e-07
3.775e-07
3.90921e-07
-3.99916e-07
-3.78499e-07
-3.98568e-07
4.02947e-05
-4.19321e-05
-5.8213e-07
5.83432e-07
-5.81782e-07
4.19327e-05
4.03155e-05
-4.19577e-05
6.00318e-07
-6.03298e-07
6.01022e-07
-6.02858e-07
-4.03135e-05
4.19605e-05
3.80135e-07
3.91606e-07
3.78431e-07
3.92134e-07
-4.00129e-07
-3.79027e-07
-3.98266e-07
4.02943e-05
-4.19304e-05
-5.82625e-07
5.84833e-07
-5.81912e-07
4.19324e-05
4.03162e-05
-4.19583e-05
6.00894e-07
-6.03772e-07
6.00471e-07
-6.02913e-07
-4.0314e-05
4.19605e-05
3.8078e-07
3.92459e-07
3.77744e-07
3.91424e-07
-3.99886e-07
-3.78811e-07
-3.98451e-07
4.02959e-05
-4.19316e-05
-5.82733e-07
5.83948e-07
-5.82122e-07
4.19323e-05
4.03155e-05
-4.1959e-05
6.00191e-07
-6.03336e-07
5.99954e-07
-6.01833e-07
-4.03136e-05
4.19618e-05
3.80027e-07
3.91388e-07
3.76795e-07
3.90307e-07
-3.99806e-07
-3.77507e-07
-3.97136e-07
4.02945e-05
-4.19324e-05
-5.82756e-07
5.83279e-07
-5.81434e-07
4.19332e-05
4.03149e-05
-4.19592e-05
5.99795e-07
-6.02471e-07
5.99848e-07
-6.01868e-07
-4.03124e-05
4.19617e-05
3.79091e-07
3.90527e-07
3.76809e-07
3.90454e-07
-3.98692e-07
-3.77605e-07
-3.97242e-07
4.0294e-05
-4.19323e-05
-5.82195e-07
5.83466e-07
-5.81503e-07
4.19333e-05
4.03146e-05
-4.19594e-05
5.99518e-07
-6.02535e-07
5.99523e-07
-6.01743e-07
-4.03124e-05
4.19617e-05
3.79001e-07
3.90659e-07
3.76223e-07
3.89888e-07
-3.98466e-07
-3.76927e-07
-3.96387e-07
4.02941e-05
-4.19327e-05
-5.81983e-07
5.82807e-07
-5.80836e-07
4.19339e-05
4.03145e-05
-4.19592e-05
5.99485e-07
-6.02437e-07
5.9978e-07
-6.01984e-07
-4.03125e-05
4.19614e-05
3.78754e-07
3.90323e-07
3.76749e-07
3.90296e-07
-3.98264e-07
-3.77862e-07
-3.9719e-07
4.02936e-05
-4.19323e-05
-5.81753e-07
5.83215e-07
-5.81293e-07
4.19334e-05
4.03147e-05
-4.19583e-05
5.99792e-07
-6.0255e-07
6.00321e-07
-6.02148e-07
-4.03127e-05
4.19614e-05
3.7927e-07
3.90692e-07
3.77298e-07
3.90808e-07
-3.98646e-07
-3.78036e-07
-3.97802e-07
4.02941e-05
-4.19318e-05
-5.82034e-07
5.83613e-07
-5.81805e-07
4.19325e-05
4.03156e-05
-4.19578e-05
6.00334e-07
-6.033e-07
6.00889e-07
-6.02829e-07
-4.03132e-05
4.19606e-05
3.79963e-07
3.91479e-07
3.78286e-07
3.91621e-07
-3.99606e-07
-3.7905e-07
-3.98323e-07
4.02946e-05
-4.19313e-05
-5.82684e-07
5.84073e-07
-5.82025e-07
4.19322e-05
4.0316e-05
-4.19582e-05
6.00656e-07
-6.03544e-07
6.00552e-07
-6.02712e-07
-4.03136e-05
4.19605e-05
3.80613e-07
3.91929e-07
3.77971e-07
3.91299e-07
-3.99852e-07
-3.78917e-07
-3.98178e-07
4.0295e-05
-4.19314e-05
-5.82677e-07
5.83975e-07
-5.81975e-07
4.19322e-05
4.03157e-05
-4.19583e-05
6.00434e-07
-6.03504e-07
6.00625e-07
-6.0277e-07
-4.03136e-05
4.19605e-05
3.80369e-07
3.91802e-07
3.77862e-07
3.91221e-07
-3.99786e-07
-3.78899e-07
-3.98389e-07
4.02948e-05
-4.19316e-05
-5.82689e-07
5.83948e-07
-5.82226e-07
4.19322e-05
4.03156e-05
-4.19589e-05
6.00489e-07
-6.03175e-07
5.99942e-07
-6.01835e-07
-4.03135e-05
4.19618e-05
3.80086e-07
3.91432e-07
3.76971e-07
3.90432e-07
-3.99389e-07
-3.77676e-07
-3.97008e-07
4.02945e-05
-4.19322e-05
-5.8246e-07
5.83235e-07
-5.81046e-07
4.19333e-05
4.03148e-05
-4.19591e-05
5.9976e-07
-6.02687e-07
5.99897e-07
-6.01775e-07
-4.03126e-05
4.19618e-05
3.79174e-07
3.906e-07
3.76599e-07
3.90007e-07
-3.98644e-07
-3.77275e-07
-3.96602e-07
4.0294e-05
-4.19326e-05
-5.81911e-07
5.82834e-07
-5.80895e-07
4.19337e-05
4.03146e-05
-4.19593e-05
5.99773e-07
-6.02531e-07
5.99741e-07
-6.01618e-07
-4.03123e-05
4.19619e-05
3.78883e-07
3.90267e-07
3.76421e-07
3.89692e-07
-3.98049e-07
-3.77348e-07
-3.96849e-07
4.02933e-05
-4.19326e-05
-5.81417e-07
5.82642e-07
-5.81087e-07
4.19334e-05
4.03145e-05
-4.19591e-05
5.99412e-07
-6.02323e-07
5.99885e-07
-6.02046e-07
-4.03123e-05
4.19615e-05
3.78614e-07
3.9011e-07
3.76751e-07
3.90372e-07
-3.98077e-07
-3.77509e-07
-3.97267e-07
4.02926e-05
-4.19327e-05
-5.81499e-07
5.82949e-07
-5.81427e-07
4.1933e-05
4.03148e-05
-4.19577e-05
5.99563e-07
-6.02316e-07
6.01971e-07
-6.04303e-07
-4.03127e-05
4.19601e-05
3.78842e-07
3.90183e-07
3.79397e-07
3.93033e-07
-3.98445e-07
-3.80414e-07
-3.99893e-07
4.02925e-05
-4.19314e-05
-5.81769e-07
5.85063e-07
-5.83409e-07
4.19319e-05
4.03147e-05
-4.19425e-05
5.97623e-07
-6.00469e-07
6.05084e-07
-6.07476e-07
-4.03127e-05
4.19455e-05
3.76679e-07
3.88347e-07
3.84173e-07
3.97828e-07
-3.96135e-07
-3.84999e-07
-4.05106e-07
4.02925e-05
-4.19167e-05
-5.79667e-07
5.87716e-07
-5.86461e-07
4.19169e-05
4.0285e-05
-4.18051e-05
5.98274e-07
-6.0081e-07
5.22159e-07
-5.25979e-07
-4.02827e-05
4.18078e-05
3.80231e-07
3.91577e-07
2.63457e-07
2.78884e-07
-3.99929e-07
-2.65118e-07
-2.86857e-07
4.02625e-05
-4.17803e-05
-5.80179e-07
5.05642e-07
-5.04457e-07
4.17798e-05
3.99898e-05
-4.05406e-05
7.0378e-07
-7.05962e-07
2.47638e-07
-2.54e-07
-3.9988e-05
4.05446e-05
5.96262e-07
6.05281e-07
-2.36675e-07
-2.15714e-07
-6.13811e-07
2.33411e-07
2.17168e-07
3.99691e-05
-4.05129e-05
-6.86577e-07
2.32413e-07
-2.33221e-07
4.05134e-05
3.89428e-05
-3.9561e-05
1.18199e-06
-1.18406e-06
-1.16791e-06
1.15721e-06
-3.89441e-05
3.95672e-05
1.23954e-06
1.24746e-06
-1.85486e-06
-1.83289e-06
-1.24992e-06
1.84614e-06
1.82381e-06
3.89213e-05
-3.95374e-05
-1.16575e-06
-1.17659e-06
1.17451e-06
3.95228e-05
3.66143e-05
-3.47335e-05
2.69198e-06
-2.70161e-06
-4.69343e-06
4.67152e-06
-3.66166e-05
3.46987e-05
3.20167e-06
3.21238e-06
-6.41559e-06
-6.40385e-06
-3.23122e-06
6.40163e-06
6.38949e-06
3.66041e-05