/*--------------------------------*- C++ -*----------------------------------*\
| =========                 |                                                 |
| \\      /  F ield         | OpenFOAM: The Open Source CFD Toolbox           |
|  \\    /   O peration     | Version:  2206                                  |
|   \\  /    A nd           | Website:  www.openfoam.com                      |
|    \\/     M anipulation  |                                                 |
\*---------------------------------------------------------------------------*/
FoamFile
{
    version     2.0;
    format      ascii;
    arch        "LSB;label=32;scalar=64";
    class       surfaceScalarField;
    location    "17.5";
    object      phi;
}
// * * * * * * * * * * * * * * * * * * * * * * * * * * * * * * * * * * * * * //

dimensions      [0 3 -1 0 0 0 0];

oriented        oriented;

internalField   nonuniform List<scalar> 
82026
(
1.19149e-09
1.31833e-09
-0.0010744
-1.21912e-09
-1.18815e-09
0.0010744
-0.00107488
-1.18519e-06
-1.35192e-09
2.03852e-09
0.00107488
-2.37083e-07
1.18727e-06
2.36276e-07
8.65529e-07
-2.29806e-07
-8.65357e-07
2.27844e-07
-0.00107454
-1.17982e-06
-1.41736e-09
1.97482e-09
0.00107454
-2.37044e-07
1.18191e-06
2.36314e-07
8.65371e-07
-2.32409e-07
-8.65209e-07
2.30549e-07
-0.000264268
1.21315e-06
1.17994e-06
-2.19952e-07
-2.25164e-07
0.00026232
1.51931e-09
1.60699e-09
-0.0010744
-1.34238e-09
-1.35088e-09
0.0010744
-0.00107487
-1.18512e-06
-1.6331e-09
1.84517e-09
0.00107487
-2.36997e-07
1.18733e-06
2.36363e-07
8.65589e-07
-2.29681e-07
-8.65298e-07
2.27973e-07
-0.00107454
-1.17975e-06
-1.6499e-09
1.80751e-09
0.00107454
-2.36967e-07
1.18201e-06
2.36425e-07
8.65459e-07
-2.32312e-07
-8.65169e-07
2.30685e-07
-0.000264268
1.21309e-06
1.17987e-06
-2.19883e-07
-2.25104e-07
0.00026232
2.08899e-09
2.02407e-09
-0.0010744
-1.49181e-09
-1.63316e-09
0.0010744
-0.00107487
-1.18502e-06
-2.05489e-09
1.4663e-09
0.00107487
-2.36893e-07
1.18751e-06
2.36553e-07
8.65801e-07
-2.296e-07
-8.65197e-07
2.28149e-07
-0.00107453
-1.17959e-06
-1.98376e-09
1.54006e-09
0.00107453
-2.36808e-07
1.18219e-06
2.36611e-07
8.65663e-07
-2.32165e-07
-8.64998e-07
2.30884e-07
-0.000264267
1.21295e-06
1.17972e-06
-2.19693e-07
-2.24933e-07
0.000262319
-1.6001e-10
-1.40907e-10
-0.0010744
-5.61327e-10
-5.92874e-10
0.0010744
-0.00107487
-1.18553e-06
1.10473e-10
2.59563e-09
0.00107487
-2.37519e-07
1.18697e-06
2.35898e-07
8.6511e-07
-2.30585e-07
-8.65949e-07
2.27121e-07
-0.00107453
-1.18015e-06
-1.11688e-10
2.44275e-09
0.00107454
-2.37474e-07
1.18172e-06
2.36063e-07
8.65031e-07
-2.33288e-07
-8.65782e-07
2.29865e-07
-0.000264267
1.2135e-06
1.18028e-06
-2.20436e-07
-2.25671e-07
0.00026232
9.02382e-10
1.13332e-09
-0.0010744
-1.11943e-09
-1.00097e-09
0.0010744
-0.00107488
-1.18525e-06
-1.19555e-09
2.1392e-09
0.00107488
-2.37152e-07
1.18729e-06
2.36317e-07
8.65525e-07
-2.30029e-07
-8.65488e-07
2.27794e-07
-0.00107454
-1.17989e-06
-1.448e-09
2.07874e-09
0.00107454
-2.37131e-07
1.18192e-06
2.36324e-07
8.65427e-07
-2.32567e-07
-8.65279e-07
2.30537e-07
-0.000264268
1.21316e-06
1.18001e-06
-2.20034e-07
-2.25195e-07
0.00026232
1.10616e-09
1.21403e-09
-0.0010744
-1.17057e-09
-1.15004e-09
0.0010744
-0.00107488
-1.18522e-06
-1.24684e-09
2.03773e-09
0.00107488
-2.3713e-07
1.18731e-06
2.36328e-07
8.65535e-07
-2.29952e-07
-8.65472e-07
2.27832e-07
-0.00107454
-1.17988e-06
-1.33093e-09
2.05006e-09
0.00107454
-2.3713e-07
1.18193e-06
2.3633e-07
8.65383e-07
-2.32573e-07
-8.6533e-07
2.3052e-07
-0.000264268
1.21319e-06
1.18001e-06
-2.20022e-07
-2.25219e-07
0.00026232
1.12881e-09
1.20788e-09
-0.0010744
-1.17091e-09
-1.18082e-09
0.0010744
-0.00107488
-1.18522e-06
-1.2262e-09
2.01155e-09
0.00107488
-2.37127e-07
1.18731e-06
2.3633e-07
8.65532e-07
-2.29957e-07
-8.65475e-07
2.27828e-07
-0.00107454
-1.17987e-06
-1.26684e-09
2.01715e-09
0.00107454
-2.37121e-07
1.18194e-06
2.36337e-07
8.65365e-07
-2.32584e-07
-8.65344e-07
2.30505e-07
-0.000264268
1.21321e-06
1.18e-06
-2.20013e-07
-2.25229e-07
0.00026232
1.13366e-09
1.20329e-09
-0.0010744
-1.16876e-09
-1.18902e-09
0.0010744
-0.00107488
-1.18522e-06
-1.22135e-09
2.00279e-09
0.00107488
-2.37126e-07
1.18731e-06
2.36332e-07
8.65531e-07
-2.29959e-07
-8.65477e-07
2.27827e-07
-0.00107454
-1.17987e-06
-1.25247e-09
2.01472e-09
0.00107454
-2.37121e-07
1.18194e-06
2.36338e-07
8.65364e-07
-2.32591e-07
-8.6535e-07
2.30502e-07
-0.000264268
1.21321e-06
1.18e-06
-2.20015e-07
-2.25235e-07
0.00026232
1.13044e-09
1.19442e-09
-0.0010744
-1.16357e-09
-1.18895e-09
0.0010744
-0.00107488
-1.18522e-06
-1.21699e-09
2.00364e-09
0.00107488
-2.37127e-07
1.18731e-06
2.36331e-07
8.6553e-07
-2.2996e-07
-8.65477e-07
2.27826e-07
-0.00107454
-1.17987e-06
-1.23995e-09
2.01996e-09
0.00107454
-2.37122e-07
1.18194e-06
2.36336e-07
8.65361e-07
-2.32594e-07
-8.65352e-07
2.30498e-07
-0.000264268
1.21321e-06
1.18e-06
-2.20015e-07
-2.25236e-07
0.00026232
1.12511e-09
1.19155e-09
-0.0010744
-1.16128e-09
-1.18486e-09
0.0010744
-0.00107488
-1.18522e-06
-1.21507e-09
2.00504e-09
0.00107488
-2.37127e-07
1.18731e-06
2.36331e-07
8.65529e-07
-2.29961e-07
-8.65478e-07
2.27824e-07
-0.00107454
-1.17987e-06
-1.24269e-09
2.02099e-09
0.00107454
-2.37122e-07
1.18194e-06
2.36337e-07
8.65361e-07
-2.32595e-07
-8.65352e-07
2.30498e-07
-0.000264268
1.21321e-06
1.18e-06
-2.20016e-07
-2.25237e-07
0.00026232
1.13214e-09
1.19941e-09
-0.0010744
-1.16744e-09
-1.1888e-09
0.0010744
-0.00107488
-1.18522e-06
-1.21466e-09
2.00514e-09
0.00107488
-2.37127e-07
1.18731e-06
2.36331e-07
8.6553e-07
-2.2996e-07
-8.65477e-07
2.27825e-07
-0.00107454
-1.17987e-06
-1.24842e-09
2.01874e-09
0.00107454
-2.3712e-07
1.18194e-06
2.36338e-07
8.65363e-07
-2.32593e-07
-8.6535e-07
2.305e-07
-0.000264268
1.21321e-06
1.18e-06
-2.20015e-07
-2.25236e-07
0.00026232
1.13556e-09
1.20305e-09
-0.0010744
-1.16867e-09
-1.19122e-09
0.0010744
-0.00107488
-1.18522e-06
-1.22195e-09
2.00066e-09
0.00107488
-2.37126e-07
1.18731e-06
2.36333e-07
8.65531e-07
-2.2996e-07
-8.65477e-07
2.27826e-07
-0.00107454
-1.17987e-06
-1.2496e-09
2.01765e-09
0.00107454
-2.37121e-07
1.18194e-06
2.36338e-07
8.65363e-07
-2.32593e-07
-8.6535e-07
2.305e-07
-0.000264268
1.21321e-06
1.18e-06
-2.20016e-07
-2.25236e-07
0.00026232
1.1375e-09
1.20471e-09
-0.0010744
-1.16907e-09
-1.19185e-09
0.0010744
-0.00107488
-1.18522e-06
-1.2286e-09
1.99958e-09
0.00107488
-2.37124e-07
1.18731e-06
2.36333e-07
8.65533e-07
-2.29958e-07
-8.65475e-07
2.27828e-07
-0.00107454
-1.17987e-06
-1.25419e-09
2.01821e-09
0.00107454
-2.3712e-07
1.18194e-06
2.36339e-07
8.65364e-07
-2.32592e-07
-8.65349e-07
2.30501e-07
-0.000264268
1.21321e-06
1.18e-06
-2.20014e-07
-2.25234e-07
0.00026232
1.13865e-09
1.20891e-09
-0.0010744
-1.17253e-09
-1.19176e-09
0.0010744
-0.00107488
-1.18522e-06
-1.22419e-09
2.00199e-09
0.00107488
-2.37127e-07
1.18731e-06
2.36334e-07
8.65533e-07
-2.29961e-07
-8.65476e-07
2.27829e-07
-0.00107454
-1.17987e-06
-1.25723e-09
2.0132e-09
0.00107454
-2.37119e-07
1.18194e-06
2.36341e-07
8.65365e-07
-2.32592e-07
-8.65349e-07
2.30503e-07
-0.000264268
1.21321e-06
1.18e-06
-2.20015e-07
-2.25235e-07
0.00026232
1.13878e-09
1.20518e-09
-0.0010744
-1.17005e-09
-1.19324e-09
0.0010744
-0.00107488
-1.18522e-06
-1.22521e-09
1.99881e-09
0.00107488
-2.37121e-07
1.18731e-06
2.36331e-07
8.65528e-07
-2.29951e-07
-8.65472e-07
2.27821e-07
-0.00107454
-1.17987e-06
-1.25155e-09
2.01659e-09
0.00107454
-2.37119e-07
1.18194e-06
2.36337e-07
8.6536e-07
-2.32591e-07
-8.65347e-07
2.30498e-07
-0.000264268
1.21321e-06
1.17999e-06
-2.2001e-07
-2.25231e-07
0.00026232
1.13e-09
1.19895e-09
-0.0010744
-1.16331e-09
-1.18924e-09
0.0010744
-0.00107488
-1.18521e-06
-1.22736e-09
1.99576e-09
0.00107488
-2.37116e-07
1.18731e-06
2.36326e-07
8.65522e-07
-2.29945e-07
-8.65468e-07
2.27814e-07
-0.00107454
-1.17987e-06
-1.24562e-09
2.01713e-09
0.00107454
-2.37124e-07
1.18194e-06
2.3634e-07
8.65357e-07
-2.32592e-07
-8.65347e-07
2.30496e-07
-0.000264268
1.21321e-06
1.17999e-06
-2.2001e-07
-2.25231e-07
0.00026232
1.13661e-09
1.18055e-09
-0.0010744
-1.15049e-09
-1.19766e-09
0.0010744
-0.00107488
-1.1852e-06
-1.23022e-09
1.99451e-09
0.00107488
-2.37106e-07
1.1873e-06
2.36314e-07
8.6551e-07
-2.29926e-07
-8.65453e-07
2.27793e-07
-0.00107454
-1.17987e-06
-1.23785e-09
2.03188e-09
0.00107454
-2.37116e-07
1.18193e-06
2.36326e-07
8.65343e-07
-2.32576e-07
-8.65332e-07
2.30478e-07
-0.000264268
1.2132e-06
1.17999e-06
-2.20003e-07
-2.25227e-07
0.00026232
1.20552e-09
-0.0010744
-1.23749e-09
-0.00107454
-1.17985e-06
-1.29324e-09
-2.37085e-07
1.1819e-06
2.36288e-07
-2.32509e-07
2.30461e-07
-1.22051e-06
-1.18463e-06
0.000264284
-0.000262326
2.19513e-07
2.27235e-07
0.0010741
-1.16959e-09
2.11014e-09
-1.21846e-06
2.41589e-07
-2.42461e-07
-8.65344e-07
2.27704e-07
-2.29822e-07
8.65417e-07
1.22591e-06
0.00107453
-1.05286e-09
2.09167e-09
-1.22385e-06
2.44366e-07
-2.45224e-07
-8.70919e-07
2.30465e-07
-2.32648e-07
8.70937e-07
-1.18726e-06
0.000264313
-0.000262346
2.22262e-07
2.24553e-07
0.00107514
-1.27618e-09
2.05822e-09
-1.18259e-06
2.39032e-07
-2.39862e-07
-8.68082e-07
2.30533e-07
-2.32607e-07
8.68233e-07
1.22057e-06
0.00107421
-1.16995e-09
-0.00107421
2.05848e-09
-1.21852e-06
2.44358e-07
-2.45215e-07
-8.68051e-07
2.3049e-07
-2.32539e-07
8.68119e-07
-1.31205e-09
2.0535e-09
-1.18519e-06
2.3626e-07
-2.37086e-07
-8.65375e-07
2.27801e-07
8.65497e-07
-2.29847e-07
1.21523e-06
0.00107401
-1.2116e-09
-0.00107401
2.04482e-09
-1.21317e-06
2.38886e-07
-2.39688e-07
-8.65376e-07
2.27737e-07
-2.2979e-07
8.65445e-07
-1.1819e-06
0.000264263
-0.000262308
2.19713e-07
2.27048e-07
-1.3836e-09
-0.00107454
2.00253e-09
-1.17984e-06
2.36285e-07
-2.37078e-07
-8.65188e-07
2.30493e-07
8.6541e-07
-2.32474e-07
1.182e-06
0.00107505
-1.21186e-09
-0.00107505
1.97352e-09
-1.17996e-06
2.36336e-07
-2.37138e-07
-8.65484e-07
2.30544e-07
-2.32574e-07
8.65621e-07
-0.00026232
2.22022e-07
2.27276e-07
1.21846e-06
1.1826e-06
-2.17489e-07
-2.2516e-07
0.000262326
-1.22056e-06
-1.18468e-06
0.000264284
-0.000262325
2.19593e-07
2.27317e-07
2.08581e-09
0.0010741
-2.4246e-07
1.22052e-06
2.41608e-07
8.65427e-07
-2.29786e-07
-8.65335e-07
2.27742e-07
-1.22385e-06
-1.10555e-09
2.07025e-09
0.00107453
-2.45223e-07
1.22592e-06
2.44385e-07
8.70959e-07
-2.3261e-07
-8.70903e-07
2.30505e-07
0.0010741
-1.43553e-09
-0.0010741
1.97734e-09
-1.21842e-06
2.41668e-07
-2.42392e-07
-8.65275e-07
2.2785e-07
-2.29682e-07
8.65491e-07
1.22596e-06
0.00107453
-1.32814e-09
-0.00107453
1.95834e-09
-1.22381e-06
2.44446e-07
-2.45155e-07
-8.70843e-07
2.30612e-07
-2.32508e-07
8.71017e-07
-2.20193e-07
-2.22471e-07
0.000262346
-1.18731e-06
0.000264312
-0.000262346
2.22344e-07
2.24635e-07
2.04832e-09
0.00107514
-2.39863e-07
1.18463e-06
2.39048e-07
8.68258e-07
-2.3257e-07
-8.68059e-07
2.30576e-07
-1.2185e-06
-1.20586e-09
2.03199e-09
0.00107421
-2.45181e-07
1.22059e-06
2.44387e-07
8.68131e-07
-2.32494e-07
-8.68026e-07
2.30523e-07
0.00107514
-1.55735e-09
-0.00107514
1.92012e-09
-1.18255e-06
2.39112e-07
-2.39795e-07
-8.68007e-07
2.30684e-07
-2.32464e-07
8.68314e-07
1.22062e-06
0.00107421
-1.47514e-09
-0.00107421
1.90008e-09
-1.21846e-06
2.44434e-07
-2.45127e-07
-8.67976e-07
2.30614e-07
-2.32407e-07
8.68181e-07
-1.25217e-09
2.01392e-09
0.00107401
-2.39656e-07
1.21524e-06
2.38912e-07
8.65459e-07
-2.2975e-07
2.2777e-07
-8.65351e-07
-1.59894e-09
-0.00107487
1.91563e-09
-1.18514e-06
2.36339e-07
-2.37018e-07
-8.65296e-07
2.27951e-07
8.65578e-07
-2.29704e-07
1.21528e-06
0.00107401
-1.51384e-09
-0.00107401
1.88652e-09
-1.2131e-06
2.3896e-07
-2.39603e-07
-8.65302e-07
2.27862e-07
-2.2966e-07
8.65506e-07
-2.17625e-07
-2.24949e-07
0.000262307
-1.18196e-06
0.000264263
-0.000262307
2.19796e-07
2.27127e-07
-1.24595e-09
1.94836e-09
0.00107505
-2.37107e-07
1.18201e-06
2.36361e-07
8.65634e-07
-2.32533e-07
2.30577e-07
-8.65461e-07
-1.68492e-09
-0.00107454
1.84065e-09
-1.17977e-06
2.36364e-07
-2.36991e-07
-8.65117e-07
2.30615e-07
8.65468e-07
-2.32345e-07
1.18205e-06
0.00107504
-1.52258e-09
-0.00107505
1.81878e-09
-1.17989e-06
2.3641e-07
-2.37055e-07
-8.6541e-07
2.3067e-07
-2.32443e-07
8.65684e-07
-0.00026232
2.22104e-07
2.27354e-07
1.2184e-06
1.18253e-06
-2.17407e-07
-2.25081e-07
0.000262325
-1.22058e-06
-1.18473e-06
0.000264283
-0.000262325
2.19664e-07
2.27356e-07
1.93143e-09
0.0010741
-2.4238e-07
1.22057e-06
2.4168e-07
8.65493e-07
-2.29652e-07
-8.6526e-07
2.27872e-07
-1.2238e-06
-1.44157e-09
1.92566e-09
0.00107453
-2.45145e-07
1.22597e-06
2.44455e-07
8.71027e-07
-2.32476e-07
-8.70826e-07
2.30637e-07
0.0010741
-1.66643e-09
-0.0010741
1.92192e-09
-1.21839e-06
2.41699e-07
-2.42367e-07
-8.65236e-07
2.27922e-07
-2.29617e-07
8.65528e-07
1.22598e-06
0.00107453
-1.55987e-09
-0.00107453
1.914e-09
-1.22379e-06
2.44475e-07
-2.45134e-07
-8.70807e-07
2.30689e-07
-2.3244e-07
8.71055e-07
-2.2011e-07
-2.22395e-07
0.000262346
-1.18738e-06
0.000264312
-0.000262346
2.22427e-07
2.24673e-07
1.86053e-09
0.00107514
-2.39778e-07
1.18469e-06
2.39128e-07
8.68316e-07
-2.32438e-07
-8.67989e-07
2.30704e-07
-1.21844e-06
-1.49998e-09
1.90356e-09
0.00107421
-2.45111e-07
1.22067e-06
2.44487e-07
8.68234e-07
-2.32388e-07
-8.67971e-07
2.30672e-07
0.00107514
-1.72107e-09
-0.00107514
1.78316e-09
-1.1825e-06
2.39175e-07
-2.39741e-07
-8.67993e-07
2.3074e-07
-2.32413e-07
8.68328e-07
1.22076e-06
0.00107421
-1.93244e-09
-0.00107421
1.71422e-09
-1.21841e-06
2.44579e-07
-2.45079e-07
-8.67911e-07
2.30798e-07
-2.32332e-07
8.68369e-07
-1.52414e-09
1.8883e-09
0.00107401
-2.39587e-07
1.21533e-06
2.39013e-07
8.65552e-07
-2.29646e-07
2.27914e-07
-8.65303e-07
-1.82572e-09
-0.00107487
1.75508e-09
-1.18508e-06
2.36423e-07
-2.36955e-07
-8.65295e-07
2.28031e-07
8.65631e-07
-2.29653e-07
1.21543e-06
0.00107401
-1.97606e-09
-0.00107401
1.68486e-09
-1.21305e-06
2.39116e-07
-2.3955e-07
-8.65239e-07
2.28049e-07
-2.29582e-07
8.65696e-07
-2.17556e-07
-2.24888e-07
0.000262307
-1.18212e-06
0.000264262
-0.000262307
2.1995e-07
2.27253e-07
-1.49286e-09
1.79613e-09
0.00107504
-2.37034e-07
1.18211e-06
2.36466e-07
8.65728e-07
-2.32432e-07
2.30719e-07
-8.65415e-07
-2.07198e-09
-0.00107453
1.56692e-09
-1.1797e-06
2.36539e-07
-2.36916e-07
-8.65072e-07
2.30781e-07
8.65639e-07
-2.32284e-07
1.18222e-06
0.00107504
-1.92141e-09
-0.00107504
1.55664e-09
-1.17982e-06
2.36586e-07
-2.36982e-07
-8.65362e-07
2.30841e-07
-2.32379e-07
8.65856e-07
-0.00026232
2.22256e-07
2.27489e-07
1.21834e-06
1.18244e-06
-2.17342e-07
-2.25048e-07
0.000262325
-1.22026e-06
-1.18445e-06
0.000264283
-0.000262324
2.19257e-07
2.2691e-07
1.68137e-09
0.0010741
-2.42312e-07
1.22072e-06
2.4185e-07
8.657e-07
-2.29564e-07
-8.65184e-07
2.28074e-07
-1.22373e-06
-2.018e-09
1.69722e-09
0.00107453
-2.45079e-07
1.22612e-06
2.44623e-07
8.71236e-07
-2.32379e-07
-8.70747e-07
2.30845e-07
0.0010741
-4.44117e-10
-0.0010741
2.61261e-09
-1.21867e-06
2.41292e-07
-2.4271e-07
-8.65637e-07
2.27366e-07
-2.30037e-07
8.65062e-07
1.22563e-06
0.00107453
-3.97094e-10
-0.00107453
2.67857e-09
-1.2241e-06
2.44042e-07
-2.45506e-07
-8.71198e-07
2.30151e-07
-2.32844e-07
8.70602e-07
-2.20037e-07
-2.22359e-07
0.000262345
-1.18709e-06
0.000264311
-0.000262345
2.22016e-07
2.24181e-07
1.47487e-09
0.00107514
-2.39676e-07
1.18488e-06
2.39331e-07
8.68485e-07
-2.32377e-07
-8.67943e-07
2.30872e-07
-1.21831e-06
-1.98625e-09
1.78095e-09
0.00107421
-2.44984e-07
1.22082e-06
2.44642e-07
8.68466e-07
-2.32219e-07
-8.67778e-07
2.30897e-07
0.00107514
-1.84781e-10
-0.00107513
2.20764e-09
-1.18272e-06
2.38812e-07
-2.40031e-07
-8.68492e-07
2.30112e-07
-2.32916e-07
8.67784e-07
1.22022e-06
0.00107421
8.93945e-11
-0.00107421
2.99644e-09
-1.21894e-06
2.43923e-07
-2.45733e-07
-8.68582e-07
2.29843e-07
-2.33194e-07
8.67683e-07
-2.00148e-09
1.76527e-09
0.001074
-2.39452e-07
1.21548e-06
2.39172e-07
8.6579e-07
-2.29474e-07
2.28141e-07
-8.65105e-07
-2.23743e-11
-0.00107487
2.15555e-09
-1.1853e-06
2.36055e-07
-2.3724e-07
-8.65882e-07
2.27326e-07
8.65041e-07
-2.30249e-07
1.2149e-06
0.00107401
1.44778e-10
-0.001074
2.92182e-09
-1.21357e-06
2.38469e-07
-2.40192e-07
-8.65959e-07
2.27053e-07
-2.3049e-07
8.6497e-07
-2.17365e-07
-2.24725e-07
0.000262307
-1.18162e-06
0.000264262
-0.000262306
2.19288e-07
2.26563e-07
-1.84734e-09
1.54478e-09
0.00107504
-2.36874e-07
1.18228e-06
2.36655e-07
8.65936e-07
-2.3228e-07
2.30922e-07
-8.65239e-07
1.72363e-10
-0.00107453
2.57693e-09
-1.18018e-06
2.35926e-07
-2.37516e-07
-8.65822e-07
2.2977e-07
8.64894e-07
-2.33214e-07
1.18171e-06
0.00107504
2.82871e-10
-0.00107504
2.60921e-09
-1.18031e-06
2.35966e-07
-2.37592e-07
-8.66115e-07
2.29827e-07
-2.33313e-07
8.65109e-07
-0.000262319
2.21583e-07
2.26802e-07
1.21884e-06
1.18294e-06
-2.17947e-07
-2.25667e-07
0.000262324
-1.22054e-06
-1.18462e-06
0.000264284
-0.000262326
2.19484e-07
2.27241e-07
2.74146e-09
0.0010741
-2.42941e-07
1.22021e-06
2.4121e-07
8.64939e-07
-2.30505e-07
-8.65934e-07
2.27033e-07
-1.22425e-06
1.87501e-10
2.74713e-09
0.00107453
-2.45718e-07
1.22561e-06
2.43984e-07
8.70488e-07
-2.33303e-07
-8.71483e-07
2.29822e-07
0.0010741
-7.16513e-10
-0.0010741
2.15986e-09
-1.21854e-06
2.41639e-07
-2.42558e-07
-8.65534e-07
2.27547e-07
-2.30202e-07
8.6539e-07
1.22595e-06
0.00107453
-6.01297e-10
-0.00107453
2.11486e-09
-1.22392e-06
2.44424e-07
-2.45312e-07
-8.71106e-07
2.30304e-07
-2.3303e-07
8.7091e-07
-2.2065e-07
-2.23007e-07
0.000262345
-1.18726e-06
0.000264313
-0.000262346
2.22236e-07
2.24573e-07
2.63051e-09
0.00107514
-2.40297e-07
1.18435e-06
2.38679e-07
8.67746e-07
-2.33338e-07
-8.68707e-07
2.29836e-07
-1.21886e-06
3.24898e-11
2.55897e-09
0.00107421
-2.45648e-07
1.22038e-06
2.44117e-07
8.67794e-07
-2.33335e-07
-8.68567e-07
2.29861e-07
0.00107514
-9.78471e-10
-0.00107514
2.25876e-09
-1.18272e-06
2.39046e-07
-2.39996e-07
-8.68223e-07
2.30418e-07
-2.32942e-07
8.68246e-07
1.22065e-06
0.00107421
-8.91479e-10
-0.00107421
1.89538e-09
-1.21852e-06
2.44459e-07
-2.45216e-07
-8.68207e-07
2.30398e-07
-2.32802e-07
8.68095e-07
2.16585e-11
2.54526e-09
0.00107401
-2.40115e-07
1.21504e-06
2.38647e-07
8.6512e-07
-2.3061e-07
2.27097e-07
-8.65906e-07
-1.05383e-09
-0.00107488
2.25645e-09
-1.1853e-06
2.36278e-07
-2.37217e-07
-8.65522e-07
2.27694e-07
8.65503e-07
-2.30176e-07
1.21531e-06
0.00107401
-9.624e-10
-0.00107401
1.91194e-09
-1.21317e-06
2.3898e-07
-2.39699e-07
-8.65522e-07
2.2765e-07
-2.30045e-07
8.65426e-07
-2.18105e-07
-2.2546e-07
0.000262307
-1.18191e-06
0.000264263
-0.000262307
2.1971e-07
2.27107e-07
5.62895e-11
2.44552e-09
0.00107504
-2.37542e-07
1.18182e-06
2.36107e-07
8.65288e-07
-2.33408e-07
2.29896e-07
-8.66036e-07
-1.38831e-09
-0.00107454
2.08095e-09
-1.1799e-06
2.36323e-07
-2.3714e-07
-8.65247e-07
2.30473e-07
8.65477e-07
-2.32662e-07
1.18202e-06
0.00107505
-1.17831e-09
-0.00107505
2.05502e-09
-1.18002e-06
2.36374e-07
-2.37199e-07
-8.65558e-07
2.30514e-07
-2.32772e-07
8.65676e-07
-0.00026232
2.2202e-07
2.27328e-07
1.2185e-06
1.18267e-06
-2.1756e-07
-2.25204e-07
0.000262326
-1.22055e-06
-1.18467e-06
0.000264284
-0.000262326
2.19548e-07
2.27271e-07
2.09564e-09
0.0010741
-2.42505e-07
1.22056e-06
2.41666e-07
8.65418e-07
-2.30041e-07
-8.65475e-07
2.27659e-07
-1.22389e-06
-8.12354e-10
2.06529e-09
0.00107453
-2.45263e-07
1.22597e-06
2.44448e-07
8.70943e-07
-2.32868e-07
-8.71046e-07
2.30418e-07
0.0010741
-1.12327e-09
-0.0010741
2.09324e-09
-1.2185e-06
2.41656e-07
-2.42502e-07
-8.65429e-07
2.27742e-07
-2.29917e-07
8.65455e-07
1.22595e-06
0.00107453
-1.00439e-09
-0.00107453
2.08127e-09
-1.22389e-06
2.4443e-07
-2.45268e-07
-8.71004e-07
2.30501e-07
-2.32745e-07
8.70976e-07
-2.20263e-07
-2.22504e-07
0.000262346
-1.1873e-06
0.000264313
-0.000262346
2.22298e-07
2.24585e-07
2.15364e-09
0.00107514
-2.39936e-07
1.18465e-06
2.39083e-07
8.68265e-07
-2.32792e-07
-8.68173e-07
2.30521e-07
-1.21852e-06
-9.73246e-10
1.93558e-09
0.00107421
-2.45212e-07
1.22065e-06
2.44453e-07
8.68107e-07
-2.32724e-07
-8.68185e-07
2.30446e-07
0.00107514
-1.23048e-09
-0.00107514
2.05136e-09
-1.18263e-06
2.39096e-07
-2.39908e-07
-8.6817e-07
2.30573e-07
-2.32699e-07
8.68268e-07
1.22062e-06
0.00107421
-1.07777e-09
-0.00107421
2.03836e-09
-1.21854e-06
2.4442e-07
-2.45245e-07
-8.68156e-07
2.30484e-07
-2.32674e-07
8.68137e-07
-1.03653e-09
1.92536e-09
0.00107401
-2.3969e-07
1.21531e-06
2.38976e-07
8.65435e-07
-2.29976e-07
2.27694e-07
-8.65509e-07
-1.25764e-09
-0.00107488
2.0508e-09
-1.18523e-06
2.36323e-07
-2.37133e-07
-8.65466e-07
2.27836e-07
8.65538e-07
-2.29948e-07
1.21528e-06
0.00107401
-1.11347e-09
-0.00107401
2.01454e-09
-1.21318e-06
2.38951e-07
-2.39714e-07
-8.65483e-07
2.27727e-07
-2.29927e-07
8.65457e-07
-2.17708e-07
-2.24974e-07
0.000262307
-1.18193e-06
0.000264263
-0.000262307
2.19733e-07
2.27083e-07
-1.26928e-09
2.04971e-09
0.00107505
-2.37194e-07
1.18202e-06
2.3637e-07
8.65689e-07
-2.32696e-07
2.30564e-07
-8.65537e-07
-1.3659e-09
-0.00107454
2.06873e-09
-1.17988e-06
2.36323e-07
-2.37136e-07
-8.6527e-07
2.30506e-07
8.65444e-07
-2.32587e-07
1.18203e-06
0.00107505
-1.20274e-09
-0.00107505
2.0244e-09
-1.18001e-06
2.36369e-07
-2.37199e-07
-8.6555e-07
2.30563e-07
-2.32674e-07
8.65666e-07
-0.00026232
2.22038e-07
2.27317e-07
1.2185e-06
1.18263e-06
-2.17522e-07
-2.25196e-07
0.000262326
-1.22055e-06
-1.18468e-06
0.000264284
-0.000262326
2.19553e-07
2.27269e-07
2.09935e-09
0.0010741
-2.42506e-07
1.22055e-06
2.41654e-07
8.65446e-07
-2.29918e-07
-8.65438e-07
2.27739e-07
-1.2239e-06
-1.0187e-09
2.09281e-09
0.00107453
-2.45273e-07
1.22595e-06
2.44429e-07
8.70976e-07
-2.32742e-07
-8.71005e-07
2.30502e-07
0.0010741
-1.15835e-09
-0.0010741
2.10594e-09
-1.2185e-06
2.41651e-07
-2.4251e-07
-8.65424e-07
2.27747e-07
-2.29911e-07
8.65461e-07
1.22595e-06
0.00107453
-1.04807e-09
-0.00107453
2.09789e-09
-1.2239e-06
2.44425e-07
-2.45276e-07
-8.70996e-07
2.30509e-07
-2.32736e-07
8.70984e-07
-2.20227e-07
-2.22513e-07
0.000262346
-1.18731e-06
0.000264313
-0.000262346
2.22303e-07
2.24582e-07
2.04744e-09
0.00107514
-2.39908e-07
1.18467e-06
2.39098e-07
8.68265e-07
-2.32704e-07
-8.68171e-07
2.3057e-07
-1.21855e-06
-1.08949e-09
2.0757e-09
0.00107421
-2.45253e-07
1.22061e-06
2.44413e-07
8.68139e-07
-2.3267e-07
-8.68153e-07
2.30486e-07
0.00107514
-1.22485e-09
-0.00107514
2.01931e-09
-1.18263e-06
2.39101e-07
-2.39905e-07
-8.68173e-07
2.3057e-07
-2.32702e-07
8.68267e-07
1.2206e-06
0.00107421
-1.10915e-09
-0.00107421
2.10031e-09
-1.21856e-06
2.44405e-07
-2.45262e-07
-8.68146e-07
2.30492e-07
-2.32665e-07
8.68146e-07
-1.12529e-09
2.04588e-09
0.00107401
-2.39725e-07
1.21528e-06
2.38942e-07
8.65458e-07
-2.2993e-07
2.27726e-07
-8.65486e-07
-1.23799e-09
-0.00107488
2.01261e-09
-1.18522e-06
2.36328e-07
-2.37129e-07
-8.65469e-07
2.27832e-07
8.65536e-07
-2.29954e-07
1.21527e-06
0.00107401
-1.13492e-09
-0.00107401
2.084e-09
-1.2132e-06
2.38933e-07
-2.39735e-07
-8.65474e-07
2.27735e-07
-2.29919e-07
8.65466e-07
-2.17691e-07
-2.25006e-07
0.000262307
-1.18194e-06
0.000264263
-0.000262308
2.19743e-07
2.27071e-07
-1.17077e-09
2.01641e-09
0.00107505
-2.372e-07
1.18203e-06
2.36371e-07
8.65645e-07
-2.32692e-07
2.30548e-07
-8.65574e-07
-1.29284e-09
-0.00107454
2.0148e-09
-1.17987e-06
2.36336e-07
-2.37123e-07
-8.6529e-07
2.30493e-07
8.65429e-07
-2.32602e-07
1.18204e-06
0.00107505
-1.10791e-09
-0.00107505
1.99251e-09
-1.17999e-06
2.36382e-07
-2.37187e-07
-8.65588e-07
2.30545e-07
-2.32701e-07
8.65641e-07
-0.00026232
2.22049e-07
2.273e-07
1.2185e-06
1.18263e-06
-2.17519e-07
-2.25199e-07
0.000262326
-1.22055e-06
-1.18468e-06
0.000264284
-0.000262326
2.19553e-07
2.27268e-07
2.10765e-09
0.0010741
-2.4251e-07
1.22055e-06
2.41651e-07
8.65449e-07
-2.29916e-07
-8.65435e-07
2.27741e-07
-1.2239e-06
-1.04525e-09
2.10534e-09
0.00107453
-2.45278e-07
1.22595e-06
2.44425e-07
8.70981e-07
-2.32738e-07
-8.71001e-07
2.30506e-07
0.0010741
-1.16567e-09
-0.0010741
2.10806e-09
-1.2185e-06
2.4165e-07
-2.42511e-07
-8.65424e-07
2.27748e-07
-2.29911e-07
8.65462e-07
1.22595e-06
0.00107453
-1.0563e-09
-0.00107453
2.10198e-09
-1.2239e-06
2.44424e-07
-2.45278e-07
-8.70996e-07
2.3051e-07
-2.32735e-07
8.70985e-07
-2.20224e-07
-2.22515e-07
0.000262346
-1.18731e-06
0.000264313
-0.000262346
2.22304e-07
2.2458e-07
2.02426e-09
0.00107514
-2.39905e-07
1.18468e-06
2.39101e-07
8.68263e-07
-2.32708e-07
-8.68173e-07
2.30567e-07
-1.21856e-06
-1.10156e-09
2.11744e-09
0.00107421
-2.45265e-07
1.2206e-06
2.44403e-07
8.68142e-07
-2.32664e-07
-8.68148e-07
2.3049e-07
0.00107514
-1.2202e-09
-0.00107514
2.01113e-09
-1.18263e-06
2.39101e-07
-2.39904e-07
-8.68174e-07
2.30569e-07
-2.32704e-07
8.68266e-07
1.2206e-06
0.00107421
-1.10569e-09
-0.00107421
2.11561e-09
-1.21856e-06
2.444e-07
-2.45267e-07
-8.68147e-07
2.30492e-07
-2.32665e-07
8.68145e-07
-1.12877e-09
2.09242e-09
0.00107401
-2.39739e-07
1.21526e-06
2.3893e-07
8.65462e-07
-2.29925e-07
2.2773e-07
-8.6548e-07
-1.22742e-09
-0.00107488
2.00332e-09
-1.18522e-06
2.36329e-07
-2.37128e-07
-8.65473e-07
2.27829e-07
8.65533e-07
-2.29958e-07
1.21526e-06
0.00107401
-1.12812e-09
-0.00107401
2.09913e-09
-1.21321e-06
2.38928e-07
-2.3974e-07
-8.65476e-07
2.27733e-07
-2.29921e-07
8.65464e-07
-2.17683e-07
-2.25015e-07
0.000262308
-1.18194e-06
0.000264263
-0.000262308
2.19743e-07
2.27066e-07
-1.10613e-09
1.99687e-09
0.00107505
-2.37189e-07
1.18204e-06
2.36378e-07
8.6563e-07
-2.32704e-07
2.30535e-07
-8.65585e-07
-1.26543e-09
-0.00107454
2.01159e-09
-1.17987e-06
2.36336e-07
-2.37122e-07
-8.65296e-07
2.30484e-07
8.65419e-07
-2.32608e-07
1.18204e-06
0.00107505
-1.08461e-09
-0.00107505
1.99328e-09
-1.17999e-06
2.36381e-07
-2.37187e-07
-8.65594e-07
2.30533e-07
-2.32709e-07
8.6563e-07
-0.00026232
2.22047e-07
2.27295e-07
1.2185e-06
1.18263e-06
-2.17519e-07
-2.252e-07
0.000262326
-1.22055e-06
-1.18468e-06
0.000264284
-0.000262326
2.19553e-07
2.27266e-07
2.10997e-09
0.0010741
-2.42511e-07
1.22055e-06
2.41651e-07
8.6545e-07
-2.29915e-07
-8.65435e-07
2.27742e-07
-1.2239e-06
-1.05296e-09
2.1063e-09
0.00107453
-2.45279e-07
1.22595e-06
2.44425e-07
8.70982e-07
-2.32737e-07
-8.71e-07
2.30507e-07
0.0010741
-1.16412e-09
-0.0010741
2.11187e-09
-1.2185e-06
2.41648e-07
-2.42512e-07
-8.65424e-07
2.27747e-07
-2.29912e-07
8.65461e-07
1.22595e-06
0.00107453
-1.0542e-09
-0.00107453
2.10262e-09
-1.2239e-06
2.44423e-07
-2.45279e-07
-8.70996e-07
2.3051e-07
-2.32735e-07
8.70985e-07
-2.20223e-07
-2.22517e-07
0.000262346
-1.18731e-06
0.000264313
-0.000262346
2.22304e-07
2.2458e-07
2.01881e-09
0.00107514
-2.39905e-07
1.18468e-06
2.39102e-07
8.68263e-07
-2.32709e-07
-8.68174e-07
2.30566e-07
-1.21857e-06
-1.09887e-09
2.12987e-09
0.00107421
-2.45269e-07
1.2206e-06
2.44399e-07
8.68142e-07
-2.32664e-07
-8.68149e-07
2.3049e-07
0.00107514
-1.21183e-09
-0.00107514
2.01089e-09
-1.18263e-06
2.39101e-07
-2.39905e-07
-8.68176e-07
2.30567e-07
-2.32706e-07
8.68264e-07
1.2206e-06
0.00107421
-1.09924e-09
-0.00107421
2.12156e-09
-1.21857e-06
2.44398e-07
-2.45269e-07
-8.68148e-07
2.30491e-07
-2.32665e-07
8.68143e-07
-1.12596e-09
2.10528e-09
0.00107401
-2.39743e-07
1.21526e-06
2.38926e-07
8.65461e-07
-2.29926e-07
2.27729e-07
-8.65482e-07
-1.22449e-09
-0.00107488
2.00228e-09
-1.18522e-06
2.36329e-07
-2.37129e-07
-8.65472e-07
2.27828e-07
8.65533e-07
-2.29958e-07
1.21526e-06
0.00107401
-1.12821e-09
-0.00107401
2.10581e-09
-1.21321e-06
2.38926e-07
-2.39742e-07
-8.65476e-07
2.27733e-07
-2.2992e-07
8.65464e-07
-2.17683e-07
-2.2502e-07
0.000262308
-1.18194e-06
0.000264263
-0.000262308
2.19742e-07
2.27065e-07
-1.08349e-09
1.99618e-09
0.00107505
-2.37189e-07
1.18204e-06
2.36379e-07
8.65629e-07
-2.32712e-07
2.30531e-07
-8.65588e-07
-1.25425e-09
-0.00107454
2.01434e-09
-1.17987e-06
2.36336e-07
-2.37123e-07
-8.65297e-07
2.30481e-07
8.65418e-07
-2.32611e-07
1.18204e-06
0.00107505
-1.07918e-09
-0.00107505
1.99376e-09
-1.18e-06
2.36381e-07
-2.37187e-07
-8.65589e-07
2.30532e-07
-2.32709e-07
8.65629e-07
-0.00026232
2.22047e-07
2.27294e-07
1.2185e-06
1.18263e-06
-2.17519e-07
-2.25201e-07
0.000262326
-1.22055e-06
-1.18468e-06
0.000264284
-0.000262326
2.19552e-07
2.27265e-07
2.11345e-09
0.0010741
-2.42512e-07
1.22055e-06
2.4165e-07
8.65448e-07
-2.29916e-07
-8.65436e-07
2.27741e-07
-1.2239e-06
-1.04768e-09
2.10766e-09
0.00107453
-2.4528e-07
1.22595e-06
2.44424e-07
8.70981e-07
-2.32738e-07
-8.71001e-07
2.30506e-07
0.0010741
-1.15927e-09
-0.0010741
2.11415e-09
-1.2185e-06
2.41648e-07
-2.42513e-07
-8.65425e-07
2.27746e-07
-2.29912e-07
8.6546e-07
1.22595e-06
0.00107453
-1.05126e-09
-0.00107453
2.10342e-09
-1.2239e-06
2.44423e-07
-2.45279e-07
-8.70997e-07
2.30509e-07
-2.32736e-07
8.70984e-07
-2.20224e-07
-2.22517e-07
0.000262346
-1.18731e-06
0.000264313
-0.000262346
2.22303e-07
2.24579e-07
2.01892e-09
0.00107514
-2.39905e-07
1.18468e-06
2.39101e-07
8.6826e-07
-2.32712e-07
-8.68176e-07
2.30564e-07
-1.21857e-06
-1.09092e-09
2.13604e-09
0.00107421
-2.45271e-07
1.22059e-06
2.44396e-07
8.6814e-07
-2.32666e-07
-8.68151e-07
2.30489e-07
0.00107514
-1.2067e-09
-0.00107514
2.01213e-09
-1.18263e-06
2.391e-07
-2.39905e-07
-8.68177e-07
2.30566e-07
-2.32707e-07
8.68263e-07
1.2206e-06
0.00107421
-1.09667e-09
-0.00107421
2.12462e-09
-1.21857e-06
2.44396e-07
-2.45272e-07
-8.68149e-07
2.30491e-07
-2.32666e-07
8.68143e-07
-1.12662e-09
2.11101e-09
0.00107401
-2.39745e-07
1.21526e-06
2.38924e-07
8.65461e-07
-2.29926e-07
2.2773e-07
-8.65482e-07
-1.22206e-09
-0.00107488
2.00287e-09
-1.18522e-06
2.36329e-07
-2.37128e-07
-8.65473e-07
2.27827e-07
8.65532e-07
-2.29959e-07
1.21526e-06
0.00107401
-1.12864e-09
-0.00107401
2.107e-09
-1.21321e-06
2.38925e-07
-2.39743e-07
-8.65476e-07
2.27733e-07
-2.29921e-07
8.65463e-07
-2.17685e-07
-2.25022e-07
0.000262308
-1.18194e-06
0.000264263
-0.000262308
2.1974e-07
2.27063e-07
-1.06814e-09
1.99728e-09
0.00107505
-2.3719e-07
1.18203e-06
2.36378e-07
8.65626e-07
-2.32716e-07
2.30527e-07
-8.65594e-07
-1.25169e-09
-0.00107454
2.01906e-09
-1.17987e-06
2.36334e-07
-2.37124e-07
-8.65298e-07
2.3048e-07
8.65417e-07
-2.32613e-07
1.18203e-06
0.00107505
-1.07889e-09
-0.00107505
1.99565e-09
-1.18e-06
2.3638e-07
-2.37188e-07
-8.65588e-07
2.3053e-07
-2.32711e-07
8.65629e-07
-0.00026232
2.22045e-07
2.27292e-07
1.2185e-06
1.18263e-06
-2.1752e-07
-2.25202e-07
0.000262326
-1.22055e-06
-1.18468e-06
0.000264284
-0.000262326
2.19553e-07
2.27267e-07
2.11538e-09
0.0010741
-2.42513e-07
1.22055e-06
2.41649e-07
8.65447e-07
-2.29917e-07
-8.65437e-07
2.2774e-07
-1.2239e-06
-1.04522e-09
2.10937e-09
0.00107453
-2.45281e-07
1.22595e-06
2.44423e-07
8.7098e-07
-2.32739e-07
-8.71002e-07
2.30505e-07
0.0010741