/*--------------------------------*- C++ -*----------------------------------*\
| =========                 |                                                 |
| \\      /  F ield         | OpenFOAM: The Open Source CFD Toolbox           |
|  \\    /   O peration     | Version:  2206                                  |
|   \\  /    A nd           | Website:  www.openfoam.com                      |
|    \\/     M anipulation  |                                                 |
\*---------------------------------------------------------------------------*/
FoamFile
{
    version     2.0;
    format      ascii;
    arch        "LSB;label=32;scalar=64";
    class       volScalarField;
    location    "12";
    object      Uy;
}
// * * * * * * * * * * * * * * * * * * * * * * * * * * * * * * * * * * * * * //

dimensions      [0 1 -1 0 0 0 0];

internalField   nonuniform List<scalar> 
171728
(
0.000107744
0.000117474
-0.000187894
-0.000237981
9.14341e-05
0.000102172
-0.000165578
-0.000192952
6.72682e-05
5.53022e-05
-9.24703e-05
-0.000138291
1.13041e-05
9.5358e-06
-1.37455e-05
-4.8396e-05
4.66203e-07
1.0627e-06
-1.17396e-06
-3.75135e-05
-3.78141e-07
5.03552e-07
-3.1658e-07
-3.69787e-05
-4.23309e-07
4.72441e-07
-2.88009e-07
-3.69591e-05
-4.25398e-07
4.72597e-07
-2.88489e-07
-3.69595e-05
-4.27515e-07
4.71486e-07
-2.8877e-07
-3.69602e-05
-4.25045e-07
4.72371e-07
-2.88684e-07
-3.69607e-05
-4.20506e-07
4.72927e-07
-2.88087e-07
-3.69601e-05
-4.27905e-07
4.71499e-07
-2.88243e-07
-3.69592e-05
-4.30358e-07
4.6841e-07
-2.86516e-07
-3.69587e-05
-4.30547e-07
4.67697e-07
-2.8645e-07
-3.69579e-05
-4.28082e-07
4.74065e-07
-2.87428e-07
-3.69583e-05
-4.2562e-07
4.77142e-07
-2.87378e-07
-3.69583e-05
-4.26566e-07
4.7405e-07
-2.89206e-07
-3.69601e-05
-4.25119e-07
4.75842e-07
-2.88096e-07
-3.69596e-05
-4.16837e-07
4.88407e-07
-2.86548e-07
-3.69581e-05
-4.20617e-07
4.60468e-07
-2.84428e-07
-3.69572e-05
-4.23455e-07
4.74074e-07
-2.86403e-07
-3.69584e-05
-4.2997e-07
4.69633e-07
-2.87039e-07
-3.69586e-05
-4.28791e-07
4.69943e-07
-2.88569e-07
-3.69594e-05
-4.28218e-07
4.7029e-07
-2.88483e-07
-3.69599e-05
-4.27452e-07
4.70705e-07
-2.90033e-07
-3.69609e-05
-4.27652e-07
4.70787e-07
-2.89415e-07
-3.69607e-05
-4.27804e-07
4.70462e-07
-2.89283e-07
-3.696e-05
-4.28272e-07
4.69728e-07
-2.88234e-07
-3.69596e-05
-4.28971e-07
4.69095e-07
-2.87339e-07
-3.6959e-05
-4.28534e-07
4.69831e-07
-2.88035e-07
-3.69594e-05
-4.28484e-07
4.70546e-07
-2.87558e-07
-3.69594e-05
-4.27747e-07
4.70704e-07
-2.89282e-07
-3.69606e-05
-4.27767e-07
4.70666e-07
-2.89391e-07
-3.69608e-05
-4.27385e-07
4.70833e-07
-2.89821e-07
-3.69607e-05
-4.27791e-07
4.7072e-07
-2.88951e-07
-3.69603e-05
-4.28607e-07
4.69329e-07
-2.88052e-07
-3.69591e-05
-4.28337e-07
4.69836e-07
-2.8829e-07
-3.69595e-05
-4.29178e-07
4.68494e-07
-2.86778e-07
-3.69582e-05
-4.28697e-07
4.70215e-07
-2.89109e-07
-3.69604e-05
-4.2797e-07
4.70244e-07
-2.88983e-07
-3.69627e-05
-4.2169e-07
4.69542e-07
-2.8949e-07
-3.69614e-05
-4.25791e-07
4.81306e-07
-2.87678e-07
-3.69587e-05
-4.27309e-07
4.72558e-07
-2.87946e-07
-3.69592e-05
-4.28803e-07
4.70592e-07
-2.86964e-07
-3.69594e-05
-4.28854e-07
4.69633e-07
-2.85954e-07
-3.69587e-05
-4.28953e-07
4.70276e-07
-2.86729e-07
-3.69595e-05
-4.2896e-07
4.69948e-07
-2.86734e-07
-3.69594e-05
-4.27705e-07
4.7134e-07
-2.88295e-07
-3.69601e-05
-4.27894e-07
4.71e-07
-2.87945e-07
-3.69602e-05
-4.27956e-07
4.71343e-07
-2.87831e-07
-3.69597e-05
-4.28201e-07
4.70889e-07
-2.87833e-07
-3.69603e-05
-4.2894e-07
4.6971e-07
-2.86239e-07
-3.69587e-05
-4.29305e-07
4.6956e-07
-2.86874e-07
-3.69595e-05
-4.30714e-07
4.6569e-07
-2.87223e-07
-3.69598e-05
-4.30632e-07
4.61393e-07
-2.88396e-07
-3.6961e-05
-4.29134e-07
4.68725e-07
-2.87324e-07
-3.696e-05
-4.29682e-07
4.69724e-07
-2.86181e-07
-3.69587e-05
-4.29938e-07
4.69379e-07
-2.85723e-07
-3.69578e-05
-4.30257e-07
4.68364e-07
-2.8458e-07
-3.69566e-05
-4.30642e-07
4.68275e-07
-2.84304e-07
-3.69566e-05
-4.31707e-07
4.67078e-07
-2.826e-07
-3.69551e-05
-4.30451e-07
4.68319e-07
-2.84234e-07
-3.6956e-05
-4.30654e-07
4.67767e-07
-2.83812e-07
-3.69563e-05
-4.30121e-07
4.68869e-07
-2.85256e-07
-3.69572e-05
-4.29965e-07
4.69356e-07
-2.85671e-07
-3.69574e-05
-4.29919e-07
4.68276e-07
-2.84689e-07
-3.69571e-05
-4.30098e-07
4.68816e-07
-2.84613e-07
-3.69567e-05
-4.30713e-07
4.68008e-07
-2.83646e-07
-3.69553e-05
-4.28931e-07
4.69747e-07
-2.79116e-07
-3.69527e-05
-4.27547e-07
4.6991e-07
-2.69794e-07
-3.69454e-05
-4.28364e-07
4.70576e-07
-2.80608e-07
-3.69521e-05
-4.29463e-07
4.68903e-07
-2.8454e-07
-3.69566e-05
-4.29692e-07
4.69021e-07
-2.85403e-07
-3.69574e-05
-4.29967e-07
4.69186e-07
-2.8551e-07
-3.69573e-05
-4.30559e-07
4.68044e-07
-2.83794e-07
-3.69563e-05
-4.30656e-07
4.6807e-07
-2.841e-07
-3.69558e-05
-4.31295e-07
4.67599e-07
-2.82944e-07
-3.69553e-05
-4.30813e-07
4.67816e-07
-2.84053e-07
-3.69561e-05
-4.30557e-07
4.67882e-07
-2.8369e-07
-3.69562e-05
-4.2995e-07
4.69012e-07
-2.85311e-07
-3.69574e-05
-4.30067e-07
4.689e-07
-2.85237e-07
-3.6957e-05
-4.30032e-07
4.69128e-07
-2.85429e-07
-3.69574e-05
-4.30596e-07
4.67897e-07
-2.84225e-07
-3.69562e-05
-4.3086e-07
4.67901e-07
-2.83588e-07
-3.69559e-05
-4.31005e-07
4.67862e-07
-2.83886e-07
-3.69556e-05
-4.30949e-07
4.67723e-07
-2.83358e-07
-3.69558e-05
-4.30359e-07
4.68289e-07
-2.84331e-07
-3.69567e-05
-4.30025e-07
4.68717e-07
-2.84964e-07
-3.69573e-05
-4.2977e-07
4.68904e-07
-2.85163e-07
-3.69574e-05
-4.31064e-07
4.68446e-07
-2.85002e-07
-3.69567e-05
-4.43666e-07
4.69448e-07
-2.83895e-07
-3.69469e-05
-3.91865e-07
7.033e-07
-5.95646e-07
-3.66625e-05
-7.31136e-07
1.95938e-06
-2.61057e-06
-3.36108e-05
-4.74782e-06
2.90647e-06
-1.86715e-06
-2.50217e-05
-4.28568e-05
-3.53502e-05
4.12573e-05
5.05184e-05
0.000136077
0.000153231
0.000153213
0.000136043
0.000124499
-0.000124519
9.04289e-05
9.04276e-05
-9.04818e-05
-9.04808e-05
0.000124502
-0.000124514
-0.000136099
-0.000153268
-0.000153252
-0.000136072
0.000237972
0.000111345
0.000187796
0.000187838
0.000142671
0.000142673
0.000237928
0.000111303
0.000117505
-0.000117569
8.42493e-05
-8.42784e-05
-0.000117573
8.42512e-05
-8.42726e-05
-0.000238025
-0.00011144
-0.00018792
-0.000142617
-0.000142643
-0.000111444
0.00019282
8.02857e-05
0.000165615
0.000165621
0.000125198
0.00012519
0.000192784
8.02663e-05
0.000102165
-0.000102183
7.44425e-05
-7.44477e-05
-0.000102175
7.44396e-05
-7.44391e-05
-0.00019296
-8.03769e-05
-0.000165599
-0.000125179
-0.000125197
-8.03673e-05
0.000138198
-2.23698e-05
9.24962e-05
9.24754e-05
2.41757e-05
2.41888e-05
0.000138173
-2.23723e-05
5.5314e-05
-5.53731e-05
1.61786e-05
-1.62155e-05
-5.53472e-05
1.61799e-05
-1.62109e-05
-0.000138314
2.23772e-05
-9.24895e-05
-2.41891e-05
-2.41957e-05
2.23677e-05
4.83505e-05
-3.74306e-05
1.37408e-05
1.3751e-05
2.13382e-06
2.14679e-06
4.83436e-05
-3.74239e-05
9.53692e-06
-9.56574e-06
1.71105e-06
-1.72508e-06
-9.56295e-06
1.71394e-06
-1.72261e-06
-4.8402e-05
3.74559e-05
-1.37487e-05
-2.1272e-06
-2.12705e-06
3.7448e-05
3.74864e-05
-3.82417e-05
1.17965e-06
1.19291e-06
3.68728e-07
3.83244e-07
3.74898e-05
-3.82309e-05
1.05852e-06
-1.0706e-06
5.26638e-07
-5.33158e-07
-1.06744e-06
5.33866e-07
-5.3011e-07
-3.75207e-05
3.82755e-05
-1.17082e-06
-3.56047e-07
-3.55359e-07
3.82674e-05
3.69571e-05
-3.82713e-05
3.29351e-07
3.42589e-07
3.01605e-07
3.02018e-07
3.69649e-05
-3.82735e-05
4.97449e-07
-5.03455e-07
4.75794e-07
-4.79762e-07
-4.99852e-07
4.74573e-07
-4.77908e-07
-3.69846e-05
3.83073e-05
-3.1351e-07
-2.86332e-07
-2.85606e-07
3.82981e-05
3.69391e-05
-3.82654e-05
3.02579e-07
3.04045e-07
3.03373e-07
3.03561e-07
3.69297e-05
-3.82733e-05
4.77493e-07
-4.80055e-07
4.76851e-07
-4.78449e-07
-4.78705e-07
4.73349e-07
-4.78314e-07
-3.69641e-05
3.83079e-05
-2.86095e-07
-2.85038e-07
-2.85425e-07
3.82978e-05
3.69381e-05
-3.8275e-05
3.02007e-07
3.0354e-07
2.99212e-07
3.00344e-07
3.69314e-05
-3.8275e-05
4.74826e-07
-4.80494e-07
4.72842e-07
-4.79874e-07
-4.79465e-07
4.71968e-07
-4.78938e-07
-3.6964e-05
3.83066e-05
-2.86444e-07
-2.85544e-07
-2.85718e-07
3.8297e-05
3.6932e-05
-3.82744e-05
2.98579e-07
3.02959e-07
2.98791e-07
2.97448e-07
3.6929e-05
-3.82742e-05
4.73181e-07
-4.8132e-07
4.72853e-07
-4.7928e-07
-4.8001e-07
4.72526e-07
-4.79005e-07
-3.69648e-05
3.83068e-05
-2.86701e-07
-2.85558e-07
-2.85724e-07
3.82966e-05
3.69347e-05
-3.82564e-05
3.03238e-07
3.081e-07
3.12275e-07
2.98775e-07
3.693e-05
-3.82735e-05
4.76134e-07
-4.80711e-07
4.82062e-07
-4.78276e-07
-4.80105e-07
4.73909e-07
-4.78783e-07
-3.69649e-05
3.83076e-05
-2.87092e-07
-2.85391e-07
-2.85408e-07
3.8297e-05
3.69513e-05
-3.82737e-05
3.10973e-07
3.08927e-07
3.00061e-07
2.94846e-07
3.69303e-05
-3.82763e-05
4.811e-07
-4.79357e-07
4.72565e-07
-4.78911e-07
-4.79786e-07
4.71935e-07
-4.78323e-07
-3.6964e-05
3.83073e-05
-2.86294e-07
-2.84779e-07
-2.84749e-07
3.82975e-05
3.69325e-05
-3.82763e-05
2.9936e-07
3.06097e-07
2.93787e-07
3.03893e-07
3.69278e-05
-3.82787e-05
4.73441e-07
-4.8083e-07
4.69667e-07
-4.79374e-07
-4.79561e-07
4.69519e-07
-4.77704e-07
-3.69642e-05
3.83072e-05
-2.86144e-07
-2.83942e-07
-2.86036e-07
3.8298e-05
3.69303e-05
-3.82786e-05
2.96617e-07
3.10338e-07
2.90576e-07
3.08277e-07
3.69249e-05
-3.82797e-05
4.72305e-07
-4.80819e-07
4.68758e-07
-4.79488e-07
-4.78348e-07
4.67622e-07
-4.76291e-07
-3.69641e-05
3.83072e-05
-2.87414e-07
-2.83215e-07
-2.86592e-07
3.82991e-05
3.69326e-05
-3.82769e-05
2.97436e-07
3.07886e-07
2.94519e-07
3.03493e-07
3.69243e-05
-3.82752e-05
4.74829e-07
-4.81096e-07
4.73096e-07
-4.79794e-07
-4.77171e-07
4.72054e-07
-4.76485e-07
-3.69643e-05
3.83069e-05
-2.87245e-07
-2.84146e-07
-2.85521e-07
3.82992e-05
3.69372e-05
-3.82763e-05
3.00885e-07
3.04478e-07
2.97727e-07
3.14311e-07
3.69317e-05
-3.82568e-05
4.74029e-07
-4.81368e-07
4.72986e-07
-4.79442e-07
-4.77271e-07
4.81212e-07
-4.76081e-07
-3.69647e-05
3.83069e-05
-2.85822e-07
-2.84682e-07
-2.84328e-07
3.82991e-05
3.69375e-05
-3.82761e-05
3.02154e-07
3.09451e-07
2.9594e-07
3.04664e-07
3.69455e-05
-3.82755e-05
4.74059e-07
-4.80792e-07
4.72751e-07
-4.80143e-07
-4.7701e-07
4.75242e-07
-4.78239e-07
-3.69647e-05
3.83063e-05
-2.85024e-07
-2.8575e-07
-2.85642e-07
3.82974e-05
3.69371e-05
-3.82751e-05
3.04616e-07
3.02203e-07
2.97119e-07
3.00532e-07
3.69299e-05
-3.82768e-05
4.73775e-07
-4.81761e-07
4.73674e-07
-4.79359e-07
-4.7971e-07
4.74249e-07
-4.78024e-07
-3.69653e-05
3.8307e-05
-2.86882e-07
-2.85575e-07
-2.85351e-07
3.82977e-05
3.69375e-05
-3.82627e-05
3.03791e-07
3.05097e-07
3.05059e-07
3.13587e-07
3.69329e-05
-3.82587e-05
4.75248e-07
-4.80353e-07
4.80491e-07
-4.77096e-07
-4.78434e-07
4.83609e-07
-4.75802e-07
-3.69646e-05
3.83092e-05
-2.86148e-07
-2.83812e-07
-2.84427e-07
3.82996e-05
3.69548e-05
-3.82654e-05
3.20564e-07
3.18889e-07
2.98382e-07
3.07528e-07
3.6952e-05
-3.8273e-05
4.85387e-07
-4.77941e-07
4.78806e-07
-4.75999e-07
-4.76436e-07
4.71438e-07
-4.75149e-07
-3.69631e-05
3.83096e-05
-2.86565e-07
-2.81613e-07
-2.90875e-07
3.83e-05
3.69443e-05
-3.82678e-05
3.02116e-07
2.96482e-07
3.10122e-07
3.06494e-07
3.69205e-05
-3.82755e-05
4.77076e-07
-4.78094e-07
4.69819e-07
-4.77301e-07
-4.76965e-07
4.7444e-07
-4.77238e-07
-3.69623e-05
3.83084e-05
-2.92829e-07
-2.8283e-07
-2.85531e-07
3.82986e-05
3.69383e-05
-3.82729e-05
3.08227e-07
2.97426e-07
2.93655e-07
2.99985e-07
3.69281e-05
-3.82763e-05
4.70583e-07
-4.78983e-07
4.69111e-07
-4.78766e-07
-4.78012e-07
4.68877e-07
-4.77403e-07
-3.6963e-05
3.83076e-05
-2.85859e-07
-2.83618e-07
-2.85349e-07
3.82984e-05
3.69295e-05
-3.82726e-05
2.97491e-07
2.96196e-07
2.9665e-07
2.98705e-07
3.69281e-05
-3.82783e-05
4.71563e-07
-4.80801e-07
4.691e-07
-4.79621e-07
-4.78789e-07
4.69813e-07
-4.78386e-07
-3.69638e-05
3.8307e-05
-2.8597e-07
-2.84961e-07
-2.85506e-07
3.82978e-05
3.69296e-05
-3.82722e-05
2.95359e-07
2.99392e-07
2.97138e-07
2.99444e-07
3.69277e-05
-3.8277e-05
4.70065e-07
-4.81438e-07
4.68864e-07
-4.79759e-07
-4.80082e-07
4.70007e-07
-4.78938e-07
-3.69644e-05
3.83066e-05
-2.86344e-07
-2.85152e-07
-2.84426e-07
3.8297e-05
3.69304e-05
-3.82702e-05
2.96282e-07
2.99764e-07
2.99286e-07
3.00711e-07
3.69287e-05
-3.82756e-05
4.70378e-07
-4.81615e-07
4.69955e-07
-4.80537e-07
-4.79969e-07
4.70967e-07
-4.79873e-07
-3.69647e-05
3.83056e-05
-2.86556e-07
-2.86616e-07
-2.87626e-07
3.8296e-05
3.69322e-05
-3.82701e-05
2.97905e-07
3.01115e-07
2.99151e-07
3.00765e-07
3.69299e-05
-3.82757e-05
4.71027e-07
-4.82141e-07
4.70099e-07
-4.8049e-07
-4.80833e-07
4.71297e-07
-4.79609e-07
-3.69656e-05
3.83056e-05
-2.88705e-07
-2.86556e-07
-2.87578e-07
3.82958e-05
3.69321e-05
-3.82709e-05
2.97382e-07
3.00418e-07
2.98841e-07
3.0035e-07
3.69296e-05
-3.82761e-05
4.70666e-07
-4.81575e-07
4.6977e-07
-4.80122e-07
-4.80632e-07
4.70756e-07
-4.79155e-07
-3.69654e-05
3.8306e-05
-2.88701e-07
-2.86132e-07
-2.87113e-07
3.82967e-05
3.69314e-05
-3.82711e-05
2.97128e-07
3.00363e-07
2.98123e-07
2.99508e-07
3.69293e-05
-3.82769e-05
4.70469e-07
-4.81693e-07
4.69018e-07
-4.79488e-07
-4.79793e-07
4.70278e-07
-4.78641e-07
-3.69653e-05
3.8307e-05
-2.87855e-07
-2.85484e-07
-2.86707e-07
3.82974e-05
3.6931e-05
-3.8272e-05
2.96434e-07
2.9912e-07
2.97116e-07
2.98782e-07
3.69284e-05
-3.82772e-05
4.69922e-07
-4.807e-07
4.68484e-07
-4.7894e-07
-4.79857e-07
4.69674e-07
-4.78267e-07
-3.69642e-05
3.83072e-05
-2.87658e-07
-2.84604e-07
-2.86039e-07
3.82975e-05
3.693e-05
-3.82715e-05
2.95017e-07
2.98315e-07
2.97297e-07
2.98769e-07
3.69282e-05
-3.82773e-05
4.68852e-07
-4.80086e-07
4.68787e-07
-4.79416e-07
-4.78759e-07
4.69881e-07
-4.78566e-07
-3.69638e-05
3.83072e-05
-2.8631e-07
-2.85103e-07
-2.86257e-07
3.82976e-05
3.6931e-05
-3.82716e-05
2.96164e-07
2.99088e-07
2.97341e-07
2.98692e-07
3.69283e-05
-3.82763e-05
4.69891e-07
-4.80818e-07
4.68645e-07
-4.78814e-07
-4.79156e-07
4.68918e-07
-4.78207e-07
-3.69642e-05
3.83073e-05
-2.86907e-07
-2.84489e-07
-2.85876e-07
3.82978e-05
3.69308e-05
-3.8271e-05
2.95595e-07
2.99248e-07
2.98432e-07
3.00364e-07
3.69281e-05
-3.82765e-05
4.69296e-07
-4.80267e-07
4.69479e-07
-4.8032e-07
-4.79233e-07
4.69912e-07
-4.79448e-07
-3.69641e-05
3.8306e-05
-2.86798e-07
-2.86434e-07
-2.87695e-07
3.82965e-05
3.69315e-05
-3.82707e-05
2.97252e-07
3.007e-07
2.98494e-07
3.00675e-07
3.69277e-05
-3.82749e-05
4.70578e-07
-4.81769e-07
4.69449e-07
-4.80128e-07
-4.80254e-07
4.70776e-07
-4.79582e-07
-3.69655e-05
3.8306e-05
-2.88343e-07
-2.86428e-07
-2.87903e-07
3.82962e-05
3.69315e-05
-3.827e-05
2.97363e-07
3.00955e-07
2.99513e-07
3.01777e-07
3.6927e-05
-3.82745e-05
4.70569e-07
-4.81781e-07
4.702e-07
-4.80684e-07
-4.80827e-07
4.71006e-07
-4.79614e-07
-3.69653e-05
3.83054e-05
-2.8882e-07
-2.86998e-07
-2.88299e-07
3.82963e-05
3.69322e-05
-3.82705e-05
2.97862e-07
3.0161e-07
2.99318e-07
3.01505e-07
3.69273e-05
-3.82753e-05
4.71114e-07
-4.82229e-07
4.70054e-07
-4.80517e-07
-4.80949e-07
4.7105e-07
-4.79461e-07
-3.69659e-05
3.83059e-05
-2.88969e-07
-2.8678e-07
-2.88e-07
3.82964e-05
3.69318e-05
-3.82716e-05
2.97303e-07
3.01118e-07
2.97375e-07
2.99575e-07
3.69265e-05
-3.82764e-05
4.70671e-07
-4.81758e-07
4.68693e-07
-4.78929e-07
-4.80551e-07
4.69327e-07
-4.78003e-07
-3.69653e-05
3.83075e-05
-2.88181e-07
-2.84994e-07
-2.86173e-07
3.82977e-05
3.69308e-05
-3.82714e-05
2.96003e-07
2.9968e-07
2.97787e-07
2.99665e-07
3.69253e-05
-3.82761e-05
4.69783e-07
-4.80711e-07
4.6897e-07
-4.79279e-07
-4.79524e-07
4.69801e-07
-4.78395e-07
-3.69639e-05
3.83069e-05
-2.87183e-07
-2.85314e-07
-2.86463e-07
3.8297e-05
3.6931e-05
-3.8273e-05
2.9666e-07
3.0008e-07
2.9627e-07
2.98463e-07
3.69256e-05
-3.82771e-05
4.70206e-07
-4.81117e-07
4.67871e-07
-4.78369e-07
-4.79451e-07
4.68458e-07
-4.77046e-07
-3.69643e-05
3.8308e-05
-2.87078e-07
-2.83771e-07
-2.84757e-07
3.82986e-05
3.69295e-05
-3.82717e-05
2.95271e-07
2.99151e-07
2.98006e-07
2.992e-07
3.69247e-05
-3.82761e-05
4.68954e-07
-4.7997e-07
4.69166e-07
-4.79695e-07
-4.78199e-07
4.70224e-07
-4.78668e-07
-3.69632e-05
3.83066e-05
-2.85585e-07
-2.85581e-07
-2.86895e-07
3.82968e-05
3.69312e-05
-3.82737e-05
2.96079e-07
3.01176e-07
2.97936e-07
3.02779e-07
3.69261e-05
-3.82752e-05
4.69563e-07
-4.81295e-07
4.69026e-07
-4.80749e-07
-4.80276e-07
4.71151e-07
-4.80341e-07
-3.69648e-05
3.83052e-05
-2.88315e-07
-2.86634e-07
-2.91157e-07
3.82943e-05
3.69301e-05
-3.82789e-05
2.96145e-07
3.02271e-07
2.98812e-07
3.07203e-07
3.69291e-05
-3.82721e-05
4.68311e-07
-4.81846e-07
4.71694e-07
-4.80407e-07
-4.81458e-07
4.67979e-07
-4.80875e-07
-3.69662e-05
3.83058e-05
-2.93546e-07
-2.87233e-07
-2.92828e-07
3.82951e-05
3.69352e-05
-3.82757e-05
3.10223e-07
3.01101e-07
2.92994e-07
3.12949e-07
3.6925e-05
-3.82645e-05
4.75039e-07
-4.81436e-07
4.67539e-07
-4.79442e-07
-4.80764e-07
4.7921e-07
-4.77521e-07
-3.69658e-05
3.83066e-05
-2.89732e-07
-2.85982e-07
-2.86296e-07
3.82985e-05
3.69384e-05
-3.82735e-05
3.02698e-07
3.17083e-07
2.96659e-07
2.9867e-07
3.69433e-05
-3.82767e-05
4.72679e-07
-4.80874e-07
4.71468e-07
-4.79406e-07
-4.77776e-07
4.70297e-07
-4.77467e-07
-3.69649e-05
3.8307e-05
-2.86232e-07
-2.85455e-07
-2.86131e-07
3.82981e-05
3.69383e-05
-3.82767e-05
3.00914e-07
3.05515e-07
2.93324e-07
3.00489e-07
3.69268e-05
-3.82767e-05
4.7223e-07
-4.81314e-07
4.69732e-07
-4.79502e-07
-4.79247e-07
4.71404e-07
-4.78246e-07
-3.69646e-05
3.83071e-05
-2.87256e-07
-2.85322e-07
-2.86696e-07
3.82974e-05
3.69351e-05
-3.82774e-05
2.98856e-07
3.00745e-07
2.92382e-07
2.98736e-07
3.69259e-05
-3.82786e-05
4.70889e-07
-4.8093e-07
4.69378e-07
-4.78947e-07
-4.7928e-07
4.6969e-07
-4.7767e-07
-3.69642e-05
3.83077e-05
-2.86833e-07
-2.84471e-07
-2.85885e-07
3.82983e-05
3.69346e-05
-3.82775e-05
2.98457e-07
2.99938e-07
2.92573e-07
2.99005e-07
3.69247e-05
-3.82784e-05
4.70698e-07
-4.80868e-07
4.69319e-07
-4.7946e-07
-4.78759e-07
4.70496e-07
-4.78437e-07
-3.69638e-05
3.83072e-05
-2.85584e-07
-2.85183e-07
-2.86997e-07
3.82973e-05
3.69344e-05
-3.82776e-05
2.98885e-07
3.00201e-07
2.92401e-07
2.9881e-07
3.69249e-05
-3.82784e-05
4.70802e-07
-4.81272e-07
4.69117e-07
-4.79307e-07
-4.79163e-07
4.69931e-07
-4.78335e-07
-3.69642e-05
3.83073e-05
-2.85932e-07
-2.85043e-07
-2.86875e-07
3.82973e-05
3.69345e-05
-3.82758e-05
2.98649e-07
3.00117e-07
2.94475e-07
3.00375e-07
3.6925e-05
-3.82771e-05
4.70597e-07
-4.81165e-07
4.7067e-07
-4.80468e-07
-4.79394e-07
4.71315e-07
-4.78946e-07
-3.69641e-05
3.8306e-05
-2.85941e-07
-2.86437e-07
-2.87464e-07
3.82968e-05
3.69362e-05
-3.82757e-05
3.00618e-07
3.01826e-07
2.9467e-07
3.00783e-07
3.69263e-05
-3.82769e-05
4.72096e-07
-4.82359e-07
4.70662e-07
-4.80743e-07
-4.80377e-07
4.71519e-07
-4.79424e-07
-3.69654e-05
3.83056e-05
-2.87414e-07
-2.87169e-07
-2.88406e-07
3.82962e-05
3.6936e-05
-3.82762e-05
3.00129e-07
3.01397e-07
2.94267e-07
3.00245e-07
3.69262e-05
-3.82773e-05
4.71694e-07
-4.8203e-07
4.70532e-07
-4.8025e-07
-4.79936e-07
4.71449e-07
-4.78859e-07
-3.69654e-05
3.83062e-05
-2.86916e-07
-2.8618e-07
-2.87056e-07
3.82969e-05
3.69358e-05
-3.82759e-05
3.00219e-07
3.01532e-07
2.94614e-07
3.00691e-07
3.69259e-05
-3.8277e-05
4.71849e-07
-4.8199e-07
4.70686e-07
-4.80698e-07
-4.79851e-07
4.71413e-07
-4.79351e-07
-3.69651e-05
3.83056e-05
-2.87079e-07
-2.86794e-07
-2.87788e-07
3.8296e-05
3.69357e-05
-3.82773e-05
2.99777e-07
3.01217e-07
2.93163e-07
2.9905e-07
3.6926e-05
-3.82786e-05
4.71366e-07
-4.81926e-07
4.69788e-07
-4.79668e-07
-4.80059e-07
4.70224e-07
-4.77911e-07
-3.69654e-05
3.8307e-05
-2.87899e-07
-2.84865e-07
-2.85509e-07
3.8298e-05
3.69345e-05
-3.82775e-05
2.98234e-07
2.99665e-07
2.92717e-07
2.98376e-07
3.69244e-05
-3.82783e-05
4.70374e-07
-4.8096e-07
4.69302e-07
-4.79827e-07
-4.79199e-07
4.69821e-07
-4.78607e-07
-3.69642e-05
3.83068e-05
-2.86501e-07
-2.85316e-07
-2.86566e-07
3.82973e-05
3.69342e-05
-3.82787e-05
2.97975e-07
2.99893e-07
2.9113e-07
2.97311e-07
3.6924e-05
-3.82802e-05
4.70052e-07
-4.81255e-07
4.68047e-07
-4.79841e-07
-4.79813e-07
4.67785e-07
-4.79497e-07
-3.69643e-05
3.83068e-05
-2.87388e-07
-2.85384e-07
-2.86731e-07
3.82964e-05
3.69328e-05
-3.82784e-05
2.96795e-07
2.95737e-07
2.9081e-07
2.84833e-07
3.69206e-05
-3.82981e-05
4.69103e-07
-4.81751e-07
4.67965e-07
-4.8072e-07
-4.80642e-07
4.59331e-07
-4.81031e-07
-3.69642e-05
3.83059e-05
-2.87547e-07
-2.86207e-07
-2.87919e-07
3.82952e-05
3.69334e-05
-3.82767e-05
2.97103e-07
2.88382e-07
2.93515e-07
2.96937e-07
3.69037e-05
-3.82807e-05
4.69646e-07
-4.82658e-07
4.69851e-07
-4.81103e-07
-4.8204e-07
4.68959e-07
-4.79767e-07
-3.69652e-05
3.83055e-05
-2.8899e-07
-2.85933e-07
-2.88483e-07
3.82961e-05
3.69353e-05
-3.82758e-05
2.98632e-07
2.99999e-07
2.93385e-07
3.02122e-07
3.69218e-05
-3.82782e-05
4.70943e-07
-4.82418e-07
4.7071e-07
-4.81292e-07
-4.80085e-07
4.69954e-07
-4.77815e-07
-3.69656e-05
3.83053e-05
-2.91022e-07
-2.84222e-07
-2.97315e-07
3.82977e-05
3.69362e-05
-3.82754e-05
2.98808e-07
3.03601e-07
2.93047e-07
3.03872e-07
3.69251e-05
-3.82778e-05
4.71762e-07
-4.8291e-07
4.71289e-07
-4.8197e-07
-4.78651e-07
4.69878e-07
-4.76606e-07
-3.69661e-05
3.83047e-05
-3.00381e-07
-2.83807e-07
-2.98281e-07
3.82986e-05
3.69364e-05
-3.8276e-05
2.9856e-07
3.04805e-07
2.9207e-07
3.03202e-07
3.69252e-05
-3.8279e-05
4.72215e-07
-4.83407e-07
4.7081e-07
-4.81191e-07
-4.77524e-07
4.68538e-07
-4.75205e-07
-3.69665e-05
3.83057e-05
-3.00278e-07
-2.82412e-07
-2.97296e-07
3.82998e-05
3.69359e-05
-3.82761e-05
2.97908e-07
3.04054e-07
2.91824e-07
3.0325e-07
3.69241e-05
-3.8279e-05
4.72161e-07
-4.82665e-07
4.70871e-07
-4.81116e-07
-4.76671e-07
4.68537e-07
-4.75333e-07
-3.69655e-05
3.83058e-05
-2.99569e-07
-2.82323e-07
-2.97618e-07
3.82997e-05
3.69356e-05
-3.82776e-05
2.97491e-07
3.04085e-07
2.90031e-07
3.01417e-07
3.6924e-05
-3.82803e-05
4.71855e-07
-4.82623e-07
4.69624e-07
-4.79997e-07
-4.76326e-07
4.67389e-07
-4.74101e-07
-3.69654e-05
3.83071e-05
-2.99295e-07
-2.80682e-07
-2.95752e-07
3.83013e-05
3.69342e-05
-3.82763e-05
2.9564e-07
3.02194e-07
2.91505e-07
3.03067e-07
3.69228e-05
-3.82791e-05
4.70628e-07
-4.81521e-07
4.70542e-07
-4.81078e-07
-4.74794e-07
4.68384e-07
-4.74543e-07
-3.69642e-05
3.83057e-05
-2.97228e-07
-2.82045e-07
-2.96685e-07
3.83008e-05
3.69358e-05
-3.82764e-05
2.97732e-07
3.04303e-07
2.91347e-07
3.02883e-07
3.69242e-05
-3.82795e-05
4.7201e-07
-4.82808e-07
4.70646e-07
-4.80913e-07
-4.76159e-07
4.68146e-07
-4.74981e-07
-3.69657e-05
3.8306e-05
-2.99026e-07
-2.81722e-07
-2.96922e-07
3.83001e-05
3.69355e-05
-3.82758e-05
2.9719e-07
3.03735e-07
2.92134e-07
3.03669e-07
3.69236e-05
-3.82787e-05
4.71684e-07
-4.82375e-07
4.71083e-07
-4.81553e-07
-4.75838e-07
4.68798e-07
-4.75521e-07
-3.69653e-05
3.83053e-05
-2.98715e-07
-2.82636e-07
-2.97763e-07
3.82997e-05
3.69363e-05
-3.82751e-05
2.98332e-07
3.04928e-07
2.92778e-07
3.04387e-07
3.69247e-05
-3.82779e-05
4.72553e-07
-4.83468e-07
4.71453e-07
-4.82113e-07
-4.7698e-07
4.69395e-07
-4.75852e-07
-3.69662e-05
3.83046e-05
-2.99939e-07
-2.83509e-07
-2.98378e-07
3.8299e-05
3.69368e-05
-3.82751e-05
2.98504e-07
3.05379e-07
2.92913e-07
3.04204e-07
3.69252e-05
-3.82783e-05
4.72835e-07
-4.83696e-07
4.71572e-07
-4.81908e-07
-4.77291e-07
4.68916e-07
-4.75778e-07
-3.69666e-05
3.83049e-05
-3.00573e-07
-2.83127e-07
-2.98079e-07
3.82993e-05
3.69368e-05
-3.82757e-05
2.98133e-07
3.04753e-07
2.92488e-07
3.03856e-07
3.69248e-05
-3.82787e-05
4.72546e-07
-4.82912e-07
4.71165e-07
-4.81562e-07
-4.7612e-07
4.6912e-07
-4.75466e-07
-3.69663e-05
3.83054e-05
-2.99408e-07
-2.82849e-07
-2.97997e-07
3.82998e-05
3.69363e-05
-3.82766e-05
2.98161e-07
3.04678e-07
2.90874e-07
3.02477e-07
3.69244e-05
-3.82795e-05
4.72632e-07
-4.83073e-07
4.70089e-07
-4.80084e-07
-4.76461e-07
4.67802e-07
-4.7426e-07
-3.69659e-05
3.83066e-05
-2.99584e-07
-2.81169e-07
-2.96547e-07
3.83009e-05
3.69351e-05
-3.8275e-05
2.96808e-07
3.03624e-07
2.92355e-07
3.03594e-07
3.69236e-05
-3.82784e-05
4.71717e-07
-4.8151e-07
4.71668e-07
-4.78495e-07
-4.75151e-07
4.69534e-07
-4.72458e-07
-3.69645e-05
3.83083e-05
-2.98386e-07
-2.79782e-07
-2.95151e-07
3.83026e-05
3.69365e-05
-3.82746e-05
2.9794e-07
3.04801e-07
2.92408e-07
3.03743e-07
3.69243e-05
-3.82781e-05
4.73225e-07
-4.7888e-07
4.72596e-07
-4.72792e-07
-4.72921e-07
4.69815e-07
-4.67275e-07
-3.69615e-05
3.83163e-05
-2.94836e-07
-2.66169e-07
-2.84924e-07
3.83092e-05
3.69368e-05
-3.82744e-05
2.98247e-07
3.04882e-07
2.92784e-07
3.04761e-07
3.69245e-05
-3.82771e-05
4.74397e-07
-4.74245e-07
4.72677e-07
-4.7702e-07
-4.67675e-07
4.71237e-07
-4.70007e-07
-3.6954e-05
3.831e-05
-2.84528e-07
-2.76217e-07
-2.91903e-07
3.83061e-05
3.69372e-05
-3.82747e-05
2.98607e-07
3.05414e-07
2.9323e-07
3.04368e-07
3.69256e-05
-3.82781e-05
4.73878e-07
-4.79333e-07
4.71851e-07
-4.80289e-07
-4.72244e-07
4.69061e-07
-4.74185e-07
-3.69618e-05
3.83063e-05
-2.94461e-07
-2.81863e-07
-2.99948e-07
3.83006e-05
3.69371e-05
-3.82752e-05
2.9835e-07
3.05029e-07
2.92672e-07
3.04247e-07
3.69249e-05
-3.82782e-05
4.73017e-07
-4.82436e-07
4.71309e-07
-4.81642e-07
-4.76028e-07
4.6921e-07
-4.75789e-07
-3.69654e-05
3.8305e-05
-2.96763e-07
-2.8295e-07
-2.99658e-07
3.82991e-05
3.69369e-05
-3.8275e-05
2.98822e-07
3.05519e-07
2.92837e-07
3.04702e-07
3.6925e-05
-3.82778e-05
4.73085e-07
-4.83565e-07
4.7132e-07
-4.82316e-07
-4.76733e-07
4.69432e-07
-4.75648e-07
-3.69664e-05
3.83042e-05
-2.99533e-07
-2.83545e-07
-2.98302e-07
3.82991e-05
3.69366e-05
-3.8276e-05
2.9862e-07
3.05538e-07
2.92002e-07
3.03295e-07
3.69252e-05
-3.82792e-05
4.72795e-07
-4.83737e-07
4.70774e-07
-4.81095e-07
-4.76999e-07
4.68702e-07
-4.75623e-07
-3.69668e-05
3.8306e-05
-3.00692e-07
-2.82158e-07
-2.98375e-07
3.82999e-05
3.69357e-05
-3.82763e-05
2.97601e-07
3.03829e-07
2.91458e-07
3.02762e-07
3.69235e-05
-3.82795e-05
4.72131e-07
-4.82312e-07
4.70424e-07
-4.80744e-07
-4.76088e-07
4.67893e-07
-4.743e-07
-3.6965e-05
3.8306e-05
-2.99212e-07
-2.81342e-07
-2.96881e-07
3.83006e-05
3.69355e-05
-3.82771e-05
2.97295e-07
3.03891e-07
2.90779e-07
3.02492e-07
3.69236e-05
-3.82796e-05
4.72033e-07
-4.82475e-07
4.69723e-07
-4.80714e-07
-4.76204e-07
4.67868e-07
-4.74429e-07
-3.69652e-05
3.83061e-05
-2.99691e-07
-2.81422e-07
-2.96853e-07
3.83008e-05
3.69346e-05
-3.82766e-05
2.96253e-07
3.03117e-07
2.90906e-07
3.02285e-07
3.69233e-05
-3.82796e-05
4.71162e-07
-4.8199e-07
4.69879e-07
-4.80533e-07
-4.74974e-07
4.67884e-07
-4.74617e-07
-3.69649e-05
3.83062e-05
-2.98002e-07
-2.81689e-07
-2.97392e-07
3.83005e-05
3.69353e-05
-3.82761e-05
2.97331e-07
3.03558e-07
2.91655e-07
3.03151e-07
3.69235e-05
-3.82789e-05
4.71851e-07
-4.8237e-07
4.70602e-07
-4.81112e-07
-4.75953e-07
4.68255e-07
-4.74739e-07
-3.69651e-05
3.83057e-05
-2.9945e-07
-2.8182e-07
-2.97377e-07
3.83004e-05
3.69359e-05
-3.82754e-05
2.97596e-07
3.04114e-07
2.92626e-07
3.04072e-07
3.69242e-05
-3.82782e-05
4.72238e-07
-4.82585e-07
4.71157e-07
-4.81903e-07
-4.76054e-07
4.69241e-07
-4.7565e-07
-3.69656e-05
3.83048e-05
-2.99296e-07
-2.82946e-07
-2.98655e-07
3.8299e-05
3.69365e-05
-3.82752e-05
2.98781e-07
3.05179e-07
2.92916e-07
3.04156e-07
3.69249e-05
-3.82782e-05
4.73021e-07
-4.83574e-07
4.71278e-07
-4.81839e-07
-4.7705e-07
4.69048e-07
-4.75594e-07
-3.69664e-05
3.83047e-05
-3.00788e-07
-2.83386e-07
-2.98816e-07
3.82994e-05
3.69364e-05
-3.82752e-05
2.98346e-07
3.05106e-07
2.92852e-07
3.04383e-07
3.69248e-05
-3.8278e-05
4.72562e-07
-4.83474e-07
4.71327e-07
-4.82146e-07
-4.76604e-07
4.69368e-07
-4.75813e-07
-3.69664e-05
3.83046e-05
-3.00388e-07
-2.83351e-07
-2.98749e-07
3.82989e-05
3.69367e-05
-3.82759e-05
2.98439e-07
3.0526e-07
2.92147e-07
3.03312e-07
3.6925e-05
-3.8279e-05
4.72759e-07
-4.83665e-07
4.7087e-07
-4.8126e-07
-4.77146e-07
4.68245e-07
-4.75284e-07
-3.69666e-05
3.83058e-05
-3.00892e-07
-2.82509e-07
-2.98011e-07
3.83e-05
3.69359e-05
-3.82767e-05
2.97681e-07
3.04197e-07
2.91445e-07
3.02604e-07
3.69239e-05
-3.82794e-05
4.7213e-07
-4.82779e-07
4.70162e-07
-4.80707e-07
-4.75877e-07
4.68209e-07
-4.74437e-07
-3.69653e-05
3.8306e-05
-2.99407e-07
-2.81648e-07
-2.97011e-07
3.83003e-05
3.69352e-05
-3.82767e-05
2.96906e-07
3.03337e-07
2.91204e-07
3.02295e-07
3.69235e-05
-3.82797e-05
4.71646e-07
-4.82395e-07
4.70169e-07
-4.80069e-07
-4.76042e-07
4.67897e-07
-4.74371e-07
-3.69651e-05
3.83062e-05
-2.99187e-07
-2.81418e-07
-2.96781e-07
3.83009e-05
3.69351e-05
-3.8277e-05
2.96845e-07
3.03279e-07
2.91019e-07
3.02372e-07
3.69234e-05
-3.82797e-05
4.71636e-07
-4.83068e-07
4.69937e-07
-4.79085e-07
-4.75502e-07
4.6775e-07
-4.74435e-07
-3.69649e-05
3.83059e-05
-2.9874e-07
-2.81408e-07
-2.96876e-07
3.83005e-05
3.69349e-05
-3.82761e-05
2.96792e-07
3.03528e-07
2.91797e-07
3.03099e-07
3.69235e-05
-3.8279e-05
4.71419e-07
-4.83962e-07
4.70576e-07
-4.78673e-07
-4.75495e-07
4.68256e-07
-4.75133e-07
-3.69642e-05
3.83035e-05
-2.98867e-07
-2.81984e-07
-2.97627e-07
3.82997e-05
3.69361e-05
-3.82753e-05
2.97774e-07
3.04133e-07
2.92814e-07
3.04122e-07
3.69241e-05
-3.82783e-05
4.72349e-07
-4.85136e-07
4.71352e-07
-4.79948e-07
-4.76108e-07
4.69171e-07
-4.75825e-07
-3.69648e-05
3.83028e-05
-2.99639e-07
-2.83248e-07
-2.98791e-07
3.82992e-05
3.69366e-05
-3.82751e-05
2.98133e-07
3.05243e-07
2.92984e-07
3.04375e-07
3.69248e-05
-3.8278e-05
4.72468e-07
-4.85539e-07
4.71302e-07
-4.80497e-07
-4.76722e-07
4.69171e-07
-4.75797e-07
-3.69654e-05
3.83028e-05
-3.00605e-07
-2.8337e-07
-2.98978e-07
3.8299e-05
3.69369e-05
-3.82757e-05
2.98745e-07
3.05322e-07
2.92414e-07
3.03926e-07
3.69252e-05
-3.82783e-05
4.72975e-07
-4.852e-07
4.71095e-07
-4.81585e-07
-4.76779e-07
4.69035e-07
-4.75645e-07
-3.69654e-05
3.8302e-05
-3.00716e-07
-2.83181e-07
-2.98601e-07
3.82993e-05
3.69361e-05
-3.82716e-05
2.98222e-07
3.04078e-07
2.94921e-07
3.06332e-07
3.69245e-05
-3.82742e-05
4.72147e-07
-4.82773e-07
4.72991e-07
-4.82928e-07
-4.75766e-07
4.69964e-07
-4.77919e-07
-3.69643e-05
3.82998e-05
-2.99832e-07
-2.85742e-07
-3.00212e-07
3.82955e-05
3.69267e-05
-3.81577e-05
2.97406e-07
3.02244e-07
1.7689e-07
1.88112e-07
3.69141e-05
-3.81606e-05
4.72569e-07
-4.83373e-07
3.59048e-07
-3.6795e-07
-4.75455e-07
3.56119e-07
-3.65083e-07
-3.6953e-05
3.81894e-05
-2.95269e-07
-1.67164e-07
-1.72125e-07
3.81819e-05
3.66432e-05
-3.597e-05
6.11628e-07
6.12733e-07
-1.3604e-06
-1.35357e-06
3.66307e-05
-3.59681e-05
7.05055e-07
-7.12585e-07
-7.25955e-07
7.23632e-07
-7.06483e-07
-7.25202e-07
7.19472e-07
-3.66662e-05
3.60006e-05
-5.98334e-07
1.38112e-06
1.37328e-06
3.59924e-05
3.35985e-05
-3.34811e-05
2.62351e-06
2.6246e-06
-5.98874e-06
-5.98883e-06
3.35898e-05
-3.34858e-05
1.95434e-06
-1.95719e-06
-4.34734e-06
4.36131e-06
-1.9502e-06
-4.32893e-06
4.35952e-06
-3.36134e-05
3.35068e-05