/*--------------------------------*- C++ -*----------------------------------*\
| =========                 |                                                 |
| \\      /  F ield         | OpenFOAM: The Open Source CFD Toolbox           |
|  \\    /   O peration     | Version:  2206                                  |
|   \\  /    A nd           | Website:  www.openfoam.com                      |
|    \\/     M anipulation  |                                                 |
\*---------------------------------------------------------------------------*/
FoamFile
{
    version     2.0;
    format      ascii;
    arch        "LSB;label=32;scalar=64";
    class       volScalarField;
    location    "20";
    object      epsilon;
}
// * * * * * * * * * * * * * * * * * * * * * * * * * * * * * * * * * * * * * //

dimensions      [0 2 -3 0 0 0 0];

internalField   nonuniform List<scalar> 
28381
(
3.79544e-07
3.80004e-07
3.55885e-07
3.55871e-07
3.55887e-07
3.80013e-07
3.55882e-07
3.55884e-07
3.55875e-07
3.3818e-07
3.38182e-07
3.38177e-07
5.66507e-07
5.66491e-07
8.47043e-07
8.47096e-07
5.61055e-07
5.61035e-07
8.98543e-07
5.02473e-07
5.02476e-07
5.18449e-07
3.42402e-07
4.15229e-07
3.42445e-07
4.15236e-07
8.98538e-07
5.02479e-07
5.18449e-07
3.42389e-07
4.15233e-07
8.98588e-07
5.02483e-07
3.42394e-07
5.18471e-07
4.15244e-07
8.47124e-07
5.61059e-07
5.61054e-07
8.47056e-07
3.42426e-07
5.1845e-07
4.15353e-07
8.98577e-07
5.02544e-07
5.13044e-07
9.28669e-07
5.13045e-07
9.28681e-07
8.92812e-07
8.92851e-07
5.1867e-07
4.55127e-07
9.48503e-07
5.6106e-07
5.17389e-07
4.56526e-07
9.02328e-07
5.187e-07
4.55129e-07
9.48514e-07
5.61041e-07
5.17424e-07
4.56527e-07
9.02282e-07
5.46932e-07
8.38249e-07
8.38e-07
5.52585e-07
7.88167e-07
7.88002e-07
8.92795e-07
8.92836e-07
5.17372e-07
4.56518e-07
5.6651e-07
9.02329e-07
9.48516e-07
4.55155e-07
5.18679e-07
5.17405e-07
4.56516e-07
5.66492e-07
9.02286e-07
9.4853e-07
4.55154e-07
5.18708e-07
5.52581e-07
7.88174e-07
7.88003e-07
8.3825e-07
8.37995e-07
5.46931e-07
9.27587e-07
9.28629e-07
5.53545e-07
8.53877e-07
5.59072e-07
8.50378e-07
5.0114e-07
7.94994e-07
5.11594e-07
8.05549e-07
8.34757e-07
5.11282e-07
9.2741e-07
5.53562e-07
5.59181e-07
8.53956e-07
8.50384e-07
5.0115e-07
7.94998e-07
5.11594e-07
8.34756e-07
5.11298e-07
8.05572e-07
9.27548e-07
9.28671e-07
5.53517e-07
8.5383e-07
5.5905e-07
8.50374e-07
5.01144e-07
5.11591e-07
7.94988e-07
8.05539e-07
5.1128e-07
8.34753e-07
9.27607e-07
9.28714e-07
5.53555e-07
5.59086e-07
8.53876e-07
8.50389e-07
5.01154e-07
7.94996e-07
5.11602e-07
8.34763e-07
5.11289e-07
8.05554e-07
8.92854e-07
5.17418e-07
4.56534e-07
5.66516e-07
9.02297e-07
4.55173e-07
9.48541e-07
5.1872e-07
5.17374e-07
4.56517e-07
5.6651e-07
9.02329e-07
9.48515e-07
4.55155e-07
5.18681e-07
5.52587e-07
7.88023e-07
7.88161e-07
8.38021e-07
8.38239e-07
5.46936e-07
8.92826e-07
9.27601e-07
9.28666e-07
5.5355e-07
5.59082e-07
8.53878e-07
8.50406e-07
5.01215e-07
5.11608e-07
7.9515e-07
5.11301e-07
8.34834e-07
8.05604e-07
8.98576e-07
8.5382e-07
5.5905e-07
8.98548e-07
9.27562e-07
5.53524e-07
8.47062e-07
8.47112e-07
4.43672e-07
4.03796e-07
4.03809e-07
3.80015e-07
4.41976e-07
4.04756e-07
4.04769e-07
4.41957e-07
3.79579e-07
4.04753e-07
4.04764e-07
4.03825e-07
4.03836e-07
4.43688e-07
4.41965e-07
3.79585e-07
4.04775e-07
4.04756e-07
4.03847e-07
4.03829e-07
4.43696e-07
3.33963e-07
3.33933e-07
3.32448e-07
3.33935e-07
3.33958e-07
3.32448e-07
3.9457e-07
4.23503e-07
5.13053e-07
4.50159e-07
4.21538e-07
4.48311e-07
3.95674e-07
3.78478e-07
4.13788e-07
4.24007e-07
3.73326e-07
4.22523e-07
3.72717e-07
3.79247e-07
3.94713e-07
4.5021e-07
4.48411e-07
3.95812e-07
3.78512e-07
4.13803e-07
4.2401e-07
3.73341e-07
4.22537e-07
3.72728e-07
3.79272e-07
3.94562e-07
4.235e-07
5.13053e-07
4.50148e-07
4.21535e-07
4.48301e-07
3.95666e-07
3.78474e-07
4.13791e-07
4.24004e-07
3.73323e-07
4.2252e-07
3.72713e-07
3.79243e-07
3.94578e-07
4.23519e-07
5.13075e-07
4.50171e-07
4.48321e-07
4.21554e-07
3.95683e-07
3.78479e-07
4.13805e-07
3.73334e-07
4.24015e-07
3.72715e-07
4.22526e-07
3.79249e-07
3.94577e-07
4.23502e-07
5.13053e-07
4.50166e-07
3.95682e-07
4.21538e-07
4.48319e-07
3.7852e-07
4.13928e-07
3.7349e-07
4.24043e-07
3.79293e-07
3.72862e-07
4.22559e-07
4.21515e-07
5.18459e-07
4.23502e-07
3.95657e-07
4.21518e-07
4.48283e-07
5.1846e-07
4.23511e-07
3.94598e-07
4.50164e-07
3.55847e-07
3.79461e-07
3.38142e-07
3.5584e-07
3.55847e-07
3.79461e-07
3.38142e-07
3.55839e-07
3.55848e-07
3.79463e-07
3.38142e-07
3.55839e-07
3.55849e-07
3.79463e-07
3.38142e-07
3.5584e-07
3.55849e-07
3.79463e-07
3.38142e-07
3.55839e-07
3.55849e-07
3.79463e-07
3.38142e-07
3.55839e-07
3.55849e-07
3.79462e-07
3.38143e-07
3.55839e-07
3.55849e-07
3.79463e-07
3.38143e-07
3.55839e-07
3.55849e-07
3.79462e-07
3.38143e-07
3.55839e-07
3.55849e-07
3.79463e-07
3.38143e-07
3.55839e-07
3.55849e-07
3.79463e-07
3.38143e-07
3.55839e-07
3.55849e-07
3.79462e-07
3.38143e-07
3.55839e-07
3.55849e-07
3.79463e-07
3.38143e-07
3.5584e-07
3.55849e-07
3.79463e-07
3.38143e-07
3.55839e-07
3.55849e-07
3.79463e-07
3.38143e-07
3.5584e-07
3.55849e-07
3.79463e-07
3.38168e-07
3.55864e-07
3.55872e-07
3.79492e-07
3.79466e-07
3.7998e-07
3.5585e-07
3.55848e-07
3.55854e-07
3.7998e-07
3.79459e-07
3.79973e-07
3.55855e-07
3.55851e-07
3.55854e-07
3.55851e-07
3.79455e-07
3.79969e-07
3.55843e-07
3.55859e-07
3.55843e-07
3.5586e-07
3.55853e-07
3.55841e-07
3.55857e-07
3.7947e-07
3.79982e-07
3.55852e-07
3.55849e-07
3.55845e-07
3.79983e-07
3.79463e-07
3.79973e-07
3.55855e-07
3.55852e-07
3.55855e-07
3.55851e-07
3.79458e-07
3.79969e-07
3.55844e-07
3.55861e-07
3.55842e-07
3.5586e-07
3.55859e-07
3.55841e-07
3.55857e-07
3.79472e-07
3.79982e-07
3.55846e-07
3.5585e-07
3.55845e-07
3.79982e-07
3.79463e-07
3.79973e-07
3.55855e-07
3.55852e-07
3.55855e-07
3.55851e-07
3.79459e-07
3.79969e-07
3.55844e-07
3.55861e-07
3.55842e-07
3.5586e-07
3.55859e-07
3.55842e-07
3.55856e-07
3.79471e-07
3.79982e-07
3.55846e-07
3.5585e-07
3.55845e-07
3.79982e-07
3.79463e-07
3.79973e-07
3.55855e-07
3.55852e-07
3.55855e-07
3.55851e-07
3.79459e-07
3.7997e-07
3.55843e-07
3.55861e-07
3.55842e-07
3.5586e-07
3.55858e-07
3.55841e-07
3.55857e-07
3.79472e-07
3.79982e-07
3.55847e-07
3.5585e-07
3.55844e-07
3.79982e-07
3.79463e-07
3.79973e-07
3.55856e-07
3.55852e-07
3.55855e-07
3.55851e-07
3.79459e-07
3.79969e-07
3.55843e-07
3.55861e-07
3.55842e-07
3.5586e-07
3.55858e-07
3.55841e-07
3.55856e-07
3.79471e-07
3.79982e-07
3.55847e-07
3.5585e-07
3.55845e-07
3.79982e-07
3.79462e-07
3.79972e-07
3.55856e-07
3.55852e-07
3.55855e-07
3.55851e-07
3.79459e-07
3.79968e-07
3.55843e-07
3.5586e-07
3.55842e-07
3.5586e-07
3.55858e-07
3.55841e-07
3.55857e-07
3.79472e-07
3.79982e-07
3.55846e-07
3.5585e-07
3.55845e-07
3.79982e-07
3.79462e-07
3.79973e-07
3.55856e-07
3.55852e-07
3.55855e-07
3.5585e-07
3.79458e-07
3.79968e-07
3.55843e-07
3.55861e-07
3.55842e-07
3.5586e-07
3.55858e-07
3.55841e-07
3.55856e-07
3.79472e-07
3.79982e-07
3.55847e-07
3.5585e-07
3.55845e-07
3.79982e-07
3.79462e-07
3.79973e-07
3.55856e-07
3.55852e-07
3.55855e-07
3.5585e-07
3.79458e-07
3.79968e-07
3.55843e-07
3.5586e-07
3.55843e-07
3.5586e-07
3.55858e-07
3.55841e-07
3.55857e-07
3.79472e-07
3.79982e-07
3.55846e-07
3.5585e-07
3.55844e-07
3.79982e-07
3.79463e-07
3.79973e-07
3.55856e-07
3.55852e-07
3.55855e-07
3.5585e-07
3.79458e-07
3.79968e-07
3.55844e-07
3.55861e-07
3.55842e-07
3.5586e-07
3.55859e-07
3.55841e-07
3.55856e-07
3.79472e-07
3.79982e-07
3.55846e-07
3.5585e-07
3.55845e-07
3.79982e-07
3.79462e-07
3.79973e-07
3.55856e-07
3.55852e-07
3.55855e-07
3.55851e-07
3.79458e-07
3.79968e-07
3.55844e-07
3.5586e-07
3.55842e-07
3.5586e-07
3.55858e-07
3.55841e-07
3.55857e-07
3.79472e-07
3.79982e-07
3.55846e-07
3.5585e-07
3.55845e-07
3.79982e-07
3.79463e-07
3.79973e-07
3.55856e-07
3.55852e-07
3.55855e-07
3.5585e-07
3.79458e-07
3.79968e-07
3.55844e-07
3.55861e-07
3.55842e-07
3.5586e-07
3.55858e-07
3.55841e-07
3.55856e-07
3.79472e-07
3.79982e-07
3.55847e-07
3.5585e-07
3.55845e-07
3.79982e-07
3.79462e-07
3.79972e-07
3.55856e-07
3.55852e-07
3.55855e-07
3.5585e-07
3.79458e-07
3.79968e-07
3.55843e-07
3.55861e-07
3.55842e-07
3.5586e-07
3.55858e-07
3.55841e-07
3.55857e-07
3.79472e-07
3.79982e-07
3.55846e-07
3.5585e-07
3.55845e-07
3.79982e-07
3.79462e-07
3.79973e-07
3.55855e-07
3.55852e-07
3.55855e-07
3.5585e-07
3.79457e-07
3.79968e-07
3.55844e-07
3.55861e-07
3.55843e-07
3.5586e-07
3.55859e-07
3.55841e-07
3.55856e-07
3.79472e-07
3.79982e-07
3.55846e-07
3.5585e-07
3.55845e-07
3.79982e-07
3.79462e-07
3.79973e-07
3.55856e-07
3.55852e-07
3.55855e-07
3.5585e-07
3.79458e-07
3.79968e-07
3.55844e-07
3.55861e-07
3.55843e-07
3.5586e-07
3.55858e-07
3.55841e-07
3.55857e-07
3.79472e-07
3.79982e-07
3.55846e-07
3.5585e-07
3.55845e-07
3.79982e-07
3.79463e-07
3.79977e-07
3.55856e-07
3.55852e-07
3.55855e-07
3.55855e-07
3.79458e-07
3.79975e-07
3.55844e-07
3.55861e-07
3.55852e-07
3.55863e-07
3.55859e-07
3.55846e-07
3.5586e-07
3.79471e-07
3.79987e-07
3.55846e-07
3.55854e-07
3.55849e-07
3.79995e-07
3.55876e-07
3.79486e-07
3.55875e-07
3.55885e-07
3.55884e-07
3.79499e-07
3.55872e-07
8.92622e-07
8.47018e-07
4.1521e-07
3.42357e-07
5.12997e-07
3.55848e-07
5.18441e-07
4.13684e-07
3.42357e-07
5.66463e-07
5.66455e-07
3.79977e-07
5.61033e-07
5.61037e-07
5.02468e-07
9.28458e-07
8.98467e-07
5.01101e-07
8.92597e-07
8.46996e-07
5.02474e-07
9.285e-07
8.98462e-07
5.01105e-07
3.38143e-07
3.38145e-07
3.38145e-07
3.38144e-07
3.38143e-07
3.38146e-07
3.38145e-07
4.15204e-07
5.12984e-07
3.42353e-07
3.55841e-07
5.18428e-07
3.42353e-07
4.13678e-07
8.92627e-07
8.4702e-07
4.15212e-07
3.42357e-07
5.12998e-07
3.55849e-07
4.13685e-07
3.42357e-07
5.18443e-07
5.66465e-07
5.66454e-07
3.79979e-07
5.61044e-07
5.61027e-07
5.02468e-07
9.28459e-07
5.01102e-07
8.98467e-07
8.92598e-07
8.46995e-07
5.02474e-07
9.28501e-07
5.01107e-07
8.98463e-07
3.38143e-07
3.38146e-07
3.38145e-07
3.38144e-07
3.38143e-07
3.38146e-07
3.38145e-07
4.15204e-07
5.12984e-07
3.42353e-07
3.5584e-07
4.13679e-07
5.18428e-07
3.42353e-07
8.92629e-07
8.47022e-07
4.15212e-07
3.42357e-07
5.12999e-07
3.5585e-07
4.13686e-07
3.42357e-07
5.18442e-07
5.66469e-07
5.66452e-07
3.7998e-07
5.61045e-07
5.61026e-07
5.02468e-07
9.28459e-07
5.01102e-07
8.98467e-07
8.92599e-07
8.46993e-07
5.02474e-07
9.28501e-07
5.01107e-07
8.98462e-07
3.38143e-07
3.38146e-07
3.38145e-07
3.38143e-07
3.38143e-07
3.38146e-07
3.38145e-07
4.15204e-07
5.12984e-07
3.42353e-07
3.55841e-07
4.13679e-07
5.18429e-07
3.42353e-07
8.92629e-07
8.47022e-07
4.15212e-07
3.42357e-07
5.12998e-07
3.55849e-07
4.13686e-07
3.42357e-07
5.18442e-07
5.66469e-07
5.66452e-07
3.79979e-07
5.61045e-07
5.61026e-07
5.02468e-07
9.2846e-07
5.01102e-07
8.98468e-07
8.92588e-07
8.46993e-07
5.02474e-07
9.28501e-07
5.01107e-07
8.98462e-07
3.38143e-07
3.38146e-07
3.38145e-07
3.38144e-07
3.38143e-07
3.38146e-07
3.38145e-07
4.15204e-07
5.12984e-07
3.42354e-07
3.55841e-07
4.13679e-07
5.18429e-07
3.42353e-07
8.9263e-07
8.47021e-07
4.15212e-07
3.42357e-07
5.12998e-07
3.5585e-07
4.13686e-07
3.42357e-07
5.18442e-07
5.6647e-07
5.66452e-07
3.79979e-07
5.61045e-07
5.61026e-07
5.02468e-07
9.28459e-07
5.01102e-07
8.98469e-07
8.92603e-07
8.46997e-07
5.02474e-07
9.28501e-07
5.01107e-07
8.98463e-07
3.38143e-07
3.38146e-07
3.38145e-07
3.38144e-07
3.38143e-07
3.38146e-07
3.38144e-07
4.15204e-07
5.12984e-07
3.42353e-07
3.5584e-07
4.13679e-07
5.18428e-07
3.42353e-07
8.92629e-07
8.47022e-07
4.15212e-07
3.42357e-07
5.12998e-07
3.5585e-07
4.13686e-07
3.42358e-07
5.18442e-07
5.66469e-07
5.66452e-07
3.7998e-07
5.61045e-07
5.61026e-07
5.02468e-07
9.28462e-07
5.01102e-07
8.98469e-07
8.926e-07
8.46996e-07
5.02474e-07
9.285e-07
5.01107e-07
8.98463e-07
3.38143e-07
3.38146e-07
3.38145e-07
3.38144e-07
3.38143e-07
3.38146e-07
3.38145e-07
4.15204e-07
5.12984e-07
3.42353e-07
3.55841e-07
4.13679e-07
5.18428e-07
3.42353e-07
8.92629e-07
8.47023e-07
4.15212e-07
3.42357e-07
5.12998e-07
3.55849e-07
4.13686e-07
3.42357e-07
5.18442e-07
5.6647e-07
5.66453e-07
3.79978e-07
5.61045e-07
5.61025e-07
5.02468e-07
9.28461e-07
5.01102e-07
8.98472e-07
8.92594e-07
8.46995e-07
5.02474e-07
9.285e-07
5.01107e-07
8.98463e-07
3.38143e-07
3.38146e-07
3.38145e-07
3.38144e-07
3.38142e-07
3.38146e-07
3.38144e-07
4.15204e-07
5.12984e-07
3.42353e-07
3.5584e-07
4.13679e-07
5.18428e-07
3.42353e-07
8.9263e-07
8.47023e-07
4.15212e-07
3.42357e-07
5.12998e-07
3.5585e-07
4.13686e-07
3.42357e-07
5.18442e-07
5.6647e-07
5.66452e-07
3.79979e-07
5.61045e-07
5.61025e-07
5.02468e-07
9.28464e-07
5.01102e-07
8.98473e-07
8.92596e-07
8.46995e-07
5.02474e-07
9.285e-07
5.01107e-07
8.98463e-07
3.38143e-07
3.38146e-07
3.38145e-07
3.38144e-07
3.38142e-07
3.38146e-07
3.38145e-07
4.15204e-07
5.12984e-07
3.42353e-07
3.55841e-07
4.13679e-07
5.18429e-07
3.42353e-07
8.92629e-07
8.47023e-07
4.15212e-07
3.42357e-07
5.12998e-07
3.55849e-07
4.13686e-07
3.42357e-07
5.18442e-07
5.6647e-07
5.66453e-07
3.79979e-07
5.61046e-07
5.61026e-07
5.02468e-07
9.28464e-07
5.01102e-07
8.98473e-07
8.92597e-07
8.46994e-07
5.02474e-07
9.285e-07
5.01107e-07
8.98463e-07
3.38143e-07
3.38146e-07
3.38145e-07
3.38144e-07
3.38142e-07
3.38146e-07
3.38144e-07
4.15204e-07
5.12984e-07
3.42353e-07
3.5584e-07
4.13679e-07
5.18428e-07
3.42353e-07
8.9263e-07
8.47022e-07
4.15212e-07
3.42357e-07
5.12998e-07
3.5585e-07
4.13686e-07
3.42357e-07
5.18442e-07
5.6647e-07
5.66453e-07
3.79979e-07
5.61045e-07
5.61026e-07
5.02468e-07
9.28464e-07
5.01102e-07
8.98473e-07
8.92596e-07
8.46993e-07
5.02474e-07
9.285e-07
5.01107e-07
8.98463e-07
3.38143e-07
3.38146e-07
3.38145e-07
3.38144e-07
3.38143e-07
3.38146e-07
3.38145e-07
4.15204e-07
5.12984e-07
3.42353e-07
3.5584e-07
4.13679e-07
5.18428e-07
3.42353e-07
8.92629e-07
8.47022e-07
4.15212e-07
3.42357e-07
5.12998e-07
3.55849e-07
4.13686e-07
3.42357e-07
5.18442e-07
5.6647e-07
5.66453e-07
3.79979e-07
5.61045e-07
5.61026e-07
5.02469e-07
9.28465e-07
5.01102e-07
8.98472e-07
8.92597e-07
8.46994e-07
5.02474e-07
9.285e-07
5.01107e-07
8.98463e-07
3.38143e-07
3.38146e-07
3.38145e-07
3.38144e-07
3.38142e-07
3.38146e-07
3.38145e-07
4.15204e-07
5.12984e-07
3.42353e-07
3.5584e-07
4.13679e-07
5.18428e-07
3.42353e-07
8.9263e-07
8.47022e-07
4.15212e-07
3.42357e-07
5.12998e-07
3.5585e-07
4.13686e-07
3.42357e-07
5.18442e-07
5.6647e-07
5.66452e-07
3.79979e-07
5.61045e-07
5.61025e-07
5.02469e-07
9.28464e-07
5.01102e-07
8.98473e-07
8.92596e-07
8.46993e-07
5.02474e-07
9.285e-07
5.01107e-07
8.98463e-07
3.38143e-07
3.38146e-07
3.38145e-07
3.38144e-07
3.38142e-07
3.38146e-07
3.38145e-07
4.15204e-07
5.12984e-07
3.42353e-07
3.5584e-07
4.13679e-07
5.18428e-07
3.42353e-07
8.9263e-07
8.47022e-07
4.15212e-07
3.42357e-07
5.12998e-07
3.55849e-07
4.13686e-07
3.42357e-07
5.18442e-07
5.6647e-07
5.66453e-07
3.79979e-07
5.61045e-07
5.61025e-07
5.02468e-07
9.28466e-07
5.01102e-07
8.98474e-07
8.92597e-07
8.46994e-07
5.02474e-07
9.28501e-07
5.01107e-07
8.98463e-07
3.38143e-07
3.38146e-07
3.38145e-07
3.38144e-07
3.38142e-07
3.38146e-07
3.38145e-07
4.15204e-07
5.12984e-07
3.42354e-07
3.5584e-07
4.13679e-07
5.18428e-07
3.42353e-07
8.9263e-07
8.47022e-07
4.15212e-07
3.42357e-07
5.12998e-07
3.55849e-07
4.13686e-07
3.42357e-07
5.18442e-07
5.6647e-07
5.66452e-07
3.79979e-07
5.61045e-07
5.61025e-07
5.02468e-07
9.28465e-07
5.01102e-07
8.98473e-07
8.92598e-07
8.46993e-07
5.02474e-07
9.285e-07
5.01107e-07
8.98464e-07
3.38143e-07
3.38146e-07
3.38145e-07
3.38144e-07
3.38143e-07
3.38146e-07
3.38145e-07
4.15204e-07
5.12984e-07
3.42353e-07
3.5584e-07
4.13679e-07
5.18428e-07
3.42353e-07
8.92629e-07
8.47022e-07
4.15212e-07
3.42357e-07
5.12998e-07
3.55849e-07
4.13686e-07
3.42357e-07
5.18442e-07
5.6647e-07
5.66453e-07
3.79979e-07
5.61045e-07
5.61025e-07
5.02468e-07
9.28464e-07
5.01102e-07
8.98473e-07
8.92598e-07
8.46994e-07
5.02475e-07
9.285e-07
5.01107e-07
8.98463e-07
3.38143e-07
3.38146e-07
3.38145e-07
3.3815e-07
3.38148e-07
3.38151e-07
3.3815e-07
4.15204e-07
5.12985e-07
3.42353e-07
3.55841e-07
4.13679e-07
5.18428e-07
3.42353e-07
8.9263e-07
8.47022e-07
4.15212e-07
3.42357e-07
5.12998e-07
3.5585e-07
4.13686e-07
3.42358e-07
5.18442e-07
5.6647e-07
5.66453e-07
3.79979e-07
5.61045e-07
5.61026e-07
8.92675e-07
9.28572e-07
5.01112e-07
3.38171e-07
3.38174e-07
3.38173e-07
5.12992e-07
3.42386e-07
4.13702e-07
8.92706e-07
3.42389e-07
5.13005e-07
4.13709e-07
5.66481e-07
5.66463e-07
5.66469e-07
5.66463e-07
3.79981e-07
5.61039e-07
5.61042e-07
8.92594e-07
8.4695e-07
8.47023e-07
8.92624e-07
3.7947e-07
5.61043e-07
5.61039e-07
5.66462e-07
5.6647e-07
8.46954e-07
8.92592e-07
4.15213e-07
3.42357e-07
5.13009e-07
3.55852e-07
5.18447e-07
4.13687e-07
3.42357e-07
5.02478e-07
9.28494e-07
8.98494e-07
5.01112e-07
5.02478e-07
9.28518e-07
8.98461e-07
5.01113e-07
4.13685e-07
3.5585e-07
3.42357e-07
5.18442e-07
5.12999e-07
4.15217e-07
3.42357e-07
4.13688e-07
3.55855e-07
3.42357e-07
5.18451e-07
5.13007e-07
4.15216e-07
3.42358e-07
5.01111e-07
8.98494e-07
9.28497e-07
5.02481e-07
5.0111e-07
8.98485e-07
9.28481e-07
5.0248e-07
8.92579e-07
8.47011e-07
8.92621e-07
8.46954e-07
3.79467e-07
5.61041e-07
5.6103e-07
5.66462e-07
5.66462e-07
8.46955e-07
8.92627e-07
8.47022e-07
8.92586e-07
8.92565e-07
8.46941e-07
8.92609e-07
8.46995e-07
5.66464e-07
5.66447e-07
3.79975e-07
5.61041e-07
5.61021e-07
8.46944e-07
8.92569e-07
8.46994e-07
8.92611e-07
3.79465e-07
5.61042e-07
5.61021e-07
5.66466e-07
5.66448e-07
5.02469e-07
9.28476e-07
8.98449e-07
5.01101e-07
4.15205e-07
5.12999e-07
3.42355e-07
3.55856e-07
5.18444e-07
3.42355e-07
4.13679e-07
4.15208e-07
5.13005e-07
3.42354e-07
3.55853e-07
5.18448e-07
3.42355e-07
4.13682e-07
5.01101e-07
8.98467e-07
9.28458e-07
5.0247e-07
5.01102e-07
8.98447e-07
9.28476e-07
5.0247e-07
4.1368e-07
3.55857e-07
5.18443e-07
3.42355e-07
5.13002e-07
3.42356e-07
4.15208e-07
4.13683e-07
3.55854e-07
5.18447e-07
3.42354e-07
5.13008e-07
3.42355e-07
4.1521e-07
5.66453e-07
5.66448e-07
3.79971e-07
5.61027e-07
5.61025e-07
8.92572e-07
8.46935e-07
8.46994e-07
8.92597e-07
3.7946e-07
5.61026e-07
5.61024e-07
5.66455e-07
5.66447e-07
8.46937e-07
8.92573e-07
4.15209e-07
5.13001e-07
3.42355e-07
3.55844e-07
5.18444e-07
3.42355e-07
4.13682e-07
5.02477e-07
9.28542e-07
8.98512e-07
5.01109e-07
4.15216e-07
3.42358e-07
5.13021e-07
3.55861e-07
3.42358e-07
5.18465e-07
4.13689e-07
5.01106e-07
8.98462e-07
9.28499e-07
5.02475e-07
4.13684e-07
3.55845e-07
5.18444e-07
3.42355e-07
5.13004e-07
3.42356e-07
4.15212e-07
5.01109e-07
8.98513e-07
9.28546e-07
5.02477e-07
4.13691e-07
3.55862e-07
3.42358e-07
5.18465e-07
3.42359e-07
5.13025e-07
4.15219e-07
5.02473e-07
9.28451e-07
8.98453e-07
5.01106e-07
4.15211e-07
3.42356e-07
5.13001e-07
3.55857e-07
3.42357e-07
5.18449e-07
4.13685e-07
5.02476e-07
9.28486e-07
8.98501e-07
5.01109e-07
4.13679e-07
3.55843e-07
5.18429e-07
3.42354e-07
5.12987e-07
3.42354e-07
4.15211e-07
5.01106e-07
8.98455e-07
9.28453e-07
5.02475e-07
4.13686e-07
3.55858e-07
3.42357e-07
5.18449e-07
3.42357e-07
5.13008e-07
4.15213e-07
5.01108e-07
8.98503e-07
9.285e-07
5.02477e-07
5.66472e-07
5.66464e-07
3.79983e-07
5.61044e-07
5.61041e-07
8.92593e-07
8.46953e-07
8.47024e-07
8.9263e-07
3.79473e-07
5.61045e-07
5.61041e-07
5.66473e-07
5.66464e-07
8.46956e-07
8.92594e-07
4.15215e-07
3.42357e-07
5.13012e-07
3.55848e-07
4.13691e-07
3.42357e-07
5.1845e-07
5.0248e-07
9.28494e-07
5.01113e-07
8.98496e-07
5.0248e-07
9.28526e-07
5.01113e-07
8.98478e-07
4.13687e-07
3.55851e-07
3.42357e-07
5.18443e-07
3.42358e-07
5.13001e-07
4.15218e-07
4.1369e-07
3.55847e-07
3.42357e-07
5.18448e-07
3.42358e-07
5.13008e-07
4.15217e-07
5.01113e-07
8.98495e-07
9.28497e-07
5.02482e-07
5.01113e-07
8.98475e-07
9.28509e-07
5.02482e-07
8.92584e-07
8.46957e-07
8.92621e-07
8.47008e-07
3.7947e-07
5.61046e-07
5.61027e-07
5.66471e-07
5.66454e-07
8.46963e-07
8.92591e-07
8.47012e-07
8.92625e-07
8.92571e-07
8.46942e-07
8.9261e-07
8.46995e-07
5.66466e-07
5.66447e-07
3.79975e-07
5.61042e-07
5.61021e-07
8.46943e-07
8.9257e-07
8.46995e-07
8.9261e-07
3.79465e-07
5.61042e-07
5.61021e-07
5.66466e-07
5.66448e-07
5.02469e-07
9.28474e-07
5.01103e-07
8.98448e-07
4.15205e-07
5.13002e-07
3.42355e-07
3.55855e-07
4.13683e-07
5.18444e-07
3.42355e-07
4.15208e-07
5.13006e-07
3.42355e-07
3.55852e-07
4.13685e-07
5.18448e-07
3.42354e-07
5.01101e-07
8.98467e-07
9.28459e-07
5.0247e-07
5.01102e-07
8.98447e-07
9.28474e-07
5.0247e-07
4.1368e-07
3.55857e-07
5.18443e-07
3.42355e-07
5.13002e-07
3.42356e-07
4.15208e-07
4.13683e-07
3.55853e-07
5.18447e-07
3.42354e-07
5.13008e-07
3.42355e-07
4.1521e-07
5.66453e-07
5.66448e-07
3.79971e-07
5.61027e-07
5.61025e-07
8.92575e-07
8.46936e-07
8.46994e-07
8.92599e-07
3.7946e-07
5.61027e-07
5.61024e-07
5.66455e-07
5.66448e-07
8.46937e-07
8.92572e-07
4.1521e-07
5.13003e-07
3.42356e-07
3.55843e-07
4.13687e-07
5.18444e-07
3.42355e-07
5.02476e-07
9.28547e-07
5.01111e-07
8.98514e-07
4.15217e-07
3.42359e-07
5.13025e-07
3.55861e-07
4.13693e-07
3.42358e-07
5.18466e-07
5.01107e-07
8.98462e-07
9.28501e-07
5.02476e-07
4.13685e-07
3.55845e-07
5.18443e-07
3.42355e-07
5.13004e-07
3.42356e-07
4.15212e-07
5.0111e-07
8.98513e-07
9.28546e-07
5.02478e-07
4.13691e-07
3.55862e-07
3.42358e-07
5.18465e-07
3.42359e-07
5.13026e-07
4.15219e-07
5.02473e-07
9.28454e-07
5.01107e-07
8.98455e-07
4.15211e-07
3.42357e-07
5.13008e-07
3.55858e-07
4.13688e-07
3.42357e-07
5.1845e-07
5.02475e-07
9.28501e-07
5.01109e-07
8.98503e-07
4.13679e-07
3.55842e-07
5.18429e-07
3.42354e-07
5.12987e-07
3.42354e-07
4.15211e-07
5.01106e-07
8.98454e-07
9.28453e-07
5.02475e-07
4.13686e-07
3.55858e-07
3.42357e-07
5.18449e-07
3.42357e-07
5.13009e-07
4.15213e-07
5.01108e-07
8.98504e-07
9.28501e-07
5.02477e-07
5.66473e-07
5.66465e-07
3.79984e-07
5.61045e-07
5.61041e-07
8.92595e-07
8.46953e-07
8.47023e-07
8.92629e-07
3.79473e-07
5.61044e-07
5.6104e-07
5.66473e-07
5.66465e-07
8.46954e-07
8.92594e-07
4.15215e-07
3.42357e-07
5.13008e-07
3.55847e-07
4.13692e-07
3.42357e-07
5.1845e-07
5.0248e-07
9.28497e-07
5.01114e-07
8.98494e-07
5.02481e-07
9.2851e-07
5.01114e-07
8.98475e-07
4.13687e-07
3.55852e-07
3.42358e-07
5.18443e-07
3.42358e-07
5.13001e-07
4.15219e-07
4.1369e-07
3.55847e-07
3.42357e-07
5.18448e-07
3.42358e-07
5.13009e-07
4.15217e-07
5.01113e-07
8.98495e-07
9.28496e-07
5.02482e-07
5.01113e-07
8.98474e-07
9.28511e-07
5.02482e-07
8.92586e-07
8.4696e-07
8.92625e-07
8.4701e-07
3.7947e-07
5.61046e-07
5.61027e-07
5.66471e-07
5.66455e-07
8.46963e-07
8.92589e-07
8.47012e-07
8.92629e-07
8.92571e-07
8.46942e-07
8.92611e-07
8.46995e-07
5.66466e-07
5.66448e-07
3.79975e-07
5.61041e-07
5.61022e-07
8.46942e-07
8.9257e-07
8.46996e-07
8.92611e-07
3.79465e-07
5.61041e-07
5.61022e-07
5.66466e-07
5.66448e-07
5.02469e-07
9.28475e-07
5.01103e-07
8.98449e-07
4.15205e-07
5.13001e-07
3.42355e-07
3.55855e-07
4.13683e-07
5.18443e-07
3.42355e-07
4.15208e-07
5.13007e-07
3.42355e-07
3.55852e-07
4.13685e-07
5.18448e-07
3.42354e-07
5.01101e-07
8.98467e-07
9.28459e-07
5.0247e-07
5.01102e-07
8.98447e-07
9.28475e-07
5.0247e-07
4.1368e-07
3.55857e-07
5.18443e-07
3.42355e-07
5.13002e-07
3.42356e-07
4.15207e-07
4.13682e-07
3.55853e-07
5.18447e-07
3.42354e-07
5.13007e-07
3.42355e-07
4.1521e-07
5.66455e-07
5.66449e-07
3.79971e-07
5.61027e-07
5.61025e-07
8.92574e-07
8.46935e-07
8.46993e-07
8.92597e-07
3.79461e-07
5.61026e-07
5.61024e-07
5.66455e-07
5.66448e-07
8.46936e-07
8.92571e-07
4.1521e-07
5.13003e-07
3.42355e-07
3.55843e-07
4.13687e-07
5.18445e-07
3.42355e-07
5.02477e-07
9.28545e-07
5.01111e-07
8.98513e-07
4.15217e-07
3.42359e-07
5.13025e-07
3.55861e-07
4.13693e-07
3.42359e-07
5.18466e-07
5.01106e-07
8.98462e-07
9.28501e-07
5.02476e-07
4.13685e-07
3.55844e-07
5.18444e-07
3.42355e-07
5.13004e-07
3.42356e-07
4.15212e-07
5.0111e-07
8.98513e-07
9.28546e-07
5.02478e-07
4.13691e-07
3.55862e-07
3.42358e-07
5.18465e-07
3.42359e-07
5.13025e-07
4.15219e-07
5.02473e-07
9.28453e-07
5.01107e-07
8.98454e-07
4.15211e-07
3.42357e-07
5.13008e-07
3.55859e-07
4.13688e-07
3.42357e-07
5.18451e-07
5.02475e-07
9.285e-07
5.0111e-07
8.98503e-07
4.13679e-07
3.55842e-07
5.18429e-07
3.42354e-07
5.12987e-07
3.42354e-07
4.15211e-07
5.01106e-07
8.98454e-07
9.28452e-07
5.02475e-07
4.13686e-07
3.55858e-07
3.42357e-07
5.1845e-07
3.42357e-07
5.13009e-07
4.15213e-07
5.01108e-07
8.98503e-07
9.285e-07
5.02477e-07
5.66473e-07
5.66465e-07
3.79984e-07
5.61044e-07
5.61041e-07
8.92595e-07
8.46953e-07
8.47025e-07
8.92628e-07
3.79473e-07
5.61045e-07
5.6104e-07
5.66473e-07
5.66465e-07
8.46954e-07
8.92593e-07
4.15215e-07
3.42357e-07
5.13008e-07
3.55846e-07
4.13692e-07
3.42357e-07
5.18449e-07
5.0248e-07
9.28495e-07
5.01114e-07
8.98494e-07
5.02481e-07
9.2851e-07
5.01114e-07
8.98474e-07
4.13687e-07
3.55852e-07
3.42358e-07
5.18443e-07
3.42358e-07
5.13001e-07
4.15218e-07
4.1369e-07
3.55847e-07
3.42357e-07
5.18448e-07
3.42358e-07
5.13008e-07
4.15217e-07
5.01113e-07
8.98494e-07
9.28496e-07
5.02482e-07
5.01113e-07
8.98474e-07
9.2851e-07
5.02482e-07
8.92586e-07
8.46959e-07
8.92625e-07
8.47009e-07
3.79469e-07
5.61046e-07
5.61027e-07
5.66471e-07
5.66453e-07
8.46962e-07
8.92589e-07
8.47012e-07
8.92627e-07
8.92569e-07
8.46941e-07
8.92612e-07
8.46995e-07
5.66466e-07
5.66448e-07
3.79976e-07
5.61041e-07
5.61022e-07
8.46941e-07
8.92568e-07
8.46995e-07
8.92612e-07
3.79465e-07
5.61041e-07
5.61021e-07
5.66466e-07
5.66449e-07
5.02469e-07
9.28473e-07
5.01103e-07
8.98447e-07
4.15205e-07
5.13001e-07
3.42355e-07
3.55855e-07
4.13683e-07
5.18443e-07
3.42355e-07
4.15208e-07
5.13006e-07
3.42355e-07
3.55852e-07
4.13685e-07
5.18448e-07
3.42354e-07
5.01101e-07
8.98467e-07
9.28458e-07
5.0247e-07
5.01102e-07
8.98446e-07
9.28473e-07
5.0247e-07
4.1368e-07
3.55856e-07
5.18442e-07
3.42355e-07
5.13002e-07
3.42356e-07
4.15208e-07
4.13682e-07
3.55853e-07
5.18447e-07
3.42354e-07
5.13007e-07
3.42355e-07
4.1521e-07
5.66453e-07
5.66448e-07
3.79971e-07
5.61027e-07
5.61025e-07
8.92573e-07
8.46936e-07
8.46997e-07
8.92596e-07
3.7946e-07
5.61027e-07
5.61024e-07
5.66455e-07
5.66448e-07
8.46937e-07
8.92572e-07
4.1521e-07
5.13003e-07
3.42355e-07
3.55843e-07
4.13687e-07
5.18445e-07
3.42355e-07
5.02477e-07
9.28545e-07
5.01111e-07
8.98513e-07
4.15217e-07
3.42359e-07
5.13025e-07
3.55861e-07
4.13693e-07
3.42358e-07
5.18466e-07
5.01107e-07
8.98462e-07
9.285e-07
5.02476e-07
4.13685e-07
3.55845e-07
5.18443e-07
3.42355e-07
5.13004e-07
3.42356e-07
4.15212e-07
5.0111e-07
8.98513e-07
9.28546e-07
5.02478e-07
4.13691e-07
3.55862e-07
3.42358e-07
5.18465e-07
3.42359e-07
5.13025e-07
4.15219e-07
5.02473e-07
9.28453e-07
5.01107e-07
8.98454e-07
4.15211e-07
3.42357e-07
5.13008e-07
3.55859e-07
4.13688e-07
3.42357e-07
5.18451e-07
5.02475e-07
9.285e-07
5.0111e-07
8.98503e-07
4.13679e-07
3.55842e-07
5.18429e-07
3.42354e-07
5.12987e-07
3.42354e-07
4.15211e-07
5.01106e-07
8.98454e-07
9.28453e-07
5.02475e-07
4.13686e-07
3.55858e-07
3.42357e-07
5.18449e-07
3.42357e-07
5.13009e-07
4.15213e-07
5.01108e-07
8.98504e-07
9.28501e-07
5.02477e-07
5.66473e-07
5.66464e-07
3.79984e-07
5.61044e-07
5.61041e-07
8.92595e-07
8.46953e-07
8.47023e-07
8.92627e-07
3.79473e-07
5.61044e-07
5.6104e-07
5.66472e-07
5.66465e-07
8.46953e-07
8.92593e-07
4.15215e-07
3.42357e-07
5.13007e-07
3.55846e-07
4.13692e-07
3.42357e-07
5.18449e-07
5.0248e-07
9.28495e-07
5.01114e-07
8.98494e-07
5.02481e-07
9.2851e-07
5.01114e-07
8.98474e-07
4.13687e-07
3.55852e-07
3.42358e-07
5.18443e-07
3.42358e-07
5.13001e-07
4.15218e-07
4.1369e-07
3.55847e-07
3.42357e-07
5.18448e-07
3.42358e-07
5.13009e-07
4.15217e-07
5.01113e-07
8.98494e-07
9.28496e-07
5.02482e-07
5.01112e-07
8.98474e-07
9.28511e-07
5.02482e-07
8.92587e-07
8.46959e-07
8.92626e-07
8.47009e-07
3.79469e-07
5.61046e-07
5.61027e-07
5.66471e-07
5.66454e-07
8.46963e-07
8.92589e-07
8.47013e-07
8.92628e-07
8.92567e-07
8.4694e-07
8.92611e-07
8.46995e-07
5.66465e-07
5.66448e-07
3.79975e-07
5.61041e-07
5.61022e-07
8.46939e-07
8.92565e-07
8.46995e-07
8.92611e-07
3.79465e-07
5.61042e-07
5.61021e-07
5.66465e-07
5.66448e-07
5.02469e-07
9.28474e-07
5.01103e-07
8.98447e-07
4.15205e-07
5.13001e-07
3.42355e-07
3.55856e-07
4.13683e-07
5.18444e-07
3.42355e-07
4.15208e-07
5.13006e-07
3.42355e-07
3.55852e-07
4.13685e-07
5.18448e-07
3.42354e-07
5.01101e-07
8.98468e-07
9.28461e-07
5.0247e-07
5.01102e-07
8.98448e-07
9.28475e-07
5.0247e-07
4.1368e-07
3.55857e-07
5.18444e-07
3.42355e-07
5.13003e-07
3.42356e-07
4.15208e-07
4.13683e-07
3.55854e-07
5.18447e-07
3.42354e-07
5.13007e-07
3.42355e-07
4.1521e-07
5.66454e-07
5.66449e-07
3.79971e-07
5.61028e-07
5.61025e-07
8.92575e-07
8.46935e-07
8.46997e-07
8.92594e-07
3.7946e-07
5.61026e-07
5.61024e-07
5.66454e-07
5.66448e-07
8.46937e-07
8.92571e-07
4.1521e-07
5.13003e-07
3.42355e-07
3.55843e-07
4.13687e-07
5.18444e-07
3.42355e-07
5.02477e-07
9.28545e-07
5.01111e-07
8.98514e-07
4.15217e-07
3.42359e-07
5.13025e-07
3.55861e-07
4.13693e-07
3.42358e-07
5.18466e-07
5.01106e-07
8.98462e-07
9.28501e-07
5.02476e-07
4.13684e-07
3.55844e-07
5.18443e-07
3.42355e-07
5.13004e-07
3.42356e-07
4.15212e-07
5.0111e-07
8.98513e-07
9.28546e-07
5.02477e-07
4.13691e-07
3.55862e-07
3.42358e-07
5.18465e-07
3.42359e-07
5.13025e-07
4.15219e-07
5.02473e-07
9.28453e-07
5.01107e-07
8.98454e-07
4.15211e-07
3.42357e-07
5.13008e-07
3.55858e-07
4.13688e-07
3.42357e-07
5.1845e-07
5.02475e-07
9.285e-07
5.0111e-07
8.98503e-07
4.13679e-07
3.55842e-07
5.18429e-07
3.42354e-07
5.12987e-07
3.42354e-07
4.15211e-07
5.01106e-07
8.98455e-07
9.28453e-07
5.02475e-07
4.13686e-07
3.55858e-07
3.42356e-07
5.18449e-07
3.42357e-07
5.13009e-07
4.15213e-07
5.01108e-07
8.98504e-07
9.28501e-07
5.02477e-07
5.66473e-07
5.66464e-07
3.79984e-07
5.61045e-07
5.6104e-07
8.92595e-07
8.46952e-07
8.47024e-07
8.92629e-07
3.79473e-07
5.61045e-07
5.61041e-07
5.66473e-07
5.66465e-07
8.46955e-07
8.92594e-07
4.15215e-07
3.42357e-07
5.13007e-07
3.55847e-07
4.13692e-07
3.42357e-07
5.1845e-07
5.0248e-07
9.28495e-07
5.01114e-07
8.98493e-07
5.02481e-07
9.2851e-07
5.01114e-07
8.98475e-07
4.13687e-07
3.55852e-07
3.42357e-07
5.18443e-07
3.42358e-07
5.13001e-07
4.15219e-07
4.1369e-07
3.55847e-07
3.42357e-07
5.18449e-07
3.42358e-07
5.13009e-07
4.15218e-07
5.01113e-07
8.98495e-07
9.28495e-07
5.02482e-07
5.01113e-07
8.98475e-07
9.28511e-07
5.02482e-07
8.92586e-07
8.46959e-07
8.92625e-07
8.4701e-07
3.7947e-07
5.61046e-07
5.61027e-07
5.66471e-07
5.66454e-07
8.46963e-07
8.92589e-07
8.47013e-07
8.92629e-07
8.92567e-07
8.46941e-07
8.92611e-07
8.46996e-07
5.66466e-07
5.66447e-07
3.79975e-07
5.61042e-07
5.61022e-07
8.46944e-07
8.92571e-07
8.46995e-07
8.92611e-07
3.79465e-07