/*--------------------------------*- C++ -*----------------------------------*\
| =========                 |                                                 |
| \\      /  F ield         | OpenFOAM: The Open Source CFD Toolbox           |
|  \\    /   O peration     | Version:  2206                                  |
|   \\  /    A nd           | Website:  www.openfoam.com                      |
|    \\/     M anipulation  |                                                 |
\*---------------------------------------------------------------------------*/
FoamFile
{
    version     2.0;
    format      ascii;
    arch        "LSB;label=32;scalar=64";
    class       surfaceScalarField;
    location    "20";
    object      phi;
}
// * * * * * * * * * * * * * * * * * * * * * * * * * * * * * * * * * * * * * //

dimensions      [0 3 -1 0 0 0 0];

oriented        oriented;

internalField   nonuniform List<scalar> 
81851
(
-1.14002e-08
-1.12737e-08
2.26366e-08
2.2953e-08
-3.27799e-08
4.88609e-08
4.90159e-08
3.31174e-08
-6.06396e-08
-6.03267e-08
-1.0028e-08
-3.87065e-08
1.87714e-07
1.13288e-08
-3.07246e-08
4.5887e-08
5.04618e-08
-1.17201e-07
-4.17017e-09
-5.62678e-08
8.93684e-08
-3.90033e-08
1.8693e-07
1.12387e-08
-3.07068e-08
4.59734e-08
5.06401e-08
-1.16918e-07
-3.65926e-09
-5.61178e-08
8.35803e-08
-4.88452e-08
-3.85355e-08
1.87147e-07
1.13879e-08
-3.06969e-08
4.59981e-08
5.04413e-08
-1.17206e-07
-4.087e-09
-5.63344e-08
9.05279e-08
4.90452e-08
3.28506e-08
-6.05408e-08
-6.04226e-08
-9.77768e-09
-3.92374e-08
1.87779e-07
1.12042e-08
-3.07464e-08
4.58966e-08
5.0581e-08
-1.16969e-07
-5.61348e-08
-3.8354e-09
8.36765e-08
-3.87813e-08
4.59588e-08
-4.88178e-08
-3.0686e-08
-4.13863e-09
-1.17215e-07
1.87396e-07
9.02495e-08
-5.62841e-08
5.04815e-08
-3.90703e-08
4.60034e-08
-4.90114e-08
-3.07098e-08
-5.61336e-08
-3.63177e-09
-1.16928e-07
5.06538e-08
1.86888e-07
8.40347e-08
-3.84697e-08
-3.92967e-08
3.19792e-07
-3.90108e-08
-3.89334e-08
3.19738e-07
-3.87818e-08
-3.94676e-08
3.19761e-07
6.88578e-08
-3.88828e-09
1.98141e-08
-1.11944e-07
-1.74537e-08
6.88532e-08
-4.15088e-09
1.95696e-08
-1.11604e-07
-1.77069e-08
2.13819e-07
-1.3772e-07
-2.1417e-08
-5.46812e-08
2.13298e-07
-1.3719e-07
-2.12819e-08
-5.48257e-08
8.12105e-09
1.71896e-07
1.7525e-08
6.11829e-08
-4.49062e-08
8.40062e-09
1.71556e-07
1.78889e-08
6.09105e-08
-4.54583e-08
3.40291e-07
-2.43669e-08
-3.88431e-07
-6.52136e-08
-1.34971e-10
-7.41089e-09
3.61925e-08
-6.89064e-08
5.52037e-08
-1.49439e-08
-7.42643e-09
3.62095e-08
-6.89171e-08
5.49456e-08
-1.49468e-08
2.01355e-07
7.93837e-08
4.47337e-08
2.29394e-08
8.40429e-10
3.85465e-08
7.64589e-08
-2.26629e-10
8.64142e-08
-1.46251e-08
1.50242e-07
-5.18909e-11
4.03713e-08
-5.87388e-09
-2.2527e-08
-1.93297e-08
7.65303e-08
-2.16676e-10
8.64245e-08
-1.45267e-08
1.50694e-07
4.03748e-08
-5.97029e-09
-2.25502e-08
-1.93327e-08
3.40303e-07
-2.40882e-08
-3.8789e-07
-6.55145e-08
-7.25865e-09
1.14854e-10
3.61331e-08
5.48907e-08
-6.89813e-08
-1.48987e-08
2.01178e-07
8.02055e-08
4.50303e-08
2.22898e-08
-2.52137e-10
3.95915e-08
7.62587e-08
-4.32831e-10
8.61636e-08
-1.48126e-08
1.48644e-07
4.98582e-11
4.03308e-08
-6.00656e-09
-2.23383e-08
-1.92944e-08
3.40302e-07
1.37337e-07
-2.42248e-08
-3.88168e-07
-6.52458e-08
-7.3597e-09
3.6073e-08
-6.89217e-08
5.51471e-08
-1.48237e-08
3.88762e-08
7.63914e-08
-3.28654e-10
8.63086e-08
-1.47193e-08
1.50849e-07
-8.31663e-09
2.01335e-07
7.93411e-08
4.49116e-08
2.30315e-08
4.02213e-08
-2.24351e-08
-5.90824e-09
-1.91877e-08
2.13402e-07
-2.12761e-08
-5.4789e-08
1.71643e-07
1.75065e-08
6.08623e-08
-4.49263e-08
-2.13768e-07
8.16455e-09
1.71775e-07
1.77964e-08
6.12692e-08
-4.52375e-08
-1.37662e-07
-2.1376e-08
-5.47299e-08
3.95253e-08
7.63254e-08
-3.53774e-10
-1.47492e-08
8.62753e-08
1.47954e-07
-3.40282e-07
2.01221e-07
8.00321e-08
4.48137e-08
2.23802e-08
7.49851e-09
4.02426e-08
-2.24733e-08
-5.94585e-09
-1.93137e-08
-2.41597e-08
-3.8832e-07
-6.54651e-08
3.60717e-08
5.51463e-08
-6.87747e-08
-1.4832e-08
2.12405e-07
-4.8304e-08
-7.93179e-08
7.05945e-09
7.97088e-08
2.43168e-08
4.34228e-08
2.12815e-07
-4.87776e-08
7.25475e-09
-8.00133e-08
7.99524e-08
4.35765e-08
2.41585e-08
2.14022e-08
2.13615e-08
6.44813e-08
4.63803e-08
-1.55486e-07
-2.83171e-09
4.82711e-08
-8.14827e-10
2.77696e-08
-5.29918e-08
-1.44925e-08
4.89472e-08
-1.81688e-07
-1.1462e-09
2.97972e-08
1.71869e-07
6.11643e-08
-2.13786e-07
8.13077e-09
-4.48315e-08
2.63127e-08
-1.16589e-07
1.0612e-07
6.96136e-08
-1.04765e-08
-5.39026e-08
-4.15653e-08
6.46532e-08
4.65043e-08
-1.55298e-07
-2.88315e-09
4.80445e-08
-1.02037e-09
2.78716e-08
-5.36271e-08
-1.48433e-08
4.89333e-08
-1.81833e-07
-1.19401e-09
3.03108e-08
1.71505e-07
6.0882e-08
-2.13287e-07
8.42129e-09
-4.52285e-08
2.65765e-08
-1.16944e-07
1.05725e-07
6.97646e-08
-1.11068e-08
-5.40435e-08
-4.15671e-08
1.65197e-08
1.09234e-08
1.10861e-08
-4.42441e-08
-1.29095e-08
4.67796e-09
-1.238e-08
4.6718e-09
-3.8301e-08
-3.82856e-08
3.91238e-09
-7.97459e-08
4.20202e-09
-8.00461e-08
1.81687e-07
-2.77425e-08
-6.4665e-08
2.63031e-08
-1.16589e-07
5.32214e-08
-4.64025e-08
1.06138e-07
6.9636e-08
-1.06964e-08
-1.11931e-07
1.98181e-08
6.88269e-08
1.14491e-09
1.55507e-07
-5.39096e-08
-4.15596e-08
2.97957e-08
-1.44808e-08
4.89787e-08
-2.85775e-09
4.82899e-08
-9.92186e-10
1.81817e-07
-2.78874e-08
-6.48491e-08
2.65945e-08
-1.16909e-07
5.38916e-08
-4.64959e-08
1.05772e-07
6.97546e-08
-1.13657e-08
-1.11542e-07
1.95789e-08
6.87804e-08
1.2724e-09
1.55334e-07
-5.40275e-08
-4.1669e-08
3.03282e-08
-1.48121e-08
4.89254e-08
-2.88652e-09
4.80947e-08
-1.21937e-09
1.29116e-08
1.23582e-08
-1.65668e-08
-4.69672e-09
-1.09369e-08
-3.82759e-08
-4.68055e-09
-1.1076e-08
-3.82714e-08
-4.43243e-08
1.95926e-08
-1.04682e-07
3.11183e-08
4.33114e-08
-2.12366e-07
-2.52571e-07
-5.18586e-11
-1.32395e-07
6.67011e-08
-7.01144e-08
-1.78828e-07
-5.41508e-08
-1.76069e-08
-1.13767e-07
5.50598e-08
3.7114e-08
-1.52428e-07
1.55867e-07
1.46516e-08
-7.51227e-11
-1.49155e-07
1.24536e-07
-7.87914e-08
-1.64564e-10
-1.14487e-07
-9.24148e-08
2.88915e-08
8.48982e-09
-2.21578e-08
-9.16482e-08
-2.41806e-11
-1.48606e-07
-1.04808e-07
1.9639e-08
3.12094e-08
8.46911e-11
-2.52259e-07
-1.32109e-07
6.64728e-08
-7.01931e-08
-1.7503e-08
-1.13987e-07
-1.78602e-07
-5.40178e-08
3.71858e-08
-1.5251e-07
5.51163e-08
1.55888e-07
1.44957e-08
-1.49173e-07
-7.88175e-08
1.24232e-07
-1.14496e-07
2.89855e-08
-9.23341e-08
8.37293e-09
-2.21877e-08
-1.48725e-07
-9.15884e-08
1.95923e-08
-1.04788e-07
3.11989e-08
4.34592e-08
-2.12807e-07
-2.52235e-07
3.35521e-10
-1.31966e-07
6.66064e-08
-7.06323e-08
-1.78454e-07
-5.41886e-08
-1.74255e-08
-1.14002e-07
5.51248e-08
-1.52428e-07
3.71021e-08
1.44425e-08
1.55812e-07
5.43893e-11
-1.49039e-07
-9.24493e-08
2.90118e-08
8.60901e-09
-2.22467e-08
1.24109e-07
-7.89147e-08
2.31283e-10
-1.14406e-07
-9.16701e-08
-1.48602e-07
-1.39016e-10
-1.04747e-07
1.95696e-08
3.12025e-08
4.32466e-08
8.00565e-08
-2.12493e-07
-6.1079e-12
-2.52539e-07
-1.32272e-07
6.6706e-08
-7.00574e-08
-1.75703e-08
-1.1382e-07
-1.78813e-07
-5.41562e-08
3.72413e-08
-1.52451e-07
5.50709e-08
1.55844e-07
1.45949e-08
-1.491e-07
-7.89127e-08
1.24568e-07
-1.14345e-07
2.88458e-08
-9.2441e-08
8.51251e-09
-2.20424e-08
-1.48584e-07
-9.16159e-08
4.24773e-09
-2.771e-08
1.81741e-07
-6.45615e-08
2.64605e-08
-1.16885e-07
5.30624e-08
-4.65197e-08
1.05966e-07
6.97226e-08
-1.05872e-08
1.97964e-08
-1.11662e-07
6.888e-08
1.23691e-09
1.55348e-07
-5.41567e-08
-4.15657e-08
-1.45986e-08
4.90553e-08
3.01856e-08
-2.93317e-09
4.81418e-08
-9.40745e-10
1.81786e-07
-2.79331e-08
-6.4745e-08
2.64422e-08
-1.16619e-07
5.3722e-08
-4.63612e-08
1.05928e-07
6.96425e-08
-1.11564e-08
-1.11843e-07
1.96025e-08
-3.77723e-09
6.87597e-08
1.27801e-09
1.55484e-07
-5.37569e-08
-4.17357e-08
2.99212e-08
-1.46867e-08
4.88244e-08
-2.78456e-09
4.82189e-08
-1.05651e-09
1.24954e-08
1.28045e-08
-1.65589e-08
-4.65471e-09
-1.12302e-08
-3.82713e-08
-4.66827e-09
-1.07822e-08
-3.83066e-08
-4.42883e-08
-7.96341e-08
-1.04789e-07
1.96198e-08
3.12169e-08
4.35606e-08
-2.12575e-07
1.92461e-10
-2.52478e-07
-1.3227e-07
6.66927e-08
-7.04572e-08
-1.75026e-08
-1.13847e-07
-1.78751e-07
-5.4108e-08
-1.52381e-07
3.7123e-08
5.51539e-08
1.45783e-08
1.55826e-07
-1.49096e-07
2.88923e-08
-9.23964e-08
8.53411e-09
-2.2154e-08
-7.89507e-08
1.245e-07
-1.14173e-07
-1.48552e-07
-9.14933e-08
1.37694e-07
3.40316e-07
-3.88451e-07
-6.52418e-08
-1.96499e-08
2.52295e-07
-1.78527e-07
-5.41185e-08
1.04891e-07
-1.72925e-10
-1.13999e-07
-1.73918e-08
-3.87917e-07
1.37205e-07
3.40287e-07
-6.5417e-08
3.13028e-08
6.66032e-08
-1.31982e-07
-7.04157e-08
-5.469e-08
-5.47203e-08
6.55701e-08
1.98682e-08
2.0076e-08
-9.19871e-09
8.85993e-08
-4.64261e-08
8.87423e-08
-4.71961e-08
-6.06249e-08
-6.02775e-08
-9.70656e-09
-1.17487e-08
-1.23826e-08
-8.85486e-08
-8.87257e-08
-6.58651e-08
2.26128e-08
2.29032e-08
4.67593e-08
-1.99169e-08
-1.20693e-08
4.75145e-08
-2.00883e-08
-1.26882e-08
-9.48533e-09
-8.87076e-08
-8.85797e-08
-6.56672e-08
2.27337e-08
2.27857e-08
4.66052e-08
-2.0015e-08
-1.18624e-08
4.71857e-08
-1.99812e-08
-1.24455e-08
-9.30269e-09
-4.65468e-10
2.35897e-07
-1.71543e-10
1.75484e-10
2.35809e-07
-2.50103e-11
1.7148e-07
-1.56135e-10
2.35941e-07
1.76199e-10
2.35058e-07
1.71065e-07
-5.07605e-08
8.18228e-08
-3.53229e-08
4.85879e-08
4.83532e-08
9.94509e-08
5.98634e-09
-4.82943e-08
7.04202e-09
4.8723e-08
5.95327e-08
1.72229e-08
-1.40438e-08
9.70504e-09
7.34319e-08
-6.03926e-09
1.17258e-07
2.55382e-08
-2.65383e-08
-3.29131e-09
-1.24859e-07
-3.84115e-11
4.33078e-08
-5.14661e-09
-1.83221e-08
2.30808e-08
-3.5818e-08
3.94006e-11
-1.00559e-08
3.73476e-11
-8.69618e-09
8.20815e-08
-3.53625e-08
4.85464e-08
4.88243e-08
5.9243e-08
1.73135e-08
-1.41215e-08
9.78272e-09
7.33805e-08
-6.1107e-09
1.17355e-07
2.54739e-08
-2.65279e-08
-3.36754e-09
-1.24881e-07
4.3363e-08
-5.29523e-09
-1.83514e-08
2.30557e-08
-3.57447e-08
-1.00384e-08
-8.71418e-09
-5.08796e-08
8.2042e-08
-3.64402e-08
4.87536e-08
4.96572e-08
9.95321e-08
4.82488e-09
-4.8779e-08
7.22481e-09
4.93741e-08
5.94564e-08
1.745e-08
-1.46439e-08
9.93555e-09
7.3503e-08
-7.07267e-09
1.17156e-07
2.56206e-08
-2.69466e-08
-3.46787e-09
-1.24688e-07
6.78266e-11
4.35079e-08
-4.97753e-09
-1.84775e-08
2.31567e-08
-3.58446e-08
1.64879e-11
-1.00996e-08
4.55367e-11
-9.07816e-09
8.18188e-08
-5.07994e-08
-3.51348e-08
4.85953e-08
4.81795e-08
9.95084e-08
6.16321e-09
7.11827e-09
-4.83947e-08
4.86404e-08
5.95807e-08
1.73015e-08
-1.3905e-08
9.7654e-09
7.34483e-08
-5.82842e-09
2.55056e-08
1.17215e-07
-2.63478e-08
-1.2479e-07
-3.30186e-09
2.2927e-08
-3.57971e-08
-9.8772e-09
4.31793e-08
-5.06562e-09
-1.82078e-08
-8.48136e-09
-3.62917e-08
-5.07917e-08
8.19291e-08
4.87006e-08
9.94454e-08
4.9486e-08
4.96279e-09
-4.85589e-08
7.12468e-09
5.95013e-08
4.92041e-08
1.73227e-08
-1.45216e-08
7.3476e-08
-6.95588e-09
9.82829e-09
-2.68552e-08
2.56198e-08
1.17181e-07
-1.248e-07
-3.38909e-09
-3.58674e-08
2.31403e-08
-1.01622e-08
-5.04496e-09
4.33786e-08
-1.84225e-08
-9.04063e-09
-4.81704e-08
5.07291e-08
2.0137e-07
4.47609e-08
2.29978e-08
9.94419e-08
6.15695e-09
-9.95445e-08
3.62444e-08
-5.94668e-08
7.35071e-08
-6.87388e-09
-4.94166e-08
5.0872e-08
-8.20381e-08
-4.92097e-08
9.95021e-09
2.01172e-07
4.50632e-08
2.24604e-08
5.04765e-09
4.87363e-08
1.74572e-08
-1.44672e-08
1.12803e-08
1.87466e-07
8.32002e-08
4.60324e-08
-4.8999e-08
-3.06781e-08
-5.60515e-08
-3.41184e-09
-1.16874e-07
5.07744e-08
-8.33393e-08
-3.93996e-08
-1.1372e-08
2.28053e-08
2.31262e-08
-3.30174e-08
9.95836e-09
-1.15004e-08
3.88192e-08
3.93154e-08
-3.88907e-08
-3.90734e-08
3.20038e-07
-3.20208e-07
1.13264e-08
-3.95547e-08
1.87617e-07
8.35472e-08
4.60535e-08
-4.89815e-08
-3.06858e-08
-5.60018e-08
-3.37246e-09
-1.16864e-07
5.083e-08
-8.39141e-08
-8.33851e-08
1.14213e-08
-3.92811e-08
1.86596e-07
8.37302e-08
4.616e-08
-4.88882e-08
-3.05742e-08
-5.60834e-08
-3.5105e-09
5.07424e-08
-1.16928e-07
9.91128e-09
-1.12467e-08
-1.17259e-08
2.31898e-08
2.27877e-08
-3.29162e-08
3.88564e-08
3.91725e-08
-3.19925e-07
-3.86642e-08
-3.93965e-08
3.19957e-07
-8.33472e-08
1.13667e-08
-3.9437e-08
1.86915e-07
8.33855e-08
4.61006e-08
-4.89352e-08
-3.06268e-08
-5.60091e-08
-3.3789e-09
5.08332e-08
-1.16867e-07
-8.36484e-08
1.13325e-08
-3.94436e-08
1.87371e-07
8.36305e-08
4.60707e-08
-4.89751e-08
-3.06659e-08
-5.60737e-08
-3.45691e-09
5.07525e-08
-1.16894e-07
9.78047e-09
-1.15197e-08
-1.14116e-08
2.28299e-08
2.31244e-08
-3.28034e-08
3.88781e-08
3.91884e-08
-3.19979e-07
-3.86801e-08
-3.93841e-08
3.19977e-07
-8.33355e-08
1.13644e-08
-3.9434e-08
1.86948e-07
8.33836e-08
4.6099e-08
-4.89385e-08
-3.06325e-08
-5.60153e-08
-3.39099e-09
5.08258e-08
-1.16874e-07
-8.35364e-08
1.13411e-08
-3.94229e-08
1.87372e-07
8.35278e-08
4.60839e-08
-4.89792e-08
-3.06693e-08
-5.60818e-08
-3.4737e-09
5.07418e-08
-1.16903e-07
9.77095e-09
-1.152e-08
-1.14199e-08
2.28368e-08
2.31292e-08
-3.2797e-08
3.88834e-08
3.91973e-08
-3.19977e-07
-3.86923e-08
-3.93837e-08
3.19973e-07
-8.33494e-08
1.13616e-08
-3.94268e-08
1.86964e-07
8.33878e-08
4.60968e-08
-4.89414e-08
-3.06349e-08
-5.60155e-08
-3.39342e-09
5.08245e-08
-1.16874e-07
-8.35304e-08
1.13388e-08
-3.9421e-08
1.87364e-07
8.35222e-08
4.60813e-08
-4.898e-08
-3.06705e-08
-5.60814e-08
-3.46547e-09
5.07445e-08
-1.16902e-07
9.77264e-09
-1.15193e-08
-1.14178e-08
2.28353e-08
2.31283e-08
-3.27991e-08
3.88869e-08
3.92003e-08
-3.19986e-07
-3.86946e-08
-3.9385e-08
3.19978e-07
-8.33731e-08
1.13607e-08
-3.94248e-08
1.8697e-07
8.339e-08
4.60967e-08
-4.89413e-08
-3.06332e-08
-5.60139e-08
-3.38784e-09
5.08273e-08
-1.16871e-07
-8.35236e-08
1.13433e-08
-3.94214e-08
1.87362e-07
8.3522e-08
4.60854e-08
-4.89792e-08
-3.06704e-08
-5.60821e-08
-3.47391e-09
5.07408e-08
-1.16903e-07
9.77462e-09
-1.1519e-08
-1.14164e-08
2.28337e-08
2.31282e-08
-3.28011e-08
3.89064e-08
3.92056e-08
-3.19874e-07
-3.86884e-08
-3.93843e-08
3.19834e-07
-8.3405e-08
1.13548e-08
-3.94191e-08
1.86982e-07
8.34453e-08
4.609e-08
-4.89517e-08
-3.06452e-08
-5.60144e-08
-3.39055e-09
5.0827e-08
-1.16873e-07
-8.35115e-08
1.13262e-08
-3.94243e-08
1.87366e-07
8.35374e-08
4.60634e-08
-4.89846e-08
-3.06784e-08
-5.60779e-08
-3.46538e-09
5.07469e-08
-1.16898e-07
9.76801e-09
-1.15189e-08
-1.14159e-08
2.28339e-08
2.31274e-08
-3.27945e-08
3.88645e-08
3.91723e-08
-3.19972e-07
-3.86974e-08
-3.93933e-08
3.20026e-07
-8.34909e-08
1.13616e-08
-3.94253e-08
1.86968e-07
8.35211e-08
4.6097e-08
-4.8946e-08
-3.06378e-08
-5.60135e-08
-3.38905e-09
5.08269e-08
-1.16872e-07
-8.3504e-08
1.13175e-08
-3.94166e-08
1.87363e-07
8.35516e-08
4.60518e-08
-4.89866e-08
-3.06816e-08
-5.60792e-08
-3.46407e-09
5.07479e-08
-1.169e-07
9.77859e-09
-1.15069e-08
-1.14074e-08
2.28231e-08
2.31151e-08
-3.28024e-08
3.8873e-08
3.91873e-08
-3.20057e-07
-3.86759e-08
-3.93843e-08
3.20057e-07
-8.35102e-08
1.13656e-08
-3.94364e-08
1.86969e-07
8.35249e-08
4.61e-08
-4.89445e-08
-3.06392e-08
-5.60113e-08
-3.38012e-09
5.0832e-08
-1.1687e-07
-8.35093e-08
1.13276e-08
-3.94223e-08
1.8736e-07
8.35328e-08
4.60644e-08
-4.8983e-08
-3.06771e-08
-5.60775e-08
-3.46538e-09
5.0747e-08
-1.16898e-07
9.77105e-09
-1.15202e-08
-1.14171e-08
2.28348e-08
2.31295e-08
-3.2798e-08
3.8875e-08
3.91924e-08
-3.20055e-07
-3.86783e-08
-3.93884e-08
3.20055e-07
-8.35441e-08
1.13706e-08
-3.94371e-08
1.86957e-07
8.35468e-08
4.6104e-08
-4.89353e-08
-3.06274e-08
-5.6013e-08
-3.38116e-09
5.08311e-08
-1.16871e-07
-8.3508e-08
1.13209e-08
-3.94206e-08
1.87365e-07
8.35406e-08
4.60592e-08
-4.89831e-08
-3.06744e-08
-5.60806e-08
-3.46447e-09
5.0748e-08
-1.16902e-07
9.76782e-09
-1.15192e-08
-1.1417e-08
2.28341e-08
2.31284e-08
-3.27941e-08
3.88825e-08
3.91889e-08
-3.20052e-07
-3.86767e-08
-3.93938e-08
3.20051e-07
-8.35221e-08
1.13651e-08
-3.94354e-08
1.86968e-07
8.35397e-08
4.60998e-08
-4.89431e-08
-3.06362e-08
-5.60122e-08
-3.38289e-09
5.0831e-08
-1.16872e-07
-8.35133e-08
1.13288e-08
-3.9418e-08
1.87361e-07
8.35331e-08
4.60666e-08
-4.89795e-08
-3.0672e-08
-5.60812e-08
-3.46849e-09
5.07444e-08
-1.16901e-07
9.75202e-09
-1.15164e-08
-1.14122e-08
2.28288e-08
2.31222e-08
-3.27743e-08
3.88782e-08
3.91978e-08
-3.20056e-07
-3.86851e-08
-3.93881e-08
3.20053e-07
-8.3532e-08
1.13642e-08
-3.94271e-08
1.86966e-07
8.35431e-08
4.60986e-08
-4.8942e-08
-3.06342e-08
-5.60145e-08
-3.37932e-09
5.08305e-08
-1.16873e-07
-8.35034e-08
1.13204e-08
-3.9419e-08
1.87358e-07
8.35426e-08
4.60558e-08
-4.89818e-08
-3.06748e-08
-5.60802e-08
-3.46455e-09
5.07475e-08
-1.16901e-07
9.75164e-09
-1.15179e-08
-1.14153e-08
2.28309e-08
2.31244e-08
-3.27738e-08
3.88791e-08
3.91887e-08
-3.20051e-07
-3.86769e-08
-3.93889e-08
3.20049e-07
-8.35237e-08
1.13649e-08
-3.94346e-08
1.86968e-07
8.35444e-08
4.60993e-08
-4.89435e-08
-3.06367e-08
-5.60125e-08
-3.38398e-09
5.08307e-08
-1.16872e-07
-8.35203e-08
1.13296e-08
-3.94212e-08
1.87357e-07
8.35383e-08
4.60678e-08
-4.89784e-08
-3.06704e-08
-5.608e-08
-3.46719e-09
5.07457e-08
-1.169e-07
9.75196e-09
-1.15177e-08
-1.14149e-08
2.28308e-08
2.31247e-08
-3.27748e-08
3.88833e-08
3.92e-08
-3.20046e-07
-3.86881e-08
-3.93886e-08
3.20039e-07
-8.3538e-08
1.137e-08
-3.94302e-08
1.86956e-07
8.35472e-08
4.61035e-08
-4.89353e-08
-3.06277e-08
-5.60147e-08
-3.38618e-09
5.08281e-08
-1.16873e-07
-8.35103e-08
1.13229e-08
-3.94224e-08
1.87359e-07
8.35406e-08
4.60614e-08
-4.89821e-08
-3.06733e-08
-5.60796e-08
-3.46344e-09
5.07485e-08
-1.16901e-07
9.74914e-09
-1.15191e-08
-1.14144e-08
2.28305e-08
2.31271e-08
-3.27733e-08
3.88867e-08
3.91992e-08
-3.20044e-07
-3.86808e-08
-3.93974e-08
3.20036e-07
-8.35046e-08
1.13644e-08
-3.94287e-08
1.86973e-07
8.35147e-08
4.60992e-08
-4.89433e-08
-3.06359e-08
-5.60132e-08
-3.38349e-09
5.08302e-08
-1.16873e-07
-8.35325e-08
1.13328e-08
-3.94259e-08
1.87343e-07
8.35625e-08
4.60706e-08
-4.89772e-08
-3.06693e-08
-5.60809e-08
-3.46729e-09
5.07452e-08
-1.16901e-07
9.74961e-09
-1.15219e-08
-1.14134e-08
2.28301e-08
2.3129e-08
-3.27734e-08
3.88908e-08
3.92073e-08
-3.20038e-07
-3.86465e-08
-3.93885e-08
3.19975e-07
-8.35011e-08
1.13684e-08
-3.94212e-08
1.86965e-07
8.34939e-08
4.61015e-08
-4.89434e-08
-3.06374e-08
-5.60106e-08
-3.37838e-09
5.08327e-08
-1.16869e-07
-8.36436e-08
1.1335e-08
-3.93753e-08
1.87389e-07
8.36514e-08
4.60793e-08
-4.89884e-08
-3.06772e-08
-5.60977e-08
-3.48332e-09
5.07317e-08
-1.16921e-07
9.77289e-09
-1.15075e-08
-1.14035e-08
2.28199e-08
2.31153e-08
-3.27971e-08
3.92459e-08
-3.21018e-07
-3.90448e-08
-3.9111e-08
3.9361e-08
-8.36066e-08
1.14838e-08
-3.978e-08
1.86633e-07
4.61945e-08
-4.87806e-08
-3.04632e-08
-5.5875e-08
-3.21569e-09
5.09291e-08
-1.16673e-07
-8.3216e-08
1.14124e-08
-3.97099e-08
1.87133e-07
4.61243e-08
-4.88845e-08
-3.0573e-08
-5.59757e-08
-3.31532e-09
5.08396e-08
-1.16736e-07
9.79386e-09
-1.15973e-08
-1.15205e-08
2.29439e-08
2.32171e-08
-3.2837e-08
2.28673e-08
2.29671e-08
-3.30883e-08
1.00153e-08
-1.1481e-08
4.89045e-08
-1.00423e-08
3.31096e-08
-6.04219e-08
-6.038e-08
4.88302e-08
1.86864e-07
8.65473e-08
4.61138e-08
-4.8976e-08
-3.07145e-08
-5.61414e-08
-3.36837e-09
-1.16974e-07
5.07799e-08
-8.65931e-08
-3.89096e-08
-8.31545e-08
1.86716e-07
1.14043e-08
-3.05827e-08
4.61513e-08
5.07741e-08
-1.16901e-07
-5.60636e-08
-3.44412e-09
-3.938e-08
-4.8676e-08
8.82518e-08
-8.94756e-08
1.87192e-07
1.15665e-08
-3.04869e-08
4.62424e-08
5.07189e-08
-1.1706e-07
-3.61601e-09
-5.61412e-08
-3.85161e-08
3.29608e-08
-6.01746e-08
-6.05601e-08
4.90094e-08
-1.1526e-08
-1.13394e-08
2.27827e-08
2.31222e-08
-3.31296e-08
1.00901e-08
4.87912e-08
4.89736e-08
-1.00729e-08
3.31136e-08
-6.05701e-08
-6.02354e-08
1.87001e-07
8.9405e-08
4.61292e-08
-4.87382e-08
-3.05922e-08
-5.61977e-08
-3.78508e-09
-1.17133e-07
5.06528e-08
-8.94483e-08
1.16121e-08
-3.87397e-08
1.86363e-07
8.99742e-08
4.62629e-08
-4.86961e-08
-3.05376e-08
-5.61946e-08
-3.62063e-09
-1.1711e-07
5.07134e-08
-9.00272e-08
8.9281e-08
-3.88445e-08
-8.92892e-08
1.87304e-07
1.14718e-08
-3.0645e-08
4.60807e-08
5.06281e-08
-1.17151e-07
-3.82692e-09
-5.62177e-08
-4.87342e-08
8.98547e-08
-3.86661e-08
-8.9884e-08
1.86502e-07
1.15616e-08
-3.05745e-08
4.62149e-08
5.07e-08
-1.1712e-07
-3.65442e-09
-5.62001e-08
2.29398e-08
2.30573e-08
-3.31262e-08
1.00677e-08
4.89412e-08
-1.00917e-08
3.31413e-08
-6.04308e-08
-6.02941e-08
1.86826e-07
8.3329e-08
4.61244e-08
-4.89861e-08
-3.06702e-08
-5.60447e-08
-3.29244e-09
-1.16849e-07
5.08206e-08
-8.32821e-08
1.14517e-08
-3.89092e-08
1.86927e-07
8.99563e-08
4.61035e-08
-4.88348e-08
-3.06812e-08
-5.62804e-08
-3.73959e-09
-1.17152e-07
5.05992e-08
-8.94407e-08
8.35291e-08
-3.91865e-08
-8.34559e-08
1.86686e-07
1.13503e-08
-3.06548e-08
4.61385e-08
5.08091e-08
-1.16864e-07
-3.31215e-09
-5.60654e-08
-4.87933e-08
9.01229e-08
-3.87015e-08
-9.01239e-08
1.86906e-07
1.15076e-08
-3.06399e-08
4.61638e-08
5.06428e-08
-1.17135e-07
-3.69282e-09
-5.62561e-08
-4.04603e-08
1.85972e-07
8.84596e-08
4.59857e-08
-4.89996e-08
-3.07581e-08
-5.60586e-08
-3.3412e-09
-1.1691e-07
5.08232e-08
-8.59592e-08
-3.94354e-08
-8.33295e-08
1.86947e-07
1.13608e-08
-3.06356e-08
4.60969e-08
5.08345e-08
-1.16863e-07
-5.6004e-08
-3.37735e-09
-4.87675e-08
8.97549e-08
-3.8976e-08
-8.99178e-08
1.87165e-07
1.15255e-08
-3.06228e-08
4.61377e-08
5.06972e-08
-1.17111e-07
-3.713e-09
-5.61724e-08
2.29446e-08
2.29189e-08
-3.30326e-08
4.89608e-08
-9.85651e-09
3.28938e-08
-6.04431e-08
-6.03483e-08
-3.76806e-08
1.87583e-07
8.54035e-08
4.6365e-08
-4.86431e-08
-3.04284e-08
-5.61678e-08
-3.58469e-09
-1.17044e-07
5.0723e-08
-3.9447e-08
-8.36928e-08
1.87324e-07
1.1356e-08
-3.06548e-08
4.60921e-08
5.07572e-08
-1.16899e-07
-5.60764e-08
-3.44686e-09
-4.89292e-08
8.37633e-08
-3.92681e-08
-8.37027e-08
1.86552e-07
1.1439e-08
-3.06248e-08
4.6211e-08
5.08108e-08
-1.16874e-07
-3.30487e-09
-5.60718e-08
3.28057e-08
-6.05167e-08
-6.02053e-08
-1.14591e-08
-1.1351e-08
2.27788e-08
2.30783e-08
-3.312e-08
4.87918e-08
4.89549e-08
-1.00767e-08
3.31215e-08
-6.05519e-08
-6.02396e-08
1.87311e-07
8.93015e-08
4.60648e-08
-4.88017e-08
-3.06547e-08
-5.62161e-08
-3.81281e-09
5.06371e-08
-1.17151e-07
1.15553e-08
-3.86755e-08
1.86528e-07
8.98482e-08
4.62091e-08
-4.87394e-08
-3.05799e-08
-5.62087e-08
-3.65478e-09
5.06996e-08
-1.17127e-07
8.93029e-08
-3.88811e-08
-8.93021e-08
1.87272e-07
1.14648e-08
-3.06445e-08
4.60726e-08
5.06448e-08
-1.17135e-07
-3.79947e-09
-5.62024e-08
-4.87413e-08
8.97196e-08
-3.86929e-08
-8.97787e-08
1.86521e-07
1.15569e-08
-3.05812e-08
4.62121e-08
5.07134e-08
-1.17107e-07
-3.63335e-09
-5.6188e-08
2.29474e-08
2.3017e-08
-3.31342e-08
4.8937e-08
-1.01097e-08
3.31567e-08
-6.0424e-08
-6.03014e-08
1.86702e-07
8.35817e-08
4.61363e-08
-4.89723e-08
-3.06532e-08
-5.60735e-08
-3.30652e-09
5.08097e-08
-1.16874e-07
1.14955e-08
-3.86574e-08
1.86962e-07
9.01396e-08
4.61476e-08
-4.87979e-08
-3.06447e-08
-5.62806e-08
-3.71103e-09
5.06278e-08
-1.17159e-07
8.35931e-08
-3.91804e-08
-8.35947e-08
1.86679e-07
1.13684e-08
-3.06364e-08
4.61523e-08
5.08115e-08
-1.16868e-07
-3.30292e-09
-5.60674e-08
-4.87889e-08
9.00936e-08
-3.86623e-08
-9.00878e-08
1.86942e-07
1.1503e-08
-3.06304e-08
4.61631e-08
5.06206e-08
-1.17154e-07
-3.72644e-09
-5.62724e-08
-3.89593e-08
1.87193e-07
8.96595e-08
4.61256e-08
-4.87645e-08
-3.06227e-08
-5.6199e-08
-3.74279e-09
-1.17135e-07
5.06799e-08
-3.94288e-08
-8.33386e-08
1.86966e-07
1.13712e-08
-3.06305e-08
4.61093e-08
5.08257e-08
-1.1687e-07
-5.60111e-08
-3.39186e-09
-4.87667e-08
8.95818e-08
-3.89676e-08
-8.96091e-08
1.87179e-07
1.15248e-08
-3.06236e-08
4.61342e-08
5.0658e-08
-1.17136e-07
-3.77511e-09
-5.61998e-08
2.29068e-08
2.29467e-08
-3.28821e-08
4.89738e-08
-9.86254e-09
3.28932e-08
-6.04521e-08
-6.03412e-08
-3.92737e-08
1.86584e-07
8.38545e-08
4.61855e-08
-4.89365e-08
-3.06305e-08
-5.60821e-08
-3.28639e-09
-1.16883e-07
5.08197e-08
-3.94152e-08
-8.3539e-08
1.87374e-07
1.13291e-08
-3.06655e-08
4.60677e-08
5.07435e-08
-1.16905e-07
-5.60846e-08
-3.46717e-09
-4.89314e-08
8.39222e-08
-3.92498e-08
-8.39354e-08
1.8659e-07
1.14246e-08
-3.06228e-08
4.62029e-08
5.08218e-08
-1.16872e-07
-3.28123e-09
-5.60696e-08
3.27928e-08
-6.05173e-08
-6.02024e-08
-1.14674e-08
-1.13699e-08
2.27972e-08
2.30836e-08
-3.31201e-08
4.87931e-08
4.89591e-08
-1.00711e-08
3.31187e-08
-6.05576e-08
-6.0242e-08
1.87263e-07
8.93083e-08
4.60722e-08
-4.87906e-08
-3.06425e-08
-5.6208e-08
-3.79583e-09
5.06474e-08
-1.1714e-07
1.15511e-08
-3.86841e-08
1.8652e-07
8.97117e-08
4.62061e-08
-4.87423e-08
-3.05818e-08
-5.62053e-08
-3.64033e-09
5.07098e-08
-1.17125e-07
8.93098e-08
-3.8878e-08
-8.92941e-08
1.87266e-07
1.14632e-08
-3.06477e-08
4.60682e-08
5.06451e-08
-1.17136e-07
-3.80031e-09
-5.62027e-08
-4.87491e-08
8.96355e-08
-3.8682e-08
-8.96395e-08
1.86527e-07
1.15477e-08
-3.05913e-08
4.62075e-08
5.07048e-08
-1.17114e-07
-3.65137e-09
-5.61948e-08
2.29491e-08
2.301e-08
-3.31533e-08
4.89416e-08
-1.00896e-08
3.31395e-08
-6.04299e-08
-6.03108e-08
1.86679e-07
8.36038e-08
4.61553e-08
-4.89567e-08
-3.06364e-08
-5.60672e-08
-3.3088e-09
5.08119e-08
-1.16869e-07
1.15183e-08
-3.86477e-08
1.86954e-07
9.00857e-08
4.61784e-08
-4.87896e-08
-3.06315e-08
-5.62856e-08
-3.73531e-09
5.06138e-08
-1.17167e-07
8.36007e-08
-3.91906e-08
-8.35898e-08
1.86688e-07
1.13653e-08
-3.06412e-08
4.61498e-08
5.08122e-08
-1.16864e-07
-3.30706e-09
-5.60634e-08
-4.87908e-08
9.00921e-08
-3.86665e-08
-9.00808e-08
1.86927e-07
1.1506e-08
-3.06324e-08
4.61661e-08
5.06231e-08
-1.17151e-07
-3.72207e-09
-5.627e-08
-3.89524e-08
1.87197e-07
8.95759e-08
4.6127e-08
-4.87688e-08
-3.06262e-08
-5.62187e-08
-3.77547e-09
-1.17153e-07
5.06571e-08
-3.94155e-08
-8.33484e-08
1.86975e-07
1.1368e-08
-3.06359e-08
4.61052e-08
5.08247e-08
-1.16874e-07
-5.60147e-08
-3.39177e-09
-4.87698e-08
8.95784e-08
-3.89551e-08
-8.95921e-08
1.87187e-07
1.15223e-08
-3.06261e-08
4.61324e-08
5.06529e-08
-1.17142e-07
-3.78453e-09
-5.62041e-08
2.29203e-08
2.29728e-08
-3.28962e-08
4.89771e-08
-9.86201e-09
3.28928e-08
-6.04552e-08
-6.03436e-08
-3.92418e-08
1.86613e-07
8.39164e-08
4.61988e-08
-4.89339e-08
-3.06237e-08
-5.60834e-08
-3.28072e-09
-1.16884e-07
5.08219e-08
-3.9416e-08
-8.35246e-08
1.87364e-07
1.13293e-08
-3.06684e-08
4.60682e-08
5.0745e-08
-1.16903e-07
-5.60834e-08
-3.46363e-09
-4.89356e-08
8.39259e-08
-3.92453e-08
-8.3936e-08
1.86604e-07
1.14211e-08
-3.06255e-08
4.62012e-08
5.08206e-08
-1.16873e-07
-3.28715e-09
-5.60699e-08
3.27948e-08
-6.0522e-08
-6.02057e-08
-1.14645e-08
-1.13657e-08
2.27916e-08
2.30783e-08
-3.3111e-08
4.87933e-08
4.8958e-08
-1.00605e-08
3.31048e-08
-6.05553e-08
-6.02403e-08
1.87252e-07
8.9337e-08
4.60695e-08
-4.87924e-08
-3.06462e-08
-5.62073e-08
-3.79284e-09
5.06491e-08
-1.1714e-07
1.1545e-08
-3.86733e-08
1.86534e-07
8.96598e-08
4.6201e-08
-4.8745e-08
-3.05871e-08
-5.62127e-08
-3.65504e-09
5.07032e-08
-1.17135e-07
8.93439e-08
-3.88798e-08
-8.93396e-08
1.8727e-07
1.14637e-08
-3.06466e-08
4.60722e-08
5.06453e-08
-1.17135e-07
-3.79833e-09
-5.62025e-08
-4.87586e-08
8.96846e-08
-3.86767e-08
-8.96467e-08
1.8654e-07
1.15285e-08
-3.06046e-08
4.61835e-08
5.07062e-08
-1.17114e-07
-3.64618e-09
-5.61961e-08
2.29434e-08
2.30045e-08
-3.3131e-08
4.89469e-08
-1.00752e-08
3.3125e-08
-6.04362e-08
-6.03191e-08
1.86674e-07
8.3623e-08
4.61489e-08
-4.89576e-08
-3.06392e-08
-5.60646e-08
-3.30273e-09
5.08161e-08
-1.16866e-07
1.15164e-08
-3.86485e-08
1.8695e-07
9.00889e-08
4.61764e-08
-4.87901e-08
-3.06319e-08
-5.62854e-08
-3.73267e-09
5.06157e-08
-1.17167e-07
8.36029e-08
-3.91858e-08
-8.36028e-08
1.86683e-07
1.13671e-08
-3.06396e-08
4.61512e-08
5.08125e-08
-1.16864e-07
-3.30322e-09
-5.60635e-08
-4.87847e-08
9.00836e-08
-3.86715e-08
-9.00814e-08
1.86924e-07
1.1507e-08
-3.06258e-08
4.61669e-08
5.06237e-08
-1.17151e-07
-3.72112e-09
-5.62701e-08
-3.89464e-08
1.87194e-07
8.95704e-08
4.61263e-08
-4.87684e-08
-3.06259e-08
-5.62198e-08
-3.7735e-09
-1.17154e-07
5.06565e-08
-3.9417e-08
-8.33412e-08
1.86984e-07
1.1355e-08
-3.06424e-08
4.60879e-08
5.08243e-08
-1.1687e-07
-5.60116e-08
-3.39509e-09
-4.87664e-08
8.95693e-08
-3.89568e-08
-8.95909e-08
1.87172e-07
1.15227e-08
-3.06245e-08
4.61292e-08
5.06572e-08
-1.17138e-07
-3.77157e-09
-5.62027e-08
2.29178e-08
2.29713e-08
-3.2896e-08
4.89705e-08
-9.8634e-09
3.28937e-08
-6.04487e-08
-6.03368e-08
-3.92421e-08
1.86621e-07
8.39137e-08
4.61978e-08
-4.8935e-08
-3.06242e-08
-5.60827e-08
-3.28002e-09
-1.16883e-07
5.08225e-08
-3.94187e-08
-8.3525e-08
1.87355e-07
1.13316e-08
-3.06626e-08
4.60689e-08
5.07453e-08
-1.16903e-07
-5.6084e-08
-3.46068e-09
-4.89337e-08
8.39188e-08
-3.92489e-08
-8.3941e-08
1.86603e-07
1.14207e-08
-3.0624e-08
4.62e-08
5.08235e-08
-1.1687e-07
-3.28012e-09
-5.60678e-08
3.27964e-08
-6.0519e-08
-6.02027e-08
-1.14689e-08
-1.13707e-08
2.2798e-08
2.30842e-08
-3.31032e-08
4.87756e-08
4.89376e-08
-1.00464e-08
3.30914e-08
-6.05342e-08
-6.0224e-08
1.87255e-07
8.93521e-08
4.60739e-08
-4.87916e-08
-3.06462e-08
-5.62046e-08
-3.79003e-09
5.06497e-08
-1.17136e-07
1.15387e-08
-3.867e-08
1.86548e-07
8.97084e-08
4.61952e-08
-4.87486e-08
-3.05901e-08
-5.62157e-08
-3.65089e-09
5.07012e-08
-1.17132e-07
8.9227e-08
-3.8896e-08
-8.92904e-08
1.87239e-07
1.14835e-08
-3.06296e-08
4.60901e-08
5.06561e-08
-1.17129e-07
-3.78212e-09
-5.61927e-08
-4.87589e-08
8.9879e-08
-3.86704e-08
-8.98269e-08
1.86536e-07
1.15311e-08
-3.06024e-08
4.61871e-08
5.07006e-08
-1.17118e-07
-3.659e-09
-5.61981e-08
2.29435e-08
2.30011e-08
-3.31204e-08
4.89478e-08
-1.00664e-08
3.31167e-08
-6.0437e-08
-6.032e-08
1.86675e-07
8.36143e-08
4.6156e-08
-4.89577e-08
-3.06385e-08
-5.60636e-08
-3.30351e-09
5.08157e-08
-1.16865e-07
1.1521e-08
-3.86519e-08
1.86945e-07
9.00819e-08
4.61813e-08
-4.87892e-08
-3.06311e-08
-5.62867e-08
-3.73316e-09
5.06145e-08
-1.17168e-07
8.34887e-08
-3.92037e-08
-8.35631e-08
1.86656e-07
1.13894e-08
-3.06218e-08
4.61731e-08
5.08223e-08
-1.16856e-07
-3.29286e-09
-5.60542e-08
-4.879e-08
9.00722e-08
-3.86697e-08
-9.00612e-08
1.86923e-07
1.15069e-08
-3.06328e-08
4.61667e-08
5.06242e-08
-1.17149e-07
-3.72245e-09
-5.62674e-08
-3.89471e-08
1.87194e-07
8.95732e-08
4.61255e-08
-4.87712e-08
-3.06294e-08
-5.62188e-08
-3.77784e-09
-1.17154e-07
5.06553e-08
-3.94134e-08
-8.33799e-08
1.86988e-07
1.13534e-08
-3.06414e-08
4.60912e-08
5.08242e-08
-1.16871e-07
-5.60114e-08
-3.3967e-09
-4.8769e-08
8.95911e-08
-3.89577e-08
-8.95894e-08
1.87178e-07
1.15221e-08
-3.06259e-08
4.61299e-08
5.06524e-08
-1.17143e-07
-3.78322e-09
-5.62057e-08
2.29225e-08
2.29752e-08
-3.28967e-08
4.89795e-08
-9.86778e-09
3.29006e-08
-6.04591e-08
-6.03432e-08
-3.92435e-08
1.86621e-07
8.39148e-08