/*--------------------------------*- C++ -*----------------------------------*\
| =========                 |                                                 |
| \\      /  F ield         | OpenFOAM: The Open Source CFD Toolbox           |
|  \\    /   O peration     | Version:  2206                                  |
|   \\  /    A nd           | Website:  www.openfoam.com                      |
|    \\/     M anipulation  |                                                 |
\*---------------------------------------------------------------------------*/
FoamFile
{
    version     2.0;
    format      ascii;
    arch        "LSB;label=32;scalar=64";
    class       surfaceScalarField;
    location    "3";
    object      phi;
}
// * * * * * * * * * * * * * * * * * * * * * * * * * * * * * * * * * * * * * //

dimensions      [0 3 -1 0 0 0 0];

oriented        oriented;

internalField   nonuniform List<scalar> 
83378
(
-0.00105869
-1.15107e-06
-5.01589e-10
7.98719e-10
0.00105869
-2.07935e-07
1.15208e-06
2.0744e-07
8.19625e-07
-1.8564e-07
-8.19602e-07
1.85073e-07
1.17856e-06
1.14587e-06
-2.01196e-07
-2.06328e-07
0.000258452
2.60762e-10
2.01536e-10
-0.001058
-2.9361e-10
-3.36911e-10
0.001058
-0.00105869
-1.15112e-06
-3.17677e-10
7.52969e-10
0.00105869
-2.08023e-07
1.15212e-06
2.07502e-07
8.19612e-07
-1.85891e-07
-8.19797e-07
1.8509e-07
-0.00105836
-1.14588e-06
-2.409e-10
8.70009e-10
0.00105836
-2.08082e-07
1.14682e-06
2.07458e-07
8.19431e-07
-1.88597e-07
-8.19697e-07
1.87656e-07
-0.000260369
1.17868e-06
1.14598e-06
-2.01339e-07
-2.06477e-07
0.000258452
3.89463e-10
3.616e-10
-0.001058
-3.60994e-10
-4.04306e-10
0.001058
-0.00105869
-1.15111e-06
-4.10351e-10
7.34509e-10
0.00105869
-2.08004e-07
1.15214e-06
2.07516e-07
8.19638e-07
-1.85854e-07
-8.19768e-07
1.85119e-07
-0.00105836
-1.14584e-06
-4.09754e-10
7.70325e-10
0.00105836
-2.08007e-07
1.14685e-06
2.07514e-07
8.1947e-07
-1.88457e-07
-8.19644e-07
1.87745e-07
-0.000260369
1.17865e-06
1.14595e-06
-2.01302e-07
-2.06441e-07
0.000258452
3.77849e-10
3.72562e-10
-0.001058
-3.71086e-10
-4.00679e-10
0.001058
-0.00105869
-1.15111e-06
-3.98768e-10
7.45712e-10
0.00105869
-2.08007e-07
1.15213e-06
2.07515e-07
8.19637e-07
-1.85856e-07
-8.19771e-07
1.85117e-07
-0.00105836
-1.14584e-06
-4.16368e-10
7.62481e-10
0.00105836
-2.08005e-07
1.14685e-06
2.07516e-07
8.1947e-07
-1.88457e-07
-8.19645e-07
1.87746e-07
-0.000260369
1.17865e-06
1.14595e-06
-2.01303e-07
-2.06442e-07
0.000258452
3.7984e-10
3.80233e-10
-0.001058
-3.77539e-10
-4.01483e-10
0.001058
-0.00105869
-1.15111e-06
-3.94039e-10
7.46198e-10
0.00105869
-2.08007e-07
1.15213e-06
2.07515e-07
8.19635e-07
-1.85858e-07
-8.19772e-07
1.85116e-07
-0.00105836
-1.14585e-06
-4.19008e-10
7.5545e-10
0.00105836
-2.07974e-07
1.14685e-06
2.07517e-07
8.1947e-07
-1.88456e-07
-8.19644e-07
1.87746e-07
-0.000260369
1.17865e-06
1.14595e-06
-2.01303e-07
-2.06443e-07
0.000258452
3.84133e-10
3.8518e-10
-0.001058
-3.78069e-10
-4.03448e-10
0.001058
-0.00105869
-1.15111e-06
-4.02641e-10
7.40707e-10
0.00105869
-2.08006e-07
1.15214e-06
2.07517e-07
8.19639e-07
-1.85856e-07
-8.1977e-07
1.8512e-07
-0.00105836
-1.14585e-06
-4.19654e-10
7.55018e-10
0.00105836
-2.07973e-07
1.14685e-06
2.07519e-07
8.19473e-07
-1.88455e-07
-8.19644e-07
1.87748e-07
-0.000260369
1.17865e-06
1.14595e-06
-2.01303e-07
-2.0644e-07
0.000258452
3.73745e-10
3.76444e-10
-0.001058
-3.73356e-10
-3.97953e-10
0.001058
-0.00105869
-1.15111e-06
-3.9802e-10
7.44595e-10
0.00105869
-2.08009e-07
1.15214e-06
2.07516e-07
8.19638e-07
-1.8586e-07
-8.19774e-07
1.85118e-07
-0.00105836
-1.14585e-06
-4.14326e-10
7.58127e-10
0.00105836
-2.07977e-07
1.14685e-06
2.07518e-07
8.19471e-07
-1.8846e-07
-8.19649e-07
1.87747e-07
-0.000260369
1.17865e-06
1.14596e-06
-2.01306e-07
-2.06444e-07
0.000258452
3.86427e-10
3.94164e-10
-0.001058
-3.8237e-10
-4.01794e-10
0.001058
-0.00105869
-1.15111e-06
-4.09379e-10
7.39604e-10
0.00105869
-2.08004e-07
1.15214e-06
2.07518e-07
8.1964e-07
-1.85854e-07
-8.19768e-07
1.85121e-07
-0.00105836
-1.14584e-06
-4.31017e-10
7.45997e-10
0.00105836
-2.07971e-07
1.14686e-06
2.07492e-07
8.19474e-07
-1.88454e-07
-8.19643e-07
1.8775e-07
-0.000260369
1.17865e-06
1.14595e-06
-2.01302e-07
-2.06439e-07
0.000258452
3.85068e-10
4.00625e-10
-0.001058
-3.87805e-10
-3.98107e-10
0.001058
-0.00105869
-1.15111e-06
-4.0499e-10
7.4015e-10
0.00105869
-2.08005e-07
1.15214e-06
2.07516e-07
8.19639e-07
-1.85853e-07
-8.19767e-07
1.8512e-07
-0.00105836
-1.14584e-06
-4.26475e-10
7.43076e-10
0.00105836
-2.07972e-07
1.14686e-06
2.07489e-07
8.19474e-07
-1.88452e-07
-8.1964e-07
1.8775e-07
-0.000260369
1.17865e-06
1.14595e-06
-2.01301e-07
-2.06441e-07
0.000258452
3.53252e-10
3.95233e-10
-0.001058
-4.26401e-10
-4.2394e-10
0.001058
-0.00105869
-1.1511e-06
-3.86599e-10
7.32152e-10
0.00105869
-2.07998e-07
1.15213e-06
2.0752e-07
8.19641e-07
-1.85846e-07
-8.19759e-07
1.85121e-07
-0.00105836
-1.14583e-06
-4.02876e-10
7.20213e-10
0.00105836
-2.07993e-07
1.14686e-06
2.07531e-07
8.19469e-07
-1.88468e-07
-8.19589e-07
1.8775e-07
-0.000260369
1.17864e-06
1.14594e-06
-2.01291e-07
-2.0643e-07
0.000258452
1.75273e-08
1.76405e-08
-0.001058
-6.6763e-09
-1.17317e-08
0.00105799
-0.00105869
-1.15088e-06
-1.23043e-08
-1.04868e-08
0.0010587
-2.07763e-07
1.15493e-06
2.13188e-07
8.25139e-07
-1.88187e-07
-8.22055e-07
1.88123e-07
-0.00105837
-1.143e-06
-1.76302e-08
-5.29739e-09
0.00105838
-2.07698e-07
1.14706e-06
2.10532e-07
8.22356e-07
-1.88152e-07
-8.19267e-07
1.90755e-07
-0.000260374
1.18103e-06
1.14571e-06
-1.98598e-07
-2.03705e-07
0.00025845
8.26757e-07
8.33469e-07
-0.00105787
-6.89873e-07
-6.80066e-07
0.00105758
-0.00105893
-1.06791e-06
-8.27799e-07
-3.7383e-07
0.00105924
-1.41096e-07
1.32186e-06
3.18458e-07
9.88374e-07
-1.03366e-07
-7.33396e-07
3.03614e-07
-0.00105861
-1.0599e-06
-8.38192e-07
-3.84469e-07
0.00105894
-1.40957e-07
1.3167e-06
3.21253e-07
9.85488e-07
-1.0869e-07
-7.30622e-07
3.06279e-07
-0.000260445
1.10065e-06
1.06007e-06
-1.25076e-07
-1.27561e-07
0.000258537
4.86598e-06
4.85945e-06
-0.00104416
-1.03656e-05
-1.02709e-05
0.000253437
0.000256751
0.000255853
0.000255853
3.94751e-06
6.17683e-06
6.46045e-06
3.95112e-06
6.17759e-06
6.46374e-06
-0.000261887
5.0161e-06
-4.85685e-06
5.61841e-06
-3.18479e-06
0.000259295
-0.000261864
-4.85901e-06
5.02116e-06
-3.1925e-06
5.61552e-06
0.000259279
-0.000260839
-5.01315e-06
-5.02391e-06
5.61716e-06
5.60562e-06
0.000259654
1.19021e-06
0.00105835
-1.1891e-06
2.15604e-07
-2.15881e-07
1.88021e-07
-1.88321e-07
-1.15217e-06
0.000260413
-0.000258478
2.02614e-07
2.04883e-07
-1.15103e-06
2.07613e-07
-2.07868e-07
1.85367e-07
-1.85628e-07
-1.18484e-06
-1.14952e-06
0.000260385
-0.000258457
1.99788e-07
2.0737e-07
5.76651e-10
0.00105793
-2.13153e-07
2.12879e-07
8.19647e-07
-1.85559e-07
-8.19545e-07
1.85296e-07
-1.18914e-06
-4.46894e-10
8.17405e-10
0.00105835
-2.15946e-07
1.19013e-06
2.15435e-07
8.25009e-07
-1.88319e-07
-8.2501e-07
1.87737e-07
0.00105793
-1.59111e-10
-0.00105793
8.4792e-10
-1.18389e-06
2.12715e-07
-2.13347e-07
-8.19777e-07
1.84931e-07
-1.85949e-07
8.19526e-07
1.19015e-06
0.00105835
-1.62416e-10
-0.00105835
8.04428e-10
-1.1892e-06
2.15473e-07
-2.16054e-07
-8.25211e-07
1.87706e-07
-1.88622e-07
8.24977e-07
-2.01456e-07
-2.03733e-07
0.000258478
-1.15211e-06
0.000260413
-0.000258478
2.0249e-07
2.04759e-07
0.00105895
-1.95218e-10
-0.00105895
8.57326e-10
-1.14859e-06
2.1018e-07
-2.10808e-07
-8.22513e-07
1.87605e-07
-1.88716e-07
8.22228e-07
1.18487e-06
0.00105804
-1.42424e-10
-0.00105804
8.76323e-10
-1.18396e-06
2.1538e-07
-2.16086e-07
-8.22469e-07
1.87532e-07
-1.88677e-07
8.22149e-07
-6.63052e-10
5.73868e-10
0.00105784
-2.10432e-07
1.17971e-06
2.1019e-07
8.19665e-07
-1.85563e-07
1.85285e-07
-8.19569e-07
-2.33889e-10
-0.00105869
7.81499e-10
-1.15114e-06
2.07479e-07
-2.08043e-07
-8.19808e-07
1.85049e-07
8.19599e-07
-1.85934e-07
1.17963e-06
0.00105784
-1.50728e-10
-0.00105784
8.5552e-10
-1.17869e-06
2.10029e-07
-2.10642e-07
-8.19809e-07
1.84927e-07
-1.8595e-07
8.19549e-07
-1.1468e-06
0.000260364
-0.000258439
1.99915e-07
2.07162e-07
-6.11604e-10
5.90777e-10
0.00105886
-2.07929e-07
1.14698e-06
2.07656e-07
8.19805e-07
-1.883e-07
1.88016e-07
-8.19689e-07
-1.87262e-10
-0.00105836
8.3799e-10
-1.14588e-06
2.07413e-07
-2.08088e-07
-8.19663e-07
1.87512e-07
8.19444e-07
-1.88669e-07
1.14691e-06
0.00105886
-5.79464e-11
-0.00105886
8.31247e-10
-1.146e-06
2.07499e-07
-2.08138e-07
-8.19931e-07
1.87653e-07
-1.8869e-07
8.19674e-07
-0.000258452
2.02246e-07
2.07404e-07
1.18389e-06
1.14856e-06
-1.98869e-07
-2.06451e-07
0.000258457
-1.18487e-06
-1.14955e-06
0.000260385
-0.000258457
1.9984e-07
2.07416e-07
8.41294e-10
0.00105793
-2.13334e-07
1.18484e-06
2.12741e-07
8.19545e-07
-1.85858e-07
-8.19755e-07
1.85003e-07
-1.18919e-06
-2.45654e-10
7.66475e-10
0.00105835
-2.16032e-07
1.19017e-06
2.15497e-07
8.24989e-07
-1.88581e-07
-8.25202e-07
1.87747e-07
0.00105793
-3.99309e-10
-0.00105793
7.98224e-10
-1.18387e-06
2.12771e-07
-2.13289e-07
-8.19716e-07
1.8504e-07
-1.85793e-07
8.19579e-07
1.19018e-06
0.00105835
-3.19929e-10
-0.00105835
7.5031e-10
-1.18917e-06
2.15505e-07
-2.16011e-07
-8.25177e-07
1.87764e-07
-1.88546e-07
8.25012e-07
-2.01527e-07
-2.03802e-07
0.000258478
-1.15213e-06
0.000260413
-0.000258478
2.02522e-07
2.04791e-07
7.90946e-10
0.00105895
-2.10768e-07
1.14954e-06
2.10221e-07
8.22261e-07
-1.88685e-07
-8.22478e-07
1.87701e-07
-1.18396e-06
-1.41236e-10
8.71401e-10
0.00105804
-2.16072e-07
1.18489e-06
2.1543e-07
8.2218e-07
-1.88649e-07
-8.22432e-07
1.87639e-07
0.00105895
-3.51679e-10
-0.00105895
7.36242e-10
-1.14854e-06
2.1024e-07
-2.10729e-07
-8.22439e-07
1.87781e-07
-1.88551e-07
8.22289e-07
1.18491e-06
0.00105804
-3.13886e-10
-0.00105804
7.88948e-10
-1.18392e-06
2.15476e-07
-2.15999e-07
-8.2239e-07
1.87727e-07
-1.88508e-07
8.22218e-07
-2.60859e-10
8.23621e-10
0.00105784
-2.1061e-07
1.17965e-06
2.1006e-07
8.19565e-07
-1.8586e-07
1.85e-07
-8.19786e-07
-4.03827e-10
-0.00105869
7.38688e-10
-1.15111e-06
2.07511e-07
-2.08001e-07
-8.19771e-07
1.85109e-07
8.19637e-07
-1.85856e-07
1.17967e-06
0.00105784
-3.84946e-10
-0.00105784
7.74971e-10
-1.17865e-06
2.10085e-07
-2.1057e-07
-8.19754e-07
1.85032e-07
-1.85798e-07
8.19596e-07
-1.99066e-07
-2.06304e-07
0.00025844
-1.14684e-06
0.000260364
-0.00025844
1.99995e-07
2.07243e-07
-1.37725e-10
7.54922e-10
0.00105886
-2.08099e-07
1.14693e-06
2.07536e-07
8.19686e-07
-1.88605e-07
1.87721e-07
-8.19915e-07
-4.05046e-10
-0.00105836
7.82429e-10
-1.14585e-06
2.07506e-07
-2.08009e-07
-8.19603e-07
1.87714e-07
8.19516e-07
-1.8848e-07
1.14695e-06
0.00105886
-2.48821e-10
-0.00105886
7.0359e-10
-1.14595e-06
2.07561e-07
-2.08058e-07
-8.19887e-07
1.87753e-07
-1.88546e-07
8.19714e-07
-0.000258452
2.02299e-07
2.0745e-07
1.18387e-06
1.14854e-06
-1.98834e-07
-2.06413e-07
0.000258457
-1.18487e-06
-1.14955e-06
0.000260385
-0.000258457
1.99839e-07
2.0742e-07
7.86196e-10
0.00105793
-2.13288e-07
1.18487e-06
2.12779e-07
8.19576e-07
-1.85794e-07
-8.19718e-07
1.85046e-07
-1.18917e-06
-3.28606e-10
7.47346e-10
0.00105835
-2.16015e-07
1.19018e-06
2.1551e-07
8.25014e-07
-1.88545e-07
-8.25174e-07
1.87774e-07
0.00105793
-3.97931e-10
-0.00105793
7.85352e-10
-1.18386e-06
2.12775e-07
-2.13285e-07
-8.19716e-07
1.85041e-07
-1.85793e-07
8.19579e-07
1.19018e-06
0.00105835
-3.23298e-10
-0.00105835
7.55118e-10
-1.18917e-06
2.15506e-07
-2.16012e-07
-8.25175e-07
1.87766e-07
-1.88545e-07
8.25014e-07
-2.01505e-07
-2.03782e-07
0.000258478
-1.15213e-06
0.000260413
-0.000258478
2.02523e-07
2.04792e-07
7.39893e-10
0.00105895
-2.10733e-07
1.14955e-06
2.10245e-07
8.223e-07
-1.88556e-07
-8.22432e-07
1.87789e-07
-1.18392e-06
-3.42651e-10
7.86167e-10
0.00105804
-2.15999e-07
1.18492e-06
2.15483e-07
8.22224e-07
-1.88503e-07
-8.2238e-07
1.87741e-07
0.00105895
-3.83939e-10
-0.00105895
7.46657e-10
-1.14854e-06
2.1024e-07
-2.10731e-07
-8.22429e-07
1.87788e-07
-1.88543e-07
8.22297e-07
1.18492e-06
0.00105804
-3.55559e-10
-0.00105804
7.74319e-10
-1.18392e-06
2.15481e-07
-2.15992e-07
-8.22379e-07
1.87736e-07
-1.88498e-07
8.22227e-07
-3.92855e-10
7.6975e-10
0.00105784
-2.1057e-07
1.17967e-06
2.10088e-07
8.19596e-07
-1.85796e-07
1.85041e-07
-8.19749e-07
-4.0553e-10
-0.00105869
7.40742e-10
-1.15111e-06
2.07512e-07
-2.08001e-07
-8.1977e-07
1.8511e-07
8.19638e-07
-1.85855e-07
1.17967e-06
0.00105784
-3.85386e-10
-0.00105784
7.72296e-10
-1.17865e-06
2.10085e-07
-2.1057e-07
-8.19753e-07
1.85032e-07
-1.85798e-07
8.19597e-07
-1.99e-07
-2.06244e-07
0.00025844
-1.14685e-06
0.000260364
-0.00025844
2.00002e-07
2.07244e-07
-2.56731e-10
7.05078e-10
0.00105886
-2.0806e-07
1.14695e-06
2.07564e-07
8.19716e-07
-1.88543e-07
1.87763e-07
-8.19881e-07
-4.24448e-10
-0.00105836
7.58822e-10
-1.14584e-06
2.07513e-07
-2.08e-07
-8.19598e-07
1.87718e-07
8.19518e-07
-1.88475e-07
1.14695e-06
0.00105886
-2.65824e-10
-0.00105886
7.17513e-10
-1.14595e-06
2.07561e-07
-2.08059e-07
-8.19883e-07
1.87755e-07
-1.88543e-07
8.19718e-07
-0.000258452
2.02299e-07
2.07452e-07
1.18387e-06
1.14854e-06
-1.98837e-07
-2.06412e-07
0.000258457
-1.18487e-06
-1.14955e-06
0.000260385
-0.000258457
1.99837e-07
2.07419e-07
7.84286e-10
0.00105793
-2.13289e-07
1.18487e-06
2.12779e-07
8.19574e-07
-1.85797e-07
-8.19721e-07
1.85044e-07
-1.18918e-06
-3.22119e-10
7.581e-10
0.00105835
-2.16017e-07
1.19018e-06
2.15509e-07
8.25013e-07
-1.88547e-07
-8.25176e-07
1.87773e-07
0.00105793
-3.89838e-10
-0.00105793
7.85547e-10
-1.18387e-06
2.12773e-07
-2.13288e-07
-8.1972e-07
1.85039e-07
-1.85796e-07
8.19578e-07
1.19018e-06
0.00105835
-3.13931e-10
-0.00105835
7.65328e-10
-1.18918e-06
2.15502e-07
-2.16017e-07
-8.2518e-07
1.87764e-07
-1.88549e-07
8.25013e-07
-2.01506e-07
-2.03783e-07
0.000258478
-1.15213e-06
0.000260413
-0.000258478
2.02521e-07
2.04789e-07
7.5329e-10
0.00105895
-2.10736e-07
1.14955e-06
2.10243e-07
8.22302e-07
-1.88554e-07
-8.22429e-07
1.87791e-07
-1.18392e-06
-3.56128e-10
7.88676e-10
0.00105804
-2.15999e-07
1.18491e-06
2.15482e-07
8.22227e-07
-1.88499e-07
-8.22376e-07
1.87744e-07
0.00105895
-3.84767e-10
-0.00105895
7.53182e-10
-1.14854e-06
2.10237e-07
-2.10733e-07
-8.2243e-07
1.87787e-07
-1.88546e-07
8.22297e-07
1.18492e-06
0.00105804
-3.5136e-10
-0.00105804
7.69507e-10
-1.18391e-06
2.1548e-07
-2.15993e-07
-8.22381e-07
1.87734e-07
-1.885e-07
8.22225e-07
-3.86921e-10
7.6603e-10
0.00105784
-2.10572e-07
1.17967e-06
2.1009e-07
8.19596e-07
-1.85798e-07
1.85042e-07
-8.19751e-07
-3.9415e-10
-0.00105869
7.49333e-10
-1.15111e-06
2.07508e-07
-2.08006e-07
-8.19774e-07
1.85107e-07
8.19636e-07
-1.8586e-07
1.17966e-06
0.00105784
-3.7455e-10
-0.00105784
7.73611e-10
-1.17866e-06
2.10083e-07
-2.10572e-07
-8.19756e-07
1.85031e-07
-1.858e-07
8.19596e-07
-1.98996e-07
-2.06242e-07
0.00025844
-1.14686e-06
0.000260367
-0.00025844
1.99997e-07
2.04749e-07
-2.68832e-10
7.13458e-10
0.00105886
-2.08061e-07
1.14695e-06
2.07565e-07
8.19719e-07
-1.88543e-07
1.87765e-07
-8.1988e-07
-4.24671e-10
-0.00105836
7.55455e-10
-1.14584e-06
2.07481e-07
-2.08003e-07
-8.19601e-07
1.87717e-07
8.19517e-07
-1.88477e-07
1.14695e-06
0.00105886
-2.63238e-10
-0.00105886
7.22842e-10
-1.14596e-06
2.0756e-07
-2.08061e-07
-8.19886e-07
1.87753e-07
-1.88547e-07
8.19717e-07
-0.000258452
2.02298e-07
2.0745e-07
1.18386e-06
1.14854e-06
-1.98837e-07
-2.06411e-07
0.000258457
-1.18487e-06
-1.14955e-06
0.000260385
-0.000258457
1.99841e-07
2.07424e-07
7.72839e-10
0.00105793
-2.13286e-07
1.18487e-06
2.12782e-07
8.19574e-07
-1.85796e-07
-8.19721e-07
1.85045e-07
-1.18918e-06
-3.15942e-10
7.6321e-10
0.00105835
-2.16019e-07
1.19018e-06
2.15508e-07
8.25012e-07
-1.88548e-07
-8.25178e-07
1.87772e-07
0.00105793
-3.999e-10
-0.00105793
7.7429e-10
-1.18386e-06
2.12779e-07
-2.13282e-07
-8.19716e-07
1.85043e-07
-1.85791e-07
8.1958e-07
1.19018e-06
0.00105835
-3.23454e-10
-0.00105835
7.59232e-10
-1.18917e-06
2.15507e-07
-2.16012e-07
-8.25177e-07
1.87767e-07
-1.88546e-07
8.25016e-07
-2.01508e-07
-2.03785e-07
0.000258478
-1.15213e-06
0.000260413
-0.000258478
2.02523e-07
2.04794e-07
7.44832e-10
0.00105895
-2.10734e-07
1.14955e-06
2.10246e-07
8.22303e-07
-1.88553e-07
-8.22428e-07
1.87792e-07
-1.18392e-06
-3.57695e-10
7.8922e-10
0.00105804
-2.16e-07
1.18491e-06
2.15482e-07
8.22225e-07
-1.88499e-07
-8.22378e-07
1.87743e-07
0.00105895
-3.93321e-10
-0.00105895
7.43831e-10
-1.14854e-06
2.10242e-07
-2.10729e-07
-8.22426e-07
1.87791e-07
-1.88541e-07
8.223e-07
1.18492e-06
0.00105804
-3.61566e-10
-0.00105804
7.68084e-10
-1.18391e-06
2.15484e-07
-2.1599e-07
-8.22379e-07
1.87737e-07
-1.88498e-07
8.22228e-07
-3.77489e-10
7.66988e-10
0.00105784
-2.10573e-07
1.17967e-06
2.10088e-07
8.19593e-07
-1.85799e-07
1.85039e-07
-8.19753e-07
-4.0551e-10
-0.00105869
7.44414e-10
-1.15111e-06
2.07512e-07
-2.08003e-07
-8.1977e-07
1.85111e-07
8.1964e-07
-1.85855e-07
1.17967e-06
0.00105784
-3.84609e-10
-0.00105784
7.67797e-10
-1.17865e-06
2.10088e-07
-2.1057e-07
-8.19754e-07
1.85034e-07
-1.85799e-07
8.19598e-07
-1.98994e-07
-2.03753e-07
0.00025844
-1.14686e-06
0.000260367
-0.00025844
2e-07
2.04754e-07
-2.66924e-10
7.16406e-10
0.00105886
-2.08061e-07
1.14695e-06
2.07564e-07
8.19717e-07
-1.88544e-07
1.87763e-07
-8.19881e-07
-4.31207e-10
-0.00105836
7.54789e-10
-1.14584e-06
2.07483e-07
-2.08001e-07
-8.19597e-07
1.8772e-07
8.1952e-07
-1.88474e-07
1.14695e-06
0.00105886
-2.70576e-10
-0.00105886
7.18338e-10
-1.14595e-06
2.07562e-07
-2.0806e-07
-8.19884e-07
1.87757e-07
-1.88544e-07
8.1972e-07
-0.000258452
2.023e-07
2.07454e-07
1.18386e-06
1.14854e-06
-1.98837e-07
-2.0641e-07
0.000258457
-1.18487e-06
-1.14955e-06
0.000260385
-0.000258457
1.99838e-07
2.07421e-07
7.74754e-10
0.00105793
-2.13286e-07
1.18487e-06
2.12781e-07
8.19575e-07
-1.85796e-07
-8.19721e-07
1.85045e-07
-1.18918e-06
-3.31417e-10
7.54212e-10
0.00105835
-2.16016e-07
1.19019e-06
2.15512e-07
8.25016e-07
-1.88546e-07
-8.25175e-07
1.87776e-07
0.00105793
-3.90054e-10
-0.00105793
7.84277e-10
-1.18387e-06
2.12775e-07
-2.13287e-07
-8.1972e-07
1.8504e-07
-1.85796e-07
8.19579e-07
1.19018e-06
0.00105835
-3.1836e-10
-0.00105835
7.62422e-10
-1.18918e-06
2.15505e-07
-2.16016e-07
-8.25179e-07
1.87766e-07
-1.88548e-07
8.25015e-07
-2.01506e-07
-2.03783e-07
0.000258478
-1.15213e-06
0.000260413
-0.000258478
2.02523e-07
2.04792e-07
7.48599e-10
0.00105895
-2.10735e-07
1.14955e-06
2.10244e-07
8.22305e-07
-1.88552e-07
-8.22427e-07
1.87794e-07
-1.18392e-06
-3.69467e-10
7.86166e-10
0.00105804
-2.15998e-07
1.18492e-06
2.15485e-07
8.22229e-07
-1.88498e-07
-8.22375e-07
1.87746e-07
0.00105895
-3.82135e-10
-0.00105895
7.52143e-10
-1.14854e-06
2.10238e-07
-2.10734e-07
-8.22431e-07
1.87788e-07
-1.88545e-07
8.22298e-07
1.18492e-06
0.00105804
-3.54837e-10
-0.00105804
7.70454e-10
-1.18391e-06
2.15483e-07
-2.15993e-07
-8.22383e-07
1.87736e-07
-1.88502e-07
8.22227e-07
-3.88721e-10
7.62054e-10
0.00105784
-2.1057e-07
1.17967e-06
2.10092e-07
8.19597e-07
-1.85797e-07
1.85043e-07
-8.19751e-07
-3.93688e-10
-0.00105869
7.4574e-10
-1.15111e-06
2.07511e-07
-2.08005e-07
-8.19774e-07
1.85109e-07
8.19638e-07
-1.85859e-07
1.17967e-06
0.00105784
-3.73982e-10
-0.00105784
7.73092e-10
-1.17866e-06
2.10087e-07
-2.10573e-07
-8.19759e-07
1.85032e-07
-1.85803e-07
8.19596e-07
-1.98993e-07
-2.03751e-07
0.00025844
-1.14686e-06
0.000260367
-0.00025844
1.99999e-07
2.04752e-07
-2.71016e-10
7.13088e-10
0.00105886
-2.08061e-07
1.14695e-06
2.07566e-07
8.1972e-07
-1.88542e-07
1.87767e-07
-8.19879e-07
-4.16014e-10
-0.00105836
7.58686e-10
-1.14584e-06
2.07482e-07
-2.08005e-07
-8.19603e-07
1.87717e-07
8.19518e-07
-1.88479e-07
1.14695e-06
0.00105886
-2.5972e-10
-0.00105886
7.24195e-10
-1.14596e-06
2.07561e-07
-2.08063e-07
-8.19887e-07
1.87755e-07
-1.88547e-07
8.19719e-07
-0.000258452
2.02299e-07
2.07453e-07
1.18387e-06
1.14855e-06
-1.98841e-07
-2.06414e-07
0.000258457
-1.18487e-06
-1.14955e-06
0.000260385
-0.000258457
1.9984e-07
2.07424e-07
7.8023e-10
0.00105793
-2.13291e-07
1.18487e-06
2.12781e-07
8.19575e-07
-1.858e-07
-8.19725e-07
1.85046e-07
-1.18918e-06
-3.22034e-10
7.59097e-10
0.00105835
-2.1602e-07
1.19018e-06
2.1551e-07
8.25016e-07
-1.88548e-07
-8.25178e-07
1.87776e-07
0.00105793
-3.98139e-10
-0.00105793
7.71963e-10
-1.18386e-06
2.12779e-07
-2.13282e-07
-8.19717e-07
1.85042e-07
-1.85793e-07
8.1958e-07
1.19018e-06
0.00105835
-3.27968e-10
-0.00105835
7.54913e-10
-1.18917e-06
2.15508e-07
-2.16013e-07
-8.25176e-07
1.87768e-07
-1.88545e-07
8.25018e-07
-2.01509e-07
-2.03787e-07
0.000258478
-1.15214e-06
0.000260413
-0.000258478
2.02525e-07
2.04794e-07
7.54511e-10
0.00105895
-2.10739e-07
1.14955e-06
2.10244e-07
8.22305e-07
-1.88555e-07
-8.22431e-07
1.87794e-07
-1.18393e-06
-3.60665e-10
7.89867e-10
0.00105804
-2.16001e-07
1.18491e-06
2.15483e-07
8.22229e-07
-1.88501e-07
-8.22378e-07
1.87746e-07
0.00105895
-3.96619e-10
-0.00105895
7.43346e-10
-1.14854e-06
2.10242e-07
-2.10729e-07
-8.22426e-07
1.87791e-07
-1.88541e-07
8.22301e-07
1.18492e-06
0.00105804
-3.7141e-10
-0.00105804
7.65009e-10
-1.18391e-06
2.15485e-07
-2.1599e-07
-8.22378e-07
1.8774e-07
-1.88496e-07
8.22231e-07
-3.83858e-10
7.65022e-10
0.00105784
-2.10573e-07
1.17967e-06
2.10091e-07
8.19597e-07
-1.85801e-07
1.85043e-07
-8.19755e-07
-4.07965e-10
-0.00105869
7.38177e-10
-1.15111e-06
2.07515e-07
-2.08002e-07
-8.1977e-07
1.85113e-07
8.19642e-07
-1.85855e-07
1.17967e-06
0.00105784
-3.88495e-10
-0.00105784
7.62853e-10
-1.17865e-06
2.10089e-07
-2.10568e-07
-8.19753e-07
1.85035e-07
-1.85797e-07
8.196e-07
-1.98996e-07
-2.03755e-07
0.00025844
-1.14686e-06
0.000260367
-0.00025844
2.00001e-07
2.04751e-07
-2.67238e-10
7.16411e-10
0.00105886
-2.08064e-07
1.14695e-06
2.07565e-07
8.19721e-07
-1.88546e-07
1.87766e-07
-8.19883e-07
-4.33071e-10
-0.00105836
7.45155e-10
-1.14583e-06
2.07487e-07
-2.08e-07
-8.19598e-07
1.87722e-07
8.19522e-07
-1.88474e-07
1.14695e-06
0.00105886
-2.74653e-10
-0.00105886
7.16149e-10
-1.14595e-06
2.07563e-07
-2.08059e-07
-8.19882e-07
1.87759e-07
-1.88542e-07
8.19722e-07
-0.000258452
2.023e-07
2.07454e-07
1.18386e-06
1.14854e-06
-1.98835e-07
-2.06408e-07
0.000258457
-1.18487e-06
-1.14955e-06
0.000260385
-0.000258457
1.99841e-07
2.07424e-07
7.7116e-10
0.00105793
-2.13284e-07
1.18488e-06
2.12784e-07
8.19577e-07
-1.85795e-07
-8.19719e-07
1.85047e-07
-1.18917e-06
-3.32199e-10
7.53025e-10
0.00105835
-2.16014e-07
1.19019e-06
2.15512e-07
8.25018e-07
-1.88543e-07
-8.25173e-07
1.87778e-07
0.00105793
-4.00259e-10
-0.00105793
7.71036e-10
-1.18386e-06
2.12777e-07
-2.13282e-07
-8.19716e-07
1.85042e-07
-1.85791e-07
8.19581e-07
1.19018e-06
0.00105835
-3.36926e-10
-0.00105835
7.63875e-10
-1.18917e-06
2.15507e-07
-2.16012e-07
-8.25173e-07
1.87768e-07
-1.88543e-07
8.25018e-07
-2.01504e-07
-2.03781e-07
0.000258478
-1.15213e-06
0.000260413
-0.000258478
2.02524e-07
2.04794e-07
7.49044e-10
0.00105895
-2.10733e-07
1.14956e-06
2.10247e-07
8.22309e-07
-1.8855e-07
-8.22425e-07
1.87797e-07
-1.18391e-06
-3.76187e-10
7.69125e-10
0.00105804
-2.15993e-07
1.18492e-06
2.15488e-07
8.22232e-07
-1.88495e-07
-8.22373e-07
1.87749e-07
0.00105895
-4.06125e-10
-0.00105895
7.45809e-10
-1.14854e-06
2.10241e-07
-2.10728e-07
-8.22424e-07
1.87792e-07
-1.88539e-07
8.22302e-07
1.18492e-06
0.00105804
-3.76367e-10
-0.00105804
7.68638e-10
-1.18391e-06
2.15483e-07
-2.15989e-07
-8.22376e-07
1.8774e-07
-1.88494e-07
8.22232e-07
-3.96481e-10
7.55008e-10
0.00105784
-2.10568e-07
1.17967e-06
2.10094e-07
8.196e-07
-1.85795e-07
1.85046e-07
-8.19748e-07
-4.0718e-10
-0.00105869
7.44619e-10
-1.15111e-06
2.07511e-07
-2.08003e-07
-8.19769e-07
1.85113e-07
8.19642e-07
-1.85855e-07
1.17967e-06
0.00105784
-3.84063e-10
-0.00105784
7.64289e-10
-1.17865e-06
2.10088e-07
-2.10569e-07
-8.19753e-07
1.85035e-07
-1.85797e-07
8.196e-07
-1.98991e-07
-2.0375e-07
0.00025844
-1.14686e-06
0.000260367
-0.00025844
2.00003e-07
2.04756e-07
-2.83923e-10
7.08793e-10
0.00105886
-2.08059e-07
1.14695e-06
2.07568e-07
8.19724e-07
-1.88539e-07
1.8777e-07
-8.19876e-07
-4.34584e-10
-0.00105836
7.47045e-10
-1.14584e-06
2.07485e-07
-2.0797e-07
-8.19596e-07
1.87722e-07
8.19523e-07
-1.88473e-07
1.14695e-06
0.00105886
-2.91047e-10
-0.00105886
7.25031e-10
-1.14595e-06
2.07564e-07
-2.08057e-07
-8.19878e-07
1.87761e-07
-1.88539e-07
8.19725e-07
-0.000258452
2.02302e-07
2.07455e-07
1.18386e-06
1.14854e-06
-1.98835e-07
-2.06409e-07
0.000258457
-1.18487e-06
-1.14955e-06
0.000260385
-0.000258457
1.99847e-07
2.07426e-07
7.65604e-10
0.00105793
-2.13284e-07
1.18488e-06
2.12785e-07
8.19578e-07
-1.85793e-07
-8.19718e-07
1.85049e-07
-1.18917e-06
-3.46893e-10
7.57574e-10
0.00105835
-2.16013e-07
1.19019e-06
2.15513e-07
8.2502e-07
-1.88542e-07
-8.2517e-07
1.87779e-07
0.00105793
-3.92399e-10
-0.00105793
7.55719e-10
-1.18386e-06
2.12782e-07
-2.13278e-07
-8.19714e-07
1.85046e-07
-1.8579e-07
8.19583e-07
1.19018e-06
0.00105835
-3.4394e-10
-0.00105835
7.68941e-10
-1.18917e-06
2.1551e-07
-2.16009e-07
-8.25166e-07
1.87771e-07
-1.88537e-07
8.25019e-07
-2.01505e-07
-2.0378e-07
0.000258478
-1.15213e-06
0.000260413
-0.000258478
2.02526e-07
2.04797e-07
7.47519e-10
0.00105895
-2.10733e-07
1.14956e-06
2.10248e-07
8.22309e-07
-1.88548e-07
-8.22423e-07
1.87798e-07
-1.18391e-06
-3.7833e-10
7.6907e-10
0.00105804
-2.15992e-07
1.18492e-06
2.15489e-07
8.22231e-07
-1.88493e-07
-8.22371e-07
1.87749e-07
0.00105895
-4.00844e-10
-0.00105895
7.3494e-10
-1.14854e-06
2.10247e-07
-2.10727e-07
-8.22419e-07
1.87796e-07
-1.88535e-07
8.22305e-07
1.18492e-06
0.00105804
-3.74298e-10
-0.00105804
7.47489e-10
-1.18391e-06
2.15489e-07
-2.15983e-07
-8.22373e-07
1.87739e-07
-1.88492e-07
8.22229e-07
-3.92378e-10
7.57831e-10
0.00105784
-2.10571e-07
1.17967e-06
2.10091e-07
8.19598e-07
-1.85795e-07
1.85044e-07
-8.1975e-07
-4.00607e-10
-0.00105869
7.33009e-10
-1.1511e-06
2.07515e-07
-2.07998e-07
-8.19765e-07
1.85113e-07
8.19642e-07
-1.85851e-07
1.17967e-06
0.00105784
-3.48521e-10
-0.00105784
7.45919e-10
-1.17865e-06
2.10089e-07
-2.10566e-07
-8.19748e-07
1.85038e-07
-1.85791e-07
8.19601e-07
-1.98989e-07
-2.03747e-07
0.00025844
-1.14686e-06
0.000260364
-0.00025844
2.0001e-07
2.07251e-07
-3.07593e-10
7.22597e-10
0.00105886
-2.08058e-07
1.14695e-06
2.07569e-07
8.19727e-07
-1.88537e-07
1.87772e-07
-8.19873e-07
-4.2636e-10
-0.00105836
7.273e-10
-1.14583e-06
2.0752e-07
-2.07994e-07
-8.19592e-07
1.87745e-07
8.19471e-07
-1.88472e-07
1.14696e-06
0.00105886
-3.6907e-10
-0.00105886
7.31368e-10
-1.14594e-06
2.0757e-07
-2.08049e-07
-8.19861e-07
1.87777e-07
-1.88522e-07
8.1974e-07
-0.000258452
2.02304e-07
2.07457e-07
1.18385e-06
1.14854e-06
-1.98833e-07
-2.06401e-07
0.000258457
-1.18755e-06
-1.15227e-06
0.000260387
-0.000258457
2.02443e-07
2.07613e-07
7.22085e-10
0.00105793
-2.13276e-07
1.18487e-06
2.12789e-07
8.19574e-07
-1.85796e-07
-8.1972e-07
1.85045e-07
-1.18917e-06
-3.19654e-10
7.34789e-10
0.00105835
-2.16009e-07
1.19019e-06
2.15524e-07
8.25023e-07
-1.88536e-07
-8.25162e-07
1.87781e-07
0.00105792
-7.32599e-10
-0.00105792
-4.89544e-09
-1.18633e-06
2.15599e-07
-2.13164e-07
-8.22203e-07
1.8785e-07
-1.88326e-07
8.22324e-07
1.19286e-06
0.00105837
-1.13948e-08
-0.00105836
5.38477e-10
-1.18905e-06
2.15638e-07
-2.15892e-07
-8.22426e-07
1.85232e-07
-1.85763e-07
8.22528e-07
-2.01498e-07
-2.03777e-07
0.000258478
-1.15482e-06
0.00026041
-0.000258475
2.02654e-07
2.09911e-07
7.27013e-10
0.00105895
-2.10733e-07
1.15217e-06
2.12937e-07
8.22316e-07
-1.88542e-07
-8.22412e-07
1.87803e-07
-1.1839e-06
-3.7141e-10
7.42226e-10
0.00105804
-2.15985e-07
1.18492e-06
2.15495e-07
8.2223e-07
-1.88491e-07
-8.22367e-07
1.87747e-07
0.00105895
-8.1229e-10
-0.00105895
5.13702e-10
-1.15106e-06
2.13062e-07
-2.13282e-07
-8.24889e-07
1.87955e-07
-1.88405e-07
8.25069e-07
1.18241e-06
0.00105804
-7.35475e-10
-0.00105804
-4.84969e-09
-1.1812e-06
2.15636e-07
-2.15868e-07
-8.22292e-07
1.87888e-07
-1.88363e-07
8.2243e-07
-3.6231e-10
7.12788e-10
0.00105784
-2.10561e-07
1.17968e-06
2.10102e-07
8.1961e-07
-1.85784e-07
1.85058e-07
-8.19738e-07
-6.11814e-09
-0.00105869
4.97567e-10
-1.151e-06
2.07672e-07
-2.07877e-07
-8.22249e-07
1.87905e-07
8.24999e-07
-1.85732e-07
1.18239e-06
0.00105784
-6.18128e-09
-0.00105784
4.7513e-10
-1.17857e-06
2.12929e-07
-2.10456e-07
-8.22233e-07
1.87831e-07
-1.85674e-07
8.22345e-07
-1.98987e-07
-2.0623e-07
0.00025844
-1.14698e-06
0.000260362
-0.000258442
2.0263e-07
2.07398e-07
-3.58311e-10
7.09974e-10
0.00105886
-2.08045e-07
1.14696e-06
2.07579e-07
8.19752e-07
-1.88514e-07
1.87795e-07
-8.19851e-07
-7.96493e-10
-0.00105836
-4.84298e-09
-1.14573e-06
2.07683e-07
-2.07869e-07
-8.19448e-07
1.87898e-07
8.19612e-07
-1.8833e-07
1.14703e-06
0.00105886
-7.9863e-10
-0.00105886
-4.80329e-09
-1.14066e-06
2.07697e-07
-2.0526e-07
-8.17105e-07
1.85269e-07
-1.85734e-07
8.19841e-07
-0.000258457
2.0247e-07
2.1008e-07
1.18363e-06
1.14573e-06
-2.0106e-07
-2.03692e-07
0.000258463
-1.24472e-06
-1.20939e-06
0.000260458
-0.000258486
2.38761e-07
2.43998e-07
4.43672e-11
0.00105793
-2.12996e-07
1.1903e-06
2.15823e-07
8.25043e-07
-1.88162e-07
-8.22024e-07
1.88076e-07
-1.18891e-06
-6.95593e-09
-5.26906e-09
0.00105836
-2.15735e-07
1.19298e-06
2.18512e-07
8.27948e-07
-1.8557e-07
-8.22319e-07
1.90753e-07
0.00105817
-3.04543e-07
-0.00105801
-1.40473e-07
-1.15858e-06
2.50862e-07
-1.94276e-07
-7.89864e-07
2.24583e-07
-1.60365e-07
8.75743e-07
1.24996e-06
0.00105859
-3.04547e-07
-0.00105844
-1.35108e-07
-1.16395e-06
2.50851e-07
-1.94399e-07
-7.97986e-07
2.27271e-07
-1.60455e-07
8.83876e-07
-2.01271e-07
-2.06027e-07
0.000258478
-1.20934e-06
0.000260481
-0.000258507
2.41452e-07
2.43679e-07
-5.27206e-09
0.00105897
-2.10425e-07
1.14976e-06
2.10557e-07
8.25239e-07
-1.88226e-07
-8.22146e-07
1.90823e-07
-1.17848e-06
-1.76111e-08
-5.33282e-09
0.00105805
-2.12977e-07
1.18514e-06
2.15828e-07
8.25199e-07
-1.85505e-07
-8.22127e-07
1.8812e-07
0.00105918
-3.10451e-07
-0.00105904
-1.35e-07
-1.12072e-06
2.48252e-07
-1.89093e-07
-7.9512e-07
2.27397e-07
-1.60387e-07
8.81188e-07
1.24211e-06
0.00105828
-3.09956e-07
-0.00105813
-1.40424e-07
-1.15608e-06
2.50893e-07
-1.91673e-07
-7.9251e-07
2.27329e-07
-1.62961e-07
8.78498e-07
-1.22692e-08
-5.37524e-09
0.00105784
-2.12955e-07
1.1851e-06
2.15808e-07
8.25117e-07
-1.8547e-07
1.88069e-07
-8.19466e-07
-3.04985e-07
-0.00105878
-1.4005e-07
-1.1233e-06
2.45515e-07
-1.86461e-07
-7.92562e-07
2.24584e-07
8.78479e-07
-1.60384e-07
1.24209e-06
0.00105807
-3.04633e-07
-0.00105793
-1.40491e-07
-1.15343e-06
2.5084e-07
-1.88979e-07
-7.92493e-07
2.2726e-07
-1.62983e-07
8.78408e-07
-1.98726e-07
-2.03518e-07
0.000258442