/*--------------------------------*- C++ -*----------------------------------*\
| =========                 |                                                 |
| \\      /  F ield         | OpenFOAM: The Open Source CFD Toolbox           |
|  \\    /   O peration     | Version:  2206                                  |
|   \\  /    A nd           | Website:  www.openfoam.com                      |
|    \\/     M anipulation  |                                                 |
\*---------------------------------------------------------------------------*/
FoamFile
{
    version     2.0;
    format      ascii;
    arch        "LSB;label=32;scalar=64";
    class       surfaceScalarField;
    location    "7";
    object      phi;
}
// * * * * * * * * * * * * * * * * * * * * * * * * * * * * * * * * * * * * * //

dimensions      [0 3 -1 0 0 0 0];

oriented        oriented;

internalField   nonuniform List<scalar> 
82717
(
1.0709e-09
1.06507e-09
-8.85258e-10
-8.91108e-10
0.00106243
-0.00106311
-1.16119e-06
-1.25495e-09
8.58118e-10
0.00106311
-2.1596e-07
1.16286e-06
2.15715e-07
8.32965e-07
-1.97761e-07
-8.32723e-07
1.97163e-07
-1.15591e-06
-1.08341e-09
1.07009e-09
0.00106278
-2.16009e-07
1.15751e-06
2.15632e-07
8.32777e-07
-2.00494e-07
-8.32636e-07
1.99728e-07
1.18889e-06
1.15602e-06
-2.06572e-07
-2.11738e-07
0.000259526
1.90167e-10
4.03746e-10
-0.00106243
-6.50322e-10
-4.67222e-10
0.00106243
-0.00106311
-1.16149e-06
-2.38524e-11
1.7389e-09
0.00106311
-2.16456e-07
1.16264e-06
2.15301e-07
8.32513e-07
-1.98512e-07
-8.3325e-07
1.96406e-07
-0.00106278
-1.15606e-06
-3.57233e-10
1.36917e-09
0.00106278
-2.16198e-07
1.15734e-06
2.15365e-07
8.3239e-07
-2.00711e-07
-8.33005e-07
1.99269e-07
-0.000261452
1.18901e-06
1.15618e-06
-2.06751e-07
-2.11887e-07
0.000259525
4.22064e-10
4.5648e-10
-0.00106243
-5.5573e-10
-5.61463e-10
0.00106243
-0.00106311
-1.16138e-06
-5.2736e-10
1.26776e-09
0.00106311
-2.16228e-07
1.16276e-06
2.15551e-07
8.32788e-07
-1.98206e-07
-8.33019e-07
1.96853e-07
-0.00106278
-1.15608e-06
-4.66167e-10
1.30854e-09
0.00106278
-2.16227e-07
1.15743e-06
2.15517e-07
8.32606e-07
-2.00856e-07
-8.32908e-07
1.99469e-07
-0.000261452
1.18906e-06
1.1562e-06
-2.06771e-07
-2.11938e-07
0.000259526
6.13984e-10
6.99403e-10
-0.00106243
-6.93036e-10
-6.58991e-10
0.00106243
-0.00106311
-1.16138e-06
-6.73312e-10
1.28508e-09
0.00106311
-2.16233e-07
1.16276e-06
2.15557e-07
8.32836e-07
-1.98128e-07
-8.32969e-07
1.96914e-07
-0.00106278
-1.15603e-06
-6.93814e-10
1.21879e-09
0.00106278
-2.16166e-07
1.15747e-06
2.15563e-07
8.32659e-07
-2.00746e-07
-8.32848e-07
1.99545e-07
-0.000261453
1.18901e-06
1.15614e-06
-2.06705e-07
-2.11867e-07
0.000259526
6.25552e-10
7.05051e-10
-0.00106243
-6.90262e-10
-6.74013e-10
0.00106243
-0.00106311
-1.16133e-06
-7.0332e-10
1.23883e-09
0.00106311
-2.1617e-07
1.16277e-06
2.15553e-07
8.32832e-07
-1.98128e-07
-8.32969e-07
1.96911e-07
-0.00106278
-1.15603e-06
-7.03646e-10
1.21596e-09
0.00106278
-2.16164e-07
1.15747e-06
2.15564e-07
8.32662e-07
-2.00742e-07
-8.32844e-07
1.99547e-07
-0.000261453
1.18901e-06
1.15614e-06
-2.06702e-07
-2.11865e-07
0.000259526
6.11905e-10
7.12849e-10
-0.00106243
-6.9057e-10
-6.58573e-10
0.00106243
-0.00106311
-1.16134e-06
-7.12182e-10
1.25825e-09
0.00106311
-2.16177e-07
1.16277e-06
2.1555e-07
8.32838e-07
-1.98127e-07
-8.32967e-07
1.96913e-07
-0.00106278
-1.15603e-06
-7.25972e-10
1.21416e-09
0.00106278
-2.16163e-07
1.15747e-06
2.15566e-07
8.32666e-07
-2.00739e-07
-8.32841e-07
1.99552e-07
-0.000261453
1.189e-06
1.15614e-06
-2.06701e-07
-2.11862e-07
0.000259526
4.81231e-10
7.07567e-10
-0.00106243
-6.64788e-10
-5.86717e-10
0.00106243
-0.00106311
-1.16138e-06
-7.01115e-10
1.36259e-09
0.00106311
-2.16237e-07
1.16272e-06
2.15495e-07
8.32847e-07
-1.98127e-07
-8.32962e-07
1.96919e-07
-0.00106278
-1.15603e-06
-7.59242e-10
1.21415e-09
0.00106278
-2.16162e-07
1.15747e-06
2.15568e-07
8.32672e-07
-2.00733e-07
-8.32835e-07
1.99557e-07
-0.000261453
1.189e-06
1.15614e-06
-2.06699e-07
-2.11857e-07
0.000259526
5.76668e-10
6.4824e-10
-0.00106243
-6.30454e-10
-6.25668e-10
0.00106243
-0.00106311
-1.16131e-06
-7.72126e-10
1.16608e-09
0.00106311
-2.16123e-07
1.16281e-06
2.15628e-07
8.32842e-07
-1.98106e-07
-8.32955e-07
1.96928e-07
-0.00106278
-1.15603e-06
-7.59698e-10
1.22179e-09
0.00106278
-2.16164e-07
1.15747e-06
2.15565e-07
8.32671e-07
-2.00733e-07
-8.32835e-07
1.99557e-07
-0.000261453
1.189e-06
1.15614e-06
-2.06699e-07
-2.1186e-07
0.000259526
5.44348e-10
6.09167e-10
-0.00106242
-6.65999e-10
-6.97154e-10
0.00106242
-0.00106311
-1.16133e-06
-7.17714e-10
1.23152e-09
0.00106311
-2.18869e-07
1.1628e-06
2.18247e-07
8.32839e-07
-1.98157e-07
-8.32968e-07
1.96934e-07
-0.00106278
-1.15603e-06
-7.24159e-10
1.21915e-09
0.00106278
-2.16163e-07
1.15747e-06
2.15564e-07
8.32666e-07
-2.00736e-07
-8.32838e-07
1.99552e-07
-0.000261453
1.189e-06
1.15614e-06
-2.06696e-07
-2.11861e-07
0.000259526
6.75969e-10
6.93586e-10
-0.00106243
-6.81643e-10
-6.89511e-10
0.00106243
-0.00106311
-1.16132e-06
-7.01908e-10
1.21964e-09
0.00106311
-2.18887e-07
1.16277e-06
2.18283e-07
8.32832e-07
-1.98157e-07
-8.32971e-07
1.96931e-07
-0.00106278
-1.15603e-06
-7.04564e-10
1.21759e-09
0.00106278
-2.16164e-07
1.15747e-06
2.15563e-07
8.32662e-07
-2.0074e-07
-8.32843e-07
1.99548e-07
-0.000261453
1.189e-06
1.15614e-06
-2.06699e-07
-2.11864e-07
0.000259526
6.71313e-10
6.94525e-10
-0.00106243
-6.88242e-10
-6.88168e-10
0.00106243
-0.00106311
-1.16132e-06
-7.1181e-10
1.22084e-09
0.00106311
-2.18884e-07
1.16277e-06
2.18282e-07
8.32833e-07
-1.98154e-07
-8.32969e-07
1.96932e-07
-0.00106278
-1.15603e-06
-7.01146e-10
1.2177e-09
0.00106278
-2.16164e-07
1.15747e-06
2.15563e-07
8.3266e-07
-2.00742e-07
-8.32844e-07
1.99546e-07
-0.000261453
1.18901e-06
1.15614e-06
-2.06701e-07
-2.11865e-07
0.000259526
6.65683e-10
6.97265e-10
-0.00106243
-6.89652e-10
-6.84978e-10
0.00106243
-0.00106311
-1.16132e-06
-7.02269e-10
1.22742e-09
0.00106311
-2.18886e-07
1.16277e-06
2.1828e-07
8.32832e-07
-1.98156e-07
-8.32971e-07
1.96931e-07
-0.00106278
-1.15603e-06
-6.94222e-10
1.21931e-09
0.00106278
-2.16165e-07
1.15747e-06
2.15563e-07
8.32659e-07
-2.00743e-07
-8.32846e-07
1.99545e-07
-0.000261453
1.18901e-06
1.15614e-06
-2.06701e-07
-2.11866e-07
0.000259526
6.6601e-10
7.02382e-10
-0.00106243
-6.92421e-10
-6.85229e-10
0.00106243
-0.00106311
-1.16132e-06
-7.0831e-10
1.22223e-09
0.00106311
-2.18885e-07
1.16277e-06
2.18282e-07
8.32834e-07
-1.98155e-07
-8.3297e-07
1.96932e-07
-0.00106278
-1.15603e-06
-7.01398e-10
1.2134e-09
0.00106278
-2.16163e-07
1.15747e-06
2.15564e-07
8.32661e-07
-2.00743e-07
-8.32845e-07
1.99547e-07
-0.000261453
1.18901e-06
1.15614e-06
-2.06701e-07
-2.11866e-07
0.000259526
6.72668e-10
7.07861e-10
-0.00106243
-6.94338e-10
-6.87951e-10
0.00106243
-0.00106311
-1.16132e-06
-7.1457e-10
1.22139e-09
0.00106311
-2.18883e-07
1.16277e-06
2.18283e-07
8.32834e-07
-1.98153e-07
-8.32968e-07
1.96933e-07
-0.00106278
-1.15603e-06
-7.05778e-10
1.21386e-09
0.00106278
-2.16162e-07
1.15747e-06
2.15565e-07
8.32662e-07
-2.0074e-07
-8.32843e-07
1.99548e-07
-0.000261453
1.189e-06
1.15614e-06
-2.06699e-07
-2.11864e-07
0.000259526
6.74634e-10
7.08163e-10
-0.00106243
-6.9495e-10
-6.89297e-10
0.00106243
-0.00106311
-1.16132e-06
-7.17931e-10
1.21818e-09
0.00106311
-2.18882e-07
1.16277e-06
2.18284e-07
8.32836e-07
-1.98152e-07
-8.32967e-07
1.96934e-07
-0.00106278
-1.15603e-06
-7.0885e-10
1.21095e-09
0.00106278
-2.16161e-07
1.15747e-06
2.15566e-07
8.32663e-07
-2.0074e-07
-8.32842e-07
1.99549e-07
-0.000261453
1.189e-06
1.15614e-06
-2.067e-07
-2.11864e-07
0.000259526
6.84981e-10
7.19331e-10
-0.00106243
-7.0159e-10
-6.9418e-10
0.00106243
-0.00106311
-1.16132e-06
-7.21628e-10
1.21517e-09
0.00106311
-2.18882e-07
1.16277e-06
2.18284e-07
8.32836e-07
-1.98151e-07
-8.32965e-07
1.96935e-07
-0.00106278
-1.15603e-06
-7.14754e-10
1.20656e-09
0.00106278
-2.1616e-07
1.15747e-06
2.15567e-07
8.32664e-07
-2.00739e-07
-8.32841e-07
1.99549e-07
-0.000261453
1.189e-06
1.15614e-06
-2.06698e-07
-2.11862e-07
0.000259526
6.72436e-10
7.18725e-10
-0.00106243
-7.09411e-10
-6.90463e-10
0.00106243
-0.00106311
-1.16132e-06
-7.10193e-10
1.22252e-09
0.00106311
-2.18883e-07
1.16277e-06
2.18283e-07
8.32834e-07
-1.98154e-07
-8.32967e-07
1.96935e-07
-0.00106278
-1.15603e-06
-7.13086e-10
1.20362e-09
0.00106278
-2.1616e-07
1.15747e-06
2.15568e-07
8.32662e-07
-2.00743e-07
-8.3284e-07
1.99553e-07
-0.000261453
1.189e-06
1.15614e-06
-2.06701e-07
-2.11863e-07
0.000259526
8.22985e-10
8.8783e-10
-0.00106243
-8.03053e-10
-7.61262e-10
0.00106243
-0.00106311
-1.16129e-06
-7.5697e-10
1.20433e-09
0.00106311
-2.18847e-07
1.16277e-06
2.18281e-07
8.32828e-07
-1.98102e-07
-8.32926e-07
1.96922e-07
-0.00106278
-1.15599e-06
-8.7183e-10
1.13265e-09
0.00106278
-2.16116e-07
1.15749e-06
2.15589e-07
8.32686e-07
-2.00678e-07
-8.32779e-07
1.99574e-07
-0.000261453
1.18896e-06
1.15611e-06
-2.06673e-07
-2.11824e-07
0.000259526
1.20104e-06
0.00106277
-1.19946e-06
2.2366e-07
-2.2406e-07
-8.38204e-07
1.99764e-07
-2.00597e-07
8.3838e-07
-1.16284e-06
0.000261496
-0.000259554
2.08464e-07
2.13218e-07
-1.16122e-06
2.15666e-07
-2.16024e-07
1.97058e-07
-1.979e-07
1.19412e-06
1.15863e-06
-2.04092e-07
-2.09207e-07
0.000259531
-1.19571e-06
-1.16019e-06
0.00026147
-0.00025953
2.05733e-07
2.10882e-07
1.18986e-09
0.00106235
-2.24022e-07
1.1957e-06
2.23601e-07
8.3288e-07
-1.97849e-07
-8.32709e-07
1.97044e-07
-1.19942e-06
-1.19885e-09
-4.38475e-09
0.00106278
-2.24e-07
1.20107e-06
2.2372e-07
8.38368e-07
-2.00444e-07
-8.38192e-07
1.99876e-07
0.00106234
-9.02261e-10
-0.00106234
8.8484e-10
-1.19406e-06
2.23637e-07
-2.23918e-07
-8.32796e-07
1.97065e-07
-1.9771e-07
8.32678e-07
1.20087e-06
0.00106277
-1.29098e-10
-0.00106277
1.63081e-09
-1.19959e-06
2.23354e-07
-2.24261e-07
-8.38521e-07
1.99312e-07
-2.00786e-07
8.37976e-07
-2.06736e-07
-2.11533e-07
0.000259554
-1.16263e-06
0.000261496
-0.000259553
2.08165e-07
2.12998e-07
1.07565e-09
0.00106337
-2.18731e-07
1.16022e-06
2.18338e-07
8.35637e-07
-2.00586e-07
-8.35429e-07
1.99793e-07
-1.19417e-06
-1.02383e-09
1.11793e-09
0.00106246
-2.24053e-07
1.19575e-06
2.2364e-07
8.35545e-07
-2.00545e-07
-8.35385e-07
1.99729e-07
0.00106337
-1.12834e-09
-0.00106337
1.10146e-09
-1.15862e-06
2.18328e-07
-2.18675e-07
-8.3546e-07
1.99843e-07
-2.00407e-07
8.35478e-07
1.19573e-06
0.00106245
-9.74175e-10
-0.00106245
1.09032e-09
-1.19414e-06
2.23635e-07
-2.23982e-07
-8.35434e-07
1.99771e-07
-2.00379e-07
8.35372e-07
-1.03578e-09
1.14075e-09
0.00106226
-2.18601e-07
1.19046e-06
2.18206e-07
8.32902e-07
-1.97827e-07
1.9701e-07
-8.32744e-07
-5.98415e-10
-0.00106311
1.64635e-09
-1.16139e-06
2.15334e-07
-2.16245e-07
-8.32924e-07
1.96732e-07
8.32641e-07
-1.97973e-07
1.19047e-06
0.00106225
-8.97099e-10
-0.00106225
9.08204e-10
-1.18884e-06
2.18225e-07
-2.18511e-07
-8.32816e-07
1.97044e-07
-1.97671e-07
8.32714e-07
-2.04262e-07
-2.11532e-07
0.000259513
-1.15749e-06
0.000261447
-0.000259512
2.05912e-07
2.13178e-07
-1.04204e-09
1.05796e-09
0.00106329
-2.16059e-07
1.15761e-06
2.15687e-07
8.30423e-07
-1.97909e-07
1.97106e-07
-8.30237e-07
-1.06279e-09
-0.00106278
1.04134e-09
-1.15588e-06
2.15628e-07
-2.15937e-07
-8.32632e-07
1.99754e-07
8.32659e-07
-2.0034e-07
1.15758e-06
0.00106328
-1.08078e-09
-0.00106328
1.08322e-09
-1.15601e-06
2.15671e-07
-2.16001e-07
-8.30273e-07
1.97163e-07
-1.97729e-07
8.30266e-07
-0.000259525
2.08203e-07
2.13403e-07
1.19424e-06
1.1588e-06
-2.04274e-07
-2.09349e-07
0.00025953
-1.19557e-06
-1.16273e-06
0.000261468
-0.000259531
2.08068e-07
2.13232e-07
1.27e-09
0.00106234
-2.2418e-07
1.19556e-06
2.2337e-07
8.3246e-07
-1.98099e-07
-8.33126e-07
1.96565e-07
-1.1997e-06
1.65914e-10
1.72721e-09
0.00106278
-2.24486e-07
1.20085e-06
2.23296e-07
8.38021e-07
-2.01292e-07
-8.38644e-07
1.99041e-07
0.00106235
-2.78555e-10
-0.00106234
1.46602e-09
-1.19433e-06
2.23438e-07
-2.24307e-07
-8.35632e-07
1.96697e-07
-2.01019e-07
8.32698e-07
1.20095e-06
0.00106278
-3.66269e-10
-0.00106278
1.34162e-09
-1.19963e-06
2.23531e-07
-2.24289e-07
-8.38483e-07
1.99491e-07
-2.00977e-07
8.38166e-07
-2.07155e-07
-2.11887e-07
0.000259553
-1.16274e-06
0.000261496
-0.000259554
2.08293e-07
2.13062e-07
1.44428e-09
0.00106337
-2.18943e-07
1.16004e-06
2.18099e-07
8.35252e-07
-2.00804e-07
-8.35794e-07
1.99336e-07
-1.19431e-06
-2.84463e-10
1.41749e-09
0.00106245
-2.24244e-07
1.19559e-06
2.23371e-07
8.35151e-07
-2.0076e-07
-8.35759e-07
1.99278e-07
0.00106337
-3.0589e-10
-0.00106337
1.39056e-09
-1.16147e-06
2.209e-07
-2.21744e-07
-8.35727e-07
1.99434e-07
-2.01093e-07
8.35438e-07
1.19564e-06
0.00106246
-2.47659e-10
-0.00106246
1.42485e-09
-1.19438e-06
2.23475e-07
-2.24335e-07
-8.35682e-07
1.99377e-07
-2.01048e-07
8.35352e-07
-2.10486e-10
1.26818e-09
0.00106225
-2.18773e-07
1.19032e-06
2.17957e-07
8.32502e-07
-1.98058e-07
1.96543e-07
-8.33134e-07
-4.05684e-10
-0.00106311
1.28633e-09
-1.16141e-06
2.15525e-07
-2.16255e-07
-8.33028e-07
1.96797e-07
8.32771e-07
-1.9828e-07
1.19035e-06
0.00106226
-2.48949e-10
-0.00106226
1.4539e-09
-1.1891e-06
2.18037e-07
-2.18889e-07
-8.3304e-07
1.96654e-07
-1.98334e-07
8.32711e-07
-2.04428e-07
-2.11696e-07
0.000259512
-1.1574e-06
0.000261447
-0.000259513
2.05734e-07
2.12995e-07
-3.65243e-10
1.41368e-09
0.00106328
-2.16266e-07
1.15744e-06
2.15407e-07
8.30045e-07
-1.98119e-07
1.96658e-07
-8.30598e-07
-3.17591e-10
-0.00106278
1.37138e-09
-1.15612e-06
2.15469e-07
-2.16288e-07
-8.32883e-07
1.99351e-07
8.32635e-07
-2.01017e-07
1.1575e-06
0.00106329
-2.88647e-10
-0.00106329
1.38583e-09
-1.15624e-06
2.15522e-07
-2.16347e-07
-8.30531e-07
1.96752e-07
-1.98414e-07
8.30231e-07
-0.000259526
2.08033e-07
2.13201e-07
1.19429e-06
1.16142e-06
-2.06805e-07
-2.11974e-07
0.000259531
-1.19566e-06
-1.1628e-06
0.000261468
-0.000259531
2.08158e-07
2.13332e-07
1.37727e-09
0.00106234
-2.24244e-07
1.19561e-06
2.23489e-07
8.35339e-07
-1.98225e-07
-8.32994e-07
1.9945e-07
-1.19961e-06
-4.63329e-10
1.31988e-09
0.00106278
-2.24259e-07
1.20097e-06
2.23558e-07
8.38189e-07
-2.0092e-07
-8.38462e-07
1.99532e-07
0.00106234
-6.17207e-10
-0.00106234
1.23827e-09
-1.19423e-06
2.23541e-07
-2.24175e-07
-8.35569e-07
1.99525e-07
-2.00786e-07
8.3539e-07
1.20098e-06
0.00106278
-4.74021e-10
-0.00106278
1.37071e-09
-1.1996e-06
2.23549e-07
-2.24264e-07
-8.38457e-07
1.9954e-07
-2.00917e-07
8.38197e-07
-2.06963e-07
-2.11743e-07
0.000259554
-1.16275e-06
0.000261496
-0.000259554
2.08289e-07
2.13123e-07
1.32269e-09
0.00106337
-2.21679e-07
1.16276e-06
2.20951e-07
8.35463e-07
-2.00952e-07
-8.35705e-07
1.99532e-07
-1.19434e-06
-4.13225e-10
1.3601e-09
0.00106246
-2.24274e-07
1.19567e-06
2.23524e-07
8.35377e-07
-2.00904e-07
-8.35656e-07
1.99476e-07
0.00106337
-6.95191e-10
-0.00106337
1.23533e-09
-1.16138e-06
2.20991e-07
-2.2162e-07
-8.3564e-07
1.9961e-07
-2.00842e-07
8.35519e-07
1.19571e-06
0.00106246
-6.26155e-10
-0.00106246
1.26578e-09
-1.19429e-06
2.23565e-07
-2.24214e-07
-8.35602e-07
1.99551e-07
-2.00798e-07
8.35428e-07
-4.12631e-10
1.3808e-09
0.00106226
-2.18827e-07
1.19038e-06
2.18084e-07
8.32735e-07
-1.98189e-07
1.96754e-07
-8.33016e-07
-6.67306e-10
-0.00106311
1.3128e-09
-1.1614e-06
2.15529e-07
-2.1625e-07
-8.32971e-07
1.96914e-07
8.32835e-07
-1.98129e-07
1.19043e-06
0.00106226
-6.257e-10
-0.00106226
1.25034e-09
-1.18901e-06
2.18134e-07
-2.18761e-07
-8.32961e-07
1.9683e-07
-1.98077e-07
8.32783e-07
-2.04456e-07
-2.1173e-07
0.000259513
-1.15746e-06
0.000261447
-0.000259513
2.0582e-07
2.13086e-07
-4.50805e-10
1.32208e-09
0.00106329
-2.16283e-07
1.15753e-06
2.15569e-07
8.30256e-07
-1.9827e-07
1.96851e-07
-8.30507e-07
-6.9247e-10
-0.00106278
1.21664e-09
-1.15604e-06
2.15556e-07
-2.1617e-07
-8.32801e-07
1.99527e-07
8.32711e-07
-2.00762e-07
1.15757e-06
0.00106329
-6.89099e-10
-0.00106329
1.22334e-09
-1.15615e-06
2.15613e-07
-2.16223e-07
-8.30446e-07
1.96932e-07
-1.98153e-07
8.3031e-07
-0.000259526
2.08124e-07
2.13296e-07
1.19422e-06
1.16137e-06
-2.06739e-07
-2.11898e-07
0.000259531
-1.19565e-06
-1.1628e-06
0.000261468
-0.000259531
2.08161e-07
2.13332e-07
1.23162e-09
0.00106234
-2.24169e-07
1.19566e-06
2.23548e-07
8.35387e-07
-2.00781e-07
-8.35569e-07
1.99525e-07
-1.19958e-06
-5.68283e-10
1.3218e-09
0.00106278
-2.24242e-07
1.20099e-06
2.23578e-07
8.3822e-07
-2.00876e-07
-8.38435e-07
1.99581e-07
0.00106234
-6.64787e-10
-0.00106234
1.25586e-09
-1.19423e-06
2.23536e-07
-2.24172e-07
-8.35549e-07
1.9953e-07
-2.0077e-07
8.354e-07
1.20099e-06
0.00106278
-6.43761e-10
-0.00106278
1.27404e-09
-1.19957e-06
2.23616e-07
-2.24218e-07
-8.35776e-07
1.96923e-07
-1.98178e-07
8.35608e-07
-2.0697e-07
-2.11696e-07
0.000259554
-1.16277e-06
0.000261494
-0.000259552
2.10859e-07
2.1063e-07
1.23775e-09
0.00106337
-2.21618e-07
1.1628e-06
2.20995e-07
8.35519e-07
-2.00837e-07
-8.35641e-07
1.99614e-07
-1.19429e-06
-6.42682e-10
1.26495e-09
0.00106246
-2.24211e-07
1.19571e-06
2.23571e-07
8.3543e-07
-2.00792e-07
-8.35596e-07
1.99553e-07
0.00106337
-7.19599e-10
-0.00106337
1.22383e-09
-1.16137e-06
2.20994e-07
-2.21614e-07
-8.35631e-07
1.99616e-07
-2.00833e-07
8.35526e-07
1.19571e-06
0.00106246
-6.56482e-10
-0.00106246
1.25291e-09
-1.19429e-06
2.23569e-07
-2.24208e-07
-8.35593e-07
1.99558e-07
-2.0079e-07
8.35435e-07
-6.30728e-10
1.24958e-09
0.00106226
-2.18758e-07
1.19043e-06
2.18135e-07
8.32785e-07
-1.98081e-07
1.96827e-07
-8.3296e-07
-7.08321e-10
-0.00106311
1.23832e-09
-1.16134e-06
2.15549e-07
-2.16175e-07
-8.32967e-07
1.96914e-07
8.32833e-07
-1.98123e-07
1.19043e-06
0.00106226
-6.53851e-10
-0.00106226
1.24825e-09
-1.189e-06
2.18137e-07
-2.18756e-07
-8.32952e-07
1.96836e-07
-1.98069e-07
8.32789e-07
-2.04393e-07
-2.11662e-07
0.000259513
-1.15747e-06
0.000261447
-0.000259513
2.05825e-07
2.1309e-07
-6.9676e-10
1.23283e-09
0.00106329
-2.16221e-07
1.15757e-06
2.15613e-07
8.30312e-07
-1.98157e-07
1.96929e-07
-8.30445e-07
-7.20963e-10
-0.00106278
1.20514e-09
-1.15603e-06
2.1556e-07
-2.16165e-07
-8.32793e-07
1.99533e-07
8.32717e-07
-2.00754e-07
1.15757e-06
0.00106329
-7.19007e-10
-0.00106329
1.21097e-09
-1.15614e-06
2.15617e-07
-2.16217e-07
-8.30436e-07
1.96939e-07
-1.98144e-07
8.30317e-07
-0.000259526
2.08128e-07
2.133e-07
1.19423e-06
1.16137e-06
-2.06738e-07
-2.11898e-07
0.000259531
-1.19566e-06
-1.1628e-06
0.000261468
-0.000259531
2.0816e-07
2.13336e-07
1.25398e-09
0.00106234
-2.24171e-07
1.19566e-06
2.23542e-07
8.35392e-07
-2.00769e-07
-8.35566e-07
1.99529e-07
-1.19956e-06
-6.42473e-10
1.27417e-09
0.00106278
-2.24247e-07
1.20099e-06
2.2362e-07
8.35606e-07
-1.98176e-07
-8.35774e-07
1.96916e-07
0.00106234
-6.65423e-10
-0.00106234
1.25161e-09
-1.19423e-06
2.23541e-07
-2.24171e-07
-8.35549e-07
1.99534e-07
-2.00764e-07
8.354e-07
1.20098e-06
0.00106278
-6.45344e-10
-0.00106278
1.26212e-09
-1.19954e-06
2.20901e-07
-2.21534e-07
-8.35774e-07
1.96901e-07
-1.98144e-07
8.35607e-07
-2.09408e-07
-2.0919e-07
0.000259552
-1.16277e-06
0.000261494
-0.000259549
2.08352e-07
2.1063e-07
1.23055e-09
0.00106337
-2.21613e-07
1.1628e-06
2.20997e-07
8.35522e-07
-2.00834e-07
-8.35636e-07
1.99616e-07
-1.19429e-06
-6.53877e-10
1.26019e-09
0.00106246
-2.24208e-07
1.19571e-06
2.23573e-07
8.35432e-07
-2.00788e-07
-8.35592e-07
1.99556e-07
0.00106337
-7.25074e-10
-0.00106337
1.22754e-09
-1.16137e-06
2.20994e-07
-2.21613e-07
-8.3563e-07
1.99618e-07
-2.00832e-07
8.35528e-07
1.19572e-06
0.00106246
-6.60253e-10
-0.00106246
1.23995e-09
-1.19428e-06
2.23573e-07
-2.24205e-07
-8.35592e-07
1.99559e-07
-2.00789e-07
8.35436e-07
-6.4477e-10
1.25704e-09
0.00106226
-2.18757e-07
1.19043e-06
2.18135e-07
8.32788e-07
-1.98077e-07
1.96829e-07
-8.32956e-07
-7.163e-10
-0.00106311
1.24279e-09
-1.16134e-06
2.15548e-07
-2.16176e-07
-8.32965e-07
1.96916e-07
8.32837e-07
-1.98122e-07
1.19043e-06
0.00106226
-6.60087e-10
-0.00106226
1.23462e-09
-1.189e-06
2.1814e-07
-2.18753e-07
-8.32951e-07
1.96839e-07
-1.98067e-07
8.32791e-07
-2.0439e-07
-2.11659e-07
0.000259513
-1.15747e-06
0.000261447
-0.000259513
2.05826e-07
2.13093e-07
-7.07972e-10
1.226e-09
0.00106329
-2.16218e-07
1.15757e-06
2.15615e-07
8.30315e-07
-1.98153e-07
1.96931e-07
-8.30441e-07
-7.34034e-10
-0.00106278
1.20397e-09
-1.15603e-06
2.15561e-07
-2.16164e-07
-8.32791e-07
1.99536e-07
8.3272e-07
-2.00751e-07
1.15758e-06
0.00106329
-7.33628e-10
-0.00106329
1.20517e-09
-1.15614e-06
2.1562e-07
-2.16215e-07
-8.30433e-07
1.96943e-07
-1.98141e-07
8.30321e-07
-0.000259526
2.0813e-07
2.13303e-07
1.19422e-06
1.16137e-06
-2.06734e-07
-2.11895e-07
0.000259531
-1.19566e-06
-1.16277e-06
0.000261468
-0.000259531
2.08117e-07
2.13344e-07
1.23995e-09
0.00106234
-2.2417e-07
1.19566e-06
2.2355e-07
8.35388e-07
-2.00771e-07
-8.3557e-07
1.99524e-07
-1.19954e-06
-6.19707e-10
1.26834e-09
0.00106278
-2.21536e-07
1.20098e-06
2.20904e-07
8.35603e-07
-1.98152e-07
-8.3578e-07
1.96896e-07
0.00106234
-5.50202e-10
-0.00106234
1.27448e-09
-1.19423e-06
2.23536e-07
-2.24179e-07
-8.35583e-07
1.99482e-07
-2.00803e-07
8.35364e-07
1.20098e-06
0.00106278
-5.35317e-10
-0.00106278
1.27838e-09
-1.19955e-06
2.20889e-07
-2.21555e-07
-8.35809e-07
1.9686e-07
-1.98197e-07
8.35576e-07
-2.06913e-07
-2.09187e-07
0.000259549
-1.16274e-06
0.000261494
-0.000259549
2.08297e-07
2.10632e-07
1.2418e-09
0.00106337
-2.21616e-07
1.1628e-06
2.20998e-07
8.35525e-07
-2.00832e-07
-8.35634e-07
1.99618e-07
-1.19428e-06
-6.54728e-10
1.24075e-09
0.00106246
-2.24204e-07
1.19572e-06
2.23578e-07
8.35433e-07
-2.00788e-07
-8.35592e-07
1.99557e-07
0.00106337
-7.28305e-10
-0.00106337
1.29462e-09
-1.16139e-06
2.20973e-07
-2.21637e-07
-8.35625e-07
1.99623e-07
-2.00829e-07
8.35536e-07
1.19572e-06
0.00106246
-6.58394e-10
-0.00106246
1.204e-09
-1.19428e-06
2.2358e-07
-2.24199e-07
-8.35592e-07
1.9956e-07
-2.00788e-07
8.35437e-07
-6.52573e-10
1.23446e-09
0.00106226
-2.18754e-07
1.19043e-06
2.1814e-07
8.3279e-07
-1.98076e-07
1.96832e-07
-8.32955e-07
-7.18212e-10
-0.00106311
1.3208e-09
-1.16137e-06
2.15513e-07
-2.1621e-07
-8.3296e-07
1.96921e-07
8.32847e-07
-1.98122e-07
1.19044e-06
0.00106226
-6.66248e-10
-0.00106226
1.19566e-09
-1.189e-06
2.18148e-07
-2.18747e-07
-8.32951e-07
1.9684e-07
-1.98066e-07
8.32793e-07
-2.04389e-07
-2.11656e-07
0.000259513
-1.15747e-06
0.000261447
-0.000259513
2.05827e-07
2.13099e-07
-7.29527e-10
1.21661e-09
0.00106329
-2.16216e-07
1.15758e-06
2.15619e-07
8.30319e-07
-1.9815e-07
1.96936e-07
-8.30437e-07
-7.69174e-10
-0.00106278
1.20506e-09
-1.15603e-06
2.15563e-07
-2.16163e-07
-8.32785e-07
1.99542e-07
8.32727e-07
-2.00746e-07
1.15758e-06
0.00106329
-7.64185e-10
-0.00106329
1.19348e-09
-1.15614e-06
2.15623e-07
-2.16213e-07
-8.3043e-07
1.96947e-07
-1.98137e-07
8.30326e-07
-0.000259526
2.08132e-07
2.13308e-07
1.19423e-06
1.16141e-06
-2.06791e-07
-2.11892e-07
0.000259531
-1.19567e-06
-1.16016e-06
0.000261466
-0.000259531
2.08135e-07
2.13304e-07
1.27467e-09
0.00106234
-2.24182e-07
1.19566e-06
2.23542e-07
8.35341e-07
-2.00837e-07
-8.35619e-07
1.9945e-07
-1.19956e-06
-4.34034e-10
1.31229e-09
0.00106278
-2.21581e-07
1.20097e-06
2.20872e-07
8.35554e-07
-1.98227e-07
-8.35834e-07
1.9683e-07
0.00106235
-6.05062e-10
-0.00106234
1.30163e-09
-1.19423e-06
2.23537e-07
-2.24173e-07
-8.35555e-07
1.96849e-07
-2.00762e-07
8.32764e-07
1.20101e-06
0.00106278
-5.73426e-10
-0.00106278
1.21157e-09
-1.19957e-06
2.23625e-07
-2.24221e-07
-8.38437e-07
1.99592e-07
-2.00871e-07
8.38223e-07
-2.06978e-07
-2.09196e-07
0.000259549
-1.16276e-06
0.000261496
-0.000259552
2.08345e-07
2.10644e-07
1.32341e-09
0.00106337
-2.21649e-07
1.16276e-06
2.20963e-07
8.35534e-07
-2.00829e-07
-8.35629e-07
1.99624e-07
-1.19428e-06
-6.58054e-10
1.20439e-09
0.00106246
-2.24198e-07
1.19573e-06
2.23584e-07
8.35434e-07
-2.00787e-07
-8.35592e-07
1.99559e-07
0.00106337
-6.77259e-10
-0.00106337
1.30654e-09
-1.16139e-06
2.18279e-07
-2.21638e-07
-8.35622e-07
1.99627e-07
-2.00823e-07
8.35537e-07
1.19572e-06
0.00106246
-6.5066e-10
-0.00106246
1.19887e-09
-1.19428e-06
2.23578e-07
-2.24199e-07
-8.35593e-07
1.99558e-07
-2.00789e-07
8.35435e-07
-6.55086e-10
1.20115e-09
0.00106226
-2.18747e-07
1.19044e-06
2.18147e-07
8.3279e-07
-1.98076e-07
1.96833e-07
-8.32955e-07
-7.54554e-10
-0.00106311
1.24124e-09
-1.16136e-06
2.15564e-07
-2.16193e-07
-8.32953e-07
1.96932e-07
8.32846e-07
-1.98105e-07
1.19044e-06
0.00106226
-6.73266e-10
-0.00106226
1.22125e-09
-1.189e-06
2.18146e-07
-2.18747e-07
-8.32951e-07
1.96836e-07
-1.98069e-07
8.32791e-07
-2.04388e-07
-2.11651e-07
0.000259513
-1.15747e-06
0.000261447
-0.000259513
2.05825e-07
2.13098e-07
-7.376e-10
1.20691e-09
0.00106329
-2.16214e-07
1.15758e-06
2.1562e-07
8.3032e-07
-1.98148e-07
1.96937e-07
-8.30436e-07
-7.79221e-10
-0.00106278
1.21084e-09
-1.15603e-06
2.1556e-07
-2.16165e-07
-8.32784e-07
1.99543e-07
8.32727e-07
-2.00744e-07
1.15758e-06
0.00106329
-6.65992e-10
-0.00106329
1.17613e-09
-1.15614e-06
2.15619e-07
-2.16215e-07
-8.30442e-07
1.96932e-07
-1.9815e-07
8.30311e-07
-0.000259526
2.08131e-07
2.13305e-07
1.19424e-06
1.15877e-06
-2.06766e-07
-2.11867e-07
0.000259531
-1.19827e-06
-1.16019e-06
0.000261471
-0.000259531
2.05637e-07
2.13305e-07
1.35078e-09
0.00106235
-2.215e-07
1.19565e-06
2.20825e-07
8.32735e-07
-1.98102e-07
-8.32944e-07
1.9679e-07
-1.19953e-06
-6.92064e-10
1.12424e-09
0.00106277
-2.24154e-07
1.20104e-06
2.23681e-07
8.38264e-07
-2.00782e-07
-8.38391e-07
1.99654e-07
0.00106234
-5.52391e-10
-0.00106234
1.30766e-09
-1.19424e-06
2.23544e-07
-2.24169e-07
-8.32944e-07
1.94165e-07
-1.98116e-07
8.32748e-07
1.20099e-06
0.00106278
-5.92543e-10
-0.00106278
1.23765e-09
-1.19957e-06
2.23572e-07
-2.24237e-07
-8.41088e-07
1.99582e-07
-2.00859e-07
8.40887e-07
-2.06879e-07
-2.09158e-07
0.000259552
-1.16276e-06
0.000261494
-0.000259552
2.08375e-07
2.1312e-07
1.28847e-09
0.00106337
-2.18944e-07
1.16015e-06
2.18261e-07
8.35527e-07
-2.00829e-07
-8.35632e-07
1.99621e-07
-1.19428e-06
-6.41989e-10
1.21922e-09
0.00106246
-2.24201e-07
1.19572e-06
2.2358e-07
8.35431e-07
-2.00789e-07
-8.35594e-07
1.99555e-07
0.00106339
-1.14951e-08
-0.00106337
1.23556e-09
-1.15875e-06
2.18332e-07
-2.18904e-07
-8.35619e-07
1.99638e-07
-2.00821e-07
8.35544e-07
1.19572e-06
0.00106246
-6.43107e-10
-0.00106246
1.22001e-09
-1.19428e-06
2.23575e-07
-2.24201e-07
-8.35592e-07
1.99558e-07
-2.00789e-07
8.35435e-07
-6.76537e-10
1.24794e-09
0.00106226
-2.18749e-07
1.19044e-06
2.18144e-07
8.3279e-07
-1.98077e-07
1.9683e-07
-8.32955e-07
-7.34477e-10
-0.00106311
1.23089e-09
-1.16133e-06
2.18224e-07
-2.18873e-07
-8.32969e-07
1.96931e-07
8.32835e-07
-1.98156e-07
1.19043e-06
0.00106226
-6.92654e-10
-0.00106226
1.24479e-09
-1.189e-06
2.18142e-07
-2.1875e-07
-8.32945e-07
1.96844e-07
-1.98061e-07
8.32797e-07
-2.0439e-07
-2.11653e-07
0.000259513
-1.15747e-06
0.000261448
-0.000259513
2.05826e-07
2.13095e-07
-6.39301e-10
1.18791e-09
0.00106329
-2.16215e-07
1.15758e-06
2.15619e-07
8.30306e-07
-1.98161e-07
1.96923e-07
-8.30449e-07
-7.51427e-10
-0.00106278
1.21091e-09
-1.15603e-06
2.1556e-07
-2.16164e-07
-8.32785e-07
1.9954e-07
8.32724e-07
-2.00746e-07
1.15758e-06
0.00106329
-7.12895e-10
-0.00106329
1.18548e-09
-1.15613e-06
2.15624e-07
-2.1621e-07
-8.30435e-07
1.96939e-07
-1.98144e-07
8.30318e-07
-0.000259526
2.08135e-07
2.13304e-07
1.19683e-06
1.15877e-06
-2.04248e-07
-2.11814e-07
0.000259531
-1.19827e-06
-1.16019e-06
0.000261468
-0.000259531
2.05677e-07
2.15784e-07
1.30971e-09
0.00106234
-2.24141e-07
1.19826e-06
2.23529e-07
8.3272e-07
-1.95427e-07
-8.32979e-07
1.94153e-07
-1.19956e-06
-6.87685e-10
1.20712e-09
0.00106278
-2.24222e-07
1.20102e-06
2.23597e-07
8.40933e-07
-2.00802e-07
-8.41059e-07
1.99633e-07
0.00106234
-6.57378e-10
-0.00106234
1.26508e-09
-1.19683e-06
2.23524e-07
-2.24149e-07
-8.35522e-07
1.94177e-07
-1.9542e-07
8.35376e-07
1.201e-06
0.00106278
-6.49853e-10
-0.00106278
1.24176e-09
-1.19956e-06
2.23589e-07
-2.24217e-07
-8.41074e-07
1.99605e-07
-2.00833e-07
8.40914e-07
-2.06881e-07
-2.09197e-07
0.000259549
-1.16277e-06
0.000261491
-0.000259549
2.0836e-07
2.13128e-07
1.25934e-09
0.00106339
-2.18903e-07
1.16017e-06
2.18304e-07
8.35527e-07
-2.00823e-07
-8.35627e-07
1.99624e-07
-1.19428e-06
-6.44174e-10
1.2314e-09
0.00106246
-2.24202e-07
1.19572e-06
2.23578e-07
8.35433e-07
-2.00788e-07
-8.35591e-07
1.99556e-07
0.00106338
-7.02987e-10
-0.00106338
1.21373e-09
-1.15875e-06
2.18304e-07
-2.18916e-07
-8.35635e-07
1.99615e-07
-2.00833e-07
8.3552e-07
1.19572e-06
0.00106246
-6.58519e-10
-0.00106246
1.24823e-09
-1.19428e-06
2.23571e-07
-2.24205e-07
-8.35591e-07
1.99558e-07
-2.00788e-07
8.35436e-07
-6.74386e-10
1.24626e-09
0.00106226
-2.18752e-07
1.19043e-06
2.18139e-07
8.32793e-07
-1.98071e-07
1.96835e-07
-8.3295e-07
-7.09993e-10
-0.00106311
1.21535e-09
-1.16132e-06
2.18272e-07
-2.18886e-07
-8.32968e-07
1.96933e-07
8.32833e-07
-1.9815e-07
1.19043e-06
0.00106226
-6.69209e-10
-0.00106226
1.24566e-09
-1.189e-06
2.18139e-07
-2.18754e-07
-8.32949e-07
1.96839e-07
-1.98065e-07
8.32793e-07
-2.04388e-07
-2.11654e-07
0.000259513
-1.15747e-06
0.000261448
-0.000259513
2.05826e-07
2.13091e-07
-7.03456e-10
1.20323e-09
0.00106329
-2.16212e-07
1.15758e-06
2.1562e-07
8.30314e-07
-1.98153e-07
1.9693e-07
-8.3044e-07
-7.31429e-10
-0.00106278
1.20628e-09
-1.15603e-06
2.1556e-07
-2.16164e-07
-8.3279e-07
1.99535e-07
8.32719e-07
-2.0075e-07
1.15758e-06
0.00106329
-7.06204e-10
-0.00106329
1.19567e-09
-1.15614e-06
2.1562e-07
-2.16214e-07
-8.30437e-07
1.96937e-07
-1.98146e-07
8.30316e-07
-0.000259526
2.08131e-07
2.13301e-07
1.19683e-06
1.15876e-06
-2.04254e-07
-2.14341e-07
0.000259531
-1.19827e-06
-1.16019e-06
0.000261468
-0.000259531
2.05681e-07
2.15782e-07
1.26934e-09
0.00106234
-2.24157e-07
1.19827e-06
2.23527e-07
8.35374e-07
-1.95432e-07
-8.35535e-07
1.94181e-07
-1.19957e-06
-6.57337e-10
1.25472e-09
0.00106278
-2.24225e-07
1.201e-06
2.23592e-07
8.40908e-07
-2.00829e-07
-8.41062e-07
1.99592e-07
0.00106234
-6.61131e-10
-0.00106234
1.26688e-09
-1.19683e-06
2.23522e-07
-2.24159e-07
-8.35527e-07
1.94185e-07
-1.95431e-07
8.35381e-07
1.201e-06
0.00106278
-6.5963e-10
-0.00106278
1.25925e-09
-1.19957e-06
2.23587e-07
-2.24224e-07
-8.41065e-07
1.99597e-07
-2.0083e-07
8.40909e-07
-2.06908e-07
-2.11691e-07
0.000259549
-1.16277e-06
0.000261491
-0.000259549
2.08356e-07
2.13128e-07
1.21917e-09
0.00106338
-2.18917e-07
1.16019e-06
2.18311e-07
8.35519e-07
-2.00835e-07
-8.35638e-07
1.99614e-07
-1.19429e-06
-6.5441e-10
1.2607e-09
0.00106246
-2.24207e-07
1.19571e-06
2.23572e-07
8.35433e-07
-2.00787e-07
-8.35591e-07
1.99556e-07
0.00106338
-7.19737e-10
-0.00106338
1.20459e-09
-1.15875e-06