/*--------------------------------*- C++ -*----------------------------------*\
| =========                 |                                                 |
| \\      /  F ield         | OpenFOAM: The Open Source CFD Toolbox           |
|  \\    /   O peration     | Version:  2206                                  |
|   \\  /    A nd           | Website:  www.openfoam.com                      |
|    \\/     M anipulation  |                                                 |
\*---------------------------------------------------------------------------*/
FoamFile
{
    version     2.0;
    format      ascii;
    arch        "LSB;label=32;scalar=64";
    class       volVectorField;
    location    "7";
    object      U;
}
// * * * * * * * * * * * * * * * * * * * * * * * * * * * * * * * * * * * * * //

dimensions      [0 1 -1 0 0 0 0];

internalField   nonuniform List<vector> 
28687
(
(-3.31883e-07 -3.36542e-07 0.100932)
(-1.63989e-07 3.16119e-07 0.100931)
(3.47112e-07 -1.73587e-07 0.100931)
(-3.35929e-05 -3.36093e-05 0.100929)
(-2.9171e-07 -2.80595e-07 0.100932)
(-2.56846e-07 4.14387e-07 0.100931)
(3.94371e-07 -2.45542e-07 0.100931)
(-3.36551e-05 -3.36581e-05 0.100929)
(-2.90009e-07 -2.90503e-07 0.100932)
(-2.26419e-07 3.74411e-07 0.100931)
(3.77329e-07 -2.29919e-07 0.100931)
(-3.36692e-05 -3.36862e-05 0.100929)
(-3.0671e-07 -3.02504e-07 0.100932)
(-2.06233e-07 3.7155e-07 0.100931)
(3.65629e-07 -2.0798e-07 0.100931)
(-3.36458e-05 -3.36607e-05 0.100929)
(-3.06918e-07 -3.04398e-07 0.100932)
(-2.06131e-07 3.68057e-07 0.100931)
(3.65066e-07 -2.07189e-07 0.100931)
(-3.36446e-05 -3.36599e-05 0.100929)
(-3.07123e-07 -3.02809e-07 0.100932)
(-2.05012e-07 3.69471e-07 0.100931)
(3.64418e-07 -2.05211e-07 0.100931)
(-3.36442e-05 -3.36588e-05 0.100929)
(-3.04661e-07 -2.94267e-07 0.100932)
(-2.04533e-07 3.82552e-07 0.100931)
(3.64035e-07 -2.02894e-07 0.100931)
(-3.36436e-05 -3.36566e-05 0.100929)
(-2.98568e-07 -2.97924e-07 0.100932)
(-2.02112e-07 3.55046e-07 0.100931)
(3.65166e-07 -2.02535e-07 0.100931)
(-3.36443e-05 -3.36574e-05 0.100929)
(-2.95612e-07 -3.00879e-07 0.100932)
(-2.04629e-07 3.65401e-07 0.100931)
(3.6514e-07 -2.04715e-07 0.100931)
(-3.36424e-05 -3.36582e-05 0.100929)
(-3.04509e-07 -3.05783e-07 0.100932)
(-2.06958e-07 3.65049e-07 0.100931)
(3.65371e-07 -2.06399e-07 0.100931)
(-3.36436e-05 -3.36595e-05 0.100929)
(-3.05973e-07 -3.05353e-07 0.100932)
(-2.05487e-07 3.65061e-07 0.100931)
(3.6514e-07 -2.06985e-07 0.100931)
(-3.36439e-05 -3.36599e-05 0.100929)
(-3.06224e-07 -3.05045e-07 0.100932)
(-2.06543e-07 3.66104e-07 0.100931)
(3.65513e-07 -2.0784e-07 0.100931)
(-3.36441e-05 -3.36605e-05 0.100929)
(-3.06445e-07 -3.04937e-07 0.100932)
(-2.05668e-07 3.65285e-07 0.100931)
(3.64599e-07 -2.06903e-07 0.100931)
(-3.36442e-05 -3.36603e-05 0.100929)
(-3.06744e-07 -3.05326e-07 0.100932)
(-2.05046e-07 3.65049e-07 0.100931)
(3.64586e-07 -2.06526e-07 0.100931)
(-3.36434e-05 -3.36593e-05 0.100929)
(-3.06703e-07 -3.05382e-07 0.100932)
(-2.04624e-07 3.64546e-07 0.100931)
(3.64087e-07 -2.06105e-07 0.100931)
(-3.36436e-05 -3.36594e-05 0.100929)
(-3.07391e-07 -3.05958e-07 0.100932)
(-2.04132e-07 3.63971e-07 0.100931)
(3.63422e-07 -2.05483e-07 0.100931)
(-3.36428e-05 -3.36585e-05 0.100929)
(-3.08058e-07 -3.05614e-07 0.100932)
(-2.05215e-07 3.65013e-07 0.100931)
(3.63428e-07 -2.05942e-07 0.100931)
(-3.36437e-05 -3.36587e-05 0.100929)
(-3.19329e-07 -3.14672e-07 0.100932)
(-2.01525e-07 3.62013e-07 0.100931)
(3.52584e-07 -1.89896e-07 0.100931)
(-3.363e-05 -3.36415e-05 0.100929)
(-3.55176e-07 1.87208e-07 0.100931)
(3.47567e-05 -3.47368e-05 0.100929)
(-1.77769e-07 3.4242e-07 0.100931)
(3.3604e-05 3.35812e-05 0.100929)
(-3.47669e-05 -3.47292e-05 0.100929)
(3.58077e-07 1.76959e-07 0.100931)
(-3.26228e-07 1.55464e-07 0.100931)
(3.47909e-07 1.91324e-07 0.100931)
(-4.18478e-07 2.58451e-07 0.100931)
(-3.36009e-05 3.35692e-05 0.100929)
(3.46932e-05 -3.46519e-05 0.100929)
(1.73908e-07 3.49638e-07 0.100931)
(1.8063e-07 -3.54393e-07 0.100931)
(1.719e-07 3.61725e-07 0.100931)
(1.87113e-07 -3.6325e-07 0.100931)
(-1.80329e-07 -3.53341e-07 0.100931)
(-2.09944e-07 4.13878e-07 0.100931)
(-1.93768e-07 -3.48451e-07 0.100931)
(3.35818e-05 -3.36145e-05 0.100929)
(-3.47322e-05 3.47642e-05 0.100929)
(-3.44141e-07 -1.73942e-07 0.100931)
(3.54995e-07 -1.77082e-07 0.100931)
(-3.57475e-07 -1.7564e-07 0.100931)
(3.47331e-05 3.47641e-05 0.100929)
(3.36499e-05 3.36464e-05 0.100929)
(-3.46961e-05 -3.46809e-05 0.100929)
(3.91904e-07 2.61704e-07 0.100931)
(-4.24211e-07 2.86352e-07 0.100931)
(3.97154e-07 2.47872e-07 0.100931)
(-3.85831e-07 2.43684e-07 0.100931)
(-3.37183e-05 3.37012e-05 0.100929)
(3.47166e-05 -3.46906e-05 0.100929)
(2.41248e-07 4.05217e-07 0.100931)
(2.53562e-07 -4.02362e-07 0.100931)
(2.43782e-07 3.89463e-07 0.100931)
(2.51017e-07 -3.9269e-07 0.100931)
(-2.59216e-07 -3.89157e-07 0.100931)
(-2.40388e-07 3.78108e-07 0.100931)
(-2.50968e-07 -3.92735e-07 0.100931)
(3.36386e-05 -3.36701e-05 0.100929)
(-3.46785e-05 3.47095e-05 0.100929)
(-3.96964e-07 -2.43582e-07 0.100931)
(3.83851e-07 -2.42571e-07 0.100931)
(-3.83791e-07 -2.43603e-07 0.100931)
(3.4684e-05 3.47007e-05 0.100929)
(3.36809e-05 3.36633e-05 0.100929)
(-3.47324e-05 -3.47123e-05 0.100929)
(3.87497e-07 2.36973e-07 0.100931)
(-3.82597e-07 2.34135e-07 0.100931)
(3.71675e-07 2.16216e-07 0.100931)
(-3.88584e-07 2.34127e-07 0.100931)
(-3.36739e-05 3.36487e-05 0.100929)
(3.47352e-05 -3.46934e-05 0.100929)
(2.31195e-07 3.80993e-07 0.100931)
(2.36711e-07 -3.85267e-07 0.100931)
(2.07479e-07 3.68768e-07 0.100931)
(2.16062e-07 -3.73576e-07 0.100931)
(-2.36172e-07 -3.85609e-07 0.100931)
(-2.07311e-07 3.77679e-07 0.100931)
(-2.15529e-07 -3.70956e-07 0.100931)
(3.3657e-05 -3.36905e-05 0.100929)
(-3.47088e-05 3.47413e-05 0.100929)
(-3.76547e-07 -2.29075e-07 0.100931)
(3.65247e-07 -2.07142e-07 0.100931)
(-3.64392e-07 -2.06529e-07 0.100931)
(3.47157e-05 3.47342e-05 0.100929)
(3.36525e-05 3.36398e-05 0.100929)
(-3.47317e-05 -3.47137e-05 0.100929)
(3.70461e-07 2.18039e-07 0.100931)
(-3.79498e-07 2.20719e-07 0.100931)
(3.72569e-07 2.11364e-07 0.100931)
(-3.74873e-07 2.1507e-07 0.100931)
(-3.36592e-05 3.3649e-05 0.100929)
(3.47377e-05 -3.47153e-05 0.100929)
(2.08778e-07 3.69205e-07 0.100931)
(2.14881e-07 -3.72938e-07 0.100931)
(2.05163e-07 3.66837e-07 0.100931)
(2.13084e-07 -3.71375e-07 0.100931)
(-2.15149e-07 -3.71174e-07 0.100931)
(-2.05373e-07 3.68083e-07 0.100931)
(-2.13029e-07 -3.69554e-07 0.100931)
(3.36339e-05 -3.36662e-05 0.100929)
(-3.47103e-05 3.47429e-05 0.100929)
(-3.65026e-07 -2.06226e-07 0.100931)
(3.63297e-07 -2.0439e-07 0.100931)
(-3.62533e-07 -2.03693e-07 0.100931)
(3.47172e-05 3.47353e-05 0.100929)
(3.36528e-05 3.36382e-05 0.100929)
(-3.47334e-05 -3.47137e-05 0.100929)
(3.71945e-07 2.18128e-07 0.100931)
(-3.75101e-07 2.15571e-07 0.100931)
(3.71645e-07 2.10279e-07 0.100931)
(-3.73254e-07 2.14388e-07 0.100931)
(-3.36546e-05 3.36308e-05 0.100929)
(3.47391e-05 -3.47149e-05 0.100929)
(2.08047e-07 3.67932e-07 0.100931)
(2.13898e-07 -3.72091e-07 0.100931)
(2.04351e-07 3.66796e-07 0.100931)
(2.12642e-07 -3.69988e-07 0.100931)
(-2.13915e-07 -3.70992e-07 0.100931)
(-2.04638e-07 3.6791e-07 0.100931)
(-2.12198e-07 -3.68172e-07 0.100931)
(3.36329e-05 -3.36651e-05 0.100929)
(-3.47108e-05 3.47443e-05 0.100929)
(-3.64015e-07 -2.04952e-07 0.100931)
(3.62928e-07 -2.03324e-07 0.100931)
(-3.617e-07 -2.02439e-07 0.100931)
(3.4718e-05 3.47366e-05 0.100929)
(3.36519e-05 3.36375e-05 0.100929)
(-3.47361e-05 -3.47005e-05 0.100929)
(3.69806e-07 2.1874e-07 0.100931)
(-3.7423e-07 2.16909e-07 0.100931)
(3.75888e-07 2.21964e-07 0.100931)
(-3.76269e-07 2.23694e-07 0.100931)
(-3.36535e-05 3.36334e-05 0.100929)
(3.47391e-05 -3.46967e-05 0.100929)
(2.07011e-07 3.6896e-07 0.100931)
(2.13594e-07 -3.70067e-07 0.100931)
(2.02428e-07 3.74601e-07 0.100931)
(2.125e-07 -3.67023e-07 0.100931)
(-2.13064e-07 -3.68761e-07 0.100931)
(-2.03133e-07 3.76763e-07 0.100931)
(-2.11422e-07 -3.64705e-07 0.100931)
(3.36326e-05 -3.36638e-05 0.100929)
(-3.47114e-05 3.47467e-05 0.100929)
(-3.62701e-07 -2.03134e-07 0.100931)
(3.62507e-07 -2.00658e-07 0.100931)
(-3.60213e-07 -2.00029e-07 0.100931)
(3.47188e-05 3.4739e-05 0.100929)
(3.3653e-05 3.36571e-05 0.100929)
(-3.47386e-05 -3.47057e-05 0.100929)
(3.75112e-07 2.31295e-07 0.100931)
(-3.833e-07 2.36476e-07 0.100931)
(3.74559e-07 2.11616e-07 0.100931)
(-3.69904e-07 2.19455e-07 0.100931)
(-3.36593e-05 3.36533e-05 0.100929)
(3.4745e-05 -3.47067e-05 0.10093)
(2.05413e-07 3.78621e-07 0.100931)
(2.12904e-07 -3.66995e-07 0.100931)
(2.03716e-07 3.72032e-07 0.100931)
(2.12158e-07 -3.66924e-07 0.100931)
(-2.14022e-07 -3.66242e-07 0.100931)
(-2.01964e-07 3.64183e-07 0.100931)
(-2.17863e-07 -3.66086e-07 0.100931)
(3.36324e-05 -3.36619e-05 0.100929)
(-3.47108e-05 3.4746e-05 0.100929)
(-3.61868e-07 -2.03265e-07 0.100931)
(3.63335e-07 -2.00016e-07 0.100931)
(-3.59623e-07 -2.09343e-07 0.100931)
(3.47172e-05 3.47381e-05 0.100929)
(3.3656e-05 3.36476e-05 0.100929)
(-3.47448e-05 -3.47059e-05 0.100929)
(3.81551e-07 2.1967e-07 0.100931)
(-3.5853e-07 2.07983e-07 0.100931)
(3.75994e-07 2.20222e-07 0.100931)
(-3.76338e-07 2.23107e-07 0.100931)
(-3.36403e-05 3.36232e-05 0.100929)
(3.47349e-05 -3.47098e-05 0.100929)
(2.08837e-07 3.72124e-07 0.100931)
(2.13215e-07 -3.68372e-07 0.100931)
(2.07322e-07 3.60383e-07 0.100931)
(2.12853e-07 -3.68558e-07 0.100931)
(-2.1827e-07 -3.68111e-07 0.100931)
(-2.07419e-07 3.68763e-07 0.100931)
(-2.0962e-07 -3.6776e-07 0.100931)
(3.36327e-05 -3.36626e-05 0.100929)
(-3.47108e-05 3.4745e-05 0.100929)
(-3.60589e-07 -2.11524e-07 0.100931)
(3.63676e-07 -2.013e-07 0.100931)
(-3.59603e-07 -2.02684e-07 0.100931)
(3.47195e-05 3.47371e-05 0.100929)
(3.36535e-05 3.36382e-05 0.100929)
(-3.47416e-05 -3.47079e-05 0.100929)
(3.81418e-07 2.2749e-07 0.100931)
(-3.66145e-07 2.05492e-07 0.100931)
(3.72726e-07 2.13364e-07 0.100931)
(-3.71542e-07 2.12509e-07 0.100931)
(-3.36528e-05 3.36274e-05 0.100929)
(3.47386e-05 -3.47145e-05 0.100929)
(2.12233e-07 3.67812e-07 0.100931)
(2.13761e-07 -3.69581e-07 0.100931)
(2.0518e-07 3.65834e-07 0.100931)
(2.12362e-07 -3.70756e-07 0.100931)
(-2.1145e-07 -3.69215e-07 0.100931)
(-2.06592e-07 3.65138e-07 0.100931)
(-2.11762e-07 -3.68706e-07 0.100931)
(3.36322e-05 -3.3663e-05 0.100929)
(-3.47108e-05 3.47435e-05 0.100929)
(-3.61706e-07 -2.04385e-07 0.100931)
(3.63416e-07 -2.02989e-07 0.100931)
(-3.61089e-07 -2.0393e-07 0.100931)
(3.47181e-05 3.47359e-05 0.100929)
(3.36581e-05 3.36327e-05 0.100929)
(-3.47405e-05 -3.4709e-05 0.100929)
(3.7351e-07 2.11443e-07 0.100931)
(-3.73473e-07 2.14396e-07 0.100931)
(3.7282e-07 2.12184e-07 0.100931)
(-3.73553e-07 2.14348e-07 0.100931)
(-3.36539e-05 3.363e-05 0.100929)
(3.47372e-05 -3.47142e-05 0.100929)
(2.07504e-07 3.66231e-07 0.100931)
(2.13357e-07 -3.72171e-07 0.100931)
(2.04879e-07 3.64368e-07 0.100931)
(2.128e-07 -3.71463e-07 0.100931)
(-2.13032e-07 -3.7083e-07 0.100931)
(-2.04986e-07 3.65147e-07 0.100931)
(-2.12025e-07 -3.69776e-07 0.100931)
(3.36325e-05 -3.36648e-05 0.100929)
(-3.47106e-05 3.47429e-05 0.100929)
(-3.6312e-07 -2.0497e-07 0.100931)
(3.63451e-07 -2.04268e-07 0.100931)
(-3.61652e-07 -2.04e-07 0.100931)
(3.47179e-05 3.47352e-05 0.100929)
(3.36592e-05 3.36321e-05 0.100929)
(-3.47398e-05 -3.47085e-05 0.100929)
(3.73671e-07 2.11598e-07 0.100931)
(-3.73962e-07 2.14857e-07 0.100931)
(3.73838e-07 2.13552e-07 0.100931)
(-3.74481e-07 2.15109e-07 0.100931)
(-3.36544e-05 3.36308e-05 0.100929)
(3.47365e-05 -3.47135e-05 0.100929)
(2.08795e-07 3.65817e-07 0.100931)
(2.13939e-07 -3.72301e-07 0.100931)
(2.05366e-07 3.64927e-07 0.100931)
(2.13447e-07 -3.71902e-07 0.100931)
(-2.12755e-07 -3.70984e-07 0.100931)
(-2.0526e-07 3.65605e-07 0.100931)
(-2.12506e-07 -3.69952e-07 0.100931)
(3.36327e-05 -3.36652e-05 0.100929)
(-3.471e-05 3.47425e-05 0.100929)
(-3.62894e-07 -2.04684e-07 0.100931)
(3.63745e-07 -2.04855e-07 0.100931)
(-3.6165e-07 -2.02993e-07 0.100931)
(3.47178e-05 3.4735e-05 0.100929)
(3.36598e-05 3.36324e-05 0.100929)
(-3.474e-05 -3.47087e-05 0.100929)
(3.74037e-07 2.12179e-07 0.100931)
(-3.75248e-07 2.15906e-07 0.100931)
(3.73204e-07 2.13351e-07 0.100931)
(-3.74323e-07 2.1489e-07 0.100931)
(-3.36551e-05 3.36316e-05 0.100929)
(3.47365e-05 -3.47135e-05 0.100929)
(2.08583e-07 3.65904e-07 0.100931)
(2.14458e-07 -3.72747e-07 0.100931)
(2.04711e-07 3.64374e-07 0.100931)
(2.12954e-07 -3.71482e-07 0.100931)
(-2.14227e-07 -3.72106e-07 0.100931)
(-2.05209e-07 3.65512e-07 0.100931)
(-2.1239e-07 -3.70058e-07 0.100931)
(3.36332e-05 -3.36655e-05 0.100929)
(-3.47103e-05 3.47427e-05 0.100929)
(-3.63911e-07 -2.06054e-07 0.100931)
(3.63256e-07 -2.04694e-07 0.100931)
(-3.61946e-07 -2.0465e-07 0.100931)
(3.47175e-05 3.47347e-05 0.100929)
(3.36596e-05 3.36323e-05 0.100929)
(-3.47405e-05 -3.47091e-05 0.100929)
(3.73593e-07 2.12021e-07 0.100931)
(-3.74468e-07 2.15178e-07 0.100931)
(3.73126e-07 2.12942e-07 0.100931)
(-3.73813e-07 2.14245e-07 0.100931)
(-3.36549e-05 3.36314e-05 0.100929)
(3.47373e-05 -3.47142e-05 0.100929)
(2.07974e-07 3.65467e-07 0.100931)
(2.135e-07 -3.71944e-07 0.100931)
(2.04288e-07 3.6427e-07 0.100931)
(2.12309e-07 -3.71091e-07 0.100931)
(-2.12873e-07 -3.71312e-07 0.100931)
(-2.04256e-07 3.64962e-07 0.100931)
(-2.11264e-07 -3.69311e-07 0.100931)
(3.36328e-05 -3.36653e-05 0.100929)
(-3.47109e-05 3.47433e-05 0.100929)
(-3.63247e-07 -2.0584e-07 0.100931)
(3.62794e-07 -2.03781e-07 0.100931)
(-3.61217e-07 -2.03849e-07 0.100931)
(3.47181e-05 3.47355e-05 0.100929)
(3.36587e-05 3.36316e-05 0.100929)
(-3.47406e-05 -3.47091e-05 0.100929)
(3.73267e-07 2.11329e-07 0.100931)
(-3.74306e-07 2.1472e-07 0.100931)
(3.72597e-07 2.12419e-07 0.100931)
(-3.73373e-07 2.13887e-07 0.100931)
(-3.36541e-05 3.36306e-05 0.100929)
(3.47374e-05 -3.47142e-05 0.100929)
(2.07379e-07 3.65126e-07 0.100931)
(2.13281e-07 -3.71927e-07 0.100931)
(2.0394e-07 3.63753e-07 0.100931)
(2.1211e-07 -3.70694e-07 0.100931)
(-2.12166e-07 -3.70761e-07 0.100931)
(-2.03881e-07 3.64578e-07 0.100931)
(-2.10994e-07 -3.69032e-07 0.100931)
(3.36322e-05 -3.36646e-05 0.100929)
(-3.47111e-05 3.47435e-05 0.100929)
(-3.62768e-07 -2.05181e-07 0.100931)
(3.62585e-07 -2.03598e-07 0.100931)
(-3.61111e-07 -2.03647e-07 0.100931)
(3.47179e-05 3.47354e-05 0.100929)
(3.36587e-05 3.36317e-05 0.100929)
(-3.47411e-05 -3.47096e-05 0.100929)
(3.72972e-07 2.11059e-07 0.100931)
(-3.73712e-07 2.14258e-07 0.100931)
(3.7203e-07 2.11537e-07 0.100931)
(-3.72961e-07 2.12962e-07 0.100931)
(-3.36539e-05 3.36303e-05 0.100929)
(3.47376e-05 -3.47147e-05 0.100929)
(2.07286e-07 3.64945e-07 0.100931)
(2.12866e-07 -3.71387e-07 0.100931)
(2.03096e-07 3.63409e-07 0.100931)
(2.11254e-07 -3.70315e-07 0.100931)
(-2.12161e-07 -3.70861e-07 0.100931)
(-2.03301e-07 3.64065e-07 0.100931)
(-2.10259e-07 -3.68372e-07 0.100931)
(3.36318e-05 -3.36643e-05 0.100929)
(-3.47114e-05 3.47436e-05 0.100929)
(-3.6297e-07 -2.05281e-07 0.100931)
(3.62107e-07 -2.0301e-07 0.100931)
(-3.60586e-07 -2.02727e-07 0.100931)
(3.47187e-05 3.47363e-05 0.100929)
(3.3658e-05 3.3631e-05 0.100929)
(-3.47412e-05 -3.47095e-05 0.100929)
(3.71913e-07 2.09953e-07 0.100931)
(-3.73248e-07 2.13289e-07 0.100931)
(3.72041e-07 2.12561e-07 0.100931)
(-3.74531e-07 2.13759e-07 0.100931)
(-3.36535e-05 3.36298e-05 0.100929)
(3.47363e-05 -3.4714e-05 0.100929)
(2.06157e-07 3.6407e-07 0.100931)
(2.11797e-07 -3.70762e-07 0.100931)
(2.03251e-07 3.63908e-07 0.100931)
(2.11572e-07 -3.70668e-07 0.100931)
(-2.11286e-07 -3.69914e-07 0.100931)
(-2.049e-07 3.64987e-07 0.100931)
(-2.12007e-07 -3.68704e-07 0.100931)
(3.36314e-05 -3.3664e-05 0.100929)
(-3.47116e-05 3.47436e-05 0.100929)
(-3.62187e-07 -2.04149e-07 0.100931)
(3.62229e-07 -2.0379e-07 0.100931)
(-3.62e-07 -2.0347e-07 0.100931)
(3.47178e-05 3.47361e-05 0.100929)
(3.3658e-05 3.36314e-05 0.100929)
(-3.47404e-05 -3.4707e-05 0.100929)
(3.72127e-07 2.11607e-07 0.100931)
(-3.74759e-07 2.14706e-07 0.100931)
(3.68731e-07 2.09369e-07 0.100931)
(-3.71901e-07 2.09852e-07 0.100931)
(-3.36543e-05 3.36301e-05 0.100929)
(3.47307e-05 -3.47113e-05 0.100929)
(2.06869e-07 3.64871e-07 0.100931)
(2.12267e-07 -3.70994e-07 0.100931)
(1.99024e-07 3.62019e-07 0.100931)
(2.07415e-07 -3.68058e-07 0.100931)
(-2.12596e-07 -3.70395e-07 0.100931)
(-2.0073e-07 3.61573e-07 0.100931)
(-2.08385e-07 -3.63834e-07 0.100931)
(3.36313e-05 -3.36641e-05 0.100929)
(-3.471e-05 3.4742e-05 0.100929)
(-3.63475e-07 -2.04822e-07 0.100931)
(3.59394e-07 -1.9913e-07 0.100931)
(-3.606e-07 -1.98258e-07 0.100931)
(3.47136e-05 3.47377e-05 0.100929)
(3.36419e-05 3.36167e-05 0.100929)
(3.59747e-07 1.95778e-07 0.100931)
(-3.76302e-07 2.03446e-07 0.100931)
(-3.36426e-05 3.3615e-05 0.100929)
(1.90113e-07 3.54604e-07 0.100931)
(1.9619e-07 -3.59946e-07 0.100931)
(-2.03829e-07 -3.57766e-07 0.100931)
(3.36156e-05 -3.36483e-05 0.100929)
(-3.55721e-07 -1.87062e-07 0.100931)
(-2.59319e-08 -5.26943e-06 0.100621)
(5.12524e-07 4.08844e-06 0.0984556)
(2.06521e-08 5.1552e-06 0.100621)
(-6.32505e-07 -4.66058e-06 0.0984572)
(-7.65799e-07 6.88587e-07 0.0928936)
(1.25512e-06 -1.66851e-06 0.0928963)
(-5.28516e-06 -3.90169e-08 0.100621)
(4.06462e-06 4.7507e-07 0.0984553)
(5.19167e-06 3.23539e-09 0.100621)
(-4.61835e-06 -6.00957e-07 0.0984573)
(3.54047e-07 -3.36041e-07 0.100932)
(-3.32304e-07 3.35017e-07 0.100932)
(3.34309e-07 3.28508e-07 0.100932)
(-3.40544e-07 -3.22845e-07 0.100932)
(2.92042e-07 -2.69093e-07 0.100932)
(-3.30414e-07 3.35017e-07 0.100932)
(3.24662e-07 3.36696e-07 0.100932)
(9.68903e-06 -5.62583e-08 0.10089)
(-8.00284e-06 2.34984e-06 0.10069)
(-2.05445e-07 -1.34953e-07 0.100932)
(-1.44633e-07 3.12411e-07 0.100931)
(-9.48297e-06 2.17763e-08 0.10089)
(8.05671e-06 -2.79229e-06 0.10069)
(-1.73145e-07 -1.39951e-07 0.100932)
(5.31887e-07 -6.92903e-07 0.0928911)
(-1.49029e-06 1.09449e-06 0.0928952)
(-4.83581e-08 9.69934e-06 0.10089)
(-1.24925e-07 -2.08316e-07 0.100932)
(2.46678e-06 -8.09346e-06 0.10069)
(3.17157e-07 -1.30913e-07 0.100931)
(3.33442e-08 -9.49285e-06 0.10089)
(-1.29312e-07 -1.59392e-07 0.100932)
(-2.74918e-06 8.03841e-06 0.10069)
(-2.63346e-06 -3.01288e-06 0.100283)
(-3.00444e-06 -2.63025e-06 0.100283)
(3.47437e-05 3.47645e-05 0.100929)
(2.32889e-06 3.05265e-06 0.100284)
(3.04491e-06 2.32733e-06 0.100284)
(5.05484e-08 -5.1432e-06 0.100621)
(7.25967e-07 4.17667e-06 0.0984565)
(-9.69377e-08 5.1354e-06 0.10062)
(-8.89178e-07 -3.52017e-06 0.0984575)
(-1.72474e-06 2.19831e-06 0.0928973)
(6.77999e-07 -5.75997e-07 0.0928942)
(-5.16714e-06 3.03223e-08 0.100621)
(4.13397e-06 7.20849e-07 0.0984561)
(5.12042e-06 2.85917e-09 0.10062)
(-3.49784e-06 -8.53277e-07 0.0984575)
(2.53829e-07 -2.40349e-07 0.100932)
(-2.86062e-07 2.88993e-07 0.100932)
(2.81096e-07 2.88368e-07 0.100932)
(-2.79224e-07 -2.79481e-07 0.100932)
(2.90688e-07 -2.88295e-07 0.100932)
(-2.77858e-07 2.79848e-07 0.100932)
(2.78101e-07 2.7651e-07 0.100932)
(9.18659e-06 -2.74302e-08 0.10089)
(-8.23405e-06 2.70711e-06 0.100689)
(-3.01031e-07 -6.61101e-08 0.100932)
(-2.7051e-07 3.96783e-07 0.100931)
(-9.53929e-06 9.79594e-08 0.10089)
(7.66392e-06 -2.34303e-06 0.10069)
(-3.41842e-07 -8.92328e-08 0.100932)
(8.34738e-07 -8.94623e-07 0.0928973)
(4.3431e-08 3.08498e-07 0.0928963)
(-1.61221e-08 9.19548e-06 0.10089)
(-1.13326e-07 -2.86368e-07 0.100932)
(2.37714e-06 -8.08324e-06 0.100689)
(4.0245e-07 -2.68564e-07 0.100931)
(2.43618e-08 -9.53037e-06 0.10089)
(-9.57725e-08 -3.33216e-07 0.100932)
(-2.24891e-06 7.63537e-06 0.10069)
(-2.65523e-06 -2.99126e-06 0.100282)
(-2.98466e-06 -2.64823e-06 0.100282)
(3.46408e-05 3.4665e-05 0.100929)
(2.80394e-06 2.7542e-06 0.100284)
(2.73812e-06 2.80308e-06 0.100283)
(-1.4158e-08 -5.21707e-06 0.100621)
(6.10381e-07 4.44897e-06 0.0984556)
(2.2137e-08 5.17083e-06 0.100621)
(-7.03714e-07 -4.30521e-06 0.0984567)
(-9.9556e-07 1.14939e-06 0.0928921)
(9.25586e-07 -1.11726e-06 0.0928933)
(-5.24633e-06 -1.24901e-08 0.100621)
(4.42223e-06 5.74673e-07 0.0984552)
(5.20338e-06 1.3886e-08 0.100621)
(-4.27292e-06 -6.73585e-07 0.0984567)
(2.96314e-07 -2.94091e-07 0.100932)
(-2.88851e-07 2.9027e-07 0.100932)
(2.88352e-07 2.87039e-07 0.100932)
(-3.04714e-07 -3.01211e-07 0.100932)
(3.00154e-07 -2.96101e-07 0.100932)
(-3.02344e-07 3.04059e-07 0.100932)
(3.01896e-07 3.02925e-07 0.100932)
(9.49435e-06 -4.6266e-08 0.10089)
(-8.15051e-06 2.5119e-06 0.10069)
(-2.82893e-07 -1.13828e-07 0.100932)
(-2.15744e-07 3.75917e-07 0.100931)
(-9.63593e-06 3.62123e-08 0.10089)
(7.86765e-06 -2.5748e-06 0.100691)
(-2.65941e-07 -1.1235e-07 0.100932)
(1.16202e-06 -1.00616e-06 0.092891)
(-1.0858e-06 9.25538e-07 0.0928929)
(-3.85853e-08 9.50027e-06 0.10089)
(-1.09125e-07 -2.86356e-07 0.100932)
(2.55416e-06 -8.18418e-06 0.10069)
(3.70976e-07 -2.16253e-07 0.100931)
(4.22722e-08 -9.64551e-06 0.10089)
(-1.12622e-07 -2.64017e-07 0.100932)
(-2.59132e-06 7.8818e-06 0.100691)
(-2.54617e-06 -3.04287e-06 0.100283)
(-3.03511e-06 -2.54163e-06 0.100283)
(3.4706e-05 3.47233e-05 0.100929)
(2.48926e-06 2.94709e-06 0.100284)
(2.9405e-06 2.48463e-06 0.100284)
(-1.13472e-08 -5.2261e-06 0.100621)
(6.23108e-07 4.39616e-06 0.0984555)
(-3.9379e-09 5.14221e-06 0.100621)
(-7.03673e-07 -4.31709e-06 0.0984567)
(-1.08013e-06 1.18404e-06 0.0928922)
(9.26728e-07 -1.12476e-06 0.0928932)
(-5.25514e-06 -1.1536e-08 0.100621)
(4.36791e-06 5.90843e-07 0.0984551)
(5.16795e-06 7.79312e-09 0.100621)
(-4.28648e-06 -6.76033e-07 0.0984567)
(3.00082e-07 -2.97828e-07 0.100932)
(-3.03862e-07 3.05129e-07 0.100932)
(3.02353e-07 3.03893e-07 0.100932)
(-3.06448e-07 -3.04037e-07 0.100932)
(3.04886e-07 -3.04302e-07 0.100932)
(-3.0435e-07 3.06037e-07 0.100932)
(3.04025e-07 3.05039e-07 0.100932)
(9.50696e-06 -4.38237e-08 0.10089)
(-8.1141e-06 2.5018e-06 0.10069)
(-2.52472e-07 -1.08097e-07 0.100932)
(-2.04644e-07 3.67875e-07 0.100931)
(-9.58154e-06 4.4541e-08 0.10089)
(7.87428e-06 -2.5792e-06 0.100691)
(-2.49335e-07 -1.11087e-07 0.100932)
(1.09708e-06 -9.93408e-07 0.092891)
(-1.08754e-06 9.20356e-07 0.092893)
(-3.9645e-08 9.5146e-06 0.10089)
(-1.14797e-07 -2.51946e-07 0.100932)
(2.51179e-06 -8.13753e-06 0.10069)
(3.64423e-07 -2.04659e-07 0.100931)
(3.6383e-08 -9.58767e-06 0.10089)
(-1.1526e-07 -2.45068e-07 0.100932)
(-2.59509e-06 7.89192e-06 0.10069)
(-2.54313e-06 -3.0233e-06 0.100283)
(-3.0167e-06 -2.53834e-06 0.100283)
(3.47142e-05 3.47329e-05 0.100929)
(2.49447e-06 2.94965e-06 0.100284)
(2.94202e-06 2.49046e-06 0.100284)
(-1.00411e-08 -5.2275e-06 0.100621)
(6.22186e-07 4.39932e-06 0.0984555)
(3.90013e-09 5.13867e-06 0.100621)
(-7.01743e-07 -4.31437e-06 0.0984567)
(-1.03327e-06 1.16076e-06 0.092892)
(9.37937e-07 -1.12624e-06 0.0928933)
(-5.25586e-06 -1.13594e-08 0.100621)
(4.3684e-06 5.90914e-07 0.0984551)
(5.16611e-06 7.91019e-09 0.100621)
(-4.28569e-06 -6.75807e-07 0.0984567)
(3.04846e-07 -3.04535e-07 0.100932)
(-3.04735e-07 3.0599e-07 0.100932)
(3.03442e-07 3.04501e-07 0.100932)
(-3.06517e-07 -3.03121e-07 0.100932)
(3.05469e-07 -3.03797e-07 0.100932)
(-3.04529e-07 3.07118e-07 0.100932)
(3.04207e-07 3.06188e-07 0.100932)
(9.50801e-06 -4.44737e-08 0.10089)
(-8.11483e-06 2.4965e-06 0.10069)
(-2.5076e-07 -1.13194e-07 0.100932)
(-2.04859e-07 3.68637e-07 0.100931)
(-9.58e-06 4.31189e-08 0.10089)
(7.87443e-06 -2.57825e-06 0.100691)
(-2.48462e-07 -1.1361e-07 0.100932)
(1.09925e-06 -9.92984e-07 0.092891)
(-1.08659e-06 9.21028e-07 0.092893)
(-3.92599e-08 9.51551e-06 0.10089)
(-1.14792e-07 -2.50433e-07 0.100932)
(2.51196e-06 -8.13657e-06 0.10069)
(3.64039e-07 -2.03819e-07 0.100931)
(3.6648e-08 -9.58631e-06 0.10089)
(-1.15045e-07 -2.44164e-07 0.100932)
(-2.59516e-06 7.89274e-06 0.10069)
(-2.54298e-06 -3.02357e-06 0.100283)
(-3.01722e-06 -2.5384e-06 0.100283)
(3.47146e-05 3.4733e-05 0.100929)
(2.49454e-06 2.95014e-06 0.100284)
(2.94262e-06 2.49096e-06 0.100284)
(-1.09382e-08 -5.22451e-06 0.100621)
(6.18542e-07 4.38965e-06 0.0984555)
(3.31031e-09 5.13991e-06 0.100621)
(-6.99892e-07 -4.30832e-06 0.0984567)
(-9.95214e-07 1.1126e-06 0.0928918)
(9.28102e-07 -1.1117e-06 0.0928935)
(-5.25551e-06 -8.91231e-09 0.100621)
(4.36812e-06 5.93127e-07 0.0984551)
(5.16705e-06 8.99088e-09 0.100621)
(-4.28667e-06 -6.72064e-07 0.0984567)
(3.05143e-07 -3.02136e-07 0.100932)
(-3.04574e-07 3.07667e-07 0.100932)
(3.03862e-07 3.06219e-07 0.100932)
(-3.05062e-07 -2.95995e-07 0.100932)
(3.04304e-07 -2.95255e-07 0.100932)
(-3.04082e-07 3.1023e-07 0.100932)
(3.04596e-07 3.08868e-07 0.100932)
(9.50838e-06 -4.17733e-08 0.10089)
(-8.11491e-06 2.49672e-06 0.10069)
(-2.49208e-07 -1.10894e-07 0.100932)
(-2.04044e-07 3.70991e-07 0.100931)
(-9.57986e-06 4.40886e-08 0.10089)
(7.87598e-06 -2.57387e-06 0.100691)
(-2.47164e-07 -1.10383e-07 0.100932)
(1.09948e-06 -9.92688e-07 0.092891)
(-1.08639e-06 9.21407e-07 0.092893)
(-3.91617e-08 9.51568e-06 0.10089)
(-1.14504e-07 -2.48261e-07 0.100932)
(2.51199e-06 -8.13649e-06 0.10069)
(3.63291e-07 -2.02043e-07 0.100931)
(3.70513e-08 -9.58605e-06 0.10089)
(-1.15013e-07 -2.41884e-07 0.100932)
(-2.59455e-06 7.89304e-06 0.10069)
(-2.54256e-06 -3.02339e-06 0.100283)
(-3.0177e-06 -2.53741e-06 0.100283)
(3.47157e-05 3.47352e-05 0.100929)
(2.49367e-06 2.95063e-06 0.100284)
(2.9421e-06 2.49092e-06 0.100284)
(2.25701e-09 -5.21826e-06 0.100621)
(6.79147e-07 4.41883e-06 0.0984554)
(9.85331e-09 5.14457e-06 0.100621)
(-5.49341e-07 -4.27407e-06 0.0984568)
(-1.13248e-06 1.24031e-06 0.092892)
(8.70072e-07 -1.07264e-06 0.0928932)
(-5.25487e-06 -4.87082e-09 0.100621)
(4.3656e-06 6.01235e-07 0.0984552)
(5.16587e-06 1.29757e-08 0.100621)
(-4.29006e-06 -6.65678e-07 0.0984567)
(3.02988e-07 -2.92034e-07 0.100932)
(-3.04395e-07 3.1081e-07 0.100932)
(3.0553e-07 3.0779e-07 0.100932)
(-2.98316e-07 -2.95001e-07 0.100932)
(3.0944e-07 -2.97553e-07 0.100932)
(-3.02355e-07 3.11167e-07 0.100932)
(3.1254e-07 3.02174e-07 0.100932)
(9.50956e-06 -3.85952e-08 0.10089)
(-8.11073e-06 2.51033e-06 0.10069)
(-2.49438e-07 -1.03731e-07 0.100932)
(-2.02947e-07 3.79236e-07 0.100931)
(-9.57887e-06 4.91022e-08 0.10089)
(7.8806e-06 -2.56269e-06 0.100691)
(-2.47908e-07 -1.03715e-07 0.100932)
(1.09977e-06 -9.91551e-07 0.092891)
(-1.08552e-06 9.22526e-07 0.092893)
(-3.83435e-08 9.51679e-06 0.10089)
(-1.14166e-07 -2.46073e-07 0.100932)
(2.51257e-06 -8.13519e-06 0.10069)
(3.63456e-07 -1.99846e-07 0.100931)
(3.72177e-08 -9.58488e-06 0.10089)
(-1.14367e-07 -2.40582e-07 0.100932)
(-2.59378e-06 7.89378e-06 0.100691)
(-2.54401e-06 -3.02157e-06 0.100283)
(-3.0169e-06 -2.53816e-06 0.100283)
(3.47153e-05 3.47364e-05 0.100929)
(2.49415e-06 2.94986e-06 0.100284)
(2.94112e-06 2.49121e-06 0.100284)
(9.42539e-09 -5.22583e-06 0.100621)
(6.41696e-07 4.39616e-06 0.0984555)
(1.35136e-08 5.14134e-06 0.100621)
(-6.86003e-07 -4.30928e-06 0.0984568)
(-9.70311e-07 1.11632e-06 0.0928921)
(1.07965e-06 -1.19759e-06 0.0928931)
(-5.25463e-06 -7.06256e-09 0.100621)
(4.37485e-06 6.01227e-07 0.0984552)
(5.16597e-06 1.28151e-08 0.100621)
(-4.30598e-06 -6.74844e-07 0.0984567)
(3.12613e-07 -3.05462e-07 0.100932)
(-3.02019e-07 3.10466e-07 0.100932)
(3.13059e-07 2.99847e-07 0.100932)
(-2.94131e-07 -2.98075e-07 0.100932)
(3.10918e-07 -3.04127e-07 0.100932)
(-3.02033e-07 3.07942e-07 0.100932)
(3.06761e-07 3.02936e-07 0.100932)
(9.50781e-06 -4.83054e-08 0.10089)
(-8.11521e-06 2.48673e-06 0.10069)
(-2.48426e-07 -1.1479e-07 0.100932)
(-2.02004e-07 3.51212e-07 0.100931)
(-9.57998e-06 4.1871e-08 0.10089)
(7.87153e-06 -2.58967e-06 0.100691)
(-2.46176e-07 -1.19181e-07 0.100932)
(1.10006e-06 -9.91548e-07 0.092891)
(-1.08621e-06 9.21684e-07 0.092893)
(-3.83078e-08 9.51573e-06 0.10089)
(-1.13933e-07 -2.492e-07 0.100932)
(2.51316e-06 -8.13531e-06 0.10069)
(3.64746e-07 -2.00103e-07 0.100931)
(3.80539e-08 -9.58506e-06 0.10089)
(-1.14459e-07 -2.44339e-07 0.100932)
(-2.594e-06 7.89379e-06 0.100691)
(-2.54297e-06 -3.02295e-06 0.100283)
(-3.01611e-06 -2.53867e-06 0.100283)
(3.47156e-05 3.47349e-05 0.100929)
(2.49557e-06 2.94783e-06 0.100284)
(2.94174e-06 2.49134e-06 0.100284)
(1.03892e-08 -5.23133e-06 0.100621)
(6.85794e-07 4.42784e-06 0.0984555)
(2.02722e-08 5.14501e-06 0.100621)
(-6.66523e-07 -4.2692e-06 0.0984569)
(-9.73947e-07 9.66135e-07 0.0928922)
(9.01563e-07 -1.20148e-06 0.0928932)
(-5.25508e-06 -1.05059e-08 0.100621)
(4.4012e-06 6.02015e-07 0.0984553)
(5.16552e-06 8.63056e-09 0.100621)
(-4.32152e-06 -6.83375e-07 0.0984566)
(3.05667e-07 -3.02404e-07 0.100932)
(-3.03077e-07 3.06859e-07 0.100932)
(3.05789e-07 3.03142e-07 0.100932)
(-3.03567e-07 -3.04464e-07 0.100932)
(3.06393e-07 -3.026e-07 0.100932)
(-3.03944e-07 3.06334e-07 0.100932)
(3.05226e-07 3.0325e-07 0.100932)
(9.5077e-06 -4.55323e-08 0.10089)
(-8.11469e-06 2.50294e-06 0.10069)
(-2.48603e-07 -1.12557e-07 0.100932)
(-2.08519e-07 3.65634e-07 0.100931)
(-9.57942e-06 4.28082e-08 0.10089)
(7.87508e-06 -2.57433e-06 0.100691)
(-2.49165e-07 -1.14208e-07 0.100932)
(1.09944e-06 -9.92975e-07 0.092891)
(-1.08594e-06 9.21248e-07 0.092893)
(-3.88693e-08 9.51514e-06 0.10089)
(-1.14201e-07 -2.49055e-07 0.100932)
(2.51289e-06 -8.13575e-06 0.10069)
(3.63872e-07 -2.02125e-07 0.100931)
(3.76481e-08 -9.5855e-06 0.10089)
(-1.14973e-07 -2.42722e-07 0.100932)
(-2.59418e-06 7.89261e-06 0.100691)
(-2.54188e-06 -3.02456e-06 0.100283)
(-3.01618e-06 -2.53809e-06 0.100283)
(3.47154e-05 3.47338e-05 0.100929)
(2.49433e-06 2.94857e-06 0.100284)
(2.94147e-06 2.49014e-06 0.100284)
(-1.03653e-08 -5.22881e-06 0.100621)
(6.31499e-07 4.37894e-06 0.0984554)
(8.85607e-09 5.14092e-06 0.100621)
(-6.92486e-07 -4.28054e-06 0.0984568)
(-1.05485e-06 1.1519e-06 0.0928922)
(9.50397e-07 -1.14722e-06 0.0928935)
(-5.25462e-06 -1.28329e-08 0.100621)
(4.40023e-06 6.02421e-07 0.0984553)
(5.1663e-06 7.76063e-09 0.100621)
(-4.31192e-06 -6.82857e-07 0.0984567)
(3.05453e-07 -3.05617e-07 0.100932)
(-3.0428e-07 3.0533e-07 0.100932)
(3.04183e-07 3.03782e-07 0.100932)
(-3.06205e-07 -3.04303e-07 0.100932)
(3.0612e-07 -3.06064e-07 0.100932)
(-3.04201e-07 3.0554e-07 0.100932)
(3.04575e-07 3.04278e-07 0.100932)
(9.50859e-06 -4.5792e-08 0.10089)
(-8.11607e-06 2.49644e-06 0.10069)
(-2.49373e-07 -1.14197e-07 0.100932)
(-2.05113e-07 3.65723e-07 0.100931)
(-9.58051e-06 4.15035e-08 0.10089)
(7.87447e-06 -2.57933e-06 0.100691)
(-2.47535e-07 -1.14491e-07 0.100932)
(1.09907e-06 -9.93332e-07 0.092891)
(-1.08682e-06 9.20178e-07 0.092893)
(-3.90236e-08 9.51546e-06 0.10089)
(-1.14785e-07 -2.50162e-07 0.100932)
(2.51211e-06 -8.13664e-06 0.10069)