/*--------------------------------*- C++ -*----------------------------------*\
| =========                 |                                                 |
| \\      /  F ield         | OpenFOAM: The Open Source CFD Toolbox           |
|  \\    /   O peration     | Version:  2206                                  |
|   \\  /    A nd           | Website:  www.openfoam.com                      |
|    \\/     M anipulation  |                                                 |
\*---------------------------------------------------------------------------*/
FoamFile
{
    version     2.0;
    format      ascii;
    arch        "LSB;label=32;scalar=64";
    class       volScalarField;
    location    "1.5";
    object      k;
}
// * * * * * * * * * * * * * * * * * * * * * * * * * * * * * * * * * * * * * //

dimensions      [0 2 -2 0 0 0 0];

internalField   nonuniform List<scalar> 
28515
(
3.87273e-05
4.06604e-05
4.06605e-05
4.33801e-05
3.6718e-05
3.6844e-05
3.6844e-05
3.92011e-05
3.67165e-05
3.6842e-05
3.6842e-05
3.91893e-05
3.67165e-05
3.68423e-05
3.68421e-05
3.91887e-05
3.67165e-05
3.68423e-05
3.68421e-05
3.91903e-05
3.67165e-05
3.68419e-05
3.68421e-05
3.91888e-05
3.67165e-05
3.68418e-05
3.68421e-05
3.91873e-05
3.67165e-05
3.68419e-05
3.68419e-05
3.91887e-05
3.67165e-05
3.68419e-05
3.6842e-05
3.91883e-05
3.67165e-05
3.6842e-05
3.68421e-05
3.91883e-05
3.67165e-05
3.68419e-05
3.68419e-05
3.91879e-05
3.67165e-05
3.68419e-05
3.6842e-05
3.9188e-05
4.2665e-05
4.68411e-05
4.68436e-05
4.26671e-05
4.68371e-05
4.68436e-05
4.29483e-05
4.29462e-05
4.29474e-05
4.29492e-05
4.68392e-05
4.68395e-05
4.26675e-05
4.68406e-05
4.68368e-05
4.26654e-05
4.33799e-05
3.90714e-05
4.06601e-05
4.06591e-05
3.68484e-05
3.68483e-05
4.33807e-05
3.9071e-05
4.06597e-05
4.06601e-05
3.68482e-05
3.68486e-05
4.0661e-05
3.6848e-05
3.68481e-05
4.33812e-05
3.90715e-05
4.06602e-05
3.68483e-05
3.68481e-05
3.90716e-05
3.9199e-05
3.90335e-05
3.68441e-05
3.68441e-05
3.68425e-05
3.68423e-05
3.91998e-05
3.90329e-05
3.68441e-05
3.68444e-05
3.6842e-05
3.68422e-05
3.68442e-05
3.68423e-05
3.6842e-05
3.92008e-05
3.90342e-05
3.6844e-05
3.6842e-05
3.68426e-05
3.90332e-05
3.91898e-05
3.90316e-05
3.68424e-05
3.68423e-05
3.68424e-05
3.68419e-05
3.91884e-05
3.90322e-05
3.6842e-05
3.68423e-05
3.68424e-05
3.68425e-05
3.68423e-05
3.68424e-05
3.68421e-05
3.91907e-05
3.90327e-05
3.68422e-05
3.68425e-05
3.68423e-05
3.90323e-05
3.91894e-05
3.90319e-05
3.68421e-05
3.68424e-05
3.68425e-05
3.68419e-05
3.91871e-05
3.90328e-05
3.68422e-05
3.68422e-05
3.68424e-05
3.68425e-05
3.68421e-05
3.68424e-05
3.68421e-05
3.91903e-05
3.90331e-05
3.68422e-05
3.68425e-05
3.68423e-05
3.90331e-05
3.91896e-05
3.90318e-05
3.68421e-05
3.68422e-05
3.68421e-05
3.68421e-05
3.91884e-05
3.90315e-05
3.68423e-05
3.68422e-05
3.68424e-05
3.68421e-05
3.68422e-05
3.68421e-05
3.68423e-05
3.91905e-05
3.90336e-05
3.68422e-05
3.68422e-05
3.68419e-05
3.90325e-05
3.91893e-05
3.90307e-05
3.6842e-05
3.68422e-05
3.68421e-05
3.6842e-05
3.9188e-05
3.90307e-05
3.68422e-05
3.68421e-05
3.68425e-05
3.68422e-05
3.68421e-05
3.68422e-05
3.68424e-05
3.91903e-05
3.90329e-05
3.68422e-05
3.68421e-05
3.68419e-05
3.90318e-05
3.91878e-05
3.90321e-05
3.68422e-05
3.68422e-05
3.68423e-05
3.68422e-05
3.91874e-05
3.90322e-05
3.68422e-05
3.68421e-05
3.68423e-05
3.68424e-05
3.68424e-05
3.68422e-05
3.68425e-05
3.919e-05
3.90335e-05
3.68422e-05
3.68423e-05
3.6842e-05
3.90322e-05
3.91886e-05
3.90327e-05
3.68422e-05
3.68421e-05
3.68424e-05
3.68422e-05
3.91891e-05
3.90328e-05
3.68423e-05
3.68426e-05
3.68424e-05
3.68422e-05
3.68421e-05
3.68422e-05
3.68425e-05
3.91897e-05
3.9034e-05
3.68422e-05
3.68423e-05
3.6842e-05
3.90328e-05
3.91889e-05
3.90327e-05
3.68422e-05
3.68421e-05
3.68424e-05
3.68422e-05
3.91895e-05
3.90328e-05
3.68422e-05
3.68426e-05
3.68423e-05
3.68424e-05
3.68423e-05
3.68422e-05
3.68425e-05
3.91901e-05
3.90343e-05
3.68422e-05
3.68423e-05
3.6842e-05
3.9033e-05
3.91898e-05
3.90322e-05
3.68422e-05
3.68419e-05
3.6842e-05
3.68422e-05
3.91895e-05
3.90319e-05
3.68421e-05
3.68422e-05
3.68424e-05
3.68421e-05
3.68423e-05
3.68422e-05
3.68421e-05
3.91909e-05
3.90336e-05
3.68424e-05
3.6842e-05
3.6842e-05
3.90325e-05
3.91883e-05
3.90317e-05
3.68424e-05
3.68425e-05
3.6842e-05
3.68424e-05
3.9188e-05
3.90311e-05
3.68421e-05
3.68422e-05
3.68423e-05
3.68422e-05
3.68423e-05
3.68423e-05
3.6842e-05
3.91904e-05
3.90331e-05
3.68423e-05
3.6842e-05
3.68422e-05
3.90316e-05
3.91889e-05
3.68419e-05
3.68423e-05
3.91883e-05
3.68422e-05
3.68426e-05
3.68424e-05
3.9189e-05
3.68422e-05
3.3554e-05
3.43282e-05
3.37107e-05
3.37104e-05
8.33204e-05
3.80055e-05
0.000126267
3.38913e-05
8.33275e-05
3.80104e-05
3.3891e-05
0.000126263
4.29373e-05
0.000112553
0.000112553
3.65622e-05
3.39508e-05
3.70962e-05
3.32611e-05
3.04643e-05
2.91304e-05
3.65621e-05
3.39506e-05
3.70959e-05
3.32607e-05
3.87278e-05
3.87283e-05
3.87275e-05
3.67272e-05
3.67272e-05
3.67272e-05
3.67272e-05
3.83167e-05
3.93875e-05
3.81043e-05
3.72289e-05
3.86055e-05
3.82861e-05
3.69509e-05
3.0464e-05
2.913e-05
3.83167e-05
3.81049e-05
3.93875e-05
3.72298e-05
3.86058e-05
3.6951e-05
3.82864e-05
3.81445e-05
3.81451e-05
3.95229e-05
3.66446e-05
3.66442e-05
3.65659e-05
3.34015e-05
3.68281e-05
3.32486e-05
2.92287e-05
2.91074e-05
3.6566e-05
3.34012e-05
3.68281e-05
3.32482e-05
3.6718e-05
3.6718e-05
3.6718e-05
3.67165e-05
3.67165e-05
3.67165e-05
3.67165e-05
3.833e-05
3.83349e-05
3.67223e-05
3.68422e-05
3.8344e-05
3.81287e-05
3.672e-05
2.92282e-05
2.91069e-05
3.83303e-05
3.67223e-05
3.83353e-05
3.68421e-05
3.83445e-05
3.672e-05
3.81289e-05
3.68959e-05
3.68953e-05
3.9037e-05
3.65858e-05
3.65856e-05
3.65657e-05
3.34002e-05
3.68268e-05
3.32486e-05
2.92224e-05
2.91081e-05
3.65657e-05
3.34001e-05
3.68268e-05
3.32483e-05
3.67165e-05
3.67165e-05
3.67165e-05
3.67165e-05
3.67165e-05
3.67165e-05
3.67165e-05
3.83274e-05
3.83329e-05
3.672e-05
3.68423e-05
3.83478e-05
3.81258e-05
3.672e-05
2.92218e-05
2.91075e-05
3.83275e-05
3.672e-05
3.83332e-05
3.68424e-05
3.83479e-05
3.672e-05
3.8126e-05
3.68933e-05
3.68927e-05
3.90328e-05
3.65849e-05
3.65845e-05
3.65659e-05
3.34001e-05
3.68269e-05
3.32486e-05
2.92223e-05
2.9108e-05
3.65659e-05
3.33999e-05
3.68269e-05
3.32483e-05
3.67165e-05
3.67165e-05
3.67165e-05
3.67165e-05
3.67165e-05
3.67165e-05
3.67165e-05
3.83266e-05
3.83329e-05
3.672e-05
3.68423e-05
3.83476e-05
3.81256e-05
3.672e-05
2.92216e-05
2.91075e-05
3.83272e-05
3.672e-05
3.83335e-05
3.68424e-05
3.83481e-05
3.672e-05
3.8126e-05
3.68933e-05
3.68927e-05
3.9033e-05
3.65848e-05
3.65844e-05
3.65659e-05
3.34e-05
3.68269e-05
3.32486e-05
2.92221e-05
2.91079e-05
3.65659e-05
3.33999e-05
3.6827e-05
3.32482e-05
3.67165e-05
3.67165e-05
3.67165e-05
3.67165e-05
3.67165e-05
3.67165e-05
3.67165e-05
3.83272e-05
3.83331e-05
3.672e-05
3.68421e-05
3.83484e-05
3.81263e-05
3.672e-05
2.92213e-05
2.91073e-05
3.83276e-05
3.672e-05
3.83335e-05
3.68425e-05
3.83487e-05
3.67201e-05
3.81266e-05
3.68934e-05
3.68928e-05
3.90322e-05
3.65849e-05
3.65847e-05
3.65658e-05
3.34001e-05
3.68267e-05
3.32487e-05
2.92222e-05
2.91081e-05
3.65658e-05
3.34e-05
3.68267e-05
3.32483e-05
3.67165e-05
3.67165e-05
3.67165e-05
3.67165e-05
3.67165e-05
3.67165e-05
3.67165e-05
3.83271e-05
3.83328e-05
3.672e-05
3.68421e-05
3.83478e-05
3.81259e-05
3.672e-05
2.92217e-05
2.91076e-05
3.83271e-05
3.672e-05
3.83326e-05
3.68425e-05
3.83477e-05
3.67201e-05
3.81259e-05
3.68932e-05
3.68926e-05
3.90314e-05
3.65849e-05
3.65847e-05
3.65655e-05
3.34002e-05
3.68268e-05
3.32486e-05
2.92224e-05
2.91082e-05
3.65655e-05
3.34001e-05
3.68269e-05
3.32483e-05
3.67165e-05
3.67165e-05
3.67165e-05
3.67165e-05
3.67165e-05
3.67165e-05
3.67165e-05
3.83259e-05
3.83325e-05
3.672e-05
3.68422e-05
3.83471e-05
3.81248e-05
3.672e-05
2.92218e-05
2.91076e-05
3.83265e-05
3.672e-05
3.83328e-05
3.6842e-05
3.83475e-05
3.672e-05
3.81253e-05
3.68932e-05
3.68926e-05
3.90316e-05
3.65845e-05
3.65843e-05
3.65658e-05
3.34002e-05
3.6827e-05
3.32486e-05
2.92221e-05
2.9108e-05
3.65658e-05
3.34e-05
3.68269e-05
3.32482e-05
3.67165e-05
3.67165e-05
3.67165e-05
3.67165e-05
3.67165e-05
3.67165e-05
3.67165e-05
3.83268e-05
3.83335e-05
3.672e-05
3.68423e-05
3.8348e-05
3.81258e-05
3.672e-05
2.92216e-05
2.91075e-05
3.8327e-05
3.672e-05
3.83334e-05
3.68425e-05
3.83482e-05
3.672e-05
3.81259e-05
3.68933e-05
3.68928e-05
3.90325e-05
3.65848e-05
3.65845e-05
3.65661e-05
3.34e-05
3.6827e-05
3.32487e-05
2.92218e-05
2.91079e-05
3.65661e-05
3.33999e-05
3.68271e-05
3.32483e-05
3.67165e-05
3.67165e-05
3.67165e-05
3.67165e-05
3.67165e-05
3.67165e-05
3.67165e-05
3.83276e-05
3.83335e-05
3.672e-05
3.68423e-05
3.83488e-05
3.81263e-05
3.672e-05
2.92212e-05
2.91072e-05
3.83283e-05
3.672e-05
3.83341e-05
3.68425e-05
3.83493e-05
3.672e-05
3.81268e-05
3.68934e-05
3.68929e-05
3.90333e-05
3.65849e-05
3.65846e-05
3.6566e-05
3.34001e-05
3.68269e-05
3.32487e-05
2.92218e-05
2.91078e-05
3.6566e-05
3.33999e-05
3.68269e-05
3.32483e-05
3.67165e-05
3.67165e-05
3.67165e-05
3.67165e-05
3.67165e-05
3.67165e-05
3.67165e-05
3.83279e-05
3.83337e-05
3.672e-05
3.68422e-05
3.83488e-05
3.81266e-05
3.672e-05
2.92213e-05
2.91073e-05
3.83282e-05
3.672e-05
3.83335e-05
3.68421e-05
3.83489e-05
3.672e-05
3.81269e-05
3.68934e-05
3.68928e-05
3.90332e-05
3.65851e-05
3.65849e-05
3.6566e-05
3.34001e-05
3.68269e-05
3.32487e-05
2.92221e-05
2.9108e-05
3.6566e-05
3.33999e-05
3.68269e-05
3.32483e-05
3.67165e-05
3.67165e-05
3.67165e-05
3.67165e-05
3.67165e-05
3.67165e-05
3.67165e-05
3.83274e-05
3.83328e-05
3.672e-05
3.68422e-05
3.83478e-05
3.8126e-05
3.67201e-05
2.92215e-05
2.91075e-05
3.83278e-05
3.672e-05
3.83332e-05
3.68421e-05
3.83484e-05
3.672e-05
3.81262e-05
3.68931e-05
3.68925e-05
3.9032e-05
3.6585e-05
3.65847e-05
3.65655e-05
3.34003e-05
3.68266e-05
3.32487e-05
2.92225e-05
2.91082e-05
3.34001e-05
3.68267e-05
3.67165e-05
3.67165e-05
3.67165e-05
3.83259e-05
3.83322e-05
3.672e-05
3.68422e-05
3.83468e-05
3.81248e-05
3.672e-05
2.92219e-05
3.83264e-05
3.672e-05
3.83326e-05
3.83473e-05
3.672e-05
3.68931e-05
3.68925e-05
3.90316e-05
3.65846e-05
3.65842e-05
4.29392e-05
0.00011252
0.00011255
3.72406e-05
6.81928e-05
3.72368e-05
6.81871e-05
6.24974e-05
4.29396e-05
4.29407e-05
7.7903e-05
7.78974e-05
8.3326e-05
3.80089e-05
0.000126309
3.38913e-05
8.33212e-05
3.80042e-05
0.00012633
3.38915e-05
9.97742e-05
3.66163e-05
6.99667e-05
3.86732e-05
9.977e-05
3.66181e-05
6.99108e-05
3.86719e-05
7.35487e-05
5.5685e-05
3.91793e-05
4.20702e-05
8.8128e-05
4.06724e-05
3.98195e-05
7.35472e-05
5.56861e-05
3.91789e-05
4.20695e-05
8.808e-05
4.06712e-05
3.9819e-05
4.29263e-05
0.000112585
0.00011252
3.72355e-05
6.81708e-05
6.25021e-05
4.29462e-05
4.29382e-05
7.78768e-05
7.78881e-05
3.72435e-05
6.81604e-05
8.33276e-05
3.80114e-05
0.000126335
3.38916e-05
8.33646e-05
3.80065e-05
3.38912e-05
0.000126308
9.97779e-05
3.65988e-05
6.99565e-05
3.86722e-05
7.35416e-05
5.56845e-05
3.91774e-05
4.20679e-05
8.81207e-05
4.06722e-05
3.98191e-05
9.9775e-05
3.66214e-05
6.99276e-05
3.86733e-05
7.35364e-05
5.56843e-05
4.20694e-05
3.91792e-05
4.06721e-05
8.80965e-05
3.98193e-05
3.35539e-05
3.4327e-05
3.37107e-05
3.37106e-05
3.35541e-05
3.43271e-05
3.37104e-05
3.37103e-05
3.35539e-05
3.43281e-05
3.37104e-05
3.37106e-05
4.02874e-05
4.38062e-05
3.91612e-05
3.91609e-05
4.04069e-05
4.04066e-05
3.84034e-05
4.02873e-05
4.38072e-05
3.91613e-05
3.91613e-05
4.04066e-05
4.04067e-05
3.84034e-05
4.02875e-05
4.38071e-05
3.91613e-05
3.91614e-05
4.04067e-05
4.04065e-05
3.84034e-05
4.02877e-05
4.38065e-05
3.91616e-05
3.91613e-05
4.04069e-05
4.04067e-05
3.84034e-05
8.33029e-05
3.80124e-05
3.38914e-05
0.000126312
7.35538e-05
5.56835e-05
3.91783e-05
4.20689e-05
8.81007e-05
4.06713e-05
3.98193e-05
9.97672e-05
3.66172e-05
6.99105e-05
3.8673e-05
7.3549e-05
5.56836e-05
4.20702e-05
3.91788e-05
4.0672e-05
8.81238e-05
3.982e-05
9.97636e-05
3.66025e-05
6.9939e-05
3.86751e-05
4.29264e-05
0.000112554
0.000112526
3.72484e-05
6.81777e-05
6.25016e-05
4.29425e-05
4.29342e-05
7.78868e-05
7.78985e-05
3.72541e-05
6.8171e-05
8.33256e-05
3.80084e-05
3.38911e-05
0.00012631
7.35487e-05
5.56823e-05
4.20693e-05
3.91789e-05
4.06718e-05
8.81147e-05
3.98198e-05
7.35369e-05
5.56845e-05
4.20691e-05
3.91785e-05
4.06722e-05
8.81037e-05
3.982e-05
9.97702e-05
3.66187e-05
6.99272e-05
3.86741e-05
9.97661e-05
3.66001e-05
6.99168e-05
3.86739e-05
6.24978e-05
4.29373e-05
4.29403e-05
7.79087e-05
7.78808e-05
3.72409e-05
6.81896e-05
3.72506e-05
6.81561e-05
3.04644e-05
2.91307e-05
3.04638e-05
2.91302e-05
3.81446e-05
3.81445e-05
3.95223e-05
3.66442e-05
3.6644e-05
2.91049e-05
2.9286e-05
2.91043e-05
2.92855e-05
3.93866e-05
3.65912e-05
3.65908e-05
3.6932e-05
3.69313e-05
3.65622e-05
3.3951e-05
3.7096e-05
3.32609e-05
3.83158e-05
3.93862e-05
3.81039e-05
3.72294e-05
3.86056e-05
3.82863e-05
3.69511e-05
3.83159e-05
3.93883e-05
3.81037e-05
3.7229e-05
3.86055e-05
3.82872e-05
3.6951e-05
3.68355e-05
3.32483e-05
3.3419e-05
3.65661e-05
3.68355e-05
3.32481e-05
3.3419e-05
3.65661e-05
3.83192e-05
3.6875e-05
3.8141e-05
3.67252e-05
3.83865e-05
3.6765e-05
3.83273e-05
3.83192e-05
3.6875e-05
3.81415e-05
3.67252e-05
3.83866e-05
3.6765e-05
3.83273e-05
3.81463e-05
3.81449e-05
3.95224e-05
3.66443e-05
3.66442e-05
3.04639e-05
2.91306e-05
2.91046e-05
2.92857e-05
3.93865e-05
3.65911e-05
3.65911e-05
3.69314e-05
3.69317e-05
2.91049e-05
2.9286e-05
3.83163e-05
3.93875e-05
3.81039e-05
3.72292e-05
3.86053e-05
3.82862e-05
3.6951e-05
3.65621e-05
3.39508e-05
3.70962e-05
3.32606e-05
3.8316e-05
3.81044e-05
3.93879e-05
3.72291e-05
3.86057e-05
3.69511e-05
3.82874e-05
3.68355e-05
3.32479e-05
3.34188e-05
3.65661e-05
3.83194e-05
3.6875e-05
3.81408e-05
3.67252e-05
3.83862e-05
3.6765e-05
3.83276e-05
3.68356e-05
3.32479e-05
3.34188e-05
3.65661e-05
3.83197e-05
3.68751e-05
3.67252e-05
3.81417e-05
3.6765e-05
3.83868e-05
3.83275e-05
3.65624e-05
3.39505e-05
3.70958e-05
3.3261e-05
3.83164e-05
3.81044e-05
3.93868e-05
3.72296e-05
3.86059e-05
3.69511e-05
3.82872e-05
3.65624e-05
3.39501e-05
3.70963e-05
3.32608e-05
3.8319e-05
3.68749e-05
3.81405e-05
3.67252e-05
3.83857e-05
3.6765e-05
3.83274e-05
3.68354e-05
3.32481e-05
3.34188e-05
3.65661e-05
3.83194e-05
3.68749e-05
3.67252e-05
3.81412e-05
3.6765e-05
3.83862e-05
3.83272e-05
3.68354e-05
3.32481e-05
3.34187e-05
3.6566e-05
3.81462e-05
3.81445e-05
3.95231e-05
3.66443e-05
3.66443e-05
3.04637e-05
2.91303e-05
2.91041e-05
2.92854e-05
3.93867e-05
3.65911e-05
3.6591e-05
3.69314e-05
3.69318e-05
2.91046e-05
2.92858e-05
3.83167e-05
3.81044e-05
3.9388e-05
3.72292e-05
3.8606e-05
3.69509e-05
3.8287e-05
3.65624e-05
3.39504e-05
3.70959e-05
3.32608e-05
3.65623e-05
3.39505e-05
3.70961e-05
3.32606e-05
3.83194e-05
3.68751e-05
3.67252e-05
3.81406e-05
3.6765e-05
3.83858e-05
3.83276e-05
3.83195e-05
3.68748e-05
3.67252e-05
3.8141e-05
3.6765e-05
3.83861e-05
3.83275e-05
3.68355e-05
3.3248e-05
3.34188e-05
3.65661e-05
3.68355e-05
3.32479e-05
3.34188e-05
3.6566e-05
3.04638e-05
2.91304e-05
3.04638e-05
2.91303e-05
3.93883e-05
3.65912e-05
3.6591e-05
3.69318e-05
3.69312e-05
2.91047e-05
2.92859e-05
2.91043e-05
2.92855e-05
2.9229e-05
2.91078e-05
2.92283e-05
2.91072e-05
3.6896e-05
3.68952e-05
3.90367e-05
3.65857e-05
3.65854e-05
2.91082e-05
2.92233e-05
2.91078e-05
2.92227e-05
3.91884e-05
3.65852e-05
3.65848e-05
3.68934e-05
3.68929e-05
3.6566e-05
3.34015e-05
3.68281e-05
3.32485e-05
3.83301e-05
3.83355e-05
3.67223e-05
3.68425e-05
3.83442e-05
3.81292e-05
3.672e-05
3.833e-05
3.83356e-05
3.67223e-05
3.68421e-05
3.83441e-05
3.81296e-05
3.672e-05
3.6827e-05
3.32486e-05
3.34003e-05
3.65658e-05
3.6827e-05
3.32485e-05
3.34003e-05
3.65659e-05
3.83473e-05
3.68426e-05
3.8127e-05
3.672e-05
3.83336e-05
3.67202e-05
3.83278e-05
3.83471e-05
3.68427e-05
3.81274e-05
3.672e-05
3.83338e-05
3.67202e-05
3.83278e-05
3.68954e-05
3.68957e-05
3.90366e-05
3.65856e-05
3.65857e-05
2.92289e-05
2.91078e-05
2.9108e-05
2.9223e-05
3.9188e-05
3.6585e-05
3.6585e-05
3.68928e-05
3.68933e-05
2.91082e-05
2.92232e-05
3.83306e-05
3.83353e-05
3.67223e-05
3.68425e-05
3.83445e-05
3.8129e-05
3.672e-05
3.65661e-05
3.34013e-05
3.68282e-05
3.32482e-05
3.83306e-05
3.67223e-05
3.83361e-05
3.68421e-05
3.83447e-05
3.672e-05
3.81299e-05
3.6827e-05
3.32483e-05
3.34001e-05
3.65659e-05
3.83472e-05
3.68421e-05
3.81268e-05
3.672e-05
3.83337e-05
3.67201e-05
3.83283e-05
3.68271e-05
3.32482e-05
3.34e-05
3.65659e-05
3.83474e-05
3.68426e-05
3.672e-05
3.81276e-05
3.67202e-05
3.83343e-05
3.83283e-05
3.65659e-05
3.34012e-05
3.6828e-05
3.32484e-05
3.83301e-05
3.67223e-05
3.83355e-05
3.68426e-05
3.83444e-05
3.672e-05
3.81295e-05
3.65659e-05
3.34013e-05
3.68282e-05
3.32484e-05
3.83476e-05
3.6842e-05
3.81265e-05
3.672e-05
3.83331e-05
3.67201e-05
3.83278e-05
3.6827e-05
3.32485e-05
3.34e-05
3.65658e-05
3.83475e-05
3.68422e-05
3.672e-05
3.81272e-05
3.67201e-05
3.83336e-05
3.83277e-05
3.6827e-05
3.32484e-05
3.34e-05
3.65658e-05
3.68956e-05
3.68959e-05
3.90378e-05
3.65856e-05
3.65856e-05
2.92286e-05
2.91074e-05
2.91074e-05
2.92223e-05
3.91894e-05
3.6585e-05
3.65851e-05
3.68931e-05
3.68933e-05
2.9108e-05
2.9223e-05
3.83303e-05
3.67223e-05
3.83352e-05
3.68423e-05
3.83446e-05
3.672e-05
3.81293e-05
3.6566e-05
3.34011e-05
3.68282e-05
3.32483e-05
3.6566e-05
3.34013e-05
3.68282e-05
3.32482e-05
3.83477e-05
3.68423e-05
3.672e-05
3.81269e-05
3.67201e-05
3.83333e-05
3.83283e-05
3.83476e-05
3.68424e-05
3.67201e-05
3.81269e-05
3.67202e-05
3.83337e-05
3.83283e-05
3.68271e-05
3.32484e-05
3.34e-05
3.65659e-05
3.68271e-05
3.32483e-05
3.34e-05
3.65659e-05
2.92288e-05
2.91074e-05
2.92285e-05
2.91072e-05
3.91887e-05
3.65851e-05
3.65847e-05
3.68934e-05
3.68929e-05
2.91079e-05
2.92229e-05
2.91077e-05
2.92227e-05
2.92225e-05
2.91083e-05
2.92221e-05
2.91078e-05
3.68932e-05
3.68926e-05
3.90321e-05
3.65848e-05
3.65844e-05
2.91082e-05
2.92222e-05
2.91077e-05
2.92217e-05
3.91893e-05
3.65849e-05
3.65846e-05
3.68933e-05
3.68926e-05
3.65657e-05
3.34003e-05
3.68269e-05
3.32485e-05
3.83266e-05
3.83334e-05
3.672e-05
3.68421e-05
3.83477e-05
3.81261e-05
3.672e-05
3.83266e-05
3.83336e-05
3.672e-05
3.68423e-05
3.83475e-05
3.81266e-05
3.672e-05
3.68269e-05
3.32486e-05
3.34001e-05
3.65658e-05
3.6827e-05
3.32486e-05
3.34002e-05
3.65658e-05
3.83481e-05
3.68422e-05
3.81263e-05
3.672e-05
3.83339e-05
3.672e-05
3.83268e-05
3.83481e-05
3.68424e-05
3.81269e-05
3.672e-05
3.83338e-05
3.672e-05
3.83268e-05
3.68927e-05
3.6893e-05
3.90314e-05
3.65847e-05
3.65847e-05
2.92225e-05
2.91084e-05
2.91081e-05
2.92223e-05
3.91873e-05
3.65848e-05
3.65848e-05
3.68928e-05
3.68931e-05
2.91084e-05
2.92224e-05
3.83271e-05
3.83334e-05
3.672e-05
3.6842e-05
3.83477e-05
3.81258e-05
3.672e-05
3.65657e-05
3.34e-05
3.68269e-05
3.32482e-05
3.8327e-05
3.672e-05
3.83337e-05
3.68422e-05
3.83478e-05
3.672e-05
3.81267e-05
3.68269e-05
3.32482e-05
3.34e-05
3.65659e-05
3.83483e-05
3.68422e-05
3.81261e-05
3.672e-05
3.83339e-05
3.672e-05
3.83273e-05
3.6827e-05
3.32482e-05
3.34e-05
3.6566e-05
3.83483e-05
3.68422e-05
3.672e-05
3.8127e-05
3.672e-05
3.83343e-05
3.83273e-05
3.65659e-05
3.34e-05
3.68269e-05
3.32485e-05
3.83272e-05
3.672e-05
3.83338e-05
3.6842e-05
3.83479e-05
3.672e-05
3.81266e-05
3.65659e-05
3.33999e-05
3.68269e-05
3.32484e-05
3.83475e-05
3.68424e-05
3.81257e-05
3.672e-05
3.83328e-05
3.672e-05
3.83268e-05
3.68268e-05
3.32485e-05
3.34e-05
3.65658e-05
3.83476e-05
3.68424e-05
3.672e-05
3.81265e-05
3.672e-05
3.83335e-05
3.83267e-05
3.68269e-05
3.32484e-05
3.34e-05
3.65658e-05
3.68928e-05
3.68932e-05
3.9033e-05
3.65846e-05
3.65847e-05
2.92223e-05
2.91081e-05
2.91075e-05
2.92216e-05
3.91894e-05
3.65848e-05
3.65847e-05
3.68929e-05
3.68932e-05
2.91081e-05
2.92221e-05
3.83274e-05
3.672e-05
3.83335e-05
3.68422e-05
3.83479e-05
3.672e-05
3.81264e-05
3.65658e-05
3.33999e-05
3.68269e-05
3.32484e-05
3.65659e-05
3.34e-05
3.68269e-05
3.32483e-05
3.83478e-05
3.68425e-05
3.672e-05
3.8126e-05
3.672e-05
3.83333e-05
3.83272e-05
3.83477e-05
3.68425e-05
3.672e-05
3.81263e-05
3.67201e-05
3.83334e-05
3.83272e-05
3.68269e-05
3.32483e-05
3.33999e-05
3.65659e-05
3.68269e-05
3.32483e-05
3.34e-05
3.65658e-05
2.92222e-05
2.9108e-05
2.92219e-05
2.91077e-05
3.91876e-05
3.65849e-05
3.65847e-05
3.68933e-05
3.68927e-05
2.9108e-05
2.92221e-05
2.91078e-05
2.92218e-05
2.92223e-05
2.91082e-05
2.92218e-05
2.91077e-05
3.68933e-05
3.68927e-05
3.90323e-05
3.65851e-05
3.65847e-05
2.91082e-05
2.92223e-05
2.91076e-05
2.92216e-05
3.91896e-05
3.65851e-05
3.65848e-05
3.68932e-05
3.68926e-05
3.65659e-05
3.34002e-05
3.68269e-05
3.32485e-05
3.83272e-05
3.83339e-05
3.672e-05
3.68421e-05
3.83482e-05
3.81269e-05
3.672e-05
3.8327e-05
3.83339e-05
3.672e-05
3.68423e-05
3.83481e-05
3.81266e-05
3.672e-05
3.6827e-05
3.32486e-05
3.34001e-05
3.6566e-05
3.6827e-05
3.32485e-05
3.34002e-05
3.6566e-05
3.83485e-05
3.68422e-05
3.8127e-05
3.672e-05
3.83339e-05
3.672e-05
3.83274e-05
3.83484e-05
3.68424e-05
3.8127e-05
3.672e-05
3.83343e-05
3.672e-05
3.83273e-05
3.68928e-05
3.68931e-05
3.90315e-05
3.65847e-05
3.65847e-05
2.92225e-05
2.91083e-05
2.9108e-05
2.92221e-05
3.91874e-05
3.65849e-05
3.6585e-05
3.68929e-05
3.68931e-05
2.91081e-05
2.92222e-05
3.83275e-05
3.83337e-05
3.672e-05
3.68424e-05
3.83481e-05
3.81264e-05
3.672e-05
3.65659e-05
3.34e-05
3.6827e-05
3.32482e-05
3.83273e-05
3.672e-05
3.83343e-05
3.68422e-05
3.83482e-05
3.672e-05
3.81268e-05
3.6827e-05
3.32483e-05
3.33999e-05
3.6566e-05
3.83485e-05
3.68422e-05
3.81266e-05
3.672e-05
3.83337e-05
3.672e-05
3.83278e-05
3.6827e-05
3.32482e-05
3.33999e-05
3.6566e-05
3.83486e-05
3.68422e-05
3.672e-05
3.81271e-05
3.672e-05
3.83346e-05
3.83277e-05
3.65657e-05
3.34e-05
3.68269e-05
3.32484e-05
3.83265e-05
3.672e-05
3.83335e-05
3.68422e-05
3.8348e-05
3.672e-05
3.81264e-05
3.65657e-05
3.34e-05
3.68269e-05
3.32484e-05
3.83486e-05
3.68424e-05
3.81263e-05
3.672e-05
3.83333e-05
3.672e-05
3.83274e-05
3.6827e-05
3.32484e-05
3.33999e-05
3.6566e-05
3.83486e-05
3.68421e-05
3.672e-05
3.81268e-05
3.672e-05
3.83342e-05
3.83273e-05
3.6827e-05
3.32484e-05
3.33999e-05
3.6566e-05
3.68929e-05
3.68933e-05
3.90333e-05
3.65846e-05
3.65848e-05
2.92222e-05
2.91079e-05
2.91074e-05
2.92214e-05
3.91906e-05
3.65848e-05
3.65849e-05
3.6893e-05
3.68933e-05
2.91079e-05
2.92219e-05
3.83271e-05
3.672e-05
3.83334e-05
3.68421e-05
3.83481e-05
3.672e-05
3.81261e-05
3.65658e-05
3.33999e-05
3.6827e-05
3.32483e-05
3.65658e-05
3.34e-05
3.6827e-05
3.32482e-05
3.83487e-05
3.6842e-05
3.672e-05
3.81265e-05
3.672e-05
3.83337e-05
3.83277e-05
3.83487e-05
3.68425e-05
3.672e-05
3.81264e-05
3.672e-05
3.8334e-05
3.83275e-05
3.68271e-05
3.32483e-05
3.33998e-05
3.6566e-05
3.68271e-05
3.32482e-05
3.33999e-05
3.6566e-05
2.92224e-05
2.9108e-05
2.92221e-05
2.91077e-05
3.91889e-05
3.6585e-05
3.65847e-05
3.68934e-05
3.68928e-05
2.91078e-05
2.9222e-05
2.91076e-05
2.92217e-05
2.92223e-05
2.91082e-05
2.92217e-05
2.91076e-05
3.68932e-05
3.68926e-05
3.90324e-05
3.65852e-05
3.65847e-05
2.91083e-05
2.92223e-05
2.91077e-05
2.92217e-05
3.91893e-05
3.65851e-05
3.65847e-05
3.68932e-05
3.68924e-05
3.65659e-05
3.34002e-05
3.68269e-05
3.32485e-05
3.83272e-05
3.83338e-05
3.672e-05
3.68421e-05
3.83482e-05
3.81269e-05
3.672e-05
3.83272e-05
3.83341e-05
3.672e-05
3.68422e-05
3.83481e-05
3.81271e-05
3.672e-05
3.68269e-05
3.32486e-05
3.34e-05
3.6566e-05
3.68269e-05
3.32485e-05
3.34002e-05
3.6566e-05
3.83482e-05
3.68422e-05
3.81268e-05
3.672e-05
3.83333e-05
3.672e-05
3.83272e-05
3.83481e-05
3.68425e-05
3.81269e-05
3.672e-05
3.8334e-05
3.672e-05
3.83272e-05
3.68928e-05
3.68931e-05
3.90321e-05
3.65848e-05
3.6585e-05
2.92223e-05
2.91081e-05
2.9108e-05
2.9222e-05
3.91884e-05
3.65848e-05
3.65849e-05
3.68928e-05
3.6893e-05
2.91082e-05
2.92223e-05
3.83274e-05
3.83335e-05
3.672e-05
3.68424e-05
3.83484e-05
3.81265e-05
3.672e-05
3.6566e-05
3.33999e-05
3.6827e-05
3.32482e-05
3.83275e-05
3.672e-05
3.83345e-05
3.68423e-05
3.83486e-05
3.672e-05
3.81272e-05
3.68269e-05
3.32482e-05
3.33998e-05
3.65661e-05
3.83482e-05
3.68422e-05
3.81265e-05
3.67201e-05
3.83333e-05
3.672e-05
3.83276e-05
3.6827e-05
3.32483e-05
3.33999e-05
3.65662e-05
3.83482e-05
3.68426e-05
3.672e-05
3.81272e-05
3.672e-05
3.83342e-05
3.83276e-05
3.65659e-05
3.33999e-05
3.6827e-05
3.32484e-05
3.83272e-05
3.672e-05
3.8334e-05
3.68425e-05
3.83484e-05
3.672e-05
3.81269e-05
3.65659e-05
3.34e-05
3.6827e-05
3.32484e-05
3.83484e-05
3.68419e-05
3.81262e-05
3.672e-05
3.83329e-05
3.672e-05
3.83274e-05
3.68269e-05
3.32484e-05
3.33999e-05
3.6566e-05
3.83484e-05
3.68424e-05
3.672e-05
3.81269e-05
3.672e-05
3.83339e-05
3.83272e-05
3.68269e-05
3.32484e-05
3.33999e-05
3.6566e-05
3.68929e-05
3.68933e-05
3.90335e-05
3.65849e-05
3.65851e-05
2.92219e-05
2.91078e-05
2.91075e-05
2.92214e-05
3.91895e-05
3.65848e-05
3.65851e-05
3.68929e-05
3.68931e-05
2.91079e-05
2.9222e-05
3.83275e-05
3.672e-05
3.83339e-05
3.6842e-05
3.83486e-05
3.672e-05
3.81266e-05
3.65659e-05
3.33998e-05
3.6827e-05
3.32483e-05
3.65659e-05
3.34e-05
3.6827e-05
3.32483e-05
3.83486e-05
3.6842e-05
3.672e-05
3.81266e-05
3.672e-05
3.83332e-05
3.83278e-05
3.83485e-05
3.6842e-05
3.672e-05
3.81265e-05
3.672e-05
3.83337e-05
3.83275e-05
3.6827e-05
3.32483e-05
3.33998e-05
3.65661e-05
3.6827e-05
3.32483e-05
3.34e-05
3.65661e-05
2.92219e-05
2.91079e-05
2.92217e-05
2.91077e-05
3.91888e-05
3.6585e-05
3.65847e-05
3.68932e-05
3.68927e-05
2.91079e-05
2.92219e-05
2.91077e-05
2.92217e-05
2.92227e-05
2.91086e-05
2.9222e-05
2.91079e-05
3.68932e-05
3.68924e-05
3.90316e-05
3.65849e-05
3.65844e-05
2.91086e-05
2.92229e-05
2.91079e-05
2.92222e-05
3.91886e-05
3.65847e-05
3.65842e-05
3.68932e-05
3.68924e-05
3.65658e-05
3.34003e-05
3.68267e-05
3.32486e-05
3.83266e-05
3.83331e-05
3.672e-05
3.68421e-05
3.83472e-05
3.81263e-05
3.672e-05
3.83266e-05
3.83337e-05
3.672e-05
3.68422e-05
3.83472e-05
3.81267e-05
3.672e-05
3.68266e-05
3.32486e-05
3.34002e-05
3.65655e-05
3.68267e-05
3.32485e-05
3.34003e-05
3.65656e-05
3.83466e-05
3.68422e-05
3.81256e-05
3.672e-05
3.83328e-05
3.672e-05
3.83257e-05
3.83467e-05
3.68424e-05
3.81261e-05
3.672e-05
3.83333e-05
3.672e-05
3.83258e-05
3.68927e-05
3.68929e-05
3.90314e-05
3.65847e-05
3.65849e-05
2.92224e-05
2.91083e-05
2.91082e-05
2.92223e-05
3.91878e-05
3.65846e-05
3.65846e-05
3.68927e-05
3.68929e-05
2.91085e-05
2.92226e-05
3.83267e-05
3.83328e-05
3.672e-05
3.68424e-05
3.8347e-05
3.81259e-05
3.672e-05
3.65658e-05
3.34e-05
3.68267e-05
3.32483e-05
3.83267e-05
3.672e-05
3.83337e-05
3.68423e-05
3.83469e-05
3.672e-05
3.81266e-05
3.68267e-05
3.32482e-05
3.34e-05
3.65655e-05
3.83468e-05
3.68422e-05
3.81252e-05
3.672e-05
3.83327e-05
3.672e-05
3.83259e-05
3.68268e-05
3.32482e-05
3.34e-05
3.65656e-05
3.8347e-05
3.68425e-05
3.672e-05
3.81263e-05
3.672e-05
3.83334e-05
3.83259e-05
3.65659e-05
3.33999e-05
3.68268e-05
3.32484e-05
3.83271e-05
3.672e-05
3.83337e-05
3.68424e-05
3.83479e-05
3.672e-05
3.81266e-05
3.65659e-05
3.34e-05
3.68268e-05
3.32484e-05
3.83472e-05
3.68419e-05
3.81253e-05
3.672e-05
3.83324e-05
3.672e-05
3.83263e-05
3.68267e-05
3.32485e-05
3.34e-05
3.65657e-05
3.83473e-05
3.68424e-05
3.672e-05
3.81261e-05
3.672e-05
3.83333e-05
3.83263e-05
3.68268e-05
3.32484e-05
3.34e-05
3.65657e-05
3.68928e-05
3.68931e-05
3.90324e-05
3.65847e-05
3.65849e-05
2.92223e-05
2.9108e-05
2.91076e-05
2.92219e-05
3.91887e-05
3.65846e-05
3.65847e-05
3.68928e-05
3.68931e-05
2.91082e-05
2.92224e-05
3.83271e-05
3.672e-05
3.83336e-05
3.6842e-05
3.83478e-05
3.672e-05
3.81263e-05
3.65659e-05
3.33998e-05
3.68268e-05
3.32483e-05
3.65659e-05
3.34e-05
3.68269e-05
3.32483e-05
3.83474e-05
3.68419e-05
3.672e-05
3.81256e-05
3.672e-05
3.83327e-05
3.83265e-05
3.83473e-05
3.6842e-05
3.672e-05
3.81258e-05
3.672e-05
3.83331e-05
3.83264e-05
3.68268e-05
3.32483e-05
3.33999e-05
3.65657e-05
3.68268e-05
3.32483e-05
3.34e-05
3.65657e-05
2.9222e-05
2.91079e-05
2.92218e-05
2.91077e-05
3.91884e-05
3.65847e-05
3.65845e-05
3.68931e-05
3.68926e-05
2.91081e-05
2.92221e-05
2.91078e-05
2.92219e-05
2.92228e-05
2.91086e-05
2.92221e-05
2.91079e-05
3.68933e-05
3.68926e-05
3.90317e-05
3.65847e-05
3.65843e-05
2.91084e-05
2.92225e-05
2.91077e-05
2.92219e-05
3.91883e-05
3.65848e-05
3.65846e-05
3.68934e-05
3.68927e-05
3.65655e-05
3.34004e-05
3.68268e-05
3.32485e-05
3.83258e-05
3.83333e-05
3.672e-05
3.68424e-05
3.83472e-05
3.81257e-05
3.672e-05
3.83257e-05
3.83334e-05
3.672e-05
3.6842e-05
3.83471e-05
3.81258e-05
3.672e-05
3.68269e-05
3.32486e-05
3.34002e-05
3.65658e-05
3.68269e-05
3.32485e-05
3.34003e-05
3.65657e-05
3.83479e-05
3.68422e-05
3.81264e-05
3.672e-05
3.83338e-05
3.672e-05
3.83267e-05
3.83477e-05
3.68424e-05
3.81262e-05
3.672e-05
3.83339e-05
3.672e-05
3.83264e-05
3.68928e-05
3.6893e-05
3.90316e-05
3.65843e-05
3.65844e-05
2.92227e-05
2.91086e-05
2.91081e-05
2.92223e-05
3.9187e-05
3.65845e-05
3.65845e-05
3.68928e-05
3.6893e-05
2.91083e-05
2.92225e-05
3.83261e-05
3.83332e-05
3.672e-05
3.68424e-05
3.83476e-05
3.81255e-05
3.672e-05
3.65656e-05
3.34e-05
3.6827e-05
3.32482e-05
3.83261e-05
3.672e-05
3.83338e-05
3.68425e-05
3.83476e-05
3.672e-05
3.81262e-05
3.6827e-05
3.32482e-05
3.34e-05
3.65658e-05
3.83481e-05
3.68421e-05
3.8126e-05
3.672e-05
3.83339e-05
3.672e-05
3.8327e-05
3.6827e-05
3.32483e-05
3.34e-05
3.65659e-05
3.83481e-05
3.68427e-05
3.672e-05
3.81267e-05
3.67201e-05
3.83341e-05
3.8327e-05
3.65655e-05
3.34001e-05
3.68268e-05
3.32485e-05
3.83259e-05
3.67201e-05
3.83331e-05
3.68425e-05
3.83472e-05
3.672e-05
3.81258e-05
3.65656e-05
3.34001e-05
3.68268e-05
3.32484e-05
3.83476e-05
3.68421e-05
3.81254e-05
3.672e-05
3.83331e-05
3.672e-05
3.83265e-05
3.68269e-05
3.32485e-05
3.34001e-05
3.65657e-05
3.83477e-05
3.68424e-05
3.672e-05
3.8126e-05
3.672e-05
3.83335e-05
3.83266e-05
3.68269e-05
3.32484e-05
3.34001e-05
3.65657e-05
3.68929e-05
3.68931e-05
3.90324e-05
3.65845e-05
3.65845e-05
2.92224e-05
2.91082e-05
2.91076e-05
2.92217e-05
3.91893e-05
3.65846e-05
3.65847e-05
3.6893e-05
3.68933e-05
2.91081e-05
2.92223e-05
3.83263e-05
3.672e-05
3.83331e-05
3.68419e-05
3.83476e-05
3.672e-05
3.81256e-05
3.65656e-05
3.34e-05
3.68269e-05
3.32484e-05
3.65657e-05
3.34001e-05
3.68269e-05
3.32483e-05
3.83479e-05
3.68419e-05
3.672e-05
3.81258e-05
3.672e-05
3.83332e-05
3.83268e-05
3.83477e-05
3.6842e-05
3.672e-05
3.81258e-05
3.672e-05
3.83335e-05
3.83266e-05
3.6827e-05
3.32484e-05
3.34e-05
3.65657e-05
3.6827e-05
3.32483e-05
3.34001e-05
3.65657e-05
2.92224e-05
2.91082e-05
2.92222e-05
2.91079e-05
3.91883e-05
3.65846e-05
3.65844e-05
3.68933e-05
3.68927e-05
2.91081e-05
2.92222e-05
2.91078e-05
2.9222e-05
2.92225e-05
2.91083e-05
2.92218e-05
2.91077e-05