/*--------------------------------*- C++ -*----------------------------------*\
| =========                 |                                                 |
| \\      /  F ield         | OpenFOAM: The Open Source CFD Toolbox           |
|  \\    /   O peration     | Version:  2206                                  |
|   \\  /    A nd           | Website:  www.openfoam.com                      |
|    \\/     M anipulation  |                                                 |
\*---------------------------------------------------------------------------*/
FoamFile
{
    version     2.0;
    format      ascii;
    arch        "LSB;label=32;scalar=64";
    class       surfaceScalarField;
    location    "35";
    object      phi;
}
// * * * * * * * * * * * * * * * * * * * * * * * * * * * * * * * * * * * * * //

dimensions      [0 3 -1 0 0 0 0];

oriented        oriented;

internalField   nonuniform List<scalar> 
83348
(
1.7067e-09
1.897e-09
-0.00109271
-1.83772e-09
-1.79863e-09
0.00109271
-0.00109226
-1.2152e-06
-1.88929e-09
3.39308e-09
0.00109226
-2.63212e-07
1.21818e-06
2.61877e-07
9.04205e-07
-2.6515e-07
-9.03677e-07
2.61497e-07
-0.00109192
-1.20977e-06
-1.88447e-09
3.34821e-09
0.00109192
-2.60433e-07
1.21273e-06
2.59107e-07
9.04042e-07
-2.67771e-07
-9.03542e-07
2.64183e-07
-0.000268247
1.24362e-06
1.20989e-06
-2.35785e-07
-2.41106e-07
0.00026627
1.76238e-09
1.96466e-09
-0.00109271
-1.87239e-09
-1.82221e-09
0.00109271
-0.00109226
-1.21517e-06
-1.9513e-09
3.36878e-09
0.00109226
-2.6319e-07
1.21817e-06
2.61887e-07
9.04213e-07
-2.6511e-07
-9.03657e-07
2.61526e-07
-0.00109192
-1.20975e-06
-1.95174e-09
3.3305e-09
0.00109192
-2.60416e-07
1.21273e-06
2.59115e-07
9.04052e-07
-2.67736e-07
-9.03523e-07
2.64208e-07
-0.000268247
1.24361e-06
1.20988e-06
-2.35768e-07
-2.41086e-07
0.00026627
1.80571e-09
2.0145e-09
-0.00109271
-1.88705e-09
-1.84056e-09
0.00109271
-0.00109226
-1.21516e-06
-2.02656e-09
3.34428e-09
0.00109226
-2.63178e-07
1.21819e-06
2.61899e-07
9.0424e-07
-2.65079e-07
-9.03637e-07
2.61565e-07
-0.00109192
-1.20974e-06
-2.00286e-09
3.30628e-09
0.00109192
-2.604e-07
1.21275e-06
2.59131e-07
9.04064e-07
-2.67703e-07
-9.03514e-07
2.64247e-07
-0.000268247
1.24359e-06
1.20986e-06
-2.35753e-07
-2.41067e-07
0.00026627
1.92579e-09
2.10617e-09
-0.00109271
-1.92598e-09
-1.88799e-09
0.00109271
-0.00109226
-1.21514e-06
-2.14069e-09
3.27537e-09
0.00109226
-2.63161e-07
1.21822e-06
2.61922e-07
9.04275e-07
-2.65044e-07
-9.03615e-07
2.61611e-07
-0.00109192
-1.20971e-06
-2.09072e-09
3.24266e-09
0.00109192
-2.6038e-07
1.21278e-06
2.59163e-07
9.04104e-07
-2.67673e-07
-9.03491e-07
2.64289e-07
-0.000268247
1.24357e-06
1.20984e-06
-2.35732e-07
-2.41045e-07
0.00026627
2.14453e-09
2.34982e-09
-0.00109271
-2.04191e-09
-1.99125e-09
0.00109271
-0.00109226
-1.21512e-06
-2.25575e-09
3.23813e-09
0.00109226
-2.63146e-07
1.21824e-06
2.61958e-07
9.04323e-07
-2.65033e-07
-9.03587e-07
2.61648e-07
-0.00109192
-1.20969e-06
-2.32935e-09
3.1716e-09
0.00109192
-2.60355e-07
1.21281e-06
2.59201e-07
9.04174e-07
-2.67627e-07
-9.03434e-07
2.6436e-07
-0.000268246
1.24354e-06
1.20982e-06
-2.35706e-07
-2.4101e-07
0.00026627
2.08834e-09
2.26089e-09
-0.00109271
-2.01753e-09
-1.98509e-09
0.00109271
-0.00109226
-1.21515e-06
-2.13385e-09
3.33404e-09
0.00109226
-2.63172e-07
1.21822e-06
2.61949e-07
9.0432e-07
-2.6505e-07
-9.03602e-07
2.61661e-07
-0.00109192
-1.20973e-06
-2.26692e-09
3.23339e-09
0.00109192
-2.60391e-07
1.2128e-06
2.59193e-07
9.04166e-07
-2.67656e-07
-9.03473e-07
2.64361e-07
-0.000268246
1.24359e-06
1.20984e-06
-2.35716e-07
-2.41049e-07
0.000266269
1.01506e-09
1.01596e-09
-0.00109271
-1.29879e-09
-1.44767e-09
0.00109271
-0.00109226
-1.21521e-06
-1.83586e-09
3.47827e-09
0.00109226
-2.63262e-07
1.21813e-06
2.61831e-07
9.04178e-07
-2.6517e-07
-9.03712e-07
2.61502e-07
-0.00109191
-1.20993e-06
-1.0955e-09
3.86239e-09
0.00109192
-2.6064e-07
1.21254e-06
2.58895e-07
9.03794e-07
-2.67989e-07
-9.03773e-07
2.63953e-07
-0.000268245
1.24379e-06
1.20998e-06
-2.35846e-07
-2.41248e-07
0.000266269
1.08154e-09
1.42876e-09
-0.00109271
-1.67751e-09
-1.49344e-09
0.00109272
-0.00109226
-1.21547e-06
-8.09814e-10
3.78064e-09
0.00109226
-2.63543e-07
1.21802e-06
2.6169e-07
9.03904e-07
-2.6573e-07
-9.0416e-07
2.61102e-07
-0.00109192
-1.20994e-06
-1.34788e-09
3.41969e-09
0.00109192
-2.60623e-07
1.21269e-06
2.5907e-07
9.03872e-07
-2.68196e-07
-9.03903e-07
2.63964e-07
-0.000268246
1.24378e-06
1.21012e-06
-2.36125e-07
-2.41354e-07
0.00026627
1.98231e-09
2.2211e-09
-0.00109271
-2.04017e-09
-1.94663e-09
0.00109271
-0.00109226
-1.21512e-06
-2.17398e-09
3.19951e-09
0.00109226
-2.6314e-07
1.2183e-06
2.62027e-07
9.04316e-07
-2.65159e-07
-9.03679e-07
2.61618e-07
-0.00109192
-1.2097e-06
-2.17787e-09
3.15497e-09
0.00109192
-2.6037e-07
1.21285e-06
2.59244e-07
9.04151e-07
-2.67771e-07
-9.03539e-07
2.64302e-07
-0.000268247
1.24356e-06
1.20984e-06
-2.35725e-07
-2.41039e-07
0.00026627
1.78817e-09
1.95592e-09
-0.00109271
-1.89283e-09
-1.86853e-09
0.00109271
-0.00109226
-1.21519e-06
-2.02938e-09
3.31337e-09
0.00109226
-2.63223e-07
1.21823e-06
2.61942e-07
9.04278e-07
-2.65172e-07
-9.03708e-07
2.61583e-07
-0.00109192
-1.20977e-06
-1.95836e-09
3.30353e-09
0.00109192
-2.60453e-07
1.21278e-06
2.59166e-07
9.04097e-07
-2.67818e-07
-9.03596e-07
2.64251e-07
-0.000268247
1.24365e-06
1.20989e-06
-2.35785e-07
-2.41122e-07
0.00026627
1.67161e-09
-8.40973e-09
-0.00109271
-1.8638e-09
-1.80885e-09
0.00109272
-0.00109226
-1.21521e-06
-1.9645e-09
3.34921e-09
0.00109226
-2.63195e-07
1.21822e-06
2.61911e-07
9.04262e-07
-2.65191e-07
-9.03729e-07
2.61568e-07
-0.00109192
-1.20979e-06
-1.9192e-09
3.33321e-09
0.00109192
-2.60465e-07
1.21277e-06
2.59157e-07
9.04086e-07
-2.67831e-07
-9.03612e-07
2.64242e-07
-0.000268247
1.24365e-06
1.20991e-06
-2.35801e-07
-2.41129e-07
0.00026627
1.70535e-09
1.95654e-09
-0.00109272
-1.88066e-09
-1.79839e-09
0.00109272
-0.00109226
-1.21525e-06
-1.90812e-09
3.44803e-09
0.00109226
-2.60514e-07
1.21819e-06
2.59099e-07
9.0426e-07
-2.65172e-07
-9.03733e-07
2.6154e-07
-0.00109192
-1.20979e-06
-1.92985e-09
3.3442e-09
0.00109192
-2.60465e-07
1.21277e-06
2.59154e-07
9.04084e-07
-2.6783e-07
-9.03612e-07
2.64238e-07
-0.000268247
1.24364e-06
1.20991e-06
-2.35807e-07
-2.41123e-07
0.00026627
1.71184e-09
1.93127e-09
-0.00109272
-1.85577e-09
-1.80381e-09
0.00109272
-0.00109226
-1.21521e-06
-1.92863e-09
3.37562e-09
0.00109226
-2.60477e-07
1.21822e-06
2.59138e-07
9.04253e-07
-2.65167e-07
-9.03734e-07
2.61543e-07
-0.00109192
-1.20979e-06
-1.93685e-09
3.3442e-09
0.00109192
-2.60465e-07
1.21277e-06
2.59157e-07
9.04085e-07
-2.67832e-07
-9.03612e-07
2.64241e-07
-0.000268247
1.24364e-06
1.20991e-06
-2.35808e-07
-2.41125e-07
0.00026627
1.71842e-09
1.91731e-09
-0.00109272
-1.84567e-09
-1.81205e-09
0.00109272
-0.00109226
-1.21521e-06
-1.92388e-09
3.37699e-09
0.00109226
-2.60481e-07
1.21822e-06
2.59136e-07
9.04252e-07
-2.65169e-07
-9.03737e-07
2.61541e-07
-0.00109192
-1.20979e-06
-1.92725e-09
3.34839e-09
0.00109192
-2.60466e-07
1.21277e-06
2.59155e-07
9.04083e-07
-2.67832e-07
-9.03613e-07
2.64238e-07
-0.000268247
1.24365e-06
1.20991e-06
-2.35808e-07
-2.41127e-07
0.00026627
1.72248e-09
1.91201e-09
-0.00109272
-1.84071e-09
-1.81526e-09
0.00109272
-0.00109226
-1.21521e-06
-1.92315e-09
3.37476e-09
0.00109226
-2.6048e-07
1.21822e-06
2.59134e-07
9.04249e-07
-2.65167e-07
-9.03736e-07
2.61537e-07
-0.00109192
-1.20979e-06
-1.92425e-09
3.34461e-09
0.00109192
-2.60464e-07
1.21277e-06
2.59155e-07
9.0408e-07
-2.67831e-07
-9.03613e-07
2.64235e-07
-0.000268247
1.24365e-06
1.20991e-06
-2.35808e-07
-2.41127e-07
0.00026627
1.71803e-09
1.90046e-09
-0.00109272
-1.83175e-09
-1.81145e-09
0.00109272
-0.00109226
-1.21521e-06
-1.91902e-09
3.37751e-09
0.00109226
-2.6048e-07
1.21822e-06
2.5913e-07
9.04244e-07
-2.65162e-07
-9.03732e-07
2.61531e-07
-0.00109192
-1.20979e-06
-1.91975e-09
3.34989e-09
0.00109192
-2.60463e-07
1.21277e-06
2.59151e-07
9.04076e-07
-2.67826e-07
-9.0361e-07
2.64229e-07
-0.000268247
1.24365e-06
1.20991e-06
-2.35806e-07
-2.41125e-07
0.00026627
1.7124e-09
1.89179e-09
-0.00109272
-1.82646e-09
-1.80807e-09
0.00109272
-0.00109226
-1.21521e-06
-1.91511e-09
3.37994e-09
0.00109226
-2.60474e-07
1.21821e-06
2.59122e-07
9.04232e-07
-2.65151e-07
-9.03722e-07
2.61517e-07
-0.00109192
-1.20978e-06
-1.91639e-09
3.35077e-09
0.00109192
-2.60457e-07
1.21276e-06
2.59144e-07
9.04062e-07
-2.67814e-07
-9.036e-07
2.64215e-07
-0.000268247
1.24364e-06
1.20991e-06
-2.35802e-07
-2.41121e-07
0.00026627
1.72265e-09
1.89831e-09
-0.00109272
-1.82893e-09
-1.81224e-09
-0.00109226
-1.21519e-06
-1.91683e-09
3.37324e-09
-2.60449e-07
1.21821e-06
2.59101e-07
9.042e-07
-2.65121e-07
-9.03694e-07
2.61488e-07
-0.00109192
-1.20977e-06
-1.91687e-09
3.34814e-09
-2.60432e-07
1.21275e-06
2.59122e-07
9.0403e-07
-2.67784e-07
-9.03571e-07
2.64187e-07
-0.000268247
1.24364e-06
1.20991e-06
-2.35795e-07
-2.41113e-07
0.00026627
-1.25457e-06
-1.21552e-06
0.000268263
-0.000266276
2.36188e-07
2.46595e-07
0.00109147
-1.66975e-09
-0.00109147
3.59138e-09
-1.25166e-06
2.6718e-07
-2.68644e-07
-9.06333e-07
2.58636e-07
-2.62425e-07
9.06763e-07
1.25741e-06
0.00109192
-1.64996e-09
-0.00109192
3.55243e-09
-1.25448e-06
2.67259e-07
-2.68714e-07
-9.12039e-07
2.64179e-07
-2.67978e-07
9.12439e-07
-1.21819e-06
0.000268287
-0.000266294
2.3898e-07
2.43851e-07
0.00109254
-1.90614e-09
-0.00109254
3.34095e-09
-1.21258e-06
2.61914e-07
-2.63237e-07
-9.06407e-07
2.64262e-07
-2.67921e-07
9.07006e-07
1.25196e-06
0.00109159
-1.67523e-09
-0.00109159
3.56475e-09
-1.24906e-06
2.67238e-07
-2.68704e-07
-9.06419e-07
2.64151e-07
-2.67886e-07
9.06826e-07
-1.9065e-09
3.37952e-09
-1.2152e-06
2.61879e-07
-2.63214e-07
-9.03685e-07
2.6149e-07
9.04199e-07
-2.6516e-07
1.24653e-06
0.00109138
-1.682e-09
-0.00109138
3.57722e-09
-1.24363e-06
2.61685e-07
-2.63124e-07
-9.0371e-07
2.61355e-07
-2.65121e-07
9.04102e-07
-1.21273e-06
0.000268242
-0.000266257
2.36378e-07
2.43801e-07
-1.88349e-09
-0.00109192
3.35214e-09
-1.20977e-06
2.59103e-07
-2.60436e-07
-9.03501e-07
2.64153e-07
9.04086e-07
-2.67802e-07
1.21283e-06
0.00109244
-1.85881e-09
-0.00109244
3.3793e-09
-1.20989e-06
2.59153e-07
-2.60502e-07
-9.03797e-07
2.64249e-07
-2.67905e-07
9.04347e-07
-0.00026627
2.38703e-07
2.44041e-07
1.25165e-06
1.21257e-06
-2.33273e-07
-2.43633e-07
0.000266276
-1.25459e-06
-1.21553e-06
0.000268263
-0.000266276
2.36203e-07
2.46613e-07
3.58221e-09
0.00109147
-2.68641e-07
1.25458e-06
2.67183e-07
9.06775e-07
-2.62417e-07
-9.06312e-07
2.58645e-07
-1.25448e-06
-1.66947e-09
3.58815e-09
0.00109192
-2.68719e-07
1.26008e-06
2.69996e-07
9.12448e-07
-2.6797e-07
-9.12028e-07
2.64186e-07
0.00109147
-1.74085e-09
-0.00109147
3.55549e-09
-1.25164e-06
2.67193e-07
-2.68623e-07
-9.06314e-07
2.58666e-07
-2.62383e-07
9.06766e-07
1.2574e-06
0.00109192
-1.72853e-09
-0.00109192
3.55821e-09
-1.25715e-06
2.67266e-07
-2.71442e-07
-9.12006e-07
2.64214e-07
-2.67933e-07
9.1246e-07
-2.36031e-07
-2.40889e-07
0.000266294
-1.21818e-06
0.000268287
-0.000266294
2.38989e-07
2.43855e-07
3.33991e-09
0.00109254
-2.63235e-07
1.21552e-06
2.61916e-07
9.07012e-07
-2.67914e-07
-9.06398e-07
2.64268e-07
-1.24905e-06
-1.69377e-09
3.56398e-09
0.00109159
-2.68701e-07
1.25197e-06
2.67242e-07
9.06837e-07
-2.67875e-07
-9.06403e-07
2.64161e-07
0.00109254
-1.9956e-09
-0.00109254
3.31562e-09
-1.21256e-06
2.61923e-07
-2.6322e-07
-9.06374e-07
2.64297e-07
-2.67875e-07
9.07025e-07
1.25197e-06
0.00109159
-1.75741e-09
-0.00109159
3.53544e-09
-1.24904e-06
2.67253e-07
-2.68682e-07
-9.06395e-07
2.64185e-07
-2.67839e-07
9.06834e-07
-1.68293e-09
3.56648e-09
0.00109138
-2.63121e-07
1.24653e-06
2.6169e-07
9.0411e-07
-2.65109e-07
2.61366e-07
-9.03699e-07
-1.95689e-09
-0.00109226
3.37007e-09
-1.21518e-06
2.61885e-07
-2.63194e-07
-9.03654e-07
2.61525e-07
9.04216e-07
-2.65114e-07
1.24654e-06
0.00109138
-1.74511e-09
-0.00109138
3.5309e-09
-1.24361e-06
2.61702e-07
-2.63099e-07
-9.0368e-07
2.61389e-07
-2.65072e-07
9.04117e-07
-2.33436e-07
-2.40864e-07
0.000266257
-1.21273e-06
0.000268242
-0.000266257
2.36394e-07
2.43818e-07
-1.87957e-09
3.38084e-09
0.00109244
-2.60501e-07
1.21283e-06
2.59154e-07
9.04358e-07
-2.67895e-07
2.64259e-07
-9.03785e-07
-1.97049e-09
-0.00109192
3.32043e-09
-1.20975e-06
2.59116e-07
-2.60415e-07
-9.03469e-07
2.64187e-07
9.04105e-07
-2.67757e-07
1.21284e-06
0.00109244
-1.95615e-09
-0.00109244
3.35326e-09
-1.20988e-06
2.59166e-07
-2.60482e-07
-9.03764e-07
2.64285e-07
-2.67858e-07
9.04368e-07
-0.00026627
2.38716e-07
2.44058e-07
1.25163e-06
1.21256e-06
-2.33255e-07
-2.43613e-07
0.000266276
-1.2546e-06
-1.21555e-06
0.000268263
-0.000266275
2.3623e-07
2.4663e-07
3.55617e-09
0.00109147
-2.6862e-07
1.25459e-06
2.67197e-07
9.06772e-07
-2.62384e-07
-9.0631e-07
2.5867e-07
-1.25446e-06
-1.74002e-09
3.55771e-09
0.00109192
-2.68697e-07
1.26008e-06
2.7001e-07
9.1246e-07
-2.67931e-07
-9.12007e-07
2.64216e-07
0.00109147
-1.81e-09
-0.00109147
3.51842e-09
-1.25162e-06
2.67209e-07
-2.68608e-07
-9.06298e-07
2.58709e-07
-2.62347e-07
9.06788e-07
1.2601e-06
0.00109192
-1.78043e-09
-0.00109192
3.5408e-09
-1.25713e-06
2.70024e-07
-2.71428e-07
-9.12e-07
2.64242e-07
-2.67909e-07
9.12469e-07
-2.36002e-07
-2.40867e-07
0.000266294
-1.21819e-06
0.000268289
-0.000266294
2.39039e-07
2.43877e-07
3.31789e-09
0.00109254
-2.63219e-07
1.21553e-06
2.61925e-07
9.07022e-07
-2.67878e-07
-9.0638e-07
2.64294e-07
-1.24904e-06
-1.74685e-09
3.54613e-09
0.00109159
-2.68681e-07
1.25197e-06
2.67254e-07
9.06833e-07
-2.67841e-07
-9.06399e-07
2.64184e-07
0.00109254
-2.05607e-09
-0.00109254
3.27862e-09
-1.21254e-06
2.61941e-07
-2.63204e-07
-9.06364e-07
2.6433e-07
-2.67848e-07
9.0704e-07
1.25199e-06
0.00109159
-1.81364e-09
-0.00109159
3.50615e-09
-1.24902e-06
2.67268e-07
-2.68668e-07
-9.06383e-07
2.6422e-07
-2.67812e-07
9.06852e-07
-1.74538e-09
3.53081e-09
0.00109138
-2.63098e-07
1.24654e-06
2.61703e-07
9.04117e-07
-2.65069e-07
2.61392e-07
-9.03681e-07
-2.01729e-09
-0.00109226
3.35165e-09
-1.21516e-06
2.61896e-07
-2.63181e-07
-9.03645e-07
2.61553e-07
9.04233e-07
-2.65093e-07
1.24655e-06
0.00109138
-1.81033e-09
-0.00109138
3.50797e-09
-1.2436e-06
2.61716e-07
-2.63087e-07
-9.03666e-07
2.61421e-07
-2.65044e-07
9.04138e-07
-2.3342e-07
-2.40845e-07
0.000266257
-1.21275e-06
0.000268242
-0.000266257
2.36415e-07
2.43836e-07
-1.95601e-09
3.35819e-09
0.00109244
-2.6048e-07
1.21284e-06
2.59168e-07
9.04369e-07
-2.67858e-07
2.64287e-07
-9.03765e-07
-2.02953e-09
-0.00109192
3.29672e-09
-1.20974e-06
2.59131e-07
-2.60402e-07
-9.0346e-07
2.6422e-07
9.04119e-07
-2.6773e-07
1.21285e-06
0.00109244
-2.01453e-09
-0.00109244
3.32248e-09
-1.20986e-06
2.59182e-07
-2.60466e-07
-9.03753e-07
2.64319e-07
-2.67831e-07
9.04383e-07
-0.00026627
2.38731e-07
2.44077e-07
1.25162e-06
1.21254e-06
-2.33233e-07
-2.43595e-07
0.000266275
-1.25462e-06
-1.21557e-06
0.000268263
-0.000266275
2.36251e-07
2.46657e-07
3.52523e-09
0.00109147
-2.68605e-07
1.2546e-06
2.67212e-07
9.06785e-07
-2.62348e-07
-9.06296e-07
2.58707e-07
-1.25712e-06
-1.78475e-09
3.53095e-09
0.00109191
-2.71423e-07
1.26011e-06
2.7003e-07
9.12471e-07
-2.67903e-07
-9.12e-07
2.6425e-07
0.00109147
-1.91358e-09
-0.00109147
3.45491e-09
-1.2516e-06
2.67232e-07
-2.68588e-07
-9.06286e-07
2.58744e-07
-2.62325e-07
9.06819e-07
1.26012e-06
0.00109191
-1.86024e-09
-0.00109191
3.51093e-09
-1.25712e-06
2.70044e-07
-2.71412e-07
-9.11993e-07
2.64278e-07
-2.67883e-07
9.12488e-07
-2.36024e-07
-2.40845e-07
0.000266294
-1.2182e-06
0.000268289
-0.000266294
2.39064e-07
2.43898e-07
3.28514e-09
0.00109254
-2.63202e-07
1.21554e-06
2.61942e-07
9.07035e-07
-2.67845e-07
-9.06369e-07
2.64333e-07
-1.24902e-06
-1.78307e-09
3.51926e-09
0.00109159
-2.68666e-07
1.25199e-06
2.67269e-07
9.06845e-07
-2.6781e-07
-9.06387e-07
2.64218e-07
0.00109254
-2.16429e-09
-0.00109254
3.22671e-09
-1.21252e-06
2.61963e-07
-2.63188e-07
-9.06352e-07
2.64371e-07
-2.67814e-07
9.07065e-07
1.25201e-06
0.00109159
-1.92329e-09
-0.00109159
3.45045e-09
-1.249e-06
2.67288e-07
-2.68651e-07
-9.0637e-07
2.64255e-07
-2.67787e-07
9.06882e-07
-1.81479e-09
3.50307e-09
0.00109138
-2.63083e-07
1.24655e-06
2.61717e-07
9.04144e-07
-2.65035e-07
2.61431e-07
-9.03659e-07
-2.10976e-09
-0.00109226
3.31681e-09
-1.21515e-06
2.61911e-07
-2.6317e-07
-9.03623e-07
2.61595e-07
9.0426e-07
-2.65057e-07
1.24657e-06
0.00109138
-1.90945e-09
-0.00109138
3.46284e-09
-1.24358e-06
2.6173e-07
-2.63073e-07
-9.03643e-07
2.61457e-07
-2.65012e-07
9.04166e-07
-2.33401e-07
-2.40827e-07
0.000266257
-1.21277e-06
0.000268241
-0.000266257
2.36436e-07
2.43861e-07
-2.00162e-09
3.32563e-09
0.00109244
-2.60463e-07
1.21285e-06
2.59185e-07
9.04382e-07
-2.67824e-07
2.64326e-07
-9.03754e-07
-2.12972e-09
-0.00109192
3.23715e-09
-1.20972e-06
2.59152e-07
-2.60387e-07
-9.03448e-07
2.64259e-07
9.04143e-07
-2.67697e-07
1.21287e-06
0.00109244
-2.11482e-09
-0.00109244
3.27623e-09
-1.20985e-06
2.59201e-07
-2.60452e-07
-9.03742e-07
2.64357e-07
-2.678e-07
9.04406e-07
-0.00026627
2.38754e-07
2.44099e-07
1.2516e-06
1.21251e-06
-2.33208e-07
-2.4357e-07
0.000266275
-1.25464e-06
-1.21558e-06
0.000268262
-0.000266275
2.36286e-07
2.4669e-07
3.46495e-09
0.00109147
-2.68586e-07
1.25463e-06
2.67238e-07
9.06847e-07
-2.62315e-07
-9.06258e-07
2.58762e-07
-1.2571e-06
-1.89653e-09
3.48608e-09
0.00109191
-2.71405e-07
1.26013e-06
2.70049e-07
9.1251e-07
-2.6787e-07
-9.11978e-07
2.64296e-07
0.00109147
-2.04646e-09
-0.00109147
3.433e-09
-1.2516e-06
2.67257e-07
-2.68582e-07
-9.06231e-07
2.58795e-07
-2.62296e-07
9.06884e-07
1.26011e-06
0.00109191
-1.95214e-09
-0.00109191
3.55455e-09
-1.25712e-06
2.70045e-07
-2.71416e-07
-9.11947e-07
2.64325e-07
-2.6785e-07
9.12549e-07
-2.36e-07
-2.40828e-07
0.000266294
-1.21822e-06
0.000268289
-0.000266293
2.39092e-07
2.43909e-07
3.23913e-09
0.00109254
-2.63183e-07
1.21557e-06
2.61971e-07
9.07075e-07
-2.67815e-07
-9.06346e-07
2.64376e-07
-1.249e-06
-1.91172e-09
3.46013e-09
0.00109159
-2.68648e-07
1.25202e-06
2.67295e-07
9.06907e-07
-2.67775e-07
-9.06349e-07
2.64273e-07
0.00109254
-2.31358e-09
-0.00109254
3.2134e-09
-1.21251e-06
2.6199e-07
-2.63177e-07
-9.06304e-07
2.64421e-07
-2.67789e-07
9.07131e-07
1.25203e-06
0.00109159
-2.06894e-09
-0.00109159
3.43658e-09
-1.249e-06
2.67312e-07
-2.68647e-07
-9.06312e-07
2.6431e-07
-2.67751e-07
9.06951e-07
-1.90351e-09
3.45696e-09
0.00109138
-2.63067e-07
1.24658e-06
2.61746e-07
9.04176e-07
-2.6501e-07
2.61465e-07
-9.03639e-07
-2.10238e-09
-0.00109226
3.31204e-09
-1.21513e-06
2.61929e-07
-2.63161e-07
-9.03615e-07
2.61616e-07
9.04288e-07
-2.65049e-07
1.2466e-06
0.00109138
-1.95724e-09
-0.00109138
3.422e-09
-1.24356e-06
2.6177e-07
-2.63056e-07
-9.03632e-07
2.61485e-07
-2.65008e-07
9.04201e-07
-2.33374e-07
-2.40804e-07
0.000266257
-1.21279e-06
0.000268241
-0.000266257
2.36474e-07
2.43893e-07
-2.09093e-09
3.28905e-09
0.00109244
-2.60449e-07
1.21288e-06
2.59207e-07
9.04422e-07
-2.67795e-07
2.64369e-07
-9.03732e-07
-2.268e-09
-0.00109192
3.21239e-09
-1.20971e-06
2.5918e-07
-2.60374e-07
-9.03399e-07
2.64309e-07
9.0421e-07
-2.67672e-07
1.21289e-06
0.00109244
-2.27372e-09
-0.00109244
3.27754e-09
-1.20984e-06
2.59223e-07
-2.60447e-07
-9.03692e-07
2.64413e-07
-2.67769e-07
9.04475e-07
-0.00026627
2.38784e-07
2.44142e-07
1.25157e-06
1.21249e-06
-2.33185e-07
-2.43543e-07
0.000266275
-1.25461e-06
-1.21556e-06
0.000268262
-0.000266275
2.36294e-07
2.46686e-07
3.38698e-09
0.00109147
-2.68559e-07
1.25467e-06
2.67283e-07
9.06903e-07
-2.62277e-07
-9.06212e-07
2.58825e-07
-1.2571e-06
-2.09249e-09
3.4655e-09
0.00109191
-2.71403e-07
1.26014e-06
2.70077e-07
9.12571e-07
-2.67836e-07
-9.11927e-07
2.64349e-07
0.00109146
-1.88968e-09
-0.00109146
3.59098e-09
-1.25162e-06
2.67239e-07
-2.68604e-07
-9.06249e-07
2.58802e-07
-2.62316e-07
9.06877e-07
1.26014e-06
0.00109191
-1.8247e-09
-0.00109191
3.54942e-09
-1.2571e-06
2.70068e-07
-2.71411e-07
-9.11948e-07
2.64328e-07
-2.67861e-07
9.12551e-07
-2.3598e-07
-2.40823e-07
0.000266293
-1.21822e-06
0.000268288
-0.000266293
2.39113e-07
2.43952e-07
3.15834e-09
0.00109254
-2.63156e-07
1.21561e-06
2.62014e-07
9.07144e-07
-2.67769e-07
-9.06291e-07
2.64447e-07
-1.24898e-06
-2.12918e-09
3.39167e-09
0.00109159
-2.68624e-07
1.25205e-06
2.67337e-07
9.06962e-07
-2.67732e-07
-9.06301e-07
2.64336e-07
0.00109254
-2.10089e-09
-0.00109254
3.31386e-09
-1.21253e-06
2.61981e-07
-2.63194e-07
-9.06325e-07
2.64415e-07
-2.67814e-07
9.07113e-07
1.25201e-06
0.00109158
-1.87113e-09
-0.00109158
3.54749e-09
-1.24901e-06
2.67307e-07
-2.68658e-07
-9.0634e-07
2.64305e-07
-2.6778e-07
9.06932e-07
-2.07817e-09
3.36431e-09
0.00109138
-2.6303e-07
1.24662e-06
2.61791e-07
9.04234e-07
-2.64979e-07
2.61529e-07
-9.03602e-07
-2.10486e-09
-0.00109226
3.3437e-09
-1.21513e-06
2.61945e-07
-2.63158e-07
-9.03582e-07
2.6165e-07
9.04335e-07
-2.65038e-07
1.24657e-06
0.00109138
-1.88869e-09
-0.00109138
3.55969e-09
-1.24357e-06
2.61765e-07
-2.63062e-07
-9.03615e-07
2.61511e-07
-2.65011e-07
9.0423e-07
-2.3335e-07
-2.40778e-07
0.000266256
-1.21276e-06
0.000268241
-0.000266256
2.36473e-07
2.43901e-07
-2.34745e-09
3.22071e-09
0.00109244
-2.60426e-07
1.21291e-06
2.59248e-07
9.04491e-07
-2.67746e-07
2.64439e-07
-9.03674e-07
-2.09698e-09
-0.00109192
3.3526e-09
-1.20973e-06
2.59165e-07
-2.60395e-07
-9.03413e-07
2.6431e-07
9.042e-07
-2.6769e-07
1.21288e-06
0.00109244
-2.0647e-09
-0.00109244
3.34341e-09
-1.20984e-06
2.59226e-07
-2.60451e-07
-9.0371e-07
2.64409e-07
-2.6779e-07
9.04459e-07
-0.000266269
2.38807e-07
2.44146e-07
1.25162e-06
1.21253e-06
-2.3321e-07
-2.43581e-07
0.000266274
-1.25458e-06
-1.21556e-06
0.000268261
-0.000266274
2.36241e-07
2.46614e-07
3.46506e-09
0.00109146
-2.68602e-07
1.25464e-06
2.67265e-07
9.069e-07
-2.62305e-07
-9.06248e-07
2.58834e-07
-1.25711e-06
-1.91961e-09
3.49626e-09
0.00109191
-2.71409e-07
1.26014e-06
2.70096e-07
9.12538e-07
-2.67881e-07
-9.11978e-07
2.64333e-07
0.00109146
-1.73931e-09
-0.00109146
3.81105e-09
-1.25163e-06
2.67162e-07
-2.68669e-07
-9.06286e-07
2.58729e-07
-2.62379e-07
9.06827e-07
1.26024e-06
0.00109191
-1.95418e-09
-0.00109191
3.27996e-09
-1.25703e-06
2.70131e-07
-2.71368e-07
-9.11952e-07
2.6435e-07
-2.67853e-07
9.12556e-07
-2.35995e-07
-2.40809e-07
0.000266293
-1.2183e-06
0.000268288
-0.000266293
2.39143e-07
2.44011e-07
3.19062e-09
0.00109254
-2.63187e-07
1.2156e-06
2.62012e-07
9.07128e-07
-2.67805e-07
-9.06336e-07
2.64441e-07
-1.24901e-06
-2.05021e-09
3.42963e-09
0.00109158
-2.68653e-07
1.25204e-06
2.67334e-07
9.06951e-07
-2.67767e-07
-9.06345e-07
2.64334e-07
0.00109254
-1.79775e-09
-0.00109254
3.38009e-09
-1.21252e-06
2.61927e-07
-2.63237e-07
-9.06384e-07
2.64315e-07
-2.67893e-07
9.07037e-07
1.25199e-06
0.00109158
-1.62609e-09
-0.00109158
3.64851e-09
-1.24901e-06
2.67243e-07
-2.6871e-07
-9.06392e-07
2.64213e-07
-2.67853e-07
9.06863e-07
-2.00863e-09
3.49332e-09
0.00109138
-2.6308e-07
1.24658e-06
2.61756e-07
9.04241e-07
-2.64993e-07
2.61543e-07
-9.03616e-07
-2.41024e-09
-0.00109226
3.15842e-09
-1.21507e-06
2.61991e-07
-2.63134e-07
-9.03553e-07
2.61699e-07
9.04388e-07
-2.65016e-07
1.24656e-06
0.00109138
-1.98135e-09
-0.00109138
3.70422e-09
-1.24358e-06
2.61703e-07
-2.63119e-07
-9.03606e-07
2.61497e-07
-2.65033e-07
9.04249e-07
-2.33381e-07
-2.40804e-07
0.000266256
-1.21274e-06
0.00026824
-0.000266256
2.36409e-07
2.43836e-07
-2.25274e-09
3.24048e-09
0.00109244
-2.60448e-07
1.21291e-06
2.59251e-07
9.04473e-07
-2.67784e-07
2.6443e-07
-9.03721e-07
-1.86593e-09
-0.00109192
3.48946e-09
-1.20974e-06
2.59099e-07
-2.60449e-07
-9.03464e-07
2.64222e-07
9.04133e-07
-2.67759e-07
1.21291e-06
0.00109244
-1.78003e-09
-0.00109244
3.30569e-09
-1.20981e-06
2.592e-07
-2.60475e-07
-9.03766e-07
2.64319e-07
-2.67862e-07
9.04389e-07
-0.000266269
2.38798e-07
2.44079e-07
1.25183e-06
1.21271e-06
-2.33405e-07
-2.43789e-07
0.000266274
-1.2544e-06
-1.21533e-06
0.000268262
-0.000266275
2.35897e-07
2.46309e-07
4.20394e-09
0.00109146
-2.68864e-07
1.25437e-06
2.66955e-07
9.06553e-07
-2.62628e-07
-9.06531e-07
2.58448e-07
-1.25713e-06
-1.27804e-09
3.53012e-09
0.00109191
-2.71481e-07
1.2601e-06
2.69999e-07
9.12299e-07
-2.68064e-07
-9.12167e-07
2.64083e-07
0.00109147
-5.4843e-10
-0.00109147
3.86293e-09
-1.25196e-06
2.66994e-07
-2.68984e-07
-9.0688e-07
2.58225e-07
-2.63039e-07
9.06394e-07
1.25978e-06
0.00109191
-3.54784e-10
-0.00109191
4.20522e-09
-1.25754e-06
2.69679e-07
-2.71869e-07
-9.12591e-07
2.63676e-07
-2.68638e-07
9.12048e-07
-2.36062e-07
-2.40837e-07
0.000266293
-1.21789e-06
0.000268289
-0.000266293
2.3863e-07
2.43428e-07
3.75071e-09
0.00109254
-2.63427e-07
1.21535e-06
2.61722e-07
9.06752e-07
-2.68148e-07
-9.06642e-07
2.64022e-07
-1.24921e-06
-8.71203e-10
4.02261e-09
0.00109158
-2.68901e-07
1.25178e-06
2.67038e-07
9.06585e-07
-2.68101e-07
-9.06645e-07
2.63929e-07
0.00109254
-8.91857e-10
-0.00109254
3.70178e-09
-1.21289e-06
2.61718e-07
-2.63581e-07
-9.06927e-07
2.63851e-07
-2.68511e-07
9.06661e-07
1.25178e-06
0.00109159
-6.07997e-10
-0.00109159
3.91673e-09
-1.24937e-06
2.67044e-07
-2.69047e-07
-9.06951e-07
2.6373e-07
-2.68485e-07
9.06467e-07
-1.32629e-09
4.14303e-09
0.00109138
-2.63321e-07
1.24633e-06
2.61471e-07
9.04014e-07
-2.65209e-07
2.61281e-07
-9.03796e-07
-4.65802e-10
-0.00109226
3.94352e-09
-1.21556e-06
2.61557e-07
-2.63635e-07
-9.0426e-07
2.60973e-07
9.03759e-07
-2.65798e-07
1.24634e-06
0.00109138
-3.83148e-10
-0.00109138
3.88924e-09
-1.24395e-06
2.61488e-07
-2.63483e-07
-9.04286e-07
2.60871e-07
-2.65741e-07
9.03671e-07
-2.33581e-07
-2.41005e-07
0.000266256
-1.21254e-06
0.000268241
-0.000266257
2.36085e-07
2.43508e-07
-1.01031e-09
3.65587e-09
0.00109244
-2.60645e-07
1.21272e-06
2.59013e-07
9.04099e-07
-2.6812e-07
2.64016e-07
-9.04024e-07
-8.20259e-10
-0.00109192
3.68214e-09
-1.21008e-06
2.5891e-07
-2.60775e-07
-9.04029e-07
2.63738e-07
9.03734e-07
-2.68396e-07
1.2126e-06
0.00109244
-8.37579e-10
-0.00109244
3.8165e-09
-1.21023e-06
2.58932e-07
-2.60854e-07
-9.04322e-07
2.63833e-07
-2.6851e-07
9.04003e-07
-0.00026627
2.38351e-07
2.43752e-07
1.25181e-06
1.21276e-06
-2.33556e-07
-2.43883e-07
0.000266275
-1.25472e-06
-1.21565e-06
0.000268263
-0.000266276
2.36327e-07
2.46729e-07
3.55099e-09
0.00109147
-2.68814e-07
1.25456e-06
2.67169e-07
9.0658e-07
-2.62878e-07
-9.06711e-07
2.5842e-07
-1.25749e-06
-8.25147e-10
4.1155e-09
0.00109192
-2.71823e-07
1.25987e-06
2.69769e-07
9.12232e-07
-2.68484e-07
-9.12432e-07
2.63876e-07
0.00109147
-1.95426e-09
-0.00109147
3.29728e-09
-1.25158e-06
2.67347e-07
-2.68559e-07
-9.06344e-07
2.58775e-07
-2.62461e-07
9.06879e-07
1.26019e-06
0.00109192
-1.89718e-09
-0.00109192
3.51141e-09
-1.25714e-06
2.70126e-07
-2.71442e-07
-9.12051e-07
2.64283e-07
-2.67998e-07
9.12535e-07
-2.36432e-07
-2.41318e-07
0.000266294
-1.21829e-06
0.00026829
-0.000266294
2.39126e-07
2.43949e-07
3.47356e-09
0.00109254
-2.63436e-07
1.21547e-06
2.6187e-07
9.06852e-07
-2.68327e-07
-9.06746e-07
2.64056e-07
-1.24922e-06
-1.16285e-09
3.67015e-09
0.00109159
-2.68891e-07
1.25193e-06
2.67205e-07
9.06659e-07
-2.68307e-07
-9.06775e-07
2.63935e-07
0.00109254
-2.27044e-09
-0.00109254
3.16335e-09
-1.21252e-06
2.62064e-07
-2.63178e-07
-9.06388e-07
2.64384e-07
-2.67918e-07
9.07128e-07
1.25209e-06
0.00109159
-2.02121e-09
-0.00109159
3.35467e-09
-1.24899e-06
2.67391e-07
-2.68635e-07
-9.06407e-07
2.64278e-07
-2.67887e-07
9.06949e-07
-8.35441e-10
3.54831e-09
0.00109138
-2.63292e-07
1.24652e-06
2.61682e-07
9.03831e-07
-2.65637e-07
2.61025e-07
-9.04164e-07
-2.06862e-09
-0.00109226
3.24688e-09
-1.21514e-06
2.6202e-07
-2.63166e-07
-9.03722e-07
2.61573e-07
9.04291e-07
-2.65227e-07
1.24667e-06
0.00109138
-1.88813e-09
-0.00109138
3.30369e-09
-1.24355e-06
2.61855e-07
-2.63032e-07
-9.0373e-07
2.61445e-07
-2.6517e-07
9.04208e-07
-2.33703e-07
-2.41127e-07
0.000266257
-1.21286e-06
0.000268242
-0.000266257
2.36513e-07
2.43927e-07
-1.41065e-09
3.62475e-09
0.00109244
-2.60736e-07
1.21273e-06
2.59064e-07
9.04206e-07
-2.68311e-07
2.64054e-07
-9.04131e-07
-2.19792e-09
-0.00109192
3.11876e-09
-1.2097e-06
2.59263e-07
-2.60361e-07
-9.03495e-07
2.64272e-07
9.04206e-07
-2.67814e-07
1.21295e-06
0.00109244
-2.21443e-09
-0.00109244
3.2486e-09
-1.20985e-06
2.59286e-07
-2.60459e-07
-9.03779e-07
2.64379e-07
-2.67901e-07
9.04474e-07
-0.00026627
2.38816e-07
2.44177e-07
1.25159e-06
1.21252e-06
-2.33216e-07
-2.43562e-07
0.000266276
-1.25464e-06
-1.21559e-06
0.000268263
-0.000266276
2.36267e-07
2.46647e-07
3.36103e-09
0.00109147
-2.68575e-07
1.2547e-06
2.67322e-07
9.06887e-07
-2.62436e-07
-9.06321e-07
2.5879e-07
-1.2571e-06
-1.9569e-09
3.42463e-09
0.00109192
-2.71394e-07
1.26021e-06
2.70152e-07
9.12542e-07
-2.67961e-07
-9.12031e-07
2.64302e-07
0.00109147
-1.82469e-09
-0.00109147
3.5187e-09
-1.25165e-06
2.67252e-07
-2.68648e-07
-9.06359e-07
2.58765e-07
-2.62458e-07
9.0685e-07
1.26016e-06
0.00109192
-1.79435e-09
-0.00109192
3.48387e-09
-1.25713e-06
2.70096e-07
-2.71439e-07
-9.12063e-07
2.64255e-07
-2.67991e-07
9.12503e-07
-2.35988e-07
-2.40817e-07
0.000266294
-1.21824e-06
0.00026829
-0.000266294
2.39071e-07
2.43922e-07
3.17857e-09
0.00109254
-2.63183e-07
1.21564e-06
2.62049e-07
9.0712e-07
-2.67899e-07
-9.06383e-07
2.64387e-07
-1.249e-06
-2.00618e-09
3.38519e-09
0.00109159
-2.68644e-07
1.25208e-06
2.67373e-07
9.06946e-07
-2.67864e-07
-9.06398e-07
2.64285e-07
0.00109254
-2.03193e-09
-0.00109254
3.26402e-09
-1.21257e-06
2.61989e-07
-2.63245e-07
-9.06427e-07
2.64339e-07
-2.67933e-07
9.07069e-07
1.25202e-06
0.00109159
-1.80963e-09
-0.00109159
3.50276e-09
-1.24905e-06
2.67305e-07
-2.68713e-07
-9.06444e-07
2.64238e-07
-2.67902e-07
9.06896e-07
-1.94818e-09
3.36694e-09
0.00109138
-2.63055e-07
1.24664e-06
2.61824e-07
9.04228e-07
-2.65114e-07
2.6148e-07
-9.03691e-07
-2.08343e-09
-0.00109226
3.28394e-09
-1.21517e-06
2.61955e-07
-2.63205e-07
-9.03693e-07
2.61597e-07
9.04289e-07
-2.65158e-07
1.24658e-06
0.00109138
-1.81039e-09
-0.00109138
3.52783e-09
-1.24363e-06
2.61746e-07
-2.63138e-07
-9.03722e-07
2.61448e-07
-2.65126e-07
9.04186e-07
-2.33366e-07
-2.40802e-07
0.000266257
-1.21279e-06
0.000268242
-0.000266257
2.36438e-07
2.43855e-07
-2.19277e-09
3.23794e-09
0.00109244
-2.60451e-07
1.21294e-06
2.59281e-07
9.04468e-07
-2.67883e-07
2.64382e-07
-9.03774e-07
-2.01178e-09
-0.00109192
3.28413e-09
-1.20976e-06
2.59176e-07
-2.60441e-07
-9.03532e-07
2.64238e-07
9.04158e-07
-2.67828e-07
1.2129e-06
0.00109244
-1.95523e-09
-0.00109244
3.30664e-09
-1.20988e-06
2.59233e-07
-2.605e-07
-9.03822e-07
2.64335e-07
-2.67924e-07
9.04419e-07