/*--------------------------------*- C++ -*----------------------------------*\
| =========                 |                                                 |
| \\      /  F ield         | OpenFOAM: The Open Source CFD Toolbox           |
|  \\    /   O peration     | Version:  2206                                  |
|   \\  /    A nd           | Website:  www.openfoam.com                      |
|    \\/     M anipulation  |                                                 |
\*---------------------------------------------------------------------------*/
FoamFile
{
    version     2.0;
    format      ascii;
    arch        "LSB;label=32;scalar=64";
    class       volScalarField;
    location    "18.5";
    object      k;
}
// * * * * * * * * * * * * * * * * * * * * * * * * * * * * * * * * * * * * * //

dimensions      [0 2 -2 0 0 0 0];

internalField   nonuniform List<scalar> 
28448
(
2.95136e-05
2.92713e-05
2.9271e-05
2.89512e-05
2.95137e-05
2.92714e-05
2.92709e-05
2.89514e-05
2.95136e-05
2.92712e-05
2.92709e-05
2.89515e-05
2.95132e-05
2.92707e-05
2.92701e-05
2.89502e-05
2.95069e-05
2.92633e-05
2.92622e-05
2.89416e-05
2.95046e-05
2.92614e-05
2.92613e-05
2.89408e-05
2.95046e-05
2.92614e-05
2.92613e-05
2.89407e-05
2.95046e-05
2.92614e-05
2.92613e-05
2.89407e-05
2.95046e-05
2.92614e-05
2.92613e-05
2.89407e-05
2.95046e-05
2.92614e-05
2.92613e-05
2.89407e-05
2.95046e-05
2.92614e-05
2.92613e-05
2.89407e-05
2.95046e-05
2.92614e-05
2.92613e-05
2.89407e-05
2.95046e-05
2.92614e-05
2.92613e-05
2.89407e-05
2.95046e-05
2.92614e-05
2.92613e-05
2.89407e-05
2.95046e-05
2.92614e-05
2.92613e-05
2.89407e-05
2.95046e-05
2.92614e-05
2.92613e-05
2.89407e-05
2.95046e-05
2.92614e-05
2.92613e-05
2.89407e-05
2.95051e-05
2.92617e-05
2.89536e-05
2.9271e-05
2.9271e-05
2.89536e-05
2.92711e-05
2.92708e-05
2.92713e-05
2.92709e-05
2.89533e-05
2.9271e-05
2.92711e-05
2.89535e-05
2.89515e-05
2.89536e-05
2.9271e-05
2.9271e-05
2.92709e-05
2.92709e-05
2.89515e-05
2.89536e-05
2.92711e-05
2.9271e-05
2.92711e-05
2.92709e-05
2.92712e-05
2.92714e-05
2.92711e-05
2.89512e-05
2.89534e-05
2.92713e-05
2.92709e-05
2.92712e-05
2.89536e-05
2.89515e-05
2.89538e-05
2.92711e-05
2.9271e-05
2.9271e-05
2.9271e-05
2.89516e-05
2.89538e-05
2.92712e-05
2.9271e-05
2.92712e-05
2.92708e-05
2.92712e-05
2.92713e-05
2.9271e-05
2.89513e-05
2.89535e-05
2.92713e-05
2.92709e-05
2.92712e-05
2.89538e-05
2.89517e-05
2.89536e-05
2.92712e-05
2.92712e-05
2.92709e-05
2.92708e-05
2.89518e-05
2.89535e-05
2.92714e-05
2.92708e-05
2.92711e-05
2.92704e-05
2.9271e-05
2.9271e-05
2.92706e-05
2.89515e-05
2.89529e-05
2.92711e-05
2.92705e-05
2.92707e-05
2.89532e-05
2.89514e-05
2.89476e-05
2.92706e-05
2.92706e-05
2.92658e-05
2.92657e-05
2.89513e-05
2.89475e-05
2.92708e-05
2.92699e-05
2.92658e-05
2.92635e-05
2.92701e-05
2.92655e-05
2.92636e-05
2.89504e-05
2.8945e-05
2.92702e-05
2.92637e-05
2.92637e-05
2.89452e-05
2.89437e-05
2.89429e-05
2.92636e-05
2.92635e-05
2.92612e-05
2.92612e-05
2.89436e-05
2.89429e-05
2.92636e-05
2.92621e-05
2.92614e-05
2.9261e-05
2.92622e-05
2.92614e-05
2.92612e-05
2.89418e-05
2.89428e-05
2.92623e-05
2.92613e-05
2.92613e-05
2.89431e-05
2.89409e-05
2.8943e-05
2.92613e-05
2.92613e-05
2.92612e-05
2.92612e-05
2.89409e-05
2.8943e-05
2.92615e-05
2.92612e-05
2.92614e-05
2.92611e-05
2.92613e-05
2.92614e-05
2.92613e-05
2.89408e-05
2.89428e-05
2.92615e-05
2.92614e-05
2.92614e-05
2.89431e-05
2.8941e-05
2.89431e-05
2.92614e-05
2.92613e-05
2.92613e-05
2.92612e-05
2.89409e-05
2.8943e-05
2.92615e-05
2.92612e-05
2.92614e-05
2.92611e-05
2.92614e-05
2.92614e-05
2.92613e-05
2.89408e-05
2.89429e-05
2.92615e-05
2.92614e-05
2.92614e-05
2.89431e-05
2.8941e-05
2.8943e-05
2.92614e-05
2.92613e-05
2.92613e-05
2.92612e-05
2.8941e-05
2.8943e-05
2.92615e-05
2.92612e-05
2.92614e-05
2.92611e-05
2.92614e-05
2.92614e-05
2.92613e-05
2.89408e-05
2.89428e-05
2.92615e-05
2.92614e-05
2.92614e-05
2.89431e-05
2.8941e-05
2.8943e-05
2.92614e-05
2.92613e-05
2.92613e-05
2.92612e-05
2.8941e-05
2.8943e-05
2.92615e-05
2.92612e-05
2.92614e-05
2.92611e-05
2.92614e-05
2.92615e-05
2.92613e-05
2.89408e-05
2.89428e-05
2.92615e-05
2.92614e-05
2.92614e-05
2.89431e-05
2.8941e-05
2.8943e-05
2.92614e-05
2.92613e-05
2.92613e-05
2.92612e-05
2.89409e-05
2.8943e-05
2.92615e-05
2.92612e-05
2.92614e-05
2.92611e-05
2.92614e-05
2.92615e-05
2.92613e-05
2.89408e-05
2.89428e-05
2.92615e-05
2.92614e-05
2.92614e-05
2.89431e-05
2.8941e-05
2.8943e-05
2.92614e-05
2.92613e-05
2.92613e-05
2.92612e-05
2.8941e-05
2.8943e-05
2.92615e-05
2.92612e-05
2.92614e-05
2.92611e-05
2.92614e-05
2.92615e-05
2.92613e-05
2.89408e-05
2.89428e-05
2.92615e-05
2.92614e-05
2.92614e-05
2.89431e-05
2.8941e-05
2.8943e-05
2.92614e-05
2.92613e-05
2.92613e-05
2.92612e-05
2.89409e-05
2.8943e-05
2.92615e-05
2.92612e-05
2.92614e-05
2.92611e-05
2.92614e-05
2.92615e-05
2.92613e-05
2.89408e-05
2.89428e-05
2.92615e-05
2.92614e-05
2.92614e-05
2.89431e-05
2.8941e-05
2.8943e-05
2.92614e-05
2.92613e-05
2.92613e-05
2.92612e-05
2.8941e-05
2.8943e-05
2.92615e-05
2.92612e-05
2.92614e-05
2.92611e-05
2.92614e-05
2.92615e-05
2.92613e-05
2.89408e-05
2.89428e-05
2.92615e-05
2.92614e-05
2.92614e-05
2.89431e-05
2.8941e-05
2.8943e-05
2.92614e-05
2.92613e-05
2.92613e-05
2.92612e-05
2.8941e-05
2.8943e-05
2.92615e-05
2.92612e-05
2.92614e-05
2.92611e-05
2.92614e-05
2.92615e-05
2.92613e-05
2.89408e-05
2.89428e-05
2.92615e-05
2.92614e-05
2.92614e-05
2.89431e-05
2.8941e-05
2.8943e-05
2.92614e-05
2.92613e-05
2.92613e-05
2.92612e-05
2.89409e-05
2.8943e-05
2.92615e-05
2.92612e-05
2.92614e-05
2.92611e-05
2.92614e-05
2.92615e-05
2.92613e-05
2.89408e-05
2.89428e-05
2.92615e-05
2.92614e-05
2.92614e-05
2.89431e-05
2.8941e-05
2.8943e-05
2.92614e-05
2.92613e-05
2.92613e-05
2.92612e-05
2.8941e-05
2.8943e-05
2.92615e-05
2.92612e-05
2.92614e-05
2.92611e-05
2.92614e-05
2.92615e-05
2.92613e-05
2.89408e-05
2.89428e-05
2.92615e-05
2.92614e-05
2.92614e-05
2.89431e-05
2.8941e-05
2.8943e-05
2.92614e-05
2.92613e-05
2.92614e-05
2.89409e-05
2.92615e-05
2.92612e-05
2.92614e-05
2.92611e-05
2.92614e-05
2.92615e-05
2.89408e-05
2.89428e-05
2.92615e-05
2.92614e-05
2.92616e-05
2.89434e-05
2.89415e-05
2.92616e-05
2.92612e-05
2.89408e-05
2.95136e-05
2.95137e-05
2.95137e-05
2.95137e-05
3.04917e-05
6.74102e-05
3.04929e-05
6.7407e-05
8.41116e-05
8.41054e-05
3.04927e-05
6.74116e-05
3.04936e-05
6.74083e-05
2.95137e-05
2.95138e-05
2.95139e-05
2.95138e-05
2.95137e-05
2.95138e-05
2.95138e-05
2.82654e-05
3.01303e-05
2.9427e-05
2.92715e-05
2.82651e-05
3.01285e-05
2.94272e-05
8.41052e-05
8.40998e-05
2.82653e-05
2.94269e-05
3.01302e-05
2.9271e-05
2.8265e-05
2.9427e-05
3.01283e-05
3.31696e-05
3.31701e-05
2.89536e-05
3.31709e-05
3.31714e-05
3.0494e-05
6.74077e-05
3.04946e-05
6.74052e-05
8.41013e-05
8.40987e-05
3.04952e-05
6.74092e-05
3.04956e-05
6.74065e-05
2.95137e-05
2.95137e-05
2.95138e-05
2.95137e-05
2.95136e-05
2.95136e-05
2.95137e-05
2.8266e-05
3.01319e-05
2.94271e-05
2.92714e-05
2.82656e-05
3.01295e-05
2.94271e-05
8.40972e-05
8.40947e-05
2.82659e-05
2.94268e-05
3.01312e-05
2.9271e-05
2.82655e-05
2.94269e-05
3.01291e-05
3.31756e-05
3.31761e-05
2.89538e-05
3.3176e-05
3.31766e-05
3.04955e-05
6.74066e-05
3.04967e-05
6.74045e-05
8.40989e-05
8.4098e-05
3.04966e-05
6.7408e-05
3.04977e-05
6.74057e-05
2.95136e-05
2.95135e-05
2.95136e-05
2.95134e-05
2.95134e-05
2.95132e-05
2.95132e-05
2.82666e-05
3.01328e-05
2.94269e-05
2.92712e-05
2.82666e-05
3.01306e-05
2.94269e-05
8.4096e-05
8.40953e-05
2.82663e-05
2.94268e-05
3.01324e-05
2.92708e-05
2.82663e-05
2.94267e-05
3.01303e-05
3.31793e-05
3.31798e-05
2.89538e-05
3.31784e-05
3.31789e-05
3.04939e-05
6.74082e-05
3.04965e-05
6.74109e-05
8.41023e-05
8.4105e-05
3.04942e-05
6.74095e-05
3.0497e-05
6.74121e-05
2.95132e-05
2.95127e-05
2.95128e-05
2.95089e-05
2.95088e-05
2.95071e-05
2.95071e-05
2.82631e-05
3.0133e-05
2.94263e-05
2.92701e-05
2.82657e-05
3.0129e-05
2.94253e-05
8.4102e-05
8.41034e-05
2.82626e-05
2.94259e-05
3.01322e-05
2.92687e-05
2.82652e-05
2.94246e-05
3.01277e-05
3.31785e-05
3.3179e-05
2.89504e-05
3.31757e-05
3.31763e-05
3.0485e-05
6.74249e-05
3.04906e-05
6.74232e-05
8.41081e-05
8.41067e-05
3.04854e-05
6.74263e-05
3.04898e-05
6.74245e-05
2.95069e-05
2.95058e-05
2.95058e-05
2.95047e-05
2.95047e-05
2.95047e-05
2.95047e-05
2.8254e-05
3.01264e-05
2.94191e-05
2.92622e-05
2.82544e-05
3.01209e-05
2.94183e-05
8.4105e-05
8.41032e-05
2.82538e-05
2.94186e-05
3.01244e-05
2.92617e-05
2.82542e-05
2.94181e-05
3.012e-05
3.3169e-05
3.31695e-05
2.89432e-05
3.31656e-05
3.31661e-05
3.0483e-05
6.74247e-05
3.04848e-05
6.74226e-05
8.41073e-05
8.41063e-05
3.04839e-05
6.74262e-05
3.04854e-05
6.74239e-05
2.95048e-05
2.95048e-05
2.95048e-05
2.95046e-05
2.95047e-05
2.95047e-05
2.95047e-05
2.82539e-05
3.01216e-05
2.94177e-05
2.92615e-05
2.82536e-05
3.01188e-05
2.94178e-05
8.41044e-05
8.41029e-05
2.82537e-05
2.94177e-05
3.01215e-05
2.92614e-05
2.82535e-05
2.94178e-05
3.0119e-05
3.31662e-05
3.31667e-05
2.89431e-05
3.31649e-05
3.31654e-05
3.0483e-05
6.74245e-05
3.04846e-05
6.74225e-05
8.41073e-05
8.41063e-05
3.04838e-05
6.7426e-05
3.04852e-05
6.74239e-05
2.95048e-05
2.95048e-05
2.95048e-05
2.95046e-05
2.95047e-05
2.95047e-05
2.95047e-05
2.82539e-05
3.01213e-05
2.94177e-05
2.92615e-05
2.82537e-05
3.01187e-05
2.94178e-05
8.41043e-05
8.41029e-05
2.82537e-05
2.94177e-05
3.01214e-05
2.92615e-05
2.82536e-05
2.94178e-05
3.0119e-05
3.31661e-05
3.31666e-05
2.89431e-05
3.31648e-05
3.31654e-05
3.0483e-05
6.74245e-05
3.04846e-05
6.74225e-05
8.41073e-05
8.41063e-05
3.04838e-05
6.7426e-05
3.04852e-05
6.74238e-05
2.95048e-05
2.95048e-05
2.95048e-05
2.95046e-05
2.95047e-05
2.95047e-05
2.95047e-05
2.82539e-05
3.01213e-05
2.94177e-05
2.92615e-05
2.82537e-05
3.01187e-05
2.94178e-05
8.41043e-05
8.41029e-05
2.82537e-05
2.94177e-05
3.01214e-05
2.92615e-05
2.82535e-05
2.94178e-05
3.0119e-05
3.31661e-05
3.31666e-05
2.89431e-05
3.31648e-05
3.31654e-05
3.0483e-05
6.74245e-05
3.04846e-05
6.74225e-05
8.41073e-05
8.41063e-05
3.04838e-05
6.7426e-05
3.04852e-05
6.74238e-05
2.95048e-05
2.95048e-05
2.95048e-05
2.95046e-05
2.95047e-05
2.95047e-05
2.95047e-05
2.82539e-05
3.01213e-05
2.94177e-05
2.92615e-05
2.82537e-05
3.01187e-05
2.94178e-05
8.41043e-05
8.41029e-05
2.82537e-05
2.94177e-05
3.01214e-05
2.92615e-05
2.82535e-05
2.94178e-05
3.01189e-05
3.31661e-05
3.31666e-05
2.89431e-05
3.31649e-05
3.31653e-05
3.0483e-05
6.74245e-05
3.04846e-05
6.74225e-05
8.41073e-05
8.41063e-05
3.04838e-05
6.7426e-05
3.04852e-05
6.74238e-05
2.95048e-05
2.95048e-05
2.95048e-05
2.95046e-05
2.95047e-05
2.95047e-05
2.95047e-05
2.82539e-05
3.01213e-05
2.94177e-05
2.92615e-05
2.82537e-05
3.01187e-05
2.94178e-05
8.41043e-05
8.41029e-05
2.82537e-05
2.94177e-05
3.01214e-05
2.92615e-05
2.82536e-05
2.94178e-05
3.01189e-05
3.31661e-05
3.31666e-05
2.89431e-05
3.31649e-05
3.31653e-05
3.0483e-05
6.74245e-05
3.04845e-05
6.74225e-05
8.41073e-05
8.41063e-05
3.04838e-05
6.7426e-05
3.04852e-05
6.74238e-05
2.95048e-05
2.95048e-05
2.95048e-05
2.95046e-05
2.95047e-05
2.95047e-05
2.95047e-05
2.82539e-05
3.01213e-05
2.94177e-05
2.92615e-05
2.82537e-05
3.01187e-05
2.94178e-05
8.41043e-05
8.41029e-05
2.82536e-05
2.94177e-05
3.01214e-05
2.92615e-05
2.82535e-05
2.94178e-05
3.01189e-05
3.31661e-05
3.31666e-05
2.89431e-05
3.31649e-05
3.31653e-05
3.0483e-05
6.74245e-05
3.04845e-05
6.74225e-05
8.41073e-05
8.41063e-05
3.04838e-05
6.7426e-05
3.04852e-05
6.74238e-05
2.95048e-05
2.95048e-05
2.95048e-05
2.95046e-05
2.95047e-05
2.95047e-05
2.95047e-05
2.82539e-05
3.01213e-05
2.94177e-05
2.92615e-05
2.82537e-05
3.01187e-05
2.94178e-05
8.41043e-05
8.41029e-05
2.82535e-05
2.94177e-05
3.01214e-05
2.92615e-05
2.82534e-05
2.94178e-05
3.01189e-05
3.31661e-05
3.31666e-05
2.89431e-05
3.31648e-05
3.31653e-05
3.0483e-05
6.74245e-05
3.04845e-05
6.74225e-05
8.41073e-05
8.41063e-05
3.04838e-05
6.7426e-05
3.04852e-05
6.74238e-05
2.95048e-05
2.95048e-05
2.95048e-05
2.95046e-05
2.95047e-05
2.95047e-05
2.95047e-05
2.82538e-05
3.01213e-05
2.94177e-05
2.92615e-05
2.82537e-05
3.01187e-05
2.94178e-05
8.41043e-05
8.41029e-05
2.82534e-05
2.94177e-05
3.01214e-05
2.92615e-05
2.82533e-05
2.94178e-05
3.01189e-05
3.31661e-05
3.31666e-05
2.89431e-05
3.31648e-05
3.31653e-05
3.0483e-05
6.74245e-05
3.04846e-05
6.74225e-05
8.41073e-05
8.41063e-05
3.04838e-05
6.7426e-05
3.04852e-05
6.74238e-05
2.95048e-05
2.95048e-05
2.95048e-05
2.95046e-05
2.95047e-05
2.95047e-05
2.95047e-05
2.82538e-05
3.01213e-05
2.94177e-05
2.92615e-05
2.82537e-05
3.01187e-05
2.94178e-05
8.41043e-05
8.41029e-05
2.82533e-05
2.94177e-05
3.01214e-05
2.92615e-05
2.82532e-05
2.94178e-05
3.01189e-05
3.31661e-05
3.31666e-05
2.89431e-05
3.31649e-05
3.31653e-05
3.0483e-05
6.74245e-05
3.04846e-05
6.74225e-05
8.41073e-05
8.41063e-05
3.04838e-05
6.7426e-05
3.04852e-05
6.74238e-05
2.95048e-05
2.95048e-05
2.95048e-05
2.95046e-05
2.95047e-05
2.95047e-05
2.95047e-05
2.82539e-05
3.01213e-05
2.94177e-05
2.92615e-05
2.82537e-05
3.01187e-05
2.94178e-05
8.41043e-05
8.41029e-05
2.82533e-05
2.94176e-05
3.01214e-05
2.92615e-05
2.82531e-05
2.94178e-05
3.01189e-05
3.31661e-05
3.31666e-05
2.89431e-05
3.31649e-05
3.31653e-05
3.0483e-05
6.74245e-05
3.04846e-05
6.74225e-05
8.41073e-05
8.41063e-05
3.04838e-05
6.7426e-05
3.04852e-05
6.74238e-05
2.95048e-05
2.95048e-05
2.95048e-05
2.95046e-05
2.95047e-05
2.95047e-05
2.95047e-05
2.82539e-05
3.01213e-05
2.94177e-05
2.92615e-05
2.82537e-05
3.01187e-05
2.94178e-05
8.41043e-05
8.41029e-05
2.82533e-05
2.94176e-05
3.01214e-05
2.92615e-05
2.82532e-05
2.94178e-05
3.01189e-05
3.31661e-05
3.31666e-05
2.89431e-05
3.31649e-05
3.31653e-05
3.0483e-05
6.74245e-05
3.04845e-05
6.74225e-05
8.41073e-05
8.41063e-05
3.04838e-05
6.7426e-05
3.04852e-05
6.74238e-05
2.95048e-05
2.95048e-05
2.95048e-05
2.95047e-05
2.95052e-05
2.95047e-05
2.95049e-05
2.82539e-05
3.01213e-05
2.94177e-05
2.92615e-05
2.82537e-05
3.01187e-05
2.94178e-05
8.41043e-05
8.41029e-05
2.82533e-05
2.94176e-05
3.01214e-05
2.92615e-05
2.8253e-05
2.94178e-05
3.01189e-05
3.31661e-05
3.31666e-05
2.89431e-05
3.31648e-05
3.31653e-05
6.7426e-05
3.04852e-05
2.9505e-05
8.41043e-05
3.01217e-05
8.41119e-05
8.4112e-05
3.3166e-05
3.31661e-05
6.74086e-05
3.04911e-05
6.74111e-05
3.04913e-05
3.01273e-05
2.9427e-05
2.82655e-05
3.0128e-05
2.9427e-05
2.82657e-05
8.41121e-05
3.31665e-05
3.31618e-05
8.4108e-05
6.74098e-05
3.04921e-05
3.01281e-05
2.94272e-05
2.82669e-05
3.04924e-05
6.74092e-05
6.74139e-05
3.04912e-05
2.82659e-05
2.92708e-05
2.94269e-05
3.01273e-05
2.94269e-05
3.01294e-05
2.82657e-05
2.82655e-05
3.01274e-05
2.9427e-05
2.9427e-05
2.82652e-05
3.04924e-05
6.74086e-05
3.04913e-05
2.82656e-05
2.9271e-05
2.9427e-05
3.01274e-05
2.9427e-05
3.01293e-05
2.82655e-05
3.04923e-05
6.74105e-05
6.74149e-05
3.04913e-05
8.41048e-05
8.41122e-05
2.89499e-05
3.31645e-05
3.31674e-05
3.31636e-05
3.31664e-05
8.41083e-05
8.41151e-05
2.82654e-05
2.9271e-05
2.94269e-05
3.01275e-05
2.94269e-05
3.01294e-05
2.8265e-05
2.82656e-05
2.92711e-05
2.9427e-05
3.01278e-05
2.9427e-05
3.01298e-05
2.82654e-05
3.04923e-05
6.7411e-05
6.74153e-05
3.04912e-05
3.04922e-05
6.74124e-05
6.74167e-05
3.0491e-05
2.89501e-05
3.31675e-05
3.3168e-05
3.31665e-05
3.3167e-05
8.41083e-05
8.41152e-05
8.41085e-05
8.41153e-05
8.41114e-05
8.41051e-05
8.41115e-05
8.41052e-05
3.31681e-05
3.31681e-05
2.89536e-05
3.31695e-05
3.31695e-05
8.41007e-05
8.41052e-05
8.41008e-05
8.41053e-05
2.89516e-05
3.31728e-05
3.31728e-05
3.31716e-05
3.31717e-05
3.04919e-05
6.74123e-05
3.04935e-05
6.74099e-05
2.82657e-05
3.01304e-05
2.9427e-05
2.9271e-05
2.82659e-05
3.01284e-05
2.9427e-05
2.82659e-05
3.01312e-05
2.9427e-05
2.9271e-05
2.8266e-05
3.01291e-05
2.9427e-05
3.04937e-05
6.74059e-05
6.74081e-05
3.04927e-05
3.0494e-05
6.74087e-05
6.74109e-05
3.04929e-05
2.82662e-05
2.92709e-05
3.01289e-05
2.94269e-05
3.01313e-05
2.9427e-05
2.82661e-05
2.82664e-05
2.92709e-05
3.01297e-05
2.94269e-05
3.01322e-05
2.94269e-05
2.82662e-05
3.31687e-05
3.31645e-05
2.89536e-05
3.317e-05
3.31661e-05
8.41083e-05
8.41014e-05
8.4101e-05
8.41055e-05
2.89516e-05
3.31735e-05
3.31696e-05
3.31723e-05
3.3169e-05
8.40971e-05
8.41021e-05
2.82671e-05
3.01313e-05
2.94272e-05
2.92711e-05
2.82674e-05
3.01291e-05
2.94272e-05
3.0492e-05
6.74104e-05
3.0493e-05
6.7408e-05
2.82662e-05
2.94271e-05
3.01306e-05
2.9271e-05
2.82663e-05
2.94271e-05
3.01283e-05
3.04946e-05
6.74072e-05
6.74095e-05
3.04939e-05
2.82671e-05
2.92711e-05
3.01297e-05
2.94271e-05
3.01323e-05
2.94271e-05
2.82669e-05
3.0494e-05
6.7407e-05
6.74093e-05
3.04934e-05
2.82667e-05
2.92709e-05
2.94271e-05
3.01288e-05
2.94271e-05
3.01315e-05
2.82665e-05
3.04918e-05
6.74101e-05
3.04933e-05
6.74075e-05
2.82658e-05
2.94272e-05
3.01305e-05
2.92712e-05
2.8266e-05
2.94272e-05
3.01283e-05
3.04919e-05
6.74116e-05
3.04934e-05
6.74093e-05
2.82659e-05
2.92715e-05
3.01292e-05
2.94271e-05
3.01318e-05
2.94271e-05
2.82656e-05
3.04939e-05
6.74065e-05
6.74088e-05
3.04931e-05
2.82663e-05
2.92711e-05
2.94271e-05
3.01286e-05
2.94271e-05
3.01312e-05
2.82661e-05
3.0494e-05
6.74083e-05
6.74104e-05
3.0493e-05
3.31672e-05
3.31695e-05
2.89533e-05
3.31686e-05
3.31708e-05
8.41081e-05
8.41031e-05
8.40962e-05
8.41006e-05
2.89513e-05
3.31715e-05
3.31737e-05
3.31709e-05
3.31729e-05
8.40998e-05
8.41035e-05
2.82658e-05
2.94272e-05
3.01309e-05
2.92713e-05
2.8266e-05
2.94271e-05
3.01287e-05
3.04917e-05
6.7412e-05
3.04932e-05
6.74097e-05
3.04917e-05
6.74134e-05
3.04928e-05
6.74111e-05
2.82658e-05
2.9271e-05
2.94269e-05
3.01287e-05
2.9427e-05
3.01312e-05
2.82655e-05
2.82663e-05
2.92712e-05
2.94271e-05
3.01291e-05
2.94271e-05
3.01316e-05
2.82661e-05
3.04939e-05
6.74088e-05
6.74108e-05
3.0493e-05
3.04937e-05
6.74102e-05
6.74122e-05
3.04931e-05
8.41082e-05
8.41032e-05
8.41083e-05
8.41033e-05
2.89516e-05
3.31738e-05
3.31743e-05
3.3173e-05
3.31735e-05
8.40998e-05
8.41036e-05
8.41e-05
8.41037e-05
8.41013e-05
8.40984e-05
8.41014e-05
8.40985e-05
3.31747e-05
3.31748e-05
2.89537e-05
3.31754e-05
3.31754e-05
8.40974e-05
8.40994e-05
8.40976e-05
8.40995e-05
2.89516e-05
3.31774e-05
3.31774e-05
3.31772e-05
3.31772e-05
3.04942e-05
6.74099e-05
3.04951e-05
6.7408e-05
2.82666e-05
3.01317e-05
2.94269e-05
2.92711e-05
2.82667e-05
3.01292e-05
2.94269e-05
2.82667e-05
3.01326e-05
2.94269e-05
2.9271e-05
2.82668e-05
3.013e-05
2.94269e-05
3.04962e-05
6.74046e-05
6.74064e-05
3.0495e-05
3.04964e-05
6.74074e-05
6.74092e-05
3.04952e-05
2.82671e-05
2.92711e-05
3.01298e-05
2.94269e-05
3.01321e-05
2.94269e-05
2.82669e-05
2.82671e-05
2.9271e-05
3.01305e-05
2.94268e-05
3.01329e-05
2.94268e-05
2.8267e-05
3.31755e-05
3.3172e-05
2.89537e-05
3.3176e-05
3.31721e-05
8.4098e-05
8.40946e-05
8.40977e-05
8.40998e-05
2.89517e-05
3.3178e-05
3.31741e-05
3.31779e-05
3.31743e-05
8.40937e-05
8.4096e-05
2.82673e-05
3.01327e-05
2.94272e-05
2.92712e-05
2.82674e-05
3.01299e-05
2.94272e-05
3.04946e-05
6.74084e-05
3.04954e-05
6.74064e-05
2.8267e-05
2.94271e-05
3.01319e-05
2.9271e-05
2.82671e-05
2.9427e-05
3.01293e-05
3.04972e-05
6.74059e-05
6.74079e-05
3.04962e-05
2.82678e-05
2.92712e-05
3.01305e-05
2.94271e-05
3.0133e-05
2.94272e-05
2.82677e-05
3.04965e-05
6.74061e-05
6.74079e-05
3.04954e-05
2.82675e-05
2.92709e-05
2.94269e-05
3.01299e-05
2.9427e-05
3.01324e-05
2.82673e-05
3.04942e-05
6.74078e-05
3.04953e-05
6.74058e-05
2.82666e-05
2.94271e-05
3.01315e-05
2.92712e-05
2.82667e-05
2.94271e-05
3.01291e-05
3.04942e-05
6.74096e-05
3.04952e-05
6.74077e-05
2.82665e-05
2.92713e-05
3.01301e-05
2.9427e-05
3.01326e-05
2.9427e-05
2.82665e-05
3.04963e-05
6.74052e-05
6.74072e-05
3.0495e-05
2.82671e-05
2.92711e-05
2.9427e-05
3.01298e-05
2.9427e-05
3.0132e-05
2.82669e-05
3.04963e-05
6.74073e-05
6.7409e-05
3.04949e-05
3.31736e-05
3.31756e-05
2.89535e-05
3.31737e-05
3.3176e-05
8.41007e-05
8.40983e-05
8.40945e-05
8.40963e-05
2.89515e-05
3.31753e-05
3.31776e-05
3.31756e-05
3.31777e-05
8.40981e-05
8.40995e-05
2.82666e-05
2.94271e-05
3.0132e-05
2.92713e-05
2.82667e-05
2.9427e-05
3.01295e-05
3.04942e-05
6.741e-05
3.04952e-05
6.74081e-05
3.04943e-05
6.74114e-05
3.04951e-05
6.74095e-05
2.82664e-05
2.9271e-05
2.94268e-05
3.01298e-05
2.94269e-05
3.0132e-05
2.82663e-05
2.82671e-05
2.92712e-05
2.94269e-05
3.01303e-05
2.94269e-05
3.01325e-05
2.82669e-05
3.04963e-05
6.74077e-05
6.74094e-05
3.04949e-05
3.04962e-05
6.74091e-05
6.74108e-05
3.04951e-05
8.41008e-05
8.40983e-05
8.41009e-05
8.40985e-05
2.89518e-05
3.31777e-05
3.31783e-05
3.31777e-05
3.31783e-05
8.40981e-05
8.40996e-05
8.40983e-05
8.40997e-05
8.40988e-05
8.40976e-05
8.4099e-05
8.40978e-05
3.3179e-05
3.31791e-05
2.89539e-05
3.31788e-05
3.31788e-05
8.40999e-05
8.40993e-05
8.41002e-05
8.40995e-05
2.89518e-05
3.31784e-05
3.31784e-05
3.31801e-05
3.31802e-05
3.04958e-05
6.74087e-05
3.04972e-05
6.74071e-05
2.82673e-05
3.01327e-05
2.94269e-05
2.92712e-05
2.82675e-05
3.01305e-05
2.94269e-05
2.82675e-05
3.01335e-05
2.9427e-05
2.92711e-05
2.82675e-05
3.01312e-05
2.94269e-05
3.04975e-05
6.74054e-05
6.74059e-05
3.04952e-05
3.04977e-05
6.74078e-05
6.74085e-05
3.04954e-05
2.82673e-05
2.9271e-05
3.01305e-05
2.94267e-05
3.01333e-05
2.94268e-05
2.82664e-05
2.82675e-05
2.9271e-05
3.01313e-05
2.94267e-05
3.01341e-05
2.94268e-05
2.82666e-05
3.31797e-05
3.3176e-05
2.89538e-05
3.31793e-05
3.31754e-05
8.40955e-05
8.40939e-05
8.41002e-05
8.40996e-05
2.89517e-05
3.3179e-05
3.3175e-05
3.31808e-05
3.3177e-05
8.40966e-05
8.4096e-05
2.82674e-05
3.01337e-05
2.94271e-05
2.92714e-05
2.82681e-05
3.01312e-05
2.94271e-05
3.04958e-05
6.74076e-05
3.04973e-05
6.74061e-05
2.82673e-05
2.94269e-05
3.01331e-05
2.92708e-05
2.82678e-05
2.94269e-05
3.01304e-05
3.04982e-05
6.74065e-05
6.74072e-05
3.0496e-05
2.82672e-05
2.92713e-05
3.01313e-05
2.94268e-05
3.01343e-05
2.94269e-05
2.82666e-05
3.04973e-05
6.74087e-05
6.7408e-05
3.0495e-05
2.8267e-05
2.92706e-05
2.94266e-05
3.013e-05
2.94268e-05
3.01334e-05
2.82662e-05
3.04953e-05
6.74067e-05
3.0497e-05
6.74049e-05
2.82666e-05
2.9427e-05
3.01328e-05
2.9271e-05
2.82673e-05
2.94269e-05
3.01303e-05
3.04951e-05
6.74086e-05
3.04969e-05
6.74073e-05
2.82668e-05
2.92711e-05
3.01306e-05
2.94266e-05
3.01337e-05
2.94268e-05
2.8266e-05
3.0497e-05
6.74053e-05
6.74064e-05
3.04944e-05
2.82664e-05
2.92708e-05
2.94266e-05
3.01299e-05
2.94268e-05
3.01331e-05
2.82657e-05
3.04968e-05
6.74097e-05
6.74089e-05
3.04941e-05
3.31771e-05
3.31792e-05
2.89535e-05
3.31759e-05
3.31783e-05
8.40995e-05
8.40987e-05
8.40992e-05
8.40979e-05
2.89514e-05
3.31749e-05
3.31774e-05
3.31772e-05
3.31794e-05
8.41025e-05
8.41009e-05
2.82666e-05
2.94269e-05
3.01332e-05
2.92711e-05
2.82673e-05
2.94268e-05
3.01308e-05
3.04952e-05
6.7409e-05
3.04969e-05
6.74076e-05
3.04953e-05
6.74105e-05
3.04969e-05
6.74091e-05
2.82663e-05
2.92707e-05
2.94264e-05
3.013e-05
2.94266e-05
3.01331e-05
2.82655e-05
2.82664e-05
2.9271e-05
2.94265e-05
3.01304e-05
2.94267e-05
3.01336e-05
2.82656e-05
3.04969e-05
6.741e-05
6.74092e-05
3.04942e-05
3.04968e-05
6.74115e-05
6.74107e-05
3.04943e-05
8.40996e-05
8.40988e-05
8.40997e-05
8.4099e-05
2.89517e-05
3.31775e-05
3.3178e-05
3.31795e-05
3.318e-05
8.41025e-05
8.4101e-05
8.41027e-05
8.41011e-05
8.41023e-05
8.41047e-05
8.41026e-05
8.41049e-05
3.31794e-05
3.31794e-05
2.89522e-05
3.31773e-05
3.31773e-05
8.4107e-05
8.4107e-05
8.4107e-05
8.41071e-05
2.8949e-05
3.31739e-05
3.31739e-05
3.31781e-05
3.31781e-05
3.0494e-05
6.74099e-05
3.0497e-05
6.74127e-05
2.82654e-05
3.01333e-05
2.94265e-05
2.92701e-05
2.82663e-05
3.01296e-05
2.9426e-05
2.82654e-05
3.0134e-05
2.94265e-05
2.927e-05
2.82664e-05
3.01302e-05
2.9426e-05
3.04953e-05
6.74223e-05
6.74159e-05
3.04902e-05
3.04954e-05
6.74243e-05
6.74176e-05
3.04903e-05
2.82646e-05
2.92684e-05
3.01257e-05
2.94221e-05
3.01318e-05
2.94246e-05
2.82586e-05
2.82647e-05
2.92684e-05
3.01264e-05
2.9422e-05
3.01325e-05
2.94245e-05
2.82586e-05
3.318e-05
3.31763e-05
2.89521e-05
3.31777e-05
3.31737e-05
8.40997e-05
8.41013e-05
8.41071e-05
8.41073e-05
2.89488e-05
3.31742e-05
3.31699e-05
3.31787e-05
3.31749e-05
8.4103e-05
8.41038e-05
2.82651e-05
3.01342e-05
2.94266e-05
2.92702e-05
2.82665e-05
3.01303e-05
2.94259e-05
3.04931e-05
6.74117e-05
3.04964e-05
6.74174e-05
2.82641e-05
2.94262e-05
3.01327e-05
2.92684e-05
2.8266e-05
2.9425e-05
3.01278e-05
3.04953e-05
6.74235e-05
6.74175e-05
3.04897e-05
2.82637e-05
2.92685e-05
3.01264e-05
2.94216e-05
3.01327e-05
2.9424e-05
2.82574e-05
3.0494e-05
6.7424e-05
6.74229e-05
3.0488e-05
2.82622e-05
2.92658e-05
2.94204e-05
3.0123e-05
2.94226e-05
3.01298e-05
2.8256e-05
3.04924e-05
6.74075e-05
3.04961e-05
6.74105e-05
2.82628e-05
2.94261e-05
3.01324e-05
2.92685e-05
2.82655e-05
2.94247e-05
3.01276e-05
3.0492e-05
6.74123e-05
3.04958e-05
6.74187e-05
2.82611e-05
2.92681e-05
3.01249e-05
2.94207e-05
3.01313e-05
2.94229e-05
2.82554e-05
3.04934e-05
6.7422e-05
6.74159e-05
3.04874e-05
2.82606e-05
2.92659e-05
2.94201e-05
3.01228e-05
2.94223e-05
3.01294e-05
2.8255e-05
3.04931e-05
6.74251e-05
6.7424e-05
3.04871e-05
3.31762e-05
3.31784e-05
2.89502e-05
3.31731e-05
3.31756e-05
8.41049e-05
8.41066e-05
8.41037e-05
8.41054e-05
2.89463e-05
3.3167e-05
3.31691e-05
3.31738e-05
3.3176e-05
8.41069e-05
8.41082e-05
2.82628e-05
2.9426e-05
3.01329e-05
2.92686e-05
2.82654e-05
2.94245e-05
3.01281e-05
3.04921e-05
6.74126e-05
3.04959e-05
6.74191e-05
3.04921e-05
6.74141e-05
3.04957e-05
6.74207e-05
2.82605e-05
2.92659e-05
2.942e-05
3.01229e-05
2.9422e-05
3.01295e-05
2.8255e-05
2.82604e-05
2.9266e-05
2.942e-05
3.01233e-05
2.9422e-05
3.01299e-05
2.82549e-05
3.04931e-05
6.74256e-05
6.74245e-05
3.04871e-05
3.04928e-05
6.74271e-05
6.7426e-05
3.04871e-05
8.41049e-05
8.41067e-05
8.41052e-05
8.41069e-05
2.89465e-05
3.31692e-05
3.31697e-05
3.31761e-05
3.31766e-05
8.4107e-05
8.41084e-05
8.41071e-05
8.41085e-05
8.41082e-05
8.41065e-05
8.41083e-05
8.41066e-05
3.31734e-05
3.31735e-05
2.89436e-05
3.31667e-05
3.31668e-05
8.41061e-05
8.41077e-05
8.41062e-05
8.41078e-05
2.89412e-05
3.31651e-05
3.31652e-05
3.31673e-05
3.31674e-05
3.04853e-05
6.74265e-05
3.04909e-05
6.74255e-05
2.82541e-05
3.01272e-05
2.942e-05
2.92623e-05
2.82568e-05
3.01213e-05
2.94188e-05
2.82542e-05
3.01279e-05
2.942e-05
2.92622e-05
2.82568e-05
3.0122e-05
2.94188e-05
3.04862e-05
6.74228e-05
6.74245e-05
3.04834e-05
3.04866e-05
6.74252e-05
6.74268e-05
3.04836e-05
2.82543e-05
2.92615e-05
3.01195e-05
2.94177e-05
3.01234e-05
2.9418e-05
2.82539e-05
2.82544e-05
2.92614e-05
3.01202e-05
2.94177e-05
3.01242e-05
2.94179e-05
2.8254e-05
3.31741e-05
3.31705e-05
2.89436e-05
3.31671e-05
3.31634e-05
8.41047e-05
8.41027e-05
8.41063e-05
8.41079e-05
2.89411e-05
3.31656e-05
3.3161e-05
3.31678e-05
3.31642e-05
8.41024e-05
8.41043e-05
2.82544e-05
3.01281e-05
2.94197e-05
2.92624e-05
2.8256e-05
3.0122e-05
2.94186e-05
3.04846e-05
6.74257e-05
3.04885e-05
6.74239e-05
2.82541e-05
2.94189e-05
3.0125e-05
2.92615e-05
2.82551e-05
2.94182e-05
3.012e-05
3.04866e-05
6.74241e-05
6.74259e-05
3.04842e-05
2.82546e-05
2.92616e-05
3.01202e-05
2.94177e-05
3.01243e-05
2.94179e-05
2.82542e-05
3.04859e-05
6.74236e-05
6.74254e-05
3.04836e-05
2.82544e-05
2.92611e-05
2.94176e-05
3.0119e-05
2.94177e-05
3.01226e-05
2.82541e-05
3.04841e-05
6.74244e-05
3.04881e-05
6.74233e-05
2.82539e-05
2.94188e-05
3.01247e-05
2.92616e-05
2.82546e-05
2.94182e-05
3.012e-05
3.04839e-05
6.74266e-05
3.04878e-05
6.7425e-05
2.82542e-05
2.92616e-05
3.01192e-05
2.94177e-05
3.01232e-05
2.94179e-05
2.82537e-05
3.04856e-05
6.7423e-05
6.74248e-05
3.04832e-05
2.82542e-05
2.92612e-05
2.94177e-05
3.01191e-05
2.94177e-05
3.01224e-05
2.82538e-05
3.04855e-05
6.74247e-05
6.74263e-05
3.04831e-05
3.31672e-05
3.31689e-05
2.89429e-05
3.31625e-05
3.31655e-05
8.41081e-05
8.41064e-05
8.41029e-05
8.41049e-05
2.89407e-05
3.31618e-05
3.31649e-05
3.31637e-05
3.31665e-05
8.41062e-05
8.41077e-05
2.82539e-05
2.94187e-05
3.01251e-05
2.92618e-05
2.82546e-05
2.94181e-05
3.01204e-05
3.04839e-05
6.74271e-05
3.04878e-05
6.74255e-05
3.0484e-05
6.74286e-05
3.04877e-05
6.7427e-05
2.82541e-05
2.92614e-05
2.94177e-05
3.01191e-05
2.94178e-05
3.01225e-05
2.82536e-05
2.82542e-05
2.92613e-05
2.94177e-05
3.01195e-05
2.94177e-05
3.01229e-05
2.82539e-05
3.04855e-05
6.74252e-05
6.74268e-05
3.04832e-05
3.04854e-05
6.74266e-05
6.74283e-05
3.04833e-05
8.41083e-05
8.41066e-05
8.41083e-05
8.41066e-05
2.89411e-05
3.3165e-05
3.31655e-05
3.31666e-05
3.31671e-05
8.41064e-05
8.41079e-05
8.41064e-05
8.41079e-05
8.41074e-05
8.4106e-05
8.41076e-05
8.41061e-05
3.31663e-05
3.31664e-05
2.89431e-05
3.31649e-05
3.3165e-05
8.41059e-05
8.41073e-05
8.41061e-05
8.41075e-05
2.89411e-05
3.31649e-05
3.3165e-05
3.31661e-05
3.31663e-05
3.04833e-05
6.74265e-05
3.04854e-05
6.7425e-05
2.82539e-05
3.01221e-05
2.94178e-05
2.92613e-05
2.82542e-05
3.0119e-05
2.94178e-05
2.82541e-05
3.01229e-05
2.94178e-05
2.92613e-05
2.82544e-05
3.01198e-05
2.94178e-05
3.04849e-05
6.74225e-05
6.74239e-05
3.0483e-05
3.04852e-05
6.7425e-05
6.74264e-05
3.04832e-05
2.82542e-05
2.92613e-05
3.01189e-05
2.94177e-05
3.01218e-05
2.94178e-05
2.82538e-05
2.82543e-05
2.92613e-05
3.01197e-05
2.94177e-05
3.01226e-05
2.94178e-05
2.8254e-05
3.31668e-05
3.31625e-05
2.89431e-05
3.31654e-05
3.31608e-05
8.41041e-05
8.41023e-05
8.41062e-05
8.41076e-05
2.89411e-05
3.31653e-05
3.31609e-05
3.31667e-05
3.31624e-05
8.41023e-05
8.41041e-05
2.82542e-05
3.0123e-05
2.94178e-05
2.92615e-05
2.82545e-05
3.01198e-05
2.94178e-05
3.04834e-05
6.74251e-05
3.04852e-05
6.74235e-05
2.82541e-05
2.94178e-05
3.01219e-05
2.92612e-05
2.82544e-05
2.94178e-05
3.01188e-05
3.04856e-05
6.74239e-05
6.74254e-05
3.04838e-05
2.82545e-05
2.92614e-05
3.01197e-05
2.94177e-05
3.01228e-05
2.94178e-05
2.82542e-05
3.04851e-05
6.74234e-05
6.7425e-05
3.04834e-05
2.82544e-05
2.92611e-05
2.94177e-05
3.01188e-05
2.94177e-05
3.01218e-05
2.82541e-05
3.04831e-05
6.74245e-05
3.04851e-05
6.74228e-05
2.82539e-05
2.94178e-05
3.01218e-05
2.92613e-05
2.82541e-05
2.94178e-05
3.01189e-05
3.0483e-05
6.74261e-05
3.0485e-05
6.74246e-05
2.82544e-05
2.92615e-05
3.01187e-05
2.94177e-05
3.01217e-05
2.94178e-05
2.82538e-05
3.0485e-05
6.74228e-05
6.74243e-05
3.04831e-05
2.82542e-05
2.92613e-05
2.94177e-05
3.01189e-05
2.94178e-05
3.01217e-05
2.82538e-05
3.04849e-05
6.74246e-05
6.7426e-05
3.0483e-05
3.31633e-05
3.31661e-05
2.89429e-05
3.31618e-05
3.31648e-05
8.41076e-05
8.41062e-05
8.41028e-05
8.41047e-05
2.89408e-05
3.31618e-05
3.31648e-05
3.31633e-05
3.31661e-05
8.41062e-05
8.41076e-05
2.82539e-05
2.94178e-05
3.01223e-05
2.92615e-05
2.82542e-05
2.94178e-05
3.01194e-05
3.04831e-05
6.74265e-05