/*--------------------------------*- C++ -*----------------------------------*\
| =========                 |                                                 |
| \\      /  F ield         | OpenFOAM: The Open Source CFD Toolbox           |
|  \\    /   O peration     | Version:  2206                                  |
|   \\  /    A nd           | Website:  www.openfoam.com                      |
|    \\/     M anipulation  |                                                 |
\*---------------------------------------------------------------------------*/
FoamFile
{
    version     2.0;
    format      ascii;
    arch        "LSB;label=32;scalar=64";
    class       volScalarField;
    location    "15.5";
    object      nut;
}
// * * * * * * * * * * * * * * * * * * * * * * * * * * * * * * * * * * * * * //

dimensions      [0 2 -1 0 0 0 0];

internalField   nonuniform List<scalar> 
28897
(
0.000229287
0.00021811
0.000218104
0.000203248
0.000229287
0.00021811
0.000218101
0.000203246
0.000229285
0.000218105
0.0002181
0.000203242
0.000229259
0.000218063
0.000218052
0.000203163
0.000229271
0.000218058
0.000218055
0.000203168
0.000229272
0.000218059
0.000218055
0.000203159
0.000229272
0.00021806
0.000218056
0.000203163
0.000229272
0.00021806
0.000218056
0.000203162
0.000229272
0.00021806
0.000218056
0.000203162
0.000229272
0.00021806
0.000218056
0.000203162
0.000229272
0.00021806
0.000218056
0.000203162
0.000229272
0.00021806
0.000218056
0.000203162
0.000229272
0.00021806
0.000218056
0.000203162
0.000229272
0.00021806
0.000218056
0.000203162
0.000229272
0.00021806
0.000218056
0.000203162
0.000229272
0.00021806
0.000218056
0.000203162
0.000229272
0.00021806
0.000218056
0.000203162
0.000229273
0.000218061
0.000218056
0.000203162
0.000203363
0.000218099
0.000218098
0.00020337
0.000218106
0.000218093
0.00021811
0.000218099
0.000203358
0.000218104
0.000218105
0.000203362
0.000203251
0.000203361
0.0002181
0.000218099
0.000218099
0.000218099
0.000203256
0.000203364
0.000218107
0.000218094
0.000218106
0.000218093
0.0002181
0.00021811
0.0002181
0.000203246
0.000203355
0.000218106
0.000218101
0.000218105
0.00020336
0.000203249
0.000203357
0.000218097
0.000218098
0.000218096
0.000218096
0.000203252
0.000203361
0.000218104
0.000218091
0.000218103
0.000218091
0.0002181
0.000218106
0.000218099
0.000203244
0.000203351
0.000218103
0.000218101
0.000218102
0.000203358
0.000203245
0.000203297
0.000218095
0.000218095
0.000218058
0.000218066
0.000203248
0.00020332
0.000218102
0.000218089
0.000218065
0.000218052
0.000218097
0.00021808
0.000218062
0.000203239
0.000203292
0.000218101
0.000218064
0.000218065
0.000203298
0.000203165
0.000203281
0.000218048
0.000218053
0.000218049
0.000218047
0.000203187
0.000203281
0.000218055
0.000218041
0.000218056
0.000218042
0.00021805
0.000218055
0.000218048
0.00020316
0.000203276
0.000218054
0.000218053
0.000218054
0.00020328
0.000203171
0.000203276
0.00021805
0.000218049
0.000218051
0.00021805
0.000203171
0.000203281
0.000218058
0.000218044
0.000218058
0.000218044
0.00021805
0.000218059
0.00021805
0.000203166
0.000203271
0.000218056
0.000218055
0.000218056
0.000203274
0.000203163
0.000203279
0.000218051
0.00021805
0.000218051
0.00021805
0.000203167
0.000203281
0.000218058
0.000218045
0.000218058
0.000218045
0.000218051
0.00021806
0.000218051
0.000203159
0.000203273
0.000218057
0.000218057
0.000218057
0.000203278
0.000203167
0.000203277
0.000218051
0.00021805
0.000218051
0.00021805
0.00020317
0.000203279
0.000218058
0.000218045
0.000218058
0.000218045
0.000218051
0.00021806
0.000218051
0.000203162
0.000203272
0.000218057
0.000218057
0.000218057
0.000203277
0.000203166
0.000203277
0.000218051
0.00021805
0.000218051
0.00021805
0.000203168
0.00020328
0.000218058
0.000218045
0.000218058
0.000218045
0.000218051
0.00021806
0.000218051
0.000203161
0.000203272
0.000218057
0.000218057
0.000218057
0.000203276
0.000203165
0.000203277
0.000218051
0.00021805
0.000218051
0.00021805
0.000203168
0.00020328
0.000218058
0.000218045
0.000218058
0.000218045
0.000218051
0.00021806
0.000218051
0.00020316
0.000203272
0.000218057
0.000218057
0.000218057
0.000203276
0.000203165
0.000203277
0.000218051
0.00021805
0.000218051
0.00021805
0.000203168
0.00020328
0.000218058
0.000218045
0.000218058
0.000218045
0.000218051
0.00021806
0.000218051
0.00020316
0.000203272
0.000218057
0.000218056
0.000218057
0.000203276
0.000203165
0.000203276
0.000218052
0.000218051
0.000218051
0.00021805
0.000203167
0.000203279
0.000218058
0.000218045
0.000218058
0.000218045
0.000218051
0.00021806
0.000218051
0.00020316
0.000203272
0.000218057
0.000218056
0.000218057
0.000203276
0.000203165
0.000203277
0.000218052
0.00021805
0.000218051
0.00021805
0.000203168
0.000203279
0.000218058
0.000218045
0.000218058
0.000218045
0.000218051
0.00021806
0.000218051
0.00020316
0.000203272
0.000218057
0.000218056
0.000218057
0.000203276
0.000203165
0.000203277
0.000218052
0.00021805
0.000218051
0.00021805
0.000203167
0.00020328
0.000218058
0.000218045
0.000218057
0.000218045
0.000218051
0.00021806
0.000218051
0.00020316
0.000203272
0.000218057
0.000218056
0.000218057
0.000203276
0.000203165
0.000203277
0.000218052
0.00021805
0.000218052
0.00021805
0.000203168
0.00020328
0.000218058
0.000218045
0.000218057
0.000218045
0.000218051
0.000218061
0.000218051
0.00020316
0.000203272
0.000218057
0.000218056
0.000218057
0.000203276
0.000203166
0.000203277
0.000218052
0.00021805
0.000218052
0.00021805
0.000203168
0.00020328
0.000218058
0.000218045
0.000218057
0.000218045
0.000218051
0.000218061
0.000218051
0.00020316
0.000203272
0.000218057
0.000218056
0.000218057
0.000203276
0.000203165
0.000203277
0.000218052
0.00021805
0.000218052
0.00021805
0.000203168
0.00020328
0.000218058
0.000218045
0.000218057
0.000218045
0.000218051
0.000218061
0.000218051
0.00020316
0.000203272
0.000218057
0.000218056
0.000218057
0.000203276
0.000203166
0.000203277
0.000218052
0.00021805
0.000218052
0.00021805
0.000203168
0.00020328
0.000218058
0.000218045
0.000218058
0.000218045
0.000218051
0.00021806
0.000218051
0.00020316
0.000203272
0.000218057
0.000218056
0.000218057
0.000203276
0.000203166
0.000218053
0.000218051
0.000203168
0.000218058
0.000218046
0.000218052
0.000203161
0.000218058
0.000229287
0.000229287
0.000229286
0.000229287
5.70752e-05
4.78722e-05
5.70586e-05
4.78711e-05
2.60951e-05
2.60939e-05
5.70825e-05
4.78703e-05
5.70666e-05
4.78693e-05
0.000229288
0.000229286
0.000229287
0.000229287
0.000229288
0.000229286
0.000229287
0.000135627
6.90311e-05
0.00022596
0.000218111
0.000135597
6.90493e-05
0.000225961
2.60917e-05
2.60906e-05
0.000135616
0.000225958
6.90275e-05
0.000218101
0.000135589
0.000225958
6.90442e-05
3.85242e-05
3.85149e-05
0.000203361
3.85321e-05
3.85229e-05
5.70838e-05
4.78714e-05
5.70711e-05
4.78705e-05
2.60933e-05
2.60929e-05
5.70916e-05
4.78696e-05
5.70798e-05
4.78687e-05
0.000229288
0.000229286
0.000229287
0.000229286
0.000229286
0.000229285
0.000229286
0.000135626
6.90285e-05
0.00022596
0.000218108
0.000135598
6.90525e-05
0.000225958
2.60903e-05
2.60899e-05
0.000135624
0.000225956
6.90309e-05
0.000218101
0.00013559
0.000225956
6.90541e-05
3.85344e-05
3.8526e-05
0.000203359
3.8541e-05
3.85326e-05
5.70743e-05
4.78714e-05
5.70738e-05
4.78718e-05
2.6093e-05
2.60932e-05
5.70819e-05
4.78696e-05
5.70827e-05
4.787e-05
0.000229286
0.000229284
0.000229285
0.000229261
0.000229264
0.00022926
0.000229261
0.000135613
6.90365e-05
0.000225956
0.000218103
0.000135596
6.90524e-05
0.000225954
2.60904e-05
2.60909e-05
0.000135612
0.000225955
6.90367e-05
0.000218096
0.000135597
0.000225952
6.90455e-05
3.85404e-05
3.85311e-05
0.000203346
3.85393e-05
3.85285e-05
5.70233e-05
4.78799e-05
5.70297e-05
4.78796e-05
2.60955e-05
2.60955e-05
5.70311e-05
4.7878e-05
5.70374e-05
4.78777e-05
0.000229262
0.000229259
0.00022926
0.000229269
0.00022927
0.000229269
0.00022927
0.000135507
6.9001e-05
0.000225925
0.000218056
0.000135521
6.89995e-05
0.000225924
2.60929e-05
2.60926e-05
0.000135507
0.000225921
6.89896e-05
0.00021805
0.000135503
0.000225921
6.89935e-05
3.8519e-05
3.85072e-05
0.000203273
3.85061e-05
3.84965e-05
5.70196e-05
4.78801e-05
5.70093e-05
4.78793e-05
2.60956e-05
2.60954e-05
5.70278e-05
4.78783e-05
5.70185e-05
4.78774e-05
0.000229272
0.000229271
0.000229271
0.000229272
0.000229272
0.000229271
0.000229272
0.000135506
6.89656e-05
0.000225931
0.000218059
0.000135477
6.89843e-05
0.000225932
2.60928e-05
2.60925e-05
0.000135509
0.00022593
6.89681e-05
0.000218056
0.000135479
0.000225931
6.89867e-05
3.84988e-05
3.84914e-05
0.000203281
3.85025e-05
3.8495e-05
5.70195e-05
4.788e-05
5.70091e-05
4.78792e-05
2.60956e-05
2.60954e-05
5.70278e-05
4.78781e-05
5.70184e-05
4.78774e-05
0.000229272
0.000229271
0.000229272
0.000229272
0.000229272
0.000229271
0.000229272
0.000135505
6.89638e-05
0.000225931
0.00021806
0.000135477
6.89839e-05
0.000225932
2.60927e-05
2.60925e-05
0.000135508
0.00022593
6.89676e-05
0.000218056
0.00013548
0.000225931
6.89867e-05
3.84988e-05
3.84914e-05
0.000203276
3.85026e-05
3.8495e-05
5.70195e-05
4.788e-05
5.70091e-05
4.78792e-05
2.60956e-05
2.60954e-05
5.70278e-05
4.78781e-05
5.70184e-05
4.78774e-05
0.000229273
0.000229272
0.000229272
0.000229272
0.000229272
0.000229271
0.000229272
0.000135505
6.89638e-05
0.000225932
0.00021806
0.000135477
6.89839e-05
0.000225932
2.60927e-05
2.60925e-05
0.000135509
0.000225931
6.89676e-05
0.000218057
0.00013548
0.000225931
6.89867e-05
3.84988e-05
3.84914e-05
0.000203276
3.85026e-05
3.8495e-05
5.70195e-05
4.788e-05
5.70091e-05
4.78792e-05
2.60956e-05
2.60954e-05
5.70278e-05
4.78781e-05
5.70184e-05
4.78774e-05
0.000229273
0.000229271
0.000229272
0.000229272
0.000229272
0.000229271
0.000229272
0.000135506
6.89638e-05
0.000225931
0.00021806
0.000135477
6.89839e-05
0.000225932
2.60927e-05
2.60925e-05
0.000135509
0.000225931
6.89676e-05
0.000218057
0.00013548
0.000225931
6.89867e-05
3.84989e-05
3.84914e-05
0.000203277
3.85026e-05
3.8495e-05
5.70196e-05
4.788e-05
5.70091e-05
4.78792e-05
2.60956e-05
2.60954e-05
5.70278e-05
4.78781e-05
5.70184e-05
4.78774e-05
0.000229273
0.000229271
0.000229272
0.000229272
0.000229272
0.000229271
0.000229272
0.000135506
6.89638e-05
0.000225932
0.00021806
0.000135477
6.89839e-05
0.000225932
2.60927e-05
2.60925e-05
0.000135509
0.000225931
6.89676e-05
0.000218057
0.00013548
0.000225931
6.89867e-05
3.84989e-05
3.84914e-05
0.000203277
3.85026e-05
3.8495e-05
5.70196e-05
4.788e-05
5.70091e-05
4.78792e-05
2.60956e-05
2.60954e-05
5.70278e-05
4.78781e-05
5.70184e-05
4.78774e-05
0.000229273
0.000229271
0.000229272
0.000229272
0.000229272
0.000229271
0.000229272
0.000135506
6.89638e-05
0.000225932
0.00021806
0.000135477
6.89839e-05
0.000225932
2.60927e-05
2.60925e-05
0.000135508
0.000225931
6.89675e-05
0.000218056
0.00013548
0.000225931
6.89869e-05
3.84989e-05
3.84914e-05
0.000203277
3.85026e-05
3.84951e-05
5.70196e-05
4.78804e-05
5.70091e-05
4.788e-05
2.60952e-05
2.6095e-05
5.70278e-05
4.78778e-05
5.70184e-05
4.78768e-05
0.000229273
0.000229271
0.000229272
0.000229272
0.000229272
0.000229271
0.000229272
0.000135506
6.89638e-05
0.000225932
0.00021806
0.000135477
6.89839e-05
0.000225932
2.60927e-05
2.60925e-05
0.000135509
0.000225931
6.89677e-05
0.000218056
0.00013548
0.000225931
6.8987e-05
3.84989e-05
3.84914e-05
0.000203277
3.85026e-05
3.8495e-05
5.70196e-05
4.78811e-05
5.70091e-05
4.78804e-05
2.60951e-05
2.60949e-05
5.70278e-05
4.78773e-05
5.70184e-05
4.78765e-05
0.000229273
0.000229271
0.000229272
0.000229272
0.000229272
0.000229271
0.000229272
0.000135506
6.89638e-05
0.000225932
0.00021806
0.000135477
6.89839e-05
0.000225932
2.60927e-05
2.60925e-05
0.000135508
0.000225931
6.89677e-05
0.000218056
0.000135479
0.000225931
6.8987e-05
3.84989e-05
3.84914e-05
0.000203277
3.85026e-05
3.8495e-05
5.70196e-05
4.78812e-05
5.70091e-05
4.78805e-05
2.6095e-05
2.60949e-05
5.70278e-05
4.78772e-05
5.70184e-05
4.78765e-05
0.000229273
0.000229271
0.000229272
0.000229272
0.000229272
0.000229271
0.000229272
0.000135506
6.89638e-05
0.000225931
0.00021806
0.000135477
6.89839e-05
0.000225932
2.60927e-05
2.60925e-05
0.000135507
0.000225931
6.89677e-05
0.000218056
0.000135477
0.000225931
6.8987e-05
3.84989e-05
3.84914e-05
0.000203277
3.85026e-05
3.84951e-05
5.70196e-05
4.78812e-05
5.70091e-05
4.78805e-05
2.6095e-05
2.60948e-05
5.70278e-05
4.78772e-05
5.70184e-05
4.78765e-05
0.000229273
0.000229271
0.000229272
0.000229272
0.000229272
0.000229271
0.000229272
0.000135506
6.89638e-05
0.000225932
0.00021806
0.000135477
6.89839e-05
0.000225932
2.60927e-05
2.60925e-05
0.000135506
0.000225931
6.89678e-05
0.000218056
0.000135477
0.000225931
6.8987e-05
3.84989e-05
3.84914e-05
0.000203277
3.85026e-05
3.84951e-05
5.70196e-05
4.78812e-05
5.70091e-05
4.78805e-05
2.6095e-05
2.60948e-05
5.70279e-05
4.78772e-05
5.70184e-05
4.78765e-05
0.000229273
0.000229271
0.000229272
0.000229272
0.000229272
0.000229271
0.000229272
0.000135505
6.89638e-05
0.000225932
0.000218061
0.000135477
6.89839e-05
0.000225932
2.60927e-05
2.60925e-05
0.000135506
0.000225931
6.89678e-05
0.000218056
0.000135477
0.000225931
6.89871e-05
3.84988e-05
3.84914e-05
0.000203277
3.85026e-05
3.8495e-05
5.70196e-05
4.78812e-05
5.70091e-05
4.78805e-05
2.6095e-05
2.60948e-05
5.70279e-05
4.78773e-05
5.70184e-05
4.78765e-05
0.000229273
0.000229271
0.000229272
0.000229272
0.000229272
0.000229271
0.000229272
0.000135506
6.89638e-05
0.000225932
0.000218061
0.000135477
6.89839e-05
0.000225932
2.60927e-05
2.60925e-05
0.000135506
0.000225931
6.89678e-05
0.000218056
0.000135477
0.000225931
6.89871e-05
3.84988e-05
3.84914e-05
0.000203277
3.85026e-05
3.8495e-05
5.70196e-05
4.78812e-05
5.70091e-05
4.78805e-05
2.6095e-05
2.60948e-05
5.70279e-05
4.78772e-05
5.70184e-05
4.78765e-05
0.000229273
0.000229271
0.000229272
0.000229272
0.000229272
0.000229271
0.000229272
0.000135506
6.89638e-05
0.000225932
0.000218061
0.000135477
6.89839e-05
0.000225932
2.60927e-05
2.60925e-05
0.000135506
0.000225931
6.89678e-05
0.000218056
0.000135477
0.000225931
6.89871e-05
3.84988e-05
3.84914e-05
0.000203277
3.85026e-05
3.8495e-05
4.78812e-05
5.70091e-05
2.6095e-05
4.78773e-05
5.70184e-05
0.000229273
0.000229272
0.000229273
6.89639e-05
0.000225932
0.000135477
2.60927e-05
0.000225932
6.89679e-05
0.000135477
3.84989e-05
3.84914e-05
2.60944e-05
2.60956e-05
2.60933e-05
2.60945e-05
0.00020325
3.85176e-05
3.85182e-05
3.85065e-05
3.85062e-05
5.70485e-05
4.78715e-05
4.78729e-05
5.70662e-05
5.70415e-05
4.7873e-05
4.78742e-05
5.70665e-05
0.000135594
0.000218099
6.90438e-05
0.000225958
6.90231e-05
0.000225958
0.000135617
0.000135596
0.000218099
6.90473e-05
0.000225958
6.90303e-05
0.000225958
0.00013562
2.60952e-05
3.85174e-05
3.85154e-05
2.60955e-05
5.70511e-05
4.78697e-05
4.78711e-05
5.7073e-05
0.000135595
0.000218106
6.90446e-05
0.000225959
6.90268e-05
0.000225959
0.00013562
5.70503e-05
4.78666e-05
4.7868e-05
5.70711e-05
0.000135594
0.000218093
0.000225957
6.90328e-05
0.000225957
6.90115e-05
0.000135618
6.90509e-05
0.00022596
0.00022596
0.000135624
4.78711e-05
5.70758e-05
0.000218099
0.000225959
6.90476e-05
0.000225959
0.000135624
4.7869e-05
5.70754e-05
2.60917e-05
2.60929e-05
0.000203246
3.85078e-05
3.85244e-05
3.84957e-05
3.85123e-05
2.60942e-05
2.60953e-05
0.000135596
0.000218104
0.000225958
6.90474e-05
0.000225958
6.90304e-05
0.000135617
0.000135594
0.000218105
0.000225958
6.90437e-05
0.000225959
6.90254e-05
0.00013562
5.70511e-05
4.78694e-05
4.78706e-05
5.70718e-05
5.70514e-05
4.78691e-05
4.78704e-05
5.70725e-05
0.000203249
3.85262e-05
3.8517e-05
3.8505e-05
2.60941e-05
2.60931e-05
2.60942e-05
2.60944e-05
2.60934e-05
2.60932e-05
2.60923e-05
3.85165e-05
3.85174e-05
0.000203362
3.85228e-05
3.85242e-05
2.60929e-05
2.60935e-05
2.60918e-05
2.60923e-05
0.00020325
3.85278e-05
3.85296e-05
3.85215e-05
3.85233e-05
5.70757e-05
4.78733e-05
5.70616e-05
4.78726e-05
0.000135617
6.9026e-05
0.000225959
0.0002181
0.000135595
6.90409e-05
0.000225959
0.000135619
6.90303e-05
0.000225959
0.000218099
0.000135597
6.9044e-05
0.000225959
5.7069e-05
4.78707e-05
4.78714e-05
5.70804e-05
5.70694e-05
4.78722e-05
4.78729e-05
5.70808e-05
0.000135595
0.0002181
6.90442e-05
0.000225958
6.90239e-05
0.000225959
0.000135619
0.000135596
0.000218099
6.9048e-05
0.000225958
6.90283e-05
0.000225959
0.00013562
3.85163e-05
3.85142e-05
0.000203365
3.85238e-05
3.85205e-05
2.60955e-05
2.60942e-05
2.60932e-05
2.60939e-05
0.000203253
3.85298e-05
3.85257e-05
3.85229e-05
3.85194e-05
2.60934e-05
2.60942e-05
0.000135619
6.90274e-05
0.00022596
0.000218107
0.000135598
6.90416e-05
0.000225959
5.70803e-05
4.78669e-05
5.70671e-05
4.78662e-05
0.000135617
0.000225957
6.90156e-05
0.000218094
0.000135596
0.000225957
6.9032e-05
5.70774e-05
4.78689e-05
4.78696e-05
5.70879e-05
0.000135597
0.000218107
6.90452e-05
0.000225959
6.90256e-05
0.00022596
0.00013562
5.70752e-05
4.78658e-05
4.78665e-05
5.70857e-05
0.000135595
0.000218094
0.000225957
6.90339e-05
0.000225957
6.90148e-05
0.000135619
5.70796e-05
4.78716e-05
5.70689e-05
4.78708e-05
0.000135627
0.00022596
6.90325e-05
0.0002181
0.000135602
0.00022596
6.9052e-05
5.70793e-05
4.78692e-05
5.70685e-05
4.78686e-05
0.000135605
0.00021811
6.90476e-05
0.000225961
6.90313e-05
0.000225961
0.000135626
5.70726e-05
4.78704e-05
4.78711e-05
5.70829e-05
0.000135605
0.000218101
0.00022596
6.90554e-05
0.000225961
6.90367e-05
0.000135628
5.70723e-05
4.78683e-05
4.78689e-05
5.70826e-05
3.85064e-05
3.85234e-05
0.000203357
3.85135e-05
3.85304e-05
2.60941e-05
2.60932e-05
2.60901e-05
2.60908e-05
0.000203245
3.85186e-05
3.85357e-05
3.85118e-05
3.85292e-05
2.60927e-05
2.60932e-05
0.000135618
0.000225959
6.90265e-05
0.000218106
0.000135595
0.000225959
6.9041e-05
5.70808e-05
4.78696e-05
5.70678e-05
4.7869e-05
5.70818e-05
4.78693e-05
5.70684e-05
4.78687e-05
0.000135593
0.000218101
0.000225956
6.90481e-05
0.000225958
6.90285e-05
0.000135616
0.000135594
0.000218106
0.000225958
6.90443e-05
0.000225959
6.90247e-05
0.000135619
5.70756e-05
4.78686e-05
4.78692e-05
5.70862e-05
5.70764e-05
4.78683e-05
4.78689e-05
5.70872e-05
2.6094e-05
2.60931e-05
2.6093e-05
2.60921e-05
0.00020325
3.85368e-05
3.85282e-05
3.85308e-05
3.85218e-05
2.60925e-05
2.60931e-05
2.60916e-05
2.60921e-05
2.60931e-05
2.60927e-05
2.60919e-05
2.60916e-05
3.85263e-05
3.85286e-05
0.00020336
3.85321e-05
3.8534e-05
2.60927e-05
2.60929e-05
2.60917e-05
2.60918e-05
0.000203248
3.85349e-05
3.85366e-05
3.85299e-05
3.85326e-05
5.70843e-05
4.78725e-05
5.70741e-05
4.78719e-05
0.000135624
6.90287e-05
0.000225958
0.000218097
0.000135598
6.905e-05
0.000225958
0.000135627
6.90337e-05
0.000225958
0.000218098
0.0001356
6.90541e-05
0.000225958
5.70764e-05
4.78705e-05
4.78709e-05
5.70848e-05
5.70768e-05
4.78718e-05
4.78723e-05
5.70851e-05
0.000135597
0.000218097
6.90523e-05
0.000225957
6.90339e-05
0.000225957
0.000135622
0.000135599
0.000218098
6.9057e-05
0.000225957
6.90392e-05
0.000225958
0.000135621
3.85286e-05
3.85243e-05
0.000203365
3.85349e-05
3.85308e-05
2.60936e-05
2.60931e-05
2.60927e-05
2.6093e-05
0.000203253
3.85384e-05
3.85344e-05
3.85334e-05
3.85289e-05
2.6093e-05
2.60933e-05
0.000135627
6.90305e-05
0.000225958
0.000218104
0.0001356
6.90508e-05
0.000225958
5.70895e-05
4.78662e-05
5.70801e-05
4.78656e-05
0.000135626
0.000225957
6.9018e-05
0.000218091
0.000135598
0.000225957
6.90386e-05
5.70853e-05
4.78687e-05
4.78691e-05
5.70927e-05
0.0001356
0.000218104
6.90533e-05
0.000225958
6.90357e-05
0.000225958
0.000135624
5.70831e-05
4.78656e-05
4.7866e-05
5.70904e-05
0.000135599
0.000218091
0.000225956
6.90406e-05
0.000225956
6.90224e-05
0.00013562
5.70855e-05
4.78708e-05
5.70758e-05
4.78701e-05
0.000135628
0.000225957
6.90399e-05
0.0002181
0.000135606
0.000225957
6.90582e-05
5.70852e-05
4.78686e-05
5.70755e-05
4.78682e-05
0.000135603
0.000218106
6.90561e-05
0.000225957
6.90367e-05
0.000225957
0.000135625
5.70781e-05
4.78699e-05
4.78705e-05
5.70863e-05
0.000135601
0.000218099
0.000225957
6.9059e-05
0.000225957
6.90423e-05
0.000135621
5.70776e-05
4.78682e-05
4.78686e-05
5.70857e-05
3.85166e-05
3.85345e-05
0.000203354
3.85227e-05
3.85401e-05
2.60928e-05
2.60925e-05
2.609e-05
2.60902e-05
0.000203243
3.85249e-05
3.85427e-05
3.85202e-05
3.85385e-05
2.60925e-05
2.60927e-05
0.000135629
0.000225958
6.90294e-05
0.000218103
0.000135597
0.000225958
6.905e-05
5.709e-05
4.78689e-05
5.70806e-05
4.78683e-05
5.70911e-05
4.78686e-05
5.70814e-05
4.7868e-05
0.000135603
0.000218102
0.000225956
6.90566e-05
0.000225957
6.90392e-05
0.000135627
0.000135604
0.000218103
0.000225957
6.90523e-05
0.000225958
6.90345e-05
0.000135626
5.70838e-05
4.78683e-05
4.78687e-05
5.70915e-05
5.70846e-05
4.7868e-05
4.78684e-05
5.70922e-05
2.60926e-05
2.60923e-05
2.60917e-05
2.60914e-05
0.000203248
3.85438e-05
3.85351e-05
3.85391e-05
3.85309e-05
2.60922e-05
2.60924e-05
2.60914e-05
2.60916e-05
2.60931e-05
2.60936e-05
2.60919e-05
2.60925e-05
3.85312e-05
3.85338e-05
0.000203346
3.8529e-05
3.853e-05
2.60952e-05
2.60944e-05
2.60942e-05
2.60932e-05
0.000203222
3.85129e-05
3.85164e-05
3.85219e-05
3.85242e-05
5.7075e-05
4.78721e-05
5.70767e-05
4.78723e-05
0.000135608
6.90342e-05
0.000225955
0.000218091
0.000135594
6.90411e-05
0.000225952
0.00013561
6.90409e-05
0.000225955
0.000218092
0.000135593
6.90496e-05
0.000225952
5.70597e-05
4.78777e-05
4.78733e-05
5.70463e-05
5.70604e-05
4.78777e-05
4.78733e-05
5.7047e-05
0.000135573
0.00021808
6.90125e-05
0.000225925
6.90176e-05
0.000225942
0.000135548
0.000135575
0.000218084
6.9022e-05
0.000225926
6.9028e-05
0.000225943
0.000135549
3.85363e-05
3.8532e-05
0.000203354
3.85358e-05
3.85333e-05
2.60933e-05
2.60934e-05
2.60948e-05
2.60937e-05
0.000203236
3.85242e-05
3.85215e-05
3.85306e-05
3.85276e-05
2.60949e-05
2.6094e-05
0.000135609
6.9036e-05
0.000225956
0.000218098
0.000135596
6.90419e-05
0.000225953
5.70801e-05
4.78661e-05
5.70831e-05
4.78667e-05
0.000135608
0.000225954
6.90225e-05
0.000218085
0.000135592
0.000225951
6.90295e-05
5.70683e-05
4.78758e-05
4.78715e-05
5.70537e-05
0.000135576
0.000218087
6.90129e-05
0.000225925
6.90192e-05
0.000225943
0.000135548
5.70665e-05
4.78725e-05
4.78682e-05
5.7052e-05
0.000135574
0.000218074
0.000225923
6.90008e-05
0.000225941
6.90058e-05
0.000135547
5.70799e-05
4.78703e-05
5.70783e-05
4.78702e-05
0.000135611
0.000225955
6.90423e-05
0.000218093
0.000135594
0.000225953
6.90509e-05
5.70793e-05
4.78687e-05
5.70777e-05
4.7869e-05
0.000135581
0.000218097
6.90293e-05
0.000225933
6.90313e-05
0.000225947
0.000135571
5.70667e-05
4.78734e-05
4.78709e-05
5.70542e-05
0.00013558
0.000218083
0.00022593
6.9024e-05
0.000225945
6.90292e-05
0.000135568
5.7066e-05
4.78736e-05
4.78698e-05
5.70536e-05
3.8521e-05
3.85396e-05
0.00020334
3.85183e-05
3.85361e-05
2.60928e-05
2.60933e-05
2.60925e-05
2.60917e-05
0.000203217
3.85038e-05
3.85225e-05
3.85115e-05
3.85301e-05
2.6095e-05
2.6094e-05
0.000135611
0.000225956
6.9035e-05
0.000218097
0.000135596
0.000225952
6.90412e-05
5.70812e-05
4.78687e-05
5.70842e-05
4.78694e-05
5.70818e-05
4.78684e-05
5.70847e-05
4.7869e-05
0.000135578
0.000218086
0.000225926
6.90163e-05
0.000225943
6.9023e-05
0.000135551
0.000135576
0.000218087
0.000225925
6.9012e-05
0.000225942
6.90182e-05
0.000135549
5.70675e-05
4.78753e-05
4.78708e-05
5.70531e-05
5.7068e-05
4.78749e-05
4.78704e-05
5.70536e-05
2.60924e-05
2.60928e-05
2.60917e-05
2.60922e-05
0.000203223
3.85265e-05
3.8515e-05
3.85334e-05
3.85225e-05
2.60945e-05
2.60933e-05
2.60939e-05
2.60929e-05
2.60956e-05
2.60953e-05
2.60944e-05
2.60942e-05
3.85068e-05
3.85094e-05
0.000203272
3.84964e-05
3.84982e-05
2.60952e-05
2.60956e-05
2.60941e-05
2.60944e-05
0.000203161
3.84928e-05
3.84967e-05
3.84919e-05
3.84951e-05
5.70242e-05
4.78805e-05
5.70322e-05
4.7881e-05
0.000135504
6.89876e-05
0.000225921
0.000218045
0.000135503
6.89894e-05
0.000225922
0.000135506
6.89979e-05
0.000225921
0.000218047
0.000135504
6.89966e-05
0.000225922
5.70137e-05
4.78794e-05
4.788e-05
5.702e-05
5.70145e-05
4.78808e-05
4.78813e-05
5.70207e-05
0.00013548
0.000218046
6.89829e-05
0.000225929
6.89695e-05
0.000225925
0.000135505
0.000135482
0.000218045
6.89881e-05
0.000225929
6.89772e-05
0.000225925
0.000135507
3.85177e-05
3.85147e-05
0.000203282
3.8505e-05
3.85036e-05
2.60956e-05
2.60957e-05
2.60954e-05
2.60957e-05
0.000203162
3.84977e-05
3.84931e-05
3.8499e-05
3.84981e-05
2.60957e-05
2.6096e-05
0.000135506
6.89889e-05
0.000225921
0.000218052
0.000135503
6.89904e-05
0.000225922
5.70294e-05
4.78748e-05
5.70369e-05
4.78747e-05
0.000135504
0.000225919
6.89758e-05
0.000218039
0.000135502
0.00022592
6.89776e-05
5.70228e-05
4.78775e-05
4.78781e-05
5.70281e-05
0.000135482
0.000218053
6.89845e-05
0.000225929
6.89717e-05
0.000225925
0.000135507
5.70209e-05
4.78745e-05
4.78751e-05
5.7026e-05
0.000135481
0.00021804
0.000225927
6.89712e-05
0.000225923
6.89577e-05
0.000135506
5.70268e-05
4.78763e-05
5.70384e-05
4.78791e-05
0.000135505
0.000225923
6.89993e-05
0.000218047
0.000135522
0.000225923
6.89971e-05
5.70263e-05
4.78765e-05
5.70378e-05
4.78776e-05
0.000135482
0.000218054
6.89868e-05
0.000225929
6.89774e-05
0.000225926
0.000135504
5.70154e-05
4.78791e-05
4.78796e-05
5.702e-05
0.000135481
0.000218046
0.000225929
6.89881e-05
0.000225925
6.89771e-05
0.000135504
5.70149e-05
4.78774e-05
4.78779e-05
5.70196e-05
3.8497e-05
3.85153e-05
0.000203267
3.84861e-05
3.85041e-05
2.60952e-05
2.6095e-05
2.60925e-05
2.60928e-05
0.000203157
3.84837e-05
3.85026e-05
3.84815e-05
3.85007e-05
2.6095e-05
2.60952e-05
0.000135507
0.00022592
6.89878e-05
0.000218051
0.000135502
0.000225922
6.89896e-05
5.70301e-05
4.78774e-05
5.70379e-05
4.78773e-05
5.70308e-05
4.78771e-05
5.70383e-05
4.7877e-05
0.000135484
0.000218051
0.000225928
6.89876e-05
0.000225925
6.89749e-05
0.000135507
0.000135482
0.000218052
0.000225929
6.89835e-05
0.000225925
6.89705e-05
0.000135508
5.70217e-05
4.78771e-05
4.78776e-05
5.70268e-05
5.70222e-05
4.78769e-05
4.78774e-05
5.70275e-05
2.6095e-05
2.60949e-05
2.60942e-05
2.6094e-05
0.000203162
3.85026e-05
3.84951e-05
3.85015e-05
3.84932e-05
2.60948e-05
2.60951e-05
2.60939e-05
2.60941e-05
2.60955e-05
2.60952e-05
2.60943e-05
2.60941e-05
3.84895e-05
3.84942e-05
0.000203282
3.84932e-05
3.84966e-05
2.60952e-05
2.60955e-05
2.60941e-05
2.60943e-05
0.000203169
3.84933e-05
3.84966e-05
3.84899e-05
3.84942e-05
5.70203e-05
4.78811e-05
5.70125e-05
4.78807e-05
0.000135506
6.89652e-05
0.00022593
0.000218051
0.000135482
6.89818e-05
0.000225931
0.000135508
6.89714e-05
0.000225931
0.00021805
0.000135484
6.89866e-05
0.000225931
5.70117e-05
4.78792e-05
4.78797e-05
5.70196e-05
5.70123e-05
4.78806e-05
4.7881e-05
5.70203e-05
0.000135482
0.000218051
6.89817e-05
0.000225931
6.89646e-05
0.000225931
0.000135505
0.000135484
0.00021805
6.89863e-05
0.000225931
6.89705e-05
0.000225931
0.000135507
3.84948e-05
3.84895e-05
0.000203286
3.84973e-05
3.84927e-05
2.60959e-05
2.60956e-05
2.60954e-05
2.60956e-05
0.000203174
3.84973e-05
3.84928e-05
3.84947e-05
3.84895e-05
2.60956e-05
2.60959e-05
0.000135508
6.89677e-05
0.000225931
0.000218058
0.000135484
6.89836e-05
0.000225931
5.70256e-05
4.78749e-05
5.70189e-05
4.78744e-05
0.000135507
0.000225929
6.89535e-05
0.000218044
0.000135483
0.000225929
6.89703e-05
5.70209e-05
4.78774e-05
4.78778e-05
5.70278e-05
0.000135485
0.000218058
6.89835e-05
0.000225931
6.89673e-05
0.000225932
0.000135507
5.70187e-05
4.78743e-05
4.78748e-05
5.70256e-05
0.000135483
0.000218045
0.000225929
6.89701e-05
0.00022593
6.8953e-05
0.000135506
5.70192e-05
4.78795e-05
5.70117e-05
4.7879e-05
0.000135505
0.000225931
6.8971e-05
0.00021805
0.000135481
0.000225931
6.89865e-05
5.70189e-05
4.78777e-05
5.70113e-05
4.78773e-05
0.000135483
0.000218059
6.89839e-05
0.000225931
6.8967e-05
0.000225932
0.000135504
5.70113e-05
4.78789e-05
4.78794e-05
5.70193e-05
0.000135482
0.000218051
0.000225931
6.89863e-05
0.000225932
6.89701e-05
0.000135505
5.70108e-05
4.78773e-05
4.78777e-05
5.70189e-05
3.84803e-05
3.84999e-05
0.000203277
3.84838e-05
3.85026e-05
2.60952e-05
2.6095e-05
2.60925e-05
2.60927e-05
0.000203164
3.84839e-05
3.85026e-05
3.84805e-05
3.84999e-05
2.60949e-05
2.60951e-05
0.000135509
0.000225931
6.89665e-05
0.000218057
0.000135484
0.000225931
6.89826e-05
5.70264e-05
4.78775e-05
5.70197e-05
4.78771e-05
5.70272e-05
4.78772e-05
5.70203e-05
4.78768e-05
0.000135486
0.000218056
0.00022593
6.89866e-05
0.000225931
6.89706e-05
0.000135507
0.000135484
0.000218057
0.000225931
6.89824e-05
0.000225932
6.8966e-05
0.000135509
5.70195e-05
4.7877e-05
4.78774e-05
5.70264e-05
5.70201e-05
4.78767e-05
4.78771e-05
5.70272e-05
2.6095e-05
2.60948e-05
2.60941e-05
2.60939e-05
0.000203168
3.85025e-05
3.8495e-05
3.84998e-05
3.84924e-05
2.60948e-05
2.6095e-05
2.60939e-05
2.60941e-05
2.60955e-05
2.60952e-05
2.60943e-05
2.60941e-05
3.84899e-05
3.84942e-05
0.000203277
3.84933e-05
3.84966e-05
2.60952e-05
2.60955e-05
2.60941e-05
2.60943e-05
0.000203166
3.84932e-05
3.84966e-05
3.849e-05
3.84942e-05
5.70202e-05
4.7881e-05
5.70123e-05
4.78806e-05
0.000135505
6.89645e-05
0.000225931
0.000218051
0.000135481
6.89817e-05
0.000225931
0.000135507
6.89703e-05
0.000225931
0.00021805
0.000135484
6.89864e-05
0.000225931
5.70116e-05
4.78792e-05
4.78796e-05
5.70196e-05
5.70122e-05
4.78806e-05
4.7881e-05
5.70202e-05
0.000135482
0.000218051
6.89817e-05
0.000225931
6.89646e-05
0.000225931
0.000135505
0.000135484
0.00021805
6.89863e-05
0.000225931
6.89704e-05
0.000225931
0.000135507
3.84947e-05
3.84896e-05
0.000203278
3.84973e-05
3.84929e-05
2.60959e-05
2.60956e-05
2.60954e-05
2.60956e-05
0.000203167
3.84973e-05
3.84928e-05
3.84947e-05
3.84896e-05
2.60956e-05
2.60959e-05
0.000135508
6.89671e-05
0.000225931
0.000218058
0.000135484
6.89835e-05
0.000225931
5.70256e-05
4.78747e-05
5.70187e-05
4.78743e-05
0.000135506
0.000225929
6.89529e-05
0.000218045
0.000135483
0.000225929
6.89701e-05
5.7021e-05
4.78774e-05
4.78778e-05
5.70279e-05
0.000135484
0.000218058
6.89835e-05
0.000225932
6.89672e-05
0.000225932
0.000135508
5.70187e-05
4.78743e-05
4.78747e-05
5.70257e-05
0.000135483
0.000218045
0.00022593
6.89701e-05
0.00022593
6.89529e-05
0.000135506
5.70192e-05
4.78793e-05
5.70113e-05
4.78789e-05
0.000135505
0.000225931
6.89699e-05
0.000218051
0.000135481
0.000225931
6.89863e-05
5.70188e-05
4.78776e-05
5.70109e-05
4.78773e-05
0.000135483
0.00021806
6.89839e-05
0.000225932
6.89668e-05
0.000225932
0.000135504
5.70113e-05
4.78789e-05
4.78793e-05