/*--------------------------------*- C++ -*----------------------------------*\
| =========                 |                                                 |
| \\      /  F ield         | OpenFOAM: The Open Source CFD Toolbox           |
|  \\    /   O peration     | Version:  2206                                  |
|   \\  /    A nd           | Website:  www.openfoam.com                      |
|    \\/     M anipulation  |                                                 |
\*---------------------------------------------------------------------------*/
FoamFile
{
    version     2.0;
    format      ascii;
    arch        "LSB;label=32;scalar=64";
    class       volScalarField;
    location    "21";
    object      epsilon;
}
// * * * * * * * * * * * * * * * * * * * * * * * * * * * * * * * * * * * * * //

dimensions      [0 2 -3 0 0 0 0];

internalField   nonuniform List<scalar> 
171728
(
4.95615e-07
4.97347e-07
4.97347e-07
4.99574e-07
4.45774e-07
4.53847e-07
4.53849e-07
4.63716e-07
4.03612e-07
4.18434e-07
4.18438e-07
4.39323e-07
3.68003e-07
3.88569e-07
3.88576e-07
4.17685e-07
3.37686e-07
3.60154e-07
3.60162e-07
3.92953e-07
3.28355e-07
3.498e-07
3.49808e-07
3.78911e-07
3.27371e-07
3.48724e-07
3.48732e-07
3.77853e-07
3.27335e-07
3.4868e-07
3.48687e-07
3.77798e-07
3.27335e-07
3.4868e-07
3.48688e-07
3.77813e-07
3.27335e-07
3.48681e-07
3.48688e-07
3.77814e-07
3.27335e-07
3.4868e-07
3.48688e-07
3.77812e-07
3.27335e-07
3.4868e-07
3.48688e-07
3.77812e-07
3.27504e-07
3.48823e-07
3.48831e-07
3.77911e-07
3.27502e-07
3.48826e-07
3.4883e-07
3.77928e-07
3.27504e-07
3.48829e-07
3.48834e-07
3.77936e-07
3.27501e-07
3.48831e-07
3.48835e-07
3.77942e-07
3.27493e-07
3.48822e-07
3.48831e-07
3.77945e-07
3.27379e-07
3.48706e-07
3.48725e-07
3.77864e-07
3.27336e-07
3.4868e-07
3.48688e-07
3.77801e-07
3.27336e-07
3.4868e-07
3.48688e-07
3.77816e-07
3.27335e-07
3.4868e-07
3.48688e-07
3.77808e-07
3.27335e-07
3.4868e-07
3.48688e-07
3.77811e-07
3.27335e-07
3.4868e-07
3.48688e-07
3.77813e-07
3.27335e-07
3.4868e-07
3.48688e-07
3.77813e-07
3.27335e-07
3.4868e-07
3.48688e-07
3.77813e-07
3.27335e-07
3.4868e-07
3.48688e-07
3.77813e-07
3.27335e-07
3.4868e-07
3.48688e-07
3.77813e-07
3.27335e-07
3.4868e-07
3.48688e-07
3.77813e-07
3.27335e-07
3.4868e-07
3.48688e-07
3.77813e-07
3.27335e-07
3.4868e-07
3.48688e-07
3.77812e-07
3.27502e-07
3.48827e-07
3.4883e-07
3.77924e-07
3.27504e-07
3.4883e-07
3.48834e-07
3.77932e-07
3.27503e-07
3.48832e-07
3.48835e-07
3.77941e-07
3.27498e-07
3.48832e-07
3.48834e-07
3.77946e-07
3.27454e-07
3.48807e-07
3.48795e-07
3.77932e-07
3.27342e-07
3.48691e-07
3.48693e-07
3.77808e-07
3.27335e-07
3.48681e-07
3.48688e-07
3.77813e-07
3.27335e-07
3.4868e-07
3.48688e-07
3.77813e-07
3.27335e-07
3.4868e-07
3.48688e-07
3.77815e-07
3.27335e-07
3.4868e-07
3.48688e-07
3.77812e-07
3.27335e-07
3.4868e-07
3.48688e-07
3.77812e-07
3.27335e-07
3.4868e-07
3.48688e-07
3.77813e-07
3.27335e-07
3.4868e-07
3.48688e-07
3.77813e-07
3.27335e-07
3.4868e-07
3.48688e-07
3.77813e-07
3.27335e-07
3.4868e-07
3.48688e-07
3.77813e-07
3.27335e-07
3.48679e-07
3.48688e-07
3.77813e-07
3.27335e-07
3.48679e-07
3.48688e-07
3.77813e-07
3.27338e-07
3.48682e-07
3.48691e-07
3.77813e-07
3.27501e-07
3.48822e-07
3.4883e-07
3.77929e-07
3.27503e-07
3.48825e-07
3.48834e-07
3.77935e-07
3.27501e-07
3.48827e-07
3.48835e-07
3.77942e-07
3.27496e-07
3.48824e-07
3.48834e-07
3.77945e-07
3.27413e-07
3.48749e-07
3.48758e-07
3.77904e-07
3.27337e-07
3.48681e-07
3.48689e-07
3.77799e-07
3.27335e-07
3.4868e-07
3.48689e-07
3.77815e-07
3.27335e-07
3.48679e-07
3.48688e-07
3.7781e-07
3.27335e-07
3.4868e-07
3.48688e-07
3.77815e-07
3.27335e-07
3.4868e-07
3.48688e-07
3.77815e-07
3.27335e-07
3.48679e-07
3.48688e-07
3.77813e-07
3.27335e-07
3.4868e-07
3.48688e-07
3.77813e-07
3.27335e-07
3.48679e-07
3.48688e-07
3.77813e-07
3.27335e-07
3.48679e-07
3.48688e-07
3.77813e-07
3.27335e-07
3.48679e-07
3.48688e-07
3.77813e-07
3.27335e-07
3.48679e-07
3.48688e-07
3.77813e-07
3.27335e-07
3.48679e-07
3.48688e-07
3.77813e-07
3.27503e-07
3.48825e-07
3.48831e-07
3.77924e-07
3.27505e-07
3.48828e-07
3.48834e-07
3.77933e-07
3.27504e-07
3.4883e-07
3.48837e-07
3.77942e-07
3.27502e-07
3.48829e-07
3.48834e-07
3.77945e-07
3.27484e-07
3.48811e-07
3.48796e-07
3.77931e-07
3.27355e-07
3.48693e-07
3.48693e-07
3.77808e-07
3.27336e-07
3.4868e-07
3.48689e-07
3.77813e-07
3.27335e-07
3.4868e-07
3.48688e-07
3.77813e-07
3.27335e-07
3.4868e-07
3.48688e-07
3.77815e-07
3.27335e-07
3.4868e-07
3.48688e-07
3.77813e-07
3.27335e-07
3.4868e-07
3.48688e-07
3.77812e-07
3.27335e-07
3.48679e-07
3.48688e-07
3.77813e-07
3.27335e-07
3.48679e-07
3.48688e-07
3.77813e-07
3.27335e-07
3.48679e-07
3.48688e-07
3.77813e-07
3.27335e-07
3.48679e-07
3.48688e-07
3.77813e-07
3.27335e-07
3.48679e-07
3.48688e-07
3.77813e-07
3.27335e-07
3.48679e-07
3.48688e-07
3.77813e-07
3.27342e-07
3.48823e-07
3.48693e-07
3.77911e-07
3.27505e-07
3.48825e-07
3.48833e-07
3.77928e-07
3.27504e-07
3.48829e-07
3.48836e-07
3.77937e-07
3.27502e-07
3.4883e-07
3.48838e-07
3.77942e-07
3.27498e-07
3.48822e-07
3.48836e-07
3.77945e-07
3.27401e-07
3.48706e-07
3.48748e-07
3.77864e-07
3.27336e-07
3.4868e-07
3.48689e-07
3.77802e-07
3.27335e-07
3.4868e-07
3.48688e-07
3.77816e-07
3.27335e-07
3.48678e-07
3.48687e-07
3.77808e-07
3.27335e-07
3.48676e-07
3.48684e-07
3.77809e-07
3.27335e-07
3.48672e-07
3.4868e-07
3.77804e-07
3.27338e-07
3.48683e-07
3.48692e-07
3.77773e-07
3.26828e-07
3.45127e-07
3.45129e-07
3.72578e-07
5.06427e-07
5.05576e-07
5.05574e-07
5.06426e-07
5.05575e-07
5.05574e-07
5.09643e-07
5.09642e-07
5.09642e-07
5.09642e-07
5.05576e-07
5.05576e-07
5.06427e-07
5.05576e-07
5.05575e-07
5.06427e-07
4.99573e-07
4.6723e-07
4.97348e-07
4.97352e-07
4.63705e-07
4.63713e-07
4.99574e-07
4.67228e-07
4.97352e-07
4.97353e-07
4.63709e-07
4.63715e-07
4.97348e-07
4.63701e-07
4.63706e-07
4.99573e-07
4.67234e-07
4.97351e-07
4.63702e-07
4.6371e-07
4.67233e-07
4.63716e-07
4.41382e-07
4.53852e-07
4.5386e-07
4.26519e-07
4.26527e-07
4.63714e-07
4.41375e-07
4.53857e-07
4.53864e-07
4.2652e-07
4.26532e-07
4.53854e-07
4.2651e-07
4.26521e-07
4.63718e-07
4.41386e-07
4.53857e-07
4.26515e-07
4.26521e-07
4.41384e-07
4.39319e-07
4.19321e-07
4.18444e-07
4.18452e-07
3.96023e-07
3.96029e-07
4.39317e-07
4.19312e-07
4.18444e-07
4.18457e-07
3.96019e-07
3.96036e-07
4.18447e-07
3.96011e-07
3.96026e-07
4.39326e-07
4.19326e-07
4.18446e-07
3.96017e-07
3.96021e-07
4.19324e-07
4.17681e-07
3.95068e-07
3.88584e-07
3.8859e-07
3.66181e-07
3.66186e-07
4.17674e-07
3.95059e-07
3.88579e-07
3.88597e-07
3.66172e-07
3.66193e-07
3.88587e-07
3.66165e-07
3.66183e-07
4.17687e-07
3.95074e-07
3.8858e-07
3.66172e-07
3.66173e-07
3.95073e-07
3.92948e-07
3.7891e-07
3.60171e-07
3.60178e-07
3.50853e-07
3.50859e-07
3.92943e-07
3.78903e-07
3.60163e-07
3.60185e-07
3.50844e-07
3.50866e-07
3.60175e-07
3.50838e-07
3.50857e-07
3.92955e-07
3.78918e-07
3.60163e-07
3.50846e-07
3.50843e-07
3.78916e-07
3.78906e-07
3.7764e-07
3.49817e-07
3.49822e-07
3.48812e-07
3.48817e-07
3.789e-07
3.77632e-07
3.49807e-07
3.4983e-07
3.48801e-07
3.48825e-07
3.49821e-07
3.48798e-07
3.48816e-07
3.78913e-07
3.77648e-07
3.49807e-07
3.48805e-07
3.48801e-07
3.77645e-07
3.7785e-07
3.77557e-07
3.48741e-07
3.48746e-07
3.48695e-07
3.48699e-07
3.77843e-07
3.77549e-07
3.4873e-07
3.48754e-07
3.48684e-07
3.48708e-07
3.48745e-07
3.4868e-07
3.48698e-07
3.77858e-07
3.77564e-07
3.4873e-07
3.48687e-07
3.48684e-07
3.77562e-07
3.77794e-07
3.77582e-07
3.48697e-07
3.48702e-07
3.48697e-07
3.48701e-07
3.77789e-07
3.77575e-07
3.48686e-07
3.4871e-07
3.48685e-07
3.48709e-07
3.48701e-07
3.48681e-07
3.487e-07
3.77802e-07
3.7759e-07
3.48686e-07
3.48688e-07
3.48685e-07
3.77587e-07
3.77811e-07
3.77576e-07
3.48699e-07
3.48702e-07
3.48698e-07
3.487e-07
3.77805e-07
3.7757e-07
3.48687e-07
3.4871e-07
3.48685e-07
3.48708e-07
3.48701e-07
3.48681e-07
3.48699e-07
3.77819e-07
3.77585e-07
3.48686e-07
3.48688e-07
3.48684e-07
3.77584e-07
3.77809e-07
3.77575e-07
3.48701e-07
3.48702e-07
3.48698e-07
3.487e-07
3.77805e-07
3.7757e-07
3.48687e-07
3.48711e-07
3.48685e-07
3.48708e-07
3.48702e-07
3.4868e-07
3.48699e-07
3.77818e-07
3.77584e-07
3.48687e-07
3.48688e-07
3.48684e-07
3.77582e-07
3.77807e-07
3.77577e-07
3.48699e-07
3.48702e-07
3.48697e-07
3.487e-07
3.77803e-07
3.77571e-07
3.48687e-07
3.4871e-07
3.48685e-07
3.48708e-07
3.48701e-07
3.4868e-07
3.48699e-07
3.77816e-07
3.77585e-07
3.48686e-07
3.48688e-07
3.48684e-07
3.77583e-07
3.77808e-07
3.77578e-07
3.48699e-07
3.48703e-07
3.487e-07
3.48845e-07
3.77804e-07
3.77678e-07
3.48687e-07
3.4871e-07
3.48688e-07
3.48711e-07
3.48701e-07
3.48823e-07
3.48702e-07
3.77817e-07
3.77586e-07
3.48686e-07
3.48691e-07
3.48687e-07
3.77583e-07
3.77904e-07
3.77692e-07
3.4884e-07
3.48845e-07
3.48839e-07
3.48844e-07
3.77916e-07
3.77691e-07
3.48828e-07
3.48851e-07
3.48827e-07
3.4885e-07
3.48842e-07
3.48826e-07
3.48841e-07
3.77913e-07
3.777e-07
3.48827e-07
3.4883e-07
3.48826e-07
3.77698e-07
3.77924e-07
3.77699e-07
3.48843e-07
3.48847e-07
3.48843e-07
3.48847e-07
3.77925e-07
3.77699e-07
3.48831e-07
3.48854e-07
3.48831e-07
3.48853e-07
3.48845e-07
3.48829e-07
3.48844e-07
3.77933e-07
3.77708e-07
3.4883e-07
3.48834e-07
3.48829e-07
3.77705e-07
3.77934e-07
3.77707e-07
3.48846e-07
3.48851e-07
3.48847e-07
3.4885e-07
3.77933e-07
3.77703e-07
3.48835e-07
3.48857e-07
3.48834e-07
3.48856e-07
3.48848e-07
3.48831e-07
3.48847e-07
3.77942e-07
3.77715e-07
3.48833e-07
3.48835e-07
3.48832e-07
3.77712e-07
3.7794e-07
3.7771e-07
3.4885e-07
3.48853e-07
3.48847e-07
3.48848e-07
3.77937e-07
3.77704e-07
3.48836e-07
3.48858e-07
3.48832e-07
3.48855e-07
3.48849e-07
3.48828e-07
3.48846e-07
3.77947e-07
3.77718e-07
3.48835e-07
3.48834e-07
3.48831e-07
3.77716e-07
3.77942e-07
3.77647e-07
3.48844e-07
3.48841e-07
3.48769e-07
3.48751e-07
3.77936e-07
3.77612e-07
3.4883e-07
3.48852e-07
3.48756e-07
3.48778e-07
3.48843e-07
3.48734e-07
3.48769e-07
3.7795e-07
3.77656e-07
3.48828e-07
3.48758e-07
3.48754e-07
3.77652e-07
3.77862e-07
3.77563e-07
3.48738e-07
3.48725e-07
3.48701e-07
3.48699e-07
3.77829e-07
3.7756e-07
3.48725e-07
3.48747e-07
3.48687e-07
3.48709e-07
3.48738e-07
3.4868e-07
3.487e-07
3.7787e-07
3.77572e-07
3.48723e-07
3.48689e-07
3.48686e-07
3.77569e-07
3.77798e-07
3.7758e-07
3.48702e-07
3.487e-07
3.48701e-07
3.487e-07
3.77795e-07
3.77573e-07
3.48688e-07
3.48711e-07
3.48687e-07
3.48709e-07
3.48702e-07
3.48681e-07
3.487e-07
3.77806e-07
3.77588e-07
3.48687e-07
3.48689e-07
3.48685e-07
3.77586e-07
3.77814e-07
3.77574e-07
3.48703e-07
3.48703e-07
3.48699e-07
3.48701e-07
3.77806e-07
3.77565e-07
3.48689e-07
3.48711e-07
3.48686e-07
3.48708e-07
3.48702e-07
3.4868e-07
3.48699e-07
3.77821e-07
3.77581e-07
3.48687e-07
3.48688e-07
3.48684e-07
3.77578e-07
3.77807e-07
3.77578e-07
3.487e-07
3.48703e-07
3.48698e-07
3.487e-07
3.77799e-07
3.77567e-07
3.48687e-07
3.4871e-07
3.48685e-07
3.48708e-07
3.48701e-07
3.4868e-07
3.48699e-07
3.77814e-07
3.77585e-07
3.48686e-07
3.48688e-07
3.48684e-07
3.77583e-07
3.7781e-07
3.77578e-07
3.487e-07
3.48702e-07
3.48697e-07
3.487e-07
3.77799e-07
3.77571e-07
3.48687e-07
3.4871e-07
3.48685e-07
3.48708e-07
3.48701e-07
3.4868e-07
3.48699e-07
3.77816e-07
3.77587e-07
3.48686e-07
3.48688e-07
3.48684e-07
3.77584e-07
3.77811e-07
3.77577e-07
3.48699e-07
3.48702e-07
3.48697e-07
3.487e-07
3.77803e-07
3.77571e-07
3.48687e-07
3.4871e-07
3.48684e-07
3.48708e-07
3.48701e-07
3.4868e-07
3.48699e-07
3.77818e-07
3.77586e-07
3.48686e-07
3.48688e-07
3.48685e-07
3.77583e-07
3.77811e-07
3.77577e-07
3.48699e-07
3.48702e-07
3.48697e-07
3.487e-07
3.77804e-07
3.77571e-07
3.48686e-07
3.4871e-07
3.48684e-07
3.48708e-07
3.48701e-07
3.4868e-07
3.48699e-07
3.77818e-07
3.77586e-07
3.48689e-07
3.48688e-07
3.48687e-07
3.77583e-07
3.7781e-07
3.77577e-07
3.48699e-07
3.48702e-07
3.48697e-07
3.487e-07
3.77804e-07
3.77571e-07
3.48686e-07
3.4871e-07
3.48684e-07
3.48708e-07
3.48701e-07
3.4868e-07
3.48699e-07
3.77818e-07
3.77587e-07
3.48689e-07
3.48688e-07
3.48687e-07
3.77583e-07
3.7781e-07
3.77577e-07
3.48699e-07
3.48702e-07
3.48697e-07
3.487e-07
3.77804e-07
3.7757e-07
3.48686e-07
3.4871e-07
3.48684e-07
3.48708e-07
3.48701e-07
3.4868e-07
3.48699e-07
3.77819e-07
3.77586e-07
3.48688e-07
3.48688e-07
3.48686e-07
3.77583e-07
3.7781e-07
3.77577e-07
3.48699e-07
3.48702e-07
3.48697e-07
3.487e-07
3.77804e-07
3.77571e-07
3.48686e-07
3.4871e-07
3.48684e-07
3.48708e-07
3.48701e-07
3.4868e-07
3.48699e-07
3.77819e-07
3.77586e-07
3.48688e-07
3.48688e-07
3.48686e-07
3.77583e-07
3.7781e-07
3.77577e-07
3.48699e-07
3.48702e-07
3.48697e-07
3.487e-07
3.77804e-07
3.77571e-07
3.48686e-07
3.4871e-07
3.48684e-07
3.48708e-07
3.48701e-07
3.4868e-07
3.48699e-07
3.77818e-07
3.77586e-07
3.48689e-07
3.48688e-07
3.48686e-07
3.77583e-07
3.7781e-07
3.77577e-07
3.48699e-07
3.48702e-07
3.48697e-07
3.487e-07
3.77804e-07
3.77571e-07
3.48686e-07
3.4871e-07
3.48684e-07
3.48708e-07
3.48701e-07
3.4868e-07
3.48699e-07
3.77818e-07
3.77586e-07
3.48688e-07
3.48688e-07
3.48686e-07
3.77583e-07
3.7781e-07
3.77687e-07
3.48698e-07
3.48701e-07
3.4884e-07
3.48843e-07
3.77804e-07
3.77685e-07
3.48685e-07
3.48709e-07
3.48827e-07
3.48851e-07
3.487e-07
3.48827e-07
3.48842e-07
3.77819e-07
3.77696e-07
3.48688e-07
3.4883e-07
3.4883e-07
3.77693e-07
3.77922e-07
3.77696e-07
3.48843e-07
3.48847e-07
3.48843e-07
3.48846e-07
3.77923e-07
3.77695e-07
3.4883e-07
3.48855e-07
3.4883e-07
3.48854e-07
3.48845e-07
3.4883e-07
3.48844e-07
3.7793e-07
3.77704e-07
3.48833e-07
3.48834e-07
3.48832e-07
3.77701e-07
3.7793e-07
3.77705e-07
3.48846e-07
3.4885e-07
3.48846e-07
3.4885e-07
3.77929e-07
3.77702e-07
3.48833e-07
3.48858e-07
3.48833e-07
3.48857e-07
3.48848e-07
3.48832e-07
3.48847e-07
3.77937e-07
3.77713e-07
3.48836e-07
3.48836e-07
3.48836e-07
3.7771e-07
3.77939e-07
3.77709e-07
3.48849e-07
3.48854e-07
3.48845e-07
3.48852e-07
3.77937e-07
3.77705e-07
3.48836e-07
3.4886e-07
3.48831e-07
3.48855e-07
3.48851e-07
3.48832e-07
3.48847e-07
3.77946e-07
3.77717e-07
3.48839e-07
3.48834e-07
3.48835e-07
3.77716e-07
3.77942e-07
3.77702e-07
3.48845e-07
3.48852e-07
3.48832e-07
3.4884e-07
3.77939e-07
3.77701e-07
3.48832e-07
3.48856e-07
3.48819e-07
3.48843e-07
3.48847e-07
3.48824e-07
3.48835e-07
3.77949e-07
3.77709e-07
3.48835e-07
3.48822e-07
3.48822e-07
3.77708e-07
3.77928e-07
3.77582e-07
3.48806e-07
3.48815e-07
3.48714e-07
3.48721e-07
3.7793e-07
3.7759e-07
3.48793e-07
3.48817e-07
3.48701e-07
3.48725e-07
3.48811e-07
3.48709e-07
3.48718e-07
3.77935e-07
3.7759e-07
3.48796e-07
3.48705e-07
3.48704e-07
3.77589e-07
3.77805e-07
3.77574e-07
3.48704e-07
3.48709e-07
3.48698e-07
3.48701e-07
3.7781e-07
3.77563e-07
3.48691e-07
3.48715e-07
3.48685e-07
3.48709e-07
3.48707e-07
3.48681e-07
3.487e-07
3.77813e-07
3.77583e-07
3.48693e-07
3.48688e-07
3.48687e-07
3.77581e-07
3.77809e-07
3.77579e-07
3.48701e-07
3.48704e-07
3.48698e-07
3.48701e-07
3.778e-07
3.77572e-07
3.48687e-07
3.48712e-07
3.48685e-07
3.48709e-07
3.48703e-07
3.48681e-07
3.487e-07
3.77817e-07
3.77587e-07
3.4869e-07
3.48688e-07
3.48687e-07
3.77585e-07
3.7781e-07
3.77576e-07
3.48699e-07
3.48703e-07
3.48697e-07
3.48701e-07
3.77805e-07
3.77566e-07
3.48686e-07
3.4871e-07
3.48684e-07
3.48708e-07
3.48701e-07
3.4868e-07
3.48699e-07
3.77818e-07
3.77585e-07
3.48689e-07
3.48688e-07
3.48686e-07
3.77584e-07
3.7781e-07
3.77574e-07
3.48699e-07
3.48703e-07
3.48697e-07
3.48701e-07
3.77801e-07
3.77568e-07
3.48686e-07
3.4871e-07
3.48684e-07
3.48708e-07
3.48701e-07
3.4868e-07
3.48699e-07
3.77818e-07
3.77583e-07
3.48688e-07
3.48688e-07
3.48686e-07
3.77582e-07
3.77807e-07
3.77577e-07
3.48699e-07
3.48703e-07
3.48696e-07
3.487e-07
3.778e-07
3.77571e-07
3.48686e-07
3.4871e-07
3.48684e-07
3.48708e-07
3.48701e-07
3.4868e-07
3.48699e-07
3.77816e-07
3.77586e-07
3.48689e-07
3.48688e-07
3.48687e-07
3.77582e-07
3.77808e-07
3.77578e-07
3.48698e-07
3.48702e-07
3.48697e-07
3.487e-07
3.77803e-07
3.77571e-07
3.48686e-07
3.4871e-07
3.48684e-07
3.48708e-07
3.48701e-07
3.4868e-07
3.48699e-07
3.77817e-07
3.77586e-07
3.48688e-07
3.48688e-07
3.48687e-07
3.77583e-07
3.7781e-07
3.77578e-07
3.48699e-07
3.48702e-07
3.48697e-07
3.487e-07
3.77804e-07
3.77571e-07
3.48687e-07
3.4871e-07
3.48685e-07
3.48708e-07
3.48701e-07
3.4868e-07
3.48699e-07
3.77818e-07
3.77586e-07
3.48689e-07
3.48688e-07
3.48687e-07
3.77583e-07
3.7781e-07
3.77578e-07
3.48699e-07
3.48702e-07
3.48697e-07
3.487e-07
3.77804e-07
3.77571e-07
3.48687e-07
3.4871e-07
3.48685e-07
3.48708e-07
3.48701e-07
3.4868e-07
3.48699e-07
3.77819e-07
3.77586e-07
3.48688e-07
3.48688e-07
3.48687e-07
3.77583e-07
3.7781e-07
3.77578e-07
3.48699e-07
3.48702e-07
3.48697e-07
3.487e-07
3.77804e-07
3.77571e-07
3.48687e-07
3.4871e-07
3.48685e-07
3.48708e-07
3.48701e-07
3.4868e-07
3.48699e-07
3.77818e-07
3.77586e-07
3.48689e-07
3.48688e-07
3.48687e-07
3.77583e-07
3.7781e-07
3.77578e-07
3.48699e-07
3.48702e-07
3.48697e-07
3.487e-07
3.77804e-07
3.7757e-07
3.48687e-07
3.4871e-07
3.48685e-07
3.48708e-07
3.48701e-07
3.4868e-07
3.48699e-07
3.77818e-07
3.77586e-07
3.48688e-07
3.48688e-07
3.48687e-07
3.77583e-07
3.7781e-07
3.77578e-07
3.48698e-07
3.48702e-07
3.48697e-07
3.487e-07
3.77803e-07
3.7757e-07
3.48687e-07
3.4871e-07
3.48685e-07
3.48708e-07
3.48701e-07
3.4868e-07
3.48699e-07
3.77819e-07
3.77587e-07
3.48689e-07
3.48688e-07
3.48686e-07
3.77583e-07
3.7781e-07
3.77578e-07
3.48699e-07
3.48702e-07
3.48697e-07
3.487e-07
3.77804e-07
3.7757e-07
3.48687e-07
3.4871e-07
3.48685e-07
3.48708e-07
3.48701e-07
3.4868e-07
3.48699e-07
3.77819e-07
3.77586e-07
3.48688e-07
3.48689e-07
3.48687e-07
3.77583e-07
3.7781e-07
3.77694e-07
3.48699e-07
3.48703e-07
3.48839e-07
3.48843e-07
3.77804e-07
3.77686e-07
3.48687e-07
3.48711e-07
3.48827e-07
3.48851e-07
3.48702e-07
3.48822e-07
3.48842e-07
3.77818e-07
3.77703e-07
3.48689e-07
3.4883e-07
3.48829e-07
3.77699e-07
3.77927e-07
3.777e-07
3.48843e-07
3.48846e-07
3.48842e-07
3.48846e-07
3.7792e-07
3.77692e-07
3.48831e-07
3.48853e-07
3.4883e-07
3.48853e-07
3.48845e-07
3.48825e-07
3.48844e-07
3.77936e-07
3.77708e-07
3.48832e-07
3.48834e-07
3.48832e-07
3.77704e-07
3.77934e-07
3.77708e-07
3.48846e-07
3.48849e-07
3.48845e-07
3.48848e-07
3.77926e-07
3.777e-07
3.48834e-07
3.48857e-07
3.48833e-07
3.48856e-07
3.48848e-07
3.48828e-07
3.48847e-07
3.77941e-07
3.77715e-07
3.48836e-07
3.48835e-07
3.48835e-07
3.77712e-07
3.77941e-07
3.77711e-07
3.48846e-07
3.4885e-07
3.48842e-07
3.48846e-07
3.77934e-07
3.77703e-07
3.48834e-07
3.48858e-07
3.4883e-07
3.48854e-07
3.48848e-07
3.48825e-07
3.48844e-07
3.77948e-07
3.77718e-07
3.48836e-07
3.48834e-07
3.48832e-07
3.77715e-07
3.77943e-07
3.77685e-07
3.48842e-07
3.48846e-07
3.48805e-07
3.48809e-07
3.77935e-07
3.77678e-07
3.4883e-07
3.48854e-07
3.48793e-07
3.48817e-07
3.48845e-07
3.48788e-07
3.48808e-07
3.7795e-07
3.77692e-07
3.48832e-07
3.48796e-07
3.48795e-07
3.77689e-07
3.77903e-07
3.77567e-07
3.48768e-07
3.48771e-07
3.48702e-07
3.48705e-07
3.77896e-07
3.77559e-07
3.48756e-07
3.48779e-07
3.4869e-07
3.48713e-07
3.4877e-07
3.48685e-07
3.48704e-07
3.7791e-07
3.77574e-07
3.48757e-07
3.48693e-07
3.48692e-07
3.77572e-07
3.77796e-07
3.77578e-07
3.487e-07
3.48704e-07
3.48697e-07
3.48701e-07
3.77789e-07
3.77571e-07
3.48688e-07
3.48712e-07
3.48685e-07
3.48709e-07
3.48703e-07
3.4868e-07
3.487e-07
3.77804e-07
3.77586e-07
3.4869e-07
3.48689e-07
3.48688e-07
3.77584e-07
3.77812e-07
3.77576e-07
3.487e-07
3.48704e-07
3.48697e-07
3.487e-07
3.77805e-07
3.77568e-07
3.48688e-07
3.48712e-07
3.48685e-07
3.48709e-07
3.48703e-07
3.4868e-07
3.487e-07
3.7782e-07
3.77584e-07
3.48691e-07
3.48688e-07
3.48687e-07
3.77582e-07
3.77807e-07
3.77579e-07
3.48699e-07
3.48702e-07
3.48697e-07
3.487e-07
3.778e-07
3.77571e-07
3.48687e-07
3.4871e-07
3.48685e-07
3.48708e-07
3.48701e-07
3.4868e-07
3.48699e-07
3.77815e-07
3.77587e-07
3.48689e-07
3.48688e-07
3.48687e-07
3.77586e-07
3.77811e-07
3.77577e-07
3.48699e-07
3.48702e-07
3.48697e-07
3.487e-07
3.77804e-07
3.7757e-07
3.48687e-07
3.4871e-07
3.48685e-07
3.48708e-07
3.48701e-07
3.4868e-07
3.48699e-07
3.77819e-07
3.77585e-07
3.48689e-07
3.48688e-07
3.48687e-07
3.77584e-07
3.7781e-07
3.77577e-07
3.48699e-07
3.48702e-07
3.48697e-07
3.487e-07
3.77803e-07
3.7757e-07
3.48687e-07
3.4871e-07
3.48685e-07
3.48708e-07
3.48701e-07
3.4868e-07
3.48699e-07
3.77818e-07
3.77586e-07
3.48689e-07
3.48688e-07
3.48687e-07
3.77583e-07
3.7781e-07
3.77578e-07
3.48698e-07
3.48702e-07
3.48697e-07
3.487e-07
3.77803e-07
3.7757e-07
3.48687e-07
3.4871e-07
3.48685e-07
3.48708e-07
3.48701e-07
3.4868e-07
3.48699e-07
3.77818e-07
3.77586e-07
3.48689e-07
3.48688e-07
3.48687e-07
3.77583e-07
3.7781e-07
3.77577e-07
3.48699e-07
3.48702e-07
3.48697e-07
3.487e-07
3.77803e-07
3.7757e-07
3.48687e-07
3.4871e-07
3.48685e-07
3.48708e-07
3.48701e-07
3.4868e-07
3.48699e-07
3.77818e-07
3.77586e-07
3.48689e-07
3.48688e-07
3.48687e-07
3.77583e-07
3.7781e-07
3.77578e-07
3.48698e-07
3.48702e-07
3.48697e-07
3.487e-07
3.77803e-07
3.77571e-07
3.48687e-07
3.4871e-07
3.48685e-07
3.48708e-07
3.48701e-07
3.4868e-07
3.48699e-07
3.77818e-07
3.77586e-07
3.48689e-07
3.48688e-07
3.48687e-07
3.77583e-07
3.7781e-07
3.77578e-07
3.48699e-07
3.48702e-07
3.48697e-07
3.487e-07
3.77803e-07
3.7757e-07
3.48687e-07
3.4871e-07
3.48685e-07
3.48708e-07
3.48701e-07
3.4868e-07
3.48699e-07
3.77818e-07
3.77586e-07
3.48689e-07
3.48688e-07
3.48687e-07
3.77583e-07
3.7781e-07
3.77578e-07
3.48698e-07
3.48702e-07
3.48697e-07
3.487e-07
3.77803e-07
3.7757e-07
3.48687e-07
3.4871e-07
3.48685e-07
3.48708e-07
3.48701e-07
3.4868e-07
3.48699e-07
3.77818e-07
3.77586e-07
3.48689e-07
3.48688e-07
3.48687e-07
3.77583e-07
3.7781e-07
3.77578e-07
3.48699e-07
3.48702e-07
3.48697e-07
3.487e-07
3.77803e-07
3.7757e-07
3.48687e-07
3.4871e-07
3.48685e-07
3.48708e-07
3.48701e-07
3.4868e-07
3.48699e-07
3.77818e-07
3.77586e-07
3.48689e-07
3.48688e-07
3.48687e-07
3.77583e-07
3.7781e-07
3.77685e-07
3.48698e-07
3.48702e-07
3.4884e-07
3.48844e-07
3.77803e-07
3.77677e-07
3.48687e-07
3.4871e-07
3.48829e-07
3.48851e-07
3.487e-07
3.48825e-07
3.48842e-07
3.77818e-07
3.77696e-07
3.48688e-07
3.48831e-07
3.4883e-07
3.77693e-07
3.77922e-07
3.77697e-07
3.4884e-07
3.48844e-07
3.48839e-07
3.48843e-07
3.77915e-07
3.7769e-07
3.48829e-07
3.48855e-07
3.48828e-07
3.48854e-07
3.48846e-07
3.48827e-07
3.48845e-07
3.7793e-07
3.77705e-07
3.48833e-07
3.48834e-07
3.48833e-07
3.77702e-07
3.7793e-07
3.77705e-07
3.48843e-07
3.48847e-07
3.48843e-07
3.48847e-07
3.77923e-07
3.77697e-07
3.48832e-07
3.48858e-07
3.48832e-07
3.48857e-07
3.48849e-07
3.4883e-07
3.48848e-07
3.77938e-07
3.77714e-07
3.48837e-07
3.48837e-07
3.48836e-07
3.77711e-07
3.77938e-07
3.7771e-07
3.48847e-07
3.48851e-07
3.48846e-07
3.48849e-07
3.77931e-07
3.77702e-07
3.48836e-07
3.48861e-07
3.48834e-07
3.48857e-07
3.48852e-07
3.4883e-07
3.48848e-07
3.77947e-07
3.77718e-07
3.48839e-07
3.48834e-07
3.48836e-07
3.77715e-07
3.77943e-07
3.77708e-07
3.48847e-07
3.4885e-07
3.48841e-07
3.48844e-07
3.77935e-07
3.77702e-07
3.48836e-07
3.48856e-07
3.4883e-07
3.48844e-07
3.48848e-07
3.48824e-07
3.48835e-07
3.7795e-07
3.7771e-07
3.48836e-07
3.48823e-07
3.48823e-07
3.77708e-07
3.77938e-07
3.77611e-07
3.48832e-07
3.48835e-07
3.48736e-07
3.48739e-07
3.77932e-07
3.77602e-07
3.48821e-07
3.48819e-07
3.48723e-07
3.48726e-07
3.48808e-07
3.48714e-07
3.48717e-07
3.77936e-07
3.7759e-07
3.48796e-07
3.48705e-07
3.48704e-07
3.77588e-07
3.77828e-07
3.77569e-07
3.48715e-07
3.48718e-07
3.48697e-07
3.48701e-07
3.7782e-07
3.77561e-07
3.48703e-07
3.48716e-07
3.48686e-07
3.48709e-07
3.48706e-07
3.4868e-07
3.487e-07
3.77813e-07
3.77583e-07
3.48694e-07
3.48689e-07
3.48688e-07
3.77581e-07
3.77804e-07
3.77581e-07
3.48699e-07
3.48703e-07
3.48698e-07
3.48701e-07
3.77797e-07
3.77573e-07
3.48688e-07
3.48712e-07
3.48686e-07
3.48709e-07
3.48703e-07
3.4868e-07
3.487e-07
3.77817e-07
3.77587e-07
3.48691e-07
3.48688e-07
3.48688e-07
3.77585e-07
3.77813e-07
3.77573e-07
3.48699e-07
3.48703e-07
3.48697e-07
3.487e-07
3.77806e-07
3.77566e-07
3.48688e-07
3.48711e-07
3.48685e-07
3.48708e-07
3.48702e-07
3.4868e-07
3.48699e-07
3.77818e-07
3.77585e-07
3.48689e-07
3.48688e-07
3.48687e-07
3.77584e-07
3.77807e-07
3.77576e-07
3.48698e-07
3.48702e-07
3.48696e-07
3.487e-07
3.778e-07
3.77568e-07
3.48687e-07
3.4871e-07
3.48685e-07
3.48708e-07
3.48701e-07
3.4868e-07
3.48699e-07
3.77818e-07
3.77583e-07
3.48689e-07
3.48688e-07
3.48687e-07
3.77581e-07
3.77807e-07
3.77578e-07
3.48698e-07
3.48702e-07
3.48697e-07
3.487e-07
3.778e-07
3.7757e-07
3.48687e-07
3.4871e-07
3.48685e-07
3.48708e-07
3.48701e-07
3.4868e-07
3.48699e-07
3.77816e-07
3.77585e-07
3.48689e-07
3.48688e-07
3.48687e-07
3.77582e-07
3.7781e-07
3.77578e-07
3.48699e-07
3.48702e-07
3.48697e-07
3.487e-07
3.77802e-07
3.77571e-07
3.48687e-07
3.4871e-07
3.48685e-07
3.48708e-07
3.48701e-07
3.4868e-07
3.48699e-07
3.77817e-07
3.77586e-07
3.48689e-07
3.48688e-07
3.48687e-07
3.77583e-07
3.7781e-07
3.77578e-07
3.48699e-07
3.48702e-07
3.48697e-07
3.487e-07
3.77803e-07
3.7757e-07
3.48687e-07
3.4871e-07
3.48685e-07
3.48708e-07
3.48701e-07
3.4868e-07
3.48699e-07
3.77818e-07
3.77586e-07
3.48689e-07
3.48688e-07
3.48687e-07
3.77583e-07
3.7781e-07
3.77578e-07
3.48698e-07
3.48702e-07
3.48697e-07
3.487e-07
3.77803e-07
3.7757e-07
3.48687e-07
3.4871e-07
3.48685e-07
3.48708e-07
3.48701e-07
3.4868e-07
3.48699e-07
3.77818e-07
3.77586e-07
3.48689e-07
3.48688e-07
3.48687e-07
3.77583e-07
3.7781e-07
3.77578e-07
3.48699e-07
3.48702e-07
3.48697e-07
3.487e-07
3.77803e-07
3.7757e-07
3.48687e-07
3.4871e-07
3.48685e-07
3.48708e-07
3.48701e-07
3.4868e-07
3.48699e-07
3.77818e-07
3.77586e-07
3.48689e-07
3.48688e-07
3.48687e-07
3.77583e-07
3.7781e-07
3.77578e-07
3.48698e-07
3.48702e-07
3.48697e-07
3.487e-07
3.77803e-07
3.77571e-07
3.48687e-07
3.4871e-07
3.48685e-07
3.48708e-07
3.48701e-07
3.4868e-07
3.48699e-07
3.77819e-07
3.77586e-07
3.48689e-07
3.48688e-07
3.48687e-07
3.77583e-07
3.7781e-07
3.77578e-07
3.48699e-07
3.48702e-07
3.48696e-07
3.487e-07
3.77803e-07
3.7757e-07
3.48687e-07
3.4871e-07
3.48685e-07
3.48708e-07
3.48701e-07
3.4868e-07
3.48699e-07
3.77818e-07
3.77586e-07
3.48689e-07
3.48688e-07
3.48687e-07
3.77583e-07
3.7781e-07
3.77578e-07
3.48699e-07
3.48702e-07
3.48699e-07
3.48844e-07
3.77803e-07
3.77677e-07
3.48687e-07
3.4871e-07
3.48685e-07
3.48708e-07
3.48701e-07
3.48823e-07
3.48702e-07
3.77818e-07
3.77586e-07
3.48689e-07
3.48689e-07
3.48689e-07
3.77583e-07
3.77815e-07
3.77704e-07
3.48839e-07
3.48844e-07
3.48839e-07
3.48843e-07
3.77914e-07
3.77689e-07
3.48688e-07
3.48711e-07
3.48829e-07
3.48851e-07
3.48842e-07
3.48825e-07
3.48841e-07
3.77819e-07
3.77703e-07
3.4883e-07
3.48833e-07
3.48829e-07
3.77698e-07
3.77936e-07
3.77706e-07
3.48843e-07
3.48847e-07
3.48843e-07
3.48847e-07
3.77923e-07
3.77697e-07
3.48832e-07
3.48855e-07
3.48832e-07
3.48854e-07
3.48845e-07
3.48829e-07
3.48844e-07
3.77936e-07
3.77709e-07
3.48832e-07
3.48836e-07
3.48832e-07
3.77706e-07
3.77939e-07
3.77712e-07
3.48847e-07
3.48851e-07
3.48847e-07
3.4885e-07
3.77931e-07
3.77703e-07
3.48835e-07
3.48857e-07
3.48834e-07
3.48856e-07
3.48848e-07
3.48831e-07
3.48847e-07
3.77942e-07
3.77716e-07
3.48836e-07
3.48838e-07
3.48835e-07
3.77712e-07
3.77945e-07
3.77714e-07
3.4885e-07
3.48852e-07
3.48847e-07
3.48848e-07
3.77936e-07
3.77704e-07
3.48835e-07
3.48859e-07
3.48833e-07
3.48854e-07
3.48849e-07
3.48828e-07
3.48846e-07
3.77949e-07
3.77719e-07
3.48837e-07
3.48837e-07
3.48833e-07
3.77717e-07
3.77946e-07
3.77672e-07
3.48845e-07
3.48842e-07
3.48777e-07
3.48754e-07
3.77935e-07
3.77612e-07
3.48832e-07
3.48854e-07
3.48789e-07
3.48815e-07
3.48843e-07
3.48734e-07
3.48769e-07
3.77951e-07
3.7769e-07
3.4883e-07
3.48785e-07
3.48757e-07
3.77653e-07
3.77886e-07
3.77566e-07
3.48744e-07
3.48728e-07
3.48699e-07
3.48701e-07
3.77829e-07
3.7756e-07
3.48752e-07
3.48778e-07
3.48689e-07
3.48713e-07
3.48738e-07
3.4868e-07
3.487e-07
3.77906e-07
3.77574e-07
3.48726e-07
3.48691e-07
3.48688e-07
3.77569e-07
3.77798e-07
3.77577e-07
3.48699e-07
3.48703e-07
3.48697e-07
3.48701e-07
3.77795e-07
3.77574e-07
3.48688e-07
3.48711e-07
3.48685e-07
3.48709e-07
3.48702e-07
3.48681e-07
3.487e-07
3.77803e-07
3.77586e-07
3.48689e-07
3.48689e-07
3.48688e-07
3.77586e-07
3.77811e-07
3.77575e-07
3.487e-07
3.48703e-07
3.48696e-07
3.48699e-07
3.77807e-07
3.77565e-07
3.48688e-07
3.48712e-07
3.48684e-07
3.48707e-07
3.48702e-07
3.48679e-07
3.48698e-07
3.77819e-07
3.77583e-07
3.48689e-07
3.48687e-07
3.48686e-07
3.77578e-07
3.77805e-07
3.77577e-07
3.48697e-07
3.48701e-07
3.48693e-07
3.48697e-07
3.77799e-07
3.77566e-07
3.48685e-07
3.48709e-07
3.48681e-07
3.48705e-07
3.487e-07
3.48676e-07
3.48696e-07
3.77813e-07
3.77584e-07
3.48687e-07
3.48685e-07
3.48683e-07
3.77581e-07
3.77809e-07
3.77571e-07
3.48695e-07
3.48698e-07
3.48688e-07
3.48691e-07
3.77797e-07
3.77564e-07
3.48683e-07
3.48707e-07
3.48676e-07
3.487e-07
3.48698e-07
3.48671e-07
3.48691e-07
3.77816e-07
3.77579e-07
3.48685e-07
3.48679e-07
3.48678e-07
3.77578e-07
3.77803e-07
3.77542e-07
3.48691e-07
3.48693e-07
3.48653e-07
3.48655e-07
3.77795e-07
3.77535e-07
3.48679e-07
3.48701e-07
3.48639e-07
3.48662e-07
3.48692e-07
3.48635e-07
3.48656e-07
3.77809e-07
3.7755e-07
3.4868e-07
3.48643e-07
3.4864e-07
3.77548e-07
3.77771e-07
3.75383e-07
3.48702e-07
3.48704e-07
3.4652e-07
3.46521e-07
3.77764e-07
3.75379e-07
3.48689e-07
3.48712e-07
3.4651e-07
3.46524e-07
3.48706e-07
3.46507e-07
3.46521e-07
3.77777e-07
3.75387e-07
3.4869e-07
3.46511e-07
3.46509e-07
3.75383e-07
3.72579e-07
3.45136e-07
3.45137e-07
3.72576e-07
3.45129e-07
3.45139e-07
3.26828e-07
3.26828e-07
3.26828e-07
3.45137e-07
3.72582e-07
3.45129e-07
5.35654e-07
5.35597e-07
5.35647e-07
5.35647e-07
5.34573e-07
5.3552e-07
5.33635e-07
5.35648e-07
5.34574e-07
5.3552e-07
5.35648e-07
5.33634e-07
5.35264e-07
5.35987e-07
5.35987e-07
1.10837e-06
3.88247e-06
9.33259e-07
4.6047e-06
1.26083e-05
1.6594e-05
1.10849e-06
3.88272e-06
9.33292e-07
4.60504e-06
4.95615e-07
4.95615e-07
4.95615e-07
4.57233e-07
4.57232e-07
4.57232e-07
4.57232e-07
5.43411e-07
1.22021e-06
4.95604e-07
4.85529e-07
5.25184e-07
1.20994e-06
4.82287e-07
1.26098e-05
1.65961e-05
5.43431e-07
4.95604e-07
1.22019e-06
4.85529e-07
5.25163e-07
4.82288e-07
1.20993e-06
2.52157e-06
2.52227e-06
4.84197e-07
2.37349e-06
2.37388e-06
1.43023e-06
5.59693e-06
1.32942e-06
6.13213e-06
2.12958e-05
2.3102e-05
1.43069e-06
5.5976e-06
1.32946e-06
6.13275e-06
4.45775e-07
4.45776e-07
4.45775e-07
4.1315e-07
4.13149e-07
4.13151e-07
4.1315e-07
5.86879e-07
1.19511e-06
4.46603e-07
4.44375e-07
5.73757e-07
1.20409e-06
4.35808e-07