/*--------------------------------*- C++ -*----------------------------------*\
| =========                 |                                                 |
| \\      /  F ield         | OpenFOAM: The Open Source CFD Toolbox           |
|  \\    /   O peration     | Version:  2206                                  |
|   \\  /    A nd           | Website:  www.openfoam.com                      |
|    \\/     M anipulation  |                                                 |
\*---------------------------------------------------------------------------*/
FoamFile
{
    version     2.0;
    format      ascii;
    arch        "LSB;label=32;scalar=64";
    class       volScalarField;
    location    "21";
    object      Ux;
}
// * * * * * * * * * * * * * * * * * * * * * * * * * * * * * * * * * * * * * //

dimensions      [0 1 -1 0 0 0 0];

internalField   nonuniform List<scalar> 
171728
(
0.000107917
-0.000190307
0.000119304
-0.000239078
9.33651e-05
-0.000157396
9.62409e-05
-0.000200661
9.61254e-05
-0.000157689
9.51994e-05
-0.000200783
9.00257e-05
-0.000153538
9.1131e-05
-0.000193121
5.32811e-05
-7.36561e-05
4.30703e-05
-0.000114766
1.32426e-05
-1.73698e-05
1.24587e-05
-5.62183e-05
8.76786e-07
-2.01449e-06
1.78684e-06
-4.25871e-05
-5.24029e-07
-4.6306e-07
6.77786e-07
-4.14904e-05
-6.08487e-07
-4.08422e-07
6.27283e-07
-4.14497e-05
-6.10196e-07
-4.08166e-07
6.27587e-07
-4.14498e-05
-6.07103e-07
-4.08045e-07
6.27627e-07
-4.14501e-05
-6.11524e-07
-4.11035e-07
6.27166e-07
-4.14506e-05
-6.10124e-07
-4.18281e-07
6.2696e-07
-4.14509e-05
-6.10561e-07
-4.15414e-07
6.26548e-07
-4.14507e-05
-6.14188e-07
-4.08645e-07
6.25782e-07
-4.14504e-05
-6.15061e-07
-4.07997e-07
6.25217e-07
-4.14498e-05
-6.12792e-07
-4.09798e-07
6.26102e-07
-4.14502e-05
-6.12443e-07
-4.09314e-07
6.26401e-07
-4.14507e-05
-6.09369e-07
-4.11089e-07
6.27649e-07
-4.14517e-05
-6.02959e-07
-4.07795e-07
6.28172e-07
-4.14518e-05
-5.99836e-07
-4.13943e-07
6.28581e-07
-4.14506e-05
-6.08845e-07
-4.10851e-07
6.27017e-07
-4.145e-05
-6.11275e-07
-4.08515e-07
6.26151e-07
-4.14491e-05
-6.12424e-07
-4.08018e-07
6.25917e-07
-4.14494e-05
-6.12482e-07
-4.08876e-07
6.26433e-07
-4.14501e-05
-6.12228e-07
-4.0885e-07
6.26757e-07
-4.14507e-05
-6.11241e-07
-4.09625e-07
6.2753e-07
-4.14516e-05
-6.11553e-07
-4.09614e-07
6.26941e-07
-4.14517e-05
-6.11874e-07
-4.0924e-07
6.27331e-07
-4.14513e-05
-6.11985e-07
-4.08671e-07
6.26754e-07
-4.14508e-05
-6.1304e-07
-4.0763e-07
6.26051e-07
-4.14503e-05
-6.12345e-07
-4.08214e-07
6.26443e-07
-4.14504e-05
-6.1242e-07
-4.07923e-07
6.26215e-07
-4.14506e-05
-6.11702e-07
-4.08703e-07
6.27147e-07
-4.14514e-05
-6.11712e-07
-4.09383e-07
6.26986e-07
-4.14517e-05
-6.11457e-07
-4.09096e-07
6.27429e-07
-4.14517e-05
-6.11861e-07
-4.09225e-07
6.2713e-07
-4.14515e-05
-6.12523e-07
-4.07846e-07
6.26507e-07
-4.14505e-05
-6.12312e-07
-4.08543e-07
6.26997e-07
-4.14506e-05
-6.12684e-07
-4.06294e-07
6.24818e-07
-4.14464e-05
-6.07558e-07
-4.06563e-07
6.25804e-07
-4.14488e-05
-6.14711e-07
-4.08277e-07
6.26057e-07
-4.14521e-05
-6.11076e-07
-4.09409e-07
6.26994e-07
-4.14522e-05
-6.10552e-07
-4.09051e-07
6.26885e-07
-4.14519e-05
-6.10882e-07
-4.09201e-07
6.25958e-07
-4.14516e-05
-6.11114e-07
-4.09001e-07
6.25637e-07
-4.14512e-05
-6.11118e-07
-4.07655e-07
6.25498e-07
-4.14501e-05
-6.11377e-07
-4.08977e-07
6.25853e-07
-4.14508e-05
-6.11415e-07
-4.0854e-07
6.2591e-07
-4.14511e-05
-6.10232e-07
-4.09834e-07
6.26519e-07
-4.14523e-05
-6.10244e-07
-4.09747e-07
6.26731e-07
-4.14527e-05
-6.10216e-07
-4.10099e-07
6.26685e-07
-4.14521e-05
-6.10383e-07
-4.09949e-07
6.26368e-07
-4.14521e-05
-6.09756e-07
-4.08063e-07
6.26096e-07
-4.14504e-05
-6.08896e-07
-4.08634e-07
6.26184e-07
-4.14503e-05
-6.1099e-07
-4.08248e-07
6.25686e-07
-4.14514e-05
-6.09895e-07
-4.1098e-07
6.26745e-07
-4.1454e-05
-6.08942e-07
-4.1127e-07
6.27403e-07
-4.14545e-05
-6.08706e-07
-4.12363e-07
6.27757e-07
-4.14551e-05
-6.08662e-07
-4.12034e-07
6.28258e-07
-4.14549e-05
-6.08724e-07
-4.11056e-07
6.2744e-07
-4.1454e-05
-6.09257e-07
-4.10905e-07
6.27225e-07
-4.1454e-05
-6.10572e-07
-4.09775e-07
6.26495e-07
-4.14529e-05
-6.09365e-07
-4.10722e-07
6.2728e-07
-4.14538e-05
-6.09412e-07
-4.10481e-07
6.26924e-07
-4.14537e-05
-6.08755e-07
-4.11728e-07
6.27925e-07
-4.14544e-05
-6.08539e-07
-4.12225e-07
6.28046e-07
-4.1455e-05
-6.08481e-07
-4.11447e-07
6.27855e-07
-4.14549e-05
-6.08425e-07
-4.11424e-07
6.29101e-07
-4.14559e-05
-6.09212e-07
-4.09929e-07
6.34341e-07
-4.14582e-05
-6.0919e-07
-4.10858e-07
6.3053e-07
-4.14572e-05
-6.09615e-07
-4.09437e-07
6.26845e-07
-4.14532e-05
-6.09224e-07
-4.11571e-07
6.2756e-07
-4.14542e-05
-6.08939e-07
-4.11256e-07
6.27447e-07
-4.14547e-05
-6.08359e-07
-4.11751e-07
6.28538e-07
-4.14552e-05
-6.08536e-07
-4.12003e-07
6.28364e-07
-4.14554e-05
-6.09337e-07
-4.10984e-07
6.27405e-07
-4.14549e-05
-6.09487e-07
-4.10711e-07
6.27413e-07
-4.14545e-05
-6.10064e-07
-4.10129e-07
6.27051e-07
-4.14539e-05
-6.09866e-07
-4.10832e-07
6.27063e-07
-4.14543e-05
-6.09298e-07
-4.10509e-07
6.27494e-07
-4.14547e-05
-6.08572e-07
-4.11903e-07
6.27927e-07
-4.14554e-05
-6.08621e-07
-4.11971e-07
6.27817e-07
-4.14552e-05
-6.08602e-07
-4.12102e-07
6.27958e-07
-4.14553e-05
-6.09064e-07
-4.10737e-07
6.27294e-07
-4.14545e-05
-6.09484e-07
-4.10489e-07
6.27108e-07
-4.14542e-05
-6.09723e-07
-4.10413e-07
6.27464e-07
-4.14539e-05
-6.11025e-07
-4.08973e-07
6.26351e-07
-4.14538e-05
-6.18896e-07
-4.03487e-07
6.21139e-07
-4.14479e-05
-6.22467e-07
-4.40351e-07
6.32134e-07
-4.13625e-05
-6.69248e-07
-6.88552e-07
7.75644e-07
-4.06968e-05
-3.26477e-07
-1.52982e-06
1.39847e-06
-4.06378e-05
-3.74518e-07
-3.13458e-06
2.5249e-06
-3.77795e-05
-5.64861e-06
-2.41413e-06
3.19004e-06
-2.62126e-05
-4.2394e-05
4.12897e-05
-3.44752e-05
4.84362e-05
0.000135342
0.000124259
-0.000124252
-0.000135338
0.000152862
0.000152834
9.0757e-05
-9.07469e-05
9.07317e-05
-9.07296e-05
-0.000152857
-0.000152843
0.000135332
0.00012421
-0.000124206
-0.00013534
0.000239121
0.0001131
0.000119352
-0.000119301
9.04812e-05
-9.04427e-05
-0.000239132
-0.000113058
0.000190343
0.000190282
0.000149128
0.000149156
-0.000190263
-0.000149095
-0.000149113
0.000239052
0.000113054
-0.000119284
9.04633e-05
-9.04425e-05
-0.000113052
0.000200745
0.000108228
9.62401e-05
-9.62116e-05
9.56998e-05
-9.56992e-05
-0.000200707
-0.000108218
0.000157431
0.000157445
0.000158831
0.000158874
-0.000157425
-0.000158828
-0.000158852
0.000200659
0.000108195
-9.62223e-05
9.57018e-05
-9.5709e-05
-0.000108209
0.000200848
0.000101105
9.51866e-05
-9.51916e-05
9.2079e-05
-9.20746e-05
-0.000200838
-0.000101089
0.000157697
0.000157735
0.000154318
0.000154346
-0.000157712
-0.000154309
-0.000154342
0.000200768
0.000101063
-9.52051e-05
9.20749e-05
-9.20691e-05
-0.000101118
0.000193144
4.08493e-05
9.11154e-05
-9.11008e-05
5.42519e-05
-5.42576e-05
-0.000193133
-4.07907e-05
0.000153546
0.000153577
9.55476e-05
9.55779e-05
-0.000153576
-9.55427e-05
-9.55822e-05
0.000193062
4.0846e-05
-9.112e-05
5.42237e-05
-5.42091e-05
-4.08608e-05
0.000114798
-2.44161e-05
4.30953e-05
-4.31089e-05
1.8506e-05
-1.85222e-05
-0.000114774
2.44149e-05
7.36656e-05
7.36829e-05
2.69636e-05
2.69687e-05
-7.36711e-05
-2.69598e-05
-2.69592e-05
0.000114766
-2.43914e-05
-4.30572e-05
1.84823e-05
-1.84829e-05
2.44113e-05
5.62369e-05
-4.15431e-05
1.24802e-05
-1.24948e-05
2.91639e-06
-2.92032e-06
-5.62419e-05
4.15473e-05
1.73727e-05
1.73826e-05
3.5407e-06
3.55521e-06
-1.73753e-05
-3.53692e-06
-3.55853e-06
5.62119e-05
-4.15207e-05
-1.24584e-05
2.89516e-06
-2.89599e-06
4.1521e-05
4.2595e-05
-4.31495e-05
1.81033e-06
-1.80815e-06
7.71962e-07
-7.65495e-07
-4.25901e-05
4.31535e-05
2.0204e-06
2.03187e-06
5.56137e-07
5.73204e-07
-2.03402e-06
-5.53499e-07
-5.72256e-07
4.25739e-05
-4.31234e-05
-1.78629e-06
7.43855e-07
-7.43235e-07
4.31268e-05
4.14974e-05
-4.32108e-05
7.00964e-07
-6.97704e-07
6.5196e-07
-6.51306e-07
-4.14945e-05
4.32148e-05
4.6828e-07
4.83204e-07
4.11402e-07
4.3025e-07
-4.81231e-07
-4.09305e-07
-4.27544e-07
4.14798e-05
-4.31857e-05
-6.75491e-07
6.28431e-07
-6.27239e-07
4.31899e-05
4.14576e-05
-4.32119e-05
6.49545e-07
-6.48871e-07
6.49633e-07
-6.48995e-07
-4.14549e-05
4.32171e-05
4.13327e-07
4.28088e-07
4.09656e-07
4.28995e-07
-4.25237e-07
-4.07272e-07
-4.26037e-07
4.14396e-05
-4.31856e-05
-6.24923e-07
6.26038e-07
-6.24192e-07
4.31906e-05
4.1458e-05
-4.32076e-05
6.50018e-07
-6.47812e-07
6.59426e-07
-6.48928e-07
-4.14547e-05
4.32215e-05
4.13375e-07
4.28991e-07
4.10997e-07
4.30153e-07
-4.25455e-07
-4.07153e-07
-4.26314e-07
4.14407e-05
-4.31846e-05
-6.24095e-07
6.26752e-07
-6.24215e-07
4.31904e-05
4.1462e-05
-4.32095e-05
6.58893e-07
-6.47567e-07
6.48976e-07
-6.50651e-07
-4.14542e-05
4.32198e-05
4.13782e-07
4.29692e-07
4.10041e-07
4.29766e-07
-4.25787e-07
-4.08571e-07
-4.26848e-07
4.14412e-05
-4.3185e-05
-6.24192e-07
6.26081e-07
-6.24506e-07
4.31897e-05
4.14588e-05
-4.32112e-05
6.49173e-07
-6.50071e-07
6.47188e-07
-6.49803e-07
-4.14558e-05
4.3217e-05
4.13523e-07
4.29142e-07
4.08661e-07
4.28902e-07
-4.26379e-07
-4.15662e-07
-4.28084e-07
4.14406e-05
-4.31855e-05
-6.24411e-07
6.25924e-07
-6.243e-07
4.31892e-05
4.14579e-05
-4.32128e-05
6.4748e-07
-6.4854e-07
6.46044e-07
-6.47366e-07
-4.14587e-05
4.32139e-05
4.12088e-07
4.28062e-07
4.07759e-07
4.27849e-07
-4.27899e-07
-4.15499e-07
-4.28198e-07
4.144e-05
-4.31865e-05
-6.24167e-07
6.25619e-07
-6.23943e-07
4.31895e-05
4.14565e-05
-4.32098e-05
6.47521e-07
-6.47743e-07
6.44814e-07
-6.49961e-07
-4.14615e-05
4.32173e-05
4.10886e-07
4.27232e-07
4.07727e-07
4.27441e-07
-4.27371e-07
-4.07774e-07
-4.26681e-07
4.14393e-05
-4.3187e-05
-6.24045e-07
6.24801e-07
-6.24328e-07
4.31901e-05
4.14572e-05
-4.32121e-05
6.43022e-07
-6.5136e-07
6.41169e-07
-6.59353e-07
-4.146e-05
4.32143e-05
4.10755e-07
4.27002e-07
4.07336e-07
4.27087e-07
-4.25987e-07
-4.0773e-07
-4.26127e-07
4.1439e-05
-4.31873e-05
-6.24358e-07
6.24144e-07
-6.24301e-07
4.31907e-05
4.14554e-05
-4.32092e-05
6.40257e-07
-6.55363e-07
6.43959e-07
-6.50138e-07
-4.14593e-05
4.32149e-05
4.1068e-07
4.2663e-07
4.0896e-07
4.27852e-07
-4.25239e-07
-4.07924e-07
-4.2626e-07
4.14387e-05
-4.31867e-05
-6.24118e-07
6.24721e-07
-6.24572e-07
4.31905e-05
4.14578e-05
-4.32094e-05
6.43935e-07
-6.50171e-07
6.44266e-07
-6.4948e-07
-4.14575e-05
4.32166e-05
4.12825e-07
4.27719e-07
4.097e-07
4.28367e-07
-4.26086e-07
-4.08573e-07
-4.26326e-07
4.14396e-05
-4.31862e-05
-6.24777e-07
6.25154e-07
-6.24611e-07
4.31902e-05
4.14577e-05
-4.32111e-05
6.41703e-07
-6.48666e-07
6.46908e-07
-6.54566e-07
-4.14559e-05
4.32152e-05
4.12561e-07
4.28235e-07
4.09831e-07
4.29826e-07
-4.2593e-07
-4.0977e-07
-4.2766e-07
4.14403e-05
-4.31852e-05
-6.24352e-07
6.26292e-07
-6.24707e-07
4.31898e-05
4.14596e-05
-4.32119e-05
6.48556e-07
-6.5671e-07
6.49736e-07
-6.45865e-07
-4.14617e-05
4.322e-05
4.13028e-07
4.29452e-07
4.10941e-07
4.295e-07
-4.2843e-07
-4.08555e-07
-4.32909e-07
4.14417e-05
-4.31851e-05
-6.24492e-07
6.26912e-07
-6.2326e-07
4.31883e-05
4.14627e-05
-4.32169e-05
6.50564e-07
-6.34676e-07
6.52337e-07
-6.50135e-07
-4.14442e-05
4.32084e-05
4.15095e-07
4.28793e-07
4.16573e-07
4.3009e-07
-4.32186e-07
-4.13185e-07
-4.26594e-07
4.14412e-05
-4.31846e-05
-6.22727e-07
6.2765e-07
-6.23679e-07
4.31897e-05
4.14593e-05
-4.32157e-05
6.53713e-07
-6.47358e-07
6.46469e-07
-6.47147e-07
-4.1461e-05
4.32194e-05
4.18536e-07
4.29743e-07
4.11307e-07
4.28719e-07
-4.2565e-07
-4.09595e-07
-4.26135e-07
4.14412e-05
-4.31857e-05
-6.23838e-07
6.26056e-07
-6.23835e-07
4.319e-05
4.1462e-05
-4.32157e-05
6.45753e-07
-6.49597e-07
6.45838e-07
-6.50128e-07
-4.1452e-05
4.3216e-05
4.12393e-07
4.27892e-07
4.08366e-07
4.2795e-07
-4.25072e-07
-4.07334e-07
-4.2518e-07
4.144e-05
-4.31861e-05
-6.23869e-07
6.25239e-07
-6.23889e-07
4.3191e-05
4.1462e-05
-4.32157e-05
6.46375e-07
-6.49867e-07
6.46503e-07
-6.50771e-07
-4.14543e-05
4.32154e-05
4.11901e-07
4.27342e-07
4.07883e-07
4.27596e-07
-4.24598e-07
-4.07266e-07
-4.25342e-07
4.14395e-05
-4.31863e-05
-6.23714e-07
6.25057e-07
-6.23787e-07
4.31909e-05
4.14621e-05
-4.32158e-05
6.46255e-07
-6.50333e-07
6.46334e-07
-6.51108e-07
-4.14549e-05
4.3215e-05
4.11283e-07
4.2702e-07
4.08099e-07
4.27831e-07
-4.24648e-07
-4.07615e-07
-4.25263e-07
4.14394e-05
-4.31862e-05
-6.23841e-07
6.25067e-07
-6.24114e-07
4.31904e-05
4.14624e-05
-4.32153e-05
6.46918e-07
-6.51116e-07
6.47226e-07
-6.51478e-07
-4.14556e-05
4.32146e-05
4.12046e-07
4.27727e-07
4.08804e-07
4.28388e-07
-4.24947e-07
-4.0786e-07
-4.25506e-07
4.14396e-05
-4.31857e-05
-6.24359e-07
6.25538e-07
-6.24481e-07
4.31895e-05
4.14629e-05
-4.32146e-05
6.47618e-07
-6.51398e-07
6.48554e-07
-6.51441e-07
-4.14561e-05
4.32143e-05
4.12302e-07
4.27977e-07
4.09332e-07
4.29034e-07
-4.24833e-07
-4.08331e-07
-4.26272e-07
4.144e-05
-4.31851e-05
-6.24478e-07
6.26097e-07
-6.25151e-07
4.31888e-05
4.14635e-05
-4.32144e-05
6.49024e-07
-6.51532e-07
6.4869e-07
-6.51457e-07
-4.1456e-05
4.32136e-05
4.13244e-07
4.28986e-07
4.09428e-07
4.29267e-07
-4.26073e-07
-4.08779e-07
-4.26551e-07
4.14406e-05
-4.3185e-05
-6.25378e-07
6.26165e-07
-6.25478e-07
4.31884e-05
4.14636e-05
-4.32149e-05
6.4875e-07
-6.51685e-07
6.48194e-07
-6.51036e-07
-4.14568e-05
4.32142e-05
4.12757e-07
4.28476e-07
4.09114e-07
4.29021e-07
-4.25592e-07
-4.08459e-07
-4.25868e-07
4.14405e-05
-4.31853e-05
-6.25193e-07
6.26127e-07
-6.25031e-07
4.31889e-05
4.14632e-05
-4.32155e-05
6.48213e-07
-6.52069e-07
6.48115e-07
-6.4945e-07
-4.14564e-05
4.32152e-05
4.12632e-07
4.2864e-07
4.08465e-07
4.28204e-07
-4.25085e-07
-4.07611e-07
-4.25208e-07
4.14406e-05
-4.3186e-05
-6.24763e-07
6.25542e-07
-6.24466e-07
4.31896e-05
4.14626e-05
-4.32157e-05
6.48595e-07
-6.52372e-07
6.47322e-07
-6.47842e-07
-4.14557e-05
4.3215e-05
4.12142e-07
4.27871e-07
4.0796e-07
4.27651e-07
-4.25021e-07
-4.07139e-07
-4.24725e-07
4.14396e-05
-4.31863e-05
-6.24801e-07
6.25175e-07
-6.24178e-07
4.31898e-05
4.14621e-05
-4.3216e-05
6.47081e-07
-6.54519e-07
6.47804e-07
-6.49685e-07
-4.14563e-05
4.32162e-05
4.10985e-07
4.26857e-07
4.07708e-07
4.27459e-07
-4.23889e-07
-4.07155e-07
-4.24582e-07
4.14393e-05
-4.31865e-05
-6.2382e-07
6.25135e-07
-6.24215e-07
4.31899e-05
4.14623e-05
-4.32155e-05
6.48313e-07
-6.52394e-07
6.47794e-07
-6.5186e-07
-4.14561e-05
4.32169e-05
4.11716e-07
4.27465e-07
4.08038e-07
4.27735e-07
-4.2415e-07
-4.06767e-07
-4.2449e-07
4.14394e-05
-4.31862e-05
-6.24049e-07
6.25235e-07
-6.24109e-07
4.31898e-05
4.14625e-05
-4.32151e-05
6.47913e-07
-6.51728e-07
6.48038e-07
-6.52836e-07
-4.14549e-05
4.32165e-05
4.11422e-07
4.27295e-07
4.0882e-07
4.28469e-07
-4.24242e-07
-4.07623e-07
-4.25464e-07
4.14395e-05
-4.31855e-05
-6.24171e-07
6.25814e-07
-6.24827e-07
4.3189e-05
4.14633e-05
-4.3215e-05
6.48604e-07
-6.52739e-07
6.48161e-07
-6.53398e-07
-4.14552e-05
4.32158e-05
4.12727e-07
4.28557e-07
4.08924e-07
4.28782e-07
-4.25247e-07
-4.08257e-07
-4.26084e-07
4.14404e-05
-4.31853e-05
-6.24753e-07
6.25952e-07
-6.25126e-07
4.31887e-05
4.14631e-05
-4.32145e-05
6.48434e-07
-6.53309e-07
6.48504e-07
-6.53613e-07
-4.14561e-05
4.32161e-05
4.12629e-07
4.28535e-07
4.09427e-07
4.29135e-07
-4.25525e-07
-4.08289e-07
-4.26128e-07
4.14404e-05
-4.31849e-05
-6.2505e-07
6.26442e-07
-6.25341e-07
4.31887e-05
4.14637e-05
-4.32148e-05
6.48689e-07
-6.53178e-07
6.48375e-07
-6.5381e-07
-4.14556e-05
4.32157e-05
4.12896e-07
4.28705e-07
4.09335e-07
4.29079e-07
-4.25652e-07
-4.08525e-07
-4.26135e-07
4.14409e-05
-4.31852e-05
-6.25239e-07
6.26427e-07
-6.25483e-07
4.31888e-05
4.14632e-05
-4.32157e-05
6.48245e-07
-6.53359e-07
6.47774e-07
-6.52806e-07
-4.14562e-05
4.32174e-05
4.12477e-07
4.28391e-07
4.08011e-07
4.27764e-07
-4.2521e-07
-4.07005e-07
-4.24932e-07
4.14405e-05
-4.31863e-05
-6.25062e-07
6.25583e-07
-6.24604e-07
4.31899e-05
4.14623e-05
-4.32153e-05
6.48126e-07
-6.51807e-07
6.47449e-07
-6.53512e-07
-4.1454e-05
4.32164e-05
4.11343e-07
4.27144e-07
4.08492e-07
4.28087e-07
-4.24497e-07
-4.07761e-07
-4.25287e-07
4.14396e-05
-4.31859e-05
-6.24551e-07
6.25923e-07
-6.24945e-07
4.31893e-05
4.14624e-05
-4.32167e-05
6.4853e-07
-6.52417e-07
6.44802e-07
-6.53022e-07
-4.14551e-05
4.32195e-05
4.11667e-07
4.27802e-07
4.08852e-07
4.2765e-07
-4.24795e-07
-4.05845e-07
-4.26558e-07
4.144e-05
-4.31879e-05
-6.24424e-07
6.24126e-07
-6.22773e-07
4.31935e-05
4.14593e-05
-4.3208e-05
6.45483e-07
-6.50159e-07
6.45721e-07
-6.5134e-07
-4.14515e-05
4.3218e-05
4.13518e-07
4.27768e-07
4.15057e-07
4.2899e-07
-4.2869e-07
-4.04237e-07
-4.31151e-07
4.14379e-05
-4.31875e-05
-6.20392e-07
6.24009e-07
-6.19984e-07
4.3193e-05
4.14671e-05
-4.32183e-05
6.51111e-07
-6.51808e-07
6.41626e-07
-6.57414e-07
-4.14563e-05
4.32117e-05
4.19325e-07
4.28866e-07
4.0822e-07
4.28769e-07
-4.27928e-07
-4.08747e-07
-4.26599e-07
4.14389e-05
-4.31867e-05
-6.22249e-07
6.25444e-07
-6.2494e-07
4.31888e-05
4.14553e-05
-4.32144e-05
6.43492e-07
-6.59611e-07
6.45781e-07
-6.4983e-07
-4.14627e-05
4.32155e-05
4.1042e-07
4.28099e-07
4.0899e-07
4.29049e-07
-4.26157e-07
-4.07669e-07
-4.26861e-07
4.14395e-05
-4.31865e-05
-6.24626e-07
6.25709e-07
-6.25544e-07
4.31886e-05
4.14587e-05
-4.32121e-05
6.46605e-07
-6.49759e-07
6.48182e-07
-6.49469e-07
-4.1456e-05
4.32165e-05
4.12357e-07
4.29269e-07
4.10465e-07
4.29698e-07
-4.26453e-07
-4.08561e-07
-4.26428e-07
4.14399e-05
-4.31859e-05
-6.25468e-07
6.26395e-07
-6.25427e-07
4.31887e-05
4.14604e-05
-4.32124e-05
6.47317e-07
-6.49512e-07
6.47352e-07
-6.49562e-07
-4.14553e-05
4.32171e-05
4.13532e-07
4.2915e-07
4.09775e-07
4.28925e-07
-4.25649e-07
-4.0833e-07
-4.25855e-07
4.144e-05
-4.31864e-05
-6.24963e-07
6.26113e-07
-6.25145e-07
4.3189e-05
4.146e-05
-4.32125e-05
6.4649e-07
-6.4936e-07
6.46074e-07
-6.49678e-07
-4.14547e-05
4.32169e-05
4.13005e-07
4.28602e-07
4.09939e-07
4.28494e-07
-4.25503e-07
-4.08426e-07
-4.25472e-07
4.14396e-05
-4.31867e-05
-6.24842e-07
6.25835e-07
-6.2508e-07
4.31893e-05
4.14599e-05
-4.32126e-05
6.45362e-07
-6.49274e-07
6.45671e-07
-6.48584e-07
-4.1455e-05
4.32186e-05
4.12942e-07
4.27863e-07
4.09797e-07
4.27958e-07
-4.24603e-07
-4.06838e-07
-4.24042e-07
4.14392e-05
-4.31874e-05
-6.24392e-07
6.25312e-07
-6.23854e-07
4.31906e-05
4.14598e-05
-4.32128e-05
6.45029e-07
-6.48254e-07
6.453e-07
-6.49194e-07
-4.14532e-05
4.32173e-05
4.12783e-07
4.27721e-07
4.09442e-07
4.28209e-07
-4.23724e-07
-4.07908e-07
-4.24698e-07
4.14388e-05
-4.3187e-05
-6.23667e-07
6.25743e-07
-6.24509e-07
4.31899e-05
4.14595e-05
-4.32131e-05
6.44762e-07
-6.49091e-07
6.45182e-07
-6.4884e-07
-4.14547e-05
4.32183e-05
4.12554e-07
4.279e-07
4.09096e-07
4.28017e-07
-4.24371e-07
-4.07493e-07
-4.24834e-07
4.14391e-05
-4.3187e-05
-6.24352e-07
6.25717e-07
-6.24883e-07
4.31895e-05
4.14594e-05
-4.32118e-05
6.44804e-07
-6.48709e-07
6.46146e-07
-6.49655e-07
-4.14536e-05
4.32169e-05
4.12418e-07
4.27881e-07
4.10458e-07
4.29016e-07
-4.24387e-07
-4.086e-07
-4.25738e-07
4.14391e-05
-4.31862e-05
-6.24569e-07
6.26313e-07
-6.25639e-07
4.31885e-05
4.14607e-05
-4.32116e-05
6.4584e-07
-6.49655e-07
6.46372e-07
-6.49929e-07
-4.1455e-05
4.32165e-05
4.13949e-07
4.29061e-07
4.10798e-07
4.295e-07
-4.25505e-07
-4.09185e-07
-4.26321e-07
4.14399e-05
-4.31858e-05
-6.25474e-07
6.26663e-07
-6.26013e-07
4.3188e-05
4.14607e-05
-4.32117e-05
6.4578e-07
-6.49616e-07
6.4623e-07
-6.49955e-07
-4.14551e-05
4.32165e-05
4.13855e-07
4.29107e-07
4.10586e-07
4.29253e-07
-4.25613e-07
-4.09027e-07
-4.25857e-07
4.14401e-05
-4.3186e-05
-6.25621e-07
6.26509e-07
-6.256e-07
4.31887e-05
4.14608e-05
-4.32115e-05
6.46061e-07
-6.49794e-07
6.4637e-07
-6.50042e-07
-4.14556e-05
4.32165e-05
4.14025e-07
4.29098e-07
4.1081e-07
4.29416e-07
-4.25458e-07
-4.09339e-07
-4.26116e-07
4.144e-05
-4.31857e-05
-6.25403e-07
6.26578e-07
-6.26109e-07
4.31883e-05
4.14606e-05
-4.32113e-05
6.45762e-07
-6.49747e-07
6.46724e-07
-6.47715e-07
-4.14555e-05
4.32177e-05
4.13763e-07
4.28745e-07
4.10367e-07
4.28206e-07
-4.24967e-07
-4.0769e-07
-4.23942e-07
4.14399e-05
-4.31868e-05
-6.25337e-07
6.25848e-07
-6.24624e-07
4.31899e-05
4.14606e-05
-4.321e-05
6.468e-07
-6.46544e-07
6.48748e-07
-6.38193e-07
-4.1453e-05
4.32213e-05
4.13851e-07
4.27887e-07
4.11122e-07
4.28231e-07
-4.23122e-07
-4.06974e-07
-4.23402e-07
4.14389e-05
-4.31865e-05
-6.24055e-07
6.2611e-07
-6.24181e-07
4.31903e-05
4.14615e-05
-4.32125e-05
6.48131e-07
-6.38159e-07
6.46009e-07
-6.48014e-07
-4.14498e-05
4.32199e-05
4.14183e-07
4.27682e-07
4.09825e-07
4.27451e-07
-4.23179e-07
-4.07757e-07
-4.24696e-07
4.1439e-05
-4.31871e-05
-6.23982e-07
6.25609e-07
-6.24271e-07
4.31896e-05
4.14597e-05
-4.32128e-05
6.45064e-07
-6.46524e-07
6.46005e-07
-6.48352e-07
-4.14519e-05
4.32166e-05
4.12725e-07
4.26807e-07
4.09228e-07
4.26407e-07
-4.25516e-07
-4.10263e-07
-4.32196e-07
4.14387e-05
-4.31875e-05
-6.23422e-07
6.26149e-07
-6.23501e-07
4.31868e-05
4.14596e-05
-4.32125e-05
6.45767e-07
-6.48116e-07
6.46517e-07
-6.48589e-07
-4.14552e-05
4.32162e-05
4.12683e-07
4.26053e-07
4.09738e-07
4.26636e-07
-4.33097e-07
-4.10586e-07
-4.32514e-07
4.14385e-05
-4.31874e-05
-6.23095e-07
6.27145e-07
-6.23958e-07
4.31862e-05
4.14598e-05
-4.32124e-05
6.46193e-07
-6.48306e-07
6.46683e-07
-6.48973e-07
-4.14556e-05
4.32156e-05
4.12919e-07
4.26269e-07
4.09744e-07
4.26747e-07
-4.3272e-07
-4.11328e-07
-4.33173e-07
4.14386e-05
-4.31871e-05
-6.23498e-07
6.27489e-07
-6.24816e-07
4.31857e-05
4.14599e-05
-4.32121e-05
6.46222e-07
-6.49064e-07
6.46788e-07
-6.49576e-07
-4.14564e-05
4.32153e-05
4.13043e-07
4.26475e-07
4.1014e-07
4.27309e-07
-4.33518e-07
-4.11572e-07
-4.3319e-07
4.1439e-05
-4.31864e-05
-6.24458e-07
6.28044e-07
-6.25052e-07
4.31857e-05
4.14601e-05
-4.32127e-05
6.4609e-07
-6.49146e-07
6.46512e-07
-6.48859e-07
-4.14563e-05
4.32163e-05
4.13049e-07
4.26858e-07
4.09598e-07
4.26572e-07
-4.33323e-07
-4.10518e-07
-4.32179e-07
4.14396e-05
-4.31873e-05
-6.24609e-07
6.27469e-07
-6.24666e-07
4.31866e-05
4.14597e-05
-4.32127e-05
6.46198e-07
-6.48506e-07
6.46425e-07
-6.48888e-07
-4.14554e-05
4.32163e-05
4.12758e-07
4.26007e-07
4.09469e-07
4.26457e-07
-4.32213e-07
-4.10354e-07
-4.32265e-07
4.14386e-05
-4.31875e-05
-6.24005e-07
6.27166e-07
-6.24707e-07
4.31867e-05
4.14594e-05
-4.32141e-05
6.45642e-07
-6.48529e-07
6.45281e-07
-6.48026e-07
-4.14554e-05
4.32173e-05
4.12265e-07
4.25829e-07
4.07872e-07
4.2505e-07
-4.32366e-07
-4.0904e-07
-4.30854e-07
4.14384e-05
-4.31885e-05
-6.2414e-07
6.26259e-07
-6.23752e-07
4.31877e-05
4.14581e-05
-4.32133e-05
6.44662e-07
-6.47746e-07
6.45831e-07
-6.48569e-07
-4.14544e-05
4.32166e-05
4.10602e-07
4.24584e-07
4.09037e-07
4.26061e-07
-4.3093e-07
-4.09815e-07
-4.31676e-07
4.14375e-05
-4.31876e-05
-6.23089e-07
6.26951e-07
-6.24072e-07
4.31872e-05
4.14592e-05
-4.32129e-05
6.45573e-07
-6.48441e-07
6.46115e-07
-6.48596e-07
-4.14553e-05
4.32166e-05
4.11895e-07
4.2586e-07
4.0961e-07
4.26101e-07
-4.3206e-07
-4.09871e-07
-4.31692e-07
4.14385e-05
-4.31878e-05
-6.2377e-07
6.26805e-07
-6.24633e-07
4.3187e-05
4.14594e-05
-4.32127e-05
6.45566e-07
-6.48268e-07
6.46362e-07
-6.48987e-07
-4.14552e-05
4.32161e-05
4.11189e-07
4.25481e-07
4.10177e-07
4.26389e-07
-4.31718e-07
-4.10508e-07
-4.32162e-07
4.14381e-05
-4.31872e-05
-6.24184e-07
6.27249e-07
-6.25167e-07
4.31866e-05
4.14597e-05
-4.32123e-05
6.46132e-07
-6.4898e-07
6.46719e-07
-6.4952e-07
-4.14558e-05
4.32155e-05
4.12256e-07
4.26459e-07
4.10766e-07
4.27129e-07
-4.32819e-07
-4.11454e-07
-4.33065e-07
4.14391e-05
-4.31864e-05
-6.24926e-07
6.28033e-07
-6.2596e-07
4.31858e-05
4.14599e-05
-4.32124e-05
6.46162e-07
-6.4933e-07
6.4671e-07
-6.49154e-07
-4.14562e-05
4.3216e-05
4.1235e-07
4.26689e-07
4.10651e-07
4.26949e-07
-4.33224e-07
-4.10698e-07
-4.32518e-07
4.14395e-05
-4.31869e-05
-6.25455e-07
6.27571e-07
-6.25692e-07
4.31858e-05
4.14597e-05
-4.32125e-05
6.46121e-07
-6.48754e-07
6.46464e-07
-6.49279e-07
-4.14553e-05
4.32155e-05
4.12254e-07
4.2645e-07
4.10386e-07
4.27589e-07
-4.32972e-07
-4.10869e-07
-4.33219e-07
4.14393e-05
-4.31853e-05
-6.25361e-07
6.28372e-07
-6.26806e-07
4.31845e-05
4.14592e-05
-4.32134e-05
6.46019e-07
-6.48909e-07
6.4565e-07
-6.48343e-07
-4.14557e-05
4.3217e-05
4.11953e-07
4.27724e-07
4.08959e-07
4.29101e-07
-4.33976e-07
-4.09388e-07
-4.34655e-07
4.14403e-05
-4.31809e-05
-6.26891e-07
6.32583e-07
-6.30406e-07
4.31806e-05
4.1458e-05
-4.32134e-05
6.45014e-07
-6.48067e-07
6.4567e-07
-6.48821e-07
-4.1454e-05
4.3216e-05
4.10455e-07
4.2898e-07
4.0903e-07
4.28146e-07
-4.35228e-07
-4.09997e-07
-4.3426e-07
4.14432e-05
-4.31844e-05
-6.3074e-07
6.32354e-07
-6.30084e-07
4.31827e-05
4.14585e-05
-4.32138e-05
6.45083e-07
-6.4861e-07
6.45512e-07
-6.47821e-07
-4.14555e-05
4.32177e-05
4.10745e-07
4.26658e-07
4.08842e-07
4.2558e-07
-4.33409e-07
-4.08664e-07
-4.30736e-07
4.1441e-05
-4.3188e-05
-6.2827e-07
6.27158e-07
-6.25079e-07
4.31876e-05
4.14585e-05
-4.32132e-05
6.45104e-07
-6.47506e-07
6.46013e-07
-6.48898e-07
-4.14538e-05
4.3216e-05
4.10614e-07
4.25271e-07
4.09566e-07
4.26183e-07
-4.31363e-07
-4.10308e-07
-4.31772e-07
4.1438e-05
-4.31874e-05
-6.24149e-07
6.27096e-07
-6.25148e-07
4.31868e-05
4.14592e-05
-4.32126e-05
6.45689e-07
-6.48907e-07
6.46485e-07
-6.48827e-07
-4.14559e-05
4.32166e-05
4.11593e-07
4.26091e-07
4.10286e-07
4.26604e-07
-4.32482e-07
-4.10442e-07
-4.32404e-07
4.14387e-05
-4.31871e-05
-6.25152e-07
6.27362e-07
-6.2561e-07
4.31859e-05
4.14595e-05
-4.32125e-05
6.45842e-07
-6.48599e-07
6.466e-07
-6.49171e-07
-4.14551e-05
4.32158e-05
4.11862e-07
4.25993e-07
4.10648e-07
4.26917e-07
-4.3269e-07
-4.10883e-07
-4.32643e-07
4.14388e-05
-4.31866e-05
-6.25375e-07
6.27873e-07
-6.26283e-07
4.31853e-05
4.14599e-05
-4.32123e-05
6.46316e-07
-6.49013e-07
6.46874e-07
-6.49732e-07
-4.14558e-05
4.32151e-05
4.12583e-07
4.26893e-07
4.10889e-07
4.27481e-07
-4.32722e-07
-4.11456e-07
-4.32541e-07
4.14396e-05
-4.3186e-05
-6.25699e-07
6.28515e-07
-6.26384e-07
4.31853e-05
4.14599e-05
-4.3213e-05
6.46192e-07
-6.4942e-07
6.46263e-07
-6.49067e-07
-4.14565e-05
4.32159e-05
4.12432e-07
4.26876e-07
4.10214e-07
4.26287e-07
-4.32855e-07
-4.10648e-07
-4.3219e-07
4.14397e-05
-4.31874e-05
-6.25912e-07
6.2733e-07
-6.2636e-07
4.31855e-05
4.14591e-05
-4.32133e-05
6.45554e-07
-6.48458e-07
6.46092e-07
-6.48467e-07
-4.14555e-05
4.32167e-05
4.11468e-07
4.25544e-07
4.09616e-07
4.25854e-07
-4.3208e-07
-4.09879e-07
-4.31629e-07
4.14384e-05
-4.31875e-05
-6.25734e-07
6.27139e-07
-6.25982e-07
4.3186e-05
4.14589e-05
-4.32138e-05
6.45595e-07
-6.48254e-07
6.4559e-07
-6.4846e-07
-4.1455e-05
4.32168e-05
4.11361e-07
4.25564e-07
4.09182e-07
4.256e-07
-4.31768e-07
-4.09506e-07
-4.30909e-07
4.14383e-05
-4.31875e-05
-6.25322e-07
6.27e-07
-6.25456e-07
4.31866e-05
4.14585e-05
-4.32137e-05
6.45059e-07
-6.48246e-07
6.45666e-07
-6.48444e-07
-4.14549e-05
4.32169e-05
4.1074e-07
4.25161e-07
4.09191e-07
4.25547e-07
-4.30944e-07
-4.09861e-07
-4.31313e-07
4.14382e-05
-4.31878e-05
-6.24814e-07
6.26797e-07
-6.2558e-07
4.31863e-05
4.14585e-05
-4.3213e-05
6.45115e-07
-6.48238e-07
6.46137e-07
-6.48329e-07
-4.14548e-05
4.32169e-05
4.10905e-07
4.25101e-07
4.09719e-07
4.25919e-07
-4.31621e-07
-4.0955e-07
-4.31522e-07
4.14381e-05
-4.31872e-05
-6.25092e-07
6.27145e-07
-6.25839e-07
4.3186e-05
4.14593e-05
-4.32126e-05
6.45835e-07
-6.48144e-07
6.46543e-07
-6.49205e-07
-4.14546e-05
4.32155e-05
4.11609e-07
4.25684e-07
4.10457e-07
4.2665e-07
-4.31888e-07
-4.10951e-07
-4.32455e-07
4.14386e-05
-4.31867e-05
-6.2544e-07
6.27551e-07
-6.26367e-07
4.31852e-05
4.14597e-05
-4.32125e-05
6.46232e-07
-6.49114e-07
6.46604e-07
-6.4933e-07
-4.14562e-05
4.32156e-05
4.12458e-07
4.26486e-07
4.10735e-07
4.26839e-07
-4.32729e-07
-4.11232e-07
-4.3252e-07
4.14391e-05
-4.31866e-05
-6.259e-07
6.27773e-07
-6.26274e-07
4.31854e-05
4.14597e-05
-4.32125e-05
6.46015e-07
-6.48987e-07
6.46486e-07
-6.49416e-07
-4.14559e-05
4.32156e-05
4.12359e-07
4.26299e-07
4.10577e-07
4.26851e-07
-4.32608e-07
-4.11221e-07
-4.32606e-07
4.14391e-05
-4.31865e-05
-6.25694e-07
6.27809e-07
-6.26373e-07
4.31852e-05
4.14597e-05
-4.32128e-05
6.46087e-07
-6.49312e-07
6.46439e-07
-6.48701e-07
-4.1456e-05
4.32166e-05
4.12287e-07
4.26508e-07
4.10209e-07
4.26328e-07
-4.32847e-07
-4.10307e-07
-4.31918e-07
4.14392e-05
-4.31871e-05
-6.26015e-07
6.27354e-07
-6.25874e-07
4.31859e-05
4.14592e-05
-4.32133e-05
6.45729e-07
-6.48183e-07
6.45875e-07
-6.48541e-07
-4.14546e-05
4.32162e-05
4.11615e-07
4.25704e-07
4.09482e-07
4.25613e-07
-4.31833e-07
-4.09966e-07
-4.31341e-07
4.14385e-05
-4.31874e-05
-6.25166e-07
6.26762e-07
-6.25539e-07
4.31862e-05
4.14587e-05
-4.32135e-05
6.45378e-07
-6.48245e-07
6.45909e-07
-6.48474e-07
-4.14553e-05
4.32167e-05
4.11119e-07
4.25175e-07
4.09279e-07
4.25468e-07
-4.31234e-07
-4.09812e-07
-4.31119e-07
4.14379e-05
-4.31878e-05
-6.24796e-07
6.26546e-07
-6.25352e-07
4.31865e-05
4.14585e-05
-4.32134e-05
6.4525e-07
-6.47979e-07
6.46287e-07
-6.49068e-07
-4.14548e-05
4.32166e-05
4.10711e-07
4.24752e-07
4.09939e-07
4.26222e-07
-4.31263e-07
-4.10298e-07
-4.3173e-07
4.14369e-05
-4.3188e-05
-6.24871e-07
6.27061e-07
-6.25909e-07
4.31864e-05
4.14585e-05
-4.32091e-05
6.4402e-07
-6.46885e-07
6.50684e-07
-6.53532e-07
-4.14547e-05
4.32124e-05
4.09611e-07
4.23721e-07
4.15399e-07
4.31673e-07
-4.29952e-07
-4.15843e-07
-4.37589e-07
4.14364e-05
-4.3184e-05
-6.23632e-07
6.31344e-07
-6.30452e-07
4.31819e-05
4.14525e-05
-4.31668e-05
6.38787e-07
-6.41609e-07
6.44263e-07
-6.47701e-07
-4.14486e-05
4.31704e-05
4.03846e-07
4.18079e-07
4.0499e-07
4.21592e-07
-4.2437e-07
-4.05618e-07
-4.28186e-07
4.14303e-05
-4.31419e-05
-6.18482e-07
6.25127e-07
-6.24205e-07
4.31399e-05
4.13673e-05
-4.26956e-05
6.50317e-07
-6.52902e-07
5.41531e-07
-5.46222e-07
-4.13639e-05
4.26983e-05
4.41293e-07
4.54929e-07
2.2063e-07
2.40062e-07
-4.62955e-07
-2.22362e-07
-2.47259e-07
4.13456e-05
-4.26707e-05
-6.30168e-07
5.22866e-07
-5.22298e-07
4.26678e-05
4.07037e-05
-4.25427e-05
7.9285e-07
-7.94738e-07
8.28916e-08
-8.81197e-08
-4.07001e-05
4.25468e-05
6.90988e-07
7.02071e-07
-3.78239e-07
-3.57103e-07
-7.08933e-07
3.7634e-07
3.57571e-07
4.06806e-05
-4.25221e-05
-7.72484e-07
6.5552e-08
-6.61608e-08
4.25183e-05
4.06421e-05
-4.02141e-05
1.41344e-06
-1.41681e-06
-1.04618e-06
1.03737e-06
-4.0641e-05
4.02175e-05
1.53281e-06
1.54407e-06
-1.85235e-06
-1.82775e-06
-1.54271e-06
1.84073e-06
1.82795e-06
4.06265e-05
-4.01909e-05
-1.39545e-06
-1.06076e-06
1.05457e-06
4.01801e-05
3.77771e-05
-3.44229e-05
2.53816e-06
-2.54382e-06
-4.96448e-06
4.9427e-06
-3.77766e-05
3.43847e-05
3.12288e-06
3.13575e-06
-6.65237e-06
-6.63782e-06
-3.1445e-06
6.61841e-06
6.62555e-06
3.77711e-05
-3.43985e-05