/*--------------------------------*- C++ -*----------------------------------*\
| =========                 |                                                 |
| \\      /  F ield         | OpenFOAM: The Open Source CFD Toolbox           |
|  \\    /   O peration     | Version:  2206                                  |
|   \\  /    A nd           | Website:  www.openfoam.com                      |
|    \\/     M anipulation  |                                                 |
\*---------------------------------------------------------------------------*/
FoamFile
{
    version     2.0;
    format      ascii;
    arch        "LSB;label=32;scalar=64";
    class       volScalarField;
    location    "15";
    object      Ux;
}
// * * * * * * * * * * * * * * * * * * * * * * * * * * * * * * * * * * * * * //

dimensions      [0 1 -1 0 0 0 0];

internalField   nonuniform List<scalar> 
171728
(
0.000107277
-0.000188794
0.000119075
-0.00023869
9.50453e-05
-0.000161432
9.81096e-05
-0.000200851
9.34594e-05
-0.000155138
9.29981e-05
-0.000198468
4.08954e-05
-5.29108e-05
3.30216e-05
-9.08508e-05
5.36125e-06
-6.96486e-06
5.17895e-06
-4.3858e-05
-8.43378e-08
-7.15744e-07
7.87254e-07
-3.88157e-05
-4.74527e-07
-3.37956e-07
5.31247e-07
-3.85931e-05
-4.91243e-07
-3.28811e-07
5.22895e-07
-3.85864e-05
-4.93504e-07
-3.29916e-07
5.2341e-07
-3.85864e-05
-4.92248e-07
-3.29238e-07
5.23074e-07
-3.85869e-05
-4.8931e-07
-3.29054e-07
5.23617e-07
-3.85868e-05
-4.93973e-07
-3.31274e-07
5.22738e-07
-3.85865e-05
-4.93271e-07
-3.38042e-07
5.22018e-07
-3.85865e-05
-4.93732e-07
-3.34975e-07
5.21725e-07
-3.85864e-05
-4.96525e-07
-3.28428e-07
5.21467e-07
-3.85862e-05
-4.96353e-07
-3.29442e-07
5.21574e-07
-3.85874e-05
-4.94913e-07
-3.30778e-07
5.22184e-07
-3.85865e-05
-4.9393e-07
-3.31176e-07
5.23221e-07
-3.85881e-05
-4.9161e-07
-3.30677e-07
5.23335e-07
-3.85879e-05
-4.85743e-07
-3.27281e-07
5.23705e-07
-3.85877e-05
-4.82273e-07
-3.33875e-07
5.23417e-07
-3.85859e-05
-4.92426e-07
-3.29462e-07
5.22234e-07
-3.85855e-05
-4.93822e-07
-3.29391e-07
5.21759e-07
-3.85856e-05
-4.94418e-07
-3.30057e-07
5.22346e-07
-3.85864e-05
-4.94162e-07
-3.30056e-07
5.22752e-07
-3.85868e-05
-4.93477e-07
-3.31059e-07
5.23429e-07
-3.85881e-05
-4.94016e-07
-3.30276e-07
5.22533e-07
-3.85876e-05
-4.9424e-07
-3.29932e-07
5.22904e-07
-3.85869e-05
-4.94508e-07
-3.29354e-07
5.22316e-07
-3.85871e-05
-4.9537e-07
-3.28581e-07
5.21715e-07
-3.85858e-05
-4.94487e-07
-3.29008e-07
5.22226e-07
-3.85862e-05
-4.94551e-07
-3.29443e-07
5.22175e-07
-3.85869e-05
-4.93922e-07
-3.30014e-07
5.23e-07
-3.85876e-05
-4.93777e-07
-3.30235e-07
5.22815e-07
-3.8588e-05
-4.93866e-07
-3.30556e-07
5.23083e-07
-3.8588e-05
-4.94527e-07
-3.29393e-07
5.22356e-07
-3.85872e-05
-4.9483e-07
-3.29214e-07
5.22189e-07
-3.85869e-05
-4.94794e-07
-3.28762e-07
5.22259e-07
-3.85861e-05
-4.94943e-07
-3.28757e-07
5.21921e-07
-3.85854e-05
-4.94571e-07
-3.29115e-07
5.21238e-07
-3.85837e-05
-4.8861e-07
-3.27356e-07
5.21862e-07
-3.85848e-05
-4.96225e-07
-3.30244e-07
5.2282e-07
-3.85887e-05
-4.9424e-07
-3.29406e-07
5.22158e-07
-3.85877e-05
-4.93897e-07
-3.29928e-07
5.22252e-07
-3.85876e-05
-4.94186e-07
-3.28651e-07
5.20671e-07
-3.85863e-05
-4.93923e-07
-3.286e-07
5.21323e-07
-3.85861e-05
-4.93869e-07
-3.2908e-07
5.21298e-07
-3.85865e-05
-4.93609e-07
-3.29577e-07
5.21769e-07
-3.85868e-05
-4.92677e-07
-3.30983e-07
5.22558e-07
-3.85881e-05
-4.93047e-07
-3.30135e-07
5.22257e-07
-3.85881e-05
-4.92862e-07
-3.30879e-07
5.22482e-07
-3.85882e-05
-4.93475e-07
-3.29637e-07
5.21558e-07
-3.85872e-05
-4.93436e-07
-3.28658e-07
5.21454e-07
-3.85862e-05
-4.92785e-07
-3.28929e-07
5.21301e-07
-3.85862e-05
-4.91255e-07
-3.2883e-07
5.21917e-07
-3.85858e-05
-4.92703e-07
-3.2967e-07
5.22283e-07
-3.85879e-05
-4.92079e-07
-3.31565e-07
5.22664e-07
-3.85902e-05
-4.91351e-07
-3.3293e-07
5.23563e-07
-3.8591e-05
-4.9168e-07
-3.31816e-07
5.23402e-07
-3.85902e-05
-4.91544e-07
-3.31343e-07
5.22931e-07
-3.85897e-05
-4.92468e-07
-3.30533e-07
5.22313e-07
-3.85892e-05
-4.93083e-07
-3.30327e-07
5.22258e-07
-3.85882e-05
-4.9178e-07
-3.30958e-07
5.22708e-07
-3.85898e-05
-4.91955e-07
-3.30898e-07
5.22518e-07
-3.85891e-05
-4.91227e-07
-3.32616e-07
5.23853e-07
-3.85906e-05
-4.91151e-07
-3.32399e-07
5.23684e-07
-3.85906e-05
-4.91346e-07
-3.32107e-07
5.23229e-07
-3.859e-05
-4.91789e-07
-3.30906e-07
5.22907e-07
-3.85901e-05
-4.92268e-07
-3.30416e-07
5.24217e-07
-3.85905e-05
-4.91892e-07
-3.30526e-07
5.29841e-07
-3.85941e-05
-4.91641e-07
-3.30455e-07
5.25995e-07
-3.85924e-05
-4.91364e-07
-3.3185e-07
5.23669e-07
-3.85902e-05
-4.91643e-07
-3.31959e-07
5.23148e-07
-3.85904e-05
-4.90846e-07
-3.32465e-07
5.24315e-07
-3.85904e-05
-4.9151e-07
-3.32083e-07
5.23426e-07
-3.85909e-05
-4.92227e-07
-3.30654e-07
5.22695e-07
-3.85899e-05
-4.92309e-07
-3.30942e-07
5.22903e-07
-3.859e-05
-4.9279e-07
-3.30239e-07
5.22296e-07
-3.8589e-05
-4.92238e-07
-3.31185e-07
5.22715e-07
-3.859e-05
-4.91837e-07
-3.31527e-07
5.23104e-07
-3.85905e-05
-4.91054e-07
-3.3239e-07
5.23623e-07
-3.85911e-05
-4.91426e-07
-3.32298e-07
5.23449e-07
-3.85908e-05
-4.91503e-07
-3.32306e-07
5.23456e-07
-3.85908e-05
-4.92174e-07
-3.30956e-07
5.22532e-07
-3.85897e-05
-4.92174e-07
-3.30464e-07
5.22225e-07
-3.85896e-05
-4.92536e-07
-3.30728e-07
5.22429e-07
-3.85896e-05
-4.92304e-07
-3.30685e-07
5.22813e-07
-3.85897e-05
-4.91548e-07
-3.31898e-07
5.23762e-07
-3.85903e-05
-4.91664e-07
-3.31795e-07
5.2353e-07
-3.85907e-05
-4.98315e-07
-3.28109e-07
5.20604e-07
-3.85886e-05
-5.0751e-07
-3.76877e-07
5.577e-07
-3.85111e-05
-4.51272e-07
-1.09763e-06
9.74833e-07
-3.76291e-05
-5.6402e-07
-2.51871e-06
2.06399e-06
-3.6702e-05
-5.71716e-06
-2.34015e-06
2.96893e-06
-2.56949e-05
-4.33478e-05
4.15417e-05
-3.48344e-05
4.95074e-05
0.000135779
0.000124656
-0.00012465
-0.000135775
0.000153875
0.000153848
9.12411e-05
-9.12305e-05
9.12123e-05
-9.1209e-05
-0.000153872
-0.000153857
0.000135769
0.000124604
-0.000124601
-0.000135778
0.000238736
0.000115435
0.000119115
-0.000119063
9.08622e-05
-9.08249e-05
-0.000238747
-0.000115392
0.000188831
0.000188767
0.000148849
0.000148881
-0.000188748
-0.000148814
-0.000148843
0.000238665
0.000115389
-0.000119054
9.08509e-05
-9.08308e-05
-0.000115388
0.000200931
0.000115381
9.81065e-05
-9.80818e-05
9.91545e-05
-9.9163e-05
-0.000200892
-0.000115372
0.000161464
0.000161476
0.000162952
0.000162986
-0.000161448
-0.000162945
-0.000162959
0.000200847
0.000115348
-9.80896e-05
9.91628e-05
-9.9169e-05
-0.000115364
0.00019853
2.45239e-05
9.29668e-05
-9.29673e-05
4.60506e-05
-4.60582e-05
-0.000198521
-2.45077e-05
0.000155152
0.000155189
7.67534e-05
7.67696e-05
-0.000155174
-7.67226e-05
-7.67318e-05
0.000198453
2.45406e-05
-9.30101e-05
4.60322e-05
-4.60153e-05
-2.44885e-05
9.09e-05
-3.26386e-05
3.30471e-05
-3.30538e-05
8.92651e-06
-8.93324e-06
-9.08948e-05
3.26409e-05
5.29184e-05
5.29205e-05
1.24535e-05
1.24675e-05
-5.28988e-05
-1.24527e-05
-1.24624e-05
9.08745e-05
-3.26179e-05
-3.30185e-05
8.90989e-06
-8.9078e-06
3.2623e-05
4.38676e-05
-3.97267e-05
5.19395e-06
-5.20204e-06
1.11057e-06
-1.12499e-06
-4.38692e-05
3.97242e-05
6.9682e-06
6.97843e-06
1.1635e-06
1.17781e-06
-6.97809e-06
-1.16566e-06
-1.17929e-06
4.38459e-05
-3.96985e-05
-5.17703e-06
1.0983e-06
-1.09889e-06
3.97016e-05
3.88185e-05
-4.00697e-05
7.98672e-07
-8.13664e-07
5.57653e-07
-5.60984e-07
-3.88251e-05
4.00714e-05
7.14904e-07
7.25892e-07
3.53113e-07
3.68669e-07
-7.26629e-07
-3.52126e-07
-3.66584e-07
3.88033e-05
-4.00433e-05
-7.87111e-07
5.42843e-07
-5.4254e-07
4.00484e-05
3.86017e-05
-4.00782e-05
5.49476e-07
-5.45611e-07
5.44811e-07
-5.37524e-07
-3.85993e-05
4.00835e-05
3.41745e-07
3.53156e-07
3.29961e-07
3.45074e-07
-3.50521e-07
-3.27556e-07
-3.41755e-07
3.85828e-05
-4.00535e-05
-5.29244e-07
5.22146e-07
-5.2047e-07
4.00595e-05
3.85955e-05
-4.00785e-05
5.40854e-07
-5.38389e-07
5.40252e-07
-5.40291e-07
-3.8593e-05
4.00817e-05
3.3246e-07
3.44061e-07
3.30314e-07
3.45598e-07
-3.40959e-07
-3.29088e-07
-3.41921e-07
3.85765e-05
-4.00527e-05
-5.20052e-07
5.22398e-07
-5.20165e-07
4.00595e-05
3.85952e-05
-4.00786e-05
5.38772e-07
-5.39598e-07
5.40427e-07
-5.39684e-07
-3.85941e-05
4.00843e-05
3.33264e-07
3.45024e-07
3.3044e-07
3.45857e-07
-3.41439e-07
-3.2887e-07
-3.41985e-07
3.85773e-05
-4.00528e-05
-5.20083e-07
5.22106e-07
-5.20069e-07
4.00592e-05
3.85961e-05
-4.00749e-05
5.41648e-07
-5.38336e-07
5.51226e-07
-5.39407e-07
-3.85931e-05
4.00892e-05
3.33551e-07
3.45448e-07
3.31044e-07
3.46617e-07
-3.41432e-07
-3.28212e-07
-3.42227e-07
3.85774e-05
-4.00523e-05
-5.20122e-07
5.22415e-07
-5.20132e-07
4.00592e-05
3.85995e-05
-4.00768e-05
5.49014e-07
-5.38272e-07
5.40081e-07
-5.40972e-07
-3.85926e-05
4.00882e-05
3.33917e-07
3.45746e-07
3.29864e-07
3.4546e-07
-3.41503e-07
-3.29077e-07
-3.41886e-07
3.85779e-05
-4.00531e-05
-5.20084e-07
5.21744e-07
-5.19947e-07
4.00596e-05
3.85963e-05
-4.00794e-05
5.40955e-07
-5.40639e-07
5.37516e-07
-5.40222e-07
-3.85937e-05
4.0085e-05
3.34036e-07
3.44663e-07
3.28062e-07
3.44355e-07
-3.41436e-07
-3.35732e-07
-3.42238e-07
3.85765e-05
-4.0054e-05
-5.19734e-07
5.21319e-07
-5.19129e-07
4.00594e-05
3.85938e-05
-4.00814e-05
5.372e-07
-5.39075e-07
5.35813e-07
-5.37545e-07
-3.8597e-05
4.00821e-05
3.30302e-07
3.43203e-07
3.26438e-07
3.432e-07
-3.42014e-07
-3.34363e-07
-3.42246e-07
3.85758e-05
-4.00549e-05
-5.19071e-07
5.20656e-07
-5.18833e-07
4.00594e-05
3.8593e-05
-4.00776e-05
5.37348e-07
-5.36957e-07
5.3526e-07
-5.39824e-07
-3.8599e-05
4.00852e-05
3.29741e-07
3.42354e-07
3.27321e-07
3.4314e-07
-3.41724e-07
-3.27689e-07
-3.41407e-07
3.85751e-05
-4.00552e-05
-5.18991e-07
5.20379e-07
-5.19503e-07
4.006e-05
3.8594e-05
-4.00791e-05
5.33994e-07
-5.42193e-07
5.32856e-07
-5.50356e-07
-3.8598e-05
4.00813e-05
3.30608e-07
3.42609e-07
3.28195e-07
3.44012e-07
-3.40838e-07
-3.29037e-07
-3.42532e-07
3.8575e-05
-4.00545e-05
-5.1983e-07
5.20463e-07
-5.20825e-07
4.00589e-05
3.8593e-05
-4.00766e-05
5.32395e-07
-5.46261e-07
5.35959e-07
-5.41958e-07
-3.85984e-05
4.00819e-05
3.31569e-07
3.4345e-07
3.29483e-07
3.44514e-07
-3.42017e-07
-3.29133e-07
-3.41944e-07
3.85758e-05
-4.0054e-05
-5.20937e-07
5.20875e-07
-5.20226e-07
4.00595e-05
3.85944e-05
-4.00769e-05
5.34736e-07
-5.40521e-07
5.36117e-07
-5.40235e-07
-3.85963e-05
4.00832e-05
3.32917e-07
3.44273e-07
3.30669e-07
3.46004e-07
-3.4163e-07
-3.3022e-07
-3.43003e-07
3.85763e-05
-4.00527e-05
-5.20229e-07
5.22258e-07
-5.21112e-07
4.00585e-05
3.85952e-05
-4.00783e-05
5.34393e-07
-5.40217e-07
5.38371e-07
-5.46762e-07
-3.85953e-05
4.00826e-05
3.33469e-07
3.45088e-07
3.29838e-07
3.45916e-07
-3.42629e-07
-3.29891e-07
-3.43067e-07
3.85779e-05
-4.00529e-05
-5.20937e-07
5.22129e-07
-5.20331e-07
4.00589e-05
3.85966e-05
-4.00806e-05
5.41331e-07
-5.46044e-07
5.41938e-07
-5.35305e-07
-3.86001e-05
4.00883e-05
3.32422e-07
3.45236e-07
3.30016e-07
3.45415e-07
-3.43684e-07
-3.28705e-07
-3.4813e-07
3.85779e-05
-4.0053e-05
-5.20093e-07
5.22555e-07
-5.18748e-07
4.0058e-05
3.85987e-05
-4.00867e-05
5.40471e-07
-5.25433e-07
5.4268e-07
-5.38891e-07
-3.85819e-05
4.00769e-05
3.34189e-07
3.44386e-07
3.3521e-07
3.45454e-07
-3.47234e-07
-3.32019e-07
-3.40746e-07
3.85775e-05
-4.00533e-05
-5.18108e-07
5.2265e-07
-5.18571e-07
4.00601e-05
3.85952e-05
-4.00863e-05
5.46282e-07
-5.37383e-07
5.34885e-07
-5.39581e-07
-3.85973e-05
4.00866e-05
3.36685e-07
3.44604e-07
3.27978e-07
3.44083e-07
-3.39864e-07
-3.30221e-07
-3.40408e-07
3.85767e-05
-4.00541e-05
-5.1878e-07
5.21366e-07
-5.18867e-07
4.00602e-05
3.85975e-05
-4.00847e-05
5.36493e-07
-5.37832e-07
5.37018e-07
-5.39926e-07
-3.85905e-05
4.00835e-05
3.31173e-07
3.42845e-07
3.2792e-07
3.43754e-07
-3.39609e-07
-3.28316e-07
-3.40189e-07
3.85758e-05
-4.0054e-05
-5.18948e-07
5.20886e-07
-5.19261e-07
4.00603e-05
3.85989e-05
-4.0084e-05
5.36932e-07
-5.39583e-07
5.37302e-07
-5.41058e-07
-3.85931e-05
4.00824e-05
3.31573e-07
3.43049e-07
3.28574e-07
3.44356e-07
-3.39827e-07
-3.28939e-07
-3.4148e-07
3.85758e-05
-4.00535e-05
-5.19155e-07
5.21339e-07
-5.1977e-07
4.00597e-05
3.85997e-05
-4.00831e-05
5.37811e-07
-5.40845e-07
5.38139e-07
-5.41381e-07
-3.85942e-05
4.00819e-05
3.32321e-07
3.43867e-07
3.2916e-07
3.44781e-07
-3.41159e-07
-3.28888e-07
-3.41113e-07
3.85764e-05
-4.00533e-05
-5.20097e-07
5.21551e-07
-5.1992e-07
4.00592e-05
3.86009e-05
-4.00824e-05
5.38904e-07
-5.41213e-07
5.3932e-07
-5.41569e-07
-3.85949e-05
4.00819e-05
3.32664e-07
3.44197e-07
3.30094e-07
3.45838e-07
-3.40935e-07
-3.2977e-07
-3.42736e-07
3.85768e-05
-4.00526e-05
-5.20288e-07
5.22161e-07
-5.21061e-07
4.00579e-05
3.86015e-05
-4.00829e-05
5.39765e-07
-5.41519e-07
5.38878e-07
-5.41428e-07
-3.85947e-05
4.00816e-05
3.33537e-07
3.45257e-07
3.29364e-07
3.45144e-07
-3.41894e-07
-3.29522e-07
-3.41849e-07
3.85773e-05
-4.00532e-05
-5.20987e-07
5.21772e-07
-5.20896e-07
4.00582e-05
3.86008e-05
-4.0083e-05
5.39147e-07
-5.41033e-07
5.38503e-07
-5.41054e-07
-3.85947e-05
4.0082e-05
3.32743e-07
3.44217e-07
3.29297e-07
3.45176e-07
-3.40941e-07
-3.28983e-07
-3.40855e-07
3.85765e-05
-4.00529e-05
-5.20612e-07
5.21864e-07
-5.20004e-07
4.00588e-05
3.86007e-05
-4.00838e-05
5.38837e-07
-5.40973e-07
5.38581e-07
-5.40019e-07
-3.85944e-05
4.00829e-05
3.32534e-07
3.44315e-07
3.28616e-07
3.4417e-07
-3.40466e-07
-3.28312e-07
-3.41016e-07
3.85769e-05
-4.0054e-05
-5.20062e-07
5.2123e-07
-5.2028e-07
4.00589e-05
3.86001e-05
-4.00845e-05
5.38834e-07
-5.41038e-07
5.37203e-07
-5.38574e-07
-3.85936e-05
4.00836e-05
3.32022e-07
3.43492e-07
3.27508e-07
3.4331e-07
-3.40369e-07
-3.27555e-07
-3.39661e-07
3.85759e-05
-4.00544e-05
-5.20244e-07
5.20624e-07
-5.19182e-07
4.00599e-05
3.85992e-05
-4.00838e-05
5.37753e-07
-5.41439e-07
5.384e-07
-5.37702e-07
-3.85931e-05
4.00825e-05
3.30776e-07
3.42516e-07
3.28515e-07
3.44096e-07
-3.39231e-07
-3.2822e-07
-3.40144e-07
3.85753e-05
-4.0054e-05
-5.1929e-07
5.21125e-07
-5.19525e-07
4.00595e-05
3.86002e-05
-4.0084e-05
5.38863e-07
-5.45102e-07
5.3815e-07
-5.38945e-07
-3.85948e-05
4.00839e-05
3.32165e-07
3.43508e-07
3.28245e-07
3.43978e-07
-3.39546e-07
-3.28103e-07
-3.40464e-07
3.85759e-05
-4.0054e-05
-5.194e-07
5.21023e-07
-5.19924e-07
4.00589e-05
3.85998e-05
-4.00826e-05
5.38538e-07
-5.42172e-07
5.38962e-07
-5.42526e-07
-3.85944e-05
4.00837e-05
3.31755e-07
3.43471e-07
3.29528e-07
3.45238e-07
-3.40315e-07
-3.29014e-07
-3.4159e-07
3.85759e-05
-4.00527e-05
-5.20056e-07
5.22089e-07
-5.20677e-07
4.00581e-05
3.86012e-05
-4.00832e-05
5.39384e-07
-5.42177e-07
5.38587e-07
-5.42874e-07
-3.85941e-05
4.00832e-05
3.32889e-07
3.44565e-07
3.29283e-07
3.45088e-07
-3.40969e-07
-3.29284e-07
-3.41653e-07
3.85771e-05
-4.00531e-05
-5.20361e-07
5.21795e-07
-5.20823e-07
4.00579e-05
3.86008e-05
-4.00824e-05
5.39338e-07
-5.42723e-07
5.38961e-07
-5.43032e-07
-3.85947e-05
4.00835e-05
3.33127e-07
3.44758e-07
3.29741e-07
3.45444e-07
-3.41147e-07
-3.29351e-07
-3.41973e-07
3.85767e-05
-4.00525e-05
-5.20573e-07
5.22078e-07
-5.20786e-07
4.00579e-05
3.86013e-05
-4.00832e-05
5.39403e-07
-5.42834e-07
5.38421e-07
-5.4294e-07
-3.85943e-05
4.00835e-05
3.33157e-07
3.44913e-07
3.2918e-07
3.44974e-07
-3.41624e-07
-3.29037e-07
-3.4127e-07
3.85772e-05
-4.00532e-05
-5.20789e-07
5.21795e-07
-5.20569e-07
4.00586e-05
3.86004e-05
-4.00839e-05
5.38467e-07
-5.42145e-07
5.38089e-07
-5.41964e-07
-3.85942e-05
4.00852e-05
3.31946e-07
3.4373e-07
3.28193e-07
3.43848e-07
-3.40233e-07
-3.28131e-07
-3.40791e-07
3.85765e-05
-4.00538e-05
-5.2011e-07
5.21323e-07
-5.20228e-07
4.00593e-05
3.86001e-05
-4.00838e-05
5.38446e-07
-5.41611e-07
5.38096e-07
-5.42281e-07
-3.85929e-05
4.00844e-05
3.31603e-07
3.43027e-07
3.28403e-07
3.44016e-07
-3.40379e-07
-3.28221e-07
-3.40204e-07
3.85761e-05
-4.00537e-05
-5.20307e-07
5.21565e-07
-5.19906e-07
4.00597e-05
3.85998e-05
-4.00841e-05
5.38398e-07
-5.41562e-07
5.37239e-07
-5.41802e-07
-3.85933e-05
4.00854e-05
3.31327e-07
3.43029e-07
3.27757e-07
3.43135e-07
-3.39529e-07
-3.2667e-07
-3.38958e-07
3.85762e-05
-4.00548e-05
-5.19542e-07
5.20583e-07
-5.19059e-07
4.00603e-05
3.85994e-05
-4.00841e-05
5.38369e-07
-5.40868e-07
5.35655e-07
-5.44107e-07
-3.85921e-05
4.00853e-05
3.31463e-07
3.43116e-07
3.29841e-07
3.44958e-07
-3.39476e-07
-3.28783e-07
-3.44171e-07
3.85753e-05
-4.00549e-05
-5.19237e-07
5.20572e-07
-5.19675e-07
4.00616e-05
3.85973e-05
-4.00743e-05
5.36978e-07
-5.4042e-07
5.35772e-07
-5.40939e-07
-3.85917e-05
4.00851e-05
3.34278e-07
3.44768e-07
3.35938e-07
3.45856e-07
-3.46826e-07
-3.25513e-07
-3.47248e-07
3.85752e-05
-4.00546e-05
-5.17502e-07
5.2009e-07
-5.15595e-07
4.00621e-05
3.86057e-05
-4.00848e-05
5.43609e-07
-5.42024e-07
5.34787e-07
-5.47512e-07
-3.85951e-05
4.00789e-05
3.40706e-07
3.45361e-07
3.30048e-07
3.46146e-07
-3.43679e-07
-3.29941e-07
-3.43417e-07
3.85757e-05
-4.00533e-05
-5.17837e-07
5.22152e-07
-5.21137e-07
4.00577e-05
3.85943e-05
-4.0082e-05
5.34402e-07
-5.49788e-07
5.36546e-07
-5.38706e-07
-3.86014e-05
4.00833e-05
3.3154e-07
3.45536e-07
3.28719e-07
3.45287e-07
-3.43125e-07
-3.28214e-07
-3.42122e-07
3.85769e-05
-4.00541e-05
-5.20944e-07
5.21474e-07
-5.20816e-07
4.00583e-05
3.85965e-05
-4.00801e-05
5.37941e-07
-5.39775e-07
5.37797e-07
-5.40288e-07
-3.85945e-05
4.00843e-05
3.3276e-07
3.44386e-07
3.29846e-07
3.4501e-07
-3.41325e-07
-3.28543e-07
-3.41618e-07
3.85761e-05
-4.00539e-05
-5.20416e-07
5.21848e-07
-5.20939e-07
4.00583e-05
3.85972e-05
-4.00807e-05
5.3685e-07
-5.40096e-07
5.36541e-07
-5.39488e-07
-3.8594e-05
4.00847e-05
3.32744e-07
3.44337e-07
3.29688e-07
3.43977e-07
-3.4112e-07
-3.28051e-07
-3.40165e-07
3.85761e-05
-4.00549e-05
-5.20619e-07
5.20995e-07
-5.198e-07
4.00595e-05
3.85967e-05
-4.00808e-05
5.35825e-07
-5.38941e-07
5.36276e-07
-5.38794e-07
-3.8593e-05
4.00858e-05
3.323e-07
3.43128e-07
3.29264e-07
3.43968e-07
-3.39572e-07
-3.2736e-07
-3.39673e-07
3.8575e-05
-4.00547e-05
-5.19289e-07
5.21284e-07
-5.19517e-07
4.00601e-05
3.85966e-05
-4.00807e-05
5.35702e-07
-5.38668e-07
5.36293e-07
-5.39275e-07
-3.85923e-05
4.00847e-05
3.32181e-07
3.43395e-07
3.29642e-07
3.44214e-07
-3.39575e-07
-3.28354e-07
-3.40381e-07
3.85754e-05
-4.00545e-05
-5.19467e-07
5.21451e-07
-5.19808e-07
4.00596e-05
3.85967e-05
-4.00807e-05
5.35813e-07
-5.38937e-07
5.36221e-07
-5.39066e-07
-3.85932e-05
4.00853e-05
3.32378e-07
3.43523e-07
3.29292e-07
3.44164e-07
-3.39743e-07
-3.28074e-07
-3.40186e-07
3.85756e-05
-4.00545e-05
-5.19452e-07
5.21455e-07
-5.19973e-07
4.00593e-05
3.85969e-05
-4.00792e-05
5.36252e-07
-5.39296e-07
5.37609e-07
-5.40308e-07
-3.8593e-05
4.00837e-05
3.32893e-07
3.44108e-07
3.31186e-07
3.4578e-07
-3.40251e-07
-3.29715e-07
-3.41638e-07
3.85757e-05
-4.00534e-05
-5.19897e-07
5.22425e-07
-5.21073e-07
4.00579e-05
3.85981e-05
-4.00796e-05
5.37119e-07
-5.4018e-07
5.37215e-07
-5.40076e-07
-3.85943e-05
4.0084e-05
3.34089e-07
3.45321e-07
3.30615e-07
3.45346e-07
-3.41682e-07
-3.29455e-07
-3.41777e-07
3.85767e-05
-4.00534e-05
-5.21124e-07
5.22404e-07
-5.21388e-07
4.00576e-05
3.85976e-05
-4.00792e-05
5.36559e-07
-5.39611e-07
5.3737e-07
-5.40373e-07
-3.85937e-05
4.00833e-05
3.33351e-07
3.44579e-07
3.30749e-07
3.45545e-07
-3.40938e-07
-3.2985e-07
-3.41991e-07
3.85764e-05
-4.00532e-05
-5.20761e-07
5.22509e-07
-5.21399e-07
4.00578e-05
3.85981e-05
-4.00801e-05
5.37105e-07
-5.40283e-07
5.36762e-07
-5.39945e-07
-3.85945e-05
4.00838e-05
3.33959e-07
3.45207e-07
3.30221e-07
3.4504e-07
-3.4151e-07
-3.29266e-07
-3.41055e-07
3.85767e-05
-4.0054e-05
-5.21006e-07
5.21826e-07
-5.20851e-07
4.00582e-05
3.85969e-05
-4.00803e-05
5.36213e-07
-5.39732e-07
5.36665e-07
-5.38837e-07
-3.85938e-05
4.00853e-05
3.32915e-07
3.44085e-07
3.2972e-07
3.44127e-07
-3.39895e-07
-3.27811e-07
-3.39473e-07
3.85756e-05
-4.00546e-05
-5.19947e-07
5.21369e-07
-5.19899e-07
4.00595e-05
3.85969e-05
-4.00794e-05
5.3629e-07
-5.38366e-07
5.3747e-07
-5.38279e-07
-3.85926e-05
4.00849e-05
3.32518e-07
3.43469e-07
3.30011e-07
3.43824e-07
-3.3906e-07
-3.27942e-07
-3.3952e-07
3.85752e-05
-4.00545e-05
-5.19509e-07
5.21404e-07
-5.1987e-07
4.00593e-05
3.85974e-05
-4.00782e-05
5.37191e-07
-5.36394e-07
5.39305e-07
-5.27097e-07
-3.85922e-05
4.00892e-05
3.32799e-07
3.42928e-07
3.30524e-07
3.43849e-07
-3.38886e-07
-3.27211e-07
-3.38883e-07
3.8575e-05
-4.00541e-05
-5.19382e-07
5.21606e-07
-5.19313e-07
4.00598e-05
3.85985e-05
-4.00793e-05
5.39167e-07
-5.28887e-07
5.37748e-07
-5.38634e-07
-3.8588e-05
4.00858e-05
3.34077e-07
3.43606e-07
3.31045e-07
3.4482e-07
-3.38565e-07
-3.29658e-07
-3.41223e-07
3.85755e-05
-4.00536e-05
-5.1895e-07
5.22211e-07
-5.20021e-07
4.00584e-05
3.85979e-05
-4.00798e-05
5.36973e-07
-5.36868e-07
5.37624e-07
-5.38835e-07
-3.85922e-05
4.00838e-05
3.3402e-07
3.44108e-07
3.30429e-07
3.43447e-07
-3.4233e-07
-3.30658e-07
-3.4881e-07
3.85762e-05
-4.00545e-05
-5.19497e-07
5.22404e-07
-5.19508e-07
4.00557e-05
3.85973e-05
-4.00799e-05
5.37211e-07
-5.38599e-07
5.37796e-07
-5.39662e-07
-3.85943e-05
4.00821e-05
3.33069e-07
3.42331e-07
3.3027e-07
3.43374e-07
-3.4902e-07
-3.32085e-07
-3.49458e-07
3.85754e-05
-4.00541e-05
-5.1882e-07
5.23389e-07
-5.20391e-07
4.00548e-05
3.85973e-05
-4.00803e-05
5.37354e-07
-5.39543e-07
5.37497e-07
-5.39504e-07
-3.85957e-05
4.00829e-05
3.33353e-07
3.42838e-07
3.29917e-07
3.4321e-07
-3.49609e-07
-3.31288e-07
-3.48504e-07
3.85758e-05
-4.00541e-05
-5.19789e-07
5.23445e-07
-5.20051e-07
4.00556e-05
3.85968e-05
-4.00802e-05
5.36859e-07
-5.3898e-07
5.37593e-07
-5.38997e-07
-3.85947e-05
4.00835e-05
3.32625e-07
3.42326e-07
3.29681e-07
3.42359e-07
-3.48516e-07
-3.30629e-07
-3.47783e-07
3.85757e-05
-4.0055e-05
-5.19512e-07
5.22818e-07
-5.19907e-07
4.00562e-05
3.8597e-05
-4.00812e-05
5.37117e-07
-5.38678e-07
5.36811e-07
-5.38819e-07
-3.85943e-05
4.00838e-05
3.32569e-07
3.41693e-07
3.28909e-07
3.42003e-07
-3.47931e-07
-3.30188e-07
-3.4763e-07
3.85749e-05
-4.00554e-05
-5.1941e-07
5.22513e-07
-5.19818e-07
4.00565e-05
3.85958e-05
-4.00823e-05
5.36023e-07
-5.3815e-07
5.35868e-07
-5.3793e-07
-3.85937e-05
4.00846e-05
3.31432e-07
3.40809e-07
3.27418e-07
3.40741e-07
-3.47314e-07
-3.29064e-07
-3.46261e-07
3.85743e-05
-4.0056e-05
-5.19068e-07
5.2181e-07
-5.18729e-07
4.00576e-05
3.85951e-05
-4.00805e-05
5.35724e-07
-5.3803e-07
5.37194e-07
-5.39048e-07
-3.85932e-05
4.00833e-05
3.30828e-07
3.40581e-07
3.2946e-07
3.42544e-07
-3.46647e-07
-3.30466e-07
-3.47845e-07
3.8574e-05
-4.00547e-05
-5.18162e-07
5.22946e-07
-5.19867e-07
4.0056e-05
3.85967e-05
-4.00811e-05
5.36695e-07
-5.38585e-07
5.36856e-07
-5.38607e-07
-3.85943e-05
4.00838e-05
3.32099e-07
3.41543e-07
3.29058e-07
3.41997e-07
-3.47571e-07
-3.29905e-07
-3.47162e-07
3.85751e-05
-4.00554e-05
-5.1916e-07
5.22328e-07
-5.19523e-07
4.00567e-05
3.85961e-05
-4.00799e-05
5.36531e-07
-5.38503e-07
5.3752e-07
-5.39577e-07
-3.85939e-05
4.00827e-05
3.3179e-07
3.41439e-07
3.30449e-07
3.43114e-07
-3.47578e-07
-3.31483e-07
-3.48855e-07
3.85746e-05
-4.00539e-05
-5.19241e-07
5.23421e-07
-5.20727e-07
4.00554e-05
3.85974e-05
-4.00802e-05
5.37432e-07
-5.39459e-07
5.37786e-07
-5.39967e-07
-3.85951e-05
4.00825e-05
3.32536e-07
3.42766e-07
3.3095e-07
3.43397e-07
-3.49086e-07
-3.31855e-07
-3.48959e-07
3.85762e-05
-4.00541e-05
-5.20261e-07
5.23712e-07
-5.21212e-07
4.00554e-05
3.8597e-05
-4.00801e-05
5.37354e-07
-5.39566e-07
5.37631e-07
-5.39327e-07
-3.85953e-05
4.00832e-05
3.32385e-07
3.42492e-07
3.30716e-07
3.42811e-07
-3.48807e-07
-3.31123e-07
-3.48195e-07
3.85758e-05
-4.00545e-05
-5.20719e-07
5.23154e-07
-5.20665e-07
4.00557e-05
3.8597e-05
-4.00806e-05
5.3707e-07
-5.39058e-07
5.37364e-07
-5.39337e-07
-3.85944e-05
4.0083e-05
3.32216e-07
3.42025e-07
3.3016e-07
3.4267e-07
-3.48503e-07
-3.30765e-07
-3.48009e-07
3.85754e-05
-4.00546e-05
-5.20246e-07
5.2332e-07
-5.20844e-07
4.00558e-05
3.85962e-05
-4.00818e-05
5.36573e-07
-5.3846e-07
5.36178e-07
-5.38395e-07
-3.85943e-05
4.00843e-05
3.31319e-07
3.41766e-07
3.28739e-07
3.42309e-07
-3.47823e-07
-3.2936e-07
-3.47614e-07
3.85755e-05
-4.00539e-05
-5.198e-07
5.23086e-07
-5.2085e-07
4.00552e-05
3.8595e-05
-4.00814e-05
5.35952e-07
-5.3828e-07
5.3631e-07
-5.38821e-07
-3.85931e-05
4.00833e-05
3.30476e-07
3.42292e-07
3.28813e-07
3.45297e-07
-3.4839e-07
-3.30085e-07
-3.50824e-07
3.8576e-05
-4.00486e-05
-5.21317e-07
5.2827e-07
-5.25906e-07
4.005e-05
3.8595e-05
-4.00812e-05
5.35868e-07
-5.38363e-07
5.36644e-07
-5.3812e-07
-3.85936e-05
4.00847e-05
3.30346e-07
3.44807e-07
3.2885e-07
3.43494e-07
-3.51179e-07
-3.28997e-07
-3.48749e-07
3.85795e-05
-4.00522e-05
-5.25974e-07
5.28098e-07
-5.25074e-07
4.00528e-05
3.85957e-05
-4.00805e-05
5.36221e-07
-5.38199e-07
5.37111e-07
-5.39397e-07
-3.85929e-05
4.00828e-05
3.30475e-07
3.42445e-07
3.29867e-07
3.42865e-07
-3.4869e-07
-3.31076e-07
-3.48275e-07
3.85773e-05
-4.00541e-05
-5.23205e-07
5.23508e-07
-5.20776e-07
4.00557e-05
3.85967e-05
-4.00805e-05
5.36933e-07
-5.3895e-07
5.37346e-07
-5.39148e-07
-3.85948e-05
4.00836e-05
3.31932e-07
3.42404e-07
3.30285e-07
3.42691e-07
-3.48668e-07
-3.30898e-07
-3.48502e-07
3.85758e-05
-4.00546e-05
-5.20901e-07
5.23072e-07
-5.21004e-07
4.00554e-05
3.85966e-05
-4.00797e-05
5.3678e-07
-5.39119e-07
5.37968e-07
-5.397e-07
-3.85944e-05
4.00828e-05
3.31796e-07
3.41953e-07
3.31199e-07
3.43631e-07
-3.48724e-07
-3.31522e-07
-3.48528e-07
3.85752e-05
-4.00535e-05
-5.20645e-07
5.24005e-07
-5.21071e-07
4.00553e-05
3.85975e-05
-4.00802e-05
5.37513e-07
-5.3948e-07
5.37639e-07
-5.40029e-07
-3.85951e-05
4.00823e-05
3.32668e-07
3.43075e-07
3.30696e-07
3.43385e-07
-3.4842e-07
-3.31731e-07
-3.48632e-07
3.85766e-05
-4.00539e-05
-5.20427e-07
5.23786e-07
-5.21415e-07
4.00548e-05
3.85969e-05
-4.00812e-05
5.3695e-07
-5.39389e-07
5.36858e-07
-5.38648e-07
-3.85952e-05
4.00838e-05
3.3206e-07
3.42318e-07
3.2965e-07
3.41742e-07
-3.48722e-07
-3.3009e-07
-3.47361e-07
3.85757e-05
-4.00553e-05
-5.20902e-07
5.2259e-07
-5.20867e-07
4.00557e-05
3.8596e-05
-4.00811e-05
5.36437e-07
-5.3824e-07
5.36995e-07
-5.38733e-07
-3.85937e-05
4.00837e-05
3.31116e-07
3.41055e-07
3.29688e-07
3.41847e-07
-3.47062e-07
-3.30169e-07
-3.4754e-07
3.85745e-05
-4.00552e-05
-5.19929e-07
5.22717e-07
-5.20871e-07
4.00558e-05
3.8596e-05
-4.00817e-05
5.36334e-07
-5.38437e-07
5.36368e-07
-5.38518e-07
-3.8594e-05
4.0084e-05
3.31164e-07
3.4138e-07
3.28912e-07
3.4142e-07
-3.47199e-07
-3.29357e-07
-3.46061e-07
3.85747e-05
-4.00555e-05
-5.20049e-07
5.22298e-07
-5.1993e-07
4.00567e-05
3.85955e-05
-4.00814e-05
5.35856e-07
-5.38083e-07
5.36667e-07
-5.38698e-07
-3.85936e-05
4.00838e-05
3.30307e-07
3.40553e-07
3.29405e-07
3.41644e-07
-3.46567e-07
-3.3047e-07
-3.4749e-07
3.85743e-05
-4.00552e-05
-5.19595e-07
5.22563e-07
-5.20819e-07
4.00557e-05
3.85958e-05
-4.00805e-05
5.3629e-07
-5.3848e-07
5.37146e-07
-5.38717e-07
-3.8594e-05
4.00839e-05
3.31064e-07
3.41095e-07
3.29794e-07
3.4213e-07
-3.47299e-07
-3.30051e-07
-3.4764e-07
3.85747e-05
-4.00547e-05
-5.19989e-07
5.2289e-07
-5.21122e-07
4.00553e-05
3.85967e-05
-4.00799e-05
5.36877e-07
-5.38828e-07
5.37946e-07
-5.39781e-07
-3.85939e-05
4.00825e-05
3.3175e-07
3.41805e-07
3.31129e-07
3.43273e-07
-3.47962e-07
-3.31634e-07
-3.48605e-07
3.85751e-05
-4.00539e-05
-5.2053e-07
5.23614e-07
-5.21661e-07
4.00546e-05
3.85973e-05
-4.00804e-05
5.37416e-07
-5.39358e-07
5.37395e-07
-5.39554e-07
-3.8595e-05
4.00827e-05
3.32726e-07
3.42514e-07
3.30687e-07
3.42895e-07
-3.48641e-07
-3.31483e-07
-3.48467e-07
3.85759e-05
-4.00541e-05
-5.20919e-07
5.23375e-07
-5.2142e-07
4.00549e-05
3.85968e-05
-4.00803e-05
5.37027e-07
-5.39239e-07
5.37505e-07
-5.39716e-07
-3.85949e-05
4.00825e-05
3.32275e-07
3.422e-07
3.30593e-07
3.42978e-07
-3.48429e-07
-3.3155e-07
-3.48636e-07
3.85756e-05
-4.0054e-05
-5.20708e-07
5.23454e-07
-5.21588e-07
4.00548e-05
3.85968e-05
-4.00809e-05
5.37108e-07
-5.39351e-07
5.36986e-07
-5.38681e-07
-3.85951e-05
4.00841e-05
3.32168e-07
3.42188e-07
3.29819e-07
3.42152e-07
-3.48536e-07
-3.30259e-07
-3.47274e-07
3.85756e-05
-4.00549e-05
-5.21044e-07
5.22782e-07
-5.20595e-07
4.0056e-05
3.85961e-05
-4.00812e-05
5.36284e-07
-5.38293e-07
5.3673e-07
-5.38605e-07
-3.85935e-05
4.00837e-05
3.31169e-07
3.41144e-07
3.29348e-07
3.41476e-07
-3.47109e-07
-3.29949e-07
-3.46922e-07
3.85748e-05
-4.00554e-05
-5.19698e-07
5.2243e-07
-5.20449e-07
4.00561e-05
3.85959e-05
-4.00815e-05
5.36324e-07
-5.38157e-07
5.36655e-07
-5.3854e-07
-3.85937e-05
4.00839e-05
3.30785e-07
3.40869e-07
3.29177e-07
3.41285e-07
-3.46789e-07
-3.30004e-07
-3.46881e-07
3.85743e-05
-4.00552e-05
-5.19597e-07
5.22404e-07
-5.20335e-07
4.00562e-05
3.85956e-05
-4.00815e-05
5.36071e-07
-5.38132e-07
5.36402e-07
-5.38535e-07
-3.85937e-05
4.00839e-05
3.30533e-07
3.40538e-07
3.29117e-07
3.41616e-07
-3.47003e-07
-3.29738e-07
-3.46981e-07
3.85743e-05
-4.00553e-05
-5.19863e-07
5.22244e-07
-5.20456e-07
4.00562e-05
3.85957e-05
-4.00806e-05
5.36211e-07
-5.38437e-07
5.37291e-07
-5.3915e-07
-3.85939e-05
4.00831e-05
3.3096e-07
3.41156e-07
3.30131e-07
3.42326e-07
-3.47163e-07
-3.30881e-07
-3.47619e-07
3.85736e-05
-4.00548e-05
-5.1999e-07
5.22893e-07
-5.20941e-07
4.00555e-05
3.85966e-05
-4.00801e-05
5.36973e-07
-5.39089e-07
5.37817e-07
-5.39735e-07
-3.85947e-05
4.00828e-05
3.3176e-07
3.42066e-07
3.30846e-07
3.43274e-07
-3.48134e-07
-3.31487e-07
-3.48615e-07
3.85742e-05
-4.00545e-05
-5.20632e-07
5.23438e-07
-5.21555e-07
4.00549e-05
3.8597e-05
-4.00788e-05
5.36901e-07
-5.38857e-07
5.39598e-07
-5.42079e-07
-3.85947e-05
4.00812e-05
3.31793e-07
3.41907e-07
3.33397e-07
3.45853e-07
-3.48219e-07
-3.34013e-07
-3.51495e-07
3.85742e-05
-4.00529e-05
-5.20481e-07
5.25204e-07
-5.23531e-07
4.00535e-05
3.85949e-05
-4.00461e-05
5.33792e-07
-5.35899e-07
5.25574e-07
-5.29e-07
-3.85928e-05
4.00489e-05
3.28029e-07
3.38411e-07
3.21351e-07
3.34225e-07
-3.44413e-07
-3.22681e-07
-3.39422e-07
3.85723e-05
-4.00216e-05
-5.17548e-07
5.11337e-07
-5.10587e-07
4.00212e-05
3.85171e-05
-3.95867e-05
5.70505e-07
-5.72443e-07
2.08434e-07
-2.15253e-07
-3.85157e-05
3.95905e-05
3.77583e-07
3.8773e-07
-1.20692e-07
-1.03722e-07
-3.92795e-07
1.1818e-07
1.03477e-07
3.84951e-05
-3.9565e-05
-5.54876e-07
1.94709e-07
-1.95832e-07
3.95635e-05
3.76373e-05
-3.82182e-05
9.86141e-07
-9.86434e-07
-6.47706e-07
6.39639e-07
-3.76361e-05
3.82169e-05
1.10261e-06
1.10732e-06
-1.37888e-06
-1.3602e-06
-1.11209e-06
1.36786e-06
1.35255e-06
3.76196e-05
-3.81923e-05
-9.71841e-07
-6.57438e-07
6.48872e-07
3.81828e-05
3.67005e-05
-3.328e-05
2.07308e-06
-2.08096e-06
-4.91577e-06
4.89394e-06
-3.67058e-05
3.3245e-05
2.51186e-06
2.52281e-06
-6.62439e-06
-6.60325e-06
-2.52863e-06
6.59013e-06
6.59017e-06
3.6697e-05
-3.32624e-05