/*--------------------------------*- C++ -*----------------------------------*\
| =========                 |                                                 |
| \\      /  F ield         | OpenFOAM: The Open Source CFD Toolbox           |
|  \\    /   O peration     | Version:  2206                                  |
|   \\  /    A nd           | Website:  www.openfoam.com                      |
|    \\/     M anipulation  |                                                 |
\*---------------------------------------------------------------------------*/
FoamFile
{
    version     2.0;
    format      ascii;
    arch        "LSB;label=32;scalar=64";
    class       volVectorField;
    location    "20";
    object      U;
}
// * * * * * * * * * * * * * * * * * * * * * * * * * * * * * * * * * * * * * //

dimensions      [0 1 -1 0 0 0 0];

internalField   nonuniform List<vector> 
28907
(
(1.69495e-05 1.69982e-05 -7.29257e-06)
(1.71249e-05 2.99761e-05 8.74502e-06)
(-1.69828e-05 2.99455e-05 8.83446e-06)
(-1.68298e-05 1.68709e-05 -7.281e-06)
(2.9957e-05 1.7072e-05 8.07185e-06)
(2.98522e-05 -1.69211e-05 8.75442e-06)
(-2.98226e-05 1.70307e-05 8.0992e-06)
(-2.99153e-05 -1.70166e-05 8.80014e-06)
(1.68524e-05 -1.68507e-05 -7.25785e-06)
(1.70281e-05 -2.9817e-05 8.25838e-06)
(-1.69774e-05 -2.9834e-05 8.1173e-06)
(-1.69012e-05 -1.68029e-05 -7.18177e-06)
(-1.04435e-05 -1.03949e-05 -7.33e-06)
(1.68175e-05 1.69073e-05 -7.31915e-06)
(-4.38302e-05 -4.39204e-05 3.1414e-05)
(4.39746e-05 -4.39196e-05 3.15246e-05)
(-4.39252e-05 4.39169e-05 3.16271e-05)
(4.39861e-05 4.3929e-05 3.13719e-05)
(-1.9638e-05 9.26736e-05 -9.12766e-06)
(-5.90959e-05 -1.58214e-05 -8.79338e-06)
(9.24661e-05 -1.94306e-05 -9.16562e-06)
(-1.56794e-05 -5.94446e-05 -8.89144e-06)
(-1.04271e-05 -1.05525e-05 -7.27556e-06)
(1.42938e-05 7.42604e-05 -8.18356e-06)
(7.41506e-05 1.43744e-05 -8.3438e-06)
(1.32351e-05 9.57384e-06 -8.34091e-06)
(9.54285e-06 1.30949e-05 -8.458e-06)
(-1.49076e-06 -2.76491e-05 -1.00067e-05)
(-0.000102263 0.000256622 -6.5339e-06)
(-1.08152e-05 -0.000185534 -6.77033e-06)
(-1.18878e-05 -2.97423e-06 -9.81134e-06)
(1.335e-06 -2.7669e-05 -1.00086e-05)
(0.00010213 0.000256649 -6.54618e-06)
(1.08809e-05 -0.000185667 -6.78882e-06)
(1.17537e-05 -2.9776e-06 -9.81629e-06)
(7.64633e-07 -5.39274e-05 -1.10484e-05)
(1.70825e-05 2.98852e-05 8.68852e-06)
(6.8554e-06 6.48933e-05 -8.64213e-06)
(1.05484e-05 3.03239e-05 1.49433e-05)
(1.28935e-05 -2.06345e-05 -8.7869e-06)
(1.0485e-05 3.03168e-05 1.49009e-05)
(1.00173e-06 -1.25567e-05 -1.10468e-05)
(-9.24381e-07 -5.39534e-05 -1.10431e-05)
(-1.69929e-05 2.99475e-05 8.83322e-06)
(-6.96438e-06 6.48468e-05 -8.70453e-06)
(-1.04379e-05 3.03166e-05 1.50024e-05)
(-1.29564e-05 -2.07424e-05 -8.80143e-06)
(-1.04881e-05 3.03156e-05 1.49982e-05)
(-1.1102e-06 -1.25621e-05 -1.10536e-05)
(1.94208e-05 9.24778e-05 -9.09418e-06)
(5.93445e-05 -1.56748e-05 -8.81657e-06)
(1.05457e-05 -1.05059e-05 -7.29256e-06)
(-1.44167e-05 7.4139e-05 -8.22679e-06)
(-7.41914e-05 1.43123e-05 -8.30167e-06)
(-1.32178e-05 9.5714e-06 -8.38389e-06)
(-9.49088e-06 1.31718e-05 -8.47232e-06)
(-9.26162e-05 -1.95831e-05 -9.15902e-06)
(1.58481e-05 -5.91374e-05 -8.88074e-06)
(-2.764e-05 -1.39288e-06 -9.96043e-06)
(0.000256627 -0.000102118 -6.5726e-06)
(-0.000185726 -1.08964e-05 -6.82989e-06)
(-2.94906e-06 -1.1802e-05 -9.75042e-06)
(-5.39238e-05 8.7463e-07 -1.10019e-05)
(2.99681e-05 1.70083e-05 8.14048e-06)
(6.48459e-05 6.93952e-06 -8.89461e-06)
(3.04012e-05 1.05792e-05 1.47607e-05)
(-2.08376e-05 1.28926e-05 -8.93838e-06)
(3.03995e-05 1.05758e-05 1.47937e-05)
(-1.25008e-05 1.05615e-06 -1.09915e-05)
(-2.76645e-05 1.41443e-06 -9.94932e-06)
(0.000256639 0.000102173 -6.54488e-06)
(-0.000185614 1.08764e-05 -6.80363e-06)
(-2.97184e-06 1.18257e-05 -9.72963e-06)
(-5.39478e-05 -8.46705e-07 -1.09781e-05)
(3.00038e-05 -1.70231e-05 8.78506e-06)
(3.02979e-05 -1.04772e-05 1.49833e-05)
(6.48368e-05 -6.91981e-06 -8.66264e-06)
(3.03504e-05 -1.05085e-05 1.49963e-05)
(-2.06959e-05 -1.29546e-05 -8.8035e-06)
(-1.25405e-05 -1.06302e-06 -1.09495e-05)
(5.39187e-05 8.69061e-07 -1.10557e-05)
(-2.98194e-05 1.70284e-05 8.09699e-06)
(-6.48289e-05 6.90089e-06 -8.87382e-06)
(-3.03503e-05 1.04958e-05 1.47461e-05)
(2.07818e-05 1.29057e-05 -9e-06)
(-3.03463e-05 1.05024e-05 1.47519e-05)
(1.25226e-05 1.06262e-06 -1.10361e-05)
(2.76365e-05 -1.39643e-06 -9.99915e-06)
(-0.000256616 -0.000102193 -6.62867e-06)
(0.00018565 -1.07751e-05 -6.88694e-06)
(2.95427e-06 -1.17916e-05 -9.7839e-06)
(5.39527e-05 -8.33821e-07 -1.10134e-05)
(-3.03012e-05 -1.05195e-05 1.49442e-05)
(-6.48701e-05 -6.87683e-06 -8.63464e-06)
(-3.03089e-05 -1.05214e-05 1.49449e-05)
(1.25586e-05 -1.05051e-06 -1.09969e-05)
(2.76657e-05 1.41856e-06 -9.97979e-06)
(-0.000256632 0.000102261 -6.51595e-06)
(2.98037e-06 1.18463e-05 -9.76514e-06)
(9.2517e-05 1.94805e-05 -9.16205e-06)
(-1.56914e-05 5.93428e-05 -8.8923e-06)
(-1.04466e-05 1.05321e-05 -7.26983e-06)
(7.41695e-05 -1.43709e-05 -8.2209e-06)
(1.42658e-05 -7.42277e-05 -8.30163e-06)
(9.56782e-06 -1.32132e-05 -8.40174e-06)
(-1.96735e-05 -9.26631e-05 -9.13499e-06)
(1.0625e-05 -3.03328e-05 1.47545e-05)
(6.87418e-06 -6.4804e-05 -8.83089e-06)
(1.05023e-06 1.2506e-05 -1.10139e-05)
(-1.05182e-05 -3.03459e-05 1.47425e-05)
(-6.97601e-06 -6.48193e-05 -8.85379e-06)
(-1.0823e-06 1.25047e-05 -1.10058e-05)
(-0.000102234 -0.000256564 -6.59581e-06)
(-1.18387e-05 2.94254e-06 -9.77e-06)
(0.000102105 -0.000256643 -6.58543e-06)
(1.17766e-05 2.94616e-06 -9.76177e-06)
(-7.42173e-05 -1.43098e-05 -8.1799e-06)
(-1.44083e-05 -7.41038e-05 -8.29166e-06)
(-9.26356e-05 1.9619e-05 -9.08311e-06)
(1.94109e-05 -9.24542e-05 -9.11678e-06)
(-5.91197e-05 -1.58139e-05 -8.88435e-06)
(-1.96648e-05 9.26826e-05 -9.11195e-06)
(-1.56713e-05 -5.93772e-05 -8.9429e-06)
(9.24807e-05 -1.94482e-05 -9.15376e-06)
(1.32268e-05 9.61546e-06 -8.37009e-06)
(9.57292e-06 1.3155e-05 -8.55181e-06)
(1.68328e-05 1.69178e-05 -7.32605e-06)
(1.42772e-05 7.42508e-05 -8.20193e-06)
(7.41407e-05 1.43745e-05 -8.38147e-06)
(-1.96454e-05 9.26701e-05 -9.10321e-06)
(-5.91144e-05 -1.58133e-05 -8.89963e-06)
(9.24659e-05 -1.94285e-05 -9.14278e-06)
(-1.5673e-05 -5.93699e-05 -8.96446e-06)
(-1.05491e-05 -1.04796e-05 -7.35248e-06)
(1.42931e-05 7.42393e-05 -8.18688e-06)
(7.41259e-05 1.43917e-05 -8.36623e-06)
(1.32261e-05 9.59678e-06 -8.38287e-06)
(9.54638e-06 1.31594e-05 -8.5735e-06)
(-5.9113e-05 -1.58098e-05 -8.84128e-06)
(-1.96396e-05 9.26737e-05 -9.13851e-06)
(-1.56707e-05 -5.93871e-05 -8.91928e-06)
(9.24827e-05 -1.94532e-05 -9.18525e-06)
(1.29104e-06 1.26529e-06 -9.99092e-06)
(-6.19952e-05 1.97784e-06 -1.05048e-05)
(2.30161e-06 -6.23781e-05 -1.05207e-05)
(-2.2985e-05 -2.32045e-05 -1.0138e-05)
(3.70491e-05 -6.21032e-06 -1.10248e-05)
(-6.27375e-06 3.70946e-05 -1.10242e-05)
(-7.26506e-06 -4.04751e-05 -1.15419e-05)
(1.99618e-05 5.0608e-05 -1.06065e-05)
(1.32303e-05 9.61401e-06 -8.33488e-06)
(-6.49069e-07 0.000133437 -7.35543e-06)
(3.8735e-05 -0.000151617 -7.65419e-06)
(2.54484e-06 3.16262e-06 -1.06839e-05)
(5.39961e-06 2.38649e-05 -1.13501e-05)
(-4.04964e-05 -7.34431e-06 -1.16251e-05)
(5.04785e-05 1.99857e-05 -1.08813e-05)
(9.57851e-06 1.31434e-05 -8.49145e-06)
(0.000133358 -6.83919e-07 -7.38154e-06)
(-0.000151637 3.85843e-05 -7.69229e-06)
(3.07136e-06 2.48523e-06 -1.0942e-05)
(2.3765e-05 5.39206e-06 -1.14375e-05)
(5.39879e-06 2.38275e-05 -1.13041e-05)
(3.8735e-05 -0.000151667 -7.60422e-06)
(2.53286e-06 3.10342e-06 -1.07072e-05)
(1.43034e-05 7.42422e-05 -8.19157e-06)
(-7.27583e-06 -4.05367e-05 -1.15355e-05)
(-6.38436e-07 0.000133442 -7.37402e-06)
(1.99554e-05 5.05645e-05 -1.05824e-05)
(2.37584e-05 5.3543e-06 -1.13757e-05)
(-0.000151658 3.85426e-05 -7.66121e-06)
(3.04063e-06 2.42047e-06 -1.08722e-05)
(7.41395e-05 1.43448e-05 -8.31986e-06)
(-4.05167e-05 -7.40405e-06 -1.15925e-05)
(0.000133364 -6.90663e-07 -7.39264e-06)
(5.04612e-05 1.99334e-05 -1.08111e-05)
(-2.29665e-05 -2.316e-05 -1.01658e-05)
(3.70432e-05 -6.23044e-06 -1.10025e-05)
(-6.2887e-06 3.70862e-05 -1.10012e-05)
(-6.19845e-05 2.00008e-06 -1.0579e-05)
(2.31072e-06 -6.23663e-05 -1.05871e-05)
(1.28009e-06 1.27218e-06 -1.00214e-05)
(-9.37552e-05 8.71726e-05 -7.06922e-06)
(1.14646e-05 -0.000138592 -6.28574e-06)
(-4.4739e-06 -3.06177e-05 -1.00886e-05)
(-1.18969e-05 -2.96065e-06 -9.80674e-06)
(3.7104e-05 -0.000125413 -7.46605e-06)
(-2.89806e-05 8.37594e-05 -5.90812e-06)
(-3.50043e-05 5.4936e-06 -9.89415e-06)
(3.76146e-05 -4.12002e-05 -1.09082e-05)
(-1.08269e-05 -0.000185538 -6.78441e-06)
(-5.84762e-05 5.39936e-05 -9.21241e-06)
(-1.70155e-05 -4.11887e-05 -9.32002e-06)
(-0.000140573 6.26575e-05 -1.12169e-05)
(-0.000140571 6.26644e-05 -1.12537e-05)
(-1.70144e-05 -4.11893e-05 -9.31013e-06)
(-0.000102253 0.000256619 -6.56142e-06)
(3.76071e-05 -4.12078e-05 -1.08634e-05)
(-5.84712e-05 5.40002e-05 -9.22141e-06)
(3.71103e-05 -0.000125398 -7.50628e-06)
(-1.48009e-06 -2.76463e-05 -1.00267e-05)
(-2.89745e-05 8.37345e-05 -5.87818e-06)
(-3.50043e-05 5.47907e-06 -9.89308e-06)
(1.14777e-05 -0.000138583 -6.32631e-06)
(-4.47004e-06 -3.06176e-05 -1.01034e-05)
(-9.37598e-05 8.71594e-05 -7.04083e-06)
(9.36965e-05 8.71389e-05 -7.03801e-06)
(-1.16078e-05 -0.000138617 -6.27852e-06)
(4.34968e-06 -3.06562e-05 -1.0114e-05)
(1.17425e-05 -2.9754e-06 -9.81077e-06)
(-3.72215e-05 -0.000125438 -7.45704e-06)
(2.88873e-05 8.37497e-05 -5.89726e-06)
(3.48643e-05 5.45549e-06 -9.92131e-06)
(-3.77329e-05 -4.11748e-05 -1.08757e-05)
(1.08754e-05 -0.000185649 -6.82275e-06)
(5.83554e-05 5.39455e-05 -9.24988e-06)
(1.69254e-05 -4.12066e-05 -9.36936e-06)
(0.000140554 6.26044e-05 -1.11556e-05)
(0.000140549 6.26103e-05 -1.11824e-05)
(1.69261e-05 -4.12282e-05 -9.35133e-06)
(0.000102122 0.00025665 -6.56645e-06)
(-3.77386e-05 -4.11901e-05 -1.08324e-05)
(5.83482e-05 5.39446e-05 -9.25794e-06)
(-3.72169e-05 -0.000125419 -7.49492e-06)
(1.34576e-06 -2.76542e-05 -1.00328e-05)
(2.88969e-05 8.37419e-05 -5.87213e-06)
(3.48714e-05 5.45536e-06 -9.92258e-06)
(-1.15937e-05 -0.000138593 -6.3171e-06)
(4.3534e-06 -3.06389e-05 -1.01366e-05)
(9.36966e-05 8.71279e-05 -7.00818e-06)
(5.9335e-05 -1.56649e-05 -8.86445e-06)
(1.94177e-05 9.24832e-05 -9.13027e-06)
(-1.31461e-06 1.21836e-06 -1.00213e-05)
(6.23017e-05 2.22982e-06 -1.05144e-05)
(-2.04393e-06 -6.20493e-05 -1.05255e-05)
(2.31212e-05 -2.30916e-05 -1.01797e-05)
(-3.71747e-05 -6.32604e-06 -1.10151e-05)
(6.16934e-06 3.69626e-05 -1.10212e-05)
(7.29619e-06 -4.05784e-05 -1.15911e-05)
(-1.99852e-05 5.04525e-05 -1.06336e-05)
(-1.32347e-05 9.59073e-06 -8.39756e-06)
(6.28068e-07 0.000133331 -7.33369e-06)
(-2.53709e-06 3.0524e-06 -1.07376e-05)
(-3.86792e-05 -0.000151669 -7.66865e-06)
(-5.39879e-06 2.36996e-05 -1.13451e-05)
(4.05341e-05 -7.37571e-06 -1.16855e-05)
(-5.048e-05 1.99067e-05 -1.08541e-05)
(-9.50923e-06 1.31917e-05 -8.48178e-06)
(-0.000133424 -6.86693e-07 -7.39181e-06)
(0.000151686 3.86688e-05 -7.73896e-06)
(-3.0318e-06 2.44325e-06 -1.09643e-05)
(-2.37989e-05 5.33662e-06 -1.1437e-05)
(-5.40189e-06 2.3702e-05 -1.13521e-05)
(-3.86635e-05 -0.000151691 -7.63664e-06)
(-2.53491e-06 3.0446e-06 -1.07223e-05)
(-1.4417e-05 7.41405e-05 -8.24077e-06)
(-1.99857e-05 5.04558e-05 -1.06292e-05)
(7.30236e-06 -4.05891e-05 -1.15805e-05)
(6.20978e-07 0.000133336 -7.37364e-06)
(-2.38016e-05 5.33703e-06 -1.14453e-05)
(0.000151704 3.86478e-05 -7.70669e-06)
(-3.02382e-06 2.43581e-06 -1.09556e-05)
(-7.41916e-05 1.4313e-05 -8.31749e-06)
(4.05412e-05 -7.38728e-06 -1.16766e-05)
(-0.00013343 -6.81883e-07 -7.43073e-06)
(-5.04806e-05 1.99042e-05 -1.08545e-05)
(2.3108e-05 -2.30735e-05 -1.0194e-05)
(-3.7169e-05 -6.33103e-06 -1.09671e-05)
(6.17658e-06 3.69603e-05 -1.0974e-05)
(6.2306e-05 2.24563e-06 -1.05744e-05)
(-2.05523e-06 -6.20493e-05 -1.0586e-05)
(-1.30851e-06 1.21427e-06 -1.0001e-05)
(1.58408e-05 -5.91236e-05 -8.92498e-06)
(-9.26216e-05 -1.95802e-05 -9.19056e-06)
(8.71315e-05 -9.36037e-05 -7.00738e-06)
(-3.06221e-05 -4.36369e-06 -1.00919e-05)
(-0.000138596 1.15264e-05 -6.23771e-06)
(-2.9628e-06 -1.17927e-05 -9.7489e-06)
(-0.000125418 3.71716e-05 -7.45347e-06)
(5.48262e-06 -3.48699e-05 -9.89201e-06)
(8.37512e-05 -2.88544e-05 -5.82444e-06)
(-4.11604e-05 3.77129e-05 -1.0885e-05)
(-0.000185686 -1.08715e-05 -6.85865e-06)
(5.39394e-05 -5.83249e-05 -9.28187e-06)
(-4.12018e-05 -1.69255e-05 -9.40044e-06)
(6.25689e-05 -0.000140439 -1.11681e-05)
(6.25703e-05 -0.00014044 -1.11728e-05)
(-4.12445e-05 -1.69266e-05 -9.37695e-06)
(0.00025662 -0.000102131 -6.58954e-06)
(-4.11823e-05 3.77218e-05 -1.08469e-05)
(5.39273e-05 -5.83235e-05 -9.28098e-06)
(-0.00012538 3.7151e-05 -7.47278e-06)
(-2.76031e-05 -1.40923e-06 -9.96706e-06)
(5.49627e-06 -3.48783e-05 -9.89211e-06)
(8.37551e-05 -2.88612e-05 -5.81158e-06)
(-3.05839e-05 -4.37652e-06 -1.01057e-05)
(-0.000138557 1.15089e-05 -6.26256e-06)
(8.71362e-05 -9.36106e-05 -6.98998e-06)
(8.71678e-05 9.37788e-05 -7.02051e-06)
(-0.000138621 -1.15609e-05 -6.23971e-06)
(-3.06491e-05 4.40675e-06 -1.00578e-05)
(-2.98462e-06 1.18309e-05 -9.73551e-06)
(-0.000125437 -3.71668e-05 -7.45991e-06)
(8.37393e-05 2.901e-05 -5.82182e-06)
(5.46837e-06 3.49315e-05 -9.85165e-06)
(-4.12022e-05 -3.76657e-05 -1.08984e-05)
(-0.000185641 1.08828e-05 -6.81708e-06)
(5.39917e-05 5.83856e-05 -9.19461e-06)
(-4.12188e-05 1.6958e-05 -9.31807e-06)
(6.26619e-05 0.000140549 -1.12098e-05)
(6.26618e-05 0.000140547 -1.12318e-05)
(-4.12239e-05 1.69648e-05 -9.31995e-06)
(0.00025666 0.000102146 -6.59179e-06)
(-4.12125e-05 -3.76464e-05 -1.08826e-05)
(5.39913e-05 5.8378e-05 -9.22469e-06)
(-0.000125393 -3.71819e-05 -7.46953e-06)
(-2.76321e-05 1.4015e-06 -9.9491e-06)
(8.3745e-05 2.90051e-05 -5.8112e-06)
(5.48127e-06 3.49343e-05 -9.83547e-06)
(-0.000138579 -1.15768e-05 -6.25136e-06)
(-3.06193e-05 4.40009e-06 -1.00543e-05)
(8.71757e-05 9.37774e-05 -7.00806e-06)
(-8.71356e-05 -9.36142e-05 -7.02306e-06)
(3.06109e-05 -4.35942e-06 -1.01276e-05)
(0.000138582 1.15045e-05 -6.2727e-06)
(2.95079e-06 -1.17909e-05 -9.78827e-06)
(0.00012539 3.71625e-05 -7.45449e-06)
(-5.49061e-06 -3.48742e-05 -9.92379e-06)
(-8.37645e-05 -2.88626e-05 -5.87341e-06)
(4.11882e-05 3.77332e-05 -1.09126e-05)
(0.000185634 -1.07658e-05 -6.91069e-06)
(-5.39396e-05 -5.83571e-05 -9.30728e-06)
(4.12027e-05 -1.69061e-05 -9.43226e-06)
(-6.25854e-05 -0.000140472 -1.11817e-05)
(-6.25918e-05 -0.000140473 -1.12049e-05)
(4.12186e-05 -1.6914e-05 -9.42009e-06)
(-0.000256622 -0.000102188 -6.64988e-06)
(4.11967e-05 3.77279e-05 -1.08625e-05)
(-5.39426e-05 -5.83553e-05 -9.31894e-06)
(0.000125363 3.71624e-05 -7.48958e-06)
(2.76148e-05 -1.39655e-06 -1.0006e-05)
(-5.48897e-06 -3.48766e-05 -9.91713e-06)
(-8.37493e-05 -2.8864e-05 -5.8519e-06)
(3.05899e-05 -4.35653e-06 -1.01363e-05)
(0.000138557 1.15051e-05 -6.30728e-06)
(-8.7129e-05 -9.36183e-05 -7.00316e-06)
(-8.71711e-05 9.37869e-05 -7.01524e-06)
(0.000138611 -1.15821e-05 -6.26836e-06)
(3.06472e-05 4.41139e-06 -1.00758e-05)
(2.97728e-06 1.18447e-05 -9.77076e-06)
(0.000125424 -3.72045e-05 -7.44596e-06)
(-8.37423e-05 2.9008e-05 -5.86704e-06)
(-5.46712e-06 3.49626e-05 -9.87657e-06)
(4.12224e-05 -3.76774e-05 -1.08715e-05)
(0.000185557 1.07878e-05 -6.78725e-06)
(-5.3991e-05 5.84466e-05 -9.21419e-06)
(4.12019e-05 1.69647e-05 -9.33276e-06)
(-6.26679e-05 0.000140587 -1.11496e-05)
(-6.26731e-05 0.000140587 -1.1171e-05)
(4.12199e-05 1.69726e-05 -9.31872e-06)
(4.12351e-05 -3.76766e-05 -1.08277e-05)
(-5.39926e-05 5.84438e-05 -9.2254e-06)
(0.000125398 -3.72035e-05 -7.48114e-06)
(2.76449e-05 1.4172e-06 -9.98792e-06)
(-8.37314e-05 2.90115e-05 -5.84661e-06)
(-5.46501e-06 3.49656e-05 -9.86999e-06)
(0.000138582 -1.15806e-05 -6.29825e-06)
(3.06284e-05 4.40758e-06 -1.00877e-05)
(-8.71634e-05 9.37898e-05 -6.99289e-06)
(-1.56494e-05 5.93815e-05 -8.88347e-06)
(9.2473e-05 1.94343e-05 -9.19156e-06)
(1.2301e-06 -1.29747e-06 -1.00136e-05)
(-6.31382e-06 -3.71525e-05 -1.10297e-05)
(3.69697e-05 6.1878e-06 -1.09754e-05)
(-4.05565e-05 7.29615e-06 -1.1636e-05)
(5.0458e-05 -1.99648e-05 -1.06426e-05)
(9.59362e-06 -1.31948e-05 -8.41169e-06)
(0.00013337 6.57576e-07 -7.33913e-06)
(3.04266e-06 -2.51341e-06 -1.07987e-05)
(-0.000151623 -3.86503e-05 -7.68475e-06)
(2.37283e-05 -5.40755e-06 -1.13534e-05)
(-7.35205e-06 4.05018e-05 -1.1673e-05)
(1.98952e-05 -5.05134e-05 -1.08072e-05)
(1.3186e-05 -9.54855e-06 -8.46976e-06)
(-7.1599e-07 -0.000133484 -7.41363e-06)
(3.8685e-05 0.000151627 -7.72775e-06)
(2.45732e-06 -3.06153e-06 -1.09281e-05)
(5.33982e-06 -2.38476e-05 -1.14076e-05)
(2.37102e-05 -5.3884e-06 -1.14054e-05)
(3.06501e-06 -2.53531e-06 -1.07532e-05)
(7.41353e-05 -1.44021e-05 -8.27325e-06)
(5.04598e-05 -1.99784e-05 -1.07005e-05)
(0.000133325 6.40935e-07 -7.40092e-06)
(5.34039e-06 -2.3797e-05 -1.1438e-05)
(1.43174e-05 -7.41856e-05 -8.31749e-06)
(-6.94058e-07 -0.000133413 -7.4359e-06)
(1.9918e-05 -5.04908e-05 -1.0823e-05)
(-2.30521e-05 2.30888e-05 -1.01805e-05)
(-6.33565e-06 -3.71586e-05 -1.09837e-05)
(3.69539e-05 6.16121e-06 -1.09963e-05)
(2.26419e-06 6.23073e-05 -1.05823e-05)
(-6.20377e-05 -2.08248e-06 -1.05316e-05)
(1.22721e-06 -1.3326e-06 -9.99027e-06)
(-5.91398e-05 1.58101e-05 -8.85537e-06)
(-1.95965e-05 -9.26179e-05 -9.13891e-06)
(3.77012e-05 4.12332e-05 -1.09124e-05)
(-1.07727e-05 0.000185636 -6.86419e-06)
(-5.83769e-05 -5.39615e-05 -9.28649e-06)
(-1.69249e-05 4.12268e-05 -9.40277e-06)
(-0.000140455 -6.26335e-05 -1.11878e-05)
(3.71664e-05 0.000125348 -7.46866e-06)
(-1.43159e-06 2.76048e-05 -1.00003e-05)
(-3.49156e-05 -5.51351e-06 -9.90017e-06)
(-2.8956e-05 -8.37568e-05 -5.82605e-06)
(-4.38587e-06 3.05837e-05 -1.01216e-05)
(1.14987e-05 0.000138556 -6.26625e-06)
(-9.36833e-05 -8.71835e-05 -7.01047e-06)
(-3.78035e-05 4.12046e-05 -1.08761e-05)
(1.08103e-05 0.000185709 -6.8628e-06)
(5.82962e-05 -5.39435e-05 -9.27681e-06)
(1.6863e-05 4.12253e-05 -9.4001e-06)
(0.000140471 -6.25897e-05 -1.11662e-05)
(-3.72558e-05 0.000125391 -7.46109e-06)
(1.36648e-06 2.76067e-05 -9.99314e-06)
(3.48461e-05 -5.4939e-06 -9.8894e-06)
(2.89047e-05 -8.37626e-05 -5.81985e-06)
(4.31988e-06 3.05955e-05 -1.01133e-05)
(-1.15982e-05 0.000138571 -6.25958e-06)
(9.36471e-05 -8.71494e-05 -6.99014e-06)
(4.05079e-05 7.30206e-06 -1.15038e-05)
(-5.05393e-05 -1.99204e-05 -1.05417e-05)
(-9.585e-06 -1.32444e-05 -8.34668e-06)
(-0.000133411 6.53577e-07 -7.31867e-06)
(-3.11634e-06 -2.50462e-06 -1.06465e-05)
(0.000151633 -3.87447e-05 -7.63893e-06)
(-2.38024e-05 -5.35297e-06 -1.1264e-05)
(7.34632e-06 4.05686e-05 -1.1586e-05)
(-1.99697e-05 -5.03864e-05 -1.07803e-05)
(-1.31959e-05 -9.5342e-06 -8.46344e-06)
(6.70886e-07 -0.000133323 -7.3414e-06)
(-2.48373e-06 -2.98704e-06 -1.08904e-05)
(-3.86171e-05 0.000151673 -7.66761e-06)
(-5.36776e-06 -2.3679e-05 -1.13431e-05)
(2.31581e-05 2.29916e-05 -1.01302e-05)
(6.2221e-06 -3.70415e-05 -1.09623e-05)
(-3.70914e-05 6.28883e-06 -1.09636e-05)
(-2.01223e-06 6.19917e-05 -1.05466e-05)
(6.23525e-05 -2.30656e-06 -1.05463e-05)
(-1.25805e-06 -1.2486e-06 -9.94821e-06)
(1.58159e-05 5.9107e-05 -8.84427e-06)
(5.93266e-05 1.56861e-05 -8.87176e-06)
(-1.96743e-05 9.26897e-05 -9.12198e-06)
(-5.9119e-05 -1.58131e-05 -8.90468e-06)
(9.24897e-05 -1.94556e-05 -9.15966e-06)
(-1.56718e-05 -5.93759e-05 -8.9656e-06)
(-2.29871e-05 -2.31615e-05 -1.02767e-05)
(3.70345e-05 -6.2072e-06 -1.09871e-05)
(-6.27093e-06 3.70912e-05 -1.09866e-05)
(-6.1989e-05 2.00793e-06 -1.06277e-05)
(2.30794e-06 -6.23566e-05 -1.06284e-05)
(1.27462e-06 1.28067e-06 -1.00647e-05)
(5.39458e-06 2.38772e-05 -1.1406e-05)
(2.54292e-06 3.17501e-06 -1.07371e-05)
(3.87318e-05 -0.000151617 -7.6996e-06)
(1.42764e-05 7.42678e-05 -8.20462e-06)
(-7.27038e-06 -4.04605e-05 -1.16319e-05)
(-6.65814e-07 0.000133477 -7.36696e-06)
(1.9939e-05 5.06057e-05 -1.06452e-05)
(2.37665e-05 5.39969e-06 -1.14995e-05)
(3.06359e-06 2.50222e-06 -1.10251e-05)
(-0.00015165 3.85937e-05 -7.74265e-06)
(7.4161e-05 1.43718e-05 -8.37843e-06)
(-4.05022e-05 -7.33289e-06 -1.17268e-05)
(0.000133397 -6.88316e-07 -7.40059e-06)
(5.04666e-05 1.99755e-05 -1.09338e-05)
(1.29381e-06 1.29604e-06 -1.00674e-05)
(-6.19852e-05 2.00771e-06 -1.05817e-05)
(2.30947e-06 -6.23553e-05 -1.05823e-05)
(-2.2971e-05 -2.31511e-05 -1.02456e-05)
(3.70423e-05 -6.20662e-06 -1.09947e-05)
(-6.2696e-06 3.70974e-05 -1.09945e-05)
(-7.29817e-06 -4.04872e-05 -1.16637e-05)
(-6.67779e-07 0.000133458 -7.35962e-06)
(1.32205e-05 9.60421e-06 -8.39176e-06)
(1.99118e-05 5.05724e-05 -1.06446e-05)
(3.87298e-05 -0.000151629 -7.72901e-06)
(5.3674e-06 2.38432e-05 -1.14001e-05)
(2.50979e-06 3.14469e-06 -1.07623e-05)
(-4.0538e-05 -7.35438e-06 -1.17621e-05)
(0.000133377 -6.89084e-07 -7.39573e-06)
(9.55744e-06 1.31521e-05 -8.57958e-06)
(5.04259e-05 1.9954e-05 -1.09365e-05)
(-0.000151666 3.85948e-05 -7.77768e-06)
(2.37261e-05 5.3778e-06 -1.14955e-05)
(3.02306e-06 2.47558e-06 -1.1057e-05)
(-5.91144e-05 -1.58099e-05 -8.89945e-06)
(-1.9657e-05 9.2676e-05 -9.10471e-06)
(-1.56695e-05 -5.93677e-05 -8.96285e-06)
(9.24746e-05 -1.94363e-05 -9.14083e-06)
(1.26971e-06 1.2769e-06 -1.00431e-05)
(-6.19946e-05 2.00749e-06 -1.06311e-05)
(2.30633e-06 -6.23595e-05 -1.0631e-05)
(-2.29972e-05 -2.31692e-05 -1.02642e-05)
(3.70306e-05 -6.21015e-06 -1.09656e-05)
(-6.27508e-06 3.70909e-05 -1.09644e-05)
(-7.30197e-06 -4.05018e-05 -1.1636e-05)
(1.99193e-05 5.05591e-05 -1.06289e-05)
(1.32331e-05 9.59671e-06 -8.37942e-06)
(-6.60506e-07 0.000133439 -7.3387e-06)
(3.87367e-05 -0.000151629 -7.71479e-06)
(2.50644e-06 3.12728e-06 -1.07483e-05)
(5.36646e-06 2.38287e-05 -1.13726e-05)
(-4.05562e-05 -7.35614e-06 -1.17348e-05)
(5.04084e-05 1.99627e-05 -1.09193e-05)
(9.54682e-06 1.31672e-05 -8.56841e-06)
(0.000133356 -6.82062e-07 -7.37502e-06)
(-0.000151669 3.86035e-05 -7.7655e-06)
(3.00128e-06 2.47445e-06 -1.10422e-05)
(2.37095e-05 5.37748e-06 -1.14676e-05)
(5.36641e-06 2.38349e-05 -1.13811e-05)
(3.87326e-05 -0.00015164 -7.71935e-06)
(2.49834e-06 3.12839e-06 -1.07554e-05)
(1.42859e-05 7.42442e-05 -8.19273e-06)
(-7.31026e-06 -4.05055e-05 -1.1648e-05)
(-6.65333e-07 0.000133449 -7.341e-06)
(1.99161e-05 5.05658e-05 -1.06364e-05)
(2.37172e-05 5.37699e-06 -1.1476e-05)
(-0.00015168 3.85991e-05 -7.76832e-06)
(3.00264e-06 2.46626e-06 -1.1051e-05)
(7.41328e-05 1.43854e-05 -8.37005e-06)
(-4.05602e-05 -7.36395e-06 -1.17471e-05)
(0.000133366 -6.84748e-07 -7.37626e-06)
(5.04188e-05 1.99581e-05 -1.09267e-05)
(-2.29896e-05 -2.31618e-05 -1.02543e-05)
(3.70323e-05 -6.21421e-06 -1.09678e-05)
(-6.27751e-06 3.70903e-05 -1.09669e-05)
(-6.1992e-05 2.01224e-06 -1.06288e-05)
(2.31072e-06 -6.23568e-05 -1.06301e-05)
(1.26644e-06 1.27355e-06 -1.00366e-05)
(-3.72059e-05 -3.72193e-05 -1.31054e-05)
(-1.04255e-05 -1.04208e-05 -7.29286e-06)
(6.28619e-06 2.61343e-05 -9.9776e-06)
(2.6004e-05 6.27679e-06 -1.02223e-05)
(-2.68287e-05 -8.25035e-06 -9.99831e-06)
(-8.32882e-06 -2.68962e-05 -1.02342e-05)
(5.19121e-06 5.24832e-06 -1.30307e-05)
(3.72722e-05 -3.7314e-05 -1.31639e-05)
(1.05536e-05 -1.051e-05 -7.30124e-06)
(-6.18532e-06 2.59581e-05 -9.98342e-06)
(-2.59652e-05 6.17373e-06 -1.02095e-05)
(2.69517e-05 -8.38485e-06 -1.00295e-05)
(8.3837e-06 -2.69498e-05 -1.02577e-05)
(-5.15813e-06 5.11232e-06 -1.30355e-05)
(-3.72914e-05 3.72547e-05 -1.3194e-05)
(-1.05121e-05 1.05399e-05 -7.30846e-06)
(2.59484e-05 -6.19525e-06 -9.99892e-06)
(6.17791e-06 -2.59998e-05 -1.0156e-05)
(-8.39196e-06 2.69514e-05 -1.00908e-05)
(-2.69287e-05 8.36067e-06 -1.02327e-05)
(5.12781e-06 -5.1939e-06 -1.30221e-05)
(3.72623e-05 3.73044e-05 -1.30416e-05)
(1.04899e-05 1.05704e-05 -7.20247e-06)
(-2.60447e-05 -6.16855e-06 -9.87199e-06)
(-6.19964e-06 -2.58747e-05 -1.01042e-05)
(8.30954e-06 2.69428e-05 -9.91851e-06)
(2.69476e-05 8.45064e-06 -1.01526e-05)
(-5.17957e-06 -5.08806e-06 -1.29153e-05)
(5.1682e-06 5.24214e-06 -1.30921e-05)
(-2.68386e-05 -8.2293e-06 -1.00439e-05)
(-8.34213e-06 -2.687e-05 -1.02987e-05)
(1.68982e-05 1.69722e-05 -7.31724e-06)
(-3.72134e-05 -3.7197e-05 -1.31994e-05)
(6.2436e-06 2.61151e-05 -1.00132e-05)
(2.59647e-05 6.25366e-06 -1.02698e-05)
(-3.72866e-05 -3.72548e-05 -1.32076e-05)
(-1.05497e-05 -1.04784e-05 -7.3471e-06)
(6.17916e-06 2.60584e-05 -1.00019e-05)
(2.58936e-05 6.2009e-06 -1.02604e-05)
(-2.69266e-05 -8.29788e-06 -1.00589e-05)
(-8.42983e-06 -2.69408e-05 -1.03186e-05)
(5.10804e-06 5.19287e-06 -1.30655e-05)
(-4.37865e-05 -4.39879e-05 3.1401e-05)
(3.81659e-05 -3.13596e-05 2.23873e-05)
(-3.13141e-05 3.81566e-05 2.22626e-05)
(3.81618e-05 -3.13939e-05 2.23614e-05)
(-3.13065e-05 3.82169e-05 2.22627e-05)
(3.5e-05 3.50231e-05 1.61297e-05)
(3.50244e-05 3.5042e-05 1.61399e-05)
(4.39699e-05 -4.39223e-05 3.15174e-05)
(-3.80698e-05 -3.13805e-05 2.23891e-05)
(3.13358e-05 3.81552e-05 2.23218e-05)
(-3.81026e-05 -3.13978e-05 2.23864e-05)
(3.13431e-05 3.81585e-05 2.23215e-05)
(-3.50047e-05 3.50262e-05 1.61341e-05)
(-3.49903e-05 3.50213e-05 1.6132e-05)
(-3.13819e-05 -3.8178e-05 2.24162e-05)
(3.82581e-05 3.13473e-05 2.2385e-05)
(-3.13566e-05 -3.79581e-05 2.24213e-05)
(3.497e-05 -3.49577e-05 1.6172e-05)
(3.50424e-05 -3.50106e-05 1.6181e-05)
(3.13748e-05 -3.81048e-05 2.23182e-05)
(-3.81005e-05 3.13495e-05 2.22909e-05)
(3.13691e-05 -3.80951e-05 2.23158e-05)
(-3.50295e-05 -3.49584e-05 1.61252e-05)
(-3.50134e-05 -3.49958e-05 1.61291e-05)
(5.18666e-06 5.18303e-06 -1.29635e-05)
(1.69372e-05 1.68996e-05 -7.2591e-06)
(-2.68374e-05 -8.35219e-06 -1.00094e-05)
(-8.33458e-06 -2.7008e-05 -1.01706e-05)
(-3.72103e-05 -3.731e-05 -1.30812e-05)
(6.26907e-06 2.60521e-05 -9.94527e-06)
(2.59928e-05 6.19159e-06 -1.0154e-05)
(2.03816e-05 -1.341e-06 -6.04986e-06)
(2.81269e-06 -5.12856e-05 -1.10792e-05)
(5.50037e-06 -4.87124e-05 -5.74264e-06)
(9.84701e-07 -1.25405e-05 -1.1033e-05)
(1.38053e-05 -4.40721e-05 -6.04468e-06)
(4.86568e-06 -8.58629e-06 -1.10508e-05)
(7.26982e-06 -8.25151e-06 -5.76386e-06)
(2.03637e-05 -2.95504e-05 -6.90004e-06)
(3.58583e-05 5.21574e-05 -6.81826e-06)
(1.28906e-05 -2.06272e-05 -8.76205e-06)
(1.08606e-05 1.17062e-05 -1.05102e-05)
(2.38263e-05 -7.10899e-06 -6.83707e-06)
(1.1187e-06 -3.65992e-05 -1.05487e-05)
(3.39054e-05 1.902e-05 -6.90692e-06)
(3.38808e-05 1.90141e-05 -6.91841e-06)
(1.1152e-06 -3.65863e-05 -1.05624e-05)
(2.3805e-05 -7.12817e-06 -6.88609e-06)
(6.85785e-06 6.48861e-05 -8.65293e-06)
(3.58421e-05 5.2132e-05 -6.82477e-06)
(2.03362e-05 -2.95446e-05 -6.94314e-06)
(1.08548e-05 1.17123e-05 -1.0513e-05)
(1.38407e-05 -4.40984e-05 -6.02588e-06)
(7.82819e-07 -5.39479e-05 -1.10684e-05)
(4.87809e-06 -8.60368e-06 -1.10561e-05)
(7.29945e-06 -8.27055e-06 -5.76833e-06)
(2.82578e-06 -5.13094e-05 -1.1084e-05)
(5.53597e-06 -4.8739e-05 -5.74371e-06)
(2.04109e-05 -1.35736e-06 -6.04439e-06)
(-2.04683e-05 -1.37172e-06 -6.04106e-06)
(-2.95733e-06 -5.135e-05 -1.10857e-05)
(-5.62688e-06 -4.87412e-05 -5.71416e-06)
(-1.12565e-06 -1.25562e-05 -1.10355e-05)
(-1.39203e-05 -4.41258e-05 -6.00705e-06)
(-5.0015e-06 -8.62209e-06 -1.1078e-05)
(-7.36329e-06 -8.26863e-06 -5.74671e-06)
(-2.04141e-05 -2.96027e-05 -6.92347e-06)
(-3.58883e-05 5.20726e-05 -6.84697e-06)
(-1.29635e-05 -2.07294e-05 -8.82675e-06)
(-1.09668e-05 1.16668e-05 -1.05713e-05)
(-1.22577e-06 -3.66627e-05 -1.06098e-05)
(-2.38596e-05 -7.19679e-06 -6.86583e-06)
(-3.39421e-05 1.89757e-05 -6.93573e-06)
(-3.39491e-05 1.89849e-05 -6.92141e-06)
(-1.22851e-06 -3.66672e-05 -1.05799e-05)
(-2.38598e-05 -7.20212e-06 -6.84339e-06)
(-6.96571e-06 6.48488e-05 -8.70176e-06)
(-2.04219e-05 -2.96014e-05 -6.89679e-06)
(-1.09719e-05 1.16702e-05 -1.05608e-05)
(-3.58906e-05 5.20797e-05 -6.83616e-06)
(-1.3899e-05 -4.41292e-05 -6.03448e-06)
(-9.08408e-07 -5.39598e-05 -1.10749e-05)
(-4.99146e-06 -8.62469e-06 -1.10938e-05)
(-7.33799e-06 -8.27835e-06 -5.76324e-06)
(-2.9469e-06 -5.13502e-05 -1.11196e-05)
(-5.59708e-06 -4.8752e-05 -5.73606e-06)
(-2.04502e-05 -1.37819e-06 -6.05806e-06)
(-5.16178e-06 5.11318e-06 -1.3032e-05)
(-1.68345e-05 1.68722e-05 -7.27411e-06)
(2.69421e-05 -8.38302e-06 -1.00163e-05)
(8.38053e-06 -2.69478e-05 -1.0247e-05)
(-6.19075e-06 2.59604e-05 -9.97573e-06)
(3.72669e-05 -3.73143e-05 -1.31508e-05)
(-2.59674e-05 6.17293e-06 -1.02035e-05)
(-1.30623e-06 2.04559e-05 -6.14629e-06)
(-5.13157e-05 2.94702e-06 -1.10977e-05)
(-4.86953e-05 5.60832e-06 -5.72372e-06)
(-1.25165e-05 1.06318e-06 -1.09808e-05)
(-4.40766e-05 1.39371e-05 -6.10517e-06)
(-8.57293e-06 4.96683e-06 -1.10866e-05)
(-8.20301e-06 7.33419e-06 -5.75123e-06)
(-2.95914e-05 2.04289e-05 -7.26658e-06)
(5.20605e-05 3.58883e-05 -7.26242e-06)
(-2.07786e-05 1.29133e-05 -8.99823e-06)
(1.16873e-05 1.09477e-05 -1.07208e-05)
(-7.21845e-06 2.38364e-05 -7.25393e-06)
(-3.66647e-05 1.21279e-06 -1.07466e-05)
(1.89925e-05 3.39426e-05 -7.29454e-06)
(1.89729e-05 3.39237e-05 -7.23773e-06)
(-3.67131e-05 1.21543e-06 -1.06895e-05)
(-7.2706e-06 2.37971e-05 -7.15658e-06)
(6.4817e-05 6.91866e-06 -8.85434e-06)
(5.20389e-05 3.58494e-05 -7.19307e-06)
(-2.96375e-05 2.04194e-05 -7.18025e-06)
(1.16619e-05 1.09454e-05 -1.06826e-05)
(-4.40476e-05 1.39238e-05 -6.15149e-06)
(-5.39002e-05 8.61262e-07 -1.10165e-05)
(-8.55453e-06 4.96061e-06 -1.1108e-05)
(-8.1894e-06 7.33386e-06 -5.76894e-06)
(-5.12838e-05 2.93213e-06 -1.11306e-05)
(-4.86753e-05 5.59769e-06 -5.74478e-06)
(-1.29141e-06 2.04558e-05 -6.17941e-06)
(-1.34452e-06 -2.04458e-05 -5.98957e-06)
(-4.87264e-05 -5.56919e-06 -5.66938e-06)
(-5.13245e-05 -2.91212e-06 -1.1027e-05)
(-1.2548e-05 -1.065e-06 -1.09535e-05)
(-4.40934e-05 -1.38976e-05 -5.96891e-06)
(-8.24579e-06 -7.32621e-06 -5.68953e-06)
(-8.60304e-06 -4.956e-06 -1.10014e-05)
(-2.96157e-05 -2.03759e-05 -6.91278e-06)
(5.20516e-05 -3.5841e-05 -6.84224e-06)
(-2.07521e-05 -1.29315e-05 -8.82159e-06)
(1.16814e-05 -1.09249e-05 -1.04895e-05)
(-3.66626e-05 -1.19028e-06 -1.05564e-05)
(-7.23041e-06 -2.382e-05 -6.90545e-06)
(1.8977e-05 -3.38906e-05 -6.89488e-06)
(1.90135e-05 -3.39367e-05 -6.92054e-06)
(-3.66258e-05 -1.21384e-06 -1.05481e-05)
(-7.15573e-06 -2.38665e-05 -6.87386e-06)
(6.48702e-05 -6.9459e-06 -8.71065e-06)
(-2.95567e-05 -2.04242e-05 -6.89545e-06)
(1.17034e-05 -1.09457e-05 -1.05223e-05)
(5.20978e-05 -3.58796e-05 -6.8886e-06)
(-4.4121e-05 -1.38697e-05 -5.97399e-06)
(-5.39406e-05 -8.48456e-07 -1.09837e-05)
(-8.24863e-06 -7.31506e-06 -5.68993e-06)
(-8.60165e-06 -4.94191e-06 -1.09844e-05)
(-4.87364e-05 -5.56128e-06 -5.67386e-06)
(-5.13293e-05 -2.89862e-06 -1.10305e-05)
(-1.35657e-06 -2.04189e-05 -5.97873e-06)
(1.33511e-06 2.04317e-05 -6.19153e-06)
(5.13031e-05 2.93489e-06 -1.11563e-05)
(4.86989e-05 5.58432e-06 -5.78313e-06)
(1.25217e-05 1.06282e-06 -1.10328e-05)