/*--------------------------------*- C++ -*----------------------------------*\
| =========                 |                                                 |
| \\      /  F ield         | OpenFOAM: The Open Source CFD Toolbox           |
|  \\    /   O peration     | Version:  2206                                  |
|   \\  /    A nd           | Website:  www.openfoam.com                      |
|    \\/     M anipulation  |                                                 |
\*---------------------------------------------------------------------------*/
FoamFile
{
    version     2.0;
    format      ascii;
    arch        "LSB;label=32;scalar=64";
    class       volScalarField;
    location    "20";
    object      epsilon;
}
// * * * * * * * * * * * * * * * * * * * * * * * * * * * * * * * * * * * * * //

dimensions      [0 2 -3 0 0 0 0];

internalField   nonuniform List<scalar> 
28897
(
3.34222e-07
3.54538e-07
3.54541e-07
3.82641e-07
3.34224e-07
3.54541e-07
3.54544e-07
3.82649e-07
3.34222e-07
3.54542e-07
3.54544e-07
3.82658e-07
3.34217e-07
3.54542e-07
3.54543e-07
3.8266e-07
3.34134e-07
3.54484e-07
3.54468e-07
3.82626e-07
3.34051e-07
3.5439e-07
3.54395e-07
3.82515e-07
3.34049e-07
3.54388e-07
3.54395e-07
3.82532e-07
3.34049e-07
3.54387e-07
3.54394e-07
3.82525e-07
3.34049e-07
3.54387e-07
3.54394e-07
3.82529e-07
3.34049e-07
3.54387e-07
3.54394e-07
3.82529e-07
3.34049e-07
3.54387e-07
3.54394e-07
3.82528e-07
3.34049e-07
3.54387e-07
3.54395e-07
3.82528e-07
3.34049e-07
3.54386e-07
3.54395e-07
3.82528e-07
3.34049e-07
3.54386e-07
3.54394e-07
3.82528e-07
3.34049e-07
3.54386e-07
3.54394e-07
3.82528e-07
3.34049e-07
3.54386e-07
3.54394e-07
3.82528e-07
3.34049e-07
3.54386e-07
3.54394e-07
3.82528e-07
3.34052e-07
3.54389e-07
3.54397e-07
3.82528e-07
3.8241e-07
3.5455e-07
3.54553e-07
3.82408e-07
3.54537e-07
3.54561e-07
3.54538e-07
3.54552e-07
3.82419e-07
3.5454e-07
3.5454e-07
3.82416e-07
3.82638e-07
3.82419e-07
3.54553e-07
3.54556e-07
3.54553e-07
3.54556e-07
3.82639e-07
3.82419e-07
3.54541e-07
3.54564e-07
3.5454e-07
3.54564e-07
3.54555e-07
3.54541e-07
3.54554e-07
3.82646e-07
3.82427e-07
3.54543e-07
3.54544e-07
3.54543e-07
3.82425e-07
3.82646e-07
3.82428e-07
3.54556e-07
3.5456e-07
3.54555e-07
3.5456e-07
3.82646e-07
3.82426e-07
3.54544e-07
3.54567e-07
3.54543e-07
3.54566e-07
3.54558e-07
3.54542e-07
3.54557e-07
3.82654e-07
3.82436e-07
3.54547e-07
3.54545e-07
3.54546e-07
3.82434e-07
3.82654e-07
3.82431e-07
3.54558e-07
3.54563e-07
3.54554e-07
3.54561e-07
3.82653e-07
3.82428e-07
3.54545e-07
3.54569e-07
3.54541e-07
3.54564e-07
3.5456e-07
3.54542e-07
3.54555e-07
3.82661e-07
3.82438e-07
3.54549e-07
3.54543e-07
3.54544e-07
3.82438e-07
3.82657e-07
3.82408e-07
3.54553e-07
3.5456e-07
3.54517e-07
3.54526e-07
3.82655e-07
3.82414e-07
3.54541e-07
3.54564e-07
3.54505e-07
3.54528e-07
3.54555e-07
3.5452e-07
3.54522e-07
3.82663e-07
3.82416e-07
3.54544e-07
3.54508e-07
3.54508e-07
3.82417e-07
3.8262e-07
3.8229e-07
3.54478e-07
3.54488e-07
3.54409e-07
3.54414e-07
3.8263e-07
3.8229e-07
3.54466e-07
3.54489e-07
3.54396e-07
3.5442e-07
3.54483e-07
3.54399e-07
3.54411e-07
3.82627e-07
3.82298e-07
3.54468e-07
3.544e-07
3.54399e-07
3.82295e-07
3.82513e-07
3.823e-07
3.54406e-07
3.5441e-07
3.54404e-07
3.54407e-07
3.8251e-07
3.82291e-07
3.54394e-07
3.54417e-07
3.54391e-07
3.54415e-07
3.54409e-07
3.54388e-07
3.54406e-07
3.8252e-07
3.82309e-07
3.54396e-07
3.54395e-07
3.54394e-07
3.82307e-07
3.82528e-07
3.82299e-07
3.54407e-07
3.5441e-07
3.54403e-07
3.54407e-07
3.8252e-07
3.82294e-07
3.54394e-07
3.54418e-07
3.54391e-07
3.54414e-07
3.54408e-07
3.54387e-07
3.54405e-07
3.82536e-07
3.82307e-07
3.54397e-07
3.54394e-07
3.54393e-07
3.82303e-07
3.82523e-07
3.82301e-07
3.54405e-07
3.54408e-07
3.54403e-07
3.54406e-07
3.82519e-07
3.82293e-07
3.54392e-07
3.54416e-07
3.5439e-07
3.54414e-07
3.54407e-07
3.54387e-07
3.54405e-07
3.82531e-07
3.82309e-07
3.54395e-07
3.54394e-07
3.54393e-07
3.82307e-07
3.82528e-07
3.82298e-07
3.54405e-07
3.54408e-07
3.54403e-07
3.54406e-07
3.82521e-07
3.8229e-07
3.54392e-07
3.54416e-07
3.5439e-07
3.54414e-07
3.54407e-07
3.54387e-07
3.54405e-07
3.82535e-07
3.82307e-07
3.54395e-07
3.54394e-07
3.54393e-07
3.82306e-07
3.82525e-07
3.82298e-07
3.54405e-07
3.54409e-07
3.54402e-07
3.54406e-07
3.82518e-07
3.82292e-07
3.54393e-07
3.54416e-07
3.5439e-07
3.54414e-07
3.54407e-07
3.54387e-07
3.54405e-07
3.82533e-07
3.82307e-07
3.54395e-07
3.54394e-07
3.54393e-07
3.82306e-07
3.82524e-07
3.82299e-07
3.54405e-07
3.54408e-07
3.54403e-07
3.54406e-07
3.82518e-07
3.82293e-07
3.54393e-07
3.54416e-07
3.54391e-07
3.54414e-07
3.54407e-07
3.54387e-07
3.54405e-07
3.82532e-07
3.82307e-07
3.54395e-07
3.54395e-07
3.54393e-07
3.82305e-07
3.82524e-07
3.82299e-07
3.54405e-07
3.54408e-07
3.54403e-07
3.54406e-07
3.82518e-07
3.82293e-07
3.54393e-07
3.54416e-07
3.54391e-07
3.54414e-07
3.54407e-07
3.54386e-07
3.54405e-07
3.82532e-07
3.82308e-07
3.54395e-07
3.54395e-07
3.54393e-07
3.82305e-07
3.82524e-07
3.82299e-07
3.54405e-07
3.54408e-07
3.54403e-07
3.54406e-07
3.82518e-07
3.82293e-07
3.54393e-07
3.54416e-07
3.54391e-07
3.54414e-07
3.54407e-07
3.54386e-07
3.54405e-07
3.82532e-07
3.82307e-07
3.54395e-07
3.54395e-07
3.54393e-07
3.82305e-07
3.82524e-07
3.82299e-07
3.54405e-07
3.54408e-07
3.54403e-07
3.54406e-07
3.82518e-07
3.82293e-07
3.54394e-07
3.54416e-07
3.54391e-07
3.54414e-07
3.54407e-07
3.54386e-07
3.54405e-07
3.82532e-07
3.82307e-07
3.54395e-07
3.54394e-07
3.54393e-07
3.82305e-07
3.82524e-07
3.82299e-07
3.54405e-07
3.54408e-07
3.54403e-07
3.54406e-07
3.82518e-07
3.82292e-07
3.54393e-07
3.54416e-07
3.54391e-07
3.54414e-07
3.54407e-07
3.54386e-07
3.54405e-07
3.82531e-07
3.82307e-07
3.54395e-07
3.54394e-07
3.54393e-07
3.82305e-07
3.82524e-07
3.82299e-07
3.54404e-07
3.54408e-07
3.54402e-07
3.54406e-07
3.82518e-07
3.82293e-07
3.54393e-07
3.54416e-07
3.54391e-07
3.54414e-07
3.54407e-07
3.54386e-07
3.54405e-07
3.82531e-07
3.82308e-07
3.54395e-07
3.54394e-07
3.54393e-07
3.82305e-07
3.82524e-07
3.82299e-07
3.54405e-07
3.54408e-07
3.54403e-07
3.54406e-07
3.82518e-07
3.82293e-07
3.54393e-07
3.54416e-07
3.54391e-07
3.54414e-07
3.54407e-07
3.54387e-07
3.54405e-07
3.82532e-07
3.82307e-07
3.54395e-07
3.54395e-07
3.54393e-07
3.82305e-07
3.82524e-07
3.54405e-07
3.54408e-07
3.82518e-07
3.54394e-07
3.54416e-07
3.54408e-07
3.82532e-07
3.54396e-07
3.34222e-07
3.34224e-07
3.34226e-07
3.34225e-07
1.65823e-06
8.55096e-06
1.65866e-06
8.55038e-06
2.42403e-05
2.42377e-05
1.65812e-06
8.55278e-06
1.65848e-06
8.55221e-06
3.34228e-07
3.3423e-07
3.34229e-07
3.34224e-07
3.34227e-07
3.34229e-07
3.34228e-07
5.83646e-07
1.32735e-06
3.40472e-07
3.54541e-07
5.83774e-07
1.32676e-06
3.40475e-07
2.42402e-05
2.4238e-05
5.83659e-07
3.40473e-07
1.32733e-06
3.54544e-07
5.83779e-07
3.40475e-07
1.32675e-06
2.76184e-06
2.76277e-06
3.82421e-07
2.76155e-06
2.76236e-06
1.65825e-06
8.55058e-06
1.65874e-06
8.55009e-06
2.42363e-05
2.42353e-05
1.6581e-06
8.55238e-06
1.65855e-06
8.55191e-06
3.34227e-07
3.34229e-07
3.34228e-07
3.34223e-07
3.34225e-07
3.34227e-07
3.34226e-07
5.83665e-07
1.32746e-06
3.40474e-07
3.54544e-07
5.83791e-07
1.32684e-06
3.40478e-07
2.4237e-05
2.42359e-05
5.8368e-07
3.40475e-07
1.3274e-06
3.54547e-07
5.83808e-07
3.40478e-07
1.3268e-06
2.76223e-06
2.7629e-06
3.8243e-07
2.76186e-06
2.7625e-06
1.65822e-06
8.55042e-06
1.6587e-06
8.54999e-06
2.42352e-05
2.42349e-05
1.65807e-06
8.55221e-06
1.6585e-06
8.5518e-06
3.34225e-07
3.34226e-07
3.34225e-07
3.34218e-07
3.34222e-07
3.34222e-07
3.34222e-07
5.83685e-07
1.32749e-06
3.40476e-07
3.54544e-07
5.83811e-07
1.32685e-06
3.40476e-07
2.42363e-05
2.42359e-05
5.83682e-07
3.40475e-07
1.32741e-06
3.54545e-07
5.83818e-07
3.40475e-07
1.3268e-06
2.76239e-06
2.76299e-06
3.82437e-07
2.76197e-06
2.76256e-06
1.65842e-06
8.55069e-06
1.65871e-06
8.55095e-06
2.42363e-05
2.42371e-05
1.65827e-06
8.55247e-06
1.6585e-06
8.55277e-06
3.34221e-07
3.34221e-07
3.3422e-07
3.34177e-07
3.34184e-07
3.3418e-07
3.34179e-07
5.83703e-07
1.3275e-06
3.40472e-07
3.5454e-07
5.83823e-07
1.32693e-06
3.40469e-07
2.42379e-05
2.42384e-05
5.83703e-07
3.4047e-07
1.32745e-06
3.54541e-07
5.83819e-07
3.40467e-07
1.32696e-06
2.76238e-06
2.76302e-06
3.82435e-07
2.76211e-06
2.76275e-06
1.65858e-06
8.55314e-06
1.65918e-06
8.55288e-06
2.42383e-05
2.42378e-05
1.65843e-06
8.55491e-06
1.65897e-06
8.55467e-06
3.34141e-07
3.34136e-07
3.34136e-07
3.34057e-07
3.34059e-07
3.34059e-07
3.34058e-07
5.83651e-07
1.32776e-06
3.40398e-07
3.54449e-07
5.83832e-07
1.32708e-06
3.40364e-07
2.42393e-05
2.42386e-05
5.83632e-07
3.40391e-07
1.32768e-06
3.54438e-07
5.83812e-07
3.40359e-07
1.32699e-06
2.76276e-06
2.76329e-06
3.82342e-07
2.76208e-06
2.76261e-06
1.65845e-06
8.55322e-06
1.65895e-06
8.55277e-06
2.42379e-05
2.42374e-05
1.6583e-06
8.55501e-06
1.65875e-06
8.55459e-06
3.34055e-07
3.34057e-07
3.34055e-07
3.3405e-07
3.34051e-07
3.34053e-07
3.34052e-07
5.83602e-07
1.32761e-06
3.40312e-07
3.5439e-07
5.83742e-07
1.32694e-06
3.40313e-07
2.42389e-05
2.42383e-05
5.83596e-07
3.40313e-07
1.32752e-06
3.54397e-07
5.83733e-07
3.40315e-07
1.32689e-06
2.76231e-06
2.76289e-06
3.82297e-07
2.76181e-06
2.76242e-06
1.65844e-06
8.55316e-06
1.65893e-06
8.55275e-06
2.42378e-05
2.42374e-05
1.65829e-06
8.55496e-06
1.65872e-06
8.55456e-06
3.34054e-07
3.34056e-07
3.34054e-07
3.34049e-07
3.34051e-07
3.34053e-07
3.34052e-07
5.83603e-07
1.32757e-06
3.40311e-07
3.54389e-07
5.83736e-07
1.32692e-06
3.40313e-07
2.42389e-05
2.42383e-05
5.83597e-07
3.40312e-07
1.32749e-06
3.54396e-07
5.83731e-07
3.40314e-07
1.32688e-06
2.76226e-06
2.76286e-06
3.8231e-07
2.7618e-06
2.76241e-06
1.65844e-06
8.55316e-06
1.65893e-06
8.55275e-06
2.42378e-05
2.42374e-05
1.65829e-06
8.55495e-06
1.65872e-06
8.55456e-06
3.34053e-07
3.34055e-07
3.34054e-07
3.34049e-07
3.34051e-07
3.34053e-07
3.34052e-07
5.83602e-07
1.32757e-06
3.4031e-07
3.54389e-07
5.83735e-07
1.32692e-06
3.40312e-07
2.42389e-05
2.42383e-05
5.83596e-07
3.40311e-07
1.32749e-06
3.54396e-07
5.8373e-07
3.40314e-07
1.32688e-06
2.76226e-06
2.76286e-06
3.82304e-07
2.7618e-06
2.76241e-06
1.65844e-06
8.55316e-06
1.65893e-06
8.55274e-06
2.42378e-05
2.42374e-05
1.65829e-06
8.55495e-06
1.65872e-06
8.55456e-06
3.34053e-07
3.34055e-07
3.34054e-07
3.34049e-07
3.34051e-07
3.34053e-07
3.34052e-07
5.83602e-07
1.32757e-06
3.4031e-07
3.54389e-07
5.83736e-07
1.32692e-06
3.40312e-07
2.42389e-05
2.42383e-05
5.83596e-07
3.40311e-07
1.32749e-06
3.54396e-07
5.83731e-07
3.40314e-07
1.32688e-06
2.76226e-06
2.76286e-06
3.82303e-07
2.7618e-06
2.76241e-06
1.65844e-06
8.55315e-06
1.65893e-06
8.55273e-06
2.42378e-05
2.42375e-05
1.65829e-06
8.55496e-06
1.65872e-06
8.55456e-06
3.34053e-07
3.34055e-07
3.34054e-07
3.34049e-07
3.34051e-07
3.34053e-07
3.34052e-07
5.83602e-07
1.32757e-06
3.4031e-07
3.54389e-07
5.83735e-07
1.32692e-06
3.40312e-07
2.42389e-05
2.42383e-05
5.83596e-07
3.40312e-07
1.32749e-06
3.54396e-07
5.8373e-07
3.40314e-07
1.32688e-06
2.76226e-06
2.76286e-06
3.82305e-07
2.7618e-06
2.76241e-06
1.65844e-06
8.55322e-06
1.65893e-06
8.55281e-06
2.42384e-05
2.42379e-05
1.65829e-06
8.55495e-06
1.65872e-06
8.55443e-06
3.34053e-07
3.34055e-07
3.34054e-07
3.34049e-07
3.34051e-07
3.34053e-07
3.34052e-07
5.83602e-07
1.32757e-06
3.4031e-07
3.54389e-07
5.83736e-07
1.32692e-06
3.40312e-07
2.42389e-05
2.42383e-05
5.83596e-07
3.40312e-07
1.32749e-06
3.54396e-07
5.8373e-07
3.40314e-07
1.32688e-06
2.76226e-06
2.76286e-06
3.82305e-07
2.7618e-06
2.76241e-06
1.65844e-06
8.55322e-06
1.65893e-06
8.55288e-06
2.42384e-05
2.42382e-05
1.65829e-06
8.55483e-06
1.65872e-06
8.55441e-06
3.34053e-07
3.34055e-07
3.34054e-07
3.34049e-07
3.34051e-07
3.34053e-07
3.34052e-07
5.83602e-07
1.32757e-06
3.4031e-07
3.54388e-07
5.83736e-07
1.32692e-06
3.40312e-07
2.42389e-05
2.42383e-05
5.83601e-07
3.40312e-07
1.32749e-06
3.54397e-07
5.83735e-07
3.40314e-07
1.32688e-06
2.76226e-06
2.76286e-06
3.82305e-07
2.7618e-06
2.76241e-06
1.65844e-06
8.5533e-06
1.65893e-06
8.55294e-06
2.42386e-05
2.42382e-05
1.65829e-06
8.5548e-06
1.65872e-06
8.55439e-06
3.34053e-07
3.34055e-07
3.34054e-07
3.34049e-07
3.34051e-07
3.34053e-07
3.34052e-07
5.83602e-07
1.32757e-06
3.4031e-07
3.54388e-07
5.83736e-07
1.32692e-06
3.40312e-07
2.42389e-05
2.42383e-05
5.83605e-07
3.40312e-07
1.32749e-06
3.54396e-07
5.83741e-07
3.40314e-07
1.32688e-06
2.76226e-06
2.76286e-06
3.82305e-07
2.7618e-06
2.76241e-06
1.65844e-06
8.55335e-06
1.65893e-06
8.55298e-06
2.42386e-05
2.42382e-05
1.65829e-06
8.55477e-06
1.65872e-06
8.55437e-06
3.34053e-07
3.34055e-07
3.34054e-07
3.34049e-07
3.34051e-07
3.34053e-07
3.34052e-07
5.83602e-07
1.32757e-06
3.4031e-07
3.54388e-07
5.83735e-07
1.32692e-06
3.40312e-07
2.42389e-05
2.42383e-05
5.83607e-07
3.40312e-07
1.32749e-06
3.54396e-07
5.83744e-07
3.40314e-07
1.32688e-06
2.76226e-06
2.76286e-06
3.82305e-07
2.7618e-06
2.76241e-06
1.65844e-06
8.55337e-06
1.65893e-06
8.55299e-06
2.42385e-05
2.42381e-05
1.65829e-06
8.55477e-06
1.65872e-06
8.55438e-06
3.34053e-07
3.34055e-07
3.34054e-07
3.34049e-07
3.34051e-07
3.34053e-07
3.34052e-07
5.83602e-07
1.32757e-06
3.4031e-07
3.54388e-07
5.83736e-07
1.32692e-06
3.40312e-07
2.42389e-05
2.42383e-05
5.83608e-07
3.40312e-07
1.32749e-06
3.54396e-07
5.83745e-07
3.40314e-07
1.32688e-06
2.76226e-06
2.76286e-06
3.82305e-07
2.7618e-06
2.76241e-06
1.65844e-06
8.55337e-06
1.65893e-06
8.55299e-06
2.42385e-05
2.42381e-05
1.65829e-06
8.55478e-06
1.65872e-06
8.55439e-06
3.34053e-07
3.34055e-07
3.34054e-07
3.34049e-07
3.34051e-07
3.34053e-07
3.34052e-07
5.83602e-07
1.32757e-06
3.4031e-07
3.54388e-07
5.83736e-07
1.32692e-06
3.40312e-07
2.42389e-05
2.42383e-05
5.83608e-07
3.40311e-07
1.32749e-06
3.54396e-07
5.83745e-07
3.40313e-07
1.32688e-06
2.76226e-06
2.76286e-06
3.82305e-07
2.7618e-06
2.76241e-06
1.65844e-06
8.55337e-06
1.65893e-06
8.55299e-06
2.42385e-05
2.42381e-05
1.65829e-06
8.55479e-06
1.65872e-06
8.55439e-06
3.34053e-07
3.34055e-07
3.34054e-07
3.3405e-07
3.34051e-07
3.34053e-07
3.34052e-07
5.83602e-07
1.32757e-06
3.4031e-07
3.54388e-07
5.83735e-07
1.32692e-06
3.40312e-07
2.42389e-05
2.42383e-05
5.83608e-07
3.40311e-07
1.32749e-06
3.54396e-07
5.83745e-07
3.40313e-07
1.32688e-06
2.76226e-06
2.76286e-06
3.82305e-07
2.76179e-06
2.76241e-06
8.55338e-06
1.65892e-06
2.42385e-05
8.55479e-06
1.65872e-06
3.34054e-07
3.34056e-07
3.34054e-07
1.32756e-06
3.40313e-07
5.83735e-07
2.42389e-05
3.40314e-07
1.32749e-06
5.83745e-07
2.76226e-06
2.76286e-06
2.42374e-05
2.42404e-05
2.42407e-05
2.42434e-05
3.82622e-07
2.76169e-06
2.76223e-06
2.762e-06
2.76252e-06
1.65857e-06
8.55061e-06
8.55155e-06
1.65815e-06
1.65858e-06
8.5515e-06
8.55235e-06
1.65816e-06
5.83773e-07
3.5455e-07
1.32675e-06
3.40474e-07
1.32732e-06
3.40475e-07
5.83646e-07
5.83772e-07
3.54553e-07
1.32677e-06
3.40475e-07
1.32731e-06
3.40475e-07
5.83645e-07
2.42406e-05
2.76193e-06
2.76134e-06
2.42384e-05
1.65835e-06
8.55245e-06
8.55335e-06
1.65802e-06
5.83776e-07
3.54538e-07
1.32682e-06
3.40473e-07
1.32736e-06
3.40474e-07
5.83654e-07
1.65835e-06
8.55219e-06
8.55312e-06
1.65804e-06
5.83775e-07
3.54561e-07
3.40476e-07
1.327e-06
3.40477e-07
1.32757e-06
5.83652e-07
1.32669e-06
3.40472e-07
3.40472e-07
5.83639e-07
8.55126e-06
1.65809e-06
3.54552e-07
3.40474e-07
1.32662e-06
3.40474e-07
5.83644e-07
8.55176e-06
1.65809e-06
2.42401e-05
2.42431e-05
3.8263e-07
2.76235e-06
2.76166e-06
2.76266e-06
2.76195e-06
2.42398e-05
2.42426e-05
5.83765e-07
3.54541e-07
3.40473e-07
1.3267e-06
3.40474e-07
1.32723e-06
5.83641e-07
5.83777e-07
3.5454e-07
3.40474e-07
1.32683e-06
3.40474e-07
1.32738e-06
5.83648e-07
1.65834e-06
8.55216e-06
8.55304e-06
1.65803e-06
1.65834e-06
8.55258e-06
8.55346e-06
1.65802e-06
3.82627e-07
2.7613e-06
2.76229e-06
2.76258e-06
2.42403e-05
2.42408e-05
2.42437e-05
2.42376e-05
2.42352e-05
2.42406e-05
2.42385e-05
2.76226e-06
2.76266e-06
3.82416e-07
2.7618e-06
2.76227e-06
2.4234e-05
2.42356e-05
2.42372e-05
2.42386e-05
3.82643e-07
2.76189e-06
2.76233e-06
2.76233e-06
2.76269e-06
1.65825e-06
8.55172e-06
1.65865e-06
8.55125e-06
5.83663e-07
1.3274e-06
3.40478e-07
3.54553e-07
5.83786e-07
1.3268e-06
3.40478e-07
5.83663e-07
1.32739e-06
3.40478e-07
3.54556e-07
5.83784e-07
1.32683e-06
3.40478e-07
1.6587e-06
8.5502e-06
8.55064e-06
1.65826e-06
1.65873e-06
8.55108e-06
8.55149e-06
1.65827e-06
5.83802e-07
3.54552e-07
1.32683e-06
3.40477e-07
1.32745e-06
3.40477e-07
5.83678e-07
5.83803e-07
3.54555e-07
1.32686e-06
3.40477e-07
1.32743e-06
3.40477e-07
5.83678e-07
2.76241e-06
2.76203e-06
3.82417e-07
2.76209e-06
2.76172e-06
2.42386e-05
2.42357e-05
2.42362e-05
2.42379e-05
3.82645e-07
2.76216e-06
2.76179e-06
2.76252e-06
2.76224e-06
2.4234e-05
2.4236e-05
5.83674e-07
1.32744e-06
3.40477e-07
3.54541e-07
5.83791e-07
1.32687e-06
3.40477e-07
1.65814e-06
8.55245e-06
1.65849e-06
8.55195e-06
5.83671e-07
3.4048e-07
1.32765e-06
3.54564e-07
5.83791e-07
3.4048e-07
1.32705e-06
1.65854e-06
8.55202e-06
8.55245e-06
1.65812e-06
5.8381e-07
3.5454e-07
1.3269e-06
3.40476e-07
1.32748e-06
3.40475e-07
5.83687e-07
1.65856e-06
8.55178e-06
8.55222e-06
1.65814e-06
5.8381e-07
3.54563e-07
3.40479e-07
1.32708e-06
3.40479e-07
1.32769e-06
5.83684e-07
1.65817e-06
8.55155e-06
1.65858e-06
8.55103e-06
5.83651e-07
3.40477e-07
1.32723e-06
3.54555e-07
5.83779e-07
3.40477e-07
1.32667e-06
1.65817e-06
8.55198e-06
1.65858e-06
8.55152e-06
5.83783e-07
3.54541e-07
1.32681e-06
3.40474e-07
1.32741e-06
3.40474e-07
5.83656e-07
1.65865e-06
8.55083e-06
8.55129e-06
1.65822e-06
5.83787e-07
3.54554e-07
3.40475e-07
1.32672e-06
3.40475e-07
1.32729e-06
5.83662e-07
1.65865e-06
8.55135e-06
8.55176e-06
1.65821e-06
2.76294e-06
2.76211e-06
3.82424e-07
2.76252e-06
2.76172e-06
2.42397e-05
2.42376e-05
2.42366e-05
2.42383e-05
3.82651e-07
2.76261e-06
2.7618e-06
2.76304e-06
2.76216e-06
2.42363e-05
2.42378e-05
5.83668e-07
3.40478e-07
1.32745e-06
3.54543e-07
5.83792e-07
3.40478e-07
1.32688e-06
1.65813e-06
8.55238e-06
1.65848e-06
8.5519e-06
1.65812e-06
8.5528e-06
1.65847e-06
8.55233e-06
5.83798e-07
3.54544e-07
3.40475e-07
1.32679e-06
3.40475e-07
1.32736e-06
5.83672e-07
5.83812e-07
3.54542e-07
3.40477e-07
1.32692e-06
3.40477e-07
1.3275e-06
5.83683e-07
1.65855e-06
8.55173e-06
8.55214e-06
1.65813e-06
1.65855e-06
8.55215e-06
8.55256e-06
1.65812e-06
2.42401e-05
2.42378e-05
2.42407e-05
2.42387e-05
3.82648e-07
2.76174e-06
2.76243e-06
2.76203e-06
2.76279e-06
2.42366e-05
2.42381e-05
2.42374e-05
2.42389e-05
2.42344e-05
2.42332e-05
2.42375e-05
2.42366e-05
2.76242e-06
2.76276e-06
3.82425e-07
2.76197e-06
2.7624e-06
2.4233e-05
2.42339e-05
2.42364e-05
2.4237e-05
3.82653e-07
2.76201e-06
2.76244e-06
2.7625e-06
2.76282e-06
1.65826e-06
8.55134e-06
1.65874e-06
8.55096e-06
5.83689e-07
1.32747e-06
3.4048e-07
3.54556e-07
5.83817e-07
1.32685e-06
3.4048e-07
5.83688e-07
1.32746e-06
3.40481e-07
3.5456e-07
5.83816e-07
1.32688e-06
3.40481e-07
1.6587e-06
8.55001e-06
8.55039e-06
1.65823e-06
1.65872e-06
8.55087e-06
8.55123e-06
1.65825e-06
5.83826e-07
3.54555e-07
1.32685e-06
3.40478e-07
1.32748e-06
3.40479e-07
5.83694e-07
5.83825e-07
3.5456e-07
1.32689e-06
3.40479e-07
1.32748e-06
3.4048e-07
5.83693e-07
2.7626e-06
2.76232e-06
3.82422e-07
2.76224e-06
2.76188e-06
2.42344e-05
2.42329e-05
2.42348e-05
2.42357e-05
3.82651e-07
2.76231e-06
2.76195e-06
2.76268e-06
2.76241e-06
2.42325e-05
2.42335e-05
5.83696e-07
1.32751e-06
3.40479e-07
3.54544e-07
5.83822e-07
1.32691e-06
3.40479e-07
1.65811e-06
8.55206e-06
1.65854e-06
8.55166e-06
5.83693e-07
3.40483e-07
1.32772e-06
3.54567e-07
5.83821e-07
3.40483e-07
1.32709e-06
1.6585e-06
8.55182e-06
8.55219e-06
1.65808e-06
5.83831e-07
3.54543e-07
1.32692e-06
3.40478e-07
1.32752e-06
3.40478e-07
5.83702e-07
1.65852e-06
8.55158e-06
8.55196e-06
1.6581e-06
5.83829e-07
3.54566e-07
3.4048e-07
1.3271e-06
3.40482e-07
1.32773e-06
5.83699e-07
1.65824e-06
8.55111e-06
1.65869e-06
8.55069e-06
5.83672e-07
3.40477e-07
1.32733e-06
3.54558e-07
5.83798e-07
3.40477e-07
1.32676e-06
1.65824e-06
8.55161e-06
1.65869e-06
8.55125e-06
5.83801e-07
3.54544e-07
1.32685e-06
3.40477e-07
1.32747e-06
3.40477e-07
5.83676e-07
1.6587e-06
8.5506e-06
8.55098e-06
1.65825e-06
5.83807e-07
3.54557e-07
3.40477e-07
1.32678e-06
3.40476e-07
1.32736e-06
5.83682e-07
1.6587e-06
8.5512e-06
8.55153e-06
1.65825e-06
2.76313e-06
2.76223e-06
3.82433e-07
2.76268e-06
2.76186e-06
2.42367e-05
2.42356e-05
2.42357e-05
2.42366e-05
3.8266e-07
2.76273e-06
2.7619e-06
2.7632e-06
2.76229e-06
2.42354e-05
2.42361e-05
5.83692e-07
3.4048e-07
1.32753e-06
3.54547e-07
5.83824e-07
3.4048e-07
1.32693e-06
1.6581e-06
8.55198e-06
1.65853e-06
8.55161e-06
1.6581e-06
8.5524e-06
1.65853e-06
8.55203e-06
5.83817e-07
3.54547e-07
3.40477e-07
1.3268e-06
3.40477e-07
1.3274e-06
5.83685e-07
5.83833e-07
3.54546e-07
3.40478e-07
1.32693e-06
3.40479e-07
1.32754e-06
5.83699e-07
1.65851e-06
8.55153e-06
8.55188e-06
1.65809e-06
1.65851e-06
8.55194e-06
8.5523e-06
1.65808e-06
2.42369e-05
2.42358e-05
2.42378e-05
2.42367e-05
3.82657e-07
2.76193e-06
2.76254e-06
2.76231e-06
2.76293e-06
2.42355e-05
2.42363e-05
2.42365e-05
2.42372e-05
2.42338e-05
2.42332e-05
2.42369e-05
2.42366e-05
2.76253e-06
2.76285e-06
3.8243e-07
2.76205e-06
2.76246e-06
2.42342e-05
2.42341e-05
2.42375e-05
2.42372e-05
3.82657e-07
2.76201e-06
2.76242e-06
2.76253e-06
2.76285e-06
1.65824e-06
8.55114e-06
1.6587e-06
8.55082e-06
5.83691e-07
1.32749e-06
3.40477e-07
3.54558e-07
5.83829e-07
1.32686e-06
3.40475e-07
5.83689e-07
1.32748e-06
3.40478e-07
3.54563e-07
5.83829e-07
1.32689e-06
3.40476e-07
1.65869e-06
8.55015e-06
8.55032e-06
1.65821e-06
1.6587e-06
8.55078e-06
8.55111e-06
1.65822e-06
5.83825e-07
3.54554e-07
1.32688e-06
3.40472e-07
1.32749e-06
3.40472e-07
5.83689e-07
5.83823e-07
3.54562e-07
1.32689e-06
3.40472e-07
1.32748e-06
3.40473e-07
5.83685e-07
2.76273e-06
2.76246e-06
3.82428e-07
2.76234e-06
2.76199e-06
2.42332e-05
2.42326e-05
2.42355e-05
2.42356e-05
3.82654e-07
2.76231e-06
2.76197e-06
2.76276e-06
2.7625e-06
2.4233e-05
2.42334e-05
5.83697e-07
1.32752e-06
3.40477e-07
3.54545e-07
5.83834e-07
1.32692e-06
3.40475e-07
1.65808e-06
8.5519e-06
1.6585e-06
8.55156e-06
5.83695e-07
3.40479e-07
1.32774e-06
3.54568e-07
5.83833e-07
3.40477e-07
1.3271e-06
1.65848e-06
8.55195e-06
8.55211e-06
1.65806e-06
5.83827e-07
3.54542e-07
1.32694e-06
3.40471e-07
1.32752e-06
3.40471e-07
5.83694e-07
1.6585e-06
8.5517e-06
8.55189e-06
1.65807e-06
5.83827e-07
3.54564e-07
3.40474e-07
1.32712e-06
3.40474e-07
1.32774e-06
5.8369e-07
1.65825e-06
8.5509e-06
1.65871e-06
8.55054e-06
5.83691e-07
3.4048e-07
1.32738e-06
3.5456e-07
5.83818e-07
3.40479e-07
1.32679e-06
1.65824e-06
8.5515e-06
1.65871e-06
8.55122e-06
5.83821e-07
3.54543e-07
1.32685e-06
3.40473e-07
1.32748e-06
3.40474e-07
5.83689e-07
1.65871e-06
8.55052e-06
8.55086e-06
1.65824e-06
5.83825e-07
3.54556e-07
3.40474e-07
1.32681e-06
3.40476e-07
1.3274e-06
5.83692e-07
1.65871e-06
8.55133e-06
8.55152e-06
1.65824e-06
2.76323e-06
2.76232e-06
3.82438e-07
2.76275e-06
2.76193e-06
2.42361e-05
2.42356e-05
2.42369e-05
2.42368e-05
3.82664e-07
2.76271e-06
2.76189e-06
2.76323e-06
2.76232e-06
2.42365e-05
2.42363e-05
5.83695e-07
3.40477e-07
1.32754e-06
3.54548e-07
5.83837e-07
3.40475e-07
1.32694e-06
1.65807e-06
8.55181e-06
1.65848e-06
8.55149e-06
1.65807e-06
8.55223e-06
1.65849e-06
8.55191e-06
5.83816e-07
3.54544e-07
3.40471e-07
1.32682e-06
3.40471e-07
1.3274e-06
5.83682e-07
5.83831e-07
3.54545e-07
3.40471e-07
1.32695e-06
3.40472e-07
1.32754e-06
5.83687e-07
1.65848e-06
8.55162e-06
8.55179e-06
1.65806e-06
1.65849e-06
8.55203e-06
8.5522e-06
1.65805e-06
2.42361e-05
2.42357e-05
2.42372e-05
2.42367e-05
3.82663e-07
2.76192e-06
2.76253e-06
2.76239e-06
2.76296e-06
2.42362e-05
2.42363e-05
2.42377e-05
2.42374e-05
2.42354e-05
2.42357e-05
2.42384e-05
2.42389e-05
2.76257e-06
2.76288e-06
3.82431e-07
2.76225e-06
2.76266e-06
2.42361e-05
2.42366e-05
2.42394e-05
2.42396e-05
3.82656e-07
2.76236e-06
2.76277e-06
2.76284e-06
2.76315e-06
1.65842e-06
8.55112e-06
1.65869e-06
8.55139e-06
5.8371e-07
1.32754e-06
3.40471e-07
3.54551e-07
5.83827e-07
1.32703e-06
3.40468e-07
5.83706e-07
1.32749e-06
3.40472e-07
3.54557e-07
5.83824e-07
1.327e-06
3.40469e-07
1.65901e-06
8.55253e-06
8.5517e-06
1.65868e-06
1.65901e-06
8.55322e-06
8.55203e-06
1.65868e-06
5.83851e-07
3.54543e-07
1.32714e-06
3.40434e-07
1.32772e-06
3.4046e-07
5.837e-07
5.83847e-07
3.54549e-07
1.32715e-06
3.40435e-07
1.32766e-06
3.4046e-07
5.83696e-07
2.76272e-06
2.76246e-06
3.82428e-07
2.7624e-06
2.76206e-06
2.42341e-05
2.42346e-05
2.42379e-05
2.4238e-05
3.82654e-07
2.76261e-06
2.7623e-06
2.7629e-06
2.76266e-06
2.42355e-05
2.42357e-05
5.83715e-07
1.32757e-06
3.4047e-07
3.54539e-07
5.83829e-07
1.32708e-06
3.40468e-07
1.65827e-06
8.55214e-06
1.65849e-06
8.55245e-06
5.83711e-07
3.40473e-07
1.32779e-06
3.54561e-07
5.83827e-07
3.4047e-07
1.32727e-06
1.65881e-06
8.55436e-06
8.55347e-06
1.65853e-06
5.83853e-07
3.5453e-07
1.32719e-06
3.40433e-07
1.32774e-06
3.40459e-07
5.83704e-07
1.6588e-06
8.5541e-06
8.55321e-06
1.65853e-06
5.83851e-07
3.54553e-07
3.40436e-07
1.32738e-06
3.40461e-07
1.32796e-06
5.837e-07
1.65835e-06
8.55087e-06
1.65869e-06
8.5509e-06
5.83707e-07
3.40473e-07
1.32742e-06
3.54553e-07
5.83826e-07
3.40469e-07
1.32692e-06
1.65835e-06
8.55171e-06
1.65869e-06
8.55192e-06
5.83845e-07
3.54535e-07
1.32708e-06
3.40439e-07
1.32761e-06
3.40461e-07
5.83709e-07
1.65893e-06
8.55224e-06
8.55145e-06
1.65867e-06
5.83847e-07
3.54545e-07
3.40436e-07
1.32707e-06
3.40461e-07
1.32758e-06
5.83711e-07
1.65893e-06
8.55351e-06
8.55247e-06
1.65867e-06
2.76326e-06
2.76235e-06
3.82438e-07
2.76294e-06
2.76212e-06
2.42375e-05
2.4238e-05
2.42388e-05
2.42393e-05
3.82662e-07
2.76306e-06
2.76223e-06
2.76353e-06
2.76262e-06
2.42384e-05
2.42387e-05
5.83708e-07
3.40471e-07
1.32758e-06
3.54541e-07
5.83828e-07
3.40468e-07
1.32709e-06
1.65825e-06
8.55202e-06
1.65848e-06
8.55238e-06
1.65825e-06
8.55243e-06
1.65848e-06
8.55278e-06
5.83843e-07
3.54532e-07
3.40434e-07
1.32707e-06
3.40458e-07
1.32761e-06
5.83692e-07
5.83855e-07
3.54533e-07
3.40433e-07
1.3272e-06
3.40459e-07
1.32775e-06
5.83701e-07
1.65879e-06
8.55405e-06
8.55305e-06
1.65852e-06
1.65879e-06
8.55446e-06
8.55345e-06
1.65851e-06
2.42372e-05
2.42379e-05
2.42386e-05
2.42391e-05
3.82659e-07
2.76231e-06
2.76287e-06
2.76264e-06
2.76326e-06
2.42387e-05
2.42387e-05
2.42395e-05
2.42398e-05
2.42368e-05
2.42359e-05
2.42398e-05
2.42391e-05
2.76285e-06
2.76315e-06
3.82336e-07
2.76212e-06
2.76252e-06
2.42357e-05
2.42365e-05
2.4239e-05
2.42396e-05
3.82547e-07
2.76191e-06
2.76237e-06
2.76256e-06
2.76288e-06
1.65859e-06
8.55383e-06
1.65916e-06
8.55372e-06
5.83639e-07
1.32777e-06
3.40393e-07
3.54447e-07
5.83821e-07
1.32706e-06
3.4036e-07
5.83637e-07
1.32776e-06
3.40394e-07
3.54456e-07
5.83818e-07
1.3271e-06
3.4036e-07
1.65902e-06
8.55282e-06
8.55319e-06
1.65848e-06
1.65903e-06
8.55366e-06
8.55401e-06
1.65849e-06
5.83765e-07
3.54422e-07
1.32697e-06
3.40318e-07
1.32767e-06
3.40333e-07
5.8361e-07
5.83762e-07
3.54429e-07
1.32701e-06
3.40319e-07
1.32767e-06
3.40333e-07
5.83608e-07
2.76306e-06
2.76284e-06
3.8235e-07
2.76249e-06
2.76221e-06
2.42363e-05
2.42354e-05
2.42375e-05
2.42383e-05
3.82559e-07
2.76226e-06
2.76194e-06
2.76284e-06
2.76265e-06
2.42352e-05
2.42361e-05
5.83643e-07
1.32779e-06
3.40392e-07
3.54435e-07
5.83826e-07
1.32711e-06
3.40359e-07
1.65844e-06
8.55464e-06
1.65895e-06
8.55446e-06
5.83641e-07
3.40395e-07
1.32802e-06
3.54458e-07
5.83822e-07
3.40361e-07
1.3273e-06
1.65881e-06
8.55463e-06
8.55497e-06
1.65833e-06
5.83767e-07
3.5441e-07
1.32703e-06
3.40317e-07
1.32769e-06
3.40332e-07
5.83615e-07
1.65882e-06
8.5544e-06
8.55477e-06
1.65834e-06
5.83766e-07
3.54433e-07
3.4032e-07
1.32722e-06
3.40334e-07
1.32791e-06
5.83613e-07
1.65865e-06
8.55313e-06
1.65919e-06
8.55338e-06
5.83655e-07
3.40396e-07
1.32768e-06
3.54451e-07
5.83835e-07
3.40362e-07
1.32702e-06
1.65865e-06
8.55421e-06
1.65919e-06
8.55419e-06
5.83773e-07
3.54418e-07
1.32699e-06
3.40318e-07
1.32769e-06
3.40336e-07
5.83614e-07
1.65908e-06
8.55343e-06
8.55374e-06
1.65852e-06
5.83776e-07
3.54425e-07
3.40319e-07
1.32693e-06
3.40334e-07
1.3276e-06
5.83618e-07
1.65908e-06
8.55417e-06
8.55449e-06
1.65852e-06
2.76354e-06
2.76262e-06
3.82344e-07
2.76282e-06
2.76198e-06
2.42389e-05
2.42382e-05
2.42384e-05
2.42392e-05
3.82554e-07
2.76263e-06
2.76182e-06
2.76326e-06
2.76234e-06
2.4238e-05
2.42387e-05
5.83638e-07
3.40392e-07
1.32781e-06
3.54437e-07
5.83829e-07
3.40359e-07
1.32712e-06
1.65843e-06
8.55451e-06
1.65894e-06
8.55436e-06
1.65842e-06
8.55492e-06
1.65894e-06
8.55479e-06
5.83757e-07
3.54413e-07
3.40318e-07
1.32692e-06
3.40333e-07
1.32757e-06
5.83603e-07
5.83768e-07
3.54412e-07
3.40318e-07
1.32705e-06
3.40332e-07
1.32771e-06
5.8361e-07
1.65881e-06
8.55431e-06
8.55464e-06
1.65832e-06
1.65881e-06
8.55474e-06
8.55507e-06
1.65832e-06
2.42392e-05
2.42385e-05
2.424e-05
2.42393e-05
3.82552e-07
2.76187e-06
2.76246e-06
2.76244e-06
2.76298e-06
2.42382e-05
2.4239e-05
2.42391e-05
2.42398e-05
2.42364e-05
2.42356e-05
2.42394e-05
2.42389e-05
2.7624e-06
2.76276e-06
3.82291e-07
2.76186e-06
2.76232e-06
2.42356e-05
2.42363e-05
2.42389e-05
2.42394e-05
3.82521e-07
2.76186e-06
2.76232e-06
2.76238e-06
2.76274e-06
1.65845e-06
8.55393e-06
1.65894e-06
8.5536e-06
5.83602e-07
1.3276e-06
3.40315e-07
3.54406e-07
5.83742e-07
1.32694e-06
3.40314e-07
5.836e-07
1.32759e-06
3.40316e-07
3.54409e-07
5.8374e-07
1.32697e-06
3.40315e-07
1.65891e-06
8.55275e-06
8.55308e-06
1.65844e-06
1.65892e-06
8.55358e-06
8.55388e-06
1.65845e-06
5.83737e-07
3.54404e-07
1.32693e-06
3.40313e-07
1.32758e-06
3.40313e-07
5.83603e-07
5.83736e-07
3.54407e-07
1.32696e-06
3.40313e-07
1.32757e-06
3.40313e-07
5.83601e-07
2.76265e-06
2.7624e-06
3.82281e-07
2.76218e-06
2.76183e-06
2.42359e-05
2.42351e-05
2.42374e-05
2.4238e-05
3.8251e-07
2.76217e-06
2.76181e-06
2.7626e-06
2.76233e-06
2.42351e-05
2.42358e-05
5.83608e-07
1.32763e-06
3.40314e-07
3.54393e-07
5.83745e-07
1.32701e-06
3.40314e-07
1.6583e-06
8.5547e-06
1.65874e-06
8.55435e-06
5.83606e-07
3.40318e-07
1.32785e-06
3.54417e-07
5.83744e-07
3.40317e-07
1.32719e-06
1.65871e-06
8.55457e-06
8.55488e-06
1.65829e-06
5.8374e-07
3.54391e-07
1.327e-06
3.40312e-07
1.32761e-06
3.40312e-07
5.83609e-07
1.65872e-06
8.55433e-06
8.55466e-06
1.6583e-06
5.8374e-07
3.54415e-07
3.40315e-07
1.32718e-06
3.40315e-07
1.32782e-06
5.83606e-07
1.65848e-06
8.55373e-06
1.65897e-06
8.55338e-06
5.83607e-07
3.40315e-07
1.32752e-06
3.54408e-07
5.83747e-07
3.40314e-07
1.32689e-06
1.65847e-06
8.55444e-06
1.65897e-06
8.55413e-06
5.83736e-07
3.54389e-07
1.32692e-06