/*--------------------------------*- C++ -*----------------------------------*\
| =========                 |                                                 |
| \\      /  F ield         | OpenFOAM: The Open Source CFD Toolbox           |
|  \\    /   O peration     | Version:  2206                                  |
|   \\  /    A nd           | Website:  www.openfoam.com                      |
|    \\/     M anipulation  |                                                 |
\*---------------------------------------------------------------------------*/
FoamFile
{
    version     2.0;
    format      ascii;
    arch        "LSB;label=32;scalar=64";
    class       volVectorField;
    location    "20";
    object      U;
}
// * * * * * * * * * * * * * * * * * * * * * * * * * * * * * * * * * * * * * //

dimensions      [0 1 -1 0 0 0 0];

internalField   nonuniform List<vector> 
28897
(
(-6.02372e-07 -5.95712e-07 0.102331)
(-3.90878e-07 6.11471e-07 0.102301)
(6.03549e-07 -3.86523e-07 0.102301)
(-4.09804e-05 -4.09913e-05 0.102257)
(-6.16994e-07 -6.09481e-07 0.102331)
(-3.77961e-07 6.05093e-07 0.102301)
(5.91513e-07 -3.60977e-07 0.102301)
(-4.09619e-05 -4.09727e-05 0.102257)
(-6.21805e-07 -6.1843e-07 0.102331)
(-3.73478e-07 6.07122e-07 0.102301)
(5.86155e-07 -3.46969e-07 0.102301)
(-4.0955e-05 -4.09735e-05 0.102257)
(-5.27296e-07 -5.4272e-07 0.10233)
(-4.18033e-07 6.32049e-07 0.102301)
(7.00207e-07 -5.02524e-07 0.102301)
(-4.10095e-05 -4.10787e-05 0.102256)
(-5.78647e-07 -5.65114e-07 0.102331)
(-4.55764e-07 6.3237e-07 0.102301)
(6.0333e-07 -4.24191e-07 0.102301)
(-4.10477e-05 -4.10317e-05 0.102257)
(-5.97975e-07 -5.90626e-07 0.102331)
(-3.95368e-07 6.03832e-07 0.102301)
(6.04216e-07 -3.96856e-07 0.102301)
(-4.09986e-05 -4.10113e-05 0.102257)
(-5.93717e-07 -5.88883e-07 0.102331)
(-3.95942e-07 6.09609e-07 0.102301)
(6.08596e-07 -3.9814e-07 0.102301)
(-4.10002e-05 -4.10156e-05 0.102257)
(-5.93671e-07 -5.89381e-07 0.102331)
(-3.95405e-07 6.09466e-07 0.102301)
(6.08643e-07 -3.97732e-07 0.102301)
(-4.09994e-05 -4.10153e-05 0.102257)
(-5.93564e-07 -5.89316e-07 0.102331)
(-3.95548e-07 6.09617e-07 0.102301)
(6.08871e-07 -3.98199e-07 0.102301)
(-4.09993e-05 -4.10157e-05 0.102257)
(-5.93314e-07 -5.88965e-07 0.102331)
(-3.94282e-07 6.09675e-07 0.102301)
(6.07209e-07 -3.97839e-07 0.102301)
(-4.09956e-05 -4.10172e-05 0.102257)
(-5.88005e-07 -5.83519e-07 0.102331)
(-3.94102e-07 6.08867e-07 0.102301)
(6.08455e-07 -3.98274e-07 0.102301)
(-4.09981e-05 -4.10169e-05 0.102257)
(-5.95602e-07 -5.86472e-07 0.102331)
(-3.9555e-07 6.21088e-07 0.102301)
(6.08414e-07 -3.96705e-07 0.102301)
(-4.10007e-05 -4.10142e-05 0.102257)
(-5.922e-07 -5.86648e-07 0.102331)
(-3.96854e-07 6.12017e-07 0.102301)
(6.09197e-07 -3.97594e-07 0.102301)
(-4.10011e-05 -4.10154e-05 0.102257)
(-5.91725e-07 -5.87813e-07 0.102331)
(-3.96181e-07 6.1202e-07 0.102301)
(6.09059e-07 -3.97017e-07 0.102301)
(-4.10007e-05 -4.10158e-05 0.102257)
(-5.92024e-07 -5.89304e-07 0.102331)
(-3.96201e-07 6.1133e-07 0.102301)
(6.07997e-07 -3.9662e-07 0.102301)
(-4.09991e-05 -4.10146e-05 0.102257)
(-5.92052e-07 -5.89717e-07 0.102331)
(-3.9584e-07 6.10929e-07 0.102301)
(6.07875e-07 -3.96077e-07 0.102301)
(-4.0997e-05 -4.10128e-05 0.102257)
(-5.92121e-07 -5.89807e-07 0.102331)
(-3.9458e-07 6.10101e-07 0.102301)
(6.07265e-07 -3.94727e-07 0.102301)
(-4.09957e-05 -4.10115e-05 0.102257)
(-5.93318e-07 -5.9077e-07 0.102331)
(-3.91424e-07 6.0918e-07 0.102301)
(6.06446e-07 -3.91498e-07 0.102301)
(-4.09851e-05 -4.10006e-05 0.102257)
(-4.27006e-05 -4.26672e-05 0.102259)
(6.29693e-07 4.13042e-07 0.102301)
(-6.3182e-07 4.16088e-07 0.102301)
(4.26961e-05 -4.26708e-05 0.102259)
(3.9302e-07 6.11797e-07 0.102301)
(4.12031e-07 -6.28343e-07 0.102301)
(-3.94531e-07 6.11116e-07 0.102301)
(-4.10638e-07 -6.25082e-07 0.102301)
(-4.26704e-05 4.27046e-05 0.102259)
(6.08862e-07 -3.93625e-07 0.102301)
(-6.09259e-07 -3.93776e-07 0.102301)
(4.26723e-05 4.26948e-05 0.102259)
(4.09894e-05 4.09663e-05 0.102257)
(-4.27187e-05 -4.26837e-05 0.102259)
(6.23073e-07 4.00097e-07 0.102301)
(-6.39138e-07 4.09381e-07 0.102301)
(6.22223e-07 3.99678e-07 0.102301)
(-6.26283e-07 3.99463e-07 0.102301)
(-4.09896e-05 4.0964e-05 0.102257)
(4.27102e-05 -4.26847e-05 0.102259)
(3.86248e-07 6.06525e-07 0.102301)
(4.00785e-07 -6.22145e-07 0.102301)
(3.7829e-07 6.05784e-07 0.102301)
(3.98684e-07 -6.22019e-07 0.102301)
(-4.03086e-07 -6.18311e-07 0.102301)
(-3.80961e-07 6.02337e-07 0.102301)
(-3.99377e-07 -6.15724e-07 0.102301)
(4.09667e-05 -4.09989e-05 0.102257)
(-4.26871e-05 4.27225e-05 0.102259)
(-6.0404e-07 -3.83174e-07 0.102301)
(6.02591e-07 -3.79206e-07 0.102301)
(-6.03583e-07 -3.78316e-07 0.102301)
(4.26888e-05 4.27099e-05 0.102259)
(4.09688e-05 4.09465e-05 0.102257)
(-4.27403e-05 -4.27102e-05 0.102259)
(6.10686e-07 3.75821e-07 0.102301)
(-6.28884e-07 3.88424e-07 0.102301)
(6.30552e-07 3.95552e-07 0.102301)
(-6.18055e-07 3.89722e-07 0.102301)
(-4.09737e-05 4.09464e-05 0.102257)
(4.27479e-05 -4.27218e-05 0.102259)
(3.61182e-07 5.94147e-07 0.102301)
(3.76887e-07 -6.09443e-07 0.102301)
(3.78989e-07 6.1034e-07 0.102301)
(3.96542e-07 -6.27619e-07 0.102301)
(-3.86183e-07 -6.0816e-07 0.102301)
(-3.63004e-07 5.93978e-07 0.102301)
(-3.89303e-07 -6.21048e-07 0.102301)
(4.09473e-05 -4.09784e-05 0.102257)
(-4.27116e-05 4.27461e-05 0.102259)
(-5.92227e-07 -3.57117e-07 0.102301)
(6.09501e-07 -3.78102e-07 0.102301)
(-6.06625e-07 -3.79324e-07 0.102301)
(4.27168e-05 4.27412e-05 0.102259)
(4.09742e-05 4.09472e-05 0.102257)
(-4.27199e-05 -4.27004e-05 0.102258)
(6.0746e-07 3.59769e-07 0.102301)
(-6.26264e-07 3.82413e-07 0.102301)
(6.67695e-07 4.14901e-07 0.102301)
(-5.70018e-07 3.75558e-07 0.102301)
(-4.09452e-05 4.0922e-05 0.102257)
(4.28241e-05 -4.27748e-05 0.102258)
(3.49102e-07 5.8542e-07 0.102301)
(3.63387e-07 -6.02976e-07 0.102301)
(4.10534e-07 6.30367e-07 0.102301)
(4.24578e-07 -6.53028e-07 0.102301)
(-3.75894e-07 -6.10587e-07 0.102301)
(-3.14179e-07 5.60324e-07 0.102301)
(-3.69286e-07 -6.49118e-07 0.102301)
(4.09507e-05 -4.09812e-05 0.102257)
(-4.26949e-05 4.27328e-05 0.102258)
(-5.84677e-07 -3.45563e-07 0.102301)
(6.37495e-07 -4.04556e-07 0.102301)
(-6.08781e-07 -4.13451e-07 0.102301)
(4.27407e-05 4.27201e-05 0.102258)
(4.10769e-05 4.10384e-05 0.102256)
(-4.26784e-05 -4.26376e-05 0.102259)
(7.33385e-07 5.07192e-07 0.102301)
(-6.34845e-07 4.79057e-07 0.102301)
(6.41726e-07 4.80531e-07 0.102301)
(-7.01475e-07 5.03253e-07 0.102301)
(-4.09275e-05 4.09319e-05 0.102257)
(4.25988e-05 -4.2588e-05 0.102259)
(5.09805e-07 6.92879e-07 0.102301)
(5.19815e-07 -7.1519e-07 0.102301)
(4.55808e-07 6.28904e-07 0.102301)
(4.77036e-07 -6.4475e-07 0.102301)
(-4.71842e-07 -7.27516e-07 0.102301)
(-4.99876e-07 6.67617e-07 0.102301)
(-4.94982e-07 -6.36476e-07 0.102301)
(4.10474e-05 -4.10779e-05 0.102256)
(-4.26424e-05 4.26798e-05 0.102259)
(-6.7379e-07 -5.11124e-07 0.102301)
(6.24442e-07 -4.57163e-07 0.102301)
(-6.33827e-07 -4.54519e-07 0.102301)
(4.26254e-05 4.26778e-05 0.102259)
(4.10338e-05 4.10191e-05 0.102257)
(-4.27265e-05 -4.2691e-05 0.102259)
(6.17652e-07 4.42458e-07 0.102301)
(-6.67653e-07 4.60061e-07 0.102301)
(6.19266e-07 4.14384e-07 0.102301)
(-6.28479e-07 4.16306e-07 0.102301)
(-4.10999e-05 4.10556e-05 0.102257)
(4.27271e-05 -4.26993e-05 0.102259)
(4.23022e-07 6.09995e-07 0.102301)
(4.38892e-07 -6.23033e-07 0.102301)
(3.92043e-07 6.05716e-07 0.102301)
(4.11044e-07 -6.20881e-07 0.102301)
(-4.56354e-07 -6.10911e-07 0.102301)
(-3.95921e-07 6.01119e-07 0.102301)
(-4.13663e-07 -6.14166e-07 0.102301)
(4.10166e-05 -4.10465e-05 0.102257)
(-4.2696e-05 4.27292e-05 0.102259)
(-6.13523e-07 -4.18118e-07 0.102301)
(6.00151e-07 -3.93976e-07 0.102301)
(-6.03981e-07 -3.93052e-07 0.102301)
(4.26967e-05 4.27194e-05 0.102259)
(4.10071e-05 4.09858e-05 0.102257)
(-4.27213e-05 -4.26886e-05 0.102259)
(6.23537e-07 4.11273e-07 0.102301)
(-6.29843e-07 4.15374e-07 0.102301)
(6.28572e-07 4.1464e-07 0.102301)
(-6.33761e-07 4.17483e-07 0.102301)
(-4.09996e-05 4.09753e-05 0.102257)
(4.27223e-05 -4.26935e-05 0.102259)
(3.96666e-07 6.08634e-07 0.102301)
(4.11207e-07 -6.23438e-07 0.102301)
(3.94828e-07 6.10394e-07 0.102301)
(4.1352e-07 -6.27017e-07 0.102301)
(-4.12509e-07 -6.19002e-07 0.102301)
(-3.94764e-07 6.09334e-07 0.102301)
(-4.11379e-07 -6.23723e-07 0.102301)
(4.09851e-05 -4.10174e-05 0.102257)
(-4.26912e-05 4.27257e-05 0.102259)
(-6.06024e-07 -3.93776e-07 0.102301)
(6.07325e-07 -3.95465e-07 0.102301)
(-6.07211e-07 -3.95578e-07 0.102301)
(4.26952e-05 4.27143e-05 0.102259)
(4.10119e-05 4.09887e-05 0.102257)
(-4.27209e-05 -4.26894e-05 0.102259)
(6.29096e-07 4.11849e-07 0.102301)
(-6.3386e-07 4.17305e-07 0.102301)
(6.28818e-07 4.13696e-07 0.102301)
(-6.33762e-07 4.17103e-07 0.102301)
(-4.10047e-05 4.09811e-05 0.102257)
(4.27224e-05 -4.26933e-05 0.102259)
(3.98951e-07 6.11085e-07 0.102301)
(4.13372e-07 -6.26868e-07 0.102301)
(3.94661e-07 6.09758e-07 0.102301)
(4.13394e-07 -6.26966e-07 0.102301)
(-4.11608e-07 -6.24272e-07 0.102301)
(-3.94015e-07 6.09522e-07 0.102301)
(-4.10406e-07 -6.23789e-07 0.102301)
(4.09893e-05 -4.10206e-05 0.102257)
(-4.26907e-05 4.27259e-05 0.102259)
(-6.07495e-07 -3.95548e-07 0.102301)
(6.07798e-07 -3.94959e-07 0.102301)
(-6.06534e-07 -3.95313e-07 0.102301)
(4.26956e-05 4.27143e-05 0.102259)
(4.10113e-05 4.09881e-05 0.102257)
(-4.27207e-05 -4.269e-05 0.102259)
(6.2901e-07 4.11045e-07 0.102301)
(-6.33179e-07 4.16393e-07 0.102301)
(6.28574e-07 4.13484e-07 0.102301)
(-6.34515e-07 4.17639e-07 0.102301)
(-4.10039e-05 4.09801e-05 0.102257)
(4.27218e-05 -4.26931e-05 0.102259)
(3.9847e-07 6.10225e-07 0.102301)
(4.12929e-07 -6.26662e-07 0.102301)
(3.95023e-07 6.09773e-07 0.102301)
(4.13859e-07 -6.27507e-07 0.102301)
(-4.11054e-07 -6.2427e-07 0.102301)
(-3.94736e-07 6.09972e-07 0.102301)
(-4.10908e-07 -6.24158e-07 0.102301)
(4.09892e-05 -4.102e-05 0.102257)
(-4.26904e-05 4.27253e-05 0.102259)
(-6.06904e-07 -3.95519e-07 0.102301)
(6.08177e-07 -3.95489e-07 0.102301)
(-6.06761e-07 -3.95869e-07 0.102301)
(4.26953e-05 4.27139e-05 0.102259)
(4.10114e-05 4.09886e-05 0.102257)
(-4.27213e-05 -4.2692e-05 0.102259)
(6.29393e-07 4.1168e-07 0.102301)
(-6.3335e-07 4.16914e-07 0.102301)
(6.26813e-07 4.12124e-07 0.102301)
(-6.3454e-07 4.18016e-07 0.102301)
(-4.10044e-05 4.09809e-05 0.102257)
(4.2724e-05 -4.26928e-05 0.102259)
(3.98667e-07 6.10035e-07 0.102301)
(4.13367e-07 -6.27099e-07 0.102301)
(3.96053e-07 6.08824e-07 0.102301)
(4.13754e-07 -6.27204e-07 0.102301)
(-4.11213e-07 -6.24258e-07 0.102301)
(-3.9365e-07 6.10387e-07 0.102301)
(-4.12707e-07 -6.24436e-07 0.102301)
(4.09895e-05 -4.10207e-05 0.102257)
(-4.26923e-05 4.27254e-05 0.102259)
(-6.06601e-07 -3.95723e-07 0.102301)
(6.06651e-07 -3.94821e-07 0.102301)
(-6.05049e-07 -3.98155e-07 0.102301)
(4.26991e-05 4.27127e-05 0.102259)
(4.1009e-05 4.09866e-05 0.102257)
(-4.27125e-05 -4.26971e-05 0.102259)
(6.27183e-07 4.11101e-07 0.102301)
(-6.31655e-07 4.19854e-07 0.102301)
(6.27689e-07 4.14417e-07 0.102301)
(-6.32722e-07 4.22759e-07 0.102301)
(-4.10019e-05 4.09823e-05 0.102257)
(4.2723e-05 -4.2689e-05 0.102259)
(4.00974e-07 6.08903e-07 0.102301)
(4.13871e-07 -6.27028e-07 0.102301)
(4.02546e-07 6.11853e-07 0.102301)
(4.15626e-07 -6.27423e-07 0.102301)
(-4.15884e-07 -6.25429e-07 0.102301)
(-3.91866e-07 6.07445e-07 0.102301)
(-4.17636e-07 -6.25738e-07 0.102301)
(4.09879e-05 -4.10206e-05 0.102257)
(-4.26914e-05 4.27253e-05 0.102259)
(-6.0317e-07 -4.00693e-07 0.102301)
(6.07008e-07 -3.96325e-07 0.102301)
(-6.0254e-07 -4.01249e-07 0.102301)
(4.26983e-05 4.27124e-05 0.102259)
(4.10169e-05 4.09902e-05 0.102257)
(-4.27233e-05 -4.26962e-05 0.102259)
(6.3285e-07 4.2206e-07 0.102301)
(-6.33141e-07 4.1736e-07 0.102301)
(6.23433e-07 4.07793e-07 0.102301)
(-6.38577e-07 4.30895e-07 0.102301)
(-4.10061e-05 4.09816e-05 0.102257)
(4.27171e-05 -4.26819e-05 0.102259)
(4.07124e-07 6.13601e-07 0.102301)
(4.15221e-07 -6.26618e-07 0.102301)
(3.95106e-07 6.08578e-07 0.102301)
(4.14541e-07 -6.26583e-07 0.102301)
(-4.14922e-07 -6.24858e-07 0.102301)
(-3.95705e-07 6.18512e-07 0.102301)
(-4.12115e-07 -6.22437e-07 0.102301)
(4.09891e-05 -4.10208e-05 0.102257)
(-4.26913e-05 4.27264e-05 0.102259)
(-6.04983e-07 -3.9787e-07 0.102301)
(6.0786e-07 -3.94685e-07 0.102301)
(-6.06812e-07 -3.94791e-07 0.102301)
(4.26949e-05 4.27158e-05 0.102259)
(4.10046e-05 4.09924e-05 0.102257)
(-4.27194e-05 -4.26906e-05 0.102259)
(6.2504e-07 4.16967e-07 0.102301)
(-6.40748e-07 4.31956e-07 0.102301)
(6.27038e-07 4.11529e-07 0.102301)
(-6.30845e-07 4.17975e-07 0.102301)
(-4.1012e-05 4.09971e-05 0.102257)
(4.27208e-05 -4.2693e-05 0.102259)
(3.97578e-07 6.12063e-07 0.102301)
(4.13902e-07 -6.26602e-07 0.102301)
(3.95925e-07 6.12534e-07 0.102301)
(4.15066e-07 -6.27638e-07 0.102301)
(-4.12771e-07 -6.22468e-07 0.102301)
(-3.94932e-07 6.12375e-07 0.102301)
(-4.12728e-07 -6.23363e-07 0.102301)
(4.0989e-05 -4.102e-05 0.102257)
(-4.26909e-05 4.27256e-05 0.102259)
(-6.07078e-07 -3.94644e-07 0.102301)
(6.08163e-07 -3.95364e-07 0.102301)
(-6.07591e-07 -3.95833e-07 0.102301)
(4.26945e-05 4.27146e-05 0.102259)
(4.10079e-05 4.09951e-05 0.102257)
(-4.27177e-05 -4.26902e-05 0.102259)
(6.28268e-07 4.16797e-07 0.102301)
(-6.31093e-07 4.19133e-07 0.102301)
(6.29405e-07 4.11699e-07 0.102301)
(-6.30151e-07 4.16974e-07 0.102301)
(-4.10054e-05 4.09807e-05 0.102257)
(4.27223e-05 -4.2694e-05 0.102259)
(3.99642e-07 6.13496e-07 0.102301)
(4.15001e-07 -6.27536e-07 0.102301)
(3.96934e-07 6.12887e-07 0.102301)
(4.15185e-07 -6.27914e-07 0.102301)
(-4.1322e-07 -6.24296e-07 0.102301)
(-3.95193e-07 6.12004e-07 0.102301)
(-4.11989e-07 -6.24288e-07 0.102301)
(4.09895e-05 -4.10207e-05 0.102257)
(-4.26908e-05 4.27255e-05 0.102259)
(-6.0802e-07 -3.95918e-07 0.102301)
(6.08609e-07 -3.95551e-07 0.102301)
(-6.07266e-07 -3.96163e-07 0.102301)
(4.26949e-05 4.27142e-05 0.102259)
(4.10094e-05 4.09955e-05 0.102257)
(-4.27167e-05 -4.26908e-05 0.102259)
(6.28543e-07 4.15872e-07 0.102301)
(-6.30773e-07 4.18303e-07 0.102301)
(6.28234e-07 4.09798e-07 0.102301)
(-6.30396e-07 4.1664e-07 0.102301)
(-4.10046e-05 4.09808e-05 0.102257)
(4.27212e-05 -4.26937e-05 0.102259)
(4.00337e-07 6.13479e-07 0.102301)
(4.14737e-07 -6.27566e-07 0.102301)
(3.96444e-07 6.12065e-07 0.102301)
(4.14644e-07 -6.2772e-07 0.102301)
(-4.12171e-07 -6.24496e-07 0.102301)
(-3.95162e-07 6.11661e-07 0.102301)
(-4.11162e-07 -6.2419e-07 0.102301)
(4.09897e-05 -4.10209e-05 0.102257)
(-4.26899e-05 4.27244e-05 0.102259)
(-6.07405e-07 -3.95446e-07 0.102301)
(6.08346e-07 -3.95496e-07 0.102301)
(-6.06823e-07 -3.96292e-07 0.102301)
(4.26942e-05 4.2713e-05 0.102259)
(4.10078e-05 4.09922e-05 0.102257)
(-4.27157e-05 -4.26915e-05 0.102259)
(6.27306e-07 4.14392e-07 0.102301)
(-6.30399e-07 4.16728e-07 0.102301)
(6.27601e-07 4.09058e-07 0.102301)
(-6.3077e-07 4.16556e-07 0.102301)
(-4.10033e-05 4.09786e-05 0.102257)
(4.27207e-05 -4.26931e-05 0.102259)
(3.99947e-07 6.12484e-07 0.102301)
(4.14232e-07 -6.27529e-07 0.102301)
(3.97294e-07 6.11713e-07 0.102301)
(4.14639e-07 -6.27759e-07 0.102301)
(-4.11632e-07 -6.24509e-07 0.102301)
(-3.95528e-07 6.11564e-07 0.102301)
(-4.11449e-07 -6.24538e-07 0.102301)
(4.09881e-05 -4.10195e-05 0.102257)
(-4.26894e-05 4.27238e-05 0.102259)
(-6.06893e-07 -3.95288e-07 0.102301)
(6.08323e-07 -3.95743e-07 0.102301)
(-6.07127e-07 -3.97139e-07 0.102301)
(4.26934e-05 4.27119e-05 0.102259)
(4.10063e-05 4.0989e-05 0.102257)
(-4.27146e-05 -4.26909e-05 0.102259)
(6.26865e-07 4.13378e-07 0.102301)
(-6.30304e-07 4.1613e-07 0.102301)
(6.27276e-07 4.08687e-07 0.102301)
(-6.30339e-07 4.15866e-07 0.102301)
(-4.10011e-05 4.09766e-05 0.102257)
(4.272e-05 -4.26924e-05 0.102259)
(4.00239e-07 6.12182e-07 0.102301)
(4.13657e-07 -6.27127e-07 0.102301)
(3.97086e-07 6.11315e-07 0.102301)
(4.14411e-07 -6.27473e-07 0.102301)
(-4.11133e-07 -6.24347e-07 0.102301)
(-3.94875e-07 6.11273e-07 0.102301)
(-4.10514e-07 -6.23878e-07 0.102301)
(4.09859e-05 -4.10173e-05 0.102257)
(-4.26883e-05 4.27228e-05 0.102259)
(-6.06803e-07 -3.94721e-07 0.102301)
(6.08278e-07 -3.94993e-07 0.102301)
(-6.06269e-07 -3.9625e-07 0.102301)
(4.26932e-05 4.27116e-05 0.102259)
(4.10053e-05 4.09878e-05 0.102257)
(-4.2707e-05 -4.26829e-05 0.102259)
(6.2568e-07 4.12183e-07 0.102301)
(-6.29346e-07 4.14712e-07 0.102301)
(6.26568e-07 4.06963e-07 0.102301)
(-6.29957e-07 4.14103e-07 0.102301)
(-4.10001e-05 4.09756e-05 0.102257)
(4.27119e-05 -4.26845e-05 0.102259)
(3.99071e-07 6.11001e-07 0.102301)
(4.12611e-07 -6.26279e-07 0.102301)
(3.95003e-07 6.10737e-07 0.102301)
(4.12839e-07 -6.27359e-07 0.102301)
(-4.09704e-07 -6.23251e-07 0.102301)
(-3.93555e-07 6.10783e-07 0.102301)
(-4.09434e-07 -6.23719e-07 0.102301)
(4.09852e-05 -4.10165e-05 0.102257)
(-4.26801e-05 4.27147e-05 0.102259)
(-6.05661e-07 -3.93087e-07 0.102301)
(6.0806e-07 -3.93584e-07 0.102301)
(-6.06408e-07 -3.94652e-07 0.102301)
(4.26849e-05 4.27036e-05 0.102259)
(4.09934e-05 4.09762e-05 0.102257)
(6.24481e-07 4.08718e-07 0.102301)
(-6.28468e-07 4.11094e-07 0.102301)
(-4.09886e-05 4.09638e-05 0.102257)
(3.95099e-07 6.10054e-07 0.102301)
(4.09464e-07 -6.25848e-07 0.102301)
(-4.06609e-07 -6.22471e-07 0.102301)
(4.09738e-05 -4.10051e-05 0.102257)
(-6.05253e-07 -3.89713e-07 0.102301)
(-5.98592e-07 -5.90954e-07 0.102331)
(5.92415e-07 -5.93167e-07 0.102331)
(-5.9191e-07 5.94927e-07 0.102331)
(5.88747e-07 5.93818e-07 0.102331)
(3.66535e-08 -8.57568e-06 0.100731)
(7.018e-07 6.26604e-06 0.0948222)
(-4.58957e-08 8.30998e-06 0.100724)
(-1.0532e-06 -6.30072e-06 0.0948343)
(-1.76609e-06 2.41141e-06 0.0836453)
(1.66981e-06 -2.42998e-06 0.0836572)
(-8.62883e-06 3.45901e-08 0.100731)
(6.31052e-06 6.9333e-07 0.0948221)
(8.36135e-06 -2.6195e-08 0.100724)
(-6.33664e-06 -1.03272e-06 0.0948342)
(5.93043e-07 -5.97643e-07 0.102331)
(-5.96468e-07 5.98828e-07 0.102331)
(5.91629e-07 5.98821e-07 0.102331)
(-6.13279e-07 -6.02969e-07 0.102331)
(6.00515e-07 -6.03332e-07 0.102331)
(-6.0533e-07 6.08406e-07 0.102331)
(5.99954e-07 6.0834e-07 0.102331)
(1.39e-05 3.91775e-08 0.101996)
(-1.33431e-05 3.86455e-06 0.100992)
(-4.86497e-07 -1.6426e-07 0.102323)
(-3.81753e-07 6.04391e-07 0.102301)
(-1.39199e-05 -3.93663e-08 0.101993)
(1.28523e-05 -4.17406e-06 0.101002)
(-4.74604e-07 -1.66122e-07 0.102323)
(2.28104e-06 -1.67538e-06 0.0836426)
(-2.35266e-06 1.65137e-06 0.0836574)
(4.15121e-08 1.39154e-05 0.101996)
(-1.70613e-07 -4.7831e-07 0.102323)
(3.88254e-06 -1.33749e-05 0.100992)
(5.99106e-07 -3.7809e-07 0.102301)
(-4.83185e-08 -1.39245e-05 0.101993)
(-1.73315e-07 -4.65214e-07 0.102323)
(-4.22034e-06 1.29026e-05 0.101002)
(-4.19287e-06 -5.11772e-06 0.0991033)
(-5.10866e-06 -4.18968e-06 0.0991028)
(4.26802e-05 4.27052e-05 0.102259)
(3.9716e-06 4.97403e-06 0.0991145)
(4.95696e-06 3.9691e-06 0.0991139)
(3.56806e-08 -8.63228e-06 0.100731)
(7.28457e-07 6.2364e-06 0.0948227)
(-5.14295e-08 8.26818e-06 0.100724)
(-1.03031e-06 -6.33302e-06 0.0948348)
(-1.73752e-06 2.32309e-06 0.083646)
(1.73936e-06 -2.51177e-06 0.0836583)
(-8.68704e-06 3.01041e-08 0.100731)
(6.27782e-06 7.14499e-07 0.0948226)
(8.32459e-06 -3.31566e-08 0.100724)
(-6.37056e-06 -1.01326e-06 0.0948347)
(6.05071e-07 -6.08945e-07 0.102331)
(-6.10306e-07 6.13583e-07 0.102331)
(6.05592e-07 6.13832e-07 0.102331)
(-6.22812e-07 -6.17677e-07 0.102331)
(6.1966e-07 -6.18581e-07 0.102331)
(-6.17037e-07 6.20962e-07 0.102331)
(6.16369e-07 6.18161e-07 0.102331)
(1.39536e-05 3.31404e-08 0.101996)
(-1.32999e-05 3.82234e-06 0.100991)
(-4.65166e-07 -1.73366e-07 0.102323)
(-3.52815e-07 5.90346e-07 0.102301)
(-1.38832e-05 -4.20689e-08 0.101993)
(1.29134e-05 -4.23322e-06 0.101002)
(-4.38773e-07 -1.752e-07 0.102323)
(2.19986e-06 -1.61708e-06 0.0836435)
(-2.38335e-06 1.62927e-06 0.0836587)
(3.78527e-08 1.39673e-05 0.101996)
(-1.79696e-07 -4.47827e-07 0.102323)
(3.83658e-06 -1.33247e-05 0.100992)
(5.75749e-07 -3.42136e-07 0.102301)
(-5.40404e-08 -1.3889e-05 0.101993)
(-1.78893e-07 -4.24266e-07 0.102323)
(-4.26763e-06 1.29562e-05 0.101001)
(-4.22577e-06 -5.08501e-06 0.0991032)
(-5.08386e-06 -4.20675e-06 0.0991027)
(4.27077e-05 4.27271e-05 0.102259)
(3.99836e-06 4.97803e-06 0.0991145)
(4.9739e-06 3.97535e-06 0.0991138)
(2.97772e-08 -8.65391e-06 0.100731)
(7.36927e-07 6.17858e-06 0.0948233)
(-5.44859e-08 8.19804e-06 0.100724)
(-1.01604e-06 -6.33168e-06 0.0948356)
(-1.64532e-06 2.25828e-06 0.0836476)
(1.67827e-06 -2.49461e-06 0.0836601)
(-8.70703e-06 1.32023e-08 0.10073)
(6.22171e-06 7.1866e-07 0.0948233)
(8.2545e-06 -4.43487e-08 0.100724)
(-6.36628e-06 -1.01074e-06 0.0948355)
(6.19569e-07 -6.20944e-07 0.102331)
(-6.15898e-07 6.20197e-07 0.102331)
(6.16337e-07 6.2e-07 0.102331)
(-5.88195e-07 -6.02116e-07 0.10233)
(6.48727e-07 -6.28821e-07 0.10233)
(-5.89663e-07 5.97021e-07 0.10233)
(6.21624e-07 5.8679e-07 0.10233)
(1.39748e-05 2.13218e-08 0.101996)
(-1.32327e-05 3.7531e-06 0.100991)
(-4.55235e-07 -1.80999e-07 0.102322)
(-3.3025e-07 5.79213e-07 0.102301)
(-1.38308e-05 -5.28565e-08 0.101993)
(1.29372e-05 -4.25346e-06 0.101002)
(-4.14551e-07 -1.78726e-07 0.102322)
(2.16766e-06 -1.67335e-06 0.0836454)
(-2.37775e-06 1.72815e-06 0.0836603)
(3.53659e-08 1.39873e-05 0.101996)
(-1.78064e-07 -4.33595e-07 0.102322)
(3.78807e-06 -1.32805e-05 0.100991)
(5.37933e-07 -2.88047e-07 0.102301)
(-5.61904e-08 -1.38318e-05 0.101993)
(-1.82993e-07 -3.82699e-07 0.102322)
(-4.29329e-06 1.30014e-05 0.101001)
(-4.12697e-06 -5.09584e-06 0.0991032)
(-5.07086e-06 -4.15359e-06 0.0991027)
(4.27622e-05 4.27758e-05 0.102258)
(3.95192e-06 5.04344e-06 0.0991145)
(5.03129e-06 3.99251e-06 0.0991138)
(8.24886e-08 -8.31837e-06 0.100731)
(7.54938e-07 6.21678e-06 0.0948241)
(1.07159e-08 8.22772e-06 0.100723)
(-9.79831e-07 -5.77687e-06 0.0948361)
(-1.54028e-06 2.26565e-06 0.0836504)
(1.53018e-06 -2.13635e-06 0.0836623)
(-8.36873e-06 4.84891e-08 0.10073)
(6.26692e-06 7.25494e-07 0.0948241)
(8.29204e-06 -1.36842e-08 0.100724)
(-5.8086e-06 -9.69633e-07 0.094836)
(6.0999e-07 -5.87288e-07 0.10233)
(-5.29171e-07 5.36305e-07 0.10233)
(5.6595e-07 5.27065e-07 0.10233)
(-5.48339e-07 -5.34934e-07 0.102331)
(5.08242e-07 -5.1781e-07 0.102331)
(-5.38869e-07 5.41332e-07 0.102331)
(5.23336e-07 5.42551e-07 0.102331)
(1.36112e-05 2.13101e-08 0.101995)
(-1.32212e-05 3.66477e-06 0.100991)
(-5.17781e-07 -1.90997e-07 0.102322)
(-5.06904e-07 6.89159e-07 0.102301)
(-1.38307e-05 -7.52249e-08 0.101993)
(1.26753e-05 -4.11672e-06 0.101002)
(-6.2629e-07 -1.61071e-07 0.102322)
(2.30843e-06 -1.83027e-06 0.0836478)
(-1.92993e-06 1.38792e-06 0.0836607)
(7.16782e-08 1.34882e-05 0.101995)
(-1.41435e-07 -5.96163e-07 0.102322)
(3.85028e-06 -1.33933e-05 0.100991)
(6.99477e-07 -5.3264e-07 0.102301)
(-3.81833e-08 -1.39425e-05 0.101992)
(-1.28734e-07 -6.62184e-07 0.102322)
(-3.9681e-06 1.25704e-05 0.101001)
(-4.09524e-06 -5.24371e-06 0.0991034)
(-5.14543e-06 -4.23896e-06 0.0991028)
(4.25519e-05 4.25378e-05 0.102258)
(3.79821e-06 4.78969e-06 0.0991144)
(4.83509e-06 3.82303e-06 0.0991137)
(1.14606e-08 -8.46816e-06 0.100731)
(7.71222e-07 6.74401e-06 0.0948226)
(-8.98303e-08 8.52675e-06 0.100724)
(-1.0173e-06 -6.07348e-06 0.0948341)
(-1.8715e-06 2.61852e-06 0.0836468)
(1.65685e-06 -2.31498e-06 0.0836575)
(-8.52707e-06 2.30001e-08 0.100731)
(6.76976e-06 7.70994e-07 0.0948226)
(8.57883e-06 -5.79498e-08 0.100724)
(-6.12016e-06 -1.00031e-06 0.094834)
(5.3433e-07 -5.47536e-07 0.102331)
(-5.70173e-07 5.72101e-07 0.102331)
(5.51805e-07 5.7409e-07 0.102331)
(-6.00476e-07 -5.89668e-07 0.102331)
(5.87658e-07 -5.91442e-07 0.102331)
(-5.94028e-07 5.95513e-07 0.102331)
(5.86219e-07 5.94757e-07 0.102331)
(1.37364e-05 5.76679e-08 0.101996)
(-1.36406e-05 4.17751e-06 0.100991)
(-5.99542e-07 -1.32961e-07 0.102323)
(-4.20825e-07 6.0962e-07 0.102301)
(-1.42779e-05 -9.01088e-09 0.101993)
(1.26956e-05 -4.02031e-06 0.101002)
(-5.53715e-07 -1.47783e-07 0.102323)
(2.461e-06 -1.6743e-06 0.0836432)
(-2.24209e-06 1.64717e-06 0.0836572)
(3.87355e-08 1.37929e-05 0.101996)
(-1.62419e-07 -5.58477e-07 0.102323)
(4.09177e-06 -1.35925e-05 0.100992)
(5.9544e-07 -4.03254e-07 0.102301)
(-4.43229e-08 -1.4198e-05 0.101993)
(-1.69988e-07 -5.26421e-07 0.102323)
(-4.13962e-06 1.27991e-05 0.101002)
(-4.22377e-06 -5.04355e-06 0.099103)
(-5.09358e-06 -4.19329e-06 0.0991025)
(4.2691e-05 4.27243e-05 0.102259)
(3.9861e-06 5.0055e-06 0.0991143)
(4.96985e-06 3.971e-06 0.0991137)
(3.49144e-08 -8.54481e-06 0.100731)
(7.37226e-07 6.36585e-06 0.0948219)
(-5.45184e-08 8.33236e-06 0.100724)
(-1.02897e-06 -6.18894e-06 0.0948339)
(-1.7349e-06 2.41156e-06 0.0836454)
(1.68723e-06 -2.39859e-06 0.0836572)
(-8.59877e-06 2.80387e-08 0.100731)
(6.40497e-06 7.25912e-07 0.0948219)
(8.38708e-06 -3.54759e-08 0.100724)
(-6.22677e-06 -1.01116e-06 0.0948338)
(5.90209e-07 -5.93228e-07 0.102331)
(-5.92533e-07 5.94527e-07 0.102331)
(5.86983e-07 5.93533e-07 0.102331)
(-5.95106e-07 -5.87734e-07 0.102331)
(5.91317e-07 -5.91844e-07 0.102331)
(-5.8909e-07 5.91831e-07 0.102331)
(5.87143e-07 5.90339e-07 0.102331)
(1.38426e-05 3.50533e-08 0.101996)
(-1.33715e-05 3.864e-06 0.100992)
(-5.05767e-07 -1.6518e-07 0.102323)
(-3.94773e-07 6.06817e-07 0.102301)
(-1.39788e-05 -4.20727e-08 0.101993)
(1.28169e-05 -4.15881e-06 0.101002)
(-5.00381e-07 -1.66416e-07 0.102323)
(2.3048e-06 -1.67138e-06 0.0836426)
(-2.29215e-06 1.62349e-06 0.0836572)
(4.1851e-08 1.38534e-05 0.101996)
(-1.7018e-07 -4.96623e-07 0.102323)
(3.89541e-06 -1.34087e-05 0.100992)
(6.05464e-07 -3.95454e-07 0.102301)
(-5.06429e-08 -1.39814e-05 0.101993)
(-1.70012e-07 -4.96578e-07 0.102323)
(-4.1943e-06 1.2861e-05 0.101002)
(-4.20387e-06 -5.10541e-06 0.0991032)
(-5.09779e-06 -4.20098e-06 0.0991027)
(4.26947e-05 4.27147e-05 0.102259)
(3.97334e-06 4.96871e-06 0.0991144)
(4.96153e-06 3.96706e-06 0.0991138)
(3.54522e-08 -8.54488e-06 0.100731)
(7.42363e-07 6.36605e-06 0.0948219)
(-5.11449e-08 8.32574e-06 0.100724)
(-1.02888e-06 -6.19105e-06 0.0948339)
(-1.74168e-06 2.40461e-06 0.0836454)
(1.68451e-06 -2.40192e-06 0.0836572)
(-8.59933e-06 2.76548e-08 0.100731)
(6.40386e-06 7.28897e-07 0.0948219)
(8.38181e-06 -3.62422e-08 0.100724)
(-6.22565e-06 -1.0123e-06 0.0948338)
(5.90951e-07 -5.91912e-07 0.102331)
(-5.88539e-07 5.91698e-07 0.102331)
(5.87124e-07 5.90357e-07 0.102331)
(-5.94543e-07 -5.87949e-07 0.102331)
(5.91653e-07 -5.91901e-07 0.102331)
(-5.88431e-07 5.91472e-07 0.102331)
(5.87666e-07 5.90027e-07 0.102331)
(1.38433e-05 3.54023e-08 0.101996)
(-1.3361e-05 3.8661e-06 0.100992)
(-5.00442e-07 -1.65629e-07 0.102323)
(-3.95027e-07 6.09958e-07 0.102301)
(-1.39712e-05 -4.38617e-08 0.101993)
(1.28182e-05 -4.15412e-06 0.101002)
(-4.97869e-07 -1.6623e-07 0.102323)
(2.30248e-06 -1.67846e-06 0.0836426)
(-2.29201e-06 1.6219e-06 0.0836572)
(4.28594e-08 1.38532e-05 0.101996)
(-1.68024e-07 -4.95136e-07 0.102323)
(3.89916e-06 -1.34056e-05 0.100992)
(6.07911e-07 -3.95875e-07 0.102301)
(-4.85824e-08 -1.398e-05 0.101993)
(-1.68449e-07 -4.96011e-07 0.102323)
(-4.19119e-06 1.28618e-05 0.101002)
(-4.20382e-06 -5.1085e-06 0.0991032)
(-5.09745e-06 -4.19932e-06 0.0991027)
(4.26948e-05 4.27139e-05 0.102259)
(3.97381e-06 4.96829e-06 0.0991144)
(4.96177e-06 3.96806e-06 0.0991138)
(3.58922e-08 -8.54512e-06 0.100731)
(7.45097e-07 6.37173e-06 0.094822)
(-5.06647e-08 8.32603e-06 0.100724)
(-1.03169e-06 -6.19782e-06 0.0948338)
(-1.74483e-06 2.40959e-06 0.0836454)
(1.68615e-06 -2.40635e-06 0.0836572)
(-8.59946e-06 2.72111e-08 0.100731)
(6.40572e-06 7.32328e-07 0.0948219)
(8.3822e-06 -3.64847e-08 0.100724)
(-6.22756e-06 -1.01507e-06 0.0948338)
(5.91274e-07 -5.9223e-07 0.102331)
(-5.88437e-07 5.91562e-07 0.102331)
(5.87362e-07 5.90041e-07 0.102331)
(-5.94497e-07 -5.87952e-07 0.102331)
(5.91104e-07 -5.91505e-07 0.102331)
(-5.88141e-07 5.91068e-07 0.102331)
(5.87379e-07 5.89728e-07 0.102331)
(1.38435e-05 3.5431e-08 0.101996)
(-1.33607e-05 3.86655e-06 0.100992)
(-4.99647e-07 -1.65789e-07 0.102323)
(-3.95051e-07 6.0992e-07 0.102301)
(-1.3971e-05 -4.36733e-08 0.101993)
(1.28182e-05 -4.15422e-06 0.101002)
(-4.97685e-07 -1.66369e-07 0.102323)
(2.30262e-06 -1.67818e-06 0.0836426)
(-2.29208e-06 1.62183e-06 0.0836572)
(4.32811e-08 1.38528e-05 0.101996)
(-1.67796e-07 -4.94694e-07 0.102323)
(3.89953e-06 -1.34064e-05 0.100992)
(6.07911e-07 -3.95741e-07 0.102301)
(-4.81896e-08 -1.39799e-05 0.101993)
(-1.68347e-07 -4.95939e-07 0.102323)
(-4.19035e-06 1.28631e-05 0.101002)
(-4.20341e-06 -5.10852e-06 0.0991032)
(-5.09743e-06 -4.19927e-06 0.0991027)
(4.2695e-05 4.27137e-05 0.102259)
(3.97401e-06 4.96843e-06 0.0991144)
(4.96199e-06 3.96785e-06 0.0991138)
(3.4625e-08 -8.54487e-06 0.100731)
(7.47145e-07 6.38244e-06 0.0948221)
(-5.04799e-08 8.32526e-06 0.100724)
(-1.03538e-06 -6.21198e-06 0.0948337)
(-1.7448e-06 2.4097e-06 0.0836454)
(1.68685e-06 -2.40889e-06 0.0836572)
(-8.59949e-06 2.69036e-08 0.100731)
(6.40781e-06 7.35483e-07 0.094822)
(8.38245e-06 -3.7209e-08 0.100724)
(-6.22919e-06 -1.01963e-06 0.0948336)
(5.91078e-07 -5.91788e-07 0.102331)
(-5.88046e-07 5.91369e-07 0.102331)
(5.872e-07 5.90018e-07 0.102331)
(-5.94862e-07 -5.88434e-07 0.102331)
(5.91632e-07 -5.90031e-07 0.102331)
(-5.87595e-07 5.90953e-07 0.102331)
(5.86797e-07 5.88367e-07 0.102331)
(1.38436e-05 3.55043e-08 0.101996)
(-1.33609e-05 3.867e-06 0.100992)
(-4.99936e-07 -1.65558e-07 0.102323)
(-3.94831e-07 6.10244e-07 0.102301)
(-1.39714e-05 -4.35293e-08 0.101993)
(1.28183e-05 -4.15404e-06 0.101002)
(-4.97347e-07 -1.66141e-07 0.102323)
(2.30237e-06 -1.67892e-06 0.0836426)
(-2.29228e-06 1.62135e-06 0.0836572)
(4.32918e-08 1.3853e-05 0.101996)
(-1.67698e-07 -4.95052e-07 0.102323)
(3.89905e-06 -1.34085e-05 0.100992)
(6.07613e-07 -3.95268e-07 0.102301)
(-4.77561e-08 -1.39806e-05 0.101993)
(-1.68062e-07 -4.9593e-07 0.102323)
(-4.18899e-06 1.28645e-05 0.101002)
(-4.20308e-06 -5.1085e-06 0.0991032)
(-5.09734e-06 -4.19888e-06 0.0991027)
(4.26956e-05 4.27136e-05 0.102259)
(3.97442e-06 4.9684e-06 0.0991145)
(4.96237e-06 3.96815e-06 0.0991138)
(2.11256e-08 -8.54445e-06 0.100731)
(7.455e-07 6.40218e-06 0.0948223)
(-5.7589e-08 8.32408e-06 0.100724)
(-1.10621e-06 -6.26304e-06 0.0948335)
(-1.74629e-06 2.41829e-06 0.0836454)
(1.6692e-06 -2.33213e-06 0.0836571)
(-8.59961e-06 2.75812e-08 0.100731)
(6.41024e-06 7.38014e-07 0.0948222)
(8.3827e-06 -3.77212e-08 0.100724)
(-6.23006e-06 -1.02235e-06 0.0948334)
(5.9138e-07 -5.87862e-07 0.102331)
(-5.86788e-07 5.90674e-07 0.102331)
(5.84517e-07 5.85628e-07 0.102331)