/*--------------------------------*- C++ -*----------------------------------*\
| =========                 |                                                 |
| \\      /  F ield         | OpenFOAM: The Open Source CFD Toolbox           |
|  \\    /   O peration     | Version:  2206                                  |
|   \\  /    A nd           | Website:  www.openfoam.com                      |
|    \\/     M anipulation  |                                                 |
\*---------------------------------------------------------------------------*/
FoamFile
{
    version     2.0;
    format      ascii;
    arch        "LSB;label=32;scalar=64";
    class       volScalarField;
    location    "22";
    object      nut;
}
// * * * * * * * * * * * * * * * * * * * * * * * * * * * * * * * * * * * * * //

dimensions      [0 2 -1 0 0 0 0];

internalField   nonuniform List<scalar> 
28448
(
0.000224792
0.000205037
0.000205028
0.00018283
0.000224791
0.000205036
0.000205025
0.000182828
0.000224792
0.000205033
0.000205024
0.000182826
0.000224791
0.000205033
0.000205024
0.000182825
0.000224785
0.000205021
0.000205005
0.000182792
0.000224762
0.000204978
0.000204972
0.000182749
0.000224771
0.000204983
0.000204976
0.000182755
0.000224771
0.000204983
0.000204977
0.000182751
0.000224771
0.000204984
0.000204977
0.000182753
0.000224771
0.000204984
0.000204977
0.000182754
0.000224771
0.000204984
0.000204977
0.000182753
0.000224771
0.000204984
0.000204977
0.000182753
0.000224771
0.000204984
0.000204977
0.000182753
0.000224771
0.000204984
0.000204977
0.000182753
0.000224771
0.000204984
0.000204977
0.000182753
0.000224771
0.000204984
0.000204977
0.000182753
0.000224771
0.000204984
0.000204977
0.000182753
0.000224773
0.000204979
0.000182992
0.000205022
0.000205019
0.000182996
0.000205032
0.000205011
0.000205037
0.00020502
0.000182982
0.000205028
0.00020503
0.000182986
0.000182836
0.000182986
0.000205022
0.000205019
0.000205021
0.000205018
0.00018284
0.00018299
0.000205032
0.000205012
0.000205032
0.000205011
0.000205021
0.000205037
0.00020502
0.000182828
0.000182979
0.000205031
0.000205026
0.00020503
0.000182983
0.000182832
0.000182984
0.000205021
0.000205018
0.000205021
0.000205018
0.000182836
0.000182988
0.000205031
0.00020501
0.000205031
0.00020501
0.000205019
0.000205033
0.000205019
0.000182825
0.000182976
0.00020503
0.000205024
0.00020503
0.000182982
0.00018283
0.000182984
0.000205022
0.000205019
0.000205022
0.000205019
0.000182834
0.000182988
0.000205032
0.000205009
0.000205032
0.000205007
0.000205019
0.000205033
0.000205016
0.000182823
0.000182975
0.00020503
0.000205024
0.000205027
0.000182981
0.000182831
0.000182974
0.00020502
0.000205017
0.000205014
0.000205011
0.000182834
0.000182977
0.000205031
0.000205007
0.000205025
0.000205
0.000205016
0.000205027
0.000205008
0.000182822
0.000182957
0.000205026
0.000205016
0.000205018
0.000182961
0.000182815
0.000182912
0.000205009
0.000205006
0.000204968
0.000204965
0.000182818
0.000182915
0.00020502
0.000204988
0.000204978
0.000204954
0.000204996
0.000204981
0.000204963
0.000182793
0.000182901
0.000205006
0.000204972
0.000204973
0.000182905
0.000182752
0.000182916
0.000204965
0.000204962
0.000204968
0.000204965
0.000182755
0.00018292
0.000204975
0.000204955
0.000204978
0.000204958
0.000204964
0.000204983
0.000204967
0.000182748
0.000182908
0.000204974
0.000204976
0.000204977
0.000182912
0.000182762
0.000182909
0.000204969
0.000204966
0.000204969
0.000204966
0.000182766
0.000182913
0.000204979
0.000204959
0.000204979
0.000204958
0.000204968
0.000204983
0.000204968
0.000182754
0.000182901
0.000204978
0.000204977
0.000204978
0.000182906
0.000182755
0.000182913
0.000204969
0.000204967
0.00020497
0.000204967
0.000182759
0.000182917
0.00020498
0.000204959
0.00020498
0.000204959
0.000204968
0.000204984
0.000204968
0.000182749
0.000182905
0.000204979
0.000204977
0.000204979
0.00018291
0.00018276
0.000182909
0.00020497
0.000204967
0.00020497
0.000204967
0.000182763
0.000182913
0.00020498
0.00020496
0.00020498
0.000204959
0.000204969
0.000204984
0.000204968
0.000182752
0.000182904
0.000204979
0.000204978
0.000204979
0.000182909
0.000182757
0.00018291
0.00020497
0.000204967
0.00020497
0.000204967
0.00018276
0.000182914
0.00020498
0.00020496
0.00020498
0.000204959
0.000204969
0.000204984
0.000204968
0.000182751
0.000182903
0.000204979
0.000204978
0.000204979
0.000182909
0.000182756
0.000182911
0.00020497
0.000204967
0.00020497
0.000204967
0.00018276
0.000182915
0.00020498
0.00020496
0.00020498
0.000204959
0.000204969
0.000204984
0.000204968
0.00018275
0.000182904
0.000204979
0.000204978
0.000204979
0.000182908
0.000182757
0.000182911
0.00020497
0.000204967
0.00020497
0.000204967
0.00018276
0.000182915
0.00020498
0.000204959
0.00020498
0.000204959
0.000204969
0.000204984
0.000204968
0.00018275
0.000182904
0.000204979
0.000204978
0.000204979
0.000182909
0.000182757
0.000182911
0.00020497
0.000204967
0.00020497
0.000204967
0.000182761
0.000182915
0.00020498
0.00020496
0.00020498
0.000204959
0.000204969
0.000204984
0.000204968
0.00018275
0.000182904
0.000204979
0.000204978
0.000204979
0.000182909
0.000182757
0.000182911
0.00020497
0.000204967
0.00020497
0.000204967
0.000182761
0.000182915
0.00020498
0.000204959
0.00020498
0.000204959
0.000204969
0.000204984
0.000204968
0.000182751
0.000182904
0.000204979
0.000204978
0.000204979
0.000182909
0.000182758
0.000182911
0.00020497
0.000204967
0.00020497
0.000204967
0.000182761
0.000182915
0.00020498
0.00020496
0.00020498
0.000204959
0.000204969
0.000204984
0.000204968
0.000182751
0.000182904
0.000204979
0.000204978
0.000204979
0.000182909
0.000182758
0.000182911
0.00020497
0.000204967
0.00020497
0.000204967
0.000182761
0.000182915
0.00020498
0.000204959
0.00020498
0.000204959
0.000204969
0.000204984
0.000204968
0.000182751
0.000182904
0.000204979
0.000204977
0.000204979
0.000182908
0.000182758
0.000182911
0.00020497
0.000204967
0.000204971
0.000182761
0.00020498
0.00020496
0.00020498
0.000204959
0.000204969
0.00020497
0.00018275
0.000182904
0.000204979
0.000204977
0.00020498
0.000182912
0.000182762
0.000204981
0.00020496
0.000182751
0.000224792
0.000224792
0.000224789
0.000224791
4.66313e-05
4.91611e-05
4.66216e-05
4.916e-05
2.57123e-05
2.57115e-05
4.66391e-05
4.91568e-05
4.66308e-05
4.91556e-05
0.000224792
0.00022479
0.000224791
0.000224792
0.000224792
0.000224789
0.00022479
0.000110787
5.68806e-05
0.000217859
0.000205038
0.00011076
5.6898e-05
0.000217859
2.57093e-05
2.57085e-05
0.000110781
0.000217855
5.68821e-05
0.000205027
0.000110753
0.000217855
5.6899e-05
3.54372e-05
3.54308e-05
0.000182984
3.54419e-05
3.54357e-05
4.66326e-05
4.91602e-05
4.6624e-05
4.91592e-05
2.5711e-05
2.57106e-05
4.66395e-05
4.91558e-05
4.66312e-05
4.91548e-05
0.000224791
0.000224789
0.000224792
0.000224792
0.00022479
0.000224788
0.000224792
0.000110785
5.68835e-05
0.000217858
0.000205034
0.000110758
5.6901e-05
0.000217856
2.57082e-05
2.57079e-05
0.000110779
0.000217854
5.6885e-05
0.000205025
0.000110751
0.000217853
5.69016e-05
3.5445e-05
3.54389e-05
0.000182983
3.5451e-05
3.54449e-05
4.66385e-05
4.91598e-05
4.66281e-05
4.91589e-05
2.57106e-05
2.57104e-05
4.66463e-05
4.91554e-05
4.66366e-05
4.91546e-05
0.000224793
0.000224788
0.000224791
0.000224791
0.000224794
0.000224787
0.00022479
0.000110789
5.68857e-05
0.000217856
0.000205034
0.00011076
5.69027e-05
0.000217856
2.57079e-05
2.57078e-05
0.000110783
0.000217852
5.6887e-05
0.000205023
0.000110753
0.000217852
5.6904e-05
3.54526e-05
3.54466e-05
0.000182981
3.54572e-05
3.54511e-05
4.6641e-05
4.91597e-05
4.66329e-05
4.91591e-05
2.57107e-05
2.57108e-05
4.66478e-05
4.91553e-05
4.6641e-05
4.91546e-05
0.000224792
0.000224787
0.000224789
0.000224789
0.000224789
0.000224783
0.000224785
0.000110789
5.68881e-05
0.000217858
0.000205031
0.000110766
5.69043e-05
0.000217857
2.57082e-05
2.57083e-05
0.000110781
0.000217854
5.68901e-05
0.000205023
0.000110756
0.000217853
5.69043e-05
3.54563e-05
3.54503e-05
0.000182978
3.54577e-05
3.54516e-05
4.66215e-05
4.91612e-05
4.66237e-05
4.91622e-05
2.57113e-05
2.57112e-05
4.6626e-05
4.91569e-05
4.66295e-05
4.91578e-05
0.000224785
0.000224775
0.000224776
0.000224761
0.000224761
0.00022476
0.000224761
0.000110737
5.68781e-05
0.000217844
0.000205007
0.000110743
5.68839e-05
0.000217828
2.57087e-05
2.57085e-05
0.000110727
0.000217836
5.68753e-05
0.000204988
0.000110734
0.000217821
5.68803e-05
3.54491e-05
3.54431e-05
0.000182923
3.54472e-05
3.54412e-05
4.66024e-05
4.91641e-05
4.65985e-05
4.91633e-05
2.57112e-05
2.5711e-05
4.6609e-05
4.91597e-05
4.66048e-05
4.91589e-05
0.000224763
0.000224763
0.000224765
0.00022477
0.000224771
0.000224769
0.00022477
0.000110711
5.68515e-05
0.000217818
0.00020498
0.000110681
5.68636e-05
0.000217821
2.57085e-05
2.57083e-05
0.000110705
0.000217816
5.68519e-05
0.000204975
0.000110674
0.000217819
5.68653e-05
3.54364e-05
3.54304e-05
0.000182914
3.54375e-05
3.54314e-05
4.66002e-05
4.91639e-05
4.65923e-05
4.91631e-05
2.57111e-05
2.5711e-05
4.66073e-05
4.91596e-05
4.66001e-05
4.91588e-05
0.000224772
0.000224769
0.000224771
0.000224771
0.000224771
0.000224769
0.00022477
0.000110712
5.68448e-05
0.000217822
0.000204983
0.000110685
5.68609e-05
0.000217823
2.57085e-05
2.57083e-05
0.000110704
0.000217821
5.68483e-05
0.000204976
0.000110677
0.00021782
5.6864e-05
3.54341e-05
3.54281e-05
0.000182908
3.54368e-05
3.54307e-05
4.66001e-05
4.91638e-05
4.6592e-05
4.91631e-05
2.57111e-05
2.5711e-05
4.66073e-05
4.91595e-05
4.65998e-05
4.91587e-05
0.000224772
0.000224769
0.00022477
0.000224771
0.000224772
0.000224769
0.00022477
0.00011071
5.68444e-05
0.000217823
0.000204984
0.000110684
5.68608e-05
0.000217824
2.57085e-05
2.57083e-05
0.000110704
0.000217821
5.68481e-05
0.000204977
0.000110678
0.000217822
5.68639e-05
3.5434e-05
3.5428e-05
0.000182909
3.54368e-05
3.54307e-05
4.66001e-05
4.91638e-05
4.6592e-05
4.91631e-05
2.57111e-05
2.5711e-05
4.66073e-05
4.91595e-05
4.65999e-05
4.91587e-05
0.000224772
0.000224769
0.00022477
0.000224771
0.000224772
0.000224769
0.00022477
0.000110711
5.68444e-05
0.000217823
0.000204984
0.000110685
5.68608e-05
0.000217823
2.57085e-05
2.57083e-05
0.000110706
0.000217821
5.68481e-05
0.000204977
0.000110679
0.000217822
5.68639e-05
3.5434e-05
3.5428e-05
0.000182907
3.54368e-05
3.54306e-05
4.66001e-05
4.91638e-05
4.6592e-05
4.91631e-05
2.57111e-05
2.5711e-05
4.66073e-05
4.91595e-05
4.65999e-05
4.91587e-05
0.000224772
0.000224769
0.00022477
0.000224771
0.000224771
0.000224769
0.00022477
0.000110711
5.68444e-05
0.000217823
0.000204984
0.000110683
5.68608e-05
0.000217823
2.57085e-05
2.57083e-05
0.000110703
0.000217821
5.68481e-05
0.000204978
0.000110677
0.000217822
5.68639e-05
3.54341e-05
3.5428e-05
0.000182908
3.54368e-05
3.54306e-05
4.66001e-05
4.91638e-05
4.6592e-05
4.91631e-05
2.57111e-05
2.5711e-05
4.66073e-05
4.91595e-05
4.65999e-05
4.91587e-05
0.000224772
0.000224769
0.00022477
0.000224771
0.000224771
0.000224769
0.00022477
0.00011071
5.68444e-05
0.000217823
0.000204984
0.000110684
5.68608e-05
0.000217824
2.57085e-05
2.57083e-05
0.000110702
0.000217821
5.68481e-05
0.000204978
0.000110675
0.000217822
5.68639e-05
3.54341e-05
3.5428e-05
0.000182909
3.54368e-05
3.54306e-05
4.66001e-05
4.91638e-05
4.6592e-05
4.91631e-05
2.57111e-05
2.5711e-05
4.66073e-05
4.91595e-05
4.65999e-05
4.91587e-05
0.000224772
0.000224769
0.00022477
0.000224771
0.000224771
0.000224769
0.00022477
0.000110712
5.68444e-05
0.000217823
0.000204984
0.000110684
5.68608e-05
0.000217824
2.57085e-05
2.57083e-05
0.0001107
0.000217821
5.68481e-05
0.000204978
0.000110673
0.000217822
5.68639e-05
3.54341e-05
3.5428e-05
0.000182909
3.54368e-05
3.54306e-05
4.66001e-05
4.91638e-05
4.6592e-05
4.91631e-05
2.57111e-05
2.5711e-05
4.66073e-05
4.91595e-05
4.65998e-05
4.91587e-05
0.000224772
0.000224769
0.00022477
0.000224771
0.000224771
0.000224769
0.00022477
0.00011071
5.68444e-05
0.000217823
0.000204984
0.000110684
5.68608e-05
0.000217824
2.57085e-05
2.57083e-05
0.0001107
0.000217821
5.68481e-05
0.000204978
0.000110672
0.000217821
5.68639e-05
3.5434e-05
3.5428e-05
0.000182909
3.54368e-05
3.54306e-05
4.66001e-05
4.91638e-05
4.6592e-05
4.91631e-05
2.57111e-05
2.5711e-05
4.66072e-05
4.91595e-05
4.65998e-05
4.91587e-05
0.000224772
0.000224769
0.00022477
0.000224771
0.000224772
0.000224769
0.00022477
0.000110711
5.68444e-05
0.000217823
0.000204984
0.000110684
5.68608e-05
0.000217824
2.57085e-05
2.57083e-05
0.000110699
0.000217821
5.68481e-05
0.000204978
0.000110672
0.000217821
5.68639e-05
3.5434e-05
3.54279e-05
0.000182909
3.54368e-05
3.54306e-05
4.66001e-05
4.91638e-05
4.6592e-05
4.91631e-05
2.57111e-05
2.5711e-05
4.66072e-05
4.91595e-05
4.65998e-05
4.91587e-05
0.000224772
0.000224769
0.00022477
0.000224771
0.000224772
0.000224769
0.00022477
0.00011071
5.68444e-05
0.000217823
0.000204984
0.000110684
5.68608e-05
0.000217823
2.57085e-05
2.57083e-05
0.000110698
0.000217821
5.68481e-05
0.000204978
0.000110672
0.000217821
5.68639e-05
3.5434e-05
3.54279e-05
0.000182909
3.54368e-05
3.54306e-05
4.66001e-05
4.91638e-05
4.6592e-05
4.91631e-05
2.57111e-05
2.5711e-05
4.66073e-05
4.91595e-05
4.65999e-05
4.91587e-05
0.000224772
0.000224769
0.00022477
0.000224771
0.000224771
0.000224769
0.00022477
0.000110712
5.68445e-05
0.000217823
0.000204984
0.000110684
5.68608e-05
0.000217823
2.57085e-05
2.57083e-05
0.0001107
0.000217821
5.68481e-05
0.000204978
0.000110672
0.000217821
5.68639e-05
3.5434e-05
3.54279e-05
0.000182909
3.54368e-05
3.54306e-05
4.66001e-05
4.91638e-05
4.6592e-05
4.91631e-05
2.57111e-05
2.5711e-05
4.66073e-05
4.91595e-05
4.65999e-05
4.91587e-05
0.000224772
0.000224769
0.00022477
0.000224771
0.000224774
0.000224769
0.000224771
0.000110712
5.68445e-05
0.000217823
0.000204984
0.000110684
5.68608e-05
0.000217824
2.57085e-05
2.57083e-05
0.000110699
0.000217821
5.68481e-05
0.000204978
0.000110672
0.000217821
5.68639e-05
3.54341e-05
3.5428e-05
0.000182909
3.54368e-05
3.54306e-05
4.91595e-05
4.65999e-05
0.00022477
2.57085e-05
5.68492e-05
2.57135e-05
2.57115e-05
3.54396e-05
3.54324e-05
4.91605e-05
4.66292e-05
4.91603e-05
4.663e-05
5.69012e-05
0.000217858
0.00011079
5.68985e-05
0.000217857
0.000110792
2.57124e-05
3.5436e-05
3.54331e-05
2.5713e-05
4.91561e-05
4.66377e-05
5.68913e-05
0.000217858
0.000110797
4.66271e-05
4.91534e-05
4.91553e-05
4.66347e-05
0.000110765
0.000205011
0.000217854
5.68844e-05
0.000217854
5.68682e-05
0.000110791
0.000110764
5.68965e-05
0.000217859
0.000217859
0.000110787
4.66205e-05
4.91587e-05
4.66288e-05
0.000110763
0.00020502
0.000217857
5.6897e-05
0.000217857
5.68817e-05
0.000110788
4.66201e-05
4.91568e-05
4.91587e-05
4.66285e-05
2.57092e-05
2.57102e-05
0.00018281
3.54264e-05
3.54391e-05
3.54198e-05
3.5436e-05
2.57118e-05
2.57127e-05
0.000110756
0.000205029
0.000217855
5.68976e-05
0.000217856
5.68823e-05
0.000110781
0.000110764
0.00020503
0.000217856
5.68935e-05
0.000217856
5.6878e-05
0.000110788
4.66194e-05
4.91566e-05
4.91584e-05
4.66279e-05
4.66263e-05
4.91564e-05
4.91583e-05
4.66338e-05
0.000182814
3.54394e-05
3.5433e-05
3.54357e-05
3.54295e-05
2.57116e-05
2.57125e-05
2.57106e-05
2.57115e-05
2.57134e-05
2.57125e-05
2.57115e-05
2.57106e-05
3.54375e-05
3.54304e-05
0.000182986
3.54416e-05
3.54345e-05
2.5712e-05
2.57126e-05
2.57101e-05
2.57106e-05
0.000182833
3.54456e-05
3.54382e-05
3.544e-05
3.54328e-05
4.6632e-05
4.91608e-05
4.66236e-05
4.91598e-05
0.00011079
5.68875e-05
0.000217858
0.000205022
0.000110765
5.69026e-05
0.000217858
0.000110792
5.68844e-05
0.000217857
0.000205019
0.000110767
5.68999e-05
0.000217857
4.66248e-05
4.91595e-05
4.91604e-05
4.66321e-05
4.66255e-05
4.91594e-05
4.91603e-05
4.66327e-05
0.000110766
0.000205022
5.6904e-05
0.000217858
5.68889e-05
0.000217858
0.00011079
0.000110767
0.000205019
5.69012e-05
0.000217857
5.68858e-05
0.000217858
0.000110791
3.54339e-05
3.54306e-05
0.00018299
3.54374e-05
3.54339e-05
2.5713e-05
2.57121e-05
2.57109e-05
2.57115e-05
0.000182837
3.54402e-05
3.54362e-05
3.54354e-05
3.54311e-05
2.57115e-05
2.57122e-05
0.000110798
5.68768e-05
0.000217858
0.000205032
0.000110773
5.68927e-05
0.000217858
4.66354e-05
4.91539e-05
4.6629e-05
4.91529e-05
0.000110792
0.000217855
5.68699e-05
0.000205012
0.000110767
0.000217854
5.68858e-05
4.6633e-05
4.91551e-05
4.91561e-05
4.66386e-05
0.000110774
0.000205032
5.68941e-05
0.000217857
5.68782e-05
0.000217857
0.000110795
4.66292e-05
4.91525e-05
4.91535e-05
4.66353e-05
0.000110767
0.000205012
0.000217854
5.68875e-05
0.000217855
5.68713e-05
0.000110791
4.66304e-05
4.91593e-05
4.66224e-05
4.91583e-05
0.00011079
0.000217858
5.68831e-05
0.000205021
0.000110765
0.000217857
5.68986e-05
4.66304e-05
4.91573e-05
4.66222e-05
4.91564e-05
0.000110762
0.000205037
5.68994e-05
0.000217859
5.68835e-05
0.000217859
0.000110785
4.66236e-05
4.91579e-05
4.91588e-05
4.66305e-05
0.000110767
0.000205021
0.000217857
5.69e-05
0.000217858
5.68847e-05
0.000110789
4.66238e-05
4.9156e-05
4.91569e-05
4.66311e-05
3.54236e-05
3.54371e-05
0.000182979
3.5427e-05
3.54419e-05
2.57118e-05
2.57111e-05
2.57081e-05
2.57086e-05
0.000182826
3.5431e-05
3.54466e-05
3.54246e-05
3.54404e-05
2.57107e-05
2.57112e-05
0.00011079
0.000217857
5.68795e-05
0.000205031
0.000110765
0.000217856
5.6895e-05
4.66294e-05
4.91571e-05
4.66214e-05
4.91561e-05
4.66344e-05
4.91569e-05
4.6628e-05
4.9156e-05
0.000110757
0.000205027
0.000217855
5.69005e-05
0.000217855
5.68851e-05
0.000110779
0.000110767
0.000205031
0.000217856
5.68965e-05
0.000217856
5.6881e-05
0.000110788
4.66225e-05
4.91557e-05
4.91566e-05
4.66295e-05
4.66282e-05
4.91556e-05
4.91565e-05
4.66343e-05
2.57116e-05
2.57109e-05
2.57106e-05
2.57099e-05
0.000182831
3.54464e-05
3.54404e-05
3.54404e-05
3.54343e-05
2.57105e-05
2.5711e-05
2.57095e-05
2.571e-05
2.57121e-05
2.57117e-05
2.57101e-05
2.57097e-05
3.54445e-05
3.5437e-05
0.000182985
3.54506e-05
3.54431e-05
2.57115e-05
2.57118e-05
2.57096e-05
2.57099e-05
0.000182832
3.54548e-05
3.54472e-05
3.54494e-05
3.54418e-05
4.66331e-05
4.91599e-05
4.66258e-05
4.91591e-05
0.000110791
5.68902e-05
0.000217855
0.000205021
0.000110767
5.69052e-05
0.000217855
0.000110792
5.68871e-05
0.000217855
0.000205018
0.000110768
5.69024e-05
0.000217854
4.66263e-05
4.9159e-05
4.91598e-05
4.66353e-05
4.66267e-05
4.91589e-05
4.91596e-05
4.66357e-05
0.000110767
0.000205021
5.6906e-05
0.000217855
5.68914e-05
0.000217855
0.000110792
0.000110767
0.000205018
5.69032e-05
0.000217854
5.68883e-05
0.000217854
0.000110792
3.54388e-05
3.54349e-05
0.000182989
3.54449e-05
3.54422e-05
2.57117e-05
2.57112e-05
2.57105e-05
2.57108e-05
0.000182835
3.54489e-05
3.54462e-05
3.54436e-05
3.54407e-05
2.57111e-05
2.57114e-05
0.000110793
5.68796e-05
0.000217856
0.000205031
0.00011077
5.68954e-05
0.000217856
4.66376e-05
4.91531e-05
4.66296e-05
4.91523e-05
0.000110792
0.000217852
5.6873e-05
0.00020501
0.000110767
0.000217851
5.68891e-05
4.66342e-05
4.91547e-05
4.91554e-05
4.6643e-05
0.00011077
0.000205031
5.68962e-05
0.000217857
5.68808e-05
0.000217857
0.000110794
4.66324e-05
4.91522e-05
4.91529e-05
4.66412e-05
0.000110768
0.000205011
0.000217851
5.68904e-05
0.000217851
5.68746e-05
0.000110793
4.6632e-05
4.91584e-05
4.66238e-05
4.91576e-05
0.000110788
0.000217855
5.68861e-05
0.000205019
0.000110764
0.000217854
5.69012e-05
4.66325e-05
4.91565e-05
4.66245e-05
4.91557e-05
0.000110761
0.000205034
5.69019e-05
0.000217855
5.68865e-05
0.000217856
0.000110787
4.66259e-05
4.91574e-05
4.91582e-05
4.66351e-05
0.000110764
0.00020502
0.000217854
5.69021e-05
0.000217854
5.68872e-05
0.000110789
4.66263e-05
4.91556e-05
4.91563e-05
4.66353e-05
3.54293e-05
3.54454e-05
0.000182977
3.54359e-05
3.54512e-05
2.57108e-05
2.57105e-05
2.57078e-05
2.57081e-05
0.000182824
3.54393e-05
3.54548e-05
3.54339e-05
3.54498e-05
2.57104e-05
2.57106e-05
0.000110788
0.000217853
5.68825e-05
0.00020503
0.000110763
0.000217853
5.68977e-05
4.66311e-05
4.91563e-05
4.66227e-05
4.91555e-05
4.66366e-05
4.91561e-05
4.66285e-05
4.91554e-05
0.000110755
0.000205024
0.000217852
5.69025e-05
0.000217853
5.68876e-05
0.000110781
0.000110765
0.00020503
0.000217853
5.68986e-05
0.000217853
5.68836e-05
0.000110789
4.66249e-05
4.91554e-05
4.91561e-05
4.66343e-05
4.66314e-05
4.91552e-05
4.91559e-05
4.66401e-05
2.57106e-05
2.57103e-05
2.57096e-05
2.57093e-05
0.00018283
3.54546e-05
3.54485e-05
3.54496e-05
3.54435e-05
2.57102e-05
2.57104e-05
2.57092e-05
2.57094e-05
2.57117e-05
2.57115e-05
2.57097e-05
2.57095e-05
3.54533e-05
3.54456e-05
0.000182983
3.5458e-05
3.54504e-05
2.57116e-05
2.57117e-05
2.57096e-05
2.57097e-05
0.00018283
3.54601e-05
3.54525e-05
3.54563e-05
3.54486e-05
4.66388e-05
4.91595e-05
4.66297e-05
4.91588e-05
0.000110795
5.68922e-05
0.000217855
0.000205022
0.000110769
5.69072e-05
0.000217855
0.000110794
5.6889e-05
0.000217855
0.000205019
0.000110769
5.69042e-05
0.000217855
4.66324e-05
4.91589e-05
4.91595e-05
4.66408e-05
4.66327e-05
4.91588e-05
4.91594e-05
4.66411e-05
0.000110772
0.000205022
5.69089e-05
0.000217856
5.68936e-05
0.000217856
0.000110797
0.00011077
0.000205019
5.69059e-05
0.000217857
5.68903e-05
0.000217856
0.000110796
3.54473e-05
3.54441e-05
0.000182987
3.5452e-05
3.5449e-05
2.57113e-05
2.5711e-05
2.57105e-05
2.57106e-05
0.000182834
3.54542e-05
3.54508e-05
3.54503e-05
3.54467e-05
2.57111e-05
2.57113e-05
0.000110798
5.68815e-05
0.000217857
0.000205032
0.000110772
5.68973e-05
0.000217857
4.66443e-05
4.91528e-05
4.6636e-05
4.91521e-05
0.000110797
0.000217851
5.68758e-05
0.000205008
0.00011077
0.000217852
5.68918e-05
4.6641e-05
4.91545e-05
4.91552e-05
4.66483e-05
0.000110776
0.000205033
5.6899e-05
0.00021786
5.68829e-05
0.00021786
0.000110799
4.66389e-05
4.91522e-05
4.91528e-05
4.6646e-05
0.000110773
0.000205007
0.000217854
5.68931e-05
0.000217853
5.68773e-05
0.000110798
4.6638e-05
4.91581e-05
4.66291e-05
4.91573e-05
0.000110793
0.000217854
5.68881e-05
0.000205018
0.000110766
0.000217854
5.69037e-05
4.6638e-05
4.91562e-05
4.66292e-05
4.91556e-05
0.000110766
0.000205033
5.69041e-05
0.000217857
5.68883e-05
0.000217857
0.000110793
4.66318e-05
4.91573e-05
4.91579e-05
4.66396e-05
0.00011077
0.000205016
0.000217856
5.69054e-05
0.000217855
5.68899e-05
0.000110793
4.66318e-05
4.91556e-05
4.91562e-05
4.66393e-05
3.54371e-05
3.54531e-05
0.000182975
3.54418e-05
3.54574e-05
2.57106e-05
2.57104e-05
2.57079e-05
2.57081e-05
0.000182822
3.54432e-05
3.5459e-05
3.54392e-05
3.54554e-05
2.57105e-05
2.57106e-05
0.000110793
0.000217852
5.68846e-05
0.000205029
0.000110767
0.000217853
5.69002e-05
4.66371e-05
4.91559e-05
4.66281e-05
4.91553e-05
4.66431e-05
4.91558e-05
4.66349e-05
4.91552e-05
0.000110758
0.000205023
0.000217854
5.69057e-05
0.000217853
5.68902e-05
0.000110783
0.00011077
0.000205027
0.000217855
5.6902e-05
0.000217854
5.68863e-05
0.000110794
4.66307e-05
4.91553e-05
4.91559e-05
4.66385e-05
4.66377e-05
4.91552e-05
4.91558e-05
4.66445e-05
2.57104e-05
2.57102e-05
2.57094e-05
2.57092e-05
0.000182828
3.54588e-05
3.54527e-05
3.54552e-05
3.54491e-05
2.57103e-05
2.57105e-05
2.57094e-05
2.57095e-05
2.57118e-05
2.57118e-05
2.57099e-05
2.57099e-05
3.54581e-05
3.54504e-05
0.000182983
3.54608e-05
3.54531e-05
2.57123e-05
2.57121e-05
2.57103e-05
2.57102e-05
0.000182829
3.54574e-05
3.54497e-05
3.54579e-05
3.54502e-05
4.66414e-05
4.91594e-05
4.66345e-05
4.91589e-05
0.000110793
5.68953e-05
0.000217857
0.000205019
0.00011077
5.69096e-05
0.000217857
0.000110795
5.68919e-05
0.000217857
0.000205016
0.000110773
5.69066e-05
0.000217858
4.66338e-05
4.91601e-05
4.91598e-05
4.66352e-05
4.66342e-05
4.91598e-05
4.91596e-05
4.66359e-05
0.000110764
0.000205017
5.69039e-05
0.000217854
5.68949e-05
0.000217856
0.000110782
0.000110766
0.000205014
5.6901e-05
0.000217854
5.68917e-05
0.000217857
0.000110783
3.54521e-05
3.54483e-05
0.000182986
3.54548e-05
3.54511e-05
2.57114e-05
2.57114e-05
2.57112e-05
2.57111e-05
0.000182832
3.54514e-05
3.54474e-05
3.54519e-05
3.54476e-05
2.57119e-05
2.57118e-05
0.000110791
5.68846e-05
0.000217858
0.00020503
0.000110771
5.68998e-05
0.000217857
4.66449e-05
4.91529e-05
4.664e-05
4.91526e-05
0.000110789
0.000217854
5.68783e-05
0.000205006
0.00011077
0.000217853
5.68913e-05
4.66408e-05
4.91557e-05
4.91554e-05
4.66406e-05
0.000110763
0.000205029
5.68939e-05
0.000217852
5.68843e-05
0.000217855
0.000110782
4.66374e-05
4.9154e-05
4.91536e-05
4.66356e-05
0.00011076
0.000205004
0.000217847
5.68816e-05
0.000217851
5.68746e-05
0.000110777
4.66385e-05
4.91579e-05
4.66329e-05
4.91573e-05
0.000110786
0.000217856
5.68913e-05
0.000205015
0.000110765
0.000217856
5.69038e-05
4.66378e-05
4.91562e-05
4.66325e-05
4.9156e-05
0.00011076
0.00020503
5.68977e-05
0.000217852
5.68887e-05
0.000217856
0.000110774
4.663e-05
4.91582e-05
4.9158e-05
4.66283e-05
0.000110757
0.000205013
0.000217849
5.6894e-05
0.000217854
5.68877e-05
0.000110773
4.66292e-05
4.91574e-05
4.91568e-05
4.66275e-05
3.54404e-05
3.54567e-05
0.000182972
3.5442e-05
3.54578e-05
2.57108e-05
2.57109e-05
2.57086e-05
2.57087e-05
0.000182818
3.54374e-05
3.54534e-05
3.54379e-05
3.54543e-05
2.57112e-05
2.57112e-05
0.000110786
0.000217855
5.68878e-05
0.000205026
0.000110766
0.000217854
5.69003e-05
4.66372e-05
4.91559e-05
4.66317e-05
4.91557e-05
4.66429e-05
4.91558e-05
4.66384e-05
4.91556e-05
0.000110752
0.00020502
0.000217848
5.68947e-05
0.000217852
5.68884e-05
0.000110766
0.000110757
0.000205023
0.000217848
5.68905e-05
0.000217852
5.68841e-05
0.000110772
4.66286e-05
4.91572e-05
4.91566e-05
4.66272e-05
4.6635e-05
4.91571e-05
4.91565e-05
4.66325e-05
2.57106e-05
2.57107e-05
2.57096e-05
2.57097e-05
0.000182823
3.54533e-05
3.54471e-05
3.54541e-05
3.5448e-05
2.5711e-05
2.5711e-05
2.571e-05
2.571e-05
2.57125e-05
2.57123e-05
2.57105e-05
2.57103e-05
3.54537e-05
3.5446e-05
0.000182946
3.54523e-05
3.54448e-05
2.57122e-05
2.57125e-05
2.57102e-05
2.57105e-05
0.000182776
3.5445e-05
3.54376e-05
3.54483e-05
3.54408e-05
4.66221e-05
4.91608e-05
4.66257e-05
4.91618e-05
0.000110761
5.68868e-05
0.00021785
0.000204996
0.000110752
5.68908e-05
0.000217838
0.000110762
5.68836e-05
0.000217849
0.000204993
0.000110753
5.6888e-05
0.000217837
4.66108e-05
4.91633e-05
4.91632e-05
4.66089e-05
4.66114e-05
4.9163e-05
4.91629e-05
4.66096e-05
0.000110722
0.000204979
5.68766e-05
0.000217816
5.68728e-05
0.000217822
0.000110712
0.000110722
0.000204975
5.68738e-05
0.000217815
5.68697e-05
0.000217821
0.000110713
3.54476e-05
3.54433e-05
0.000182948
3.54463e-05
3.54428e-05
2.57121e-05
2.57118e-05
2.57111e-05
2.57114e-05
0.000182778
3.54391e-05
3.54358e-05
3.54422e-05
3.54387e-05
2.57117e-05
2.5712e-05
0.000110754
5.6876e-05
0.000217846
0.000205005
0.000110751
5.68809e-05
0.000217831
4.66214e-05
4.91552e-05
4.66255e-05
4.91559e-05
0.000110744
0.000217838
5.68631e-05
0.000204969
0.000110746
0.000217822
5.68672e-05
4.66161e-05
4.91589e-05
4.91589e-05
4.66142e-05
0.000110713
0.000204988
5.68668e-05
0.000217813
5.68621e-05
0.000217819
0.00011071
4.66119e-05
4.91564e-05
4.91568e-05
4.66111e-05
0.000110703
0.000204959
0.000217811
5.68559e-05
0.000217814
5.68487e-05
0.000110708
4.66144e-05
4.91593e-05
4.66174e-05
4.91603e-05
0.000110734
0.000217838
5.68761e-05
0.000204978
0.000110741
0.000217822
5.68795e-05
4.66136e-05
4.91586e-05
4.66166e-05
4.91593e-05
0.000110698
0.00020499
5.68702e-05
0.000217817
5.68652e-05
0.00021782
0.000110707
4.66044e-05
4.91615e-05
4.91615e-05
4.66048e-05
0.000110695
0.000204967
0.000217814
5.68685e-05
0.000217816
5.68617e-05
0.000110706
4.66036e-05
4.91597e-05
4.91601e-05
4.66042e-05
3.54329e-05
3.54496e-05
0.000182918
3.54314e-05
3.54475e-05
2.57113e-05
2.57111e-05
2.57084e-05
2.57087e-05
0.000182751
3.5424e-05
3.54405e-05
3.54268e-05
3.54431e-05
2.5711e-05
2.57112e-05
0.000110733
0.000217836
5.68724e-05
0.000204988
0.000110741
0.00021782
5.6876e-05
4.66136e-05
4.91583e-05
4.66164e-05
4.91591e-05
4.66187e-05
4.91582e-05
4.66224e-05
4.9159e-05
0.000110688
0.000204977
0.000217813
5.68692e-05
0.000217815
5.68626e-05
0.000110701
0.000110694
0.000204978
0.000217813
5.68651e-05
0.000217814
5.68581e-05
0.000110707
4.66035e-05
4.91595e-05
4.91599e-05
4.66044e-05
4.66097e-05
4.91594e-05
4.91598e-05
4.661e-05
2.57112e-05
2.57109e-05
2.57102e-05
2.57099e-05
0.000182756
3.54402e-05
3.54342e-05
3.54427e-05
3.54368e-05
2.57108e-05
2.57111e-05
2.57098e-05
2.57101e-05
2.57123e-05
2.57121e-05
2.57104e-05
2.57101e-05
3.54406e-05
3.54332e-05
0.000182911
3.54396e-05
3.54322e-05
2.5712e-05
2.57122e-05
2.57101e-05
2.57103e-05
0.00018276
3.54382e-05
3.54308e-05
3.54366e-05
3.54292e-05
4.66032e-05
4.91637e-05
4.66004e-05
4.9163e-05
0.000110708
5.68599e-05
0.000217815
0.000204966
0.000110683
5.68694e-05
0.000217818
0.00011071
5.68568e-05
0.000217815
0.000204963
0.000110683
5.68666e-05
0.000217817
4.65948e-05
4.91632e-05
4.91639e-05
4.66006e-05
4.65956e-05
4.91629e-05
4.91636e-05
4.66014e-05
0.000110685
0.000204967
5.68672e-05
0.000217822
5.68545e-05
0.00021782
0.000110711
0.000110686
0.000204964
5.68644e-05
0.000217822
5.68514e-05
0.00021782
0.000110712
3.54349e-05
3.54316e-05
0.000182915
3.54335e-05
3.54295e-05
2.57119e-05
2.57116e-05
2.5711e-05
2.57112e-05
0.000182764
3.54322e-05
3.54281e-05
3.54305e-05
3.5426e-05
2.57116e-05
2.57118e-05
0.000110711
5.68493e-05
0.000217815
0.000204976
0.000110684
5.68596e-05
0.000217817
4.6607e-05
4.9157e-05
4.66035e-05
4.91563e-05
0.00011071
0.000217813
5.68395e-05
0.000204957
0.000110683
0.000217816
5.68519e-05
4.66023e-05
4.91588e-05
4.91595e-05
4.66076e-05
0.000110687
0.000204977
5.68574e-05
0.000217821
5.68439e-05
0.00021782
0.000110713
4.66005e-05
4.91562e-05
4.91569e-05
4.6606e-05
0.000110686
0.000204957
0.000217818
5.68507e-05
0.000217818
5.68365e-05
0.000110712
4.66011e-05
4.91622e-05
4.65965e-05
4.91615e-05
0.000110709
0.000217817
5.68528e-05
0.000204966
0.000110682
0.00021782
5.68647e-05
4.66007e-05
4.91603e-05
4.6596e-05
4.91597e-05
0.000110689
0.000204982
5.68614e-05
0.000217822
5.6848e-05
0.000217823
0.000110712
4.65938e-05
4.91614e-05
4.91621e-05
4.66002e-05
0.000110685
0.000204967
0.000217822
5.68636e-05
0.000217821
5.685e-05
0.00011071
4.65934e-05
4.91596e-05
4.91602e-05
4.65998e-05
3.54198e-05
3.54369e-05
0.000182908
3.54209e-05
3.54377e-05
2.57111e-05
2.57109e-05
2.57083e-05
2.57086e-05
0.000182756
3.54204e-05
3.5437e-05
3.54177e-05
3.54349e-05
2.57109e-05
2.57111e-05
0.00011071
0.000217816
5.68492e-05
0.000204976
0.000110683
0.000217819
5.68613e-05
4.66008e-05
4.91601e-05
4.6596e-05