/*--------------------------------*- C++ -*----------------------------------*\
| =========                 |                                                 |
| \\      /  F ield         | OpenFOAM: The Open Source CFD Toolbox           |
|  \\    /   O peration     | Version:  2206                                  |
|   \\  /    A nd           | Website:  www.openfoam.com                      |
|    \\/     M anipulation  |                                                 |
\*---------------------------------------------------------------------------*/
FoamFile
{
    version     2.0;
    format      ascii;
    arch        "LSB;label=32;scalar=64";
    class       volScalarField;
    location    "24";
    object      epsilon;
}
// * * * * * * * * * * * * * * * * * * * * * * * * * * * * * * * * * * * * * //

dimensions      [0 2 -3 0 0 0 0];

internalField   nonuniform List<scalar> 
28688
(
4.95537e-07
4.97317e-07
4.97317e-07
4.99572e-07
4.45448e-07
4.53667e-07
4.53669e-07
4.63711e-07
4.03672e-07
4.18466e-07
4.1847e-07
4.39415e-07
3.68928e-07
3.88777e-07
3.88783e-07
4.17693e-07
3.36388e-07
3.61063e-07
3.61071e-07
3.9589e-07
3.14199e-07
3.3804e-07
3.38048e-07
3.70655e-07
3.08985e-07
3.32863e-07
3.32871e-07
3.6412e-07
3.08502e-07
3.32416e-07
3.32424e-07
3.63811e-07
3.08489e-07
3.32406e-07
3.32414e-07
3.63815e-07
3.08489e-07
3.32406e-07
3.32414e-07
3.63815e-07
3.08489e-07
3.32406e-07
3.32414e-07
3.63821e-07
3.08489e-07
3.32406e-07
3.32414e-07
3.63819e-07
5.06425e-07
5.0559e-07
5.05589e-07
5.06425e-07
5.05589e-07
5.05589e-07
5.09651e-07
5.0965e-07
5.09651e-07
5.09651e-07
5.05591e-07
5.0559e-07
5.06425e-07
5.05591e-07
5.05589e-07
5.06425e-07
4.99572e-07
4.67242e-07
4.97318e-07
4.97322e-07
4.63702e-07
4.6371e-07
4.99573e-07
4.67239e-07
4.97322e-07
4.97323e-07
4.63707e-07
4.63713e-07
4.97319e-07
4.63698e-07
4.63703e-07
4.99572e-07
4.67245e-07
4.97321e-07
4.637e-07
4.63708e-07
4.67245e-07
4.6371e-07
4.41458e-07
4.53672e-07
4.53681e-07
4.26839e-07
4.26847e-07
4.63709e-07
4.41451e-07
4.53677e-07
4.53684e-07
4.2684e-07
4.26852e-07
4.53674e-07
4.2683e-07
4.26841e-07
4.63713e-07
4.41462e-07
4.53677e-07
4.26835e-07
4.26841e-07
4.4146e-07
4.39412e-07
4.19275e-07
4.18475e-07
4.18483e-07
3.957e-07
3.95706e-07
4.3941e-07
4.19267e-07
4.18475e-07
4.18488e-07
3.95695e-07
3.95712e-07
4.18478e-07
3.95687e-07
3.95703e-07
4.39418e-07
4.19281e-07
4.18477e-07
3.95693e-07
3.95697e-07
4.19279e-07
4.17689e-07
3.9761e-07
3.88792e-07
3.88798e-07
3.68349e-07
3.68353e-07
4.17682e-07
3.976e-07
3.88786e-07
3.88804e-07
3.68339e-07
3.6836e-07
3.88795e-07
3.68332e-07
3.68352e-07
4.17695e-07
3.97615e-07
3.88788e-07
3.6834e-07
3.68341e-07
3.97614e-07
3.95884e-07
3.71892e-07
3.61083e-07
3.61086e-07
3.41888e-07
3.41894e-07
3.95877e-07
3.71884e-07
3.61071e-07
3.61093e-07
3.41878e-07
3.41902e-07
3.61085e-07
3.41872e-07
3.41892e-07
3.9589e-07
3.71899e-07
3.61073e-07
3.4188e-07
3.41878e-07
3.71898e-07
3.70649e-07
3.63937e-07
3.38058e-07
3.38064e-07
3.33322e-07
3.33327e-07
3.70644e-07
3.6393e-07
3.38048e-07
3.38072e-07
3.3331e-07
3.33335e-07
3.38063e-07
3.33305e-07
3.33326e-07
3.70656e-07
3.63945e-07
3.38047e-07
3.33313e-07
3.3331e-07
3.63943e-07
3.64116e-07
3.63573e-07
3.32881e-07
3.32886e-07
3.32462e-07
3.32467e-07
3.64109e-07
3.63565e-07
3.32869e-07
3.32894e-07
3.3245e-07
3.32476e-07
3.32885e-07
3.32445e-07
3.32466e-07
3.64124e-07
3.63581e-07
3.32868e-07
3.32453e-07
3.32449e-07
3.63579e-07
3.63807e-07
3.63556e-07
3.32435e-07
3.3244e-07
3.32424e-07
3.32427e-07
3.63801e-07
3.63549e-07
3.32423e-07
3.32449e-07
3.3241e-07
3.32436e-07
3.32439e-07
3.32406e-07
3.32426e-07
3.63815e-07
3.63564e-07
3.32422e-07
3.32414e-07
3.32409e-07
3.63563e-07
3.6381e-07
3.63567e-07
3.32427e-07
3.32431e-07
3.32425e-07
3.32428e-07
3.63805e-07
3.63559e-07
3.32413e-07
3.32439e-07
3.32411e-07
3.32437e-07
3.3243e-07
3.32406e-07
3.32427e-07
3.63819e-07
3.63575e-07
3.32413e-07
3.32414e-07
3.3241e-07
3.63573e-07
3.63812e-07
3.63567e-07
3.32427e-07
3.3243e-07
3.32426e-07
3.32429e-07
3.63806e-07
3.63561e-07
3.32413e-07
3.32438e-07
3.32411e-07
3.32437e-07
3.32429e-07
3.32406e-07
3.32427e-07
3.6382e-07
3.63576e-07
3.32412e-07
3.32415e-07
3.32411e-07
3.63575e-07
3.63816e-07
3.63564e-07
3.32428e-07
3.32431e-07
3.32425e-07
3.32429e-07
3.6381e-07
3.63558e-07
3.32414e-07
3.32439e-07
3.32411e-07
3.32437e-07
3.3243e-07
3.32406e-07
3.32427e-07
3.63825e-07
3.63574e-07
3.32413e-07
3.32414e-07
3.3241e-07
3.63572e-07
3.63812e-07
3.63566e-07
3.32427e-07
3.32432e-07
3.32427e-07
3.63808e-07
3.32413e-07
3.32439e-07
3.32414e-07
3.32439e-07
3.32429e-07
3.3243e-07
3.63822e-07
3.63575e-07
3.32412e-07
3.32418e-07
3.32413e-07
3.63573e-07
5.35669e-07
5.35604e-07
5.3566e-07
5.3566e-07
5.34573e-07
5.35517e-07
5.33635e-07
5.35658e-07
5.34574e-07
5.35517e-07
5.35658e-07
5.33634e-07
5.35261e-07
5.35987e-07
5.35987e-07
1.10844e-06
3.88239e-06
9.33277e-07
4.6046e-06
1.26082e-05
1.65931e-05
1.10857e-06
3.88263e-06
9.33302e-07
4.60495e-06
4.95537e-07
4.95538e-07
4.95538e-07
4.57201e-07
4.572e-07
4.57201e-07
4.57201e-07
5.43388e-07
1.22023e-06
4.95542e-07
4.85529e-07
5.25212e-07
1.20986e-06
4.8232e-07
1.26098e-05
1.65953e-05
5.43412e-07
4.95542e-07
1.2202e-06
4.8553e-07
5.2519e-07
4.82321e-07
1.20985e-06
2.52159e-06
2.5223e-06
4.84196e-07
2.3733e-06
2.37369e-06
1.43161e-06
5.59619e-06
1.32951e-06
6.13404e-06
2.12929e-05
2.31065e-05
1.43208e-06
5.59688e-06
1.32953e-06
6.13466e-06
4.45449e-07
4.4545e-07
4.45449e-07
4.1372e-07
4.13719e-07
4.1372e-07
4.1372e-07
5.87026e-07
1.19492e-06
4.4633e-07
4.44272e-07
5.73847e-07
1.20432e-06
4.35666e-07
2.12955e-05
2.31097e-05
5.87053e-07
4.46331e-07
1.19493e-06
4.44274e-07
5.73843e-07
4.35668e-07
1.2044e-06
2.312e-06
2.31251e-06
4.53477e-07
2.35323e-06
2.35368e-06
1.66603e-06
6.921e-06
1.59268e-06
7.31568e-06
2.46517e-05
2.49337e-05
1.66648e-06
6.92189e-06
1.59235e-06
7.31655e-06
4.03672e-07
4.03674e-07
4.03673e-07
3.76807e-07
3.76805e-07
3.76807e-07
3.76807e-07
6.15858e-07
1.24261e-06
4.06479e-07
4.10448e-07
6.08025e-07
1.26579e-06
3.97453e-07
2.4655e-05
2.49371e-05
6.15881e-07
4.0648e-07
1.24271e-06
4.10453e-07
6.08027e-07
3.97455e-07
1.26595e-06
2.4738e-06
2.47426e-06
4.30152e-07
2.53124e-06
2.53171e-06
1.80729e-06
7.85119e-06
1.77653e-06
8.09153e-06
2.47402e-05
2.44338e-05
1.80734e-06
7.85222e-06
1.77637e-06
8.09276e-06
3.68929e-07
3.68931e-07
3.68931e-07
3.44549e-07
3.44547e-07
3.4455e-07
3.44549e-07
6.25791e-07
1.31359e-06
3.73929e-07
3.82031e-07
6.25298e-07
1.33077e-06
3.66564e-07
2.47432e-05
2.44367e-05
6.258e-07
3.73931e-07
1.31367e-06
3.82037e-07
6.25321e-07
3.66567e-07
1.3309e-06
2.63507e-06
2.63557e-06
4.08586e-07
2.67402e-06
2.67452e-06
1.86749e-06
8.40242e-06
1.88447e-06
8.49681e-06
2.36748e-05
2.33388e-05
1.86787e-06
8.40369e-06
1.8845e-06
8.49815e-06
3.36388e-07
3.36391e-07
3.3639e-07
3.17735e-07
3.17733e-07
3.17736e-07
3.17735e-07
6.17577e-07
1.36891e-06
3.43924e-07
3.53804e-07
6.25925e-07
1.35396e-06
3.36836e-07
2.36773e-05
2.33412e-05
6.17595e-07
3.43926e-07
1.36902e-06
3.53812e-07
6.25944e-07
3.36839e-07
1.35421e-06
2.75874e-06
2.75927e-06
3.8494e-07
2.74579e-06
2.74631e-06
1.71118e-06
8.65363e-06
1.73823e-06
8.73624e-06
2.32681e-05
2.33238e-05
1.71108e-06
8.65495e-06
1.73819e-06
8.73748e-06
3.142e-07
3.14203e-07
3.14202e-07
3.09476e-07
3.09476e-07
3.09479e-07
3.09477e-07
5.75793e-07
1.33046e-06
3.22021e-07
3.35575e-07
5.85034e-07
1.34009e-06
3.19602e-07
2.32701e-05
2.33247e-05
5.75792e-07
3.22023e-07
1.33045e-06
3.35583e-07
5.85042e-07
3.19604e-07
1.34022e-06
2.75186e-06
2.75237e-06
3.65342e-07
2.82057e-06
2.82118e-06
1.71359e-06
8.78618e-06
1.71293e-06
8.78936e-06
2.33675e-05
2.33703e-05
1.71344e-06
8.78757e-06
1.71275e-06
8.79069e-06
3.08986e-07
3.08988e-07
3.08987e-07
3.0853e-07
3.0853e-07
3.08533e-07
3.08531e-07
5.75016e-07
1.36268e-06
3.16762e-07
3.32631e-07
5.74964e-07
1.36415e-06
3.16515e-07
2.33682e-05
2.33706e-05
5.75008e-07
3.16764e-07
1.3626e-06
3.32639e-07
5.74957e-07
3.16517e-07
1.36409e-06
2.8748e-06
2.87546e-06
3.63665e-07
2.88014e-06
2.88082e-06
1.7141e-06
8.7902e-06
1.71458e-06
8.78981e-06
2.33715e-05
2.33713e-05
1.71396e-06
8.79154e-06
1.7144e-06
8.79113e-06
3.08504e-07
3.08507e-07
3.08505e-07
3.08489e-07
3.0849e-07
3.08493e-07
3.08491e-07
5.75129e-07
1.36565e-06
3.163e-07
3.32408e-07
5.75264e-07
1.36499e-06
3.16294e-07
2.3372e-05
2.33716e-05
5.75122e-07
3.16302e-07
1.36557e-06
3.32416e-07
5.75256e-07
3.16295e-07
1.36495e-06
2.88211e-06
2.88278e-06
3.63546e-07
2.88169e-06
2.88237e-06
1.71414e-06
8.79016e-06
1.71466e-06
8.78978e-06
2.33715e-05
2.33713e-05
1.714e-06
8.7915e-06
1.71448e-06
8.79109e-06
3.08493e-07
3.08496e-07
3.08494e-07
3.08489e-07
3.0849e-07
3.08493e-07
3.08491e-07
5.75152e-07
1.36575e-06
3.16291e-07
3.32409e-07
5.7529e-07
1.36503e-06
3.16293e-07
2.3372e-05
2.33716e-05
5.75145e-07
3.16292e-07
1.36567e-06
3.32417e-07
5.75284e-07
3.16295e-07
1.36499e-06
2.88223e-06
2.8829e-06
3.63581e-07
2.88174e-06
2.88242e-06
1.71414e-06
8.79003e-06
1.71468e-06
8.78952e-06
2.33715e-05
2.33713e-05
1.71401e-06
8.79137e-06
1.71449e-06
8.79091e-06
3.08492e-07
3.08495e-07
3.08493e-07
3.08489e-07
3.08491e-07
3.08493e-07
3.08491e-07
5.75154e-07
1.36576e-06
3.1629e-07
3.32408e-07
5.753e-07
1.36504e-06
3.16292e-07
2.3372e-05
2.33716e-05
5.75148e-07
3.16291e-07
1.36569e-06
3.32416e-07
5.75294e-07
3.16293e-07
1.365e-06
2.88225e-06
2.88292e-06
3.63568e-07
2.88175e-06
2.88242e-06
1.71414e-06
8.78987e-06
1.71468e-06
8.78951e-06
2.33716e-05
2.33713e-05
1.71401e-06
8.79127e-06
1.71449e-06
8.79083e-06
3.08492e-07
3.08495e-07
3.08493e-07
3.08489e-07
3.08491e-07
3.08493e-07
3.08491e-07
5.75154e-07
1.36576e-06
3.1629e-07
3.32408e-07
5.75301e-07
1.36504e-06
3.16292e-07
2.3372e-05
2.33717e-05
5.75147e-07
3.16292e-07
1.36569e-06
3.32416e-07
5.75294e-07
3.16294e-07
1.365e-06
2.88225e-06
2.88292e-06
3.63572e-07
2.88174e-06
2.88242e-06
1.71414e-06
8.78993e-06
1.71468e-06
8.78956e-06
2.33716e-05
2.33713e-05
1.71401e-06
8.79122e-06
1.71449e-06
8.79079e-06
3.08492e-07
3.08495e-07
3.08493e-07
3.08492e-07
3.08496e-07
3.08496e-07
3.08494e-07
5.75154e-07
1.36576e-06
3.1629e-07
3.32407e-07
5.75299e-07
1.36504e-06
3.16292e-07
2.3372e-05
2.33717e-05
5.75147e-07
3.16292e-07
1.36569e-06
3.32416e-07
5.75293e-07
3.16294e-07
1.365e-06
2.88225e-06
2.88292e-06
3.63573e-07
2.88174e-06
2.88242e-06
5.35261e-07
5.3599e-07
5.35988e-07
1.0916e-05
5.81346e-07
1.09173e-05
5.81338e-07
5.28201e-07
2.43137e-06
2.43229e-06
5.40833e-07
5.4083e-07
5.34573e-07
5.35517e-07
5.33635e-07
5.35658e-07
5.34573e-07
5.35517e-07
5.33634e-07
5.35658e-07
5.30398e-07
3.47218e-06
5.68207e-07
8.21749e-07
5.30397e-07
3.47221e-06
5.68206e-07
8.21714e-07
5.29522e-07
5.28379e-07
1.16685e-06
5.09603e-07
5.32664e-07
5.28347e-07
5.19222e-07
5.29522e-07
5.28379e-07
1.16699e-06
5.09603e-07
5.32664e-07
5.28347e-07
5.19224e-07
5.35261e-07
5.35989e-07
5.35988e-07
1.09162e-05
5.81325e-07
5.28201e-07
2.43183e-06
2.43199e-06
5.40834e-07
5.4083e-07
1.09169e-05
5.81319e-07
5.34573e-07
5.35517e-07
5.33635e-07
5.35658e-07
5.34573e-07
5.35517e-07
5.35658e-07
5.33635e-07
5.30398e-07
3.47253e-06
5.68204e-07
8.21899e-07
5.29522e-07
5.28379e-07
1.16711e-06
5.09603e-07
5.32663e-07
5.28347e-07
5.1923e-07
5.30398e-07
3.47262e-06
5.68202e-07
8.218e-07
5.29522e-07
5.28379e-07
5.09603e-07
1.16702e-06
5.28347e-07
5.32663e-07
5.19224e-07
5.35669e-07
5.35604e-07
5.3566e-07
5.3566e-07
5.35669e-07
5.35604e-07
5.3566e-07
5.3566e-07
5.35669e-07
5.35604e-07
5.3566e-07
5.3566e-07
5.28425e-07
5.28371e-07
5.09723e-07
5.09723e-07
5.284e-07
5.284e-07
5.09778e-07
5.28425e-07
5.2837e-07
5.09723e-07
5.09723e-07
5.284e-07
5.284e-07
5.09778e-07
5.28425e-07
5.28371e-07
5.09723e-07
5.09723e-07
5.284e-07
5.284e-07
5.09778e-07
5.28425e-07
5.2837e-07
5.09723e-07
5.09723e-07
5.284e-07
5.284e-07
5.09778e-07
5.34573e-07
5.35517e-07
5.35658e-07
5.33635e-07
5.29522e-07
5.28379e-07
1.16706e-06
5.09603e-07
5.32663e-07
5.28347e-07
5.19228e-07
5.30398e-07
3.47241e-06
5.68198e-07
8.21803e-07
5.29522e-07
5.28379e-07
5.09603e-07
1.16693e-06
5.28347e-07
5.32662e-07
5.19224e-07
5.30398e-07
3.47254e-06
5.68202e-07
8.21749e-07
5.35261e-07
5.35987e-07
5.35986e-07
1.09175e-05
5.81335e-07
5.28201e-07
2.43212e-06
2.43196e-06
5.4083e-07
5.40827e-07
1.09174e-05
5.81314e-07
5.34573e-07
5.35517e-07
5.35658e-07
5.33634e-07
5.29522e-07
5.28379e-07
5.09604e-07
1.16699e-06
5.28347e-07
5.32662e-07
5.19227e-07
5.29522e-07
5.28379e-07
5.09603e-07
1.16711e-06
5.28347e-07
5.32663e-07
5.1923e-07
5.30397e-07
3.47257e-06
5.68196e-07
8.21878e-07
5.30397e-07
3.47259e-06
5.68207e-07
8.21965e-07
5.28201e-07
2.43176e-06
2.43243e-06
5.40828e-07
5.40829e-07
1.09172e-05
5.81318e-07
1.09174e-05
5.81332e-07
1.2608e-05
1.6592e-05
1.26096e-05
1.65947e-05
2.52154e-06
2.52229e-06
4.84195e-07
2.37298e-06
2.37368e-06
2.05226e-05
1.7693e-05
2.0526e-05
1.7696e-05
4.79303e-07
2.30623e-06
2.30688e-06
2.33885e-06
2.33961e-06
1.10829e-06
3.88233e-06
9.3339e-07
4.60451e-06
5.43372e-07
1.2201e-06
4.95542e-07
4.85531e-07
5.25226e-07
1.20979e-06
4.8232e-07
5.43369e-07
1.22028e-06
4.95542e-07
4.85538e-07
5.25233e-07
1.21003e-06
4.8232e-07
1.16036e-06
5.40658e-06
4.81218e-06
1.2821e-06
1.16047e-06
5.40654e-06
4.8122e-06
1.28211e-06
5.50907e-07
4.74336e-07
1.19347e-06
4.5774e-07
1.2044e-06
4.69764e-07
5.66581e-07
5.50908e-07
4.74344e-07
1.19365e-06
4.5774e-07
1.20456e-06
4.69764e-07
5.66578e-07
2.52203e-06
2.52177e-06
4.84194e-07
2.37357e-06
2.37308e-06
1.26087e-05
1.6593e-05
2.05238e-05
1.76947e-05
4.79303e-07
2.30675e-06
2.30644e-06
2.33938e-06
2.33919e-06
2.05236e-05
1.76941e-05
5.43409e-07
1.22037e-06
4.95542e-07
4.85536e-07
5.25225e-07
1.21006e-06
4.8232e-07
1.10852e-06
3.88292e-06
9.33151e-07
4.60528e-06
5.43404e-07
4.95542e-07
1.22033e-06
4.85539e-07
5.25214e-07
4.82321e-07
1.21006e-06
1.16037e-06
5.40703e-06
4.81253e-06
1.28229e-06
5.50903e-07
4.74342e-07
1.19366e-06
4.5774e-07
1.20458e-06
4.69764e-07
5.66609e-07
1.16035e-06
5.4075e-06
4.81301e-06
1.28228e-06
5.50904e-07
4.74346e-07
4.57741e-07
1.19371e-06
4.69765e-07
1.20463e-06
5.66613e-07
1.10845e-06
3.88238e-06
9.33246e-07
4.60477e-06
5.43386e-07
4.95542e-07
1.22019e-06
4.85532e-07
5.25201e-07
4.8232e-07
1.20991e-06
1.10847e-06
3.88282e-06
9.33084e-07
4.605e-06
5.50901e-07
4.74333e-07
1.19347e-06
4.5774e-07
1.2044e-06
4.69764e-07
5.66589e-07
1.16039e-06
5.4066e-06
4.81197e-06
1.2822e-06
5.509e-07
4.74337e-07
4.5774e-07
1.19352e-06
4.69765e-07
1.20439e-06
5.66586e-07
1.1603e-06
5.40699e-06
4.81277e-06
1.28217e-06
2.52221e-06
2.5217e-06
4.84197e-07
2.3737e-06
2.37293e-06
1.26095e-05
1.65938e-05
2.05269e-05
1.76966e-05
4.79303e-07
2.30694e-06
2.30639e-06
2.33952e-06
2.33906e-06
2.05247e-05
1.76955e-05
5.4342e-07
4.95543e-07
1.22036e-06
4.85537e-07
5.25202e-07
4.8232e-07
1.21005e-06
1.10873e-06
3.88278e-06
9.33016e-07
4.60509e-06
1.10879e-06
3.88267e-06
9.33132e-07
4.60499e-06
5.50894e-07
4.74334e-07
4.57741e-07
1.19352e-06
4.69764e-07
1.20446e-06
5.66614e-07
5.50894e-07
4.74341e-07
4.5774e-07
1.19364e-06
4.69764e-07
1.20455e-06
5.6662e-07
1.16013e-06
5.40725e-06
4.81275e-06
1.28232e-06
1.16015e-06
5.40723e-06
4.81249e-06
1.28235e-06
1.26091e-05
1.65937e-05
1.26096e-05
1.65945e-05
4.79303e-07
2.30635e-06
2.30685e-06
2.33875e-06
2.33956e-06
2.0524e-05
1.76949e-05
2.05257e-05
1.76962e-05
2.12909e-05
2.31048e-05
2.12948e-05
2.31089e-05
2.31185e-06
2.31255e-06
4.53473e-07
2.35288e-06
2.35354e-06
2.44654e-05
2.35412e-05
2.44689e-05
2.35449e-05
4.50886e-07
2.44077e-06
2.44175e-06
2.38215e-06
2.38267e-06
1.43161e-06
5.59625e-06
1.32949e-06
6.13418e-06
5.87018e-07
1.1949e-06
4.46332e-07
4.44278e-07
5.73855e-07
1.20434e-06
4.35667e-07
5.87017e-07
1.19505e-06
4.46332e-07
4.44286e-07
5.73848e-07
1.20451e-06
4.35667e-07
1.4748e-06
6.77371e-06
6.30496e-06
1.5564e-06
1.47475e-06
6.77381e-06
6.30499e-06
1.55638e-06
5.93424e-07
4.35412e-07
1.23101e-06
4.15936e-07
1.21254e-06
4.25629e-07
6.03484e-07
5.93413e-07
4.3542e-07
1.23112e-06
4.15937e-07
1.21269e-06
4.2563e-07
6.03477e-07
2.31233e-06
2.31204e-06
4.53469e-07
2.3534e-06
2.35283e-06
2.1292e-05
2.31056e-05
2.44664e-05
2.35431e-05
4.50884e-07
2.44156e-06
2.4407e-06
2.38253e-06
2.38231e-06
2.44658e-05
2.35423e-05
5.8705e-07
1.19511e-06
4.46332e-07
4.44281e-07
5.73855e-07
1.20452e-06
4.35667e-07
1.43207e-06
5.59727e-06
1.32953e-06
6.13533e-06
5.8705e-07
4.46333e-07
1.19513e-06
4.44289e-07
5.73861e-07
4.35668e-07
1.20459e-06
1.47445e-06
6.77435e-06
6.30579e-06
1.55687e-06
5.93431e-07
4.35415e-07
1.23113e-06
4.15937e-07
1.2127e-06
4.2563e-07
6.03493e-07
1.47445e-06
6.77507e-06
6.3062e-06
1.55687e-06
5.93433e-07
4.35424e-07
4.15939e-07
1.2312e-06
4.25632e-07
1.21283e-06
6.03496e-07
1.43179e-06
5.59622e-06
1.32947e-06
6.13416e-06
5.8703e-07
4.46332e-07
1.19494e-06
4.4428e-07
5.73852e-07
4.35667e-07
1.20444e-06
1.43166e-06
5.59683e-06
1.32957e-06
6.13471e-06
5.93416e-07
4.35405e-07
1.23093e-06
4.15936e-07
1.21255e-06
4.25628e-07
6.03483e-07
1.47466e-06
6.77384e-06
6.30499e-06
1.55646e-06
5.93419e-07
4.35414e-07
4.15937e-07
1.23105e-06
4.2563e-07
1.21262e-06
6.03486e-07
1.47469e-06
6.77451e-06
6.30566e-06
1.55647e-06
2.31259e-06
2.31179e-06
4.53477e-07
2.35346e-06
2.35303e-06
2.12933e-05
2.31073e-05
2.447e-05
2.35465e-05
4.50889e-07
2.44147e-06
2.44118e-06
2.383e-06
2.38229e-06
2.44672e-05
2.35439e-05
5.87047e-07
4.46332e-07
1.19504e-06
4.44283e-07
5.73842e-07
4.35667e-07
1.20454e-06
1.43209e-06
5.59689e-06
1.32952e-06
6.1349e-06
1.43196e-06
5.59676e-06
1.32951e-06
6.13487e-06
5.93422e-07
4.35407e-07
4.15937e-07
1.23103e-06
4.25629e-07
1.21259e-06
6.03491e-07
5.93419e-07
4.35414e-07
4.15937e-07
1.23115e-06
4.2563e-07
1.21272e-06
6.03489e-07
1.47442e-06
6.77453e-06
6.3057e-06
1.55688e-06
1.47444e-06
6.77462e-06
6.30573e-06
1.5569e-06
2.12932e-05
2.31074e-05
2.12949e-05
2.3109e-05
4.50888e-07
2.44132e-06
2.44179e-06
2.38234e-06
2.38278e-06
2.44674e-05
2.3544e-05
2.44689e-05
2.35456e-05
2.46506e-05
2.49329e-05
2.46536e-05
2.49358e-05
2.47403e-06
2.47411e-06
4.30149e-07
2.53127e-06
2.53161e-06
2.48287e-05
2.49425e-05
2.48316e-05
2.49451e-05
4.28408e-07
2.61561e-06
2.61653e-06
2.55597e-06
2.55614e-06
1.66601e-06
6.92099e-06
1.59265e-06
7.31587e-06
6.15855e-07
1.24269e-06
4.0648e-07
4.10459e-07
6.08028e-07
1.26586e-06
3.97453e-07
6.1585e-07
1.24276e-06
4.06481e-07
4.10465e-07
6.08022e-07
1.266e-06
3.97454e-07
1.69135e-06
7.75897e-06
7.43377e-06
1.75065e-06
1.69132e-06
7.75931e-06
7.43374e-06
1.75062e-06
6.18766e-07
4.0288e-07
1.30176e-06
3.81328e-07
1.27761e-06
3.89075e-07
6.22809e-07
6.18761e-07
4.02887e-07
1.30192e-06
3.81329e-07
1.27769e-06
3.89076e-07
6.22804e-07
2.47405e-06
2.47403e-06
4.3014e-07
2.53153e-06
2.53119e-06
2.46509e-05
2.49331e-05
2.48295e-05
2.49431e-05
4.28404e-07
2.6164e-06
2.61535e-06
2.55609e-06
2.55593e-06
2.48289e-05
2.49425e-05
6.15884e-07
1.24277e-06
4.06481e-07
4.10457e-07
6.08039e-07
1.26601e-06
3.97455e-07
1.66648e-06
6.92227e-06
1.59235e-06
7.31721e-06
6.15886e-07
4.06483e-07
1.2429e-06
4.10471e-07
6.08032e-07
3.97456e-07
1.26607e-06
1.69108e-06
7.7601e-06
7.43472e-06
1.751e-06
6.18778e-07
4.02877e-07
1.30197e-06
3.8133e-07
1.27777e-06
3.89076e-07
6.22845e-07
1.69108e-06
7.76062e-06
7.43509e-06
1.751e-06
6.18779e-07
4.02893e-07
3.81332e-07
1.30199e-06
3.89078e-07
1.27783e-06
6.22845e-07
1.66609e-06
6.92102e-06
1.59272e-06
7.31594e-06
6.15862e-07
4.06481e-07
1.24268e-06
4.10461e-07
6.08027e-07
3.97454e-07
1.26593e-06
1.66609e-06
6.92168e-06
1.59273e-06
7.31657e-06
6.18766e-07
4.02867e-07
1.3017e-06
3.81328e-07
1.27754e-06
3.89073e-07
6.22814e-07
1.69139e-06
7.75939e-06
7.4338e-06
1.75069e-06
6.18766e-07
4.02883e-07
3.81329e-07
1.30185e-06
3.89076e-07
1.27761e-06
6.22818e-07
1.69139e-06
7.75998e-06
7.43443e-06
1.75069e-06
2.4747e-06
2.47378e-06
4.30154e-07
2.53193e-06
2.53121e-06
2.46524e-05
2.49344e-05
2.48326e-05
2.49464e-05
4.28414e-07
2.61623e-06
2.61607e-06
2.55664e-06
2.55575e-06
2.48302e-05
2.49439e-05
6.1588e-07
4.06482e-07
1.24279e-06
4.10458e-07
6.08027e-07
3.97455e-07
1.26602e-06
1.66647e-06
6.92172e-06
1.59233e-06
7.31666e-06
1.66649e-06
6.92182e-06
1.59235e-06
7.31676e-06
6.18771e-07
4.02873e-07
3.8133e-07
1.30187e-06
3.89075e-07
1.27762e-06
6.22838e-07
6.18774e-07
4.02879e-07
3.8133e-07
1.30195e-06
3.89077e-07
1.27772e-06
6.22837e-07
1.69106e-06
7.76009e-06
7.43452e-06
1.75099e-06
1.69108e-06
7.76026e-06
7.43465e-06
1.751e-06
2.46527e-05
2.49347e-05
2.46541e-05
2.4936e-05
4.28412e-07
2.61607e-06
2.61656e-06
2.55579e-06
2.55627e-06
2.48304e-05
2.49441e-05
2.48315e-05
2.49453e-05
2.47396e-05
2.44333e-05
2.47417e-05
2.44357e-05
2.63524e-06
2.63544e-06
4.08582e-07
2.67381e-06
2.6745e-06
2.38339e-05
2.43052e-05
2.38363e-05
2.43076e-05
4.06972e-07
2.75288e-06
2.75342e-06
2.69894e-06
2.69962e-06
1.80727e-06
7.85118e-06
1.77651e-06
8.09189e-06
6.25786e-07
1.31365e-06
3.73931e-07
3.82045e-07
6.25294e-07
1.33082e-06
3.66565e-07
6.25783e-07
1.31374e-06
3.73933e-07
3.8205e-07
6.2529e-07
1.33097e-06
3.66566e-07
1.81763e-06
8.35381e-06
8.16521e-06
1.87133e-06
1.81761e-06
8.35424e-06
8.16537e-06
1.87131e-06
6.25719e-07
3.75307e-07
1.36699e-06
3.51455e-07
1.34171e-06
3.59065e-07
6.2592e-07
6.25717e-07
3.75312e-07
1.36718e-06
3.51457e-07
1.34191e-06
3.59066e-07
6.25917e-07
2.63542e-06
2.6352e-06
4.08574e-07
2.67437e-06
2.67317e-06
2.47396e-05
2.44332e-05
2.38346e-05
2.43061e-05
4.06966e-07
2.75334e-06
2.75247e-06
2.69959e-06
2.69927e-06
2.38341e-05
2.43056e-05
6.25807e-07
1.31378e-06
3.73932e-07
3.82038e-07
6.25325e-07
1.33101e-06
3.66567e-07
1.80733e-06
7.85256e-06
1.77637e-06
8.09317e-06
6.25807e-07
3.73935e-07
1.31389e-06
3.82057e-07
6.25328e-07
3.66569e-07
1.33106e-06
1.81738e-06
8.35519e-06
8.16641e-06
1.87164e-06
6.25731e-07
3.75299e-07
1.36721e-06
3.51458e-07
1.34194e-06
3.59066e-07
6.25953e-07
1.81737e-06
8.35544e-06
8.16666e-06
1.87163e-06
6.25732e-07
3.75319e-07
3.5146e-07
1.36717e-06
3.59069e-07
1.34207e-06
6.25953e-07
1.80734e-06
7.85129e-06
1.77658e-06
8.09197e-06
6.25791e-07
3.73932e-07
1.31366e-06
3.82048e-07
6.253e-07
3.66566e-07
1.33089e-06
1.80732e-06
7.85185e-06
1.77658e-06
8.09251e-06
6.25722e-07
3.7529e-07
1.36689e-06
3.51455e-07
1.34177e-06
3.59063e-07
6.25925e-07
1.81768e-06
8.35433e-06
8.16548e-06
1.87137e-06
6.2572e-07
3.7531e-07
3.51456e-07
1.3671e-06
3.59066e-07
1.34182e-06
6.25926e-07
1.81766e-06
8.3548e-06
8.16597e-06
1.87136e-06
2.63597e-06
2.63505e-06
4.08588e-07
2.6741e-06
2.67401e-06
2.47409e-05
2.44344e-05
2.38372e-05
2.43089e-05
4.06979e-07
2.75339e-06
2.75294e-06
2.70008e-06
2.6992e-06
2.38353e-05
2.43069e-05
6.25801e-07
3.73933e-07
1.31377e-06
3.8204e-07
6.25323e-07
3.66566e-07
1.331e-06
1.80732e-06
7.85196e-06
1.77636e-06
8.09263e-06
1.80734e-06
7.85214e-06
1.77637e-06
8.09287e-06
6.25724e-07
3.75297e-07
3.51458e-07
1.36712e-06
3.59065e-07
1.34182e-06
6.25945e-07
6.25728e-07
3.75301e-07
3.51457e-07
1.36721e-06
3.59067e-07
1.34194e-06
6.25947e-07
1.81736e-06
8.35495e-06
8.16609e-06
1.87162e-06
1.81738e-06
8.35523e-06
8.16635e-06
1.87163e-06
2.47412e-05
2.44347e-05
2.47422e-05
2.44356e-05
4.06977e-07
2.75296e-06
2.75348e-06
2.69923e-06
2.69974e-06
2.38355e-05
2.43071e-05
2.38362e-05
2.4308e-05
2.3674e-05
2.33379e-05
2.36761e-05
2.33401e-05
2.75863e-06
2.75918e-06
3.84935e-07
2.74572e-06
2.74627e-06
2.3258e-05
2.32866e-05
2.32601e-05
2.32886e-05
3.82684e-07
2.73337e-06
2.73395e-06
2.73442e-06
2.73498e-06
1.86749e-06
8.40268e-06
1.88446e-06
8.49723e-06
6.17565e-07
1.36892e-06
3.43926e-07
3.53822e-07
6.25922e-07
1.35411e-06
3.36836e-07
6.17566e-07
1.36909e-06
3.43927e-07
3.53826e-07
6.2592e-07
1.35428e-06
3.36838e-07
1.84364e-06
8.61814e-06
8.52284e-06
1.75422e-06
1.84364e-06
8.61858e-06
8.5232e-06
1.75422e-06
6.12121e-07
3.47221e-07
1.3297e-06
3.2565e-07
1.3488e-06
3.30624e-07
5.89263e-07
6.12125e-07
3.47227e-07
1.32985e-06
3.25652e-07
1.34896e-06
3.30626e-07
5.89263e-07
2.75914e-06
2.75869e-06
3.84926e-07
2.74617e-06
2.74539e-06
2.36742e-05
2.33382e-05
2.32589e-05
2.32875e-05
3.82682e-07
2.73389e-06
2.73322e-06
2.73495e-06
2.73461e-06
2.32577e-05
2.32868e-05
6.17608e-07
1.36913e-06
3.43927e-07
3.5381e-07
6.25953e-07
1.35427e-06
3.36839e-07
1.86785e-06
8.40394e-06
1.8845e-06
8.49834e-06
6.17605e-07
3.4393e-07
1.36921e-06
3.53833e-07
6.25953e-07
3.36841e-07
1.35424e-06
1.84339e-06
8.61942e-06
8.52417e-06
1.75455e-06
6.1213e-07
3.47211e-07
1.32989e-06
3.25653e-07
1.34905e-06
3.30626e-07
5.893e-07
1.84336e-06
8.61963e-06
8.5244e-06
1.75452e-06
6.12129e-07
3.47234e-07
3.25655e-07
1.32995e-06
3.30629e-07
1.34917e-06
5.89297e-07
1.86756e-06
8.40285e-06
1.88451e-06
8.4973e-06
6.17577e-07
3.43927e-07
1.36901e-06
3.53824e-07
6.25926e-07
3.36837e-07
1.35418e-06
1.86753e-06
8.40323e-06
1.8845e-06
8.4977e-06
6.12125e-07
3.47202e-07
1.32967e-06
3.2565e-07
1.34887e-06
3.30622e-07
5.89274e-07
1.84372e-06
8.61861e-06
8.52336e-06
1.75428e-06
6.12115e-07
3.47225e-07
3.25651e-07
1.32976e-06
3.30625e-07
1.34886e-06
5.89273e-07
1.84368e-06
8.61894e-06
8.52364e-06
1.75425e-06
2.75954e-06
2.75872e-06
3.84941e-07
2.74629e-06
2.74578e-06
2.36755e-05
2.33394e-05
2.32607e-05
2.32898e-05
3.82691e-07
2.73412e-06
2.73349e-06
2.73544e-06
2.73453e-06
2.32594e-05
2.3288e-05
6.17598e-07
3.43928e-07
1.36912e-06
3.53811e-07
6.25949e-07
3.36838e-07
1.35428e-06
1.86784e-06
8.40338e-06
1.88449e-06
8.49785e-06
1.86787e-06
8.40368e-06
1.8845e-06
8.49823e-06
6.12119e-07
3.4721e-07
3.25653e-07
1.32976e-06
3.30624e-07
1.34886e-06
5.89287e-07
6.1213e-07
3.47211e-07
3.25652e-07
1.32987e-06
3.30626e-07
1.34898e-06
5.89288e-07
1.84334e-06
8.6191e-06
8.52378e-06
1.75451e-06
1.84337e-06
8.61951e-06
8.52418e-06
1.75454e-06
2.36757e-05
2.33396e-05
2.36764e-05
2.33402e-05
3.82688e-07
2.7335e-06
2.73402e-06
2.73456e-06
2.73507e-06
2.32596e-05
2.32882e-05
2.32602e-05
2.32889e-05
2.32669e-05
2.33224e-05
2.32689e-05
2.33251e-05
2.75167e-06
2.75225e-06
3.65336e-07
2.82042e-06
2.82111e-06
2.33613e-05
2.33413e-05
2.33638e-05
2.33435e-05
3.65215e-07
2.86791e-06
2.86868e-06
2.83992e-06
2.84059e-06
1.71118e-06
8.6541e-06
1.73821e-06
8.73675e-06
5.75788e-07
1.33038e-06
3.22024e-07
3.35591e-07
5.85025e-07
1.34016e-06
3.19601e-07
5.75786e-07
1.33054e-06
3.22025e-07
3.35596e-07
5.85025e-07
1.34031e-06
3.19602e-07
1.71108e-06
8.78121e-06
8.75531e-06
1.71164e-06
1.71108e-06
8.78178e-06
8.75583e-06
1.71164e-06
5.75432e-07
3.34134e-07
1.35906e-06
3.17239e-07
1.34877e-06
3.18104e-07
5.74725e-07
5.75431e-07
3.3414e-07
1.35922e-06
3.17241e-07
1.34893e-06
3.18105e-07
5.74723e-07
2.75226e-06
2.75203e-06
3.65328e-07
2.82098e-06
2.82015e-06
2.32673e-05
2.33217e-05
2.33627e-05
2.33427e-05
3.65208e-07
2.86855e-06
2.86796e-06
2.84054e-06
2.84028e-06
2.33603e-05
2.3341e-05
5.758e-07
1.33062e-06
3.22025e-07
3.35579e-07
5.85047e-07
1.34034e-06
3.19603e-07
1.71108e-06
8.65529e-06
1.73814e-06
8.73744e-06
5.75801e-07
3.22028e-07
1.33073e-06
3.35604e-07
5.85048e-07
3.19605e-07
1.34036e-06
1.71089e-06
8.78248e-06
8.7567e-06
1.71154e-06
5.75436e-07
3.34123e-07
1.35933e-06
3.17241e-07
1.349e-06
3.18105e-07
5.74728e-07
1.71089e-06
8.78215e-06
8.75657e-06
1.71154e-06
5.75439e-07
3.34148e-07
3.17243e-07
1.35942e-06
3.18108e-07
1.34911e-06
5.74729e-07
1.71121e-06
8.65428e-06
1.73826e-06
8.73646e-06
5.75796e-07
3.22024e-07
1.33045e-06
3.35595e-07
5.85024e-07
3.19602e-07
1.34022e-06
1.7112e-06
8.65443e-06
1.73824e-06
8.73701e-06
5.75432e-07
3.34116e-07
1.35916e-06
3.17239e-07
1.34883e-06
3.18102e-07
5.74727e-07
1.71111e-06
8.78123e-06
8.7556e-06
1.71166e-06
5.75434e-07
3.34139e-07
3.1724e-07
1.35912e-06
3.18104e-07
1.34883e-06
5.74731e-07
1.7111e-06
8.782e-06
8.75608e-06
1.71165e-06
2.75294e-06
2.75183e-06
3.65343e-07
2.82109e-06
2.82058e-06
2.32685e-05
2.33242e-05
2.33632e-05
2.3344e-05
3.65222e-07
2.86883e-06
2.86811e-06
2.84121e-06
2.84008e-06
2.33631e-05
2.33431e-05
5.75787e-07
3.22025e-07
1.33057e-06
3.35579e-07
5.85042e-07
3.19602e-07
1.34034e-06
1.71106e-06
8.65458e-06
1.73812e-06
8.73715e-06
1.71107e-06
8.65501e-06
1.73815e-06
8.73762e-06
5.75429e-07
3.34125e-07
3.17241e-07
1.35913e-06
3.18103e-07
1.34882e-06
5.74721e-07
5.75428e-07
3.34123e-07
3.1724e-07
1.35926e-06
3.18104e-07
1.34897e-06
5.74715e-07
1.71087e-06
8.78216e-06
8.75622e-06
1.71152e-06
1.71088e-06
8.78265e-06
8.7567e-06
1.71152e-06
2.32686e-05
2.33244e-05
2.32693e-05
2.33251e-05
3.65221e-07
2.86811e-06
2.86879e-06
2.84011e-06
2.8407e-06
2.33632e-05
2.33432e-05
2.3364e-05
2.33439e-05
2.33661e-05
2.33688e-05
2.33685e-05
2.33714e-05
2.87457e-06
2.87533e-06
3.63659e-07
2.87994e-06
2.88075e-06
2.33698e-05
2.33697e-05
2.33722e-05
2.33721e-05
3.63882e-07
2.88134e-06
2.88213e-06
2.88118e-06
2.88198e-06
1.71361e-06
8.78677e-06
1.71293e-06
8.79001e-06
5.75012e-07
1.36252e-06
3.16764e-07
3.32647e-07
5.74967e-07
1.36401e-06
3.16515e-07
5.75012e-07
1.3627e-06
3.16765e-07
3.32652e-07
5.74965e-07
1.3642e-06
3.16516e-07
1.71429e-06
8.7898e-06
8.7899e-06
1.71402e-06
1.7143e-06
8.79043e-06
8.79055e-06
1.71403e-06
5.75213e-07
3.32525e-07
1.36474e-06
3.16327e-07
1.36502e-06
3.16389e-07
5.75108e-07
5.75214e-07
3.3253e-07
1.36493e-06
3.16329e-07
1.36521e-06
3.1639e-07
5.75108e-07
2.87524e-06
2.87505e-06
3.63651e-07
2.88058e-06
2.87996e-06
2.33654e-05
2.33677e-05
2.33711e-05
2.33711e-05
3.63876e-07
2.88198e-06
2.88147e-06
2.88184e-06
2.88141e-06
2.33686e-05
2.33688e-05
5.75014e-07
1.3628e-06
3.16765e-07
3.32635e-07
5.74965e-07
1.36432e-06
3.16517e-07
1.71344e-06
8.78724e-06
1.71274e-06
8.79037e-06
5.75015e-07
3.16768e-07
1.36295e-06
3.32661e-07
5.74968e-07
3.16519e-07
1.36441e-06
1.71409e-06
8.79112e-06
8.79127e-06
1.71388e-06
5.75213e-07
3.32513e-07
1.36505e-06
3.16329e-07
1.36531e-06
3.1639e-07
5.75111e-07
1.71409e-06
8.79079e-06
8.79097e-06
1.71388e-06
5.75215e-07
3.32538e-07
3.16331e-07
1.36514e-06
3.16393e-07
1.36546e-06
5.75112e-07
1.71363e-06
8.78633e-06
1.71295e-06
8.7895e-06
5.75019e-07
3.16765e-07
1.3626e-06
3.32651e-07
5.7497e-07
3.16516e-07
1.3641e-06
1.71362e-06
8.78699e-06
1.71295e-06
8.79023e-06
5.75216e-07
3.32507e-07
1.36487e-06
3.16327e-07
1.36519e-06
3.16388e-07
5.75112e-07
1.71432e-06
8.78994e-06
8.7901e-06
1.71405e-06
5.75217e-07
3.32529e-07
3.16328e-07
1.36483e-06
3.1639e-07
1.36511e-06
5.75114e-07
1.71432e-06
8.79066e-06
8.79077e-06
1.71404e-06
2.87585e-06
2.87477e-06
3.63667e-07
2.88083e-06
2.88013e-06
2.33679e-05
2.33706e-05
2.33715e-05
2.33717e-05
3.63891e-07
2.88232e-06
2.88152e-06
2.88225e-06
2.88137e-06
2.33714e-05