/*--------------------------------*- C++ -*----------------------------------*\
| =========                 |                                                 |
| \\      /  F ield         | OpenFOAM: The Open Source CFD Toolbox           |
|  \\    /   O peration     | Version:  2206                                  |
|   \\  /    A nd           | Website:  www.openfoam.com                      |
|    \\/     M anipulation  |                                                 |
\*---------------------------------------------------------------------------*/
FoamFile
{
    version     2.0;
    format      ascii;
    arch        "LSB;label=32;scalar=64";
    class       volScalarField;
    location    "24";
    object      k;
}
// * * * * * * * * * * * * * * * * * * * * * * * * * * * * * * * * * * * * * //

dimensions      [0 2 -2 0 0 0 0];

internalField   nonuniform List<scalar> 
28688
(
3.58921e-05
3.58907e-05
3.58907e-05
3.59958e-05
3.39245e-05
3.38861e-05
3.38861e-05
3.39628e-05
3.21561e-05
3.20095e-05
3.20095e-05
3.19567e-05
3.05644e-05
3.02486e-05
3.02485e-05
2.99965e-05
2.89377e-05
2.84639e-05
2.84637e-05
2.81154e-05
2.78542e-05
2.72914e-05
2.72912e-05
2.66761e-05
2.76634e-05
2.72204e-05
2.72203e-05
2.67003e-05
2.76539e-05
2.72363e-05
2.72362e-05
2.67477e-05
2.7654e-05
2.7238e-05
2.72379e-05
2.67515e-05
2.76541e-05
2.72383e-05
2.72382e-05
2.67519e-05
2.76541e-05
2.72385e-05
2.72384e-05
2.6752e-05
2.76541e-05
2.72386e-05
2.72385e-05
2.67519e-05
3.63068e-05
3.62912e-05
3.62912e-05
3.63068e-05
3.62912e-05
3.62912e-05
3.64231e-05
3.64231e-05
3.64231e-05
3.64231e-05
3.62912e-05
3.62912e-05
3.63068e-05
3.62912e-05
3.62912e-05
3.63068e-05
3.59958e-05
3.42685e-05
3.58907e-05
3.58907e-05
3.43769e-05
3.43769e-05
3.59958e-05
3.42685e-05
3.58907e-05
3.58907e-05
3.43769e-05
3.43769e-05
3.58907e-05
3.4377e-05
3.43769e-05
3.59959e-05
3.42685e-05
3.58907e-05
3.4377e-05
3.43769e-05
3.42685e-05
3.39629e-05
3.22637e-05
3.3886e-05
3.3886e-05
3.2475e-05
3.24749e-05
3.39629e-05
3.22637e-05
3.3886e-05
3.38859e-05
3.24751e-05
3.24749e-05
3.3886e-05
3.24752e-05
3.2475e-05
3.39628e-05
3.22636e-05
3.3886e-05
3.24752e-05
3.24751e-05
3.22636e-05
3.19568e-05
3.02926e-05
3.20094e-05
3.20093e-05
3.0661e-05
3.06609e-05
3.19568e-05
3.02927e-05
3.20094e-05
3.20092e-05
3.06611e-05
3.06608e-05
3.20093e-05
3.06613e-05
3.0661e-05
3.19567e-05
3.02925e-05
3.20094e-05
3.06613e-05
3.06611e-05
3.02925e-05
2.99966e-05
2.84106e-05
3.02483e-05
3.02481e-05
2.89399e-05
2.89397e-05
2.99966e-05
2.84108e-05
3.02484e-05
3.0248e-05
2.89401e-05
2.89396e-05
3.02482e-05
2.89404e-05
2.89399e-05
2.99965e-05
2.84105e-05
3.02484e-05
2.89403e-05
2.89401e-05
2.84105e-05
2.81155e-05
2.67629e-05
2.84634e-05
2.84632e-05
2.74292e-05
2.7429e-05
2.81156e-05
2.6763e-05
2.84636e-05
2.84631e-05
2.74294e-05
2.74288e-05
2.84633e-05
2.74297e-05
2.74292e-05
2.81154e-05
2.67627e-05
2.84636e-05
2.74295e-05
2.74294e-05
2.67627e-05
2.66764e-05
2.66936e-05
2.7291e-05
2.72908e-05
2.72161e-05
2.7216e-05
2.66765e-05
2.66937e-05
2.72912e-05
2.72906e-05
2.72163e-05
2.72158e-05
2.7291e-05
2.72165e-05
2.72161e-05
2.66763e-05
2.66935e-05
2.72912e-05
2.72164e-05
2.72163e-05
2.66933e-05
2.67006e-05
2.67501e-05
2.72203e-05
2.72202e-05
2.72347e-05
2.72346e-05
2.67007e-05
2.67501e-05
2.72205e-05
2.72201e-05
2.72349e-05
2.72344e-05
2.72203e-05
2.7235e-05
2.72347e-05
2.67004e-05
2.67499e-05
2.72206e-05
2.72349e-05
2.7235e-05
2.67502e-05
2.67478e-05
2.67546e-05
2.72362e-05
2.72361e-05
2.72375e-05
2.72375e-05
2.67478e-05
2.67546e-05
2.72364e-05
2.72359e-05
2.72378e-05
2.72373e-05
2.72362e-05
2.72379e-05
2.72376e-05
2.67476e-05
2.67543e-05
2.72365e-05
2.72378e-05
2.72378e-05
2.67547e-05
2.67517e-05
2.67552e-05
2.72378e-05
2.72377e-05
2.7238e-05
2.72379e-05
2.67517e-05
2.67551e-05
2.7238e-05
2.72375e-05
2.72383e-05
2.72377e-05
2.72378e-05
2.72383e-05
2.7238e-05
2.67514e-05
2.67549e-05
2.72381e-05
2.72382e-05
2.72383e-05
2.67552e-05
2.67521e-05
2.67552e-05
2.72382e-05
2.72381e-05
2.72382e-05
2.72382e-05
2.6752e-05
2.67552e-05
2.72384e-05
2.72379e-05
2.72385e-05
2.7238e-05
2.72382e-05
2.72385e-05
2.72383e-05
2.67518e-05
2.6755e-05
2.72385e-05
2.72384e-05
2.72386e-05
2.67553e-05
2.67522e-05
2.67552e-05
2.72384e-05
2.72384e-05
2.72383e-05
2.72382e-05
2.67521e-05
2.67552e-05
2.72387e-05
2.72382e-05
2.72385e-05
2.7238e-05
2.72385e-05
2.72386e-05
2.72383e-05
2.67519e-05
2.6755e-05
2.72387e-05
2.72385e-05
2.72386e-05
2.67553e-05
2.67522e-05
2.67555e-05
2.72384e-05
2.72383e-05
2.72385e-05
2.67521e-05
2.72387e-05
2.72381e-05
2.72387e-05
2.72382e-05
2.72384e-05
2.72385e-05
2.67519e-05
2.67552e-05
2.72387e-05
2.72387e-05
2.72388e-05
2.67555e-05
3.73775e-05
3.73766e-05
3.73772e-05
3.73772e-05
3.737e-05
3.73777e-05
3.73043e-05
3.73769e-05
3.737e-05
3.73777e-05
3.73769e-05
3.73043e-05
3.7374e-05
3.72959e-05
3.72959e-05
3.58814e-05
4.0883e-05
3.66036e-05
4.51365e-05
5.5115e-05
6.48744e-05
3.58815e-05
4.08823e-05
3.66038e-05
4.51362e-05
3.58921e-05
3.58921e-05
3.58921e-05
3.43997e-05
3.43997e-05
3.43997e-05
3.43997e-05
3.52761e-05
3.5632e-05
3.58921e-05
3.5377e-05
3.60478e-05
3.42467e-05
3.53827e-05
5.51171e-05
6.48775e-05
3.52761e-05
3.58921e-05
3.56318e-05
3.5377e-05
3.60477e-05
3.53827e-05
3.42475e-05
3.65919e-05
3.65923e-05
3.52789e-05
3.40672e-05
3.40665e-05
3.39785e-05
5.13713e-05
3.46731e-05
5.46106e-05
7.65651e-05
8.08522e-05
3.39805e-05
5.13724e-05
3.46733e-05
5.4611e-05
3.39245e-05
3.39245e-05
3.39245e-05
3.25944e-05
3.25943e-05
3.25943e-05
3.25943e-05
3.30576e-05
3.24693e-05
3.39256e-05
3.34065e-05
3.38944e-05
3.159e-05
3.3466e-05
7.65673e-05
8.08553e-05
3.30576e-05
3.39256e-05
3.24681e-05
3.34065e-05
3.38941e-05
3.3466e-05
3.15921e-05
3.17297e-05
3.17288e-05
3.3262e-05
3.09297e-05
3.09282e-05
3.22503e-05
5.9186e-05
3.29173e-05
6.14163e-05
8.44175e-05
8.50598e-05
3.22529e-05
5.91882e-05
3.29153e-05
6.14179e-05
3.21561e-05
3.21561e-05
3.21561e-05
3.09314e-05
3.09313e-05
3.09313e-05
3.09313e-05
3.07839e-05
3.05062e-05
3.21371e-05
3.15446e-05
3.16391e-05
2.98846e-05
3.16985e-05
8.44198e-05
8.50621e-05
3.07838e-05
3.2137e-05
3.05049e-05
3.15445e-05
3.16386e-05
3.16985e-05
2.98873e-05
3.02209e-05
3.02199e-05
3.12659e-05
2.99894e-05
2.99881e-05
3.07682e-05
6.43781e-05
3.13303e-05
6.56844e-05
8.46198e-05
8.39187e-05
3.07715e-05
6.43801e-05
3.13277e-05
6.56873e-05
3.05645e-05
3.05644e-05
3.05645e-05
2.93601e-05
2.936e-05
2.936e-05
2.936e-05
2.8605e-05
2.91471e-05
3.0492e-05
2.98374e-05
2.94059e-05
2.86599e-05
3.01043e-05
8.46212e-05
8.39199e-05
2.86049e-05
3.0492e-05
2.9146e-05
2.98374e-05
2.94053e-05
3.01042e-05
2.86614e-05
2.99429e-05
2.99418e-05
2.93559e-05
3.0034e-05
3.00328e-05
2.93143e-05
6.73577e-05
3.00596e-05
6.78628e-05
8.21726e-05
8.13858e-05
2.93154e-05
6.73605e-05
3.006e-05
6.78659e-05
2.89377e-05
2.89377e-05
2.89377e-05
2.80099e-05
2.80099e-05
2.80098e-05
2.80098e-05
2.64584e-05
2.81161e-05
2.88165e-05
2.80246e-05
2.73276e-05
2.75128e-05
2.84081e-05
8.21732e-05
8.13864e-05
2.64581e-05
2.88164e-05
2.81141e-05
2.80245e-05
2.73272e-05
2.8408e-05
2.75134e-05
3.04106e-05
3.041e-05
2.74184e-05
3.06083e-05
3.06077e-05
2.88712e-05
6.86905e-05
2.87882e-05
6.91294e-05
8.1214e-05
8.1343e-05
2.88726e-05
6.86934e-05
2.87877e-05
6.9132e-05
2.78543e-05
2.78542e-05
2.78542e-05
2.76773e-05
2.76773e-05
2.76772e-05
2.76772e-05
2.57023e-05
2.74383e-05
2.76649e-05
2.72317e-05
2.57088e-05
2.8007e-05
2.75725e-05
8.12137e-05
8.13407e-05
2.57022e-05
2.76649e-05
2.74387e-05
2.72316e-05
2.57086e-05
2.75724e-05
2.80082e-05
3.16471e-05
3.16468e-05
2.66299e-05
3.26899e-05
3.26903e-05
2.91307e-05
6.93966e-05
2.91001e-05
6.9414e-05
8.14461e-05
8.14529e-05
2.91315e-05
6.93999e-05
2.90996e-05
6.94169e-05
2.76635e-05
2.76635e-05
2.76635e-05
2.7654e-05
2.7654e-05
2.76539e-05
2.7654e-05
2.58703e-05
2.86294e-05
2.74923e-05
2.72279e-05
2.58382e-05
2.87061e-05
2.7489e-05
8.14432e-05
8.1449e-05
2.58704e-05
2.74922e-05
2.86283e-05
2.72278e-05
2.58382e-05
2.7489e-05
2.87059e-05
3.34722e-05
3.34733e-05
2.67381e-05
3.356e-05
3.35611e-05
2.91426e-05
6.94185e-05
2.91431e-05
6.94164e-05
8.14556e-05
8.14551e-05
2.91435e-05
6.94215e-05
2.91437e-05
6.94193e-05
2.7654e-05
2.76539e-05
2.7654e-05
2.7654e-05
2.7654e-05
2.76539e-05
2.7654e-05
2.5885e-05
2.87345e-05
2.74882e-05
2.72373e-05
2.58834e-05
2.87333e-05
2.74884e-05
8.14522e-05
8.14514e-05
2.58852e-05
2.74881e-05
2.87345e-05
2.72372e-05
2.58835e-05
2.74884e-05
2.87335e-05
3.3591e-05
3.35922e-05
2.67536e-05
3.35901e-05
3.35913e-05
2.91442e-05
6.94183e-05
2.91459e-05
6.94163e-05
8.14558e-05
8.14552e-05
2.91452e-05
6.94213e-05
2.91467e-05
6.94191e-05
2.76542e-05
2.76541e-05
2.76542e-05
2.76541e-05
2.76541e-05
2.76541e-05
2.76541e-05
2.5887e-05
2.87385e-05
2.74886e-05
2.72382e-05
2.58865e-05
2.87353e-05
2.74888e-05
8.14523e-05
8.14514e-05
2.58872e-05
2.74886e-05
2.87385e-05
2.72381e-05
2.58867e-05
2.74887e-05
2.87356e-05
3.35926e-05
3.35938e-05
2.67551e-05
3.35911e-05
3.35923e-05
2.91444e-05
6.94178e-05
2.91465e-05
6.94151e-05
8.14558e-05
8.14552e-05
2.91455e-05
6.94208e-05
2.91473e-05
6.94184e-05
2.76542e-05
2.76542e-05
2.76542e-05
2.76541e-05
2.76542e-05
2.76541e-05
2.76541e-05
2.58876e-05
2.87391e-05
2.74888e-05
2.72385e-05
2.58876e-05
2.87355e-05
2.74889e-05
8.14523e-05
8.14514e-05
2.5888e-05
2.74887e-05
2.87392e-05
2.72384e-05
2.58879e-05
2.74889e-05
2.87359e-05
3.3593e-05
3.35942e-05
2.67553e-05
3.35913e-05
3.35925e-05
2.91444e-05
6.94172e-05
2.91465e-05
6.94153e-05
8.14558e-05
8.14553e-05
2.91455e-05
6.94203e-05
2.91473e-05
6.9418e-05
2.76543e-05
2.76542e-05
2.76542e-05
2.76541e-05
2.76542e-05
2.76541e-05
2.76541e-05
2.58872e-05
2.87391e-05
2.74888e-05
2.72387e-05
2.58876e-05
2.87355e-05
2.74889e-05
8.14523e-05
8.14514e-05
2.58877e-05
2.74888e-05
2.87392e-05
2.72386e-05
2.58877e-05
2.74889e-05
2.87359e-05
3.3593e-05
3.35942e-05
2.67553e-05
3.35913e-05
3.35925e-05
2.91444e-05
6.94176e-05
2.91465e-05
6.94156e-05
8.14559e-05
8.14553e-05
2.91455e-05
6.942e-05
2.91473e-05
6.94177e-05
2.76543e-05
2.76542e-05
2.76542e-05
2.76543e-05
2.76546e-05
2.76543e-05
2.76543e-05
2.58874e-05
2.87391e-05
2.74888e-05
2.72386e-05
2.58873e-05
2.87355e-05
2.74889e-05
8.14523e-05
8.14514e-05
2.58876e-05
2.74888e-05
2.87392e-05
2.72386e-05
2.58877e-05
2.74889e-05
2.87359e-05
3.3593e-05
3.35942e-05
2.67553e-05
3.35913e-05
3.35925e-05
3.7374e-05
3.72959e-05
3.72959e-05
5.3112e-05
3.71932e-05
5.31139e-05
3.71932e-05
3.7093e-05
3.72444e-05
3.72448e-05
3.71762e-05
3.71762e-05
3.737e-05
3.73777e-05
3.73043e-05
3.73769e-05
3.737e-05
3.73777e-05
3.73043e-05
3.73769e-05
3.71732e-05
3.94122e-05
3.7168e-05
3.67255e-05
3.71732e-05
3.9412e-05
3.7168e-05
3.67256e-05
3.70961e-05
3.71022e-05
3.60311e-05
3.64212e-05
3.71636e-05
3.71107e-05
3.63053e-05
3.70961e-05
3.71022e-05
3.60313e-05
3.64212e-05
3.71636e-05
3.71107e-05
3.63054e-05
3.73741e-05
3.72959e-05
3.72959e-05
5.31121e-05
3.71933e-05
3.7093e-05
3.7245e-05
3.72443e-05
3.71762e-05
3.71762e-05
5.31136e-05
3.71933e-05
3.737e-05
3.73777e-05
3.73043e-05
3.73769e-05
3.737e-05
3.73777e-05
3.73769e-05
3.73043e-05
3.71732e-05
3.94125e-05
3.7168e-05
3.67258e-05
3.70961e-05
3.71022e-05
3.6031e-05
3.64212e-05
3.71636e-05
3.71107e-05
3.63054e-05
3.71732e-05
3.94128e-05
3.7168e-05
3.67255e-05
3.70961e-05
3.71022e-05
3.64212e-05
3.60311e-05
3.71107e-05
3.71636e-05
3.63054e-05
3.73775e-05
3.73766e-05
3.73772e-05
3.73772e-05
3.73775e-05
3.73766e-05
3.73772e-05
3.73772e-05
3.73775e-05
3.73766e-05
3.73772e-05
3.73772e-05
3.7113e-05
3.71097e-05
3.64241e-05
3.64241e-05
3.71122e-05
3.71122e-05
3.6426e-05
3.7113e-05
3.71097e-05
3.64241e-05
3.64241e-05
3.71122e-05
3.71122e-05
3.6426e-05
3.7113e-05
3.71097e-05
3.64241e-05
3.64241e-05
3.71122e-05
3.71122e-05
3.6426e-05
3.7113e-05
3.71097e-05
3.64241e-05
3.64241e-05
3.71122e-05
3.71122e-05
3.6426e-05
3.737e-05
3.73777e-05
3.73769e-05
3.73043e-05
3.70961e-05
3.71022e-05
3.60309e-05
3.64212e-05
3.71636e-05
3.71107e-05
3.63054e-05
3.71732e-05
3.94122e-05
3.7168e-05
3.67257e-05
3.70961e-05
3.71022e-05
3.64212e-05
3.60313e-05
3.71107e-05
3.71636e-05
3.63054e-05
3.71732e-05
3.94128e-05
3.7168e-05
3.67255e-05
3.7374e-05
3.72959e-05
3.72959e-05
5.31143e-05
3.71933e-05
3.7093e-05
3.72448e-05
3.72449e-05
3.71762e-05
3.71762e-05
5.31145e-05
3.71933e-05
3.737e-05
3.73777e-05
3.73769e-05
3.73043e-05
3.70961e-05
3.71022e-05
3.64212e-05
3.60313e-05
3.71107e-05
3.71636e-05
3.63054e-05
3.70961e-05
3.71022e-05
3.64212e-05
3.60313e-05
3.71107e-05
3.71636e-05
3.63054e-05
3.71732e-05
3.94127e-05
3.7168e-05
3.67255e-05
3.71732e-05
3.94127e-05
3.7168e-05
3.67258e-05
3.7093e-05
3.72445e-05
3.72453e-05
3.71762e-05
3.71762e-05
5.31142e-05
3.71933e-05
5.31141e-05
3.71932e-05
5.5115e-05
6.48739e-05
5.51168e-05
6.48769e-05
3.65918e-05
3.65928e-05
3.52789e-05
3.40672e-05
3.40662e-05
7.47111e-05
6.7692e-05
7.47148e-05
6.76959e-05
3.49733e-05
3.20509e-05
3.20494e-05
3.34733e-05
3.34735e-05
3.58812e-05
4.08823e-05
3.66038e-05
4.51349e-05
3.5276e-05
3.56321e-05
3.5892e-05
3.5377e-05
3.60477e-05
3.42472e-05
3.53827e-05
3.52761e-05
3.56318e-05
3.5892e-05
3.5377e-05
3.60478e-05
3.42479e-05
3.53827e-05
3.56302e-05
5.02051e-05
4.64677e-05
3.48992e-05
3.56307e-05
5.0204e-05
4.64671e-05
3.48996e-05
3.49987e-05
3.48741e-05
3.27462e-05
3.44014e-05
3.38572e-05
3.48877e-05
3.41813e-05
3.49987e-05
3.4874e-05
3.27471e-05
3.44014e-05
3.38563e-05
3.48877e-05
3.41814e-05
3.65921e-05
3.65925e-05
3.52789e-05
3.40673e-05
3.40656e-05
5.51161e-05
6.48758e-05
7.47119e-05
6.76942e-05
3.49733e-05
3.20505e-05
3.20486e-05
3.34729e-05
3.3474e-05
7.47132e-05
6.76943e-05
3.52762e-05
3.5632e-05
3.58921e-05
3.5377e-05
3.60478e-05
3.42471e-05
3.53827e-05
3.58812e-05
4.08836e-05
3.66035e-05
4.51374e-05
3.52761e-05
3.5892e-05
3.56321e-05
3.5377e-05
3.60478e-05
3.53827e-05
3.42471e-05
3.56304e-05
5.02049e-05
4.64673e-05
3.48998e-05
3.49987e-05
3.4874e-05
3.27459e-05
3.44014e-05
3.38565e-05
3.48878e-05
3.41815e-05
3.56303e-05
5.02066e-05
4.64693e-05
3.48994e-05
3.49987e-05
3.4874e-05
3.44014e-05
3.27458e-05
3.48878e-05
3.38568e-05
3.41813e-05
3.58814e-05
4.08812e-05
3.66037e-05
4.51366e-05
3.52761e-05
3.58921e-05
3.56319e-05
3.5377e-05
3.60477e-05
3.53827e-05
3.42478e-05
3.58814e-05
4.08838e-05
3.66033e-05
4.51367e-05
3.49987e-05
3.48741e-05
3.27452e-05
3.44014e-05
3.38568e-05
3.48877e-05
3.41814e-05
3.56306e-05
5.02043e-05
4.64653e-05
3.48996e-05
3.49987e-05
3.4874e-05
3.44014e-05
3.2747e-05
3.48877e-05
3.38561e-05
3.41813e-05
3.56302e-05
5.02054e-05
4.64693e-05
3.48994e-05
3.65922e-05
3.65919e-05
3.52789e-05
3.40662e-05
3.40667e-05
5.51171e-05
6.48759e-05
7.47155e-05
6.76959e-05
3.49733e-05
3.20492e-05
3.20512e-05
3.34731e-05
3.34731e-05
7.47135e-05
6.76956e-05
3.52762e-05
3.58921e-05
3.56318e-05
3.5377e-05
3.60478e-05
3.53827e-05
3.42476e-05
3.58818e-05
4.08831e-05
3.66034e-05
4.51373e-05
3.5882e-05
4.08822e-05
3.66037e-05
4.51362e-05
3.49986e-05
3.48741e-05
3.44014e-05
3.27469e-05
3.48877e-05
3.38563e-05
3.41814e-05
3.49987e-05
3.48741e-05
3.44014e-05
3.27468e-05
3.48877e-05
3.38559e-05
3.41815e-05
3.56297e-05
5.02064e-05
4.6469e-05
3.48996e-05
3.563e-05
5.02059e-05
4.64669e-05
3.48999e-05
5.51167e-05
6.48757e-05
5.51168e-05
6.48764e-05
3.49733e-05
3.20509e-05
3.20497e-05
3.34727e-05
3.34728e-05
7.47125e-05
6.76949e-05
7.47141e-05
6.76964e-05
7.65627e-05
8.0851e-05
7.65669e-05
8.08553e-05
3.17297e-05
3.17293e-05
3.3262e-05
3.09287e-05
3.09276e-05
8.39929e-05
8.18658e-05
8.39966e-05
8.18694e-05
3.29558e-05
3.0294e-05
3.02936e-05
3.07651e-05
3.07626e-05
3.39789e-05
5.13709e-05
3.46734e-05
5.46105e-05
3.30574e-05
3.24694e-05
3.39256e-05
3.34064e-05
3.38942e-05
3.15907e-05
3.3466e-05
3.30576e-05
3.2468e-05
3.39256e-05
3.34063e-05
3.38943e-05
3.15922e-05
3.3466e-05
3.37738e-05
5.83436e-05
5.56206e-05
3.30907e-05
3.3774e-05
5.83438e-05
5.56198e-05
3.30912e-05
3.27684e-05
3.29384e-05
3.06526e-05
3.25797e-05
3.13896e-05
3.30206e-05
3.19202e-05
3.27686e-05
3.29383e-05
3.06544e-05
3.25797e-05
3.13874e-05
3.30206e-05
3.19204e-05
3.1729e-05
3.17302e-05
3.32621e-05
3.09285e-05
3.09264e-05
7.65649e-05
8.08524e-05
8.39939e-05
8.18677e-05
3.29558e-05
3.02944e-05
3.02913e-05
3.07629e-05
3.07662e-05
8.39944e-05
8.18676e-05
3.30578e-05
3.24686e-05
3.39256e-05
3.34064e-05
3.38942e-05
3.15912e-05
3.3466e-05
3.398e-05
5.13736e-05
3.46731e-05
5.46133e-05
3.30576e-05
3.39256e-05
3.24692e-05
3.34063e-05
3.38941e-05
3.3466e-05
3.15901e-05
3.37723e-05
5.83444e-05
5.56221e-05
3.30931e-05
3.27683e-05
3.29384e-05
3.06531e-05
3.25797e-05
3.13878e-05
3.30206e-05
3.19206e-05
3.37721e-05
5.83466e-05
5.56227e-05
3.30926e-05
3.27682e-05
3.29383e-05
3.25797e-05
3.06519e-05
3.30205e-05
3.13894e-05
3.19203e-05
3.39793e-05
5.13704e-05
3.46733e-05
5.46102e-05
3.30575e-05
3.39256e-05
3.24683e-05
3.34064e-05
3.38943e-05
3.3466e-05
3.15926e-05
3.39786e-05
5.13729e-05
3.46733e-05
5.46118e-05
3.27686e-05
3.29385e-05
3.06518e-05
3.25797e-05
3.13893e-05
3.30206e-05
3.19204e-05
3.37734e-05
5.83437e-05
5.56195e-05
3.30912e-05
3.27684e-05
3.29383e-05
3.25797e-05
3.06547e-05
3.30206e-05
3.13877e-05
3.19202e-05
3.37733e-05
5.83456e-05
5.56218e-05
3.30909e-05
3.17298e-05
3.17292e-05
3.3262e-05
3.09272e-05
3.09288e-05
7.6566e-05
8.08531e-05
8.39968e-05
8.18704e-05
3.29558e-05
3.02925e-05
3.02946e-05
3.07653e-05
3.07646e-05
8.39947e-05
8.18686e-05
3.30578e-05
3.39256e-05
3.24676e-05
3.34064e-05
3.38942e-05
3.3466e-05
3.15921e-05
3.39801e-05
5.13729e-05
3.46731e-05
5.46127e-05
3.398e-05
5.13716e-05
3.46733e-05
5.46118e-05
3.27682e-05
3.29385e-05
3.25797e-05
3.06542e-05
3.30206e-05
3.13877e-05
3.19204e-05
3.27683e-05
3.29384e-05
3.25797e-05
3.06542e-05
3.30206e-05
3.13873e-05
3.19206e-05
3.37719e-05
5.83458e-05
5.56219e-05
3.30928e-05
3.37724e-05
5.83454e-05
5.56212e-05
3.30932e-05
7.65659e-05
8.08531e-05
7.65676e-05
8.08546e-05
3.29558e-05
3.02953e-05
3.02939e-05
3.07636e-05
3.07627e-05
8.39948e-05
8.18686e-05
8.39961e-05
8.18701e-05
8.44166e-05
8.50594e-05
8.4419e-05
8.50616e-05
3.02231e-05
3.02197e-05
3.1266e-05
2.99883e-05
2.99881e-05
8.48237e-05
8.50814e-05
8.48255e-05
8.50829e-05
3.09588e-05
2.99404e-05
2.99377e-05
2.99475e-05
2.99465e-05
3.22508e-05
5.91855e-05
3.29175e-05
6.14169e-05
3.07837e-05
3.0507e-05
3.21371e-05
3.15444e-05
3.16389e-05
2.98853e-05
3.16985e-05
3.07839e-05
3.05044e-05
3.2137e-05
3.15442e-05
3.1639e-05
2.9887e-05
3.16984e-05
3.20804e-05
6.38723e-05
6.2075e-05
3.15088e-05
3.20806e-05
6.38738e-05
6.20743e-05
3.15091e-05
3.05025e-05
3.10921e-05
2.92726e-05
3.08766e-05
2.97475e-05
3.12763e-05
2.96916e-05
3.05027e-05
3.10919e-05
2.92723e-05
3.08766e-05
2.97458e-05
3.12763e-05
2.96919e-05
3.02203e-05
3.02224e-05
3.1266e-05
2.99887e-05
2.99863e-05
8.44175e-05
8.50602e-05
8.48237e-05
8.50815e-05
3.09588e-05
2.99384e-05
2.99391e-05
2.99471e-05
2.99456e-05
8.48241e-05
8.50819e-05
3.0784e-05
3.05051e-05
3.21371e-05
3.15444e-05
3.16388e-05
2.98858e-05
3.16984e-05
3.22524e-05
5.91884e-05
3.29151e-05
6.14198e-05
3.07837e-05
3.2137e-05
3.05063e-05
3.15442e-05
3.16386e-05
3.16984e-05
2.98846e-05
3.20781e-05
6.3875e-05
6.2077e-05
3.15115e-05
3.05024e-05
3.10922e-05
2.92724e-05
3.08766e-05
2.97462e-05
3.12763e-05
2.96919e-05
3.20778e-05
6.38762e-05
6.20772e-05
3.1511e-05
3.05022e-05
3.10919e-05
3.08765e-05
2.92721e-05
3.12763e-05
2.9747e-05
2.96916e-05
3.22508e-05
5.91854e-05
3.29176e-05
6.1417e-05
3.07837e-05
3.2137e-05
3.05047e-05
3.15443e-05
3.16389e-05
3.16985e-05
2.98872e-05
3.22504e-05
5.91873e-05
3.29173e-05
6.14186e-05
3.05027e-05
3.10923e-05
2.92721e-05
3.08767e-05
2.97468e-05
3.12763e-05
2.96919e-05
3.20806e-05
6.38739e-05
6.20744e-05
3.15091e-05
3.05025e-05
3.1092e-05
3.08766e-05
2.92724e-05
3.12763e-05
2.97459e-05
2.96916e-05
3.20803e-05
6.3875e-05
6.20759e-05
3.15087e-05
3.0222e-05
3.02217e-05
3.12659e-05
2.99871e-05
2.99896e-05
8.44183e-05
8.50604e-05
8.48253e-05
8.50835e-05
3.09587e-05
2.99396e-05
2.99396e-05
2.9946e-05
2.99478e-05
8.48242e-05
8.50821e-05
3.0784e-05
3.2137e-05
3.05042e-05
3.15444e-05
3.16388e-05
3.16985e-05
2.98867e-05
3.22526e-05
5.91874e-05
3.2915e-05
6.14187e-05
3.2253e-05
5.91872e-05
3.29154e-05
6.14187e-05
3.05022e-05
3.10922e-05
3.08766e-05
2.92725e-05
3.12763e-05
2.9746e-05
2.96918e-05
3.05024e-05
3.10921e-05
3.08766e-05
2.9272e-05
3.12763e-05
2.97455e-05
2.9692e-05
3.20777e-05
6.38753e-05
6.2076e-05
3.15112e-05
3.20781e-05
6.38756e-05
6.20761e-05
3.15115e-05
8.44185e-05
8.50606e-05
8.44196e-05
8.50615e-05
3.09587e-05
2.99391e-05
2.99379e-05
2.99477e-05
2.99465e-05
8.48244e-05
8.50823e-05
8.48248e-05
8.5083e-05
8.46202e-05
8.39193e-05
8.46202e-05
8.39201e-05
2.99444e-05
2.99417e-05
2.9356e-05
3.00332e-05
3.00326e-05
8.2544e-05
8.36272e-05
8.25442e-05
8.36272e-05
2.9066e-05
3.03317e-05
3.033e-05
3.01133e-05
3.01124e-05
3.07686e-05
6.43776e-05
3.13306e-05
6.56859e-05
2.86048e-05
2.91474e-05
3.0492e-05
2.98371e-05
2.94057e-05
2.86608e-05
3.01042e-05
2.8605e-05
2.91458e-05
3.0492e-05
2.98369e-05
2.94059e-05
2.86614e-05
3.01042e-05
3.0634e-05
6.70967e-05
6.60823e-05
3.01488e-05
3.06343e-05
6.70983e-05
6.60825e-05
3.01492e-05
2.83487e-05
2.94045e-05
2.82616e-05
2.92583e-05
2.85942e-05
2.96944e-05
2.75912e-05
2.83489e-05
2.94043e-05
2.82614e-05
2.92583e-05
2.85945e-05
2.96943e-05
2.75915e-05
2.99424e-05
2.99435e-05
2.93561e-05
3.00334e-05
3.00291e-05
8.46201e-05
8.39191e-05
8.25433e-05
8.36269e-05
2.90661e-05
3.03308e-05
3.03288e-05
3.01129e-05
3.01136e-05
8.25438e-05
8.36274e-05
2.8605e-05
2.91458e-05
3.0492e-05
2.98372e-05
2.94055e-05
2.8661e-05
3.01042e-05
3.0771e-05
6.43802e-05
3.13274e-05
6.56878e-05
2.86048e-05
3.04919e-05
2.91473e-05
2.98368e-05
2.94053e-05
3.01041e-05
2.86601e-05
3.06336e-05
6.71001e-05
6.60849e-05
3.01506e-05
2.83487e-05
2.94047e-05
2.82609e-05
2.92583e-05
2.85943e-05
2.96944e-05
2.75914e-05
3.06332e-05
6.70997e-05
6.60845e-05
3.01503e-05
2.83485e-05
2.94042e-05
2.92582e-05
2.82612e-05
2.96943e-05
2.85944e-05
2.75911e-05
3.07686e-05
6.43779e-05
3.13306e-05
6.5686e-05
2.86047e-05
3.0492e-05
2.91458e-05
2.9837e-05
2.94057e-05
3.01042e-05
2.86613e-05
3.07682e-05
6.43788e-05
3.13302e-05
6.56867e-05
2.83489e-05
2.94049e-05
2.8261e-05
2.92585e-05
2.85943e-05
2.96944e-05
2.75914e-05
3.06342e-05
6.70985e-05
6.60828e-05
3.0149e-05
2.83487e-05
2.94045e-05
2.92583e-05
2.82612e-05
2.96944e-05
2.85944e-05
2.75912e-05
3.06338e-05
6.70988e-05
6.60833e-05
3.01487e-05
2.99437e-05
2.99434e-05
2.93559e-05
3.00311e-05
3.00343e-05
8.46204e-05
8.39191e-05
8.2544e-05
8.36279e-05
2.90659e-05
3.03304e-05
3.03315e-05
3.01139e-05
3.01137e-05
8.25438e-05
8.36276e-05
2.86051e-05
3.0492e-05
2.91455e-05
2.98372e-05
2.94055e-05
3.01042e-05
2.8661e-05
3.07712e-05
6.4379e-05
3.13273e-05
6.5687e-05
3.07715e-05
6.43794e-05
3.13277e-05
6.56877e-05
2.83486e-05
2.94048e-05
2.92584e-05
2.82613e-05
2.96943e-05
2.85945e-05
2.75912e-05
2.83488e-05
2.94047e-05
2.92583e-05
2.8261e-05
2.96943e-05
2.85942e-05
2.75914e-05
3.06332e-05
6.70992e-05
6.60836e-05
3.01504e-05
3.06336e-05
6.71001e-05
6.60843e-05
3.01507e-05
8.46206e-05
8.39193e-05
8.46209e-05
8.39192e-05
2.90659e-05
3.03311e-05
3.03303e-05
3.01135e-05
3.01125e-05
8.2544e-05
8.36278e-05
8.25435e-05
8.36276e-05
8.21732e-05
8.13862e-05
8.21727e-05
8.13861e-05
3.0411e-05
3.041e-05
2.74185e-05
3.06083e-05
3.06074e-05
8.11942e-05
8.12641e-05
8.11938e-05
8.12636e-05
2.71706e-05
3.12478e-05
3.12468e-05
3.06693e-05
3.06687e-05
2.93147e-05
6.73584e-05
3.006e-05
6.78644e-05
2.64582e-05
2.81147e-05
2.88165e-05
2.80241e-05
2.73274e-05
2.75136e-05
2.8408e-05
2.64584e-05
2.81143e-05
2.88165e-05
2.80239e-05
2.73276e-05
2.75136e-05
2.84079e-05
2.90781e-05
6.85027e-05
6.80002e-05
2.87864e-05
2.90785e-05
6.85043e-05
6.80015e-05
2.87865e-05
2.62021e-05
2.76715e-05
2.73908e-05
2.78248e-05
2.74291e-05
2.8071e-05
2.57553e-05
2.62023e-05
2.76712e-05
2.73911e-05
2.78247e-05
2.74293e-05
2.8071e-05
2.57554e-05
3.04099e-05
3.04128e-05
2.74187e-05
3.06077e-05
3.06058e-05
8.2173e-05
8.13862e-05
8.11938e-05
8.12637e-05
2.71707e-05
3.12479e-05
3.12446e-05
3.06689e-05
3.06686e-05
8.11929e-05
8.12641e-05
2.64582e-05
2.81149e-05
2.88165e-05
2.80243e-05
2.73274e-05
2.75133e-05
2.84079e-05
2.93149e-05
6.736e-05
3.00597e-05
6.78652e-05
2.6458e-05
2.88164e-05
2.81164e-05
2.80237e-05
2.73271e-05
2.84078e-05
2.75131e-05
2.9078e-05
6.85054e-05
6.80033e-05
2.87865e-05
2.62021e-05
2.76717e-05
2.73906e-05
2.78247e-05
2.74291e-05
2.8071e-05
2.57552e-05
2.90776e-05
6.85048e-05
6.80027e-05
2.87862e-05
2.62018e-05
2.76711e-05
2.78246e-05
2.739e-05
2.80709e-05
2.74294e-05
2.5755e-05
2.93147e-05
6.7359e-05
3.00599e-05
6.78644e-05
2.64581e-05
2.88165e-05
2.81141e-05
2.8024e-05
2.73274e-05
2.8408e-05
2.75133e-05
2.93142e-05
6.73588e-05
3.00595e-05
6.78644e-05
2.62022e-05
2.76719e-05
2.73897e-05
2.78249e-05
2.74291e-05
2.80711e-05
2.57553e-05
2.90784e-05
6.85042e-05
6.8002e-05
2.87863e-05
2.6202e-05
2.76714e-05
2.78248e-05
2.73907e-05
2.8071e-05
2.74289e-05
2.57552e-05
2.9078e-05
6.85037e-05
6.80012e-05
2.87861e-05
3.04127e-05
3.04109e-05
2.74184e-05
3.06077e-05
3.06087e-05
8.21732e-05
8.13864e-05
8.11929e-05
8.12642e-05
2.71705e-05
3.12465e-05
3.12485e-05
3.06699e-05
3.06699e-05
8.11942e-05
8.12642e-05
2.64583e-05
2.88165e-05
2.81139e-05
2.80243e-05
2.73274e-05
2.8408e-05
2.75131e-05
2.93149e-05
6.73592e-05
3.00597e-05
6.78648e-05
2.93153e-05
6.73602e-05
3.00601e-05
6.78661e-05
2.62019e-05
2.76718e-05
2.78248e-05
2.73909e-05
2.8071e-05
2.7429e-05
2.57551e-05
2.62021e-05
2.76717e-05
2.78248e-05
2.73907e-05
2.8071e-05
2.74288e-05
2.57552e-05
2.90776e-05
6.85041e-05
6.80016e-05
2.87863e-05
2.9078e-05
6.85057e-05
6.80031e-05
2.87864e-05
8.21733e-05
8.13865e-05
8.21728e-05
8.13859e-05
2.71704e-05
3.12482e-05
3.12479e-05
3.06695e-05
3.0669e-05
8.11942e-05
8.12643e-05
8.11937e-05
8.12637e-05
8.12141e-05
8.13431e-05
8.12132e-05
8.13437e-05
3.16471e-05
3.16469e-05
2.66299e-05
3.26896e-05
3.26895e-05
8.14348e-05
8.13875e-05
8.14351e-05
8.13872e-05
2.66301e-05
3.33912e-05
3.33928e-05
3.29562e-05
3.29569e-05
2.88713e-05
6.86923e-05
2.87884e-05
6.91315e-05
2.57023e-05
2.74388e-05
2.76649e-05
2.72313e-05
2.57089e-05
2.80082e-05
2.75724e-05
2.57023e-05
2.74393e-05
2.76649e-05
2.72311e-05
2.57089e-05
2.80087e-05
2.75723e-05
2.89486e-05
6.937e-05
6.92311e-05
2.90652e-05
2.89487e-05
6.93724e-05
6.92333e-05
2.90652e-05
2.57274e-05
2.72163e-05
2.85475e-05
2.75017e-05
2.82272e-05
2.75243e-05
2.5818e-05
2.57273e-05
2.72161e-05
2.85484e-05
2.75017e-05
2.82277e-05
2.75242e-05
2.58179e-05
3.16472e-05
3.16461e-05
2.663e-05
3.269e-05
3.26875e-05
8.12141e-05
8.13405e-05
8.14347e-05
8.13874e-05
2.66301e-05
3.33921e-05
3.33883e-05
3.29567e-05
3.2956e-05
8.14315e-05
8.13858e-05
2.57021e-05
2.74389e-05
2.76649e-05
2.72315e-05
2.57087e-05
2.8008e-05
2.75724e-05
2.88724e-05
6.86935e-05
2.87876e-05
6.91299e-05
2.5702e-05
2.76648e-05
2.74389e-05
2.7231e-05
2.57085e-05
2.75723e-05
2.80073e-05
2.89482e-05
6.93726e-05
6.92344e-05
2.90658e-05
2.57273e-05
2.72165e-05
2.85484e-05
2.75017e-05
2.8228e-05
2.75243e-05
2.5818e-05
2.89481e-05
6.93691e-05
6.92319e-05
2.90656e-05
2.57272e-05
2.7216e-05
2.75016e-05
2.85478e-05
2.75242e-05
2.82287e-05
2.58179e-05
2.88712e-05
6.86929e-05
2.87882e-05
6.91296e-05
2.57022e-05
2.76649e-05
2.74388e-05
2.72312e-05
2.57088e-05
2.75724e-05
2.8008e-05
2.8871e-05
6.86915e-05
2.8788e-05
6.91302e-05
2.57272e-05
2.72167e-05
2.85476e-05
2.75018e-05
2.8228e-05
2.75243e-05
2.58179e-05
2.89486e-05
6.93691e-05
6.92317e-05
2.90652e-05
2.57272e-05
2.72162e-05
2.75017e-05
2.85475e-05
2.75243e-05
2.82269e-05
2.58178e-05
2.89484e-05
6.93709e-05
6.92319e-05
2.9065e-05
3.16479e-05
3.16475e-05
2.66298e-05
3.26896e-05
3.26901e-05
8.12141e-05
8.13436e-05
8.14313e-05
8.13859e-05
2.66299e-05
3.33898e-05
3.33921e-05
3.29577e-05
3.29567e-05
8.14353e-05
8.1388e-05
2.57023e-05
2.76649e-05
2.74388e-05
2.72315e-05
2.57088e-05
2.75724e-05
2.80083e-05
2.88725e-05
6.86919e-05
2.87876e-05
6.91307e-05
2.88726e-05
6.86935e-05
2.87878e-05
6.91324e-05
2.57272e-05
2.72165e-05
2.75017e-05
2.85476e-05
2.75242e-05
2.82268e-05
2.5818e-05
2.57273e-05
2.72165e-05
2.75017e-05
2.85482e-05
2.75242e-05
2.82274e-05
2.58181e-05
2.89481e-05
6.93713e-05
6.92323e-05
2.90657e-05
2.89482e-05
6.93732e-05
6.92342e-05
2.90657e-05
8.12142e-05
8.13436e-05
8.12136e-05
8.13432e-05
2.663e-05
3.33919e-05
3.3393e-05
3.29566e-05
3.2957e-05
8.14353e-05
8.1388e-05
8.14349e-05
8.13876e-05
8.14462e-05
8.14528e-05
8.14461e-05
8.14531e-05
3.34713e-05
3.34734e-05
2.67381e-05
3.3559e-05
3.35613e-05
8.14549e-05
8.14547e-05
8.1455e-05
8.14548e-05
2.67375e-05
3.35877e-05
3.35901e-05
3.35784e-05
3.35812e-05
2.9131e-05
6.93991e-05
2.91003e-05
6.94167e-05
2.58701e-05
2.86284e-05
2.74924e-05
2.72275e-05
2.58386e-05
2.87056e-05
2.74889e-05
2.58702e-05
2.86295e-05
2.74923e-05
2.72274e-05
2.58385e-05
2.87069e-05
2.74889e-05
2.91384e-05
6.94164e-05
6.94169e-05
2.91402e-05
2.91386e-05
6.94191e-05
6.94197e-05
2.91405e-05
2.58753e-05
2.72321e-05
2.87295e-05
2.7488e-05
2.87249e-05
2.7488e-05
2.58819e-05
2.58754e-05
2.7232e-05
2.87309e-05
2.7488e-05
2.87262e-05
2.7488e-05
2.58819e-05
3.34724e-05
3.34705e-05
2.67382e-05
3.35602e-05
3.35564e-05
8.14435e-05
8.14491e-05
8.14548e-05
8.14548e-05
2.67376e-05
3.35889e-05
3.35837e-05
3.35798e-05
3.3576e-05
8.14513e-05
8.14517e-05
2.58703e-05
2.86298e-05
2.74923e-05
2.72277e-05
2.58385e-05
2.87071e-05
2.74889e-05
2.91312e-05
6.93963e-05
2.90995e-05
6.94133e-05
2.58701e-05
2.74922e-05
2.86299e-05
2.72273e-05
2.58384e-05
2.74888e-05
2.87063e-05
2.91392e-05
6.94193e-05
6.942e-05
2.91411e-05
2.58755e-05
2.72323e-05
2.8731e-05
2.7488e-05
2.87262e-05
2.7488e-05
2.58821e-05
2.91388e-05
6.94157e-05
6.94166e-05
2.91407e-05
2.58753e-05
2.72318e-05
2.74879e-05
2.87298e-05
2.74879e-05
2.87254e-05
2.58819e-05
2.91309e-05
6.93964e-05
2.91002e-05
6.94137e-05
2.58701e-05
2.74923e-05
2.86285e-05
2.72275e-05
2.58385e-05
2.74889e-05
2.87058e-05
2.91307e-05
6.93976e-05
2.91001e-05
6.94153e-05
2.58753e-05
2.72323e-05
2.87296e-05
2.74881e-05
2.87252e-05
2.74881e-05
2.58819e-05
2.91386e-05
6.94161e-05
6.94169e-05
2.91405e-05
2.58753e-05
2.72321e-05
2.7488e-05
2.87298e-05
2.7488e-05
2.87252e-05
2.58818e-05
2.91384e-05
6.94176e-05
6.94182e-05
2.91402e-05
3.34713e-05
3.34723e-05
2.67379e-05
3.35577e-05
3.356e-05
8.14466e-05
8.14531e-05
8.14512e-05
8.14516e-05
2.67373e-05
3.35854e-05
3.35886e-05
3.35774e-05
3.35796e-05
8.1455e-05
8.1455e-05