/*--------------------------------*- C++ -*----------------------------------*\
| =========                 |                                                 |
| \\      /  F ield         | OpenFOAM: The Open Source CFD Toolbox           |
|  \\    /   O peration     | Version:  2206                                  |
|   \\  /    A nd           | Website:  www.openfoam.com                      |
|    \\/     M anipulation  |                                                 |
\*---------------------------------------------------------------------------*/
FoamFile
{
    version     2.0;
    format      ascii;
    arch        "LSB;label=32;scalar=64";
    class       surfaceScalarField;
    location    "24";
    object      phi;
}
// * * * * * * * * * * * * * * * * * * * * * * * * * * * * * * * * * * * * * //

dimensions      [0 3 -1 0 0 0 0];

oriented        oriented;

internalField   nonuniform List<scalar> 
83438
(
-0.00104221
-1.45818e-05
-1.44781e-05
9.34879e-06
9.1787e-06
0.00105274
-0.00026146
-5.64119e-06
1.44587e-05
6.83955e-06
0.00105941
-4.53206e-06
-1.62531e-06
-2.21859e-06
-2.57687e-06
-6.58954e-06
-7.04259e-06
-3.16553e-06
-0.000263303
-0.000259727
-0.000262829
-0.000261438
-5.64617e-06
1.44877e-05
6.92911e-06
0.0010592
-4.53717e-06
-1.63549e-06
-2.22619e-06
-2.58118e-06
-6.58363e-06
-7.03866e-06
-3.16772e-06
-0.000259699
-0.000263275
-0.000262793
-0.000260565
5.61667e-06
5.65677e-06
-4.87715e-06
-4.87121e-06
0.000259039
-1.64345e-06
-1.64535e-06
-0.00106073
9.04781e-07
9.05542e-07
0.00106221
-0.00106268
-1.60617e-06
1.6394e-06
8.34351e-07
0.00106395
-6.53336e-07
7.81566e-07
-1.51234e-07
3.72461e-07
-7.9838e-07
-1.39297e-06
-2.97025e-07
-0.00106236
-1.60108e-06
1.64994e-06
8.29578e-07
0.00106363
-6.53316e-07
7.76066e-07
-1.51288e-07
3.69838e-07
-8.009e-07
-1.39266e-06
-2.94484e-07
-0.000261536
1.63878e-06
1.60123e-06
-7.11784e-07
-7.1493e-07
0.000259722
-1.36062e-06
-1.36204e-06
-0.00106637
6.78972e-07
6.79778e-07
0.00106774
-0.00106791
-1.55228e-06
1.36677e-06
6.87953e-07
0.00106926
-6.16796e-07
8.37425e-07
-1.08814e-07
4.16752e-07
-7.71247e-07
-1.35234e-06
-2.54855e-07
-0.00106759
-1.54703e-06
1.36159e-06
6.93285e-07
0.00106893
-6.16802e-07
8.32005e-07
-1.08794e-07
4.16699e-07
-7.71162e-07
-1.34679e-06
-2.52304e-07
-0.000262768
1.58246e-06
1.54718e-06
-6.69077e-07
-6.77244e-07
0.000260985
-1.29179e-06
-1.29311e-06
-0.00107186
6.40072e-07
6.40861e-07
0.00107316
-0.00107327
-1.53964e-06
1.29277e-06
6.38494e-07
0.00107457
-6.02551e-07
8.68109e-07
-8.04999e-08
4.36665e-07
-7.51271e-07
-1.34416e-06
-2.24395e-07
-0.00107293
-1.53431e-06
1.29269e-06
6.38584e-07
0.00107424
-5.99844e-07
8.6268e-07
-8.29519e-08
4.36593e-07
-7.53748e-07
-1.34394e-06
-2.21862e-07
-0.000264047
1.56736e-06
1.53452e-06
-6.48883e-07
-6.54525e-07
0.000262248
-1.10518e-06
-1.10594e-06
-0.0010771
5.44604e-07
5.45396e-07
0.00107822
-0.00107841
-1.49073e-06
1.10576e-06
5.23634e-07
0.00107948
-5.38055e-07
9.3261e-07
-1.49814e-08
5.17177e-07
-6.75899e-07
-1.28269e-06
-1.42731e-07
-0.00107808
-1.48536e-06
1.10563e-06
5.23651e-07
0.00107914
-5.35318e-07
9.27191e-07
-1.72459e-08
5.17059e-07
-6.78397e-07
-1.2825e-06
-1.40227e-07
-0.000265258
1.51862e-06
1.48561e-06
-5.8771e-07
-5.93288e-07
0.000263435
-4.53338e-07
-4.54125e-07
-0.00108038
2.58259e-07
2.58411e-07
0.00108077
-0.0010812
-1.30424e-06
4.53977e-07
2.30021e-07
0.00108143
-3.46695e-07
1.10578e-06
1.63721e-07
7.54915e-07
-3.82961e-07
-1.02459e-06
1.20931e-07
-0.00108086
-1.29891e-06
4.5395e-07
2.30178e-07
0.00108109
-3.4406e-07
1.10031e-06
1.60856e-07
7.54796e-07
-3.85465e-07
-1.02441e-06
1.23715e-07
-0.000265848
1.3323e-06
1.299e-06
-3.41798e-07
-3.47161e-07
0.000263906
-9.03993e-08
-9.05642e-08
-0.00108134
5.70623e-08
5.7045e-08
0.0010814
-0.00108168
-1.21819e-06
9.04875e-08
5.38924e-08
0.00108169
-2.67819e-07
1.18244e-06
2.33323e-07
8.61284e-07
-2.66814e-07
-9.05685e-07
2.239e-07
-0.00108134
-1.21281e-06
9.04916e-08
5.39538e-08
0.00108135
-2.65092e-07
1.17702e-06
2.3056e-07
8.6112e-07
-2.69414e-07
-9.05552e-07
2.26566e-07
-0.000265872
1.24635e-06
1.21293e-06
-2.46412e-07
-2.51713e-07
0.000263911
-6.49193e-09
-6.4133e-09
-0.00108147
4.2972e-09
4.3156e-09
0.00108147
-0.00108169
-1.19858e-06
6.37734e-09
6.60044e-09
0.00108169
-2.50702e-07
1.19844e-06
2.47541e-07
8.80075e-07
-2.46384e-07
-8.82797e-07
2.41008e-07
-0.00108135
-1.19318e-06
6.39472e-09
6.58539e-09
0.00108135
-2.47957e-07
1.19302e-06
2.44794e-07
8.79904e-07
-2.48999e-07
-8.82669e-07
2.43664e-07
-0.000265856
1.22673e-06
1.1933e-06
-2.27587e-07
-2.32854e-07
0.000263896
9.82756e-10
1.10887e-09
-0.00108148
-1.09596e-09
-1.07816e-09
0.00108148
-0.00108169
-1.19717e-06
-1.1329e-09
2.64225e-09
0.00108169
-2.4951e-07
1.19952e-06
2.48487e-07
8.81344e-07
-2.44937e-07
-8.81198e-07
2.42187e-07
-0.00108135
-1.19177e-06
-1.11452e-09
2.62038e-09
0.00108135
-2.46761e-07
1.1941e-06
2.45737e-07
8.8117e-07
-2.47547e-07
-8.8107e-07
2.44842e-07
-0.000265854
1.22532e-06
1.19189e-06
-2.26407e-07
-2.31674e-07
0.000263895
1.29402e-09
1.43978e-09
-0.00108148
-1.38363e-09
-1.35562e-09
0.00108148
-0.00108169
-1.19713e-06
-1.48175e-09
2.50973e-09
0.00108169
-2.49472e-07
1.19954e-06
2.48509e-07
8.81371e-07
-2.44893e-07
-8.81152e-07
2.42208e-07
-0.00108134
-1.19173e-06
-1.46914e-09
2.48093e-09
0.00108134
-2.46722e-07
1.19413e-06
2.45763e-07
8.81198e-07
-2.47506e-07
-8.81024e-07
2.44866e-07
-0.000265854
1.22527e-06
1.19184e-06
-2.26372e-07
-2.3164e-07
0.000263895
1.22206e-09
1.43271e-09
-0.00108148
-1.37314e-09
-1.33475e-09
0.00108148
-0.00108169
-1.19713e-06
-1.49741e-09
2.51132e-09
0.00108169
-2.46745e-07
1.19954e-06
2.45776e-07
8.81367e-07
-2.44862e-07
-8.81147e-07
2.4218e-07
-0.00108134
-1.19173e-06
-1.47544e-09
2.48301e-09
0.00108134
-2.46723e-07
1.19413e-06
2.45762e-07
8.81194e-07
-2.47504e-07
-8.81021e-07
2.44863e-07
-0.000265854
1.22527e-06
1.19184e-06
-2.26372e-07
-2.3164e-07
0.000263895
1.33742e-09
1.46252e-09
-0.00108148
-1.4199e-09
-1.4023e-09
0.00108148
-0.00108169
-1.19711e-06
-1.48588e-09
2.49435e-09
0.00108169
-2.46731e-07
1.19954e-06
2.45766e-07
8.8135e-07
-2.4484e-07
-8.81134e-07
2.42156e-07
-0.00108134
-1.19172e-06
-1.47045e-09
2.47851e-09
0.00108134
-2.46712e-07
1.19412e-06
2.45754e-07
8.81179e-07
-2.47489e-07
-8.81009e-07
2.44844e-07
-0.000265854
1.22527e-06
1.19183e-06
-2.26365e-07
-2.31633e-07
0.000263895
5.2218e-06
5.23265e-06
0.000260567
-0.00025917
-5.9328e-06
-5.91868e-06
5.08151e-06
0.000261409
-0.000258686
-5.96221e-06
3.37923e-06
-5.22187e-06
5.07649e-06
0.000261442
-0.000258701
-5.97022e-06
3.37439e-06
5.22248e-06
0.00026058
-0.000259173
-5.90418e-06
-5.94741e-06
5.07461e-06
0.000261473
-0.000258717
-5.96772e-06
3.36907e-06
5.08133e-06
-5.22412e-06
0.000261417
-0.000258686
3.38429e-06
-5.97242e-06
1.07109e-05
1.06171e-05
-0.000252649
-0.000256079
-0.000255118
-0.000255118
-6.41713e-06
-4.12507e-06
-6.66224e-06
-6.41749e-06
-4.12601e-06
-6.66777e-06
-5.06956e-06
0.00104223
1.06705e-05
1.06225e-05
-0.000252651
-0.000256076
-0.000255121
-0.000255121
-6.41974e-06
-4.12536e-06
-6.66497e-06
-6.41495e-06
-4.1208e-06
-6.66018e-06
-5.06921e-06
0.00104211
1.07307e-05
1.0683e-05
-0.000252644
-0.000256071
-0.000255118
-0.000255113
-6.41959e-06
-4.13274e-06
-6.6649e-06
-6.4198e-06
-4.12302e-06
-6.66251e-06
-5.0839e-06
-5.07202e-06
0.00104217
1.07261e-05
1.06274e-05
-0.000252646
-0.000256074
-0.000255118
-0.000255118
-6.41449e-06
-4.12769e-06
-6.6599e-06
-6.41993e-06
-4.12585e-06
-6.66524e-06
-0.000258711
-5.96009e-06
3.36402e-06
-5.22172e-06
0.000261404
-0.000258684
3.37926e-06
-5.96215e-06
5.22486e-06
0.00026056
-0.000259157
-5.9065e-06
-5.94463e-06
-0.000258696
3.37155e-06
-5.95721e-06
-5.23262e-06
0.000261471
-0.000258711
3.36656e-06
-5.96519e-06
-0.000259168
-5.93267e-06
-5.9187e-06
5.61693e-06
5.65415e-06
-4.87738e-06
-4.87123e-06
0.000259045
-7.79509e-07
-7.43634e-07
0.000261546
-0.000259461
-2.8462e-07
-2.77228e-07
7.09201e-06
0.00105882
-4.52941e-06
-1.57878e-06
-2.21327e-06
-2.578e-06
-6.60399e-06
-7.04842e-06
-3.17252e-06
-0.000263264
-0.000259684
-0.000262793
-5.62739e-06
1.45553e-05
7.03141e-06
0.00105918
-4.54853e-06
-1.57117e-06
-2.21642e-06
-2.58891e-06
-6.63551e-06
-7.06533e-06
-3.1882e-06
-0.000263339
-0.000259714
-0.000262835
0.00106193
2.02466e-06
-0.00106087
9.72349e-07
-1.71702e-06
-1.70352e-07
-6.91091e-07
-1.46289e-06
-3.11911e-07
-8.24809e-07
3.39766e-07
7.87595e-07
0.00106235
2.02502e-06
-0.00106128
9.67283e-07
-1.72743e-06
-1.62853e-07
-6.96587e-07
-1.46861e-06
-3.12069e-07
-8.25179e-07
3.45181e-07
-4.87546e-06
-4.86813e-06
0.000259055
-7.4631e-07
0.000261572
-0.000259481
-2.81972e-07
-2.7435e-07
6.81325e-06
0.00105966
-4.55369e-06
-1.63811e-06
-2.22947e-06
-2.58721e-06
-6.61801e-06
-7.0607e-06
-3.18342e-06
-0.000263359
-0.000259742
-0.000262847
-5.62708e-06
1.45898e-05
7.12545e-06
0.00105896
-4.54835e-06
-1.58125e-06
-2.22145e-06
-2.59086e-06
-6.63481e-06
-7.0642e-06
-3.18781e-06
-0.000259684
-0.000263316
-0.000262806
0.00106294
2.03224e-06
-0.00106187
9.60834e-07
-1.68709e-06
-1.72856e-07
-6.91358e-07
-1.46593e-06
-3.12031e-07
-8.22584e-07
3.42146e-07
7.76975e-07
0.00106204
2.03525e-06
-0.001061
9.82636e-07
-1.71708e-06
-1.67895e-07
-6.91285e-07
-1.46572e-06
-3.09448e-07
-8.27577e-07
3.39711e-07
1.45867e-05
7.11278e-06
0.00105877
-4.52934e-06
-1.57868e-06
-2.21064e-06
-2.57802e-06
-6.60399e-06
-3.17257e-06
-7.04609e-06
-0.000259679
-0.000263259
-0.000262788
2.03157e-06
-0.00106162
9.66065e-07
-1.68699e-06
-1.70179e-07
-6.88442e-07
-1.46322e-06
-3.144e-07
3.36954e-07
-8.22316e-07
7.7695e-07
0.00106183
2.03486e-06
-0.00106079
9.8267e-07
-1.71699e-06
-1.67779e-07
-6.91043e-07
-1.46558e-06
-3.11884e-07
-8.24769e-07
3.42304e-07
-4.88029e-06
-4.8679e-06
0.000259034
-7.38167e-07
0.000261523
-0.000259443
-2.85015e-07
-2.79587e-07
1.44879e-05
6.83175e-06
0.00105961
-4.55382e-06
-1.63812e-06
-2.22952e-06
-2.58703e-06
-6.61788e-06
-3.18332e-06
-7.05797e-06
-0.000259732
-0.000263357
-0.000262842
2.03662e-06
-0.00106131
9.81611e-07
-1.68451e-06
-1.72726e-07
-6.91111e-07
-1.46009e-06
-3.0938e-07
3.36997e-07
-8.24832e-07
7.38261e-07
0.00106285
2.03727e-06
-0.00106179
9.71168e-07
-1.68205e-06
-1.72882e-07
-6.88776e-07
-1.46316e-06
-3.11877e-07
-8.25002e-07
3.3715e-07
-0.000259458
-2.82148e-07
-2.79801e-07
1.63887e-06
1.60366e-06
-7.09072e-07
-7.17541e-07
0.00025973
-8.6704e-07
-8.28347e-07
0.000262781
-0.000260665
-2.1406e-07
-2.06485e-07
8.35574e-07
0.00106319
-6.55892e-07
8.14819e-07
-1.46382e-07
3.72614e-07
-7.9826e-07
-1.39527e-06
-2.96944e-07
-1.64415e-06
1.64386e-06
8.3037e-07
0.00106362
-6.58748e-07
8.2289e-07
-1.46395e-07
3.78039e-07
-8.01233e-07
-1.40096e-06
-2.94638e-07
0.00106714
1.35479e-06
-0.0010658
6.87854e-07
-1.58601e-06
-1.03692e-07
-6.21949e-07
-1.34305e-06
-2.52076e-07
-7.62969e-07
4.20221e-07
8.72405e-07
0.00106758
1.35504e-06
-0.00106623
6.82764e-07
-1.59133e-06
-1.03809e-07
-6.22172e-07
-1.34604e-06
-2.52188e-07
-7.63316e-07
4.23034e-07
-7.09566e-07
-7.16877e-07
0.000259748
-8.33611e-07
0.000262807
-0.000260678
-2.14092e-07
-2.08987e-07
8.29076e-07
0.00106422
-6.53522e-07
7.78916e-07
-1.4884e-07
3.7506e-07
-8.01303e-07
-1.39841e-06
-2.94589e-07
-1.63886e-06
1.64909e-06
8.35637e-07
0.0010633
-6.58728e-07
8.14927e-07
-1.46423e-07
3.72632e-07
-8.00969e-07
-1.39546e-06
-2.94456e-07
0.00106817
1.35608e-06
-0.00106684
6.86834e-07
-1.54809e-06
-1.08629e-07
-6.16939e-07
-1.34074e-06
-2.49648e-07
-7.63298e-07
4.22888e-07
8.61819e-07
0.00106726
1.35477e-06
-0.00106591
6.87921e-07
-1.58341e-06
-1.06275e-07
-6.22089e-07
-1.34317e-06
-2.52039e-07
-7.63018e-07
4.23003e-07
1.64366e-06
8.35662e-07
0.0010631
-6.58515e-07
8.12253e-07
-1.48816e-07
3.72556e-07
-8.00885e-07
-2.94494e-07
-1.39536e-06
1.35568e-06
-0.00106657
6.92171e-07
-1.55588e-06
-1.11043e-07
-6.16785e-07
-1.34065e-06
-2.49655e-07
4.22765e-07
-7.6311e-07
8.6442e-07
0.00106705
1.3495e-06
-0.0010657
6.87937e-07
-1.58334e-06
-1.06146e-07
-6.21923e-07
-1.34312e-06
-2.52099e-07
-7.62961e-07
4.20252e-07
-7.12338e-07
-7.14315e-07
0.00025971
-8.25534e-07
0.000262756
-0.000260645
-2.14294e-07
-2.08944e-07
1.64512e-06
8.24007e-07
0.00106414
-6.53589e-07
7.73488e-07
-1.53963e-07
3.6992e-07
-7.98518e-07
-2.99432e-07
-1.39289e-06
1.35573e-06
-0.00106625
6.87113e-07
-1.54536e-06
-1.11052e-07
-6.1675e-07
-1.33509e-06
-2.52081e-07
4.14692e-07
-7.63037e-07
8.28214e-07
0.00106808
1.35608e-06
-0.00106674
6.86913e-07
-1.54556e-06
-1.11201e-07
-6.17017e-07
-1.34331e-06
-2.52103e-07
-7.65877e-07
4.20224e-07
-0.000260653
-2.14158e-07
-2.09077e-07
1.58509e-06
1.55235e-06
-6.66375e-07
-6.74693e-07
0.000260985
-8.88416e-07
-8.52193e-07
0.000264062
-0.000261933
-1.97011e-07
-1.91955e-07
6.88827e-07
0.00106849
-6.24675e-07
8.70877e-07
-1.01493e-07
4.16899e-07
-7.68491e-07
-1.34683e-06
-2.57256e-07
-1.59046e-06
1.36097e-06
6.99453e-07
0.00106891
-6.24889e-07
8.76282e-07
-1.01561e-07
4.22421e-07
-7.71447e-07
-1.35245e-06
-2.52403e-07
0.0010725
1.3255e-06
-0.00107117
6.61119e-07
-1.58232e-06
-8.86888e-08
-6.14709e-07
-1.35126e-06
-2.41294e-07
-7.59665e-07
4.25058e-07
8.93862e-07
0.00107292
1.32578e-06
-0.00107159
6.61318e-07
-1.58769e-06
-8.62614e-08
-6.17568e-07
-1.35955e-06
-2.36381e-07
-7.65209e-07
4.3331e-07
-6.69404e-07
-6.71634e-07
0.000261005
-8.54873e-07
0.000264091
-0.000261959
-1.94399e-07
-1.89203e-07
6.8784e-07
0.00106952
-6.22329e-07
8.34782e-07
-1.0643e-07
4.19506e-07
-7.71409e-07
-1.35241e-06
-2.52357e-07
-1.58249e-06
1.36077e-06
6.94185e-07
0.0010686
-6.24838e-07
8.68298e-07
-1.01533e-07
4.19655e-07
-7.71139e-07
-1.34959e-06
-2.52229e-07
0.00107353
1.32682e-06
-0.00107219
6.60162e-07
-1.54681e-06
-9.11448e-08
-6.1231e-07
-1.35418e-06
-2.36367e-07
-7.65213e-07
4.27709e-07
8.88501e-07
0.00107261
1.32563e-06
-0.00107127
6.61265e-07
-1.58235e-06
-8.62174e-08
-6.17504e-07
-1.35394e-06
-2.36233e-07
-7.64927e-07
4.27822e-07
1.36572e-06
6.88936e-07
0.0010684
-6.21983e-07
8.65603e-07
-1.06408e-07
4.19544e-07
-7.71081e-07
-2.54787e-07
-1.34954e-06
1.3265e-06
-0.00107193
6.60281e-07
-1.54939e-06
-9.10223e-08
-6.12152e-07
-1.3515e-06
-2.38877e-07
4.24932e-07
-7.62485e-07
8.83099e-07
0.0010724
1.32542e-06
-0.00107107
6.61224e-07
-1.57704e-06
-9.11094e-08
-6.1198e-07
-1.35131e-06
-2.38806e-07
-7.62246e-07
4.25055e-07
-6.69515e-07
-6.74142e-07
0.00026097
-8.49439e-07
0.000264042
-0.000261917
-1.97099e-07
-1.89209e-07
1.36201e-06
6.93146e-07
0.00106943
-6.17073e-07
8.2674e-07
-1.11428e-07
4.16918e-07
-7.68738e-07
-2.54817e-07
-1.34713e-06
1.3264e-06
-0.00107159
6.60384e-07
-1.54408e-06
-9.34911e-08
-6.09459e-07
-1.3512e-06
-2.36334e-07
4.24927e-07
-7.64952e-07
8.4943e-07
0.00107344
1.32685e-06
-0.00107211
6.60205e-07
-1.54428e-06
-9.36385e-08
-6.09721e-07
-1.34893e-06
-2.38847e-07
-7.62531e-07
4.22407e-07
-0.00026193
-1.94527e-07
-1.8934e-07
1.57264e-06
1.53706e-06
-6.46164e-07
-6.51891e-07
0.000262251
-9.20171e-07
-8.83797e-07
0.000265274
-0.000263157
-1.58936e-07
-1.53777e-07
6.39367e-07
0.00107381
-6.05124e-07
9.01663e-07
-7.81924e-08
4.36776e-07
-7.48458e-07
-1.34392e-06
-2.26829e-07
-1.57801e-06
1.29209e-06
6.39602e-07
0.00107423
-6.07991e-07
9.07118e-07
-7.57762e-08
4.4503e-07
-7.54014e-07
-1.35223e-06
-2.21923e-07
0.00107765
1.23815e-06
-0.0010764
6.07432e-07
-1.56105e-06
-5.52594e-08
-5.8339e-07
-1.33489e-06
-2.05619e-07
-7.27158e-07
4.52742e-07
9.25635e-07
0.00107807
1.23841e-06
-0.00107682
6.07609e-07
-1.56645e-06
-5.28533e-08
-5.86248e-07
-1.3432e-06
-2.00664e-07
-7.32688e-07
4.61041e-07
-6.49286e-07
-6.53991e-07
0.000262277
-8.8649e-07
0.000265302
-0.000263183
-1.5628e-07
-1.51046e-07
6.38404e-07
0.00107484
-6.0271e-07
8.65427e-07
-8.06245e-08
4.39432e-07
-7.54029e-07
-1.34687e-06
-2.21907e-07
-1.57267e-06
1.29192e-06
6.39547e-07
0.00107391
-6.07929e-07
9.0174e-07
-7.57379e-08
4.39538e-07
-7.53726e-07
-1.34659e-06
-2.2177e-07
0.00107868
1.23911e-06
-0.00107743
6.06651e-07
-1.52538e-06
-5.77055e-08
-5.80979e-07
-1.33774e-06
-2.00611e-07
-7.32659e-07
4.55505e-07
9.20254e-07
0.00107775
1.2381e-06
-0.0010765
6.0751e-07
-1.56108e-06
-5.28109e-08
-5.8618e-07
-1.33753e-06
-2.00516e-07
-7.32409e-07
4.55563e-07
1.29174e-06
6.39462e-07
0.00107371
-6.02391e-07
8.96342e-07
-8.05992e-08
4.36762e-07
-7.5106e-07
-2.24357e-07
-1.34399e-06
1.23889e-06
-0.00107716
6.06762e-07
-1.52797e-06
-5.75927e-08
-5.80836e-07
-1.33504e-06
-2.03146e-07
4.52709e-07
-7.29938e-07
9.14828e-07
0.00107755
1.23796e-06
-0.0010763
6.0749e-07
-1.55576e-06
-5.76524e-08
-5.80644e-07
-1.33489e-06
-2.03097e-07
-7.29716e-07
4.5279e-07
-6.46701e-07
-6.53942e-07
0.000262235
-8.81081e-07
0.000265253
-0.000263142
-1.58938e-07
-1.5106e-07
1.2931e-06
6.38439e-07
0.00107475
-6.00108e-07
8.62666e-07
-8.30989e-08
4.34129e-07
-7.51336e-07
-2.24377e-07
-1.34161e-06
1.23874e-06
-0.00107683
6.06783e-07
-1.52259e-06
-6.00107e-08
-5.78101e-07
-1.33475e-06
-2.00588e-07
4.52697e-07
-7.3241e-07
8.8106e-07
0.00107859
1.23913e-06
-0.00107734
6.06622e-07
-1.52281e-06
-6.0148e-08
-5.78354e-07
-1.33247e-06
-2.03099e-07
-7.29963e-07
4.50182e-07
-0.000263154
-1.56409e-07
-1.51154e-07
1.52389e-06
1.48817e-06
-5.85e-07
-5.90603e-07
0.000263437
-1.10757e-06
-1.07139e-06
0.000265864
-0.000263872
9.13007e-08
9.61885e-08
5.2431e-07
0.00107871
-5.40594e-07
9.66286e-07
-1.28204e-08
5.1723e-07
-6.7311e-07
-1.28253e-06
-1.45194e-07
-1.52928e-06
1.10538e-06
5.24558e-07
0.00107913
-5.43468e-07
9.71725e-07
-1.06328e-08
5.25541e-07
-6.78612e-07
-1.29081e-06
-1.40254e-07
0.00108043
5.93482e-07
-0.00108007
2.8705e-07
-1.37406e-06
1.34839e-07
-3.84419e-07
-1.07221e-06
6.84882e-08
-4.34276e-07
7.10952e-07
1.11297e-06
0.00108086
5.93597e-07
-0.00108049
2.87136e-07
-1.3795e-06
1.37584e-07
-3.87337e-07
-1.08061e-06
7.40334e-08
-4.39891e-07
7.19167e-07
-5.8808e-07
-5.92794e-07
0.000263463
-1.07408e-06
0.000265893
-0.000263898
9.39512e-08
9.87418e-08
5.23589e-07
0.00107975
-5.38202e-07
9.29914e-07
-1.50911e-08
5.19982e-07
-6.78612e-07
-1.28539e-06
-1.40213e-07
-1.52393e-06
1.10513e-06
5.24482e-07
0.00107881
-5.4341e-07
9.66332e-07
-1.06022e-08
5.20056e-07
-6.78335e-07
-1.28514e-06
-1.40111e-07
0.00108147
5.94289e-07
-0.0010811
2.8625e-07
-1.33806e-06
1.32131e-07
-3.8185e-07
-1.07514e-06
7.40414e-08
-4.39887e-07
7.13653e-07
1.1076e-06
0.00108053
5.93637e-07
-0.00108017
2.87048e-07
-1.37414e-06
1.37621e-07
-3.87265e-07
-1.07504e-06
7.40477e-08
-4.39741e-07
7.13592e-07
1.10501e-06
5.24304e-07
0.00107861
-5.37862e-07
9.60898e-07
-1.50539e-08
5.17228e-07
-6.75706e-07
-1.42712e-07
-1.28257e-06
5.94177e-07
-0.00108084
2.86377e-07
-1.34066e-06
1.32267e-07
-3.81799e-07
-1.07243e-06
7.11515e-08
7.10906e-07
-4.37169e-07
1.1023e-06
0.00108033
5.9362e-07
-0.00107997
2.8702e-07
-1.36866e-06
1.32081e-07
-3.81705e-07
-1.07234e-06
7.11936e-08
-4.36992e-07
7.10901e-07
-5.85444e-07
-5.92745e-07
0.000263422
-1.06858e-06
0.000265843
-0.000263857
9.13718e-08
9.86156e-08
1.10594e-06
5.23473e-07
0.00107966
-5.3555e-07
9.27171e-07
-1.7356e-08
5.14648e-07
-6.75933e-07
-1.42685e-07
-1.28013e-06
5.94124e-07
-0.0010805
2.86491e-07
-1.33532e-06
1.29331e-07
-3.79087e-07
-1.0722e-06
7.40146e-08
7.10825e-07
-4.39709e-07
1.06874e-06
0.00108138
5.94273e-07
-0.00108102
2.86464e-07
-1.33541e-06
1.29409e-07
-3.79239e-07
-1.06981e-06
7.12494e-08
-4.37148e-07
7.0842e-07
-0.00026387
9.37749e-08
9.89256e-08
1.33765e-06
1.30162e-06
-3.39202e-07
-3.44643e-07
0.000263908
-1.20395e-06
-1.16789e-06
0.000265888
-0.00026392
1.99493e-07
2.04674e-07
2.30624e-07
0.00108066
-3.49382e-07
1.13926e-06
1.66232e-07
7.54941e-07
-3.80091e-07
-1.02443e-06
1.18236e-07
-1.34313e-06
4.53493e-07
2.30729e-07
0.00108108
-3.52225e-07
1.14465e-06
1.6903e-07
7.63169e-07
-3.85645e-07
-1.03279e-06
1.2371e-07
0.0010809
1.48077e-07
-0.00108087
8.5881e-08
-1.26559e-06
2.25272e-07
-2.82797e-07
-9.23284e-07
2.07588e-07
-2.79927e-07
8.46375e-07
1.20938e-06
0.00108133
1.48194e-07
-0.00108129
8.59102e-08
-1.27102e-06
2.28085e-07
-2.85574e-07
-9.31604e-07
2.13067e-07
-2.85451e-07
8.54626e-07
-3.42093e-07
-3.46951e-07
0.000263934
-1.17054e-06
0.000265917
-0.000263946
2.02272e-07
2.07069e-07
2.29922e-07
0.0010817
-3.46777e-07
1.10315e-06
1.63674e-07
7.5766e-07
-3.85669e-07
-1.02732e-06
1.23701e-07
-1.33772e-06
4.53567e-07
2.30653e-07
0.00108076
-3.52186e-07
1.13932e-06
1.6904e-07
7.57602e-07
-3.85526e-07
-1.02722e-06
1.23707e-07
0.00108194
1.48353e-07
-0.00108191
8.55114e-08
-1.22947e-06
2.22743e-07
-2.80127e-07
-9.26086e-07
2.13076e-07
-2.85466e-07
8.4915e-07
1.20401e-06
0.00108101
1.48237e-07
-0.00108097
8.58847e-08
-1.26565e-06
2.28072e-07
-2.85575e-07
-9.26036e-07
2.13023e-07
-2.85367e-07
8.49071e-07
4.53526e-07
2.3062e-07
0.00108056
-3.46622e-07
1.13396e-06
1.6353e-07
7.54914e-07
-3.8279e-07
1.20896e-07
-1.02452e-06
1.48292e-07
-0.00108164
8.55473e-08
-1.23212e-06
2.22733e-07
-2.80121e-07
-9.23369e-07
2.10338e-07
8.46406e-07
-2.82714e-07
1.19862e-06
0.0010808
1.48222e-07
-0.00108077
8.59291e-08
-1.26027e-06
2.22549e-07
-2.80044e-07
-9.23344e-07
2.10246e-07
-2.82634e-07
8.46365e-07
-3.3958e-07
-3.4688e-07
0.000263893
-1.1651e-06
0.000265867
-0.000263904
1.99681e-07
2.07031e-07
4.54071e-07
2.30144e-07
0.00108161
-3.4412e-07
1.10044e-06
1.60909e-07
7.52417e-07
-3.82948e-07
1.21005e-07
-1.02198e-06
1.48265e-07
-0.0010813
8.56189e-08
-1.22674e-06
2.19962e-07
-2.77398e-07
-9.23162e-07
2.12995e-07
8.46316e-07
-2.85343e-07
1.16521e-06
0.00108185
1.48373e-07
-0.00108182
8.5645e-08
-1.22685e-06
2.20013e-07
-2.77457e-07
-9.20814e-07
2.10372e-07
-2.8275e-07
8.43857e-07
-0.000263917
2.02013e-07
2.07246e-07
1.25168e-06
1.21556e-06
-2.43845e-07
-2.49142e-07
0.000263913
-1.23324e-06
-1.19449e-06
0.000265874
-0.000263901
2.24375e-07
2.29616e-07
5.42038e-08
0.00108091
-2.70507e-07
1.21851e-06
2.38586e-07
8.6123e-07
-2.64075e-07
-9.05608e-07
2.2111e-07
-1.25709e-06
9.04853e-08
5.41741e-08
0.00108134
-2.73274e-07
1.22129e-06
2.3867e-07
8.69537e-07
-2.6956e-07
-9.13927e-07
2.26562e-07
0.00108091
1.41848e-08
-0.00108091
1.11047e-08
-1.23636e-06
2.51684e-07
-2.5752e-07
-8.84619e-07
2.36828e-07
-2.4534e-07
8.78487e-07
1.23602e-06
0.00108134
1.42073e-08
-0.00108134
1.1029e-08
-1.23911e-06
2.51774e-07
-2.57561e-07
-8.9022e-07
2.42311e-07
-2.50825e-07
8.84118e-07
-2.46639e-07
-2.51485e-07
0.000263939
-1.19716e-06
0.000265901
-0.000263927
2.2716e-07
2.31992e-07
5.39196e-08
0.00108195
-2.67848e-07
1.17978e-06
2.33314e-07
8.64072e-07
-2.69566e-07
-9.08423e-07
2.26595e-07
-1.25173e-06
9.05026e-08
5.41869e-08
0.00108102
-2.7328e-07
1.21591e-06
2.38661e-07
8.63943e-07
-2.69499e-07
-9.08346e-07
2.26562e-07
0.00108196
1.40941e-08
-0.00108196
1.09155e-08
-1.19761e-06
2.46387e-07
-2.5217e-07
-8.8734e-07
2.42373e-07
-2.50782e-07
8.81366e-07
1.23064e-06
0.00108102
1.41667e-08
-0.00108102
1.10361e-08
-1.23375e-06
2.5176e-07
-2.57565e-07
-8.87325e-07
2.42296e-07
-2.50734e-07
8.81226e-07
9.0521e-08
5.42291e-08
0.00108082
-2.67751e-07
1.21052e-06
2.33133e-07
8.6127e-07
-2.66749e-07
2.23747e-07
-9.0568e-07
1.40616e-08
-0.00108169
1.08806e-08
-1.20023e-06
2.46409e-07
-2.52121e-07
-8.84634e-07
2.39642e-07
8.78603e-07
-2.48039e-07
1.22525e-06
0.00108082
1.42019e-08
-0.00108082
1.10705e-08
-1.22838e-06
2.4624e-07
-2.52031e-07
-8.84636e-07
2.39513e-07
-2.47991e-07
8.78528e-07
-2.44088e-07
-2.51469e-07
0.000263898
-1.19174e-06
0.000265851
-0.000263885
2.2459e-07
2.31952e-07
9.05616e-08
5.39993e-08
0.00108187
-2.65158e-07
1.17711e-06
2.30603e-07
8.58778e-07
-2.66849e-07
2.23889e-07
-9.03136e-07
1.40686e-08
-0.00108135
1.08671e-08
-1.19482e-06
2.43663e-07
-2.49372e-07
-8.84453e-07
2.42276e-07
8.78486e-07
-2.50675e-07
1.19184e-06
0.00108187
1.40978e-08
-0.00108187
1.09152e-08
-1.19495e-06
2.43712e-07
-2.49435e-07
-8.82072e-07
2.39666e-07
-2.48075e-07
8.76062e-07
-0.000263898
2.26901e-07
2.3218e-07
1.23471e-06
1.19595e-06
-2.25077e-07
-2.30277e-07
0.000263899
-1.23554e-06
-1.1968e-06
0.000265872
-0.000263898
2.26183e-07
2.31414e-07
6.78177e-09
0.00108091
-2.56087e-07
1.23453e-06
2.52856e-07
8.79967e-07
-2.43671e-07
-8.82778e-07
2.40904e-07
-1.23746e-06
6.52715e-09
6.73321e-09
0.00108134
-2.56141e-07
1.2373e-06
2.52906e-07
8.85589e-07
-2.49162e-07
-8.88382e-07
2.4368e-07
0.00108091
-4.88024e-10
-0.00108091
3.00275e-09
-1.23338e-06
2.53746e-07
-2.54976e-07
-8.81255e-07
2.42022e-07
-2.44978e-07
8.8117e-07
1.23832e-06
0.00108134
-4.75754e-10
-0.00108134
2.9772e-09
-1.23614e-06
2.53797e-07
-2.55013e-07
-8.86865e-07
2.44806e-07
-2.47777e-07
8.86795e-07
-2.27814e-07
-2.32637e-07
0.000263925
-1.19946e-06
0.000265899
-0.000263924
2.28956e-07
2.33784e-07
6.62129e-09
0.00108195
-2.50745e-07
1.19578e-06
2.47531e-07
8.82836e-07
-2.49125e-07
-8.85506e-07
2.43741e-07
-1.2321e-06
6.49053e-09
6.74965e-09
0.00108102
-2.56148e-07
1.23192e-06
2.52892e-07
8.82697e-07
-2.4908e-07
-8.85492e-07
2.43662e-07
0.00108195
-6.46435e-10
-0.00108195
2.84402e-09
-1.19461e-06
2.48427e-07
-2.49601e-07
-8.8398e-07
2.44864e-07
-2.47737e-07
8.84044e-07
1.23294e-06
0.00108102
-4.8089e-10
-0.00108102
2.97876e-09
-1.23077e-06
2.53785e-07
-2.55017e-07
-8.83977e-07
2.44775e-07
-2.47708e-07
8.83897e-07
6.51767e-09
6.77182e-09
0.00108082
-2.50615e-07
1.22653e-06
2.47371e-07
8.79998e-07
-2.46335e-07
2.40881e-07
-8.82804e-07
-6.48776e-10
-0.00108169
2.85583e-09
-1.19725e-06
2.48435e-07
-2.49572e-07
-8.81275e-07
2.42129e-07
8.81284e-07
-2.45006e-07
1.22755e-06
0.00108081
-4.77907e-10
-0.00108081
2.98702e-09
-1.2254e-06
2.4827e-07
-2.49478e-07
-8.81287e-07
2.42006e-07
-2.44951e-07
8.81205e-07
-2.25249e-07
-2.32622e-07
0.000263883
-1.19404e-06
0.000265849
-0.000263882
2.26378e-07
2.33746e-07
6.40214e-09
6.63311e-09
0.00108186
-2.4802e-07
1.19313e-06
2.44842e-07
8.77534e-07
-2.46419e-07
2.41034e-07
-8.80236e-07
-6.45118e-10
-0.00108135
2.82858e-09
-1.19185e-06
2.45687e-07
-2.46825e-07
-8.81096e-07
2.44766e-07
8.81168e-07
-2.47639e-07
1.19415e-06
0.00108186
-6.40457e-10
-0.00108186
2.85284e-09
-1.19196e-06
2.45743e-07
-2.46882e-07
-8.78713e-07
2.4216e-07
-2.45034e-07
8.78743e-07
-0.000263895
2.28697e-07
2.33976e-07
1.2333e-06
1.19454e-06
-2.23894e-07
-2.29097e-07
0.000263897
-1.23563e-06
-1.19689e-06
0.000265872
-0.000263897
2.26237e-07
2.31471e-07
2.79073e-09
0.00108091
-2.54909e-07
1.2356e-06
2.53799e-07
8.81231e-07
-2.44906e-07
-8.81178e-07
2.42081e-07
-1.23606e-06
-9.49847e-10
2.7596e-09
0.00108134
-2.54952e-07
1.23837e-06
2.53851e-07
8.86853e-07
-2.47712e-07
-8.86794e-07
2.44862e-07
0.00108091
-1.29481e-09
-0.00108091
2.66197e-09
-1.23326e-06
2.53821e-07
-2.5488e-07
-8.81142e-07
2.42109e-07
-2.44875e-07
8.81259e-07
1.23841e-06
0.00108134
-1.29539e-09
-0.00108134
2.62318e-09
-1.23601e-06
2.53877e-07
-2.5491e-07
-8.86749e-07
2.4488e-07
-2.47669e-07
8.86877e-07
-2.26639e-07
-2.31466e-07
0.000263923
-1.19954e-06
0.000265898
-0.000263923
2.29003e-07
2.3384e-07
2.64035e-09
0.00108195
-2.49537e-07
1.19686e-06
2.48477e-07
8.841e-07
-2.4767e-07
-8.83906e-07
2.44916e-07
-1.2307e-06
-9.7557e-10
2.77202e-09
0.00108102
-2.54951e-07
1.23299e-06
2.53836e-07
8.83956e-07
-2.47636e-07
-8.839e-07
2.44833e-07
0.00108195
-1.45856e-09
-0.00108195
2.50914e-09
-1.1945e-06
2.48502e-07
-2.49506e-07
-8.83863e-07
2.44944e-07
-2.47635e-07
8.84134e-07
1.23303e-06
0.00108102
-1.30076e-09
-0.00108102
2.61499e-09
-1.23065e-06
2.53868e-07
-2.54916e-07
-8.83863e-07
2.44854e-07
-2.47607e-07
8.83982e-07
-9.75769e-10
2.77438e-09
0.00108081
-2.49414e-07
1.22761e-06
2.48319e-07
8.81263e-07
-2.44879e-07
2.42061e-07
-8.81209e-07
-1.47046e-09
-0.00108169
2.51657e-09
-1.19713e-06
2.48505e-07
-2.49473e-07
-8.81154e-07
2.42206e-07
8.81371e-07
-2.44897e-07
1.22764e-06
0.00108081
-1.30975e-09
-0.00108081
2.62891e-09
-1.22528e-06
2.48351e-07
-2.49378e-07
-8.81168e-07
2.42087e-07
-2.44846e-07
8.81293e-07
-2.24076e-07
-2.31444e-07
0.000263882
-1.19413e-06
0.000265849
-0.000263882
2.26433e-07
2.33806e-07
-1.1266e-09
2.64514e-09
0.00108186
-2.46817e-07
1.19421e-06
2.45792e-07
8.78801e-07
-2.44963e-07
2.42215e-07
-8.78636e-07
-1.47348e-09
-0.00108134
2.47897e-09
-1.19173e-06
2.45766e-07
-2.46727e-07
-8.80978e-07
2.4485e-07
8.81257e-07
-2.47534e-07
1.19424e-06
0.00108186
-1.46465e-09
-0.00108186
2.49644e-09
-1.19184e-06
2.45824e-07
-2.46782e-07
-8.78594e-07
2.42241e-07
-2.44929e-07
8.78832e-07
-0.000263895
2.28754e-07
2.34033e-07
1.23325e-06
1.1945e-06
-2.23864e-07
-2.29064e-07
0.000263897
-1.23562e-06
-1.19686e-06
0.000265872
-0.000263897
2.26181e-07
2.31465e-07
2.66253e-09
0.00108091
-2.54877e-07
1.23563e-06
2.53816e-07
8.81254e-07
-2.44873e-07
-8.81141e-07
2.42101e-07
-1.23601e-06
-1.2591e-09
-2.65065e-09
0.00108134
-2.54907e-07
1.23841e-06
2.53884e-07
8.86839e-07
-2.47673e-07
-8.86757e-07
2.44879e-07
0.00108091
-1.21234e-09
-0.00108091
2.73018e-09
-1.23327e-06
2.53789e-07
-2.54907e-07
-8.81171e-07
2.42051e-07
-2.44926e-07
8.81223e-07
1.23842e-06
0.00108134
-1.29393e-09
-0.00108134
7.72324e-09
-1.23601e-06
2.53886e-07
-2.54905e-07
-8.86705e-07
2.44888e-07
-2.47665e-07
8.86886e-07
-2.26605e-07
-2.31427e-07
0.000263923
-1.19954e-06
0.000265899
-0.000263923
2.29004e-07
2.3385e-07
2.52261e-09
0.00108195
-2.49505e-07
1.19688e-06
2.48494e-07
8.84126e-07
-2.47634e-07
-8.83863e-07
2.44934e-07
-1.23065e-06
-1.31037e-09
2.61454e-09
0.00108102
-2.54909e-07
1.23303e-06
2.53865e-07
8.83979e-07
-2.47599e-07
-8.83858e-07
2.44851e-07
0.00108195
-1.46079e-09
-0.00108195
2.56047e-09
-1.19452e-06
2.48464e-07
-2.49537e-07
-8.83858e-07
2.44941e-07
-2.47631e-07
8.84133e-07
1.23303e-06
0.00108102
-1.31703e-09
-0.00108102
2.594e-09
-1.23065e-06
2.53868e-07
-2.5491e-07
-8.83859e-07
2.44848e-07
-2.47601e-07
8.83977e-07
-1.31836e-09
2.6283e-09
0.00108081
-2.49373e-07
1.22764e-06
2.48346e-07
8.81288e-07
-2.44839e-07
2.4208e-07
-8.81164e-07
-1.49922e-09
-0.00108169
2.51773e-09
-1.19713e-06
2.45776e-07
-2.46746e-07
-8.81149e-07
2.42182e-07
8.81369e-07
-2.44867e-07
1.22764e-06
0.00108081
-1.33132e-09
-0.00108081
2.62e-09
-1.22527e-06
2.48349e-07
-2.49374e-07
-8.81163e-07
2.42082e-07
-2.44839e-07
8.81289e-07
-2.24044e-07
-2.31407e-07
0.000263882
-1.19413e-06
0.000265849
-0.000263882
2.26431e-07
2.33806e-07
-1.47097e-09
2.50133e-09
0.00108186
-2.46778e-07
1.19424e-06
2.45818e-07
8.78827e-07
-2.44923e-07
2.42234e-07
-8.7859e-07
-1.50092e-09
-0.00108134
2.47506e-09
-1.19173e-06
2.45764e-07
-2.46724e-07
-8.80972e-07
2.44846e-07
8.81254e-07
-2.47528e-07
1.19424e-06
0.00108186
-1.48751e-09
-0.00108186
2.48517e-09
-1.19184e-06