/*--------------------------------*- C++ -*----------------------------------*\
| =========                 |                                                 |
| \\      /  F ield         | OpenFOAM: The Open Source CFD Toolbox           |
|  \\    /   O peration     | Version:  2206                                  |
|   \\  /    A nd           | Website:  www.openfoam.com                      |
|    \\/     M anipulation  |                                                 |
\*---------------------------------------------------------------------------*/
FoamFile
{
    version     2.0;
    format      ascii;
    arch        "LSB;label=32;scalar=64";
    class       volScalarField;
    location    "28";
    object      epsilon;
}
// * * * * * * * * * * * * * * * * * * * * * * * * * * * * * * * * * * * * * //

dimensions      [0 2 -3 0 0 0 0];

internalField   nonuniform List<scalar> 
28687
(
2.86131e-07
3.12524e-07
3.12534e-07
3.45709e-07
2.8613e-07
3.12527e-07
3.12533e-07
3.45727e-07
2.86131e-07
3.12531e-07
3.12537e-07
3.45733e-07
2.86133e-07
3.12534e-07
3.12541e-07
3.45741e-07
2.8613e-07
3.12536e-07
3.12542e-07
3.45749e-07
2.86127e-07
3.12537e-07
3.12544e-07
3.45754e-07
2.86104e-07
3.12495e-07
3.12518e-07
3.45742e-07
2.86008e-07
3.12407e-07
3.12421e-07
3.45626e-07
2.85997e-07
3.12403e-07
3.12413e-07
3.45614e-07
2.85996e-07
3.12403e-07
3.12412e-07
3.45618e-07
2.85996e-07
3.12403e-07
3.12412e-07
3.45614e-07
2.85996e-07
3.12403e-07
3.12412e-07
3.45618e-07
2.85996e-07
3.12403e-07
3.12412e-07
3.4562e-07
2.85996e-07
3.12403e-07
3.12412e-07
3.45618e-07
2.85996e-07
3.12403e-07
3.12412e-07
3.45617e-07
2.85996e-07
3.12403e-07
3.12412e-07
3.45617e-07
2.85996e-07
3.12403e-07
3.12412e-07
3.45617e-07
2.85996e-07
3.12402e-07
3.12412e-07
3.45617e-07
3.12551e-07
3.45443e-07
3.12524e-07
3.45701e-07
3.4546e-07
3.12545e-07
3.12551e-07
3.12544e-07
3.1255e-07
3.4571e-07
3.45457e-07
3.1253e-07
3.12557e-07
3.12529e-07
3.12556e-07
3.12548e-07
3.12527e-07
3.12547e-07
3.4571e-07
3.45468e-07
3.12529e-07
3.12533e-07
3.12528e-07
3.45467e-07
3.45722e-07
3.45465e-07
3.12547e-07
3.12554e-07
3.12548e-07
3.12554e-07
3.4572e-07
3.45462e-07
3.12532e-07
3.1256e-07
3.12532e-07
3.12559e-07
3.1255e-07
3.1253e-07
3.1255e-07
3.4573e-07
3.45474e-07
3.12531e-07
3.12537e-07
3.12531e-07
3.45473e-07
3.45729e-07
3.45473e-07
3.12551e-07
3.12557e-07
3.12553e-07
3.12558e-07
3.45726e-07
3.45469e-07
3.12536e-07
3.12563e-07
3.12537e-07
3.12563e-07
3.12553e-07
3.12534e-07
3.12554e-07
3.45737e-07
3.45482e-07
3.12534e-07
3.1254e-07
3.12535e-07
3.45481e-07
3.45737e-07
3.45482e-07
3.12556e-07
3.12561e-07
3.12557e-07
3.1256e-07
3.45734e-07
3.45478e-07
3.1254e-07
3.12566e-07
3.12541e-07
3.12566e-07
3.12557e-07
3.12536e-07
3.12557e-07
3.45745e-07
3.45491e-07
3.12538e-07
3.12542e-07
3.12538e-07
3.45489e-07
3.45746e-07
3.45488e-07
3.1256e-07
3.12562e-07
3.12559e-07
3.12561e-07
3.45742e-07
3.45482e-07
3.12544e-07
3.12569e-07
3.12541e-07
3.12567e-07
3.1256e-07
3.12537e-07
3.12558e-07
3.45753e-07
3.45495e-07
3.12541e-07
3.12543e-07
3.12539e-07
3.45495e-07
3.4575e-07
3.45481e-07
3.12561e-07
3.12562e-07
3.12551e-07
3.12543e-07
3.45744e-07
3.45464e-07
3.12542e-07
3.12569e-07
3.12533e-07
3.1256e-07
3.12559e-07
3.12521e-07
3.1255e-07
3.45757e-07
3.4549e-07
3.1254e-07
3.12536e-07
3.12531e-07
3.45489e-07
3.45738e-07
3.45373e-07
3.12533e-07
3.12516e-07
3.12452e-07
3.12442e-07
3.45715e-07
3.45347e-07
3.12517e-07
3.12543e-07
3.12435e-07
3.12461e-07
3.12533e-07
3.1242e-07
3.12451e-07
3.45745e-07
3.45381e-07
3.12514e-07
3.12437e-07
3.12432e-07
3.4538e-07
3.45623e-07
3.45345e-07
3.12438e-07
3.12434e-07
3.12427e-07
3.12428e-07
3.456e-07
3.45339e-07
3.12421e-07
3.12447e-07
3.1241e-07
3.12437e-07
3.12437e-07
3.12403e-07
3.12427e-07
3.4563e-07
3.45352e-07
3.12419e-07
3.12413e-07
3.12409e-07
3.45351e-07
3.4561e-07
3.45353e-07
3.12428e-07
3.12432e-07
3.12426e-07
3.12429e-07
3.45604e-07
3.45342e-07
3.12412e-07
3.12439e-07
3.1241e-07
3.12437e-07
3.1243e-07
3.12403e-07
3.12428e-07
3.45617e-07
3.45361e-07
3.12411e-07
3.12412e-07
3.12409e-07
3.4536e-07
3.45615e-07
3.45349e-07
3.12427e-07
3.1243e-07
3.12424e-07
3.12428e-07
3.45604e-07
3.45338e-07
3.12411e-07
3.12438e-07
3.12408e-07
3.12436e-07
3.12429e-07
3.12403e-07
3.12426e-07
3.45621e-07
3.45357e-07
3.1241e-07
3.12412e-07
3.12408e-07
3.45356e-07
3.4561e-07
3.45352e-07
3.12425e-07
3.12429e-07
3.12423e-07
3.12428e-07
3.45601e-07
3.45342e-07
3.1241e-07
3.12437e-07
3.12408e-07
3.12436e-07
3.12428e-07
3.12403e-07
3.12426e-07
3.45618e-07
3.4536e-07
3.12409e-07
3.12412e-07
3.12408e-07
3.4536e-07
3.45614e-07
3.45351e-07
3.12425e-07
3.12429e-07
3.12423e-07
3.12428e-07
3.45603e-07
3.45345e-07
3.12409e-07
3.12438e-07
3.12407e-07
3.12436e-07
3.12428e-07
3.12403e-07
3.12426e-07
3.45621e-07
3.4536e-07
3.12412e-07
3.12412e-07
3.12411e-07
3.4536e-07
3.45614e-07
3.45349e-07
3.12425e-07
3.1243e-07
3.12423e-07
3.12428e-07
3.45607e-07
3.45342e-07
3.12409e-07
3.12438e-07
3.12407e-07
3.12436e-07
3.12429e-07
3.12403e-07
3.12426e-07
3.45622e-07
3.45358e-07
3.12413e-07
3.12412e-07
3.12411e-07
3.45358e-07
3.45612e-07
3.45348e-07
3.12424e-07
3.1243e-07
3.12423e-07
3.12428e-07
3.45606e-07
3.45341e-07
3.12409e-07
3.12438e-07
3.12407e-07
3.12436e-07
3.12428e-07
3.12403e-07
3.12426e-07
3.4562e-07
3.45357e-07
3.12413e-07
3.12412e-07
3.1241e-07
3.45358e-07
3.45611e-07
3.45348e-07
3.12425e-07
3.12429e-07
3.12423e-07
3.12428e-07
3.45605e-07
3.4534e-07
3.12409e-07
3.12438e-07
3.12407e-07
3.12436e-07
3.12428e-07
3.12403e-07
3.12427e-07
3.45619e-07
3.45357e-07
3.12412e-07
3.12412e-07
3.1241e-07
3.45358e-07
3.4561e-07
3.45348e-07
3.12424e-07
3.1243e-07
3.12423e-07
3.12428e-07
3.45604e-07
3.4534e-07
3.12409e-07
3.12438e-07
3.12407e-07
3.12436e-07
3.12428e-07
3.12403e-07
3.12426e-07
3.45619e-07
3.45357e-07
3.12412e-07
3.12412e-07
3.1241e-07
3.45358e-07
3.45611e-07
3.45348e-07
3.12425e-07
3.12429e-07
3.12423e-07
3.12428e-07
3.45603e-07
3.45341e-07
3.12409e-07
3.12438e-07
3.12407e-07
3.12436e-07
3.12429e-07
3.12403e-07
3.12427e-07
3.45619e-07
3.45356e-07
3.12412e-07
3.12412e-07
3.1241e-07
3.45358e-07
3.45611e-07
3.12424e-07
3.12429e-07
3.45604e-07
3.12408e-07
3.12437e-07
3.12428e-07
3.45618e-07
3.12411e-07
1.75197e-06
8.8824e-06
1.75242e-06
8.88201e-06
2.25149e-05
2.25132e-05
1.75186e-06
8.88367e-06
1.75225e-06
8.88316e-06
2.86134e-07
2.86135e-07
2.86133e-07
2.8613e-07
2.86133e-07
2.86134e-07
2.86132e-07
5.6287e-07
1.39527e-06
2.95067e-07
3.12527e-07
5.63017e-07
1.39455e-06
2.95067e-07
2.2516e-05
2.25141e-05
5.62867e-07
2.95068e-07
1.39514e-06
3.12534e-07
5.63015e-07
2.95068e-07
1.39448e-06
3.00019e-06
3.00096e-06
3.45464e-07
2.99988e-06
3.00066e-06
1.75212e-06
8.88223e-06
1.75265e-06
8.8817e-06
2.25119e-05
2.25113e-05
1.75201e-06
8.88339e-06
1.75248e-06
8.88281e-06
2.86133e-07
2.86134e-07
2.86132e-07
2.86131e-07
2.86131e-07
2.86133e-07
2.8613e-07
5.629e-07
1.39541e-06
2.95066e-07
3.1253e-07
5.63045e-07
1.39465e-06
2.95069e-07
2.25128e-05
2.25118e-05
5.62897e-07
2.95066e-07
1.39533e-06
3.12536e-07
5.63042e-07
2.95068e-07
1.39461e-06
3.00064e-06
3.00139e-06
3.4547e-07
3.00014e-06
3.0009e-06
1.75217e-06
8.88192e-06
1.75272e-06
8.88148e-06
2.2511e-05
2.25109e-05
1.75204e-06
8.88303e-06
1.75255e-06
8.88257e-06
2.86134e-07
2.86136e-07
2.86133e-07
2.86133e-07
2.86132e-07
2.86134e-07
2.86132e-07
5.62924e-07
1.39548e-06
2.95068e-07
3.12534e-07
5.63072e-07
1.3947e-06
2.95071e-07
2.25114e-05
2.2511e-05
5.62919e-07
2.95067e-07
1.39539e-06
3.1254e-07
5.63069e-07
2.9507e-07
1.39465e-06
3.00072e-06
3.00148e-06
3.45477e-07
3.00023e-06
3.001e-06
1.75215e-06
8.88179e-06
1.75272e-06
8.8814e-06
2.25111e-05
2.25112e-05
1.75202e-06
8.88293e-06
1.75254e-06
8.88252e-06
2.86134e-07
2.86135e-07
2.86132e-07
2.86131e-07
2.86132e-07
2.86133e-07
2.86131e-07
5.62938e-07
1.3955e-06
2.9507e-07
3.12537e-07
5.63089e-07
1.39471e-06
2.95072e-07
2.25113e-05
2.25112e-05
5.62931e-07
2.95068e-07
1.39541e-06
3.12544e-07
5.63083e-07
2.9507e-07
1.39467e-06
3.00087e-06
3.00163e-06
3.45485e-07
3.00039e-06
3.00116e-06
1.75215e-06
8.88182e-06
1.7527e-06
8.88146e-06
2.25118e-05
2.25121e-05
1.75203e-06
8.88298e-06
1.75253e-06
8.8826e-06
2.86132e-07
2.86134e-07
2.86131e-07
2.86127e-07
2.86128e-07
2.86132e-07
2.86127e-07
5.62951e-07
1.3955e-06
2.95069e-07
3.12537e-07
5.63102e-07
1.39472e-06
2.95069e-07
2.25118e-05
2.25118e-05
5.62945e-07
2.95069e-07
1.39542e-06
3.12544e-07
5.63097e-07
2.95071e-07
1.39467e-06
3.00098e-06
3.00174e-06
3.45494e-07
3.00045e-06
3.00122e-06
1.75224e-06
8.88208e-06
1.75271e-06
8.88202e-06
2.25128e-05
2.25115e-05
1.75212e-06
8.88325e-06
1.75253e-06
8.88314e-06
2.86128e-07
2.86131e-07
2.86127e-07
2.86119e-07
2.86117e-07
2.86121e-07
2.86119e-07
5.62959e-07
1.39557e-06
2.95065e-07
3.12537e-07
5.63109e-07
1.39486e-06
2.95065e-07
2.25129e-05
2.25128e-05
5.62953e-07
2.95067e-07
1.39545e-06
3.12545e-07
5.63103e-07
2.95067e-07
1.39477e-06
3.00098e-06
3.00173e-06
3.45496e-07
3.00053e-06
3.0013e-06
1.75233e-06
8.88275e-06
1.75299e-06
8.88248e-06
2.25109e-05
2.25111e-05
1.7522e-06
8.88396e-06
1.75281e-06
8.88364e-06
2.86098e-07
2.86107e-07
2.86106e-07
2.86024e-07
2.86018e-07
2.86026e-07
2.86024e-07
5.62888e-07
1.39566e-06
2.95039e-07
3.12467e-07
5.63099e-07
1.39477e-06
2.95013e-07
2.25123e-05
2.25115e-05
5.62885e-07
2.95045e-07
1.39558e-06
3.1249e-07
5.63096e-07
2.95019e-07
1.39476e-06
3.00113e-06
3.00189e-06
3.45446e-07
3.00049e-06
3.00125e-06
1.75207e-06
8.88281e-06
1.7527e-06
8.88244e-06
2.25112e-05
2.2511e-05
1.75195e-06
8.884e-06
1.75253e-06
8.88354e-06
2.86006e-07
2.86012e-07
2.8601e-07
2.85997e-07
2.85998e-07
2.86001e-07
2.85999e-07
5.62785e-07
1.39542e-06
2.94946e-07
3.12405e-07
5.62964e-07
1.39459e-06
2.94941e-07
2.25116e-05
2.25112e-05
5.62784e-07
2.94949e-07
1.39537e-06
3.12416e-07
5.62963e-07
2.94944e-07
1.39457e-06
3.0008e-06
3.00155e-06
3.45345e-07
3.00018e-06
3.00094e-06
1.75202e-06
8.8828e-06
1.7526e-06
8.88241e-06
2.25109e-05
2.25104e-05
1.7519e-06
8.88388e-06
1.75242e-06
8.8836e-06
2.86e-07
2.86003e-07
2.86001e-07
2.85997e-07
2.85997e-07
2.86001e-07
2.85999e-07
5.62776e-07
1.39536e-06
2.94938e-07
3.12405e-07
5.62931e-07
1.39457e-06
2.9494e-07
2.25115e-05
2.25112e-05
5.62772e-07
2.9494e-07
1.39529e-06
3.12415e-07
5.62929e-07
2.94942e-07
1.39454e-06
3.00067e-06
3.00142e-06
3.45362e-07
3.00012e-06
3.00089e-06
1.75202e-06
8.88267e-06
1.75259e-06
8.88219e-06
2.25106e-05
2.25105e-05
1.7519e-06
8.88408e-06
1.75241e-06
8.88377e-06
2.85999e-07
2.86002e-07
2.86e-07
2.85996e-07
2.85998e-07
2.86001e-07
2.85999e-07
5.62775e-07
1.39536e-06
2.94937e-07
3.12404e-07
5.62932e-07
1.39457e-06
2.94939e-07
2.25115e-05
2.25112e-05
5.62771e-07
2.94939e-07
1.39529e-06
3.12413e-07
5.62928e-07
2.94941e-07
1.39453e-06
3.00066e-06
3.00142e-06
3.45358e-07
3.00012e-06
3.00089e-06
1.75202e-06
8.88251e-06
1.75259e-06
8.88207e-06
2.25107e-05
2.25105e-05
1.7519e-06
8.88422e-06
1.75241e-06
8.88387e-06
2.85999e-07
2.86002e-07
2.86e-07
2.85996e-07
2.85997e-07
2.86001e-07
2.85999e-07
5.62773e-07
1.39536e-06
2.94937e-07
3.12404e-07
5.62929e-07
1.39457e-06
2.94939e-07
2.25115e-05
2.25112e-05
5.62769e-07
2.94939e-07
1.39529e-06
3.12414e-07
5.62926e-07
2.94941e-07
1.39453e-06
3.00066e-06
3.00142e-06
3.45358e-07
3.00012e-06
3.00089e-06
1.75202e-06
8.88242e-06
1.75259e-06
8.88199e-06
2.25107e-05
2.25106e-05
1.7519e-06
8.88429e-06
1.75241e-06
8.88392e-06
2.85999e-07
2.86002e-07
2.86e-07
2.85996e-07
2.85998e-07
2.86001e-07
2.85999e-07
5.62774e-07
1.39536e-06
2.94937e-07
3.12404e-07
5.6293e-07
1.39457e-06
2.94939e-07
2.25115e-05
2.25112e-05
5.62771e-07
2.94939e-07
1.39529e-06
3.12413e-07
5.62927e-07
2.94941e-07
1.39454e-06
3.00066e-06
3.00142e-06
3.45355e-07
3.00012e-06
3.00089e-06
1.75202e-06
8.88236e-06
1.75259e-06
8.88194e-06
2.25108e-05
2.25107e-05
1.7519e-06
8.88432e-06
1.75241e-06
8.88395e-06
2.85999e-07
2.86002e-07
2.86e-07
2.85996e-07
2.85998e-07
2.86001e-07
2.85999e-07
5.62774e-07
1.39536e-06
2.94937e-07
3.12404e-07
5.6293e-07
1.39457e-06
2.94939e-07
2.25115e-05
2.25112e-05
5.62771e-07
2.94939e-07
1.39529e-06
3.12413e-07
5.62928e-07
2.94941e-07
1.39454e-06
3.00066e-06
3.00142e-06
3.45358e-07
3.00012e-06
3.00089e-06
1.75202e-06
8.88233e-06
1.75259e-06
8.88191e-06
2.25108e-05
2.25107e-05
1.7519e-06
8.88434e-06
1.75241e-06
8.88396e-06
2.85999e-07
2.86002e-07
2.86e-07
2.85996e-07
2.85998e-07
2.86001e-07
2.85999e-07
5.62775e-07
1.39536e-06
2.94937e-07
3.12404e-07
5.62931e-07
1.39457e-06
2.94939e-07
2.25115e-05
2.25112e-05
5.62772e-07
2.94939e-07
1.39529e-06
3.12414e-07
5.62928e-07
2.94941e-07
1.39454e-06
3.00066e-06
3.00142e-06
3.45359e-07
3.00012e-06
3.00089e-06
1.75202e-06
8.88231e-06
1.75259e-06
8.8819e-06
2.25109e-05
2.25107e-05
1.7519e-06
8.88435e-06
1.75241e-06
8.88397e-06
2.85999e-07
2.86002e-07
2.86e-07
2.85996e-07
2.85998e-07
2.86001e-07
2.85999e-07
5.62775e-07
1.39536e-06
2.94937e-07
3.12404e-07
5.62932e-07
1.39457e-06
2.94939e-07
2.25115e-05
2.25112e-05
5.62773e-07
2.94939e-07
1.39529e-06
3.12413e-07
5.6293e-07
2.94941e-07
1.39454e-06
3.00066e-06
3.00142e-06
3.45359e-07
3.00012e-06
3.00089e-06
1.75202e-06
8.8823e-06
1.75259e-06
8.88189e-06
2.25109e-05
2.25107e-05
1.7519e-06
8.88436e-06
1.75241e-06
8.88398e-06
2.85999e-07
2.86002e-07
2.86e-07
2.85996e-07
2.85998e-07
2.86001e-07
2.85999e-07
5.62773e-07
1.39536e-06
2.94937e-07
3.12404e-07
5.6293e-07
1.39457e-06
2.94939e-07
2.25115e-05
2.25112e-05
5.62772e-07
2.94939e-07
1.39529e-06
3.12413e-07
5.6293e-07
2.94941e-07
1.39454e-06
3.00066e-06
3.00142e-06
3.45359e-07
3.00012e-06
3.00089e-06
1.75202e-06
8.8823e-06
1.75259e-06
8.88189e-06
2.25109e-05
2.25107e-05
1.7519e-06
8.88436e-06
1.75241e-06
8.88398e-06
2.85999e-07
2.86002e-07
2.86e-07
2.85996e-07
2.85998e-07
2.86001e-07
2.85999e-07
5.62774e-07
1.39536e-06
2.94937e-07
3.12404e-07
5.6293e-07
1.39457e-06
2.94939e-07
2.25115e-05
2.25112e-05
5.62773e-07
2.94939e-07
1.39529e-06
3.12413e-07
5.62929e-07
2.94941e-07
1.39453e-06
3.00066e-06
3.00142e-06
3.45358e-07
3.00012e-06
3.00089e-06
1.75202e-06
8.8823e-06
1.75259e-06
8.88189e-06
2.25109e-05
2.25107e-05
1.75189e-06
8.88436e-06
1.75241e-06
8.88398e-06
2.85998e-07
2.86002e-07
2.86e-07
5.62772e-07
1.39536e-06
2.94937e-07
3.12404e-07
5.62929e-07
1.39457e-06
2.94939e-07
2.25115e-05
2.25112e-05
5.62776e-07
2.94939e-07
1.39528e-06
3.12414e-07
5.62931e-07
2.94942e-07
1.39453e-06
3.00066e-06
3.00142e-06
3.45358e-07
3.00012e-06
3.00097e-06
8.88287e-06
1.39453e-06
2.25152e-05
3.00025e-06
2.99949e-06
2.25125e-05
1.39445e-06
8.88228e-06
2.25148e-05
2.2513e-05
2.25165e-05
2.25149e-05
3.00008e-06
3.00089e-06
3.45455e-07
2.99982e-06
3.00062e-06
2.25115e-05
2.25129e-05
2.25133e-05
2.25146e-05
3.45718e-07
2.99999e-06
3.00078e-06
3.00038e-06
3.00117e-06
1.75199e-06
8.88322e-06
1.75244e-06
8.88284e-06
5.62866e-07
1.39508e-06
2.95066e-07
3.12545e-07
5.63016e-07
1.39441e-06
2.95066e-07
5.62869e-07
1.39532e-06
2.95068e-07
3.12551e-07
5.63019e-07
1.39464e-06
2.95068e-07
1.75256e-06
8.88191e-06
8.88238e-06
1.75207e-06
1.75258e-06
8.88262e-06
8.88317e-06
1.75209e-06
5.6303e-07
3.12544e-07
1.39449e-06
2.95065e-07
1.39519e-06
2.95065e-07
5.62881e-07
5.63033e-07
3.1255e-07
1.3947e-06
2.95067e-07
1.39541e-06
2.95067e-07
5.62884e-07
3.00087e-06
3.00018e-06
3.45454e-07
3.00058e-06
2.99974e-06
2.25126e-05
2.25107e-05
2.25119e-05
2.25131e-05
3.45718e-07
3.00073e-06
2.99989e-06
3.00114e-06
3.00037e-06
2.25095e-05
2.25109e-05
5.62876e-07
1.39548e-06
2.95068e-07
3.1253e-07
5.63023e-07
1.39478e-06
2.95068e-07
1.75184e-06
8.88349e-06
1.75224e-06
8.88305e-06
5.62873e-07
2.95071e-07
1.39549e-06
3.12557e-07
5.63022e-07
2.95071e-07
1.39478e-06
1.75239e-06
8.88304e-06
8.88354e-06
1.75196e-06
5.63038e-07
3.12529e-07
1.39486e-06
2.95066e-07
1.39559e-06
2.95066e-07
5.62891e-07
1.75238e-06
8.88292e-06
8.88344e-06
1.75194e-06
5.63036e-07
3.12556e-07
2.9507e-07
1.39486e-06
2.9507e-07
1.39559e-06
5.62888e-07
1.75201e-06
8.88268e-06
1.75246e-06
8.88227e-06
5.62874e-07
2.95067e-07
1.39515e-06
3.12548e-07
5.63021e-07
2.95067e-07
1.39448e-06
1.752e-06
8.88341e-06
1.75245e-06
8.88302e-06
5.63034e-07
3.12527e-07
1.39461e-06
2.95066e-07
1.39535e-06
2.95066e-07
5.62887e-07
1.75259e-06
8.88203e-06
8.88262e-06
1.7521e-06
5.63036e-07
3.12547e-07
2.95066e-07
1.39456e-06
2.95066e-07
1.39526e-06
5.62889e-07
1.75259e-06
8.88291e-06
8.88339e-06
1.7521e-06
3.00103e-06
3.00019e-06
3.45464e-07
3.00057e-06
2.99988e-06
2.25159e-05
2.25142e-05
2.25127e-05
2.25142e-05
3.45727e-07
3.00077e-06
3.00006e-06
3.00122e-06
3.00044e-06
2.25126e-05
2.2514e-05
5.62865e-07
2.95067e-07
1.39531e-06
3.12529e-07
5.63014e-07
2.95067e-07
1.39464e-06
1.75184e-06
8.88357e-06
1.75223e-06
8.88317e-06
1.75185e-06
8.88413e-06
1.75224e-06
8.88374e-06
5.63031e-07
3.12533e-07
2.95066e-07
1.39456e-06
2.95066e-07
1.39525e-06
5.62883e-07
5.63028e-07
3.12528e-07
2.95066e-07
1.39472e-06
2.95066e-07
1.39542e-06
5.6288e-07
1.75238e-06
8.88306e-06
8.88353e-06
1.75194e-06
1.75238e-06
8.88363e-06
8.88411e-06
1.75195e-06
2.25161e-05
2.25144e-05
2.25167e-05
2.2515e-05
3.45727e-07
3.00008e-06
3.00084e-06
3.00045e-06
3.00122e-06
2.25128e-05
2.25142e-05
2.25134e-05
2.25148e-05
2.25115e-05
2.25105e-05
2.25131e-05
2.25122e-05
3.0005e-06
3.00129e-06
3.45462e-07
3.00003e-06
3.00081e-06
2.25101e-05
2.25107e-05
2.25117e-05
2.25122e-05
3.45725e-07
3.00007e-06
3.00083e-06
3.00054e-06
3.00131e-06
1.75214e-06
8.88292e-06
1.75266e-06
8.88241e-06
5.62895e-07
1.39525e-06
2.95068e-07
3.12548e-07
5.63045e-07
1.39453e-06
2.95068e-07
5.62898e-07
1.39547e-06
2.9507e-07
3.12554e-07
5.63048e-07
1.39474e-06
2.9507e-07
1.75269e-06
8.88157e-06
8.88202e-06
1.75215e-06
1.75271e-06
8.88228e-06
8.88274e-06
1.75217e-06
5.63059e-07
3.12547e-07
1.39455e-06
2.95067e-07
1.39529e-06
2.95067e-07
5.6291e-07
5.63063e-07
3.12553e-07
1.39476e-06
2.9507e-07
1.3955e-06
2.95069e-07
5.62913e-07
3.00127e-06
3.00051e-06
3.45459e-07
3.00083e-06
3.00002e-06
2.25097e-05
2.25088e-05
2.2511e-05
2.25115e-05
3.45722e-07
3.0009e-06
3.00013e-06
3.00136e-06
3.00064e-06
2.25084e-05
2.25091e-05
5.62906e-07
1.39566e-06
2.95069e-07
3.12532e-07
5.63053e-07
1.3949e-06
2.95069e-07
1.75199e-06
8.88325e-06
1.75246e-06
8.88268e-06
5.62903e-07
2.95073e-07
1.39566e-06
3.1256e-07
5.63051e-07
2.95073e-07
1.3949e-06
1.75252e-06
8.88265e-06
8.88316e-06
1.75204e-06
5.63067e-07
3.12532e-07
1.39492e-06
2.95068e-07
1.39569e-06
2.95068e-07
5.62921e-07
1.75251e-06
8.88253e-06
8.88303e-06
1.75202e-06
5.63066e-07
3.12559e-07
2.95072e-07
1.39493e-06
2.95072e-07
1.3957e-06
5.62918e-07
1.75216e-06
8.88236e-06
1.75268e-06
8.88181e-06
5.62903e-07
2.95069e-07
1.39533e-06
3.1255e-07
5.63051e-07
2.95069e-07
1.39461e-06
1.75215e-06
8.88321e-06
1.75267e-06
8.88265e-06
5.63063e-07
3.1253e-07
1.39468e-06
2.95068e-07
1.39544e-06
2.95068e-07
5.62914e-07
1.75272e-06
8.88169e-06
8.88217e-06
1.75219e-06
5.63065e-07
3.1255e-07
2.95068e-07
1.39463e-06
2.95068e-07
1.39536e-06
5.62918e-07
1.75272e-06
8.88249e-06
8.88297e-06
1.75218e-06
3.00138e-06
3.00058e-06
3.45471e-07
3.00089e-06
3.00011e-06
2.25127e-05
2.25117e-05
2.25112e-05
2.2512e-05
3.45733e-07
3.00097e-06
3.00014e-06
3.00149e-06
3.00062e-06
2.25113e-05
2.25118e-05
5.62894e-07
2.95069e-07
1.39549e-06
3.12531e-07
5.63043e-07
2.95069e-07
1.39476e-06
1.75199e-06
8.88336e-06
1.75246e-06
8.8828e-06
1.752e-06
8.88393e-06
1.75247e-06
8.88337e-06
5.6306e-07
3.12536e-07
2.95067e-07
1.39463e-06
2.95067e-07
1.39536e-06
5.6291e-07
5.63058e-07
3.12531e-07
2.95067e-07
1.39479e-06
2.95067e-07
1.39553e-06
5.62909e-07
1.7525e-06
8.88264e-06
8.88312e-06
1.75202e-06
1.75251e-06
8.88321e-06
8.88369e-06
1.75203e-06
2.25128e-05
2.25119e-05
2.25134e-05
2.25125e-05
3.45733e-07
3.00017e-06
3.00094e-06
3.00065e-06
3.00141e-06
2.25114e-05
2.2512e-05
2.25121e-05
2.25126e-05
2.25103e-05
2.25099e-05
2.25119e-05
2.25116e-05
3.00058e-06
3.00134e-06
3.45469e-07
3.00013e-06
3.0009e-06
2.25098e-05
2.25102e-05
2.25116e-05
2.25118e-05
3.45732e-07
3.00021e-06
3.00099e-06
3.00065e-06
3.00141e-06
1.75218e-06
8.88263e-06
1.75273e-06
8.88222e-06
5.62922e-07
1.39531e-06
2.95071e-07
3.12551e-07
5.63074e-07
1.39457e-06
2.95071e-07
5.62925e-07
1.39552e-06
2.95073e-07
3.12557e-07
5.63077e-07
1.39477e-06
2.95073e-07
1.75272e-06
8.88142e-06
8.88183e-06
1.75216e-06
1.75273e-06
8.88222e-06
8.88258e-06
1.75218e-06
5.63085e-07
3.12552e-07
1.39458e-06
2.9507e-07
1.39533e-06
2.9507e-07
5.62932e-07
5.63089e-07
3.12557e-07
1.39479e-06
2.95071e-07
1.39554e-06
2.95071e-07
5.62935e-07
3.00143e-06
3.00074e-06
3.45466e-07
3.00098e-06
3.00021e-06
2.25087e-05
2.25083e-05
2.25109e-05
2.25111e-05
3.45729e-07
3.00108e-06
3.00027e-06
3.00152e-06
3.00081e-06
2.25084e-05
2.25087e-05
5.62932e-07
1.39571e-06
2.95071e-07
3.12536e-07
5.63082e-07
1.39494e-06
2.95071e-07
1.75203e-06
8.88289e-06
1.75253e-06
8.88243e-06
5.62929e-07
2.95075e-07
1.39572e-06
3.12563e-07
5.63081e-07
2.95075e-07
1.39495e-06
1.75254e-06
8.88252e-06
8.88295e-06
1.75203e-06
5.63092e-07
3.12536e-07
1.39496e-06
2.9507e-07
1.39573e-06
2.9507e-07
5.6294e-07
1.75253e-06
8.88238e-06
8.88281e-06
1.75202e-06
5.6309e-07
3.12563e-07
2.95074e-07
1.39497e-06
2.95074e-07
1.39574e-06
5.62937e-07
1.7522e-06
8.88206e-06
1.75275e-06
8.88162e-06
5.6293e-07
2.95071e-07
1.39539e-06
3.12553e-07
5.6308e-07
2.95071e-07
1.39465e-06
1.75219e-06
8.88283e-06
1.75274e-06
8.8824e-06
5.63085e-07
3.12534e-07
1.39471e-06
2.9507e-07
1.39548e-06
2.95071e-07
5.62932e-07
1.75275e-06
8.88159e-06
8.88201e-06
1.75219e-06
5.6309e-07
3.12553e-07
2.9507e-07
1.39467e-06
2.9507e-07
1.3954e-06
5.62938e-07
1.75274e-06
8.88235e-06
8.88275e-06
1.75218e-06
3.00156e-06
3.00065e-06
3.45478e-07
3.00103e-06
3.0002e-06
2.25115e-05
2.2511e-05
2.2511e-05
2.25113e-05
3.4574e-07
3.00111e-06
3.00029e-06
3.00163e-06
3.00072e-06
2.2511e-05
2.25113e-05
5.62919e-07
2.9507e-07
1.39555e-06
3.12534e-07
5.63072e-07
2.9507e-07
1.39481e-06
1.75202e-06
8.88298e-06
1.75252e-06
8.88255e-06
1.75203e-06
8.88355e-06
1.75253e-06
8.88312e-06
5.6308e-07
3.1254e-07
2.95068e-07
1.39466e-06
2.95069e-07
1.39539e-06
5.62926e-07
5.63081e-07
3.12534e-07
2.95069e-07
1.39482e-06
2.95069e-07
1.39557e-06
5.62927e-07
1.75252e-06
8.8825e-06
8.8829e-06
1.75201e-06
1.75253e-06
8.88307e-06
8.88347e-06
1.75202e-06
2.25117e-05
2.25112e-05
2.25123e-05
2.25118e-05
3.45739e-07
3.00032e-06
3.00108e-06
3.00076e-06
3.00151e-06
2.25112e-05
2.25115e-05
2.25118e-05
2.25121e-05
2.25102e-05
2.251e-05
2.25118e-05
2.25118e-05
3.00073e-06
3.0015e-06
3.45479e-07
3.00029e-06
3.00107e-06
2.25103e-05
2.25103e-05
2.25121e-05
2.2512e-05
3.45742e-07
3.00033e-06
3.00111e-06
3.0008e-06
3.00158e-06
1.75216e-06
8.88259e-06
1.75273e-06
8.88222e-06
5.62939e-07
1.39534e-06
2.95073e-07
3.12556e-07
5.63094e-07
1.39459e-06
2.95073e-07
5.62943e-07
1.39554e-06
2.95074e-07
3.12562e-07
5.63098e-07
1.39479e-06
2.95074e-07
1.7527e-06
8.88142e-06
8.88177e-06
1.75215e-06
1.75272e-06
8.88226e-06
8.88259e-06
1.75217e-06
5.63101e-07
3.12557e-07
1.39459e-06
2.95071e-07
1.39535e-06
2.95072e-07
5.62948e-07
5.63105e-07
3.1256e-07
1.39479e-06
2.95071e-07
1.39555e-06
2.95073e-07
5.62952e-07
3.00161e-06
3.00087e-06
3.45475e-07
3.00113e-06
3.00031e-06
2.25088e-05
2.25086e-05
2.25116e-05
2.25116e-05
3.45738e-07
3.00112e-06
3.00035e-06
3.00162e-06
3.0009e-06
2.25089e-05
2.25091e-05
5.62947e-07
1.39574e-06
2.95073e-07
3.1254e-07
5.631e-07
1.39497e-06
2.95073e-07
1.75201e-06
8.88278e-06
1.75252e-06
8.88238e-06
5.62944e-07
2.95077e-07
1.39576e-06
3.12566e-07
5.63098e-07
2.95077e-07
1.39498e-06
1.75252e-06
8.88255e-06
8.88292e-06
1.75203e-06
5.63107e-07
3.1254e-07
1.39497e-06
2.95072e-07
1.39575e-06
2.95072e-07
5.62957e-07
1.75251e-06
8.88241e-06
8.88278e-06
1.75201e-06
5.63105e-07
3.12566e-07
2.95074e-07
1.39498e-06
2.95076e-07
1.39577e-06
5.62954e-07
1.75218e-06
8.88199e-06
1.75274e-06
8.8816e-06
5.62944e-07
2.95073e-07
1.39542e-06
3.12557e-07
5.63098e-07
2.95073e-07
1.39467e-06
1.75217e-06
8.88272e-06
1.75273e-06
8.88235e-06
5.63099e-07
3.12537e-07
1.39472e-06
2.95071e-07
1.3955e-06
2.95072e-07
5.62945e-07
1.75273e-06
8.88165e-06
8.882e-06
1.75218e-06
5.63105e-07
3.12557e-07
2.95071e-07
1.39468e-06
2.95073e-07
1.39542e-06
5.62954e-07
1.75272e-06
8.88237e-06
8.88271e-06
1.75217e-06
3.00171e-06
3.0008e-06
3.45488e-07
3.00119e-06
3.00037e-06
2.25113e-05
2.25111e-05
2.25114e-05
2.25116e-05
3.45749e-07
3.00123e-06
3.00041e-06
3.00178e-06
3.00088e-06
2.25114e-05
2.25115e-05
5.62933e-07
2.95071e-07
1.39558e-06
3.12538e-07
5.63088e-07
2.95071e-07
1.39483e-06
1.752e-06
8.88287e-06
1.75251e-06
8.8825e-06
1.75201e-06
8.88344e-06
1.75252e-06
8.88307e-06
5.63093e-07
3.12544e-07
2.95069e-07
1.39468e-06
2.9507e-07
1.39541e-06
5.6294e-07
5.63096e-07
3.12538e-07
2.9507e-07
1.39484e-06
2.9507e-07
1.39559e-06
5.62943e-07
1.7525e-06
8.88252e-06
8.88287e-06
1.752e-06
1.75251e-06
8.88309e-06
8.88344e-06
1.75201e-06
2.25115e-05
2.25113e-05
2.25121e-05
2.25119e-05
3.45748e-07
3.00044e-06
3.0012e-06
3.00091e-06
3.00167e-06
2.25116e-05
2.25117e-05
2.25122e-05
2.25123e-05
2.25107e-05
2.25107e-05
2.25124e-05
2.25124e-05
3.00083e-06
3.00162e-06
3.45488e-07
3.00035e-06
3.00113e-06
2.25114e-05
2.25111e-05
2.25131e-05
2.25128e-05
3.4575e-07
3.0003e-06
3.0011e-06
3.00083e-06
3.00161e-06
1.75217e-06
8.88264e-06
1.75271e-06
8.88233e-06
5.62954e-07
1.39535e-06
2.9507e-07
3.1256e-07
5.6311e-07
1.3946e-06
2.95069e-07
5.62959e-07
1.39554e-06
2.9507e-07
3.12562e-07
5.63114e-07
1.39479e-06
2.95069e-07
1.75271e-06
8.88162e-06
8.88184e-06
1.75215e-06
1.75274e-06
8.88264e-06
8.88275e-06
1.75218e-06
5.63115e-07
3.12559e-07
1.39461e-06
2.95066e-07
1.39535e-06
2.95066e-07
5.62953e-07
5.6312e-07
3.12561e-07
1.39482e-06
2.95067e-07
1.39555e-06
2.95067e-07
5.62958e-07
3.00161e-06
3.00093e-06
3.45482e-07
3.00106e-06
3.00034e-06
2.25094e-05
2.25094e-05
2.25127e-05
2.25125e-05
3.45744e-07
3.00108e-06
3.00038e-06
3.00154e-06
3.00091e-06
2.25099e-05
2.251e-05
5.62962e-07
1.39576e-06
2.95073e-07
3.12544e-07
5.63117e-07
1.39497e-06
2.95072e-07
1.75201e-06
8.88283e-06
1.75251e-06
8.88246e-06
5.62959e-07
2.95074e-07
1.39577e-06
3.12569e-07
5.63114e-07
2.95072e-07
1.39498e-06
1.75253e-06
8.88276e-06
8.88301e-06
1.75202e-06
5.6312e-07
3.12541e-07
1.39499e-06
2.95068e-07
1.39576e-06
2.95069e-07
5.62958e-07
1.75252e-06
8.88262e-06
8.88287e-06
1.75201e-06
5.63118e-07
3.12567e-07
2.95069e-07
1.395e-06
2.9507e-07
1.39577e-06
5.62956e-07
1.75218e-06
8.88206e-06
1.75272e-06
8.88175e-06
5.62958e-07
2.9507e-07
1.39543e-06
3.1256e-07
5.63113e-07
2.95069e-07
1.39468e-06
1.75217e-06
8.88275e-06
1.75272e-06
8.88241e-06
5.63111e-07
3.12537e-07
1.39476e-06
2.95066e-07
1.39551e-06
2.95066e-07
5.62953e-07
1.75274e-06
8.88208e-06
8.88221e-06
1.75218e-06
5.63117e-07
3.12558e-07
2.95066e-07
1.39469e-06
2.95067e-07
1.39543e-06
5.62956e-07
1.75274e-06
8.88256e-06
8.88279e-06
1.75217e-06
3.00182e-06
3.00092e-06
3.45496e-07
3.00124e-06
3.00043e-06
2.25118e-05
2.25118e-05
2.25124e-05
2.25124e-05
3.45757e-07
3.00121e-06
3.0004e-06
3.00181e-06
3.00091e-06
2.25125e-05
2.25123e-05
5.62947e-07
2.9507e-07
1.39559e-06
3.12541e-07
5.63104e-07
2.95069e-07
1.39484e-06
1.75201e-06
8.88291e-06
1.7525e-06
8.88256e-06
1.75201e-06
8.88348e-06
1.75251e-06
8.88313e-06
5.63106e-07
3.12543e-07
2.95069e-07
1.39469e-06
2.9507e-07
1.39542e-06
5.62947e-07
5.63107e-07
3.12539e-07
2.95065e-07
1.39485e-06
2.95066e-07
1.39559e-06
5.62945e-07
1.75251e-06
8.88272e-06
8.88295e-06
1.752e-06
1.75252e-06
8.88329e-06
8.88352e-06
1.75201e-06
2.2512e-05
2.2512e-05
2.25126e-05
2.25126e-05
3.45756e-07
3.00042e-06
3.00119e-06
3.00094e-06
3.0017e-06
2.25127e-05
2.25124e-05
2.25133e-05
2.25131e-05
2.25118e-05
2.25116e-05
2.25134e-05
2.25133e-05
3.00081e-06
3.00162e-06
3.45489e-07
3.00039e-06
3.00121e-06
2.2511e-05
2.25117e-05
2.25126e-05
2.25133e-05
3.45751e-07
3.00045e-06
3.00128e-06
3.00093e-06
3.00175e-06
1.75225e-06
8.88311e-06
1.75273e-06
8.88286e-06
5.62957e-07
1.39538e-06
2.95066e-07
3.1256e-07
5.63112e-07
1.39469e-06
2.95065e-07
5.62961e-07
1.39561e-06
2.95067e-07
3.12561e-07
5.63118e-07
1.39495e-06
2.95066e-07
1.75287e-06
8.88235e-06
8.88248e-06
1.7524e-06
1.75288e-06
8.88299e-06
8.88329e-06
1.75241e-06
5.6312e-07
3.12557e-07
1.39475e-06
2.95058e-07
1.39548e-06
2.95063e-07
5.6295e-07
5.63124e-07
3.12556e-07
1.39502e-06
2.95058e-07
1.39578e-06
2.95063e-07
5.62951e-07
3.00162e-06
3.001e-06
3.45483e-07
3.00129e-06
3.00052e-06
2.25103e-05
2.25098e-05
2.25107e-05
2.25117e-05
3.45743e-07
3.00138e-06
3.00052e-06
3.00191e-06
3.00113e-06
2.25092e-05
2.251e-05
5.62964e-07
1.39579e-06
2.95067e-07
3.12542e-07
5.63115e-07
1.39507e-06
2.95066e-07
1.7521e-06
8.88309e-06
1.75251e-06
8.88299e-06
5.6296e-07
2.9507e-07
1.3958e-06
3.12568e-07
5.63114e-07
2.95069e-07
1.39508e-06
1.7527e-06
8.8835e-06
8.88363e-06
1.75228e-06
5.63125e-07
3.12539e-07
1.39513e-06
2.95059e-07
1.39588e-06
2.95063e-07
5.6296e-07
1.75268e-06
8.88337e-06
8.88348e-06
1.75227e-06
5.63123e-07
3.12566e-07
2.95062e-07
1.39514e-06
2.95066e-07
1.3959e-06
5.62957e-07
1.75226e-06
8.88258e-06
1.75273e-06
8.88248e-06
5.62961e-07
2.95066e-07
1.39546e-06
3.12559e-07
5.63114e-07
2.95065e-07
1.39477e-06
1.75225e-06
8.88301e-06
1.75272e-06
8.88295e-06
5.63121e-07
3.12532e-07
1.39488e-06
2.95057e-07
1.39567e-06
2.95062e-07
5.62954e-07
1.75289e-06
8.88275e-06
8.88294e-06
1.75243e-06
5.63123e-07
3.12556e-07
2.95058e-07
1.39483e-06
2.95063e-07
1.39555e-06
5.62957e-07
1.75288e-06
8.88333e-06
8.88341e-06
1.75242e-06
3.00181e-06
3.00091e-06
3.45498e-07
3.00132e-06
3.00051e-06
2.25129e-05
2.25127e-05
2.25121e-05
2.2513e-05
3.45759e-07
3.00139e-06
3.00058e-06
3.00195e-06
3.00105e-06
2.25121e-05
2.25129e-05
5.6295e-07
2.95065e-07
1.39562e-06
3.1254e-07
5.63104e-07
2.95064e-07
1.39493e-06
1.75209e-06
8.88316e-06
1.7525e-06
8.8831e-06
1.7521e-06
8.88374e-06
1.75251e-06
8.88367e-06
5.63116e-07
3.12542e-07
2.9506e-07
1.39483e-06
2.95064e-07
1.39554e-06
5.6295e-07
5.63114e-07
3.12537e-07
2.95058e-07
1.39499e-06
2.95062e-07
1.39571e-06
5.62947e-07
1.75267e-06
8.88348e-06
8.88356e-06
1.75226e-06
1.75267e-06
8.88405e-06
8.88413e-06
1.75227e-06
2.25131e-05
2.25129e-05
2.25137e-05
2.25135e-05
3.45757e-07
3.0006e-06
3.00137e-06
3.00108e-06
3.00184e-06
2.25123e-05
2.2513e-05
2.25129e-05
2.25137e-05
2.25111e-05
2.25109e-05
2.25127e-05
2.25121e-05
3.00096e-06
3.00177e-06
3.4544e-07
3.00037e-06
3.00117e-06
2.25107e-05
2.25111e-05
2.2512e-05
2.25122e-05
3.45685e-07
3.00019e-06
3.00098e-06
3.00086e-06