/*--------------------------------*- C++ -*----------------------------------*\
| =========                 |                                                 |
| \\      /  F ield         | OpenFOAM: The Open Source CFD Toolbox           |
|  \\    /   O peration     | Version:  2206                                  |
|   \\  /    A nd           | Website:  www.openfoam.com                      |
|    \\/     M anipulation  |                                                 |
\*---------------------------------------------------------------------------*/
FoamFile
{
    version     2.0;
    format      ascii;
    arch        "LSB;label=32;scalar=64";
    class       volScalarField;
    location    "12.5";
    object      nut;
}
// * * * * * * * * * * * * * * * * * * * * * * * * * * * * * * * * * * * * * //

dimensions      [0 2 -1 0 0 0 0];

internalField   nonuniform List<scalar> 
28448
(
0.000230845
0.000223532
0.000223527
0.000213027
0.000230844
0.00022353
0.000223524
0.000213022
0.000230835
0.000223514
0.000223495
0.000212975
0.000230825
0.000223482
0.000223482
0.000212942
0.000230832
0.000223487
0.000223484
0.000212941
0.000230832
0.000223488
0.000223485
0.000212943
0.000230833
0.000223488
0.000223485
0.000212942
0.000230832
0.000223488
0.000223485
0.000212942
0.000230832
0.000223488
0.000223485
0.000212942
0.000230832
0.000223488
0.000223485
0.000212942
0.000230832
0.000223488
0.000223485
0.000212942
0.000230833
0.000223488
0.000223485
0.000212942
0.000230832
0.000223488
0.000223485
0.000212942
0.000230832
0.000223488
0.000223485
0.000212942
0.000230832
0.000223488
0.000223485
0.000212942
0.000230832
0.000223488
0.000223485
0.000212942
0.000230832
0.000223488
0.000223485
0.000212942
0.000230835
0.000223487
0.000213118
0.000223525
0.000223524
0.00021312
0.000223528
0.00022352
0.000223532
0.000223524
0.000213111
0.000223527
0.000223527
0.000213114
0.000213032
0.000213111
0.000223525
0.000223524
0.000223526
0.000223524
0.000213034
0.000213113
0.000223528
0.00022352
0.000223529
0.000223519
0.000223525
0.000223531
0.000223524
0.000213026
0.000213104
0.000223528
0.000223524
0.000223527
0.000213109
0.000213027
0.0002131
0.000223523
0.000223522
0.000223519
0.000223517
0.000213028
0.000213101
0.000223528
0.000223519
0.000223523
0.000223508
0.000223523
0.000223524
0.000223512
0.00021302
0.000213083
0.000223527
0.000223515
0.000223515
0.000213086
0.000213008
0.00021302
0.000223512
0.000223511
0.000223474
0.000223473
0.00021301
0.000213022
0.000223515
0.000223487
0.000223477
0.000223471
0.000223491
0.000223479
0.000223475
0.000212978
0.000213022
0.000223494
0.000223479
0.000223479
0.000213025
0.000212937
0.000213036
0.000223477
0.000223476
0.000223481
0.00022348
0.000212939
0.000213038
0.00022348
0.000223475
0.000223485
0.000223477
0.000223479
0.000223487
0.000223481
0.000212942
0.000213028
0.000223483
0.000223485
0.000223484
0.000213029
0.00021295
0.00021303
0.000223482
0.000223481
0.000223482
0.000223481
0.000212952
0.000213032
0.000223486
0.000223477
0.000223485
0.000223477
0.000223481
0.000223488
0.000223481
0.000212942
0.000213028
0.000223484
0.000223485
0.000223485
0.000213031
0.000212947
0.00021303
0.000223482
0.000223481
0.000223482
0.000223481
0.000212949
0.000213032
0.000223486
0.000223477
0.000223485
0.000223477
0.000223482
0.000223488
0.000223481
0.000212944
0.000213026
0.000223485
0.000223485
0.000223485
0.00021303
0.000212946
0.00021303
0.000223482
0.000223481
0.000223482
0.000223481
0.000212948
0.000213032
0.000223486
0.000223477
0.000223485
0.000223477
0.000223482
0.000223488
0.000223481
0.000212943
0.000213027
0.000223485
0.000223485
0.000223485
0.00021303
0.000212946
0.00021303
0.000223482
0.000223481
0.000223482
0.000223481
0.000212948
0.000213033
0.000223486
0.000223477
0.000223485
0.000223477
0.000223482
0.000223488
0.000223481
0.000212943
0.000213027
0.000223485
0.000223485
0.000223485
0.00021303
0.000212946
0.00021303
0.000223482
0.000223481
0.000223482
0.000223481
0.000212948
0.000213033
0.000223486
0.000223477
0.000223485
0.000223477
0.000223482
0.000223488
0.000223481
0.000212943
0.000213026
0.000223485
0.000223485
0.000223485
0.00021303
0.000212946
0.000213031
0.000223482
0.000223481
0.000223482
0.000223481
0.000212948
0.000213032
0.000223486
0.000223477
0.000223485
0.000223477
0.000223482
0.000223488
0.000223481
0.000212942
0.000213026
0.000223485
0.000223485
0.000223485
0.00021303
0.000212947
0.000213031
0.000223482
0.000223481
0.000223482
0.000223481
0.000212948
0.000213032
0.000223486
0.000223477
0.000223485
0.000223477
0.000223482
0.000223488
0.000223481
0.000212942
0.000213026
0.000223485
0.000223485
0.000223485
0.00021303
0.000212946
0.00021303
0.000223482
0.000223481
0.000223482
0.000223481
0.000212948
0.000213033
0.000223486
0.000223477
0.000223485
0.000223477
0.000223482
0.000223488
0.000223481
0.000212942
0.000213026
0.000223485
0.000223485
0.000223485
0.00021303
0.000212946
0.000213031
0.000223482
0.000223481
0.000223482
0.000223481
0.000212948
0.000213032
0.000223486
0.000223477
0.000223485
0.000223477
0.000223482
0.000223488
0.000223481
0.000212942
0.000213026
0.000223485
0.000223485
0.000223485
0.00021303
0.000212946
0.000213031
0.000223482
0.000223481
0.000223482
0.000223481
0.000212948
0.000213033
0.000223486
0.000223477
0.000223485
0.000223477
0.000223482
0.000223488
0.000223481
0.000212942
0.000213026
0.000223485
0.000223485
0.000223485
0.00021303
0.000212947
0.000213031
0.000223482
0.000223481
0.000223482
0.000223481
0.000212948
0.000213032
0.000223486
0.000223477
0.000223485
0.000223477
0.000223482
0.000223488
0.000223481
0.000212942
0.000213026
0.000223485
0.000223485
0.000223485
0.00021303
0.000212947
0.000213031
0.000223482
0.000223481
0.000223482
0.000223481
0.000212948
0.000213032
0.000223486
0.000223477
0.000223485
0.000223477
0.000223482
0.000223488
0.000223481
0.000212942
0.000213027
0.000223485
0.000223485
0.000223485
0.00021303
0.000212946
0.00021303
0.000223482
0.000223481
0.000223483
0.000212948
0.000223486
0.000223477
0.000223485
0.000223477
0.000223482
0.000223483
0.000212942
0.000213027
0.000223485
0.000223485
0.000223486
0.000213035
0.000212957
0.000223486
0.000223478
0.000212943
0.000230845
0.000230845
0.000230844
0.000230844
6.51291e-05
4.67414e-05
6.51126e-05
4.67404e-05
2.60305e-05
2.60293e-05
6.51404e-05
4.67375e-05
6.51246e-05
4.67363e-05
0.000230845
0.000230844
0.000230845
0.000230845
0.000230845
0.000230844
0.000230844
0.000151076
7.80918e-05
0.000228897
0.000223532
0.000151036
7.81218e-05
0.000228898
2.60275e-05
2.60265e-05
0.000151068
0.000228896
7.80949e-05
0.000223524
0.000151028
0.000228894
7.81265e-05
4.21944e-05
4.21861e-05
0.000213112
4.22034e-05
4.2195e-05
6.51371e-05
4.67406e-05
6.51236e-05
4.67398e-05
2.60287e-05
2.60282e-05
6.51467e-05
4.67366e-05
6.51352e-05
4.67357e-05
0.000230845
0.000230843
0.000230844
0.000230841
0.000230841
0.000230835
0.000230835
0.000151082
7.81126e-05
0.000228897
0.000223529
0.000151058
7.81367e-05
0.000228896
2.60262e-05
2.6026e-05
0.000151075
0.000228895
7.81143e-05
0.000223523
0.00015105
0.000228894
7.81358e-05
4.22064e-05
4.21981e-05
0.000213108
4.22127e-05
4.22042e-05
6.50936e-05
4.67416e-05
6.5112e-05
4.67471e-05
2.60293e-05
2.60322e-05
6.5096e-05
4.67377e-05
6.51188e-05
4.67431e-05
0.000230835
0.000230821
0.000230821
0.00023082
0.000230821
0.000230825
0.000230825
0.000150965
7.80979e-05
0.000228875
0.000223493
0.000151015
7.80871e-05
0.000228866
2.60293e-05
2.6031e-05
0.000150956
0.000228869
7.80823e-05
0.000223481
0.000151005
0.000228862
7.80664e-05
4.21891e-05
4.21807e-05
0.000213031
4.21698e-05
4.21613e-05
6.50473e-05
4.67532e-05
6.50378e-05
4.67523e-05
2.60335e-05
2.60332e-05
6.50562e-05
4.67492e-05
6.50475e-05
4.67483e-05
0.000230826
0.00023083
0.00023083
0.000230833
0.000230833
0.000230832
0.000230832
0.00015094
7.80236e-05
0.000228872
0.000223486
0.000150912
7.80408e-05
0.000228874
2.60312e-05
2.60308e-05
0.000150933
0.000228872
7.80241e-05
0.000223484
0.000150904
0.000228874
7.80437e-05
4.21517e-05
4.21433e-05
0.000213036
4.2156e-05
4.21475e-05
6.5047e-05
4.67529e-05
6.50351e-05
4.67522e-05
2.60334e-05
2.60332e-05
6.5056e-05
4.67489e-05
6.50454e-05
4.67481e-05
0.000230833
0.000230832
0.000230832
0.000230832
0.000230833
0.000230832
0.000230832
0.00015094
7.80178e-05
0.000228875
0.000223487
0.000150912
7.80398e-05
0.000228875
2.60311e-05
2.60308e-05
0.000150934
0.000228874
7.80226e-05
0.000223485
0.000150906
0.000228874
7.80435e-05
4.21518e-05
4.21434e-05
0.000213029
4.21561e-05
4.21477e-05
6.50471e-05
4.67528e-05
6.50351e-05
4.67521e-05
2.60334e-05
2.60332e-05
6.50561e-05
4.67488e-05
6.50455e-05
4.67481e-05
0.000230833
0.000230832
0.000230832
0.000230833
0.000230833
0.000230832
0.000230832
0.00015094
7.80179e-05
0.000228875
0.000223488
0.000150912
7.80398e-05
0.000228875
2.60311e-05
2.60308e-05
0.000150935
0.000228874
7.80226e-05
0.000223485
0.000150905
0.000228874
7.80435e-05
4.21518e-05
4.21435e-05
0.00021303
4.21561e-05
4.21477e-05
6.50471e-05
4.67528e-05
6.50351e-05
4.67521e-05
2.60334e-05
2.60332e-05
6.50561e-05
4.67488e-05
6.50455e-05
4.67481e-05
0.000230833
0.000230832
0.000230832
0.000230833
0.000230833
0.000230832
0.000230832
0.000150941
7.80179e-05
0.000228875
0.000223488
0.000150912
7.80398e-05
0.000228875
2.60311e-05
2.60308e-05
0.000150934
0.000228874
7.80226e-05
0.000223485
0.000150905
0.000228875
7.80435e-05
4.21518e-05
4.21435e-05
0.00021303
4.21561e-05
4.21476e-05
6.50471e-05
4.67528e-05
6.50351e-05
4.67521e-05
2.60334e-05
2.60332e-05
6.50561e-05
4.67488e-05
6.50455e-05
4.67481e-05
0.000230833
0.000230832
0.000230832
0.000230833
0.000230833
0.000230832
0.000230832
0.00015094
7.80179e-05
0.000228875
0.000223488
0.000150912
7.80398e-05
0.000228875
2.60311e-05
2.60308e-05
0.000150935
0.000228874
7.80225e-05
0.000223485
0.000150907
0.000228875
7.80434e-05
4.21519e-05
4.21434e-05
0.000213031
4.21561e-05
4.21476e-05
6.50471e-05
4.67528e-05
6.50351e-05
4.67521e-05
2.60334e-05
2.60332e-05
6.50561e-05
4.67488e-05
6.50455e-05
4.67481e-05
0.000230833
0.000230832
0.000230832
0.000230833
0.000230833
0.000230832
0.000230832
0.00015094
7.80179e-05
0.000228875
0.000223488
0.000150912
7.80398e-05
0.000228875
2.60311e-05
2.60308e-05
0.000150935
0.000228874
7.80225e-05
0.000223485
0.000150907
0.000228875
7.80434e-05
4.21519e-05
4.21434e-05
0.000213031
4.21561e-05
4.21476e-05
6.50471e-05
4.67528e-05
6.50351e-05
4.67521e-05
2.60334e-05
2.60332e-05
6.50561e-05
4.67488e-05
6.50455e-05
4.67481e-05
0.000230833
0.000230832
0.000230832
0.000230833
0.000230833
0.000230832
0.000230832
0.00015094
7.80179e-05
0.000228875
0.000223488
0.000150912
7.80398e-05
0.000228875
2.60311e-05
2.60308e-05
0.000150932
0.000228874
7.80225e-05
0.000223485
0.000150905
0.000228875
7.80434e-05
4.21519e-05
4.21434e-05
0.000213031
4.21562e-05
4.21476e-05
6.50471e-05
4.67528e-05
6.50351e-05
4.67521e-05
2.60334e-05
2.60332e-05
6.50561e-05
4.67488e-05
6.50455e-05
4.67481e-05
0.000230833
0.000230832
0.000230832
0.000230833
0.000230833
0.000230832
0.000230832
0.00015094
7.80179e-05
0.000228875
0.000223488
0.000150912
7.80398e-05
0.000228875
2.60311e-05
2.60308e-05
0.000150929
0.000228874
7.80225e-05
0.000223485
0.000150903
0.000228875
7.80434e-05
4.21519e-05
4.21434e-05
0.000213031
4.21561e-05
4.21476e-05
6.50471e-05
4.67528e-05
6.50351e-05
4.67521e-05
2.60334e-05
2.60332e-05
6.50561e-05
4.67488e-05
6.50455e-05
4.67481e-05
0.000230833
0.000230832
0.000230832
0.000230833
0.000230833
0.000230832
0.000230832
0.00015094
7.80179e-05
0.000228875
0.000223488
0.000150912
7.80398e-05
0.000228875
2.60311e-05
2.60308e-05
0.000150927
0.000228874
7.80225e-05
0.000223485
0.0001509
0.000228874
7.80434e-05
4.21519e-05
4.21434e-05
0.00021303
4.21561e-05
4.21476e-05
6.50471e-05
4.67528e-05
6.50351e-05
4.67521e-05
2.60334e-05
2.60332e-05
6.50561e-05
4.67488e-05
6.50455e-05
4.67481e-05
0.000230833
0.000230832
0.000230832
0.000230833
0.000230833
0.000230832
0.000230832
0.00015094
7.80179e-05
0.000228875
0.000223488
0.000150912
7.80398e-05
0.000228875
2.60311e-05
2.60308e-05
0.000150927
0.000228874
7.80225e-05
0.000223485
0.000150899
0.000228874
7.80434e-05
4.21519e-05
4.21434e-05
0.000213031
4.21562e-05
4.21476e-05
6.50471e-05
4.67528e-05
6.50351e-05
4.67521e-05
2.60334e-05
2.60332e-05
6.50561e-05
4.67488e-05
6.50455e-05
4.67481e-05
0.000230833
0.000230832
0.000230832
0.000230833
0.000230833
0.000230832
0.000230832
0.00015094
7.80179e-05
0.000228875
0.000223488
0.000150912
7.80398e-05
0.000228875
2.60311e-05
2.60308e-05
0.000150927
0.000228874
7.80225e-05
0.000223485
0.0001509
0.000228874
7.80434e-05
4.21519e-05
4.21434e-05
0.000213031
4.21562e-05
4.21476e-05
6.50471e-05
4.67528e-05
6.50351e-05
4.67521e-05
2.60334e-05
2.60332e-05
6.50561e-05
4.67488e-05
6.50455e-05
4.67481e-05
0.000230833
0.000230832
0.000230832
0.000230833
0.000230833
0.000230832
0.000230832
0.000150941
7.80179e-05
0.000228875
0.000223488
0.000150912
7.80398e-05
0.000228875
2.60311e-05
2.60308e-05
0.000150927
0.000228874
7.80225e-05
0.000223485
0.000150899
0.000228874
7.80434e-05
4.21519e-05
4.21434e-05
0.000213031
4.21562e-05
4.21476e-05
6.5047e-05
4.67528e-05
6.50351e-05
4.67521e-05
2.60334e-05
2.60332e-05
6.5056e-05
4.67488e-05
6.50454e-05
4.67481e-05
0.000230833
0.000230832
0.000230832
0.000230833
0.000230833
0.000230832
0.000230832
0.00015094
7.80179e-05
0.000228875
0.000223488
0.000150912
7.80398e-05
0.000228875
2.60311e-05
2.60308e-05
0.000150927
0.000228874
7.80225e-05
0.000223485
0.0001509
0.000228874
7.80434e-05
4.21518e-05
4.21434e-05
0.000213031
4.21561e-05
4.21476e-05
6.50471e-05
4.67528e-05
6.50351e-05
4.67521e-05
2.60334e-05
2.60332e-05
6.50561e-05
4.67488e-05
6.50454e-05
4.67481e-05
0.000230833
0.000230832
0.000230832
0.000230833
0.000230835
0.000230832
0.000230833
0.00015094
7.80179e-05
0.000228875
0.000223488
0.000150912
7.80398e-05
0.000228875
2.60311e-05
2.60308e-05
0.000150927
0.000228874
7.80225e-05
0.000223485
0.0001509
0.000228874
7.80434e-05
4.21518e-05
4.21434e-05
0.000213031
4.21561e-05
4.21476e-05
4.67488e-05
6.50454e-05
0.000230833
2.60311e-05
7.80255e-05
2.60315e-05
2.60299e-05
4.21964e-05
4.21864e-05
4.67409e-05
6.51225e-05
4.67406e-05
6.5123e-05
7.81173e-05
0.000228897
0.000151075
7.81149e-05
0.000228897
0.000151076
2.60306e-05
4.21881e-05
4.21865e-05
2.60311e-05
4.67369e-05
6.51327e-05
7.81034e-05
0.000228898
0.00015109
6.51031e-05
4.67353e-05
4.67363e-05
6.51281e-05
0.000151045
0.00022352
0.000228896
7.80991e-05
0.000228896
7.80772e-05
0.000151069
0.000151044
7.81175e-05
0.000228897
0.000228897
0.000151063
6.50948e-05
4.67394e-05
6.51222e-05
0.000151044
0.000223524
0.000228897
7.81115e-05
0.000228897
7.80917e-05
0.000151065
6.50944e-05
4.67381e-05
4.6739e-05
6.51219e-05
2.60275e-05
2.60295e-05
0.000213031
4.21779e-05
4.21966e-05
4.21665e-05
4.21861e-05
2.60299e-05
2.60316e-05
0.000151035
0.000223528
0.000228897
7.8112e-05
0.000228897
7.8091e-05
0.000151057
0.000151044
0.000223528
0.000228896
7.81061e-05
0.000228896
7.80868e-05
0.000151065
6.50931e-05
4.67379e-05
4.67387e-05
6.5121e-05
6.51017e-05
4.67375e-05
4.67384e-05
6.5127e-05
0.000213034
4.21966e-05
4.21881e-05
4.2186e-05
4.21778e-05
2.60297e-05
2.60315e-05
2.60289e-05
2.60306e-05
2.60314e-05
2.60303e-05
2.60297e-05
2.60286e-05
4.21954e-05
4.21854e-05
0.000213114
4.22027e-05
4.21928e-05
2.60295e-05
2.60303e-05
2.60279e-05
2.60286e-05
0.000213029
4.22096e-05
4.21998e-05
4.22022e-05
4.21923e-05
6.51287e-05
4.67409e-05
6.51158e-05
4.67403e-05
0.00015107
7.80994e-05
0.000228897
0.000223525
0.00015105
7.81251e-05
0.000228897
0.000151071
7.80945e-05
0.000228897
0.000223524
0.000151052
7.81204e-05
0.000228897
6.51224e-05
4.674e-05
4.67405e-05
6.51342e-05
6.5122e-05
4.67398e-05
4.67403e-05
6.51336e-05
0.000151052
0.000223526
7.81364e-05
0.000228898
7.81122e-05
0.000228898
0.000151086
0.000151052
0.000223525
7.81318e-05
0.000228897
7.81071e-05
0.000228897
0.000151086
4.21873e-05
4.21855e-05
0.000213116
4.21943e-05
4.21925e-05
2.60311e-05
2.60298e-05
2.60286e-05
2.60293e-05
0.000213032
4.22011e-05
4.21989e-05
4.2194e-05
4.21916e-05
2.60291e-05
2.60299e-05
0.000151093
7.80823e-05
0.000228898
0.000223529
0.000151068
7.8112e-05
0.000228898
6.51348e-05
4.67354e-05
6.51232e-05
4.67348e-05
0.000151081
0.000228896
7.80825e-05
0.00022352
0.000151048
0.000228896
7.81086e-05
6.51349e-05
4.67359e-05
4.67365e-05
6.51448e-05
0.000151068
0.00022353
7.81236e-05
0.000228898
7.80981e-05
0.000228899
0.000151093
6.51295e-05
4.67345e-05
4.6735e-05
6.51396e-05
0.000151062
0.00022352
0.000228896
7.81157e-05
0.000228896
7.80931e-05
0.000151089
6.5128e-05
4.67398e-05
6.51157e-05
4.67391e-05
0.000151078
0.000228897
7.80982e-05
0.000223524
0.000151044
0.000228897
7.81257e-05
6.51277e-05
4.67382e-05
6.51153e-05
4.67376e-05
0.000151058
0.000223532
7.81329e-05
0.000228897
7.81078e-05
0.000228898
0.000151085
6.51213e-05
4.67387e-05
4.67393e-05
6.51323e-05
0.00015106
0.000223525
0.000228897
7.81333e-05
0.000228897
7.81115e-05
0.000151086
6.51209e-05
4.67372e-05
4.67376e-05
6.51318e-05
4.2177e-05
4.21961e-05
0.000213108
4.21843e-05
4.22033e-05
2.60298e-05
2.6029e-05
2.6026e-05
2.60265e-05
0.000213024
4.219e-05
4.22092e-05
4.21831e-05
4.22026e-05
2.60285e-05
2.6029e-05
0.000151078
0.000228897
7.80924e-05
0.000223528
0.000151044
0.000228897
7.812e-05
6.51268e-05
4.67379e-05
6.51142e-05
4.67373e-05
6.51335e-05
4.67376e-05
6.5122e-05
4.6737e-05
0.000151049
0.000223524
0.000228895
7.8134e-05
0.000228894
7.81124e-05
0.000151078
0.00015106
0.000223528
0.000228896
7.81275e-05
0.000228897
7.81055e-05
0.000151086
6.51198e-05
4.6737e-05
4.67374e-05
6.5131e-05
6.51281e-05
4.67366e-05
4.67371e-05
6.5138e-05
2.60297e-05
2.60288e-05
2.60288e-05
2.6028e-05
0.000213028
4.22093e-05
4.22008e-05
4.22026e-05
4.21944e-05
2.60284e-05
2.60288e-05
2.60275e-05
2.6028e-05
2.60296e-05
2.60292e-05
2.60279e-05
2.60275e-05
4.22089e-05
4.21989e-05
0.00021311
4.22149e-05
4.22048e-05
2.60295e-05
2.60293e-05
2.60279e-05
2.60276e-05
0.000213025
4.22124e-05
4.2202e-05
4.22138e-05
4.22036e-05
6.51363e-05
4.67399e-05
6.51265e-05
4.67396e-05
0.000151089
7.81214e-05
0.000228897
0.000223523
0.000151067
7.8141e-05
0.000228896
0.00015109
7.81165e-05
0.000228897
0.000223522
0.000151067
7.81365e-05
0.000228896
6.51294e-05
4.67404e-05
4.674e-05
6.51306e-05
6.51285e-05
4.674e-05
4.67397e-05
6.51306e-05
0.000151062
0.000223521
7.81342e-05
0.000228893
7.8125e-05
0.000228896
0.000151078
0.000151063
0.00022352
7.81296e-05
0.000228893
7.81198e-05
0.000228896
0.000151078
4.22004e-05
4.21976e-05
0.00021311
4.22064e-05
4.22037e-05
2.60292e-05
2.60288e-05
2.60286e-05
2.60283e-05
0.000213025
4.22036e-05
4.22019e-05
4.22052e-05
4.22014e-05
2.60292e-05
2.6029e-05
0.000151089
7.81071e-05
0.000228898
0.000223527
0.000151071
7.8128e-05
0.000228897
6.51412e-05
4.67347e-05
6.51335e-05
4.67345e-05
0.000151085
0.000228896
7.80988e-05
0.000223518
0.000151068
0.000228895
7.81171e-05
6.51397e-05
4.67362e-05
4.67359e-05
6.51372e-05
0.000151063
0.000223525
7.81206e-05
0.000228893
7.81104e-05
0.000228896
0.000151077
6.51331e-05
4.67364e-05
4.67349e-05
6.5124e-05
0.000151057
0.000223515
0.000228888
7.80959e-05
0.000228893
7.80969e-05
0.000151065
6.51333e-05
4.67389e-05
6.51247e-05
4.67385e-05
0.00015108
0.000228896
7.81176e-05
0.000223522
0.000151063
0.000228895
7.81349e-05
6.51326e-05
4.67374e-05
6.51242e-05
4.67372e-05
0.000151055
0.000223528
7.81274e-05
0.00022889
7.81188e-05
0.000228895
0.00015106
6.51235e-05
4.67388e-05
4.67387e-05
6.51141e-05
0.000151053
0.000223519
0.000228887
7.81132e-05
0.000228893
7.81157e-05
0.000151057
6.51227e-05
4.6739e-05
4.67375e-05
6.51131e-05
4.2188e-05
4.22083e-05
0.000213102
4.21931e-05
4.22127e-05
2.60286e-05
2.60284e-05
2.60275e-05
2.60263e-05
0.000213017
4.21816e-05
4.22002e-05
4.21886e-05
4.22092e-05
2.60298e-05
2.60286e-05
0.00015108
0.000228896
7.81116e-05
0.000223525
0.000151063
0.000228895
7.81291e-05
6.51317e-05
4.67371e-05
6.51231e-05
4.67369e-05
6.51389e-05
4.67368e-05
6.51317e-05
4.67366e-05
0.000151046
0.000223522
0.000228886
7.81142e-05
0.000228893
7.81168e-05
0.000151052
0.000151052
0.000223523
0.000228886
7.81074e-05
0.000228892
7.81097e-05
0.000151057
6.51216e-05
4.67387e-05
4.67372e-05
6.51122e-05
6.51302e-05
4.67385e-05
4.67369e-05
6.51189e-05
2.60284e-05
2.60282e-05
2.60275e-05
2.60274e-05
0.000213022
4.21998e-05
4.21913e-05
4.2209e-05
4.22006e-05
2.60297e-05
2.60284e-05
2.60289e-05
2.60275e-05
2.60301e-05
2.60331e-05
2.60285e-05
2.60314e-05
4.22056e-05
4.21952e-05
0.000213055
4.219e-05
4.21799e-05
2.60343e-05
2.60342e-05
2.60326e-05
2.60326e-05
0.000212943
4.21592e-05
4.21494e-05
4.218e-05
4.21699e-05
6.50942e-05
4.67406e-05
6.5116e-05
4.67463e-05
0.000151016
7.81106e-05
0.000228887
0.000223492
0.000151045
7.80958e-05
0.00022887
0.000151017
7.81057e-05
0.000228887
0.000223491
0.000151045
7.80917e-05
0.000228869
6.50733e-05
4.67526e-05
4.67513e-05
6.50521e-05
6.50739e-05
4.67521e-05
4.67505e-05
6.50529e-05
0.00015096
0.000223478
7.80549e-05
0.000228863
7.80667e-05
0.000228863
0.000150941
0.000150961
0.000223477
7.80507e-05
0.000228863
7.8062e-05
0.000228862
0.000150943
4.21967e-05
4.21934e-05
0.000213058
4.21811e-05
4.21792e-05
2.603e-05
2.60326e-05
2.60333e-05
2.60333e-05
0.000212945
4.2151e-05
4.21498e-05
4.21715e-05
4.21687e-05
2.60339e-05
2.60339e-05
0.000151
7.80955e-05
0.000228884
0.000223495
0.000151043
7.80822e-05
0.000228866
6.50796e-05
4.67395e-05
6.51067e-05
4.67459e-05
0.000150975
0.000228872
7.80667e-05
0.000223474
0.000151025
0.000228863
7.80498e-05
6.50763e-05
4.67486e-05
4.67473e-05
6.50598e-05
0.000150949
0.000223481
7.80412e-05
0.000228863
7.80523e-05
0.000228862
0.000150942
6.50622e-05
4.67467e-05
4.67473e-05
6.50553e-05
0.000150931
0.000223469
0.000228866
7.80272e-05
0.000228862
7.80227e-05
0.00015094
6.50678e-05
4.67396e-05
6.50949e-05
4.67452e-05
0.000150961
0.00022887
7.80849e-05
0.000223478
0.000151015
0.000228863
7.80657e-05
6.50664e-05
4.6742e-05
6.50937e-05
4.67486e-05
0.000150927
0.000223483
7.80491e-05
0.000228867
7.80572e-05
0.000228865
0.000150939
6.50511e-05
4.67511e-05
4.67494e-05
6.50478e-05
0.000150924
0.000223473
0.000228868
7.80455e-05
0.000228863
7.80399e-05
0.000150938
6.505e-05
4.67493e-05
4.67498e-05
6.50473e-05
4.21703e-05
4.2191e-05
0.000213026
4.21505e-05
4.21698e-05
2.60315e-05
2.60333e-05
2.60309e-05
2.60312e-05
0.000212929
4.21347e-05
4.21561e-05
4.21421e-05
4.21615e-05
2.60332e-05
2.60334e-05
0.000150961
0.000228868
7.80789e-05
0.000223481
0.000151014
0.000228862
7.806e-05
6.50655e-05
4.67418e-05
6.50926e-05
4.67484e-05
6.50721e-05
4.67415e-05
6.51006e-05
4.67481e-05
0.000150917
0.000223477
0.000228867
7.80463e-05
0.000228863
7.80406e-05
0.000150932
0.000150924
0.000223477
0.000228867
7.80397e-05
0.000228862
7.8034e-05
0.000150939
6.50489e-05
4.67491e-05
4.67496e-05
6.50464e-05
6.5056e-05
4.67488e-05
4.67493e-05
6.50536e-05
2.60314e-05
2.60331e-05
2.60306e-05
2.60323e-05
0.000212933
4.21563e-05
4.21476e-05
4.21616e-05
4.21532e-05
2.60331e-05
2.60333e-05
2.60322e-05
2.60324e-05
2.60344e-05
2.60342e-05
2.60327e-05
2.60325e-05
4.21554e-05
4.21455e-05
0.000213034
4.21572e-05
4.21473e-05
2.60342e-05
2.60343e-05
2.60325e-05
2.60326e-05
0.000212952
4.21574e-05
4.21476e-05
4.2155e-05
4.2145e-05
6.50479e-05
4.67522e-05
6.50418e-05
4.67519e-05
0.00015094
7.80345e-05
0.000228868
0.00022348
0.000150918
7.8047e-05
0.000228872
0.000150941
7.80299e-05
0.000228868
0.000223479
0.000150919
7.80426e-05
0.000228872
6.50388e-05
4.67522e-05
4.67524e-05
6.50469e-05
6.50394e-05
4.67518e-05
4.67521e-05
6.50476e-05
0.000150917
0.000223481
7.8046e-05
0.000228875
7.80299e-05
0.000228874
0.00015094
0.000150918
0.00022348
7.80415e-05
0.000228875
7.8025e-05
0.000228874
0.000150942
4.21469e-05
4.21445e-05
0.000213036
4.21485e-05
4.21446e-05
2.60341e-05
2.60338e-05
2.60332e-05
2.60333e-05
0.000212954
4.21488e-05
4.2145e-05
4.21461e-05
4.21412e-05
2.60338e-05
2.6034e-05
0.000150942
7.80194e-05
0.000228869
0.000223483
0.00015092
7.80334e-05
0.000228872
6.50536e-05
4.67469e-05
6.50474e-05
4.67465e-05
0.000150941
0.000228871
7.80078e-05
0.000223477
0.000150918
0.000228873
7.80243e-05
6.5049e-05
4.67482e-05
4.67485e-05
6.50559e-05
0.00015092
0.000223485
7.80324e-05
0.000228874
7.80149e-05
0.000228874
0.000150943
6.50466e-05
4.67464e-05
4.67467e-05
6.50535e-05
0.000150919
0.000223477
0.000228873
7.8024e-05
0.000228873
7.80061e-05
0.000150942
6.50465e-05
4.67513e-05
6.50387e-05
4.67509e-05
0.00015094
0.000228872
7.80272e-05
0.000223481
0.000150917
0.000228874
7.80426e-05
6.50461e-05
4.67495e-05
6.50382e-05
4.67492e-05
0.000150919
0.000223488
7.80397e-05
0.000228875
7.80225e-05
0.000228876
0.000150939
6.50382e-05
4.67507e-05
4.67511e-05
6.50465e-05
0.000150918
0.000223481
0.000228875
7.80423e-05
0.000228875
7.80255e-05
0.00015094
6.50378e-05
4.67491e-05
4.67493e-05
6.50461e-05
4.21312e-05
4.21535e-05
0.000213033
4.21351e-05
4.21559e-05
2.60333e-05
2.60332e-05
2.60308e-05
2.6031e-05
0.000212949
4.21353e-05
4.21561e-05
4.21318e-05
4.21536e-05
2.60332e-05
2.60333e-05
0.00015094
0.000228872
7.80212e-05
0.000223484
0.000150917
0.000228874
7.80368e-05
6.50452e-05
4.67492e-05
6.50371e-05
4.6749e-05
6.50525e-05
4.67489e-05
6.50459e-05
4.67486e-05
0.000150911
0.000223485
0.000228875
7.80435e-05
0.000228875
7.80268e-05
0.000150934
0.000150919
0.000223484
0.000228874
7.80365e-05
0.000228874
7.80195e-05
0.000150941
6.50369e-05
4.67489e-05
4.67491e-05
6.50459e-05
6.50456e-05
4.67486e-05
4.67488e-05
6.50526e-05
2.60332e-05
2.6033e-05
2.60323e-05
2.60322e-05
0.000212952
4.21561e-05
4.21476e-05
4.21535e-05
4.21451e-05
2.6033e-05
2.60331e-05
2.60321e-05
2.60323e-05
2.60343e-05
2.60342e-05
2.60326e-05
2.60325e-05
4.21552e-05
4.21453e-05
0.00021303
4.21575e-05
4.21477e-05
2.60341e-05
2.60343e-05
2.60325e-05
2.60326e-05
0.000212945
4.21576e-05
4.21478e-05
4.21552e-05
4.21454e-05
6.50477e-05
4.6752e-05
6.50393e-05
4.67518e-05
0.000150941
7.80292e-05
0.000228875
0.000223482
0.000150918
7.80459e-05
0.000228875
0.000150942
7.80244e-05
0.000228875
0.000223481
0.00015092
7.80415e-05
0.000228875
6.50388e-05
4.67521e-05
4.67523e-05
6.50469e-05
6.50394e-05
4.67518e-05
4.6752e-05
6.50476e-05
0.000150918
0.000223482
7.80459e-05
0.000228875
7.80293e-05
0.000228875
0.00015094
0.000150919
0.000223481
7.80415e-05
0.000228874
7.80244e-05
0.000228874
0.000150941
4.21464e-05
4.21418e-05
0.000213032
4.21488e-05
4.21456e-05
2.6034e-05
2.60338e-05
2.60332e-05
2.60333e-05
0.000212947
4.21489e-05
4.21455e-05
4.21463e-05
4.21423e-05
2.60338e-05
2.6034e-05
0.000150943
7.80143e-05
0.000228875
0.000223486
0.000150921
7.80324e-05
0.000228875
6.50536e-05
4.67466e-05
6.50466e-05
4.67464e-05
0.000150941
0.000228873
7.8006e-05
0.000223477
0.000150919
0.000228873
7.8024e-05
6.5049e-05
4.67481e-05
4.67483e-05
6.5056e-05
0.00015092
0.000223485
7.80324e-05
0.000228875
7.80144e-05
0.000228874
0.000150943
6.50466e-05
4.67464e-05
4.67466e-05
6.50536e-05
0.000150918
0.000223477
0.000228873
7.80239e-05
0.000228873
7.8006e-05
0.000150941
6.50466e-05
4.6751e-05
6.50383e-05
4.67507e-05
0.00015094
0.000228874
7.80254e-05
0.000223481
0.000150918
0.000228874
7.80423e-05
6.50462e-05
4.67493e-05
6.50378e-05
4.67491e-05
0.000150919
0.000223488
7.80398e-05
0.000228875
7.8022e-05
0.000228875
0.000150939
6.50383e-05
4.67507e-05
4.67509e-05
6.50465e-05
0.000150918
0.000223482
0.000228875
7.80423e-05
0.000228874
7.80254e-05
0.000150939
6.50378e-05
4.67491e-05
4.67493e-05
6.50461e-05
4.21319e-05
4.21538e-05
0.000213026
4.21353e-05
4.21562e-05
2.60333e-05
2.60331e-05
2.60308e-05
2.6031e-05
0.000212943
4.21353e-05
4.21562e-05
4.21319e-05
4.21538e-05
2.60331e-05
2.60333e-05
0.000150941
0.000228874
7.80194e-05
0.000223484
0.000150919
0.000228874
7.80366e-05
6.50461e-05
4.67491e-05
6.50376e-05
4.67489e-05
6.50531e-05
4.67487e-05
6.50458e-05
4.67485e-05
0.000150911
0.000223485
0.000228874
7.80435e-05
0.000228874
7.80267e-05
0.000150933
0.000150919
0.000223485
0.000228874
7.80365e-05
0.000228874
7.80194e-05
0.000150941
6.50376e-05
4.67489e-05
4.6749e-05
6.50461e-05
6.50464e-05
4.67485e-05
4.67487e-05
6.50535e-05
2.60331e-05
2.6033e-05
2.60323e-05
2.60321e-05
0.000212946
4.21562e-05
4.21477e-05
4.21536e-05
4.21453e-05
2.6033e-05
2.60331e-05
2.60321e-05
2.60323e-05
2.60343e-05
2.60341e-05
2.60326e-05
2.60325e-05
4.21553e-05
4.21454e-05
0.000213033
4.21576e-05
4.21477e-05
2.60341e-05
2.60343e-05
2.60325e-05
2.60326e-05
0.000212949
4.21576e-05
4.21477e-05
4.21553e-05
4.21453e-05
6.50477e-05
4.6752e-05
6.50393e-05
4.67518e-05
0.000150941
7.80292e-05
0.000228875
0.000223482
0.000150918
7.80459e-05
0.000228875
0.000150942
7.80244e-05
0.000228875
0.000223481
0.000150919
7.80415e-05
0.000228875
6.50388e-05
4.67521e-05
4.67523e-05
6.5047e-05
6.50394e-05
4.67518e-05
4.6752e-05
6.50475e-05
0.000150918
0.000223482
7.8046e-05
0.000228875
7.80294e-05
0.000228875
0.00015094
0.000150919
0.000223481
7.80415e-05
0.000228875
7.80244e-05
0.000228875
0.000150941
4.21464e-05
4.2142e-05
0.000213035
4.21488e-05
4.21453e-05
2.6034e-05
2.60338e-05
2.60332e-05
2.60333e-05
0.00021295
4.21489e-05
4.21455e-05
4.21463e-05
4.21419e-05
2.60338e-05
2.6034e-05
0.000150943
7.80143e-05
0.000228875
0.000223486
0.00015092
7.80324e-05
0.000228875
6.50537e-05
4.67466e-05
6.50466e-05
4.67464e-05
0.000150942
0.000228874
7.80059e-05
0.000223477
0.00015092
0.000228874
7.8024e-05
6.50491e-05
4.67481e-05
4.67483e-05
6.5056e-05
0.000150921
0.000223486
7.80324e-05
0.000228875
7.80145e-05
0.000228876
0.000150943
6.50467e-05
4.67464e-05
4.67466e-05
6.50536e-05
0.000150919
0.000223478
0.000228874
7.80239e-05
0.000228874
7.80059e-05
0.000150941
6.50466e-05
4.67509e-05
6.50382e-05
4.67507e-05
0.00015094
0.000228875
7.80254e-05
0.000223482
0.000150917
0.000228875
7.80423e-05
6.50462e-05
4.67493e-05
6.50378e-05
4.67491e-05
0.000150919
0.000223488
7.80398e-05
0.000228875
7.8022e-05
0.000228875
0.000150939
6.50383e-05
4.67507e-05
4.67509e-05
6.50466e-05
0.000150918
0.000223482
0.000228875
7.80423e-05
0.000228875
7.80253e-05
0.000150939
6.50379e-05
4.67491e-05
4.67493e-05
6.50461e-05
4.21319e-05
4.21538e-05
0.000213028
4.21353e-05
4.21562e-05
2.60333e-05
2.60331e-05
2.60308e-05
2.6031e-05
0.000212944
4.21354e-05
4.21562e-05
4.21319e-05
4.21537e-05
2.60331e-05
2.60333e-05
0.000150942
0.000228874