/*--------------------------------*- C++ -*----------------------------------*\
| =========                 |                                                 |
| \\      /  F ield         | OpenFOAM: The Open Source CFD Toolbox           |
|  \\    /   O peration     | Version:  2206                                  |
|   \\  /    A nd           | Website:  www.openfoam.com                      |
|    \\/     M anipulation  |                                                 |
\*---------------------------------------------------------------------------*/
FoamFile
{
    version     2.0;
    format      ascii;
    arch        "LSB;label=32;scalar=64";
    class       volScalarField;
    location    "38";
    object      p;
}
// * * * * * * * * * * * * * * * * * * * * * * * * * * * * * * * * * * * * * //

dimensions      [0 2 -2 0 0 0 0];

internalField   nonuniform List<scalar> 
28688
(
0.00384645
0.00384678
0.00384678
0.00384983
0.00379109
0.0037915
0.0037915
0.00379449
0.00374033
0.0037403
0.0037403
0.00374306
0.00368794
0.00368795
0.00368795
0.00369072
0.0036366
0.00363661
0.00363661
0.00363935
0.00358662
0.00358662
0.00358662
0.00358932
0.0035382
0.00353816
0.00353816
0.00354078
0.00349218
0.00349207
0.00349206
0.00349448
0.00344978
0.00344966
0.00344966
0.00345207
0.00340928
0.00340922
0.00340922
0.00341163
0.00336908
0.00336903
0.00336903
0.00337141
0.00332897
0.00332892
0.00332892
0.0033313
0.00385986
0.00386008
0.00386008
0.00385986
0.00386008
0.00386008
0.00386084
0.00386084
0.00386085
0.00386085
0.00386008
0.00386008
0.00385986
0.00386009
0.00386009
0.00385986
0.00384983
0.00380107
0.00384678
0.00384678
0.00380335
0.00380335
0.00384983
0.00380107
0.00384678
0.00384678
0.00380334
0.00380335
0.00384678
0.00380334
0.00380334
0.00384983
0.00380107
0.00384678
0.00380334
0.00380334
0.00380107
0.0037945
0.00374998
0.00379151
0.00379151
0.00375343
0.00375343
0.0037945
0.00374998
0.0037915
0.0037915
0.00375342
0.00375342
0.00379151
0.00375342
0.00375342
0.0037945
0.00374998
0.0037915
0.00375342
0.00375342
0.00374998
0.00374306
0.00369761
0.0037403
0.0037403
0.00370097
0.00370097
0.00374306
0.00369761
0.0037403
0.0037403
0.00370097
0.00370097
0.0037403
0.00370097
0.00370097
0.00374306
0.00369761
0.0037403
0.00370097
0.00370097
0.0036976
0.00369072
0.00364606
0.00368795
0.00368795
0.00364932
0.00364932
0.00369072
0.00364606
0.00368795
0.00368795
0.00364932
0.00364932
0.00368795
0.00364932
0.00364932
0.00369072
0.00364606
0.00368795
0.00364932
0.00364932
0.00364606
0.00363935
0.00359583
0.00363661
0.00363661
0.00359896
0.00359896
0.00363935
0.00359583
0.00363661
0.00363661
0.00359896
0.00359896
0.00363661
0.00359896
0.00359896
0.00363935
0.00359583
0.00363661
0.00359896
0.00359896
0.00359583
0.00358933
0.00354709
0.00358662
0.00358662
0.00355015
0.00355015
0.00358932
0.00354709
0.00358662
0.00358662
0.00355015
0.00355015
0.00358662
0.00355015
0.00355015
0.00358932
0.00354709
0.00358662
0.00355015
0.00355015
0.00354709
0.00354078
0.00350041
0.00353816
0.00353816
0.00350328
0.00350328
0.00354078
0.00350041
0.00353816
0.00353816
0.00350328
0.00350328
0.00353816
0.00350328
0.00350328
0.00354078
0.00350041
0.00353816
0.00350328
0.00350328
0.00350041
0.00349447
0.00345745
0.00349206
0.00349206
0.00345994
0.00345994
0.00349448
0.00345745
0.00349206
0.00349206
0.00345994
0.00345994
0.00349207
0.00345994
0.00345994
0.00349448
0.00345745
0.00349206
0.00345994
0.00345994
0.00345745
0.00345207
0.00341692
0.00344966
0.00344966
0.0034193
0.0034193
0.00345207
0.00341692
0.00344966
0.00344966
0.0034193
0.0034193
0.00344966
0.0034193
0.0034193
0.00345207
0.00341692
0.00344966
0.0034193
0.0034193
0.00341692
0.00341163
0.00337669
0.00340922
0.00340922
0.00337907
0.00337907
0.00341163
0.00337669
0.00340922
0.00340922
0.00337907
0.00337907
0.00340922
0.00337907
0.00337907
0.00341163
0.00337669
0.00340922
0.00337907
0.00337907
0.00337669
0.00337141
0.00333657
0.00336903
0.00336903
0.00333895
0.00333895
0.00337141
0.00333658
0.00336903
0.00336903
0.00333895
0.00333895
0.00336903
0.00333895
0.00333895
0.00337141
0.00333657
0.00336903
0.00333895
0.00333895
0.00333657
0.0033313
0.00329648
0.00332892
0.00332892
0.00329885
0.0033313
0.00332892
0.00332892
0.00329885
0.00329885
0.00332892
0.00329885
0.0033313
0.00329648
0.00332892
0.00329885
0.00329885
0.00329648
0.00386823
0.00387799
0.00387279
0.0038728
0.00389517
0.00388196
0.00391056
0.003876
0.00389517
0.00388196
0.00387601
0.00391056
0.00388653
0.0039143
0.0039143
0.00382359
0.00384274
0.00385193
0.00381566
0.00381643
0.00381917
0.00382357
0.00384271
0.00385192
0.00381564
0.00384645
0.00384645
0.00384645
0.00380304
0.00380304
0.00380303
0.00380303
0.00382109
0.00384692
0.00384685
0.00382991
0.00384994
0.00381999
0.0038308
0.00381653
0.00381917
0.00382109
0.00384685
0.00384693
0.00382992
0.00384994
0.0038308
0.00381999
0.00385279
0.00385278
0.00382432
0.00381963
0.00381962
0.00377694
0.00379624
0.00379759
0.00377547
0.00379514
0.00377504
0.00377694
0.00379623
0.00379759
0.00377546
0.00379109
0.00379108
0.00379108
0.00375349
0.00375349
0.00375349
0.00375349
0.00377553
0.00379631
0.00379108
0.00377921
0.0037951
0.00377607
0.00377894
0.00379514
0.00377503
0.00377553
0.00379108
0.00379631
0.00377921
0.00379509
0.00377894
0.00377607
0.00379733
0.00379733
0.00377576
0.0037764
0.0037764
0.0037247
0.00374351
0.00374457
0.00372368
0.00374315
0.00372339
0.0037247
0.00374351
0.00374457
0.00372367
0.00374033
0.00374033
0.00374033
0.00370095
0.00370095
0.00370095
0.00370095
0.00372379
0.0037439
0.00374021
0.00372716
0.00374333
0.00372416
0.00372707
0.00374315
0.00372339
0.00372379
0.00374021
0.0037439
0.00372716
0.00374333
0.00372707
0.00372416
0.00374414
0.00374414
0.00372378
0.00372423
0.00372423
0.00367218
0.0036908
0.00369165
0.00367141
0.0036906
0.00367123
0.00367218
0.0036908
0.00369165
0.00367141
0.00368794
0.00368794
0.00368794
0.00364932
0.00364932
0.00364932
0.00364932
0.00367166
0.00369121
0.0036879
0.003675
0.00369092
0.00367185
0.00367496
0.0036906
0.00367123
0.00367166
0.0036879
0.00369121
0.003675
0.00369092
0.00367496
0.00367185
0.00369124
0.00369124
0.00367169
0.0036718
0.0036718
0.00362095
0.00363933
0.00363995
0.00362038
0.00363919
0.00362024
0.00362095
0.00363933
0.00363995
0.00362038
0.0036366
0.0036366
0.0036366
0.00359895
0.00359895
0.00359895
0.00359895
0.00362069
0.00363967
0.00363658
0.00362397
0.00363949
0.00362078
0.00362394
0.00363918
0.00362025
0.00362069
0.00363658
0.00363967
0.00362397
0.00363949
0.00362394
0.00362078
0.00363966
0.00363966
0.00362077
0.00362069
0.00362069
0.00357135
0.00358924
0.00358967
0.0035709
0.00358913
0.00357078
0.00357135
0.00358924
0.00358967
0.0035709
0.00358662
0.00358662
0.00358662
0.00355015
0.00355015
0.00355015
0.00355015
0.0035712
0.00358954
0.0035866
0.00357436
0.00358943
0.00357126
0.00357434
0.00358912
0.00357079
0.0035712
0.0035866
0.00358954
0.00357436
0.00358943
0.00357434
0.00357126
0.00358952
0.00358952
0.00357131
0.00357117
0.00357117
0.00352323
0.00354061
0.00354088
0.00352278
0.00354051
0.0035227
0.00352323
0.00354061
0.00354088
0.00352278
0.0035382
0.0035382
0.00353821
0.00350339
0.0035034
0.00350339
0.00350339
0.00352323
0.00354087
0.00353817
0.0035263
0.00354082
0.00352316
0.00352634
0.00354051
0.0035227
0.00352323
0.00353817
0.00354087
0.0035263
0.00354082
0.00352634
0.00352316
0.00354086
0.00354086
0.00352337
0.00352302
0.00352302
0.00347754
0.0034941
0.00349424
0.00347772
0.00349392
0.00347759
0.00347754
0.0034941
0.00349424
0.00347772
0.00349218
0.00349218
0.00349218
0.00346007
0.00346007
0.00346007
0.00346007
0.00347798
0.00349434
0.00349211
0.00348109
0.00349436
0.00347795
0.00348114
0.00349392
0.00347759
0.00347798
0.00349211
0.00349434
0.00348109
0.00349436
0.00348114
0.00347795
0.00349421
0.00349421
0.00347835
0.00347779
0.00347778
0.0034368
0.00345184
0.00345177
0.00343674
0.00345184
0.00343677
0.0034368
0.00345183
0.00345177
0.00343674
0.00344978
0.00344978
0.00344978
0.00341936
0.00341936
0.00341936
0.00341936
0.00343695
0.00345193
0.00344971
0.0034395
0.00345196
0.00343687
0.00343953
0.00345184
0.00343677
0.00343695
0.0034497
0.00345193
0.0034395
0.00345196
0.00343953
0.00343687
0.00345196
0.00345196
0.00343711
0.00343684
0.00343683
0.00339665
0.00341163
0.00341169
0.00339662
0.00341164
0.00339662
0.00339665
0.00341163
0.00341169
0.00339662
0.00340928
0.00340928
0.00340928
0.00337912
0.00337912
0.00337912
0.00337912
0.00339671
0.00341163
0.00340924
0.00339916
0.00341167
0.00339667
0.00339918
0.00341164
0.00339662
0.00339671
0.00340924
0.00341163
0.00339916
0.00341167
0.00339918
0.00339667
0.00341167
0.00341166
0.00339679
0.00339663
0.00339663
0.00335652
0.00337153
0.00337154
0.00335652
0.00337153
0.00335652
0.00335652
0.00337153
0.00337154
0.00335652
0.00336908
0.00336908
0.00336908
0.00333899
0.00333899
0.00333899
0.00333899
0.00335657
0.0033715
0.00336904
0.003359
0.0033715
0.00335655
0.00335901
0.00337153
0.00335652
0.00335657
0.00336904
0.0033715
0.003359
0.0033715
0.00335901
0.00335655
0.00337153
0.00337153
0.00335663
0.00335652
0.00335652
0.00331642
0.00333143
0.00333143
0.00331642
0.00333143
0.00331642
0.00331642
0.00333143
0.00333143
0.00331642
0.00332897
0.00332897
0.00332897
0.00329889
0.00329889
0.00329889
0.00329889
0.00331647
0.0033314
0.00332893
0.0033189
0.00333139
0.00331645
0.00331891
0.00333143
0.00331642
0.00331647
0.00332893
0.0033314
0.0033189
0.00333139
0.00331891
0.00331645
0.00333143
0.00333143
0.00331653
0.00331642
0.00331642
0.00388652
0.00391429
0.0039143
0.00387866
0.00391383
0.00387863
0.00391385
0.00388338
0.00387045
0.00387045
0.00390911
0.00390912
0.00389516
0.00388196
0.00391055
0.003876
0.00389516
0.00388196
0.00391055
0.003876
0.00389968
0.00387073
0.00391096
0.00386554
0.00389968
0.00387071
0.00391097
0.00386555
0.00389076
0.00387948
0.00386191
0.00386231
0.00390583
0.00387444
0.00386253
0.00389077
0.00387948
0.00386191
0.0038623
0.00390583
0.00387444
0.00386253
0.00388652
0.00391429
0.0039143
0.00387863
0.00391383
0.00388338
0.00387043
0.00387046
0.00390911
0.00390912
0.00387866
0.00391383
0.00389517
0.00388196
0.00391056
0.00387601
0.00389517
0.00388196
0.00387601
0.00391056
0.0038997
0.00387072
0.00391098
0.00386555
0.00389078
0.00387948
0.00386191
0.00386231
0.00390584
0.00387445
0.00386254
0.0038997
0.00387074
0.00391097
0.00386554
0.00389078
0.00387949
0.00386231
0.00386192
0.00387445
0.00390584
0.00386254
0.00386823
0.00387799
0.00387279
0.0038728
0.00386823
0.003878
0.0038728
0.0038728
0.00386823
0.003878
0.0038728
0.0038728
0.003867
0.00387608
0.00385896
0.00385896
0.00387136
0.00387136
0.00385714
0.003867
0.00387608
0.00385896
0.00385896
0.00387136
0.00387136
0.00385714
0.003867
0.00387608
0.00385897
0.00385897
0.00387136
0.00387136
0.00385714
0.003867
0.00387608
0.00385897
0.00385897
0.00387136
0.00387136
0.00385714
0.00389517
0.00388196
0.00387601
0.00391056
0.00389078
0.00387948
0.00386191
0.00386231
0.00390584
0.00387444
0.00386254
0.0038997
0.00387073
0.00391097
0.00386555
0.00389078
0.00387949
0.00386231
0.00386192
0.00387444
0.00390584
0.00386254
0.0038997
0.00387072
0.00391097
0.00386554
0.00388653
0.0039143
0.0039143
0.00387861
0.00391383
0.00388338
0.00387045
0.00387045
0.00390912
0.00390912
0.0038786
0.00391384
0.00389517
0.00388196
0.00387601
0.00391056
0.00389078
0.00387949
0.00386231
0.00386192
0.00387445
0.00390584
0.00386254
0.00389078
0.00387949
0.00386231
0.00386191
0.00387445
0.00390584
0.00386254
0.0038997
0.00387073
0.00391098
0.00386554
0.0038997
0.00387074
0.00391098
0.00386555
0.00388338
0.00387045
0.00387045
0.00390912
0.00390912
0.00387861
0.00391383
0.00387864
0.00391384
0.00381642
0.00381917
0.00381652
0.00381915
0.00385275
0.00385279
0.00382433
0.00381962
0.00381962
0.00380191
0.00381882
0.00380191
0.00381883
0.00381766
0.00380452
0.00380452
0.00381778
0.00381778
0.00382358
0.00384272
0.00385194
0.00381566
0.00382111
0.00384692
0.00384685
0.00382991
0.00384994
0.00382
0.0038308
0.0038211
0.00384692
0.00384685
0.00382991
0.00384994
0.00382
0.0038308
0.00381904
0.00380365
0.00381656
0.00380439
0.00381904
0.00380365
0.00381657
0.00380439
0.00381608
0.00381561
0.00380333
0.00380308
0.00381715
0.00381602
0.00380167
0.00381608
0.00381561
0.00380333
0.00380308
0.00381716
0.00381602
0.00380167
0.00385275
0.00385279
0.00382434
0.00381963
0.00381962
0.00381657
0.00381915
0.00380191
0.00381883
0.00381766
0.00380452
0.00380452
0.00381778
0.00381777
0.0038019
0.00381883
0.00382109
0.00384692
0.00384685
0.00382992
0.00384994
0.00381999
0.0038308
0.00382357
0.00384273
0.00385191
0.00381566
0.0038211
0.00384685
0.00384692
0.00382991
0.00384994
0.0038308
0.00381999
0.00381903
0.00380365
0.00381656
0.0038044
0.00381607
0.00381561
0.00380333
0.00380308
0.00381715
0.00381602
0.00380167
0.00381904
0.00380364
0.00381657
0.00380439
0.00381607
0.00381561
0.00380308
0.00380333
0.00381602
0.00381715
0.00380167
0.00382357
0.00384272
0.00385192
0.00381565
0.0038211
0.00384685
0.00384693
0.00382991
0.00384994
0.0038308
0.00381999
0.00382357
0.00384274
0.00385191
0.00381565
0.00381607
0.00381561
0.00380333
0.00380308
0.00381715
0.00381602
0.00380167
0.00381903
0.00380365
0.00381656
0.00380439
0.00381607
0.00381561
0.00380308
0.00380333
0.00381602
0.00381715
0.00380167
0.00381904
0.00380365
0.00381655
0.00380439
0.00385278
0.00385279
0.00382431
0.00381963
0.00381962
0.00381654
0.00381915
0.00380191
0.00381884
0.00381766
0.00380452
0.00380452
0.00381778
0.00381777
0.00380191
0.0038188
0.00382109
0.00384685
0.00384692
0.00382992
0.00384994
0.0038308
0.00381999
0.00382357
0.00384274
0.00385191
0.00381564
0.00382357
0.00384273
0.00385192
0.00381565
0.00381607
0.00381561
0.00380308
0.00380333
0.00381602
0.00381715
0.00380167
0.00381607
0.00381561
0.00380308
0.00380333
0.00381602
0.00381715
0.00380167
0.00381903
0.00380365
0.00381656
0.00380439
0.00381903
0.00380364
0.00381656
0.00380439
0.00381656
0.00381915
0.00381655
0.00381915
0.00381766
0.00380452
0.00380452
0.00381777
0.00381777
0.00380192
0.0038188
0.0038019
0.00381882
0.00379514
0.00377504
0.00379513
0.00377503
0.00379733
0.00379733
0.00377576
0.0037764
0.0037764
0.00374965
0.0037686
0.00374965
0.0037686
0.00376896
0.00375072
0.00375072
0.00376993
0.00376993
0.00377694
0.00379623
0.00379759
0.00377547
0.00377553
0.00379631
0.00379108
0.00377922
0.0037951
0.00377607
0.00377894
0.00377553
0.00379631
0.00379108
0.00377922
0.0037951
0.00377607
0.00377894
0.00377041
0.00375006
0.00376909
0.00375116
0.00377041
0.00375006
0.00376909
0.00375116
0.00376899
0.00376645
0.00375053
0.00375333
0.00376962
0.00376632
0.00375
0.00376899
0.00376645
0.00375053
0.00375333
0.00376962
0.00376632
0.00374999
0.00379733
0.00379733
0.00377576
0.0037764
0.0037764
0.00379515
0.00377504
0.00374965
0.0037686
0.00376896
0.00375072
0.00375072
0.00376993
0.00376993
0.00374965
0.0037686
0.00377553
0.0037963
0.00379108
0.00377921
0.0037951
0.00377607
0.00377894
0.00377694
0.00379623
0.00379759
0.00377546
0.00377553
0.00379108
0.0037963
0.00377921
0.00379509
0.00377894
0.00377606
0.00377041
0.00375006
0.00376909
0.00375116
0.00376899
0.00376645
0.00375053
0.00375333
0.00376961
0.00376631
0.00374999
0.00377041
0.00375006
0.00376909
0.00375116
0.00376899
0.00376645
0.00375333
0.00375053
0.00376631
0.00376961
0.00374999
0.00377694
0.00379623
0.00379759
0.00377547
0.00377553
0.00379108
0.00379631
0.00377921
0.0037951
0.00377894
0.00377607
0.00377694
0.00379623
0.00379759
0.00377546
0.00376899
0.00376645
0.00375053
0.00375333
0.00376961
0.00376632
0.00374999
0.00377041
0.00375006
0.00376909
0.00375116
0.00376899
0.00376645
0.00375333
0.00375053
0.00376631
0.00376961
0.00374999
0.00377041
0.00375006
0.00376909
0.00375116
0.00379733
0.00379733
0.00377576
0.00377639
0.0037764
0.00379514
0.00377503
0.00374965
0.0037686
0.00376896
0.00375072
0.00375072
0.00376993
0.00376993
0.00374965
0.0037686
0.00377553
0.00379108
0.0037963
0.00377921
0.00379509
0.00377894
0.00377607
0.00377694
0.00379623
0.00379759
0.00377547
0.00377694
0.00379623
0.00379759
0.00377547
0.00376899
0.00376645
0.00375333
0.00375053
0.00376632
0.00376961
0.00374999
0.00376899
0.00376645
0.00375333
0.00375053
0.00376632
0.00376961
0.00374999
0.00377041
0.00375006
0.00376909
0.00375116
0.00377041
0.00375006
0.00376909
0.00375116
0.00379514
0.00377503
0.00379513
0.00377504
0.00376896
0.00375072
0.00375072
0.00376993
0.00376993
0.00374965
0.0037686
0.00374965
0.0037686
0.00374315
0.00372339
0.00374315
0.00372339
0.00374414
0.00374414
0.00372378
0.00372423
0.00372423
0.00369712
0.00371674
0.00369712
0.00371674
0.00371682
0.00369779
0.00369779
0.00371755
0.00371755
0.0037247
0.00374351
0.00374457
0.00372367
0.00372379
0.0037439
0.00374021
0.00372716
0.00374333
0.00372416
0.00372707
0.00372379
0.0037439
0.00374021
0.00372716
0.00374333
0.00372416
0.00372707
0.00371802
0.00369734
0.00371701
0.00369823
0.00371802
0.00369734
0.00371701
0.00369823
0.00371707
0.00371404
0.00369782
0.00370091
0.00371744
0.00371396
0.00369757
0.00371707
0.00371404
0.00369782
0.00370091
0.00371744
0.00371396
0.00369757
0.00374414
0.00374414
0.00372378
0.00372423
0.00372423
0.00374315
0.00372339
0.00369712
0.00371674
0.00371682
0.00369779
0.00369779
0.00371755
0.00371755
0.00369712
0.00371674
0.00372379
0.0037439
0.00374021
0.00372716
0.00374333
0.00372416
0.00372707
0.0037247
0.00374351
0.00374457
0.00372367
0.00372379
0.00374021
0.0037439
0.00372716
0.00374333
0.00372707
0.00372416
0.00371802
0.00369734
0.00371701
0.00369823
0.00371707
0.00371404
0.00369782
0.00370091
0.00371744
0.00371396
0.00369757
0.00371802
0.00369734
0.00371701
0.00369823
0.00371707
0.00371404
0.00370091
0.00369782
0.00371396
0.00371744
0.00369757
0.0037247
0.0037435
0.00374457
0.00372367
0.00372379
0.00374021
0.0037439
0.00372716
0.00374333
0.00372707
0.00372416
0.0037247
0.00374351
0.00374457
0.00372367
0.00371707
0.00371404
0.00369782
0.00370091
0.00371744
0.00371396
0.00369757
0.00371802
0.00369734
0.00371701
0.00369823
0.00371706
0.00371404
0.0037009
0.00369782
0.00371396
0.00371744
0.00369757
0.00371802
0.00369734
0.003717
0.00369823
0.00374414
0.00374414
0.00372378
0.00372423
0.00372423
0.00374315
0.00372339
0.00369712
0.00371674
0.00371682
0.00369779
0.00369779
0.00371755
0.00371755
0.00369712
0.00371674
0.00372379
0.00374021
0.0037439
0.00372716
0.00374333
0.00372707
0.00372416
0.0037247
0.00374351
0.00374457
0.00372367
0.0037247
0.0037435
0.00374457
0.00372367
0.00371707
0.00371404
0.00370091
0.00369782
0.00371396
0.00371744
0.00369757
0.00371706
0.00371404
0.00370091
0.00369782
0.00371396
0.00371744
0.00369757
0.00371802
0.00369734
0.00371701
0.00369823
0.00371802
0.00369734
0.003717
0.00369823
0.00374315
0.00372339
0.00374315
0.00372339
0.00371682
0.00369779
0.00369779
0.00371755
0.00371755
0.00369712
0.00371674
0.00369712
0.00371674
0.0036906
0.00367123
0.0036906
0.00367123
0.00369124
0.00369124
0.00367169
0.0036718
0.0036718
0.00364554
0.00366473
0.00364554
0.00366473
0.00366488
0.00364603
0.00364603
0.00366528
0.00366528
0.00367218
0.0036908
0.00369165
0.00367141
0.00367166
0.00369121
0.0036879
0.003675
0.00369092
0.00367185
0.00367496
0.00367166
0.00369121
0.0036879
0.003675
0.00369092
0.00367185
0.00367496
0.00366564
0.0036457
0.0036649
0.00364636
0.00366564
0.0036457
0.0036649
0.00364636
0.00366506
0.00366212
0.00364612
0.00364929
0.00366528
0.00366209
0.00364598
0.00366506
0.00366212
0.00364612
0.00364929
0.00366528
0.00366209
0.00364598
0.00369124
0.00369124
0.00367169
0.0036718
0.0036718
0.0036906
0.00367123
0.00364554
0.00366473
0.00366488
0.00364603
0.00364603
0.00366528
0.00366528
0.00364554
0.00366473
0.00367166
0.00369121
0.0036879
0.003675
0.00369092
0.00367185
0.00367496
0.00367218
0.0036908
0.00369165
0.00367141
0.00367166
0.0036879
0.00369121
0.003675
0.00369092
0.00367496
0.00367185
0.00366564
0.00364569
0.0036649
0.00364636
0.00366506
0.00366212
0.00364612
0.00364929
0.00366528
0.00366209
0.00364598
0.00366564
0.00364569
0.0036649
0.00364636
0.00366506
0.00366212
0.00364929
0.00364612
0.00366209
0.00366527
0.00364598
0.00367218
0.0036908
0.00369165
0.00367141
0.00367166
0.0036879
0.00369121
0.003675
0.00369092
0.00367496
0.00367185
0.00367218
0.0036908
0.00369165
0.00367141
0.00366506
0.00366212
0.00364612
0.00364929
0.00366527
0.00366209
0.00364598
0.00366564
0.00364569
0.0036649
0.00364636
0.00366506
0.00366212
0.00364929
0.00364611
0.00366208
0.00366527
0.00364598
0.00366564
0.00364569
0.0036649
0.00364636
0.00369124
0.00369124
0.00367169
0.0036718
0.0036718
0.0036906
0.00367123
0.00364554
0.00366473
0.00366488
0.00364603
0.00364603
0.00366528
0.00366528
0.00364554
0.00366473
0.00367166
0.0036879
0.00369121
0.003675
0.00369092
0.00367496
0.00367185
0.00367218
0.0036908
0.00369165
0.00367141
0.00367218
0.0036908
0.00369165
0.00367141
0.00366506
0.00366212
0.00364929
0.00364611
0.00366209
0.00366527
0.00364598
0.00366506
0.00366212
0.00364929
0.00364611
0.00366209
0.00366527
0.00364598
0.00366564
0.00364569
0.0036649
0.00364636
0.00366564
0.00364569
0.0036649
0.00364636
0.0036906
0.00367123
0.0036906
0.00367123
0.00366488
0.00364603
0.00364603
0.00366528
0.00366528
0.00364554
0.00366473
0.00364554
0.00366473
0.00363918
0.00362025
0.00363918
0.00362024
0.00363966
0.00363966
0.00362077
0.00362069
0.00362069
0.00359535
0.00361395
0.00359535
0.00361395
0.00361415
0.00359575
0.00359575
0.00361438
0.00361438
0.00362095
0.00363933
0.00363995
0.00362038
0.00362069
0.00363967
0.00363658
0.00362397
0.00363949
0.00362078
0.00362394
0.00362069
0.00363967
0.00363658
0.00362397
0.00363949
0.00362078
0.00362394
0.00361463
0.00359548
0.00361407
0.00359593
0.00361463
0.00359548
0.00361407
0.00359593
0.00361427
0.00361142
0.00359584
0.00359894
0.0036144
0.00361139
0.00359575
0.00361427
0.00361142
0.00359584
0.00359894
0.0036144
0.00361139
0.00359575
0.00363966
0.00363966
0.00362077
0.00362069
0.00362069
0.00363918
0.00362024
0.00359535
0.00361394
0.00361415
0.00359575
0.00359575
0.00361438
0.00361438
0.00359535
0.00361395
0.00362069
0.00363967
0.00363658
0.00362397
0.00363949
0.00362078
0.00362394
0.00362095
0.00363933
0.00363995
0.00362038
0.00362069
0.00363658
0.00363967
0.00362397
0.00363949
0.00362394
0.00362078
0.00361463
0.00359548
0.00361407
0.00359593
0.00361427
0.00361142
0.00359584
0.00359894
0.0036144
0.00361139
0.00359575
0.00361463
0.00359548
0.00361407
0.00359593
0.00361427
0.00361142
0.00359894
0.00359584
0.00361139
0.0036144
0.00359575
0.00362095
0.00363933
0.00363995
0.00362038
0.00362069
0.00363658
0.00363967
0.00362397
0.00363949
0.00362394
0.00362078
0.00362095
0.00363933
0.00363995
0.00362038
0.00361427
0.00361142
0.00359584
0.00359894
0.0036144
0.00361139
0.00359575
0.00361463
0.00359548
0.00361407
0.00359593
0.00361427
0.00361142
0.00359894
0.00359584
0.00361139
0.0036144
0.00359575
0.00361463
0.00359548
0.00361407
0.00359593
0.00363966
0.00363966
0.00362077
0.00362069
0.00362069
0.00363918
0.00362024
0.00359535
0.00361395
0.00361415
0.00359575
0.00359575
0.00361438
0.00361438
0.00359535
0.00361395
0.00362069
0.00363658
0.00363967
0.00362397
0.00363949
0.00362394
0.00362078
0.00362095
0.00363933
0.00363995
0.00362038
0.00362095
0.00363933
0.00363995
0.00362038
0.00361427
0.00361142
0.00359894
0.00359584
0.00361139
0.0036144
0.00359575
0.00361427
0.00361142
0.00359894
0.00359584
0.00361139
0.0036144
0.00359575
0.00361463
0.00359548
0.00361407
0.00359593
0.00361463
0.00359548
0.00361407
0.00359593
0.00363918
0.00362024
0.00363918
0.00362024
0.00361415
0.00359575
0.00359575
0.00361438
0.00361438
0.00359535
0.00361395
0.00359535
0.00361395
0.00358912
0.00357079
0.00358912
0.00357079
0.00358952
0.00358952
0.00357131
0.00357117
0.00357117
0.00354656
0.0035647
0.00354656
0.0035647
0.0035649
0.00354691
0.00354691
0.00356507
0.00356507
0.00357135
0.00358924
0.00358967
0.0035709
0.0035712
0.00358954
0.0035866
0.00357436
0.00358943
0.00357126
0.00357434
0.0035712
0.00358954
0.0035866
0.00357436
0.00358943
0.00357126
0.00357434
0.00356523
0.00354668
0.00356481
0.00354694
0.00356523
0.00354668
0.00356481
0.00354694
0.00356499
0.0035622
0.003547
0.00355013
0.00356509
0.00356218
0.00354695
0.00356499
0.0035622
0.003547
0.00355013
0.00356509
0.00356218
0.00354695
0.00358952
0.00358952
0.00357131
0.00357117
0.00357117
0.00358912
0.00357079
0.00354656
0.00356469
0.0035649
0.00354691
0.00354691
0.00356507
0.00356507
0.00354656
0.0035647
0.0035712
0.00358954
0.0035866
0.00357436
0.00358943
0.00357126
0.00357435
0.00357135
0.00358924
0.00358967
0.0035709
0.0035712
0.0035866
0.00358954
0.00357436
0.00358943
0.00357434
0.00357126
0.00356523
0.00354668
0.00356481
0.00354694
0.00356499
0.0035622
0.003547
0.00355013
0.00356509
0.00356218
0.00354695
0.00356523
0.00354668
0.00356481
0.00354694
0.00356499
0.0035622
0.00355013
0.003547
0.00356218
0.00356509
0.00354695
0.00357135
0.00358924
0.00358967
0.0035709
0.0035712
0.0035866
0.00358954
0.00357436
0.00358943
0.00357434
0.00357126
0.00357135
0.00358924
0.00358967
0.0035709
0.00356499
0.0035622
0.003547
0.00355013
0.00356509
0.00356218
0.00354695
0.00356523
0.00354668
0.00356481
0.00354694
0.00356499
0.0035622
0.00355013
0.003547
0.00356218
0.00356509
0.00354695
0.00356523
0.00354668
0.00356481
0.00354694
0.00358952
0.00358952
0.00357131
0.00357117
0.00357117
0.00358912
0.00357079
0.00354656
0.0035647
0.0035649
0.00354691
0.00354691
0.00356507
0.00356507
0.00354656
0.0035647
0.0035712
0.0035866
0.00358954
0.00357436
0.00358943
0.00357434
0.00357126
0.00357135
0.00358924
0.00358967
0.0035709
0.00357135
0.00358924
0.00358967
0.0035709
0.00356499
0.0035622
0.00355013
0.003547
0.00356218
0.00356509
0.00354695
0.00356499
0.0035622
0.00355013
0.003547
0.00356218
0.00356509
0.00354695
0.00356523
0.00354668
0.00356481
0.00354694
0.00356523
0.00354668
0.00356481
0.00354694
0.00358912
0.00357079
0.00358912
0.00357079
0.0035649
0.00354691
0.00354691
0.00356507
0.00356507
0.00354656
0.0035647
0.00354656
0.0035647
0.00354051
0.0035227
0.00354051
0.0035227
0.00354086
0.00354086
0.00352337
0.00352302
0.00352302
0.00349958
0.00351684
0.00349958
0.00351683
0.00351724
0.00349989
0.00349989
0.00351714
0.00351714
0.00352323
0.00354061
0.00354088
0.00352278
0.00352323
0.00354088
0.00353817
0.0035263
0.00354082
0.00352316
0.00352633
0.00352323
0.00354087
0.00353817
0.0035263
0.00354082
0.00352316
0.00352633
0.00351741
0.00349975
0.00351692
0.00350004
0.00351741
0.00349975
0.00351692
0.00350004
0.00351729
0.00351467
0.00350008
0.00350331
0.00351723
0.00351471
0.00350013
0.00351729
0.00351467
0.00350008
0.00350331
0.00351723
0.00351471
0.00350013
0.00354086
0.00354086
0.00352337
0.00352302
0.00352302
0.00354051
0.0035227
0.00349958
0.00351683
0.00351724
0.00349989
0.00349989
0.00351714
0.00351714
0.00349958
0.00351683
0.00352323
0.00354087
0.00353817
0.0035263
0.00354082
0.00352316
0.00352634
0.00352323
0.00354061
0.00354088
0.00352278
0.00352323
0.00353817
0.00354088
0.0035263
0.00354082
0.00352633
0.00352316
0.00351741
0.00349975
0.00351691
0.00350004
0.00351729
0.00351468
0.00350008
0.00350331
0.00351723
0.00351471
0.00350013
0.00351741
0.00349975
0.00351692
0.00350004
0.00351729
0.00351467
0.00350331
0.00350008
0.00351471
0.00351723
0.00350013
0.00352323
0.00354061
0.00354088
0.00352278
0.00352323
0.00353817
0.00354087
0.0035263
0.00354082
0.00352634
0.00352316
0.00352323
0.00354061
0.00354088
0.00352278
0.00351729
0.00351468
0.00350008
0.00350331
0.00351723
0.00351471
0.00350013
0.00351741
0.00349975
0.00351692
0.00350004
0.00351729
0.00351468
0.00350331
0.00350008
0.00351471
0.00351723
0.00350013
0.00351741
0.00349975
0.00351692
0.00350004
0.00354086
0.00354086
0.00352337
0.00352302
0.00352302
0.00354051
0.0035227
0.00349958
0.00351683
0.00351724
0.00349989
0.00349989
0.00351714
0.00351714
0.00349958
0.00351683
0.00352323
0.00353817
0.00354087
0.0035263
0.00354082
0.00352633
0.00352316
0.00352323
0.00354061
0.00354088
0.00352278
0.00352323
0.00354061
0.00354088
0.00352278
0.00351729
0.00351467
0.00350331
0.00350008
0.00351471
0.00351723
0.00350013
0.00351729
0.00351467
0.00350331
0.00350008
0.00351471
0.00351723
0.00350013
0.0035174
0.00349975
0.00351692
0.00350003
0.0035174
0.00349975
0.00351691
0.00350003
0.00354051
0.0035227
0.00354051
0.0035227
0.00351724
0.00349989
0.00349989
0.00351714
0.00351714
0.00349958
0.00351683
0.00349958
0.00351683
0.00349391
0.00347759
0.00349392
0.00347759
0.00349421
0.00349421
0.00347834
0.00347779
0.00347779
0.00345693
0.00347229
0.00345693
0.00347229
0.00347278
0.00345705
0.00345705
0.00347248
0.00347247
0.00347754
0.0034941
0.00349424
0.00347772
0.00347798
0.00349434
0.00349211
0.00348109
0.00349436
0.00347795
0.00348114
0.00347798
0.00349434
0.00349211
0.00348109
0.00349436
0.00347795
0.00348114
0.00347219
0.00345694
0.00347239
0.00345682
0.00347219
0.00345694
0.00347239
0.00345682
0.00347257
0.00347039
0.00345712
0.00345999
0.00347256
0.00347045
0.00345717
0.00347257
0.00347039
0.00345712
0.00345999
0.00347256
0.00347045
0.00345717
0.00349421
0.00349421
0.00347835
0.00347779
0.00347779
0.00349392
0.00347759
0.00345693
0.00347229
0.00347278
0.00345705
0.00345705
0.00347247
0.00347247
0.00345692
0.00347229
0.00347798
0.00349434
0.00349211
0.00348109
0.00349436
0.00347795
0.00348114
0.00347754
0.0034941
0.00349424
0.00347773
0.00347798
0.00349211
0.00349434
0.00348109
0.00349436
0.00348114
0.00347795
0.00347219
0.00345694
0.00347239
0.00345682
0.00347257
0.00347039
0.00345712
0.00345999
0.00347256
0.00347045
0.00345718
0.00347219
0.00345694
0.00347239
0.00345682
0.00347257
0.00347039
0.00345999
0.00345712
0.00347045
0.00347256
0.00345717
0.00347754
0.0034941
0.00349424
0.00347772
0.00347798
0.00349211
0.00349434
0.00348109
0.00349436
0.00348114
0.00347795
0.00347754
0.0034941
0.00349424
0.00347772
0.00347257
0.00347039
0.00345712
0.00345999
0.00347256
0.00347045
0.00345718
0.00347219
0.00345694
0.00347239
0.00345682
0.00347257
0.00347039
0.00345999
0.00345712
0.00347045
0.00347256
0.00345718
0.00347219
0.00345694
0.00347239
0.00345682
0.00349422
0.00349421
0.00347835
0.00347779
0.00347779
0.00349392
0.00347759
0.00345692
0.00347229
0.00347278
0.00345706
0.00345705
0.00347247
0.00347247
0.00345693
0.00347229
0.00347798
0.00349211
0.00349434
0.00348109
0.00349436
0.00348114
0.00347795