/*--------------------------------*- C++ -*----------------------------------*\
| =========                 |                                                 |
| \\      /  F ield         | OpenFOAM: The Open Source CFD Toolbox           |
|  \\    /   O peration     | Version:  2206                                  |
|   \\  /    A nd           | Website:  www.openfoam.com                      |
|    \\/     M anipulation  |                                                 |
\*---------------------------------------------------------------------------*/
FoamFile
{
    version     2.0;
    format      ascii;
    arch        "LSB;label=32;scalar=64";
    class       volScalarField;
    location    "29";
    object      epsilon;
}
// * * * * * * * * * * * * * * * * * * * * * * * * * * * * * * * * * * * * * //

dimensions      [0 2 -3 0 0 0 0];

internalField   nonuniform List<scalar> 
28687
(
2.80915e-07
3.07792e-07
3.07802e-07
3.41273e-07
2.80914e-07
3.07795e-07
3.07802e-07
3.41292e-07
2.80915e-07
3.07799e-07
3.07805e-07
3.41298e-07
2.80917e-07
3.07803e-07
3.07809e-07
3.41305e-07
2.80915e-07
3.07804e-07
3.07811e-07
3.41314e-07
2.80912e-07
3.07806e-07
3.07812e-07
3.4132e-07
2.80903e-07
3.07788e-07
3.07805e-07
3.41317e-07
2.8081e-07
3.07689e-07
3.07706e-07
3.41218e-07
2.80785e-07
3.07673e-07
3.07683e-07
3.41173e-07
2.80784e-07
3.07673e-07
3.07683e-07
3.41186e-07
2.80784e-07
3.07674e-07
3.07683e-07
3.41182e-07
2.80784e-07
3.07673e-07
3.07683e-07
3.41186e-07
2.80784e-07
3.07673e-07
3.07683e-07
3.41183e-07
2.80784e-07
3.07673e-07
3.07683e-07
3.41181e-07
2.80784e-07
3.07673e-07
3.07683e-07
3.41182e-07
2.80784e-07
3.07673e-07
3.07683e-07
3.41183e-07
2.80784e-07
3.07673e-07
3.07683e-07
3.41183e-07
2.80784e-07
3.07673e-07
3.07683e-07
3.41183e-07
3.0782e-07
3.41006e-07
3.07792e-07
3.41266e-07
3.41022e-07
3.07814e-07
3.0782e-07
3.07813e-07
3.07819e-07
3.41275e-07
3.41019e-07
3.07798e-07
3.07826e-07
3.07798e-07
3.07825e-07
3.07817e-07
3.07795e-07
3.07816e-07
3.41274e-07
3.41031e-07
3.07797e-07
3.07801e-07
3.07796e-07
3.41031e-07
3.41287e-07
3.41027e-07
3.07816e-07
3.07822e-07
3.07816e-07
3.07822e-07
3.41285e-07
3.41024e-07
3.07801e-07
3.07828e-07
3.07801e-07
3.07828e-07
3.07819e-07
3.07799e-07
3.07819e-07
3.41295e-07
3.41036e-07
3.078e-07
3.07805e-07
3.07799e-07
3.41036e-07
3.41293e-07
3.41035e-07
3.07819e-07
3.07826e-07
3.07821e-07
3.07826e-07
3.4129e-07
3.41031e-07
3.07804e-07
3.07831e-07
3.07805e-07
3.07832e-07
3.07822e-07
3.07802e-07
3.07822e-07
3.41301e-07
3.41044e-07
3.07803e-07
3.07809e-07
3.07803e-07
3.41043e-07
3.413e-07
3.41045e-07
3.07825e-07
3.0783e-07
3.07826e-07
3.0783e-07
3.41297e-07
3.4104e-07
3.07809e-07
3.07835e-07
3.07809e-07
3.07835e-07
3.07826e-07
3.07804e-07
3.07826e-07
3.41308e-07
3.41053e-07
3.07806e-07
3.07811e-07
3.07806e-07
3.41052e-07
3.4131e-07
3.41052e-07
3.07829e-07
3.07832e-07
3.07828e-07
3.0783e-07
3.41306e-07
3.41046e-07
3.07812e-07
3.07838e-07
3.0781e-07
3.07837e-07
3.07829e-07
3.07806e-07
3.07827e-07
3.41317e-07
3.4106e-07
3.0781e-07
3.07812e-07
3.07808e-07
3.41059e-07
3.41317e-07
3.41051e-07
3.07831e-07
3.07831e-07
3.07826e-07
3.07825e-07
3.4131e-07
3.4104e-07
3.07812e-07
3.07838e-07
3.07808e-07
3.07835e-07
3.07828e-07
3.07801e-07
3.07826e-07
3.41323e-07
3.4106e-07
3.07809e-07
3.07811e-07
3.07806e-07
3.41058e-07
3.41313e-07
3.40965e-07
3.0782e-07
3.07811e-07
3.07745e-07
3.0773e-07
3.41299e-07
3.40934e-07
3.07802e-07
3.07829e-07
3.07727e-07
3.07754e-07
3.07819e-07
3.07709e-07
3.07743e-07
3.4132e-07
3.40973e-07
3.078e-07
3.07729e-07
3.07724e-07
3.40971e-07
3.41214e-07
3.40903e-07
3.07723e-07
3.07714e-07
3.07698e-07
3.077e-07
3.41185e-07
3.40896e-07
3.07705e-07
3.07732e-07
3.07681e-07
3.07708e-07
3.07722e-07
3.07673e-07
3.07699e-07
3.41221e-07
3.40909e-07
3.07703e-07
3.07683e-07
3.0768e-07
3.40909e-07
3.41169e-07
3.40919e-07
3.07699e-07
3.07702e-07
3.07697e-07
3.077e-07
3.41163e-07
3.40906e-07
3.07682e-07
3.0771e-07
3.07681e-07
3.07709e-07
3.077e-07
3.07674e-07
3.07699e-07
3.41175e-07
3.40926e-07
3.07681e-07
3.07684e-07
3.0768e-07
3.40926e-07
3.41182e-07
3.40914e-07
3.07698e-07
3.07702e-07
3.07695e-07
3.07699e-07
3.4117e-07
3.40904e-07
3.07682e-07
3.0771e-07
3.0768e-07
3.07707e-07
3.077e-07
3.07674e-07
3.07698e-07
3.41189e-07
3.40922e-07
3.07681e-07
3.07683e-07
3.07679e-07
3.40921e-07
3.41178e-07
3.40915e-07
3.07697e-07
3.07701e-07
3.07695e-07
3.07699e-07
3.41168e-07
3.40908e-07
3.07681e-07
3.07709e-07
3.07679e-07
3.07707e-07
3.07699e-07
3.07674e-07
3.07698e-07
3.41185e-07
3.40923e-07
3.0768e-07
3.07683e-07
3.07679e-07
3.40924e-07
3.41181e-07
3.40911e-07
3.07696e-07
3.07701e-07
3.07694e-07
3.07699e-07
3.41172e-07
3.40905e-07
3.0768e-07
3.07709e-07
3.07678e-07
3.07707e-07
3.077e-07
3.07673e-07
3.07698e-07
3.41188e-07
3.4092e-07
3.07683e-07
3.07683e-07
3.07682e-07
3.4092e-07
3.41177e-07
3.40912e-07
3.07696e-07
3.07701e-07
3.07694e-07
3.07699e-07
3.41171e-07
3.40903e-07
3.0768e-07
3.07709e-07
3.07678e-07
3.07707e-07
3.077e-07
3.07673e-07
3.07698e-07
3.41185e-07
3.4092e-07
3.07684e-07
3.07683e-07
3.07682e-07
3.4092e-07
3.41176e-07
3.40913e-07
3.07695e-07
3.07701e-07
3.07694e-07
3.07699e-07
3.41169e-07
3.40904e-07
3.0768e-07
3.07709e-07
3.07678e-07
3.07707e-07
3.07699e-07
3.07673e-07
3.07698e-07
3.41184e-07
3.40922e-07
3.07684e-07
3.07683e-07
3.07681e-07
3.40922e-07
3.41176e-07
3.40913e-07
3.07696e-07
3.07701e-07
3.07694e-07
3.07699e-07
3.41168e-07
3.40905e-07
3.0768e-07
3.07709e-07
3.07678e-07
3.07707e-07
3.077e-07
3.07673e-07
3.07698e-07
3.41184e-07
3.40923e-07
3.07683e-07
3.07683e-07
3.07681e-07
3.40922e-07
3.41177e-07
3.40913e-07
3.07695e-07
3.07701e-07
3.07694e-07
3.07699e-07
3.41169e-07
3.40906e-07
3.0768e-07
3.07709e-07
3.07678e-07
3.07707e-07
3.077e-07
3.07673e-07
3.07698e-07
3.41185e-07
3.40922e-07
3.07683e-07
3.07683e-07
3.07681e-07
3.40922e-07
3.41177e-07
3.40913e-07
3.07696e-07
3.07701e-07
3.07694e-07
3.07699e-07
3.4117e-07
3.40906e-07
3.0768e-07
3.07709e-07
3.07678e-07
3.07707e-07
3.077e-07
3.07673e-07
3.07698e-07
3.41185e-07
3.40923e-07
3.07683e-07
3.07683e-07
3.07681e-07
3.40922e-07
3.41177e-07
3.07695e-07
3.077e-07
3.4117e-07
3.07679e-07
3.07708e-07
3.07699e-07
3.41185e-07
3.07682e-07
1.76014e-06
8.89073e-06
1.7606e-06
8.89027e-06
2.23131e-05
2.23115e-05
1.76003e-06
8.89198e-06
1.76043e-06
8.89146e-06
2.80918e-07
2.80919e-07
2.80917e-07
2.80914e-07
2.80917e-07
2.80918e-07
2.80916e-07
5.59531e-07
1.40234e-06
2.90076e-07
3.07795e-07
5.5968e-07
1.40161e-06
2.90076e-07
2.23141e-05
2.23124e-05
5.59529e-07
2.90078e-07
1.40222e-06
3.07802e-07
5.5968e-07
2.90078e-07
1.40154e-06
3.03093e-06
3.03177e-06
3.41025e-07
3.03061e-06
3.03141e-06
1.7603e-06
8.89058e-06
1.76083e-06
8.89008e-06
2.23102e-05
2.23096e-05
1.76019e-06
8.89174e-06
1.76067e-06
8.8912e-06
2.80917e-07
2.80918e-07
2.80916e-07
2.80915e-07
2.80916e-07
2.80917e-07
2.80915e-07
5.59563e-07
1.40249e-06
2.90075e-07
3.07798e-07
5.59711e-07
1.40172e-06
2.90078e-07
2.23112e-05
2.23102e-05
5.5956e-07
2.90075e-07
1.40241e-06
3.07805e-07
5.59709e-07
2.90077e-07
1.40168e-06
3.0314e-06
3.03218e-06
3.41032e-07
3.0309e-06
3.03169e-06
1.76035e-06
8.89029e-06
1.76091e-06
8.88986e-06
2.23094e-05
2.23093e-05
1.76023e-06
8.89141e-06
1.76075e-06
8.89094e-06
2.80918e-07
2.8092e-07
2.80917e-07
2.80917e-07
2.80917e-07
2.80919e-07
2.80917e-07
5.59588e-07
1.40256e-06
2.90077e-07
3.07802e-07
5.59738e-07
1.40177e-06
2.9008e-07
2.23098e-05
2.23094e-05
5.59584e-07
2.90076e-07
1.40247e-06
3.07808e-07
5.59736e-07
2.90079e-07
1.40172e-06
3.03148e-06
3.03226e-06
3.41039e-07
3.03097e-06
3.03175e-06
1.76034e-06
8.89017e-06
1.76092e-06
8.88978e-06
2.23095e-05
2.23096e-05
1.76021e-06
8.89129e-06
1.76074e-06
8.89089e-06
2.80918e-07
2.8092e-07
2.80917e-07
2.80916e-07
2.80917e-07
2.80917e-07
2.80916e-07
5.59602e-07
1.40259e-06
2.90079e-07
3.07806e-07
5.59756e-07
1.40179e-06
2.90082e-07
2.23096e-05
2.23095e-05
5.59596e-07
2.90078e-07
1.4025e-06
3.07812e-07
5.59751e-07
2.9008e-07
1.40175e-06
3.0316e-06
3.03238e-06
3.41047e-07
3.03111e-06
3.0319e-06
1.76033e-06
8.89018e-06
1.7609e-06
8.88983e-06
2.23101e-05
2.23103e-05
1.76021e-06
8.89133e-06
1.76073e-06
8.89097e-06
2.80917e-07
2.80919e-07
2.80917e-07
2.80912e-07
2.80913e-07
2.80917e-07
2.80912e-07
5.59615e-07
1.40259e-06
2.9008e-07
3.07806e-07
5.59769e-07
1.40179e-06
2.90079e-07
2.23101e-05
2.23101e-05
5.5961e-07
2.90079e-07
1.40251e-06
3.07813e-07
5.59764e-07
2.90081e-07
1.40175e-06
3.03172e-06
3.0325e-06
3.41056e-07
3.0312e-06
3.03199e-06
1.76036e-06
8.89034e-06
1.76091e-06
8.89022e-06
2.23111e-05
2.23101e-05
1.76024e-06
8.89152e-06
1.76073e-06
8.89135e-06
2.80913e-07
2.80916e-07
2.80912e-07
2.80908e-07
2.80907e-07
2.80911e-07
2.80908e-07
5.59621e-07
1.40263e-06
2.90075e-07
3.07807e-07
5.59777e-07
1.40189e-06
2.90075e-07
2.23111e-05
2.23111e-05
5.59616e-07
2.90078e-07
1.40252e-06
3.07815e-07
5.59772e-07
2.90078e-07
1.4018e-06
3.03171e-06
3.03249e-06
3.41059e-07
3.03122e-06
3.03201e-06
1.76055e-06
8.89095e-06
1.76116e-06
8.89073e-06
2.23095e-05
2.23096e-05
1.76043e-06
8.89216e-06
1.76099e-06
8.89189e-06
2.80901e-07
2.80906e-07
2.80903e-07
2.80833e-07
2.80825e-07
2.80834e-07
2.80832e-07
5.59587e-07
1.40276e-06
2.90065e-07
3.07764e-07
5.59782e-07
1.40189e-06
2.90049e-07
2.23109e-05
2.231e-05
5.59585e-07
2.90068e-07
1.40267e-06
3.07787e-07
5.59779e-07
2.90055e-07
1.40187e-06
3.0319e-06
3.03268e-06
3.41035e-07
3.03129e-06
3.03208e-06
1.76027e-06
8.89109e-06
1.76094e-06
8.89071e-06
2.23096e-05
2.23094e-05
1.76015e-06
8.89227e-06
1.76076e-06
8.89181e-06
2.80805e-07
2.80813e-07
2.80811e-07
2.80785e-07
2.80786e-07
2.80789e-07
2.80787e-07
5.59459e-07
1.40254e-06
2.89971e-07
3.0768e-07
5.59651e-07
1.40168e-06
2.8996e-07
2.23099e-05
2.23095e-05
5.59459e-07
2.89975e-07
1.4025e-06
3.07694e-07
5.59651e-07
2.89964e-07
1.40166e-06
3.03163e-06
3.03241e-06
3.4092e-07
3.03097e-06
3.03176e-06
1.76019e-06
8.89105e-06
1.76078e-06
8.89066e-06
2.23092e-05
2.23088e-05
1.76007e-06
8.89213e-06
1.7606e-06
8.89184e-06
2.80787e-07
2.80791e-07
2.80789e-07
2.80785e-07
2.80786e-07
2.80789e-07
2.80787e-07
5.59436e-07
1.40244e-06
2.8995e-07
3.07676e-07
5.59595e-07
1.40163e-06
2.89953e-07
2.23098e-05
2.23095e-05
5.59434e-07
2.89952e-07
1.40238e-06
3.07686e-07
5.59595e-07
2.89954e-07
1.4016e-06
3.03144e-06
3.03222e-06
3.40922e-07
3.03088e-06
3.03166e-06
1.76018e-06
8.89091e-06
1.76076e-06
8.89043e-06
2.23089e-05
2.23089e-05
1.76006e-06
8.89232e-06
1.76059e-06
8.89201e-06
2.80787e-07
2.8079e-07
2.80788e-07
2.80784e-07
2.80786e-07
2.80789e-07
2.80787e-07
5.59436e-07
1.40243e-06
2.8995e-07
3.07675e-07
5.59595e-07
1.40163e-06
2.89951e-07
2.23098e-05
2.23095e-05
5.59433e-07
2.89952e-07
1.40236e-06
3.07685e-07
5.59592e-07
2.89954e-07
1.4016e-06
3.03142e-06
3.0322e-06
3.40922e-07
3.03087e-06
3.03166e-06
1.76018e-06
8.89075e-06
1.76076e-06
8.8903e-06
2.2309e-05
2.23089e-05
1.76006e-06
8.89246e-06
1.76059e-06
8.89212e-06
2.80787e-07
2.8079e-07
2.80788e-07
2.80784e-07
2.80786e-07
2.80789e-07
2.80787e-07
5.59434e-07
1.40243e-06
2.8995e-07
3.07675e-07
5.59593e-07
1.40163e-06
2.89951e-07
2.23098e-05
2.23095e-05
5.59431e-07
2.89952e-07
1.40236e-06
3.07685e-07
5.59591e-07
2.89953e-07
1.4016e-06
3.03142e-06
3.0322e-06
3.40919e-07
3.03087e-06
3.03166e-06
1.76018e-06
8.89065e-06
1.76076e-06
8.89023e-06
2.2309e-05
2.2309e-05
1.76007e-06
8.89253e-06
1.76059e-06
8.89217e-06
2.80787e-07
2.8079e-07
2.80788e-07
2.80784e-07
2.80786e-07
2.80789e-07
2.80787e-07
5.59434e-07
1.40243e-06
2.8995e-07
3.07675e-07
5.59592e-07
1.40163e-06
2.89951e-07
2.23098e-05
2.23095e-05
5.59432e-07
2.89952e-07
1.40236e-06
3.07684e-07
5.59591e-07
2.89953e-07
1.4016e-06
3.03142e-06
3.0322e-06
3.40922e-07
3.03087e-06
3.03166e-06
1.76018e-06
8.8906e-06
1.76076e-06
8.89018e-06
2.23091e-05
2.2309e-05
1.76007e-06
8.89257e-06
1.76059e-06
8.8922e-06
2.80787e-07
2.8079e-07
2.80788e-07
2.80784e-07
2.80786e-07
2.80789e-07
2.80787e-07
5.59435e-07
1.40243e-06
2.8995e-07
3.07675e-07
5.59594e-07
1.40163e-06
2.89951e-07
2.23098e-05
2.23095e-05
5.59433e-07
2.89952e-07
1.40236e-06
3.07684e-07
5.59592e-07
2.89953e-07
1.4016e-06
3.03142e-06
3.0322e-06
3.40925e-07
3.03087e-06
3.03166e-06
1.76018e-06
8.89056e-06
1.76076e-06
8.89015e-06
2.23092e-05
2.23091e-05
1.76007e-06
8.89259e-06
1.76059e-06
8.89221e-06
2.80787e-07
2.8079e-07
2.80788e-07
2.80784e-07
2.80786e-07
2.80789e-07
2.80787e-07
5.59435e-07
1.40243e-06
2.8995e-07
3.07675e-07
5.59593e-07
1.40163e-06
2.89951e-07
2.23098e-05
2.23095e-05
5.59434e-07
2.89952e-07
1.40236e-06
3.07685e-07
5.59592e-07
2.89953e-07
1.4016e-06
3.03142e-06
3.0322e-06
3.40923e-07
3.03087e-06
3.03166e-06
1.76018e-06
8.89054e-06
1.76076e-06
8.89013e-06
2.23092e-05
2.23091e-05
1.76007e-06
8.8926e-06
1.76059e-06
8.89222e-06
2.80787e-07
2.8079e-07
2.80788e-07
2.80784e-07
2.80786e-07
2.80789e-07
2.80787e-07
5.59436e-07
1.40243e-06
2.8995e-07
3.07675e-07
5.59594e-07
1.40163e-06
2.89951e-07
2.23098e-05
2.23095e-05
5.59435e-07
2.89952e-07
1.40236e-06
3.07684e-07
5.59594e-07
2.89953e-07
1.4016e-06
3.03142e-06
3.0322e-06
3.40922e-07
3.03087e-06
3.03166e-06
1.76018e-06
8.89052e-06
1.76076e-06
8.89012e-06
2.23092e-05
2.23091e-05
1.76007e-06
8.8926e-06
1.76059e-06
8.89223e-06
2.80787e-07
2.8079e-07
2.80788e-07
2.80784e-07
2.80786e-07
2.80789e-07
2.80787e-07
5.59434e-07
1.40243e-06
2.8995e-07
3.07675e-07
5.59593e-07
1.40163e-06
2.89951e-07
2.23098e-05
2.23095e-05
5.59434e-07
2.89952e-07
1.40236e-06
3.07684e-07
5.59594e-07
2.89954e-07
1.4016e-06
3.03142e-06
3.0322e-06
3.40922e-07
3.03087e-06
3.03166e-06
1.76018e-06
8.89052e-06
1.76076e-06
8.89012e-06
2.23092e-05
2.23091e-05
1.76006e-06
8.89261e-06
1.76059e-06
8.89223e-06
2.80787e-07
2.8079e-07
2.80788e-07
2.80784e-07
2.80786e-07
2.80789e-07
2.80787e-07
5.59435e-07
1.40243e-06
2.8995e-07
3.07675e-07
5.59592e-07
1.40163e-06
2.89951e-07
2.23098e-05
2.23095e-05
5.59435e-07
2.89952e-07
1.40236e-06
3.07684e-07
5.59593e-07
2.89954e-07
1.4016e-06
3.03142e-06
3.0322e-06
3.40922e-07
3.03087e-06
3.03166e-06
1.76018e-06
8.89052e-06
1.76076e-06
8.89012e-06
2.23092e-05
2.23091e-05
1.76006e-06
8.89261e-06
1.76059e-06
8.89223e-06
2.80786e-07
2.8079e-07
2.80788e-07
5.59434e-07
1.40243e-06
2.8995e-07
3.07674e-07
5.59593e-07
1.40163e-06
2.89952e-07
2.23098e-05
2.23095e-05
5.59438e-07
2.89952e-07
1.40236e-06
3.07685e-07
5.59595e-07
2.89954e-07
1.4016e-06
3.03142e-06
3.0322e-06
3.40922e-07
3.03087e-06
3.03177e-06
8.8912e-06
1.4016e-06
2.23134e-05
3.031e-06
3.03023e-06
2.23108e-05
1.40151e-06
8.89061e-06
2.2313e-05
2.23114e-05
2.23146e-05
2.23132e-05
3.03084e-06
3.03172e-06
3.41016e-07
3.03054e-06
3.03138e-06
2.23099e-05
2.23112e-05
2.23117e-05
2.23129e-05
3.41281e-07
3.03076e-06
3.03155e-06
3.03112e-06
3.03194e-06
1.76016e-06
8.89153e-06
1.76062e-06
8.89113e-06
5.59527e-07
1.40216e-06
2.90075e-07
3.07814e-07
5.59679e-07
1.40147e-06
2.90075e-07
5.5953e-07
1.40239e-06
2.90078e-07
3.07819e-07
5.59682e-07
1.4017e-06
2.90078e-07
1.76073e-06
8.89024e-06
8.89063e-06
1.76024e-06
1.76075e-06
8.89101e-06
8.89148e-06
1.76026e-06
5.59694e-07
3.07813e-07
1.40156e-06
2.90074e-07
1.40226e-06
2.90074e-07
5.59544e-07
5.59698e-07
3.07819e-07
1.40177e-06
2.90077e-07
1.40249e-06
2.90077e-07
5.59547e-07
3.03163e-06
3.03095e-06
3.41015e-07
3.03134e-06
3.03052e-06
2.23108e-05
2.23091e-05
2.23103e-05
2.23114e-05
3.41281e-07
3.03151e-06
3.03062e-06
3.03192e-06
3.03114e-06
2.23079e-05
2.23092e-05
5.59539e-07
1.40256e-06
2.90077e-07
3.07798e-07
5.59688e-07
1.40184e-06
2.90077e-07
1.76001e-06
8.89178e-06
1.76042e-06
8.89129e-06
5.59535e-07
2.9008e-07
1.40256e-06
3.07826e-07
5.59686e-07
2.9008e-07
1.40184e-06
1.76057e-06
8.89137e-06
8.89183e-06
1.76014e-06
5.59703e-07
3.07797e-07
1.40193e-06
2.90076e-07
1.40267e-06
2.90075e-07
5.59555e-07
1.76056e-06
8.89123e-06
8.89167e-06
1.76012e-06
5.59701e-07
3.07825e-07
2.90079e-07
1.40192e-06
2.90079e-07
1.40267e-06
5.59552e-07
1.76017e-06
8.89098e-06
1.76063e-06
8.89055e-06
5.59535e-07
2.90077e-07
1.40223e-06
3.07817e-07
5.59685e-07
2.90077e-07
1.40154e-06
1.76017e-06
8.89174e-06
1.76063e-06
8.89128e-06
5.59697e-07
3.07795e-07
1.40168e-06
2.90075e-07
1.40243e-06
2.90075e-07
5.59549e-07
1.76077e-06
8.89041e-06
8.89093e-06
1.76028e-06
5.597e-07
3.07816e-07
2.90076e-07
1.40163e-06
2.90076e-07
1.40233e-06
5.59552e-07
1.76076e-06
8.89123e-06
8.89164e-06
1.76027e-06
3.03178e-06
3.03093e-06
3.41025e-07
3.03131e-06
3.03061e-06
2.23141e-05
2.23125e-05
2.23111e-05
2.23125e-05
3.4129e-07
3.03153e-06
3.0308e-06
3.03198e-06
3.03117e-06
2.2311e-05
2.23123e-05
5.59527e-07
2.90076e-07
1.40239e-06
3.07797e-07
5.59678e-07
2.90076e-07
1.4017e-06
1.76001e-06
8.89189e-06
1.76041e-06
8.89143e-06
1.76002e-06
8.89247e-06
1.76042e-06
8.89201e-06
5.59695e-07
3.07801e-07
2.90075e-07
1.40163e-06
2.90076e-07
1.40232e-06
5.59546e-07
5.59694e-07
3.07796e-07
2.90075e-07
1.40179e-06
2.90075e-07
1.4025e-06
5.59544e-07
1.76055e-06
8.89137e-06
8.89178e-06
1.76012e-06
1.76056e-06
8.89196e-06
8.89237e-06
1.76012e-06
2.23143e-05
2.23126e-05
2.23149e-05
2.23132e-05
3.41291e-07
3.03082e-06
3.03161e-06
3.03119e-06
3.03198e-06
2.23111e-05
2.23125e-05
2.23117e-05
2.23131e-05
2.23099e-05
2.2309e-05
2.23115e-05
2.23106e-05
3.03129e-06
3.03208e-06
3.41025e-07
3.0308e-06
3.0316e-06
2.23086e-05
2.23091e-05
2.23101e-05
2.23105e-05
3.4129e-07
3.03082e-06
3.03161e-06
3.03131e-06
3.03211e-06
1.76032e-06
8.89132e-06
1.76084e-06
8.89081e-06
5.59557e-07
1.40234e-06
2.90077e-07
3.07816e-07
5.5971e-07
1.4016e-06
2.90077e-07
5.59561e-07
1.40255e-06
2.9008e-07
3.07822e-07
5.59714e-07
1.40181e-06
2.9008e-07
1.76087e-06
8.88994e-06
8.8904e-06
1.76033e-06
1.76089e-06
8.89068e-06
8.89113e-06
1.76035e-06
5.59724e-07
3.07815e-07
1.40162e-06
2.90077e-07
1.40238e-06
2.90076e-07
5.59573e-07
5.59728e-07
3.07822e-07
1.40184e-06
2.90079e-07
1.40259e-06
2.90079e-07
5.59576e-07
3.03205e-06
3.03124e-06
3.41021e-07
3.03159e-06
3.03073e-06
2.23081e-05
2.23072e-05
2.23094e-05
2.23098e-05
3.41287e-07
3.03166e-06
3.03084e-06
3.03213e-06
3.03136e-06
2.23068e-05
2.23075e-05
5.59569e-07
1.40274e-06
2.90078e-07
3.07801e-07
5.59719e-07
1.40198e-06
2.90079e-07
1.76018e-06
8.89159e-06
1.76065e-06
8.89105e-06
5.59566e-07
2.90082e-07
1.40274e-06
3.07828e-07
5.59717e-07
2.90082e-07
1.40197e-06
1.76071e-06
8.89103e-06
8.89154e-06
1.76023e-06
5.59733e-07
3.078e-07
1.402e-06
2.90077e-07
1.40278e-06
2.90077e-07
5.59584e-07
1.7607e-06
8.89088e-06
8.89139e-06
1.76021e-06
5.59731e-07
3.07828e-07
2.90081e-07
1.402e-06
2.90081e-07
1.40278e-06
5.59581e-07
1.76034e-06
8.89076e-06
1.76086e-06
8.8902e-06
5.59566e-07
2.90079e-07
1.40241e-06
3.07819e-07
5.59717e-07
2.90079e-07
1.40168e-06
1.76033e-06
8.89156e-06
1.76085e-06
8.89104e-06
5.59728e-07
3.07798e-07
1.40175e-06
2.90077e-07
1.40252e-06
2.90077e-07
5.59577e-07
1.76091e-06
8.89007e-06
8.89056e-06
1.76037e-06
5.5973e-07
3.07818e-07
2.90078e-07
1.40171e-06
2.90077e-07
1.40245e-06
5.59581e-07
1.7609e-06
8.89086e-06
8.89135e-06
1.76036e-06
3.03215e-06
3.03134e-06
3.41033e-07
3.03164e-06
3.03088e-06
2.2311e-05
2.23101e-05
2.23096e-05
2.23104e-05
3.41298e-07
3.03171e-06
3.0309e-06
3.03225e-06
3.03139e-06
2.23097e-05
2.23102e-05
5.59558e-07
2.90078e-07
1.40257e-06
3.078e-07
5.5971e-07
2.90078e-07
1.40184e-06
1.76018e-06
8.8917e-06
1.76065e-06
8.89118e-06
1.76018e-06
8.89229e-06
1.76065e-06
8.89177e-06
5.59726e-07
3.07805e-07
2.90076e-07
1.4017e-06
2.90076e-07
1.40244e-06
5.59575e-07
5.59724e-07
3.07799e-07
2.90077e-07
1.40187e-06
2.90077e-07
1.40262e-06
5.59573e-07
1.76069e-06
8.89101e-06
8.8915e-06
1.76021e-06
1.7607e-06
8.89159e-06
8.89208e-06
1.76021e-06
2.23112e-05
2.23103e-05
2.23118e-05
2.23109e-05
3.41297e-07
3.03093e-06
3.03171e-06
3.03142e-06
3.0322e-06
2.23099e-05
2.23104e-05
2.23105e-05
2.2311e-05
2.23088e-05
2.23084e-05
2.23102e-05
2.231e-05
3.03133e-06
3.03212e-06
3.41032e-07
3.03086e-06
3.03165e-06
2.23083e-05
2.23086e-05
2.231e-05
2.23101e-05
3.41298e-07
3.03093e-06
3.03173e-06
3.03138e-06
3.03217e-06
1.76037e-06
8.89102e-06
1.76092e-06
8.89061e-06
5.59586e-07
1.4024e-06
2.9008e-07
3.0782e-07
5.59739e-07
1.40164e-06
2.9008e-07
5.59589e-07
1.40261e-06
2.90082e-07
3.07826e-07
5.59743e-07
1.40185e-06
2.90082e-07
1.76092e-06
8.8898e-06
8.89021e-06
1.76035e-06
1.76093e-06
8.8906e-06
8.89097e-06
1.76037e-06
5.59751e-07
3.07821e-07
1.40165e-06
2.90079e-07
1.40242e-06
2.90079e-07
5.59596e-07
5.59755e-07
3.07826e-07
1.40187e-06
2.90081e-07
1.40263e-06
2.90081e-07
5.596e-07
3.03219e-06
3.03146e-06
3.41028e-07
3.03173e-06
3.03092e-06
2.23071e-05
2.23067e-05
2.23093e-05
2.23095e-05
3.41294e-07
3.03183e-06
3.03099e-06
3.03228e-06
3.03153e-06
2.23068e-05
2.2307e-05
5.59597e-07
1.4028e-06
2.9008e-07
3.07804e-07
5.59748e-07
1.40202e-06
2.9008e-07
1.76022e-06
8.89125e-06
1.76072e-06
8.89078e-06
5.59594e-07
2.90084e-07
1.40281e-06
3.07831e-07
5.59746e-07
2.90084e-07
1.40202e-06
1.76074e-06
8.89089e-06
8.89132e-06
1.76023e-06
5.5976e-07
3.07805e-07
1.40203e-06
2.90079e-07
1.40282e-06
2.90079e-07
5.59605e-07
1.76073e-06
8.89073e-06
8.89116e-06
1.76021e-06
5.59758e-07
3.07831e-07
2.90083e-07
1.40204e-06
2.90083e-07
1.40283e-06
5.59602e-07
1.76039e-06
8.89045e-06
1.76094e-06
8.89e-06
5.59594e-07
2.90081e-07
1.40247e-06
3.07822e-07
5.59745e-07
2.90081e-07
1.40172e-06
1.76038e-06
8.8912e-06
1.76093e-06
8.89076e-06
5.59752e-07
3.07802e-07
1.40178e-06
2.90079e-07
1.40257e-06
2.9008e-07
5.59597e-07
1.76095e-06
8.88997e-06
8.89039e-06
1.76038e-06
5.59757e-07
3.07822e-07
2.9008e-07
1.40174e-06
2.9008e-07
1.40249e-06
5.59603e-07
1.76094e-06
8.89072e-06
8.89112e-06
1.76037e-06
3.03232e-06
3.03141e-06
3.41041e-07
3.03177e-06
3.03094e-06
2.23099e-05
2.23095e-05
2.23094e-05
2.23097e-05
3.41305e-07
3.03184e-06
3.03101e-06
3.03237e-06
3.03146e-06
2.23094e-05
2.23097e-05
5.59585e-07
2.90079e-07
1.40264e-06
3.07803e-07
5.59739e-07
2.90079e-07
1.40188e-06
1.76022e-06
8.89135e-06
1.76072e-06
8.89091e-06
1.76022e-06
8.89193e-06
1.76073e-06
8.89149e-06
5.59748e-07
3.07808e-07
2.90078e-07
1.40174e-06
2.90079e-07
1.40248e-06
5.59591e-07
5.59749e-07
3.07802e-07
2.90078e-07
1.4019e-06
2.90078e-07
1.40266e-06
5.59592e-07
1.76072e-06
8.89087e-06
8.89127e-06
1.76021e-06
1.76073e-06
8.89145e-06
8.89185e-06
1.76021e-06
2.231e-05
2.23096e-05
2.23106e-05
2.23102e-05
3.41304e-07
3.03104e-06
3.03183e-06
3.03149e-06
3.03227e-06
2.23096e-05
2.23099e-05
2.23102e-05
2.23105e-05
2.23086e-05
2.23084e-05
2.23102e-05
2.23101e-05
3.03146e-06
3.03225e-06
3.4104e-07
3.03101e-06
3.03181e-06
2.23087e-05
2.23087e-05
2.23104e-05
2.23104e-05
3.41307e-07
3.03107e-06
3.03187e-06
3.03153e-06
3.03234e-06
1.76035e-06
8.89097e-06
1.76093e-06
8.89061e-06
5.59603e-07
1.40243e-06
2.90082e-07
3.07825e-07
5.59761e-07
1.40166e-06
2.90082e-07
5.59607e-07
1.40264e-06
2.90084e-07
3.0783e-07
5.59765e-07
1.40187e-06
2.90084e-07
1.76089e-06
8.88979e-06
8.89015e-06
1.76034e-06
1.76091e-06
8.89065e-06
8.89098e-06
1.76035e-06
5.59767e-07
3.07826e-07
1.40167e-06
2.90081e-07
1.40243e-06
2.90081e-07
5.59611e-07
5.59771e-07
3.0783e-07
1.40187e-06
2.90082e-07
1.40264e-06
2.90082e-07
5.59615e-07
3.03236e-06
3.0316e-06
3.41037e-07
3.03189e-06
3.03104e-06
2.23072e-05
2.23069e-05
2.231e-05
2.23099e-05
3.41302e-07
3.03188e-06
3.03108e-06
3.03239e-06
3.03163e-06
2.23073e-05
2.23074e-05
5.59611e-07
1.40283e-06
2.90082e-07
3.07809e-07
5.59767e-07
1.40205e-06
2.90082e-07
1.7602e-06
8.89112e-06
1.76072e-06
8.89072e-06
5.59608e-07
2.90086e-07
1.40284e-06
3.07835e-07
5.59765e-07
2.90086e-07
1.40205e-06
1.76072e-06
8.89091e-06
8.89129e-06
1.76022e-06
5.59773e-07
3.07809e-07
1.40205e-06
2.90081e-07
1.40284e-06
2.90081e-07
5.5962e-07
1.7607e-06
8.89075e-06
8.89113e-06
1.7602e-06
5.59771e-07
3.07835e-07
2.90084e-07
1.40206e-06
2.90085e-07
1.40285e-06
5.59617e-07
1.76037e-06
8.89037e-06
1.76094e-06
8.88997e-06
5.59608e-07
2.90083e-07
1.4025e-06
3.07826e-07
5.59765e-07
2.90083e-07
1.40175e-06
1.76036e-06
8.89108e-06
1.76093e-06
8.89071e-06
5.59765e-07
3.07806e-07
1.40179e-06
2.90081e-07
1.40258e-06
2.90081e-07
5.59609e-07
1.76092e-06
8.89002e-06
8.89038e-06
1.76036e-06
5.59771e-07
3.07825e-07
2.90081e-07
1.40176e-06
2.90082e-07
1.40251e-06
5.59617e-07
1.76092e-06
8.89072e-06
8.89108e-06
1.76036e-06
3.03244e-06
3.03153e-06
3.41049e-07
3.03191e-06
3.03109e-06
2.23097e-05
2.23095e-05
2.23098e-05
2.23099e-05
3.41314e-07
3.03197e-06
3.03114e-06
3.03252e-06
3.03161e-06
2.23098e-05
2.23098e-05
5.59598e-07
2.9008e-07
1.40267e-06
3.07806e-07
5.59756e-07
2.9008e-07
1.40191e-06
1.76019e-06
8.89123e-06
1.76071e-06
8.89086e-06
1.7602e-06
8.89181e-06
1.76072e-06
8.89144e-06
5.5976e-07
3.07812e-07
2.90079e-07
1.40175e-06
2.90079e-07
1.4025e-06
5.59604e-07
5.59762e-07
3.07806e-07
2.90079e-07
1.40192e-06
2.90079e-07
1.40268e-06
5.59606e-07
1.76069e-06
8.89088e-06
8.89123e-06
1.76019e-06
1.7607e-06
8.89146e-06
8.89181e-06
1.7602e-06
2.23099e-05
2.23097e-05
2.23105e-05
2.23103e-05
3.41312e-07
3.03117e-06
3.03196e-06
3.03164e-06
3.03242e-06
2.231e-05
2.231e-05
2.23106e-05
2.23106e-05
2.2309e-05
2.2309e-05
2.23106e-05
2.23107e-05
3.03157e-06
3.03238e-06
3.41049e-07
3.0311e-06
3.0319e-06
2.23096e-05
2.23094e-05
2.23112e-05
2.2311e-05
3.41315e-07
3.03104e-06
3.03187e-06
3.03159e-06
3.0324e-06
1.76035e-06
8.89103e-06
1.76091e-06
8.89069e-06
5.59618e-07
1.40244e-06
2.9008e-07
3.0783e-07
5.59775e-07
1.40167e-06
2.9008e-07
5.59623e-07
1.40264e-06
2.90081e-07
3.07832e-07
5.5978e-07
1.40186e-06
2.9008e-07
1.76089e-06
8.88991e-06
8.8902e-06
1.76034e-06
1.76092e-06
8.89089e-06
8.89108e-06
1.76037e-06
5.59783e-07
3.07828e-07
1.40168e-06
2.90076e-07
1.40244e-06
2.90077e-07
5.59621e-07
5.59788e-07
3.0783e-07
1.40188e-06
2.90076e-07
1.40264e-06
2.90077e-07
5.59627e-07
3.03238e-06
3.03167e-06
3.41045e-07
3.03185e-06
3.03108e-06
2.23077e-05
2.23077e-05
2.23109e-05
2.23106e-05
3.4131e-07
3.03181e-06
3.03108e-06
3.03233e-06
3.03166e-06
2.23082e-05
2.23082e-05
5.59628e-07
1.40285e-06
2.90083e-07
3.07812e-07
5.59783e-07
1.40206e-06
2.90083e-07
1.76019e-06
8.89116e-06
1.76071e-06
8.8908e-06
5.59624e-07
2.90084e-07
1.40286e-06
3.07839e-07
5.5978e-07
2.90083e-07
1.40206e-06
1.76072e-06
8.89105e-06
8.89137e-06
1.76022e-06
5.59789e-07
3.07811e-07
1.40206e-06
2.90079e-07
1.40285e-06
2.9008e-07
5.59628e-07
1.76071e-06
8.89089e-06
8.8912e-06
1.76021e-06
5.59787e-07
3.07837e-07
2.90079e-07
1.40207e-06
2.9008e-07
1.40286e-06
5.59625e-07
1.76036e-06
8.89044e-06
1.76092e-06
8.89009e-06
5.59623e-07
2.90081e-07
1.40252e-06
3.07829e-07
5.59779e-07
2.9008e-07
1.40176e-06
1.76035e-06
8.89111e-06
1.76092e-06
8.89077e-06
5.59778e-07
3.07806e-07
1.40181e-06
2.90075e-07
1.40259e-06
2.90077e-07
5.59619e-07
1.76092e-06
8.89032e-06
8.89052e-06
1.76037e-06
5.59785e-07
3.07827e-07
2.90076e-07
1.40176e-06
2.90077e-07
1.40252e-06
5.59625e-07
1.76092e-06
8.89085e-06
8.89115e-06
1.76037e-06
3.03256e-06
3.03165e-06
3.41057e-07
3.032e-06
3.03117e-06
2.23102e-05
2.23102e-05
2.23106e-05
2.23106e-05
3.41322e-07
3.03196e-06
3.03114e-06
3.03258e-06
3.03167e-06
2.23107e-05
2.23105e-05
5.59613e-07
2.90081e-07
1.40268e-06
3.0781e-07
5.59771e-07
2.9008e-07
1.40192e-06
1.76019e-06
8.89126e-06
1.7607e-06
8.89092e-06
1.7602e-06
8.89184e-06
1.76071e-06
8.89151e-06
5.59774e-07
3.07812e-07
2.90079e-07
1.40176e-06
2.9008e-07
1.40251e-06
5.59614e-07
5.59777e-07
3.07808e-07
2.90075e-07
1.40192e-06
2.90077e-07
1.40268e-06
5.59614e-07
1.7607e-06
8.89101e-06
8.8913e-06
1.7602e-06
1.76071e-06
8.8916e-06
8.89189e-06
1.76021e-06
2.23103e-05
2.23103e-05
2.23109e-05
2.23109e-05
3.41321e-07
3.03117e-06
3.03196e-06
3.03171e-06
3.03249e-06
2.23109e-05
2.23107e-05
2.23115e-05
2.23113e-05
2.231e-05
2.23101e-05
2.23115e-05
2.23117e-05
3.03154e-06
3.03237e-06
3.41052e-07
3.03108e-06
3.03192e-06
2.23096e-05
2.23102e-05
2.23113e-05
2.23118e-05
3.41318e-07
3.03118e-06
3.03204e-06
3.03162e-06
3.03247e-06
1.76038e-06
8.89135e-06
1.76093e-06
8.89108e-06
5.59619e-07
1.40245e-06
2.90077e-07
3.07831e-07
5.59782e-07
1.40173e-06
2.90076e-07
5.59624e-07
1.40267e-06
2.90078e-07
3.07831e-07
5.59789e-07
1.40199e-06
2.90077e-07
1.76097e-06
8.89055e-06
8.89067e-06
1.76053e-06
1.76099e-06
8.89123e-06
8.89152e-06
1.76055e-06
5.59784e-07
3.07829e-07
1.40181e-06
2.90072e-07
1.40252e-06
2.90074e-07
5.59624e-07
5.59789e-07
3.0783e-07
1.40211e-06
2.90073e-07
1.40285e-06
2.90075e-07
5.59627e-07
3.03234e-06
3.03169e-06
3.41047e-07
3.03201e-06
3.0312e-06
2.23087e-05
2.23083e-05
2.23093e-05
2.23103e-05
3.41311e-07
3.03217e-06
3.03128e-06
3.03265e-06
3.03183e-06
2.23078e-05
2.23085e-05
5.59626e-07
1.40286e-06
2.90077e-07
3.07812e-07
5.59787e-07
1.40211e-06
2.90077e-07
1.76022e-06
8.89134e-06
1.76071e-06
8.89117e-06
5.59623e-07
2.9008e-07
1.40287e-06
3.07838e-07
5.59785e-07
2.9008e-07
1.40211e-06
1.76079e-06
8.89171e-06
8.89183e-06
1.76042e-06
5.59789e-07
3.0781e-07
1.40219e-06
2.90073e-07
1.40293e-06
2.90074e-07
5.59634e-07
1.76077e-06
8.89154e-06
8.89165e-06
1.7604e-06
5.59787e-07
3.07837e-07
2.90076e-07
1.4022e-06
2.90078e-07
1.40294e-06
5.5963e-07
1.76038e-06
8.89081e-06
1.76093e-06
8.89069e-06
5.59623e-07
2.90077e-07
1.40253e-06
3.07828e-07
5.59784e-07
2.90076e-07
1.40181e-06
1.76037e-06
8.89128e-06
1.76092e-06
8.89114e-06
5.59786e-07
3.07806e-07
1.40196e-06
2.90072e-07
1.40272e-06
2.90074e-07
5.59627e-07
1.76099e-06
8.89097e-06
8.89115e-06
1.76056e-06
5.59787e-07
3.07828e-07
2.90073e-07
1.40189e-06
2.90074e-07
1.4026e-06
5.5963e-07
1.76098e-06
8.89152e-06
8.8916e-06
1.76055e-06
3.03255e-06
3.03164e-06
3.41061e-07
3.03201e-06
3.0312e-06
2.23111e-05
2.23111e-05
2.23107e-05
2.23115e-05
3.41325e-07
3.03213e-06
3.03131e-06
3.03265e-06
3.03175e-06
2.23107e-05
2.23114e-05
5.59613e-07
2.90075e-07
1.40269e-06
3.07809e-07
5.59775e-07
2.90074e-07
1.40197e-06
1.76021e-06
8.89143e-06
1.7607e-06
8.8913e-06
1.76022e-06
8.89202e-06
1.76071e-06
8.89188e-06
5.59781e-07
3.07814e-07
2.90074e-07
1.40189e-06
2.90075e-07
1.40259e-06
5.59623e-07
5.59778e-07
3.07808e-07
2.90072e-07
1.40205e-06
2.90073e-07
1.40276e-06
5.59621e-07
1.76077e-06
8.89167e-06
8.89175e-06
1.76039e-06
1.76077e-06
8.89225e-06
8.89234e-06
1.7604e-06
2.23113e-05
2.23113e-05
2.23119e-05
2.23119e-05
3.41323e-07
3.03133e-06
3.03212e-06
3.03178e-06
3.03256e-06
2.23109e-05
2.23115e-05
2.23115e-05
2.23121e-05
2.23096e-05
2.23094e-05
2.23112e-05
2.23106e-05
3.03172e-06
3.03256e-06
3.41028e-07
3.03118e-06
3.032e-06
2.23091e-05
2.23095e-05
2.23103e-05
2.23106e-05
3.41281e-07
3.03102e-06
3.03183e-06
3.03168e-06