/*--------------------------------*- C++ -*----------------------------------*\
| =========                 |                                                 |
| \\      /  F ield         | OpenFOAM: The Open Source CFD Toolbox           |
|  \\    /   O peration     | Version:  2206                                  |
|   \\  /    A nd           | Website:  www.openfoam.com                      |
|    \\/     M anipulation  |                                                 |
\*---------------------------------------------------------------------------*/
FoamFile
{
    version     2.0;
    format      ascii;
    arch        "LSB;label=32;scalar=64";
    class       volScalarField;
    location    "10";
    object      epsilon;
}
// * * * * * * * * * * * * * * * * * * * * * * * * * * * * * * * * * * * * * //

dimensions      [0 2 -3 0 0 0 0];

internalField   nonuniform List<scalar> 
28687
(
4.1684e-07
4.23866e-07
4.2387e-07
4.34871e-07
4.16837e-07
4.23868e-07
4.23868e-07
4.3489e-07
4.1676e-07
4.23758e-07
4.23803e-07
4.34866e-07
4.1659e-07
4.2365e-07
4.23655e-07
4.34724e-07
4.16586e-07
4.23649e-07
4.23652e-07
4.34732e-07
4.16585e-07
4.23648e-07
4.23651e-07
4.34728e-07
4.16585e-07
4.23648e-07
4.23651e-07
4.34728e-07
4.16585e-07
4.23648e-07
4.23651e-07
4.34728e-07
4.16585e-07
4.23648e-07
4.23651e-07
4.34728e-07
4.16585e-07
4.23648e-07
4.23651e-07
4.34728e-07
4.16585e-07
4.23648e-07
4.23651e-07
4.34728e-07
4.16585e-07
4.23648e-07
4.23651e-07
4.34728e-07
4.16585e-07
4.23649e-07
4.23651e-07
4.34728e-07
4.16585e-07
4.23648e-07
4.23651e-07
4.34728e-07
4.16585e-07
4.23648e-07
4.23651e-07
4.34728e-07
4.16585e-07
4.23648e-07
4.23651e-07
4.34728e-07
4.16585e-07
4.23649e-07
4.23651e-07
4.34728e-07
4.16585e-07
4.23648e-07
4.23651e-07
4.34728e-07
4.23874e-07
4.34774e-07
4.23865e-07
4.3487e-07
4.34785e-07
4.23872e-07
4.23874e-07
4.23871e-07
4.23872e-07
4.34884e-07
4.34789e-07
4.23869e-07
4.23877e-07
4.23868e-07
4.23876e-07
4.23873e-07
4.23869e-07
4.23872e-07
4.34874e-07
4.34789e-07
4.23869e-07
4.23868e-07
4.23867e-07
4.34788e-07
4.3489e-07
4.34776e-07
4.23873e-07
4.23872e-07
4.2385e-07
4.23823e-07
4.34894e-07
4.34743e-07
4.23869e-07
4.23877e-07
4.23847e-07
4.23855e-07
4.23874e-07
4.23822e-07
4.23851e-07
4.34894e-07
4.3478e-07
4.23869e-07
4.23848e-07
4.23847e-07
4.34779e-07
4.34869e-07
4.3463e-07
4.23807e-07
4.23762e-07
4.23669e-07
4.23661e-07
4.34828e-07
4.34617e-07
4.23804e-07
4.23812e-07
4.23666e-07
4.23674e-07
4.23807e-07
4.23655e-07
4.2367e-07
4.34872e-07
4.34634e-07
4.23803e-07
4.23666e-07
4.23665e-07
4.34631e-07
4.34727e-07
4.34627e-07
4.23661e-07
4.23659e-07
4.23656e-07
4.23655e-07
4.34718e-07
4.34627e-07
4.23657e-07
4.23665e-07
4.23652e-07
4.23659e-07
4.23661e-07
4.2365e-07
4.23655e-07
4.3473e-07
4.34631e-07
4.23656e-07
4.23652e-07
4.23651e-07
4.3463e-07
4.34733e-07
4.34624e-07
4.23659e-07
4.23658e-07
4.23655e-07
4.23655e-07
4.34731e-07
4.34623e-07
4.23655e-07
4.23663e-07
4.23652e-07
4.2366e-07
4.23659e-07
4.23649e-07
4.23655e-07
4.34736e-07
4.34629e-07
4.23655e-07
4.23651e-07
4.23651e-07
4.34626e-07
4.3473e-07
4.34625e-07
4.23658e-07
4.23657e-07
4.23655e-07
4.23655e-07
4.34728e-07
4.34621e-07
4.23654e-07
4.23662e-07
4.23652e-07
4.2366e-07
4.23658e-07
4.23648e-07
4.23655e-07
4.34734e-07
4.34628e-07
4.23654e-07
4.23651e-07
4.23651e-07
4.34626e-07
4.3473e-07
4.34625e-07
4.23658e-07
4.23657e-07
4.23656e-07
4.23656e-07
4.34726e-07
4.34622e-07
4.23654e-07
4.23662e-07
4.23652e-07
4.2366e-07
4.23658e-07
4.23648e-07
4.23655e-07
4.34733e-07
4.34629e-07
4.23654e-07
4.23651e-07
4.23651e-07
4.34626e-07
4.34731e-07
4.34626e-07
4.23658e-07
4.23659e-07
4.23655e-07
4.23656e-07
4.34727e-07
4.34622e-07
4.23654e-07
4.23662e-07
4.23651e-07
4.2366e-07
4.23658e-07
4.23648e-07
4.23655e-07
4.34734e-07
4.34629e-07
4.23654e-07
4.23651e-07
4.23651e-07
4.34626e-07
4.3473e-07
4.34625e-07
4.23657e-07
4.23658e-07
4.23655e-07
4.23656e-07
4.34727e-07
4.34622e-07
4.23654e-07
4.23662e-07
4.23651e-07
4.2366e-07
4.23658e-07
4.23649e-07
4.23655e-07
4.34734e-07
4.34628e-07
4.23654e-07
4.23651e-07
4.23651e-07
4.34626e-07
4.3473e-07
4.34625e-07
4.23657e-07
4.23658e-07
4.23655e-07
4.23656e-07
4.34727e-07
4.34623e-07
4.23654e-07
4.23662e-07
4.23651e-07
4.23659e-07
4.23658e-07
4.23649e-07
4.23655e-07
4.34733e-07
4.34628e-07
4.23654e-07
4.23651e-07
4.23651e-07
4.34626e-07
4.34731e-07
4.34625e-07
4.23657e-07
4.23658e-07
4.23655e-07
4.23656e-07
4.34728e-07
4.34622e-07
4.23653e-07
4.23662e-07
4.23651e-07
4.2366e-07
4.23658e-07
4.23649e-07
4.23655e-07
4.34733e-07
4.34629e-07
4.23654e-07
4.23651e-07
4.23651e-07
4.34626e-07
4.34731e-07
4.34626e-07
4.23657e-07
4.23658e-07
4.23655e-07
4.23656e-07
4.34728e-07
4.34622e-07
4.23653e-07
4.23662e-07
4.23651e-07
4.2366e-07
4.23658e-07
4.23649e-07
4.23655e-07
4.34734e-07
4.34629e-07
4.23654e-07
4.23651e-07
4.23652e-07
4.34626e-07
4.34731e-07
4.34626e-07
4.23657e-07
4.23658e-07
4.23655e-07
4.23656e-07
4.34727e-07
4.34622e-07
4.23653e-07
4.23662e-07
4.23651e-07
4.2366e-07
4.23658e-07
4.23649e-07
4.23655e-07
4.34734e-07
4.34628e-07
4.23654e-07
4.23651e-07
4.23652e-07
4.34626e-07
4.34731e-07
4.34626e-07
4.23657e-07
4.23658e-07
4.23655e-07
4.23656e-07
4.34728e-07
4.34622e-07
4.23653e-07
4.23662e-07
4.23651e-07
4.2366e-07
4.23658e-07
4.23649e-07
4.23655e-07
4.34733e-07
4.34629e-07
4.23654e-07
4.23651e-07
4.23652e-07
4.34626e-07
4.34731e-07
4.34626e-07
4.23657e-07
4.23658e-07
4.23655e-07
4.23656e-07
4.34727e-07
4.34622e-07
4.23653e-07
4.23662e-07
4.23651e-07
4.2366e-07
4.23658e-07
4.23649e-07
4.23655e-07
4.34733e-07
4.34629e-07
4.23654e-07
4.23651e-07
4.23652e-07
4.34626e-07
4.34731e-07
4.34626e-07
4.23657e-07
4.23658e-07
4.23655e-07
4.23656e-07
4.34727e-07
4.34622e-07
4.23653e-07
4.23662e-07
4.23651e-07
4.2366e-07
4.23658e-07
4.23649e-07
4.23655e-07
4.34734e-07
4.34628e-07
4.23654e-07
4.23651e-07
4.23652e-07
4.34626e-07
4.34731e-07
4.34626e-07
4.23657e-07
4.23658e-07
4.23655e-07
4.23656e-07
4.34728e-07
4.34622e-07
4.23653e-07
4.23662e-07
4.23651e-07
4.2366e-07
4.23658e-07
4.23649e-07
4.23655e-07
4.34733e-07
4.34629e-07
4.23654e-07
4.23651e-07
4.23652e-07
4.34626e-07
4.34731e-07
4.23656e-07
4.23657e-07
4.34727e-07
4.23652e-07
4.23661e-07
4.23657e-07
4.34734e-07
4.23653e-07
1.34073e-06
6.84632e-06
1.3412e-06
6.84603e-06
2.36761e-05
2.36729e-05
1.34063e-06
6.84727e-06
1.34104e-06
6.84697e-06
4.16844e-07
4.1684e-07
4.1684e-07
4.16838e-07
4.16842e-07
4.16838e-07
4.16838e-07
5.66857e-07
1.11538e-06
4.18434e-07
4.23869e-07
5.67062e-07
1.11495e-06
4.18434e-07
2.36812e-05
2.36762e-05
5.66852e-07
4.18432e-07
1.11571e-06
4.2387e-07
5.67057e-07
4.18432e-07
1.11499e-06
2.22303e-06
2.22348e-06
4.34783e-07
2.22289e-06
2.22336e-06
1.34071e-06
6.84615e-06
1.341e-06
6.8458e-06
2.3671e-05
2.36711e-05
1.34058e-06
6.84712e-06
1.34084e-06
6.84676e-06
4.1684e-07
4.16837e-07
4.16837e-07
4.16812e-07
4.16807e-07
4.16812e-07
4.16811e-07
5.66866e-07
1.11531e-06
4.1843e-07
4.23865e-07
5.66949e-07
1.11502e-06
4.18428e-07
2.36741e-05
2.36725e-05
5.66859e-07
4.18428e-07
1.11528e-06
4.23867e-07
5.66943e-07
4.18427e-07
1.11494e-06
2.22326e-06
2.22372e-06
4.3479e-07
2.22294e-06
2.2234e-06
1.34174e-06
6.84953e-06
1.34162e-06
6.85252e-06
2.36936e-05
2.36939e-05
1.34162e-06
6.8505e-06
1.34147e-06
6.85344e-06
4.16747e-07
4.16762e-07
4.16761e-07
4.16603e-07
4.166e-07
4.16604e-07
4.16603e-07
5.66961e-07
1.11595e-06
4.18349e-07
4.2371e-07
5.67015e-07
1.1157e-06
4.18285e-07
2.36886e-05
2.36956e-05
5.66954e-07
4.18355e-07
1.11569e-06
4.23744e-07
5.67009e-07
4.1829e-07
1.11559e-06
2.22444e-06
2.22488e-06
4.34689e-07
2.22472e-06
2.22519e-06
1.34184e-06
6.85292e-06
1.34214e-06
6.85257e-06
2.36947e-05
2.36939e-05
1.34172e-06
6.8539e-06
1.34197e-06
6.85355e-06
4.16593e-07
4.16594e-07
4.16593e-07
4.16587e-07
4.16587e-07
4.16587e-07
4.16587e-07
5.66977e-07
1.1161e-06
4.18191e-07
4.23652e-07
5.67064e-07
1.11572e-06
4.18192e-07
2.36965e-05
2.36955e-05
5.66969e-07
4.18192e-07
1.11603e-06
4.23655e-07
5.67058e-07
4.18192e-07
1.11569e-06
2.22502e-06
2.22548e-06
4.34618e-07
2.22471e-06
2.22517e-06
1.34184e-06
6.85291e-06
1.34214e-06
6.85257e-06
2.36949e-05
2.36941e-05
1.34171e-06
6.85388e-06
1.34197e-06
6.85353e-06
4.1659e-07
4.16591e-07
4.16591e-07
4.16586e-07
4.16586e-07
4.16587e-07
4.16587e-07
5.66977e-07
1.11609e-06
4.18188e-07
4.23651e-07
5.6706e-07
1.11572e-06
4.18191e-07
2.36963e-05
2.36954e-05
5.66969e-07
4.18188e-07
1.11603e-06
4.23654e-07
5.67053e-07
4.18191e-07
1.11569e-06
2.22501e-06
2.22547e-06
4.34628e-07
2.22471e-06
2.22517e-06
1.34184e-06
6.8529e-06
1.34214e-06
6.85257e-06
2.36949e-05
2.3693e-05
1.34171e-06
6.85388e-06
1.34197e-06
6.85354e-06
4.16589e-07
4.1659e-07
4.16589e-07
4.16586e-07
4.16586e-07
4.16587e-07
4.16587e-07
5.66975e-07
1.11609e-06
4.18187e-07
4.23651e-07
5.6706e-07
1.11572e-06
4.1819e-07
2.36963e-05
2.36954e-05
5.66968e-07
4.18188e-07
1.11604e-06
4.23654e-07
5.67052e-07
4.18191e-07
1.11569e-06
2.22501e-06
2.22547e-06
4.34628e-07
2.22471e-06
2.22518e-06
1.34184e-06
6.85282e-06
1.34214e-06
6.85253e-06
2.36937e-05
2.36937e-05
1.34171e-06
6.85388e-06
1.34197e-06
6.85354e-06
4.16589e-07
4.1659e-07
4.1659e-07
4.16586e-07
4.16587e-07
4.16587e-07
4.16587e-07
5.66976e-07
1.11609e-06
4.18187e-07
4.23651e-07
5.67061e-07
1.11572e-06
4.1819e-07
2.36963e-05
2.36954e-05
5.66968e-07
4.18188e-07
1.11604e-06
4.23654e-07
5.67053e-07
4.18191e-07
1.11569e-06
2.22501e-06
2.22547e-06
4.34628e-07
2.22471e-06
2.22517e-06
1.34185e-06
6.85289e-06
1.34214e-06
6.85256e-06
2.36951e-05
2.36942e-05
1.34171e-06
6.85388e-06
1.34197e-06
6.85354e-06
4.16589e-07
4.1659e-07
4.16589e-07
4.16586e-07
4.16587e-07
4.16587e-07
4.16587e-07
5.66976e-07
1.11609e-06
4.18187e-07
4.23651e-07
5.6706e-07
1.11572e-06
4.1819e-07
2.36963e-05
2.36954e-05
5.66968e-07
4.18188e-07
1.11604e-06
4.23654e-07
5.67053e-07
4.18191e-07
1.11569e-06
2.22501e-06
2.22547e-06
4.34628e-07
2.22471e-06
2.22517e-06
1.34185e-06
6.85293e-06
1.34214e-06
6.85262e-06
2.36946e-05
2.36934e-05
1.34171e-06
6.85385e-06
1.34197e-06
6.85357e-06
4.16589e-07
4.1659e-07
4.16589e-07
4.16586e-07
4.16587e-07
4.16587e-07
4.16587e-07
5.66976e-07
1.11609e-06
4.18187e-07
4.23651e-07
5.6706e-07
1.11572e-06
4.1819e-07
2.36963e-05
2.36954e-05
5.66968e-07
4.18188e-07
1.11604e-06
4.23654e-07
5.67052e-07
4.18191e-07
1.11569e-06
2.22501e-06
2.22547e-06
4.34628e-07
2.22471e-06
2.22517e-06
1.34185e-06
6.8529e-06
1.34214e-06
6.85252e-06
2.36941e-05
2.36932e-05
1.34171e-06
6.85391e-06
1.34197e-06
6.8536e-06
4.16589e-07
4.1659e-07
4.16589e-07
4.16586e-07
4.16587e-07
4.16587e-07
4.16587e-07
5.66976e-07
1.11609e-06
4.18187e-07
4.23651e-07
5.67061e-07
1.11572e-06
4.1819e-07
2.36963e-05
2.36954e-05
5.66968e-07
4.18188e-07
1.11604e-06
4.23654e-07
5.67052e-07
4.18191e-07
1.11569e-06
2.22501e-06
2.22547e-06
4.34628e-07
2.22471e-06
2.22518e-06
1.34184e-06
6.85285e-06
1.34214e-06
6.85252e-06
2.36941e-05
2.36932e-05
1.34171e-06
6.85396e-06
1.34197e-06
6.85362e-06
4.16589e-07
4.1659e-07
4.16589e-07
4.16586e-07
4.16587e-07
4.16587e-07
4.16587e-07
5.66976e-07
1.11609e-06
4.18187e-07
4.23651e-07
5.67061e-07
1.11572e-06
4.1819e-07
2.36963e-05
2.36954e-05
5.66968e-07
4.18188e-07
1.11604e-06
4.23654e-07
5.67053e-07
4.18191e-07
1.11569e-06
2.22501e-06
2.22547e-06
4.34628e-07
2.22471e-06
2.22518e-06
1.34184e-06
6.85286e-06
1.34214e-06
6.85251e-06
2.36941e-05
2.36933e-05
1.34171e-06
6.85397e-06
1.34197e-06
6.85364e-06
4.16589e-07
4.1659e-07
4.1659e-07
4.16586e-07
4.16587e-07
4.16587e-07
4.16587e-07
5.66976e-07
1.11609e-06
4.18187e-07
4.23651e-07
5.67061e-07
1.11572e-06
4.1819e-07
2.36963e-05
2.36954e-05
5.66968e-07
4.18188e-07
1.11604e-06
4.23654e-07
5.67052e-07
4.18191e-07
1.11569e-06
2.22502e-06
2.22547e-06
4.34628e-07
2.22471e-06
2.22518e-06
1.34185e-06
6.85285e-06
1.34214e-06
6.85251e-06
2.36941e-05
2.36933e-05
1.34171e-06
6.85398e-06
1.34197e-06
6.85364e-06
4.1659e-07
4.1659e-07
4.1659e-07
4.16586e-07
4.16587e-07
4.16587e-07
4.16587e-07
5.66976e-07
1.11609e-06
4.18187e-07
4.23651e-07
5.6706e-07
1.11572e-06
4.1819e-07
2.36963e-05
2.36954e-05
5.66968e-07
4.18188e-07
1.11604e-06
4.23654e-07
5.67053e-07
4.18191e-07
1.11569e-06
2.22501e-06
2.22547e-06
4.34628e-07
2.22471e-06
2.22518e-06
1.34184e-06
6.85285e-06
1.34214e-06
6.85251e-06
2.36941e-05
2.36933e-05
1.34171e-06
6.85398e-06
1.34197e-06
6.85364e-06
4.16589e-07
4.1659e-07
4.1659e-07
4.16586e-07
4.16587e-07
4.16587e-07
4.16587e-07
5.66976e-07
1.11609e-06
4.18187e-07
4.23651e-07
5.67061e-07
1.11572e-06
4.1819e-07
2.36963e-05
2.36954e-05
5.66968e-07
4.18188e-07
1.11604e-06
4.23654e-07
5.67053e-07
4.18191e-07
1.11569e-06
2.22501e-06
2.22547e-06
4.34628e-07
2.22471e-06
2.22518e-06
1.34184e-06
6.85285e-06
1.34214e-06
6.85251e-06
2.36941e-05
2.36933e-05
1.34171e-06
6.85398e-06
1.34197e-06
6.85364e-06
4.16589e-07
4.1659e-07
4.1659e-07
4.16586e-07
4.16587e-07
4.16587e-07
4.16587e-07
5.66976e-07
1.11609e-06
4.18187e-07
4.23651e-07
5.67061e-07
1.11572e-06
4.1819e-07
2.36963e-05
2.36954e-05
5.66969e-07
4.18188e-07
1.11604e-06
4.23654e-07
5.67054e-07
4.18191e-07
1.11569e-06
2.22501e-06
2.22547e-06
4.34628e-07
2.22471e-06
2.22518e-06
1.34185e-06
6.85285e-06
1.34214e-06
6.85251e-06
2.36941e-05
2.36933e-05
1.34171e-06
6.85398e-06
1.34197e-06
6.85364e-06
4.16589e-07
4.1659e-07
4.1659e-07
4.16586e-07
4.16587e-07
4.16587e-07
4.16587e-07
5.66976e-07
1.11609e-06
4.18187e-07
4.23651e-07
5.67061e-07
1.11572e-06
4.1819e-07
2.36963e-05
2.36954e-05
5.66968e-07
4.18188e-07
1.11604e-06
4.23654e-07
5.67054e-07
4.18191e-07
1.11569e-06
2.22501e-06
2.22547e-06
4.34628e-07
2.22471e-06
2.22518e-06
1.34185e-06
6.85285e-06
1.34214e-06
6.85251e-06
2.36941e-05
2.36932e-05
1.34171e-06
6.85398e-06
1.34197e-06
6.85364e-06
4.1659e-07
4.1659e-07
4.1659e-07
4.16586e-07
4.16587e-07
4.16587e-07
4.16587e-07
5.66975e-07
1.11609e-06
4.18187e-07
4.23651e-07
5.67061e-07
1.11572e-06
4.1819e-07
2.36963e-05
2.36954e-05
5.66969e-07
4.18188e-07
1.11604e-06
4.23654e-07
5.67054e-07
4.18191e-07
1.11569e-06
2.22501e-06
2.22547e-06
4.34628e-07
2.22471e-06
2.22518e-06
1.34193e-06
6.85285e-06
1.34214e-06
6.85252e-06
2.36941e-05
2.36933e-05
1.34183e-06
6.85398e-06
1.34197e-06
6.85366e-06
4.16588e-07
4.16589e-07
4.16588e-07
5.66975e-07
1.11609e-06
4.18187e-07
4.2365e-07
5.67061e-07
1.11572e-06
4.18191e-07
2.36963e-05
2.36955e-05
5.67003e-07
4.18188e-07
1.11604e-06
4.23655e-07
5.67054e-07
4.18192e-07
1.11587e-06
2.22501e-06
2.22547e-06
4.34628e-07
2.22471e-06
2.2253e-06
6.84637e-06
1.1151e-06
2.36764e-05
2.22305e-06
2.22276e-06
2.36732e-05
1.11506e-06
6.84622e-06
2.36776e-05
2.36729e-05
2.36808e-05
2.36762e-05
2.22292e-06
2.2234e-06
4.3478e-07
2.22279e-06
2.22328e-06
2.36704e-05
2.36725e-05
2.36738e-05
2.36759e-05
4.34885e-07
2.22285e-06
2.22334e-06
2.22299e-06
2.22347e-06
1.34072e-06
6.84641e-06
1.34119e-06
6.84618e-06
5.66864e-07
1.11567e-06
4.18431e-07
4.23872e-07
5.67068e-07
1.11493e-06
4.18431e-07
5.6686e-07
1.11538e-06
4.18433e-07
4.23874e-07
5.67067e-07
1.11499e-06
4.18433e-07
1.34096e-06
6.84591e-06
6.84604e-06
1.34071e-06
1.34096e-06
6.84608e-06
6.84618e-06
1.34071e-06
5.66943e-07
4.23871e-07
1.11489e-06
4.18429e-07
1.11523e-06
4.1843e-07
5.66863e-07
5.6694e-07
4.23872e-07
1.11497e-06
4.18431e-07
1.1153e-06
4.18431e-07
5.66861e-07
2.22339e-06
2.22318e-06
4.34786e-07
2.22328e-06
2.223e-06
2.36731e-05
2.36697e-05
2.36708e-05
2.36728e-05
4.34891e-07
2.2233e-06
2.22309e-06
2.22349e-06
2.22334e-06
2.3668e-05
2.36697e-05
5.66855e-07
1.11591e-06
4.18431e-07
4.23869e-07
5.67059e-07
1.11515e-06
4.18431e-07
1.34064e-06
6.84767e-06
1.34105e-06
6.8473e-06
5.66861e-07
4.18432e-07
1.116e-06
4.23877e-07
5.67065e-07
4.18431e-07
1.11523e-06
1.34081e-06
6.84683e-06
6.84702e-06
1.34059e-06
5.66934e-07
4.23868e-07
1.11511e-06
4.18429e-07
1.11547e-06
4.18429e-07
5.66858e-07
1.34083e-06
6.84715e-06
6.84731e-06
1.34062e-06
5.66941e-07
4.23876e-07
4.1843e-07
1.11519e-06
4.1843e-07
1.11554e-06
5.66866e-07
1.34074e-06
6.8463e-06
1.3412e-06
6.84602e-06
5.6686e-07
4.18431e-07
1.11572e-06
4.23873e-07
5.67064e-07
4.18431e-07
1.11498e-06
1.34074e-06
6.84725e-06
1.34121e-06
6.84688e-06
5.66937e-07
4.23869e-07
1.11494e-06
4.18431e-07
1.11528e-06
4.18432e-07
5.66862e-07
1.34097e-06
6.8459e-06
6.84604e-06
1.34073e-06
5.66939e-07
4.23872e-07
4.18429e-07
1.11494e-06
4.18429e-07
1.11528e-06
5.66866e-07
1.34097e-06
6.84674e-06
6.84688e-06
1.34073e-06
2.22388e-06
2.22301e-06
4.34785e-07
2.22365e-06
2.22288e-06
2.36797e-05
2.36749e-05
2.36737e-05
2.36762e-05
4.34889e-07
2.22377e-06
2.22294e-06
2.22398e-06
2.22308e-06
2.36725e-05
2.36746e-05
5.66848e-07
4.18431e-07
1.11582e-06
4.23869e-07
5.67054e-07
4.1843e-07
1.11508e-06
1.34063e-06
6.84737e-06
1.34103e-06
6.847e-06
1.34062e-06
6.84758e-06
1.34103e-06
6.84721e-06
5.66931e-07
4.23868e-07
4.18429e-07
1.11494e-06
4.18429e-07
1.11527e-06
5.66855e-07
5.66928e-07
4.23867e-07
4.18429e-07
1.11504e-06
4.18429e-07
1.11537e-06
5.66852e-07
1.34081e-06
6.84685e-06
6.847e-06
1.3406e-06
1.34081e-06
6.84707e-06
6.84722e-06
1.3406e-06
2.36799e-05
2.36752e-05
2.36813e-05
2.36766e-05
4.34889e-07
2.22296e-06
2.22343e-06
2.2231e-06
2.22356e-06
2.36728e-05
2.36749e-05
2.36741e-05
2.36762e-05
2.36704e-05
2.36694e-05
2.36738e-05
2.36728e-05
2.22305e-06
2.22352e-06
4.34787e-07
2.22284e-06
2.22332e-06
2.36754e-05
2.36695e-05
2.36791e-05
2.36729e-05
4.3489e-07
2.22346e-06
2.22398e-06
2.22304e-06
2.22352e-06
1.34071e-06
6.84609e-06
1.34095e-06
6.84624e-06
5.66868e-07
1.1152e-06
4.18429e-07
4.2387e-07
5.66946e-07
1.11489e-06
4.18426e-07
5.66866e-07
1.11528e-06
4.1843e-07
4.23869e-07
5.66945e-07
1.11504e-06
4.18427e-07
1.34097e-06
6.84715e-06
6.84584e-06
1.34107e-06
1.34097e-06
6.85077e-06
6.84645e-06
1.34106e-06
5.66956e-07
4.23864e-07
1.11515e-06
4.18405e-07
1.11523e-06
4.1842e-07
5.6691e-07
5.66954e-07
4.23857e-07
1.11548e-06
4.18403e-07
1.11545e-06
4.18421e-07
5.66908e-07
2.22345e-06
2.2234e-06
4.34788e-07
2.22339e-06
2.22311e-06
2.36681e-05
2.36684e-05
2.36896e-05
2.36728e-05
4.34889e-07
2.22476e-06
2.22441e-06
2.22382e-06
2.22373e-06
2.3686e-05
2.36702e-05
5.66861e-07
1.11545e-06
4.18428e-07
4.23867e-07
5.6694e-07
1.11512e-06
4.18426e-07
1.34061e-06
6.84719e-06
1.34081e-06
6.84719e-06
5.66869e-07
4.18429e-07
1.11553e-06
4.23875e-07
5.66949e-07
4.18427e-07
1.1152e-06
1.3408e-06
6.84811e-06
6.84685e-06
1.34098e-06
5.66947e-07
4.23861e-07
1.11539e-06
4.18405e-07
1.11548e-06
4.1842e-07
5.66905e-07
1.34083e-06
6.8483e-06
6.84726e-06
1.34097e-06
5.66955e-07
4.23869e-07
4.18406e-07
1.11546e-06
4.18421e-07
1.11556e-06
5.6691e-07
1.34073e-06
6.84594e-06
1.34097e-06
6.84619e-06
5.66869e-07
4.18428e-07
1.11525e-06
4.23871e-07
5.66948e-07
4.18426e-07
1.11495e-06
1.34073e-06
6.84674e-06
1.34097e-06
6.84678e-06
5.6695e-07
4.23853e-07
1.11547e-06
4.18404e-07
1.11544e-06
4.18421e-07
5.66904e-07
1.34099e-06
6.8506e-06
6.84656e-06
1.34107e-06
5.66953e-07
4.23865e-07
4.18405e-07
1.1152e-06
4.1842e-07
1.11529e-06
5.66908e-07
1.34099e-06
6.8478e-06
6.84681e-06
1.34107e-06
2.22408e-06
2.22314e-06
4.34791e-07
2.22377e-06
2.22292e-06
2.36725e-05
2.36715e-05
2.36796e-05
2.3673e-05
4.34894e-07
2.22439e-06
2.22356e-06
2.22408e-06
2.22313e-06
2.36778e-05
2.36716e-05
5.66855e-07
4.18428e-07
1.11535e-06
4.23867e-07
5.66936e-07
4.18426e-07
1.11504e-06
1.34059e-06
6.84686e-06
1.34079e-06
6.84689e-06
1.34059e-06
6.84707e-06
1.34079e-06
6.84712e-06
5.66944e-07
4.23862e-07
4.18405e-07
1.1152e-06
4.18421e-07
1.11528e-06
5.66897e-07
5.66941e-07
4.23861e-07
4.18405e-07
1.1153e-06
4.1842e-07
1.11538e-06
5.66894e-07
1.34081e-06
6.84795e-06
6.84691e-06
1.34096e-06
1.34081e-06
6.84815e-06
6.84714e-06
1.34095e-06
2.36728e-05
2.36717e-05
2.36741e-05
2.36731e-05
4.34893e-07
2.2236e-06
2.22404e-06
2.22316e-06
2.22361e-06
2.36781e-05
2.36719e-05
2.36791e-05
2.36732e-05
2.36838e-05
2.36921e-05
2.36874e-05
2.36955e-05
2.22424e-06
2.22474e-06
4.34689e-07
2.22464e-06
2.22514e-06
2.36923e-05
2.36926e-05
2.36956e-05
2.36961e-05
4.34777e-07
2.22464e-06
2.22513e-06
2.22485e-06
2.22533e-06
1.34174e-06
6.85263e-06
1.34155e-06
6.8532e-06
5.66965e-07
1.11562e-06
4.18357e-07
4.23746e-07
5.67016e-07
1.11554e-06
4.18289e-07
5.66964e-07
1.11591e-06
4.1835e-07
4.23714e-07
5.67014e-07
1.11571e-06
4.18284e-07
1.34203e-06
6.85267e-06
6.85274e-06
1.34184e-06
1.34203e-06
6.85317e-06
6.8532e-06
1.34183e-06
5.67055e-07
4.23698e-07
1.11562e-06
4.18204e-07
1.1159e-06
4.18235e-07
5.66982e-07
5.67054e-07
4.23678e-07
1.11574e-06
4.18202e-07
1.11604e-06
4.18232e-07
5.66981e-07
2.22532e-06
2.2252e-06
4.34657e-07
2.22514e-06
2.22501e-06
2.36908e-05
2.36917e-05
2.3694e-05
2.3694e-05
4.34748e-07
2.22515e-06
2.2249e-06
2.22535e-06
2.22531e-06
2.36912e-05
2.36918e-05
5.66963e-07
1.11587e-06
4.18357e-07
4.23743e-07
5.67011e-07
1.11578e-06
4.1829e-07
1.34164e-06
6.85045e-06
1.34141e-06
6.85385e-06
5.66968e-07
4.18358e-07
1.11594e-06
4.23751e-07
5.67016e-07
4.1829e-07
1.11586e-06
1.34187e-06
6.85359e-06
6.85376e-06
1.34172e-06
5.6705e-07
4.23695e-07
1.11585e-06
4.18204e-07
1.11615e-06
4.18236e-07
5.66979e-07
1.34189e-06
6.85406e-06
6.8543e-06
1.34174e-06
5.67057e-07
4.23703e-07
4.18205e-07
1.11594e-06
4.18236e-07
1.11624e-06
5.66985e-07
1.34176e-06
6.85252e-06
1.34156e-06
6.85308e-06
5.66964e-07
4.18356e-07
1.11566e-06
4.23747e-07
5.67012e-07
4.18289e-07
1.1156e-06
1.34176e-06
6.84993e-06
1.34156e-06
6.85341e-06
5.6705e-07
4.23674e-07
1.11572e-06
4.18202e-07
1.11605e-06
4.18232e-07
5.66979e-07
1.34205e-06
6.85297e-06
6.8531e-06
1.34185e-06
5.67053e-07
4.23699e-07
4.18204e-07
1.11568e-06
4.18235e-07
1.11595e-06
5.66983e-07
1.34205e-06
6.85364e-06
6.8538e-06
1.34185e-06
2.22529e-06
2.22434e-06
4.34692e-07
2.22563e-06
2.22474e-06
2.36861e-05
2.36943e-05
2.36957e-05
2.36962e-05
4.3478e-07
2.22559e-06
2.22473e-06
2.22595e-06
2.22494e-06
2.36944e-05
2.36948e-05
5.66952e-07
4.18357e-07
1.11576e-06
4.23743e-07
5.67001e-07
4.1829e-07
1.11569e-06
1.34163e-06
6.85014e-06
1.34139e-06
6.85356e-06
1.34162e-06
6.85032e-06
1.34139e-06
6.85376e-06
5.67044e-07
4.23695e-07
4.18204e-07
1.11568e-06
4.18236e-07
1.11595e-06
5.66972e-07
5.67042e-07
4.23694e-07
4.18204e-07
1.11578e-06
4.18236e-07
1.11605e-06
5.6697e-07
1.34188e-06
6.85376e-06
6.85392e-06
1.34172e-06
1.34188e-06
6.85397e-06
6.85414e-06
1.34172e-06
2.36864e-05
2.36946e-05
2.36875e-05
2.36959e-05
4.34777e-07
2.22473e-06
2.2252e-06
2.22494e-06
2.2254e-06
2.36946e-05
2.3695e-05
2.3696e-05
2.36964e-05
2.36923e-05
2.36921e-05
2.36957e-05
2.36955e-05
2.22483e-06
2.2253e-06
4.34617e-07
2.22462e-06
2.22511e-06
2.36921e-05
2.36921e-05
2.36955e-05
2.36955e-05
4.34723e-07
2.22462e-06
2.22511e-06
2.22481e-06
2.22529e-06
1.34183e-06
6.85317e-06
1.34207e-06
6.85313e-06
5.66979e-07
1.11595e-06
4.18194e-07
4.23658e-07
5.67065e-07
1.11563e-06
4.18192e-07
5.66976e-07
1.11606e-06
4.18194e-07
4.23658e-07
5.67065e-07
1.11574e-06
4.18191e-07
1.34208e-06
6.85264e-06
6.85258e-06
1.34184e-06
1.34207e-06
6.85313e-06
6.85314e-06
1.34183e-06
5.67059e-07
4.23656e-07
1.11563e-06
4.18188e-07
1.11595e-06
4.18188e-07
5.66975e-07
5.67057e-07
4.23655e-07
1.11574e-06
4.18188e-07
1.11606e-06
4.18188e-07
5.66973e-07
2.22536e-06
2.22521e-06
4.34618e-07
2.22513e-06
2.2249e-06
2.36915e-05
2.36912e-05
2.36942e-05
2.3694e-05
4.34725e-07
2.2251e-06
2.22489e-06
2.22531e-06
2.22521e-06
2.36911e-05
2.36914e-05
5.66972e-07
1.1162e-06
4.18194e-07
4.23655e-07
5.6706e-07
1.11587e-06
4.18192e-07
1.34174e-06
6.85408e-06
1.34194e-06
6.85399e-06
5.66979e-07
4.18195e-07
1.11629e-06
4.23662e-07
5.67067e-07
4.18192e-07
1.11595e-06
1.34191e-06
6.85357e-06
6.85361e-06
1.34171e-06
5.67051e-07
4.23652e-07
1.11587e-06
4.18188e-07
1.11621e-06
4.18188e-07
5.66969e-07
1.34193e-06
6.85396e-06
6.85402e-06
1.34173e-06
5.67058e-07
4.23659e-07
4.18189e-07
1.11595e-06
4.18189e-07
1.11629e-06
5.66976e-07
1.34185e-06
6.85301e-06
1.34209e-06
6.85294e-06
5.6698e-07
4.18194e-07
1.116e-06
4.23658e-07
5.67064e-07
4.18191e-07
1.11569e-06
1.34185e-06
6.85364e-06
1.34209e-06
6.85358e-06
5.67056e-07
4.23652e-07
1.11572e-06
4.18189e-07
1.11606e-06
4.18191e-07
5.66974e-07
1.34209e-06
6.85292e-06
6.85298e-06
1.34185e-06
5.67059e-07
4.23655e-07
4.18188e-07
1.11569e-06
4.18188e-07
1.11601e-06
5.66977e-07
1.34209e-06
6.85356e-06
6.85359e-06
1.34185e-06
2.22588e-06
2.22491e-06
4.34621e-07
2.22557e-06
2.22471e-06
2.36944e-05
2.36942e-05
2.36955e-05
2.36957e-05
4.34727e-07
2.22556e-06
2.22471e-06
2.22586e-06
2.2249e-06
2.36942e-05
2.36942e-05
5.66966e-07
4.18194e-07
1.1161e-06
4.23654e-07
5.67053e-07
4.18191e-07
1.11578e-06
1.34172e-06
6.85376e-06
1.34192e-06
6.8537e-06
1.34172e-06
6.85398e-06
1.34192e-06
6.85391e-06
5.67049e-07
4.23654e-07
4.18189e-07
1.11569e-06
4.18191e-07
1.116e-06
5.66966e-07
5.67046e-07
4.23651e-07
4.18188e-07
1.11578e-06
4.18188e-07
1.1161e-06
5.66962e-07
1.34192e-06
6.85368e-06
6.8537e-06
1.34171e-06
1.34191e-06
6.85389e-06
6.85391e-06
1.34171e-06
2.36946e-05
2.36945e-05
2.3696e-05
2.36958e-05
4.34725e-07
2.22472e-06
2.22518e-06
2.22491e-06
2.22536e-06
2.36944e-05
2.36945e-05
2.36958e-05
2.36958e-05
2.36921e-05
2.3692e-05
2.36955e-05
2.36955e-05
2.2248e-06
2.22529e-06
4.34626e-07
2.22462e-06
2.22511e-06
2.36921e-05
2.36921e-05
2.36955e-05
2.36955e-05
4.34729e-07
2.22461e-06
2.22511e-06
2.2248e-06
2.22529e-06
1.34184e-06
6.85313e-06
1.34207e-06
6.85313e-06
5.66982e-07
1.11595e-06
4.18192e-07
4.23659e-07
5.67059e-07
1.11563e-06
4.18192e-07
5.6698e-07
1.11606e-06
4.18192e-07
4.23658e-07
5.67059e-07
1.11573e-06
4.18192e-07
1.34208e-06
6.85263e-06
6.85257e-06
1.34184e-06
1.34207e-06
6.85312e-06
6.85313e-06
1.34183e-06
5.67064e-07
4.23656e-07
1.11563e-06
4.18188e-07
1.11595e-06
4.18189e-07
5.66975e-07
5.67062e-07
4.23656e-07
1.11573e-06
4.18188e-07
1.11605e-06
4.18188e-07
5.66974e-07
2.22529e-06
2.22521e-06
4.34621e-07
2.22508e-06
2.2249e-06
2.36914e-05
2.36912e-05
2.36943e-05
2.36941e-05
4.34725e-07
2.22507e-06
2.2249e-06
2.22526e-06
2.22522e-06
2.36912e-05
2.36914e-05
5.66975e-07
1.11621e-06
4.18192e-07
4.23655e-07
5.67052e-07
1.11587e-06
4.18192e-07
1.34173e-06
6.854e-06
1.34193e-06
6.85397e-06
5.66982e-07
4.18193e-07
1.11629e-06
4.23663e-07
5.6706e-07
4.18193e-07
1.11595e-06
1.34191e-06
6.85356e-06
6.8536e-06
1.34171e-06
5.67056e-07
4.23652e-07
1.11587e-06
4.18188e-07
1.11621e-06
4.18189e-07
5.6697e-07
1.34193e-06
6.85397e-06
6.85401e-06
1.34173e-06
5.67063e-07
4.2366e-07
4.18189e-07
1.11595e-06
4.18189e-07
1.11629e-06
5.66978e-07
1.34185e-06
6.85296e-06
1.34208e-06
6.85293e-06
5.66981e-07
4.18192e-07
1.11601e-06
4.23658e-07
5.67059e-07
4.18192e-07
1.11569e-06
1.34185e-06
6.85356e-06
1.34209e-06
6.85356e-06
5.67058e-07
4.23651e-07
1.11572e-06
4.18187e-07
1.11606e-06
4.1819e-07
5.66976e-07
1.34209e-06
6.85293e-06
6.85297e-06
1.34185e-06
5.67062e-07
4.23656e-07
4.18188e-07
1.11569e-06
4.18188e-07
1.11601e-06
5.66979e-07
1.34209e-06
6.85356e-06
6.85356e-06
1.34185e-06
2.22586e-06
2.2249e-06
4.3463e-07
2.22557e-06
2.22471e-06
2.36942e-05
2.36942e-05
2.36955e-05
2.36957e-05
4.34732e-07
2.22556e-06
2.22471e-06
2.22586e-06
2.2249e-06
2.36942e-05
2.36942e-05
5.66967e-07
4.18192e-07
1.1161e-06
4.23654e-07
5.67046e-07
4.18192e-07
1.11578e-06
1.34172e-06
6.85368e-06
1.34191e-06
6.85368e-06
1.34171e-06
6.85389e-06
1.34191e-06
6.85389e-06
5.67051e-07
4.23653e-07
4.18188e-07
1.11569e-06
4.1819e-07
1.116e-06
5.66967e-07
5.67049e-07
4.23651e-07
4.18188e-07
1.11579e-06
4.18188e-07
1.1161e-06
5.66963e-07
1.34191e-06
6.85368e-06
6.85368e-06
1.34171e-06
1.34191e-06
6.85389e-06
6.85389e-06
1.34171e-06
2.36945e-05
2.36944e-05
2.36958e-05
2.36958e-05
4.3473e-07
2.22472e-06
2.22518e-06
2.22491e-06
2.22537e-06
2.36945e-05
2.36944e-05
2.36958e-05
2.36958e-05
2.36921e-05
2.36921e-05
2.36955e-05
2.36955e-05
2.22479e-06
2.22529e-06
4.34626e-07
2.22459e-06
2.22511e-06
2.36921e-05
2.36921e-05
2.36955e-05
2.36955e-05
4.34729e-07
2.22459e-06
2.22511e-06
2.22478e-06
2.22528e-06
1.34184e-06
6.85313e-06
1.34207e-06
6.85299e-06
5.66981e-07
1.11595e-06
4.18191e-07
4.23658e-07
5.67057e-07
1.11563e-06
4.18191e-07
5.66978e-07
1.11605e-06
4.18191e-07
4.23657e-07
5.67058e-07
1.11576e-06
4.18191e-07
1.34208e-06
6.85256e-06
6.85259e-06
1.34184e-06
1.34207e-06
6.85293e-06
6.85302e-06
1.34183e-06
5.67064e-07
4.23656e-07
1.11563e-06
4.18188e-07
1.11595e-06
4.18189e-07
5.66977e-07
5.67061e-07
4.23655e-07
1.1158e-06
4.18188e-07
1.11611e-06
4.18189e-07
5.66976e-07
2.22527e-06
2.22523e-06
4.34622e-07
2.22517e-06
2.22492e-06
2.36914e-05
2.36912e-05
2.36928e-05
2.36932e-05
4.34725e-07
2.22532e-06
2.2249e-06
2.2255e-06
2.22524e-06
2.36912e-05
2.36915e-05
5.66972e-07
1.11621e-06
4.18191e-07
4.23654e-07
5.67051e-07
1.11587e-06
4.18191e-07
1.34173e-06
6.85401e-06
1.34193e-06
6.85397e-06
5.66979e-07
4.18192e-07
1.11629e-06
4.23662e-07
5.67059e-07
4.18192e-07
1.11595e-06
1.34191e-06
6.85356e-06
6.8536e-06
1.34171e-06
5.67054e-07
4.23652e-07
1.11587e-06
4.18188e-07
1.11621e-06
4.18189e-07
5.66972e-07
1.34193e-06
6.85396e-06
6.85401e-06
1.34173e-06
5.67061e-07
4.2366e-07
4.18189e-07
1.11595e-06
4.1819e-07
1.11629e-06
5.66979e-07
1.34185e-06
6.85297e-06
1.34209e-06
6.85293e-06
5.66979e-07
4.18191e-07
1.11601e-06
4.23658e-07
5.6706e-07
4.18191e-07
1.11569e-06
1.34185e-06
6.85356e-06
1.34209e-06
6.85356e-06
5.67057e-07
4.23651e-07
1.11572e-06
4.18187e-07
1.11606e-06
4.1819e-07
5.66976e-07
1.34209e-06
6.85293e-06
6.85298e-06
1.34185e-06
5.6706e-07
4.23656e-07
4.18188e-07
1.11569e-06
4.18189e-07
1.11601e-06
5.66981e-07
1.34209e-06
6.85356e-06
6.85357e-06
1.34185e-06
2.22586e-06
2.2249e-06
4.3463e-07
2.22557e-06
2.22471e-06
2.36942e-05
2.36942e-05
2.36955e-05
2.36957e-05
4.34732e-07
2.22556e-06
2.22471e-06
2.22586e-06
2.2249e-06
2.36942e-05
2.36942e-05
5.66965e-07
4.18191e-07
1.1161e-06
4.23654e-07
5.67046e-07
4.18191e-07
1.11578e-06
1.34172e-06
6.85369e-06
1.34191e-06
6.85369e-06
1.34171e-06
6.8539e-06
1.34191e-06
6.85389e-06
5.6705e-07
4.23653e-07
4.18188e-07
1.11569e-06
4.1819e-07
1.116e-06
5.66968e-07
5.67048e-07
4.23652e-07
4.18188e-07
1.11579e-06
4.18189e-07
1.1161e-06
5.66965e-07
1.34191e-06
6.85369e-06
6.85369e-06
1.34171e-06
1.34191e-06
6.85389e-06
6.8539e-06
1.34171e-06
2.36945e-05
2.36944e-05
2.36958e-05
2.36958e-05
4.34731e-07
2.22472e-06
2.22518e-06
2.22491e-06
2.22537e-06
2.36945e-05
2.36945e-05
2.36958e-05
2.36958e-05
2.36921e-05
2.36926e-05
2.36955e-05
2.36955e-05
2.22479e-06
2.22529e-06
4.34626e-07
2.22463e-06
2.2251e-06
2.36926e-05
2.36926e-05
2.36955e-05
2.36955e-05