/*--------------------------------*- C++ -*----------------------------------*\
| =========                 |                                                 |
| \\      /  F ield         | OpenFOAM: The Open Source CFD Toolbox           |
|  \\    /   O peration     | Version:  2206                                  |
|   \\  /    A nd           | Website:  www.openfoam.com                      |
|    \\/     M anipulation  |                                                 |
\*---------------------------------------------------------------------------*/
FoamFile
{
    version     2.0;
    format      ascii;
    arch        "LSB;label=32;scalar=64";
    class       volScalarField;
    location    "10";
    object      k;
}
// * * * * * * * * * * * * * * * * * * * * * * * * * * * * * * * * * * * * * //

dimensions      [0 2 -2 0 0 0 0];

internalField   nonuniform List<scalar> 
28687
(
3.27727e-05
3.27274e-05
3.27275e-05
3.26542e-05
3.27725e-05
3.27275e-05
3.27273e-05
3.26537e-05
3.27676e-05
3.27202e-05
3.27222e-05
3.26489e-05
3.27621e-05
3.27164e-05
3.27165e-05
3.26425e-05
3.2762e-05
3.27165e-05
3.27165e-05
3.26425e-05
3.2762e-05
3.27165e-05
3.27165e-05
3.26425e-05
3.2762e-05
3.27165e-05
3.27165e-05
3.26425e-05
3.2762e-05
3.27165e-05
3.27165e-05
3.26425e-05
3.2762e-05
3.27165e-05
3.27165e-05
3.26425e-05
3.2762e-05
3.27165e-05
3.27165e-05
3.26425e-05
3.2762e-05
3.27165e-05
3.27165e-05
3.26425e-05
3.2762e-05
3.27165e-05
3.27165e-05
3.26425e-05
3.2762e-05
3.27165e-05
3.27165e-05
3.26425e-05
3.2762e-05
3.27165e-05
3.27165e-05
3.26425e-05
3.2762e-05
3.27165e-05
3.27165e-05
3.26425e-05
3.2762e-05
3.27165e-05
3.27165e-05
3.26425e-05
3.2762e-05
3.27165e-05
3.27165e-05
3.26425e-05
3.2762e-05
3.27165e-05
3.27165e-05
3.26425e-05
3.27275e-05
3.26547e-05
3.27274e-05
3.26542e-05
3.26544e-05
3.27274e-05
3.27275e-05
3.27273e-05
3.27274e-05
3.26543e-05
3.26546e-05
3.27275e-05
3.27274e-05
3.27274e-05
3.27273e-05
3.27274e-05
3.27275e-05
3.27274e-05
3.26542e-05
3.26544e-05
3.27275e-05
3.27273e-05
3.27274e-05
3.26544e-05
3.26539e-05
3.26523e-05
3.27273e-05
3.27273e-05
3.27255e-05
3.27233e-05
3.26541e-05
3.26487e-05
3.27273e-05
3.27273e-05
3.27255e-05
3.27255e-05
3.27273e-05
3.27237e-05
3.27255e-05
3.26539e-05
3.26522e-05
3.27273e-05
3.27255e-05
3.27255e-05
3.26521e-05
3.26494e-05
3.26433e-05
3.27223e-05
3.27201e-05
3.27167e-05
3.27165e-05
3.26451e-05
3.26433e-05
3.27223e-05
3.27223e-05
3.27167e-05
3.27166e-05
3.27223e-05
3.27165e-05
3.27167e-05
3.26494e-05
3.26432e-05
3.27223e-05
3.27167e-05
3.27167e-05
3.26433e-05
3.26428e-05
3.26433e-05
3.27166e-05
3.27165e-05
3.27164e-05
3.27164e-05
3.26428e-05
3.26433e-05
3.27166e-05
3.27166e-05
3.27165e-05
3.27164e-05
3.27166e-05
3.27165e-05
3.27164e-05
3.26428e-05
3.26433e-05
3.27166e-05
3.27165e-05
3.27165e-05
3.26432e-05
3.26428e-05
3.26433e-05
3.27166e-05
3.27166e-05
3.27164e-05
3.27164e-05
3.26428e-05
3.26433e-05
3.27166e-05
3.27165e-05
3.27165e-05
3.27164e-05
3.27166e-05
3.27165e-05
3.27164e-05
3.26428e-05
3.26433e-05
3.27166e-05
3.27165e-05
3.27165e-05
3.26432e-05
3.26428e-05
3.26434e-05
3.27166e-05
3.27166e-05
3.27164e-05
3.27164e-05
3.26428e-05
3.26433e-05
3.27166e-05
3.27165e-05
3.27165e-05
3.27164e-05
3.27166e-05
3.27165e-05
3.27164e-05
3.26428e-05
3.26433e-05
3.27166e-05
3.27165e-05
3.27165e-05
3.26432e-05
3.26428e-05
3.26433e-05
3.27166e-05
3.27166e-05
3.27164e-05
3.27164e-05
3.26428e-05
3.26433e-05
3.27166e-05
3.27165e-05
3.27165e-05
3.27164e-05
3.27166e-05
3.27165e-05
3.27164e-05
3.26428e-05
3.26433e-05
3.27166e-05
3.27165e-05
3.27165e-05
3.26432e-05
3.26428e-05
3.26433e-05
3.27166e-05
3.27166e-05
3.27164e-05
3.27164e-05
3.26428e-05
3.26433e-05
3.27166e-05
3.27165e-05
3.27165e-05
3.27164e-05
3.27166e-05
3.27165e-05
3.27164e-05
3.26428e-05
3.26433e-05
3.27166e-05
3.27165e-05
3.27165e-05
3.26432e-05
3.26428e-05
3.26433e-05
3.27166e-05
3.27166e-05
3.27164e-05
3.27164e-05
3.26428e-05
3.26433e-05
3.27166e-05
3.27165e-05
3.27165e-05
3.27164e-05
3.27166e-05
3.27165e-05
3.27164e-05
3.26428e-05
3.26433e-05
3.27166e-05
3.27165e-05
3.27165e-05
3.26432e-05
3.26428e-05
3.26433e-05
3.27166e-05
3.27166e-05
3.27164e-05
3.27164e-05
3.26428e-05
3.26433e-05
3.27166e-05
3.27165e-05
3.27165e-05
3.27164e-05
3.27166e-05
3.27165e-05
3.27164e-05
3.26428e-05
3.26433e-05
3.27166e-05
3.27165e-05
3.27165e-05
3.26432e-05
3.26428e-05
3.26433e-05
3.27166e-05
3.27166e-05
3.27164e-05
3.27164e-05
3.26428e-05
3.26433e-05
3.27166e-05
3.27165e-05
3.27165e-05
3.27164e-05
3.27166e-05
3.27165e-05
3.27164e-05
3.26428e-05
3.26433e-05
3.27166e-05
3.27165e-05
3.27165e-05
3.26432e-05
3.26428e-05
3.26433e-05
3.27166e-05
3.27166e-05
3.27164e-05
3.27164e-05
3.26428e-05
3.26433e-05
3.27166e-05
3.27165e-05
3.27165e-05
3.27164e-05
3.27166e-05
3.27165e-05
3.27164e-05
3.26428e-05
3.26433e-05
3.27166e-05
3.27165e-05
3.27165e-05
3.26432e-05
3.26428e-05
3.26433e-05
3.27166e-05
3.27166e-05
3.27164e-05
3.27164e-05
3.26428e-05
3.26433e-05
3.27166e-05
3.27165e-05
3.27165e-05
3.27164e-05
3.27166e-05
3.27165e-05
3.27164e-05
3.26428e-05
3.26433e-05
3.27166e-05
3.27165e-05
3.27165e-05
3.26432e-05
3.26428e-05
3.26433e-05
3.27166e-05
3.27166e-05
3.27164e-05
3.27164e-05
3.26428e-05
3.26433e-05
3.27166e-05
3.27165e-05
3.27165e-05
3.27164e-05
3.27166e-05
3.27165e-05
3.27164e-05
3.26428e-05
3.26433e-05
3.27166e-05
3.27165e-05
3.27165e-05
3.26432e-05
3.26428e-05
3.26433e-05
3.27166e-05
3.27166e-05
3.27164e-05
3.27164e-05
3.26428e-05
3.26433e-05
3.27166e-05
3.27165e-05
3.27165e-05
3.27164e-05
3.27166e-05
3.27165e-05
3.27164e-05
3.26428e-05
3.26433e-05
3.27166e-05
3.27165e-05
3.27165e-05
3.26432e-05
3.26428e-05
3.26433e-05
3.27166e-05
3.27166e-05
3.27164e-05
3.27164e-05
3.26428e-05
3.26433e-05
3.27166e-05
3.27165e-05
3.27165e-05
3.27164e-05
3.27166e-05
3.27165e-05
3.27164e-05
3.26428e-05
3.26433e-05
3.27166e-05
3.27165e-05
3.27165e-05
3.26432e-05
3.26428e-05
3.26433e-05
3.27166e-05
3.27166e-05
3.27164e-05
3.27164e-05
3.26428e-05
3.26433e-05
3.27166e-05
3.27165e-05
3.27165e-05
3.27164e-05
3.27166e-05
3.27165e-05
3.27164e-05
3.26428e-05
3.26433e-05
3.27166e-05
3.27165e-05
3.27165e-05
3.26432e-05
3.26428e-05
3.27165e-05
3.27165e-05
3.26428e-05
3.27165e-05
3.27165e-05
3.27165e-05
3.26428e-05
3.27165e-05
3.3322e-05
5.87989e-05
3.3322e-05
5.87972e-05
8.22097e-05
8.22024e-05
3.33224e-05
5.88007e-05
3.33224e-05
5.8799e-05
3.2773e-05
3.27727e-05
3.27727e-05
3.27726e-05
3.27728e-05
3.27726e-05
3.27726e-05
3.2379e-05
3.31164e-05
3.27607e-05
3.27276e-05
3.2379e-05
3.3116e-05
3.27607e-05
8.2217e-05
8.22053e-05
3.2379e-05
3.27605e-05
3.31159e-05
3.27275e-05
3.23791e-05
3.27605e-05
3.31151e-05
3.42112e-05
3.42114e-05
3.26546e-05
3.42138e-05
3.42139e-05
3.33233e-05
5.87979e-05
3.33239e-05
5.87959e-05
8.2198e-05
8.2198e-05
3.33237e-05
5.87998e-05
3.33241e-05
5.87977e-05
3.27728e-05
3.27725e-05
3.27725e-05
3.27708e-05
3.27702e-05
3.27707e-05
3.27707e-05
3.23789e-05
3.3118e-05
3.27605e-05
3.27272e-05
3.23792e-05
3.31167e-05
3.27603e-05
8.22004e-05
8.21967e-05
3.23789e-05
3.27604e-05
3.31172e-05
3.27272e-05
3.23793e-05
3.27602e-05
3.31165e-05
3.42184e-05
3.42185e-05
3.26543e-05
3.42189e-05
3.4219e-05
3.33142e-05
5.88167e-05
3.3322e-05
5.88342e-05
8.22499e-05
8.22507e-05
3.33142e-05
5.88186e-05
3.33221e-05
5.88358e-05
3.27671e-05
3.27678e-05
3.27677e-05
3.27623e-05
3.27623e-05
3.27623e-05
3.27623e-05
3.23673e-05
3.31135e-05
3.2755e-05
3.27182e-05
3.23747e-05
3.31058e-05
3.27525e-05
8.22333e-05
8.22498e-05
3.23673e-05
3.27554e-05
3.31149e-05
3.27194e-05
3.23749e-05
3.27527e-05
3.31073e-05
3.42176e-05
3.42177e-05
3.26447e-05
3.42073e-05
3.42075e-05
3.33116e-05
5.88366e-05
3.33123e-05
5.88346e-05
8.2252e-05
8.22503e-05
3.33121e-05
5.88385e-05
3.33127e-05
5.88365e-05
3.27622e-05
3.27622e-05
3.27622e-05
3.27621e-05
3.27621e-05
3.27621e-05
3.2762e-05
3.23661e-05
3.31058e-05
3.27498e-05
3.27166e-05
3.23659e-05
3.31046e-05
3.27499e-05
8.22519e-05
8.22496e-05
3.23661e-05
3.27498e-05
3.31059e-05
3.27166e-05
3.23659e-05
3.27499e-05
3.31049e-05
3.42041e-05
3.42041e-05
3.26433e-05
3.42037e-05
3.42037e-05
3.33117e-05
5.88365e-05
3.33124e-05
5.88345e-05
8.22525e-05
8.22506e-05
3.33122e-05
5.88384e-05
3.33127e-05
5.88364e-05
3.27622e-05
3.27622e-05
3.27622e-05
3.2762e-05
3.27621e-05
3.2762e-05
3.2762e-05
3.23661e-05
3.31058e-05
3.27497e-05
3.27166e-05
3.23659e-05
3.31047e-05
3.27499e-05
8.22515e-05
8.22495e-05
3.23661e-05
3.27497e-05
3.31058e-05
3.27166e-05
3.23659e-05
3.27499e-05
3.31048e-05
3.42043e-05
3.42043e-05
3.26433e-05
3.42038e-05
3.42039e-05
3.33117e-05
5.88365e-05
3.33124e-05
5.88345e-05
8.22525e-05
8.22489e-05
3.33122e-05
5.88384e-05
3.33127e-05
5.88364e-05
3.27622e-05
3.27622e-05
3.27622e-05
3.2762e-05
3.27621e-05
3.2762e-05
3.2762e-05
3.23661e-05
3.31058e-05
3.27497e-05
3.27166e-05
3.23659e-05
3.31046e-05
3.27499e-05
8.22515e-05
8.22495e-05
3.23661e-05
3.27497e-05
3.31058e-05
3.27166e-05
3.23659e-05
3.27499e-05
3.31048e-05
3.42043e-05
3.42044e-05
3.26433e-05
3.42038e-05
3.42039e-05
3.33116e-05
5.88362e-05
3.33123e-05
5.88345e-05
8.22502e-05
8.22495e-05
3.33122e-05
5.88384e-05
3.33128e-05
5.88364e-05
3.27622e-05
3.27622e-05
3.27622e-05
3.2762e-05
3.27621e-05
3.2762e-05
3.2762e-05
3.23661e-05
3.31057e-05
3.27497e-05
3.27166e-05
3.23659e-05
3.31046e-05
3.27499e-05
8.22515e-05
8.22495e-05
3.23661e-05
3.27497e-05
3.31058e-05
3.27166e-05
3.23659e-05
3.27499e-05
3.31048e-05
3.42043e-05
3.42044e-05
3.26433e-05
3.42038e-05
3.42039e-05
3.33117e-05
5.88364e-05
3.33123e-05
5.88343e-05
8.2253e-05
8.22512e-05
3.33122e-05
5.88384e-05
3.33128e-05
5.88364e-05
3.27622e-05
3.27622e-05
3.27622e-05
3.2762e-05
3.27621e-05
3.2762e-05
3.2762e-05
3.23661e-05
3.31058e-05
3.27497e-05
3.27166e-05
3.23659e-05
3.31046e-05
3.27499e-05
8.22515e-05
8.22495e-05
3.23661e-05
3.27497e-05
3.31058e-05
3.27166e-05
3.23659e-05
3.27499e-05
3.31048e-05
3.42043e-05
3.42044e-05
3.26433e-05
3.42038e-05
3.42039e-05
3.33117e-05
5.88364e-05
3.33124e-05
5.88344e-05
8.22525e-05
8.22501e-05
3.33122e-05
5.88384e-05
3.33128e-05
5.88368e-05
3.27622e-05
3.27622e-05
3.27622e-05
3.2762e-05
3.27621e-05
3.2762e-05
3.2762e-05
3.23661e-05
3.31058e-05
3.27497e-05
3.27166e-05
3.23659e-05
3.31047e-05
3.27499e-05
8.22515e-05
8.22495e-05
3.23661e-05
3.27497e-05
3.31058e-05
3.27166e-05
3.23659e-05
3.27499e-05
3.31048e-05
3.42043e-05
3.42044e-05
3.26433e-05
3.42038e-05
3.42039e-05
3.33117e-05
5.8836e-05
3.33124e-05
5.88338e-05
8.22516e-05
8.22496e-05
3.33122e-05
5.88388e-05
3.33128e-05
5.8837e-05
3.27622e-05
3.27622e-05
3.27622e-05
3.2762e-05
3.27621e-05
3.2762e-05
3.2762e-05
3.23661e-05
3.31058e-05
3.27497e-05
3.27166e-05
3.23659e-05
3.31047e-05
3.27499e-05
8.22515e-05
8.22495e-05
3.23661e-05
3.27497e-05
3.31058e-05
3.27166e-05
3.23659e-05
3.27499e-05
3.31048e-05
3.42043e-05
3.42044e-05
3.26433e-05
3.42038e-05
3.42039e-05
3.33117e-05
5.88357e-05
3.33124e-05
5.88339e-05
8.22517e-05
8.22497e-05
3.33122e-05
5.8839e-05
3.33128e-05
5.88371e-05
3.27622e-05
3.27622e-05
3.27622e-05
3.2762e-05
3.27621e-05
3.2762e-05
3.2762e-05
3.23661e-05
3.31058e-05
3.27497e-05
3.27166e-05
3.23659e-05
3.31047e-05
3.27499e-05
8.22515e-05
8.22495e-05
3.23661e-05
3.27497e-05
3.31058e-05
3.27166e-05
3.23659e-05
3.27499e-05
3.31048e-05
3.42043e-05
3.42044e-05
3.26433e-05
3.42038e-05
3.42039e-05
3.33117e-05
5.88358e-05
3.33124e-05
5.88338e-05
8.22517e-05
8.22498e-05
3.33122e-05
5.88391e-05
3.33128e-05
5.88372e-05
3.27622e-05
3.27622e-05
3.27622e-05
3.2762e-05
3.27621e-05
3.2762e-05
3.2762e-05
3.23661e-05
3.31058e-05
3.27497e-05
3.27166e-05
3.23659e-05
3.31047e-05
3.27499e-05
8.22515e-05
8.22495e-05
3.23661e-05
3.27497e-05
3.31058e-05
3.27166e-05
3.23659e-05
3.27499e-05
3.31048e-05
3.42043e-05
3.42044e-05
3.26433e-05
3.42038e-05
3.42039e-05
3.33117e-05
5.88357e-05
3.33124e-05
5.88338e-05
8.22517e-05
8.22498e-05
3.33122e-05
5.88392e-05
3.33128e-05
5.88372e-05
3.27622e-05
3.27622e-05
3.27622e-05
3.2762e-05
3.27621e-05
3.2762e-05
3.2762e-05
3.23661e-05
3.31058e-05
3.27497e-05
3.27166e-05
3.23659e-05
3.31046e-05
3.27499e-05
8.22516e-05
8.22495e-05
3.23661e-05
3.27497e-05
3.31058e-05
3.27166e-05
3.23659e-05
3.27499e-05
3.31048e-05
3.42043e-05
3.42044e-05
3.26433e-05
3.42038e-05
3.42039e-05
3.33117e-05
5.88357e-05
3.33124e-05
5.88338e-05
8.22517e-05
8.22498e-05
3.33122e-05
5.88392e-05
3.33128e-05
5.88372e-05
3.27622e-05
3.27622e-05
3.27622e-05
3.2762e-05
3.27621e-05
3.2762e-05
3.2762e-05
3.23661e-05
3.31058e-05
3.27497e-05
3.27166e-05
3.23659e-05
3.31046e-05
3.27499e-05
8.22515e-05
8.22495e-05
3.23661e-05
3.27497e-05
3.31058e-05
3.27166e-05
3.23659e-05
3.27499e-05
3.31048e-05
3.42043e-05
3.42044e-05
3.26433e-05
3.42038e-05
3.42039e-05
3.33117e-05
5.88357e-05
3.33124e-05
5.88338e-05
8.22517e-05
8.22498e-05
3.33122e-05
5.88392e-05
3.33128e-05
5.88372e-05
3.27622e-05
3.27622e-05
3.27622e-05
3.2762e-05
3.27621e-05
3.2762e-05
3.2762e-05
3.23661e-05
3.31058e-05
3.27497e-05
3.27166e-05
3.23659e-05
3.31046e-05
3.27499e-05
8.22515e-05
8.22495e-05
3.23661e-05
3.27497e-05
3.31058e-05
3.27166e-05
3.23659e-05
3.27499e-05
3.31048e-05
3.42043e-05
3.42044e-05
3.26433e-05
3.42038e-05
3.42039e-05
3.33117e-05
5.88357e-05
3.33124e-05
5.88338e-05
8.22517e-05
8.22498e-05
3.33122e-05
5.88392e-05
3.33128e-05
5.88372e-05
3.27622e-05
3.27622e-05
3.27622e-05
3.2762e-05
3.27621e-05
3.2762e-05
3.2762e-05
3.23661e-05
3.31058e-05
3.27497e-05
3.27166e-05
3.23659e-05
3.31046e-05
3.27499e-05
8.22515e-05
8.22495e-05
3.23661e-05
3.27497e-05
3.31058e-05
3.27166e-05
3.23659e-05
3.27499e-05
3.31048e-05
3.42043e-05
3.42044e-05
3.26433e-05
3.42038e-05
3.42039e-05
3.33117e-05
5.88357e-05
3.33124e-05
5.88338e-05
8.22517e-05
8.22497e-05
3.33122e-05
5.88392e-05
3.33128e-05
5.88372e-05
3.27622e-05
3.27622e-05
3.27622e-05
3.2762e-05
3.27621e-05
3.2762e-05
3.2762e-05
3.23661e-05
3.31058e-05
3.27497e-05
3.27166e-05
3.23659e-05
3.31047e-05
3.27499e-05
8.22515e-05
8.22494e-05
3.23661e-05
3.27497e-05
3.31058e-05
3.27166e-05
3.23659e-05
3.27499e-05
3.31048e-05
3.42043e-05
3.42043e-05
3.26433e-05
3.42038e-05
3.42039e-05
3.33119e-05
5.88357e-05
3.33123e-05
5.88339e-05
8.22517e-05
8.22499e-05
3.33124e-05
5.88392e-05
3.33128e-05
5.88373e-05
3.27621e-05
3.27621e-05
3.27621e-05
3.23661e-05
3.31058e-05
3.27497e-05
3.27165e-05
3.23659e-05
3.31046e-05
3.27499e-05
8.22515e-05
8.22496e-05
3.23666e-05
3.27497e-05
3.31058e-05
3.27167e-05
3.23659e-05
3.27499e-05
3.31051e-05
3.42043e-05
3.42043e-05
3.26436e-05
3.4204e-05
3.42039e-05
5.87982e-05
3.31154e-05
8.22104e-05
3.42116e-05
3.42088e-05
8.22052e-05
3.3115e-05
5.87971e-05
8.22158e-05
8.2205e-05
8.22184e-05
8.22077e-05
3.42113e-05
3.42111e-05
3.26546e-05
3.42137e-05
3.42137e-05
8.21993e-05
8.22042e-05
8.2202e-05
8.2207e-05
3.26542e-05
3.4217e-05
3.4217e-05
3.42156e-05
3.42154e-05
3.3322e-05
5.87985e-05
3.3322e-05
5.87971e-05
3.2379e-05
3.31158e-05
3.27605e-05
3.27274e-05
3.23791e-05
3.31151e-05
3.27605e-05
3.2379e-05
3.31171e-05
3.27607e-05
3.27275e-05
3.23791e-05
3.31163e-05
3.27607e-05
3.33234e-05
5.87965e-05
5.87973e-05
3.3323e-05
3.33235e-05
5.87966e-05
5.87971e-05
3.33231e-05
3.23796e-05
3.27274e-05
3.3116e-05
3.27604e-05
3.31168e-05
3.27605e-05
3.23794e-05
3.23796e-05
3.27275e-05
3.3117e-05
3.27606e-05
3.3118e-05
3.27606e-05
3.23795e-05
3.4214e-05
3.42118e-05
3.26548e-05
3.4216e-05
3.42135e-05
8.22051e-05
8.21972e-05
8.21974e-05
8.2202e-05
3.26543e-05
3.42188e-05
3.42165e-05
3.42178e-05
3.42156e-05
8.21932e-05
8.21972e-05
3.23791e-05
3.31163e-05
3.27605e-05
3.27275e-05
3.23792e-05
3.31154e-05
3.27605e-05
3.3322e-05
5.88012e-05
3.3322e-05
5.87991e-05
3.2379e-05
3.27605e-05
3.31159e-05
3.27274e-05
3.23791e-05
3.27605e-05
3.3115e-05
3.33237e-05
5.87981e-05
5.87992e-05
3.33234e-05
3.23797e-05
3.27274e-05
3.31163e-05
3.27604e-05
3.31173e-05
3.27605e-05
3.23795e-05
3.33233e-05
5.87982e-05
5.87992e-05
3.33231e-05
3.23796e-05
3.27273e-05
3.27604e-05
3.31159e-05
3.27604e-05
3.31169e-05
3.23794e-05
3.3322e-05
5.87975e-05
3.3322e-05
5.87959e-05
3.2379e-05
3.27605e-05
3.31158e-05
3.27274e-05
3.2379e-05
3.27605e-05
3.3115e-05
3.33219e-05
5.88011e-05
3.33219e-05
5.87989e-05
3.23796e-05
3.27276e-05
3.31168e-05
3.27606e-05
3.31178e-05
3.27606e-05
3.23793e-05
3.33234e-05
5.87952e-05
5.8796e-05
3.33231e-05
3.23795e-05
3.27274e-05
3.27604e-05
3.31159e-05
3.27605e-05
3.31167e-05
3.23794e-05
3.33233e-05
5.87981e-05
5.87989e-05
3.33229e-05
3.42097e-05
3.4211e-05
3.26546e-05
3.4212e-05
3.42136e-05
8.22176e-05
8.22067e-05
8.21996e-05
8.22053e-05
3.26541e-05
3.42155e-05
3.42169e-05
3.42143e-05
3.42154e-05
8.2201e-05
8.22058e-05
3.23791e-05
3.27605e-05
3.31161e-05
3.27275e-05
3.23791e-05
3.27605e-05
3.31153e-05
3.33221e-05
5.88014e-05
3.3322e-05
5.87993e-05
3.33222e-05
5.8802e-05
3.33221e-05
5.87999e-05
3.23796e-05
3.27274e-05
3.27604e-05
3.3116e-05
3.27605e-05
3.31168e-05
3.23793e-05
3.23797e-05
3.27274e-05
3.27604e-05
3.31162e-05
3.27605e-05
3.3117e-05
3.23795e-05
3.33234e-05
5.87984e-05
5.87993e-05
3.33232e-05
3.33234e-05
5.87991e-05
5.87999e-05
3.33232e-05
8.22178e-05
8.22069e-05
8.22189e-05
8.2208e-05
3.26542e-05
3.42172e-05
3.42173e-05
3.42156e-05
3.42158e-05
8.22012e-05
8.22061e-05
8.22023e-05
8.22071e-05
8.21993e-05
8.21968e-05
8.2202e-05
8.21997e-05
3.42185e-05
3.42184e-05
3.26541e-05
3.4219e-05
3.42189e-05
8.22102e-05
8.2197e-05
8.22137e-05
8.22e-05
3.26536e-05
3.42181e-05
3.42181e-05
3.42197e-05
3.42196e-05
3.33235e-05
5.87966e-05
3.33245e-05
5.87974e-05
3.2379e-05
3.31176e-05
3.27604e-05
3.27271e-05
3.23797e-05
3.31164e-05
3.27602e-05
3.23793e-05
3.31186e-05
3.27605e-05
3.2727e-05
3.238e-05
3.31168e-05
3.27603e-05
3.33243e-05
5.88033e-05
5.87961e-05
3.33218e-05
3.33244e-05
5.88229e-05
5.87986e-05
3.33219e-05
3.23789e-05
3.27267e-05
3.31149e-05
3.27586e-05
3.31178e-05
3.27598e-05
3.23771e-05
3.23791e-05
3.27261e-05
3.3113e-05
3.27583e-05
3.31179e-05
3.27598e-05
3.23769e-05
3.422e-05
3.42181e-05
3.2654e-05
3.42191e-05
3.42172e-05
8.21936e-05
8.21942e-05
8.22404e-05
8.22017e-05
3.2653e-05
3.4215e-05
3.42139e-05
3.42197e-05
3.4218e-05
8.22343e-05
8.21982e-05
3.23791e-05
3.31181e-05
3.27604e-05
3.27272e-05
3.23797e-05
3.31168e-05
3.27602e-05
3.33234e-05
5.87984e-05
3.33242e-05
5.87984e-05
3.2379e-05
3.27603e-05
3.31178e-05
3.27271e-05
3.23798e-05
3.27602e-05
3.31164e-05
3.33245e-05
5.88052e-05
5.87982e-05
3.33223e-05
3.23789e-05
3.27267e-05
3.31152e-05
3.27586e-05
3.31183e-05
3.27598e-05
3.23772e-05
3.33242e-05
5.88045e-05
5.87988e-05
3.3322e-05
3.23788e-05
3.27267e-05
3.27586e-05
3.31148e-05
3.27598e-05
3.31179e-05
3.23771e-05
3.33234e-05
5.87954e-05
3.33243e-05
5.87968e-05
3.23789e-05
3.27604e-05
3.31175e-05
3.27271e-05
3.23793e-05
3.27602e-05
3.31163e-05
3.33233e-05
5.87981e-05
3.33242e-05
5.87983e-05
3.23788e-05
3.27263e-05
3.31137e-05
3.27584e-05
3.31181e-05
3.27598e-05
3.2377e-05
3.33243e-05
5.88216e-05
5.87989e-05
3.33219e-05
3.23788e-05
3.27267e-05
3.27586e-05
3.31147e-05
3.27598e-05
3.31177e-05
3.23771e-05
3.33242e-05
5.88039e-05
5.87985e-05
3.33218e-05
3.42174e-05
3.42184e-05
3.26541e-05
3.42176e-05
3.42188e-05
8.2201e-05
8.21986e-05
8.22125e-05
8.21977e-05
3.26535e-05
3.42165e-05
3.4218e-05
3.42184e-05
3.42195e-05
8.22126e-05
8.21988e-05
3.2379e-05
3.27604e-05
3.31179e-05
3.27272e-05
3.23795e-05
3.27602e-05
3.31166e-05
3.33235e-05
5.87985e-05
3.33243e-05
5.87986e-05
3.33235e-05
5.87991e-05
3.33244e-05
5.87994e-05
3.23788e-05
3.27267e-05
3.27586e-05
3.31147e-05
3.27598e-05
3.31178e-05
3.23771e-05
3.23789e-05
3.27268e-05
3.27586e-05
3.3115e-05
3.27598e-05
3.3118e-05
3.23772e-05
3.33243e-05
5.88044e-05
5.87988e-05
3.33221e-05
3.33243e-05
5.88051e-05
5.87995e-05
3.33221e-05
8.22012e-05
8.21988e-05
8.22023e-05
8.21998e-05
3.26538e-05
3.42179e-05
3.4218e-05
3.42195e-05
3.42197e-05
8.22129e-05
8.21991e-05
8.22132e-05
8.22001e-05
8.22294e-05
8.22492e-05
8.22328e-05
8.22519e-05
3.42178e-05
3.42177e-05
3.26446e-05
3.42073e-05
3.42074e-05
8.22496e-05
8.22504e-05
8.22524e-05
8.22534e-05
3.26431e-05
3.42038e-05
3.42037e-05
3.42062e-05
3.42063e-05
3.33141e-05
5.88337e-05
3.33221e-05
5.88372e-05
3.23673e-05
3.31153e-05
3.27554e-05
3.27194e-05
3.2375e-05
3.31073e-05
3.27527e-05
3.23672e-05
3.31125e-05
3.2755e-05
3.27181e-05
3.23747e-05
3.3106e-05
3.27525e-05
3.3314e-05
5.88351e-05
5.88356e-05
3.33116e-05
3.3314e-05
5.8837e-05
5.88372e-05
3.33117e-05
3.23667e-05
3.27175e-05
3.31049e-05
3.275e-05
3.31076e-05
3.27508e-05
3.23661e-05
3.23667e-05
3.27169e-05
3.31052e-05
3.275e-05
3.31071e-05
3.27507e-05
3.23662e-05
3.42134e-05
3.4213e-05
3.26435e-05
3.42039e-05
3.42023e-05
8.22457e-05
8.22478e-05
8.22505e-05
8.22508e-05
3.26429e-05
3.42035e-05
3.42009e-05
3.42044e-05
3.42027e-05
8.22468e-05
8.22482e-05
3.23673e-05
3.31158e-05
3.27555e-05
3.27194e-05
3.23752e-05
3.31078e-05
3.27527e-05
3.33141e-05
5.88166e-05
3.33219e-05
5.88364e-05
3.23673e-05
3.27554e-05
3.31155e-05
3.27194e-05
3.23751e-05
3.27527e-05
3.31077e-05
3.33139e-05
5.88367e-05
5.88377e-05
3.33122e-05
3.23669e-05
3.27175e-05
3.31053e-05
3.275e-05
3.31082e-05
3.27508e-05
3.23663e-05
3.33138e-05
5.88377e-05
5.8839e-05
3.33119e-05
3.23668e-05
3.27175e-05
3.275e-05
3.31049e-05
3.27508e-05
3.3108e-05
3.23662e-05
3.33143e-05
5.88328e-05
3.33222e-05
5.88363e-05
3.23673e-05
3.27554e-05
3.31151e-05
3.27194e-05
3.23751e-05
3.27527e-05
3.31073e-05
3.33142e-05
5.88158e-05
3.33221e-05
5.88361e-05
3.23668e-05
3.2717e-05
3.31047e-05
3.275e-05
3.31068e-05
3.27508e-05
3.2366e-05
3.33142e-05
5.88356e-05
5.88364e-05
3.33117e-05
3.23667e-05
3.27175e-05
3.275e-05
3.31049e-05
3.27508e-05
3.31076e-05
3.23661e-05
3.3314e-05
5.88375e-05
5.88384e-05
3.33116e-05
3.42169e-05
3.42176e-05
3.26445e-05
3.42069e-05
3.42072e-05
8.22318e-05
8.22511e-05
8.22501e-05
8.22513e-05
3.2643e-05
3.42015e-05
3.42036e-05
3.42059e-05
3.42061e-05
8.22514e-05
8.22523e-05
3.23674e-05
3.27554e-05
3.31154e-05
3.27194e-05
3.23752e-05
3.27527e-05
3.31076e-05
3.33141e-05
5.88167e-05
3.3322e-05
5.88366e-05
3.33141e-05
5.88172e-05
3.3322e-05
5.88372e-05
3.23668e-05
3.27175e-05
3.275e-05
3.3105e-05
3.27509e-05
3.31076e-05
3.2366e-05
3.23668e-05
3.27175e-05
3.275e-05
3.31052e-05
3.27508e-05
3.31079e-05
3.23663e-05
3.33138e-05
5.88379e-05
5.88388e-05
3.33119e-05
3.33138e-05
5.88385e-05
5.88395e-05
3.3312e-05
8.22321e-05
8.22513e-05
8.22324e-05
8.22523e-05
3.26432e-05
3.42036e-05
3.42037e-05
3.42062e-05
3.42063e-05
8.22515e-05
8.22525e-05
8.22527e-05
8.22536e-05
8.22496e-05
8.22491e-05
8.22524e-05
8.2252e-05
3.42045e-05
3.42045e-05
3.26434e-05
3.42037e-05
3.42037e-05
8.22491e-05
8.22492e-05
8.2252e-05
8.2252e-05
3.2643e-05
3.42037e-05
3.42037e-05
3.42045e-05
3.42045e-05
3.33117e-05
5.88371e-05
3.33128e-05
5.88368e-05
3.23662e-05
3.31064e-05
3.27499e-05
3.27166e-05
3.23665e-05
3.31048e-05
3.27499e-05
3.23662e-05
3.31067e-05
3.27499e-05
3.27165e-05
3.23665e-05
3.31051e-05
3.27499e-05
3.33128e-05
5.88349e-05
5.88346e-05
3.33117e-05
3.33128e-05
5.88368e-05
5.88368e-05
3.33117e-05
3.23665e-05
3.27164e-05
3.31047e-05
3.27498e-05
3.31063e-05
3.27498e-05
3.23662e-05
3.23665e-05
3.27165e-05
3.31051e-05
3.27498e-05
3.31066e-05
3.27498e-05
3.23662e-05
3.42043e-05
3.42019e-05
3.26433e-05
3.42035e-05
3.4201e-05
8.22473e-05
8.22466e-05
8.22509e-05
8.22503e-05
3.26429e-05
3.42033e-05
3.4201e-05
3.42042e-05
3.42019e-05
8.22466e-05
8.22472e-05
3.23664e-05
3.31068e-05
3.27499e-05
3.27166e-05
3.23666e-05
3.31051e-05
3.27499e-05
3.33118e-05
5.88378e-05
3.33128e-05
5.88373e-05
3.23662e-05
3.27499e-05
3.31064e-05
3.27165e-05
3.23666e-05
3.27499e-05
3.31047e-05
3.33131e-05
5.88366e-05
5.88369e-05
3.33122e-05
3.23667e-05
3.27165e-05
3.31051e-05
3.27498e-05
3.31067e-05
3.27498e-05
3.23664e-05
3.33128e-05
5.88371e-05
5.88375e-05
3.33118e-05
3.23665e-05
3.27164e-05
3.27497e-05
3.31047e-05
3.27498e-05
3.31063e-05
3.23662e-05
3.33116e-05
5.88358e-05
3.33128e-05
5.88354e-05
3.23662e-05
3.27499e-05
3.31063e-05
3.27166e-05
3.23664e-05
3.27499e-05
3.31048e-05
3.33115e-05
5.88375e-05
3.33126e-05
5.88372e-05
3.23664e-05
3.27166e-05
3.31046e-05
3.27498e-05
3.31063e-05
3.27499e-05
3.23659e-05
3.33128e-05
5.88353e-05
5.88356e-05
3.33116e-05
3.23665e-05
3.27164e-05
3.27498e-05
3.31047e-05
3.27498e-05
3.31062e-05
3.23662e-05
3.33126e-05
5.88371e-05
5.88372e-05
3.33115e-05
3.42024e-05
3.42043e-05
3.26433e-05
3.42017e-05
3.42036e-05
8.22514e-05
8.22509e-05
8.22496e-05
8.22501e-05
3.26429e-05
3.42018e-05
3.42036e-05
3.42027e-05
3.42044e-05
8.22509e-05
8.2251e-05
3.23663e-05
3.27499e-05
3.31066e-05
3.27166e-05
3.23666e-05
3.27499e-05
3.3105e-05
3.33118e-05
5.88379e-05
3.33129e-05
5.88376e-05
3.33119e-05
5.88385e-05
3.33129e-05
5.88382e-05
3.23665e-05
3.27166e-05
3.27498e-05
3.31048e-05
3.27499e-05
3.31063e-05
3.2366e-05
3.23666e-05
3.27165e-05
3.27498e-05
3.3105e-05
3.27498e-05
3.31065e-05
3.23663e-05
3.33128e-05
5.88374e-05
5.88376e-05
3.33118e-05
3.33129e-05
5.8838e-05
5.88382e-05
3.33119e-05
8.22516e-05
8.22511e-05
8.22527e-05
8.22522e-05
3.26428e-05
3.42038e-05
3.42039e-05
3.42045e-05
3.42045e-05
8.22511e-05
8.22512e-05
8.22522e-05
8.22523e-05
8.22491e-05
8.22491e-05
8.2252e-05
8.2252e-05
3.42045e-05
3.42045e-05
3.26434e-05
3.42037e-05
3.42038e-05
8.22491e-05
8.22491e-05
8.2252e-05
8.2252e-05
3.2643e-05
3.42037e-05
3.42038e-05
3.42045e-05
3.42045e-05
3.33117e-05
5.88368e-05
3.33128e-05
5.88368e-05
3.23662e-05
3.31063e-05
3.27499e-05
3.27166e-05
3.23665e-05
3.31047e-05
3.27499e-05
3.23662e-05
3.31066e-05
3.27499e-05
3.27166e-05
3.23665e-05
3.31051e-05
3.27499e-05
3.33128e-05
5.88349e-05
5.88346e-05
3.33116e-05
3.33128e-05
5.88368e-05
5.88368e-05
3.33117e-05
3.23665e-05
3.27165e-05
3.31047e-05
3.27497e-05
3.31063e-05
3.27498e-05
3.23662e-05
3.23665e-05
3.27165e-05
3.31051e-05
3.27497e-05
3.31066e-05
3.27498e-05
3.23662e-05
3.42041e-05
3.42021e-05
3.26433e-05
3.42034e-05
3.42012e-05
8.22472e-05
8.22466e-05
8.22511e-05
8.22506e-05
3.26429e-05
3.42035e-05
3.4201e-05
3.42042e-05
3.42021e-05
8.22466e-05
8.22472e-05
3.23664e-05
3.31067e-05
3.27499e-05
3.27166e-05
3.23667e-05
3.31051e-05
3.27499e-05
3.33118e-05
5.88374e-05
3.33127e-05
5.88372e-05
3.23662e-05
3.27499e-05
3.31063e-05
3.27165e-05
3.23665e-05
3.27499e-05
3.31047e-05
3.33131e-05
5.88366e-05
5.88368e-05
3.33122e-05
3.23667e-05
3.27165e-05
3.31051e-05
3.27497e-05
3.31067e-05
3.27498e-05
3.23664e-05
3.33128e-05
5.88372e-05
5.88374e-05
3.33118e-05
3.23665e-05
3.27165e-05
3.27497e-05
3.31047e-05
3.27498e-05
3.31063e-05
3.23662e-05
3.33116e-05
5.88356e-05
3.33127e-05
5.88354e-05
3.23662e-05
3.27499e-05
3.31062e-05
3.27166e-05
3.23665e-05
3.27499e-05
3.31048e-05
3.33115e-05
5.88371e-05
3.33126e-05
5.8837e-05
3.23664e-05
3.27166e-05
3.31047e-05
3.27497e-05
3.31063e-05
3.27498e-05
3.23659e-05
3.33127e-05
5.88353e-05
5.88356e-05
3.33116e-05
3.23665e-05
3.27165e-05
3.27497e-05
3.31047e-05
3.27498e-05
3.31062e-05
3.23662e-05
3.33126e-05
5.88371e-05
5.88371e-05
3.33115e-05
3.42028e-05
3.42044e-05
3.26433e-05
3.42018e-05
3.42036e-05
8.2251e-05
8.22509e-05
8.22496e-05
8.22501e-05
3.26429e-05
3.42018e-05
3.42036e-05
3.42027e-05
3.42044e-05
8.22509e-05
8.22509e-05
3.23663e-05
3.27499e-05
3.31065e-05
3.27166e-05
3.23666e-05
3.27499e-05
3.3105e-05
3.33118e-05
5.88374e-05
3.33128e-05
5.88374e-05
3.33119e-05
5.88381e-05
3.33128e-05
5.8838e-05
3.23665e-05
3.27166e-05
3.27497e-05
3.31048e-05
3.27498e-05
3.31063e-05
3.2366e-05
3.23666e-05
3.27165e-05
3.27497e-05
3.3105e-05
3.27498e-05
3.31065e-05
3.23663e-05
3.33128e-05
5.88374e-05
5.88374e-05
3.33118e-05
3.33128e-05
5.8838e-05
5.88381e-05
3.33118e-05
8.22511e-05
8.22511e-05
8.22522e-05
8.22522e-05
3.26428e-05
3.42038e-05
3.42039e-05
3.42046e-05
3.42047e-05
8.22511e-05
8.22511e-05
8.22522e-05
8.22522e-05
8.22492e-05
8.22491e-05
8.2252e-05
8.22519e-05
3.42044e-05
3.42045e-05
3.26434e-05
3.42035e-05
3.42038e-05
8.22492e-05
8.22491e-05
8.2252e-05
8.2252e-05
3.2643e-05
3.42035e-05
3.42038e-05
3.42043e-05
3.42045e-05
3.33117e-05
5.88368e-05
3.33128e-05
5.88362e-05
3.23662e-05
3.31062e-05
3.27499e-05
3.27166e-05
3.23665e-05
3.31047e-05
3.27499e-05
3.23662e-05
3.31066e-05
3.27499e-05
3.27166e-05
3.23665e-05
3.31053e-05
3.27499e-05
3.33128e-05
5.88346e-05
5.88347e-05
3.33116e-05
3.33128e-05
5.88358e-05
5.88363e-05
3.33117e-05
3.23665e-05
3.27165e-05
3.31047e-05
3.27498e-05
3.31062e-05
3.27498e-05
3.23662e-05
3.23665e-05
3.27165e-05
3.31054e-05
3.27497e-05
3.3107e-05
3.27498e-05
3.23662e-05
3.42044e-05
3.42021e-05
3.26433e-05
3.42038e-05
3.4201e-05
8.22472e-05
8.22467e-05
8.22483e-05
8.22493e-05
3.2643e-05
3.42035e-05
3.42006e-05
3.42047e-05
3.42019e-05
8.22466e-05
8.22473e-05
3.23664e-05
3.31067e-05
3.27499e-05
3.27166e-05
3.23667e-05
3.31051e-05
3.27499e-05
3.33118e-05
5.88374e-05
3.33128e-05
5.88372e-05
3.23662e-05
3.27499e-05
3.31063e-05
3.27165e-05
3.23665e-05
3.27499e-05
3.31047e-05
3.33132e-05
5.88366e-05
5.88368e-05
3.33122e-05
3.23667e-05
3.27165e-05
3.31051e-05
3.27498e-05
3.31067e-05
3.27498e-05
3.23664e-05
3.33128e-05
5.88371e-05
5.88374e-05
3.33118e-05
3.23665e-05
3.27165e-05
3.27497e-05
3.31047e-05
3.27498e-05
3.31063e-05
3.23662e-05
3.33116e-05
5.88356e-05
3.33127e-05
5.88354e-05
3.23662e-05
3.27499e-05
3.31062e-05
3.27166e-05
3.23665e-05
3.27499e-05
3.31048e-05
3.33115e-05
5.88371e-05
3.33126e-05
5.88371e-05
3.23664e-05
3.27166e-05
3.31046e-05
3.27497e-05
3.31062e-05
3.27498e-05
3.23659e-05
3.33128e-05
5.88354e-05
5.88356e-05
3.33116e-05
3.23665e-05
3.27165e-05
3.27498e-05
3.31047e-05
3.27498e-05
3.31062e-05
3.23662e-05
3.33127e-05
5.88371e-05
5.88371e-05
3.33115e-05
3.42028e-05
3.42044e-05
3.26433e-05
3.42018e-05
3.42036e-05
8.22509e-05
8.22509e-05
8.22496e-05
8.225e-05
3.26429e-05
3.42018e-05
3.42036e-05
3.42027e-05
3.42044e-05
8.22509e-05
8.22509e-05
3.23663e-05
3.27499e-05
3.31065e-05
3.27166e-05
3.23666e-05
3.27499e-05
3.3105e-05
3.33118e-05
5.88375e-05
3.33128e-05
5.88375e-05
3.33119e-05
5.88381e-05
3.33128e-05
5.88381e-05
3.23665e-05
3.27166e-05
3.27497e-05
3.31048e-05
3.27498e-05
3.31063e-05
3.2366e-05
3.23666e-05
3.27165e-05
3.27498e-05
3.3105e-05
3.27498e-05
3.31065e-05
3.23663e-05
3.33128e-05
5.88375e-05
5.88375e-05
3.33118e-05
3.33128e-05
5.88381e-05
5.88381e-05
3.33118e-05
8.22511e-05
8.22511e-05
8.22522e-05
8.22522e-05
3.26428e-05
3.42038e-05
3.42039e-05
3.42046e-05
3.42047e-05
8.22511e-05
8.22511e-05
8.22522e-05
8.22522e-05
8.22492e-05
8.22495e-05
8.2252e-05
8.22519e-05
3.42043e-05
3.42045e-05
3.26434e-05
3.42036e-05
3.42038e-05
8.22497e-05
8.22496e-05