/*--------------------------------*- C++ -*----------------------------------*\
| =========                 |                                                 |
| \\      /  F ield         | OpenFOAM: The Open Source CFD Toolbox           |
|  \\    /   O peration     | Version:  2206                                  |
|   \\  /    A nd           | Website:  www.openfoam.com                      |
|    \\/     M anipulation  |                                                 |
\*---------------------------------------------------------------------------*/
FoamFile
{
    version     2.0;
    format      ascii;
    arch        "LSB;label=32;scalar=64";
    class       volScalarField;
    location    "10";
    object      nut;
}
// * * * * * * * * * * * * * * * * * * * * * * * * * * * * * * * * * * * * * //

dimensions      [0 2 -1 0 0 0 0];

internalField   nonuniform List<scalar> 
28687
(
0.000231899
0.000227425
0.000227424
0.000220678
0.000231898
0.000227424
0.000227422
0.000220662
0.000231872
0.000227383
0.000227386
0.00022061
0.000231887
0.000227388
0.000227386
0.000220595
0.000231888
0.000227389
0.000227387
0.000220591
0.000231888
0.000227389
0.000227388
0.000220593
0.000231888
0.000227389
0.000227388
0.000220593
0.000231888
0.000227389
0.000227388
0.000220593
0.000231889
0.000227389
0.000227388
0.000220593
0.000231889
0.000227389
0.000227388
0.000220593
0.000231889
0.000227389
0.000227388
0.000220593
0.000231889
0.000227389
0.000227388
0.000220593
0.000231889
0.000227389
0.000227388
0.000220593
0.000231889
0.000227389
0.000227388
0.000220593
0.000231889
0.000227389
0.000227388
0.000220593
0.000231889
0.000227389
0.000227388
0.000220593
0.000231889
0.000227389
0.000227388
0.000220593
0.000231889
0.000227389
0.000227388
0.000220593
0.000227421
0.000220734
0.000227425
0.00022068
0.000220725
0.000227422
0.000227421
0.000227421
0.000227421
0.000220674
0.000220725
0.000227424
0.000227419
0.000227423
0.000227418
0.000227421
0.000227424
0.000227421
0.000220677
0.000220723
0.000227424
0.000227423
0.000227423
0.000220724
0.000220665
0.000220701
0.000227419
0.00022742
0.000227406
0.00022739
0.000220666
0.000220669
0.000227421
0.000227416
0.000227409
0.000227404
0.000227419
0.000227396
0.000227406
0.000220663
0.000220698
0.000227422
0.000227408
0.000227409
0.000220697
0.000220615
0.000220654
0.000227385
0.000227378
0.000227381
0.000227383
0.000220578
0.000220661
0.000227387
0.000227383
0.000227383
0.000227378
0.000227385
0.000227386
0.00022738
0.000220613
0.00022065
0.000227387
0.000227382
0.000227383
0.000220653
0.000220598
0.000220655
0.000227384
0.000227384
0.000227385
0.000227385
0.000220603
0.000220655
0.000227387
0.000227382
0.000227387
0.000227382
0.000227384
0.000227389
0.000227385
0.000220595
0.000220652
0.000227387
0.000227388
0.000227388
0.000220653
0.000220595
0.000220657
0.000227385
0.000227385
0.000227385
0.000227385
0.000220596
0.000220657
0.000227387
0.000227382
0.000227387
0.000227382
0.000227385
0.00022739
0.000227385
0.000220593
0.000220654
0.000227388
0.000227388
0.000227388
0.000220655
0.000220596
0.000220657
0.000227385
0.000227386
0.000227385
0.000227385
0.000220597
0.000220658
0.000227388
0.000227383
0.000227387
0.000227382
0.000227385
0.00022739
0.000227385
0.000220594
0.000220654
0.000227388
0.000227388
0.000227388
0.000220655
0.000220596
0.000220656
0.000227385
0.000227386
0.000227385
0.000227385
0.000220598
0.000220658
0.000227388
0.000227383
0.000227387
0.000227382
0.000227385
0.00022739
0.000227385
0.000220594
0.000220654
0.000227388
0.000227388
0.000227388
0.000220655
0.000220596
0.000220656
0.000227385
0.000227385
0.000227385
0.000227385
0.000220598
0.000220658
0.000227388
0.000227383
0.000227387
0.000227382
0.000227385
0.00022739
0.000227385
0.000220594
0.000220654
0.000227388
0.000227388
0.000227388
0.000220655
0.000220596
0.000220657
0.000227386
0.000227385
0.000227385
0.000227385
0.000220598
0.000220658
0.000227388
0.000227383
0.000227388
0.000227382
0.000227385
0.00022739
0.000227385
0.000220594
0.000220654
0.000227388
0.000227388
0.000227388
0.000220655
0.000220596
0.000220656
0.000227386
0.000227385
0.000227385
0.000227385
0.000220598
0.000220657
0.000227388
0.000227383
0.000227388
0.000227382
0.000227385
0.00022739
0.000227385
0.000220594
0.000220654
0.000227388
0.000227388
0.000227388
0.000220655
0.000220596
0.000220656
0.000227386
0.000227385
0.000227385
0.000227385
0.000220597
0.000220657
0.000227388
0.000227383
0.000227388
0.000227382
0.000227385
0.00022739
0.000227385
0.000220594
0.000220654
0.000227388
0.000227388
0.000227388
0.000220655
0.000220596
0.000220656
0.000227386
0.000227385
0.000227385
0.000227385
0.000220597
0.000220658
0.000227388
0.000227383
0.000227388
0.000227382
0.000227385
0.00022739
0.000227385
0.000220594
0.000220654
0.000227388
0.000227388
0.000227387
0.000220655
0.000220596
0.000220656
0.000227386
0.000227385
0.000227385
0.000227385
0.000220598
0.000220658
0.000227388
0.000227383
0.000227388
0.000227382
0.000227385
0.00022739
0.000227385
0.000220594
0.000220654
0.000227388
0.000227388
0.000227387
0.000220655
0.000220596
0.000220656
0.000227386
0.000227385
0.000227385
0.000227385
0.000220597
0.000220658
0.000227388
0.000227383
0.000227388
0.000227382
0.000227385
0.00022739
0.000227385
0.000220594
0.000220654
0.000227388
0.000227388
0.000227387
0.000220655
0.000220596
0.000220656
0.000227386
0.000227385
0.000227385
0.000227385
0.000220598
0.000220658
0.000227388
0.000227383
0.000227388
0.000227382
0.000227385
0.00022739
0.000227385
0.000220594
0.000220654
0.000227388
0.000227388
0.000227387
0.000220655
0.000220596
0.000220656
0.000227386
0.000227385
0.000227385
0.000227385
0.000220598
0.000220657
0.000227388
0.000227383
0.000227388
0.000227382
0.000227385
0.000227389
0.000227385
0.000220594
0.000220654
0.000227388
0.000227388
0.000227387
0.000220655
0.000220596
0.000220656
0.000227386
0.000227385
0.000227385
0.000227385
0.000220597
0.000220658
0.000227388
0.000227383
0.000227388
0.000227382
0.000227385
0.00022739
0.000227385
0.000220594
0.000220654
0.000227388
0.000227388
0.000227387
0.000220655
0.000220596
0.000227385
0.000227385
0.000220598
0.000227388
0.000227382
0.000227385
0.000220594
0.000227388
7.45353e-05
4.54489e-05
7.45098e-05
4.54483e-05
2.56908e-05
2.56897e-05
7.4543e-05
4.54454e-05
7.45202e-05
4.54447e-05
0.0002319
0.000231898
0.000231899
0.000231898
0.000231899
0.000231898
0.000231898
0.000166454
8.84918e-05
0.000230846
0.000227425
0.000166394
8.85241e-05
0.000230845
2.56898e-05
2.5688e-05
0.000166456
0.000230845
8.84632e-05
0.000227423
0.000166397
0.000230845
8.8517e-05
4.73844e-05
4.73751e-05
0.000220729
4.73944e-05
4.73848e-05
7.45427e-05
4.54485e-05
7.4529e-05
4.54477e-05
2.5689e-05
2.5689e-05
7.45516e-05
4.5445e-05
7.45391e-05
4.54442e-05
0.000231899
0.000231898
0.000231898
0.000231887
0.000231881
0.000231886
0.000231887
0.000166451
8.85064e-05
0.000230845
0.000227423
0.00016643
8.8523e-05
0.000230844
2.56872e-05
2.56866e-05
0.000166453
0.000230844
8.85042e-05
0.000227421
0.000166432
0.000230843
8.85273e-05
4.73992e-05
4.73899e-05
0.000220721
4.74074e-05
4.7398e-05
7.44443e-05
4.54551e-05
7.44861e-05
4.54623e-05
2.56969e-05
2.56971e-05
7.44511e-05
4.54517e-05
7.4495e-05
4.54587e-05
0.000231871
0.000231872
0.000231872
0.000231883
0.000231884
0.000231883
0.000231883
0.000166304
8.84319e-05
0.000230813
0.000227381
0.000166365
8.84107e-05
0.000230813
2.5692e-05
2.56948e-05
0.000166306
0.000230814
8.84597e-05
0.000227378
0.000166367
0.000230812
8.84268e-05
4.73719e-05
4.73629e-05
0.000220642
4.73375e-05
4.7328e-05
7.44273e-05
4.54633e-05
7.44141e-05
4.54626e-05
2.56971e-05
2.56969e-05
7.44367e-05
4.54598e-05
7.4425e-05
4.54591e-05
0.000231888
0.000231887
0.000231887
0.000231889
0.000231889
0.000231888
0.000231888
0.000166287
8.8379e-05
0.000230826
0.000227389
0.000166259
8.84027e-05
0.000230827
2.56951e-05
2.56948e-05
0.00016629
0.000230825
8.83848e-05
0.000227387
0.000166261
0.000230827
8.84064e-05
4.73221e-05
4.73126e-05
0.000220659
4.73275e-05
4.73179e-05
7.44274e-05
4.54633e-05
7.44143e-05
4.54626e-05
2.56972e-05
2.56969e-05
7.44368e-05
4.54598e-05
7.44251e-05
4.5459e-05
0.000231888
0.000231888
0.000231888
0.000231888
0.000231889
0.000231888
0.000231888
0.000166286
8.8379e-05
0.000230827
0.000227389
0.00016626
8.84028e-05
0.000230827
2.56951e-05
2.56947e-05
0.000166289
0.000230827
8.8384e-05
0.000227388
0.000166263
0.000230827
8.84063e-05
4.73228e-05
4.73133e-05
0.000220654
4.73279e-05
4.73183e-05
7.44274e-05
4.54633e-05
7.44143e-05
4.54626e-05
2.56972e-05
2.56969e-05
7.44369e-05
4.54598e-05
7.44252e-05
4.5459e-05
0.000231889
0.000231888
0.000231889
0.000231889
0.000231889
0.000231888
0.000231888
0.000166287
8.8379e-05
0.000230827
0.00022739
0.00016626
8.84026e-05
0.000230828
2.56951e-05
2.56947e-05
0.00016629
0.000230827
8.8384e-05
0.000227388
0.000166263
0.000230827
8.84063e-05
4.73228e-05
4.73134e-05
0.000220654
4.73279e-05
4.73183e-05
7.44274e-05
4.54635e-05
7.44143e-05
4.54628e-05
2.5697e-05
2.56966e-05
7.4437e-05
4.54598e-05
7.44253e-05
4.54591e-05
0.000231889
0.000231888
0.000231888
0.000231888
0.000231889
0.000231888
0.000231888
0.000166287
8.83787e-05
0.000230827
0.00022739
0.00016626
8.84026e-05
0.000230828
2.56951e-05
2.56947e-05
0.00016629
0.000230827
8.8384e-05
0.000227388
0.000166263
0.000230827
8.84063e-05
4.73228e-05
4.73134e-05
0.000220654
4.73279e-05
4.73183e-05
7.44273e-05
4.54633e-05
7.44142e-05
4.54622e-05
2.56973e-05
2.56972e-05
7.44371e-05
4.54598e-05
7.44254e-05
4.54591e-05
0.000231889
0.000231888
0.000231889
0.000231889
0.000231889
0.000231888
0.000231888
0.000166287
8.8379e-05
0.000230827
0.00022739
0.00016626
8.84027e-05
0.000230828
2.56951e-05
2.56947e-05
0.00016629
0.000230827
8.8384e-05
0.000227388
0.000166263
0.000230827
8.84063e-05
4.73228e-05
4.73134e-05
0.000220654
4.73279e-05
4.73183e-05
7.44273e-05
4.5463e-05
7.44142e-05
4.5462e-05
2.56975e-05
2.56973e-05
7.44371e-05
4.546e-05
7.44254e-05
4.54594e-05
0.000231889
0.000231888
0.000231889
0.000231889
0.000231889
0.000231888
0.000231888
0.000166287
8.83789e-05
0.000230827
0.00022739
0.00016626
8.84027e-05
0.000230828
2.56951e-05
2.56947e-05
0.00016629
0.000230827
8.8384e-05
0.000227388
0.000166263
0.000230827
8.84063e-05
4.73228e-05
4.73134e-05
0.000220654
4.73279e-05
4.73183e-05
7.44273e-05
4.54626e-05
7.44142e-05
4.54618e-05
2.56976e-05
2.56973e-05
7.44372e-05
4.54602e-05
7.44255e-05
4.54595e-05
0.000231889
0.000231888
0.000231889
0.000231889
0.000231889
0.000231888
0.000231888
0.000166287
8.83789e-05
0.000230827
0.00022739
0.00016626
8.84027e-05
0.000230828
2.56951e-05
2.56947e-05
0.00016629
0.000230827
8.8384e-05
0.000227388
0.000166263
0.000230827
8.84063e-05
4.73228e-05
4.73134e-05
0.000220654
4.73279e-05
4.73183e-05
7.44274e-05
4.54625e-05
7.44143e-05
4.54618e-05
2.56976e-05
2.56973e-05
7.44371e-05
4.54603e-05
7.44254e-05
4.54595e-05
0.000231889
0.000231888
0.000231889
0.000231889
0.000231889
0.000231888
0.000231888
0.000166287
8.83789e-05
0.000230827
0.00022739
0.00016626
8.84027e-05
0.000230827
2.56951e-05
2.56947e-05
0.00016629
0.000230827
8.8384e-05
0.000227388
0.000166263
0.000230827
8.84063e-05
4.73229e-05
4.73134e-05
0.000220654
4.73279e-05
4.73183e-05
7.44274e-05
4.54625e-05
7.44143e-05
4.54618e-05
2.56976e-05
2.56973e-05
7.44371e-05
4.54603e-05
7.44254e-05
4.54596e-05
0.000231889
0.000231888
0.000231888
0.000231889
0.000231889
0.000231888
0.000231888
0.000166287
8.83789e-05
0.000230827
0.000227389
0.00016626
8.84027e-05
0.000230827
2.56951e-05
2.56947e-05
0.00016629
0.000230827
8.8384e-05
0.000227388
0.000166263
0.000230827
8.84063e-05
4.73228e-05
4.73134e-05
0.000220654
4.73279e-05
4.73183e-05
7.44274e-05
4.54625e-05
7.44143e-05
4.54618e-05
2.56976e-05
2.56973e-05
7.44371e-05
4.54603e-05
7.44254e-05
4.54596e-05
0.000231889
0.000231888
0.000231888
0.000231889
0.000231889
0.000231888
0.000231888
0.000166287
8.83789e-05
0.000230827
0.000227389
0.00016626
8.84027e-05
0.000230827
2.56951e-05
2.56947e-05
0.00016629
0.000230827
8.8384e-05
0.000227388
0.000166263
0.000230827
8.84063e-05
4.73228e-05
4.73134e-05
0.000220654
4.73279e-05
4.73183e-05
7.44274e-05
4.54625e-05
7.44143e-05
4.54618e-05
2.56976e-05
2.56973e-05
7.44371e-05
4.54603e-05
7.44254e-05
4.54596e-05
0.000231889
0.000231888
0.000231888
0.000231889
0.000231889
0.000231888
0.000231888
0.000166287
8.83789e-05
0.000230827
0.00022739
0.00016626
8.84027e-05
0.000230827
2.56951e-05
2.56947e-05
0.00016629
0.000230827
8.8384e-05
0.000227388
0.000166263
0.000230827
8.84063e-05
4.73228e-05
4.73134e-05
0.000220654
4.73279e-05
4.73183e-05
7.44274e-05
4.54625e-05
7.44143e-05
4.54618e-05
2.56976e-05
2.56973e-05
7.44371e-05
4.54603e-05
7.44254e-05
4.54596e-05
0.000231889
0.000231888
0.000231888
0.000231888
0.000231889
0.000231888
0.000231888
0.000166287
8.83789e-05
0.000230827
0.00022739
0.00016626
8.84027e-05
0.000230827
2.56951e-05
2.56947e-05
0.000166289
0.000230827
8.8384e-05
0.000227388
0.000166263
0.000230827
8.84063e-05
4.73228e-05
4.73134e-05
0.000220654
4.73279e-05
4.73183e-05
7.44274e-05
4.54625e-05
7.44143e-05
4.54618e-05
2.56976e-05
2.56973e-05
7.44371e-05
4.54603e-05
7.44254e-05
4.54596e-05
0.000231889
0.000231888
0.000231888
0.000231889
0.000231889
0.000231888
0.000231888
0.000166287
8.83789e-05
0.000230827
0.000227389
0.00016626
8.84027e-05
0.000230827
2.56951e-05
2.56947e-05
0.00016629
0.000230827
8.8384e-05
0.000227388
0.000166262
0.000230827
8.84063e-05
4.73228e-05
4.73133e-05
0.000220654
4.73279e-05
4.73182e-05
7.44273e-05
4.54625e-05
7.44142e-05
4.54618e-05
2.56976e-05
2.56973e-05
7.44371e-05
4.54603e-05
7.44253e-05
4.54596e-05
0.000231889
0.000231888
0.000231888
0.000231889
0.000231889
0.000231888
0.000231888
0.000166287
8.83789e-05
0.000230827
0.000227389
0.00016626
8.84026e-05
0.000230827
2.56951e-05
2.56947e-05
0.00016629
0.000230827
8.8384e-05
0.000227388
0.000166262
0.000230827
8.84063e-05
4.73229e-05
4.73133e-05
0.000220654
4.73279e-05
4.73182e-05
7.44236e-05
4.54625e-05
7.44143e-05
4.54618e-05
2.56976e-05
2.56973e-05
7.44313e-05
4.54603e-05
7.44254e-05
4.54596e-05
0.000231889
0.000231888
0.000231888
0.000166287
8.83789e-05
0.000230827
0.000227389
0.00016626
8.84027e-05
0.000230828
2.56951e-05
2.56948e-05
0.000166284
0.000230827
8.8384e-05
0.000227388
0.000166263
0.000230828
8.83928e-05
4.73229e-05
4.73133e-05
0.000220658
4.73283e-05
4.73157e-05
4.54475e-05
8.85094e-05
2.5691e-05
4.73849e-05
4.73832e-05
2.56913e-05
8.851e-05
4.54468e-05
2.56931e-05
2.56914e-05
2.56911e-05
2.56895e-05
4.73868e-05
4.73761e-05
0.00022073
4.73965e-05
4.73857e-05
2.56905e-05
2.56913e-05
2.56886e-05
2.56894e-05
0.000220671
4.74042e-05
4.73935e-05
4.73972e-05
4.73866e-05
7.45359e-05
4.54476e-05
7.45102e-05
4.54471e-05
0.000166452
8.84661e-05
0.000230845
0.000227422
0.000166393
8.85206e-05
0.000230845
0.000166454
8.84966e-05
0.000230846
0.000227421
0.000166394
8.85229e-05
0.000230846
7.45289e-05
4.5448e-05
4.54483e-05
7.4541e-05
7.45295e-05
4.54469e-05
4.54471e-05
7.45416e-05
0.000166435
0.000227422
8.85291e-05
0.000230845
8.85066e-05
0.000230845
0.000166457
0.000166436
0.000227422
8.85285e-05
0.000230846
8.85078e-05
0.000230846
0.000166459
4.73845e-05
4.73826e-05
0.000220729
4.7392e-05
4.73911e-05
2.56912e-05
2.569e-05
2.56889e-05
2.56896e-05
0.00022067
4.73994e-05
4.73975e-05
4.73928e-05
4.73899e-05
2.56894e-05
2.569e-05
0.000166456
8.84496e-05
0.000230845
0.000227424
0.000166398
8.85056e-05
0.000230845
7.45405e-05
4.54436e-05
7.45176e-05
4.54427e-05
0.000166453
0.000230844
8.84408e-05
0.000227418
0.000166394
0.000230844
8.84972e-05
7.45384e-05
4.54444e-05
4.54448e-05
7.45495e-05
0.000166439
0.000227424
8.85134e-05
0.000230845
8.84903e-05
0.000230845
0.000166459
7.45358e-05
4.54424e-05
4.54428e-05
7.45466e-05
0.000166436
0.000227418
0.000230844
8.85051e-05
0.000230844
8.84819e-05
0.000166456
7.45349e-05
4.54469e-05
7.45093e-05
4.54463e-05
0.000166453
0.000230845
8.84621e-05
0.000227421
0.000166394
0.000230845
8.85164e-05
7.45344e-05
4.54461e-05
7.45088e-05
4.54453e-05
0.000166437
0.000227425
8.85292e-05
0.000230845
8.85079e-05
0.000230846
0.000166456
7.45283e-05
4.5446e-05
4.54464e-05
7.454e-05
0.000166436
0.000227421
0.000230845
8.85244e-05
0.000230845
8.85023e-05
0.000166456
7.45278e-05
4.54449e-05
4.54452e-05
7.45395e-05
4.73621e-05
4.73842e-05
0.000220727
4.73733e-05
4.73941e-05
2.56919e-05
2.56902e-05
2.56871e-05
2.5688e-05
0.000220668
4.73803e-05
4.7402e-05
4.73726e-05
4.73948e-05
2.56893e-05
2.56901e-05
0.000166458
0.000230845
8.84559e-05
0.000227424
0.000166398
0.000230845
8.85105e-05
7.45418e-05
4.54459e-05
7.4519e-05
4.5445e-05
7.45422e-05
4.54454e-05
7.45193e-05
4.54446e-05
0.000166439
0.000227423
0.000230845
8.85252e-05
0.000230845
8.85033e-05
0.000166459
0.00016644
0.000227424
0.000230845
8.85186e-05
0.000230845
8.84962e-05
0.000166461
7.45371e-05
4.54447e-05
4.54451e-05
7.45479e-05
7.45374e-05
4.54443e-05
4.54446e-05
7.45481e-05
2.56918e-05
2.56901e-05
2.5691e-05
2.56893e-05
0.000220669
4.74021e-05
4.73926e-05
4.7395e-05
4.73856e-05
2.56892e-05
2.56899e-05
2.56884e-05
2.56891e-05
2.56905e-05
2.56901e-05
2.56885e-05
2.56882e-05
4.74041e-05
4.73937e-05
0.00022072
4.741e-05
4.73993e-05
2.56919e-05
2.56901e-05
2.56901e-05
2.56882e-05
0.00022066
4.73943e-05
4.73831e-05
4.74075e-05
4.73972e-05
7.45432e-05
4.54469e-05
7.45344e-05
4.54472e-05
0.000166452
8.85131e-05
0.000230844
0.000227418
0.000166436
8.85313e-05
0.000230843
0.000166455
8.85122e-05
0.000230845
0.000227417
0.000166439
8.85212e-05
0.000230844
7.45322e-05
4.54503e-05
4.54478e-05
7.45157e-05
7.4533e-05
4.54565e-05
4.54476e-05
7.45168e-05
0.000166424
0.000227416
8.85022e-05
0.000230832
8.85116e-05
0.000230841
0.000166419
0.000166427
0.00022741
8.84656e-05
0.000230829
8.84951e-05
0.00023084
0.000166418
4.73995e-05
4.73954e-05
0.000220717
4.73985e-05
4.7399e-05
2.56894e-05
2.56895e-05
2.56953e-05
2.56895e-05
0.000220653
4.73579e-05
4.73622e-05
4.73909e-05
4.73881e-05
2.56955e-05
2.569e-05
0.000166454
8.84962e-05
0.000230844
0.00022742
0.000166437
8.85153e-05
0.000230843
7.45487e-05
4.54425e-05
7.45412e-05
4.54425e-05
0.000166451
0.000230844
8.84881e-05
0.000227415
0.000166435
0.000230843
8.85069e-05
7.45428e-05
4.54468e-05
4.54444e-05
7.45233e-05
0.000166428
0.000227418
8.84855e-05
0.000230832
8.84945e-05
0.000230841
0.000166423
7.45402e-05
4.54445e-05
4.54426e-05
7.45221e-05
0.000166424
0.000227413
0.000230831
8.84779e-05
0.00023084
8.84861e-05
0.00016642
7.45417e-05
4.54461e-05
7.45328e-05
4.54466e-05
0.00016645
0.000230844
8.85086e-05
0.000227418
0.000166431
0.000230843
8.85265e-05
7.45412e-05
4.54449e-05
7.45322e-05
4.5445e-05
0.000166425
0.000227416
8.84711e-05
0.00023083
8.84965e-05
0.000230841
0.000166421
7.45316e-05
4.54557e-05
4.54473e-05
7.45164e-05
0.000166424
0.000227415
0.000230832
8.84972e-05
0.000230841
8.85069e-05
0.00016642
7.45311e-05
4.54469e-05
4.54451e-05
7.45158e-05
4.7379e-05
4.74019e-05
0.000220717
4.7386e-05
4.74077e-05
2.56893e-05
2.56889e-05
2.56888e-05
2.56868e-05
0.000220658
4.73698e-05
4.73916e-05
4.73818e-05
4.74051e-05
2.56908e-05
2.5689e-05
0.000166455
0.000230844
8.85026e-05
0.000227421
0.000166437
0.000230843
8.85206e-05
7.45498e-05
4.54447e-05
7.45424e-05
4.54447e-05
7.45502e-05
4.54443e-05
7.45426e-05
4.54444e-05
0.000166427
0.000227418
0.000230832
8.84975e-05
0.00023084
8.85081e-05
0.000166424
0.000166429
0.000227418
0.000230832
8.84912e-05
0.000230841
8.85007e-05
0.000166426
7.45413e-05
4.54467e-05
4.54448e-05
7.45235e-05
7.45417e-05
4.54463e-05
4.54444e-05
7.45237e-05
2.56892e-05
2.56888e-05
2.56884e-05
2.5688e-05
0.000220661
4.73907e-05
4.73816e-05
4.74045e-05
4.73953e-05
2.56907e-05
2.56888e-05
2.56898e-05
2.5688e-05
2.56949e-05
2.56981e-05
2.5693e-05
2.56962e-05
4.73768e-05
4.7366e-05
0.000220641
4.73391e-05
4.73289e-05
2.56982e-05
2.56984e-05
2.56963e-05
2.56965e-05
0.000220577
4.73293e-05
4.73189e-05
4.73317e-05
4.73215e-05
7.44438e-05
4.54609e-05
7.44905e-05
4.54625e-05
0.000166302
8.84679e-05
0.000230814
0.000227377
0.000166367
8.84314e-05
0.000230813
0.000166302
8.84296e-05
0.000230812
0.000227377
0.000166364
8.84107e-05
0.000230812
7.44277e-05
4.54628e-05
4.5463e-05
7.44276e-05
7.44277e-05
4.54624e-05
4.54625e-05
7.44283e-05
0.00016627
0.000227377
8.84125e-05
0.000230822
8.84047e-05
0.000230816
0.000166286
0.000166271
0.000227379
8.8404e-05
0.000230822
8.83901e-05
0.000230816
0.000166286
4.73414e-05
4.73432e-05
0.000220643
4.7319e-05
4.73173e-05
2.56974e-05
2.56978e-05
2.56969e-05
2.56971e-05
0.000220588
4.73178e-05
4.73158e-05
4.7316e-05
4.73121e-05
2.56976e-05
2.56978e-05
0.000166304
8.84506e-05
0.000230814
0.00022738
0.00016637
8.84149e-05
0.000230813
7.44493e-05
4.54489e-05
7.44972e-05
4.54569e-05
0.000166302
0.000230814
8.84433e-05
0.000227375
0.000166368
0.000230812
8.84076e-05
7.44362e-05
4.54592e-05
4.54596e-05
7.44369e-05
0.000166273
0.000227379
8.83953e-05
0.000230822
8.83872e-05
0.000230816
0.000166288
7.4434e-05
4.54575e-05
4.54581e-05
7.44345e-05
0.00016627
0.000227374
0.000230821
8.83864e-05
0.000230816
8.83793e-05
0.000166286
7.44436e-05
4.54602e-05
7.44905e-05
4.54618e-05
0.000166303
0.000230814
8.84634e-05
0.000227377
0.000166369
0.000230813
8.84264e-05
7.44432e-05
4.54511e-05
7.44899e-05
4.54594e-05
0.000166272
0.000227383
8.84029e-05
0.000230822
8.83883e-05
0.000230817
0.000166285
7.44272e-05
4.54615e-05
4.54618e-05
7.44274e-05
0.000166271
0.000227377
0.000230822
8.84071e-05
0.000230816
8.83998e-05
0.000166285
7.44266e-05
4.546e-05
4.54604e-05
7.44268e-05
4.73518e-05
4.7374e-05
0.000220639
4.73169e-05
4.73369e-05
2.56938e-05
2.5697e-05
2.56948e-05
2.5695e-05
0.000220574
4.73029e-05
4.73269e-05
4.73073e-05
4.73294e-05
2.56971e-05
2.56972e-05
0.000166307
0.000230814
8.84571e-05
0.00022738
0.000166373
0.000230813
8.84203e-05
7.44505e-05
4.54511e-05
7.44986e-05
4.54592e-05
7.44507e-05
4.54506e-05
7.44987e-05
4.54588e-05
0.000166275
0.000227379
0.000230822
8.84079e-05
0.000230817
8.84008e-05
0.000166287
0.000166275
0.000227379
0.000230822
8.84011e-05
0.000230816
8.83935e-05
0.00016629
7.44352e-05
4.54598e-05
4.54602e-05
7.44356e-05
7.44354e-05
4.54594e-05
4.54598e-05
7.44359e-05
2.56936e-05
2.56968e-05
2.56927e-05
2.5696e-05
0.000220578
4.7327e-05
4.73173e-05
4.73296e-05
4.73202e-05
2.56969e-05
2.5697e-05
2.56961e-05
2.56963e-05
2.56982e-05
2.56982e-05
2.56963e-05
2.56962e-05
4.73275e-05
4.73173e-05
0.000220662
4.73296e-05
4.73193e-05
2.56982e-05
2.56982e-05
2.56962e-05
2.56962e-05
0.000220602
4.73296e-05
4.73193e-05
4.73278e-05
4.73177e-05
7.4428e-05
4.54624e-05
7.44198e-05
4.54623e-05
0.000166287
8.83939e-05
0.000230826
0.000227385
0.000166265
8.84106e-05
0.000230827
0.000166288
8.83864e-05
0.000230826
0.000227385
0.000166265
8.84038e-05
0.000230827
7.44193e-05
4.54627e-05
4.54626e-05
7.44276e-05
7.44199e-05
4.54623e-05
4.54623e-05
7.44282e-05
0.000166267
0.000227385
8.84105e-05
0.000230827
8.83933e-05
0.000230827
0.000166288
0.000166268
0.000227385
8.84038e-05
0.000230827
8.83866e-05
0.000230827
0.000166289
4.73156e-05
4.73121e-05
0.00022066
4.7318e-05
4.73162e-05
2.56977e-05
2.56976e-05
2.5697e-05
2.56969e-05
0.0002206
4.73185e-05
4.73163e-05
4.73163e-05
4.73121e-05
2.56976e-05
2.56977e-05
0.000166291
8.83759e-05
0.000230826
0.000227388
0.000166268
8.83934e-05
0.000230827
7.44341e-05
4.54576e-05
7.44275e-05
4.54574e-05
0.000166288
0.000230826
8.83671e-05
0.000227382
0.000166265
0.000230827
8.83847e-05
7.44303e-05
4.54591e-05
4.54592e-05
7.44368e-05
0.000166271
0.000227388
8.83935e-05
0.000230827
8.83753e-05
0.000230827
0.000166292
7.44275e-05
4.54573e-05
4.54575e-05
7.44342e-05
0.000166267
0.000227382
0.000230826
8.83847e-05
0.000230827
8.83664e-05
0.000166288
7.44269e-05
4.54616e-05
7.44189e-05
4.54614e-05
0.000166287
0.000230826
8.83891e-05
0.000227385
0.000166265
0.000230827
8.84055e-05
7.44265e-05
4.546e-05
7.44183e-05
4.54599e-05
0.000166267
0.000227389
8.84026e-05
0.000230827
8.83846e-05
0.000230827
0.000166286
7.44188e-05
4.54614e-05
4.54615e-05
7.44271e-05
0.000166267
0.000227385
0.000230827
8.84054e-05
0.000230827
8.83884e-05
0.000166287
7.44183e-05
4.54599e-05
4.54599e-05
7.44267e-05
4.72993e-05
4.73251e-05
0.000220658
4.73038e-05
4.73274e-05
2.56971e-05
2.5697e-05
2.56948e-05
2.56949e-05
0.000220599
4.73043e-05
4.73275e-05
4.73004e-05
4.73255e-05
2.5697e-05
2.5697e-05
0.000166292
0.000230826
8.8383e-05
0.000227388
0.000166269
0.000230827
8.83996e-05
7.44351e-05
4.54598e-05
7.44286e-05
4.54597e-05
7.44356e-05
4.54594e-05
7.44289e-05
4.54593e-05
0.00016627
0.000227388
0.000230827
8.84062e-05
0.000230827
8.83897e-05
0.000166289
0.000166272
0.000227388
0.000230827
8.83995e-05
0.000230827
8.83823e-05
0.000166293
7.44285e-05
4.54596e-05
4.54597e-05
7.44354e-05
7.4429e-05
4.54592e-05
4.54593e-05
7.44358e-05
2.56969e-05
2.56968e-05
2.56961e-05
2.5696e-05
0.000220599
4.73277e-05
4.73181e-05
4.73256e-05
4.73161e-05
2.56968e-05
2.56968e-05
2.5696e-05
2.5696e-05
2.56982e-05
2.56981e-05
2.56963e-05
2.56962e-05
4.73278e-05
4.73176e-05
0.000220656
4.73296e-05
4.73194e-05
2.56982e-05
2.56982e-05
2.56962e-05
2.56962e-05
0.000220599
4.73298e-05
4.73193e-05
4.73279e-05
4.73178e-05
7.44279e-05
4.54623e-05
7.44199e-05
4.54623e-05
0.000166286
8.8393e-05
0.000230827
0.000227385
0.000166267
8.84104e-05
0.000230827
0.000166287
8.83865e-05
0.000230827
0.000227385
0.000166267
8.8404e-05
0.000230827
7.44193e-05
4.54627e-05
4.54626e-05
7.44276e-05
7.44198e-05
4.54623e-05
4.54623e-05
7.44281e-05
0.000166266
0.000227386
8.84103e-05
0.000230827
8.83933e-05
0.000230827
0.000166288
0.000166266
0.000227386
8.84042e-05
0.000230827
8.83869e-05
0.000230827
0.000166289
4.73166e-05
4.73126e-05
0.000220658
4.73191e-05
4.73167e-05
2.56977e-05
2.56976e-05
2.5697e-05
2.56969e-05
0.000220601
4.73195e-05
4.73162e-05
4.73174e-05
4.73123e-05
2.56976e-05
2.56977e-05
0.00016629
8.8375e-05
0.000230827
0.000227387
0.000166271
8.83934e-05
0.000230827
7.44341e-05
4.54574e-05
7.44275e-05
4.54573e-05
0.000166287
0.000230826
8.83664e-05
0.000227382
0.000166266
0.000230826
8.83847e-05
7.44304e-05
4.54591e-05
4.54592e-05
7.44369e-05
0.00016627
0.000227388
8.83935e-05
0.000230827
8.83753e-05
0.000230827
0.000166291
7.44275e-05
4.54573e-05
4.54574e-05
7.44343e-05
0.000166266
0.000227383
0.000230826
8.83847e-05
0.000230827
8.83665e-05
0.000166288
7.44268e-05
4.54615e-05
7.44189e-05
4.54614e-05
0.000166286
0.000230827
8.83884e-05
0.000227385
0.000166266
0.000230827
8.84055e-05
7.44264e-05
4.54599e-05
7.44184e-05
4.54599e-05
0.000166266
0.00022739
8.84026e-05
0.000230827
8.83846e-05
0.000230827
0.000166285
7.44186e-05
4.54614e-05
4.54615e-05
7.4427e-05
0.000166266
0.000227386
0.000230827
8.84054e-05
0.000230827
8.83884e-05
0.000166287
7.44182e-05
4.54599e-05
4.54599e-05
7.44266e-05
4.73007e-05
4.73256e-05
0.000220653
4.73042e-05
4.73276e-05
2.5697e-05
2.5697e-05
2.56948e-05
2.56948e-05
0.000220596
4.73043e-05
4.73275e-05
4.73005e-05
4.73256e-05
2.5697e-05
2.5697e-05
0.000166292
0.000230827
8.83822e-05
0.000227388
0.000166271
0.000230827
8.83997e-05
7.44352e-05
4.54596e-05
7.44287e-05
4.54596e-05
7.44357e-05
4.54592e-05
7.44291e-05
4.54592e-05
0.000166269
0.000227388
0.000230827
8.84062e-05
0.000230827
8.83896e-05
0.000166289
0.000166271
0.000227388
0.000230827
8.83995e-05
0.000230827
8.83823e-05
0.000166293
7.44286e-05
4.54596e-05
4.54596e-05
7.44354e-05
7.4429e-05
4.54592e-05
4.54592e-05
7.44358e-05
2.56968e-05
2.56968e-05
2.5696e-05
2.5696e-05
0.000220596
4.73278e-05
4.73182e-05
4.73258e-05
4.73164e-05
2.56968e-05
2.56968e-05
2.5696e-05
2.5696e-05
2.56982e-05
2.56982e-05
2.56962e-05
2.56962e-05
4.73279e-05
4.73177e-05
0.000220656
4.73297e-05
4.73194e-05
2.56982e-05
2.56982e-05
2.56962e-05
2.56962e-05
0.000220599
4.73296e-05
4.73194e-05
4.73278e-05
4.73178e-05
7.44279e-05
4.54623e-05
7.44198e-05
4.54623e-05
0.000166287
8.83928e-05
0.000230827
0.000227385
0.000166267
8.84102e-05
0.000230827
0.000166288
8.83869e-05
0.000230827
0.000227386
0.000166267
8.84032e-05
0.000230827
7.44193e-05
4.54627e-05
4.54626e-05
7.44276e-05
7.44197e-05
4.54621e-05
4.54623e-05
7.4428e-05
0.000166266
0.000227385
8.84104e-05
0.000230827
8.83931e-05
0.000230827
0.000166288
0.000166266
0.000227386
8.84003e-05
0.000230827
8.8384e-05
0.000230827
0.000166288
4.73177e-05
4.73123e-05
0.000220658
4.73182e-05
4.73159e-05
2.56977e-05
2.56976e-05
2.56968e-05
2.5697e-05
0.000220601
4.7314e-05
4.73152e-05
4.73137e-05
4.73115e-05
2.56976e-05
2.56977e-05
0.000166291
8.8375e-05
0.000230827
0.000227388
0.000166271
8.83934e-05
0.000230827
7.44344e-05
4.54574e-05
7.44277e-05
4.54573e-05
0.000166288
0.000230827
8.83664e-05
0.000227383
0.000166267
0.000230827
8.83847e-05
7.44304e-05
4.54591e-05
4.54592e-05
7.44369e-05
0.00016627
0.000227388
8.83935e-05
0.000230827
8.83753e-05
0.000230828
0.000166291
7.44278e-05
4.54573e-05
4.54574e-05
7.44346e-05
0.000166266
0.000227383
0.000230826
8.83847e-05
0.000230827
8.83665e-05
0.000166288
7.44269e-05
4.54615e-05
7.44188e-05
4.54614e-05
0.000166287
0.000230827
8.83883e-05
0.000227385
0.000166266
0.000230827
8.84055e-05
7.44265e-05
4.54599e-05
7.44183e-05
4.54599e-05
0.000166267
0.00022739
8.84023e-05
0.000230827
8.83844e-05
0.000230828
0.000166285
7.44187e-05
4.54614e-05
4.54615e-05
7.44271e-05
0.000166266
0.000227386
0.000230827
8.84054e-05
0.000230827
8.83884e-05
0.000166286
7.44182e-05
4.54599e-05
4.54599e-05
7.44266e-05
4.73007e-05
4.73256e-05
0.000220653
4.73042e-05
4.73276e-05
2.5697e-05
2.5697e-05
2.56948e-05
2.56948e-05
0.000220596
4.73043e-05
4.73275e-05
4.73005e-05
4.73256e-05
2.5697e-05
2.5697e-05
0.000166292
0.000230827
8.83822e-05
0.000227388
0.000166271
0.000230827
8.83997e-05
7.44351e-05
4.54597e-05
7.44287e-05
4.54596e-05
7.44356e-05
4.54592e-05
7.44291e-05
4.54592e-05
0.000166269
0.000227388
0.000230827
8.84062e-05
0.000230827
8.83896e-05
0.000166288
0.000166271
0.000227388
0.000230827
8.83995e-05
0.000230827
8.83823e-05
0.000166292
7.44286e-05
4.54596e-05
4.54597e-05
7.44354e-05
7.4429e-05
4.54592e-05
4.54592e-05
7.44357e-05
2.56968e-05
2.56968e-05
2.5696e-05
2.5696e-05
0.000220595
4.73278e-05
4.73182e-05
4.73258e-05
4.73164e-05
2.56968e-05
2.56968e-05
2.5696e-05
2.5696e-05
2.56982e-05
2.56979e-05
2.56962e-05
2.56962e-05
4.73276e-05
4.73177e-05
0.000220656
4.73289e-05
4.73195e-05
2.56979e-05
2.56979e-05