/*--------------------------------*- C++ -*----------------------------------*\
| =========                 |                                                 |
| \\      /  F ield         | OpenFOAM: The Open Source CFD Toolbox           |
|  \\    /   O peration     | Version:  2206                                  |
|   \\  /    A nd           | Website:  www.openfoam.com                      |
|    \\/     M anipulation  |                                                 |
\*---------------------------------------------------------------------------*/
FoamFile
{
    version     2.0;
    format      ascii;
    arch        "LSB;label=32;scalar=64";
    class       volVectorField;
    location    "10";
    object      U;
}
// * * * * * * * * * * * * * * * * * * * * * * * * * * * * * * * * * * * * * //

dimensions      [0 1 -1 0 0 0 0];

internalField   nonuniform List<vector> 
28687
(
(-3.99029e-07 -4.04778e-07 0.101259)
(-2.2814e-07 4.02758e-07 0.101255)
(4.13581e-07 -2.25752e-07 0.101255)
(-3.56784e-05 -3.56968e-05 0.101248)
(-4.32798e-07 -4.17078e-07 0.101258)
(-1.91733e-07 4.14035e-07 0.101255)
(3.69664e-07 -1.59334e-07 0.101255)
(-3.56434e-05 -3.56516e-05 0.101248)
(-3.2695e-07 -3.2328e-07 0.101259)
(-3.27763e-07 4.57817e-07 0.101255)
(4.72476e-07 -3.36361e-07 0.101255)
(-3.58216e-05 -3.58312e-05 0.101248)
(-3.77241e-07 -3.74508e-07 0.101259)
(-2.64402e-07 4.40245e-07 0.101255)
(4.35801e-07 -2.67911e-07 0.101255)
(-3.57296e-05 -3.57467e-05 0.101248)
(-3.83782e-07 -3.8104e-07 0.101259)
(-2.56909e-07 4.34425e-07 0.101255)
(4.31316e-07 -2.57976e-07 0.101255)
(-3.57208e-05 -3.57365e-05 0.101248)
(-3.84366e-07 -3.79392e-07 0.101259)
(-2.56256e-07 4.36375e-07 0.101255)
(4.31114e-07 -2.56795e-07 0.101255)
(-3.57207e-05 -3.57354e-05 0.101248)
(-3.8192e-07 -3.71036e-07 0.101259)
(-2.56612e-07 4.49738e-07 0.101255)
(4.30839e-07 -2.54324e-07 0.101255)
(-3.57204e-05 -3.57334e-05 0.101248)
(-3.75879e-07 -3.75067e-07 0.101259)
(-2.5118e-07 4.20948e-07 0.101255)
(4.31383e-07 -2.53342e-07 0.101255)
(-3.57201e-05 -3.57332e-05 0.101248)
(-3.73077e-07 -3.77648e-07 0.101259)
(-2.5722e-07 4.32907e-07 0.101255)
(4.31478e-07 -2.55486e-07 0.101255)
(-3.57189e-05 -3.57345e-05 0.101248)
(-3.82061e-07 -3.83688e-07 0.101259)
(-2.57458e-07 4.30598e-07 0.101255)
(4.30394e-07 -2.5567e-07 0.101255)
(-3.57193e-05 -3.57349e-05 0.101248)
(-3.83588e-07 -3.82271e-07 0.101259)
(-2.56995e-07 4.31759e-07 0.101255)
(4.31003e-07 -2.57569e-07 0.101255)
(-3.57198e-05 -3.5736e-05 0.101248)
(-3.83686e-07 -3.82161e-07 0.101259)
(-2.56577e-07 4.31628e-07 0.101255)
(4.31262e-07 -2.57892e-07 0.101255)
(-3.57198e-05 -3.57357e-05 0.101248)
(-3.83861e-07 -3.81862e-07 0.101259)
(-2.57263e-07 4.32101e-07 0.101255)
(4.312e-07 -2.58369e-07 0.101255)
(-3.57206e-05 -3.57365e-05 0.101248)
(-3.84184e-07 -3.82033e-07 0.101259)
(-2.56516e-07 4.31569e-07 0.101255)
(4.30472e-07 -2.57423e-07 0.101255)
(-3.57201e-05 -3.5736e-05 0.101248)
(-3.84302e-07 -3.82302e-07 0.101259)
(-2.5623e-07 4.31448e-07 0.101255)
(4.30772e-07 -2.57497e-07 0.101255)
(-3.572e-05 -3.57356e-05 0.101248)
(-3.84619e-07 -3.82621e-07 0.101259)
(-2.55549e-07 4.30941e-07 0.101255)
(4.30228e-07 -2.56944e-07 0.101255)
(-3.572e-05 -3.57355e-05 0.101248)
(-3.85733e-07 -3.8266e-07 0.101259)
(-2.55999e-07 4.3119e-07 0.101255)
(4.28744e-07 -2.55682e-07 0.101255)
(-3.57175e-05 -3.57312e-05 0.101248)
(-3.92694e-07 -3.87924e-07 0.101259)
(-2.51043e-07 4.26736e-07 0.101255)
(4.27521e-07 -2.52648e-07 0.101255)
(-3.57066e-05 -3.5716e-05 0.101248)
(-4.24422e-07 2.42829e-07 0.101255)
(3.69784e-05 -3.69552e-05 0.101249)
(-2.38368e-07 4.11474e-07 0.101255)
(3.56892e-05 3.56647e-05 0.101248)
(-3.70113e-05 -3.6982e-05 0.101248)
(4.28174e-07 2.3077e-07 0.101255)
(-4.18304e-07 2.40555e-07 0.101255)
(3.97067e-07 1.94782e-07 0.101255)
(-3.80689e-07 1.8034e-07 0.101255)
(-3.56853e-05 3.56557e-05 0.101248)
(3.70521e-05 -3.7034e-05 0.101248)
(2.27216e-07 4.14609e-07 0.101255)
(2.35257e-07 -4.24186e-07 0.101255)
(1.83761e-07 3.92265e-07 0.101255)
(1.96547e-07 -3.98481e-07 0.101255)
(-2.326e-07 -4.24565e-07 0.101255)
(-1.79712e-07 3.71272e-07 0.101255)
(-1.99153e-07 -3.94937e-07 0.101255)
(3.56674e-05 -3.56997e-05 0.101248)
(-3.69831e-05 3.70146e-05 0.101248)
(-4.10113e-07 -2.2648e-07 0.101255)
(3.88064e-07 -1.84217e-07 0.101255)
(-3.88773e-07 -1.85431e-07 0.101255)
(3.69852e-05 3.70093e-05 0.101248)
(3.56442e-05 3.56366e-05 0.101248)
(-3.68763e-05 -3.68483e-05 0.101248)
(3.72578e-07 1.78157e-07 0.101255)
(-4.23083e-07 2.283e-07 0.101255)
(4.89448e-07 3.57911e-07 0.101255)
(-4.93448e-07 3.48926e-07 0.101255)
(-3.56277e-05 3.55914e-05 0.101248)
(3.68972e-05 -3.68796e-05 0.101248)
(1.56474e-07 3.81192e-07 0.101255)
(1.69222e-07 -3.7936e-07 0.101255)
(3.40329e-07 4.94817e-07 0.101255)
(3.55381e-07 -4.96869e-07 0.101255)
(-1.74311e-07 -3.69539e-07 0.101255)
(-3.35889e-07 4.78874e-07 0.101255)
(-3.5869e-07 -4.86684e-07 0.101255)
(3.56275e-05 -3.5661e-05 0.101248)
(-3.6848e-05 3.68833e-05 0.101248)
(-3.71702e-07 -1.55597e-07 0.101255)
(4.85471e-07 -3.42101e-07 0.101255)
(-4.8913e-07 -3.42819e-07 0.101255)
(3.68502e-05 3.68781e-05 0.101248)
(3.58243e-05 3.58152e-05 0.101248)
(-3.6957e-05 -3.694e-05 0.101249)
(4.83236e-07 3.48709e-07 0.101255)
(-4.70102e-07 3.28967e-07 0.101255)
(4.50926e-07 2.83963e-07 0.101255)
(-4.58342e-07 2.97055e-07 0.101255)
(-3.58064e-05 3.57711e-05 0.101248)
(3.69664e-05 -3.69232e-05 0.101249)
(3.37315e-07 4.79123e-07 0.101255)
(3.4618e-07 -4.83492e-07 0.101255)
(2.76304e-07 4.4244e-07 0.101255)
(2.8632e-07 -4.49853e-07 0.101255)
(-3.45412e-07 -4.79386e-07 0.101255)
(-2.73378e-07 4.46435e-07 0.101255)
(-2.84495e-07 -4.50464e-07 0.101255)
(3.58085e-05 -3.58375e-05 0.101248)
(-3.69363e-05 3.6968e-05 0.101249)
(-4.73029e-07 -3.34431e-07 0.101255)
(4.38591e-07 -2.74344e-07 0.101255)
(-4.38304e-07 -2.75919e-07 0.101255)
(3.69408e-05 3.69572e-05 0.101249)
(3.57374e-05 3.57216e-05 0.101248)
(-3.69701e-05 -3.69523e-05 0.101249)
(4.44919e-07 2.78497e-07 0.101255)
(-4.53128e-07 2.83227e-07 0.101255)
(4.42276e-07 2.65078e-07 0.101255)
(-4.45923e-07 2.71176e-07 0.101255)
(-3.57379e-05 3.57276e-05 0.101248)
(3.69757e-05 -3.6952e-05 0.101249)
(2.69714e-07 4.3905e-07 0.101255)
(2.7717e-07 -4.46484e-07 0.101255)
(2.58087e-07 4.33982e-07 0.101255)
(2.68608e-07 -4.42056e-07 0.101255)
(-2.74528e-07 -4.45073e-07 0.101255)
(-2.57425e-07 4.36115e-07 0.101255)
(-2.6676e-07 -4.40739e-07 0.101255)
(3.57177e-05 -3.575e-05 0.101248)
(-3.69488e-05 3.69813e-05 0.101249)
(-4.34074e-07 -2.65702e-07 0.101255)
(4.31096e-07 -2.55994e-07 0.101255)
(-4.30361e-07 -2.56792e-07 0.101255)
(3.69536e-05 3.69716e-05 0.101249)
(3.57283e-05 3.57133e-05 0.101248)
(-3.69718e-05 -3.69513e-05 0.101249)
(4.40608e-07 2.72005e-07 0.101255)
(-4.43922e-07 2.6858e-07 0.101255)
(4.41887e-07 2.64989e-07 0.101255)
(-4.43404e-07 2.68122e-07 0.101255)
(-3.57295e-05 3.57061e-05 0.101248)
(3.69783e-05 -3.69532e-05 0.101249)
(2.59985e-07 4.34682e-07 0.101255)
(2.67424e-07 -4.41549e-07 0.101255)
(2.56536e-07 4.34948e-07 0.101255)
(2.67525e-07 -4.40512e-07 0.101255)
(-2.65259e-07 -4.39196e-07 0.101255)
(-2.56101e-07 4.35377e-07 0.101255)
(-2.66198e-07 -4.39247e-07 0.101255)
(3.57091e-05 -3.57408e-05 0.101248)
(-3.69492e-05 3.69826e-05 0.101249)
(-4.29328e-07 -2.55132e-07 0.101255)
(4.30559e-07 -2.54752e-07 0.101255)
(-4.29986e-07 -2.54995e-07 0.101255)
(3.69541e-05 3.69731e-05 0.101249)
(3.57275e-05 3.57136e-05 0.101248)
(-3.69748e-05 -3.69391e-05 0.101249)
(4.37474e-07 2.70635e-07 0.101255)
(-4.44666e-07 2.71105e-07 0.101255)
(4.43109e-07 2.74574e-07 0.101255)
(-4.48402e-07 2.79467e-07 0.101255)
(-3.5728e-05 3.57097e-05 0.101248)
(3.69772e-05 -3.69343e-05 0.101249)
(2.58655e-07 4.35708e-07 0.101255)
(2.66932e-07 -4.39906e-07 0.101255)
(2.55238e-07 4.41788e-07 0.101255)
(2.67407e-07 -4.37641e-07 0.101255)
(-2.65099e-07 -4.37663e-07 0.101255)
(-2.55116e-07 4.44533e-07 0.101255)
(-2.65912e-07 -4.36222e-07 0.101255)
(3.57092e-05 -3.57399e-05 0.101248)
(-3.69496e-05 3.6985e-05 0.101249)
(-4.29155e-07 -2.53942e-07 0.101255)
(4.3017e-07 -2.52478e-07 0.101255)
(-4.29024e-07 -2.53524e-07 0.101255)
(3.69549e-05 3.69755e-05 0.101249)
(3.57282e-05 3.57323e-05 0.101248)
(-3.6977e-05 -3.69424e-05 0.101249)
(4.46173e-07 2.87172e-07 0.101255)
(-4.5055e-07 2.86783e-07 0.101255)
(4.42561e-07 2.64464e-07 0.101255)
(-4.4273e-07 2.77654e-07 0.101255)
(-3.57333e-05 3.57278e-05 0.101248)
(3.69843e-05 -3.69465e-05 0.101249)
(2.56689e-07 4.45779e-07 0.101255)
(2.66693e-07 -4.36921e-07 0.101255)
(2.54544e-07 4.39104e-07 0.101255)
(2.66323e-07 -4.36754e-07 0.101255)
(-2.65676e-07 -4.34537e-07 0.101255)
(-2.53717e-07 4.33196e-07 0.101255)
(-2.70382e-07 -4.35964e-07 0.101255)
(3.5709e-05 -3.57379e-05 0.101248)
(-3.69504e-05 3.69856e-05 0.101249)
(-4.27701e-07 -2.53377e-07 0.101255)
(4.30143e-07 -2.50212e-07 0.101255)
(-4.26903e-07 -2.60398e-07 0.101255)
(3.69544e-05 3.69757e-05 0.101249)
(3.57307e-05 3.57196e-05 0.101248)
(-3.69829e-05 -3.69426e-05 0.101249)
(4.48004e-07 2.72008e-07 0.101255)
(-4.24653e-07 2.59493e-07 0.101255)
(4.47937e-07 2.7763e-07 0.101255)
(-4.45953e-07 2.75753e-07 0.101255)
(-3.57148e-05 3.56993e-05 0.101248)
(3.69733e-05 -3.69518e-05 0.101249)
(2.59496e-07 4.3838e-07 0.101255)
(2.65874e-07 -4.37476e-07 0.101255)
(2.59505e-07 4.3068e-07 0.101255)
(2.67273e-07 -4.38654e-07 0.101255)
(-2.69746e-07 -4.3634e-07 0.101255)
(-2.60204e-07 4.3754e-07 0.101255)
(-2.63806e-07 -4.38702e-07 0.101255)
(3.57081e-05 -3.57375e-05 0.101248)
(-3.69493e-05 3.69837e-05 0.101249)
(-4.26417e-07 -2.61083e-07 0.101255)
(4.31169e-07 -2.5249e-07 0.101255)
(-4.27762e-07 -2.55685e-07 0.101255)
(3.69555e-05 3.69736e-05 0.101249)
(3.57276e-05 3.57143e-05 0.101248)
(-3.69812e-05 -3.69482e-05 0.101249)
(4.47411e-07 2.764e-07 0.101255)
(-4.38092e-07 2.61278e-07 0.101255)
(4.39693e-07 2.6472e-07 0.101255)
(-4.41922e-07 2.67295e-07 0.101255)
(-3.57295e-05 3.57076e-05 0.101248)
(3.69821e-05 -3.69522e-05 0.101249)
(2.60951e-07 4.3219e-07 0.101255)
(2.66808e-07 -4.38911e-07 0.101255)
(2.55052e-07 4.31726e-07 0.101255)
(2.66158e-07 -4.39996e-07 0.101255)
(-2.62625e-07 -4.37196e-07 0.101255)
(-2.55627e-07 4.31252e-07 0.101255)
(-2.63957e-07 -4.38353e-07 0.101255)
(3.57085e-05 -3.57386e-05 0.101248)
(-3.695e-05 3.69828e-05 0.101249)
(-4.27064e-07 -2.54123e-07 0.101255)
(4.29968e-07 -2.52978e-07 0.101255)
(-4.28206e-07 -2.55093e-07 0.101255)
(3.69552e-05 3.69736e-05 0.101249)
(3.57319e-05 3.57075e-05 0.101248)
(-3.69796e-05 -3.69479e-05 0.101249)
(4.41836e-07 2.65288e-07 0.101255)
(-4.41587e-07 2.63324e-07 0.101255)
(4.41836e-07 2.65922e-07 0.101255)
(-4.44549e-07 2.68004e-07 0.101255)
(-3.57256e-05 3.5705e-05 0.101248)
(3.69764e-05 -3.69524e-05 0.101249)
(2.58004e-07 4.32732e-07 0.101255)
(2.65306e-07 -4.40397e-07 0.101255)
(2.55731e-07 4.31232e-07 0.101255)
(2.66941e-07 -4.41351e-07 0.101255)
(-2.63002e-07 -4.37649e-07 0.101255)
(-2.56303e-07 4.32443e-07 0.101255)
(-2.65422e-07 -4.40035e-07 0.101255)
(3.57077e-05 -3.57394e-05 0.101248)
(-3.6949e-05 3.69814e-05 0.101249)
(-4.27772e-07 -2.53664e-07 0.101255)
(4.3043e-07 -2.5483e-07 0.101255)
(-4.29414e-07 -2.55843e-07 0.101255)
(3.69545e-05 3.69721e-05 0.101249)
(3.57328e-05 3.57066e-05 0.101248)
(-3.69783e-05 -3.69474e-05 0.101249)
(4.41697e-07 2.63663e-07 0.101255)
(-4.44394e-07 2.67106e-07 0.101255)
(4.42448e-07 2.66832e-07 0.101255)
(-4.44251e-07 2.67629e-07 0.101255)
(-3.57285e-05 3.57061e-05 0.101248)
(3.69769e-05 -3.69524e-05 0.101249)
(2.58666e-07 4.31511e-07 0.101255)
(2.66412e-07 -4.4133e-07 0.101255)
(2.56082e-07 4.31325e-07 0.101255)
(2.67245e-07 -4.41526e-07 0.101255)
(-2.64579e-07 -4.39282e-07 0.101255)
(-2.55432e-07 4.31977e-07 0.101255)
(-2.65173e-07 -4.39774e-07 0.101255)
(3.57086e-05 -3.57406e-05 0.101248)
(-3.6949e-05 3.69812e-05 0.101249)
(-4.28877e-07 -2.54544e-07 0.101255)
(4.30453e-07 -2.55159e-07 0.101255)
(-4.28902e-07 -2.54108e-07 0.101255)
(3.69546e-05 3.69726e-05 0.101249)
(3.57343e-05 3.57072e-05 0.101248)
(-3.6978e-05 -3.6947e-05 0.101249)
(4.42794e-07 2.6474e-07 0.101255)
(-4.44294e-07 2.67065e-07 0.101255)
(4.43109e-07 2.67671e-07 0.101255)
(-4.45098e-07 2.68552e-07 0.101255)
(-3.57281e-05 3.57062e-05 0.101248)
(3.69763e-05 -3.69517e-05 0.101249)
(2.59004e-07 4.32028e-07 0.101255)
(2.66845e-07 -4.41512e-07 0.101255)
(2.56478e-07 4.31781e-07 0.101255)
(2.67694e-07 -4.4175e-07 0.101255)
(-2.64262e-07 -4.38924e-07 0.101255)
(-2.56422e-07 4.32865e-07 0.101255)
(-2.65974e-07 -4.40666e-07 0.101255)
(3.57089e-05 -3.57409e-05 0.101248)
(-3.69488e-05 3.69811e-05 0.101249)
(-4.28439e-07 -2.54808e-07 0.101255)
(4.30689e-07 -2.55738e-07 0.101255)
(-4.29871e-07 -2.56841e-07 0.101255)
(3.69538e-05 3.69716e-05 0.101249)
(3.57345e-05 3.57074e-05 0.101248)
(-3.69785e-05 -3.69474e-05 0.101249)
(4.42692e-07 2.65227e-07 0.101255)
(-4.44799e-07 2.67577e-07 0.101255)
(4.42416e-07 2.67252e-07 0.101255)
(-4.44349e-07 2.679e-07 0.101255)
(-3.57286e-05 3.57068e-05 0.101248)
(3.69768e-05 -3.69521e-05 0.101249)
(2.59182e-07 4.32055e-07 0.101255)
(2.67035e-07 -4.41585e-07 0.101255)
(2.55722e-07 4.311e-07 0.101255)
(2.66787e-07 -4.40912e-07 0.101255)
(-2.64915e-07 -4.39647e-07 0.101255)
(-2.5566e-07 4.32159e-07 0.101255)
(-2.65188e-07 -4.40064e-07 0.101255)
(3.57089e-05 -3.57409e-05 0.101248)
(-3.69493e-05 3.69818e-05 0.101249)
(-4.2918e-07 -2.56109e-07 0.101255)
(4.29947e-07 -2.54975e-07 0.101255)
(-4.29419e-07 -2.56687e-07 0.101255)
(3.69541e-05 3.69719e-05 0.101249)
(3.57339e-05 3.57069e-05 0.101248)
(-3.6979e-05 -3.69478e-05 0.101249)
(4.42417e-07 2.64889e-07 0.101255)
(-4.44177e-07 2.66978e-07 0.101255)
(4.42261e-07 2.66794e-07 0.101255)
(-4.44413e-07 2.67633e-07 0.101255)
(-3.5728e-05 3.57063e-05 0.101248)
(3.6977e-05 -3.69524e-05 0.101249)
(2.5866e-07 4.31752e-07 0.101255)
(2.66062e-07 -4.40736e-07 0.101255)
(2.55375e-07 4.30964e-07 0.101255)
(2.66796e-07 -4.41183e-07 0.101255)
(-2.64029e-07 -4.39101e-07 0.101255)
(-2.55351e-07 4.32123e-07 0.101255)
(-2.6468e-07 -4.39783e-07 0.101255)
(3.57081e-05 -3.57401e-05 0.101248)
(-3.69492e-05 3.69817e-05 0.101249)
(-4.28789e-07 -2.55779e-07 0.101255)
(4.30214e-07 -2.54888e-07 0.101255)
(-4.29307e-07 -2.5629e-07 0.101255)
(3.69543e-05 3.69724e-05 0.101249)
(3.57335e-05 3.57066e-05 0.101248)
(-3.69795e-05 -3.6948e-05 0.101249)
(4.41931e-07 2.6428e-07 0.101255)
(-4.44111e-07 2.66762e-07 0.101255)
(4.41878e-07 2.66425e-07 0.101255)
(-4.43866e-07 2.67032e-07 0.101255)
(-3.57278e-05 3.5706e-05 0.101248)
(3.69776e-05 -3.69531e-05 0.101249)
(2.5819e-07 4.31263e-07 0.101255)
(2.66196e-07 -4.40968e-07 0.101255)
(2.54894e-07 4.30718e-07 0.101255)
(2.66189e-07 -4.40526e-07 0.101255)
(-2.63613e-07 -4.3868e-07 0.101255)
(-2.54791e-07 4.31582e-07 0.101255)
(-2.6449e-07 -4.39523e-07 0.101255)
(3.57085e-05 -3.57404e-05 0.101248)
(-3.69502e-05 3.69825e-05 0.101249)
(-4.28471e-07 -2.55339e-07 0.101255)
(4.29583e-07 -2.54288e-07 0.101255)
(-4.29242e-07 -2.55978e-07 0.101255)
(3.69544e-05 3.69726e-05 0.101249)
(3.57332e-05 3.57065e-05 0.101248)
(-3.69787e-05 -3.6947e-05 0.101249)
(4.41768e-07 2.64074e-07 0.101255)
(-4.43625e-07 2.66229e-07 0.101255)
(4.41018e-07 2.65969e-07 0.101255)
(-4.43398e-07 2.66405e-07 0.101255)
(-3.57273e-05 3.57053e-05 0.101248)
(3.69775e-05 -3.6953e-05 0.101249)
(2.57827e-07 4.31283e-07 0.101255)
(2.65579e-07 -4.4049e-07 0.101255)
(2.54145e-07 4.304e-07 0.101255)
(2.65524e-07 -4.401e-07 0.101255)
(-2.62999e-07 -4.38436e-07 0.101255)
(-2.54354e-07 4.30928e-07 0.101255)
(-2.63914e-07 -4.38353e-07 0.101255)
(3.57077e-05 -3.57397e-05 0.101248)
(-3.69493e-05 3.69815e-05 0.101249)
(-4.28296e-07 -2.54866e-07 0.101255)
(4.2897e-07 -2.53848e-07 0.101255)
(-4.28812e-07 -2.55017e-07 0.101255)
(3.6954e-05 3.69719e-05 0.101249)
(3.57293e-05 3.57031e-05 0.101248)
(-3.69736e-05 -3.69405e-05 0.101249)
(4.39899e-07 2.63025e-07 0.101255)
(-4.44633e-07 2.65383e-07 0.101255)
(4.36129e-07 2.61212e-07 0.101255)
(-4.43379e-07 2.61753e-07 0.101255)
(-3.57259e-05 3.57032e-05 0.101248)
(3.69726e-05 -3.69499e-05 0.101249)
(2.56097e-07 4.30084e-07 0.101255)
(2.64171e-07 -4.39227e-07 0.101255)
(2.47954e-07 4.26838e-07 0.101255)
(2.59441e-07 -4.36032e-07 0.101255)
(-2.63009e-07 -4.37188e-07 0.101255)
(-2.52651e-07 4.31065e-07 0.101255)
(-2.60943e-07 -4.34763e-07 0.101255)
(3.57039e-05 -3.57361e-05 0.101248)
(-3.69439e-05 3.69755e-05 0.101249)
(-4.27659e-07 -2.53053e-07 0.101255)
(4.243e-07 -2.4808e-07 0.101255)
(-4.26441e-07 -2.48558e-07 0.101255)
(3.69473e-05 3.69666e-05 0.101249)
(3.57139e-05 3.56888e-05 0.101248)
(4.38221e-07 2.61198e-07 0.101255)
(-4.44504e-07 2.62251e-07 0.101255)
(-3.57185e-05 3.56935e-05 0.101248)
(2.52666e-07 4.30102e-07 0.101255)
(2.6124e-07 -4.38428e-07 0.101255)
(-2.60501e-07 -4.32497e-07 0.101255)
(3.56888e-05 -3.57213e-05 0.101248)
(-4.28751e-07 -2.49689e-07 0.101255)
(1.09322e-08 -6.30628e-06 0.100714)
(6.11456e-07 4.88683e-06 0.0976417)
(1.31774e-08 6.14776e-06 0.100712)
(-7.94888e-07 -5.27838e-06 0.0976447)
(-1.14983e-06 1.3092e-06 0.0901939)
(1.42218e-06 -1.92543e-06 0.0901978)
(-6.32563e-06 -1.39123e-08 0.100713)
(4.84551e-06 5.63918e-07 0.0976412)
(6.19313e-06 8.06218e-09 0.100712)
(-5.21707e-06 -7.66224e-07 0.0976449)
(4.20281e-07 -4.00497e-07 0.101259)
(-3.98452e-07 4.0198e-07 0.101259)
(4.01597e-07 3.94972e-07 0.101259)
(-4.26407e-07 -4.2169e-07 0.101259)
(4.35829e-07 -4.19252e-07 0.101259)
(-4.22225e-07 4.26828e-07 0.101259)
(4.20861e-07 4.23355e-07 0.101259)
(1.08952e-05 -5.53008e-08 0.101171)
(-9.57967e-06 2.83616e-06 0.100824)
(-2.77296e-07 -1.47013e-07 0.101258)
(-2.20573e-07 3.98866e-07 0.101255)
(-1.07671e-05 1.65466e-08 0.10117)
(9.45318e-06 -3.21294e-06 0.100826)
(-2.62313e-07 -1.57594e-07 0.101258)
(1.17355e-06 -1.07079e-06 0.0901916)
(-1.63819e-06 1.21892e-06 0.0901966)
(-3.51533e-08 1.09016e-05 0.101171)
(-1.36689e-07 -2.74958e-07 0.101258)
(2.90892e-06 -9.63534e-06 0.100824)
(4.07415e-07 -2.14894e-07 0.101255)
(2.5759e-08 -1.07786e-05 0.10117)
(-1.4222e-07 -2.55714e-07 0.101258)
(-3.16243e-06 9.43113e-06 0.100826)
(-3.14571e-06 -3.68981e-06 0.100128)
(-3.67725e-06 -3.14353e-06 0.100128)
(3.69721e-05 3.69889e-05 0.101249)
(2.8812e-06 3.61597e-06 0.10013)
(3.61103e-06 2.87647e-06 0.10013)
(-1.42238e-07 -6.38507e-06 0.100713)
(7.27136e-07 4.9235e-06 0.0976427)
(-1.14799e-08 6.06115e-06 0.100712)
(-6.80867e-07 -5.46901e-06 0.0976456)
(-9.01328e-07 9.7874e-07 0.0901974)
(1.05067e-06 -1.56746e-06 0.0902031)
(-6.46381e-06 -4.32204e-08 0.100713)
(4.88175e-06 6.96667e-07 0.0976422)
(6.1041e-06 -1.39037e-08 0.100712)
(-5.43203e-06 -6.06013e-07 0.0976457)
(4.23186e-07 -4.0052e-07 0.101258)
(-4.23005e-07 4.27773e-07 0.101258)
(4.17244e-07 4.28788e-07 0.101258)
(-3.31912e-07 -3.2055e-07 0.101258)
(3.08368e-07 -3.10832e-07 0.101258)
(-3.25315e-07 3.295e-07 0.101258)
(3.20749e-07 3.28632e-07 0.101258)
(1.09533e-05 7.78626e-10 0.10117)
(-9.42414e-06 2.65394e-06 0.100823)
(-2.20302e-07 -1.42324e-07 0.101258)
(-2.53492e-07 4.89128e-07 0.101255)
(-1.06785e-05 1.56813e-08 0.10117)
(9.39148e-06 -3.03041e-06 0.100825)
(-2.6861e-07 -1.01272e-07 0.101258)
(1.2374e-06 -1.13198e-06 0.0901948)
(-2.07854e-06 1.49345e-06 0.0902009)
(-5.46922e-08 1.09795e-05 0.10117)
(-1.58552e-07 -1.97792e-07 0.101258)
(2.78638e-06 -9.51964e-06 0.100823)
(4.08584e-07 -2.07547e-07 0.101255)
(8.86542e-09 -1.06833e-05 0.10117)
(-1.58807e-07 -2.35914e-07 0.101258)
(-3.331e-06 9.56035e-06 0.100825)
(-3.16933e-06 -3.60157e-06 0.100128)
(-3.59952e-06 -3.16043e-06 0.100128)
(3.70031e-05 3.7037e-05 0.101248)
(2.99015e-06 3.73019e-06 0.10013)
(3.71213e-06 2.99883e-06 0.10013)
(4.1666e-08 -6.16065e-06 0.100714)
(5.92575e-07 6.01956e-06 0.0976429)
(6.41753e-08 6.30744e-06 0.100712)
(-8.56063e-07 -4.69179e-06 0.0976447)
(-1.49457e-06 2.07515e-06 0.0901942)
(1.18772e-06 -1.41873e-06 0.090196)
(-6.18176e-06 5.76026e-09 0.100714)
(5.96394e-06 5.54324e-07 0.0976424)
(6.35086e-06 4.61921e-08 0.100712)
(-4.64284e-06 -8.23863e-07 0.0976448)
(3.36544e-07 -3.3643e-07 0.101259)
(-3.23826e-07 3.26947e-07 0.101259)
(3.21756e-07 3.24018e-07 0.101259)
(-3.70414e-07 -3.68565e-07 0.101259)
(3.73993e-07 -3.68995e-07 0.101259)
(-3.68435e-07 3.70782e-07 0.101259)
(3.67882e-07 3.67535e-07 0.101259)
(1.05626e-05 -4.44329e-08 0.101171)
(-9.89667e-06 3.19209e-06 0.100824)
(-4.3705e-07 -1.14789e-07 0.101258)
(-3.06575e-07 4.52014e-07 0.101255)
(-1.12387e-05 5.20628e-08 0.10117)
(9.20209e-06 -2.94125e-06 0.100826)
(-4.05589e-07 -1.2723e-07 0.101258)
(2.44362e-06 -1.75935e-06 0.0901951)
(-1.13579e-06 1.03467e-06 0.0901961)
(-1.3652e-08 1.05619e-05 0.101171)
(-1.05249e-07 -4.39955e-07 0.101258)
(3.33607e-06 -9.98516e-06 0.100823)
(4.54992e-07 -3.09842e-07 0.101255)
(5.57192e-08 -1.12446e-05 0.10117)
(-1.13556e-07 -4.05584e-07 0.101258)
(-2.87062e-06 9.18062e-06 0.100826)
(-2.87592e-06 -3.84665e-06 0.100128)
(-3.8455e-06 -2.86946e-06 0.100127)
(3.69096e-05 3.69263e-05 0.101249)
(3.09331e-06 3.53234e-06 0.10013)
(3.52144e-06 3.09095e-06 0.10013)
(-3.31477e-09 -6.25527e-06 0.100714)
(6.90564e-07 5.14733e-06 0.0976417)
(-6.16858e-09 6.15809e-06 0.100712)
(-8.1103e-07 -5.02817e-06 0.0976443)
(-1.33675e-06 1.6046e-06 0.0901932)
(1.17797e-06 -1.52238e-06 0.0901958)
(-6.29302e-06 -8.0705e-09 0.100714)
(5.10588e-06 6.54262e-07 0.0976412)
(6.19415e-06 6.66339e-09 0.100712)
(-4.97631e-06 -7.74422e-07 0.0976444)
(3.76681e-07 -3.73565e-07 0.101259)
(-3.74645e-07 3.7688e-07 0.101259)
(3.74166e-07 3.74448e-07 0.101259)
(-3.82908e-07 -3.80549e-07 0.101259)
(3.8231e-07 -3.81021e-07 0.101259)
(-3.8004e-07 3.82514e-07 0.101259)
(3.79523e-07 3.80125e-07 0.101259)
(1.07539e-05 -3.72348e-08 0.101171)
(-9.64365e-06 2.91674e-06 0.100824)
(-3.32718e-07 -1.2761e-07 0.101258)
(-2.58497e-07 4.33699e-07 0.101255)
(-1.08637e-05 2.92868e-08 0.10117)
(9.31394e-06 -3.04477e-06 0.100826)
(-3.226e-07 -1.28877e-07 0.101258)
(1.46849e-06 -1.2196e-06 0.0901915)
(-1.45309e-06 1.14723e-06 0.0901955)
(-3.03981e-08 1.07622e-05 0.101171)
(-1.29769e-07 -3.34595e-07 0.101258)
(2.93971e-06 -9.67817e-06 0.100824)
(4.32235e-07 -2.59632e-07 0.101255)
(2.68749e-08 -1.0874e-05 0.10117)
(-1.31424e-07 -3.19384e-07 0.101258)
(-3.06755e-06 9.33866e-06 0.100826)
(-3.10458e-06 -3.68342e-06 0.100128)
(-3.67392e-06 -3.10094e-06 0.100128)
(3.69533e-05 3.69708e-05 0.101249)
(3.00311e-06 3.58276e-06 0.10013)
(3.57569e-06 2.99918e-06 0.10013)
(-2.88425e-09 -6.25978e-06 0.100714)
(6.90784e-07 5.13457e-06 0.0976417)
(-3.71528e-09 6.14356e-06 0.100712)
(-8.08598e-07 -5.02629e-06 0.0976443)
(-1.26744e-06 1.52362e-06 0.0901929)
(1.16432e-06 -1.50629e-06 0.090196)
(-6.29611e-06 -8.30576e-09 0.100714)
(5.08853e-06 6.54877e-07 0.0976412)
(6.17959e-06 6.17577e-09 0.100712)
(-4.97954e-06 -7.73464e-07 0.0976444)
(3.82565e-07 -3.81313e-07 0.101259)
(-3.80748e-07 3.83225e-07 0.101259)
(3.80311e-07 3.81259e-07 0.101259)
(-3.83718e-07 -3.79743e-07 0.101259)
(3.82719e-07 -3.80571e-07 0.101259)
(-3.80881e-07 3.84135e-07 0.101259)
(3.79699e-07 3.81887e-07 0.101259)
(1.07569e-05 -3.59487e-08 0.101171)
(-9.63406e-06 2.91203e-06 0.100824)
(-3.17871e-07 -1.30654e-07 0.101258)
(-2.55914e-07 4.35258e-07 0.101255)
(-1.08477e-05 3.14097e-08 0.10117)
(9.31622e-06 -3.04228e-06 0.100826)
(-3.15901e-07 -1.30733e-07 0.101258)
(1.46341e-06 -1.23e-06 0.0901916)
(-1.44981e-06 1.1442e-06 0.0901955)
(-3.04736e-08 1.07654e-05 0.101171)
(-1.32027e-07 -3.17696e-07 0.101258)
(2.93432e-06 -9.66304e-06 0.100824)
(4.29998e-07 -2.5503e-07 0.101255)
(2.55562e-08 -1.08549e-05 0.10117)
(-1.32217e-07 -3.11433e-07 0.101258)
(-3.06643e-06 9.34151e-06 0.100826)
(-3.09639e-06 -3.68188e-06 0.100128)
(-3.67371e-06 -3.09203e-06 0.100128)
(3.69561e-05 3.69746e-05 0.101249)
(3.00486e-06 3.58282e-06 0.10013)
(3.57474e-06 3.00156e-06 0.10013)
(-4.15877e-09 -6.25801e-06 0.100714)
(6.8973e-07 5.13002e-06 0.0976416)
(-2.53811e-09 6.14233e-06 0.100712)
(-8.09823e-07 -5.02186e-06 0.0976443)
(-1.23519e-06 1.48142e-06 0.0901925)
(1.17762e-06 -1.50989e-06 0.0901962)
(-6.29639e-06 -5.71395e-09 0.100714)
(5.08925e-06 6.57115e-07 0.0976412)
(6.17881e-06 7.41062e-09 0.100712)
(-4.98005e-06 -7.70346e-07 0.0976444)
(3.82292e-07 -3.79213e-07 0.101259)
(-3.81122e-07 3.84833e-07 0.101259)
(3.80552e-07 3.83064e-07 0.101259)
(-3.82825e-07 -3.72814e-07 0.101259)
(3.81107e-07 -3.72029e-07 0.101259)
(-3.80604e-07 3.86895e-07 0.101259)
(3.80168e-07 3.84644e-07 0.101259)
(1.07576e-05 -3.31284e-08 0.101171)
(-9.63347e-06 2.91375e-06 0.100824)
(-3.17094e-07 -1.28339e-07 0.101258)
(-2.55077e-07 4.3776e-07 0.101255)
(-1.08462e-05 3.32075e-08 0.10117)
(9.31653e-06 -3.03931e-06 0.100826)
(-3.15247e-07 -1.27181e-07 0.101258)
(1.46455e-06 -1.22898e-06 0.0901916)
(-1.44953e-06 1.14504e-06 0.0901955)
(-3.00977e-08 1.07667e-05 0.101171)
(-1.31965e-07 -3.16196e-07 0.101258)
(2.93446e-06 -9.66212e-06 0.100824)
(4.29906e-07 -2.53464e-07 0.101255)
(2.58831e-08 -1.08541e-05 0.10117)
(-1.31873e-07 -3.09606e-07 0.101258)
(-3.06607e-06 9.34233e-06 0.100826)
(-3.09673e-06 -3.6804e-06 0.100128)
(-3.67323e-06 -3.09126e-06 0.100128)
(3.69565e-05 3.69764e-05 0.101249)
(3.00483e-06 3.58411e-06 0.10013)
(3.57476e-06 3.00261e-06 0.10013)
(9.62201e-09 -6.25025e-06 0.100714)
(7.3976e-07 5.15755e-06 0.0976416)
(2.70916e-09 6.14935e-06 0.100712)
(-6.63418e-07 -4.98463e-06 0.0976444)
(-1.33992e-06 1.57369e-06 0.090193)
(1.12016e-06 -1.45784e-06 0.0901957)
(-6.29494e-06 -1.78781e-09 0.100714)
(5.08911e-06 6.65363e-07 0.0976412)
(6.17815e-06 1.13643e-08 0.100712)
(-4.98852e-06 -7.64542e-07 0.0976444)
(3.80637e-07 -3.69053e-07 0.101259)
(-3.8063e-07 3.88233e-07 0.101259)
(3.82271e-07 3.84934e-07 0.101259)
(-3.76533e-07 -3.71165e-07 0.101259)
(3.87037e-07 -3.74661e-07 0.101259)
(-3.7908e-07 3.88936e-07 0.101259)
(3.88298e-07 3.78514e-07 0.101259)
(1.07581e-05 -2.99504e-08 0.101171)
(-9.62968e-06 2.92499e-06 0.100824)
(-3.17103e-07 -1.21112e-07 0.101258)
(-2.545e-07 4.4646e-07 0.101255)
(-1.08454e-05 3.79718e-08 0.10117)
(9.32132e-06 -3.02792e-06 0.100826)
(-3.15349e-07 -1.21045e-07 0.101258)
(1.465e-06 -1.22826e-06 0.0901916)
(-1.44909e-06 1.14582e-06 0.0901955)
(-2.99097e-08 1.07673e-05 0.101171)
(-1.31404e-07 -3.13617e-07 0.101258)
(2.93518e-06 -9.66151e-06 0.100824)
(4.29285e-07 -2.50791e-07 0.101255)
(2.62813e-08 -1.08536e-05 0.10117)
(-1.31598e-07 -3.07377e-07 0.101258)
(-3.06547e-06 9.34342e-06 0.100826)
(-3.09736e-06 -3.68e-06 0.100128)
(-3.67386e-06 -3.09117e-06 0.100128)
(3.69572e-05 3.69786e-05 0.101249)
(3.0044e-06 3.58491e-06 0.10013)
(3.57543e-06 3.00189e-06 0.10013)
(1.78401e-08 -6.2575e-06 0.100714)
(7.12997e-07 5.11734e-06 0.0976417)
(1.23837e-09 6.14425e-06 0.100712)
(-7.81138e-07 -5.01491e-06 0.0976444)
(-1.22061e-06 1.52357e-06 0.090193)
(1.303e-06 -1.58412e-06 0.0901955)
(-6.29451e-06 -4.17832e-09 0.100714)
(5.10144e-06 6.69288e-07 0.0976412)
(6.17755e-06 1.12846e-08 0.100712)
(-5.00477e-06 -7.75972e-07 0.0976444)
(3.90793e-07 -3.81699e-07 0.101259)
(-3.78735e-07 3.884e-07 0.101259)
(3.8963e-07 3.77239e-07 0.101259)
(-3.71515e-07 -3.74394e-07 0.101259)
(3.887e-07 -3.82654e-07 0.101259)
(-3.7837e-07 3.84999e-07 0.101259)
(3.82519e-07 3.78955e-07 0.101259)
(1.07562e-05 -3.99927e-08 0.101171)
(-9.63394e-06 2.90422e-06 0.100824)
(-3.15344e-07 -1.3149e-07 0.101258)
(-2.53979e-07 4.19285e-07 0.101255)
(-1.08458e-05 3.05491e-08 0.10117)
(9.31238e-06 -3.05726e-06 0.100826)
(-3.13794e-07 -1.35847e-07 0.101258)
(1.46531e-06 -1.22826e-06 0.0901916)
(-1.44934e-06 1.14535e-06 0.0901955)
(-2.94595e-08 1.07663e-05 0.101171)
(-1.31604e-07 -3.15867e-07 0.101258)
(2.93555e-06 -9.66098e-06 0.100824)
(4.30449e-07 -2.5102e-07 0.101255)
(2.66726e-08 -1.08532e-05 0.10117)
(-1.31721e-07 -3.11009e-07 0.101258)
(-3.06501e-06 9.34283e-06 0.100826)
(-3.09611e-06 -3.6829e-06 0.100128)
(-3.67458e-06 -3.09178e-06 0.100128)
(3.69566e-05 3.69762e-05 0.101249)
(3.00537e-06 3.58233e-06 0.10013)
(3.57562e-06 3.00137e-06 0.10013)
(1.5435e-08 -6.26328e-06 0.100714)
(7.69191e-07 5.1612e-06 0.0976416)
(1.21253e-08 6.14708e-06 0.100712)
(-7.60923e-07 -4.97549e-06 0.0976445)
(-1.20144e-06 1.31622e-06 0.0901931)
(1.17577e-06 -1.62823e-06 0.0901957)
(-6.29524e-06 -7.84303e-09 0.100714)
(5.12841e-06 6.70308e-07 0.0976414)
(6.1778e-06 7.4242e-09 0.100712)
(-5.0212e-06 -7.83072e-07 0.0976443)
(3.83667e-07 -3.78912e-07 0.101259)
(-3.79461e-07 3.84683e-07 0.101259)
(3.82647e-07 3.79991e-07 0.101259)
(-3.81373e-07 -3.81771e-07 0.101259)
(3.84521e-07 -3.78851e-07 0.101259)
(-3.8074e-07 3.84201e-07 0.101259)
(3.81694e-07 3.7952e-07 0.101259)
(1.07573e-05 -3.6435e-08 0.101171)
(-9.6332e-06 2.91925e-06 0.100824)
(-3.16365e-07 -1.30086e-07 0.101258)
(-2.55919e-07 4.30543e-07 0.101255)
(-1.08456e-05 3.18956e-08 0.10117)
(9.317e-06 -3.04377e-06 0.100826)
(-3.15491e-07 -1.30848e-07 0.101258)
(1.46457e-06 -1.22917e-06 0.0901916)
(-1.45018e-06 1.14366e-06 0.0901955)
(-2.98241e-08 1.07662e-05 0.101171)
(-1.31692e-07 -3.16296e-07 0.101258)
(2.93522e-06 -9.66148e-06 0.100824)
(4.29901e-07 -2.52832e-07 0.101255)
(2.65143e-08 -1.08543e-05 0.10117)
(-1.32212e-07 -3.09863e-07 0.101258)
(-3.06576e-06 9.34263e-06 0.100826)
(-3.09539e-06 -3.68297e-06 0.100128)
(-3.67398e-06 -3.09092e-06 0.100128)
(3.69575e-05 3.69762e-05 0.101249)
(3.00575e-06 3.58228e-06 0.10013)
(3.57521e-06 3.00212e-06 0.10013)
(-3.95994e-09 -6.26172e-06 0.100714)
(7.01008e-07 5.1045e-06 0.0976415)
(-2.05929e-09 6.1445e-06 0.100712)
(-8.01507e-07 -4.9948e-06 0.0976445)
(-1.28496e-06 1.50398e-06 0.0901932)
(1.19527e-06 -1.54795e-06 0.0901961)
(-6.29432e-06 -9.66216e-09 0.100714)
(5.12713e-06 6.70295e-07 0.0976414)
(6.17763e-06 5.75916e-09 0.100712)
(-5.0163e-06 -7.86466e-07 0.0976444)
(3.838e-07 -3.82136e-07 0.101259)
(-3.81155e-07 3.83798e-07 0.101259)
(3.81691e-07 3.81417e-07 0.101259)
(-3.83765e-07 -3.81166e-07 0.101259)
(3.8338e-07 -3.82638e-07 0.101259)
(-3.80828e-07 3.82721e-07 0.101259)
(3.80166e-07 3.80514e-07 0.101259)
(1.07564e-05 -3.75409e-08 0.101171)
(-9.63456e-06 2.91257e-06 0.100824)
(-3.15111e-07 -1.31511e-07 0.101258)
(-2.55615e-07 4.30793e-07 0.101255)
(-1.08464e-05 3.01117e-08 0.10117)
(9.31473e-06 -3.04426e-06 0.100826)
(-3.13814e-07 -1.31437e-07 0.101258)
(1.46471e-06 -1.22982e-06 0.0901916)
(-1.44952e-06 1.14416e-06 0.0901955)
(-3.05496e-08 1.07652e-05 0.101171)
(-1.3229e-07 -3.1566e-07 0.101258)