/*--------------------------------*- C++ -*----------------------------------*\
| =========                 |                                                 |
| \\      /  F ield         | OpenFOAM: The Open Source CFD Toolbox           |
|  \\    /   O peration     | Version:  2206                                  |
|   \\  /    A nd           | Website:  www.openfoam.com                      |
|    \\/     M anipulation  |                                                 |
\*---------------------------------------------------------------------------*/
FoamFile
{
    version     2.0;
    format      ascii;
    arch        "LSB;label=32;scalar=64";
    class       volScalarField;
    location    "9";
    object      k;
}
// * * * * * * * * * * * * * * * * * * * * * * * * * * * * * * * * * * * * * //

dimensions      [0 2 -2 0 0 0 0];

internalField   nonuniform List<scalar> 
28897
(
3.31957e-05
3.31638e-05
3.31634e-05
3.31096e-05
3.31941e-05
3.3163e-05
3.31618e-05
3.31086e-05
3.31853e-05
3.31532e-05
3.31526e-05
3.30983e-05
3.31849e-05
3.31523e-05
3.31523e-05
3.30982e-05
3.31849e-05
3.31523e-05
3.31523e-05
3.30982e-05
3.31849e-05
3.31523e-05
3.31523e-05
3.30982e-05
3.31849e-05
3.31523e-05
3.31523e-05
3.30982e-05
3.31849e-05
3.31523e-05
3.31523e-05
3.30982e-05
3.31849e-05
3.31523e-05
3.31523e-05
3.30982e-05
3.31849e-05
3.31523e-05
3.31523e-05
3.30982e-05
3.31849e-05
3.31523e-05
3.31523e-05
3.30982e-05
3.31849e-05
3.31523e-05
3.31523e-05
3.30982e-05
3.31849e-05
3.31523e-05
3.31523e-05
3.30982e-05
3.31849e-05
3.31523e-05
3.31523e-05
3.30982e-05
3.31849e-05
3.31523e-05
3.31523e-05
3.30982e-05
3.31849e-05
3.31523e-05
3.31523e-05
3.30982e-05
3.31849e-05
3.31523e-05
3.31523e-05
3.30982e-05
3.31851e-05
3.31525e-05
3.31525e-05
3.30982e-05
3.31101e-05
3.31634e-05
3.31634e-05
3.31111e-05
3.31634e-05
3.31634e-05
3.31638e-05
3.31634e-05
3.31101e-05
3.31634e-05
3.31634e-05
3.31101e-05
3.31101e-05
3.31096e-05
3.31636e-05
3.31637e-05
3.31629e-05
3.31631e-05
3.31108e-05
3.31103e-05
3.31636e-05
3.31636e-05
3.3163e-05
3.31629e-05
3.31636e-05
3.31635e-05
3.3163e-05
3.31098e-05
3.31095e-05
3.31636e-05
3.31628e-05
3.3163e-05
3.31097e-05
3.31088e-05
3.30989e-05
3.31619e-05
3.31623e-05
3.31534e-05
3.31537e-05
3.31097e-05
3.30998e-05
3.31619e-05
3.31619e-05
3.31535e-05
3.31534e-05
3.31621e-05
3.31549e-05
3.31536e-05
3.31088e-05
3.30989e-05
3.3162e-05
3.31534e-05
3.31535e-05
3.3099e-05
3.30988e-05
3.30988e-05
3.31527e-05
3.31528e-05
3.31522e-05
3.31522e-05
3.30987e-05
3.30988e-05
3.31527e-05
3.31527e-05
3.31523e-05
3.31522e-05
3.31527e-05
3.31523e-05
3.31522e-05
3.30987e-05
3.30987e-05
3.31527e-05
3.31523e-05
3.31523e-05
3.30988e-05
3.30988e-05
3.30988e-05
3.31524e-05
3.31524e-05
3.31523e-05
3.31523e-05
3.30988e-05
3.30988e-05
3.31524e-05
3.31524e-05
3.31523e-05
3.31522e-05
3.31524e-05
3.31523e-05
3.31523e-05
3.30987e-05
3.30987e-05
3.31524e-05
3.31523e-05
3.31523e-05
3.30988e-05
3.30988e-05
3.30988e-05
3.31524e-05
3.31524e-05
3.31523e-05
3.31523e-05
3.30988e-05
3.30987e-05
3.31524e-05
3.31524e-05
3.31523e-05
3.31522e-05
3.31524e-05
3.31523e-05
3.31523e-05
3.30987e-05
3.30987e-05
3.31524e-05
3.31523e-05
3.31523e-05
3.30988e-05
3.30988e-05
3.30988e-05
3.31524e-05
3.31524e-05
3.31523e-05
3.31523e-05
3.30988e-05
3.30987e-05
3.31524e-05
3.31524e-05
3.31523e-05
3.31522e-05
3.31524e-05
3.31523e-05
3.31523e-05
3.30987e-05
3.30987e-05
3.31524e-05
3.31523e-05
3.31523e-05
3.30988e-05
3.30988e-05
3.30988e-05
3.31524e-05
3.31524e-05
3.31523e-05
3.31523e-05
3.30988e-05
3.30987e-05
3.31524e-05
3.31524e-05
3.31523e-05
3.31522e-05
3.31524e-05
3.31523e-05
3.31523e-05
3.30987e-05
3.30987e-05
3.31524e-05
3.31523e-05
3.31523e-05
3.30988e-05
3.30988e-05
3.30988e-05
3.31524e-05
3.31524e-05
3.31523e-05
3.31523e-05
3.30988e-05
3.30987e-05
3.31524e-05
3.31524e-05
3.31523e-05
3.31522e-05
3.31524e-05
3.31523e-05
3.31523e-05
3.30987e-05
3.30987e-05
3.31524e-05
3.31523e-05
3.31523e-05
3.30988e-05
3.30988e-05
3.30988e-05
3.31524e-05
3.31524e-05
3.31523e-05
3.31523e-05
3.30988e-05
3.30987e-05
3.31524e-05
3.31524e-05
3.31523e-05
3.31522e-05
3.31524e-05
3.31523e-05
3.31523e-05
3.30987e-05
3.30987e-05
3.31524e-05
3.31523e-05
3.31523e-05
3.30988e-05
3.30988e-05
3.30988e-05
3.31524e-05
3.31524e-05
3.31523e-05
3.31523e-05
3.30988e-05
3.30987e-05
3.31524e-05
3.31524e-05
3.31523e-05
3.31522e-05
3.31524e-05
3.31523e-05
3.31523e-05
3.30987e-05
3.30987e-05
3.31524e-05
3.31523e-05
3.31523e-05
3.30988e-05
3.30988e-05
3.30988e-05
3.31524e-05
3.31524e-05
3.31523e-05
3.31523e-05
3.30988e-05
3.30987e-05
3.31524e-05
3.31524e-05
3.31523e-05
3.31522e-05
3.31524e-05
3.31523e-05
3.31523e-05
3.30987e-05
3.30987e-05
3.31524e-05
3.31523e-05
3.31523e-05
3.30988e-05
3.30988e-05
3.30988e-05
3.31524e-05
3.31524e-05
3.31523e-05
3.31523e-05
3.30988e-05
3.30987e-05
3.31524e-05
3.31524e-05
3.31523e-05
3.31522e-05
3.31524e-05
3.31523e-05
3.31523e-05
3.30987e-05
3.30987e-05
3.31524e-05
3.31523e-05
3.31523e-05
3.30988e-05
3.30988e-05
3.30988e-05
3.31524e-05
3.31524e-05
3.31523e-05
3.31523e-05
3.30988e-05
3.30987e-05
3.31524e-05
3.31524e-05
3.31523e-05
3.31522e-05
3.31524e-05
3.31523e-05
3.31523e-05
3.30987e-05
3.30987e-05
3.31524e-05
3.31523e-05
3.31523e-05
3.30988e-05
3.30988e-05
3.30988e-05
3.31524e-05
3.31524e-05
3.31523e-05
3.31523e-05
3.30988e-05
3.30987e-05
3.31524e-05
3.31524e-05
3.31523e-05
3.31522e-05
3.31524e-05
3.31523e-05
3.31523e-05
3.30987e-05
3.30987e-05
3.31524e-05
3.31523e-05
3.31523e-05
3.30988e-05
3.30988e-05
3.30988e-05
3.31524e-05
3.31524e-05
3.31523e-05
3.31523e-05
3.30988e-05
3.30987e-05
3.31524e-05
3.31524e-05
3.31523e-05
3.31522e-05
3.31524e-05
3.31523e-05
3.31523e-05
3.30987e-05
3.30987e-05
3.31524e-05
3.31523e-05
3.31523e-05
3.30988e-05
3.30988e-05
3.30988e-05
3.31524e-05
3.31524e-05
3.31523e-05
3.31523e-05
3.30988e-05
3.30987e-05
3.31524e-05
3.31524e-05
3.31523e-05
3.31522e-05
3.31524e-05
3.31523e-05
3.31523e-05
3.30987e-05
3.30987e-05
3.31524e-05
3.31523e-05
3.31523e-05
3.30988e-05
3.30988e-05
3.30988e-05
3.31524e-05
3.31524e-05
3.31523e-05
3.31523e-05
3.30988e-05
3.30988e-05
3.31524e-05
3.31524e-05
3.31523e-05
3.31522e-05
3.31524e-05
3.31523e-05
3.31523e-05
3.30987e-05
3.30988e-05
3.31524e-05
3.31523e-05
3.31523e-05
3.30988e-05
3.30984e-05
3.31525e-05
3.31525e-05
3.30984e-05
3.31525e-05
3.31524e-05
3.31525e-05
3.30984e-05
3.31525e-05
3.31958e-05
3.31958e-05
3.31958e-05
3.31958e-05
3.36973e-05
5.72e-05
3.36973e-05
5.71976e-05
8.05852e-05
8.05776e-05
3.36977e-05
5.72032e-05
3.36976e-05
5.72007e-05
3.3196e-05
3.31959e-05
3.31959e-05
3.31951e-05
3.31954e-05
3.31953e-05
3.31953e-05
3.28832e-05
3.35157e-05
3.31875e-05
3.31639e-05
3.28829e-05
3.35153e-05
3.31875e-05
8.05828e-05
8.05767e-05
3.28831e-05
3.31875e-05
3.35154e-05
3.31633e-05
3.28827e-05
3.31874e-05
3.35152e-05
3.44536e-05
3.44548e-05
3.31103e-05
3.44557e-05
3.44565e-05
3.3694e-05
5.72013e-05
3.36977e-05
5.7223e-05
8.05745e-05
8.05865e-05
3.36941e-05
5.72044e-05
3.36979e-05
5.72261e-05
3.31945e-05
3.31942e-05
3.31942e-05
3.31862e-05
3.31865e-05
3.31862e-05
3.31862e-05
3.28796e-05
3.35166e-05
3.31862e-05
3.31615e-05
3.28826e-05
3.35139e-05
3.31837e-05
8.05813e-05
8.06215e-05
3.28767e-05
3.31858e-05
3.35156e-05
3.31588e-05
3.28825e-05
3.31829e-05
3.35113e-05
3.44579e-05
3.44578e-05
3.31047e-05
3.44567e-05
3.44541e-05
3.36859e-05
5.72424e-05
3.36866e-05
5.72399e-05
8.06409e-05
8.06386e-05
3.36864e-05
5.72455e-05
3.3687e-05
5.7243e-05
3.31855e-05
3.31854e-05
3.31854e-05
3.31849e-05
3.31849e-05
3.31849e-05
3.31849e-05
3.28701e-05
3.35064e-05
3.3177e-05
3.31526e-05
3.287e-05
3.35039e-05
3.31768e-05
8.06424e-05
8.06392e-05
3.28701e-05
3.31769e-05
3.3505e-05
3.31525e-05
3.28699e-05
3.31768e-05
3.35039e-05
3.44439e-05
3.44432e-05
3.30988e-05
3.44426e-05
3.44426e-05
3.3686e-05
5.72414e-05
3.36866e-05
5.72394e-05
8.06409e-05
8.06385e-05
3.36865e-05
5.72445e-05
3.3687e-05
5.72425e-05
3.31851e-05
3.31851e-05
3.31851e-05
3.31849e-05
3.31849e-05
3.31849e-05
3.31849e-05
3.28701e-05
3.35046e-05
3.31766e-05
3.31525e-05
3.28699e-05
3.35037e-05
3.31767e-05
8.06412e-05
8.06388e-05
3.28701e-05
3.31766e-05
3.35047e-05
3.31524e-05
3.287e-05
3.31767e-05
3.35039e-05
3.4443e-05
3.44431e-05
3.30988e-05
3.44426e-05
3.44427e-05
3.3686e-05
5.72413e-05
3.36867e-05
5.72394e-05
8.06408e-05
8.06385e-05
3.36865e-05
5.72444e-05
3.3687e-05
5.72425e-05
3.31851e-05
3.31851e-05
3.3185e-05
3.31849e-05
3.31849e-05
3.31849e-05
3.31849e-05
3.28701e-05
3.35046e-05
3.31766e-05
3.31524e-05
3.28699e-05
3.35037e-05
3.31767e-05
8.06412e-05
8.06388e-05
3.28701e-05
3.31766e-05
3.35047e-05
3.31524e-05
3.287e-05
3.31767e-05
3.35039e-05
3.4443e-05
3.44431e-05
3.30988e-05
3.44426e-05
3.44427e-05
3.3686e-05
5.72413e-05
3.36867e-05
5.72394e-05
8.06408e-05
8.06385e-05
3.36865e-05
5.72444e-05
3.3687e-05
5.72425e-05
3.31851e-05
3.31851e-05
3.3185e-05
3.31849e-05
3.31849e-05
3.31849e-05
3.31849e-05
3.28701e-05
3.35046e-05
3.31766e-05
3.31524e-05
3.28699e-05
3.35037e-05
3.31767e-05
8.06412e-05
8.06387e-05
3.28701e-05
3.31766e-05
3.35047e-05
3.31524e-05
3.287e-05
3.31767e-05
3.35039e-05
3.4443e-05
3.44431e-05
3.30988e-05
3.44426e-05
3.44427e-05
3.3686e-05
5.72413e-05
3.36867e-05
5.72394e-05
8.06408e-05
8.06385e-05
3.36866e-05
5.72444e-05
3.3687e-05
5.72425e-05
3.31851e-05
3.31851e-05
3.3185e-05
3.31849e-05
3.31849e-05
3.31849e-05
3.31849e-05
3.28701e-05
3.35046e-05
3.31766e-05
3.31524e-05
3.28699e-05
3.35037e-05
3.31767e-05
8.06412e-05
8.06387e-05
3.28701e-05
3.31766e-05
3.35047e-05
3.31524e-05
3.287e-05
3.31767e-05
3.35039e-05
3.4443e-05
3.44431e-05
3.30988e-05
3.44426e-05
3.44427e-05
3.3686e-05
5.72413e-05
3.36867e-05
5.72394e-05
8.06408e-05
8.06385e-05
3.36865e-05
5.72444e-05
3.3687e-05
5.72425e-05
3.31851e-05
3.31851e-05
3.3185e-05
3.31849e-05
3.31849e-05
3.31849e-05
3.31849e-05
3.28701e-05
3.35046e-05
3.31766e-05
3.31524e-05
3.28699e-05
3.35037e-05
3.31767e-05
8.06412e-05
8.06387e-05
3.28701e-05
3.31766e-05
3.35047e-05
3.31524e-05
3.287e-05
3.31767e-05
3.35039e-05
3.4443e-05
3.44431e-05
3.30988e-05
3.44426e-05
3.44427e-05
3.3686e-05
5.72413e-05
3.36867e-05
5.72394e-05
8.06408e-05
8.06385e-05
3.36865e-05
5.72444e-05
3.3687e-05
5.72425e-05
3.31851e-05
3.31851e-05
3.3185e-05
3.31849e-05
3.31849e-05
3.31849e-05
3.31849e-05
3.28701e-05
3.35046e-05
3.31766e-05
3.31524e-05
3.28699e-05
3.35037e-05
3.31767e-05
8.06412e-05
8.06388e-05
3.28701e-05
3.31766e-05
3.35047e-05
3.31524e-05
3.287e-05
3.31767e-05
3.35039e-05
3.4443e-05
3.44431e-05
3.30988e-05
3.44426e-05
3.44427e-05
3.3686e-05
5.72413e-05
3.36867e-05
5.72394e-05
8.06408e-05
8.06386e-05
3.36865e-05
5.72445e-05
3.3687e-05
5.72425e-05
3.31851e-05
3.31851e-05
3.3185e-05
3.31849e-05
3.31849e-05
3.31849e-05
3.31849e-05
3.28701e-05
3.35046e-05
3.31766e-05
3.31524e-05
3.28699e-05
3.35037e-05
3.31767e-05
8.06412e-05
8.06387e-05
3.28701e-05
3.31766e-05
3.35047e-05
3.31524e-05
3.287e-05
3.31767e-05
3.35039e-05
3.4443e-05
3.44431e-05
3.30988e-05
3.44426e-05
3.44427e-05
3.3686e-05
5.72416e-05
3.36867e-05
5.72398e-05
8.06415e-05
8.06391e-05
3.36865e-05
5.72441e-05
3.3687e-05
5.72417e-05
3.31851e-05
3.31851e-05
3.3185e-05
3.31849e-05
3.31849e-05
3.31849e-05
3.31849e-05
3.28701e-05
3.35046e-05
3.31766e-05
3.31524e-05
3.28699e-05
3.35037e-05
3.31767e-05
8.06412e-05
8.06387e-05
3.28701e-05
3.31766e-05
3.35047e-05
3.31524e-05
3.287e-05
3.31767e-05
3.35039e-05
3.4443e-05
3.44431e-05
3.30988e-05
3.44426e-05
3.44427e-05
3.3686e-05
5.72419e-05
3.36866e-05
5.72398e-05
8.06414e-05
8.06395e-05
3.36865e-05
5.72437e-05
3.3687e-05
5.72418e-05
3.31851e-05
3.31851e-05
3.3185e-05
3.31849e-05
3.31849e-05
3.31849e-05
3.31849e-05
3.28701e-05
3.35046e-05
3.31766e-05
3.31524e-05
3.28699e-05
3.35037e-05
3.31767e-05
8.06412e-05
8.06388e-05
3.28701e-05
3.31766e-05
3.35047e-05
3.31524e-05
3.287e-05
3.31767e-05
3.35039e-05
3.4443e-05
3.44431e-05
3.30988e-05
3.44426e-05
3.44427e-05
3.3686e-05
5.72417e-05
3.36867e-05
5.72398e-05
8.06413e-05
8.06391e-05
3.36866e-05
5.7244e-05
3.3687e-05
5.72422e-05
3.31851e-05
3.31851e-05
3.3185e-05
3.31849e-05
3.31849e-05
3.31849e-05
3.31849e-05
3.28701e-05
3.35046e-05
3.31766e-05
3.31524e-05
3.28699e-05
3.35037e-05
3.31767e-05
8.06412e-05
8.06388e-05
3.28702e-05
3.31766e-05
3.35047e-05
3.31524e-05
3.287e-05
3.31767e-05
3.35039e-05
3.4443e-05
3.44431e-05
3.30988e-05
3.44426e-05
3.44427e-05
3.3686e-05
5.72417e-05
3.36867e-05
5.72398e-05
8.06417e-05
8.06392e-05
3.36866e-05
5.72441e-05
3.3687e-05
5.72421e-05
3.31851e-05
3.31851e-05
3.3185e-05
3.31849e-05
3.31849e-05
3.31849e-05
3.31849e-05
3.28701e-05
3.35046e-05
3.31766e-05
3.31524e-05
3.28699e-05
3.35037e-05
3.31767e-05
8.06412e-05
8.06388e-05
3.28702e-05
3.31766e-05
3.35047e-05
3.31524e-05
3.287e-05
3.31767e-05
3.35039e-05
3.4443e-05
3.44431e-05
3.30988e-05
3.44426e-05
3.44427e-05
3.3686e-05
5.72417e-05
3.36867e-05
5.72398e-05
8.06417e-05
8.06394e-05
3.36866e-05
5.7244e-05
3.36871e-05
5.72421e-05
3.31851e-05
3.31851e-05
3.31851e-05
3.31849e-05
3.31849e-05
3.31849e-05
3.31849e-05
3.28701e-05
3.35046e-05
3.31766e-05
3.31524e-05
3.28699e-05
3.35037e-05
3.31767e-05
8.06412e-05
8.06387e-05
3.28701e-05
3.31766e-05
3.35047e-05
3.31524e-05
3.287e-05
3.31767e-05
3.35039e-05
3.4443e-05
3.44431e-05
3.30988e-05
3.44426e-05
3.44427e-05
3.3686e-05
5.72417e-05
3.36867e-05
5.72398e-05
8.06418e-05
8.06394e-05
3.36866e-05
5.72441e-05
3.36871e-05
5.72421e-05
3.31851e-05
3.31851e-05
3.3185e-05
3.31849e-05
3.31849e-05
3.31849e-05
3.31849e-05
3.28701e-05
3.35046e-05
3.31766e-05
3.31524e-05
3.28699e-05
3.35037e-05
3.31767e-05
8.06412e-05
8.06387e-05
3.28701e-05
3.31766e-05
3.35047e-05
3.31524e-05
3.287e-05
3.31767e-05
3.35039e-05
3.4443e-05
3.44431e-05
3.30988e-05
3.44426e-05
3.44427e-05
3.3686e-05
5.72417e-05
3.36867e-05
5.72398e-05
8.06418e-05
8.06393e-05
3.36866e-05
5.7244e-05
3.36871e-05
5.72421e-05
3.31851e-05
3.31851e-05
3.3185e-05
3.3185e-05
3.31849e-05
3.31849e-05
3.31849e-05
3.28701e-05
3.35046e-05
3.31766e-05
3.31524e-05
3.28699e-05
3.35037e-05
3.31767e-05
8.06412e-05
8.06387e-05
3.28701e-05
3.31766e-05
3.35047e-05
3.31524e-05
3.287e-05
3.31767e-05
3.35039e-05
3.4443e-05
3.44431e-05
3.30988e-05
3.44426e-05
3.44427e-05
5.72417e-05
3.36866e-05
8.06417e-05
5.72441e-05
3.3687e-05
3.31851e-05
3.31851e-05
3.31851e-05
3.35046e-05
3.31768e-05
3.28699e-05
8.06411e-05
3.31768e-05
3.35047e-05
3.287e-05
3.4443e-05
3.44431e-05
8.05798e-05
8.05908e-05
8.05854e-05
8.05939e-05
3.31102e-05
3.44511e-05
3.44531e-05
3.44486e-05
3.44504e-05
3.36965e-05
5.71985e-05
5.71996e-05
3.36965e-05
3.36965e-05
5.72004e-05
5.72019e-05
3.36965e-05
3.28831e-05
3.31634e-05
3.35141e-05
3.31875e-05
3.35148e-05
3.31876e-05
3.2883e-05
3.28832e-05
3.31635e-05
3.35146e-05
3.31875e-05
3.35153e-05
3.31875e-05
3.2883e-05
8.0586e-05
3.44515e-05
3.44484e-05
8.05819e-05
3.36969e-05
5.72017e-05
5.72028e-05
3.36969e-05
3.28833e-05
3.31635e-05
3.35145e-05
3.31875e-05
3.35152e-05
3.31876e-05
3.28831e-05
3.36965e-05
5.72013e-05
5.72032e-05
3.36965e-05
3.28832e-05
3.31634e-05
3.31875e-05
3.35143e-05
3.31875e-05
3.3515e-05
3.28831e-05
3.35146e-05
3.31875e-05
3.31876e-05
3.28829e-05
5.7199e-05
3.36964e-05
3.31635e-05
3.31876e-05
3.35141e-05
3.31876e-05
3.28831e-05
5.71997e-05
3.36963e-05
8.05823e-05
8.05934e-05
3.31101e-05
3.44515e-05
3.4453e-05
3.44491e-05
3.44503e-05
8.05843e-05
8.05932e-05
3.28832e-05
3.31634e-05
3.31875e-05
3.35143e-05
3.31875e-05
3.3515e-05
3.28827e-05
3.28832e-05
3.31635e-05
3.31875e-05
3.35145e-05
3.31876e-05
3.35152e-05
3.28831e-05
3.36965e-05
5.72013e-05
5.72031e-05
3.36965e-05
3.36966e-05
5.72019e-05
5.72036e-05
3.36966e-05
3.31101e-05
3.44518e-05
3.44532e-05
3.44505e-05
8.05853e-05
8.05855e-05
8.05945e-05
8.05798e-05
8.05744e-05
8.0585e-05
8.05798e-05
3.44536e-05
3.44547e-05
3.31104e-05
3.44548e-05
3.44564e-05
8.05736e-05
8.05744e-05
8.05789e-05
8.05796e-05
3.311e-05
3.4456e-05
3.44574e-05
3.44565e-05
3.44576e-05
3.36973e-05
5.72004e-05
3.36977e-05
5.71998e-05
3.28832e-05
3.35157e-05
3.31877e-05
3.31635e-05
3.28835e-05
3.3515e-05
3.31876e-05
3.28833e-05
3.35162e-05
3.31877e-05
3.31636e-05
3.28836e-05
3.35155e-05
3.31876e-05
3.36984e-05
5.71984e-05
5.71976e-05
3.36973e-05
3.36985e-05
5.71999e-05
5.71998e-05
3.36973e-05
3.28831e-05
3.31633e-05
3.3515e-05
3.3187e-05
3.35165e-05
3.31874e-05
3.28827e-05
3.28832e-05
3.31634e-05
3.35156e-05
3.3187e-05
3.3517e-05
3.31874e-05
3.28827e-05
3.44537e-05
3.44514e-05
3.31109e-05
3.44557e-05
3.44529e-05
8.05816e-05
8.0574e-05
8.05732e-05
8.0577e-05
3.31105e-05
3.4458e-05
3.44558e-05
3.44571e-05
3.44551e-05
8.0571e-05
8.0574e-05
3.28834e-05
3.35161e-05
3.31877e-05
3.31635e-05
3.28836e-05
3.35154e-05
3.31876e-05
3.36974e-05
5.72014e-05
3.36976e-05
5.72009e-05
3.28833e-05
3.31877e-05
3.3516e-05
3.31635e-05
3.28836e-05
3.31876e-05
3.35152e-05
3.36987e-05
5.72015e-05
5.72008e-05
3.36977e-05
3.28833e-05
3.31634e-05
3.35153e-05
3.3187e-05
3.35168e-05
3.31874e-05
3.28828e-05
3.36984e-05
5.72015e-05
5.7201e-05
3.36974e-05
3.28832e-05
3.31633e-05
3.3187e-05
3.35151e-05
3.31874e-05
3.35167e-05
3.28826e-05
3.36974e-05
5.71994e-05
3.36977e-05
5.71981e-05
3.28833e-05
3.31877e-05
3.35157e-05
3.31636e-05
3.28836e-05
3.31876e-05
3.35152e-05
3.36974e-05
5.71997e-05
3.36976e-05
5.71993e-05
3.28835e-05
3.31638e-05
3.35158e-05
3.3187e-05
3.3517e-05
3.31873e-05
3.28828e-05
3.36986e-05
5.71982e-05
5.71982e-05
3.36978e-05
3.28833e-05
3.31634e-05
3.31871e-05
3.35154e-05
3.31874e-05
3.35167e-05
3.28828e-05
3.36986e-05
5.71999e-05
5.71994e-05
3.36977e-05
3.44538e-05
3.44547e-05
3.311e-05
3.4455e-05
3.44563e-05
8.05836e-05
8.05788e-05
8.05767e-05
8.05767e-05
3.31097e-05
3.44561e-05
3.44574e-05
3.44565e-05
3.44576e-05
8.0578e-05
8.05784e-05
3.28833e-05
3.31877e-05
3.3516e-05
3.31635e-05
3.28835e-05
3.31876e-05
3.35154e-05
3.36974e-05
5.72013e-05
3.36976e-05
5.72008e-05
3.36975e-05
5.72018e-05
3.36977e-05
5.72013e-05
3.28836e-05
3.31632e-05
3.31869e-05
3.35151e-05
3.31872e-05
3.35166e-05
3.28829e-05
3.28834e-05
3.31634e-05
3.3187e-05
3.35153e-05
3.31874e-05
3.35168e-05
3.28828e-05
3.36984e-05
5.72014e-05
5.72008e-05
3.36975e-05
3.36985e-05
5.72019e-05
5.72014e-05
3.36975e-05
8.05844e-05
8.05789e-05
8.05849e-05
8.05801e-05
3.311e-05
3.44576e-05
3.44576e-05
3.44571e-05
3.44578e-05
8.05763e-05
8.05785e-05
8.05792e-05
8.05797e-05
8.05765e-05
8.06181e-05
8.05813e-05
8.0624e-05
3.44568e-05
3.4458e-05
3.31044e-05
3.44531e-05
3.44541e-05
8.06373e-05
8.06328e-05
8.06421e-05
8.0637e-05
3.3101e-05
3.44415e-05
3.44429e-05
3.44522e-05
3.4452e-05
3.36939e-05
5.72001e-05
3.36981e-05
5.72188e-05
3.28766e-05
3.35161e-05
3.3186e-05
3.31588e-05
3.28824e-05
3.35112e-05
3.3183e-05
3.28766e-05
3.35167e-05
3.3186e-05
3.31596e-05
3.28824e-05
3.35128e-05
3.31831e-05
3.36931e-05
5.72411e-05
5.72359e-05
3.36862e-05
3.36931e-05
5.72425e-05
5.72328e-05
3.36861e-05
3.28738e-05
3.31554e-05
3.35043e-05
3.31778e-05
3.35109e-05
3.31798e-05
3.28702e-05
3.28738e-05
3.31561e-05
3.35054e-05
3.31778e-05
3.35125e-05
3.31798e-05
3.28702e-05
3.44587e-05
3.4457e-05
3.31079e-05
3.44572e-05
3.44554e-05
8.05715e-05
8.05817e-05
8.06383e-05
8.06074e-05
3.31052e-05
3.44459e-05
3.44461e-05
3.44567e-05
3.44559e-05
8.06339e-05
8.0603e-05
3.28767e-05
3.35163e-05
3.3186e-05
3.31589e-05
3.28825e-05
3.35115e-05
3.3183e-05
3.36939e-05
5.72025e-05
3.3698e-05
5.72258e-05
3.28766e-05
3.3186e-05
3.35162e-05
3.31588e-05
3.28824e-05
3.3183e-05
3.35114e-05
3.36929e-05
5.72441e-05
5.72389e-05
3.36866e-05
3.28738e-05
3.31555e-05
3.35046e-05
3.31778e-05
3.35108e-05
3.31798e-05
3.28703e-05
3.36927e-05
5.72438e-05
5.72385e-05
3.36862e-05
3.28737e-05
3.31554e-05
3.31778e-05
3.35044e-05
3.31798e-05
3.3511e-05
3.28702e-05
3.36957e-05
5.71982e-05
3.36986e-05
5.72026e-05
3.28796e-05
3.31862e-05
3.35165e-05
3.31592e-05
3.28827e-05
3.31834e-05
3.35131e-05
3.36956e-05
5.72e-05
3.36985e-05
5.72128e-05
3.28766e-05
3.31578e-05
3.35063e-05
3.31781e-05
3.35143e-05
3.31803e-05
3.28705e-05
3.36953e-05
5.72387e-05
5.72135e-05
3.36869e-05
3.28765e-05
3.31557e-05
3.31779e-05
3.3505e-05
3.31801e-05
3.35129e-05
3.28705e-05
3.36952e-05
5.72427e-05
5.72287e-05
3.36868e-05
3.44568e-05
3.44579e-05
3.31043e-05
3.44533e-05
3.44538e-05
8.05802e-05
8.06228e-05
8.06409e-05
8.06363e-05
3.31009e-05
3.44416e-05
3.44427e-05
3.4452e-05
3.44518e-05
8.06409e-05
8.06359e-05
3.28767e-05
3.3186e-05
3.35163e-05
3.31589e-05
3.28825e-05
3.3183e-05
3.35114e-05
3.3694e-05
5.72021e-05
3.36981e-05
5.72262e-05
3.3694e-05
5.72025e-05
3.36981e-05
5.7226e-05
3.28739e-05
3.31554e-05
3.31778e-05
3.35044e-05
3.31797e-05
3.35106e-05
3.287e-05
3.28738e-05
3.31555e-05
3.31778e-05
3.35046e-05
3.31798e-05
3.35107e-05
3.28702e-05
3.36927e-05
5.72435e-05
5.72383e-05
3.36862e-05
3.36927e-05
5.72442e-05
5.72383e-05
3.36863e-05
8.05766e-05
8.06043e-05
8.05812e-05
8.06234e-05
3.31013e-05
3.44444e-05
3.44431e-05
3.44557e-05
3.44521e-05
8.06409e-05
8.06244e-05
8.06422e-05
8.06369e-05
8.06374e-05
8.06364e-05
8.06421e-05
8.06413e-05
3.4442e-05
3.44433e-05
3.30989e-05
3.44401e-05
3.44426e-05
8.06363e-05
8.06366e-05
8.06412e-05
8.06413e-05
3.30989e-05
3.44404e-05
3.44426e-05
3.4441e-05
3.44433e-05
3.3686e-05
5.72425e-05
3.36869e-05
5.7242e-05
3.28702e-05
3.35053e-05
3.3177e-05
3.31524e-05
3.28705e-05
3.35036e-05
3.31767e-05
3.28702e-05
3.35061e-05
3.3177e-05
3.31525e-05
3.28705e-05
3.35043e-05
3.31767e-05
3.3687e-05
5.72399e-05
5.72399e-05
3.3686e-05
3.3687e-05
5.72417e-05
5.72421e-05
3.3686e-05
3.28705e-05
3.31522e-05
3.35035e-05
3.31766e-05
3.3505e-05
3.31766e-05
3.28702e-05
3.28705e-05
3.31522e-05
3.35042e-05
3.31766e-05
3.35056e-05
3.31766e-05
3.28702e-05
3.44447e-05
3.44452e-05
3.30989e-05
3.44422e-05
3.44402e-05
8.06377e-05
8.06361e-05
8.06397e-05
8.06386e-05
3.30989e-05
3.44424e-05
3.444e-05
3.44429e-05
3.4441e-05
8.06358e-05
8.06362e-05
3.28704e-05
3.35057e-05
3.3177e-05
3.31525e-05
3.28706e-05
3.35041e-05
3.31768e-05
3.36861e-05
5.72439e-05
3.3687e-05
5.72431e-05
3.28702e-05
3.3177e-05
3.35055e-05
3.31524e-05
3.28705e-05
3.31767e-05
3.35038e-05
3.36874e-05
5.7243e-05
5.7243e-05
3.36865e-05
3.28707e-05
3.31523e-05
3.3504e-05
3.31766e-05
3.35054e-05
3.31766e-05
3.28704e-05
3.3687e-05
5.72427e-05
5.72431e-05
3.36861e-05
3.28705e-05
3.31522e-05
3.31766e-05
3.35037e-05
3.31766e-05
3.35052e-05
3.28702e-05
3.36859e-05
5.72423e-05
3.36872e-05
5.72414e-05
3.28702e-05
3.31771e-05
3.35056e-05
3.31525e-05
3.28706e-05
3.31768e-05
3.35039e-05
3.36859e-05
5.7243e-05
3.36871e-05
5.72428e-05
3.28704e-05
3.31524e-05
3.35037e-05
3.31766e-05
3.35052e-05
3.31767e-05
3.287e-05
3.3687e-05
5.7241e-05
5.72415e-05
3.3686e-05
3.28705e-05
3.31522e-05
3.31766e-05
3.35038e-05
3.31766e-05
3.35052e-05
3.28702e-05
3.36869e-05
5.72425e-05
5.72428e-05
3.36859e-05
3.44419e-05
3.44431e-05
3.30988e-05
3.44407e-05
3.44424e-05
8.06409e-05
8.06405e-05
8.06393e-05
8.06393e-05
3.30989e-05
3.44409e-05
3.44425e-05
3.44416e-05
3.44431e-05
8.06401e-05
8.06404e-05
3.28703e-05
3.3177e-05
3.35056e-05
3.31525e-05
3.28705e-05
3.31767e-05
3.35041e-05
3.36861e-05
5.72436e-05
3.3687e-05
5.72431e-05
3.36862e-05
5.72442e-05
3.3687e-05
5.72436e-05
3.28705e-05
3.31524e-05
3.31766e-05
3.35039e-05
3.31767e-05
3.35052e-05
3.287e-05
3.28706e-05
3.31523e-05
3.31766e-05
3.3504e-05
3.31766e-05
3.35054e-05
3.28703e-05
3.3687e-05
5.72428e-05
5.72431e-05
3.36861e-05
3.36871e-05
5.72433e-05
5.72436e-05
3.36862e-05
8.0641e-05
8.06408e-05
8.06422e-05
8.06418e-05
3.30988e-05
3.44426e-05
3.44427e-05
3.44433e-05
3.44434e-05
8.06403e-05
8.06408e-05
8.06414e-05
8.06418e-05
8.06367e-05
8.06363e-05
8.06412e-05
8.0641e-05
3.44414e-05
3.44433e-05
3.30989e-05
3.44404e-05
3.44426e-05
8.06363e-05
8.06365e-05
8.06411e-05
8.0641e-05
3.30989e-05
3.44404e-05
3.44426e-05
3.44412e-05
3.44433e-05
3.36861e-05
5.72417e-05
3.3687e-05
5.72417e-05
3.28702e-05
3.3505e-05
3.31767e-05
3.31524e-05
3.28705e-05
3.35035e-05
3.31767e-05
3.28702e-05
3.35055e-05
3.31768e-05
3.31524e-05
3.28705e-05
3.35042e-05
3.31767e-05
3.36871e-05
5.72397e-05
5.72394e-05
3.36861e-05
3.36871e-05
5.72417e-05
5.72417e-05
3.3686e-05
3.28705e-05
3.31523e-05
3.35035e-05
3.31766e-05
3.3505e-05
3.31766e-05
3.28702e-05
3.28705e-05
3.31523e-05
3.35042e-05
3.31766e-05
3.35055e-05
3.31766e-05
3.28702e-05
3.44431e-05
3.44409e-05
3.30989e-05
3.44424e-05
3.44399e-05
8.06361e-05
8.06357e-05
8.06396e-05
8.06385e-05
3.30989e-05
3.44425e-05
3.44402e-05
3.44431e-05
3.44408e-05
8.06358e-05
8.0636e-05
3.28704e-05
3.35054e-05
3.31767e-05
3.31524e-05
3.28707e-05
3.3504e-05
3.31767e-05
3.36861e-05
5.72427e-05
3.3687e-05
5.72427e-05
3.28702e-05
3.31768e-05
3.35052e-05
3.31524e-05
3.28705e-05
3.31767e-05
3.35037e-05
3.36874e-05
5.72429e-05
5.72425e-05
3.36866e-05
3.28707e-05
3.31523e-05
3.3504e-05
3.31766e-05
3.35054e-05
3.31766e-05
3.28704e-05
3.3687e-05
5.72426e-05
5.72427e-05
3.36861e-05
3.28705e-05
3.31523e-05
3.31766e-05
3.35037e-05
3.31766e-05
3.35052e-05
3.28702e-05
3.3686e-05
5.72411e-05
3.3687e-05
5.72409e-05
3.28702e-05
3.31768e-05
3.35051e-05
3.31524e-05
3.28705e-05
3.31767e-05
3.35038e-05
3.36859e-05
5.72425e-05
3.36869e-05
5.72424e-05
3.28704e-05
3.31524e-05
3.35037e-05
3.31766e-05
3.35051e-05
3.31767e-05
3.287e-05
3.3687e-05
5.72408e-05
5.7241e-05
3.3686e-05
3.28705e-05
3.31523e-05
3.31766e-05
3.35037e-05
3.31766e-05
3.35051e-05
3.28702e-05
3.36869e-05
5.72424e-05
5.72424e-05
3.36859e-05
3.44418e-05
3.44432e-05
3.30988e-05
3.44408e-05
3.44424e-05
8.064e-05
8.064e-05
8.06392e-05
8.0639e-05
3.30989e-05
3.44409e-05
3.44425e-05
3.44416e-05
3.44431e-05
8.06398e-05
8.064e-05
3.28703e-05
3.31768e-05
3.35053e-05
3.31524e-05
3.28706e-05
3.31768e-05
3.3504e-05
3.36862e-05
5.72428e-05
3.3687e-05
5.72427e-05
3.36863e-05
5.72434e-05
3.36871e-05
5.72433e-05
3.28705e-05
3.31524e-05
3.31766e-05
3.35038e-05
3.31767e-05
3.35052e-05
3.287e-05
3.28706e-05
3.31524e-05
3.31766e-05
3.3504e-05
3.31766e-05
3.35054e-05
3.28703e-05
3.3687e-05
5.72427e-05
5.72427e-05
3.36861e-05
3.36871e-05
5.72433e-05
5.72433e-05
3.36862e-05
8.06403e-05
8.06403e-05
8.06414e-05
8.06414e-05
3.30988e-05
3.44427e-05
3.44427e-05
3.44433e-05
3.44434e-05
8.06401e-05
8.06403e-05
8.06412e-05
8.06415e-05
8.06366e-05
8.06362e-05
8.06411e-05
8.0641e-05
3.44414e-05
3.44433e-05
3.30989e-05
3.44403e-05
3.44426e-05
8.06364e-05
8.06365e-05
8.06411e-05
8.0641e-05
3.30989e-05
3.44405e-05
3.44426e-05
3.44412e-05
3.44433e-05
3.36861e-05
5.72417e-05
3.3687e-05
5.72417e-05
3.28702e-05
3.3505e-05
3.31767e-05
3.31524e-05
3.28705e-05
3.35035e-05
3.31767e-05
3.28702e-05
3.35055e-05
3.31767e-05
3.31524e-05
3.28705e-05
3.35042e-05
3.31767e-05
3.36871e-05
5.72397e-05
5.72394e-05
3.36861e-05
3.36871e-05
5.72417e-05
5.72417e-05
3.3686e-05
3.28705e-05
3.31523e-05
3.35035e-05
3.31766e-05
3.3505e-05
3.31766e-05
3.28702e-05
3.28705e-05
3.31523e-05
3.35042e-05
3.31766e-05
3.35055e-05
3.31766e-05
3.28702e-05
3.44432e-05
3.44411e-05
3.30989e-05
3.44424e-05
3.44399e-05
8.06361e-05
8.06357e-05
8.06396e-05
8.06385e-05
3.30989e-05
3.44425e-05
3.44401e-05
3.44431e-05
3.44408e-05
8.06358e-05
8.0636e-05
3.28704e-05
3.35054e-05
3.31767e-05
3.31524e-05
3.28707e-05
3.3504e-05
3.31767e-05
3.36861e-05
5.72427e-05
3.3687e-05
5.72427e-05
3.28702e-05
3.31767e-05
3.35052e-05
3.31524e-05
3.28705e-05
3.31767e-05
3.35037e-05
3.36874e-05
5.72428e-05
5.72425e-05
3.36866e-05
3.28707e-05
3.31524e-05
3.3504e-05
3.31766e-05
3.35054e-05
3.31766e-05
3.28704e-05
3.3687e-05
5.72427e-05
5.72428e-05
3.36861e-05
3.28705e-05
3.31523e-05
3.31766e-05
3.35037e-05
3.31766e-05
3.35052e-05
3.28702e-05
3.3686e-05
5.72409e-05
3.3687e-05
5.72409e-05
3.28702e-05
3.31767e-05
3.35051e-05
3.31524e-05
3.28705e-05
3.31767e-05
3.35038e-05
3.36859e-05
5.72424e-05
3.36869e-05
5.72424e-05
3.28704e-05
3.31524e-05
3.35037e-05
3.31766e-05
3.35051e-05
3.31767e-05
3.287e-05
3.3687e-05
5.72409e-05
5.7241e-05
3.3686e-05
3.28705e-05
3.31523e-05
3.31766e-05
3.35037e-05
3.31766e-05
3.35051e-05
3.28702e-05
3.36869e-05
5.72424e-05
5.72424e-05
3.36859e-05
3.44418e-05
3.44432e-05
3.30988e-05
3.44408e-05
3.44424e-05
8.06398e-05
8.06399e-05
8.06392e-05
8.0639e-05
3.30989e-05
3.44409e-05
3.44425e-05
3.44416e-05
3.44431e-05
8.06398e-05
8.064e-05
3.28703e-05
3.31767e-05
3.35053e-05
3.31524e-05
3.28706e-05
3.31767e-05
3.3504e-05
3.36862e-05
5.72428e-05
3.3687e-05
5.72428e-05
3.36863e-05
5.72433e-05
3.36871e-05
5.72433e-05
3.28705e-05
3.31524e-05
3.31766e-05
3.35039e-05
3.31767e-05
3.35052e-05
3.287e-05
3.28706e-05
3.31524e-05
3.31766e-05
3.3504e-05
3.31766e-05
3.35054e-05
3.28703e-05
3.3687e-05
5.72428e-05
5.72428e-05
3.36861e-05
3.36871e-05
5.72433e-05
5.72433e-05
3.36862e-05
8.06401e-05
8.06402e-05
8.06412e-05
8.06413e-05
3.30988e-05
3.44427e-05
3.44427e-05
3.44433e-05
3.44434e-05
8.064e-05
8.06402e-05
8.06412e-05
8.06413e-05
8.06367e-05
8.06363e-05
8.06411e-05
8.0641e-05
3.44414e-05
3.44433e-05
3.30989e-05
3.44403e-05
3.44426e-05
8.06364e-05
8.06366e-05
8.06411e-05
8.0641e-05
3.30989e-05
3.44405e-05
3.44426e-05
3.44412e-05
3.44433e-05
3.3686e-05
5.72417e-05
3.3687e-05
5.72416e-05
3.28702e-05
3.3505e-05
3.31767e-05
3.31524e-05
3.28705e-05
3.35035e-05
3.31767e-05
3.28702e-05
3.35055e-05
3.31767e-05
3.31524e-05
3.28705e-05
3.35042e-05
3.31767e-05
3.36871e-05
5.72397e-05
5.72394e-05
3.36861e-05
3.36871e-05
5.72417e-05
5.72417e-05
3.3686e-05
3.28705e-05
3.31523e-05
3.35035e-05
3.31766e-05
3.3505e-05
3.31766e-05
3.28702e-05
3.28705e-05
3.31523e-05
3.35042e-05
3.31766e-05
3.35055e-05
3.31766e-05
3.28702e-05
3.44432e-05
3.44411e-05
3.30989e-05
3.44424e-05
3.444e-05
8.06361e-05
8.06357e-05
8.06396e-05
8.06385e-05
3.30989e-05
3.44425e-05
3.44401e-05
3.44431e-05
3.44408e-05
8.06358e-05
8.0636e-05
3.28704e-05
3.35054e-05
3.31767e-05
3.31524e-05
3.28707e-05
3.3504e-05
3.31767e-05
3.36861e-05
5.72427e-05
3.3687e-05
5.72427e-05
3.28702e-05
3.31767e-05
3.35052e-05
3.31524e-05
3.28705e-05
3.31767e-05
3.35037e-05
3.36874e-05
5.72428e-05
5.72425e-05
3.36866e-05
3.28707e-05
3.31524e-05
3.3504e-05
3.31766e-05
3.35054e-05
3.31766e-05
3.28704e-05
3.3687e-05
5.72426e-05
5.72427e-05
3.36861e-05
3.28705e-05
3.31523e-05
3.31766e-05
3.35037e-05
3.31766e-05
3.35052e-05
3.28702e-05
3.3686e-05
5.72409e-05
3.3687e-05
5.72409e-05
3.28702e-05
3.31767e-05
3.35051e-05
3.31524e-05
3.28705e-05
3.31767e-05
3.35038e-05
3.36859e-05
5.72424e-05
3.36869e-05
5.72424e-05
3.28704e-05
3.31524e-05
3.35037e-05
3.31766e-05
3.35051e-05
3.31767e-05
3.287e-05
3.3687e-05
5.72409e-05