/*--------------------------------*- C++ -*----------------------------------*\
| =========                 |                                                 |
| \\      /  F ield         | OpenFOAM: The Open Source CFD Toolbox           |
|  \\    /   O peration     | Version:  2206                                  |
|   \\  /    A nd           | Website:  www.openfoam.com                      |
|    \\/     M anipulation  |                                                 |
\*---------------------------------------------------------------------------*/
FoamFile
{
    version     2.0;
    format      ascii;
    arch        "LSB;label=32;scalar=64";
    class       volVectorField;
    location    "15.5";
    object      U;
}
// * * * * * * * * * * * * * * * * * * * * * * * * * * * * * * * * * * * * * //

dimensions      [0 1 -1 0 0 0 0];

internalField   nonuniform List<vector> 
28448
(
(-5.12985e-07 -5.08018e-07 0.101856)
(-3.21604e-07 5.32062e-07 0.101841)
(5.24471e-07 -3.10928e-07 0.101841)
(-3.8817e-05 -3.8824e-05 0.101817)
(-5.30975e-07 -5.33078e-07 0.101855)
(-3.05371e-07 5.1269e-07 0.101841)
(5.18906e-07 -3.02307e-07 0.101841)
(-3.8779e-05 -3.87904e-05 0.101817)
(-5.32683e-07 -5.68371e-07 0.101855)
(-3.35126e-07 4.75547e-07 0.10184)
(5.7803e-07 -4.02085e-07 0.10184)
(-3.88186e-05 -3.88435e-05 0.101817)
(-4.46856e-07 -4.34482e-07 0.101856)
(-3.93321e-07 5.7782e-07 0.101841)
(5.43883e-07 -3.65635e-07 0.101841)
(-3.88934e-05 -3.88948e-05 0.101817)
(-5.001e-07 -4.93676e-07 0.101856)
(-3.3674e-07 5.36535e-07 0.101841)
(5.40229e-07 -3.18194e-07 0.101841)
(-3.88531e-05 -3.88435e-05 0.101817)
(-5.01891e-07 -5.00724e-07 0.101856)
(-3.36777e-07 5.32781e-07 0.101841)
(5.34564e-07 -3.26883e-07 0.101841)
(-3.88499e-05 -3.88504e-05 0.101817)
(-5.02147e-07 -5.03042e-07 0.101856)
(-3.38218e-07 5.31196e-07 0.101841)
(5.31986e-07 -3.33e-07 0.101841)
(-3.88471e-05 -3.88554e-05 0.101817)
(-5.01932e-07 -5.0366e-07 0.101856)
(-3.38431e-07 5.30742e-07 0.101841)
(5.3194e-07 -3.3357e-07 0.101841)
(-3.88472e-05 -3.88569e-05 0.101817)
(-5.01359e-07 -5.03386e-07 0.101856)
(-3.38745e-07 5.30753e-07 0.101841)
(5.32609e-07 -3.3441e-07 0.101841)
(-3.88475e-05 -3.88573e-05 0.101817)
(-5.01626e-07 -5.03311e-07 0.101856)
(-3.38785e-07 5.30869e-07 0.101841)
(5.3204e-07 -3.33635e-07 0.101841)
(-3.88476e-05 -3.88569e-05 0.101817)
(-5.02141e-07 -5.03794e-07 0.101856)
(-3.38702e-07 5.30615e-07 0.101841)
(5.32014e-07 -3.33498e-07 0.101841)
(-3.88476e-05 -3.8857e-05 0.101817)
(-5.02201e-07 -5.04001e-07 0.101856)
(-3.37801e-07 5.30022e-07 0.101841)
(5.31866e-07 -3.33419e-07 0.101841)
(-3.88469e-05 -3.88562e-05 0.101817)
(-5.02536e-07 -5.04115e-07 0.101856)
(-3.37441e-07 5.30052e-07 0.101841)
(5.3127e-07 -3.32516e-07 0.101841)
(-3.88464e-05 -3.88558e-05 0.101817)
(-5.02612e-07 -5.04067e-07 0.101856)
(-3.37954e-07 5.3028e-07 0.101841)
(5.31217e-07 -3.32798e-07 0.101841)
(-3.8847e-05 -3.88565e-05 0.101817)
(-5.0225e-07 -5.04145e-07 0.101856)
(-3.3801e-07 5.30257e-07 0.101841)
(5.31721e-07 -3.33282e-07 0.101841)
(-3.88468e-05 -3.88563e-05 0.101817)
(-5.01315e-07 -5.03816e-07 0.101856)
(-3.3789e-07 5.29961e-07 0.101841)
(5.32388e-07 -3.34071e-07 0.101841)
(-3.88477e-05 -3.88576e-05 0.101817)
(-5.00383e-07 -5.04448e-07 0.101856)
(-3.372e-07 5.28928e-07 0.101841)
(5.32899e-07 -3.32842e-07 0.101841)
(-3.88433e-05 -3.88546e-05 0.101817)
(-5.0101e-07 -5.13077e-07 0.101856)
(5.32231e-07 -3.22635e-07 0.101841)
(-4.03428e-05 -4.0313e-05 0.101818)
(5.4281e-07 3.39603e-07 0.101841)
(-5.43735e-07 3.51867e-07 0.101841)
(4.03471e-05 -4.03157e-05 0.101818)
(3.26822e-07 5.35833e-07 0.101841)
(3.42516e-07 -5.3992e-07 0.101841)
(-3.26522e-07 5.33136e-07 0.101841)
(-3.46763e-07 -5.33773e-07 0.101841)
(-4.03177e-05 4.03547e-05 0.101818)
(5.29831e-07 -3.19661e-07 0.101841)
(-5.2683e-07 -3.36242e-07 0.101841)
(4.03189e-05 4.03465e-05 0.101818)
(3.88235e-05 3.88119e-05 0.101817)
(-4.03675e-05 -4.03423e-05 0.101818)
(5.41635e-07 3.42467e-07 0.101841)
(-5.42786e-07 3.4894e-07 0.101841)
(5.22081e-07 3.04053e-07 0.101841)
(-5.24295e-07 3.16001e-07 0.101841)
(-3.88203e-05 3.87992e-05 0.101817)
(4.03708e-05 -4.03483e-05 0.101818)
(3.24779e-07 5.36314e-07 0.101841)
(3.31903e-07 -5.34244e-07 0.101841)
(2.96211e-07 5.12012e-07 0.101841)
(3.15364e-07 -5.27403e-07 0.101841)
(-3.36073e-07 -5.27218e-07 0.101841)
(-2.97671e-07 5.09884e-07 0.101841)
(-3.22176e-07 -5.21793e-07 0.101841)
(3.88031e-05 -3.88323e-05 0.101817)
(-4.03644e-05 4.03948e-05 0.101818)
(-5.20647e-07 -3.25317e-07 0.101841)
(5.1435e-07 -2.9859e-07 0.101841)
(-5.13227e-07 -3.14715e-07 0.101841)
(4.03643e-05 4.03878e-05 0.101818)
(3.87994e-05 3.87823e-05 0.101817)
(-4.04556e-05 -4.04463e-05 0.101818)
(5.28402e-07 3.15243e-07 0.101841)
(-5.31483e-07 3.21591e-07 0.101841)
(4.73811e-07 2.21288e-07 0.10184)
(-4.8043e-07 2.31466e-07 0.10184)
(-3.87966e-05 3.87696e-05 0.101817)
(4.04544e-05 -4.04447e-05 0.101818)
(3.04373e-07 5.15988e-07 0.101841)
(3.16829e-07 -5.36314e-07 0.101841)
(2.33023e-07 4.43895e-07 0.10184)
(2.84081e-07 -5.36102e-07 0.10184)
(-3.23117e-07 -5.29466e-07 0.101841)
(-2.44454e-07 4.45613e-07 0.10184)
(-2.95587e-07 -5.297e-07 0.10184)
(3.87629e-05 -3.87989e-05 0.101817)
(-4.04142e-05 4.04296e-05 0.101818)
(-5.17174e-07 -3.15929e-07 0.101841)
(5.02382e-07 -2.87759e-07 0.10184)
(-5.04167e-07 -3.01292e-07 0.10184)
(4.04134e-05 4.04227e-05 0.101818)
(3.87385e-05 3.87016e-05 0.101817)
(-4.02425e-05 -4.02106e-05 0.101818)
(5.23616e-07 2.80962e-07 0.10184)
(-5.3612e-07 2.82947e-07 0.10184)
(6.07437e-07 4.58446e-07 0.101841)
(-6.08371e-07 4.67802e-07 0.101841)
(-3.87471e-05 3.86922e-05 0.101817)
(4.02505e-05 -4.02062e-05 0.101818)
(3.03784e-07 4.80576e-07 0.10184)
(3.82279e-07 -6.28558e-07 0.10184)
(4.46771e-07 6.00954e-07 0.101841)
(4.25471e-07 -5.70381e-07 0.101841)
(-4.0305e-07 -6.17465e-07 0.10184)
(-4.41607e-07 6.04167e-07 0.101841)
(-4.31428e-07 -5.66011e-07 0.101841)
(3.87987e-05 -3.88521e-05 0.101817)
(-4.02682e-05 4.03092e-05 0.101818)
(-5.80847e-07 -4.12972e-07 0.10184)
(5.60755e-07 -4.03228e-07 0.101841)
(-5.59389e-07 -4.21654e-07 0.101841)
(4.02719e-05 4.02994e-05 0.101818)
(3.89475e-05 3.89431e-05 0.101817)
(-4.03584e-05 -4.03235e-05 0.101818)
(5.7457e-07 4.30272e-07 0.101841)
(-5.73643e-07 4.36758e-07 0.101841)
(5.43992e-07 3.60552e-07 0.101841)
(-5.44107e-07 3.73767e-07 0.101841)
(-3.89381e-05 3.89344e-05 0.101817)
(4.03646e-05 -4.03276e-05 0.101818)
(4.04216e-07 5.79047e-07 0.101841)
(3.97397e-07 -5.41015e-07 0.101841)
(3.41591e-07 5.42353e-07 0.101841)
(3.62214e-07 -5.32027e-07 0.101841)
(-3.99826e-07 -5.37207e-07 0.101841)
(-3.37791e-07 5.37622e-07 0.101841)
(-3.65027e-07 -5.25807e-07 0.101841)
(3.88815e-05 -3.89e-05 0.101817)
(-4.03229e-05 4.03784e-05 0.101818)
(-5.40869e-07 -3.8192e-07 0.101841)
(5.38768e-07 -3.1712e-07 0.101841)
(-5.35234e-07 -3.38464e-07 0.101841)
(4.03256e-05 4.03698e-05 0.101818)
(3.88523e-05 3.88443e-05 0.101817)
(-4.03607e-05 -4.03331e-05 0.101818)
(5.43845e-07 3.58643e-07 0.101841)
(-5.44928e-07 3.66954e-07 0.101841)
(5.45476e-07 3.46996e-07 0.101841)
(-5.47308e-07 3.59315e-07 0.101841)
(-3.88476e-05 3.88309e-05 0.101817)
(4.03633e-05 -4.03367e-05 0.101818)
(3.39553e-07 5.41462e-07 0.101841)
(3.57845e-07 -5.34133e-07 0.101841)
(3.35798e-07 5.36723e-07 0.101841)
(3.51448e-07 -5.40879e-07 0.101841)
(-3.61864e-07 -5.26391e-07 0.101841)
(-3.35991e-07 5.33815e-07 0.101841)
(-3.57422e-07 -5.32212e-07 0.101841)
(3.88401e-05 -3.88514e-05 0.101817)
(-4.03314e-05 4.0372e-05 0.101818)
(-5.35066e-07 -3.32837e-07 0.101841)
(5.37108e-07 -3.25821e-07 0.101841)
(-5.34504e-07 -3.41986e-07 0.101841)
(4.03309e-05 4.03664e-05 0.101818)
(3.88522e-05 3.88381e-05 0.101817)
(-4.03601e-05 -4.03345e-05 0.101818)
(5.45168e-07 3.50954e-07 0.101841)
(-5.47164e-07 3.58339e-07 0.101841)
(5.45937e-07 3.45381e-07 0.101841)
(-5.48448e-07 3.57624e-07 0.101841)
(-3.885e-05 3.88247e-05 0.101817)
(4.03623e-05 -4.03374e-05 0.101818)
(3.37305e-07 5.37015e-07 0.101841)
(3.49921e-07 -5.42541e-07 0.101841)
(3.36431e-07 5.34386e-07 0.101841)
(3.49712e-07 -5.46128e-07 0.101841)
(-3.55858e-07 -5.33758e-07 0.101841)
(-3.37583e-07 5.31775e-07 0.101841)
(-3.55969e-07 -5.38424e-07 0.101841)
(3.8834e-05 -3.88605e-05 0.101817)
(-4.03341e-05 4.03669e-05 0.101818)
(-5.31783e-07 -3.40454e-07 0.101841)
(5.31872e-07 -3.2943e-07 0.101841)
(-5.29717e-07 -3.48263e-07 0.101841)
(4.03346e-05 4.03602e-05 0.101818)
(3.88527e-05 3.88369e-05 0.101817)
(-4.03602e-05 -4.0335e-05 0.101818)
(5.45432e-07 3.4988e-07 0.101841)
(-5.48036e-07 3.57142e-07 0.101841)
(5.46133e-07 3.45037e-07 0.101841)
(-5.48344e-07 3.5685e-07 0.101841)
(-3.8851e-05 3.88242e-05 0.101817)
(4.03625e-05 -4.03383e-05 0.101818)
(3.37988e-07 5.35233e-07 0.101841)
(3.49014e-07 -5.4646e-07 0.101841)
(3.36917e-07 5.33777e-07 0.101841)
(3.49631e-07 -5.47512e-07 0.101841)
(-3.55477e-07 -5.38234e-07 0.101841)
(-3.37685e-07 5.30787e-07 0.101841)
(-3.55912e-07 -5.39833e-07 0.101841)
(3.88319e-05 -3.88646e-05 0.101817)
(-4.03341e-05 4.03655e-05 0.101818)
(-5.29334e-07 -3.4553e-07 0.101841)
(5.31755e-07 -3.31818e-07 0.101841)
(-5.29842e-07 -3.49439e-07 0.101841)
(4.03345e-05 4.03586e-05 0.101818)
(3.88529e-05 3.88367e-05 0.101817)
(-4.03595e-05 -4.03347e-05 0.101818)
(5.45848e-07 3.49871e-07 0.101841)
(-5.48122e-07 3.56908e-07 0.101841)
(5.4665e-07 3.45556e-07 0.101841)
(-5.48689e-07 3.57567e-07 0.101841)
(-3.8851e-05 3.88237e-05 0.101817)
(4.03621e-05 -4.0338e-05 0.101818)
(3.38674e-07 5.35012e-07 0.101841)
(3.49333e-07 -5.47703e-07 0.101841)
(3.37881e-07 5.33991e-07 0.101841)
(3.50517e-07 -5.48471e-07 0.101841)
(-3.5552e-07 -5.39484e-07 0.101841)
(-3.38208e-07 5.31031e-07 0.101841)
(-3.56129e-07 -5.40571e-07 0.101841)
(3.88319e-05 -3.88659e-05 0.101817)
(-4.03332e-05 4.03645e-05 0.101818)
(-5.29045e-07 -3.47505e-07 0.101841)
(5.3254e-07 -3.32887e-07 0.101841)
(-5.30122e-07 -3.49355e-07 0.101841)
(4.03341e-05 4.0358e-05 0.101818)
(3.88535e-05 3.8837e-05 0.101817)
(-4.03595e-05 -4.03344e-05 0.101818)
(5.4625e-07 3.50388e-07 0.101841)
(-5.48228e-07 3.5729e-07 0.101841)
(5.46875e-07 3.45875e-07 0.101841)
(-5.48965e-07 3.5761e-07 0.101841)
(-3.88514e-05 3.88239e-05 0.101817)
(4.03617e-05 -4.03379e-05 0.101818)
(3.39396e-07 5.35143e-07 0.101841)
(3.49889e-07 -5.48465e-07 0.101841)
(3.37855e-07 5.34274e-07 0.101841)
(3.49975e-07 -5.48125e-07 0.101841)
(-3.55545e-07 -5.39917e-07 0.101841)
(-3.38441e-07 5.31136e-07 0.101841)
(-3.55971e-07 -5.40272e-07 0.101841)
(3.88328e-05 -3.88668e-05 0.101817)
(-4.03339e-05 4.0365e-05 0.101818)
(-5.29301e-07 -3.48898e-07 0.101841)
(5.32198e-07 -3.32535e-07 0.101841)
(-5.30325e-07 -3.49125e-07 0.101841)
(4.03339e-05 4.03583e-05 0.101818)
(3.88535e-05 3.88372e-05 0.101817)
(-4.03602e-05 -4.03353e-05 0.101818)
(5.46173e-07 3.50352e-07 0.101841)
(-5.48465e-07 3.57286e-07 0.101841)
(5.46213e-07 3.45107e-07 0.101841)
(-5.48701e-07 3.57079e-07 0.101841)
(-3.88517e-05 3.88241e-05 0.101817)
(4.03622e-05 -4.03382e-05 0.101818)
(3.39097e-07 5.35269e-07 0.101841)
(3.49241e-07 -5.47841e-07 0.101841)
(3.37172e-07 5.33618e-07 0.101841)
(3.4958e-07 -5.47729e-07 0.101841)
(-3.55275e-07 -5.39409e-07 0.101841)
(-3.3826e-07 5.30918e-07 0.101841)
(-3.56102e-07 -5.40274e-07 0.101841)
(3.8832e-05 -3.88661e-05 0.101817)
(-4.0334e-05 4.03655e-05 0.101818)
(-5.29284e-07 -3.48392e-07 0.101841)
(5.32018e-07 -3.32079e-07 0.101841)
(-5.3055e-07 -3.49081e-07 0.101841)
(4.03339e-05 4.03583e-05 0.101818)
(3.88529e-05 3.88365e-05 0.101817)
(-4.03604e-05 -4.03354e-05 0.101818)
(5.45732e-07 3.49866e-07 0.101841)
(-5.48175e-07 3.56892e-07 0.101841)
(5.45894e-07 3.44765e-07 0.101841)
(-5.48059e-07 3.56585e-07 0.101841)
(-3.88512e-05 3.88237e-05 0.101817)
(4.03627e-05 -4.03388e-05 0.101818)
(3.38695e-07 5.34794e-07 0.101841)
(3.49084e-07 -5.47697e-07 0.101841)
(3.36865e-07 5.33355e-07 0.101841)
(3.49217e-07 -5.47485e-07 0.101841)
(-3.55454e-07 -5.39558e-07 0.101841)
(-3.37351e-07 5.30255e-07 0.101841)
(-3.55073e-07 -5.39639e-07 0.101841)
(3.88319e-05 -3.88658e-05 0.101817)
(-4.03344e-05 4.03657e-05 0.101818)
(-5.29557e-07 -3.48547e-07 0.101841)
(5.31648e-07 -3.31783e-07 0.101841)
(-5.29902e-07 -3.4848e-07 0.101841)
(4.03345e-05 4.0359e-05 0.101818)
(3.88526e-05 3.88362e-05 0.101817)
(-4.03603e-05 -4.03354e-05 0.101818)
(5.45494e-07 3.49495e-07 0.101841)
(-5.47584e-07 3.56303e-07 0.101841)
(5.4596e-07 3.44549e-07 0.101841)
(-5.4793e-07 3.56282e-07 0.101841)
(-3.88506e-05 3.8823e-05 0.101817)
(4.03627e-05 -4.03389e-05 0.101818)
(3.38347e-07 5.34549e-07 0.101841)
(3.48808e-07 -5.47588e-07 0.101841)
(3.36575e-07 5.33299e-07 0.101841)
(3.4885e-07 -5.47202e-07 0.101841)
(-3.5447e-07 -5.38915e-07 0.101841)
(-3.36974e-07 5.3016e-07 0.101841)
(-3.5444e-07 -5.39155e-07 0.101841)
(3.88315e-05 -3.88656e-05 0.101817)
(-4.03346e-05 4.03659e-05 0.101818)
(-5.28924e-07 -3.48032e-07 0.101841)
(5.31455e-07 -3.31304e-07 0.101841)
(-5.29452e-07 -3.47827e-07 0.101841)
(4.0335e-05 4.03594e-05 0.101818)
(3.88527e-05 3.88362e-05 0.101817)
(-4.03605e-05 -4.03356e-05 0.101818)
(5.45346e-07 3.49104e-07 0.101841)
(-5.47582e-07 3.56086e-07 0.101841)
(5.4593e-07 3.44715e-07 0.101841)
(-5.48277e-07 3.56627e-07 0.101841)
(-3.88507e-05 3.8823e-05 0.101817)
(4.03628e-05 -4.03389e-05 0.101818)
(3.37937e-07 5.34311e-07 0.101841)
(3.4817e-07 -5.47017e-07 0.101841)
(3.36521e-07 5.33238e-07 0.101841)
(3.48795e-07 -5.47094e-07 0.101841)
(-3.53838e-07 -5.38476e-07 0.101841)
(-3.37557e-07 5.3044e-07 0.101841)
(-3.5528e-07 -5.3976e-07 0.101841)
(3.88312e-05 -3.88652e-05 0.101817)
(-4.03349e-05 4.03662e-05 0.101818)
(-5.28433e-07 -3.47303e-07 0.101841)
(5.31151e-07 -3.31291e-07 0.101841)
(-5.29942e-07 -3.48243e-07 0.101841)
(4.03346e-05 4.03588e-05 0.101818)
(3.88526e-05 3.88362e-05 0.101817)
(-4.03605e-05 -4.03355e-05 0.101818)
(5.45216e-07 3.492e-07 0.101841)
(-5.47797e-07 3.56352e-07 0.101841)
(5.45945e-07 3.44614e-07 0.101841)
(-5.47805e-07 3.56383e-07 0.101841)
(-3.88509e-05 3.88233e-05 0.101817)
(4.03629e-05 -4.03387e-05 0.101818)
(3.37905e-07 5.34237e-07 0.101841)
(3.48282e-07 -5.47104e-07 0.101841)
(3.36729e-07 5.33312e-07 0.101841)
(3.48893e-07 -5.47316e-07 0.101841)
(-3.54749e-07 -5.39076e-07 0.101841)
(-3.37294e-07 5.30204e-07 0.101841)
(-3.55043e-07 -5.39712e-07 0.101841)
(3.88311e-05 -3.88651e-05 0.101817)
(-4.03347e-05 4.0366e-05 0.101818)
(-5.29025e-07 -3.47762e-07 0.101841)
(5.31506e-07 -3.31727e-07 0.101841)
(-5.29835e-07 -3.48426e-07 0.101841)
(4.03348e-05 4.03591e-05 0.101818)
(3.88528e-05 3.88363e-05 0.101817)
(-4.0359e-05 -4.03354e-05 0.101818)
(5.4538e-07 3.49218e-07 0.101841)
(-5.47641e-07 3.56288e-07 0.101841)
(5.46362e-07 3.4466e-07 0.101841)
(-5.48127e-07 3.56693e-07 0.101841)
(-3.88497e-05 3.88224e-05 0.101817)
(4.03638e-05 -4.03396e-05 0.101818)
(3.3835e-07 5.34504e-07 0.101841)
(3.48872e-07 -5.4757e-07 0.101841)
(3.37658e-07 5.33761e-07 0.101841)
(3.49774e-07 -5.47779e-07 0.101841)
(-3.54419e-07 -5.38943e-07 0.101841)
(-3.37415e-07 5.30492e-07 0.101841)
(-3.54934e-07 -5.39967e-07 0.101841)
(3.88318e-05 -3.88657e-05 0.101817)
(-4.03323e-05 4.03641e-05 0.101818)
(-5.28729e-07 -3.47866e-07 0.101841)
(5.31914e-07 -3.31786e-07 0.101841)
(-5.29582e-07 -3.48829e-07 0.101841)
(4.03344e-05 4.03584e-05 0.101818)
(3.88537e-05 3.88372e-05 0.101817)
(-4.03549e-05 -4.03332e-05 0.101818)
(5.47108e-07 3.50507e-07 0.101841)
(-5.47285e-07 3.56833e-07 0.101841)
(5.48467e-07 3.44688e-07 0.101841)
(-5.48083e-07 3.57499e-07 0.101841)
(-3.88499e-05 3.88225e-05 0.101817)
(4.03582e-05 -4.03341e-05 0.101818)
(3.39094e-07 5.34661e-07 0.101841)
(3.49323e-07 -5.47949e-07 0.101841)
(3.39669e-07 5.33158e-07 0.101841)
(3.51953e-07 -5.49252e-07 0.101841)
(-3.55091e-07 -5.4004e-07 0.101841)
(-3.38176e-07 5.30644e-07 0.101841)
(-3.54986e-07 -5.4109e-07 0.101841)
(3.88311e-05 -3.8865e-05 0.101817)
(-4.0328e-05 4.03603e-05 0.101818)
(-5.29083e-07 -3.49134e-07 0.101841)
(5.34207e-07 -3.3379e-07 0.101841)
(-5.29342e-07 -3.49848e-07 0.101841)
(4.03323e-05 4.03551e-05 0.101818)
(3.88521e-05 3.88325e-05 0.101817)
(-4.03447e-05 -4.03284e-05 0.101818)
(5.47054e-07 3.48329e-07 0.101841)
(-5.46003e-07 3.55822e-07 0.101841)
(5.47672e-07 3.34405e-07 0.101841)
(-3.88438e-05 3.88165e-05 0.101817)
(3.40043e-07 5.34093e-07 0.101841)
(3.50274e-07 -5.48383e-07 0.101841)
(3.36399e-07 5.28333e-07 0.101841)
(3.49277e-07 -5.47208e-07 0.101841)
(-3.53486e-07 -5.4007e-07 0.101841)
(-3.4457e-07 -5.39261e-07 0.101841)
(3.88301e-05 -3.88629e-05 0.101817)
(-4.03207e-05 4.03566e-05 0.101818)
(-5.27477e-07 -3.48907e-07 0.101841)
(5.3395e-07 -3.25874e-07 0.101841)
(-5.23995e-07 -3.42732e-07 0.101841)
(4.03227e-05 4.0342e-05 0.101818)
(3.88379e-05 3.8814e-05 0.101817)
(3.32929e-07 5.26883e-07 0.101841)
(3.4256e-07 -5.44012e-07 0.101841)
(3.88151e-05 -3.88443e-05 0.101817)
(-5.09857e-07 -5.04674e-07 0.101856)
(5.13154e-07 -4.99181e-07 0.101856)
(-5.04075e-07 5.17252e-07 0.101856)
(5.17111e-07 5.0505e-07 0.101856)
(2.42253e-08 -7.72368e-06 0.100777)
(6.89807e-07 5.84033e-06 0.0960865)
(-1.67528e-08 7.50068e-06 0.100773)
(-9.96978e-07 -6.00108e-06 0.0960934)
(-1.51602e-06 1.98152e-06 0.0861635)
(1.5224e-06 -2.14984e-06 0.0861712)
(-7.77941e-06 3.73681e-08 0.100777)
(5.80158e-06 6.72765e-07 0.0960861)
(7.54217e-06 1.96932e-08 0.100773)
(-5.97154e-06 -9.62682e-07 0.0960933)
(5.16906e-07 -5.02231e-07 0.101856)
(-5.10635e-07 5.24258e-07 0.101856)
(5.24918e-07 5.12362e-07 0.101856)
(-5.28624e-07 -5.28015e-07 0.101855)
(5.30005e-07 -5.23317e-07 0.101855)
(-5.25605e-07 5.33251e-07 0.101855)
(5.3641e-07 5.22506e-07 0.101855)
(1.27191e-05 6.7727e-09 0.101647)
(-1.18669e-05 3.49534e-06 0.100968)
(-3.95159e-07 -1.48739e-07 0.101852)
(-3.04432e-07 5.26563e-07 0.101841)
(-1.2635e-05 3.21098e-09 0.101646)
(1.15319e-05 -3.76672e-06 0.100974)
(-3.74459e-07 -1.50421e-07 0.101852)
(1.88039e-06 -1.48079e-06 0.0861618)
(-2.11321e-06 1.5209e-06 0.0861716)
(-2.43625e-09 1.27188e-05 0.101647)
(-1.57281e-07 -3.8556e-07 0.101852)
(3.49168e-06 -1.18906e-05 0.100968)
(5.12155e-07 -2.90241e-07 0.101841)
(-1.24078e-08 -1.26286e-05 0.101646)
(-1.61861e-07 -3.66581e-07 0.101852)
(-3.83369e-06 1.15974e-05 0.100973)
(-3.84099e-06 -4.60136e-06 0.0996445)
(-4.59629e-06 -3.83246e-06 0.0996441)
(4.03383e-05 4.03648e-05 0.101818)
(3.64033e-06 4.48884e-06 0.0996508)
(4.48058e-06 3.63704e-06 0.0996503)
(3.69093e-09 -7.81348e-06 0.100777)
(7.5857e-07 5.80572e-06 0.0960872)
(-3.04884e-08 7.44002e-06 0.100773)
(-9.66292e-07 -6.09375e-06 0.0960942)
(-1.52869e-06 1.94114e-06 0.086165)
(1.58905e-06 -2.30559e-06 0.0861733)
(-7.85615e-06 -2.92341e-08 0.100776)
(5.76661e-06 7.36957e-07 0.0960868)
(7.47678e-06 3.85925e-09 0.100773)
(-6.06329e-06 -9.45132e-07 0.096094)
(5.33294e-07 -5.28409e-07 0.101855)
(-5.3098e-07 5.36279e-07 0.101855)
(5.42399e-07 5.25568e-07 0.101855)
(-5.44687e-07 -5.66587e-07 0.101855)
(5.4145e-07 -5.62848e-07 0.101855)
(-5.39803e-07 5.23219e-07 0.101855)
(5.4779e-07 5.14688e-07 0.101855)
(1.27573e-05 -2.01584e-08 0.101647)
(-1.18021e-05 3.42831e-06 0.100968)
(-3.73855e-07 -1.70057e-07 0.101852)
(-2.91707e-07 5.10231e-07 0.101841)
(-1.25787e-05 -1.04115e-08 0.101646)
(1.1604e-05 -3.89347e-06 0.100974)
(-3.48503e-07 -1.72988e-07 0.101852)
(1.73469e-06 -1.36908e-06 0.0861636)
(-2.0778e-06 1.42908e-06 0.0861739)
(-7.68495e-09 1.2753e-05 0.101647)
(-1.70994e-07 -3.66647e-07 0.101852)
(3.39751e-06 -1.18105e-05 0.100968)
(4.84891e-07 -2.57439e-07 0.101841)
(-2.59242e-08 -1.25706e-05 0.101646)
(-1.68414e-07 -3.32944e-07 0.101852)
(-3.8719e-06 1.16287e-05 0.100973)
(-3.7955e-06 -4.5337e-06 0.0996444)
(-4.52454e-06 -3.7898e-06 0.099644)
(4.03702e-05 4.03887e-05 0.101818)
(3.62631e-06 4.4842e-06 0.0996507)
(4.48508e-06 3.61739e-06 0.0996502)
(3.69346e-08 -7.77603e-06 0.100776)
(7.94234e-07 5.75505e-06 0.096088)
(-6.71199e-08 7.35674e-06 0.100772)
(-9.61539e-07 -6.06605e-06 0.0960951)
(-1.3109e-06 1.73131e-06 0.0861677)
(1.41385e-06 -2.1709e-06 0.0861771)
(-7.73847e-06 -2.56955e-07 0.100776)
(5.73168e-06 7.34934e-07 0.0960876)
(7.42014e-06 -5.59718e-08 0.100772)
(-5.99595e-06 -9.90818e-07 0.096095)
(5.20078e-07 -5.66862e-07 0.101855)
(-4.92699e-07 4.63024e-07 0.101855)
(4.98448e-07 4.55934e-07 0.101855)
(-4.23919e-07 -4.17943e-07 0.101855)
(4.33161e-07 -4.14318e-07 0.101855)
(-4.39201e-07 4.51523e-07 0.101855)
(4.53015e-07 4.41452e-07 0.101855)
(1.23824e-05 -6.28145e-08 0.101647)
(-1.17241e-05 3.26682e-06 0.100967)
(-4.17454e-07 -2.21682e-07 0.101852)
(-4.38247e-07 5.49419e-07 0.10184)
(-1.25427e-05 -6.70389e-08 0.101645)
(1.13968e-05 -3.86625e-06 0.100973)
(-5.32958e-07 -1.99067e-07 0.101852)
(1.63066e-06 -1.4017e-06 0.0861671)
(-1.49866e-06 1.04702e-06 0.0861759)
(2.40391e-08 1.2338e-05 0.101647)
(-1.5752e-07 -4.62674e-07 0.101852)
(3.33578e-06 -1.18085e-05 0.100967)
(6.06196e-07 -4.61584e-07 0.10184)
(-2.74127e-08 -1.25773e-05 0.101645)
(-1.29079e-07 -5.61306e-07 0.101852)
(-3.56165e-06 1.12443e-05 0.100973)
(-3.78357e-06 -4.54818e-06 0.0996443)
(-4.52815e-06 -3.78641e-06 0.0996439)
(4.02031e-05 4.02098e-05 0.101818)
(3.55855e-06 4.28347e-06 0.0996504)
(4.29007e-06 3.54198e-06 0.0996499)
(9.74965e-09 -7.5395e-06 0.100777)
(8.09567e-07 6.78248e-06 0.0960877)
(-2.57681e-08 7.77851e-06 0.100772)
(-9.54619e-07 -5.53581e-06 0.0960935)
(-1.77901e-06 2.56593e-06 0.0861656)
(1.47514e-06 -1.88351e-06 0.0861711)
(-7.62054e-06 1.08166e-07 0.100777)
(6.73361e-06 8.21835e-07 0.0960873)
(7.79601e-06 1.28729e-07 0.100773)
(-5.52279e-06 -8.94348e-07 0.0960933)
(4.54719e-07 -4.29874e-07 0.101856)
(-4.6411e-07 4.86507e-07 0.101856)
(4.79833e-07 4.75195e-07 0.101856)
(-4.97575e-07 -4.88243e-07 0.101856)
(5.01989e-07 -4.82958e-07 0.101856)
(-4.91142e-07 5.19602e-07 0.101856)
(5.04837e-07 5.05931e-07 0.101856)
(1.25251e-05 4.25854e-08 0.101647)
(-1.22105e-05 3.90713e-06 0.100968)
(-5.18632e-07 -1.02494e-07 0.101852)
(-3.59815e-07 5.53886e-07 0.101841)
(-1.30012e-05 5.34434e-08 0.101646)
(1.13464e-05 -3.56037e-06 0.100974)
(-4.76136e-07 -1.15974e-07 0.101852)
(2.24237e-06 -1.54646e-06 0.0861621)
(-1.88575e-06 1.47074e-06 0.0861707)
(5.38298e-09 1.25548e-05 0.101647)
(-1.35435e-07 -4.94109e-07 0.101852)
(3.76984e-06 -1.21513e-05 0.100968)
(5.37256e-07 -3.38897e-07 0.101841)
(1.91005e-09 -1.29775e-05 0.101646)
(-1.4256e-07 -4.54504e-07 0.101852)
(-3.6848e-06 1.14494e-05 0.100974)
(-3.77319e-06 -4.58842e-06 0.0996443)
(-4.59135e-06 -3.76091e-06 0.0996439)
(4.03202e-05 4.03618e-05 0.101818)
(3.63926e-06 4.48409e-06 0.0996508)
(4.45761e-06 3.64883e-06 0.0996503)
(1.68508e-08 -7.68342e-06 0.100777)
(7.48503e-07 6.00055e-06 0.0960863)
(-2.84326e-08 7.53257e-06 0.100773)
(-9.72111e-07 -5.84455e-06 0.096093)
(-1.55259e-06 2.07427e-06 0.0861634)
(1.48983e-06 -2.06448e-06 0.0861707)
(-7.73442e-06 1.53233e-08 0.100777)
(5.96169e-06 7.3011e-07 0.0960859)
(7.57399e-06 -2.85051e-09 0.100773)
(-5.81424e-06 -9.40624e-07 0.0960928)
(5.05092e-07 -4.87875e-07 0.101856)
(-4.92706e-07 5.20322e-07 0.101856)
(5.0724e-07 5.0749e-07 0.101856)
(-5.0221e-07 -4.99334e-07 0.101856)
(5.0687e-07 -4.93715e-07 0.101856)
(-4.96482e-07 5.13775e-07 0.101856)
(5.09034e-07 5.02618e-07 0.101856)
(1.26133e-05 7.56678e-09 0.101647)
(-1.19169e-05 3.51379e-06 0.100968)
(-4.30227e-07 -1.41567e-07 0.101852)
(-3.36034e-07 5.361e-07 0.101841)
(-1.27341e-05 3.04943e-09 0.101646)
(1.14611e-05 -3.7209e-06 0.100974)
(-4.25006e-07 -1.45001e-07 0.101852)
(1.96864e-06 -1.49327e-06 0.0861613)
(-1.95466e-06 1.43747e-06 0.0861706)
(2.06379e-08 1.26294e-05 0.101647)
(-1.46792e-07 -4.03882e-07 0.101852)
(3.55409e-06 -1.19314e-05 0.100968)
(5.40481e-07 -3.19874e-07 0.101841)
(-1.89614e-08 -1.26813e-05 0.101646)
(-1.46931e-07 -4.08977e-07 0.101852)
(-3.74138e-06 1.1518e-05 0.100974)
(-3.82356e-06 -4.58193e-06 0.0996445)
(-4.59898e-06 -3.79801e-06 0.0996441)
(4.03289e-05 4.03722e-05 0.101818)
(3.64377e-06 4.47244e-06 0.0996508)
(4.44256e-06 3.65766e-06 0.0996504)
(1.72882e-08 -7.68813e-06 0.100777)
(7.54332e-07 5.98688e-06 0.0960863)
(-2.85124e-08 7.51382e-06 0.100773)
(-9.70376e-07 -5.84417e-06 0.096093)
(-1.56608e-06 2.06362e-06 0.0861634)
(1.48579e-06 -2.06655e-06 0.0861707)
(-7.73726e-06 1.15885e-08 0.100777)
(5.95192e-06 7.31929e-07 0.0960859)
(7.56279e-06 -1.3573e-08 0.100773)
(-5.81253e-06 -9.40453e-07 0.0960928)
(5.06577e-07 -4.94952e-07 0.101856)
(-4.9679e-07 5.1124e-07 0.101856)
(5.10292e-07 5.00064e-07 0.101856)
(-5.02572e-07 -5.02416e-07 0.101856)
(5.05489e-07 -4.96929e-07 0.101856)
(-4.97763e-07 5.06766e-07 0.101856)
(5.09384e-07 4.9416e-07 0.101856)
(1.26153e-05 3.0241e-09 0.101647)
(-1.19108e-05 3.50942e-06 0.100968)
(-4.23971e-07 -1.49566e-07 0.101852)
(-3.36658e-07 5.32556e-07 0.101841)
(-1.27274e-05 -3.95015e-09 0.101646)
(1.14615e-05 -3.7222e-06 0.100974)
(-4.22214e-07 -1.51087e-07 0.101852)
(1.96452e-06 -1.50621e-06 0.0861613)
(-1.95739e-06 1.43106e-06 0.0861706)
(3.56302e-09 1.26111e-05 0.101647)
(-1.48487e-07 -4.1339e-07 0.101852)
(3.54102e-06 -1.19433e-05 0.100968)
(5.3297e-07 -3.30105e-07 0.101841)
(-1.11522e-08 -1.27144e-05 0.101646)
(-1.50581e-07 -4.21696e-07 0.101852)
(-3.7539e-06 1.15062e-05 0.100974)
(-3.81709e-06 -4.58893e-06 0.0996445)
(-4.58919e-06 -3.8061e-06 0.0996441)
(4.03362e-05 4.03634e-05 0.101818)
(3.64959e-06 4.4658e-06 0.0996508)
(4.45792e-06 3.64291e-06 0.0996504)
(1.75026e-08 -7.68779e-06 0.100777)
(7.54585e-07 5.98756e-06 0.0960863)
(-2.78673e-08 7.51305e-06 0.100773)
(-9.70307e-07 -5.8439e-06 0.096093)
(-1.56655e-06 2.06354e-06 0.0861634)
(1.48634e-06 -2.06614e-06 0.0861706)
(-7.73697e-06 1.00223e-08 0.100777)
(5.95331e-06 7.30883e-07 0.0960859)
(7.562e-06 -1.58178e-08 0.100773)
(-5.81161e-06 -9.41394e-07 0.0960928)
(5.05246e-07 -4.97276e-07 0.101856)
(-4.97492e-07 5.06244e-07 0.101856)
(5.10214e-07 4.94064e-07 0.101856)
(-5.02471e-07 -5.03348e-07 0.101856)
(5.05348e-07 -4.97905e-07 0.101856)
(-4.97491e-07 5.0506e-07 0.101856)
(5.09389e-07 4.92573e-07 0.101856)
(1.26142e-05 1.77602e-09 0.101647)
(-1.19112e-05 3.50786e-06 0.100968)
(-4.24598e-07 -1.52263e-07 0.101852)
(-3.37696e-07 5.31148e-07 0.101841)
(-1.2727e-05 -6.19183e-09 0.101646)
(1.14602e-05 -3.72297e-06 0.100974)
(-4.22779e-07 -1.53136e-07 0.101852)
(1.96367e-06 -1.50865e-06 0.0861613)
(-1.95765e-06 1.43011e-06 0.0861706)
(2.88454e-09 1.26122e-05 0.101647)
(-1.51577e-07 -4.18923e-07 0.101852)
(3.53337e-06 -1.1949e-05 0.100968)
(5.31613e-07 -3.31237e-07 0.101841)
(-1.26817e-08 -1.27197e-05 0.101646)
(-1.52201e-07 -4.20554e-07 0.101852)
(-3.75338e-06 1.15066e-05 0.100974)
(-3.81501e-06 -4.59187e-06 0.0996445)
(-4.58356e-06 -3.80992e-06 0.0996441)
(4.03361e-05 4.03605e-05 0.101818)
(3.64934e-06 4.46421e-06 0.0996508)
(4.4584e-06 3.64324e-06 0.0996504)
(1.75857e-08 -7.68826e-06 0.100777)
(7.55061e-07 5.98727e-06 0.0960863)
(-2.77218e-08 7.51261e-06 0.100773)
(-9.69775e-07 -5.84362e-06 0.096093)
(-1.56668e-06 2.06314e-06 0.0861634)
(1.48547e-06 -2.0666e-06 0.0861707)
(-7.73716e-06 9.91439e-09 0.100777)
(5.95298e-06 7.30657e-07 0.0960859)
(7.56164e-06 -1.62164e-08 0.100773)
(-5.81182e-06 -9.41307e-07 0.0960928)
(5.05198e-07 -4.97931e-07 0.101856)
(-4.97157e-07 5.04731e-07 0.101856)
(5.10415e-07 4.92414e-07 0.101856)
(-5.01859e-07 -5.03177e-07 0.101856)
(5.05087e-07 -4.97586e-07 0.101856)
(-4.96881e-07 5.04216e-07 0.101856)
(5.09454e-07 4.919e-07 0.101856)
(1.26147e-05 1.51627e-09 0.101647)
(-1.19108e-05 3.50726e-06 0.100968)
(-4.24735e-07 -1.53142e-07 0.101852)
(-3.38008e-07 5.31045e-07 0.101841)
(-1.27266e-05 -6.63796e-09 0.101646)
(1.14607e-05 -3.7232e-06 0.100974)
(-4.22973e-07 -1.53677e-07 0.101852)
(1.96349e-06 -1.50907e-06 0.0861613)
(-1.95737e-06 1.43012e-06 0.0861706)
(7.04658e-10 1.26056e-05 0.101647)
(-1.5191e-07 -4.19661e-07 0.101852)
(3.53308e-06 -1.19495e-05 0.100968)
(5.31863e-07 -3.32622e-07 0.101841)
(-1.12435e-08 -1.27158e-05 0.101646)
(-1.52437e-07 -4.22625e-07 0.101852)
(-3.75463e-06 1.15053e-05 0.100974)
(-3.81384e-06 -4.59253e-06 0.0996445)
(-4.58479e-06 -3.80844e-06 0.0996441)
(4.03361e-05 4.03599e-05 0.101818)
(3.65004e-06 4.46494e-06 0.0996508)
(4.45977e-06 3.64252e-06 0.0996504)
(1.72434e-08 -7.6884e-06 0.100777)
(7.5472e-07 5.98721e-06 0.0960863)
(-2.80217e-08 7.51297e-06 0.100773)
(-9.70578e-07 -5.84419e-06 0.096093)
(-1.56729e-06 2.06311e-06 0.0861634)
(1.48607e-06 -2.06591e-06 0.0861707)
(-7.73701e-06 9.29802e-09 0.100777)
(5.95345e-06 7.3101e-07 0.0960859)
(7.56242e-06 -1.65142e-08 0.100773)
(-5.81169e-06 -9.41252e-07 0.0960928)
(5.05079e-07 -4.97677e-07 0.101856)
(-4.96713e-07 5.04202e-07 0.101856)
(5.10539e-07 4.92133e-07 0.101856)
(-5.01828e-07 -5.02917e-07 0.101856)
(5.04968e-07 -4.9746e-07 0.101856)
(-4.97175e-07 5.04643e-07 0.101856)
(5.09474e-07 4.92458e-07 0.101856)
(1.26144e-05 9.80852e-10 0.101647)
(-1.19114e-05 3.50699e-06 0.100968)
(-4.24985e-07 -1.53228e-07 0.101852)
(-3.38266e-07 5.30974e-07 0.101841)
(-1.27269e-05 -7.19313e-09 0.101646)
(1.146e-05 -3.72376e-06 0.100974)
(-4.23132e-07 -1.5373e-07 0.101852)
(1.96345e-06 -1.5096e-06 0.0861613)
(-1.95772e-06 1.42918e-06 0.0861706)
(1.1065e-09 1.26029e-05 0.101647)
(-1.51656e-07 -4.20801e-07 0.101852)
(3.53361e-06 -1.19507e-05 0.100968)
(5.32152e-07 -3.32918e-07 0.101841)
(-1.04424e-08 -1.27141e-05 0.101646)
(-1.52081e-07 -4.23193e-07 0.101852)
(-3.75362e-06 1.15048e-05 0.100974)
(-3.81393e-06 -4.5927e-06 0.0996445)
(-4.58483e-06 -3.80822e-06 0.0996441)
(4.03354e-05 4.03595e-05 0.101818)
(3.64962e-06 4.46357e-06 0.0996508)
(4.45869e-06 3.64285e-06 0.0996504)
(1.74376e-08 -7.68861e-06 0.100777)
(7.54914e-07 5.9874e-06 0.0960863)
(-2.78762e-08 7.51289e-06 0.100773)
(-9.70147e-07 -5.84404e-06 0.096093)
(-1.56663e-06 2.06342e-06 0.0861634)
(1.48594e-06 -2.06639e-06 0.0861707)
(-7.73753e-06 9.57356e-09 0.100777)
(5.95351e-06 7.30323e-07 0.0960859)
(7.56195e-06 -1.6695e-08 0.100773)
(-5.8117e-06 -9.41404e-07 0.0960928)
(5.04926e-07 -4.97617e-07 0.101856)
(-4.97201e-07 5.04799e-07 0.101856)
(5.10508e-07 4.92739e-07 0.101856)
(-5.02512e-07 -5.03494e-07 0.101856)
(5.04898e-07 -4.97868e-07 0.101856)
(-4.9759e-07 5.04794e-07 0.101856)
(5.09254e-07 4.92489e-07 0.101856)
(1.26151e-05 1.28597e-09 0.101647)
(-1.19115e-05 3.50704e-06 0.100968)
(-4.24938e-07 -1.53016e-07 0.101852)
(-3.38294e-07 5.3114e-07 0.101841)
(-1.27273e-05 -7.12442e-09 0.101646)
(1.14607e-05 -3.72336e-06 0.100974)
(-4.23127e-07 -1.53561e-07 0.101852)