/*--------------------------------*- C++ -*----------------------------------*\
| =========                 |                                                 |
| \\      /  F ield         | OpenFOAM: The Open Source CFD Toolbox           |
|  \\    /   O peration     | Version:  2206                                  |
|   \\  /    A nd           | Website:  www.openfoam.com                      |
|    \\/     M anipulation  |                                                 |
\*---------------------------------------------------------------------------*/
FoamFile
{
    version     2.0;
    format      ascii;
    arch        "LSB;label=32;scalar=64";
    class       volScalarField;
    location    "40";
    object      p;
}
// * * * * * * * * * * * * * * * * * * * * * * * * * * * * * * * * * * * * * //

dimensions      [0 2 -2 0 0 0 0];

internalField   nonuniform List<scalar> 
28515
(
-2.64644e-07
-5.5213e-07
-5.52259e-07
-9.37674e-07
-1.83091e-07
-1.75758e-07
-1.75694e-07
-1.83585e-07
-1.76548e-07
-1.68586e-07
-1.68511e-07
-1.76203e-07
-1.70528e-07
-1.62446e-07
-1.62351e-07
-1.70114e-07
-1.64469e-07
-1.56423e-07
-1.56319e-07
-1.64104e-07
-1.58431e-07
-1.50389e-07
-1.50283e-07
-1.58072e-07
-1.52397e-07
-1.44356e-07
-1.4425e-07
-1.5204e-07
-1.46359e-07
-1.38319e-07
-1.38214e-07
-1.46002e-07
-1.40323e-07
-1.3228e-07
-1.32176e-07
-1.39964e-07
-1.34289e-07
-1.26246e-07
-1.26141e-07
-1.33931e-07
-1.28254e-07
-1.20209e-07
-1.20107e-07
-1.27897e-07
-1.22221e-07
-1.14164e-07
-1.14066e-07
-1.21852e-07
-1.06459e-06
-8.70251e-07
-8.70097e-07
-1.0645e-06
-8.70151e-07
-8.70357e-07
-4.34934e-08
-4.33957e-08
-4.37079e-08
-4.35913e-08
-8.7011e-07
-8.70346e-07
-1.06471e-06
-8.70377e-07
-8.7022e-07
-1.06465e-06
-9.37659e-07
-1.66041e-07
-5.52229e-07
-5.52169e-07
-1.64708e-07
-1.64726e-07
-9.37616e-07
-1.66054e-07
-5.52133e-07
-5.5231e-07
-1.64838e-07
-1.64727e-07
-5.52278e-07
-1.64822e-07
-1.64724e-07
-9.37719e-07
-1.66013e-07
-5.52186e-07
-1.6482e-07
-1.64845e-07
-1.66026e-07
-1.83603e-07
-1.69111e-07
-1.75799e-07
-1.75834e-07
-1.701e-07
-1.70121e-07
-1.83611e-07
-1.69127e-07
-1.75759e-07
-1.75752e-07
-1.70082e-07
-1.70028e-07
-1.7575e-07
-1.70088e-07
-1.70036e-07
-1.83571e-07
-1.69012e-07
-1.75722e-07
-1.70005e-07
-1.70027e-07
-1.69038e-07
-1.76242e-07
-1.63019e-07
-1.68615e-07
-1.68634e-07
-1.63954e-07
-1.63977e-07
-1.76262e-07
-1.63041e-07
-1.68582e-07
-1.68551e-07
-1.63935e-07
-1.63895e-07
-1.68552e-07
-1.63949e-07
-1.63902e-07
-1.76178e-07
-1.6293e-07
-1.68526e-07
-1.63861e-07
-1.63884e-07
-1.62954e-07
-1.70141e-07
-1.57008e-07
-1.62445e-07
-1.6247e-07
-1.57923e-07
-1.57951e-07
-1.70176e-07
-1.57037e-07
-1.62427e-07
-1.62375e-07
-1.57904e-07
-1.57849e-07
-1.62395e-07
-1.57931e-07
-1.57877e-07
-1.70076e-07
-1.56914e-07
-1.62379e-07
-1.57828e-07
-1.57858e-07
-1.56946e-07
-1.64129e-07
-1.50975e-07
-1.56414e-07
-1.56443e-07
-1.51887e-07
-1.51918e-07
-1.64171e-07
-1.51006e-07
-1.56395e-07
-1.56339e-07
-1.51867e-07
-1.51811e-07
-1.56368e-07
-1.51898e-07
-1.51842e-07
-1.64061e-07
-1.50878e-07
-1.56349e-07
-1.51791e-07
-1.51823e-07
-1.50913e-07
-1.58095e-07
-1.44941e-07
-1.50378e-07
-1.5041e-07
-1.45853e-07
-1.45884e-07
-1.5814e-07
-1.44973e-07
-1.50359e-07
-1.50302e-07
-1.45833e-07
-1.45778e-07
-1.50333e-07
-1.45864e-07
-1.45809e-07
-1.58025e-07
-1.44845e-07
-1.50314e-07
-1.45758e-07
-1.4579e-07
-1.44882e-07
-1.52061e-07
-1.38906e-07
-1.44345e-07
-1.44376e-07
-1.39817e-07
-1.39848e-07
-1.52106e-07
-1.38938e-07
-1.44325e-07
-1.44269e-07
-1.39797e-07
-1.39743e-07
-1.443e-07
-1.39828e-07
-1.39773e-07
-1.51993e-07
-1.3881e-07
-1.44281e-07
-1.39723e-07
-1.39754e-07
-1.38845e-07
-1.46023e-07
-1.3287e-07
-1.38307e-07
-1.38338e-07
-1.33779e-07
-1.33809e-07
-1.4607e-07
-1.32897e-07
-1.38288e-07
-1.38233e-07
-1.3376e-07
-1.33705e-07
-1.38263e-07
-1.33789e-07
-1.33735e-07
-1.45958e-07
-1.32771e-07
-1.38245e-07
-1.33685e-07
-1.33716e-07
-1.32807e-07
-1.39987e-07
-1.26834e-07
-1.3227e-07
-1.323e-07
-1.27743e-07
-1.27774e-07
-1.40029e-07
-1.26863e-07
-1.32251e-07
-1.32196e-07
-1.27725e-07
-1.2767e-07
-1.32225e-07
-1.27753e-07
-1.27699e-07
-1.39919e-07
-1.26737e-07
-1.32206e-07
-1.27649e-07
-1.2768e-07
-1.26771e-07
-1.33951e-07
-1.20802e-07
-1.26236e-07
-1.26266e-07
-1.21711e-07
-1.2174e-07
-1.33994e-07
-1.20828e-07
-1.26217e-07
-1.26161e-07
-1.21693e-07
-1.21637e-07
-1.2619e-07
-1.21719e-07
-1.21666e-07
-1.33886e-07
-1.20704e-07
-1.26172e-07
-1.21616e-07
-1.21648e-07
-1.20739e-07
-1.27918e-07
-1.14753e-07
-1.20201e-07
-1.2023e-07
-1.15666e-07
-1.15695e-07
-1.2796e-07
-1.14781e-07
-1.20184e-07
-1.20128e-07
-1.15652e-07
-1.15595e-07
-1.20156e-07
-1.15676e-07
-1.15623e-07
-1.27851e-07
-1.14655e-07
-1.20139e-07
-1.15574e-07
-1.15606e-07
-1.1469e-07
-1.21872e-07
-1.14156e-07
-1.14182e-07
-1.21911e-07
-1.14143e-07
-1.14086e-07
-1.14114e-07
-1.21806e-07
-1.14099e-07
1.33219e-06
-2.50259e-06
7.69487e-07
7.69994e-07
-5.36295e-07
-2.45903e-06
7.39556e-08
-1.40826e-06
-5.36256e-07
-2.45926e-06
-1.40864e-06
7.41133e-08
-1.80459e-06
1.33461e-07
1.33425e-07
-1.74286e-07
-3.44428e-07
-4.87055e-07
-1.88611e-07
-1.74785e-07
-2.30733e-07
-1.74301e-07
-3.44406e-07
-4.86968e-07
-1.88576e-07
-2.64624e-07
-2.64743e-07
-2.64686e-07
-1.69415e-07
-1.69416e-07
-1.69401e-07
-1.69409e-07
-2.1777e-07
-6.36055e-07
-4.43333e-07
-2.25061e-07
-6.91323e-07
-5.40726e-08
-2.13461e-07
-1.74851e-07
-2.30767e-07
-2.17806e-07
-4.43471e-07
-6.36035e-07
-2.25145e-07
-6.91396e-07
-2.13539e-07
-5.41159e-08
-4.33269e-07
-4.32997e-07
-2.15573e-07
-1.03592e-07
-1.03608e-07
-2.26978e-07
-1.89623e-07
-2.39296e-07
-2.12768e-07
-1.88338e-07
-2.22053e-07
-2.26845e-07
-1.89674e-07
-2.39194e-07
-2.12623e-07
-1.83111e-07
-1.83025e-07
-1.83038e-07
-1.77598e-07
-1.77614e-07
-1.77529e-07
-1.77549e-07
-2.22183e-07
-2.13671e-07
-1.78478e-07
-1.69261e-07
-2.22877e-07
-1.15701e-07
-1.72424e-07
-1.88306e-07
-2.21982e-07
-2.22085e-07
-1.7835e-07
-2.13618e-07
-1.69188e-07
-2.22807e-07
-1.72314e-07
-1.15593e-07
-1.80203e-07
-1.80088e-07
-1.71302e-07
-1.61768e-07
-1.61855e-07
-2.21104e-07
-1.7991e-07
-2.32113e-07
-2.04712e-07
-1.74777e-07
-2.11609e-07
-2.20952e-07
-1.79929e-07
-2.31954e-07
-2.04638e-07
-1.76563e-07
-1.76485e-07
-1.76503e-07
-1.72052e-07
-1.72069e-07
-1.7199e-07
-1.72011e-07
-2.17028e-07
-2.10582e-07
-1.72584e-07
-1.67014e-07
-2.19229e-07
-1.0976e-07
-1.7136e-07
-1.74699e-07
-2.11488e-07
-2.16892e-07
-1.72466e-07
-2.10471e-07
-1.66944e-07
-2.19094e-07
-1.71244e-07
-1.0965e-07
-1.69775e-07
-1.69775e-07
-1.65951e-07
-1.54133e-07
-1.54169e-07
-2.15292e-07
-1.74017e-07
-2.26598e-07
-1.98741e-07
-1.68817e-07
-2.05473e-07
-2.1514e-07
-1.74017e-07
-2.26443e-07
-1.98648e-07
-1.70547e-07
-1.70462e-07
-1.70488e-07
-1.65981e-07
-1.66007e-07
-1.65913e-07
-1.65945e-07
-2.11273e-07
-2.04871e-07
-1.6719e-07
-1.60944e-07
-2.13905e-07
-1.03854e-07
-1.65713e-07
-1.68743e-07
-2.0534e-07
-2.11135e-07
-1.67068e-07
-2.04749e-07
-1.60845e-07
-2.13769e-07
-1.6559e-07
-1.03742e-07
-1.63773e-07
-1.6375e-07
-1.59959e-07
-1.48121e-07
-1.4814e-07
-2.09274e-07
-1.67993e-07
-2.20611e-07
-1.92711e-07
-1.62825e-07
-1.99415e-07
-2.09117e-07
-1.67998e-07
-2.20453e-07
-1.92615e-07
-1.64497e-07
-1.64401e-07
-1.64433e-07
-1.5994e-07
-1.5997e-07
-1.59872e-07
-1.59904e-07
-2.05257e-07
-1.98872e-07
-1.6121e-07
-1.54915e-07
-2.0793e-07
-9.78327e-08
-1.59704e-07
-1.62729e-07
-1.99294e-07
-2.05113e-07
-1.61082e-07
-1.98739e-07
-1.5481e-07
-2.07786e-07
-1.59574e-07
-9.77123e-08
-1.57756e-07
-1.57731e-07
-1.53931e-07
-1.42091e-07
-1.42108e-07
-2.03243e-07
-1.61953e-07
-2.14578e-07
-1.86686e-07
-1.56778e-07
-1.93394e-07
-2.03084e-07
-1.61966e-07
-2.14422e-07
-1.86582e-07
-1.58461e-07
-1.58363e-07
-1.58395e-07
-1.53906e-07
-1.53936e-07
-1.53839e-07
-1.5387e-07
-1.99225e-07
-1.9284e-07
-1.55177e-07
-1.48882e-07
-2.01899e-07
-9.18022e-08
-1.5367e-07
-1.56694e-07
-1.9326e-07
-1.99081e-07
-1.55048e-07
-1.92708e-07
-1.48775e-07
-2.01753e-07
-1.5354e-07
-9.16806e-08
-1.51725e-07
-1.517e-07
-1.47898e-07
-1.3606e-07
-1.36077e-07
-1.9721e-07
-1.55923e-07
-2.08547e-07
-1.80652e-07
-1.50749e-07
-1.8736e-07
-1.9705e-07
-1.55932e-07
-2.08389e-07
-1.80549e-07
-1.52427e-07
-1.5233e-07
-1.52362e-07
-1.47869e-07
-1.479e-07
-1.47803e-07
-1.47835e-07
-1.93191e-07
-1.86808e-07
-1.49144e-07
-1.42847e-07
-1.95867e-07
-8.57666e-08
-1.47636e-07
-1.50662e-07
-1.87227e-07
-1.93049e-07
-1.49015e-07
-1.86676e-07
-1.42741e-07
-1.95722e-07
-1.47507e-07
-8.56478e-08
-1.45694e-07
-1.45669e-07
-1.41864e-07
-1.30025e-07
-1.30043e-07
-1.9117e-07
-1.49883e-07
-2.02509e-07
-1.74615e-07
-1.44705e-07
-1.81327e-07
-1.91013e-07
-1.49895e-07
-2.02353e-07
-1.7451e-07
-1.4639e-07
-1.46294e-07
-1.46325e-07
-1.41832e-07
-1.41861e-07
-1.41766e-07
-1.41798e-07
-1.87153e-07
-1.80768e-07
-1.43107e-07
-1.36809e-07
-1.8983e-07
-7.97275e-08
-1.41598e-07
-1.44625e-07
-1.81189e-07
-1.87011e-07
-1.4298e-07
-1.80643e-07
-1.36704e-07
-1.89686e-07
-1.41471e-07
-7.96102e-08
-1.39657e-07
-1.39632e-07
-1.35826e-07
-1.23988e-07
-1.24005e-07
-1.85134e-07
-1.43844e-07
-1.96471e-07
-1.68579e-07
-1.38664e-07
-1.75292e-07
-1.84977e-07
-1.43855e-07
-1.96315e-07
-1.68473e-07
-1.40351e-07
-1.40257e-07
-1.40288e-07
-1.35797e-07
-1.35825e-07
-1.3573e-07
-1.35761e-07
-1.81114e-07
-1.74729e-07
-1.37067e-07
-1.30771e-07
-1.83791e-07
-7.36899e-08
-1.35559e-07
-1.38587e-07
-1.75153e-07
-1.80972e-07
-1.36941e-07
-1.74604e-07
-1.30667e-07
-1.83649e-07
-1.35432e-07
-7.35739e-08
-1.33618e-07
-1.33594e-07
-1.29787e-07
-1.1795e-07
-1.17968e-07
-1.79102e-07
-1.37814e-07
-1.9044e-07
-1.62545e-07
-1.32623e-07
-1.69266e-07
-1.78945e-07
-1.37826e-07
-1.90283e-07
-1.62441e-07
-1.34316e-07
-1.34221e-07
-1.34253e-07
-1.29763e-07
-1.2979e-07
-1.29696e-07
-1.29728e-07
-1.75082e-07
-1.68696e-07
-1.31033e-07
-1.24738e-07
-1.77756e-07
-6.76585e-08
-1.29526e-07
-1.32554e-07
-1.6912e-07
-1.7494e-07
-1.30905e-07
-1.68566e-07
-1.24633e-07
-1.77614e-07
-1.29398e-07
-6.75388e-08
-1.27585e-07
-1.27562e-07
-1.23754e-07
-1.11918e-07
-1.11935e-07
-1.73063e-07
-1.31779e-07
-1.84404e-07
-1.56504e-07
-1.26592e-07
-1.63221e-07
-1.72907e-07
-1.31791e-07
-1.84251e-07
-1.56405e-07
-1.28281e-07
-1.28187e-07
-1.28219e-07
-1.23727e-07
-1.2375e-07
-1.23658e-07
-1.23687e-07
-1.69041e-07
-1.6266e-07
-1.24996e-07
-1.18699e-07
-1.71721e-07
-6.16185e-08
-1.23486e-07
-1.26518e-07
-1.63086e-07
-1.68904e-07
-1.24874e-07
-1.62533e-07
-1.18598e-07
-1.71582e-07
-1.23365e-07
-6.15018e-08
-1.2155e-07
-1.21529e-07
-1.17716e-07
-1.05879e-07
-1.05901e-07
-1.67013e-07
-1.25739e-07
-1.78359e-07
-1.50455e-07
-1.20553e-07
-1.57171e-07
-1.25756e-07
-1.78216e-07
-1.22241e-07
-1.22152e-07
-1.2218e-07
-1.62988e-07
-1.56614e-07
-1.18945e-07
-1.12657e-07
-1.65674e-07
-5.55746e-08
-1.17439e-07
-1.20482e-07
-1.62876e-07
-1.18827e-07
-1.56498e-07
-1.65532e-07
-1.17332e-07
-1.15517e-07
-1.15495e-07
-1.11688e-07
-9.98385e-08
-9.98605e-08
-1.80453e-06
1.33475e-07
1.33372e-07
-3.72785e-07
-4.93317e-08
-3.72593e-07
-4.94838e-08
-1.63769e-06
-5.86751e-07
-5.86617e-07
-3.39081e-07
-3.3912e-07
-5.3633e-07
-2.45905e-06
7.40462e-08
-1.4082e-06
-5.36305e-07
-2.4591e-06
7.39679e-08
-1.40813e-06
-4.58362e-08
-5.06963e-07
-2.51018e-07
-9.30666e-07
-4.58223e-08
-5.06869e-07
-2.51023e-07
-9.3068e-07
-7.75078e-07
-2.15181e-06
-9.48639e-07
-4.10147e-07
-3.98727e-07
2.922e-07
-1.14934e-06
-7.75009e-07
-2.15196e-06
-9.48484e-07
-4.10089e-07
-3.9872e-07
2.92299e-07
-1.14932e-06
-1.80455e-06
1.33338e-07
1.33336e-07
-3.7261e-07
-4.94473e-08
-1.63772e-06
-5.86541e-07
-5.86861e-07
-3.39133e-07
-3.39129e-07
-3.72836e-07
-4.94677e-08
-5.36444e-07
-2.45901e-06
7.39894e-08
-1.40801e-06
-5.36376e-07
-2.4592e-06
-1.40848e-06
7.39705e-08
-4.58489e-08
-5.06904e-07
-2.5112e-07
-9.30665e-07
-7.75198e-07
-2.15185e-06
-9.4874e-07
-4.10131e-07
-3.98735e-07
2.92147e-07
-1.14938e-06
-4.58437e-08
-5.06923e-07
-2.51065e-07
-9.30718e-07
-7.75095e-07
-2.1521e-06
-4.10269e-07
-9.486e-07
2.91868e-07
-3.98806e-07
-1.14943e-06
1.33224e-06
-2.50256e-06
7.69756e-07
7.69767e-07
1.33221e-06
-2.50297e-06
7.69328e-07
7.6952e-07
1.33228e-06
-2.50281e-06
7.69809e-07
7.69481e-07
2.66185e-06
-1.51104e-06
5.56395e-07
5.56537e-07
3.53297e-06
3.53365e-06
6.71213e-07
2.66186e-06
-1.51107e-06
5.56506e-07
5.56544e-07
3.5333e-06
3.53332e-06
6.71242e-07
2.66182e-06
-1.51159e-06
5.56258e-07
5.56391e-07
3.53298e-06
3.53324e-06
6.71112e-07
2.66184e-06
-1.51131e-06
5.56415e-07
5.56463e-07
3.5332e-06
3.53327e-06
6.71187e-07
-5.36427e-07
-2.45919e-06
-1.40813e-06
7.4062e-08
-7.75053e-07
-2.15181e-06
-9.48627e-07
-4.10124e-07
-3.98747e-07
2.91926e-07
-1.14935e-06
-4.57586e-08
-5.06958e-07
-2.51087e-07
-9.3065e-07
-7.75173e-07
-2.15221e-06
-4.10196e-07
-9.4875e-07
2.92048e-07
-3.98693e-07
-1.14936e-06
-4.58084e-08
-5.069e-07
-2.51041e-07
-9.30614e-07
-1.80451e-06
1.33348e-07
1.33515e-07
-3.72658e-07
-4.94542e-08
-1.63774e-06
-5.86735e-07
-5.86708e-07
-3.39173e-07
-3.38979e-07
-3.72704e-07
-4.92626e-08
-5.36178e-07
-2.45916e-06
-1.4087e-06
7.40389e-08
-7.75127e-07
-2.15228e-06
-4.10313e-07
-9.48629e-07
2.91047e-07
-3.9863e-07
-1.14944e-06
-7.75027e-07
-2.15187e-06
-4.10259e-07
-9.4866e-07
2.91069e-07
-3.98671e-07
-1.14941e-06
-4.57111e-08
-5.07102e-07
-2.5092e-07
-9.30705e-07
-4.56925e-08
-5.06736e-07
-2.51026e-07
-9.3067e-07
-1.63767e-06
-5.86774e-07
-5.86686e-07
-3.39067e-07
-3.39068e-07
-3.72868e-07
-4.94087e-08
-3.72765e-07
-4.94154e-08
-1.7486e-07
-2.30748e-07
-1.74818e-07
-2.30698e-07
-4.33313e-07
-4.33079e-07
-2.15547e-07
-1.03554e-07
-1.03612e-07
-2.241e-07
-2.22965e-07
-2.24191e-07
-2.22873e-07
-2.11443e-07
-1.51543e-07
-1.51756e-07
-1.59827e-07
-1.59857e-07
-1.74279e-07
-3.44399e-07
-4.87021e-07
-1.88582e-07
-2.17745e-07
-6.35982e-07
-4.43368e-07
-2.25041e-07
-6.91313e-07
-5.41222e-08
-2.13383e-07
-2.17738e-07
-6.3591e-07
-4.43312e-07
-2.2503e-07
-6.91294e-07
-5.40959e-08
-2.13356e-07
-2.53961e-07
-2.15409e-07
-1.95509e-07
-2.27063e-07
-2.53957e-07
-2.15384e-07
-1.95532e-07
-2.27055e-07
-2.21658e-07
-1.75847e-07
-1.06012e-07
-1.71263e-07
-1.80955e-07
-1.90427e-07
-2.2259e-07
-2.21658e-07
-1.75856e-07
-1.06081e-07
-1.71218e-07
-1.81001e-07
-1.90417e-07
-2.22591e-07
-4.33158e-07
-4.33278e-07
-2.15543e-07
-1.03571e-07
-1.03542e-07
-1.74816e-07
-2.3065e-07
-2.24084e-07
-2.22936e-07
-2.11439e-07
-1.51575e-07
-1.51747e-07
-1.598e-07
-1.59858e-07
-2.24221e-07
-2.2285e-07
-2.1775e-07
-6.35949e-07
-4.43312e-07
-2.25109e-07
-6.91286e-07
-5.40852e-08
-2.13463e-07
-1.74306e-07
-3.44438e-07
-4.87105e-07
-1.88625e-07
-2.17791e-07
-4.43439e-07
-6.35978e-07
-2.25121e-07
-6.9137e-07
-2.13446e-07
-5.41343e-08
-2.54001e-07
-2.15548e-07
-1.95517e-07
-2.27019e-07
-2.21671e-07
-1.75936e-07
-1.06567e-07
-1.71641e-07
-1.81036e-07
-1.90553e-07
-2.22572e-07
-2.54064e-07
-2.15297e-07
-1.9556e-07
-2.27035e-07
-2.21706e-07
-1.75889e-07
-1.71356e-07
-1.05936e-07
-1.90482e-07
-1.81009e-07
-2.22561e-07
-1.74303e-07
-3.44482e-07
-4.87011e-07
-1.88555e-07
-2.17796e-07
-4.43409e-07
-6.35936e-07
-2.25085e-07
-6.91352e-07
-2.13435e-07
-5.41551e-08
-1.74309e-07
-3.44438e-07
-4.87104e-07
-1.88643e-07
-2.21668e-07
-1.7591e-07
-1.06546e-07
-1.71652e-07
-1.80998e-07
-1.90553e-07
-2.22592e-07
-2.53973e-07
-2.15585e-07
-1.95464e-07
-2.2704e-07
-2.21702e-07
-1.75882e-07
-1.7139e-07
-1.05918e-07
-1.9049e-07
-1.81006e-07
-2.22581e-07
-2.5403e-07
-2.15335e-07
-1.95537e-07
-2.27057e-07
-4.33155e-07
-4.33254e-07
-2.15577e-07
-1.036e-07
-1.03582e-07
-1.74919e-07
-2.30699e-07
-2.24014e-07
-2.2297e-07
-2.11477e-07
-1.51507e-07
-1.51695e-07
-1.59823e-07
-1.59889e-07
-2.24161e-07
-2.22892e-07
-2.17806e-07
-4.43403e-07
-6.35935e-07
-2.25148e-07
-6.91354e-07
-2.13521e-07
-5.41109e-08
-1.74313e-07
-3.44515e-07
-4.87099e-07
-1.88604e-07
-1.74319e-07
-3.44389e-07
-4.87051e-07
-1.88597e-07
-2.21697e-07
-1.75943e-07
-1.71719e-07
-1.06396e-07
-1.90601e-07
-1.81002e-07
-2.22561e-07
-2.217e-07
-1.75961e-07
-1.7172e-07
-1.06445e-07
-1.90604e-07
-1.8107e-07
-2.22561e-07
-2.54042e-07
-2.15515e-07
-1.95485e-07
-2.27024e-07
-2.54045e-07
-2.15484e-07
-1.95533e-07
-2.27012e-07
-1.74934e-07
-2.30789e-07
-1.74879e-07
-2.30708e-07
-2.11465e-07
-1.51489e-07
-1.51706e-07
-1.59859e-07
-1.59874e-07
-2.24042e-07
-2.22995e-07
-2.24133e-07
-2.22881e-07
-1.88355e-07
-2.22092e-07
-1.88293e-07
-2.2203e-07
-1.80234e-07
-1.80101e-07
-1.71355e-07
-1.61815e-07
-1.61902e-07
-2.1529e-07
-1.78581e-07
-2.15148e-07
-1.78602e-07
-1.80201e-07
-1.57412e-07
-1.57456e-07
-1.73521e-07
-1.73515e-07
-2.26966e-07
-1.89679e-07
-2.39298e-07
-2.127e-07
-2.22295e-07
-2.13783e-07
-1.7889e-07
-1.69354e-07
-2.22983e-07
-1.15544e-07
-1.7257e-07
-2.22296e-07
-2.13884e-07
-1.78955e-07
-1.69387e-07
-2.2299e-07
-1.15538e-07
-1.72591e-07
-2.3487e-07
-2.07768e-07
-1.84038e-07
-2.23801e-07
-2.34863e-07
-2.07739e-07
-1.8409e-07
-2.23789e-07
-2.21807e-07
-1.72116e-07
-1.1246e-07
-1.73594e-07
-2.13702e-07
-1.75299e-07
-2.19608e-07
-2.21811e-07
-1.72134e-07
-1.12447e-07
-1.73602e-07
-2.13773e-07
-1.75303e-07
-2.19608e-07
-1.80208e-07
-1.80097e-07
-1.71372e-07
-1.61849e-07
-1.61885e-07
-1.88291e-07
-2.22075e-07
-2.15278e-07
-1.78559e-07
-1.80219e-07
-1.57453e-07
-1.5745e-07
-1.73502e-07
-1.73552e-07
-2.15211e-07
-1.78633e-07
-2.22161e-07
-2.13731e-07
-1.78474e-07
-1.69259e-07
-2.22867e-07
-1.15657e-07
-1.72415e-07
-2.26879e-07
-1.89631e-07
-2.39244e-07
-2.1263e-07
-2.22179e-07
-1.78733e-07
-2.1385e-07
-1.69294e-07
-2.22906e-07
-1.72445e-07
-1.15437e-07
-2.34727e-07
-2.07692e-07
-1.84107e-07
-2.23643e-07
-2.21663e-07
-1.7213e-07
-1.12528e-07
-1.73476e-07
-2.13719e-07
-1.75175e-07
-2.1946e-07
-2.34772e-07
-2.07624e-07
-1.8399e-07
-2.23673e-07
-2.21689e-07
-1.72034e-07
-1.73472e-07
-1.12326e-07
-1.75173e-07
-2.1367e-07
-2.19471e-07
-2.26857e-07
-1.89624e-07
-2.39199e-07
-2.127e-07
-2.22196e-07
-1.7872e-07
-2.13797e-07
-1.69298e-07
-2.22909e-07
-1.72454e-07
-1.15477e-07
-2.26884e-07
-1.89571e-07
-2.3924e-07
-2.12711e-07
-2.21687e-07
-1.72143e-07
-1.12566e-07
-1.73498e-07
-2.1371e-07
-1.75204e-07
-2.1951e-07
-2.34738e-07
-2.07768e-07
-1.84086e-07
-2.23694e-07
-2.21709e-07
-1.72054e-07
-1.73501e-07
-1.12387e-07
-1.75208e-07
-2.13666e-07
-2.19521e-07
-2.34777e-07
-2.07708e-07
-1.83961e-07
-2.23724e-07
-1.8019e-07
-1.80082e-07
-1.71272e-07
-1.61771e-07
-1.61801e-07
-1.88256e-07
-2.2199e-07
-2.15179e-07
-1.78484e-07
-1.80136e-07
-1.57347e-07
-1.57355e-07
-1.73428e-07
-1.73468e-07
-2.15152e-07
-1.78511e-07
-2.22082e-07
-1.78372e-07
-2.13737e-07
-1.69218e-07
-2.22812e-07
-1.72327e-07
-1.15584e-07
-2.26794e-07
-1.89566e-07
-2.39158e-07
-2.12636e-07
-2.26774e-07
-1.89618e-07
-2.39156e-07
-2.12602e-07
-2.21575e-07
-1.72052e-07
-1.7338e-07
-1.12455e-07
-1.75092e-07
-2.13603e-07
-2.19381e-07
-2.21579e-07
-1.72076e-07
-1.73393e-07
-1.12449e-07
-1.751e-07
-2.13686e-07
-2.19383e-07
-2.34652e-07
-2.0767e-07
-1.83966e-07
-2.23587e-07
-2.34645e-07
-2.07651e-07
-1.84032e-07
-2.23577e-07
-1.88303e-07
-2.22028e-07
-1.8825e-07
-2.21981e-07
-1.80166e-07
-1.57361e-07
-1.574e-07
-1.73478e-07
-1.7347e-07
-2.15274e-07
-1.78487e-07
-2.1514e-07
-1.7851e-07
-1.74784e-07
-2.11621e-07
-1.74803e-07
-2.11481e-07
-1.69839e-07
-1.6983e-07
-1.66021e-07
-1.5418e-07
-1.54218e-07
-2.08526e-07
-1.71779e-07
-2.08365e-07
-1.71801e-07
-1.73149e-07
-1.51173e-07
-1.51195e-07
-1.66812e-07
-1.66798e-07
-2.21094e-07
-1.7996e-07
-2.32106e-07
-2.04689e-07
-2.1711e-07
-2.10585e-07
-1.72667e-07
-1.67048e-07
-2.19339e-07
-1.09644e-07
-1.71432e-07
-2.17112e-07
-2.10652e-07
-1.72675e-07
-1.67066e-07
-2.19344e-07
-1.09638e-07
-1.71442e-07
-2.2948e-07
-2.01744e-07
-1.76973e-07
-2.18263e-07
-2.29476e-07
-2.01718e-07
-1.77028e-07
-2.18254e-07
-2.1685e-07
-1.65494e-07
-1.06734e-07
-1.68697e-07
-2.07807e-07
-1.70106e-07
-2.14315e-07
-2.16857e-07
-1.65511e-07
-1.06729e-07
-1.6871e-07
-2.07876e-07
-1.70117e-07
-2.14317e-07
-1.69828e-07
-1.69875e-07
-1.66034e-07
-1.54227e-07
-1.54226e-07
-1.7484e-07
-2.11552e-07
-2.08503e-07
-1.71788e-07
-1.73174e-07
-1.51219e-07
-1.51208e-07
-1.66812e-07
-1.66855e-07
-2.08441e-07
-1.7184e-07
-2.16967e-07
-2.10593e-07
-1.72562e-07
-1.67011e-07
-2.19186e-07
-1.09709e-07
-1.71334e-07
-2.20973e-07
-1.79859e-07
-2.31989e-07
-2.04564e-07
-2.16971e-07
-1.7255e-07
-2.10535e-07
-1.6699e-07
-2.19202e-07
-1.7132e-07
-1.09512e-07
-2.29328e-07
-2.01652e-07
-1.76992e-07
-2.18111e-07
-2.16704e-07
-1.65454e-07
-1.06789e-07
-1.68609e-07
-2.07815e-07
-1.70014e-07
-2.14172e-07
-2.29358e-07
-2.01594e-07
-1.76923e-07
-2.18133e-07
-2.16715e-07
-1.65439e-07
-1.68591e-07
-1.06608e-07
-1.69998e-07
-2.07757e-07
-2.14179e-07
-2.2101e-07
-1.79912e-07
-2.31985e-07
-2.04725e-07
-2.17034e-07
-1.72579e-07
-2.10537e-07
-1.66987e-07
-2.19245e-07
-1.71351e-07
-1.09576e-07
-2.21033e-07
-1.79848e-07
-2.32019e-07
-2.04657e-07
-2.16755e-07
-1.65461e-07
-1.06837e-07
-1.68638e-07
-2.0782e-07
-1.70041e-07
-2.14229e-07
-2.29363e-07
-2.01741e-07
-1.76987e-07
-2.18166e-07
-2.16767e-07
-1.65435e-07
-1.68623e-07
-1.0667e-07
-1.70028e-07
-2.07767e-07
-2.14239e-07
-2.29393e-07
-2.01691e-07
-1.76914e-07
-2.18192e-07
-1.69741e-07
-1.69777e-07
-1.65932e-07
-1.54113e-07
-1.54126e-07
-1.7471e-07
-2.11483e-07
-2.08378e-07
-1.71715e-07
-1.73093e-07
-1.51103e-07
-1.51103e-07
-1.66719e-07
-1.66747e-07
-2.0837e-07
-1.71708e-07
-2.16894e-07
-1.72479e-07
-2.10558e-07
-1.66955e-07
-2.19101e-07
-1.71257e-07
-1.09638e-07
-2.20893e-07
-1.79801e-07
-2.31872e-07
-2.04623e-07
-2.20883e-07
-1.79863e-07
-2.31868e-07
-2.04601e-07
-2.16617e-07
-1.65389e-07
-1.6852e-07
-1.06727e-07
-1.69925e-07
-2.07696e-07
-2.14095e-07
-2.16624e-07
-1.65399e-07
-1.68535e-07
-1.06716e-07
-1.69938e-07
-2.07784e-07
-2.14098e-07
-2.29249e-07
-2.01641e-07
-1.7687e-07
-2.1805e-07
-2.29246e-07
-2.01618e-07
-1.76927e-07
-2.18041e-07
-1.74693e-07
-2.11597e-07
-1.74706e-07
-2.11472e-07
-1.73122e-07
-1.51126e-07
-1.51147e-07
-1.66762e-07
-1.66753e-07
-2.08502e-07
-1.71701e-07
-2.08357e-07
-1.71708e-07
-1.68819e-07
-2.0548e-07
-1.68809e-07
-2.05331e-07
-1.63826e-07
-1.63796e-07
-1.6002e-07
-1.48164e-07
-1.48184e-07
-2.02473e-07
-1.65796e-07
-2.02309e-07
-1.65807e-07
-1.67141e-07
-1.45152e-07
-1.4517e-07
-1.60817e-07
-1.60791e-07
-2.15283e-07
-1.74067e-07
-2.26595e-07
-1.98722e-07
-2.11353e-07
-2.04876e-07
-1.67244e-07
-1.60939e-07
-2.14005e-07
-1.03751e-07
-1.65764e-07
-2.11355e-07
-2.04945e-07
-1.67256e-07
-1.60965e-07
-2.14011e-07
-1.03746e-07
-1.65777e-07
-2.23618e-07
-1.95727e-07
-1.7101e-07
-2.12288e-07
-2.23616e-07
-1.9571e-07
-1.71069e-07
-2.12278e-07
-2.11031e-07
-1.59431e-07
-1.00739e-07
-1.62767e-07
-2.01883e-07
-1.6427e-07
-2.08351e-07
-2.11038e-07
-1.59459e-07
-1.00738e-07
-1.6278e-07
-2.01955e-07
-1.64282e-07
-2.08353e-07
-1.63825e-07
-1.63858e-07
-1.60047e-07
-1.48214e-07
-1.48202e-07
-1.6886e-07
-2.05407e-07
-2.02448e-07
-1.65822e-07
-1.67181e-07
-1.45202e-07
-1.45191e-07
-1.60827e-07
-1.60858e-07
-2.02389e-07
-1.65858e-07
-2.1121e-07
-2.04868e-07
-1.67157e-07
-1.60921e-07
-2.13856e-07
-1.03797e-07
-1.65675e-07
-2.15163e-07
-1.73964e-07
-2.26479e-07
-1.98594e-07
-2.11217e-07
-1.67137e-07
-2.04831e-07
-1.60867e-07
-2.13872e-07
-1.65656e-07
-1.03623e-07
-2.23462e-07
-1.95632e-07
-1.71013e-07
-2.12133e-07
-2.10882e-07
-1.59413e-07
-1.00783e-07
-1.62674e-07
-2.01872e-07
-1.64179e-07
-2.08204e-07
-2.23498e-07
-1.95578e-07
-1.70963e-07
-2.12156e-07
-2.10898e-07
-1.59358e-07
-1.62654e-07
-1.0061e-07
-1.64158e-07
-2.01839e-07
-2.08212e-07
-2.15202e-07
-1.74013e-07
-2.26481e-07
-1.98743e-07
-2.11282e-07
-1.67172e-07
-2.04836e-07
-1.60891e-07
-2.13921e-07
-1.65695e-07
-1.03686e-07
-2.15227e-07
-1.73953e-07
-2.26514e-07
-1.98695e-07
-2.10936e-07
-1.59438e-07
-1.00843e-07
-1.62716e-07
-2.01887e-07
-1.64218e-07
-2.08269e-07
-2.23505e-07
-1.9573e-07
-1.71015e-07
-2.12196e-07
-2.10951e-07
-1.59385e-07
-1.62698e-07
-1.00678e-07
-1.642e-07
-2.01851e-07
-2.08278e-07
-2.23537e-07
-1.95684e-07
-1.70955e-07
-2.12222e-07
-1.63729e-07
-1.63746e-07
-1.59927e-07
-1.48094e-07
-1.48092e-07
-1.6873e-07
-2.05327e-07
-2.02316e-07
-1.65743e-07
-1.67075e-07
-1.45079e-07
-1.45077e-07
-1.60725e-07
-1.60741e-07
-2.02306e-07
-1.65726e-07
-2.11136e-07
-1.67082e-07
-2.04838e-07
-1.60874e-07
-2.13774e-07
-1.65603e-07
-1.0373e-07
-2.15082e-07
-1.739e-07
-2.26368e-07
-1.98637e-07
-2.15072e-07
-1.73953e-07
-2.26363e-07
-1.98618e-07
-2.10795e-07
-1.59337e-07
-1.62589e-07
-1.00725e-07
-1.64093e-07
-2.01757e-07
-2.08127e-07
-2.10801e-07
-1.59367e-07
-1.62603e-07
-1.00721e-07
-1.64106e-07
-2.0185e-07
-2.0813e-07
-2.23388e-07
-1.95621e-07
-1.70898e-07
-2.12073e-07
-2.23382e-07
-1.95605e-07
-1.70953e-07
-2.12064e-07
-1.68731e-07
-2.05469e-07
-1.68723e-07
-2.05323e-07
-1.67118e-07
-1.45108e-07
-1.45126e-07
-1.60773e-07
-1.60749e-07
-2.02449e-07
-1.65731e-07
-2.02303e-07
-1.6572e-07
-1.62779e-07
-1.99456e-07
-1.62794e-07
-1.99287e-07
-1.57798e-07
-1.57776e-07
-1.53991e-07
-1.42134e-07
-1.42152e-07
-1.96438e-07
-1.5976e-07
-1.96269e-07
-1.59777e-07
-1.61112e-07
-1.39119e-07
-1.39135e-07
-1.54782e-07
-1.54759e-07
-2.09265e-07
-1.68061e-07
-2.20609e-07
-1.92691e-07
-2.05337e-07
-1.98867e-07
-1.61261e-07
-1.54905e-07
-2.08026e-07
-9.77232e-08
-1.59753e-07
-2.0534e-07
-1.98947e-07
-1.61274e-07
-1.54935e-07
-2.08033e-07
-9.77251e-08
-1.59767e-07
-2.17593e-07
-1.89693e-07
-1.64975e-07
-2.06256e-07
-2.17592e-07
-1.89675e-07
-1.6504e-07
-2.06248e-07
-2.0501e-07
-1.53395e-07
-9.4708e-08
-1.56738e-07
-1.95851e-07
-1.58245e-07
-2.0232e-07
-2.05018e-07
-1.53426e-07
-9.47072e-08
-1.56752e-07
-1.9593e-07
-1.58259e-07
-2.02323e-07
-1.57815e-07
-1.57845e-07
-1.54021e-07
-1.42182e-07
-1.42174e-07
-1.6285e-07
-1.99369e-07
-1.96407e-07
-1.59796e-07
-1.61155e-07
-1.39168e-07
-1.3916e-07
-1.54796e-07
-1.54828e-07
-1.96356e-07
-1.5983e-07
-2.05189e-07
-1.98856e-07
-1.61167e-07
-1.54885e-07
-2.07874e-07
-9.77672e-08
-1.59658e-07
-2.0914e-07
-1.67947e-07
-2.2049e-07
-1.92561e-07
-2.05196e-07
-1.61145e-07
-1.98824e-07
-1.5483e-07
-2.07891e-07
-1.59638e-07
-9.75936e-08
-2.17437e-07
-1.89598e-07
-1.64981e-07
-2.06101e-07
-2.04858e-07
-1.53376e-07
-9.47506e-08
-1.56641e-07
-1.95838e-07
-1.58149e-07
-2.02173e-07
-2.17473e-07
-1.89543e-07
-1.64929e-07
-2.06124e-07
-2.04874e-07
-1.53321e-07
-1.56621e-07
-9.45753e-08
-1.58129e-07
-1.95809e-07
-2.02181e-07
-2.09184e-07
-1.68003e-07
-2.20499e-07
-1.92716e-07
-2.05265e-07
-1.61192e-07
-1.98839e-07
-1.54859e-07
-2.07945e-07
-1.59685e-07
-9.76607e-08
-2.09209e-07
-1.67943e-07
-2.20531e-07
-1.92666e-07
-2.04916e-07
-1.53406e-07
-9.48118e-08
-1.56686e-07
-1.9586e-07
-1.58195e-07
-2.02239e-07
-2.17484e-07
-1.89698e-07
-1.64987e-07
-2.06166e-07
-2.04931e-07
-1.53351e-07
-1.56668e-07
-9.46467e-08
-1.58176e-07
-1.95819e-07
-2.02248e-07
-2.17516e-07
-1.89651e-07
-1.64923e-07
-2.06193e-07
-1.5771e-07
-1.57726e-07
-1.53897e-07
-1.42059e-07
-1.42058e-07
-1.62715e-07
-1.99283e-07
-1.96278e-07
-1.5971e-07
-1.61045e-07
-1.39043e-07
-1.39042e-07
-1.54694e-07
-1.5471e-07
-1.96269e-07
-1.59692e-07
-2.05114e-07
-1.61095e-07
-1.98835e-07
-1.54841e-07
-2.07792e-07
-1.59587e-07
-9.77014e-08
-2.09058e-07
-1.67882e-07
-2.20378e-07
-1.92605e-07
-2.09048e-07
-1.6794e-07
-2.20372e-07
-1.92588e-07
-2.0477e-07
-1.53301e-07
-1.56556e-07
-9.46923e-08
-1.58065e-07
-1.95727e-07
-2.02095e-07
-2.04775e-07
-1.53332e-07
-1.56569e-07
-9.4686e-08
-1.58078e-07
-1.95823e-07
-2.02098e-07
-2.17361e-07
-1.89587e-07
-1.64864e-07
-2.06041e-07
-2.17354e-07
-1.89572e-07
-1.64921e-07
-2.06033e-07
-1.62718e-07
-1.9943e-07
-1.62709e-07
-1.99284e-07
-1.61089e-07
-1.39076e-07
-1.39093e-07
-1.54742e-07
-1.54719e-07
-1.96414e-07
-1.59701e-07
-1.9627e-07
-1.59689e-07
-1.56735e-07
-1.93435e-07
-1.5676e-07
-1.93253e-07
-1.51762e-07
-1.51741e-07
-1.47958e-07
-1.36105e-07
-1.36119e-07
-1.90422e-07
-1.5372e-07
-1.90237e-07
-1.53745e-07
-1.55079e-07
-1.3309e-07
-1.33102e-07
-1.4875e-07
-1.48726e-07
-2.03234e-07
-1.62024e-07
-2.14576e-07
-1.86662e-07
-1.99305e-07
-1.9283e-07
-1.5523e-07
-1.48871e-07
-2.01995e-07
-9.16938e-08
-1.53721e-07
-1.99308e-07
-1.92914e-07
-1.55244e-07
-1.48901e-07
-2.02002e-07
-9.16924e-08
-1.53735e-07
-2.11562e-07
-1.8367e-07
-1.58939e-07
-2.00228e-07
-2.1156e-07
-1.83644e-07
-1.59008e-07
-2.0022e-07
-1.98978e-07
-1.47362e-07
-8.86743e-08
-1.50703e-07
-1.89817e-07
-1.52212e-07
-1.96289e-07
-1.98986e-07
-1.47393e-07
-8.86743e-08
-1.50718e-07
-1.89898e-07
-1.52226e-07
-1.96292e-07
-1.5178e-07
-1.51812e-07
-1.47989e-07
-1.36151e-07
-1.36144e-07
-1.56816e-07
-1.93339e-07
-1.90376e-07
-1.53766e-07
-1.55122e-07
-1.33135e-07
-1.33128e-07
-1.48765e-07
-1.48798e-07
-1.90325e-07
-1.53799e-07
-1.99155e-07
-1.92824e-07
-1.55133e-07
-1.48851e-07
-2.01843e-07
-9.17344e-08
-1.53624e-07
-2.03107e-07
-1.61913e-07
-2.14458e-07
-1.86528e-07
-1.99163e-07
-1.55111e-07
-1.92788e-07
-1.48795e-07
-2.01859e-07
-1.53603e-07
-9.15607e-08
-2.11404e-07
-1.83566e-07
-1.58948e-07
-2.00068e-07
-1.98824e-07
-1.47342e-07
-8.8717e-08
-1.50606e-07
-1.89805e-07
-1.52115e-07
-1.9614e-07
-2.1144e-07
-1.8351e-07
-1.58896e-07
-2.00091e-07
-1.98841e-07
-1.47286e-07
-1.50586e-07
-8.85426e-08
-1.52094e-07
-1.89777e-07
-1.96147e-07
-2.03153e-07
-1.61971e-07
-2.14468e-07
-1.86686e-07
-1.99234e-07
-1.55158e-07
-1.92802e-07
-1.48825e-07
-2.01915e-07
-1.53651e-07
-9.16292e-08
-2.03178e-07
-1.61908e-07
-2.14501e-07
-1.86635e-07
-1.98885e-07
-1.47373e-07
-8.87804e-08
-1.50652e-07
-1.89829e-07
-1.52161e-07
-1.96207e-07
-2.11452e-07
-1.83667e-07
-1.58957e-07
-2.00135e-07
-1.98899e-07
-1.47317e-07
-1.50634e-07
-8.86143e-08
-1.52142e-07
-1.89788e-07
-1.96216e-07
-2.11485e-07
-1.83618e-07
-1.58892e-07
-2.00161e-07
-1.51673e-07
-1.5169e-07
-1.47863e-07
-1.36026e-07
-1.36026e-07
-1.56679e-07
-1.9325e-07
-1.90245e-07
-1.53677e-07
-1.55012e-07
-1.33011e-07
-1.33011e-07
-1.48661e-07
-1.48678e-07
-1.90236e-07
-1.53661e-07
-1.99083e-07
-1.5506e-07
-1.928e-07
-1.48806e-07
-2.0176e-07
-1.53553e-07
-9.167e-08
-2.03027e-07
-1.61849e-07
-2.14346e-07
-1.86573e-07
-2.03017e-07
-1.61906e-07
-2.1434e-07
-1.86557e-07
-1.98738e-07
-1.47267e-07
-1.50523e-07
-8.86618e-08
-1.52031e-07
-1.89696e-07
-1.96064e-07
-1.98744e-07
-1.47298e-07
-1.50536e-07
-8.8654e-08
-1.52044e-07
-1.89791e-07
-1.96066e-07
-2.11329e-07
-1.83555e-07
-1.58832e-07
-2.0001e-07
-2.11323e-07
-1.8354e-07
-1.58891e-07
-2e-07
-1.56686e-07
-1.93399e-07
-1.56677e-07
-1.93253e-07
-1.55056e-07
-1.33044e-07
-1.33061e-07
-1.48711e-07
-1.48689e-07
-1.90381e-07
-1.53671e-07