/*--------------------------------*- C++ -*----------------------------------*\
| =========                 |                                                 |
| \\      /  F ield         | OpenFOAM: The Open Source CFD Toolbox           |
|  \\    /   O peration     | Version:  2206                                  |
|   \\  /    A nd           | Website:  www.openfoam.com                      |
|    \\/     M anipulation  |                                                 |
\*---------------------------------------------------------------------------*/
FoamFile
{
    version     2.0;
    format      ascii;
    arch        "LSB;label=32;scalar=64";
    class       surfaceScalarField;
    location    "2";
    object      phi;
}
// * * * * * * * * * * * * * * * * * * * * * * * * * * * * * * * * * * * * * //

dimensions      [0 3 -1 0 0 0 0];

oriented        oriented;

internalField   nonuniform List<scalar> 
82934
(
1.92741e-05
-2.78823e-05
-2.79103e-05
1.64459e-05
1.64425e-05
3.63013e-06
-8.9818e-06
5.92402e-06
2.7899e-05
2.14486e-05
-1.21313e-05
5.65829e-06
-6.44427e-06
-5.26872e-06
-7.56472e-06
6.82809e-06
6.42783e-06
-6.37421e-06
-1.01237e-05
-8.13659e-06
-9.16052e-06
-8.98025e-06
5.92252e-06
2.79001e-05
2.14501e-05
-1.21317e-05
5.65631e-06
-6.44438e-06
-5.26851e-06
-7.56445e-06
6.82483e-06
6.42556e-06
-6.37446e-06
-8.1349e-06
-1.01223e-05
-9.15855e-06
-4.29917e-06
-5.91896e-06
-5.9219e-06
7.64854e-06
7.6607e-06
8.30801e-07
-9.27106e-07
-9.25388e-07
-4.96952e-07
3.73864e-07
3.72792e-07
1.60279e-06
-7.805e-07
3.04068e-06
9.25929e-07
1.41473e-06
6.67484e-07
2.15431e-06
-3.73328e-06
-2.14833e-06
-3.48791e-06
2.28134e-06
2.79022e-06
-3.12468e-06
-7.82897e-07
3.04062e-06
9.25614e-07
1.41487e-06
6.67568e-07
2.15438e-06
-3.73292e-06
-2.1474e-06
-3.48711e-06
2.2812e-06
2.79008e-06
-3.124e-06
1.16656e-07
-3.03846e-06
-3.03958e-06
2.96123e-06
2.97061e-06
2.95437e-08
3.36534e-07
3.37401e-07
-1.56391e-06
-3.35287e-07
-3.37544e-07
1.5628e-06
-8.21452e-07
3.05016e-06
-3.35256e-07
6.90431e-07
8.29898e-07
2.1482e-06
-3.30459e-06
-1.74254e-06
-2.97651e-06
2.29351e-06
2.80126e-06
-2.63312e-06
-8.21699e-07
3.04977e-06
-3.34851e-07
6.90466e-07
8.31317e-07
2.14805e-06
-3.30425e-06
-1.74217e-06
-2.97651e-06
2.29262e-06
2.80017e-06
-2.63291e-06
4.28207e-07
-3.04828e-06
-3.04967e-06
2.8526e-06
2.86162e-06
-4.44703e-08
3.51118e-07
3.50744e-07
-1.56318e-06
-3.49313e-07
-3.52286e-07
1.56291e-06
-8.33747e-07
3.04539e-06
-3.53278e-07
6.7987e-07
8.34934e-07
2.14265e-06
-3.29102e-06
-1.72895e-06
-2.96021e-06
2.28703e-06
2.7948e-06
-2.61747e-06
-8.34223e-07
3.04518e-06
-3.55286e-07
6.79922e-07
8.35263e-07
2.14294e-06
-3.29056e-06
-1.72835e-06
-2.95975e-06
2.28682e-06
2.79482e-06
-2.61678e-06
4.31568e-07
-3.04228e-06
-3.04364e-06
2.84596e-06
2.85498e-06
-4.6586e-08
3.48403e-07
3.47343e-07
-1.56219e-06
-3.47018e-07
-3.50534e-07
1.564e-06
-8.28893e-07
3.0456e-06
-3.51019e-07
6.81849e-07
8.30542e-07
2.14309e-06
-3.2918e-06
-1.72946e-06
-2.96223e-06
2.28656e-06
2.79455e-06
-2.61879e-06
-8.29222e-07
3.04575e-06
-3.51585e-07
6.82535e-07
8.30427e-07
2.14317e-06
-3.29178e-06
-1.72934e-06
-2.96172e-06
2.28589e-06
2.7941e-06
-2.61822e-06
4.28079e-07
-3.04318e-06
-3.04439e-06
2.84729e-06
2.85652e-06
-4.43193e-08
3.45811e-07
3.45342e-07
-1.57697e-06
-3.47882e-07
-3.51365e-07
1.58506e-06
-8.37034e-07
3.04277e-06
-3.51476e-07
6.84971e-07
8.40367e-07
2.14064e-06
-3.29075e-06
-1.72862e-06
-2.96053e-06
2.28483e-06
2.79264e-06
-2.6178e-06
-8.3682e-07
3.04138e-06
-3.50382e-07
6.87647e-07
8.42048e-07
2.13955e-06
-3.29058e-06
-1.72847e-06
-2.9604e-06
2.28288e-06
2.79084e-06
-2.61769e-06
4.29056e-07
-3.0405e-06
-3.04186e-06
2.84492e-06
2.85398e-06
-4.55893e-08
3.54699e-07
3.57453e-07
-1.59249e-06
-3.52971e-07
-3.55051e-07
1.58836e-06
-8.47544e-07
3.0429e-06
-3.52971e-07
6.8034e-07
8.47632e-07
2.13972e-06
-3.28827e-06
-1.72731e-06
-2.95694e-06
2.28504e-06
2.79215e-06
-2.61473e-06
-8.47378e-07
3.04305e-06
-3.52516e-07
6.80454e-07
8.4716e-07
2.14016e-06
-3.2881e-06
-1.72698e-06
-2.95705e-06
2.28426e-06
2.79154e-06
-2.6146e-06
4.33884e-07
-3.04055e-06
-3.04204e-06
2.84399e-06
2.85296e-06
-4.82444e-08
3.54525e-07
3.54405e-07
-1.57043e-06
-3.50891e-07
-3.54683e-07
1.56708e-06
-8.37932e-07
3.04707e-06
-3.57858e-07
6.75506e-07
8.35099e-07
2.14418e-06
-3.28939e-06
-1.72718e-06
-2.95854e-06
2.28849e-06
2.79603e-06
-2.61547e-06
-8.37451e-07
3.04552e-06
-3.56906e-07
6.78926e-07
8.3614e-07
2.14321e-06
-3.28945e-06
-1.72731e-06
-2.9585e-06
2.28674e-06
2.79463e-06
-2.61555e-06
4.31914e-07
-3.04404e-06
-3.04553e-06
2.8473e-06
2.8562e-06
-4.58515e-08
3.49085e-07
3.54199e-07
-1.55454e-06
-3.49755e-07
-3.49932e-07
1.55094e-06
-8.26187e-07
3.04758e-06
-3.56726e-07
6.79514e-07
8.24915e-07
2.14524e-06
-3.29176e-06
-1.72874e-06
-2.9615e-06
2.28875e-06
2.79718e-06
-2.61826e-06
-8.28106e-07
3.04838e-06
-3.59204e-07
6.77773e-07
8.25094e-07
2.14626e-06
-3.2912e-06
-1.72799e-06
-2.96071e-06
2.289e-06
2.79779e-06
-2.61708e-06
4.27403e-07
-3.04605e-06
-3.04738e-06
2.84993e-06
2.85895e-06
-4.28534e-08
3.46495e-07
3.46721e-07
-1.55511e-06
-3.46628e-07
-3.5166e-07
1.56018e-06
-8.22175e-07
3.0474e-06
-3.55256e-07
6.80182e-07
8.22975e-07
2.14513e-06
-3.29304e-06
-1.72987e-06
-2.96278e-06
2.28902e-06
2.79743e-06
-2.61902e-06
-8.20054e-07
3.04516e-06
-3.49582e-07
6.87392e-07
8.22284e-07
2.14329e-06
-3.29436e-06
-1.73117e-06
-2.96399e-06
2.28632e-06
2.79506e-06
-2.62035e-06
4.22675e-07
-3.04627e-06
-3.04743e-06
2.85087e-06
2.86039e-06
-4.02457e-08
3.48866e-07
3.5255e-07
-1.56718e-06
-3.51211e-07
-3.52269e-07
1.56924e-06
-8.2823e-07
3.04379e-06
-3.45725e-07
6.85164e-07
8.31038e-07
2.1409e-06
-3.29256e-06
-1.73066e-06
-2.96237e-06
2.28516e-06
2.79282e-06
-2.61932e-06
-8.32343e-07
3.04396e-06
-3.49377e-07
6.82947e-07
8.33935e-07
2.14137e-06
-3.29117e-06
-1.72936e-06
-2.96067e-06
2.28501e-06
2.79302e-06
-2.61734e-06
4.27772e-07
-3.04107e-06
-3.04236e-06
2.84569e-06
2.85487e-06
-4.48896e-08
3.51063e-07
3.49533e-07
-1.5872e-06
-3.50332e-07
-3.55411e-07
1.59235e-06
-8.46437e-07
3.04157e-06
-3.51928e-07
6.83985e-07
8.50533e-07
2.13865e-06
-3.28878e-06
-1.72758e-06
-2.95803e-06
2.2834e-06
2.79062e-06
-2.616e-06
-8.4426e-07
3.0412e-06
-3.50709e-07
6.87277e-07
2.13862e-06
-3.28926e-06
-1.72793e-06
-2.95833e-06
2.28292e-06
2.79022e-06
-2.61617e-06
8.46424e-07
4.36475e-07
-3.04017e-06
-3.04128e-06
2.84248e-06
2.85198e-06
-4.94881e-08
-7.08317e-07
-7.09714e-07
4.29927e-06
-1.51079e-06
-6.84429e-07
-6.86029e-07
-5.23984e-06
8.9835e-06
-5.57604e-06
7.78165e-07
3.45908e-07
7.10722e-07
-5.24176e-06
8.98206e-06
-5.57298e-06
7.7871e-07
3.43251e-07
-7.12065e-07
4.2948e-06
-1.50524e-06
-6.81591e-07
-6.85185e-07
-5.23993e-06
8.98624e-06
-5.57777e-06
7.7712e-07
3.44623e-07
-5.24132e-06
7.1068e-07
8.98038e-06
-5.57171e-06
3.43311e-07
7.7866e-07
-2.53518e-05
-2.53447e-05
-8.41109e-06
-5.41682e-06
-7.16123e-06
-7.16129e-06
2.00091e-05
3.92034e-06
1.98915e-05
2.00089e-05
3.9211e-06
1.98903e-05
5.24213e-06
-1.92862e-05
-2.53598e-05
-2.53556e-05
-8.40889e-06
-5.41332e-06
-7.15849e-06
-7.15825e-06
2.00142e-05
3.92061e-06
1.98938e-05
2.00131e-05
3.9225e-06
1.98925e-05
5.24134e-06
-1.92861e-05
-2.53604e-05
-2.53579e-05
-8.40735e-06
-5.41173e-06
-7.15675e-06
-7.15672e-06
2.00127e-05
3.92095e-06
1.98931e-05
2.00129e-05
3.92218e-06
1.98925e-05
5.23932e-06
5.2394e-06
-1.92868e-05
-2.53518e-05
-2.53444e-05
-8.40867e-06
-5.41473e-06
-7.15878e-06
-7.15868e-06
2.00089e-05
3.92095e-06
1.98912e-05
2.00107e-05
3.92132e-06
1.98921e-05
-5.57341e-06
7.78592e-07
3.43081e-07
7.07812e-07
8.98279e-06
-5.57502e-06
3.46039e-07
7.77703e-07
-7.11633e-07
4.29453e-06
-1.50493e-06
-6.81775e-07
-6.8551e-07
-5.57219e-06
3.43444e-07
7.78194e-07
7.08755e-07
8.98562e-06
-5.57685e-06
3.45313e-07
7.76563e-07
-1.51071e-06
-6.85177e-07
-6.86723e-07
-5.91801e-06
-5.92138e-06
7.64906e-06
7.6605e-06
8.29106e-07
3.45687e-06
3.45697e-06
-1.16036e-07
5.47029e-08
-3.42254e-06
-3.42997e-06
2.14555e-05
-1.20964e-05
5.65396e-06
-6.44457e-06
-5.27113e-06
-7.56514e-06
6.82502e-06
6.42558e-06
-6.37511e-06
-1.01237e-05
-8.13911e-06
-9.16174e-06
5.92111e-06
2.78811e-05
2.14418e-05
-1.21066e-05
5.65364e-06
-6.43963e-06
-5.26613e-06
-7.56534e-06
6.83067e-06
6.42797e-06
-6.37451e-06
-1.01232e-05
-8.13841e-06
-9.16033e-06
8.12484e-07
-2.83545e-06
5.62093e-07
-6.86905e-07
3.83036e-06
-1.88361e-06
2.86006e-06
3.64111e-06
-2.79554e-06
3.09676e-06
-3.14449e-06
-3.45574e-06
8.16055e-07
-2.83683e-06
5.64898e-07
-6.85758e-07
3.8276e-06
-1.88082e-06
2.85485e-06
3.64157e-06
-2.79778e-06
3.09803e-06
-3.14606e-06
7.66159e-06
7.65201e-06
8.26336e-07
3.46125e-06
-1.209e-07
5.74108e-08
-3.43016e-06
-3.42335e-06
2.14545e-05
-1.21225e-05
5.65005e-06
-6.44389e-06
-5.2682e-06
-7.56543e-06
6.82982e-06
6.42827e-06
-6.37547e-06
-1.01282e-05
-8.14046e-06
-9.164e-06
5.91982e-06
2.78833e-05
2.14422e-05
-1.21064e-05
5.65219e-06
-6.43954e-06
-5.26612e-06
-7.56537e-06
6.82742e-06
6.42556e-06
-6.3748e-06
-8.13673e-06
-1.0122e-05
-9.1591e-06
7.8265e-07
-2.84471e-06
5.94867e-07
-6.88677e-07
3.83349e-06
-1.87995e-06
2.85661e-06
3.64342e-06
-2.79575e-06
3.10016e-06
-3.14514e-06
-3.45455e-06
8.15524e-07
-2.83795e-06
5.63944e-07
-6.88305e-07
3.8291e-06
-1.87969e-06
2.85555e-06
3.64108e-06
-2.79693e-06
3.09752e-06
-3.1453e-06
2.78829e-05
2.14559e-05
-1.20999e-05
5.6545e-06
-6.44487e-06
-5.27119e-06
-7.56571e-06
6.8244e-06
-6.3754e-06
6.42534e-06
-8.13762e-06
-1.01238e-05
-9.16078e-06
-2.83951e-06
6.02187e-07
-6.84972e-07
3.83285e-06
-1.88548e-06
2.85938e-06
3.64143e-06
-2.79689e-06
-3.14582e-06
3.09757e-06
-3.4579e-06
8.15206e-07
-2.83206e-06
5.64527e-07
-6.83052e-07
3.82819e-06
-1.88469e-06
2.85851e-06
3.63951e-06
-2.7974e-06
3.0951e-06
-3.14595e-06
7.65992e-06
7.65018e-06
8.26776e-07
3.46044e-06
-1.15878e-07
5.48358e-08
-3.43043e-06
-3.42352e-06
2.7909e-05
2.14551e-05
-1.21269e-05
5.65068e-06
-6.44438e-06
-5.26804e-06
-7.56548e-06
6.83017e-06
-6.37501e-06
6.42898e-06
-8.1392e-06
-1.01283e-05
-9.16288e-06
-2.84163e-06
5.98711e-07
-6.87024e-07
3.83352e-06
-1.88431e-06
2.86004e-06
3.64089e-06
-2.79553e-06
-3.14448e-06
3.09736e-06
-3.45794e-06
7.82632e-07
-2.84034e-06
5.98169e-07
-6.83397e-07
3.83156e-06
-1.88107e-06
2.85458e-06
3.64146e-06
-2.79762e-06
3.09819e-06
-3.14623e-06
5.45758e-08
-3.42317e-06
-3.43059e-06
-3.03818e-06
-3.03953e-06
2.96138e-06
2.97093e-06
2.93546e-08
3.31091e-06
3.31109e-06
-4.30932e-07
5.2788e-08
-3.11844e-06
-3.12542e-06
1.418e-06
6.93787e-07
2.15443e-06
-3.73008e-06
-2.14711e-06
-3.48722e-06
2.28026e-06
2.78929e-06
-3.12415e-06
3.03757e-06
9.27024e-07
1.41597e-06
6.97299e-07
2.15066e-06
-3.72666e-06
-2.14293e-06
-3.48818e-06
2.28125e-06
2.79014e-06
-3.12609e-06
8.49013e-07
-3.6426e-07
-8.20591e-07
6.74349e-07
3.06481e-06
-1.75051e-06
2.16511e-06
2.8179e-06
-2.64528e-06
2.30961e-06
-2.98924e-06
-3.3081e-06
8.5013e-07
-3.64212e-07
-8.22992e-07
6.73817e-07
3.06401e-06
-1.74681e-06
2.16117e-06
2.81862e-06
-2.64658e-06
2.31064e-06
-2.98969e-06
2.96805e-06
2.96232e-06
2.69812e-08
3.31451e-06
-4.32481e-07
5.44389e-08
-3.12588e-06
-3.11869e-06
1.41378e-06
6.68197e-07
2.15044e-06
-3.73065e-06
-2.1442e-06
-3.48847e-06
2.2827e-06
2.79113e-06
-3.12519e-06
3.03765e-06
9.26358e-07
1.41478e-06
6.96113e-07
2.15076e-06
-3.72627e-06
-2.142e-06
-3.48759e-06
2.28102e-06
2.78986e-06
-3.12517e-06
8.2283e-07
-3.64417e-07
-7.93535e-07
6.72626e-07
3.06624e-06
-1.74775e-06
2.16086e-06
2.81885e-06
-2.64612e-06
2.31157e-06
-2.99006e-06
-3.30812e-06
8.50955e-07
-3.63664e-07
-8.23075e-07
6.75054e-07
3.06318e-06
-1.74665e-06
2.16051e-06
2.81756e-06
-2.6461e-06
2.30989e-06
-2.98953e-06
9.29236e-07
1.41945e-06
6.95032e-07
2.15455e-06
-3.72993e-06
-2.14701e-06
-3.48778e-06
2.27968e-06
-3.1254e-06
2.78891e-06
-3.6378e-07
-7.9235e-07
6.76066e-07
3.06733e-06
-1.75211e-06
2.16463e-06
2.81872e-06
-2.64609e-06
-2.98966e-06
2.3103e-06
-3.31105e-06
8.50097e-07
-3.65053e-07
-8.2337e-07
6.7576e-07
3.06524e-06
-1.75032e-06
2.16519e-06
2.81803e-06
-2.64531e-06
2.30945e-06
-2.98867e-06
2.9692e-06
2.9633e-06
2.98908e-08
3.3142e-06
-4.28639e-07
5.1633e-08
-3.1261e-06
-3.11922e-06
9.28196e-07
1.41679e-06
6.66966e-07
2.14993e-06
-3.73086e-06
-2.1445e-06
-3.48913e-06
2.28172e-06
-3.12647e-06
2.7904e-06
-3.62846e-07
-7.92506e-07
6.76878e-07
3.06655e-06
-1.75177e-06
2.16426e-06
2.81788e-06
-2.64589e-06
-2.98968e-06
2.30962e-06
-3.31089e-06
8.22303e-07
-3.64926e-07
-7.94089e-07
6.7345e-07
3.06667e-06
-1.74737e-06
2.16104e-06
2.81897e-06
-2.64666e-06
2.31141e-06
-2.9899e-06
5.12893e-08
-3.11878e-06
-3.12625e-06
-3.04799e-06
-3.0493e-06
2.85231e-06
2.8613e-06
-4.72623e-08
3.28855e-06
3.28921e-06
-4.30043e-07
4.5215e-08
-3.09328e-06
-3.09964e-06
6.88604e-07
8.5803e-07
2.14886e-06
-3.30097e-06
-1.74146e-06
-2.97624e-06
2.29286e-06
2.8005e-06
-2.63263e-06
3.04679e-06
-3.3674e-07
6.88414e-07
8.60191e-07
2.14434e-06
-3.2986e-06
-1.73737e-06
-2.97693e-06
2.29334e-06
2.80096e-06
-2.63426e-06
8.58044e-07
-3.52937e-07
-8.60257e-07
6.77276e-07
3.04518e-06
-1.72862e-06
2.14464e-06
2.79555e-06
-2.61736e-06
2.28771e-06
-2.96067e-06
-3.28724e-06
8.63645e-07
-3.49076e-07
-8.62347e-07
6.83279e-07
3.04135e-06
-1.72658e-06
2.13808e-06
2.79484e-06
-2.62038e-06
2.28727e-06
-2.96285e-06
2.85922e-06
2.8534e-06
-4.81604e-08
3.2923e-06
-4.34357e-07
4.85994e-08
-3.1e-06
-3.09378e-06
6.87032e-07
8.32261e-07
2.14468e-06
-3.30124e-06
-1.73851e-06
-2.97654e-06
2.29478e-06
2.80162e-06
-2.63316e-06
3.0461e-06
-3.36089e-07
6.89801e-07
8.60807e-07
2.14392e-06
-3.2985e-06
-1.73737e-06
-2.9766e-06
2.29247e-06
2.80005e-06
-2.63364e-06
8.32064e-07
-3.51885e-07
-8.33987e-07
6.76756e-07
3.0465e-06
-1.72631e-06
2.14006e-06
2.79647e-06
-2.61835e-06
2.28958e-06
-2.9617e-06
-3.28749e-06
8.62141e-07
-3.48591e-07
-8.61758e-07
6.82967e-07
3.04187e-06
-1.72696e-06
2.13813e-06
2.79422e-06
-2.6193e-06
2.28697e-06
-2.9622e-06
-3.35233e-07
6.91323e-07
8.56741e-07
2.14864e-06
-3.30166e-06
-1.74143e-06
-2.97639e-06
2.29225e-06
-2.6331e-06
2.80067e-06
-3.48082e-07
-8.3197e-07
6.81802e-07
3.04503e-06
-1.73073e-06
2.14229e-06
2.79424e-06
-2.61908e-06
-2.96184e-06
2.28688e-06
-3.28949e-06
8.58862e-07
-3.46287e-07
-8.58543e-07
6.84758e-07
3.04224e-06
-1.72989e-06
2.14167e-06
2.79287e-06
-2.61907e-06
2.28498e-06
-2.96211e-06
2.85951e-06
2.85343e-06
-4.57105e-08
3.29172e-06
-4.31039e-07
4.63655e-08
-3.10002e-06
-3.09451e-06
-3.36558e-07
6.88826e-07
8.30434e-07
2.14494e-06
-3.3014e-06
-1.73816e-06
-2.9772e-06
2.29444e-06
-2.63438e-06
2.8017e-06
-3.51924e-07
-8.33656e-07
6.80771e-07
3.04591e-06
-1.72969e-06
2.14323e-06
2.79457e-06
-2.61783e-06
-2.96092e-06
2.28703e-06
-3.28973e-06
8.3293e-07
-3.47563e-07
-8.32551e-07
6.83586e-07
3.04363e-06
-1.72703e-06
2.13779e-06
2.79422e-06
-2.61969e-06
2.28703e-06
-2.96262e-06
4.62142e-08
-3.09348e-06
-3.10039e-06
-3.04418e-06
-3.04549e-06
2.84809e-06
2.85711e-06
-4.55678e-08
3.28942e-06
3.29021e-06
-4.29541e-07
4.4956e-08
-3.09443e-06
-3.10061e-06
6.79826e-07
8.55831e-07
2.14402e-06
-3.28882e-06
-1.72895e-06
-2.96115e-06
2.28705e-06
2.79529e-06
-2.61812e-06
3.04164e-06
-3.50752e-07
6.79656e-07
8.64704e-07
2.13789e-06
-3.28629e-06
-1.72564e-06
-2.96162e-06
2.28766e-06
2.79525e-06
-2.61885e-06
8.55139e-07
-3.49821e-07
-8.56361e-07
6.82547e-07
3.04357e-06
-1.72925e-06
2.14325e-06
2.79438e-06
-2.61834e-06
2.28587e-06
-2.96157e-06
-3.28659e-06
8.60173e-07
-3.4918e-07
-8.61359e-07
6.78451e-07
3.0422e-06
-1.72603e-06
2.13824e-06
2.7956e-06
-2.61829e-06
2.28804e-06
-2.96126e-06
2.85381e-06
2.84719e-06
-4.83233e-08
3.29117e-06
-4.31346e-07
4.65166e-08
-3.09901e-06
-3.09392e-06
6.79305e-07
8.30008e-07
2.13951e-06
-3.28953e-06
-1.72669e-06
-2.96169e-06
2.28888e-06
2.79626e-06
-2.61875e-06
3.04117e-06
-3.49816e-07
6.8071e-07
8.63113e-07
2.13745e-06
-3.2866e-06
-1.72619e-06
-2.96106e-06
2.28688e-06
2.79446e-06
-2.61797e-06
8.28622e-07
-3.48946e-07
-8.29976e-07
6.81829e-07
3.04484e-06
-1.72708e-06
2.13861e-06
2.79558e-06
-2.61903e-06
2.28799e-06
-2.96223e-06
-3.28689e-06
8.58823e-07
-3.48852e-07
-8.60002e-07
6.79016e-07
3.04248e-06
-1.72621e-06
2.13814e-06
2.79478e-06
-2.61767e-06
2.28731e-06
-2.96093e-06
-3.49398e-07
6.82624e-07
8.60733e-07
2.14172e-06
-3.28893e-06
-1.72912e-06
-2.96094e-06
2.28498e-06
-2.61816e-06
2.79308e-06
-3.53299e-07
-8.30312e-07
6.80371e-07
3.04626e-06
-1.72906e-06
2.14378e-06
2.79587e-06
-2.6179e-06
-2.96108e-06
2.28764e-06
-3.2882e-06
8.56221e-07
-3.52391e-07
-8.584e-07
6.78422e-07
3.0442e-06
-1.72822e-06
2.1434e-06
2.79498e-06
-2.61663e-06
2.28678e-06
-2.96018e-06
2.85419e-06
2.84734e-06
-4.62178e-08
3.29135e-06
-4.28481e-07
4.44504e-08
-3.09966e-06
-3.09455e-06
-3.49889e-07
6.81605e-07
8.35156e-07
2.1378e-06
-3.28923e-06
-1.7264e-06
-2.96187e-06
2.28701e-06
-2.61917e-06
2.79428e-06
-3.54679e-07
-8.30919e-07
6.80968e-07
3.04665e-06
-1.72894e-06
2.14391e-06
2.79533e-06
-2.61688e-06
-2.96028e-06
2.28697e-06
-3.2887e-06
8.30294e-07
-3.53299e-07
-8.32749e-07
6.77707e-07
3.0454e-06
-1.72568e-06
2.13914e-06
2.79635e-06
-2.61698e-06
2.28883e-06
-2.96032e-06
4.39065e-08
-3.09307e-06
-3.09966e-06
-3.04221e-06
-3.04351e-06
2.84639e-06
2.85547e-06
-4.56829e-08
3.28843e-06
3.28911e-06
-4.35122e-07
4.82345e-08
-3.09223e-06
-3.09842e-06
6.84387e-07
8.56707e-07
2.14223e-06
-3.29003e-06
-1.72992e-06
-2.96199e-06
2.2851e-06
2.79372e-06
-2.61887e-06
3.04136e-06
-3.48288e-07
6.79327e-07
8.61572e-07
2.13769e-06
-3.28724e-06
-1.7263e-06
-2.96164e-06
2.28749e-06
2.79487e-06
-2.61868e-06
8.61499e-07
-3.4623e-07
-8.5916e-07
6.87347e-07
3.04e-06
-1.72901e-06
2.13978e-06
2.79088e-06
-2.61836e-06
2.28276e-06
-2.96108e-06
-3.28673e-06
8.6733e-07
-3.44513e-07
-8.6472e-07
6.81443e-07
3.03967e-06
-1.72643e-06
2.13564e-06
2.79226e-06
-2.61838e-06
2.28555e-06
-2.96112e-06
2.8548e-06
2.84751e-06
-4.66911e-08
3.29067e-06
-4.34526e-07
4.82188e-08
-3.09769e-06
-3.0934e-06
6.83569e-07
8.30392e-07
2.13763e-06
-3.29084e-06
-1.72784e-06
-2.96277e-06
2.28719e-06
2.79482e-06
-2.61972e-06
3.04152e-06
-3.48052e-07
6.79839e-07
8.59872e-07
2.13764e-06
-3.28734e-06
-1.72647e-06
-2.96127e-06
2.2868e-06
2.79427e-06
-2.61798e-06
8.3541e-07
-3.44626e-07
-8.32811e-07
6.86042e-07
3.04137e-06
-1.72682e-06
2.1354e-06
2.79176e-06
-2.61936e-06
2.28479e-06
-2.96204e-06
-3.28687e-06
8.65307e-07
-3.42709e-07
-8.62642e-07
6.84902e-07
3.03873e-06
-1.72677e-06
2.13473e-06
2.79089e-06
-2.61836e-06
2.2839e-06
-2.96112e-06
-3.50419e-07
6.79009e-07
8.5701e-07
2.14302e-06
-3.2889e-06
-1.72887e-06
-2.96088e-06
2.28628e-06
-2.61733e-06
2.79412e-06
-3.52491e-07
-8.34401e-07
6.83665e-07
3.04379e-06
-1.7284e-06
2.14161e-06
2.79337e-06
-2.61805e-06
-2.96089e-06
2.28545e-06
-3.28862e-06
8.62989e-07
-3.50644e-07
-8.61149e-07
6.81711e-07
3.04196e-06
-1.72859e-06
2.14148e-06
2.79293e-06
-2.61697e-06
2.2849e-06
-2.95998e-06
2.85538e-06
2.84794e-06
-4.45293e-08
3.29093e-06
-4.32583e-07
4.69255e-08
-3.09834e-06
-3.09381e-06
-3.5127e-07
6.78141e-07
8.31019e-07
2.13882e-06
-3.28924e-06
-1.72619e-06
-2.96132e-06
2.28842e-06
-2.61802e-06
2.79555e-06
-3.49521e-07
-8.33813e-07
6.872e-07
3.04299e-06
-1.72902e-06
2.14071e-06
2.79159e-06
-2.6183e-06
-2.96133e-06
2.28361e-06
-3.28874e-06
8.37605e-07
-3.51136e-07
-8.35598e-07
6.79618e-07
3.04327e-06
-1.72569e-06
2.13737e-06
2.79419e-06
-2.61768e-06
2.28722e-06
-2.96043e-06
4.46489e-08
-3.09305e-06
-3.0999e-06
-3.03851e-06
-3.03996e-06
2.84244e-06
2.85121e-06
-5.0287e-08
3.28445e-06
3.28434e-06
-4.38886e-07
5.10876e-08
-3.087e-06
-3.094e-06
6.87188e-07
8.66058e-07
2.13873e-06
-3.28802e-06
-1.72914e-06
-2.96035e-06
2.28216e-06
2.79e-06
-2.61784e-06
3.03892e-06
-3.43572e-07
6.82772e-07
8.71015e-07
2.13491e-06
-3.28638e-06
-1.72638e-06
-2.96118e-06
2.28474e-06
2.79122e-06
-2.61874e-06
8.75372e-07
-3.53092e-07
-8.75408e-07
6.78144e-07
3.04114e-06
-1.72584e-06
2.14007e-06
2.79086e-06
-2.614e-06
2.28363e-06
-2.95642e-06
-3.28326e-06
8.78474e-07
-3.50975e-07
-8.78252e-07
6.82088e-07
3.03856e-06
-1.72339e-06
2.13506e-06
2.79116e-06
-2.61613e-06
2.28449e-06
-2.95782e-06
2.85156e-06
2.8448e-06
-4.91977e-08
3.28874e-06
-4.39973e-07
5.19408e-08
-3.09503e-06
-3.08894e-06
6.85891e-07
8.40462e-07
2.1343e-06
-3.28844e-06
-1.72661e-06
-2.96116e-06
2.28426e-06
2.79088e-06
-2.6188e-06
3.03742e-06
-3.42032e-07
6.85342e-07
8.70431e-07
2.13364e-06
-3.28624e-06
-1.72648e-06
-2.96088e-06
2.28294e-06
2.78954e-06
-2.61837e-06
8.48893e-07
-3.56967e-07
-8.49663e-07
6.76777e-07
3.04268e-06
-1.72228e-06
2.13653e-06
2.79289e-06
-2.61439e-06
2.28626e-06
-2.9564e-06
-3.28269e-06
8.7658e-07
-3.53009e-07
-8.77479e-07
6.81463e-07
3.03915e-06
-1.72275e-06
2.1355e-06
2.79112e-06
-2.61511e-06
2.28409e-06
-2.95687e-06
-3.49637e-07
6.82492e-07
8.68009e-07
2.14033e-06
-3.28865e-06
-1.72855e-06
-2.9602e-06
2.28407e-06
-2.61726e-06
2.79189e-06
-3.49928e-07
-8.46327e-07
6.82966e-07
3.04212e-06
-1.72774e-06
2.13926e-06
2.79116e-06
-2.61604e-06
-2.95834e-06
2.28408e-06
-3.28646e-06
8.72633e-07
-3.49274e-07
-8.72285e-07
6.82821e-07
3.04026e-06
-1.72772e-06
2.1394e-06
2.7906e-06
-2.61515e-06
2.28293e-06
-2.95775e-06
2.85084e-06
2.84375e-06
-4.83755e-08
3.28814e-06
-4.36883e-07
4.99705e-08
-3.09504e-06
-3.08888e-06
-3.50808e-07
6.80661e-07
8.42606e-07
2.13639e-06
-3.28873e-06
-1.72553e-06
-2.9605e-06
2.28635e-06
-2.61789e-06
2.7932e-06
-3.50979e-07
-8.47092e-07
6.81992e-07
3.0428e-06
-1.72716e-06
2.13978e-06
2.79092e-06
-2.6152e-06
-2.95789e-06
2.28359e-06
-3.28617e-06
8.47185e-07
-3.52186e-07
-8.46616e-07
6.81069e-07
3.04177e-06
-1.72416e-06
2.13569e-06
2.79226e-06
-2.61597e-06
2.28536e-06
-2.95824e-06
4.76153e-08
-3.08951e-06
-3.09686e-06
-3.04162e-06
-3.0431e-06
2.84385e-06
2.85294e-06
-5.09608e-08
3.2863e-06
3.28652e-06
-4.32805e-07
4.74829e-08
-3.09048e-06
-3.09702e-06
6.77387e-07
8.73883e-07
2.14091e-06
-3.28463e-06
-1.72592e-06
-2.95616e-06
2.28461e-06
2.79213e-06
-2.61377e-06
3.03934e-06
-3.53692e-07
6.79556e-07
8.78568e-07
2.13563e-06
-3.28285e-06
-1.72298e-06
-2.95705e-06
2.28527e-06
2.79206e-06
-2.61539e-06
8.63778e-07
-3.56137e-07
-8.68071e-07
6.76544e-07
3.04453e-06
-1.72682e-06
2.14364e-06
2.79502e-06
-2.61513e-06
2.287e-06
-2.95806e-06
-3.28394e-06
8.67401e-07
-3.57103e-07
-8.7178e-07
6.74424e-07
3.0432e-06
-1.72346e-06
2.13922e-06
2.7962e-06
-2.61526e-06
2.28904e-06
-2.95795e-06
2.85033e-06
2.84413e-06
-5.22041e-08
3.28834e-06
-4.34304e-07
4.86747e-08
-3.09587e-06
-3.09078e-06
6.75672e-07
8.46276e-07
2.13731e-06
-3.28459e-06
-1.72272e-06
-2.95629e-06
2.28745e-06
2.79426e-06
-2.61411e-06
3.03943e-06
-3.54266e-07
6.79878e-07
8.75948e-07
2.13588e-06
-3.28284e-06
-1.72285e-06
-2.95665e-06
2.28474e-06
2.79202e-06
-2.61471e-06
8.36141e-07
-3.56573e-07
-8.4054e-07
6.7406e-07
3.04593e-06
-1.72404e-06
2.1396e-06
2.79654e-06
-2.61569e-06
2.28958e-06
-2.9585e-06
-3.28479e-06
8.65483e-07
-3.52544e-07
-8.68775e-07
6.79348e-07
3.04139e-06
-1.72463e-06
2.1376e-06
2.79428e-06
-2.61586e-06
2.28702e-06
-2.95851e-06
-3.5013e-07
6.82501e-07
8.72086e-07
2.13968e-06
-3.28625e-06
-1.7274e-06
-2.95756e-06
2.28337e-06
-2.61523e-06
2.79102e-06
-3.57825e-07
-8.41392e-07
6.74168e-07
3.047e-06
-1.72661e-06
2.1439e-06
2.79554e-06
-2.61492e-06
-2.95785e-06
2.28839e-06
-3.28648e-06
8.64434e-07
-3.53929e-07
-8.67641e-07
6.78584e-07
3.04326e-06
-1.72709e-06
2.14228e-06
2.79353e-06
-2.61488e-06
2.28585e-06
-2.95792e-06
2.85092e-06
2.84454e-06
-4.98565e-08
3.28875e-06
-4.32941e-07
4.77378e-08
-3.09657e-06
-3.09177e-06
-3.53717e-07
6.8032e-07
8.46596e-07
2.13613e-06
-3.28584e-06
-1.72365e-06
-2.95773e-06
2.28595e-06
-2.61578e-06
2.79286e-06
-3.56298e-07
-8.40433e-07
6.78875e-07
3.04549e-06
-1.72704e-06
2.14296e-06
2.79421e-06
-2.61518e-06
-2.95785e-06
2.28657e-06
-3.28601e-06
8.38851e-07
-3.57315e-07
-8.42078e-07
6.75547e-07
3.04488e-06
-1.72335e-06
2.13878e-06
2.79544e-06
-2.61526e-06
2.28841e-06
-2.95789e-06
4.65854e-08
-3.08986e-06
-3.09731e-06
-3.04406e-06
-3.04554e-06
2.84734e-06
2.85637e-06
-4.69184e-08
3.29004e-06
3.28969e-06
-4.2826e-07
4.4333e-08
-3.09429e-06
-3.10151e-06
6.77872e-07
8.60827e-07
2.14365e-06
-3.28724e-06
-1.72744e-06
-2.95949e-06
2.28718e-06
2.79521e-06
-2.61633e-06
3.04324e-06
-3.54715e-07
6.74879e-07
8.64605e-07
2.13917e-06
-3.28504e-06
-1.72443e-06
-2.95954e-06
2.28924e-06
2.7965e-06
-2.61651e-06
8.53137e-07
-3.51452e-07
-8.56004e-07
6.7897e-07
3.04578e-06
-1.72979e-06
2.14466e-06
2.7962e-06
-2.61779e-06
2.2877e-06
-2.96137e-06
-3.28812e-06
8.55709e-07
-3.50394e-07
-8.57813e-07
6.78563e-07
3.04333e-06
-1.72724e-06
2.13911e-06
2.79704e-06
-2.61829e-06
2.28951e-06
-2.9614e-06
2.85526e-06
2.8484e-06
-4.76598e-08
3.29172e-06
-4.30346e-07
4.59741e-08
-3.09978e-06
-3.0957e-06
6.75596e-07
8.33028e-07
2.13963e-06
-3.28743e-06
-1.72468e-06
-2.9601e-06
2.28948e-06
2.79648e-06
-2.617e-06
3.0415e-06
-3.51636e-07
6.78162e-07
8.64403e-07
2.1376e-06
-3.28543e-06
-1.72512e-06
-2.95947e-06
2.28733e-06
2.79454e-06
-2.61639e-06
8.25785e-07
-3.55221e-07
-8.28694e-07
6.77241e-07
3.04734e-06
-1.72614e-06
2.14113e-06
2.79778e-06
-2.61824e-06
2.29015e-06
-2.96145e-06
-3.28708e-06
8.56495e-07
-3.52201e-07
-8.59064e-07
6.76151e-07
3.04402e-06
-1.7262e-06
2.13968e-06
2.79667e-06
-2.61709e-06
2.28911e-06
-2.96049e-06
-3.53684e-07
6.77597e-07
8.61986e-07
2.14296e-06
-3.28719e-06
-1.72757e-06
-2.95882e-06
2.2865e-06
-2.61564e-06
2.79427e-06
-3.55592e-07
-8.27704e-07
6.79484e-07
3.04752e-06
-1.72909e-06
2.14504e-06
2.79676e-06
-2.61819e-06
-2.96133e-06
2.28863e-06
-3.28895e-06
8.53878e-07
-3.5358e-07
-8.55373e-07
6.76898e-07
3.04494e-06
-1.72877e-06
2.14419e-06
2.79577e-06
-2.6166e-06
2.28765e-06
-2.96003e-06
2.8542e-06
2.847e-06
-4.71337e-08
3.29062e-06
-4.27152e-07
4.38596e-08
-3.09924e-06
-3.09516e-06
-3.56395e-07
6.75054e-07
8.36592e-07
2.13952e-06
-3.28678e-06
-1.72387e-06
-2.95907e-06
2.28876e-06
-2.6163e-06
2.7958e-06
-3.59353e-07
-8.30265e-07
6.77228e-07
3.04813e-06
-1.72776e-06
2.14587e-06
2.79704e-06
-2.61675e-06
-2.96029e-06
2.28866e-06
-3.28895e-06
8.28211e-07
-3.57224e-07
-8.29811e-07
6.76031e-07
3.04646e-06
-1.72541e-06
2.14051e-06
2.7977e-06
-2.61718e-06
2.29002e-06
-2.96035e-06
4.36186e-08
-3.09354e-06
-3.10058e-06
-3.04525e-06
-3.04671e-06
2.84933e-06
2.85828e-06
-4.391e-08
3.29156e-06
3.29162e-06
-4.29711e-07
4.49538e-08
-3.09582e-06
-3.1026e-06
6.81194e-07
8.50171e-07
2.14429e-06
-3.29086e-06
-1.73066e-06
-2.96221e-06
2.28747e-06
2.79622e-06
-2.61865e-06
3.04339e-06
-3.4956e-07
6.77749e-07
8.54648e-07
2.13903e-06
-3.28856e-06
-1.72757e-06
-2.96183e-06
2.28961e-06
2.79729e-06
-2.6185e-06
8.49131e-07
-3.45743e-07
-8.4854e-07
6.86748e-07
3.04333e-06
-1.73134e-06
2.14254e-06
2.7941e-06
-2.62036e-06
2.28549e-06
-2.96379e-06
-3.28883e-06
8.52596e-07
-3.47033e-07
-8.52006e-07
6.7697e-07
3.04363e-06
-1.72792e-06
2.13918e-06
2.7962e-06
-2.61925e-06
2.28925e-06
-2.96279e-06
2.85683e-06
2.84935e-06
-4.55585e-08
3.29243e-06
-4.29062e-07
4.49248e-08
-3.10054e-06
-3.09659e-06
6.79362e-07
8.22357e-07
2.14104e-06
-3.29032e-06
-1.72666e-06
-2.96204e-06
2.29008e-06
2.79833e-06
-2.61888e-06
3.04439e-06
-3.51402e-07
6.75638e-07
8.53946e-07
2.14001e-06
-3.28771e-06
-1.72671e-06
-2.96102e-06
2.28947e-06
2.79729e-06
-2.61741e-06
8.20554e-07
-3.4734e-07
-8.19813e-07
6.83689e-07
3.0447e-06
-1.72822e-06
2.13877e-06
2.79613e-06
-2.62093e-06
2.2883e-06
-2.96423e-06
-3.28995e-06
8.49155e-07
-3.43346e-07
-8.48908e-07
6.82938e-07
3.04241e-06
-1.72878e-06
2.13842e-06
2.79492e-06
-2.62034e-06
2.28733e-06
-2.96384e-06
-3.53958e-07
6.75822e-07
8.5149e-07
2.14508e-06
-3.28946e-06
-1.72919e-06
-2.9604e-06
2.28854e-06
-2.61694e-06
2.79684e-06
-3.58144e-07
-8.22219e-07
6.79526e-07
3.04788e-06
-1.72903e-06
2.14577e-06
2.79802e-06
-2.61865e-06
-2.96236e-06
2.28946e-06
-3.29001e-06
8.49876e-07
-3.55853e-07
-8.49993e-07
6.76638e-07
3.04609e-06
-1.72898e-06
2.14566e-06
2.79698e-06
-2.6175e-06
2.28859e-06
-2.9615e-06
2.8578e-06
2.85049e-06
-4.2667e-08
3.29387e-06
-4.25591e-07
4.24437e-08
-3.10245e-06
-3.09823e-06
-3.58089e-07
6.74943e-07
8.25681e-07
2.14145e-06
-3.28943e-06
-1.7257e-06
-2.96064e-06
2.29111e-06
-2.61745e-06
2.79895e-06
-3.52153e-07
-8.19948e-07
6.85881e-07
3.04643e-06
-1.73058e-06
2.1445e-06
2.79614e-06
-2.62001e-06
-2.96376e-06
2.28732e-06
-3.29048e-06
8.23458e-07
-3.55621e-07
-8.23446e-07
6.73923e-07
3.04729e-06
-1.72655e-06
2.1413e-06
2.79881e-06
-2.61803e-06
2.29133e-06
-2.96199e-06
4.03206e-08
-3.0958e-06
-3.10233e-06
-3.042e-06
-3.04337e-06
2.8463e-06
2.85559e-06
-4.62283e-08
3.28867e-06
3.28874e-06
-4.32962e-07
4.7369e-08
-3.09251e-06
-3.0993e-06
6.87087e-07
8.52064e-07
2.14187e-06
-3.2913e-06
-1.73122e-06
-2.96336e-06
2.28509e-06
2.79356e-06
-2.62017e-06
3.04343e-06
-3.47634e-07
6.77327e-07
8.54431e-07
2.13901e-06
-3.28863e-06
-1.7274e-06
-2.96289e-06
2.28875e-06
2.79575e-06
-2.61955e-06
8.58774e-07
-3.50282e-07
-8.57199e-07
6.82212e-07
3.04201e-06
-1.72891e-06
2.14159e-06
2.79369e-06
-2.61767e-06
2.28519e-06
-2.96074e-06
-3.28731e-06
8.59089e-07
-3.48747e-07
-8.57467e-07
6.8243e-07
3.04142e-06
-1.72624e-06
2.13782e-06
2.79412e-06
-2.61939e-06
2.28655e-06
-2.96228e-06
2.85677e-06
2.84985e-06
-4.48554e-08
3.29232e-06
-4.31868e-07
4.63979e-08
-3.09982e-06
-3.09434e-06
6.83832e-07
8.23621e-07
2.13774e-06
-3.29161e-06
-1.7284e-06
-2.96377e-06
2.28775e-06
2.79532e-06
-2.62057e-06
3.04134e-06
-3.42767e-07
6.8453e-07
8.52567e-07
2.13737e-06
-3.28985e-06
-1.72864e-06
-2.9642e-06
2.28614e-06
2.79364e-06
-2.62099e-06
8.32038e-07
-3.51349e-07
-8.29798e-07
6.80566e-07
3.04349e-06
-1.72599e-06
2.1376e-06
2.79479e-06
-2.61854e-06
2.28737e-06
-2.96142e-06
-3.28676e-06
8.61466e-07
-3.4816e-07
-8.59263e-07
6.83042e-07
3.04077e-06
-1.72608e-06
2.13699e-06
2.79282e-06
-2.61853e-06
2.28516e-06
-2.96146e-06
-3.53987e-07
6.78171e-07
8.48833e-07
2.14562e-06
-3.29055e-06
-1.72947e-06
-2.96205e-06
2.28829e-06
-2.61819e-06
2.79694e-06
-3.48019e-07
-8.26401e-07
6.82305e-07
3.04488e-06
-1.73005e-06
2.14221e-06
2.79447e-06
-2.61903e-06
-2.9626e-06
2.28633e-06
-3.29092e-06
8.55305e-07
-3.44818e-07
-8.52031e-07
6.87429e-07
3.04109e-06
-1.73085e-06
2.14114e-06
2.79276e-06
-2.61989e-06
2.2842e-06
-2.96343e-06
2.85561e-06
2.84884e-06
-4.35453e-08
3.29134e-06
-4.31021e-07
4.59717e-08
-3.09912e-06
-3.09392e-06
-3.52192e-07
6.75353e-07
8.23122e-07
2.14128e-06
-3.29116e-06
-1.72734e-06
-2.96285e-06
2.29075e-06
-2.61899e-06
2.79808e-06
-3.50422e-07
-8.2976e-07
6.82775e-07
3.04432e-06
-1.72923e-06
2.14196e-06