/*--------------------------------*- C++ -*----------------------------------*\
| =========                 |                                                 |
| \\      /  F ield         | OpenFOAM: The Open Source CFD Toolbox           |
|  \\    /   O peration     | Version:  2206                                  |
|   \\  /    A nd           | Website:  www.openfoam.com                      |
|    \\/     M anipulation  |                                                 |
\*---------------------------------------------------------------------------*/
FoamFile
{
    version     2.0;
    format      ascii;
    arch        "LSB;label=32;scalar=64";
    class       surfaceScalarField;
    location    "2";
    object      phi;
}
// * * * * * * * * * * * * * * * * * * * * * * * * * * * * * * * * * * * * * //

dimensions      [0 3 -1 0 0 0 0];

oriented        oriented;

internalField   nonuniform List<scalar> 
83438
(
-0.0010421
-1.39667e-05
-1.38627e-05
9.08702e-06
8.91634e-06
0.00105193
-0.000261401
-5.48447e-06
1.38434e-05
6.51269e-06
0.00105823
-4.34617e-06
-1.44257e-06
-1.99215e-06
-2.29884e-06
-6.311e-06
-6.79707e-06
-2.87359e-06
-0.00026321
-0.000259676
-0.000262753
-0.000261378
-5.48965e-06
1.38723e-05
6.6022e-06
0.00105802
-4.35149e-06
-1.45286e-06
-1.99989e-06
-2.30313e-06
-6.30511e-06
-6.79305e-06
-2.87571e-06
-0.000259648
-0.000263182
-0.000262717
-0.000260439
5.46012e-06
5.50017e-06
-4.69612e-06
-4.6901e-06
0.000258865
-3.44908e-07
-3.45681e-07
-0.00105676
2.85598e-07
2.85677e-07
0.00105688
-0.00105787
-1.21932e-06
3.40119e-07
1.55902e-07
0.00105773
-2.54443e-07
1.11991e-06
1.82494e-07
7.84544e-07
-2.36589e-07
-8.88968e-07
1.53949e-07
-0.00105755
-1.21411e-06
3.50509e-07
1.51088e-07
0.00105741
-2.54492e-07
1.11453e-06
1.82391e-07
7.81825e-07
-2.39199e-07
-8.88791e-07
1.56602e-07
-0.000260192
1.25206e-06
1.21421e-06
-2.51037e-07
-2.53675e-07
0.00025823
-3.7875e-09
-3.85519e-09
-0.00105695
7.8038e-09
7.76485e-09
0.00105694
-0.00105764
-1.15117e-06
8.83506e-09
2.01335e-09
0.00105764
-2.08465e-07
1.15117e-06
2.07104e-07
8.17378e-07
-1.88276e-07
-8.24126e-07
1.8369e-07
-0.00105732
-1.14591e-06
3.85684e-09
7.04758e-09
0.00105732
-2.08498e-07
1.14588e-06
2.07093e-07
8.17204e-07
-1.88237e-07
-8.18722e-07
1.86301e-07
-0.000260118
1.18132e-06
1.14599e-06
-2.01312e-07
-2.089e-07
0.000258201
-2.33087e-11
-2.3938e-11
-0.00105695
-1.1664e-10
-1.09232e-10
0.00105695
-0.00105764
-1.15074e-06
2.73419e-11
6.35609e-10
0.00105764
-2.10648e-07
1.15151e-06
2.10177e-07
8.17954e-07
-1.84942e-07
-8.18167e-07
1.8428e-07
-0.00105731
-1.14546e-06
2.34209e-11
6.31776e-10
0.00105731
-2.07959e-07
1.14622e-06
2.07488e-07
8.17785e-07
-1.87504e-07
-8.18033e-07
1.86873e-07
-0.000260113
1.17826e-06
1.14556e-06
-2.00832e-07
-2.05972e-07
0.000258196
2.17868e-10
2.73361e-10
-0.00105695
-2.79263e-10
-2.43808e-10
0.00105695
-0.00105764
-1.15074e-06
-2.38357e-10
6.4231e-10
0.00105764
-2.1065e-07
1.15151e-06
2.10171e-07
8.18e-07
-1.84901e-07
-8.18123e-07
1.84322e-07
-0.00105731
-1.14543e-06
-2.65315e-10
5.74565e-10
0.00105731
-2.07935e-07
1.14624e-06
2.07513e-07
8.17824e-07
-1.87468e-07
-8.17995e-07
1.86911e-07
-0.000260113
1.17823e-06
1.14554e-06
-2.00814e-07
-2.0595e-07
0.000258196
2.20025e-10
3.09761e-10
-0.00105695
-3.01645e-10
-2.43238e-10
0.00105695
-0.00105764
-1.15076e-06
-2.50613e-10
6.81446e-10
0.00105764
-2.10674e-07
1.15149e-06
2.1015e-07
8.18013e-07
-1.84897e-07
-8.18119e-07
1.84335e-07
-0.00105731
-1.14543e-06
-2.96882e-10
5.61435e-10
0.00105731
-2.0793e-07
1.14625e-06
2.07521e-07
8.17834e-07
-1.87462e-07
-8.1799e-07
1.86921e-07
-0.000260113
1.17823e-06
1.14554e-06
-2.0081e-07
-2.05944e-07
0.000258196
2.21784e-10
2.77166e-10
-0.00105695
-2.64377e-10
-2.46422e-10
0.00105695
-0.00105764
-1.15072e-06
-2.88601e-10
5.95719e-10
0.00105764
-2.10629e-07
1.15153e-06
2.10198e-07
8.18005e-07
-1.84893e-07
-8.18116e-07
1.8433e-07
-0.00105731
-1.14543e-06
-2.97829e-10
5.66673e-10
0.00105731
-2.0793e-07
1.14625e-06
2.07517e-07
8.17831e-07
-1.8746e-07
-8.17987e-07
1.86917e-07
-0.000260113
1.17823e-06
1.14554e-06
-2.00808e-07
-2.05945e-07
0.000258196
2.19924e-10
2.64029e-10
-0.00105695
-2.53565e-10
-2.50856e-10
0.00105695
-0.00105764
-1.15072e-06
-2.84567e-10
5.90268e-10
0.00105764
-2.10628e-07
1.15153e-06
2.102e-07
8.18003e-07
-1.849e-07
-8.18124e-07
1.84327e-07
-0.00105731
-1.14543e-06
-2.84385e-10
5.79374e-10
0.00105731
-2.07936e-07
1.14624e-06
2.07515e-07
8.17831e-07
-1.87467e-07
-8.17994e-07
1.86916e-07
-0.000260113
1.17823e-06
1.14554e-06
-2.00809e-07
-2.0595e-07
0.000258196
2.60298e-10
2.74589e-10
-0.00105695
-2.68417e-10
-2.64943e-10
0.00105695
-0.00105764
-1.15072e-06
-2.90367e-10
5.77879e-10
0.00105764
-2.10624e-07
1.15154e-06
2.10206e-07
8.18006e-07
-1.84898e-07
-8.18122e-07
1.8433e-07
-0.00105731
-1.14543e-06
-2.85949e-10
5.69783e-10
0.00105731
-2.07933e-07
1.14625e-06
2.07519e-07
8.17834e-07
-1.87465e-07
-8.17994e-07
1.86919e-07
-0.000260113
1.17823e-06
1.14554e-06
-2.00809e-07
-2.05951e-07
0.000258196
2.35596e-10
2.76357e-10
-0.00105695
-2.57626e-10
-2.48146e-10
0.00105695
-0.00105764
-1.15072e-06
-3.03585e-10
5.81027e-10
0.00105764
-2.10625e-07
1.15154e-06
2.10206e-07
8.18011e-07
-1.84896e-07
-8.1812e-07
1.84335e-07
-0.00105731
-1.14543e-06
-2.99652e-10
5.6791e-10
0.00105731
-2.07933e-07
1.14625e-06
2.07521e-07
8.17838e-07
-1.87463e-07
-8.17991e-07
1.86924e-07
-0.000260113
1.17823e-06
1.14554e-06
-2.00808e-07
-2.05949e-07
0.000258196
1.95493e-10
2.66503e-10
-0.00105695
-2.35112e-10
-2.19357e-10
0.00105695
-0.00105764
-1.15072e-06
-3.25463e-10
5.8292e-10
0.00105764
-2.07952e-07
1.15154e-06
2.07532e-07
8.18013e-07
-1.84865e-07
-8.18114e-07
1.84315e-07
-0.00105731
-1.14543e-06
-3.15336e-10
5.65968e-10
0.00105731
-2.07928e-07
1.14625e-06
2.07521e-07
8.1784e-07
-1.87456e-07
-8.17984e-07
1.86925e-07
-0.000260113
1.17823e-06
1.14553e-06
-2.00805e-07
-2.05946e-07
0.000258196
2.89967e-10
2.88819e-10
-0.00105695
-2.80628e-10
-2.84499e-10
0.00105695
-0.00105764
-1.15071e-06
-3.18672e-10
5.61615e-10
0.00105764
-2.07945e-07
1.15155e-06
2.07541e-07
8.18012e-07
-1.84867e-07
-8.18115e-07
1.84318e-07
-0.00105731
-1.14543e-06
-2.97553e-10
5.66752e-10
0.00105731
-2.07928e-07
1.14625e-06
2.07521e-07
8.17835e-07
-1.87459e-07
-8.17988e-07
1.86921e-07
-0.000260113
1.17823e-06
1.14553e-06
-2.00804e-07
-2.05945e-07
0.000258196
5.17814e-06
5.18886e-06
0.000260442
-0.000259137
-5.84279e-06
-5.82879e-06
5.05971e-06
0.00026135
-0.000258693
-5.89007e-06
3.35132e-06
-5.17816e-06
5.0547e-06
0.000261383
-0.000258708
-5.8981e-06
3.34644e-06
5.17869e-06
0.000260455
-0.00025914
-5.81422e-06
-5.85746e-06
5.05295e-06
0.000261414
-0.000258724
-5.89574e-06
3.34104e-06
5.05968e-06
-5.1804e-06
0.000261358
-0.000258693
3.35635e-06
-5.90043e-06
1.07221e-05
1.06278e-05
-0.000252657
-0.000256084
-0.000255126
-0.000255126
-6.39921e-06
-4.12155e-06
-6.64946e-06
-6.39969e-06
-4.12264e-06
-6.65511e-06
-5.04785e-06
0.00104212
1.06815e-05
1.06332e-05
-0.000252659
-0.000256082
-0.000255129
-0.000255129
-6.40182e-06
-4.12186e-06
-6.65219e-06
-6.39712e-06
-4.11738e-06
-6.64749e-06
-5.0475e-06
0.001042
1.07419e-05
1.06941e-05
-0.000252652
-0.000256076
-0.000255126
-0.000255121
-6.40178e-06
-4.12938e-06
-6.65223e-06
-6.40195e-06
-4.11958e-06
-6.64981e-06
-5.06219e-06
-5.05034e-06
0.00104207
1.07373e-05
1.06383e-05
-0.000252654
-0.000256079
-0.000255126
-0.000255126
-6.39664e-06
-4.12427e-06
-6.6472e-06
-6.4021e-06
-4.12244e-06
-6.65254e-06
-0.000258718
-5.88806e-06
3.33598e-06
-5.17802e-06
0.000261345
-0.00025869
3.35132e-06
-5.89008e-06
5.18123e-06
0.000260434
-0.000259125
-5.81668e-06
-5.85465e-06
-0.000258703
3.34364e-06
-5.88515e-06
-5.18893e-06
0.000261412
-0.000258718
3.33861e-06
-5.89318e-06
-0.000259135
-5.84276e-06
-5.82878e-06
5.4604e-06
5.49747e-06
-4.69628e-06
-4.69014e-06
0.00025887
-1.09312e-06
-1.05787e-06
0.000260202
-0.000258293
1.17535e-07
1.24881e-07
6.76511e-06
0.00105763
-4.34371e-06
-1.39633e-06
-1.98703e-06
-2.2998e-06
-6.32525e-06
-6.80262e-06
-2.88028e-06
-0.000263171
-0.000259633
-0.000262717
-5.47078e-06
1.39401e-05
6.7045e-06
0.001058
-4.36272e-06
-1.3887e-06
-1.99012e-06
-2.31059e-06
-6.35665e-06
-6.81948e-06
-2.89593e-06
-0.000263246
-0.000259663
-0.000262758
0.00105712
9.03775e-07
-0.00105741
4.16938e-07
-1.37805e-06
1.38213e-07
-3.41187e-07
-1.02156e-06
9.87464e-08
-3.3732e-07
7.21917e-07
1.10109e-06
0.00105754
9.03901e-07
-0.00105783
4.11722e-07
-1.38851e-06
1.46381e-07
-3.46528e-07
-1.02717e-06
9.87759e-08
-3.37402e-07
7.27328e-07
-4.69422e-06
-4.68701e-06
0.000258881
-1.06042e-06
0.000260228
-0.000258314
1.20172e-07
1.27389e-07
6.4863e-06
0.00105847
-4.36782e-06
-1.45533e-06
-2.00297e-06
-2.30913e-06
-6.33937e-06
-6.81512e-06
-2.89135e-06
-0.000263266
-0.000259691
-0.000262771
-5.47051e-06
1.39751e-05
6.79842e-06
0.00105778
-4.36261e-06
-1.39872e-06
-1.99512e-06
-2.31271e-06
-6.35613e-06
-6.81857e-06
-2.89567e-06
-0.000259633
-0.000263222
-0.00026273
0.00105813
9.10496e-07
-0.00105841
4.05899e-07
-1.34783e-06
1.3573e-07
-3.41156e-07
-1.02452e-06
9.86642e-08
-3.35041e-07
7.24395e-07
1.09067e-06
0.00105723
9.14517e-07
-0.00105754
4.27259e-07
-1.37802e-06
1.40945e-07
-3.41204e-07
-1.02437e-06
1.01319e-07
-3.40184e-07
7.21873e-07
1.3972e-05
6.78583e-06
0.00105758
-4.34362e-06
-1.39619e-06
-1.98438e-06
-2.29996e-06
-6.32538e-06
-2.88051e-06
-6.80046e-06
-0.000259628
-0.000263166
-0.000262712
9.09976e-07
-0.00105816
4.11084e-07
-1.34779e-06
1.38456e-07
-3.38422e-07
-1.02177e-06
9.61341e-08
7.19314e-07
-3.34839e-07
1.09055e-06
0.00105702
9.14247e-07
-0.00105733
4.27326e-07
-1.37802e-06
1.40898e-07
-3.41156e-07
-1.02418e-06
9.86515e-08
-3.37346e-07
7.24448e-07
-4.69929e-06
-4.68684e-06
0.00025886
-1.05248e-06
0.000260179
-0.000258276
1.17473e-07
1.22393e-07
1.38723e-05
6.50489e-06
0.00105842
-4.36804e-06
-1.45543e-06
-2.00313e-06
-2.30889e-06
-6.33918e-06
-2.89125e-06
-6.81237e-06
-0.000259681
-0.000263264
-0.000262766
9.1506e-07
-0.00105786
4.2689e-07
-1.3453e-06
1.35595e-07
-3.41243e-07
-1.01882e-06
1.01415e-07
7.19187e-07
-3.3742e-07
1.05262e-06
0.00105804
9.1543e-07
-0.00105833
4.16498e-07
-1.34274e-06
1.35644e-07
-3.38609e-07
-1.02178e-06
9.87705e-08
-3.37494e-07
7.19381e-07
-0.000258291
1.19912e-07
1.22431e-07
1.25207e-06
1.21675e-06
-2.48437e-07
-2.5621e-07
0.000258238
-1.18347e-06
-1.14561e-06
0.000260131
-0.000258207
1.98486e-07
2.06046e-07
1.56324e-07
0.00105698
-2.57046e-07
1.15258e-06
1.87689e-07
7.84481e-07
-2.36544e-07
-8.91492e-07
1.53968e-07
-1.25732e-06
3.45018e-07
1.51063e-07
0.0010574
-2.59736e-07
1.16057e-06
1.87809e-07
7.89886e-07
-2.39264e-07
-8.97039e-07
1.56625e-07
0.00105688
2.31853e-08
-0.00105689
8.67149e-09
-1.18708e-06
2.1453e-07
-2.1709e-07
-8.24948e-07
1.82997e-07
-1.89057e-07
8.16655e-07
1.18877e-06
0.00105732
2.31524e-08
-0.00105732
3.61305e-09
-1.19231e-06
2.14545e-07
-2.17113e-07
-8.27764e-07
1.83058e-07
-1.89113e-07
8.19475e-07
-2.48682e-07
-2.55847e-07
0.000258256
-1.15078e-06
0.000260157
-0.000258219
1.9868e-07
2.03413e-07
1.50758e-07
0.00105799
-2.54451e-07
1.11731e-06
1.85203e-07
7.87124e-07
-2.39381e-07
-8.94334e-07
1.56629e-07
-1.25206e-06
3.50424e-07
1.56412e-07
0.00105708
-2.59789e-07
1.15268e-06
1.87724e-07
7.84464e-07
-2.39353e-07
-8.91652e-07
1.56487e-07
0.0010579
2.32648e-08
-0.00105792
8.56234e-09
-1.14914e-06
2.09349e-07
-2.11839e-07
-8.2247e-07
1.85709e-07
-1.89168e-07
8.19421e-07
1.17835e-06
0.001057
2.32955e-08
-0.001057
8.64947e-09
-1.18448e-06
2.11839e-07
-2.17112e-07
-8.2506e-07
1.83002e-07
-1.89095e-07
8.19371e-07
3.45138e-07
1.56409e-07
0.00105688
-2.59751e-07
1.15002e-06
1.85035e-07
7.84461e-07
-2.39304e-07
1.56517e-07
-8.91563e-07
2.32449e-08
-0.00105766
1.36247e-08
-1.15688e-06
2.06615e-07
-2.11818e-07
-8.2237e-07
1.85683e-07
8.19337e-07
-1.89127e-07
1.1809e-06
0.00105679
1.80799e-08
-0.0010568
8.69929e-09
-1.18444e-06
2.11853e-07
-2.17082e-07
-8.24963e-07
1.82962e-07
-1.89052e-07
8.16719e-07
-2.51286e-07
-2.53409e-07
0.000258218
-1.14288e-06
0.000260106
-0.000258186
1.9862e-07
2.03421e-07
3.45492e-07
1.45839e-07
0.00105791
-2.54498e-07
1.11206e-06
1.79754e-07
7.81957e-07
-2.36631e-07
1.51364e-07
-8.88956e-07
2.32325e-08
-0.00105733
8.64438e-09
-1.14642e-06
2.06576e-07
-2.11827e-07
-8.16936e-07
1.83022e-07
8.11329e-07
-1.89083e-07
1.14558e-06
0.00105781
2.32807e-08
-0.00105782
8.61971e-09
-1.14655e-06
2.06636e-07
-2.11856e-07
-8.25019e-07
1.83056e-07
-1.91778e-07
8.16783e-07
-0.000258194
1.98486e-07
2.0361e-07
1.18391e-06
1.15119e-06
-1.98779e-07
-2.06396e-07
0.000258201
-1.1842e-06
-1.1489e-06
0.000260128
-0.000258198
1.99082e-07
2.04204e-07
2.09845e-09
0.00105688
-2.16427e-07
1.18387e-06
2.14991e-07
8.17314e-07
-1.85581e-07
-8.18854e-07
1.8099e-07
-1.18923e-06
3.82478e-09
1.20716e-08
0.0010573
-2.1647e-07
1.18918e-06
2.15067e-07
8.22793e-07
-1.88302e-07
-8.2429e-07
1.86351e-07
0.00105689
2.48536e-10
-0.00105689
7.31113e-10
-1.18348e-06
2.12694e-07
-2.13231e-07
-8.1815e-07
1.81527e-07
-1.82271e-07
8.1786e-07
1.1895e-06
0.0010573
3.15678e-10
-0.0010573
7.26312e-10
-1.18879e-06
2.1543e-07
-2.15969e-07
-8.26256e-07
1.86873e-07
-1.87642e-07
8.25938e-07
-2.01465e-07
-2.03737e-07
0.000258222
-1.15149e-06
0.000260156
-0.000258224
2.01805e-07
2.06553e-07
1.98996e-09
0.00105791
-2.1386e-07
1.14858e-06
2.09789e-07
8.2003e-07
-1.88318e-07
-8.24167e-07
1.86349e-07
-1.18135e-06
3.87369e-09
7.03343e-09
0.00105699
-2.16464e-07
1.18132e-06
2.15053e-07
8.20023e-07
-1.88276e-07
-8.21552e-07
1.86303e-07
0.0010579
2.47183e-10
-0.0010579
7.01647e-10
-1.14818e-06
2.10152e-07
-2.10678e-07
-8.20859e-07
1.86895e-07
-1.87641e-07
8.2058e-07
1.18425e-06
0.00105699
2.7337e-10
-0.00105699
7.3451e-10
-1.18354e-06
2.1542e-07
-2.15961e-07
-8.20812e-07
1.86845e-07
-1.876e-07
8.20507e-07
8.87622e-09
2.06232e-09
0.00105679
-2.13734e-07
1.17869e-06
2.09666e-07
8.19963e-07
-1.88208e-07
1.8362e-07
-8.21488e-07
2.57123e-10
-0.00105764
7.09892e-10
-1.15077e-06
2.10153e-07
-2.10678e-07
-8.18213e-07
1.84239e-07
8.17916e-07
-1.84994e-07
1.17899e-06
0.00105679
2.75796e-10
-0.00105679
7.32917e-10
-1.17828e-06
2.10025e-07
-2.10555e-07
-8.18185e-07
1.84141e-07
-1.849e-07
8.17876e-07
-2.0145e-07
-2.06218e-07
0.000258186
-1.1462e-06
0.000260108
-0.000258183
1.99286e-07
2.0652e-07
3.83822e-09
7.01266e-09
0.00105781
-2.08522e-07
1.14081e-06
2.04482e-07
8.175e-07
-1.85643e-07
1.83711e-07
-8.18959e-07
2.53327e-10
-0.00105731
7.06704e-10
-1.14548e-06
2.07463e-07
-2.07988e-07
-8.18037e-07
1.86814e-07
8.17797e-07
-1.8757e-07
1.1463e-06
0.00105782
3.1272e-10
-0.00105782
6.95609e-10
-1.14559e-06
2.0751e-07
-2.08036e-07
-8.15698e-07
1.84219e-07
-1.84983e-07
8.15398e-07
-0.000258196
2.01579e-07
2.06724e-07
1.18346e-06
1.14816e-06
-1.98329e-07
-2.03447e-07
0.000258198
-1.18424e-06
-1.14893e-06
0.000260128
-0.000258198
1.99113e-07
2.04241e-07
6.43975e-10
0.00105689
-2.13202e-07
1.18422e-06
2.12723e-07
8.17891e-07
-1.82222e-07
-8.18108e-07
1.81566e-07
-1.18877e-06
6.96074e-11
6.50466e-10
0.0010573
-2.1594e-07
1.18952e-06
2.15454e-07
8.25974e-07
-1.87592e-07
-8.26207e-07
1.86915e-07
0.00105689
-2.00649e-10
-0.00105689
5.75448e-10
-1.18343e-06
2.12741e-07
-2.13179e-07
-8.18086e-07
1.81591e-07
-1.82193e-07
8.17919e-07
1.18954e-06
0.0010573
-1.58861e-10
-0.0010573
6.29637e-10
-1.18875e-06
2.15462e-07
-2.15926e-07
-8.26174e-07
1.86934e-07
-1.87572e-07
8.26005e-07
-2.01047e-07
-2.058e-07
0.000258224
-1.15151e-06
0.000260156
-0.000258224
2.01817e-07
2.06584e-07
6.31244e-10
0.0010579
-2.10653e-07
1.14892e-06
2.10179e-07
8.2062e-07
-1.87595e-07
-8.20817e-07
1.86938e-07
-1.18351e-06
4.23392e-11
6.52035e-10
0.00105699
-2.15931e-07
1.18427e-06
2.15446e-07
8.20544e-07
-1.87547e-07
-8.20762e-07
1.86889e-07
0.0010579
-2.58348e-10
-0.0010579
5.92785e-10
-1.14814e-06
2.10191e-07
-2.10636e-07
-8.20773e-07
1.8697e-07
-1.87559e-07
8.20659e-07
1.18429e-06
0.00105699
-2.21254e-10
-0.00105699
5.89343e-10
-1.18349e-06
2.15464e-07
-2.15909e-07
-8.20726e-07
1.86917e-07
-1.87519e-07
8.20581e-07
4.58677e-11
6.43603e-10
0.00105679
-2.10527e-07
1.17902e-06
2.10053e-07
8.17915e-07
-1.8485e-07
1.84186e-07
-8.1814e-07
-2.26684e-10
-0.00105764
6.23571e-10
-1.15073e-06
2.10176e-07
-2.10643e-07
-8.18124e-07
1.84314e-07
8.17994e-07
-1.84909e-07
1.17904e-06
0.00105679
-2.04239e-10
-0.00105679
5.797e-10
-1.17823e-06
2.10069e-07
-2.10506e-07
-8.18104e-07
1.84215e-07
-1.84821e-07
8.1795e-07
-1.98533e-07
-2.05767e-07
0.000258183
-1.14624e-06
0.000260108
-0.000258183
1.99318e-07
2.06553e-07
5.54447e-11
6.27109e-10
0.00105782
-2.08009e-07
1.14632e-06
2.07537e-07
8.15438e-07
-1.84932e-07
1.84266e-07
-8.15652e-07
-2.50583e-10
-0.00105731
5.7528e-10
-1.14543e-06
2.07506e-07
-2.07939e-07
-8.17954e-07
1.86884e-07
8.17868e-07
-1.87491e-07
1.14634e-06
0.00105782
-2.41865e-10
-0.00105782
5.86904e-10
-1.14554e-06
2.07551e-07
-2.0799e-07
-8.15609e-07
1.84302e-07
-1.84896e-07
8.1548e-07
-0.000258196
2.01609e-07
2.06758e-07
1.18343e-06
1.14813e-06
-1.98312e-07
-2.03421e-07
0.000258198
-1.18425e-06
-1.14894e-06
0.000260128
-0.000258198
1.99115e-07
2.0425e-07
5.55973e-10
0.00105689
-2.13172e-07
1.18425e-06
2.12749e-07
8.17925e-07
-1.82199e-07
-8.18069e-07
1.81593e-07
-1.18875e-06
-1.41867e-10
6.47635e-10
0.0010573
-2.15933e-07
1.18954e-06
2.15459e-07
8.25996e-07
-1.87582e-07
-8.26182e-07
1.86923e-07
0.00105689
-2.08196e-10
-0.00105689
5.40754e-10
-1.18343e-06
2.12751e-07
-2.13173e-07
-8.18084e-07
1.81593e-07
-1.82196e-07
8.17923e-07
1.18954e-06
0.0010573
-1.2548e-10
-0.0010573
6.5936e-10
-1.18876e-06
2.15453e-07
-2.15938e-07
-8.26177e-07
1.86906e-07
-1.87588e-07
8.25996e-07
-2.01056e-07
-2.05782e-07
0.000258224
-1.1515e-06
0.000260156
-0.000258224
2.01788e-07
2.06592e-07
5.91131e-10
0.0010579
-2.10631e-07
1.14894e-06
2.10195e-07
8.20664e-07
-1.87554e-07
-8.20776e-07
1.86978e-07
-1.18349e-06
-2.40076e-10
5.88041e-10
0.00105699
-2.15905e-07
1.18429e-06
2.1547e-07
8.20582e-07
-1.87511e-07
-8.20723e-07
1.86924e-07
0.0010579
-3.09876e-10
-0.0010579
5.97118e-10
-1.14814e-06
2.10195e-07
-2.10636e-07
-8.20767e-07
1.86978e-07
-1.87554e-07
8.20668e-07
1.1843e-06
0.00105699
-2.61854e-10
-0.00105699
5.6918e-10
-1.18349e-06
2.15473e-07
-2.15907e-07
-8.20721e-07
1.86928e-07
-1.87513e-07
8.20592e-07
-2.25417e-10
5.6313e-10
0.00105679
-2.10503e-07
1.17904e-06
2.10078e-07
8.17953e-07
-1.84814e-07
1.84223e-07
-8.18102e-07
-2.48519e-10
-0.00105764
6.67396e-10
-1.15075e-06
2.10157e-07
-2.10663e-07
-8.18117e-07
1.84329e-07
8.1801e-07
-1.84904e-07
1.17905e-06
0.00105679
-2.38372e-10
-0.00105679
5.45514e-10
-1.17823e-06
2.10082e-07
-2.10499e-07
-8.18099e-07
1.84226e-07
-1.84816e-07
8.17961e-07
-1.98512e-07
-2.05746e-07
0.000258183
-1.14625e-06
0.000260108
-0.000258183
1.99325e-07
2.06561e-07
-2.7124e-10
5.85837e-10
0.00105782
-2.07988e-07
1.14634e-06
2.07559e-07
8.15484e-07
-1.84888e-07
1.84311e-07
-8.15606e-07
-2.97867e-10
-0.00105731
5.62991e-10
-1.14543e-06
2.07514e-07
-2.07936e-07
-8.17948e-07
1.86896e-07
8.1788e-07
-1.87486e-07
1.14635e-06
0.00105782
-3.08203e-10
-0.00105782
5.79166e-10
-1.14554e-06
2.07561e-07
-2.07986e-07
-8.15599e-07
1.84317e-07
-1.84887e-07
8.15495e-07
-0.000258196
2.01619e-07
2.0677e-07
1.18342e-06
1.14814e-06
-1.98314e-07
-2.03418e-07
0.000258198
-1.18425e-06
-1.14894e-06
0.000260128
-0.000258198
1.99113e-07
2.0425e-07
5.3364e-10
0.00105689
-2.13169e-07
1.18426e-06
2.12758e-07
8.17925e-07
-1.82192e-07
-8.18081e-07
1.81602e-07
-1.18877e-06
-6.48346e-11
6.91157e-10
0.0010573
-2.15951e-07
1.18954e-06
2.15442e-07
8.25978e-07
-1.87615e-07
-8.26201e-07
1.86891e-07
0.00105689
-2.29792e-10
-0.00105689
5.62142e-10
-1.18343e-06
2.12749e-07
-2.13176e-07
-8.18074e-07
1.81593e-07
-1.82196e-07
8.17928e-07
1.18955e-06
0.0010573
-2.11131e-10
-0.0010573
5.96749e-10
-1.18874e-06
2.15477e-07
-2.15917e-07
-8.26161e-07
1.86949e-07
-1.87561e-07
8.26016e-07
-2.01084e-07
-2.05783e-07
0.000258224
-1.15153e-06
0.000260156
-0.000258224
2.01831e-07
2.06597e-07
5.99087e-10
0.0010579
-2.10632e-07
1.14894e-06
2.102e-07
8.20674e-07
-1.87551e-07
-8.20772e-07
1.86988e-07
-1.18348e-06
-2.721e-10
5.66552e-10
0.00105699
-2.15898e-07
1.1843e-06
2.15481e-07
8.20593e-07
-1.87505e-07
-8.20718e-07
1.86935e-07
0.0010579
-3.06333e-10
-0.0010579
5.95531e-10
-1.14814e-06
2.10196e-07
-2.10634e-07
-8.20762e-07
1.86982e-07
-1.87549e-07
8.20672e-07
1.1843e-06
0.00105699
-2.6164e-10
-0.00105699
5.60883e-10
-1.18348e-06
2.15476e-07
-2.15901e-07
-8.20718e-07
1.86928e-07
-1.8751e-07
8.20592e-07
-2.44756e-10
5.37119e-10
0.00105679
-2.10496e-07
1.17905e-06
2.10089e-07
8.17961e-07
-1.8481e-07
1.84231e-07
-8.181e-07
-2.87682e-10
-0.00105764
6.09873e-10
-1.15073e-06
2.10191e-07
-2.10638e-07
-8.18113e-07
1.84332e-07
8.1801e-07
-1.84896e-07
1.17905e-06
0.00105679
-2.57014e-10
-0.00105679
5.56051e-10
-1.17823e-06
2.10082e-07
-2.10497e-07
-8.18095e-07
1.84228e-07
-1.84812e-07
8.17965e-07
-1.98509e-07
-2.05741e-07
0.000258183
-1.14625e-06
0.000260108
-0.000258183
1.99327e-07
2.06564e-07
-3.14006e-10
5.79799e-10
0.00105782
-2.07983e-07
1.14635e-06
2.07567e-07
8.15495e-07
-1.84881e-07
1.84322e-07
-8.156e-07
-3.14994e-10
-0.00105731
5.60269e-10
-1.14543e-06
2.07518e-07
-2.07931e-07
-8.17943e-07
1.86901e-07
8.17885e-07
-1.8748e-07
1.14635e-06
0.00105782
-3.08256e-10
-0.00105782
5.70635e-10
-1.14554e-06
2.07563e-07
-2.07982e-07
-8.15597e-07
1.84317e-07
-1.84884e-07
8.15496e-07
-0.000258196
2.01619e-07
2.06768e-07
1.18344e-06
1.14814e-06
-1.98321e-07
-2.03422e-07
0.000258198
-1.18685e-06
-1.14893e-06
0.000260131
-0.000258198
1.99138e-07
2.04246e-07
5.94694e-10
0.00105688
-2.13186e-07
1.18685e-06
2.1541e-07
8.1792e-07
-1.82201e-07
-8.18079e-07
1.81587e-07
-1.18874e-06
-2.27925e-10
5.75952e-10
0.0010573
-2.1591e-07
1.18956e-06
2.15485e-07
8.26019e-07
-1.87551e-07
-8.2616e-07
1.86958e-07
0.00105688
-1.99724e-10
-0.00105688
6.23289e-10
-1.18604e-06
2.15407e-07
-2.15869e-07
-8.18089e-07
1.81587e-07
-1.82219e-07
8.17923e-07
1.18956e-06
0.0010573
-2.25897e-10
-0.0010573
5.67738e-10
-1.18874e-06
2.15483e-07
-2.15911e-07
-8.2355e-07
1.86953e-07
-1.87555e-07
8.23405e-07
-2.01031e-07
-2.05773e-07
0.000258224
-1.15153e-06
0.000260156
-0.000258224
2.01837e-07
2.06597e-07
6.12356e-10
0.0010579
-2.10638e-07
1.14893e-06
2.10188e-07
8.20671e-07
-1.87551e-07
-8.20772e-07
1.86983e-07
-1.18348e-06
-2.63085e-10
5.60066e-10
0.00105699
-2.15898e-07
1.1843e-06
2.15479e-07
8.2059e-07
-1.87506e-07
-8.20718e-07
1.86932e-07
0.0010579
-2.67498e-10
-0.0010579
6.16716e-10
-1.14815e-06
2.10182e-07
-2.10662e-07
-8.20765e-07
1.86977e-07
-1.87552e-07
8.20667e-07
1.1843e-06
0.00105699
-2.44294e-10
-0.00105699
5.64662e-10
-1.18348e-06
2.15473e-07
-2.15903e-07
-8.20723e-07
1.86923e-07
-1.87515e-07
8.20587e-07
-2.64587e-10
5.59235e-10
0.00105679
-2.10495e-07
1.17905e-06
2.10085e-07
8.17963e-07
-1.84806e-07
1.84232e-07
-8.18094e-07
-2.91111e-10
-0.00105764
5.92561e-10
-1.15072e-06
2.10197e-07
-2.10629e-07
-8.18118e-07
1.84325e-07
8.18003e-07
-1.84902e-07
1.17904e-06
0.00105679
-2.58565e-10
-0.00105679
5.77223e-10
-1.17823e-06
2.10077e-07
-2.10503e-07
-8.18096e-07
1.84227e-07
-1.84814e-07
8.17964e-07
-1.98509e-07
-2.0574e-07
0.000258183
-1.14624e-06
0.000260108
-0.000258183
1.99324e-07
2.06561e-07
-3.06737e-10
5.71182e-10
0.00105782
-2.0798e-07
1.14635e-06
2.07567e-07
8.15493e-07
-1.8488e-07
1.84319e-07
-8.15597e-07
-2.96048e-10
-0.00105731
5.73891e-10
-1.14543e-06
2.07512e-07
-2.07935e-07
-8.17948e-07
1.86893e-07
8.17877e-07
-1.87485e-07
1.14635e-06
0.00105782
-2.86427e-10
-0.00105782
5.67575e-10
-1.14554e-06
2.07562e-07
-2.07984e-07
-8.15603e-07
1.84312e-07
-1.84891e-07
8.1549e-07
-0.000258196
2.01619e-07
2.06765e-07
1.18604e-06
1.14814e-06
-1.98351e-07
-2.03429e-07
0.000258198
-1.18685e-06
-1.14894e-06
0.000260131
-0.000258198
1.99156e-07
2.04248e-07
5.94691e-10
0.00105688
-2.15854e-07
1.18685e-06
2.1544e-07
8.17922e-07
-1.82204e-07
-8.1808e-07
1.84241e-07
-1.18874e-06
-2.3751e-10
5.75161e-10
0.0010573
-2.15911e-07
1.18956e-06
2.15485e-07
8.23405e-07
-1.87552e-07
-8.23548e-07
1.86959e-07
0.00105688
-2.47792e-10
-0.00105688
5.94572e-10
-1.18604e-06
2.1544e-07
-2.15877e-07
-8.18069e-07
1.84252e-07
-1.84839e-07
8.17938e-07
1.18956e-06
0.0010573
-2.54634e-10
-0.0010573
5.78961e-10
-1.18874e-06
2.15485e-07
-2.15913e-07
-8.23544e-07
1.86962e-07
-1.87552e-07
8.23413e-07
-2.01029e-07
-2.05775e-07
0.000258224
-1.15154e-06
0.000260156
-0.000258224
2.01844e-07
2.06598e-07
5.95722e-10
0.0010579
-2.10638e-07
1.14894e-06
2.10197e-07
8.20669e-07
-1.87555e-07
-8.20778e-07
1.86983e-07
-1.18349e-06
-2.4633e-10
5.74889e-10
0.00105699
-2.15904e-07
1.1843e-06
2.15476e-07
8.20586e-07
-1.87513e-07
-8.20725e-07
1.86928e-07
0.0010579
-2.80346e-10
-0.0010579
5.77757e-10
-1.14813e-06
2.10199e-07
-2.10629e-07
-8.20769e-07
1.86976e-07
-1.87555e-07
8.20666e-07
1.1843e-06
0.00105699
-2.54754e-10
-0.00105699
5.72731e-10
-1.18349e-06
2.15476e-07
-2.15905e-07
-8.20722e-07
1.86929e-07
-1.87514e-07
8.20594e-07
-2.584e-10
5.77349e-10
0.00105679
-2.10502e-07
1.17904e-06
2.10081e-07
8.17962e-07
-1.84809e-07
1.84231e-07
-8.18097e-07
-2.90559e-10
-0.00105764
5.786e-10
-1.15072e-06
2.10203e-07
-2.10627e-07
-8.18121e-07
1.84329e-07
8.18007e-07
-1.84903e-07
1.17904e-06
0.00105679
-2.63735e-10
-0.00105679
5.8012e-10
-1.17823e-06
2.10078e-07
-2.10505e-07
-8.18096e-07
1.84231e-07
-1.84813e-07
8.17967e-07
-1.98513e-07
-2.05745e-07
0.000258183
-1.14625e-06
0.000260108
-0.000258183
1.99327e-07
2.06564e-07
-2.81243e-10
5.70597e-10
0.00105782
-2.07983e-07
1.14635e-06
2.07567e-07
8.15488e-07
-1.84886e-07
1.84315e-07
-8.15605e-07
-2.95907e-10
-0.00105731
5.65289e-10
-1.14543e-06
2.07517e-07
-2.07935e-07
-8.17951e-07
1.86899e-07
8.17882e-07
-1.87486e-07
1.14635e-06
0.00105782
-2.83659e-10
-0.00105782
5.60703e-10
-1.14554e-06
2.07565e-07
-2.07984e-07
-8.15604e-07
1.84315e-07
-1.84891e-07
8.15493e-07
-0.000258196
2.01621e-07
2.06765e-07
1.18604e-06
1.14813e-06
-1.98341e-07
-2.03428e-07
0.000258198
-1.18685e-06
-1.14894e-06
0.000260131
-0.000258198
1.99154e-07
2.04249e-07
5.92021e-10
0.00105688
-2.15871e-07
1.18685e-06
2.15445e-07
8.17936e-07
-1.84836e-07
-8.1807e-07
1.84256e-07
-1.18874e-06
-2.51619e-10
5.79937e-10
0.0010573
-2.15911e-07
1.18956e-06
2.15486e-07
8.2341e-07
-1.87547e-07
-8.23544e-07
1.86965e-07
0.00105688
-2.51834e-10
-0.00105688
5.99106e-10
-1.18604e-06
2.15439e-07
-2.15877e-07
-8.18072e-07
1.84257e-07
-1.84841e-07
8.17943e-07
1.18957e-06
0.0010573
-2.48456e-10
-0.0010573
5.87068e-10
-1.18873e-06
2.15489e-07
-2.1591e-07
-8.2354e-07
1.86965e-07
-1.87546e-07
8.23418e-07
-2.01024e-07
-2.05775e-07
0.000258224
-1.15154e-06
0.000260156
-0.000258224
2.0184e-07
2.06603e-07
5.79965e-10
0.0010579
-2.10624e-07
1.14894e-06
2.10204e-07
8.20668e-07
-1.87557e-07
-8.20779e-07
1.86982e-07
-1.18349e-06
-2.55785e-10
5.77426e-10
0.00105699
-2.15903e-07
1.1843e-06
2.15477e-07
8.20591e-07
-1.87509e-07
-8.20721e-07
1.86933e-07
0.0010579
-2.87008e-10
-0.0010579
5.82107e-10
-1.14813e-06
2.10198e-07
-2.10631e-07
-8.2077e-07
1.86982e-07
-1.87555e-07
8.20673e-07
1.1843e-06
0.00105699
-2.54288e-10
-0.00105699
5.65095e-10
-1.18349e-06
2.15477e-07
-2.15905e-07
-8.20721e-07
1.8693e-07
-1.87512e-07
8.20595e-07
-2.64891e-10
5.79507e-10
0.00105679
-2.10503e-07
1.17905e-06
2.10082e-07
8.17966e-07
-1.84808e-07
1.84235e-07
-8.18096e-07
-3.01413e-10
-0.00105764
5.84277e-10
-1.15072e-06
2.10202e-07
-2.10628e-07
-8.18116e-07
1.84332e-07
8.18011e-07
-1.849e-07
1.17905e-06
0.00105679
-2.71157e-10
-0.00105679
5.73595e-10
-1.17823e-06
2.10082e-07
-2.10502e-07
-8.18094e-07
1.84234e-07
-1.84811e-07
8.17971e-07
-1.98511e-07
-2.05744e-07
0.000258183
-1.14625e-06
0.000260108
-0.000258183
1.99328e-07
2.06565e-07
-2.86264e-10
5.65479e-10
0.00105782
-2.07982e-07
1.14635e-06
2.0757e-07
8.15493e-07
-1.84885e-07
1.84319e-07
-8.15604e-07
-3.06379e-10
-0.00105731
5.65859e-10
-1.14543e-06
2.07517e-07
-2.07935e-07
-8.17946e-07
1.86902e-07
8.17887e-07
-1.87483e-07
1.14636e-06
0.00105782
-2.97429e-10
-0.00105782
5.58159e-10
-1.14554e-06
2.07569e-07
-2.07981e-07
-8.15602e-07
1.84319e-07
-1.84888e-07
8.15498e-07
-0.000258196
2.01624e-07
2.06768e-07
1.18604e-06
1.14813e-06
-1.98346e-07
-2.03427e-07
0.000258198
-1.18683e-06
-1.14889e-06
0.000260131
-0.000258198
1.99066e-07
2.04246e-07
6.20398e-10
0.00105688
-2.15876e-07
1.18685e-06
2.15437e-07
8.17933e-07
-1.84842e-07
-8.18074e-07
1.84256e-07
-1.18873e-06
-2.23589e-10
-4.70555e-09
0.00105731
-2.15904e-07
1.18958e-06
2.155e-07
8.23386e-07
-1.87541e-07
-8.23542e-07
1.86976e-07
0.00105688
-9.58002e-11
-0.00105688
7.15419e-10
-1.18606e-06
2.15395e-07
-2.15919e-07
-8.18114e-07
1.84179e-07
-1.84912e-07
8.17891e-07
1.18958e-06
0.0010573
-2.05371e-10
-0.00105731
5.53725e-09
-1.18873e-06
2.15502e-07
-2.159e-07
-8.23501e-07
1.86984e-07
-1.87547e-07
8.23435e-07
-2.01025e-07
-2.05771e-07
0.000258224
-1.15154e-06
0.000260156
-0.000258224
2.01839e-07
2.06616e-07
5.96447e-10
0.0010579
-2.10631e-07
1.14894e-06
2.10195e-07
8.20671e-07
-1.87553e-07
-8.20774e-07
1.86984e-07
-1.18348e-06
-2.63649e-10
5.60548e-10
0.00105699
-2.159e-07
1.18431e-06
2.15483e-07
8.20594e-07
-1.87507e-07
-8.2072e-07
1.86937e-07
0.0010579
-2.71427e-10
-0.0010579
6.54538e-10
-1.14817e-06
2.10142e-07
-2.10676e-07
-8.20764e-07
1.8699e-07
-1.8755e-07
8.20682e-07
1.18431e-06
0.00105699
-2.57143e-10
-0.00105699
5.41983e-10
-1.18348e-06
2.15481e-07
-2.15899e-07
-8.20719e-07
1.8693e-07
-1.8751e-07
8.20594e-07
-2.7335e-10
5.67773e-10
0.00105679
-2.105e-07
1.17905e-06
2.10087e-07
8.17968e-07
-1.84806e-07
1.84238e-07
-8.18095e-07
-3.2683e-10
-0.00105764
5.87413e-10
-1.15072e-06
2.07528e-07
-2.07955e-07
-8.18113e-07
1.84312e-07
8.18014e-07
-1.84871e-07
1.17905e-06
0.00105679
-2.85118e-10
-0.00105679
5.61814e-10
-1.17823e-06
2.10085e-07
-2.10496e-07
-8.18089e-07
1.84236e-07
-1.84806e-07
8.17972e-07
-1.98511e-07
-2.05742e-07
0.000258183
-1.14625e-06
0.000260108
-0.000258183
1.99329e-07
2.06566e-07
-3.00275e-10
5.60096e-10
0.00105782
-2.0798e-07
1.14636e-06
2.07573e-07
8.15496e-07
-1.84883e-07
1.84323e-07
-8.15602e-07
-3.23906e-10
-0.00105731
5.62793e-10
-1.14543e-06
2.0752e-07
-2.07931e-07
-8.17943e-07
1.86903e-07
8.17889e-07
-1.8748e-07
1.14636e-06
0.00105782
-3.08418e-10
-0.00105782
5.4789e-10
-1.14553e-06
2.07571e-07
-2.07976e-07
-8.15597e-07
1.8432e-07
-1.84882e-07
8.15498e-07
-0.000258196
2.01625e-07
2.0677e-07
1.18605e-06