/*--------------------------------*- C++ -*----------------------------------*\
| =========                 |                                                 |
| \\      /  F ield         | OpenFOAM: The Open Source CFD Toolbox           |
|  \\    /   O peration     | Version:  2206                                  |
|   \\  /    A nd           | Website:  www.openfoam.com                      |
|    \\/     M anipulation  |                                                 |
\*---------------------------------------------------------------------------*/
FoamFile
{
    version     2.0;
    format      ascii;
    arch        "LSB;label=32;scalar=64";
    class       volScalarField;
    location    "1.5";
    object      epsilon;
}
// * * * * * * * * * * * * * * * * * * * * * * * * * * * * * * * * * * * * * //

dimensions      [0 2 -3 0 0 0 0];

internalField   nonuniform List<scalar> 
28335
(
5.17367e-07
5.17418e-07
5.17418e-07
5.17436e-07
5.17358e-07
5.1741e-07
5.1741e-07
5.17434e-07
5.17358e-07
5.1741e-07
5.1741e-07
5.17434e-07
5.17358e-07
5.1741e-07
5.1741e-07
5.17434e-07
5.17358e-07
5.1741e-07
5.1741e-07
5.17434e-07
5.17358e-07
5.1741e-07
5.1741e-07
5.17434e-07
5.17358e-07
5.1741e-07
5.1741e-07
5.17434e-07
5.17358e-07
5.1741e-07
5.1741e-07
5.17434e-07
5.17358e-07
5.1741e-07
5.1741e-07
5.17434e-07
5.17358e-07
5.1741e-07
5.1741e-07
5.17434e-07
5.17358e-07
5.1741e-07
5.1741e-07
5.17434e-07
5.17358e-07
5.1741e-07
5.1741e-07
5.17434e-07
5.17358e-07
5.1741e-07
5.1741e-07
5.17434e-07
5.17358e-07
5.1741e-07
5.1741e-07
5.17434e-07
5.17358e-07
5.1741e-07
5.1741e-07
5.17434e-07
5.17358e-07
5.1741e-07
5.1741e-07
5.17434e-07
5.17358e-07
5.1741e-07
5.1741e-07
5.17434e-07
5.17441e-07
5.17458e-07
5.17457e-07
5.17441e-07
5.17458e-07
5.17458e-07
5.17456e-07
5.17457e-07
5.17441e-07
5.17457e-07
5.17457e-07
5.17438e-07
5.17447e-07
5.17434e-07
5.17422e-07
5.17421e-07
5.17409e-07
5.17409e-07
5.17447e-07
5.17435e-07
5.17422e-07
5.17422e-07
5.17409e-07
5.17409e-07
5.17421e-07
5.1741e-07
5.17409e-07
5.17447e-07
5.17434e-07
5.17421e-07
5.1741e-07
5.17409e-07
5.17433e-07
5.17445e-07
5.17434e-07
5.17416e-07
5.17415e-07
5.17409e-07
5.17409e-07
5.17445e-07
5.17435e-07
5.17416e-07
5.17415e-07
5.17409e-07
5.17409e-07
5.17415e-07
5.1741e-07
5.17409e-07
5.17445e-07
5.17434e-07
5.17415e-07
5.1741e-07
5.17409e-07
5.17433e-07
5.17445e-07
5.17434e-07
5.17415e-07
5.17415e-07
5.17409e-07
5.17409e-07
5.17445e-07
5.17435e-07
5.17415e-07
5.17415e-07
5.17409e-07
5.17409e-07
5.17415e-07
5.1741e-07
5.17409e-07
5.17445e-07
5.17434e-07
5.17415e-07
5.1741e-07
5.17409e-07
5.17433e-07
5.17445e-07
5.17434e-07
5.17415e-07
5.17415e-07
5.17409e-07
5.17409e-07
5.17445e-07
5.17435e-07
5.17415e-07
5.17415e-07
5.17409e-07
5.17409e-07
5.17415e-07
5.1741e-07
5.17409e-07
5.17445e-07
5.17434e-07
5.17415e-07
5.1741e-07
5.17409e-07
5.17433e-07
5.17445e-07
5.17434e-07
5.17415e-07
5.17415e-07
5.17409e-07
5.17409e-07
5.17445e-07
5.17435e-07
5.17415e-07
5.17415e-07
5.17409e-07
5.17409e-07
5.17415e-07
5.1741e-07
5.17409e-07
5.17445e-07
5.17434e-07
5.17415e-07
5.1741e-07
5.17409e-07
5.17433e-07
5.17445e-07
5.17434e-07
5.17415e-07
5.17415e-07
5.17409e-07
5.17409e-07
5.17445e-07
5.17435e-07
5.17415e-07
5.17415e-07
5.17409e-07
5.17409e-07
5.17415e-07
5.1741e-07
5.17409e-07
5.17445e-07
5.17434e-07
5.17415e-07
5.1741e-07
5.17409e-07
5.17433e-07
5.17445e-07
5.17434e-07
5.17415e-07
5.17415e-07
5.17409e-07
5.17409e-07
5.17445e-07
5.17435e-07
5.17415e-07
5.17415e-07
5.17409e-07
5.17409e-07
5.17415e-07
5.1741e-07
5.17409e-07
5.17445e-07
5.17434e-07
5.17415e-07
5.1741e-07
5.17409e-07
5.17433e-07
5.17445e-07
5.17434e-07
5.17415e-07
5.17415e-07
5.17409e-07
5.17409e-07
5.17445e-07
5.17435e-07
5.17415e-07
5.17415e-07
5.17409e-07
5.17409e-07
5.17415e-07
5.1741e-07
5.17409e-07
5.17445e-07
5.17434e-07
5.17415e-07
5.1741e-07
5.17409e-07
5.17433e-07
5.17445e-07
5.17434e-07
5.17415e-07
5.17415e-07
5.17409e-07
5.17409e-07
5.17445e-07
5.17435e-07
5.17415e-07
5.17415e-07
5.17409e-07
5.17409e-07
5.17415e-07
5.1741e-07
5.17409e-07
5.17445e-07
5.17435e-07
5.17415e-07
5.1741e-07
5.17409e-07
5.17433e-07
5.17445e-07
5.17434e-07
5.17415e-07
5.17415e-07
5.17409e-07
5.17409e-07
5.17445e-07
5.17435e-07
5.17415e-07
5.17415e-07
5.17409e-07
5.17409e-07
5.17415e-07
5.1741e-07
5.17409e-07
5.17445e-07
5.17434e-07
5.17415e-07
5.1741e-07
5.17409e-07
5.17433e-07
5.17445e-07
5.17434e-07
5.17415e-07
5.17415e-07
5.17409e-07
5.17409e-07
5.17445e-07
5.17435e-07
5.17415e-07
5.17415e-07
5.17409e-07
5.17409e-07
5.17415e-07
5.1741e-07
5.17409e-07
5.17445e-07
5.17434e-07
5.17415e-07
5.1741e-07
5.17409e-07
5.17433e-07
5.17445e-07
5.17434e-07
5.17415e-07
5.17415e-07
5.17409e-07
5.17409e-07
5.17445e-07
5.17435e-07
5.17415e-07
5.17415e-07
5.17409e-07
5.17409e-07
5.17415e-07
5.1741e-07
5.17409e-07
5.17445e-07
5.17434e-07
5.17415e-07
5.1741e-07
5.17409e-07
5.17433e-07
5.17445e-07
5.17434e-07
5.17415e-07
5.17415e-07
5.17409e-07
5.17409e-07
5.17445e-07
5.17435e-07
5.17415e-07
5.17415e-07
5.17409e-07
5.17409e-07
5.17415e-07
5.1741e-07
5.17409e-07
5.17445e-07
5.17434e-07
5.17415e-07
5.1741e-07
5.17409e-07
5.17433e-07
5.17445e-07
5.17434e-07
5.17415e-07
5.17415e-07
5.17409e-07
5.17409e-07
5.17445e-07
5.17435e-07
5.17415e-07
5.17415e-07
5.17409e-07
5.17409e-07
5.17415e-07
5.1741e-07
5.17409e-07
5.17445e-07
5.17434e-07
5.17415e-07
5.1741e-07
5.17409e-07
5.17433e-07
5.17445e-07
5.17434e-07
5.17415e-07
5.17415e-07
5.17409e-07
5.17409e-07
5.17445e-07
5.17435e-07
5.17415e-07
5.17415e-07
5.17409e-07
5.17409e-07
5.17415e-07
5.1741e-07
5.17409e-07
5.17445e-07
5.17434e-07
5.17415e-07
5.1741e-07
5.17409e-07
5.17433e-07
5.17445e-07
5.17434e-07
5.17415e-07
5.17415e-07
5.17409e-07
5.17409e-07
5.17445e-07
5.17435e-07
5.17415e-07
5.17415e-07
5.17409e-07
5.17409e-07
5.17415e-07
5.1741e-07
5.17409e-07
5.17445e-07
5.17434e-07
5.17415e-07
5.1741e-07
5.17409e-07
5.17433e-07
5.17445e-07
5.17415e-07
5.17415e-07
5.17445e-07
5.17415e-07
5.17415e-07
5.17414e-07
5.17445e-07
5.17414e-07
7.24598e-07
4.0444e-06
1.05499e-05
7.24581e-07
4.0449e-06
5.17406e-07
5.17406e-07
5.17407e-07
5.17407e-07
5.27632e-07
5.17673e-07
6.73501e-07
5.17627e-07
1.05509e-05
5.27634e-07
5.17674e-07
5.17626e-07
6.73504e-07
5.17735e-07
9.42563e-07
9.42688e-07
7.26853e-07
4.05054e-06
7.26978e-07
4.05046e-06
1.05872e-05
1.05868e-05
7.26822e-07
4.05107e-06
7.2692e-07
4.05099e-06
5.1737e-07
5.1737e-07
5.1737e-07
5.17358e-07
5.17357e-07
5.17357e-07
5.17357e-07
5.2758e-07
6.75304e-07
5.1737e-07
5.17415e-07
5.27592e-07
6.75166e-07
5.17366e-07
1.05883e-05
1.05879e-05
5.27578e-07
5.1737e-07
6.75265e-07
5.17415e-07
5.27594e-07
5.17366e-07
6.75151e-07
9.47237e-07
9.47345e-07
5.17439e-07
9.47136e-07
9.47257e-07
7.26842e-07
4.05052e-06
7.26975e-07
4.05046e-06
1.05872e-05
1.05868e-05
7.26818e-07
4.05102e-06
7.26897e-07
4.05096e-06
5.17362e-07
5.17363e-07
5.17363e-07
5.17358e-07
5.17357e-07
5.17357e-07
5.17357e-07
5.27581e-07
6.75298e-07
5.17362e-07
5.17416e-07
5.27592e-07
6.75165e-07
5.17368e-07
1.05882e-05
1.05878e-05
5.27578e-07
5.17362e-07
6.75268e-07
5.17416e-07
5.27592e-07
5.17368e-07
6.75151e-07
9.47213e-07
9.47322e-07
5.17439e-07
9.47132e-07
9.47249e-07
7.26842e-07
4.05052e-06
7.26976e-07
4.05046e-06
1.05872e-05
1.05868e-05
7.26818e-07
4.05102e-06
7.26897e-07
4.05096e-06
5.17363e-07
5.17363e-07
5.17362e-07
5.17358e-07
5.17357e-07
5.17357e-07
5.17357e-07
5.27581e-07
6.75298e-07
5.17362e-07
5.17416e-07
5.27592e-07
6.75165e-07
5.17367e-07
1.05882e-05
1.05878e-05
5.27579e-07
5.17362e-07
6.75268e-07
5.17415e-07
5.27591e-07
5.17367e-07
6.75151e-07
9.4721e-07
9.47316e-07
5.17439e-07
9.47132e-07
9.47241e-07
7.26842e-07
4.05052e-06
7.26976e-07
4.05046e-06
1.05872e-05
1.05868e-05
7.26818e-07
4.05102e-06
7.26898e-07
4.05096e-06
5.17363e-07
5.17362e-07
5.17363e-07
5.17358e-07
5.17357e-07
5.17357e-07
5.17357e-07
5.27581e-07
6.75299e-07
5.17362e-07
5.17416e-07
5.27592e-07
6.75165e-07
5.17367e-07
1.05882e-05
1.05878e-05
5.27579e-07
5.17362e-07
6.75268e-07
5.17415e-07
5.27591e-07
5.17367e-07
6.75151e-07
9.47211e-07
9.47328e-07
5.17439e-07
9.47132e-07
9.47251e-07
7.26842e-07
4.05052e-06
7.26976e-07
4.05046e-06
1.05872e-05
1.05868e-05
7.26818e-07
4.05102e-06
7.26897e-07
4.05096e-06
5.17363e-07
5.17362e-07
5.17362e-07
5.17358e-07
5.17357e-07
5.17357e-07
5.17357e-07
5.2758e-07
6.75298e-07
5.17362e-07
5.17416e-07
5.27592e-07
6.75165e-07
5.17367e-07
1.05882e-05
1.05878e-05
5.27578e-07
5.17362e-07
6.75268e-07
5.17416e-07
5.27591e-07
5.17367e-07
6.75151e-07
9.47211e-07
9.4732e-07
5.17439e-07
9.47132e-07
9.47249e-07
7.26842e-07
4.05052e-06
7.26976e-07
4.05046e-06
1.05872e-05
1.05868e-05
7.26818e-07
4.05099e-06
7.26898e-07
4.05093e-06
5.17363e-07
5.17363e-07
5.17363e-07
5.17358e-07
5.17357e-07
5.17357e-07
5.17357e-07
5.27581e-07
6.75299e-07
5.17362e-07
5.17416e-07
5.27592e-07
6.75165e-07
5.17367e-07
1.05882e-05
1.05878e-05
5.27579e-07
5.17362e-07
6.75268e-07
5.17416e-07
5.27591e-07
5.17367e-07
6.75151e-07
9.47211e-07
9.47324e-07
5.17439e-07
9.47132e-07
9.47246e-07
7.26842e-07
4.05052e-06
7.26976e-07
4.05046e-06
1.05871e-05
1.05867e-05
7.26818e-07
4.05099e-06
7.26898e-07
4.05093e-06
5.17363e-07
5.17362e-07
5.17363e-07
5.17358e-07
5.17357e-07
5.17357e-07
5.17357e-07
5.27581e-07
6.75299e-07
5.17362e-07
5.17416e-07
5.27592e-07
6.75165e-07
5.17367e-07
1.05882e-05
1.05878e-05
5.27578e-07
5.17362e-07
6.75268e-07
5.17416e-07
5.27591e-07
5.17367e-07
6.75151e-07
9.4721e-07
9.47317e-07
5.17439e-07
9.47132e-07
9.47236e-07
7.26842e-07
4.05052e-06
7.26976e-07
4.05046e-06
1.05871e-05
1.05867e-05
7.26818e-07
4.05099e-06
7.26897e-07
4.05093e-06
5.17363e-07
5.17362e-07
5.17362e-07
5.17358e-07
5.17357e-07
5.17357e-07
5.17357e-07
5.27581e-07
6.75299e-07
5.17362e-07
5.17416e-07
5.27592e-07
6.75165e-07
5.17367e-07
1.05882e-05
1.05878e-05
5.27579e-07
5.17362e-07
6.75268e-07
5.17416e-07
5.27591e-07
5.17367e-07
6.75151e-07
9.4721e-07
9.47322e-07
5.17439e-07
9.47132e-07
9.47244e-07
7.26842e-07
4.05052e-06
7.26976e-07
4.05046e-06
1.05871e-05
1.05867e-05
7.26818e-07
4.05099e-06
7.26897e-07
4.05093e-06
5.17362e-07
5.17362e-07
5.17363e-07
5.17358e-07
5.17357e-07
5.17357e-07
5.17357e-07
5.27581e-07
6.75298e-07
5.17362e-07
5.17416e-07
5.27592e-07
6.75165e-07
5.17367e-07
1.05882e-05
1.05878e-05
5.27579e-07
5.17362e-07
6.75268e-07
5.17416e-07
5.27591e-07
5.17367e-07
6.75151e-07
9.4721e-07
9.47318e-07
5.17439e-07
9.47132e-07
9.47241e-07
7.26842e-07
4.05052e-06
7.26976e-07
4.05046e-06
1.05871e-05
1.05867e-05
7.26818e-07
4.05099e-06
7.26898e-07
4.05093e-06
5.17362e-07
5.17362e-07
5.17363e-07
5.17358e-07
5.17357e-07
5.17357e-07
5.17357e-07
5.2758e-07
6.75298e-07
5.17362e-07
5.17416e-07
5.27592e-07
6.75165e-07
5.17367e-07
1.05882e-05
1.05878e-05
5.27579e-07
5.17362e-07
6.75268e-07
5.17415e-07
5.27592e-07
5.17367e-07
6.75151e-07
9.4721e-07
9.47323e-07
5.17439e-07
9.47132e-07
9.47249e-07
7.26842e-07
4.05052e-06
7.26976e-07
4.05046e-06
1.05871e-05
1.05867e-05
7.26818e-07
4.05099e-06
7.26898e-07
4.05093e-06
5.17363e-07
5.17363e-07
5.17363e-07
5.17358e-07
5.17357e-07
5.17357e-07
5.17357e-07
5.2758e-07
6.75298e-07
5.17362e-07
5.17416e-07
5.27592e-07
6.75165e-07
5.17367e-07
1.05882e-05
1.05878e-05
5.27579e-07
5.17362e-07
6.75268e-07
5.17416e-07
5.27592e-07
5.17367e-07
6.75151e-07
9.4721e-07
9.47316e-07
5.17439e-07
9.47132e-07
9.47238e-07
7.26842e-07
4.05052e-06
7.26976e-07
4.05046e-06
1.05871e-05
1.05867e-05
7.26818e-07
4.05099e-06
7.26898e-07
4.05093e-06
5.17362e-07
5.17362e-07
5.17363e-07
5.17358e-07
5.17357e-07
5.17357e-07
5.17357e-07
5.27581e-07
6.75299e-07
5.17362e-07
5.17416e-07
5.27592e-07
6.75165e-07
5.17367e-07
1.05882e-05
1.05878e-05
5.27582e-07
5.17362e-07
6.75268e-07
5.17415e-07
5.27594e-07
5.17367e-07
6.75151e-07
9.47211e-07
9.47326e-07
5.17439e-07
9.47132e-07
9.47246e-07
7.26842e-07
4.05052e-06
7.26976e-07
4.05046e-06
1.05871e-05
1.05867e-05
7.26818e-07
4.05099e-06
7.26897e-07
4.05093e-06
5.17363e-07
5.17362e-07
5.17363e-07
5.17358e-07
5.17357e-07
5.17357e-07
5.17357e-07
5.27581e-07
6.75298e-07
5.17362e-07
5.17416e-07
5.27592e-07
6.75165e-07
5.17367e-07
1.05882e-05
1.05878e-05
5.27581e-07
5.17362e-07
6.75268e-07
5.17415e-07
5.27595e-07
5.17367e-07
6.75151e-07
9.47211e-07
9.47323e-07
5.17439e-07
9.47132e-07
9.47241e-07
7.26842e-07
4.05052e-06
7.26976e-07
4.05046e-06
1.05871e-05
1.05867e-05
7.26818e-07
4.05099e-06
7.26898e-07
4.05093e-06
5.17362e-07
5.17363e-07
5.17363e-07
5.17358e-07
5.17357e-07
5.17357e-07
5.17357e-07
5.27581e-07
6.75298e-07
5.17362e-07
5.17416e-07
5.27591e-07
6.75165e-07
5.17367e-07
1.05882e-05
1.05878e-05
5.27581e-07
5.17362e-07
6.75268e-07
5.17416e-07
5.27595e-07
5.17367e-07
6.75151e-07
9.4721e-07
9.47319e-07
5.17439e-07
9.47132e-07
9.47241e-07
7.26842e-07
4.05052e-06
7.26976e-07
4.05046e-06
1.05871e-05
1.05867e-05
7.26818e-07
4.05099e-06
7.26898e-07
4.05093e-06
5.17363e-07
5.17362e-07
5.17363e-07
5.17358e-07
5.17357e-07
5.17357e-07
5.17357e-07
5.27581e-07
6.75298e-07
5.17362e-07
5.17416e-07
5.27592e-07
6.75165e-07
5.17367e-07
1.05882e-05
1.05878e-05
5.27581e-07
5.17362e-07
6.75268e-07
5.17415e-07
5.27595e-07
5.17367e-07
6.75151e-07
9.47211e-07
9.47323e-07
5.17439e-07
9.47132e-07
9.47249e-07
7.26842e-07
4.05052e-06
7.26976e-07
4.05046e-06
1.05871e-05
1.05867e-05
7.26818e-07
4.05099e-06
7.26897e-07
4.05093e-06
5.17363e-07
5.17362e-07
5.17363e-07
5.17358e-07
5.17357e-07
5.17357e-07
5.17357e-07
5.2758e-07
6.75298e-07
5.17362e-07
5.17416e-07
5.27591e-07
6.75165e-07
5.17367e-07
1.05882e-05
1.05878e-05
5.27581e-07
5.17362e-07
6.75268e-07
5.17415e-07
5.27595e-07
5.17367e-07
6.75151e-07
9.47211e-07
9.47315e-07
5.17439e-07
9.47132e-07
9.47233e-07
7.26842e-07
4.05052e-06
7.26976e-07
4.05046e-06
1.05871e-05
1.05867e-05
7.26813e-07
4.05099e-06
7.26898e-07
4.05093e-06
5.17363e-07
5.17362e-07
5.17363e-07
5.27581e-07
6.75298e-07
5.17362e-07
5.17414e-07
5.27592e-07
6.75165e-07
5.17367e-07
1.05882e-05
1.05879e-05
5.27581e-07
5.17362e-07
6.75268e-07
5.17415e-07
5.27595e-07
5.17366e-07
6.75125e-07
9.47211e-07
9.47322e-07
5.17452e-07
9.4701e-07
9.47105e-07
1.05488e-05
1.05511e-05
5.17742e-07
9.42448e-07
9.42592e-07
1.05864e-05
1.05698e-05
1.05875e-05
1.05719e-05
5.17666e-07
9.47102e-07
9.47239e-07
9.43986e-07
9.44169e-07
7.24586e-07
4.04464e-06
5.2763e-07
5.17674e-07
6.7347e-07
5.17627e-07
5.2763e-07
5.17673e-07
6.73509e-07
5.17626e-07
7.25371e-07
4.05054e-06
4.04782e-06
7.26853e-07
7.25375e-07
4.05066e-06
4.04807e-06
7.26852e-07
5.27633e-07
5.17582e-07
6.75131e-07
5.17411e-07
6.74063e-07
5.17535e-07
5.27581e-07
5.27633e-07
5.1758e-07
6.75163e-07
5.1741e-07
6.74109e-07
5.17533e-07
5.27581e-07
5.17741e-07
9.42594e-07
9.425e-07
1.055e-05
1.05872e-05
1.05708e-05
5.17664e-07
9.47231e-07
9.47092e-07
9.44164e-07
9.44161e-07
1.05863e-05
1.05707e-05
5.27628e-07
5.17674e-07
6.7353e-07
5.17626e-07
7.24583e-07
4.04498e-06
5.27632e-07
5.17674e-07
5.17626e-07
6.7355e-07
7.25312e-07
4.05107e-06
4.04833e-06
7.26843e-07
5.27631e-07
5.17582e-07
6.75202e-07
5.1741e-07
6.74131e-07
5.17533e-07
5.27581e-07
7.25335e-07
4.05121e-06
4.04848e-06
7.26843e-07
5.27634e-07
5.17582e-07
5.1741e-07
6.75215e-07
5.17533e-07
6.74191e-07
5.27581e-07
7.24583e-07
4.04471e-06
5.27633e-07
5.17673e-07
5.17626e-07
6.73488e-07
7.24589e-07
4.04494e-06
5.2763e-07
5.17579e-07
6.75154e-07
5.17409e-07
6.74128e-07
5.17534e-07
5.27584e-07
7.25379e-07
4.05071e-06
4.04813e-06
7.26855e-07
5.27632e-07
5.1758e-07
5.1741e-07
6.75142e-07
5.17532e-07
6.7409e-07
5.27585e-07
7.25377e-07
4.05094e-06
4.04835e-06
7.26854e-07
5.17742e-07
9.42675e-07
9.42466e-07
1.05494e-05
1.05883e-05
1.05719e-05
5.17666e-07
9.47337e-07
9.4711e-07
9.44334e-07
9.4403e-07
1.05871e-05
1.05705e-05
5.27631e-07
5.17673e-07
5.17626e-07
6.73526e-07
7.24596e-07
4.04497e-06
7.24565e-07
4.04505e-06
5.27635e-07
5.17581e-07
5.17408e-07
6.75147e-07
5.17532e-07
6.7409e-07
5.27584e-07
5.27632e-07
5.1758e-07
5.1741e-07
6.7518e-07
5.17532e-07
6.7413e-07
5.27585e-07
7.2534e-07
4.05097e-06
4.04839e-06
7.26841e-07
7.25311e-07
4.05106e-06
4.04847e-06
7.2684e-07
1.05508e-05
1.05514e-05
5.17659e-07
9.47185e-07
9.4729e-07
9.44119e-07
9.44242e-07
1.05872e-05
1.05716e-05
1.05877e-05
1.05721e-05
1.05849e-05
1.05866e-05
1.0586e-05
1.05877e-05
9.47035e-07
9.47178e-07
5.17436e-07
9.47151e-07
9.47294e-07
1.05863e-05
1.0585e-05
1.05874e-05
1.0586e-05
5.17445e-07
9.47164e-07
9.4728e-07
9.47024e-07
9.47135e-07
7.26898e-07
4.05041e-06
7.26877e-07
4.05068e-06
5.27573e-07
6.7521e-07
5.17373e-07
5.17412e-07
5.2759e-07
6.7517e-07
5.17363e-07
5.27579e-07
6.7525e-07
5.17373e-07
5.17412e-07
5.27592e-07
6.75212e-07
5.17363e-07
7.26885e-07
4.0505e-06
4.05031e-06
7.26913e-07
7.26904e-07
4.05064e-06
4.05041e-06
7.26902e-07
5.27588e-07
5.17409e-07
6.75173e-07
5.17361e-07
6.75199e-07
5.1736e-07
5.27583e-07
5.27592e-07
5.17409e-07
6.75211e-07
5.17361e-07
6.75238e-07
5.1736e-07
5.27583e-07
9.47196e-07
9.47258e-07
5.17436e-07
9.4731e-07
9.4727e-07
1.05849e-05
1.05865e-05
1.05873e-05
1.05859e-05
5.17445e-07
9.47298e-07
9.47223e-07
9.4715e-07
9.47109e-07
1.05862e-05
1.05847e-05
5.27571e-07
6.75273e-07
5.17373e-07
5.17412e-07
5.2759e-07
6.75238e-07
5.17363e-07
7.26871e-07
4.05098e-06
7.26841e-07
4.05124e-06
5.27577e-07
5.17373e-07
6.75336e-07
5.17412e-07
5.27592e-07
5.17363e-07
6.7527e-07
7.26775e-07
4.051e-06
4.05082e-06
7.26844e-07
5.27584e-07
5.17409e-07
6.7524e-07
5.1736e-07
6.75268e-07
5.1736e-07
5.27578e-07
7.26836e-07
4.05119e-06
4.05094e-06
7.26857e-07
5.27589e-07
5.17409e-07
5.17361e-07
6.75267e-07
5.1736e-07
6.75329e-07
5.27579e-07
7.26897e-07
4.05048e-06
7.26865e-07
4.05074e-06
5.27578e-07
5.17373e-07
6.75227e-07
5.17412e-07
5.27593e-07
5.17363e-07
6.75182e-07
7.26905e-07
4.05069e-06
7.2688e-07
4.05096e-06
5.27592e-07
5.17411e-07
6.75201e-07
5.17362e-07
6.75227e-07
5.17362e-07
5.2758e-07
7.26856e-07
4.05069e-06
4.05044e-06
7.26908e-07
5.2759e-07
5.17409e-07
5.1736e-07
6.75187e-07
5.1736e-07
6.75212e-07
5.2758e-07
7.26902e-07
4.05092e-06
4.05069e-06
7.26904e-07
9.47327e-07
9.47042e-07
5.17436e-07
9.47444e-07
9.47155e-07
1.05856e-05
1.05873e-05
1.05882e-05
1.05869e-05
5.17444e-07
9.4742e-07
9.47156e-07
9.47295e-07
9.47037e-07
1.0587e-05
1.05856e-05
5.27575e-07
5.17373e-07
6.75266e-07
5.17412e-07
5.27594e-07
5.17363e-07
6.75221e-07
7.26876e-07
4.05074e-06
7.26842e-07
4.05101e-06
7.26873e-07
4.05081e-06
7.26842e-07
4.05108e-06
5.2759e-07
5.1741e-07
5.17362e-07
6.75185e-07
5.17362e-07
6.75183e-07
5.27579e-07
5.27587e-07
5.17409e-07
5.1736e-07
6.75224e-07
5.1736e-07
6.75252e-07
5.27578e-07
7.26874e-07
4.05095e-06
4.05072e-06
7.26872e-07
7.26839e-07
4.05104e-06
4.05081e-06
7.26857e-07
1.05857e-05
1.05874e-05
1.05862e-05
1.05879e-05
5.17447e-07
9.47179e-07
9.4729e-07
9.47013e-07
9.47159e-07
1.05871e-05
1.05857e-05
1.05876e-05
1.05863e-05
1.05845e-05
1.05866e-05
1.05855e-05
1.05876e-05
9.46986e-07
9.47098e-07
5.17436e-07
9.47156e-07
9.47284e-07
1.05863e-05
1.0585e-05
1.05874e-05
1.05861e-05
5.17445e-07
9.4716e-07
9.47299e-07
9.47047e-07
9.47193e-07
7.26903e-07
4.05031e-06
7.26867e-07
4.05067e-06
5.27574e-07
6.752e-07
5.17367e-07
5.17414e-07
5.27593e-07
6.75171e-07
5.17366e-07
5.27579e-07
6.75235e-07
5.17367e-07
5.17414e-07
5.27595e-07
6.75211e-07
5.17366e-07
7.2689e-07
4.0505e-06
4.05031e-06
7.26912e-07
7.26906e-07
4.05064e-06
4.05042e-06
7.26902e-07
5.27588e-07
5.17409e-07
6.75173e-07
5.17361e-07
6.752e-07
5.17361e-07
5.27583e-07
5.27592e-07
5.17409e-07
6.75211e-07
5.17361e-07
6.75238e-07
5.17361e-07
5.27583e-07
9.47141e-07
9.47124e-07
5.17436e-07
9.47304e-07
9.47275e-07
1.05843e-05
1.05865e-05
1.05873e-05
1.05858e-05
5.17445e-07
9.47298e-07
9.47223e-07
9.47146e-07
9.4711e-07
1.05862e-05
1.05848e-05
5.27571e-07
6.75269e-07
5.17366e-07
5.17414e-07
5.27588e-07
6.75238e-07
5.17365e-07
7.26866e-07
4.05086e-06
7.26816e-07
4.05123e-06
5.27577e-07
5.17367e-07
6.75323e-07
5.17414e-07
5.27591e-07
5.17366e-07
6.75268e-07
7.26775e-07
4.051e-06
4.05081e-06
7.26844e-07
5.27584e-07
5.17409e-07
6.75243e-07
5.17361e-07
6.75269e-07
5.17361e-07
5.27578e-07
7.26828e-07
4.05119e-06
4.05097e-06
7.26857e-07
5.2759e-07
5.17409e-07
5.17361e-07
6.75267e-07
5.17361e-07
6.75331e-07
5.27579e-07
7.26912e-07
4.05038e-06
7.26866e-07
4.05073e-06
5.27579e-07
5.17365e-07
6.75209e-07
5.17414e-07
5.27592e-07
5.17364e-07
6.75182e-07
7.26909e-07
4.0506e-06
7.26869e-07
4.05096e-06
5.27591e-07
5.17413e-07
6.75201e-07
5.17362e-07
6.75228e-07
5.17364e-07
5.2758e-07
7.26912e-07
4.05069e-06
4.05046e-06
7.26904e-07
5.2759e-07
5.17409e-07
5.17361e-07
6.75187e-07
5.17361e-07
6.75212e-07
5.2758e-07
7.2691e-07
4.05092e-06
4.0507e-06
7.26904e-07
9.47295e-07
9.46978e-07
5.17436e-07
9.47448e-07
9.47155e-07
1.05852e-05
1.05872e-05
1.05882e-05
1.05869e-05
5.17445e-07
9.4742e-07
9.47156e-07
9.47297e-07
9.47054e-07
1.0587e-05
1.05857e-05
5.27576e-07
5.17366e-07
6.75248e-07
5.17414e-07
5.27591e-07
5.17365e-07
6.75221e-07
7.26871e-07
4.05063e-06
7.26849e-07
4.051e-06
7.26868e-07
4.05071e-06
7.26815e-07
4.05108e-06
5.27591e-07
5.17412e-07
5.17362e-07
6.75185e-07
5.17364e-07
6.75183e-07
5.27578e-07
5.27588e-07
5.17409e-07
5.17361e-07
6.75224e-07
5.17361e-07
6.75252e-07
5.27578e-07
7.26872e-07
4.05095e-06
4.05074e-06
7.26869e-07
7.26828e-07
4.05104e-06
4.05082e-06
7.26859e-07
1.05853e-05
1.05873e-05
1.05858e-05
1.05879e-05
5.17447e-07
9.47174e-07
9.47284e-07
9.47059e-07
9.47179e-07
1.05871e-05
1.05858e-05
1.05876e-05
1.05863e-05
1.05845e-05
1.05866e-05
1.05855e-05
1.05876e-05
9.46978e-07
9.47122e-07
5.17436e-07
9.4715e-07
9.47288e-07
1.05863e-05
1.0585e-05
1.05874e-05
1.05861e-05
5.17445e-07
9.47165e-07
9.47275e-07
9.47055e-07
9.47166e-07
7.26903e-07
4.05031e-06
7.26868e-07
4.05067e-06
5.27574e-07
6.752e-07
5.17367e-07
5.17414e-07
5.27593e-07
6.75171e-07
5.17366e-07
5.27579e-07
6.75235e-07
5.17366e-07
5.17414e-07
5.27595e-07
6.75211e-07
5.17364e-07
7.26889e-07
4.0505e-06
4.05031e-06
7.26912e-07
7.26906e-07
4.05064e-06
4.05042e-06
7.26902e-07
5.27588e-07
5.17409e-07
6.75173e-07
5.17361e-07
6.752e-07
5.17361e-07
5.27583e-07
5.27592e-07
5.17409e-07
6.75211e-07
5.17361e-07
6.75238e-07
5.1736e-07
5.27583e-07
9.47141e-07
9.47124e-07
5.17436e-07
9.47304e-07
9.47275e-07
1.05843e-05
1.05865e-05
1.05873e-05
1.05858e-05
5.17445e-07
9.47298e-07
9.47223e-07
9.47146e-07
9.4711e-07
1.05862e-05
1.05848e-05
5.27571e-07
6.75271e-07
5.17366e-07
5.17414e-07
5.27588e-07
6.75238e-07
5.17365e-07
7.26866e-07
4.05086e-06
7.26816e-07
4.05123e-06
5.27577e-07
5.17366e-07
6.75323e-07
5.17414e-07
5.27591e-07
5.17364e-07
6.75268e-07
7.26775e-07
4.051e-06
4.05081e-06
7.26844e-07
5.27584e-07
5.17409e-07
6.75239e-07
5.17361e-07
6.75268e-07
5.17361e-07
5.27578e-07
7.26827e-07
4.05119e-06
4.05097e-06
7.26859e-07
5.27589e-07
5.17409e-07
5.17361e-07
6.75267e-07
5.1736e-07
6.75331e-07
5.27579e-07
7.26911e-07
4.05038e-06
7.26862e-07
4.05073e-06
5.27579e-07
5.17366e-07
6.75209e-07
5.17414e-07
5.27592e-07
5.17364e-07
6.75182e-07
7.2691e-07
4.0506e-06
7.26871e-07
4.05096e-06
5.27592e-07
5.17412e-07
6.75201e-07
5.17362e-07
6.75228e-07
5.17364e-07
5.2758e-07
7.26902e-07
4.05069e-06
4.05046e-06
7.26904e-07
5.2759e-07
5.17409e-07
5.17361e-07
6.75187e-07
5.17361e-07
6.75212e-07
5.2758e-07
7.26909e-07
4.05092e-06
4.0507e-06
7.26903e-07
9.47295e-07
9.46977e-07
5.17436e-07
9.47448e-07
9.47155e-07
1.05852e-05
1.05872e-05
1.05882e-05
1.05869e-05
5.17444e-07
9.4742e-07
9.47156e-07
9.47297e-07
9.47054e-07
1.0587e-05
1.05857e-05
5.27576e-07
5.17366e-07
6.75247e-07
5.17414e-07
5.27591e-07
5.17365e-07
6.75221e-07
7.26875e-07
4.05063e-06
7.2687e-07
4.051e-06
7.26867e-07
4.05071e-06
7.26818e-07
4.05108e-06
5.27591e-07
5.17412e-07
5.17362e-07
6.75185e-07
5.17364e-07
6.75183e-07
5.27578e-07
5.27588e-07
5.17409e-07
5.17361e-07
6.75226e-07
5.17361e-07
6.75252e-07
5.27578e-07
7.26873e-07
4.05095e-06
4.05074e-06
7.2687e-07
7.26828e-07
4.05104e-06
4.05082e-06
7.26859e-07
1.05853e-05
1.05873e-05
1.05858e-05
1.05879e-05
5.17447e-07
9.47174e-07
9.473e-07
9.4706e-07
9.4718e-07
1.05871e-05
1.05858e-05
1.05876e-05
1.05863e-05
1.05845e-05
1.05866e-05
1.05855e-05
1.05876e-05
9.46985e-07
9.47093e-07
5.17436e-07
9.47151e-07
9.47281e-07
1.05863e-05
1.0585e-05
1.05874e-05
1.05861e-05
5.17445e-07
9.47139e-07
9.47299e-07
9.47037e-07
9.47189e-07
7.26904e-07
4.05031e-06
7.26868e-07
4.05067e-06
5.27574e-07
6.752e-07
5.17367e-07
5.17414e-07
5.27593e-07
6.75171e-07
5.17366e-07
5.27579e-07
6.75235e-07
5.17366e-07
5.17414e-07
5.27595e-07
6.75211e-07
5.17364e-07
7.26889e-07
4.0505e-06
4.05031e-06
7.26912e-07
7.26907e-07
4.05064e-06
4.05042e-06
7.26902e-07
5.27588e-07
5.17409e-07
6.75171e-07
5.17361e-07
6.75199e-07
5.17361e-07
5.27583e-07
5.27592e-07
5.17409e-07
6.75211e-07
5.17361e-07
6.75238e-07
5.1736e-07
5.27583e-07
9.47141e-07
9.47124e-07
5.17436e-07
9.47304e-07
9.47275e-07
1.05843e-05
1.05865e-05
1.05873e-05
1.05858e-05
5.17445e-07
9.47298e-07
9.47223e-07
9.47146e-07
9.4711e-07
1.05862e-05
1.05848e-05
5.27571e-07
6.75268e-07
5.17366e-07
5.17414e-07
5.27589e-07
6.75237e-07
5.17365e-07
7.26866e-07
4.05086e-06
7.26818e-07
4.05123e-06
5.27577e-07
5.17366e-07
6.75323e-07
5.17414e-07
5.27591e-07
5.17365e-07
6.75268e-07
7.26775e-07
4.051e-06
4.05081e-06
7.26844e-07
5.27584e-07
5.17409e-07
6.75242e-07
5.17361e-07
6.75269e-07
5.17361e-07
5.27578e-07
7.26828e-07
4.05119e-06
4.05097e-06
7.26857e-07
5.27589e-07
5.17409e-07
5.17361e-07
6.75267e-07
5.17361e-07
6.75331e-07
5.27579e-07
7.26911e-07
4.05038e-06
7.26861e-07
4.05073e-06
5.27579e-07
5.17366e-07
6.75209e-07
5.17414e-07
5.27592e-07
5.17365e-07
6.75183e-07
7.26909e-07
4.0506e-06
7.26868e-07
4.05096e-06
5.27591e-07
5.17412e-07
6.75201e-07
5.17362e-07
6.75228e-07
5.17364e-07
5.2758e-07
7.26901e-07
4.05069e-06
4.05046e-06
7.26904e-07
5.2759e-07
5.17409e-07
5.17361e-07
6.75187e-07
5.17361e-07
6.75212e-07
5.2758e-07
7.26909e-07
4.05092e-06
4.0507e-06
7.26904e-07
9.47295e-07
9.46977e-07
5.17436e-07
9.47448e-07
9.47155e-07
1.05852e-05
1.05872e-05
1.05882e-05
1.05869e-05
5.17444e-07
9.4742e-07
9.47156e-07
9.47297e-07
9.47054e-07
1.0587e-05
1.05857e-05
5.27576e-07
5.17367e-07
6.75249e-07
5.17414e-07
5.27591e-07
5.17365e-07
6.75222e-07
7.26874e-07
4.05063e-06
7.26868e-07
4.051e-06
7.26867e-07
4.05071e-06
7.26818e-07
4.05108e-06
5.27591e-07
5.17412e-07
5.17362e-07
6.75185e-07
5.17364e-07
6.75183e-07
5.27578e-07
5.27588e-07
5.17409e-07
5.17361e-07
6.75224e-07
5.17361e-07
6.75252e-07
5.27578e-07
7.26873e-07
4.05095e-06
4.05074e-06
7.26872e-07
7.26828e-07
4.05104e-06
4.05082e-06
7.26859e-07
1.05853e-05
1.05873e-05
1.05858e-05
1.05879e-05
5.17447e-07
9.47174e-07
9.47287e-07
9.4706e-07
9.47181e-07
1.05871e-05
1.05858e-05
1.05876e-05
1.05863e-05
1.05845e-05
1.05866e-05
1.05855e-05
1.05876e-05
9.4696e-07
9.4712e-07
5.17436e-07
9.47155e-07
9.47285e-07
1.05863e-05
1.0585e-05
1.05874e-05
1.05861e-05
5.17445e-07
9.47166e-07
9.47274e-07
9.47061e-07
9.47168e-07
7.26903e-07
4.05031e-06
7.26868e-07
4.05067e-06
5.27574e-07
6.75198e-07
5.17366e-07
5.17414e-07
5.27593e-07
6.75172e-07
5.17365e-07
5.27579e-07
6.75235e-07
5.17366e-07
5.17414e-07
5.27595e-07
6.75211e-07
5.17364e-07
7.26889e-07
4.0505e-06
4.05031e-06
7.26912e-07
7.26906e-07
4.05064e-06
4.05042e-06
7.26902e-07
5.27588e-07
5.17409e-07
6.75173e-07
5.17361e-07
6.752e-07
5.17361e-07
5.27583e-07
5.27592e-07
5.17409e-07
6.75211e-07
5.17361e-07
6.75238e-07
5.1736e-07
5.27583e-07
9.47141e-07
9.47124e-07
5.17436e-07
9.47304e-07
9.47275e-07
1.05843e-05
1.05865e-05
1.05873e-05
1.05858e-05
5.17445e-07
9.47298e-07
9.47223e-07
9.47146e-07
9.4711e-07
1.05862e-05
1.05848e-05
5.27571e-07
6.75271e-07
5.17367e-07
5.17414e-07
5.27589e-07
6.75237e-07
5.17365e-07
7.26866e-07
4.05086e-06
7.26816e-07
4.05123e-06
5.27578e-07
5.17367e-07
6.75323e-07
5.17414e-07
5.27591e-07
5.17366e-07
6.75268e-07
7.26775e-07
4.05098e-06
4.05081e-06
7.26844e-07
5.27584e-07
5.17409e-07
6.75239e-07
5.17361e-07
6.75268e-07
5.17361e-07
5.27578e-07
7.26827e-07
4.05119e-06
4.05097e-06
7.26859e-07
5.2759e-07
5.17409e-07
5.17361e-07
6.75267e-07
5.17361e-07
6.75331e-07
5.2758e-07
7.26911e-07
4.05038e-06
7.26862e-07
4.05073e-06
5.27579e-07
5.17367e-07
6.75209e-07
5.17414e-07
5.27592e-07
5.17365e-07
6.75182e-07
7.26909e-07
4.0506e-06
7.26869e-07
4.05096e-06
5.27591e-07
5.17412e-07
6.75201e-07
5.17362e-07
6.75228e-07
5.17364e-07
5.2758e-07
7.26917e-07
4.05069e-06
4.05046e-06
7.26906e-07
5.27589e-07
5.17409e-07
5.17361e-07
6.75187e-07
5.17361e-07
6.75212e-07
5.2758e-07
7.26909e-07
4.05092e-06
4.0507e-06
7.26904e-07
9.47295e-07
9.46977e-07
5.17436e-07
9.47448e-07
9.47155e-07
1.05852e-05
1.05872e-05
1.05882e-05
1.05869e-05
5.17445e-07
9.4742e-07
9.47156e-07
9.47297e-07
9.47054e-07
1.0587e-05
1.05857e-05
5.27576e-07
5.17366e-07
6.75248e-07
5.17414e-07
5.27591e-07
5.17364e-07
6.75221e-07
7.26872e-07
4.05063e-06
7.26851e-07
4.051e-06
7.26867e-07
4.05071e-06
7.26818e-07
4.05108e-06
5.27591e-07
5.17412e-07
5.17362e-07
6.75185e-07
5.17364e-07
6.75183e-07
5.27578e-07
5.27588e-07
5.17409e-07
5.17361e-07
6.75226e-07
5.17361e-07
6.75252e-07
5.27578e-07
7.26872e-07
4.05095e-06
4.05074e-06
7.26872e-07
7.26828e-07
4.05104e-06
4.05082e-06
7.26859e-07
1.05853e-05
1.05873e-05
1.05858e-05
1.05879e-05
5.17447e-07
9.47174e-07
9.47295e-07
9.4706e-07
9.47185e-07
1.05871e-05
1.05858e-05
1.05876e-05
1.05863e-05
1.05845e-05
1.05866e-05
1.05855e-05
1.05876e-05
9.46988e-07
9.47092e-07
5.17436e-07
9.47153e-07
9.47282e-07
1.05863e-05
1.0585e-05
1.05874e-05
1.05861e-05
5.17445e-07
9.4714e-07
9.47292e-07
9.47034e-07
9.4719e-07
7.26903e-07
4.05031e-06
7.26867e-07
4.05067e-06
5.27574e-07
6.752e-07
5.17366e-07
5.17414e-07
5.27593e-07
6.75171e-07
5.17365e-07
5.2758e-07
6.75235e-07
5.17366e-07
5.17414e-07
5.27595e-07
6.75211e-07
5.17364e-07
7.26889e-07
4.0505e-06
4.05031e-06
7.26912e-07
7.26906e-07
4.05063e-06
4.05042e-06
7.26902e-07
5.27588e-07
5.17409e-07
6.75171e-07
5.17361e-07
6.75199e-07
5.17361e-07
5.27583e-07
5.27592e-07
5.17409e-07
6.75211e-07
5.17361e-07
6.75237e-07
5.1736e-07
5.27583e-07
9.47141e-07
9.47124e-07
5.17436e-07
9.47304e-07
9.47275e-07
1.05843e-05
1.05865e-05
1.05872e-05
1.05858e-05
5.17445e-07
9.47333e-07
9.47223e-07
9.47142e-07
9.4711e-07
1.05862e-05
1.05848e-05
5.27571e-07
6.75291e-07
5.17367e-07
5.17414e-07
5.27588e-07
6.75239e-07
5.17366e-07
7.26866e-07
4.05086e-06
7.26818e-07
4.05123e-06
5.27577e-07
5.17366e-07
6.75323e-07
5.17414e-07
5.27591e-07
5.17365e-07
6.75268e-07
7.26775e-07
4.05098e-06
4.05079e-06
7.26844e-07
5.27584e-07