/*--------------------------------*- C++ -*----------------------------------*\
| =========                 |                                                 |
| \\      /  F ield         | OpenFOAM: The Open Source CFD Toolbox           |
|  \\    /   O peration     | Version:  2206                                  |
|   \\  /    A nd           | Website:  www.openfoam.com                      |
|    \\/     M anipulation  |                                                 |
\*---------------------------------------------------------------------------*/
FoamFile
{
    version     2.0;
    format      ascii;
    arch        "LSB;label=32;scalar=64";
    class       surfaceScalarField;
    location    "33.5";
    object      phi;
}
// * * * * * * * * * * * * * * * * * * * * * * * * * * * * * * * * * * * * * //

dimensions      [0 3 -1 0 0 0 0];

oriented        oriented;

internalField   nonuniform List<scalar> 
82026
(
1.67459e-09
1.81313e-09
-0.00109124
-1.76951e-09
-1.77652e-09
0.00109124
-0.00109089
-1.21281e-06
-1.84159e-09
3.24659e-09
0.00109089
-2.58666e-07
1.21573e-06
2.57373e-07
9.01269e-07
-2.62604e-07
-9.00774e-07
2.59102e-07
-0.00109054
-1.20739e-06
-1.89112e-09
3.24295e-09
0.00109054
-2.58656e-07
1.21028e-06
2.57388e-07
9.01112e-07
-2.65252e-07
-9.00637e-07
2.61816e-07
-0.00026794
1.2412e-06
1.20752e-06
-2.34558e-07
-2.3986e-07
0.000265966
1.73046e-09
1.88502e-09
-0.00109124
-1.79828e-09
-1.78758e-09
0.00109124
-0.00109089
-1.21279e-06
-1.91178e-09
3.2293e-09
0.00109089
-2.58648e-07
1.21574e-06
2.57382e-07
9.01277e-07
-2.62565e-07
-9.00754e-07
2.59133e-07
-0.00109054
-1.20738e-06
-1.95981e-09
3.22631e-09
0.00109054
-2.58639e-07
1.21029e-06
2.57396e-07
9.01119e-07
-2.6522e-07
-9.00621e-07
2.6184e-07
-0.00026794
1.24118e-06
1.20751e-06
-2.34541e-07
-2.39842e-07
0.000265966
1.76472e-09
1.93392e-09
-0.00109124
-1.81212e-09
-1.7922e-09
0.00109124
-0.00109089
-1.21278e-06
-1.96079e-09
3.21731e-09
0.00109089
-2.58635e-07
1.21575e-06
2.57394e-07
9.01297e-07
-2.62529e-07
-9.00739e-07
2.59172e-07
-0.00109054
-1.20737e-06
-2.00919e-09
3.20481e-09
0.00109054
-2.58625e-07
1.2103e-06
2.57412e-07
9.01132e-07
-2.65182e-07
-9.00614e-07
2.61883e-07
-0.00026794
1.24117e-06
1.20749e-06
-2.34521e-07
-2.39823e-07
0.000265966
1.85882e-09
2.01414e-09
-0.00109124
-1.85308e-09
-1.82618e-09
0.00109123
-0.00109088
-1.21276e-06
-2.01195e-09
3.19363e-09
0.00109088
-2.58628e-07
1.21577e-06
2.57411e-07
9.01332e-07
-2.62502e-07
-9.00714e-07
2.59211e-07
-0.00109054
-1.20735e-06
-2.06879e-09
3.21507e-09
0.00109054
-2.58613e-07
1.21031e-06
2.57425e-07
9.01179e-07
-2.65147e-07
-9.00576e-07
2.61928e-07
-0.00026794
1.24114e-06
1.20749e-06
-2.34504e-07
-2.39787e-07
0.000265966
2.13495e-09
2.26625e-09
-0.00109123
-1.95963e-09
-1.97222e-09
0.00109123
-0.00109088
-1.21272e-06
-2.25468e-09
3.05224e-09
0.00109088
-2.58575e-07
1.21583e-06
2.57486e-07
9.0141e-07
-2.62456e-07
-9.00666e-07
2.59294e-07
-0.00109054
-1.20732e-06
-2.29447e-09
3.15486e-09
0.00109054
-2.58588e-07
1.21036e-06
2.5747e-07
9.01284e-07
-2.65074e-07
-9.00489e-07
2.62017e-07
-0.00026794
1.24109e-06
1.20745e-06
-2.34475e-07
-2.39742e-07
0.000265965
2.19124e-09
2.29826e-09
-0.00109123
-1.98331e-09
-2.02584e-09
0.00109123
-0.00109088
-1.21272e-06
-2.38983e-09
2.92271e-09
0.00109088
-2.5856e-07
1.21587e-06
2.5754e-07
9.01451e-07
-2.62454e-07
-9.0068e-07
2.59344e-07
-0.00109054
-1.20728e-06
-2.48694e-09
2.92832e-09
0.00109054
-2.58555e-07
1.21047e-06
2.5756e-07
9.01324e-07
-2.65094e-07
-9.00517e-07
2.62061e-07
-0.000267939
1.24109e-06
1.20741e-06
-2.34447e-07
-2.39749e-07
0.000265965
8.53709e-10
7.06906e-10
-0.00109123
-1.26328e-09
-1.46391e-09
0.00109123
-0.00109088
-1.21296e-06
-5.97574e-10
3.4842e-09
0.00109088
-2.58865e-07
1.21555e-06
2.57178e-07
9.00841e-07
-2.63034e-07
-9.01228e-07
2.5868e-07
-0.00109054
-1.20773e-06
-3.09101e-10
3.85299e-09
0.00109054
-2.59048e-07
1.20997e-06
2.57048e-07
9.00593e-07
-2.65843e-07
-9.01208e-07
2.61266e-07
-0.000267939
1.24159e-06
1.20789e-06
-2.34981e-07
-2.40307e-07
0.000265965
1.07967e-09
1.51435e-09
-0.00109124
-1.57456e-09
-1.35401e-09
0.00109124
-0.00109089
-1.213e-06
-1.67846e-09
3.60302e-09
0.00109089
-2.58885e-07
1.21566e-06
2.57303e-07
9.01258e-07
-2.62884e-07
-9.00955e-07
2.59028e-07
-0.00109054
-1.20743e-06
-2.04234e-09
3.18946e-09
0.00109054
-2.58695e-07
1.21035e-06
2.57474e-07
9.01153e-07
-2.65418e-07
-9.00756e-07
2.6183e-07
-0.00026794
1.24118e-06
1.20754e-06
-2.34616e-07
-2.39886e-07
0.000265966
1.94282e-09
2.08646e-09
-0.00109124
-1.91666e-09
-1.91977e-09
0.00109124
-0.00109089
-1.21276e-06
-2.09783e-09
3.07528e-09
0.00109089
-2.5862e-07
1.21584e-06
2.57495e-07
9.01364e-07
-2.62596e-07
-9.0078e-07
2.59224e-07
-0.00109054
-1.20737e-06
-2.08762e-09
3.14088e-09
0.00109054
-2.58639e-07
1.21036e-06
2.5748e-07
9.01191e-07
-2.6526e-07
-9.00653e-07
2.61913e-07
-0.000267941
1.24117e-06
1.2075e-06
-2.34532e-07
-2.39828e-07
0.000265966
1.7775e-09
1.88524e-09
-0.00109124
-1.80734e-09
-1.84125e-09
0.00109124
-0.00109089
-1.21281e-06
-1.9e-09
3.17718e-09
0.00109089
-2.58683e-07
1.21579e-06
2.57435e-07
9.01321e-07
-2.62652e-07
-9.0083e-07
2.5917e-07
-0.00109054
-1.20741e-06
-1.91128e-09
3.22138e-09
0.00109054
-2.58684e-07
1.21033e-06
2.5744e-07
9.01148e-07
-2.65309e-07
-9.00705e-07
2.61869e-07
-0.00026794
1.24122e-06
1.20754e-06
-2.34578e-07
-2.39883e-07
0.000265966
1.72211e-09
1.84697e-09
-0.00109124
-1.78298e-09
-1.80177e-09
0.00109124
-0.00109089
-1.21283e-06
-1.86449e-09
3.21485e-09
0.00109089
-2.58697e-07
1.21578e-06
2.57423e-07
9.01312e-07
-2.6266e-07
-9.00839e-07
2.59164e-07
-0.00109054
-1.20742e-06
-1.89798e-09
3.23656e-09
0.00109054
-2.58691e-07
1.21032e-06
2.57435e-07
9.01145e-07
-2.65313e-07
-9.00709e-07
2.61866e-07
-0.00026794
1.24123e-06
1.20755e-06
-2.34584e-07
-2.39887e-07
0.000265966
1.71387e-09
1.84044e-09
-0.00109124
-1.77751e-09
-1.79497e-09
0.00109124
-0.00109089
-1.21283e-06
-1.86319e-09
3.22278e-09
0.00109089
-2.58699e-07
1.21577e-06
2.5742e-07
9.01311e-07
-2.62658e-07
-9.00838e-07
2.59161e-07
-0.00109054
-1.20742e-06
-1.89498e-09
3.24335e-09
0.00109054
-2.58691e-07
1.21032e-06
2.57432e-07
9.01142e-07
-2.65312e-07
-9.00708e-07
2.61862e-07
-0.00026794
1.24123e-06
1.20755e-06
-2.34583e-07
-2.39886e-07
0.000265966
1.70644e-09
1.83305e-09
-0.00109124
-1.77217e-09
-1.78953e-09
0.00109124
-0.00109089
-1.21283e-06
-1.86158e-09
3.22496e-09
0.00109089
-2.58699e-07
1.21577e-06
2.57419e-07
9.01311e-07
-2.62659e-07
-9.00837e-07
2.5916e-07
-0.00109054
-1.20742e-06
-1.88868e-09
3.24962e-09
0.00109054
-2.58696e-07
1.21032e-06
2.57432e-07
9.01142e-07
-2.65317e-07
-9.00712e-07
2.61864e-07
-0.00026794
1.24123e-06
1.20755e-06
-2.34586e-07
-2.39889e-07
0.000265966
1.7031e-09
1.83419e-09
-0.00109124
-1.77233e-09
-1.78576e-09
0.00109124
-0.00109089
-1.21283e-06
-1.86048e-09
3.22948e-09
0.00109089
-2.58701e-07
1.21577e-06
2.57418e-07
9.01311e-07
-2.62659e-07
-9.00837e-07
2.5916e-07
-0.00109054
-1.20742e-06
-1.89747e-09
3.24691e-09
0.00109054
-2.58692e-07
1.21032e-06
2.57432e-07
9.01143e-07
-2.65312e-07
-9.00709e-07
2.61863e-07
-0.00026794
1.24123e-06
1.20755e-06
-2.34585e-07
-2.39887e-07
0.000265966
1.70734e-09
1.83974e-09
-0.00109124
-1.77709e-09
-1.78919e-09
0.00109124
-0.00109089
-1.21283e-06
-1.85976e-09
3.22728e-09
0.00109089
-2.58699e-07
1.21577e-06
2.57418e-07
9.01308e-07
-2.62656e-07
-9.00836e-07
2.59156e-07
-0.00109054
-1.20742e-06
-1.8992e-09
3.24511e-09
0.00109054
-2.58691e-07
1.21032e-06
2.57432e-07
9.01141e-07
-2.6531e-07
-9.00706e-07
2.61861e-07
-0.00026794
1.24123e-06
1.20755e-06
-2.34585e-07
-2.39886e-07
0.000265966
1.71024e-09
1.84226e-09
-0.00109124
-1.77765e-09
-1.79141e-09
0.00109124
-0.00109089
-1.21282e-06
-1.86676e-09
3.2236e-09
0.00109089
-2.58693e-07
1.21577e-06
2.57416e-07
9.01304e-07
-2.62646e-07
-9.00828e-07
2.5915e-07
-0.00109054
-1.20741e-06
-1.89856e-09
3.24436e-09
0.00109054
-2.58689e-07
1.21032e-06
2.5743e-07
9.01136e-07
-2.65305e-07
-9.00702e-07
2.61855e-07
-0.00026794
1.24122e-06
1.20755e-06
-2.3458e-07
-2.39882e-07
0.000265966
1.71076e-09
1.84538e-09
-0.00109124
-1.78002e-09
-1.79038e-09
0.00109124
-0.00109089
-1.21282e-06
-1.86693e-09
3.22635e-09
0.00109089
-2.58682e-07
1.21576e-06
2.57402e-07
9.0129e-07
-2.62626e-07
-9.00813e-07
2.59131e-07
-0.00109054
-1.20741e-06
-1.90434e-09
3.23886e-09
0.00109054
-2.58681e-07
1.21032e-06
2.57425e-07
9.01123e-07
-2.6529e-07
-9.00686e-07
2.61843e-07
-0.00026794
1.24121e-06
1.20754e-06
-2.34572e-07
-2.39874e-07
0.000265966
1.84174e-09
-0.00109124
-1.78032e-09
-0.00109054
-1.20739e-06
-1.8906e-09
-2.58657e-07
1.2103e-06
2.574e-07
-2.6526e-07
2.61812e-07
-1.24942e-06
-1.21306e-06
0.000267956
-0.000265972
2.34867e-07
2.42715e-07
0.0010901
-1.71605e-09
3.41028e-09
-1.24656e-06
2.62731e-07
-2.6413e-07
-9.00758e-07
2.58993e-07
-2.62589e-07
9.01162e-07
1.2549e-06
0.00109054
-1.58299e-09
3.41364e-09
-1.25204e-06
2.65541e-07
-2.66921e-07
-9.06415e-07
2.61775e-07
-2.65468e-07
9.06755e-07
-1.21573e-06
0.000267986
-0.000265993
2.37681e-07
2.3997e-07
0.00109115
-1.82952e-09
3.23572e-09
-1.21019e-06
2.60181e-07
-2.61475e-07
-9.03523e-07
2.61865e-07
-2.65409e-07
9.04043e-07
1.24947e-06
0.00109021
-1.62072e-09
-0.00109021
3.44482e-09
-1.24664e-06
2.6551e-07
-2.66923e-07
-9.03513e-07
2.61774e-07
-2.6537e-07
9.03886e-07
-1.83888e-09
3.23283e-09
-1.2128e-06
2.57375e-07
-2.58665e-07
-9.00787e-07
2.59094e-07
9.01258e-07
-2.62617e-07
1.24405e-06
0.00109001
-1.64856e-09
-0.00109001
3.4097e-09
-1.2412e-06
2.59982e-07
-2.61327e-07
-9.00805e-07
2.58984e-07
-2.62601e-07
9.01171e-07
-1.21028e-06
0.000267935
-0.000265953
2.35077e-07
2.42492e-07
-1.87501e-09
-0.00109054
3.24782e-09
-1.2074e-06
2.57386e-07
-2.58659e-07
-9.006e-07
2.61786e-07
9.01155e-07
-2.65286e-07
1.21038e-06
0.00109106
-1.68105e-09
-0.00109106
3.23802e-09
-1.20753e-06
2.57427e-07
-2.58733e-07
-9.00906e-07
2.61847e-07
-2.6541e-07
9.01378e-07
-0.000265966
2.37396e-07
2.42739e-07
1.24656e-06
1.2102e-06
-2.32033e-07
-2.39821e-07
0.000265971
-1.24943e-06
-1.21306e-06
0.000267956
-0.000265971
2.34879e-07
2.42731e-07
3.41259e-09
0.0010901
-2.6413e-07
1.24942e-06
2.62729e-07
9.01167e-07
-2.62584e-07
-9.00747e-07
2.58996e-07
-1.25204e-06
-1.56984e-09
3.41495e-09
0.00109054
-2.66921e-07
1.2549e-06
2.65539e-07
9.06771e-07
-2.65459e-07
-9.06399e-07
2.61783e-07
0.0010901
-1.76703e-09
-0.0010901
3.38507e-09
-1.24655e-06
2.62742e-07
-2.6411e-07
-9.00717e-07
2.59028e-07
-2.62541e-07
9.01183e-07
1.25491e-06
0.00109054
-1.63108e-09
-0.00109054
3.38641e-09
-1.25202e-06
2.65548e-07
-2.66903e-07
-9.0637e-07
2.6181e-07
-2.65422e-07
9.06784e-07
-2.34772e-07
-2.37088e-07
0.000265993
-1.21574e-06
0.000267985
-0.000265993
2.37694e-07
2.39986e-07
3.25461e-09
0.00109115
-2.61478e-07
1.21305e-06
2.60176e-07
9.04059e-07
-2.65403e-07
-9.03502e-07
2.61873e-07
-1.24664e-06
-1.63897e-09
3.43765e-09
0.00109021
-2.66919e-07
1.24947e-06
2.65513e-07
9.0389e-07
-2.65358e-07
-9.03504e-07
2.61784e-07
0.00109115
-1.90065e-09
-0.00109115
3.22875e-09
-1.21018e-06
2.60187e-07
-2.6146e-07
-9.03475e-07
2.61905e-07
-2.65357e-07
9.04074e-07
1.24948e-06
0.00109021
-1.681e-09
-0.00109021
3.40252e-09
-1.24662e-06
2.65526e-07
-2.66898e-07
-9.03496e-07
2.61801e-07
-2.6533e-07
9.0389e-07
-1.67249e-09
3.39377e-09
0.00109001
-2.61323e-07
1.24406e-06
2.59986e-07
9.0118e-07
-2.62589e-07
2.58993e-07
-9.00792e-07
-1.91299e-09
-0.00109089
3.23442e-09
-1.21279e-06
2.57382e-07
-2.5865e-07
-9.00753e-07
2.5913e-07
9.01278e-07
-2.62569e-07
1.24406e-06
0.00109001
-1.71744e-09
-0.00109001
3.36752e-09
-1.24119e-06
2.59996e-07
-2.61304e-07
-9.00777e-07
2.59011e-07
-2.6256e-07
9.01186e-07
-2.32209e-07
-2.39629e-07
0.000265953
-1.21029e-06
0.000267935
-0.000265953
2.35091e-07
2.4251e-07
-1.70438e-09
3.22727e-09
0.00109106
-2.58729e-07
1.21038e-06
2.57431e-07
9.01389e-07
-2.65397e-07
2.61857e-07
-9.00894e-07
-1.96131e-09
-0.00109054
3.22638e-09
-1.20738e-06
2.57397e-07
-2.5864e-07
-9.00569e-07
2.61815e-07
9.01173e-07
-2.65243e-07
1.21038e-06
0.00109106
-1.76165e-09
-0.00109106
3.2156e-09
-1.20751e-06
2.5744e-07
-2.58712e-07
-9.00878e-07
2.61875e-07
-2.65368e-07
9.01394e-07
-0.000265966
2.37411e-07
2.42755e-07
1.24655e-06
1.21018e-06
-2.32015e-07
-2.398e-07
0.000265971
-1.24944e-06
-1.21307e-06
0.000267956
-0.000265971
2.34895e-07
2.4275e-07
3.39004e-09
0.0010901
-2.64108e-07
1.24943e-06
2.62742e-07
9.01173e-07
-2.62545e-07
-9.00728e-07
2.59023e-07
-1.25202e-06
-1.62852e-09
3.3846e-09
0.00109054
-2.66902e-07
1.25491e-06
2.65549e-07
9.06783e-07
-2.6542e-07
-9.06372e-07
2.6181e-07
0.0010901
-1.81545e-09
-0.0010901
3.36518e-09
-1.24654e-06
2.62757e-07
-2.64098e-07
-9.00712e-07
2.59061e-07
-2.62517e-07
9.01194e-07
1.25492e-06
0.00109054
-1.68724e-09
-0.00109054
3.35211e-09
-1.252e-06
2.65568e-07
-2.66886e-07
-9.06366e-07
2.61846e-07
-2.65393e-07
9.06794e-07
-2.34754e-07
-2.37065e-07
0.000265993
-1.21575e-06
0.000267985
-0.000265992
2.37711e-07
2.40012e-07
3.23752e-09
0.00109115
-2.6146e-07
1.21306e-06
2.60186e-07
9.04073e-07
-2.65359e-07
-9.03472e-07
2.61904e-07
-1.24662e-06
-1.69152e-09
3.41001e-09
0.00109021
-2.66898e-07
1.24948e-06
2.65524e-07
9.0389e-07
-2.65328e-07
-9.03496e-07
2.61805e-07
0.00109115
-1.95412e-09
-0.00109115
3.21001e-09
-1.21017e-06
2.60201e-07
-2.61448e-07
-9.0347e-07
2.61942e-07
-2.65328e-07
9.04085e-07
1.2495e-06
0.00109021
-1.72184e-09
-0.00109021
3.36714e-09
-1.2466e-06
2.65544e-07
-2.6688e-07
-9.03486e-07
2.61836e-07
-2.65295e-07
9.03899e-07
-1.7261e-09
3.37009e-09
0.00109001
-2.61304e-07
1.24406e-06
2.59995e-07
9.01183e-07
-2.62559e-07
2.59014e-07
-9.00779e-07
-1.97268e-09
-0.00109089
3.20556e-09
-1.21278e-06
2.57395e-07
-2.58637e-07
-9.00737e-07
2.59171e-07
9.01298e-07
-2.62534e-07
1.24408e-06
0.00109001
-1.7711e-09
-0.00109001
3.33642e-09
-1.24117e-06
2.60013e-07
-2.61287e-07
-9.00768e-07
2.59055e-07
-2.62522e-07
9.01197e-07
-2.32192e-07
-2.39609e-07
0.000265953
-1.2103e-06
0.000267935
-0.000265953
2.35107e-07
2.42532e-07
-1.76668e-09
3.21463e-09
0.00109106
-2.58711e-07
1.21038e-06
2.57439e-07
9.01391e-07
-2.65367e-07
2.61877e-07
-9.0088e-07
-2.01172e-09
-0.00109054
3.19489e-09
-1.20736e-06
2.57414e-07
-2.58622e-07
-9.0056e-07
2.61858e-07
9.01185e-07
-2.65205e-07
1.2104e-06
0.00109106
-1.80522e-09
-0.00109106
3.1834e-09
-1.20749e-06
2.57457e-07
-2.58695e-07
-9.00869e-07
2.61914e-07
-2.65332e-07
9.01404e-07
-0.000265966
2.37432e-07
2.42774e-07
1.24653e-06
1.21017e-06
-2.31999e-07
-2.3978e-07
0.000265971
-1.24946e-06
-1.21309e-06
0.000267956
-0.000265971
2.34917e-07
2.42774e-07
3.36289e-09
0.0010901
-2.64092e-07
1.24944e-06
2.62757e-07
9.01183e-07
-2.62513e-07
-9.00721e-07
2.59061e-07
-1.252e-06
-1.66763e-09
3.35606e-09
0.00109054
-2.66883e-07
1.25492e-06
2.65567e-07
9.06791e-07
-2.65385e-07
-9.06366e-07
2.6185e-07
0.0010901
-1.91292e-09
-0.0010901
3.30003e-09
-1.24651e-06
2.62776e-07
-2.6408e-07
-9.00696e-07
2.59099e-07
-2.62486e-07
9.01226e-07
1.25495e-06
0.00109054
-1.77669e-09
-0.00109054
3.30479e-09
-1.25199e-06
2.65588e-07
-2.66869e-07
-9.06356e-07
2.6188e-07
-2.65365e-07
9.06815e-07
-2.34738e-07
-2.37044e-07
0.000265992
-1.21576e-06
0.000267985
-0.000265992
2.37729e-07
2.40036e-07
3.21784e-09
0.00109115
-2.61445e-07
1.21307e-06
2.602e-07
9.04083e-07
-2.65322e-07
-9.03466e-07
2.61946e-07
-1.2466e-06
-1.71444e-09
3.37902e-09
0.00109021
-2.6688e-07
1.2495e-06
2.65545e-07
9.03896e-07
-2.65301e-07
-9.03494e-07
2.61834e-07
0.00109115
-2.06813e-09
-0.00109115
3.17874e-09
-1.21015e-06
2.60218e-07
-2.61434e-07
-9.03453e-07
2.61984e-07
-2.65291e-07
9.04113e-07
1.24953e-06
0.00109021
-1.82009e-09
-0.00109021
3.29426e-09
-1.24658e-06
2.65571e-07
-2.6686e-07
-9.03449e-07
2.61885e-07
-2.65262e-07
9.03954e-07
-1.77502e-09
3.33571e-09
0.00109001
-2.61287e-07
1.24408e-06
2.60015e-07
9.01197e-07
-2.6252e-07
2.59058e-07
-9.0077e-07
-2.07686e-09
-0.00109088
3.17497e-09
-1.21277e-06
2.57409e-07
-2.58624e-07
-9.00716e-07
2.59214e-07
9.01333e-07
-2.62499e-07
1.24411e-06
0.00109
-1.832e-09
-0.00109001
3.26879e-09
-1.24114e-06
2.60045e-07
-2.61263e-07
-9.00748e-07
2.5909e-07
-2.62497e-07
9.01229e-07
-2.3218e-07
-2.39587e-07
0.000265953
-1.21032e-06
0.000267935
-0.000265953
2.35143e-07
2.42566e-07
-1.812e-09
3.1857e-09
0.00109106
-2.58695e-07
1.2104e-06
2.57458e-07
9.01404e-07
-2.65333e-07
2.61916e-07
-9.00873e-07
-2.11224e-09
-0.00109054
3.1627e-09
-1.20734e-06
2.57436e-07
-2.58607e-07
-9.00531e-07
2.61903e-07
9.01229e-07
-2.65172e-07
1.21042e-06
0.00109106
-1.93668e-09
-0.00109106
3.15055e-09
-1.20748e-06
2.57475e-07
-2.58682e-07
-9.00822e-07
2.61968e-07
-2.65292e-07
9.01469e-07
-0.000265966
2.37457e-07
2.42816e-07
1.24651e-06
1.21015e-06
-2.31977e-07
-2.39759e-07
0.000265971
-1.24949e-06
-1.21312e-06
0.000267956
-0.000265971
2.34962e-07
2.42815e-07
3.31127e-09
0.0010901
-2.64078e-07
1.24947e-06
2.62781e-07
9.01239e-07
-2.62482e-07
-9.00684e-07
2.59107e-07
-1.25198e-06
-1.74491e-09
3.32842e-09
0.00109054
-2.66868e-07
1.25495e-06
2.65591e-07
9.0683e-07
-2.65361e-07
-9.06344e-07
2.61889e-07
0.0010901
-2.08083e-09
-0.0010901
3.26398e-09
-1.2465e-06
2.62812e-07
-2.64063e-07
-9.0064e-07
2.59156e-07
-2.62452e-07
9.01293e-07
1.25497e-06
0.00109054
-1.9533e-09
-0.00109054
3.27072e-09
-1.25197e-06
2.65621e-07
-2.66855e-07
-9.06299e-07
2.61943e-07
-2.65329e-07
9.0689e-07
-2.34721e-07
-2.3702e-07
0.000265992
-1.2158e-06
0.000267985
-0.000265992
2.37777e-07
2.40069e-07
3.1971e-09
0.00109115
-2.61433e-07
1.2131e-06
2.60222e-07
9.04124e-07
-2.65294e-07
-9.0344e-07
2.61988e-07
-1.24658e-06
-1.773e-09
3.34915e-09
0.00109021
-2.66863e-07
1.24951e-06
2.65564e-07
9.03953e-07
-2.6526e-07
-9.03445e-07
2.61885e-07
0.00109115
-2.25102e-09
-0.00109115
3.13111e-09
-1.21013e-06
2.60259e-07
-2.61412e-07
-9.03401e-07
2.62043e-07
-2.65258e-07
9.04181e-07
1.24958e-06
0.00109021
-2.01714e-09
-0.00109021
3.18511e-09
-1.24653e-06
2.65633e-07
-2.66815e-07
-9.0341e-07
2.61947e-07
-2.65224e-07
9.04005e-07
-1.78001e-09
3.31286e-09
0.00109
-2.61265e-07
1.2441e-06
2.60039e-07
9.01224e-07
-2.625e-07
2.59086e-07
-9.0075e-07
-2.26857e-09
-0.00109088
3.13236e-09
-1.21275e-06
2.57452e-07
-2.58607e-07
-9.0067e-07
2.59266e-07
9.01394e-07
-2.62473e-07
1.24416e-06
0.00109
-2.05885e-09
-0.00109
3.15192e-09
-1.2411e-06
2.60102e-07
-2.61221e-07
-9.00696e-07
2.59162e-07
-2.62451e-07
9.01296e-07
-2.32148e-07
-2.39559e-07
0.000265953
-1.21035e-06
0.000267934
-0.000265952
2.35172e-07
2.42629e-07
-1.9039e-09
3.20379e-09
0.00109106
-2.58689e-07
1.2104e-06
2.57464e-07
9.01471e-07
-2.65288e-07
2.61971e-07
-9.00815e-07
-2.44918e-09
-0.00109054
3.10362e-09
-1.20733e-06
2.57474e-07
-2.58584e-07
-9.00428e-07
2.6201e-07
9.01344e-07
-2.65088e-07
1.21045e-06
0.00109106
-2.24947e-09
-0.00109106
3.10325e-09
-1.20746e-06
2.57517e-07
-2.58656e-07
-9.00744e-07
2.62063e-07
-2.65221e-07
9.01559e-07
-0.000265965
2.37492e-07
2.42871e-07
1.24648e-06
1.21011e-06
-2.31939e-07
-2.39723e-07
0.000265971
-1.24946e-06
-1.21311e-06
0.000267955
-0.00026597
2.34979e-07
2.42809e-07
3.21486e-09
0.0010901
-2.64038e-07
1.24952e-06
2.6284e-07
9.01304e-07
-2.6243e-07
-9.00634e-07
2.59187e-07
-1.25195e-06
-2.03846e-09
3.22879e-09
0.00109053
-2.66832e-07
1.25499e-06
2.65646e-07
9.06912e-07
-2.653e-07
-9.06279e-07
2.61979e-07
0.00109009
-1.94817e-09
-0.0010901
3.38469e-09
-1.24653e-06
2.62796e-07
-2.64089e-07
-9.00657e-07
2.59169e-07
-2.62467e-07
9.01289e-07
1.25494e-06
0.00109053
-1.83235e-09
-0.00109053
3.38753e-09
-1.25201e-06
2.65603e-07
-2.66883e-07
-9.06309e-07
2.6196e-07
-2.65341e-07
9.06892e-07
-2.34675e-07
-2.36992e-07
0.000265992
-1.2158e-06
0.000267984
-0.000265991
2.378e-07
2.40063e-07
3.05764e-09
0.00109115
-2.61387e-07
1.21315e-06
2.60287e-07
9.04195e-07
-2.65241e-07
-9.03387e-07
2.62069e-07
-1.24653e-06
-1.92549e-09
3.26324e-09
0.00109021
-2.66817e-07
1.24958e-06
2.65628e-07
9.04008e-07
-2.65228e-07
-9.03418e-07
2.61942e-07
0.00109115
-2.07068e-09
-0.00109115
3.16354e-09
-1.21014e-06
2.60267e-07
-2.61421e-07
-9.0344e-07
2.6204e-07
-2.65289e-07
9.04155e-07
1.24956e-06
0.00109021
-2.057e-09
-0.00109021
3.26491e-09
-1.24659e-06
2.65618e-07
-2.6686e-07
-9.03422e-07
2.61976e-07
-2.65235e-07
9.04035e-07
-1.94799e-09
3.223e-09
0.00109
-2.61224e-07
1.24417e-06
2.60099e-07
9.01298e-07
-2.62457e-07
2.59154e-07
-9.00706e-07
-2.13299e-09
-0.00109088
3.13659e-09
-1.21275e-06
2.57472e-07
-2.58612e-07
-9.00714e-07
2.59269e-07
9.01373e-07
-2.62507e-07
1.24415e-06
0.00109
-2.09335e-09
-0.00109
3.20747e-09
-1.24114e-06
2.60097e-07
-2.61262e-07
-9.00719e-07
2.59186e-07
-2.62469e-07
9.01317e-07
-2.32126e-07
-2.39508e-07
0.000265952
-1.21037e-06
0.000267934
-0.000265952
2.35202e-07
2.42611e-07
-2.11988e-09
3.15238e-09
0.00109106
-2.5866e-07
1.21045e-06
2.57512e-07
9.01562e-07
-2.65223e-07
2.62057e-07
-9.00748e-07
-2.37241e-09
-0.00109054
3.09244e-09
-1.20735e-06
2.57495e-07
-2.58605e-07
-9.00502e-07
2.61995e-07
9.01308e-07
-2.65142e-07
1.21046e-06
0.00109105
-2.21042e-09
-0.00109105
3.07693e-09
-1.20748e-06
2.5753e-07
-2.58684e-07
-9.00784e-07
2.62069e-07
-2.65251e-07
9.0155e-07
-0.000265965
2.37514e-07
2.42865e-07
1.24651e-06
1.21012e-06
-2.31945e-07
-2.39756e-07
0.00026597
-1.24937e-06
-1.21308e-06
0.000267955
-0.00026597
2.34883e-07
2.42667e-07
3.21492e-09
0.00109009
-2.64067e-07
1.24952e-06
2.62846e-07
9.01331e-07
-2.62438e-07
-9.00651e-07
2.5922e-07
-1.25198e-06
-2.0903e-09
3.21321e-09
0.00109053
-2.6686e-07
1.255e-06
2.65656e-07
9.0694e-07
-2.65304e-07
-9.06294e-07
2.62015e-07
0.00109009
-1.72964e-09
-0.00109009
3.61951e-09
-1.24658e-06
2.62664e-07
-2.64191e-07
-9.00729e-07
2.59031e-07
-2.62561e-07
9.01179e-07
1.25481e-06
0.00109053
-1.63806e-09
-0.00109053
3.71697e-09
-1.25209e-06
2.65444e-07
-2.67008e-07
-9.06384e-07
2.61824e-07
-2.65436e-07
9.06781e-07
-2.34673e-07
-2.37019e-07
0.000265991
-1.21576e-06
0.000267984
-0.000265991
2.37697e-07
2.3988e-07
2.96216e-09
0.00109115
-2.61386e-07
1.21318e-06
2.60328e-07
9.04207e-07
-2.65261e-07
-9.03423e-07
2.62092e-07
-1.24653e-06
-2.24405e-09
3.168e-09
0.00109021
-2.6683e-07
1.24964e-06
2.65668e-07
9.04108e-07
-2.65205e-07
-9.03379e-07
2.62027e-07
0.00109115
-1.45287e-09
-0.00109115
3.11525e-09
-1.21015e-06
2.60177e-07
-2.6148e-07
-9.03596e-07
2.61819e-07
-2.6546e-07
9.03956e-07
1.2492e-06
0.00109021
-8.87778e-10
-0.0010902
4.25894e-09
-1.24688e-06
2.65219e-07
-2.67207e-07
-9.03737e-07
2.6154e-07
-2.65596e-07
9.0365e-07
-2.30006e-09
3.10906e-09
0.00109
-2.61225e-07
1.24423e-06
2.60152e-07
9.01404e-07
-2.6243e-07
2.59245e-07
-9.00667e-07
-1.23787e-09
-0.00109088
3.11167e-09
-1.21277e-06
2.57372e-07
-2.5868e-07
-9.00959e-07
2.58963e-07
9.01072e-07
-2.62747e-07
1.24379e-06
0.00109
-7.60886e-10
-0.00109
4.18403e-09
-1.24144e-06
2.59696e-07
-2.61612e-07
-9.01076e-07
2.58702e-07
-2.62868e-07
9.0088e-07
-2.32093e-07
-2.39525e-07
0.000265952
-1.21008e-06
0.000267934
-0.000265951
2.34842e-07
2.42195e-07
-2.32505e-09
2.91464e-09
0.00109105
-2.58635e-07
1.21056e-06
2.57599e-07
9.01609e-07
-2.65232e-07
2.62107e-07
-9.0076e-07
-7.31455e-10
-0.00109054
3.71161e-09
-1.20757e-06
2.57152e-07
-2.58892e-07
-9.00915e-07
2.61461e-07
9.00818e-07
-2.6559e-07
1.21015e-06
0.00109105
-5.68151e-10
-0.00109105
3.76174e-09
-1.20773e-06
2.57175e-07
-2.58984e-07
-9.01213e-07
2.61529e-07
-2.65709e-07
9.01053e-07
-0.000265965
2.37132e-07
2.42447e-07
1.24679e-06
1.21036e-06
-2.32205e-07
-2.40056e-07
0.00026597
-1.24929e-06
-1.21287e-06
0.000267956
-0.000265971
2.34582e-07
2.4249e-07
3.97208e-09
0.00109009
-2.64404e-07
1.24917e-06
2.62453e-07
9.00869e-07
-2.62859e-07
-9.01028e-07
2.58707e-07
-1.2523e-06
-7.93013e-10
4.03094e-09
0.00109053
-2.67224e-07
1.25462e-06
2.65238e-07
9.06482e-07
-2.65718e-07
-9.06669e-07
2.61512e-07
0.0010901
-5.57319e-10
-0.0010901
3.68708e-09
-1.24683e-06
2.62586e-07
-2.64434e-07
-9.01269e-07
2.58588e-07
-2.63189e-07
9.0083e-07
1.25481e-06
0.00109054
-4.15712e-10
-0.00109054
3.59741e-09
-1.25227e-06
2.65424e-07
-2.67199e-07
-9.06925e-07
2.61371e-07
-2.66064e-07
9.06427e-07
-2.34939e-07
-2.37365e-07
0.000265991
-1.21552e-06
0.000267985
-0.000265992
2.37383e-07
2.39788e-07
3.53689e-09
0.00109115
-2.61688e-07
1.21286e-06
2.59963e-07
9.03679e-07
-2.65755e-07
-9.03876e-07
2.6151e-07
-1.24704e-06
-3.34639e-10
4.31854e-09
0.00109021
-2.67367e-07
1.2491e-06
2.65116e-07
9.03448e-07
-2.6587e-07
-9.03988e-07
2.61307e-07
0.00109115
-9.93453e-10
-0.00109115
3.81946e-09
-1.21051e-06
2.59978e-07
-2.61823e-07
-9.03955e-07
2.61534e-07
-2.65946e-07
9.03801e-07
1.24952e-06
0.00109021
-1.09194e-09
-0.00109021
3.19089e-09
-1.24672e-06
2.65567e-07
-2.67024e-07
-9.03867e-07
2.6157e-07
-2.65775e-07
9.03717e-07
-2.57707e-10
4.21125e-09
0.00109
-2.61759e-07
1.2437e-06
2.59607e-07
9.00693e-07
-2.63145e-07
2.58478e-07
-9.01327e-07
-1.19433e-09
-0.00109088
3.84797e-09
-1.21314e-06
2.57152e-07
-2.59028e-07
-9.01132e-07
2.58825e-07
9.01103e-07
-2.63094e-07
1.24409e-06
0.00109001
-1.23107e-09
-0.00109001
3.23271e-09
-1.2413e-06
2.60025e-07
-2.61438e-07
-9.01114e-07
2.58813e-07
-2.62974e-07
9.01045e-07
-2.32604e-07
-2.40084e-07
0.000265952
-1.21026e-06
0.000267935
-0.000265953
2.34989e-07
2.42468e-07
-1.55561e-10
3.87208e-09
0.00109105
-2.59138e-07
1.21005e-06
2.57076e-07
9.00883e-07
-2.65978e-07
2.61316e-07
-9.01445e-07
-1.64491e-09
-0.00109054
3.34235e-09
-1.20754e-06
2.57376e-07
-2.58816e-07
-9.00875e-07
2.61646e-07
9.01066e-07
-2.65631e-07
1.21038e-06
0.00109106
-1.43564e-09
-0.00109106
3.27801e-09
-1.20766e-06
2.57435e-07
-2.58875e-07
-9.01182e-07
2.61702e-07
-2.65759e-07
9.01286e-07
-0.000265966
2.37332e-07
2.42703e-07
1.24667e-06
1.21038e-06
-2.32284e-07
-2.40006e-07
0.000265971
-1.24954e-06
-1.21317e-06
0.000267956
-0.000265972
2.3498e-07
2.42839e-07
3.44245e-09
0.0010901
-2.64263e-07
1.24944e-06
2.62747e-07
9.01017e-07
-2.62992e-07
-9.01086e-07
2.58798e-07
-1.25212e-06
-9.70956e-10
3.36406e-09
0.00109054
-2.67027e-07
1.25495e-06
2.65582e-07
9.06619e-07
-2.65869e-07
-9.06736e-07
2.61581e-07
0.0010901
-1.96085e-09
-0.0010901
3.22474e-09
-1.2465e-06
2.62875e-07
-2.64062e-07
-9.00738e-07
2.59117e-07
-2.62592e-07
9.01286e-07
1.25503e-06
0.00109054
-1.82454e-09
-0.00109054
3.21909e-09
-1.25197e-06
2.65687e-07
-2.66848e-07
-9.06399e-07
2.61896e-07
-2.65476e-07
9.06878e-07
-2.35038e-07
-2.37234e-07
0.000265992
-1.21585e-06
0.000267986
-0.000265993
2.37795e-07
2.401e-07
3.58019e-09
0.00109115
-2.61676e-07
1.213e-06
2.60126e-07
9.03993e-07
-2.65731e-07
-9.03751e-07
2.61753e-07
-1.2466e-06
-1.50768e-09
3.0547e-09
0.00109021
-2.66887e-07
1.24961e-06
2.65669e-07
9.03864e-07
-2.65594e-07
-9.03701e-07
2.61729e-07
0.00109115
-2.14238e-09
-0.00109115
3.09621e-09
-1.21015e-06
2.60311e-07
-2.61427e-07
-9.03488e-07
2.62011e-07
-2.65384e-07
9.04177e-07
1.24958e-06
0.00109021
-1.86921e-09
-0.00109021
3.25064e-09
-1.24658e-06
2.6564e-07
-2.66862e-07
-9.03514e-07
2.61886e-07
-2.65372e-07
9.03987e-07
-1.6315e-09
3.08128e-09
0.00109001
-2.61307e-07
1.24418e-06
2.60127e-07
9.01181e-07
-2.62794e-07
2.58965e-07
-9.00953e-07
-2.15829e-09
-0.00109089
3.08862e-09
-1.21276e-06
2.57508e-07
-2.58616e-07
-9.00769e-07
2.59237e-07
9.01378e-07
-2.62595e-07
1.24416e-06
0.00109001
-1.90158e-09
-0.00109001
3.21775e-09
-1.24115e-06
2.60111e-07
-2.61269e-07
-9.00802e-07
2.59096e-07
-2.62601e-07
9.01273e-07
-2.32288e-07
-2.39642e-07
0.000265953
-1.21038e-06
0.000267935
-0.000265953
2.35176e-07
2.42599e-07
-1.84518e-09
3.12548e-09
0.00109106
-2.58751e-07
1.21046e-06
2.57532e-07
9.0143e-07
-2.65566e-07
2.61864e-07
-9.01005e-07
-2.1839e-09
-0.00109054
3.11033e-09
-1.20735e-06
2.57502e-07
-2.58618e-07
-9.00583e-07
2.61911e-07
9.01265e-07
-2.65268e-07
1.21047e-06
0.00109106
-1.99878e-09
-0.00109106
3.09435e-09
-1.20749e-06
2.57541e-07
-2.58693e-07
-9.00877e-07
2.61972e-07
-2.65389e-07
9.01494e-07
-0.000265966
2.37492e-07
2.42845e-07
1.24652e-06
1.21015e-06
-2.31979e-07
-2.39764e-07
0.000265971
-1.24947e-06
-1.21312e-06
0.000267956
-0.000265971
2.34923e-07
2.42764e-07
3.25843e-09
0.0010901
-2.64081e-07
1.24952e-06
2.62849e-07
9.01277e-07
-2.62575e-07
-9.00737e-07
2.5912e-07
-1.25199e-06
-1.83544e-09
3.26642e-09
0.00109054
-2.66873e-07
1.255e-06
2.65657e-07
9.06877e-07
-2.65453e-07
-9.0639e-07
2.61904e-07
0.0010901
-1.84023e-09
-0.0010901
3.36258e-09
-1.24657e-06
2.62791e-07
-2.64146e-07
-9.00772e-07
2.59085e-07
-2.62604e-07
9.01242e-07
1.25495e-06
0.00109054
-1.70877e-09
-0.00109054
3.37479e-09
-1.25205e-06
2.65598e-07
-2.6694e-07
-9.06428e-07
2.61868e-07
-2.65483e-07
9.06839e-07
-2.34718e-07
-2.37028e-07
0.000265993
-1.2158e-06
0.000267986
-0.000265993
2.37739e-07
2.40019e-07
3.08957e-09
0.00109115
-2.61433e-07
1.21316e-06
2.60297e-07
9.04162e-07
-2.65385e-07
-9.03493e-07
2.62001e-07
-1.24661e-06
-1.83391e-09
3.33977e-09
0.00109021
-2.66897e-07
1.24955e-06
2.65606e-07
9.03978e-07
-2.65372e-07
-9.03519e-07
2.6188e-07
0.00109115
-1.9299e-09
-0.00109115
3.1584e-09
-1.21019e-06
2.60249e-07
-2.61484e-07
-9.03547e-07
2.61955e-07
-2.65427e-07
9.04116e-07
1.24951e-06
0.00109021
-1.71864e-09
-0.00109021
3.43511e-09
-1.24666e-06
2.65562e-07
-2.6695e-07
-9.03555e-07
2.61849e-07
-2.65402e-07
9.03945e-07
-1.85969e-09
3.29083e-09
0.00109001
-2.613e-07
1.24414e-06
2.6008e-07
9.01261e-07
-2.62605e-07
2.59087e-07
-9.00811e-07
-1.93373e-09
-0.00109089
3.15338e-09
-1.2128e-06
2.57444e-07
-2.58673e-07
-9.00822e-07
2.59177e-07
9.01327e-07
-2.62645e-07
1.2441e-06
0.00109001
-1.73757e-09
-0.00109001
3.39654e-09
-1.24122e-06
2.60035e-07
-2.61353e-07
-9.00847e-07
2.59056e-07
-2.62636e-07
9.01229e-07
-2.32178e-07
-2.39597e-07
0.000265953
-1.21033e-06
0.000267935
-0.000265953
2.35125e-07
2.42531e-07
-1.90919e-09
3.12686e-09
0.00109106
-2.58716e-07
1.21046e-06
2.57518e-07
9.01475e-07
-2.65403e-07
2.61953e-07
-9.00895e-07
-1.9397e-09
-0.00109054
3.20958e-09
-1.2074e-06
2.57444e-07
-2.58679e-07
-9.00647e-07
2.61852e-07
9.01206e-07
-2.65325e-07
1.21042e-06
0.00109106
-1.75323e-09
-0.00109106
3.20414e-09
-1.20754e-06
2.57481e-07
-2.58759e-07
-9.00939e-07
2.61912e-07
-2.65446e-07
9.01435e-07
-0.000265966
2.37439e-07
2.42778e-07
1.24658e-06
1.2102e-06
-2.32039e-07
-2.39833e-07
0.000265971
-1.24946e-06
-1.2131e-06
0.000267956
-0.000265971
2.34907e-07
2.42753e-07
3.38112e-09
0.0010901
-2.64155e-07
1.24947e-06
2.62783e-07
9.01227e-07
-2.62619e-07
-9.0079e-07
2.59072e-07
-1.25205e-06
-1.67411e-09
3.39091e-09
0.00109054
-2.66949e-07
1.25495e-06
2.65591e-07
9.06831e-07