/*--------------------------------*- C++ -*----------------------------------*\
| =========                 |                                                 |
| \\      /  F ield         | OpenFOAM: The Open Source CFD Toolbox           |
|  \\    /   O peration     | Version:  2206                                  |
|   \\  /    A nd           | Website:  www.openfoam.com                      |
|    \\/     M anipulation  |                                                 |
\*---------------------------------------------------------------------------*/
FoamFile
{
    version     2.0;
    format      ascii;
    arch        "LSB;label=32;scalar=64";
    class       volScalarField;
    location    "3.5";
    object      nut;
}
// * * * * * * * * * * * * * * * * * * * * * * * * * * * * * * * * * * * * * //

dimensions      [0 2 -1 0 0 0 0];

internalField   nonuniform List<scalar> 
171728
(
0.00023889
0.000234045
0.000234885
0.000234885
0.000238886
0.000238668
0.000238883
0.000234887
0.000234886
0.000238891
0.000234885
0.000234886
0.000234889
0.000238891
0.000234885
0.000114057
0.000114042
0.00023867
0.000107505
0.000107502
0.0001359
3.18599e-05
3.17419e-05
0.000146014
1.33726e-05
1.332e-05
0.000135886
3.18564e-05
3.17381e-05
0.000146011
0.000234044
0.000234045
0.000234045
0.000218227
0.000160163
0.000234116
0.000234886
0.000144434
0.000234118
0.000222521
1.33713e-05
1.33188e-05
0.000218225
0.000234116
0.00016016
0.000234891
0.000234119
0.000144424
0.00022252
0.000114051
0.000114038
0.00023869
0.000107561
0.00010756
1.33725e-05
1.33192e-05
1.33719e-05
1.33186e-05
0.000238891
0.000107498
0.000107497
0.000114057
0.000114043
1.33192e-05
1.33724e-05
1.33186e-05
1.33719e-05
1.33733e-05
1.33207e-05
1.33721e-05
1.33195e-05
0.000114058
0.000114044
0.000238691
0.000107546
0.000107541
0.000135902
3.18591e-05
3.17408e-05
0.000146015
0.00021822
0.000160162
0.000234116
0.000234889
0.000144426
0.000234118
0.000222521
0.00021822
0.000160153
0.000234116
0.000234886
0.000144416
0.000234118
0.000222521
0.000114045
0.000114061
0.000238697
0.000107552
0.000107558
1.33733e-05
1.33208e-05
0.000218215
0.000160151
0.000234116
0.00023489
0.000144406
0.000234118
0.000222518
0.000135886
3.18552e-05
3.17368e-05
0.000146011
0.000218214
0.000234116
0.000160146
0.000234892
0.000234119
0.000144404
0.000222518
0.000135923
3.18584e-05
3.17405e-05
0.000146013
0.000218227
0.000234116
0.000160158
0.000234891
0.000234119
0.000144437
0.000222521
0.000135922
3.18568e-05
3.17389e-05
0.000146013
0.000114037
0.000114057
0.000238688
0.000107538
0.000107543
1.33725e-05
1.332e-05
0.000218226
0.000234116
0.000160149
0.000234889
0.000234118
0.000144427
0.000222521
0.000135919
3.18565e-05
3.17386e-05
0.000146011
0.000135924
3.18561e-05
3.1738e-05
0.000146011
1.33723e-05
1.33199e-05
1.33717e-05
1.33193e-05
9.40806e-05
1.16426e-05
1.16413e-05
1.16493e-05
1.16478e-05
9.44019e-05
0.000144674
0.000212143
3.03778e-05
0.000107503
3.0158e-05
0.000156847
0.000207172
0.000144626
0.000212128
3.03688e-05
0.000107497
3.01488e-05
0.000156809
0.000207155
9.44004e-05
1.16493e-05
1.16478e-05
1.16426e-05
1.16412e-05
9.40824e-05
0.000156849
3.0158e-05
0.000114057
0.000207173
3.03778e-05
0.000144678
0.000212146
0.00015681
3.01488e-05
0.000114043
0.000207156
3.03688e-05
0.00014463
0.000212131
2.20081e-05
2.50108e-05
0.000129779
0.000146018
2.50694e-05
0.000138497
2.19451e-05
1.08783e-05
3.17404e-05
0.000105704
0.000101299
1.09354e-05
1.09355e-05
0.000101336
3.186e-05
0.000105707
1.08789e-05
2.19441e-05
0.000135863
2.50693e-05
0.000138494
2.50096e-05
0.000129741
2.2008e-05
1.33193e-05
1.33726e-05
2.20089e-05
0.000129773
2.50102e-05
0.000146015
0.000138499
2.50689e-05
2.19458e-05
1.08789e-05
3.17367e-05
0.000105715
0.000101311
1.09361e-05
1.09361e-05
0.000101349
3.18564e-05
0.000105718
1.08795e-05
2.19447e-05
0.000135851
0.000138496
2.50688e-05
0.000129738
2.5009e-05
2.20088e-05
1.33181e-05
1.33714e-05
9.40728e-05
1.16436e-05
1.16421e-05
1.16492e-05
1.16478e-05
9.44514e-05
0.000144681
0.000212143
3.03775e-05
0.000107506
0.000156843
0.000207175
3.01579e-05
0.000144634
0.000212129
3.03685e-05
0.000107505
0.000156805
0.000207161
3.01488e-05
9.44016e-05
1.16492e-05
1.16477e-05
9.40542e-05
1.16427e-05
1.16412e-05
0.000156853
3.01594e-05
0.000114059
0.000207244
0.000212152
3.03777e-05
0.000144749
0.000156815
3.01503e-05
0.000114045
0.000207228
0.000212138
3.03687e-05
0.000144701
1.33192e-05
1.33724e-05
1.33186e-05
1.33719e-05
9.43976e-05
1.16493e-05
1.16478e-05
9.40776e-05
1.16426e-05
1.16412e-05
0.000156844
0.000207171
3.01579e-05
0.000114053
0.00014467
3.03777e-05
0.000212145
0.000156805
0.000207156
3.01488e-05
0.000114039
0.000144624
3.03687e-05
0.000212128
9.40628e-05
1.16425e-05
1.16411e-05
9.43959e-05
1.16492e-05
1.16478e-05
0.000144672
3.03778e-05
0.000212144
0.000107502
0.000156847
3.0158e-05
0.000207171
0.000144625
3.03688e-05
0.000212129
0.0001075
0.000156809
3.01489e-05
0.000207155
1.33724e-05
1.33192e-05
1.33718e-05
1.33186e-05
1.332e-05
1.33733e-05
1.33189e-05
1.33722e-05
9.40825e-05
1.16432e-05
1.16417e-05
1.16493e-05
1.16476e-05
9.44397e-05
0.000144673
0.000212143
0.000107504
3.0378e-05
3.01583e-05
0.000207171
0.000156846
0.000144626
0.000212127
0.0001075
3.03678e-05
3.01479e-05
0.000207155
0.000156808
0.000156849
3.01596e-05
0.000114061
0.000207232
3.03781e-05
0.000144722
0.000212147
0.000156812
3.01491e-05
0.000114047
0.000207216
3.03677e-05
0.000144675
0.000212133
9.44013e-05
1.16493e-05
1.16476e-05
1.16426e-05
1.16411e-05
9.40825e-05
2.2009e-05
2.50108e-05
0.000129787
0.000146019
2.50694e-05
0.000138502
2.1946e-05
1.08787e-05
3.17394e-05
0.000105717
0.000101317
1.09359e-05
1.09359e-05
0.000101359
3.18591e-05
0.00010572
1.08793e-05
2.19449e-05
0.000135864
2.50693e-05
0.000138498
2.50095e-05
0.000129745
2.20089e-05
9.40855e-05
1.16423e-05
1.16435e-05
1.16481e-05
1.16494e-05
9.4446e-05
0.000144632
0.000212129
0.000107508
3.03692e-05
3.01493e-05
0.000207161
0.000156809
0.000144679
0.000212147
0.000107517
3.03774e-05
0.000207177
3.01578e-05
0.000156847
0.000156815
3.01508e-05
0.00011405
0.000207224
3.03693e-05
0.000212139
0.000144686
0.000156853
3.0159e-05
0.000114065
0.00020724
0.000212154
3.03774e-05
0.000144732
9.44044e-05
1.16481e-05
1.16493e-05
1.16415e-05
1.16428e-05
9.40781e-05
1.33201e-05
1.33733e-05
2.20075e-05
2.50102e-05
0.000129767
0.000146014
2.50689e-05
0.000138493
2.19445e-05
1.08781e-05
3.17354e-05
0.0001057
0.000101296
1.09352e-05
1.09353e-05
0.000101334
3.18552e-05
0.000105703
1.08787e-05
2.19434e-05
0.000135851
2.50688e-05
0.00013849
2.5009e-05
0.000129729
2.20074e-05
2.20093e-05
0.000129803
2.50104e-05
0.00014602
0.000138504
2.50689e-05
2.19464e-05
1.08792e-05
3.1739e-05
0.000105717
0.000101323
1.09363e-05
1.09363e-05
0.000101362
3.18585e-05
0.000105721
1.08798e-05
2.19453e-05
0.00013587
0.000138498
2.50687e-05
0.000129753
2.50091e-05
2.20092e-05
2.20079e-05
2.50104e-05
0.000129794
0.00014602
2.50689e-05
0.000138497
2.19451e-05
1.08785e-05
3.17374e-05
0.0001057
0.000101297
1.09355e-05
1.09356e-05
0.000101346
3.18569e-05
0.000105705
1.08792e-05
2.19439e-05
0.00013587
2.50688e-05
0.000138491
2.50091e-05
0.000129743
2.20079e-05
9.40859e-05
1.16416e-05
1.16432e-05
1.16474e-05
1.16492e-05
9.44423e-05
0.000144629
0.000212125
0.000107495
3.03679e-05
3.01479e-05
0.000207154
0.000156807
0.000144676
0.000212145
0.000107505
3.0378e-05
0.000207171
3.01582e-05
0.000156847
0.000156812
3.01493e-05
0.000114041
0.000207216
3.03679e-05
0.00021213
0.000144678
0.000156851
3.01596e-05
0.00011406
0.000207232
0.000212148
3.0378e-05
0.000144728
9.44015e-05
1.16474e-05
1.16491e-05
1.16409e-05
1.16425e-05
9.40771e-05
1.33193e-05
1.33726e-05
2.20079e-05
0.000129791
2.50101e-05
0.000146018
0.000138498
2.50686e-05
2.19451e-05
1.08786e-05
3.17371e-05
0.000105701
0.000101303
1.09357e-05
1.09358e-05
0.00010134
3.18566e-05
0.000105706
1.08793e-05
2.19439e-05
0.000135869
0.000138492
2.50685e-05
0.000129748
2.50088e-05
2.20078e-05
2.2009e-05
0.000129812
2.50103e-05
0.000146018
0.000138502
2.50687e-05
2.19462e-05
1.08789e-05
3.17365e-05
0.000105714
0.000101319
1.09359e-05
1.0936e-05
0.00010137
3.18561e-05
0.000105719
1.08796e-05
2.1945e-05
0.000135869
0.000138494
2.50686e-05
0.000129751
2.50089e-05
2.20089e-05
1.33192e-05
1.33723e-05
1.33186e-05
1.33718e-05
0.000211052
0.000236266
0.000236266
0.000238671
0.00021891
0.000234396
0.000234396
0.000233922
0.000233922
0.000234047
0.000233924
0.000233924
0.000233906
0.000233904
0.000211054
0.000236266
0.000236265
0.000238669
0.00021891
0.000234394
0.000234394
0.00021891
0.000238892
0.000234395
0.000234393
0.000211049
0.00023627
0.000236265
0.00021105
0.000236263
0.000236262
0.000238665
0.000234393
0.000234391
0.000218908
0.000211054
0.000236266
0.000236267
0.000238673
0.000234396
0.000234396
0.00021891
0.000211051
0.000236267
0.000236268
0.000238667
0.000234394
0.000234392
0.000218911
0.000218912
0.000238892
0.000234394
0.000234395
0.000211051
0.000236267
0.00023627
0.000233922
0.000233922
0.000234047
0.000233924
0.000233924
0.000233906
0.000233904
0.000233922
0.000233922
0.000234048
0.000233924
0.000233924
0.000233906
0.000233904
0.000233922
0.000233922
0.000234047
0.000233924
0.000233924
0.000233906
0.000233904
0.000234349
0.00021587
0.000234082
0.000222528
0.000220255
0.000234491
0.000233866
0.000231726
0.000225266
0.000144386
0.000208042
0.000220223
0.00020195
0.000232961
0.000232962
0.000202007
0.000160168
0.00022026
0.000225269
0.000208048
0.000231744
0.000233854
0.000218184
0.00022025
0.00023449
0.000215823
0.000234072
0.000234348
0.000234349
0.000234083
0.000215866
0.000222526
0.000234491
0.000220253
0.000233865
0.000231725
0.000225268
0.000144381
0.000208036
0.000220221
0.00020194
0.000232961
0.000232962
0.000201995
0.000160164
0.000220255
0.000225268
0.00020804
0.000231742
0.000233854
0.000218183
0.000234489
0.000220248
0.000234072
0.000215821
0.000234347
0.000218915
0.000238894
0.000234423
0.000234421
0.000236268
0.000236269
0.000211104
0.000211049
0.000238673
0.000236266
0.000236264
0.000218908
0.000234396
0.000234393
0.000218913
0.000238893
0.000234422
0.000234419
0.000211094
0.000236268
0.000236268
0.000234348
0.000215862
0.000234081
0.000222525
0.000220252
0.00023449
0.000233864
0.000231725
0.000225267
0.000144381
0.000208035
0.000201937
0.000220223
0.000232962
0.000232963
0.000201993
0.000160167
0.000220256
0.000208041
0.00022527
0.000231742
0.000233853
0.000218181
0.000220248
0.000234488
0.000215819
0.000234071
0.000234347
0.000234348
0.000215863
0.000234081
0.000222525
0.000220253
0.00023449
0.000233864
0.000231724
0.000225258
0.000144369
0.000208039
0.000201942
0.000220211
0.00023296
0.000232962
0.000201999
0.000160158
0.000220247
0.000208044
0.000231741
0.000225264
0.000233853
0.000218181
0.000220249
0.000234489
0.000215819
0.000234071
0.000234347
0.000218917
0.000238905
0.000234424
0.000234424
0.000236273
0.000236276
0.0002111
0.000234348
0.000215858
0.00023408
0.000222523
0.000220251
0.00023449
0.000233863
0.000231723
0.000225259
0.000144362
0.000208037
0.000201939
0.00022021
0.00023296
0.000232961
0.000201994
0.000160154
0.000220243
0.000208042
0.00022526
0.00023174
0.000233852
0.000218177
0.000220247
0.000234488
0.000215816
0.00023407
0.000234347
0.000234348
0.00023408
0.000215855
0.000222523
0.00023449
0.000220249
0.000233863
0.000231723
0.000225256
0.000144359
0.00020803
0.00020193
0.000220209
0.000232959
0.000232961
0.000201986
0.00016015
0.000220244
0.000208035
0.00023174
0.000225258
0.000233853
0.000218176
0.000234488
0.000220245
0.00023407
0.000215812
0.000234347
0.000234349
0.000234083
0.000215867
0.000222528
0.000234491
0.000220254
0.000233866
0.000231726
0.000225266
0.000144383
0.000208035
0.000220223
0.000201938
0.000232961
0.000232963
0.000201999
0.000160164
0.00022026
0.000225269
0.000208041
0.000231744
0.000233854
0.000218184
0.00023449
0.000220248
0.000234072
0.00021582
0.000234348
0.00021891
0.000238883
0.000234419
0.000234419
0.000236262
0.000236262
0.000211094
0.000234349
0.000234083
0.00021587
0.000222526
0.000234491
0.000220254
0.000233867
0.000231725
0.000225261
0.000144372
0.000208038
0.000220214
0.000201944
0.000232961
0.000232962
0.000202006
0.000160155
0.000220251
0.000225262
0.000208044
0.000231743
0.000233854
0.000218183
0.000234489
0.000220248
0.000234072
0.000215821
0.000234348
0.000234047
0.000234887
0.00023489
0.000238885
0.000234044
0.000234883
0.000234886
0.000238894
0.000234044
0.000234885
0.000234886
0.000238885
0.000234044
0.000234884
0.000234886
0.000238894
0.000234044
0.000234885
0.000234886
0.000238891
0.000234044
0.000234884
0.000234886
0.000238891
0.000234045
0.000234885
0.000234886
0.000238892
0.000234044
0.000234885
0.000234884
0.000238896
0.000234045
0.000234883
0.000234887
0.00023889
0.000234044
0.000234884
0.000234887
0.000238884
0.000234044
0.000234884
0.000234886
0.000238889
0.000234044
0.000234885
0.000234887
0.000238886
0.000234044
0.000234885
0.000234887
0.000238893
0.000234044
0.000234885
0.000234888
0.000238891
0.000234045
0.000234884
0.000234886
0.00023889
0.000234044
0.000234885
0.000234884
0.000238889
0.000234044
0.000234885
0.000234886
0.000238899
0.000238668
0.000234889
0.000234889
0.000234886
0.000234887
0.000238905
0.000238665
0.000234886
0.000234888
0.000234884
0.000234886
0.000234889
0.000234886
0.000234889
0.000238899
0.000238672
0.000234886
0.000234885
0.000234883
0.00023867
0.000238889
0.000238667
0.000234886
0.000234887
0.000234886
0.000234884
0.000238888
0.000238671
0.000234884
0.000234883
0.000234888
0.000234885
0.000234886
0.000234888
0.000234888
0.000238896
0.000238674
0.000234884
0.000234886
0.000234886
0.000238669
0.00023889
0.000238667
0.000234885
0.000234885
0.000234884
0.000234887
0.000238891
0.000238664
0.000234884
0.000234886
0.000234887
0.000234885
0.000234889
0.000234885
0.000234889
0.000238891
0.000238673
0.000234886
0.000234887
0.000234885
0.00023867
0.000238889
0.000238668
0.000234885
0.000234886
0.000234886
0.000234886
0.000238887
0.000238665
0.000234885
0.000234883
0.000234885
0.000234886
0.000234887
0.000234888
0.000234888
0.000238897
0.000238675
0.000234884
0.000234886
0.000234886
0.00023867
0.000238886
0.000238668
0.000234888
0.000234889
0.000234886
0.000234886
0.000238884
0.000238665
0.000234885
0.000234884
0.000234887
0.000234886
0.000234889
0.000234886
0.00023489
0.000238898
0.000238674
0.000234886
0.000234887
0.000234883
0.000238669
0.00023889
0.000238666
0.000234887
0.000234887
0.000234886
0.000234885
0.00023889
0.000238671
0.000234885
0.000234883
0.000234886
0.000234886
0.000234887
0.000234888
0.000234888
0.000238898
0.000238674
0.000234886
0.000234886
0.000234886
0.00023867
0.000238886
0.000238669
0.000234888
0.000234887
0.000234885
0.000234887
0.000238891
0.000238667
0.000234884
0.000234886
0.000234886
0.000234886
0.000234887
0.000234887
0.000234889
0.000238893
0.000238674
0.000234885
0.000234886
0.000234884
0.000238672
0.000238894
0.000238669
0.000234885
0.000234885
0.000234885
0.000234885
0.00023889
0.000238666
0.000234886
0.000234886
0.000234886
0.000234885
0.000234887
0.000234886
0.000234887
0.000238898
0.000238674
0.000234885
0.000234886
0.000234885
0.00023867
0.000238885
0.000238663
0.000234888
0.000234887
0.000234886
0.000234886
0.000238884
0.000238667
0.000234884
0.000234887
0.000234884
0.000234885
0.000234887
0.000234885
0.000234888
0.00023889
0.000238668
0.000234885
0.000234885
0.000234883
0.000238669
0.000238883
0.000238668
0.000234886
0.000234886
0.000234886
0.000234884
0.000238888
0.000238669
0.000234885
0.000234885
0.000234884
0.000234886
0.000234889
0.000234886
0.000234888
0.000238884
0.00023867
0.000234886
0.000234886
0.000234886
0.000238668
0.00023889
0.00023867
0.000234888
0.000234888
0.000234885
0.000234887
0.000238884
0.000238667
0.000234882
0.000234886
0.000234885
0.000234886
0.000234887
0.000234886
0.000234889
0.000238891
0.000238671
0.000234885
0.000234887
0.000234885
0.000238669
0.000238892
0.000238671
0.000234886
0.000234884
0.000234887
0.000234885
0.000238891
0.000238673
0.000234886
0.000234886
0.000234885
0.000234884
0.000234891
0.000234886
0.000234889
0.000238887
0.000238676
0.000234885
0.000234887
0.000234886
0.000238672
0.000238892
0.000238668
0.000234888
0.000234888
0.000234886
0.000234887
0.000238888
0.000238666
0.000234883
0.000234883
0.000234886
0.000234885
0.000234888
0.000234886
0.000234889
0.0002389
0.000238671
0.000234886
0.000234886
0.000234887
0.000238669
0.000238891
0.000238669
0.000234887
0.000234886
0.000234884
0.000234886
0.000238889
0.000238668
0.000234884
0.000234886
0.000234884
0.000234883
0.000234888
0.000234885
0.000234887
0.000238887
0.000238673
0.000234887
0.000234887
0.000234885
0.000238669
0.000238885
0.000238666
0.000234887
0.000234887
0.000234884
0.000234886
0.000238888
0.000238663
0.000234884
0.000234886
0.000234886
0.000234885
0.000234887
0.000234885
0.000234889
0.000238891
0.00023867
0.000234885
0.000234886
0.000234886
0.000238666
0.000238888
0.00023867
0.000234886
0.000234887
0.000234886
0.000234885
0.000238887
0.000238665
0.000234883
0.000234886
0.000234886
0.000234886
0.000234886
0.000234888
0.000234887
0.00023889
0.000238673
0.000234886
0.000234885
0.000234886
0.000238669
0.000238891
0.000238666
0.000234888
0.000234888
0.000234886
0.000234888
0.000238884
0.00023867
0.000234883
0.000234886
0.000234884
0.000234887
0.000234887
0.000234884
0.000234885
0.000238892
0.000238671
0.000234885
0.000234886
0.000234887
0.000135843
3.18613e-05
3.17404e-05
0.000146066
1.33731e-05
1.33192e-05
0.00013584
3.18577e-05
3.17366e-05
0.000146063
0.000234047
0.000234047
0.000234046
0.000234044
0.000234045
0.000234044
0.000234045
0.000218174
0.000160218
0.000234118
0.000234885
0.000144374
0.000234116
0.000222564
1.3372e-05
1.33181e-05
0.00021817
0.000234118
0.000160215
0.000234886
0.000234116
0.000144362
0.000222563
0.000114059
0.000114045
0.000238669
0.000107501
0.000107493
0.000135858
3.18598e-05
0.000146008
3.17403e-05
1.33725e-05
1.33192e-05
0.000135853
3.18563e-05
0.000146006
3.17366e-05
0.000234044
0.000234044
0.000234044
0.000234045
0.000234045
0.000234044
0.000234045
0.000218175
0.000160162
0.000234115
0.000234889
0.000222518
0.000144375
0.000234116
1.33713e-05
1.33181e-05
0.000218174
0.000234116
0.000160158
0.000234886
0.000222517
0.000234116
0.000144372
0.000114057
0.000114043
0.000238667
0.000107499
0.000107495
0.00013585
3.18598e-05
0.000146011
3.17403e-05
1.33725e-05
1.33192e-05
0.000135837
3.18563e-05
0.000146007
3.17365e-05
0.000234044
0.000234044
0.000234045
0.000234045
0.000234045
0.000234044
0.000234045
0.000218175
0.000160163
0.000234116
0.000234885
0.00022252
0.000144376
0.000234116
1.33714e-05
1.33181e-05
0.000218173
0.000234116
0.000160159
0.000234886
0.000222519
0.000234116
0.000144369
0.000114059
0.000114045
0.00023867
0.000107508
0.000107503
0.000135833
3.186e-05
0.000146011
3.17403e-05
1.33726e-05
1.33192e-05
0.000135842
3.18564e-05
0.000146009
3.17366e-05
0.000234044
0.000234044
0.000234045
0.000234044
0.000234045
0.000234044
0.000234045
0.000218167
0.000160162
0.000234116
0.000234886
0.000222518
0.000144367
0.000234116
1.33714e-05
1.33181e-05
0.00021817
0.000234116
0.000160159
0.000234886
0.000222518
0.000234116
0.000144367
0.000114058
0.000114043
0.00023867
0.000107494
0.000107487
0.000135869
3.18598e-05
0.000146011
3.17404e-05
1.33724e-05
1.33192e-05
0.000135839
3.18563e-05
0.000146006
3.17365e-05
0.000234045
0.000234044
0.000234045
0.000234045
0.000234045
0.000234044
0.000234045
0.000218183
0.000160165
0.000234116
0.000234885
0.000222522
0.000144388
0.000234116
1.33714e-05
1.33181e-05
0.000218173
0.000234116
0.000160158
0.000234886
0.000222518
0.000234116
0.000144369
0.000114057
0.000114044
0.000238665
0.000107509
0.000107503
0.000135846
3.18599e-05
0.000146013
3.17403e-05
1.33726e-05
1.33192e-05
0.000135859
3.18562e-05
0.00014601
3.17366e-05
0.000234044
0.000234044
0.000234045
0.000234045
0.000234045
0.000234044
0.000234045
0.000218174
0.000160162
0.000234116
0.000234884
0.000222519
0.000144371
0.000234116
1.33713e-05
1.33181e-05
0.000218178
0.000234116
0.00016016
0.000234887
0.00022252
0.000234116
0.000144379
0.000114057
0.000114043
0.000238669
0.000107497
0.000107497
0.000135858
3.18598e-05
0.00014601
3.17403e-05
1.33724e-05
1.33192e-05
0.000135839
3.18565e-05
0.000146008
3.17367e-05
0.000234044
0.000234045
0.000234044
0.000234044
0.000234045
0.000234044
0.000234045
0.000218184
0.000160164
0.000234116
0.000234886
0.000222521
0.000144392
0.000234116
1.33714e-05
1.33181e-05
0.000218179
0.000234116
0.000160159
0.000234887
0.00022252
0.000234116
0.000144376
0.000114055
0.000114042
0.000238673
0.000107512
0.000107507
0.000135848
3.18599e-05
0.000146016
3.17404e-05
1.33726e-05
1.33193e-05
0.000135848
3.18564e-05
0.00014601
3.17368e-05
0.000234044
0.000234044
0.000234045
0.000234045
0.000234044
0.000234044
0.000234045
0.000218174
0.000160163
0.000234116
0.000234885
0.000222521
0.000144373
0.000234116
1.33713e-05
1.33181e-05
0.000218172
0.000234116
0.000160159
0.000234887
0.00022252
0.000234116
0.000144371
0.000114057
0.000114044
0.000238668
0.000107501
0.000107499
0.00013584
3.18599e-05
0.000146012
3.17403e-05
1.33727e-05
1.33194e-05
0.00013583
3.18566e-05
0.000146011
3.17367e-05
0.000234044
0.000234045
0.000234045
0.000234044
0.000234044
0.000234044
0.000234045
0.000218168
0.000160162
0.000234116
0.000234884
0.000222518
0.000144367
0.000234116
1.33714e-05
1.33181e-05
0.000218168
0.000234116
0.000160159
0.000234886
0.000222518
0.000234116
0.000144364
0.000114061
0.000114048
0.00023867
0.000107498
0.000107492
0.000135823
3.18601e-05
0.00014601
3.17403e-05
1.33728e-05
1.33194e-05
0.000135826
3.18566e-05
0.000146006
3.17368e-05
0.000234044
0.000234045
0.000234045
0.000234044
0.000234044
0.000234045
0.000234045
0.000218168
0.00016016
0.000234115
0.000234883
0.000222516
0.000144364
0.000234115
1.33714e-05
1.33181e-05
0.000218168
0.000234116
0.000160157
0.000234887
0.000222516
0.000234116
0.00014436
0.00011406
0.000114046
0.000238665
0.000107488
0.000107482
0.000135847
3.18599e-05
0.000146008
3.17403e-05
1.33727e-05
1.33193e-05
0.000135839
3.18566e-05
0.000146005
3.17368e-05
0.000234045
0.000234045
0.000234045
0.000234044
0.000234045
0.000234044
0.000234045
0.000218174
0.000160163
0.000234116
0.000234889
0.000222518
0.000144375
0.000234116
1.33714e-05
1.33181e-05
0.000218173
0.000234116
0.000160158
0.000234885
0.000222516
0.000234116
0.000144368
0.000114059
0.000114044
0.00023867
0.000107491
0.000107486
0.000135871
3.18597e-05
0.000146011
3.17404e-05
1.33725e-05
1.33193e-05
0.000135865
3.18564e-05
0.000146007
3.17368e-05
0.000234044
0.000234045
0.000234045
0.000234044
0.000234044
0.000234044
0.000234045
0.000218182
0.000160166
0.000234116
0.000234883
0.000222522
0.000144388
0.000234116
1.33713e-05
1.33181e-05
0.000218177
0.000234116
0.000160161
0.000234891
0.00022252
0.000234116
0.000144378
0.000114059
0.000114045
0.000238672
0.000107503
0.000107499
0.000135881
3.18597e-05
0.000146015
3.17405e-05
1.33725e-05
1.33193e-05
0.000135872
3.18563e-05
0.00014601
3.17368e-05
0.000234045
0.000234044
0.000234045
0.000234045
0.000234045
0.000234044
0.000234045
0.000218182
0.000160166
0.000234116
0.000234886
0.000222523
0.000144391
0.000234116
1.33712e-05
1.33181e-05
0.000218181
0.000234116
0.000160161
0.000234887
0.000222522
0.000234116
0.000144387
0.000114057
0.000114043
0.000238671
0.000107511
0.000107509
0.00013585
3.18598e-05
0.000146015
3.17404e-05
1.33726e-05
1.33194e-05
0.000135851
3.18565e-05
0.000146013
3.17368e-05
0.000234044
0.000234045
0.000234045
0.000234044
0.000234044
0.000234044
0.000234045
0.000218176
0.000160163
0.000234116
0.000234885
0.000222521
0.000144378
0.000234116
1.33713e-05
1.33181e-05
0.000218176
0.000234116
0.000160161
0.000234886
0.000222521
0.000234116
0.000144373
0.00011406
0.000114045
0.000238667
0.000107516
0.000107511
0.000135838
3.186e-05
0.00014601
3.17404e-05
1.33728e-05
1.33194e-05
0.000135828
3.18566e-05
0.000146008
3.17368e-05
0.000234045
0.000234045
0.000234045
0.000234045
0.000234045
0.000234044
0.000234045
0.000218174
0.000160161
0.000234116
0.000234884
0.000222518
0.000144365
0.000234116
1.33715e-05
1.33181e-05
0.000218174
0.000234116
0.000160157
0.000234886
0.000222517
0.000234116
0.000144361
0.000114058
0.000114044
0.000238667
0.000107493
0.00010749
0.000135826
3.18599e-05
0.000146007
3.17402e-05
1.33727e-05
1.33193e-05
0.000135824
3.18565e-05
0.000146003
3.17366e-05
0.000234044
0.000234044
0.000234045
0.000234044
0.000234045
0.000234044
0.000234045
0.00021817
0.00016016
0.000234115
0.000234885
0.000222517
0.000144374
0.000234116
1.33715e-05
1.33181e-05
0.000218167
0.000234116
0.000160157
0.000234886
0.000222516
0.000234116
0.00014436
0.000114056
0.000114041
0.00023867
0.000107499
0.000107492
0.000135855
3.18599e-05
0.00014601
3.17403e-05
1.33726e-05
1.33193e-05
0.000135838
3.18565e-05
0.000146006
3.17367e-05
0.000234045
0.000234045
0.000234044
0.000234044
0.000234045
0.000234044
0.000234044
0.000218178
0.000160164
0.000234116
0.000234889
0.00022252
0.000144384
0.000234116
1.33714e-05
1.33181e-05
0.000218173
0.000234116
0.000160158
0.000234888
0.000222517
0.000234116
0.000144374
1.33739e-05
1.332e-05
1.33727e-05
1.33188e-05
0.000114104
0.000114089
0.000238668
0.0001075
0.000107497
1.332e-05
1.33733e-05
1.33188e-05
1.33721e-05
0.000238889
0.000107507
0.000107502
0.000114059
0.000114044
0.000135844
3.18605e-05
3.17394e-05
0.000146066
0.000218175
0.000160218
0.000234118
0.000234887
0.000144372
0.000234116
0.000222564
0.000218175
0.000160208
0.000234118
0.000234886
0.00014436
0.000234116
0.000222564
0.000146011
3.17403e-05
3.18599e-05
0.000135831
0.000146011
3.17393e-05
3.18591e-05
0.00013583
0.000222519
0.000234887
0.000144374
0.000234116
0.000160161
0.000234116
0.000218172
0.000222519
0.000234887
0.00014436
0.000234116
0.000160153
0.000234116
0.000218171
0.000114092
0.000114108
0.000238669
0.000107503
0.000107511
1.33739e-05
1.332e-05
1.33192e-05
1.33726e-05
0.000238884
0.000107504
0.00010751
0.000114047
0.000114062
1.332e-05
1.33734e-05
0.000218174
0.000160207
0.000234118
0.000234883
0.000144359
0.000234116
0.000222563
0.000135839
3.18564e-05
3.17354e-05
0.000146063
0.000218173
0.000234118
0.000160201
0.000234889
0.000234116
0.000144347
0.000222563
0.000146008
3.17365e-05
3.18563e-05
0.00013583
0.000222517
0.000234884
0.000144359
0.000234116
0.00016015
0.000234116
0.00021817
0.000146008
3.17353e-05
3.18551e-05
0.000135831
0.000222517
0.000234889
0.000234116
0.000144355
0.000234116
0.000160143
0.000218171
0.000135841
3.18598e-05
3.17389e-05
0.000146065
0.000218175
0.000234118
0.00016016
0.000234887
0.000234116
0.000144368
0.000222565
0.000135845
3.18569e-05
3.17374e-05
0.000146067
0.000222519
0.000234884
0.000144375
0.000234116
0.000160162
0.000234116
0.000218172
0.000146011
3.17389e-05
3.18585e-05
0.000135834
0.000222519
0.000234886
0.000234116
0.000144365
0.000234116
0.000160158
0.000218172
0.000146011
3.17373e-05
3.18569e-05
0.000135833
0.000114085
0.000114105
0.00023867
0.00010749
0.000107495
1.33733e-05
1.33193e-05
1.33181e-05
1.33714e-05
0.000238895
0.000107496
0.000107501
0.000114036
0.000114057
1.33193e-05
1.33726e-05
0.000218171
0.000234118
0.000160149
0.000234886
0.000234116
0.000144348
0.000222563
0.000135829
3.1858e-05
3.1737e-05
0.000146064
0.000135831
3.18563e-05
3.17365e-05
0.000146065
0.000222516
0.000234884
0.000234116
0.000144366
0.000234116
0.000160157
0.000218168
0.000222517
0.000234886
0.000234115
0.00014435
0.000234116
0.000160147
0.000218168
0.000146007
3.17369e-05
3.18566e-05
0.000135821
0.000146007
3.17364e-05
3.18562e-05
0.000135821
1.33726e-05
1.33192e-05
1.3372e-05
1.33186e-05
0.000238885
0.000107499
0.000107495
0.000114058
0.000114044
1.33192e-05
1.33726e-05
1.33186e-05
1.3372e-05
1.33733e-05
1.332e-05
1.33721e-05
1.33188e-05
0.000114059
0.000114044
0.000238668
0.000107506
0.000107502
1.332e-05
1.33733e-05
1.33188e-05
1.33721e-05
0.00023889
0.000107508
0.000107503
0.000114058
0.000114043
0.000135857
3.18591e-05
0.000146009
3.17394e-05
0.00021818
0.000160162
0.000234116
0.000234887
0.000222519
0.00014438
0.000234116
0.000218179
0.000160152
0.000234116
0.000234884
0.000222519
0.000144365
0.000234115
0.000146014
3.17403e-05
3.18599e-05
0.000135849
0.000146014
3.17394e-05
3.18591e-05
0.00013585
0.000222521
0.000234887
0.000144376
0.000234116
0.000160162
0.000234116
0.000218177
0.000222521
0.000234883
0.000144366
0.000234115
0.000160153
0.000234115
0.000218177
0.000114047
0.000114062
0.000238671
0.000107505
0.000107509
1.33734e-05
1.332e-05
1.33192e-05
1.33725e-05
0.000238895
0.000107506
0.000107516
0.000114045
0.000114059
1.33201e-05
1.33733e-05
0.000218177
0.00016015
0.000234116
0.000234884
0.000222517
0.000144364
0.000234116
0.000135853
3.1855e-05
0.000146006
3.17354e-05
0.000218177
0.000234116
0.000160146
0.000234889
0.000222517
0.000234116
0.000144358
0.000146011
3.17366e-05
3.18564e-05
0.000135837
0.000222519
0.000234884
0.00014436
0.000234116
0.00016015
0.000234116
0.000218172
0.000146012
3.17354e-05
3.18551e-05
0.000135837
0.000222519
0.000234889
0.000234116
0.000144352
0.000234116
0.000160145
0.000218172
0.000135842
3.18585e-05
0.000146009
3.17389e-05
0.000218175
0.000234116
0.000160158
0.000234888
0.000222519
0.000234116
0.000144369
0.000135844
3.18569e-05
0.000146009
3.17374e-05
0.00022252
0.000234889
0.000144383
0.000234116
0.000160162
0.000234116
0.00021818
0.000146011
3.1739e-05
3.18584e-05
0.000135861
0.000222521
0.000234885
0.000234116
0.00014438
0.000234116
0.000160159
0.00021818
0.000146011
3.17374e-05
3.18568e-05
0.000135861
0.000114038
0.000114058
0.000238668
0.000107497
0.000107505
1.33726e-05
1.33193e-05
1.33181e-05
1.33714e-05
0.000238885
0.000107493
0.000107507
0.000114038
0.000114057
1.33193e-05
1.33726e-05
0.000218174
0.000234116
0.000160147
0.000234886
0.000222517
0.000234116
0.000144355
0.00013584
3.18565e-05
0.000146005
3.1737e-05
0.00013584
3.18562e-05
0.000146005
3.17364e-05
0.000222519
0.000234888
0.000234116
0.000144376
0.000234116
0.000160158
0.000218178
0.00022252
0.000234889
0.000234116
0.000144366
0.000234116
0.000160148
0.000218178
0.000146009
3.1737e-05
3.18565e-05
0.000135854
0.000146009
3.17364e-05
3.18561e-05
0.000135854
1.33725e-05
1.33192e-05
1.33719e-05
1.33186e-05
0.000238885