/*--------------------------------*- C++ -*----------------------------------*\
| =========                 |                                                 |
| \\      /  F ield         | OpenFOAM: The Open Source CFD Toolbox           |
|  \\    /   O peration     | Version:  2206                                  |
|   \\  /    A nd           | Website:  www.openfoam.com                      |
|    \\/     M anipulation  |                                                 |
\*---------------------------------------------------------------------------*/
FoamFile
{
    version     2.0;
    format      ascii;
    arch        "LSB;label=32;scalar=64";
    class       volScalarField;
    location    "3.5";
    object      p;
}
// * * * * * * * * * * * * * * * * * * * * * * * * * * * * * * * * * * * * * //

dimensions      [0 2 -2 0 0 0 0];

internalField   nonuniform List<scalar> 
171728
(
0.000230654
0.000217743
0.000224936
0.000224935
0.000236567
0.00020172
0.000236534
0.000224936
0.00022494
0.000236539
0.000224941
0.000224943
0.000224933
0.000236547
0.000224935
0.000248059
0.000248036
0.000198783
0.000184505
0.000184515
0.00018037
0.000258542
0.000182303
0.000256643
0.000257759
0.000184325
0.000180387
0.000258522
0.000182313
0.000256613
0.000217739
0.000217747
0.000217748
0.000200867
0.000239183
0.000224909
0.00022641
0.000205214
0.000226384
0.000246958
0.000257735
0.00018434
0.000200887
0.000224913
0.000239172
0.000226409
0.000226389
0.000205235
0.000246969
0.000254017
0.000254033
0.000204685
0.000190379
0.000190376
0.000251854
0.000178397
0.00025183
0.00017841
0.000233604
0.000187413
0.000187408
0.000251046
0.000251046
0.000181307
0.00025484
0.000181305
0.000254839
0.000257737
0.000184332
0.000257726
0.000184345
0.000253945
0.000253936
0.000204695
0.000190447
0.000190451
0.000180368
0.000258557
0.000182292
0.000256646
0.000201004
0.000239108
0.000224914
0.000226414
0.00020529
0.000226384
0.000246836
0.000200991
0.000239123
0.000224914
0.000226413
0.000205277
0.000226387
0.000246844
0.000253972
0.000253991
0.000204701
0.000190426
0.000190412
0.000257787
0.000184301
0.000201035
0.000239075
0.000224918
0.000226404
0.000205308
0.000226391
0.000246789
0.000180386
0.000258526
0.000182313
0.000256615
0.000201035
0.000224921
0.000239083
0.000226414
0.000226392
0.000205312
0.000246795
0.00018032
0.000258607
0.00018225
0.000256726
0.00020085
0.000224908
0.000239216
0.000226417
0.000226387
0.000205177
0.000246971
0.000180318
0.000258625
0.000182246
0.000256732
0.000253948
0.000253983
0.000204689
0.000190447
0.000190425
0.000257779
0.000184305
0.000200863
0.00022491
0.000239217
0.000226418
0.000226389
0.0002052
0.000246988
0.000180317
0.000258598
0.000182263
0.000256737
0.000180315
0.000258635
0.000182243
0.000256742
0.000257803
0.000184283
0.000257819
0.000184279
0.000255051
0.000182539
0.00018254
0.000250138
0.00025014
0.000177329
0.000183861
0.000249624
0.000241238
0.000183062
0.000190176
0.000242922
0.000177946
0.000183867
0.000249636
0.000241222
0.00018308
0.00019019
0.000242906
0.000177922
0.000175875
0.00024865
0.000248649
0.000181088
0.000181092
0.000253566
0.000244406
0.000191622
0.000249557
0.000179408
0.00024273
0.000185318
0.000251096
0.000244393
0.00019163
0.000249544
0.000179383
0.000242719
0.000185323
0.000251114
0.000257962
0.000186679
0.000181439
0.000258078
0.000258157
0.000257831
0.000186645
0.000182876
0.000180808
0.000258609
0.000179858
0.000257564
0.000258998
0.000181356
0.000259984
0.000260047
0.000184379
0.000185144
0.000178875
0.000256723
0.000256392
0.000185177
0.00017994
0.000256525
0.000182828
0.000259211
0.000257939
0.00018146
0.000186695
0.00025806
0.000257812
0.000258142
0.000186672
0.000182901
0.00018082
0.000258579
0.000179878
0.000257529
0.000258979
0.000181373
0.000259973
0.00026003
0.000184399
0.000185175
0.000178896
0.00025636
0.000256705
0.000179961
0.000185208
0.000256484
0.000182847
0.000259186
0.00026098
0.00018841
0.000188409
0.00025607
0.000256076
0.000183205
0.000189712
0.000255514
0.000247191
0.00018888
0.000248877
0.000183841
0.000195988
0.000189713
0.000255548
0.000247191
0.000188871
0.00024887
0.000183807
0.000195987
0.000181718
0.000254596
0.000254604
0.000259512
0.000186918
0.000186915
0.000250343
0.000197482
0.000255491
0.000185335
0.00025698
0.000248669
0.000191194
0.000250332
0.000197487
0.000255492
0.000185306
0.000257005
0.000248664
0.000191197
0.000176952
0.00025335
0.000176971
0.000253337
0.000178787
0.000251623
0.000251628
0.000256536
0.000183993
0.000183992
0.000247384
0.000182347
0.000194526
0.000252532
0.000188242
0.0002457
0.000254048
0.000247377
0.000182316
0.000194527
0.000252544
0.000188244
0.000245699
0.00025408
0.000258023
0.000185451
0.000185449
0.000180248
0.000253107
0.000253115
0.000186779
0.000244216
0.000252572
0.000185957
0.000245891
0.000193073
0.000180871
0.000186782
0.000244211
0.000252598
0.000185957
0.000245882
0.000193076
0.000180843
0.000256323
0.000179848
0.000256334
0.000179852
0.000182838
0.000259183
0.000182852
0.000259179
0.000260914
0.000188462
0.000188463
0.000255995
0.000255997
0.000183246
0.000189749
0.000255507
0.000188954
0.000247124
0.000196064
0.000183832
0.000248806
0.000189754
0.00025553
0.000188961
0.000247115
0.000196074
0.000183819
0.000248798
0.000250264
0.000197554
0.000255392
0.000185316
0.000248578
0.000191232
0.000256966
0.000250255
0.000197562
0.000255389
0.000185311
0.000248571
0.000191239
0.000256987
0.000181761
0.000254538
0.00025454
0.000186975
0.000186977
0.000259455
0.000257963
0.000186675
0.000181438
0.000258082
0.000258173
0.000257838
0.000186646
0.000182854
0.000180792
0.000258618
0.000179845
0.000257574
0.000259019
0.00018135
0.000260005
0.000260062
0.000184366
0.000185131
0.000178873
0.000256741
0.000256396
0.000185174
0.000179935
0.000256513
0.000260935
0.000188446
0.000188441
0.000256023
0.000256025
0.000183231
0.00018975
0.00025553
0.00018893
0.000247141
0.000196045
0.000183822
0.000248815
0.000189726
0.000255532
0.000188918
0.000247164
0.000183847
0.000196024
0.000248845
0.000250269
0.00019754
0.000255424
0.000185306
0.000248598
0.000256991
0.000191233
0.000250298
0.000197517
0.000255445
0.000185324
0.00025699
0.000248621
0.000191209
0.000181749
0.000254565
0.000254567
0.000186957
0.000186952
0.000259478
0.000182811
0.000259239
0.000257931
0.000186698
0.000181459
0.000258064
0.000258146
0.000257811
0.000186671
0.000182896
0.000180819
0.000258586
0.000179875
0.000257538
0.000258981
0.000181372
0.000259975
0.000260033
0.000184397
0.000185172
0.000178894
0.000256707
0.000256361
0.000185209
0.00017996
0.000256484
0.000258037
0.000181379
0.000186597
0.000258164
0.000257911
0.000258267
0.000186561
0.0001828
0.000180754
0.000258688
0.000179803
0.00025765
0.000259084
0.000181298
0.000260053
0.000260124
0.000184302
0.000185057
0.000178831
0.000256485
0.000256785
0.000179891
0.000185079
0.000256622
0.000258085
0.000186591
0.000181388
0.000258173
0.000258259
0.000257952
0.000186561
0.000182772
0.000180737
0.000258722
0.000179768
0.000257673
0.00025915
0.00018129
0.000260101
0.000260205
0.000184293
0.000185042
0.000178827
0.000256792
0.000256497
0.000185076
0.000179882
0.000256616
0.000260927
0.000188455
0.000188449
0.00025601
0.000256016
0.000183235
0.000189758
0.000255525
0.000188954
0.000247125
0.000196067
0.000183816
0.000248804
0.000189731
0.000255531
0.000188925
0.000247153
0.000183824
0.000196036
0.000248831
0.000250261
0.000197558
0.000255398
0.000185301
0.000248581
0.000256986
0.000191241
0.000250285
0.00019753
0.000255431
0.000185302
0.000256986
0.000248607
0.000191215
0.000181751
0.000254553
0.000254559
0.000186968
0.00018696
0.000259471
0.00018281
0.000259225
0.000258042
0.000181389
0.000186603
0.000258152
0.000257896
0.000258242
0.00018658
0.000182805
0.000180759
0.000258675
0.000179805
0.000257633
0.00025907
0.000181311
0.000260038
0.000260107
0.000184323
0.000185057
0.000178827
0.000256471
0.00025682
0.000179887
0.000185077
0.000256587
0.000258061
0.000181375
0.000186597
0.000258159
0.000257924
0.000258263
0.000186568
0.000182771
0.000180732
0.000258721
0.000179779
0.000257676
0.000259119
0.000181288
0.000260081
0.000260155
0.000184296
0.000185035
0.000178826
0.000256504
0.000256813
0.000179881
0.000185068
0.000256628
0.00018278
0.000259276
0.000182774
0.000259275
0.000202902
0.000235498
0.000235512
0.000197316
0.000232252
0.000194137
0.000194127
0.00021982
0.000219822
0.000219213
0.000221289
0.000221292
0.000223858
0.000222386
0.000208576
0.000241458
0.000241472
0.0002032
0.000238281
0.000199981
0.000199967
0.000236752
0.000235086
0.000198513
0.000198499
0.000207174
0.00023996
0.000239972
0.000208772
0.000241384
0.000241386
0.000203215
0.000200023
0.000200008
0.000238148
0.000208713
0.000241422
0.000241392
0.000203224
0.000200012
0.000199994
0.000238193
0.000208744
0.000241416
0.000241388
0.000203214
0.000200022
0.0002
0.000238174
0.000233754
0.000232128
0.000195596
0.000195584
0.00020433
0.000236986
0.000236998
0.000219827
0.000219831
0.000219211
0.000221298
0.000221302
0.00022386
0.000222387
0.00021982
0.000219827
0.00021922
0.000221289
0.000221296
0.000223861
0.000222389
0.000219826
0.000219831
0.000219217
0.000221302
0.000221306
0.000223863
0.00022239
0.000248353
0.000201753
0.000188962
0.000248398
0.000247207
0.000247083
0.000189245
0.000186194
0.000252198
0.000203708
0.000245606
0.000184791
0.000198944
0.00025028
0.000251722
0.000200488
0.00024063
0.000186274
0.000253657
0.000247041
0.000187695
0.000187754
0.000199337
0.000245774
0.000245642
0.000200226
0.000187471
0.000246913
0.000248343
0.000188955
0.000201787
0.000248385
0.000247081
0.000247176
0.000189243
0.000186197
0.000252202
0.000203719
0.000245576
0.000184782
0.000198992
0.000250272
0.000251705
0.000200557
0.000240608
0.00018627
0.000253656
0.00024699
0.000187704
0.000187747
0.000199334
0.000245653
0.000245762
0.000187463
0.000200241
0.000246913
0.000239772
0.00023804
0.00020146
0.000201443
0.000242929
0.000242941
0.00021007
0.000205759
0.000200249
0.00023847
0.000238482
0.000235249
0.000197053
0.000197039
0.000239604
0.000237997
0.000201503
0.000201485
0.000210259
0.000242841
0.000242851
0.000248269
0.000201885
0.000189002
0.000248258
0.000247065
0.000246998
0.000189292
0.000186245
0.000252146
0.000203784
0.00024548
0.000199107
0.000184837
0.000250208
0.000251644
0.000200646
0.000240543
0.000186321
0.000246883
0.000253599
0.000187744
0.000187799
0.000199485
0.000245648
0.00024556
0.000200364
0.00018751
0.000246831
0.000248277
0.000201866
0.000189002
0.000248268
0.000247099
0.000247002
0.000189297
0.000186232
0.000252143
0.000203768
0.000245529
0.000199032
0.000184848
0.000250221
0.000251662
0.000200575
0.000240567
0.000186332
0.000246951
0.000187733
0.000253602
0.000187802
0.000199472
0.000245673
0.000245563
0.000200341
0.000187509
0.000246836
0.000239649
0.000238004
0.000201471
0.000201492
0.00024285
0.000242878
0.000210212
0.00024825
0.000201923
0.000189023
0.000248224
0.000247033
0.000246972
0.00018931
0.000186271
0.000252151
0.000203812
0.000245402
0.000199171
0.000184821
0.000250173
0.000251621
0.000200681
0.00024052
0.000186311
0.000246836
0.000253605
0.000187762
0.000187816
0.000199533
0.000245598
0.000245528
0.000200419
0.000187532
0.000246804
0.000248249
0.000189015
0.000201922
0.000248227
0.000246978
0.000247034
0.000189308
0.000186257
0.000252134
0.000203811
0.000245446
0.000199136
0.00018485
0.000250186
0.00025163
0.000200663
0.000240526
0.000186332
0.000246863
0.000187751
0.000253592
0.000187817
0.000199531
0.000245533
0.000245605
0.000187525
0.000200413
0.000246803
0.000248382
0.000188954
0.00020169
0.000248421
0.000247094
0.0002473
0.000189245
0.000186126
0.000252171
0.000203646
0.00024576
0.000184823
0.000198652
0.000250319
0.000251807
0.000200277
0.000240711
0.00018632
0.000253646
0.000247363
0.000187652
0.000187742
0.00019932
0.000245648
0.000245818
0.000187462
0.000200141
0.000246921
0.000239629
0.000238012
0.000201475
0.000201506
0.000242852
0.000242873
0.000210238
0.000248366
0.000188955
0.000201725
0.000248405
0.000247088
0.000247256
0.000189242
0.000186154
0.000252196
0.000203664
0.000245721
0.000184801
0.000198796
0.000250316
0.000251753
0.000200404
0.000240667
0.000186294
0.000253651
0.000247158
0.000187673
0.000187743
0.000199307
0.000245662
0.000245833
0.000187464
0.000200155
0.000246934
0.000117526
0.000124721
0.000124723
0.000136327
0.000123418
0.000130615
0.000130614
0.000142222
0.000129319
0.000136519
0.000136515
0.000148124
0.000135217
0.000142411
0.000142416
0.000154004
0.000141119
0.000148303
0.000148306
0.000159912
0.000147031
0.000154222
0.000154215
0.000165822
0.000152941
0.000160122
0.000160132
0.000171737
0.000158858
0.000166053
0.000166042
0.000177665
0.000164757
0.000171959
0.000171957
0.000183557
0.000170627
0.000177839
0.000177838
0.000189438
0.000176498
0.000183696
0.000183706
0.0001953
0.000182393
0.000189578
0.00018958
0.000201192
0.000188311
0.000195495
0.000195488
0.000207121
0.000194229
0.000201419
0.00020142
0.000213036
0.00020011
0.000207321
0.000207316
0.000218909
0.000205969
0.000213172
0.000213186
0.000224772
0.000211853
0.000219044
0.000219045
0.000136317
0.000107415
0.000124721
0.000124723
0.000129141
0.000129145
0.000136311
0.000107424
0.00012472
0.000124723
0.00012914
0.000129141
0.000124729
0.000129143
0.000129146
0.000136319
0.000107418
0.000124728
0.000129141
0.000129146
0.000107418
0.000142215
0.000113323
0.000130614
0.000130618
0.000135042
0.000135044
0.000142209
0.000113326
0.000130613
0.000130616
0.000135042
0.000135045
0.000130617
0.00013504
0.000135041
0.000142216
0.000113317
0.000130617
0.000135041
0.000135042
0.000113314
0.000148112
0.000119239
0.000136518
0.000136522
0.000140944
0.000140947
0.000148105
0.000119237
0.000136518
0.000136519
0.000140941
0.000140944
0.00013652
0.000140948
0.000140945
0.000148115
0.000119236
0.000136519
0.000140941
0.000140942
0.000119233
0.000154001
0.000125133
0.000142418
0.000142416
0.000146829
0.000146825
0.000153989
0.000125126
0.000142416
0.00014242
0.000146833
0.000146838
0.000142416
0.000146822
0.000146828
0.000154005
0.000125137
0.000142414
0.000146834
0.000146832
0.000125127
0.000159899
0.000131048
0.000148305
0.000148306
0.000152745
0.00015275
0.000159901
0.000131057
0.000148307
0.000148309
0.00015274
0.000152737
0.000148305
0.000152747
0.000152747
0.000159896
0.000131034
0.000148308
0.000152735
0.000152744
0.000131039
0.000165823
0.000136961
0.000154224
0.000154225
0.000158657
0.00015865
0.000165803
0.00013694
0.000154221
0.000154218
0.000158659
0.00015866
0.000154222
0.000158645
0.000158645
0.000165825
0.00013695
0.00015422
0.000158655
0.000158649
0.000136925
0.000171731
0.000142861
0.000160134
0.000160127
0.00016457
0.000164577
0.000171731
0.000142869
0.000160137
0.000160138
0.000164566
0.00016457
0.000160122
0.000164574
0.000164574
0.000171737
0.000142864
0.000160124
0.000164567
0.000164576
0.000142858
0.000177647
0.00014877
0.000166049
0.000166056
0.000170481
0.000170483
0.000177648
0.000148782
0.000166044
0.000166045
0.000170481
0.000170482
0.000166055
0.000170482
0.000170485
0.000177648
0.00014877
0.000166054
0.00017048
0.000170486
0.000148775
0.000183546
0.000154648
0.000171959
0.000171959
0.000176374
0.000176377
0.000183532
0.000154648
0.000171961
0.000171958
0.000176372
0.00017637
0.000171961
0.000176373
0.000176382
0.00018355
0.000154647
0.000171962
0.00017637
0.000176383
0.000154651
0.000189418
0.000160505
0.000177841
0.00017784
0.000182232
0.00018223
0.000189414
0.000160504
0.000177838
0.000177839
0.000182229
0.00018224
0.000177849
0.000182228
0.000182236
0.000189428
0.000160519
0.000177842
0.000182238
0.000182232
0.000160497
0.000195289
0.000166389
0.000183702
0.000183698
0.000188102
0.000188105
0.000195284
0.000166398
0.000183701
0.000183709
0.0001881
0.000188109
0.000183702
0.000188102
0.000188108
0.000195306
0.000166406
0.000183699
0.000188108
0.000188108
0.000166387
0.000201194
0.000172305
0.000189575
0.00018958
0.000194014
0.000194015
0.000201188
0.00017232
0.000189572
0.000189581
0.000194013
0.000194012
0.000189585
0.000194013
0.000194012
0.000201185
0.000172314
0.000189582
0.000194007
0.000194011
0.000172308
0.00020713
0.000178251
0.000195494
0.000195497
0.000199943
0.000199941
0.00020712
0.000178257
0.000195492
0.000195491
0.00019994
0.000199937
0.000195493
0.00019994
0.000199937
0.000207123
0.000178242
0.000195492
0.000199938
0.000199937
0.000178227
0.000213015
0.000184152
0.000201423
0.000201421
0.000205851
0.000205847
0.000212998
0.00018414
0.000201421
0.00020142
0.000205856
0.000205846
0.000201421
0.000205846
0.000205849
0.00021302
0.00018414
0.000201422
0.000205844
0.000205848
0.00018414
0.000218897
0.000189987
0.000207327
0.000207319
0.000211713
0.000211715
0.000218888
0.000189984
0.00020732
0.000207319
0.000211716
0.000211717
0.000207323
0.000211713
0.000211721
0.000218899
0.000189991
0.000207321
0.000211721
0.000211723
0.000189988
0.000224764
0.000195854
0.00021318
0.000213179
0.000217578
0.000217577
0.000224756
0.000195862
0.000213173
0.000213185
0.000217578
0.000217581
0.000213187
0.000217575
0.000217579
0.00022477
0.000195854
0.000213186
0.000217577
0.00021758
0.000195848
0.000230651
0.000201741
0.000219047
0.000219046
0.000223466
0.000223465
0.000230652
0.000201746
0.000219047
0.000219048
0.000223464
0.000223467
0.000219046
0.00022346
0.000223456
0.000230652
0.000201738
0.000219046
0.000223459
0.000223456
8.01688e-05
0.000158303
8.21028e-05
0.000156394
0.000157508
8.41334e-05
8.01634e-05
0.000158308
8.20896e-05
0.000156401
0.000117527
0.000117527
0.000117525
0.000121944
0.000121943
0.000121946
0.000121946
0.000100822
0.000138871
0.000124696
0.000126197
0.000105084
0.000126174
0.000146596
0.000157505
8.41289e-05
0.000100869
0.000124701
0.000138843
0.000126197
0.000126178
0.000105112
0.000146558
0.000153712
0.000153705
0.000104486
9.0261e-05
9.02735e-05
8.60437e-05
0.000164194
0.000162307
8.79628e-05
0.000163397
8.99994e-05
8.60529e-05
0.000164193
0.000162299
8.79645e-05
0.000123418
0.00012342
0.000123421
0.000127843
0.000127844
0.000127847
0.000127844
0.000106658
0.000144733
0.000130596
0.000132088
0.000152423
0.000110944
0.000132069
0.000163401
9.00018e-05
0.000106654
0.000130597
0.000144725
0.000132089
0.000152413
0.000132071
0.000110948
0.000159588
0.000159591
0.000110355
9.61098e-05
9.611e-05
9.19711e-05
0.000170106
0.000168205
9.38898e-05
0.000169312
9.59279e-05
9.19743e-05
0.000170092
0.000168197
9.3877e-05
0.000129319
0.000129324
0.000129319
0.000133743
0.000133744
0.000133749
0.000133744
0.000112597
0.000150682
0.000136495
0.000137996
0.000158411
0.000116877
0.000137971
0.000169298
9.59131e-05
0.000112514
0.000136495
0.000150683
0.000137988
0.00015843
0.000137968
0.000116834
0.000165538
0.000165549
0.000116279
0.000102032
0.000102012
9.7881e-05
0.000175957
0.000174033
9.98086e-05
0.000175146
0.000101831
9.78878e-05
0.000175982
0.000174078
9.97945e-05
0.000135218
0.000135221
0.00013522
0.000139642
0.000139642
0.000139646
0.000139644
0.000118518
0.000156471
0.000142395
0.000143879
0.000164152
0.000122786
0.000143862
0.000175195
0.000101835
0.000118504
0.000142394
0.000156541
0.000143889
0.000164248
0.000143867
0.000122789
0.000171344
0.000171381
0.000122182
0.000107953
0.000107941
0.00010372
0.00018195
0.000180068
0.000105626
0.00018115
0.000107672
0.000103751
0.000181895
0.000179993
0.000105651
0.000141118
0.000141125
0.000141121
0.000145553
0.000145555
0.000145559
0.000145555
0.000124155
0.000162578
0.000148277
0.000149787
0.000170356
0.000128536
0.000149758
0.000181083
0.000107699
0.000124275
0.000148286
0.000162441
0.00014978
0.000170179
0.00014976
0.000128621
0.000177362
0.000177324
0.000128082
0.000113766
0.000113794
0.000109663
0.000187837
0.00018592
0.000111592
0.000187011
0.000113618
0.000109626
0.000187885
0.000185996
0.000111545
0.000147033
0.000147037
0.000147034
0.000151462
0.000151463
0.000151466
0.000151466
0.00013027
0.000168365
0.000154197
0.000155696
0.000176098
0.000134566
0.000155674
0.000187073
0.000113572
0.00013011
0.000154192
0.000168452
0.000155696
0.000176222
0.000155673
0.00013448
0.000183218
0.000183256
0.000133989
0.00011973
0.000119696
0.000115528
0.000193783
0.000191897
0.000117447
0.000192979
0.00011947
0.00011557
0.00019376
0.000191866
0.00011747
0.000152939
0.000152944
0.000152945
0.000157381
0.000157378
0.000157384
0.000157382
0.000135786
0.000174401
0.000160098
0.000161601
0.000182192
0.000140259
0.000161575
0.00019296
0.000119517
0.000135912
0.000160107
0.000174376
0.000161609
0.000182173
0.000161585
0.000140366
0.00018919
0.0001892
0.000139882
0.000125554
0.00012555
0.000121469
0.000199702
0.000197806
0.000123379
0.000198894
0.000125426
0.00012145
0.000199698
0.000197815
0.000123344
0.000158857
0.000158862
0.000158861
0.000163285
0.000163284
0.000163287
0.000163287
0.000142018
0.000180306
0.000166026
0.000167528
0.000188099
0.000146352
0.000167501
0.000198891
0.000125395
0.000141949
0.000166021
0.000180276
0.000167518
0.000188072
0.000167496
0.000146313
0.00019511
0.000195117
0.000145823
0.000131527
0.000131517
0.000127454
0.000205509
0.000203585
0.000129381
0.000204702
0.000131405
0.000127445
0.000205523
0.000203602
0.000129362
0.000164757
0.000164759
0.00016476
0.000169162
0.000169162
0.000169166
0.000169163
0.000148182
0.000186026
0.000171932
0.000173438
0.000193703
0.000152428
0.000173406
0.000204726
0.000131391
0.000148106
0.000171932
0.000186073
0.000173432
0.000193784
0.000173406
0.000152358
0.000200906
0.000200934
0.000151718
0.000137534
0.000137516
0.000133349
0.000211277
0.000209364
0.000135295
0.000210491
0.0001373
0.000133337
0.00021129
0.000209384
0.000135266
0.000170625
0.00017063
0.000170628
0.000175028
0.000175025
0.000175029
0.000175029
0.000154133
0.000191758
0.000177822
0.000179303
0.000199428
0.000158335
0.000179288
0.000210527
0.00013729
0.000154074
0.000177821
0.000191832
0.000179299
0.000199495
0.000179286
0.000158273
0.000206704
0.000206723
0.000157568
0.000143442
0.00014343
0.000139139
0.000217232
0.000215325
0.000141073
0.000216438
0.000143095
0.000139144
0.000217231
0.000215324
0.000141062
0.000176496
0.000176498
0.000176501
0.000180917
0.000180913
0.000180916
0.000180919
0.000159729
0.000197783
0.000183682
0.000185162
0.000205458
0.000164021
0.000185147
0.000216456
0.000143118
0.000159762
0.000183687
0.000197799
0.000185172
0.000205469
0.000185155
0.00016406
0.000212641
0.000212649
0.000163431
0.0001492
0.000149205
0.00014492
0.000223293
0.000221435
0.000146842
0.000222465
0.000148908
0.000144944
0.000223273
0.000221408
0.00014684
0.000182391
0.000182393
0.000182397
0.00018683
0.000186832
0.000186835
0.000186839
0.000165274
0.000203905
0.000189555
0.000191054
0.000211712
0.000169734
0.000191029
0.000222446
0.00014892
0.000165337
0.00018956
0.000203832
0.000191054
0.000211632
0.000191031
0.000169795
0.000218664
0.000218658
0.000169347
0.000155018
0.000155018
0.000150846
0.000229237
0.000227443
0.000152776
0.000228396
0.000154835
0.000150834
0.000229238
0.00022743
0.000152753
0.000188313
0.000188316
0.00018832
0.000192752
0.000192756
0.000192755
0.000192758
0.000171168
0.000209858
0.000195463
0.000196978
0.000217723
0.000175655
0.000196944
0.000228391
0.00015482
0.000171065
0.000195461
0.00020986
0.000196971
0.00021776
0.000196943
0.000175628
0.000224589
0.000224609
0.000175265
0.000160926
0.000160908
0.000156885
0.000235051
0.000233139
0.000158812
0.000234229
0.000160829
0.000156869
0.000235077
0.000233196
0.000158781
0.000194234
0.000194234
0.000194234
0.000198644
0.000198648
0.000198649
0.000198648
0.000177375
0.000215649
0.000201387
0.000202896
0.000223444
0.000181727
0.000202864
0.000234264
0.000160812
0.00017733
0.00020139
0.000215693
0.000202898
0.000223524
0.000202868
0.000181712
0.000230484
0.000230499
0.000181198
0.000166904
0.000166901
0.000162825
0.000240804
0.000238862
0.000164778
0.000239999
0.00016678
0.000162831
0.00024079
0.000238868
0.000164772
0.000200115
0.000200116
0.000200114
0.000204501
0.000204507
0.000204508
0.000204511
0.000183557
0.000221371
0.000207294
0.00020879
0.000229035
0.000187773
0.000208766
0.00024001
0.000166785
0.000183506
0.000207292
0.000221393
0.000208791
0.000229085
0.000208766
0.000187735
0.000236243
0.000236261
0.000187063
0.000172899
0.00017288
0.000168653
0.000246682
0.000244762
0.00017057
0.000245884
0.000172591
0.000168669
0.000246663
0.000244758
0.000170563
0.000205974
0.000205974
0.000205977
0.000210381
0.000210381
0.000210383
0.000210389
0.000189339
0.000227209
0.000213163
0.00021464
0.000234859
0.000193564
0.000214626
0.000245881
0.00017262
0.000189412
0.000213171
0.000227178
0.000214649
0.000234843
0.000214635
0.00019364
0.000242084
0.000242078
0.000192918
0.000178735
0.000178753
0.00017445
0.000252663
0.000250782
0.000176369
0.000251874
0.000178402
0.000174482
0.000252631
0.000250731
0.000176382
0.000211851
0.000211856
0.00021186
0.00021627
0.000216267
0.000216275
0.000216277
0.00019496
0.000233234
0.000219022
0.000220515
0.000240953
0.000199312
0.00022049
0.00025183
0.000178425
0.000195007
0.000219028
0.000233169
0.000220514
0.000240868
0.000220493
0.000199351
0.000157497
8.41338e-05
0.000157507
8.41272e-05
0.000153703
0.000153714
0.000104477
9.02461e-05
9.02401e-05
8.70796e-05
0.000160421
8.70723e-05
0.000160432
0.000139262
9.31864e-05
9.31817e-05
0.000156626
0.000156639
8.01686e-05
0.000158305
8.20976e-05
0.000156395
0.00010083
0.000138862
0.000124695
0.000126197
0.000105095
0.000126173
0.000146576
0.00010082
0.000138863
0.000124694
0.0001262
0.000105098
0.000126173
0.00014658
0.000159324
8.50368e-05
0.000161221
8.31227e-05
0.000159321
8.50369e-05
0.000161225
8.3124e-05
0.000149455
0.000127668
0.000108029
0.000129119
0.00014177
0.000127646
0.000103765
0.000149458
0.000127672
0.000108041
0.00012912
0.000141769
0.000127647
0.000103759
0.000153717
0.000153709
0.000104484
9.024e-05
9.02527e-05
0.000157503
8.41394e-05
8.70805e-05
0.000160431
0.000139256
9.31863e-05
9.32064e-05
0.000156637
0.000156625
8.70926e-05
0.000160421
0.000100813
0.00013886
0.000124696
0.000126196
0.000105089
0.000126173
0.000146587
8.01607e-05
0.000158304
8.20938e-05
0.000156403
0.000100807
0.000124696
0.000138858
0.000126198
0.000126173
0.000105094
0.000146586
0.000159328
8.50238e-05
0.00016123
8.31191e-05
0.000149469
0.000127667
0.000108026
0.00012912
0.00014177
0.000127647
0.000103751
0.00015933
8.5032e-05
0.000161228
8.31159e-05
0.00014947
0.000127668
0.00012912
0.000108028
0.000127647
0.00014177
0.000103744
8.01655e-05
0.00015831
8.20856e-05
0.000156413
0.000100816
0.0001247
0.000138879
0.000126202
0.000126178
0.000105103
0.000146602
8.01641e-05
0.000158319
8.21104e-05
0.000156414
0.000149456
0.000127671
0.000108042
0.000129124
0.000141772
0.00012765
0.000103793
0.000159322
8.50381e-05
0.000161224
8.31159e-05
0.000149462
0.000127675
0.000129126
0.000108054
0.000127652
0.000141771
0.000103785
0.000159323
8.50524e-05
0.000161228
8.31151e-05
0.000153711
0.000153687
0.000104477
9.02404e-05
9.02756e-05
0.000157484
8.41551e-05
8.7067e-05
0.000160432
0.000139264
9.31755e-05
9.32133e-05
0.000156639
0.000156602
8.70974e-05
0.000160401
0.000100866
0.000124704
0.000138847
0.000126203
0.00012618
0.000105125
0.000146562
8.01763e-05
0.000158288
8.21047e-05
0.000156397
8.01781e-05
0.000158304
8.2114e-05
0.000156395
0.000149414
0.000127669
0.000129125
0.00010805
0.000127652
0.000141744
0.000103807
0.000149417
0.000127675
0.000129126
0.000108063
0.000127654
0.000141746
0.000103803
0.000159312
8.50434e-05
0.000161204
8.31236e-05
0.00015931
8.50482e-05
0.000161217
8.31261e-05
0.00015751
8.41477e-05
0.000157502
8.41573e-05
0.00013927
9.32074e-05
9.32139e-05
0.000156625
0.000156617
8.70917e-05
0.000160423
8.70983e-05
0.000160417
0.000163392
9.00006e-05
0.000163396
9.00038e-05
0.000159598
0.000159604
0.000110364
9.61086e-05
9.6113e-05
9.29556e-05
0.000166363
9.29662e-05
0.000166355
0.000145165
9.90623e-05
9.9073e-05
0.000162571
0.000162566
8.60452e-05
0.000164194
0.000162305
8.79608e-05
0.000106657
0.00014475
0.000130593
0.00013209
0.000152445
0.000110939
0.000132069
0.00010665
0.000144741
0.000130593
0.000132092
0.000152446
0.00011095
0.000132069
0.000165265
9.09121e-05
0.000167166
8.89921e-05
0.000165262
9.09069e-05
0.000167169
8.89921e-05
0.000155448
0.000133567
0.000113888
0.000135018
0.000147734
0.000133544
0.000109598
0.00015545
0.000133568
0.00011389
0.000135019
0.000147727
0.000133544
0.00010959
0.000159604
0.000159584
0.000110366
9.61052e-05
9.61218e-05
0.000163382
9.00096e-05
9.29446e-05
0.000166371
0.000145158
9.90475e-05
9.90517e-05
0.000162581
0.000162572
9.29415e-05
0.000166366
0.000106674
0.000144739
0.000130594
0.00013209
0.000152449
0.000110956
0.000132071
8.60492e-05
0.000164197
0.000162302
8.7971e-05
0.00010667
0.000130595
0.000144747
0.000132093
0.000152454
0.000132073
0.000110961
0.00016524
9.09207e-05
0.000167149
8.90107e-05
0.000155418
0.000133567
0.000113917
0.000135022
0.000147703
0.000133548
0.00010964
0.000165243
9.09275e-05
0.00016715
8.90073e-05
0.000155421
0.00013357
0.000135025
0.000113922
0.00013355
0.000147704
0.000109638
8.60414e-05
0.000164189
0.0001623
8.79531e-05
0.000106643
0.000130597
0.000144733
0.000132088
0.00015243
0.00013207
0.000110941
8.60377e-05
0.000164189
0.000162303
8.79607e-05
0.000155466
0.000133563
0.000113867
0.000135018
0.000147735
0.000133543
0.000109558
0.000165287
9.08892e-05
0.000167174
8.89686e-05
0.00015548
0.000133564
0.00013502
0.000113848
0.000133544
0.000147753
0.000109539
0.000165292
9.0888e-05
0.000167187
8.89662e-05
0.000159611
0.000159577
0.000110363
9.61106e-05
9.61277e-05
0.000163376
9.00139e-05
9.29603e-05
0.000166356
0.000145166
9.90691e-05
9.90636e-05
0.000162567
0.000162566
9.29468e-05
0.000166362
0.000106643
0.000130597
0.000144723
0.000132089
0.000152417
0.00013207
0.000110946
8.60353e-05
0.000164182
0.000162303
8.79548e-05
8.60357e-05
0.00016419
0.000162302
8.79494e-05
0.000155466
0.000133565
0.000135021
0.000113876
0.000133546
0.000147728
0.000109549
0.000155475
0.000133565
0.000135021
0.000113856
0.000133545
0.000147741
0.000109532
0.000165297
9.08898e-05
0.000167171
8.89531e-05
0.000165298
9.08752e-05
0.000167188
8.89533e-05
0.000163384
8.99996e-05
0.000163389
8.99987e-05
0.000145173
9.90321e-05
9.903e-05
0.000162589
0.000162595
9.29282e-05