/*--------------------------------*- C++ -*----------------------------------*\
| =========                 |                                                 |
| \\      /  F ield         | OpenFOAM: The Open Source CFD Toolbox           |
|  \\    /   O peration     | Version:  2206                                  |
|   \\  /    A nd           | Website:  www.openfoam.com                      |
|    \\/     M anipulation  |                                                 |
\*---------------------------------------------------------------------------*/
FoamFile
{
    version     2.0;
    format      ascii;
    arch        "LSB;label=32;scalar=64";
    class       volScalarField;
    location    "3.5";
    object      Uy;
}
// * * * * * * * * * * * * * * * * * * * * * * * * * * * * * * * * * * * * * //

dimensions      [0 1 -1 0 0 0 0];

internalField   nonuniform List<scalar> 
171728
(
0.000106599
0.000114114
-0.000181582
-0.000232978
1.39368e-05
8.13413e-06
-1.35332e-05
-4.38151e-05
8.15246e-07
6.84268e-07
-1.00819e-06
-3.19933e-05
-1.27039e-07
2.73164e-07
-1.78119e-07
-3.15218e-05
-1.83643e-07
2.59898e-07
-1.33217e-07
-3.14989e-05
-1.85678e-07
2.65968e-07
-1.31429e-07
-3.1498e-05
-1.86075e-07
2.55433e-07
-1.3148e-07
-3.14986e-05
-1.87103e-07
2.54034e-07
-1.32077e-07
-3.15007e-05
-1.87789e-07
2.53799e-07
-1.32096e-07
-3.15009e-05
-1.86281e-07
2.53047e-07
-1.30119e-07
-3.15e-05
-1.81588e-07
2.5322e-07
-1.29429e-07
-3.14993e-05
-1.89438e-07
2.52229e-07
-1.30266e-07
-3.14985e-05
-1.90754e-07
2.50906e-07
-1.30874e-07
-3.14988e-05
-1.90389e-07
2.51115e-07
-1.31032e-07
-3.14981e-05
-1.87754e-07
2.57913e-07
-1.32374e-07
-3.14993e-05
-1.8681e-07
2.56742e-07
-1.32468e-07
-3.14994e-05
-1.88128e-07
2.55094e-07
-1.32537e-07
-3.15002e-05
-1.86056e-07
2.54817e-07
-1.29953e-07
-3.14995e-05
-1.77571e-07
2.68626e-07
-1.2832e-07
-3.14975e-05
-1.80361e-07
2.41057e-07
-1.27252e-07
-3.1497e-05
-1.83554e-07
2.54094e-07
-1.3063e-07
-3.14992e-05
-1.89028e-07
2.51189e-07
-1.30583e-07
-3.14999e-05
-1.88424e-07
2.53315e-07
-1.33428e-07
-3.15012e-05
-1.88369e-07
2.53001e-07
-1.32824e-07
-3.15015e-05
-1.88652e-07
2.52344e-07
-1.32298e-07
-3.15007e-05
-1.89193e-07
2.51489e-07
-1.31443e-07
-3.15002e-05
-1.89228e-07
2.503e-07
-1.29996e-07
-3.15003e-05
-1.8935e-07
2.51909e-07
-1.31454e-07
-3.14986e-05
-1.88853e-07
2.51214e-07
-1.30833e-07
-3.14985e-05
-1.8871e-07
2.53468e-07
-1.33403e-07
-3.15004e-05
-1.88773e-07
2.53913e-07
-1.32869e-07
-3.15002e-05
-1.88353e-07
2.54468e-07
-1.33182e-07
-3.15011e-05
-1.88739e-07
2.52166e-07
-1.31868e-07
-3.15008e-05
-1.89246e-07
2.4985e-07
-1.29788e-07
-3.15002e-05
-1.8892e-07
2.50721e-07
-1.30601e-07
-3.1501e-05
-1.89293e-07
2.50062e-07
-1.29667e-07
-3.14988e-05
-1.88746e-07
2.53091e-07
-1.33e-07
-3.15014e-05
-1.88883e-07
2.52031e-07
-1.31918e-07
-3.15007e-05
-1.88829e-07
2.53739e-07
-1.34721e-07
-3.15015e-05
-1.89331e-07
2.5317e-07
-1.33513e-07
-3.1504e-05
-1.8368e-07
2.53347e-07
-1.32924e-07
-3.1502e-05
-1.87193e-07
2.64254e-07
-1.3086e-07
-3.14993e-05
-1.88063e-07
2.52703e-07
-1.30007e-07
-3.14991e-05
-1.88944e-07
2.51637e-07
-1.30557e-07
-3.14998e-05
-1.88871e-07
2.51518e-07
-1.30393e-07
-3.14993e-05
-1.88237e-07
2.53566e-07
-1.32829e-07
-3.15007e-05
-1.88433e-07
2.52779e-07
-1.32446e-07
-3.15015e-05
-1.88537e-07
2.52907e-07
-1.31991e-07
-3.15018e-05
-1.88667e-07
2.52948e-07
-1.32203e-07
-3.15016e-05
-1.89177e-07
2.51677e-07
-1.30087e-07
-3.14993e-05
-1.89451e-07
2.51226e-07
-1.307e-07
-3.15004e-05
-1.89798e-07
2.50694e-07
-1.30389e-07
-3.14996e-05
-1.89429e-07
2.51945e-07
-1.31659e-07
-3.15003e-05
-1.89998e-07
2.48681e-07
-1.31519e-07
-3.15011e-05
-1.90739e-07
2.45374e-07
-1.32809e-07
-3.15032e-05
-1.89713e-07
2.52368e-07
-1.32455e-07
-3.15017e-05
-1.90718e-07
2.50903e-07
-1.293e-07
-3.14989e-05
-1.90865e-07
2.50097e-07
-1.27968e-07
-3.14988e-05
-1.91432e-07
2.49033e-07
-1.26231e-07
-3.14957e-05
-1.9049e-07
2.50806e-07
-1.28296e-07
-3.14977e-05
-1.90689e-07
2.49773e-07
-1.27257e-07
-3.14962e-05
-1.90363e-07
2.5131e-07
-1.29065e-07
-3.14978e-05
-1.90437e-07
2.51881e-07
-1.30006e-07
-3.14991e-05
-1.90251e-07
2.51201e-07
-1.29004e-07
-3.1499e-05
-1.90825e-07
2.51086e-07
-1.28918e-07
-3.1498e-05
-1.91104e-07
2.49512e-07
-1.2694e-07
-3.1497e-05
-1.90607e-07
2.50617e-07
-1.27045e-07
-3.14969e-05
-1.90528e-07
2.49565e-07
-1.25966e-07
-3.14959e-05
-1.89063e-07
2.52831e-07
-1.25143e-07
-3.14944e-05
-1.87093e-07
2.53549e-07
-1.17017e-07
-3.14874e-05
-1.88272e-07
2.53614e-07
-1.26607e-07
-3.14941e-05
-1.89689e-07
2.52667e-07
-1.29015e-07
-3.14978e-05
-1.90589e-07
2.5029e-07
-1.27475e-07
-3.14974e-05
-1.90721e-07
2.5006e-07
-1.27289e-07
-3.14969e-05
-1.91173e-07
2.49469e-07
-1.26876e-07
-3.14962e-05
-1.90855e-07
2.49918e-07
-1.27984e-07
-3.14958e-05
-1.90629e-07
2.50734e-07
-1.27185e-07
-3.14967e-05
-1.90429e-07
2.5175e-07
-1.29866e-07
-3.14981e-05
-1.90244e-07
2.51562e-07
-1.29682e-07
-3.14974e-05
-1.90457e-07
2.52209e-07
-1.29445e-07
-3.14991e-05
-1.90937e-07
2.50113e-07
-1.2762e-07
-3.14975e-05
-1.91004e-07
2.49402e-07
-1.2706e-07
-3.14974e-05
-1.91184e-07
2.49931e-07
-1.27418e-07
-3.1496e-05
-1.91021e-07
2.49382e-07
-1.26985e-07
-3.1496e-05
-1.90604e-07
2.50923e-07
-1.28576e-07
-3.14978e-05
-1.90453e-07
2.51629e-07
-1.29186e-07
-3.14978e-05
-1.90372e-07
2.51979e-07
-1.29563e-07
-3.14979e-05
-1.90772e-07
2.51338e-07
-1.28702e-07
-3.14979e-05
-1.90839e-07
2.50833e-07
-1.28738e-07
-3.14978e-05
-1.9046e-07
2.49706e-07
-1.26793e-07
-3.14968e-05
-1.9038e-07
2.49829e-07
-1.28013e-07
-3.14966e-05
-1.90854e-07
2.49756e-07
-1.31929e-07
-3.14947e-05
-3.15268e-07
1.83221e-07
-5.39643e-08
-3.13905e-05
-4.75195e-06
-2.57516e-07
2.13279e-06
-2.48253e-05
-4.88869e-05
-3.4279e-05
4.6114e-05
4.89762e-05
0.000142961
0.000163365
0.000163347
0.000142938
0.000130999
-0.000131024
9.36158e-05
9.3609e-05
-9.36554e-05
-9.36523e-05
0.000130991
-0.000131019
-0.000142981
-0.000163396
-0.000163384
-0.000142955
0.000232985
-1.30323e-05
0.000181454
0.000181496
2.65488e-05
2.65576e-05
0.000232926
-1.30208e-05
0.000114129
-0.000114194
1.60688e-05
-1.61175e-05
-0.000114192
1.60704e-05
-1.61138e-05
-0.000233018
1.30056e-05
-0.000181612
-2.65898e-05
-2.66022e-05
1.29917e-05
4.37605e-05
-3.15273e-05
1.35194e-05
1.35289e-05
1.86264e-06
1.86573e-06
4.37661e-05
-3.15344e-05
8.14407e-06
-8.18037e-06
1.15779e-06
-1.16173e-06
-8.16894e-06
1.15555e-06
-1.17114e-06
-4.38078e-05
3.15555e-05
-1.35353e-05
-1.86575e-06
-1.86636e-06
3.15501e-05
3.1962e-05
-3.22438e-05
1.00305e-06
1.00989e-06
2.37932e-07
2.47266e-07
3.19585e-05
-3.22433e-05
6.80997e-07
-6.91272e-07
2.96595e-07
-3.03404e-07
-6.87779e-07
2.98457e-07
-3.01145e-07
-3.19947e-05
3.22717e-05
-1.00762e-06
-2.35199e-07
-2.42479e-07
3.22645e-05
3.14979e-05
-3.22748e-05
1.79732e-07
1.87506e-07
1.41168e-07
1.45484e-07
3.14948e-05
-3.22701e-05
2.73664e-07
-2.78087e-07
2.55738e-07
-2.57305e-07
-2.75439e-07
2.59061e-07
-2.55057e-07
-3.15272e-05
3.23051e-05
-1.81677e-07
-1.34254e-07
-1.33858e-07
3.22982e-05
3.14775e-05
-3.22762e-05
1.38871e-07
1.44501e-07
1.38937e-07
1.45722e-07
3.14814e-05
-3.22637e-05
2.55359e-07
-2.56004e-07
2.55122e-07
-2.5506e-07
-2.54234e-07
2.62632e-07
-2.52658e-07
-3.15046e-05
3.23083e-05
-1.31733e-07
-1.30007e-07
-1.30236e-07
3.2302e-05
3.14774e-05
-3.22731e-05
1.39776e-07
1.55013e-07
1.39413e-07
1.41219e-07
3.14931e-05
-3.22722e-05
2.55602e-07
-2.55217e-07
2.56411e-07
-2.54615e-07
-2.52532e-07
2.57029e-07
-2.54262e-07
-3.15037e-05
3.23085e-05
-1.3005e-07
-1.29579e-07
-1.30153e-07
3.23008e-05
3.14804e-05
-3.22691e-05
1.40307e-07
1.40172e-07
1.39936e-07
1.40619e-07
3.14766e-05
-3.22764e-05
2.57718e-07
-2.54566e-07
2.5728e-07
-2.54912e-07
-2.53937e-07
2.54922e-07
-2.55893e-07
-3.15031e-05
3.23089e-05
-1.29777e-07
-1.29782e-07
-1.3129e-07
3.22991e-05
3.14762e-05
-3.22767e-05
1.39601e-07
1.38161e-07
1.37997e-07
1.38632e-07
3.14747e-05
-3.22773e-05
2.54429e-07
-2.55011e-07
2.53972e-07
-2.55852e-07
-2.5499e-07
2.54328e-07
-2.55638e-07
-3.15045e-05
3.23077e-05
-1.30382e-07
-1.30416e-07
-1.31398e-07
3.22996e-05
3.14738e-05
-3.2277e-05
1.35904e-07
1.37193e-07
1.36199e-07
1.36659e-07
3.14739e-05
-3.22772e-05
2.53736e-07
-2.56166e-07
2.54188e-07
-2.55052e-07
-2.56071e-07
2.548e-07
-2.55869e-07
-3.1505e-05
3.23092e-05
-1.30859e-07
-1.29452e-07
-1.30973e-07
3.23011e-05
3.14761e-05
-3.22544e-05
1.3829e-07
1.39037e-07
1.55183e-07
1.37177e-07
3.14739e-05
-3.22774e-05
2.56337e-07
-2.54013e-07
2.64824e-07
-2.52532e-07
-2.53522e-07
2.54556e-07
-2.54443e-07
-3.15038e-05
3.23105e-05
-1.29111e-07
-1.27554e-07
-1.29074e-07
3.23008e-05
3.14967e-05
-3.2278e-05
1.40899e-07
1.39714e-07
1.34285e-07
1.32648e-07
3.14725e-05
-3.22787e-05
2.57429e-07
-2.522e-07
2.51756e-07
-2.53602e-07
-2.52859e-07
2.53087e-07
-2.54147e-07
-3.15023e-05
3.23093e-05
-1.28008e-07
-1.2789e-07
-1.29188e-07
3.23008e-05
3.14703e-05
-3.22775e-05
1.33735e-07
1.37927e-07
1.33565e-07
1.42971e-07
3.14707e-05
-3.22807e-05
2.51643e-07
-2.53954e-07
2.5255e-07
-2.55903e-07
-2.53544e-07
2.52738e-07
-2.55189e-07
-3.15025e-05
3.23083e-05
-1.2855e-07
-1.29452e-07
-1.3212e-07
3.23009e-05
3.14716e-05
-3.22791e-05
1.31907e-07
1.46184e-07
1.31779e-07
1.46157e-07
3.14689e-05
-3.22811e-05
2.52198e-07
-2.55846e-07
2.51151e-07
-2.55734e-07
-2.53724e-07
2.5013e-07
-2.53399e-07
-3.15039e-05
3.23076e-05
-1.31491e-07
-1.28481e-07
-1.31792e-07
3.23001e-05
3.14749e-05
-3.22786e-05
1.35836e-07
1.45435e-07
1.35475e-07
1.40879e-07
3.14691e-05
-3.22748e-05
2.56599e-07
-2.56615e-07
2.55566e-07
-2.57277e-07
-2.5342e-07
2.56143e-07
-2.54414e-07
-3.15041e-05
3.23075e-05
-1.31164e-07
-1.30661e-07
-1.31197e-07
3.23008e-05
3.14797e-05
-3.22777e-05
1.40486e-07
1.42483e-07
1.3917e-07
1.54103e-07
3.14772e-05
-3.22534e-05
2.56135e-07
-2.56867e-07
2.55016e-07
-2.56498e-07
-2.54704e-07
2.66346e-07
-2.53884e-07
-3.15053e-05
3.23082e-05
-1.31357e-07
-1.30474e-07
-1.30483e-07
3.23021e-05
3.14801e-05
-3.22799e-05
1.39116e-07
1.3763e-07
1.35157e-07
1.37432e-07
3.14879e-05
-3.22808e-05
2.54915e-07
-2.55997e-07
2.53765e-07
-2.5607e-07
-2.539e-07
2.56009e-07
-2.55549e-07
-3.1505e-05
3.23088e-05
-1.30655e-07
-1.30102e-07
-1.30697e-07
3.2301e-05
3.14789e-05
-3.22787e-05
1.39979e-07
1.36646e-07
1.34673e-07
1.36851e-07
3.14738e-05
-3.22802e-05
2.53288e-07
-2.55725e-07
2.54131e-07
-2.53854e-07
-2.54684e-07
2.54888e-07
-2.53837e-07
-3.15049e-05
3.23098e-05
-1.30174e-07
-1.29357e-07
-1.29591e-07
3.2302e-05
3.14783e-05
-3.22673e-05
1.39703e-07
1.37201e-07
1.41819e-07
1.5077e-07
3.14761e-05
-3.22615e-05
2.54967e-07
-2.53737e-07
2.60666e-07
-2.51935e-07
-2.52249e-07
2.65455e-07
-2.51118e-07
-3.15039e-05
3.23125e-05
-1.28365e-07
-1.26508e-07
-1.28506e-07
3.23045e-05
3.14988e-05
-3.22692e-05
1.56639e-07
1.5418e-07
1.35459e-07
1.37458e-07
3.15001e-05
-3.22753e-05
2.64864e-07
-2.50589e-07
2.59872e-07
-2.51771e-07
-2.49817e-07
2.50446e-07
-2.51659e-07
-3.15021e-05
3.23117e-05
-1.28602e-07
-1.25164e-07
-1.36473e-07
3.23034e-05
3.149e-05
-3.22721e-05
1.38245e-07
1.31446e-07
1.48454e-07
1.43467e-07
3.14579e-05
-3.22819e-05
2.57417e-07
-2.52689e-07
2.49677e-07
-2.53206e-07
-2.51892e-07
2.53926e-07
-2.53813e-07
-3.15018e-05
3.231e-05
-1.3731e-07
-1.27811e-07
-1.30766e-07
3.23022e-05
3.14791e-05
-3.22729e-05
1.54307e-07
1.20629e-07
1.36406e-07
1.35978e-07
3.14678e-05
-3.22793e-05
2.56168e-07
-2.53076e-07
2.53039e-07
-2.55589e-07
-2.54257e-07
2.5231e-07
-2.56067e-07
-3.15031e-05
3.23082e-05
-1.30764e-07
-1.29852e-07
-1.31694e-07
3.22996e-05
3.14724e-05
-3.22745e-05
1.35023e-07
1.35323e-07
1.37916e-07
1.3895e-07
3.14724e-05
-3.22784e-05
2.52541e-07
-2.55322e-07
2.53469e-07
-2.57745e-07
-2.53676e-07
2.54458e-07
-2.56994e-07
-3.15041e-05
3.23077e-05
-1.29042e-07
-1.31642e-07
-1.32309e-07
3.22999e-05
3.14736e-05
-3.2274e-05
1.35987e-07
1.37389e-07
1.36556e-07
1.38283e-07
3.14749e-05
-3.22783e-05
2.52496e-07
-2.57053e-07
2.52891e-07
-2.57137e-07
-2.56353e-07
2.53844e-07
-2.57048e-07
-3.15065e-05
3.23073e-05
-1.31209e-07
-1.30794e-07
-1.30895e-07
3.22996e-05
3.14731e-05
-3.22762e-05
1.3497e-07
1.36582e-07
1.36314e-07
1.37565e-07
3.14743e-05
-3.22798e-05
2.5221e-07
-2.56564e-07
2.51776e-07
-2.5647e-07
-2.5539e-07
2.53407e-07
-2.55836e-07
-3.15059e-05
3.23084e-05
-1.30711e-07
-1.31084e-07
-1.31198e-07
3.23007e-05
3.14728e-05
-3.22764e-05
1.35423e-07
1.36658e-07
1.35142e-07
1.36604e-07
3.14742e-05
-3.22807e-05
2.52209e-07
-2.56468e-07
2.50746e-07
-2.55031e-07
-2.55127e-07
2.52025e-07
-2.5457e-07
-3.15063e-05
3.23096e-05
-1.30879e-07
-1.29469e-07
-1.30282e-07
3.23017e-05
3.14719e-05
-3.22757e-05
1.33539e-07
1.34904e-07
1.34556e-07
1.35498e-07
3.1473e-05
-3.22799e-05
2.50648e-07
-2.55205e-07
2.50556e-07
-2.55003e-07
-2.55196e-07
2.51609e-07
-2.55689e-07
-3.15047e-05
3.23087e-05
-1.31134e-07
-1.29091e-07
-1.31441e-07
3.23005e-05
3.1471e-05
-3.22767e-05
1.32476e-07
1.34305e-07
1.3452e-07
1.35628e-07
3.14724e-05
-3.22807e-05
2.50216e-07
-2.5445e-07
2.50416e-07
-2.55097e-07
-2.53143e-07
2.51787e-07
-2.54289e-07
-3.1504e-05
3.23095e-05
-1.2848e-07
-1.29509e-07
-1.29735e-07
3.23018e-05
3.14712e-05
-3.22759e-05
1.33764e-07
1.34942e-07
1.34674e-07
1.35458e-07
3.14722e-05
-3.22801e-05
2.51792e-07
-2.5596e-07
2.50497e-07
-2.54206e-07
-2.54802e-07
2.51131e-07
-2.53517e-07
-3.15041e-05
3.2309e-05
-1.3012e-07
-1.28279e-07
-1.28962e-07
3.23015e-05
3.14711e-05
-3.22746e-05
1.33811e-07
1.35057e-07
1.36595e-07
1.37642e-07
3.14718e-05
-3.22787e-05
2.50803e-07
-2.54688e-07
2.52261e-07
-2.57064e-07
-2.54236e-07
2.53499e-07
-2.56199e-07
-3.15035e-05
3.23075e-05
-1.29923e-07
-1.31163e-07
-1.31983e-07
3.22997e-05
3.14726e-05
-3.22754e-05
1.36101e-07
1.37394e-07
1.3564e-07
1.36749e-07
3.14739e-05
-3.22781e-05
2.53387e-07
-2.57572e-07
2.51564e-07
-2.5603e-07
-2.55895e-07
2.52214e-07
-2.55748e-07
-3.15057e-05
3.23082e-05
-1.31911e-07
-1.29921e-07
-1.31298e-07
3.22999e-05
3.14724e-05
-3.22747e-05
1.35729e-07
1.37627e-07
1.37621e-07
1.38809e-07
3.14729e-05
-3.22798e-05
2.52953e-07
-2.56874e-07
2.53313e-07
-2.57505e-07
-2.5621e-07
2.5292e-07
-2.56136e-07
-3.1505e-05
3.23077e-05
-1.31847e-07
-1.31015e-07
-1.31823e-07
3.23009e-05
3.1474e-05
-3.22756e-05
1.3655e-07
1.38392e-07
1.36865e-07
1.37999e-07
3.14723e-05
-3.22778e-05
2.53775e-07
-2.57663e-07
2.52671e-07
-2.5704e-07
-2.56388e-07
2.53486e-07
-2.56767e-07
-3.15068e-05
3.23082e-05
-1.32337e-07
-1.30982e-07
-1.32326e-07
3.22999e-05
3.14728e-05
-3.22766e-05
1.34804e-07
1.36554e-07
1.34393e-07
1.35957e-07
3.14707e-05
-3.22789e-05
2.52232e-07
-2.56234e-07
2.50543e-07
-2.55172e-07
-2.54859e-07
2.52007e-07
-2.55466e-07
-3.15056e-05
3.23095e-05
-1.30288e-07
-1.29458e-07
-1.30768e-07
3.23018e-05
3.14713e-05
-3.22757e-05
1.32048e-07
1.33743e-07
1.35435e-07
1.36428e-07
3.147e-05
-3.22782e-05
2.49621e-07
-2.53976e-07
2.51197e-07
-2.55907e-07
-2.53073e-07
2.52589e-07
-2.56609e-07
-3.15044e-05
3.23085e-05
-1.2845e-07
-1.30623e-07
-1.31891e-07
3.23e-05
3.14719e-05
-3.22769e-05
1.33333e-07
1.34506e-07
1.33933e-07
1.35217e-07
3.14702e-05
-3.22789e-05
2.5094e-07
-2.55019e-07
2.49969e-07
-2.54215e-07
-2.54304e-07
2.51138e-07
-2.53958e-07
-3.1505e-05
3.23096e-05
-1.29172e-07
-1.28338e-07
-1.29472e-07
3.23016e-05
3.14703e-05
-3.22745e-05
1.32223e-07
1.33789e-07
1.36429e-07
1.38218e-07
3.14687e-05
-3.22772e-05
2.49803e-07
-2.53981e-07
2.5207e-07
-2.56504e-07
-2.53338e-07
2.53507e-07
-2.5634e-07
-3.15033e-05
3.2308e-05
-1.28722e-07
-1.30935e-07
-1.32435e-07
3.22999e-05
3.14722e-05
-3.22747e-05
1.34502e-07
1.36442e-07
1.36306e-07
1.38353e-07
3.14712e-05
-3.22768e-05
2.51979e-07
-2.56863e-07
2.51854e-07
-2.56848e-07
-2.56787e-07
2.53422e-07
-2.56532e-07
-3.15054e-05
3.23073e-05
-1.32307e-07
-1.30936e-07
-1.32407e-07
3.22996e-05
3.14719e-05
-3.22755e-05
1.34657e-07
1.36392e-07
1.36594e-07
1.38099e-07
3.14704e-05
-3.22775e-05
2.51933e-07
-2.56193e-07
2.52234e-07
-2.56598e-07
-2.5578e-07
2.53418e-07
-2.56262e-07
-3.15052e-05
3.23082e-05
-1.31369e-07
-1.2993e-07
-1.32192e-07
3.23e-05
3.14729e-05
-3.2276e-05
1.35517e-07
1.3748e-07
1.37253e-07
1.40283e-07
3.14713e-05
-3.22777e-05
2.52642e-07
-2.5761e-07
2.52259e-07
-2.57915e-07
-2.56908e-07
2.55016e-07
-2.57694e-07
-3.15061e-05
3.23064e-05
-1.32838e-07
-1.31691e-07
-1.36041e-07
3.22975e-05
3.14705e-05
-3.22835e-05
1.3497e-07
1.40211e-07
1.38443e-07
1.35894e-07
3.14751e-05
-3.22826e-05
2.51024e-07
-2.57289e-07
2.54281e-07
-2.55863e-07
-2.58167e-07
2.47666e-07
-2.56969e-07
-3.1507e-05
3.23092e-05
-1.39484e-07
-1.31093e-07
-1.35439e-07
3.22999e-05
3.14777e-05
-3.22783e-05
1.47013e-07
1.37508e-07
1.33944e-07
1.47032e-07
3.14631e-05
-3.22669e-05
2.5515e-07
-2.5538e-07
2.52397e-07
-2.54903e-07
-2.56281e-07
2.60565e-07
-2.53178e-07
-3.15059e-05
3.23097e-05
-1.32309e-07
-1.29293e-07
-1.30033e-07
3.23029e-05
3.14797e-05
-3.22804e-05
1.37e-07
1.54942e-07
1.33621e-07
1.3774e-07
3.14897e-05
-3.22781e-05
2.52006e-07
-2.54738e-07
2.52551e-07
-2.54354e-07
-2.53407e-07
2.54242e-07
-2.53108e-07
-3.15046e-05
3.23102e-05
-1.30173e-07
-1.28257e-07
-1.29425e-07
3.23034e-05
3.14778e-05
-3.22804e-05
1.35934e-07
1.35726e-07
1.329e-07
1.36586e-07
3.14728e-05
-3.22801e-05
2.52231e-07
-2.54773e-07
2.52012e-07
-2.55903e-07
-2.53082e-07
2.53293e-07
-2.55472e-07
-3.15043e-05
3.23088e-05
-1.28679e-07
-1.29741e-07
-1.31132e-07
3.23007e-05
3.14767e-05
-3.22804e-05
1.35741e-07
1.35223e-07
1.32466e-07
1.35484e-07
3.14711e-05
-3.22804e-05
2.51757e-07
-2.55334e-07
2.51374e-07
-2.55225e-07
-2.54037e-07
2.52068e-07
-2.54843e-07
-3.15045e-05
3.23089e-05
-1.29639e-07
-1.29389e-07
-1.3035e-07
3.23008e-05
3.14765e-05
-3.22793e-05
1.35496e-07
1.35154e-07
1.35182e-07
1.37877e-07
3.14704e-05
-3.22795e-05
2.51471e-07
-2.55502e-07
2.53706e-07
-2.57172e-07
-2.54588e-07
2.53937e-07
-2.55562e-07
-3.1504e-05
3.23079e-05
-1.29897e-07
-1.31401e-07
-1.31535e-07
3.23005e-05
3.14788e-05
-3.22791e-05
1.38075e-07
1.37213e-07
1.35001e-07
1.38377e-07
3.14725e-05
-3.2279e-05
2.53616e-07
-2.57208e-07
2.53525e-07
-2.57563e-07
-2.566e-07
2.54549e-07
-2.56951e-07
-3.15063e-05
3.23073e-05
-1.32268e-07
-1.32296e-07
-1.33366e-07
3.22997e-05
3.14781e-05
-3.22801e-05
1.36765e-07
1.36395e-07
1.33834e-07
1.37043e-07
3.14724e-05
-3.228e-05
2.52201e-07
-2.56626e-07
2.52552e-07
-2.56662e-07
-2.56621e-07
2.53513e-07
-2.56639e-07
-3.15061e-05
3.23084e-05
-1.31979e-07
-1.31095e-07
-1.329e-07
3.23005e-05
3.14782e-05
-3.22802e-05
1.37261e-07
1.3663e-07
1.33938e-07
1.37548e-07
3.14726e-05
-3.228e-05
2.52871e-07
-2.56819e-07
2.52442e-07
-2.56897e-07
-2.55626e-07
2.53512e-07
-2.56376e-07
-3.15062e-05
3.23082e-05
-1.30958e-07
-1.31211e-07
-1.32946e-07
3.22999e-05
3.14783e-05
-3.22814e-05
1.37123e-07
1.36854e-07
1.32507e-07
1.35909e-07
3.14725e-05
-3.22819e-05
2.52787e-07
-2.57003e-07
2.51539e-07
-2.55358e-07
-2.55809e-07
2.52164e-07
-2.53651e-07
-3.15064e-05
3.23097e-05
-1.31558e-07
-1.28776e-07
-1.2974e-07
3.23027e-05
3.14767e-05
-3.22811e-05
1.35192e-07
1.35068e-07
1.3212e-07
1.35743e-07
3.14705e-05
-3.22812e-05
2.51331e-07
-2.55508e-07
2.50865e-07
-2.55299e-07
-2.54848e-07
2.52152e-07
-2.55249e-07
-3.15047e-05
3.23094e-05
-1.29982e-07
-1.29602e-07
-1.31595e-07
3.23017e-05
3.1476e-05
-3.22817e-05
1.35012e-07
1.34647e-07
1.30547e-07
1.34173e-07
3.14706e-05
-3.22811e-05
2.50701e-07
-2.55455e-07
2.49434e-07
-2.54555e-07
-2.55109e-07
2.51119e-07
-2.5529e-07
-3.15043e-05
3.23094e-05
-1.30723e-07
-1.29181e-07
-1.30915e-07
3.23007e-05
3.14749e-05
-3.2281e-05
1.34796e-07
1.34341e-07
1.32096e-07
1.35537e-07
3.14698e-05
-3.2281e-05
2.50228e-07
-2.55287e-07
2.50699e-07
-2.55713e-07
-2.54114e-07
2.51782e-07
-2.55302e-07
-3.15036e-05
3.23086e-05
-1.29624e-07
-1.29979e-07
-1.31138e-07
3.23003e-05
3.14765e-05
-3.228e-05
1.36559e-07
1.36041e-07
1.33719e-07
1.36697e-07
3.14708e-05
-3.2281e-05
2.52041e-07
-2.56731e-07
2.52627e-07
-2.58081e-07
-2.55467e-07
2.5182e-07
-2.56977e-07
-3.15049e-05
3.23066e-05
-1.31458e-07
-1.31501e-07
-1.32372e-07
3.22987e-05
3.14763e-05
-3.22813e-05
1.35148e-07
1.33245e-07
1.31258e-07
1.17727e-07
3.14673e-05
-3.23039e-05
2.51367e-07
-2.57103e-07
2.51035e-07
-2.58113e-07
-2.56811e-07
2.40283e-07
-2.59356e-07
-3.1506e-05
3.23068e-05
-1.32097e-07
-1.31973e-07
-1.34262e-07
3.22975e-05
3.14758e-05
-3.22802e-05
1.34198e-07
1.29094e-07
1.3277e-07
1.36723e-07
3.14465e-05
-3.22813e-05
2.50854e-07
-2.57983e-07
2.51854e-07
-2.57734e-07
-2.59121e-07
2.52297e-07
-2.57484e-07
-3.15064e-05
3.23073e-05
-1.33924e-07
-1.31206e-07
-1.34671e-07
3.22993e-05
3.14771e-05
-3.22816e-05
1.36397e-07
1.37353e-07
1.31812e-07
1.37949e-07
3.14712e-05
-3.22819e-05
2.52156e-07
-2.58243e-07
2.51222e-07
-2.56263e-07
-2.56897e-07
2.51101e-07
-2.53968e-07
-3.15067e-05
3.23088e-05
-1.35888e-07
-1.27715e-07
-1.42105e-07
3.23031e-05
3.14773e-05
-3.22803e-05
1.36089e-07
1.3837e-07
1.32482e-07
1.38971e-07
3.14709e-05
-3.22813e-05
2.52759e-07
-2.57053e-07
2.52735e-07
-2.57161e-07
-2.53099e-07
2.51861e-07
-2.54978e-07
-3.15059e-05
3.23082e-05
-1.42448e-07
-1.28288e-07
-1.44591e-07
3.2303e-05
3.14776e-05
-3.22815e-05
1.34813e-07
1.3775e-07
1.30127e-07
1.36582e-07
3.14708e-05
-3.22822e-05
2.52025e-07
-2.56589e-07
2.50659e-07
-2.55263e-07
-2.51949e-07
2.49461e-07
-2.52045e-07
-3.15059e-05
3.23092e-05
-1.41845e-07
-1.25501e-07
-1.41243e-07
3.23042e-05
3.1475e-05
-3.22807e-05
1.33139e-07
1.35907e-07
1.31429e-07
1.3836e-07
3.14686e-05
-3.22811e-05
2.50947e-07
-2.55319e-07
2.51444e-07
-2.56415e-07
-2.50463e-07
2.50879e-07
-2.53029e-07
-3.15036e-05
3.2308e-05
-1.40023e-07
-1.26913e-07
-1.42878e-07
3.23029e-05
3.14773e-05
-3.22797e-05
1.35723e-07
1.38876e-07
1.31994e-07
1.38668e-07
3.14706e-05
-3.22808e-05
2.52879e-07
-2.57077e-07
2.52651e-07
-2.56606e-07
-2.51789e-07
2.51144e-07
-2.5246e-07
-3.15057e-05
3.23074e-05
-1.42057e-07
-1.26591e-07
-1.42056e-07
3.2303e-05
3.14764e-05
-3.22794e-05
1.34328e-07
1.37523e-07
1.32502e-07
1.39009e-07
3.14691e-05
-3.22806e-05
2.51822e-07
-2.55907e-07
2.52322e-07
-2.56687e-07
-2.52033e-07
2.51015e-07
-2.52734e-07
-3.15046e-05
3.23074e-05
-1.42393e-07
-1.27008e-07
-1.42637e-07
3.23028e-05
3.14776e-05
-3.22793e-05
1.36286e-07
1.39371e-07
1.33583e-07
1.40386e-07
3.14706e-05
-3.22794e-05
2.53204e-07
-2.57569e-07
2.53309e-07
-2.58214e-07
-2.53492e-07
2.52711e-07
-2.55265e-07
-3.15057e-05
3.23066e-05
-1.43805e-07
-1.29388e-07
-1.45378e-07
3.23015e-05
3.14784e-05
-3.22793e-05
1.3699e-07
1.39648e-07
1.33752e-07
1.40116e-07
3.14718e-05
-3.22808e-05
2.5384e-07
-2.5793e-07
2.53729e-07
-2.57983e-07
-2.5326e-07
2.52531e-07
-2.54305e-07
-3.15068e-05
3.23074e-05
-1.4378e-07
-1.28654e-07
-1.43949e-07
3.2303e-05
3.14788e-05
-3.22804e-05
1.36368e-07
1.3921e-07
1.31915e-07
1.39001e-07
3.14717e-05
-3.22807e-05
2.53395e-07
-2.57571e-07
2.51925e-07
-2.56931e-07
-2.53115e-07
2.51695e-07
-2.5357e-07
-3.15069e-05
3.23078e-05
-1.43135e-07
-1.27702e-07
-1.43478e-07
3.23026e-05
3.14774e-05
-3.22816e-05
1.36079e-07
1.38726e-07
1.30372e-07
1.37793e-07
3.14707e-05
-3.22824e-05
2.53217e-07
-2.5731e-07
2.50615e-07
-2.55555e-07
-2.53393e-07
2.50116e-07
-2.52058e-07
-3.15058e-05
3.23093e-05
-1.43724e-07
-1.25729e-07
-1.41948e-07
3.23046e-05
3.14762e-05
-3.22806e-05
1.33819e-07
1.37039e-07
1.316e-07
1.38671e-07
3.14697e-05
-3.22818e-05
2.51253e-07
-2.55572e-07
2.51393e-07
-2.56365e-07
-2.51478e-07
2.50866e-07
-2.51724e-07
-3.15048e-05
3.23083e-05
-1.41674e-07
-1.26173e-07
-1.41474e-07
3.23047e-05
3.14769e-05
-3.22808e-05
1.35367e-07
1.3803e-07
1.30623e-07
1.37668e-07
3.147e-05
-3.22814e-05
2.53121e-07
-2.56608e-07
2.51146e-07
-2.55556e-07
-2.51515e-07
2.50734e-07
-2.52638e-07
-3.15053e-05
3.2309e-05
-1.41426e-07
-1.26272e-07
-1.42376e-07
3.23037e-05
3.14759e-05
-3.22787e-05
1.34145e-07
1.37116e-07
1.32425e-07
1.39747e-07
3.14691e-05
-3.22789e-05
2.51968e-07
-2.55085e-07
2.53076e-07
-2.5517e-07
-2.4975e-07
2.53277e-07
-2.51712e-07
-3.1504e-05
3.23093e-05
-1.39783e-07
-1.25886e-07
-1.41665e-07
3.23042e-05
3.14775e-05
-3.22765e-05
1.36018e-07
1.3975e-07
1.338e-07
1.40724e-07
3.14716e-05
-3.22776e-05
2.5373e-07
-2.53989e-07
2.55017e-07
-2.49608e-07
-2.50144e-07
2.54044e-07
-2.46169e-07
-3.15021e-05
3.2316e-05
-1.40252e-07
-1.11588e-07
-1.30637e-07
3.23101e-05
3.14788e-05
-3.22778e-05
1.38113e-07
1.4074e-07
1.33587e-07
1.40793e-07
3.14717e-05
-3.22787e-05
2.56241e-07
-2.49185e-07
2.54751e-07
-2.5314e-07
-2.45577e-07
2.54491e-07
-2.49451e-07
-3.14945e-05
3.23121e-05
-1.31445e-07
-1.23742e-07
-1.40642e-07
3.23075e-05
3.1479e-05
-3.22785e-05
1.36601e-07
1.40392e-07
1.34048e-07
1.41002e-07
3.14722e-05
-3.22792e-05
2.55004e-07
-2.5491e-07
2.54472e-07
-2.57902e-07
-2.49853e-07
2.54363e-07
-2.52819e-07
-3.15024e-05
3.23072e-05
-1.39772e-07
-1.28059e-07
-1.45014e-07
3.23036e-05
3.14788e-05
-3.22802e-05
1.36058e-07
1.40167e-07
1.31904e-07
1.39543e-07
3.14726e-05
-3.2281e-05
2.53911e-07
-2.57683e-07
2.52051e-07
-2.56725e-07
-2.52588e-07
2.51617e-07
-2.53585e-07
-3.1507e-05
3.23082e-05
-1.40587e-07
-1.27469e-07
-1.45466e-07
3.23031e-05
3.14769e-05
-3.22808e-05
1.35371e-07
1.37847e-07
1.31225e-07
1.37753e-07
3.147e-05
-3.22818e-05
2.52984e-07
-2.56289e-07
2.5136e-07
-2.55482e-07
-2.52374e-07
2.50033e-07
-2.5201e-07
-3.15048e-05
3.23085e-05
-1.41742e-07
-1.26231e-07
-1.41808e-07
3.23041e-05
3.14768e-05
-3.22799e-05
1.34591e-07
1.37936e-07
1.31574e-07
1.37932e-07
3.14698e-05
-3.22809e-05
2.52171e-07
-2.56422e-07
2.51447e-07
-2.56468e-07
-2.51116e-07
2.51187e-07
-2.53002e-07
-3.1505e-05
3.23078e-05
-1.41448e-07
-1.26951e-07
-1.4274e-07
3.23031e-05
3.14756e-05
-3.22804e-05
1.33093e-07
1.36749e-07
1.30869e-07
1.38122e-07
3.14695e-05
-3.22814e-05
2.50483e-07
-2.55741e-07
2.51161e-07
-2.55926e-07
-2.50315e-07
2.50414e-07
-2.51224e-07
-3.15047e-05
3.23081e-05
-1.40231e-07
-1.26546e-07
-1.41217e-07
3.23036e-05
3.14762e-05
-3.22796e-05
1.3464e-07
1.37104e-07
1.31616e-07
1.38053e-07
3.14694e-05
-3.22804e-05
2.521e-07
-2.56315e-07
2.51835e-07
-2.5664e-07
-2.52519e-07
2.50991e-07
-2.53402e-07
-3.15045e-05
3.23075e-05
-1.43126e-07
-1.27136e-07
-1.43294e-07
3.23022e-05
3.14762e-05
-3.22792e-05
1.35272e-07
1.38533e-07
1.32714e-07
1.39403e-07
3.14694e-05
-3.22794e-05
2.52922e-07
-2.57091e-07
2.52749e-07
-2.57507e-07
-2.51172e-07
2.51843e-07
-2.53865e-07
-3.15044e-05
3.23065e-05
-1.41353e-07
-1.27813e-07
-1.43876e-07
3.23016e-05
3.14778e-05
-3.22785e-05
1.36986e-07
1.39882e-07
1.34031e-07
1.40533e-07
3.14709e-05
-3.22798e-05
2.53892e-07
-2.57958e-07
2.53749e-07
-2.57604e-07
-2.53583e-07
2.52199e-07
-2.53509e-07
-3.1506e-05
3.23068e-05
-1.44405e-07
-1.28222e-07
-1.4381e-07
3.23024e-05
3.14777e-05
-3.22795e-05
1.35673e-07
1.39297e-07
1.32623e-07
1.39824e-07
3.14708e-05
-3.22801e-05
2.52716e-07
-2.57572e-07
2.52248e-07
-2.58013e-07
-2.53579e-07
2.52578e-07
-2.54698e-07
-3.15059e-05
3.2307e-05
-1.43983e-07
-1.28105e-07
-1.44048e-07
3.2302e-05
3.14779e-05
-3.228e-05
1.36411e-07
1.39135e-07
1.32067e-07
1.38859e-07
3.14718e-05
-3.22811e-05
2.53708e-07
-2.58159e-07
2.52264e-07
-2.57253e-07
-2.53878e-07
2.51633e-07
-2.53769e-07
-3.15069e-05
3.23082e-05
-1.44099e-07
-1.27595e-07
-1.43682e-07
3.2303e-05
3.1477e-05
-3.22805e-05
1.35127e-07
1.38339e-07
1.31414e-07
1.38945e-07
3.14702e-05
-3.22809e-05
2.5258e-07
-2.56677e-07
2.51413e-07
-2.57055e-07
-2.52058e-07
2.51397e-07
-2.52751e-07
-3.15052e-05
3.23079e-05
-1.42234e-07
-1.26677e-07
-1.41965e-07
3.23032e-05
3.14765e-05
-3.22808e-05
1.33976e-07
1.36504e-07
1.30712e-07
1.37428e-07
3.14702e-05
-3.22819e-05
2.50989e-07
-2.55294e-07
2.51051e-07
-2.55512e-07
-2.51698e-07
2.5011e-07
-2.52299e-07
-3.15054e-05
3.23086e-05
-1.42014e-07
-1.25845e-07
-1.42068e-07
3.23047e-05
3.14756e-05
-3.22802e-05
1.34127e-07
1.37388e-07
1.30784e-07
1.37962e-07
3.14687e-05
-3.22809e-05
2.51829e-07
-2.56149e-07
2.51001e-07
-2.56067e-07
-2.51563e-07
2.50446e-07
-2.51866e-07
-3.15039e-05
3.23079e-05
-1.41794e-07
-1.26067e-07
-1.42065e-07
3.23023e-05
3.14753e-05
-3.22798e-05
1.33775e-07
1.37189e-07
1.31214e-07
1.38619e-07
3.14689e-05
-3.22801e-05
2.5098e-07
-2.55582e-07
2.51536e-07
-2.56976e-07
-2.51663e-07
2.51689e-07
-2.53974e-07
-3.1504e-05
3.23071e-05
-1.42038e-07
-1.26987e-07
-1.43276e-07
3.2302e-05
3.14765e-05
-3.22786e-05
1.35484e-07
1.38535e-07
1.33027e-07
1.40608e-07
3.14702e-05
-3.22793e-05
2.52702e-07
-2.57172e-07
2.53254e-07
-2.57587e-07
-2.52237e-07
2.52619e-07
-2.53386e-07
-3.15054e-05
3.23053e-05
-1.42742e-07
-1.2876e-07
-1.43804e-07
3.23022e-05
3.14777e-05
-3.22791e-05
1.36185e-07
1.39587e-07
1.32721e-07
1.39606e-07
3.14712e-05
-3.22797e-05
2.53283e-07
-2.59194e-07
2.52657e-07
-2.55426e-07
-2.53844e-07
2.51611e-07
-2.52841e-07
-3.15057e-05
3.23047e-05
-1.44703e-07
-1.27675e-07
-1.44008e-07
3.2302e-05
3.14774e-05
-3.22797e-05
1.36452e-07
1.40105e-07
1.32268e-07
1.40021e-07
3.14708e-05
-3.22803e-05
2.53599e-07
-2.59964e-07
2.52211e-07
-2.56476e-07
-2.53806e-07
2.52421e-07
-2.53643e-07
-3.15047e-05
3.23054e-05
-1.44277e-07
-1.28661e-07
-1.43689e-07
3.23027e-05
3.14775e-05
-3.22803e-05
1.35665e-07
1.3885e-07
1.32071e-07
1.3913e-07
3.14717e-05
-3.2281e-05
2.52814e-07
-2.59301e-07
2.52292e-07
-2.55478e-07
-2.52745e-07
2.51531e-07
-2.53919e-07
-3.15054e-05
3.23058e-05
-1.43292e-07
-1.27882e-07
-1.4352e-07
3.23032e-05
3.14774e-05
-3.22796e-05
1.35854e-07
1.38907e-07
1.3198e-07
1.37897e-07
3.14708e-05
-3.22813e-05
2.53573e-07
-2.58928e-07
2.53029e-07
-2.56205e-07
-2.53109e-07
2.51083e-07
-2.52213e-07
-3.15045e-05
3.23052e-05
-1.42545e-07
-1.26907e-07
-1.41886e-07
3.23037e-05
3.14772e-05
-3.22814e-05
1.33577e-07
1.371e-07
1.31234e-07
1.37367e-07
3.14699e-05
-3.22817e-05
2.50215e-07
-2.55878e-07
2.5033e-07
-2.55619e-07
-2.51913e-07
2.50948e-07
-2.52054e-07
-3.15034e-05
3.23071e-05
-1.42256e-07
-1.26911e-07
-1.40723e-07
3.23039e-05
3.14759e-05
-3.22805e-05
1.35001e-07
1.36932e-07
1.32571e-07
1.38044e-07
3.14693e-05
-3.22792e-05
2.51479e-07
-2.5656e-07
2.50099e-07
-2.54728e-07
-2.51566e-07
2.50733e-07
-2.52587e-07
-3.1502e-05
3.23088e-05
-1.39446e-07
-1.28303e-07
-1.33001e-07
3.23016e-05
3.14761e-05
-3.2314e-05
1.40985e-07
1.39953e-07
1.13415e-07
1.19016e-07
3.14665e-05
-3.23132e-05
2.50564e-07
-2.53112e-07
2.15384e-07
-2.15127e-07
-2.48141e-07
2.12412e-07
-2.18027e-07
-3.14995e-05
3.23431e-05
-1.34469e-07
-1.03252e-07
-1.02814e-07
3.23379e-05
3.13762e-05
-3.1358e-05
6.3346e-08
6.68636e-08
-2.23258e-06
-2.23045e-06
3.13722e-05
-3.13528e-05
1.74933e-07
-1.76029e-07
-1.50022e-06
1.51591e-06
-1.70082e-07
-1.48305e-06
1.51692e-06