/*--------------------------------*- C++ -*----------------------------------*\
| =========                 |                                                 |
| \\      /  F ield         | OpenFOAM: The Open Source CFD Toolbox           |
|  \\    /   O peration     | Version:  2206                                  |
|   \\  /    A nd           | Website:  www.openfoam.com                      |
|    \\/     M anipulation  |                                                 |
\*---------------------------------------------------------------------------*/
FoamFile
{
    version     2.0;
    format      ascii;
    arch        "LSB;label=32;scalar=64";
    class       volScalarField;
    location    "2";
    object      nut;
}
// * * * * * * * * * * * * * * * * * * * * * * * * * * * * * * * * * * * * * //

dimensions      [0 2 -1 0 0 0 0];

internalField   nonuniform List<scalar> 
28755
(
0.000234348
0.000235065
0.000235061
0.000241223
0.000234348
0.000235064
0.000235063
0.000241222
0.000234348
0.000235064
0.000235064
0.000241237
0.000234348
0.000235064
0.000235062
0.00024123
0.000234348
0.000235065
0.000235067
0.000241231
0.000234348
0.000235065
0.000235065
0.000241225
0.000234348
0.000235064
0.000235063
0.000241238
0.000234348
0.000235063
0.000235064
0.00024123
0.000234348
0.000235064
0.000235061
0.000241223
0.000234348
0.000235066
0.000235062
0.000241222
0.000234445
0.000235115
0.000235114
0.000241449
0.00026497
0.00027017
0.000270145
0.000261484
0.00024109
0.000235064
0.00023506
0.000241086
0.000235064
0.000235066
0.000235065
0.000235067
0.00024109
0.000235063
0.000235065
0.000241088
0.000241248
0.000241087
0.000235062
0.000235066
0.000235069
0.000235065
0.000241221
0.000241083
0.000235062
0.000235066
0.000235064
0.000235062
0.000235067
0.000235063
0.000235066
0.000241233
0.000241088
0.000235066
0.000235064
0.000235064
0.000241087
0.000241246
0.000241084
0.000235062
0.000235066
0.000235066
0.000235063
0.000241219
0.000241084
0.000235062
0.000235066
0.000235062
0.000235064
0.000235067
0.000235065
0.000235066
0.000241231
0.000241089
0.000235066
0.000235062
0.000235064
0.000241089
0.000241235
0.000241086
0.000235065
0.000235063
0.000235066
0.000235063
0.000241229
0.000241084
0.000235061
0.000235062
0.000235063
0.000235064
0.000235064
0.000235065
0.000235067
0.000241238
0.000241087
0.000235065
0.000235064
0.000235064
0.000241088
0.000241237
0.000241084
0.000235064
0.000235065
0.000235068
0.000235062
0.000241228
0.000241082
0.000235064
0.000235065
0.000235067
0.000235066
0.000235067
0.000235064
0.000235063
0.000241233
0.000241086
0.000235064
0.000235064
0.000235061
0.000241089
0.000241238
0.00024109
0.000235065
0.000235066
0.000235067
0.000235061
0.00024122
0.000241086
0.000235062
0.000235066
0.000235062
0.000235065
0.000235067
0.000235063
0.000235063
0.000241214
0.000241089
0.000235063
0.000235067
0.000235064
0.000241092
0.000241248
0.00024109
0.000235062
0.000235066
0.000235068
0.000235064
0.00024122
0.000241085
0.000235062
0.000235064
0.000235062
0.000235064
0.000235068
0.000235065
0.000235066
0.000241234
0.000241089
0.000235065
0.000235065
0.000235065
0.00024109
0.000241238
0.000241084
0.000235065
0.000235063
0.000235067
0.000235066
0.000241231
0.000241082
0.000235061
0.000235064
0.000235061
0.000235063
0.000235064
0.000235064
0.000235067
0.000241232
0.000241087
0.000235065
0.000235066
0.000235062
0.00024109
0.000241228
0.000241087
0.000235064
0.000235065
0.000235064
0.00023506
0.000241228
0.000241084
0.000235066
0.000235066
0.000235064
0.000235064
0.000235065
0.000235065
0.000235063
0.000241232
0.000241089
0.000235065
0.00023506
0.000235065
0.000241086
0.000241239
0.000241083
0.000235062
0.000235066
0.000235066
0.000235061
0.00024122
0.000241089
0.000235064
0.000235066
0.000235063
0.000235062
0.000235067
0.000235061
0.000235065
0.000241232
0.00024109
0.000235066
0.000235067
0.000235064
0.00024108
0.000241222
0.000241126
0.000235064
0.000235063
0.000235077
0.000235076
0.000241238
0.000241132
0.000235066
0.000235064
0.000235073
0.000235079
0.000235066
0.000235077
0.00023508
0.000241242
0.000241132
0.000235066
0.000235074
0.00023508
0.000241121
0.000241458
0.000252479
0.000235114
0.000235114
0.000251706
0.000251705
0.000241442
0.000252476
0.00023511
0.000235112
0.000251707
0.000251703
0.000235116
0.000251706
0.000251705
0.000241453
0.000252475
0.000235114
0.000251709
0.000251703
0.000252476
0.000261487
0.000270158
0.000270172
0.000261496
0.000270158
0.000270143
0.000264962
0.000264978
0.000264978
0.000270156
0.000261485
0.00027014
1.46517e-05
0.000234348
0.000234348
0.000234348
0.000234348
0.00022813
0.000235064
0.000158228
0.000234394
0.000241087
0.000123133
0.000123124
0.00014953
3.35226e-05
0.000166216
3.34283e-05
1.46924e-05
1.46517e-05
0.00014954
3.35191e-05
0.000166212
3.34248e-05
0.000234348
0.000234348
0.000234348
0.000234348
0.000234348
0.000234348
0.000234348
0.000228129
0.00018151
0.000234393
0.000235065
0.000232809
0.000158217
0.000234393
1.4691e-05
1.46504e-05
0.000228129
0.000234393
0.000181506
0.000235069
0.000232808
0.000234393
0.000158206
0.000133901
0.000133885
0.000241087
0.000123125
0.000123115
0.000149514
3.35227e-05
0.000166214
3.34284e-05
1.46926e-05
1.46518e-05
0.00014951
3.35193e-05
0.000166213
3.34247e-05
0.000234348
0.000234348
0.000234348
0.000234348
0.000234348
0.000234348
0.000234348
0.00022812
0.000181506
0.000234393
0.000235064
0.000232803
0.000158197
0.000234393
1.46912e-05
1.46505e-05
0.000228121
0.000234393
0.000181502
0.000235069
0.000232804
0.000234393
0.000158195
0.000133898
0.000133883
0.000241081
0.000123102
0.000123098
0.000149511
3.35228e-05
0.000166214
3.34284e-05
1.46926e-05
1.46518e-05
0.000149476
3.35192e-05
0.000166209
3.34245e-05
0.000234348
0.000234348
0.000234348
0.000234348
0.000234348
0.000234348
0.000234348
0.000228118
0.000181506
0.000234393
0.000235065
0.000232803
0.000158195
0.000234393
1.46914e-05
1.46505e-05
0.000228117
0.000234393
0.000181501
0.000235063
0.000232802
0.000234393
0.000158182
0.000133898
0.000133883
0.00024108
0.000123105
0.000123098
0.000149497
3.35228e-05
0.000166214
3.34284e-05
1.46926e-05
1.46518e-05
0.000149521
3.35191e-05
0.00016621
3.34246e-05
0.000234348
0.000234348
0.000234348
0.000234348
0.000234348
0.000234348
0.000234348
0.000228122
0.000181506
0.000234393
0.000235064
0.000232805
0.000158204
0.000234393
1.46911e-05
1.46504e-05
0.000228119
0.000234393
0.000181505
0.000235063
0.000232805
0.000234393
0.000158201
0.000133898
0.000133882
0.000241081
0.0001231
0.000123101
0.000149536
3.35226e-05
0.000166213
3.34283e-05
1.46924e-05
1.46517e-05
0.000149515
3.3519e-05
0.000166212
3.34246e-05
0.000234348
0.000234348
0.000234348
0.000234348
0.000234348
0.000234348
0.000234348
0.000228125
0.000181509
0.000234393
0.000235065
0.000232807
0.000158214
0.000234393
1.46911e-05
1.46504e-05
0.000228129
0.000234393
0.000181506
0.000235068
0.000232809
0.000234393
0.00015821
0.0001339
0.000133885
0.00024109
0.000123122
0.000123122
0.000149523
3.35227e-05
0.000166216
3.34284e-05
1.46925e-05
1.46517e-05
0.000149532
3.3519e-05
0.000166212
3.34246e-05
0.000234348
0.000234348
0.000234348
0.000234348
0.000234348
0.000234348
0.000234348
0.00022813
0.00018151
0.000234393
0.000235063
0.000232808
0.000158217
0.000234393
1.4691e-05
1.46504e-05
0.000228131
0.000234393
0.000181507
0.000235067
0.000232809
0.000234393
0.000158212
0.0001339
0.000133885
0.000241085
0.000123133
0.000123123
0.000149515
3.35227e-05
0.000166215
3.34284e-05
1.46925e-05
1.46518e-05
0.000149509
3.35191e-05
0.000166212
3.34246e-05
0.000234348
0.000234348
0.000234348
0.000234348
0.000234348
0.000234348
0.000234348
0.000228125
0.000181508
0.000234393
0.000235064
0.000232805
0.000158205
0.000234393
1.46912e-05
1.46505e-05
0.000228122
0.000234393
0.000181503
0.000235068
0.000232805
0.000234393
0.000158192
0.000133899
0.000133883
0.00024108
0.000123108
0.000123102
0.000149509
3.35227e-05
0.000166215
3.34283e-05
1.46925e-05
1.46518e-05
0.000149502
3.35191e-05
0.00016621
3.34246e-05
0.000234348
0.000234348
0.000234348
0.000234348
0.000234348
0.000234348
0.000234348
0.000228121
0.000181506
0.000234393
0.000235064
0.000232805
0.0001582
0.000234393
1.46912e-05
1.46504e-05
0.000228122
0.000234393
0.000181505
0.000235068
0.000232805
0.000234393
0.000158199
0.000133898
0.000133883
0.000241079
0.000123105
0.000123103
0.000149533
3.35226e-05
0.000166214
3.34283e-05
1.46924e-05
1.46518e-05
0.000149521
3.35192e-05
0.000166211
3.34248e-05
0.000234348
0.000234348
0.000234348
0.000234348
0.000234348
0.000234348
0.000234348
0.000228125
0.000181508
0.000234393
0.000235062
0.000232805
0.000158212
0.000234393
1.46911e-05
1.46504e-05
0.000228124
0.000234393
0.000181505
0.000235065
0.000232807
0.000234393
0.000158203
0.000133899
0.000133884
0.000241085
0.000123116
0.000123108
0.000149509
3.35229e-05
0.000166219
3.34284e-05
1.46926e-05
1.46521e-05
0.000149516
3.35196e-05
0.000166217
3.34251e-05
0.000234348
0.000234348
0.000234348
0.000234366
0.000234367
0.000234367
0.000234367
0.000228125
0.000181514
0.000234393
0.000235066
0.00023281
0.000158196
0.000234393
1.46911e-05
1.46507e-05
0.000228126
0.000234392
0.000181512
0.000235064
0.000232812
0.000234393
0.000158195
0.000133902
0.000133888
0.000241081
0.000123103
0.0001231
0.000149209
3.35288e-05
0.000166267
3.34525e-05
1.46947e-05
1.46759e-05
0.000149199
3.35254e-05
0.000166268
3.34493e-05
0.000234446
0.000234445
0.000234445
0.000246936
0.000246936
0.000246939
0.000246933
0.000228069
0.000181599
0.000234468
0.000235372
0.000232813
0.000158009
0.00023471
1.46934e-05
1.46746e-05
0.000228049
0.00023447
0.000181597
0.000235378
0.000232831
0.000234711
0.000158007
0.000133964
0.000133951
0.000241761
0.000122977
0.000122971
0.000252561
5.0396e-05
0.000171533
0.000171269
1.91783e-05
0.000155062
0.000252594
5.03901e-05
0.000171531
0.000171352
0.000188283
0.000250299
0.000250299
0.000214083
0.000243713
0.000190527
0.000190527
0.000308728
0.000171092
0.000263196
0.000254479
0.000240614
0.000239091
0.000195453
1.91759e-05
0.000155026
0.000308855
0.000263204
0.000171105
0.000254496
0.000240616
0.000195454
0.000239078
0.00016074
0.000160621
0.000292146
0.00021111
0.000211087
1.46524e-05
1.46932e-05
1.46512e-05
1.46919e-05
0.000241237
0.000123129
0.000123125
0.000133902
0.000133886
3.34274e-05
0.000235064
0.000158209
0.000166215
3.34283e-05
3.35226e-05
0.000149538
0.000166215
3.34274e-05
3.35218e-05
0.000149536
0.000232809
0.000235063
0.000158215
0.000234393
0.000181511
0.000234392
0.00022813
0.000232809
0.00023506
0.00015821
0.000234392
0.000181505
0.000234392
0.000228129
0.000241088
0.000123133
0.000123143
1.46525e-05
1.46517e-05
1.46924e-05
0.000241241
0.000123137
0.000123145
0.00013389
0.000133907
1.46524e-05
1.46931e-05
0.000166211
3.34247e-05
3.35191e-05
0.000149529
0.000232808
0.000235064
0.0001582
0.000234393
0.000181497
0.000234393
0.000228128
0.000166212
3.34233e-05
3.35176e-05
0.000149529
0.000232809
0.000235067
0.000234393
0.000158198
0.000234393
0.000181495
0.000228128
0.000149534
3.34269e-05
0.000228131
0.000235067
0.000234394
0.000158221
0.000149537
3.34253e-05
0.00023281
0.000235066
0.000158229
0.000234393
0.000181511
0.000234393
0.000228133
0.000166214
3.3427e-05
3.35211e-05
0.000149547
0.000232812
0.000235065
0.000234393
0.000158219
0.000234393
0.000181509
0.000228133
0.000166215
3.34253e-05
3.35195e-05
0.000149546
1.46503e-05
1.4691e-05
0.000241225
0.000123118
0.000123123
0.00013388
0.0001339
1.46517e-05
1.46923e-05
0.000232809
0.000235065
0.000234393
0.000158216
0.000234393
0.000181506
0.000228131
0.000232809
0.000235068
0.000234393
0.000158197
0.000234393
0.000181496
0.00022813
0.000166213
3.3425e-05
3.35192e-05
0.00014954
0.000166214
3.34245e-05
3.35188e-05
0.000149539
1.46515e-05
1.46509e-05
0.000241223
0.000123138
0.000123122
0.000133901
0.000133885
1.46515e-05
1.46922e-05
1.46509e-05
1.46916e-05
1.46932e-05
1.46524e-05
1.46919e-05
1.46512e-05
0.000133903
0.000133887
0.000241086
0.000123124
0.000123116
1.46524e-05
1.46932e-05
1.46513e-05
1.46919e-05
0.000241236
0.000123116
0.000123102
0.000133901
0.000133885
0.000149528
3.35218e-05
0.000166216
3.34274e-05
0.000228128
0.00018151
0.000234393
0.000235069
0.000232809
0.000158211
0.000234393
0.000228127
0.000181502
0.000234393
0.000235063
0.000232809
0.000158199
0.000234393
0.000166215
3.34283e-05
3.35226e-05
0.000149516
0.000166215
3.34274e-05
3.35218e-05
0.000149516
0.000232807
0.000235064
0.000158206
0.000234393
0.000181509
0.000234393
0.000228124
0.000232807
0.000235063
0.000158192
0.000234393
0.000181502
0.000234393
0.000228124
0.00013389
0.000133907
0.000241087
0.000123129
0.000123135
1.46932e-05
1.46525e-05
1.46518e-05
1.46925e-05
0.000241231
0.000123115
0.000123116
0.000133888
0.000133905
1.46526e-05
1.46933e-05
0.00022813
0.000181498
0.000234393
0.000235065
0.000232809
0.000158196
0.000234393
0.000149538
3.35176e-05
0.000166212
3.34233e-05
0.000228128
0.000234393
0.000181496
0.000235065
0.000232808
0.000234393
0.000158193
0.000166214
3.34249e-05
3.35192e-05
0.000149527
0.000232806
0.000235066
0.000158185
0.000234393
0.000181496
0.000234393
0.000228126
0.000166214
3.34233e-05
3.35177e-05
0.000149532
0.000232806
0.000235065
0.000234393
0.00015819
0.000234393
0.000181493
0.000228127
0.000149538
3.35212e-05
0.000166216
3.3427e-05
0.000228128
0.000234393
0.000181508
0.000235068
0.00023281
0.000234393
0.000158207
0.000149538
3.35195e-05
0.000166216
3.34253e-05
0.000232806
0.000235064
0.000158205
0.000234393
0.000181507
0.000234393
0.000228124
0.000166216
3.3427e-05
3.35213e-05
0.000149518
0.000232806
0.000235061
0.000234393
0.000158198
0.000234393
0.000181506
0.000228124
0.000166216
3.34253e-05
3.35196e-05
0.000149517
0.00013388
0.000133901
0.000241085
0.000123117
0.000123119
1.46924e-05
1.46517e-05
1.46504e-05
1.46911e-05
0.000241222
0.000123107
0.00012311
0.000133879
0.000133899
1.46517e-05
1.46925e-05
0.000228127
0.000234393
0.000181495
0.00023506
0.000232808
0.000234393
0.000158188
0.000149533
3.35193e-05
0.000166214
3.3425e-05
0.00014953
3.35188e-05
0.000166214
3.34245e-05
0.000232806
0.000235064
0.000234393
0.000158198
0.000234393
0.000181505
0.000228123
0.000232806
0.000235066
0.000234393
0.000158179
0.000234393
0.000181494
0.000228122
0.000166214
3.3425e-05
3.35193e-05
0.000149514
0.000166213
3.34245e-05
3.35189e-05
0.000149513
1.46923e-05
1.46516e-05
1.46917e-05
1.4651e-05
0.00024123
0.000123109
0.000123102
0.000133899
0.000133884
1.46516e-05
1.46924e-05
1.4651e-05
1.46918e-05
1.46932e-05
1.46525e-05
1.4692e-05
1.46513e-05
0.000133901
0.000133884
0.000241086
0.000123113
0.000123102
1.46525e-05
1.46933e-05
1.46513e-05
1.46921e-05
0.000241245
0.000123105
0.000123097
0.0001339
0.000133884
0.000149514
3.35219e-05
0.000166215
3.34274e-05
0.000228123
0.000181508
0.000234393
0.000235069
0.000232806
0.000158202
0.000234393
0.000228122
0.000181499
0.000234393
0.000235062
0.000232805
0.000158181
0.000234393
0.000166215
3.34284e-05
3.35227e-05
0.00014951
0.000166215
3.34274e-05
3.35219e-05
0.000149504
0.000232804
0.000235065
0.000158201
0.000234393
0.000181506
0.000234393
0.000228121
0.000232804
0.000235061
0.000158187
0.000234393
0.000181499
0.000234392
0.00022812
0.000133887
0.000133904
0.000241089
0.000123104
0.000123114
1.46933e-05
1.46526e-05
1.46518e-05
1.46926e-05
0.000241229
0.000123109
0.000123114
0.000133887
0.000133903
1.46526e-05
1.46934e-05
0.000228122
0.000181495
0.000234393
0.000235062
0.000232804
0.000158182
0.000234393
0.000149508
3.35178e-05
0.000166214
3.34233e-05
0.000228121
0.000234393
0.000181493
0.000235064
0.000232804
0.000234393
0.000158172
0.000166212
3.34246e-05
3.35192e-05
0.000149478
0.000232801
0.000235063
0.000158173
0.000234393
0.000181494
0.000234393
0.000228114
0.000166212
3.34233e-05
3.35178e-05
0.000149476
0.000232801
0.000235064
0.000234393
0.000158167
0.000234393
0.000181489
0.000228113
0.000149505
3.35213e-05
0.000166215
3.34269e-05
0.000228121
0.000234393
0.000181504
0.000235069
0.000232804
0.000234393
0.00015819
0.000149507
3.35197e-05
0.000166215
3.34253e-05
0.000232803
0.000235066
0.000158196
0.000234393
0.000181506
0.000234393
0.000228114
0.000166213
3.34269e-05
3.35214e-05
0.000149479
0.000232803
0.000235064
0.000234393
0.000158192
0.000234393
0.000181503
0.000228115
0.000166214
3.34253e-05
3.35197e-05
0.00014948
0.000133878
0.000133898
0.000241086
0.000123094
0.00012311
1.46925e-05
1.46517e-05
1.46505e-05
1.46913e-05
0.000241231
0.000123093
0.000123103
0.000133877
0.000133898
1.46518e-05
1.46926e-05
0.000228122
0.000234393
0.000181493
0.000235062
0.000232805
0.000234393
0.000158176
0.00014951
3.35193e-05
0.000166212
3.3425e-05
0.000149511
3.35189e-05
0.000166213
3.34245e-05
0.000232803
0.000235065
0.000234393
0.000158189
0.000234393
0.000181503
0.000228116
0.000232803
0.000235064
0.000234393
0.000158177
0.000234393
0.000181493
0.000228115
0.000166213
3.3425e-05
3.35194e-05
0.000149489
0.000166213
3.34244e-05
3.35189e-05
0.000149485
1.46924e-05
1.46516e-05
1.46918e-05
1.4651e-05
0.000241228
0.000123112
0.000123106
0.000133897
0.000133883
1.46516e-05
1.46924e-05
1.4651e-05
1.46918e-05
1.46933e-05
1.46525e-05
1.46921e-05
1.46513e-05
0.0001339
0.000133884
0.000241087
0.000123097
0.000123097
1.46525e-05
1.46932e-05
1.46512e-05
1.4692e-05
0.000241235
0.000123099
0.000123104
0.000133899
0.000133884
0.000149512
3.35219e-05
0.000166214
3.34275e-05
0.000228122
0.000181507
0.000234393
0.000235067
0.000232804
0.000158194
0.000234393
0.000228122
0.000181499
0.000234393
0.00023506
0.000232804
0.000158183
0.000234392
0.000166215
3.34284e-05
3.35228e-05
0.000149508
0.000166215
3.34275e-05
3.3522e-05
0.000149505
0.000232803
0.000235063
0.000158197
0.000234393
0.000181506
0.000234393
0.000228121
0.000232803
0.000235064
0.00015818
0.000234393
0.000181498
0.000234393
0.000228121
0.000133887
0.000133904
0.000241084
0.000123102
0.000123111
1.46934e-05
1.46525e-05
1.46518e-05
1.46926e-05
0.000241226
0.000123095
0.000123115
0.000133886
0.000133903
1.46525e-05
1.46933e-05
0.000228114
0.000181495
0.000234393
0.000235062
0.000232802
0.000158173
0.000234393
0.000149477
3.35179e-05
0.000166209
3.34232e-05
0.000228114
0.000234393
0.000181491
0.000235068
0.000232802
0.000234393
0.000158163
0.000166209
3.34246e-05
3.35191e-05
0.000149498
0.000232804
0.000235065
0.000158184
0.000234393
0.000181495
0.000234393
0.00022812
0.000166209
3.34233e-05
3.35178e-05
0.000149498
0.000232804
0.000235064
0.000234393
0.000158174
0.000234393
0.000181491
0.00022812
0.000149494
3.35213e-05
0.000166211
3.34269e-05
0.000228119
0.000234393
0.000181504
0.000235066
0.000232804
0.000234393
0.000158192
0.0001495
3.35196e-05
0.000166212
3.34253e-05
0.000232805
0.000235063
0.000158199
0.000234393
0.000181507
0.000234393
0.00022812
0.000166212
3.34269e-05
3.35213e-05
0.000149502
0.000232804
0.000235065
0.000234393
0.000158192
0.000234393
0.000181504
0.00022812
0.000166213
3.34253e-05
3.35197e-05
0.000149503
0.000133877
0.000133898
0.000241084
0.000123086
0.000123091
1.46927e-05
1.46518e-05
1.46504e-05
1.46912e-05
0.000241229
0.000123086
0.000123098
0.000133877
0.000133897
1.46518e-05
1.46926e-05
0.000228116
0.000234393
0.000181492
0.000235065
0.000232803
0.000234393
0.000158172
0.000149489
3.35194e-05
0.000166211
3.3425e-05
0.000149489
3.35189e-05
0.00016621
3.34244e-05
0.000232803
0.000235064
0.000234393
0.000158189
0.000234393
0.000181503
0.000228117
0.000232803
0.000235064
0.000234393
0.000158172
0.000234393
0.000181492
0.000228117
0.00016621
3.3425e-05
3.35194e-05
0.000149488
0.000166211
3.34244e-05
3.3519e-05
0.000149489
1.46925e-05
1.46516e-05
1.46919e-05
1.4651e-05
0.000241228
0.000123102
0.000123095
0.000133898
0.000133882
1.46516e-05
1.46925e-05
1.4651e-05
1.46919e-05
1.46932e-05
1.46525e-05
1.4692e-05
1.46512e-05
0.0001339
0.000133884
0.000241085
0.000123105
0.000123105
1.46524e-05
1.46932e-05
1.46512e-05
1.46919e-05
0.000241236
0.000123123
0.000123116
0.000133901
0.000133885
0.000149496
3.3522e-05
0.000166215
3.34274e-05
0.000228119
0.000181506
0.000234393
0.000235067
0.000232803
0.000158198
0.000234393
0.000228119
0.000181498
0.000234393
0.000235059
0.000232803
0.000158182
0.000234392
0.000166213
3.34283e-05
3.35227e-05
0.000149507
0.000166213
3.34274e-05
3.35219e-05
0.000149504
0.000232806
0.000235064
0.000158211
0.000234393
0.000181508
0.000234393
0.000228122
0.000232806
0.000235061
0.000158195
0.000234393
0.000181499
0.000234392
0.000228121
0.000133886
0.000133904
0.000241091
0.000123101
0.000123114
1.46933e-05
1.46525e-05
1.46517e-05
1.46925e-05
0.000241238
0.000123116
0.000123128
0.000133887
0.000133904
1.46525e-05
1.46932e-05
0.000228125
0.000181496
0.000234393
0.000235063
0.000232806
0.000158188
0.000234393
0.000149523
3.35177e-05
0.000166211
3.34233e-05
0.000228125
0.000234393
0.000181492
0.000235069
0.000232807
0.000234393
0.000158189
0.000166212
3.34246e-05
3.3519e-05
0.000149521
0.000232805
0.000235065
0.000158195
0.000234393
0.000181497
0.000234393
0.000228125
0.000166212
3.34233e-05
3.35177e-05
0.000149521
0.000232806
0.000235065
0.000234393
0.000158191
0.000234393
0.000181494
0.000228124
0.00014951
3.35213e-05
0.000166213
3.3427e-05
0.000228122
0.000234393
0.000181504
0.000235066
0.000232805
0.000234393
0.000158195
0.00014951
3.35197e-05
0.000166214
3.34253e-05
0.000232806
0.000235064
0.000158213
0.000234393
0.000181507
0.000234393
0.000228123
0.000166214
3.34269e-05
3.35213e-05
0.000149511
0.000232806
0.000235064
0.000234393
0.000158206
0.000234393
0.000181506
0.000228122
0.000166214
3.34253e-05
3.35197e-05
0.000149508
0.000133877
0.000133899
0.000241087
0.000123105
0.000123114
1.46925e-05
1.46517e-05
1.46504e-05
1.46911e-05
0.000241232
0.000123113
0.000123129
0.000133879
0.0001339
1.46516e-05
1.46925e-05
0.00022812
0.000234393
0.000181493
0.000235066
0.000232805
0.000234393
0.000158178
0.000149498
3.35193e-05
0.00016621
3.34249e-05
0.000149495
3.35189e-05
0.000166211
3.34244e-05
0.000232807
0.000235064
0.000234393
0.00015821
0.000234393
0.000181506
0.000228123
0.000232807
0.000235064
0.000234393
0.00015819
0.000234393
0.000181495
0.000228122
0.00016621
3.34249e-05
3.35193e-05
0.000149509
0.00016621
3.34243e-05
3.35189e-05
0.000149504
1.46924e-05
1.46516e-05
1.46918e-05
1.4651e-05
0.00024123
0.000123119
0.000123117
0.000133899
0.000133884
1.46516e-05
1.46923e-05
1.46509e-05
1.46917e-05
1.46931e-05
1.46524e-05
1.46919e-05
1.46512e-05
0.000133902
0.000133886
0.000241087
0.000123127
0.000123119
1.46524e-05
1.46931e-05
1.46512e-05
1.46919e-05
0.000241239
0.000123125
0.000123116
0.000133902
0.000133886
0.000149534
3.35218e-05
0.000166214
3.34274e-05
0.000228129
0.00018151
0.000234393
0.000235068
0.000232808
0.000158217
0.000234393
0.000228128
0.000181502
0.000234393
0.000235063
0.000232808
0.000158203
0.000234393
0.000166216
3.34284e-05
3.35226e-05
0.000149541
0.000166216
3.34274e-05
3.35218e-05
0.000149538
0.000232808
0.000235062
0.000158217
0.000234393
0.00018151
0.000234393
0.00022813
0.000232808
0.000235062
0.000158206
0.000234392
0.000181503
0.000234393
0.000228129
0.000133889
0.000133906
0.000241087
0.000123124
0.000123133
1.46933e-05
1.46525e-05
1.46518e-05
1.46924e-05
0.000241231
0.000123124
0.000123128
0.000133889
0.000133906
1.46525e-05
1.46932e-05
0.000228125
0.000181498
0.000234393
0.000235065
0.000232806
0.000158195
0.000234393
0.000149516
3.35177e-05
0.000166212
3.34233e-05
0.000228124
0.000234393
0.000181494
0.000235064
0.000232806
0.000234393
0.000158188
0.000166211
3.34246e-05
3.3519e-05
0.000149527
0.000232808
0.000235063
0.000158198
0.000234393
0.000181498
0.000234393
0.000228127
0.000166211
3.34233e-05
3.35177e-05
0.000149523
0.000232807
0.000235065
0.000234393
0.000158193
0.000234393
0.000181494
0.000228126
0.000149517
3.35213e-05
0.000166213
3.34269e-05
0.000228125
0.000234393
0.000181508
0.000235067
0.000232808
0.000234393
0.000158212
0.000149518
3.35196e-05
0.000166213
3.34253e-05
0.000232809
0.000235065
0.000158218
0.000234393
0.00018151
0.000234393
0.000228129
0.000166213
3.3427e-05
3.35212e-05
0.000149535
0.00023281
0.000235061
0.000234392
0.000158217
0.000234393
0.000181509
0.000228129
0.000166214
3.34253e-05
3.35196e-05
0.000149535
0.000133879
0.000133901
0.000241086
0.000123111
0.000123125
1.46924e-05
1.46517e-05
1.46504e-05
1.46911e-05
0.000241232
0.00012311
0.000123122
0.000133879
0.0001339
1.46517e-05
1.46924e-05
0.000228129
0.000234393
0.000181497
0.00023506
0.00023281
0.000234393
0.000158201
0.000149539
3.35192e-05
0.000166211
3.3425e-05
0.000149536
3.35188e-05
0.000166211
3.34244e-05
0.00023281
0.000235065
0.000234393
0.000158216
0.000234393
0.000181506
0.000228132
0.00023281
0.000235067
0.000234393
0.000158202
0.000234393
0.000181498
0.000228131
0.000166214
3.3425e-05
3.35192e-05
0.000149546
0.000166214
3.34244e-05
3.35188e-05
0.000149545
1.46923e-05
1.46516e-05
1.46916e-05
1.46509e-05
0.000241232
0.000123129
0.000123124
0.000133901
0.000133886
1.46515e-05
1.46922e-05
1.46509e-05
1.46916e-05
1.46932e-05
1.46524e-05
1.46919e-05
1.46512e-05
0.000133902
0.000133886
0.000241088
0.00012312
0.000123114
1.46524e-05
1.46932e-05
1.46512e-05
1.46919e-05
0.000241246
0.00012312
0.000123109
0.000133901
0.000133885
0.000149519
3.35219e-05
0.000166217
3.34274e-05
0.000228126
0.00018151
0.000234393
0.000235069
0.000232807
0.00015821
0.000234393
0.000228125
0.000181502
0.000234393
0.000235065
0.000232807
0.000158193
0.000234393
0.000166215
3.34283e-05
3.35226e-05
0.00014952
0.000166215
3.34274e-05
3.35219e-05
0.000149517
0.000232807
0.000235065
0.000158209
0.000234393
0.000181508
0.000234393
0.000228125
0.000232807
0.000235061
0.000158194
0.000234393
0.000181501
0.000234392
0.000228125
0.000133889
0.000133906
0.000241092
0.000123116
0.000123129
1.46932e-05
1.46525e-05
1.46517e-05
1.46925e-05
0.000241231
0.000123116
0.000123123
0.000133888
0.000133905
1.46525e-05
1.46932e-05
0.000228129
0.000181498
0.000234393
0.000235063
0.000232808
0.000158197
0.000234393
0.000149533
3.35177e-05
0.000166213
3.34233e-05
0.000228129
0.000234393
0.000181495
0.000235064
0.000232808
0.000234393
0.000158193
0.000166213
3.34246e-05
3.35191e-05
0.000149528
0.000232807
0.000235063
0.000158189
0.000234393
0.000181497
0.000234393
0.000228127
0.000166214
3.34233e-05
3.35177e-05
0.000149531
0.000232807
0.000235064
0.000234393
0.000158188
0.000234393
0.000181494
0.000228127
0.000149537
3.35212e-05
0.000166215
3.3427e-05
0.00022813
0.000234393
0.000181508
0.000235065
0.00023281
0.000234393
0.000158217
0.000149542
3.35195e-05
0.000166216
3.34253e-05
0.000232808
0.000235067
0.00015821
0.000234393
0.000181509
0.000234393
0.000228128
0.000166215
3.3427e-05
3.35213e-05
0.000149532
0.000232808
0.000235063
0.000234393
0.000158206
0.000234393
0.000181507
0.000228128
0.000166217
3.34253e-05
3.35196e-05
0.000149533
0.000133879
0.000133901
0.00024109
0.000123115
0.000123123
1.46923e-05
1.46517e-05
1.46504e-05
1.46911e-05
0.000241232
0.000123111
0.000123118
0.000133879
0.0001339
1.46517e-05
1.46924e-05
0.000228132
0.000234393
0.000181497
0.000235062
0.000232809
0.000234393
0.000158198
0.000149544
3.35192e-05
0.000166215
3.3425e-05
0.000149547
3.35188e-05
0.000166215
3.34245e-05
0.000232807
0.000235065
0.000234393
0.000158204
0.000234393
0.000181505
0.000228127
0.000232807
0.000235065
0.000234393
0.000158187
0.000234393
0.000181495
0.000228126
0.000166215
3.3425e-05
3.35192e-05
0.000149527
0.000166215
3.34245e-05
3.35188e-05
0.000149526
1.46922e-05
1.46515e-05
1.46916e-05
1.46509e-05
0.00024123
0.000123121
0.000123109
0.0001339
0.000133885
1.46516e-05
1.46923e-05
1.4651e-05
1.46917e-05
1.46932e-05
1.46525e-05
1.4692e-05
1.46513e-05
0.000133901
0.000133885
0.000241088
0.000123115
0.000123105
1.46525e-05
1.46932e-05
1.46512e-05
1.4692e-05
0.000241245
0.00012311
0.000123104
0.0001339
0.000133884
0.000149515
3.35219e-05
0.000166215
3.34274e-05
0.000228124
0.000181509
0.000234393
0.000235066
0.000232807
0.000158203
0.000234393
0.000228124
0.000181501
0.000234393
0.000235062
0.000232807
0.000158194
0.000234393
0.000166215
3.34284e-05
3.35227e-05
0.000149521
0.000166215
3.34275e-05
3.35219e-05
0.000149518
0.000232806
0.000235065
0.000158206
0.000234393
0.000181507
0.000234393
0.000228125
0.000232806
0.000235061
0.000158186
0.000234393
0.0001815
0.000234392
0.000228124
0.000133888
0.000133905
0.000241091
0.000123116
0.000123117
1.46933e-05
1.46526e-05
1.46518e-05
1.46926e-05
0.00024123
0.000123104
0.000123116
0.000133888
0.000133904
1.46525e-05
1.46933e-05
0.000228122
0.000181496
0.000234393
0.000235064
0.000232805
0.000158183
0.000234393
0.000149509
3.35177e-05
0.000166213
3.34233e-05
0.000228122
0.000234393
0.000181493
0.000235068
0.000232805
0.000234393
0.000158176
0.000166212
3.34246e-05
3.35191e-05
0.000149498
0.000232804
0.000235063
0.000158184
0.000234393
0.000181495
0.000234393
0.000228119
0.000166212
3.34233e-05
3.35178e-05
0.000149498
0.000232804
0.000235064
0.000234393
0.000158175
0.000234393
0.000181491
0.00022812
0.000149525
3.35213e-05
0.000166215
3.3427e-05
0.000228125
0.000234393
0.000181505
0.000235065
0.000232806
0.000234393
0.000158196
0.000149524
3.35196e-05
0.000166216
3.34254e-05
0.000232804
0.000235066
0.0001582
0.000234393
0.000181507
0.000234393
0.00022812
0.000166215
3.3427e-05
3.35214e-05
0.000149502
0.000232804
0.000235063
0.000234393
0.000158191
0.000234393
0.000181504
0.00022812
0.000166216
3.34253e-05
3.35197e-05
0.000149503
0.000133878
0.000133899
0.000241084
0.000123097
0.0001231
1.46925e-05
1.46518e-05
1.46504e-05
1.46912e-05
0.000241231
0.000123092
0.000123101
0.000133877
0.000133897
1.46517e-05
1.46926e-05
0.000228121
0.000234393
0.000181493
0.000235066
0.000232805
0.000234393
0.000158178
0.000149513
3.35193e-05
0.000166213
3.34251e-05
0.000149508
3.35189e-05
0.000166213
3.34245e-05
0.000232804
0.000235065
0.000234393
0.000158189
0.000234393
0.000181502
0.000228119
0.000232804
0.000235064
0.000234393
0.000158172
0.000234393
0.000181493
0.000228119
0.000166213
3.3425e-05
3.35194e-05
0.000149499
0.000166212
3.34244e-05
3.3519e-05
0.000149499
1.46924e-05
1.46516e-05
1.46918e-05
1.4651e-05
0.000241228
0.000123102
0.000123096
0.000133898
0.000133883
1.46516e-05
1.46924e-05
1.4651e-05
1.46918e-05
1.46932e-05
1.46524e-05
1.4692e-05
1.46512e-05
0.000133901
0.000133885
0.000241085
0.000123115
0.000123111
1.46524e-05