/*--------------------------------*- C++ -*----------------------------------*\
| =========                 |                                                 |
| \\      /  F ield         | OpenFOAM: The Open Source CFD Toolbox           |
|  \\    /   O peration     | Version:  2206                                  |
|   \\  /    A nd           | Website:  www.openfoam.com                      |
|    \\/     M anipulation  |                                                 |
\*---------------------------------------------------------------------------*/
FoamFile
{
    version     2.0;
    format      ascii;
    arch        "LSB;label=32;scalar=64";
    class       surfaceScalarField;
    location    "2";
    object      phi;
}
// * * * * * * * * * * * * * * * * * * * * * * * * * * * * * * * * * * * * * //

dimensions      [0 3 -1 0 0 0 0];

oriented        oriented;

internalField   nonuniform List<scalar> 
83378
(
-0.00105764
-1.1507e-06
-2.5398e-10
6.4147e-10
0.00105764
-2.07956e-07
1.1515e-06
2.0746e-07
8.17956e-07
-1.84891e-07
-8.18087e-07
1.8422e-07
1.17818e-06
1.14551e-06
-2.00758e-07
-2.05889e-07
0.000258196
2.51263e-10
2.18736e-10
-0.00105695
-2.41757e-10
-2.75169e-10
0.00105695
-0.00105764
-1.1507e-06
-2.74128e-10
5.62712e-10
0.00105764
-2.07938e-07
1.15153e-06
2.07516e-07
8.18001e-07
-1.84879e-07
-8.18128e-07
1.84302e-07
-0.00105731
-1.14544e-06
-2.58309e-10
6.10867e-10
0.00105731
-2.07956e-07
1.14624e-06
2.07502e-07
8.17829e-07
-1.87496e-07
-8.18006e-07
1.86911e-07
-0.000260113
1.17823e-06
1.14555e-06
-2.00819e-07
-2.05956e-07
0.000258196
2.80104e-10
2.67165e-10
-0.00105695
-2.6448e-10
-2.93288e-10
0.00105695
-0.00105764
-1.1507e-06
-2.9876e-10
5.57302e-10
0.00105764
-2.07932e-07
1.15153e-06
2.0752e-07
8.18007e-07
-1.8487e-07
-8.18118e-07
1.84308e-07
-0.00105731
-1.14543e-06
-3.04713e-10
5.7793e-10
0.00105731
-2.07932e-07
1.14625e-06
2.07519e-07
8.17836e-07
-1.87467e-07
-8.1799e-07
1.86925e-07
-0.000260113
1.17822e-06
1.14554e-06
-2.00811e-07
-2.05946e-07
0.000258196
2.67768e-10
2.63093e-10
-0.00105695
-2.64643e-10
-2.87335e-10
0.00105695
-0.00105764
-1.1507e-06
-2.81848e-10
5.71306e-10
0.00105764
-2.07937e-07
1.15153e-06
2.07516e-07
8.18003e-07
-1.84875e-07
-8.18123e-07
1.84303e-07
-0.00105731
-1.14543e-06
-3.02264e-10
5.80237e-10
0.00105731
-2.07935e-07
1.14625e-06
2.07518e-07
8.17836e-07
-1.8747e-07
-8.17994e-07
1.86926e-07
-0.000260113
1.17823e-06
1.14555e-06
-2.00812e-07
-2.05949e-07
0.000258196
2.70923e-10
2.71175e-10
-0.00105695
-2.70499e-10
-2.90571e-10
0.00105695
-0.00105764
-1.1507e-06
-2.82421e-10
5.67379e-10
0.00105764
-2.07936e-07
1.15153e-06
2.07518e-07
8.18003e-07
-1.84875e-07
-8.18124e-07
1.84304e-07
-0.00105731
-1.14544e-06
-3.01562e-10
5.75315e-10
0.00105731
-2.07902e-07
1.14625e-06
2.07519e-07
8.17835e-07
-1.87469e-07
-8.17994e-07
1.86926e-07
-0.000260113
1.17823e-06
1.14554e-06
-2.00813e-07
-2.05949e-07
0.000258196
2.75624e-10
2.72546e-10
-0.00105695
-2.68661e-10
-2.91658e-10
0.00105695
-0.00105764
-1.1507e-06
-2.87285e-10
5.63494e-10
0.00105764
-2.07935e-07
1.15153e-06
2.07519e-07
8.18006e-07
-1.84873e-07
-8.18121e-07
1.84306e-07
-0.00105731
-1.14544e-06
-3.0065e-10
5.7628e-10
0.00105731
-2.07903e-07
1.14625e-06
2.07519e-07
8.17836e-07
-1.87468e-07
-8.17992e-07
1.86926e-07
-0.000260113
1.17823e-06
1.14555e-06
-2.00813e-07
-2.05947e-07
0.000258196
2.68601e-10
2.6902e-10
-0.00105695
-2.66423e-10
-2.87202e-10
0.00105695
-0.00105764
-1.1507e-06
-2.88187e-10
5.6767e-10
0.00105764
-2.0794e-07
1.15153e-06
2.0752e-07
8.18009e-07
-1.84877e-07
-8.18126e-07
1.84309e-07
-0.00105731
-1.14544e-06
-3.03181e-10
5.7829e-10
0.00105731
-2.07906e-07
1.14625e-06
2.07521e-07
8.17841e-07
-1.87473e-07
-8.17997e-07
1.86929e-07
-0.000260113
1.17823e-06
1.14555e-06
-2.00815e-07
-2.05951e-07
0.000258196
2.84496e-10
2.91216e-10
-0.00105695
-2.76144e-10
-2.92252e-10
0.00105695
-0.00105764
-1.1507e-06
-2.98509e-10
5.61352e-10
0.00105764
-2.07933e-07
1.15153e-06
2.07521e-07
8.18009e-07
-1.84871e-07
-8.1812e-07
1.84309e-07
-0.00105731
-1.14543e-06
-3.18275e-10
5.6562e-10
0.00105731
-2.079e-07
1.14626e-06
2.07495e-07
8.17842e-07
-1.87466e-07
-8.17992e-07
1.86932e-07
-0.000260113
1.17822e-06
1.14554e-06
-2.00809e-07
-2.05944e-07
0.000258196
2.7649e-10
2.88936e-10
-0.00105695
-2.80011e-10
-2.88755e-10
0.00105695
-0.00105764
-1.1507e-06
-2.9127e-10
5.6064e-10
0.00105764
-2.07935e-07
1.15153e-06
2.0752e-07
8.18008e-07
-1.84872e-07
-8.18121e-07
1.84309e-07
-0.00105731
-1.14543e-06
-3.09766e-10
5.62715e-10
0.00105731
-2.07902e-07
1.14626e-06
2.07493e-07
8.1784e-07
-1.87467e-07
-8.17991e-07
1.8693e-07
-0.000260113
1.17823e-06
1.14554e-06
-2.0081e-07
-2.05948e-07
0.000258196
2.67728e-10
2.97288e-10
-0.00105695
-3.29938e-10
-3.24878e-10
0.00105695
-0.00105764
-1.15069e-06
-2.84782e-10
5.4501e-10
0.00105764
-2.07927e-07
1.15153e-06
2.07527e-07
8.1801e-07
-1.84865e-07
-8.18113e-07
1.84311e-07
-0.00105731
-1.14542e-06
-3.03436e-10
5.37092e-10
0.00105731
-2.07922e-07
1.14626e-06
2.07533e-07
8.17838e-07
-1.87482e-07
-8.1794e-07
1.86932e-07
-0.000260113
1.17822e-06
1.14553e-06
-2.00799e-07
-2.05936e-07
0.000258196
1.7515e-08
1.76295e-08
-0.00105696
-6.6389e-09
-1.17138e-08
0.00105694
-0.00105764
-1.15048e-06
-1.22982e-08
-1.07001e-08
0.00105765
-2.07693e-07
1.15436e-06
2.13212e-07
8.23566e-07
-1.87208e-07
-8.20422e-07
1.87357e-07
-0.00105732
-1.1426e-06
-1.76198e-08
-5.52046e-09
0.00105733
-2.07633e-07
1.1465e-06
2.10568e-07
8.20789e-07
-1.87169e-07
-8.17634e-07
1.89986e-07
-0.000260118
1.1806e-06
1.1453e-06
-1.98123e-07
-2.03225e-07
0.000258193
8.31259e-07
8.37944e-07
-0.00105682
-6.90853e-07
-6.81099e-07
0.00105653
-0.00105788
-1.07042e-06
-8.32277e-07
-3.78772e-07
0.00105819
-1.43556e-07
1.32576e-06
3.22916e-07
9.93144e-07
-1.07796e-07
-7.35946e-07
3.12102e-07
-0.00105756
-1.06243e-06
-8.42656e-07
-3.894e-07
0.00105789
-1.43428e-07
1.32069e-06
3.25725e-07
9.90262e-07
-1.13103e-07
-7.3317e-07
3.1477e-07
-0.000260187
1.10316e-06
1.0626e-06
-1.28313e-07
-1.308e-07
0.000258281
4.85314e-06
4.84659e-06
-0.00104311
-1.03306e-05
-1.02361e-05
0.000253185
0.000256514
0.000255607
0.000255607
3.93313e-06
6.1603e-06
6.43409e-06
3.93672e-06
6.161e-06
6.43734e-06
-0.000261648
5.01621e-06
-4.84399e-06
5.61795e-06
-3.17694e-06
0.000259035
-0.000261625
-4.84617e-06
5.02129e-06
-3.18465e-06
5.61507e-06
0.00025902
-0.000260597
-5.01325e-06
-5.02402e-06
5.63022e-06
5.61869e-06
0.000259386
1.18956e-06
0.00105731
-1.18872e-06
2.15507e-07
-2.15866e-07
1.87036e-07
-1.87395e-07
-1.15152e-06
0.000260156
-0.000258221
2.01857e-07
2.04127e-07
-1.15067e-06
2.07523e-07
-2.0787e-07
1.84372e-07
-1.84708e-07
-1.18424e-06
-1.14894e-06
0.000260128
-0.000258201
1.99152e-07
2.06723e-07
5.0304e-10
0.00105688
-2.13133e-07
2.12797e-07
8.17923e-07
-1.84652e-07
-8.18004e-07
1.84291e-07
-1.18875e-06
-2.0932e-10
6.48062e-10
0.00105731
-2.15945e-07
1.18953e-06
2.15438e-07
8.23339e-07
-1.87557e-07
-8.23479e-07
1.86874e-07
0.00105688
-2.24483e-10
-0.00105688
6.15405e-10
-1.18345e-06
2.12755e-07
-2.1323e-07
-8.18081e-07
1.84213e-07
-1.84841e-07
8.1793e-07
1.18956e-06
0.00105731
-1.85882e-10
-0.00105731
5.74174e-10
-1.18875e-06
2.1549e-07
-2.15936e-07
-8.23529e-07
1.86944e-07
-1.87573e-07
8.23367e-07
-2.0104e-07
-2.03311e-07
0.000258221
-1.15152e-06
0.000260156
-0.000258221
2.01837e-07
2.04105e-07
0.0010579
-1.96765e-10
-0.0010579
5.87388e-10
-1.14814e-06
2.10223e-07
-2.10676e-07
-8.20804e-07
1.86929e-07
-1.87623e-07
8.20635e-07
1.18428e-06
0.00105699
-1.61657e-10
-0.00105699
6.28126e-10
-1.18351e-06
2.15442e-07
-2.15948e-07
-8.20749e-07
1.86874e-07
-1.87592e-07
8.20569e-07
-3.5552e-10
5.04186e-10
0.00105679
-2.10422e-07
1.17905e-06
2.101e-07
8.1794e-07
-1.84656e-07
1.84282e-07
-8.18029e-07
-2.46716e-10
-0.00105764
5.69012e-10
-1.15071e-06
2.07509e-07
-2.07946e-07
-8.18133e-07
1.84291e-07
8.17994e-07
-1.84895e-07
1.17904e-06
0.00105679
-2.14275e-10
-0.00105679
6.05345e-10
-1.17824e-06
2.10071e-07
-2.10517e-07
-8.18115e-07
1.84208e-07
-1.84848e-07
8.17952e-07
-1.14623e-06
0.000260108
-0.000258183
1.99302e-07
2.06539e-07
-2.76661e-10
5.06338e-10
0.00105781
-2.07918e-07
1.14634e-06
2.0757e-07
8.18072e-07
-1.87395e-07
1.87003e-07
-8.18157e-07
-2.20704e-10
-0.00105731
6.24204e-10
-1.14545e-06
2.07485e-07
-2.07975e-07
-8.17976e-07
1.86856e-07
8.17863e-07
-1.87562e-07
1.14634e-06
0.00105781
-9.62481e-11
-0.00105781
5.59085e-10
-1.14556e-06
2.07546e-07
-2.08009e-07
-8.18247e-07
1.86924e-07
-1.87588e-07
8.18071e-07
-0.000258196
2.01608e-07
2.06756e-07
1.18344e-06
1.14813e-06
-1.98353e-07
-2.05928e-07
0.000258201
-1.18425e-06
-1.14895e-06
0.000260128
-0.000258201
1.99162e-07
2.06736e-07
6.07231e-10
0.00105688
-2.13217e-07
1.18424e-06
2.12766e-07
8.17936e-07
-1.84819e-07
-8.18075e-07
1.84228e-07
-1.18874e-06
-2.09941e-10
5.64911e-10
0.00105731
-2.15929e-07
1.18956e-06
2.15496e-07
8.23374e-07
-1.87558e-07
-8.23524e-07
1.86958e-07
0.00105688
-2.95957e-10
-0.00105688
5.95853e-10
-1.18343e-06
2.12772e-07
-2.13206e-07
-8.1806e-07
1.84234e-07
-1.84807e-07
8.17946e-07
1.18956e-06
0.00105731
-2.22522e-10
-0.00105731
5.67621e-10
-1.18874e-06
2.15494e-07
-2.15929e-07
-8.23515e-07
1.86957e-07
-1.87555e-07
8.23379e-07
-2.01022e-07
-2.03293e-07
0.000258221
-1.15153e-06
0.000260156
-0.000258221
2.01843e-07
2.04109e-07
5.69838e-10
0.0010579
-2.10662e-07
1.14895e-06
2.10233e-07
8.20654e-07
-1.87591e-07
-8.2079e-07
1.86963e-07
-1.1835e-06
-1.94133e-10
6.15755e-10
0.00105699
-2.15925e-07
1.18429e-06
2.1546e-07
8.20576e-07
-1.87541e-07
-8.2074e-07
1.86911e-07
0.0010579
-2.70278e-10
-0.0010579
5.6045e-10
-1.14813e-06
2.10235e-07
-2.10655e-07
-8.20778e-07
1.86974e-07
-1.87553e-07
8.20656e-07
1.1843e-06
0.00105699
-2.47762e-10
-0.00105699
5.89966e-10
-1.18349e-06
2.15469e-07
-2.15909e-07
-8.20723e-07
1.86926e-07
-1.87514e-07
8.20591e-07
-2.51263e-10
5.93648e-10
0.00105679
-2.10504e-07
1.17905e-06
2.10082e-07
8.17957e-07
-1.84822e-07
1.84222e-07
-8.18106e-07
-2.95226e-10
-0.00105764
5.62864e-10
-1.1507e-06
2.07515e-07
-2.07935e-07
-8.18117e-07
1.84304e-07
8.18006e-07
-1.84876e-07
1.17905e-06
0.00105679
-2.85777e-10
-0.00105679
5.78402e-10
-1.17822e-06
2.10086e-07
-2.10493e-07
-8.18094e-07
1.84227e-07
-1.84813e-07
8.17966e-07
-1.98531e-07
-2.05761e-07
0.000258183
-1.14625e-06
0.000260108
-0.000258183
1.99326e-07
2.0656e-07
-1.23836e-10
5.37541e-10
0.00105781
-2.07995e-07
1.14634e-06
2.07558e-07
8.18077e-07
-1.87564e-07
1.86939e-07
-8.18241e-07
-3.09535e-10
-0.00105731
5.83172e-10
-1.14543e-06
2.07515e-07
-2.07935e-07
-8.17949e-07
1.86904e-07
8.17886e-07
-1.87489e-07
1.14635e-06
0.00105781
-1.55528e-10
-0.00105781
5.27713e-10
-1.14554e-06
2.07561e-07
-2.07987e-07
-8.1823e-07
1.86945e-07
-1.87555e-07
8.18086e-07
-0.000258196
2.01619e-07
2.06768e-07
1.18343e-06
1.14813e-06
-1.98346e-07
-2.05916e-07
0.000258201
-1.18425e-06
-1.14895e-06
0.000260128
-0.000258201
1.99161e-07
2.06735e-07
5.91037e-10
0.00105688
-2.13203e-07
1.18425e-06
2.12776e-07
8.17942e-07
-1.84806e-07
-8.18064e-07
1.84236e-07
-1.18874e-06
-2.30175e-10
5.62724e-10
0.00105731
-2.15926e-07
1.18956e-06
2.15498e-07
8.2338e-07
-1.87549e-07
-8.23514e-07
1.86964e-07
0.00105688
-2.84751e-10
-0.00105688
5.97112e-10
-1.18344e-06
2.12771e-07
-2.13208e-07
-8.18063e-07
1.84232e-07
-1.8481e-07
8.17944e-07
1.18956e-06
0.00105731
-2.17793e-10
-0.00105731
5.72824e-10
-1.18875e-06
2.15493e-07
-2.15929e-07
-8.23516e-07
1.86955e-07
-1.87556e-07
8.23377e-07
-2.01017e-07
-2.03289e-07
0.000258221
-1.15153e-06
0.000260156
-0.000258221
2.01842e-07
2.04108e-07
5.63912e-10
0.0010579
-2.10654e-07
1.14895e-06
2.10238e-07
8.20668e-07
-1.87561e-07
-8.2077e-07
1.86981e-07
-1.18349e-06
-2.57805e-10
5.92844e-10
0.00105699
-2.15905e-07
1.1843e-06
2.15473e-07
8.20591e-07
-1.87507e-07
-8.2072e-07
1.86933e-07
0.0010579
-2.74347e-10
-0.0010579
5.69125e-10
-1.14813e-06
2.10234e-07
-2.10658e-07
-8.20778e-07
1.86974e-07
-1.87553e-07
8.20656e-07
1.1843e-06
0.00105699
-2.55138e-10
-0.00105699
5.88079e-10
-1.18349e-06
2.1547e-07
-2.15908e-07
-8.20721e-07
1.86928e-07
-1.87512e-07
8.20592e-07
-2.85813e-10
5.79683e-10
0.00105679
-2.10493e-07
1.17905e-06
2.10088e-07
8.17963e-07
-1.84809e-07
1.84229e-07
-8.18094e-07
-2.87845e-10
-0.00105764
5.67477e-10
-1.1507e-06
2.07514e-07
-2.07937e-07
-8.1812e-07
1.84302e-07
8.18004e-07
-1.84878e-07
1.17905e-06
0.00105679
-2.7616e-10
-0.00105679
5.83437e-10
-1.17823e-06
2.10083e-07
-2.10497e-07
-8.18097e-07
1.84226e-07
-1.84816e-07
8.17965e-07
-1.9851e-07
-2.05745e-07
0.000258183
-1.14625e-06
0.000260108
-0.000258183
1.99327e-07
2.06558e-07
-1.54077e-10
5.30615e-10
0.00105781
-2.07987e-07
1.14635e-06
2.07562e-07
8.18083e-07
-1.87551e-07
1.86946e-07
-8.1823e-07
-3.08111e-10
-0.00105731
5.79261e-10
-1.14543e-06
2.07516e-07
-2.07935e-07
-8.17951e-07
1.86903e-07
8.17884e-07
-1.8749e-07
1.14635e-06
0.00105781
-1.58727e-10
-0.00105781
5.38683e-10
-1.14555e-06
2.07559e-07
-2.07989e-07
-8.1823e-07
1.86944e-07
-1.87557e-07
8.18086e-07
-0.000258196
2.01619e-07
2.06767e-07
1.18344e-06
1.14813e-06
-1.98349e-07
-2.05918e-07
0.000258201
-1.18425e-06
-1.14895e-06
0.000260128
-0.000258201
1.99163e-07
2.06737e-07
5.96099e-10
0.00105688
-2.13207e-07
1.18425e-06
2.12774e-07
8.17939e-07
-1.84811e-07
-8.18069e-07
1.84233e-07
-1.18875e-06
-2.17589e-10
5.74905e-10
0.00105731
-2.15929e-07
1.18956e-06
2.15496e-07
8.23376e-07
-1.87554e-07
-8.23518e-07
1.8696e-07
0.00105688
-2.86367e-10
-0.00105688
5.91628e-10
-1.18344e-06
2.12774e-07
-2.13212e-07
-8.18065e-07
1.84236e-07
-1.84812e-07
8.17947e-07
1.18956e-06
0.00105731
-2.13381e-10
-0.00105731
5.75835e-10
-1.18875e-06
2.15493e-07
-2.15935e-07
-8.23519e-07
1.86956e-07
-1.8756e-07
8.23378e-07
-2.0102e-07
-2.03292e-07
0.000258221
-1.15153e-06
0.000260156
-0.000258221
2.01842e-07
2.04108e-07
5.7325e-10
0.0010579
-2.10657e-07
1.14895e-06
2.10236e-07
8.20667e-07
-1.87565e-07
-8.20773e-07
1.86979e-07
-1.18349e-06
-2.5348e-10
5.97445e-10
0.00105699
-2.15908e-07
1.1843e-06
2.15471e-07
8.2059e-07
-1.87509e-07
-8.20722e-07
1.86932e-07
0.0010579
-2.77561e-10
-0.0010579
5.66024e-10
-1.14813e-06
2.10236e-07
-2.1066e-07
-8.20779e-07
1.86977e-07
-1.87555e-07
8.20659e-07
1.1843e-06
0.00105699
-2.51852e-10
-0.00105699
5.80063e-10
-1.18348e-06
2.1547e-07
-2.1591e-07
-8.20723e-07
1.86928e-07
-1.87514e-07
8.20591e-07
-2.73282e-10
5.81557e-10
0.00105679
-2.10497e-07
1.17905e-06
2.10088e-07
8.17963e-07
-1.84812e-07
1.84229e-07
-8.18098e-07
-2.83873e-10
-0.00105764
5.69424e-10
-1.1507e-06
2.07514e-07
-2.07942e-07
-8.18123e-07
1.84303e-07
8.18006e-07
-1.84882e-07
1.17905e-06
0.00105679
-2.69878e-10
-0.00105679
5.83499e-10
-1.17823e-06
2.10083e-07
-2.105e-07
-8.18098e-07
1.84226e-07
-1.84817e-07
8.17965e-07
-1.98511e-07
-2.05746e-07
0.000258183
-1.14626e-06
0.00026011
-0.000258183
1.99323e-07
2.04067e-07
-1.55248e-10
5.36513e-10
0.00105781
-2.07988e-07
1.14635e-06
2.07564e-07
8.18084e-07
-1.87554e-07
1.86947e-07
-8.18232e-07
-3.1133e-10
-0.00105731
5.74246e-10
-1.14543e-06
2.07486e-07
-2.07939e-07
-8.17952e-07
1.86906e-07
8.17886e-07
-1.87492e-07
1.14635e-06
0.00105781
-1.58022e-10
-0.00105781
5.38655e-10
-1.14555e-06
2.07561e-07
-2.07989e-07
-8.18232e-07
1.86944e-07
-1.87559e-07
8.18087e-07
-0.000258196
2.01619e-07
2.06766e-07
1.18343e-06
1.14813e-06
-1.98347e-07
-2.05917e-07
0.000258201
-1.18425e-06
-1.14895e-06
0.000260128
-0.000258201
1.99162e-07
2.06738e-07
5.85727e-10
0.00105688
-2.13204e-07
1.18425e-06
2.12777e-07
8.1794e-07
-1.84809e-07
-8.18069e-07
1.84235e-07
-1.18875e-06
-2.17933e-10
5.74354e-10
0.00105731
-2.15929e-07
1.18956e-06
2.15498e-07
8.23377e-07
-1.87555e-07
-8.2352e-07
1.8696e-07
0.00105688
-2.92044e-10
-0.00105688
5.89609e-10
-1.18343e-06
2.12774e-07
-2.13204e-07
-8.18061e-07
1.84234e-07
-1.84807e-07
8.17946e-07
1.18956e-06
0.00105731
-2.2356e-10
-0.00105731
5.71689e-10
-1.18875e-06
2.15495e-07
-2.15929e-07
-8.23515e-07
1.86958e-07
-1.87556e-07
8.23381e-07
-2.0102e-07
-2.03292e-07
0.000258221
-1.15153e-06
0.000260156
-0.000258221
2.01844e-07
2.0411e-07
5.63386e-10
0.0010579
-2.10654e-07
1.14895e-06
2.1024e-07
8.20668e-07
-1.87563e-07
-8.20772e-07
1.86981e-07
-1.18349e-06
-2.60782e-10
5.99269e-10
0.00105699
-2.15908e-07
1.1843e-06
2.15473e-07
8.20592e-07
-1.87508e-07
-8.20722e-07
1.86934e-07
0.0010579
-2.80876e-10
-0.0010579
5.64146e-10
-1.14813e-06
2.10236e-07
-2.10655e-07
-8.20775e-07
1.86976e-07
-1.8755e-07
8.20658e-07
1.1843e-06
0.00105699
-2.59916e-10
-0.00105699
5.80801e-10
-1.18348e-06
2.15472e-07
-2.15905e-07
-8.2072e-07
1.86929e-07
-1.87511e-07
8.20594e-07
-2.72898e-10
5.79513e-10
0.00105679
-2.10497e-07
1.17905e-06
2.10088e-07
8.17962e-07
-1.84813e-07
1.84229e-07
-8.18099e-07
-2.93101e-10
-0.00105764
5.66286e-10
-1.1507e-06
2.07515e-07
-2.07938e-07
-8.18118e-07
1.84305e-07
8.18008e-07
-1.84877e-07
1.17905e-06
0.00105679
-2.81659e-10
-0.00105679
5.78776e-10
-1.17823e-06
2.10087e-07
-2.10495e-07
-8.18096e-07
1.84228e-07
-1.84815e-07
8.17967e-07
-1.9851e-07
-2.03259e-07
0.000258183
-1.14626e-06
0.00026011
-0.000258183
1.99325e-07
2.0407e-07
-1.56565e-10
5.34444e-10
0.00105781
-2.07988e-07
1.14635e-06
2.07564e-07
8.18084e-07
-1.87553e-07
1.86947e-07
-8.18232e-07
-3.14096e-10
-0.00105731
5.76673e-10
-1.14543e-06
2.07487e-07
-2.07937e-07
-8.17949e-07
1.86907e-07
8.17887e-07
-1.87488e-07
1.14635e-06
0.00105781
-1.64017e-10
-0.00105781
5.34903e-10
-1.14554e-06
2.07562e-07
-2.07988e-07
-8.1823e-07
1.86948e-07
-1.87556e-07
8.18089e-07
-0.000258196
2.0162e-07
2.0677e-07
1.18344e-06
1.14813e-06
-1.98349e-07
-2.05917e-07
0.000258201
-1.18425e-06
-1.14895e-06
0.000260128
-0.000258201
1.99161e-07
2.06736e-07
5.91834e-10
0.00105688
-2.13205e-07
1.18425e-06
2.12777e-07
8.17942e-07
-1.84809e-07
-8.18068e-07
1.84235e-07
-1.18875e-06
-2.30231e-10
5.68684e-10
0.00105731
-2.15927e-07
1.18956e-06
2.155e-07
8.23381e-07
-1.87552e-07
-8.23516e-07
1.86964e-07
0.00105688
-2.81479e-10
-0.00105688
5.963e-10
-1.18344e-06
2.12772e-07
-2.13212e-07
-8.18067e-07
1.84234e-07
-1.84814e-07
8.17945e-07
1.18956e-06
0.00105731
-2.18423e-10
-0.00105731
5.7326e-10
-1.18875e-06
2.15495e-07
-2.15933e-07
-8.2352e-07
1.86959e-07
-1.87559e-07
8.23381e-07
-2.01019e-07
-2.0329e-07
0.000258221
-1.15153e-06
0.000260156
-0.000258221
2.01844e-07
2.04109e-07
5.70305e-10
0.0010579
-2.10657e-07
1.14895e-06
2.10238e-07
8.2067e-07
-1.87563e-07
-8.20771e-07
1.86982e-07
-1.18349e-06
-2.66397e-10
5.9879e-10
0.00105699
-2.15907e-07
1.1843e-06
2.15475e-07
8.20594e-07
-1.87508e-07
-8.2072e-07
1.86935e-07
0.0010579
-2.72753e-10
-0.0010579
5.69898e-10
-1.14814e-06
2.10234e-07
-2.10662e-07
-8.20782e-07
1.86976e-07
-1.87557e-07
8.20658e-07
1.1843e-06
0.00105699
-2.56237e-10
-0.00105699
5.80794e-10
-1.18348e-06
2.15473e-07
-2.15909e-07
-8.20725e-07
1.86931e-07
-1.87516e-07
8.20596e-07
-2.7799e-10
5.80749e-10
0.00105679
-2.10495e-07
1.17905e-06
2.1009e-07
8.17962e-07
-1.84812e-07
1.84229e-07
-8.18098e-07
-2.84075e-10
-0.00105764
5.66835e-10
-1.1507e-06
2.07516e-07
-2.07941e-07
-8.18124e-07
1.84304e-07
8.18007e-07
-1.84882e-07
1.17905e-06
0.00105679
-2.73904e-10
-0.00105679
5.82919e-10
-1.17823e-06
2.10088e-07
-2.105e-07
-8.18102e-07
1.84228e-07
-1.84821e-07
8.17967e-07
-1.98509e-07
-2.03258e-07
0.000258183
-1.14626e-06
0.00026011
-0.000258183
1.99325e-07
2.04069e-07
-1.53498e-10
5.36623e-10
0.00105781
-2.07989e-07
1.14635e-06
2.07563e-07
8.18084e-07
-1.87552e-07
1.86948e-07
-8.18232e-07
-3.0302e-10
-0.00105731
5.77421e-10
-1.14543e-06
2.07487e-07
-2.07941e-07
-8.17956e-07
1.86905e-07
8.17886e-07
-1.87495e-07
1.14635e-06
0.00105781
-1.55293e-10
-0.00105781
5.39273e-10
-1.14555e-06
2.07562e-07
-2.07992e-07
-8.18234e-07
1.86946e-07
-1.87561e-07
8.18089e-07
-0.000258196
2.0162e-07
2.0677e-07
1.18344e-06
1.14814e-06
-1.98351e-07
-2.0592e-07
0.000258201
-1.18426e-06
-1.14895e-06
0.000260128
-0.000258201
1.99166e-07
2.06742e-07
5.90982e-10
0.00105688
-2.13209e-07
1.18426e-06
2.12778e-07
8.17943e-07
-1.84813e-07
-8.18072e-07
1.84238e-07
-1.18875e-06
-2.20679e-10
5.7111e-10
0.00105731
-2.15933e-07
1.18956e-06
2.15498e-07
8.23382e-07
-1.87555e-07
-8.23521e-07
1.86965e-07
0.00105688
-2.92574e-10
-0.00105688
5.84749e-10
-1.18344e-06
2.12778e-07
-2.13207e-07
-8.18063e-07
1.84238e-07
-1.8481e-07
8.1795e-07
1.18957e-06
0.00105731
-2.3186e-10
-0.00105731
5.6479e-10
-1.18874e-06
2.155e-07
-2.15929e-07
-8.23515e-07
1.86963e-07
-1.87555e-07
8.23385e-07
-2.01023e-07
-2.03296e-07
0.000258221
-1.15153e-06
0.000260156
-0.000258221
2.01847e-07
2.04113e-07
5.70604e-10
0.0010579
-2.1066e-07
1.14895e-06
2.1024e-07
8.20672e-07
-1.87566e-07
-8.20775e-07
1.86984e-07
-1.1835e-06
-2.58458e-10
6.00305e-10
0.00105699
-2.15912e-07
1.1843e-06
2.15473e-07
8.20596e-07
-1.87511e-07
-8.20724e-07
1.86936e-07
0.0010579
-2.89149e-10
-0.0010579
5.61788e-10
-1.14813e-06
2.1024e-07
-2.10657e-07
-8.20776e-07
1.8698e-07
-1.87551e-07
8.20664e-07
1.1843e-06
0.00105699
-2.74854e-10
-0.00105699
5.72851e-10
-1.18348e-06
2.15477e-07
-2.15905e-07
-8.20718e-07
1.86935e-07
-1.87509e-07
8.206e-07
-2.78716e-10
5.78315e-10
0.00105679
-2.10498e-07
1.17905e-06
2.10092e-07
8.17968e-07
-1.84815e-07
1.84234e-07
-8.181e-07
-2.97809e-10
-0.00105764
5.59354e-10
-1.1507e-06
2.0752e-07
-2.07936e-07
-8.18118e-07
1.84308e-07
8.18012e-07
-1.84876e-07
1.17906e-06
0.00105679
-2.87894e-10
-0.00105679
5.72391e-10
-1.17822e-06
2.10091e-07
-2.10494e-07
-8.18094e-07
1.84232e-07
-1.84813e-07
8.17972e-07
-1.98512e-07
-2.03263e-07
0.000258183
-1.14626e-06
0.00026011
-0.000258183
1.99327e-07
2.04069e-07
-1.59314e-10
5.34204e-10
0.00105781
-2.07991e-07
1.14635e-06
2.07567e-07
8.1809e-07
-1.87555e-07
1.86952e-07
-8.18234e-07
-3.20698e-10
-0.00105731
5.64027e-10
-1.14542e-06
2.07493e-07
-2.07935e-07
-8.17949e-07
1.8691e-07
8.17891e-07
-1.87488e-07
1.14635e-06
0.00105781
-1.72331e-10
-0.00105781
5.30544e-10
-1.14554e-06
2.07566e-07
-2.07987e-07
-8.18228e-07
1.86951e-07
-1.87554e-07
8.18093e-07
-0.000258196
2.01623e-07
2.06772e-07
1.18343e-06
1.14813e-06
-1.98345e-07
-2.05914e-07
0.000258201
-1.18425e-06
-1.14895e-06
0.000260128
-0.000258201
1.99165e-07
2.06739e-07
5.81606e-10
0.00105688
-2.13202e-07
1.18426e-06
2.1278e-07
8.17945e-07
-1.84806e-07
-8.18065e-07
1.84239e-07
-1.18874e-06
-2.3389e-10
5.65541e-10
0.00105731
-2.15925e-07
1.18956e-06
2.155e-07
8.23383e-07
-1.87549e-07
-8.23514e-07
1.86966e-07
0.00105688
-2.93278e-10
-0.00105688
5.85002e-10
-1.18344e-06
2.12775e-07
-2.13208e-07
-8.18063e-07
1.84238e-07
-1.84809e-07
8.1795e-07
1.18956e-06
0.00105731
-2.36711e-10
-0.00105731
5.75183e-10
-1.18875e-06
2.15498e-07
-2.1593e-07
-8.23514e-07
1.86962e-07
-1.87555e-07
8.23385e-07
-2.01017e-07
-2.03289e-07
0.000258221
-1.15153e-06
0.000260156
-0.000258221
2.01845e-07
2.04113e-07
5.63625e-10
0.0010579
-2.10652e-07
1.14895e-06
2.10243e-07
8.20675e-07
-1.87559e-07
-8.20767e-07
1.86986e-07
-1.18349e-06
-2.75056e-10
5.81653e-10
0.00105699
-2.15903e-07
1.1843e-06
2.15477e-07
8.20598e-07
-1.87504e-07
-8.20717e-07
1.86939e-07
0.0010579
-2.94078e-10
-0.0010579
5.65325e-10
-1.14813e-06
2.10238e-07
-2.10657e-07
-8.20776e-07
1.8698e-07
-1.87551e-07
8.20664e-07
1.1843e-06
0.00105699
-2.74568e-10
-0.00105699
5.80767e-10
-1.18348e-06
2.15475e-07
-2.15907e-07
-8.20718e-07
1.86935e-07
-1.8751e-07
8.20599e-07
-2.92384e-10
5.67059e-10
0.00105679
-2.10492e-07
1.17906e-06
2.10094e-07
8.17969e-07
-1.84807e-07
1.84235e-07
-8.18093e-07
-2.94029e-10
-0.00105764
5.66213e-10
-1.1507e-06
2.07516e-07
-2.0794e-07
-8.18118e-07
1.84308e-07
8.18011e-07
-1.84877e-07
1.17905e-06
0.00105679
-2.78798e-10
-0.00105679
5.77982e-10
-1.17823e-06
2.10087e-07
-2.10497e-07
-8.18095e-07
1.8423e-07
-1.84815e-07
8.1797e-07
-1.98506e-07
-2.03257e-07
0.000258183
-1.14626e-06
0.00026011
-0.000258183
1.99329e-07
2.04074e-07
-1.78003e-10
5.25332e-10
0.00105781
-2.07983e-07
1.14635e-06
2.0757e-07
8.18091e-07
-1.87547e-07
1.86954e-07
-8.18227e-07
-3.18557e-10
-0.00105731
5.67896e-10
-1.14543e-06
2.0749e-07
-2.07906e-07
-8.17948e-07
1.8691e-07
8.17891e-07
-1.87488e-07
1.14635e-06
0.00105781
-1.81501e-10
-0.00105781
5.43025e-10
-1.14554e-06
2.07564e-07
-2.07986e-07
-8.18226e-07
1.8695e-07
-1.87554e-07
8.18093e-07
-0.000258196
2.01622e-07
2.0677e-07
1.18343e-06
1.14813e-06
-1.98345e-07
-2.05915e-07
0.000258201
-1.18425e-06
-1.14895e-06
0.000260128
-0.000258201
1.99169e-07
2.06743e-07
5.78064e-10
0.00105688
-2.13202e-07
1.18426e-06
2.12781e-07
8.17944e-07
-1.84806e-07
-8.18066e-07
1.84239e-07
-1.18874e-06
-2.45354e-10
5.69174e-10
0.00105731
-2.15924e-07
1.18956e-06
2.15502e-07
8.23385e-07
-1.87548e-07
-8.23513e-07
1.86967e-07
0.00105688
-2.89533e-10
-0.00105688
5.6556e-10
-1.18343e-06
2.12781e-07
-2.132e-07
-8.18058e-07
1.84239e-07
-1.84805e-07
8.17951e-07
1.18956e-06
0.00105731
-2.45523e-10
-0.00105731
5.76782e-10
-1.18874e-06
2.15498e-07
-2.15924e-07
-8.23507e-07
1.86962e-07
-1.87548e-07
8.23384e-07
-2.01018e-07
-2.03288e-07
0.000258221
-1.15153e-06
0.000260156
-0.000258221
2.01847e-07
2.04114e-07
5.63788e-10
0.0010579
-2.10652e-07
1.14895e-06
2.10244e-07
8.20674e-07
-1.87559e-07
-8.20768e-07
1.86986e-07
-1.18348e-06
-2.74227e-10
5.80264e-10
0.00105699
-2.15901e-07
1.1843e-06
2.15478e-07
8.20596e-07
-1.87504e-07
-8.20717e-07
1.86937e-07
0.0010579
-2.96444e-10
-0.0010579
5.50302e-10
-1.14813e-06
2.10242e-07
-2.10651e-07
-8.20768e-07
1.86983e-07
-1.87543e-07
8.20667e-07
1.18431e-06
0.00105699
-2.73805e-10
-0.00105699
5.61478e-10
-1.18348e-06
2.15477e-07
-2.15899e-07
-8.20716e-07
1.86932e-07
-1.87507e-07
8.20595e-07
-2.84589e-10
5.72582e-10
0.00105679
-2.10496e-07
1.17905e-06
2.10091e-07
8.17967e-07
-1.8481e-07
1.84235e-07
-8.18097e-07
-2.95832e-10
-0.00105764
5.54555e-10
-1.15069e-06
2.07519e-07
-2.07931e-07
-8.18112e-07
1.84309e-07
8.18012e-07
-1.84871e-07
1.17905e-06
0.00105679
-2.59861e-10
-0.00105679
5.51731e-10
-1.17822e-06
2.10091e-07
-2.1049e-07
-8.18089e-07
1.84236e-07
-1.84806e-07
8.17973e-07
-1.98504e-07
-2.03253e-07
0.000258183
-1.14626e-06
0.000260108
-0.000258183
1.99334e-07
2.06565e-07
-1.97482e-10
5.41555e-10
0.00105781
-2.07983e-07
1.14635e-06
2.0757e-07
8.18095e-07
-1.87546e-07
1.86957e-07
-8.18225e-07
-3.15764e-10
-0.00105731
5.49964e-10
-1.14542e-06
2.07523e-07
-2.07928e-07
-8.17942e-07
1.86933e-07
8.1784e-07
-1.87487e-07
1.14636e-06
0.00105781
-2.69026e-10
-0.00105781
5.4284e-10
-1.14553e-06
2.07572e-07
-2.07976e-07
-8.18207e-07
1.86968e-07
-1.87534e-07
8.1811e-07
-0.000258196
2.01626e-07
2.06775e-07
1.18342e-06
1.14813e-06
-1.98342e-07
-2.05908e-07
0.000258201
-1.18694e-06
-1.15167e-06
0.000260131
-0.000258201
2.01771e-07
2.06937e-07
5.37245e-10
0.00105688
-2.13195e-07
1.18425e-06
2.12787e-07
8.17943e-07
-1.84807e-07
-8.18066e-07
1.84238e-07
-1.18874e-06
-2.37209e-10
5.50113e-10
0.00105731
-2.1592e-07
1.18957e-06
2.15515e-07
8.23392e-07
-1.8754e-07
-8.23502e-07
1.86975e-07
0.00105688
-7.49921e-10
-0.00105687
-5.13174e-09
-1.18591e-06
2.15601e-07
-2.1309e-07
-8.20547e-07
1.87056e-07
-1.87332e-07
8.2071e-07
1.19225e-06
0.00105732
-1.14084e-08
-0.00105731
3.27275e-10
-1.18862e-06
2.15639e-07
-2.1581e-07
-8.20774e-07
1.84443e-07
-1.8478e-07
8.2092e-07
-2.01012e-07
-2.03284e-07
0.000258221
-1.15423e-06
0.000260154
-0.000258219
2.01986e-07
2.09234e-07
5.43742e-10
0.0010579
-2.10651e-07
1.15157e-06
2.12929e-07
8.2068e-07
-1.8755e-07
-8.20755e-07
1.86993e-07
-1.18348e-06
-2.85907e-10
5.53586e-10
0.00105699
-2.15896e-07
1.18431e-06
2.15486e-07
8.20601e-07
-1.875e-07
-8.20711e-07
1.86942e-07
0.00105791
-8.21343e-10
-0.00105791
2.9996e-10
-1.15065e-06
2.1306e-07
-2.13203e-07
-8.23236e-07
1.87156e-07
-1.87411e-07
8.23439e-07
1.1818e-06
0.00105699
-7.67618e-10
-0.00105699
-5.0937e-09
-1.18077e-06
2.15639e-07
-2.15781e-07
-8.20631e-07
1.87096e-07
-1.87368e-07
8.20815e-07
-2.62037e-10
5.32068e-10
0.00105679
-2.10484e-07
1.17906e-06
2.10098e-07
8.17977e-07
-1.84795e-07
1.84244e-07
-8.18083e-07
-6.12782e-09
-0.00105765
2.84776e-10
-1.15059e-06
2.07686e-07
-2.07809e-07
-8.20598e-07
1.87111e-07
8.23382e-07
-1.84751e-07
1.18178e-06
0.00105679
-6.19831e-09
-0.00105679
2.62586e-10
-1.17815e-06
2.12934e-07
-2.10385e-07
-8.20578e-07
1.87036e-07
-1.84693e-07
8.20728e-07
-1.98502e-07
-2.05735e-07
0.000258183
-1.14639e-06
0.000260105
-0.000258186
2.01961e-07
2.06719e-07
-2.57165e-10
5.32527e-10
0.00105781
-2.07971e-07
1.14636e-06
2.07578e-07
8.18117e-07
-1.87522e-07
1.86977e-07
-8.182e-07
-8.03749e-10
-0.00105732
-5.07088e-09
-1.14532e-06
2.077e-07
-2.07801e-07
-8.17796e-07
1.87103e-07
8.17996e-07
-1.8734e-07
1.14644e-06
0.00105781
-8.02819e-10
-0.00105782
-5.03385e-09
-1.14025e-06
2.07707e-07
-2.05195e-07
-8.15459e-07
1.84472e-07
-1.84749e-07
8.18224e-07
-0.000258201
2.01798e-07
2.09402e-07
1.18321e-06
1.14534e-06
-2.00587e-07
-2.03219e-07
0.000258206
-1.24536e-06
-1.21007e-06
0.0002602
-0.00025823
2.3986e-07
2.45085e-07
-2.08416e-10
0.00105688
-2.12915e-07
1.18973e-06
2.15862e-07
8.23467e-07
-1.87176e-07
-8.20387e-07
1.87318e-07
-1.18848e-06
-6.96324e-09
-5.50071e-09
0.00105731
-2.15645e-07
1.1924e-06
2.18534e-07
8.26362e-07
-1.84581e-07
-8.20676e-07
1.89968e-07
0.00105712
-3.03678e-07
-0.00105697
-1.40014e-07
-1.15973e-06
2.51947e-07
-1.95557e-07
-7.90148e-07
2.25943e-07
-1.61371e-07
8.75906e-07
1.2506e-06
0.00105754
-3.03673e-07
-0.00105739
-1.34622e-07
-1.16509e-06
2.51935e-07
-1.95674e-07
-7.98273e-07
2.28632e-07
-1.61457e-07
8.84035e-07
-2.00793e-07
-2.05543e-07
0.000258221
-1.21001e-06
0.000260223
-0.00025825
2.42559e-07
2.4476e-07
-5.49412e-09
0.00105792
-2.10351e-07
1.14921e-06
2.10595e-07
8.23669e-07
-1.87245e-07
-8.20512e-07
1.90062e-07
-1.17806e-06
-1.76103e-08
-5.55553e-09
0.001057
-2.12894e-07
1.18458e-06
2.15859e-07
8.23622e-07
-1.84518e-07
-8.20484e-07
1.8736e-07
0.00105813
-3.09578e-07
-0.00105799
-1.34544e-07
-1.12188e-06
2.4935e-07
-1.90379e-07
-7.95431e-07
2.28754e-07
-1.61385e-07
8.81356e-07
1.24277e-06
0.00105723
-3.09069e-07
-0.00105708
-1.39969e-07
-1.15723e-06
2.51981e-07
-1.92955e-07
-7.92812e-07
2.28686e-07
-1.63963e-07
8.78663e-07
-1.2282e-08
-5.60476e-09
0.00105679
-2.1287e-07
1.18453e-06
2.15846e-07
8.23546e-07
-1.84486e-07
1.8731e-07
-8.17821e-07
-3.04092e-07
-0.00105773
-1.39582e-07
-1.12446e-06
2.46626e-07
-1.87759e-07
-7.9287e-07
2.25943e-07
8.78636e-07
-1.61398e-07
1.24273e-06
0.00105702
-3.03759e-07
-0.00105688
-1.4003e-07
-1.15457e-06
2.5193e-07
-1.90268e-07
-7.9278e-07
2.28619e-07
-1.63977e-07
8.78573e-07
-1.98256e-07