/*--------------------------------*- C++ -*----------------------------------*\
| =========                 |                                                 |
| \\      /  F ield         | OpenFOAM: The Open Source CFD Toolbox           |
|  \\    /   O peration     | Version:  2206                                  |
|   \\  /    A nd           | Website:  www.openfoam.com                      |
|    \\/     M anipulation  |                                                 |
\*---------------------------------------------------------------------------*/
FoamFile
{
    version     2.0;
    format      ascii;
    arch        "LSB;label=32;scalar=64";
    class       surfaceScalarField;
    location    "2";
    object      phi;
}
// * * * * * * * * * * * * * * * * * * * * * * * * * * * * * * * * * * * * * //

dimensions      [0 3 -1 0 0 0 0];

oriented        oriented;

internalField   nonuniform List<scalar> 
83612
(
3.47984e-07
3.48052e-07
-1.55263e-06
-3.48112e-07
-3.51087e-07
1.5558e-06
-8.19309e-07
3.04517e-06
-3.43356e-07
6.84633e-07
8.21687e-07
2.14226e-06
-3.29495e-06
-1.73285e-06
-2.9644e-06
2.28682e-06
2.795e-06
-2.6207e-06
-8.23203e-07
3.04626e-06
-3.47275e-07
6.82099e-07
8.2433e-07
2.14274e-06
-3.29386e-06
-1.73167e-06
-2.96231e-06
2.2869e-06
2.79475e-06
-2.61876e-06
4.23946e-07
-3.04186e-06
-3.04275e-06
2.84716e-06
2.8565e-06
-4.29913e-08
3.5367e-07
3.45028e-07
-1.57262e-06
-3.46683e-07
-3.56521e-07
1.57713e-06
-8.35413e-07
3.04276e-06
-3.47861e-07
6.8407e-07
8.39284e-07
2.13967e-06
-3.29142e-06
-1.73021e-06
-2.95991e-06
2.28459e-06
2.79183e-06
-2.61739e-06
-8.34355e-07
3.04302e-06
-3.52911e-07
6.8591e-07
8.37497e-07
2.14097e-06
-3.29105e-06
-1.72871e-06
-2.95977e-06
2.28446e-06
2.79231e-06
-2.61737e-06
4.32283e-07
-3.04096e-06
-3.0422e-06
2.84435e-06
2.85379e-06
-4.7264e-08
3.4891e-07
3.54014e-07
-1.58841e-06
-3.51785e-07
-3.52793e-07
1.59007e-06
-8.46546e-07
3.04422e-06
-3.57522e-07
6.7696e-07
8.46692e-07
2.14187e-06
-3.28687e-06
-1.72549e-06
-2.95689e-06
2.2854e-06
2.79274e-06
-2.61458e-06
-8.4756e-07
3.04101e-06
-3.51339e-07
6.83029e-07
8.49868e-07
2.13855e-06
-3.28789e-06
-1.72706e-06
-2.95677e-06
2.28281e-06
2.7899e-06
-2.61454e-06
4.35558e-07
-3.03946e-06
-3.04082e-06
2.84228e-06
2.85141e-06
-4.89676e-08
3.49457e-07
3.58081e-07
-1.58291e-06
-3.53256e-07
-3.51372e-07
1.58e-06
-8.45176e-07
3.04368e-06
-3.56551e-07
6.80745e-07
8.44772e-07
2.14144e-06
-3.28862e-06
-1.72686e-06
-2.95754e-06
2.28585e-06
2.79347e-06
-2.61521e-06
-8.48505e-07
3.0462e-06
-3.59471e-07
6.75079e-07
8.45215e-07
2.14313e-06
-3.28713e-06
-1.72502e-06
-2.95614e-06
2.28626e-06
2.79388e-06
-2.61349e-06
4.35029e-07
-3.04138e-06
-3.04311e-06
2.84447e-06
2.853e-06
-4.80177e-08
3.5595e-07
3.51124e-07
-1.56681e-06
-3.47721e-07
-3.54582e-07
1.56204e-06
-8.34122e-07
3.04764e-06
-3.56429e-07
6.76577e-07
8.30509e-07
2.14486e-06
-3.29014e-06
-1.72778e-06
-2.95968e-06
2.28842e-06
2.79642e-06
-2.61628e-06
-8.34776e-07
3.04613e-06
-3.58422e-07
6.81743e-07
8.32194e-07
2.14441e-06
-3.29023e-06
-1.72696e-06
-2.95994e-06
2.2869e-06
2.79595e-06
-2.61701e-06
4.27473e-07
-3.0454e-06
-3.0468e-06
2.8491e-06
2.85834e-06
-4.27047e-08
3.50116e-07
3.52633e-07
-1.55591e-06
-3.49803e-07
-3.53354e-07
1.55632e-06
-8.23723e-07
3.04734e-06
-3.56479e-07
6.78311e-07
8.21767e-07
2.14517e-06
-3.29233e-06
-1.72959e-06
-2.96085e-06
2.28973e-06
2.79796e-06
-2.6173e-06
-8.24463e-07
3.04773e-06
-3.52503e-07
6.80499e-07
8.21851e-07
2.14463e-06
-3.29309e-06
-1.73054e-06
-2.96151e-06
2.28836e-06
2.79673e-06
-2.6177e-06
4.22229e-07
-3.0456e-06
-3.04644e-06
2.85016e-06
2.85993e-06
-4.02801e-08
3.52328e-07
3.46964e-07
-1.56281e-06
-3.47458e-07
-3.56323e-07
1.5673e-06
-8.282e-07
3.04495e-06
-3.4904e-07
6.81088e-07
8.30645e-07
2.14208e-06
-3.29307e-06
-1.73127e-06
-2.96114e-06
2.28731e-06
2.79459e-06
-2.61793e-06
-8.27885e-07
3.04243e-06
-3.46596e-07
6.88316e-07
8.32863e-07
2.13968e-06
-3.29291e-06
-1.73091e-06
-2.96161e-06
2.28402e-06
2.79162e-06
-2.61902e-06
4.29298e-07
-3.04088e-06
-3.04213e-06
2.84518e-06
2.85457e-06
-4.60433e-08
3.5132e-07
3.52327e-07
-1.57297e-06
-3.50167e-07
-3.53252e-07
1.57274e-06
-8.37293e-07
3.04567e-06
-3.51962e-07
6.79733e-07
8.38518e-07
2.1422e-06
-3.29073e-06
-1.7292e-06
-2.96006e-06
2.28656e-06
2.79358e-06
-2.61701e-06
-8.40528e-07
3.0459e-06
-3.55558e-07
6.79357e-07
8.39559e-07
2.14259e-06
-3.28959e-06
-1.72763e-06
-2.95831e-06
2.28598e-06
2.79359e-06
-2.61538e-06
4.33447e-07
-3.04268e-06
-3.04401e-06
2.84565e-06
2.85469e-06
-4.70982e-08
3.53451e-07
3.547e-07
-1.5685e-06
-3.51603e-07
-3.53009e-07
1.56496e-06
-8.36694e-07
3.04687e-06
-3.57258e-07
6.79491e-07
8.34262e-07
2.14438e-06
-3.29022e-06
-1.72829e-06
-2.95979e-06
2.28816e-06
2.79597e-06
-2.61688e-06
-8.37551e-07
3.04692e-06
-3.59998e-07
6.77985e-07
8.3602e-07
2.14445e-06
-3.28937e-06
-1.72711e-06
-2.959e-06
2.28787e-06
2.79583e-06
-2.61606e-06
4.30013e-07
-3.0446e-06
-3.04625e-06
2.8485e-06
2.85726e-06
-4.49213e-08
3.34494e-07
3.3617e-07
-1.57048e-06
-3.15858e-07
-3.19385e-07
1.53505e-06
-8.4649e-07
3.06027e-06
-3.42833e-07
6.998e-07
8.39703e-07
2.15918e-06
-3.31141e-06
-1.74982e-06
-2.9859e-06
2.30567e-06
2.81388e-06
-2.64205e-06
-8.44892e-07
3.05956e-06
-3.37862e-07
7.0267e-07
8.37813e-07
2.15829e-06
-3.31245e-06
-1.75058e-06
-2.9869e-06
2.30448e-06
2.81291e-06
-2.64304e-06
4.23868e-07
-3.05835e-06
-3.05976e-06
2.86807e-06
2.87782e-06
-5.16504e-08
-2.46324e-06
-2.44973e-06
-5.35343e-07
1.09075e-06
1.09948e-06
3.25809e-06
-1.11883e-06
3.00054e-06
2.44986e-06
2.45444e-06
-8.94509e-10
2.10439e-06
-4.05073e-06
-2.4199e-06
-3.87642e-06
2.20331e-06
2.71356e-06
-3.45935e-06
-1.10798e-06
3.00586e-06
2.45643e-06
2.41175e-06
-8.60768e-10
2.10988e-06
-4.04389e-06
-2.41358e-06
-3.88103e-06
2.20418e-06
2.71591e-06
-3.45668e-06
2.26254e-08
-2.99582e-06
-3.00717e-06
3.00819e-06
3.01481e-06
-4.26317e-08
-5.28431e-06
-5.28548e-06
1.51083e-05
2.67873e-05
2.67807e-05
6.89998e-06
4.14081e-06
5.57117e-06
5.5712e-06
-4.42075e-06
-1.69624e-05
-1.87593e-05
-4.42163e-06
-1.69648e-05
-1.87607e-05
-1.01614e-05
-3.27333e-06
5.28378e-06
-1.90068e-08
9.74244e-08
8.07251e-06
-1.01609e-05
5.28434e-06
-3.27427e-06
9.86756e-08
-1.96463e-08
8.07183e-06
-4.07494e-06
3.26605e-06
3.26559e-06
-1.5117e-06
-1.51351e-06
5.68515e-07
3.28888e-06
3.28977e-06
-4.28971e-07
4.43221e-08
-3.09403e-06
-3.09997e-06
8.49157e-07
-3.49652e-07
-8.50307e-07
6.81321e-07
3.04415e-06
-1.72868e-06
2.14375e-06
2.79499e-06
-2.6192e-06
2.28603e-06
-2.96269e-06
-3.28806e-06
8.49338e-07
-3.52316e-07
-8.50108e-07
6.79127e-07
3.04381e-06
-1.72625e-06
2.14057e-06
2.7974e-06
-2.61962e-06
2.28897e-06
-2.96286e-06
3.29424e-06
-4.27397e-07
4.3619e-08
-3.10261e-06
-3.09592e-06
8.23411e-07
-3.51165e-07
-8.2489e-07
6.80557e-07
3.04524e-06
-1.72649e-06
2.13945e-06
2.79709e-06
-2.61934e-06
2.2887e-06
-2.96281e-06
-3.28735e-06
8.51938e-07
-3.54801e-07
-8.51701e-07
6.78835e-07
3.04364e-06
-1.72551e-06
2.14069e-06
2.79656e-06
-2.61864e-06
2.28843e-06
-2.9621e-06
-3.47358e-07
-8.19329e-07
6.80646e-07
3.04684e-06
-1.73194e-06
2.14419e-06
2.79706e-06
-2.61986e-06
-2.96372e-06
2.2884e-06
-3.29177e-06
8.46345e-07
-3.48253e-07
-8.4651e-07
6.87e-07
3.04329e-06
-1.73068e-06
2.14378e-06
2.79565e-06
-2.62093e-06
2.28622e-06
-2.96414e-06
3.29403e-06
-4.25578e-07
4.2331e-08
-3.10286e-06
-3.09528e-06
-3.48417e-07
-8.22381e-07
6.80495e-07
3.04718e-06
-1.73174e-06
2.14348e-06
2.79545e-06
-2.61856e-06
-2.96227e-06
2.2876e-06
-3.29316e-06
8.22301e-07
-3.43127e-07
-8.21318e-07
6.88055e-07
3.0441e-06
-1.72982e-06
2.13792e-06
2.79532e-06
-2.62234e-06
2.28732e-06
-2.96525e-06
4.11966e-08
-3.09811e-06
-3.10407e-06
-3.04356e-06
-3.04442e-06
2.84745e-06
2.85685e-06
-4.52903e-08
3.28812e-06
3.29048e-06
-4.33754e-07
4.75684e-08
-3.09384e-06
-3.09857e-06
6.82018e-07
8.48901e-07
2.14358e-06
-3.28916e-06
-1.72945e-06
-2.96307e-06
2.28599e-06
2.7947e-06
-2.61993e-06
3.04204e-06
-3.49894e-07
6.83192e-07
8.51316e-07
2.13921e-06
-3.28825e-06
-1.7266e-06
-2.96396e-06
2.28741e-06
2.79587e-06
-2.62099e-06
8.61813e-07
-3.53512e-07
-8.58528e-07
6.82947e-07
3.0417e-06
-1.72814e-06
2.14198e-06
2.79293e-06
-2.61758e-06
2.28471e-06
-2.96019e-06
-3.28644e-06
8.64772e-07
-3.49178e-07
-8.60499e-07
6.84259e-07
3.03953e-06
-1.7258e-06
2.13642e-06
2.79307e-06
-2.6195e-06
2.28525e-06
-2.96188e-06
2.85521e-06
2.84963e-06
-4.5019e-08
3.29244e-06
-4.36901e-07
4.98744e-08
-3.09945e-06
-3.0924e-06
6.82861e-07
8.22871e-07
2.13877e-06
-3.29061e-06
-1.72793e-06
-2.9635e-06
2.28834e-06
2.79655e-06
-2.6203e-06
3.04269e-06
-3.52645e-07
6.81195e-07
8.53054e-07
2.13976e-06
-3.28738e-06
-1.72588e-06
-2.96275e-06
2.28753e-06
2.79574e-06
-2.61937e-06
8.3499e-07
-3.44655e-07
-8.31093e-07
6.84213e-07
3.04225e-06
-1.72849e-06
2.13547e-06
2.79302e-06
-2.61934e-06
2.2864e-06
-2.96228e-06
-3.28758e-06
8.61105e-07
-3.44911e-07
-8.58854e-07
6.85471e-07
3.03968e-06
-1.72743e-06
2.13575e-06
2.79222e-06
-2.61873e-06
2.28487e-06
-2.9616e-06
-3.44568e-07
6.88605e-07
8.49621e-07
2.14184e-06
-3.29192e-06
-1.73143e-06
-2.96485e-06
2.28473e-06
-2.62147e-06
2.79392e-06
-3.45176e-07
-8.3113e-07
6.85666e-07
3.04248e-06
-1.73126e-06
2.13956e-06
2.79203e-06
-2.61858e-06
-2.96109e-06
2.28453e-06
-3.28886e-06
8.61917e-07
-3.47258e-07
-8.58508e-07
6.85617e-07
3.04063e-06
-1.72955e-06
2.14029e-06
2.79126e-06
-2.61813e-06
2.2834e-06
-2.9608e-06
2.85642e-06
2.8501e-06
-4.31564e-08
3.29117e-06
-4.32215e-07
4.66627e-08
-3.09884e-06
-3.09435e-06
-3.43489e-07
6.89411e-07
8.25469e-07
2.137e-06
-3.29267e-06
-1.72938e-06
-2.96515e-06
2.28642e-06
-2.6224e-06
2.79434e-06
-3.51459e-07
-8.3128e-07
6.84718e-07
3.04383e-06
-1.7292e-06
2.14136e-06
2.79262e-06
-2.61801e-06
-2.96056e-06
2.2848e-06
-3.28905e-06
8.37178e-07
-3.50211e-07
-8.3392e-07
6.84552e-07
3.04197e-06
-1.72637e-06
2.13611e-06
2.79337e-06
-2.61871e-06
2.28604e-06
-2.96095e-06
4.65696e-08
-3.09262e-06
-3.09957e-06
-3.04076e-06
-3.04152e-06
2.84358e-06
2.85336e-06
-4.8416e-08
3.28613e-06
3.28561e-06
-4.37581e-07
5.0077e-08
-3.0888e-06
-3.09544e-06
6.82912e-07
8.6526e-07
2.14145e-06
-3.28732e-06
-1.72764e-06
-2.95972e-06
2.2844e-06
2.79257e-06
-2.6172e-06
3.03967e-06
-3.4908e-07
6.82825e-07
8.69113e-07
2.13608e-06
-3.28549e-06
-1.72524e-06
-2.96138e-06
2.28504e-06
2.79237e-06
-2.61915e-06
8.71968e-07
-3.51797e-07
-8.71219e-07
6.83262e-07
3.0399e-06
-1.72756e-06
2.13972e-06
2.79133e-06
-2.61528e-06
2.28364e-06
-2.95783e-06
-3.28411e-06
8.75519e-07
-3.51308e-07
-8.7447e-07
6.79939e-07
3.03953e-06
-1.72437e-06
2.13567e-06
2.79259e-06
-2.61584e-06
2.28537e-06
-2.95852e-06
2.851e-06
2.84521e-06
-5.06824e-08
3.28765e-06
-4.39295e-07
5.13386e-08
-3.09423e-06
-3.08958e-06
6.82947e-07
8.38407e-07
2.13518e-06
-3.28964e-06
-1.72799e-06
-2.96103e-06
2.28625e-06
2.79253e-06
-2.61816e-06
3.03903e-06
-3.40538e-07
6.86785e-07
8.64942e-07
2.13459e-06
-3.28755e-06
-1.72786e-06
-2.96224e-06
2.28337e-06
2.79008e-06
-2.61951e-06
8.48395e-07
-3.50109e-07
-8.46329e-07
6.78356e-07
3.04203e-06
-1.72415e-06
2.13539e-06
2.79138e-06
-2.61624e-06
2.28532e-06
-2.95843e-06
-3.28379e-06
8.77135e-07
-3.46286e-07
-8.73178e-07
6.86003e-07
3.03667e-06
-1.72441e-06
2.13323e-06
2.78885e-06
-2.6172e-06
2.28223e-06
-2.95924e-06
-3.47731e-07
6.8519e-07
8.65109e-07
2.14016e-06
-3.28847e-06
-1.72917e-06
-2.96042e-06
2.28335e-06
-2.61795e-06
2.79089e-06
-3.54825e-07
-8.44641e-07
6.7792e-07
3.04363e-06
-1.72641e-06
2.14098e-06
2.79229e-06
-2.61519e-06
-2.95768e-06
2.28504e-06
-3.28557e-06
8.7359e-07
-3.51664e-07
-8.71322e-07
6.84991e-07
3.0392e-06
-1.72631e-06
2.13939e-06
2.79014e-06
-2.61615e-06
2.28222e-06
-2.95852e-06
2.85216e-06
2.84546e-06
-4.77835e-08
3.28887e-06
-4.39581e-07
5.15519e-08
-3.09529e-06
-3.08934e-06
-3.499e-07
6.83405e-07
8.39684e-07
2.13629e-06
-3.28886e-06
-1.72636e-06
-2.96054e-06
2.28635e-06
-2.6184e-06
2.7933e-06
-3.4948e-07
-8.43222e-07
6.85798e-07
3.0402e-06
-1.72803e-06
2.1381e-06
2.78968e-06
-2.61587e-06
-2.95828e-06
2.28242e-06
-3.28675e-06
8.48994e-07
-3.46073e-07
-8.46176e-07
6.82819e-07
3.04041e-06
-1.72511e-06
2.13423e-06
2.79055e-06
-2.61717e-06
2.284e-06
-2.95973e-06
4.85041e-08
-3.0898e-06
-3.09546e-06
-3.03967e-06
-3.04202e-06
2.84343e-06
2.85129e-06
-5.06128e-08
3.28644e-06
3.28529e-06
-4.35078e-07
4.86706e-08
-3.08867e-06
-3.09666e-06
6.83225e-07
8.73046e-07
2.13909e-06
-3.28646e-06
-1.72836e-06
-2.95809e-06
2.28353e-06
2.79078e-06
-2.61555e-06
3.04007e-06
-3.4872e-07
6.79175e-07
8.75096e-07
2.1354e-06
-3.28411e-06
-1.72474e-06
-2.95871e-06
2.28552e-06
2.79225e-06
-2.61571e-06
8.71301e-07
-3.48234e-07
-8.73093e-07
6.79186e-07
3.04183e-06
-1.72804e-06
2.14039e-06
2.79132e-06
-2.61498e-06
2.28445e-06
-2.95768e-06
-3.2846e-06
8.74583e-07
-3.48066e-07
-8.7566e-07
6.80992e-07
3.03979e-06
-1.72498e-06
2.1353e-06
2.79191e-06
-2.61626e-06
2.28547e-06
-2.95848e-06
2.85161e-06
2.84454e-06
-5.11586e-08
3.28834e-06
-4.37825e-07
5.06787e-08
-3.09511e-06
-3.09068e-06
6.78068e-07
8.49892e-07
2.13627e-06
-3.28506e-06
-1.72339e-06
-2.9577e-06
2.28579e-06
2.79224e-06
-2.61573e-06
3.03761e-06
-3.49346e-07
6.8273e-07
8.79505e-07
2.13405e-06
-3.28267e-06
-1.72335e-06
-2.95818e-06
2.28299e-06
2.78977e-06
-2.61597e-06
8.45698e-07
-3.59807e-07
-8.48424e-07
6.77785e-07
3.0438e-06
-1.72271e-06
2.13822e-06
2.79496e-06
-2.61488e-06
2.28774e-06
-2.9571e-06
-3.28222e-06
8.76737e-07
-3.57129e-07
-8.79766e-07
6.74808e-07
3.04122e-06
-1.72211e-06
2.13716e-06
2.79373e-06
-2.61347e-06
2.28683e-06
-2.9558e-06
-3.51511e-07
6.83717e-07
8.73991e-07
2.13945e-06
-3.28523e-06
-1.726e-06
-2.95784e-06
2.28246e-06
-2.61554e-06
2.79063e-06
-3.56068e-07
-8.4583e-07
6.80603e-07
3.04396e-06
-1.72658e-06
2.14172e-06
2.79313e-06
-2.61557e-06
-2.95783e-06
2.28562e-06
-3.28592e-06
8.73561e-07
-3.50403e-07
-8.74292e-07
6.8097e-07
3.04039e-06
-1.72707e-06
2.13962e-06
2.7914e-06
-2.61478e-06
2.28368e-06
-2.95715e-06
2.84864e-06
2.84243e-06
-5.20231e-08
3.28693e-06
-4.34662e-07
4.86131e-08
-3.09439e-06
-3.08871e-06
-3.47142e-07
6.81856e-07
8.50128e-07
2.13466e-06
-3.28603e-06
-1.72452e-06
-2.95894e-06
2.28412e-06
-2.61663e-06
2.79067e-06
-3.58204e-07
-8.50506e-07
6.75019e-07
3.0455e-06
-1.72534e-06
2.14222e-06
2.79285e-06
-2.61309e-06
-2.95573e-06
2.28571e-06
-3.28515e-06
8.4966e-07
-3.54916e-07
-8.50997e-07
6.80023e-07
3.04203e-06
-1.72292e-06
2.13623e-06
2.79266e-06
-2.61531e-06
2.2857e-06
-2.95701e-06
4.85518e-08
-3.08842e-06
-3.09617e-06
-3.04205e-06
-3.04354e-06
2.84492e-06
2.85367e-06
-4.80768e-08
3.2868e-06
3.28811e-06
-4.30199e-07
4.53795e-08
-3.09232e-06
-3.09777e-06
6.78574e-07
8.70182e-07
2.14092e-06
-3.28644e-06
-1.72757e-06
-2.95787e-06
2.28462e-06
2.79153e-06
-2.61524e-06
3.03979e-06
-3.50443e-07
6.79517e-07
8.74504e-07
2.13565e-06
-3.28443e-06
-1.72449e-06
-2.95813e-06
2.28595e-06
2.79273e-06
-2.61606e-06
8.61711e-07
-3.57025e-07
-8.65252e-07
6.78603e-07
3.04422e-06
-1.72672e-06
2.14385e-06
2.79482e-06
-2.61532e-06
2.28641e-06
-2.9585e-06
-3.28415e-06
8.6488e-07
-3.55875e-07
-8.6909e-07
6.72211e-07
3.04389e-06
-1.72332e-06
2.13969e-06
2.79635e-06
-2.6151e-06
2.28886e-06
-2.95833e-06
2.85163e-06
2.84469e-06
-5.06749e-08
3.2892e-06
-4.32578e-07
4.7249e-08
-3.0968e-06
-3.09122e-06
6.77851e-07
8.43713e-07
2.13827e-06
-3.28621e-06
-1.72347e-06
-2.95785e-06
2.28798e-06
2.79518e-06
-2.61523e-06
3.04159e-06
-3.54782e-07
6.74787e-07
8.72861e-07
2.13754e-06
-3.28344e-06
-1.72309e-06
-2.95657e-06
2.28738e-06
2.79442e-06
-2.61396e-06
8.35257e-07
-3.51798e-07
-8.38059e-07
6.76749e-07
3.04521e-06
-1.72571e-06
2.13861e-06
2.79549e-06
-2.61629e-06
2.28848e-06
-2.95982e-06
-3.28646e-06
8.63372e-07
-3.45658e-07
-8.6592e-07
6.79197e-07
3.0416e-06
-1.72621e-06
2.13722e-06
2.79352e-06
-2.61687e-06
2.28649e-06
-2.96028e-06
-3.51304e-07
6.7844e-07
8.7234e-07
2.14038e-06
-3.286e-06
-1.72704e-06
-2.95705e-06
2.28465e-06
-2.6145e-06
2.79226e-06
-3.57199e-07
-8.38407e-07
6.74873e-07
3.04744e-06
-1.72726e-06
2.14459e-06
2.79603e-06
-2.61489e-06
-2.95836e-06
2.28827e-06
-3.28687e-06
8.61978e-07
-3.54614e-07
-8.65571e-07
6.74838e-07
3.04436e-06
-1.72707e-06
2.14362e-06
2.79507e-06
-2.61464e-06
2.28719e-06
-2.95828e-06
2.85403e-06
2.84622e-06
-4.712e-08
3.28907e-06
-4.29007e-07
4.47696e-08
-3.09715e-06
-3.09414e-06
-3.58163e-07
6.76709e-07
8.48002e-07
2.13748e-06
-3.28487e-06
-1.72226e-06
-2.95678e-06
2.28709e-06
-2.61488e-06
2.79423e-06
-3.59591e-07
-8.37878e-07
6.79333e-07
3.0463e-06
-1.72596e-06
2.14472e-06
2.79576e-06
-2.61616e-06
-2.95928e-06
2.28706e-06
-3.28577e-06
8.38128e-07
-3.61099e-07
-8.41124e-07
6.70862e-07
3.04612e-06
-1.72235e-06
2.14078e-06
2.79785e-06
-2.61521e-06
2.29018e-06
-2.95837e-06
4.36628e-08
-3.09032e-06
-3.09851e-06
-3.04375e-06
-3.04491e-06
2.84719e-06
2.85644e-06
-4.51661e-08
3.28933e-06
3.28947e-06
-4.29325e-07
4.48767e-08
-3.09387e-06
-3.10048e-06
6.79014e-07
8.57524e-07
2.14403e-06
-3.28726e-06
-1.72719e-06
-2.9591e-06
2.2869e-06
2.7958e-06
-2.61581e-06
3.04397e-06
-3.53738e-07
6.73669e-07
8.60224e-07
2.14001e-06
-3.28551e-06
-1.72461e-06
-2.9595e-06
2.28944e-06
2.79707e-06
-2.61616e-06
8.50416e-07
-3.49563e-07
-8.51606e-07
6.80839e-07
3.04414e-06
-1.7296e-06
2.14358e-06
2.7945e-06
-2.61811e-06
2.28646e-06
-2.96173e-06
-3.28807e-06
8.53e-07
-3.48726e-07
-8.54045e-07
6.77529e-07
3.04333e-06
-1.72732e-06
2.13903e-06
2.79615e-06
-2.61802e-06
2.28871e-06
-2.96157e-06
2.85627e-06
2.84924e-06
-4.64814e-08
3.29158e-06
-4.30976e-07
4.60966e-08
-3.09929e-06
-3.09548e-06
6.76812e-07
8.32137e-07
2.1388e-06
-3.28828e-06
-1.72578e-06
-2.96032e-06
2.2888e-06
2.79612e-06
-2.61683e-06
3.0419e-06
-3.45225e-07
6.79951e-07
8.60768e-07
2.13736e-06
-3.28719e-06
-1.72651e-06
-2.96077e-06
2.2866e-06
2.79397e-06
-2.61748e-06
8.2513e-07
-3.53373e-07
-8.26866e-07
6.79304e-07
3.04547e-06
-1.72644e-06
2.13954e-06
2.79686e-06
-2.61812e-06
2.28929e-06
-2.96133e-06
-3.28683e-06
8.54394e-07
-3.53714e-07
-8.57231e-07
6.7654e-07
3.04469e-06
-1.72564e-06
2.1403e-06
2.79637e-06
-2.61712e-06
2.2886e-06
-2.96035e-06
-3.53838e-07
6.74528e-07
8.5833e-07
2.14443e-06
-3.28767e-06
-1.72783e-06
-2.95926e-06
2.28772e-06
-2.61565e-06
2.79583e-06
-3.57445e-07
-8.24451e-07
6.78279e-07
3.04692e-06
-1.72881e-06
2.14499e-06
2.79768e-06
-2.61749e-06
-2.96106e-06
2.28925e-06
-3.28983e-06
8.50021e-07
-3.54589e-07
-8.52274e-07
6.78216e-07
3.04589e-06
-1.72899e-06
2.14565e-06
2.79701e-06
-2.61781e-06
2.28808e-06
-2.96137e-06
2.85562e-06
2.84821e-06
-4.4807e-08
3.29223e-06
-4.26699e-07
4.32676e-08
-3.10065e-06
-3.09498e-06
-3.60616e-07
6.71283e-07
8.34227e-07
2.14156e-06
-3.28707e-06
-1.72347e-06
-2.95885e-06
2.29102e-06
-2.61564e-06
2.79889e-06
-3.553e-07
-8.26461e-07
6.78841e-07
3.04803e-06
-1.72958e-06
2.145e-06
2.79685e-06
-2.61698e-06
-2.96105e-06
2.28843e-06
-3.29106e-06
8.2463e-07
-3.52408e-07
-8.26887e-07
6.78016e-07
3.0467e-06
-1.72749e-06
2.14061e-06
2.79839e-06
-2.61866e-06
2.29046e-06
-2.9623e-06
4.01082e-08
-3.09643e-06
-3.10233e-06
-3.04357e-06
-3.04463e-06
2.84724e-06
2.85688e-06
-4.5246e-08
3.28825e-06
3.2901e-06
-4.31728e-07
4.60643e-08
-3.09398e-06
-3.09871e-06
6.81038e-07
8.50639e-07
2.14335e-06
-3.28929e-06
-1.72949e-06
-2.9616e-06
2.28619e-06
2.79436e-06
-2.61825e-06
3.04395e-06
-3.48929e-07
6.77368e-07
8.52974e-07
2.13942e-06
-3.28769e-06
-1.72683e-06
-2.96224e-06
2.28837e-06
2.7956e-06
-2.619e-06
8.55366e-07
-3.55148e-07
-8.53726e-07
6.81181e-07
3.04325e-06
-1.72813e-06
2.14352e-06
2.79464e-06
-2.61782e-06
2.28608e-06
-2.96096e-06
-3.28675e-06
8.57808e-07
-3.54327e-07
-8.56137e-07
6.78767e-07
3.043e-06
-1.72519e-06
2.13967e-06
2.79568e-06
-2.61876e-06
2.28798e-06
-2.96173e-06
2.85614e-06
2.85041e-06
-4.62277e-08
3.29303e-06
-4.32661e-07
4.71832e-08
-3.10074e-06
-3.09357e-06
6.79779e-07
8.24242e-07
2.13927e-06
-3.29001e-06
-1.72707e-06
-2.96147e-06
2.28951e-06
2.7971e-06
-2.61822e-06
3.04425e-06
-3.52268e-07
6.78463e-07
8.52264e-07
2.14034e-06
-3.28725e-06
-1.72598e-06
-2.96141e-06
2.28826e-06
2.79621e-06
-2.61846e-06
8.29834e-07
-3.47691e-07
-8.27075e-07
6.79429e-07
3.04411e-06
-1.72776e-06
2.13732e-06
2.79487e-06
-2.61885e-06
2.2881e-06
-2.96218e-06
-3.28833e-06
8.55633e-07
-3.45501e-07
-8.52563e-07
6.88983e-07
3.03962e-06
-1.72745e-06
2.13645e-06
2.79236e-06
-2.62059e-06
2.28463e-06
-2.96325e-06
-3.52291e-07
6.81372e-07
8.47778e-07
2.14537e-06
-3.29052e-06
-1.72946e-06
-2.96259e-06
2.28752e-06
-2.61931e-06
2.79656e-06
-3.49533e-07
-8.25318e-07
6.78951e-07
3.04603e-06
-1.73099e-06
2.14294e-06
2.79526e-06
-2.61834e-06
-2.9621e-06
2.28794e-06
-3.2914e-06
8.54246e-07
-3.4578e-07
-8.49674e-07
6.89862e-07
3.04121e-06
-1.73125e-06
2.14116e-06
2.79239e-06
-2.62065e-06
2.28372e-06
-2.96382e-06
2.85705e-06
2.85104e-06
-4.28051e-08
3.29362e-06
-4.31817e-07
4.63807e-08
-3.10134e-06
-3.09516e-06
-3.49011e-07
6.80804e-07
8.22579e-07
2.14024e-06
-3.29189e-06
-1.72828e-06
-2.96356e-06
2.28991e-06
-2.62019e-06
2.79759e-06
-3.44287e-07
-8.23459e-07
6.88033e-07
3.04333e-06
-1.73162e-06
2.14063e-06
2.79224e-06
-2.62021e-06
-2.96349e-06
2.28457e-06
-3.2919e-06
8.30035e-07
-3.43831e-07
-8.25374e-07
6.86432e-07
3.0423e-06
-1.72907e-06
2.13644e-06
2.79349e-06
-2.62097e-06
2.28624e-06
-2.96379e-06
4.46261e-08
-3.09618e-06
-3.10245e-06
-3.04294e-06
-3.04388e-06
2.84616e-06
2.85571e-06
-4.67825e-08
3.28749e-06
3.28814e-06
-4.32525e-07
4.69876e-08
-3.09213e-06
-3.09797e-06
6.81728e-07
8.56981e-07
2.14318e-06
-3.28831e-06
-1.72864e-06
-2.96149e-06
2.28582e-06
2.79401e-06
-2.61852e-06
3.04204e-06
-3.52799e-07
6.79877e-07
8.60231e-07
2.13889e-06
-3.28679e-06
-1.72574e-06
-2.96191e-06
2.28777e-06
2.7953e-06
-2.61906e-06
8.63632e-07
-3.52604e-07
-8.64409e-07
6.80028e-07
3.04325e-06
-1.72801e-06
2.14246e-06
2.79356e-06
-2.61661e-06
2.28554e-06
-2.95936e-06
-3.28518e-06
8.67298e-07
-3.54455e-07
-8.66819e-07
6.80019e-07
3.04135e-06
-1.72449e-06
2.13785e-06
2.79444e-06
-2.61731e-06
2.28711e-06
-2.9598e-06
2.85383e-06
2.84828e-06
-4.77791e-08
3.29104e-06
-4.3605e-07
4.93297e-08
-3.09823e-06
-3.09127e-06
6.79705e-07
8.31739e-07
2.13753e-06
-3.2899e-06
-1.72778e-06
-2.96198e-06
2.28794e-06
2.7945e-06
-2.61884e-06
3.03885e-06
-3.45032e-07
6.88516e-07
8.60553e-07
2.13551e-06
-3.28792e-06
-1.72755e-06
-2.96277e-06
2.28409e-06
2.79154e-06
-2.62015e-06
8.38534e-07
-3.52668e-07
-8.39244e-07
6.78639e-07
3.04477e-06
-1.72571e-06
2.138e-06
2.79472e-06
-2.61703e-06
2.28776e-06
-2.95964e-06
-3.2842e-06
8.68953e-07
-3.5354e-07
-8.69311e-07
6.78738e-07
3.04142e-06
-1.72396e-06
2.13718e-06
2.79319e-06
-2.61596e-06
2.28607e-06
-2.9586e-06
-3.46173e-07
6.88647e-07
8.58008e-07
2.14066e-06
-3.29019e-06
-1.73026e-06
-2.963e-06
2.28371e-06
-2.62005e-06
2.79202e-06
-3.50722e-07
-8.36103e-07
6.8083e-07
3.04512e-06
-1.72962e-06
2.14178e-06
2.79356e-06
-2.61725e-06
-2.96029e-06
2.28644e-06
-3.28699e-06
8.66706e-07
-3.509e-07
-8.64729e-07
6.8145e-07
3.04154e-06
-1.72794e-06
2.14068e-06
2.79185e-06
-2.61666e-06
2.28445e-06
-2.95946e-06
2.85192e-06
2.84578e-06
-4.82388e-08
3.28914e-06
-4.34446e-07
4.8361e-08
-3.09649e-06
-3.09077e-06
-3.45361e-07
6.85425e-07
8.33992e-07
2.13641e-06
-3.29048e-06
-1.72792e-06
-2.9629e-06
2.2861e-06
-2.62036e-06
2.793e-06
-3.55809e-07
-8.40306e-07
6.79326e-07
3.0454e-06
-1.72744e-06
2.14225e-06
2.79315e-06
-2.61541e-06
-2.95836e-06
2.28581e-06
-3.28694e-06
8.42651e-07
-3.55391e-07
-8.41217e-07
6.80363e-07
3.04291e-06
-1.7244e-06
2.13702e-06
2.79381e-06
-2.61677e-06
2.28695e-06
-2.95899e-06
4.7485e-08
-3.09049e-06
-3.09749e-06
-3.04256e-06
-3.04402e-06
2.84608e-06
2.85497e-06
-4.69855e-08
3.28777e-06
3.2885e-06
-4.31449e-07
4.61499e-08
-3.09253e-06
-3.09844e-06
6.81191e-07
8.63515e-07
2.14218e-06
-3.28762e-06
-1.72827e-06
-2.95997e-06
2.28523e-06
2.79338e-06
-2.61725e-06
3.04171e-06
-3.53715e-07
6.78046e-07
8.66987e-07
2.13819e-06
-3.28512e-06
-1.72451e-06
-2.95968e-06
2.28765e-06
2.7948e-06
-2.61706e-06
8.62969e-07
-3.5178e-07
-8.62655e-07
6.81019e-07
3.04307e-06
-1.72821e-06
2.14249e-06
2.79392e-06
-2.61787e-06
2.28563e-06
-2.96079e-06
-3.28625e-06
8.65709e-07
-3.51806e-07
-8.6568e-07
6.77806e-07
3.04208e-06
-1.72589e-06
2.13794e-06
2.79572e-06
-2.61741e-06
2.28805e-06
-2.96027e-06
2.85379e-06
2.84681e-06
-4.92677e-08
3.2901e-06
-4.33392e-07
4.77027e-08
-3.09765e-06
-3.09301e-06
6.79789e-07
8.38196e-07
2.13805e-06
-3.2883e-06
-1.72594e-06
-2.96012e-06
2.28768e-06
2.79492e-06
-2.61745e-06
3.04184e-06
-3.51649e-07
6.77938e-07
8.67346e-07
2.13769e-06
-3.28458e-06
-1.7244e-06
-2.95903e-06
2.28659e-06
2.79351e-06
-2.6163e-06
8.37298e-07
-3.52342e-07
-8.37106e-07
6.80058e-07
3.0445e-06
-1.726e-06
2.13818e-06
2.79525e-06
-2.61822e-06
2.28787e-06
-2.96099e-06
-3.28566e-06
8.66215e-07
-3.50801e-07
-8.6535e-07
6.79025e-07
3.04096e-06
-1.72567e-06
2.13695e-06
2.79413e-06
-2.61696e-06
2.28677e-06
-2.95962e-06
-3.51988e-07
6.79529e-07
8.6536e-07
2.14168e-06
-3.28654e-06
-1.72747e-06
-2.95876e-06
2.28532e-06
-2.61603e-06
2.79292e-06
-3.5718e-07
-8.37008e-07
6.79165e-07
3.04576e-06
-1.72831e-06
2.14359e-06
2.79545e-06
-2.61635e-06
-2.95933e-06
2.28762e-06
-3.28759e-06
8.63767e-07
-3.54617e-07
-8.64499e-07
6.77393e-07
3.04364e-06
-1.72787e-06
2.14279e-06
2.79442e-06
-2.61547e-06
2.28665e-06
-2.95861e-06
2.85402e-06
2.84699e-06
-4.77202e-08
3.28921e-06
-4.32152e-07
4.6869e-08
-3.09699e-06
-3.0926e-06
-3.56075e-07
6.78445e-07
8.40531e-07
2.13799e-06
-3.28668e-06
-1.72425e-06
-2.95836e-06
2.28808e-06
-2.61604e-06
2.79499e-06
-3.58396e-07
-8.36722e-07
6.79616e-07
3.04505e-06
-1.72725e-06
2.143e-06
2.79447e-06
-2.61587e-06
-2.95873e-06
2.2865e-06
-3.28739e-06
8.38988e-07
-3.58007e-07
-8.39626e-07
6.75695e-07
3.04524e-06
-1.72446e-06
2.13928e-06
2.79622e-06
-2.61609e-06
2.2891e-06
-2.95896e-06
4.53616e-08
-3.09157e-06
-3.09875e-06
-3.04388e-06
-3.04538e-06
2.84767e-06
2.85632e-06
-4.6173e-08
3.29306e-06
3.29305e-06
-4.27302e-07
4.4919e-08
-3.09849e-06
-3.10523e-06
6.79571e-07
8.60755e-07
2.14358e-06
-3.2878e-06
-1.72845e-06
-2.96017e-06
2.28688e-06
2.7953e-06
-2.61714e-06
3.04328e-06
-3.52677e-07
6.77305e-07
8.64075e-07
2.13877e-06
-3.28643e-06
-1.72603e-06
-2.9605e-06
2.28892e-06
2.79653e-06
-2.61753e-06
8.7295e-07
-3.77707e-07
-8.61914e-07
6.72314e-07
3.05373e-06
-1.73387e-06
2.15381e-06
2.80684e-06
-2.62422e-06
2.29825e-06
-2.96713e-06
-3.28997e-06
8.74729e-07
-3.79298e-07
-8.63607e-07
6.65921e-07
3.05279e-06
-1.73033e-06
2.14956e-06
2.80837e-06
-2.62298e-06
2.30096e-06
-2.96614e-06
2.85543e-06
2.84866e-06
-4.7321e-08
3.29397e-06
-4.30174e-07
4.64854e-08
-3.10222e-06
-3.09803e-06
6.7854e-07
8.35479e-07
2.13945e-06
-3.28816e-06
-1.7257e-06
-2.96073e-06
2.28902e-06
2.79659e-06
-2.61787e-06
3.0429e-06
-3.53627e-07
6.76354e-07
8.65158e-07
2.13847e-06
-3.28567e-06
-1.7254e-06
-2.95939e-06
2.28819e-06
2.79572e-06
-2.61649e-06
8.44721e-07
-3.81599e-07
-8.35381e-07
6.70204e-07
3.05546e-06
-1.7304e-06
2.15028e-06
2.80961e-06
-2.6242e-06
2.30136e-06
-2.967e-06
-3.29056e-06
8.73469e-07
-3.78558e-07
-8.63572e-07
6.67072e-07
3.05337e-06
-1.73039e-06
2.14981e-06
2.80846e-06
-2.62327e-06
2.3006e-06
-2.96641e-06
-3.55765e-07
6.75843e-07
8.63259e-07
2.14371e-06
-3.2881e-06
-1.72855e-06
-2.95882e-06
2.28769e-06
-2.61561e-06
2.79551e-06
-3.85347e-07
-8.34403e-07
6.68918e-07
3.0569e-06
-1.7326e-06
2.15503e-06
2.80845e-06
-2.62322e-06
-2.96637e-06
2.30013e-06
-3.29262e-06
8.74224e-07
-3.82294e-07
-8.62987e-07
6.66205e-07
3.0555e-06
-1.7329e-06
2.15522e-06
2.80797e-06
-2.62239e-06
2.29966e-06
-2.96558e-06
2.85544e-06
2.84831e-06
-4.6085e-08
3.29479e-06
-4.23815e-07
4.2463e-08
-3.10424e-06
-3.09975e-06
-3.60195e-07
6.74205e-07
8.38292e-07
2.14052e-06
-3.28757e-06
-1.72463e-06
-2.9593e-06
2.29033e-06
-2.61645e-06
2.79753e-06
-3.8405e-07
-8.34766e-07
6.70219e-07
3.05725e-06
-1.73286e-06
2.15545e-06
2.80867e-06
-2.62345e-06
-2.96672e-06
2.30014e-06
-3.29257e-06
8.43943e-07
-3.85101e-07
-8.35426e-07
6.64314e-07
3.05701e-06
-1.72974e-06
2.1516e-06
2.81073e-06
-2.62236e-06
2.30312e-06
-2.96551e-06
4.1701e-08
-3.09806e-06
-3.10497e-06
-3.05625e-06
-3.05768e-06
2.86558e-06
2.87499e-06
-5.39419e-08
3.21589e-06
3.21459e-06
-2.64456e-08
-8.30584e-08
-3.1573e-06
-3.16368e-06
7.04644e-07
8.68496e-07
2.15674e-06
-3.31041e-06
-1.75136e-06
-2.98695e-06
2.30242e-06
2.81132e-06
-2.64371e-06
3.0562e-06
-3.34373e-07
6.96926e-07
8.68697e-07
2.15322e-06
-3.30747e-06
-1.74795e-06
-2.9865e-06
2.30589e-06
2.81313e-06
-2.64304e-06
1.15439e-06
-2.02985e-06
-8.77429e-07
-2.11553e-07
3.53291e-06
-1.66734e-06
2.5883e-06
3.33685e-06
-2.53545e-06
2.7992e-06
-2.87413e-06
-3.21266e-06
1.15498e-06
-2.03531e-06
-8.79894e-07
-2.1987e-07
3.53511e-06
-1.66388e-06
2.58543e-06
3.33933e-06
-2.53361e-06
2.80306e-06
-2.87269e-06
2.87457e-06
2.86731e-06
-5.55859e-08
3.21688e-06
-2.45875e-08
-8.40988e-08
-3.16308e-06
-3.15777e-06
7.01965e-07
8.38781e-07
2.15301e-06
-3.31084e-06
-1.74865e-06
-2.98703e-06
2.30559e-06
2.81395e-06
-2.64357e-06
3.05573e-06
-3.31881e-07
7.00148e-07
8.66913e-07
2.15283e-06
-3.30828e-06
-1.74825e-06
-2.98712e-06
2.30453e-06
2.81243e-06
-2.64358e-06
1.11707e-06
-2.03204e-06
-8.4723e-07
-2.18909e-07
3.53779e-06
-1.66351e-06
2.5856e-06
3.34007e-06
-2.5342e-06
2.80345e-06
-2.8735e-06
-3.21271e-06
1.14767e-06
-2.0196e-06
-8.75513e-07
-2.2097e-07
3.53322e-06
-1.66404e-06
2.58357e-06
3.3366e-06
-2.53482e-06
2.80025e-06
-2.87366e-06
-3.37498e-07
6.9959e-07
8.67721e-07
2.15893e-06
-3.31018e-06
-1.7505e-06
-2.98632e-06
2.30432e-06
-2.64282e-06
2.81264e-06
-2.03983e-06
-8.49873e-07
-2.16328e-07
3.54011e-06
-1.6669e-06
2.59134e-06
3.34097e-06
-2.53277e-06
-2.87272e-06
2.80406e-06
-3.21612e-06
1.15806e-06
-2.02967e-06
-8.82304e-07
-2.16206e-07
3.53504e-06
-1.66753e-06
2.58959e-06
3.33773e-06
-2.53468e-06
2.80042e-06
-2.87435e-06
2.87502e-06
2.86794e-06
-5.14868e-08
3.21543e-06
-2.49956e-08
-8.40677e-08
-3.16211e-06
-3.15697e-06
-3.36895e-07
6.97252e-07
8.35392e-07
2.15463e-06
-3.3108e-06
-1.74827e-06
-2.98655e-06
2.30743e-06
-2.6429e-06
2.8149e-06
-2.03036e-06
-8.4469e-07
-2.21206e-07
3.54021e-06
-1.66519e-06
2.59136e-06
3.33996e-06
-2.53269e-06
-2.87226e-06
2.80231e-06
-3.21369e-06
1.10761e-06
-2.03322e-06
-8.45857e-07
-2.27214e-07
3.54129e-06
-1.66225e-06
2.58827e-06
3.34267e-06
-2.53205e-06
2.80601e-06
-2.87159e-06
-8.66063e-08
-3.15695e-06
-3.16362e-06
-2.99435e-06
-3.00367e-06
3.00472e-06
3.01246e-06
-4.55992e-08
5.88479e-06
5.8844e-06
4.0717e-06
-8.70816e-07
-7.4798e-06
-7.49027e-06