/*--------------------------------*- C++ -*----------------------------------*\
| =========                 |                                                 |
| \\      /  F ield         | OpenFOAM: The Open Source CFD Toolbox           |
|  \\    /   O peration     | Version:  2206                                  |
|   \\  /    A nd           | Website:  www.openfoam.com                      |
|    \\/     M anipulation  |                                                 |
\*---------------------------------------------------------------------------*/
FoamFile
{
    version     2.0;
    format      ascii;
    arch        "LSB;label=32;scalar=64";
    class       volScalarField;
    location    "29";
    object      k;
}
// * * * * * * * * * * * * * * * * * * * * * * * * * * * * * * * * * * * * * //

dimensions      [0 2 -2 0 0 0 0];

internalField   nonuniform List<scalar> 
28673
(
2.55517e-05
2.49456e-05
2.61184e-05
2.55519e-05
2.55516e-05
2.49486e-05
2.61184e-05
2.55519e-05
2.55516e-05
2.49487e-05
2.61184e-05
2.5552e-05
2.55517e-05
2.49489e-05
2.61184e-05
2.5552e-05
2.55518e-05
2.4949e-05
2.61182e-05
2.55518e-05
2.55517e-05
2.49492e-05
2.61175e-05
2.55497e-05
2.55509e-05
2.4947e-05
2.6112e-05
2.55439e-05
2.55447e-05
2.49408e-05
2.61107e-05
2.55435e-05
2.55433e-05
2.49398e-05
2.61108e-05
2.55435e-05
2.55434e-05
2.49398e-05
2.61108e-05
2.55436e-05
2.55435e-05
2.49398e-05
2.61109e-05
2.55438e-05
2.55436e-05
2.49401e-05
2.61311e-05
2.55874e-05
2.55873e-05
2.50268e-05
2.55513e-05
2.49527e-05
2.55518e-05
2.49526e-05
2.55514e-05
2.55513e-05
2.55514e-05
2.55513e-05
2.49489e-05
2.49527e-05
2.55517e-05
2.55509e-05
2.55514e-05
2.55519e-05
2.55513e-05
2.49523e-05
2.55517e-05
2.55516e-05
2.55516e-05
2.49526e-05
2.49489e-05
2.4953e-05
2.55516e-05
2.55515e-05
2.55515e-05
2.55515e-05
2.4949e-05
2.49529e-05
2.55519e-05
2.5551e-05
2.55518e-05
2.5551e-05
2.55514e-05
2.55519e-05
2.55514e-05
2.49486e-05
2.49524e-05
2.55517e-05
2.55516e-05
2.55517e-05
2.49527e-05
2.49492e-05
2.49532e-05
2.55516e-05
2.55516e-05
2.55516e-05
2.55516e-05
2.49491e-05
2.49531e-05
2.5552e-05
2.55512e-05
2.5552e-05
2.55512e-05
2.55515e-05
2.5552e-05
2.55514e-05
2.49487e-05
2.49526e-05
2.55518e-05
2.55517e-05
2.55517e-05
2.49529e-05
2.49495e-05
2.49535e-05
2.55518e-05
2.55518e-05
2.55518e-05
2.55518e-05
2.49494e-05
2.49534e-05
2.55521e-05
2.55513e-05
2.55521e-05
2.55513e-05
2.55515e-05
2.5552e-05
2.55515e-05
2.49489e-05
2.49529e-05
2.55518e-05
2.55518e-05
2.55518e-05
2.49531e-05
2.49497e-05
2.49537e-05
2.55519e-05
2.55519e-05
2.55519e-05
2.55517e-05
2.49496e-05
2.49535e-05
2.55523e-05
2.55515e-05
2.55523e-05
2.55515e-05
2.55516e-05
2.55519e-05
2.55516e-05
2.49491e-05
2.49531e-05
2.5552e-05
2.55517e-05
2.55519e-05
2.49533e-05
2.495e-05
2.49527e-05
2.55518e-05
2.55516e-05
2.55511e-05
2.55506e-05
2.49497e-05
2.49514e-05
2.55523e-05
2.55514e-05
2.55518e-05
2.55509e-05
2.55516e-05
2.5551e-05
2.55508e-05
2.49494e-05
2.49524e-05
2.55519e-05
2.55513e-05
2.55511e-05
2.49519e-05
2.49484e-05
2.49465e-05
2.55505e-05
2.55492e-05
2.55452e-05
2.55441e-05
2.49466e-05
2.49449e-05
2.55514e-05
2.55505e-05
2.55464e-05
2.55459e-05
2.555e-05
2.55447e-05
2.55447e-05
2.49483e-05
2.49469e-05
2.55503e-05
2.55461e-05
2.55451e-05
2.49457e-05
2.49417e-05
2.49438e-05
2.55441e-05
2.55435e-05
2.5543e-05
2.5543e-05
2.49406e-05
2.49438e-05
2.55449e-05
2.55444e-05
2.55434e-05
2.55427e-05
2.55438e-05
2.55435e-05
2.5543e-05
2.49419e-05
2.49434e-05
2.55441e-05
2.55433e-05
2.55433e-05
2.49439e-05
2.494e-05
2.49439e-05
2.55432e-05
2.55431e-05
2.55431e-05
2.55431e-05
2.49401e-05
2.49438e-05
2.55435e-05
2.55428e-05
2.55435e-05
2.55428e-05
2.55432e-05
2.55435e-05
2.55432e-05
2.49397e-05
2.49435e-05
2.55435e-05
2.55434e-05
2.55435e-05
2.49438e-05
2.49401e-05
2.49437e-05
2.55433e-05
2.55432e-05
2.55432e-05
2.55431e-05
2.494e-05
2.49438e-05
2.55437e-05
2.5543e-05
2.55435e-05
2.55428e-05
2.55433e-05
2.55436e-05
2.55432e-05
2.49397e-05
2.49434e-05
2.55436e-05
2.55435e-05
2.55435e-05
2.49438e-05
2.494e-05
2.4944e-05
2.55433e-05
2.55432e-05
2.55437e-05
2.55436e-05
2.494e-05
2.4944e-05
2.55437e-05
2.55429e-05
2.55441e-05
2.55433e-05
2.55433e-05
2.55441e-05
2.55437e-05
2.49396e-05
2.49437e-05
2.55436e-05
2.5544e-05
2.5544e-05
2.49441e-05
2.49403e-05
2.49797e-05
2.55434e-05
2.55433e-05
2.55769e-05
2.55768e-05
2.49403e-05
2.49796e-05
2.55438e-05
2.55431e-05
2.55771e-05
2.55766e-05
2.55434e-05
2.55771e-05
2.55769e-05
2.494e-05
2.49794e-05
2.55438e-05
2.5577e-05
2.55771e-05
2.49796e-05
2.5027e-05
2.55873e-05
2.55872e-05
2.50269e-05
2.55875e-05
2.55871e-05
2.61312e-05
2.61311e-05
2.61312e-05
2.55873e-05
2.50267e-05
2.55875e-05
2.83745e-05
6.99429e-05
2.83757e-05
6.99405e-05
7.89784e-05
7.89747e-05
2.8375e-05
6.99425e-05
2.61186e-05
2.61184e-05
2.61184e-05
2.61185e-05
2.61183e-05
2.61183e-05
2.40339e-05
2.79443e-05
2.58758e-05
2.55519e-05
2.40339e-05
2.79409e-05
2.58758e-05
7.89745e-05
2.40331e-05
2.58756e-05
2.55517e-05
2.40332e-05
2.58756e-05
2.79403e-05
3.4634e-05
3.4636e-05
2.49527e-05
3.46331e-05
3.4635e-05
2.83771e-05
6.99421e-05
2.83788e-05
6.99394e-05
7.89716e-05
7.89702e-05
2.83782e-05
6.99444e-05
2.83794e-05
6.99421e-05
2.61185e-05
2.61183e-05
2.61183e-05
2.61184e-05
2.61184e-05
2.61182e-05
2.61182e-05
2.40346e-05
2.79467e-05
2.58757e-05
2.5552e-05
2.40347e-05
2.79429e-05
2.58757e-05
7.89709e-05
7.8968e-05
2.40339e-05
2.58755e-05
2.79464e-05
2.55517e-05
2.40339e-05
2.58755e-05
2.7943e-05
3.46375e-05
3.46394e-05
2.49527e-05
3.46356e-05
3.46377e-05
2.83787e-05
6.99405e-05
2.83807e-05
6.99382e-05
7.89698e-05
7.89694e-05
2.83799e-05
6.99431e-05
2.83816e-05
6.99407e-05
2.61185e-05
2.61182e-05
2.61182e-05
2.61184e-05
2.61184e-05
2.61181e-05
2.61181e-05
2.40351e-05
2.79481e-05
2.58757e-05
2.5552e-05
2.40352e-05
2.7944e-05
2.58758e-05
7.89668e-05
7.89654e-05
2.40344e-05
2.58754e-05
2.79481e-05
2.55517e-05
2.40344e-05
2.58755e-05
2.79443e-05
3.46383e-05
3.46404e-05
2.49528e-05
3.46369e-05
3.4639e-05
2.83794e-05
6.99398e-05
2.83817e-05
6.99378e-05
7.89697e-05
7.89699e-05
2.83803e-05
6.99425e-05
2.83824e-05
6.99403e-05
2.61184e-05
2.61183e-05
2.61182e-05
2.61184e-05
2.61182e-05
2.61183e-05
2.61182e-05
2.40354e-05
2.7949e-05
2.58757e-05
2.55521e-05
2.40355e-05
2.79449e-05
2.58758e-05
7.89657e-05
7.89652e-05
2.40346e-05
2.58755e-05
2.79491e-05
2.55519e-05
2.40348e-05
2.58756e-05
2.79452e-05
3.46409e-05
3.4643e-05
2.4953e-05
3.46399e-05
3.4642e-05
2.83801e-05
6.99398e-05
2.83823e-05
6.9938e-05
7.8971e-05
7.89715e-05
2.83812e-05
6.99425e-05
2.8383e-05
6.99407e-05
2.61182e-05
2.61183e-05
2.61183e-05
2.61182e-05
2.61181e-05
2.6118e-05
2.61181e-05
2.40359e-05
2.79496e-05
2.58757e-05
2.5552e-05
2.40359e-05
2.79453e-05
2.58757e-05
7.89664e-05
7.89665e-05
2.40351e-05
2.58756e-05
2.79498e-05
2.55518e-05
2.40351e-05
2.58756e-05
2.79457e-05
3.46435e-05
3.46456e-05
2.49532e-05
3.46418e-05
3.4644e-05
2.83795e-05
6.99406e-05
2.83825e-05
6.99404e-05
7.89732e-05
7.89732e-05
2.83813e-05
6.99433e-05
2.83838e-05
6.99426e-05
2.61181e-05
2.6118e-05
2.61181e-05
2.61179e-05
2.61176e-05
2.61177e-05
2.61176e-05
2.40353e-05
2.79497e-05
2.58756e-05
2.55517e-05
2.40361e-05
2.7945e-05
2.58755e-05
7.89683e-05
7.89691e-05
2.40346e-05
2.58754e-05
2.79498e-05
2.55516e-05
2.40353e-05
2.58753e-05
2.79453e-05
3.46438e-05
3.4646e-05
2.49531e-05
3.46413e-05
3.46435e-05
2.83764e-05
6.9944e-05
2.8381e-05
6.99468e-05
7.89719e-05
7.89759e-05
2.83791e-05
6.99463e-05
2.83827e-05
6.99492e-05
2.61168e-05
2.61174e-05
2.6117e-05
2.61132e-05
2.61122e-05
2.61133e-05
2.61124e-05
2.40302e-05
2.7947e-05
2.58741e-05
2.55479e-05
2.40335e-05
2.7939e-05
2.58725e-05
7.89695e-05
7.89734e-05
2.40299e-05
2.58744e-05
2.79479e-05
2.55499e-05
2.40329e-05
2.58732e-05
2.79409e-05
3.4643e-05
3.46451e-05
2.49492e-05
3.46392e-05
3.46413e-05
2.83708e-05
6.99469e-05
2.83753e-05
6.99502e-05
7.89684e-05
7.89792e-05
2.83729e-05
6.99502e-05
2.83777e-05
6.99535e-05
2.61114e-05
2.61121e-05
2.61115e-05
2.61107e-05
2.61108e-05
2.61107e-05
2.61108e-05
2.4025e-05
2.79406e-05
2.58683e-05
2.55436e-05
2.40254e-05
2.79318e-05
2.5868e-05
7.89669e-05
7.89771e-05
2.40241e-05
2.58686e-05
2.79423e-05
2.55439e-05
2.40246e-05
2.5868e-05
2.79332e-05
3.46404e-05
3.46424e-05
2.49441e-05
3.4634e-05
3.4636e-05
2.83721e-05
6.9943e-05
2.83764e-05
6.99548e-05
7.89653e-05
7.89804e-05
2.83735e-05
6.99463e-05
2.83777e-05
6.9958e-05
2.61109e-05
2.61108e-05
2.61109e-05
2.61108e-05
2.61108e-05
2.61107e-05
2.61108e-05
2.40252e-05
2.79399e-05
2.58678e-05
2.55436e-05
2.40256e-05
2.79279e-05
2.58679e-05
7.89643e-05
7.898e-05
2.40243e-05
2.58676e-05
2.79405e-05
2.55435e-05
2.40247e-05
2.58678e-05
2.79285e-05
3.46388e-05
3.46407e-05
2.49439e-05
3.46343e-05
3.46363e-05
2.83727e-05
6.99443e-05
2.83756e-05
6.99661e-05
7.89485e-05
7.89685e-05
2.8374e-05
6.99477e-05
2.83766e-05
6.99699e-05
2.61109e-05
2.61108e-05
2.61109e-05
2.61108e-05
2.61108e-05
2.61107e-05
2.61108e-05
2.40249e-05
2.79378e-05
2.58678e-05
2.55437e-05
2.4026e-05
2.79212e-05
2.5868e-05
7.89492e-05
7.89693e-05
2.40241e-05
2.58677e-05
2.79384e-05
2.55435e-05
2.40252e-05
2.58678e-05
2.79226e-05
3.46407e-05
3.46425e-05
2.49438e-05
3.46396e-05
3.46412e-05
2.83765e-05
6.99311e-05
2.83772e-05
6.99665e-05
7.89077e-05
7.89332e-05
2.83777e-05
6.99348e-05
2.83781e-05
6.99703e-05
2.61109e-05
2.61108e-05
2.61109e-05
2.6111e-05
2.61111e-05
2.6111e-05
2.6111e-05
2.40244e-05
2.79477e-05
2.58679e-05
2.55437e-05
2.40269e-05
2.79248e-05
2.58679e-05
7.89094e-05
7.89341e-05
2.40238e-05
2.58678e-05
2.79492e-05
2.55436e-05
2.40262e-05
2.58678e-05
2.79263e-05
3.46391e-05
3.46404e-05
2.49437e-05
3.46412e-05
3.46425e-05
2.83832e-05
6.98897e-05
2.83763e-05
6.99478e-05
7.88163e-05
7.88401e-05
2.83849e-05
6.98935e-05
2.83775e-05
6.99513e-05
2.61111e-05
2.6111e-05
2.6111e-05
2.61169e-05
2.61169e-05
2.61169e-05
2.61169e-05
2.40227e-05
2.79749e-05
2.58688e-05
2.55475e-05
2.40279e-05
2.79097e-05
2.58679e-05
7.88167e-05
7.88401e-05
2.40222e-05
2.58687e-05
2.79761e-05
2.55474e-05
2.40274e-05
2.58678e-05
2.79102e-05
3.46242e-05
3.46255e-05
2.4949e-05
3.46242e-05
3.46256e-05
2.5913e-05
6.79577e-05
2.82854e-05
5.82768e-05
7.44167e-05
4.81451e-05
2.5914e-05
6.79655e-05
2.82873e-05
5.82838e-05
2.63377e-05
2.62645e-05
2.62645e-05
2.60674e-05
2.63343e-05
2.62458e-05
2.62459e-05
2.40567e-05
2.76958e-05
2.59042e-05
2.56281e-05
2.40475e-05
3.03491e-05
2.59668e-05
7.4416e-05
4.81437e-05
2.40563e-05
2.59042e-05
2.76956e-05
2.56281e-05
2.40471e-05
2.59668e-05
3.03481e-05
3.48428e-05
3.4844e-05
2.51334e-05
3.3428e-05
3.34258e-05
6.99439e-05
2.79414e-05
7.89791e-05
3.46334e-05
3.46261e-05
7.89751e-05
2.79395e-05
6.99409e-05
7.89807e-05
7.89768e-05
7.89783e-05
3.4634e-05
2.49524e-05
3.46329e-05
3.46328e-05
7.89733e-05
7.89764e-05
7.8974e-05
7.89777e-05
2.49486e-05
3.46349e-05
3.46355e-05
3.46354e-05
3.46355e-05
2.83749e-05
6.99457e-05
2.83761e-05
6.99436e-05
2.40339e-05
2.7944e-05
2.58757e-05
2.55514e-05
2.40339e-05
2.79408e-05
2.58757e-05
2.4034e-05
2.79461e-05
2.58758e-05
2.55513e-05
2.40341e-05
2.79429e-05
2.58758e-05
2.83775e-05
6.99403e-05
6.99424e-05
2.8376e-05
2.83779e-05
6.99429e-05
6.99455e-05
2.83764e-05
2.40344e-05
2.55514e-05
2.79421e-05
2.58756e-05
2.79455e-05
2.58756e-05
2.40343e-05
2.40346e-05
2.55513e-05
2.7944e-05
2.58757e-05
2.79476e-05
2.58757e-05
2.40345e-05
3.46363e-05
3.46292e-05
2.49527e-05
3.46361e-05
3.46285e-05
7.89752e-05
7.89712e-05
7.89717e-05
7.89744e-05
2.49489e-05
3.46374e-05
3.46298e-05
3.46386e-05
3.46311e-05
7.89685e-05
7.89715e-05
2.40343e-05
2.55517e-05
2.79414e-05
2.58757e-05
2.83746e-05
6.99397e-05
2.4034e-05
2.5551e-05
2.58755e-05
2.794e-05
2.83779e-05
6.99424e-05
6.99444e-05
2.83768e-05
2.40348e-05
2.55517e-05
2.79427e-05
2.58756e-05
2.7946e-05
2.58756e-05
2.40347e-05
2.83774e-05
6.9939e-05
6.99415e-05
2.83764e-05
2.40346e-05
2.55509e-05
2.58755e-05
2.79415e-05
2.58755e-05
2.7945e-05
2.40343e-05
2.83748e-05
6.99428e-05
2.8376e-05
6.99405e-05
2.40339e-05
2.58757e-05
2.79438e-05
2.55514e-05
2.40339e-05
2.58757e-05
2.79406e-05
2.83746e-05
6.99445e-05
2.83758e-05
6.99421e-05
2.40346e-05
2.55519e-05
2.7942e-05
2.58757e-05
2.79458e-05
2.58758e-05
2.40345e-05
2.83778e-05
6.99398e-05
6.99425e-05
2.83763e-05
2.40345e-05
2.55514e-05
2.58756e-05
2.79419e-05
2.58756e-05
2.79453e-05
2.40344e-05
2.83776e-05
6.99418e-05
6.9944e-05
2.83761e-05
2.49524e-05
3.46281e-05
3.46313e-05
7.89792e-05
7.89707e-05
7.89747e-05
2.49485e-05
3.46307e-05
3.4634e-05
3.46312e-05
3.46341e-05
7.89748e-05
7.89786e-05
2.4033e-05
2.58756e-05
2.79445e-05
2.55517e-05
2.40331e-05
2.58756e-05
2.79413e-05
2.83736e-05
2.83751e-05
6.99422e-05
2.83735e-05
6.99469e-05
2.8375e-05
6.99445e-05
2.40338e-05
2.55517e-05
2.58755e-05
2.79419e-05
2.58755e-05
2.79451e-05
2.40337e-05
2.40336e-05
2.55516e-05
2.58755e-05
2.79426e-05
2.58755e-05
2.7946e-05
2.40335e-05
2.83769e-05
6.9942e-05
6.9944e-05
2.83751e-05
2.83767e-05
6.99442e-05
6.99463e-05
2.83749e-05
7.89803e-05
7.89765e-05
7.89797e-05
7.89759e-05
2.49489e-05
3.4635e-05
3.4637e-05
3.46356e-05
3.46375e-05
7.8973e-05
7.89761e-05
7.89724e-05
7.89755e-05
7.89733e-05
7.89713e-05
7.89737e-05
7.8971e-05
3.4637e-05
3.46378e-05
2.49529e-05
3.46355e-05
3.46367e-05
7.89703e-05
7.89715e-05
7.89696e-05
7.89712e-05
2.49491e-05
3.46359e-05
3.4637e-05
3.46375e-05
3.46387e-05
2.83776e-05
6.99446e-05
2.83793e-05
6.99418e-05
2.40345e-05
2.79467e-05
2.58757e-05
2.55516e-05
2.40348e-05
2.7943e-05
2.58757e-05
2.40346e-05
2.79485e-05
2.58757e-05
2.55515e-05
2.40349e-05
2.79447e-05
2.58757e-05
2.838e-05
6.99386e-05
6.99411e-05
2.83781e-05
2.83804e-05
6.99411e-05
6.99436e-05
2.83785e-05
2.4035e-05
2.55515e-05
2.79437e-05
2.58757e-05
2.79475e-05
2.58757e-05
2.4035e-05
2.40352e-05
2.55515e-05
2.79453e-05
2.58756e-05
2.79493e-05
2.58756e-05
2.40351e-05
3.46396e-05
3.46323e-05
2.49528e-05
3.46382e-05
3.46311e-05
7.89689e-05
7.89667e-05
7.89697e-05
7.89706e-05
2.4949e-05
3.46392e-05
3.46323e-05
3.46405e-05
3.46337e-05
7.89657e-05
7.89673e-05
2.40349e-05
2.79473e-05
2.58757e-05
2.55519e-05
2.40352e-05
2.79437e-05
2.58757e-05
2.83777e-05
6.9941e-05
2.83791e-05
6.99385e-05
2.40346e-05
2.58756e-05
2.79464e-05
2.5551e-05
2.40348e-05
2.58755e-05
2.79426e-05
2.83808e-05
6.99412e-05
6.99439e-05
2.83792e-05
2.40355e-05
2.55519e-05
2.79444e-05
2.58756e-05
2.79482e-05
2.58757e-05
2.40354e-05
2.83803e-05
6.99376e-05
6.99404e-05
2.83788e-05
2.40352e-05
2.5551e-05
2.58755e-05
2.79435e-05
2.58755e-05
2.79475e-05
2.40351e-05
2.83775e-05
6.99416e-05
2.83792e-05
6.99388e-05
2.40345e-05
2.58757e-05
2.79465e-05
2.55514e-05
2.40349e-05
2.58757e-05
2.79428e-05
2.83773e-05
6.99435e-05
2.8379e-05
6.99408e-05
2.40352e-05
2.5552e-05
2.79435e-05
2.58757e-05
2.79476e-05
2.58757e-05
2.4035e-05
2.83803e-05
6.9938e-05
6.99406e-05
2.83784e-05
2.40351e-05
2.55514e-05
2.58756e-05
2.79434e-05
2.58756e-05
2.79473e-05
2.40349e-05
2.83801e-05
6.99399e-05
6.99425e-05
2.83782e-05
3.46333e-05
3.46364e-05
2.49524e-05
3.46319e-05
3.46353e-05
7.89745e-05
7.89718e-05
7.89663e-05
7.89685e-05
2.49486e-05
3.46331e-05
3.46357e-05
3.46343e-05
3.46374e-05
7.89704e-05
7.8972e-05
2.40338e-05
2.58755e-05
2.79472e-05
2.55517e-05
2.40341e-05
2.58755e-05
2.79435e-05
2.83763e-05
6.99439e-05
2.83783e-05
6.99416e-05
2.83761e-05
6.9946e-05
2.83781e-05
6.99433e-05
2.40344e-05
2.55517e-05
2.58755e-05
2.79438e-05
2.58755e-05
2.79476e-05
2.40343e-05
2.40343e-05
2.55517e-05
2.58754e-05
2.79441e-05
2.58754e-05
2.79481e-05
2.40341e-05
2.83793e-05
6.99407e-05
6.99433e-05
2.83772e-05
2.83791e-05
6.99425e-05
6.9945e-05
2.83769e-05
7.8973e-05
7.8971e-05
7.89724e-05
7.89704e-05
2.49489e-05
3.4636e-05
3.4638e-05
3.46376e-05
3.46396e-05
7.897e-05
7.89712e-05
7.89694e-05
7.89706e-05
7.89707e-05
7.89698e-05
7.897e-05
7.89688e-05
3.46379e-05
3.4639e-05
2.49531e-05
3.46369e-05
3.46376e-05
7.89696e-05
7.89703e-05
7.89685e-05
7.89693e-05
2.49493e-05
3.46385e-05
3.46388e-05
3.46391e-05
3.46397e-05
2.83791e-05
6.99429e-05
2.83812e-05
6.99408e-05
2.40354e-05
2.79482e-05
2.58758e-05
2.55516e-05
2.40355e-05
2.79442e-05
2.58758e-05
2.40355e-05
2.79498e-05
2.58757e-05
2.55516e-05
2.40357e-05
2.79458e-05
2.58757e-05
2.83814e-05
6.99379e-05
6.99401e-05
2.83791e-05
2.83817e-05
6.99406e-05
6.99426e-05
2.83794e-05
2.4036e-05
2.55516e-05
2.79447e-05
2.58758e-05
2.79487e-05
2.58758e-05
2.40358e-05
2.4036e-05
2.55516e-05
2.79463e-05
2.58757e-05
2.79503e-05
2.58757e-05
2.40358e-05
3.46415e-05
3.46348e-05
2.4953e-05
3.46405e-05
3.46336e-05
7.89664e-05
7.89655e-05
7.89695e-05
7.89699e-05
2.49492e-05
3.46419e-05
3.46353e-05
3.46428e-05
3.46362e-05
7.89657e-05
7.89662e-05
2.40358e-05
2.79489e-05
2.58757e-05
2.5552e-05
2.40359e-05
2.7945e-05
2.58757e-05
2.83794e-05
6.99395e-05
2.83813e-05
6.9937e-05
2.40353e-05
2.58756e-05
2.79483e-05
2.55512e-05
2.40355e-05
2.58756e-05
2.79442e-05
2.83823e-05
6.99404e-05
6.99426e-05
2.83802e-05
2.40364e-05
2.5552e-05
2.79455e-05
2.58757e-05
2.79494e-05
2.58757e-05
2.40361e-05
2.83819e-05
6.99366e-05
6.99389e-05
2.83798e-05
2.40359e-05
2.55512e-05
2.58755e-05
2.79447e-05
2.58755e-05
2.79489e-05
2.40358e-05
2.83789e-05
6.994e-05
2.83811e-05
6.99377e-05
2.40354e-05
2.58756e-05
2.79479e-05
2.55515e-05
2.40355e-05
2.58756e-05
2.7944e-05
2.83788e-05
6.99417e-05
2.83809e-05
6.99394e-05
2.40356e-05
2.5552e-05
2.79445e-05
2.58757e-05
2.79487e-05
2.58757e-05
2.40354e-05
2.83816e-05
6.99375e-05
6.99397e-05
2.83793e-05
2.40359e-05
2.55514e-05
2.58755e-05
2.79444e-05
2.58756e-05
2.79484e-05
2.40355e-05
2.83815e-05
6.99392e-05
6.99413e-05
2.83791e-05
3.46357e-05
3.46377e-05
2.49525e-05
3.46347e-05
3.46365e-05
7.89708e-05
7.89696e-05
7.89651e-05
7.89661e-05
2.49488e-05
3.46361e-05
3.46378e-05
3.46372e-05
3.46386e-05
7.89693e-05
7.89701e-05
2.40345e-05
2.58755e-05
2.79486e-05
2.55518e-05
2.40347e-05
2.58755e-05
2.79447e-05
2.83778e-05
6.99424e-05
2.83802e-05
6.994e-05
2.83776e-05
6.99442e-05
2.838e-05
6.99419e-05
2.40349e-05
2.55517e-05
2.58755e-05
2.79448e-05
2.58755e-05
2.79488e-05
2.40347e-05
2.40351e-05
2.55517e-05
2.58754e-05
2.79451e-05
2.58754e-05
2.79492e-05
2.40347e-05
2.83807e-05
6.99397e-05
6.99418e-05
2.8378e-05
2.83805e-05
6.99416e-05
6.99438e-05
2.83779e-05
7.89704e-05
7.89694e-05
7.89698e-05
7.89688e-05
2.49491e-05
3.46384e-05
3.46405e-05
3.46392e-05
3.46412e-05
7.89693e-05
7.897e-05
7.89687e-05
7.89694e-05
7.89703e-05
7.89699e-05
7.89691e-05
7.89686e-05
3.46408e-05
3.46411e-05
2.49533e-05
3.46401e-05
3.46404e-05
7.89706e-05
7.89707e-05
7.8969e-05
7.89693e-05
2.49496e-05
3.46414e-05
3.46419e-05
3.46423e-05
3.46427e-05
2.83796e-05
6.99425e-05
2.8382e-05
6.99406e-05
2.4036e-05
2.79492e-05
2.58759e-05
2.55518e-05
2.40363e-05
2.79452e-05
2.58759e-05
2.4036e-05
2.79507e-05
2.58759e-05
2.55518e-05
2.40363e-05
2.79466e-05
2.58759e-05
2.83821e-05
6.99378e-05
6.99397e-05
2.83798e-05
2.83823e-05
6.99408e-05
6.99425e-05
2.83801e-05
2.40365e-05
2.55518e-05
2.79455e-05
2.58759e-05
2.79496e-05
2.58759e-05
2.40363e-05
2.40365e-05
2.55518e-05
2.79469e-05
2.58758e-05
2.7951e-05
2.58758e-05
2.40363e-05
3.46442e-05
3.46379e-05
2.49532e-05
3.46433e-05
3.46368e-05
7.89666e-05
7.89661e-05
7.89706e-05
7.89706e-05
2.49495e-05
3.46442e-05
3.46376e-05
3.46455e-05
3.46392e-05
7.89669e-05
7.89671e-05
2.40361e-05
2.79499e-05
2.58758e-05
2.55521e-05
2.40365e-05
2.7946e-05
2.58758e-05
2.83799e-05
6.99386e-05
2.83821e-05
6.99364e-05
2.40359e-05
2.58756e-05
2.79494e-05
2.55513e-05
2.40363e-05
2.58756e-05
2.79451e-05
2.83827e-05
6.99404e-05
6.99424e-05
2.83807e-05
2.40366e-05
2.55521e-05
2.79463e-05
2.58758e-05
2.79503e-05
2.58758e-05
2.40365e-05
2.83823e-05
6.99365e-05
6.99385e-05
2.83803e-05
2.40364e-05
2.55513e-05
2.58756e-05
2.79455e-05
2.58756e-05
2.79498e-05
2.40362e-05
2.83795e-05
6.99396e-05
2.83819e-05
6.99375e-05
2.40356e-05
2.58756e-05
2.79489e-05
2.55515e-05
2.4036e-05
2.58756e-05
2.79448e-05
2.83793e-05
6.99411e-05
2.83817e-05
6.99391e-05
2.40359e-05
2.5552e-05
2.79451e-05
2.58757e-05
2.79495e-05
2.58757e-05
2.40358e-05
2.83821e-05
6.99378e-05
6.99396e-05
2.83799e-05
2.40361e-05
2.55515e-05
2.58756e-05
2.79451e-05
2.58756e-05
2.79493e-05
2.4036e-05
2.8382e-05
6.99392e-05
6.99411e-05
2.83798e-05
3.46387e-05
3.46401e-05
2.49528e-05
3.46374e-05
3.46394e-05
7.89699e-05
7.89694e-05
7.89657e-05
7.89661e-05
2.4949e-05
3.46385e-05
3.46409e-05
3.46399e-05
3.46417e-05
7.89699e-05
7.89701e-05
2.40347e-05
2.58755e-05
2.79496e-05
2.55518e-05
2.40352e-05
2.58755e-05
2.79455e-05
2.83782e-05
6.99415e-05
2.83809e-05
6.99395e-05
2.83781e-05
6.99435e-05
2.83808e-05
6.99416e-05
2.40351e-05
2.55518e-05
2.58756e-05
2.79455e-05
2.58756e-05
2.79497e-05
2.4035e-05
2.40353e-05
2.55518e-05
2.58755e-05
2.79459e-05
2.58755e-05
2.795e-05
2.40351e-05
2.83811e-05
6.99396e-05
6.99415e-05
2.83787e-05
2.83811e-05
6.99417e-05
6.99435e-05
2.83786e-05
7.897e-05
7.89696e-05
7.89694e-05
7.8969e-05
2.49492e-05
3.46411e-05
3.46433e-05
3.46422e-05
3.46443e-05
7.89702e-05
7.89703e-05
7.89696e-05
7.89697e-05
7.89714e-05
7.89714e-05
7.89698e-05
7.89698e-05
3.46434e-05
3.4644e-05
2.49536e-05
3.46421e-05
3.46429e-05
7.89728e-05
7.89723e-05
7.89707e-05
7.89706e-05
2.49498e-05
3.46419e-05
3.46434e-05
3.4644e-05
3.4645e-05
2.83805e-05
6.99428e-05
2.83828e-05
6.99412e-05
2.40366e-05
2.79499e-05
2.58759e-05
2.55519e-05
2.40368e-05
2.79457e-05
2.58759e-05
2.40367e-05
2.79513e-05
2.58758e-05
2.55519e-05
2.40369e-05
2.7947e-05
2.58758e-05
2.83828e-05
6.99385e-05
6.994e-05
2.83802e-05
2.83831e-05
6.99424e-05
6.99433e-05
2.83806e-05
2.40371e-05
2.55519e-05
2.79458e-05
2.58756e-05
2.79501e-05
2.58757e-05
2.40362e-05
2.40372e-05
2.55518e-05
2.79471e-05
2.58757e-05
2.79514e-05
2.58757e-05
2.40364e-05
3.46464e-05
3.464e-05
2.49535e-05
3.46446e-05
3.46379e-05
7.8968e-05
7.89678e-05
7.89729e-05
7.89725e-05
2.49497e-05
3.46444e-05
3.46377e-05
3.46465e-05
3.46401e-05
7.89691e-05
7.89691e-05
2.40369e-05
2.79507e-05
2.58759e-05
2.55523e-05
2.4037e-05
2.79466e-05
2.58759e-05
2.83809e-05
6.99386e-05
2.83828e-05
6.99367e-05
2.40367e-05
2.58757e-05
2.79502e-05
2.55515e-05
2.40368e-05
2.58757e-05
2.79457e-05
2.83836e-05
6.99411e-05
6.99428e-05
2.83816e-05
2.40375e-05
2.55523e-05
2.79468e-05
2.58758e-05
2.79509e-05
2.58758e-05
2.40371e-05
2.83833e-05
6.9937e-05
6.99389e-05
2.83812e-05
2.40373e-05
2.55515e-05
2.58756e-05
2.79458e-05
2.58756e-05
2.79504e-05
2.40369e-05
2.83802e-05
6.994e-05
2.83825e-05
6.99381e-05
2.40364e-05
2.58758e-05
2.79495e-05
2.55516e-05
2.40366e-05
2.58758e-05
2.79453e-05
2.83802e-05
6.99412e-05
2.83825e-05
6.99394e-05
2.40365e-05
2.55519e-05
2.79453e-05
2.58756e-05
2.79499e-05
2.58757e-05
2.40361e-05
2.83829e-05
6.99394e-05
6.99404e-05
2.83804e-05
2.40368e-05
2.55516e-05
2.58757e-05
2.79454e-05
2.58758e-05
2.79497e-05
2.40361e-05
2.83828e-05
6.99399e-05
6.99414e-05
2.83803e-05
3.46409e-05
3.4643e-05
2.4953e-05
3.46392e-05
3.46418e-05
7.89707e-05
7.89707e-05
7.89673e-05
7.89675e-05
2.49493e-05
3.46394e-05
3.46421e-05
3.46415e-05
3.46439e-05
7.89717e-05
7.89715e-05
2.40355e-05
2.58756e-05
2.79503e-05
2.5552e-05
2.40357e-05
2.58756e-05
2.79461e-05
2.83791e-05
6.99415e-05
2.83816e-05
6.99397e-05
2.8379e-05
6.99437e-05
2.83816e-05
6.9942e-05
2.40357e-05
2.55518e-05
2.58754e-05
2.79457e-05
2.58755e-05
2.79501e-05
2.40353e-05
2.4036e-05
2.5552e-05
2.58755e-05
2.79461e-05
2.58755e-05
2.79505e-05
2.40353e-05
2.8382e-05
6.99398e-05
6.99417e-05
2.83793e-05
2.8382e-05
6.99425e-05
6.99439e-05
2.83792e-05
7.8971e-05
7.89711e-05
7.89704e-05
7.89704e-05
2.49495e-05
3.46417e-05
3.46439e-05
3.46438e-05
3.46459e-05
7.89724e-05
7.89719e-05
7.89717e-05
7.89713e-05
7.89736e-05
7.89741e-05
7.89717e-05
7.89726e-05
3.46437e-05
3.46453e-05
2.49536e-05
3.46415e-05
3.46433e-05
7.89746e-05
7.89741e-05
7.89745e-05
7.89728e-05
2.49498e-05
3.46411e-05
3.46429e-05
3.46434e-05
3.46452e-05
2.83799e-05
6.99448e-05
2.83831e-05
6.99447e-05
2.40349e-05
2.795e-05
2.58756e-05
2.55516e-05
2.40361e-05
2.79454e-05
2.58755e-05
2.40352e-05
2.79514e-05
2.58756e-05
2.55514e-05
2.40363e-05
2.79467e-05
2.58755e-05
2.8382e-05
6.99432e-05
6.99422e-05
2.83787e-05
2.83824e-05
6.99471e-05
6.99464e-05
2.8379e-05
2.40352e-05
2.55514e-05
2.7944e-05
2.58751e-05
2.79496e-05
2.58753e-05
2.40339e-05
2.40352e-05
2.55511e-05
2.79449e-05
2.5875e-05
2.79509e-05
2.58754e-05
2.4034e-05
3.46463e-05
3.46399e-05
2.4953e-05
3.46442e-05
3.46376e-05
7.89701e-05
7.89695e-05
7.89736e-05
7.89731e-05
2.49489e-05
3.46432e-05
3.46366e-05
3.46462e-05
3.46398e-05
7.89699e-05
7.89698e-05
2.40361e-05
2.79511e-05
2.58759e-05
2.55522e-05
2.40373e-05
2.79466e-05
2.58758e-05
2.83809e-05
6.99391e-05
2.83836e-05
6.99383e-05
2.40359e-05
2.58755e-05
2.79504e-05
2.55513e-05
2.40371e-05
2.58755e-05
2.79455e-05
2.83835e-05
6.99452e-05
6.99445e-05
2.83805e-05
2.4036e-05
2.5552e-05
2.79455e-05
2.58755e-05
2.79507e-05
2.58757e-05
2.4035e-05
2.83831e-05
6.9941e-05
6.99402e-05
2.83801e-05
2.40359e-05
2.55511e-05
2.58752e-05
2.79444e-05
2.58753e-05
2.795e-05
2.40348e-05
2.83797e-05
6.99419e-05
2.83829e-05
6.99417e-05
2.4035e-05
2.58756e-05
2.79497e-05
2.55514e-05
2.40361e-05
2.58755e-05
2.79451e-05
2.83795e-05
6.9942e-05
2.83828e-05
6.99418e-05
2.40352e-05
2.55515e-05
2.79432e-05
2.5875e-05
2.79493e-05
2.58753e-05
2.40337e-05
2.83822e-05
6.99439e-05
6.99436e-05
2.83789e-05
2.4035e-05
2.55511e-05
2.5875e-05
2.79437e-05
2.58753e-05
2.79492e-05
2.40338e-05
2.83821e-05
6.99446e-05
6.99436e-05
2.83787e-05
3.46415e-05
3.46438e-05
2.49531e-05
3.46389e-05
3.46414e-05
7.89725e-05
7.89738e-05
7.8971e-05
7.89699e-05
2.49492e-05
3.46385e-05
3.4641e-05
3.4641e-05
3.46432e-05
7.89752e-05
7.89739e-05
2.40343e-05
2.58754e-05
2.79505e-05
2.55517e-05
2.40355e-05
2.58753e-05
2.79458e-05
2.83787e-05
6.99417e-05
2.8382e-05
6.99409e-05
2.83785e-05
6.99446e-05
2.83819e-05
6.99444e-05
2.40346e-05
2.55515e-05
2.5875e-05
2.79441e-05
2.58752e-05
2.79495e-05
2.40331e-05
2.40345e-05
2.55515e-05
2.58749e-05
2.79443e-05
2.58752e-05
2.795e-05
2.40331e-05
2.83815e-05
6.99439e-05
6.99427e-05
2.8378e-05
2.83813e-05
6.99471e-05
6.99462e-05
2.83777e-05
7.89732e-05
7.89737e-05
7.89726e-05
7.89731e-05
2.49491e-05
3.46408e-05
3.4643e-05
3.46432e-05
3.46454e-05
7.89743e-05
7.89737e-05
7.89737e-05
7.89731e-05
7.89731e-05
7.89765e-05
7.89731e-05
7.89763e-05
3.46429e-05
3.46448e-05
2.49502e-05
3.46395e-05
3.46418e-05
7.89778e-05
7.89713e-05
7.89772e-05
7.8971e-05
2.49451e-05
3.46371e-05
3.46397e-05
3.46417e-05
3.46441e-05
2.83768e-05
6.99477e-05
2.83815e-05
6.99501e-05
2.40303e-05
2.79479e-05
2.58744e-05
2.55488e-05
2.40337e-05
2.79404e-05
2.58728e-05
2.40303e-05
2.79487e-05
2.58742e-05
2.55473e-05
2.40338e-05
2.79407e-05
2.58724e-05
2.83782e-05
6.99488e-05
6.99464e-05
2.83729e-05
2.83786e-05
6.99521e-05
6.99497e-05
2.83733e-05
2.40294e-05
2.55469e-05
2.79357e-05
2.58695e-05
2.79445e-05
2.58711e-05
2.40252e-05
2.40294e-05
2.55455e-05
2.79361e-05
2.58692e-05
2.79448e-05
2.58707e-05
2.40254e-05
3.46449e-05
3.46386e-05
2.4948e-05
3.46406e-05
3.46339e-05
7.89687e-05
7.89726e-05
7.89773e-05
7.89707e-05
2.49429e-05
3.46381e-05
3.4631e-05
3.46428e-05
3.46362e-05
7.89753e-05
7.89681e-05
2.40332e-05
2.79496e-05
2.58751e-05
2.55502e-05
2.40349e-05
2.79427e-05
2.58742e-05
2.83787e-05
6.99423e-05
2.83825e-05
6.99453e-05
2.4033e-05
2.58749e-05
2.79488e-05
2.55496e-05
2.40347e-05
2.58741e-05
2.79416e-05
2.83808e-05
6.99519e-05
6.99491e-05
2.83756e-05
2.40327e-05
2.55483e-05
2.79381e-05
2.58707e-05
2.7947e-05
2.58725e-05
2.40275e-05
2.83804e-05
6.9948e-05
6.99454e-05
2.83752e-05
2.40325e-05
2.55478e-05
2.58706e-05
2.79371e-05
2.58724e-05
2.79463e-05
2.40273e-05
2.83767e-05
6.9945e-05
2.83813e-05
6.99472e-05
2.40303e-05
2.58742e-05
2.79476e-05
2.55482e-05
2.40336e-05
2.58726e-05
2.794e-05
2.83765e-05
6.99454e-05
2.83812e-05
6.99482e-05
2.40293e-05
2.5546e-05
2.79343e-05
2.58693e-05
2.79433e-05
2.58707e-05
2.40253e-05
2.83784e-05
6.99491e-05
6.99469e-05
2.83732e-05
2.40294e-05
2.55464e-05
2.58693e-05
2.79354e-05
2.58708e-05
2.79442e-05
2.40252e-05
2.83783e-05
6.99503e-05
6.99479e-05
2.8373e-05
3.46408e-05
3.4643e-05
2.49505e-05
3.46374e-05
3.46402e-05
7.89736e-05
7.89767e-05
7.89755e-05
7.89687e-05
2.49456e-05
3.46352e-05
3.46383e-05
3.464e-05
3.46427e-05
7.89777e-05
7.89714e-05
2.40297e-05
2.58743e-05
2.79483e-05
2.55485e-05
2.40329e-05
2.58727e-05
2.79407e-05
2.83756e-05
6.99449e-05
2.83803e-05
6.99482e-05
2.83756e-05
6.99478e-05
2.83804e-05
6.99506e-05
2.40291e-05
2.55479e-05
2.58697e-05
2.79364e-05
2.58713e-05
2.79452e-05
2.40246e-05
2.40289e-05
2.55467e-05
2.58694e-05
2.79361e-05
2.58709e-05
2.79449e-05
2.40244e-05
2.83773e-05
6.99506e-05
6.9948e-05
2.83716e-05
2.83776e-05
6.99527e-05
6.99503e-05
2.83719e-05
7.89728e-05
7.89761e-05
7.89722e-05
7.89756e-05
2.49441e-05
3.46369e-05
3.4639e-05
3.46415e-05
3.46435e-05
7.89775e-05
7.8971e-05
7.89769e-05
7.89705e-05
7.89694e-05
7.89796e-05
7.89686e-05
7.89787e-05
3.46403e-05
3.46428e-05
2.49443e-05
3.46341e-05
3.46363e-05
7.89823e-05
7.89685e-05
7.89813e-05
7.89675e-05
2.49403e-05
3.46328e-05
3.46345e-05
3.46389e-05
3.46409e-05
2.83713e-05
6.99501e-05
2.83758e-05
6.99535e-05
2.40248e-05
2.79418e-05
2.58685e-05
2.55435e-05
2.40256e-05
2.79329e-05
2.58681e-05
2.4025e-05
2.79423e-05
2.58684e-05
2.55432e-05
2.40257e-05
2.79336e-05
2.5868e-05
2.83761e-05
6.99509e-05
6.99442e-05
2.83715e-05
2.83765e-05
6.99543e-05
6.99476e-05
2.8372e-05
2.40257e-05
2.55431e-05
2.79312e-05
2.58677e-05
2.79413e-05
2.58677e-05
2.4025e-05
2.40259e-05
2.5543e-05
2.79321e-05
2.58677e-05
2.79422e-05
2.58677e-05
2.40251e-05
3.46415e-05
3.46346e-05
2.49439e-05
3.46355e-05
3.46287e-05
7.89673e-05
7.89772e-05
7.89818e-05
7.8968e-05
2.494e-05
3.46344e-05
3.46278e-05
3.46403e-05
3.46338e-05
7.89805e-05
7.89662e-05
2.40255e-05
2.7944e-05
2.58693e-05
2.55441e-05
2.4027e-05
2.79346e-05
2.58685e-05
2.83725e-05
6.99463e-05
2.83774e-05
6.99495e-05
2.40253e-05
2.58692e-05
2.79433e-05
2.55435e-05
2.40268e-05
2.58683e-05
2.79335e-05
2.83778e-05
6.99541e-05
6.99476e-05
2.83732e-05
2.40264e-05
2.55436e-05
2.79325e-05
2.58677e-05
2.79429e-05
2.58679e-05
2.40256e-05
2.83774e-05
6.99501e-05
6.99436e-05
2.83727e-05
2.40261e-05
2.55429e-05
2.58676e-05
2.79314e-05
2.58677e-05
2.79421e-05
2.40253e-05
2.83711e-05
6.99473e-05
2.83757e-05
6.99506e-05
2.40249e-05
2.58684e-05
2.79416e-05
2.55434e-05
2.40256e-05
2.5868e-05
2.79326e-05
2.8371e-05
6.99484e-05
2.83756e-05
6.99518e-05
2.40259e-05
2.55435e-05