/*--------------------------------*- C++ -*----------------------------------*\
| =========                 |                                                 |
| \\      /  F ield         | OpenFOAM: The Open Source CFD Toolbox           |
|  \\    /   O peration     | Version:  2206                                  |
|   \\  /    A nd           | Website:  www.openfoam.com                      |
|    \\/     M anipulation  |                                                 |
\*---------------------------------------------------------------------------*/
FoamFile
{
    version     2.0;
    format      ascii;
    arch        "LSB;label=32;scalar=64";
    class       volScalarField;
    location    "29";
    object      p;
}
// * * * * * * * * * * * * * * * * * * * * * * * * * * * * * * * * * * * * * //

dimensions      [0 2 -2 0 0 0 0];

internalField   nonuniform List<scalar> 
28673
(
0.000503099
0.000505573
0.000461263
0.000461227
0.000461227
0.0004637
0.000419395
0.000419359
0.000419359
0.000421832
0.000377527
0.000377491
0.000377491
0.000379965
0.000335659
0.000335624
0.000335623
0.000338097
0.000293789
0.000293755
0.000293755
0.000296228
0.000251906
0.000251869
0.00025187
0.00025434
0.000210032
0.000209997
0.000209997
0.000212466
0.000168147
0.000168106
0.000168105
0.000170567
0.000126264
0.00012624
0.000126239
0.000128689
8.43818e-05
8.43424e-05
8.43409e-05
8.67645e-05
4.31752e-05
4.26239e-05
4.2621e-05
4.49105e-05
9.15999e-06
9.36232e-06
9.35983e-06
8.90655e-06
0.000513567
0.000511101
0.000513567
0.000469228
0.000503099
0.000503099
0.000471694
0.000471694
0.000505573
0.000469228
0.000471694
0.000471695
0.000503099
0.000471694
0.000471694
0.000469227
0.000503099
0.000471695
0.000471694
0.000469227
0.0004637
0.000427359
0.000461227
0.000461227
0.000429826
0.000429826
0.0004637
0.000427359
0.000461227
0.000461227
0.000429825
0.000429825
0.000461227
0.000429826
0.000429826
0.0004637
0.000427359
0.000461227
0.000429825
0.000429825
0.000427359
0.000421832
0.000385491
0.000419359
0.000419359
0.000387958
0.000387958
0.000421832
0.000385492
0.000419359
0.000419359
0.000387958
0.000387958
0.000419359
0.000387958
0.000387958
0.000421832
0.000385491
0.000419359
0.000387958
0.000387958
0.000385492
0.000379964
0.000343624
0.000377491
0.000377491
0.00034609
0.00034609
0.000379965
0.000343624
0.000377491
0.000377491
0.00034609
0.00034609
0.000377491
0.00034609
0.000346091
0.000379964
0.000343623
0.000377491
0.00034609
0.00034609
0.000343624
0.000338097
0.000301756
0.000335623
0.000335624
0.000304223
0.000304223
0.000338097
0.000301756
0.000335623
0.000335623
0.000304223
0.000304222
0.000335624
0.000304223
0.000304223
0.000338097
0.000301755
0.000335623
0.000304222
0.000304223
0.000301756
0.000296228
0.000259875
0.000293755
0.000293754
0.000262343
0.000262342
0.000296228
0.000259874
0.000293755
0.000293755
0.000262343
0.000262343
0.000293755
0.000262342
0.000262343
0.000296228
0.000259876
0.000293755
0.000262343
0.000262343
0.000259875
0.000254341
0.000217994
0.00025187
0.000251869
0.000220457
0.000220457
0.000254339
0.000217995
0.00025187
0.00025187
0.000220457
0.000220457
0.000251869
0.000220457
0.000220457
0.000254342
0.000217994
0.000251869
0.000220457
0.000220457
0.000217994
0.000212466
0.000176126
0.000209997
0.000209997
0.000178591
0.000178591
0.000212466
0.000176126
0.000209997
0.000209997
0.00017859
0.00017859
0.000209997
0.000178591
0.000178591
0.000212466
0.000176126
0.000209997
0.00017859
0.000178591
0.000176126
0.000170567
0.000134248
0.000168106
0.000168106
0.000136713
0.000136713
0.000170567
0.000134248
0.000168105
0.000168106
0.000136712
0.000136713
0.000168106
0.000136713
0.000136713
0.000170566
0.000134247
0.000168106
0.000136712
0.000136713
0.000134248
0.000128689
9.23628e-05
0.00012624
0.00012624
9.48204e-05
9.48209e-05
0.000128689
9.23635e-05
0.000126239
0.00012624
9.482e-05
9.48197e-05
0.00012624
9.48205e-05
9.482e-05
0.000128689
9.23619e-05
0.00012624
9.48195e-05
9.48195e-05
9.23621e-05
8.67656e-05
5.05108e-05
8.4342e-05
8.43424e-05
5.29729e-05
5.29734e-05
8.67655e-05
5.05118e-05
8.43415e-05
8.43409e-05
5.2971e-05
5.29705e-05
8.43415e-05
5.29722e-05
5.29701e-05
8.6765e-05
5.05083e-05
8.4341e-05
5.29696e-05
5.29689e-05
5.0508e-05
4.49142e-05
1.25381e-05
4.26257e-05
4.26258e-05
1.47386e-05
1.47379e-05
4.49146e-05
1.2538e-05
4.26237e-05
4.26224e-05
1.47366e-05
1.4733e-05
4.26217e-05
1.47353e-05
1.47312e-05
4.49111e-05
1.25335e-05
4.26204e-05
1.47332e-05
1.47326e-05
1.25324e-05
8.91044e-06
9.36333e-06
9.3638e-06
8.91182e-06
9.36174e-06
9.35916e-06
9.15998e-06
9.15767e-06
9.15737e-06
9.35835e-06
8.90752e-06
9.35894e-06
0.000490043
0.000505717
0.00050572
0.000490044
0.000505718
0.000490043
0.000490044
0.000490044
0.000503135
0.000503135
0.000471731
0.00047173
0.000471731
0.00047173
0.000490093
0.000505685
0.000503108
0.000492631
0.000505674
0.000490074
0.000492639
0.000490043
0.000490094
0.000503108
0.000492631
0.000505674
0.000492639
0.000490074
0.000505722
0.000505722
0.000490164
0.00049004
0.00049004
0.000448172
0.000463844
0.000463847
0.000448173
0.000463846
0.000448172
0.000448172
0.000463844
0.000463847
0.000448173
0.000461263
0.000461263
0.000461263
0.000429862
0.000429862
0.000429862
0.000429861
0.000448223
0.000463813
0.000461235
0.000450759
0.000463801
0.000448203
0.000450768
0.000463845
0.000448172
0.000448223
0.000461235
0.000463813
0.000450759
0.000463801
0.000450768
0.000448203
0.000463849
0.000463849
0.000448293
0.000448169
0.000448169
0.000406305
0.000421976
0.000421979
0.000406306
0.000421977
0.000406305
0.000406305
0.000421976
0.000421979
0.000406306
0.000419395
0.000419395
0.000419394
0.000387994
0.000387994
0.000387994
0.000387994
0.000406355
0.000421945
0.000419367
0.000408892
0.000421933
0.000406336
0.000408901
0.000421977
0.000406305
0.000406355
0.000419367
0.000421945
0.000408892
0.000421933
0.0004089
0.000406336
0.000421981
0.000421981
0.000406425
0.000406302
0.000406302
0.000364437
0.000380109
0.000380112
0.000364438
0.00038011
0.000364437
0.000364437
0.000380108
0.000380111
0.000364438
0.000377527
0.000377527
0.000377527
0.000346126
0.000346126
0.000346126
0.000346126
0.000364488
0.000380078
0.0003775
0.000367024
0.000380066
0.000364469
0.000367033
0.00038011
0.000364437
0.000364488
0.0003775
0.000380077
0.000367024
0.000380066
0.000367033
0.000364468
0.000380114
0.000380114
0.000364558
0.000364434
0.000364434
0.000322571
0.000338241
0.000338244
0.000322571
0.000338242
0.000322571
0.000322569
0.000338241
0.000338244
0.00032257
0.00033566
0.000335659
0.000335659
0.000304257
0.000304258
0.000304257
0.000304257
0.000322621
0.00033821
0.000335633
0.000325157
0.000338198
0.000322602
0.000325165
0.000338242
0.000322569
0.00032262
0.000335632
0.00033821
0.000325156
0.000338198
0.000325165
0.000322601
0.000338246
0.000338246
0.000322691
0.000322567
0.000322567
0.000280701
0.000296375
0.000296375
0.000280698
0.000296377
0.000280695
0.0002807
0.000296375
0.000296375
0.000280698
0.00029379
0.000293789
0.000293789
0.000262376
0.000262375
0.000262377
0.000262375
0.000280749
0.000296342
0.000293763
0.000283284
0.000296329
0.000280731
0.000283292
0.000296375
0.000280697
0.00028075
0.000293763
0.000296341
0.000283285
0.000296329
0.000283293
0.000280732
0.00029638
0.00029638
0.000280818
0.000280696
0.000280696
0.000238825
0.000254484
0.000254486
0.00023882
0.00025449
0.000238811
0.000238827
0.000254485
0.00025449
0.000238821
0.000251905
0.000251907
0.000251905
0.000220496
0.000220496
0.000220495
0.000220496
0.00023887
0.000254445
0.000251878
0.000241393
0.000254437
0.000238858
0.000241401
0.000254494
0.000238813
0.000238871
0.000251878
0.000254448
0.000241394
0.000254438
0.000241401
0.000238859
0.00025449
0.00025449
0.000238929
0.000238819
0.000238819
0.000196902
0.000212606
0.000212601
0.000196926
0.000212609
0.000196914
0.000196901
0.000212606
0.0002126
0.000196925
0.000210032
0.000210032
0.000210032
0.000178614
0.000178614
0.000178614
0.000178614
0.000196965
0.000212575
0.000210009
0.000199541
0.000212575
0.000196961
0.000199547
0.000212608
0.000196913
0.000196964
0.000210009
0.000212574
0.00019954
0.000212574
0.000199547
0.00019696
0.000212607
0.000212607
0.000197068
0.000196923
0.000196922
0.000155091
0.000170743
0.000170707
0.000155069
0.000170764
0.000155016
0.00015509
0.000170742
0.000170707
0.000155069
0.000168147
0.000168147
0.000168146
0.000136727
0.000136727
0.000136727
0.000136727
0.000155117
0.00017068
0.000168111
0.000157636
0.000170656
0.000155128
0.000157647
0.000170765
0.000155015
0.000155117
0.000168111
0.00017068
0.000157636
0.000170656
0.000157647
0.000155128
0.000170729
0.000170728
0.000155183
0.000155076
0.000155075
0.00011318
0.000128851
0.000128839
0.000113163
0.00012892
0.000113077
0.000113179
0.000128852
0.000128839
0.000113162
0.000126264
0.000126263
0.000126263
9.48269e-05
9.48265e-05
9.48261e-05
9.48262e-05
0.000113224
0.000128797
0.00012624
0.000115763
0.00012879
0.000113235
0.00011576
0.00012892
0.000113076
0.000113224
0.00012624
0.000128798
0.000115762
0.00012879
0.00011576
0.000113234
0.000128829
0.000128829
0.000113309
0.00011318
0.00011318
7.12264e-05
8.69226e-05
8.69297e-05
7.12353e-05
8.708e-05
7.102e-05
7.12246e-05
8.6922e-05
8.69286e-05
7.12337e-05
8.43814e-05
8.43808e-05
8.43809e-05
5.32091e-05
5.32101e-05
5.32072e-05
5.32073e-05
7.12856e-05
8.68618e-05
8.43566e-05
7.38744e-05
8.6885e-05
7.13106e-05
7.38856e-05
8.70749e-05
7.10236e-05
7.12845e-05
8.43558e-05
8.6861e-05
7.38728e-05
8.68844e-05
7.38845e-05
7.13083e-05
8.68884e-05
8.68888e-05
7.1417e-05
7.12636e-05
7.12636e-05
2.84569e-05
4.45337e-05
4.46793e-05
2.7776e-05
4.49658e-05
2.71283e-05
2.84434e-05
4.45255e-05
4.46732e-05
2.77683e-05
4.31757e-05
4.31724e-05
4.31723e-05
1.61899e-05
1.61891e-05
1.61863e-05
1.61859e-05
2.90875e-05
4.45471e-05
4.28834e-05
3.25867e-05
4.4812e-05
2.83212e-05
3.29813e-05
4.49509e-05
2.71358e-05
2.90876e-05
4.28807e-05
4.45453e-05
3.25838e-05
4.4812e-05
3.29788e-05
2.83232e-05
4.44777e-05
4.44773e-05
3.00439e-05
2.79919e-05
2.79896e-05
5.25911e-06
6.16805e-06
6.22335e-06
4.47422e-08
3.19701e-06
-3.98771e-06
5.27671e-06
6.14828e-06
6.20895e-06
4.93376e-08
2.64948e-06
9.58971e-06
9.58793e-06
2.93298e-06
9.87897e-06
2.67904e-06
2.67838e-06
4.66244e-06
6.56313e-06
8.95318e-06
3.02615e-06
7.95895e-06
4.30608e-06
2.77644e-06
3.16188e-06
-3.9865e-06
4.66731e-06
8.95231e-06
6.55906e-06
3.02471e-06
7.95865e-06
2.77669e-06
4.31506e-06
2.99441e-06
2.98949e-06
2.89903e-06
2.84627e-06
2.85659e-06
0.000510981
0.000511011
0.000510979
0.000510977
0.000510977
0.000510979
0.000511011
0.000510981
0.000505717
0.000490043
0.000490043
0.000505722
0.000490164
0.00049004
0.00049004
0.000469107
0.000484781
0.000469107
0.000484781
0.000484636
0.000469103
0.000469103
0.000484785
0.000484785
0.000490043
0.000505716
0.00050572
0.000490044
0.000490093
0.000505686
0.000503108
0.000492631
0.000505674
0.000490074
0.000492639
0.000490093
0.000505685
0.000503108
0.00049263
0.000505674
0.000490074
0.000492639
0.000484783
0.000469108
0.000484779
0.000469107
0.000484783
0.000469108
0.000484779
0.000469107
0.000484737
0.000482163
0.000469138
0.000471703
0.000484749
0.000482171
0.000469157
0.000484737
0.000482162
0.000469138
0.000471703
0.000484749
0.000482171
0.000469157
0.000505722
0.000505722
0.000490164
0.000490039
0.00049004
0.000505718
0.000490043
0.000469107
0.000484781
0.000484636
0.000469104
0.000469104
0.000484785
0.000484784
0.000469107
0.000484781
0.000490094
0.000492631
0.000490074
0.00049264
0.000490044
0.000490045
0.000490094
0.000492631
0.00049264
0.000490075
0.000484783
0.000469108
0.00048478
0.000469107
0.000484737
0.000482162
0.000469138
0.000471703
0.000484749
0.000482171
0.000469157
0.000484783
0.000469108
0.00048478
0.000469107
0.000484737
0.000482163
0.000471703
0.000469138
0.000482171
0.000484749
0.000469157
0.000490043
0.000505717
0.00050572
0.000490044
0.000490093
0.000503108
0.000505686
0.000492631
0.000505674
0.00049264
0.000490074
0.000490043
0.000505717
0.00050572
0.000490044
0.000484737
0.000482162
0.000469138
0.000471703
0.000484748
0.000482171
0.000469157
0.000484782
0.000469108
0.000484779
0.000469107
0.000484737
0.000482163
0.000471703
0.000469138
0.000482171
0.000484749
0.000469157
0.000484782
0.000469108
0.000484779
0.000469107
0.000490164
0.000490041
0.00049004
0.000490043
0.000469107
0.000484781
0.000484636
0.000469104
0.000469103
0.000484785
0.000484785
0.000469107
0.000484781
0.000490094
0.000503108
0.000505686
0.000492631
0.000505674
0.00049264
0.000490074
0.000490044
0.00050572
0.000490044
0.000490043
0.000505717
0.00050572
0.000490044
0.000484737
0.000482163
0.000471703
0.000469138
0.000482171
0.000484749
0.000469158
0.000484737
0.000482162
0.000471703
0.000469138
0.000482171
0.000484749
0.000469158
0.000484782
0.000469108
0.00048478
0.000469107
0.000484782
0.000469108
0.000484779
0.000469107
0.000505717
0.000490043
0.000505717
0.000490043
0.000484636
0.000469103
0.000469103
0.000484785
0.000484785
0.000469107
0.000484781
0.000469107
0.000484781
0.000463845
0.000448173
0.000463845
0.000448173
0.000463849
0.000463849
0.000448293
0.000448169
0.000448169
0.000427239
0.000442911
0.000427239
0.000442911
0.000442766
0.000427235
0.000427235
0.000442915
0.000442915
0.000448172
0.000463844
0.000463847
0.000448173
0.000448223
0.000463813
0.000461235
0.000450759
0.000463801
0.000448203
0.000450768
0.000448223
0.000463813
0.000461236
0.000450759
0.000463801
0.000448203
0.000450768
0.000442913
0.00042724
0.000442909
0.000427239
0.000442913
0.00042724
0.000442909
0.000427239
0.000442867
0.000440292
0.000427269
0.000429834
0.000442879
0.000440301
0.000427289
0.000442867
0.000440292
0.000427269
0.000429834
0.000442878
0.000440301
0.000427289
0.000463849
0.000463849
0.000448293
0.000448169
0.000448169
0.000463846
0.000448172
0.000427239
0.000442911
0.000442766
0.000427235
0.000427235
0.000442915
0.000442914
0.000427238
0.000442911
0.000448223
0.000463813
0.000461235
0.000450759
0.000463801
0.000448203
0.000450768
0.000448172
0.000463844
0.000463847
0.000448173
0.000448223
0.000461235
0.000463813
0.000450759
0.000463801
0.000450768
0.000448203
0.000442913
0.000427239
0.00044291
0.000427239
0.000442867
0.000440292
0.000427269
0.000429834
0.000442878
0.000440301
0.000427289
0.000442913
0.000427239
0.000442909
0.000427239
0.000442867
0.000440292
0.000429834
0.00042727
0.000440301
0.000442878
0.000427289
0.000448172
0.000463844
0.000463847
0.000448173
0.000448223
0.000461235
0.000463813
0.00045076
0.000463801
0.000450768
0.000448203
0.000448172
0.000463844
0.000463847
0.000448173
0.000442867
0.000440292
0.00042727
0.000429834
0.000442878
0.000440301
0.000427289
0.000442913
0.00042724
0.000442909
0.000427239
0.000442867
0.000440293
0.000429834
0.000427269
0.000440301
0.000442878
0.000427289
0.000442913
0.000427239
0.000442909
0.000427239
0.000463849
0.000463849
0.000448293
0.000448169
0.000448169
0.000463845
0.000448173
0.000427238
0.000442911
0.000442766
0.000427235
0.000427235
0.000442915
0.000442915
0.000427239
0.000442911
0.000448223
0.000461235
0.000463813
0.000450759
0.000463801
0.000450768
0.000448203
0.000448173
0.000463844
0.000463847
0.000448173
0.000448173
0.000463844
0.000463847
0.000448173
0.000442867
0.000440292
0.000429834
0.000427269
0.000440301
0.000442879
0.000427289
0.000442867
0.000440292
0.000429834
0.000427269
0.000440301
0.000442878
0.000427289
0.000442912
0.000427239
0.00044291
0.000427239
0.000442912
0.000427239
0.000442909
0.000427239
0.000463845
0.000448173
0.000463845
0.000448173
0.000442766
0.000427235
0.000427235
0.000442915
0.000442915
0.000427238
0.000442911
0.000427239
0.000442911
0.000421977
0.000406305
0.000421977
0.000406305
0.000421981
0.000421981
0.000406425
0.000406302
0.000406302
0.000385371
0.000401044
0.000385371
0.000401044
0.000400898
0.000385368
0.000385368
0.000401048
0.000401048
0.000406305
0.000421976
0.000421979
0.000406306
0.000406355
0.000421945
0.000419367
0.000408892
0.000421933
0.000406336
0.000408901
0.000406355
0.000421945
0.000419368
0.000408892
0.000421933
0.000406336
0.000408901
0.000401045
0.000385372
0.000401042
0.000385372
0.000401045
0.000385373
0.000401042
0.000385372
0.000401
0.000398425
0.000385402
0.000387967
0.000401011
0.000398434
0.000385422
0.000401
0.000398425
0.000385402
0.000387967
0.000401011
0.000398434
0.000385422
0.000421981
0.000421981
0.000406426
0.000406302
0.000406302
0.000421978
0.000406305
0.000385372
0.000401044
0.000400898
0.000385368
0.000385368
0.000401047
0.000401047
0.000385371
0.000401044
0.000406355
0.000421945
0.000419367
0.000408892
0.000421933
0.000406336
0.000408901
0.000406305
0.000421976
0.000421979
0.000406306
0.000406355
0.000419367
0.000421945
0.000408892
0.000421933
0.000408901
0.000406336
0.000401046
0.000385372
0.000401042
0.000385371
0.000401
0.000398425
0.000385402
0.000387967
0.000401011
0.000398434
0.000385421
0.000401046
0.000385372
0.000401042
0.000385371
0.000401
0.000398425
0.000387967
0.000385402
0.000398434
0.000401011
0.000385421
0.000406305
0.000421976
0.000421979
0.000406306
0.000406355
0.000419367
0.000421945
0.000408892
0.000421933
0.000408901
0.000406336
0.000406305
0.000421976
0.000421979
0.000406306
0.000401
0.000398425
0.000385403
0.000387967
0.000401011
0.000398434
0.000385422
0.000401045
0.000385373
0.000401042
0.000385372
0.000401
0.000398425
0.000387967
0.000385402
0.000398434
0.000401011
0.000385422
0.000401045
0.000385372
0.000401042
0.000385372
0.000421981
0.000421981
0.000406425
0.000406302
0.000406302
0.000421977
0.000406305
0.000385371
0.000401044
0.000400898
0.000385368
0.000385367
0.000401048
0.000401048
0.000385371
0.000401044
0.000406355
0.000419367
0.000421945
0.000408892
0.000421933
0.000408901
0.000406336
0.000406305
0.000421976
0.000421979
0.000406306
0.000406305
0.000421976
0.000421979
0.000406306
0.000400999
0.000398425
0.000387966
0.000385402
0.000398434
0.000401011
0.000385422
0.000400999
0.000398425
0.000387967
0.000385402
0.000398434
0.000401011
0.000385422
0.000401045
0.000385372
0.000401042
0.000385372
0.000401045
0.000385372
0.000401042
0.000385372
0.000421977
0.000406305
0.000421977
0.000406305
0.000400898
0.000385368
0.000385368
0.000401047
0.000401047
0.000385371
0.000401044
0.000385371
0.000401044
0.00038011
0.000364437
0.00038011
0.000364437
0.000380114
0.000380114
0.000364558
0.000364434
0.000364434
0.000343504
0.000359176
0.000343504
0.000359176
0.000359031
0.0003435
0.0003435
0.00035918
0.00035918
0.000364437
0.000380109
0.000380112
0.000364438
0.000364488
0.000380078
0.0003775
0.000367024
0.000380066
0.000364468
0.000367033
0.000364488
0.000380078
0.0003775
0.000367024
0.000380066
0.000364468
0.000367033
0.000359178
0.000343505
0.000359174
0.000343504
0.000359178
0.000343505
0.000359175
0.000343504
0.000359132
0.000356557
0.000343535
0.000346099
0.000359144
0.000356566
0.000343554
0.000359132
0.000356557
0.000343535
0.000346099
0.000359144
0.000356566
0.000343554
0.000380114
0.000380114
0.000364558
0.000364434
0.000364434
0.00038011
0.000364437
0.000343504
0.000359176
0.000359031
0.0003435
0.000343501
0.00035918
0.00035918
0.000343504
0.000359177
0.000364488
0.000380077
0.0003775
0.000367024
0.000380065
0.000364468
0.000367033
0.000364437
0.000380108
0.000380111
0.000364438
0.000364487
0.0003775
0.000380077
0.000367024
0.000380065
0.000367033
0.000364468
0.000359177
0.000343505
0.000359174
0.000343504
0.000359131
0.000356557
0.000343535
0.000346099
0.000359143
0.000356566
0.000343554
0.000359177
0.000343504
0.000359174
0.000343504
0.000359132
0.000356557
0.000346099
0.000343534
0.000356566
0.000359143
0.000343554
0.000364437
0.000380109
0.000380112
0.000364438
0.000364488
0.0003775
0.000380078
0.000367024
0.000380066
0.000367033
0.000364468
0.000364437
0.000380109
0.000380112
0.000364438
0.000359132
0.000356558
0.000343535
0.000346099
0.000359144
0.000356566
0.000343554
0.000359178
0.000343505
0.000359175
0.000343504
0.000359132
0.000356558
0.000346099
0.000343535
0.000356566
0.000359144
0.000343554
0.000359178
0.000343505
0.000359174
0.000343504
0.000380113
0.000380114
0.000364558
0.000364434
0.000364434
0.00038011
0.000364437
0.000343503
0.000359176
0.000359031
0.0003435
0.0003435
0.000359179
0.00035918
0.000343503
0.000359176
0.000364488
0.0003775
0.000380078
0.000367024
0.000380066
0.000367033
0.000364468
0.000364437
0.000380108
0.000380111
0.000364439
0.000364437
0.000380109
0.000380111
0.000364438
0.000359132
0.000356557
0.000346099
0.000343534
0.000356566
0.000359144
0.000343554
0.000359132
0.000356557
0.000346099
0.000343535
0.000356566
0.000359144
0.000343554
0.000359177
0.000343504
0.000359175
0.000343504
0.000359177
0.000343505
0.000359174
0.000343504
0.00038011
0.000364437
0.00038011
0.000364437
0.000359031
0.0003435
0.0003435
0.00035918
0.00035918
0.000343504
0.000359176
0.000343504
0.000359176
0.000338242
0.00032257
0.000338242
0.00032257
0.000338246
0.000338246
0.00032269
0.000322566
0.000322566
0.000301637
0.000317309
0.000301636
0.000317308
0.000317164
0.000301633
0.000301633
0.000317313
0.000317312
0.000322571
0.000338241
0.000338244
0.000322572
0.000322621
0.00033821
0.000335632
0.000325156
0.000338198
0.000322601
0.000325165
0.000322621
0.00033821
0.000335633
0.000325157
0.000338198
0.000322602
0.000325165
0.000317311
0.000301638
0.000317307
0.000301637
0.000317311
0.000301639
0.000317309
0.000301637
0.000317265
0.00031469
0.000301668
0.000304231
0.000317276
0.000314699
0.000301687
0.000317265
0.000314691
0.000301668
0.000304231
0.000317278
0.000314699
0.000301687
0.000338246
0.000338246
0.000322691
0.000322568
0.000322568
0.000338243
0.000322571
0.000301638
0.00031731
0.000317164
0.000301635
0.000301635
0.000317314
0.000317314
0.000301637
0.000317311
0.00032262
0.00033821
0.000335632
0.000325156
0.000338198
0.0003226
0.000325165
0.000322569
0.000338241
0.000338244
0.000322571
0.00032262
0.000335632
0.00033821
0.000325156
0.000338198
0.000325165
0.0003226
0.000317309
0.000301637
0.000317307
0.000301637
0.000317264
0.00031469
0.000301668
0.00030423
0.000317275
0.000314698
0.000301686
0.000317309
0.000301636
0.000317306
0.000301637
0.000317264
0.00031469
0.00030423
0.000301667
0.000314698
0.000317275
0.000301686
0.000322571
0.000338241
0.000338244
0.000322572
0.000322621
0.000335633
0.00033821
0.000325157
0.000338198
0.000325165
0.000322601
0.000322571
0.000338241
0.000338244
0.000322571
0.000317265
0.000314691
0.000301669
0.000304231
0.000317278
0.000314699
0.000301687
0.000317311
0.000301639
0.000317309
0.000301637
0.000317265
0.000314691
0.000304231
0.000301668
0.000314699
0.000317276
0.000301687
0.000317311
0.000301638
0.000317308
0.000301637
0.000338246
0.000338246
0.00032269
0.000322566
0.000322566
0.000338242
0.00032257
0.000301635
0.000317308
0.000317163
0.000301632
0.000301632
0.000317312
0.000317312
0.000301635
0.000317308
0.000322621
0.000335632
0.00033821
0.000325156
0.000338198
0.000325165
0.000322601
0.000322571
0.000338241
0.000338243
0.000322571
0.000322571
0.000338241
0.000338243
0.000322571
0.000317264
0.00031469
0.000304231
0.000301667
0.000314698
0.000317276
0.000301686
0.000317264
0.000314691
0.000304231
0.000301668
0.000314698
0.000317276
0.000301686
0.00031731
0.000301636
0.000317307
0.000301637
0.00031731
0.000301638
0.000317307
0.000301637
0.000338243
0.00032257
0.000338243
0.00032257
0.000317164
0.000301634
0.000301634
0.000317313
0.000317313
0.000301637
0.000317309
0.000301637
0.000317309
0.000296377
0.000280697
0.000296375
0.000280697
0.00029638
0.000296379
0.000280818
0.000280696
0.000280696
0.000259748
0.000275439
0.000259749
0.00027544
0.000275288
0.000259751
0.000259753
0.000275441
0.000275442
0.000280701
0.000296375
0.000296375
0.000280696
0.000280749
0.000296342
0.000293763
0.000283285
0.000296329
0.000280731
0.000283293
0.000280749
0.000296342
0.000293763
0.000283284
0.000296329
0.000280731
0.000283292
0.000275437
0.000259755
0.000275436
0.000259759
0.000275437
0.000259753
0.000275434
0.000259758
0.000275388
0.000272816
0.000259793
0.00026235
0.000275401
0.000272824
0.000259808
0.000275388
0.000272815
0.000259792
0.00026235
0.0002754
0.000272823
0.000259808
0.00029638
0.00029638
0.000280817
0.000280694
0.000280694
0.000296377
0.000280695
0.000259746
0.000275437
0.000275287
0.00025975
0.00025975
0.000275439
0.000275439
0.000259746
0.000275437
0.000280749
0.000296342
0.000293763
0.000283285
0.000296329
0.000280731
0.000283293
0.0002807
0.000296374
0.000296375
0.000280699
0.000280749
0.000293763
0.000296341
0.000283285
0.000296329
0.000283293
0.000280732
0.000275436
0.000259756
0.000275436
0.000259761
0.000275389
0.000272816
0.000259794
0.000262351
0.0002754
0.000272824
0.00025981
0.000275436
0.000259757
0.000275437
0.000259762
0.000275389
0.000272816
0.000262351
0.000259795
0.000272824
0.000275401
0.00025981
0.000280701
0.000296375
0.000296375
0.000280697
0.000280749
0.000293763
0.000296342
0.000283285
0.000296329
0.000283293
0.000280731
0.000280701
0.000296375
0.000296375
0.000280698
0.000275388
0.000272815
0.000259792
0.00026235
0.000275399
0.000272823
0.000259808
0.000275437
0.000259753
0.000275434
0.000259758
0.000275388
0.000272816
0.00026235
0.000259793
0.000272824
0.0002754
0.000259808
0.000275437
0.000259754
0.000275436
0.000259759
0.000296378
0.000296378
0.000280818
0.000280696
0.000280696
0.000296375
0.000280698
0.00025975
0.000275441
0.000275289
0.000259754
0.000259753
0.000275442
0.000275442
0.000259749
0.000275441
0.00028075
0.000293763
0.000296342
0.000283285
0.000296329
0.000283293
0.000280731
0.000280702
0.000296374
0.000296375
0.000280699
0.000280702
0.000296375
0.000296374
0.000280698
0.000275389
0.000272816
0.000262351
0.000259794
0.000272824
0.000275401
0.000259809
0.000275389
0.000272816
0.00026235
0.000259793
0.000272824
0.000275401
0.000259809
0.000275437
0.000259756
0.000275437
0.00025976
0.000275437
0.000259754
0.000275436
0.00025976
0.000296377
0.000280697
0.000296377
0.000280697
0.000275288
0.000259751
0.000259751
0.000275441
0.000275441
0.000259747
0.000275439
0.000259747
0.000275439
0.000254491
0.000238812
0.000254492
0.000238812
0.000254491
0.000254492
0.00023893
0.000238819
0.000238819
0.000217881
0.000233538
0.000217881
0.000233538
0.000233393
0.000217885
0.000217885
0.000233534
0.000233534
0.000238825
0.000254483
0.000254486
0.00023882
0.00023887
0.000254446
0.000251878
0.000241393
0.000254438
0.000238858
0.000241401
0.00023887
0.000254445
0.000251878
0.000241393
0.000254437
0.000238857
0.000241401
0.000233526
0.000217883
0.00023353
0.000217897
0.000233526
0.000217883
0.000233531
0.000217897
0.000233488
0.000230921
0.000217915
0.000220465
0.000233495
0.000230931
0.000217925
0.000233488
0.000230921
0.000217915
0.000220465
0.000233494
0.000230931
0.000217925
0.000254489
0.000254489
0.000238929
0.000238819
0.000238819
0.000254491
0.000238812
0.000217881
0.000233538
0.000233393
0.000217885
0.000217885
0.000233533
0.000233533
0.000217881
0.000233539
0.000238872
0.000254447
0.000251879
0.000241393
0.00025444
0.000238859
0.000241402
0.000238827
0.000254486
0.00025449
0.000238822
0.000238872
0.000251879
0.000254448
0.000241394
0.00025444
0.000241402
0.00023886
0.000233528
0.000217882
0.000233531
0.000217896
0.000233489
0.000230921
0.000217915
0.000220465
0.000233495
0.000230931
0.000217925
0.000233528
0.000217882
0.000233531
0.000217896
0.000233489
0.000230922
0.000220465
0.000217915
0.000230932
0.000233496
0.000217925
0.000238825
0.000254483
0.000254486
0.000238821
0.00023887
0.000251878
0.000254446
0.000241393
0.000254437
0.000241401
0.000238858
0.000238825
0.000254484
0.000254486
0.00023882
0.000233488
0.000230921
0.000217915
0.000220465
0.000233494
0.000230931
0.000217925
0.000233526
0.000217883
0.000233531
0.000217897
0.000233488
0.000230921
0.000220465
0.000217915
0.000230931
0.000233495
0.000217925
0.000233526
0.000217883
0.00023353
0.000217897
0.000254492
0.000254492
0.00023893
0.00023882
0.000238819
0.000254493
0.000238812
0.00021788
0.000233539
0.000233394
0.000217885
0.000217885
0.000233534
0.000233534
0.00021788
0.000233538
0.000238871
0.000251878
0.000254446
0.000241393
0.000254438
0.000241401
0.000238858
0.000238826
0.000254486
0.000254487
0.000238821
0.000238826
0.000254484
0.000254487
0.00023882
0.000233489
0.000230922
0.000220465
0.000217915
0.000230931
0.000233495
0.000217925
0.000233488
0.000230921
0.000220465
0.000217915
0.000230931
0.000233495
0.000217925
0.000233527
0.000217882
0.000233531
0.000217897
0.000233526
0.000217883
0.000233531
0.000217897
0.000254491
0.000238811
0.000254491
0.000238811
0.000233393
0.000217885
0.000217885
0.000233533
0.000233533
0.000217881
0.000233538
0.000217881
0.000233538
0.00021261
0.000196915
0.000212608
0.000196914
0.000212608
0.000212607
0.000197068
0.000196923
0.000196922
0.000175962
0.000191707
0.000175962
0.000191706
0.000191528
0.000175991
0.000175991
0.000191696
0.000191696
0.000196902
0.000212606
0.000212601
0.000196926
0.000196964
0.000212575
0.000210009
0.00019954
0.000212575
0.000196961
0.000199547
0.000196964
0.000212575
0.000210009
0.00019954
0.000212574
0.000196962
0.000199547
0.000191723
0.000175977
0.000191692
0.000175995
0.000191723
0.000175978
0.000191692
0.000175995
0.000191653
0.000189067
0.000176035
0.000178588
0.000191654
0.000189073
0.000176063
0.000191653
0.000189067
0.000176036
0.000178588
0.000191654
0.000189073
0.000176063
0.000212608
0.000212608
0.000197068
0.000196922
0.000196923
0.000212609
0.000196914
0.000175962
0.000191707
0.000191528
0.000175991
0.000175992
0.000191698
0.000191697
0.000175961
0.000191708
0.000196964
0.000212575
0.000210009
0.00019954
0.000212574
0.00019696
0.000199547
0.000196901
0.000212606
0.000212601
0.000196926
0.000196964
0.000210009
0.000212574
0.00019954
0.000212574
0.000199547
0.000196962
0.000191723
0.000175977
0.000191691
0.000175994
0.000191653
0.000189067
0.000176035
0.000178587
0.000191654
0.000189073
0.000176063
0.000191723
0.000175978
0.000191692
0.000175994
0.000191653
0.000189067
0.000178587
0.000176036
0.000189073
0.000191654
0.000176063
0.000196903
0.000212607
0.000212601
0.000196926
0.000196965
0.000210009
0.000212575
0.00019954
0.000212574
0.000199547
0.000196961
0.000196903
0.000212607
0.000212601
0.000196926
0.000191654
0.000189067