/*--------------------------------*- C++ -*----------------------------------*\
| =========                 |                                                 |
| \\      /  F ield         | OpenFOAM: The Open Source CFD Toolbox           |
|  \\    /   O peration     | Version:  2206                                  |
|   \\  /    A nd           | Website:  www.openfoam.com                      |
|    \\/     M anipulation  |                                                 |
\*---------------------------------------------------------------------------*/
FoamFile
{
    version     2.0;
    format      ascii;
    arch        "LSB;label=32;scalar=64";
    class       volScalarField;
    location    "34.5";
    object      epsilon;
}
// * * * * * * * * * * * * * * * * * * * * * * * * * * * * * * * * * * * * * //

dimensions      [0 2 -3 0 0 0 0];

internalField   nonuniform List<scalar> 
28673
(
2.83577e-07
3.18114e-07
2.54735e-07
2.83581e-07
2.8359e-07
3.1813e-07
2.54736e-07
2.83584e-07
2.83594e-07
3.18137e-07
2.54737e-07
2.83588e-07
2.83598e-07
3.18145e-07
2.54737e-07
2.83592e-07
2.83601e-07
3.18153e-07
2.54736e-07
2.83593e-07
2.83603e-07
3.1816e-07
2.54733e-07
2.83595e-07
2.83604e-07
3.18166e-07
2.54731e-07
2.8359e-07
2.83604e-07
3.18166e-07
2.5468e-07
2.83505e-07
2.83542e-07
3.18098e-07
2.54624e-07
2.83461e-07
2.83476e-07
3.18008e-07
2.54623e-07
2.83451e-07
2.83462e-07
3.18011e-07
2.54621e-07
2.83448e-07
2.8346e-07
3.17961e-07
2.53771e-07
2.79562e-07
2.79565e-07
3.1193e-07
2.83607e-07
3.17831e-07
2.83577e-07
3.17853e-07
2.836e-07
2.83607e-07
2.836e-07
2.83607e-07
3.1811e-07
3.17843e-07
2.83585e-07
2.83613e-07
2.83604e-07
2.8358e-07
2.83604e-07
3.17857e-07
2.83586e-07
2.8359e-07
2.83586e-07
3.17858e-07
3.18127e-07
3.1786e-07
2.83603e-07
2.8361e-07
2.83604e-07
2.83611e-07
3.18119e-07
3.1785e-07
2.83588e-07
2.83616e-07
2.83588e-07
2.83616e-07
2.83607e-07
2.83584e-07
2.83607e-07
3.18132e-07
3.17863e-07
2.83589e-07
2.83594e-07
2.83589e-07
3.17864e-07
3.18136e-07
3.17867e-07
2.83607e-07
2.83614e-07
2.83608e-07
2.83615e-07
3.18125e-07
3.17858e-07
2.83591e-07
2.83619e-07
2.83592e-07
2.8362e-07
2.8361e-07
2.83588e-07
2.8361e-07
3.18138e-07
3.17871e-07
2.83592e-07
2.83597e-07
2.83592e-07
3.17872e-07
3.18142e-07
3.17875e-07
2.83612e-07
2.83618e-07
2.83613e-07
2.8362e-07
3.18133e-07
3.17866e-07
2.83595e-07
2.83623e-07
2.83596e-07
2.83624e-07
2.83613e-07
2.83592e-07
2.83614e-07
3.18145e-07
3.17879e-07
2.83596e-07
2.83601e-07
2.83597e-07
3.1788e-07
3.1815e-07
3.17883e-07
2.83616e-07
2.83623e-07
2.83616e-07
2.83623e-07
3.18141e-07
3.17874e-07
2.83599e-07
2.83627e-07
2.83599e-07
2.83627e-07
2.83617e-07
2.83593e-07
2.83617e-07
3.18153e-07
3.17887e-07
2.83599e-07
2.83603e-07
2.836e-07
3.17887e-07
3.18158e-07
3.1789e-07
2.83619e-07
2.83625e-07
2.83618e-07
2.83623e-07
3.18149e-07
3.1788e-07
2.83602e-07
2.8363e-07
2.836e-07
2.83628e-07
2.8362e-07
2.83595e-07
2.83618e-07
3.18161e-07
3.17894e-07
2.83602e-07
2.83603e-07
2.836e-07
3.17894e-07
3.18164e-07
3.17894e-07
2.83619e-07
2.83625e-07
2.83618e-07
2.83622e-07
3.18155e-07
3.17879e-07
2.83602e-07
2.83629e-07
2.83601e-07
2.83628e-07
2.83619e-07
2.83594e-07
2.83618e-07
3.18167e-07
3.17897e-07
2.83602e-07
2.83605e-07
2.836e-07
3.17896e-07
3.18167e-07
3.17849e-07
2.83617e-07
2.83619e-07
2.83568e-07
2.83555e-07
3.18151e-07
3.17803e-07
2.83601e-07
2.83628e-07
2.83565e-07
2.83598e-07
2.83616e-07
2.83526e-07
2.83563e-07
3.18169e-07
3.17865e-07
2.83598e-07
2.83565e-07
2.83546e-07
3.17842e-07
3.18108e-07
3.17739e-07
2.83547e-07
2.83536e-07
2.83489e-07
2.83491e-07
3.18062e-07
3.17719e-07
2.83544e-07
2.83576e-07
2.83477e-07
2.83508e-07
2.83543e-07
2.83462e-07
2.83491e-07
3.18125e-07
3.17751e-07
2.83525e-07
2.8348e-07
2.83473e-07
3.1774e-07
3.18006e-07
3.17732e-07
2.83487e-07
2.83491e-07
2.83474e-07
2.8348e-07
3.17992e-07
3.17726e-07
2.83473e-07
2.83503e-07
2.83457e-07
2.83486e-07
2.8349e-07
2.83451e-07
2.83477e-07
3.18016e-07
3.17736e-07
2.83472e-07
2.83462e-07
2.83459e-07
3.17742e-07
3.18005e-07
3.17689e-07
2.83476e-07
2.83481e-07
2.83421e-07
2.83424e-07
3.17998e-07
3.17678e-07
2.8346e-07
2.83488e-07
2.83403e-07
2.83431e-07
2.83479e-07
2.83395e-07
2.83424e-07
3.1801e-07
3.17695e-07
2.83461e-07
2.83406e-07
2.83403e-07
3.17695e-07
3.17958e-07
3.15143e-07
2.83475e-07
2.83478e-07
2.80971e-07
2.80974e-07
3.17948e-07
3.15138e-07
2.83457e-07
2.83486e-07
2.80958e-07
2.80974e-07
2.83479e-07
2.80954e-07
2.80973e-07
3.17962e-07
3.15145e-07
2.83457e-07
2.80959e-07
2.80956e-07
3.15144e-07
3.11929e-07
2.79575e-07
2.79577e-07
3.11926e-07
2.79565e-07
2.79578e-07
2.53772e-07
2.53772e-07
2.53772e-07
2.79576e-07
3.11931e-07
2.79564e-07
1.80491e-06
8.87581e-06
1.80539e-06
8.87531e-06
2.13301e-05
2.13294e-05
1.80475e-06
8.8767e-06
2.54737e-07
2.54737e-07
2.54735e-07
2.54736e-07
2.54739e-07
2.54736e-07
5.41923e-07
1.4448e-06
2.64769e-07
2.83579e-07
5.42087e-07
1.444e-06
2.64769e-07
2.13303e-05
5.41944e-07
2.64771e-07
2.8359e-07
5.4211e-07
2.64771e-07
1.44388e-06
3.21227e-06
3.21321e-06
3.17853e-07
3.21175e-06
3.2127e-06
1.80509e-06
8.87545e-06
1.80564e-06
8.87504e-06
2.1328e-05
2.13278e-05
1.80497e-06
8.8769e-06
1.80546e-06
8.87646e-06
2.54736e-07
2.5474e-07
2.54736e-07
2.54736e-07
2.54735e-07
2.54739e-07
2.54735e-07
5.4196e-07
1.44497e-06
2.64768e-07
2.83584e-07
5.42119e-07
1.44414e-06
2.64771e-07
2.1329e-05
2.13284e-05
5.41979e-07
2.6477e-07
1.44485e-06
2.83593e-07
5.42139e-07
2.64772e-07
1.44406e-06
3.21252e-06
3.21344e-06
3.17861e-07
3.21204e-06
3.21296e-06
1.80518e-06
8.87536e-06
1.80575e-06
8.875e-06
2.13273e-05
2.13274e-05
1.80509e-06
8.87678e-06
1.8056e-06
8.87641e-06
2.54737e-07
2.54741e-07
2.54738e-07
2.54737e-07
2.54737e-07
2.54739e-07
2.54737e-07
5.41993e-07
1.44506e-06
2.6477e-07
2.83587e-07
5.42154e-07
1.44421e-06
2.64773e-07
2.13277e-05
2.13276e-05
5.42011e-07
2.64772e-07
1.44498e-06
2.83597e-07
5.42173e-07
2.64774e-07
1.44418e-06
3.21274e-06
3.21365e-06
3.17868e-07
3.21219e-06
3.21312e-06
1.80521e-06
8.87532e-06
1.8058e-06
8.87498e-06
2.13273e-05
2.13275e-05
1.80513e-06
8.87675e-06
1.80567e-06
8.87638e-06
2.54739e-07
2.5474e-07
2.54738e-07
2.54738e-07
2.54738e-07
2.5474e-07
2.54736e-07
5.42015e-07
1.4451e-06
2.64773e-07
2.83591e-07
5.4218e-07
1.44424e-06
2.64775e-07
2.13273e-05
2.13273e-05
5.42033e-07
2.64774e-07
1.44505e-06
2.83601e-07
5.42199e-07
2.64776e-07
1.44422e-06
3.21279e-06
3.21371e-06
3.17876e-07
3.21222e-06
3.21315e-06
1.80522e-06
8.87532e-06
1.80583e-06
8.87506e-06
2.13275e-05
2.1328e-05
1.80513e-06
8.87675e-06
1.80569e-06
8.87649e-06
2.54737e-07
2.54741e-07
2.54738e-07
2.54736e-07
2.54735e-07
2.54741e-07
2.54737e-07
5.42025e-07
1.44511e-06
2.64774e-07
2.83595e-07
5.42195e-07
1.44424e-06
2.64776e-07
2.13273e-05
2.13277e-05
5.42043e-07
2.64775e-07
1.44506e-06
2.83604e-07
5.42214e-07
2.64778e-07
1.44422e-06
3.21283e-06
3.21375e-06
3.17884e-07
3.21228e-06
3.21321e-06
1.80521e-06
8.87539e-06
1.80582e-06
8.87552e-06
2.13282e-05
2.13302e-05
1.80512e-06
8.87685e-06
1.80568e-06
8.87698e-06
2.54735e-07
2.54741e-07
2.54737e-07
2.54734e-07
2.54733e-07
2.54737e-07
2.54733e-07
5.42031e-07
1.44501e-06
2.64773e-07
2.83595e-07
5.42199e-07
1.44407e-06
2.64774e-07
2.13279e-05
2.13299e-05
5.42049e-07
2.64775e-07
1.44495e-06
2.83604e-07
5.42218e-07
2.64775e-07
1.44406e-06
3.21271e-06
3.21364e-06
3.17891e-07
3.21208e-06
3.21302e-06
1.80511e-06
8.87575e-06
1.80575e-06
8.87624e-06
2.13292e-05
2.13325e-05
1.80502e-06
8.87724e-06
1.80561e-06
8.8777e-06
2.54733e-07
2.54737e-07
2.54733e-07
2.54732e-07
2.54731e-07
2.54734e-07
2.54731e-07
5.4202e-07
1.44494e-06
2.64772e-07
2.83597e-07
5.42204e-07
1.44397e-06
2.64773e-07
2.13291e-05
2.13328e-05
5.42037e-07
2.64773e-07
1.44486e-06
2.83606e-07
5.42222e-07
2.64774e-07
1.44389e-06
3.21238e-06
3.21331e-06
3.17896e-07
3.21166e-06
3.2126e-06
1.80576e-06
8.87577e-06
1.80648e-06
8.87701e-06
2.13281e-05
2.13333e-05
1.80567e-06
8.87724e-06
1.80626e-06
8.87853e-06
2.54729e-07
2.54733e-07
2.5473e-07
2.54704e-07
2.54684e-07
2.54711e-07
2.54692e-07
5.42023e-07
1.44503e-06
2.64768e-07
2.83577e-07
5.42224e-07
1.44381e-06
2.64763e-07
2.13289e-05
2.13343e-05
5.42038e-07
2.6477e-07
1.44492e-06
2.836e-07
5.4224e-07
2.64767e-07
1.44379e-06
3.21252e-06
3.21345e-06
3.17883e-07
3.21175e-06
3.21267e-06
1.80557e-06
8.87589e-06
1.80634e-06
8.87845e-06
2.13254e-05
2.13322e-05
1.80555e-06
8.87749e-06
1.80627e-06
8.88006e-06
2.54662e-07
2.54688e-07
2.54669e-07
2.54629e-07
2.54624e-07
2.54633e-07
2.54627e-07
5.41882e-07
1.4444e-06
2.647e-07
2.83484e-07
5.42123e-07
1.44289e-06
2.64681e-07
2.13269e-05
2.13338e-05
5.41889e-07
2.64712e-07
1.44441e-06
2.83515e-07
5.42136e-07
2.6469e-07
1.44293e-06
3.21266e-06
3.21355e-06
3.17778e-07
3.213e-06
3.21389e-06
1.80594e-06
8.87613e-06
1.80646e-06
8.88035e-06
2.13173e-05
2.13266e-05
1.80585e-06
8.87774e-06
1.80634e-06
8.88203e-06
2.54625e-07
2.5463e-07
2.54627e-07
2.54622e-07
2.54621e-07
2.54625e-07
2.54623e-07
5.41817e-07
1.44359e-06
2.64657e-07
2.83457e-07
5.42047e-07
1.4422e-06
2.64658e-07
2.13193e-05
2.13286e-05
5.41816e-07
2.6466e-07
1.44364e-06
2.83467e-07
5.42048e-07
2.6466e-07
1.44236e-06
3.2146e-06
3.21547e-06
3.17737e-07
3.21668e-06
3.21754e-06
1.80717e-06
8.87327e-06
1.80731e-06
8.88005e-06
2.13007e-05
2.13127e-05
1.80706e-06
8.87488e-06
1.80714e-06
8.88165e-06
2.54623e-07
2.54626e-07
2.54625e-07
2.5461e-07
2.5461e-07
2.54614e-07
2.54612e-07
5.41786e-07
1.44467e-06
2.64655e-07
2.8344e-07
5.42069e-07
1.44345e-06
2.64656e-07
2.13031e-05
2.13148e-05
5.41789e-07
2.64657e-07
1.44488e-06
2.83451e-07
5.42069e-07
2.64659e-07
1.44369e-06
3.21822e-06
3.21903e-06
3.17736e-07
3.22307e-06
3.22388e-06
1.80562e-06
8.86434e-06
1.80848e-06
8.87175e-06
2.12638e-05
2.12673e-05
1.80569e-06
8.86598e-06
1.80836e-06
8.87322e-06
2.54623e-07
2.54626e-07
2.54625e-07
2.54381e-07
2.54382e-07
2.54384e-07
2.54382e-07
5.40679e-07
1.44784e-06
2.64598e-07
2.83138e-07
5.41963e-07
1.44141e-06
2.64664e-07
2.12658e-05
2.1269e-05
5.40678e-07
2.64601e-07
1.44802e-06
2.83147e-07
5.41966e-07
2.64665e-07
1.44151e-06
3.2242e-06
3.22501e-06
3.1729e-07
3.23428e-06
3.23494e-06
1.31897e-06
7.85841e-06
1.77565e-06
3.92833e-06
1.74612e-05
7.59011e-06
1.31902e-06
7.86032e-06
1.77581e-06
3.92958e-06
2.46608e-07
2.48886e-07
2.48884e-07
2.55944e-07
2.46686e-07
2.49446e-07
2.49445e-07
5.1037e-07
1.37e-06
2.62979e-07
2.76673e-07
5.29849e-07
1.39081e-06
2.60453e-07
1.7462e-05
7.5899e-06
5.10377e-07
2.6298e-07
1.36999e-06
2.76675e-07
5.29845e-07
2.60453e-07
1.39072e-06
3.18494e-06
3.18584e-06
3.04541e-07
2.77612e-06
2.77634e-06
8.87631e-06
1.44403e-06
2.13306e-05
3.21236e-06
3.21125e-06
2.13278e-05
1.4439e-06
8.8758e-06
2.133e-05
2.13292e-05
2.13309e-05
3.21221e-06
3.17851e-07
3.2117e-06
3.21249e-06
2.1328e-05
2.13288e-05
2.13296e-05
2.13305e-05
3.18128e-07
3.21182e-06
3.21264e-06
3.21226e-06
3.21306e-06
1.80494e-06
8.87663e-06
1.80542e-06
8.87613e-06
5.41919e-07
1.44464e-06
2.64768e-07
2.836e-07
5.42084e-07
1.4439e-06
2.64768e-07
5.41923e-07
1.4449e-06
2.64771e-07
2.83607e-07
5.42089e-07
1.44413e-06
2.64771e-07
1.80554e-06
8.87514e-06
8.87561e-06
1.80502e-06
1.80556e-06
8.87599e-06
8.87644e-06
1.80504e-06
5.421e-07
2.836e-07
1.44398e-06
2.64767e-07
1.44475e-06
2.64767e-07
5.41937e-07
5.42105e-07
2.83607e-07
1.44421e-06
2.6477e-07
1.44499e-06
2.6477e-07
5.41941e-07
3.21298e-06
3.21197e-06
3.17842e-07
3.21259e-06
3.21156e-06
2.13276e-05
2.13267e-05
2.13283e-05
2.13289e-05
3.18118e-07
3.21278e-06
3.21176e-06
3.21319e-06
3.21224e-06
2.13258e-05
2.13265e-05
5.41943e-07
2.83585e-07
1.44421e-06
2.64771e-07
1.80473e-06
8.87637e-06
5.41929e-07
2.83613e-07
2.64774e-07
1.44419e-06
1.80533e-06
8.87657e-06
8.87703e-06
1.80488e-06
5.4212e-07
2.83585e-07
1.44428e-06
2.64771e-07
1.44505e-06
2.64771e-07
5.4196e-07
1.80531e-06
8.87617e-06
8.87669e-06
1.80487e-06
5.42109e-07
2.83613e-07
2.64773e-07
1.4443e-06
2.64773e-07
1.44509e-06
5.41947e-07
1.80495e-06
8.87614e-06
1.80543e-06
8.87562e-06
5.41929e-07
2.6477e-07
1.44471e-06
2.83604e-07
5.42091e-07
2.6477e-07
1.44396e-06
1.80494e-06
8.87684e-06
1.80543e-06
8.87634e-06
5.42103e-07
2.8358e-07
1.44408e-06
2.64768e-07
1.44489e-06
2.64768e-07
5.41942e-07
1.80557e-06
8.87548e-06
8.87596e-06
1.80506e-06
5.42107e-07
2.83603e-07
2.64769e-07
1.44404e-06
2.64769e-07
1.44481e-06
5.41946e-07
1.80557e-06
8.87616e-06
8.87664e-06
1.80505e-06
3.17849e-07
3.21224e-06
3.21164e-06
2.13307e-05
2.13292e-05
2.13302e-05
3.18127e-07
3.21257e-06
3.2118e-06
3.21297e-06
3.21222e-06
2.13294e-05
2.13303e-05
5.41946e-07
2.64771e-07
1.44488e-06
2.83586e-07
5.42112e-07
2.64771e-07
1.44412e-06
1.80514e-06
1.80568e-06
8.87646e-06
1.80513e-06
8.87754e-06
1.80568e-06
8.87704e-06
5.42125e-07
2.8359e-07
2.6477e-07
1.44399e-06
2.6477e-07
1.44474e-06
5.41961e-07
5.42126e-07
2.83586e-07
2.6477e-07
1.4442e-06
2.6477e-07
1.44498e-06
5.41963e-07
1.80581e-06
8.8763e-06
8.87677e-06
1.80524e-06
1.80581e-06
8.87687e-06
8.87734e-06
1.80523e-06
2.1331e-05
2.13302e-05
2.13315e-05
2.13307e-05
3.18129e-07
3.2119e-06
3.21284e-06
3.21233e-06
3.21327e-06
2.1329e-05
2.13297e-05
2.13295e-05
2.13302e-05
2.13277e-05
2.13273e-05
2.13292e-05
2.13287e-05
3.21238e-06
3.21321e-06
3.17855e-07
3.21194e-06
3.21278e-06
2.13269e-05
2.13271e-05
2.13281e-05
2.13284e-05
3.1813e-07
3.21204e-06
3.2129e-06
3.21249e-06
3.21335e-06
1.80512e-06
8.87631e-06
1.80566e-06
8.87591e-06
5.41955e-07
1.44482e-06
2.6477e-07
2.83603e-07
5.42118e-07
1.44404e-06
2.6477e-07
5.4196e-07
1.44506e-06
2.64772e-07
2.8361e-07
5.42123e-07
1.44427e-06
2.64772e-07
1.8057e-06
8.87501e-06
8.87538e-06
1.80514e-06
1.80572e-06
8.87586e-06
8.87625e-06
1.80517e-06
5.42136e-07
2.83603e-07
1.4441e-06
2.64769e-07
1.44488e-06
2.64769e-07
5.41972e-07
5.42141e-07
2.8361e-07
1.44431e-06
2.64772e-07
1.44512e-06
2.64771e-07
5.41977e-07
3.21336e-06
3.21242e-06
3.17848e-07
3.21291e-06
3.21189e-06
2.13258e-05
2.13253e-05
2.13274e-05
2.13277e-05
3.18123e-07
3.21299e-06
3.21196e-06
3.21348e-06
3.21253e-06
2.1325e-05
2.13253e-05
5.41978e-07
1.44511e-06
2.64773e-07
2.83588e-07
5.42138e-07
1.44433e-06
2.64773e-07
1.80496e-06
8.8765e-06
1.80543e-06
8.87603e-06
5.41965e-07
2.64775e-07
1.44519e-06
2.83616e-07
5.42127e-07
2.64775e-07
1.44437e-06
1.80553e-06
8.87642e-06
8.87681e-06
1.80504e-06
5.42155e-07
2.83588e-07
1.44438e-06
2.64772e-07
1.44517e-06
2.64771e-07
5.41996e-07
1.80552e-06
8.87596e-06
8.87638e-06
1.80503e-06
5.42144e-07
2.83616e-07
2.64774e-07
1.44443e-06
2.64774e-07
1.44526e-06
5.41982e-07
1.80513e-06
8.87583e-06
1.80567e-06
8.8754e-06
5.41965e-07
2.64772e-07
1.44489e-06
2.83607e-07
5.42126e-07
2.64772e-07
1.44411e-06
1.80512e-06
8.87648e-06
1.80566e-06
8.87605e-06
5.42141e-07
2.83584e-07
1.44418e-06
2.6477e-07
1.44501e-06
2.6477e-07
5.41978e-07
1.80574e-06
8.87535e-06
8.87577e-06
1.80518e-06
5.42144e-07
2.83606e-07
2.64771e-07
1.44416e-06
2.64771e-07
1.44495e-06
5.41982e-07
1.80573e-06
8.876e-06
8.87639e-06
1.80518e-06
3.21325e-06
3.21237e-06
3.17861e-07
3.21277e-06
3.21194e-06
2.1329e-05
2.13284e-05
2.13279e-05
2.13283e-05
3.18136e-07
3.2129e-06
3.21206e-06
3.21343e-06
3.21251e-06
2.13278e-05
2.13282e-05
5.4198e-07
2.64772e-07
1.44506e-06
2.83589e-07
5.42143e-07
2.64772e-07
1.44427e-06
1.80531e-06
8.87662e-06
1.80591e-06
8.87618e-06
1.80531e-06
8.87718e-06
1.8059e-06
8.87677e-06
5.4216e-07
2.83593e-07
2.64772e-07
1.44413e-06
2.64772e-07
1.44491e-06
5.41996e-07
5.4216e-07
2.83588e-07
2.64771e-07
1.44432e-06
2.64771e-07
1.44512e-06
5.41997e-07
1.80598e-06
8.87613e-06
8.87651e-06
1.80537e-06
1.80597e-06
8.87674e-06
8.87711e-06
1.80536e-06
2.13286e-05
2.13282e-05
2.13291e-05
2.13287e-05
3.18136e-07
3.21214e-06
3.21306e-06
3.21261e-06
3.21353e-06
2.13278e-05
2.13281e-05
2.13283e-05
2.13286e-05
2.13268e-05
2.13267e-05
2.1328e-05
2.13278e-05
3.21258e-06
3.21346e-06
3.17866e-07
3.21209e-06
3.21298e-06
2.13266e-05
2.13267e-05
2.13277e-05
2.13278e-05
3.1814e-07
3.21211e-06
3.21301e-06
3.21263e-06
3.21353e-06
1.8052e-06
8.8762e-06
1.80577e-06
8.87581e-06
5.41987e-07
1.44493e-06
2.64772e-07
2.83607e-07
5.42153e-07
1.44413e-06
2.64772e-07
5.41991e-07
1.44516e-06
2.64774e-07
2.83614e-07
5.42158e-07
1.44434e-06
2.64774e-07
1.80578e-06
8.87498e-06
8.87534e-06
1.8052e-06
1.8058e-06
8.87578e-06
8.87616e-06
1.80522e-06
5.42167e-07
2.83608e-07
1.44415e-06
2.64772e-07
1.44496e-06
2.64771e-07
5.42e-07
5.42172e-07
2.83615e-07
1.44435e-06
2.64774e-07
1.44518e-06
2.64773e-07
5.42004e-07
3.21355e-06
3.21259e-06
3.17855e-07
3.21304e-06
3.21202e-06
2.1325e-05
2.13248e-05
2.13274e-05
2.13274e-05
3.1813e-07
3.21307e-06
3.21206e-06
3.21359e-06
3.21264e-06
2.13247e-05
2.13248e-05
5.42011e-07
1.44521e-06
2.64774e-07
2.83591e-07
5.42173e-07
1.44442e-06
2.64774e-07
1.80507e-06
8.87633e-06
1.80558e-06
8.87593e-06
5.41998e-07
2.64777e-07
1.44532e-06
2.83619e-07
5.42161e-07
2.64777e-07
1.44448e-06
1.80563e-06
8.87639e-06
8.87678e-06
1.80512e-06
5.42187e-07
2.83592e-07
1.44445e-06
2.64773e-07
1.44525e-06
2.64773e-07
5.42025e-07
1.80562e-06
8.87591e-06
8.87631e-06
1.8051e-06
5.42176e-07
2.83619e-07
2.64776e-07
1.44451e-06
2.64776e-07
1.44536e-06
5.42011e-07
1.80522e-06
8.87572e-06
1.80579e-06
8.8753e-06
5.41997e-07
2.64774e-07
1.445e-06
2.8361e-07
5.42161e-07
2.64774e-07
1.44419e-06
1.80521e-06
8.87635e-06
1.80578e-06
8.87597e-06
5.42172e-07
2.83587e-07
1.44422e-06
2.64773e-07
1.44508e-06
2.64773e-07
5.42005e-07
1.80582e-06
8.87526e-06
8.87567e-06
1.80524e-06
5.42175e-07
2.8361e-07
2.64773e-07
1.44421e-06
2.64773e-07
1.44503e-06
5.42009e-07
1.80581e-06
8.87593e-06
8.87631e-06
1.80523e-06
3.21355e-06
3.21262e-06
3.17868e-07
3.21298e-06
3.21214e-06
2.13277e-05
2.13276e-05
2.13273e-05
2.13275e-05
3.18143e-07
3.21302e-06
3.21218e-06
3.21361e-06
3.21269e-06
2.13274e-05
2.13276e-05
5.42012e-07
2.64774e-07
1.44517e-06
2.83592e-07
5.42177e-07
2.64774e-07
1.44436e-06
1.8054e-06
8.87648e-06
1.80602e-06
8.87612e-06
1.80539e-06
8.87709e-06
1.80601e-06
8.87672e-06
5.4219e-07
2.83597e-07
2.64774e-07
1.4442e-06
2.64774e-07
1.44501e-06
5.42023e-07
5.42191e-07
2.83592e-07
2.64773e-07
1.44438e-06
2.64773e-07
1.4452e-06
5.42024e-07
1.80605e-06
8.8761e-06
8.87647e-06
1.80542e-06
1.80604e-06
8.87668e-06
8.87706e-06
1.80541e-06
2.13278e-05
2.13276e-05
2.13283e-05
2.13282e-05
3.18143e-07
3.21221e-06
3.21314e-06
3.21274e-06
3.21366e-06
2.13276e-05
2.13276e-05
2.13281e-05
2.13281e-05
2.13266e-05
2.13267e-05
2.13276e-05
2.13277e-05
3.21264e-06
3.21355e-06
3.17872e-07
3.21213e-06
3.21302e-06
2.13269e-05
2.13267e-05
2.13278e-05
2.13277e-05
3.18147e-07
3.21216e-06
3.21304e-06
3.21266e-06
3.21355e-06
1.80524e-06
8.87614e-06
1.80582e-06
8.87579e-06
5.42011e-07
1.44498e-06
2.64775e-07
2.83612e-07
5.4218e-07
1.44416e-06
2.64775e-07
5.42015e-07
1.44519e-06
2.64776e-07
2.83618e-07
5.42184e-07
1.44436e-06
2.64776e-07
1.80581e-06
8.875e-06
8.87533e-06
1.80522e-06
1.80583e-06
8.87583e-06
8.87614e-06
1.80524e-06
5.42191e-07
2.83612e-07
1.44417e-06
2.64774e-07
1.44499e-06
2.64774e-07
5.42021e-07
5.42194e-07
2.83619e-07
1.44437e-06
2.64776e-07
1.4452e-06
2.64776e-07
5.42024e-07
3.21362e-06
3.21268e-06
3.17863e-07
3.2131e-06
3.2121e-06
2.13247e-05
2.13248e-05
2.13277e-05
2.13275e-05
3.18139e-07
3.21313e-06
3.21214e-06
3.21365e-06
3.21272e-06
2.1325e-05
2.13248e-05
5.42037e-07
1.44527e-06
2.64776e-07
2.83595e-07
5.42201e-07
1.44446e-06
2.64776e-07
1.80512e-06
8.87628e-06
1.80565e-06
8.87588e-06
5.42023e-07
2.64779e-07
1.44538e-06
2.83623e-07
5.4219e-07
2.64779e-07
1.44453e-06
1.80567e-06
8.8764e-06
8.87675e-06
1.80514e-06
5.42212e-07
2.83596e-07
1.44446e-06
2.64775e-07
1.44528e-06
2.64775e-07
5.42046e-07
1.80566e-06
8.87589e-06
8.87625e-06
1.80512e-06
5.42201e-07
2.83624e-07
2.64778e-07
1.44454e-06
2.64778e-07
1.4454e-06
5.42032e-07
1.80525e-06
8.87564e-06
1.80583e-06
8.87527e-06
5.4202e-07
2.64776e-07
1.44504e-06
2.83613e-07
5.42187e-07
2.64776e-07
1.44422e-06
1.80524e-06
8.87628e-06
1.80583e-06
8.87592e-06
5.42192e-07
2.83591e-07
1.44425e-06
2.64774e-07
1.4451e-06
2.64775e-07
5.42022e-07
1.80584e-06
8.87531e-06
8.87565e-06
1.80525e-06
5.42197e-07
2.83614e-07
2.64775e-07
1.44422e-06
2.64775e-07
1.44505e-06
5.42028e-07
1.80584e-06
8.87594e-06
8.87627e-06
1.80525e-06
3.21365e-06
3.21272e-06
3.17876e-07
3.21307e-06
3.21219e-06
2.13274e-05
2.13274e-05
2.13273e-05
2.13273e-05
3.1815e-07
3.21312e-06
3.21221e-06
3.2137e-06
3.21273e-06
2.13275e-05
2.13274e-05
5.42035e-07
2.64776e-07
1.44522e-06
2.83596e-07
5.42203e-07
2.64776e-07
1.44439e-06
1.80543e-06
8.87645e-06
1.80607e-06
8.87608e-06
1.80542e-06
8.87702e-06
1.80606e-06
8.87666e-06
5.42211e-07
2.83601e-07
2.64775e-07
1.44423e-06
2.64776e-07
1.44505e-06
5.4204e-07
5.42212e-07
2.83596e-07
2.64775e-07
1.44439e-06
2.64775e-07
1.44522e-06
5.42042e-07
1.80608e-06
8.87609e-06
8.87643e-06
1.80543e-06
1.80607e-06
8.87667e-06
8.877e-06
1.80542e-06
2.13275e-05
2.13276e-05
2.13281e-05
2.13281e-05
3.18151e-07
3.21225e-06
3.21318e-06
3.21277e-06
3.21369e-06
2.13278e-05
2.13276e-05
2.13283e-05
2.13281e-05
2.13269e-05
2.13272e-05
2.13278e-05
2.13281e-05
3.21269e-06
3.21357e-06
3.1788e-07
3.2122e-06
3.21306e-06
2.13279e-05
2.13271e-05
2.13288e-05
2.1328e-05
3.18155e-07
3.21217e-06
3.21304e-06
3.21269e-06
3.21357e-06
1.80523e-06
8.87617e-06
1.80583e-06
8.87592e-06
5.42026e-07
1.44499e-06
2.64777e-07
2.83616e-07
5.42199e-07
1.44416e-06
2.64777e-07
5.42029e-07
1.4452e-06
2.64779e-07
2.83623e-07
5.42202e-07
1.44436e-06
2.64779e-07
1.80582e-06
8.87523e-06
8.87533e-06
1.80523e-06
1.80583e-06
8.87613e-06
8.8762e-06
1.80525e-06
5.42204e-07
2.83616e-07
1.44412e-06
2.64775e-07
1.44496e-06
2.64776e-07
5.42032e-07
5.42206e-07
2.83622e-07
1.44431e-06
2.64776e-07
1.44517e-06
2.64778e-07
5.42034e-07
3.21368e-06
3.21276e-06
3.17871e-07
3.21315e-06
3.21217e-06
2.13251e-05
2.13255e-05
2.13287e-05
2.1328e-05
3.18147e-07
3.21311e-06
3.21214e-06
3.21367e-06
3.21276e-06
2.13262e-05
2.13254e-05
5.42051e-07
1.44528e-06
2.64777e-07
2.83599e-07
5.42221e-07
1.44446e-06
2.64778e-07
1.80512e-06
8.87624e-06
1.80566e-06
8.87595e-06
5.42038e-07
2.64781e-07
1.4454e-06
2.83627e-07
5.42209e-07
2.64781e-07
1.44453e-06
1.80568e-06
8.87668e-06
8.87678e-06
1.80514e-06
5.42224e-07
2.83599e-07
1.44441e-06
2.64777e-07
1.44525e-06
2.64776e-07
5.42055e-07
1.80567e-06
8.87612e-06
8.87624e-06
1.80512e-06
5.42214e-07
2.83627e-07
2.6478e-07
1.44448e-06
2.6478e-07
1.44538e-06
5.42043e-07
1.80525e-06
8.87568e-06
1.80585e-06
8.87541e-06
5.42032e-07
2.64778e-07
1.44505e-06
2.83617e-07
5.42204e-07
2.64778e-07
1.44422e-06
1.80524e-06
8.87628e-06
1.80584e-06
8.87603e-06
5.42201e-07
2.83595e-07
1.44419e-06
2.64775e-07
1.44507e-06
2.64776e-07
5.4203e-07
1.80585e-06
8.87561e-06
8.87571e-06
1.80526e-06
5.42207e-07
2.83617e-07
2.64776e-07
1.44417e-06
2.64777e-07
1.44502e-06
5.42037e-07
1.80584e-06
8.87622e-06
8.8763e-06
1.80525e-06
3.21374e-06
3.21275e-06
3.17884e-07
3.21315e-06
3.21224e-06
2.13275e-05
2.13278e-05
2.13285e-05
2.13277e-05
3.18159e-07
3.21311e-06
3.21222e-06
3.21374e-06
3.21275e-06
2.13286e-05
2.13278e-05
5.42046e-07
2.64778e-07
1.44522e-06
2.83599e-07
5.42219e-07
2.64778e-07
1.44438e-06
1.80543e-06
8.87643e-06
1.80609e-06
8.87616e-06
1.80542e-06
8.877e-06
1.80608e-06
8.87674e-06
5.4222e-07
2.83604e-07
2.64776e-07
1.44417e-06
2.64777e-07
1.44502e-06
5.42048e-07
5.42222e-07
2.83599e-07
2.64776e-07
1.44434e-06
2.64777e-07
1.44519e-06
5.42051e-07
1.80609e-06
8.87635e-06
8.87644e-06
1.80545e-06
1.80608e-06
8.87694e-06
8.87701e-06
1.80543e-06
2.13278e-05
2.13281e-05
2.13283e-05
2.13286e-05
3.18159e-07
3.21225e-06
3.21318e-06
3.21279e-06
3.21372e-06
2.13288e-05
2.1328e-05
2.13293e-05
2.13285e-05
2.13275e-05
2.13293e-05
2.13283e-05
2.13302e-05
3.21259e-06
3.21346e-06
3.17887e-07
3.21201e-06
3.21289e-06
2.13311e-05
2.1328e-05
2.13318e-05
2.13288e-05
3.18163e-07
3.21171e-06
3.21262e-06
3.21237e-06
3.21327e-06
1.80522e-06
8.8763e-06
1.80583e-06
8.87645e-06
5.42033e-07
1.44489e-06
2.64776e-07
2.83619e-07
5.42206e-07
1.444e-06
2.64776e-07
5.42036e-07
1.44509e-06
2.64777e-07
2.83625e-07
5.42209e-07
1.44419e-06
2.64776e-07
1.80573e-06
8.87589e-06
8.87558e-06
1.80512e-06
1.80575e-06
8.87693e-06
8.87653e-06
1.80515e-06
5.42203e-07
2.83618e-07
1.44388e-06
2.64773e-07
1.4448e-06
2.64774e-07
5.42024e-07
5.42207e-07
2.83624e-07
1.44409e-06
2.64773e-07
1.445e-06
2.64774e-07
5.42029e-07
3.21354e-06
3.21264e-06
3.17878e-07
3.21292e-06
3.21194e-06
2.13258e-05
2.13277e-05
2.13319e-05
2.13289e-05
3.18154e-07
3.21264e-06
3.21167e-06
3.2133e-06
3.2124e-06
2.13294e-05
2.13265e-05
5.42058e-07
1.44518e-06
2.64779e-07
2.83602e-07
5.42226e-07
1.4443e-06
2.64779e-07
1.80511e-06
8.87632e-06
1.80566e-06
8.87641e-06
5.42046e-07
2.64781e-07
1.4453e-06
2.8363e-07
5.42216e-07
2.64781e-07
1.44437e-06
1.80558e-06
8.87737e-06
8.87709e-06
1.80502e-06
5.42223e-07
2.836e-07
1.44418e-06
2.64775e-07
1.44509e-06
2.64776e-07
5.42052e-07
1.80557e-06
8.8768e-06
8.87656e-06
1.80501e-06
5.42214e-07
2.83629e-07
2.64778e-07
1.44425e-06
2.64779e-07
1.44522e-06
5.4204e-07
1.80523e-06
8.87582e-06
1.80585e-06
8.8759e-06
5.42039e-07
2.64777e-07
1.44495e-06
2.8362e-07
5.42209e-07
2.64776e-07
1.44406e-06
1.80523e-06
8.87639e-06
1.80584e-06
8.87652e-06
5.422e-07
2.83595e-07
1.44396e-06
2.64772e-07
1.44491e-06
2.64773e-07
5.42026e-07
1.80576e-06
8.87643e-06
8.87607e-06
1.80516e-06
5.42207e-07
2.83618e-07
2.64773e-07
1.44394e-06
2.64775e-07
1.44486e-06
5.42032e-07
1.80576e-06
8.87691e-06
8.87659e-06
1.80515e-06
3.21362e-06
3.21264e-06
3.17891e-07
3.21294e-06
3.21207e-06
2.13281e-05
2.133e-05
2.13316e-05
2.13286e-05
3.18166e-07
3.21266e-06
3.21178e-06
3.21341e-06
3.21245e-06
2.13316e-05
2.13286e-05
5.42053e-07
2.64777e-07
1.44512e-06
2.83602e-07
5.42224e-07
2.64776e-07
1.44422e-06
1.80543e-06
8.87651e-06
1.80609e-06
8.87664e-06
1.80541e-06
8.8771e-06
1.80608e-06
8.87724e-06
5.42219e-07
2.83604e-07
2.64773e-07
1.44393e-06
2.64775e-07
1.44486e-06
5.42044e-07
5.42222e-07
2.83601e-07
2.64773e-07
1.4441e-06
2.64774e-07
1.44503e-06
5.42047e-07
1.80601e-06
8.87697e-06
8.87671e-06
1.80536e-06
1.806e-06
8.87763e-06
8.87731e-06
1.80533e-06
2.13284e-05
2.13303e-05
2.13289e-05
2.13308e-05
3.18167e-07
3.21178e-06
3.21272e-06
3.21246e-06
3.21339e-06
2.1332e-05
2.13289e-05
2.13324e-05
2.13294e-05
2.13286e-05
2.13319e-05
2.13295e-05
2.13329e-05
3.21225e-06
3.21315e-06
3.17893e-07
3.21159e-06
3.21246e-06
2.13324e-05
2.13284e-05
2.13337e-05
2.13295e-05
3.18168e-07
3.21163e-06
3.21252e-06
3.21237e-06
3.21324e-06
1.80513e-06
8.87683e-06
1.80577e-06
8.87731e-06
5.42015e-07
1.44481e-06
2.64774e-07
2.83619e-07
5.42206e-07
1.44387e-06
2.64774e-07
5.4202e-07
1.44503e-06
2.64775e-07
2.83625e-07
5.42211e-07
1.44409e-06
2.64774e-07
1.80607e-06
8.87655e-06
8.87575e-06
1.8055e-06
1.80609e-06
8.87752e-06
8.8768e-06
1.80552e-06
5.4222e-07
2.8362e-07
1.44389e-06
2.64771e-07
1.44489e-06
2.64772e-07
5.42034e-07
5.42226e-07
2.83625e-07
1.44411e-06
2.64772e-07
1.44513e-06
2.64773e-07
5.42039e-07
3.21322e-06
3.21231e-06
3.17882e-07
3.21258e-06
3.21158e-06
2.1327e-05
2.13301e-05
2.13329e-05
2.13289e-05
3.18158e-07
3.2126e-06
3.21159e-06
3.21338e-06
3.21245e-06
2.13306e-05
2.13266e-05
5.42044e-07
1.4451e-06
2.64774e-07
2.83602e-07
5.42231e-07
1.44416e-06
2.64773e-07
1.80501e-06
8.87667e-06
1.80559e-06
8.87709e-06
5.42032e-07
2.64778e-07
1.44521e-06
2.83629e-07
5.42222e-07
2.64778e-07
1.44421e-06
1.8059e-06
8.87799e-06
8.87722e-06
1.80534e-06
5.42243e-07
2.83602e-07
1.44417e-06
2.64771e-07
1.44517e-06
2.64771e-07
5.4206e-07
1.80589e-06
8.87741e-06
8.87662e-06
1.80532e-06
5.42234e-07
2.83629e-07
2.64775e-07
1.44423e-06
2.64777e-07
1.44528e-06
5.42048e-07
1.80514e-06
8.87635e-06
1.80578e-06
8.87681e-06
5.42024e-07
2.64774e-07
1.44487e-06
2.83619e-07
5.42212e-07
2.64773e-07
1.44392e-06
1.80514e-06
8.87678e-06
1.80577e-06
8.87726e-06
5.42224e-07
2.83597e-07
1.44399e-06
2.6477e-07
1.44504e-06
2.64771e-07
5.42039e-07
1.8061e-06
8.87702e-06
8.87632e-06
1.80553e-06
5.42227e-07
2.8362e-07
2.64771e-07
1.44395e-06
2.64771e-07
1.44496e-06
5.42043e-07
1.8061e-06
8.87756e-06
8.87676e-06
1.80553e-06
3.21328e-06
3.21232e-06
3.17896e-07
3.21246e-06
3.21161e-06
2.13293e-05
2.13328e-05
2.13336e-05
2.13294e-05
3.1817e-07
3.21248e-06
3.21164e-06
3.21332e-06
3.21239e-06
2.13335e-05
2.13293e-05
5.4204e-07
2.64774e-07
1.44504e-06
2.83602e-07
5.42228e-07
2.64774e-07
1.44409e-06
1.8053e-06
8.87682e-06
1.80594e-06
8.87725e-06
1.80532e-06
8.87751e-06
1.80601e-06
8.87798e-06
5.42241e-07
2.83606e-07
2.64771e-07
1.44391e-06
2.64773e-07
1.44492e-06
5.42056e-07
5.42244e-07
2.83602e-07
2.64772e-07
1.44411e-06
2.64773e-07
1.44513e-06
5.4206e-07
1.80623e-06
8.8776e-06
8.87675e-06
1.80559e-06
1.80634e-06
8.87826e-06
8.87748e-06
1.80571e-06
2.13295e-05
2.13328e-05
2.133e-05
2.13333e-05
3.18171e-07
3.21171e-06
3.21265e-06
3.21247e-06
3.2134e-06
2.13333e-05
2.13293e-05
2.13338e-05
2.13298e-05
2.13277e-05
2.13327e-05
2.13291e-05
2.13341e-05
3.21238e-06
3.2133e-06
3.17885e-07
3.21165e-06
3.2126e-06
2.13326e-05
2.1327e-05
2.13338e-05
2.13284e-05
3.18154e-07
3.21205e-06
3.21301e-06
3.2122e-06
3.21316e-06
1.80578e-06
8.87672e-06
1.80649e-06
8.87792e-06
5.42018e-07
1.4449e-06
2.64769e-07
2.8361e-07
5.42224e-07
1.44375e-06
2.64765e-07
5.42022e-07
1.44512e-06
2.6477e-07
2.83605e-07
5.42228e-07
1.44393e-06
2.64764e-07
1.80643e-06
8.8776e-06
8.87584e-06
1.80561e-06
1.80645e-06
8.87852e-06
8.87674e-06
1.80563e-06
5.42189e-07
2.83596e-07
1.44335e-06
2.64729e-07
1.44466e-06
2.64753e-07
5.41944e-07
5.42192e-07
2.83585e-07
1.44351e-06
2.64725e-07
1.44485e-06
2.6475e-07
5.41946e-07
3.21335e-06
3.21242e-06
3.17859e-07
3.21255e-06
3.21145e-06
2.1326e-05
2.13313e-05
2.13332e-05
2.13276e-05
3.18124e-07
3.21284e-06
3.21156e-06
3.21308e-06
3.21199e-06
2.13318e-05
2.13259e-05
5.42064e-07
1.44517e-06
2.64771e-07
2.83597e-07
5.42248e-07
1.44406e-06
2.6477e-07
1.80566e-06
8.87669e-06
1.80624e-06
8.87798e-06
5.42053e-07
2.64775e-07
1.44528e-06
2.83625e-07
5.42238e-07
2.64773e-07
1.44413e-06
1.80631e-06
8.87919e-06
8.87738e-06
1.80559e-06
5.42238e-07
2.83589e-07
1.44371e-06
2.64752e-07
1.44499e-06
2.64765e-07
5.42011e-07
1.80631e-06
8.87865e-06
8.87685e-06
1.80558e-06
5.42229e-07
2.83618e-07
2.64754e-07
1.44378e-06
2.64768e-07
1.4451e-06
5.41999e-07
1.80579e-06
8.87625e-06
1.8065e-06
8.87743e-06
5.42027e-07
2.64769e-07
1.44496e-06
2.83608e-07
5.4223e-07
2.64765e-07
1.4438e-06
1.80579e-06
8.87679e-06
1.8065e-06
8.87803e-06
5.42193e-07
2.83555e-07
1.44338e-06