/*--------------------------------*- C++ -*----------------------------------*\
| =========                 |                                                 |
| \\      /  F ield         | OpenFOAM: The Open Source CFD Toolbox           |
|  \\    /   O peration     | Version:  2206                                  |
|   \\  /    A nd           | Website:  www.openfoam.com                      |
|    \\/     M anipulation  |                                                 |
\*---------------------------------------------------------------------------*/
FoamFile
{
    version     2.0;
    format      ascii;
    arch        "LSB;label=32;scalar=64";
    class       volScalarField;
    location    "34.5";
    object      nut;
}
// * * * * * * * * * * * * * * * * * * * * * * * * * * * * * * * * * * * * * //

dimensions      [0 2 -1 0 0 0 0];

internalField   nonuniform List<scalar> 
28673
(
0.000180522
0.000151834
0.000213014
0.000180522
0.000180511
0.000151865
0.000213013
0.00018052
0.00018051
0.000151864
0.000213013
0.000180519
0.000180508
0.000151863
0.000213014
0.000180517
0.000180507
0.000151862
0.000213013
0.000180516
0.000180507
0.000151861
0.000213013
0.000180514
0.000180506
0.000151861
0.00021301
0.000180505
0.000180499
0.000151846
0.00021298
0.000180475
0.00018047
0.000151809
0.000212986
0.000180484
0.000180472
0.000151822
0.000212988
0.000180492
0.000180482
0.000151821
0.000212995
0.000180499
0.000180489
0.000151851
0.000214179
0.000183675
0.000183672
0.00015599
0.000180494
0.000152049
0.000180522
0.000152007
0.0001805
0.000180494
0.000180497
0.000180494
0.000151872
0.000152058
0.000180514
0.000180483
0.000180498
0.000180522
0.000180497
0.000152046
0.000180515
0.000180511
0.000180514
0.00015205
0.000151826
0.000152047
0.000180497
0.000180494
0.000180497
0.000180493
0.000151874
0.000152059
0.000180513
0.000180483
0.000180514
0.000180483
0.000180497
0.00018052
0.000180496
0.000151862
0.000152045
0.000180514
0.00018051
0.000180513
0.000152049
0.000151865
0.000152053
0.000180498
0.000180493
0.000180498
0.000180492
0.000151874
0.000152058
0.000180514
0.000180483
0.000180514
0.000180483
0.000180496
0.000180519
0.000180495
0.000151861
0.000152044
0.000180513
0.000180508
0.000180512
0.000152048
0.000151869
0.000152053
0.000180498
0.000180492
0.000180497
0.000180492
0.000151874
0.000152057
0.000180514
0.000180483
0.000180514
0.000180482
0.000180494
0.000180517
0.000180494
0.000151861
0.000152043
0.000180512
0.000180507
0.000180511
0.000152047
0.000151869
0.000152053
0.000180497
0.000180492
0.000180497
0.000180492
0.000151873
0.000152056
0.000180514
0.000180482
0.000180514
0.000180482
0.000180495
0.000180517
0.000180494
0.00015186
0.000152043
0.000180512
0.000180507
0.000180512
0.000152046
0.000151869
0.000152053
0.000180498
0.000180492
0.000180499
0.000180492
0.000151872
0.000152056
0.000180514
0.000180482
0.000180516
0.000180484
0.000180494
0.000180515
0.000180495
0.00015186
0.000152043
0.000180513
0.000180507
0.000180513
0.000152046
0.000151869
0.000152046
0.000180498
0.000180491
0.000180491
0.000180483
0.000151871
0.000152042
0.000180516
0.000180484
0.000180513
0.000180478
0.000180494
0.000180509
0.000180488
0.00015186
0.000152038
0.000180512
0.000180501
0.000180505
0.000152036
0.000151859
0.000152009
0.000180488
0.000180478
0.000180462
0.000180451
0.000151853
0.000152008
0.00018051
0.000180476
0.000180483
0.000180452
0.000180484
0.00018048
0.000180457
0.000151853
0.000152005
0.000180502
0.00018048
0.000180474
0.000152
0.000151819
0.000152008
0.000180455
0.000180446
0.000180459
0.000180454
0.000151821
0.000152015
0.000180474
0.000180443
0.000180474
0.000180442
0.00018045
0.000180483
0.000180457
0.000151814
0.000151999
0.000180469
0.00018047
0.000180475
0.000152006
0.000151827
0.000152011
0.000180462
0.000180456
0.00018047
0.000180464
0.000151831
0.000152014
0.000180478
0.000180445
0.000180487
0.000180455
0.000180459
0.000180493
0.000180467
0.000151818
0.000152003
0.000180477
0.000180483
0.000180486
0.000152005
0.000151828
0.000152035
0.000180472
0.000180466
0.000180512
0.000180509
0.00015183
0.000152041
0.000180489
0.000180457
0.000180531
0.0001805
0.00018047
0.000180537
0.000180511
0.00015182
0.000152027
0.000180487
0.000180528
0.00018053
0.000152032
0.000151855
0.000153746
0.000180474
0.00018047
0.000182606
0.000182603
0.000151861
0.000153747
0.000180492
0.00018046
0.00018262
0.000182599
0.000180472
0.000182622
0.000182605
0.000151848
0.00015374
0.000180492
0.000182618
0.000182621
0.000153744
0.000155993
0.000183664
0.000183661
0.000155993
0.000183675
0.000183658
0.000214178
0.000214177
0.000214178
0.000183663
0.000155987
0.000183675
3.92261e-05
4.94913e-05
3.92199e-05
4.94904e-05
2.47853e-05
2.47851e-05
3.92318e-05
4.94861e-05
0.000213016
0.000213012
0.000213014
0.000213015
0.000213009
0.000213012
8.28863e-05
4.73672e-05
0.000199578
0.000180523
8.28629e-05
4.73788e-05
0.000199578
2.47827e-05
8.28772e-05
0.000199573
0.000180512
8.2854e-05
0.000199573
4.73813e-05
3.69699e-05
3.69658e-05
0.000152054
3.69713e-05
3.69671e-05
3.92299e-05
4.94906e-05
3.92233e-05
4.94899e-05
2.47845e-05
2.47845e-05
3.92357e-05
4.94865e-05
3.92295e-05
4.94857e-05
0.000213015
0.000213008
0.000213012
0.000213013
0.000213014
0.000213007
0.000213011
8.28876e-05
4.73706e-05
0.000199577
0.000180521
8.28626e-05
4.7382e-05
0.000199577
2.47822e-05
2.4782e-05
8.28781e-05
0.000199572
4.73735e-05
0.000180511
8.28532e-05
0.000199572
4.73848e-05
3.69731e-05
3.69689e-05
0.000152049
3.69764e-05
3.69723e-05
3.92334e-05
4.94905e-05
3.9227e-05
4.94898e-05
2.47843e-05
2.47843e-05
3.92393e-05
4.94863e-05
3.92333e-05
4.94856e-05
0.000213014
0.000213006
0.000213009
0.000213013
0.000213014
0.000213006
0.000213008
8.28886e-05
4.73733e-05
0.000199576
0.00018052
8.28638e-05
4.73845e-05
0.000199575
2.47818e-05
2.47817e-05
8.28791e-05
0.000199571
4.73767e-05
0.000180509
8.28543e-05
0.00019957
4.73876e-05
3.6977e-05
3.6973e-05
0.000152049
3.69793e-05
3.69753e-05
3.92363e-05
4.94904e-05
3.92302e-05
4.94898e-05
2.47843e-05
2.47844e-05
3.92422e-05
4.94862e-05
3.92365e-05
4.94856e-05
0.000213012
0.000213007
0.000213008
0.000213014
0.000213011
0.000213007
0.00021301
8.28891e-05
4.73756e-05
0.000199574
0.000180519
8.28643e-05
4.73867e-05
0.000199574
2.47816e-05
2.47816e-05
8.28797e-05
0.000199569
4.7379e-05
0.000180508
8.2855e-05
0.000199569
4.73897e-05
3.69785e-05
3.69745e-05
0.000152048
3.69805e-05
3.69767e-05
3.9238e-05
4.94904e-05
3.92323e-05
4.94899e-05
2.47844e-05
2.47846e-05
3.92437e-05
4.94862e-05
3.92386e-05
4.94858e-05
0.000213013
0.000213009
0.00021301
0.000213013
0.000213014
0.000213006
0.000213011
8.289e-05
4.73777e-05
0.000199573
0.000180518
8.28651e-05
4.73884e-05
0.000199574
2.47816e-05
2.47818e-05
8.28805e-05
0.000199569
4.73809e-05
0.000180507
8.28557e-05
0.00019957
4.73914e-05
3.69805e-05
3.69767e-05
0.000152047
3.6983e-05
3.69792e-05
3.9239e-05
4.94905e-05
3.92336e-05
4.94908e-05
2.47846e-05
2.47854e-05
3.92449e-05
4.94864e-05
3.92397e-05
4.94867e-05
0.000213014
0.000213006
0.000213013
0.000213013
0.000213012
0.000213006
0.000213012
8.28912e-05
4.73809e-05
0.000199575
0.000180516
8.28666e-05
4.73902e-05
0.000199575
2.47818e-05
2.47826e-05
8.28814e-05
0.00019957
4.73844e-05
0.000180508
8.28569e-05
0.00019957
4.73934e-05
3.69851e-05
3.69814e-05
0.000152046
3.69873e-05
3.69837e-05
3.92375e-05
4.94912e-05
3.92348e-05
4.94921e-05
2.4785e-05
2.47863e-05
3.9245e-05
4.94871e-05
3.92419e-05
4.9488e-05
0.000213012
0.000213006
0.000213012
0.000213011
0.000213009
0.000213005
0.000213008
8.28888e-05
4.73837e-05
0.000199574
0.000180513
8.28678e-05
4.73889e-05
0.000199573
2.47823e-05
2.47837e-05
8.28802e-05
0.000199569
4.7388e-05
0.000180504
8.28585e-05
0.000199568
4.73936e-05
3.69919e-05
3.69884e-05
0.000152044
3.6991e-05
3.69874e-05
3.92232e-05
4.94912e-05
3.92223e-05
4.94936e-05
2.47846e-05
2.47866e-05
3.92318e-05
4.94871e-05
3.92318e-05
4.94896e-05
0.000213007
0.000213004
0.000213006
0.000212985
0.000212982
0.000212981
0.00021298
8.28642e-05
4.73806e-05
0.000199567
0.000180498
8.2851e-05
4.73809e-05
0.00019956
2.47822e-05
2.47843e-05
8.28571e-05
0.000199564
4.73866e-05
0.000180497
8.28431e-05
0.00019956
4.73868e-05
3.69935e-05
3.69896e-05
0.00015202
3.69909e-05
3.69869e-05
3.92151e-05
4.94915e-05
3.92128e-05
4.94962e-05
2.47835e-05
2.47862e-05
3.92227e-05
4.94876e-05
3.92213e-05
4.94924e-05
0.00021298
0.000212975
0.000212977
0.000212984
0.000212987
0.000212979
0.000212984
8.28424e-05
4.73821e-05
0.000199535
0.000180477
8.28225e-05
4.73779e-05
0.000199535
2.47814e-05
2.47841e-05
8.2835e-05
0.000199533
4.7388e-05
0.000180468
8.28153e-05
0.000199532
4.73827e-05
3.69913e-05
3.69872e-05
0.000151999
3.6979e-05
3.69749e-05
3.92075e-05
4.94919e-05
3.92036e-05
4.94998e-05
2.47804e-05
2.4784e-05
3.92142e-05
4.94884e-05
3.9211e-05
4.94964e-05
0.000212988
0.000212981
0.000212985
0.000212988
0.00021299
0.000212984
0.000212987
8.28437e-05
4.73968e-05
0.000199542
0.000180489
8.28255e-05
4.73774e-05
0.000199543
2.47785e-05
2.47821e-05
8.28369e-05
0.000199538
4.73998e-05
0.000180479
8.28184e-05
0.000199539
4.73783e-05
3.6969e-05
3.69649e-05
0.000152007
3.69399e-05
3.69357e-05
3.91933e-05
4.94866e-05
3.91884e-05
4.94992e-05
2.4774e-05
2.47786e-05
3.91998e-05
4.94834e-05
3.91956e-05
4.9496e-05
0.00021299
0.000212985
0.000212987
0.000213004
0.000213003
0.000212997
0.000213
8.28399e-05
4.74027e-05
0.000199546
0.000180502
8.28291e-05
4.73491e-05
0.000199545
2.47722e-05
2.47767e-05
8.28337e-05
0.000199542
4.7402e-05
0.000180492
8.28229e-05
0.000199541
4.73477e-05
3.69184e-05
3.69141e-05
0.000152008
3.68598e-05
3.68554e-05
3.9236e-05
4.94749e-05
3.91577e-05
4.95153e-05
2.47621e-05
2.47754e-05
3.92393e-05
4.94713e-05
3.9164e-05
4.95122e-05
0.000212997
0.000212991
0.000212994
0.000213338
0.000213337
0.000213335
0.000213337
8.29894e-05
4.73982e-05
0.000199608
0.000180757
8.28556e-05
4.73453e-05
0.000199543
2.476e-05
2.47734e-05
8.29848e-05
0.000199604
4.73968e-05
0.00018075
8.28499e-05
0.00019954
4.73446e-05
3.6809e-05
3.68047e-05
0.000152295
3.66519e-05
3.66491e-05
4.3068e-05
5.28584e-05
3.94439e-05
8.3646e-05
2.71919e-05
2.88087e-05
4.30709e-05
5.28564e-05
3.94464e-05
8.36344e-05
0.000226037
0.00022182
0.000221822
0.000210972
0.000225866
0.000220851
0.000220852
8.81179e-05
4.86215e-05
0.000201588
0.00018631
8.49088e-05
5.88437e-05
0.00020484
2.71904e-05
2.88081e-05
8.81125e-05
0.000201585
4.86215e-05
0.000186308
8.49051e-05
0.000204839
5.88435e-05
3.75873e-05
3.7581e-05
0.000161321
3.78534e-05
3.78487e-05
4.94906e-05
4.73814e-05
2.47856e-05
3.69686e-05
3.69642e-05
2.4786e-05
4.73771e-05
4.94889e-05
2.47867e-05
2.47864e-05
2.47846e-05
3.69706e-05
0.000151989
3.69717e-05
3.69653e-05
2.47859e-05
2.47862e-05
2.47841e-05
2.47844e-05
0.000151807
3.69745e-05
3.69682e-05
3.69706e-05
3.69644e-05
3.92269e-05
4.94912e-05
3.92206e-05
4.94903e-05
8.28874e-05
4.73728e-05
0.000199577
0.000180499
8.2864e-05
4.73836e-05
0.000199577
8.28875e-05
4.73721e-05
0.000199576
0.000180494
8.28643e-05
4.73832e-05
0.000199576
3.92217e-05
4.949e-05
4.94909e-05
3.9228e-05
3.92224e-05
4.949e-05
4.94909e-05
3.92288e-05
8.28646e-05
0.000180498
4.73853e-05
0.000199577
4.73745e-05
0.000199577
8.28881e-05
8.28647e-05
0.000180494
4.73849e-05
0.000199576
4.73739e-05
0.000199576
8.28884e-05
3.69676e-05
3.69627e-05
0.000152059
3.69712e-05
3.69659e-05
2.47859e-05
2.47856e-05
2.47847e-05
2.47849e-05
0.000151874
3.69735e-05
3.69676e-05
3.697e-05
3.69642e-05
2.47852e-05
2.47855e-05
8.28892e-05
0.000180515
4.73753e-05
0.000199575
3.92309e-05
4.94829e-05
8.28892e-05
0.000180484
0.000199569
4.73706e-05
3.92278e-05
4.94859e-05
4.94868e-05
3.92338e-05
8.28668e-05
0.000180514
4.73775e-05
0.000199574
4.73664e-05
0.000199574
8.28895e-05
3.92269e-05
4.94826e-05
4.94835e-05
3.92328e-05
8.28665e-05
0.000180484
0.000199569
4.73724e-05
0.000199569
4.73611e-05
8.28895e-05
3.92261e-05
4.94895e-05
3.92198e-05
4.94885e-05
8.28858e-05
0.000199575
4.73699e-05
0.000180498
8.28626e-05
0.000199575
4.73808e-05
3.9226e-05
4.94876e-05
3.92197e-05
4.94866e-05
8.28637e-05
0.000180523
4.73805e-05
0.000199577
4.73694e-05
0.000199578
8.28871e-05
3.92216e-05
4.94883e-05
4.94892e-05
3.9228e-05
8.28634e-05
0.000180497
0.000199575
4.73825e-05
0.000199575
4.73716e-05
8.28865e-05
3.92215e-05
4.94863e-05
4.94872e-05
3.92279e-05
0.00015205
3.6958e-05
3.69697e-05
2.47855e-05
2.47823e-05
2.47827e-05
0.000151864
3.69597e-05
3.69728e-05
3.69564e-05
3.69689e-05
2.4785e-05
2.47853e-05
8.28759e-05
0.000199573
4.73673e-05
0.000180515
8.28531e-05
0.000199573
4.73782e-05
3.92185e-05
3.92119e-05
4.94863e-05
3.92181e-05
4.94874e-05
3.92116e-05
4.94864e-05
8.28546e-05
0.000180512
0.000199572
4.73831e-05
0.000199573
4.73721e-05
8.28777e-05
8.28534e-05
0.000180515
0.000199573
4.738e-05
0.000199573
4.7369e-05
8.28765e-05
3.92136e-05
4.9486e-05
4.94869e-05
3.92203e-05
3.92132e-05
4.94861e-05
4.9487e-05
3.92199e-05
2.47853e-05
2.4785e-05
2.47843e-05
2.4784e-05
0.000151869
3.6974e-05
3.69698e-05
3.69702e-05
3.69659e-05
2.47846e-05
2.47849e-05
2.47835e-05
2.47838e-05
2.47858e-05
2.47856e-05
2.4784e-05
2.47837e-05
3.69733e-05
3.69671e-05
0.000152028
3.6977e-05
3.69708e-05
2.47855e-05
2.47856e-05
2.47835e-05
2.47836e-05
0.000151848
3.6979e-05
3.6973e-05
3.69757e-05
3.69696e-05
3.92306e-05
4.94906e-05
3.92243e-05
4.94899e-05
8.28888e-05
4.73762e-05
0.000199576
0.000180497
8.28653e-05
4.73869e-05
0.000199576
8.28893e-05
4.73756e-05
0.000199574
0.000180494
8.28656e-05
4.73864e-05
0.000199574
3.92255e-05
4.94898e-05
4.94905e-05
3.92317e-05
3.92262e-05
4.94898e-05
4.94905e-05
3.92325e-05
8.2866e-05
0.000180497
4.73883e-05
0.000199576
4.73778e-05
0.000199576
8.28895e-05
8.28665e-05
0.000180494
4.73877e-05
0.000199573
4.73771e-05
0.000199573
8.289e-05
3.69723e-05
3.69659e-05
0.000152058
3.69754e-05
3.69691e-05
2.47852e-05
2.4785e-05
2.47843e-05
2.47844e-05
0.000151874
3.69767e-05
3.69703e-05
3.6974e-05
3.69674e-05
2.47849e-05
2.4785e-05
8.28896e-05
4.73685e-05
0.000199574
0.000180513
8.2867e-05
4.73795e-05
0.000199573
3.92347e-05
4.94832e-05
3.92288e-05
4.94823e-05
8.28897e-05
0.000199569
4.73629e-05
0.000180483
8.28667e-05
0.000199569
4.73742e-05
3.92317e-05
4.94856e-05
4.94864e-05
3.92375e-05
8.28672e-05
0.000180513
4.73813e-05
0.000199574
4.73705e-05
0.000199574
8.28898e-05
3.92307e-05
4.94822e-05
4.9483e-05
3.92366e-05
8.28669e-05
0.000180483
0.000199568
4.73757e-05
0.000199569
4.73646e-05
8.28898e-05
3.92299e-05
4.94889e-05
3.92236e-05
4.94881e-05
8.28873e-05
0.000199574
4.73733e-05
0.000180497
8.2864e-05
0.000199574
4.73841e-05
3.92298e-05
4.94869e-05
3.92234e-05
4.94861e-05
8.2865e-05
0.000180521
4.73833e-05
0.000199576
4.73725e-05
0.000199577
8.28884e-05
3.92255e-05
4.9488e-05
4.94888e-05
3.92318e-05
8.28649e-05
0.000180497
0.000199574
4.73855e-05
0.000199574
4.73749e-05
8.2888e-05
3.92253e-05
4.9486e-05
4.94867e-05
3.92316e-05
3.6958e-05
3.69716e-05
0.000152044
3.69614e-05
3.69754e-05
2.47848e-05
2.47846e-05
2.47818e-05
2.4782e-05
0.00015186
3.69629e-05
3.69775e-05
3.69596e-05
3.69741e-05
2.47844e-05
2.47845e-05
8.28773e-05
0.000199572
4.73707e-05
0.000180514
8.28541e-05
0.000199571
4.73816e-05
3.92222e-05
4.94866e-05
3.92154e-05
4.94858e-05
3.92217e-05
4.94867e-05
3.9215e-05
4.94859e-05
8.28556e-05
0.000180511
0.000199571
4.73863e-05
0.000199572
4.73756e-05
8.28788e-05
8.28549e-05
0.000180514
0.000199571
4.7383e-05
0.000199571
4.73723e-05
8.2878e-05
3.92173e-05
4.94857e-05
4.94864e-05
3.9224e-05
3.92168e-05
4.94859e-05
4.94866e-05
3.92235e-05
2.47845e-05
2.47843e-05
2.47834e-05
2.47832e-05
0.000151866
3.69782e-05
3.69742e-05
3.69751e-05
3.6971e-05
2.47841e-05
2.47842e-05
2.47831e-05
2.47832e-05
2.47854e-05
2.47854e-05
2.47835e-05
2.47834e-05
3.69775e-05
3.69717e-05
0.000152052
3.69802e-05
3.69745e-05
2.47854e-05
2.47854e-05
2.47834e-05
2.47834e-05
0.000151869
3.69808e-05
3.69753e-05
3.69785e-05
3.69729e-05
3.92342e-05
4.94904e-05
3.9228e-05
4.94897e-05
8.28898e-05
4.73792e-05
0.000199575
0.000180498
8.28666e-05
4.73896e-05
0.000199575
8.28902e-05
4.73783e-05
0.000199573
0.000180493
8.2867e-05
4.73889e-05
0.000199573
3.9229e-05
4.94897e-05
4.94904e-05
3.9235e-05
3.92297e-05
4.94896e-05
4.94903e-05
3.92357e-05
8.28669e-05
0.000180498
4.73907e-05
0.000199576
4.73804e-05
0.000199576
8.28902e-05
8.28673e-05
0.000180493
4.73899e-05
0.000199573
4.73794e-05
0.000199573
8.28906e-05
3.69752e-05
3.69685e-05
0.000152058
3.69776e-05
3.69714e-05
2.47849e-05
2.47848e-05
2.47843e-05
2.47843e-05
0.000151873
3.69784e-05
3.69726e-05
3.6976e-05
3.69696e-05
2.47848e-05
2.47848e-05
8.28899e-05
4.73723e-05
0.000199573
0.000180514
8.28673e-05
4.73828e-05
0.000199573
3.92384e-05
4.94829e-05
3.92326e-05
4.94821e-05
8.28899e-05
0.000199568
4.73661e-05
0.000180483
8.2867e-05
0.000199568
4.73771e-05
3.92352e-05
4.94856e-05
4.94863e-05
3.92409e-05
8.28674e-05
0.000180514
4.73841e-05
0.000199573
4.73737e-05
0.000199574
8.28902e-05
3.92343e-05
4.94821e-05
4.94828e-05
3.924e-05
8.28671e-05
0.000180483
0.000199568
4.73783e-05
0.000199568
4.73675e-05
8.28901e-05
3.92335e-05
4.94887e-05
3.92273e-05
4.94879e-05
8.28883e-05
0.000199573
4.73762e-05
0.000180496
8.28655e-05
0.000199573
4.73868e-05
3.92333e-05
4.94867e-05
3.92271e-05
4.94859e-05
8.28659e-05
0.00018052
4.73857e-05
0.000199574
4.7375e-05
0.000199575
8.28889e-05
3.9229e-05
4.94879e-05
4.94886e-05
3.9235e-05
8.28657e-05
0.000180495
0.000199572
4.73878e-05
0.000199573
4.73774e-05
8.28885e-05
3.92288e-05
4.94859e-05
4.94866e-05
3.92348e-05
3.6961e-05
3.69761e-05
0.000152044
3.6964e-05
3.6979e-05
2.47843e-05
2.47843e-05
2.47816e-05
2.47817e-05
0.00015186
3.6965e-05
3.69799e-05
3.69621e-05
3.69775e-05
2.47842e-05
2.47843e-05
8.28785e-05
0.00019957
4.73736e-05
0.000180513
8.28556e-05
0.00019957
4.73843e-05
3.92257e-05
4.94864e-05
3.92191e-05
4.94857e-05
3.92252e-05
4.94865e-05
3.92186e-05
4.94858e-05
8.28565e-05
0.000180509
0.000199569
4.73888e-05
0.00019957
4.73784e-05
8.28795e-05
8.2856e-05
0.000180512
0.000199569
4.73853e-05
0.00019957
4.73749e-05
8.28788e-05
3.92207e-05
4.94857e-05
4.94863e-05
3.92271e-05
3.92203e-05
4.94858e-05
4.94865e-05
3.92266e-05
2.47841e-05
2.47841e-05
2.47831e-05
2.4783e-05
0.000151865
3.69798e-05
3.69759e-05
3.69776e-05
3.69736e-05
2.4784e-05
2.4784e-05
2.4783e-05
2.4783e-05
2.47854e-05
2.47854e-05
2.47833e-05
2.47834e-05
3.69792e-05
3.69736e-05
0.000152053
3.69816e-05
3.69759e-05
2.47855e-05
2.47854e-05
2.47834e-05
2.47834e-05
0.000151869
3.69828e-05
3.69768e-05
3.69801e-05
3.69742e-05
3.92369e-05
4.94903e-05
3.92311e-05
4.94896e-05
8.28908e-05
4.73815e-05
0.000199576
0.000180498
8.28673e-05
4.73917e-05
0.000199576
8.28912e-05
4.73804e-05
0.000199574
0.000180492
8.28677e-05
4.73908e-05
0.000199574
3.92317e-05
4.94898e-05
4.94904e-05
3.92373e-05
3.92323e-05
4.94897e-05
4.94903e-05
3.92379e-05
8.28681e-05
0.000180497
4.73927e-05
0.000199576
4.73825e-05
0.000199576
8.28918e-05
8.28685e-05
0.000180492
4.73917e-05
0.000199573
4.73814e-05
0.000199573
8.28921e-05
3.69769e-05
3.69708e-05
0.000152057
3.69794e-05
3.69738e-05
2.47848e-05
2.47848e-05
2.47844e-05
2.47843e-05
0.000151873
3.69806e-05
3.6975e-05
3.6978e-05
3.6972e-05
2.47849e-05
2.47848e-05
8.28907e-05
4.73749e-05
0.000199573
0.000180514
8.28677e-05
4.73851e-05
0.000199573
3.92413e-05
4.94828e-05
3.92359e-05
4.9482e-05
8.28906e-05
0.000199567
4.73686e-05
0.000180483
8.28673e-05
0.000199567
4.73794e-05
3.9238e-05
4.94856e-05
4.94862e-05
3.92432e-05
8.28684e-05
0.000180514
4.73861e-05
0.000199573
4.73759e-05
0.000199573
8.28915e-05
3.92371e-05
4.94821e-05
4.94827e-05
3.92422e-05
8.28679e-05
0.000180482
0.000199567
4.73804e-05
0.000199567
4.73698e-05
8.28913e-05
3.92362e-05
4.94886e-05
3.92304e-05
4.94879e-05
8.2889e-05
0.000199571
4.73784e-05
0.000180494
8.2866e-05
0.000199571
4.73888e-05
3.9236e-05
4.94865e-05
3.92302e-05
4.94859e-05
8.28665e-05
0.000180518
4.73876e-05
0.000199573
4.73771e-05
0.000199573
8.28896e-05
3.92315e-05
4.9488e-05
4.94886e-05
3.9237e-05
8.28666e-05
0.000180494
0.000199571
4.73897e-05
0.000199571
4.73794e-05
8.28897e-05
3.92314e-05
4.94859e-05
4.94865e-05
3.9237e-05
3.69631e-05
3.69782e-05
0.000152043
3.69662e-05
3.69805e-05
2.47842e-05
2.47842e-05
2.47816e-05
2.47816e-05
0.00015186
3.69676e-05
3.69816e-05
3.69644e-05
3.69789e-05
2.47843e-05
2.47842e-05
8.28792e-05
0.000199568
4.73759e-05
0.000180512
8.28563e-05
0.000199568
4.73863e-05
3.92283e-05
4.94863e-05
3.92222e-05
4.94856e-05
3.92278e-05
4.94864e-05
3.92217e-05
4.94857e-05
8.28572e-05
0.000180507
0.000199569
4.73905e-05
0.000199569
4.73804e-05
8.28803e-05
8.28568e-05
0.000180511
0.000199568
4.73872e-05
0.000199569
4.73769e-05
8.28797e-05
3.92232e-05
4.94856e-05
4.94863e-05
3.92292e-05
3.92228e-05
4.94857e-05
4.94864e-05
3.92288e-05
2.4784e-05
2.47841e-05
2.4783e-05
2.4783e-05
0.000151864
3.69816e-05
3.69778e-05
3.6979e-05
3.69751e-05
2.47841e-05
2.47841e-05
2.47831e-05
2.4783e-05
2.47855e-05
2.47856e-05
2.47834e-05
2.47835e-05
3.69814e-05
3.69754e-05
0.000152053
3.69843e-05
3.69782e-05
2.47859e-05
2.47856e-05
2.47838e-05
2.47835e-05
0.000151869
3.69861e-05
3.69801e-05
3.69833e-05
3.69772e-05
3.92386e-05
4.94903e-05
3.92331e-05
4.94899e-05
8.28926e-05
4.73836e-05
0.000199575
0.000180497
8.28691e-05
4.73936e-05
0.000199575
8.28929e-05
4.73824e-05
0.000199573
0.000180492
8.28694e-05
4.73926e-05
0.000199573
3.92332e-05
4.94902e-05
4.94904e-05
3.92385e-05
3.92338e-05
4.94903e-05
4.94904e-05
3.9239e-05
8.287e-05
0.000180497
4.73945e-05
0.000199576
4.7385e-05
0.000199576
8.28933e-05
8.28703e-05
0.000180492
4.73933e-05
0.000199575
4.73837e-05
0.000199574
8.28936e-05
3.69792e-05
3.69734e-05
0.000152056
3.69819e-05
3.69765e-05
2.47849e-05
2.47851e-05
2.47848e-05
2.47845e-05
0.000151872
3.69834e-05
3.6978e-05
3.69808e-05
3.69751e-05
2.47854e-05
2.47851e-05
8.28919e-05
4.7377e-05
0.000199573
0.000180514
8.28691e-05
4.73871e-05
0.000199572
3.92429e-05
4.94827e-05
3.92379e-05
4.94822e-05
8.2892e-05
0.000199566
4.73709e-05
0.000180482
8.28687e-05
0.000199566
4.73814e-05
3.92393e-05
4.94861e-05
4.94863e-05
3.92442e-05
8.28697e-05
0.000180514
4.73881e-05
0.000199573
4.73786e-05
0.000199573
8.28925e-05
3.92385e-05
4.94825e-05
4.94827e-05
3.92434e-05
8.28695e-05
0.000180482
0.000199567
4.73823e-05
0.000199567
4.73723e-05
8.28926e-05
3.92377e-05
4.94886e-05
3.92323e-05
4.94881e-05
8.28901e-05
0.000199571
4.73805e-05
0.000180495
8.28672e-05
0.000199571
4.73906e-05
3.92376e-05
4.94865e-05
3.92322e-05
4.94861e-05
8.28676e-05
0.000180517
4.73892e-05
0.000199574
4.73794e-05
0.000199574
8.28905e-05
3.92328e-05
4.94885e-05
4.94887e-05
3.92381e-05
8.28678e-05
0.000180494
0.000199572
4.73914e-05
0.000199571
4.73819e-05
8.28906e-05
3.92328e-05
4.94864e-05
4.94866e-05
3.9238e-05
3.69659e-05
3.69801e-05
0.000152043
3.6969e-05
3.6983e-05
2.47843e-05
2.47844e-05
2.47821e-05
2.47817e-05
0.000151859
3.69706e-05
3.69848e-05
3.69676e-05
3.69819e-05
2.47847e-05
2.47844e-05
8.28801e-05
0.000199568
4.73779e-05
0.000180512
8.28573e-05
0.000199568
4.73881e-05
3.92298e-05
4.94863e-05
3.9224e-05
4.94858e-05
3.92294e-05
4.94864e-05
3.92236e-05
4.94859e-05
8.28581e-05
0.000180507
0.00019957
4.73923e-05
0.00019957
4.73827e-05
8.28808e-05
8.28578e-05
0.000180512
0.00019957
4.7389e-05
0.000199569
4.73793e-05
8.28805e-05
3.92245e-05
4.94861e-05
4.94863e-05
3.92301e-05
3.92242e-05
4.94862e-05
4.94864e-05
3.92299e-05
2.47841e-05
2.47842e-05
2.47831e-05
2.47832e-05
0.000151863
3.69847e-05
3.6981e-05
3.6982e-05
3.69782e-05
2.47845e-05
2.47842e-05
2.47835e-05
2.47832e-05
2.47857e-05
2.47864e-05
2.47836e-05
2.47843e-05
3.69862e-05
3.69802e-05
0.000152052
3.69888e-05
3.69831e-05
2.47871e-05
2.47859e-05
2.4785e-05
2.47838e-05
0.000151868
3.69917e-05
3.69868e-05
3.69902e-05
3.69847e-05
3.92397e-05
4.94906e-05
3.92344e-05
4.94909e-05
8.28941e-05
4.73871e-05
0.000199577
0.000180498
8.28712e-05
4.73958e-05
0.000199576
8.28945e-05
4.73857e-05
0.000199576
0.000180492
8.28714e-05
4.73945e-05
0.000199575
3.92352e-05
4.94915e-05
4.94909e-05
3.92396e-05
3.92359e-05
4.94918e-05
4.9491e-05
3.92403e-05
8.28726e-05
0.000180499
4.73967e-05
0.000199574
4.73896e-05
0.000199575
8.28939e-05
8.2873e-05
0.000180493
4.7395e-05
0.000199573
4.7388e-05
0.000199574
8.28945e-05
3.69835e-05
3.69777e-05
0.000152055
3.69858e-05
3.69803e-05
2.47852e-05
2.4786e-05
2.4786e-05
2.47849e-05
0.000151871
3.69887e-05
3.69831e-05
3.69872e-05
3.69814e-05
2.47866e-05
2.47855e-05
8.28936e-05
4.73808e-05
0.000199573
0.000180514
8.28708e-05
4.73895e-05
0.000199573
3.92441e-05
4.94829e-05
3.92392e-05
4.9483e-05
8.28937e-05
0.000199567
4.73744e-05
0.000180482
8.28706e-05
0.000199567
4.73836e-05
3.92417e-05
4.94874e-05
4.94869e-05
3.92461e-05
8.28729e-05
0.000180515
4.73908e-05
0.000199576
4.73834e-05
0.000199574
8.28952e-05
3.92409e-05
4.94838e-05
4.94833e-05
3.92453e-05
8.28727e-05
0.000180483
0.000199569
4.73847e-05
0.000199569
4.73769e-05
8.28953e-05
3.92387e-05
4.94889e-05
3.92334e-05
4.94891e-05
8.28916e-05
0.000199574
4.73839e-05
0.000180494
8.28688e-05
0.000199574
4.73926e-05
3.92387e-05
4.94867e-05
3.92334e-05
4.9487e-05
8.28701e-05
0.000180516
4.73908e-05
0.000199574
4.73835e-05
0.000199574
8.28923e-05
3.92348e-05
4.949e-05
4.94894e-05
3.92393e-05
8.28705e-05
0.000180495
0.000199575
4.73935e-05
0.000199575
4.73863e-05
8.2892e-05
3.92348e-05
4.94877e-05
4.94871e-05
3.92393e-05
3.69703e-05
3.69849e-05
0.000152042
3.69733e-05
3.69877e-05
2.47845e-05
2.47852e-05
2.47832e-05
2.47821e-05
0.000151859
3.69765e-05
3.6991e-05
3.69744e-05
3.69892e-05
2.47859e-05
2.47847e-05
8.28814e-05
0.000199572
4.73813e-05
0.000180513
8.28587e-05
0.000199572
4.73902e-05
3.92307e-05
4.94864e-05
3.92251e-05
4.94867e-05
3.92305e-05
4.94865e-05
3.92249e-05
4.94868e-05
8.28603e-05
0.000180508
0.00019957
4.73946e-05
0.000199569
4.73871e-05
8.28827e-05
8.28605e-05
0.000180514
0.000199572
4.73911e-05
0.000199573
4.73838e-05
8.28823e-05
3.92264e-05
4.94873e-05
4.94868e-05
3.92313e-05
3.92263e-05
4.94875e-05
4.94869e-05
3.92312e-05
2.47844e-05
2.47851e-05
2.47833e-05
2.4784e-05
0.000151862
3.69903e-05
3.69868e-05
3.69888e-05
3.69852e-05
2.47857e-05
2.47846e-05
2.47847e-05
2.47835e-05
2.47861e-05
2.47874e-05
2.4784e-05
2.47854e-05
3.69929e-05
3.69883e-05
0.000152052
3.69923e-05
3.6988e-05
2.47876e-05
2.4786e-05
2.47857e-05
2.47841e-05
0.000151867
3.69919e-05
3.69871e-05
3.69932e-05
3.69889e-05
3.92383e-05
4.94915e-05
3.92358e-05
4.94924e-05
8.28889e-05
4.73906e-05
0.000199573
0.000180497
8.28706e-05
4.73952e-05
0.000199571
8.28896e-05
4.73885e-05
0.000199572
0.000180488
8.28712e-05
4.7393e-05
0.000199571
3.92302e-05
4.94927e-05
4.94911e-05
3.92299e-05
3.9231e-05
4.94928e-05
4.94915e-05
3.92307e-05
8.28632e-05
0.000180493
4.73914e-05
0.00019957
4.73896e-05
0.000199571
8.28783e-05
8.28637e-05
0.000180485
4.73888e-05
0.000199569
4.7387e-05
0.00019957
8.28784e-05
3.69901e-05
3.69842e-05
0.000152052
3.69894e-05
3.69843e-05
2.47857e-05
2.47869e-05
2.47864e-05
2.47849e-05
0.000151866
3.69885e-05
3.6984e-05
3.69903e-05
3.6985e-05
2.47871e-05
2.47855e-05
8.28925e-05
4.73849e-05
0.000199578
0.000180516
8.28729e-05
4.73902e-05
0.000199578
3.92442e-05
4.94835e-05
3.92414e-05
4.94843e-05
8.28925e-05
0.000199569
4.73783e-05
0.000180483
8.28726e-05
0.000199567
4.73841e-05
3.92387e-05
4.94885e-05
4.94871e-05
3.92389e-05
8.28677e-05
0.000180515
4.73874e-05
0.000199576
4.73849e-05
0.000199578
8.28833e-05
3.92379e-05
4.94849e-05
4.94834e-05
3.9238e-05
8.28673e-05
0.000180481
0.000199566
4.73813e-05
0.000199566
4.73783e-05
8.28832e-05
3.92375e-05
4.94899e-05
3.92349e-05
4.94907e-05
8.28875e-05
0.000199574
4.73873e-05
0.000180493
8.28692e-05
0.000199573
4.73921e-05
3.92373e-05
4.94874e-05
3.92348e-05
4.94883e-05
8.28631e-05
0.000180511
4.73848e-05
0.000199571
4.73827e-05
0.000199572
8.28773e-05
3.92303e-05
4.94911e-05
4.94898e-05
3.923e-05
8.28621e-05
0.00018049
0.000199569
4.73884e-05
0.000199571
4.73864e-05
8.28766e-05
3.923e-05
4.94889e-05
4.94874e-05
3.92298e-05
3.69775e-05
3.69922e-05
0.000152042
3.69777e-05
3.69915e-05
2.47849e-05
2.47863e-05
2.47841e-05
2.47824e-05
0.000151858
3.69777e-05
3.6991e-05
3.69784e-05
3.69923e-05
2.47866e-05
2.4785e-05
8.28789e-05
0.00019957
4.73848e-05
0.00018051
8.28599e-05
0.000199568
4.73898e-05
3.92302e-05
4.9487e-05
3.92273e-05
4.94878e-05
3.92294e-05
4.94873e-05
3.92264e-05
4.94882e-05
8.28547e-05
0.000180502
0.000199566
4.73904e-05
0.000199567
4.7388e-05
8.28694e-05
8.28536e-05
0.000180507
0.000199566
4.73859e-05
0.000199567
4.73839e-05
8.28676e-05
3.92233e-05
4.94884e-05
4.94868e-05
3.92239e-05
3.92217e-05
4.94887e-05
4.94872e-05
3.92219e-05
2.47848e-05
2.47861e-05
2.47837e-05
2.4785e-05
0.000151859
3.69905e-05
3.69867e-05
3.69919e-05
3.69883e-05
2.47863e-05
2.47847e-05
2.47852e-05
2.47837e-05
2.47858e-05
2.47877e-05
2.47839e-05
2.47859e-05
3.69946e-05
3.69896e-05
0.000152031
3.69924e-05
3.6987e-05
2.47877e-05
2.47855e-05
2.47858e-05
2.47836e-05
0.000151839
3.69885e-05
3.69835e-05
3.69956e-05
3.69903e-05
3.9224e-05
4.94914e-05
3.92234e-05
4.94936e-05
8.28652e-05
4.7388e-05
0.000199567
0.000180483
8.28538e-05
4.73877e-05
0.000199561
8.28653e-05
4.73851e-05
0.000199566
0.000180468
8.28538e-05
4.73847e-05
0.000199557
3.92176e-05
4.94946e-05
4.94914e-05
3.92191e-05
3.92184e-05
4.94947e-05
4.94914e-05
3.92199e-05
8.28394e-05
0.000180471
4.73852e-05
0.000199539
4.73881e-05
0.000199548
8.28464e-05
8.28394e-05
0.000180457
4.73821e-05
0.000199536
4.73848e-05
0.000199545
8.28466e-05
3.6991e-05
3.69863e-05
0.000152023
3.6988e-05
3.69849e-05
2.47853e-05
2.47874e-05
2.47866e-05
2.47844e-05
0.00015183
3.69834e-05
3.69828e-05
3.6991e-05
3.69883e-05
2.47875e-05
2.47852e-05
8.28724e-05
4.73841e-05
0.000199573
0.000180505
8.28596e-05
4.73839e-05
0.000199568
3.9231e-05
4.94835e-05
3.92312e-05
4.9486e-05
8.28725e-05
0.000199564
4.73775e-05
0.000180472
8.28592e-05
0.000199561
4.73779e-05
3.92265e-05
4.94908e-05
4.94874e-05
3.92274e-05
8.28489e-05
0.000180494
4.73812e-05
0.000199542
4.73843e-05
0.000199558
8.28559e-05
3.92256e-05
4.94872e-05
4.94839e-05
3.92265e-05
8.28487e-05
0.000180464
0.000199538
4.73754e-05
0.000199553
4.73778e-05
8.2856e-05
3.92233e-05
4.94897e-05
3.92226e-05
4.94919e-05
8.28635e-05
0.000199566
4.73849e-05
0.000180476
8.28524e-05
0.000199557
4.73847e-05
3.92231e-05
4.94875e-05
3.92224e-05
4.94898e-05
8.28387e-05