/*--------------------------------*- C++ -*----------------------------------*\
| =========                 |                                                 |
| \\      /  F ield         | OpenFOAM: The Open Source CFD Toolbox           |
|  \\    /   O peration     | Version:  2206                                  |
|   \\  /    A nd           | Website:  www.openfoam.com                      |
|    \\/     M anipulation  |                                                 |
\*---------------------------------------------------------------------------*/
FoamFile
{
    version     2.0;
    format      ascii;
    arch        "LSB;label=32;scalar=64";
    class       volScalarField;
    location    "25.5";
    object      k;
}
// * * * * * * * * * * * * * * * * * * * * * * * * * * * * * * * * * * * * * //

dimensions      [0 2 -2 0 0 0 0];

internalField   nonuniform List<scalar> 
28335
(
2.7186e-05
2.67241e-05
2.6724e-05
2.61988e-05
2.7186e-05
2.67241e-05
2.67239e-05
2.6199e-05
2.71861e-05
2.67241e-05
2.6724e-05
2.61992e-05
2.71859e-05
2.67243e-05
2.67241e-05
2.61994e-05
2.71856e-05
2.67239e-05
2.67237e-05
2.6199e-05
2.7181e-05
2.67185e-05
2.67184e-05
2.61932e-05
2.71781e-05
2.67154e-05
2.67153e-05
2.61896e-05
2.71781e-05
2.67155e-05
2.67154e-05
2.61896e-05
2.71781e-05
2.67155e-05
2.67154e-05
2.61896e-05
2.71781e-05
2.67155e-05
2.67154e-05
2.61896e-05
2.71781e-05
2.67155e-05
2.67154e-05
2.61896e-05
2.71781e-05
2.67155e-05
2.67154e-05
2.61896e-05
2.71781e-05
2.67155e-05
2.67154e-05
2.61896e-05
2.71781e-05
2.67155e-05
2.67154e-05
2.61896e-05
2.71781e-05
2.67155e-05
2.67154e-05
2.61896e-05
2.71781e-05
2.67155e-05
2.67154e-05
2.61896e-05
2.71781e-05
2.67155e-05
2.67154e-05
2.61896e-05
2.62026e-05
2.67238e-05
2.67238e-05
2.62025e-05
2.67241e-05
2.67235e-05
2.67241e-05
2.67238e-05
2.62023e-05
2.6724e-05
2.67241e-05
2.62023e-05
2.61992e-05
2.62026e-05
2.6724e-05
2.67239e-05
2.67239e-05
2.67238e-05
2.61992e-05
2.62026e-05
2.67242e-05
2.67236e-05
2.67242e-05
2.67236e-05
2.67239e-05
2.67241e-05
2.67239e-05
2.6199e-05
2.62023e-05
2.67242e-05
2.6724e-05
2.67242e-05
2.62025e-05
2.61993e-05
2.62028e-05
2.67242e-05
2.67239e-05
2.67241e-05
2.67239e-05
2.61993e-05
2.62027e-05
2.67243e-05
2.67238e-05
2.67243e-05
2.67238e-05
2.6724e-05
2.67241e-05
2.6724e-05
2.6199e-05
2.62025e-05
2.67243e-05
2.6724e-05
2.67243e-05
2.62027e-05
2.61995e-05
2.6203e-05
2.67242e-05
2.67241e-05
2.67242e-05
2.67241e-05
2.61994e-05
2.6203e-05
2.67245e-05
2.67239e-05
2.67245e-05
2.67239e-05
2.67242e-05
2.67243e-05
2.67242e-05
2.61992e-05
2.62027e-05
2.67245e-05
2.67241e-05
2.67244e-05
2.62029e-05
2.61998e-05
2.62029e-05
2.67242e-05
2.67243e-05
2.67238e-05
2.67239e-05
2.61997e-05
2.62029e-05
2.67246e-05
2.67239e-05
2.67242e-05
2.67235e-05
2.67243e-05
2.6724e-05
2.67239e-05
2.61995e-05
2.62026e-05
2.67245e-05
2.67239e-05
2.67241e-05
2.62028e-05
2.61995e-05
2.61984e-05
2.67237e-05
2.67237e-05
2.67202e-05
2.67201e-05
2.61994e-05
2.61984e-05
2.6724e-05
2.67234e-05
2.67205e-05
2.67199e-05
2.67237e-05
2.67206e-05
2.67202e-05
2.61991e-05
2.61981e-05
2.67239e-05
2.67205e-05
2.67204e-05
2.61983e-05
2.61936e-05
2.61932e-05
2.67182e-05
2.67181e-05
2.67152e-05
2.67152e-05
2.61936e-05
2.61931e-05
2.67184e-05
2.67179e-05
2.67155e-05
2.67149e-05
2.67181e-05
2.67155e-05
2.67152e-05
2.61933e-05
2.61928e-05
2.67184e-05
2.67154e-05
2.67155e-05
2.61932e-05
2.61898e-05
2.61932e-05
2.67153e-05
2.67152e-05
2.67152e-05
2.67151e-05
2.61897e-05
2.61932e-05
2.67156e-05
2.6715e-05
2.67155e-05
2.67149e-05
2.67153e-05
2.67155e-05
2.67152e-05
2.61895e-05
2.61929e-05
2.67155e-05
2.67154e-05
2.67154e-05
2.61932e-05
2.61899e-05
2.61931e-05
2.67153e-05
2.67152e-05
2.67152e-05
2.67151e-05
2.61899e-05
2.61931e-05
2.67156e-05
2.6715e-05
2.67155e-05
2.67149e-05
2.67153e-05
2.67155e-05
2.67152e-05
2.61896e-05
2.61928e-05
2.67155e-05
2.67154e-05
2.67155e-05
2.61932e-05
2.61899e-05
2.61931e-05
2.67153e-05
2.67152e-05
2.67152e-05
2.67151e-05
2.61898e-05
2.61931e-05
2.67156e-05
2.6715e-05
2.67155e-05
2.67149e-05
2.67153e-05
2.67155e-05
2.67152e-05
2.61896e-05
2.61928e-05
2.67156e-05
2.67154e-05
2.67155e-05
2.61932e-05
2.61898e-05
2.61932e-05
2.67153e-05
2.67152e-05
2.67152e-05
2.67151e-05
2.61898e-05
2.61932e-05
2.67156e-05
2.6715e-05
2.67155e-05
2.67149e-05
2.67153e-05
2.67155e-05
2.67152e-05
2.61895e-05
2.61929e-05
2.67156e-05
2.67154e-05
2.67155e-05
2.61932e-05
2.61899e-05
2.61932e-05
2.67153e-05
2.67152e-05
2.67152e-05
2.67151e-05
2.61898e-05
2.61932e-05
2.67156e-05
2.6715e-05
2.67155e-05
2.67149e-05
2.67153e-05
2.67155e-05
2.67152e-05
2.61896e-05
2.61929e-05
2.67156e-05
2.67154e-05
2.67155e-05
2.61932e-05
2.61899e-05
2.61932e-05
2.67153e-05
2.67152e-05
2.67152e-05
2.67151e-05
2.61898e-05
2.61932e-05
2.67156e-05
2.6715e-05
2.67155e-05
2.67149e-05
2.67153e-05
2.67155e-05
2.67152e-05
2.61896e-05
2.61929e-05
2.67156e-05
2.67154e-05
2.67155e-05
2.61932e-05
2.61898e-05
2.61932e-05
2.67153e-05
2.67152e-05
2.67152e-05
2.67151e-05
2.61898e-05
2.61932e-05
2.67156e-05
2.6715e-05
2.67155e-05
2.67149e-05
2.67153e-05
2.67155e-05
2.67152e-05
2.61896e-05
2.61929e-05
2.67156e-05
2.67154e-05
2.67155e-05
2.61932e-05
2.61899e-05
2.61932e-05
2.67153e-05
2.67152e-05
2.67152e-05
2.67151e-05
2.61898e-05
2.61932e-05
2.67156e-05
2.6715e-05
2.67155e-05
2.67149e-05
2.67153e-05
2.67155e-05
2.67152e-05
2.61896e-05
2.61929e-05
2.67156e-05
2.67154e-05
2.67155e-05
2.61932e-05
2.61898e-05
2.61932e-05
2.67153e-05
2.67152e-05
2.67152e-05
2.67151e-05
2.61898e-05
2.61932e-05
2.67156e-05
2.6715e-05
2.67155e-05
2.67149e-05
2.67153e-05
2.67155e-05
2.67152e-05
2.61896e-05
2.61929e-05
2.67156e-05
2.67154e-05
2.67155e-05
2.61932e-05
2.61898e-05
2.61932e-05
2.67153e-05
2.67152e-05
2.67152e-05
2.67151e-05
2.61898e-05
2.61932e-05
2.67156e-05
2.6715e-05
2.67155e-05
2.67149e-05
2.67153e-05
2.67155e-05
2.67152e-05
2.61896e-05
2.61929e-05
2.67156e-05
2.67154e-05
2.67155e-05
2.61932e-05
2.61898e-05
2.67153e-05
2.67152e-05
2.61898e-05
2.67156e-05
2.67149e-05
2.67153e-05
2.61896e-05
2.67155e-05
2.88709e-05
6.9665e-05
8.06959e-05
2.88721e-05
6.96676e-05
2.7186e-05
2.71861e-05
2.7186e-05
2.71861e-05
2.53072e-05
2.67242e-05
2.84541e-05
2.69979e-05
8.06915e-05
2.53075e-05
2.67241e-05
2.69979e-05
2.84546e-05
2.62023e-05
3.38454e-05
3.38468e-05
2.88739e-05
6.96643e-05
2.88752e-05
6.96612e-05
8.06903e-05
8.06872e-05
2.8875e-05
6.96672e-05
2.88761e-05
6.9664e-05
2.71861e-05
2.7186e-05
2.71861e-05
2.7186e-05
2.7186e-05
2.71859e-05
2.7186e-05
2.53079e-05
2.84596e-05
2.69979e-05
2.67242e-05
2.53077e-05
2.84564e-05
2.69979e-05
8.06871e-05
8.06836e-05
2.53081e-05
2.69978e-05
2.84598e-05
2.67241e-05
2.53079e-05
2.69978e-05
2.84568e-05
3.38482e-05
3.38496e-05
2.62024e-05
3.38469e-05
3.38483e-05
2.88752e-05
6.96622e-05
2.88771e-05
6.96597e-05
8.06859e-05
8.06848e-05
2.88757e-05
6.9665e-05
2.88776e-05
6.96625e-05
2.7186e-05
2.71859e-05
2.7186e-05
2.71861e-05
2.71859e-05
2.71858e-05
2.71859e-05
2.53084e-05
2.84611e-05
2.69978e-05
2.67242e-05
2.53082e-05
2.84577e-05
2.69979e-05
8.06823e-05
8.06808e-05
2.53084e-05
2.69977e-05
2.84612e-05
2.6724e-05
2.53085e-05
2.69978e-05
2.8458e-05
3.38506e-05
3.38521e-05
2.62026e-05
3.38502e-05
3.38517e-05
2.8876e-05
6.96614e-05
2.88777e-05
6.96593e-05
8.06851e-05
8.06848e-05
2.88768e-05
6.96643e-05
2.88782e-05
6.9662e-05
2.71861e-05
2.7186e-05
2.71861e-05
2.7186e-05
2.7186e-05
2.71859e-05
2.7186e-05
2.53089e-05
2.84622e-05
2.69978e-05
2.67243e-05
2.53086e-05
2.84586e-05
2.6998e-05
8.06814e-05
8.06809e-05
2.53091e-05
2.69977e-05
2.84621e-05
2.67242e-05
2.53089e-05
2.69979e-05
2.84587e-05
3.38546e-05
3.38561e-05
2.62028e-05
3.38539e-05
3.38555e-05
2.88767e-05
6.96614e-05
2.88787e-05
6.96596e-05
8.06863e-05
8.06867e-05
2.88778e-05
6.96643e-05
2.88795e-05
6.96624e-05
2.7186e-05
2.71859e-05
2.7186e-05
2.71857e-05
2.71857e-05
2.71856e-05
2.71857e-05
2.53094e-05
2.84627e-05
2.69978e-05
2.67242e-05
2.53093e-05
2.84589e-05
2.69978e-05
8.06826e-05
8.06827e-05
2.53097e-05
2.69978e-05
2.84626e-05
2.67241e-05
2.53097e-05
2.69978e-05
2.84591e-05
3.38571e-05
3.38586e-05
2.62031e-05
3.38553e-05
3.38568e-05
2.88749e-05
6.96638e-05
2.8878e-05
6.96642e-05
8.06893e-05
8.06886e-05
2.8876e-05
6.96667e-05
2.88788e-05
6.9667e-05
2.71856e-05
2.71855e-05
2.71856e-05
2.71828e-05
2.71828e-05
2.71828e-05
2.71828e-05
2.53078e-05
2.84626e-05
2.69975e-05
2.67235e-05
2.5309e-05
2.8458e-05
2.69972e-05
8.06857e-05
8.06847e-05
2.53079e-05
2.69974e-05
2.84626e-05
2.67234e-05
2.53089e-05
2.69972e-05
2.84583e-05
3.38566e-05
3.3858e-05
2.62017e-05
3.38542e-05
3.38556e-05
2.88688e-05
6.96688e-05
2.88737e-05
6.9667e-05
8.06874e-05
8.06864e-05
2.88697e-05
6.96713e-05
2.88743e-05
6.96691e-05
2.7181e-05
2.71809e-05
2.7181e-05
2.71782e-05
2.71783e-05
2.71782e-05
2.71782e-05
2.52983e-05
2.84583e-05
2.69925e-05
2.6717e-05
2.5302e-05
2.84518e-05
2.69912e-05
8.06838e-05
8.06823e-05
2.52984e-05
2.69925e-05
2.84583e-05
2.67169e-05
2.5302e-05
2.69911e-05
2.84521e-05
3.38532e-05
3.38546e-05
2.61946e-05
3.38487e-05
3.38501e-05
2.88657e-05
6.96686e-05
2.88684e-05
6.96665e-05
8.06862e-05
8.06856e-05
2.88668e-05
6.96706e-05
2.88693e-05
6.96682e-05
2.71783e-05
2.71782e-05
2.71783e-05
2.71781e-05
2.71782e-05
2.71781e-05
2.71782e-05
2.52978e-05
2.84533e-05
2.69896e-05
2.67155e-05
2.5298e-05
2.84489e-05
2.69897e-05
8.06826e-05
8.06818e-05
2.52978e-05
2.69896e-05
2.84535e-05
2.67154e-05
2.52979e-05
2.69897e-05
2.84494e-05
3.3848e-05
3.38494e-05
2.61932e-05
3.38456e-05
3.3847e-05
2.88654e-05
6.96684e-05
2.88677e-05
6.96663e-05
8.06861e-05
8.06856e-05
2.88666e-05
6.96701e-05
2.88686e-05
6.96679e-05
2.71783e-05
2.71782e-05
2.71782e-05
2.71781e-05
2.71782e-05
2.71781e-05
2.71781e-05
2.52977e-05
2.84526e-05
2.69896e-05
2.67156e-05
2.52978e-05
2.84487e-05
2.69897e-05
8.06826e-05
8.06818e-05
2.52977e-05
2.69896e-05
2.84528e-05
2.67155e-05
2.52978e-05
2.69897e-05
2.84491e-05
3.38473e-05
3.38487e-05
2.61932e-05
3.38453e-05
3.38468e-05
2.88654e-05
6.96683e-05
2.88676e-05
6.96663e-05
8.06861e-05
8.06856e-05
2.88666e-05
6.96699e-05
2.88685e-05
6.96678e-05
2.71783e-05
2.71782e-05
2.71782e-05
2.71781e-05
2.71782e-05
2.71781e-05
2.71781e-05
2.52976e-05
2.84525e-05
2.69896e-05
2.67156e-05
2.52978e-05
2.84487e-05
2.69897e-05
8.06825e-05
8.06818e-05
2.52977e-05
2.69896e-05
2.84527e-05
2.67155e-05
2.52978e-05
2.69897e-05
2.84491e-05
3.38472e-05
3.38487e-05
2.61932e-05
3.38453e-05
3.38468e-05
2.88654e-05
6.96683e-05
2.88676e-05
6.96663e-05
8.06861e-05
8.06857e-05
2.88666e-05
6.96699e-05
2.88685e-05
6.96677e-05
2.71783e-05
2.71782e-05
2.71782e-05
2.71781e-05
2.71782e-05
2.71781e-05
2.71781e-05
2.52976e-05
2.84525e-05
2.69896e-05
2.67156e-05
2.52976e-05
2.84487e-05
2.69897e-05
8.06825e-05
8.06818e-05
2.52977e-05
2.69896e-05
2.84527e-05
2.67155e-05
2.52978e-05
2.69897e-05
2.84491e-05
3.38472e-05
3.38487e-05
2.61932e-05
3.38453e-05
3.38468e-05
2.88654e-05
6.96683e-05
2.88676e-05
6.96663e-05
8.06862e-05
8.06857e-05
2.88666e-05
6.96698e-05
2.88685e-05
6.96677e-05
2.71783e-05
2.71782e-05
2.71782e-05
2.71781e-05
2.71782e-05
2.71781e-05
2.71781e-05
2.52977e-05
2.84525e-05
2.69896e-05
2.67156e-05
2.52978e-05
2.84487e-05
2.69897e-05
8.06825e-05
8.06818e-05
2.52977e-05
2.69896e-05
2.84527e-05
2.67155e-05
2.52978e-05
2.69897e-05
2.84491e-05
3.38472e-05
3.38487e-05
2.61932e-05
3.38453e-05
3.38468e-05
2.88654e-05
6.96683e-05
2.88676e-05
6.96663e-05
8.06862e-05
8.06857e-05
2.88666e-05
6.96698e-05
2.88685e-05
6.96676e-05
2.71783e-05
2.71782e-05
2.71782e-05
2.71781e-05
2.71782e-05
2.71781e-05
2.71781e-05
2.52974e-05
2.84525e-05
2.69896e-05
2.67156e-05
2.52977e-05
2.84487e-05
2.69897e-05
8.06825e-05
8.06818e-05
2.52978e-05
2.69896e-05
2.84527e-05
2.67155e-05
2.52979e-05
2.69897e-05
2.84491e-05
3.38472e-05
3.38487e-05
2.61932e-05
3.38453e-05
3.38468e-05
2.88654e-05
6.96683e-05
2.88676e-05
6.96663e-05
8.06862e-05
8.06858e-05
2.88666e-05
6.96698e-05
2.88685e-05
6.96676e-05
2.71783e-05
2.71782e-05
2.71782e-05
2.71781e-05
2.71782e-05
2.71781e-05
2.71781e-05
2.52975e-05
2.84525e-05
2.69896e-05
2.67156e-05
2.52974e-05
2.84487e-05
2.69897e-05
8.06825e-05
8.06818e-05
2.52978e-05
2.69896e-05
2.84527e-05
2.67155e-05
2.52979e-05
2.69897e-05
2.84491e-05
3.38472e-05
3.38487e-05
2.61932e-05
3.38453e-05
3.38468e-05
2.88654e-05
6.96683e-05
2.88676e-05
6.96663e-05
8.06862e-05
8.06858e-05
2.88666e-05
6.96698e-05
2.88685e-05
6.96676e-05
2.71783e-05
2.71782e-05
2.71782e-05
2.71781e-05
2.71782e-05
2.71781e-05
2.71781e-05
2.52977e-05
2.84525e-05
2.69896e-05
2.67156e-05
2.52978e-05
2.84487e-05
2.69897e-05
8.06825e-05
8.06818e-05
2.52977e-05
2.69896e-05
2.84527e-05
2.67155e-05
2.52979e-05
2.69897e-05
2.84491e-05
3.38472e-05
3.38487e-05
2.61932e-05
3.38453e-05
3.38468e-05
2.88654e-05
6.96683e-05
2.88676e-05
6.96663e-05
8.06862e-05
8.06858e-05
2.88666e-05
6.96698e-05
2.88685e-05
6.96676e-05
2.71783e-05
2.71782e-05
2.71782e-05
2.71781e-05
2.71782e-05
2.71781e-05
2.71781e-05
2.52977e-05
2.84525e-05
2.69896e-05
2.67156e-05
2.52978e-05
2.84487e-05
2.69897e-05
8.06825e-05
8.06818e-05
2.52976e-05
2.69896e-05
2.84527e-05
2.67155e-05
2.52977e-05
2.69897e-05
2.84491e-05
3.38472e-05
3.38487e-05
2.61932e-05
3.38453e-05
3.38468e-05
2.88654e-05
6.96683e-05
2.88676e-05
6.96663e-05
8.06862e-05
8.06858e-05
2.88666e-05
6.96698e-05
2.88685e-05
6.96676e-05
2.71783e-05
2.71782e-05
2.71782e-05
2.71781e-05
2.71782e-05
2.71781e-05
2.71781e-05
2.52977e-05
2.84525e-05
2.69896e-05
2.67156e-05
2.52978e-05
2.84487e-05
2.69897e-05
8.06825e-05
8.06818e-05
2.52975e-05
2.69896e-05
2.84527e-05
2.67155e-05
2.52977e-05
2.69897e-05
2.84491e-05
3.38472e-05
3.38487e-05
2.61932e-05
3.38453e-05
3.38468e-05
2.88654e-05
6.96683e-05
2.88676e-05
6.96663e-05
8.06862e-05
8.06858e-05
2.88666e-05
6.96698e-05
2.88685e-05
6.96677e-05
2.71783e-05
2.71781e-05
2.71782e-05
2.52979e-05
2.84525e-05
2.69896e-05
2.67156e-05
2.52978e-05
2.84487e-05
2.69898e-05
8.06826e-05
8.06819e-05
2.52976e-05
2.69895e-05
2.84527e-05
2.67155e-05
2.52976e-05
2.69897e-05
2.84492e-05
3.38472e-05
3.38487e-05
2.61934e-05
3.38469e-05
3.38483e-05
8.06961e-05
8.06953e-05
2.62026e-05
3.38459e-05
3.3846e-05
8.06908e-05
8.06956e-05
8.069e-05
8.06948e-05
2.61993e-05
3.38462e-05
3.3847e-05
3.38477e-05
3.38482e-05
2.88713e-05
6.96679e-05
2.53075e-05
2.67239e-05
2.84548e-05
2.6998e-05
2.53076e-05
2.67238e-05
2.84557e-05
2.6998e-05
2.88738e-05
6.96627e-05
6.96663e-05
2.88726e-05
2.88742e-05
6.96655e-05
6.96691e-05
2.8873e-05
2.5308e-05
2.67239e-05
2.84561e-05
2.69979e-05
2.8459e-05
2.69979e-05
2.53077e-05
2.53081e-05
2.67238e-05
2.84571e-05
2.69979e-05
2.846e-05
2.69979e-05
2.53079e-05
2.62026e-05
3.3847e-05
3.38386e-05
8.06919e-05
8.06905e-05
8.06954e-05
2.61992e-05
3.38476e-05
3.38409e-05
3.38487e-05
3.38412e-05
8.06871e-05
8.06922e-05
2.53079e-05
2.67242e-05
2.84557e-05
2.6998e-05
2.88716e-05
6.96643e-05
2.53077e-05
2.67236e-05
2.69979e-05
2.84545e-05
2.88747e-05
6.96655e-05
6.96692e-05
2.88738e-05
2.53084e-05
2.67241e-05
2.8457e-05
2.69979e-05
2.84598e-05
2.69979e-05
2.53082e-05
2.88742e-05
6.96617e-05
6.96655e-05
2.88733e-05
2.53081e-05
2.67236e-05
2.69978e-05
2.84558e-05
2.69978e-05
2.84589e-05
2.5308e-05
2.88711e-05
6.96644e-05
2.53074e-05
2.67239e-05
2.6998e-05
2.84546e-05
2.8871e-05
6.96665e-05
2.53076e-05
2.67242e-05
2.84555e-05
2.69979e-05
2.84586e-05
2.69979e-05
2.53076e-05
2.8874e-05
6.96625e-05
6.96661e-05
2.88728e-05
2.53079e-05
2.67239e-05
2.69979e-05
2.84559e-05
2.69979e-05
2.84588e-05
2.53077e-05
2.88739e-05
6.96641e-05
6.96678e-05
2.88727e-05
2.62023e-05
3.38407e-05
3.38452e-05
8.06959e-05
8.06868e-05
8.06918e-05
2.6199e-05
3.38425e-05
3.3846e-05
3.38431e-05
3.38473e-05
8.06906e-05
8.06954e-05
2.53079e-05
2.67242e-05
2.6998e-05
2.84555e-05
2.88718e-05
6.9667e-05
2.88719e-05
6.96691e-05
2.5308e-05
2.67241e-05
2.69978e-05
2.84559e-05
2.69979e-05
2.84588e-05
2.53078e-05
2.53084e-05
2.67242e-05
2.69979e-05
2.84568e-05
2.69979e-05
2.84598e-05
2.53082e-05
2.88744e-05
6.96645e-05
6.96682e-05
2.88734e-05
2.88746e-05
6.96667e-05
6.96703e-05
2.88736e-05
8.06959e-05
8.06955e-05
2.6199e-05
3.38461e-05
3.38476e-05
3.38474e-05
3.38488e-05
8.06906e-05
8.06954e-05
8.06901e-05
8.0695e-05
8.06909e-05
8.06877e-05
8.06901e-05
8.06869e-05
3.38479e-05
3.38488e-05
2.62026e-05
3.38468e-05
3.38478e-05
8.0686e-05
8.06881e-05
8.06853e-05
8.06873e-05
2.61993e-05
3.38484e-05
3.38493e-05
3.38488e-05
3.38498e-05
2.88743e-05
6.96669e-05
2.88757e-05
6.96639e-05
2.53082e-05
2.84602e-05
2.6998e-05
2.6724e-05
2.53082e-05
2.84571e-05
2.6998e-05
2.53084e-05
2.84612e-05
2.6998e-05
2.67239e-05
2.53084e-05
2.84581e-05
2.6998e-05
2.88766e-05
6.96603e-05
6.96628e-05
2.88748e-05
2.88769e-05
6.9663e-05
6.96655e-05
2.8875e-05
2.53086e-05
2.6724e-05
2.84578e-05
2.69979e-05
2.84611e-05
2.69979e-05
2.53087e-05
2.53088e-05
2.67238e-05
2.84588e-05
2.69979e-05
2.84621e-05
2.6998e-05
2.53087e-05
3.38497e-05
3.38435e-05
2.62025e-05
3.38491e-05
3.3843e-05
8.06875e-05
8.06839e-05
8.06857e-05
8.06877e-05
2.61992e-05
3.38507e-05
3.38444e-05
3.38513e-05
3.38454e-05
8.06819e-05
8.06845e-05
2.53089e-05
2.8461e-05
2.6998e-05
2.67242e-05
2.53087e-05
2.8458e-05
2.6998e-05
2.88745e-05
6.96633e-05
2.88758e-05
6.96603e-05
2.53085e-05
2.69979e-05
2.84602e-05
2.67236e-05
2.53085e-05
2.69979e-05
2.84568e-05
2.88774e-05
6.96631e-05
6.96657e-05
2.88756e-05
2.53094e-05
2.67242e-05
2.84587e-05
2.69979e-05
2.84619e-05
2.6998e-05
2.53092e-05
2.88769e-05
6.96594e-05
6.96621e-05
2.88751e-05
2.53089e-05
2.67236e-05
2.69978e-05
2.84576e-05
2.69979e-05
2.84611e-05
2.53087e-05
2.88741e-05
6.96641e-05
2.88756e-05
6.9661e-05
2.53084e-05
2.6998e-05
2.846e-05
2.67239e-05
2.53082e-05
2.6998e-05
2.84568e-05
2.8874e-05
6.96655e-05
2.88754e-05
6.96626e-05
2.53084e-05
2.67242e-05
2.84571e-05
2.69978e-05
2.84607e-05
2.69979e-05
2.53082e-05
2.88767e-05
6.96601e-05
6.96628e-05
2.88749e-05
2.5309e-05
2.67239e-05
2.69979e-05
2.84575e-05
2.69979e-05
2.84609e-05
2.53087e-05
2.88766e-05
6.96617e-05
6.96642e-05
2.88748e-05
3.3845e-05
3.38478e-05
2.62023e-05
3.38445e-05
3.38467e-05
8.06906e-05
8.06875e-05
8.06817e-05
8.06843e-05
2.6199e-05
3.38459e-05
3.38482e-05
3.38468e-05
3.38487e-05
8.06858e-05
8.06879e-05
2.53087e-05
2.6998e-05
2.8461e-05
2.67242e-05
2.53087e-05
2.6998e-05
2.84578e-05
2.88746e-05
6.96659e-05
2.88759e-05
6.9663e-05
2.88748e-05
6.96681e-05
2.88761e-05
6.96653e-05
2.53086e-05
2.67241e-05
2.69977e-05
2.84575e-05
2.69978e-05
2.84608e-05
2.53085e-05
2.53092e-05
2.67242e-05
2.69979e-05
2.84585e-05
2.69979e-05
2.84618e-05
2.53088e-05
2.8877e-05
6.96621e-05
6.96646e-05
2.88753e-05
2.88772e-05
6.96644e-05
6.96669e-05
2.88755e-05
8.06906e-05
8.06875e-05
8.06902e-05
8.06871e-05
2.61991e-05
3.38483e-05
3.38498e-05
3.38489e-05
3.38503e-05
8.06858e-05
8.06879e-05
8.06854e-05
8.06875e-05
8.06867e-05
8.06851e-05
8.06859e-05
8.06843e-05
3.38505e-05
3.38515e-05
2.62027e-05
3.38505e-05
3.38514e-05
8.06848e-05
8.06859e-05
8.06841e-05
8.06852e-05
2.61994e-05
3.38526e-05
3.38535e-05
3.38527e-05
3.38536e-05
2.88754e-05
6.96647e-05
2.88775e-05
6.96624e-05
2.53091e-05
2.84618e-05
2.6998e-05
2.67242e-05
2.53092e-05
2.84584e-05
2.6998e-05
2.53092e-05
2.84628e-05
2.69979e-05
2.67239e-05
2.53092e-05
2.84594e-05
2.69979e-05
2.88776e-05
6.96594e-05
6.96615e-05
2.88755e-05
2.88778e-05
6.96621e-05
6.96642e-05
2.88757e-05
2.53097e-05
2.67241e-05
2.84588e-05
2.6998e-05
2.84624e-05
2.6998e-05
2.53092e-05
2.53097e-05
2.67239e-05
2.84598e-05
2.69979e-05
2.84634e-05
2.69979e-05
2.53093e-05
3.38529e-05
3.38468e-05
2.62027e-05
3.38525e-05
3.38465e-05
8.06828e-05
8.0681e-05
8.06846e-05
8.06857e-05
2.61994e-05
3.38545e-05
3.38488e-05
3.38548e-05
3.38491e-05
8.06808e-05
8.06821e-05
2.53094e-05
2.84626e-05
2.6998e-05
2.67243e-05
2.53095e-05
2.84593e-05
2.6998e-05
2.88753e-05
6.96613e-05
2.88773e-05
6.96588e-05
2.53092e-05
2.69978e-05
2.84618e-05
2.67238e-05
2.53092e-05
2.69978e-05
2.84582e-05
2.88779e-05
6.96621e-05
6.96643e-05
2.88761e-05
2.53099e-05
2.67243e-05
2.84597e-05
2.6998e-05
2.84632e-05
2.6998e-05
2.53095e-05
2.88775e-05
6.96585e-05
6.96607e-05
2.88758e-05
2.53096e-05
2.67238e-05
2.69978e-05
2.84587e-05
2.69978e-05
2.84624e-05
2.53093e-05
2.88753e-05
6.9662e-05
2.88774e-05
6.96595e-05
2.53089e-05
2.6998e-05
2.84615e-05
2.6724e-05
2.5309e-05
2.69979e-05
2.84581e-05
2.88753e-05
6.96634e-05
2.88774e-05
6.96611e-05
2.53089e-05
2.67242e-05
2.84582e-05
2.69978e-05
2.84619e-05
2.69978e-05
2.53086e-05
2.88777e-05
6.96592e-05
6.96614e-05
2.88756e-05
2.53094e-05
2.6724e-05
2.69979e-05
2.84585e-05
2.69979e-05
2.84621e-05
2.5309e-05
2.88777e-05
6.96607e-05
6.96628e-05
2.88756e-05
3.38483e-05
3.38504e-05
2.62024e-05
3.38478e-05
3.38503e-05
8.06865e-05
8.06849e-05
8.06806e-05
8.06819e-05
2.61991e-05
3.385e-05
3.38524e-05
3.38503e-05
3.38526e-05
8.06845e-05
8.06857e-05
2.5309e-05
2.6998e-05
2.84625e-05
2.67243e-05
2.53091e-05
2.69979e-05
2.8459e-05
2.88754e-05
6.96638e-05
2.88775e-05
6.96615e-05
2.88757e-05
6.96661e-05
2.88777e-05
6.96637e-05
2.53089e-05
2.6724e-05
2.69977e-05
2.84584e-05
2.69978e-05
2.8462e-05
2.53088e-05
2.53095e-05
2.67243e-05
2.69978e-05
2.84594e-05
2.69978e-05
2.8463e-05
2.53093e-05
2.88776e-05
6.96611e-05
6.96632e-05
2.88758e-05
2.88779e-05
6.96633e-05
6.96655e-05
2.8876e-05
8.06864e-05
8.06848e-05
8.0686e-05
8.06844e-05
2.61993e-05
3.38523e-05
3.38538e-05
3.38525e-05
3.38539e-05
8.06845e-05
8.06857e-05
8.06841e-05
8.06853e-05
8.06858e-05
8.0685e-05
8.0685e-05
8.06843e-05
3.38548e-05
3.38556e-05
2.62029e-05
3.38543e-05
3.38551e-05
8.06858e-05
8.06862e-05
8.06851e-05
8.06854e-05
2.61996e-05
3.38553e-05
3.38562e-05
3.38562e-05
3.38571e-05
2.88763e-05
6.9664e-05
2.88782e-05
6.9662e-05
2.53096e-05
2.84627e-05
2.69981e-05
2.67242e-05
2.53096e-05
2.84591e-05
2.69981e-05
2.53098e-05
2.84637e-05
2.6998e-05
2.67241e-05
2.53097e-05
2.84601e-05
2.6998e-05
2.88785e-05
6.96593e-05
6.96611e-05
2.88765e-05
2.88789e-05
6.96621e-05
6.96639e-05
2.88769e-05
2.531e-05
2.67242e-05
2.84594e-05
2.6998e-05
2.8463e-05
2.69981e-05
2.53101e-05
2.53102e-05
2.67241e-05
2.84604e-05
2.69979e-05
2.8464e-05
2.69979e-05
2.53102e-05
3.38567e-05
3.38513e-05
2.62028e-05
3.38561e-05
3.38504e-05
8.06821e-05
8.06811e-05
8.06856e-05
8.06859e-05
2.61995e-05
3.38571e-05
3.38513e-05
3.38582e-05
3.38526e-05
8.06819e-05
8.06825e-05
2.531e-05
2.84636e-05
2.69981e-05
2.67245e-05
2.53099e-05
2.846e-05
2.69981e-05
2.88765e-05
6.96606e-05
2.8878e-05
6.96585e-05
2.53099e-05
2.6998e-05
2.84629e-05
2.67239e-05
2.53097e-05
2.69979e-05
2.84591e-05
2.88792e-05
6.96622e-05
6.9664e-05
2.88775e-05
2.53105e-05
2.67245e-05
2.84603e-05
2.69981e-05
2.84639e-05
2.69981e-05
2.53105e-05
2.88789e-05
6.96586e-05
6.96605e-05
2.88772e-05
2.53104e-05
2.67239e-05
2.69978e-05
2.84593e-05
2.69979e-05
2.84632e-05
2.53103e-05
2.88761e-05
6.96612e-05
2.8878e-05
6.96591e-05
2.53094e-05
2.6998e-05
2.84624e-05
2.67242e-05
2.53094e-05
2.69979e-05
2.84588e-05
2.88761e-05
6.96626e-05
2.8878e-05
6.96606e-05
2.53094e-05
2.67243e-05
2.84588e-05
2.69979e-05
2.84627e-05
2.69979e-05
2.53092e-05
2.88786e-05
6.96592e-05
6.96612e-05
2.88766e-05
2.53099e-05
2.67242e-05
2.69978e-05
2.84591e-05
2.69979e-05
2.84627e-05
2.53099e-05
2.88787e-05
6.96608e-05
6.96625e-05
2.88767e-05
3.38524e-05
3.38546e-05
2.62026e-05
3.38516e-05
3.38541e-05
8.06855e-05
8.06848e-05
8.06816e-05
8.06823e-05
2.61993e-05
3.38526e-05
3.38551e-05
3.38539e-05
3.38561e-05
8.06856e-05
8.06859e-05
2.53099e-05
2.69979e-05
2.84633e-05
2.67245e-05
2.53097e-05
2.69979e-05
2.84596e-05
2.88764e-05
6.9663e-05
2.8878e-05
6.9661e-05
2.88767e-05
6.96651e-05
2.88783e-05
6.96631e-05
2.53095e-05
2.67242e-05
2.69979e-05
2.8459e-05
2.69979e-05
2.84626e-05
2.53097e-05
2.53104e-05
2.67244e-05
2.69979e-05
2.84598e-05
2.69979e-05
2.84635e-05
2.53102e-05
2.88788e-05
6.96611e-05
6.96629e-05
2.88771e-05
2.8879e-05
6.96632e-05
6.9665e-05
2.88773e-05
8.06855e-05
8.06848e-05
8.06851e-05
8.06843e-05
2.61996e-05
3.3855e-05
3.38565e-05
3.38559e-05
3.38574e-05
8.06855e-05
8.06859e-05
8.06851e-05
8.06855e-05
8.0687e-05
8.0687e-05
8.06862e-05
8.06862e-05
3.38572e-05
3.38581e-05
2.62032e-05
3.38556e-05
3.38565e-05
8.0689e-05
8.06885e-05
8.06882e-05
8.06877e-05
2.61999e-05
3.38551e-05
3.38559e-05
3.38572e-05
3.38581e-05
2.88772e-05
6.96641e-05
2.88794e-05
6.96623e-05
2.53099e-05
2.84632e-05
2.6998e-05
2.67241e-05
2.53106e-05
2.84596e-05
2.69979e-05
2.53101e-05
2.84643e-05
2.69978e-05
2.67242e-05
2.53107e-05
2.84606e-05
2.69978e-05
2.8879e-05
6.96611e-05
6.96616e-05
2.88761e-05
2.88795e-05
6.96639e-05
6.96644e-05
2.88765e-05
2.53098e-05
2.6724e-05
2.84594e-05
2.69977e-05
2.84634e-05
2.69977e-05
2.53088e-05
2.531e-05
2.67241e-05
2.84604e-05
2.69976e-05
2.84645e-05
2.69977e-05
2.5309e-05
3.38591e-05
3.38534e-05
2.62031e-05
3.38574e-05
3.38514e-05
8.06833e-05
8.06829e-05
8.06886e-05
8.06881e-05
2.61998e-05
3.38568e-05
3.38509e-05
3.3859e-05
3.38533e-05
8.06849e-05
8.06847e-05
2.53102e-05
2.84641e-05
2.69981e-05
2.67246e-05
2.5311e-05
2.84605e-05
2.6998e-05
2.88774e-05
6.96607e-05
2.88794e-05
6.96588e-05
2.53101e-05
2.69978e-05
2.84635e-05
2.67238e-05
2.53106e-05
2.69977e-05
2.84595e-05
2.88798e-05
6.9664e-05
6.96646e-05
2.88771e-05
2.53101e-05
2.67244e-05
2.84603e-05
2.69977e-05
2.84643e-05
2.69978e-05
2.53091e-05
2.88795e-05
6.96604e-05
6.96611e-05
2.88767e-05
2.531e-05
2.67237e-05
2.69975e-05
2.84592e-05
2.69976e-05
2.84636e-05
2.53089e-05
2.88769e-05
6.96613e-05
2.88791e-05
6.96595e-05
2.53099e-05
2.69978e-05
2.8463e-05
2.67242e-05
2.53104e-05
2.69978e-05
2.84593e-05
2.88769e-05
6.96627e-05
2.88791e-05
6.9661e-05
2.53099e-05
2.67241e-05
2.84588e-05
2.69976e-05
2.8463e-05
2.69977e-05
2.53092e-05
2.88793e-05
6.9661e-05
6.96617e-05
2.88764e-05
2.53098e-05
2.6724e-05
2.69976e-05
2.84591e-05
2.69977e-05
2.84631e-05
2.5309e-05
2.88792e-05
6.96625e-05
6.96631e-05
2.88762e-05
3.38547e-05
3.3857e-05
2.62028e-05
3.38527e-05
3.38554e-05
8.06867e-05
8.06867e-05
8.06846e-05
8.06844e-05
2.61995e-05
3.38521e-05
3.38549e-05
3.38545e-05
3.3857e-05
8.06887e-05
8.06882e-05
2.53099e-05
2.69979e-05
2.84637e-05
2.67244e-05
2.53105e-05
2.69979e-05
2.846e-05
2.88774e-05
6.96631e-05
2.88793e-05
6.96613e-05
2.88775e-05
6.96651e-05
2.88795e-05
6.96633e-05
2.53101e-05
2.6724e-05
2.69976e-05
2.84591e-05
2.69976e-05
2.8463e-05
2.53091e-05
2.53099e-05
2.67243e-05
2.69977e-05
2.84598e-05
2.69978e-05
2.84639e-05
2.5309e-05
2.88795e-05
6.96629e-05
6.96634e-05
2.88768e-05
2.88795e-05
6.96648e-05
6.96654e-05
2.88767e-05
8.06867e-05
8.06867e-05
8.06863e-05
8.06862e-05
2.61998e-05
3.38548e-05
3.38562e-05
3.38569e-05
3.38583e-05
8.06887e-05
8.06882e-05
8.06882e-05
8.06877e-05
8.06901e-05
8.06889e-05
8.06893e-05
8.06881e-05
3.38566e-05
3.38575e-05
2.62017e-05
3.38545e-05
3.38553e-05
8.06875e-05
8.06894e-05
8.06867e-05
8.06886e-05
2.61976e-05
3.38524e-05
3.38532e-05
3.38558e-05
3.38567e-05
2.88753e-05
6.96664e-05
2.88786e-05
6.96669e-05
2.53075e-05
2.84631e-05
2.69975e-05
2.67233e-05
2.53086e-05
2.84585e-05
2.69972e-05
2.53077e-05
2.84641e-05
2.69975e-05
2.67233e-05
2.53088e-05
2.84595e-05
2.69972e-05
2.8877e-05
6.96665e-05
6.96667e-05
2.88724e-05
2.88774e-05
6.96695e-05
6.96695e-05
2.88727e-05
2.53072e-05
2.67223e-05
2.84557e-05
2.69944e-05
2.84619e-05
2.69963e-05
2.53032e-05
2.53074e-05
2.67222e-05
2.84567e-05
2.69944e-05
2.84629e-05
2.69963e-05
2.53033e-05
3.38585e-05
3.38528e-05
2.62017e-05
3.38561e-05
3.38503e-05
8.06864e-05
8.06849e-05
8.06873e-05
8.06892e-05
2.61975e-05
3.38541e-05
3.38483e-05
3.38576e-05
3.3852e-05
8.06834e-05
8.06857e-05
2.5308e-05
2.8464e-05
2.69976e-05
2.67236e-05
2.53089e-05
2.84594e-05
2.69972e-05
2.88756e-05
6.9663e-05
2.88786e-05
6.96634e-05
2.53078e-05
2.69974e-05
2.84632e-05
2.6723e-05
2.53088e-05
2.69971e-05
2.84583e-05
2.88778e-05
6.9669e-05
6.96696e-05
2.88733e-05
2.53077e-05
2.67225e-05
2.84566e-05
2.69944e-05
2.84628e-05
2.69963e-05
2.53035e-05
2.88774e-05
6.96659e-05
6.96661e-05
2.88729e-05
2.53075e-05
2.6722e-05
2.69943e-05
2.84556e-05
2.69962e-05
2.8462e-05
2.53033e-05
2.88753e-05
6.96637e-05
2.88785e-05
6.9664e-05
2.53077e-05
2.69975e-05
2.84629e-05
2.67233e-05
2.53088e-05
2.69972e-05
2.84582e-05
2.88751e-05
6.9665e-05
2.88784e-05
6.96656e-05
2.53074e-05
2.67226e-05
2.84553e-05
2.69945e-05
2.84617e-05
2.69964e-05
2.53032e-05
2.88773e-05
6.96666e-05
6.96668e-05
2.88726e-05
2.53073e-05
2.67223e-05
2.69944e-05
2.84555e-05
2.69963e-05
2.84617e-05
2.53032e-05
2.88771e-05
6.96681e-05
6.96681e-05
2.88724e-05
3.38539e-05
3.38565e-05
2.62014e-05
3.38514e-05
3.38543e-05
8.06898e-05
8.06886e-05
8.06832e-05
8.06855e-05
2.61973e-05
3.38494e-05
3.38522e-05
3.38531e-05
3.38557e-05
8.06872e-05
8.06892e-05
2.53078e-05
2.69976e-05
2.84636e-05
2.67235e-05
2.53089e-05
2.69972e-05
2.84589e-05
2.88757e-05
6.96654e-05
2.88787e-05
6.96659e-05
2.88756e-05
6.96673e-05
2.88787e-05
6.96679e-05
2.53075e-05
2.67225e-05
2.69945e-05
2.84556e-05
2.69963e-05
2.84617e-05
2.53033e-05
2.53075e-05
2.67225e-05
2.69944e-05
2.84562e-05
2.69963e-05
2.84624e-05
2.53032e-05
2.88775e-05
6.96685e-05
6.96685e-05
2.8873e-05
2.88774e-05
6.96704e-05
6.96704e-05
2.88729e-05
8.06898e-05
8.06886e-05
8.06893e-05
8.06881e-05
2.61976e-05
3.38521e-05
3.38536e-05
3.38556e-05
3.3857e-05
8.06872e-05
8.06891e-05
8.06868e-05
8.06887e-05
8.06881e-05
8.06865e-05
8.06873e-05
8.06857e-05
3.38532e-05
3.38541e-05
2.61946e-05
3.38488e-05
3.38497e-05
8.06861e-05
8.06873e-05
8.06853e-05
8.06865e-05
2.61906e-05
3.38465e-05
3.38473e-05
3.38498e-05
3.38506e-05
2.88691e-05
6.96716e-05
2.88742e-05
6.967e-05
2.52982e-05
2.84587e-05
2.69925e-05
2.67167e-05
2.53021e-05
2.84522e-05
2.69912e-05
2.52984e-05
2.84597e-05
2.69925e-05
2.67167e-05
2.53021e-05
2.84532e-05
2.69912e-05
2.88705e-05
6.96667e-05
6.96688e-05
2.88666e-05
2.88708e-05
6.96696e-05
6.96718e-05
2.88669e-05
2.52984e-05
2.67157e-05
2.84503e-05
2.69897e-05
2.84554e-05
2.69901e-05
2.52977e-05
2.52985e-05
2.67156e-05
2.84512e-05
2.69897e-05
2.84564e-05
2.69901e-05
2.52978e-05
3.3855e-05
3.38496e-05
2.61946e-05
3.38505e-05
3.38446e-05
8.06843e-05
8.06825e-05
8.06858e-05
8.06871e-05
2.61906e-05
3.38481e-05
3.38419e-05
3.38515e-05
3.38457e-05
8.06822e-05
8.06836e-05
2.52986e-05
2.84598e-05
2.69925e-05
2.6717e-05
2.53023e-05
2.84533e-05
2.69912e-05
2.88693e-05
6.96682e-05
2.88742e-05
6.96665e-05
2.52984e-05
2.69924e-05
2.84588e-05
2.67164e-05
2.53021e-05
2.6991e-05
2.84521e-05
2.88712e-05
6.96686e-05
6.9671e-05