/*--------------------------------*- C++ -*----------------------------------*\
| =========                 |                                                 |
| \\      /  F ield         | OpenFOAM: The Open Source CFD Toolbox           |
|  \\    /   O peration     | Version:  2206                                  |
|   \\  /    A nd           | Website:  www.openfoam.com                      |
|    \\/     M anipulation  |                                                 |
\*---------------------------------------------------------------------------*/
FoamFile
{
    version     2.0;
    format      ascii;
    arch        "LSB;label=32;scalar=64";
    class       volScalarField;
    location    "38.5";
    object      k;
}
// * * * * * * * * * * * * * * * * * * * * * * * * * * * * * * * * * * * * * //

dimensions      [0 2 -2 0 0 0 0];

internalField   nonuniform List<scalar> 
171728
(
3.58932e-05
3.58912e-05
3.58912e-05
3.59955e-05
3.39294e-05
3.38889e-05
3.38889e-05
3.3962e-05
3.21584e-05
3.20086e-05
3.20086e-05
3.1952e-05
3.0537e-05
3.02306e-05
3.02305e-05
2.99882e-05
2.90294e-05
2.85509e-05
2.85508e-05
2.81212e-05
2.76339e-05
2.69882e-05
2.69881e-05
2.63934e-05
2.63431e-05
2.55366e-05
2.55364e-05
2.48047e-05
2.50863e-05
2.41725e-05
2.41723e-05
2.33968e-05
2.39211e-05
2.29273e-05
2.29271e-05
2.2083e-05
2.35312e-05
2.26682e-05
2.2668e-05
2.1866e-05
2.34904e-05
2.26993e-05
2.26991e-05
2.19886e-05
2.34905e-05
2.27108e-05
2.27106e-05
2.20111e-05
2.34974e-05
2.2719e-05
2.27189e-05
2.20182e-05
2.34976e-05
2.27195e-05
2.27194e-05
2.20213e-05
2.34978e-05
2.27198e-05
2.27196e-05
2.20214e-05
2.34978e-05
2.272e-05
2.27198e-05
2.20218e-05
2.34979e-05
2.27202e-05
2.27199e-05
2.2022e-05
2.34979e-05
2.27204e-05
2.27201e-05
2.20222e-05
2.34979e-05
2.27205e-05
2.27202e-05
2.20224e-05
2.34976e-05
2.27203e-05
2.27199e-05
2.20226e-05
2.34971e-05
2.27193e-05
2.27193e-05
2.20213e-05
2.34927e-05
2.27141e-05
2.27144e-05
2.20164e-05
2.34913e-05
2.2713e-05
2.27129e-05
2.20144e-05
2.34914e-05
2.27131e-05
2.27129e-05
2.20145e-05
2.34914e-05
2.27131e-05
2.27129e-05
2.20144e-05
2.34914e-05
2.27131e-05
2.2713e-05
2.20144e-05
2.34914e-05
2.27131e-05
2.2713e-05
2.20144e-05
2.34914e-05
2.27131e-05
2.2713e-05
2.20144e-05
2.34914e-05
2.27131e-05
2.2713e-05
2.20144e-05
2.34914e-05
2.27131e-05
2.2713e-05
2.20144e-05
2.34978e-05
2.272e-05
2.27198e-05
2.20215e-05
2.34979e-05
2.27201e-05
2.27199e-05
2.20215e-05
2.3498e-05
2.27203e-05
2.27199e-05
2.20217e-05
2.34981e-05
2.27204e-05
2.27201e-05
2.2022e-05
2.34979e-05
2.27205e-05
2.27201e-05
2.20223e-05
2.34979e-05
2.27205e-05
2.27202e-05
2.20225e-05
2.34978e-05
2.27205e-05
2.27201e-05
2.20227e-05
2.34976e-05
2.27203e-05
2.27199e-05
2.20224e-05
2.34953e-05
2.27181e-05
2.27171e-05
2.20193e-05
2.34915e-05
2.27135e-05
2.27131e-05
2.2015e-05
2.34914e-05
2.2713e-05
2.27129e-05
2.20143e-05
2.34914e-05
2.27131e-05
2.27129e-05
2.20144e-05
2.34914e-05
2.27131e-05
2.27129e-05
2.20145e-05
2.34914e-05
2.27131e-05
2.2713e-05
2.20144e-05
2.34914e-05
2.27131e-05
2.2713e-05
2.20144e-05
2.34914e-05
2.27131e-05
2.2713e-05
2.20144e-05
2.34914e-05
2.27131e-05
2.2713e-05
2.20144e-05
2.34915e-05
2.27132e-05
2.2713e-05
2.20144e-05
2.34978e-05
2.27198e-05
2.27197e-05
2.20175e-05
2.34978e-05
2.272e-05
2.27198e-05
2.20201e-05
2.34979e-05
2.27201e-05
2.27199e-05
2.20217e-05
2.3498e-05
2.27202e-05
2.272e-05
2.20219e-05
2.3498e-05
2.27203e-05
2.27201e-05
2.20222e-05
2.34978e-05
2.27205e-05
2.27202e-05
2.20224e-05
2.34977e-05
2.27203e-05
2.27201e-05
2.20226e-05
2.34974e-05
2.27199e-05
2.27197e-05
2.2022e-05
2.34939e-05
2.27158e-05
2.27156e-05
2.20177e-05
2.34914e-05
2.27131e-05
2.27129e-05
2.20146e-05
2.34914e-05
2.27131e-05
2.27129e-05
2.20144e-05
2.34914e-05
2.27131e-05
2.27129e-05
2.20143e-05
2.34914e-05
2.27131e-05
2.2713e-05
2.20144e-05
2.34914e-05
2.27131e-05
2.2713e-05
2.20144e-05
2.34914e-05
2.27131e-05
2.2713e-05
2.20144e-05
2.34914e-05
2.27131e-05
2.2713e-05
2.20144e-05
2.34914e-05
2.27131e-05
2.2713e-05
2.20144e-05
2.34979e-05
2.272e-05
2.27198e-05
2.20215e-05
2.3498e-05
2.27201e-05
2.27198e-05
2.20215e-05
2.34979e-05
2.27203e-05
2.27199e-05
2.20217e-05
2.3498e-05
2.27203e-05
2.272e-05
2.2022e-05
2.34981e-05
2.27205e-05
2.27201e-05
2.20222e-05
2.34979e-05
2.27206e-05
2.27201e-05
2.20225e-05
2.34979e-05
2.27206e-05
2.27201e-05
2.20226e-05
2.34977e-05
2.27203e-05
2.27199e-05
2.20223e-05
2.34965e-05
2.27184e-05
2.27172e-05
2.20192e-05
2.34919e-05
2.27136e-05
2.27131e-05
2.20149e-05
2.34914e-05
2.27131e-05
2.27129e-05
2.20143e-05
2.34914e-05
2.27131e-05
2.27129e-05
2.20143e-05
2.34914e-05
2.27131e-05
2.27129e-05
2.20144e-05
2.34914e-05
2.27131e-05
2.27129e-05
2.20144e-05
2.34914e-05
2.27131e-05
2.27129e-05
2.20144e-05
2.34914e-05
2.27131e-05
2.27129e-05
2.20144e-05
2.34914e-05
2.27131e-05
2.27129e-05
2.20144e-05
2.34917e-05
2.27199e-05
2.27131e-05
2.20187e-05
2.3498e-05
2.272e-05
2.27198e-05
2.20215e-05
2.34979e-05
2.27202e-05
2.27199e-05
2.20215e-05
2.3498e-05
2.27203e-05
2.272e-05
2.20217e-05
2.34981e-05
2.27204e-05
2.27201e-05
2.20219e-05
2.34981e-05
2.27205e-05
2.27202e-05
2.20222e-05
2.34979e-05
2.27205e-05
2.27203e-05
2.20224e-05
2.34978e-05
2.27203e-05
2.27202e-05
2.20226e-05
2.34975e-05
2.27194e-05
2.27197e-05
2.20213e-05
2.34933e-05
2.27143e-05
2.27152e-05
2.20164e-05
2.34915e-05
2.27134e-05
2.27132e-05
2.20145e-05
2.34922e-05
2.27138e-05
2.27136e-05
2.20149e-05
2.35232e-05
2.27531e-05
2.2753e-05
2.21e-05
3.6307e-05
3.6291e-05
3.6291e-05
3.6307e-05
3.6291e-05
3.6291e-05
3.64231e-05
3.64231e-05
3.64231e-05
3.64231e-05
3.6291e-05
3.6291e-05
3.6307e-05
3.6291e-05
3.6291e-05
3.6307e-05
3.59955e-05
3.42689e-05
3.58912e-05
3.58912e-05
3.43769e-05
3.43768e-05
3.59955e-05
3.42689e-05
3.58911e-05
3.58912e-05
3.43769e-05
3.43768e-05
3.58912e-05
3.43769e-05
3.43769e-05
3.59955e-05
3.42689e-05
3.58912e-05
3.43769e-05
3.43769e-05
3.42689e-05
3.3962e-05
3.22637e-05
3.38889e-05
3.38888e-05
3.24689e-05
3.24688e-05
3.39621e-05
3.22638e-05
3.38889e-05
3.38888e-05
3.24689e-05
3.24687e-05
3.38889e-05
3.2469e-05
3.24688e-05
3.3962e-05
3.22637e-05
3.38889e-05
3.2469e-05
3.24689e-05
3.22637e-05
3.1952e-05
3.02994e-05
3.20085e-05
3.20084e-05
3.0664e-05
3.06638e-05
3.19521e-05
3.02995e-05
3.20085e-05
3.20083e-05
3.06641e-05
3.06637e-05
3.20084e-05
3.06642e-05
3.06639e-05
3.1952e-05
3.02993e-05
3.20085e-05
3.06642e-05
3.0664e-05
3.02993e-05
2.99882e-05
2.84243e-05
3.02303e-05
3.02301e-05
2.89596e-05
2.89594e-05
2.99883e-05
2.84245e-05
3.02304e-05
3.023e-05
2.89598e-05
2.89592e-05
3.02302e-05
2.896e-05
2.89595e-05
2.99882e-05
2.84242e-05
3.02304e-05
2.89599e-05
2.89597e-05
2.84242e-05
2.81214e-05
2.6677e-05
2.85505e-05
2.85503e-05
2.73743e-05
2.73741e-05
2.81214e-05
2.66772e-05
2.85507e-05
2.85502e-05
2.73746e-05
2.73739e-05
2.85504e-05
2.73749e-05
2.73742e-05
2.81212e-05
2.66769e-05
2.85507e-05
2.73747e-05
2.73746e-05
2.66769e-05
2.63936e-05
2.50597e-05
2.69877e-05
2.69874e-05
2.58745e-05
2.58743e-05
2.63937e-05
2.50599e-05
2.6988e-05
2.69872e-05
2.58749e-05
2.58741e-05
2.69876e-05
2.58752e-05
2.58745e-05
2.63934e-05
2.50596e-05
2.69879e-05
2.58751e-05
2.58749e-05
2.50595e-05
2.48048e-05
2.36335e-05
2.55359e-05
2.55356e-05
2.45371e-05
2.45368e-05
2.4805e-05
2.36336e-05
2.55363e-05
2.55354e-05
2.45376e-05
2.45366e-05
2.55358e-05
2.45379e-05
2.4537e-05
2.48047e-05
2.36333e-05
2.55363e-05
2.45377e-05
2.45375e-05
2.36332e-05
2.3397e-05
2.22343e-05
2.41717e-05
2.41714e-05
2.31501e-05
2.31497e-05
2.33972e-05
2.22345e-05
2.41722e-05
2.41712e-05
2.31506e-05
2.31495e-05
2.41716e-05
2.3151e-05
2.315e-05
2.33968e-05
2.22341e-05
2.41722e-05
2.31507e-05
2.31506e-05
2.2234e-05
2.20833e-05
2.18623e-05
2.29265e-05
2.29261e-05
2.26725e-05
2.26722e-05
2.20833e-05
2.18623e-05
2.2927e-05
2.29259e-05
2.26729e-05
2.26719e-05
2.29264e-05
2.26732e-05
2.26724e-05
2.2083e-05
2.1862e-05
2.2927e-05
2.2673e-05
2.2673e-05
2.1862e-05
2.18663e-05
2.19891e-05
2.26675e-05
2.26673e-05
2.26904e-05
2.26902e-05
2.18664e-05
2.19891e-05
2.2668e-05
2.2667e-05
2.26909e-05
2.26899e-05
2.26674e-05
2.2691e-05
2.26904e-05
2.1866e-05
2.19888e-05
2.2668e-05
2.26909e-05
2.26909e-05
2.1989e-05
2.19889e-05
2.20146e-05
2.26988e-05
2.26986e-05
2.27091e-05
2.27089e-05
2.19888e-05
2.20146e-05
2.26993e-05
2.26983e-05
2.27097e-05
2.27086e-05
2.26988e-05
2.27097e-05
2.27092e-05
2.19885e-05
2.20142e-05
2.26994e-05
2.27096e-05
2.27098e-05
2.20146e-05
2.20113e-05
2.2018e-05
2.27102e-05
2.27101e-05
2.27115e-05
2.27181e-05
2.20112e-05
2.20191e-05
2.27108e-05
2.27098e-05
2.2712e-05
2.2711e-05
2.27103e-05
2.27188e-05
2.27115e-05
2.20109e-05
2.20176e-05
2.27109e-05
2.2712e-05
2.27121e-05
2.2018e-05
2.20182e-05
2.20254e-05
2.27184e-05
2.27182e-05
2.27188e-05
2.27186e-05
2.20156e-05
2.20233e-05
2.27189e-05
2.27179e-05
2.27194e-05
2.27183e-05
2.27184e-05
2.27194e-05
2.27189e-05
2.20178e-05
2.20249e-05
2.2719e-05
2.27193e-05
2.27195e-05
2.20253e-05
2.20215e-05
2.20255e-05
2.2719e-05
2.27188e-05
2.27191e-05
2.2719e-05
2.20199e-05
2.20256e-05
2.27195e-05
2.27185e-05
2.27197e-05
2.27186e-05
2.2719e-05
2.27198e-05
2.27192e-05
2.2021e-05
2.2025e-05
2.27196e-05
2.27196e-05
2.27198e-05
2.20254e-05
2.20216e-05
2.20259e-05
2.27193e-05
2.27192e-05
2.27194e-05
2.27193e-05
2.20216e-05
2.20258e-05
2.27198e-05
2.27188e-05
2.27199e-05
2.27189e-05
2.27193e-05
2.272e-05
2.27194e-05
2.20211e-05
2.20253e-05
2.27199e-05
2.27198e-05
2.272e-05
2.20258e-05
2.2022e-05
2.20261e-05
2.27196e-05
2.27195e-05
2.27196e-05
2.27195e-05
2.20219e-05
2.20261e-05
2.27201e-05
2.2719e-05
2.27201e-05
2.27191e-05
2.27196e-05
2.27202e-05
2.27196e-05
2.20215e-05
2.20256e-05
2.27202e-05
2.27199e-05
2.27202e-05
2.2026e-05
2.20222e-05
2.20263e-05
2.27197e-05
2.27196e-05
2.27197e-05
2.27197e-05
2.20222e-05
2.20263e-05
2.27203e-05
2.27192e-05
2.27203e-05
2.27192e-05
2.27197e-05
2.27204e-05
2.27197e-05
2.20217e-05
2.20258e-05
2.27203e-05
2.27201e-05
2.27204e-05
2.20262e-05
2.20225e-05
2.20266e-05
2.27199e-05
2.27198e-05
2.27199e-05
2.27198e-05
2.20224e-05
2.20266e-05
2.27204e-05
2.27193e-05
2.27204e-05
2.27194e-05
2.27199e-05
2.27205e-05
2.27199e-05
2.20219e-05
2.20261e-05
2.27205e-05
2.27203e-05
2.27205e-05
2.20264e-05
2.20227e-05
2.20267e-05
2.272e-05
2.272e-05
2.27199e-05
2.272e-05
2.20227e-05
2.20268e-05
2.27205e-05
2.27195e-05
2.27204e-05
2.27195e-05
2.272e-05
2.27204e-05
2.272e-05
2.20222e-05
2.20262e-05
2.27206e-05
2.272e-05
2.27206e-05
2.20266e-05
2.20228e-05
2.2026e-05
2.27198e-05
2.272e-05
2.27193e-05
2.27194e-05
2.20229e-05
2.20256e-05
2.27203e-05
2.27195e-05
2.27198e-05
2.27189e-05
2.272e-05
2.27199e-05
2.27195e-05
2.20223e-05
2.20255e-05
2.27206e-05
2.27197e-05
2.27201e-05
2.20259e-05
2.20217e-05
2.20215e-05
2.2719e-05
2.27185e-05
2.27151e-05
2.27144e-05
2.20211e-05
2.20206e-05
2.27195e-05
2.27185e-05
2.27157e-05
2.27147e-05
2.27191e-05
2.27152e-05
2.27151e-05
2.20213e-05
2.2021e-05
2.27196e-05
2.27156e-05
2.27157e-05
2.20213e-05
2.20168e-05
2.20186e-05
2.27139e-05
2.27134e-05
2.27125e-05
2.27123e-05
2.20161e-05
2.20184e-05
2.27145e-05
2.27135e-05
2.2713e-05
2.2712e-05
2.2714e-05
2.2713e-05
2.27125e-05
2.20164e-05
2.20181e-05
2.27146e-05
2.27129e-05
2.27131e-05
2.20185e-05
2.20146e-05
2.20186e-05
2.27125e-05
2.27124e-05
2.27125e-05
2.27124e-05
2.20144e-05
2.20186e-05
2.27131e-05
2.27121e-05
2.2713e-05
2.2712e-05
2.27126e-05
2.27131e-05
2.27126e-05
2.20141e-05
2.20181e-05
2.27132e-05
2.27129e-05
2.27132e-05
2.20185e-05
2.20147e-05
2.20184e-05
2.27126e-05
2.27124e-05
2.27125e-05
2.27124e-05
2.20147e-05
2.20185e-05
2.27131e-05
2.27121e-05
2.27131e-05
2.27121e-05
2.27126e-05
2.27131e-05
2.27126e-05
2.20143e-05
2.2018e-05
2.27132e-05
2.2713e-05
2.27132e-05
2.20184e-05
2.20146e-05
2.20185e-05
2.27126e-05
2.27124e-05
2.27125e-05
2.27124e-05
2.20146e-05
2.20184e-05
2.27132e-05
2.27121e-05
2.27131e-05
2.27121e-05
2.27127e-05
2.27131e-05
2.27126e-05
2.20141e-05
2.2018e-05
2.27133e-05
2.2713e-05
2.27131e-05
2.20185e-05
2.20146e-05
2.20185e-05
2.27126e-05
2.27124e-05
2.27125e-05
2.27124e-05
2.20145e-05
2.20185e-05
2.27132e-05
2.27121e-05
2.27131e-05
2.27121e-05
2.27127e-05
2.27131e-05
2.27126e-05
2.20141e-05
2.20181e-05
2.27132e-05
2.2713e-05
2.27131e-05
2.20185e-05
2.20146e-05
2.20185e-05
2.27126e-05
2.27125e-05
2.27125e-05
2.27124e-05
2.20146e-05
2.20184e-05
2.27132e-05
2.27121e-05
2.27131e-05
2.27121e-05
2.27127e-05
2.27131e-05
2.27126e-05
2.20142e-05
2.2018e-05
2.27132e-05
2.2713e-05
2.27131e-05
2.20185e-05
2.20146e-05
2.20185e-05
2.27125e-05
2.27125e-05
2.27124e-05
2.27124e-05
2.20145e-05
2.20185e-05
2.27132e-05
2.27121e-05
2.27131e-05
2.27121e-05
2.27127e-05
2.27131e-05
2.27126e-05
2.20141e-05
2.20181e-05
2.27132e-05
2.2713e-05
2.27131e-05
2.20185e-05
2.20146e-05
2.20185e-05
2.27125e-05
2.27125e-05
2.27124e-05
2.27124e-05
2.20145e-05
2.20185e-05
2.27132e-05
2.27121e-05
2.27131e-05
2.27121e-05
2.27127e-05
2.27131e-05
2.27126e-05
2.20142e-05
2.20181e-05
2.27132e-05
2.2713e-05
2.27131e-05
2.20185e-05
2.20146e-05
2.20255e-05
2.27125e-05
2.27125e-05
2.27193e-05
2.27192e-05
2.20146e-05
2.20202e-05
2.27132e-05
2.27121e-05
2.272e-05
2.27189e-05
2.27126e-05
2.27201e-05
2.27195e-05
2.20142e-05
2.20251e-05
2.27132e-05
2.27198e-05
2.272e-05
2.20255e-05
2.20217e-05
2.20256e-05
2.27195e-05
2.27193e-05
2.27194e-05
2.27192e-05
2.20166e-05
2.20228e-05
2.27202e-05
2.27191e-05
2.27201e-05
2.27191e-05
2.27196e-05
2.27201e-05
2.27196e-05
2.20213e-05
2.20252e-05
2.27202e-05
2.27199e-05
2.27201e-05
2.20255e-05
2.20217e-05
2.20257e-05
2.27195e-05
2.27194e-05
2.27195e-05
2.27194e-05
2.20192e-05
2.20255e-05
2.27202e-05
2.27192e-05
2.27202e-05
2.27192e-05
2.27197e-05
2.27203e-05
2.27197e-05
2.20213e-05
2.20253e-05
2.27202e-05
2.27199e-05
2.27202e-05
2.20257e-05
2.20218e-05
2.2026e-05
2.27197e-05
2.27196e-05
2.27197e-05
2.27196e-05
2.20218e-05
2.2026e-05
2.27204e-05
2.27193e-05
2.27204e-05
2.27193e-05
2.27198e-05
2.27204e-05
2.27198e-05
2.20214e-05
2.20256e-05
2.27203e-05
2.27201e-05
2.27203e-05
2.2026e-05
2.20222e-05
2.20263e-05
2.27198e-05
2.27197e-05
2.27198e-05
2.27197e-05
2.20221e-05
2.20263e-05
2.27205e-05
2.27195e-05
2.27205e-05
2.27195e-05
2.272e-05
2.27205e-05
2.272e-05
2.20217e-05
2.20258e-05
2.27204e-05
2.27202e-05
2.27205e-05
2.20263e-05
2.20224e-05
2.20266e-05
2.27199e-05
2.27198e-05
2.27199e-05
2.27199e-05
2.20224e-05
2.20265e-05
2.27206e-05
2.27196e-05
2.27206e-05
2.27196e-05
2.27201e-05
2.27206e-05
2.27201e-05
2.2022e-05
2.20261e-05
2.27206e-05
2.27202e-05
2.27206e-05
2.20265e-05
2.20227e-05
2.20266e-05
2.272e-05
2.272e-05
2.27199e-05
2.272e-05
2.20227e-05
2.20268e-05
2.27206e-05
2.27196e-05
2.27205e-05
2.27193e-05
2.27203e-05
2.27205e-05
2.27202e-05
2.20222e-05
2.20261e-05
2.27207e-05
2.27201e-05
2.27206e-05
2.20267e-05
2.20227e-05
2.20268e-05
2.272e-05
2.272e-05
2.27198e-05
2.27197e-05
2.20229e-05
2.20268e-05
2.27207e-05
2.27192e-05
2.27205e-05
2.2719e-05
2.27202e-05
2.27204e-05
2.27198e-05
2.20222e-05
2.20261e-05
2.27205e-05
2.272e-05
2.27201e-05
2.20265e-05
2.20228e-05
2.20243e-05
2.27197e-05
2.27196e-05
2.27181e-05
2.27184e-05
2.20228e-05
2.2025e-05
2.27204e-05
2.2719e-05
2.27187e-05
2.27178e-05
2.27197e-05
2.27194e-05
2.27184e-05
2.20222e-05
2.20238e-05
2.27201e-05
2.27186e-05
2.27189e-05
2.20243e-05
2.20195e-05
2.20194e-05
2.27166e-05
2.2717e-05
2.2713e-05
2.27132e-05
2.20203e-05
2.20199e-05
2.27172e-05
2.27162e-05
2.27137e-05
2.27126e-05
2.27169e-05
2.27142e-05
2.27133e-05
2.20192e-05
2.2019e-05
2.27173e-05
2.27136e-05
2.27137e-05
2.20194e-05
2.20152e-05
2.20183e-05
2.27127e-05
2.27127e-05
2.27124e-05
2.27123e-05
2.20156e-05
2.20184e-05
2.27133e-05
2.27123e-05
2.27131e-05
2.2712e-05
2.27128e-05
2.2713e-05
2.27125e-05
2.20148e-05
2.20179e-05
2.27133e-05
2.27129e-05
2.27131e-05
2.20184e-05
2.20145e-05
2.20185e-05
2.27125e-05
2.27124e-05
2.27124e-05
2.27124e-05
2.20144e-05
2.20186e-05
2.27132e-05
2.27121e-05
2.27131e-05
2.2712e-05
2.27126e-05
2.27131e-05
2.27126e-05
2.20141e-05
2.20181e-05
2.27132e-05
2.27129e-05
2.27131e-05
2.20184e-05
2.20145e-05
2.20186e-05
2.27125e-05
2.27125e-05
2.27125e-05
2.27124e-05
2.20146e-05
2.20185e-05
2.27132e-05
2.27121e-05
2.27131e-05
2.27121e-05
2.27126e-05
2.27131e-05
2.27126e-05
2.20141e-05
2.20182e-05
2.27132e-05
2.2713e-05
2.27131e-05
2.20185e-05
2.20147e-05
2.20184e-05
2.27125e-05
2.27125e-05
2.27125e-05
2.27124e-05
2.20147e-05
2.20185e-05
2.27132e-05
2.27121e-05
2.27131e-05
2.27121e-05
2.27127e-05
2.27131e-05
2.27126e-05
2.20143e-05
2.20181e-05
2.27132e-05
2.2713e-05
2.27131e-05
2.20184e-05
2.20145e-05
2.20185e-05
2.27125e-05
2.27125e-05
2.27125e-05
2.27124e-05
2.20146e-05
2.20185e-05
2.27132e-05
2.27121e-05
2.27131e-05
2.27121e-05
2.27127e-05
2.27131e-05
2.27126e-05
2.20142e-05
2.20181e-05
2.27132e-05
2.2713e-05
2.27131e-05
2.20185e-05
2.20146e-05
2.20184e-05
2.27126e-05
2.27125e-05
2.27125e-05
2.27124e-05
2.20146e-05
2.20184e-05
2.27132e-05
2.27121e-05
2.27131e-05
2.27121e-05
2.27127e-05
2.27131e-05
2.27126e-05
2.20142e-05
2.20181e-05
2.27132e-05
2.2713e-05
2.27131e-05
2.20184e-05
2.20145e-05
2.20184e-05
2.27126e-05
2.27125e-05
2.27125e-05
2.27124e-05
2.20145e-05
2.20185e-05
2.27132e-05
2.27121e-05
2.27131e-05
2.2712e-05
2.27127e-05
2.27131e-05
2.27126e-05
2.20142e-05
2.20181e-05
2.27132e-05
2.2713e-05
2.27131e-05
2.20184e-05
2.20146e-05
2.20185e-05
2.27126e-05
2.27125e-05
2.27126e-05
2.27124e-05
2.20146e-05
2.20185e-05
2.27132e-05
2.27121e-05
2.27131e-05
2.27121e-05
2.27127e-05
2.27131e-05
2.27126e-05
2.20142e-05
2.20181e-05
2.27132e-05
2.2713e-05
2.27131e-05
2.20185e-05
2.20146e-05
2.20215e-05
2.27127e-05
2.27125e-05
2.27193e-05
2.27191e-05
2.20146e-05
2.20215e-05
2.27132e-05
2.27121e-05
2.27198e-05
2.27188e-05
2.27127e-05
2.27198e-05
2.27193e-05
2.20142e-05
2.20214e-05
2.27132e-05
2.27197e-05
2.27198e-05
2.20212e-05
2.20181e-05
2.20258e-05
2.27194e-05
2.27192e-05
2.27195e-05
2.27193e-05
2.2018e-05
2.20257e-05
2.27199e-05
2.27189e-05
2.272e-05
2.2719e-05
2.27193e-05
2.272e-05
2.27193e-05
2.20181e-05
2.20254e-05
2.27199e-05
2.27198e-05
2.27199e-05
2.20238e-05
2.2022e-05
2.20258e-05
2.27196e-05
2.27194e-05
2.27196e-05
2.27194e-05
2.20219e-05
2.20257e-05
2.27201e-05
2.27191e-05
2.27201e-05
2.27191e-05
2.27195e-05
2.27201e-05
2.27195e-05
2.20215e-05
2.20254e-05
2.272e-05
2.27199e-05
2.272e-05
2.20258e-05
2.2022e-05
2.20261e-05
2.27197e-05
2.27195e-05
2.27198e-05
2.27196e-05
2.20219e-05
2.2026e-05
2.27202e-05
2.27192e-05
2.27202e-05
2.27192e-05
2.27196e-05
2.27202e-05
2.27196e-05
2.20215e-05
2.20256e-05
2.27202e-05
2.272e-05
2.27202e-05
2.20259e-05
2.20222e-05
2.20263e-05
2.27199e-05
2.27197e-05
2.27199e-05
2.27197e-05
2.20221e-05
2.20263e-05
2.27203e-05
2.27194e-05
2.27204e-05
2.27194e-05
2.27198e-05
2.27203e-05
2.27198e-05
2.20217e-05
2.20258e-05
2.27203e-05
2.27201e-05
2.27203e-05
2.20262e-05
2.20225e-05
2.20266e-05
2.272e-05
2.27198e-05
2.272e-05
2.27198e-05
2.20224e-05
2.20265e-05
2.27205e-05
2.27195e-05
2.27205e-05
2.27195e-05
2.27199e-05
2.27205e-05
2.272e-05
2.2022e-05
2.20261e-05
2.27204e-05
2.27203e-05
2.27205e-05
2.20264e-05
2.20227e-05
2.20268e-05
2.27201e-05
2.27199e-05
2.27201e-05
2.27199e-05
2.20226e-05
2.20267e-05
2.27206e-05
2.27196e-05
2.27206e-05
2.27195e-05
2.27201e-05
2.27204e-05
2.27201e-05
2.20222e-05
2.20262e-05
2.27206e-05
2.27201e-05
2.27206e-05
2.20266e-05
2.20229e-05
2.20265e-05
2.27201e-05
2.272e-05
2.27196e-05
2.27196e-05
2.20228e-05
2.20265e-05
2.27206e-05
2.27195e-05
2.27203e-05
2.27191e-05
2.27201e-05
2.27201e-05
2.27196e-05
2.20224e-05
2.2026e-05
2.27206e-05
2.27199e-05
2.27202e-05
2.20263e-05
2.20225e-05
2.20229e-05
2.27195e-05
2.27194e-05
2.27167e-05
2.27165e-05
2.20224e-05
2.20229e-05
2.27201e-05
2.27189e-05
2.27172e-05
2.27162e-05
2.27194e-05
2.27173e-05
2.27167e-05
2.20219e-05
2.20225e-05
2.272e-05
2.27172e-05
2.27171e-05
2.20227e-05
2.20181e-05
2.20189e-05
2.27152e-05
2.2715e-05
2.27127e-05
2.27125e-05
2.20181e-05
2.20189e-05
2.27157e-05
2.27147e-05
2.27132e-05
2.27122e-05
2.27152e-05
2.27133e-05
2.27127e-05
2.20177e-05
2.20184e-05
2.27156e-05
2.27131e-05
2.27132e-05
2.20188e-05
2.20148e-05
2.20185e-05
2.27126e-05
2.27125e-05
2.27125e-05
2.27124e-05
2.20148e-05
2.20184e-05
2.27132e-05
2.27121e-05
2.2713e-05
2.2712e-05
2.27126e-05
2.27131e-05
2.27125e-05
2.20144e-05
2.2018e-05
2.27131e-05
2.27129e-05
2.2713e-05
2.20184e-05
2.20146e-05
2.20184e-05
2.27126e-05
2.27125e-05
2.27126e-05
2.27124e-05
2.20146e-05
2.20184e-05
2.27132e-05
2.27121e-05
2.27131e-05
2.2712e-05
2.27126e-05
2.27131e-05
2.27126e-05
2.20142e-05
2.2018e-05
2.27131e-05
2.2713e-05
2.2713e-05
2.20184e-05
2.20145e-05
2.20186e-05
2.27127e-05
2.27125e-05
2.27126e-05
2.27124e-05
2.20145e-05
2.20186e-05
2.27132e-05
2.27121e-05
2.27131e-05
2.27121e-05
2.27127e-05
2.27132e-05
2.27126e-05
2.2014e-05
2.20181e-05
2.27131e-05
2.2713e-05
2.27131e-05
2.20185e-05
2.20146e-05
2.20185e-05
2.27127e-05
2.27125e-05
2.27126e-05
2.27124e-05
2.20146e-05
2.20185e-05
2.27132e-05
2.27121e-05
2.27131e-05
2.27121e-05
2.27127e-05
2.27132e-05
2.27126e-05
2.20142e-05
2.20181e-05
2.27131e-05
2.2713e-05
2.27131e-05
2.20184e-05
2.20146e-05
2.20185e-05
2.27127e-05
2.27125e-05
2.27126e-05
2.27124e-05
2.20146e-05
2.20185e-05
2.27132e-05
2.27121e-05
2.27131e-05
2.27121e-05
2.27127e-05
2.27132e-05
2.27126e-05
2.20142e-05
2.20181e-05
2.27131e-05
2.2713e-05
2.27131e-05
2.20184e-05
2.20146e-05
2.20185e-05
2.27127e-05
2.27125e-05
2.27126e-05
2.27124e-05
2.20146e-05
2.20185e-05
2.27132e-05
2.27121e-05
2.27131e-05
2.27121e-05
2.27127e-05
2.27132e-05
2.27126e-05
2.20142e-05
2.20181e-05
2.27131e-05
2.2713e-05
2.27131e-05
2.20184e-05
2.20146e-05
2.20185e-05
2.27127e-05
2.27125e-05
2.27126e-05
2.27124e-05
2.20146e-05
2.20185e-05
2.27132e-05
2.27121e-05
2.27131e-05
2.27121e-05
2.27127e-05
2.27132e-05
2.27126e-05
2.20142e-05
2.20181e-05
2.27131e-05
2.2713e-05
2.27131e-05
2.20184e-05
2.20146e-05
2.20198e-05
2.27127e-05
2.27125e-05
2.27194e-05
2.27193e-05
2.20146e-05
2.20198e-05
2.27132e-05
2.27121e-05
2.27199e-05
2.27189e-05
2.27126e-05
2.272e-05
2.27195e-05
2.20142e-05
2.20251e-05
2.27131e-05
2.27198e-05
2.27199e-05
2.20255e-05
2.20162e-05
2.20242e-05
2.27194e-05
2.27192e-05
2.27194e-05
2.27192e-05
2.20162e-05
2.20241e-05
2.27199e-05
2.27191e-05
2.27199e-05
2.27191e-05
2.27196e-05
2.27201e-05
2.27196e-05
2.20213e-05
2.20252e-05
2.27201e-05
2.27198e-05
2.27201e-05
2.20255e-05
2.20207e-05
2.20257e-05
2.27195e-05
2.27194e-05
2.27195e-05
2.27194e-05
2.20206e-05
2.20258e-05
2.272e-05
2.27192e-05
2.272e-05
2.27192e-05
2.27197e-05
2.27203e-05
2.27197e-05
2.20213e-05
2.20253e-05
2.27202e-05
2.27199e-05
2.27202e-05
2.20257e-05
2.20217e-05
2.2026e-05
2.27196e-05
2.27195e-05
2.27197e-05
2.27195e-05
2.20218e-05
2.2026e-05
2.27201e-05
2.27193e-05
2.27202e-05
2.27193e-05
2.27198e-05
2.27203e-05
2.27199e-05
2.20214e-05
2.20256e-05
2.27203e-05
2.272e-05
2.27203e-05
2.2026e-05
2.20221e-05
2.20262e-05
2.27198e-05
2.27196e-05
2.27198e-05
2.27196e-05
2.20221e-05
2.20262e-05
2.27203e-05
2.27195e-05
2.27203e-05
2.27195e-05
2.272e-05
2.27205e-05
2.272e-05
2.20217e-05
2.20258e-05
2.27204e-05
2.27201e-05
2.27204e-05
2.20262e-05
2.20224e-05
2.20265e-05
2.27199e-05
2.27198e-05
2.272e-05
2.27198e-05
2.20224e-05
2.20265e-05
2.27204e-05
2.27196e-05
2.27205e-05
2.27196e-05
2.27201e-05
2.27206e-05
2.27202e-05
2.2022e-05
2.20261e-05
2.27205e-05
2.27201e-05
2.27205e-05
2.20265e-05
2.20226e-05
2.20267e-05
2.27201e-05
2.27199e-05
2.27201e-05
2.27199e-05
2.20226e-05
2.20267e-05
2.27206e-05
2.27197e-05
2.27206e-05
2.27193e-05
2.27202e-05
2.27206e-05
2.27199e-05
2.20222e-05
2.20261e-05
2.27206e-05
2.27201e-05
2.27205e-05
2.20266e-05
2.20228e-05
2.20269e-05
2.27202e-05
2.272e-05
2.27201e-05
2.27199e-05
2.20228e-05
2.20268e-05
2.27207e-05
2.27193e-05
2.27207e-05
2.27191e-05
2.27198e-05
2.27203e-05
2.27196e-05
2.20222e-05
2.20261e-05
2.27204e-05
2.272e-05
2.27201e-05
2.20264e-05
2.2023e-05
2.20253e-05
2.272e-05
2.27198e-05
2.27191e-05
2.27189e-05
2.20228e-05
2.20252e-05
2.27207e-05
2.2719e-05
2.27197e-05
2.27179e-05
2.27195e-05
2.27195e-05
2.27183e-05
2.20222e-05
2.20239e-05
2.272e-05
2.27187e-05
2.27187e-05
2.20241e-05
2.20208e-05
2.20202e-05
2.27181e-05
2.27179e-05
2.2714e-05
2.27138e-05
2.20207e-05
2.20202e-05
2.27185e-05
2.27164e-05
2.27144e-05
2.27127e-05
2.27168e-05
2.27144e-05
2.27132e-05
2.20192e-05
2.2019e-05
2.27172e-05
2.27136e-05
2.27136e-05
2.20193e-05
2.20159e-05
2.20184e-05
2.27132e-05
2.2713e-05
2.27125e-05
2.27123e-05
2.20158e-05
2.20184e-05
2.27137e-05
2.27123e-05
2.2713e-05
2.2712e-05
2.27128e-05
2.27131e-05
2.27125e-05
2.20148e-05
2.20179e-05
2.27133e-05
2.27129e-05
2.2713e-05
2.20183e-05
2.20145e-05
2.20186e-05
2.27126e-05
2.27124e-05
2.27126e-05
2.27124e-05
2.20145e-05
2.20186e-05
2.27131e-05
2.27121e-05
2.27131e-05
2.2712e-05
2.27126e-05
2.27131e-05
2.27126e-05
2.20141e-05
2.20181e-05
2.27131e-05
2.27129e-05
2.2713e-05
2.20184e-05
2.20147e-05
2.20185e-05
2.27126e-05
2.27125e-05
2.27126e-05
2.27124e-05
2.20147e-05
2.20185e-05
2.27131e-05
2.27121e-05
2.27131e-05
2.27121e-05
2.27126e-05
2.27131e-05
2.27126e-05
2.20141e-05
2.20182e-05
2.27131e-05
2.2713e-05
2.27131e-05
2.20185e-05
2.20147e-05
2.20185e-05
2.27127e-05
2.27125e-05
2.27126e-05
2.27124e-05
2.20147e-05
2.20185e-05
2.27132e-05
2.27121e-05
2.27131e-05
2.27121e-05
2.27127e-05
2.27132e-05
2.27126e-05
2.20143e-05
2.20181e-05
2.27132e-05
2.2713e-05
2.27131e-05
2.20184e-05
2.20146e-05
2.20185e-05
2.27127e-05
2.27125e-05
2.27126e-05
2.27124e-05
2.20146e-05
2.20185e-05
2.27131e-05
2.27121e-05
2.27131e-05
2.27121e-05
2.27127e-05
2.27132e-05
2.27126e-05
2.20142e-05
2.20181e-05
2.27131e-05
2.2713e-05
2.27131e-05
2.20184e-05
2.20146e-05
2.20185e-05
2.27127e-05
2.27125e-05
2.27126e-05
2.27124e-05
2.20146e-05
2.20185e-05
2.27132e-05
2.27121e-05
2.27131e-05
2.27121e-05
2.27127e-05
2.27132e-05
2.27126e-05
2.20142e-05
2.2018e-05
2.27131e-05
2.2713e-05
2.27131e-05
2.20184e-05
2.20146e-05
2.20185e-05
2.27127e-05
2.27125e-05
2.27126e-05
2.27124e-05
2.20146e-05
2.20185e-05
2.27132e-05
2.27121e-05
2.27131e-05
2.27121e-05
2.27127e-05
2.27132e-05
2.27126e-05
2.20142e-05
2.2018e-05
2.27131e-05
2.2713e-05
2.27131e-05
2.20184e-05
2.20146e-05
2.20185e-05
2.27127e-05
2.27125e-05
2.27127e-05
2.27193e-05
2.20146e-05
2.20198e-05
2.27132e-05
2.27121e-05
2.27131e-05
2.27121e-05
2.27127e-05
2.272e-05
2.27127e-05
2.20142e-05
2.20181e-05
2.27131e-05
2.2713e-05
2.27132e-05
2.20185e-05
2.20149e-05
2.2022e-05
2.27195e-05
2.27192e-05
2.27193e-05
2.27192e-05
2.20162e-05
2.20242e-05
2.27132e-05
2.27121e-05
2.27198e-05
2.27188e-05
2.27195e-05
2.272e-05
2.27194e-05
2.20142e-05
2.20214e-05
2.27199e-05
2.27198e-05
2.27199e-05
2.20255e-05
2.20184e-05
2.20238e-05
2.27194e-05
2.27194e-05
2.27193e-05
2.27194e-05
2.20207e-05
2.20257e-05
2.27199e-05
2.27189e-05
2.27199e-05
2.2719e-05
2.27195e-05
2.27202e-05
2.27195e-05
2.2018e-05
2.20254e-05
2.272e-05
2.27199e-05
2.272e-05
2.20255e-05
2.20201e-05
2.20256e-05
2.27195e-05
2.27195e-05
2.27195e-05
2.27195e-05
2.20217e-05
2.2026e-05
2.272e-05
2.27191e-05
2.272e-05
2.27191e-05
2.27196e-05
2.27203e-05
2.27196e-05
2.20215e-05
2.20254e-05
2.27201e-05
2.272e-05
2.272e-05
2.20257e-05
2.20219e-05
2.20262e-05
2.27197e-05
2.27196e-05
2.27197e-05
2.27196e-05
2.20221e-05
2.20262e-05
2.27202e-05
2.27192e-05
2.27202e-05
2.27192e-05
2.27197e-05
2.27204e-05
2.27197e-05
2.20216e-05
2.20256e-05
2.27201e-05
2.27201e-05
2.27201e-05
2.2026e-05
2.20223e-05
2.20265e-05
2.27199e-05
2.27198e-05
2.27199e-05
2.27198e-05
2.20224e-05
2.20264e-05
2.27204e-05
2.27194e-05
2.27204e-05
2.27194e-05
2.27198e-05
2.27205e-05
2.27198e-05
2.20218e-05
2.20258e-05
2.27203e-05
2.27202e-05
2.27203e-05
2.20262e-05
2.20226e-05
2.20267e-05
2.272e-05
2.27199e-05
2.27201e-05
2.27199e-05
2.20226e-05
2.20267e-05
2.27205e-05
2.27195e-05
2.27205e-05
2.27195e-05
2.27199e-05
2.27205e-05
2.27199e-05
2.2022e-05
2.20261e-05
2.27204e-05
2.27203e-05
2.27204e-05
2.20264e-05
2.20229e-05
2.20269e-05
2.27202e-05
2.272e-05
2.27202e-05
2.272e-05
2.20228e-05
2.20268e-05
2.27206e-05
2.27196e-05
2.27207e-05
2.27196e-05
2.27201e-05
2.27203e-05
2.272e-05
2.20223e-05
2.20263e-05
2.27206e-05
2.27202e-05
2.27205e-05
2.20266e-05
2.20231e-05
2.20265e-05
2.27202e-05
2.27199e-05
2.27197e-05
2.27193e-05
2.20229e-05
2.20256e-05
2.27208e-05
2.27197e-05
2.27206e-05
2.27192e-05
2.272e-05
2.27199e-05
2.27195e-05
2.20225e-05
2.2026e-05
2.27205e-05
2.27199e-05
2.27199e-05
2.20257e-05
2.20223e-05
2.20221e-05
2.27194e-05
2.27187e-05
2.27156e-05
2.27145e-05
2.20212e-05
2.20206e-05
2.27203e-05
2.27191e-05
2.27168e-05
2.2716e-05
2.27191e-05
2.27153e-05
2.27151e-05
2.20219e-05
2.20222e-05
2.27195e-05
2.27166e-05
2.27156e-05
2.20212e-05
2.20174e-05
2.20188e-05
2.27145e-05
2.27136e-05
2.27129e-05
2.27126e-05
2.20162e-05
2.20185e-05
2.27156e-05
2.27147e-05
2.27134e-05
2.27124e-05
2.27141e-05
2.27134e-05
2.27128e-05
2.20174e-05
2.20184e-05
2.27146e-05
2.27132e-05
2.27132e-05
2.20186e-05
2.20148e-05
2.2019e-05
2.2713e-05
2.27127e-05
2.27135e-05
2.27132e-05
2.20147e-05
2.2019e-05
2.27135e-05
2.27125e-05
2.2714e-05
2.2713e-05
2.27129e-05
2.2714e-05
2.27134e-05
2.20145e-05
2.20185e-05
2.27134e-05
2.27138e-05
2.27139e-05
2.20189e-05
2.20152e-05
2.20528e-05
2.27133e-05
2.2713e-05
2.27447e-05
2.27445e-05
2.20152e-05
2.20527e-05
2.27138e-05
2.27127e-05
2.27451e-05
2.27443e-05
2.27132e-05
2.27451e-05
2.27447e-05
2.20147e-05
2.20524e-05
2.27137e-05
2.2745e-05
2.2745e-05
2.20527e-05
2.21002e-05
2.27528e-05
2.27527e-05
2.21001e-05
2.27531e-05
2.27525e-05
2.35232e-05
2.35232e-05
2.35232e-05
2.27528e-05
2.20998e-05
2.27531e-05
3.73774e-05
3.73765e-05
3.7377e-05
3.7377e-05
3.73703e-05
3.73777e-05
3.73043e-05
3.73768e-05
3.73703e-05
3.73777e-05
3.73768e-05
3.73043e-05
3.73742e-05
3.72959e-05
3.72959e-05
3.58829e-05
4.08804e-05
3.66017e-05
4.51365e-05
5.5115e-05
6.48807e-05
3.58834e-05
4.08797e-05
3.66018e-05
4.51362e-05
3.58932e-05
3.58932e-05
3.58932e-05
3.44008e-05
3.44008e-05
3.44008e-05
3.44008e-05
3.52768e-05
3.56355e-05
3.58928e-05
3.5377e-05
3.60469e-05
3.42403e-05
3.53821e-05
5.5117e-05
6.48845e-05
3.52768e-05
3.58929e-05
3.56351e-05
3.5377e-05
3.60468e-05
3.53821e-05
3.42412e-05
3.65907e-05
3.65912e-05
3.52792e-05
3.40703e-05
3.40695e-05
3.39725e-05
5.13634e-05
3.46739e-05
5.46123e-05
7.65597e-05
8.085e-05
3.39757e-05
5.13645e-05
3.46733e-05
5.46128e-05
3.39294e-05
3.39294e-05
3.39294e-05
3.25865e-05
3.25865e-05
3.25865e-05
3.25865e-05