/*--------------------------------*- C++ -*----------------------------------*\
| =========                 |                                                 |
| \\      /  F ield         | OpenFOAM: The Open Source CFD Toolbox           |
|  \\    /   O peration     | Version:  2206                                  |
|   \\  /    A nd           | Website:  www.openfoam.com                      |
|    \\/     M anipulation  |                                                 |
\*---------------------------------------------------------------------------*/
FoamFile
{
    version     2.0;
    format      ascii;
    arch        "LSB;label=32;scalar=64";
    class       volScalarField;
    location    "38.5";
    object      nut;
}
// * * * * * * * * * * * * * * * * * * * * * * * * * * * * * * * * * * * * * //

dimensions      [0 2 -1 0 0 0 0];

internalField   nonuniform List<scalar> 
171728
(
0.000233973
0.000233116
0.000233116
0.00023342
0.000232533
0.000227803
0.000227802
0.000223864
0.000230519
0.000220325
0.000220322
0.000209106
0.000227801
0.000211668
0.000211663
0.00019378
0.000224406
0.000202617
0.000202611
0.000179696
0.000220556
0.000193781
0.000193774
0.000167365
0.000216393
0.000185392
0.000185385
0.000156596
0.00021167
0.000177232
0.000177224
0.000147545
0.00020792
0.000171842
0.000171833
0.000141343
0.000208077
0.00017241
0.000172401
0.000142499
0.000208627
0.000173197
0.000173188
0.000143748
0.000208752
0.000173379
0.000173369
0.000143964
0.000208787
0.000173439
0.00017343
0.000144013
0.00020879
0.000173444
0.000173436
0.000144049
0.000208792
0.000173446
0.000173437
0.000144045
0.000208792
0.000173446
0.000173437
0.000144048
0.000208791
0.000173446
0.000173437
0.000144046
0.000208792
0.000173447
0.000173437
0.000144044
0.000208793
0.000173447
0.000173437
0.000144044
0.00020879
0.000173443
0.000173431
0.000144044
0.000208785
0.000173432
0.000173424
0.000144028
0.000208759
0.000173405
0.000173397
0.000143996
0.000208766
0.000173408
0.000173398
0.000144005
0.000208767
0.000173408
0.000173399
0.000143999
0.000208767
0.000173409
0.0001734
0.000144002
0.000208767
0.000173409
0.0001734
0.000144
0.000208768
0.000173409
0.0001734
0.000144
0.000208768
0.000173409
0.0001734
0.000144
0.000208768
0.000173409
0.0001734
0.000144002
0.000208768
0.000173409
0.0001734
0.000144001
0.000208795
0.000173452
0.000173443
0.000144052
0.000208794
0.000173452
0.000173442
0.000144049
0.000208794
0.000173452
0.00017344
0.000144047
0.000208794
0.00017345
0.00017344
0.000144047
0.000208793
0.000173449
0.000173438
0.000144047
0.000208793
0.000173448
0.000173437
0.000144046
0.000208793
0.000173445
0.000173434
0.000144045
0.000208791
0.000173441
0.00017343
0.00014404
0.000208768
0.000173423
0.000173409
0.000144009
0.000208763
0.000173405
0.000173396
0.000144002
0.000208767
0.000173408
0.000173398
0.000144001
0.000208767
0.000173409
0.000173399
0.000143998
0.000208767
0.000173409
0.000173399
0.000144001
0.000208767
0.00017341
0.000173399
0.000144
0.000208767
0.00017341
0.000173399
0.000144001
0.000208767
0.00017341
0.000173399
0.000144
0.000208767
0.00017341
0.000173399
0.000143999
0.000208768
0.00017341
0.000173399
0.000144
0.000208794
0.00017345
0.00017344
0.000144001
0.000208793
0.000173451
0.00017344
0.000144032
0.000208793
0.000173449
0.000173439
0.000144046
0.000208793
0.000173448
0.000173438
0.000144045
0.000208794
0.000173448
0.000173437
0.000144045
0.000208793
0.000173448
0.000173437
0.000144044
0.000208793
0.000173445
0.000173434
0.000144044
0.000208789
0.000173438
0.000173427
0.000144035
0.000208762
0.000173411
0.0001734
0.000143999
0.000208766
0.000173408
0.000173397
0.000144005
0.000208767
0.000173409
0.000173398
0.000143999
0.000208768
0.00017341
0.000173399
0.000143999
0.000208767
0.00017341
0.000173399
0.000144
0.000208768
0.00017341
0.0001734
0.000144
0.000208768
0.00017341
0.000173399
0.000144001
0.000208767
0.00017341
0.000173399
0.000144001
0.000208768
0.00017341
0.000173399
0.000143999
0.000208795
0.000173452
0.000173442
0.000144051
0.000208795
0.000173453
0.000173441
0.000144049
0.000208794
0.000173452
0.000173439
0.000144047
0.000208793
0.00017345
0.000173438
0.000144047
0.000208795
0.000173449
0.000173437
0.000144046
0.000208793
0.00017345
0.000173435
0.000144046
0.000208794
0.000173447
0.000173434
0.000144044
0.000208792
0.000173441
0.000173429
0.000144038
0.000208777
0.000173425
0.000173409
0.000144009
0.00020876
0.000173405
0.000173396
0.000144002
0.000208767
0.000173408
0.000173398
0.000144001
0.000208767
0.000173409
0.000173399
0.000143998
0.000208768
0.00017341
0.000173399
0.000144001
0.000208767
0.00017341
0.000173399
0.000144
0.000208767
0.00017341
0.000173399
0.000144001
0.000208768
0.00017341
0.000173399
0.000144
0.000208768
0.00017341
0.000173399
0.000143999
0.00020877
0.000173452
0.0001734
0.000144021
0.000208795
0.000173452
0.000173441
0.000144051
0.000208794
0.000173451
0.000173441
0.000144047
0.000208794
0.00017345
0.000173439
0.000144046
0.000208794
0.000173449
0.000173438
0.000144045
0.000208795
0.000173449
0.000173438
0.000144044
0.000208794
0.000173448
0.000173438
0.000144044
0.000208794
0.000173445
0.000173437
0.000144045
0.000208789
0.000173438
0.000173432
0.00014403
0.00020876
0.000173414
0.000173406
0.000144002
0.000208769
0.000173432
0.00017342
0.00014402
0.000208783
0.000173439
0.000173429
0.000144041
0.000210136
0.000176657
0.000176653
0.000148155
0.000234268
0.000234448
0.000234449
0.000234268
0.000234448
0.000234449
0.000234274
0.000234274
0.000234274
0.000234274
0.000234448
0.000234448
0.000234267
0.000234448
0.000234448
0.000234268
0.000233421
0.000226205
0.000233116
0.000233114
0.000229362
0.000229357
0.00023342
0.000226207
0.000233114
0.000233114
0.000229359
0.000229356
0.000233116
0.000229364
0.000229361
0.000233421
0.000226204
0.000233114
0.000229364
0.000229359
0.000226204
0.000223864
0.000212231
0.0002278
0.000227795
0.000222331
0.000222325
0.000223865
0.000212234
0.000227797
0.000227793
0.000222331
0.000222322
0.000227799
0.000222337
0.000222329
0.000223863
0.000212228
0.000227798
0.000222334
0.00022233
0.000212229
0.000209109
0.000197061
0.000220317
0.000220312
0.00021387
0.000213864
0.000209109
0.000197066
0.000220318
0.000220308
0.000213874
0.00021386
0.000220315
0.000213881
0.000213868
0.000209105
0.000197057
0.000220317
0.000213877
0.000213873
0.000197058
0.000193783
0.000182867
0.000211656
0.00021165
0.00020487
0.000204864
0.000193786
0.000182874
0.000211661
0.000211646
0.000204877
0.000204859
0.000211653
0.000204885
0.000204867
0.000193779
0.000182863
0.000211659
0.000204879
0.000204876
0.000182864
0.000179699
0.000170296
0.000202601
0.000202595
0.000196004
0.000195999
0.000179704
0.000170302
0.000202609
0.000202589
0.000196016
0.000195992
0.000202598
0.000196023
0.000196001
0.000179695
0.000170291
0.000202608
0.000196016
0.000196014
0.000170291
0.000167369
0.000159201
0.000193761
0.000193756
0.000187295
0.00018729
0.000167374
0.000159208
0.000193773
0.000193749
0.00018731
0.000187283
0.000193758
0.000187317
0.000187292
0.000167364
0.000159197
0.000193772
0.00018731
0.000187309
0.000159197
0.000156601
0.000149912
0.00018537
0.000185364
0.000179353
0.000179349
0.000156606
0.000149919
0.000185385
0.000185357
0.000179372
0.000179342
0.000185367
0.000179379
0.000179351
0.000156596
0.000149907
0.000185384
0.000179371
0.00017937
0.000149907
0.00014755
0.000142631
0.000177206
0.000177201
0.000172445
0.000172437
0.000147556
0.000142636
0.000177225
0.000177193
0.000172463
0.000172429
0.000177203
0.00017247
0.000172442
0.000147545
0.000142624
0.000177223
0.000172461
0.000172463
0.000142624
0.00014135
0.000142563
0.000171816
0.000171808
0.000172069
0.000172062
0.000141353
0.000142567
0.000171834
0.0001718
0.000172087
0.000172053
0.000171813
0.000172094
0.000172066
0.000141343
0.000142554
0.000171835
0.000172084
0.000172088
0.000142555
0.000142506
0.000143933
0.000172385
0.000172379
0.00017303
0.000173023
0.00014251
0.000143937
0.000172403
0.000172369
0.000173049
0.000173015
0.000172382
0.000173055
0.000173028
0.000142498
0.000143924
0.000172405
0.000173046
0.00017305
0.000143927
0.000143754
0.00014415
0.000173173
0.000173168
0.000173338
0.000173332
0.000143757
0.000144153
0.000173192
0.000173158
0.000173358
0.000173323
0.000173171
0.000173363
0.000173337
0.000143745
0.000144141
0.000173194
0.000173354
0.00017336
0.000144145
0.00014397
0.00014419
0.000173354
0.000173348
0.00017337
0.000173406
0.000143973
0.000144171
0.000173373
0.000173338
0.000173389
0.000173354
0.000173352
0.000173438
0.000173369
0.000143961
0.000144181
0.000173375
0.000173386
0.000173392
0.000144185
0.000144018
0.00014424
0.000173414
0.000173408
0.000173419
0.000173412
0.000143985
0.000144219
0.000173434
0.000173399
0.000173438
0.000173404
0.000173413
0.000173443
0.000173418
0.000144009
0.000144231
0.000173436
0.000173435
0.000173441
0.000144235
0.000144055
0.000144237
0.00017342
0.000173413
0.000173422
0.000173415
0.000144038
0.000144241
0.000173439
0.000173405
0.000173441
0.000173406
0.000173418
0.000173446
0.000173421
0.000144046
0.000144228
0.000173441
0.000173437
0.000173444
0.000144232
0.000144051
0.000144239
0.000173422
0.000173415
0.000173422
0.000173416
0.000144054
0.000144242
0.000173441
0.000173407
0.000173442
0.000173408
0.000173421
0.000173446
0.000173422
0.000144042
0.000144229
0.000173444
0.000173437
0.000173445
0.000144234
0.000144054
0.000144237
0.000173423
0.000173417
0.000173422
0.000173417
0.000144055
0.00014424
0.000173442
0.000173408
0.000173442
0.000173408
0.000173422
0.000173446
0.000173422
0.000144044
0.000144227
0.000173445
0.000173437
0.000173445
0.000144231
0.000144051
0.000144236
0.000173422
0.000173418
0.000173421
0.000173418
0.000144054
0.000144239
0.000173442
0.000173408
0.000173441
0.000173407
0.000173422
0.000173446
0.000173421
0.000144042
0.000144226
0.000173445
0.000173437
0.000173444
0.000144231
0.00014405
0.000144236
0.000173421
0.000173419
0.00017342
0.000173419
0.000144054
0.00014424
0.000173441
0.000173407
0.000173441
0.000173407
0.000173421
0.000173447
0.000173421
0.000144041
0.000144226
0.000173444
0.000173437
0.000173444
0.00014423
0.00014405
0.000144234
0.00017342
0.000173419
0.000173419
0.000173419
0.000144054
0.000144239
0.000173441
0.000173407
0.00017344
0.000173407
0.000173421
0.000173444
0.000173422
0.000144041
0.000144225
0.000173444
0.000173432
0.000173445
0.00014423
0.000144049
0.000144223
0.000173417
0.000173418
0.00017341
0.00017341
0.000144053
0.000144224
0.000173438
0.000173406
0.000173431
0.000173398
0.00017342
0.000173437
0.000173413
0.00014404
0.000144215
0.000173444
0.000173426
0.000173436
0.000144219
0.000144034
0.000144192
0.000173407
0.000173401
0.000173383
0.000173377
0.000144034
0.000144196
0.000173427
0.000173394
0.000173403
0.000173369
0.000173409
0.000173408
0.000173382
0.000144026
0.000144183
0.000173432
0.000173401
0.000173405
0.000144187
0.000144003
0.000144196
0.00017338
0.000173375
0.000173382
0.000173376
0.00014401
0.0001442
0.000173399
0.000173365
0.000173401
0.000173367
0.000173379
0.000173407
0.000173381
0.000143995
0.000144187
0.000173402
0.000173398
0.000173404
0.000144192
0.00014401
0.000144191
0.000173383
0.000173377
0.000173383
0.000173377
0.000144013
0.000144195
0.000173403
0.000173368
0.000173403
0.000173368
0.000173382
0.000173408
0.000173382
0.000144001
0.000144182
0.000173405
0.000173399
0.000173404
0.000144185
0.000144005
0.000144191
0.000173384
0.000173378
0.000173385
0.000173378
0.000144009
0.000144197
0.000173403
0.000173368
0.000173404
0.000173369
0.000173382
0.000173409
0.000173383
0.000143997
0.000144182
0.000173404
0.0001734
0.000173404
0.000144187
0.000144006
0.000144191
0.000173385
0.000173379
0.000173385
0.000173378
0.000144012
0.000144195
0.000173405
0.00017337
0.000173405
0.000173369
0.000173384
0.000173409
0.000173383
0.000143998
0.000144182
0.000173404
0.0001734
0.000173403
0.000144186
0.000144006
0.000144191
0.000173385
0.000173378
0.000173385
0.000173379
0.00014401
0.000144195
0.000173405
0.00017337
0.000173405
0.00017337
0.000173383
0.000173409
0.000173383
0.000143997
0.000144182
0.000173403
0.0001734
0.000173403
0.000144186
0.000144006
0.000144192
0.000173385
0.000173379
0.000173385
0.000173379
0.00014401
0.000144195
0.000173405
0.00017337
0.000173405
0.000173369
0.000173383
0.000173409
0.000173383
0.000143997
0.000144183
0.000173404
0.0001734
0.000173403
0.000144187
0.000144006
0.000144193
0.000173385
0.000173379
0.000173385
0.000173379
0.000144009
0.000144197
0.000173405
0.00017337
0.000173405
0.000173369
0.000173384
0.000173409
0.000173383
0.000143997
0.000144184
0.000173403
0.0001734
0.000173403
0.000144188
0.000144007
0.000144192
0.000173385
0.000173379
0.000173385
0.000173379
0.00014401
0.000144197
0.000173405
0.00017337
0.000173405
0.00017337
0.000173383
0.00017341
0.000173383
0.000143999
0.000144183
0.000173403
0.0001734
0.000173403
0.000144187
0.000144007
0.000144243
0.000173385
0.000173379
0.000173428
0.000173421
0.000144011
0.000144179
0.000173405
0.00017337
0.000173448
0.000173413
0.000173383
0.000173453
0.000173426
0.000143998
0.000144234
0.000173403
0.000173443
0.000173446
0.000144238
0.000144058
0.000144241
0.000173429
0.000173422
0.000173428
0.00017342
0.000143996
0.00014421
0.00017345
0.000173414
0.000173449
0.000173413
0.000173427
0.000173452
0.000173427
0.000144049
0.000144231
0.000173448
0.000173442
0.000173447
0.000144235
0.000144055
0.000144238
0.000173428
0.00017342
0.000173427
0.00017342
0.000144028
0.00014424
0.000173448
0.000173413
0.000173448
0.000173412
0.000173426
0.000173452
0.000173426
0.000144046
0.000144229
0.000173446
0.00017344
0.000173445
0.000144233
0.000144053
0.000144239
0.000173427
0.00017342
0.000173426
0.000173419
0.000144056
0.000144242
0.000173448
0.000173413
0.000173447
0.000173412
0.000173426
0.00017345
0.000173426
0.000144044
0.000144229
0.000173445
0.00017344
0.000173444
0.000144233
0.000144053
0.000144238
0.000173426
0.000173419
0.000173425
0.000173418
0.000144056
0.000144243
0.000173447
0.000173412
0.000173446
0.000173411
0.000173426
0.00017345
0.000173425
0.000144043
0.000144228
0.000173444
0.000173439
0.000173443
0.000144233
0.000144052
0.000144237
0.000173426
0.000173418
0.000173425
0.000173418
0.000144056
0.000144242
0.000173446
0.000173411
0.000173445
0.000173411
0.000173425
0.000173449
0.000173425
0.000144043
0.000144227
0.000173443
0.000173437
0.000173443
0.000144232
0.000144051
0.000144235
0.000173424
0.000173418
0.000173423
0.000173419
0.000144056
0.000144241
0.000173445
0.00017341
0.000173444
0.000173405
0.000173425
0.000173446
0.000173425
0.000144042
0.000144225
0.000173443
0.000173434
0.000173443
0.000144231
0.000144049
0.000144234
0.000173424
0.000173418
0.000173422
0.000173413
0.000144055
0.000144238
0.000173444
0.000173404
0.000173442
0.000173401
0.000173424
0.000173442
0.000173418
0.000144039
0.000144222
0.000173441
0.000173431
0.000173435
0.000144227
0.000144048
0.000144209
0.000173419
0.000173411
0.000173402
0.000173398
0.000144052
0.000144219
0.000173439
0.000173399
0.000173422
0.000173388
0.000173415
0.000173432
0.000173402
0.000144036
0.0001442
0.000173433
0.000173419
0.000173422
0.000144204
0.000144016
0.000144193
0.000173392
0.000173388
0.000173379
0.000173373
0.000144026
0.000144196
0.000173412
0.000173378
0.0001734
0.000173364
0.000173392
0.000173405
0.000173378
0.000144008
0.000144183
0.000173411
0.000173395
0.000173398
0.000144187
0.000144009
0.000144193
0.000173381
0.000173374
0.000173383
0.000173376
0.000144011
0.000144199
0.000173402
0.000173366
0.000173404
0.000173368
0.000173379
0.000173408
0.000173381
0.000144
0.000144184
0.000173399
0.000173398
0.000173401
0.000144188
0.000144007
0.00014419
0.000173384
0.000173377
0.000173384
0.000173377
0.000144012
0.000144194
0.000173404
0.000173368
0.000173404
0.000173369
0.000173382
0.000173408
0.000173382
0.000143998
0.000144181
0.000173401
0.000173399
0.000173402
0.000144184
0.000144004
0.000144193
0.000173385
0.000173378
0.000173384
0.000173379
0.000144009
0.000144197
0.000173405
0.000173369
0.000173404
0.000173369
0.000173383
0.00017341
0.000173383
0.000143996
0.000144184
0.000173403
0.0001734
0.000173403
0.000144188
0.000144007
0.000144191
0.000173384
0.000173379
0.000173385
0.000173379
0.000144012
0.000144196
0.000173404
0.000173369
0.000173404
0.000173369
0.000173383
0.00017341
0.000173383
0.000143999
0.000144183
0.000173403
0.0001734
0.000173403
0.000144186
0.000144006
0.000144191
0.000173385
0.000173379
0.000173385
0.000173379
0.00014401
0.000144195
0.000173404
0.00017337
0.000173404
0.000173369
0.000173384
0.00017341
0.000173383
0.000143998
0.000144183
0.000173403
0.0001734
0.000173403
0.000144187
0.000144006
0.00014419
0.000173385
0.000173379
0.000173385
0.000173379
0.00014401
0.000144195
0.000173404
0.00017337
0.000173404
0.000173369
0.000173383
0.00017341
0.000173383
0.000143998
0.000144182
0.000173403
0.0001734
0.000173403
0.000144185
0.000144005
0.000144191
0.000173385
0.000173379
0.000173385
0.000173379
0.000144009
0.000144197
0.000173404
0.000173369
0.000173404
0.000173369
0.000173383
0.00017341
0.000173383
0.000143997
0.000144182
0.000173403
0.0001734
0.000173403
0.000144185
0.000144005
0.000144192
0.000173385
0.000173379
0.000173385
0.000173379
0.000144011
0.000144197
0.000173404
0.00017337
0.000173404
0.000173369
0.000173384
0.00017341
0.000173383
0.000143997
0.000144183
0.000173403
0.000173399
0.000173403
0.000144187
0.000144006
0.000144191
0.000173385
0.000173379
0.000173426
0.00017342
0.000144011
0.000144195
0.000173404
0.000173369
0.000173445
0.00017341
0.000173383
0.00017345
0.000173423
0.000143998
0.000144186
0.000173403
0.00017344
0.000173443
0.000144183
0.000144012
0.000144239
0.000173426
0.00017342
0.000173427
0.00017342
0.000144015
0.000144243
0.000173445
0.000173411
0.000173445
0.000173411
0.000173423
0.000173451
0.000173423
0.000144008
0.000144232
0.000173442
0.00017344
0.000173442
0.000144214
0.000144055
0.000144237
0.000173427
0.00017342
0.000173427
0.000173419
0.000144059
0.000144241
0.000173445
0.000173411
0.000173445
0.00017341
0.000173423
0.00017345
0.000173423
0.000144047
0.000144228
0.000173443
0.000173439
0.000173442
0.000144232
0.000144052
0.000144236
0.000173426
0.00017342
0.000173426
0.000173419
0.000144056
0.000144241
0.000173445
0.000173411
0.000173444
0.00017341
0.000173423
0.000173449
0.000173422
0.000144044
0.000144227
0.000173442
0.000173438
0.000173442
0.000144231
0.000144051
0.000144236
0.000173426
0.000173419
0.000173425
0.000173418
0.000144055
0.00014424
0.000173444
0.00017341
0.000173444
0.000173409
0.000173422
0.000173448
0.000173422
0.000144042
0.000144227
0.000173442
0.000173437
0.000173441
0.000144231
0.000144051
0.000144236
0.000173425
0.000173418
0.000173426
0.000173418
0.000144055
0.00014424
0.000173444
0.000173409
0.000173444
0.000173409
0.000173422
0.000173448
0.000173423
0.000144042
0.000144226
0.000173441
0.000173438
0.000173442
0.00014423
0.00014405
0.000144235
0.000173426
0.000173418
0.000173426
0.000173419
0.000144054
0.000144239
0.000173444
0.000173409
0.000173445
0.000173409
0.000173423
0.000173446
0.000173424
0.000144041
0.000144225
0.000173442
0.000173434
0.000173443
0.00014423
0.00014405
0.00014423
0.000173425
0.000173419
0.000173418
0.000173412
0.000144054
0.000144234
0.000173443
0.000173408
0.000173439
0.000173401
0.000173422
0.00017344
0.000173415
0.000144041
0.00014422
0.000173442
0.000173429
0.000173436
0.000144224
0.000144043
0.000144198
0.000173415
0.000173409
0.000173393
0.000173386
0.000144047
0.000144204
0.000173436
0.000173399
0.000173411
0.000173377
0.000173413
0.000173418
0.00017339
0.000144033
0.00014419
0.000173433
0.000173408
0.000173409
0.000144193
0.000144007
0.000144194
0.000173385
0.000173379
0.000173381
0.000173375
0.000144012
0.0001442
0.000173404
0.000173369
0.0001734
0.000173365
0.000173383
0.000173406
0.000173379
0.000143999
0.000144186
0.000173401
0.000173396
0.000173398
0.00014419
0.00014401
0.000144191
0.000173384
0.000173377
0.000173384
0.000173377
0.000144015
0.000144196
0.000173402
0.000173368
0.000173402
0.000173368
0.000173381
0.000173409
0.000173381
0.000144002
0.000144182
0.0001734
0.000173398
0.0001734
0.000144186
0.000144006
0.000144189
0.000173384
0.000173377
0.000173385
0.000173378
0.00014401
0.000144194
0.000173403
0.000173368
0.000173403
0.000173369
0.000173382
0.00017341
0.000173383
0.000143997
0.000144181
0.000173401
0.000173399
0.000173402
0.000144185
0.000144004
0.000144191
0.000173386
0.000173379
0.000173385
0.000173379
0.000144009
0.000144197
0.000173404
0.00017337
0.000173404
0.000173369
0.000173383
0.00017341
0.000173383
0.000143996
0.000144183
0.000173402
0.0001734
0.000173402
0.000144186
0.000144006
0.000144191
0.000173385
0.000173379
0.000173385
0.000173379
0.000144011
0.000144196
0.000173404
0.000173369
0.000173404
0.000173369
0.000173383
0.00017341
0.000173383
0.000143997
0.000144182
0.000173402
0.0001734
0.000173402
0.000144186
0.000144006
0.000144192
0.000173386
0.000173379
0.000173385
0.000173379
0.00014401
0.000144197
0.000173404
0.00017337
0.000173404
0.000173369
0.000173384
0.00017341
0.000173383
0.000143997
0.000144183
0.000173403
0.0001734
0.000173402
0.000144187
0.000144007
0.000144191
0.000173386
0.000173379
0.000173386
0.000173379
0.000144011
0.000144196
0.000173404
0.00017337
0.000173404
0.000173369
0.000173383
0.00017341
0.000173383
0.000143998
0.000144183
0.000173403
0.0001734
0.000173402
0.000144186
0.000144007
0.00014419
0.000173386
0.000173379
0.000173385
0.000173379
0.000144011
0.000144195
0.000173404
0.000173369
0.000173404
0.000173369
0.000173383
0.00017341
0.000173383
0.000143998
0.000144182
0.000173402
0.0001734
0.000173402
0.000144185
0.000144005
0.00014417
0.000173386
0.000173379
0.000173428
0.000173421
0.00014401
0.000144175
0.000173404
0.000173369
0.000173446
0.000173412
0.000173383
0.000173453
0.000173426
0.000143997
0.000144234
0.000173402
0.000173442
0.000173445
0.000144238
0.000143988
0.000144223
0.000173427
0.000173421
0.000173427
0.00017342
0.000143993
0.000144227
0.000173446
0.000173414
0.000173445
0.000173413
0.000173428
0.000173453
0.000173427
0.000144049
0.000144231
0.000173447
0.000173441
0.000173446
0.000144235
0.000144043
0.000144238
0.000173427
0.000173421
0.000173427
0.00017342
0.000144046
0.000144244
0.000173445
0.000173413
0.000173445
0.000173412
0.000173426
0.000173452
0.000173426
0.000144046
0.000144229
0.000173445
0.00017344
0.000173445
0.000144233
0.000144051
0.000144237
0.000173427
0.00017342
0.000173426
0.00017342
0.000144057
0.000144242
0.000173445
0.000173412
0.000173444
0.000173411
0.000173426
0.000173451
0.000173425
0.000144044
0.000144229
0.000173445
0.000173438
0.000173444
0.000144233
0.000144052
0.000144236
0.000173426
0.000173419
0.000173425
0.000173419
0.000144056
0.000144241
0.000173444
0.000173412
0.000173444
0.000173411
0.000173425
0.00017345
0.000173425
0.000144043
0.000144228
0.000173444
0.000173438
0.000173443
0.000144232
0.000144051
0.000144236
0.000173425
0.000173419
0.000173425
0.000173418
0.000144056
0.000144241
0.000173444
0.000173411
0.000173443
0.000173411
0.000173425
0.00017345
0.000173425
0.000144043
0.000144227
0.000173443
0.000173436
0.000173443
0.000144232
0.00014405
0.000144235
0.000173425
0.000173418
0.000173425
0.000173419
0.000144055
0.00014424
0.000173443
0.00017341
0.000173443
0.000173406
0.000173424
0.000173449
0.000173421
0.000144042
0.000144224
0.000173443
0.000173434
0.000173442
0.00014423
0.00014405
0.000144235
0.000173425
0.000173418
0.000173425
0.000173417
0.000144055
0.000144238
0.000173443
0.000173404
0.000173443
0.000173401
0.000173419
0.000173442
0.000173415
0.000144039
0.000144222
0.00017344
0.00017343
0.000173434
0.000144225
0.000144049
0.000144217
0.000173422
0.000173414
0.000173411
0.000173404
0.000144052
0.000144221
0.000173441
0.000173399
0.000173429
0.000173389
0.000173413
0.000173434
0.000173402
0.000144036
0.0001442
0.000173432
0.000173419
0.00017342
0.000144203
0.000144025
0.00014419
0.000173402
0.000173394
0.000173381
0.000173374
0.000144029
0.000144195
0.000173419
0.000173378
0.000173399
0.000173364
0.000173391
0.000173406
0.000173378
0.000144008
0.000144183
0.00017341
0.000173395
0.000173397
0.000144187
0.000144005
0.000144194
0.000173381
0.000173374
0.000173384
0.000173377
0.00014401
0.000144199
0.000173399
0.000173366
0.000173402
0.000173367
0.00017338
0.000173408
0.000173381
0.000144
0.000144184
0.000173399
0.000173398
0.0001734
0.000144188
0.000144008
0.00014419
0.000173384
0.000173378
0.000173384
0.000173378
0.000144013
0.000144195
0.000173402
0.000173368
0.000173403
0.000173368
0.000173382
0.000173409
0.000173382
0.000143998
0.000144181
0.000173401
0.000173399
0.000173401
0.000144184
0.000144005
0.000144192
0.000173385
0.000173378
0.000173386
0.000173379
0.000144009
0.000144197
0.000173403
0.000173369
0.000173404
0.000173369
0.000173383
0.00017341
0.000173383
0.000143996
0.000144184
0.000173402
0.0001734
0.000173402
0.000144187
0.000144008
0.000144191
0.000173386
0.000173379
0.000173385
0.000173379
0.000144012
0.000144196
0.000173404
0.000173369
0.000173403
0.000173369
0.000173383
0.00017341
0.000173383
0.000143999
0.000144183
0.000173403
0.0001734
0.000173402
0.000144186
0.000144006
0.00014419
0.000173386
0.000173379
0.000173385
0.000173379
0.000144011
0.000144196
0.000173404
0.00017337
0.000173404
0.000173369
0.000173384
0.00017341
0.000173383
0.000143998
0.000144183
0.000173403
0.0001734
0.000173402
0.000144187
0.000144006
0.00014419
0.000173385
0.000173379
0.000173385
0.000173379
0.000144011
0.000144195
0.000173404
0.000173369
0.000173404
0.000173369
0.000173383
0.00017341
0.000173383
0.000143998
0.000144181
0.000173402
0.0001734
0.000173402
0.000144185
0.000144005
0.000144192
0.000173386
0.000173379
0.000173385
0.000173379
0.000144009
0.000144197
0.000173404
0.000173369
0.000173404
0.000173369
0.000173383
0.00017341
0.000173383
0.000143997
0.000144182
0.000173403
0.0001734
0.000173402
0.000144185
0.000144006
0.000144192
0.000173386
0.000173379
0.000173386
0.000173421
0.000144011
0.000144176
0.000173404
0.00017337
0.000173404
0.000173369
0.000173384
0.000173453
0.000173384
0.000143997
0.000144183
0.000173403
0.000173399
0.000173403
0.000144187
0.000144009
0.000144193
0.000173429
0.000173421
0.000173426
0.000173421
0.000143994
0.000144228
0.000173404
0.00017337
0.000173444
0.000173411
0.000173427
0.000173452
0.000173426
0.000143998
0.000144186
0.000173446
0.000173441
0.000173445
0.000144237
0.000144012
0.000144215
0.000173426
0.000173421
0.000173425
0.00017342
0.000144048
0.000144243
0.000173444
0.000173411
0.000173443
0.000173411
0.000173426
0.000173451
0.000173425
0.000144008
0.000144232
0.000173445
0.000173441
0.000173444
0.000144233
0.000144033
0.000144234
0.000173426
0.00017342
0.000173425
0.000173419
0.000144056
0.000144242
0.000173444
0.000173411
0.000173443
0.00017341
0.000173425
0.000173451
0.000173424
0.000144047
0.000144229
0.000173444
0.000173439
0.000173443
0.000144232
0.00014405
0.000144236
0.000173425
0.000173419
0.000173425
0.000173419
0.000144056
0.000144242
0.000173444
0.000173411
0.000173443
0.00017341
0.000173423
0.00017345
0.000173423
0.000144044
0.000144227
0.000173442
0.000173438
0.000173441
0.000144231
0.000144051
0.000144236
0.000173425
0.000173419
0.000173425
0.000173419
0.000144056
0.00014424
0.000173443
0.00017341
0.000173444
0.00017341
0.000173423
0.000173449
0.000173423
0.000144043
0.000144227
0.000173442
0.000173438
0.000173442
0.000144231
0.000144051
0.000144237
0.000173425
0.000173419
0.000173426
0.00017342
0.000144055
0.000144241
0.000173444
0.00017341
0.000173444
0.00017341
0.000173423
0.000173448
0.000173424
0.000144042
0.000144227
0.000173442
0.000173438
0.000173443
0.00014423
0.000144052
0.000144237
0.000173427
0.00017342
0.000173427
0.000173421
0.000144055
0.00014424
0.000173445
0.000173411
0.000173446
0.000173413
0.000173425
0.000173446
0.000173425
0.000144043
0.000144227
0.000173444
0.000173438
0.000173444
0.00014423
0.000144052
0.000144231
0.000173428
0.000173419
0.000173422
0.000173413
0.000144055
0.000144227
0.000173448
0.000173413
0.000173446
0.000173408
0.000173424
0.000173443
0.000173418
0.000144043
0.000144223
0.000173443
0.000173433
0.000173437
0.00014422
0.000144043
0.000144199
0.000173419
0.000173407
0.000173397
0.000173387
0.000144037
0.000144201
0.000173443
0.000173406
0.000173418
0.000173385
0.000173414
0.00017342
0.000173393
0.000144037
0.000144194
0.000173433
0.000173416
0.000173412
0.000144191
0.000144011
0.000144207
0.000173391
0.000173383
0.000173405
0.000173399
0.000144017
0.000144212
0.000173411
0.000173376
0.000173422
0.000173387
0.000173387
0.000173431
0.000173403
0.000144004
0.000144197
0.000173406
0.000173418
0.000173423
0.000144203
0.000144024
0.000144229
0.000173408
0.000173401
0.000173454
0.000173447
0.000144029
0.000144233
0.000173425
0.000173391
0.000173474
0.00017344
0.000173406
0.000173478
0.00017345
0.000144016
0.00014422
0.000173425
0.000173469
0.000173472
0.000144223
0.000144048
0.000145924
0.000173414
0.000173407
0.000175572
0.000175568
0.000144051
0.000145927
0.000173434
0.000173399
0.000175587
0.000175564
0.00017341
0.000175589
0.000175571
0.00014404
0.000145918
0.000173432
0.000175585
0.000175587
0.000145923
0.000148157
0.000176643
0.00017664
0.000148159
0.000176655
0.000176637
0.000210135
0.000210135
0.000210136
0.000176643
0.000148152
0.000176656
0.00023473
0.000234746
0.000234729
0.000234729
0.000235119
0.000234798
0.000234701
0.000234727
0.000235119
0.000234798
0.000234727
0.000234701
0.000234868
0.000233566
0.000233566
0.000104639
3.87451e-05
0.000129139
3.98205e-05
2.16834e-05
2.28288e-05
0.000104628
3.87411e-05
0.000129138
3.9817e-05
0.000233973
0.000233973
0.000233973
0.000232936
0.000232936
0.000232935
0.000232935
0.000206188
9.36593e-05
0.000233969
0.000231994
0.000222626
8.72344e-05
0.000233611
2.16824e-05
2.28281e-05
0.00020618
0.000233969
9.36589e-05
0.000231994
0.000222635
0.000233611
8.72399e-05
4.77858e-05
4.77739e-05
0.000231347
4.40301e-05
4.40206e-05
7.25812e-05
4.24381e-05
8.14004e-05
4.37584e-05
2.47773e-05
2.54616e-05
7.257e-05
4.24346e-05
8.13981e-05
4.37546e-05
0.000232533
0.000232533
0.000232533
0.000231083
0.000231084
0.000231083
0.000231083