/*--------------------------------*- C++ -*----------------------------------*\
| =========                 |                                                 |
| \\      /  F ield         | OpenFOAM: The Open Source CFD Toolbox           |
|  \\    /   O peration     | Version:  2206                                  |
|   \\  /    A nd           | Website:  www.openfoam.com                      |
|    \\/     M anipulation  |                                                 |
\*---------------------------------------------------------------------------*/
FoamFile
{
    version     2.0;
    format      ascii;
    arch        "LSB;label=32;scalar=64";
    class       volScalarField;
    location    "38.5";
    object      Ux;
}
// * * * * * * * * * * * * * * * * * * * * * * * * * * * * * * * * * * * * * //

dimensions      [0 1 -1 0 0 0 0];

internalField   nonuniform List<scalar> 
171728
(
0.000107956
-0.000190196
0.00011935
-0.000239526
9.43041e-05
-0.000158938
9.68107e-05
-0.000200927
9.5219e-05
-0.000155406
9.32246e-05
-0.000201647
9.34634e-05
-0.000151519
8.98456e-05
-0.000198422
9.13823e-05
-0.000146622
8.59682e-05
-0.000192783
8.86969e-05
-0.000141907
8.25046e-05
-0.000185493
8.22433e-05
-0.000130155
7.52248e-05
-0.000175253
6.37584e-05
-0.0001012
5.61923e-05
-0.000150759
3.56375e-05
-5.09294e-05
3.18153e-05
-9.31916e-05
1.41495e-05
-2.00645e-05
1.44807e-05
-6.52955e-05
1.8221e-06
-3.82815e-06
3.26332e-06
-5.10615e-05
-6.87992e-07
-8.23782e-07
1.1316e-06
-4.87768e-05
-9.22016e-07
-6.31593e-07
9.69482e-07
-4.86485e-05
-9.33792e-07
-6.26353e-07
9.64813e-07
-4.86462e-05
-9.3643e-07
-6.21914e-07
9.64451e-07
-4.86467e-05
-9.36963e-07
-6.22183e-07
9.64461e-07
-4.8647e-05
-9.35729e-07
-6.22512e-07
9.64423e-07
-4.86464e-05
-9.35737e-07
-6.22363e-07
9.64463e-07
-4.86464e-05
-9.33771e-07
-6.22822e-07
9.6473e-07
-4.86465e-05
-9.28021e-07
-6.19782e-07
9.65194e-07
-4.86462e-05
-9.23691e-07
-6.26247e-07
9.65997e-07
-4.8646e-05
-9.33225e-07
-6.22017e-07
9.65238e-07
-4.86458e-05
-9.34001e-07
-6.21491e-07
9.65344e-07
-4.86459e-05
-9.34459e-07
-6.20926e-07
9.65057e-07
-4.86462e-05
-9.35136e-07
-6.2045e-07
9.64958e-07
-4.86469e-05
-9.35443e-07
-6.19893e-07
9.64689e-07
-4.86469e-05
-9.36301e-07
-6.19157e-07
9.6439e-07
-4.86468e-05
-9.36999e-07
-6.18779e-07
9.64284e-07
-4.86469e-05
-9.36606e-07
-6.19261e-07
9.64897e-07
-4.86472e-05
-9.36203e-07
-6.19631e-07
9.65059e-07
-4.86474e-05
-9.35235e-07
-6.19812e-07
9.65564e-07
-4.8648e-05
-9.35422e-07
-6.20208e-07
9.65073e-07
-4.86481e-05
-9.35787e-07
-6.19714e-07
9.65426e-07
-4.86477e-05
-9.35755e-07
-6.19286e-07
9.6498e-07
-4.86476e-05
-9.36779e-07
-6.18488e-07
9.64359e-07
-4.86469e-05
-9.36191e-07
-6.18469e-07
9.64926e-07
-4.8647e-05
-9.3627e-07
-6.18653e-07
9.64794e-07
-4.86471e-05
-9.35744e-07
-6.18927e-07
9.6557e-07
-4.86478e-05
-9.35825e-07
-6.19884e-07
9.65492e-07
-4.8648e-05
-9.35481e-07
-6.18778e-07
9.64475e-07
-4.86457e-05
-9.31355e-07
-6.17549e-07
9.64568e-07
-4.8646e-05
-9.38785e-07
-6.19186e-07
9.64303e-07
-4.8648e-05
-9.36182e-07
-6.19753e-07
9.6479e-07
-4.86476e-05
-9.35408e-07
-6.19186e-07
9.64271e-07
-4.86468e-05
-9.34617e-07
-6.20903e-07
9.6378e-07
-4.86476e-05
-9.33866e-07
-6.21003e-07
9.64358e-07
-4.86479e-05
-9.32539e-07
-6.21644e-07
9.64773e-07
-4.86482e-05
-9.32618e-07
-6.21773e-07
9.64589e-07
-4.86483e-05
-9.33176e-07
-6.2143e-07
9.64513e-07
-4.86485e-05
-9.3343e-07
-6.21519e-07
9.64218e-07
-4.86483e-05
-9.33721e-07
-6.20243e-07
9.64285e-07
-4.86476e-05
-9.33885e-07
-6.21231e-07
9.64558e-07
-4.86479e-05
-9.33616e-07
-6.20724e-07
9.64641e-07
-4.86478e-05
-9.31817e-07
-6.21377e-07
9.65313e-07
-4.86481e-05
-9.30781e-07
-6.21152e-07
9.65782e-07
-4.86484e-05
-9.32529e-07
-6.22532e-07
9.65194e-07
-4.86492e-05
-9.32423e-07
-6.24449e-07
9.65043e-07
-4.86516e-05
-9.32256e-07
-6.23243e-07
9.65462e-07
-4.86511e-05
-9.3244e-07
-6.23472e-07
9.65352e-07
-4.86509e-05
-9.32522e-07
-6.22852e-07
9.65475e-07
-4.86507e-05
-9.3195e-07
-6.23899e-07
9.65953e-07
-4.86509e-05
-9.31441e-07
-6.23777e-07
9.66018e-07
-4.86511e-05
-9.31191e-07
-6.24768e-07
9.66364e-07
-4.86516e-05
-9.31198e-07
-6.245e-07
9.66743e-07
-4.86515e-05
-9.31221e-07
-6.23676e-07
9.66074e-07
-4.86509e-05
-9.31601e-07
-6.23476e-07
9.65801e-07
-4.8651e-05
-9.32673e-07
-6.22828e-07
9.65454e-07
-4.86503e-05
-9.31891e-07
-6.23368e-07
9.66062e-07
-4.86511e-05
-9.31509e-07
-6.23226e-07
9.67162e-07
-4.86522e-05
-9.30602e-07
-6.2385e-07
9.73118e-07
-4.86556e-05
-9.30472e-07
-6.24431e-07
9.69969e-07
-4.86552e-05
-9.30912e-07
-6.23867e-07
9.66464e-07
-4.86515e-05
-9.3117e-07
-6.2417e-07
9.662e-07
-4.86516e-05
-9.32161e-07
-6.23025e-07
9.65612e-07
-4.86509e-05
-9.32341e-07
-6.23645e-07
9.65717e-07
-4.86514e-05
-9.32266e-07
-6.22489e-07
9.65778e-07
-4.86513e-05
-9.31689e-07
-6.23938e-07
9.66434e-07
-4.86522e-05
-9.31478e-07
-6.23897e-07
9.66412e-07
-4.86525e-05
-9.30981e-07
-6.24197e-07
9.67257e-07
-4.86525e-05
-9.30956e-07
-6.24576e-07
9.6706e-07
-4.86528e-05
-9.31659e-07
-6.2384e-07
9.66266e-07
-4.86525e-05
-9.31888e-07
-6.23455e-07
9.66126e-07
-4.86521e-05
-9.32284e-07
-6.22815e-07
9.65842e-07
-4.86517e-05
-9.32724e-07
-6.22121e-07
9.64741e-07
-4.86518e-05
-9.35382e-07
-6.17033e-07
9.60714e-07
-4.86505e-05
-9.43527e-07
-6.07455e-07
9.50032e-07
-4.86409e-05
-9.52701e-07
-6.05427e-07
9.40571e-07
-4.85529e-05
-9.40977e-07
-6.62258e-07
1.00044e-06
-4.85619e-05
-8.35196e-07
-7.82122e-07
1.03291e-06
-4.8187e-05
-8.08428e-07
-9.69717e-07
1.17031e-06
-4.79574e-05
-7.03421e-07
-1.4043e-06
1.47276e-06
-4.71354e-05
-5.29324e-07
-2.28705e-06
2.12794e-06
-4.5746e-05
-5.00683e-07
-3.9521e-06
3.49085e-06
-4.19029e-05
-5.95262e-06
-2.59977e-06
3.73227e-06
-2.69771e-05
-4.04604e-05
4.27311e-05
-3.38139e-05
4.52114e-05
0.000135014
0.000124247
-0.000124238
-0.00013501
0.000152899
0.000152872
9.07938e-05
-9.0784e-05
9.07681e-05
-9.07657e-05
-0.000152895
-0.000152881
0.000135004
0.000124199
-0.000124195
-0.000135012
0.000239568
0.000111469
0.0001194
-0.000119352
8.90763e-05
-8.90376e-05
-0.000239578
-0.000111429
0.000190233
0.000190171
0.000147133
0.000147167
-0.000190153
-0.000147103
-0.000147125
0.000239499
0.000111421
-0.00011933
8.90504e-05
-8.90298e-05
-0.000111419
0.000201015
0.000105974
9.68184e-05
-9.67916e-05
9.41901e-05
-9.41903e-05
-0.000200978
-0.000105961
0.00015897
0.000158989
0.000156545
0.000156585
-0.000158966
-0.000156542
-0.000156563
0.000200925
0.000105937
-9.67926e-05
9.41916e-05
-9.41976e-05
-0.000105953
0.000201714
9.73165e-05
9.32167e-05
-9.32215e-05
9.14438e-05
-9.14325e-05
-0.000201705
-9.72957e-05
0.000155414
0.000155456
0.00015364
0.000153672
-0.000155438
-0.000153635
-0.000153672
0.00020163
9.72686e-05
-9.32322e-05
9.14471e-05
-9.14367e-05
-9.73304e-05
0.000198455
8.75696e-05
8.9841e-05
-8.98277e-05
8.75221e-05
-8.75128e-05
-0.000198439
-8.7561e-05
0.000151526
0.000151557
0.000148989
0.00014902
-0.000151559
-0.000148984
-0.000149027
0.00019836
8.7535e-05
-8.98306e-05
8.75276e-05
-8.75091e-05
-8.75981e-05
0.000192797
7.78274e-05
8.5959e-05
-8.59486e-05
8.22556e-05
-8.22493e-05
-0.000192798
-7.78226e-05
0.000146628
0.000146656
0.00014179
0.000141818
-0.000146665
-0.000141784
-0.000141832
0.000192719
7.77908e-05
-8.59469e-05
8.22625e-05
-8.22424e-05
-7.78649e-05
0.000185506
6.97466e-05
8.24897e-05
-8.24801e-05
7.65784e-05
-7.65547e-05
-0.000185495
-6.97311e-05
0.000141914
0.000141944
0.000132983
0.000133009
-0.000141953
-0.000132975
-0.000133029
0.000185415
6.97104e-05
-8.24807e-05
7.65702e-05
-7.65471e-05
-6.97977e-05
0.000175239
5.29201e-05
7.51897e-05
-7.51696e-05
6.58279e-05
-6.58062e-05
-0.000175228
-5.29493e-05
0.000130171
0.00013019
0.000116353
0.000116408
-0.000130204
-0.000116367
-0.000116414
0.00017517
5.29473e-05
-7.51984e-05
6.57796e-05
-6.57515e-05
-5.29188e-05
0.000150789
-3.3446e-06
5.62339e-05
-5.62265e-05
3.55404e-05
-3.55461e-05
-0.000150833
3.33173e-06
0.0001012
0.000101249
5.97217e-05
5.97512e-05
-0.000101261
-5.97256e-05
-5.97438e-05
0.000150745
-3.29623e-06
-5.61694e-05
3.5491e-05
-3.54893e-05
3.3121e-06
9.31931e-05
-3.17597e-05
3.18644e-05
-3.18665e-05
1.91274e-05
-1.91211e-05
-9.32083e-05
3.17783e-05
5.0936e-05
5.09537e-05
2.72017e-05
2.72146e-05
-5.09423e-05
-2.71851e-05
-2.71966e-05
9.31878e-05
-3.17524e-05
-3.18128e-05
1.90808e-05
-1.90804e-05
3.17635e-05
6.5322e-05
-4.79459e-05
1.45229e-05
-1.45178e-05
4.92271e-06
-4.90836e-06
-6.53131e-05
4.79655e-05
2.00817e-05
2.00941e-05
6.09797e-06
6.11465e-06
-2.00827e-05
-6.08324e-06
-6.12038e-06
6.52876e-05
-4.79335e-05
-1.44799e-05
4.87123e-06
-4.87524e-06
4.79278e-05
5.10694e-05
-5.1003e-05
3.31186e-06
-3.2972e-06
1.34243e-06
-1.34132e-06
-5.10585e-05
5.10078e-05
3.84243e-06
3.85698e-06
1.08687e-06
1.114e-06
-3.86333e-06
-1.08178e-06
-1.11553e-06
5.10412e-05
-5.09742e-05
-3.26601e-06
1.30739e-06
-1.30579e-06
5.09756e-05
4.87764e-05
-5.11913e-05
1.16603e-06
-1.16279e-06
1.01164e-06
-1.01137e-06
-4.87798e-05
5.11947e-05
8.29106e-07
8.53479e-07
6.34141e-07
6.63803e-07
-8.54515e-07
-6.37232e-07
-6.65962e-07
4.87636e-05
-5.11636e-05
-1.12875e-06
9.77521e-07
-9.7506e-07
5.11647e-05
4.86492e-05
-5.11965e-05
1.00303e-06
-1.0016e-06
9.95947e-07
-9.96526e-07
-4.86533e-05
5.11976e-05
6.28796e-07
6.55019e-07
6.21498e-07
6.51741e-07
-6.58144e-07
-6.2532e-07
-6.55367e-07
4.86345e-05
-5.11676e-05
-9.66718e-07
9.63272e-07
-9.60726e-07
5.11683e-05
4.86454e-05
-5.1191e-05
9.97843e-07
-9.97887e-07
9.95528e-07
-1.001e-06
-4.86522e-05
5.11989e-05
6.25146e-07
6.51895e-07
6.22917e-07
6.52977e-07
-6.55323e-07
-6.20964e-07
-6.5509e-07
4.86321e-05
-5.11664e-05
-9.61699e-07
9.63966e-07
-9.62157e-07
5.11676e-05
4.86484e-05
-5.1192e-05
9.93873e-07
-1.00268e-06
9.91754e-07
-1.01012e-06
-4.8652e-05
5.11947e-05
6.26383e-07
6.52801e-07
6.22955e-07
6.53067e-07
-6.54891e-07
-6.21732e-07
-6.54919e-07
4.86326e-05
-5.1166e-05
-9.62617e-07
9.63366e-07
-9.62577e-07
5.11668e-05
4.86473e-05
-5.11898e-05
9.91358e-07
-1.00729e-06
9.93459e-07
-1.00073e-06
-4.86515e-05
5.11962e-05
6.26576e-07
6.52971e-07
6.24274e-07
6.53259e-07
-6.5483e-07
-6.21031e-07
-6.54355e-07
4.86329e-05
-5.11659e-05
-9.63142e-07
9.63379e-07
-9.62111e-07
5.11674e-05
4.86489e-05
-5.1191e-05
9.9309e-07
-1.00088e-06
9.93138e-07
-1.00002e-06
-4.86485e-05
5.11982e-05
6.27751e-07
6.53075e-07
6.24162e-07
6.53397e-07
-6.54196e-07
-6.21498e-07
-6.53898e-07
4.8633e-05
-5.11659e-05
-9.62461e-07
9.63719e-07
-9.61986e-07
5.11679e-05
4.86486e-05
-5.11936e-05
9.91143e-07
-1.00022e-06
9.94327e-07
-1.00495e-06
-4.8647e-05
5.11972e-05
6.27237e-07
6.5318e-07
6.23241e-07
6.53462e-07
-6.53973e-07
-6.21737e-07
-6.53952e-07
4.86333e-05
-5.11658e-05
-9.62086e-07
9.63873e-07
-9.61379e-07
5.1168e-05
4.86499e-05
-5.11944e-05
9.96639e-07
-1.00636e-06
9.97074e-07
-9.94579e-07
-4.86513e-05
5.12022e-05
6.26398e-07
6.53231e-07
6.23859e-07
6.52612e-07
-6.5509e-07
-6.20341e-07
-6.57787e-07
4.86337e-05
-5.11663e-05
-9.612e-07
9.63948e-07
-9.58948e-07
5.11673e-05
4.86521e-05
-5.11973e-05
9.97236e-07
-9.85244e-07
1.00053e-06
-9.98822e-07
-4.86341e-05
5.11898e-05
6.28075e-07
6.52444e-07
6.30604e-07
6.53605e-07
-6.57876e-07
-6.24878e-07
-6.53009e-07
4.86327e-05
-5.11655e-05
-9.59059e-07
9.65092e-07
-9.5992e-07
5.11678e-05
4.86499e-05
-5.11953e-05
1.00254e-06
-9.99025e-07
9.94217e-07
-9.97736e-07
-4.86526e-05
5.12011e-05
6.33263e-07
6.53587e-07
6.25197e-07
6.53171e-07
-6.52859e-07
-6.20837e-07
-6.5332e-07
4.8633e-05
-5.11656e-05
-9.60894e-07
9.64273e-07
-9.60711e-07
5.11676e-05
4.8653e-05
-5.11946e-05
9.94627e-07
-1.00006e-06
9.95791e-07
-1.00149e-06
-4.86424e-05
5.11962e-05
6.27697e-07
6.5291e-07
6.24352e-07
6.53603e-07
-6.53105e-07
-6.2049e-07
-6.53701e-07
4.86328e-05
-5.1165e-05
-9.61403e-07
9.64345e-07
-9.61699e-07
5.11678e-05
4.86541e-05
-5.11941e-05
9.9598e-07
-1.00239e-06
9.96712e-07
-1.00254e-06
-4.86465e-05
5.11954e-05
6.28164e-07
6.53605e-07
6.24042e-07
6.53654e-07
-6.53884e-07
-6.1995e-07
-6.54086e-07
4.86334e-05
-5.11649e-05
-9.624e-07
9.64084e-07
-9.61785e-07
5.11674e-05
4.86546e-05
-5.11943e-05
9.97144e-07
-1.00309e-06
9.97111e-07
-1.00279e-06
-4.8647e-05
5.11955e-05
6.27737e-07
6.53507e-07
6.23528e-07
6.53655e-07
-6.53924e-07
-6.19324e-07
-6.53608e-07
4.86333e-05
-5.11649e-05
-9.62459e-07
9.64044e-07
-9.62076e-07
5.11668e-05
4.86542e-05
-5.11947e-05
9.97334e-07
-1.00315e-06
9.97579e-07
-1.00285e-06
-4.86469e-05
5.11953e-05
6.27029e-07
6.53398e-07
6.23044e-07
6.53097e-07
-6.53422e-07
-6.18928e-07
-6.52825e-07
4.86333e-05
-5.11654e-05
-9.62545e-07
9.63784e-07
-9.61904e-07
5.11668e-05
4.86538e-05
-5.11955e-05
9.97778e-07
-1.00334e-06
9.9718e-07
-1.00294e-06
-4.86471e-05
5.11958e-05
6.26682e-07
6.52811e-07
6.22104e-07
6.5248e-07
-6.5257e-07
-6.18125e-07
-6.52122e-07
4.86328e-05
-5.11659e-05
-9.62455e-07
9.63453e-07
-9.61814e-07
5.11668e-05
4.86529e-05
-5.11962e-05
9.97373e-07
-1.00373e-06
9.96779e-07
-1.00284e-06
-4.86467e-05
5.11961e-05
6.25579e-07
6.52195e-07
6.21233e-07
6.51996e-07
-6.51973e-07
-6.17619e-07
-6.51657e-07
4.86323e-05
-5.1166e-05
-9.62338e-07
9.63306e-07
-9.61768e-07
5.11668e-05
4.86523e-05
-5.11958e-05
9.96893e-07
-1.00377e-06
9.97055e-07
-1.00247e-06
-4.86464e-05
5.11961e-05
6.24951e-07
6.51898e-07
6.21671e-07
6.52369e-07
-6.51525e-07
-6.17952e-07
-6.51802e-07
4.86322e-05
-5.11656e-05
-9.62256e-07
9.6378e-07
-9.6199e-07
5.11666e-05
4.86529e-05
-5.11952e-05
9.97565e-07
-1.00434e-06
9.97791e-07
-1.00235e-06
-4.86468e-05
5.11954e-05
6.2557e-07
6.52398e-07
6.22004e-07
6.52773e-07
-6.51921e-07
-6.18494e-07
-6.5197e-07
4.86328e-05
-5.11652e-05
-9.62648e-07
9.64081e-07
-9.62089e-07
5.11663e-05
4.86534e-05
-5.11947e-05
9.98397e-07
-1.00548e-06
9.99112e-07
-1.00098e-06
-4.86478e-05
5.11953e-05
6.25807e-07
6.5266e-07
6.22406e-07
6.53368e-07
-6.51894e-07
-6.18518e-07
-6.52571e-07
4.86331e-05
-5.11649e-05
-9.626e-07
9.64515e-07
-9.62488e-07
5.11658e-05
4.86538e-05
-5.11947e-05
9.99585e-07
-1.00743e-06
9.99291e-07
-1.00295e-06
-4.86483e-05
5.11957e-05
6.26312e-07
6.53493e-07
6.22307e-07
6.53213e-07
-6.52658e-07
-6.19062e-07
-6.52865e-07
4.86335e-05
-5.11651e-05
-9.63099e-07
9.64172e-07
-9.62602e-07
5.11656e-05
4.86537e-05
-5.11952e-05
9.9943e-07
-1.00535e-06
9.98759e-07
-1.00516e-06
-4.86483e-05
5.11965e-05
6.25917e-07
6.53067e-07
6.22098e-07
6.53367e-07
-6.52856e-07
-6.18845e-07
-6.52513e-07
4.8633e-05
-5.11648e-05
-9.63124e-07
9.64531e-07
-9.62307e-07
5.11659e-05
4.86533e-05
-5.11954e-05
9.98958e-07
-1.00543e-06
9.99057e-07
-1.00526e-06
-4.86468e-05
5.11976e-05
6.25742e-07
6.53204e-07
6.21782e-07
6.52838e-07
-6.52285e-07
-6.18215e-07
-6.52189e-07
4.86335e-05
-5.11653e-05
-9.62542e-07
9.6421e-07
-9.62173e-07
5.11662e-05
4.86531e-05
-5.11961e-05
9.99334e-07
-1.00559e-06
9.98032e-07
-1.00521e-06
-4.86458e-05
5.11981e-05
6.25518e-07
6.52741e-07
6.21043e-07
6.52171e-07
-6.52238e-07
-6.17471e-07
-6.51625e-07
4.86328e-05
-5.1166e-05
-9.62612e-07
9.63496e-07
-9.61583e-07
5.11667e-05
4.86524e-05
-5.11959e-05
9.9831e-07
-1.00542e-06
9.98559e-07
-1.00553e-06
-4.86452e-05
5.1198e-05
6.24573e-07
6.51911e-07
6.21089e-07
6.52182e-07
-6.51632e-07
-6.17389e-07
-6.51426e-07
4.86322e-05
-5.11658e-05
-9.62015e-07
9.6389e-07
-9.61779e-07
5.11667e-05
4.86528e-05
-5.11957e-05
9.9915e-07
-1.00576e-06
9.98512e-07
-1.00548e-06
-4.86454e-05
5.11981e-05
6.25054e-07
6.52319e-07
6.21205e-07
6.52139e-07
-6.51426e-07
-6.1746e-07
-6.51414e-07
4.86326e-05
-5.11658e-05
-9.62213e-07
9.63827e-07
-9.61888e-07
5.11666e-05
4.86528e-05
-5.11951e-05
9.98882e-07
-1.00566e-06
9.98748e-07
-1.00597e-06
-4.86453e-05
5.1198e-05
6.24863e-07
6.52136e-07
6.2197e-07
6.52839e-07
-6.5155e-07
-6.17661e-07
-6.5193e-07
4.86325e-05
-5.11651e-05
-9.62413e-07
9.64566e-07
-9.62492e-07
5.1166e-05
4.86535e-05
-5.11951e-05
9.99434e-07
-1.00592e-06
9.98477e-07
-1.00701e-06
-4.86453e-05
5.11968e-05
6.2563e-07
6.52877e-07
6.22144e-07
6.53041e-07
-6.5215e-07
-6.1874e-07
-6.52573e-07
4.86334e-05
-5.1165e-05
-9.62937e-07
9.64665e-07
-9.63012e-07
5.11654e-05
4.8653e-05
-5.11955e-05
9.9922e-07
-1.00651e-06
9.97172e-07
-1.00725e-06
-4.86464e-05
5.11991e-05
6.25578e-07
6.53119e-07
6.23776e-07
6.53768e-07
-6.52659e-07
-6.18007e-07
-6.54991e-07
4.86333e-05
-5.11659e-05
-9.63091e-07
9.63923e-07
-9.62026e-07
5.1168e-05
4.8651e-05
-5.11889e-05
9.97533e-07
-1.00498e-06
9.97237e-07
-1.00503e-06
-4.86439e-05
5.11983e-05
6.28403e-07
6.54055e-07
6.2927e-07
6.54633e-07
-6.56808e-07
-6.15978e-07
-6.57845e-07
4.86325e-05
-5.11665e-05
-9.60455e-07
9.63347e-07
-9.58453e-07
5.11686e-05
4.86576e-05
-5.11996e-05
1.00239e-06
-1.00547e-06
9.92879e-07
-1.00905e-06
-4.86477e-05
5.11935e-05
6.33305e-07
6.54405e-07
6.21381e-07
6.52788e-07
-6.55016e-07
-6.1852e-07
-6.52463e-07
4.86321e-05
-5.11673e-05
-9.60312e-07
9.63699e-07
-9.61906e-07
5.11664e-05
4.86452e-05
-5.11961e-05
9.93925e-07
-1.01122e-06
9.95787e-07
-1.00154e-06
-4.86527e-05
5.11979e-05
6.23537e-07
6.52609e-07
6.21799e-07
6.52989e-07
-6.5286e-07
-6.18342e-07
-6.52597e-07
4.86314e-05
-5.1167e-05
-9.62359e-07
9.63874e-07
-9.62173e-07
5.11663e-05
4.86481e-05
-5.11953e-05
9.96157e-07
-1.00196e-06
9.96892e-07
-1.0009e-06
-4.86455e-05
5.11995e-05
6.25108e-07
6.52984e-07
6.22278e-07
6.52674e-07
-6.52344e-07
-6.18172e-07
-6.51169e-07
4.86317e-05
-5.11673e-05
-9.62458e-07
9.63895e-07
-9.61527e-07
5.11671e-05
4.8649e-05
-5.11952e-05
9.96568e-07
-1.00105e-06
9.96602e-07
-1.00118e-06
-4.86444e-05
5.11988e-05
6.25686e-07
6.52667e-07
6.22617e-07
6.52798e-07
-6.51103e-07
-6.19493e-07
-6.51598e-07
4.86311e-05
-5.11675e-05
-9.61733e-07
9.63781e-07
-9.61983e-07
5.11666e-05
4.8649e-05
-5.11948e-05
9.96392e-07
-1.00157e-06
9.96526e-07
-1.00114e-06
-4.86453e-05
5.1199e-05
6.26127e-07
6.53099e-07
6.22946e-07
6.53377e-07
-6.52073e-07
-6.19972e-07
-6.51943e-07
4.86312e-05
-5.11668e-05
-9.62473e-07
9.64276e-07
-9.62363e-07
5.11661e-05
4.86495e-05
-5.11937e-05
9.96522e-07
-1.00133e-06
9.97337e-07
-1.00091e-06
-4.86449e-05
5.11991e-05
6.26492e-07
6.53458e-07
6.23958e-07
6.54079e-07
-6.5204e-07
-6.20384e-07
-6.52318e-07
4.86317e-05
-5.11664e-05
-9.62551e-07
9.64612e-07
-9.62441e-07
5.11659e-05
4.86505e-05
-5.11934e-05
9.97319e-07
-1.00131e-06
9.97348e-07
-1.00094e-06
-4.86449e-05
5.11989e-05
6.27564e-07
6.54347e-07
6.24088e-07
6.54305e-07
-6.52568e-07
-6.20824e-07
-6.52432e-07
4.86323e-05
-5.11662e-05
-9.62907e-07
9.64654e-07
-9.62874e-07
5.11656e-05
4.86505e-05
-5.1194e-05
9.96997e-07
-1.00111e-06
9.96456e-07
-1.00045e-06
-4.86449e-05
5.11996e-05
6.273e-07
6.54113e-07
6.23527e-07
6.53834e-07
-6.5243e-07
-6.20252e-07
-6.52302e-07
4.86322e-05
-5.11665e-05
-9.63255e-07
9.64451e-07
-9.63175e-07
5.11655e-05
4.86498e-05
-5.11937e-05
9.96056e-07
-1.00092e-06
9.95737e-07
-1.0008e-06
-4.86441e-05
5.1199e-05
6.27002e-07
6.53812e-07
6.23884e-07
6.53503e-07
-6.52433e-07
-6.20715e-07
-6.52079e-07
4.86319e-05
-5.11668e-05
-9.63617e-07
9.64251e-07
-9.63185e-07
5.11655e-05
4.86502e-05
-5.11938e-05
9.95492e-07
-1.00101e-06
9.95297e-07
-9.99746e-07
-4.86447e-05
5.12006e-05
6.27249e-07
6.53361e-07
6.23654e-07
6.53205e-07
-6.51835e-07
-6.19136e-07
-6.51024e-07
4.86315e-05
-5.1167e-05
-9.63325e-07
9.64129e-07
-9.62443e-07
5.11663e-05
4.865e-05
-5.1194e-05
9.94994e-07
-1.00015e-06
9.94994e-07
-1.00052e-06
-4.86432e-05
5.11994e-05
6.26991e-07
6.53226e-07
6.23547e-07
6.53341e-07
-6.5102e-07
-6.20151e-07
-6.51353e-07
4.86314e-05
-5.11666e-05
-9.62749e-07
9.64423e-07
-9.62651e-07
5.1166e-05
4.86498e-05
-5.11938e-05
9.94802e-07
-1.00083e-06
9.95117e-07
-1.00003e-06
-4.86445e-05
5.12002e-05
6.26874e-07
6.53302e-07
6.23506e-07
6.53235e-07
-6.51424e-07
-6.1974e-07
-6.51185e-07
4.86317e-05
-5.11666e-05
-9.63092e-07
9.64428e-07
-9.62809e-07
5.1166e-05
4.865e-05
-5.11918e-05
9.95199e-07
-1.00032e-06
9.96808e-07
-9.99401e-07
-4.86436e-05
5.11992e-05
6.27071e-07
6.53252e-07
6.24992e-07
6.54004e-07
-6.51258e-07
-6.20227e-07
-6.51436e-07
4.86316e-05
-5.11658e-05
-9.6317e-07
9.65009e-07
-9.63103e-07
5.11653e-05
4.86516e-05
-5.11903e-05
9.97344e-07
-9.98847e-07
9.99008e-07
-9.90811e-07
-4.86433e-05
5.12023e-05
6.28897e-07
6.54229e-07
6.26142e-07
6.54647e-07
-6.5169e-07
-6.19845e-07
-6.51493e-07
4.86322e-05
-5.11652e-05
-9.63308e-07
9.65643e-07
-9.63229e-07
5.11652e-05
4.86527e-05
-5.11921e-05
9.98795e-07
-9.9098e-07
9.96928e-07
-1.00058e-06
-4.86404e-05
5.11999e-05
6.29466e-07
6.54429e-07
6.2531e-07
6.5411e-07
-6.51621e-07
-6.21437e-07
-6.52091e-07
4.86326e-05
-5.11657e-05
-9.6324e-07
9.65232e-07
-9.63068e-07
5.11649e-05
4.86516e-05
-5.11936e-05
9.96268e-07
-1.00015e-06
9.95951e-07
-1.0007e-06
-4.86441e-05
5.11981e-05
6.28379e-07
6.5376e-07
6.2377e-07
6.52436e-07
-6.54161e-07
-6.2327e-07
-6.58578e-07
4.86323e-05
-5.11671e-05
-9.62989e-07
9.64803e-07
-9.62069e-07
5.11621e-05
4.86501e-05
-5.11945e-05
9.95678e-07
-1.00078e-06
9.95649e-07
-9.99428e-07
-4.86455e-05
5.1199e-05
6.26733e-07
6.51755e-07
6.22696e-07
6.51238e-07
-6.60206e-07
-6.22351e-07
-6.5737e-07
4.8631e-05
-5.11681e-05
-9.6175e-07
9.65273e-07
-9.61157e-07
5.11627e-05
4.86493e-05
-5.11947e-05
9.95505e-07
-9.99624e-07
9.9556e-07
-9.99404e-07
-4.86445e-05
5.1199e-05
6.25996e-07
6.51014e-07
6.22316e-07
6.50869e-07
-6.58601e-07
-6.22513e-07
-6.57146e-07
4.86302e-05
-5.11683e-05
-9.61063e-07
9.65232e-07
-9.61116e-07
5.1163e-05
4.86491e-05
-5.11949e-05
9.95357e-07
-9.9969e-07
9.95383e-07
-9.98898e-07
-4.86447e-05
5.11997e-05
6.256e-07
6.50636e-07
6.22118e-07
6.50585e-07
-6.58621e-07
-6.21772e-07
-6.56965e-07
4.863e-05
-5.11683e-05
-9.6123e-07
9.6522e-07
-9.6134e-07
5.11631e-05
4.8649e-05
-5.11945e-05
9.95244e-07
-9.99311e-07
9.95685e-07
-9.99629e-07
-4.86439e-05
5.11986e-05
6.2547e-07
6.50491e-07
6.22495e-07
6.51144e-07
-6.58378e-07
-6.22696e-07
-6.57389e-07
4.863e-05
-5.11678e-05
-9.61419e-07
9.65714e-07
-9.61756e-07
5.11629e-05
4.86495e-05
-5.1194e-05
9.95598e-07
-1.00013e-06
9.96005e-07
-9.99807e-07
-4.86452e-05
5.11985e-05
6.25966e-07
6.51182e-07
6.23189e-07
6.51686e-07
-6.58938e-07
-6.2274e-07
-6.57598e-07
4.86305e-05
-5.11676e-05
-9.61857e-07
9.65897e-07
-9.62006e-07
5.11628e-05
4.86499e-05
-5.11939e-05
9.95831e-07
-1.00013e-06
9.96079e-07
-1.00047e-06
-4.8645e-05
5.11978e-05
6.26372e-07
6.51562e-07
6.23445e-07
6.51927e-07
-6.59092e-07
-6.23528e-07
-6.58271e-07
4.86307e-05
-5.11674e-05
-9.62081e-07
9.66037e-07
-9.6253e-07
5.11623e-05
4.865e-05
-5.11937e-05
9.9595e-07
-1.00106e-06
9.96095e-07
-1.00071e-06
-4.86459e-05
5.11978e-05
6.2662e-07
6.51988e-07
6.23844e-07
6.52603e-07
-6.5986e-07
-6.23639e-07
-6.58452e-07
4.8631e-05
-5.11666e-05
-9.62675e-07
9.66606e-07
-9.6264e-07
5.11623e-05
4.86501e-05
-5.11936e-05
9.9588e-07
-1.00092e-06
9.96201e-07
-9.99981e-07
-4.86457e-05
5.11987e-05
6.2644e-07
6.52416e-07
6.239e-07
6.51981e-07
-6.59787e-07
-6.22748e-07
-6.57635e-07
4.86317e-05
-5.11672e-05
-9.62673e-07
9.66032e-07
-9.62522e-07
5.11629e-05
4.86502e-05
-5.1194e-05
9.96057e-07
-1.00029e-06
9.96015e-07
-9.99996e-07
-4.86448e-05
5.11986e-05
6.25873e-07
6.51722e-07
6.23815e-07
6.51702e-07
-6.58957e-07
-6.22573e-07
-6.57562e-07
4.86309e-05
-5.11675e-05
-9.62658e-07
9.6589e-07
-9.63079e-07
5.11627e-05
4.86496e-05
-5.11951e-05
9.95584e-07
-1.00025e-06
9.95106e-07
-9.99556e-07
-4.86448e-05
5.11991e-05
6.25591e-07
6.51313e-07
6.22596e-07
6.50676e-07
-6.58868e-07
-6.21857e-07
-6.56601e-07
4.86307e-05
-5.1168e-05
-9.6305e-07
9.65354e-07
-9.62704e-07
5.11634e-05
4.86485e-05
-5.11947e-05
9.94845e-07
-9.99852e-07
9.95376e-07
-9.9975e-07
-4.86442e-05
5.11988e-05
6.2454e-07
6.50502e-07
6.23094e-07
6.51264e-07
-6.5793e-07
-6.22208e-07
-6.57105e-07
4.86303e-05
-5.11675e-05
-9.62638e-07
9.6578e-07
-9.63077e-07
5.11629e-05
4.86489e-05
-5.11944e-05
9.95312e-07
-1.00017e-06
9.95496e-07
-9.99768e-07
-4.86445e-05
5.11986e-05
6.25295e-07
6.51335e-07
6.23126e-07
6.51998e-07
-6.58845e-07
-6.22161e-07
-6.57797e-07
4.8631e-05
-5.11656e-05
-9.63404e-07
9.66496e-07
-9.64387e-07
5.11609e-05
4.86486e-05
-5.11939e-05
9.95282e-07
-1.00011e-06
9.95825e-07
-1.00012e-06
-4.86442e-05
5.11982e-05
6.25148e-07
6.52401e-07
6.23566e-07
6.55162e-07
-6.59787e-07
-6.22592e-07
-6.60518e-07
4.86319e-05
-5.116e-05
-9.65172e-07
9.71422e-07
-9.68561e-07
5.11562e-05
4.86492e-05
-5.11937e-05
9.95758e-07
-1.00056e-06
9.96065e-07
-1.00068e-06
-4.86446e-05
5.11977e-05
6.25752e-07
6.55484e-07
6.23852e-07
6.54302e-07
-6.62652e-07
-6.23447e-07
-6.60391e-07
4.86363e-05
-5.11632e-05
-9.69538e-07
9.71833e-07
-9.68692e-07
5.1158e-05
4.86496e-05
-5.1194e-05
9.95875e-07
-1.001e-06
9.95937e-07
-1.00014e-06
-4.86454e-05
5.11985e-05
6.25909e-07
6.5342e-07
6.23865e-07
6.52024e-07
-6.61003e-07
-6.22853e-07
-6.57723e-07
4.86345e-05
-5.11669e-05
-9.67523e-07
9.66508e-07
-9.64281e-07
5.11623e-05
4.86497e-05
-5.11939e-05
9.95747e-07
-1.00046e-06
9.96141e-07
-1.00039e-06
-4.86449e-05
5.1198e-05
6.25986e-07
6.51785e-07
6.242e-07
6.51998e-07
-6.59082e-07
-6.23319e-07
-6.57801e-07
4.86313e-05
-5.11671e-05
-9.64231e-07
9.66219e-07
-9.64064e-07
5.11621e-05
4.86498e-05
-5.11949e-05
9.95866e-07
-1.00062e-06
9.95451e-07
-9.99632e-07
-4.86454e-05
5.11992e-05
6.26073e-07
6.51628e-07
6.23242e-07
6.5103e-07
-6.58997e-07
-6.21949e-07
-6.56695e-07
4.86311e-05
-5.11677e-05
-9.6397e-07
9.65658e-07
-9.63448e-07
5.11628e-05
4.86488e-05
-5.11951e-05
9.95145e-07
-1.00003e-06
9.95202e-07
-1.0003e-06
-4.86443e-05
5.11982e-05
6.25183e-07
6.50875e-07
6.23084e-07
6.50933e-07
-6.5814e-07
-6.22733e-07
-6.56696e-07
4.86305e-05
-5.11677e-05
-9.63422e-07
9.65668e-07
-9.63804e-07
5.11623e-05
4.86487e-05
-5.11951e-05
9.95005e-07
-1.00054e-06
9.95307e-07
-9.99147e-07
-4.86453e-05
5.11997e-05
6.25114e-07
6.50763e-07
6.22952e-07
6.50782e-07
-6.58081e-07
-6.21398e-07
-6.56132e-07
4.86305e-05
-5.11678e-05
-9.6392e-07
9.65604e-07
-9.63771e-07
5.11624e-05
4.86487e-05
-5.11946e-05
9.9515e-07
-9.99491e-07
9.95667e-07
-1.00008e-06
-4.86437e-05
5.11983e-05
6.24992e-07
6.50613e-07
6.2348e-07
6.51358e-07
-6.57505e-07
-6.22746e-07
-6.56904e-07
4.86304e-05
-5.11671e-05
-9.63848e-07
9.66185e-07
-9.64497e-07
5.11616e-05
4.86493e-05
-5.11944e-05
9.95604e-07
-1.00049e-06
9.95852e-07
-1e-06
-4.86453e-05
5.11987e-05
6.25704e-07
6.51442e-07
6.23834e-07
6.51612e-07
-6.58549e-07
-6.2289e-07
-6.57408e-07
4.86312e-05
-5.1167e-05
-9.64728e-07
9.66282e-07
-9.64977e-07
5.11612e-05
4.86494e-05
-5.1194e-05
9.95611e-07
-1.00034e-06
9.96105e-07
-1.00017e-06
-4.86448e-05
5.11984e-05
6.25895e-07
6.51492e-07
6.24252e-07
6.52253e-07
-6.58935e-07
-6.23037e-07
-6.57572e-07
4.86312e-05
-5.11662e-05
-9.65137e-07
9.66915e-07
-9.65022e-07
5.11611e-05
4.86498e-05
-5.11939e-05
9.95986e-07
-1.00061e-06
9.96211e-07
-1.00071e-06
-4.86451e-05
5.11978e-05
6.26392e-07
6.52314e-07
6.24408e-07
6.52585e-07
-6.58931e-07
-6.23519e-07
-6.57843e-07
4.86321e-05
-5.1166e-05
-9.65075e-07
9.67149e-07
-9.65326e-07
5.11609e-05
4.86498e-05
-5.11944e-05
9.95936e-07
-1.00112e-06
9.95756e-07
-1.00033e-06
-4.86457e-05
5.11981e-05
6.2636e-07
6.52314e-07
6.23802e-07
6.51787e-07
-6.59316e-07
-6.23076e-07
-6.57529e-07
4.8632e-05
-5.1167e-05
-9.65434e-07
9.66292e-07
-9.65212e-07
5.11611e-05
4.86492e-05
-5.11947e-05
9.95489e-07
-1.00045e-06
9.95665e-07
-9.99693e-07
-4.86451e-05
5.11989e-05
6.25677e-07
6.51449e-07
6.23407e-07
6.51345e-07
-6.58701e-07
-6.2242e-07
-6.57111e-07
4.8631e-05
-5.11673e-05
-9.65119e-07
9.6601e-07
-9.64754e-07
5.11615e-05
4.8649e-05
-5.11948e-05
9.95366e-07
-1.00002e-06
9.95521e-07
-9.99934e-07
-4.86444e-05
5.11987e-05
6.25376e-07
6.5121e-07
6.23299e-07
6.51361e-07
-6.58436e-07
-6.22163e-07
-6.56604e-07
4.86308e-05
-5.11672e-05
-9.64679e-07
9.66164e-07
-9.64479e-07
5.11619e-05
4.86488e-05
-5.1195e-05
9.94985e-07
-9.99929e-07
9.95974e-07
-1.00061e-06
-4.86446e-05
5.11986e-05
6.24963e-07
6.50787e-07
6.23772e-07
6.51783e-07
-6.57639e-07
-6.23285e-07
-6.57485e-07
4.86308e-05
-5.11674e-05
-9.64095e-07
9.66524e-07
-9.65098e-07
5.11617e-05
4.86486e-05
-5.11929e-05
9.93936e-07
-9.98914e-07
9.99543e-07
-1.00318e-06
-4.86446e-05
5.11978e-05
6.23819e-07
6.49607e-07
6.27955e-07
6.55718e-07
-6.56697e-07
-6.26364e-07
-6.6116e-07
4.86306e-05
-5.11656e-05
-9.63128e-07
9.69696e-07
-9.68142e-07
5.11601e-05
4.86478e-05
-5.11861e-05
9.90126e-07
-9.94269e-07
1.00744e-06
-1.01154e-06
-4.86425e-05
5.11905e-05
6.19482e-07
6.45027e-07
6.38076e-07
6.65778e-07
-6.52056e-07
-6.36834e-07
-6.71801e-07
4.86295e-05
-5.11588e-05
-9.58938e-07
9.77371e-07
-9.76178e-07
5.11533e-05
4.86383e-05
-5.1135e-05
9.79249e-07
-9.8393e-07
1.01071e-06
-1.01512e-06
-4.86338e-05
5.11391e-05
6.09556e-07
6.3499e-07
6.47077e-07
6.74761e-07
-6.42378e-07
-6.45689e-07
-6.82342e-07
4.86199e-05
-5.11081e-05
-9.48298e-07
9.8059e-07
-9.79473e-07
5.11027e-05
4.85507e-05
-5.10499e-05
9.69395e-07
-9.74187e-07
9.97128e-07
-1.00208e-06
-4.85463e-05
5.10535e-05
6.07775e-07
6.32544e-07
6.05709e-07
6.33778e-07
-6.41354e-07
-6.05587e-07
-6.40154e-07
4.85314e-05
-5.10233e-05
-9.38514e-07
9.67253e-07
-9.66352e-07
5.1017e-05
4.85603e-05
-5.08437e-05
1.02915e-06
-1.03407e-06
9.11611e-07
-9.16059e-07
-4.85564e-05
5.08489e-05
6.64486e-07
6.89443e-07
4.8898e-07
5.16671e-07
-6.98179e-07
-4.87035e-07
-5.21627e-07
4.85407e-05
-5.0818e-05
-9.98406e-07
8.81006e-07
-8.8063e-07
5.08121e-05
4.8185e-05
-5.05276e-05
1.06203e-06
-1.06711e-06
8.33883e-07
-8.39099e-07
-4.81795e-05
5.05318e-05
7.85389e-07
8.1006e-07
3.42686e-07
3.71272e-07
-8.17994e-07
-3.43081e-07
-3.76155e-07
4.81656e-05
-5.05007e-05
-1.03182e-06
8.04106e-07
-8.03125e-07
5.04944e-05
4.79563e-05
-4.98455e-05
1.19876e-06
-1.20447e-06
5.80243e-07
-5.87136e-07
-4.79515e-05
4.98488e-05
9.72275e-07
9.94357e-07
1.07092e-08
4.07587e-08
-1.00263e-06
-9.5869e-09
-4.20321e-08
4.79376e-05
-4.98197e-05
-1.16901e-06
5.50639e-07
-5.50729e-07
4.98129e-05
4.71347e-05
-4.87595e-05
1.49955e-06
-1.50544e-06
-1.8098e-08
9.57589e-09
-4.71313e-05
4.87627e-05
1.40774e-06
1.43431e-06
-6.95998e-07
-6.59534e-07
-1.43817e-06
6.97055e-07
6.66503e-07
4.71163e-05
-4.87367e-05
-1.47e-06
-4.41646e-08
4.4407e-08
4.87301e-05
4.57452e-05
-4.57419e-05
2.15272e-06
-2.15795e-06
-1.33545e-06
1.32249e-06
-4.57443e-05
4.57479e-05
2.29172e-06
2.31698e-06
-2.11546e-06
-2.07906e-06
-2.31202e-06
2.10682e-06
2.07831e-06
4.5732e-05
-4.57188e-05
-2.12482e-06
-1.35652e-06
1.35301e-06
4.57035e-05
4.18889e-05
-3.67891e-05
3.51452e-06
-3.5232e-06
-5.26587e-06
5.24114e-06
-4.18923e-05
3.67597e-05
3.94398e-06
3.97003e-06
-6.85909e-06
-6.83162e-06
-3.97518e-06
6.8368e-06
6.82204e-06
4.18874e-05
-3.67675e-05
-3.49087e-06