/*--------------------------------*- C++ -*----------------------------------*\
| =========                 |                                                 |
| \\      /  F ield         | OpenFOAM: The Open Source CFD Toolbox           |
|  \\    /   O peration     | Version:  2206                                  |
|   \\  /    A nd           | Website:  www.openfoam.com                      |
|    \\/     M anipulation  |                                                 |
\*---------------------------------------------------------------------------*/
FoamFile
{
    version     2.0;
    format      ascii;
    arch        "LSB;label=32;scalar=64";
    class       volScalarField;
    location    "20.5";
    object      nut;
}
// * * * * * * * * * * * * * * * * * * * * * * * * * * * * * * * * * * * * * //

dimensions      [0 2 -1 0 0 0 0];

internalField   nonuniform List<scalar> 
28897
(
0.000225957
0.000208118
0.00020811
0.000187316
0.000225957
0.000208117
0.000208108
0.000187314
0.000225956
0.000208115
0.000208107
0.000187313
0.000225955
0.000208112
0.000208105
0.000187309
0.000225928
0.000208077
0.000208064
0.000187247
0.000225936
0.000208062
0.000208057
0.00018724
0.000225937
0.000208064
0.000208058
0.000187235
0.000225938
0.000208064
0.000208059
0.000187237
0.000225938
0.000208064
0.000208059
0.000187235
0.000225938
0.000208064
0.000208059
0.000187235
0.000225938
0.000208064
0.000208059
0.000187236
0.000225938
0.000208065
0.000208059
0.000187236
0.000225938
0.000208065
0.000208059
0.000187236
0.000225938
0.000208065
0.000208059
0.000187236
0.000225938
0.000208065
0.000208059
0.000187236
0.000225938
0.000208065
0.000208059
0.000187236
0.000225938
0.000208065
0.000208059
0.000187236
0.000225938
0.000208065
0.000208059
0.000187236
0.000187466
0.000208103
0.000208101
0.000187472
0.000208114
0.000208094
0.000208118
0.000208103
0.000187459
0.00020811
0.000208112
0.000187464
0.00018732
0.000187463
0.000208104
0.000208102
0.000208103
0.000208102
0.000187324
0.000187467
0.000208115
0.000208095
0.000208114
0.000208094
0.000208104
0.000208118
0.000208103
0.000187313
0.000187456
0.000208113
0.000208109
0.000208112
0.000187462
0.000187318
0.000187461
0.000208101
0.000208101
0.0002081
0.000208101
0.000187321
0.000187466
0.000208112
0.000208094
0.000208111
0.000208092
0.000208103
0.000208115
0.000208103
0.000187311
0.000187454
0.000208112
0.000208107
0.000208111
0.00018746
0.000187316
0.00018746
0.000208098
0.000208102
0.0002081
0.000208099
0.00018732
0.000187466
0.000208109
0.000208091
0.000208111
0.000208091
0.000208104
0.000208113
0.000208102
0.000187309
0.000187453
0.000208109
0.000208106
0.000208109
0.000187459
0.000187314
0.000187416
0.000208099
0.000208097
0.000208072
0.000208076
0.000187319
0.000187434
0.000208109
0.000208089
0.000208082
0.000208062
0.0002081
0.000208097
0.000208074
0.000187306
0.000187409
0.000208108
0.000208081
0.000208081
0.000187415
0.000187252
0.000187388
0.000208056
0.00020806
0.000208047
0.000208045
0.000187272
0.00018739
0.000208067
0.000208046
0.000208058
0.000208038
0.000208058
0.000208059
0.000208047
0.000187246
0.000187381
0.000208065
0.000208055
0.000208057
0.000187386
0.000187244
0.000187387
0.00020805
0.000208048
0.00020805
0.000208048
0.000187245
0.000187392
0.000208061
0.000208041
0.000208062
0.000208041
0.00020805
0.000208064
0.00020805
0.000187238
0.00018738
0.00020806
0.000208058
0.00020806
0.000187384
0.00018724
0.000187386
0.00020805
0.000208048
0.000208051
0.000208049
0.000187245
0.000187388
0.000208061
0.000208041
0.000208062
0.000208042
0.00020805
0.000208064
0.000208051
0.000187233
0.000187379
0.00020806
0.000208059
0.000208061
0.000187384
0.000187241
0.000187385
0.000208052
0.000208049
0.000208051
0.000208049
0.000187242
0.00018739
0.000208063
0.000208043
0.000208062
0.000208042
0.000208051
0.000208065
0.000208051
0.000187235
0.000187379
0.000208061
0.000208059
0.000208061
0.000187383
0.000187239
0.000187387
0.000208052
0.00020805
0.000208051
0.000208049
0.000187243
0.000187391
0.000208063
0.000208043
0.000208062
0.000208042
0.000208051
0.000208065
0.000208051
0.000187233
0.00018738
0.000208061
0.000208059
0.000208061
0.000187384
0.000187241
0.000187386
0.000208052
0.00020805
0.000208052
0.000208049
0.000187245
0.00018739
0.000208063
0.000208043
0.000208062
0.000208042
0.000208051
0.000208065
0.000208051
0.000187235
0.00018738
0.000208061
0.000208059
0.000208061
0.000187384
0.000187241
0.000187386
0.000208052
0.00020805
0.000208051
0.000208049
0.000187244
0.000187389
0.000208063
0.000208043
0.000208062
0.000208042
0.000208051
0.000208065
0.000208051
0.000187235
0.000187379
0.000208061
0.000208059
0.000208061
0.000187384
0.000187241
0.000187386
0.000208052
0.00020805
0.000208051
0.00020805
0.000187244
0.000187389
0.000208062
0.000208043
0.000208062
0.000208042
0.000208051
0.000208065
0.000208051
0.000187234
0.000187379
0.000208061
0.000208059
0.000208061
0.000187384
0.000187241
0.000187386
0.000208052
0.00020805
0.000208052
0.000208049
0.000187243
0.000187389
0.000208062
0.000208043
0.000208062
0.000208042
0.000208051
0.000208065
0.000208051
0.000187234
0.000187379
0.000208061
0.000208059
0.000208061
0.000187384
0.000187241
0.000187386
0.000208052
0.00020805
0.000208052
0.000208049
0.000187243
0.000187389
0.000208062
0.000208043
0.000208061
0.000208042
0.000208051
0.000208065
0.000208051
0.000187234
0.000187379
0.000208061
0.000208059
0.000208061
0.000187384
0.000187241
0.000187386
0.000208052
0.00020805
0.000208052
0.000208049
0.000187244
0.000187389
0.000208062
0.000208043
0.000208062
0.000208042
0.000208051
0.000208065
0.000208051
0.000187234
0.000187379
0.000208061
0.000208059
0.000208061
0.000187384
0.000187241
0.000187386
0.000208053
0.00020805
0.000208052
0.00020805
0.000187244
0.000187389
0.000208062
0.000208043
0.000208062
0.000208042
0.000208051
0.000208065
0.000208051
0.000187234
0.000187379
0.000208061
0.000208059
0.000208061
0.000187384
0.000187241
0.000187386
0.000208053
0.00020805
0.000208052
0.00020805
0.000187244
0.000187389
0.000208062
0.000208043
0.000208062
0.000208042
0.000208051
0.000208065
0.000208051
0.000187234
0.000187379
0.000208061
0.000208059
0.000208061
0.000187384
0.000187241
0.000208053
0.00020805
0.000187244
0.000208062
0.000208043
0.000208052
0.000187234
0.000208062
0.000225957
0.000225957
0.000225955
0.000225956
4.84408e-05
4.89714e-05
4.84318e-05
4.89703e-05
2.58281e-05
2.58272e-05
4.84455e-05
4.89699e-05
4.84388e-05
4.89688e-05
0.000225958
0.000225956
0.000225957
0.000225957
0.000225958
0.000225955
0.000225956
0.000115662
5.90319e-05
0.000219889
0.000208119
0.000115633
5.90501e-05
0.00021989
2.58247e-05
2.58239e-05
0.000115659
0.000219886
5.9033e-05
0.000208109
0.000115633
0.000219887
5.90504e-05
3.57701e-05
3.57587e-05
0.000187463
3.5775e-05
3.57654e-05
4.84446e-05
4.89707e-05
4.84336e-05
4.89697e-05
2.58267e-05
2.58263e-05
4.84511e-05
4.89691e-05
4.844e-05
4.89682e-05
0.000225958
0.000225955
0.000225958
0.000225956
0.000225957
0.000225954
0.000225957
0.000115664
5.9035e-05
0.000219889
0.000208115
0.000115636
5.90527e-05
0.000219889
2.58236e-05
2.58232e-05
0.000115659
0.000219886
5.90353e-05
0.000208107
0.00011563
0.000219884
5.9052e-05
3.5777e-05
3.57695e-05
0.000187461
3.57829e-05
3.57755e-05
4.84501e-05
4.89703e-05
4.84402e-05
4.89695e-05
2.58263e-05
2.58262e-05
4.84572e-05
4.89688e-05
4.8448e-05
4.8968e-05
0.000225957
0.000225954
0.000225957
0.000225956
0.000225956
0.000225953
0.000225956
0.000115665
5.90365e-05
0.000219887
0.000208114
0.000115639
5.90548e-05
0.000219886
2.58233e-05
2.58232e-05
0.000115663
0.000219883
5.90377e-05
0.000208107
0.000115634
0.000219883
5.90559e-05
3.57841e-05
3.57768e-05
0.00018746
3.57885e-05
3.57813e-05
4.84431e-05
4.89707e-05
4.84412e-05
4.89709e-05
2.58266e-05
2.58268e-05
4.84501e-05
4.8969e-05
4.84491e-05
4.89693e-05
0.000225956
0.000225953
0.000225955
0.000225936
0.00022594
0.000225934
0.000225936
0.000115653
5.90391e-05
0.000219885
0.000208111
0.000115636
5.90531e-05
0.000219883
2.58238e-05
2.5824e-05
0.000115654
0.000219883
5.90398e-05
0.000208102
0.000115637
0.000219881
5.90499e-05
3.57867e-05
3.57786e-05
0.000187451
3.57863e-05
3.57779e-05
4.84137e-05
4.89748e-05
4.84146e-05
4.89746e-05
2.58273e-05
2.58271e-05
4.84204e-05
4.89732e-05
4.84217e-05
4.8973e-05
0.000225931
0.000225927
0.000225928
0.000225933
0.000225933
0.000225931
0.000225932
0.00011558
5.90181e-05
0.000219855
0.000208066
0.000115593
5.90226e-05
0.000219849
2.58243e-05
2.5824e-05
0.000115576
0.000219849
5.90132e-05
0.000208056
0.00011558
0.000219845
5.90189e-05
3.57751e-05
3.57669e-05
0.000187385
3.57712e-05
3.57625e-05
4.84068e-05
4.89753e-05
4.8399e-05
4.89745e-05
2.58271e-05
2.5827e-05
4.84141e-05
4.89737e-05
4.8407e-05
4.89729e-05
0.000225936
0.000225935
0.000225936
0.000225937
0.000225938
0.000225936
0.000225937
0.000115576
5.89937e-05
0.000219853
0.000208064
0.000115546
5.90087e-05
0.000219854
2.58241e-05
2.58239e-05
0.000115579
0.000219851
5.89954e-05
0.000208058
0.000115549
0.000219852
5.90108e-05
3.57615e-05
3.57549e-05
0.00018739
3.57637e-05
3.57573e-05
4.84065e-05
4.89752e-05
4.8398e-05
4.89744e-05
2.58271e-05
2.5827e-05
4.84139e-05
4.89736e-05
4.84061e-05
4.89729e-05
0.000225938
0.000225935
0.000225937
0.000225938
0.000225938
0.000225936
0.000225937
0.000115575
5.89906e-05
0.000219853
0.000208064
0.000115548
5.90077e-05
0.000219854
2.58241e-05
2.58239e-05
0.000115579
0.000219852
5.8994e-05
0.000208059
0.000115551
0.000219852
5.90104e-05
3.57606e-05
3.57543e-05
0.000187382
3.57636e-05
3.57572e-05
4.84065e-05
4.89752e-05
4.83979e-05
4.89744e-05
2.58271e-05
2.58269e-05
4.84139e-05
4.89736e-05
4.84061e-05
4.89729e-05
0.000225938
0.000225936
0.000225937
0.000225938
0.000225938
0.000225936
0.000225937
0.000115576
5.89905e-05
0.000219854
0.000208065
0.000115547
5.90077e-05
0.000219854
2.58241e-05
2.58239e-05
0.000115579
0.000219853
5.8994e-05
0.000208059
0.000115551
0.000219853
5.90104e-05
3.57606e-05
3.57543e-05
0.000187386
3.57636e-05
3.57572e-05
4.84065e-05
4.89752e-05
4.83979e-05
4.89744e-05
2.58271e-05
2.58269e-05
4.84139e-05
4.89736e-05
4.84061e-05
4.89729e-05
0.000225938
0.000225936
0.000225937
0.000225938
0.000225938
0.000225936
0.000225937
0.000115576
5.89905e-05
0.000219854
0.000208065
0.000115547
5.90077e-05
0.000219854
2.58241e-05
2.58239e-05
0.000115579
0.000219853
5.89939e-05
0.000208059
0.00011555
0.000219853
5.90104e-05
3.57606e-05
3.57543e-05
0.000187385
3.57636e-05
3.57572e-05
4.84065e-05
4.89752e-05
4.8398e-05
4.89744e-05
2.58271e-05
2.5827e-05
4.84139e-05
4.89736e-05
4.84061e-05
4.89729e-05
0.000225938
0.000225936
0.000225937
0.000225938
0.000225938
0.000225936
0.000225937
0.000115576
5.89906e-05
0.000219854
0.000208065
0.000115548
5.90077e-05
0.000219855
2.58241e-05
2.58239e-05
0.000115579
0.000219853
5.89939e-05
0.000208059
0.00011555
0.000219853
5.90105e-05
3.57606e-05
3.57543e-05
0.000187384
3.57636e-05
3.57572e-05
4.84066e-05
4.89757e-05
4.8398e-05
4.89752e-05
2.58267e-05
2.58266e-05
4.84139e-05
4.89733e-05
4.84061e-05
4.89723e-05
0.000225938
0.000225936
0.000225937
0.000225938
0.000225938
0.000225936
0.000225937
0.000115575
5.89906e-05
0.000219854
0.000208065
0.000115548
5.90077e-05
0.000219854
2.58241e-05
2.58239e-05
0.000115579
0.000219853
5.8994e-05
0.000208059
0.00011555
0.000219853
5.90106e-05
3.57607e-05
3.57543e-05
0.000187384
3.57636e-05
3.57572e-05
4.84066e-05
4.89763e-05
4.8398e-05
4.89757e-05
2.58266e-05
2.58264e-05
4.84139e-05
4.89727e-05
4.84061e-05
4.89719e-05
0.000225938
0.000225936
0.000225937
0.000225938
0.000225938
0.000225936
0.000225937
0.000115575
5.89906e-05
0.000219854
0.000208065
0.000115547
5.90077e-05
0.000219855
2.58241e-05
2.58239e-05
0.000115577
0.000219853
5.89941e-05
0.000208059
0.00011555
0.000219853
5.90107e-05
3.57606e-05
3.57543e-05
0.000187384
3.57636e-05
3.57572e-05
4.84066e-05
4.89765e-05
4.8398e-05
4.89758e-05
2.58266e-05
2.58264e-05
4.84139e-05
4.89726e-05
4.84061e-05
4.89719e-05
0.000225938
0.000225936
0.000225937
0.000225938
0.000225938
0.000225936
0.000225937
0.000115575
5.89906e-05
0.000219854
0.000208065
0.000115549
5.90077e-05
0.000219854
2.58241e-05
2.58239e-05
0.000115576
0.000219853
5.89941e-05
0.000208059
0.000115548
0.000219853
5.90106e-05
3.57606e-05
3.57543e-05
0.000187384
3.57636e-05
3.57572e-05
4.84065e-05
4.89766e-05
4.8398e-05
4.89759e-05
2.58266e-05
2.58264e-05
4.84139e-05
4.89726e-05
4.84061e-05
4.89718e-05
0.000225938
0.000225936
0.000225937
0.000225938
0.000225938
0.000225936
0.000225937
0.000115576
5.89906e-05
0.000219854
0.000208065
0.000115547
5.90077e-05
0.000219854
2.58241e-05
2.58239e-05
0.000115576
0.000219852
5.89941e-05
0.000208059
0.000115548
0.000219853
5.90107e-05
3.57606e-05
3.57543e-05
0.000187384
3.57636e-05
3.57572e-05
4.84065e-05
4.89766e-05
4.8398e-05
4.89759e-05
2.58265e-05
2.58264e-05
4.84139e-05
4.89726e-05
4.84061e-05
4.89718e-05
0.000225938
0.000225936
0.000225937
0.000225938
0.000225938
0.000225936
0.000225937
0.000115575
5.89906e-05
0.000219854
0.000208065
0.000115548
5.90077e-05
0.000219855
2.58241e-05
2.58239e-05
0.000115576
0.000219852
5.89941e-05
0.000208059
0.000115547
0.000219853
5.90107e-05
3.57606e-05
3.57543e-05
0.000187385
3.57636e-05
3.57572e-05
4.84066e-05
4.89767e-05
4.8398e-05
4.89759e-05
2.58265e-05
2.58264e-05
4.84139e-05
4.89726e-05
4.84061e-05
4.89719e-05
0.000225938
0.000225936
0.000225937
0.000225938
0.000225938
0.000225936
0.000225937
0.000115575
5.89906e-05
0.000219854
0.000208065
0.000115547
5.90077e-05
0.000219854
2.58241e-05
2.58239e-05
0.000115576
0.000219853
5.89941e-05
0.000208059
0.000115547
0.000219853
5.90107e-05
3.57606e-05
3.57543e-05
0.000187384
3.57636e-05
3.57572e-05
4.84066e-05
4.89767e-05
4.8398e-05
4.89759e-05
2.58265e-05
2.58264e-05
4.84139e-05
4.89726e-05
4.84061e-05
4.89719e-05
0.000225938
0.000225936
0.000225937
0.000225938
0.000225938
0.000225936
0.000225937
0.000115576
5.89906e-05
0.000219854
0.000208065
0.000115547
5.90078e-05
0.000219855
2.58241e-05
2.58239e-05
0.000115576
0.000219853
5.89942e-05
0.000208059
0.000115547
0.000219853
5.90107e-05
3.57606e-05
3.57543e-05
0.000187384
3.57636e-05
3.57572e-05
4.89767e-05
4.8398e-05
2.58265e-05
4.89726e-05
4.84062e-05
0.000225939
0.000225936
0.000225938
5.89906e-05
0.000219855
0.000115548
2.58241e-05
0.000219853
5.89942e-05
0.000115547
3.57606e-05
3.57543e-05
2.58275e-05
2.58285e-05
2.58264e-05
2.58273e-05
0.000187304
3.57606e-05
3.57613e-05
3.5756e-05
3.57573e-05
4.84306e-05
4.89707e-05
4.89726e-05
4.844e-05
4.84313e-05
4.89726e-05
4.89742e-05
4.84406e-05
0.000115636
0.000208103
5.90451e-05
0.000219886
5.90287e-05
0.000219887
0.00011566
0.000115638
0.000208102
5.90499e-05
0.000219886
5.90342e-05
0.000219886
0.000115663
2.58282e-05
3.57625e-05
3.57615e-05
2.58284e-05
4.84393e-05
4.89692e-05
4.8971e-05
4.84467e-05
0.000115638
0.000208114
5.90469e-05
0.000219888
5.90312e-05
0.000219888
0.000115662
4.84379e-05
4.89655e-05
4.89673e-05
4.84446e-05
0.000115637
0.000208094
0.000219884
5.90355e-05
0.000219884
5.9019e-05
0.000115661
5.90488e-05
0.000219889
0.000219889
0.000115661
4.89707e-05
4.84376e-05
0.000208103
0.000219888
5.90392e-05
0.000219888
0.00011566
4.89684e-05
4.84373e-05
2.58246e-05
2.58257e-05
0.000187299
3.57532e-05
3.5767e-05
3.5748e-05
3.57626e-05
2.58272e-05
2.58282e-05
0.000115638
0.000208111
0.000219886
5.9049e-05
0.000219886
5.90334e-05
0.000115661
0.000115638
0.000208112
0.000219887
5.9046e-05
0.000219887
5.90301e-05
0.000115663
4.84385e-05
4.89686e-05
4.89703e-05
4.84452e-05
4.84391e-05
4.89685e-05
4.89702e-05
4.84463e-05
0.000187303
3.57724e-05
3.57607e-05
3.57561e-05
2.58272e-05
2.58261e-05
2.58271e-05
2.58276e-05
2.58268e-05
2.58263e-05
2.58256e-05
3.57575e-05
3.57599e-05
0.000187465
3.57643e-05
3.57666e-05
2.58263e-05
2.58269e-05
2.58252e-05
2.58256e-05
0.000187318
3.57712e-05
3.57725e-05
3.57638e-05
3.57658e-05
4.84407e-05
4.8973e-05
4.84338e-05
4.89721e-05
0.000115661
5.903e-05
0.000219887
0.000208104
0.000115637
5.90467e-05
0.000219887
0.000115663
5.90356e-05
0.000219887
0.000208102
0.000115639
5.90511e-05
0.000219887
4.84338e-05
4.89699e-05
4.89708e-05
4.84416e-05
4.84334e-05
4.89718e-05
4.89726e-05
4.84412e-05
0.000115637
0.000208104
5.90483e-05
0.000219887
5.90318e-05
0.000219887
0.000115661
0.000115639
0.000208102
5.90521e-05
0.000219887
5.90369e-05
0.000219887
0.000115662
3.57603e-05
3.57578e-05
0.000187468
3.57654e-05
3.57607e-05
2.58285e-05
2.58275e-05
2.58266e-05
2.58272e-05
0.000187322
3.5771e-05
3.57678e-05
3.57641e-05
3.57594e-05
2.58269e-05
2.58276e-05
0.000115662
5.90325e-05
0.000219888
0.000208115
0.00011564
5.90484e-05
0.000219888
4.84432e-05
4.8966e-05
4.84381e-05
4.8965e-05
0.000115661
0.000219885
5.90203e-05
0.000208095
0.000115638
0.000219885
5.9037e-05
4.84391e-05
4.89684e-05
4.89693e-05
4.84468e-05
0.000115639
0.000208115
5.90496e-05
0.000219888
5.90341e-05
0.000219889
0.000115662
4.84369e-05
4.89647e-05
4.89655e-05
4.84449e-05
0.000115637
0.000208095
0.000219885
5.90388e-05
0.000219885
5.90221e-05
0.00011566
4.84413e-05
4.89712e-05
4.84315e-05
4.89702e-05
0.000115662
0.000219888
5.90264e-05
0.000208104
0.000115636
0.000219888
5.90464e-05
4.8441e-05
4.89688e-05
4.84311e-05
4.89679e-05
0.000115638
0.000208119
5.90518e-05
0.000219889
5.90351e-05
0.00021989
0.000115663
4.8435e-05
4.89698e-05
4.89707e-05
4.84446e-05
0.000115639
0.000208104
0.000219888
5.90512e-05
0.000219888
5.9033e-05
0.000115664
4.84347e-05
4.89676e-05
4.89684e-05
4.84443e-05
3.57499e-05
3.57653e-05
0.000187458
3.57557e-05
3.57718e-05
2.58272e-05
2.58265e-05
2.58235e-05
2.5824e-05
0.000187312
3.57622e-05
3.57775e-05
3.57544e-05
3.57708e-05
2.58261e-05
2.58266e-05
0.000115662
0.000219887
5.90314e-05
0.000208113
0.000115639
0.000219887
5.90476e-05
4.84436e-05
4.8969e-05
4.84386e-05
4.89681e-05
4.8445e-05
4.89689e-05
4.84396e-05
4.8968e-05
0.000115635
0.000208109
0.000219886
5.90515e-05
0.000219887
5.90362e-05
0.000115658
0.000115637
0.000208113
0.000219887
5.90487e-05
0.000219887
5.9033e-05
0.000115661
4.84373e-05
4.89678e-05
4.89686e-05
4.84452e-05
4.84384e-05
4.89676e-05
4.89685e-05
4.84463e-05
2.58271e-05
2.58263e-05
2.5826e-05
2.58253e-05
0.000187317
3.57789e-05
3.57711e-05
3.57733e-05
3.57644e-05
2.58259e-05
2.58264e-05
2.58249e-05
2.58254e-05
2.58265e-05
2.58261e-05
2.58253e-05
2.58249e-05
3.57695e-05
3.57714e-05
0.000187463
3.57753e-05
3.5777e-05
2.5826e-05
2.58263e-05
2.58248e-05
2.58251e-05
0.000187316
3.57783e-05
3.57805e-05
3.5773e-05
3.57756e-05
4.84449e-05
4.89723e-05
4.84349e-05
4.89715e-05
0.000115662
5.90331e-05
0.000219885
0.000208101
0.000115637
5.90491e-05
0.000219884
0.000115663
5.90376e-05
0.000219884
0.000208101
0.000115639
5.90527e-05
0.000219884
4.84385e-05
4.89696e-05
4.89703e-05
4.8448e-05
4.84389e-05
4.89714e-05
4.89721e-05
4.84486e-05
0.000115638
0.000208101
5.90504e-05
0.000219883
5.90339e-05
0.000219884
0.000115662
0.00011564
0.000208101
5.90541e-05
0.000219883
5.90383e-05
0.000219883
0.000115665
3.57699e-05
3.57669e-05
0.000187467
3.57763e-05
3.57733e-05
2.58271e-05
2.58265e-05
2.58262e-05
2.58265e-05
0.00018732
3.57803e-05
3.57767e-05
3.57749e-05
3.57713e-05
2.58264e-05
2.58267e-05
0.000115663
5.9035e-05
0.000219886
0.000208112
0.000115639
5.90503e-05
0.000219885
4.84494e-05
4.89652e-05
4.84397e-05
4.89644e-05
0.000115662
0.000219882
5.90237e-05
0.000208093
0.000115637
0.000219882
5.90402e-05
4.84459e-05
4.8968e-05
4.89687e-05
4.84549e-05
0.00011564
0.000208112
5.90517e-05
0.000219884
5.90358e-05
0.000219885
0.000115665
4.84442e-05
4.89643e-05
4.8965e-05
4.84532e-05
0.000115639
0.000208094
0.000219881
5.90415e-05
0.000219881
5.9025e-05
0.000115663
4.84474e-05
4.89704e-05
4.84383e-05
4.89695e-05
0.000115667
0.000219889
5.90373e-05
0.000208103
0.000115641
0.000219889
5.90545e-05
4.84472e-05
4.89681e-05
4.8438e-05
4.89674e-05
0.00011564
0.000208115
5.90533e-05
0.000219887
5.90375e-05
0.000219888
0.000115666
4.8441e-05
4.89694e-05
4.89701e-05
4.84498e-05
0.000115643
0.000208104
0.000219887
5.90569e-05
0.000219888
5.90404e-05
0.000115668
4.84408e-05
4.89673e-05
4.8968e-05
4.84497e-05
3.57604e-05
3.57763e-05
0.000187456
3.57665e-05
3.5782e-05
2.58262e-05
2.58258e-05
2.58231e-05
2.58234e-05
0.00018731
3.57697e-05
3.57854e-05
3.57643e-05
3.57804e-05
2.58257e-05
2.5826e-05
0.000115663
0.000219885
5.9034e-05
0.000208112
0.000115637
0.000219884
5.90494e-05
4.84496e-05
4.89683e-05
4.84399e-05
4.89675e-05
4.84506e-05
4.89681e-05
4.84409e-05
4.89674e-05
0.000115635
0.000208107
0.000219882
5.90535e-05
0.000219883
5.90377e-05
0.000115661
0.000115638
0.000208112
0.000219884
5.90508e-05
0.000219884
5.90347e-05
0.000115664
4.84444e-05
4.89674e-05
4.89681e-05
4.84534e-05
4.84453e-05
4.89673e-05
4.89679e-05
4.84544e-05
2.5826e-05
2.58256e-05
2.5825e-05
2.58246e-05
0.000187316
3.57862e-05
3.57789e-05
3.57812e-05
3.57739e-05
2.58255e-05
2.58258e-05
2.58246e-05
2.58248e-05
2.58263e-05
2.58261e-05
2.5825e-05
2.58249e-05
3.5776e-05
3.57789e-05
0.000187462
3.57805e-05
3.57829e-05
2.58263e-05
2.58264e-05
2.58251e-05
2.58251e-05
0.000187316
3.57813e-05
3.57837e-05
3.5778e-05
3.57811e-05
4.84508e-05
4.89719e-05
4.84423e-05
4.89713e-05
0.000115663
5.90356e-05
0.000219884
0.000208098
0.000115638
5.90527e-05
0.000219884
0.000115665
5.90402e-05
0.000219884
0.000208101
0.000115642
5.90567e-05
0.000219885
4.84433e-05
4.89697e-05
4.89702e-05
4.84503e-05
4.84438e-05
4.89712e-05
4.89719e-05
4.84509e-05
0.000115636
0.0002081
5.90535e-05
0.000219885
5.90378e-05
0.000219885
0.00011566
0.000115637
0.000208101
5.90583e-05
0.000219885
5.90427e-05
0.000219886
0.00011566
3.57787e-05
3.57746e-05
0.000187467
3.57833e-05
3.57795e-05
2.58266e-05
2.58264e-05
2.58263e-05
2.58264e-05
0.000187321
3.57849e-05
3.57811e-05
3.57813e-05
3.5777e-05
2.58265e-05
2.58267e-05
0.000115663
5.90375e-05
0.000219884
0.000208109
0.000115642
5.90539e-05
0.000219884
4.84555e-05
4.89649e-05
4.84478e-05
4.89643e-05
0.000115665
0.000219881
5.90265e-05
0.00020809
0.000115641
0.000219882
5.90433e-05
4.84511e-05
4.89681e-05
4.89686e-05
4.84575e-05
0.000115639
0.000208111
5.90548e-05
0.000219886
5.90398e-05
0.000219886
0.000115664
4.84495e-05
4.89644e-05
4.89649e-05
4.84557e-05
0.000115637
0.000208091
0.000219883
5.90438e-05
0.000219883
5.90283e-05
0.000115659
4.84515e-05
4.897e-05
4.84432e-05
4.89693e-05
0.000115666
0.000219885
5.90427e-05
0.000208104
0.000115645
0.000219884
5.90587e-05
4.84512e-05
4.89679e-05
4.84431e-05
4.89673e-05
0.000115642
0.000208113
5.90563e-05
0.000219886
5.90399e-05
0.000219886
0.000115664
4.84446e-05
4.89692e-05
4.89699e-05
4.84516e-05
0.000115638
0.000208103
0.000219884
5.9059e-05
0.000219884
5.90442e-05
0.000115661
4.84442e-05
4.89675e-05
4.89679e-05
4.84511e-05
3.57673e-05
3.57837e-05
0.000187455
3.57719e-05
3.57879e-05
2.58259e-05
2.58258e-05
2.58234e-05
2.58235e-05
0.00018731
3.57724e-05
3.57886e-05
3.57692e-05
3.57859e-05
2.5826e-05
2.5826e-05
0.000115668
0.000219884
5.90364e-05
0.000208108
0.00011564
0.000219885
5.90531e-05
4.84559e-05
4.8968e-05
4.84479e-05
4.89673e-05
4.8457e-05
4.89678e-05
4.84488e-05
4.89672e-05
0.00011564
0.000208106
0.000219884
5.90569e-05
0.000219884
5.90419e-05
0.000115665
0.000115642
0.000208109
0.000219886
5.9054e-05
0.000219886
5.90387e-05
0.000115664
4.84499e-05
4.89674e-05
4.89679e-05
4.84566e-05
4.84508e-05
4.89673e-05
4.89678e-05
4.84573e-05
2.58257e-05
2.58256e-05
2.58248e-05
2.58246e-05
0.000187315
3.57898e-05
3.57821e-05
3.57863e-05
3.57793e-05
2.58257e-05
2.58258e-05
2.58249e-05
2.58249e-05
2.58267e-05
2.58268e-05
2.58254e-05
2.58256e-05
3.57776e-05
3.57807e-05
0.000187451
3.57772e-05
3.57795e-05
2.5827e-05
2.58272e-05
2.58258e-05
2.58259e-05
0.000187297
3.57708e-05
3.57732e-05
3.57725e-05
3.57755e-05
4.84438e-05
4.89718e-05
4.84432e-05
4.89719e-05
0.00011565
5.90372e-05
0.000219884
0.000208096
0.000115632
5.90462e-05
0.000219882
0.000115652
5.90434e-05
0.000219884
0.000208095
0.000115632
5.90531e-05
0.000219882
4.8432e-05
4.89734e-05
4.8972e-05
4.84273e-05
4.84327e-05
4.89747e-05
4.89729e-05
4.84279e-05
0.000115619
0.000208089
5.90305e-05
0.00021986
5.90271e-05
0.000219876
0.000115619
0.000115621
0.000208089
5.90378e-05
0.000219861
5.90352e-05
0.000219876
0.00011562
3.57822e-05
3.57783e-05
0.000187459
3.5782e-05
3.57791e-05
2.58269e-05
2.5827e-05
2.58272e-05
2.58272e-05
0.000187308
3.57764e-05
3.57735e-05
3.5778e-05
3.57746e-05
2.58274e-05
2.58274e-05
0.000115651
5.90392e-05
0.000219885
0.000208107
0.000115636
5.90475e-05
0.000219883
4.84485e-05
4.89652e-05
4.84488e-05
4.89655e-05
0.00011565
0.000219882
5.90275e-05
0.000208087
0.000115631
0.000219879
5.90365e-05
4.84396e-05
4.89719e-05
4.89704e-05
4.84338e-05
0.000115621
0.0002081
5.90317e-05
0.00021986
5.90291e-05
0.000219877
0.00011562
4.84381e-05
4.89681e-05
4.89666e-05
4.84323e-05
0.000115619
0.00020808
0.000219857
5.90208e-05
0.000219873
5.90174e-05
0.000115619
4.84468e-05
4.89699e-05
4.84443e-05
4.89697e-05
0.000115652
0.000219884
5.90436e-05
0.000208097
0.000115633
0.000219882
5.90532e-05
4.84462e-05
4.89682e-05
4.84437e-05
4.89683e-05
0.000115623
0.000208107
5.90399e-05
0.000219868
5.90352e-05
0.000219879
0.000115631
4.84363e-05
4.89715e-05
4.89706e-05
4.84316e-05
0.000115622
0.00020809
0.000219865
5.90382e-05
0.000219878
5.90351e-05
0.000115629
4.84357e-05
4.89706e-05
4.89692e-05
4.84311e-05
3.57687e-05
3.57855e-05
0.000187444
3.57681e-05
3.57845e-05
2.58264e-05
2.58265e-05
2.58241e-05
2.58243e-05
0.000187291
3.57617e-05
3.57783e-05
3.57634e-05
3.57804e-05
2.58267e-05
2.58268e-05
0.000115653
0.000219885
5.90382e-05
0.000208105
0.000115635
0.000219882
5.90468e-05
4.84495e-05
4.89682e-05
4.84498e-05
4.89685e-05
4.845e-05
4.8968e-05
4.84502e-05
4.89684e-05
0.000115623
0.000208097
0.000219861
5.90341e-05
0.000219876
5.90317e-05
0.000115622
0.000115621
0.000208099
0.00021986
5.9031e-05
0.000219876
5.90282e-05
0.00011562
4.8439e-05
4.89712e-05
4.89696e-05
4.84331e-05
4.84394e-05
4.8971e-05
4.89694e-05
4.84336e-05
2.5826e-05
2.58262e-05
2.58252e-05
2.58254e-05
0.000187298
3.57799e-05
3.57717e-05
3.5782e-05
3.57738e-05
2.58265e-05
2.58265e-05
2.58255e-05
2.58256e-05
2.58272e-05
2.58269e-05
2.5826e-05
2.58257e-05
3.57662e-05
3.57688e-05
0.000187385
3.57615e-05
3.57641e-05
2.58268e-05
2.58271e-05
2.58256e-05
2.58259e-05
0.000187235
3.57559e-05
3.57597e-05
3.57572e-05
3.57599e-05
4.84145e-05
4.89762e-05
4.84166e-05
4.89764e-05
0.000115573
5.90106e-05
0.000219848
0.000208049
0.000115579
5.90153e-05
0.000219845
0.000115575
5.90186e-05
0.000219849
0.000208051
0.000115581
5.90217e-05
0.000219846
4.84043e-05
4.89746e-05
4.89753e-05
4.84081e-05
4.84052e-05
4.89763e-05
4.8977e-05
4.84089e-05
0.000115547
0.000208045
5.90086e-05
0.000219848
5.89974e-05
0.000219845
0.000115574
0.000115549
0.000208045
5.90138e-05
0.000219848
5.90043e-05
0.000219845
0.000115576
3.57722e-05
3.57689e-05
0.000187397
3.57688e-05
3.57659e-05
2.58276e-05
2.58273e-05
2.5827e-05
2.58273e-05
0.000187241
3.5761e-05
3.57573e-05
3.5764e-05
3.57615e-05
2.58272e-05
2.58276e-05
0.000115574
5.90125e-05
0.000219849
0.00020806
0.00011558
5.90167e-05
0.000219846
4.8419e-05
4.89694e-05
4.84217e-05
4.89694e-05
0.000115573
0.000219846
5.90008e-05
0.000208039
0.000115579
0.000219843
5.90055e-05
4.84121e-05
4.8973e-05
4.89736e-05
4.84154e-05
0.000115549
0.000208056
5.90103e-05
0.000219849
5.89995e-05
0.000219846
0.000115576
4.84107e-05
4.89693e-05
4.897e-05
4.84138e-05
0.000115548
0.000208036
0.000219846
5.8999e-05
0.000219842
5.89876e-05
0.000115574
4.84165e-05
4.89731e-05
4.84199e-05
4.89741e-05
0.000115578
0.000219852
5.90187e-05
0.00020805
0.000115593
0.000219848
5.90216e-05
4.8416e-05
4.89721e-05
4.84193e-05
4.89725e-05
0.000115549
0.000208061
5.90121e-05
0.00021985
5.90036e-05
0.000219848
0.000115573
4.84065e-05
4.89744e-05
4.89749e-05
4.84089e-05
0.000115547
0.000208046
0.000219849
5.90133e-05
0.000219846
5.90038e-05
0.000115572
4.8406e-05
4.89726e-05
4.89732e-05
4.84084e-05
3.57568e-05
3.57737e-05
0.000187378
3.57529e-05
3.57689e-05
2.58269e-05
2.58266e-05
2.5824e-05
2.58243e-05
0.000187228
3.57477e-05
3.57646e-05
3.57481e-05
3.57645e-05
2.58265e-05
2.58268e-05
0.000115575
0.000219848
5.90115e-05
0.000208058
0.000115579
0.000219845
5.90158e-05
4.84197e-05
4.89724e-05
4.84224e-05
4.89724e-05
4.84203e-05
4.89723e-05
4.84228e-05
4.89723e-05
0.000115551
0.000208054
0.000219848
5.90124e-05
0.000219846
5.90019e-05
0.000115576
0.000115549
0.000208055
0.000219849
5.90095e-05
0.000219845
5.89985e-05
0.000115577
4.84113e-05
4.89723e-05
4.8973e-05
4.84144e-05
4.84118e-05
4.89722e-05
4.89728e-05
4.84151e-05
2.58267e-05
2.58265e-05
2.58257e-05
2.58254e-05
0.000187235
3.5765e-05
3.57581e-05
3.57663e-05
3.57581e-05
2.58264e-05
2.58266e-05
2.58254e-05
2.58256e-05
2.58271e-05
2.58268e-05
2.58258e-05
2.58256e-05
3.57525e-05
3.5757e-05
0.000187391
3.57552e-05
3.57589e-05
2.58268e-05
2.5827e-05
2.58256e-05
2.58258e-05
0.000187244
3.57552e-05
3.57587e-05
3.57522e-05
3.57564e-05
4.84076e-05
4.89769e-05
4.84012e-05
4.89762e-05
0.000115575
5.89925e-05
0.000219852
0.000208051
0.00011555
5.90068e-05
0.000219853
0.000115578
5.89983e-05
0.000219852
0.000208049
0.000115552
5.90116e-05
0.000219853
4.83996e-05
4.89744e-05
4.89751e-05
4.84066e-05
4.84003e-05
4.89762e-05
4.89768e-05
4.84074e-05
0.000115551
0.000208051
5.90064e-05
0.000219853
5.89912e-05
0.000219853
0.000115575
0.000115553
0.000208048
5.90109e-05
0.000219852
5.89967e-05
0.000219853
0.000115577
3.57577e-05
3.57534e-05
0.000187395
3.57592e-05
3.57548e-05
2.58275e-05
2.58272e-05
2.58269e-05
2.58272e-05
0.000187248
3.57589e-05
3.57546e-05
3.57565e-05
3.57517e-05
2.58272e-05
2.58274e-05
0.000115578
5.89949e-05
0.000219853
0.000208062
0.000115552
5.90087e-05
0.000219854
4.84125e-05
4.89699e-05
4.84069e-05
4.89692e-05
0.000115577
0.00021985
5.89828e-05
0.000208042
0.000115551
0.000219851
5.89972e-05
4.84077e-05
4.89729e-05
4.89735e-05
4.8414e-05
0.000115553
0.000208062
5.90083e-05
0.000219854
5.89938e-05
0.000219854
0.000115577
4.8406e-05
4.89692e-05
4.89698e-05
4.84123e-05
0.000115552
0.000208042
0.00021985
5.89968e-05
0.000219851
5.89815e-05
0.000115576
4.84068e-05
4.8975e-05
4.84009e-05
4.89743e-05
0.000115574
0.000219852
5.89975e-05
0.00020805
0.000115549
0.000219853
5.90109e-05
4.84064e-05
4.89731e-05
4.84005e-05
4.89725e-05
0.000115554
0.000208064
5.90079e-05