/*--------------------------------*- C++ -*----------------------------------*\
| =========                 |                                                 |
| \\      /  F ield         | OpenFOAM: The Open Source CFD Toolbox           |
|  \\    /   O peration     | Version:  2206                                  |
|   \\  /    A nd           | Website:  www.openfoam.com                      |
|    \\/     M anipulation  |                                                 |
\*---------------------------------------------------------------------------*/
FoamFile
{
    version     2.0;
    format      ascii;
    arch        "LSB;label=32;scalar=64";
    class       volScalarField;
    location    "18";
    object      Uy;
}
// * * * * * * * * * * * * * * * * * * * * * * * * * * * * * * * * * * * * * //

dimensions      [0 1 -1 0 0 0 0];

internalField   nonuniform List<scalar> 
171728
(
0.000108153
0.000119802
-0.000190904
-0.000238904
9.52191e-05
9.73156e-05
-0.000160657
-0.000199954
9.03601e-05
9.06653e-05
-0.000151799
-0.000193211
7.63498e-05
6.53422e-05
-0.000113922
-0.00016087
2.35401e-05
2.02593e-05
-3.02285e-05
-6.71542e-05
2.39251e-06
2.93186e-06
-3.65021e-06
-4.2551e-05
-3.58964e-07
6.93555e-07
-5.24328e-07
-4.01791e-05
-5.40416e-07
5.80071e-07
-3.74222e-07
-4.00881e-05
-5.50265e-07
5.77039e-07
-3.71943e-07
-4.00865e-05
-5.48191e-07
5.77968e-07
-3.72566e-07
-4.0087e-05
-5.43353e-07
5.78385e-07
-3.72163e-07
-4.00875e-05
-5.50923e-07
5.7687e-07
-3.72802e-07
-4.00874e-05
-5.52318e-07
5.74607e-07
-3.71937e-07
-4.00865e-05
-5.52487e-07
5.73729e-07
-3.705e-07
-4.00855e-05
-5.51481e-07
5.78979e-07
-3.706e-07
-4.00847e-05
-5.48837e-07
5.82397e-07
-3.71155e-07
-4.00845e-05
-5.4991e-07
5.79787e-07
-3.71763e-07
-4.00865e-05
-5.47254e-07
5.81443e-07
-3.71913e-07
-4.0086e-05
-5.39348e-07
5.94604e-07
-3.70827e-07
-4.00857e-05
-5.42797e-07
5.67901e-07
-3.69629e-07
-4.00851e-05
-5.45529e-07
5.80484e-07
-3.71312e-07
-4.00864e-05
-5.5231e-07
5.758e-07
-3.71072e-07
-4.00859e-05
-5.52148e-07
5.75054e-07
-3.71795e-07
-4.00859e-05
-5.52207e-07
5.74699e-07
-3.72037e-07
-4.00862e-05
-5.51344e-07
5.75364e-07
-3.72726e-07
-4.00872e-05
-5.50521e-07
5.75887e-07
-3.73281e-07
-4.00874e-05
-5.50042e-07
5.76454e-07
-3.73795e-07
-4.00882e-05
-5.50434e-07
5.75964e-07
-3.73329e-07
-4.00874e-05
-5.50877e-07
5.75376e-07
-3.72505e-07
-4.00868e-05
-5.51295e-07
5.75486e-07
-3.71982e-07
-4.0087e-05
-5.5159e-07
5.76132e-07
-3.71866e-07
-4.00862e-05
-5.51057e-07
5.75535e-07
-3.71741e-07
-4.00862e-05
-5.50646e-07
5.75478e-07
-3.72857e-07
-4.00873e-05
-5.50437e-07
5.75993e-07
-3.73158e-07
-4.00876e-05
-5.50045e-07
5.75871e-07
-3.73378e-07
-4.00878e-05
-5.50225e-07
5.76016e-07
-3.73406e-07
-4.00877e-05
-5.5128e-07
5.74708e-07
-3.71995e-07
-4.00865e-05
-5.51174e-07
5.75048e-07
-3.72283e-07
-4.00871e-05
-5.51928e-07
5.7414e-07
-3.71447e-07
-4.00863e-05
-5.50855e-07
5.75403e-07
-3.72578e-07
-4.00888e-05
-5.4545e-07
5.7409e-07
-3.72386e-07
-4.00882e-05
-5.48122e-07
5.86774e-07
-3.7149e-07
-4.00857e-05
-5.48383e-07
5.77297e-07
-3.72004e-07
-4.00866e-05
-5.50392e-07
5.77059e-07
-3.71384e-07
-4.00869e-05
-5.51601e-07
5.76722e-07
-3.71043e-07
-4.00872e-05
-5.51899e-07
5.75443e-07
-3.69845e-07
-4.0086e-05
-5.51857e-07
5.76142e-07
-3.70307e-07
-4.00865e-05
-5.52017e-07
5.75579e-07
-3.70204e-07
-4.00863e-05
-5.50995e-07
5.76682e-07
-3.71082e-07
-4.00866e-05
-5.50566e-07
5.7705e-07
-3.71922e-07
-4.00873e-05
-5.50891e-07
5.77015e-07
-3.71132e-07
-4.00866e-05
-5.50902e-07
5.76931e-07
-3.72038e-07
-4.0088e-05
-5.52044e-07
5.75521e-07
-3.70801e-07
-4.00868e-05
-5.53333e-07
5.72029e-07
-3.70993e-07
-4.00871e-05
-5.54718e-07
5.657e-07
-3.71076e-07
-4.00879e-05
-5.52937e-07
5.74222e-07
-3.70534e-07
-4.00866e-05
-5.52861e-07
5.7484e-07
-3.692e-07
-4.00852e-05
-5.52992e-07
5.74447e-07
-3.68944e-07
-4.00848e-05
-5.52799e-07
5.74992e-07
-3.69322e-07
-4.00848e-05
-5.53361e-07
5.73924e-07
-3.68358e-07
-4.00841e-05
-5.53361e-07
5.73829e-07
-3.67784e-07
-4.00837e-05
-5.54389e-07
5.72908e-07
-3.66456e-07
-4.00827e-05
-5.54012e-07
5.73528e-07
-3.67375e-07
-4.00827e-05
-5.53559e-07
5.7352e-07
-3.67414e-07
-4.00835e-05
-5.53415e-07
5.73692e-07
-3.67871e-07
-4.00836e-05
-5.5295e-07
5.74544e-07
-3.69198e-07
-4.00845e-05
-5.52758e-07
5.7418e-07
-3.68548e-07
-4.00843e-05
-5.52576e-07
5.74831e-07
-3.68216e-07
-4.00835e-05
-5.52218e-07
5.74626e-07
-3.63408e-07
-4.008e-05
-5.5052e-07
5.76379e-07
-3.53077e-07
-4.00731e-05
-5.51968e-07
5.74695e-07
-3.62866e-07
-4.0078e-05
-5.53225e-07
5.74385e-07
-3.67026e-07
-4.00821e-05
-5.52938e-07
5.73767e-07
-3.67953e-07
-4.0084e-05
-5.53117e-07
5.74087e-07
-3.68498e-07
-4.00845e-05
-5.5279e-07
5.74707e-07
-3.69195e-07
-4.00843e-05
-5.53354e-07
5.74132e-07
-3.67786e-07
-4.00838e-05
-5.53735e-07
5.73287e-07
-3.67023e-07
-4.0083e-05
-5.54087e-07
5.73339e-07
-3.66989e-07
-4.0083e-05
-5.54123e-07
5.73235e-07
-3.67071e-07
-4.00827e-05
-5.53712e-07
5.73307e-07
-3.67267e-07
-4.00831e-05
-5.53249e-07
5.7434e-07
-3.6826e-07
-4.0084e-05
-5.52936e-07
5.74342e-07
-3.68776e-07
-4.00841e-05
-5.53112e-07
5.74287e-07
-3.68761e-07
-4.00844e-05
-5.53388e-07
5.73692e-07
-3.68174e-07
-4.0084e-05
-5.53985e-07
5.73585e-07
-3.67431e-07
-4.00832e-05
-5.5405e-07
5.73321e-07
-3.67202e-07
-4.00827e-05
-5.54236e-07
5.7311e-07
-3.67003e-07
-4.00831e-05
-5.53847e-07
5.73338e-07
-3.67203e-07
-4.00836e-05
-5.55883e-07
5.72125e-07
-3.66211e-07
-4.00837e-05
-5.68462e-07
5.71052e-07
-3.66505e-07
-4.00615e-05
-5.40056e-07
6.71896e-07
-5.60106e-07
-3.98166e-05
-6.91718e-07
1.13519e-06
-1.21362e-06
-3.85725e-05
4.44724e-08
2.67756e-06
-3.14508e-06
-3.66321e-05
-5.44175e-06
2.95771e-06
-2.11044e-06
-2.64284e-05
-4.26003e-05
-3.49598e-05
4.1338e-05
4.9534e-05
0.000135433
0.00015225
0.00015223
0.000135401
0.000123784
-0.000123801
9.05801e-05
9.0577e-05
-9.06254e-05
-9.06233e-05
0.000123779
-0.000123797
-0.000135452
-0.000152279
-0.000152262
-0.000135425
0.000238903
0.000112606
0.0001908
0.000190843
0.000145711
0.000145709
0.000238853
0.000112574
0.000119817
-0.000119882
8.81879e-05
-8.82106e-05
-0.000119885
8.8189e-05
-8.8204e-05
-0.00023895
-0.0001127
-0.000190934
-0.000145656
-0.000145678
-0.000112702
0.000199822
0.000104896
0.000160718
0.000160717
0.000149173
0.000149172
0.000199789
0.000104886
9.73125e-05
-9.7324e-05
8.84259e-05
-8.84266e-05
-9.73197e-05
8.84343e-05
-8.84186e-05
-0.000199963
-0.000104957
-0.000160687
-0.00014913
-0.000149153
-0.000104965
0.000193096
8.93202e-05
0.000151841
0.000151838
0.000139635
0.00013961
0.000193079
8.93023e-05
9.06635e-05
-9.06657e-05
8.13292e-05
-8.12898e-05
-9.06539e-05
8.13166e-05
-8.13014e-05
-0.000193217
-8.93674e-05
-0.000151817
-0.000139568
-0.000139576
-8.93886e-05
0.000160748
-7.91473e-06
0.000113978
0.000113946
4.52694e-05
4.52793e-05
0.000160722
-7.91858e-06
6.53615e-05
-6.53613e-05
2.87307e-05
-2.8781e-05
-6.53538e-05
2.87333e-05
-2.87689e-05
-0.000160855
7.93051e-06
-0.000113919
-4.5282e-05
-4.52853e-05
7.92544e-06
6.71073e-05
-3.81417e-05
3.02142e-05
3.02302e-05
6.54867e-06
6.573e-06
6.71045e-05
-3.81257e-05
2.0254e-05
-2.02969e-05
4.98469e-06
-5.00544e-06
-2.02877e-05
4.99033e-06
-5.00252e-06
-6.71592e-05
3.8164e-05
-3.02305e-05
-6.54099e-06
-6.54234e-06
3.81552e-05
4.25207e-05
-4.15264e-05
3.65734e-06
3.68284e-06
7.5218e-07
7.60766e-07
4.25306e-05
-4.15265e-05
2.92682e-06
-2.94375e-06
8.42216e-07
-8.53014e-07
-2.94028e-06
8.41171e-07
-8.50769e-07
-4.2558e-05
4.1561e-05
-3.64739e-06
-7.36931e-07
-7.35868e-07
4.15504e-05
4.01574e-05
-4.16614e-05
5.40577e-07
5.43392e-07
3.99115e-07
3.98436e-07
4.01466e-05
-4.16714e-05
7.00203e-07
-7.08318e-07
5.91516e-07
-5.96763e-07
-7.06017e-07
5.85713e-07
-5.96224e-07
-4.0184e-05
4.17056e-05
-5.20799e-07
-3.76459e-07
-3.75921e-07
4.16934e-05
4.00682e-05
-4.16744e-05
3.90733e-07
3.94544e-07
3.86303e-07
3.88452e-07
4.00558e-05
-4.1674e-05
5.83953e-07
-5.92773e-07
5.78848e-07
-5.89281e-07
-5.91602e-07
5.77802e-07
-5.88427e-07
-4.00916e-05
4.17084e-05
-3.70958e-07
-3.68331e-07
-3.68143e-07
4.16965e-05
4.00587e-05
-4.16742e-05
3.86415e-07
3.92569e-07
3.86807e-07
3.86461e-07
4.00545e-05
-4.16733e-05
5.79618e-07
-5.90782e-07
5.79851e-07
-5.89911e-07
-5.89099e-07
5.78583e-07
-5.8872e-07
-4.00904e-05
4.17075e-05
-3.69118e-07
-3.693e-07
-3.68725e-07
4.1696e-05
4.00609e-05
-4.16568e-05
3.89425e-07
3.97025e-07
4.00441e-07
3.87858e-07
4.00554e-05
-4.16726e-05
5.82359e-07
-5.90856e-07
5.88246e-07
-5.88447e-07
-5.89187e-07
5.79059e-07
-5.88761e-07
-4.00912e-05
4.17086e-05
-3.69375e-07
-3.6867e-07
-3.68721e-07
4.16956e-05
4.00774e-05
-4.16739e-05
3.98403e-07
3.97805e-07
3.85076e-07
3.85408e-07
4.0056e-05
-4.16744e-05
5.88095e-07
-5.89744e-07
5.77875e-07
-5.89989e-07
-5.89392e-07
5.77979e-07
-5.89188e-07
-4.00905e-05
4.17072e-05
-3.69482e-07
-3.69538e-07
-3.69066e-07
4.16952e-05
4.00585e-05
-4.16745e-05
3.88973e-07
3.94715e-07
3.82964e-07
3.94096e-07
4.00541e-05
-4.16769e-05
5.80257e-07
-5.91402e-07
5.77638e-07
-5.90506e-07
-5.8974e-07
5.75672e-07
-5.88575e-07
-4.00915e-05
4.17072e-05
-3.7002e-07
-3.68754e-07
-3.70544e-07
4.16958e-05
4.00583e-05
-4.16764e-05
3.84796e-07
3.99485e-07
3.79839e-07
3.97912e-07
4.00512e-05
-4.16782e-05
5.79679e-07
-5.91778e-07
5.76585e-07
-5.90573e-07
-5.88491e-07
5.7411e-07
-5.86931e-07
-4.00915e-05
4.17073e-05
-3.71497e-07
-3.67544e-07
-3.70888e-07
4.16972e-05
4.00608e-05
-4.16762e-05
3.85827e-07
3.97615e-07
3.82013e-07
3.91128e-07
4.00508e-05
-4.16747e-05
5.81858e-07
-5.91667e-07
5.78976e-07
-5.90103e-07
-5.8697e-07
5.77401e-07
-5.85822e-07
-4.00913e-05
4.17078e-05
-3.70805e-07
-3.67368e-07
-3.68114e-07
4.16984e-05
4.00634e-05
-4.16761e-05
3.87404e-07
3.92964e-07
3.84251e-07
4.0299e-07
4.00571e-05
-4.1657e-05
5.79453e-07
-5.91081e-07
5.79014e-07
-5.89412e-07
-5.86194e-07
5.8716e-07
-5.85361e-07
-4.00909e-05
4.17086e-05
-3.68155e-07
-3.67408e-07
-3.66796e-07
4.16989e-05
4.00633e-05
-4.16752e-05
3.89072e-07
3.96342e-07
3.82787e-07
3.89542e-07
4.00701e-05
-4.16773e-05
5.80165e-07
-5.90755e-07
5.79011e-07
-5.89939e-07
-5.86227e-07
5.78712e-07
-5.87691e-07
-4.00905e-05
4.17077e-05
-3.67773e-07
-3.68606e-07
-3.68228e-07
4.16966e-05
4.00635e-05
-4.16739e-05
3.90269e-07
3.91592e-07
3.83444e-07
3.89717e-07
4.00543e-05
-4.16764e-05
5.79801e-07
-5.91069e-07
5.79908e-07
-5.89359e-07
-5.88127e-07
5.79802e-07
-5.87126e-07
-4.00912e-05
4.17084e-05
-3.6866e-07
-3.68393e-07
-3.678e-07
4.16975e-05
4.00637e-05
-4.16609e-05
3.92053e-07
3.91467e-07
3.94865e-07
4.01845e-07
4.00569e-05
-4.16574e-05
5.81948e-07
-5.90421e-07
5.87487e-07
-5.878e-07
-5.87667e-07
5.9057e-07
-5.86021e-07
-4.00908e-05
4.17093e-05
-3.68805e-07
-3.67941e-07
-3.68156e-07
4.16979e-05
4.00813e-05
-4.16625e-05
4.06307e-07
4.0915e-07
3.8948e-07
3.94658e-07
4.0077e-05
-4.16703e-05
5.9183e-07
-5.88566e-07
5.86803e-07
-5.87134e-07
-5.85969e-07
5.78434e-07
-5.85952e-07
-4.00902e-05
4.17098e-05
-3.69753e-07
-3.66177e-07
-3.75096e-07
4.16982e-05
4.00712e-05
-4.16658e-05
3.89952e-07
3.86901e-07
3.97555e-07
3.97465e-07
4.00473e-05
-4.16741e-05
5.83903e-07
-5.88973e-07
5.77309e-07
-5.88895e-07
-5.87365e-07
5.80125e-07
-5.8818e-07
-4.00897e-05
4.17081e-05
-3.77059e-07
-3.67834e-07
-3.7034e-07
4.16964e-05
4.0065e-05
-4.16692e-05
3.98394e-07
3.86127e-07
3.85517e-07
3.89301e-07
4.00544e-05
-4.16744e-05
5.78835e-07
-5.90034e-07
5.77589e-07
-5.89333e-07
-5.88266e-07
5.75722e-07
-5.87407e-07
-4.00906e-05
4.17081e-05
-3.6993e-07
-3.67753e-07
-3.69246e-07
4.16969e-05
4.00574e-05
-4.16717e-05
3.82282e-07
3.89154e-07
3.8412e-07
3.87423e-07
4.00565e-05
-4.1677e-05
5.76879e-07
-5.90839e-07
5.75225e-07
-5.89872e-07
-5.88179e-07
5.75145e-07
-5.88085e-07
-4.00905e-05
4.17079e-05
-3.69037e-07
-3.68118e-07
-3.68255e-07
4.16968e-05
4.00567e-05
-4.16721e-05
3.83037e-07
3.87231e-07
3.84365e-07
3.87441e-07
4.00532e-05
-4.16772e-05
5.76268e-07
-5.91162e-07
5.74431e-07
-5.89891e-07
-5.88924e-07
5.74864e-07
-5.87991e-07
-4.00907e-05
4.17077e-05
-3.68543e-07
-3.68371e-07
-3.66889e-07
4.16968e-05
4.0056e-05
-4.16711e-05
3.82448e-07
3.87737e-07
3.85349e-07
3.88485e-07
4.00531e-05
-4.16757e-05
5.75196e-07
-5.91159e-07
5.74645e-07
-5.90379e-07
-5.88716e-07
5.75539e-07
-5.88954e-07
-4.00907e-05
4.17069e-05
-3.68991e-07
-3.69322e-07
-3.69799e-07
4.16955e-05
4.00574e-05
-4.16698e-05
3.83404e-07
3.88689e-07
3.86574e-07
3.89235e-07
4.00544e-05
-4.16749e-05
5.75717e-07
-5.91667e-07
5.75457e-07
-5.90585e-07
-5.89418e-07
5.76413e-07
-5.89036e-07
-4.00914e-05
4.17067e-05
-3.70601e-07
-3.69558e-07
-3.70493e-07
4.16954e-05
4.00589e-05
-4.16686e-05
3.84834e-07
3.89538e-07
3.87772e-07
3.90232e-07
4.00553e-05
-4.16742e-05
5.76444e-07
-5.91769e-07
5.76256e-07
-5.91023e-07
-5.89744e-07
5.7683e-07
-5.89713e-07
-4.00918e-05
4.1706e-05
-3.71592e-07
-3.7074e-07
-3.71855e-07
4.16944e-05
4.00598e-05
-4.16691e-05
3.85454e-07
3.90016e-07
3.87151e-07
3.89539e-07
4.00558e-05
-4.16749e-05
5.77002e-07
-5.92034e-07
5.75765e-07
-5.90139e-07
-5.90137e-07
5.76441e-07
-5.89165e-07
-4.00923e-05
4.17071e-05
-3.72326e-07
-3.69793e-07
-3.71054e-07
4.16952e-05
4.00592e-05
-4.16697e-05
3.84841e-07
3.89546e-07
3.86619e-07
3.89073e-07
4.00552e-05
-4.16753e-05
5.765e-07
-5.91646e-07
5.75217e-07
-5.9031e-07
-5.89553e-07
5.76028e-07
-5.88494e-07
-4.00914e-05
4.17068e-05
-3.71582e-07
-3.69535e-07
-3.70423e-07
4.16959e-05
4.00588e-05
-4.16696e-05
3.84341e-07
3.88769e-07
3.86418e-07
3.8862e-07
4.00547e-05
-4.16756e-05
5.75932e-07
-5.91053e-07
5.75334e-07
-5.89873e-07
-5.88944e-07
5.75595e-07
-5.88916e-07
-4.00913e-05
4.17075e-05
-3.70941e-07
-3.6907e-07
-3.70657e-07
4.16955e-05
4.00585e-05
-4.1671e-05
3.83613e-07
3.88448e-07
3.84975e-07
3.87441e-07
4.00545e-05
-4.16757e-05
5.7569e-07
-5.90815e-07
5.74256e-07
-5.89327e-07
-5.88932e-07
5.74358e-07
-5.88086e-07
-4.00909e-05
4.17082e-05
-3.70578e-07
-3.68385e-07
-3.69659e-07
4.16966e-05
4.00578e-05
-4.16697e-05
3.83334e-07
3.88384e-07
3.86295e-07
3.88734e-07
4.00536e-05
-4.16761e-05
5.7545e-07
-5.90675e-07
5.75354e-07
-5.89733e-07
-5.88732e-07
5.74901e-07
-5.88032e-07
-4.00903e-05
4.17076e-05
-3.70435e-07
-3.68746e-07
-3.69828e-07
4.16965e-05
4.00586e-05
-4.16698e-05
3.83889e-07
3.88843e-07
3.86318e-07
3.89356e-07
4.00525e-05
-4.16747e-05
5.75941e-07
-5.90756e-07
5.75168e-07
-5.89993e-07
-5.88652e-07
5.75693e-07
-5.88877e-07
-4.00908e-05
4.17075e-05
-3.70263e-07
-3.69585e-07
-3.71002e-07
4.16955e-05
4.00587e-05
-4.16689e-05
3.844e-07
3.89746e-07
3.8715e-07
3.90246e-07
4.00523e-05
-4.16742e-05
5.76256e-07
-5.91551e-07
5.75858e-07
-5.90687e-07
-5.89616e-07
5.76176e-07
-5.89286e-07
-4.00913e-05
4.17066e-05
-3.71437e-07
-3.70461e-07
-3.71729e-07
4.16951e-05
4.00596e-05
-4.16688e-05
3.84739e-07
3.90179e-07
3.87574e-07
3.90738e-07
4.00526e-05
-4.16741e-05
5.76463e-07
-5.91785e-07
5.75991e-07
-5.90717e-07
-5.90084e-07
5.76307e-07
-5.89267e-07
-4.00919e-05
4.17065e-05
-3.71915e-07
-3.70393e-07
-3.71665e-07
4.16949e-05
4.00598e-05
-4.1669e-05
3.85488e-07
3.90869e-07
3.87451e-07
3.90563e-07
4.00528e-05
-4.16743e-05
5.76993e-07
-5.92076e-07
5.75939e-07
-5.90679e-07
-5.8993e-07
5.76082e-07
-5.89243e-07
-4.00921e-05
4.17066e-05
-3.71851e-07
-3.7048e-07
-3.71679e-07
4.16949e-05
4.00595e-05
-4.16703e-05
3.85375e-07
3.90738e-07
3.8616e-07
3.8949e-07
4.00524e-05
-4.1675e-05
5.76846e-07
-5.92011e-07
5.75055e-07
-5.89609e-07
-5.89928e-07
5.75372e-07
-5.88226e-07
-4.00919e-05
4.17077e-05
-3.71886e-07
-3.69092e-07
-3.7028e-07
4.16959e-05
4.00586e-05
-4.16705e-05
3.83971e-07
3.89526e-07
3.86069e-07
3.88967e-07
4.00515e-05
-4.16752e-05
5.75888e-07
-5.90805e-07
5.75109e-07
-5.89682e-07
-5.88721e-07
5.75245e-07
-5.88727e-07
-4.00906e-05
4.17076e-05
-3.7037e-07
-3.69234e-07
-3.70735e-07
4.16954e-05
4.00588e-05
-4.16716e-05
3.84002e-07
3.89366e-07
3.85231e-07
3.89048e-07
4.00514e-05
-4.16758e-05
5.75919e-07
-5.9105e-07
5.74746e-07
-5.89782e-07
-5.8906e-07
5.75028e-07
-5.88065e-07
-4.00909e-05
4.17076e-05
-3.70658e-07
-3.68668e-07
-3.69923e-07
4.16964e-05
4.00587e-05
-4.16728e-05
3.83274e-07
3.88285e-07
3.84445e-07
3.90326e-07
4.00513e-05
-4.16745e-05
5.74645e-07
-5.90517e-07
5.74272e-07
-5.90155e-07
-5.88127e-07
5.76183e-07
-5.89082e-07
-4.00906e-05
4.17071e-05
-3.69596e-07
-3.69219e-07
-3.73374e-07
4.16944e-05
4.00578e-05
-4.16787e-05
3.84223e-07
3.92359e-07
3.86659e-07
3.94219e-07
4.00535e-05
-4.1671e-05
5.74448e-07
-5.91456e-07
5.77007e-07
-5.90204e-07
-5.90577e-07
5.72808e-07
-5.90386e-07
-4.00917e-05
4.17071e-05
-3.76331e-07
-3.70497e-07
-3.7636e-07
4.1694e-05
4.00612e-05
-4.16772e-05
3.94931e-07
3.90472e-07
3.80559e-07
4.03655e-07
4.0052e-05
-4.16635e-05
5.79074e-07
-5.90804e-07
5.73831e-07
-5.89308e-07
-5.89385e-07
5.84369e-07
-5.86885e-07
-4.00916e-05
4.17081e-05
-3.72596e-07
-3.68773e-07
-3.69656e-07
4.16977e-05
4.0064e-05
-4.16713e-05
3.90358e-07
4.04757e-07
3.83891e-07
3.90862e-07
4.0069e-05
-4.1675e-05
5.77777e-07
-5.9111e-07
5.77768e-07
-5.90676e-07
-5.87599e-07
5.77984e-07
-5.87951e-07
-4.00909e-05
4.17068e-05
-3.70283e-07
-3.69923e-07
-3.70912e-07
4.16962e-05
4.00667e-05
-4.16722e-05
3.91029e-07
3.92225e-07
3.83295e-07
3.89022e-07
4.00521e-05
-4.16763e-05
5.79562e-07
-5.91793e-07
5.77562e-07
-5.90395e-07
-5.88694e-07
5.771e-07
-5.88737e-07
-4.00918e-05
4.17074e-05
-3.70593e-07
-3.69614e-07
-3.71075e-07
4.16959e-05
4.00654e-05
-4.16744e-05
3.88342e-07
3.90946e-07
3.81558e-07
3.89281e-07
4.00517e-05
-4.16759e-05
5.78353e-07
-5.91748e-07
5.76578e-07
-5.90495e-07
-5.89247e-07
5.77294e-07
-5.89049e-07
-4.00912e-05
4.17073e-05
-3.70558e-07
-3.69911e-07
-3.71662e-07
4.16955e-05
4.0063e-05
-4.16757e-05
3.86956e-07
3.89859e-07
3.80323e-07
3.87751e-07
4.00514e-05
-4.16775e-05
5.77468e-07
-5.91754e-07
5.7608e-07
-5.89719e-07
-5.89385e-07
5.76139e-07
-5.87966e-07
-4.00912e-05
4.17082e-05
-3.70506e-07
-3.68605e-07
-3.70478e-07
4.16966e-05
4.00619e-05
-4.1676e-05
3.86041e-07
3.88578e-07
3.8026e-07
3.87675e-07
4.005e-05
-4.16774e-05
5.77045e-07
-5.91059e-07
5.75849e-07
-5.89929e-07
-5.88309e-07
5.76249e-07
-5.88267e-07
-4.00904e-05
4.17078e-05
-3.68887e-07
-3.68773e-07
-3.70883e-07
4.16963e-05
4.00617e-05
-4.16758e-05
3.86084e-07
3.88662e-07
3.80284e-07
3.87517e-07
4.00501e-05
-4.16774e-05
5.76886e-07
-5.91351e-07
5.75729e-07
-5.90055e-07
-5.88778e-07
5.76282e-07
-5.88325e-07
-4.00907e-05
4.17078e-05
-3.69274e-07
-3.6885e-07
-3.70746e-07
4.16963e-05
4.00619e-05
-4.1675e-05
3.86004e-07
3.88446e-07
3.81135e-07
3.88249e-07
4.00501e-05
-4.16766e-05
5.76762e-07
-5.91297e-07
5.76488e-07
-5.90433e-07
-5.88673e-07
5.76867e-07
-5.88395e-07
-4.00907e-05
4.17072e-05
-3.69085e-07
-3.69315e-07
-3.70476e-07
4.16962e-05
4.00629e-05
-4.16741e-05
3.87348e-07
3.89633e-07
3.82467e-07
3.89426e-07
4.0051e-05
-4.1676e-05
5.77858e-07
-5.91955e-07
5.77248e-07
-5.9115e-07
-5.89089e-07
5.77499e-07
-5.88969e-07
-4.00914e-05
4.17065e-05
-3.69767e-07
-3.7058e-07
-3.71663e-07
4.16952e-05
4.00635e-05
-4.16747e-05
3.87996e-07
3.90295e-07
3.8186e-07
3.88805e-07
4.00515e-05
-4.16764e-05
5.78165e-07
-5.92342e-07
5.76925e-07
-5.90619e-07
-5.89409e-07
5.77177e-07
-5.88515e-07
-4.0092e-05
4.17071e-05
-3.708e-07
-3.69603e-07
-3.70412e-07
4.16959e-05
4.0063e-05
-4.1674e-05
3.87446e-07
3.89772e-07
3.82204e-07
3.89159e-07
4.00511e-05
-4.16756e-05
5.77921e-07
-5.91897e-07
5.77272e-07
-5.91137e-07
-5.89018e-07
5.77594e-07
-5.89521e-07
-4.00914e-05
4.17065e-05
-3.70298e-07
-3.70435e-07
-3.72014e-07
4.16946e-05
4.00634e-05
-4.16756e-05
3.87709e-07
3.90171e-07
3.8091e-07
3.88327e-07
4.00515e-05
-4.1677e-05
5.77973e-07
-5.92466e-07
5.76049e-07
-5.90597e-07
-5.90003e-07
5.76412e-07
-5.88769e-07
-4.00921e-05
4.17072e-05
-3.72011e-07
-3.69366e-07
-3.70885e-07
4.16955e-05
4.00618e-05
-4.16764e-05
3.86198e-07
3.88333e-07
3.79654e-07
3.8588e-07
4.00499e-05
-4.16797e-05
5.76757e-07
-5.91844e-07
5.75149e-07
-5.90864e-07
-5.89342e-07
5.73742e-07
-5.89349e-07
-4.00911e-05
4.17071e-05
-3.70978e-07
-3.6912e-07
-3.70793e-07
4.16952e-05
4.00607e-05
-4.16775e-05
3.84722e-07
3.85511e-07
3.77507e-07
3.72403e-07
4.00459e-05
-4.16969e-05
5.75842e-07
-5.92209e-07
5.73925e-07
-5.90772e-07
-5.90132e-07
5.64714e-07
-5.90733e-07
-4.00911e-05
4.17072e-05
-3.71202e-07
-3.69151e-07
-3.71482e-07
4.1694e-05
4.00597e-05
-4.16761e-05
3.8309e-07
3.76242e-07
3.79344e-07
3.8739e-07
4.00289e-05
-4.16788e-05
5.74839e-07
-5.92061e-07
5.75101e-07
-5.90693e-07
-5.91088e-07
5.7553e-07
-5.89081e-07
-4.00909e-05
4.17073e-05
-3.71893e-07
-3.68335e-07
-3.71637e-07
4.16955e-05
4.00619e-05
-4.16746e-05
3.85599e-07
3.86439e-07
3.80539e-07
3.90145e-07
4.00481e-05
-4.16779e-05
5.76621e-07
-5.92137e-07
5.76743e-07
-5.9145e-07
-5.89092e-07
5.75108e-07
-5.87156e-07
-4.00912e-05
4.17063e-05
-3.74071e-07
-3.67333e-07
-3.80556e-07
4.1697e-05
4.00632e-05
-4.16741e-05
3.86094e-07
3.92168e-07
3.80243e-07
3.91619e-07
4.00496e-05
-4.16781e-05
5.78073e-07
-5.92968e-07
5.77542e-07
-5.91922e-07
-5.87201e-07
5.74674e-07
-5.86045e-07
-4.00922e-05
4.1706e-05
-3.8271e-07
-3.66703e-07
-3.81664e-07
4.16976e-05
4.00637e-05
-4.16736e-05
3.85766e-07
3.92632e-07
3.80436e-07
3.92994e-07
4.00494e-05
-4.1677e-05
5.78472e-07
-5.93256e-07
5.77969e-07
-5.92471e-07
-5.86744e-07
5.75452e-07
-5.85997e-07
-4.00925e-05
4.17054e-05
-3.83551e-07
-3.67154e-07
-3.82751e-07
4.16975e-05
4.00641e-05
-4.16743e-05
3.86095e-07
3.94094e-07
3.79558e-07
3.92588e-07
4.00504e-05
-4.16779e-05
5.78983e-07
-5.9388e-07
5.7743e-07
-5.92359e-07
-5.86372e-07
5.74468e-07
-5.85172e-07
-4.00931e-05
4.17056e-05
-3.84066e-07
-3.66409e-07
-3.81939e-07
4.16982e-05
4.00633e-05
-4.16738e-05
3.85295e-07
3.93322e-07
3.79653e-07
3.92348e-07
4.00494e-05
-4.16782e-05
5.78527e-07
-5.93378e-07
5.77998e-07
-5.91823e-07
-5.85563e-07
5.74168e-07
-5.84664e-07
-4.00927e-05
4.17064e-05
-3.83225e-07
-3.65763e-07
-3.81415e-07
4.16986e-05
4.00637e-05
-4.16752e-05
3.85023e-07
3.93202e-07
3.78378e-07
3.91383e-07
4.00492e-05
-4.16789e-05
5.78671e-07
-5.9304e-07
5.76885e-07
-5.91178e-07
-5.85316e-07
5.73559e-07
-5.84278e-07
-4.00921e-05
4.17071e-05
-3.8303e-07
-3.64864e-07
-3.80677e-07
4.16994e-05
4.00623e-05
-4.16753e-05
3.83666e-07
3.91809e-07
3.78076e-07
3.91242e-07
4.00483e-05
-4.16789e-05
5.77615e-07
-5.9219e-07
5.76607e-07
-5.91186e-07
-5.84348e-07
5.73564e-07
-5.8368e-07
-4.00912e-05
4.1707e-05
-3.81458e-07
-3.6481e-07
-3.80402e-07
4.16998e-05
4.00625e-05
-4.16743e-05
3.84418e-07
3.92726e-07
3.79135e-07
3.92164e-07
4.00487e-05
-4.16783e-05
5.78053e-07
-5.92817e-07
5.77493e-07
-5.91656e-07
-5.84664e-07
5.74025e-07
-5.84558e-07
-4.00917e-05
4.17064e-05
-3.82242e-07
-3.65432e-07
-3.81071e-07
4.16988e-05
4.00632e-05
-4.16744e-05
3.84642e-07
3.92905e-07
3.7908e-07
3.92108e-07
4.00489e-05
-4.16785e-05
5.78427e-07
-5.9288e-07
5.77354e-07
-5.91723e-07
-5.85112e-07
5.7394e-07
-5.84562e-07
-4.0092e-05
4.17065e-05
-3.82372e-07
-3.65437e-07
-3.81242e-07
4.16989e-05
4.00633e-05
-4.16734e-05
3.85011e-07
3.93209e-07
3.80092e-07
3.93153e-07
4.00491e-05
-4.16773e-05
5.78762e-07
-5.9314e-07
5.77891e-07
-5.92731e-07
-5.85216e-07
5.74724e-07
-5.8524e-07
-4.00922e-05
4.1705e-05
-3.82943e-07
-3.66961e-07
-3.82555e-07
4.16979e-05
4.00643e-05
-4.16733e-05
3.85837e-07
3.94276e-07
3.80293e-07
3.93332e-07
4.00501e-05
-4.16774e-05
5.79219e-07
-5.94048e-07
5.77997e-07
-5.9255e-07
-5.85986e-07
5.74875e-07
-5.85458e-07
-4.00934e-05
4.17055e-05
-3.84217e-07
-3.66655e-07
-3.82521e-07
4.16979e-05
4.00643e-05
-4.16735e-05
3.85995e-07
3.94144e-07
3.80157e-07
3.93061e-07
4.00499e-05
-4.16774e-05
5.79391e-07
-5.93657e-07
5.7804e-07
-5.91776e-07
-5.85608e-07
5.74829e-07
-5.84688e-07
-4.0093e-05
4.17061e-05
-3.83508e-07
-3.66528e-07
-3.82393e-07
4.16987e-05
4.0064e-05
-4.16731e-05
3.85806e-07
3.94082e-07
3.79827e-07
3.92706e-07
4.00497e-05
-4.16776e-05
5.7942e-07
-5.92944e-07
5.78368e-07
-5.89467e-07
-5.85048e-07
5.74906e-07
-5.82431e-07
-4.00922e-05
4.17085e-05
-3.83066e-07
-3.62949e-07
-3.79444e-07
4.17007e-05
4.00639e-05
-4.16726e-05
3.85322e-07
3.93661e-07
3.80149e-07
3.93244e-07
4.00492e-05
-4.16764e-05
5.79712e-07
-5.89333e-07
5.79319e-07
-5.84097e-07
-5.81867e-07
5.76314e-07
-5.77396e-07
-4.00882e-05
4.17161e-05
-3.79006e-07
-3.51117e-07
-3.70636e-07
4.17074e-05
4.00645e-05
-4.16732e-05
3.8603e-07
3.94369e-07
3.7975e-07
3.93037e-07
4.005e-05
-4.16772e-05
5.80884e-07
-5.84964e-07
5.78737e-07
-5.86408e-07
-5.77189e-07
5.75906e-07
-5.78237e-07
-4.00812e-05
4.17115e-05
-3.67918e-07
-3.60107e-07
-3.75516e-07
4.17055e-05
4.00639e-05
-4.16741e-05
3.85034e-07
3.93562e-07
3.78991e-07
3.92172e-07
4.00495e-05
-4.16781e-05
5.79703e-07
-5.89111e-07
5.77596e-07
-5.90683e-07
-5.80452e-07
5.74439e-07
-5.83168e-07
-4.00874e-05
4.17073e-05
-3.77275e-07
-3.63387e-07
-3.80763e-07
4.17001e-05
4.00636e-05
-4.16736e-05
3.84881e-07
3.93246e-07
3.79899e-07
3.9282e-07
4.00492e-05
-4.16778e-05
5.78942e-07
-5.9218e-07
5.77713e-07
-5.91805e-07
-5.83863e-07
5.74433e-07
-5.84551e-07
-4.00912e-05
4.1706e-05
-3.80327e-07
-3.65919e-07
-3.8295e-07
4.16984e-05
4.00641e-05
-4.1674e-05
3.85699e-07
3.93656e-07
3.79649e-07
3.92659e-07
4.00495e-05
-4.16779e-05
5.79117e-07
-5.93275e-07
5.77443e-07
-5.91949e-07
-5.85267e-07
5.74375e-07
-5.85296e-07
-4.00926e-05
4.1706e-05
-3.82469e-07
-3.66061e-07
-3.8261e-07
4.16979e-05
4.00637e-05
-4.16732e-05
3.8559e-07
3.93917e-07
3.80378e-07
3.93397e-07
4.00495e-05
-4.16773e-05
5.78973e-07
-5.93557e-07
5.77946e-07
-5.93104e-07
-5.85847e-07
5.74924e-07
-5.85099e-07
-4.00926e-05
4.17047e-05
-3.84189e-07
-3.67051e-07
-3.82728e-07
4.1698e-05
4.00644e-05
-4.16738e-05
3.8607e-07
3.94434e-07
3.79701e-07
3.92998e-07
4.00501e-05
-4.16775e-05
5.79261e-07
-5.94314e-07
5.77489e-07
-5.92018e-07
-5.85735e-07
5.74676e-07
-5.85012e-07
-4.00937e-05
4.1706e-05
-3.84307e-07
-3.66112e-07
-3.82841e-07
4.16982e-05
4.00636e-05
-4.16745e-05
3.85316e-07
3.93469e-07
3.7879e-07
3.91668e-07
4.00495e-05
-4.16787e-05
5.78762e-07
-5.92988e-07
5.77012e-07
-5.91349e-07
-5.85372e-07
5.73677e-07
-5.84077e-07
-4.00921e-05
4.17068e-05
-3.83842e-07
-3.64839e-07
-3.81297e-07
4.16992e-05
4.00631e-05
-4.16747e-05
3.84584e-07
3.92616e-07
3.78824e-07
3.91829e-07
4.00486e-05
-4.16786e-05
5.78394e-07
-5.92616e-07
5.76808e-07
-5.91553e-07
-5.8474e-07
5.73729e-07
-5.8411e-07
-4.00917e-05
4.17065e-05
-3.82862e-07
-3.65309e-07
-3.8156e-07
4.16991e-05
4.00627e-05
-4.16749e-05
3.84279e-07
3.92622e-07
3.78342e-07
3.91447e-07
4.00486e-05
-4.16787e-05
5.78011e-07
-5.92688e-07
5.76613e-07
-5.91095e-07
-5.84459e-07
5.73548e-07
-5.83623e-07
-4.00919e-05
4.17071e-05
-3.82601e-07
-3.64559e-07
-3.80896e-07
4.16996e-05
4.00627e-05
-4.16746e-05
3.84275e-07
3.92405e-07
3.78904e-07
3.91802e-07
4.00485e-05
-4.16785e-05
5.7804e-07
-5.92506e-07
5.76905e-07
-5.91589e-07
-5.84512e-07
5.73826e-07
-5.84079e-07
-4.00914e-05
4.17065e-05
-3.82664e-07
-3.65354e-07
-3.81639e-07
4.16991e-05
4.0063e-05
-4.16738e-05
3.84777e-07
3.92878e-07
3.79415e-07
3.92578e-07
4.00489e-05
-4.16777e-05
5.7845e-07
-5.92869e-07
5.77424e-07
-5.91906e-07
-5.84817e-07
5.74431e-07
-5.84774e-07
-4.00919e-05
4.1706e-05
-3.83018e-07
-3.65856e-07
-3.82429e-07
4.16983e-05
4.00638e-05
-4.16733e-05
3.85457e-07
3.93776e-07
3.80274e-07
3.93237e-07
4.00497e-05
-4.16774e-05
5.78974e-07
-5.9353e-07
5.77942e-07
-5.92511e-07
-5.85629e-07
5.74695e-07
-5.85048e-07
-4.00925e-05
4.17054e-05
-3.84153e-07
-3.6668e-07
-3.82979e-07
4.16981e-05
4.00642e-05
-4.16736e-05
3.85907e-07
3.94089e-07
3.80071e-07
3.93035e-07
4.00499e-05
-4.16775e-05
5.7914e-07
-5.93807e-07
5.77642e-07
-5.92382e-07
-5.85662e-07
5.74566e-07
-5.85069e-07
-4.0093e-05
4.17054e-05
-3.84443e-07
-3.66564e-07
-3.82931e-07
4.16978e-05
4.0064e-05
-4.1674e-05
3.85727e-07
3.94119e-07
3.79836e-07
3.92757e-07
4.00498e-05
-4.16779e-05
5.78973e-07
-5.93983e-07
5.77603e-07
-5.92002e-07
-5.85791e-07
5.74504e-07
-5.85219e-07
-4.0093e-05
4.17059e-05
-3.84509e-07
-3.6628e-07
-3.83002e-07
4.16981e-05
4.00636e-05
-4.16748e-05
3.85389e-07
3.93517e-07
3.78954e-07
3.91823e-07
4.00493e-05
-4.16785e-05
5.78784e-07
-5.93668e-07
5.76743e-07
-5.90934e-07
-5.85324e-07
5.73751e-07
-5.84185e-07
-4.00924e-05
4.17064e-05
-3.83865e-07
-3.65477e-07
-3.81766e-07
4.1699e-05
4.00627e-05
-4.1675e-05
3.84534e-07
3.92573e-07
3.78724e-07
3.91588e-07
4.00488e-05
-4.16788e-05
5.78057e-07
-5.93684e-07
5.76757e-07
-5.89609e-07
-5.85012e-07
5.73669e-07
-5.83871e-07
-4.00919e-05
4.17065e-05
-3.83299e-07
-3.64984e-07
-3.8122e-07
4.16995e-05
4.00626e-05
-4.16751e-05
3.84421e-07
3.92427e-07
3.78507e-07
3.91147e-07
4.00485e-05
-4.1679e-05
5.78087e-07
-5.94572e-07
5.76663e-07
-5.88964e-07
-5.8446e-07
5.73403e-07
-5.84166e-07
-4.00908e-05
4.17049e-05
-3.82699e-07
-3.6518e-07
-3.81528e-07
4.16991e-05
4.00624e-05
-4.16746e-05
3.8408e-07
3.92339e-07
3.78991e-07
3.91959e-07
4.00484e-05
-4.16784e-05
5.77813e-07
-5.94985e-07
5.76907e-07
-5.89577e-07
-5.84519e-07
5.73862e-07
-5.84519e-07
-4.00908e-05
4.17049e-05
-3.82726e-07
-3.65325e-07
-3.81949e-07
4.16986e-05
4.00632e-05
-4.16735e-05
3.84722e-07
3.92592e-07
3.81029e-07
3.94093e-07
4.00489e-05
-4.16774e-05
5.78222e-07
-5.94916e-07
5.78693e-07
-5.92143e-07
-5.84873e-07
5.75532e-07
-5.86297e-07
-4.00909e-05
4.17035e-05
-3.83195e-07
-3.67773e-07
-3.84075e-07
4.16977e-05
4.00632e-05
-4.16621e-05
3.83299e-07
3.91431e-07
3.86461e-07
3.99359e-07
4.00492e-05
-4.16658e-05
5.76728e-07
-5.9328e-07
5.82489e-07
-5.96631e-07
-5.83227e-07
5.78953e-07
-5.90192e-07
-4.00911e-05
4.16913e-05
-3.81731e-07
-3.73046e-07
-3.89739e-07
4.16863e-05
4.00411e-05
-4.15515e-05
3.83619e-07
3.91117e-07
2.84011e-07
2.98303e-07
4.00263e-05
-4.15554e-05
5.75632e-07
-5.90227e-07
5.10155e-07
-5.25018e-07
-5.81958e-07
5.07038e-07
-5.18599e-07
-4.00679e-05
4.15817e-05
-3.81632e-07
-2.71952e-07
-2.86363e-07
4.15755e-05
3.97954e-05
-4.02523e-05
5.78165e-07
5.83044e-07
-2.18737e-07
-2.06656e-07
3.9782e-05
-4.02534e-05
6.75032e-07
-6.90045e-07
2.30913e-07
-2.448e-07
-6.81126e-07
2.28808e-07
-2.41269e-07
-3.98215e-05
4.0284e-05
-5.72543e-07
2.34809e-07
2.30181e-07
4.02757e-05
3.8554e-05
-3.96182e-05
1.2314e-06
1.23663e-06
-1.76799e-06
-1.76035e-06
3.85362e-05
-3.96192e-05
1.13707e-06
-1.14786e-06
-1.14953e-06
1.14496e-06
-1.13959e-06
-1.14387e-06
1.13382e-06
-3.85764e-05
3.96431e-05
-1.22146e-06
1.78447e-06
1.77754e-06
3.96442e-05
3.66211e-05
-3.46335e-05
3.1642e-06
3.18929e-06
-6.3919e-06
-6.38815e-06
3.662e-05
-3.46418e-05
2.67944e-06
-2.68455e-06
-4.64618e-06
4.65656e-06
-2.67218e-06
-4.62927e-06
4.65921e-06