/*--------------------------------*- C++ -*----------------------------------*\
| =========                 |                                                 |
| \\      /  F ield         | OpenFOAM: The Open Source CFD Toolbox           |
|  \\    /   O peration     | Version:  2206                                  |
|   \\  /    A nd           | Website:  www.openfoam.com                      |
|    \\/     M anipulation  |                                                 |
\*---------------------------------------------------------------------------*/
FoamFile
{
    version     2.0;
    format      ascii;
    arch        "LSB;label=32;scalar=64";
    class       volScalarField;
    location    "32";
    object      p;
}
// * * * * * * * * * * * * * * * * * * * * * * * * * * * * * * * * * * * * * //

dimensions      [0 2 -2 0 0 0 0];

internalField   nonuniform List<scalar> 
28688
(
0.00393404
0.00393437
0.00393437
0.00393743
0.00387868
0.00387911
0.0038791
0.0038821
0.00382793
0.00382791
0.00382791
0.00383067
0.00377552
0.00377555
0.00377555
0.00377834
0.0037242
0.0037242
0.0037242
0.00372696
0.00367439
0.00367426
0.00367426
0.00367692
0.00362759
0.00362746
0.00362745
0.00362985
0.00358492
0.00358484
0.00358484
0.00358731
0.00354349
0.00354345
0.00354344
0.0035459
0.00350223
0.00350219
0.00350219
0.00350463
0.00346102
0.00346098
0.00346098
0.00346342
0.00341981
0.00341977
0.00341977
0.00342221
0.00394745
0.00394768
0.00394768
0.00394745
0.00394768
0.00394768
0.00394844
0.00394844
0.00394844
0.00394844
0.00394768
0.00394768
0.00394745
0.00394768
0.00394768
0.00394745
0.00393743
0.00388867
0.00393437
0.00393437
0.00389094
0.00389094
0.00393743
0.00388867
0.00393437
0.00393437
0.00389094
0.00389094
0.00393437
0.00389094
0.00389094
0.00393743
0.00388867
0.00393437
0.00389094
0.00389094
0.00388867
0.0038821
0.00383759
0.00387911
0.00387911
0.00384103
0.00384103
0.0038821
0.00383759
0.00387911
0.00387911
0.00384103
0.00384103
0.00387911
0.00384103
0.00384103
0.0038821
0.00383759
0.0038791
0.00384103
0.00384103
0.00383759
0.00383067
0.00378521
0.00382791
0.00382791
0.00378856
0.00378857
0.00383067
0.00378521
0.00382791
0.00382791
0.00378856
0.00378857
0.00382791
0.00378857
0.00378857
0.00383067
0.00378521
0.00382791
0.00378856
0.00378857
0.00378521
0.00377834
0.00373367
0.00377555
0.00377555
0.00373692
0.00373692
0.00377834
0.00373367
0.00377555
0.00377555
0.00373692
0.00373692
0.00377555
0.00373692
0.00373692
0.00377834
0.00373367
0.00377555
0.00373692
0.00373692
0.00373367
0.00372696
0.00368343
0.0037242
0.0037242
0.00368662
0.00368662
0.00372696
0.00368343
0.0037242
0.0037242
0.00368662
0.00368662
0.0037242
0.00368662
0.00368662
0.00372696
0.00368343
0.0037242
0.00368662
0.00368662
0.00368343
0.00367692
0.00363576
0.00367426
0.00367426
0.00363873
0.00363873
0.00367692
0.00363577
0.00367426
0.00367426
0.00363873
0.00363873
0.00367426
0.00363873
0.00363873
0.00367692
0.00363576
0.00367426
0.00363873
0.00363874
0.00363577
0.00362984
0.00359278
0.00362744
0.00362745
0.00359525
0.00359525
0.00362985
0.00359278
0.00362745
0.00362745
0.00359525
0.00359525
0.00362746
0.00359525
0.00359525
0.00362984
0.00359278
0.00362746
0.00359525
0.00359525
0.00359278
0.00358731
0.00355134
0.00358484
0.00358484
0.00355377
0.00355377
0.00358731
0.00355134
0.00358484
0.00358484
0.00355377
0.00355377
0.00358484
0.00355377
0.00355377
0.00358731
0.00355134
0.00358484
0.00355377
0.00355377
0.00355134
0.0035459
0.00351007
0.00354344
0.00354344
0.0035125
0.0035125
0.0035459
0.00351007
0.00354344
0.00354344
0.0035125
0.0035125
0.00354345
0.0035125
0.0035125
0.0035459
0.00351007
0.00354345
0.0035125
0.0035125
0.00351007
0.00350463
0.00346885
0.00350219
0.00350219
0.00347128
0.00347128
0.00350463
0.00346885
0.00350219
0.00350219
0.00347128
0.00347128
0.00350219
0.00347128
0.00347128
0.00350463
0.00346885
0.00350219
0.00347128
0.00347128
0.00346885
0.00346342
0.00342764
0.00346098
0.00346098
0.00343007
0.00343008
0.00346342
0.00342764
0.00346098
0.00346098
0.00343007
0.00343008
0.00346098
0.00343008
0.00343008
0.00346342
0.00342764
0.00346098
0.00343008
0.00343008
0.00342764
0.00342221
0.00338644
0.00341977
0.00341977
0.00338887
0.00342221
0.00341977
0.00341977
0.00338887
0.00338887
0.00341977
0.00338887
0.00342221
0.00338644
0.00341977
0.00338887
0.00338887
0.00338644
0.00395582
0.00396558
0.00396038
0.00396039
0.00398276
0.00396955
0.00399815
0.00396359
0.00398276
0.00396955
0.0039636
0.00399815
0.00397412
0.00400188
0.00400189
0.00391118
0.00393033
0.00393952
0.00390325
0.00390402
0.00390677
0.00391116
0.00393031
0.00393951
0.00390323
0.00393404
0.00393405
0.00393405
0.00389064
0.00389064
0.00389064
0.00389064
0.00390868
0.00393451
0.00393444
0.00391751
0.00393753
0.00390759
0.00391839
0.00390413
0.00390677
0.00390869
0.00393444
0.00393453
0.00391751
0.00393753
0.00391839
0.00390758
0.00394039
0.00394037
0.00391191
0.00390722
0.00390722
0.00386452
0.00388384
0.0038852
0.00386304
0.00388274
0.00386262
0.00386452
0.00388383
0.0038852
0.00386304
0.00387868
0.00387868
0.00387868
0.0038411
0.0038411
0.0038411
0.0038411
0.00386312
0.00388391
0.00387868
0.00386681
0.0038827
0.00386365
0.00386654
0.00388274
0.00386261
0.00386312
0.00387868
0.00388391
0.00386681
0.00388269
0.00386654
0.00386365
0.00388494
0.00388493
0.00386335
0.00386397
0.00386398
0.0038123
0.00383115
0.0038322
0.00381127
0.00383081
0.00381097
0.0038123
0.00383115
0.0038322
0.00381127
0.00382793
0.00382793
0.00382793
0.00378855
0.00378855
0.00378855
0.00378855
0.0038114
0.00383153
0.00382781
0.00381476
0.00383095
0.00381176
0.00381466
0.00383081
0.00381097
0.0038114
0.00382781
0.00383153
0.00381476
0.00383095
0.00381466
0.00381176
0.00383179
0.00383179
0.00381138
0.00381183
0.00381183
0.00375977
0.00377847
0.0037793
0.00375896
0.00377826
0.00375878
0.00375976
0.00377847
0.0037793
0.00375896
0.00377552
0.00377552
0.00377552
0.00373693
0.00373693
0.00373693
0.00373693
0.00375926
0.00377885
0.0037755
0.00376261
0.00377855
0.00375943
0.00376257
0.00377826
0.00375878
0.00375926
0.0037755
0.00377885
0.00376261
0.00377855
0.00376257
0.00375943
0.0037789
0.0037789
0.0037593
0.00375935
0.00375935
0.0037086
0.00372692
0.00372754
0.00370799
0.00372678
0.00370784
0.0037086
0.00372691
0.00372754
0.00370799
0.0037242
0.0037242
0.0037242
0.00368666
0.00368666
0.00368666
0.00368666
0.00370829
0.00372726
0.00372418
0.00371157
0.00372711
0.0037084
0.00371154
0.00372678
0.00370785
0.00370829
0.00372418
0.00372726
0.00371157
0.00372711
0.00371154
0.0037084
0.00372726
0.00372726
0.00370838
0.00370829
0.00370829
0.00365903
0.00367673
0.00367721
0.00365836
0.00367665
0.00365822
0.00365903
0.00367673
0.00367721
0.00365836
0.00367439
0.00367439
0.00367439
0.00363887
0.00363888
0.00363888
0.00363888
0.00365892
0.00367706
0.00367431
0.00366215
0.00367702
0.00365881
0.00366219
0.00367664
0.00365822
0.00365892
0.00367431
0.00367706
0.00366215
0.00367702
0.0036622
0.00365881
0.00367704
0.00367704
0.00365911
0.00365858
0.00365858
0.00361295
0.00362932
0.00362933
0.00361311
0.00362908
0.003613
0.00361295
0.00362931
0.00362933
0.0036131
0.0036276
0.0036276
0.0036276
0.00359536
0.00359536
0.00359536
0.00359536
0.00361342
0.00362956
0.00362749
0.00361646
0.00362961
0.00361336
0.00361652
0.00362908
0.003613
0.00361342
0.00362749
0.00362957
0.00361645
0.00362961
0.00361652
0.00361337
0.00362935
0.00362935
0.00361379
0.00361318
0.00361318
0.0035718
0.00358711
0.00358715
0.00357172
0.00358715
0.00357176
0.0035718
0.00358711
0.00358716
0.00357172
0.00358492
0.00358492
0.00358492
0.00355383
0.00355383
0.00355383
0.00355383
0.0035719
0.00358721
0.00358486
0.00357447
0.00358725
0.00357183
0.00357449
0.00358715
0.00357176
0.0035719
0.00358486
0.00358721
0.00357447
0.00358725
0.00357449
0.00357183
0.00358726
0.00358725
0.00357204
0.0035718
0.0035718
0.00353056
0.00354597
0.00354601
0.00353056
0.00354598
0.00353056
0.00353056
0.00354597
0.00354601
0.00353056
0.00354349
0.00354349
0.00354349
0.00351254
0.00351254
0.00351254
0.00351254
0.00353062
0.00354596
0.00354346
0.00353312
0.00354597
0.00353059
0.00353314
0.00354598
0.00353056
0.00353062
0.00354346
0.00354596
0.00353312
0.00354597
0.00353314
0.00353059
0.003546
0.003546
0.00353069
0.00353056
0.00353056
0.00348934
0.00350477
0.00350477
0.00348934
0.00350477
0.00348934
0.00348934
0.00350477
0.00350477
0.00348934
0.00350223
0.00350223
0.00350223
0.00347132
0.00347132
0.00347132
0.00347132
0.00348939
0.00350473
0.0035022
0.00349189
0.00350473
0.00348937
0.0034919
0.00350477
0.00348934
0.00348939
0.0035022
0.00350473
0.00349189
0.00350473
0.0034919
0.00348937
0.00350477
0.00350477
0.00348946
0.00348934
0.00348934
0.00344813
0.00346355
0.00346356
0.00344813
0.00346356
0.00344813
0.00344813
0.00346356
0.00346356
0.00344813
0.00346102
0.00346102
0.00346102
0.00343011
0.00343011
0.00343011
0.00343011
0.00344818
0.00346353
0.00346099
0.00345068
0.00346352
0.00344816
0.00345069
0.00346356
0.00344813
0.00344818
0.00346099
0.00346353
0.00345068
0.00346352
0.00345069
0.00344816
0.00346356
0.00346356
0.00344825
0.00344813
0.00344813
0.00340693
0.00342235
0.00342235
0.00340693
0.00342235
0.00340693
0.00340693
0.00342235
0.00342235
0.00340693
0.00341981
0.00341981
0.00341981
0.00338891
0.00338891
0.00338891
0.00338891
0.00340698
0.00342232
0.00341978
0.00340947
0.00342231
0.00340696
0.00340948
0.00342235
0.00340693
0.00340698
0.00341978
0.00342232
0.00340947
0.00342231
0.00340948
0.00340696
0.00342236
0.00342236
0.00340704
0.00340692
0.00340692
0.00397411
0.00400187
0.00400189
0.00396625
0.00400142
0.00396622
0.00400144
0.00397097
0.00395804
0.00395805
0.0039967
0.00399671
0.00398275
0.00396955
0.00399814
0.00396359
0.00398275
0.00396955
0.00399814
0.00396359
0.00398727
0.00395832
0.00399855
0.00395313
0.00398727
0.0039583
0.00399855
0.00395314
0.00397835
0.00396707
0.00394951
0.0039499
0.00399342
0.00396203
0.00395012
0.00397836
0.00396707
0.00394951
0.0039499
0.00399342
0.00396203
0.00395013
0.00397411
0.00400188
0.00400189
0.00396622
0.00400142
0.00397097
0.00395803
0.00395805
0.0039967
0.00399671
0.00396625
0.00400142
0.00398276
0.00396955
0.00399815
0.0039636
0.00398276
0.00396955
0.0039636
0.00399815
0.00398729
0.00395831
0.00399857
0.00395314
0.00397837
0.00396707
0.00394951
0.0039499
0.00399343
0.00396204
0.00395014
0.00398729
0.00395833
0.00399856
0.00395313
0.00397837
0.00396708
0.0039499
0.00394951
0.00396204
0.00399343
0.00395013
0.00395582
0.00396558
0.00396038
0.00396039
0.00395582
0.00396559
0.00396039
0.00396039
0.00395582
0.00396559
0.00396039
0.00396039
0.00395459
0.00396367
0.00394655
0.00394656
0.00395895
0.00395895
0.00394473
0.00395459
0.00396367
0.00394655
0.00394656
0.00395895
0.00395895
0.00394473
0.00395459
0.00396367
0.00394656
0.00394656
0.00395895
0.00395895
0.00394473
0.00395459
0.00396367
0.00394656
0.00394656
0.00395895
0.00395895
0.00394473
0.00398276
0.00396955
0.0039636
0.00399814
0.00397837
0.00396707
0.0039495
0.0039499
0.00399343
0.00396203
0.00395013
0.00398729
0.00395832
0.00399856
0.00395314
0.00397837
0.00396708
0.0039499
0.00394951
0.00396204
0.00399343
0.00395013
0.00398729
0.00395831
0.00399856
0.00395313
0.00397412
0.00400189
0.00400189
0.0039662
0.00400142
0.00397097
0.00395804
0.00395804
0.00399671
0.00399671
0.00396619
0.00400143
0.00398276
0.00396955
0.0039636
0.00399815
0.00397837
0.00396708
0.0039499
0.00394951
0.00396204
0.00399343
0.00395013
0.00397837
0.00396708
0.0039499
0.00394951
0.00396204
0.00399343
0.00395014
0.00398729
0.00395832
0.00399857
0.00395313
0.00398729
0.00395833
0.00399857
0.00395314
0.00397097
0.00395804
0.00395805
0.00399671
0.00399671
0.0039662
0.00400142
0.00396623
0.00400143
0.00390402
0.00390676
0.00390412
0.00390674
0.00394035
0.00394038
0.00391192
0.00390722
0.00390722
0.00388951
0.00390642
0.00388951
0.00390643
0.00390526
0.00389213
0.00389213
0.00390537
0.00390537
0.00391118
0.00393031
0.00393953
0.00390325
0.00390871
0.00393451
0.00393444
0.0039175
0.00393753
0.00390759
0.00391839
0.0039087
0.00393451
0.00393444
0.0039175
0.00393753
0.0039076
0.00391839
0.00390664
0.00389126
0.00390416
0.00389199
0.00390664
0.00389126
0.00390416
0.00389199
0.00390368
0.0039032
0.00389094
0.00389068
0.00390475
0.00390361
0.00388927
0.00390367
0.0039032
0.00389094
0.00389068
0.00390476
0.00390361
0.00388927
0.00394034
0.00394039
0.00391193
0.00390722
0.00390722
0.00390417
0.00390675
0.00388951
0.00390642
0.00390526
0.00389213
0.00389213
0.00390537
0.00390537
0.0038895
0.00390643
0.00390868
0.00393452
0.00393444
0.00391751
0.00393754
0.00390759
0.00391839
0.00391117
0.00393032
0.00393951
0.00390325
0.00390869
0.00393444
0.00393452
0.0039175
0.00393753
0.00391839
0.00390759
0.00390663
0.00389126
0.00390416
0.00389199
0.00390366
0.0039032
0.00389093
0.00389068
0.00390475
0.00390361
0.00388927
0.00390663
0.00389125
0.00390417
0.00389199
0.00390367
0.0039032
0.00389068
0.00389093
0.00390361
0.00390475
0.00388927
0.00391116
0.00393032
0.00393951
0.00390324
0.00390869
0.00393444
0.00393452
0.0039175
0.00393753
0.00391839
0.00390759
0.00391117
0.00393033
0.0039395
0.00390324
0.00390366
0.0039032
0.00389093
0.00389068
0.00390474
0.00390361
0.00388928
0.00390663
0.00389126
0.00390416
0.00389199
0.00390367
0.0039032
0.00389068
0.00389093
0.00390361
0.00390474
0.00388927
0.00390663
0.00389126
0.00390415
0.00389199
0.00394038
0.00394039
0.00391191
0.00390722
0.00390721
0.00390413
0.00390674
0.00388951
0.00390644
0.00390526
0.00389213
0.00389213
0.00390538
0.00390536
0.00388951
0.0039064
0.00390868
0.00393444
0.00393452
0.00391751
0.00393753
0.00391839
0.00390758
0.00391116
0.00393033
0.0039395
0.00390323
0.00391116
0.00393032
0.00393951
0.00390324
0.00390367
0.0039032
0.00389067
0.00389093
0.00390361
0.00390474
0.00388927
0.00390366
0.0039032
0.00389067
0.00389093
0.00390361
0.00390475
0.00388927
0.00390663
0.00389126
0.00390416
0.00389199
0.00390663
0.00389125
0.00390416
0.00389199
0.00390415
0.00390675
0.00390415
0.00390675
0.00390526
0.00389213
0.00389213
0.00390537
0.00390537
0.00388952
0.0039064
0.0038895
0.00390642
0.00388275
0.00386262
0.00388274
0.00386262
0.00388493
0.00388493
0.00386335
0.00386398
0.00386397
0.00383729
0.00385617
0.00383729
0.00385617
0.00385656
0.00383835
0.00383835
0.00385751
0.00385751
0.00386452
0.00388384
0.0038852
0.00386304
0.00386312
0.00388391
0.00387868
0.00386681
0.0038827
0.00386365
0.00386654
0.00386312
0.00388391
0.00387868
0.00386681
0.0038827
0.00386365
0.00386654
0.003858
0.00383769
0.00385666
0.00383877
0.003858
0.00383769
0.00385666
0.00383877
0.00385658
0.00385405
0.00383815
0.00384094
0.0038572
0.00385392
0.00383761
0.00385658
0.00385405
0.00383815
0.00384094
0.0038572
0.00385392
0.00383761
0.00388493
0.00388494
0.00386336
0.00386398
0.00386398
0.00388275
0.00386263
0.00383729
0.00385617
0.00385656
0.00383835
0.00383835
0.00385751
0.00385751
0.00383729
0.00385617
0.00386312
0.00388391
0.00387868
0.00386681
0.0038827
0.00386365
0.00386654
0.00386452
0.00388383
0.00388519
0.00386304
0.00386312
0.00387868
0.0038839
0.00386681
0.00388269
0.00386654
0.00386365
0.00385799
0.00383769
0.00385666
0.00383877
0.00385658
0.00385405
0.00383815
0.00384094
0.0038572
0.00385392
0.00383761
0.003858
0.00383769
0.00385666
0.00383877
0.00385658
0.00385405
0.00384094
0.00383815
0.00385392
0.0038572
0.00383761
0.00386452
0.00388384
0.0038852
0.00386304
0.00386312
0.00387868
0.00388391
0.00386681
0.0038827
0.00386654
0.00386365
0.00386452
0.00388384
0.0038852
0.00386304
0.00385658
0.00385405
0.00383815
0.00384094
0.0038572
0.00385392
0.00383761
0.003858
0.00383769
0.00385666
0.00383877
0.00385658
0.00385405
0.00384094
0.00383815
0.00385392
0.0038572
0.00383761
0.003858
0.00383769
0.00385666
0.00383877
0.00388493
0.00388494
0.00386335
0.00386397
0.00386398
0.00388274
0.00386262
0.00383729
0.00385617
0.00385655
0.00383835
0.00383835
0.00385751
0.00385751
0.00383729
0.00385617
0.00386312
0.00387868
0.0038839
0.00386681
0.00388269
0.00386654
0.00386365
0.00386453
0.00388383
0.00388519
0.00386304
0.00386453
0.00388383
0.00388519
0.00386304
0.00385658
0.00385405
0.00384094
0.00383815
0.00385392
0.0038572
0.00383761
0.00385658
0.00385405
0.00384094
0.00383815
0.00385392
0.0038572
0.00383761
0.003858
0.00383769
0.00385666
0.00383877
0.003858
0.00383769
0.00385666
0.00383877
0.00388274
0.00386262
0.00388273
0.00386262
0.00385656
0.00383835
0.00383835
0.00385751
0.00385751
0.00383729
0.00385617
0.00383729
0.00385617
0.00383081
0.00381097
0.00383081
0.00381097
0.00383179
0.00383179
0.00381138
0.00381183
0.00381183
0.00378474
0.00380431
0.00378474
0.00380431
0.00380441
0.00378541
0.00378541
0.00380511
0.00380511
0.0038123
0.00383115
0.0038322
0.00381127
0.0038114
0.00383153
0.00382781
0.00381476
0.00383095
0.00381176
0.00381466
0.0038114
0.00383153
0.00382781
0.00381476
0.00383095
0.00381176
0.00381466
0.00380558
0.00378496
0.00380457
0.00378585
0.00380558
0.00378496
0.00380457
0.00378585
0.00380465
0.00380164
0.00378544
0.00378851
0.00380501
0.00380156
0.00378517
0.00380465
0.00380164
0.00378544
0.00378851
0.00380501
0.00380156
0.00378517
0.00383179
0.00383179
0.00381138
0.00381183
0.00381183
0.00383081
0.00381097
0.00378474
0.00380431
0.00380441
0.00378541
0.00378541
0.00380511
0.00380511
0.00378474
0.00380431
0.0038114
0.00383153
0.00382781
0.00381476
0.00383095
0.00381176
0.00381466
0.0038123
0.00383115
0.0038322
0.00381127
0.0038114
0.00382781
0.00383153
0.00381476
0.00383095
0.00381466
0.00381176
0.00380558
0.00378496
0.00380457
0.00378585
0.00380465
0.00380164
0.00378544
0.00378851
0.00380501
0.00380156
0.00378517
0.00380558
0.00378496
0.00380457
0.00378585
0.00380465
0.00380164
0.00378851
0.00378544
0.00380156
0.00380501
0.00378517
0.0038123
0.00383115
0.0038322
0.00381127
0.0038114
0.00382781
0.00383153
0.00381476
0.00383095
0.00381466
0.00381176
0.0038123
0.00383115
0.0038322
0.00381127
0.00380465
0.00380164
0.00378544
0.00378851
0.00380501
0.00380156
0.00378517
0.00380558
0.00378496
0.00380457
0.00378585
0.00380465
0.00380164
0.00378851
0.00378544
0.00380156
0.00380501
0.00378517
0.00380558
0.00378496
0.00380457
0.00378585
0.00383179
0.00383179
0.00381138
0.00381183
0.00381183
0.00383081
0.00381097
0.00378474
0.00380431
0.00380441
0.00378541
0.00378541
0.00380511
0.00380511
0.00378474
0.00380431
0.0038114
0.00382781
0.00383153
0.00381476
0.00383095
0.00381466
0.00381176
0.0038123
0.00383115
0.0038322
0.00381127
0.0038123
0.00383115
0.0038322
0.00381127
0.00380465
0.00380164
0.00378851
0.00378544
0.00380156
0.00380501
0.00378517
0.00380465
0.00380164
0.00378851
0.00378544
0.00380156
0.00380501
0.00378517
0.00380558
0.00378496
0.00380457
0.00378585
0.00380558
0.00378496
0.00380457
0.00378585
0.00383081
0.00381097
0.00383081
0.00381097
0.00380441
0.00378541
0.00378541
0.00380511
0.00380511
0.00378474
0.00380431
0.00378474
0.00380431
0.00377826
0.00375878
0.00377826
0.00375878
0.0037789
0.0037789
0.0037593
0.00375935
0.00375935
0.00373321
0.00375226
0.00373321
0.00375226
0.00375248
0.0037337
0.0037337
0.00375281
0.00375281
0.00375977
0.00377847
0.0037793
0.00375896
0.00375926
0.00377885
0.0037755
0.00376261
0.00377855
0.00375943
0.00376257
0.00375926
0.00377885
0.0037755
0.00376261
0.00377855
0.00375943
0.00376257
0.00375322
0.00373336
0.00375243
0.00373397
0.00375322
0.00373337
0.00375243
0.00373397
0.00375264
0.00374974
0.00373376
0.0037369
0.00375283
0.00374971
0.00373361
0.00375264
0.00374974
0.00373377
0.0037369
0.00375283
0.00374971
0.00373361
0.0037789
0.0037789
0.0037593
0.00375935
0.00375935
0.00377826
0.00375878
0.00373321
0.00375226
0.00375248
0.0037337
0.0037337
0.00375281
0.00375281
0.00373321
0.00375226
0.00375926
0.00377885
0.0037755
0.00376261
0.00377855
0.00375943
0.00376257
0.00375976
0.00377847
0.0037793
0.00375896
0.00375926
0.0037755
0.00377885
0.00376261
0.00377855
0.00376257
0.00375943
0.00375321
0.00373336
0.00375243
0.00373397
0.00375264
0.00374974
0.00373376
0.0037369
0.00375283
0.00374971
0.00373361
0.00375321
0.00373336
0.00375243
0.00373397
0.00375264
0.00374974
0.0037369
0.00373376
0.00374971
0.00375283
0.00373361
0.00375977
0.00377847
0.0037793
0.00375896
0.00375926
0.0037755
0.00377885
0.00376261
0.00377855
0.00376257
0.00375943
0.00375977
0.00377847
0.0037793
0.00375896
0.00375264
0.00374974
0.00373376
0.0037369
0.00375283
0.00374971
0.00373361
0.00375321
0.00373336
0.00375243
0.00373397
0.00375264
0.00374974
0.0037369
0.00373376
0.00374971
0.00375283
0.00373361
0.00375321
0.00373336
0.00375243
0.00373397
0.0037789
0.0037789
0.0037593
0.00375935
0.00375935
0.00377826
0.00375878
0.00373321
0.00375226
0.00375248
0.0037337
0.0037337
0.00375281
0.00375281
0.00373321
0.00375226
0.00375926
0.0037755
0.00377885
0.00376261
0.00377855
0.00376257
0.00375943
0.00375976
0.00377847
0.0037793
0.00375896
0.00375976
0.00377847
0.0037793
0.00375896
0.00375264
0.00374974
0.0037369
0.00373376
0.00374971
0.00375283
0.00373361
0.00375264
0.00374974
0.0037369
0.00373376
0.00374971
0.00375283
0.00373361
0.00375321
0.00373336
0.00375243
0.00373397
0.00375321
0.00373336
0.00375243
0.00373397
0.00377826
0.00375878
0.00377826
0.00375878
0.00375248
0.0037337
0.0037337
0.00375281
0.00375281
0.00373321
0.00375226
0.00373321
0.00375226
0.00372678
0.00370785
0.00372677
0.00370785
0.00372726
0.00372726
0.00370838
0.00370829
0.00370829
0.0036829
0.00370158
0.00368289
0.00370158
0.00370178
0.00368329
0.00368329
0.00370202
0.00370202
0.0037086
0.00372692
0.00372754
0.00370799
0.00370829
0.00372726
0.00372418
0.00371157
0.00372711
0.0037084
0.00371154
0.00370829
0.00372727
0.00372418
0.00371157
0.00372711
0.0037084
0.00371154
0.00370227
0.003683
0.00370173
0.0036834
0.00370227
0.003683
0.00370173
0.0036834
0.0037019
0.00369906
0.00368336
0.00368663
0.00370205
0.00369903
0.00368331
0.0037019
0.00369906
0.00368336
0.00368663
0.00370205
0.00369903
0.00368331
0.00372726
0.00372726
0.00370838
0.00370829
0.00370829
0.00372678
0.00370785
0.0036829
0.00370158
0.00370178
0.0036833
0.00368329
0.00370202
0.00370202
0.00368289
0.00370158
0.00370829
0.00372726
0.00372418
0.00371157
0.00372711
0.0037084
0.00371154
0.0037086
0.00372692
0.00372754
0.00370799
0.00370829
0.00372418
0.00372726
0.00371157
0.00372711
0.00371154
0.0037084
0.00370227
0.003683
0.00370173
0.0036834
0.0037019
0.00369906
0.00368336
0.00368663
0.00370205
0.00369903
0.00368331
0.00370227
0.003683
0.00370173
0.0036834
0.0037019
0.00369906
0.00368663
0.00368336
0.00369903
0.00370205
0.00368331
0.0037086
0.00372692
0.00372754
0.00370799
0.00370829
0.00372418
0.00372726
0.00371157
0.00372711
0.00371154
0.0037084
0.0037086
0.00372692
0.00372754
0.00370799
0.0037019
0.00369906
0.00368336
0.00368663
0.00370205
0.00369903
0.00368331
0.00370227
0.003683
0.00370173
0.0036834
0.0037019
0.00369906
0.00368663
0.00368336
0.00369903
0.00370205
0.00368331
0.00370227
0.003683
0.00370173
0.0036834
0.00372726
0.00372726
0.00370838
0.00370829
0.00370829
0.00372677
0.00370785
0.00368289
0.00370158
0.00370178
0.00368329
0.00368329
0.00370202
0.00370202
0.0036829
0.00370158
0.00370829
0.00372418
0.00372726
0.00371157
0.00372711
0.00371154
0.0037084
0.0037086
0.00372692
0.00372754
0.00370799
0.0037086
0.00372692
0.00372754
0.00370799
0.0037019
0.00369906
0.00368663
0.00368336
0.00369903
0.00370205
0.00368331
0.0037019
0.00369906
0.00368663
0.00368336
0.00369903
0.00370205
0.00368331
0.00370227
0.003683
0.00370173
0.0036834
0.00370227
0.003683
0.00370173
0.0036834
0.00372677
0.00370785
0.00372677
0.00370785
0.00370178
0.00368329
0.00368329
0.00370202
0.00370202
0.00368289
0.00370158
0.00368289
0.00370158
0.00367664
0.00365822
0.00367664
0.00365822
0.00367704
0.00367704
0.00365911
0.00365858
0.00365858
0.0036347
0.00365218
0.0036347
0.00365218
0.00365283
0.00363502
0.00363502
0.00365253
0.00365253
0.00365903
0.00367674
0.00367721
0.00365836
0.00365892
0.00367706
0.0036743
0.00366214
0.00367702
0.00365881
0.00366219
0.00365892
0.00367706
0.0036743
0.00366214
0.00367702
0.00365881
0.00366219
0.00365298
0.00363496
0.00365233
0.00363513
0.00365298
0.00363496
0.00365233
0.00363513
0.00365281
0.00365032
0.0036353
0.00363878
0.00365273
0.00365036
0.00363536
0.00365281
0.00365032
0.0036353
0.00363878
0.00365273
0.00365036
0.00363536
0.00367704
0.00367704
0.00365911
0.00365858
0.00365858
0.00367664
0.00365822
0.0036347
0.00365217
0.00365283
0.00363502
0.00363501
0.00365253
0.00365253
0.0036347
0.00365217
0.00365892
0.00367706
0.0036743
0.00366214
0.00367702
0.00365881
0.00366219
0.00365903
0.00367673
0.00367721
0.00365836
0.00365892
0.0036743
0.00367706
0.00366214
0.00367702
0.00366219
0.00365881
0.00365298
0.00363496
0.00365233
0.00363513
0.00365281
0.00365033
0.0036353
0.00363878
0.00365273
0.00365036
0.00363536
0.00365298
0.00363496
0.00365233
0.00363512
0.00365281
0.00365032
0.00363878
0.0036353
0.00365036
0.00365273
0.00363536
0.00365903
0.00367673
0.00367721
0.00365836
0.00365892
0.0036743
0.00367706
0.00366214
0.00367702
0.00366219
0.00365881
0.00365903
0.00367673
0.00367721
0.00365836
0.00365281
0.00365033
0.0036353
0.00363878
0.00365273
0.00365036
0.00363536
0.00365298
0.00363496
0.00365233
0.00363512
0.00365281
0.00365033
0.00363878
0.00363529
0.00365036
0.00365273
0.00363536
0.00365298
0.00363495
0.00365233
0.00363512
0.00367704
0.00367704
0.00365911
0.00365858
0.00365858
0.00367664
0.00365822
0.0036347
0.00365217
0.00365283
0.00363502
0.00363502
0.00365253
0.00365253
0.0036347
0.00365217
0.00365892
0.00367431
0.00367706
0.00366215
0.00367702
0.0036622
0.00365881
0.00365903
0.00367673
0.00367721
0.00365836
0.00365903
0.00367673
0.00367721
0.00365836
0.00365282
0.00365035
0.00363878
0.0036353
0.00365037
0.00365273
0.00363536
0.00365282
0.00365035
0.00363878
0.00363529
0.00365037
0.00365273
0.00363536
0.00365298
0.00363496
0.00365233
0.00363513
0.00365298
0.00363495
0.00365233
0.00363512
0.00367664
0.00365822
0.00367664
0.00365822
0.00365282
0.00363501
0.00363501
0.00365253
0.00365253
0.00363469
0.00365217
0.00363469
0.00365217
0.00362909
0.00361301
0.00362908
0.003613
0.00362937
0.00362936
0.00361379
0.00361319
0.00361319
0.00359232
0.00360776
0.00359232
0.00360776
0.0036082
0.00359244
0.00359244
0.00360795
0.00360794
0.00361295
0.00362931
0.00362933
0.0036131
0.00361342
0.00362958
0.00362749
0.00361645
0.00362961
0.00361337
0.00361652
0.00361342
0.00362957
0.00362749
0.00361645
0.00362961
0.00361337
0.00361652
0.00360769
0.00359229
0.00360783
0.00359229
0.00360769
0.00359229
0.00360782
0.00359229
0.00360802
0.00360576
0.00359248
0.00359529
0.00360801
0.00360581
0.00359254
0.00360802
0.00360576
0.00359248
0.00359529
0.00360801
0.00360581
0.00359254
0.00362936
0.00362935
0.00361379
0.00361319
0.00361318
0.00362908
0.003613
0.00359232
0.00360776
0.0036082
0.00359244
0.00359244
0.00360794
0.00360794
0.00359232
0.00360776
0.00361342
0.00362957
0.00362749
0.00361645
0.00362961
0.00361337
0.00361652
0.00361295
0.00362931
0.00362933
0.0036131
0.00361342
0.00362749
0.00362957
0.00361645
0.00362961
0.00361652
0.00361337
0.00360769
0.00359229
0.00360782
0.00359229
0.00360802
0.00360576
0.00359248
0.00359529
0.00360801
0.00360581
0.00359254
0.00360769
0.00359229
0.00360782
0.00359229
0.00360802
0.00360576
0.00359529
0.00359248
0.00360581
0.00360801
0.00359254
0.00361295
0.00362931
0.00362933
0.0036131
0.00361342
0.00362749
0.00362956
0.00361646
0.00362961
0.00361652
0.00361336
0.00361295
0.00362931
0.00362933
0.0036131
0.00360802
0.00360576
0.00359247
0.00359529
0.003608
0.00360581
0.00359254
0.00360769
0.00359229
0.00360782
0.00359229
0.00360802
0.00360576
0.00359529
0.00359247
0.00360581
0.003608
0.00359254
0.00360769
0.00359229
0.00360782
0.00359229
0.00362936
0.00362936
0.00361378
0.00361319
0.00361319
0.00362908
0.003613
0.00359232
0.00360776
0.0036082
0.00359244
0.00359244
0.00360794
0.00360794
0.00359232
0.00360776
0.00361342
0.0036275
0.00362956
0.00361646
0.00362961
0.00361652
0.00361336
0.00361295
0.00362931
0.00362933
0.0036131
0.00361295
0.00362931
0.00362933
0.0036131
0.00360802
0.00360576
0.00359529
0.00359247
0.00360581
0.003608
0.00359254
0.00360802
0.00360576
0.00359529
0.00359247
0.00360581
0.003608
0.00359254
0.00360769
0.00359229
0.00360782
0.00359229
0.00360769
0.00359229
0.00360782
0.00359229
0.00362908
0.003613
0.00362908
0.003613
0.0036082
0.00359244
0.00359244
0.00360794
0.00360794
0.00359232
0.00360775
0.00359232
0.00360775
0.00358715
0.00357176
0.00358715
0.00357175
0.00358725
0.00358726
0.00357204
0.0035718
0.0035718
0.00355116
0.00356658
0.00355116
0.00356658
0.00356659
0.00355117
0.00355117
0.00356663
0.00356663
0.00357179
0.00358711
0.00358715
0.00357172
0.0035719
0.00358721
0.00358486
0.00357447
0.00358725
0.00357183
0.00357449
0.0035719
0.00358721
0.00358486
0.00357447
0.00358725
0.00357183
0.00357449
0.00356662
0.00355115
0.00356655
0.00355119
0.00356662
0.00355115
0.00356655
0.00355119
0.00356662
0.00356412
0.0035512
0.00355379
0.00356658
0.00356413
0.00355125
0.00356662
0.00356412
0.0035512
0.00355379
0.00356657
0.00356413
0.00355125
0.00358725
0.00358725
0.00357204
0.0035718
0.0035718
0.00358715
0.00357175
0.00355116
0.00356659
0.00356659
0.00355117
0.00355117
0.00356663
0.00356662
0.00355116
0.00356658
0.0035719
0.00358721
0.00358486
0.00357447
0.00358725
0.00357183
0.00357449
0.0035718
0.00358711
0.00358716
0.00357172
0.0035719
0.00358486
0.00358721
0.00357447
0.00358725
0.00357449
0.00357183
0.00356662
0.00355115
0.00356656
0.00355119
0.00356662
0.00356412
0.0035512
0.00355379
0.00356658
0.00356413
0.00355125
0.00356662
0.00355115
0.00356655
0.00355119
0.00356662
0.00356412
0.00355379
0.0035512
0.00356413
0.00356658
0.00355125
0.00357179
0.00358711
0.00358715
0.00357172
0.0035719
0.00358486
0.00358721
0.00357447
0.00358725
0.00357449
0.00357183
0.00357179
0.00358711
0.00358715
0.00357172
0.00356662
0.00356412
0.0035512
0.00355379
0.00356657
0.00356413
0.00355125
0.00356662
0.00355115
0.00356655
0.00355119
0.00356662
0.00356412
0.00355379
0.0035512
0.00356413
0.00356658
0.00355125
0.00356662
0.00355115
0.00356655
0.00355119
0.00358726
0.00358725
0.00357204
0.0035718
0.0035718
0.00358715
0.00357175
0.00355116
0.00356659
0.00356659
0.00355117
0.00355117
0.00356663
0.00356663
0.00355116
0.00356658
0.0035719
0.00358486
0.00358721
0.00357447
0.00358725
0.00357449
0.00357183