/*--------------------------------*- C++ -*----------------------------------*\
| =========                 |                                                 |
| \\      /  F ield         | OpenFOAM: The Open Source CFD Toolbox           |
|  \\    /   O peration     | Version:  2206                                  |
|   \\  /    A nd           | Website:  www.openfoam.com                      |
|    \\/     M anipulation  |                                                 |
\*---------------------------------------------------------------------------*/
FoamFile
{
    version     2.0;
    format      ascii;
    arch        "LSB;label=32;scalar=64";
    class       volVectorField;
    location    "32";
    object      U;
}
// * * * * * * * * * * * * * * * * * * * * * * * * * * * * * * * * * * * * * //

dimensions      [0 1 -1 0 0 0 0];

internalField   nonuniform List<vector> 
28688
(
(0.000107991 0.000107924 0.100299)
(-0.000190196 0.000119274 0.100385)
(0.000119346 -0.000190188 0.100385)
(-0.00023946 -0.000239479 0.100397)
(9.42241e-05 9.41763e-05 0.10086)
(-0.000158727 9.66556e-05 0.100942)
(9.66633e-05 -0.000158726 0.100942)
(-0.000200835 -0.000200887 0.100968)
(9.49844e-05 9.49729e-05 0.10137)
(-0.000154983 9.29404e-05 0.101449)
(9.29309e-05 -0.000154992 0.101449)
(-0.000201273 -0.000201324 0.101471)
(9.31523e-05 9.31422e-05 0.101893)
(-0.00015043 8.91256e-05 0.101957)
(8.91394e-05 -0.000150435 0.101958)
(-0.000197797 -0.000197841 0.101964)
(9.21273e-05 9.21273e-05 0.1024)
(-0.000147763 8.6746e-05 0.102445)
(8.676e-05 -0.000147768 0.102445)
(-0.000192074 -0.00019212 0.102431)
(8.28724e-05 8.28808e-05 0.102877)
(-0.000137563 8.0108e-05 0.102909)
(8.0125e-05 -0.000137567 0.102909)
(-0.00017829 -0.000178335 0.102871)
(5.63778e-05 5.63887e-05 0.103278)
(-8.40134e-05 4.65664e-05 0.103288)
(4.65781e-05 -8.40553e-05 0.103288)
(-0.000130087 -0.00013009 0.103229)
(2.67695e-05 2.67456e-05 0.103461)
(-3.69559e-05 2.47572e-05 0.103414)
(2.47693e-05 -3.69555e-05 0.103414)
(-7.78159e-05 -7.78371e-05 0.10332)
(5.73676e-06 5.72776e-06 0.103518)
(-8.54782e-06 6.60332e-06 0.103435)
(6.60868e-06 -8.55402e-06 0.103435)
(-5.26936e-05 -5.27156e-05 0.103317)
(-1.18734e-07 -1.12866e-07 0.103525)
(-1.26005e-06 1.3561e-06 0.103436)
(1.35434e-06 -1.26416e-06 0.103436)
(-4.65203e-05 -4.65365e-05 0.103311)
(-7.72013e-07 -7.62161e-07 0.103526)
(-5.61503e-07 8.56931e-07 0.103435)
(8.53901e-07 -5.65672e-07 0.103435)
(-4.60635e-05 -4.60801e-05 0.10331)
(-8.13027e-07 -8.06658e-07 0.103526)
(-5.44192e-07 8.34117e-07 0.103435)
(8.3183e-07 -5.4585e-07 0.103435)
(-4.60458e-05 -4.60626e-05 0.10331)
(0.000135048 0.000135038 0.100282)
(0.000124232 0.000152842 0.100229)
(-0.000124224 0.000152823 0.100229)
(-0.000135045 0.000135006 0.100282)
(0.00015287 0.000124184 0.100229)
(0.000152842 -0.000124201 0.100229)
(9.07715e-05 9.07199e-05 0.100151)
(-9.07616e-05 9.07173e-05 0.100151)
(9.07463e-05 -9.0766e-05 0.100151)
(-9.07438e-05 -9.0764e-05 0.100151)
(-0.000152866 0.00012418 0.100229)
(-0.000152852 -0.000124197 0.100229)
(0.000135038 -0.000135058 0.100282)
(0.000124184 -0.000152872 0.100229)
(-0.000124181 -0.000152854 0.100229)
(-0.000135047 -0.000135031 0.100282)
(0.000239503 0.000239482 0.100397)
(0.00011163 0.000111502 0.100892)
(0.000119396 0.000190088 0.100385)
(-0.000119347 0.000190129 0.100385)
(8.91436e-05 0.000147211 0.100823)
(-8.91051e-05 0.000147207 0.100823)
(-0.000239513 0.000239431 0.100397)
(-0.000111589 0.000111471 0.100892)
(0.000190232 0.000119293 0.100385)
(0.00019017 -0.000119354 0.100385)
(0.000147186 8.91142e-05 0.100823)
(0.00014722 -8.91356e-05 0.100823)
(-0.000190152 -0.000119358 0.100385)
(-0.000147157 8.91158e-05 0.100823)
(-0.000147177 -8.91296e-05 0.100823)
(0.000239434 -0.000239524 0.100397)
(0.000111582 -0.000111596 0.100892)
(-0.000119326 -0.000190218 0.100385)
(8.9119e-05 -0.000147148 0.100823)
(-8.90987e-05 -0.000147174 0.100823)
(-0.00011158 -0.000111598 0.100892)
(0.000200922 0.000200754 0.100968)
(0.000106172 0.00010609 0.101395)
(9.667e-05 0.000158782 0.100942)
(-9.66428e-05 0.000158779 0.100942)
(9.4012e-05 0.000156249 0.10132)
(-9.40112e-05 0.000156249 0.10132)
(-0.000200884 0.000200722 0.100968)
(-0.00010616 0.000106085 0.101395)
(0.00015876 9.66491e-05 0.100942)
(0.000158778 -9.66617e-05 0.100942)
(0.000156202 9.40153e-05 0.10132)
(0.000156244 -9.40179e-05 0.10132)
(-0.000158756 -9.66569e-05 0.100942)
(-0.0001562 9.40243e-05 0.10132)
(-0.000156221 -9.40085e-05 0.10132)
(0.000200831 -0.000200895 0.100968)
(0.000106135 -0.000106149 0.101395)
(-9.66447e-05 -0.000158751 0.100942)
(9.4014e-05 -0.000156201 0.10132)
(-9.40196e-05 -0.000156221 0.10132)
(-0.000106152 -0.000106157 0.101395)
(0.000201341 0.000201213 0.101471)
(9.8045e-05 9.79876e-05 0.101892)
(9.29231e-05 0.000155042 0.101449)
(-9.29282e-05 0.000155038 0.101449)
(9.17811e-05 0.000153977 0.101831)
(-9.17702e-05 0.000153967 0.101831)
(-0.00020133 0.000201197 0.101471)
(-9.80309e-05 9.79807e-05 0.101892)
(0.000154991 9.29367e-05 0.101449)
(0.000155033 -9.29319e-05 0.101449)
(0.000153919 9.17843e-05 0.101831)
(0.000153951 -9.17681e-05 0.101831)
(-0.000155015 -9.29255e-05 0.101449)
(-0.000153915 9.17773e-05 0.101831)
(-0.000153952 -9.17729e-05 0.101831)
(0.000201256 -0.000201331 0.101471)
(9.80035e-05 -9.80333e-05 0.101892)
(-9.29383e-05 -0.000155014 0.101449)
(9.17862e-05 -0.000153919 0.101831)
(-9.17756e-05 -0.000153928 0.101831)
(-9.8061e-05 -9.80614e-05 0.101892)
(0.000197828 0.000197723 0.101964)
(8.92365e-05 8.91881e-05 0.102366)
(8.91336e-05 0.000150494 0.101957)
(-8.91188e-05 0.000150483 0.101957)
(8.84134e-05 0.000150282 0.102325)
(-8.84027e-05 0.000150278 0.102325)
(-0.000197812 0.000197709 0.101964)
(-8.92161e-05 8.91925e-05 0.102366)
(0.000150437 8.91352e-05 0.101957)
(0.000150468 -8.91166e-05 0.101958)
(0.000150226 8.84124e-05 0.102325)
(0.000150257 -8.83937e-05 0.102325)
(-0.000150469 -8.91223e-05 0.101957)
(-0.00015022 8.84071e-05 0.102325)
(-0.000150262 -8.84029e-05 0.102325)
(0.000197734 -0.000197832 0.101964)
(8.91888e-05 -8.9229e-05 0.102366)
(-8.91236e-05 -0.00015044 0.101958)
(8.84176e-05 -0.000150224 0.102325)
(-8.84006e-05 -0.000150225 0.102325)
(-8.92587e-05 -8.92622e-05 0.102366)
(0.000192094 0.000192008 0.102431)
(7.74162e-05 7.73841e-05 0.102814)
(8.67453e-05 0.000147827 0.102445)
(-8.67341e-05 0.00014782 0.102445)
(8.02018e-05 0.000138063 0.102797)
(-8.01989e-05 0.000138072 0.102797)
(-0.000192084 0.000192001 0.102431)
(-7.74076e-05 7.73944e-05 0.102814)
(0.000147768 8.67503e-05 0.102445)
(0.0001478 -8.67227e-05 0.102445)
(0.000138019 8.01931e-05 0.102797)
(0.000138044 -8.0182e-05 0.102797)
(-0.000147807 -8.67351e-05 0.102445)
(-0.00013801 8.01937e-05 0.102797)
(-0.000138053 -8.0195e-05 0.102797)
(0.000192007 -0.000192104 0.102431)
(7.73854e-05 -7.74156e-05 0.102814)
(-8.67365e-05 -0.000147765 0.102445)
(8.02026e-05 -0.000138016 0.102797)
(-8.01836e-05 -0.00013801 0.102797)
(-7.74575e-05 -7.74598e-05 0.102814)
(0.000178297 0.000178221 0.102871)
(4.2345e-05 4.23193e-05 0.103199)
(8.01005e-05 0.000137614 0.102909)
(-8.00864e-05 0.000137623 0.102909)
(5.59453e-05 0.00010164 0.103218)
(-5.59488e-05 0.000101626 0.103218)
(-0.000178297 0.000178219 0.102871)
(-4.23879e-05 4.23724e-05 0.103199)
(0.000137572 8.01057e-05 0.102909)
(0.000137593 -8.00666e-05 0.102909)
(0.000101552 5.59347e-05 0.103218)
(0.000101598 -5.59407e-05 0.103218)
(-0.0001376 -8.00963e-05 0.102909)
(-0.000101555 5.59131e-05 0.103218)
(-0.000101613 -5.5914e-05 0.103218)
(0.000178215 -0.000178317 0.102871)
(4.23232e-05 -4.23516e-05 0.103199)
(-8.01014e-05 -0.000137559 0.102909)
(5.59104e-05 -0.000101564 0.103218)
(-5.58882e-05 -0.000101535 0.103218)
(-4.23447e-05 -4.23472e-05 0.103199)
(0.00013011 0.000130082 0.103229)
(-1.27879e-05 -1.27682e-05 0.103323)
(4.66112e-05 8.40559e-05 0.103288)
(-4.66222e-05 8.40941e-05 0.103288)
(2.99094e-05 4.6848e-05 0.103397)
(-2.99052e-05 4.68561e-05 0.103397)
(-0.000130124 0.000130071 0.103229)
(1.27775e-05 -1.27832e-05 0.103323)
(8.40461e-05 4.6597e-05 0.103288)
(8.40804e-05 -4.66165e-05 0.103288)
(4.68606e-05 2.98513e-05 0.103397)
(4.68722e-05 -2.99017e-05 0.103397)
(-8.40664e-05 -4.65993e-05 0.103288)
(-4.68524e-05 2.98496e-05 0.103397)
(-4.68562e-05 -2.98916e-05 0.103397)
(0.00013007 -0.000130128 0.103229)
(-1.27518e-05 1.28075e-05 0.103323)
(-4.6559e-05 -8.3999e-05 0.103288)
(2.98606e-05 -4.68476e-05 0.103397)
(-2.98559e-05 -4.68493e-05 0.103397)
(1.27677e-05 1.27966e-05 0.103323)
(7.78385e-05 7.77963e-05 0.10332)
(-3.97581e-05 -3.97545e-05 0.103324)
(2.48138e-05 3.69476e-05 0.103414)
(-2.48101e-05 3.69617e-05 0.103414)
(9.9656e-06 1.32942e-05 0.103434)
(-9.9639e-06 1.33136e-05 0.103434)
(-7.78406e-05 7.77781e-05 0.10332)
(3.97658e-05 -3.97505e-05 0.103324)
(3.69721e-05 2.47583e-05 0.103414)
(3.69755e-05 -2.48063e-05 0.103414)
(1.32973e-05 9.92561e-06 0.103434)
(1.33124e-05 -9.96059e-06 0.103434)
(-3.69598e-05 -2.47975e-05 0.103414)
(-1.32864e-05 9.92152e-06 0.103434)
(-1.33087e-05 -9.95958e-06 0.103434)
(7.78208e-05 -7.78384e-05 0.10332)
(-3.97427e-05 3.97706e-05 0.103324)
(-2.47664e-05 -3.69583e-05 0.103414)
(9.92855e-06 -1.32864e-05 0.103434)
(-9.92913e-06 -1.32902e-05 0.103434)
(3.97444e-05 3.9757e-05 0.103324)
(5.2707e-05 5.26693e-05 0.103317)
(-4.76134e-05 -4.75909e-05 0.103318)
(6.64496e-06 8.56294e-06 0.103435)
(-6.64172e-06 8.58345e-06 0.103435)
(1.89645e-06 1.9909e-06 0.103436)
(-1.89582e-06 2.00297e-06 0.103436)
(-5.26988e-05 5.26663e-05 0.103317)
(4.7617e-05 -4.75872e-05 0.103318)
(8.56154e-06 6.61059e-06 0.103435)
(8.5741e-06 -6.64041e-06 0.103435)
(1.97405e-06 1.87082e-06 0.103436)
(1.99425e-06 -1.89299e-06 0.103436)
(-8.5764e-06 -6.63925e-06 0.103435)
(-1.96835e-06 1.86626e-06 0.103436)
(-1.99748e-06 -1.89104e-06 0.103436)
(5.2678e-05 -5.27206e-05 0.103317)
(-4.75876e-05 4.76208e-05 0.103318)
(-6.61035e-06 -8.55289e-06 0.103435)
(1.86343e-06 -1.97067e-06 0.103436)
(-1.86462e-06 -1.96873e-06 0.103436)
(4.75874e-05 4.76064e-05 0.103318)
(4.65236e-05 4.65048e-05 0.103311)
(-4.82769e-05 -4.82384e-05 0.103317)
(1.38629e-06 1.28632e-06 0.103435)
(-1.38143e-06 1.29861e-06 0.103435)
(9.23925e-07 6.34763e-07 0.103435)
(-9.11578e-07 6.296e-07 0.103435)
(-4.65219e-05 4.6498e-05 0.103311)
(4.82876e-05 -4.82522e-05 0.103317)
(1.26819e-06 1.36327e-06 0.103436)
(1.28644e-06 -1.3818e-06 0.103435)
(5.98765e-07 8.99288e-07 0.103435)
(6.23874e-07 -9.08613e-07 0.103435)
(-1.28808e-06 -1.37944e-06 0.103435)
(-5.93279e-07 8.87607e-07 0.103435)
(-6.22373e-07 -9.0594e-07 0.103435)
(4.65064e-05 -4.65415e-05 0.103311)
(-4.82519e-05 4.82887e-05 0.103317)
(-1.35349e-06 -1.25894e-06 0.103436)
(8.82964e-07 -5.95275e-07 0.103435)
(-8.79929e-07 -5.92029e-07 0.103435)
(4.8256e-05 4.82749e-05 0.103317)
(4.60716e-05 4.60679e-05 0.10331)
(-4.82999e-05 -4.82763e-05 0.103317)
(8.93724e-07 6.00837e-07 0.103435)
(-8.80341e-07 6.02557e-07 0.103435)
(8.6195e-07 5.67849e-07 0.103435)
(-8.62737e-07 5.74545e-07 0.103435)
(-4.6066e-05 4.60439e-05 0.10331)
(4.83071e-05 -4.82735e-05 0.103317)
(5.69223e-07 8.69577e-07 0.103435)
(5.91233e-07 -8.78646e-07 0.103435)
(5.45356e-07 8.37868e-07 0.103435)
(5.71307e-07 -8.58133e-07 0.103435)
(-5.89642e-07 -8.76236e-07 0.103435)
(-5.41447e-07 8.35644e-07 0.103435)
(-5.69974e-07 -8.55426e-07 0.103435)
(4.60529e-05 -4.60856e-05 0.10331)
(-4.82728e-05 4.83094e-05 0.103317)
(-8.50382e-07 -5.5969e-07 0.103435)
(8.3134e-07 -5.42368e-07 0.103435)
(-8.28968e-07 -5.39995e-07 0.103435)
(4.82767e-05 4.82952e-05 0.103317)
(4.60504e-05 4.60303e-05 0.10331)
(-4.82909e-05 -4.82675e-05 0.103317)
(8.61646e-07 5.70025e-07 0.103435)
(-8.61463e-07 5.79875e-07 0.103435)
(8.587e-07 5.64453e-07 0.103435)
(-4.60478e-05 4.60229e-05 0.10331)
(5.49375e-07 8.38966e-07 0.103435)
(5.71345e-07 -8.58586e-07 0.103435)
(5.43912e-07 8.35768e-07 0.103435)
(5.70179e-07 -8.59063e-07 0.103435)
(-5.70569e-07 -8.55464e-07 0.103435)
(-5.71425e-07 -8.54258e-07 0.103435)
(4.60346e-05 -4.60678e-05 0.10331)
(-4.82629e-05 4.82977e-05 0.103317)
(-8.28904e-07 -5.41043e-07 0.103435)
(8.3038e-07 -5.42345e-07 0.103435)
(-8.27802e-07 -5.42178e-07 0.103435)
(4.82654e-05 4.82847e-05 0.103317)
(-3.29646e-07 -3.32299e-07 0.0999988)
(1.68317e-05 1.68263e-05 0.100003)
(-4.4776e-07 1.3939e-05 0.1)
(1.39467e-05 -4.50302e-07 0.1)
(-4.66752e-05 5.72633e-06 0.100008)
(-1.52794e-05 1.55827e-05 0.0999999)
(-0.000127973 6.0433e-05 0.100057)
(-1.31293e-05 -8.63639e-07 0.0999957)
(5.72026e-06 -4.66597e-05 0.100008)
(1.55861e-05 -1.52797e-05 0.0999999)
(-8.6172e-07 -1.31281e-05 0.0999957)
(6.04449e-05 -0.000127902 0.100057)
(-1.87431e-05 -1.87464e-05 0.100003)
(-0.000135049 -8.10303e-05 0.100054)
(-8.10385e-05 -0.000135029 0.100054)
(-3.47649e-05 0.000136739 0.100719)
(0.000177062 0.000387683 0.0994234)
(2.39323e-06 0.000304893 0.10052)
(-8.40413e-05 0.000244726 0.0991355)
(-0.000303194 0.000837098 0.0977836)
(-0.000129861 0.000305412 0.0957079)
(0.000136472 -3.49136e-05 0.100719)
(0.000388299 0.000176021 0.0994242)
(0.000305643 2.25549e-06 0.10052)
(0.000244847 -8.39316e-05 0.0991359)
(-0.000107975 0.000107926 0.100299)
(0.000107961 -0.000107972 0.100299)
(-0.000107953 -0.00010798 0.100299)
(9.15888e-05 9.15187e-05 0.100739)
(-9.15442e-05 9.15363e-05 0.100739)
(9.15733e-05 -9.15874e-05 0.100739)
(-9.15526e-05 -9.15973e-05 0.100739)
(-0.000281054 6.40949e-06 0.100752)
(-0.000398097 0.000229127 0.100531)
(-0.00017525 3.73841e-05 0.100332)
(-0.000153264 9.45525e-05 0.100558)
(-0.000358744 1.56376e-05 0.10048)
(-0.000149981 0.000198982 0.100734)
(-0.00015281 3.32904e-05 0.100497)
(0.000836064 -0.000301323 0.097782)
(0.000305419 -0.000129464 0.0957089)
(6.36038e-06 -0.000280968 0.100752)
(3.74196e-05 -0.00017523 0.100332)
(0.000229222 -0.000398076 0.100531)
(9.45102e-05 -0.000153254 0.100558)
(1.56348e-05 -0.000358619 0.10048)
(3.33407e-05 -0.000152795 0.100497)
(0.000199018 -0.000149976 0.100734)
(-0.000371938 -0.000141297 0.100371)
(-0.000141498 -0.000372184 0.100372)
(-0.000112161 -0.000112237 0.100655)
(1.02773e-05 -7.96139e-05 0.100579)
(-7.98742e-05 1.02942e-05 0.100579)
(-1.65063e-05 0.000199569 0.100861)
(-5.52762e-05 0.000287379 0.0983292)
(-2.02517e-05 0.000207818 0.100783)
(-4.47995e-05 0.000272295 0.0979322)
(-0.000149893 0.000312475 0.0926355)
(-0.000138238 0.000274093 0.090987)
(0.000199494 -1.66661e-05 0.10086)
(0.000287632 -5.51662e-05 0.0983297)
(0.000207862 -2.0388e-05 0.100783)
(0.000272426 -4.47351e-05 0.0979324)
(-9.41778e-05 9.4194e-05 0.10086)
(9.42338e-05 -9.4228e-05 0.10086)
(-9.42113e-05 -9.42265e-05 0.10086)
(9.58915e-05 9.58759e-05 0.101239)
(-9.58632e-05 9.58918e-05 0.101239)
(9.59049e-05 -9.59008e-05 0.101239)
(-9.58985e-05 -9.58951e-05 0.101239)
(-0.000264408 1.32651e-05 0.101151)
(-0.000217472 0.00021389 0.100825)
(-0.000164295 3.10399e-05 0.100897)
(-0.000160648 9.76248e-05 0.101064)
(-0.000297494 1.41521e-05 0.100979)
(-0.000185254 0.000198339 0.100937)
(-0.000169178 3.25763e-05 0.101019)
(0.000312447 -0.000149611 0.0926339)
(0.000274192 -0.000138076 0.0909884)
(1.33365e-05 -0.000264386 0.101151)
(3.11159e-05 -0.000164297 0.100897)
(0.000213962 -0.000217543 0.100826)
(9.76226e-05 -0.000160648 0.101064)
(1.42441e-05 -0.000297459 0.100979)
(3.26448e-05 -0.000169178 0.101019)
(0.000198305 -0.0001852 0.100937)
(-8.29261e-05 -9.61774e-05 0.100452)
(-9.62792e-05 -8.29428e-05 0.100452)
(-0.000112926 -0.000112924 0.101144)
(-8.76851e-05 -8.37222e-05 0.100416)
(-8.38576e-05 -8.77391e-05 0.100416)
(-9.54068e-06 0.000213668 0.100947)
(-2.24109e-05 0.00027993 0.0971474)
(-1.13817e-05 0.000228124 0.100911)
(-1.22833e-05 0.000258536 0.096697)
(-0.000117605 0.000225313 0.0884009)
(-9.71369e-05 0.000187976 0.0870497)
(0.000213599 -9.6556e-06 0.100946)
(0.000280075 -2.232e-05 0.0971476)
(0.000228179 -1.14968e-05 0.100912)
(0.000258626 -1.22296e-05 0.0966972)
(-9.49575e-05 9.49881e-05 0.10137)
(9.49968e-05 -9.49938e-05 0.10137)
(-9.49887e-05 -9.49889e-05 0.10137)
(9.4671e-05 9.46602e-05 0.101764)
(-9.46495e-05 9.46833e-05 0.101764)
(9.46968e-05 -9.46764e-05 0.101764)
(-9.46778e-05 -9.46794e-05 0.101764)
(-0.000252851 1.21595e-05 0.101577)
(-0.000219407 0.00018985 0.101037)
(-0.000166392 3.26324e-05 0.101407)
(-0.00015505 9.26215e-05 0.101578)
(-0.000288409 1.21446e-05 0.101416)
(-0.000185678 0.000170154 0.101112)
(-0.000166876 3.27263e-05 0.101537)
(0.000225123 -0.000117339 0.0883985)
(0.00018809 -9.70706e-05 0.0870507)
(1.22093e-05 -0.000252837 0.101577)
(3.26734e-05 -0.000166403 0.101407)
(0.000189877 -0.000219458 0.101038)
(9.26185e-05 -0.000155056 0.101578)
(1.21985e-05 -0.00028841 0.101416)
(3.27624e-05 -0.000166874 0.101537)
(0.000170118 -0.000185628 0.101111)
(-0.000114336 -9.04342e-05 0.100199)
(-9.05327e-05 -0.00011441 0.100199)
(-0.000102164 -0.000102169 0.101646)
(-0.000113422 -7.36452e-05 0.100069)
(-7.37293e-05 -0.000113497 0.100068)
(-6.68454e-06 0.000211815 0.100939)
(5.28797e-06 0.000256293 0.0958692)
(-8.01603e-06 0.000234592 0.100939)
(1.04636e-05 0.000231905 0.0954075)
(-7.59198e-05 0.000148153 0.0849953)
(-6.02836e-05 0.00012074 0.0839457)
(0.000211745 -6.79047e-06 0.100938)
(0.000256376 5.31396e-06 0.0958692)
(0.000234665 -8.09839e-06 0.10094)
(0.000231975 1.05978e-05 0.0954076)
(-9.31329e-05 9.31673e-05 0.101893)
(9.31808e-05 -9.31563e-05 0.101893)
(-9.3161e-05 -9.31615e-05 0.101893)
(9.27492e-05 9.27461e-05 0.102272)
(-9.27349e-05 9.27748e-05 0.102272)
(9.27846e-05 -9.27512e-05 0.102272)
(-9.27622e-05 -9.27617e-05 0.102272)
(-0.000240742 1.10631e-05 0.101974)
(-0.000215938 0.000161712 0.101155)
(-0.000163623 3.19435e-05 0.101924)
(-0.000149287 8.78439e-05 0.102082)
(-0.000280417 1.11004e-05 0.101826)
(-0.000178672 0.000142419 0.101198)
(-0.000162148 3.15131e-05 0.102051)
(0.000148014 -7.57452e-05 0.0849924)
(0.000120807 -6.02439e-05 0.0839468)
(1.11034e-05 -0.000240734 0.101974)
(3.19641e-05 -0.000163622 0.101924)
(0.000161764 -0.000215992 0.101155)
(8.78572e-05 -0.000149291 0.102083)
(1.11384e-05 -0.000280427 0.101826)
(3.15289e-05 -0.000162134 0.102051)
(0.000142367 -0.000178629 0.101197)
(-0.000131413 -7.80989e-05 0.0997377)
(-7.81587e-05 -0.000131477 0.0997373)
(-9.26127e-05 -9.26158e-05 0.102133)
(-0.000125303 -6.10988e-05 0.0995514)
(-6.11607e-05 -0.000125375 0.0995507)
(-7.04984e-06 0.000204311 0.100833)
(1.93175e-05 0.000224658 0.0945764)
(-6.37309e-06 0.000228262 0.100869)
(1.78958e-05 0.000200257 0.0941246)
(-4.9106e-05 9.57746e-05 0.0823626)
(-2.55435e-05 7.12588e-05 0.0815675)
(0.000204211 -7.12541e-06 0.100832)
(0.000224687 1.93916e-05 0.0945759)
(0.000228376 -6.42958e-06 0.10087)
(0.000200326 1.79743e-05 0.0941251)
(-9.21145e-05 9.21557e-05 0.1024)
(9.21675e-05 -9.21285e-05 0.1024)
(-9.2142e-05 -9.21398e-05 0.1024)
(8.53199e-05 8.53174e-05 0.10276)
(-8.53132e-05 8.53506e-05 0.10276)
(8.53585e-05 -8.53203e-05 0.10276)
(-8.53342e-05 -8.53308e-05 0.10276)
(-0.000227431 9.89562e-06 0.102327)
(-0.000206702 0.000137159 0.10118)
(-0.000161492 3.10698e-05 0.102424)
(-0.000142738 8.29865e-05 0.102565)
(-0.000267387 1.00966e-05 0.102195)
(-0.000167818 0.000117199 0.101191)
(-0.000156288 3.03347e-05 0.102546)
(9.56012e-05 -4.89332e-05 0.0823599)
(7.12727e-05 -2.54594e-05 0.0815687)
(9.93679e-06 -0.000227411 0.102327)
(3.10759e-05 -0.000161483 0.102424)
(0.000137218 -0.000206776 0.101181)
(8.29996e-05 -0.000142741 0.102565)
(1.01203e-05 -0.00026741 0.102195)
(3.03384e-05 -0.000156268 0.102546)
(0.000117138 -0.000167758 0.10119)
(-0.000137172 -6.77413e-05 0.0991357)
(-6.77737e-05 -0.000137224 0.0991352)
(-8.41403e-05 -8.41441e-05 0.102592)
(-0.000125942 -5.05786e-05 0.0989113)
(-5.06315e-05 -0.000126002 0.0989103)
(-9.78521e-06 0.000183521 0.100653)
(2.27115e-05 0.000190198 0.0933391)
(-5.66288e-06 0.00021007 0.100713)
(1.62518e-05 0.000169739 0.092926)
(-3.40536e-05 6.32911e-05 0.080363)
(4.38874e-06 4.18919e-05 0.0797461)
(0.000183466 -9.87339e-06 0.100652)
(0.000190195 2.27413e-05 0.0933381)
(0.000210146 -5.70628e-06 0.100714)
(0.000169786 1.63511e-05 0.0929266)
(-8.28672e-05 8.29158e-05 0.102877)
(8.29225e-05 -8.28694e-05 0.102877)
(-8.28921e-05 -8.28831e-05 0.102877)
(6.52005e-05 6.51969e-05 0.1032)
(-6.52002e-05 6.521e-05 0.1032)
(6.52155e-05 -6.52159e-05 0.1032)
(-6.52155e-05 -6.52182e-05 0.1032)
(-0.0002042 7.1498e-06 0.102639)
(-0.000190145 0.000116212 0.101126)
(-0.00014661 2.7906e-05 0.102899)
(-0.000132128 7.58422e-05 0.10302)
(-0.000242937 8.87313e-06 0.102525)
(-0.000149006 8.97488e-05 0.101115)
(-0.000143567 2.67846e-05 0.103013)
(6.30913e-05 -3.38715e-05 0.0803605)
(4.19032e-05 4.49225e-06 0.0797475)
(7.18404e-06 -0.000204203 0.102639)
(2.79001e-05 -0.000146601 0.102899)
(0.00011626 -0.000190213 0.101127)
(7.58561e-05 -0.000132125 0.10302)
(8.90213e-06 -0.00024295 0.102525)
(2.67748e-05 -0.000143548 0.103013)
(8.9694e-05 -0.000148961 0.101114)
(-0.000133083 -5.85581e-05 0.0984467)
(-5.85976e-05 -0.000133127 0.098446)
(-7.17345e-05 -7.17411e-05 0.103019)
(-0.000120233 -3.06425e-05 0.0982086)
(-3.06781e-05 -0.000120278 0.0982074)
(-5.19657e-06 6.67545e-05 0.100395)
(-2.47376e-06 0.000105968 0.0922214)
(-1.37252e-05 0.000156705 0.100467)
(-2.20326e-05 4.96035e-05 0.0919859)
(2.66983e-05 9.16773e-06 0.079166)
(1.31461e-05 -8.95164e-06 0.0791439)
(6.67183e-05 -5.26048e-06 0.100394)
(0.00010591 -2.48475e-06 0.0922205)
(0.000156822 -1.37695e-05 0.100467)
(4.96342e-05 -2.20013e-05 0.0919866)
(-5.63871e-05 5.63742e-05 0.103278)
(5.63861e-05 -5.63882e-05 0.103279)
(-5.63961e-05 -5.64026e-05 0.103279)
(3.36639e-05 3.3642e-05 0.103431)
(-3.36498e-05 3.36367e-05 0.103431)
(3.36585e-05 -3.36622e-05 0.103431)
(-3.36574e-05 -3.36684e-05 0.103431)
(-7.37645e-05 3.31515e-06 0.102806)
(-0.000125134 6.35778e-05 0.100991)
(-9.59968e-05 1.79221e-05 0.103292)
(-6.93763e-05 3.97539e-05 0.103338)
(-0.000170527 3.22132e-06 0.10277)
(-4.96272e-05 2.35254e-05 0.100943)
(-7.77439e-05 1.53922e-05 0.10335)
(9.02574e-06 2.67972e-05 0.0791633)
(-8.84095e-06 1.3093e-05 0.0791452)
(3.35847e-06 -7.37495e-05 0.102806)
(1.79188e-05 -9.59893e-05 0.103292)
(6.3617e-05 -0.000125222 0.100991)
(3.97663e-05 -6.93901e-05 0.103338)
(3.23926e-06 -0.000170539 0.10277)
(1.53977e-05 -7.77243e-05 0.10335)
(2.34941e-05 -4.95269e-05 0.100942)
(-7.52874e-05 -2.09965e-05 0.0977572)
(-2.09824e-05 -7.52979e-05 0.0977563)
(-8.60109e-06 -8.55655e-06 0.103293)
(-2.93921e-05 7.4594e-06 0.0976177)
(7.47764e-06 -2.94114e-05 0.0976163)
(-7.34854e-08 -1.01304e-05 0.100281)
(-1.77342e-05 2.46657e-05 0.0918059)
(5.82981e-07 1.73265e-05 0.100286)
(-1.04214e-05 -4.54072e-07 0.0918202)
(-7.94515e-06 -2.10834e-06 0.0791762)
(-2.06529e-06 -5.60454e-06 0.0792253)
(-1.02124e-05 -8.5017e-08 0.10028)
(2.46196e-05 -1.77983e-05 0.091805)
(1.74206e-05 5.72764e-07 0.100287)
(-4.10809e-07 -1.04551e-05 0.0918209)
(-2.67566e-05 2.67445e-05 0.103461)
(2.67635e-05 -2.67682e-05 0.103461)
(-2.67646e-05 -2.67742e-05 0.103461)
(9.37642e-06 9.36363e-06 0.103511)
(-9.37407e-06 9.36501e-06 0.103511)
(9.37574e-06 -9.37827e-06 0.103511)
(-9.37999e-06 -9.38535e-06 0.103511)
(3.19512e-06 2.10576e-06 0.10277)
(-3.82392e-05 9.42751e-06 0.100801)
(-3.83992e-05 9.68096e-06 0.103452)
(-2.77127e-05 1.93842e-05 0.103424)
(-4.37841e-05 3.05232e-06 0.102777)
(4.65836e-06 -3.01659e-06 0.100784)
(-2.8569e-05 7.47735e-06 0.103469)
(-2.18808e-06 -7.87525e-06 0.0791733)
(-5.45277e-06 -2.1236e-06 0.0792263)
(2.13572e-06 3.20372e-06 0.10277)
(9.7027e-06 -3.84011e-05 0.103452)
(9.4914e-06 -3.82636e-05 0.100801)
(1.93949e-05 -2.77098e-05 0.103424)
(3.0664e-06 -4.38073e-05 0.102777)
(7.49618e-06 -2.85675e-05 0.103469)
(-3.0378e-06 4.74179e-06 0.100783)
(-1.21962e-05 1.59675e-06 0.0974187)
(1.63844e-06 -1.22026e-05 0.0974178)
(2.84158e-05 2.84178e-05 0.103328)
(1.01146e-06 9.68878e-06 0.0973904)
(9.70735e-06 9.91491e-07 0.0973891)
(-1.83875e-07 -1.00457e-05 0.100259)
(-1.22186e-06 7.62914e-06 0.0917968)
(-5.68174e-07 9.27853e-06 0.100243)
(-1.76103e-06 -6.72608e-06 0.091823)
(-2.94857e-06 2.59612e-06 0.0792117)
(1.82214e-06 -3.11026e-06 0.0792381)
(-1.0123e-05 -1.7858e-07 0.100258)
(7.60925e-06 -1.27003e-06 0.091796)
(9.36505e-06 -5.43523e-07 0.100244)
(-6.68004e-06 -1.73835e-06 0.0918237)
(-5.73577e-06 5.72846e-06 0.103518)
(5.73595e-06 -5.7384e-06 0.103518)
(-5.7418e-06 -5.74577e-06 0.103518)
(4.82642e-07 4.873e-07 0.103525)
(-4.84499e-07 4.85755e-07 0.103525)
(4.88329e-07 -4.84137e-07 0.103525)
(-4.91599e-07 -4.90377e-07 0.103525)
(1.48843e-05 2.19023e-07 0.10275)
(-1.85315e-05 4.92607e-06 0.100719)
(-8.92418e-06 2.13221e-06 0.103492)
(-5.29531e-06 4.27846e-06 0.103436)
(-2.01064e-05 2.93711e-07 0.102745)
(1.40993e-05 -4.8632e-06 0.100742)
(-5.60438e-06 1.1784e-06 0.103495)
(2.48423e-06 -2.86848e-06 0.0792086)
(-2.97921e-06 1.76004e-06 0.079239)
(2.30016e-07 1.49005e-05 0.10275)
(2.13836e-06 -8.92556e-06 0.103492)
(4.98862e-06 -1.85887e-05 0.100719)
(4.27936e-06 -5.2999e-06 0.103436)
(2.9577e-07 -2.01237e-05 0.102745)
(1.18188e-06 -5.60151e-06 0.103495)
(-4.90059e-06 1.41478e-05 0.100741)
(-5.65304e-06 -5.17975e-06 0.0973227)
(-5.16248e-06 -5.64717e-06 0.0973218)
(4.55036e-05 4.55198e-05 0.10332)
(3.97386e-06 5.70219e-06 0.0973435)
(5.70124e-06 3.96533e-06 0.0973422)
(6.53692e-08 -9.99622e-06 0.100256)
(5.89554e-07 7.09515e-06 0.0917974)
(-1.65023e-07 9.63075e-06 0.100237)
(-1.17483e-06 -6.85254e-06 0.0918228)
(-2.09968e-06 3.07168e-06 0.0792127)
(2.06269e-06 -3.01468e-06 0.079238)
(-1.00726e-05 5.37183e-08 0.100255)
(7.05459e-06 5.5101e-07 0.0917965)
(9.70758e-06 -1.48982e-07 0.100238)
(-6.80518e-06 -1.14415e-06 0.0918238)
(1.18411e-07 -1.18189e-07 0.103525)
(-1.13154e-07 1.186e-07 0.103525)
(1.11011e-07 1.13063e-07 0.103525)
(-7.27976e-07 -7.17194e-07 0.103526)
(7.30273e-07 -7.23499e-07 0.103526)
(-7.23018e-07 7.30997e-07 0.103526)
(7.23482e-07 7.26382e-07 0.103526)
(1.632e-05 1.12093e-07 0.102747)
(-1.61089e-05 4.43907e-06 0.10071)
(-1.45732e-06 4.90173e-10 0.103497)
(-8.73098e-07 1.08822e-06 0.103435)
(-1.67985e-05 -1.4775e-07 0.102739)
(1.51136e-05 -4.99934e-06 0.100739)
(-1.06345e-06 -1.09128e-07 0.103497)
(2.95245e-06 -2.02688e-06 0.0792095)
(-2.89439e-06 2.00007e-06 0.079239)
(1.2151e-07 1.63307e-05 0.102747)
(-1.21892e-09 -1.45586e-06 0.103497)
(4.48089e-06 -1.61698e-05 0.10071)
(1.08366e-06 -8.74327e-07 0.103435)
(-1.51043e-07 -1.68145e-05 0.102739)
(-1.11685e-07 -1.05781e-06 0.103497)
(-5.04754e-06 1.51693e-05 0.100738)
(-4.80454e-06 -5.8032e-06 0.0973131)
(-5.7892e-06 -4.79881e-06 0.0973122)
(4.81401e-05 4.81606e-05 0.103317)
(4.34056e-06 5.64092e-06 0.0973406)
(5.63515e-06 4.33303e-06 0.0973393)
(8.40387e-08 -9.98548e-06 0.100256)
(7.43065e-07 7.12884e-06 0.0917977)
(-9.25058e-08 9.62887e-06 0.100237)
(-1.17916e-06 -6.85061e-06 0.0918229)
(-2.06797e-06 3.06971e-06 0.0792128)
(2.06723e-06 -3.01259e-06 0.0792381)
(-1.0062e-05 7.49588e-08 0.100255)
(7.05216e-06 6.24407e-07 0.0917966)
(9.70492e-06 -8.70178e-08 0.100237)
(-6.79197e-06 -1.12173e-06 0.0918239)
(7.75483e-07 -7.69353e-07 0.103526)
(-7.68036e-07 7.7577e-07 0.103526)
(7.68388e-07 7.71318e-07 0.103526)
(-8.11021e-07 -8.03705e-07 0.103526)
(8.09261e-07 -8.03535e-07 0.103526)
(-8.0344e-07 8.10442e-07 0.103526)
(8.03352e-07 8.0585e-07 0.103526)
(1.63865e-05 1.21166e-07 0.102747)
(-1.59094e-05 4.45453e-06 0.100709)
(-7.22316e-07 -1.98439e-07 0.103497)
(-5.46919e-07 8.43783e-07 0.103435)
(-1.65502e-05 -1.35995e-07 0.102738)
(1.51712e-05 -4.97411e-06 0.100739)
(-7.01684e-07 -2.03283e-07 0.103497)
(2.95148e-06 -1.99801e-06 0.0792096)
(-2.89414e-06 2.00573e-06 0.0792391)
(1.30269e-07 1.6398e-05 0.102747)
(-2.01547e-07 -7.20321e-07 0.103497)
(4.49696e-06 -1.59683e-05 0.10071)
(8.39293e-07 -5.48893e-07 0.103435)
(-1.40131e-07 -1.65666e-05 0.102738)
(-2.06428e-07 -6.9619e-07 0.103497)
(-5.02249e-06 1.52279e-05 0.100738)
(-4.75383e-06 -5.79212e-06 0.0973128)
(-5.77923e-06 -4.74764e-06 0.0973119)
(4.82766e-05 4.82952e-05 0.103317)
(4.35191e-06 5.63992e-06 0.0973406)
(5.63429e-06 4.34453e-06 0.0973393)
(7.93958e-08 -9.98087e-06 0.100256)
(6.6456e-07 7.11745e-06 0.0917978)
(-1.05751e-07 9.6364e-06 0.100237)
(-1.16681e-06 -6.8448e-06 0.0918229)
(-2.06639e-06 3.06605e-06 0.0792128)
(2.06402e-06 -3.01039e-06 0.0792382)
(-1.0055e-05 7.20427e-08 0.100255)
(7.06258e-06 6.21119e-07 0.0917966)
(9.71541e-06 -8.88445e-08 0.100237)
(-6.7867e-06 -1.12649e-06 0.0918239)
(8.12151e-07 -8.05505e-07 0.103526)
(-8.05166e-07 8.1162e-07 0.103526)
(8.04994e-07 8.06525e-07 0.103526)
(-8.13712e-07 -8.0834e-07 0.103526)
(8.17284e-07 -7.97231e-07 0.103526)
(-8.05341e-07 8.12835e-07 0.103526)
(8.06783e-07 8.05094e-07 0.103526)
(1.63807e-05 1.2179e-07 0.102747)
(-1.59084e-05 4.46721e-06 0.100709)
(-6.96174e-07 -2.06129e-07 0.103497)
(-5.43843e-07 8.34353e-07 0.103435)
(-1.65459e-05 -1.34698e-07 0.102738)
(1.51678e-05 -4.97057e-06 0.100739)
(-6.95317e-07 -2.06208e-07 0.103497)
(2.95255e-06 -1.99909e-06 0.0792096)
(-2.89328e-06 2.00601e-06 0.0792391)
(1.30685e-07 1.63921e-05 0.102747)
(-2.08938e-07 -6.92761e-07 0.103497)
(4.51097e-06 -1.59676e-05 0.10071)
(8.30311e-07 -5.42564e-07 0.103435)
(-1.38719e-07 -1.65624e-05 0.102738)
(-2.09285e-07 -6.86858e-07 0.103497)
(-5.01674e-06 1.52236e-05 0.100738)
(-4.75588e-06 -5.79705e-06 0.0973128)
(-5.78382e-06 -4.74994e-06 0.0973119)
(4.82728e-05 4.82916e-05 0.103317)
(4.35119e-06 5.63742e-06 0.0973406)
(5.63229e-06 4.34343e-06 0.0973393)
(1.8748e-05 1.87373e-05 0.100003)
(8.10166e-05 0.000135026 0.100054)
(0.000135087 8.10277e-05 0.100054)
(0.000413799 0.00104224 0.0978737)
(0.000115158 0.000204346 0.100125)
(0.00104134 0.000411175 0.0978735)
(0.000204494 0.000115187 0.100125)
(0.000102385 0.000102347 0.100042)
(0.000117454 0.00051384 0.100271)
(0.000512707 0.000117076 0.10027)
(0.000117321 0.000180271 0.100097)
(0.00018041 0.000117342 0.100097)
(5.72422e-06 4.66445e-05 0.100008)
(1.55899e-05 1.52775e-05 0.0999999)
(6.04334e-05 0.00012791 0.100057)
(-8.60558e-07 1.3122e-05 0.0999957)
(-5.73499e-06 4.66531e-05 0.100008)
(-1.55877e-05 1.52723e-05 0.0999999)
(-6.04063e-05 0.000127897 0.100057)
(8.6104e-07 1.31226e-05 0.0999957)
(4.58728e-06 0.000154577 0.100054)
(0.000326675 0.00031553 0.0993487)
(9.83681e-05 0.000167683 0.100056)
(7.36295e-06 0.000327861 0.100416)
(-4.62708e-06 0.000154592 0.100054)
(-0.000326144 0.00031624 0.0993485)
(-9.83042e-05 0.000167644 0.100056)