/*--------------------------------*- C++ -*----------------------------------*\
| =========                 |                                                 |
| \\      /  F ield         | OpenFOAM: The Open Source CFD Toolbox           |
|  \\    /   O peration     | Version:  2206                                  |
|   \\  /    A nd           | Website:  www.openfoam.com                      |
|    \\/     M anipulation  |                                                 |
\*---------------------------------------------------------------------------*/
FoamFile
{
    version     2.0;
    format      ascii;
    arch        "LSB;label=32;scalar=64";
    class       volScalarField;
    location    "16.5";
    object      p;
}
// * * * * * * * * * * * * * * * * * * * * * * * * * * * * * * * * * * * * * //

dimensions      [0 2 -2 0 0 0 0];

internalField   nonuniform List<scalar> 
28673
(
0.000542482
0.000545122
0.000497479
0.000497451
0.00049745
0.00050009
0.000452451
0.000452425
0.000452422
0.000455062
0.000407419
0.000407391
0.000407391
0.000410031
0.000362374
0.000362345
0.000362346
0.000364984
0.000317336
0.000317308
0.000317307
0.000319947
0.0002723
0.000272271
0.000272271
0.00027491
0.000227263
0.000227235
0.000227235
0.000229874
0.000182223
0.000182199
0.000182199
0.000184832
0.000137177
0.000137126
0.000137125
0.000139751
9.21503e-05
9.21237e-05
9.21209e-05
9.47112e-05
4.77743e-05
4.72111e-05
4.72083e-05
4.96895e-05
1.07741e-05
1.11392e-05
1.11375e-05
1.07411e-05
0.000553741
0.000551108
0.000553741
0.000506074
0.000542483
0.000542482
0.000508708
0.000508708
0.000545121
0.000506075
0.000508707
0.000508707
0.000542483
0.000508708
0.000508708
0.000506074
0.000542483
0.000508708
0.000508708
0.000506075
0.000500089
0.000461047
0.000497451
0.000497451
0.000463679
0.00046368
0.00050009
0.000461048
0.00049745
0.00049745
0.000463679
0.00046368
0.000497451
0.00046368
0.000463679
0.000500089
0.000461046
0.00049745
0.000463679
0.000463679
0.000461047
0.000455062
0.000416018
0.000452423
0.000452424
0.00041865
0.00041865
0.000455063
0.000416017
0.000452422
0.000452421
0.00041865
0.00041865
0.000452424
0.00041865
0.00041865
0.000455061
0.000416017
0.000452423
0.00041865
0.00041865
0.000416018
0.000410031
0.000370971
0.000407391
0.000407391
0.000373606
0.000373605
0.000410029
0.000370971
0.000407391
0.000407391
0.000373607
0.000373607
0.000407392
0.000373605
0.000373606
0.000410031
0.000370971
0.000407391
0.000373607
0.000373606
0.00037097
0.000364984
0.000325933
0.000362346
0.000362345
0.000328567
0.000328567
0.000364984
0.000325933
0.000362346
0.000362346
0.000328567
0.000328567
0.000362345
0.000328567
0.000328567
0.000364984
0.000325932
0.000362345
0.000328567
0.000328567
0.000325933
0.000319946
0.000280896
0.000317308
0.000317308
0.00028353
0.00028353
0.000319947
0.000280896
0.000317307
0.000317307
0.00028353
0.00028353
0.000317308
0.00028353
0.000283531
0.000319946
0.000280896
0.000317308
0.00028353
0.00028353
0.000280896
0.00027491
0.00023586
0.000272271
0.000272271
0.000238494
0.000238494
0.00027491
0.00023586
0.000272271
0.000272271
0.000238494
0.000238494
0.000272271
0.000238494
0.000238494
0.00027491
0.00023586
0.000272271
0.000238494
0.000238494
0.00023586
0.000229874
0.000190823
0.000227235
0.000227235
0.000193459
0.000193459
0.000229874
0.000190823
0.000227235
0.000227235
0.000193459
0.000193459
0.000227235
0.000193459
0.000193459
0.000229874
0.000190823
0.000227235
0.000193459
0.000193459
0.000190823
0.000184832
0.000145774
0.000182199
0.000182199
0.000148398
0.000148398
0.000184832
0.000145774
0.000182199
0.000182199
0.000148398
0.000148398
0.000182199
0.000148398
0.000148398
0.000184833
0.000145774
0.000182199
0.000148397
0.000148398
0.000145773
0.000139752
0.000100761
0.000137126
0.000137126
0.000103411
0.000103412
0.000139751
0.000100762
0.000137126
0.000137126
0.000103414
0.000103411
0.000137126
0.000103413
0.000103412
0.000139751
0.00010076
0.000137126
0.000103412
0.000103411
0.00010076
9.47127e-05
5.57537e-05
9.21207e-05
9.21224e-05
5.83657e-05
5.83666e-05
9.47136e-05
5.57546e-05
9.2122e-05
9.21202e-05
5.83642e-05
5.83638e-05
9.21219e-05
5.83651e-05
5.83634e-05
9.47119e-05
5.57512e-05
9.21199e-05
5.83626e-05
5.83617e-05
5.57507e-05
4.96934e-05
1.46701e-05
4.72128e-05
4.7213e-05
1.6987e-05
1.69863e-05
4.96938e-05
1.46699e-05
4.72102e-05
4.72089e-05
1.69852e-05
1.69816e-05
4.72079e-05
1.69836e-05
1.69797e-05
4.96903e-05
1.46658e-05
4.72075e-05
1.69819e-05
1.6981e-05
1.46643e-05
1.07451e-05
1.11406e-05
1.11408e-05
1.07461e-05
1.11391e-05
1.11369e-05
1.07738e-05
1.0772e-05
1.07715e-05
1.11358e-05
1.07425e-05
1.11363e-05
0.000528435
0.000545295
0.000545294
0.000528434
0.000545296
0.000528434
0.000528434
0.000528435
0.000542511
0.000542511
0.000508736
0.000508737
0.000508736
0.000508736
0.000528493
0.000545262
0.00054249
0.000531223
0.000545244
0.000528466
0.000531231
0.000528433
0.000528493
0.00054249
0.000531224
0.000545244
0.000531231
0.000528466
0.000545299
0.0005453
0.00052859
0.00052843
0.00052843
0.000483407
0.000500264
0.000500264
0.000483405
0.000500265
0.000483405
0.000483406
0.000500263
0.000500264
0.000483406
0.000497479
0.000497479
0.000497479
0.000463708
0.000463709
0.000463708
0.000463708
0.000483464
0.000500232
0.000497459
0.000486194
0.000500212
0.000483437
0.000486202
0.000500265
0.000483406
0.000483464
0.000497458
0.000500231
0.000486193
0.000500212
0.000486201
0.000483436
0.000500268
0.000500268
0.000483561
0.000483401
0.000483401
0.00043838
0.000455236
0.000455237
0.000438379
0.000455237
0.000438382
0.000438379
0.000455236
0.000455236
0.000438378
0.000452452
0.000452451
0.000452451
0.000418678
0.00041868
0.000418678
0.000418678
0.000438437
0.000455204
0.000452431
0.000441167
0.000455185
0.000438413
0.000441174
0.000455237
0.000438377
0.000438436
0.00045243
0.000455204
0.000441166
0.000455184
0.000441173
0.000438409
0.000455241
0.000455241
0.000438533
0.000438375
0.000438374
0.000393347
0.00041021
0.000410212
0.000393342
0.000410206
0.000393338
0.00039335
0.00041021
0.000410209
0.000393345
0.000407419
0.000407419
0.000407419
0.000373635
0.000373634
0.000373636
0.000373634
0.000393397
0.000410176
0.000407397
0.000396129
0.000410155
0.000393372
0.000396136
0.000410213
0.000393345
0.000393399
0.000407398
0.000410177
0.000396131
0.000410155
0.000396137
0.000393377
0.000410216
0.000410216
0.000393494
0.000393338
0.000393339
0.000348298
0.000365158
0.000365159
0.000348297
0.00036516
0.000348297
0.000348298
0.000365159
0.000365161
0.000348297
0.000362374
0.000362374
0.000362374
0.000328595
0.000328595
0.000328595
0.000328595
0.000348354
0.000365127
0.000362353
0.000351086
0.000365106
0.000348329
0.000351093
0.000365159
0.000348296
0.000348354
0.000362353
0.000365128
0.000351086
0.000365106
0.000351093
0.000348328
0.000365162
0.000365162
0.000348451
0.000348293
0.000348293
0.000303262
0.000320121
0.000320122
0.00030326
0.000320122
0.00030326
0.000303261
0.000320121
0.000320122
0.00030326
0.000317336
0.000317336
0.000317336
0.000283559
0.000283559
0.000283559
0.000283558
0.000303318
0.00032009
0.000317315
0.000306049
0.000320069
0.000303292
0.000306056
0.000320122
0.000303259
0.000303318
0.000317315
0.000320089
0.000306048
0.000320069
0.000306055
0.000303292
0.000320126
0.000320126
0.000303414
0.000303257
0.000303257
0.000258225
0.000275085
0.000275086
0.000258224
0.000275086
0.000258223
0.000258225
0.000275085
0.000275086
0.000258224
0.0002723
0.0002723
0.000272299
0.000238522
0.000238522
0.000238522
0.000238522
0.000258281
0.000275053
0.000272278
0.000261012
0.000275033
0.000258255
0.000261019
0.000275086
0.000258223
0.000258281
0.000272278
0.000275053
0.000261012
0.000275033
0.000261019
0.000258255
0.000275089
0.000275089
0.000258378
0.000258221
0.000258221
0.000213189
0.000230048
0.000230049
0.000213187
0.000230049
0.000213186
0.000213189
0.000230048
0.000230049
0.000213187
0.000227263
0.000227263
0.000227263
0.000193481
0.000193481
0.000193481
0.000193481
0.000213245
0.000230016
0.000227242
0.000215976
0.000229996
0.000213219
0.000215982
0.000230049
0.000213186
0.000213245
0.000227242
0.000230016
0.000215976
0.000229996
0.000215982
0.000213219
0.000230052
0.000230052
0.000213342
0.000213184
0.000213184
0.00016815
0.000185007
0.000185004
0.000168143
0.000185011
0.000168131
0.00016815
0.000185007
0.000185004
0.000168143
0.000182222
0.000182222
0.000182222
0.000148422
0.000148422
0.000148422
0.000148422
0.000168207
0.000184964
0.000182205
0.000170937
0.000184951
0.000168207
0.000170938
0.000185011
0.000168126
0.000168207
0.000182205
0.000184965
0.000170937
0.000184951
0.000170938
0.000168205
0.000185009
0.000185009
0.0001683
0.000168142
0.000168142
0.000123114
0.000139921
0.000139922
0.000123115
0.000139964
0.000123066
0.000123115
0.000139923
0.000139923
0.000123116
0.000137177
0.000137177
0.000137176
0.000103392
0.000103393
0.000103391
0.000103392
0.000123143
0.00013985
0.000137143
0.000125875
0.000139877
0.000123175
0.000125886
0.000139964
0.000123065
0.000123142
0.000137143
0.00013985
0.000125874
0.000139877
0.000125885
0.000123174
0.000139918
0.000139918
0.000123266
0.000123153
0.000123152
7.80788e-05
9.49093e-05
9.49402e-05
7.80446e-05
9.51056e-05
7.77789e-05
7.80772e-05
9.49086e-05
9.49399e-05
7.80434e-05
9.21484e-05
9.21489e-05
9.21486e-05
5.86052e-05
5.86055e-05
5.86033e-05
5.86029e-05
7.81211e-05
9.49063e-05
9.21193e-05
8.08511e-05
9.48517e-05
7.81274e-05
8.08599e-05
9.51078e-05
7.7784e-05
7.81193e-05
9.21182e-05
9.49047e-05
8.08491e-05
9.48503e-05
8.08586e-05
7.81244e-05
9.49052e-05
9.49091e-05
7.82329e-05
7.80516e-05
7.8052e-05
3.20203e-05
4.93945e-05
4.94729e-05
3.13026e-05
4.97343e-05
3.06354e-05
3.20063e-05
4.93871e-05
4.94667e-05
3.12959e-05
4.77744e-05
4.77715e-05
4.77711e-05
1.85026e-05
1.85017e-05
1.84991e-05
1.84987e-05
3.26867e-05
4.93321e-05
4.74751e-05
3.63774e-05
4.9582e-05
3.18722e-05
3.67849e-05
4.97182e-05
3.06439e-05
3.2687e-05
4.74723e-05
4.93301e-05
3.63746e-05
4.9582e-05
3.67824e-05
3.1874e-05
4.92463e-05
4.92459e-05
3.3654e-05
3.15198e-05
3.15161e-05
6.8971e-06
8.17424e-06
7.92958e-06
6.59923e-07
5.39359e-06
-1.93902e-06
6.91454e-06
8.15573e-06
7.9156e-06
6.64288e-07
3.18001e-06
1.11256e-05
1.11239e-05
3.65157e-06
1.13823e-05
3.28909e-06
3.28875e-06
5.66239e-06
8.00199e-06
1.05264e-05
3.85646e-06
9.63295e-06
5.06214e-06
3.44855e-06
5.35755e-06
-1.93148e-06
5.66851e-06
1.0526e-05
7.99762e-06
3.85627e-06
9.6329e-06
3.4492e-06
5.07217e-06
4.4378e-06
4.43515e-06
3.95255e-06
4.51286e-06
4.52634e-06
0.000550953
0.000550983
0.000550951
0.000550949
0.000550949
0.00055095
0.000550983
0.000550952
0.000545295
0.000528435
0.000528434
0.0005453
0.00052859
0.00052843
0.000528431
0.00050592
0.000522779
0.000505919
0.000522779
0.000522604
0.000505916
0.000505916
0.000522781
0.000522782
0.000528435
0.000545295
0.000545294
0.000528434
0.000528493
0.000545263
0.00054249
0.000531224
0.000545244
0.000528465
0.000531231
0.000528493
0.000545262
0.00054249
0.000531223
0.000545244
0.000528466
0.000531231
0.000522778
0.00050592
0.000522777
0.000505921
0.000522778
0.000505921
0.000522777
0.000505921
0.000522727
0.000519966
0.000505951
0.000508715
0.000522746
0.000519973
0.000505978
0.000522727
0.000519965
0.000505951
0.000508716
0.000522746
0.000519973
0.000505978
0.000545298
0.000545298
0.00052859
0.000528431
0.000528431
0.000545296
0.000528434
0.00050592
0.000522779
0.000522604
0.000505917
0.000505917
0.000522782
0.000522782
0.00050592
0.000522779
0.000528494
0.000531224
0.000528466
0.000531232
0.000528434
0.000528435
0.000528493
0.000531224
0.000531232
0.000528466
0.000522777
0.000505919
0.000522777
0.00050592
0.000522727
0.000519965
0.00050595
0.000508715
0.000522745
0.000519973
0.000505978
0.000522777
0.000505919
0.000522777
0.00050592
0.000522727
0.000519966
0.000508715
0.00050595
0.000519973
0.000522745
0.000505978
0.000528435
0.000545294
0.000545294
0.000528434
0.000528493
0.00054249
0.000545263
0.000531224
0.000545244
0.000531231
0.000528465
0.000528435
0.000545295
0.000545294
0.000528434
0.000522727
0.000519965
0.000505952
0.000508716
0.000522746
0.000519973
0.000505978
0.000522778
0.000505921
0.000522777
0.000505921
0.000522727
0.000519965
0.000508715
0.000505951
0.000519973
0.000522745
0.000505978
0.000522778
0.00050592
0.000522777
0.000505921
0.00052859
0.000528432
0.000528431
0.000528434
0.000505919
0.000522779
0.000522604
0.000505916
0.000505916
0.000522781
0.000522781
0.000505919
0.000522779
0.000528493
0.00054249
0.000545263
0.000531224
0.000545244
0.000531231
0.000528465
0.000528435
0.000545294
0.000528434
0.000528435
0.000545295
0.000545294
0.000528434
0.000522727
0.000519966
0.000508715
0.00050595
0.000519973
0.000522745
0.000505978
0.000522726
0.000519965
0.000508715
0.000505951
0.000519973
0.000522746
0.000505978
0.000522778
0.00050592
0.000522777
0.000505921
0.000522778
0.00050592
0.000522777
0.000505921
0.000545295
0.000528435
0.000545295
0.000528435
0.000522604
0.000505916
0.000505916
0.000522781
0.000522781
0.00050592
0.000522779
0.00050592
0.000522779
0.000500265
0.000483404
0.000500264
0.000483406
0.000500268
0.000500267
0.00048356
0.000483401
0.000483402
0.000460893
0.00047775
0.000460891
0.00047775
0.000477575
0.000460889
0.000460888
0.000477752
0.000477753
0.000483407
0.000500264
0.000500264
0.000483405
0.000483464
0.000500232
0.000497458
0.000486194
0.000500212
0.000483436
0.000486201
0.000483464
0.000500232
0.000497458
0.000486194
0.000500212
0.000483437
0.000486202
0.00047775
0.000460893
0.000477748
0.000460894
0.00047775
0.000460893
0.00047775
0.000460894
0.000477698
0.000474937
0.000460924
0.000463687
0.000477717
0.000474944
0.00046095
0.000477698
0.000474937
0.000460924
0.000463687
0.000477718
0.000474945
0.000460951
0.000500268
0.000500268
0.000483561
0.000483402
0.000483402
0.000500265
0.000483405
0.000460892
0.000477751
0.000477575
0.000460889
0.000460889
0.000477754
0.000477754
0.000460892
0.000477752
0.000483464
0.000500231
0.000497458
0.000486193
0.000500212
0.000483437
0.000486201
0.000483406
0.000500262
0.000500264
0.000483406
0.000483463
0.000497458
0.000500231
0.000486193
0.000500212
0.000486201
0.000483437
0.00047775
0.000460892
0.000477748
0.000460892
0.000477697
0.000474937
0.000460923
0.000463687
0.000477717
0.000474944
0.000460949
0.00047775
0.000460892
0.000477749
0.000460892
0.000477698
0.000474937
0.000463687
0.000460922
0.000474944
0.000477717
0.000460949
0.000483407
0.000500264
0.000500264
0.000483406
0.000483464
0.000497458
0.000500232
0.000486194
0.000500212
0.000486202
0.000483436
0.000483407
0.000500264
0.000500264
0.000483405
0.000477698
0.000474937
0.000460924
0.000463687
0.000477718
0.000474945
0.000460951
0.00047775
0.000460893
0.00047775
0.000460894
0.000477698
0.000474937
0.000463687
0.000460924
0.000474945
0.000477717
0.000460951
0.00047775
0.000460893
0.000477748
0.000460894
0.000500267
0.000500267
0.00048356
0.000483403
0.000483402
0.000500265
0.000483405
0.000460891
0.000477751
0.000477575
0.000460887
0.000460888
0.000477753
0.000477753
0.000460891
0.00047775
0.000483464
0.000497458
0.000500232
0.000486194
0.000500212
0.000486201
0.000483436
0.000483407
0.000500263
0.000500263
0.000483406
0.000483407
0.000500264
0.000500263
0.000483405
0.000477697
0.000474937
0.000463687
0.000460923
0.000474944
0.000477717
0.00046095
0.000477697
0.000474937
0.000463687
0.000460924
0.000474944
0.000477717
0.00046095
0.000477749
0.000460892
0.000477749
0.000460893
0.000477749
0.000460893
0.000477748
0.000460893
0.000500265
0.000483404
0.000500265
0.000483404
0.000477575
0.00046089
0.000460889
0.000477752
0.000477752
0.000460893
0.00047775
0.000460893
0.00047775
0.000455238
0.000438378
0.000455237
0.000438377
0.00045524
0.00045524
0.000438533
0.000438374
0.000438374
0.000415869
0.000432725
0.000415867
0.000432722
0.000432547
0.000415867
0.000415864
0.000432727
0.000432725
0.00043838
0.000455236
0.000455237
0.000438383
0.000438437
0.000455204
0.00045243
0.000441167
0.000455185
0.00043841
0.000441174
0.000438437
0.000455204
0.000452431
0.000441167
0.000455185
0.000438412
0.000441174
0.000432724
0.000415869
0.000432724
0.000415869
0.000432724
0.000415867
0.000432728
0.000415869
0.000432671
0.000429908
0.000415898
0.000418657
0.000432691
0.000429916
0.000415922
0.000432671
0.000429908
0.000415898
0.000418657
0.000432694
0.000429916
0.000415922
0.00045524
0.00045524
0.000438534
0.000438379
0.000438379
0.000455237
0.000438382
0.000415865
0.000432729
0.000432548
0.000415865
0.000415865
0.000432732
0.000432732
0.000415865
0.00043273
0.000438435
0.000455204
0.000452429
0.000441166
0.000455184
0.000438409
0.000441172
0.000438379
0.000455236
0.000455236
0.000438377
0.000438435
0.000452429
0.000455203
0.000441166
0.000455184
0.000441172
0.000438409
0.000432722
0.000415867
0.000432721
0.000415865
0.000432669
0.000429908
0.000415897
0.000418657
0.00043269
0.000429915
0.000415921
0.000432722
0.000415866
0.00043272
0.000415865
0.000432669
0.000429909
0.000418657
0.000415896
0.000429915
0.000432689
0.000415921
0.000438381
0.000455236
0.000455237
0.000438383
0.000438437
0.000452431
0.000455204
0.000441167
0.000455185
0.000441174
0.00043841
0.00043838
0.000455236
0.000455237
0.000438379
0.000432671
0.000429908
0.000415899
0.000418657
0.000432694
0.000429916
0.000415922
0.000432724
0.000415867
0.000432728
0.000415869
0.000432671
0.000429909
0.000418657
0.000415898
0.000429916
0.000432692
0.000415923
0.000432724
0.000415869
0.000432724
0.000415869
0.000455239
0.00045524
0.000438532
0.000438374
0.000438374
0.000455237
0.000438377
0.000415866
0.000432722
0.000432547
0.000415863
0.000415863
0.000432724
0.000432725
0.000415867
0.000432722
0.000438436
0.00045243
0.000455204
0.000441167
0.000455184
0.000441173
0.00043841
0.00043838
0.000455236
0.000455236
0.000438378
0.00043838
0.000455236
0.000455236
0.000438379
0.00043267
0.000429908
0.000418657
0.000415896
0.000429915
0.00043269
0.000415923
0.00043267
0.000429908
0.000418657
0.000415898
0.000429915
0.000432692
0.000415923
0.000432723
0.000415866
0.000432722
0.000415869
0.000432723
0.000415869
0.000432724
0.000415869
0.000455238
0.000438378
0.000455238
0.000438378
0.000432548
0.000415867
0.000415867
0.000432727
0.000432727
0.000415869
0.000432725
0.000415869
0.000432725
0.000410211
0.000393339
0.000410212
0.000393343
0.000410216
0.000410216
0.000393495
0.000393339
0.000393343
0.000370816
0.000387681
0.000370816
0.000387683
0.000387507
0.000370813
0.000370814
0.000387687
0.00038769
0.000393346
0.000410207
0.000410211
0.000393339
0.000393397
0.000410178
0.000407398
0.000396131
0.000410155
0.000393375
0.000396137
0.000393397
0.000410177
0.000407397
0.000396129
0.000410155
0.000393372
0.000396136
0.000387686
0.000370817
0.000387681
0.000370818
0.000387686
0.000370817
0.00038768
0.000370818
0.000387628
0.000384868
0.000370848
0.000373613
0.000387652
0.000384875
0.000370874
0.000387628
0.000384867
0.000370848
0.000373613
0.000387649
0.000384874
0.000370874
0.000410213
0.000410212
0.000393493
0.000393336
0.000393336
0.000410206
0.000393337
0.000370816
0.000387681
0.000387505
0.000370813
0.000370813
0.000387684
0.000387684
0.000370816
0.000387681
0.000393401
0.000410176
0.000407397
0.000396131
0.000410155
0.000393376
0.000396137
0.00039335
0.00041021
0.000410209
0.000393347
0.000393401
0.000407397
0.000410177
0.000396131
0.000410155
0.000396138
0.000393378
0.000387691
0.000370818
0.000387685
0.000370821
0.000387632
0.000384869
0.00037085
0.000373614
0.000387654
0.000384876
0.000370874
0.000387691
0.000370818
0.000387686
0.000370821
0.000387632
0.00038487
0.000373614
0.000370851
0.000384876
0.000387655
0.000370874
0.000393346
0.000410207
0.000410211
0.000393339
0.000393397
0.000407398
0.000410178
0.000396131
0.000410155
0.000396137
0.000393374
0.000393346
0.00041021
0.000410211
0.000393341
0.000387628
0.000384867
0.000370848
0.000373613
0.000387649
0.000384874
0.000370873
0.000387685
0.000370817
0.00038768
0.000370818
0.000387628
0.000384868
0.000373613
0.000370848
0.000384874
0.000387651
0.000370873
0.000387685
0.000370816
0.000387681
0.000370818
0.000410215
0.000410216
0.000393497
0.000393345
0.000393343
0.000410213
0.000393344
0.000370816
0.000387685
0.000387509
0.000370814
0.000370814
0.000387691
0.00038769
0.000370815
0.000387684
0.000393398
0.000407398
0.000410178
0.000396131
0.000410155
0.000396137
0.000393375
0.000393348
0.00041021
0.000410212
0.000393346
0.000393348
0.00041021
0.000410212
0.000393342
0.000387629
0.000384869
0.000373614
0.00037085
0.000384875
0.000387655
0.000370874
0.000387629
0.000384868
0.000373613
0.000370848
0.000384875
0.000387652
0.000370874
0.000387687
0.000370817
0.000387685
0.000370819
0.000387686
0.000370817
0.000387681
0.000370819
0.000410211
0.000393339
0.000410211
0.000393339
0.000387506
0.000370812
0.000370813
0.000387686
0.000387686
0.000370815
0.00038768
0.000370816
0.000387681
0.000365159
0.000348296
0.000365159
0.000348296
0.000365163
0.000365163
0.000348451
0.000348293
0.000348293
0.000325778
0.00034264
0.000325778
0.00034264
0.000342465
0.000325775
0.000325775
0.000342644
0.000342643
0.000348298
0.000365159
0.000365159
0.000348298
0.000348354
0.000365127
0.000362353
0.000351086
0.000365106
0.000348328
0.000351093
0.000348355
0.000365127
0.000362353
0.000351086
0.000365106
0.000348329
0.000351093
0.00034264
0.000325779
0.000342639
0.00032578
0.00034264
0.000325779
0.00034264
0.00032578
0.000342588
0.000339826
0.00032581
0.000328574
0.000342608
0.000339833
0.000325836
0.000342588
0.000339826
0.00032581
0.000328574
0.000342608
0.000339834
0.000325836
0.000365162
0.000365162
0.000348452
0.000348294
0.000348294
0.00036516
0.000348296
0.000325778
0.000342641
0.000342465
0.000325776
0.000325776
0.000342644
0.000342644
0.000325778
0.000342641
0.000348354
0.000365128
0.000362353
0.000351085
0.000365106
0.000348328
0.000351093
0.000348298
0.000365159
0.000365161
0.000348297
0.000348354
0.000362353
0.000365128
0.000351085
0.000365106
0.000351093
0.000348328
0.00034264
0.000325779
0.000342639
0.000325779
0.000342587
0.000339826
0.00032581
0.000328574
0.000342607
0.000339833
0.000325836
0.00034264
0.000325779
0.000342639
0.000325779
0.000342587
0.000339826
0.000328574
0.00032581
0.000339833
0.000342607
0.000325836
0.000348298
0.000365159
0.000365159
0.000348297
0.000348354
0.000362353
0.000365126
0.000351086
0.000365106
0.000351093
0.000348328
0.000348298
0.000365158
0.000365159
0.000348297
0.000342588
0.000339826
0.00032581
0.000328574
0.000342608
0.000339833
0.000325836
0.00034264
0.000325779
0.00034264
0.00032578
0.000342587
0.000339826
0.000328574
0.00032581
0.000339833
0.000342608
0.000325836
0.00034264
0.000325779
0.000342639
0.00032578
0.000365163
0.000365163
0.000348451
0.000348293
0.000348293
0.000365159
0.000348296
0.000325778
0.00034264
0.000342465
0.000325775
0.000325775
0.000342643
0.000342643
0.000325778
0.00034264
0.000348355
0.000362353
0.000365127
0.000351085
0.000365106
0.000351093
0.000348328
0.000348298
0.000365158
0.000365159
0.000348297
0.000348298
0.000365158
0.000365159
0.000348297
0.000342587
0.000339826
0.000328574
0.00032581
0.000339833
0.000342607
0.000325836
0.000342587
0.000339826
0.000328574
0.00032581
0.000339833
0.000342608
0.000325836
0.00034264
0.000325779
0.000342639
0.00032578
0.00034264
0.000325779
0.000342639
0.00032578
0.000365159
0.000348296
0.000365159
0.000348296
0.000342465
0.000325775
0.000325775
0.000342644
0.000342644
0.000325778
0.00034264
0.000325778
0.00034264
0.000320122
0.00030326
0.000320122
0.00030326
0.000320125
0.000320125
0.000303414
0.000303257
0.000303257
0.000280742
0.000297604
0.000280742
0.000297604
0.000297428
0.000280739
0.000280739
0.000297607
0.000297607
0.000303262
0.000320121
0.000320122
0.000303261
0.000303318
0.000320089
0.000317315
0.000306048
0.000320069
0.000303292
0.000306056
0.000303318
0.00032009
0.000317315
0.000306048
0.000320069
0.000303292
0.000306056
0.000297604
0.000280742
0.000297603
0.000280744
0.000297604
0.000280743
0.000297603
0.000280744
0.000297551
0.000294789
0.000280773
0.000283537
0.000297571
0.000294796
0.000280799
0.000297551
0.000294789
0.000280774
0.000283537
0.000297571
0.000294797
0.000280799
0.000320126
0.000320125
0.000303415
0.000303257
0.000303257
0.000320123
0.00030326
0.000280742
0.000297604
0.000297428
0.000280739
0.000280739
0.000297607
0.000297607
0.000280741
0.000297604
0.000303318
0.000320089
0.000317315
0.000306048
0.000320069
0.000303292
0.000306055
0.000303261
0.000320121
0.000320122
0.00030326
0.000303318
0.000317315
0.000320089
0.000306048
0.000320069
0.000306055
0.000303292
0.000297604
0.000280742
0.000297603
0.000280743
0.000297551
0.000294789
0.000280774
0.000283537
0.000297571
0.000294796
0.0002808
0.000297604
0.000280742
0.000297603
0.000280743
0.000297551
0.000294789
0.000283537
0.000280774
0.000294796
0.000297571
0.000280799
0.000303262
0.000320121
0.000320122
0.000303261
0.000303318
0.000317315
0.00032009
0.000306049
0.000320069
0.000306056
0.000303292
0.000303262
0.000320121
0.000320122
0.000303261
0.000297551
0.000294789
0.000280774
0.000283537
0.000297571
0.000294797
0.0002808
0.000297604
0.000280743
0.000297603
0.000280744
0.000297551
0.00029479
0.000283538
0.000280774
0.000294797
0.000297571
0.0002808
0.000297604
0.000280743
0.000297603
0.000280744
0.000320125
0.000320125
0.000303414
0.000303257
0.000303257
0.000320122
0.00030326
0.000280741
0.000297604
0.000297428
0.000280739
0.000280739
0.000297607
0.000297607
0.000280742
0.000297604
0.000303318
0.000317315
0.00032009
0.000306048
0.000320069
0.000306056
0.000303292
0.000303262
0.000320121
0.000320122
0.00030326
0.000303262
0.000320121
0.000320122
0.000303261
0.000297551
0.000294789
0.000283537
0.000280773
0.000294796
0.000297571
0.0002808
0.000297551
0.000294789
0.000283537
0.000280774
0.000294796
0.000297571
0.0002808
0.000297604
0.000280742
0.000297603
0.000280744
0.000297604
0.000280743
0.000297603
0.000280744
0.000320122
0.00030326
0.000320122
0.00030326
0.000297428
0.000280739
0.000280739
0.000297607
0.000297607
0.000280742
0.000297604
0.000280742
0.000297604
0.000275086
0.000258223
0.000275086
0.000258223
0.000275089
0.000275089
0.000258378
0.000258221
0.000258221
0.000235705
0.000252567
0.000235705
0.000252567
0.000252392
0.000235702
0.000235702
0.000252571
0.000252571
0.000258225
0.000275085
0.000275086
0.000258224
0.000258281
0.000275053
0.000272278
0.000261012
0.000275033
0.000258255
0.000261019
0.000258281
0.000275053
0.000272278
0.000261012
0.000275033
0.000258255
0.000261019
0.000252567
0.000235706
0.000252566
0.000235707
0.000252567
0.000235706
0.000252566
0.000235707
0.000252514
0.000249753
0.000235737
0.000238501
0.000252535
0.00024976
0.000235763
0.000252514
0.000249753
0.000235737
0.000238501
0.000252535
0.00024976
0.000235763
0.000275089
0.000275089
0.000258378
0.000258221
0.000258221
0.000275086
0.000258223
0.000235705
0.000252568
0.000252392
0.000235703
0.000235703
0.000252571
0.000252571
0.000235705
0.000252568
0.000258281
0.000275053
0.000272278
0.000261012
0.000275032
0.000258255
0.000261019
0.000258225
0.000275085
0.000275086
0.000258224
0.000258281
0.000272278
0.000275053
0.000261012
0.000275033
0.000261019
0.000258255
0.000252567
0.000235706
0.000252566
0.000235707
0.000252514
0.000249753
0.000235737
0.000238501
0.000252535
0.00024976
0.000235763
0.000252567
0.000235706
0.000252566
0.000235707
0.000252514
0.000249753
0.000238501
0.000235737
0.00024976
0.000252535
0.000235763
0.000258225
0.000275085
0.000275086
0.000258224
0.000258281
0.000272278
0.000275053
0.000261012
0.000275033
0.000261019
0.000258255
0.000258225
0.000275085
0.000275086
0.000258224
0.000252514
0.000249753
0.000235737
0.000238501
0.000252535
0.00024976
0.000235763
0.000252567
0.000235706
0.000252566
0.000235707
0.000252514
0.000249753
0.000238501
0.000235737
0.00024976
0.000252535
0.000235763
0.000252567
0.000235706
0.000252566
0.000235707
0.000275089
0.000275089
0.000258378
0.000258221
0.000258221
0.000275086
0.000258223
0.000235705
0.000252568
0.000252392
0.000235703
0.000235702
0.000252571
0.000252571
0.000235705
0.000252568
0.000258282
0.000272278
0.000275053
0.000261012
0.000275032
0.000261019
0.000258255
0.000258225
0.000275085
0.000275086
0.000258224
0.000258226
0.000275085
0.000275085
0.000258224
0.000252514
0.000249753
0.000238501
0.000235737
0.00024976
0.000252535
0.000235763
0.000252514
0.000249753
0.000238501
0.000235737
0.00024976
0.000252535
0.000235763
0.000252567
0.000235706
0.000252566
0.000235707
0.000252567
0.000235706
0.000252566
0.000235707
0.000275086
0.000258223
0.000275086
0.000258223
0.000252392
0.000235702
0.000235702
0.000252571
0.000252571
0.000235705
0.000252567
0.000235705
0.000252568
0.000230049
0.000213186
0.000230049
0.000213186
0.000230052
0.000230052
0.000213342
0.000213184
0.000213184
0.000190664
0.00020753
0.000190664
0.00020753
0.000207355
0.000190664
0.000190664
0.000207533
0.000207533
0.000213189
0.000230048
0.000230049
0.000213187
0.000213245
0.000230016
0.000227242
0.000215976
0.000229996
0.000213219
0.000215982
0.000213245
0.000230016
0.000227242
0.000215976
0.000229996
0.000213219
0.000215982
0.000207528
0.000190666
0.000207528
0.00019067
0.000207528
0.000190666
0.000207528
0.00019067
0.000207476
0.000204718
0.000190705
0.000193463
0.000207495
0.000204724
0.000190726
0.000207476
0.000204718
0.000190704
0.000193463
0.000207495
0.000204724
0.000190726
0.000230052
0.000230052
0.000213342
0.000213184
0.000213184
0.000230049
0.000213186
0.000190664
0.00020753
0.000207355
0.000190664
0.000190664
0.000207532
0.000207532
0.000190663
0.00020753
0.000213245
0.000230016
0.000227242
0.000215976
0.000229996
0.00021322
0.000215982
0.000213189
0.000230048
0.000230049
0.000213187
0.000213245
0.000227242
0.000230016
0.000215976
0.000229996
0.000215982
0.00021322
0.000207529
0.000190666
0.000207528
0.00019067
0.000207476
0.000204718
0.000190705
0.000193463
0.000207495
0.000204724
0.000190726
0.000207529
0.000190666
0.000207528
0.00019067
0.000207476
0.000204718
0.000193463
0.000190705
0.000204724
0.000207495
0.000190726
0.000213189
0.000230048
0.000230049
0.000213187
0.000213245
0.000227242
0.000230016
0.000215976
0.000229996
0.000215982
0.000213219
0.000213189
0.000230048
0.000230049
0.000213187