/*--------------------------------*- C++ -*----------------------------------*\
| =========                 |                                                 |
| \\      /  F ield         | OpenFOAM: The Open Source CFD Toolbox           |
|  \\    /   O peration     | Version:  2206                                  |
|   \\  /    A nd           | Website:  www.openfoam.com                      |
|    \\/     M anipulation  |                                                 |
\*---------------------------------------------------------------------------*/
FoamFile
{
    version     2.0;
    format      ascii;
    arch        "LSB;label=32;scalar=64";
    class       volVectorField;
    location    "16.5";
    object      U;
}
// * * * * * * * * * * * * * * * * * * * * * * * * * * * * * * * * * * * * * //

dimensions      [0 1 -1 0 0 0 0];

internalField   nonuniform List<vector> 
28673
(
(-3.4218e-07 5.43177e-07 0.101945)
(-3.93252e-05 -3.93392e-05 0.101917)
(-5.38819e-07 -5.54491e-07 0.101962)
(-3.07686e-07 5.20024e-07 0.101945)
(5.39631e-07 -3.09145e-07 0.101945)
(-3.9302e-05 -3.93171e-05 0.101917)
(-5.60529e-07 -5.59155e-07 0.101962)
(-2.49859e-07 4.72365e-07 0.101944)
(5.24526e-07 -2.81818e-07 0.101945)
(-3.93037e-05 -3.93053e-05 0.101917)
(-4.92495e-07 -4.31065e-07 0.101962)
(-4.67995e-07 6.09552e-07 0.101944)
(5.8429e-07 -4.617e-07 0.101944)
(-3.94924e-05 -3.94746e-05 0.101916)
(-4.93118e-07 -5.22053e-07 0.101962)
(-3.62292e-07 5.43572e-07 0.101945)
(5.65186e-07 -3.66126e-07 0.101945)
(-3.93519e-05 -3.93754e-05 0.101917)
(-5.19529e-07 -5.26599e-07 0.101962)
(-3.50634e-07 5.46398e-07 0.101945)
(5.50863e-07 -3.4721e-07 0.101945)
(-3.9346e-05 -3.93603e-05 0.101917)
(-5.22513e-07 -5.25112e-07 0.101962)
(-3.51142e-07 5.47026e-07 0.101945)
(5.4946e-07 -3.46783e-07 0.101945)
(-3.93482e-05 -3.93585e-05 0.101917)
(-5.33786e-07 -5.34841e-07 0.101962)
(-3.47169e-07 5.44169e-07 0.101945)
(5.45396e-07 -3.42943e-07 0.101945)
(-3.93413e-05 -3.93511e-05 0.101917)
(-5.22335e-07 -5.22113e-07 0.101963)
(-4.64222e-07 6.16274e-07 0.101945)
(6.17812e-07 -4.61952e-07 0.101945)
(-3.91949e-05 -3.92058e-05 0.101917)
(-5.97709e-07 -5.91692e-07 0.101964)
(-1.18737e-06 1.04772e-06 0.101945)
(1.04716e-06 -1.18548e-06 0.101945)
(-3.78788e-05 -3.78938e-05 0.101917)
(-8.04885e-08 -7.36473e-08 0.101967)
(-2.84011e-06 2.42502e-06 0.101944)
(2.41397e-06 -2.8263e-06 0.101944)
(-3.70825e-05 -3.70917e-05 0.101916)
(-5.77177e-06 -5.71675e-06 0.101964)
(-2.16527e-06 2.84856e-06 0.101939)
(2.81072e-06 -2.14871e-06 0.101939)
(-2.64046e-05 -2.63821e-05 0.101917)
(-4.312e-05 -4.29896e-05 0.101892)
(4.11123e-05 -3.45222e-05 0.101878)
(-3.4607e-05 4.10958e-05 0.101878)
(4.95153e-05 4.95539e-05 0.101862)
(-5.64505e-07 3.67826e-07 0.101945)
(4.0887e-05 -4.08626e-05 0.101918)
(-3.47119e-07 5.47081e-07 0.101945)
(-4.08926e-05 -4.08818e-05 0.101918)
(5.6868e-07 3.55988e-07 0.101945)
(-5.60183e-07 3.62578e-07 0.101945)
(5.61141e-07 3.25751e-07 0.101945)
(-5.43666e-07 3.38144e-07 0.101945)
(-3.93307e-05 3.93033e-05 0.101917)
(4.09128e-05 -4.08879e-05 0.101918)
(3.37567e-07 5.3483e-07 0.101945)
(3.52682e-07 -5.58651e-07 0.101945)
(-3.61413e-07 -5.60057e-07 0.101945)
(-3.17429e-07 5.27295e-07 0.101945)
(-3.3832e-07 -5.49489e-07 0.101945)
(-4.0868e-05 4.09043e-05 0.101918)
(-5.43496e-07 -3.59158e-07 0.101945)
(5.47603e-07 -3.20735e-07 0.101945)
(-5.30019e-07 -3.37163e-07 0.101945)
(4.08818e-05 4.08995e-05 0.101918)
(3.93206e-05 3.92863e-05 0.101917)
(-4.09284e-05 -4.09047e-05 0.101918)
(5.50914e-07 3.20617e-07 0.101945)
(-5.37246e-07 3.2853e-07 0.101945)
(5.49559e-07 3.23003e-07 0.101945)
(-5.16122e-07 3.03458e-07 0.101945)
(-3.93078e-05 3.9281e-05 0.101917)
(4.09407e-05 -4.0919e-05 0.101918)
(3.27259e-07 5.30579e-07 0.101945)
(3.40598e-07 -5.52763e-07 0.101945)
(3.16819e-07 5.36929e-07 0.101945)
(3.29868e-07 -5.47472e-07 0.101945)
(-3.29001e-07 -5.41802e-07 0.101945)
(-2.85445e-07 4.97182e-07 0.101945)
(-3.35199e-07 -5.42752e-07 0.101944)
(3.92997e-05 -3.93282e-05 0.101917)
(-4.09173e-05 4.09499e-05 0.101918)
(-5.23258e-07 -3.26225e-07 0.101945)
(5.31004e-07 -3.09505e-07 0.101945)
(-5.3565e-07 -3.24269e-07 0.101945)
(4.08946e-05 4.09247e-05 0.101918)
(3.9292e-05 3.92921e-05 0.101917)
(-4.09132e-05 -4.07766e-05 0.101918)
(5.06465e-07 2.74369e-07 0.101944)
(-4.92475e-07 2.66462e-07 0.101944)
(5.77709e-07 4.59782e-07 0.101944)
(-6.76347e-07 4.71325e-07 0.101944)
(-3.92609e-05 3.92306e-05 0.101917)
(4.07635e-05 -4.07415e-05 0.101918)
(2.94307e-07 5.15015e-07 0.101945)
(3.26684e-07 -5.48543e-07 0.101944)
(3.2674e-07 6.31156e-07 0.101944)
(3.10611e-07 -5.59617e-07 0.101944)
(-2.8163e-07 -4.95791e-07 0.101944)
(-4.55237e-07 6.51288e-07 0.101944)
(-4.64079e-07 -6.07259e-07 0.101944)
(3.92624e-05 -3.93046e-05 0.101917)
(-4.09581e-05 4.09349e-05 0.101918)
(-4.93234e-07 -2.66405e-07 0.101945)
(5.07302e-07 -3.76896e-07 0.101944)
(-6.40951e-07 -4.28016e-07 0.101944)
(4.07782e-05 4.08315e-05 0.101918)
(3.9394e-05 3.94924e-05 0.101916)
(-4.08552e-05 -4.08837e-05 0.101918)
(6.17664e-07 5.06698e-07 0.101944)
(-6.33182e-07 4.83243e-07 0.101944)
(5.88795e-07 3.85004e-07 0.101945)
(-5.60156e-07 3.97892e-07 0.101945)
(-3.94919e-05 3.94625e-05 0.101917)
(4.08986e-05 -4.08717e-05 0.101918)
(4.23971e-07 6.6541e-07 0.101944)
(4.20316e-07 -6.35524e-07 0.101944)
(4.16339e-07 5.42149e-07 0.101945)
(4.39927e-07 -5.86766e-07 0.101945)
(-5.06098e-07 -6.28609e-07 0.101944)
(-3.76606e-07 5.43632e-07 0.101945)
(-3.98339e-07 -5.69916e-07 0.101945)
(3.9312e-05 -3.94022e-05 0.101916)
(-4.08111e-05 4.0869e-05 0.101918)
(-6.51015e-07 -4.80627e-07 0.101944)
(5.89015e-07 -3.92249e-07 0.101945)
(-5.41914e-07 -4.01832e-07 0.101945)
(4.08705e-05 4.08809e-05 0.101918)
(3.9391e-05 3.93334e-05 0.101917)
(-4.09022e-05 -4.08848e-05 0.101918)
(5.77072e-07 3.71808e-07 0.101945)
(-5.59893e-07 3.83881e-07 0.101945)
(5.67924e-07 3.56171e-07 0.101945)
(-5.63304e-07 3.7163e-07 0.101945)
(-3.93581e-05 3.93341e-05 0.101917)
(4.09102e-05 -4.08858e-05 0.101918)
(3.89599e-07 5.35954e-07 0.101945)
(4.06367e-07 -5.73318e-07 0.101945)
(3.57258e-07 5.45061e-07 0.101945)
(3.69513e-07 -5.62141e-07 0.101945)
(-3.79091e-07 -5.62526e-07 0.101945)
(-3.50514e-07 5.46333e-07 0.101945)
(-3.68626e-07 -5.60358e-07 0.101945)
(3.93779e-05 -3.93912e-05 0.101917)
(-4.08795e-05 4.09097e-05 0.101918)
(-5.3401e-07 -3.8282e-07 0.101945)
(5.50217e-07 -3.46298e-07 0.101945)
(-5.42076e-07 -3.66892e-07 0.101945)
(4.08834e-05 4.09019e-05 0.101918)
(3.93566e-05 3.93341e-05 0.101917)
(-4.09056e-05 -4.08819e-05 0.101918)
(5.66547e-07 3.62013e-07 0.101945)
(-5.64173e-07 3.71007e-07 0.101945)
(5.65871e-07 3.59019e-07 0.101945)
(-5.66468e-07 3.71785e-07 0.101945)
(-3.93505e-05 3.93233e-05 0.101917)
(4.09089e-05 -4.08851e-05 0.101918)
(3.56103e-07 5.48666e-07 0.101945)
(3.66884e-07 -5.68186e-07 0.101945)
(3.52488e-07 5.51087e-07 0.101945)
(3.64764e-07 -5.64925e-07 0.101945)
(-3.67811e-07 -5.59274e-07 0.101945)
(-3.51582e-07 5.48012e-07 0.101945)
(-3.70338e-07 -5.59522e-07 0.101945)
(3.93318e-05 -3.93657e-05 0.101917)
(-4.08813e-05 4.09097e-05 0.101918)
(-5.43263e-07 -3.6488e-07 0.101945)
(5.50064e-07 -3.46773e-07 0.101945)
(-5.47383e-07 -3.64391e-07 0.101945)
(4.08809e-05 4.09043e-05 0.101918)
(3.93546e-05 3.93371e-05 0.101917)
(-4.09015e-05 -4.08769e-05 0.101918)
(5.64126e-07 3.63655e-07 0.101945)
(-5.65515e-07 3.7088e-07 0.101945)
(5.68713e-07 3.6447e-07 0.101945)
(-5.7133e-07 3.77181e-07 0.101945)
(-3.93514e-05 3.93237e-05 0.101917)
(4.09036e-05 -4.08802e-05 0.101918)
(3.52447e-07 5.51411e-07 0.101945)
(3.63354e-07 -5.67635e-07 0.101945)
(3.56667e-07 5.55203e-07 0.101945)
(3.69341e-07 -5.69437e-07 0.101945)
(-3.68659e-07 -5.57551e-07 0.101945)
(-3.57536e-07 5.51993e-07 0.101945)
(-3.76701e-07 -5.63297e-07 0.101945)
(3.93309e-05 -3.93659e-05 0.101917)
(-4.08772e-05 4.09042e-05 0.101918)
(-5.45885e-07 -3.62601e-07 0.101945)
(5.52677e-07 -3.51678e-07 0.101945)
(-5.51934e-07 -3.6937e-07 0.101945)
(4.08756e-05 4.08996e-05 0.101918)
(3.93464e-05 3.93298e-05 0.101917)
(-4.08383e-05 -4.08137e-05 0.101918)
(5.60195e-07 3.60038e-07 0.101945)
(-5.62645e-07 3.66898e-07 0.101945)
(5.28843e-07 3.1709e-07 0.101945)
(-5.32448e-07 3.3009e-07 0.101945)
(-3.93445e-05 3.93163e-05 0.101917)
(4.08415e-05 -4.08171e-05 0.101918)
(3.4755e-07 5.4824e-07 0.101945)
(3.58815e-07 -5.62602e-07 0.101945)
(3.09112e-07 5.16446e-07 0.101945)
(3.22549e-07 -5.30585e-07 0.101945)
(-3.64929e-07 -5.53831e-07 0.101945)
(-3.1045e-07 5.12967e-07 0.101945)
(-3.29871e-07 -5.24402e-07 0.101945)
(3.9323e-05 -3.93577e-05 0.101917)
(-4.08155e-05 4.08427e-05 0.101918)
(-5.43111e-07 -3.57963e-07 0.101945)
(5.13165e-07 -3.04939e-07 0.101945)
(-5.1308e-07 -3.20451e-07 0.101945)
(4.08129e-05 4.08373e-05 0.101918)
(3.92e-05 3.91843e-05 0.101917)
(-3.98988e-05 -3.98723e-05 0.101919)
(6.318e-07 4.79263e-07 0.101945)
(-6.3391e-07 4.83407e-07 0.101945)
(2.00811e-07 -2.01423e-07 0.101945)
(-2.07833e-07 -1.88018e-07 0.101945)
(-3.91986e-05 3.9171e-05 0.101917)
(3.99019e-05 -3.98745e-05 0.101919)
(4.65792e-07 6.20033e-07 0.101945)
(4.76418e-07 -6.34266e-07 0.101945)
(-2.11377e-07 1.90314e-07 0.101945)
(-1.92445e-07 -2.0356e-07 0.101945)
(-4.82494e-07 -6.25041e-07 0.101945)
(2.09525e-07 1.87854e-07 0.101945)
(1.91931e-07 -1.99669e-07 0.101945)
(3.91773e-05 -3.9211e-05 0.101917)
(-3.98747e-05 3.99041e-05 0.101919)
(-6.15635e-07 -4.73334e-07 0.101945)
(1.86691e-07 2.1482e-07 0.101945)
(-1.88261e-07 2.08076e-07 0.101945)
(3.98731e-05 3.98963e-05 0.101918)
(3.78883e-05 3.78752e-05 0.101917)
(-3.96263e-05 -3.95921e-05 0.101919)
(1.05976e-06 1.20272e-06 0.101945)
(-1.06082e-06 1.2079e-06 0.101945)
(-9.17127e-07 -1.51359e-06 0.101946)
(9.07068e-07 -1.50814e-06 0.101946)
(-3.7887e-05 3.78593e-05 0.101917)
(3.96273e-05 -3.95937e-05 0.101919)
(1.19406e-06 1.05118e-06 0.101945)
(1.20091e-06 -1.06163e-06 0.101945)
(-1.5322e-06 -9.16712e-07 0.101946)
(-1.51328e-06 9.12052e-07 0.101946)
(-1.20424e-06 -1.05151e-06 0.101945)
(1.52725e-06 -9.18081e-07 0.101946)
(1.50415e-06 9.10418e-07 0.101946)
(3.78666e-05 -3.78982e-05 0.101917)
(-3.96017e-05 3.96274e-05 0.101919)
(-1.04404e-06 -1.19567e-06 0.101945)
(-9.30523e-07 1.53245e-06 0.101946)
(9.20642e-07 1.52151e-06 0.101946)
(3.9592e-05 3.96202e-05 0.101919)
(3.70846e-05 3.70861e-05 0.101916)
(-3.40821e-05 -3.40311e-05 0.101919)
(2.42392e-06 2.85132e-06 0.101944)
(-2.4341e-06 2.86224e-06 0.101944)
(-4.77681e-06 -6.51363e-06 0.101948)
(4.75487e-06 -6.5094e-06 0.101948)
(-3.70872e-05 3.70783e-05 0.101916)
(3.40461e-05 -3.40378e-05 0.101919)
(2.83337e-06 2.42501e-06 0.101944)
(2.84592e-06 -2.42937e-06 0.101944)
(-6.55374e-06 -4.75526e-06 0.101948)
(-6.54025e-06 4.76619e-06 0.101948)
(-2.8531e-06 -2.4152e-06 0.101944)
(6.5293e-06 -4.73704e-06 0.101948)
(6.5254e-06 4.76726e-06 0.101948)
(3.708e-05 -3.70939e-05 0.101916)
(-3.40634e-05 3.4062e-05 0.101919)
(-2.4153e-06 -2.84102e-06 0.101944)
(-4.76681e-06 6.53348e-06 0.101948)
(4.75734e-06 6.53835e-06 0.101948)
(3.40325e-05 3.40641e-05 0.101919)
(2.63518e-05 2.642e-05 0.101917)
(-4.50004e-05 -4.48233e-05 0.101884)
(2.80027e-06 2.19406e-06 0.101939)
(-2.8298e-06 2.20021e-06 0.101939)
(-3.67315e-05 -5.70684e-05 0.101919)
(3.67283e-05 -5.71086e-05 0.101919)
(-2.64e-05 2.64185e-05 0.101917)
(4.49916e-05 -4.48382e-05 0.101884)
(2.13042e-06 2.83381e-06 0.101939)
(2.15142e-06 -2.80275e-06 0.101939)
(-5.7263e-05 -3.66247e-05 0.101919)
(-5.72132e-05 3.67308e-05 0.101919)
(-2.17354e-06 -2.79958e-06 0.101939)
(5.72432e-05 -3.66374e-05 0.101919)
(5.72014e-05 3.67413e-05 0.101919)
(2.63608e-05 -2.63965e-05 0.101917)
(-4.49447e-05 4.49857e-05 0.101884)
(-2.81563e-06 -2.1477e-06 0.101939)
(-3.67048e-05 5.72192e-05 0.101919)
(3.6716e-05 5.72595e-05 0.101919)
(4.49434e-05 4.49894e-05 0.101884)
(-4.95717e-05 -4.93835e-05 0.101862)
(-3.46373e-05 -4.09257e-05 0.101878)
(3.46277e-05 -4.09581e-05 0.101878)
(4.95591e-05 -4.93862e-05 0.101862)
(-4.11334e-05 -3.45165e-05 0.101878)
(-4.10814e-05 3.46271e-05 0.101878)
(4.31137e-05 -4.29898e-05 0.101892)
(-4.3091e-05 4.31234e-05 0.101892)
(4.31117e-05 4.3137e-05 0.101892)
(4.10796e-05 3.46403e-05 0.101878)
(-4.95095e-05 4.95534e-05 0.101862)
(3.46221e-05 4.11322e-05 0.101878)
(3.7978e-08 -7.91789e-06 0.100774)
(7.17696e-07 5.97951e-06 0.0958024)
(-2.04003e-08 7.71958e-06 0.100769)
(-1.02865e-06 -6.07763e-06 0.0958102)
(-1.58922e-06 2.11411e-06 0.0855495)
(1.57068e-06 -2.21507e-06 0.0855581)
(-7.94826e-06 2.03945e-08 0.100774)
(-6.05761e-06 -1.03935e-06 0.0958097)
(5.35022e-07 -5.26472e-07 0.101962)
(5.38402e-07 5.14791e-07 0.101962)
(-5.30218e-07 -5.49692e-07 0.101962)
(5.56681e-07 -5.48005e-07 0.101962)
(-5.23192e-07 5.38445e-07 0.101962)
(5.5492e-07 5.30286e-07 0.101962)
(1.29738e-05 1.58678e-09 0.101728)
(-1.22451e-05 3.58899e-06 0.10098)
(-4.26842e-07 -1.61815e-07 0.101958)
(-3.36562e-07 5.39829e-07 0.101945)
(-1.29886e-05 -1.83449e-08 0.101726)
(1.18294e-05 -3.86778e-06 0.100987)
(-4.17797e-07 -1.65011e-07 0.101958)
(-2.04428e-06 1.45959e-06 0.0855577)
(1.59724e-08 1.29544e-05 0.101728)
(-1.51023e-07 -4.27116e-07 0.101958)
(5.52353e-07 -3.36136e-07 0.101945)
(-7.95109e-09 -1.29807e-05 0.101726)
(-1.49523e-07 -4.22288e-07 0.101958)
(-3.85164e-06 1.18461e-05 0.100987)
(-3.91179e-06 -4.73048e-06 0.0995337)
(-4.71768e-06 -3.90838e-06 0.0995333)
(4.08713e-05 4.08888e-05 0.101918)
(3.73479e-06 4.56905e-06 0.0995411)
(4.56809e-06 3.72464e-06 0.0995406)
(2.53347e-08 -7.97494e-06 0.100774)
(7.46884e-07 5.93442e-06 0.0958029)
(-2.6072e-08 7.65372e-06 0.100769)
(-9.91606e-07 -6.11881e-06 0.0958108)
(-1.5687e-06 2.01862e-06 0.0855509)
(1.64691e-06 -2.29849e-06 0.0855597)
(-8.01447e-06 1.59402e-08 0.100773)
(5.95215e-06 6.96499e-07 0.0958025)
(7.72174e-06 -1.94735e-08 0.100769)
(-6.11133e-06 -9.77076e-07 0.0958103)
(5.54708e-07 -5.46073e-07 0.101962)
(-5.30773e-07 5.45052e-07 0.101962)
(5.59489e-07 5.35942e-07 0.101962)
(-5.5476e-07 -5.55995e-07 0.101962)
(5.61814e-07 -5.55803e-07 0.101962)
(-5.49415e-07 5.56676e-07 0.101962)
(5.61112e-07 5.48284e-07 0.101962)
(1.30219e-05 -6.73076e-09 0.101728)
(-1.21671e-05 3.51656e-06 0.10098)
(-3.81618e-07 -1.71551e-07 0.101958)
(-3.1233e-07 5.28381e-07 0.101945)
(-1.29073e-05 -2.84122e-08 0.101726)
(1.19059e-05 -3.96889e-06 0.100987)
(-3.80194e-07 -1.76439e-07 0.101958)
(1.94986e-06 -1.51639e-06 0.0855478)
(-2.17867e-06 1.53281e-06 0.0855588)
(3.1607e-09 1.3006e-05 0.101728)
(-1.5539e-07 -3.82931e-07 0.101958)
(3.57883e-06 -1.22261e-05 0.10098)
(5.31672e-07 -3.04006e-07 0.101945)
(-1.32731e-08 -1.28985e-05 0.101726)
(-1.63683e-07 -3.78564e-07 0.101958)
(-3.95188e-06 1.19321e-05 0.100987)
(-3.92238e-06 -4.70666e-06 0.0995337)
(-4.69266e-06 -3.91787e-06 0.0995333)
(4.08982e-05 4.09202e-05 0.101918)
(3.71406e-06 4.60735e-06 0.099541)
(4.60401e-06 3.70742e-06 0.0995405)
(-3.29492e-08 -8.02479e-06 0.100774)
(7.53829e-07 5.8898e-06 0.0958038)
(-5.14054e-08 7.59072e-06 0.100769)
(-9.89925e-07 -6.11952e-06 0.0958116)
(-1.49128e-06 2.02057e-06 0.0855529)
(1.67668e-06 -2.4952e-06 0.0855631)
(-8.0655e-06 1.11188e-08 0.100773)
(5.85294e-06 7.65029e-07 0.0958031)
(7.64748e-06 -2.91787e-08 0.100769)
(-6.09184e-06 -9.76724e-07 0.0958112)
(5.66919e-07 -5.61705e-07 0.101962)
(-5.5115e-07 5.62869e-07 0.101962)
(5.61651e-07 5.5381e-07 0.101962)
(-5.53854e-07 -4.71163e-07 0.101962)
(4.29606e-07 -4.30493e-07 0.101962)
(-5.78023e-07 5.39185e-07 0.101962)
(4.77143e-07 4.97991e-07 0.101962)
(1.30747e-05 4.54299e-09 0.101728)
(-1.21207e-05 3.44169e-06 0.10098)
(-3.39945e-07 -1.79319e-07 0.101958)
(-2.87599e-07 5.36955e-07 0.101944)
(-1.2875e-05 -2.30272e-08 0.101726)
(1.19873e-05 -3.98901e-06 0.100987)
(-3.42372e-07 -1.66831e-07 0.101958)
(1.80807e-06 -1.42226e-06 0.0855497)
(-2.11985e-06 1.48651e-06 0.085561)
(-2.13311e-08 1.30727e-05 0.101728)
(-1.75426e-07 -3.4204e-07 0.101958)
(3.4503e-06 -1.21626e-05 0.10098)
(4.85765e-07 -2.44203e-07 0.101944)
(-3.48136e-08 -1.28617e-05 0.101726)
(-1.82707e-07 -3.09236e-07 0.101958)
(-3.93365e-06 1.19781e-05 0.100986)
(-3.92945e-06 -4.68191e-06 0.0995336)
(-4.68374e-06 -3.91482e-06 0.0995332)
(4.09793e-05 4.10218e-05 0.101918)
(3.81834e-06 4.71353e-06 0.099541)
(4.68925e-06 3.82536e-06 0.0995405)
(3.81443e-08 -7.61939e-06 0.100774)
(7.25396e-07 6.237e-06 0.0958046)
(-3.017e-08 7.80382e-06 0.100768)
(-9.41692e-07 -5.18862e-06 0.0958116)
(-2.01573e-06 2.63076e-06 0.085553)
(1.469e-06 -1.78332e-06 0.0855587)
(-7.76222e-06 6.14126e-08 0.100773)
(5.73931e-06 8.6022e-07 0.095804)
(7.62403e-06 1.84146e-08 0.100769)
(-5.55652e-06 -9.99444e-07 0.095812)
(4.21642e-07 -4.20439e-07 0.101962)
(-5.12845e-07 4.92494e-07 0.101962)
(4.39647e-07 4.45477e-07 0.101962)
(-4.72041e-07 -5.05437e-07 0.101962)
(5.22672e-07 -5.1347e-07 0.101962)
(-4.53131e-07 4.74657e-07 0.101962)
(5.13884e-07 4.8474e-07 0.101962)
(1.24722e-05 1.62722e-08 0.101728)
(-1.25444e-05 3.86314e-06 0.10098)
(-5.89598e-07 -1.05691e-07 0.101958)
(-4.36934e-07 5.66247e-07 0.101945)
(-1.32219e-05 5.79474e-08 0.101726)
(1.15005e-05 -3.59087e-06 0.100987)
(-5.88894e-07 -1.36355e-07 0.101958)
(1.83262e-06 -1.52648e-06 0.0855531)
(-1.54567e-06 1.13487e-06 0.0855625)
(3.82411e-09 1.24713e-05 0.101728)
(-1.92392e-07 -5.68282e-07 0.101958)
(3.40654e-06 -1.23107e-05 0.10098)
(6.27755e-07 -4.72809e-07 0.101944)
(-7.78611e-08 -1.31748e-05 0.101726)
(-1.41817e-07 -5.99857e-07 0.101958)
(-3.53889e-06 1.15143e-05 0.100986)
(-4.03517e-06 -4.86839e-06 0.0995334)
(-4.88128e-06 -4.01406e-06 0.099533)
(4.07684e-05 4.07983e-05 0.101918)
(3.7337e-06 4.51437e-06 0.0995408)
(4.50322e-06 3.72988e-06 0.0995402)
(3.02102e-08 -7.87363e-06 0.100774)
(7.76735e-07 6.24379e-06 0.0958026)
(-1.68398e-08 7.80869e-06 0.100769)
(-9.87404e-07 -5.92142e-06 0.09581)
(-1.54825e-06 2.20143e-06 0.0855495)
(1.54522e-06 -2.13093e-06 0.0855576)
(-7.88048e-06 8.96795e-10 0.100774)
(6.52683e-06 7.37209e-07 0.0958027)
(7.9502e-06 -6.43256e-08 0.100769)
(-5.83085e-06 -9.76868e-07 0.0958098)
(5.31979e-07 -5.21752e-07 0.101962)
(-4.79604e-07 4.96549e-07 0.101962)
(5.29616e-07 4.99995e-07 0.101962)
(-5.18035e-07 -5.27416e-07 0.101962)
(5.30537e-07 -5.21325e-07 0.101962)
(-5.12414e-07 5.2244e-07 0.101962)
(5.34322e-07 5.1132e-07 0.101962)
(1.28904e-05 2.29246e-09 0.101728)
(-1.2324e-05 3.63418e-06 0.10098)
(-4.74874e-07 -1.6268e-07 0.101958)
(-3.54129e-07 5.44603e-07 0.101945)
(-1.31159e-05 -3.20565e-08 0.101726)
(1.17762e-05 -3.82541e-06 0.100987)
(-4.54849e-07 -1.61503e-07 0.101958)
(2.26806e-06 -1.57781e-06 0.085548)
(-1.97823e-06 1.49077e-06 0.0855577)
(2.66593e-08 1.28694e-05 0.101728)
(-1.21399e-07 -4.8515e-07 0.101958)
(3.82094e-06 -1.24494e-05 0.10098)
(5.5332e-07 -3.51728e-07 0.101945)
(3.29642e-08 -1.3127e-05 0.101726)
(-1.35001e-07 -4.64306e-07 0.101958)
(-3.81585e-06 1.1797e-05 0.100987)
(-3.90295e-06 -4.71579e-06 0.0995337)
(-4.69472e-06 -3.90707e-06 0.0995332)
(4.08868e-05 4.08996e-05 0.101918)
(3.73108e-06 4.5894e-06 0.0995411)
(4.59451e-06 3.71721e-06 0.0995406)
(2.1858e-08 -7.89875e-06 0.100774)
(7.57564e-07 6.09402e-06 0.0958023)
(-3.07851e-08 7.71393e-06 0.100769)
(-9.9237e-07 -5.94651e-06 0.0958099)
(-1.60535e-06 2.14586e-06 0.0855495)
(1.52575e-06 -2.1403e-06 0.0855576)
(-7.94847e-06 1.40132e-08 0.100774)
(6.08208e-06 7.33564e-07 0.095802)
(7.76947e-06 -2.4055e-08 0.100769)
(-5.93657e-06 -9.71112e-07 0.0958097)
(5.29023e-07 -5.20318e-07 0.101962)
(-5.14488e-07 5.23407e-07 0.101962)
(5.34207e-07 5.11566e-07 0.101962)
(-5.21069e-07 -5.2389e-07 0.101962)
(5.2588e-07 -5.1818e-07 0.101962)
(-5.16369e-07 5.2422e-07 0.101962)
(5.30498e-07 5.11774e-07 0.101962)
(1.29078e-05 8.70953e-09 0.101728)
(-1.22629e-05 3.59219e-06 0.10098)
(-4.41095e-07 -1.58034e-07 0.101958)
(-3.49882e-07 5.46922e-07 0.101945)
(-1.30223e-05 -1.65888e-08 0.101726)
(1.17892e-05 -3.82626e-06 0.100987)
(-4.39204e-07 -1.57793e-07 0.101958)
(2.0366e-06 -1.53628e-06 0.0855473)
(-2.0318e-06 1.4674e-06 0.0855576)
(5.43295e-09 1.29005e-05 0.101728)
(-1.51517e-07 -4.40332e-07 0.101958)
(3.62026e-06 -1.23059e-05 0.10098)
(5.49835e-07 -3.45598e-07 0.101945)
(-1.14618e-08 -1.30188e-05 0.101726)
(-1.5299e-07 -4.41387e-07 0.101958)
(-3.85684e-06 1.18356e-05 0.100987)
(-3.91448e-06 -4.72166e-06 0.0995337)
(-4.70981e-06 -3.91016e-06 0.0995333)
(4.08833e-05 4.09051e-05 0.101918)
(3.73557e-06 4.58733e-06 0.0995411)
(4.58419e-06 3.7276e-06 0.0995406)
(2.05987e-08 -7.89818e-06 0.100774)
(7.55893e-07 6.09454e-06 0.0958023)
(-3.39747e-08 7.71272e-06 0.100769)
(-9.92839e-07 -5.94437e-06 0.0958099)
(-1.60609e-06 2.14536e-06 0.0855495)
(1.52325e-06 -2.14101e-06 0.0855576)
(-7.94843e-06 1.41653e-08 0.100774)
(6.07984e-06 7.3543e-07 0.095802)
(7.76352e-06 -2.39273e-08 0.100769)
(-5.93461e-06 -9.6928e-07 0.0958097)
(5.269e-07 -5.19246e-07 0.101962)
(-5.17958e-07 5.25431e-07 0.101962)
(5.32261e-07 5.1302e-07 0.101962)
(-5.12626e-07 -5.13834e-07 0.101962)
(5.15561e-07 -5.08752e-07 0.101962)
(-5.08023e-07 5.15236e-07 0.101962)
(5.19815e-07 5.02944e-07 0.101962)
(1.29062e-05 9.28572e-09 0.101728)
(-1.22625e-05 3.59315e-06 0.10098)
(-4.40654e-07 -1.57459e-07 0.101958)
(-3.53493e-07 5.49671e-07 0.101945)
(-1.30224e-05 -1.56781e-08 0.101726)
(1.17875e-05 -3.82526e-06 0.100987)
(-4.43691e-07 -1.55245e-07 0.101958)
(2.03738e-06 -1.54259e-06 0.0855473)
(-2.03159e-06 1.46613e-06 0.0855577)
(4.56976e-09 1.29016e-05 0.101728)
(-1.55411e-07 -4.3681e-07 0.101958)
(3.62003e-06 -1.23039e-05 0.10098)
(5.50678e-07 -3.47701e-07 0.101945)
(-1.36846e-08 -1.30176e-05 0.101726)
(-1.53209e-07 -4.43435e-07 0.101958)
(-3.85594e-06 1.18339e-05 0.100987)
(-3.9134e-06 -4.7202e-06 0.0995337)
(-4.71158e-06 -3.90705e-06 0.0995333)
(4.08804e-05 4.09042e-05 0.101918)
(3.73539e-06 4.58788e-06 0.0995411)
(4.58281e-06 3.72851e-06 0.0995406)
(6.37458e-08 -7.85109e-06 0.100774)
(7.63391e-07 6.06397e-06 0.0958023)
(-4.04537e-08 7.69947e-06 0.100769)
(-1.03266e-06 -5.71641e-06 0.0958105)
(-1.61131e-06 2.14061e-06 0.0855494)
(1.57272e-06 -2.09762e-06 0.0855578)
(-7.89925e-06 5.93096e-08 0.100774)
(6.04937e-06 7.45721e-07 0.0958019)
(7.74954e-06 -3.1585e-08 0.100769)
(-5.70664e-06 -1.01247e-06 0.0958102)
(5.36596e-07 -5.29276e-07 0.101962)
(-5.28863e-07 5.35712e-07 0.101962)
(5.4156e-07 5.23804e-07 0.101962)
(-4.67584e-07 -4.67767e-07 0.101962)
(4.69419e-07 -4.638e-07 0.101962)
(-4.6298e-07 4.68981e-07 0.101962)
(4.72818e-07 4.58491e-07 0.101962)
(1.28509e-05 2.26212e-08 0.101728)
(-1.2235e-05 3.5885e-06 0.10098)
(-4.25387e-07 -1.69206e-07 0.101958)
(-3.54795e-07 5.48704e-07 0.101945)
(-1.30078e-05 -1.80557e-08 0.101726)
(1.16423e-05 -3.80088e-06 0.100987)
(-4.69615e-07 -1.30147e-07 0.101958)
(2.03437e-06 -1.55119e-06 0.0855472)
(-1.99239e-06 1.52218e-06 0.0855578)
(1.86668e-08 1.28452e-05 0.101728)
(-1.681e-07 -4.21542e-07 0.101958)
(3.61326e-06 -1.22756e-05 0.10098)
(5.49167e-07 -3.48654e-07 0.101945)
(-1.62886e-08 -1.30052e-05 0.101726)
(-1.28898e-07 -4.69161e-07 0.101958)
(-3.8279e-06 1.1686e-05 0.100987)
(-3.89891e-06 -4.73175e-06 0.0995337)
(-4.72305e-06 -3.89221e-06 0.0995333)
(4.08614e-05 4.08856e-05 0.101918)
(3.67433e-06 4.67358e-06 0.0995413)
(4.66748e-06 3.66845e-06 0.0995408)
(2.37614e-06 -7.16814e-06 0.100775)
(1.14461e-06 2.62512e-06 0.0957938)
(-6.60503e-07 7.46962e-06 0.100769)
(-2.61403e-06 4.51979e-06 0.0958415)
(-2.28051e-06 1.24919e-06 0.0855473)
(3.4778e-06 1.22112e-06 0.0855662)
(-7.21045e-06 2.38407e-06 0.100775)
(2.60071e-06 1.13523e-06 0.0957934)
(7.51438e-06 -6.56241e-07 0.100769)
(4.5309e-06 -2.60043e-06 0.0958412)
(5.25256e-07 -5.19245e-07 0.101963)
(-5.17523e-07 5.24014e-07 0.101963)
(5.27619e-07 5.14577e-07 0.101963)
(-3.54145e-07 -3.54633e-07 0.101961)
(3.53439e-07 -3.50963e-07 0.101961)
(-3.50101e-07 3.548e-07 0.101961)
(3.52102e-07 3.50784e-07 0.101961)
(1.19238e-05 5.54296e-07 0.101729)
(-1.06472e-05 3.2794e-06 0.100978)
(-3.57918e-07 -2.47057e-07 0.101958)
(-1.36035e-07 3.91783e-07 0.101945)
(-1.26367e-05 -1.74787e-07 0.101726)
(7.33482e-06 -2.79359e-06 0.100993)
(-5.56188e-07 3.14179e-08 0.101958)
(1.16051e-06 -2.23421e-06 0.0855452)
(1.29455e-06 3.44688e-06 0.0855661)
(5.42701e-07 1.19165e-05 0.101729)
(-2.46027e-07 -3.56552e-07 0.101958)
(3.30472e-06 -1.0682e-05 0.100978)
(3.91709e-07 -1.30975e-07 0.101945)
(-1.69768e-07 -1.26387e-05 0.101726)
(3.14828e-08 -5.58753e-07 0.101958)
(-2.82764e-06 7.36838e-06 0.100993)
(-3.45321e-06 -5.54647e-06 0.0995328)
(-5.53917e-06 -3.447e-06 0.0995324)
(4.06514e-05 4.06742e-05 0.101918)
(2.03727e-06 5.38033e-06 0.0995425)
(5.38007e-06 2.02968e-06 0.099542)
(7.53837e-06 -6.28026e-06 0.100781)
(1.48584e-05 -1.67959e-05 0.0956751)
(-8.31254e-06 3.2637e-06 0.100767)
(-1.93485e-05 1.59901e-05 0.0960041)
(-5.56082e-06 -1.12835e-05 0.085505)
(2.41196e-06 1.70579e-05 0.085632)
(-6.27308e-06 7.56038e-06 0.100781)
(-1.68298e-05 1.48515e-05 0.0956748)
(3.26997e-06 -8.33157e-06 0.100767)
(1.60872e-05 -1.9338e-05 0.0960039)
(5.97078e-07 -5.86741e-07 0.101964)
(-5.90718e-07 5.98042e-07 0.101964)
(5.91728e-07 5.90366e-07 0.101964)
(-4.66558e-07 -4.59883e-07 0.101959)
(4.64456e-07 -4.50154e-07 0.101959)
(-4.55585e-07 4.71287e-07 0.101959)
(4.58178e-07 4.602e-07 0.101959)
(1.06401e-05 1.27129e-06 0.101729)
(-2.27217e-06 -1.16991e-06 0.100964)
(-2.19076e-07 -5.02135e-07 0.10196)
(6.57606e-07 -7.70197e-08 0.101945)
(-9.76012e-06 -1.72216e-06 0.101727)
(2.31799e-06 6.18902e-06 0.101015)
(-6.77996e-07 2.77951e-07 0.101956)
(-1.13414e-05 -5.49621e-06 0.0855032)
(1.70824e-05 2.37167e-06 0.0856316)
(1.26197e-06 1.06371e-05 0.101729)
(-5.02297e-07 -2.14721e-07 0.10196)
(-1.15726e-06 -2.30108e-06 0.100964)
(-8.13693e-08 6.67838e-07 0.101945)
(-1.71717e-06 -9.76264e-06 0.101727)
(2.76226e-07 -6.73494e-07 0.101956)
(6.15883e-06 2.34877e-06 0.101014)
(5.74771e-06 5.95696e-06 0.099526)
(5.92769e-06 5.7417e-06 0.0995256)
(3.90648e-05 3.90902e-05 0.101918)
(-3.64769e-06 -1.46846e-05 0.0995722)
(-1.46252e-05 -3.61115e-06 0.0995717)
(4.50367e-06 -5.43431e-06 0.100799)
(-2.29585e-06 -2.81752e-06 0.095447)
(-6.30144e-06 9.56637e-06 0.10075)
(-6.98116e-06 2.25433e-05 0.0962778)
(1.69105e-06 -2.69497e-05 0.085426)
(-1.68447e-05 4.44687e-05 0.085669)
(-5.42062e-06 4.53114e-06 0.100799)
(-2.89486e-06 -2.27045e-06 0.0954466)
(9.55044e-06 -6.28458e-06 0.10075)
(2.26813e-05 -6.98938e-06 0.0962776)
(7.25276e-08 -6.06858e-08 0.101967)
(-7.28041e-08 8.42956e-08 0.101967)
(7.00217e-08 7.95883e-08 0.101967)
(-2.42516e-06 -2.38354e-06 0.101952)
(2.40344e-06 -2.38128e-06 0.101952)
(-2.40597e-06 2.41905e-06 0.101952)
(2.39762e-06 2.42399e-06 0.101952)
(7.95631e-06 6.47486e-07 0.101731)
(1.26951e-06 -2.74659e-06 0.100923)
(-8.05995e-07 -2.1194e-07 0.101962)
(3.24822e-06 -2.32951e-06 0.101946)
(-9.68442e-06 -8.88305e-07 0.101723)
(-5.72153e-06 9.02872e-06 0.101046)
(5.08617e-07 7.89275e-08 0.101953)
(-2.6973e-05 1.69793e-06 0.0854248)
(4.45229e-05 -1.68677e-05 0.0856682)
(6.30808e-07 7.96883e-06 0.101731)
(-2.17209e-07 -7.99379e-07 0.101962)
(-2.71554e-06 1.23831e-06 0.100923)
(-2.3481e-06 3.25485e-06 0.101946)
(-9.04004e-07 -9.69024e-06 0.101723)
(6.29774e-08 5.1962e-07 0.101953)
(9.01692e-06 -5.68398e-06 0.101046)
(9.55159e-06 1.9002e-05 0.0994352)
(1.89555e-05 9.54974e-06 0.0994349)
(3.66642e-05 3.66937e-05 0.101919)
(-1.39162e-05 -2.39008e-05 0.0996811)
(-2.3895e-05 -1.39074e-05 0.0996805)
(4.40178e-06 -5.32416e-06 0.100877)
(5.26999e-07 -4.7204e-05 0.0950402)
(-6.46323e-06 -5.98897e-06 0.100718)
(1.6661e-05 4.23767e-05 0.096843)
(3.37215e-05 -8.07054e-05 0.0854391)
(-5.51342e-05 0.000113509 0.0856839)
(-5.35715e-06 4.40664e-06 0.100877)
(-4.75826e-05 5.70811e-07 0.0950397)
(-6.03275e-06 -6.50287e-06 0.100717)
(4.25713e-05 1.65137e-05 0.0968429)
(5.74844e-06 -5.71196e-06 0.101964)
(-5.74484e-06 5.76606e-06 0.101964)
(5.73867e-06 5.77571e-06 0.101964)
(-2.91065e-05 -2.89978e-05 0.101897)
(2.90996e-05 -2.90038e-05 0.101897)
(-2.90822e-05 2.91156e-05 0.101897)
(2.90955e-05 2.91259e-05 0.101897)
(2.35572e-05 -5.73635e-07 0.101739)
(1.63934e-05 -8.97377e-06 0.100923)
(5.21269e-06 -2.26486e-06 0.101962)
(1.8454e-05 -1.22265e-05 0.101946)
(7.32984e-07 -1.25983e-06 0.101724)
(-5.89906e-06 1.03281e-06 0.101058)
(1.25602e-05 -2.4527e-06 0.101939)
(-8.06764e-05 3.37599e-05 0.085438)
(0.000113199 -5.49922e-05 0.0856831)
(-5.97484e-07 2.35343e-05 0.101739)
(-2.29524e-06 5.21068e-06 0.101962)
(-9.0031e-06 1.6379e-05 0.100923)
(-1.22763e-05 1.84541e-05 0.101946)
(-1.28043e-06 7.20147e-07 0.101724)
(-2.49321e-06 1.25186e-05 0.101939)
(9.40508e-07 -5.88062e-06 0.101058)
(3.13958e-05 4.46057e-05 0.0992875)
(4.45305e-05 3.13926e-05 0.0992873)
(3.2556e-05 3.26503e-05 0.101917)
(-4.07831e-05 -5.48749e-05 0.0999217)
(-5.49311e-05 -4.05935e-05 0.0999209)
(-1.539e-05 -0.00014593 0.101077)
(-0.000131047 -0.000168061 0.0945558)
(-2.52592e-05 -8.65266e-05 0.100615)
(-0.000236906 -0.000138806 0.0983206)
(0.000245505 -0.000406735 0.0860921)
(0.000169713 -0.000348863 0.0925658)
(-0.0001461 -1.54359e-05 0.101077)
(-0.000168884 -0.000130346 0.0945549)
(-8.72609e-05 -2.52029e-05 0.100615)
(-0.000138926 -0.000236942 0.0983199)
(-9.65337e-06 -9.55837e-06 0.101823)
(-1.30519e-05 -3.6967e-05 0.101892)
(-3.71039e-05 -1.29593e-05 0.101892)
(-4.25726e-05 -4.2424e-05 0.101813)
(-1.1329e-05 -1.12353e-05 0.10189)
(-1.04653e-05 -3.93577e-05 0.101821)
(-3.95034e-05 -1.03756e-05 0.101821)
(0.00012126 3.15291e-06 0.101591)
(0.00011404 -6.37745e-05 0.101049)
(6.13388e-05 -1.71975e-05 0.101889)
(5.51842e-05 -4.44585e-05 0.1018)
(7.94168e-05 -1.46573e-05 0.101699)
(8.60568e-05 -5.00501e-05 0.101113)
(5.79563e-05 -1.23596e-05 0.101813)
(-0.000406816 0.000245249 0.0860914)
(-0.000348788 0.000169484 0.0925653)
(3.13129e-06 0.000121136 0.101591)
(-1.72629e-05 6.12993e-05 0.101889)
(-6.39731e-05 0.000114017 0.101049)
(-4.45796e-05 5.51611e-05 0.1018)
(-1.46426e-05 7.93732e-05 0.101699)
(-1.24245e-05 5.79283e-05 0.101813)
(-5.01913e-05 8.58499e-05 0.101113)
(0.000237559 9.53645e-05 0.0992538)
(9.52892e-05 0.000237759 0.099254)
(5.66379e-05 5.6653e-05 0.101776)
(1.42632e-05 -8.85228e-05 0.101332)
(-8.86856e-05 1.43035e-05 0.101332)
(1.03669e-06 -6.07597e-06 0.0958099)
(3.85145e-06 -1.18166e-05 0.100987)
(1.5224e-06 -2.14913e-06 0.0855577)
(4.5305e-06 -3.68844e-06 0.099541)
(3.62689e-06 -4.48628e-06 0.0995424)
(2.04773e-06 -1.46575e-06 0.0855592)
(1.17836e-05 -3.8258e-06 0.100987)