/*--------------------------------*- C++ -*----------------------------------*\
| =========                 |                                                 |
| \\      /  F ield         | OpenFOAM: The Open Source CFD Toolbox           |
|  \\    /   O peration     | Version:  2206                                  |
|   \\  /    A nd           | Website:  www.openfoam.com                      |
|    \\/     M anipulation  |                                                 |
\*---------------------------------------------------------------------------*/
FoamFile
{
    version     2.0;
    format      ascii;
    arch        "LSB;label=32;scalar=64";
    class       volScalarField;
    location    "26";
    object      epsilon;
}
// * * * * * * * * * * * * * * * * * * * * * * * * * * * * * * * * * * * * * //

dimensions      [0 2 -3 0 0 0 0];

internalField   nonuniform List<scalar> 
28335
(
2.97039e-07
3.22306e-07
3.22316e-07
3.5475e-07
2.9704e-07
3.22309e-07
3.22319e-07
3.54755e-07
2.97042e-07
3.22313e-07
3.22322e-07
3.54762e-07
2.97037e-07
3.22313e-07
3.22323e-07
3.5477e-07
2.97034e-07
3.22314e-07
3.22324e-07
3.54772e-07
2.96986e-07
3.22264e-07
3.22274e-07
3.54746e-07
2.96902e-07
3.22182e-07
3.22192e-07
3.54629e-07
2.96897e-07
3.2218e-07
3.2219e-07
3.5464e-07
2.96897e-07
3.22179e-07
3.22189e-07
3.54638e-07
2.96897e-07
3.2218e-07
3.22189e-07
3.54636e-07
2.96897e-07
3.22179e-07
3.22189e-07
3.54634e-07
2.96897e-07
3.22179e-07
3.22189e-07
3.54636e-07
2.96897e-07
3.22179e-07
3.22189e-07
3.54637e-07
2.96897e-07
3.22179e-07
3.22189e-07
3.54637e-07
2.96897e-07
3.22179e-07
3.22189e-07
3.54637e-07
2.96897e-07
3.22179e-07
3.22189e-07
3.54637e-07
2.96897e-07
3.22179e-07
3.22189e-07
3.54637e-07
3.5449e-07
3.22326e-07
3.22331e-07
3.54482e-07
3.22312e-07
3.22339e-07
3.22306e-07
3.22329e-07
3.54498e-07
3.22316e-07
3.22314e-07
3.54496e-07
3.54746e-07
3.54495e-07
3.22329e-07
3.22334e-07
3.22329e-07
3.22333e-07
3.54738e-07
3.54487e-07
3.22315e-07
3.22342e-07
3.22315e-07
3.22341e-07
3.22332e-07
3.22309e-07
3.22331e-07
3.54754e-07
3.54504e-07
3.22317e-07
3.22319e-07
3.22317e-07
3.54501e-07
3.54751e-07
3.54502e-07
3.22332e-07
3.22337e-07
3.22333e-07
3.22337e-07
3.54743e-07
3.54494e-07
3.22318e-07
3.22345e-07
3.22318e-07
3.22345e-07
3.22335e-07
3.22313e-07
3.22335e-07
3.54759e-07
3.5451e-07
3.2232e-07
3.22322e-07
3.2232e-07
3.54508e-07
3.54758e-07
3.54511e-07
3.22336e-07
3.2234e-07
3.22335e-07
3.22339e-07
3.5475e-07
3.54502e-07
3.22322e-07
3.22348e-07
3.22321e-07
3.22347e-07
3.22338e-07
3.22314e-07
3.22337e-07
3.54766e-07
3.54519e-07
3.22323e-07
3.22323e-07
3.22322e-07
3.54516e-07
3.54767e-07
3.54514e-07
3.22337e-07
3.22341e-07
3.22334e-07
3.22339e-07
3.54759e-07
3.54505e-07
3.22322e-07
3.22349e-07
3.2232e-07
3.22347e-07
3.22339e-07
3.22313e-07
3.22337e-07
3.54775e-07
3.54521e-07
3.22324e-07
3.22324e-07
3.22322e-07
3.54519e-07
3.54769e-07
3.54496e-07
3.22335e-07
3.22339e-07
3.22316e-07
3.2232e-07
3.54762e-07
3.54487e-07
3.2232e-07
3.22347e-07
3.22301e-07
3.22328e-07
3.22337e-07
3.22295e-07
3.22319e-07
3.54777e-07
3.54505e-07
3.22322e-07
3.22305e-07
3.22304e-07
3.54504e-07
3.54741e-07
3.54378e-07
3.22285e-07
3.2229e-07
3.22212e-07
3.22216e-07
3.54733e-07
3.5437e-07
3.22271e-07
3.22298e-07
3.22197e-07
3.22224e-07
3.22289e-07
3.22191e-07
3.22214e-07
3.5475e-07
3.54386e-07
3.22274e-07
3.22201e-07
3.22199e-07
3.54385e-07
3.54626e-07
3.54376e-07
3.22205e-07
3.22209e-07
3.22201e-07
3.22205e-07
3.54617e-07
3.54367e-07
3.2219e-07
3.22217e-07
3.22186e-07
3.22213e-07
3.22208e-07
3.2218e-07
3.22204e-07
3.54633e-07
3.54385e-07
3.22193e-07
3.2219e-07
3.22189e-07
3.54384e-07
3.54634e-07
3.54378e-07
3.22203e-07
3.22208e-07
3.222e-07
3.22205e-07
3.54626e-07
3.54369e-07
3.22189e-07
3.22216e-07
3.22186e-07
3.22213e-07
3.22207e-07
3.2218e-07
3.22204e-07
3.54642e-07
3.54386e-07
3.22192e-07
3.2219e-07
3.22188e-07
3.54386e-07
3.54634e-07
3.54375e-07
3.22202e-07
3.22206e-07
3.222e-07
3.22204e-07
3.54625e-07
3.54366e-07
3.22188e-07
3.22214e-07
3.22186e-07
3.22212e-07
3.22205e-07
3.2218e-07
3.22203e-07
3.54641e-07
3.54383e-07
3.2219e-07
3.22189e-07
3.22188e-07
3.54382e-07
3.54632e-07
3.54375e-07
3.22202e-07
3.22206e-07
3.222e-07
3.22204e-07
3.54623e-07
3.54367e-07
3.22188e-07
3.22214e-07
3.22186e-07
3.22212e-07
3.22205e-07
3.22179e-07
3.22203e-07
3.5464e-07
3.54383e-07
3.2219e-07
3.22189e-07
3.22188e-07
3.54382e-07
3.5463e-07
3.54378e-07
3.22201e-07
3.22206e-07
3.222e-07
3.22204e-07
3.54622e-07
3.54369e-07
3.22187e-07
3.22214e-07
3.22186e-07
3.22212e-07
3.22205e-07
3.22179e-07
3.22203e-07
3.54638e-07
3.54385e-07
3.22189e-07
3.22189e-07
3.22188e-07
3.54385e-07
3.54632e-07
3.54377e-07
3.22201e-07
3.22206e-07
3.222e-07
3.22204e-07
3.54624e-07
3.54368e-07
3.22188e-07
3.22214e-07
3.22186e-07
3.22212e-07
3.22205e-07
3.22179e-07
3.22203e-07
3.5464e-07
3.54385e-07
3.2219e-07
3.22189e-07
3.22188e-07
3.54385e-07
3.54632e-07
3.54377e-07
3.22202e-07
3.22206e-07
3.222e-07
3.22204e-07
3.54624e-07
3.54368e-07
3.22188e-07
3.22214e-07
3.22186e-07
3.22212e-07
3.22205e-07
3.22179e-07
3.22203e-07
3.5464e-07
3.54385e-07
3.2219e-07
3.22189e-07
3.22188e-07
3.54384e-07
3.54632e-07
3.54377e-07
3.22201e-07
3.22206e-07
3.222e-07
3.22204e-07
3.54623e-07
3.54368e-07
3.22187e-07
3.22214e-07
3.22186e-07
3.22212e-07
3.22205e-07
3.22179e-07
3.22203e-07
3.54639e-07
3.54385e-07
3.22189e-07
3.22189e-07
3.22188e-07
3.54384e-07
3.54632e-07
3.54377e-07
3.22202e-07
3.22206e-07
3.222e-07
3.22204e-07
3.54623e-07
3.54368e-07
3.22188e-07
3.22214e-07
3.22186e-07
3.22212e-07
3.22205e-07
3.22179e-07
3.22203e-07
3.54639e-07
3.54385e-07
3.22189e-07
3.22189e-07
3.22188e-07
3.54384e-07
3.54632e-07
3.54377e-07
3.22201e-07
3.22206e-07
3.222e-07
3.22204e-07
3.54623e-07
3.54368e-07
3.22188e-07
3.22214e-07
3.22186e-07
3.22212e-07
3.22205e-07
3.22179e-07
3.22203e-07
3.54639e-07
3.54385e-07
3.2219e-07
3.22189e-07
3.22188e-07
3.54384e-07
3.54632e-07
3.22201e-07
3.22206e-07
3.54623e-07
3.22187e-07
3.22213e-07
3.22204e-07
3.54639e-07
3.22189e-07
1.73434e-06
8.84935e-06
2.2937e-05
1.73421e-06
8.85075e-06
2.97039e-07
2.9704e-07
2.97043e-07
2.97041e-07
5.69336e-07
3.22306e-07
1.38018e-06
3.05453e-07
2.29368e-05
5.69349e-07
3.22316e-07
3.05455e-07
1.38014e-06
3.54487e-07
2.93983e-06
2.94057e-06
1.73453e-06
8.84936e-06
1.73503e-06
8.84876e-06
2.29346e-05
2.29334e-05
1.7344e-06
8.85083e-06
1.73485e-06
8.85021e-06
2.97042e-07
2.97045e-07
2.97043e-07
2.9704e-07
2.97041e-07
2.97044e-07
2.97042e-07
5.69364e-07
1.38104e-06
3.05452e-07
3.22309e-07
5.69504e-07
1.38032e-06
3.05455e-07
2.2935e-05
2.29335e-05
5.69375e-07
3.05454e-07
1.38097e-06
3.22319e-07
5.69519e-07
3.05457e-07
1.38028e-06
2.94066e-06
2.94138e-06
3.54499e-07
2.94021e-06
2.94093e-06
1.73458e-06
8.84894e-06
1.73512e-06
8.84848e-06
2.29328e-05
2.29324e-05
1.73444e-06
8.8504e-06
1.73494e-06
8.84991e-06
2.97041e-07
2.97044e-07
2.97042e-07
2.97042e-07
2.97039e-07
2.97042e-07
2.97041e-07
5.69386e-07
1.38112e-06
3.05454e-07
3.22313e-07
5.6953e-07
1.38038e-06
3.05456e-07
2.29329e-05
2.29323e-05
5.69398e-07
3.05456e-07
1.38105e-06
3.22323e-07
5.69546e-07
3.05459e-07
1.38034e-06
2.94082e-06
2.94154e-06
3.54504e-07
2.94036e-06
2.94108e-06
1.73456e-06
8.84879e-06
1.73512e-06
8.84838e-06
2.29325e-05
2.29323e-05
1.73443e-06
8.85025e-06
1.73492e-06
8.84983e-06
2.97042e-07
2.97045e-07
2.97043e-07
2.97039e-07
2.97039e-07
2.97041e-07
2.97039e-07
5.69402e-07
1.38116e-06
3.05455e-07
3.22316e-07
5.69547e-07
1.38041e-06
3.05458e-07
2.29326e-05
2.29323e-05
5.69415e-07
3.05458e-07
1.38108e-06
3.22325e-07
5.69563e-07
3.0546e-07
1.38036e-06
2.94099e-06
2.94171e-06
3.54512e-07
2.94053e-06
2.94125e-06
1.73456e-06
8.8488e-06
1.7351e-06
8.84843e-06
2.29329e-05
2.29331e-05
1.73443e-06
8.85026e-06
1.73491e-06
8.84988e-06
2.97038e-07
2.97041e-07
2.97039e-07
2.97035e-07
2.97034e-07
2.97037e-07
2.97035e-07
5.69414e-07
1.38116e-06
3.05453e-07
3.22315e-07
5.69561e-07
1.38041e-06
3.05454e-07
2.2933e-05
2.2933e-05
5.69426e-07
3.05456e-07
1.38108e-06
3.22324e-07
5.69579e-07
3.05455e-07
1.38036e-06
2.94109e-06
2.94181e-06
3.54519e-07
2.94056e-06
2.94128e-06
1.73472e-06
8.84916e-06
1.73512e-06
8.84919e-06
2.29342e-05
2.2934e-05
1.73459e-06
8.85063e-06
1.73494e-06
8.85064e-06
2.97033e-07
2.97036e-07
2.97035e-07
2.97016e-07
2.97016e-07
2.9702e-07
2.97018e-07
5.6943e-07
1.38122e-06
3.05451e-07
3.22313e-07
5.69571e-07
1.38054e-06
3.05449e-07
2.29343e-05
2.2934e-05
5.69439e-07
3.05452e-07
1.38113e-06
3.22323e-07
5.69583e-07
3.05451e-07
1.38049e-06
2.94112e-06
2.94183e-06
3.5452e-07
2.94071e-06
2.94143e-06
1.73472e-06
8.85009e-06
1.7354e-06
8.84978e-06
2.29335e-05
2.2933e-05
1.73458e-06
8.85143e-06
1.73521e-06
8.85106e-06
2.96987e-07
2.9699e-07
2.96989e-07
2.96911e-07
2.96911e-07
2.96914e-07
2.96912e-07
5.69332e-07
1.38133e-06
3.05405e-07
3.22235e-07
5.69544e-07
1.38048e-06
3.05376e-07
2.29336e-05
2.29329e-05
5.6934e-07
3.05407e-07
1.38124e-06
3.22245e-07
5.69561e-07
3.05378e-07
1.38043e-06
2.94122e-06
2.94193e-06
3.54442e-07
2.94055e-06
2.94126e-06
1.73451e-06
8.8501e-06
1.7351e-06
8.84968e-06
2.29327e-05
2.29325e-05
1.73438e-06
8.85135e-06
1.73492e-06
8.85088e-06
2.96904e-07
2.96907e-07
2.96905e-07
2.96897e-07
2.96899e-07
2.96902e-07
2.969e-07
5.69257e-07
1.38111e-06
3.05321e-07
3.22182e-07
5.69422e-07
1.38032e-06
3.05321e-07
2.2933e-05
2.29327e-05
5.69266e-07
3.05323e-07
1.38103e-06
3.22192e-07
5.69433e-07
3.05323e-07
1.38027e-06
2.94085e-06
2.94156e-06
3.5437e-07
2.94028e-06
2.94099e-06
1.73448e-06
8.85003e-06
1.73504e-06
8.84965e-06
2.29326e-05
2.29324e-05
1.73435e-06
8.85124e-06
1.73485e-06
8.85081e-06
2.96901e-07
2.96904e-07
2.96903e-07
2.96897e-07
2.96899e-07
2.96902e-07
2.969e-07
5.69254e-07
1.38106e-06
3.05319e-07
3.22182e-07
5.69405e-07
1.3803e-06
3.05321e-07
2.2933e-05
2.29327e-05
5.69265e-07
3.05321e-07
1.38098e-06
3.22192e-07
5.69418e-07
3.05322e-07
1.38025e-06
2.94077e-06
2.94148e-06
3.54388e-07
2.94025e-06
2.94096e-06
1.73448e-06
8.85003e-06
1.73503e-06
8.84964e-06
2.29326e-05
2.29325e-05
1.73435e-06
8.8512e-06
1.73485e-06
8.85079e-06
2.969e-07
2.96903e-07
2.96902e-07
2.96897e-07
2.96899e-07
2.96902e-07
2.969e-07
5.69252e-07
1.38105e-06
3.05318e-07
3.22181e-07
5.69404e-07
1.38029e-06
3.0532e-07
2.2933e-05
2.29327e-05
5.69264e-07
3.0532e-07
1.38098e-06
3.22191e-07
5.69418e-07
3.05322e-07
1.38025e-06
2.94077e-06
2.94148e-06
3.54383e-07
2.94025e-06
2.94096e-06
1.73448e-06
8.85003e-06
1.73503e-06
8.84964e-06
2.29327e-05
2.29325e-05
1.73435e-06
8.85119e-06
1.73485e-06
8.85078e-06
2.969e-07
2.96903e-07
2.96902e-07
2.96897e-07
2.96899e-07
2.96902e-07
2.969e-07
5.69252e-07
1.38105e-06
3.05318e-07
3.22181e-07
5.69402e-07
1.38029e-06
3.0532e-07
2.2933e-05
2.29327e-05
5.69264e-07
3.0532e-07
1.38098e-06
3.22191e-07
5.69418e-07
3.05322e-07
1.38025e-06
2.94077e-06
2.94148e-06
3.54387e-07
2.94025e-06
2.94096e-06
1.73448e-06
8.85002e-06
1.73503e-06
8.84964e-06
2.29327e-05
2.29325e-05
1.73435e-06
8.85118e-06
1.73485e-06
8.85077e-06
2.969e-07
2.96903e-07
2.96902e-07
2.96897e-07
2.96899e-07
2.96902e-07
2.969e-07
5.69252e-07
1.38105e-06
3.05318e-07
3.22181e-07
5.69403e-07
1.38029e-06
3.0532e-07
2.2933e-05
2.29327e-05
5.69263e-07
3.0532e-07
1.38098e-06
3.22191e-07
5.69418e-07
3.05322e-07
1.38025e-06
2.94077e-06
2.94148e-06
3.54384e-07
2.94025e-06
2.94096e-06
1.73448e-06
8.85003e-06
1.73503e-06
8.84964e-06
2.29327e-05
2.29325e-05
1.73435e-06
8.85117e-06
1.73485e-06
8.85077e-06
2.969e-07
2.96903e-07
2.96902e-07
2.96897e-07
2.96899e-07
2.96902e-07
2.969e-07
5.69251e-07
1.38105e-06
3.05318e-07
3.22181e-07
5.69404e-07
1.38029e-06
3.0532e-07
2.2933e-05
2.29327e-05
5.69269e-07
3.0532e-07
1.38098e-06
3.22191e-07
5.69421e-07
3.05322e-07
1.38025e-06
2.94077e-06
2.94148e-06
3.54382e-07
2.94025e-06
2.94096e-06
1.73448e-06
8.85002e-06
1.73503e-06
8.84964e-06
2.29327e-05
2.29325e-05
1.73435e-06
8.85117e-06
1.73485e-06
8.85076e-06
2.969e-07
2.96903e-07
2.96902e-07
2.96897e-07
2.96899e-07
2.96902e-07
2.969e-07
5.69251e-07
1.38105e-06
3.05318e-07
3.22181e-07
5.69401e-07
1.3803e-06
3.0532e-07
2.2933e-05
2.29327e-05
5.69279e-07
3.0532e-07
1.38098e-06
3.22191e-07
5.69431e-07
3.05322e-07
1.38025e-06
2.94077e-06
2.94148e-06
3.54383e-07
2.94025e-06
2.94096e-06
1.73448e-06
8.85003e-06
1.73503e-06
8.84964e-06
2.29327e-05
2.29325e-05
1.73435e-06
8.85117e-06
1.73485e-06
8.85076e-06
2.969e-07
2.96903e-07
2.96902e-07
2.96897e-07
2.96899e-07
2.96902e-07
2.969e-07
5.69253e-07
1.38105e-06
3.05318e-07
3.22181e-07
5.69403e-07
1.38029e-06
3.0532e-07
2.2933e-05
2.29326e-05
5.69284e-07
3.0532e-07
1.38098e-06
3.22191e-07
5.69438e-07
3.05322e-07
1.38025e-06
2.94077e-06
2.94148e-06
3.54383e-07
2.94025e-06
2.94096e-06
1.73448e-06
8.85003e-06
1.73503e-06
8.84964e-06
2.29327e-05
2.29325e-05
1.73435e-06
8.85117e-06
1.73485e-06
8.85076e-06
2.969e-07
2.96903e-07
2.96902e-07
2.96897e-07
2.96899e-07
2.96902e-07
2.969e-07
5.69253e-07
1.38105e-06
3.05318e-07
3.22181e-07
5.69404e-07
1.38029e-06
3.0532e-07
2.2933e-05
2.29327e-05
5.69285e-07
3.05321e-07
1.38098e-06
3.22191e-07
5.6944e-07
3.05322e-07
1.38025e-06
2.94077e-06
2.94148e-06
3.54383e-07
2.94025e-06
2.94096e-06
1.73448e-06
8.85003e-06
1.73503e-06
8.84964e-06
2.29327e-05
2.29325e-05
1.73435e-06
8.85117e-06
1.73485e-06
8.85077e-06
2.969e-07
2.96903e-07
2.96902e-07
2.96897e-07
2.96899e-07
2.96902e-07
2.969e-07
5.69253e-07
1.38105e-06
3.05318e-07
3.22181e-07
5.69404e-07
1.38029e-06
3.0532e-07
2.2933e-05
2.29327e-05
5.69283e-07
3.0532e-07
1.38098e-06
3.22191e-07
5.69439e-07
3.05322e-07
1.38025e-06
2.94077e-06
2.94148e-06
3.54384e-07
2.94024e-06
2.94096e-06
1.73448e-06
8.85003e-06
1.73503e-06
8.84964e-06
2.29327e-05
2.29325e-05
1.73435e-06
8.85117e-06
1.73485e-06
8.85077e-06
2.969e-07
2.96903e-07
2.96901e-07
5.69255e-07
1.38105e-06
3.05318e-07
3.22181e-07
5.69403e-07
1.38029e-06
3.0532e-07
2.2933e-05
2.29327e-05
5.69283e-07
3.0532e-07
1.38098e-06
3.22192e-07
5.69437e-07
3.05323e-07
1.38025e-06
2.94077e-06
2.94148e-06
3.54383e-07
2.94029e-06
2.94102e-06
2.2936e-05
2.29373e-05
3.54481e-07
2.93981e-06
2.94048e-06
2.29338e-05
2.29358e-05
2.29351e-05
2.29371e-05
3.54742e-07
2.94004e-06
2.94074e-06
2.94037e-06
2.94106e-06
1.73435e-06
8.85017e-06
5.69334e-07
3.22326e-07
1.38009e-06
3.05454e-07
5.69337e-07
3.22331e-07
1.38025e-06
3.05455e-07
1.73492e-06
8.84907e-06
8.8497e-06
1.73446e-06
1.73493e-06
8.84982e-06
8.85049e-06
1.73447e-06
5.69493e-07
3.22326e-07
1.38018e-06
3.05453e-07
1.38083e-06
3.05453e-07
5.69348e-07
5.69495e-07
3.22331e-07
1.38034e-06
3.05454e-07
1.381e-06
3.05454e-07
5.6935e-07
3.54472e-07
2.94043e-06
2.93964e-06
2.29341e-05
2.29347e-05
2.29368e-05
3.54733e-07
2.9407e-06
2.93994e-06
2.94102e-06
2.9403e-06
2.2932e-05
2.29342e-05
5.6935e-07
3.22312e-07
1.38037e-06
3.05456e-07
1.7342e-06
8.85051e-06
5.69342e-07
3.22339e-07
3.05459e-07
1.38044e-06
1.73474e-06
8.85052e-06
8.85114e-06
1.73433e-06
5.69505e-07
3.22312e-07
1.38046e-06
3.05455e-07
1.3811e-06
3.05455e-07
5.69363e-07
1.73473e-06
8.85013e-06
8.85084e-06
1.73432e-06
5.69498e-07
3.22339e-07
3.05458e-07
1.38053e-06
3.05458e-07
1.38123e-06
5.69355e-07
1.73437e-06
8.84958e-06
5.69341e-07
3.2233e-07
3.05455e-07
1.38015e-06
1.73436e-06
8.85043e-06
5.69493e-07
3.22306e-07
1.38027e-06
3.05452e-07
1.38095e-06
3.05453e-07
5.6935e-07
1.73495e-06
8.84935e-06
8.84997e-06
1.73449e-06
5.69497e-07
3.22329e-07
3.05454e-07
1.38024e-06
3.05454e-07
1.38089e-06
5.69354e-07
1.73494e-06
8.85009e-06
8.85075e-06
1.73448e-06
3.54489e-07
2.9405e-06
2.93984e-06
2.29369e-05
2.29348e-05
2.29369e-05
3.5475e-07
2.94079e-06
2.9401e-06
2.94116e-06
2.94042e-06
2.29347e-05
2.29367e-05
5.69352e-07
3.22315e-07
3.05455e-07
1.3803e-06
1.73419e-06
8.85058e-06
1.7342e-06
8.85114e-06
5.6951e-07
3.22316e-07
3.05454e-07
1.38023e-06
3.05455e-07
1.38088e-06
5.69361e-07
5.69513e-07
3.22314e-07
3.05454e-07
1.38039e-06
3.05454e-07
1.38105e-06
5.69366e-07
1.73472e-06
8.85024e-06
8.8509e-06
1.73431e-06
1.73474e-06
8.85079e-06
8.85145e-06
1.73432e-06
2.29371e-05
2.29377e-05
3.54747e-07
2.94011e-06
2.94083e-06
2.94042e-06
2.94115e-06
2.29348e-05
2.29368e-05
2.29355e-05
2.29375e-05
2.29338e-05
2.29325e-05
2.29351e-05
2.29338e-05
2.94055e-06
2.94126e-06
3.54493e-07
2.94013e-06
2.94085e-06
2.29317e-05
2.29326e-05
2.29331e-05
2.29339e-05
3.5475e-07
2.9402e-06
2.94092e-06
2.94062e-06
2.94135e-06
1.73454e-06
8.85009e-06
1.73503e-06
8.84951e-06
5.69363e-07
1.38091e-06
3.05455e-07
3.22329e-07
5.69507e-07
1.38023e-06
3.05455e-07
5.69365e-07
1.38108e-06
3.05456e-07
3.22334e-07
5.69509e-07
1.38039e-06
3.05456e-07
1.73508e-06
8.84859e-06
8.84907e-06
1.73457e-06
1.73509e-06
8.84933e-06
8.84982e-06
1.73458e-06
5.69522e-07
3.22329e-07
1.38027e-06
3.05454e-07
1.38095e-06
3.05454e-07
5.69377e-07
5.69524e-07
3.22333e-07
1.38043e-06
3.05455e-07
1.38113e-06
3.05455e-07
5.69379e-07
2.94124e-06
2.94056e-06
3.54484e-07
2.94085e-06
2.94012e-06
2.29322e-05
2.29307e-05
2.29327e-05
2.29335e-05
3.54741e-07
2.94095e-06
2.94022e-06
2.94138e-06
2.94072e-06
2.29299e-05
2.2931e-05
5.69379e-07
1.38118e-06
3.05457e-07
3.22315e-07
5.69519e-07
1.38052e-06
3.05457e-07
1.73439e-06
8.85043e-06
1.73483e-06
8.84984e-06
5.6937e-07
3.05459e-07
1.3813e-06
3.22342e-07
5.69513e-07
3.05459e-07
1.38059e-06
1.7349e-06
8.85003e-06
8.85053e-06
1.73444e-06
5.69534e-07
3.22314e-07
1.38055e-06
3.05456e-07
1.38123e-06
3.05456e-07
5.69394e-07
1.73489e-06
8.84967e-06
8.85017e-06
1.73443e-06
5.69528e-07
3.22341e-07
3.05459e-07
1.38063e-06
3.05458e-07
1.38136e-06
5.69384e-07
1.73456e-06
8.84965e-06
1.73505e-06
8.84906e-06
5.6937e-07
3.05456e-07
1.38097e-06
3.22332e-07
5.69511e-07
3.05456e-07
1.38029e-06
1.73455e-06
8.85036e-06
1.73504e-06
8.84978e-06
5.69521e-07
3.22309e-07
1.38036e-06
3.05454e-07
1.38108e-06
3.05455e-07
5.69377e-07
1.73511e-06
8.84888e-06
8.84939e-06
1.73459e-06
5.69527e-07
3.22331e-07
3.05455e-07
1.38033e-06
3.05455e-07
1.38102e-06
5.69384e-07
1.73511e-06
8.8496e-06
8.85009e-06
1.73459e-06
2.94141e-06
2.94061e-06
3.54501e-07
2.94097e-06
2.94019e-06
2.29347e-05
2.29334e-05
2.29327e-05
2.29338e-05
3.54757e-07
2.94107e-06
2.94026e-06
2.94156e-06
2.94069e-06
2.29326e-05
2.29335e-05
5.69381e-07
3.05456e-07
1.38113e-06
3.22317e-07
5.69528e-07
3.05456e-07
1.38044e-06
1.73438e-06
8.85051e-06
1.73483e-06
8.84993e-06
1.73439e-06
8.85106e-06
1.73484e-06
8.8505e-06
5.69537e-07
3.22319e-07
3.05456e-07
1.38032e-06
3.05457e-07
1.38101e-06
5.69389e-07
5.69543e-07
3.22316e-07
3.05455e-07
1.38048e-06
3.05455e-07
1.38118e-06
5.69396e-07
1.73489e-06
8.84975e-06
8.85023e-06
1.73441e-06
1.7349e-06
8.85034e-06
8.85081e-06
1.73443e-06
2.29348e-05
2.29335e-05
2.29355e-05
2.29342e-05
3.54755e-07
2.94029e-06
2.94101e-06
2.94072e-06
2.94143e-06
2.29328e-05
2.29337e-05
2.29335e-05
2.29344e-05
2.2932e-05
2.29314e-05
2.29334e-05
2.29327e-05
2.94069e-06
2.94142e-06
3.54499e-07
2.94028e-06
2.94101e-06
2.29312e-05
2.29317e-05
2.29326e-05
2.2933e-05
3.54756e-07
2.94038e-06
2.9411e-06
2.94078e-06
2.94151e-06
1.73459e-06
8.84966e-06
1.73512e-06
8.84921e-06
5.6939e-07
1.38099e-06
3.05457e-07
3.22332e-07
5.69536e-07
1.38029e-06
3.05457e-07
5.69391e-07
1.38116e-06
3.05458e-07
3.22337e-07
5.69537e-07
1.38045e-06
3.05458e-07
1.73512e-06
8.84841e-06
8.84881e-06
1.73457e-06
1.73513e-06
8.84915e-06
8.84956e-06
1.73458e-06
5.69548e-07
3.22332e-07
1.38031e-06
3.05457e-07
1.38101e-06
3.05456e-07
5.694e-07
5.69549e-07
3.22336e-07
1.38047e-06
3.05457e-07
1.38118e-06
3.05457e-07
5.69401e-07
2.94147e-06
2.94081e-06
3.54489e-07
2.94104e-06
2.94032e-06
2.29302e-05
2.29295e-05
2.29322e-05
2.29327e-05
3.54747e-07
2.94113e-06
2.94043e-06
2.94156e-06
2.94091e-06
2.29294e-05
2.29299e-05
5.69405e-07
1.38126e-06
3.05459e-07
3.22318e-07
5.69548e-07
1.38058e-06
3.05459e-07
1.73443e-06
8.85002e-06
1.73492e-06
8.84955e-06
5.69396e-07
3.05462e-07
1.38139e-06
3.22345e-07
5.69541e-07
3.05462e-07
1.38065e-06
1.73492e-06
8.84985e-06
8.85027e-06
1.73443e-06
5.69559e-07
3.22318e-07
1.38059e-06
3.05458e-07
1.38129e-06
3.05458e-07
5.69415e-07
1.73491e-06
8.84949e-06
8.84992e-06
1.73442e-06
5.69553e-07
3.22344e-07
3.05461e-07
1.38067e-06
3.05461e-07
1.38141e-06
5.69406e-07
1.73461e-06
8.84923e-06
1.73514e-06
8.84876e-06
5.69396e-07
3.05458e-07
1.38105e-06
3.22335e-07
5.6954e-07
3.05458e-07
1.38035e-06
1.7346e-06
8.84993e-06
1.73513e-06
8.84949e-06
5.69543e-07
3.22313e-07
1.3804e-06
3.05455e-07
1.38114e-06
3.05456e-07
5.69395e-07
1.73514e-06
8.8487e-06
8.84913e-06
1.7346e-06
5.69551e-07
3.22335e-07
3.05457e-07
1.38036e-06
3.05457e-07
1.38107e-06
5.69404e-07
1.73514e-06
8.84942e-06
8.84983e-06
1.7346e-06
2.94165e-06
2.94076e-06
3.54507e-07
2.94115e-06
2.94034e-06
2.29329e-05
2.29323e-05
2.29322e-05
2.29327e-05
3.54763e-07
2.94126e-06
2.94044e-06
2.94174e-06
2.94085e-06
2.29321e-05
2.29326e-05
5.69407e-07
3.05459e-07
1.38121e-06
3.2232e-07
5.69557e-07
3.05458e-07
1.3805e-06
1.73442e-06
8.85007e-06
1.73491e-06
8.84963e-06
1.73443e-06
8.85066e-06
1.73492e-06
8.85021e-06
5.69558e-07
3.22322e-07
3.05458e-07
1.38035e-06
3.05458e-07
1.38106e-06
5.69407e-07
5.69567e-07
3.2232e-07
3.05458e-07
1.38052e-06
3.05457e-07
1.38123e-06
5.69416e-07
1.73491e-06
8.84957e-06
8.84997e-06
1.73441e-06
1.73492e-06
8.85012e-06
8.85054e-06
1.73442e-06
2.29331e-05
2.29324e-05
2.29338e-05
2.29331e-05
3.54761e-07
2.94045e-06
2.94117e-06
2.94087e-06
2.94159e-06
2.29323e-05
2.29328e-05
2.2933e-05
2.29334e-05
2.29316e-05
2.29313e-05
2.2933e-05
2.29327e-05
2.94087e-06
2.9416e-06
3.54507e-07
2.94045e-06
2.94118e-06
2.29316e-05
2.29318e-05
2.2933e-05
2.29331e-05
3.54764e-07
2.94049e-06
2.94121e-06
2.94094e-06
2.94167e-06
1.73458e-06
8.84951e-06
1.73511e-06
8.84913e-06
5.69408e-07
1.38102e-06
3.0546e-07
3.22336e-07
5.69557e-07
1.38032e-06
3.0546e-07
5.69411e-07
1.38119e-06
3.05461e-07
3.22341e-07
5.69559e-07
1.38047e-06
3.05461e-07
1.7351e-06
8.8484e-06
8.84874e-06
1.73456e-06
1.73512e-06
8.84916e-06
8.84949e-06
1.73457e-06
5.69566e-07
3.22335e-07
1.38032e-06
3.05458e-07
1.38103e-06
3.05459e-07
5.69417e-07
5.69568e-07
3.22339e-07
1.38048e-06
3.05457e-07
1.3812e-06
3.05459e-07
5.69419e-07
2.94164e-06
2.94102e-06
3.54497e-07
2.9412e-06
2.94051e-06
2.29299e-05
2.29295e-05
2.29326e-05
2.29328e-05
3.54755e-07
2.94124e-06
2.94054e-06
2.94171e-06
2.94108e-06
2.29298e-05
2.29301e-05
5.69423e-07
1.3813e-06
3.05461e-07
3.22322e-07
5.69568e-07
1.3806e-06
3.05461e-07
1.73442e-06
8.84988e-06
1.7349e-06
8.84948e-06
5.69415e-07
3.05464e-07
1.38142e-06
3.22348e-07
5.69562e-07
3.05464e-07
1.38068e-06
1.73491e-06
8.84985e-06
8.85021e-06
1.73442e-06
5.69577e-07
3.22321e-07
1.3806e-06
3.05458e-07
1.3813e-06
3.05459e-07
5.69432e-07
1.73491e-06
8.84951e-06
8.84987e-06
1.73442e-06
5.69571e-07
3.22347e-07
3.0546e-07
1.38068e-06
3.05462e-07
1.38143e-06
5.69423e-07
1.73459e-06
8.84909e-06
1.73513e-06
8.84868e-06
5.69413e-07
3.0546e-07
1.38108e-06
3.22339e-07
5.69559e-07
3.0546e-07
1.38037e-06
1.73459e-06
8.84978e-06
1.73513e-06
8.8494e-06
5.69558e-07
3.22316e-07
1.38041e-06
3.05454e-07
1.38116e-06
3.05457e-07
5.69409e-07
1.73513e-06
8.84871e-06
8.84907e-06
1.73459e-06
5.69568e-07
3.22337e-07
3.05457e-07
1.38037e-06
3.05459e-07
1.38109e-06
5.69421e-07
1.73513e-06
8.84942e-06
8.84976e-06
1.73458e-06
2.94184e-06
2.94094e-06
3.54514e-07
2.94134e-06
2.94051e-06
2.29325e-05
2.29322e-05
2.29326e-05
2.29329e-05
3.54771e-07
2.94137e-06
2.94055e-06
2.94191e-06
2.941e-06
2.29325e-05
2.29327e-05
5.69427e-07
3.05461e-07
1.38124e-06
3.22324e-07
5.69577e-07
3.05461e-07
1.38052e-06
1.73441e-06
8.84992e-06
1.7349e-06
8.84955e-06
1.73442e-06
8.85047e-06
1.73491e-06
8.85009e-06
5.69575e-07
3.22325e-07
3.05458e-07
1.38036e-06
3.05459e-07
1.38107e-06
5.69423e-07
5.69587e-07
3.22322e-07
3.05458e-07
1.38052e-06
3.0546e-07
1.38124e-06
5.69435e-07
1.7349e-06
8.84957e-06
8.84991e-06
1.7344e-06
1.73491e-06
8.85009e-06
8.85044e-06
1.73441e-06
2.29327e-05
2.29324e-05
2.29334e-05
2.2933e-05
3.54769e-07
2.94057e-06
2.94129e-06
2.94103e-06
2.94174e-06
2.29327e-05
2.29328e-05
2.29333e-05
2.29335e-05
2.29321e-05
2.29321e-05
2.29335e-05
2.29334e-05
2.94098e-06
2.9417e-06
3.54514e-07
2.94049e-06
2.94121e-06
2.29329e-05
2.29327e-05
2.29342e-05
2.2934e-05
3.5477e-07
2.94048e-06
2.94121e-06
2.94095e-06
2.94167e-06
1.73458e-06
8.84953e-06
1.7351e-06
8.84919e-06
5.69419e-07
1.38103e-06
3.05456e-07
3.22337e-07
5.69573e-07
1.38032e-06
3.05455e-07
5.69421e-07
1.3812e-06
3.05456e-07
3.22341e-07
5.69575e-07
1.38047e-06
3.05454e-07
1.7351e-06
8.84867e-06
8.84882e-06
1.73456e-06
1.73512e-06
8.84941e-06
8.84957e-06
1.73457e-06
5.69573e-07
3.22335e-07
1.38035e-06
3.05451e-07
1.38103e-06
3.05452e-07
5.69415e-07
5.69575e-07
3.22339e-07
1.3805e-06
3.05451e-07
1.3812e-06
3.05452e-07
5.69418e-07
2.94174e-06
2.94111e-06
3.54505e-07
2.94124e-06
2.94053e-06
2.29304e-05
2.29302e-05
2.29339e-05
2.29336e-05
3.54761e-07
2.94123e-06
2.94052e-06
2.94171e-06
2.94107e-06
2.2931e-05
2.29309e-05
5.69433e-07
1.38131e-06
3.05456e-07
3.22322e-07
5.69584e-07
1.3806e-06
3.05455e-07
1.73443e-06
8.84991e-06
1.7349e-06
8.84954e-06
5.69425e-07
3.05459e-07
1.38144e-06
3.22349e-07
5.69578e-07
3.05458e-07
1.38068e-06
1.73492e-06
8.85012e-06
8.85029e-06
1.73442e-06
5.69583e-07
3.2232e-07
1.38063e-06
3.05452e-07
1.38131e-06
3.05452e-07
5.69428e-07
1.73491e-06
8.84976e-06
8.84995e-06
1.73442e-06
5.69577e-07
3.22347e-07
3.05455e-07
1.38071e-06
3.05455e-07
1.38144e-06
5.69421e-07
1.73459e-06
8.84911e-06
1.73512e-06
8.84874e-06
5.69424e-07
3.05456e-07
1.38109e-06
3.22339e-07
5.69575e-07
3.05454e-07
1.38037e-06
1.73459e-06
8.84979e-06
1.73511e-06
8.84945e-06
5.69568e-07
3.22314e-07
1.38043e-06
3.05451e-07
1.38116e-06
3.05452e-07
5.69417e-07
1.73513e-06
8.84897e-06
8.84916e-06
1.73458e-06
5.69576e-07
3.22337e-07
3.05451e-07
1.3804e-06
3.05452e-07
1.38109e-06
5.69422e-07
1.73513e-06
8.84968e-06
8.84984e-06
1.73458e-06
2.94194e-06
2.94104e-06
3.54521e-07
2.94136e-06
2.94055e-06
2.2933e-05
2.2933e-05
2.29338e-05
2.29337e-05
3.54777e-07
2.94135e-06
2.94054e-06
2.94191e-06
2.94101e-06
2.29338e-05
2.29336e-05
5.69436e-07
3.05457e-07
1.38124e-06
3.22324e-07
5.69593e-07
3.05455e-07
1.38052e-06
1.73441e-06
8.84994e-06
1.73489e-06
8.8496e-06
1.73441e-06
8.85046e-06
1.7349e-06
8.85011e-06
5.69584e-07
3.22324e-07
3.05452e-07
1.38038e-06
3.05453e-07
1.38107e-06
5.69426e-07
5.69592e-07
3.22322e-07
3.05452e-07
1.38054e-06
3.05452e-07
1.38124e-06
5.69431e-07
1.7349e-06
8.84982e-06
8.84998e-06
1.7344e-06
1.73491e-06
8.85033e-06
8.8505e-06
1.7344e-06
2.29332e-05
2.29331e-05
2.29338e-05
2.29338e-05
3.54775e-07
2.94056e-06
2.94128e-06
2.94103e-06
2.94175e-06
2.29339e-05
2.29337e-05
2.29346e-05
2.29344e-05
2.29334e-05
2.2933e-05
2.29347e-05
2.29343e-05
2.941e-06
2.94173e-06
3.54514e-07
2.94063e-06
2.94136e-06
2.29324e-05
2.29333e-05
2.29338e-05
2.29346e-05
3.54769e-07
2.94065e-06
2.94137e-06
2.94115e-06
2.94188e-06
1.73473e-06
8.84988e-06
1.73513e-06
8.84994e-06
5.69425e-07
1.38108e-06
3.05451e-07
3.22333e-07
5.69571e-07
1.38045e-06
3.05449e-07
5.69428e-07
1.38125e-06
3.05451e-07
3.22338e-07
5.69574e-07
1.3806e-06
3.0545e-07
1.73534e-06
8.84965e-06
8.84967e-06
1.73485e-06
1.73536e-06
8.85043e-06
8.85042e-06
1.73486e-06
5.69582e-07
3.22329e-07
1.38048e-06
3.05435e-07
1.38119e-06
3.05445e-07
5.69405e-07
5.69585e-07
3.22333e-07
1.38064e-06
3.05436e-07
1.38136e-06
3.05446e-07
5.69407e-07
2.94176e-06
2.94112e-06
3.54505e-07
2.94137e-06
2.94067e-06
2.29317e-05
2.29312e-05
2.29334e-05
2.29342e-05
3.5476e-07
2.94139e-06
2.9407e-06
2.94191e-06
2.94128e-06
2.29306e-05
2.29315e-05
5.69439e-07
1.38136e-06
3.05452e-07
3.22319e-07
5.69581e-07
1.38073e-06
3.05451e-07
1.73458e-06
8.85026e-06
1.73492e-06
8.85028e-06
5.69432e-07
3.05455e-07
1.38149e-06
3.22346e-07
5.69576e-07
3.05454e-07
1.38081e-06
1.73516e-06
8.85099e-06
8.85114e-06
1.73472e-06
5.69592e-07
3.22314e-07
1.38076e-06
3.05437e-07
1.38147e-06
3.05447e-07
5.69419e-07
1.73516e-06
8.85077e-06
8.85079e-06
1.73471e-06
5.69588e-07
3.22341e-07
3.0544e-07
1.38085e-06
3.0545e-07
1.3816e-06
5.69411e-07
1.73475e-06
8.84946e-06
1.73514e-06
8.84949e-06
5.69433e-07
3.05451e-07
1.38114e-06
3.22336e-07
5.69577e-07
3.0545e-07
1.3805e-06
1.73474e-06
8.85014e-06
1.73513e-06
8.8502e-06
5.69586e-07
3.22308e-07
1.38058e-06
3.05434e-07
1.38132e-06
3.05445e-07
5.69409e-07
1.73538e-06
8.84998e-06
8.85e-06
1.73488e-06
5.69588e-07
3.22332e-07
3.05436e-07
1.38054e-06
3.05446e-07
1.38125e-06
5.69412e-07
1.73537e-06
8.85069e-06
8.85069e-06
1.73488e-06
2.94195e-06
2.94106e-06
3.54522e-07
2.94149e-06
2.94069e-06
2.29343e-05
2.29339e-05
2.29334e-05
2.29343e-05
3.54777e-07
2.94152e-06
2.94071e-06
2.9421e-06
2.94121e-06
2.29333e-05
2.29342e-05
5.69443e-07
3.05452e-07
1.38129e-06
3.22321e-07
5.6959e-07
3.0545e-07
1.38065e-06
1.73456e-06
8.85029e-06
1.73491e-06
8.85034e-06
1.73456e-06
8.8508e-06
1.73491e-06
8.85085e-06
5.69599e-07
3.22318e-07
3.05436e-07
1.38053e-06
3.05447e-07
1.38124e-06
5.69421e-07
5.69602e-07
3.22316e-07
3.05436e-07
1.38068e-06
3.05446e-07
1.3814e-06
5.69425e-07
1.73514e-06
8.85084e-06
8.85083e-06
1.7347e-06
1.73515e-06
8.85134e-06
8.85133e-06
1.7347e-06
2.29345e-05
2.29341e-05
2.29351e-05
2.29347e-05
3.54775e-07
2.94073e-06
2.94145e-06
2.94124e-06
2.94195e-06
2.29335e-05
2.29343e-05
2.29342e-05
2.2935e-05
2.29327e-05
2.2932e-05
2.2934e-05
2.29333e-05
2.94111e-06
2.94183e-06
3.54436e-07
2.94047e-06
2.94119e-06
2.29317e-05
2.29323e-05
2.29331e-05
2.29336e-05
3.54676e-07
2.94028e-06
2.941e-06
2.94089e-06
2.94162e-06
1.73474e-06
8.85085e-06
1.7354e-06
8.85057e-06
5.69329e-07
1.38118e-06
3.05407e-07
3.22256e-07
5.69545e-07
1.38038e-06
3.05377e-07
5.6933e-07
1.38135e-06
3.05408e-07
3.2226e-07
5.69546e-07
1.38054e-06
3.05377e-07
1.73523e-06
8.84973e-06
8.85013e-06
1.73458e-06
1.73524e-06
8.8505e-06
8.85092e-06
1.73459e-06
5.69467e-07
3.22229e-07
1.38027e-06
3.05331e-07
1.38106e-06
3.0535e-07
5.69275e-07
5.69469e-07
3.22234e-07
1.38043e-06
3.05332e-07
1.38123e-06
3.0535e-07
5.69277e-07
2.94186e-06
2.94124e-06
3.54428e-07
2.9412e-06
2.94051e-06
2.29309e-05
2.29301e-05
2.29325e-05
2.29333e-05
3.54668e-07
2.94108e-06
2.94029e-06
2.94164e-06
2.94102e-06
2.29299e-05
2.29305e-05
5.6934e-07
1.38151e-06
3.05409e-07
3.22241e-07
5.69555e-07
1.38069e-06
3.05378e-07
1.73458e-06
8.85122e-06
1.7352e-06
8.85093e-06
5.69334e-07
3.05412e-07
1.38159e-06
3.22268e-07
5.69549e-07
3.05381e-07
1.38075e-06
1.73503e-06
8.85096e-06
8.85142e-06
1.73444e-06
5.69475e-07
3.22215e-07
1.3806e-06