/*--------------------------------*- C++ -*----------------------------------*\
| =========                 |                                                 |
| \\      /  F ield         | OpenFOAM: The Open Source CFD Toolbox           |
|  \\    /   O peration     | Version:  2206                                  |
|   \\  /    A nd           | Website:  www.openfoam.com                      |
|    \\/     M anipulation  |                                                 |
\*---------------------------------------------------------------------------*/
FoamFile
{
    version     2.0;
    format      ascii;
    arch        "LSB;label=32;scalar=64";
    class       volScalarField;
    location    "26";
    object      nut;
}
// * * * * * * * * * * * * * * * * * * * * * * * * * * * * * * * * * * * * * //

dimensions      [0 2 -1 0 0 0 0];

internalField   nonuniform List<scalar> 
28335
(
0.000221368
0.000196871
0.000196863
0.000171696
0.000221367
0.000196869
0.000196861
0.000171696
0.000221368
0.000196868
0.00019686
0.000171696
0.000221368
0.000196869
0.000196861
0.000171695
0.000221366
0.000196865
0.000196856
0.000171691
0.000221338
0.000196828
0.00019682
0.000171638
0.000221343
0.00019682
0.000196812
0.000171635
0.000221345
0.000196821
0.000196813
0.00017163
0.000221345
0.000196822
0.000196814
0.000171631
0.000221345
0.000196822
0.000196814
0.000171631
0.000221345
0.000196822
0.000196814
0.000171633
0.000221345
0.000196822
0.000196814
0.000171632
0.000221345
0.000196822
0.000196814
0.000171631
0.000221345
0.000196822
0.000196814
0.000171631
0.000221345
0.000196822
0.000196814
0.000171631
0.000221345
0.000196822
0.000196814
0.000171631
0.000221345
0.000196822
0.000196814
0.000171631
0.000171873
0.000196855
0.000196851
0.000171877
0.000196868
0.000196842
0.000196872
0.000196853
0.000171865
0.000196864
0.000196867
0.000171867
0.000171704
0.000171871
0.000196855
0.000196851
0.000196855
0.00019685
0.000171708
0.000171875
0.000196868
0.000196842
0.000196867
0.000196843
0.000196853
0.00019687
0.000196852
0.000171697
0.000171863
0.000196867
0.000196861
0.000196866
0.000171866
0.000171703
0.00017187
0.000196856
0.00019685
0.000196855
0.00019685
0.000171706
0.000171873
0.000196867
0.000196844
0.000196867
0.000196843
0.000196852
0.000196868
0.000196852
0.000171695
0.000171862
0.000196865
0.00019686
0.000196865
0.000171866
0.000171702
0.000171869
0.000196855
0.000196851
0.000196855
0.000196851
0.000171705
0.000171872
0.000196867
0.000196842
0.000196868
0.000196842
0.000196853
0.000196869
0.000196853
0.000171694
0.000171861
0.000196866
0.000196861
0.000196866
0.000171865
0.000171701
0.000171868
0.000196855
0.000196853
0.000196851
0.000196849
0.000171704
0.000171872
0.000196869
0.000196843
0.000196866
0.000196839
0.000196854
0.000196866
0.00019685
0.000171693
0.00017186
0.000196866
0.000196858
0.000196863
0.000171864
0.000171698
0.000171828
0.000196849
0.000196847
0.000196823
0.000196819
0.000171702
0.000171832
0.000196863
0.000196837
0.000196836
0.000196811
0.000196848
0.000196842
0.000196821
0.00017169
0.00017182
0.000196861
0.000196834
0.000196834
0.000171823
0.000171646
0.000171806
0.00019681
0.000196806
0.0001968
0.000196797
0.00017165
0.00017181
0.000196822
0.000196797
0.000196814
0.000196788
0.000196807
0.000196818
0.000196799
0.000171638
0.000171798
0.00019682
0.00019681
0.000196812
0.000171803
0.00017164
0.000171806
0.000196804
0.0001968
0.000196804
0.0001968
0.000171643
0.00017181
0.000196817
0.000196791
0.000196817
0.000196791
0.000196802
0.000196821
0.000196802
0.000171632
0.000171798
0.000196815
0.000196814
0.000196815
0.000171802
0.000171636
0.000171803
0.000196804
0.0001968
0.000196805
0.000196801
0.00017164
0.000171807
0.000196817
0.000196791
0.000196818
0.000196792
0.000196802
0.000196822
0.000196803
0.000171628
0.000171796
0.000196815
0.000196814
0.000196816
0.000171801
0.000171635
0.000171806
0.000196805
0.000196802
0.000196805
0.000196801
0.000171639
0.00017181
0.000196818
0.000196793
0.000196818
0.000196793
0.000196803
0.000196822
0.000196803
0.000171628
0.000171798
0.000196817
0.000196814
0.000196816
0.000171803
0.000171636
0.000171806
0.000196805
0.000196802
0.000196805
0.000196801
0.00017164
0.00017181
0.000196818
0.000196793
0.000196818
0.000196793
0.000196804
0.000196823
0.000196803
0.000171629
0.000171798
0.000196817
0.000196815
0.000196816
0.000171803
0.000171638
0.000171805
0.000196806
0.000196802
0.000196805
0.000196801
0.000171641
0.000171809
0.000196818
0.000196793
0.000196818
0.000196793
0.000196804
0.000196822
0.000196803
0.00017163
0.000171797
0.000196817
0.000196815
0.000196816
0.000171801
0.000171637
0.000171805
0.000196805
0.000196801
0.000196805
0.000196801
0.000171641
0.000171809
0.000196818
0.000196793
0.000196818
0.000196793
0.000196804
0.000196822
0.000196803
0.000171629
0.000171797
0.000196817
0.000196815
0.000196816
0.000171801
0.000171637
0.000171805
0.000196805
0.000196802
0.000196805
0.000196801
0.00017164
0.000171809
0.000196818
0.000196793
0.000196818
0.000196793
0.000196804
0.000196823
0.000196803
0.000171629
0.000171797
0.000196817
0.000196815
0.000196816
0.000171801
0.000171637
0.000171805
0.000196806
0.000196802
0.000196805
0.000196801
0.000171641
0.000171809
0.000196818
0.000196793
0.000196818
0.000196793
0.000196804
0.000196823
0.000196803
0.000171629
0.000171797
0.000196817
0.000196815
0.000196816
0.000171802
0.000171637
0.000171805
0.000196805
0.000196802
0.000196805
0.000196801
0.000171641
0.000171809
0.000196818
0.000196793
0.000196818
0.000196793
0.000196804
0.000196823
0.000196803
0.000171629
0.000171797
0.000196817
0.000196815
0.000196816
0.000171802
0.000171637
0.000171805
0.000196805
0.000196801
0.000196805
0.000196801
0.000171641
0.000171809
0.000196818
0.000196793
0.000196818
0.000196793
0.000196804
0.000196823
0.000196803
0.000171629
0.000171797
0.000196817
0.000196815
0.000196816
0.000171802
0.000171637
0.000196806
0.000196802
0.000171641
0.000196818
0.000196793
0.000196803
0.000171629
0.000196817
4.30016e-05
4.94479e-05
2.53908e-05
4.30083e-05
4.94437e-05
0.000221368
0.000221369
0.000221365
0.000221368
9.97198e-05
0.000196872
5.24735e-05
0.000212162
2.53883e-05
9.97206e-05
0.000196864
0.00021216
5.24766e-05
0.000171871
3.52688e-05
3.5263e-05
4.30058e-05
4.94479e-05
4.29973e-05
4.94468e-05
2.53899e-05
2.53895e-05
4.30125e-05
4.94439e-05
4.30046e-05
4.94427e-05
0.000221368
0.000221364
0.000221366
0.000221367
0.000221367
0.000221363
0.000221366
9.97205e-05
5.24613e-05
0.000212161
0.000196871
9.96948e-05
5.24767e-05
0.000212159
2.53876e-05
2.5387e-05
9.972e-05
0.000212159
5.24647e-05
0.000196863
9.96937e-05
0.000212157
5.24796e-05
3.52649e-05
3.52595e-05
0.000171867
3.52673e-05
3.52618e-05
4.30087e-05
4.94471e-05
4.3001e-05
4.94463e-05
2.53893e-05
2.53891e-05
4.30141e-05
4.94431e-05
4.30074e-05
4.94422e-05
0.000221367
0.000221363
0.000221366
0.000221368
0.000221366
0.000221363
0.000221365
9.97208e-05
5.24639e-05
0.000212159
0.000196869
9.96954e-05
5.24792e-05
0.000212158
2.53868e-05
2.53866e-05
9.97198e-05
0.000212156
5.24673e-05
0.00019686
9.96948e-05
0.000212156
5.24821e-05
3.52673e-05
3.52619e-05
0.000171866
3.52715e-05
3.52662e-05
4.30112e-05
4.94469e-05
4.30031e-05
4.94461e-05
2.53891e-05
2.53891e-05
4.30171e-05
4.94428e-05
4.30092e-05
4.9442e-05
0.000221367
0.000221363
0.000221366
0.000221368
0.000221369
0.000221365
0.000221368
9.97221e-05
5.24665e-05
0.000212158
0.000196868
9.96945e-05
5.24815e-05
0.000212159
2.53867e-05
2.53866e-05
9.97204e-05
0.000212156
5.24696e-05
0.000196861
9.96935e-05
0.000212157
5.2484e-05
3.52731e-05
3.52679e-05
0.000171866
3.52773e-05
3.5272e-05
4.30138e-05
4.94469e-05
4.30064e-05
4.94462e-05
2.53893e-05
2.53894e-05
4.30202e-05
4.94428e-05
4.30134e-05
4.94421e-05
0.000221369
0.000221365
0.000221369
0.000221367
0.000221368
0.000221363
0.000221367
9.97245e-05
5.24682e-05
0.000212161
0.000196868
9.96972e-05
5.2483e-05
0.00021216
2.53869e-05
2.53869e-05
9.97245e-05
0.000212158
5.24713e-05
0.00019686
9.96978e-05
0.000212158
5.24857e-05
3.52773e-05
3.5272e-05
0.000171866
3.52801e-05
3.52748e-05
4.30053e-05
4.94475e-05
4.30043e-05
4.94476e-05
2.53898e-05
2.53897e-05
4.30117e-05
4.94435e-05
4.30114e-05
4.94435e-05
0.000221367
0.000221362
0.000221365
0.000221347
0.000221348
0.000221344
0.000221345
9.97113e-05
5.24663e-05
0.000212158
0.000196862
9.96957e-05
5.24755e-05
0.000212156
2.53873e-05
2.53872e-05
9.97101e-05
0.000212156
5.24696e-05
0.000196853
9.96932e-05
0.000212154
5.24785e-05
3.52763e-05
3.5271e-05
0.000171852
3.52765e-05
3.5271e-05
4.29884e-05
4.94492e-05
4.29866e-05
4.94487e-05
2.53895e-05
2.53893e-05
4.29947e-05
4.94453e-05
4.29934e-05
4.94446e-05
0.000221339
0.000221335
0.000221337
0.00022134
0.00022134
0.000221337
0.000221339
9.96547e-05
5.24491e-05
0.000212124
0.00019682
9.96554e-05
5.24566e-05
0.000212119
2.53871e-05
2.53868e-05
9.96545e-05
0.000212122
5.24525e-05
0.000196813
9.9653e-05
0.000212117
5.24596e-05
3.52697e-05
3.52643e-05
0.000171801
3.52685e-05
3.5263e-05
4.29829e-05
4.94493e-05
4.29769e-05
4.94485e-05
2.53895e-05
2.53894e-05
4.29895e-05
4.94451e-05
4.2984e-05
4.94442e-05
0.000221344
0.00022134
0.000221342
0.000221345
0.000221346
0.000221342
0.000221344
9.96607e-05
5.2437e-05
0.000212123
0.000196821
9.96331e-05
5.24503e-05
0.000212125
2.53869e-05
2.53867e-05
9.96593e-05
0.000212121
5.24407e-05
0.000196813
9.96311e-05
0.000212123
5.24535e-05
3.52626e-05
3.52573e-05
0.000171808
3.52641e-05
3.52586e-05
4.29823e-05
4.94491e-05
4.29754e-05
4.94484e-05
2.53894e-05
2.53894e-05
4.29891e-05
4.94449e-05
4.29827e-05
4.94441e-05
0.000221345
0.000221342
0.000221343
0.000221345
0.000221346
0.000221342
0.000221344
9.96604e-05
5.24354e-05
0.000212124
0.000196822
9.9635e-05
5.24497e-05
0.000212125
2.53868e-05
2.53867e-05
9.96583e-05
0.000212122
5.24392e-05
0.000196814
9.96322e-05
0.000212123
5.24529e-05
3.52615e-05
3.52561e-05
0.0001718
3.52637e-05
3.52583e-05
4.29823e-05
4.94491e-05
4.29754e-05
4.94484e-05
2.53895e-05
2.53894e-05
4.29891e-05
4.94448e-05
4.29826e-05
4.94441e-05
0.000221346
0.000221342
0.000221344
0.000221345
0.000221346
0.000221342
0.000221344
9.96601e-05
5.24353e-05
0.000212125
0.000196822
9.96347e-05
5.24497e-05
0.000212125
2.53868e-05
2.53867e-05
9.96589e-05
0.000212123
5.24391e-05
0.000196815
9.96327e-05
0.000212123
5.24529e-05
3.52615e-05
3.52561e-05
0.000171803
3.52637e-05
3.52583e-05
4.29823e-05
4.94491e-05
4.29753e-05
4.94484e-05
2.53895e-05
2.53894e-05
4.29891e-05
4.94448e-05
4.29826e-05
4.9444e-05
0.000221346
0.000221342
0.000221344
0.000221345
0.000221346
0.000221342
0.000221344
9.96595e-05
5.24353e-05
0.000212125
0.000196822
9.96339e-05
5.24496e-05
0.000212125
2.53868e-05
2.53867e-05
9.96585e-05
0.000212123
5.24391e-05
0.000196815
9.96324e-05
0.000212123
5.24529e-05
3.52615e-05
3.52561e-05
0.0001718
3.52637e-05
3.52583e-05
4.29823e-05
4.94491e-05
4.29753e-05
4.94484e-05
2.53895e-05
2.53894e-05
4.2989e-05
4.94448e-05
4.29826e-05
4.9444e-05
0.000221346
0.000221342
0.000221344
0.000221345
0.000221346
0.000221342
0.000221344
9.96606e-05
5.24353e-05
0.000212125
0.000196822
9.96345e-05
5.24496e-05
0.000212125
2.53868e-05
2.53867e-05
9.9659e-05
0.000212123
5.24391e-05
0.000196815
9.96328e-05
0.000212123
5.24529e-05
3.52615e-05
3.52561e-05
0.000171802
3.52637e-05
3.52583e-05
4.29823e-05
4.94491e-05
4.29753e-05
4.94484e-05
2.53895e-05
2.53894e-05
4.2989e-05
4.94448e-05
4.29826e-05
4.9444e-05
0.000221346
0.000221342
0.000221344
0.000221345
0.000221346
0.000221342
0.000221344
9.96592e-05
5.24353e-05
0.000212125
0.000196823
9.96345e-05
5.24496e-05
0.000212125
2.53868e-05
2.53867e-05
9.96582e-05
0.000212123
5.24391e-05
0.000196815
9.96324e-05
0.000212123
5.24529e-05
3.52615e-05
3.52561e-05
0.000171803
3.52637e-05
3.52583e-05
4.29823e-05
4.94491e-05
4.29753e-05
4.94484e-05
2.53895e-05
2.53894e-05
4.2989e-05
4.94448e-05
4.29826e-05
4.9444e-05
0.000221346
0.000221342
0.000221344
0.000221345
0.000221346
0.000221342
0.000221344
9.96588e-05
5.24353e-05
0.000212125
0.000196823
9.96317e-05
5.24496e-05
0.000212125
2.53868e-05
2.53867e-05
9.96567e-05
0.000212123
5.24391e-05
0.000196815
9.96308e-05
0.000212123
5.24529e-05
3.52615e-05
3.52561e-05
0.000171802
3.52637e-05
3.52583e-05
4.29823e-05
4.94491e-05
4.29753e-05
4.94484e-05
2.53895e-05
2.53894e-05
4.2989e-05
4.94448e-05
4.29826e-05
4.9444e-05
0.000221346
0.000221342
0.000221344
0.000221345
0.000221346
0.000221342
0.000221344
9.96605e-05
5.24353e-05
0.000212125
0.000196823
9.96343e-05
5.24497e-05
0.000212125
2.53868e-05
2.53867e-05
9.96553e-05
0.000212123
5.2439e-05
0.000196815
9.96295e-05
0.000212123
5.24529e-05
3.52615e-05
3.52561e-05
0.000171802
3.52637e-05
3.52583e-05
4.29823e-05
4.94491e-05
4.29753e-05
4.94484e-05
2.53895e-05
2.53894e-05
4.2989e-05
4.94448e-05
4.29826e-05
4.9444e-05
0.000221346
0.000221342
0.000221344
0.000221345
0.000221346
0.000221342
0.000221344
9.96605e-05
5.24353e-05
0.000212125
0.000196823
9.96348e-05
5.24496e-05
0.000212125
2.53868e-05
2.53867e-05
9.96542e-05
0.000212122
5.2439e-05
0.000196814
9.96283e-05
0.000212123
5.24529e-05
3.52615e-05
3.52561e-05
0.000171802
3.52637e-05
3.52583e-05
4.29823e-05
4.94491e-05
4.29753e-05
4.94484e-05
2.53895e-05
2.53894e-05
4.2989e-05
4.94448e-05
4.29826e-05
4.9444e-05
0.000221346
0.000221342
0.000221344
0.000221345
0.000221346
0.000221342
0.000221344
9.96605e-05
5.24354e-05
0.000212125
0.000196823
9.96348e-05
5.24497e-05
0.000212125
2.53868e-05
2.53867e-05
9.96538e-05
0.000212122
5.2439e-05
0.000196815
9.96276e-05
0.000212123
5.24529e-05
3.52615e-05
3.52561e-05
0.000171802
3.52637e-05
3.52583e-05
4.29823e-05
4.94491e-05
4.29753e-05
4.94484e-05
2.53895e-05
2.53894e-05
4.29891e-05
4.94448e-05
4.29826e-05
4.9444e-05
0.000221346
0.000221342
0.000221344
9.96615e-05
5.24354e-05
0.000212125
0.000196822
9.96349e-05
5.24497e-05
0.000212125
2.53868e-05
2.53867e-05
9.96547e-05
0.000212122
5.2439e-05
0.000196815
9.96273e-05
0.000212123
5.24533e-05
3.52615e-05
3.52561e-05
0.000171804
3.52665e-05
3.52608e-05
2.53921e-05
2.53901e-05
0.000171877
3.52707e-05
3.5262e-05
2.53913e-05
2.5392e-05
2.53893e-05
2.539e-05
0.000171706
3.52684e-05
3.52616e-05
3.52678e-05
3.526e-05
4.30024e-05
4.94477e-05
9.97228e-05
0.000196856
5.24794e-05
0.000212162
9.97237e-05
0.000196852
5.2477e-05
0.000212161
4.2996e-05
4.94474e-05
4.94485e-05
4.30038e-05
4.29967e-05
4.94472e-05
4.94484e-05
4.30045e-05
9.96994e-05
0.000196855
5.2481e-05
0.000212161
5.24672e-05
0.000212161
9.97221e-05
9.97e-05
0.000196851
5.24786e-05
0.00021216
5.24645e-05
0.000212161
9.9723e-05
0.000171882
3.52663e-05
3.52572e-05
2.53915e-05
2.539e-05
2.53907e-05
0.00017171
3.52634e-05
3.52577e-05
3.52629e-05
3.52545e-05
2.53908e-05
2.53916e-05
9.97236e-05
0.000196869
5.2472e-05
0.000212161
4.30071e-05
4.94406e-05
9.97226e-05
0.000196843
0.000212157
5.24647e-05
4.30032e-05
4.94433e-05
4.94444e-05
4.30105e-05
9.97008e-05
0.000196868
5.24736e-05
0.00021216
5.24598e-05
0.000212161
9.97233e-05
4.3002e-05
4.944e-05
4.94413e-05
4.30092e-05
9.96985e-05
0.000196843
0.000212156
5.24664e-05
0.000212156
5.24518e-05
9.97228e-05
4.30015e-05
4.94459e-05
9.97213e-05
0.000196854
0.00021216
5.24764e-05
4.30012e-05
4.94442e-05
9.96963e-05
0.000196873
5.24751e-05
0.000212162
5.24607e-05
0.000212162
9.97213e-05
4.29958e-05
4.94455e-05
4.94466e-05
4.30037e-05
9.96981e-05
0.000196853
0.00021216
5.2478e-05
0.00021216
5.2464e-05
9.97207e-05
4.29955e-05
4.94437e-05
4.94449e-05
4.30034e-05
0.00017187
3.52521e-05
3.52677e-05
2.53909e-05
2.53875e-05
2.53883e-05
0.000171699
3.52511e-05
3.52673e-05
3.52487e-05
3.52657e-05
2.53901e-05
2.53909e-05
9.97232e-05
0.000196868
0.000212161
5.24742e-05
4.30078e-05
4.9444e-05
4.30081e-05
4.9444e-05
9.96966e-05
0.000196865
0.000212159
5.24782e-05
0.00021216
5.24643e-05
9.97204e-05
9.96993e-05
0.000196867
0.00021216
5.24757e-05
0.000212161
5.24617e-05
9.97227e-05
4.30026e-05
4.94434e-05
4.94446e-05
4.30099e-05
4.30029e-05
4.94434e-05
4.94447e-05
4.30102e-05
2.53907e-05
2.53897e-05
0.000171701
3.52674e-05
3.52619e-05
3.52662e-05
3.52606e-05
2.53899e-05
2.53907e-05
2.53889e-05
2.53896e-05
2.53913e-05
2.53908e-05
2.53893e-05
2.53888e-05
3.52659e-05
3.52592e-05
0.000171872
3.52681e-05
3.52616e-05
2.53905e-05
2.53909e-05
2.53885e-05
2.53889e-05
0.000171703
3.527e-05
3.52634e-05
3.52663e-05
3.52597e-05
4.30066e-05
4.94477e-05
4.29989e-05
4.94466e-05
9.97232e-05
5.24687e-05
0.000212161
0.000196855
9.96977e-05
5.24824e-05
0.000212161
9.97243e-05
5.24661e-05
0.000212161
0.000196851
9.96986e-05
5.24802e-05
0.000212161
4.30002e-05
4.94465e-05
4.94474e-05
4.30076e-05
4.30009e-05
4.94462e-05
4.94472e-05
4.30083e-05
9.96994e-05
0.000196855
5.24838e-05
0.000212161
5.24702e-05
0.000212161
9.97245e-05
9.97004e-05
0.000196851
5.24815e-05
0.000212161
5.24676e-05
0.000212161
9.9724e-05
3.52612e-05
3.52557e-05
0.000171876
3.52641e-05
3.52598e-05
2.53909e-05
2.53903e-05
2.53892e-05
2.53895e-05
0.000171706
3.5266e-05
3.52615e-05
3.52624e-05
3.52577e-05
2.539e-05
2.53904e-05
9.97253e-05
5.24614e-05
0.00021216
0.000196868
9.96994e-05
5.2475e-05
0.00021216
4.30113e-05
4.94405e-05
4.30042e-05
4.94394e-05
9.9724e-05
0.000212156
5.24535e-05
0.000196842
9.96993e-05
0.000212156
5.24681e-05
4.30073e-05
4.94424e-05
4.94433e-05
4.30137e-05
9.9702e-05
0.000196867
5.24764e-05
0.00021216
5.24628e-05
0.00021216
9.9726e-05
4.30061e-05
4.94391e-05
4.94401e-05
4.30125e-05
9.96995e-05
0.000196843
0.000212156
5.24694e-05
0.000212157
5.24551e-05
9.97237e-05
4.30057e-05
4.94461e-05
4.2998e-05
4.94449e-05
9.97229e-05
0.00021216
5.24655e-05
0.000196853
9.96967e-05
0.00021216
5.24794e-05
4.30055e-05
4.94441e-05
4.29977e-05
4.94431e-05
9.96967e-05
0.000196871
5.24779e-05
0.000212159
5.24638e-05
0.00021216
9.9722e-05
4.29999e-05
4.94446e-05
4.94456e-05
4.30074e-05
9.97003e-05
0.000196853
0.00021216
5.24806e-05
0.00021216
5.24669e-05
9.97234e-05
4.29998e-05
4.94427e-05
4.94436e-05
4.30073e-05
3.52487e-05
3.52649e-05
0.000171864
3.52528e-05
3.52672e-05
2.53901e-05
2.53896e-05
2.53867e-05
2.53871e-05
0.000171695
3.52546e-05
3.5269e-05
3.52507e-05
3.52653e-05
2.53894e-05
2.53897e-05
9.97242e-05
0.000212161
5.24632e-05
0.000196866
9.96976e-05
0.000212161
5.24771e-05
4.30119e-05
4.94439e-05
4.30047e-05
4.94428e-05
4.30122e-05
4.94439e-05
4.3005e-05
4.94429e-05
9.96954e-05
0.000196863
0.000212157
5.24808e-05
0.000212157
5.24671e-05
9.97221e-05
9.97001e-05
0.000196866
0.000212159
5.24784e-05
0.00021216
5.24645e-05
9.97228e-05
4.30066e-05
4.94425e-05
4.94434e-05
4.30132e-05
4.30069e-05
4.94426e-05
4.94435e-05
4.30135e-05
2.53899e-05
2.53894e-05
2.53889e-05
2.53884e-05
0.000171698
3.52689e-05
3.52635e-05
3.52653e-05
3.52599e-05
2.53892e-05
2.53895e-05
2.53882e-05
2.53885e-05
2.53906e-05
2.53904e-05
2.53886e-05
2.53884e-05
3.52685e-05
3.52619e-05
0.000171871
3.5273e-05
3.52664e-05
2.53903e-05
2.53905e-05
2.53884e-05
2.53885e-05
0.000171702
3.52762e-05
3.52695e-05
3.52717e-05
3.5265e-05
4.30092e-05
4.94469e-05
4.30024e-05
4.9446e-05
9.97262e-05
5.24715e-05
0.00021216
0.000196856
9.97011e-05
5.24852e-05
0.00021216
9.97264e-05
5.24689e-05
0.000212158
0.00019685
9.96999e-05
5.24829e-05
0.000212158
4.30028e-05
4.94461e-05
4.94469e-05
4.30097e-05
4.30033e-05
4.94459e-05
4.94467e-05
4.30103e-05
9.97028e-05
0.000196855
5.24863e-05
0.00021216
5.24729e-05
0.00021216
9.97254e-05
9.9703e-05
0.00019685
5.2484e-05
0.000212158
5.24703e-05
0.000212158
9.97257e-05
3.52644e-05
3.52595e-05
0.000171875
3.52685e-05
3.52641e-05
2.53901e-05
2.53899e-05
2.53891e-05
2.53892e-05
0.000171705
3.52714e-05
3.52675e-05
3.52671e-05
3.52624e-05
2.53898e-05
2.539e-05
9.97258e-05
5.24641e-05
0.000212159
0.000196867
9.97021e-05
5.24778e-05
0.000212159
4.30131e-05
4.94398e-05
4.30071e-05
4.94389e-05
9.97253e-05
0.000212154
5.24564e-05
0.000196844
9.96997e-05
0.000212154
5.24708e-05
4.30087e-05
4.9442e-05
4.94428e-05
4.30151e-05
9.97028e-05
0.000196867
5.24789e-05
0.000212159
5.24655e-05
0.000212159
9.97249e-05
4.30077e-05
4.94388e-05
4.94396e-05
4.30142e-05
9.9702e-05
0.000196843
0.000212154
5.24721e-05
0.000212154
5.24578e-05
9.97246e-05
4.30084e-05
4.94453e-05
4.30015e-05
4.94444e-05
9.97238e-05
0.000212159
5.24682e-05
0.000196852
9.96989e-05
0.000212158
5.2482e-05
4.30085e-05
4.94433e-05
4.30015e-05
4.94425e-05
9.9698e-05
0.000196869
5.24805e-05
0.000212158
5.24663e-05
0.000212158
9.97211e-05
4.30025e-05
4.94443e-05
4.94451e-05
4.30094e-05
9.97007e-05
0.000196852
0.000212158
5.24831e-05
0.000212158
5.24695e-05
9.97228e-05
4.30025e-05
4.94424e-05
4.94432e-05
4.30095e-05
3.52525e-05
3.52674e-05
0.000171862
3.5257e-05
3.52719e-05
2.53895e-05
2.53892e-05
2.53866e-05
2.53868e-05
0.000171694
3.52601e-05
3.52751e-05
3.52551e-05
3.52705e-05
2.53892e-05
2.53894e-05
9.97224e-05
0.000212158
5.24658e-05
0.000196865
9.96972e-05
0.000212158
5.24797e-05
4.30136e-05
4.94431e-05
4.30077e-05
4.94422e-05
4.30141e-05
4.94432e-05
4.3008e-05
4.94424e-05
9.96958e-05
0.00019686
0.000212156
5.24832e-05
0.000212155
5.24697e-05
9.972e-05
9.96983e-05
0.000196866
0.000212156
5.24806e-05
0.000212157
5.2467e-05
9.9722e-05
4.30081e-05
4.94421e-05
4.94429e-05
4.30146e-05
4.30086e-05
4.94422e-05
4.9443e-05
4.30151e-05
2.53893e-05
2.5389e-05
2.53883e-05
2.5388e-05
0.000171698
3.52746e-05
3.52693e-05
3.52701e-05
3.52648e-05
2.5389e-05
2.53892e-05
2.5388e-05
2.53881e-05
2.53905e-05
2.53904e-05
2.53885e-05
2.53884e-05
3.52748e-05
3.52681e-05
0.000171869
3.52789e-05
3.52722e-05
2.53905e-05
2.53905e-05
2.53885e-05
2.53886e-05
0.0001717
3.52807e-05
3.5274e-05
3.52773e-05
3.52705e-05
4.30119e-05
4.94466e-05
4.30045e-05
4.94459e-05
9.97254e-05
5.24739e-05
0.000212159
0.000196854
9.97005e-05
5.24871e-05
0.000212159
9.97268e-05
5.24713e-05
0.000212158
0.000196851
9.97008e-05
5.24849e-05
0.000212158
4.30054e-05
4.94461e-05
4.94468e-05
4.3013e-05
4.30062e-05
4.94459e-05
4.94466e-05
4.30139e-05
9.97014e-05
0.000196855
5.24879e-05
0.00021216
5.24747e-05
0.00021216
9.97288e-05
9.97028e-05
0.000196851
5.24857e-05
0.000212158
5.24722e-05
0.000212158
9.97295e-05
3.52699e-05
3.52658e-05
0.000171873
3.52739e-05
3.52701e-05
2.539e-05
2.53899e-05
2.53892e-05
2.53893e-05
0.000171704
3.52757e-05
3.52717e-05
3.52723e-05
3.52681e-05
2.539e-05
2.53901e-05
9.97262e-05
5.24665e-05
0.000212159
0.000196867
9.97008e-05
5.24798e-05
0.000212159
4.30163e-05
4.94395e-05
4.30092e-05
4.94388e-05
9.97268e-05
0.000212155
5.24591e-05
0.000196842
9.97003e-05
0.000212154
5.24732e-05
4.30121e-05
4.9442e-05
4.94427e-05
4.30193e-05
9.97028e-05
0.000196868
5.24807e-05
0.00021216
5.24675e-05
0.00021216
9.97297e-05
4.30113e-05
4.94388e-05
4.94395e-05
4.30184e-05
9.9703e-05
0.000196843
0.000212156
5.24741e-05
0.000212155
5.24602e-05
9.97291e-05
4.30109e-05
4.9445e-05
4.30036e-05
4.94442e-05
9.97237e-05
0.000212157
5.24705e-05
0.000196853
9.96984e-05
0.000212157
5.2484e-05
4.3011e-05
4.94431e-05
4.30037e-05
4.94424e-05
9.96987e-05
0.000196868
5.24823e-05
0.00021216
5.24685e-05
0.000212159
9.97229e-05
4.30052e-05
4.94443e-05
4.9445e-05
4.30127e-05
9.97e-05
0.000196853
0.000212158
5.24848e-05
0.000212157
5.24714e-05
9.97267e-05
4.30053e-05
4.94424e-05
4.9443e-05
4.30128e-05
3.52582e-05
3.52736e-05
0.000171862
3.52628e-05
3.52778e-05
2.53893e-05
2.53892e-05
2.53867e-05
2.53868e-05
0.000171693
3.52645e-05
3.52796e-05
3.52607e-05
3.52761e-05
2.53893e-05
2.53894e-05
9.97248e-05
0.000212155
5.24679e-05
0.000196866
9.96973e-05
0.000212155
5.24813e-05
4.30165e-05
4.94428e-05
4.30094e-05
4.94421e-05
4.30169e-05
4.94428e-05
4.30098e-05
4.94421e-05
9.9696e-05
0.00019686
0.000212158
5.24849e-05
0.000212157
5.24715e-05
9.97243e-05
9.97015e-05
0.000196866
0.000212157
5.2482e-05
0.000212156
5.24686e-05
9.97264e-05
4.30113e-05
4.94421e-05
4.94428e-05
4.30186e-05
4.30118e-05
4.94421e-05
4.94428e-05
4.30189e-05
2.53891e-05
2.5389e-05
2.53881e-05
2.5388e-05
0.000171697
3.52792e-05
3.52738e-05
3.52756e-05
3.52703e-05
2.53891e-05
2.53892e-05
2.53881e-05
2.53882e-05
2.53907e-05
2.53906e-05
2.53887e-05
2.53887e-05
3.52789e-05
3.52722e-05
0.000171869
3.52817e-05
3.5275e-05
2.5391e-05
2.53909e-05
2.5389e-05
2.53889e-05
0.000171701
3.52808e-05
3.5274e-05
3.52796e-05
3.52729e-05
4.30147e-05
4.94466e-05
4.30082e-05
4.9446e-05
9.97289e-05
5.24756e-05
0.000212161
0.000196854
9.97058e-05
5.24888e-05
0.000212161
9.97293e-05
5.2473e-05
0.000212159
0.000196852
9.97061e-05
5.24866e-05
0.000212159
4.30076e-05
4.94466e-05
4.94469e-05
4.30125e-05
4.30085e-05
4.94464e-05
4.94467e-05
4.30135e-05
9.97015e-05
0.000196853
5.24873e-05
0.000212159
5.24762e-05
0.00021216
9.97211e-05
9.97028e-05
0.000196851
5.24851e-05
0.000212159
5.24737e-05
0.00021216
9.97226e-05
3.52739e-05
3.52695e-05
0.000171873
3.52767e-05
3.52725e-05
2.53902e-05
2.53901e-05
2.53897e-05
2.53896e-05
0.000171704
3.52757e-05
3.52715e-05
3.52746e-05
3.527e-05
2.53904e-05
2.53904e-05
9.97289e-05
5.24684e-05
0.000212162
0.000196869
9.9707e-05
5.24816e-05
0.000212162
4.30193e-05
4.94396e-05
4.30133e-05
4.94389e-05
9.97285e-05
0.000212156
5.2461e-05
0.000196842
9.97055e-05
0.000212156
5.24747e-05
4.30146e-05
4.94425e-05
4.94428e-05
4.3019e-05
9.9702e-05
0.000196868
5.24801e-05
0.00021216
5.24691e-05
0.000212162
9.97211e-05
4.30137e-05
4.94393e-05
4.94396e-05
4.3018e-05
9.97017e-05
0.000196841
0.000212154
5.24731e-05
0.000212155
5.24614e-05
9.97212e-05
4.30136e-05
4.9445e-05
4.30069e-05
4.94444e-05
9.97268e-05
0.000212158
5.24723e-05
0.000196853
9.97038e-05
0.000212159
5.24857e-05
4.30137e-05
4.94431e-05
4.30071e-05
4.94425e-05
9.97017e-05
0.000196867
5.24817e-05
0.000212159
5.24698e-05
0.000212159
9.97236e-05
4.30075e-05
4.94448e-05
4.94451e-05
4.30128e-05
9.97021e-05
0.000196852
0.000212159
5.24842e-05
0.000212159
5.24729e-05
9.97213e-05
4.30075e-05
4.94428e-05
4.94432e-05
4.30125e-05
3.52621e-05
3.52777e-05
0.000171861
3.52653e-05
3.52806e-05
2.53895e-05
2.53895e-05
2.53871e-05
2.53871e-05
0.000171693
3.52642e-05
3.52797e-05
3.52627e-05
3.52785e-05
2.53898e-05
2.53897e-05
9.97255e-05
0.00021216
5.24693e-05
0.000196866
9.97014e-05
0.00021216
5.24828e-05
4.30196e-05
4.94428e-05
4.30134e-05
4.94422e-05
4.30197e-05
4.94428e-05
4.30136e-05
4.94422e-05
9.97006e-05
0.000196859
0.000212157
5.24846e-05
0.000212158
5.2473e-05
9.97221e-05
9.96987e-05
0.000196865
0.00021216
5.24813e-05
0.000212161
5.24699e-05
9.97196e-05
4.3014e-05
4.94426e-05
4.94429e-05
4.30187e-05
4.3014e-05
4.94426e-05
4.94429e-05
4.30185e-05
2.53893e-05
2.53893e-05
2.53883e-05
2.53883e-05
0.000171697
3.52792e-05
3.52738e-05
3.5278e-05
3.52727e-05
2.53896e-05
2.53895e-05
2.53886e-05
2.53885e-05
2.53911e-05
2.5391e-05
2.53892e-05
2.5389e-05
3.52779e-05
3.52712e-05
0.000171855
3.52779e-05
3.52712e-05
2.53908e-05
2.53911e-05
2.53888e-05
2.53891e-05
0.000171679
3.52744e-05
3.52677e-05
3.52749e-05
3.52681e-05
4.30063e-05
4.94472e-05
4.30061e-05
4.94473e-05
9.97097e-05
5.24735e-05
0.000212158
0.000196846
9.96924e-05
5.24809e-05
0.000212155
9.9711e-05
5.2471e-05
0.000212158
0.000196843
9.96938e-05
5.24787e-05
0.000212155
4.29964e-05
4.94484e-05
4.94484e-05
4.29959e-05
4.29973e-05
4.94482e-05
4.94482e-05
4.29967e-05
9.96806e-05
0.000196839
5.24713e-05
0.000212134
5.24659e-05
0.00021215
9.96893e-05
9.96818e-05
0.000196836
5.24691e-05
0.000212134
5.24634e-05
0.000212149
9.96899e-05
3.52728e-05
3.52683e-05
0.000171859
3.52728e-05
3.52687e-05
2.53907e-05
2.53905e-05
2.53895e-05
2.53898e-05
0.000171683
3.52694e-05
3.52654e-05
3.52698e-05
3.52654e-05
2.53903e-05
2.53906e-05
9.97107e-05
5.24663e-05
0.000212158
0.000196859
9.96932e-05
5.24737e-05
0.000212155
4.30108e-05
4.94402e-05
4.30113e-05
4.94402e-05
9.97108e-05
0.000212153
5.24586e-05
0.000196833
9.96928e-05
0.000212151
5.24667e-05
4.30034e-05
4.94444e-05
4.94444e-05
4.30022e-05
9.96824e-05
0.000196852
5.24643e-05
0.000212132
5.24588e-05
0.000212148
9.96896e-05
4.30024e-05
4.94411e-05
4.94412e-05
4.3001e-05
9.96819e-05
0.000196827
0.00021213
5.2457e-05
0.000212145
5.2451e-05
9.96892e-05
4.30056e-05
4.94457e-05
4.30055e-05
4.94457e-05
9.97095e-05
0.000212157
5.24703e-05
0.000196844
9.96931e-05
0.000212155
5.2478e-05
4.30052e-05
4.94437e-05
4.30051e-05
4.94438e-05
9.96819e-05
0.000196856
5.2466e-05
0.000212136
5.246e-05
0.00021215
9.96878e-05
4.29966e-05
4.94466e-05
4.94467e-05
4.29959e-05
9.96807e-05
0.000196837
0.000212134
5.24683e-05
0.000212149
5.24628e-05
9.96881e-05
4.29962e-05
4.94447e-05
4.94447e-05
4.29955e-05
3.52608e-05
3.52768e-05
0.000171847
3.52613e-05
3.52769e-05
2.539e-05
2.53898e-05
2.5387e-05
2.53874e-05
0.000171672
3.52578e-05
3.52734e-05
3.52578e-05
3.52738e-05
2.53896e-05
2.53899e-05
9.9709e-05
0.000212159
5.24672e-05
0.000196857
9.96909e-05
0.000212155
5.2475e-05
4.30115e-05
4.94434e-05
4.30119e-05
4.94435e-05
4.30112e-05
4.94434e-05
4.30117e-05
4.94435e-05
9.96804e-05
0.000196848
0.000212134
5.2469e-05
0.000212148
5.24634e-05
9.96867e-05
9.96795e-05
0.00019685
0.000212133
5.24653e-05
0.000212149
5.24597e-05
9.96865e-05
4.3003e-05
4.94444e-05
4.94444e-05
4.30017e-05
4.30027e-05
4.94444e-05
4.94444e-05
4.30014e-05
2.53898e-05
2.53896e-05
2.53888e-05
2.53886e-05
0.000171676
3.5273e-05
3.52676e-05
3.52734e-05
3.52679e-05
2.53894e-05
2.53897e-05
2.53884e-05
2.53887e-05
2.53909e-05
2.53906e-05
2.53889e-05
2.53886e-05
3.52711e-05
3.52644e-05
0.000171804
3.52698e-05
3.52631e-05
2.53905e-05
2.53907e-05
2.53885e-05
2.53887e-05
0.000171631
3.52666e-05
3.52598e-05
3.52666e-05
3.52598e-05
4.29891e-05
4.9449e-05
4.29881e-05
4.94485e-05
9.96549e-05
5.24561e-05
0.000212122
0.000196803
9.96564e-05
5.24621e-05
0.000212118
9.96556e-05
5.24535e-05
0.000212121
0.000196799
9.96568e-05
5.24598e-05
0.000212118
4.29809e-05
4.94486e-05
4.94493e-05
4.29845e-05
4.29816e-05
4.94484e-05
4.94492e-05
4.29852e-05
9.963e-05
0.000196799
5.24576e-05
0.00021212
5.24479e-05
0.000212117
9.96569e-05
9.96308e-05
0.000196795
5.24553e-05
0.000212119
5.24452e-05
0.000212116
9.96577e-05
3.52661e-05
3.52618e-05
0.000171808
3.52647e-05
3.52606e-05
2.53904e-05
2.53901e-05
2.53894e-05
2.53894e-05
0.000171635
3.52606e-05
3.52568e-05
3.52615e-05
3.52569e-05
2.539e-05
2.53902e-05
9.96558e-05
5.24482e-05
0.000212121
0.000196816
9.9657e-05
5.24545e-05
0.000212117
4.29935e-05
4.9442e-05
4.29931e-05
4.94414e-05
9.96551e-05
0.000212117
5.2441e-05
0.000196791
9.96563e-05
0.000212113
5.24477e-05
4.29878e-05
4.94444e-05
4.94453e-05
4.2991e-05
9.96318e-05
0.000196812