/*--------------------------------*- C++ -*----------------------------------*\
| =========                 |                                                 |
| \\      /  F ield         | OpenFOAM: The Open Source CFD Toolbox           |
|  \\    /   O peration     | Version:  2206                                  |
|   \\  /    A nd           | Website:  www.openfoam.com                      |
|    \\/     M anipulation  |                                                 |
\*---------------------------------------------------------------------------*/
FoamFile
{
    version     2.0;
    format      ascii;
    arch        "LSB;label=32;scalar=64";
    class       volVectorField;
    location    "26";
    object      U;
}
// * * * * * * * * * * * * * * * * * * * * * * * * * * * * * * * * * * * * * //

dimensions      [0 1 -1 0 0 0 0];

internalField   nonuniform List<vector> 
28335
(
(-7.07329e-07 -7.03809e-07 0.102941)
(-4.65138e-07 7.16839e-07 0.102885)
(7.1385e-07 -4.64822e-07 0.102885)
(-4.35848e-05 -4.35996e-05 0.102805)
(-7.1433e-07 -7.09999e-07 0.102941)
(-4.49563e-07 7.08068e-07 0.102885)
(7.04267e-07 -4.50277e-07 0.102885)
(-4.35743e-05 -4.35897e-05 0.102805)
(-7.268e-07 -7.23818e-07 0.102941)
(-4.19596e-07 6.89711e-07 0.102885)
(6.87142e-07 -4.18941e-07 0.102885)
(-4.35634e-05 -4.35773e-05 0.102805)
(-7.33442e-07 -7.30284e-07 0.102941)
(-4.04391e-07 6.79539e-07 0.102885)
(6.77354e-07 -4.0481e-07 0.102885)
(-4.3576e-05 -4.35889e-05 0.102804)
(-6.38814e-07 -6.36489e-07 0.102941)
(-5.88788e-07 8.13847e-07 0.102885)
(8.11548e-07 -5.89729e-07 0.102885)
(-4.36858e-05 -4.37004e-05 0.102804)
(-6.82402e-07 -6.81305e-07 0.102941)
(-4.94827e-07 7.07298e-07 0.102885)
(7.08581e-07 -4.96305e-07 0.102885)
(-4.36304e-05 -4.36492e-05 0.102805)
(-7.0976e-07 -7.12002e-07 0.102941)
(-4.621e-07 6.9935e-07 0.102885)
(7.06747e-07 -4.63734e-07 0.102885)
(-4.35922e-05 -4.36087e-05 0.102805)
(-7.04532e-07 -7.0314e-07 0.102941)
(-4.70422e-07 7.16553e-07 0.102885)
(7.15221e-07 -4.70406e-07 0.102885)
(-4.36036e-05 -4.36184e-05 0.102805)
(-7.03461e-07 -7.03108e-07 0.102941)
(-4.72912e-07 7.16739e-07 0.102885)
(7.16156e-07 -4.68924e-07 0.102885)
(-4.36064e-05 -4.36168e-05 0.102805)
(-7.02503e-07 -7.02602e-07 0.102941)
(-4.73504e-07 7.16638e-07 0.102885)
(7.17299e-07 -4.69106e-07 0.102885)
(-4.36069e-05 -4.36163e-05 0.102805)
(-7.01979e-07 -7.02327e-07 0.102941)
(-4.7371e-07 7.16541e-07 0.102885)
(7.17426e-07 -4.69034e-07 0.102885)
(-4.36069e-05 -4.36163e-05 0.102805)
(-7.01403e-07 -7.01985e-07 0.102941)
(-4.74408e-07 7.16852e-07 0.102885)
(7.18115e-07 -4.69633e-07 0.102885)
(-4.36075e-05 -4.36167e-05 0.102805)
(-7.01531e-07 -7.0212e-07 0.102941)
(-4.74458e-07 7.17023e-07 0.102885)
(7.18209e-07 -4.69603e-07 0.102885)
(-4.36066e-05 -4.36158e-05 0.102805)
(-7.01606e-07 -7.02166e-07 0.102941)
(-4.73594e-07 7.16543e-07 0.102885)
(7.17754e-07 -4.688e-07 0.102885)
(-4.36059e-05 -4.36152e-05 0.102805)
(-7.01801e-07 -7.0219e-07 0.102941)
(-4.73535e-07 7.16245e-07 0.102885)
(7.17775e-07 -4.68858e-07 0.102885)
(-4.36056e-05 -4.36148e-05 0.102805)
(-7.02477e-07 -7.0276e-07 0.102941)
(-4.72949e-07 7.15774e-07 0.102885)
(7.17382e-07 -4.68222e-07 0.102885)
(-4.36038e-05 -4.36128e-05 0.102805)
(-7.02297e-07 -7.02249e-07 0.102941)
(-4.71851e-07 7.15431e-07 0.102885)
(7.16975e-07 -4.66837e-07 0.102885)
(-4.35963e-05 -4.36053e-05 0.102805)
(-4.55671e-05 -4.55421e-05 0.102808)
(7.39391e-07 4.84793e-07 0.102885)
(-7.43785e-07 4.93387e-07 0.102885)
(4.55721e-05 -4.55441e-05 0.102809)
(4.70022e-07 7.20125e-07 0.102885)
(4.91541e-07 -7.40645e-07 0.102885)
(-4.67908e-07 7.19823e-07 0.102885)
(-4.88926e-07 -7.35777e-07 0.102885)
(-4.55399e-05 4.55754e-05 0.102808)
(7.16729e-07 -4.67687e-07 0.102885)
(-7.14966e-07 -4.67898e-07 0.102885)
(4.55437e-05 4.55634e-05 0.102808)
(4.35913e-05 4.3575e-05 0.102805)
(-4.55757e-05 -4.55496e-05 0.102808)
(7.35466e-07 4.86005e-07 0.102885)
(-7.40894e-07 4.89624e-07 0.102885)
(7.33636e-07 4.75302e-07 0.102885)
(-7.37601e-07 4.83492e-07 0.102885)
(-4.35863e-05 4.35609e-05 0.102805)
(4.55819e-05 -4.5552e-05 0.102808)
(4.69483e-07 7.17476e-07 0.102885)
(4.88476e-07 -7.38106e-07 0.102885)
(4.5938e-07 7.14882e-07 0.102885)
(4.80444e-07 -7.34653e-07 0.102885)
(-4.85138e-07 -7.33034e-07 0.102885)
(-4.56663e-07 7.13724e-07 0.102885)
(-4.78432e-07 -7.30613e-07 0.102885)
(4.3573e-05 -4.36045e-05 0.102805)
(-4.55499e-05 4.55831e-05 0.102808)
(-7.12168e-07 -4.62753e-07 0.102885)
(7.10167e-07 -4.5749e-07 0.102885)
(-7.09456e-07 -4.59419e-07 0.102885)
(4.55518e-05 4.55705e-05 0.102808)
(4.35807e-05 4.35657e-05 0.102805)
(-4.55931e-05 -4.55684e-05 0.102808)
(7.2706e-07 4.72663e-07 0.102885)
(-7.3168e-07 4.75405e-07 0.102885)
(7.27358e-07 4.55765e-07 0.102885)
(-7.32095e-07 4.64551e-07 0.102885)
(-4.35746e-05 4.35506e-05 0.102805)
(4.55982e-05 -4.55705e-05 0.102808)
(4.54102e-07 7.1011e-07 0.102885)
(4.71525e-07 -7.29415e-07 0.102885)
(4.40656e-07 7.07889e-07 0.102885)
(4.63439e-07 -7.28988e-07 0.102885)
(-4.70178e-07 -7.24509e-07 0.102885)
(-4.39681e-07 7.08242e-07 0.102885)
(-4.60317e-07 -7.24072e-07 0.102885)
(4.35603e-05 -4.3595e-05 0.102805)
(-4.55657e-05 4.56016e-05 0.102808)
(-7.0368e-07 -4.49187e-07 0.102885)
(7.05101e-07 -4.38999e-07 0.102885)
(-7.04293e-07 -4.39509e-07 0.102885)
(4.55681e-05 4.55889e-05 0.102808)
(4.35691e-05 4.35522e-05 0.102805)
(-4.55925e-05 -4.55677e-05 0.102808)
(7.09115e-07 4.40319e-07 0.102885)
(-7.14077e-07 4.43894e-07 0.102885)
(7.43116e-07 4.69984e-07 0.102885)
(-7.46793e-07 4.79077e-07 0.102885)
(-4.35638e-05 4.35382e-05 0.102805)
(4.55988e-05 -4.55693e-05 0.102808)
(4.23763e-07 6.90565e-07 0.102885)
(4.43199e-07 -7.11147e-07 0.102885)
(4.5558e-07 7.23389e-07 0.102885)
(4.7672e-07 -7.43048e-07 0.102885)
(-4.39286e-07 -7.06135e-07 0.102885)
(-4.52755e-07 7.2268e-07 0.102885)
(-4.75502e-07 -7.39748e-07 0.102885)
(4.35506e-05 -4.35816e-05 0.102805)
(-4.5566e-05 4.56018e-05 0.102808)
(-6.86252e-07 -4.175e-07 0.102885)
(7.20351e-07 -4.5317e-07 0.102885)
(-7.19759e-07 -4.53836e-07 0.102885)
(4.55671e-05 4.55889e-05 0.102808)
(4.3581e-05 4.35641e-05 0.102804)
(-4.55636e-05 -4.55394e-05 0.102808)
(6.99833e-07 4.26812e-07 0.102885)
(-7.04017e-07 4.30802e-07 0.102885)
(7.82821e-07 5.20837e-07 0.102884)
(-7.86315e-07 5.29822e-07 0.102884)
(-4.35747e-05 4.35505e-05 0.102804)
(4.55688e-05 -4.5541e-05 0.102808)
(4.1013e-07 6.81271e-07 0.102885)
(4.28675e-07 -7.00707e-07 0.102885)
(5.06694e-07 7.63367e-07 0.102885)
(5.27074e-07 -7.82055e-07 0.102884)
(-4.25782e-07 -6.9679e-07 0.102885)
(-5.03678e-07 7.6316e-07 0.102885)
(-5.25536e-07 -7.79206e-07 0.102884)
(4.35614e-05 -4.35935e-05 0.102804)
(-4.5538e-05 4.55734e-05 0.102808)
(-6.76904e-07 -4.04208e-07 0.102885)
(7.59541e-07 -5.02874e-07 0.102884)
(-7.5861e-07 -5.03157e-07 0.102884)
(4.55396e-05 4.55605e-05 0.102808)
(4.36935e-05 4.36748e-05 0.102804)
(-4.55318e-05 -4.55074e-05 0.102808)
(8.3458e-07 6.09086e-07 0.102884)
(-8.37879e-07 6.12812e-07 0.102884)
(7.58706e-07 5.54115e-07 0.102885)
(-7.61324e-07 5.60533e-07 0.102885)
(-4.36882e-05 4.36606e-05 0.102804)
(4.55361e-05 -4.55129e-05 0.102808)
(5.93444e-07 8.15742e-07 0.102885)
(6.10432e-07 -8.34956e-07 0.102884)
(5.39261e-07 7.37558e-07 0.102885)
(5.61967e-07 -7.60911e-07 0.102885)
(-6.088e-07 -8.30998e-07 0.102884)
(-5.38171e-07 7.36035e-07 0.102885)
(-5.56126e-07 -7.54586e-07 0.102885)
(4.36715e-05 -4.3706e-05 0.102804)
(-4.55039e-05 4.55388e-05 0.102808)
(-8.098e-07 -5.88033e-07 0.102885)
(7.35733e-07 -5.38378e-07 0.102885)
(-7.31387e-07 -5.3988e-07 0.102885)
(4.55121e-05 4.55277e-05 0.102808)
(4.36401e-05 4.36229e-05 0.102805)
(-4.55985e-05 -4.55787e-05 0.102808)
(7.31654e-07 5.14797e-07 0.102885)
(-7.33379e-07 5.15552e-07 0.102885)
(7.28641e-07 4.72767e-07 0.102885)
(-7.19002e-07 4.70065e-07 0.102885)
(-4.36353e-05 4.36044e-05 0.102805)
(4.56109e-05 -4.55972e-05 0.102809)
(4.9934e-07 7.10749e-07 0.102885)
(5.17317e-07 -7.33525e-07 0.102885)
(4.62772e-07 7.03754e-07 0.102885)
(4.81658e-07 -7.26928e-07 0.102885)
(-5.13249e-07 -7.29414e-07 0.102885)
(-4.57998e-07 6.93304e-07 0.102885)
(-4.78917e-07 -7.24632e-07 0.102885)
(4.36225e-05 -4.36545e-05 0.102805)
(-4.55761e-05 4.56085e-05 0.102808)
(-7.06029e-07 -4.96316e-07 0.102885)
(7.01774e-07 -4.59498e-07 0.102885)
(-7.01062e-07 -4.60926e-07 0.102885)
(4.5577e-05 4.55948e-05 0.102808)
(4.36015e-05 4.35804e-05 0.102805)
(-4.55882e-05 -4.55643e-05 0.102808)
(7.32898e-07 4.80841e-07 0.102885)
(-7.23461e-07 4.75446e-07 0.102885)
(7.38686e-07 4.84444e-07 0.102885)
(-7.41054e-07 4.93616e-07 0.102885)
(-4.35888e-05 4.35474e-05 0.102805)
(4.55958e-05 -4.55676e-05 0.102809)
(4.68956e-07 7.09464e-07 0.102885)
(4.84252e-07 -7.31751e-07 0.102885)
(4.71335e-07 7.17554e-07 0.102885)
(4.91714e-07 -7.3953e-07 0.102885)
(-4.81657e-07 -7.29274e-07 0.102885)
(-4.6891e-07 7.16815e-07 0.102885)
(-4.89219e-07 -7.3517e-07 0.102885)
(4.35786e-05 -4.36132e-05 0.102805)
(-4.55625e-05 4.55964e-05 0.102808)
(-7.05664e-07 -4.63687e-07 0.102885)
(7.14704e-07 -4.68e-07 0.102885)
(-7.12884e-07 -4.70754e-07 0.102885)
(4.55648e-05 4.55839e-05 0.102808)
(4.36105e-05 4.35934e-05 0.102805)
(-4.55884e-05 -4.55628e-05 0.102808)
(7.38075e-07 4.90543e-07 0.102885)
(-7.40728e-07 4.94046e-07 0.102885)
(7.39173e-07 4.85359e-07 0.102885)
(-7.42652e-07 4.97949e-07 0.102885)
(-4.36032e-05 4.35774e-05 0.102805)
(4.55927e-05 -4.5566e-05 0.102809)
(4.75114e-07 7.1904e-07 0.102885)
(4.92017e-07 -7.4005e-07 0.102885)
(4.71272e-07 7.19524e-07 0.102885)
(4.91467e-07 -7.40828e-07 0.102885)
(-4.91955e-07 -7.35434e-07 0.102885)
(-4.71793e-07 7.17529e-07 0.102885)
(-4.97753e-07 -7.34009e-07 0.102885)
(4.35905e-05 -4.3624e-05 0.102805)
(-4.55623e-05 4.55954e-05 0.102808)
(-7.13357e-07 -4.7355e-07 0.102885)
(7.15951e-07 -4.67519e-07 0.102885)
(-7.1323e-07 -4.80116e-07 0.102885)
(4.55609e-05 4.55848e-05 0.102808)
(4.361e-05 4.35942e-05 0.102805)
(-4.55883e-05 -4.5562e-05 0.102808)
(7.3869e-07 4.90727e-07 0.102885)
(-7.41883e-07 4.97873e-07 0.102885)
(7.39681e-07 4.85704e-07 0.102885)
(-7.42286e-07 4.98771e-07 0.102885)
(-4.36053e-05 4.35783e-05 0.102805)
(4.55924e-05 -4.55666e-05 0.102809)
(4.74622e-07 7.2037e-07 0.102885)
(4.90893e-07 -7.4084e-07 0.102885)
(4.71312e-07 7.2057e-07 0.102885)
(4.91488e-07 -7.41541e-07 0.102885)
(-4.99227e-07 -7.33521e-07 0.102885)
(-4.7231e-07 7.16803e-07 0.102885)
(-4.98018e-07 -7.32614e-07 0.102885)
(4.35902e-05 -4.36245e-05 0.102805)
(-4.55624e-05 4.55949e-05 0.102808)
(-7.12998e-07 -4.81997e-07 0.102885)
(7.17102e-07 -4.6706e-07 0.102885)
(-7.13421e-07 -4.81364e-07 0.102885)
(4.55607e-05 4.55858e-05 0.102808)
(4.36103e-05 4.35953e-05 0.102805)
(-4.55877e-05 -4.55615e-05 0.102808)
(7.3923e-07 4.909e-07 0.102885)
(-7.42466e-07 4.99535e-07 0.102885)
(7.40046e-07 4.85877e-07 0.102885)
(-7.42763e-07 4.99821e-07 0.102885)
(-4.3606e-05 4.35782e-05 0.102805)
(4.55916e-05 -4.55662e-05 0.102809)
(4.74955e-07 7.2134e-07 0.102885)
(4.9142e-07 -7.41723e-07 0.102885)
(4.71806e-07 7.20986e-07 0.102885)
(4.91861e-07 -7.42072e-07 0.102885)
(-4.99238e-07 -7.32785e-07 0.102885)
(-4.72819e-07 7.1696e-07 0.102885)
(-4.98306e-07 -7.32499e-07 0.102885)
(4.35905e-05 -4.36254e-05 0.102805)
(-4.55618e-05 4.55941e-05 0.102808)
(-7.13515e-07 -4.82829e-07 0.102885)
(7.17491e-07 -4.67257e-07 0.102885)
(-7.13799e-07 -4.82127e-07 0.102885)
(4.55604e-05 4.55855e-05 0.102808)
(4.36107e-05 4.35955e-05 0.102805)
(-4.55876e-05 -4.5561e-05 0.102808)
(7.39424e-07 4.91076e-07 0.102885)
(-7.42569e-07 5.00077e-07 0.102885)
(7.40355e-07 4.86272e-07 0.102885)
(-7.42954e-07 5.00248e-07 0.102885)
(-4.36064e-05 4.35783e-05 0.102805)
(4.55915e-05 -4.55661e-05 0.102809)
(4.75248e-07 7.21636e-07 0.102885)
(4.91548e-07 -7.4192e-07 0.102885)
(4.72247e-07 7.21551e-07 0.102885)
(4.92345e-07 -7.42354e-07 0.102885)
(-4.99309e-07 -7.32515e-07 0.102885)
(-4.73258e-07 7.17071e-07 0.102885)
(-4.98722e-07 -7.3251e-07 0.102885)
(4.35908e-05 -4.36258e-05 0.102805)
(-4.55616e-05 4.5594e-05 0.102808)
(-7.13787e-07 -4.83259e-07 0.102885)
(7.17973e-07 -4.67622e-07 0.102885)
(-7.14573e-07 -4.82788e-07 0.102885)
(4.55602e-05 4.55855e-05 0.102808)
(4.36111e-05 4.35963e-05 0.102805)
(-4.55873e-05 -4.55607e-05 0.102808)
(7.39752e-07 4.9159e-07 0.102885)
(-7.42897e-07 5.00689e-07 0.102885)
(7.40201e-07 4.86182e-07 0.102885)
(-7.43459e-07 5.00924e-07 0.102885)
(-4.36068e-05 4.35787e-05 0.102805)
(4.5591e-05 -4.55652e-05 0.102809)
(4.75852e-07 7.2221e-07 0.102885)
(4.92265e-07 -7.42366e-07 0.102885)
(4.72289e-07 7.2154e-07 0.102885)
(4.92547e-07 -7.42556e-07 0.102885)
(-4.99955e-07 -7.32699e-07 0.102885)
(-4.73617e-07 7.17441e-07 0.102885)
(-4.99054e-07 -7.32501e-07 0.102885)
(4.35915e-05 -4.36263e-05 0.102805)
(-4.55605e-05 4.5593e-05 0.102808)
(-7.14669e-07 -4.84152e-07 0.102885)
(7.18224e-07 -4.67761e-07 0.102885)
(-7.14951e-07 -4.83117e-07 0.102885)
(4.55592e-05 4.55846e-05 0.102808)
(4.36102e-05 4.35953e-05 0.102805)
(-4.55885e-05 -4.55619e-05 0.102808)
(7.3946e-07 4.91234e-07 0.102885)
(-7.43223e-07 5.01085e-07 0.102885)
(7.4033e-07 4.86137e-07 0.102885)
(-7.43345e-07 5.00955e-07 0.102885)
(-4.36065e-05 4.35783e-05 0.102805)
(4.55924e-05 -4.55669e-05 0.102809)
(4.75604e-07 7.22087e-07 0.102885)
(4.92339e-07 -7.42517e-07 0.102885)
(4.72274e-07 7.21649e-07 0.102885)
(4.92179e-07 -7.42185e-07 0.102885)
(-5.00156e-07 -7.32652e-07 0.102885)
(-4.72965e-07 7.17096e-07 0.102885)
(-4.98144e-07 -7.31861e-07 0.102885)
(4.35906e-05 -4.36255e-05 0.102805)
(-4.55616e-05 4.55941e-05 0.102808)
(-7.14914e-07 -4.84328e-07 0.102885)
(7.17827e-07 -4.66808e-07 0.102885)
(-7.14445e-07 -4.82279e-07 0.102885)
(4.55607e-05 4.55859e-05 0.102808)
(4.36115e-05 4.35967e-05 0.102805)
(-4.55878e-05 -4.55613e-05 0.102808)
(7.39514e-07 4.91057e-07 0.102885)
(-7.42919e-07 5.00856e-07 0.102885)
(7.40047e-07 4.85684e-07 0.102885)
(-7.43079e-07 5.00567e-07 0.102885)
(-4.36072e-05 4.35793e-05 0.102805)
(4.55915e-05 -4.55663e-05 0.102809)
(4.75283e-07 7.22085e-07 0.102885)
(4.9206e-07 -7.42105e-07 0.102885)
(4.71942e-07 7.21438e-07 0.102885)
(4.9184e-07 -7.41845e-07 0.102885)
(-4.99342e-07 -7.32106e-07 0.102885)
(-4.72436e-07 7.16677e-07 0.102885)
(-4.97879e-07 -7.31512e-07 0.102885)
(4.35902e-05 -4.36251e-05 0.102805)
(-4.55613e-05 4.55939e-05 0.102808)
(-7.14386e-07 -4.83592e-07 0.102885)
(7.17377e-07 -4.66357e-07 0.102885)
(-7.14231e-07 -4.8194e-07 0.102885)
(4.55604e-05 4.55856e-05 0.102808)
(4.36106e-05 4.35957e-05 0.102805)
(-4.55868e-05 -4.55603e-05 0.102808)
(7.39075e-07 4.90656e-07 0.102885)
(-7.42629e-07 5.00498e-07 0.102885)
(7.39781e-07 4.85659e-07 0.102885)
(-7.43041e-07 5.00597e-07 0.102885)
(-4.36062e-05 4.35782e-05 0.102805)
(4.55904e-05 -4.5565e-05 0.102809)
(4.74914e-07 7.21923e-07 0.102885)
(4.92094e-07 -7.42004e-07 0.102885)
(4.72082e-07 7.21264e-07 0.102885)
(4.91504e-07 -7.41417e-07 0.102885)
(-4.99473e-07 -7.3191e-07 0.102885)
(-4.72645e-07 7.16691e-07 0.102885)
(-4.97574e-07 -7.31047e-07 0.102885)
(4.35897e-05 -4.36245e-05 0.102805)
(-4.55599e-05 4.55927e-05 0.102808)
(-7.14516e-07 -4.83624e-07 0.102885)
(7.17154e-07 -4.65807e-07 0.102885)
(-7.14062e-07 -4.81298e-07 0.102885)
(4.55591e-05 4.55846e-05 0.102808)
(4.36082e-05 4.35934e-05 0.102805)
(-4.55835e-05 -4.55569e-05 0.102808)
(7.38597e-07 4.90065e-07 0.102885)
(-7.42398e-07 4.99905e-07 0.102885)
(7.39416e-07 4.85134e-07 0.102885)
(-7.42646e-07 5.00102e-07 0.102885)
(-4.3604e-05 4.35761e-05 0.102805)
(4.55874e-05 -4.55616e-05 0.102809)
(4.73878e-07 7.21416e-07 0.102885)
(4.91651e-07 -7.41684e-07 0.102885)
(4.71857e-07 7.20949e-07 0.102885)
(4.91082e-07 -7.41333e-07 0.102885)
(-4.99173e-07 -7.31523e-07 0.102885)
(-4.72e-07 7.16526e-07 0.102885)
(-4.96924e-07 -7.30752e-07 0.102885)
(4.35881e-05 -4.36226e-05 0.102805)
(-4.55549e-05 4.55877e-05 0.102808)
(-7.1433e-07 -4.82893e-07 0.102885)
(7.17054e-07 -4.65468e-07 0.102885)
(-7.13881e-07 -4.80992e-07 0.102885)
(4.55543e-05 4.55798e-05 0.102808)
(4.3603e-05 4.35882e-05 0.102805)
(7.38461e-07 4.89939e-07 0.102885)
(-7.41886e-07 4.99824e-07 0.102885)
(-4.35985e-05 4.35709e-05 0.102805)
(4.73112e-07 7.21666e-07 0.102885)
(4.90537e-07 -7.40998e-07 0.102885)
(-4.977e-07 -7.30696e-07 0.102885)
(4.35809e-05 -4.36153e-05 0.102805)
(-7.13883e-07 -4.81647e-07 0.102885)
(6.21674e-08 -9.38378e-06 0.100551)
(-1.12915e-06 -6.60393e-06 0.0932518)
(1.87267e-06 -2.71961e-06 0.0811186)
(-9.45039e-06 5.39145e-08 0.10055)
(-6.59401e-06 -1.11245e-06 0.0932515)
(-7.06289e-07 -7.01744e-07 0.102941)
(7.04489e-07 -7.03065e-07 0.102941)
(-7.00053e-07 7.03941e-07 0.102941)
(7.0003e-07 7.0275e-07 0.102941)
(1.52109e-05 7.90818e-08 0.102403)
(-4.73326e-07 7.21399e-07 0.102885)
(1.41808e-05 -4.59936e-06 0.100926)
(-5.98645e-07 -1.85435e-07 0.102924)
(-2.59917e-06 1.81074e-06 0.0811194)
(8.55714e-08 1.5217e-05 0.102403)
(7.18553e-07 -4.73472e-07 0.102885)
(-1.85665e-07 -6.00709e-07 0.102924)
(-4.63648e-06 1.42415e-05 0.100925)
(4.55426e-05 4.55623e-05 0.102808)
(4.25224e-06 5.38997e-06 0.0982691)
(5.38515e-06 4.24595e-06 0.0982682)
(6.80942e-08 -9.40921e-06 0.100551)
(7.04655e-07 6.76722e-06 0.0932341)
(-7.04162e-08 9.08579e-06 0.100538)
(-1.11415e-06 -6.6546e-06 0.093252)
(-1.93135e-06 2.77895e-06 0.0811001)
(1.89439e-06 -2.76896e-06 0.0811186)
(-9.47477e-06 5.76602e-08 0.10055)
(6.75427e-06 6.90818e-07 0.0932337)
(9.15702e-06 -5.47802e-08 0.100538)
(-6.64551e-06 -1.09847e-06 0.0932517)
(7.0598e-07 -7.04809e-07 0.102941)
(-7.01014e-07 7.05759e-07 0.102941)
(7.01082e-07 7.04526e-07 0.102941)
(-7.14504e-07 -7.09594e-07 0.102941)
(7.12819e-07 -7.10928e-07 0.102941)
(-7.08978e-07 7.11941e-07 0.102941)
(7.07724e-07 7.10049e-07 0.102941)
(1.52492e-05 8.08901e-08 0.102403)
(-1.48145e-05 4.21387e-06 0.100907)
(-5.88873e-07 -1.86304e-07 0.102924)
(-4.64564e-07 7.16808e-07 0.102885)
(-1.53294e-05 -8.86932e-08 0.102398)
(1.4211e-05 -4.62182e-06 0.100926)
(-5.87227e-07 -1.87879e-07 0.102924)
(2.65756e-06 -1.86364e-06 0.0810974)
(-2.64814e-06 1.83414e-06 0.0811195)
(8.5579e-08 1.5254e-05 0.102403)
(-1.86144e-07 -5.77697e-07 0.102924)
(4.24954e-06 -1.4872e-05 0.100907)
(7.13744e-07 -4.64327e-07 0.102885)
(-9.05448e-08 -1.53383e-05 0.102398)
(-1.87999e-07 -5.89246e-07 0.102924)
(-4.66394e-06 1.42722e-05 0.100925)
(-4.52787e-06 -5.55292e-06 0.0982501)
(-5.54419e-06 -4.52004e-06 0.0982494)
(4.55476e-05 4.55665e-05 0.102808)
(4.24043e-06 5.40274e-06 0.0982692)
(5.39917e-06 4.23335e-06 0.0982683)
(6.66776e-08 -9.43285e-06 0.100551)
(6.9717e-07 6.7409e-06 0.0932344)
(-7.40587e-08 9.06624e-06 0.100538)
(-1.1155e-06 -6.68661e-06 0.0932524)
(-1.90468e-06 2.74594e-06 0.0811004)
(1.8861e-06 -2.80761e-06 0.0811192)
(-9.50373e-06 5.90629e-08 0.10055)
(6.72617e-06 6.84868e-07 0.0932341)
(9.13362e-06 -5.90807e-08 0.100538)
(-6.68049e-06 -1.09417e-06 0.0932521)
(7.13028e-07 -7.11229e-07 0.102941)
(-7.09398e-07 7.12508e-07 0.102941)
(7.07725e-07 7.11253e-07 0.102941)
(-7.25845e-07 -7.21625e-07 0.102941)
(7.23626e-07 -7.22097e-07 0.102941)
(-7.19262e-07 7.23128e-07 0.102941)
(7.18936e-07 7.22782e-07 0.102941)
(1.52859e-05 7.83924e-08 0.102403)
(-1.47853e-05 4.18039e-06 0.100907)
(-5.69184e-07 -1.90395e-07 0.102924)
(-4.51677e-07 7.10271e-07 0.102885)
(-1.53048e-05 -9.27787e-08 0.102398)
(1.42444e-05 -4.64562e-06 0.100926)
(-5.67976e-07 -1.90675e-07 0.102924)
(2.62638e-06 -1.83427e-06 0.0810977)
(-2.69428e-06 1.82805e-06 0.08112)
(8.41996e-08 1.52918e-05 0.102403)
(-1.90771e-07 -5.58853e-07 0.102924)
(4.21703e-06 -1.48428e-05 0.100907)
(7.06107e-07 -4.51638e-07 0.102885)
(-9.49922e-08 -1.53138e-05 0.102397)
(-1.91148e-07 -5.69602e-07 0.102924)
(-4.68697e-06 1.43034e-05 0.100925)
(-4.53458e-06 -5.54632e-06 0.0982502)
(-5.53488e-06 -4.53091e-06 0.0982495)
(4.55602e-05 4.55805e-05 0.102808)
(4.24065e-06 5.39854e-06 0.0982693)
(5.39297e-06 4.23165e-06 0.0982683)
(6.29469e-08 -9.47805e-06 0.100551)
(7.08029e-07 6.71578e-06 0.0932348)
(-7.65684e-08 9.02844e-06 0.100538)
(-1.12926e-06 -6.70258e-06 0.0932529)
(-1.92397e-06 2.71498e-06 0.0811014)
(1.95588e-06 -2.82408e-06 0.0811202)
(-9.54558e-06 5.48667e-08 0.10055)
(6.70069e-06 6.90824e-07 0.0932345)
(9.09695e-06 -6.0299e-08 0.100538)
(-6.68981e-06 -1.11361e-06 0.0932526)
(7.25331e-07 -7.24135e-07 0.102941)
(-7.20443e-07 7.25193e-07 0.102941)
(7.20467e-07 7.24887e-07 0.102941)
(-7.26048e-07 -7.2216e-07 0.102941)
(7.24761e-07 -7.22984e-07 0.102941)
(-7.20266e-07 7.24525e-07 0.102941)
(7.19508e-07 7.23392e-07 0.102941)
(1.53131e-05 7.59217e-08 0.102403)
(-1.47557e-05 4.15926e-06 0.100906)
(-5.35464e-07 -1.93615e-07 0.102924)
(-4.2707e-07 6.92372e-07 0.102885)
(-1.52613e-05 -9.19669e-08 0.102397)
(1.42859e-05 -4.68239e-06 0.100925)
(-5.40373e-07 -1.96758e-07 0.102924)
(2.59983e-06 -1.85895e-06 0.0810987)
(-2.7086e-06 1.89664e-06 0.0811211)
(8.02219e-08 1.53164e-05 0.102403)
(-1.93397e-07 -5.24766e-07 0.102924)
(4.19417e-06 -1.48108e-05 0.100907)
(6.89444e-07 -4.26089e-07 0.102885)
(-9.39444e-08 -1.52723e-05 0.102397)
(-1.96556e-07 -5.40599e-07 0.102924)
(-4.72012e-06 1.43448e-05 0.100925)
(-4.52575e-06 -5.55036e-06 0.0982502)
(-5.54017e-06 -4.51862e-06 0.0982494)
(4.55912e-05 4.56124e-05 0.102808)
(4.25093e-06 5.43187e-06 0.0982693)
(5.42759e-06 4.24486e-06 0.0982683)
(3.91467e-08 -9.47349e-06 0.10055)
(7.25284e-07 6.69803e-06 0.0932355)
(-7.71172e-08 8.96958e-06 0.100538)
(-1.16709e-06 -6.71062e-06 0.0932535)
(-1.94471e-06 2.74343e-06 0.0811027)
(2.04589e-06 -2.85413e-06 0.0811217)
(-9.53877e-06 3.03982e-08 0.10055)
(6.68026e-06 7.02354e-07 0.0932351)
(9.0383e-06 -6.25449e-08 0.100538)
(-6.69496e-06 -1.14644e-06 0.0932533)
(7.32784e-07 -7.30951e-07 0.102941)
(-7.27824e-07 7.32798e-07 0.102941)
(7.271e-07 7.31442e-07 0.102941)
(-6.92743e-07 -6.89158e-07 0.102941)
(6.91661e-07 -6.90343e-07 0.102941)
(-6.87824e-07 6.92054e-07 0.102941)
(6.87699e-07 6.90931e-07 0.102941)
(1.53242e-05 6.99844e-08 0.102403)
(-1.47288e-05 4.14225e-06 0.100906)
(-5.31606e-07 -1.954e-07 0.102924)
(-3.69936e-07 6.49589e-07 0.102885)
(-1.52325e-05 -9.74023e-08 0.102397)
(1.4321e-05 -4.71726e-06 0.100925)
(-4.92347e-07 -2.04519e-07 0.102924)
(2.62973e-06 -1.87645e-06 0.0811)
(-2.73365e-06 1.9862e-06 0.0811226)
(7.50579e-08 1.53303e-05 0.102402)
(-1.95136e-07 -5.21315e-07 0.102924)
(4.17815e-06 -1.47853e-05 0.100906)
(6.46174e-07 -3.68669e-07 0.102885)
(-9.90563e-08 -1.52415e-05 0.102397)
(-2.04346e-07 -4.92208e-07 0.102924)
(-4.75437e-06 1.43812e-05 0.100924)
(-4.51011e-06 -5.5255e-06 0.0982502)
(-5.51746e-06 -4.50206e-06 0.0982495)
(4.56475e-05 4.56686e-05 0.102808)
(4.3089e-06 5.47095e-06 0.0982694)
(5.46617e-06 4.3037e-06 0.0982684)
(6.37882e-08 -9.14635e-06 0.10055)
(7.52976e-07 6.7972e-06 0.0932362)
(-3.30332e-08 9.06039e-06 0.100538)
(-1.0226e-06 -6.2749e-06 0.0932539)
(-2.12308e-06 2.86311e-06 0.081104)
(1.79877e-06 -2.55505e-06 0.0811212)
(-9.21101e-06 5.29329e-08 0.100549)
(6.77551e-06 7.31259e-07 0.0932357)
(9.12821e-06 -1.47617e-08 0.100538)
(-6.24807e-06 -1.00212e-06 0.0932537)
(6.37928e-07 -6.3763e-07 0.102941)
(-6.34179e-07 6.37724e-07 0.102941)
(6.34264e-07 6.36709e-07 0.102941)
(-6.49497e-07 -6.46765e-07 0.102941)
(6.47858e-07 -6.48986e-07 0.102941)
(-6.42885e-07 6.44934e-07 0.102941)
(6.44744e-07 6.44565e-07 0.102941)
(1.48562e-05 1.00408e-07 0.102402)
(-1.48781e-05 4.23458e-06 0.100906)
(-7.18815e-07 -1.61883e-07 0.102924)
(-6.15062e-07 8.12217e-07 0.102885)
(-1.53845e-05 -7.72616e-08 0.102397)
(1.39315e-05 -4.45053e-06 0.100925)
(-7.72803e-07 -1.51702e-07 0.102924)
(2.75462e-06 -2.05771e-06 0.0811014)
(-2.44327e-06 1.74075e-06 0.081122)
(1.05139e-07 1.48564e-05 0.102402)
(-1.61466e-07 -7.10147e-07 0.102924)
(4.26681e-06 -1.49301e-05 0.100906)
(8.10449e-07 -6.15902e-07 0.102885)
(-7.90138e-08 -1.5391e-05 0.102397)
(-1.50626e-07 -7.75348e-07 0.102924)
(-4.48697e-06 1.39898e-05 0.100924)
(-4.59063e-06 -5.64107e-06 0.0982504)
(-5.63117e-06 -4.58404e-06 0.0982497)
(4.53982e-05 4.54175e-05 0.102808)
(4.06255e-06 5.31579e-06 0.0982694)
(5.31345e-06 4.05236e-06 0.0982684)
(5.6407e-08 -9.29626e-06 0.100551)
(7.49421e-07 7.13792e-06 0.0932347)
(-1.07529e-07 9.32731e-06 0.100538)
(-1.08581e-06 -6.4677e-06 0.093252)
(-1.88494e-06 2.8634e-06 0.0811007)
(1.91543e-06 -2.70144e-06 0.081119)
(-9.36288e-06 3.77489e-08 0.10055)
(7.10321e-06 7.27675e-07 0.0932342)
(9.39523e-06 -1.01862e-07 0.100538)
(-6.43451e-06 -1.06401e-06 0.093252)
(6.82583e-07 -6.84434e-07 0.102941)
(-6.76721e-07 6.79117e-07 0.102941)
(6.78024e-07 6.78261e-07 0.102941)
(-7.1289e-07 -7.14182e-07 0.102941)
(7.17094e-07 -7.20619e-07 0.102941)
(-7.09672e-07 7.11892e-07 0.102941)
(7.09755e-07 7.09171e-07 0.102941)
(1.5155e-05 7.37559e-08 0.102403)
(-1.50401e-05 4.39326e-06 0.100906)
(-6.53348e-07 -1.80353e-07 0.102924)
(-4.68003e-07 6.94105e-07 0.102885)
(-1.55838e-05 -8.72657e-08 0.102397)
(1.4112e-05 -4.54609e-06 0.100926)
(-6.14852e-07 -1.90485e-07 0.102924)
(2.76055e-06 -1.82886e-06 0.081098)
(-2.59572e-06 1.8529e-06 0.0811196)
(8.13802e-08 1.51589e-05 0.102403)
(-1.76924e-07 -6.46676e-07 0.102924)
(4.4302e-06 -1.50925e-05 0.100907)
(6.97294e-07 -4.69599e-07 0.102885)
(-8.84176e-08 -1.55931e-05 0.102397)
(-1.85616e-07 -6.17686e-07 0.102924)
(-4.5777e-06 1.41725e-05 0.100925)
(-4.60596e-06 -5.5425e-06 0.0982498)
(-5.52956e-06 -4.60418e-06 0.0982491)
(4.55814e-05 4.55981e-05 0.102808)
(4.21692e-06 5.41212e-06 0.098269)
(5.41024e-06 4.20726e-06 0.098268)
(6.68813e-08 -9.38615e-06 0.100551)
(7.26964e-07 6.82539e-06 0.0932339)
(-6.99062e-08 9.10858e-06 0.100538)
(-1.10317e-06 -6.59237e-06 0.0932517)
(-1.80657e-06 2.68016e-06 0.0811)
(1.89998e-06 -2.75467e-06 0.0811186)
(-9.45149e-06 5.27223e-08 0.10055)
(6.79366e-06 6.93846e-07 0.0932334)
(9.18075e-06 -6.31326e-08 0.100538)
(-6.55915e-06 -1.08139e-06 0.0932517)
(7.15083e-07 -7.17984e-07 0.102941)
(-7.07051e-07 7.09663e-07 0.102941)
(7.07842e-07 7.06965e-07 0.102941)
(-7.05828e-07 -7.04102e-07 0.102941)
(7.06225e-07 -7.03683e-07 0.102941)
(-7.00573e-07 7.03947e-07 0.102941)
(7.01745e-07 7.00666e-07 0.102941)
(1.52202e-05 7.63768e-08 0.102403)
(-1.48417e-05 4.20618e-06 0.100907)
(-5.91269e-07 -1.95158e-07 0.102924)
(-4.65013e-07 7.08444e-07 0.102885)
(-1.53593e-05 -9.69804e-08 0.102398)
(1.41897e-05 -4.61928e-06 0.100926)
(-5.90808e-07 -1.93681e-07 0.102924)
(2.67366e-06 -1.85338e-06 0.0810974)
(-2.63455e-06 1.83189e-06 0.0811194)
(8.37966e-08 1.52241e-05 0.102403)
(-1.87331e-07 -5.85314e-07 0.102924)
(4.25231e-06 -1.48948e-05 0.100907)
(7.10437e-07 -4.64673e-07 0.102885)
(-9.3722e-08 -1.53667e-05 0.102398)
(-1.87e-07 -5.9099e-07 0.102924)
(-4.65308e-06 1.42502e-05 0.100925)
(-4.54213e-06 -5.55426e-06 0.0982499)
(-5.54246e-06 -4.53679e-06 0.0982492)
(4.5569e-05 4.55867e-05 0.102808)
(4.23106e-06 5.39915e-06 0.0982691)
(5.39706e-06 4.22209e-06 0.0982681)
(6.14003e-08 -9.38461e-06 0.100551)
(7.1714e-07 6.81902e-06 0.0932339)
(-7.97757e-08 9.10484e-06 0.100538)
(-1.1076e-06 -6.59076e-06 0.0932517)
(-1.91651e-06 2.77953e-06 0.0811002)
(1.89436e-06 -2.75559e-06 0.0811187)
(-9.45155e-06 5.17072e-08 0.10055)
(6.78517e-06 6.90976e-07 0.0932334)
(9.1743e-06 -6.43083e-08 0.100538)
(-6.55859e-06 -1.08111e-06 0.0932517)
(7.04854e-07 -7.01626e-07 0.102941)
(-6.99377e-07 7.0329e-07 0.102941)
(7.02349e-07 6.98827e-07 0.102941)
(-7.04598e-07 -7.02855e-07 0.102941)
(7.05551e-07 -6.9911e-07 0.102941)
(-6.97792e-07 7.04307e-07 0.102941)
(7.07443e-07 6.91451e-07 0.102941)
(1.52155e-05 8.01379e-08 0.102403)
(-1.48384e-05 4.21759e-06 0.100907)
(-5.97846e-07 -1.86517e-07 0.102924)
(-4.70442e-07 7.16813e-07 0.102885)
(-1.5365e-05 -9.11179e-08 0.102398)
(1.41892e-05 -4.61177e-06 0.100926)
(-5.9712e-07 -1.86963e-07 0.102924)
(2.66728e-06 -1.85899e-06 0.0810974)
(-2.63604e-06 1.83059e-06 0.0811194)
(8.34207e-08 1.52165e-05 0.102403)
(-1.85163e-07 -5.91015e-07 0.102924)
(4.25389e-06 -1.48928e-05 0.100907)
(7.15132e-07 -4.68564e-07 0.102885)
(-9.26614e-08 -1.53715e-05 0.102398)
(-1.85872e-07 -5.94302e-07 0.102924)
(-4.64989e-06 1.42489e-05 0.100925)
(-4.54559e-06 -5.5545e-06 0.09825)
(-5.54325e-06 -4.54039e-06 0.0982493)
(4.5563e-05 4.55842e-05 0.102808)
(4.22905e-06 5.40029e-06 0.0982691)
(5.39698e-06 4.22053e-06 0.0982681)
(6.08749e-08 -9.38445e-06 0.100551)
(7.16749e-07 6.81963e-06 0.0932339)
(-8.04636e-08 9.10516e-06 0.100538)
(-1.10762e-06 -6.59039e-06 0.0932517)
(-1.92221e-06 2.78204e-06 0.0811002)
(1.89313e-06 -2.75577e-06 0.0811187)
(-9.45166e-06 5.16371e-08 0.10055)
(6.78617e-06 6.92024e-07 0.0932334)
(9.17425e-06 -6.43875e-08 0.100538)
(-6.55739e-06 -1.0808e-06 0.0932517)
(7.05554e-07 -6.98381e-07 0.102941)
(-6.97081e-07 7.04481e-07 0.102941)
(7.09105e-07 6.90699e-07 0.102941)
(-7.0362e-07 -7.02597e-07 0.102941)
(7.05552e-07 -6.97772e-07 0.102941)
(-6.96399e-07 7.04717e-07 0.102941)
(7.07719e-07 6.90627e-07 0.102941)
(1.52147e-05 8.10879e-08 0.102403)
(-1.48385e-05 4.21917e-06 0.100907)
(-6.00809e-07 -1.86729e-07 0.102924)
(-4.71927e-07 7.16518e-07 0.102885)
(-1.53659e-05 -8.98183e-08 0.102398)
(1.41891e-05 -4.61099e-06 0.100926)
(-5.98766e-07 -1.87415e-07 0.102924)
(2.66735e-06 -1.85865e-06 0.0810974)
(-2.63595e-06 1.83075e-06 0.0811194)
(8.38184e-08 1.52136e-05 0.102403)
(-1.86089e-07 -5.93828e-07 0.102924)
(4.25448e-06 -1.48921e-05 0.100907)
(7.1609e-07 -4.66858e-07 0.102885)
(-9.35952e-08 -1.53696e-05 0.102398)
(-1.8666e-07 -5.96679e-07 0.102924)
(-4.65012e-06 1.42493e-05 0.100925)
(-4.54614e-06 -5.55354e-06 0.09825)
(-5.54347e-06 -4.54012e-06 0.0982493)
(4.5561e-05 4.55859e-05 0.102808)
(4.22868e-06 5.40077e-06 0.0982691)
(5.3969e-06 4.22091e-06 0.0982681)
(6.03812e-08 -9.384e-06 0.100551)
(7.17005e-07 6.81999e-06 0.0932339)
(-8.02687e-08 9.105e-06 0.100538)
(-1.10802e-06 -6.59002e-06 0.0932517)
(-1.92427e-06 2.78201e-06 0.0811003)
(1.89187e-06 -2.75548e-06 0.0811188)
(-9.45154e-06 5.12613e-08 0.10055)
(6.78667e-06 6.91748e-07 0.0932334)
(9.17443e-06 -6.48043e-08 0.100538)
(-6.55747e-06 -1.08113e-06 0.0932517)
(7.05217e-07 -6.97486e-07 0.102941)
(-6.96013e-07 7.04437e-07 0.102941)
(7.08702e-07 6.90172e-07 0.102941)
(-7.02901e-07 -7.0219e-07 0.102941)
(7.05329e-07 -6.97098e-07 0.102941)
(-6.95918e-07 7.04578e-07 0.102941)
(7.07673e-07 6.90186e-07 0.102941)
(1.52142e-05 8.11976e-08 0.102403)
(-1.48389e-05 4.21904e-06 0.100907)
(-6.01067e-07 -1.86712e-07 0.102924)
(-4.72949e-07 7.16825e-07 0.102885)