/*--------------------------------*- C++ -*----------------------------------*\
| =========                 |                                                 |
| \\      /  F ield         | OpenFOAM: The Open Source CFD Toolbox           |
|  \\    /   O peration     | Version:  2206                                  |
|   \\  /    A nd           | Website:  www.openfoam.com                      |
|    \\/     M anipulation  |                                                 |
\*---------------------------------------------------------------------------*/
FoamFile
{
    version     2.0;
    format      ascii;
    arch        "LSB;label=32;scalar=64";
    class       volScalarField;
    location    "34.5";
    object      k;
}
// * * * * * * * * * * * * * * * * * * * * * * * * * * * * * * * * * * * * * //

dimensions      [0 2 -2 0 0 0 0];

internalField   nonuniform List<scalar> 
28335
(
2.45541e-05
2.38494e-05
2.38492e-05
2.31666e-05
2.45541e-05
2.38495e-05
2.38493e-05
2.31692e-05
2.45542e-05
2.38495e-05
2.38494e-05
2.31694e-05
2.45543e-05
2.38496e-05
2.38494e-05
2.31697e-05
2.45542e-05
2.38498e-05
2.38496e-05
2.31699e-05
2.4554e-05
2.38498e-05
2.38495e-05
2.31702e-05
2.45538e-05
2.38494e-05
2.38492e-05
2.31696e-05
2.45503e-05
2.38453e-05
2.38451e-05
2.31653e-05
2.45473e-05
2.3842e-05
2.38419e-05
2.31616e-05
2.45473e-05
2.3842e-05
2.38418e-05
2.31615e-05
2.45473e-05
2.3842e-05
2.38419e-05
2.31615e-05
2.45473e-05
2.3842e-05
2.38419e-05
2.31615e-05
2.45473e-05
2.3842e-05
2.38419e-05
2.31615e-05
2.45473e-05
2.3842e-05
2.38419e-05
2.31615e-05
2.45473e-05
2.3842e-05
2.38419e-05
2.31615e-05
2.45473e-05
2.3842e-05
2.38419e-05
2.31615e-05
2.45473e-05
2.3842e-05
2.38419e-05
2.31615e-05
2.31734e-05
2.38489e-05
2.38488e-05
2.31734e-05
2.38494e-05
2.38485e-05
2.38494e-05
2.38489e-05
2.3173e-05
2.38492e-05
2.38493e-05
2.31702e-05
2.31693e-05
2.31735e-05
2.3849e-05
2.38489e-05
2.3849e-05
2.38489e-05
2.31693e-05
2.31735e-05
2.38495e-05
2.38486e-05
2.38495e-05
2.38486e-05
2.3849e-05
2.38495e-05
2.3849e-05
2.31689e-05
2.31731e-05
2.38495e-05
2.38493e-05
2.38495e-05
2.31734e-05
2.31695e-05
2.31738e-05
2.38492e-05
2.3849e-05
2.38492e-05
2.3849e-05
2.31695e-05
2.31737e-05
2.38496e-05
2.38487e-05
2.38496e-05
2.38487e-05
2.38491e-05
2.38495e-05
2.38491e-05
2.31691e-05
2.31733e-05
2.38496e-05
2.38494e-05
2.38496e-05
2.31736e-05
2.31698e-05
2.3174e-05
2.38493e-05
2.38492e-05
2.38493e-05
2.38492e-05
2.31697e-05
2.3174e-05
2.38497e-05
2.38488e-05
2.38497e-05
2.38488e-05
2.38493e-05
2.38496e-05
2.38493e-05
2.31693e-05
2.31736e-05
2.38497e-05
2.38494e-05
2.38497e-05
2.31739e-05
2.317e-05
2.31743e-05
2.38495e-05
2.38493e-05
2.38495e-05
2.38494e-05
2.31699e-05
2.31742e-05
2.38498e-05
2.3849e-05
2.38498e-05
2.3849e-05
2.38494e-05
2.38498e-05
2.38495e-05
2.31696e-05
2.31738e-05
2.38498e-05
2.38496e-05
2.38498e-05
2.31741e-05
2.31702e-05
2.31745e-05
2.38496e-05
2.38495e-05
2.38496e-05
2.38495e-05
2.31702e-05
2.31744e-05
2.385e-05
2.38491e-05
2.385e-05
2.38491e-05
2.38496e-05
2.38498e-05
2.38496e-05
2.31698e-05
2.3174e-05
2.385e-05
2.38496e-05
2.385e-05
2.31744e-05
2.31705e-05
2.31743e-05
2.38496e-05
2.38495e-05
2.38491e-05
2.38491e-05
2.31704e-05
2.31743e-05
2.38501e-05
2.38491e-05
2.38497e-05
2.38486e-05
2.38495e-05
2.38495e-05
2.38491e-05
2.317e-05
2.31738e-05
2.385e-05
2.38493e-05
2.38496e-05
2.31741e-05
2.31701e-05
2.31708e-05
2.3849e-05
2.38489e-05
2.38464e-05
2.38463e-05
2.31701e-05
2.31708e-05
2.38495e-05
2.38485e-05
2.38468e-05
2.3846e-05
2.3849e-05
2.3847e-05
2.38464e-05
2.31697e-05
2.31704e-05
2.38494e-05
2.38468e-05
2.38468e-05
2.31707e-05
2.31657e-05
2.31661e-05
2.38448e-05
2.38446e-05
2.38417e-05
2.38416e-05
2.31657e-05
2.31661e-05
2.38452e-05
2.38443e-05
2.38422e-05
2.38413e-05
2.38447e-05
2.38422e-05
2.38417e-05
2.31653e-05
2.31657e-05
2.38451e-05
2.38421e-05
2.38421e-05
2.3166e-05
2.31619e-05
2.31658e-05
2.38417e-05
2.38415e-05
2.38415e-05
2.38414e-05
2.31618e-05
2.31657e-05
2.38421e-05
2.38412e-05
2.3842e-05
2.3841e-05
2.38416e-05
2.3842e-05
2.38415e-05
2.31615e-05
2.31653e-05
2.38421e-05
2.38419e-05
2.38419e-05
2.31657e-05
2.31618e-05
2.31657e-05
2.38416e-05
2.38415e-05
2.38416e-05
2.38414e-05
2.31617e-05
2.31657e-05
2.38421e-05
2.38412e-05
2.3842e-05
2.38411e-05
2.38416e-05
2.3842e-05
2.38416e-05
2.31613e-05
2.31653e-05
2.3842e-05
2.38419e-05
2.3842e-05
2.31657e-05
2.31617e-05
2.31658e-05
2.38417e-05
2.38415e-05
2.38416e-05
2.38414e-05
2.31616e-05
2.31658e-05
2.38421e-05
2.38412e-05
2.3842e-05
2.38411e-05
2.38417e-05
2.38421e-05
2.38416e-05
2.31612e-05
2.31654e-05
2.38421e-05
2.38419e-05
2.3842e-05
2.31657e-05
2.31617e-05
2.31657e-05
2.38416e-05
2.38415e-05
2.38416e-05
2.38414e-05
2.31617e-05
2.31657e-05
2.38421e-05
2.38412e-05
2.3842e-05
2.38411e-05
2.38417e-05
2.38421e-05
2.38416e-05
2.31613e-05
2.31653e-05
2.38421e-05
2.38419e-05
2.3842e-05
2.31657e-05
2.31617e-05
2.31657e-05
2.38417e-05
2.38415e-05
2.38416e-05
2.38414e-05
2.31617e-05
2.31657e-05
2.38421e-05
2.38412e-05
2.3842e-05
2.38411e-05
2.38417e-05
2.38421e-05
2.38416e-05
2.31613e-05
2.31653e-05
2.38421e-05
2.38419e-05
2.3842e-05
2.31657e-05
2.31617e-05
2.31658e-05
2.38416e-05
2.38415e-05
2.38416e-05
2.38414e-05
2.31617e-05
2.31657e-05
2.38421e-05
2.38412e-05
2.3842e-05
2.38411e-05
2.38417e-05
2.38421e-05
2.38416e-05
2.31613e-05
2.31654e-05
2.38421e-05
2.38419e-05
2.3842e-05
2.31657e-05
2.31617e-05
2.31657e-05
2.38417e-05
2.38415e-05
2.38416e-05
2.38414e-05
2.31617e-05
2.31657e-05
2.38421e-05
2.38412e-05
2.3842e-05
2.38411e-05
2.38417e-05
2.38421e-05
2.38416e-05
2.31613e-05
2.31653e-05
2.38421e-05
2.38419e-05
2.3842e-05
2.31657e-05
2.31617e-05
2.31657e-05
2.38417e-05
2.38415e-05
2.38416e-05
2.38414e-05
2.31617e-05
2.31657e-05
2.38421e-05
2.38412e-05
2.3842e-05
2.38411e-05
2.38417e-05
2.38421e-05
2.38416e-05
2.31613e-05
2.31653e-05
2.38421e-05
2.38419e-05
2.3842e-05
2.31657e-05
2.31617e-05
2.38417e-05
2.38415e-05
2.31617e-05
2.38421e-05
2.38412e-05
2.38416e-05
2.31613e-05
2.3842e-05
2.80467e-05
6.98609e-05
7.66442e-05
2.80483e-05
6.98642e-05
2.45541e-05
2.45543e-05
2.45541e-05
2.45542e-05
2.23402e-05
2.38494e-05
2.75696e-05
2.42307e-05
7.66394e-05
2.23406e-05
2.38493e-05
2.42306e-05
2.75705e-05
2.31673e-05
3.63224e-05
3.63257e-05
2.80498e-05
6.98615e-05
2.80516e-05
6.98592e-05
7.66401e-05
7.66392e-05
2.80514e-05
6.98648e-05
2.8053e-05
6.98624e-05
2.45543e-05
2.45541e-05
2.45542e-05
2.45541e-05
2.45542e-05
2.4554e-05
2.45541e-05
2.2341e-05
2.75768e-05
2.42306e-05
2.38495e-05
2.2341e-05
2.75724e-05
2.42307e-05
7.66365e-05
7.66351e-05
2.23414e-05
2.42306e-05
2.75774e-05
2.38493e-05
2.23414e-05
2.42307e-05
2.75732e-05
3.6328e-05
3.63312e-05
2.31729e-05
3.6327e-05
3.63302e-05
2.8052e-05
6.98607e-05
2.80541e-05
6.98589e-05
7.6637e-05
7.66369e-05
2.80536e-05
6.98638e-05
2.80554e-05
6.98618e-05
2.45542e-05
2.4554e-05
2.45541e-05
2.45542e-05
2.45541e-05
2.45539e-05
2.45541e-05
2.23417e-05
2.75789e-05
2.42306e-05
2.38496e-05
2.23417e-05
2.75741e-05
2.42307e-05
7.66334e-05
7.6633e-05
2.23421e-05
2.42305e-05
2.75796e-05
2.38494e-05
2.23421e-05
2.42306e-05
2.75751e-05
3.63314e-05
3.63346e-05
2.31735e-05
3.63295e-05
3.63328e-05
2.80535e-05
6.98605e-05
2.80558e-05
6.98586e-05
7.66361e-05
7.66366e-05
2.8055e-05
6.98635e-05
2.80571e-05
6.98615e-05
2.45542e-05
2.4554e-05
2.45542e-05
2.45543e-05
2.45542e-05
2.4554e-05
2.45542e-05
2.23423e-05
2.75802e-05
2.42306e-05
2.38496e-05
2.23423e-05
2.75752e-05
2.42307e-05
7.66321e-05
7.66322e-05
2.23427e-05
2.42305e-05
2.75808e-05
2.38495e-05
2.23427e-05
2.42306e-05
2.7576e-05
3.63324e-05
3.63358e-05
2.31737e-05
3.63301e-05
3.63335e-05
2.80542e-05
6.98604e-05
2.80569e-05
6.98586e-05
7.66365e-05
7.66372e-05
2.80555e-05
6.98634e-05
2.8058e-05
6.98616e-05
2.45543e-05
2.45541e-05
2.45543e-05
2.45542e-05
2.45543e-05
2.45541e-05
2.45543e-05
2.23428e-05
2.7581e-05
2.42307e-05
2.38498e-05
2.23429e-05
2.75759e-05
2.42308e-05
7.66321e-05
7.66327e-05
2.23431e-05
2.42306e-05
2.75816e-05
2.38496e-05
2.23432e-05
2.42307e-05
2.75767e-05
3.63334e-05
3.63368e-05
2.3174e-05
3.63314e-05
3.63349e-05
2.80545e-05
6.98606e-05
2.80572e-05
6.9859e-05
7.66374e-05
7.66384e-05
2.80558e-05
6.98638e-05
2.80582e-05
6.98621e-05
2.45544e-05
2.45541e-05
2.45543e-05
2.45541e-05
2.45542e-05
2.45539e-05
2.45541e-05
2.23431e-05
2.75816e-05
2.42307e-05
2.38499e-05
2.23432e-05
2.75764e-05
2.42307e-05
7.66335e-05
7.66342e-05
2.23434e-05
2.42307e-05
2.75821e-05
2.38496e-05
2.23435e-05
2.42307e-05
2.75772e-05
3.63349e-05
3.63383e-05
2.31743e-05
3.63328e-05
3.63363e-05
2.80543e-05
6.98611e-05
2.80574e-05
6.986e-05
7.66389e-05
7.66401e-05
2.80558e-05
6.9864e-05
2.80586e-05
6.98625e-05
2.45541e-05
2.45539e-05
2.45541e-05
2.45538e-05
2.45538e-05
2.45536e-05
2.45538e-05
2.23433e-05
2.75818e-05
2.42306e-05
2.38497e-05
2.23435e-05
2.75764e-05
2.42306e-05
7.66352e-05
7.66361e-05
2.23436e-05
2.42306e-05
2.75823e-05
2.38495e-05
2.23439e-05
2.42305e-05
2.75771e-05
3.63353e-05
3.63388e-05
2.31744e-05
3.63325e-05
3.6336e-05
2.80527e-05
6.98632e-05
2.80562e-05
6.98619e-05
7.66393e-05
7.66384e-05
2.80542e-05
6.98655e-05
2.80575e-05
6.9864e-05
2.45538e-05
2.45536e-05
2.45537e-05
2.45519e-05
2.45519e-05
2.45518e-05
2.45518e-05
2.23407e-05
2.75814e-05
2.42303e-05
2.38491e-05
2.23424e-05
2.75754e-05
2.42301e-05
7.66356e-05
7.66346e-05
2.2341e-05
2.42303e-05
2.75819e-05
2.38489e-05
2.23426e-05
2.42301e-05
2.75762e-05
3.63351e-05
3.63385e-05
2.31731e-05
3.63324e-05
3.63358e-05
2.80485e-05
6.98635e-05
2.80532e-05
6.98613e-05
7.66366e-05
7.66367e-05
2.805e-05
6.98655e-05
2.80544e-05
6.98631e-05
2.45504e-05
2.45502e-05
2.45503e-05
2.45475e-05
2.45476e-05
2.45474e-05
2.45475e-05
2.23338e-05
2.75784e-05
2.42266e-05
2.38439e-05
2.23373e-05
2.75712e-05
2.42254e-05
7.66328e-05
7.66325e-05
2.2334e-05
2.42265e-05
2.75789e-05
2.38438e-05
2.23376e-05
2.42253e-05
2.7572e-05
3.63336e-05
3.6337e-05
2.31677e-05
3.63297e-05
3.63332e-05
2.8046e-05
6.98624e-05
2.80494e-05
6.98604e-05
7.66361e-05
7.66364e-05
2.80475e-05
6.98644e-05
2.80507e-05
6.98622e-05
2.45475e-05
2.45473e-05
2.45474e-05
2.45473e-05
2.45474e-05
2.45472e-05
2.45473e-05
2.23334e-05
2.75746e-05
2.42235e-05
2.38421e-05
2.23337e-05
2.75687e-05
2.42236e-05
7.66319e-05
7.6632e-05
2.23337e-05
2.42234e-05
2.75752e-05
2.38419e-05
2.2334e-05
2.42235e-05
2.75696e-05
3.63305e-05
3.63339e-05
2.31657e-05
3.63274e-05
3.63308e-05
2.80455e-05
6.98621e-05
2.80484e-05
6.98603e-05
7.6636e-05
7.66364e-05
2.80471e-05
6.98639e-05
2.80497e-05
6.98619e-05
2.45475e-05
2.45473e-05
2.45474e-05
2.45473e-05
2.45474e-05
2.45472e-05
2.45473e-05
2.23333e-05
2.75737e-05
2.42235e-05
2.38421e-05
2.23336e-05
2.75683e-05
2.42236e-05
7.66318e-05
7.6632e-05
2.23335e-05
2.42234e-05
2.75744e-05
2.38419e-05
2.23338e-05
2.42235e-05
2.75692e-05
3.63295e-05
3.63329e-05
2.31657e-05
3.63269e-05
3.63304e-05
2.80454e-05
6.9862e-05
2.80483e-05
6.98602e-05
7.6636e-05
7.66365e-05
2.8047e-05
6.98638e-05
2.80496e-05
6.98619e-05
2.45475e-05
2.45473e-05
2.45474e-05
2.45473e-05
2.45474e-05
2.45472e-05
2.45473e-05
2.23333e-05
2.75736e-05
2.42235e-05
2.38421e-05
2.23335e-05
2.75682e-05
2.42236e-05
7.66318e-05
7.6632e-05
2.23335e-05
2.42234e-05
2.75743e-05
2.3842e-05
2.23338e-05
2.42235e-05
2.75692e-05
3.63294e-05
3.63328e-05
2.31657e-05
3.63269e-05
3.63303e-05
2.80454e-05
6.9862e-05
2.80483e-05
6.98602e-05
7.66361e-05
7.66365e-05
2.8047e-05
6.98638e-05
2.80496e-05
6.98619e-05
2.45475e-05
2.45473e-05
2.45474e-05
2.45473e-05
2.45474e-05
2.45472e-05
2.45473e-05
2.23332e-05
2.75736e-05
2.42235e-05
2.38421e-05
2.23335e-05
2.75682e-05
2.42236e-05
7.66318e-05
7.6632e-05
2.23335e-05
2.42234e-05
2.75742e-05
2.3842e-05
2.23338e-05
2.42235e-05
2.75692e-05
3.63294e-05
3.63328e-05
2.31657e-05
3.63269e-05
3.63303e-05
2.80454e-05
6.9862e-05
2.80483e-05
6.98602e-05
7.66361e-05
7.66365e-05
2.8047e-05
6.98638e-05
2.80496e-05
6.98618e-05
2.45475e-05
2.45473e-05
2.45474e-05
2.45473e-05
2.45474e-05
2.45472e-05
2.45473e-05
2.23333e-05
2.75736e-05
2.42235e-05
2.38421e-05
2.23335e-05
2.75682e-05
2.42236e-05
7.66318e-05
7.6632e-05
2.23336e-05
2.42234e-05
2.75742e-05
2.3842e-05
2.23339e-05
2.42235e-05
2.75692e-05
3.63294e-05
3.63328e-05
2.31657e-05
3.63269e-05
3.63303e-05
2.80454e-05
6.9862e-05
2.80483e-05
6.98602e-05
7.66361e-05
7.66365e-05
2.8047e-05
6.98638e-05
2.80496e-05
6.98618e-05
2.45475e-05
2.45473e-05
2.45474e-05
2.45473e-05
2.45474e-05
2.45472e-05
2.45473e-05
2.23332e-05
2.75736e-05
2.42235e-05
2.38421e-05
2.23335e-05
2.75682e-05
2.42236e-05
7.66318e-05
7.6632e-05
2.23335e-05
2.42234e-05
2.75742e-05
2.3842e-05
2.23338e-05
2.42235e-05
2.75692e-05
3.63294e-05
3.63328e-05
2.31657e-05
3.63269e-05
3.63303e-05
2.80454e-05
6.9862e-05
2.80483e-05
6.98602e-05
7.66361e-05
7.66365e-05
2.8047e-05
6.98638e-05
2.80496e-05
6.98618e-05
2.45475e-05
2.45473e-05
2.45474e-05
2.45473e-05
2.45474e-05
2.45472e-05
2.45473e-05
2.23332e-05
2.75736e-05
2.42235e-05
2.38421e-05
2.23334e-05
2.75682e-05
2.42236e-05
7.66318e-05
7.6632e-05
2.23334e-05
2.42234e-05
2.75742e-05
2.3842e-05
2.23337e-05
2.42235e-05
2.75691e-05
3.63294e-05
3.63328e-05
2.31657e-05
3.63269e-05
3.63303e-05
2.80454e-05
6.9862e-05
2.80483e-05
6.98602e-05
7.66361e-05
7.66365e-05
2.8047e-05
6.98638e-05
2.80496e-05
6.98618e-05
2.45475e-05
2.45473e-05
2.45474e-05
2.45473e-05
2.45474e-05
2.45472e-05
2.45473e-05
2.23333e-05
2.75736e-05
2.42235e-05
2.38421e-05
2.23335e-05
2.75682e-05
2.42236e-05
7.66318e-05
7.6632e-05
2.23333e-05
2.42234e-05
2.75742e-05
2.3842e-05
2.23336e-05
2.42235e-05
2.75691e-05
3.63294e-05
3.63328e-05
2.31657e-05
3.63269e-05
3.63303e-05
2.80454e-05
6.98621e-05
2.80483e-05
6.98603e-05
7.66361e-05
7.66365e-05
2.8047e-05
6.98638e-05
2.80496e-05
6.98618e-05
2.45475e-05
2.45473e-05
2.45474e-05
2.23335e-05
2.75736e-05
2.42235e-05
2.38421e-05
2.23335e-05
2.75682e-05
2.42236e-05
7.66318e-05
7.66316e-05
2.23334e-05
2.42234e-05
2.75742e-05
2.3842e-05
2.23335e-05
2.42235e-05
2.75692e-05
3.63294e-05
3.63328e-05
2.31658e-05
3.63285e-05
3.63319e-05
7.66448e-05
7.66436e-05
2.31725e-05
3.63216e-05
3.63242e-05
7.66416e-05
7.66437e-05
7.66404e-05
7.66425e-05
2.31691e-05
3.6324e-05
3.63266e-05
3.63245e-05
3.63271e-05
2.80472e-05
6.98647e-05
2.23405e-05
2.3849e-05
2.75708e-05
2.42307e-05
2.23407e-05
2.38488e-05
2.75722e-05
2.42307e-05
2.805e-05
6.98599e-05
6.98625e-05
2.80484e-05
2.80505e-05
6.98637e-05
6.98663e-05
2.80489e-05
2.23412e-05
2.3849e-05
2.75723e-05
2.42307e-05
2.75763e-05
2.42307e-05
2.23409e-05
2.23413e-05
2.38488e-05
2.75738e-05
2.42307e-05
2.75778e-05
2.42307e-05
2.23411e-05
2.31716e-05
3.6325e-05
3.63167e-05
7.66399e-05
7.66411e-05
7.66431e-05
2.31685e-05
3.63301e-05
3.63193e-05
3.63282e-05
3.632e-05
7.66372e-05
7.66396e-05
2.23411e-05
2.38494e-05
2.75719e-05
2.42307e-05
2.80478e-05
6.98593e-05
2.23408e-05
2.38485e-05
2.42305e-05
2.75707e-05
2.80513e-05
6.98632e-05
6.98659e-05
2.805e-05
2.23417e-05
2.38494e-05
2.75734e-05
2.42307e-05
2.75774e-05
2.42307e-05
2.23415e-05
2.80509e-05
6.98583e-05
6.9861e-05
2.80495e-05
2.23414e-05
2.38485e-05
2.42305e-05
2.75723e-05
2.42305e-05
2.75766e-05
2.23412e-05
2.8047e-05
6.98615e-05
2.23405e-05
2.38489e-05
2.42307e-05
2.75706e-05
2.80469e-05
6.98623e-05
2.23409e-05
2.38494e-05
2.75711e-05
2.42306e-05
2.75754e-05
2.42307e-05
2.23407e-05
2.80503e-05
6.98604e-05
6.98632e-05
2.80487e-05
2.23411e-05
2.38489e-05
2.42306e-05
2.75721e-05
2.42306e-05
2.75762e-05
2.23409e-05
2.80502e-05
6.98613e-05
6.98639e-05
2.80486e-05
2.3173e-05
3.63256e-05
3.63216e-05
7.66444e-05
7.66369e-05
7.66392e-05
2.3169e-05
3.63275e-05
3.6324e-05
3.63288e-05
3.63245e-05
7.66412e-05
7.66434e-05
2.2341e-05
2.38494e-05
2.42307e-05
2.75719e-05
2.8048e-05
6.98627e-05
2.80482e-05
6.98655e-05
2.23413e-05
2.38493e-05
2.42306e-05
2.7572e-05
2.42306e-05
2.7576e-05
2.23411e-05
2.23417e-05
2.38493e-05
2.42307e-05
2.75734e-05
2.42307e-05
2.75775e-05
2.23414e-05
2.80511e-05
6.98617e-05
6.98643e-05
2.80497e-05
2.80513e-05
6.98645e-05
6.98671e-05
2.80499e-05
7.66444e-05
7.66438e-05
2.31636e-05
3.63249e-05
3.63282e-05
3.63253e-05
3.63286e-05
7.66412e-05
7.66433e-05
7.66406e-05
7.66427e-05
7.66407e-05
7.66393e-05
7.66395e-05
7.66381e-05
3.63266e-05
3.63293e-05
2.31734e-05
3.6326e-05
3.63287e-05
7.66379e-05
7.66387e-05
7.66367e-05
7.66375e-05
2.31694e-05
3.6328e-05
3.63305e-05
3.63286e-05
3.63313e-05
2.80503e-05
6.98653e-05
2.80521e-05
6.98629e-05
2.23413e-05
2.75778e-05
2.42307e-05
2.3849e-05
2.23416e-05
2.75736e-05
2.42307e-05
2.23415e-05
2.75794e-05
2.42307e-05
2.38489e-05
2.23417e-05
2.75752e-05
2.42307e-05
2.8053e-05
6.98589e-05
6.98609e-05
2.8051e-05
2.80535e-05
6.98625e-05
6.98646e-05
2.80515e-05
2.2342e-05
2.3849e-05
2.75747e-05
2.42307e-05
2.7579e-05
2.42307e-05
2.23417e-05
2.23421e-05
2.38489e-05
2.75763e-05
2.42307e-05
2.75807e-05
2.42307e-05
2.23418e-05
3.63337e-05
3.63223e-05
2.31734e-05
3.63342e-05
3.63213e-05
7.66368e-05
7.66352e-05
7.66377e-05
7.66386e-05
2.31694e-05
3.63349e-05
3.63227e-05
3.63368e-05
3.63241e-05
7.6634e-05
7.66351e-05
2.23419e-05
2.75788e-05
2.42308e-05
2.38495e-05
2.23421e-05
2.75747e-05
2.42308e-05
2.8051e-05
6.986e-05
2.80525e-05
6.98576e-05
2.23416e-05
2.42306e-05
2.75781e-05
2.38486e-05
2.23418e-05
2.42306e-05
2.75736e-05
2.80543e-05
6.98619e-05
6.98642e-05
2.80526e-05
2.23425e-05
2.38495e-05
2.75758e-05
2.42307e-05
2.758e-05
2.42307e-05
2.23423e-05
2.80539e-05
6.98573e-05
6.98594e-05
2.80521e-05
2.23422e-05
2.38486e-05
2.42305e-05
2.75746e-05
2.42305e-05
2.75793e-05
2.2342e-05
2.80501e-05
6.98622e-05
2.80519e-05
6.98597e-05
2.23412e-05
2.42307e-05
2.75776e-05
2.3849e-05
2.23415e-05
2.42307e-05
2.75734e-05
2.805e-05
6.98629e-05
2.80519e-05
6.98605e-05
2.23417e-05
2.38495e-05
2.75734e-05
2.42306e-05
2.7578e-05
2.42307e-05
2.23414e-05
2.80533e-05
6.98592e-05
6.98615e-05
2.80513e-05
2.23419e-05
2.3849e-05
2.42307e-05
2.75744e-05
2.42307e-05
2.75788e-05
2.23416e-05
2.80532e-05
6.98601e-05
6.98622e-05
2.80512e-05
3.63302e-05
3.63267e-05
2.3173e-05
3.63281e-05
3.63261e-05
7.66403e-05
7.66389e-05
7.66338e-05
7.66349e-05
2.3169e-05
3.6328e-05
3.63278e-05
3.63306e-05
3.63287e-05
7.66375e-05
7.66383e-05
2.23418e-05
2.42307e-05
2.75789e-05
2.38495e-05
2.2342e-05
2.42307e-05
2.75746e-05
2.80511e-05
6.98633e-05
2.80527e-05
6.98608e-05
2.80513e-05
6.98661e-05
2.80529e-05
6.98637e-05
2.23421e-05
2.38493e-05
2.42305e-05
2.75743e-05
2.42306e-05
2.75786e-05
2.23418e-05
2.23424e-05
2.38495e-05
2.42307e-05
2.75757e-05
2.42307e-05
2.75801e-05
2.23421e-05
2.80541e-05
6.98604e-05
6.98626e-05
2.80523e-05
2.80542e-05
6.98633e-05
6.98654e-05
2.80524e-05
7.66403e-05
7.6639e-05
7.66397e-05
7.66383e-05
2.31691e-05
3.63285e-05
3.63318e-05
3.63296e-05
3.63328e-05
7.66375e-05
7.66384e-05
7.66369e-05
7.66377e-05
7.66377e-05
7.66374e-05
7.66364e-05
7.66361e-05
3.63305e-05
3.63329e-05
2.31737e-05
3.63294e-05
3.63317e-05
7.66369e-05
7.66373e-05
7.66357e-05
7.6636e-05
2.31696e-05
3.63299e-05
3.63323e-05
3.63317e-05
3.6334e-05
2.80525e-05
6.98643e-05
2.80546e-05
6.98623e-05
2.2342e-05
2.758e-05
2.42308e-05
2.38492e-05
2.23423e-05
2.75755e-05
2.42308e-05
2.23422e-05
2.75816e-05
2.42308e-05
2.3849e-05
2.23425e-05
2.7577e-05
2.42308e-05
2.80551e-05
6.98587e-05
6.98607e-05
2.80528e-05
2.80555e-05
6.98621e-05
6.98641e-05
2.80533e-05
2.23426e-05
2.38492e-05
2.75761e-05
2.42307e-05
2.75808e-05
2.42307e-05
2.23423e-05
2.23428e-05
2.3849e-05
2.75774e-05
2.42306e-05
2.75823e-05
2.42307e-05
2.23425e-05
3.6337e-05
3.63255e-05
2.31736e-05
3.63345e-05
3.63238e-05
7.66339e-05
7.66333e-05
7.66365e-05
7.66367e-05
2.31696e-05
3.63342e-05
3.63246e-05
3.63366e-05
3.63264e-05
7.66328e-05
7.66332e-05
2.23426e-05
2.7581e-05
2.42308e-05
2.38496e-05
2.23429e-05
2.75766e-05
2.42308e-05
2.80531e-05
6.98592e-05
2.8055e-05
6.98571e-05
2.23423e-05
2.42306e-05
2.75802e-05
2.38487e-05
2.23426e-05
2.42306e-05
2.75753e-05
2.80564e-05
6.98616e-05
6.98637e-05
2.80544e-05
2.23432e-05
2.38496e-05
2.75772e-05
2.42307e-05
2.75818e-05
2.42307e-05
2.23429e-05
2.8056e-05
6.98569e-05
6.98591e-05
2.8054e-05
2.23429e-05
2.38487e-05
2.42305e-05
2.75758e-05
2.42305e-05
2.75809e-05
2.23426e-05
2.80522e-05
6.98611e-05
2.80544e-05
6.9859e-05
2.23419e-05
2.42307e-05
2.75798e-05
2.38491e-05
2.23422e-05
2.42307e-05
2.75752e-05
2.80522e-05
6.98619e-05
2.80543e-05
6.98599e-05
2.23423e-05
2.38496e-05
2.75748e-05
2.42306e-05
2.75797e-05
2.42307e-05
2.2342e-05
2.80553e-05
6.98588e-05
6.98609e-05
2.8053e-05
2.23426e-05
2.38491e-05
2.42307e-05
2.75758e-05
2.42307e-05
2.75805e-05
2.23422e-05
2.80552e-05
6.98597e-05
6.98617e-05
2.8053e-05
3.63303e-05
3.63303e-05
2.31732e-05
3.63275e-05
3.6329e-05
7.66372e-05
7.66369e-05
7.66324e-05
7.66329e-05
2.31692e-05
3.63273e-05
3.63296e-05
3.63298e-05
3.63313e-05
7.66365e-05
7.66368e-05
2.23425e-05
2.42308e-05
2.75811e-05
2.38496e-05
2.23428e-05
2.42308e-05
2.75765e-05
2.80533e-05
6.98622e-05
2.80552e-05
6.98602e-05
2.80534e-05
6.98651e-05
2.80553e-05
6.98632e-05
2.23428e-05
2.38494e-05
2.42306e-05
2.75757e-05
2.42306e-05
2.75804e-05
2.23425e-05
2.23431e-05
2.38496e-05
2.42307e-05
2.75771e-05
2.42307e-05
2.75818e-05
2.23428e-05
2.80561e-05
6.986e-05
6.98621e-05
2.80541e-05
2.80562e-05
6.9863e-05
6.9865e-05
2.80542e-05
7.66372e-05
7.66369e-05
7.66366e-05
7.66363e-05
2.31695e-05
3.63298e-05
3.63333e-05
3.63318e-05
3.63351e-05
7.66365e-05
7.66368e-05
7.66359e-05
7.66362e-05
7.66369e-05
7.6637e-05
7.66356e-05
7.66358e-05
3.63321e-05
3.63345e-05
2.31739e-05
3.63302e-05
3.63327e-05
7.66372e-05
7.6637e-05
7.6636e-05
7.66357e-05
2.31699e-05
3.63308e-05
3.63333e-05
3.63324e-05
3.63349e-05
2.80539e-05
6.98639e-05
2.80563e-05
6.98619e-05
2.23427e-05
2.75813e-05
2.42308e-05
2.38493e-05
2.2343e-05
2.75765e-05
2.42308e-05
2.23428e-05
2.75827e-05
2.42307e-05
2.38492e-05
2.23431e-05
2.75779e-05
2.42307e-05
2.80565e-05
6.98585e-05
6.98604e-05
2.8054e-05
2.80569e-05
6.9862e-05
6.98638e-05
2.80543e-05
2.23433e-05
2.38493e-05
2.75769e-05
2.42308e-05
2.75817e-05
2.42308e-05
2.2343e-05
2.23434e-05
2.38492e-05
2.75782e-05
2.42307e-05
2.75831e-05
2.42307e-05
2.23431e-05
3.63365e-05
3.63272e-05
2.31739e-05
3.63345e-05
3.63254e-05
7.66327e-05
7.66325e-05
7.66368e-05
7.66366e-05
2.31698e-05
3.63351e-05
3.63262e-05
3.63368e-05
3.63281e-05
7.66326e-05
7.66326e-05
2.23433e-05
2.75824e-05
2.42308e-05
2.38497e-05
2.23436e-05
2.75776e-05
2.42308e-05
2.80546e-05
6.98589e-05
2.80567e-05
6.98568e-05
2.2343e-05
2.42306e-05
2.75814e-05
2.38488e-05
2.23433e-05
2.42306e-05
2.75763e-05
2.80577e-05
6.98615e-05
6.98634e-05
2.80554e-05
2.23439e-05
2.38497e-05
2.7578e-05
2.42308e-05
2.75828e-05
2.42308e-05
2.23436e-05
2.80573e-05
6.98567e-05
6.98587e-05
2.80549e-05
2.23436e-05
2.38488e-05
2.42306e-05
2.75767e-05
2.42306e-05
2.75818e-05
2.23432e-05
2.80537e-05
6.98608e-05
2.80561e-05
6.98587e-05
2.23426e-05
2.42307e-05
2.7581e-05
2.38493e-05
2.23429e-05
2.42307e-05
2.75762e-05
2.80537e-05
6.98615e-05
2.8056e-05
6.98596e-05
2.23429e-05
2.38496e-05
2.75756e-05
2.42307e-05
2.75807e-05
2.42307e-05
2.23426e-05
2.80566e-05
6.98587e-05
6.98607e-05
2.80541e-05
2.23432e-05
2.38493e-05
2.42307e-05
2.75765e-05
2.42307e-05
2.75814e-05
2.23429e-05
2.80566e-05
6.98596e-05
6.98614e-05
2.80541e-05
3.63299e-05
3.63318e-05
2.31735e-05
3.63278e-05
3.633e-05
7.66364e-05
7.66365e-05
7.66321e-05
7.66322e-05
2.31695e-05
3.63285e-05
3.63306e-05
3.63304e-05
3.63322e-05
7.66367e-05
7.66365e-05
2.23431e-05
2.42308e-05
2.75823e-05
2.38497e-05
2.23434e-05
2.42308e-05
2.75775e-05
2.80546e-05
6.98619e-05
2.80568e-05
6.98599e-05
2.80548e-05
6.98648e-05
2.8057e-05
6.98629e-05
2.23433e-05
2.38494e-05
2.42306e-05
2.75764e-05
2.42306e-05
2.75813e-05
2.2343e-05
2.23437e-05
2.38497e-05
2.42307e-05
2.75778e-05
2.42307e-05
2.75827e-05
2.23432e-05
2.80574e-05
6.98599e-05
6.98617e-05
2.8055e-05
2.80575e-05
6.98629e-05
6.98647e-05
2.80551e-05
7.66364e-05
7.66365e-05
7.66358e-05
7.66359e-05
2.31698e-05
3.63307e-05
3.63341e-05
3.63324e-05
3.63358e-05
7.66367e-05
7.66365e-05
7.66361e-05
7.66359e-05
7.66372e-05
7.66376e-05
7.6636e-05
7.66364e-05
3.6333e-05
3.63356e-05
2.31741e-05
3.63316e-05
3.63342e-05
7.66381e-05
7.66376e-05
7.66369e-05
7.66364e-05
2.31701e-05
3.63325e-05
3.6335e-05
3.63339e-05
3.63365e-05
2.80546e-05
6.98638e-05
2.80573e-05
6.98621e-05
2.23433e-05
2.75821e-05
2.42309e-05
2.38495e-05
2.23436e-05
2.75772e-05
2.42309e-05
2.23434e-05
2.75835e-05
2.42309e-05
2.38493e-05
2.23437e-05
2.75786e-05
2.42309e-05
2.80571e-05
6.98587e-05
6.98605e-05
2.80544e-05
2.80575e-05
6.98623e-05
6.9864e-05
2.80547e-05
2.23439e-05
2.38494e-05
2.75775e-05
2.42309e-05
2.75824e-05
2.42309e-05
2.23434e-05
2.2344e-05
2.38493e-05
2.75788e-05
2.42309e-05
2.75838e-05
2.42309e-05
2.23436e-05
3.63375e-05
3.63289e-05
2.31741e-05
3.63359e-05
3.63271e-05
7.66327e-05
7.66331e-05
7.66376e-05
7.66372e-05
2.31701e-05
3.63366e-05
3.63279e-05
3.63383e-05
3.63298e-05
7.66338e-05
7.66334e-05
2.23437e-05
2.75831e-05
2.42309e-05
2.38498e-05
2.23441e-05
2.75783e-05
2.42309e-05
2.80551e-05
6.98587e-05
2.80576e-05
6.98567e-05
2.23434e-05
2.42307e-05
2.75822e-05
2.3849e-05
2.23438e-05
2.42307e-05
2.7577e-05
2.80581e-05
6.98618e-05
6.98636e-05
2.80556e-05
2.23443e-05
2.38498e-05
2.75786e-05
2.42308e-05
2.75834e-05
2.42309e-05
2.23439e-05
2.80577e-05
6.98569e-05
6.98588e-05
2.80552e-05
2.2344e-05
2.3849e-05
2.42307e-05
2.75773e-05
2.42307e-05
2.75825e-05
2.23436e-05
2.80543e-05
6.98607e-05
2.8057e-05
6.98588e-05
2.23431e-05
2.42308e-05
2.75818e-05
2.38495e-05
2.23435e-05
2.42308e-05
2.75769e-05
2.80544e-05
6.98614e-05
2.8057e-05
6.98597e-05
2.23434e-05
2.38498e-05
2.75762e-05
2.42308e-05
2.75814e-05
2.42308e-05
2.2343e-05
2.80572e-05
6.9859e-05
6.98609e-05
2.80545e-05
2.23437e-05
2.38495e-05
2.42308e-05
2.75771e-05
2.42308e-05
2.75821e-05
2.23433e-05
2.80573e-05
6.98599e-05
6.98616e-05
2.80545e-05
3.63312e-05
3.63329e-05
2.31737e-05
3.63293e-05
3.63314e-05
7.66367e-05
7.66371e-05
7.66332e-05
7.6633e-05
2.31697e-05
3.63301e-05
3.63322e-05
3.6332e-05
3.63337e-05
7.66377e-05
7.66371e-05
2.23434e-05
2.42308e-05
2.7583e-05
2.38498e-05
2.23438e-05
2.42308e-05
2.75781e-05
2.80551e-05
6.98618e-05
2.80576e-05
6.986e-05
2.80553e-05
6.98647e-05
2.80578e-05
6.98629e-05
2.23437e-05
2.38496e-05
2.42307e-05
2.7577e-05
2.42307e-05
2.75819e-05
2.23432e-05
2.23439e-05
2.38498e-05
2.42308e-05
2.75783e-05
2.42308e-05
2.75833e-05
2.23435e-05
2.80578e-05
6.98602e-05
6.98619e-05
2.80552e-05
2.80579e-05
6.98629e-05
6.98647e-05
2.80554e-05
7.66367e-05
7.66371e-05
7.66361e-05
7.66365e-05
2.317e-05
3.63322e-05
3.63357e-05
3.63338e-05
3.63372e-05
7.66376e-05
7.66371e-05
7.6637e-05
7.66365e-05
7.66381e-05
7.66388e-05
7.66369e-05
7.66376e-05
3.63347e-05
3.63373e-05
2.31744e-05
3.63331e-05
3.63356e-05
7.66395e-05
7.66388e-05
7.66383e-05
7.66376e-05
2.31703e-05
3.63332e-05
3.63357e-05
3.63353e-05
3.63378e-05
2.80549e-05
6.98642e-05
2.80576e-05
6.98626e-05
2.23436e-05
2.75827e-05
2.4231e-05
2.38496e-05
2.2344e-05
2.75777e-05
2.4231e-05
2.23438e-05
2.75841e-05
2.4231e-05
2.38495e-05
2.23442e-05
2.7579e-05
2.42309e-05
2.80573e-05
6.98592e-05
6.98609e-05
2.80546e-05
2.80578e-05
6.98628e-05
6.98645e-05
2.8055e-05
2.23442e-05
2.38496e-05
2.75777e-05
2.42309e-05
2.75828e-05
2.4231e-05
2.23438e-05
2.23444e-05
2.38495e-05
2.75791e-05
2.42307e-05
2.75842e-05
2.42308e-05
2.23439e-05
3.6339e-05
3.63306e-05
2.31743e-05
3.63371e-05
3.63285e-05
7.66341e-05
7.66346e-05
7.6639e-05
7.66383e-05
2.31703e-05
3.63372e-05
3.63285e-05
3.63394e-05
3.6331e-05
7.66353e-05
7.66348e-05
2.23441e-05
2.75837e-05
2.42309e-05
2.385e-05
2.23445e-05
2.75788e-05
2.42309e-05
2.80555e-05
6.9859e-05
2.80579e-05
6.98573e-05
2.23439e-05
2.42308e-05
2.75828e-05
2.38491e-05
2.23442e-05
2.42308e-05
2.75775e-05
2.80584e-05
6.9862e-05
6.98641e-05
2.8056e-05
2.23447e-05
2.385e-05
2.75788e-05
2.42309e-05
2.75839e-05
2.42309e-05
2.23443e-05
2.80581e-05
6.98575e-05
6.98593e-05
2.80556e-05
2.23445e-05
2.38491e-05
2.42306e-05
2.75776e-05
2.42306e-05
2.7583e-05
2.23441e-05
2.80546e-05
6.98611e-05
2.80573e-05
6.98593e-05
2.23434e-05
2.42309e-05
2.75823e-05
2.38496e-05
2.23438e-05
2.42309e-05
2.75773e-05
2.80547e-05
6.98618e-05
2.80574e-05
6.98602e-05
2.23437e-05
2.38499e-05
2.75765e-05
2.42306e-05
2.75818e-05
2.42307e-05
2.23433e-05
2.80574e-05
6.98596e-05
6.98614e-05
2.80547e-05
2.23441e-05
2.38496e-05
2.42306e-05
2.75774e-05
2.42307e-05
2.75825e-05
2.23436e-05
2.80575e-05
6.98604e-05
6.98621e-05
2.80548e-05
3.63327e-05
3.63345e-05
2.31739e-05
3.63307e-05
3.63328e-05
7.66377e-05
7.66384e-05
7.66348e-05
7.66343e-05
2.31699e-05
3.63307e-05
3.63329e-05
3.63332e-05
3.6335e-05
7.66391e-05
7.66384e-05
2.23437e-05
2.42309e-05
2.75835e-05
2.385e-05
2.23441e-05
2.42309e-05
2.75784e-05
2.80554e-05
6.98621e-05
2.80579e-05
6.98605e-05
2.80555e-05
6.98648e-05
2.8058e-05
6.98631e-05
2.2344e-05
2.38496e-05
2.42306e-05
2.75772e-05
2.42307e-05
2.75823e-05
2.23437e-05
2.23443e-05
2.385e-05
2.42308e-05
2.75784e-05
2.42309e-05
2.75836e-05
2.23439e-05
2.8058e-05
6.98608e-05
6.98624e-05
2.80556e-05
2.80581e-05
6.98632e-05
6.98649e-05
2.80556e-05
7.66376e-05
7.66383e-05
7.6637e-05
7.66376e-05
2.31703e-05
3.63329e-05
3.63364e-05
3.6335e-05
3.63385e-05
7.6639e-05
7.66383e-05
7.66384e-05
7.66376e-05
7.66396e-05
7.66406e-05
7.66384e-05
7.66394e-05
3.63352e-05
3.63377e-05
2.31746e-05
3.63328e-05
3.63354e-05
7.66407e-05
7.66406e-05
7.66394e-05
7.66394e-05
2.31705e-05
3.63328e-05
3.63354e-05
3.63349e-05
3.63374e-05
2.80548e-05
6.98648e-05
2.80579e-05
6.98636e-05
2.23432e-05
2.75828e-05
2.42308e-05
2.38495e-05
2.23443e-05
2.75776e-05
2.42307e-05
2.23434e-05
2.75842e-05
2.42306e-05
2.38494e-05
2.23444e-05
2.7579e-05
2.42306e-05
2.80569e-05
6.98612e-05
6.98621e-05
2.80535e-05
2.80574e-05
6.98647e-05
6.98657e-05
2.8054e-05
2.23434e-05
2.38493e-05
2.75773e-05
2.42304e-05
2.75827e-05
2.42305e-05
2.2342e-05
2.23437e-05
2.38492e-05
2.75786e-05
2.42304e-05
2.75841e-05
2.42305e-05
2.23422e-05
3.63393e-05
3.63309e-05
2.31745e-05
3.63368e-05
3.63282e-05
7.66358e-05
7.66366e-05
7.66401e-05
7.66401e-05
2.31704e-05
3.63367e-05
3.63281e-05
3.6339e-05
3.63306e-05
7.66365e-05
7.66367e-05
2.23437e-05
2.75842e-05
2.42309e-05
2.385e-05
2.23448e-05
2.75789e-05
2.42309e-05
2.80554e-05
6.98596e-05
2.80583e-05
6.98583e-05
2.23435e-05
2.42305e-05
2.7583e-05
2.3849e-05
2.23446e-05
2.42304e-05
2.75775e-05
2.80581e-05
6.98634e-05
6.98646e-05
2.8055e-05
2.23439e-05
2.38499e-05
2.75787e-05