/*--------------------------------*- C++ -*----------------------------------*\
| =========                 |                                                 |
| \\      /  F ield         | OpenFOAM: The Open Source CFD Toolbox           |
|  \\    /   O peration     | Version:  2206                                  |
|   \\  /    A nd           | Website:  www.openfoam.com                      |
|    \\/     M anipulation  |                                                 |
\*---------------------------------------------------------------------------*/
FoamFile
{
    version     2.0;
    format      ascii;
    arch        "LSB;label=32;scalar=64";
    class       volScalarField;
    location    "38";
    object      p;
}
// * * * * * * * * * * * * * * * * * * * * * * * * * * * * * * * * * * * * * //

dimensions      [0 2 -2 0 0 0 0];

internalField   nonuniform List<scalar> 
171728
(
0.00384645
0.00384678
0.00384678
0.00384983
0.00379109
0.0037915
0.0037915
0.00379449
0.00374033
0.0037403
0.0037403
0.00374306
0.00368794
0.00368795
0.00368795
0.00369072
0.0036366
0.00363661
0.00363661
0.00363935
0.00358662
0.00358662
0.00358662
0.00358932
0.0035382
0.00353816
0.00353816
0.00354078
0.00349218
0.00349207
0.00349206
0.00349448
0.00344978
0.00344966
0.00344966
0.00345207
0.00340928
0.00340922
0.00340922
0.00341163
0.00336908
0.00336903
0.00336903
0.00337141
0.00332897
0.00332892
0.00332892
0.0033313
0.00328886
0.00328882
0.00328882
0.0032912
0.00324876
0.00324872
0.00324872
0.0032511
0.00320867
0.00320863
0.00320863
0.003211
0.00316857
0.00316853
0.00316853
0.00317091
0.00312847
0.00312843
0.00312843
0.0031308
0.00308837
0.00308833
0.00308833
0.0030907
0.00304827
0.00304823
0.00304823
0.00305061
0.00300817
0.00300813
0.00300813
0.00301051
0.00296806
0.00296802
0.00296802
0.0029704
0.00292795
0.00292791
0.00292791
0.00293029
0.00288785
0.00288781
0.00288781
0.00289019
0.00284774
0.0028477
0.0028477
0.00285008
0.00280764
0.0028076
0.0028076
0.00280998
0.00276753
0.00276749
0.00276749
0.00276987
0.00272742
0.00272738
0.00272738
0.00272976
0.00268731
0.00268727
0.00268727
0.00268965
0.00264721
0.00264717
0.00264717
0.00264955
0.0026071
0.00260706
0.00260706
0.00260944
0.00256699
0.00256694
0.00256694
0.00256932
0.00252687
0.00252683
0.00252683
0.00252921
0.00248676
0.00248672
0.00248672
0.0024891
0.00244665
0.00244661
0.00244661
0.00244899
0.00240655
0.00240651
0.00240651
0.00240889
0.00236644
0.0023664
0.0023664
0.00236878
0.00232634
0.0023263
0.0023263
0.00232868
0.00228622
0.00228618
0.00228618
0.00228856
0.00224611
0.00224607
0.00224607
0.00224844
0.002206
0.00220596
0.00220596
0.00220834
0.00216589
0.00216585
0.00216585
0.00216823
0.00212579
0.00212574
0.00212574
0.00212812
0.00208568
0.00208564
0.00208564
0.00208802
0.00204557
0.00204553
0.00204553
0.00204791
0.00200546
0.00200542
0.00200542
0.0020078
0.00196535
0.00196531
0.00196531
0.00196769
0.00192524
0.0019252
0.0019252
0.00192758
0.00188512
0.00188508
0.00188508
0.00188746
0.00184501
0.00184497
0.00184497
0.00184735
0.0018049
0.00180486
0.00180486
0.00180724
0.00176478
0.00176474
0.00176474
0.00176712
0.00172467
0.00172463
0.00172463
0.00172701
0.00168456
0.00168452
0.00168452
0.0016869
0.00164445
0.00164441
0.00164441
0.00164679
0.00160434
0.0016043
0.0016043
0.00160668
0.00156422
0.00156418
0.00156418
0.00156656
0.00152411
0.00152406
0.00152406
0.00152644
0.00148399
0.00148395
0.00148395
0.00148633
0.00144388
0.00144384
0.00144384
0.00144622
0.00140376
0.00140372
0.00140372
0.0014061
0.00136365
0.0013636
0.0013636
0.00136598
0.00132353
0.00132349
0.00132349
0.00132587
0.00128341
0.00128337
0.00128337
0.00128575
0.00124329
0.00124325
0.00124325
0.00124563
0.00120317
0.00120313
0.00120313
0.00120551
0.00116305
0.00116301
0.00116301
0.00116539
0.00112293
0.00112289
0.00112289
0.00112527
0.00108282
0.00108278
0.00108278
0.00108516
0.00104271
0.00104266
0.00104266
0.00104504
0.00100259
0.00100255
0.00100255
0.00100493
0.000962484
0.000962443
0.000962444
0.000964823
0.000922376
0.000922335
0.000922336
0.000924715
0.000882263
0.000882222
0.000882222
0.000884602
0.000842145
0.000842104
0.000842104
0.000844483
0.000802034
0.000801993
0.000801994
0.000804373
0.000761927
0.000761886
0.000761886
0.000764265
0.000721821
0.00072178
0.00072178
0.000724159
0.000681715
0.000681674
0.000681674
0.000684053
0.000641608
0.000641567
0.000641567
0.000643946
0.000601501
0.00060146
0.00060146
0.000603839
0.000561395
0.000561353
0.000561353
0.000563733
0.000521287
0.000521246
0.000521246
0.000523626
0.000481178
0.000481138
0.000481137
0.000483517
0.00044107
0.000441028
0.000441029
0.000443407
0.000400962
0.000400921
0.000400922
0.0004033
0.000360856
0.000360816
0.000360816
0.000363195
0.000320748
0.000320708
0.000320707
0.000323086
0.000280644
0.000280601
0.000280601
0.00028298
0.000240534
0.000240494
0.000240493
0.000242867
0.000200419
0.00020038
0.000200381
0.000202753
0.00016029
0.00016025
0.000160251
0.000162613
0.000120152
0.000120118
0.000120118
0.000122468
8.00192e-05
7.9973e-05
7.99715e-05
8.22954e-05
4.05766e-05
4.0024e-05
4.00212e-05
4.22108e-05
8.24247e-06
8.35926e-06
8.35652e-06
7.90445e-06
0.00385986
0.00386008
0.00386008
0.00385986
0.00386008
0.00386008
0.00386084
0.00386084
0.00386085
0.00386085
0.00386008
0.00386008
0.00385986
0.00386009
0.00386009
0.00385986
0.00384983
0.00380107
0.00384678
0.00384678
0.00380335
0.00380335
0.00384983
0.00380107
0.00384678
0.00384678
0.00380334
0.00380335
0.00384678
0.00380334
0.00380334
0.00384983
0.00380107
0.00384678
0.00380334
0.00380334
0.00380107
0.0037945
0.00374998
0.00379151
0.00379151
0.00375343
0.00375343
0.0037945
0.00374998
0.0037915
0.0037915
0.00375342
0.00375342
0.00379151
0.00375342
0.00375342
0.0037945
0.00374998
0.0037915
0.00375342
0.00375342
0.00374998
0.00374306
0.00369761
0.0037403
0.0037403
0.00370097
0.00370097
0.00374306
0.00369761
0.0037403
0.0037403
0.00370097
0.00370097
0.0037403
0.00370097
0.00370097
0.00374306
0.00369761
0.0037403
0.00370097
0.00370097
0.0036976
0.00369072
0.00364606
0.00368795
0.00368795
0.00364932
0.00364932
0.00369072
0.00364606
0.00368795
0.00368795
0.00364932
0.00364932
0.00368795
0.00364932
0.00364932
0.00369072
0.00364606
0.00368795
0.00364932
0.00364932
0.00364606
0.00363935
0.00359583
0.00363661
0.00363661
0.00359896
0.00359896
0.00363935
0.00359583
0.00363661
0.00363661
0.00359896
0.00359896
0.00363661
0.00359896
0.00359896
0.00363935
0.00359583
0.00363661
0.00359896
0.00359896
0.00359583
0.00358933
0.00354709
0.00358662
0.00358662
0.00355015
0.00355015
0.00358932
0.00354709
0.00358662
0.00358662
0.00355015
0.00355015
0.00358662
0.00355015
0.00355015
0.00358932
0.00354709
0.00358662
0.00355015
0.00355015
0.00354709
0.00354078
0.00350041
0.00353816
0.00353816
0.00350328
0.00350328
0.00354078
0.00350041
0.00353816
0.00353816
0.00350328
0.00350328
0.00353816
0.00350328
0.00350328
0.00354078
0.00350041
0.00353816
0.00350328
0.00350328
0.00350041
0.00349447
0.00345745
0.00349206
0.00349206
0.00345994
0.00345994
0.00349448
0.00345745
0.00349206
0.00349206
0.00345994
0.00345994
0.00349207
0.00345994
0.00345994
0.00349448
0.00345745
0.00349206
0.00345994
0.00345994
0.00345745
0.00345207
0.00341692
0.00344966
0.00344966
0.0034193
0.0034193
0.00345207
0.00341692
0.00344966
0.00344966
0.0034193
0.0034193
0.00344966
0.0034193
0.0034193
0.00345207
0.00341692
0.00344966
0.0034193
0.0034193
0.00341692
0.00341163
0.00337669
0.00340922
0.00340922
0.00337907
0.00337907
0.00341163
0.00337669
0.00340922
0.00340922
0.00337907
0.00337907
0.00340922
0.00337907
0.00337907
0.00341163
0.00337669
0.00340922
0.00337907
0.00337907
0.00337669
0.00337141
0.00333657
0.00336903
0.00336903
0.00333895
0.00333895
0.00337141
0.00333658
0.00336903
0.00336903
0.00333895
0.00333895
0.00336903
0.00333895
0.00333895
0.00337141
0.00333657
0.00336903
0.00333895
0.00333895
0.00333657
0.0033313
0.00329648
0.00332892
0.00332892
0.00329885
0.00329885
0.0033313
0.00329648
0.00332892
0.00332892
0.00329885
0.00329885
0.00332892
0.00329885
0.00329885
0.0033313
0.00329648
0.00332892
0.00329885
0.00329885
0.00329648
0.0032912
0.00325638
0.00328882
0.00328882
0.00325875
0.00325875
0.0032912
0.00325638
0.00328882
0.00328882
0.00325875
0.00325875
0.00328882
0.00325875
0.00325875
0.0032912
0.00325638
0.00328882
0.00325875
0.00325875
0.00325638
0.0032511
0.00321628
0.00324872
0.00324872
0.00321865
0.00321865
0.0032511
0.00321628
0.00324872
0.00324872
0.00321865
0.00321865
0.00324872
0.00321865
0.00321865
0.0032511
0.00321628
0.00324872
0.00321865
0.00321865
0.00321628
0.003211
0.00317618
0.00320863
0.00320863
0.00317855
0.00317855
0.003211
0.00317618
0.00320863
0.00320863
0.00317855
0.00317855
0.00320863
0.00317855
0.00317855
0.003211
0.00317618
0.00320863
0.00317855
0.00317855
0.00317618
0.00317091
0.00313608
0.00316853
0.00316853
0.00313845
0.00313845
0.0031709
0.00313608
0.00316853
0.00316853
0.00313845
0.00313845
0.00316853
0.00313845
0.00313845
0.00317091
0.00313608
0.00316853
0.00313845
0.00313845
0.00313608
0.0031308
0.00309598
0.00312843
0.00312843
0.00309835
0.00309835
0.0031308
0.00309598
0.00312843
0.00312843
0.00309835
0.00309835
0.00312843
0.00309835
0.00309835
0.0031308
0.00309598
0.00312843
0.00309835
0.00309835
0.00309598
0.00309071
0.00305588
0.00308833
0.00308833
0.00305825
0.00305825
0.00309071
0.00305588
0.00308833
0.00308833
0.00305825
0.00305825
0.00308833
0.00305825
0.00305825
0.0030907
0.00305588
0.00308833
0.00305825
0.00305825
0.00305588
0.00305061
0.00301578
0.00304823
0.00304823
0.00301815
0.00301815
0.00305061
0.00301578
0.00304823
0.00304823
0.00301815
0.00301815
0.00304823
0.00301815
0.00301815
0.00305061
0.00301578
0.00304823
0.00301815
0.00301815
0.00301578
0.00301051
0.00297567
0.00300813
0.00300813
0.00297805
0.00297805
0.0030105
0.00297567
0.00300813
0.00300813
0.00297805
0.00297805
0.00300813
0.00297805
0.00297805
0.00301051
0.00297567
0.00300813
0.00297805
0.00297805
0.00297567
0.0029704
0.00293556
0.00296802
0.00296802
0.00293794
0.00293794
0.0029704
0.00293556
0.00296802
0.00296802
0.00293794
0.00293794
0.00296802
0.00293794
0.00293794
0.0029704
0.00293556
0.00296802
0.00293794
0.00293794
0.00293556
0.00293029
0.00289546
0.00292791
0.00292791
0.00289783
0.00289783
0.00293029
0.00289546
0.00292791
0.00292791
0.00289783
0.00289783
0.00292791
0.00289783
0.00289783
0.00293029
0.00289546
0.00292791
0.00289783
0.00289783
0.00289546
0.00289019
0.00285536
0.00288781
0.00288781
0.00285773
0.00285773
0.00289019
0.00285536
0.00288781
0.00288781
0.00285773
0.00285773
0.00288781
0.00285773
0.00285773
0.00289019
0.00285536
0.00288781
0.00285773
0.00285773
0.00285536
0.00285008
0.00281525
0.0028477
0.0028477
0.00281762
0.00281762
0.00285008
0.00281525
0.0028477
0.0028477
0.00281762
0.00281762
0.0028477
0.00281762
0.00281762
0.00285008
0.00281525
0.0028477
0.00281762
0.00281762
0.00281525
0.00280998
0.00277514
0.0028076
0.0028076
0.00277752
0.00277752
0.00280998
0.00277514
0.0028076
0.0028076
0.00277752
0.00277752
0.0028076
0.00277752
0.00277752
0.00280998
0.00277514
0.0028076
0.00277752
0.00277752
0.00277514
0.00276987
0.00273504
0.00276749
0.00276749
0.00273741
0.00273741
0.00276987
0.00273504
0.00276749
0.00276749
0.00273741
0.00273741
0.00276749
0.00273741
0.00273741
0.00276987
0.00273504
0.00276749
0.00273741
0.00273741
0.00273504
0.00272976
0.00269493
0.00272738
0.00272738
0.0026973
0.0026973
0.00272976
0.00269493
0.00272738
0.00272738
0.0026973
0.0026973
0.00272738
0.0026973
0.0026973
0.00272976
0.00269493
0.00272738
0.0026973
0.0026973
0.00269493
0.00268965
0.00265482
0.00268727
0.00268727
0.00265719
0.00265719
0.00268965
0.00265482
0.00268727
0.00268727
0.00265719
0.00265719
0.00268727
0.00265719
0.00265719
0.00268965
0.00265482
0.00268727
0.00265719
0.00265719
0.00265482
0.00264955
0.00261471
0.00264717
0.00264717
0.00261708
0.00261708
0.00264955
0.00261471
0.00264717
0.00264717
0.00261708
0.00261708
0.00264717
0.00261708
0.00261708
0.00264955
0.00261471
0.00264717
0.00261708
0.00261708
0.00261471
0.00260944
0.0025746
0.00260706
0.00260706
0.00257697
0.00257697
0.00260944
0.0025746
0.00260706
0.00260706
0.00257697
0.00257697
0.00260706
0.00257697
0.00257697
0.00260944
0.0025746
0.00260706
0.00257697
0.00257697
0.0025746
0.00256932
0.00253449
0.00256694
0.00256694
0.00253686
0.00253686
0.00256932
0.00253449
0.00256694
0.00256694
0.00253686
0.00253686
0.00256694
0.00253686
0.00253686
0.00256932
0.00253449
0.00256694
0.00253686
0.00253686
0.00253449
0.00252921
0.00249438
0.00252683
0.00252683
0.00249675
0.00249675
0.00252921
0.00249438
0.00252683
0.00252683
0.00249675
0.00249675
0.00252683
0.00249675
0.00249675
0.00252921
0.00249438
0.00252683
0.00249675
0.00249675
0.00249438
0.0024891
0.00245427
0.00248672
0.00248672
0.00245664
0.00245664
0.0024891
0.00245427
0.00248672
0.00248672
0.00245664
0.00245664
0.00248672
0.00245664
0.00245664
0.0024891
0.00245427
0.00248672
0.00245664
0.00245664
0.00245427
0.00244899
0.00241416
0.00244661
0.00244661
0.00241653
0.00241653
0.00244899
0.00241416
0.00244661
0.00244661
0.00241653
0.00241653
0.00244661
0.00241653
0.00241653
0.00244899
0.00241416
0.00244661
0.00241653
0.00241653
0.00241416
0.00240888
0.00237406
0.00240651
0.00240651
0.00237643
0.00237643
0.00240888
0.00237406
0.00240651
0.00240651
0.00237643
0.00237643
0.00240651
0.00237643
0.00237643
0.00240889
0.00237406
0.00240651
0.00237643
0.00237643
0.00237406
0.00236878
0.00233395
0.0023664
0.0023664
0.00233632
0.00233632
0.00236878
0.00233395
0.0023664
0.0023664
0.00233632
0.00233632
0.0023664
0.00233632
0.00233632
0.00236878
0.00233395
0.0023664
0.00233632
0.00233632
0.00233395
0.00232867
0.00229384
0.0023263
0.0023263
0.00229621
0.00229621
0.00232867
0.00229384
0.0023263
0.0023263
0.00229621
0.00229621
0.0023263
0.00229621
0.00229621
0.00232867
0.00229384
0.0023263
0.00229621
0.00229621
0.00229384
0.00228856
0.00225372
0.00228618
0.00228618
0.00225609
0.00225609
0.00228856
0.00225372
0.00228618
0.00228618
0.00225609
0.00225609
0.00228618
0.00225609
0.00225609
0.00228856
0.00225372
0.00228618
0.00225609
0.00225609
0.00225372
0.00224844
0.00221361
0.00224607
0.00224607
0.00221598
0.00221598
0.00224844
0.00221361
0.00224606
0.00224607
0.00221598
0.00221598
0.00224607
0.00221598
0.00221598
0.00224844
0.00221361
0.00224607
0.00221598
0.00221598
0.00221361
0.00220833
0.00217351
0.00220596
0.00220596
0.00217588
0.00217588
0.00220833
0.00217351
0.00220596
0.00220596
0.00217588
0.00217588
0.00220596
0.00217588
0.00217588
0.00220834
0.00217351
0.00220596
0.00217588
0.00217588
0.00217351
0.00216823
0.0021334
0.00216585
0.00216585
0.00213577
0.00213577
0.00216823
0.0021334
0.00216585
0.00216585
0.00213577
0.00213577
0.00216585
0.00213577
0.00213577
0.00216823
0.0021334
0.00216585
0.00213577
0.00213577
0.0021334
0.00212812
0.00209329
0.00212574
0.00212574
0.00209566
0.00209566
0.00212812
0.00209329
0.00212574
0.00212574
0.00209566
0.00209566
0.00212574
0.00209566
0.00209566
0.00212812
0.00209329
0.00212574
0.00209566
0.00209566
0.00209329
0.00208802
0.00205319
0.00208564
0.00208564
0.00205556
0.00205556
0.00208802
0.00205319
0.00208564
0.00208564
0.00205556
0.00205556
0.00208564
0.00205556
0.00205556
0.00208802
0.00205319
0.00208564
0.00205556
0.00205556
0.00205319
0.00204791
0.00201308
0.00204553
0.00204553
0.00201545
0.00201545
0.00204791
0.00201308
0.00204553
0.00204553
0.00201545
0.00201545
0.00204553
0.00201545
0.00201545
0.00204791
0.00201308
0.00204553
0.00201545
0.00201545
0.00201308
0.0020078
0.00197297
0.00200542
0.00200542
0.00197534
0.00197534
0.0020078
0.00197297
0.00200542
0.00200542
0.00197534
0.00197534
0.00200542
0.00197534
0.00197534
0.0020078
0.00197297
0.00200542
0.00197534
0.00197534
0.00197297
0.00196769
0.00193285
0.00196531
0.00196531
0.00193523
0.00193523
0.00196769
0.00193285
0.00196531
0.00196531
0.00193523
0.00193523
0.00196531
0.00193523
0.00193523
0.00196769
0.00193285
0.00196531
0.00193523
0.00193523
0.00193285
0.00192758
0.00189274
0.0019252
0.0019252
0.00189511
0.00189511
0.00192758
0.00189274
0.0019252
0.0019252
0.00189511
0.00189511
0.0019252
0.00189511
0.00189511
0.00192758
0.00189274
0.0019252
0.00189511
0.00189511
0.00189274
0.00188746
0.00185263
0.00188508
0.00188508
0.001855
0.001855
0.00188746
0.00185263
0.00188508
0.00188508
0.001855
0.001855
0.00188508
0.001855
0.001855
0.00188746
0.00185263
0.00188508
0.001855
0.001855
0.00185263
0.00184735
0.00181251
0.00184497
0.00184497
0.00181488
0.00181488
0.00184735
0.00181251
0.00184497
0.00184497
0.00181488
0.00181488
0.00184497
0.00181488
0.00181488
0.00184735
0.00181251
0.00184497
0.00181488
0.00181488
0.00181251
0.00180723
0.0017724
0.00180486
0.00180486
0.00177477
0.00177477
0.00180723
0.0017724
0.00180486
0.00180486
0.00177477
0.00177477
0.00180486
0.00177477
0.00177477
0.00180723
0.0017724
0.00180486
0.00177477
0.00177477
0.0017724
0.00176712
0.00173229
0.00176474
0.00176474
0.00173466
0.00173466
0.00176712
0.00173229
0.00176474
0.00176474
0.00173466
0.00173466
0.00176474
0.00173466
0.00173466
0.00176712
0.00173229
0.00176474
0.00173466
0.00173466
0.00173229
0.00172701
0.00169218
0.00172463
0.00172463
0.00169455
0.00169455
0.00172701
0.00169218
0.00172463
0.00172463
0.00169455
0.00169455
0.00172463
0.00169455
0.00169455
0.00172701
0.00169218
0.00172463
0.00169455
0.00169455
0.00169218
0.0016869
0.00165207
0.00168452
0.00168452
0.00165444
0.00165444
0.0016869
0.00165207
0.00168452
0.00168452
0.00165444
0.00165444
0.00168452
0.00165444
0.00165444
0.0016869
0.00165207
0.00168452
0.00165444
0.00165444
0.00165207
0.00164679
0.00161196
0.00164441
0.00164441
0.00161433
0.00161433
0.00164679
0.00161196
0.00164441
0.00164441
0.00161433
0.00161433
0.00164441
0.00161433
0.00161433
0.00164679
0.00161196
0.00164441
0.00161433
0.00161433
0.00161196
0.00160668
0.00157184
0.0016043
0.0016043
0.00157421
0.00157421
0.00160668
0.00157184
0.0016043
0.0016043
0.00157421
0.00157421
0.0016043
0.00157421
0.00157421
0.00160668
0.00157184
0.0016043
0.00157421
0.00157421
0.00157184
0.00156656
0.00153172
0.00156418
0.00156418
0.00153409
0.00153409
0.00156656
0.00153172
0.00156418
0.00156418
0.00153409
0.00153409
0.00156418
0.00153409
0.00153409
0.00156656
0.00153172
0.00156418
0.00153409
0.00153409
0.00153172
0.00152644
0.00149161
0.00152406
0.00152406
0.00149398
0.00149398
0.00152644
0.00149161
0.00152406
0.00152406
0.00149398
0.00149398
0.00152406
0.00149398
0.00149398
0.00152644
0.00149161
0.00152406
0.00149398
0.00149398
0.00149161
0.00148633
0.00145149
0.00148395
0.00148395
0.00145386
0.00145386
0.00148633
0.00145149
0.00148395
0.00148395
0.00145386
0.00145386
0.00148395
0.00145386
0.00145386
0.00148633
0.00145149
0.00148395
0.00145386
0.00145386
0.00145149
0.00144622
0.00141138
0.00144384
0.00144384
0.00141375
0.00141375
0.00144622
0.00141138
0.00144384
0.00144384
0.00141375
0.00141375
0.00144384
0.00141375
0.00141375
0.00144622
0.00141138
0.00144384
0.00141375
0.00141375
0.00141138
0.0014061
0.00137126
0.00140372
0.00140372
0.00137363
0.00137363
0.0014061
0.00137126
0.00140372
0.00140372
0.00137363
0.00137363
0.00140372
0.00137363
0.00137363
0.0014061
0.00137126
0.00140372
0.00137363
0.00137363
0.00137126
0.00136598
0.00133114
0.0013636
0.0013636
0.00133352
0.00133352
0.00136598
0.00133115
0.0013636
0.0013636
0.00133352
0.00133352
0.0013636
0.00133352
0.00133352
0.00136598
0.00133114
0.0013636
0.00133352
0.00133352
0.00133114
0.00132587
0.00129103
0.00132349
0.00132349
0.0012934
0.0012934
0.00132587
0.00129103
0.00132349
0.00132349
0.0012934
0.0012934
0.00132349
0.0012934
0.0012934
0.00132587
0.00129103
0.00132349
0.0012934
0.0012934
0.00129103
0.00128575
0.00125091
0.00128337
0.00128337
0.00125328
0.00125328
0.00128575
0.00125091
0.00128337
0.00128337
0.00125328
0.00125328
0.00128337
0.00125328
0.00125328
0.00128575
0.00125091
0.00128337
0.00125328
0.00125328
0.00125091
0.00124563
0.00121079
0.00124325
0.00124325
0.00121316
0.00121316
0.00124563
0.00121079
0.00124325
0.00124325
0.00121316
0.00121316
0.00124325
0.00121316
0.00121316
0.00124563
0.00121079
0.00124325
0.00121316
0.00121316
0.00121079
0.00120551
0.00117067
0.00120313
0.00120313
0.00117304
0.00117304
0.00120551
0.00117067
0.00120313
0.00120313
0.00117304
0.00117304
0.00120313
0.00117304
0.00117304
0.00120551
0.00117067
0.00120313
0.00117304
0.00117304
0.00117067
0.00116539
0.00113055
0.00116301
0.00116301
0.00113292
0.00113292
0.00116539
0.00113055
0.00116301
0.00116301
0.00113292
0.00113292
0.00116301
0.00113292
0.00113292
0.00116539
0.00113055
0.00116301
0.00113292
0.00113292
0.00113055
0.00112527
0.00109043
0.00112289
0.00112289
0.00109281
0.00109281
0.00112527
0.00109043
0.00112289
0.00112289
0.00109281
0.00109281
0.00112289
0.00109281
0.00109281
0.00112527
0.00109043
0.00112289
0.00109281
0.00109281
0.00109043
0.00108516
0.00105032
0.00108278
0.00108278
0.00105269
0.00105269
0.00108516
0.00105032
0.00108278
0.00108278
0.00105269
0.00105269
0.00108278
0.00105269
0.00105269
0.00108516
0.00105032
0.00108278
0.00105269
0.00105269
0.00105032
0.00104504
0.00101021
0.00104266
0.00104266
0.00101258
0.00101258
0.00104504
0.00101021
0.00104266
0.00104266
0.00101258
0.00101258
0.00104266
0.00101258
0.00101258
0.00104504
0.00101021
0.00104266
0.00101258
0.00101258
0.00101021
0.00100493
0.000970099
0.00100255
0.00100255
0.00097247
0.00097247
0.00100493
0.0009701
0.00100255
0.00100255
0.00097247
0.000972471
0.00100255
0.000972471
0.000972471
0.00100493
0.0009701
0.00100255
0.000972471
0.000972471
0.0009701
0.000964822
0.000929991
0.000962443
0.000962443
0.000932362
0.000932362
0.000964822
0.000929992
0.000962443
0.000962444
0.000932362
0.000932363
0.000962444
0.000932362
0.000932363
0.000964823
0.000929992
0.000962444
0.000932363
0.000932363
0.000929992
0.000924715
0.00088988
0.000922335
0.000922335
0.000892251
0.000892251
0.000924715
0.00088988
0.000922335
0.000922336
0.000892251
0.000892251
0.000922336
0.000892251
0.000892251
0.000924715
0.00088988
0.000922336
0.000892251
0.000892251
0.00088988
0.000884602
0.000849761
0.000882222
0.000882222
0.000852134
0.000852134
0.000884602
0.000849762
0.000882222
0.000882222
0.000852134
0.000852133
0.000882222
0.000852134
0.000852133
0.000884602
0.000849761
0.000882222
0.000852133
0.000852133
0.000849761
0.000844483
0.000809649
0.000842104
0.000842104
0.00081202
0.00081202
0.000844483
0.000809649
0.000842104
0.000842104
0.00081202
0.000812021
0.000842104
0.00081202
0.000812021
0.000844483
0.000809649
0.000842104
0.000812021
0.000812021
0.00080965
0.000804372
0.000769542
0.000801993
0.000801993
0.000771913
0.000771913
0.000804372
0.000769542
0.000801993
0.000801994
0.000771913
0.000771913
0.000801994
0.000771913
0.000771913
0.000804373
0.000769542
0.000801994
0.000771913
0.000771913
0.000769542
0.000764265
0.000729436
0.000761886
0.000761886
0.000731807
0.000731807
0.000764265
0.000729436
0.000761886
0.000761886
0.000731807
0.000731807
0.000761886
0.000731807
0.000731807
0.000764265
0.000729436
0.000761886
0.000731807
0.000731807
0.000729436
0.000724159
0.00068933
0.00072178
0.00072178
0.000691701
0.0006917
0.000724159
0.00068933
0.00072178
0.00072178
0.000691701
0.000691701
0.00072178
0.000691701
0.000691701
0.000724159
0.00068933
0.00072178
0.000691701
0.000691701
0.00068933
0.000684053
0.000649223
0.000681674
0.000681674
0.000651594
0.000651594
0.000684053
0.000649223
0.000681674
0.000681674
0.000651594
0.000651594
0.000681674
0.000651594
0.000651594
0.000684053
0.000649223
0.000681674
0.000651594
0.000651594
0.000649223
0.000643946
0.000609116
0.000641567
0.000641567
0.000611487
0.000611487
0.000643946
0.000609116
0.000641567
0.000641567
0.000611487
0.000611487
0.000641567
0.000611487
0.000611487
0.000643946
0.000609116
0.000641567
0.000611487
0.000611487
0.000609116
0.000603839
0.000569009
0.00060146
0.00060146
0.00057138
0.00057138
0.000603839
0.000569009
0.00060146
0.00060146
0.00057138
0.00057138
0.00060146
0.00057138
0.00057138
0.000603839
0.000569009
0.00060146
0.00057138
0.00057138
0.000569009
0.000563733
0.000528902
0.000561354
0.000561353
0.000531273
0.000531273
0.000563732
0.000528902
0.000561353
0.000561353
0.000531273
0.000531273
0.000561354
0.000531273
0.000531273
0.000563732
0.000528902
0.000561353
0.000531273
0.000531273
0.000528902
0.000523625
0.000488793
0.000521246
0.000521246
0.000491164
0.000491165
0.000523625
0.000488794
0.000521245
0.000521246
0.000491164
0.000491165
0.000521247
0.000491165
0.000491165
0.000523625
0.000488793
0.000521246
0.000491165
0.000491165
0.000488794
0.000483516
0.000448685
0.000481137
0.000481137
0.000451056
0.000451055
0.000483517
0.000448684
0.000481137
0.000481137
0.000451056
0.000451056
0.000481138
0.000451055
0.000451055
0.000483517
0.000448684
0.000481138
0.000451056
0.000451055
0.000448684
0.000443408
0.000408577
0.000441029
0.000441028
0.000410948
0.000410948
0.000443407
0.000408577
0.000441029
0.000441029
0.000410948
0.000410948
0.000441028
0.000410948
0.000410948
0.000443408
0.000408577
0.000441028
0.000410948
0.000410948
0.000408577
0.0004033
0.000368471
0.000400922
0.000400921
0.000370842
0.000370842
0.0004033
0.000368471
0.000400921
0.000400922
0.000370842
0.000370842
0.000400922
0.000370842
0.000370842
0.000403301
0.000368471
0.000400921
0.000370842
0.000370842
0.000368471
0.000363194
0.000328364
0.000360816
0.000360816
0.000330735
0.000330735
0.000363194
0.000328364
0.000360816
0.000360816
0.000330735
0.000330735
0.000360816
0.000330735
0.000330735
0.000363194
0.000328363
0.000360816
0.000330735
0.000330735
0.000328364
0.000323085
0.000288256
0.000320707
0.000320707
0.000290624
0.000290624
0.000323085
0.000288257
0.000320707
0.000320707
0.000290624
0.000290624
0.000320708
0.000290625
0.000290625
0.000323085
0.000288256
0.000320708
0.000290624
0.000290624
0.000288257
0.00028298
0.000248157
0.000280601
0.000280601
0.000250528
0.000250528
0.00028298
0.000248158
0.000280601
0.000280601
0.000250527
0.000250527
0.000280602
0.000250528
0.000250528
0.00028298
0.000248156
0.000280601
0.000250527
0.000250528
0.000248157
0.000242867
0.00020804
0.000240493
0.000240494
0.000210405
0.000210406
0.000242868
0.000208041
0.000240493
0.000240493
0.000210405
0.000210405
0.000240494
0.000210406
0.000210406
0.000242867
0.00020804
0.000240494
0.000210405
0.000210406
0.000208041
0.000202752
0.000167921
0.00020038
0.00020038
0.000170285
0.000170284
0.000202753
0.00016792
0.00020038
0.000200381
0.000170285
0.000170285
0.000200381
0.000170284
0.000170285
0.000202753
0.000167921
0.000200381
0.000170285
0.000170285
0.000167921
0.000162614
0.000127794
0.000160251
0.00016025
0.000130157
0.000130158
0.000162612
0.000127794
0.000160251
0.000160251
0.000130158
0.000130158
0.00016025
0.000130158
0.000130157
0.000162614
0.000127794
0.00016025
0.000130157
0.000130158
0.000127794
0.000122468
8.76583e-05
0.000120118
0.000120118
9.00194e-05
9.00198e-05
0.000122468
8.76588e-05
0.000120118
0.000120118
9.00191e-05
9.00185e-05
0.000120118
9.00195e-05
9.00191e-05
0.000122467
8.76572e-05
0.000120118
9.00184e-05
9.00186e-05
8.76578e-05
8.22965e-05
4.75576e-05
7.99732e-05
7.99732e-05
4.99243e-05
4.99242e-05
8.22962e-05
4.75581e-05
7.99725e-05
7.99715e-05
4.99224e-05
4.99215e-05
7.99725e-05
4.99228e-05
4.99211e-05
8.22954e-05
4.75546e-05
7.99719e-05
4.99205e-05
4.99198e-05
4.75542e-05
4.22148e-05
1.13419e-05
4.00263e-05
4.0026e-05
1.3482e-05
1.34814e-05
4.22148e-05
1.13416e-05
4.00242e-05
4.00227e-05
1.34803e-05
1.34763e-05
4.00218e-05
1.3479e-05
1.34755e-05
4.22113e-05
1.13367e-05
4.00206e-05
1.34762e-05
1.34768e-05
1.13371e-05
7.90759e-06
8.36068e-06
8.36072e-06
7.90816e-06
8.35915e-06
8.35604e-06
8.24229e-06
8.2398e-06
8.24012e-06
8.3563e-06
7.90385e-06
8.35687e-06
0.00386823
0.00387799
0.00387279
0.0038728
0.00389517
0.00388196
0.00391056
0.003876
0.00389517
0.00388196
0.00387601
0.00391056
0.00388653
0.0039143
0.0039143
0.00382359
0.00384274
0.00385193
0.00381566
0.00381643
0.00381917
0.00382357
0.00384271
0.00385192
0.00381564
0.00384645
0.00384645
0.00384645
0.00380304
0.00380304
0.00380303
0.00380303
0.00382109
0.00384692
0.00384685
0.00382991
0.00384994
0.00381999
0.0038308
0.00381653
0.00381917
0.00382109
0.00384685
0.00384693
0.00382992
0.00384994
0.0038308
0.00381999
0.00385279
0.00385278
0.00382432
0.00381963
0.00381962
0.00377694
0.00379624
0.00379759
0.00377547
0.00379514
0.00377504
0.00377694
0.00379623
0.00379759
0.00377546
0.00379109
0.00379108
0.00379108
0.00375349
0.00375349
0.00375349
0.00375349
0.00377553
0.00379631
0.00379108
0.00377921
0.0037951
0.00377607
0.00377894
0.00379514
0.00377503
0.00377553
0.00379108
0.00379631
0.00377921
0.00379509
0.00377894
0.00377607
0.00379733
0.00379733
0.00377576
0.0037764
0.0037764
0.0037247
0.00374351
0.00374457
0.00372368
0.00374315
0.00372339
0.0037247
0.00374351
0.00374457
0.00372367
0.00374033
0.00374033
0.00374033
0.00370095
0.00370095
0.00370095
0.00370095
0.00372379
0.0037439
0.00374021
0.00372716
0.00374333
0.00372416
0.00372707
0.00374315
0.00372339
0.00372379
0.00374021
0.0037439
0.00372716
0.00374333
0.00372707
0.00372416
0.00374414
0.00374414
0.00372378
0.00372423
0.00372423
0.00367218
0.0036908
0.00369165
0.00367141
0.0036906
0.00367123
0.00367218
0.0036908
0.00369165
0.00367141
0.00368794
0.00368794
0.00368794
0.00364932
0.00364932
0.00364932
0.00364932
0.00367166
0.00369121
0.0036879
0.003675
0.00369092
0.00367185
0.00367496
0.0036906
0.00367123
0.00367166
0.0036879
0.00369121
0.003675
0.00369092
0.00367496
0.00367185
0.00369124
0.00369124
0.00367169
0.0036718
0.0036718
0.00362095
0.00363933
0.00363995
0.00362038
0.00363919
0.00362024
0.00362095
0.00363933
0.00363995
0.00362038
0.0036366
0.0036366
0.0036366
0.00359895
0.00359895
0.00359895
0.00359895
0.00362069
0.00363967
0.00363658
0.00362397
0.00363949
0.00362078
0.00362394
0.00363918
0.00362025
0.00362069
0.00363658
0.00363967
0.00362397
0.00363949
0.00362394
0.00362078
0.00363966
0.00363966
0.00362077
0.00362069
0.00362069
0.00357135
0.00358924
0.00358967
0.0035709
0.00358913
0.00357078
0.00357135
0.00358924
0.00358967
0.0035709
0.00358662
0.00358662
0.00358662
0.00355015
0.00355015
0.00355015
0.00355015
0.0035712
0.00358954
0.0035866
0.00357436
0.00358943
0.00357126
0.00357434
0.00358912
0.00357079
0.0035712
0.0035866