/*--------------------------------*- C++ -*----------------------------------*\
| =========                 |                                                 |
| \\      /  F ield         | OpenFOAM: The Open Source CFD Toolbox           |
|  \\    /   O peration     | Version:  2206                                  |
|   \\  /    A nd           | Website:  www.openfoam.com                      |
|    \\/     M anipulation  |                                                 |
\*---------------------------------------------------------------------------*/
FoamFile
{
    version     2.0;
    format      ascii;
    arch        "LSB;label=32;scalar=64";
    class       volScalarField;
    location    "38";
    object      Ux;
}
// * * * * * * * * * * * * * * * * * * * * * * * * * * * * * * * * * * * * * //

dimensions      [0 1 -1 0 0 0 0];

internalField   nonuniform List<scalar> 
171728
(
0.000107971
-0.000190198
0.000119349
-0.00023952
9.43494e-05
-0.000158982
9.68348e-05
-0.000200908
9.53111e-05
-0.000155434
9.32136e-05
-0.000201599
9.33928e-05
-0.000151247
8.96228e-05
-0.000198314
9.10219e-05
-0.00014605
8.5596e-05
-0.000192682
8.88587e-05
-0.000142286
8.28021e-05
-0.000185663
8.14137e-05
-0.000130285
7.54839e-05
-0.000173941
6.06259e-05
-9.46724e-05
5.23561e-05
-0.000144541
3.34516e-05
-4.75594e-05
3.0298e-05
-8.94772e-05
1.19868e-05
-1.71078e-05
1.25073e-05
-6.25054e-05
1.20254e-06
-3.04488e-06
2.6971e-06
-5.02257e-05
-7.52339e-07
-7.44435e-07
1.06824e-06
-4.85347e-05
-9.16821e-07
-6.23731e-07
9.56488e-07
-4.84474e-05
-9.24565e-07
-6.20633e-07
9.54607e-07
-4.8447e-05
-9.27139e-07
-6.15994e-07
9.53831e-07
-4.8447e-05
-9.27618e-07
-6.16297e-07
9.53961e-07
-4.84474e-05
-9.26435e-07
-6.166e-07
9.54016e-07
-4.84467e-05
-9.26462e-07
-6.16313e-07
9.53896e-07
-4.84466e-05
-9.24455e-07
-6.16731e-07
9.54053e-07
-4.84466e-05
-9.18649e-07
-6.13839e-07
9.5459e-07
-4.84463e-05
-9.14325e-07
-6.20343e-07
9.55416e-07
-4.84462e-05
-9.23821e-07
-6.16175e-07
9.54736e-07
-4.84459e-05
-9.24566e-07
-6.15645e-07
9.54835e-07
-4.84462e-05
-9.25107e-07
-6.15005e-07
9.54548e-07
-4.84463e-05
-9.25779e-07
-6.14551e-07
9.54368e-07
-4.84469e-05
-9.26164e-07
-6.13935e-07
9.54073e-07
-4.8447e-05
-9.27037e-07
-6.13228e-07
9.53812e-07
-4.84469e-05
-9.27612e-07
-6.12978e-07
9.53781e-07
-4.8447e-05
-9.27168e-07
-6.13484e-07
9.54403e-07
-4.84475e-05
-9.26706e-07
-6.1375e-07
9.54537e-07
-4.84476e-05
-9.25819e-07
-6.14052e-07
9.55003e-07
-4.84483e-05
-9.26099e-07
-6.14349e-07
9.54568e-07
-4.84482e-05
-9.26413e-07
-6.13747e-07
9.54872e-07
-4.84477e-05
-9.26449e-07
-6.13369e-07
9.54372e-07
-4.84477e-05
-9.27417e-07
-6.12631e-07
9.53818e-07
-4.84469e-05
-9.26769e-07
-6.12594e-07
9.54376e-07
-4.84471e-05
-9.26849e-07
-6.12803e-07
9.54285e-07
-4.84473e-05
-9.26347e-07
-6.13181e-07
9.55027e-07
-4.84479e-05
-9.26404e-07
-6.13978e-07
9.54945e-07
-4.84481e-05
-9.26086e-07
-6.1302e-07
9.53944e-07
-4.84458e-05
-9.2204e-07
-6.11511e-07
9.53922e-07
-4.8446e-05
-9.29398e-07
-6.13404e-07
9.5381e-07
-4.84481e-05
-9.26891e-07
-6.13724e-07
9.54184e-07
-4.84477e-05
-9.2605e-07
-6.13363e-07
9.53648e-07
-4.84469e-05
-9.25202e-07
-6.15105e-07
9.53346e-07
-4.84478e-05
-9.24419e-07
-6.1514e-07
9.53829e-07
-4.8448e-05
-9.23086e-07
-6.15846e-07
9.54294e-07
-4.84484e-05
-9.23348e-07
-6.15799e-07
9.54024e-07
-4.84484e-05
-9.23865e-07
-6.15595e-07
9.53944e-07
-4.84487e-05
-9.24152e-07
-6.15409e-07
9.53613e-07
-4.84483e-05
-9.24418e-07
-6.14457e-07
9.53785e-07
-4.84477e-05
-9.24568e-07
-6.1527e-07
9.53986e-07
-4.84481e-05
-9.24215e-07
-6.14856e-07
9.54122e-07
-4.84479e-05
-9.22417e-07
-6.15575e-07
9.54807e-07
-4.84483e-05
-9.21472e-07
-6.1527e-07
9.55201e-07
-4.84484e-05
-9.2318e-07
-6.1671e-07
9.54624e-07
-4.84493e-05
-9.23137e-07
-6.18395e-07
9.54445e-07
-4.84516e-05
-9.22943e-07
-6.17311e-07
9.54894e-07
-4.8451e-05
-9.23142e-07
-6.17482e-07
9.54753e-07
-4.8451e-05
-9.23184e-07
-6.17039e-07
9.54957e-07
-4.84507e-05
-9.22521e-07
-6.18014e-07
9.55434e-07
-4.8451e-05
-9.22091e-07
-6.17908e-07
9.55449e-07
-4.84512e-05
-9.21811e-07
-6.18912e-07
9.55879e-07
-4.84517e-05
-9.21875e-07
-6.18497e-07
9.56148e-07
-4.84515e-05
-9.21896e-07
-6.17759e-07
9.55509e-07
-4.84509e-05
-9.22432e-07
-6.1747e-07
9.55154e-07
-4.8451e-05
-9.23341e-07
-6.16915e-07
9.5492e-07
-4.84503e-05
-9.22497e-07
-6.17465e-07
9.55544e-07
-4.84513e-05
-9.22141e-07
-6.17332e-07
9.56588e-07
-4.84522e-05
-9.21231e-07
-6.18057e-07
9.62612e-07
-4.84558e-05
-9.21125e-07
-6.18435e-07
9.59357e-07
-4.84553e-05
-9.21554e-07
-6.17963e-07
9.55919e-07
-4.84514e-05
-9.21963e-07
-6.18069e-07
9.55613e-07
-4.84515e-05
-9.22873e-07
-6.17196e-07
9.55036e-07
-4.84509e-05
-9.23011e-07
-6.17587e-07
9.55095e-07
-4.84513e-05
-9.22911e-07
-6.167e-07
9.55235e-07
-4.84513e-05
-9.22254e-07
-6.18041e-07
9.55884e-07
-4.84523e-05
-9.2211e-07
-6.17981e-07
9.55898e-07
-4.84525e-05
-9.21597e-07
-6.18326e-07
9.5678e-07
-4.84525e-05
-9.21685e-07
-6.18632e-07
9.56402e-07
-4.84527e-05
-9.22397e-07
-6.17803e-07
9.55657e-07
-4.84523e-05
-9.22588e-07
-6.17534e-07
9.55616e-07
-4.8452e-05
-9.22991e-07
-6.16968e-07
9.55294e-07
-4.84516e-05
-9.23177e-07
-6.16377e-07
9.54438e-07
-4.84518e-05
-9.25509e-07
-6.12037e-07
9.50899e-07
-4.84509e-05
-9.33266e-07
-6.02751e-07
9.40768e-07
-4.84423e-05
-9.42682e-07
-5.9815e-07
9.28752e-07
-4.83688e-05
-9.40674e-07
-6.48519e-07
9.841e-07
-4.83286e-05
-8.21838e-07
-7.75158e-07
1.02181e-06
-4.80232e-05
-8.10341e-07
-9.55628e-07
1.15836e-06
-4.77351e-05
-6.91529e-07
-1.3888e-06
1.45676e-06
-4.69252e-05
-5.13397e-07
-2.27379e-06
2.11338e-06
-4.55851e-05
-4.9337e-07
-3.93349e-06
3.46996e-06
-4.17945e-05
-5.94336e-06
-2.57855e-06
3.71769e-06
-2.69387e-05
-4.04983e-05
4.26938e-05
-3.38123e-05
4.52797e-05
0.000135016
0.000124246
-0.000124238
-0.000135013
0.000152898
0.00015287
9.07889e-05
-9.07791e-05
9.07631e-05
-9.07607e-05
-0.000152893
-0.000152879
0.000135006
0.000124198
-0.000124195
-0.000135014
0.000239563
0.000111471
0.0001194
-0.000119351
8.90598e-05
-8.9021e-05
-0.000239572
-0.000111431
0.000190235
0.000190173
0.000147113
0.000147148
-0.000190155
-0.000147084
-0.000147105
0.000239493
0.000111423
-0.00011933
8.90337e-05
-8.9013e-05
-0.000111421
0.000200995
0.000105957
9.68425e-05
-9.68159e-05
9.41182e-05
-9.41184e-05
-0.000200959
-0.000105947
0.000159015
0.000159033
0.000156425
0.000156465
-0.00015901
-0.000156422
-0.000156443
0.000200906
0.000105922
-9.68167e-05
9.412e-05
-9.41258e-05
-0.000105936
0.000201665
9.7321e-05
9.32057e-05
-9.32106e-05
9.13134e-05
-9.13018e-05
-0.000201658
-9.72999e-05
0.000155442
0.000155483
0.00015339
0.000153423
-0.000155466
-0.000153385
-0.000153423
0.000201583
9.72727e-05
-9.32213e-05
9.13167e-05
-9.1306e-05
-9.73344e-05
0.000198347
8.77276e-05
8.96177e-05
-8.96047e-05
8.75277e-05
-8.7518e-05
-0.000198334
-8.77236e-05
0.000151254
0.000151285
0.000148889
0.00014892
-0.000151287
-0.000148884
-0.000148928
0.000198254
8.7698e-05
-8.96079e-05
8.75347e-05
-8.75159e-05
-8.77608e-05
0.000192698
7.82599e-05
8.55872e-05
-8.55761e-05
8.2794e-05
-8.27871e-05
-0.000192696
-7.82474e-05
0.000146056
0.000146086
0.000142512
0.000142541
-0.000146093
-0.000142505
-0.000142553
0.000192616
7.82176e-05
-8.55742e-05
8.28032e-05
-8.27829e-05
-7.82954e-05
0.000185676
6.89096e-05
8.2786e-05
-8.27758e-05
7.61024e-05
-7.60777e-05
-0.000185662
-6.88969e-05
0.000142293
0.000142324
0.00013207
0.000132095
-0.000142332
-0.00013206
-0.000132113
0.000185584
6.88822e-05
-8.27769e-05
7.60977e-05
-7.60746e-05
-6.89674e-05
0.000173931
4.86506e-05
7.54344e-05
-7.54143e-05
6.22563e-05
-6.22375e-05
-0.000173924
-4.86883e-05
0.000130302
0.000130318
0.000111031
0.000111085
-0.000130331
-0.000111044
-0.000111096
0.000173855
4.86631e-05
-7.54559e-05
6.22021e-05
-6.21739e-05
-4.86506e-05
0.000144569
-6.82466e-06
5.24151e-05
-5.24175e-05
3.4019e-05
-3.40234e-05
-0.000144592
6.80964e-06
9.46802e-05
9.47253e-05
5.60183e-05
5.60436e-05
-9.47391e-05
-5.60162e-05
-5.60355e-05
0.000144521
-6.77885e-06
-5.23443e-05
3.39703e-05
-3.39667e-05
6.79234e-06
8.9481e-05
-3.42674e-05
3.03484e-05
-3.03488e-05
1.69696e-05
-1.69662e-05
-8.94964e-05
3.42781e-05
4.75701e-05
4.7583e-05
2.38058e-05
2.38186e-05
-4.75712e-05
-2.37909e-05
-2.38048e-05
8.94735e-05
-3.42557e-05
-3.0296e-05
1.69252e-05
-1.69246e-05
3.42651e-05
6.25266e-05
-4.85353e-05
1.2549e-05
-1.25448e-05
4.05367e-06
-4.03995e-06
-6.25224e-05
4.85525e-05
1.71232e-05
1.71372e-05
4.88061e-06
4.89746e-06
-1.713e-05
-4.86719e-06
-4.90373e-06
6.24969e-05
-4.852e-05
-1.25073e-05
4.00372e-06
-4.00735e-06
4.85149e-05
5.02319e-05
-5.08423e-05
2.74415e-06
-2.73002e-06
1.22949e-06
-1.22833e-06
-5.02236e-05
5.08473e-05
3.05796e-06
3.07385e-06
9.30462e-07
9.57858e-07
-3.07926e-06
-9.25663e-07
-9.58958e-07
5.02065e-05
-5.08131e-05
-2.69903e-06
1.19472e-06
-1.1926e-06
5.08152e-05
4.8536e-05
-5.09705e-05
1.10294e-06
-1.10032e-06
9.95243e-07
-9.95144e-07
-4.85384e-05
5.0974e-05
7.49654e-07
7.74137e-07
6.228e-07
6.52059e-07
-7.75137e-07
-6.25672e-07
-6.54238e-07
4.85219e-05
-5.09428e-05
-1.06524e-06
9.61508e-07
-9.59104e-07
5.0944e-05
4.84484e-05
-5.09735e-05
9.89648e-07
-9.88414e-07
9.85152e-07
-9.85896e-07
-4.84525e-05
5.09743e-05
6.21001e-07
6.46849e-07
6.15523e-07
6.45461e-07
-6.50105e-07
-6.19458e-07
-6.48978e-07
4.84335e-05
-5.09443e-05
-9.53799e-07
9.53043e-07
-9.50293e-07
5.09452e-05
4.84463e-05
-5.09684e-05
9.87266e-07
-9.87328e-07
9.84485e-07
-9.89862e-07
-4.84533e-05
5.09762e-05
6.19336e-07
6.45684e-07
6.16905e-07
6.46543e-07
-6.49192e-07
-6.14974e-07
-6.48676e-07
4.84331e-05
-5.09438e-05
-9.51446e-07
9.53231e-07
-9.51458e-07
5.09449e-05
4.84489e-05
-5.09695e-05
9.83008e-07
-9.917e-07
9.8094e-07
-9.99262e-07
-4.84525e-05
5.0972e-05
6.20431e-07
6.46375e-07
6.16954e-07
6.46679e-07
-6.48662e-07
-6.15772e-07
-6.48499e-07
4.8433e-05
-5.09433e-05
-9.5214e-07
9.52916e-07
-9.52078e-07
5.09442e-05
4.84478e-05
-5.09672e-05
9.80554e-07
-9.96406e-07
9.82553e-07
-9.89758e-07
-4.84521e-05
5.09734e-05
6.20679e-07
6.46612e-07
6.18225e-07
6.46812e-07
-6.48635e-07
-6.14992e-07
-6.4786e-07
4.84333e-05
-5.09432e-05
-9.52732e-07
9.52833e-07
-9.51515e-07
5.09449e-05
4.84493e-05
-5.09686e-05
9.82392e-07
-9.90117e-07
9.82067e-07
-9.88953e-07
-4.84491e-05
5.09756e-05
6.21768e-07
6.46668e-07
6.18047e-07
6.46919e-07
-6.4792e-07
-6.15414e-07
-6.47366e-07
4.84333e-05
-5.09432e-05
-9.5212e-07
9.53e-07
-9.51216e-07
5.09455e-05
4.84489e-05
-5.09712e-05
9.80263e-07
-9.89281e-07
9.83339e-07
-9.93811e-07
-4.84475e-05
5.09747e-05
6.21164e-07
6.46714e-07
6.17142e-07
6.47004e-07
-6.47618e-07
-6.15594e-07
-6.47423e-07
4.84336e-05
-5.09432e-05
-9.51587e-07
9.53197e-07
-9.50621e-07
5.09456e-05
4.84501e-05
-5.09719e-05
9.85758e-07
-9.9527e-07
9.86147e-07
-9.83619e-07
-4.84516e-05
5.09795e-05
6.20363e-07
6.46746e-07
6.1777e-07
6.46138e-07
-6.48709e-07
-6.14278e-07
-6.51286e-07
4.84338e-05
-5.09436e-05
-9.50576e-07
9.53361e-07
-9.48308e-07
5.09448e-05
4.84523e-05
-5.09746e-05
9.86433e-07
-9.74275e-07
9.89698e-07
-9.87989e-07
-4.84345e-05
5.09669e-05
6.22079e-07
6.46033e-07
6.24615e-07
6.47209e-07
-6.51654e-07
-6.18941e-07
-6.46637e-07
4.84328e-05
-5.09427e-05
-9.48576e-07
9.54576e-07
-9.49436e-07
5.09451e-05
4.84502e-05
-5.09727e-05
9.91691e-07
-9.88109e-07
9.83336e-07
-9.86816e-07
-4.8453e-05
5.09783e-05
6.27301e-07
6.47194e-07
6.19208e-07
6.46802e-07
-6.46639e-07
-6.14852e-07
-6.4688e-07
4.84332e-05
-5.09427e-05
-9.50449e-07
9.53784e-07
-9.50155e-07
5.0945e-05
4.84532e-05
-5.09719e-05
9.8384e-07
-9.8917e-07
9.84966e-07
-9.90675e-07
-4.84428e-05
5.09733e-05
6.21763e-07
6.46581e-07
6.18447e-07
6.47276e-07
-6.46919e-07
-6.14605e-07
-6.47376e-07
4.8433e-05
-5.09421e-05
-9.50993e-07
9.53889e-07
-9.51245e-07
5.09449e-05
4.84544e-05
-5.09714e-05
9.85238e-07
-9.91581e-07
9.85873e-07
-9.91581e-07
-4.84469e-05
5.09726e-05
6.22277e-07
6.47265e-07
6.18043e-07
6.47255e-07
-6.47716e-07
-6.13919e-07
-6.47657e-07
4.84336e-05
-5.09421e-05
-9.52019e-07
9.5358e-07
-9.51227e-07
5.09448e-05
4.84548e-05
-5.09718e-05
9.86308e-07
-9.92199e-07
9.86149e-07
-9.91755e-07
-4.84472e-05
5.09728e-05
6.21768e-07
6.47143e-07
6.1744e-07
6.47188e-07
-6.47688e-07
-6.1333e-07
-6.47135e-07
4.84336e-05
-5.09421e-05
-9.52025e-07
9.53489e-07
-9.5147e-07
5.09441e-05
4.84543e-05
-5.0972e-05
9.86479e-07
-9.92183e-07
9.86647e-07
-9.91873e-07
-4.84472e-05
5.09725e-05
6.21009e-07
6.46921e-07
6.17004e-07
6.46611e-07
-6.47117e-07
-6.12894e-07
-6.46329e-07
4.84335e-05
-5.09426e-05
-9.52034e-07
9.53204e-07
-9.51334e-07
5.09441e-05
4.8454e-05
-5.09729e-05
9.86826e-07
-9.92398e-07
9.86207e-07
-9.92022e-07
-4.84474e-05
5.0973e-05
6.20634e-07
6.4633e-07
6.15957e-07
6.45983e-07
-6.4629e-07
-6.121e-07
-6.45658e-07
4.84329e-05
-5.0943e-05
-9.51986e-07
9.52882e-07
-9.51238e-07
5.09442e-05
4.8453e-05
-5.09736e-05
9.86455e-07
-9.9283e-07
9.85788e-07
-9.9184e-07
-4.8447e-05
5.09733e-05
6.19507e-07
6.45722e-07
6.15233e-07
6.45613e-07
-6.45724e-07
-6.11684e-07
-6.45213e-07
4.84324e-05
-5.09431e-05
-9.51884e-07
9.52785e-07
-9.51207e-07
5.09441e-05
4.84524e-05
-5.0973e-05
9.85998e-07
-9.92824e-07
9.8627e-07
-9.91582e-07
-4.84467e-05
5.09732e-05
6.1907e-07
6.45567e-07
6.15774e-07
6.46051e-07
-6.45316e-07
-6.12095e-07
-6.455e-07
4.84324e-05
-5.09426e-05
-9.51813e-07
9.53337e-07
-9.51528e-07
5.09438e-05
4.84532e-05
-5.09724e-05
9.8679e-07
-9.93485e-07
9.87034e-07
-9.91404e-07
-4.84472e-05
5.09725e-05
6.19713e-07
6.46097e-07
6.16064e-07
6.46388e-07
-6.45775e-07
-6.12566e-07
-6.45559e-07
4.8433e-05
-5.09423e-05
-9.52239e-07
9.53581e-07
-9.51553e-07
5.09436e-05
4.84538e-05
-5.0972e-05
9.87714e-07
-9.94516e-07
9.88288e-07
-9.90037e-07
-4.84482e-05
5.09725e-05
6.19926e-07
6.46303e-07
6.16496e-07
6.47077e-07
-6.45739e-07
-6.12662e-07
-6.4629e-07
4.84333e-05
-5.09419e-05
-9.52195e-07
9.54051e-07
-9.52035e-07
5.0943e-05
4.84541e-05
-5.09722e-05
9.88767e-07
-9.96571e-07
9.88309e-07
-9.91968e-07
-4.84487e-05
5.09729e-05
6.20425e-07
6.47136e-07
6.16229e-07
6.46735e-07
-6.46529e-07
-6.13118e-07
-6.46449e-07
4.84337e-05
-5.09423e-05
-9.52711e-07
9.53602e-07
-9.52073e-07
5.09429e-05
4.84538e-05
-5.09725e-05
9.88499e-07
-9.94453e-07
9.87795e-07
-9.9412e-07
-4.84486e-05
5.09738e-05
6.19952e-07
6.46687e-07
6.1608e-07
6.46942e-07
-6.46633e-07
-6.12805e-07
-6.45984e-07
4.84332e-05
-5.09419e-05
-9.52705e-07
9.54023e-07
-9.51638e-07
5.09433e-05
4.84535e-05
-5.09727e-05
9.88108e-07
-9.94421e-07
9.88158e-07
-9.94245e-07
-4.84471e-05
5.09748e-05
6.19767e-07
6.46748e-07
6.15797e-07
6.46412e-07
-6.45983e-07
-6.12255e-07
-6.45774e-07
4.84336e-05
-5.09425e-05
-9.52046e-07
9.53618e-07
-9.51605e-07
5.09435e-05
4.84533e-05
-5.09734e-05
9.88368e-07
-9.94603e-07
9.87047e-07
-9.94169e-07
-4.84461e-05
5.09754e-05
6.19555e-07
6.46314e-07
6.14942e-07
6.45658e-07
-6.45968e-07
-6.11458e-07
-6.45136e-07
4.8433e-05
-5.09431e-05
-9.52113e-07
9.52917e-07
-9.50978e-07
5.09441e-05
4.84525e-05
-5.09731e-05
9.87466e-07
-9.94453e-07
9.87762e-07
-9.9456e-07
-4.84455e-05
5.09752e-05
6.18594e-07
6.45474e-07
6.15234e-07
6.45877e-07
-6.45398e-07
-6.1143e-07
-6.45001e-07
4.84323e-05
-5.09428e-05
-9.51574e-07
9.53403e-07
-9.512e-07
5.09441e-05
4.84531e-05
-5.09731e-05
9.88327e-07
-9.94777e-07
9.8754e-07
-9.94504e-07
-4.84457e-05
5.09752e-05
6.19209e-07
6.45973e-07
6.15176e-07
6.45713e-07
-6.45213e-07
-6.11532e-07
-6.45009e-07
4.84328e-05
-5.09429e-05
-9.51734e-07
9.53278e-07
-9.51365e-07
5.09439e-05
4.84529e-05
-5.09723e-05
9.88009e-07
-9.94724e-07
9.8789e-07
-9.95022e-07
-4.84456e-05
5.09751e-05
6.19004e-07
6.4581e-07
6.16035e-07
6.46488e-07
-6.4539e-07
-6.11761e-07
-6.45588e-07
4.84326e-05
-5.0942e-05
-9.52014e-07
9.54092e-07
-9.51993e-07
5.09432e-05
4.84537e-05
-5.09724e-05
9.88557e-07
-9.95027e-07
9.87582e-07
-9.96085e-07
-4.84457e-05
5.09738e-05
6.19721e-07
6.46515e-07
6.16174e-07
6.46661e-07
-6.46025e-07
-6.1284e-07
-6.46171e-07
4.84336e-05
-5.09421e-05
-9.52528e-07
9.54139e-07
-9.52486e-07
5.09427e-05
4.84532e-05
-5.09727e-05
9.88391e-07
-9.95532e-07
9.86324e-07
-9.96283e-07
-4.84467e-05
5.09762e-05
6.19715e-07
6.4677e-07
6.1783e-07
6.4742e-07
-6.46453e-07
-6.12101e-07
-6.4866e-07
4.84334e-05
-5.0943e-05
-9.52641e-07
9.53456e-07
-9.51545e-07
5.09452e-05
4.84512e-05
-5.09662e-05
9.86676e-07
-9.94092e-07
9.86303e-07
-9.94018e-07
-4.84442e-05
5.09754e-05
6.22515e-07
6.47727e-07
6.2324e-07
6.48189e-07
-6.50692e-07
-6.09995e-07
-6.51383e-07
4.84327e-05
-5.09437e-05
-9.50043e-07
9.52757e-07
-9.47801e-07
5.0946e-05
4.84577e-05
-5.09769e-05
9.91522e-07
-9.94381e-07
9.81968e-07
-9.98e-07
-4.8448e-05
5.09708e-05
6.27298e-07
6.47899e-07
6.1536e-07
6.46376e-07
-6.48694e-07
-6.1253e-07
-6.46052e-07
4.84322e-05
-5.09443e-05
-9.49763e-07
9.53173e-07
-9.51358e-07
5.09436e-05
4.84453e-05
-5.09735e-05
9.83089e-07
-1.00033e-06
9.84772e-07
-9.90591e-07
-4.8453e-05
5.0975e-05
6.17654e-07
6.46297e-07
6.15707e-07
6.46558e-07
-6.46691e-07
-6.12372e-07
-6.46139e-07
4.84316e-05
-5.09441e-05
-9.5192e-07
9.53381e-07
-9.51597e-07
5.09437e-05
4.84481e-05
-5.09725e-05
9.85174e-07
-9.90925e-07
9.86011e-07
-9.89926e-07
-4.84459e-05
5.09767e-05
6.1909e-07
6.46523e-07
6.16227e-07
6.46185e-07
-6.46042e-07
-6.12131e-07
-6.44678e-07
4.84319e-05
-5.09445e-05
-9.51953e-07
9.5325e-07
-9.50935e-07
5.09444e-05
4.84492e-05
-5.09724e-05
9.85715e-07
-9.90168e-07
9.85727e-07
-9.90317e-07
-4.84447e-05
5.09758e-05
6.19719e-07
6.46238e-07
6.1667e-07
6.46509e-07
-6.44901e-07
-6.13687e-07
-6.45365e-07
4.84312e-05
-5.09444e-05
-9.513e-07
9.53362e-07
-9.5157e-07
5.09437e-05
4.84493e-05
-5.09719e-05
9.85554e-07
-9.90725e-07
9.8569e-07
-9.90149e-07
-4.84457e-05
5.09762e-05
6.20244e-07
6.46843e-07
6.16996e-07
6.4699e-07
-6.45972e-07
-6.1398e-07
-6.45516e-07
4.84315e-05
-5.09439e-05
-9.52105e-07
9.53771e-07
-9.51789e-07
5.09434e-05
4.84498e-05
-5.09708e-05
9.85775e-07
-9.90401e-07
9.86574e-07
-9.90008e-07
-4.84453e-05
5.09762e-05
6.20634e-07
6.47119e-07
6.18113e-07
6.47819e-07
-6.45879e-07
-6.14508e-07
-6.46034e-07
4.84319e-05
-5.09433e-05
-9.5213e-07
9.54193e-07
-9.5198e-07
5.09432e-05
4.84508e-05
-5.09707e-05
9.86562e-07
-9.90459e-07
9.864e-07
-9.89941e-07
-4.84454e-05
5.09761e-05
6.21768e-07
6.48081e-07
6.18018e-07
6.47826e-07
-6.46449e-07
-6.14809e-07
-6.45993e-07
4.84326e-05
-5.09434e-05
-9.52518e-07
9.541e-07
-9.52301e-07
5.0943e-05
4.84506e-05
-5.09713e-05
9.86071e-07
-9.90132e-07
9.85479e-07
-9.89555e-07
-4.84452e-05
5.09768e-05
6.21264e-07
6.4765e-07
6.17553e-07
6.47417e-07
-6.46195e-07
-6.14283e-07
-6.45931e-07
4.84323e-05
-5.09436e-05
-9.52788e-07
9.53931e-07
-9.52666e-07
5.09428e-05
4.84501e-05
-5.0971e-05
9.85138e-07
-9.90063e-07
9.84809e-07
-9.89817e-07
-4.84446e-05
5.09762e-05
6.21119e-07
6.47388e-07
6.17869e-07
6.47018e-07
-6.4626e-07
-6.14636e-07
-6.45555e-07
4.84321e-05
-5.0944e-05
-9.53204e-07
9.53667e-07
-9.52542e-07
5.09429e-05
4.84504e-05
-5.09712e-05
9.84597e-07
-9.89986e-07
9.84335e-07
-9.88817e-07
-4.8445e-05
5.09778e-05
6.21257e-07
6.46894e-07
6.17608e-07
6.46802e-07
-6.45484e-07
-6.13131e-07
-6.44578e-07
4.84317e-05
-5.0944e-05
-9.52747e-07
9.53656e-07
-9.51853e-07
5.09437e-05
4.84501e-05
-5.09713e-05
9.84093e-07
-9.89356e-07
9.84088e-07
-9.89574e-07
-4.84436e-05
5.09765e-05
6.21012e-07
6.46846e-07
6.1752e-07
6.46939e-07
-6.44843e-07
-6.14183e-07
-6.44978e-07
4.84317e-05
-5.09437e-05
-9.52301e-07
9.53909e-07
-9.52114e-07
5.09434e-05
4.845e-05
-5.09711e-05
9.83951e-07
-9.89857e-07
9.84272e-07
-9.89088e-07
-4.84449e-05
5.09773e-05
6.20904e-07
6.46901e-07
6.17528e-07
6.4682e-07
-6.45237e-07
-6.13724e-07
-6.44833e-07
4.84319e-05
-5.09437e-05
-9.52651e-07
9.53913e-07
-9.52284e-07
5.09434e-05
4.84503e-05
-5.09691e-05
9.84418e-07
-9.8944e-07
9.85986e-07
-9.8858e-07
-4.84441e-05
5.09763e-05
6.21193e-07
6.46896e-07
6.19095e-07
6.47703e-07
-6.45145e-07
-6.14405e-07
-6.45154e-07
4.84319e-05
-5.09429e-05
-9.52818e-07
9.54517e-07
-9.52548e-07
5.09427e-05
4.84519e-05
-5.09677e-05
9.86541e-07
-9.87995e-07
9.88092e-07
-9.79867e-07
-4.84438e-05
5.09795e-05
6.23025e-07
6.47925e-07
6.20085e-07
6.48189e-07
-6.45601e-07
-6.13839e-07
-6.4499e-07
4.84325e-05
-5.09424e-05
-9.52904e-07
9.5512e-07
-9.5258e-07
5.09427e-05
4.84529e-05
-5.09694e-05
9.87947e-07
-9.80102e-07
9.8609e-07
-9.89721e-07
-4.84408e-05
5.09769e-05
6.23492e-07
6.47984e-07
6.19354e-07
6.47724e-07
-6.45329e-07
-6.15564e-07
-6.45764e-07
4.84328e-05
-5.09428e-05
-9.52738e-07
9.54689e-07
-9.52501e-07
5.09424e-05
4.84518e-05
-5.0971e-05
9.85452e-07
-9.89327e-07
9.84971e-07
-9.89704e-07
-4.84446e-05
5.09753e-05
6.22461e-07
6.47397e-07
6.17704e-07
6.45947e-07
-6.48061e-07
-6.17203e-07
-6.52133e-07
4.84326e-05
-5.09443e-05
-9.52578e-07
9.5423e-07
-9.51412e-07
5.09396e-05
4.84502e-05
-5.09719e-05
9.84774e-07
-9.89772e-07
9.84766e-07
-9.88412e-07
-4.84458e-05
5.09763e-05
6.20731e-07
6.45265e-07
6.16665e-07
6.44794e-07
-6.5392e-07
-6.16247e-07
-6.50905e-07
4.84312e-05
-5.09452e-05
-9.51202e-07
9.54755e-07
-9.50493e-07
5.09402e-05
4.84495e-05
-5.09721e-05
9.84668e-07
-9.88691e-07
9.84638e-07
-9.88488e-07
-4.84449e-05
5.09761e-05
6.20028e-07
6.44584e-07
6.16274e-07
6.44382e-07
-6.52388e-07
-6.16544e-07
-6.50832e-07
4.84304e-05
-5.09455e-05
-9.5057e-07
9.54661e-07
-9.50571e-07
5.09404e-05
4.84493e-05
-5.09722e-05
9.84502e-07
-9.88744e-07
9.84474e-07
-9.87965e-07
-4.84451e-05
5.09769e-05
6.19639e-07
6.44174e-07
6.16104e-07
6.44168e-07
-6.52492e-07
-6.15781e-07
-6.50599e-07
4.84302e-05
-5.09454e-05
-9.5082e-07
9.54707e-07
-9.50755e-07
5.09406e-05
4.84493e-05
-5.09718e-05
9.84419e-07
-9.88501e-07
9.84816e-07
-9.88783e-07
-4.84443e-05
5.09756e-05
6.19533e-07
6.44128e-07
6.1656e-07
6.44798e-07
-6.52253e-07
-6.16805e-07
-6.51075e-07
4.84303e-05
-5.09449e-05
-9.51003e-07
9.55241e-07
-9.51174e-07
5.09404e-05
4.84498e-05
-5.09713e-05
9.84795e-07
-9.89277e-07
9.85135e-07
-9.88821e-07
-4.84456e-05
5.09757e-05
6.20106e-07
6.44843e-07
6.17205e-07
6.45257e-07
-6.52794e-07
-6.16724e-07
-6.51249e-07
4.84308e-05
-5.09447e-05
-9.51417e-07
9.55363e-07
-9.51435e-07
5.09402e-05
4.84501e-05
-5.09712e-05
9.84997e-07
-9.89229e-07
9.85223e-07
-9.89658e-07
-4.84454e-05
5.09748e-05
6.20422e-07
6.4515e-07
6.17524e-07
6.45578e-07
-6.52988e-07
-6.17654e-07
-6.52007e-07
4.84309e-05
-5.09444e-05
-9.51669e-07
9.55589e-07
-9.5203e-07
5.09397e-05
4.84503e-05
-5.0971e-05
9.85137e-07
-9.90213e-07
9.85192e-07
-9.89731e-07
-4.84464e-05
5.0975e-05
6.2075e-07
6.45677e-07
6.17824e-07
6.46175e-07
-6.53758e-07
-6.17588e-07
-6.52056e-07
4.84313e-05
-5.09437e-05
-9.52258e-07
9.56095e-07
-9.52051e-07
5.09398e-05
4.84503e-05
-5.09709e-05
9.85039e-07
-9.89944e-07
9.85331e-07
-9.89024e-07
-4.8446e-05
5.09758e-05
6.20478e-07
6.45954e-07
6.1787e-07
6.45492e-07
-6.5355e-07
-6.16707e-07
-6.51224e-07
4.84319e-05
-5.09445e-05
-9.52178e-07
9.55429e-07
-9.51923e-07
5.09403e-05
4.84505e-05
-5.09715e-05
9.8522e-07
-9.89413e-07
9.85014e-07
-9.89041e-07
-4.84452e-05
5.09758e-05
6.19913e-07
6.45297e-07
6.17712e-07
6.45173e-07
-6.52813e-07
-6.16535e-07
-6.51156e-07
4.84311e-05
-5.09447e-05
-9.52248e-07
9.55258e-07
-9.52442e-07
5.09402e-05
4.84497e-05
-5.09725e-05
9.84621e-07
-9.89312e-07
9.84173e-07
-9.88584e-07
-4.84451e-05
5.09763e-05
6.1948e-07
6.4476e-07
6.16526e-07
6.44215e-07
-6.52606e-07
-6.1581e-07
-6.50127e-07
4.84308e-05
-5.09452e-05
-9.52512e-07
9.54804e-07
-9.52011e-07
5.0941e-05
4.84487e-05
-5.09719e-05
9.84014e-07
-9.88956e-07
9.8456e-07
-9.8886e-07
-4.84446e-05
5.09759e-05
6.18615e-07
6.44131e-07
6.17199e-07
6.44927e-07
-6.51738e-07
-6.16291e-07
-6.50844e-07
4.84305e-05
-5.09445e-05
-9.52107e-07
9.55333e-07
-9.52582e-07
5.09402e-05
4.84492e-05
-5.09718e-05
9.84517e-07
-9.89282e-07
9.84587e-07
-9.88805e-07
-4.84449e-05
5.09758e-05
6.19391e-07
6.44947e-07
6.1711e-07
6.45525e-07
-6.52706e-07
-6.16147e-07
-6.51395e-07
4.84313e-05
-5.09428e-05
-9.5299e-07
9.55894e-07
-9.53766e-07
5.09384e-05
4.84488e-05
-5.09711e-05
9.84448e-07
-9.89217e-07
9.84999e-07
-9.89219e-07
-4.84446e-05
5.09752e-05
6.19223e-07
6.46014e-07
6.17648e-07
6.48806e-07
-6.5363e-07
-6.16704e-07
-6.54267e-07
4.84321e-05
-5.0937e-05
-9.5469e-07
9.60958e-07
-9.58031e-07
5.09335e-05
4.84495e-05
-5.0971e-05
9.84962e-07
-9.89718e-07
9.85187e-07
-9.89764e-07
-4.84451e-05
5.09747e-05
6.19846e-07
6.49113e-07
6.17863e-07
6.47885e-07
-6.56612e-07
-6.1746e-07
-6.54066e-07
4.84366e-05
-5.09403e-05
-9.59163e-07
9.6125e-07
-9.58149e-07
5.09353e-05
4.84498e-05
-5.09713e-05
9.85051e-07
-9.90038e-07
9.85026e-07
-9.89173e-07
-4.84458e-05
5.09757e-05
6.19958e-07
6.46996e-07
6.1786e-07
6.45551e-07
-6.54843e-07
-6.16806e-07
-6.51269e-07
4.84346e-05
-5.09441e-05
-9.57078e-07
9.5594e-07
-9.53618e-07
5.09398e-05
4.84499e-05
-5.09712e-05
9.84912e-07
-9.89578e-07
9.85203e-07
-9.89417e-07
-4.84452e-05
5.09751e-05
6.20056e-07
6.45379e-07
6.1812e-07
6.45528e-07
-6.52871e-07
-6.17264e-07
-6.51392e-07
4.84314e-05
-5.09441e-05
-9.53705e-07
9.55657e-07
-9.53399e-07
5.09396e-05
4.84499e-05
-5.09722e-05
9.84938e-07
-9.89621e-07
9.84493e-07
-9.88696e-07
-4.84457e-05
5.09763e-05
6.19987e-07
6.45126e-07
6.17175e-07
6.44565e-07
-6.527e-07
-6.15926e-07
-6.50299e-07
4.84313e-05
-5.09448e-05
-9.53411e-07
9.55104e-07
-9.52799e-07
5.09402e-05
4.8449e-05
-5.09724e-05
9.84276e-07
-9.89211e-07
9.84278e-07
-9.89365e-07
-4.84447e-05
5.09752e-05
6.19205e-07
6.44453e-07
6.17054e-07
6.44488e-07
-6.5199e-07
-6.16738e-07
-6.50316e-07
4.84306e-05
-5.09448e-05
-9.52925e-07
9.55077e-07
-9.53187e-07
5.09397e-05
4.84488e-05
-5.09723e-05
9.84164e-07
-9.89531e-07
9.84429e-07
-9.88163e-07
-4.84456e-05
5.09769e-05
6.19133e-07
6.44334e-07
6.16941e-07
6.44317e-07
-6.51887e-07
-6.15368e-07
-6.49737e-07
4.84306e-05
-5.09449e-05
-9.53409e-07
9.55081e-07
-9.53151e-07
5.09398e-05
4.84489e-05
-5.09717e-05
9.84353e-07
-9.88678e-07
9.84859e-07
-9.89182e-07
-4.8444e-05
5.09753e-05
6.19087e-07
6.44217e-07
6.17608e-07
6.45053e-07
-6.51411e-07
-6.16859e-07
-6.50688e-07
4.84306e-05
-5.09441e-05
-9.53404e-07
9.55719e-07
-9.53981e-07
5.09389e-05
4.84496e-05
-5.09716e-05
9.84842e-07
-9.89563e-07
9.84952e-07
-9.89075e-07
-4.84457e-05
5.09757e-05
6.19853e-07
6.45105e-07
6.1784e-07
6.45178e-07
-6.5248e-07
-6.16901e-07
-6.51097e-07
4.84314e-05
-5.0944e-05
-9.54284e-07
9.55764e-07
-9.54441e-07
5.09385e-05
4.84496e-05
-5.09712e-05
9.84797e-07
-9.89463e-07
9.85266e-07
-9.89269e-07
-4.84451e-05
5.09754e-05
6.19981e-07
6.45125e-07
6.18315e-07
6.45918e-07
-6.52822e-07
-6.17098e-07
-6.51188e-07
4.84314e-05
-5.09431e-05
-9.54694e-07
9.56511e-07
-9.54427e-07
5.09385e-05
4.84501e-05
-5.09712e-05
9.85178e-07
-9.89753e-07
9.85291e-07
-9.89821e-07
-4.84455e-05
5.09748e-05
6.20475e-07
6.45976e-07
6.18378e-07
6.46106e-07
-6.5276e-07
-6.17544e-07
-6.51513e-07
4.84324e-05
-5.09432e-05
-9.54628e-07
9.56557e-07
-9.54751e-07
5.09382e-05
4.84499e-05
-5.09717e-05
9.85046e-07
-9.90214e-07
9.84795e-07
-9.89293e-07
-4.8446e-05
5.09753e-05
6.20349e-07
6.45819e-07
6.17702e-07
6.45241e-07
-6.5315e-07
-6.16967e-07
-6.5105e-07
4.8432e-05
-5.09441e-05
-9.54967e-07
9.55697e-07
-9.54522e-07
5.09385e-05
4.84493e-05
-5.09719e-05
9.84614e-07
-9.89465e-07
9.84726e-07
-9.88746e-07
-4.84453e-05
5.0976e-05
6.19647e-07
6.44944e-07
6.17379e-07
6.44908e-07
-6.52458e-07
-6.16439e-07
-6.50735e-07
4.84311e-05
-5.09443e-05
-9.54571e-07
9.55498e-07
-9.54096e-07
5.09389e-05
4.84491e-05
-5.0972e-05
9.84489e-07
-9.89169e-07
9.84566e-07
-9.88951e-07
-4.84447e-05
5.09758e-05
6.19412e-07
6.44806e-07
6.17221e-07
6.44844e-07
-6.52227e-07
-6.16089e-07
-6.50151e-07
4.8431e-05
-5.09443e-05
-9.54176e-07
9.55567e-07
-9.53757e-07
5.09393e-05
4.8449e-05
-5.09722e-05
9.84155e-07
-9.89063e-07
9.84991e-07
-9.89536e-07
-4.84449e-05
5.09757e-05
6.19e-07
6.44362e-07
6.17687e-07
6.45246e-07
-6.51527e-07
-6.17159e-07
-6.50978e-07
4.84309e-05
-5.09444e-05
-9.5363e-07
9.55881e-07
-9.54334e-07
5.0939e-05
4.84488e-05
-5.09703e-05
9.83397e-07
-9.88175e-07
9.8819e-07
-9.91782e-07
-4.84449e-05
5.09752e-05
6.18203e-07
6.43495e-07
6.21351e-07
6.48681e-07
-6.50773e-07
-6.19828e-07
-6.54217e-07
4.84308e-05
-5.09429e-05
-9.52857e-07
9.58691e-07
-9.5706e-07
5.09377e-05
4.84484e-05
-5.09639e-05
9.80027e-07
-9.84184e-07
9.95696e-07
-9.99815e-07
-4.84433e-05
5.09681e-05
6.14319e-07
6.39427e-07
6.30946e-07
6.58239e-07
-6.46742e-07
-6.29801e-07
-6.64231e-07
4.843e-05
-5.09364e-05
-9.49208e-07
9.65995e-07
-9.64686e-07
5.09313e-05
4.84399e-05
-5.0925e-05
9.69715e-07
-9.74396e-07
1.00051e-06
-1.00488e-06
-4.84357e-05
5.0929e-05
6.04731e-07
6.29735e-07
6.41068e-07
6.68342e-07
-6.37263e-07
-6.39684e-07
-6.75954e-07
4.84215e-05
-5.08979e-05
-9.39062e-07
9.70781e-07
-9.69552e-07
5.08928e-05
4.83667e-05
-5.07998e-05
9.57268e-07
-9.62062e-07
9.88592e-07
-9.93464e-07
-4.83626e-05
5.08033e-05
6.00369e-07
6.24812e-07
6.07752e-07
6.35277e-07
-6.33804e-07
-6.07608e-07
-6.42089e-07
4.83474e-05
-5.0773e-05
-9.26764e-07
9.59091e-07
-9.58055e-07
5.07672e-05
4.83272e-05
-5.06701e-05
1.0126e-06
-1.01732e-06
9.04513e-07
-9.08918e-07
-4.83235e-05
5.06751e-05
6.50908e-07
6.75244e-07
4.85341e-07
5.12629e-07
-6.84459e-07
-4.83395e-07
-5.17548e-07
4.83076e-05
-5.06441e-05
-9.8215e-07
8.7428e-07
-8.73782e-07
5.06385e-05
4.80215e-05
-5.02917e-05
1.05065e-06
-1.0557e-06
8.29517e-07
-8.34768e-07
-4.80163e-05
5.02953e-05
7.7822e-07
8.02461e-07
3.42936e-07
3.71117e-07
-8.1067e-07
-3.43224e-07
-3.7623e-07
4.80021e-05
-5.0264e-05
-1.02074e-06
8.00305e-07
-7.99033e-07
5.02586e-05
4.77344e-05
-4.96517e-05
1.18655e-06
-1.19223e-06
5.74147e-07
-5.8107e-07
-4.77296e-05
4.9655e-05
9.586e-07
9.80036e-07
1.12473e-08
4.09052e-08
-9.88629e-07
-1.02732e-08
-4.25356e-08
4.77155e-05
-4.96254e-05
-1.15714e-06
5.44774e-07
-5.44744e-07
4.96188e-05
4.69247e-05
-4.86041e-05
1.4833e-06
-1.4891e-06
-2.24793e-08
1.40087e-08
-4.69213e-05
4.86077e-05
1.39215e-06
1.419e-06
-6.93382e-07
-6.57105e-07
-1.42276e-06
6.94186e-07
6.64741e-07
4.69062e-05
-4.85812e-05
-1.45406e-06
-4.86047e-08
4.84366e-08
4.85747e-05
4.55843e-05
-4.56042e-05
2.13791e-06
-2.1432e-06
-1.32545e-06
1.31267e-06
-4.55833e-05
4.56097e-05
2.27846e-06
2.30323e-06
-2.10342e-06
-2.06718e-06
-2.29895e-06
2.09501e-06
2.06634e-06
4.55713e-05
-4.55807e-05
-2.11025e-06
-1.34624e-06
1.34263e-06
4.55654e-05
4.17812e-05
-3.67376e-05
3.49341e-06
-3.50209e-06
-5.25533e-06
5.2307e-06
-4.17849e-05
3.67088e-05
3.92512e-06
3.95056e-06
-6.84727e-06
-6.81998e-06
-3.95578e-06
6.82551e-06
6.81068e-06
4.17792e-05
-3.67159e-05