/*--------------------------------*- C++ -*----------------------------------*\
| =========                 |                                                 |
| \\      /  F ield         | OpenFOAM: The Open Source CFD Toolbox           |
|  \\    /   O peration     | Version:  2206                                  |
|   \\  /    A nd           | Website:  www.openfoam.com                      |
|    \\/     M anipulation  |                                                 |
\*---------------------------------------------------------------------------*/
FoamFile
{
    version     2.0;
    format      ascii;
    arch        "LSB;label=32;scalar=64";
    class       volScalarField;
    location    "38";
    object      Uy;
}
// * * * * * * * * * * * * * * * * * * * * * * * * * * * * * * * * * * * * * //

dimensions      [0 1 -1 0 0 0 0];

internalField   nonuniform List<scalar> 
171728
(
0.000107905
0.000119278
-0.000190191
-0.000239539
9.43016e-05
9.68294e-05
-0.000158979
-0.00020096
9.52992e-05
9.32233e-05
-0.000155442
-0.00020165
9.33838e-05
8.96096e-05
-0.000151252
-0.000198359
9.10183e-05
8.55821e-05
-0.000146054
-0.000192728
8.88655e-05
8.27888e-05
-0.000142291
-0.00018571
8.14239e-05
7.54475e-05
-0.000130298
-0.000173987
6.06215e-05
5.23597e-05
-9.4686e-05
-0.000144563
3.34302e-05
3.02904e-05
-4.75614e-05
-8.94851e-05
1.19733e-05
1.24988e-05
-1.7107e-05
-6.25349e-05
1.20841e-06
2.6985e-06
-3.05184e-06
-5.02446e-05
-7.4542e-07
1.07032e-06
-7.46353e-07
-4.85509e-05
-9.12165e-07
9.57487e-07
-6.17786e-07
-4.84633e-05
-9.19841e-07
9.5518e-07
-6.1642e-07
-4.84617e-05
-9.17339e-07
9.6087e-07
-6.17251e-07
-4.84614e-05
-9.15168e-07
9.64898e-07
-6.17471e-07
-4.84613e-05
-9.16558e-07
9.60561e-07
-6.17465e-07
-4.84617e-05
-9.14567e-07
9.63078e-07
-6.16524e-07
-4.84612e-05
-9.07696e-07
9.74704e-07
-6.14649e-07
-4.84597e-05
-9.10713e-07
9.50019e-07
-6.1347e-07
-4.8459e-05
-9.14086e-07
9.62384e-07
-6.16426e-07
-4.84615e-05
-9.19517e-07
9.57192e-07
-6.16922e-07
-4.84614e-05
-9.18431e-07
9.57403e-07
-6.18635e-07
-4.84626e-05
-9.18243e-07
9.57197e-07
-6.18683e-07
-4.84627e-05
-9.18503e-07
9.56652e-07
-6.18741e-07
-4.84628e-05
-9.1863e-07
9.56232e-07
-6.18139e-07
-4.84625e-05
-9.18966e-07
9.56147e-07
-6.17892e-07
-4.84621e-05
-9.19538e-07
9.55701e-07
-6.1779e-07
-4.84622e-05
-9.19033e-07
9.56042e-07
-6.18408e-07
-4.84626e-05
-9.18445e-07
9.56913e-07
-6.18181e-07
-4.84628e-05
-9.1712e-07
9.57936e-07
-6.18927e-07
-4.84634e-05
-9.17119e-07
9.57276e-07
-6.1868e-07
-4.84633e-05
-9.17652e-07
9.56534e-07
-6.1836e-07
-4.84628e-05
-9.17464e-07
9.5629e-07
-6.17841e-07
-4.84628e-05
-9.18462e-07
9.55717e-07
-6.17202e-07
-4.84621e-05
-9.17726e-07
9.55847e-07
-6.17381e-07
-4.84621e-05
-9.17808e-07
9.55527e-07
-6.17554e-07
-4.84624e-05
-9.17463e-07
9.5577e-07
-6.18448e-07
-4.84631e-05
-9.17373e-07
9.56324e-07
-6.18774e-07
-4.84634e-05
-9.16639e-07
9.56292e-07
-6.19129e-07
-4.84652e-05
-9.12131e-07
9.54857e-07
-6.17446e-07
-4.84638e-05
-9.15298e-07
9.65821e-07
-6.15716e-07
-4.84611e-05
-9.16503e-07
9.57005e-07
-6.15547e-07
-4.84612e-05
-9.17937e-07
9.57232e-07
-6.14793e-07
-4.84613e-05
-9.18037e-07
9.57994e-07
-6.15676e-07
-4.84625e-05
-9.18097e-07
9.58237e-07
-6.15674e-07
-4.84625e-05
-9.17285e-07
9.58748e-07
-6.16387e-07
-4.84632e-05
-9.17719e-07
9.58586e-07
-6.16075e-07
-4.84628e-05
-9.18567e-07
9.58348e-07
-6.15987e-07
-4.84628e-05
-9.1925e-07
9.58151e-07
-6.15335e-07
-4.84621e-05
-9.19736e-07
9.57571e-07
-6.1488e-07
-4.84615e-05
-9.19872e-07
9.57824e-07
-6.15207e-07
-4.84617e-05
-9.20063e-07
9.57266e-07
-6.15485e-07
-4.84621e-05
-9.19991e-07
9.54798e-07
-6.16522e-07
-4.8463e-05
-9.20665e-07
9.48874e-07
-6.16377e-07
-4.84631e-05
-9.19682e-07
9.5782e-07
-6.161e-07
-4.8463e-05
-9.21034e-07
9.56658e-07
-6.14182e-07
-4.84614e-05
-9.21595e-07
9.55149e-07
-6.12988e-07
-4.84597e-05
-9.21927e-07
9.54879e-07
-6.12728e-07
-4.84596e-05
-9.22116e-07
9.54524e-07
-6.12464e-07
-4.84592e-05
-9.21399e-07
9.55168e-07
-6.12915e-07
-4.84594e-05
-9.2104e-07
9.55032e-07
-6.12768e-07
-4.84595e-05
-9.20641e-07
9.55875e-07
-6.1323e-07
-4.84598e-05
-9.20822e-07
9.55619e-07
-6.13166e-07
-4.84597e-05
-9.20803e-07
9.55015e-07
-6.12418e-07
-4.84591e-05
-9.2125e-07
9.54851e-07
-6.11932e-07
-4.84589e-05
-9.22021e-07
9.54565e-07
-6.11445e-07
-4.8458e-05
-9.20973e-07
9.55326e-07
-6.11661e-07
-4.84578e-05
-9.19669e-07
9.56195e-07
-6.07855e-07
-4.84553e-05
-9.17671e-07
9.57815e-07
-5.99601e-07
-4.84496e-05
-9.1867e-07
9.57348e-07
-6.09919e-07
-4.84547e-05
-9.20294e-07
9.55593e-07
-6.12334e-07
-4.84583e-05
-9.20985e-07
9.55176e-07
-6.1265e-07
-4.8459e-05
-9.2184e-07
9.54723e-07
-6.11914e-07
-4.84585e-05
-9.21944e-07
9.54927e-07
-6.1191e-07
-4.84585e-05
-9.2202e-07
9.54153e-07
-6.1157e-07
-4.84584e-05
-9.21339e-07
9.5496e-07
-6.1229e-07
-4.84591e-05
-9.21219e-07
9.54892e-07
-6.12389e-07
-4.84593e-05
-9.20794e-07
9.55327e-07
-6.12991e-07
-4.84595e-05
-9.20611e-07
9.5582e-07
-6.12815e-07
-4.84595e-05
-9.21269e-07
9.55003e-07
-6.1174e-07
-4.84588e-05
-9.21497e-07
9.54797e-07
-6.11817e-07
-4.84586e-05
-9.21896e-07
9.54731e-07
-6.11265e-07
-4.84582e-05
-9.22299e-07
9.53653e-07
-6.10864e-07
-4.84585e-05
-9.24771e-07
9.49986e-07
-6.06739e-07
-4.84577e-05
-9.32177e-07
9.40126e-07
-5.97435e-07
-4.84496e-05
-9.4133e-07
9.27783e-07
-5.93069e-07
-4.83769e-05
-9.392e-07
9.82987e-07
-6.42953e-07
-4.8338e-05
-8.20713e-07
1.02106e-06
-7.71694e-07
-4.80321e-05
-8.07173e-07
1.15834e-06
-9.50179e-07
-4.77445e-05
-6.87661e-07
1.45612e-06
-1.38677e-06
-4.69352e-05
-5.0696e-07
2.11469e-06
-2.26746e-06
-4.55969e-05
-4.80348e-07
3.479e-06
-3.91861e-06
-4.17948e-05
-5.88642e-06
3.7532e-06
-2.55749e-06
-2.69129e-05
-4.03695e-05
-3.37273e-05
4.26794e-05
4.53286e-05
0.000135006
0.000152869
0.00015285
0.000134974
0.000124197
-0.000124215
9.07372e-05
9.07346e-05
-9.07832e-05
-9.07812e-05
0.000124194
-0.00012421
-0.000135026
-0.000152899
-0.000152882
-0.000134999
0.000239542
0.000111344
0.000190091
0.000190133
0.000147138
0.000147135
0.000239491
0.000111313
0.000119297
-0.000119358
8.90306e-05
-8.90519e-05
-0.000119361
8.9032e-05
-8.90461e-05
-0.000239584
-0.000111437
-0.00019022
-0.000147074
-0.0001471
-0.000111439
0.000200829
0.000105877
0.000159035
0.000159032
0.00015647
0.00015647
0.000200795
0.000105871
9.6823e-05
-9.68353e-05
9.41223e-05
-9.41254e-05
-9.68303e-05
9.41312e-05
-9.41156e-05
-0.000200968
-0.000105934
-0.000159005
-0.000156422
-0.000156442
-0.000105942
0.000201541
9.72576e-05
0.000155493
0.000155489
0.000153448
0.000153438
0.000201522
9.72567e-05
9.32195e-05
-9.32147e-05
9.13155e-05
-9.13001e-05
-9.32086e-05
9.13084e-05
-9.13043e-05
-0.000201655
-9.73086e-05
-0.000155465
-0.000153389
-0.000153398
-9.73356e-05
0.000198244
8.7696e-05
0.000151312
0.0001513
0.000148945
0.00014894
0.000198228
8.76917e-05
8.96195e-05
-8.96023e-05
8.75284e-05
-8.75082e-05
-8.96073e-05
8.75219e-05
-8.75181e-05
-0.000198352
-8.77227e-05
-0.000151256
-0.000148888
-0.000148888
-8.77627e-05
0.000192616
7.82252e-05
0.000146111
0.000146107
0.000142566
0.000142573
0.000192605
7.82327e-05
8.55882e-05
-8.55657e-05
8.27949e-05
-8.27715e-05
-8.55752e-05
8.27908e-05
-8.27851e-05
-0.000192709
-7.82609e-05
-0.000146051
-0.00014251
-0.000142505
-7.8298e-05
0.000185594
6.88834e-05
0.000142348
0.000142354
0.000132118
0.000132117
0.000185593
6.88807e-05
8.27893e-05
-8.27571e-05
7.60876e-05
-7.60693e-05
-8.27765e-05
7.60755e-05
-7.60865e-05
-0.00018569
-6.89111e-05
-0.000142284
-0.000132071
-0.000132061
-6.89706e-05
0.000173865
4.86711e-05
0.000130334
0.000130336
0.000111137
0.000111107
0.000173839
4.86913e-05
7.54552e-05
-7.54046e-05
6.2226e-05
-6.22321e-05
-7.54553e-05
6.22004e-05
-6.2197e-05
-0.000173955
-4.86438e-05
-0.000130285
-0.000111035
-0.000111017
-4.86378e-05
0.000144528
-6.7828e-06
9.4752e-05
9.47491e-05
5.60304e-05
5.60362e-05
0.000144538
-6.8034e-06
5.23747e-05
-5.24093e-05
3.39681e-05
-3.40213e-05
-5.23901e-05
3.39667e-05
-3.40094e-05
-0.000144577
6.83097e-06
-9.46526e-05
-5.60147e-05
-5.60075e-05
6.82935e-06
8.9461e-05
-3.42736e-05
4.75636e-05
4.75731e-05
2.37894e-05
2.38112e-05
8.94369e-05
-3.42705e-05
3.02909e-05
-3.03458e-05
1.69184e-05
-1.69619e-05
-3.03349e-05
1.69161e-05
-1.69607e-05
-8.94999e-05
3.42844e-05
-4.75584e-05
-2.37852e-05
-2.37949e-05
3.42694e-05
6.24808e-05
-4.85068e-05
1.71181e-05
1.71379e-05
4.90508e-06
4.91108e-06
6.24736e-05
-4.85145e-05
1.25056e-05
-1.25423e-05
4.02058e-06
-4.03855e-06
-1.25418e-05
4.00478e-06
-4.03894e-06
-6.25387e-05
4.8547e-05
-1.71108e-05
-4.87389e-06
-4.87334e-06
4.85314e-05
5.02207e-05
-5.08172e-05
3.08143e-06
3.08924e-06
9.53673e-07
9.63787e-07
5.0201e-05
-5.08148e-05
2.71355e-06
-2.73009e-06
1.20149e-06
-1.22646e-06
-2.72979e-06
1.19804e-06
-1.22305e-06
-5.02484e-05
5.08497e-05
-3.0476e-06
-9.27565e-07
-9.23964e-07
5.08356e-05
4.85171e-05
-5.09451e-05
7.72641e-07
7.85554e-07
6.47014e-07
6.65255e-07
4.851e-05
-5.09457e-05
1.07639e-06
-1.09967e-06
9.69187e-07
-9.93284e-07
-1.09591e-06
9.63994e-07
-9.89372e-07
-4.85571e-05
5.0978e-05
-7.3992e-07
-6.19965e-07
-6.18908e-07
5.09639e-05
4.84308e-05
-5.09489e-05
6.44054e-07
6.647e-07
6.37628e-07
6.59877e-07
4.84207e-05
-5.09491e-05
9.65565e-07
-9.87823e-07
9.59357e-07
-9.85617e-07
-9.83587e-07
9.54286e-07
-9.79178e-07
-4.84693e-05
5.09789e-05
-6.15305e-07
-6.1285e-07
-6.13991e-07
5.09665e-05
4.84309e-05
-5.0945e-05
6.42865e-07
6.59499e-07
6.41989e-07
6.55161e-07
4.84194e-05
-5.09446e-05
9.64448e-07
-9.86731e-07
9.62605e-07
-9.8593e-07
-9.79851e-07
9.58892e-07
-9.79095e-07
-4.84695e-05
5.09785e-05
-6.1432e-07
-6.14065e-07
-6.12276e-07
5.09665e-05
4.84356e-05
-5.0944e-05
6.46123e-07
6.56029e-07
6.44111e-07
6.65026e-07
4.84257e-05
-5.09281e-05
9.62985e-07
-9.8598e-07
9.62577e-07
-9.85263e-07
-9.79267e-07
9.68195e-07
-9.78652e-07
-4.84692e-05
5.09787e-05
-6.12026e-07
-6.1426e-07
-6.10498e-07
5.09664e-05
4.84356e-05
-5.09437e-05
6.47733e-07
6.59204e-07
6.41998e-07
6.51421e-07
4.84379e-05
-5.09485e-05
9.63613e-07
-9.8571e-07
9.61676e-07
-9.84887e-07
-9.79316e-07
9.59463e-07
-9.79521e-07
-4.84689e-05
5.0979e-05
-6.10953e-07
-6.14309e-07
-6.10448e-07
5.09658e-05
4.84345e-05
-5.09423e-05
6.47312e-07
6.51517e-07
6.43419e-07
6.50163e-07
4.84201e-05
-5.09478e-05
9.6264e-07
-9.85401e-07
9.6259e-07
-9.84189e-07
-9.80274e-07
9.61368e-07
-9.79073e-07
-4.84685e-05
5.09799e-05
-6.10966e-07
-6.13834e-07
-6.09769e-07
5.09666e-05
4.8435e-05
-5.09315e-05
6.48247e-07
6.51582e-07
6.52789e-07
6.60957e-07
4.84224e-05
-5.09317e-05
9.64184e-07
-9.84055e-07
9.69178e-07
-9.81946e-07
-9.78861e-07
9.70957e-07
-9.76844e-07
-4.84678e-05
5.09818e-05
-6.09984e-07
-6.12057e-07
-6.08747e-07
5.09683e-05
4.84501e-05
-5.09321e-05
6.612e-07
6.6561e-07
6.47665e-07
6.55461e-07
4.84399e-05
-5.0944e-05
9.73157e-07
-9.81767e-07
9.68952e-07
-9.81133e-07
-9.76689e-07
9.6009e-07
-9.76443e-07
-4.84663e-05
5.09819e-05
-6.1038e-07
-6.10215e-07
-6.15151e-07
5.09685e-05
4.84418e-05
-5.0936e-05
6.45903e-07
6.45711e-07
6.56852e-07
6.58184e-07
4.84121e-05
-5.0946e-05
9.6625e-07
-9.82108e-07
9.60932e-07
-9.83689e-07
-9.77602e-07
9.6006e-07
-9.79636e-07
-4.84658e-05
5.09796e-05
-6.16881e-07
-6.12606e-07
-6.12477e-07
5.09657e-05
4.84359e-05
-5.09376e-05
6.54914e-07
6.52845e-07
6.44109e-07
6.51569e-07
4.84209e-05
-5.09476e-05
9.6176e-07
-9.84403e-07
9.60163e-07
-9.84576e-07
-9.80158e-07
9.56525e-07
-9.793e-07
-4.84675e-05
5.09787e-05
-6.12229e-07
-6.13601e-07
-6.11866e-07
5.09656e-05
4.84309e-05
-5.09398e-05
6.4146e-07
6.52152e-07
6.44511e-07
6.53196e-07
4.84208e-05
-5.09458e-05
9.60022e-07
-9.8542e-07
9.582e-07
-9.85588e-07
-9.80131e-07
9.57189e-07
-9.81065e-07
-4.84681e-05
5.09777e-05
-6.11805e-07
-6.15126e-07
-6.11926e-07
5.09643e-05
4.84299e-05
-5.09395e-05
6.41921e-07
6.53358e-07
6.45014e-07
6.54336e-07
4.84217e-05
-5.09444e-05
9.58835e-07
-9.86093e-07
9.57762e-07
-9.85375e-07
-9.81742e-07
9.57319e-07
-9.81215e-07
-4.84691e-05
5.09777e-05
-6.12059e-07
-6.15451e-07
-6.10903e-07
5.09642e-05
4.84301e-05
-5.09399e-05
6.42158e-07
6.54132e-07
6.44632e-07
6.54898e-07
4.84229e-05
-5.09441e-05
9.58475e-07
-9.85805e-07
9.56862e-07
-9.85233e-07
-9.81728e-07
9.56797e-07
-9.81188e-07
-4.84689e-05
5.09778e-05
-6.12553e-07
-6.1568e-07
-6.13088e-07
5.0964e-05
4.84296e-05
-5.09399e-05
6.4223e-07
6.54015e-07
6.44409e-07
6.54414e-07
4.84231e-05
-5.09446e-05
9.575e-07
-9.85624e-07
9.56289e-07
-9.84835e-07
-9.81603e-07
9.56397e-07
-9.80763e-07
-4.84688e-05
5.09782e-05
-6.13636e-07
-6.15164e-07
-6.13318e-07
5.09644e-05
4.84294e-05
-5.09402e-05
6.41872e-07
6.54002e-07
6.44105e-07
6.54714e-07
4.84226e-05
-5.09442e-05
9.57033e-07
-9.85135e-07
9.55563e-07
-9.84458e-07
-9.81094e-07
9.5611e-07
-9.80277e-07
-4.84683e-05
5.09787e-05
-6.13747e-07
-6.14702e-07
-6.13289e-07
5.09648e-05
4.84291e-05
-5.0941e-05
6.41667e-07
6.54105e-07
6.43554e-07
6.54514e-07
4.84232e-05
-5.09442e-05
9.56308e-07
-9.84981e-07
9.54735e-07
-9.84567e-07
-9.80842e-07
9.55789e-07
-9.80263e-07
-4.84678e-05
5.09786e-05
-6.13844e-07
-6.14669e-07
-6.13525e-07
5.09647e-05
4.84283e-05
-5.0941e-05
6.41015e-07
6.53971e-07
6.43968e-07
6.54692e-07
4.84231e-05
-5.09442e-05
9.55391e-07
-9.85049e-07
9.54745e-07
-9.84942e-07
-9.80691e-07
9.55675e-07
-9.80527e-07
-4.84679e-05
5.09782e-05
-6.13927e-07
-6.1514e-07
-6.14054e-07
5.09644e-05
4.84286e-05
-5.09403e-05
6.41694e-07
6.54318e-07
6.44272e-07
6.54998e-07
4.84233e-05
-5.09434e-05
9.55759e-07
-9.85551e-07
9.55165e-07
-9.85016e-07
-9.81147e-07
9.56302e-07
-9.80609e-07
-4.84685e-05
5.09781e-05
-6.14651e-07
-6.15193e-07
-6.14292e-07
5.09642e-05
4.84294e-05
-5.09382e-05
6.42263e-07
6.5468e-07
6.46062e-07
6.55872e-07
4.84239e-05
-5.09424e-05
9.56361e-07
-9.85365e-07
9.5643e-07
-9.85101e-07
-9.81083e-07
9.55883e-07
-9.81072e-07
-4.84685e-05
5.09779e-05
-6.14607e-07
-6.15881e-07
-6.15077e-07
5.09637e-05
4.84315e-05
-5.09379e-05
6.43966e-07
6.56047e-07
6.46522e-07
6.56176e-07
4.84241e-05
-5.09432e-05
9.5752e-07
-9.85585e-07
9.56621e-07
-9.84672e-07
-9.81627e-07
9.56448e-07
-9.81107e-07
-4.84688e-05
5.09782e-05
-6.15493e-07
-6.15793e-07
-6.15375e-07
5.09636e-05
4.84316e-05
-5.09389e-05
6.43964e-07
6.55723e-07
6.45729e-07
6.56392e-07
4.84223e-05
-5.09428e-05
9.5745e-07
-9.85226e-07
9.56007e-07
-9.85138e-07
-9.81573e-07
9.56627e-07
-9.80685e-07
-4.84684e-05
5.09777e-05
-6.15429e-07
-6.15928e-07
-6.14917e-07
5.0964e-05
4.84307e-05
-5.09384e-05
6.43281e-07
6.55729e-07
6.46155e-07
6.56333e-07
4.84214e-05
-5.09436e-05
9.56813e-07
-9.85475e-07
9.56407e-07
-9.84627e-07
-9.81011e-07
9.56393e-07
-9.80759e-07
-4.84688e-05
5.09784e-05
-6.14641e-07
-6.15466e-07
-6.14837e-07
5.09642e-05
4.84315e-05
-5.09401e-05
6.43606e-07
6.55759e-07
6.44646e-07
6.55746e-07
4.84206e-05
-5.09443e-05
9.57248e-07
-9.85014e-07
9.55343e-07
-9.84068e-07
-9.8118e-07
9.55677e-07
-9.80207e-07
-4.84681e-05
5.0979e-05
-6.1454e-07
-6.1468e-07
-6.14144e-07
5.09648e-05
4.84301e-05
-5.09393e-05
6.42306e-07
6.55116e-07
6.45234e-07
6.56117e-07
4.84198e-05
-5.09441e-05
9.5625e-07
-9.84491e-07
9.56078e-07
-9.84262e-07
-9.80729e-07
9.55829e-07
-9.80158e-07
-4.84675e-05
5.09789e-05
-6.13889e-07
-6.14872e-07
-6.14125e-07
5.09648e-05
4.84316e-05
-5.09398e-05
6.43232e-07
6.55765e-07
6.45165e-07
6.56081e-07
4.842e-05
-5.09442e-05
9.57121e-07
-9.84694e-07
9.55957e-07
-9.84022e-07
-9.80583e-07
9.55555e-07
-9.80161e-07
-4.84677e-05
5.0979e-05
-6.13891e-07
-6.14794e-07
-6.14256e-07
5.09646e-05
4.84318e-05
-5.09402e-05
6.43152e-07
6.55688e-07
6.45293e-07
6.5678e-07
4.84196e-05
-5.09436e-05
9.56765e-07
-9.84631e-07
9.56223e-07
-9.84886e-07
-9.80883e-07
9.55601e-07
-9.80941e-07
-4.84676e-05
5.0978e-05
-6.14247e-07
-6.15775e-07
-6.15134e-07
5.09638e-05
4.84325e-05
-5.09405e-05
6.4382e-07
6.5646e-07
6.45308e-07
6.57086e-07
4.84202e-05
-5.09432e-05
9.57071e-07
-9.85326e-07
9.56246e-07
-9.85015e-07
-9.81485e-07
9.56361e-07
-9.81051e-07
-4.84686e-05
5.09779e-05
-6.15011e-07
-6.16067e-07
-6.15568e-07
5.09636e-05
4.84329e-05
-5.0942e-05
6.44487e-07
6.56776e-07
6.44728e-07
6.5877e-07
4.84205e-05
-5.09422e-05
9.56941e-07
-9.85507e-07
9.55764e-07
-9.856e-07
-9.81571e-07
9.5667e-07
-9.8196e-07
-4.84687e-05
5.09771e-05
-6.15385e-07
-6.16426e-07
-6.18603e-07
5.09618e-05
4.84312e-05
-5.09479e-05
6.4485e-07
6.59676e-07
6.4581e-07
6.61931e-07
4.84222e-05
-5.09385e-05
9.56038e-07
-9.86112e-07
9.57803e-07
-9.84783e-07
-9.82992e-07
9.53752e-07
-9.81767e-07
-4.84697e-05
5.09782e-05
-6.19981e-07
-6.16052e-07
-6.19913e-07
5.09627e-05
4.84334e-05
-5.09477e-05
6.53752e-07
6.55347e-07
6.39356e-07
6.65496e-07
4.84223e-05
-5.09342e-05
9.59855e-07
-9.84491e-07
9.54916e-07
-9.83447e-07
-9.80944e-07
9.63083e-07
-9.78481e-07
-4.84685e-05
5.09799e-05
-6.16346e-07
-6.1375e-07
-6.13733e-07
5.09664e-05
4.84346e-05
-5.09411e-05
6.47091e-07
6.67349e-07
6.42074e-07
6.52557e-07
4.8434e-05
-5.09459e-05
9.58229e-07
-9.84426e-07
9.58895e-07
-9.84724e-07
-9.78865e-07
9.5762e-07
-9.78812e-07
-4.84672e-05
5.09789e-05
-6.13323e-07
-6.13994e-07
-6.14019e-07
5.09658e-05
4.84384e-05
-5.09418e-05
6.4636e-07
6.52963e-07
6.40454e-07
6.51764e-07
4.84172e-05
-5.09475e-05
9.59254e-07
-9.85168e-07
9.58266e-07
-9.84532e-07
-9.79603e-07
9.5712e-07
-9.79494e-07
-4.8468e-05
5.09794e-05
-6.13215e-07
-6.13341e-07
-6.13842e-07
5.09656e-05
4.84379e-05
-5.09418e-05
6.4544e-07
6.51577e-07
6.40437e-07
6.51457e-07
4.84167e-05
-5.09474e-05
9.59282e-07
-9.85051e-07
9.5857e-07
-9.84885e-07
-9.80063e-07
9.57934e-07
-9.80361e-07
-4.84674e-05
5.09789e-05
-6.12878e-07
-6.14326e-07
-6.15044e-07
5.09646e-05
4.8438e-05
-5.09417e-05
6.45631e-07
6.51691e-07
6.40378e-07
6.51096e-07
4.84168e-05
-5.09474e-05
9.59589e-07
-9.85646e-07
9.58721e-07
-9.85163e-07
-9.81061e-07
9.58164e-07
-9.80489e-07
-4.8468e-05
5.09785e-05
-6.13944e-07
-6.14506e-07
-6.15349e-07
5.09644e-05
4.8438e-05
-5.09407e-05
6.4573e-07
6.51317e-07
6.41344e-07
6.51462e-07
4.84168e-05
-5.09471e-05
9.59901e-07
-9.85678e-07
9.59708e-07
-9.8549e-07
-9.81004e-07
9.58646e-07
-9.80996e-07
-4.84683e-05
5.09781e-05
-6.13742e-07
-6.15036e-07
-6.16051e-07
5.09639e-05
4.8439e-05
-5.09406e-05
6.46752e-07
6.51877e-07
6.41328e-07
6.51202e-07
4.84172e-05
-5.0947e-05
9.6087e-07
-9.86134e-07
9.59811e-07
-9.85395e-07
-9.81513e-07
9.58788e-07
-9.80739e-07
-4.84688e-05
5.09782e-05
-6.14551e-07
-6.14939e-07
-6.15711e-07
5.09641e-05
4.84387e-05
-5.09416e-05
6.46294e-07
6.51195e-07
6.40319e-07
6.50669e-07
4.84169e-05
-5.09477e-05
9.60695e-07
-9.85866e-07
9.59397e-07
-9.85381e-07
-9.81171e-07
9.58236e-07
-9.80725e-07
-4.84686e-05
5.09783e-05
-6.14107e-07
-6.14745e-07
-6.15519e-07
5.09642e-05
4.84377e-05
-5.09429e-05
6.45208e-07
6.50929e-07
6.39098e-07
6.50131e-07
4.84164e-05
-5.09479e-05
9.60246e-07
-9.8586e-07
9.5892e-07
-9.84928e-07
-9.81211e-07
9.58442e-07
-9.80237e-07
-4.84684e-05
5.09789e-05
-6.14265e-07
-6.14173e-07
-6.14829e-07
5.09647e-05
4.84364e-05
-5.09438e-05
6.44021e-07
6.50178e-07
6.38258e-07
6.49472e-07
4.8416e-05
-5.09486e-05
9.59754e-07
-9.85334e-07
9.5834e-07
-9.84746e-07
-9.80498e-07
9.57413e-07
-9.79635e-07
-4.84678e-05
5.09791e-05
-6.13584e-07
-6.13426e-07
-6.13715e-07
5.09655e-05
4.84356e-05
-5.0944e-05
6.43345e-07
6.49725e-07
6.38188e-07
6.49364e-07
4.84154e-05
-5.09484e-05
9.59217e-07
-9.85392e-07
9.58156e-07
-9.85134e-07
-9.80141e-07
9.57963e-07
-9.79724e-07
-4.84677e-05
5.09787e-05
-6.13092e-07
-6.13575e-07
-6.13749e-07
5.09653e-05
4.84354e-05
-5.0944e-05
6.43363e-07
6.49641e-07
6.37962e-07
6.49241e-07
4.84155e-05
-5.09485e-05
9.59058e-07
-9.85688e-07
9.5795e-07
-9.85124e-07
-9.80313e-07
9.57348e-07
-9.80123e-07
-4.8468e-05
5.09786e-05
-6.13492e-07
-6.13732e-07
-6.14128e-07
5.09648e-05
4.84352e-05
-5.09438e-05
6.43162e-07
6.49561e-07
6.38073e-07
6.48623e-07
4.84154e-05
-5.09497e-05
9.58973e-07
-9.85792e-07
9.57991e-07
-9.85727e-07
-9.80839e-07
9.56137e-07
-9.81326e-07
-4.8468e-05
5.09779e-05
-6.14084e-07
-6.1455e-07
-6.15166e-07
5.09635e-05
4.8435e-05
-5.09443e-05
6.4312e-07
6.47466e-07
6.36881e-07
6.36771e-07
4.84124e-05
-5.09651e-05
9.58874e-07
-9.86416e-07
9.57316e-07
-9.85897e-07
-9.82119e-07
9.47557e-07
-9.82222e-07
-4.84684e-05
5.09778e-05
-6.15166e-07
-6.14573e-07
-6.15166e-07
5.09632e-05
4.84346e-05
-5.09429e-05
6.42164e-07
6.39282e-07
6.38536e-07
6.50478e-07
4.83967e-05
-5.09484e-05
9.58358e-07
-9.86412e-07
9.58606e-07
-9.85881e-07
-9.82585e-07
9.583e-07
-9.81311e-07
-4.84684e-05
5.09779e-05
-6.15393e-07
-6.14201e-07
-6.16414e-07
5.09636e-05
4.84367e-05
-5.09428e-05
6.43838e-07
6.503e-07
6.37768e-07
6.53251e-07
4.84154e-05
-5.09481e-05
9.59926e-07
-9.86568e-07
9.59027e-07
-9.86325e-07
-9.81423e-07
9.57132e-07
-9.79208e-07
-4.84688e-05
5.09775e-05
-6.18738e-07
-6.12852e-07
-6.24541e-07
5.09651e-05
4.84366e-05
-5.0943e-05
6.42622e-07
6.53826e-07
6.36507e-07
6.53344e-07
4.84156e-05
-5.09499e-05
9.5995e-07
-9.86923e-07
9.59125e-07
-9.86534e-07
-9.78943e-07
9.55231e-07
-9.77019e-07
-4.84692e-05
5.09776e-05
-6.26572e-07
-6.11196e-07
-6.24527e-07
5.0967e-05
4.84365e-05
-5.0943e-05
6.41543e-07
6.53787e-07
6.3614e-07
6.53619e-07
4.84138e-05
-5.09501e-05
9.60137e-07
-9.87063e-07
9.59119e-07
-9.86407e-07
-9.77258e-07
9.55081e-07
-9.76487e-07
-4.84691e-05
5.09778e-05
-6.25985e-07
-6.10807e-07
-6.24965e-07
5.09672e-05
4.84365e-05
-5.09432e-05
6.41234e-07
6.53788e-07
6.35678e-07
6.53492e-07
4.84137e-05
-5.09506e-05
9.60115e-07
-9.86938e-07
9.59036e-07
-9.86322e-07
-9.76895e-07
9.54286e-07
-9.76062e-07
-4.84689e-05
5.0978e-05
-6.26452e-07
-6.10483e-07
-6.24931e-07
5.09676e-05
4.84364e-05
-5.09425e-05
6.4098e-07
6.53901e-07
6.36311e-07
6.5412e-07
4.84134e-05
-5.09502e-05
9.60094e-07
-9.86926e-07
9.59534e-07
-9.86754e-07
-9.76487e-07
9.55041e-07
-9.76058e-07
-4.84688e-05
5.09774e-05
-6.26411e-07
-6.10892e-07
-6.25401e-07
5.09674e-05
4.84371e-05
-5.09422e-05
6.41653e-07
6.54608e-07
6.36639e-07
6.5451e-07
4.84137e-05
-5.09502e-05
9.60671e-07
-9.87419e-07
9.59944e-07
-9.86936e-07
-9.76573e-07
9.54944e-07
-9.76081e-07
-4.84695e-05
5.09772e-05
-6.26948e-07
-6.10849e-07
-6.25591e-07
5.09673e-05
4.84374e-05
-5.09418e-05
6.41895e-07
6.54858e-07
6.37031e-07
6.55153e-07
4.84137e-05
-5.09493e-05
9.60977e-07
-9.87445e-07
9.60219e-07
-9.87085e-07
-9.76561e-07
9.55616e-07
-9.76221e-07
-4.84696e-05
5.0977e-05
-6.27047e-07
-6.11092e-07
-6.2604e-07
5.0967e-05
4.84377e-05
-5.0942e-05
6.42356e-07
6.55715e-07
6.36866e-07
6.55557e-07
4.84146e-05
-5.09492e-05
9.61355e-07
-9.8778e-07
9.60114e-07
-9.8758e-07
-9.76731e-07
9.55757e-07
-9.76249e-07
-4.84699e-05
5.09765e-05
-6.27601e-07
-6.11343e-07
-6.26126e-07
5.0967e-05
4.84374e-05
-5.09418e-05
6.42057e-07
6.55733e-07
6.367e-07
6.54995e-07
4.84146e-05
-5.09499e-05
9.61198e-07
-9.88049e-07
9.60262e-07
-9.86856e-07
-9.766e-07
9.54983e-07
-9.75709e-07
-4.84702e-05
5.09773e-05
-6.27309e-07
-6.10516e-07
-6.25647e-07
5.09675e-05
4.84377e-05
-5.09422e-05
6.4195e-07
6.55331e-07
6.36541e-07
6.54963e-07
4.84139e-05
-5.09499e-05
9.61615e-07
-9.87315e-07
9.60038e-07
-9.8659e-07
-9.76142e-07
9.54954e-07
-9.75593e-07
-4.84693e-05
5.09776e-05
-6.26957e-07
-6.10287e-07
-6.2558e-07
5.09677e-05
4.84371e-05
-5.0943e-05
6.41528e-07
6.54992e-07
6.35515e-07
6.53948e-07
4.84137e-05
-5.09505e-05
9.61051e-07
-9.8696e-07
9.59219e-07
-9.86115e-07
-9.75798e-07
9.54418e-07
-9.74712e-07
-4.84689e-05
5.09782e-05
-6.26555e-07
-6.09502e-07
-6.24819e-07
5.09686e-05
4.84364e-05
-5.09421e-05
6.40808e-07
6.54329e-07
6.36278e-07
6.54768e-07
4.84132e-05
-5.09497e-05
9.60467e-07
-9.86608e-07
9.59836e-07
-9.86049e-07
-9.75033e-07
9.55113e-07
-9.74708e-07
-4.84685e-05
5.0978e-05
-6.25883e-07
-6.09768e-07
-6.25106e-07
5.09685e-05
4.84372e-05
-5.09411e-05
6.41737e-07
6.55244e-07
6.36823e-07
6.55282e-07
4.84138e-05
-5.09491e-05
9.61316e-07
-9.86424e-07
9.60665e-07
-9.84141e-07
-9.75015e-07
9.5572e-07
-9.73103e-07
-4.84684e-05
5.09798e-05
-6.2587e-07
-6.07637e-07
-6.23599e-07
5.09698e-05
4.84377e-05
-5.09396e-05
6.42335e-07
6.55866e-07
6.381e-07
6.56723e-07
4.8414e-05
-5.09476e-05
9.62222e-07
-9.83658e-07
9.62261e-07
-9.80063e-07
-9.72699e-07
9.57452e-07
-9.69155e-07
-4.8465e-05
5.09856e-05
-6.22743e-07
-5.97614e-07
-6.16094e-07
5.0975e-05
4.8439e-05
-5.09399e-05
6.43529e-07
6.57271e-07
6.381e-07
6.56975e-07
4.84153e-05
-5.09476e-05
9.63717e-07
-9.80304e-07
9.61977e-07
-9.82733e-07
-9.68876e-07
9.57792e-07
-9.70337e-07
-4.84595e-05
5.09813e-05
-6.13994e-07
-6.0634e-07
-6.20412e-07
5.09731e-05
4.84389e-05
-5.0941e-05
6.43188e-07
6.57046e-07
6.37215e-07
6.55984e-07
4.84155e-05
-5.0949e-05
9.62845e-07
-9.84412e-07
9.60471e-07
-9.85811e-07
-9.72447e-07
9.55689e-07
-9.74609e-07
-4.8466e-05
5.09781e-05
-6.23319e-07
-6.1034e-07
-6.26706e-07
5.09684e-05
4.84381e-05
-5.09415e-05
6.42381e-07
6.56092e-07
6.36917e-07
6.55258e-07
4.84145e-05
-5.09495e-05
9.61557e-07
-9.86699e-07
9.60074e-07
-9.86765e-07
-9.75276e-07
9.55488e-07
-9.7543e-07
-4.84687e-05
5.09772e-05
-6.25176e-07
-6.10778e-07
-6.26844e-07
5.09674e-05
4.84377e-05
-5.09426e-05
6.41931e-07
6.55324e-07
6.35923e-07
6.54456e-07
4.84139e-05
-5.09501e-05
9.61099e-07
-9.8729e-07
9.59201e-07
-9.86538e-07
-9.75791e-07
9.54505e-07
-9.75038e-07
-4.84694e-05
5.09775e-05
-6.27093e-07
-6.10253e-07
-6.25733e-07
5.0968e-05
4.84367e-05
-5.09426e-05
6.41136e-07
6.54764e-07
6.35887e-07
6.54518e-07
4.84136e-05
-5.09498e-05
9.60395e-07
-9.87068e-07
9.59085e-07
-9.86485e-07
-9.75481e-07
9.55182e-07
-9.74895e-07
-4.8469e-05
5.09776e-05
-6.2697e-07
-6.1005e-07
-6.25846e-07
5.0968e-05
4.84367e-05
-5.09427e-05
6.41155e-07
6.54723e-07
6.35652e-07
6.54016e-07
4.84137e-05
-5.09507e-05
9.60314e-07
-9.86957e-07
9.59051e-07
-9.86295e-07
-9.75371e-07
9.53885e-07
-9.74726e-07
-4.84688e-05
5.09779e-05
-6.27308e-07
-6.09593e-07
-6.25591e-07
5.09681e-05
4.84366e-05
-5.09421e-05
6.40912e-07
6.54388e-07
6.36267e-07
6.54651e-07
4.84129e-05
-5.09499e-05
9.60369e-07
-9.86883e-07
9.59519e-07
-9.86735e-07
-9.75301e-07
9.5495e-07
-9.75245e-07
-4.84687e-05
5.09773e-05
-6.27036e-07
-6.10229e-07
-6.26305e-07
5.09674e-05
4.84373e-05
-5.09419e-05
6.41754e-07
6.55091e-07
6.36615e-07
6.55031e-07
4.84137e-05
-5.09497e-05
9.60902e-07
-9.87348e-07
9.59657e-07
-9.86682e-07
-9.75728e-07
9.54805e-07
-9.75423e-07
-4.84692e-05
5.09773e-05
-6.27798e-07
-6.10319e-07
-6.26617e-07
5.09671e-05
4.84374e-05
-5.09416e-05
6.41859e-07
6.55363e-07
6.36891e-07
6.5529e-07
4.84139e-05
-5.09494e-05
9.60862e-07
-9.87292e-07
9.59826e-07
-9.874e-07
-9.76052e-07
9.55163e-07
-9.75667e-07
-4.84692e-05
5.09764e-05
-6.28193e-07
-6.10943e-07
-6.26871e-07
5.09668e-05
4.84377e-05
-5.09413e-05
6.42274e-07
6.55755e-07
6.37253e-07
6.55983e-07
4.84142e-05
-5.09487e-05
9.61141e-07
-9.88087e-07
9.60093e-07
-9.8724e-07
-9.76024e-07
9.55773e-07
-9.75627e-07
-4.84701e-05
5.09766e-05
-6.28196e-07
-6.11024e-07
-6.26902e-07
5.09668e-05
4.84379e-05
-5.09419e-05
6.42417e-07
6.56185e-07
6.3654e-07
6.54972e-07
4.84148e-05
-5.09497e-05
9.61289e-07
-9.87599e-07
9.59716e-07
-9.86317e-07
-9.7598e-07
9.5523e-07
-9.75097e-07
-4.84697e-05
5.09777e-05
-6.2817e-07
-6.09863e-07
-6.2598e-07
5.09674e-05
4.84372e-05
-5.09421e-05
6.41654e-07
6.55042e-07
6.36246e-07
6.54491e-07
4.84136e-05
-5.09502e-05
9.6086e-07
-9.86882e-07
9.59528e-07
-9.86221e-07
-9.75415e-07
9.54672e-07
-9.74975e-07
-4.84686e-05
5.09777e-05
-6.27293e-07
-6.09924e-07
-6.25943e-07
5.09676e-05
4.8437e-05
-5.09423e-05
6.41414e-07
6.54857e-07
6.36038e-07
6.54693e-07
4.84133e-05
-5.09498e-05
9.6066e-07
-9.87044e-07
9.59416e-07
-9.86073e-07
-9.75317e-07
9.54948e-07
-9.74557e-07
-4.84687e-05
5.09778e-05
-6.2724e-07
-6.09509e-07
-6.25458e-07
5.09681e-05
4.84367e-05
-5.09425e-05
6.40973e-07
6.54653e-07
6.36526e-07
6.55001e-07
4.84136e-05
-5.095e-05
9.60337e-07
-9.86835e-07
9.59713e-07
-9.86508e-07
-9.74779e-07
9.55279e-07
-9.75317e-07
-4.84685e-05
5.09776e-05
-6.26619e-07
-6.1054e-07
-6.26545e-07
5.09677e-05
4.84365e-05
-5.09409e-05
6.40205e-07
6.5365e-07
6.40089e-07
6.5851e-07
4.84133e-05
-5.09486e-05
9.59384e-07
-9.86483e-07
9.62724e-07
-9.88749e-07
-9.74271e-07
9.57843e-07
-9.78341e-07
-4.84687e-05
5.09762e-05
-6.26253e-07
-6.13824e-07
-6.29899e-07
5.09663e-05
4.84358e-05
-5.09347e-05
6.36322e-07
6.49721e-07
6.49549e-07
6.679e-07
4.84126e-05
-5.09423e-05
9.5586e-07
-9.83132e-07
9.70195e-07
-9.95536e-07
-9.70707e-07
9.65726e-07
-9.86072e-07
-4.84675e-05
5.09693e-05
-6.22195e-07
-6.23549e-07
-6.39971e-07
5.09599e-05
4.84272e-05
-5.08958e-05
6.26953e-07
6.39847e-07
6.59508e-07
6.77811e-07
4.84038e-05
-5.09033e-05
9.45518e-07
-9.73948e-07
9.75056e-07
-1.00019e-06
-9.6078e-07
9.70743e-07
-9.91417e-07
-4.84587e-05
5.09289e-05
-6.12968e-07
-6.34061e-07
-6.50303e-07
5.09204e-05
4.83535e-05
-5.0771e-05
6.22781e-07
6.34951e-07
6.26643e-07
6.4467e-07
4.83307e-05
-5.07778e-05
9.33098e-07
-9.62061e-07
9.63337e-07
-9.89133e-07
-9.48511e-07
9.59069e-07
-9.79823e-07
-4.83854e-05
5.08035e-05
-6.08731e-07
-6.01851e-07
-6.1674e-07
5.07948e-05
4.8314e-05
-5.06413e-05
6.7289e-07
6.85291e-07
5.03252e-07
5.21494e-07
4.82911e-05
-5.0649e-05
9.88542e-07
-1.01726e-06
8.78624e-07
-9.05349e-07
-1.00342e-06
8.73975e-07
-8.95622e-07
-4.83452e-05
5.06747e-05
-6.59762e-07
-4.78968e-07
-4.92374e-07
5.06648e-05
4.80083e-05
-5.02604e-05
8.00873e-07
8.11918e-07
3.62334e-07
3.79536e-07
4.79867e-05
-5.02684e-05
1.02677e-06
-1.05494e-06
8.04448e-07
-8.31591e-07
-1.04196e-06
8.00898e-07
-8.2129e-07
-4.80382e-05
5.02941e-05
-7.86292e-07
-3.37501e-07
-3.50334e-07
5.0287e-05
4.77224e-05
-4.96202e-05
9.80028e-07
9.90736e-07
3.49933e-08
4.82428e-08
4.76999e-05
-4.96278e-05
1.16372e-06
-1.19022e-06
5.49767e-07
-5.77273e-07
-1.17809e-06
5.46647e-07
-5.67263e-07
-4.77506e-05
4.96563e-05
-9.66729e-07
-4.93179e-09
-1.6999e-08
4.96465e-05
4.69131e-05
-4.85743e-05
1.41392e-06
1.42813e-06
-6.68938e-07
-6.53514e-07
4.68901e-05
-4.85822e-05
1.46039e-06
-1.48864e-06
-4.4339e-08
1.72033e-08
-1.47493e-06
-4.56051e-08
2.48858e-08
-4.69391e-05
4.86095e-05
-1.39941e-06
6.99008e-07
6.93424e-07
4.86e-05
4.55768e-05
-4.55688e-05
2.29869e-06
2.31245e-06
-2.06629e-06
-2.053e-06
4.55546e-05
-4.55764e-05
2.11682e-06
-2.14025e-06
-1.34345e-06
1.3231e-06
-2.12813e-06
-1.33816e-06
1.32356e-06
-4.56022e-05
4.56048e-05
-2.27647e-06
2.1034e-06
2.0967e-06
4.55986e-05
4.17853e-05
-3.66798e-05
3.95146e-06
3.97252e-06
-6.79902e-06
-6.79361e-06
4.17741e-05
-3.66935e-05
3.47546e-06
-3.49226e-06
-5.2448e-06
5.247e-06
-3.48152e-06
-5.22771e-06
5.2518e-06
-4.18029e-05
3.67116e-05
-3.92996e-06