/*--------------------------------*- C++ -*----------------------------------*\
| =========                 |                                                 |
| \\      /  F ield         | OpenFOAM: The Open Source CFD Toolbox           |
|  \\    /   O peration     | Version:  2206                                  |
|   \\  /    A nd           | Website:  www.openfoam.com                      |
|    \\/     M anipulation  |                                                 |
\*---------------------------------------------------------------------------*/
FoamFile
{
    version     2.0;
    format      ascii;
    arch        "LSB;label=32;scalar=64";
    class       volScalarField;
    location    "3.5";
    object      epsilon;
}
// * * * * * * * * * * * * * * * * * * * * * * * * * * * * * * * * * * * * * //

dimensions      [0 2 -3 0 0 0 0];

internalField   nonuniform List<scalar> 
28755
(
4.90855e-07
4.95674e-07
4.95676e-07
5.32133e-07
4.90855e-07
4.95672e-07
4.95675e-07
5.32121e-07
4.90855e-07
4.95665e-07
4.95673e-07
5.32094e-07
4.90855e-07
4.95666e-07
4.95671e-07
5.32103e-07
4.90854e-07
4.95671e-07
4.95672e-07
5.32115e-07
4.90855e-07
4.95671e-07
4.95673e-07
5.32135e-07
4.90855e-07
4.95666e-07
4.95674e-07
5.32107e-07
4.90855e-07
4.95667e-07
4.9567e-07
5.32105e-07
4.90855e-07
4.95672e-07
4.95675e-07
5.32124e-07
4.90858e-07
4.95672e-07
4.95681e-07
5.32145e-07
4.9192e-07
4.9636e-07
4.96363e-07
5.34168e-07
7.61787e-07
7.69171e-07
7.69213e-07
6.97429e-07
5.32112e-07
4.9567e-07
4.95675e-07
5.32117e-07
4.95669e-07
4.95675e-07
4.95675e-07
4.95676e-07
5.32136e-07
4.95676e-07
4.95677e-07
5.32127e-07
5.32107e-07
5.32103e-07
4.95672e-07
4.95674e-07
4.95671e-07
4.95677e-07
5.32111e-07
5.32093e-07
4.95676e-07
4.95677e-07
4.9567e-07
4.95678e-07
4.95673e-07
4.95671e-07
4.95674e-07
5.32132e-07
5.32119e-07
4.95671e-07
4.95671e-07
4.95675e-07
5.32112e-07
5.32098e-07
5.32089e-07
4.95672e-07
4.95674e-07
4.95673e-07
4.95676e-07
5.32093e-07
5.32084e-07
4.95675e-07
4.95677e-07
4.95671e-07
4.95675e-07
4.95672e-07
4.95671e-07
4.95675e-07
5.32122e-07
5.32103e-07
4.9567e-07
4.95672e-07
4.95673e-07
5.32096e-07
5.32088e-07
5.32097e-07
4.95674e-07
4.95674e-07
4.95673e-07
4.95677e-07
5.321e-07
5.32089e-07
4.95672e-07
4.95679e-07
4.9567e-07
4.95674e-07
4.95674e-07
4.95672e-07
4.95675e-07
5.3211e-07
5.32112e-07
4.95671e-07
4.95672e-07
4.95673e-07
5.32103e-07
5.32104e-07
5.32113e-07
4.95671e-07
4.95672e-07
4.9567e-07
4.95674e-07
5.32104e-07
5.32103e-07
4.95672e-07
4.95674e-07
4.95669e-07
4.95675e-07
4.95675e-07
4.95673e-07
4.95671e-07
5.32126e-07
5.32133e-07
4.9567e-07
4.95673e-07
4.95675e-07
5.32115e-07
5.32102e-07
5.32114e-07
4.95673e-07
4.95674e-07
4.95671e-07
4.95677e-07
5.32103e-07
5.32105e-07
4.95674e-07
4.95675e-07
4.95669e-07
4.95675e-07
4.95671e-07
4.95673e-07
4.95675e-07
5.32134e-07
5.32131e-07
4.95672e-07
4.95675e-07
4.95672e-07
5.32125e-07
5.32106e-07
5.32105e-07
4.95673e-07
4.95675e-07
4.95671e-07
4.95674e-07
5.32105e-07
5.32105e-07
4.95675e-07
4.95675e-07
4.95671e-07
4.95676e-07
4.95674e-07
4.95673e-07
4.95678e-07
5.32141e-07
5.3212e-07
4.9567e-07
4.95675e-07
4.95674e-07
5.32113e-07
5.32101e-07
5.32107e-07
4.95675e-07
4.95675e-07
4.95671e-07
4.95674e-07
5.32115e-07
5.32094e-07
4.95673e-07
4.95678e-07
4.95671e-07
4.95674e-07
4.95676e-07
4.95673e-07
4.95676e-07
5.32132e-07
5.32113e-07
4.95672e-07
4.95674e-07
4.95671e-07
5.321e-07
5.32108e-07
5.3211e-07
4.95672e-07
4.95676e-07
4.9567e-07
4.95674e-07
5.32097e-07
5.32104e-07
4.95669e-07
4.95675e-07
4.95671e-07
4.95673e-07
4.95674e-07
4.95674e-07
4.9567e-07
5.3213e-07
5.32119e-07
4.9567e-07
4.95677e-07
4.95675e-07
5.32118e-07
5.32109e-07
5.32107e-07
4.95672e-07
4.95673e-07
4.95674e-07
4.95673e-07
5.32099e-07
5.32101e-07
4.95672e-07
4.95676e-07
4.9567e-07
4.95678e-07
4.95671e-07
4.95671e-07
4.95678e-07
5.3212e-07
5.32119e-07
4.95669e-07
4.95675e-07
4.95674e-07
5.32121e-07
5.32142e-07
5.32376e-07
4.95675e-07
4.95678e-07
4.95814e-07
4.95812e-07
5.32117e-07
5.3237e-07
4.95675e-07
4.95683e-07
4.95808e-07
4.95818e-07
4.95681e-07
4.95808e-07
4.95818e-07
5.32141e-07
5.3238e-07
4.95672e-07
4.95812e-07
4.95807e-07
5.3238e-07
5.34164e-07
6.36395e-07
4.96362e-07
4.96364e-07
6.32926e-07
6.32898e-07
5.34158e-07
6.36398e-07
4.96362e-07
4.96368e-07
6.32928e-07
6.32903e-07
4.96368e-07
6.32934e-07
6.32911e-07
5.34171e-07
6.36425e-07
4.96363e-07
6.3294e-07
6.32898e-07
6.36414e-07
6.9741e-07
7.69199e-07
7.6921e-07
6.97425e-07
7.69172e-07
7.69251e-07
7.61739e-07
7.61793e-07
7.6181e-07
7.69181e-07
6.97484e-07
7.69164e-07
3.36627e-06
4.90854e-07
4.90855e-07
4.90855e-07
4.90855e-07
5.58048e-07
4.95686e-07
8.09086e-07
4.91127e-07
5.3213e-07
9.87119e-07
9.87171e-07
8.02297e-07
2.39094e-06
7.5812e-07
2.36452e-06
3.40613e-06
3.36627e-06
8.02243e-07
2.39111e-06
7.58145e-07
2.36468e-06
4.90855e-07
4.90855e-07
4.90855e-07
4.90855e-07
4.90856e-07
4.90855e-07
4.90855e-07
5.5805e-07
7.40483e-07
4.91108e-07
4.95673e-07
5.48082e-07
8.09162e-07
4.91109e-07
3.4062e-06
3.36641e-06
5.58057e-07
4.91109e-07
7.4051e-07
4.95671e-07
5.48083e-07
4.91109e-07
8.09222e-07
9.48488e-07
9.4858e-07
5.32115e-07
9.87175e-07
9.87238e-07
8.02371e-07
2.39097e-06
7.58128e-07
2.36453e-06
3.40625e-06
3.36631e-06
8.02395e-07
2.39117e-06
7.58122e-07
2.36469e-06
4.90855e-07
4.90856e-07
4.90855e-07
4.90855e-07
4.90855e-07
4.90855e-07
4.90856e-07
5.58042e-07
7.40474e-07
4.91108e-07
4.95671e-07
5.48057e-07
8.09222e-07
4.91109e-07
3.40634e-06
3.36647e-06
5.5805e-07
4.91109e-07
7.40509e-07
4.9567e-07
5.48071e-07
4.91109e-07
8.09258e-07
9.48508e-07
9.48589e-07
5.3211e-07
9.87331e-07
9.87348e-07
8.02383e-07
2.391e-06
7.58125e-07
2.36454e-06
3.40624e-06
3.36636e-06
8.02571e-07
2.39119e-06
7.5816e-07
2.36463e-06
4.90855e-07
4.90856e-07
4.90855e-07
4.90855e-07
4.90855e-07
4.90855e-07
4.90855e-07
5.58042e-07
7.40474e-07
4.91108e-07
4.9567e-07
5.4807e-07
8.09231e-07
4.91108e-07
3.40647e-06
3.36646e-06
5.58046e-07
4.91109e-07
7.40495e-07
4.95669e-07
5.48065e-07
4.91109e-07
8.09299e-07
9.48481e-07
9.48556e-07
5.32103e-07
9.87304e-07
9.87343e-07
8.02462e-07
2.391e-06
7.58124e-07
2.36452e-06
3.40624e-06
3.36632e-06
8.02334e-07
2.39115e-06
7.58157e-07
2.36467e-06
4.90855e-07
4.90854e-07
4.90855e-07
4.90854e-07
4.90854e-07
4.90855e-07
4.90854e-07
5.58038e-07
7.40487e-07
4.91108e-07
4.95671e-07
5.48068e-07
8.09183e-07
4.91108e-07
3.40624e-06
3.36644e-06
5.58056e-07
4.91108e-07
7.4052e-07
4.95669e-07
5.48079e-07
4.91108e-07
8.09222e-07
9.48516e-07
9.48582e-07
5.32107e-07
9.87332e-07
9.87315e-07
8.0226e-07
2.39092e-06
7.58145e-07
2.36452e-06
3.40611e-06
3.36629e-06
8.02377e-07
2.39114e-06
7.5814e-07
2.36465e-06
4.90854e-07
4.90855e-07
4.90854e-07
4.90854e-07
4.90855e-07
4.90855e-07
4.90855e-07
5.5805e-07
7.40484e-07
4.91108e-07
4.95672e-07
5.48082e-07
8.09158e-07
4.91108e-07
3.40626e-06
3.36642e-06
5.58049e-07
4.91108e-07
7.40511e-07
4.9567e-07
5.48101e-07
4.91108e-07
8.09191e-07
9.48511e-07
9.4859e-07
5.32122e-07
9.87188e-07
9.87173e-07
8.02334e-07
2.39096e-06
7.58114e-07
2.36453e-06
3.40616e-06
3.3663e-06
8.02282e-07
2.39114e-06
7.58141e-07
2.36469e-06
4.90855e-07
4.90854e-07
4.90854e-07
4.90855e-07
4.90855e-07
4.90856e-07
4.90856e-07
5.58049e-07
7.4049e-07
4.91108e-07
4.95675e-07
5.48086e-07
8.09152e-07
4.91109e-07
3.40619e-06
3.36641e-06
5.58055e-07
4.91108e-07
7.40518e-07
4.95671e-07
5.48089e-07
4.91108e-07
8.09192e-07
9.48519e-07
9.48597e-07
5.32123e-07
9.87122e-07
9.8718e-07
8.02372e-07
2.39096e-06
7.58127e-07
2.36453e-06
3.40618e-06
3.36631e-06
8.02404e-07
2.39117e-06
7.5813e-07
2.36467e-06
4.90855e-07
4.90856e-07
4.90855e-07
4.90855e-07
4.90855e-07
4.90855e-07
4.90855e-07
5.58042e-07
7.40489e-07
4.91108e-07
4.95673e-07
5.48063e-07
8.09207e-07
4.91109e-07
3.40635e-06
3.36647e-06
5.58053e-07
4.91109e-07
7.40504e-07
4.9567e-07
5.48068e-07
4.91109e-07
8.09281e-07
9.48493e-07
9.48581e-07
5.32106e-07
9.87301e-07
9.87325e-07
8.02404e-07
2.39097e-06
7.58122e-07
2.36452e-06
3.4062e-06
3.36632e-06
8.02444e-07
2.39116e-06
7.58153e-07
2.36465e-06
4.90855e-07
4.90855e-07
4.90855e-07
4.90855e-07
4.90855e-07
4.90855e-07
4.90855e-07
5.58048e-07
7.40485e-07
4.91108e-07
4.95673e-07
5.48069e-07
8.0922e-07
4.91108e-07
3.4063e-06
3.36644e-06
5.5805e-07
4.91108e-07
7.40518e-07
4.95669e-07
5.48077e-07
4.91108e-07
8.09232e-07
9.48513e-07
9.48589e-07
5.32109e-07
9.87311e-07
9.87312e-07
8.02305e-07
2.39095e-06
7.58129e-07
2.36454e-06
3.40613e-06
3.36635e-06
8.02372e-07
2.39115e-06
7.5814e-07
2.36466e-06
4.90855e-07
4.90855e-07
4.90854e-07
4.90857e-07
4.90857e-07
4.90857e-07
4.90857e-07
5.58046e-07
7.40477e-07
4.91108e-07
4.95672e-07
5.48072e-07
8.09199e-07
4.91108e-07
3.40628e-06
3.36646e-06
5.58061e-07
4.91108e-07
7.40504e-07
4.95671e-07
5.48085e-07
4.91108e-07
8.09257e-07
9.48517e-07
9.48582e-07
5.32115e-07
9.87258e-07
9.87302e-07
8.02727e-07
2.39117e-06
7.58089e-07
2.36475e-06
3.40635e-06
3.36731e-06
8.02692e-07
2.39134e-06
7.581e-07
2.36489e-06
4.90857e-07
4.90858e-07
4.90858e-07
4.91041e-07
4.91041e-07
4.91042e-07
4.91042e-07
5.58062e-07
7.40423e-07
4.9111e-07
4.95683e-07
5.48069e-07
8.09518e-07
4.91111e-07
3.40642e-06
3.36742e-06
5.58067e-07
4.9111e-07
7.40453e-07
4.95685e-07
5.48077e-07
4.91112e-07
8.09536e-07
9.48372e-07
9.48451e-07
5.32133e-07
9.87712e-07
9.8771e-07
8.05942e-07
2.39299e-06
7.58118e-07
2.36889e-06
3.41084e-06
3.3923e-06
8.05955e-07
2.39322e-06
7.58165e-07
2.36899e-06
4.91926e-07
4.91918e-07
4.9192e-07
5.97688e-07
5.9769e-07
5.97705e-07
5.97649e-07
5.5791e-07
7.40649e-07
4.91982e-07
4.98646e-07
5.48174e-07
8.13618e-07
4.94207e-07
3.41103e-06
3.39243e-06
5.57804e-07
4.91993e-07
7.40674e-07
4.98662e-07
5.4828e-07
4.9422e-07
8.13602e-07
9.4812e-07
9.48196e-07
5.36856e-07
9.92391e-07
9.92404e-07
6.78731e-06
7.53448e-06
9.222e-07
5.66129e-06
5.69799e-06
5.98348e-06
6.78564e-06
7.53649e-06
9.21999e-07
5.6548e-06
8.06711e-07
6.36364e-07
6.36367e-07
1.11834e-06
5.72704e-07
8.12196e-07
8.1219e-07
4.69638e-06
1.45329e-06
7.45532e-07
1.979e-06
6.52929e-07
7.00074e-06
8.55055e-07
5.69754e-06
5.98827e-06
4.6963e-06
7.45582e-07
1.4532e-06
1.97926e-06
6.52946e-07
8.55038e-07
7.00779e-06
1.81696e-06
1.81611e-06
2.94697e-06
6.29799e-06
6.29879e-06
3.36618e-06
3.40606e-06
3.3663e-06
3.40616e-06
5.32107e-07
9.87142e-07
9.8715e-07
9.48485e-07
9.48569e-07
2.36454e-06
4.95689e-07
8.0921e-07
7.58131e-07
2.36451e-06
2.39092e-06
8.02251e-07
7.58134e-07
2.36453e-06
2.39099e-06
8.02265e-07
5.4809e-07
4.95676e-07
8.0919e-07
4.91108e-07
7.4051e-07
4.91108e-07
5.58045e-07
5.4809e-07
4.95678e-07
8.09214e-07
4.91108e-07
7.40556e-07
4.91108e-07
5.58046e-07
5.32124e-07
9.87103e-07
9.87028e-07
3.36619e-06
3.36626e-06
3.40605e-06
5.32119e-07
9.87084e-07
9.87021e-07
9.48578e-07
9.48462e-07
3.36618e-06
3.40593e-06
7.58149e-07
2.36465e-06
2.3911e-06
8.02302e-07
5.48094e-07
4.95674e-07
8.09236e-07
4.91108e-07
7.40554e-07
4.91108e-07
5.58058e-07
7.58153e-07
2.36476e-06
2.39121e-06
8.02307e-07
5.48098e-07
4.95679e-07
4.91108e-07
8.09277e-07
4.91108e-07
7.40601e-07
5.5806e-07
8.02277e-07
2.36456e-06
5.58049e-07
4.95676e-07
4.91128e-07
8.0917e-07
8.02266e-07
2.36466e-06
5.481e-07
4.95668e-07
8.09106e-07
4.91109e-07
7.40493e-07
4.91108e-07
5.5805e-07
7.58138e-07
2.36456e-06
2.39094e-06
8.02204e-07
5.48101e-07
4.9568e-07
4.91109e-07
8.09186e-07
4.91109e-07
7.40532e-07
5.58051e-07
7.58137e-07
2.36466e-06
2.39106e-06
8.02215e-07
3.3664e-06
3.40618e-06
5.32133e-07
9.87214e-07
9.87176e-07
9.48652e-07
9.48528e-07
3.3663e-06
3.40603e-06
5.48092e-07
4.95672e-07
4.91109e-07
8.09171e-07
4.91108e-07
7.4053e-07
5.58057e-07
5.48091e-07
4.9567e-07
4.91109e-07
8.09277e-07
4.91108e-07
7.40569e-07
5.58058e-07
7.58135e-07
2.3647e-06
2.39109e-06
8.02241e-07
7.58133e-07
2.36471e-06
2.39113e-06
8.02248e-07
3.36625e-06
3.36637e-06
5.32126e-07
9.87094e-07
9.87191e-07
9.48512e-07
9.48591e-07
3.36625e-06
3.40607e-06
3.36637e-06
3.40614e-06
3.40607e-06
3.36622e-06
3.40616e-06
3.36636e-06
9.48485e-07
9.48563e-07
5.32115e-07
9.87186e-07
9.87219e-07
3.36623e-06
3.40611e-06
3.36638e-06
3.4062e-06
5.32104e-07
9.8724e-07
9.87316e-07
9.48492e-07
9.48582e-07
8.0231e-07
2.391e-06
7.58121e-07
2.36453e-06
5.58047e-07
7.40508e-07
4.91108e-07
4.95671e-07
5.48081e-07
8.09216e-07
4.91108e-07
5.58047e-07
7.40545e-07
4.91108e-07
4.95676e-07
5.48081e-07
8.09274e-07
4.91109e-07
7.5812e-07
2.36452e-06
2.39095e-06
8.02368e-07
7.58122e-07
2.36455e-06
2.39101e-06
8.02365e-07
5.48071e-07
4.95676e-07
8.09227e-07
4.91108e-07
7.40503e-07
4.91108e-07
5.58042e-07
5.48071e-07
4.95673e-07
8.09294e-07
4.91109e-07
7.40545e-07
4.91108e-07
5.58043e-07
9.48552e-07
9.48445e-07
5.32114e-07
9.87142e-07
9.87088e-07
3.406e-06
3.36621e-06
3.3663e-06
3.40621e-06
5.32115e-07
9.87231e-07
9.87212e-07
9.4855e-07
9.48445e-07
3.36624e-06
3.4061e-06
5.58051e-07
7.40546e-07
4.91109e-07
4.9567e-07
5.48092e-07
8.09262e-07
4.91108e-07
8.02256e-07
2.39121e-06
7.58148e-07
2.36477e-06
5.58053e-07
4.91108e-07
7.40592e-07
4.95677e-07
5.48096e-07
4.91109e-07
8.09303e-07
7.5812e-07
2.36469e-06
2.39115e-06
8.02306e-07
5.4807e-07
4.95674e-07
8.0931e-07
4.91108e-07
7.40549e-07
4.91109e-07
5.58048e-07
7.58124e-07
2.36479e-06
2.39122e-06
8.02283e-07
5.48074e-07
4.9568e-07
4.91109e-07
8.09308e-07
4.91109e-07
7.4059e-07
5.58046e-07
8.02255e-07
2.39097e-06
7.58116e-07
2.36456e-06
5.58052e-07
4.91109e-07
7.40522e-07
4.95675e-07
5.48086e-07
4.91109e-07
8.09238e-07
8.02261e-07
2.39107e-06
7.5812e-07
2.36467e-06
5.48064e-07
4.9567e-07
8.092e-07
4.91108e-07
7.40478e-07
4.91109e-07
5.58041e-07
7.58112e-07
2.36457e-06
2.39099e-06
8.02352e-07
5.48067e-07
4.95678e-07
4.91109e-07
8.09262e-07
4.91109e-07
7.40519e-07
5.58042e-07
7.58114e-07
2.36468e-06
2.3911e-06
8.02361e-07
9.4864e-07
9.48498e-07
5.32132e-07
9.87229e-07
9.87211e-07
3.4061e-06
3.36631e-06
3.36646e-06
3.40624e-06
5.32122e-07
9.87293e-07
9.87277e-07
9.48638e-07
9.48495e-07
3.36631e-06
3.40618e-06
5.58058e-07
4.91109e-07
7.40561e-07
4.95673e-07
5.48083e-07
4.91109e-07
8.09313e-07
8.02283e-07
2.3911e-06
7.5813e-07
2.36469e-06
8.02299e-07
2.39114e-06
7.5813e-07
2.3647e-06
5.48071e-07
4.95672e-07
4.91108e-07
8.09251e-07
4.91109e-07
7.4051e-07
5.58051e-07
5.4807e-07
4.95669e-07
4.91109e-07
8.09334e-07
4.91109e-07
7.40556e-07
5.58048e-07
7.58129e-07
2.36468e-06
2.39112e-06
8.02376e-07
7.58129e-07
2.3647e-06
2.39117e-06
8.02381e-07
3.40614e-06
3.36629e-06
3.4062e-06
3.36639e-06
5.32111e-07
9.87286e-07
9.87322e-07
9.48493e-07
9.48572e-07
3.36633e-06
3.40621e-06
3.3664e-06
3.40629e-06
3.40614e-06
3.36624e-06
3.40622e-06
3.3664e-06
9.48492e-07
9.48587e-07
5.32104e-07
9.87262e-07
9.87313e-07
3.36627e-06
3.40615e-06
3.36637e-06
3.40633e-06
5.32096e-07
9.87304e-07
9.87345e-07
9.48491e-07
9.48566e-07
8.02377e-07
2.39105e-06
7.58124e-07
2.36455e-06
5.58037e-07
7.40503e-07
4.91108e-07
4.95671e-07
5.48068e-07
8.09239e-07
4.91108e-07
5.58038e-07
7.4054e-07
4.91108e-07
4.95673e-07
5.48066e-07
8.09336e-07
4.91108e-07
7.58125e-07
2.36454e-06
2.39097e-06
8.02393e-07
7.58124e-07
2.36454e-06
2.39103e-06
8.02421e-07
5.48061e-07
4.95673e-07
8.09229e-07
4.91109e-07
7.40499e-07
4.91108e-07
5.58034e-07
5.4806e-07
4.95676e-07
8.09292e-07
4.91108e-07
7.40549e-07
4.91109e-07
5.58035e-07
9.48557e-07
9.48452e-07
5.3209e-07
9.87311e-07
9.87225e-07
3.40614e-06
3.36624e-06
3.36633e-06
3.40622e-06
5.32091e-07
9.87262e-07
9.87222e-07
9.48574e-07
9.48443e-07
3.36622e-06
3.40619e-06
5.58048e-07
7.40549e-07
4.91109e-07
4.95668e-07
5.48058e-07
8.09313e-07
4.91108e-07
8.02408e-07
2.39128e-06
7.58118e-07
2.36478e-06
5.58051e-07
4.91109e-07
7.40574e-07
4.95677e-07
5.48058e-07
4.91109e-07
8.09397e-07
7.58131e-07
2.36465e-06
2.3912e-06
8.02563e-07
5.48049e-07
4.9567e-07
8.09344e-07
4.91109e-07
7.40536e-07
4.91109e-07
5.58054e-07
7.58133e-07
2.36475e-06
2.39128e-06
8.02577e-07
5.48052e-07
4.95675e-07
4.91109e-07
8.09408e-07
4.91109e-07
7.4058e-07
5.58055e-07
8.02418e-07
2.39102e-06
7.58121e-07
2.36455e-06
5.58044e-07
4.91108e-07
7.40518e-07
4.95672e-07
5.48061e-07
4.91108e-07
8.09302e-07
8.02414e-07
2.39113e-06
7.58123e-07
2.36467e-06
5.48053e-07
4.95668e-07
8.09225e-07
4.91108e-07
7.40475e-07
4.91108e-07
5.58049e-07
7.58128e-07
2.36453e-06
2.39102e-06
8.02557e-07
5.48055e-07
4.95672e-07
4.91109e-07
8.09275e-07
4.91109e-07
7.40519e-07
5.58049e-07
7.58129e-07
2.36464e-06
2.39112e-06
8.02553e-07
9.48632e-07
9.48499e-07
5.32119e-07
9.87392e-07
9.87272e-07
3.40621e-06
3.36631e-06
3.36646e-06
3.40642e-06
5.32117e-07
9.87394e-07
9.87319e-07
9.48627e-07
9.4848e-07
3.36634e-06
3.40628e-06
5.5805e-07
4.91109e-07
7.4056e-07
4.95671e-07
5.48068e-07
4.91109e-07
8.09355e-07
8.02393e-07
2.39112e-06
7.58138e-07
2.36467e-06
8.0239e-07
2.39119e-06
7.58135e-07
2.36469e-06
5.48058e-07
4.95677e-07
4.91109e-07
8.09278e-07
4.91109e-07
7.40498e-07
5.58053e-07
5.48058e-07
4.95674e-07
4.91109e-07
8.0933e-07
4.91109e-07
7.40559e-07
5.58054e-07
7.5813e-07
2.36467e-06
2.39114e-06
8.02506e-07
7.58131e-07
2.36466e-06
2.39118e-06
8.02523e-07
3.40625e-06
3.36633e-06
3.4063e-06
3.3664e-06
5.32106e-07
9.87262e-07
9.87283e-07
9.48501e-07
9.4858e-07
3.36631e-06
3.40627e-06
3.3664e-06
3.40631e-06
3.40618e-06
3.36629e-06
3.40635e-06
3.36635e-06
9.48494e-07
9.48562e-07
5.32092e-07
9.87363e-07
9.87342e-07
3.36629e-06
3.40614e-06
3.36635e-06
3.40627e-06
5.32089e-07
9.87353e-07
9.87288e-07
9.48517e-07
9.48579e-07
8.02378e-07
2.39105e-06
7.58128e-07
2.36456e-06
5.58033e-07
7.40497e-07
4.91108e-07
4.95671e-07
5.48059e-07
8.09264e-07
4.91108e-07
5.58034e-07
7.40541e-07
4.91108e-07
4.95676e-07
5.4806e-07
8.09315e-07
4.91109e-07
7.5812e-07
2.36454e-06
2.39099e-06
8.02402e-07
7.58117e-07
2.36456e-06
2.39106e-06
8.02418e-07
5.48053e-07
4.95674e-07
8.09256e-07
4.91108e-07
7.40513e-07
4.91108e-07
5.58035e-07
5.4805e-07
4.95677e-07
8.09335e-07
4.91108e-07
7.40548e-07
4.91109e-07
5.58036e-07
9.48563e-07
9.48445e-07
5.32089e-07
9.87315e-07
9.87241e-07
3.40619e-06
3.36621e-06
3.36635e-06
3.40624e-06
5.32085e-07
9.87362e-07
9.87219e-07
9.48578e-07
9.48461e-07
3.36621e-06
3.40613e-06
5.58051e-07
7.40538e-07
4.91108e-07
4.95668e-07
5.48064e-07
8.09342e-07
4.91108e-07
8.0257e-07
2.39129e-06
7.58163e-07
2.36474e-06
5.58052e-07
4.91109e-07
7.40574e-07
4.95675e-07
5.48067e-07
4.91109e-07
8.09417e-07
7.58167e-07
2.36465e-06
2.39115e-06
8.02455e-07
5.48076e-07
4.9567e-07
8.0929e-07
4.91108e-07
7.40552e-07
4.91109e-07
5.58049e-07
7.58166e-07
2.36476e-06
2.39126e-06
8.02454e-07
5.48077e-07
4.95675e-07
4.91108e-07
8.09364e-07
4.91108e-07
7.40595e-07
5.5805e-07
8.02473e-07
2.39102e-06
7.58155e-07
2.36453e-06
5.5804e-07
4.91109e-07
7.40511e-07
4.95676e-07
5.48072e-07
4.91109e-07
8.09275e-07
8.02446e-07
2.39111e-06
7.58155e-07
2.36466e-06
5.48068e-07
4.9567e-07
8.09218e-07
4.91108e-07
7.40487e-07
4.91108e-07
5.5804e-07
7.58142e-07
2.36454e-06
2.39101e-06
8.02431e-07
5.48065e-07
4.95672e-07
4.91109e-07
8.09274e-07
4.91109e-07
7.40515e-07
5.58039e-07
7.58137e-07
2.36466e-06
2.39113e-06
8.02429e-07
9.48614e-07
9.4848e-07
5.32107e-07
9.87434e-07
9.87395e-07
3.40633e-06
3.36634e-06
3.36645e-06
3.40637e-06
5.32112e-07
9.87432e-07
9.87348e-07
9.48651e-07
9.48511e-07
3.36631e-06
3.40627e-06
5.58047e-07
4.91109e-07
7.40546e-07
4.95673e-07
5.48067e-07
4.91109e-07
8.09356e-07
8.02501e-07
2.39116e-06
7.58152e-07
2.36466e-06
8.02501e-07
2.39119e-06
7.58156e-07
2.36466e-06
5.48066e-07
4.95673e-07
4.91108e-07
8.09276e-07
4.91109e-07
7.40513e-07
5.58049e-07
5.48063e-07
4.95674e-07
4.91109e-07
8.09349e-07
4.91109e-07
7.40554e-07
5.58046e-07
7.58153e-07
2.36466e-06
2.39116e-06
8.02507e-07
7.58149e-07
2.36467e-06
2.3912e-06
8.02501e-07
3.40632e-06
3.36633e-06
3.4064e-06
3.36641e-06
5.32105e-07
9.87328e-07
9.87359e-07
9.48504e-07
9.48576e-07
3.36634e-06
3.40628e-06
3.3664e-06
3.40638e-06
3.40613e-06
3.36625e-06
3.40623e-06
3.36635e-06
9.4852e-07
9.48584e-07
5.32106e-07
9.87313e-07
9.87287e-07
3.3662e-06
3.40608e-06
3.36635e-06
3.40616e-06
5.32102e-07
9.87178e-07
9.8721e-07
9.48514e-07
9.48593e-07
8.02466e-07
2.39106e-06
7.58125e-07
2.36454e-06
5.58043e-07
7.40512e-07
4.91108e-07
4.95671e-07
5.48054e-07
8.09254e-07
4.91108e-07
5.58042e-07
7.40552e-07
4.91108e-07
4.95676e-07
5.48054e-07
8.09321e-07
4.91108e-07
7.58146e-07
2.3645e-06
2.39096e-06
8.02415e-07
7.58144e-07
2.36452e-06
2.39103e-06
8.02428e-07
5.48075e-07
4.95673e-07
8.09188e-07
4.91108e-07
7.40517e-07
4.91108e-07
5.58044e-07
5.48072e-07
4.95676e-07
8.09258e-07
4.91108e-07
7.40558e-07
4.91108e-07
5.58046e-07
9.48583e-07
9.48462e-07
5.32092e-07
9.87321e-07
9.87217e-07
3.4061e-06
3.36622e-06
3.36628e-06
3.40617e-06
5.32088e-07
9.87216e-07
9.8713e-07
9.48585e-07
9.48473e-07
3.36622e-06
3.40605e-06
5.58047e-07
7.40554e-07
4.91108e-07
4.95669e-07
5.48082e-07
8.09282e-07
4.91108e-07
8.02325e-07
2.39124e-06
7.58157e-07
2.36477e-06
5.58048e-07
4.91108e-07
7.40606e-07
4.95675e-07
5.48083e-07
4.91108e-07
8.093e-07
7.58135e-07
2.36466e-06
2.39114e-06
8.02339e-07
5.48073e-07
4.95671e-07
8.09244e-07
4.91108e-07
7.40558e-07
4.91108e-07
5.5805e-07
7.58135e-07
2.36476e-06
2.39124e-06
8.02341e-07
5.48075e-07
4.95676e-07
4.91108e-07
8.09297e-07
4.91108e-07
7.40593e-07
5.58052e-07
8.02391e-07
2.391e-06
7.58136e-07
2.36455e-06
5.58039e-07
4.91108e-07
7.40524e-07
4.95675e-07
5.48068e-07
4.91108e-07
8.09259e-07
8.02394e-07
2.39113e-06
7.58135e-07
2.36467e-06
5.48069e-07
4.95669e-07
8.09147e-07
4.91108e-07
7.40485e-07
4.91108e-07
5.58045e-07
7.58132e-07
2.36455e-06
2.391e-06
8.0239e-07
5.48071e-07
4.9567e-07
4.91108e-07
8.0921e-07
4.91108e-07
7.40535e-07
5.58047e-07
7.58135e-07
2.36465e-06
2.39112e-06
8.0241e-07
9.48673e-07
9.48514e-07
5.32122e-07
9.87299e-07
9.87238e-07
3.40619e-06
3.36628e-06
3.36643e-06
3.40623e-06
5.32127e-07
9.87248e-07
9.8713e-07
9.48649e-07
9.48502e-07
3.36625e-06
3.40615e-06
5.58053e-07
4.91108e-07
7.40558e-07
4.95671e-07
5.48074e-07
4.91108e-07
8.09319e-07
8.0246e-07
2.39112e-06
7.5816e-07
2.36465e-06
8.02476e-07
2.39119e-06
7.58156e-07
2.36465e-06
5.48091e-07
4.95674e-07
4.91108e-07
8.09188e-07
4.91108e-07
7.40514e-07
5.5806e-07
5.48089e-07
4.95673e-07
4.91108e-07
8.0927e-07
4.91108e-07
7.40569e-07
5.58061e-07
7.58163e-07
2.36464e-06
2.39109e-06
8.02404e-07
7.58164e-07
2.36464e-06
2.39116e-06
8.02431e-07
3.40624e-06
3.36634e-06
3.40634e-06
3.36637e-06
5.3211e-07
9.87209e-07
9.87209e-07
9.48534e-07
9.48589e-07
3.3663e-06
3.40615e-06
3.36634e-06
3.40625e-06
3.40604e-06
3.36621e-06
3.40618e-06
3.36633e-06
9.48493e-07
9.48571e-07
5.32115e-07
9.87151e-07
9.87193e-07
3.36624e-06
3.40603e-06
3.36634e-06
3.40616e-06
5.32103e-07
9.87175e-07
9.87212e-07
9.48498e-07
9.48576e-07
8.02269e-07
2.391e-06
7.58144e-07
2.36454e-06
5.58041e-07
7.4051e-07
4.91108e-07
4.95671e-07
5.48089e-07
8.09169e-07
4.91108e-07
5.58042e-07
7.40557e-07
4.91108e-07
4.95675e-07
5.48088e-07
8.0923e-07
4.91108e-07
7.58121e-07
2.36454e-06
2.39093e-06
8.02237e-07
7.5812e-07
2.36456e-06
2.39101e-06
8.0225e-07
5.48081e-07
4.95678e-07
8.09176e-07
4.91108e-07
7.40508e-07
4.91108e-07
5.58041e-07
5.48079e-07
4.95677e-07
8.09217e-07
4.91108e-07
7.40553e-07
4.91108e-07
5.58042e-07
9.48579e-07
9.48454e-07
5.32114e-07
9.87166e-07
9.871e-07
3.40606e-06
3.36619e-06
3.36632e-06
3.40609e-06
5.32108e-07
9.87167e-07
9.8713e-07
9.48576e-07
9.48455e-07
3.3662e-06
3.40603e-06
5.58056e-07
7.40548e-07
4.91108e-07
4.95669e-07
5.48077e-07
8.09254e-07
4.91108e-07
8.02374e-07
2.39124e-06
7.58139e-07
2.36475e-06
5.58058e-07
4.91108e-07
7.40589e-07
4.95674e-07
5.48078e-07
4.91108e-07
8.09319e-07
7.58152e-07
2.36467e-06
2.39113e-06
8.02313e-07
5.48088e-07
4.95673e-07
8.09244e-07
4.91108e-07
7.40552e-07
4.91108e-07
5.58054e-07
7.58152e-07
2.36476e-06
2.39122e-06
8.02333e-07
5.48089e-07
4.9568e-07
4.91108e-07
8.09287e-07
4.91109e-07
7.40594e-07
5.58055e-07
8.02364e-07
2.39099e-06
7.58142e-07
2.36454e-06
5.5805e-07
4.91108e-07
7.4053e-07
4.95675e-07
5.48085e-07
4.91108e-07
8.09197e-07
8.02361e-07
2.3911e-06
7.58145e-07
2.36465e-06
5.48094e-07
4.95667e-07
8.09141e-07
4.91108e-07
7.4049e-07
4.91108e-07
5.58049e-07
7.58144e-07
2.36456e-06
2.39096e-06
8.02269e-07
5.48094e-07
4.95677e-07
4.91108e-07
8.09173e-07
4.91108e-07
7.4053e-07
5.58049e-07
7.58144e-07
2.36466e-06
2.39108e-06
8.02267e-07
9.48632e-07
9.48482e-07
5.32131e-07
9.87267e-07
9.87164e-07
3.40615e-06
3.36626e-06
3.36642e-06
3.40624e-06
5.32127e-07
9.87268e-07
9.87181e-07
9.48646e-07
9.48503e-07
3.36629e-06
3.40608e-06
5.58048e-07
4.91108e-07
7.40571e-07
4.95672e-07
5.48102e-07
4.91108e-07
8.09225e-07
8.02246e-07
2.39107e-06
7.58158e-07
2.36466e-06
8.02261e-07
2.39113e-06
7.58162e-07
2.36467e-06
5.48096e-07
4.95673e-07
4.91108e-07
8.09164e-07
4.91108e-07
7.40519e-07
5.58053e-07
5.48095e-07
4.95669e-07
4.91108e-07
8.09229e-07
4.91108e-07
7.4057e-07
5.58052e-07
7.58138e-07
2.36469e-06
2.39107e-06
8.02208e-07
7.58139e-07
2.36469e-06
2.39113e-06
8.02213e-07
3.40614e-06
3.36629e-06
3.40618e-06
3.36635e-06
5.32121e-07
9.87144e-07
9.87168e-07
9.4852e-07
9.48596e-07
3.36628e-06
3.40608e-06
3.36636e-06
3.40613e-06
3.40608e-06
3.36624e-06
3.40615e-06
3.36636e-06
9.48495e-07
9.48584e-07
5.32113e-07
9.87217e-07
9.8723e-07
3.36622e-06
3.40609e-06
3.36636e-06
3.40617e-06
5.32107e-07
9.87215e-07
9.87262e-07
9.48499e-07
9.48585e-07
8.02354e-07
2.39105e-06
7.58112e-07
2.36454e-06
5.58046e-07
7.40504e-07
4.91108e-07
4.95671e-07
5.4807e-07
8.09209e-07
4.91108e-07
5.58047e-07
7.40542e-07
4.91108e-07
4.95676e-07
5.48069e-07
8.09292e-07
4.91108e-07
7.58126e-07
2.36453e-06
2.39095e-06
8.02347e-07
7.58129e-07
2.36454e-06
2.39102e-06
8.02364e-07
5.48073e-07
4.95673e-07
8.09214e-07
4.91108e-07
7.40506e-07
4.91108e-07
5.58046e-07
5.48074e-07
4.95677e-07
8.09284e-07
4.91108e-07
7.40553e-07
4.91108e-07
5.58048e-07
9.48569e-07
9.48468e-07
5.32107e-07
9.87226e-07
9.87132e-07
3.40599e-06
3.36623e-06
3.3663e-06
3.40616e-06
5.32107e-07
9.87232e-07
9.87166e-07
9.48573e-07
9.48467e-07
3.36623e-06
3.40604e-06
5.58054e-07
7.40552e-07
4.91108e-07
4.95669e-07
5.48086e-07
8.09254e-07
4.91108e-07
8.02279e-07
2.39122e-06
7.58144e-07
2.36477e-06
5.58055e-07
4.91108e-07
7.40598e-07
4.95678e-07
5.4809e-07
4.91109e-07
8.09303e-07
7.58126e-07
2.36468e-06
2.39116e-06
8.02308e-07
5.48075e-07
4.95671e-07
8.09288e-07
4.91108e-07
7.4055e-07
4.91108e-07
5.58053e-07
7.58128e-07
2.36478e-06
2.39122e-06
8.02293e-07
5.48079e-07
4.95682e-07
4.91109e-07
8.09325e-07
4.91109e-07
7.40586e-07
5.58053e-07
8.02255e-07
2.39098e-06
7.58126e-07
2.36458e-06
5.5805e-07
4.91108e-07
7.40534e-07
4.95681e-07
5.48089e-07
4.91109e-07
8.0919e-07
8.02235e-07
2.39107e-06
7.58126e-07
2.36468e-06
5.48075e-07
4.9567e-07
8.09184e-07
4.91109e-07
7.40492e-07
4.91108e-07
5.58047e-07
7.58118e-07
2.36458e-06
2.39099e-06
8.02285e-07
5.48076e-07
4.95673e-07
4.91109e-07
8.09236e-07
4.91108e-07
7.40515e-07
5.58047e-07
7.58115e-07
2.36468e-06
2.39109e-06
8.02282e-07
9.48659e-07
9.48513e-07
5.32134e-07
9.87244e-07
9.87181e-07
3.40604e-06
3.36631e-06
3.36645e-06
3.40622e-06
5.32121e-07
9.87276e-07
9.87225e-07
9.48638e-07
9.48502e-07
3.36633e-06
3.40611e-06
5.58053e-07
4.91108e-07
7.40571e-07
4.95675e-07
5.48088e-07
4.91109e-07
8.09263e-07
8.02222e-07
2.39109e-06
7.58127e-07
2.3647e-06
8.02205e-07
2.39113e-06
7.58126e-07
2.36471e-06
5.48076e-07
4.95678e-07
4.91109e-07
8.0924e-07
4.91109e-07
7.40514e-07
5.58058e-07
5.48072e-07
4.95676e-07
4.91109e-07
8.09313e-07
4.91109e-07
7.40558e-07
5.58055e-07
7.58118e-07
2.3647e-06
2.3911e-06
8.02313e-07
7.58115e-07
2.3647e-06
2.39116e-06
8.02318e-07
3.40607e-06
3.36628e-06
3.40612e-06
3.36638e-06
5.32121e-07
9.87209e-07
9.87276e-07
9.4849e-07
9.48577e-07
3.36632e-06
3.40616e-06
3.3664e-06
3.40622e-06
3.40612e-06
3.36624e-06
3.40622e-06
3.36637e-06
9.48492e-07
9.48579e-07
5.32103e-07
9.87257e-07
9.87295e-07
3.36625e-06
3.40611e-06
3.36635e-06
3.40624e-06
5.32099e-07
9.87276e-07
9.87295e-07
9.48504e-07
9.48584e-07
8.02377e-07
2.39103e-06
7.58128e-07
2.36455e-06
5.58046e-07
7.40504e-07
4.91108e-07
4.95674e-07
5.48074e-07
8.09249e-07
4.91108e-07
5.58047e-07
7.4055e-07
4.91108e-07
4.95676e-07
5.48074e-07
8.09288e-07
4.91108e-07
7.58124e-07
2.36454e-06
2.39096e-06
8.02338e-07
7.58126e-07
2.36456e-06
2.39104e-06
8.02356e-07
5.48069e-07
4.95673e-07
8.09222e-07
4.91108e-07
7.40509e-07
4.91108e-07
5.58036e-07
5.48069e-07
4.95677e-07
8.09308e-07
4.91108e-07
7.40544e-07
4.91108e-07
5.58038e-07
9.48574e-07
9.48467e-07
5.32102e-07
9.87231e-07
9.87213e-07
3.40607e-06
3.36625e-06
3.36633e-06
3.40623e-06
5.321e-07
9.87307e-07
9.87215e-07
9.48563e-07
9.48464e-07
3.36623e-06
3.40612e-06
5.58054e-07
7.40549e-07
4.91108e-07
4.95669e-07
5.48066e-07
8.09321e-07
4.91108e-07
8.02409e-07
2.39126e-06
7.58128e-07
2.36478e-06
5.58056e-07
4.91109e-07
7.40576e-07
4.95678e-07
5.48067e-07
4.91109e-07
8.09381e-07
7.58137e-07
2.36466e-06
2.39117e-06
8.02462e-07
5.48064e-07
4.9567e-07
8.093e-07
4.91108e-07
7.4055e-07
4.91108e-07
5.58053e-07
7.58141e-07
2.36476e-06
2.39126e-06
8.02466e-07
5.48067e-07
4.95681e-07
4.91109e-07
8.09367e-07
4.91109e-07
7.40585e-07
5.58053e-07
8.0232e-07
2.39101e-06
7.58114e-07
2.36458e-06
5.58046e-07
4.91109e-07
7.40518e-07
4.9568e-07
5.48067e-07
4.91109e-07
8.09283e-07
8.0233e-07
2.39111e-06
7.58116e-07
2.36469e-06
5.48053e-07
4.95669e-07
8.09226e-07
4.91109e-07
7.40486e-07
4.91108e-07
5.58046e-07
7.58111e-07
2.36455e-06
2.39103e-06
8.02441e-07
5.48055e-07
4.95672e-07
4.91108e-07
8.09293e-07
4.91109e-07
7.40522e-07
5.58046e-07
7.58113e-07
2.36467e-06
2.39114e-06
8.02437e-07
9.48624e-07
9.48491e-07
5.3212e-07
9.8737e-07
9.87344e-07
3.40623e-06
3.36634e-06
3.36645e-06
3.40637e-06
5.32116e-07
9.87396e-07
9.87329e-07
9.48636e-07
9.48509e-07
3.3663e-06
3.40625e-06
5.58054e-07
4.91109e-07
7.40556e-07
4.95674e-07
5.48068e-07
4.91109e-07
8.0935e-07
8.02387e-07
2.39113e-06
7.58129e-07
2.3647e-06
8.02413e-07
2.39118e-06
7.5813e-07
2.3647e-06
5.48061e-07
4.95673e-07
4.91108e-07
8.09286e-07
4.91109e-07
7.40511e-07
5.58053e-07
5.48063e-07
4.95674e-07
4.91109e-07
8.09363e-07
4.91109e-07
7.40558e-07
5.5805e-07
7.58132e-07
2.36467e-06
2.39115e-06
8.02459e-07
7.58136e-07
2.36468e-06
2.3912e-06
8.02453e-07
3.40623e-06
3.36635e-06
3.4063e-06
3.36642e-06
5.32108e-07
9.87333e-07
9.87358e-07
9.48508e-07
9.4858e-07
3.36633e-06
3.40628e-06
3.36639e-06
3.40636e-06
3.40613e-06
3.36623e-06
3.40623e-06
3.36634e-06
9.48499e-07
9.48575e-07
5.321e-07
9.87247e-07
9.87246e-07
3.36621e-06
3.40611e-06
3.36634e-06
3.40622e-06
5.321e-07