/*--------------------------------*- C++ -*----------------------------------*\
| =========                 |                                                 |
| \\      /  F ield         | OpenFOAM: The Open Source CFD Toolbox           |
|  \\    /   O peration     | Version:  2206                                  |
|   \\  /    A nd           | Website:  www.openfoam.com                      |
|    \\/     M anipulation  |                                                 |
\*---------------------------------------------------------------------------*/
FoamFile
{
    version     2.0;
    format      ascii;
    arch        "LSB;label=32;scalar=64";
    class       volVectorField;
    location    "3.5";
    object      U;
}
// * * * * * * * * * * * * * * * * * * * * * * * * * * * * * * * * * * * * * //

dimensions      [0 1 -1 0 0 0 0];

internalField   nonuniform List<vector> 
28673
(
(-1.13022e-07 2.52076e-07 0.100562)
(-3.14494e-05 -3.14575e-05 0.100562)
(-1.71021e-07 -1.76906e-07 0.100562)
(-1.47673e-07 2.56603e-07 0.100562)
(2.70562e-07 -1.50613e-07 0.100562)
(-3.15077e-05 -3.15165e-05 0.100562)
(-1.84897e-07 -1.90555e-07 0.100562)
(-1.31601e-07 2.50095e-07 0.100562)
(2.55365e-07 -1.29876e-07 0.100562)
(-3.14861e-05 -3.14976e-05 0.100562)
(-1.87138e-07 -1.90673e-07 0.100562)
(-1.32531e-07 2.51459e-07 0.100562)
(2.5372e-07 -1.29225e-07 0.100562)
(-3.14868e-05 -3.14975e-05 0.100562)
(-1.8772e-07 -1.905e-07 0.100562)
(-1.33099e-07 2.51764e-07 0.100562)
(2.52578e-07 -1.28555e-07 0.100562)
(-3.1487e-05 -3.14979e-05 0.100562)
(-1.87991e-07 -1.9082e-07 0.100562)
(-1.32092e-07 2.50776e-07 0.100562)
(2.52589e-07 -1.28716e-07 0.100562)
(-3.1487e-05 -3.1497e-05 0.100562)
(-1.8745e-07 -1.90332e-07 0.100562)
(-1.32745e-07 2.51307e-07 0.100562)
(2.53111e-07 -1.29567e-07 0.100562)
(-3.14883e-05 -3.14983e-05 0.100562)
(-1.88284e-07 -1.90593e-07 0.100562)
(-1.31285e-07 2.50389e-07 0.100562)
(2.51141e-07 -1.27596e-07 0.100562)
(-3.14866e-05 -3.14965e-05 0.100562)
(-1.88925e-07 -1.90097e-07 0.100562)
(-1.30879e-07 2.50439e-07 0.100562)
(2.50978e-07 -1.27694e-07 0.100562)
(-3.14855e-05 -3.14968e-05 0.100562)
(-1.9092e-07 -1.91138e-07 0.100562)
(-1.32511e-07 2.49674e-07 0.100562)
(2.48423e-07 -1.31977e-07 0.100562)
(-3.14805e-05 -3.1494e-05 0.100562)
(-3.20702e-07 -3.15603e-07 0.100562)
(-5.73204e-08 1.82491e-07 0.100562)
(1.74842e-07 -5.34782e-08 0.100562)
(-3.13822e-05 -3.1391e-05 0.100562)
(-4.80498e-06 -4.75141e-06 0.100557)
(2.11513e-06 -2.58458e-07 0.10056)
(-3.00262e-07 2.13341e-06 0.10056)
(-2.48409e-05 -2.48247e-05 0.100562)
(-4.90216e-05 -4.88876e-05 0.100475)
(4.61289e-05 -3.42802e-05 0.100483)
(-3.43613e-05 4.6116e-05 0.100483)
(4.89343e-05 4.89765e-05 0.100493)
(-2.261e-07 1.06756e-07 0.100562)
(3.2329e-05 -3.23077e-05 0.100562)
(-9.81679e-08 2.20431e-07 0.100562)
(-3.22811e-05 -3.22497e-05 0.100562)
(2.25752e-07 9.25852e-08 0.100562)
(-2.57505e-07 1.18039e-07 0.100562)
(2.68924e-07 1.63204e-07 0.100562)
(-2.68999e-07 1.62971e-07 0.100562)
(-3.14548e-05 3.14272e-05 0.100562)
(3.22832e-05 -3.22615e-05 0.100562)
(1.51266e-07 2.73339e-07 0.100562)
(1.56622e-07 -2.74521e-07 0.100562)
(-1.01303e-07 -2.21121e-07 0.100562)
(-1.57087e-07 2.62823e-07 0.100562)
(-1.72886e-07 -2.68293e-07 0.100562)
(-3.22426e-05 3.22712e-05 0.100562)
(-2.22253e-07 -9.67816e-08 0.100562)
(2.65605e-07 -1.59825e-07 0.100562)
(-2.70772e-07 -1.68154e-07 0.100562)
(3.22509e-05 3.22777e-05 0.100562)
(3.15186e-05 3.1495e-05 0.100562)
(-3.22981e-05 -3.22799e-05 0.100562)
(2.68656e-07 1.53534e-07 0.100562)
(-2.62445e-07 1.53496e-07 0.100562)
(2.60929e-07 1.32417e-07 0.100562)
(-2.56089e-07 1.4004e-07 0.100562)
(-3.15085e-05 3.14823e-05 0.100562)
(3.23021e-05 -3.22797e-05 0.100562)
(1.54815e-07 2.62219e-07 0.100562)
(1.60185e-07 -2.7386e-07 0.100562)
(1.36845e-07 2.51607e-07 0.100562)
(1.40138e-07 -2.60287e-07 0.100562)
(-1.6213e-07 -2.64291e-07 0.100562)
(-1.32715e-07 2.51346e-07 0.100562)
(-1.44191e-07 -2.54577e-07 0.100562)
(3.15057e-05 -3.15367e-05 0.100562)
(-3.22726e-05 3.23045e-05 0.100562)
(-2.60889e-07 -1.61124e-07 0.100562)
(2.57879e-07 -1.30224e-07 0.100562)
(-2.48573e-07 -1.45662e-07 0.100562)
(3.22792e-05 3.23005e-05 0.100562)
(3.14984e-05 3.14759e-05 0.100562)
(-3.23016e-05 -3.22795e-05 0.100562)
(2.58255e-07 1.34221e-07 0.100562)
(-2.5538e-07 1.38651e-07 0.100562)
(2.5779e-07 1.32e-07 0.100562)
(-2.55949e-07 1.39085e-07 0.100562)
(-3.14958e-05 3.14697e-05 0.100562)
(3.23028e-05 -3.22804e-05 0.100562)
(1.34954e-07 2.51567e-07 0.100562)
(1.35677e-07 -2.58678e-07 0.100562)
(1.31759e-07 2.51921e-07 0.100562)
(1.34185e-07 -2.56565e-07 0.100562)
(-1.4313e-07 -2.53747e-07 0.100562)
(-1.31662e-07 2.5085e-07 0.100562)
(-1.43549e-07 -2.53806e-07 0.100562)
(3.14759e-05 -3.15068e-05 0.100562)
(-3.22769e-05 3.23064e-05 0.100562)
(-2.48379e-07 -1.44459e-07 0.100562)
(2.53149e-07 -1.27817e-07 0.100562)
(-2.49606e-07 -1.43587e-07 0.100562)
(3.22798e-05 3.23023e-05 0.100562)
(3.14967e-05 3.14772e-05 0.100562)
(-3.23008e-05 -3.22783e-05 0.100562)
(2.57809e-07 1.35661e-07 0.100562)
(-2.56695e-07 1.39053e-07 0.100562)
(2.58779e-07 1.33295e-07 0.100562)
(-2.57974e-07 1.40225e-07 0.100562)
(-3.14963e-05 3.14701e-05 0.100562)
(3.23012e-05 -3.22791e-05 0.100562)
(1.33152e-07 2.53531e-07 0.100562)
(1.33867e-07 -2.59366e-07 0.100562)
(1.32018e-07 2.53688e-07 0.100562)
(1.34848e-07 -2.56136e-07 0.100562)
(-1.43019e-07 -2.52878e-07 0.100562)
(-1.33017e-07 2.52702e-07 0.100562)
(-1.44421e-07 -2.5422e-07 0.100562)
(3.14731e-05 -3.1505e-05 0.100562)
(-3.22761e-05 3.23039e-05 0.100562)
(-2.49014e-07 -1.42845e-07 0.100562)
(2.5308e-07 -1.27848e-07 0.100562)
(-2.50541e-07 -1.43846e-07 0.100562)
(3.2279e-05 3.23013e-05 0.100562)
(3.14968e-05 3.14775e-05 0.100562)
(-3.23031e-05 -3.22801e-05 0.100562)
(2.56127e-07 1.35382e-07 0.100562)
(-2.57428e-07 1.40039e-07 0.100562)
(2.56392e-07 1.32022e-07 0.100562)
(-2.56806e-07 1.39273e-07 0.100562)
(-3.14974e-05 3.14709e-05 0.100562)
(3.23033e-05 -3.22804e-05 0.100562)
(1.32571e-07 2.52285e-07 0.100562)
(1.33983e-07 -2.59163e-07 0.100562)
(1.30987e-07 2.51715e-07 0.100562)
(1.338e-07 -2.55668e-07 0.100562)
(-1.44421e-07 -2.53343e-07 0.100562)
(-1.31696e-07 2.51736e-07 0.100562)
(-1.43608e-07 -2.53243e-07 0.100562)
(3.14726e-05 -3.1505e-05 0.100562)
(-3.22773e-05 3.23057e-05 0.100562)
(-2.49645e-07 -1.43376e-07 0.100562)
(2.52641e-07 -1.26943e-07 0.100562)
(-2.49728e-07 -1.43073e-07 0.100562)
(3.22797e-05 3.23028e-05 0.100562)
(3.14957e-05 3.1477e-05 0.100562)
(-3.23021e-05 -3.22792e-05 0.100562)
(2.56133e-07 1.35045e-07 0.100562)
(-2.55974e-07 1.38236e-07 0.100562)
(2.58276e-07 1.33316e-07 0.100562)
(-2.57332e-07 1.3994e-07 0.100562)
(-3.14964e-05 3.14705e-05 0.100562)
(3.23025e-05 -3.22805e-05 0.100562)
(1.31894e-07 2.52575e-07 0.100562)
(1.32736e-07 -2.58845e-07 0.100562)
(1.32392e-07 2.53351e-07 0.100562)
(1.34814e-07 -2.5637e-07 0.100562)
(-1.43211e-07 -2.52174e-07 0.100562)
(-1.33385e-07 2.52196e-07 0.100562)
(-1.45198e-07 -2.54194e-07 0.100562)
(3.14722e-05 -3.15041e-05 0.100562)
(-3.2277e-05 3.2305e-05 0.100562)
(-2.48789e-07 -1.42723e-07 0.100562)
(2.53679e-07 -1.29258e-07 0.100562)
(-2.50911e-07 -1.44527e-07 0.100562)
(3.22796e-05 3.23028e-05 0.100562)
(3.14978e-05 3.14789e-05 0.100562)
(-3.23029e-05 -3.22798e-05 0.100562)
(2.57171e-07 1.36104e-07 0.100562)
(-2.56934e-07 1.39094e-07 0.100562)
(2.5614e-07 1.32126e-07 0.100562)
(-2.55891e-07 1.38498e-07 0.100562)
(-3.1498e-05 3.14714e-05 0.100562)
(3.2303e-05 -3.22809e-05 0.100562)
(1.32856e-07 2.53549e-07 0.100562)
(1.33566e-07 -2.5966e-07 0.100562)
(1.30704e-07 2.51586e-07 0.100562)
(1.32878e-07 -2.55628e-07 0.100562)
(-1.43722e-07 -2.52971e-07 0.100562)
(-1.31282e-07 2.50606e-07 0.100562)
(-1.42928e-07 -2.52389e-07 0.100562)
(3.14734e-05 -3.15056e-05 0.100562)
(-3.22781e-05 3.23049e-05 0.100562)
(-2.49688e-07 -1.43311e-07 0.100562)
(2.51429e-07 -1.26943e-07 0.100562)
(-2.49243e-07 -1.4255e-07 0.100562)
(3.22799e-05 3.23031e-05 0.100562)
(3.14954e-05 3.14768e-05 0.100562)
(-3.23032e-05 -3.22802e-05 0.100562)
(2.55938e-07 1.34847e-07 0.100562)
(-2.55855e-07 1.37867e-07 0.100562)
(2.56305e-07 1.31808e-07 0.100562)
(-2.56886e-07 1.37752e-07 0.100562)
(-3.14959e-05 3.14695e-05 0.100562)
(3.23032e-05 -3.22806e-05 0.100562)
(1.31355e-07 2.52679e-07 0.100562)
(1.31764e-07 -2.55891e-07 0.100562)
(1.29851e-07 2.51807e-07 0.100562)
(1.32166e-07 -2.56062e-07 0.100562)
(-1.42072e-07 -2.5144e-07 0.100562)
(-1.3094e-07 2.51527e-07 0.100562)
(-1.42186e-07 -2.52737e-07 0.100562)
(3.14711e-05 -3.1503e-05 0.100562)
(-3.22787e-05 3.23064e-05 0.100562)
(-2.48221e-07 -1.41427e-07 0.100562)
(2.51653e-07 -1.26445e-07 0.100562)
(-2.49759e-07 -1.40852e-07 0.100562)
(3.22812e-05 3.23037e-05 0.100562)
(3.14955e-05 3.14766e-05 0.100562)
(-3.2301e-05 -3.22813e-05 0.100562)
(2.55028e-07 1.34058e-07 0.100562)
(-2.55845e-07 1.36597e-07 0.100562)
(2.54554e-07 1.31392e-07 0.100562)
(-2.57074e-07 1.377e-07 0.100562)
(-3.14954e-05 3.14699e-05 0.100562)
(3.23044e-05 -3.22799e-05 0.100562)
(1.30283e-07 2.52124e-07 0.100562)
(1.31799e-07 -2.56229e-07 0.100562)
(1.3099e-07 2.50103e-07 0.100562)
(1.34296e-07 -2.54241e-07 0.100562)
(-1.40503e-07 -2.51993e-07 0.100562)
(-1.31395e-07 2.49979e-07 0.100562)
(-1.37934e-07 -2.51654e-07 0.100562)
(3.14708e-05 -3.15019e-05 0.100562)
(-3.22794e-05 3.23093e-05 0.100562)
(-2.49107e-07 -1.38998e-07 0.100562)
(2.48958e-07 -1.27793e-07 0.100562)
(-2.48616e-07 -1.33236e-07 0.100562)
(3.22822e-05 3.23022e-05 0.100562)
(3.14909e-05 3.14757e-05 0.100562)
(-3.23376e-05 -3.23143e-05 0.100562)
(2.52e-07 1.41218e-07 0.100562)
(-2.52701e-07 1.40488e-07 0.100562)
(2.13803e-07 1.1244e-07 0.100562)
(-2.18328e-07 1.17994e-07 0.100562)
(-3.14936e-05 3.1466e-05 0.100562)
(3.23435e-05 -3.23126e-05 0.100562)
(1.33621e-07 2.51016e-07 0.100562)
(1.36045e-07 -2.53407e-07 0.100562)
(1.0047e-07 2.14651e-07 0.100562)
(1.11849e-07 -2.15165e-07 0.100562)
(-1.36184e-07 -2.48024e-07 0.100562)
(-1.11651e-07 2.12359e-07 0.100562)
(-1.06938e-07 -2.17714e-07 0.100562)
(3.14688e-05 -3.14994e-05 0.100562)
(-3.23222e-05 3.23431e-05 0.100562)
(-2.46993e-07 -1.3419e-07 0.100562)
(2.07755e-07 -1.02619e-07 0.100562)
(-2.19009e-07 -1.03286e-07 0.100562)
(3.23093e-05 3.23394e-05 0.100562)
(3.13857e-05 3.13759e-05 0.100562)
(-3.1407e-05 -3.13579e-05 0.100563)
(1.74323e-07 6.37044e-08 0.100562)
(-1.84016e-07 6.71557e-08 0.100562)
(-1.52334e-06 -2.23233e-06 0.100562)
(1.50463e-06 -2.23093e-06 0.100562)
(-3.13875e-05 3.1372e-05 0.100562)
(3.13699e-05 -3.13528e-05 0.100563)
(5.44418e-08 1.74675e-07 0.100562)
(5.20037e-08 -1.75176e-07 0.100562)
(-2.25609e-06 -1.50034e-06 0.100562)
(-2.26049e-06 1.51647e-06 0.100562)
(-6.15231e-08 -1.69434e-07 0.100562)
(2.23827e-06 -1.48385e-06 0.100562)
(2.24135e-06 1.51694e-06 0.100562)
(3.13711e-05 -3.13953e-05 0.100562)
(-3.139e-05 3.13803e-05 0.100563)
(-1.7519e-07 -5.38797e-08 0.100562)
(-1.51063e-06 2.24347e-06 0.100562)
(1.50096e-06 2.2434e-06 0.100562)
(3.13631e-05 3.13865e-05 0.100563)
(2.47977e-05 2.48556e-05 0.100562)
(-4.88366e-05 -4.8661e-05 0.10052)
(-3.22234e-07 -2.10947e-06 0.10056)
(2.85206e-07 -2.09971e-06 0.10056)
(-3.82683e-05 -6.42987e-05 0.100525)
(3.82634e-05 -6.43402e-05 0.100525)
(-2.48482e-05 2.48645e-05 0.100562)
(4.88254e-05 -4.86839e-05 0.10052)
(-2.15346e-06 -2.88388e-07 0.10056)
(-2.13516e-06 3.21091e-07 0.10056)
(-6.44845e-05 -3.81499e-05 0.100525)
(-6.44317e-05 3.82591e-05 0.100525)
(2.1218e-06 3.22151e-07 0.10056)
(6.44537e-05 -3.81538e-05 0.100525)
(6.44245e-05 3.82744e-05 0.100525)
(2.47956e-05 -2.4839e-05 0.100562)
(-4.87758e-05 4.88174e-05 0.10052)
(3.00081e-07 2.13909e-06 0.10056)
(-3.82324e-05 6.44335e-05 0.100525)
(3.82389e-05 6.44823e-05 0.100525)
(4.87865e-05 4.88335e-05 0.10052)
(-4.89897e-05 -4.88139e-05 0.100493)
(-3.43931e-05 -4.59731e-05 0.100483)
(3.43876e-05 -4.60079e-05 0.100483)
(4.89823e-05 -4.88205e-05 0.100493)
(-4.61605e-05 -3.42784e-05 0.100483)
(-4.6112e-05 3.43777e-05 0.100483)
(4.90138e-05 -4.88883e-05 0.100475)
(-4.89987e-05 4.90139e-05 0.100475)
(4.90099e-05 4.90323e-05 0.100475)
(4.61079e-05 3.43913e-05 0.100483)
(-4.89221e-05 4.89665e-05 0.100493)
(3.43688e-05 4.61591e-05 0.100483)
(-4.30999e-08 -3.70584e-06 0.10046)
(4.03517e-07 2.89197e-06 0.0993507)
(-1.91025e-08 3.67529e-06 0.100461)
(-3.75779e-07 -3.34591e-06 0.099351)
(-2.53215e-07 -6.50975e-08 0.0964378)
(8.56854e-08 1.51203e-07 0.0964372)
(-3.70437e-06 -3.64766e-08 0.100461)
(-3.76681e-06 -1.9753e-07 0.0993509)
(2.07001e-07 -2.01773e-07 0.100562)
(2.18818e-07 2.0593e-07 0.100562)
(-1.75741e-07 -1.67189e-07 0.100562)
(1.7483e-07 -1.7038e-07 0.100562)
(-1.76839e-07 1.77476e-07 0.100562)
(1.76695e-07 1.64491e-07 0.100562)
(7.63019e-06 -3.34969e-09 0.100553)
(-5.82603e-06 1.78594e-06 0.100486)
(-1.18924e-07 -8.17871e-08 0.100562)
(-1.37337e-07 2.76859e-07 0.100562)
(-7.54952e-06 1.90507e-08 0.100553)
(5.77418e-06 -1.85113e-06 0.100486)
(-1.47454e-07 -5.74735e-08 0.100562)
(-1.74438e-06 1.17895e-06 0.0964358)
(-6.4341e-08 7.6413e-06 0.100553)
(-8.11685e-08 -1.06667e-07 0.100562)
(2.139e-07 -9.69655e-08 0.100562)
(2.94938e-08 -7.54675e-06 0.100553)
(-9.65249e-08 -1.27222e-07 0.100562)
(-2.26365e-06 5.95797e-06 0.100486)
(-1.91868e-06 -2.07691e-06 0.100345)
(-2.07515e-06 -1.91373e-06 0.100345)
(3.2272e-05 3.23022e-05 0.100562)
(1.57285e-06 2.14e-06 0.100345)
(2.13372e-06 1.57571e-06 0.100344)
(-2.72118e-09 -3.68494e-06 0.100461)
(4.17737e-07 3.37583e-06 0.0993506)
(1.81619e-08 3.66787e-06 0.100461)
(-4.73299e-07 -3.22284e-06 0.0993507)
(-7.08347e-07 8.08408e-07 0.0964346)
(6.70046e-07 -7.57108e-07 0.0964349)
(-3.6937e-06 -1.02753e-08 0.100461)
(3.68821e-06 3.13384e-07 0.0993506)
(3.66559e-06 2.80303e-08 0.100461)
(-3.16819e-06 -4.88753e-07 0.0993507)
(1.83269e-07 -1.77825e-07 0.100562)
(-1.65958e-07 1.71115e-07 0.100562)
(1.85895e-07 1.68818e-07 0.100562)
(-1.83218e-07 -1.89309e-07 0.100562)
(1.91163e-07 -1.84582e-07 0.100562)
(-1.79381e-07 1.86305e-07 0.100562)
(1.98634e-07 1.78263e-07 0.100562)
(7.56978e-06 -3.80739e-08 0.100553)
(-5.99561e-06 1.96782e-06 0.100486)
(-1.7982e-07 -7.87365e-08 0.100562)
(-1.39425e-07 2.53577e-07 0.100562)
(-7.70083e-06 3.23867e-08 0.100553)
(5.81875e-06 -1.97933e-06 0.100486)
(-1.67397e-07 -7.97689e-08 0.100562)
(1.48851e-06 -1.09279e-06 0.0964352)
(-6.61138e-07 6.27754e-07 0.0964347)
(-2.47885e-08 7.56266e-06 0.100553)
(-6.63397e-08 -1.80572e-07 0.100562)
(2.11729e-06 -6.0625e-06 0.100486)
(2.66591e-07 -1.39747e-07 0.100562)
(5.14002e-08 -7.69846e-06 0.100553)
(-6.77627e-08 -1.72086e-07 0.100562)
(-1.95899e-06 5.82242e-06 0.100486)
(-1.60074e-06 -2.18788e-06 0.100345)
(-2.18742e-06 -1.59673e-06 0.100345)
(3.22738e-05 3.22947e-05 0.100562)
(1.63996e-06 2.09404e-06 0.100345)
(2.09064e-06 1.6344e-06 0.100345)
(-7.30117e-09 -3.6928e-06 0.100461)
(4.61012e-07 3.27753e-06 0.0993505)
(5.98475e-09 3.65008e-06 0.100461)
(-4.74366e-07 -3.2292e-06 0.0993507)
(-7.25863e-07 7.8976e-07 0.0964346)
(6.68317e-07 -7.62467e-07 0.0964349)
(-3.71067e-06 -1.15757e-08 0.100461)
(3.2673e-06 4.48071e-07 0.0993503)
(3.66917e-06 4.7269e-09 0.100461)
(-3.21791e-06 -4.69747e-07 0.0993506)
(1.91606e-07 -1.84899e-07 0.100562)
(-1.81656e-07 1.88423e-07 0.100562)
(2.00134e-07 1.79593e-07 0.100562)
(-1.87191e-07 -1.9044e-07 0.100562)
(1.91691e-07 -1.85322e-07 0.100562)
(-1.84537e-07 1.90326e-07 0.100562)
(1.99959e-07 1.80844e-07 0.100562)
(7.58135e-06 -3.53978e-08 0.100553)
(-5.95842e-06 1.94531e-06 0.100486)
(-1.5647e-07 -7.89249e-08 0.100562)
(-1.30749e-07 2.50218e-07 0.100562)
(-7.63962e-06 3.44517e-08 0.100553)
(5.82571e-06 -1.97999e-06 0.100486)
(-1.54501e-07 -7.92313e-08 0.100562)
(7.48173e-07 -7.09189e-07 0.0964341)
(-7.28324e-07 6.54595e-07 0.0964346)
(-3.42576e-08 7.57769e-06 0.100553)
(-7.49944e-08 -1.56851e-07 0.100562)
(1.9592e-06 -5.97473e-06 0.100486)
(2.54107e-07 -1.27641e-07 0.100562)
(3.66431e-08 -7.63457e-06 0.100553)
(-7.6066e-08 -1.57041e-07 0.100562)
(-1.99102e-06 5.84292e-06 0.100486)
(-1.65411e-06 -2.14865e-06 0.100345)
(-2.14286e-06 -1.65194e-06 0.100345)
(3.22808e-05 3.23029e-05 0.100562)
(1.64445e-06 2.09791e-06 0.100345)
(2.09467e-06 1.63997e-06 0.100345)
(-7.78887e-09 -3.6942e-06 0.100461)
(4.57919e-07 3.27814e-06 0.0993505)
(4.3017e-09 3.64903e-06 0.100461)
(-4.7543e-07 -3.22888e-06 0.0993507)
(-7.24255e-07 7.88885e-07 0.0964346)
(6.67216e-07 -7.63245e-07 0.0964349)
(-3.71163e-06 -1.10949e-08 0.100461)
(3.26736e-06 4.48591e-07 0.0993503)
(3.66604e-06 6.04996e-09 0.100461)
(-3.21807e-06 -4.6898e-07 0.0993506)
(1.91479e-07 -1.85033e-07 0.100562)
(-1.84696e-07 1.90385e-07 0.100562)
(2.00004e-07 1.8101e-07 0.100562)
(-1.87699e-07 -1.89776e-07 0.100562)
(1.90709e-07 -1.84763e-07 0.100562)
(-1.85048e-07 1.9021e-07 0.100562)
(1.98802e-07 1.80761e-07 0.100562)
(7.58162e-06 -3.47931e-08 0.100553)
(-5.95777e-06 1.94526e-06 0.100486)
(-1.57044e-07 -7.84671e-08 0.100562)
(-1.32447e-07 2.51559e-07 0.100562)
(-7.639e-06 3.5065e-08 0.100553)
(5.82537e-06 -1.9797e-06 0.100486)
(-1.57113e-07 -7.83711e-08 0.100562)
(7.50127e-07 -7.08835e-07 0.0964341)
(-7.28299e-07 6.55599e-07 0.0964346)
(-3.43803e-08 7.57837e-06 0.100553)
(-7.68804e-08 -1.54987e-07 0.100562)
(1.95637e-06 -5.974e-06 0.100486)
(2.52666e-07 -1.27646e-07 0.100562)
(3.48241e-08 -7.63295e-06 0.100553)
(-7.70321e-08 -1.569e-07 0.100562)
(-1.99185e-06 5.84309e-06 0.100486)
(-1.65334e-06 -2.14718e-06 0.100345)
(-2.1427e-06 -1.65036e-06 0.100345)
(3.22807e-05 3.23031e-05 0.100562)
(1.64472e-06 2.0995e-06 0.100345)
(2.09522e-06 1.64085e-06 0.100345)
(-7.62074e-09 -3.69292e-06 0.100461)
(4.57762e-07 3.27824e-06 0.0993505)
(4.42616e-09 3.6489e-06 0.100461)
(-4.75905e-07 -3.22867e-06 0.0993507)
(-7.25377e-07 7.88563e-07 0.0964346)
(6.66559e-07 -7.63255e-07 0.0964349)
(-3.71087e-06 -1.09783e-08 0.100461)
(3.26687e-06 4.50292e-07 0.0993503)
(3.66656e-06 6.11388e-09 0.100461)
(-3.21818e-06 -4.68202e-07 0.0993506)
(1.90803e-07 -1.84691e-07 0.100562)
(-1.84829e-07 1.90381e-07 0.100562)
(1.9923e-07 1.81047e-07 0.100562)
(-1.8828e-07 -1.90258e-07 0.100562)
(1.91101e-07 -1.85149e-07 0.100562)
(-1.85615e-07 1.90476e-07 0.100562)
(1.99234e-07 1.81055e-07 0.100562)
(7.58097e-06 -3.53175e-08 0.100553)
(-5.95812e-06 1.94563e-06 0.100486)
(-1.58275e-07 -7.82212e-08 0.100562)
(-1.32745e-07 2.51846e-07 0.100562)
(-7.63947e-06 3.48332e-08 0.100553)
(5.82522e-06 -1.97931e-06 0.100486)
(-1.56949e-07 -7.84304e-08 0.100562)
(7.50774e-07 -7.09082e-07 0.0964341)
(-7.27565e-07 6.55404e-07 0.0964346)
(-3.42529e-08 7.57725e-06 0.100553)
(-7.7299e-08 -1.54816e-07 0.100562)
(1.9568e-06 -5.97465e-06 0.100486)
(2.5249e-07 -1.28033e-07 0.100562)
(3.52428e-08 -7.63412e-06 0.100553)
(-7.7415e-08 -1.56629e-07 0.100562)
(-1.99139e-06 5.84227e-06 0.100486)
(-1.65435e-06 -2.14795e-06 0.100345)
(-2.1441e-06 -1.6509e-06 0.100345)
(3.22805e-05 3.23031e-05 0.100562)
(1.64357e-06 2.09906e-06 0.100345)
(2.09471e-06 1.64003e-06 0.100345)
(-8.06143e-09 -3.69438e-06 0.100461)
(4.58361e-07 3.27866e-06 0.0993505)
(4.33229e-09 3.64993e-06 0.100461)
(-4.7626e-07 -3.22944e-06 0.0993507)
(-7.26085e-07 7.87585e-07 0.0964346)
(6.67079e-07 -7.64141e-07 0.0964349)
(-3.713e-06 -1.08773e-08 0.100461)
(3.26756e-06 4.49282e-07 0.0993503)
(3.66647e-06 6.40828e-09 0.100461)
(-3.21866e-06 -4.69853e-07 0.0993506)
(1.91323e-07 -1.85185e-07 0.100562)
(-1.85569e-07 1.90755e-07 0.100562)
(2.00015e-07 1.81443e-07 0.100562)
(-1.87933e-07 -1.90377e-07 0.100562)
(1.91088e-07 -1.85134e-07 0.100562)
(-1.85368e-07 1.90455e-07 0.100562)
(1.99212e-07 1.80919e-07 0.100562)
(7.58205e-06 -3.4709e-08 0.100553)
(-5.95772e-06 1.94554e-06 0.100486)
(-1.56946e-07 -7.83149e-08 0.100562)
(-1.32207e-07 2.51276e-07 0.100562)
(-7.63869e-06 3.52484e-08 0.100553)
(5.82609e-06 -1.97997e-06 0.100486)
(-1.56331e-07 -7.86979e-08 0.100562)
(7.49652e-07 -7.09871e-07 0.0964341)
(-7.29522e-07 6.55019e-07 0.0964346)
(-3.5347e-08 7.57996e-06 0.100553)
(-7.74122e-08 -1.54824e-07 0.100562)
(1.95647e-06 -5.97403e-06 0.100486)
(2.52522e-07 -1.28057e-07 0.100562)
(3.49054e-08 -7.63301e-06 0.100553)
(-7.7678e-08 -1.566e-07 0.100562)
(-1.9924e-06 5.84398e-06 0.100486)
(-1.65356e-06 -2.14753e-06 0.100345)
(-2.14357e-06 -1.64981e-06 0.100345)
(3.22808e-05 3.23042e-05 0.100562)
(1.64524e-06 2.09934e-06 0.100345)
(2.09504e-06 1.64165e-06 0.100345)
(-8.25042e-09 -3.69301e-06 0.100461)
(4.57609e-07 3.27795e-06 0.0993505)
(3.79182e-09 3.64907e-06 0.100461)
(-4.75206e-07 -3.2285e-06 0.0993507)
(-7.25479e-07 7.88648e-07 0.0964346)
(6.67621e-07 -7.62478e-07 0.0964349)
(-3.71068e-06 -1.0875e-08 0.100461)
(3.26702e-06 4.49324e-07 0.0993503)
(3.66656e-06 6.28645e-09 0.100461)
(-3.21784e-06 -4.68474e-07 0.0993506)
(1.90951e-07 -1.84823e-07 0.100562)
(-1.85152e-07 1.90231e-07 0.100562)
(1.99524e-07 1.80907e-07 0.100562)
(-1.88332e-07 -1.90144e-07 0.100562)
(1.91003e-07 -1.84786e-07 0.100562)
(-1.8569e-07 1.90516e-07 0.100562)
(1.9913e-07 1.81058e-07 0.100562)
(7.58162e-06 -3.51589e-08 0.100553)
(-5.95823e-06 1.94552e-06 0.100486)
(-1.57096e-07 -7.82777e-08 0.100562)
(-1.32529e-07 2.51858e-07 0.100562)
(-7.6397e-06 3.52496e-08 0.100553)
(5.82551e-06 -1.97956e-06 0.100486)
(-1.5615e-07 -7.83182e-08 0.100562)
(7.49931e-07 -7.10374e-07 0.0964341)
(-7.27951e-07 6.55433e-07 0.0964346)
(-3.68787e-08 7.5822e-06 0.100553)
(-7.73426e-08 -1.55061e-07 0.100562)
(1.95594e-06 -5.97472e-06 0.100486)
(2.53051e-07 -1.28174e-07 0.100562)
(3.48891e-08 -7.63564e-06 0.100553)
(-7.7341e-08 -1.56338e-07 0.100562)
(-1.99193e-06 5.84331e-06 0.100486)
(-1.65373e-06 -2.14735e-06 0.100345)
(-2.14344e-06 -1.65074e-06 0.100345)
(3.22807e-05 3.23039e-05 0.100562)
(1.64412e-06 2.0989e-06 0.100345)
(2.09427e-06 1.6402e-06 0.100345)
(-7.85385e-09 -3.69215e-06 0.100461)
(4.58278e-07 3.27841e-06 0.0993505)
(3.96559e-09 3.65028e-06 0.100461)
(-4.74784e-07 -3.22856e-06 0.0993507)
(-7.25715e-07 7.88335e-07 0.0964346)
(6.67068e-07 -7.62944e-07 0.0964349)
(-3.71059e-06 -1.08782e-08 0.100461)
(3.26704e-06 4.4957e-07 0.0993503)
(3.66729e-06 6.04925e-09 0.100461)
(-3.21774e-06 -4.67859e-07 0.0993506)
(1.91278e-07 -1.8488e-07 0.100562)
(-1.85653e-07 1.90885e-07 0.100562)
(1.99666e-07 1.8133e-07 0.100562)
(-1.89263e-07 -1.90232e-07 0.100562)
(1.90785e-07 -1.85788e-07 0.100562)
(-1.86231e-07 1.90612e-07 0.100562)
(1.97984e-07 1.82299e-07 0.100562)
(7.58167e-06 -3.5279e-08 0.100553)
(-5.95837e-06 1.94587e-06 0.100486)
(-1.55096e-07 -7.82309e-08 0.100562)
(-1.30469e-07 2.50012e-07 0.100562)
(-7.63955e-06 3.48528e-08 0.100553)
(5.82567e-06 -1.97957e-06 0.100486)
(-1.54479e-07 -7.82886e-08 0.100562)
(7.50282e-07 -7.09602e-07 0.0964341)
(-7.2797e-07 6.55421e-07 0.0964346)
(-3.59632e-08 7.58166e-06 0.100553)
(-7.76964e-08 -1.52443e-07 0.100562)
(1.95657e-06 -5.97494e-06 0.100486)
(2.50521e-07 -1.25672e-07 0.100562)
(3.53739e-08 -7.63657e-06 0.100553)
(-7.76835e-08 -1.54179e-07 0.100562)
(-1.99176e-06 5.84299e-06 0.100486)
(-1.65474e-06 -2.14824e-06 0.100345)
(-2.14418e-06 -1.65082e-06 0.100345)
(3.22824e-05 3.23055e-05 0.100562)
(1.64413e-06 2.09861e-06 0.100345)
(2.09375e-06 1.64093e-06 0.100345)
(-8.31716e-09 -3.69414e-06 0.100461)
(4.58555e-07 3.27782e-06 0.0993505)
(3.79106e-09 3.64862e-06 0.100461)
(-4.76325e-07 -3.22844e-06 0.0993507)
(-7.26085e-07 7.87618e-07 0.0964346)
(6.67244e-07 -7.62881e-07 0.0964349)
(-3.7118e-06 -1.03489e-08 0.100461)
(3.26593e-06 4.50493e-07 0.0993503)
(3.66569e-06 6.36416e-09 0.100461)
(-3.21206e-06 -4.66638e-07 0.0993506)
(1.90418e-07 -1.86134e-07 0.100562)
(-1.86378e-07 1.90619e-07 0.100562)
(1.97392e-07 1.82755e-07 0.100562)
(-1.89067e-07 -1.88421e-07 0.100562)
(1.89532e-07 -1.86823e-07 0.100562)
(-1.88021e-07 1.90405e-07 0.100562)
(1.8692e-07 1.86222e-07 0.100562)
(7.5829e-06 -3.48883e-08 0.100553)
(-5.95705e-06 1.94529e-06 0.100486)
(-1.54231e-07 -7.80308e-08 0.100562)
(-1.31396e-07 2.51299e-07 0.100562)
(-7.63806e-06 3.5053e-08 0.100553)
(5.82653e-06 -1.97987e-06 0.100486)
(-1.54083e-07 -7.82423e-08 0.100562)
(7.49783e-07 -7.0972e-07 0.0964341)
(-7.28198e-07 6.5578e-07 0.0964346)
(-3.62722e-08 7.58192e-06 0.100553)
(-7.80208e-08 -1.51534e-07 0.100562)
(1.95577e-06 -5.97388e-06 0.100486)
(2.51347e-07 -1.27461e-07 0.100562)
(3.53146e-08 -7.63479e-06 0.100553)
(-7.81366e-08 -1.54389e-07 0.100562)
(-1.99207e-06 5.84399e-06 0.100486)
(-1.65373e-06 -2.14715e-06 0.100345)
(-2.14361e-06 -1.6497e-06 0.100345)
(3.22827e-05 3.23034e-05 0.100562)
(1.6448e-06 2.09939e-06 0.100345)
(2.09395e-06 1.64128e-06 0.100345)
(-1.17777e-08 -3.6972e-06 0.100461)
(4.56864e-07 3.27467e-06 0.0993505)
(2.17795e-09 3.64778e-06 0.100461)
(-4.75999e-07 -3.22524e-06 0.0993507)
(-7.21736e-07 7.86079e-07 0.0964346)
(6.41129e-07 -7.40842e-07 0.096435)
(-3.71498e-06 -8.87378e-09 0.100461)
(3.2675e-06 4.50254e-07 0.0993503)
(3.66365e-06 7.12201e-09 0.100461)
(-3.22466e-06 -4.68929e-07 0.0993506)
(1.88924e-07 -1.85015e-07 0.100562)
(-1.88685e-07 1.90621e-07 0.100562)
(1.88508e-07 1.85949e-07 0.100562)
(-2.18136e-07 -2.15544e-07 0.100562)
(2.068e-07 -2.09201e-07 0.100562)
(-2.15443e-07 2.17474e-07 0.100562)
(2.0988e-07 2.21277e-07 0.100562)
(7.58919e-06 -3.43463e-08 0.100553)
(-5.95657e-06 1.94568e-06 0.100486)
(-1.5537e-07 -7.79683e-08 0.100562)
(-1.36271e-07 2.44743e-07 0.100562)
(-7.63514e-06 3.49654e-08 0.100553)
(5.83042e-06 -1.98027e-06 0.100486)
(-1.47383e-07 -8.17472e-08 0.100562)
(7.5117e-07 -7.08725e-07 0.0964341)
(-7.32531e-07 6.55418e-07 0.0964346)
(-3.6916e-08 7.58791e-06 0.100553)
(-7.96912e-08 -1.49934e-07 0.100562)
(1.95416e-06 -5.97139e-06 0.100486)
(2.42083e-07 -1.28128e-07 0.100562)
(3.40998e-08 -7.63251e-06 0.100553)
(-8.18749e-08 -1.45308e-07 0.100562)
(-1.99096e-06 5.84733e-06 0.100486)
(-1.65283e-06 -2.14665e-06 0.100345)
(-2.1438e-06 -1.64788e-06 0.100345)
(3.22865e-05 3.23089e-05 0.100562)
(1.64697e-06 2.10039e-06 0.100345)
(2.09421e-06 1.64376e-06 0.100345)
(-8.39456e-09 -3.77791e-06 0.100461)
(4.3916e-07 3.24523e-06 0.0993506)
(-6.81933e-09 3.57161e-06 0.100461)
(-4.78922e-07 -3.08216e-06 0.0993514)
(-6.56915e-07 6.84443e-07 0.0964347)
(7.9713e-07 -9.08757e-07 0.0964358)
(-3.78066e-06 -2.80966e-09 0.100461)
(3.24208e-06 4.45593e-07 0.0993505)
(3.57766e-06 5.61559e-09 0.100461)
(-3.08401e-06 -4.64311e-07 0.0993513)
(3.11775e-07 -3.14403e-07 0.100562)
(-3.18475e-07 3.20094e-07 0.100562)
(3.16437e-07 3.23599e-07 0.100562)
(-2.02482e-06 -1.98967e-06 0.100558)
(2.00138e-06 -1.98579e-06 0.100558)
(-2.01179e-06 2.01479e-06 0.100558)
(2.0024e-06 2.0233e-06 0.100558)
(7.87231e-06 -2.97476e-08 0.100554)
(-5.87456e-06 1.92035e-06 0.100486)
(9.78313e-09 -1.25668e-07 0.100562)
(1.60673e-07 1.25326e-09 0.100562)
(-7.4853e-06 2.66494e-08 0.100554)
(5.98939e-06 -1.98603e-06 0.100487)
(2.40153e-07 -1.122e-07 0.100562)
(7.60905e-07 -7.05612e-07 0.0964343)
(-7.57908e-07 6.63638e-07 0.0964352)
(-3.92635e-08 7.87898e-06 0.100554)
(-1.28092e-07 1.09939e-08 0.100562)
(1.92102e-06 -5.88632e-06 0.100486)
(-9.767e-09 1.68563e-07 0.100562)
(1.76555e-08 -7.47971e-06 0.100554)
(-1.2814e-07 2.52971e-07 0.100562)
(-2.00531e-06 5.9964e-06 0.100487)
(-1.60299e-06 -2.118e-06 0.100345)
(-2.12708e-06 -1.59393e-06 0.100345)
(3.23788e-05 3.24055e-05 0.100562)
(1.74427e-06 2.14607e-06 0.100346)
(2.12365e-06 1.73931e-06 0.100346)
(1.10571e-05 -2.15654e-06 0.100471)
(-1.14797e-07 -2.04435e-05 0.0993338)
(-1.95753e-06 -1.14342e-06 0.100464)
(1.74367e-05 0.000119562 0.0995377)
(1.34456e-06 -8.55686e-06 0.0964285)
(-2.01237e-05 6.3992e-05 0.0965184)
(-2.1314e-06 1.11193e-05 0.100471)
(-2.04897e-05 -7.21555e-08 0.0993337)
(-1.15832e-06 -1.96281e-06 0.100464)
(0.000119576 1.73115e-05 0.0995378)
(4.78285e-06 -4.74469e-06 0.100557)
(-4.77894e-06 4.79689e-06 0.100557)
(4.77244e-06 4.80967e-06 0.100557)
(-2.82242e-05 -2.81292e-05 0.100506)
(2.8222e-05 -2.8129e-05 0.100506)
(-2.82047e-05 2.82277e-05 0.100506)
(2.82185e-05 2.82405e-05 0.100506)
(2.03713e-05 3.71986e-07 0.100559)
(2.53959e-06 -1.84322e-06 0.100485)
(5.34795e-06 -1.54589e-06 0.100559)
(1.60965e-05 -1.08474e-05 0.100559)
(-1.00203e-06 -5.60266e-07 0.100556)
(-9.67112e-06 3.29102e-06 0.100504)
(1.24872e-05 -2.32657e-06 0.100552)
(-8.59423e-06 1.32487e-06 0.0964283)
(6.36709e-05 -2.01219e-05 0.0965179)
(3.53239e-07 2.03525e-05 0.100559)
(-1.57652e-06 5.34598e-06 0.10056)
(-1.90524e-06 2.52404e-06 0.100485)
(-1.08855e-05 1.60945e-05 0.100559)
(-5.8372e-07 -9.95455e-07 0.100556)
(-2.36784e-06 1.24461e-05 0.100552)
(3.19169e-06 -9.63073e-06 0.100504)
(-2.33988e-06 -1.72995e-06 0.100345)
(-1.72154e-06 -2.25226e-06 0.100345)
(2.79543e-05 2.80391e-05 0.100562)
(2.2341e-05 -2.16439e-06 0.100355)
(-2.24619e-06 2.26202e-05 0.100355)
(-1.6728e-05 -9.88026e-05 0.100306)
(-4.36884e-05 -0.000366167 0.0987578)
(-1.48726e-05 -9.96837e-05 0.100421)
(-0.000268692 -9.95602e-05 0.100277)
(9.90955e-05 -0.000431512 0.0965128)
(0.000100552 -0.000209893 0.0992528)
(-9.89221e-05 -1.69221e-05 0.100305)
(-0.000367007 -4.29362e-05 0.0987576)
(-0.000100485 -1.47607e-05 0.100421)
(-9.9741e-05 -0.000268718 0.100277)
(-9.27799e-06 -9.20121e-06 0.10041)
(-1.49359e-05 -4.07891e-05 0.100473)
(-4.09266e-05 -1.48504e-05 0.100473)
(-3.33026e-05 -3.31698e-05 0.100395)
(-1.2429e-05 -1.2339e-05 0.100471)
(-9.03951e-06 -3.31833e-05 0.100405)
(-3.33146e-05 -8.96925e-06 0.100405)
(8.90437e-05 1.18616e-05 0.100361)
(0.000116831 -7.4845e-05 0.100483)
(7.26214e-05 -2.14351e-05 0.100477)
(4.48727e-05 -3.47096e-05 0.100394)
(8.82495e-05 -1.18333e-05 0.100494)
(0.00010047 -6.14848e-05 0.100368)
(5.39262e-05 -1.16988e-05 0.1004)
(-0.00043193 9.84654e-05 0.0965128)
(-0.000209897 0.000100348 0.0992525)
(1.18847e-05 8.88688e-05 0.100361)
(-2.1486e-05 7.25983e-05 0.100477)
(-7.50743e-05 0.000116881 0.100483)
(-3.4821e-05 4.48527e-05 0.100394)
(-1.18535e-05 8.8177e-05 0.100494)
(-1.17495e-05 5.39029e-05 0.1004)
(-6.15625e-05 0.000100384 0.100368)
(0.00026955 7.24698e-05 0.100418)
(7.23459e-05 0.000269892 0.100418)
(4.33521e-05 4.33562e-05 0.100389)
(2.84846e-05 -4.27126e-05 0.100381)
(-4.26427e-05 2.82432e-05 0.100381)
(5.51567e-07 -3.69592e-06 0.099351)
(2.18145e-06 -5.9544e-06 0.100486)
(1.20251e-06 -1.6912e-06 0.0964362)
(2.27045e-06 -1.21744e-06 0.100345)
(1.21561e-06 -2.23818e-06 0.100345)
(1.7006e-06 -1.19034e-06 0.0964365)
(5.94856e-06 -2.16742e-06 0.100486)
(3.68956e-06 -5.65565e-07 0.099351)