/*--------------------------------*- C++ -*----------------------------------*\
| =========                 |                                                 |
| \\      /  F ield         | OpenFOAM: The Open Source CFD Toolbox           |
|  \\    /   O peration     | Version:  2206                                  |
|   \\  /    A nd           | Website:  www.openfoam.com                      |
|    \\/     M anipulation  |                                                 |
\*---------------------------------------------------------------------------*/
FoamFile
{
    version     2.0;
    format      ascii;
    arch        "LSB;label=32;scalar=64";
    class       volScalarField;
    location    "6.5";
    object      epsilon;
}
// * * * * * * * * * * * * * * * * * * * * * * * * * * * * * * * * * * * * * //

dimensions      [0 2 -3 0 0 0 0];

internalField   nonuniform List<scalar> 
28897
(
4.54247e-07
4.56992e-07
4.56982e-07
4.61118e-07
4.54061e-07
4.56881e-07
4.56811e-07
4.60999e-07
4.53961e-07
4.56722e-07
4.56721e-07
4.60899e-07
4.53961e-07
4.56721e-07
4.56722e-07
4.60902e-07
4.53961e-07
4.56721e-07
4.56722e-07
4.60902e-07
4.53961e-07
4.56721e-07
4.56722e-07
4.60902e-07
4.53961e-07
4.56721e-07
4.56722e-07
4.60902e-07
4.53961e-07
4.56721e-07
4.56722e-07
4.60902e-07
4.53961e-07
4.56721e-07
4.56722e-07
4.60902e-07
4.53961e-07
4.56721e-07
4.56722e-07
4.60901e-07
4.53961e-07
4.56721e-07
4.56722e-07
4.60902e-07
4.53962e-07
4.56721e-07
4.56722e-07
4.60901e-07
4.53961e-07
4.56721e-07
4.56722e-07
4.60902e-07
4.53961e-07
4.56721e-07
4.56722e-07
4.60902e-07
4.53961e-07
4.56721e-07
4.56722e-07
4.60902e-07
4.53961e-07
4.56721e-07
4.56722e-07
4.60902e-07
4.53961e-07
4.56721e-07
4.56722e-07
4.60902e-07
4.53966e-07
4.56725e-07
4.56726e-07
4.60902e-07
4.61072e-07
4.56988e-07
4.56988e-07
4.61084e-07
4.56986e-07
4.56989e-07
4.56993e-07
4.56987e-07
4.61073e-07
4.56985e-07
4.56987e-07
4.61071e-07
4.61121e-07
4.6098e-07
4.56986e-07
4.56988e-07
4.56902e-07
4.5691e-07
4.61136e-07
4.61044e-07
4.56985e-07
4.56988e-07
4.569e-07
4.56904e-07
4.56987e-07
4.56956e-07
4.56904e-07
4.61122e-07
4.6098e-07
4.56986e-07
4.56897e-07
4.56901e-07
4.60979e-07
4.61004e-07
4.6085e-07
4.56816e-07
4.56823e-07
4.56724e-07
4.56725e-07
4.61072e-07
4.60852e-07
4.56815e-07
4.56818e-07
4.56723e-07
4.56726e-07
4.56818e-07
4.56729e-07
4.56725e-07
4.61004e-07
4.60851e-07
4.56816e-07
4.56723e-07
4.56724e-07
4.60852e-07
4.60898e-07
4.60856e-07
4.56726e-07
4.56727e-07
4.56723e-07
4.56724e-07
4.60897e-07
4.60854e-07
4.56725e-07
4.56728e-07
4.56722e-07
4.56725e-07
4.56727e-07
4.56722e-07
4.56724e-07
4.60899e-07
4.60856e-07
4.56725e-07
4.56723e-07
4.56722e-07
4.60855e-07
4.60904e-07
4.60856e-07
4.56726e-07
4.56727e-07
4.56723e-07
4.56724e-07
4.60903e-07
4.60854e-07
4.56725e-07
4.56729e-07
4.56722e-07
4.56726e-07
4.56727e-07
4.56721e-07
4.56724e-07
4.60905e-07
4.60857e-07
4.56726e-07
4.56722e-07
4.56722e-07
4.60855e-07
4.60905e-07
4.60856e-07
4.56726e-07
4.56727e-07
4.56723e-07
4.56724e-07
4.60903e-07
4.60854e-07
4.56725e-07
4.56729e-07
4.56722e-07
4.56726e-07
4.56727e-07
4.56721e-07
4.56724e-07
4.60906e-07
4.60856e-07
4.56726e-07
4.56722e-07
4.56723e-07
4.60855e-07
4.60904e-07
4.60856e-07
4.56726e-07
4.56727e-07
4.56723e-07
4.56724e-07
4.60903e-07
4.60854e-07
4.56725e-07
4.56729e-07
4.56722e-07
4.56726e-07
4.56727e-07
4.56721e-07
4.56724e-07
4.60905e-07
4.60857e-07
4.56726e-07
4.56722e-07
4.56723e-07
4.60855e-07
4.60904e-07
4.60856e-07
4.56726e-07
4.56727e-07
4.56723e-07
4.56724e-07
4.60903e-07
4.60853e-07
4.56725e-07
4.56729e-07
4.56722e-07
4.56726e-07
4.56727e-07
4.56721e-07
4.56724e-07
4.60905e-07
4.60856e-07
4.56726e-07
4.56722e-07
4.56723e-07
4.60855e-07
4.60904e-07
4.60856e-07
4.56726e-07
4.56727e-07
4.56723e-07
4.56724e-07
4.60902e-07
4.60854e-07
4.56725e-07
4.56729e-07
4.56722e-07
4.56726e-07
4.56727e-07
4.56721e-07
4.56724e-07
4.60905e-07
4.60857e-07
4.56726e-07
4.56722e-07
4.56723e-07
4.60855e-07
4.60905e-07
4.60856e-07
4.56726e-07
4.56727e-07
4.56723e-07
4.56724e-07
4.60903e-07
4.60854e-07
4.56725e-07
4.56729e-07
4.56722e-07
4.56726e-07
4.56727e-07
4.56721e-07
4.56724e-07
4.60905e-07
4.60857e-07
4.56726e-07
4.56722e-07
4.56722e-07
4.60855e-07
4.60905e-07
4.60856e-07
4.56726e-07
4.56727e-07
4.56723e-07
4.56724e-07
4.60903e-07
4.60854e-07
4.56725e-07
4.56729e-07
4.56722e-07
4.56726e-07
4.56727e-07
4.56721e-07
4.56724e-07
4.60905e-07
4.60857e-07
4.56726e-07
4.56722e-07
4.56723e-07
4.60855e-07
4.60904e-07
4.60856e-07
4.56726e-07
4.56727e-07
4.56723e-07
4.56724e-07
4.60903e-07
4.60853e-07
4.56725e-07
4.56729e-07
4.56722e-07
4.56726e-07
4.56727e-07
4.56721e-07
4.56724e-07
4.60905e-07
4.60856e-07
4.56726e-07
4.56722e-07
4.56722e-07
4.60855e-07
4.60904e-07
4.60856e-07
4.56726e-07
4.56727e-07
4.56723e-07
4.56724e-07
4.60902e-07
4.60854e-07
4.56725e-07
4.56729e-07
4.56722e-07
4.56726e-07
4.56727e-07
4.56721e-07
4.56724e-07
4.60905e-07
4.60857e-07
4.56726e-07
4.56722e-07
4.56722e-07
4.60855e-07
4.60904e-07
4.60855e-07
4.56726e-07
4.56727e-07
4.56723e-07
4.56724e-07
4.60902e-07
4.60854e-07
4.56725e-07
4.56729e-07
4.56722e-07
4.56726e-07
4.56727e-07
4.56721e-07
4.56724e-07
4.60906e-07
4.60856e-07
4.56725e-07
4.56722e-07
4.56722e-07
4.60855e-07
4.60904e-07
4.60855e-07
4.56726e-07
4.56727e-07
4.56723e-07
4.56724e-07
4.60902e-07
4.60854e-07
4.56725e-07
4.56729e-07
4.56722e-07
4.56726e-07
4.56727e-07
4.56721e-07
4.56724e-07
4.60905e-07
4.60857e-07
4.56726e-07
4.56722e-07
4.56722e-07
4.60855e-07
4.60904e-07
4.60855e-07
4.56726e-07
4.56727e-07
4.56723e-07
4.56724e-07
4.60902e-07
4.60854e-07
4.56725e-07
4.56729e-07
4.56722e-07
4.56725e-07
4.56727e-07
4.56721e-07
4.56724e-07
4.60906e-07
4.60856e-07
4.56726e-07
4.56722e-07
4.56722e-07
4.60855e-07
4.60904e-07
4.60855e-07
4.56726e-07
4.56727e-07
4.56723e-07
4.56724e-07
4.60902e-07
4.60854e-07
4.56725e-07
4.56729e-07
4.56722e-07
4.56726e-07
4.56727e-07
4.56721e-07
4.56724e-07
4.60905e-07
4.60857e-07
4.56726e-07
4.56722e-07
4.56722e-07
4.60855e-07
4.60904e-07
4.60855e-07
4.56726e-07
4.56727e-07
4.56723e-07
4.56724e-07
4.60902e-07
4.60854e-07
4.56725e-07
4.56729e-07
4.56722e-07
4.56726e-07
4.56727e-07
4.56722e-07
4.56724e-07
4.60906e-07
4.60856e-07
4.56725e-07
4.56723e-07
4.56723e-07
4.60855e-07
4.60904e-07
4.56728e-07
4.56728e-07
4.60903e-07
4.56727e-07
4.5673e-07
4.56728e-07
4.60905e-07
4.56727e-07
4.5425e-07
4.54251e-07
4.54251e-07
4.54251e-07
1.13926e-06
5.79839e-06
1.13941e-06
5.79813e-06
2.0225e-05
2.02222e-05
1.13917e-06
5.79922e-06
1.13929e-06
5.79895e-06
4.5425e-07
4.5425e-07
4.5425e-07
4.54154e-07
4.54164e-07
4.54157e-07
4.54157e-07
5.466e-07
9.74019e-07
4.54738e-07
4.5699e-07
5.46656e-07
9.73763e-07
4.54732e-07
2.02281e-05
2.02264e-05
5.46599e-07
4.54737e-07
9.7401e-07
4.56977e-07
5.46652e-07
4.54731e-07
9.73828e-07
1.81714e-06
1.81763e-06
4.61072e-07
1.81701e-06
1.81751e-06
1.14077e-06
5.80587e-06
1.14075e-06
5.80637e-06
2.02452e-05
2.02638e-05
1.14068e-06
5.80669e-06
1.14065e-06
5.80717e-06
4.54071e-07
4.54064e-07
4.54064e-07
4.53963e-07
4.53964e-07
4.53963e-07
4.53963e-07
5.4674e-07
9.74535e-07
4.54563e-07
4.56805e-07
5.46748e-07
9.74767e-07
4.54506e-07
2.02648e-05
2.02672e-05
5.46745e-07
4.54553e-07
9.74897e-07
4.56762e-07
5.46772e-07
4.545e-07
9.74845e-07
1.81986e-06
1.82061e-06
4.60871e-07
1.82022e-06
1.82058e-06
1.14078e-06
5.80645e-06
1.14098e-06
5.80618e-06
2.02642e-05
2.02642e-05
1.14067e-06
5.80727e-06
1.14084e-06
5.80699e-06
4.53965e-07
4.53965e-07
4.53965e-07
4.53962e-07
4.53962e-07
4.53962e-07
4.53962e-07
5.46746e-07
9.7517e-07
4.54456e-07
4.56724e-07
5.46811e-07
9.74904e-07
4.5446e-07
2.02671e-05
2.02664e-05
5.46742e-07
4.54456e-07
9.75115e-07
4.56725e-07
5.46804e-07
4.5446e-07
9.7487e-07
1.82041e-06
1.82075e-06
4.60856e-07
1.82019e-06
1.82055e-06
1.14078e-06
5.80642e-06
1.14098e-06
5.80618e-06
2.02642e-05
2.02642e-05
1.14067e-06
5.80725e-06
1.14084e-06
5.80699e-06
4.53965e-07
4.53965e-07
4.53965e-07
4.53962e-07
4.53962e-07
4.53962e-07
4.53962e-07
5.46748e-07
9.75169e-07
4.54457e-07
4.56724e-07
5.46809e-07
9.74904e-07
4.5446e-07
2.0267e-05
2.02664e-05
5.46744e-07
4.54457e-07
9.75113e-07
4.56725e-07
5.46803e-07
4.5446e-07
9.74871e-07
1.82039e-06
1.82075e-06
4.60856e-07
1.82019e-06
1.82055e-06
1.14078e-06
5.80642e-06
1.14098e-06
5.80618e-06
2.02642e-05
2.02642e-05
1.14067e-06
5.80725e-06
1.14084e-06
5.80699e-06
4.53965e-07
4.53965e-07
4.53965e-07
4.53962e-07
4.53962e-07
4.53962e-07
4.53962e-07
5.46748e-07
9.75169e-07
4.54457e-07
4.56724e-07
5.46809e-07
9.74904e-07
4.5446e-07
2.0267e-05
2.02664e-05
5.46745e-07
4.54457e-07
9.75113e-07
4.56725e-07
5.46802e-07
4.5446e-07
9.74871e-07
1.82039e-06
1.82075e-06
4.60856e-07
1.82019e-06
1.82055e-06
1.14078e-06
5.80642e-06
1.14098e-06
5.80618e-06
2.02642e-05
2.02642e-05
1.14067e-06
5.80725e-06
1.14084e-06
5.80699e-06
4.53965e-07
4.53965e-07
4.53965e-07
4.53962e-07
4.53962e-07
4.53962e-07
4.53962e-07
5.46748e-07
9.75169e-07
4.54457e-07
4.56724e-07
5.46809e-07
9.74904e-07
4.5446e-07
2.0267e-05
2.02664e-05
5.46745e-07
4.54457e-07
9.75113e-07
4.56725e-07
5.46802e-07
4.5446e-07
9.74871e-07
1.82039e-06
1.82075e-06
4.60856e-07
1.82019e-06
1.82055e-06
1.14078e-06
5.80642e-06
1.14098e-06
5.80618e-06
2.02642e-05
2.02642e-05
1.14067e-06
5.80725e-06
1.14084e-06
5.80699e-06
4.53965e-07
4.53965e-07
4.53965e-07
4.53962e-07
4.53962e-07
4.53962e-07
4.53962e-07
5.46748e-07
9.75169e-07
4.54457e-07
4.56724e-07
5.46809e-07
9.74904e-07
4.5446e-07
2.0267e-05
2.02664e-05
5.46745e-07
4.54457e-07
9.75113e-07
4.56725e-07
5.46802e-07
4.5446e-07
9.74871e-07
1.82039e-06
1.82075e-06
4.60856e-07
1.82019e-06
1.82055e-06
1.14078e-06
5.80642e-06
1.14098e-06
5.80618e-06
2.02642e-05
2.02642e-05
1.14067e-06
5.80724e-06
1.14084e-06
5.80699e-06
4.53965e-07
4.53966e-07
4.53965e-07
4.53962e-07
4.53962e-07
4.53962e-07
4.53962e-07
5.46748e-07
9.75169e-07
4.54457e-07
4.56724e-07
5.46808e-07
9.74904e-07
4.5446e-07
2.0267e-05
2.02664e-05
5.46745e-07
4.54457e-07
9.75113e-07
4.56725e-07
5.46803e-07
4.5446e-07
9.74871e-07
1.82039e-06
1.82075e-06
4.60856e-07
1.82019e-06
1.82055e-06
1.14078e-06
5.80642e-06
1.14098e-06
5.80617e-06
2.02642e-05
2.02642e-05
1.14067e-06
5.80724e-06
1.14084e-06
5.80699e-06
4.53965e-07
4.53965e-07
4.53965e-07
4.53962e-07
4.53962e-07
4.53962e-07
4.53962e-07
5.46748e-07
9.75169e-07
4.54457e-07
4.56724e-07
5.46808e-07
9.74904e-07
4.5446e-07
2.0267e-05
2.02664e-05
5.46745e-07
4.54457e-07
9.75113e-07
4.56725e-07
5.46803e-07
4.5446e-07
9.74871e-07
1.82039e-06
1.82075e-06
4.60856e-07
1.82019e-06
1.82055e-06
1.14078e-06
5.80642e-06
1.14098e-06
5.80618e-06
2.02642e-05
2.02643e-05
1.14067e-06
5.80725e-06
1.14084e-06
5.80699e-06
4.53965e-07
4.53965e-07
4.53965e-07
4.53962e-07
4.53962e-07
4.53962e-07
4.53962e-07
5.46748e-07
9.75169e-07
4.54457e-07
4.56724e-07
5.46808e-07
9.74904e-07
4.5446e-07
2.0267e-05
2.02664e-05
5.46744e-07
4.54457e-07
9.75115e-07
4.56725e-07
5.46803e-07
4.5446e-07
9.7487e-07
1.82039e-06
1.82075e-06
4.60856e-07
1.82019e-06
1.82055e-06
1.14078e-06
5.80641e-06
1.14098e-06
5.80619e-06
2.02648e-05
2.02648e-05
1.14067e-06
5.8072e-06
1.14084e-06
5.80695e-06
4.53965e-07
4.53965e-07
4.53965e-07
4.53962e-07
4.53962e-07
4.53962e-07
4.53962e-07
5.46749e-07
9.75169e-07
4.54457e-07
4.56724e-07
5.46808e-07
9.74904e-07
4.5446e-07
2.0267e-05
2.02664e-05
5.46744e-07
4.54457e-07
9.75115e-07
4.56725e-07
5.46803e-07
4.5446e-07
9.7487e-07
1.82039e-06
1.82075e-06
4.60856e-07
1.82019e-06
1.82055e-06
1.14078e-06
5.80635e-06
1.14098e-06
5.80613e-06
2.0265e-05
2.02649e-05
1.14067e-06
5.80722e-06
1.14084e-06
5.80704e-06
4.53965e-07
4.53965e-07
4.53965e-07
4.53962e-07
4.53962e-07
4.53962e-07
4.53962e-07
5.46749e-07
9.75169e-07
4.54457e-07
4.56724e-07
5.46808e-07
9.74904e-07
4.5446e-07
2.0267e-05
2.02664e-05
5.46746e-07
4.54457e-07
9.75115e-07
4.56725e-07
5.46807e-07
4.5446e-07
9.7487e-07
1.82039e-06
1.82075e-06
4.60856e-07
1.82019e-06
1.82055e-06
1.14078e-06
5.80634e-06
1.14098e-06
5.80614e-06
2.02649e-05
2.0265e-05
1.14067e-06
5.80727e-06
1.14084e-06
5.80705e-06
4.53965e-07
4.53965e-07
4.53965e-07
4.53962e-07
4.53962e-07
4.53962e-07
4.53962e-07
5.46748e-07
9.75169e-07
4.54457e-07
4.56724e-07
5.46808e-07
9.74904e-07
4.5446e-07
2.0267e-05
2.02664e-05
5.46747e-07
4.54457e-07
9.75114e-07
4.56725e-07
5.4681e-07
4.5446e-07
9.74869e-07
1.82039e-06
1.82075e-06
4.60856e-07
1.82019e-06
1.82055e-06
1.14078e-06
5.80634e-06
1.14098e-06
5.80614e-06
2.02649e-05
2.0265e-05
1.14067e-06
5.80727e-06
1.14084e-06
5.80704e-06
4.53965e-07
4.53965e-07
4.53965e-07
4.53962e-07
4.53962e-07
4.53962e-07
4.53962e-07
5.46748e-07
9.75169e-07
4.54457e-07
4.56724e-07
5.46808e-07
9.74904e-07
4.5446e-07
2.0267e-05
2.02664e-05
5.46749e-07
4.54457e-07
9.75114e-07
4.56725e-07
5.46808e-07
4.5446e-07
9.74869e-07
1.82039e-06
1.82075e-06
4.60856e-07
1.82019e-06
1.82055e-06
1.14078e-06
5.80634e-06
1.14098e-06
5.80613e-06
2.0265e-05
2.0265e-05
1.14067e-06
5.80727e-06
1.14084e-06
5.80705e-06
4.53965e-07
4.53965e-07
4.53965e-07
4.53962e-07
4.53962e-07
4.53962e-07
4.53962e-07
5.46748e-07
9.75169e-07
4.54457e-07
4.56724e-07
5.46808e-07
9.74904e-07
4.5446e-07
2.0267e-05
2.02664e-05
5.46748e-07
4.54457e-07
9.75114e-07
4.56725e-07
5.4681e-07
4.5446e-07
9.74869e-07
1.82039e-06
1.82075e-06
4.60856e-07
1.82019e-06
1.82055e-06
1.14078e-06
5.80634e-06
1.14098e-06
5.80614e-06
2.0265e-05
2.0265e-05
1.14067e-06
5.80727e-06
1.14084e-06
5.80705e-06
4.53965e-07
4.53965e-07
4.53965e-07
4.53962e-07
4.53962e-07
4.53962e-07
4.53962e-07
5.46748e-07
9.75169e-07
4.54457e-07
4.56724e-07
5.46809e-07
9.74904e-07
4.5446e-07
2.0267e-05
2.02664e-05
5.46748e-07
4.54457e-07
9.75114e-07
4.56725e-07
5.4681e-07
4.5446e-07
9.7487e-07
1.82039e-06
1.82075e-06
4.60856e-07
1.82019e-06
1.82055e-06
1.14078e-06
5.80634e-06
1.14098e-06
5.80613e-06
2.0265e-05
2.0265e-05
1.14068e-06
5.80727e-06
1.14084e-06
5.80704e-06
4.53965e-07
4.53965e-07
4.53965e-07
4.53963e-07
4.53962e-07
4.53962e-07
4.53962e-07
5.46748e-07
9.7517e-07
4.54457e-07
4.56724e-07
5.46808e-07
9.74905e-07
4.5446e-07
2.0267e-05
2.02664e-05
5.46748e-07
4.54457e-07
9.75115e-07
4.56725e-07
5.46811e-07
4.5446e-07
9.7487e-07
1.8204e-06
1.82075e-06
4.60856e-07
1.82019e-06
1.82055e-06
5.80634e-06
1.14098e-06
2.0265e-05
5.80727e-06
1.14084e-06
4.53966e-07
4.53967e-07
4.53967e-07
9.7517e-07
4.54461e-07
5.46808e-07
2.0267e-05
4.54462e-07
9.75115e-07
5.4681e-07
1.8204e-06
1.82076e-06
2.02238e-05
2.02274e-05
2.02274e-05
2.02303e-05
4.61109e-07
1.81724e-06
1.81743e-06
1.8174e-06
1.81738e-06
1.13947e-06
5.79824e-06
5.79815e-06
1.13922e-06
1.13946e-06
5.79823e-06
5.79831e-06
1.13922e-06
5.46688e-07
4.56988e-07
9.73836e-07
4.5474e-07
9.74289e-07
4.54741e-07
5.46597e-07
5.46684e-07
4.56989e-07
9.73816e-07
4.5474e-07
9.74249e-07
4.54741e-07
5.46597e-07
2.02255e-05
1.81714e-06
1.81704e-06
2.02233e-05
1.13934e-06
5.79906e-06
5.79897e-06
1.13913e-06
5.4668e-07
4.56987e-07
9.7387e-07
4.5474e-07
9.74289e-07
4.54741e-07
5.46593e-07
1.13936e-06
5.79925e-06
5.79926e-06
1.13916e-06
5.46686e-07
4.5699e-07
4.5474e-07
9.73989e-07
4.54741e-07
9.74444e-07
5.46599e-07
9.73763e-07
4.5474e-07
4.54741e-07
5.46597e-07
5.79811e-06
1.13916e-06
4.56988e-07
4.54741e-07
9.73692e-07
4.54742e-07
5.46599e-07
5.79855e-06
1.13916e-06
2.02284e-05
2.0231e-05
4.6111e-07
1.81778e-06
1.81711e-06
1.81785e-06
1.81707e-06
2.02263e-05
2.0229e-05
5.46678e-07
4.56986e-07
4.5474e-07
9.73778e-07
4.54741e-07
9.74199e-07
5.46591e-07
5.46682e-07
4.56988e-07
4.5474e-07
9.73866e-07
4.54741e-07
9.74294e-07
5.46591e-07
1.13934e-06
5.79885e-06
5.79892e-06
1.13914e-06
1.13934e-06
5.799e-06
5.79907e-06
1.13913e-06
4.6111e-07
1.81691e-06
1.81746e-06
1.8174e-06
2.02266e-05
2.02277e-05
2.02304e-05
2.02236e-05
2.02232e-05
2.02265e-05
2.02265e-05
1.81751e-06
1.81745e-06
4.61071e-07
1.81736e-06
1.8175e-06
2.02533e-05
2.02247e-05
2.02569e-05
2.02279e-05
4.61115e-07
1.81933e-06
1.8196e-06
1.81786e-06
1.81769e-06
1.13926e-06
5.79823e-06
1.13934e-06
5.79831e-06
5.46604e-07
9.74044e-07
4.54739e-07
4.56981e-07
5.46652e-07
9.73881e-07
4.54733e-07
5.46603e-07
9.73998e-07
4.54739e-07
4.56983e-07
5.46652e-07
9.73844e-07
4.54733e-07
1.13952e-06
5.80399e-06
5.79845e-06
1.14016e-06
1.13951e-06
5.80328e-06
5.79841e-06
1.14015e-06
5.46673e-07
4.56962e-07
9.74469e-07
4.54648e-07
9.74192e-07
4.54713e-07
5.46681e-07
5.46673e-07
4.56966e-07
9.74338e-07
4.54649e-07
9.74101e-07
4.54714e-07
5.46681e-07
1.81729e-06
1.81731e-06
4.61088e-07
1.81725e-06
1.81718e-06
2.02233e-05
2.02217e-05
2.02308e-05
2.02221e-05
4.61134e-07
1.81791e-06
1.81779e-06
1.81729e-06
1.81744e-06
2.02282e-05
2.02217e-05
5.466e-07
9.74056e-07
4.54739e-07
4.56979e-07
5.46648e-07
9.7391e-07
4.54733e-07
1.1392e-06
5.79926e-06
1.13924e-06
5.79932e-06
5.46607e-07
4.54739e-07
9.74197e-07
4.56982e-07
5.46655e-07
4.54733e-07
9.74042e-07
1.13937e-06
5.80482e-06
5.79927e-06
1.1401e-06
5.46668e-07
4.56961e-07
9.74514e-07
4.54648e-07
9.742e-07
4.54713e-07
5.46681e-07
1.13939e-06
5.8051e-06
5.79956e-06
1.14011e-06
5.46675e-07
4.56964e-07
4.54648e-07
9.74634e-07
4.54713e-07
9.74354e-07
5.46685e-07
1.13919e-06
5.79811e-06
1.13929e-06
5.79821e-06
5.46601e-07
4.5474e-07
9.73892e-07
4.56981e-07
5.46654e-07
4.54734e-07
9.73745e-07
1.13919e-06
5.79855e-06
1.13929e-06
5.79868e-06
5.46657e-07
4.56981e-07
9.74034e-07
4.54656e-07
9.73996e-07
4.54714e-07
5.46649e-07
1.13938e-06
5.79935e-06
5.79821e-06
1.13978e-06
5.46659e-07
4.56964e-07
4.54652e-07
9.74206e-07
4.54715e-07
9.73993e-07
5.46651e-07
1.13938e-06
5.80225e-06
5.79868e-06
1.13978e-06
1.81801e-06
1.81715e-06
4.61072e-07
1.81785e-06
1.81718e-06
2.02254e-05
2.02253e-05
2.02571e-05
2.02283e-05
4.61116e-07
1.81987e-06
1.81927e-06
1.81831e-06
1.81737e-06
2.02558e-05
2.02266e-05
5.46598e-07
4.54739e-07
9.74052e-07
4.5698e-07
5.46652e-07
4.54733e-07
9.7391e-07
1.13918e-06
5.79884e-06
1.13923e-06
5.79896e-06
1.13917e-06
5.79899e-06
1.13922e-06
5.79912e-06
5.46666e-07
4.56958e-07
4.54645e-07
9.74441e-07
4.5471e-07
9.74115e-07
5.46674e-07
5.46669e-07
4.56962e-07
4.54648e-07
9.74511e-07
4.54713e-07
9.74202e-07
5.46674e-07
1.13937e-06
5.80481e-06
5.7992e-06
1.14009e-06
1.13937e-06
5.80486e-06
5.79932e-06
1.14009e-06
2.02258e-05
2.02247e-05
2.02268e-05
2.02266e-05
4.61116e-07
1.81857e-06
1.81965e-06
1.81711e-06
1.81773e-06
2.02442e-05
2.02247e-05
2.02568e-05
2.02278e-05
2.02604e-05
2.02631e-05
2.02632e-05
2.02664e-05
1.82041e-06
1.82051e-06
4.60871e-07
1.82048e-06
1.82056e-06
2.02626e-05
2.02622e-05
2.02659e-05
2.02652e-05
4.60912e-07
1.82046e-06
1.82052e-06
1.82074e-06
1.82058e-06
1.14077e-06
5.80531e-06
1.14071e-06
5.80648e-06
5.4675e-07
9.74923e-07
4.54556e-07
4.56765e-07
5.46772e-07
9.74912e-07
4.54501e-07
5.4675e-07
9.74765e-07
4.54557e-07
4.56769e-07
5.46773e-07
9.74865e-07
4.54502e-07
1.14091e-06
5.80629e-06
5.80622e-06
1.14078e-06
1.14091e-06
5.80633e-06
5.80645e-06
1.14078e-06
5.46808e-07
4.56734e-07
9.74938e-07
4.54458e-07
9.75148e-07
4.54468e-07
5.46753e-07
5.46809e-07
4.56736e-07
9.74918e-07
4.54458e-07
9.75088e-07
4.54468e-07
5.46753e-07
1.81901e-06
1.81902e-06
4.609e-07
1.82045e-06
1.82025e-06
2.02424e-05
2.02618e-05
2.02636e-05
2.02636e-05
4.60933e-07
1.82045e-06
1.82044e-06
1.82054e-06
1.82065e-06
2.02621e-05
2.02619e-05
5.46751e-07
9.74935e-07
4.54556e-07
4.56764e-07
5.46772e-07
9.74932e-07
4.54501e-07
1.1407e-06
5.80683e-06
1.14064e-06
5.80744e-06
5.46755e-07
4.54557e-07
9.75088e-07
4.56767e-07
5.46777e-07
4.54502e-07
9.7507e-07
1.14078e-06
5.8071e-06
5.80703e-06
1.14067e-06
5.46809e-07
4.56733e-07
9.74955e-07
4.54458e-07
9.75146e-07
4.54468e-07
5.46746e-07
1.1408e-06
5.80732e-06
5.80735e-06
1.1407e-06
5.46812e-07
4.56736e-07
4.54458e-07
9.75094e-07
4.54468e-07
9.75305e-07
5.46754e-07
1.14077e-06
5.8021e-06
1.14044e-06
5.80637e-06
5.46743e-07
4.5456e-07
9.74676e-07
4.56767e-07
5.46744e-07
4.54503e-07
9.74822e-07
1.14077e-06
5.80495e-06
1.14045e-06
5.807e-06
5.46804e-07
4.56754e-07
9.74901e-07
4.54459e-07
9.75051e-07
4.54472e-07
5.46755e-07
1.14092e-06
5.8065e-06
5.80651e-06
1.14079e-06
5.46806e-07
4.56735e-07
4.54458e-07
9.74879e-07
4.54469e-07
9.75052e-07
5.46757e-07
1.14092e-06
5.8069e-06
5.8069e-06
1.14079e-06
1.82092e-06
1.82019e-06
4.60872e-07
1.821e-06
1.82023e-06
2.0262e-05
2.02651e-05
2.02665e-05
2.02663e-05
4.60912e-07
1.82095e-06
1.8202e-06
1.82121e-06
1.82028e-06
2.02648e-05
2.02641e-05
5.46747e-07
4.54557e-07
9.74937e-07
4.56764e-07
5.46771e-07
4.54501e-07
9.74931e-07
1.14068e-06
5.80648e-06
1.14062e-06
5.80709e-06
1.14068e-06
5.80657e-06
1.14062e-06
5.80724e-06
5.46804e-07
4.56734e-07
4.54458e-07
9.74871e-07
4.5447e-07
9.75054e-07
5.46747e-07
5.46811e-07
4.56733e-07
4.54458e-07
9.74957e-07
4.54468e-07
9.75147e-07
5.46748e-07
1.14079e-06
5.80697e-06
5.80701e-06
1.14069e-06
1.14079e-06
5.80712e-06
5.80712e-06
1.14068e-06
2.02559e-05
2.02654e-05
2.02633e-05
2.02666e-05
4.60911e-07
1.8202e-06
1.82055e-06
1.82028e-06
1.82062e-06
2.0265e-05
2.02646e-05
2.02662e-05
2.02656e-05
2.02618e-05
2.02629e-05
2.02654e-05
2.02662e-05
1.82069e-06
1.82057e-06
4.60854e-07
1.82044e-06
1.82053e-06
2.02626e-05
2.0262e-05
2.02658e-05
2.02651e-05
4.60904e-07
1.82046e-06
1.82051e-06
1.8207e-06
1.82056e-06
1.14077e-06
5.80624e-06
1.14091e-06
5.80634e-06
5.4675e-07
9.75158e-07
4.5446e-07
4.56726e-07
5.46805e-07
9.74938e-07
4.5446e-07
5.46748e-07
9.75112e-07
4.5446e-07
4.56726e-07
5.46804e-07
9.74923e-07
4.5446e-07
1.14091e-06
5.80623e-06
5.80605e-06
1.14078e-06
1.14091e-06
5.80633e-06
5.8062e-06
1.14078e-06
5.46806e-07
4.56724e-07
9.74937e-07
4.54457e-07
9.75157e-07
4.54458e-07
5.46749e-07
5.46805e-07
4.56724e-07
9.7492e-07
4.54457e-07
9.75116e-07
4.54458e-07
5.46751e-07
1.82051e-06
1.82065e-06
4.6085e-07
1.82046e-06
1.82038e-06
2.02613e-05
2.02622e-05
2.02636e-05
2.02637e-05
4.609e-07
1.82043e-06
1.8204e-06
1.82051e-06
1.82064e-06
2.0262e-05
2.02613e-05
5.46743e-07
9.75154e-07
4.5446e-07
4.56725e-07
5.46797e-07
9.74956e-07
4.5446e-07
1.1407e-06
5.80724e-06
1.1408e-06
5.80729e-06
5.4675e-07
4.5446e-07
9.75311e-07
4.56728e-07
5.46805e-07
4.5446e-07
9.75095e-07
1.14078e-06
5.80705e-06
5.80687e-06
1.14067e-06
5.46802e-07
4.56723e-07
9.74954e-07
4.54457e-07
9.75154e-07
4.54458e-07
5.46746e-07
1.1408e-06
5.8073e-06
5.80714e-06
1.1407e-06
5.46807e-07
4.56726e-07
4.54457e-07
9.75095e-07
4.54458e-07
9.75313e-07
5.46752e-07
1.14079e-06
5.80646e-06
1.14092e-06
5.80642e-06
5.46746e-07
4.5446e-07
9.75075e-07
4.56726e-07
5.46808e-07
4.5446e-07
9.74878e-07
1.14078e-06
5.80677e-06
1.14092e-06
5.80687e-06
5.46802e-07
4.56723e-07
9.74904e-07
4.54457e-07
9.75119e-07
4.54459e-07
5.46751e-07
1.14092e-06
5.80642e-06
5.80627e-06
1.14079e-06
5.46802e-07
4.56724e-07
4.54457e-07
9.74876e-07
4.54458e-07
9.75075e-07
5.46753e-07
1.14092e-06
5.80684e-06
5.80672e-06
1.14079e-06
1.82114e-06
1.82026e-06
4.60855e-07
1.82091e-06
1.82021e-06
2.02644e-05
2.02649e-05
2.02663e-05
2.02659e-05
4.60904e-07
1.82096e-06
1.82019e-06
1.82114e-06
1.82026e-06
2.02645e-05
2.02638e-05
5.46739e-07
4.5446e-07
9.75155e-07
4.56725e-07
5.46804e-07
4.5446e-07
9.74958e-07
1.14068e-06
5.80689e-06
1.14079e-06
5.80695e-06
1.14067e-06
5.80701e-06
1.14078e-06
5.80712e-06
5.46798e-07
4.56724e-07
4.54457e-07
9.74869e-07
4.54459e-07
9.75063e-07
5.46745e-07
5.46802e-07
4.56723e-07
4.54457e-07
9.74957e-07
4.54457e-07
9.75158e-07
5.46746e-07
1.14079e-06
5.80693e-06
5.80681e-06
1.14069e-06
1.14078e-06
5.8071e-06
5.80696e-06
1.14068e-06
2.02645e-05
2.02651e-05
2.02658e-05
2.02663e-05
4.60904e-07
1.82019e-06
1.82055e-06
1.82024e-06
1.8206e-06
2.02647e-05
2.02641e-05
2.02659e-05
2.02653e-05
2.02619e-05
2.02628e-05
2.02654e-05
2.02662e-05
1.82069e-06
1.82056e-06
4.60853e-07
1.82044e-06
1.82052e-06
2.02626e-05
2.0262e-05
2.02658e-05
2.02651e-05
4.60902e-07
1.82045e-06
1.82051e-06
1.8207e-06
1.82056e-06
1.14077e-06
5.80623e-06
1.14091e-06
5.80635e-06
5.46754e-07
9.75157e-07
4.5446e-07
4.56726e-07
5.46803e-07
9.74938e-07
4.5446e-07
5.4675e-07
9.75112e-07
4.5446e-07
4.56727e-07
5.46804e-07
9.74923e-07
4.5446e-07
1.14091e-06
5.80623e-06
5.80605e-06
1.14078e-06
1.14091e-06
5.80632e-06
5.80622e-06
1.14078e-06
5.46807e-07
4.56724e-07
9.74936e-07
4.54457e-07
9.75156e-07
4.54458e-07
5.46747e-07
5.46806e-07
4.56725e-07
9.74919e-07
4.54457e-07
9.75115e-07
4.54458e-07
5.46749e-07
1.8205e-06
1.82063e-06
4.60851e-07
1.82045e-06
1.8204e-06
2.02613e-05
2.02622e-05
2.02636e-05
2.02637e-05
4.609e-07
1.82043e-06
1.8204e-06
1.82051e-06
1.82065e-06
2.0262e-05
2.02613e-05
5.46745e-07
9.75153e-07
4.5446e-07
4.56725e-07
5.46799e-07
9.74956e-07
4.5446e-07
1.1407e-06
5.80719e-06
1.1408e-06
5.8073e-06
5.46752e-07
4.5446e-07
9.75312e-07
4.56729e-07
5.46806e-07
4.5446e-07
9.75096e-07
1.14078e-06
5.80705e-06
5.80687e-06
1.14067e-06
5.46802e-07
4.56723e-07
9.74954e-07
4.54457e-07
9.75153e-07
4.54458e-07
5.46744e-07
1.1408e-06
5.80731e-06
5.80715e-06
1.1407e-06
5.46808e-07
4.56727e-07
4.54457e-07
9.75095e-07
4.54458e-07
9.75314e-07
5.46751e-07
1.14078e-06
5.80632e-06
1.14092e-06
5.80643e-06
5.46748e-07
4.5446e-07
9.75072e-07
4.56727e-07
5.46807e-07
4.5446e-07
9.74878e-07
1.14078e-06
5.80672e-06
1.14092e-06
5.80688e-06
5.46802e-07
4.56724e-07
9.74904e-07
4.54457e-07
9.75119e-07
4.54459e-07
5.4675e-07
1.14092e-06
5.80642e-06
5.80628e-06
1.14079e-06
5.46803e-07
4.56725e-07
4.54457e-07
9.74876e-07
4.54458e-07
9.75075e-07
5.46752e-07
1.14092e-06
5.80685e-06
5.80673e-06
1.14079e-06
1.82115e-06
1.82025e-06
4.60854e-07
1.82091e-06
1.8202e-06
2.02643e-05
2.02648e-05
2.02663e-05
2.0266e-05
4.60903e-07
1.82096e-06
1.82019e-06
1.82114e-06
1.82026e-06
2.02645e-05
2.02637e-05
5.46742e-07
4.5446e-07
9.75155e-07
4.56726e-07
5.46805e-07
4.5446e-07
9.74958e-07
1.14068e-06
5.80682e-06
1.14079e-06
5.80697e-06
1.14067e-06
5.80697e-06
1.14078e-06
5.80712e-06
5.46798e-07
4.56724e-07
4.54457e-07
9.7487e-07
4.5446e-07
9.75064e-07
5.46744e-07
5.46802e-07
4.56723e-07
4.54457e-07
9.74956e-07
4.54457e-07
9.75157e-07
5.46744e-07
1.14078e-06
5.80695e-06
5.80684e-06
1.14069e-06
1.14078e-06
5.80709e-06
5.80697e-06
1.14068e-06
2.02645e-05
2.02651e-05
2.02658e-05
2.02663e-05
4.60904e-07
1.82019e-06
1.82055e-06
1.82024e-06
1.8206e-06
2.02647e-05
2.0264e-05
2.02659e-05
2.02653e-05
2.02619e-05
2.02629e-05
2.02654e-05
2.02662e-05
1.82068e-06
1.82056e-06
4.60853e-07
1.82045e-06
1.82052e-06
2.02625e-05
2.0262e-05
2.02658e-05
2.02651e-05
4.60902e-07
1.82045e-06
1.82051e-06
1.8207e-06
1.82056e-06
1.14077e-06
5.80622e-06
1.14091e-06
5.80634e-06
5.46754e-07
9.75157e-07
4.5446e-07
4.56726e-07
5.46803e-07
9.74938e-07
4.5446e-07
5.4675e-07
9.75112e-07
4.5446e-07
4.56727e-07
5.46804e-07
9.74923e-07
4.5446e-07
1.14091e-06
5.80623e-06
5.80605e-06
1.14078e-06
1.14091e-06
5.80631e-06
5.80621e-06
1.14078e-06
5.46807e-07
4.56724e-07
9.74936e-07
4.54457e-07
9.75156e-07
4.54458e-07
5.46747e-07
5.46805e-07
4.56725e-07
9.74919e-07
4.54457e-07
9.75115e-07
4.54458e-07
5.4675e-07
1.8205e-06
1.82063e-06
4.60852e-07
1.82045e-06
1.8204e-06
2.02613e-05
2.02622e-05
2.02636e-05
2.02637e-05
4.609e-07
1.82043e-06
1.8204e-06
1.82051e-06
1.82065e-06
2.0262e-05
2.02613e-05
5.46746e-07
9.75153e-07
4.5446e-07
4.56725e-07
5.46798e-07
9.74956e-07
4.5446e-07
1.1407e-06
5.8072e-06
1.1408e-06
5.8073e-06
5.46752e-07
4.5446e-07
9.75311e-07
4.56729e-07
5.46806e-07
4.5446e-07
9.75096e-07
1.14078e-06
5.80705e-06
5.80687e-06
1.14067e-06
5.46802e-07
4.56723e-07
9.74954e-07
4.54457e-07
9.75153e-07
4.54458e-07
5.46744e-07
1.1408e-06
5.8073e-06
5.80715e-06
1.1407e-06
5.46808e-07
4.56726e-07
4.54457e-07
9.75095e-07
4.54458e-07
9.75314e-07
5.46751e-07
1.14078e-06
5.80633e-06
1.14092e-06
5.80643e-06
5.46749e-07
4.5446e-07
9.75073e-07
4.56727e-07
5.46806e-07
4.5446e-07
9.74878e-07
1.14078e-06
5.80673e-06
1.14092e-06
5.80688e-06
5.46802e-07
4.56723e-07
9.74904e-07
4.54457e-07
9.75119e-07
4.54459e-07
5.4675e-07
1.14092e-06
5.80642e-06
5.80628e-06
1.14079e-06
5.46803e-07
4.56725e-07
4.54457e-07
9.74876e-07
4.54457e-07
9.75075e-07
5.46752e-07
1.14092e-06
5.80685e-06
5.80673e-06
1.14079e-06
1.82115e-06
1.82025e-06
4.60855e-07
1.82091e-06
1.82021e-06
2.02643e-05
2.02648e-05
2.02663e-05
2.0266e-05
4.60902e-07
1.82096e-06
1.82019e-06
1.82114e-06
1.82026e-06
2.02645e-05
2.02637e-05
5.46744e-07
4.5446e-07
9.75155e-07
4.56726e-07
5.46804e-07
4.5446e-07
9.74958e-07
1.14068e-06
5.80686e-06
1.14079e-06
5.80697e-06
1.14067e-06
5.80697e-06
1.14078e-06
5.80712e-06
5.46799e-07
4.56724e-07
4.54457e-07
9.7487e-07
4.54459e-07
9.75064e-07
5.46744e-07
5.46803e-07
4.56723e-07
4.54457e-07
9.74956e-07
4.54458e-07
9.75157e-07
5.46745e-07
1.14078e-06
5.80695e-06
5.80684e-06
1.14069e-06
1.14078e-06
5.8071e-06
5.80697e-06
1.14068e-06
2.02645e-05
2.0265e-05
2.02658e-05
2.02663e-05
4.60904e-07
1.82019e-06
1.82055e-06
1.82024e-06
1.8206e-06
2.02647e-05
2.0264e-05
2.02659e-05
2.02653e-05
2.02619e-05
2.02629e-05
2.02654e-05
2.02662e-05
1.82068e-06
1.82056e-06
4.60853e-07
1.82045e-06
1.82052e-06
2.02625e-05
2.0262e-05
2.02658e-05
2.02651e-05
4.60902e-07
1.82045e-06
1.82051e-06
1.82071e-06
1.82056e-06
1.14077e-06
5.80621e-06
1.14091e-06
5.80634e-06
5.46754e-07
9.75157e-07
4.5446e-07
4.56726e-07
5.46803e-07
9.74938e-07
4.5446e-07
5.4675e-07
9.75112e-07
4.5446e-07
4.56727e-07
5.46805e-07
9.74923e-07
4.5446e-07
1.14091e-06
5.80623e-06
5.80605e-06
1.14078e-06
1.14091e-06
5.80631e-06
5.80621e-06
1.14078e-06
5.46807e-07
4.56724e-07
9.74937e-07
4.54457e-07
9.75156e-07
4.54458e-07
5.46747e-07
5.46805e-07
4.56725e-07
9.74919e-07
4.54457e-07
9.75115e-07
4.54458e-07
5.4675e-07
1.8205e-06
1.82063e-06
4.60852e-07
1.82045e-06
1.8204e-06
2.02613e-05
2.02622e-05
2.02636e-05
2.02637e-05
4.609e-07
1.82044e-06
1.8204e-06
1.82051e-06
1.82065e-06
2.0262e-05
2.02613e-05
5.46746e-07
9.75153e-07
4.5446e-07
4.56725e-07
5.46798e-07
9.74956e-07
4.5446e-07
1.1407e-06
5.8072e-06
1.1408e-06
5.8073e-06
5.46752e-07
4.5446e-07
9.75311e-07
4.56729e-07
5.46806e-07
4.5446e-07
9.75096e-07
1.14078e-06
5.80705e-06
5.80687e-06
1.14067e-06
5.46802e-07
4.56723e-07
9.74954e-07
4.54457e-07
9.75153e-07
4.54458e-07
5.46744e-07
1.1408e-06
5.80731e-06
5.80715e-06
1.1407e-06
5.46808e-07
4.56726e-07
4.54457e-07
9.75095e-07
4.54458e-07
9.75314e-07
5.46751e-07
1.14078e-06
5.80633e-06
1.14092e-06
5.80643e-06
5.46749e-07
4.5446e-07
9.75073e-07
4.56727e-07
5.46807e-07
4.5446e-07
9.74878e-07
1.14078e-06
5.80673e-06
1.14092e-06
5.80688e-06
5.46802e-07
4.56723e-07
9.74904e-07
4.54457e-07
9.75119e-07
4.54459e-07
5.4675e-07
1.14092e-06