/*--------------------------------*- C++ -*----------------------------------*\
| =========                 |                                                 |
| \\      /  F ield         | OpenFOAM: The Open Source CFD Toolbox           |
|  \\    /   O peration     | Version:  2206                                  |
|   \\  /    A nd           | Website:  www.openfoam.com                      |
|    \\/     M anipulation  |                                                 |
\*---------------------------------------------------------------------------*/
FoamFile
{
    version     2.0;
    format      ascii;
    arch        "LSB;label=32;scalar=64";
    class       volScalarField;
    location    "17.5";
    object      epsilon;
}
// * * * * * * * * * * * * * * * * * * * * * * * * * * * * * * * * * * * * * //

dimensions      [0 2 -3 0 0 0 0];

internalField   nonuniform List<scalar> 
28673
(
3.69542e-07
3.94567e-07
3.52089e-07
3.69545e-07
3.69552e-07
3.94586e-07
3.52087e-07
3.69548e-07
3.69555e-07
3.94592e-07
3.52084e-07
3.69545e-07
3.69554e-07
3.94597e-07
3.52004e-07
3.69433e-07
3.69487e-07
3.94547e-07
3.519e-07
3.69385e-07
3.69394e-07
3.94454e-07
3.51897e-07
3.69385e-07
3.69392e-07
3.94471e-07
3.51897e-07
3.69385e-07
3.69392e-07
3.94463e-07
3.51897e-07
3.69384e-07
3.69391e-07
3.94465e-07
3.51897e-07
3.69382e-07
3.69389e-07
3.94464e-07
3.51896e-07
3.69381e-07
3.69388e-07
3.9446e-07
3.51901e-07
3.69393e-07
3.694e-07
3.94434e-07
3.51512e-07
3.66075e-07
3.66077e-07
3.89891e-07
3.69561e-07
3.94363e-07
3.69542e-07
3.9439e-07
3.69557e-07
3.69561e-07
3.69556e-07
3.6956e-07
3.94572e-07
3.94377e-07
3.69548e-07
3.69567e-07
3.69559e-07
3.69545e-07
3.69558e-07
3.94388e-07
3.69549e-07
3.69552e-07
3.69548e-07
3.94383e-07
3.94594e-07
3.94393e-07
3.69561e-07
3.69564e-07
3.69561e-07
3.69563e-07
3.94583e-07
3.94383e-07
3.69552e-07
3.6957e-07
3.69551e-07
3.69569e-07
3.69562e-07
3.69548e-07
3.69561e-07
3.94592e-07
3.94395e-07
3.69552e-07
3.69555e-07
3.69552e-07
3.9439e-07
3.94597e-07
3.94394e-07
3.69564e-07
3.69567e-07
3.69563e-07
3.69564e-07
3.94588e-07
3.94386e-07
3.69554e-07
3.69573e-07
3.69549e-07
3.69569e-07
3.69565e-07
3.69548e-07
3.69562e-07
3.94599e-07
3.94399e-07
3.69555e-07
3.69555e-07
3.69552e-07
3.94396e-07
3.94597e-07
3.94379e-07
3.69562e-07
3.69561e-07
3.69517e-07
3.69486e-07
3.9459e-07
3.94322e-07
3.69549e-07
3.69569e-07
3.69531e-07
3.6955e-07
3.6956e-07
3.69471e-07
3.69508e-07
3.94603e-07
3.94389e-07
3.69551e-07
3.69528e-07
3.69498e-07
3.94364e-07
3.9457e-07
3.94257e-07
3.69476e-07
3.6945e-07
3.69404e-07
3.69403e-07
3.94509e-07
3.94242e-07
3.69495e-07
3.69516e-07
3.69402e-07
3.69422e-07
3.69467e-07
3.69386e-07
3.69404e-07
3.94583e-07
3.94266e-07
3.69457e-07
3.69402e-07
3.69394e-07
3.94253e-07
3.94456e-07
3.94258e-07
3.69402e-07
3.69404e-07
3.69399e-07
3.69402e-07
3.94448e-07
3.94258e-07
3.69394e-07
3.69414e-07
3.6939e-07
3.69409e-07
3.69404e-07
3.69386e-07
3.69401e-07
3.94463e-07
3.94265e-07
3.69394e-07
3.69392e-07
3.69392e-07
3.94267e-07
3.94465e-07
3.94258e-07
3.69402e-07
3.69405e-07
3.69399e-07
3.69402e-07
3.94463e-07
3.94249e-07
3.69393e-07
3.69412e-07
3.69389e-07
3.69409e-07
3.69404e-07
3.69385e-07
3.69401e-07
3.94472e-07
3.94266e-07
3.69394e-07
3.69392e-07
3.69391e-07
3.9426e-07
3.94461e-07
3.94261e-07
3.69401e-07
3.69404e-07
3.69398e-07
3.69401e-07
3.94456e-07
3.94251e-07
3.69391e-07
3.69411e-07
3.69389e-07
3.69409e-07
3.69403e-07
3.69384e-07
3.69401e-07
3.94468e-07
3.94268e-07
3.69393e-07
3.69392e-07
3.69391e-07
3.94264e-07
3.94464e-07
3.9426e-07
3.694e-07
3.69403e-07
3.69396e-07
3.69399e-07
3.94455e-07
3.94252e-07
3.69391e-07
3.69411e-07
3.69387e-07
3.69407e-07
3.69403e-07
3.69383e-07
3.69399e-07
3.94471e-07
3.94266e-07
3.69393e-07
3.6939e-07
3.69389e-07
3.94264e-07
3.94463e-07
3.94255e-07
3.69398e-07
3.69401e-07
3.69393e-07
3.69396e-07
3.94456e-07
3.94249e-07
3.69388e-07
3.69408e-07
3.69384e-07
3.69403e-07
3.694e-07
3.6938e-07
3.69395e-07
3.94469e-07
3.94264e-07
3.6939e-07
3.69387e-07
3.69385e-07
3.9426e-07
3.94458e-07
3.94232e-07
3.69396e-07
3.69397e-07
3.69364e-07
3.69365e-07
3.94452e-07
3.94225e-07
3.69386e-07
3.69405e-07
3.69353e-07
3.69372e-07
3.69397e-07
3.69349e-07
3.69366e-07
3.94465e-07
3.94239e-07
3.69387e-07
3.69355e-07
3.69353e-07
3.94236e-07
3.94433e-07
3.92354e-07
3.6941e-07
3.69411e-07
3.67419e-07
3.6742e-07
3.94426e-07
3.9235e-07
3.69399e-07
3.69419e-07
3.67411e-07
3.67423e-07
3.69413e-07
3.67408e-07
3.6742e-07
3.94438e-07
3.92357e-07
3.694e-07
3.67411e-07
3.67411e-07
3.92353e-07
3.89892e-07
3.66083e-07
3.66083e-07
3.89889e-07
3.66078e-07
3.66085e-07
3.51511e-07
3.51512e-07
3.51511e-07
3.66084e-07
3.89895e-07
3.66077e-07
1.60762e-06
8.29643e-06
1.60802e-06
8.29566e-06
2.468e-05
2.46773e-05
1.60756e-06
8.29694e-06
3.52091e-07
3.52089e-07
3.52089e-07
3.52089e-07
3.52091e-07
3.52087e-07
5.85391e-07
1.29414e-06
3.57199e-07
3.69545e-07
5.85501e-07
1.2936e-06
3.57199e-07
2.46807e-05
5.8543e-07
3.572e-07
3.69552e-07
5.85538e-07
3.572e-07
1.29349e-06
2.6759e-06
2.67645e-06
3.94378e-07
2.67535e-06
2.67592e-06
1.60763e-06
8.29578e-06
1.6081e-06
8.2953e-06
2.46753e-05
2.46742e-05
1.60753e-06
8.29713e-06
1.60799e-06
8.29663e-06
3.52089e-07
3.52091e-07
3.52087e-07
3.52087e-07
3.52087e-07
3.52089e-07
3.52085e-07
5.85419e-07
1.29423e-06
3.57198e-07
3.69549e-07
5.85534e-07
1.29366e-06
3.57202e-07
2.4678e-05
2.46757e-05
5.85454e-07
3.57198e-07
1.29413e-06
3.69556e-07
5.8557e-07
3.57202e-07
1.29362e-06
2.67586e-06
2.67643e-06
3.94388e-07
2.67548e-06
2.67606e-06
1.6076e-06
8.29553e-06
1.60805e-06
8.29512e-06
2.46743e-05
2.46739e-05
1.60746e-06
8.29687e-06
1.60787e-06
8.29641e-06
3.52087e-07
3.52089e-07
3.52085e-07
3.52085e-07
3.52084e-07
3.52086e-07
3.52082e-07
5.85416e-07
1.29424e-06
3.57199e-07
3.69551e-07
5.85546e-07
1.29365e-06
3.57199e-07
2.46752e-05
2.46744e-05
5.85452e-07
3.572e-07
1.29419e-06
3.69557e-07
5.85581e-07
3.57199e-07
1.29363e-06
2.67595e-06
2.67652e-06
3.94394e-07
2.67555e-06
2.67613e-06
1.60782e-06
8.29569e-06
1.60804e-06
8.29612e-06
2.46764e-05
2.46782e-05
1.6075e-06
8.29687e-06
1.60783e-06
8.29686e-06
3.52081e-07
3.52085e-07
3.52081e-07
3.52051e-07
3.5201e-07
3.52057e-07
3.52021e-07
5.8544e-07
1.29437e-06
3.57193e-07
3.69537e-07
5.85542e-07
1.29395e-06
3.57188e-07
2.46755e-05
2.46763e-05
5.85477e-07
3.57194e-07
1.29418e-06
3.69553e-07
5.85578e-07
3.57191e-07
1.29369e-06
2.67597e-06
2.67654e-06
3.94392e-07
2.6758e-06
2.67638e-06
1.60807e-06
8.29912e-06
1.6086e-06
8.29882e-06
2.46793e-05
2.46786e-05
1.60797e-06
8.29982e-06
1.60838e-06
8.30015e-06
3.51965e-07
3.52012e-07
3.51974e-07
3.5191e-07
3.51901e-07
3.51912e-07
3.51903e-07
5.85391e-07
1.29457e-06
3.57087e-07
3.69409e-07
5.85548e-07
1.29391e-06
3.57057e-07
2.46799e-05
2.46795e-05
5.8543e-07
3.57101e-07
1.29446e-06
3.69451e-07
5.8559e-07
3.57067e-07
1.2939e-06
2.67639e-06
2.67696e-06
3.94287e-07
2.67574e-06
2.67632e-06
1.60799e-06
8.29911e-06
1.60845e-06
8.29872e-06
2.4679e-05
2.46785e-05
1.60784e-06
8.30051e-06
1.60826e-06
8.30008e-06
3.51901e-07
3.51905e-07
3.51902e-07
3.51897e-07
3.51899e-07
3.519e-07
3.51899e-07
5.8537e-07
1.29445e-06
3.5702e-07
3.69387e-07
5.85496e-07
1.29386e-06
3.57022e-07
2.46798e-05
2.46791e-05
5.85407e-07
3.57022e-07
1.29439e-06
3.69394e-07
5.85533e-07
3.57024e-07
1.29382e-06
2.67606e-06
2.67663e-06
3.94258e-07
2.67562e-06
2.67619e-06
1.60799e-06
8.29908e-06
1.60844e-06
8.29871e-06
2.4679e-05
2.46785e-05
1.60783e-06
8.30045e-06
1.60823e-06
8.30006e-06
3.51901e-07
3.51903e-07
3.51901e-07
3.51897e-07
3.51898e-07
3.519e-07
3.51899e-07
5.85372e-07
1.29444e-06
3.5702e-07
3.69387e-07
5.85496e-07
1.29386e-06
3.57022e-07
2.46797e-05
2.46791e-05
5.85406e-07
3.57022e-07
1.29437e-06
3.69394e-07
5.85532e-07
3.57024e-07
1.29381e-06
2.67605e-06
2.67662e-06
3.94267e-07
2.67562e-06
2.67619e-06
1.60799e-06
8.29908e-06
1.60844e-06
8.29874e-06
2.4679e-05
2.46786e-05
1.60783e-06
8.30044e-06
1.60823e-06
8.30009e-06
3.519e-07
3.51902e-07
3.51901e-07
3.51897e-07
3.51898e-07
3.519e-07
3.51899e-07
5.85371e-07
1.29444e-06
3.5702e-07
3.69387e-07
5.85495e-07
1.29385e-06
3.57022e-07
2.46797e-05
2.46792e-05
5.85396e-07
3.57021e-07
1.29437e-06
3.69394e-07
5.85524e-07
3.57024e-07
1.29381e-06
2.67605e-06
2.67661e-06
3.94266e-07
2.67561e-06
2.67619e-06
1.60807e-06
8.29906e-06
1.6085e-06
8.29979e-06
2.46789e-05
2.46805e-05
1.60792e-06
8.30044e-06
1.60829e-06
8.30114e-06
3.519e-07
3.51902e-07
3.51901e-07
3.51897e-07
3.51898e-07
3.519e-07
3.51899e-07
5.85372e-07
1.29424e-06
3.5702e-07
3.69386e-07
5.85494e-07
1.29356e-06
3.57022e-07
2.46797e-05
2.46814e-05
5.85391e-07
3.57021e-07
1.29417e-06
3.69393e-07
5.85514e-07
3.57023e-07
1.29352e-06
2.67585e-06
2.67642e-06
3.94263e-07
2.67557e-06
2.67614e-06
1.60847e-06
8.29935e-06
1.60886e-06
8.30109e-06
2.46717e-05
2.46781e-05
1.60832e-06
8.30082e-06
1.60865e-06
8.3026e-06
3.519e-07
3.51902e-07
3.51901e-07
3.51897e-07
3.51898e-07
3.51899e-07
3.51899e-07
5.85371e-07
1.29363e-06
3.57019e-07
3.69383e-07
5.85485e-07
1.29314e-06
3.57021e-07
2.46736e-05
2.46802e-05
5.85388e-07
3.5702e-07
1.29368e-06
3.6939e-07
5.85503e-07
3.57022e-07
1.29326e-06
2.67663e-06
2.6772e-06
3.94261e-07
2.67785e-06
2.6784e-06
1.60968e-06
8.29695e-06
1.61028e-06
8.30219e-06
2.46575e-05
2.46676e-05
1.60953e-06
8.29834e-06
1.61006e-06
8.30356e-06
3.519e-07
3.51902e-07
3.51901e-07
3.51893e-07
3.51892e-07
3.51894e-07
3.51893e-07
5.85436e-07
1.29386e-06
3.57018e-07
3.69376e-07
5.85546e-07
1.29355e-06
3.5702e-07
2.46602e-05
2.46699e-05
5.85456e-07
3.57019e-07
1.29399e-06
3.69383e-07
5.85563e-07
3.57022e-07
1.29373e-06
2.67952e-06
2.68004e-06
3.94256e-07
2.68439e-06
2.68492e-06
1.60692e-06
8.29031e-06
1.61052e-06
8.29668e-06
2.46159e-05
2.46147e-05
1.60693e-06
8.29179e-06
1.61036e-06
8.29805e-06
3.51901e-07
3.51903e-07
3.51902e-07
3.51803e-07
3.51802e-07
3.51803e-07
3.51802e-07
5.84526e-07
1.29562e-06
3.56988e-07
3.69173e-07
5.8552e-07
1.29204e-06
3.57027e-07
2.46183e-05
2.46167e-05
5.8454e-07
3.5699e-07
1.29575e-06
3.69178e-07
5.85539e-07
3.57029e-07
1.29211e-06
2.68738e-06
2.68789e-06
3.93937e-07
2.70042e-06
2.70073e-06
1.19638e-06
7.34513e-06
1.58745e-06
3.38261e-06
1.96372e-05
7.46947e-06
1.19639e-06
7.34716e-06
1.58753e-06
3.38297e-06
3.49162e-07
3.49712e-07
3.49712e-07
3.52681e-07
3.49183e-07
3.49931e-07
3.49931e-07
5.56691e-07
1.23714e-06
3.56054e-07
3.63804e-07
5.7493e-07
1.23683e-06
3.54355e-07
1.96381e-05
7.46935e-06
5.56707e-07
3.56054e-07
1.23712e-06
3.63805e-07
5.74938e-07
3.54355e-07
1.2368e-06
2.66639e-06
2.6671e-06
3.84248e-07
2.30498e-06
2.30508e-06
8.29632e-06
1.29356e-06
2.46802e-05
2.67576e-06
2.67532e-06
2.46772e-05
1.29354e-06
8.296e-06
2.46804e-05
2.46774e-05
2.4681e-05
2.67577e-06
3.94382e-07
2.67525e-06
2.67584e-06
2.46749e-05
2.46773e-05
2.46781e-05
2.46808e-05
3.94591e-07
2.67531e-06
2.67583e-06
2.67563e-06
2.67621e-06
1.60768e-06
8.29655e-06
1.60803e-06
8.29611e-06
5.85391e-07
1.29396e-06
3.57198e-07
3.69557e-07
5.85502e-07
1.29348e-06
3.57198e-07
5.85393e-07
1.29413e-06
3.572e-07
3.6956e-07
5.85502e-07
1.29363e-06
3.572e-07
1.60807e-06
8.29545e-06
8.29584e-06
1.60767e-06
1.60813e-06
8.29589e-06
8.29629e-06
1.60769e-06
5.85521e-07
3.69556e-07
1.29353e-06
3.57197e-07
1.29403e-06
3.57197e-07
5.85407e-07
5.85523e-07
3.69559e-07
1.29368e-06
3.57199e-07
1.29419e-06
3.57199e-07
5.85407e-07
2.67617e-06
2.67572e-06
3.94373e-07
2.67583e-06
2.67533e-06
2.46774e-05
2.46743e-05
2.46751e-05
2.46772e-05
3.94579e-07
2.67593e-06
2.67549e-06
2.67625e-06
2.67584e-06
2.46722e-05
2.46746e-05
5.85391e-07
3.69548e-07
1.29373e-06
3.57198e-07
1.60755e-06
8.29706e-06
5.85388e-07
3.69567e-07
3.57201e-07
1.29379e-06
1.60798e-06
8.29679e-06
8.2972e-06
1.60762e-06
5.85519e-07
3.69548e-07
1.29377e-06
3.57198e-07
1.29427e-06
3.57198e-07
5.85413e-07
1.60797e-06
8.29685e-06
8.29732e-06
1.6076e-06
5.85518e-07
3.69567e-07
3.572e-07
1.29385e-06
3.572e-07
1.29438e-06
5.85407e-07
1.60765e-06
8.29626e-06
1.60805e-06
8.2958e-06
5.85399e-07
3.57199e-07
1.29403e-06
3.69559e-07
5.85505e-07
3.57199e-07
1.29355e-06
1.6077e-06
8.29755e-06
1.60805e-06
8.29679e-06
5.8552e-07
3.69545e-07
1.29364e-06
3.57198e-07
1.29418e-06
3.57198e-07
5.85407e-07
1.6081e-06
8.29558e-06
8.296e-06
1.60769e-06
5.85526e-07
3.69558e-07
3.57197e-07
1.2936e-06
3.57197e-07
1.2941e-06
5.85413e-07
1.60815e-06
8.29656e-06
8.29697e-06
1.60771e-06
3.94376e-07
2.67578e-06
2.67532e-06
2.46803e-05
2.46778e-05
2.46809e-05
3.94586e-07
2.6761e-06
2.67534e-06
2.67639e-06
2.6757e-06
2.46773e-05
2.46801e-05
5.85435e-07
3.572e-07
1.29416e-06
3.69549e-07
5.85542e-07
3.572e-07
1.29367e-06
1.60791e-06
1.60835e-06
8.29694e-06
1.60791e-06
8.29806e-06
1.60836e-06
8.2973e-06
5.8556e-07
3.69552e-07
3.57198e-07
1.29356e-06
3.57198e-07
1.29405e-06
5.85444e-07
5.85563e-07
3.69548e-07
3.57199e-07
1.29372e-06
3.57199e-07
1.29423e-06
5.85449e-07
1.60843e-06
8.29675e-06
8.29717e-06
1.60794e-06
1.60843e-06
8.29707e-06
8.29747e-06
1.60795e-06
2.46818e-05
2.46788e-05
2.46829e-05
2.46799e-05
3.94584e-07
2.67541e-06
2.67599e-06
2.67575e-06
2.67631e-06
2.46763e-05
2.46788e-05
2.46774e-05
2.46798e-05
2.4675e-05
2.46734e-05
2.4678e-05
2.46759e-05
2.67571e-06
2.67623e-06
3.9439e-07
2.67539e-06
2.6759e-06
2.46728e-05
2.46738e-05
2.46749e-05
2.46762e-05
3.94595e-07
2.67543e-06
2.67597e-06
2.67578e-06
2.67629e-06
1.60764e-06
8.29609e-06
1.60809e-06
8.29574e-06
5.85421e-07
1.29408e-06
3.57201e-07
3.69561e-07
5.85535e-07
1.29357e-06
3.57201e-07
5.85419e-07
1.29423e-06
3.57202e-07
3.69564e-07
5.85535e-07
1.2937e-06
3.57202e-07
1.60804e-06
8.29518e-06
8.29551e-06
1.60762e-06
1.60805e-06
8.29564e-06
8.29594e-06
1.60762e-06
5.85548e-07
3.6956e-07
1.29357e-06
3.57199e-07
1.29411e-06
3.572e-07
5.85426e-07
5.85547e-07
3.69563e-07
1.29369e-06
3.572e-07
1.29424e-06
3.57201e-07
5.85424e-07
2.67634e-06
2.67598e-06
3.9438e-07
2.67601e-06
2.67558e-06
2.46726e-05
2.46712e-05
2.46738e-05
2.46746e-05
3.94586e-07
2.67603e-06
2.67561e-06
2.67641e-06
2.67605e-06
2.46709e-05
2.46718e-05
5.85425e-07
1.29431e-06
3.57202e-07
3.69552e-07
5.85538e-07
1.2938e-06
3.57202e-07
1.60752e-06
8.29706e-06
1.60795e-06
8.29665e-06
5.85418e-07
3.57203e-07
1.29443e-06
3.6957e-07
5.85534e-07
3.57203e-07
1.29389e-06
1.60788e-06
8.29651e-06
8.29685e-06
1.60749e-06
5.8555e-07
3.69551e-07
1.29381e-06
3.572e-07
1.29434e-06
3.572e-07
5.85435e-07
1.60788e-06
8.29651e-06
8.29688e-06
1.60749e-06
5.85545e-07
3.69569e-07
3.57201e-07
1.29391e-06
3.57202e-07
1.29447e-06
5.85428e-07
1.60765e-06
8.29581e-06
1.6081e-06
8.29543e-06
5.85425e-07
3.57202e-07
1.29415e-06
3.69562e-07
5.85539e-07
3.57202e-07
1.29363e-06
1.60765e-06
8.29676e-06
1.60811e-06
8.2964e-06
5.85545e-07
3.69549e-07
1.29366e-06
3.57201e-07
1.29423e-06
3.57201e-07
5.85423e-07
1.60806e-06
8.29533e-06
8.29566e-06
1.60764e-06
5.8555e-07
3.69561e-07
3.572e-07
1.29363e-06
3.57201e-07
1.29418e-06
5.85429e-07
1.60806e-06
8.29626e-06
8.2966e-06
1.60764e-06
2.67661e-06
2.67574e-06
3.94391e-07
2.67625e-06
2.67543e-06
2.46773e-05
2.46751e-05
2.46747e-05
2.46761e-05
3.94596e-07
2.67634e-06
2.6755e-06
2.67673e-06
2.67582e-06
2.46741e-05
2.46754e-05
5.8546e-07
3.57203e-07
1.29427e-06
3.69552e-07
5.85574e-07
3.57203e-07
1.29375e-06
1.60788e-06
8.29693e-06
1.60839e-06
8.29656e-06
1.60788e-06
8.29726e-06
1.60839e-06
8.29691e-06
5.8558e-07
3.69556e-07
3.57201e-07
1.29364e-06
3.57201e-07
1.29416e-06
5.85458e-07
5.85585e-07
3.69551e-07
3.57201e-07
1.29375e-06
3.57202e-07
1.2943e-06
5.85465e-07
1.60834e-06
8.29643e-06
8.29677e-06
1.60786e-06
1.60834e-06
8.29677e-06
8.29711e-06
1.60786e-06
2.46765e-05
2.46749e-05
2.46775e-05
2.46759e-05
3.94593e-07
2.67553e-06
2.67611e-06
2.67589e-06
2.67646e-06
2.46742e-05
2.46753e-05
2.46752e-05
2.46763e-05
2.46733e-05
2.46727e-05
2.46753e-05
2.46746e-05
2.6758e-06
2.67634e-06
3.94394e-07
2.67546e-06
2.676e-06
2.46735e-05
2.46734e-05
2.46745e-05
2.46752e-05
3.94599e-07
2.67541e-06
2.67598e-06
2.67582e-06
2.67639e-06
1.60761e-06
8.29586e-06
1.60803e-06
8.2956e-06
5.85419e-07
1.2941e-06
3.57199e-07
3.69564e-07
5.85549e-07
1.29357e-06
3.57198e-07
5.85418e-07
1.29423e-06
3.57199e-07
3.69567e-07
5.85548e-07
1.29368e-06
3.57197e-07
1.60801e-06
8.2952e-06
8.29535e-06
1.60758e-06
1.60803e-06
8.2961e-06
8.2959e-06
1.60759e-06
5.85541e-07
3.69563e-07
1.29357e-06
3.57194e-07
1.2941e-06
3.57195e-07
5.85414e-07
5.8554e-07
3.69565e-07
1.29375e-06
3.57194e-07
1.29422e-06
3.57194e-07
5.85414e-07
2.67643e-06
2.67609e-06
3.94385e-07
2.67601e-06
2.6756e-06
2.46716e-05
2.4671e-05
2.46754e-05
2.46748e-05
3.94591e-07
2.67606e-06
2.67567e-06
2.67637e-06
2.67604e-06
2.46725e-05
2.46721e-05
5.8543e-07
1.29434e-06
3.57199e-07
3.69553e-07
5.85557e-07
1.2938e-06
3.57198e-07
1.60746e-06
8.29675e-06
1.60785e-06
8.29642e-06
5.85425e-07
3.57201e-07
1.29449e-06
3.69573e-07
5.85552e-07
3.572e-07
1.29391e-06
1.60782e-06
8.29643e-06
8.29666e-06
1.60745e-06
5.85549e-07
3.6955e-07
1.2938e-06
3.57194e-07
1.29433e-06
3.57194e-07
5.8542e-07
1.60783e-06
8.29639e-06
8.29668e-06
1.60746e-06
5.85547e-07
3.69571e-07
3.57196e-07
1.29391e-06
3.57197e-07
1.29449e-06
5.85419e-07
1.60763e-06
8.29558e-06
1.60805e-06
8.2953e-06
5.85422e-07
3.57199e-07
1.29417e-06
3.69565e-07
5.8555e-07
3.57198e-07
1.29362e-06
1.60763e-06
8.29647e-06
1.60805e-06
8.29619e-06
5.85538e-07
3.69549e-07
1.29373e-06
3.57195e-07
1.29422e-06
3.57196e-07
5.85414e-07
1.60805e-06
8.29582e-06
8.29563e-06
1.60761e-06
5.85542e-07
3.69563e-07
3.57194e-07
1.29363e-06
3.57194e-07
1.29416e-06
5.85418e-07
1.60804e-06
8.29628e-06
8.29642e-06
1.60761e-06
2.6768e-06
2.67588e-06
3.94396e-07
2.67636e-06
2.67553e-06
2.46746e-05
2.46739e-05
2.46745e-05
2.46752e-05
3.94601e-07
2.67635e-06
2.67552e-06
2.67684e-06
2.67592e-06
2.4674e-05
2.46745e-05
5.85457e-07
3.572e-07
1.29429e-06
3.69555e-07
5.85586e-07
3.57199e-07
1.29375e-06
1.60785e-06
8.29663e-06
1.60832e-06
8.29631e-06
1.60785e-06
8.29699e-06
1.60832e-06
8.29671e-06
5.85574e-07
3.69556e-07
3.57196e-07
1.29362e-06
3.57197e-07
1.29416e-06
5.8545e-07
5.85578e-07
3.69553e-07
3.57195e-07
1.29376e-06
3.57196e-07
1.29429e-06
5.85454e-07
1.60832e-06
8.29621e-06
8.29654e-06
1.60783e-06
1.60832e-06
8.29681e-06
8.29695e-06
1.60784e-06
2.46748e-05
2.46742e-05
2.46758e-05
2.46752e-05
3.94599e-07
2.67551e-06
2.67608e-06
2.67592e-06
2.67649e-06
2.46749e-05
2.46748e-05
2.46759e-05
2.46758e-05
2.46745e-05
2.46758e-05
2.46755e-05
2.46763e-05
2.67583e-06
2.67634e-06
3.94393e-07
2.67571e-06
2.67615e-06
2.46776e-05
2.46772e-05
2.46793e-05
2.46777e-05
3.94598e-07
2.67591e-06
2.67658e-06
2.6762e-06
2.67669e-06
1.60782e-06
8.29657e-06
1.60802e-06
8.29783e-06
5.8544e-07
1.29414e-06
3.57193e-07
3.69558e-07
5.85543e-07
1.29374e-06
3.57189e-07
5.85439e-07
1.29435e-06
3.57193e-07
3.69553e-07
5.85542e-07
1.29398e-06
3.57188e-07
1.60839e-06
8.29856e-06
8.29704e-06
1.60814e-06
1.60838e-06
8.29947e-06
8.29898e-06
1.60814e-06
5.85573e-07
3.69547e-07
1.29389e-06
3.5714e-07
1.29435e-06
3.57176e-07
5.85436e-07
5.85571e-07
3.69527e-07
1.29402e-06
3.57133e-07
1.29457e-06
3.57173e-07
5.85433e-07
2.67656e-06
2.67624e-06
3.94379e-07
2.67645e-06
2.67606e-06
2.4674e-05
2.46752e-05
2.46789e-05
2.46792e-05
3.94577e-07
2.6764e-06
2.67603e-06
2.67692e-06
2.67661e-06
2.46761e-05
2.46765e-05
5.85429e-07
1.29433e-06
3.57194e-07
3.69548e-07
5.8554e-07
1.29388e-06
3.57193e-07
1.6075e-06
8.29669e-06
1.60781e-06
8.29676e-06
5.85428e-07
3.57196e-07
1.29448e-06
3.69567e-07
5.85542e-07
3.57194e-07
1.29398e-06
1.60796e-06
8.29858e-06
8.29735e-06
1.60788e-06
5.8556e-07
3.69543e-07
1.29408e-06
3.57176e-07
1.29447e-06
3.57188e-07
5.85457e-07
1.60796e-06
8.2985e-06
8.29726e-06
1.60788e-06
5.85561e-07
3.69563e-07
3.57177e-07
1.29419e-06
3.5719e-07
1.29462e-06
5.85453e-07
1.60783e-06
8.29637e-06
1.60804e-06
8.29755e-06
5.85444e-07
3.57193e-07
1.2942e-06
3.69556e-07
5.85544e-07
3.57188e-07
1.29379e-06
1.60783e-06
8.29662e-06
1.60804e-06
8.29712e-06
5.8557e-07
3.69511e-07
1.294e-06
3.57132e-07
1.29458e-06
3.57171e-07
5.85434e-07
1.60839e-06
8.2992e-06
8.29871e-06
1.60816e-06
5.85573e-07
3.69543e-07
3.57137e-07
1.29394e-06
3.57175e-07
1.29441e-06
5.85438e-07
1.60839e-06
8.29961e-06
8.29802e-06
1.60816e-06
2.67678e-06
2.67588e-06
3.94397e-07
2.67643e-06
2.67561e-06
2.4675e-05
2.46758e-05
2.46788e-05
2.46778e-05
3.94601e-07
2.6768e-06
2.67594e-06
2.67702e-06
2.6761e-06
2.46783e-05
2.4677e-05
5.85482e-07
3.57194e-07
1.29433e-06
3.69546e-07
5.85581e-07
3.5719e-07
1.29392e-06
1.60807e-06
8.29643e-06
1.60832e-06
8.29652e-06
1.60807e-06
8.29716e-06
1.60833e-06
8.29765e-06
5.85608e-07
3.69546e-07
3.57146e-07
1.29387e-06
3.57179e-07
1.29428e-06
5.85475e-07
5.85612e-07
3.69533e-07
3.57141e-07
1.29407e-06
3.57177e-07
1.29453e-06
5.85479e-07
1.60869e-06
8.29842e-06
8.29699e-06
1.6084e-06
1.60869e-06
8.30013e-06
8.29855e-06
1.6084e-06
2.46759e-05
2.46772e-05
2.46769e-05
2.46782e-05
3.94595e-07
2.676e-06
2.67658e-06
2.67631e-06
2.67688e-06
2.46791e-05
2.46787e-05
2.46801e-05
2.46797e-05
2.46782e-05
2.46775e-05
2.46802e-05
2.46797e-05
2.67625e-06
2.67701e-06
3.94307e-07
2.67566e-06
2.67643e-06
2.46773e-05
2.4678e-05
2.46794e-05
2.46802e-05
3.94495e-07
2.67555e-06
2.6762e-06
2.676e-06
2.67674e-06
1.60808e-06
8.29972e-06
1.60858e-06
8.29945e-06
5.85391e-07
1.29443e-06
3.57095e-07
3.69444e-07
5.85551e-07
1.29383e-06
3.57062e-07
5.8539e-07
1.29455e-06
3.57089e-07
3.69426e-07
5.85549e-07
1.29394e-06
3.57058e-07
1.60847e-06
8.29875e-06
8.29903e-06
1.608e-06
1.60848e-06
8.29939e-06
8.29966e-06
1.60801e-06
5.8551e-07
3.69418e-07
1.29377e-06
3.57025e-07
1.29435e-06
3.57036e-07
5.85374e-07
5.85509e-07
3.69409e-07
1.2939e-06
3.57024e-07
1.29447e-06
3.57034e-07
5.85374e-07
2.67673e-06
2.67644e-06
3.94259e-07
2.67616e-06
2.67576e-06
2.46768e-05
2.46758e-05
2.46785e-05
2.46792e-05
3.94455e-07
2.6761e-06
2.67567e-06
2.67654e-06
2.67619e-06
2.46756e-05
2.46765e-05
5.85415e-07
1.29466e-06
3.57138e-07
3.69456e-07
5.85576e-07
1.29412e-06
3.57096e-07
1.60799e-06
8.29975e-06
1.60836e-06
8.30027e-06
5.85415e-07
3.57141e-07
1.29482e-06
3.69476e-07
5.85574e-07
3.57097e-07
1.29424e-06
1.60832e-06
8.30014e-06
8.30042e-06
1.60787e-06
5.8553e-07
3.69423e-07
1.29404e-06
3.57036e-07
1.29463e-06
3.57059e-07
5.85384e-07
1.60834e-06
8.30023e-06
8.30055e-06
1.6079e-06
5.85529e-07
3.69443e-07
3.57037e-07
1.29416e-06
3.57061e-07
1.2948e-06
5.85384e-07
1.6081e-06
8.29948e-06
1.6086e-06
8.29917e-06
5.85395e-07
3.57093e-07
1.29449e-06
3.69437e-07
5.85551e-07
3.5706e-07
1.29389e-06
1.60809e-06
8.30013e-06
1.6086e-06
8.29995e-06
5.85508e-07
3.69393e-07
1.29387e-06
3.57023e-07
1.29447e-06
3.57034e-07
5.85374e-07
1.6085e-06
8.2991e-06
8.29941e-06
1.60803e-06
5.85512e-07
3.69414e-07
3.57025e-07
1.29384e-06
3.57035e-07
1.29442e-06
5.85378e-07
1.6085e-06
8.29988e-06
8.30017e-06
1.60803e-06
2.67733e-06
2.67637e-06
3.94323e-07
2.67674e-06
2.67585e-06
2.46792e-05
2.46788e-05
2.46792e-05
2.46802e-05
3.9451e-07
2.6765e-06
2.67566e-06
2.67714e-06
2.67617e-06
2.46786e-05
2.46793e-05
5.85435e-07
3.57096e-07
1.29462e-06
3.69427e-07
5.85593e-07
3.57063e-07
1.29402e-06
1.60834e-06
8.2996e-06
1.6089e-06
8.30005e-06
1.60834e-06
8.30064e-06
1.6089e-06
8.30046e-06
5.85547e-07
3.69421e-07
3.57027e-07
1.29385e-06
3.57041e-07
1.29443e-06
5.85411e-07
5.85551e-07
3.69404e-07
3.57026e-07
1.29396e-06
3.57037e-07
1.29455e-06
5.85416e-07
1.60879e-06
8.30005e-06
8.30031e-06
1.60826e-06
1.60879e-06
8.30039e-06
8.30068e-06
1.60826e-06
2.46797e-05
2.46789e-05
2.46807e-05
2.468e-05
3.94478e-07
2.67564e-06
2.67621e-06
2.67609e-06
2.67666e-06
2.46788e-05
2.46795e-05
2.46798e-05
2.46805e-05
2.46779e-05
2.46773e-05
2.468e-05
2.46793e-05
2.67592e-06
2.67656e-06
3.9425e-07
2.67553e-06
2.67615e-06
2.46773e-05
2.46779e-05
2.46793e-05
2.46799e-05
3.94456e-07
2.67552e-06
2.67614e-06
2.67591e-06
2.67653e-06
1.60799e-06
8.29961e-06
1.60843e-06
8.29937e-06
5.85371e-07
1.29431e-06
3.57024e-07
3.69401e-07
5.85498e-07
1.29376e-06
3.57023e-07
5.8537e-07
1.29444e-06
3.57024e-07
3.69404e-07
5.85497e-07
1.29389e-06
3.57024e-07
1.60841e-06
8.29871e-06
8.29895e-06
1.60799e-06
1.60842e-06
8.29936e-06
8.2996e-06
1.60799e-06
5.85496e-07
3.69399e-07
1.29376e-06
3.57021e-07
1.2943e-06
3.57021e-07
5.85373e-07
5.85495e-07
3.69402e-07
1.29389e-06
3.57022e-07
1.29444e-06
3.57022e-07
5.85372e-07
2.6765e-06
2.67614e-06
3.9425e-07
2.6761e-06
2.67567e-06
2.46764e-05
2.46756e-05
2.46785e-05
2.46791e-05
3.94457e-07
2.67609e-06
2.67567e-06
2.67649e-06
2.67614e-06
2.46756e-05
2.46764e-05
5.85375e-07
1.29456e-06
3.57027e-07
3.69392e-07
5.85503e-07
1.29401e-06
3.57024e-07
1.60786e-06
8.30047e-06
1.60826e-06
8.30015e-06
5.85375e-07
3.57029e-07
1.29472e-06
3.69412e-07
5.85505e-07
3.57026e-07
1.29412e-06
1.60821e-06
8.30006e-06
8.30033e-06
1.60783e-06
5.85497e-07
3.6939e-07
1.294e-06
3.57021e-07
1.29454e-06
3.57021e-07
5.85375e-07
1.60823e-06
8.30012e-06
8.30041e-06
1.60785e-06
5.85498e-07
3.69409e-07
3.57024e-07
1.29411e-06
3.57024e-07
1.2947e-06
5.85375e-07
1.60801e-06
8.29935e-06
1.60845e-06
8.29908e-06
5.85375e-07
3.57025e-07
1.29438e-06
3.69403e-07
5.855e-07
3.57024e-07
1.29382e-06
1.60801e-06
8.3001e-06
1.60845e-06
8.29984e-06
5.85494e-07
3.69387e-07
1.29386e-06
3.57021e-07
1.29443e-06
3.57022e-07
5.85372e-07
1.60843e-06
8.29907e-06
8.29934e-06
1.60801e-06
5.85498e-07
3.69401e-07
3.57022e-07
1.29382e-06
3.57022e-07
1.29437e-06
5.85376e-07
1.60843e-06
8.29983e-06
8.30007e-06
1.60801e-06
2.67694e-06
2.67602e-06
3.94257e-07
2.67643e-06
2.67561e-06
2.46792e-05
2.46786e-05
2.46791e-05
2.46799e-05
3.94462e-07
2.67642e-06
2.6756e-06
2.6769e-06
2.67599e-06
2.46785e-05
2.46791e-05
5.85412e-07
3.57026e-07
1.2945e-06
3.69394e-07
5.85537e-07
3.57026e-07
1.29395e-06
1.60824e-06
8.30027e-06
1.60873e-06
8.3e-06
1.60824e-06
8.30061e-06
1.60873e-06
8.30035e-06
5.85532e-07
3.69394e-07
3.57022e-07
1.29382e-06
3.57024e-07
1.29436e-06
5.85409e-07
5.85535e-07
3.69392e-07
3.57023e-07
1.29394e-06
3.57023e-07
1.29449e-06
5.85413e-07
1.60872e-06
8.29998e-06
8.30023e-06
1.60825e-06
1.60872e-06
8.30034e-06
8.30058e-06
1.60824e-06
2.46794e-05
2.46788e-05
2.46804e-05
2.46798e-05
3.94465e-07
2.67562e-06
2.67619e-06
2.67601e-06
2.67658e-06
2.46788e-05
2.46794e-05
2.46798e-05
2.46804e-05
2.46779e-05
2.46773e-05
2.46799e-05
2.46793e-05
2.6759e-06
2.67652e-06
3.94265e-07
2.67552e-06
2.67614e-06
2.46773e-05
2.46779e-05
2.46793e-05
2.46799e-05
3.94469e-07
2.67552e-06
2.67614e-06
2.6759e-06
2.67652e-06
1.60799e-06
8.2996e-06
1.60841e-06
8.29937e-06
5.85373e-07
1.2943e-06
3.57024e-07
3.69402e-07
5.85498e-07
1.29376e-06
3.57023e-07
5.85372e-07
1.29443e-06
3.57024e-07
3.69404e-07
5.85497e-07
1.29389e-06
3.57024e-07
1.60841e-06
8.29871e-06
8.29894e-06
1.60799e-06
1.60841e-06
8.29937e-06
8.2996e-06
1.60799e-06
5.85497e-07
3.69399e-07
1.29376e-06
3.57021e-07
1.2943e-06
3.57021e-07
5.85372e-07
5.85497e-07
3.69402e-07
1.29389e-06
3.57021e-07
1.29444e-06
3.57021e-07
5.85371e-07
2.67649e-06
2.67614e-06
3.94253e-07
2.6761e-06
2.67567e-06
2.46764e-05
2.46756e-05
2.46785e-05
2.46791e-05
3.94456e-07
2.67609e-06
2.67567e-06
2.67649e-06
2.67614e-06
2.46756e-05
2.46764e-05
5.85377e-07
1.29453e-06
3.57025e-07
3.69393e-07
5.85498e-07
1.294e-06
3.57025e-07
1.60785e-06
8.30038e-06
1.60822e-06
8.30012e-06
5.85376e-07
3.57028e-07
1.29469e-06
3.69412e-07
5.85499e-07
3.57027e-07
1.29411e-06
1.60821e-06
8.30006e-06
8.30031e-06
1.60783e-06
5.85499e-07
3.6939e-07
1.294e-06
3.57021e-07
1.29453e-06
3.57022e-07
5.85377e-07
1.60822e-06
8.30012e-06
8.30038e-06
1.60785e-06
5.855e-07
3.6941e-07
3.57024e-07
1.29411e-06
3.57024e-07
1.29469e-06
5.85375e-07
1.60801e-06
8.29933e-06
1.60843e-06
8.29907e-06
5.85377e-07
3.57024e-07
1.29437e-06
3.69404e-07
5.85499e-07
3.57024e-07
1.29382e-06
1.60801e-06
8.30006e-06
1.60843e-06
8.29983e-06
5.85495e-07
3.69386e-07
1.29386e-06
3.5702e-07
1.29443e-06
3.57021e-07
5.85371e-07
1.60843e-06
8.29907e-06
8.29933e-06
1.60801e-06
5.85499e-07
3.69401e-07
3.57021e-07
1.29382e-06
3.57022e-07
1.29437e-06
5.85376e-07
1.60843e-06
8.29983e-06
8.30006e-06
1.60801e-06
2.67689e-06
2.67598e-06
3.94271e-07
2.67642e-06
2.6756e-06
2.46791e-05
2.46785e-05
2.46791e-05
2.46799e-05
3.94475e-07
2.67642e-06
2.6756e-06
2.67689e-06
2.67598e-06
2.46785e-05
2.46791e-05
5.85413e-07
3.57025e-07
1.29449e-06
3.69394e-07
5.85537e-07
3.57025e-07
1.29394e-06
1.6082e-06
8.30021e-06
1.60864e-06
8.29997e-06
1.60824e-06
8.30057e-06
1.60872e-06
8.30034e-06
5.85529e-07
3.69394e-07
3.57021e-07
1.29381e-06
3.57023e-07
1.29436e-06
5.85402e-07
5.85536e-07
3.69391e-07
3.57023e-07
1.29394e-06
3.57023e-07
1.29449e-06
5.85413e-07
1.6086e-06
8.29997e-06
8.3002e-06
1.60811e-06
1.60871e-06
8.30034e-06
8.30057e-06
1.60824e-06
2.46794e-05
2.46788e-05
2.46804e-05
2.46798e-05
3.9447e-07
2.67562e-06
2.67619e-06
2.67601e-06
2.67658e-06
2.46788e-05
2.46793e-05
2.46798e-05
2.46804e-05
2.46779e-05
2.46773e-05
2.46799e-05
2.46794e-05
2.6759e-06
2.67652e-06
3.94258e-07
2.67552e-06
2.67613e-06
2.46778e-05
2.46779e-05
2.46798e-05
2.46799e-05
3.94464e-07
2.67547e-06
2.67608e-06
2.67588e-06
2.67649e-06
1.60799e-06
8.2996e-06
1.60842e-06
8.2994e-06
5.85372e-07
1.29429e-06
3.57023e-07
3.69401e-07
5.85497e-07
1.29375e-06
3.57023e-07
5.85371e-07
1.29443e-06
3.57023e-07
3.69404e-07
5.85496e-07
1.29388e-06
3.57023e-07
1.60842e-06
8.29896e-06
8.29894e-06
1.608e-06
1.60842e-06
8.29962e-06
8.2996e-06
1.608e-06
5.85497e-07
3.69399e-07
1.29371e-06
3.57021e-07
1.29426e-06
3.57021e-07
5.85372e-07
5.85496e-07
3.69402e-07
1.29383e-06
3.57021e-07
1.2944e-06
3.57021e-07
5.85372e-07
2.67649e-06
2.67614e-06
3.94256e-07
2.67609e-06
2.67566e-06
2.46764e-05
2.46757e-05
2.4679e-05
2.46791e-05
3.94461e-07
2.67604e-06
2.67561e-06
2.67647e-06
2.67611e-06
2.46761e-05
2.46764e-05
5.85376e-07
1.29453e-06
3.57023e-07
3.69391e-07
5.85498e-07
1.29399e-06
3.57023e-07
1.60785e-06
8.30038e-06
1.60822e-06
8.30015e-06
5.85375e-07
3.57026e-07
1.29469e-06
3.69411e-07
5.85499e-07
3.57026e-07
1.29411e-06
1.60821e-06
8.30031e-06
8.30031e-06
1.60784e-06
5.85497e-07
3.69389e-07
1.29395e-06
3.57021e-07
1.2945e-06
3.57021e-07
5.85377e-07
1.60822e-06
8.30035e-06
8.30038e-06
1.60786e-06
5.85498e-07
3.69409e-07
3.57023e-07
1.29406e-06
3.57024e-07
1.29466e-06
5.85375e-07
1.60801e-06
8.29933e-06
1.60843e-06
8.2991e-06
5.85376e-07
3.57023e-07
1.29436e-06
3.69403e-07
5.85499e-07
3.57023e-07
1.29382e-06
1.60801e-06
8.30006e-06
1.60843e-06
8.29986e-06
5.85495e-07
3.69386e-07
1.2938e-06
3.5702e-07