/*--------------------------------*- C++ -*----------------------------------*\
| =========                 |                                                 |
| \\      /  F ield         | OpenFOAM: The Open Source CFD Toolbox           |
|  \\    /   O peration     | Version:  2206                                  |
|   \\  /    A nd           | Website:  www.openfoam.com                      |
|    \\/     M anipulation  |                                                 |
\*---------------------------------------------------------------------------*/
FoamFile
{
    version     2.0;
    format      ascii;
    arch        "LSB;label=32;scalar=64";
    class       volScalarField;
    location    "36.5";
    object      nut;
}
// * * * * * * * * * * * * * * * * * * * * * * * * * * * * * * * * * * * * * //

dimensions      [0 2 -1 0 0 0 0];

internalField   nonuniform List<scalar> 
28688
(
0.000233973
0.000233116
0.000233116
0.000233421
0.000232531
0.000227801
0.0002278
0.000223864
0.000230515
0.00022032
0.000220318
0.00020911
0.000227812
0.000211682
0.000211678
0.000193791
0.000224453
0.000202675
0.000202669
0.000179697
0.000220458
0.000193656
0.000193649
0.000167293
0.000216516
0.000185574
0.000185566
0.000156774
0.000211468
0.000177228
0.000177219
0.000147415
0.000209865
0.000175138
0.000175128
0.000145317
0.00021054
0.000176296
0.000176287
0.000147078
0.00021085
0.000176818
0.000176809
0.00014771
0.000210882
0.000176877
0.000176868
0.000147799
0.000234268
0.000234448
0.000234449
0.000234268
0.000234449
0.000234449
0.000234274
0.000234274
0.000234274
0.000234274
0.000234448
0.000234448
0.000234268
0.000234448
0.000234448
0.000234268
0.000233421
0.000226206
0.000233116
0.000233114
0.000229362
0.000229358
0.000233421
0.000226208
0.000233114
0.000233114
0.00022936
0.000229357
0.000233116
0.000229365
0.000229362
0.000233421
0.000226204
0.000233114
0.000229364
0.00022936
0.000226205
0.000223864
0.000212233
0.000227797
0.000227792
0.000222336
0.000222331
0.000223865
0.000212237
0.000227795
0.000227791
0.000222336
0.000222328
0.000227796
0.000222343
0.000222335
0.000223863
0.00021223
0.000227795
0.00022234
0.000222335
0.000212231
0.000209112
0.000197062
0.000220313
0.000220308
0.00021389
0.000213885
0.000209113
0.000197067
0.000220314
0.000220304
0.000213894
0.00021388
0.000220311
0.000213901
0.000213888
0.000209108
0.000197058
0.000220313
0.000213897
0.000213893
0.000197059
0.000193794
0.000182865
0.00021167
0.000211665
0.000204867
0.000204862
0.000193798
0.000182872
0.000211675
0.00021166
0.000204875
0.000204856
0.000211668
0.000204882
0.000204864
0.00019379
0.000182861
0.000211674
0.000204876
0.000204873
0.000182862
0.0001797
0.000170255
0.000202659
0.000202653
0.000195893
0.000195887
0.000179705
0.000170261
0.000202668
0.000202647
0.000195904
0.000195881
0.000202656
0.000195911
0.00019589
0.000179696
0.000170251
0.000202666
0.000195904
0.000195903
0.000170251
0.000167297
0.000159364
0.000193636
0.000193631
0.00018757
0.000187565
0.000167302
0.000159371
0.000193648
0.000193624
0.000187585
0.000187557
0.000193633
0.000187592
0.000187567
0.000167293
0.00015936
0.000193647
0.000187584
0.000187584
0.00015936
0.000156779
0.000149766
0.000185552
0.000185546
0.000178995
0.00017899
0.000156784
0.000149773
0.000185567
0.000185539
0.000179013
0.000178982
0.000185548
0.00017902
0.000178992
0.000156774
0.000149761
0.000185565
0.000179012
0.000179012
0.000149759
0.000147421
0.000145745
0.000177202
0.000177195
0.000174983
0.000174975
0.000147425
0.00014575
0.000177219
0.000177188
0.000174999
0.000174967
0.000177199
0.000175006
0.000174979
0.000147416
0.000145737
0.000177219
0.000174997
0.000175
0.000145737
0.000145325
0.000147202
0.000175114
0.000175106
0.000176048
0.000176041
0.000145329
0.000147207
0.00017513
0.000175098
0.000176065
0.000176033
0.00017511
0.000176072
0.000176045
0.000145318
0.000147194
0.000175131
0.000176063
0.000176067
0.000147194
0.000147084
0.000147891
0.000176274
0.000176268
0.000176744
0.000176738
0.000147088
0.000147895
0.000176291
0.000176259
0.000176762
0.000176729
0.000176271
0.000176768
0.000176742
0.000147076
0.000147882
0.000176293
0.00017676
0.000176764
0.000147886
0.000147716
0.000147987
0.000176796
0.00017679
0.000176848
0.000176842
0.000147718
0.00014799
0.000176814
0.000176781
0.000176867
0.000176833
0.000176794
0.000176871
0.000176846
0.000147707
0.000147978
0.000176816
0.000176863
0.000176869
0.000147982
0.000147805
0.00014799
0.000176852
0.000176847
0.000176857
0.000147808
0.000176871
0.000176837
0.000176876
0.000176842
0.000176851
0.000176856
0.000147796
0.000147981
0.000176873
0.000176872
0.000176878
0.000147986
0.00023473
0.000234746
0.000234729
0.000234729
0.000235119
0.000234798
0.000234701
0.000234727
0.000235119
0.000234798
0.000234727
0.000234701
0.000234868
0.000233566
0.000233566
0.000104631
3.87453e-05
0.00012915
3.98207e-05
2.16834e-05
2.28286e-05
0.00010462
3.87414e-05
0.000129149
3.98172e-05
0.000233973
0.000233973
0.000233973
0.000232936
0.000232936
0.000232936
0.000232936
0.000206181
9.36604e-05
0.000233969
0.000231994
0.000222631
8.72408e-05
0.000233611
2.16824e-05
2.28278e-05
0.000206173
0.000233969
9.36602e-05
0.000231993
0.00022264
0.00023361
8.72466e-05
4.77886e-05
4.77766e-05
0.000231347
4.4036e-05
4.40265e-05
7.25584e-05
4.24379e-05
8.14185e-05
4.37589e-05
2.47775e-05
2.54613e-05
7.25452e-05
4.24344e-05
8.14166e-05
4.37551e-05
0.000232531
0.00023253
0.000232531
0.000231088
0.000231088
0.000231087
0.000231087
0.000167504
7.94146e-05
0.00023208
0.000226095
0.000180213
7.45355e-05
0.000231374
2.47758e-05
2.54598e-05
0.000167499
0.00023208
7.94076e-05
0.000226093
0.000180209
0.000231373
7.45391e-05
3.9143e-05
3.91327e-05
0.000219594
3.65951e-05
3.65844e-05
5.62998e-05
4.55512e-05
6.11056e-05
4.64074e-05
2.6015e-05
2.61168e-05
5.63035e-05
4.55485e-05
6.11001e-05
4.64045e-05
0.000230515
0.000230515
0.000230515
0.000228552
0.000228552
0.000228551
0.000228551
0.000138631
6.74206e-05
0.000228645
0.000218222
0.000148037
6.35326e-05
0.000227531
2.60128e-05
2.61146e-05
0.000138629
0.000228644
6.74136e-05
0.000218219
0.000148026
0.000227529
6.35306e-05
3.32197e-05
3.32111e-05
0.000204611
3.19992e-05
3.19903e-05
4.69476e-05
4.75039e-05
4.99125e-05
4.79989e-05
2.60504e-05
2.59356e-05
4.6953e-05
4.75006e-05
4.9901e-05
4.79961e-05
0.000227812
0.00022781
0.000227811
0.000225311
0.000225312
0.000225309
0.00022531
0.000117556
5.82077e-05
0.000223734
0.000209416
0.000124592
5.54927e-05
0.000222311
2.60479e-05
2.59334e-05
0.000117554
0.000223732
5.82069e-05
0.000209411
0.000124584
0.000222308
5.54886e-05
3.06169e-05
3.0609e-05
0.000189774
3.03061e-05
3.02983e-05
4.14748e-05
4.85884e-05
4.32117e-05
4.88332e-05
2.56793e-05
2.55159e-05
4.14864e-05
4.8585e-05
4.32029e-05
4.88302e-05
0.000224454
0.000224451
0.000224452
0.00022152
0.00022152
0.000221517
0.000221518
0.000102191
5.18853e-05
0.000217782
0.000200467
0.000107314
5.00819e-05
0.000216227
2.56767e-05
2.55138e-05
0.000102191
0.00021778
5.18845e-05
0.000200461
0.000107306
0.000216223
5.00784e-05
3.01948e-05
3.01883e-05
0.000176395
3.03785e-05
3.03712e-05
3.81887e-05
4.91018e-05
3.92374e-05
4.91855e-05
2.524e-05
2.50919e-05
3.81787e-05
4.90985e-05
3.92418e-05
4.91824e-05
0.000220459
0.000220455
0.000220456
0.000217569
0.00021757
0.000217566
0.000217567
9.05509e-05
4.77464e-05
0.000211181
0.000191528
9.43907e-05
4.66125e-05
0.000209519
2.52376e-05
2.50899e-05
9.05464e-05
0.000211179
4.77452e-05
0.000191521
9.43892e-05
0.000209515
4.66109e-05
3.101e-05
3.10038e-05
0.000164505
3.1514e-05
3.15077e-05
3.6454e-05
4.92821e-05
3.69496e-05
4.9284e-05
2.48502e-05
2.47279e-05
3.64517e-05
4.92789e-05
3.69469e-05
4.92809e-05
0.000216516
0.000216512
0.000216514
0.000212631
0.000212632
0.000212627
0.000212629
8.19696e-05
4.52057e-05
0.000204855
0.000183414
8.46666e-05
4.46549e-05
0.000203097
2.4848e-05
2.47259e-05
8.19688e-05
0.000204852
4.52045e-05
0.000183406
8.46617e-05
0.000203092
4.46519e-05
3.25851e-05
3.25795e-05
0.000154517
3.31908e-05
3.31855e-05
3.66474e-05
4.9251e-05
3.5922e-05
4.92432e-05
2.46264e-05
2.46216e-05
3.66412e-05
4.92478e-05
3.59244e-05
4.92401e-05
0.000211469
0.000211463
0.000211466
0.000209848
0.000209849
0.000209843
0.000209847
7.68747e-05
4.39858e-05
0.000197598
0.000175956
7.73941e-05
4.42166e-05
0.000196389
2.46243e-05
2.46194e-05
7.68725e-05
0.000197594
4.39739e-05
0.000175947
7.73907e-05
0.000196384
4.42163e-05
3.45598e-05
3.45537e-05
0.000146398
3.52014e-05
3.51985e-05
3.84349e-05
4.93508e-05
3.79397e-05
4.94079e-05
2.46475e-05
2.46594e-05
3.8444e-05
4.93475e-05
3.7942e-05
4.94045e-05
0.000209866
0.00020986
0.000209863
0.000210381
0.000210381
0.000210375
0.000210379
7.86742e-05
4.48835e-05
0.000195404
0.00017547
7.80437e-05
4.57332e-05
0.000195574
2.4645e-05
2.46567e-05
7.86783e-05
0.000195401
4.48858e-05
0.000175461
7.80429e-05
0.000195569
4.57391e-05
3.65052e-05
3.65004e-05
0.00014624
3.70941e-05
3.70903e-05
3.88616e-05
4.94486e-05
3.88094e-05
4.94516e-05
2.46659e-05
2.46669e-05
3.8869e-05
4.94454e-05
3.88108e-05
4.94486e-05
0.000210541
0.000210535
0.000210539
0.000210815
0.000210815
0.000210809
0.000210813
7.97163e-05
4.65533e-05
0.000196224
0.000176529
7.95163e-05
4.67067e-05
0.000196369
2.46633e-05
2.46641e-05
7.972e-05
0.000196221
4.65517e-05
0.00017652
7.95172e-05
0.000196366
4.67106e-05
3.75307e-05
3.7527e-05
0.000147713
3.76101e-05
3.76065e-05
3.88733e-05
4.94534e-05
3.88659e-05
4.9453e-05
2.46669e-05
2.4667e-05
3.88795e-05
4.94501e-05
3.88727e-05
4.94495e-05
0.00021085
0.000210844
0.000210848
0.000210881
0.00021088
0.000210874
0.000210878
7.9811e-05
4.67339e-05
0.000196555
0.000176848
7.9777e-05
4.67497e-05
0.000196577
2.46642e-05
2.46642e-05
7.98138e-05
0.000196552
4.67382e-05
0.00017684
7.97795e-05
0.000196574
4.67534e-05
3.76274e-05
3.7624e-05
0.000147948
3.76296e-05
3.76263e-05
3.88769e-05
4.94537e-05
3.88712e-05
4.94532e-05
2.46669e-05
2.4667e-05
3.88831e-05
4.94502e-05
3.88777e-05
4.94495e-05
0.000210882
0.000210876
0.00021088
0.000210885
0.000210887
0.000210879
0.000210883
7.98275e-05
4.67454e-05
0.000196595
0.00017688
7.97997e-05
4.67562e-05
0.000196596
2.46642e-05
2.46643e-05
7.98301e-05
0.000196592
4.67493e-05
0.000176871
7.98021e-05
0.000196594
4.67598e-05
3.76293e-05
3.76259e-05
0.000147981
3.76311e-05
3.76278e-05
0.000234868
0.000233564
0.000233566
2.32575e-05
0.000214159
2.32564e-05
0.000214162
0.000234434
5.13504e-05
5.13318e-05
0.00022999
0.000229991
0.000235119
0.000234798
0.000234701
0.000234727
0.000235119
0.000234798
0.000234701
0.000234727
0.000234477
4.02625e-05
0.000218814
0.000147792
0.000234477
4.0262e-05
0.000218814
0.000147799
0.000233886
0.000234474
0.000100115
0.000234271
0.000233358
0.000234597
0.000228481
0.000233886
0.000234474
0.000100105
0.000234271
0.000233359
0.000234597
0.00022848
0.000234868
0.000233565
0.000233566
2.32572e-05
0.000214167
0.000234434
5.13429e-05
5.1336e-05
0.000229989
0.000229991
2.32571e-05
0.000214169
0.000235119
0.000234798
0.000234701
0.000234727
0.000235119
0.000234798
0.000234727
0.000234701
0.000234477
4.02593e-05
0.000218815
0.000147766
0.000233886
0.000234474
0.000100092
0.00023427
0.000233359
0.000234596
0.000228478
0.000234477
4.02588e-05
0.000218816
0.000147782
0.000233886
0.000234474
0.000234271
0.0001001
0.000234597
0.000233359
0.00022848
0.00023473
0.000234746
0.000234729
0.000234729
0.00023473
0.000234746
0.000234729
0.000234729
0.00023473
0.000234746
0.000234729
0.000234729
0.000234591
0.000234574
0.000234253
0.000234253
0.000234592
0.000234592
0.000234252
0.000234591
0.000234573
0.000234253
0.000234253
0.000234592
0.000234592
0.000234252
0.000234591
0.000234574
0.000234253
0.000234253
0.000234592
0.000234592
0.000234252
0.000234591
0.000234574
0.000234253
0.000234253
0.000234592
0.000234592
0.000234252
0.000235119
0.000234798
0.000234727
0.000234701
0.000233886
0.000234474
0.000100096
0.00023427
0.000233359
0.000234597
0.000228479
0.000234477
4.026e-05
0.000218817
0.000147784
0.000233886
0.000234474
0.000234271
0.00010011
0.000234597
0.000233359
0.000228481
0.000234477
4.02595e-05
0.000218816
0.000147791
0.000234868
0.000233566
0.000233566
2.32564e-05
0.000214163
0.000234434
5.13355e-05
5.13398e-05
0.000229991
0.000229993
2.32568e-05
0.000214171
0.000235119
0.000234798
0.000234727
0.000234701
0.000233886
0.000234474
0.00023427
0.000100104
0.000234596
0.00023336
0.00022848
0.000233886
0.000234474
0.00023427
0.000100094
0.000234597
0.000233359
0.000228478
0.000234477
4.02591e-05
0.000218818
0.000147767
0.000234477
4.02589e-05
0.000218813
0.000147754
0.000234434
5.13433e-05
5.13309e-05
0.000229992
0.000229992
2.32569e-05
0.00021417
2.32564e-05
0.000214164
2.16838e-05
2.28296e-05
2.16825e-05
2.28281e-05
4.77897e-05
4.77789e-05
0.000231348
4.40404e-05
4.40254e-05
2.44788e-05
2.33077e-05
2.44772e-05
2.33065e-05
0.000229665
4.00967e-05
4.00807e-05
4.30871e-05
4.30738e-05
0.000104644
3.87444e-05
0.000129136
3.98188e-05
0.000206185
9.36707e-05
0.000233969
0.000231992
0.000222625
8.72484e-05
0.000233611
0.000206187
9.3654e-05
0.000233969
0.000231989
0.000222622
8.72358e-05
0.000233611
9.8451e-05
4.19584e-05
4.03817e-05
8.55583e-05
9.84445e-05
4.19568e-05
4.03807e-05
8.556e-05
0.000200097
0.000230759
8.08366e-05
0.000232684
8.56575e-05
0.000233189
0.000185631
0.000200097
0.000230754
8.08291e-05
0.000232683
8.56401e-05
0.000233189
0.000185634
4.77811e-05
4.77883e-05
0.000231348
4.40309e-05
4.40328e-05
2.16835e-05
2.28297e-05
2.44779e-05
2.33071e-05
0.000229665
4.00865e-05
4.00867e-05
4.30755e-05
4.30852e-05
2.44791e-05
2.33079e-05
0.000206173
9.36495e-05
0.000233969
0.00023199
0.000222626
8.7229e-05
0.00023361
0.000104623
3.87409e-05
0.000129167
3.98165e-05
0.000206175
0.000233969
9.3653e-05
0.000231988
0.00022263
0.00023361
8.72286e-05
9.8451e-05
4.19546e-05
4.03782e-05
8.55496e-05
0.000200098
0.000230756
8.08224e-05
0.000232683
8.56409e-05
0.000233189
0.000185626
9.84517e-05
4.19538e-05
4.03775e-05
8.55483e-05
0.000200097
0.000230753
0.000232683
8.08181e-05
0.000233188
8.56394e-05
0.000185623
0.000104631
3.87418e-05
0.000129155
3.98194e-05
0.000206181
0.000233969
9.36617e-05
0.000231992
0.000222635
0.000233611
8.72439e-05
0.000104629
3.87425e-05
0.000129175
3.98177e-05
0.0002001
0.00023076
8.08322e-05
0.000232684
8.56558e-05
0.000233189
0.000185631
9.84502e-05
4.19569e-05
4.03793e-05
8.55539e-05
0.000200099
0.000230758
0.000232684
8.08371e-05
0.000233189
8.56518e-05
0.000185631
9.84554e-05
4.19557e-05
4.03797e-05
8.55551e-05
4.77782e-05
4.77866e-05
0.000231347
4.40242e-05
4.4041e-05
2.16829e-05
2.28286e-05
2.44767e-05
2.33056e-05
0.000229665
4.00806e-05
4.00948e-05
4.30753e-05
4.30824e-05
2.44779e-05
2.3307e-05
0.00020617
0.000233969
9.36482e-05
0.00023199
0.000222635
0.000233611
8.72327e-05
0.000104607
3.87415e-05
0.000129186
3.98179e-05
0.000104603
3.87409e-05
0.000129172
3.98169e-05
0.000200099
0.00023076
0.000232683
8.0837e-05
0.000233189
8.56481e-05
0.000185624
0.0002001
0.000230756
0.000232683
8.0828e-05
0.000233189
8.56392e-05
0.000185624
9.84671e-05
4.19553e-05
4.03793e-05
8.55472e-05
9.84665e-05
4.19546e-05
4.03779e-05
8.55469e-05
2.16833e-05
2.28287e-05
2.16824e-05
2.28281e-05
0.000229664
4.00944e-05
4.00825e-05
4.30864e-05
4.30721e-05
2.4478e-05
2.33073e-05
2.44771e-05
2.33066e-05
2.47782e-05
2.54624e-05
2.47764e-05
2.54607e-05
3.91489e-05
3.91339e-05
0.000219596
3.65968e-05
3.65842e-05
2.59528e-05
2.56216e-05
2.59513e-05
2.56198e-05
0.000216774
3.38715e-05
3.38547e-05
3.57176e-05
3.57049e-05
7.25611e-05
4.24367e-05
8.14207e-05
4.37576e-05
0.000167501
7.94159e-05
0.00023208
0.00022609
0.000180211
7.45372e-05
0.000231374
0.000167505
7.93988e-05
0.00023208
0.000226085
0.000180213
7.45328e-05
0.000231373
6.9625e-05
4.52329e-05
4.41551e-05
6.32355e-05
6.96274e-05
4.52325e-05
4.41537e-05
6.3239e-05
0.000162862
0.000224265
6.86944e-05
0.000229657
7.31402e-05
0.000230567
0.000151921
0.000162866
0.00022426
6.86913e-05
0.000229657
7.31214e-05
0.000230567
0.000151925
3.91362e-05
3.91487e-05
0.000219599
3.65895e-05
3.65881e-05
2.47783e-05
2.54626e-05
2.59523e-05
2.56208e-05
0.000216775
3.38593e-05
3.38671e-05
3.57071e-05
3.57137e-05
2.59532e-05
2.56215e-05
0.000167501
7.93976e-05
0.00023208
0.000226089
0.000180207
7.45279e-05
0.000231373
7.25433e-05
4.24333e-05
8.14158e-05
4.37542e-05
0.000167498
0.000232079
7.93998e-05
0.000226083
0.000180204
0.000231373
7.45194e-05
6.96323e-05
4.52299e-05
4.41518e-05
6.32354e-05
0.000162857
0.000224264
6.8686e-05
0.000229657
7.31226e-05
0.000230567
0.000151924
6.96319e-05
4.52286e-05
4.41498e-05
6.32324e-05
0.000162854
0.000224257
0.000229656
6.8681e-05
0.000230565
7.31215e-05
0.000151919
7.25536e-05
4.24361e-05
8.14213e-05
4.37575e-05
0.000167501
0.00023208
7.94074e-05
0.000226089
0.00018021
0.000231374
7.45389e-05
7.25568e-05
4.24357e-05
8.14154e-05
4.3756e-05
0.000162865
0.00022427
6.86959e-05
0.000229659
7.31372e-05
0.000230567
0.000151924
6.96296e-05
4.52322e-05
4.41532e-05
6.32363e-05
0.000162862
0.000224264
0.000229657
6.86964e-05
0.000230567
7.31271e-05
0.000151921
6.96275e-05
4.52306e-05
4.41522e-05
6.32345e-05
3.91364e-05
3.91461e-05
0.000219594
3.65819e-05
3.65947e-05
2.47776e-05
2.5461e-05
2.59503e-05
2.56187e-05
0.000216772
3.38595e-05
3.38658e-05
3.57018e-05
3.57135e-05
2.59519e-05
2.56205e-05
0.000167502
0.00023208
7.93974e-05
0.000226088
0.00018021
0.000231373
7.45307e-05
7.25439e-05
4.24352e-05
8.14162e-05
4.37562e-05
7.25499e-05
4.2434e-05
8.14177e-05
4.37549e-05
0.000162856
0.000224268
0.000229657
6.86964e-05
0.000230567
7.31289e-05
0.000151921
0.000162858
0.000224264
0.000229657
6.86888e-05
0.000230566
7.3119e-05
0.000151924
6.96323e-05
4.52308e-05
4.41522e-05
6.32339e-05
6.9633e-05
4.52295e-05
4.41508e-05
6.32348e-05
2.47776e-05
2.54608e-05
2.47768e-05
2.54601e-05
0.000216773
3.3865e-05
3.3855e-05
3.57113e-05
3.57025e-05
2.59517e-05
2.56203e-05
2.5951e-05
2.56195e-05
2.60155e-05
2.61174e-05
2.60138e-05
2.61157e-05
3.32209e-05
3.32137e-05
0.000204613
3.20106e-05
3.19899e-05
2.60823e-05
2.61189e-05
2.60804e-05
2.61171e-05
0.000201348
3.08788e-05
3.08691e-05
3.1573e-05
3.15658e-05
5.63025e-05
4.55504e-05
6.11068e-05
4.64072e-05
0.000138629
6.74203e-05
0.000228644
0.000218213
0.000148036
6.3531e-05
0.00022753
0.000138633
6.74093e-05
0.000228643
0.000218208
0.000148038
6.35267e-05
0.00022753
5.47408e-05
4.73162e-05
4.66561e-05
5.10286e-05
5.47422e-05
4.73164e-05
4.66552e-05
5.1031e-05
0.000135389
0.000216068
5.91326e-05
0.000225072
6.24308e-05
0.000226336
0.000127276
0.000135391
0.000216063
5.91268e-05
0.000225072
6.24241e-05
0.000226336
0.000127279
3.3215e-05
3.322e-05
0.000204619
3.19939e-05
3.20096e-05
2.60158e-05
2.61176e-05
2.60814e-05
2.61183e-05
0.00020135
3.08714e-05
3.08767e-05
3.15676e-05
3.15713e-05
2.60824e-05
2.61191e-05
0.00013863
6.741e-05
0.000228644
0.000218215
0.000148027
6.35206e-05
0.000227529
5.63015e-05
4.55464e-05
6.11001e-05
4.64031e-05
0.000138627
0.000228642
6.74059e-05
0.000218204
0.000148026
0.000227528
6.35184e-05
5.47273e-05
4.73134e-05
4.66529e-05
5.10414e-05
0.000135381
0.000216071
5.91237e-05
0.000225071
6.24204e-05
0.000226336
0.000127276
5.47267e-05
4.7312e-05
4.6651e-05
5.10397e-05
0.000135378
0.000216059
0.000225069
5.91203e-05
0.000226334
6.24175e-05
0.000127274
5.63002e-05
4.555e-05
6.11042e-05
4.6407e-05
0.000138628
0.000228643
6.74141e-05
0.000218211
0.000148035
0.00022753
6.3531e-05
5.62987e-05
4.55486e-05
6.11026e-05
4.64052e-05
0.00013539
0.000216078
5.91329e-05
0.000225074
6.24313e-05
0.000226337
0.000127277
5.47399e-05
4.73162e-05
4.66548e-05
5.10289e-05
0.000135388
0.000216066
0.000225072
5.91304e-05
0.000226336
6.24282e-05
0.000127275
5.47387e-05
4.73142e-05
4.66532e-05
5.10277e-05
3.3209e-05
3.32205e-05
0.00020461
3.19995e-05
3.20005e-05
2.60146e-05
2.61164e-05
2.60793e-05
2.61161e-05
0.000201344
3.08688e-05
3.08774e-05
3.15623e-05
3.15738e-05
2.6081e-05
2.61179e-05
0.000138631
0.000228643
6.74065e-05
0.000218214
0.000148028
0.000227529
6.35243e-05
5.63027e-05
4.55484e-05
6.10994e-05
4.64048e-05
5.63037e-05
4.55475e-05
6.11003e-05
4.64042e-05
0.00013538
0.000216074
0.000225071
5.913e-05
0.000226336
6.24283e-05
0.000127276
0.000135381
0.00021607
0.000225071
5.91244e-05
0.000226335
6.24213e-05
0.000127278
5.47264e-05
4.73139e-05
4.66529e-05
5.10408e-05
5.47272e-05
4.73133e-05
4.66522e-05
5.10417e-05
2.60145e-05
2.61162e-05
2.60137e-05
2.61154e-05
0.000201345
3.08767e-05
3.08684e-05
3.15726e-05
3.15643e-05
2.60808e-05
2.61177e-05
2.60799e-05
2.61169e-05
2.60512e-05
2.59366e-05
2.6049e-05
2.59345e-05
3.06194e-05
3.061e-05
0.000189778
3.03069e-05
3.02991e-05
2.57373e-05
2.58874e-05
2.57349e-05
2.58848e-05
0.000186539
3.01721e-05
3.01627e-05
3.02066e-05
3.01991e-05
4.69492e-05
4.75032e-05
4.99137e-05
4.7999e-05
0.000117555
5.82073e-05
0.000223732
0.000209403
0.000124591
5.54931e-05
0.00022231
0.000117558
5.82032e-05
0.000223732
0.000209398
0.000124593
5.54858e-05
0.000222309
4.61399e-05
4.84925e-05
4.81353e-05
4.38675e-05
4.61415e-05
4.84923e-05
4.81347e-05
4.38684e-05
0.000115322
0.000207118
5.25012e-05
0.000219305
5.47284e-05
0.000220822
0.000109313
0.000115324
0.000207113
5.24957e-05
0.000219304
5.47205e-05
0.000220821
0.000109315
3.06119e-05
3.06181e-05
0.000189784
3.03008e-05
3.03056e-05
2.60511e-05
2.59366e-05
2.5736e-05
2.58863e-05
0.000186542
3.01644e-05
3.0171e-05
3.02004e-05
3.02031e-05
2.5737e-05
2.5887e-05
0.000117554
5.82002e-05
0.000223732
0.000209409
0.000124584
5.54838e-05
0.000222308
4.69516e-05
4.74987e-05
4.99006e-05
4.79944e-05
0.000117552
0.000223729
5.81951e-05
0.000209392
0.000124582
0.000222306
5.54813e-05
4.61423e-05
4.84895e-05
4.81319e-05
4.38596e-05
0.000115318
0.000207125
5.24929e-05
0.000219303
5.47186e-05
0.000220821
0.000109308
4.61413e-05
4.84876e-05
4.81298e-05
4.38591e-05
0.000115316
0.000207107
0.000219301
5.24896e-05
0.000220818
5.47146e-05
0.000109306
4.69474e-05
4.75029e-05
4.99116e-05
4.79988e-05
0.000117554
0.000223732
5.82067e-05
0.000209401
0.00012459
0.000222309
5.54889e-05
4.69464e-05
4.7501e-05
4.99106e-05
4.79966e-05
0.000115323
0.000207132
5.25002e-05
0.000219307
5.47261e-05
0.000220823
0.000109313
4.61397e-05
4.84922e-05
4.81343e-05
4.38666e-05
0.000115321
0.000207116
0.000219304
5.24984e-05
0.000220821
5.47235e-05
0.000109311
4.61388e-05
4.84897e-05
4.81323e-05
4.38658e-05
3.06095e-05
3.06179e-05
0.000189774
3.02978e-05
3.0307e-05
2.605e-05
2.59352e-05
2.57338e-05
2.58838e-05
0.000186534
3.01636e-05
3.01704e-05
3.01956e-05
3.02065e-05
2.57356e-05
2.58859e-05
0.000117556
0.000223731
5.82005e-05
0.000209408
0.000124585
0.000222308
5.54834e-05
4.69525e-05
4.75007e-05
4.99003e-05
4.79963e-05
4.69532e-05
4.75002e-05
4.9901e-05
4.79959e-05
0.000115318
0.000207127
0.000219303
5.24982e-05
0.000220822
5.47236e-05
0.000109308
0.000115319
0.000207124
0.000219304
5.24933e-05
0.000220821
5.47177e-05
0.00010931
4.61418e-05
4.84895e-05
4.8132e-05
4.3859e-05
4.61424e-05
4.84891e-05
4.81315e-05
4.38596e-05
2.60498e-05
2.5935e-05
2.60489e-05
2.5934e-05
0.000186535
3.01697e-05
3.01623e-05
3.02056e-05
3.0198e-05
2.57355e-05
2.58857e-05
2.57344e-05
2.58847e-05
2.56804e-05
2.55173e-05
2.56778e-05
2.55149e-05
3.01971e-05
3.01903e-05
0.000176399
3.03794e-05
3.03692e-05
2.52979e-05
2.54604e-05
2.52954e-05
2.54577e-05
0.000173345
3.08678e-05
3.08594e-05
3.04769e-05
3.04711e-05
4.14764e-05
4.85879e-05
4.32125e-05
4.88331e-05
0.000102191
5.18873e-05
0.00021778
0.00020045
0.000107314
5.00829e-05
0.000216225
0.000102193
5.18817e-05
0.000217779
0.000200445
0.000107315
5.00764e-05
0.000216224
4.1008e-05
4.90641e-05
4.88953e-05
3.95207e-05
4.10094e-05
4.90641e-05
4.88949e-05
3.95217e-05
0.00010047
0.000198191
4.81485e-05
0.000212899
4.95851e-05
0.0002146
9.59108e-05
0.000100471
0.000198186
4.81434e-05
0.000212898
4.95789e-05
0.000214598
9.59125e-05
3.01895e-05
3.01963e-05
0.000176405
3.03726e-05
3.03736e-05
2.568e-05
2.5517e-05
2.52965e-05
2.54591e-05
0.00017335
3.08618e-05
3.08535e-05
3.04695e-05
3.04865e-05
2.52976e-05
2.54599e-05
0.000102191
5.18779e-05
0.000217779
0.00020046
0.000107306
5.00743e-05
0.000216223
4.14851e-05
4.85828e-05
4.32023e-05
4.88281e-05
0.000102189
0.000217775
5.18747e-05
0.000200438
0.000107304
0.00021622
5.00724e-05
4.10143e-05
4.90611e-05
4.88919e-05
3.95198e-05
0.000100465
0.000198202
4.81413e-05
0.000212897
4.95757e-05
0.000214599
9.59077e-05
4.10133e-05
4.90587e-05
4.88897e-05
3.95191e-05
0.000100463
0.00019818
0.000212894
4.81388e-05
0.000214594
4.95736e-05
9.59062e-05
4.14749e-05
4.85876e-05
4.32108e-05
4.8833e-05
0.000102189
0.000217779
5.18843e-05
0.000200447
0.000107312
0.000216224
5.00787e-05
4.14742e-05
4.85853e-05
4.32101e-05
4.88303e-05
0.00010047
0.000198209
4.81474e-05
0.000212901
4.95831e-05
0.000214602
9.59106e-05
4.10078e-05
4.90639e-05
4.88946e-05
3.95203e-05
0.000100469
0.000198188
0.000212898
4.81455e-05
0.000214599
4.95812e-05
9.59093e-05
4.10072e-05
4.90612e-05
4.88921e-05
3.95198e-05
3.01888e-05
3.01956e-05
0.000176395
3.03657e-05
3.03795e-05
2.56789e-05
2.55156e-05
2.52944e-05
2.54567e-05
0.000173341
3.08524e-05
3.08691e-05
3.04745e-05
3.04753e-05
2.52963e-05
2.54588e-05
0.000102193
0.000217779
5.1879e-05
0.000200458
0.000107307
0.000216224
5.0074e-05
4.14862e-05
4.85851e-05
4.32023e-05
4.88301e-05
4.14867e-05
4.85847e-05
4.32029e-05
4.88298e-05
0.000100465
0.000198203
0.000212897
4.81454e-05
0.000214599
4.95813e-05
9.59083e-05
0.000100465
0.000198201
0.000212898
4.81411e-05
0.000214598
4.95763e-05
9.59095e-05
4.1014e-05
4.90609e-05
4.88919e-05
3.95196e-05
4.10145e-05
4.90607e-05
4.88916e-05
3.952e-05
2.56787e-05
2.55155e-05
2.56777e-05
2.55144e-05
0.000173341
3.08675e-05
3.08606e-05
3.0475e-05
3.04686e-05
2.52961e-05
2.54587e-05
2.5295e-05
2.54576e-05
2.52416e-05
2.50936e-05
2.52386e-05
2.5091e-05
3.10093e-05
3.10056e-05
0.00016451
3.15154e-05
3.15062e-05
2.49014e-05
2.50441e-05
2.48987e-05
2.50412e-05
0.000161758
3.2375e-05
3.23679e-05
3.17167e-05
3.17119e-05
3.81893e-05
4.91017e-05
3.92386e-05
4.91855e-05
9.05514e-05
4.77484e-05
0.000211179
0.000191507
9.43902e-05
4.6614e-05
0.000209517
9.05525e-05
4.7743e-05
0.000211177
0.000191502
9.43915e-05
4.66092e-05
0.000209515
3.79233e-05
4.92767e-05
4.92113e-05
3.71498e-05
3.79236e-05
4.92767e-05
4.92113e-05
3.71504e-05
8.91719e-05
0.000189516
4.54631e-05
0.000206438
4.62972e-05
0.000207953
8.5895e-05
8.91727e-05
0.00018951
4.54586e-05
0.000206436
4.62922e-05
0.000207951
8.5896e-05
3.10037e-05
3.10145e-05
0.000164517
3.15088e-05
3.15054e-05
2.52409e-05
2.50932e-05
2.48997e-05
2.50424e-05
0.000161763
3.23704e-05
3.23807e-05
3.17104e-05
3.17122e-05
2.49009e-05
2.50435e-05
9.05457e-05
4.774e-05
0.000211178
0.000191521
9.43883e-05
4.6607e-05
0.000209514
3.81786e-05
4.90962e-05
3.92409e-05
4.918e-05
9.05446e-05
0.000211173
4.77376e-05
0.000191495
9.43866e-05
0.000209511
4.66045e-05
3.79084e-05
4.92736e-05
4.92081e-05
3.71521e-05
8.91639e-05
0.00018953
4.54567e-05
0.000206435
4.62891e-05
0.000207952
8.58905e-05
3.79085e-05
4.9271e-05
4.92057e-05
3.71516e-05
8.91628e-05
0.000189503
0.000206431
4.54552e-05
0.000207947
4.62865e-05
8.58895e-05
3.81879e-05
4.91013e-05
3.92372e-05
4.91853e-05
9.05497e-05
0.000211178
4.77451e-05
0.000191504
9.43896e-05
0.000209516
4.66111e-05
3.81875e-05
4.90987e-05
3.92367e-05
4.91824e-05
8.91716e-05
0.000189537
4.54625e-05
0.00020644
4.62946e-05
0.000207956
8.58945e-05
3.79222e-05
4.92765e-05
4.92109e-05
3.71492e-05
8.9171e-05
0.000189513
0.000206437
4.54602e-05
0.000207952
4.62941e-05
8.58932e-05
3.79219e-05
4.92735e-05
4.92082e-05
3.71488e-05
3.10055e-05
3.10102e-05
0.000164505
3.15018e-05
3.15152e-05
2.52398e-05
2.50918e-05
2.48977e-05
2.50402e-05
0.000161753
3.2375e-05
3.23756e-05
3.17049e-05
3.17167e-05
2.48997e-05
2.50424e-05
9.05471e-05
0.000211178
4.77405e-05
0.000191519
9.43892e-05
0.000209516
4.66069e-05
3.81784e-05
4.90984e-05
3.92417e-05
4.91821e-05
3.81786e-05
4.90983e-05
3.92421e-05
4.91821e-05
8.91644e-05
0.00018953
0.000206435
4.54601e-05
0.000207953
4.62942e-05
8.58913e-05
8.91644e-05
0.000189528
0.000206436
4.54562e-05
0.000207952
4.62898e-05
8.58919e-05
3.79081e-05
4.92732e-05
4.92079e-05
3.71519e-05
3.79083e-05
4.92732e-05
4.92078e-05
3.71522e-05
2.52396e-05
2.50916e-05
2.52385e-05
2.50905e-05
0.000161754
3.23751e-05
3.23692e-05
3.17158e-05
3.171e-05
2.48995e-05
2.50422e-05
2.48983e-05
2.50411e-05
2.4852e-05
2.47296e-05
2.4849e-05
2.47269e-05
3.25844e-05
3.25806e-05
0.000154522
3.31912e-05
3.31851e-05
2.46378e-05
2.46966e-05
2.46352e-05
2.46938e-05
0.000152042
3.43617e-05
3.43562e-05
3.34972e-05
3.34938e-05
3.64543e-05
4.92821e-05
3.695e-05
4.92841e-05
8.19697e-05
4.52074e-05
0.000204853
0.00018339
8.46673e-05
4.46548e-05
0.000203095
8.19706e-05
4.52028e-05
0.000204851
0.000183386
8.46679e-05
4.46511e-05
0.000203093
3.63373e-05
4.92611e-05
4.92808e-05
3.61074e-05
3.63377e-05
4.92612e-05
4.92809e-05
3.61074e-05
8.0999e-05
0.000181141
4.41524e-05
0.000199254
4.45498e-05
0.000201172
7.83398e-05
8.09995e-05
0.000181136
4.41483e-05
0.000199252
4.45463e-05
0.00020117
7.83406e-05
3.25805e-05
3.25871e-05
0.000154529
3.31864e-05
3.31934e-05
2.48513e-05
2.47291e-05
2.46362e-05
2.46949e-05
0.000152048
3.43568e-05
3.43647e-05
3.34936e-05
3.34988e-05
2.46373e-05
2.4696e-05
8.19676e-05
4.51999e-05
0.000204852
0.000183408
8.46613e-05
4.46493e-05
0.000203092
3.64516e-05
4.92764e-05
3.69466e-05
4.92782e-05
8.19667e-05
0.000204846
4.51983e-05
0.000183379
8.46604e-05
0.000203088
4.46484e-05
3.63379e-05
4.9258e-05
4.92776e-05
3.60957e-05
8.09948e-05
0.000181159
4.41505e-05
0.000199251
4.45451e-05
0.000201171
7.83307e-05
3.63378e-05
4.92553e-05
4.9275e-05
3.60954e-05
8.09939e-05
0.000181129
0.000199247
4.41568e-05
0.000201165
4.45446e-05
7.83302e-05
3.64531e-05
4.92818e-05
3.69487e-05
4.92837e-05
8.19685e-05
0.000204851
4.52043e-05
0.000183388
8.46661e-05
0.000203093
4.46524e-05
3.64529e-05
4.92789e-05
3.69484e-05
4.92808e-05
8.09987e-05
0.000181166
4.41625e-05
0.000199257
4.45511e-05
0.000201175
7.83384e-05
3.63365e-05
4.9261e-05
4.92806e-05
3.61063e-05
8.09983e-05
0.000181138
0.000199252
4.41494e-05
0.00020117
4.45475e-05
7.83365e-05
3.63363e-05
4.92578e-05
4.92775e-05
3.6106e-05
3.25801e-05
3.25857e-05
0.000154517
3.31876e-05
3.31915e-05
2.48502e-05
2.47278e-05
2.46342e-05
2.46928e-05
0.000152037
3.43586e-05
3.43621e-05