/*--------------------------------*- C++ -*----------------------------------*\
| =========                 |                                                 |
| \\      /  F ield         | OpenFOAM: The Open Source CFD Toolbox           |
|  \\    /   O peration     | Version:  2206                                  |
|   \\  /    A nd           | Website:  www.openfoam.com                      |
|    \\/     M anipulation  |                                                 |
\*---------------------------------------------------------------------------*/
FoamFile
{
    version     2.0;
    format      ascii;
    arch        "LSB;label=32;scalar=64";
    class       volScalarField;
    location    "11.5";
    object      epsilon;
}
// * * * * * * * * * * * * * * * * * * * * * * * * * * * * * * * * * * * * * //

dimensions      [0 2 -3 0 0 0 0];

internalField   nonuniform List<scalar> 
28687
(
4.02341e-07
4.11501e-07
4.11506e-07
4.2571e-07
4.02339e-07
4.11504e-07
4.11504e-07
4.2573e-07
4.02321e-07
4.11476e-07
4.11492e-07
4.2573e-07
4.02128e-07
4.11312e-07
4.11326e-07
4.25608e-07
4.02102e-07
4.11301e-07
4.11304e-07
4.25579e-07
4.02101e-07
4.113e-07
4.11303e-07
4.25581e-07
4.02101e-07
4.113e-07
4.11304e-07
4.25583e-07
4.02101e-07
4.113e-07
4.11303e-07
4.25583e-07
4.02101e-07
4.113e-07
4.11303e-07
4.25583e-07
4.02101e-07
4.113e-07
4.11303e-07
4.25583e-07
4.02101e-07
4.113e-07
4.11303e-07
4.25583e-07
4.02101e-07
4.113e-07
4.11303e-07
4.25583e-07
4.02101e-07
4.113e-07
4.11303e-07
4.25583e-07
4.02101e-07
4.113e-07
4.11303e-07
4.25583e-07
4.02101e-07
4.113e-07
4.11303e-07
4.25583e-07
4.02101e-07
4.113e-07
4.11303e-07
4.25583e-07
4.02101e-07
4.113e-07
4.11303e-07
4.25583e-07
4.02101e-07
4.113e-07
4.11304e-07
4.25583e-07
4.11512e-07
4.25589e-07
4.115e-07
4.25706e-07
4.25601e-07
4.11509e-07
4.11512e-07
4.11508e-07
4.1151e-07
4.25721e-07
4.25603e-07
4.11505e-07
4.11515e-07
4.11504e-07
4.11514e-07
4.1151e-07
4.11504e-07
4.11509e-07
4.25711e-07
4.25606e-07
4.11504e-07
4.11504e-07
4.11503e-07
4.25604e-07
4.25728e-07
4.25603e-07
4.11512e-07
4.11514e-07
4.11506e-07
4.11502e-07
4.25732e-07
4.25601e-07
4.11508e-07
4.11518e-07
4.11501e-07
4.11511e-07
4.11513e-07
4.11496e-07
4.11507e-07
4.25734e-07
4.25608e-07
4.11508e-07
4.11501e-07
4.11501e-07
4.25606e-07
4.25729e-07
4.25495e-07
4.11496e-07
4.11482e-07
4.11363e-07
4.11342e-07
4.25723e-07
4.2547e-07
4.11492e-07
4.11502e-07
4.11359e-07
4.11369e-07
4.11497e-07
4.11335e-07
4.11364e-07
4.25734e-07
4.255e-07
4.11492e-07
4.1136e-07
4.11358e-07
4.25496e-07
4.25609e-07
4.25448e-07
4.11333e-07
4.11322e-07
4.11309e-07
4.11308e-07
4.25588e-07
4.2545e-07
4.11328e-07
4.11338e-07
4.11303e-07
4.11314e-07
4.11333e-07
4.11301e-07
4.11309e-07
4.25614e-07
4.25454e-07
4.11327e-07
4.11304e-07
4.11303e-07
4.2545e-07
4.2558e-07
4.25455e-07
4.11312e-07
4.11312e-07
4.11309e-07
4.11308e-07
4.25582e-07
4.2545e-07
4.11307e-07
4.11317e-07
4.11304e-07
4.11314e-07
4.11312e-07
4.113e-07
4.11309e-07
4.25585e-07
4.2546e-07
4.11306e-07
4.11304e-07
4.11303e-07
4.25457e-07
4.25582e-07
4.25456e-07
4.11311e-07
4.11311e-07
4.11309e-07
4.11308e-07
4.25578e-07
4.25451e-07
4.11306e-07
4.11316e-07
4.11304e-07
4.11314e-07
4.11311e-07
4.113e-07
4.11309e-07
4.25587e-07
4.25461e-07
4.11306e-07
4.11304e-07
4.11303e-07
4.25459e-07
4.25584e-07
4.25457e-07
4.11311e-07
4.11311e-07
4.11309e-07
4.11309e-07
4.25578e-07
4.25452e-07
4.11306e-07
4.11316e-07
4.11304e-07
4.11314e-07
4.11311e-07
4.113e-07
4.11309e-07
4.25588e-07
4.25461e-07
4.11306e-07
4.11304e-07
4.11303e-07
4.25458e-07
4.25584e-07
4.25457e-07
4.11311e-07
4.11312e-07
4.11309e-07
4.11309e-07
4.25579e-07
4.25452e-07
4.11306e-07
4.11316e-07
4.11304e-07
4.11314e-07
4.11311e-07
4.113e-07
4.11309e-07
4.25588e-07
4.25461e-07
4.11306e-07
4.11304e-07
4.11303e-07
4.25459e-07
4.25584e-07
4.25456e-07
4.11311e-07
4.11312e-07
4.11308e-07
4.11309e-07
4.25579e-07
4.25452e-07
4.11306e-07
4.11317e-07
4.11303e-07
4.11314e-07
4.11311e-07
4.113e-07
4.11309e-07
4.25588e-07
4.25461e-07
4.11306e-07
4.11304e-07
4.11303e-07
4.25459e-07
4.25583e-07
4.25456e-07
4.1131e-07
4.11312e-07
4.11308e-07
4.11309e-07
4.2558e-07
4.25452e-07
4.11306e-07
4.11316e-07
4.11303e-07
4.11314e-07
4.11311e-07
4.113e-07
4.11309e-07
4.25588e-07
4.25461e-07
4.11306e-07
4.11303e-07
4.11303e-07
4.25458e-07
4.25583e-07
4.25456e-07
4.1131e-07
4.11312e-07
4.11308e-07
4.11309e-07
4.2558e-07
4.25452e-07
4.11305e-07
4.11316e-07
4.11303e-07
4.11314e-07
4.11311e-07
4.113e-07
4.11309e-07
4.25588e-07
4.25461e-07
4.11306e-07
4.11304e-07
4.11303e-07
4.25458e-07
4.25584e-07
4.25457e-07
4.11311e-07
4.11312e-07
4.11308e-07
4.11309e-07
4.2558e-07
4.25453e-07
4.11305e-07
4.11316e-07
4.11303e-07
4.11314e-07
4.11311e-07
4.113e-07
4.11309e-07
4.25588e-07
4.25461e-07
4.11306e-07
4.11303e-07
4.11304e-07
4.25459e-07
4.25584e-07
4.25456e-07
4.11311e-07
4.11312e-07
4.11308e-07
4.11309e-07
4.2558e-07
4.25453e-07
4.11305e-07
4.11316e-07
4.11303e-07
4.11314e-07
4.11311e-07
4.113e-07
4.11309e-07
4.25587e-07
4.25461e-07
4.11306e-07
4.11304e-07
4.11304e-07
4.25458e-07
4.25584e-07
4.25456e-07
4.11311e-07
4.11312e-07
4.11308e-07
4.11309e-07
4.2558e-07
4.25453e-07
4.11305e-07
4.11316e-07
4.11303e-07
4.11314e-07
4.11311e-07
4.113e-07
4.11309e-07
4.25588e-07
4.25461e-07
4.11306e-07
4.11304e-07
4.11304e-07
4.25458e-07
4.25584e-07
4.25456e-07
4.11311e-07
4.11311e-07
4.11308e-07
4.11309e-07
4.2558e-07
4.25453e-07
4.11305e-07
4.11316e-07
4.11303e-07
4.11314e-07
4.11311e-07
4.113e-07
4.11309e-07
4.25588e-07
4.25461e-07
4.11306e-07
4.11304e-07
4.11304e-07
4.25458e-07
4.25584e-07
4.25456e-07
4.11311e-07
4.11312e-07
4.11308e-07
4.11309e-07
4.2558e-07
4.25453e-07
4.11305e-07
4.11316e-07
4.11303e-07
4.11314e-07
4.11311e-07
4.113e-07
4.11309e-07
4.25588e-07
4.25461e-07
4.11306e-07
4.11303e-07
4.11304e-07
4.25459e-07
4.25584e-07
4.25456e-07
4.11311e-07
4.11312e-07
4.11308e-07
4.11309e-07
4.2558e-07
4.25453e-07
4.11305e-07
4.11316e-07
4.11303e-07
4.11314e-07
4.11311e-07
4.113e-07
4.11309e-07
4.25587e-07
4.25461e-07
4.11306e-07
4.11304e-07
4.11304e-07
4.25458e-07
4.25584e-07
4.1131e-07
4.11311e-07
4.2558e-07
4.11304e-07
4.11315e-07
4.1131e-07
4.25588e-07
4.11305e-07
1.41069e-06
7.22665e-06
1.41126e-06
7.22631e-06
2.43855e-05
2.43825e-05
1.41059e-06
7.2277e-06
1.41109e-06
7.22727e-06
4.02345e-07
4.02341e-07
4.02341e-07
4.02339e-07
4.02343e-07
4.0234e-07
4.02339e-07
5.73708e-07
1.16344e-06
4.04569e-07
4.11504e-07
5.73815e-07
1.16287e-06
4.04569e-07
2.43908e-05
2.43854e-05
5.73701e-07
4.04567e-07
1.16369e-06
4.11506e-07
5.7381e-07
4.04567e-07
1.16295e-06
2.35108e-06
2.35156e-06
4.25597e-07
2.35086e-06
2.35135e-06
1.41066e-06
7.22639e-06
1.41099e-06
7.22598e-06
2.43807e-05
2.43794e-05
1.41053e-06
7.22741e-06
1.41083e-06
7.22696e-06
4.02343e-07
4.02339e-07
4.02339e-07
4.02331e-07
4.02332e-07
4.02331e-07
4.02331e-07
5.73653e-07
1.16323e-06
4.04566e-07
4.11506e-07
5.73742e-07
1.16282e-06
4.04566e-07
2.43832e-05
2.43814e-05
5.73645e-07
4.04564e-07
1.1632e-06
4.11507e-07
5.73735e-07
4.04564e-07
1.1628e-06
2.35127e-06
2.35175e-06
4.25606e-07
2.35096e-06
2.35146e-06
1.41129e-06
7.22664e-06
1.41115e-06
7.22936e-06
2.43894e-05
2.4397e-05
1.41117e-06
7.22776e-06
1.41097e-06
7.23027e-06
4.02319e-07
4.02322e-07
4.02321e-07
4.02167e-07
4.02158e-07
4.02167e-07
4.02166e-07
5.73712e-07
1.16356e-06
4.04548e-07
4.11428e-07
5.73772e-07
1.1634e-06
4.04515e-07
2.43844e-05
2.43939e-05
5.73705e-07
4.04549e-07
1.16332e-06
4.11467e-07
5.73764e-07
4.04521e-07
1.16321e-06
2.35153e-06
2.35201e-06
4.25582e-07
2.35197e-06
2.35246e-06
1.41163e-06
7.23253e-06
1.41194e-06
7.23214e-06
2.43979e-05
2.43973e-05
1.41149e-06
7.23357e-06
1.41177e-06
7.23314e-06
4.02126e-07
4.02131e-07
4.02131e-07
4.02102e-07
4.02102e-07
4.02103e-07
4.02102e-07
5.73738e-07
1.16388e-06
4.04362e-07
4.11306e-07
5.73831e-07
1.16346e-06
4.04349e-07
2.43997e-05
2.43987e-05
5.73731e-07
4.04364e-07
1.16381e-06
4.11313e-07
5.73825e-07
4.0435e-07
1.16342e-06
2.3526e-06
2.35308e-06
4.25452e-07
2.35224e-06
2.35273e-06
1.41163e-06
7.23245e-06
1.41196e-06
7.23212e-06
2.4398e-05
2.43975e-05
1.41149e-06
7.23349e-06
1.41178e-06
7.23312e-06
4.02106e-07
4.02106e-07
4.02106e-07
4.02101e-07
4.02102e-07
4.02103e-07
4.02102e-07
5.73734e-07
1.16388e-06
4.04339e-07
4.11303e-07
5.73828e-07
1.16346e-06
4.04343e-07
2.43994e-05
2.43986e-05
5.73726e-07
4.0434e-07
1.16382e-06
4.11307e-07
5.7382e-07
4.04343e-07
1.16342e-06
2.35256e-06
2.35305e-06
4.25463e-07
2.35223e-06
2.35272e-06
1.41163e-06
7.23244e-06
1.41196e-06
7.23212e-06
2.4398e-05
2.43964e-05
1.41149e-06
7.23348e-06
1.41178e-06
7.23312e-06
4.02105e-07
4.02106e-07
4.02105e-07
4.02101e-07
4.02102e-07
4.02103e-07
4.02103e-07
5.73735e-07
1.16388e-06
4.04338e-07
4.11302e-07
5.73831e-07
1.16346e-06
4.04341e-07
2.43993e-05
2.43985e-05
5.73726e-07
4.04339e-07
1.16382e-06
4.11306e-07
5.73822e-07
4.04342e-07
1.16342e-06
2.35256e-06
2.35305e-06
4.25457e-07
2.35223e-06
2.35272e-06
1.41163e-06
7.23235e-06
1.41196e-06
7.23206e-06
2.43969e-05
2.4397e-05
1.41149e-06
7.23348e-06
1.41178e-06
7.23312e-06
4.02105e-07
4.02106e-07
4.02105e-07
4.02101e-07
4.02102e-07
4.02103e-07
4.02102e-07
5.73736e-07
1.16388e-06
4.04338e-07
4.11302e-07
5.7383e-07
1.16346e-06
4.04341e-07
2.43993e-05
2.43985e-05
5.73727e-07
4.04339e-07
1.16382e-06
4.11306e-07
5.73822e-07
4.04342e-07
1.16342e-06
2.35256e-06
2.35305e-06
4.25457e-07
2.35223e-06
2.35272e-06
1.41163e-06
7.23243e-06
1.41196e-06
7.23212e-06
2.4398e-05
2.43976e-05
1.41149e-06
7.23349e-06
1.41178e-06
7.23312e-06
4.02105e-07
4.02106e-07
4.02105e-07
4.02101e-07
4.02102e-07
4.02103e-07
4.02102e-07
5.73736e-07
1.16388e-06
4.04338e-07
4.11302e-07
5.73829e-07
1.16346e-06
4.04341e-07
2.43993e-05
2.43986e-05
5.73727e-07
4.04339e-07
1.16382e-06
4.11306e-07
5.73822e-07
4.04342e-07
1.16342e-06
2.35256e-06
2.35305e-06
4.25457e-07
2.35223e-06
2.35272e-06
1.41163e-06
7.23246e-06
1.41196e-06
7.23216e-06
2.43978e-05
2.43967e-05
1.41149e-06
7.23345e-06
1.41178e-06
7.23316e-06
4.02105e-07
4.02106e-07
4.02105e-07
4.02101e-07
4.02102e-07
4.02103e-07
4.02102e-07
5.73736e-07
1.16388e-06
4.04338e-07
4.11302e-07
5.7383e-07
1.16346e-06
4.04341e-07
2.43994e-05
2.43986e-05
5.73727e-07
4.04339e-07
1.16382e-06
4.11306e-07
5.73822e-07
4.04342e-07
1.16342e-06
2.35256e-06
2.35305e-06
4.25457e-07
2.35223e-06
2.35272e-06
1.41163e-06
7.23244e-06
1.41196e-06
7.23205e-06
2.43973e-05
2.43966e-05
1.41149e-06
7.23353e-06
1.41178e-06
7.23322e-06
4.02105e-07
4.02106e-07
4.02105e-07
4.02101e-07
4.02102e-07
4.02103e-07
4.02102e-07
5.73736e-07
1.16388e-06
4.04338e-07
4.11303e-07
5.7383e-07
1.16346e-06
4.04341e-07
2.43993e-05
2.43986e-05
5.73727e-07
4.04339e-07
1.16382e-06
4.11306e-07
5.73822e-07
4.04342e-07
1.16342e-06
2.35256e-06
2.35305e-06
4.25457e-07
2.35223e-06
2.35272e-06
1.41163e-06
7.23236e-06
1.41196e-06
7.23201e-06
2.43972e-05
2.43966e-05
1.41149e-06
7.23358e-06
1.41178e-06
7.23325e-06
4.02105e-07
4.02106e-07
4.02105e-07
4.02101e-07
4.02102e-07
4.02103e-07
4.02102e-07
5.73736e-07
1.16388e-06
4.04339e-07
4.11303e-07
5.7383e-07
1.16346e-06
4.04341e-07
2.43993e-05
2.43986e-05
5.73727e-07
4.04339e-07
1.16382e-06
4.11306e-07
5.73822e-07
4.04342e-07
1.16342e-06
2.35256e-06
2.35305e-06
4.25457e-07
2.35223e-06
2.35272e-06
1.41163e-06
7.23237e-06
1.41196e-06
7.23202e-06
2.43972e-05
2.43967e-05
1.41149e-06
7.2336e-06
1.41178e-06
7.23326e-06
4.02105e-07
4.02106e-07
4.02105e-07
4.02101e-07
4.02102e-07
4.02103e-07
4.02102e-07
5.73736e-07
1.16388e-06
4.04339e-07
4.11303e-07
5.73829e-07
1.16346e-06
4.04341e-07
2.43993e-05
2.43986e-05
5.73727e-07
4.04339e-07
1.16382e-06
4.11306e-07
5.73822e-07
4.04342e-07
1.16342e-06
2.35256e-06
2.35305e-06
4.25457e-07
2.35223e-06
2.35272e-06
1.41163e-06
7.23236e-06
1.41196e-06
7.23201e-06
2.43972e-05
2.43967e-05
1.41149e-06
7.23361e-06
1.41178e-06
7.23327e-06
4.02105e-07
4.02106e-07
4.02105e-07
4.02101e-07
4.02102e-07
4.02103e-07
4.02103e-07
5.73736e-07
1.16388e-06
4.04338e-07
4.11303e-07
5.7383e-07
1.16346e-06
4.04341e-07
2.43993e-05
2.43986e-05
5.73727e-07
4.04339e-07
1.16382e-06
4.11306e-07
5.73823e-07
4.04342e-07
1.16342e-06
2.35256e-06
2.35305e-06
4.25457e-07
2.35223e-06
2.35272e-06
1.41163e-06
7.23236e-06
1.41196e-06
7.23201e-06
2.43972e-05
2.43967e-05
1.41149e-06
7.23361e-06
1.41178e-06
7.23327e-06
4.02105e-07
4.02106e-07
4.02105e-07
4.02101e-07
4.02102e-07
4.02103e-07
4.02103e-07
5.73736e-07
1.16388e-06
4.04339e-07
4.11303e-07
5.7383e-07
1.16346e-06
4.04341e-07
2.43994e-05
2.43986e-05
5.73727e-07
4.04339e-07
1.16382e-06
4.11306e-07
5.73823e-07
4.04342e-07
1.16342e-06
2.35256e-06
2.35305e-06
4.25458e-07
2.35223e-06
2.35272e-06
1.41163e-06
7.23236e-06
1.41196e-06
7.23201e-06
2.43972e-05
2.43967e-05
1.41149e-06
7.23361e-06
1.41178e-06
7.23327e-06
4.02105e-07
4.02106e-07
4.02105e-07
4.02101e-07
4.02102e-07
4.02103e-07
4.02102e-07
5.73736e-07
1.16388e-06
4.04338e-07
4.11303e-07
5.73829e-07
1.16346e-06
4.04341e-07
2.43993e-05
2.43986e-05
5.73728e-07
4.04339e-07
1.16382e-06
4.11306e-07
5.73824e-07
4.04342e-07
1.16342e-06
2.35256e-06
2.35305e-06
4.25458e-07
2.35223e-06
2.35272e-06
1.41163e-06
7.23236e-06
1.41196e-06
7.23201e-06
2.43972e-05
2.43967e-05
1.41149e-06
7.23361e-06
1.41178e-06
7.23327e-06
4.02105e-07
4.02106e-07
4.02105e-07
4.02101e-07
4.02102e-07
4.02103e-07
4.02102e-07
5.73736e-07
1.16388e-06
4.04338e-07
4.11303e-07
5.73829e-07
1.16346e-06
4.04341e-07
2.43994e-05
2.43985e-05
5.73728e-07
4.04339e-07
1.16382e-06
4.11306e-07
5.73824e-07
4.04342e-07
1.16343e-06
2.35256e-06
2.35305e-06
4.25457e-07
2.35223e-06
2.35273e-06
1.41163e-06
7.23236e-06
1.41196e-06
7.23201e-06
2.43972e-05
2.43967e-05
1.41149e-06
7.23361e-06
1.41178e-06
7.23327e-06
4.02105e-07
4.02106e-07
4.02105e-07
4.02101e-07
4.02102e-07
4.02103e-07
4.02102e-07
5.73736e-07
1.16388e-06
4.04339e-07
4.11303e-07
5.73829e-07
1.16346e-06
4.04341e-07
2.43993e-05
2.43985e-05
5.73728e-07
4.04339e-07
1.16382e-06
4.11306e-07
5.73823e-07
4.04342e-07
1.16343e-06
2.35256e-06
2.35305e-06
4.25458e-07
2.35223e-06
2.35273e-06
1.41174e-06
7.23236e-06
1.41196e-06
7.23204e-06
2.43972e-05
2.43967e-05
1.41164e-06
7.23361e-06
1.41177e-06
7.23331e-06
4.02104e-07
4.02104e-07
4.02104e-07
5.73736e-07
1.16388e-06
4.04339e-07
4.11302e-07
5.73829e-07
1.16346e-06
4.04342e-07
2.43993e-05
2.43987e-05
5.7374e-07
4.04339e-07
1.16382e-06
4.11307e-07
5.73823e-07
4.04343e-07
1.16369e-06
2.35256e-06
2.35305e-06
4.25457e-07
2.35223e-06
2.35288e-06
7.22671e-06
1.16313e-06
2.43859e-05
2.35104e-06
2.35069e-06
2.43828e-05
1.16312e-06
7.22651e-06
2.43873e-05
2.43825e-05
2.43906e-05
2.43857e-05
2.35095e-06
2.35148e-06
4.25594e-07
2.35074e-06
2.35127e-06
2.43797e-05
2.43823e-05
2.43829e-05
2.43855e-05
4.25724e-07
2.35083e-06
2.35135e-06
2.35101e-06
2.35152e-06
1.41069e-06
7.2268e-06
1.41125e-06
7.22653e-06
5.73709e-07
1.1636e-06
4.04566e-07
4.11509e-07
5.7382e-07
1.16289e-06
4.04566e-07
5.73704e-07
1.16342e-06
4.04568e-07
4.11511e-07
5.73814e-07
1.16291e-06
4.04568e-07
1.41097e-06
7.22612e-06
7.22633e-06
1.41068e-06
1.41096e-06
7.22635e-06
7.22654e-06
1.41068e-06
5.73792e-07
4.11508e-07
1.16276e-06
4.04565e-07
1.1632e-06
4.04565e-07
5.73654e-07
5.73788e-07
4.1151e-07
1.16285e-06
4.04566e-07
1.16325e-06
4.04567e-07
5.73651e-07
2.35141e-06
2.35115e-06
4.25599e-07
2.3513e-06
2.35097e-06
2.43828e-05
2.43794e-05
2.43806e-05
2.43824e-05
4.25729e-07
2.35135e-06
2.35106e-06
2.35156e-06
2.35135e-06
2.43773e-05
2.43794e-05
5.73705e-07
1.16395e-06
4.04566e-07
4.11505e-07
5.73814e-07
1.16312e-06
4.04566e-07
1.41059e-06
7.22808e-06
1.4111e-06
7.22763e-06
5.7371e-07
4.04567e-07
1.16404e-06
4.11515e-07
5.73821e-07
4.04567e-07
1.1632e-06
1.41082e-06
7.2271e-06
7.22735e-06
1.41056e-06
5.73784e-07
4.11504e-07
1.163e-06
4.04565e-07
1.16346e-06
4.04565e-07
5.73647e-07
1.41082e-06
7.2274e-06
7.22769e-06
1.41057e-06
5.73789e-07
4.11514e-07
4.04566e-07
1.16308e-06
4.04566e-07
1.16354e-06
5.73653e-07
1.4107e-06
7.22662e-06
1.41127e-06
7.22632e-06
5.7371e-07
4.04566e-07
1.16368e-06
4.1151e-07
5.73819e-07
4.04566e-07
1.16295e-06
1.4107e-06
7.22766e-06
1.41127e-06
7.22725e-06
5.73786e-07
4.11504e-07
1.16282e-06
4.04566e-07
1.16323e-06
4.04567e-07
5.73649e-07
1.41098e-06
7.22611e-06
7.22637e-06
1.41069e-06
5.73788e-07
4.11509e-07
4.04565e-07
1.16282e-06
4.04565e-07
1.16326e-06
5.73653e-07
1.41098e-06
7.22701e-06
7.22726e-06
1.41069e-06
2.35193e-06
2.35106e-06
4.25599e-07
2.35162e-06
2.35084e-06
2.43894e-05
2.43845e-05
2.43828e-05
2.43854e-05
4.25729e-07
2.35177e-06
2.35092e-06
2.35201e-06
2.35111e-06
2.43817e-05
2.43843e-05
5.73697e-07
4.04566e-07
1.16375e-06
4.11504e-07
5.73807e-07
4.04566e-07
1.16305e-06
1.41058e-06
7.22779e-06
1.41108e-06
7.22739e-06
1.41058e-06
7.22803e-06
1.41108e-06
7.22762e-06
5.73781e-07
4.11504e-07
4.04564e-07
1.16282e-06
4.04565e-07
1.16326e-06
5.73642e-07
5.73777e-07
4.11503e-07
4.04564e-07
1.16292e-06
4.04565e-07
1.16336e-06
5.73639e-07
1.4108e-06
7.22714e-06
7.22739e-06
1.41055e-06
1.4108e-06
7.22738e-06
7.22763e-06
1.41055e-06
2.43896e-05
2.43848e-05
2.43909e-05
2.43861e-05
4.25727e-07
2.35094e-06
2.35144e-06
2.35113e-06
2.35162e-06
2.43819e-05
2.43846e-05
2.43833e-05
2.43859e-05
2.43796e-05
2.43785e-05
2.43829e-05
2.43817e-05
2.35106e-06
2.35157e-06
4.25603e-07
2.35086e-06
2.35137e-06
2.43789e-05
2.43785e-05
2.43821e-05
2.43818e-05
4.25731e-07
2.3509e-06
2.35142e-06
2.35105e-06
2.35155e-06
1.41067e-06
7.22638e-06
1.41094e-06
7.2263e-06
5.73653e-07
1.16312e-06
4.04565e-07
4.11512e-07
5.73743e-07
1.16275e-06
4.04564e-07
5.73653e-07
1.16321e-06
4.04566e-07
4.11513e-07
5.73741e-07
1.16284e-06
4.04565e-07
1.41093e-06
7.22615e-06
7.22601e-06
1.41072e-06
1.41094e-06
7.22703e-06
7.22638e-06
1.41072e-06
5.73746e-07
4.11509e-07
1.1628e-06
4.04558e-07
1.1631e-06
4.04561e-07
5.73665e-07
5.73746e-07
4.11509e-07
1.16304e-06
4.04559e-07
1.16322e-06
4.04563e-07
5.73665e-07
2.3516e-06
2.35142e-06
4.25604e-07
2.35129e-06
2.35105e-06
2.43776e-05
2.43767e-05
2.43835e-05
2.43797e-05
4.25733e-07
2.35173e-06
2.35138e-06
2.35154e-06
2.35138e-06
2.43803e-05
2.43773e-05
5.73649e-07
1.16338e-06
4.04567e-07
4.11507e-07
5.73736e-07
1.16299e-06
4.04566e-07
1.41056e-06
7.22747e-06
1.41079e-06
7.22733e-06
5.73657e-07
4.04566e-07
1.16346e-06
4.11518e-07
5.73743e-07
4.04565e-07
1.16307e-06
1.41075e-06
7.22715e-06
7.22706e-06
1.41058e-06
5.7374e-07
4.11504e-07
1.16305e-06
4.04559e-07
1.16337e-06
4.04562e-07
5.73658e-07
1.41078e-06
7.22752e-06
7.22741e-06
1.4106e-06
5.73748e-07
4.11515e-07
4.04559e-07
1.16313e-06
4.04562e-07
1.16345e-06
5.73665e-07
1.41069e-06
7.22618e-06
1.41097e-06
7.2261e-06
5.73657e-07
4.04565e-07
1.16317e-06
4.11513e-07
5.73742e-07
4.04564e-07
1.1628e-06
1.41069e-06
7.22704e-06
1.41097e-06
7.22693e-06
5.73744e-07
4.11503e-07
1.16302e-06
4.04559e-07
1.16321e-06
4.04563e-07
5.73662e-07
1.41096e-06
7.22706e-06
7.22624e-06
1.41074e-06
5.73748e-07
4.1151e-07
4.04558e-07
1.16286e-06
4.04561e-07
1.16316e-06
5.73665e-07
1.41096e-06
7.2271e-06
7.22698e-06
1.41074e-06
2.35209e-06
2.35116e-06
4.25608e-07
2.35181e-06
2.35095e-06
2.43817e-05
2.43805e-05
2.4382e-05
2.43817e-05
4.25736e-07
2.35184e-06
2.35099e-06
2.35211e-06
2.35114e-06
2.43809e-05
2.43805e-05
5.73642e-07
4.04564e-07
1.16328e-06
4.11507e-07
5.73729e-07
4.04563e-07
1.1629e-06
1.41054e-06
7.22717e-06
1.41078e-06
7.22706e-06
1.41054e-06
7.22741e-06
1.41078e-06
7.22731e-06
5.73737e-07
4.11505e-07
4.04558e-07
1.16286e-06
4.04562e-07
1.16316e-06
5.73653e-07
5.73735e-07
4.11505e-07
4.04558e-07
1.16296e-06
4.04561e-07
1.16327e-06
5.7365e-07
1.41076e-06
7.22722e-06
7.2271e-06
1.41058e-06
1.41076e-06
7.22747e-06
7.22735e-06
1.41058e-06
2.43819e-05
2.43808e-05
2.43832e-05
2.43821e-05
4.25735e-07
2.35102e-06
2.3515e-06
2.35116e-06
2.35165e-06
2.43812e-05
2.43808e-05
2.43825e-05
2.43821e-05
2.43801e-05
2.43907e-05
2.43834e-05
2.43941e-05
2.35132e-06
2.35183e-06
4.2558e-07
2.35188e-06
2.35242e-06
2.43958e-05
2.43948e-05
2.43991e-05
2.43981e-05
4.2569e-07
2.35219e-06
2.35271e-06
2.35235e-06
2.35287e-06
1.41127e-06
7.22846e-06
1.41109e-06
7.23222e-06
5.73717e-07
1.16324e-06
4.04549e-07
4.11469e-07
5.73772e-07
1.16315e-06
4.04519e-07
5.73714e-07
1.16352e-06
4.04548e-07
4.11432e-07
5.73772e-07
1.1634e-06
4.04513e-07
1.41173e-06
7.23226e-06
7.23151e-06
1.4116e-06
1.41172e-06
7.23278e-06
7.23294e-06
1.4116e-06
5.73821e-07
4.11413e-07
1.16334e-06
4.044e-07
1.16362e-06
4.04455e-07
5.73738e-07
5.73819e-07
4.1138e-07
1.16347e-06
4.04396e-07
1.16382e-06
4.0445e-07
5.73737e-07
2.35237e-06
2.3522e-06
4.25538e-07
2.35271e-06
2.3525e-06
2.43862e-05
2.43942e-05
2.43973e-05
2.43977e-05
4.25648e-07
2.3527e-06
2.35246e-06
2.35301e-06
2.35293e-06
2.43947e-05
2.43955e-05
5.73714e-07
1.16351e-06
4.04549e-07
4.11465e-07
5.73764e-07
1.16341e-06
4.0452e-07
1.41116e-06
7.22778e-06
1.41093e-06
7.23047e-06
5.73718e-07
4.0455e-07
1.16359e-06
4.11475e-07
5.73771e-07
4.0452e-07
1.16348e-06
1.41156e-06
7.23326e-06
7.23245e-06
1.41147e-06
5.73816e-07
4.11408e-07
1.16359e-06
4.04401e-07
1.16389e-06
4.04456e-07
5.73735e-07
1.41157e-06
7.23373e-06
7.23268e-06
1.41149e-06
5.73822e-07
4.11418e-07
4.04402e-07
1.16368e-06
4.04457e-07
1.16397e-06
5.73741e-07
1.41129e-06
7.22853e-06
1.41111e-06
7.23199e-06
5.73716e-07
4.04549e-07
1.16329e-06
4.1147e-07
5.73769e-07
4.04519e-07
1.16321e-06
1.41129e-06
7.22727e-06
1.41111e-06
7.23003e-06
5.73816e-07
4.11374e-07
1.16346e-06
4.04397e-07
1.16383e-06
4.04449e-07
5.73735e-07
1.41174e-06
7.23257e-06
7.23281e-06
1.41162e-06
5.73819e-07
4.11413e-07
4.044e-07
1.16341e-06
4.04455e-07
1.16367e-06
5.73739e-07
1.41174e-06
7.23329e-06
7.23224e-06
1.41162e-06
2.35239e-06
2.35142e-06
4.25585e-07
2.3528e-06
2.35198e-06
2.43822e-05
2.43928e-05
2.4399e-05
2.43984e-05
4.25693e-07
2.35319e-06
2.35228e-06
2.35348e-06
2.35244e-06
2.43978e-05
2.43969e-05
5.73702e-07
4.04549e-07
1.1634e-06
4.11464e-07
5.73756e-07
4.04519e-07
1.16331e-06
1.41115e-06
7.22739e-06
1.41092e-06
7.23022e-06
1.41115e-06
7.22765e-06
1.41092e-06
7.23044e-06
5.73809e-07
4.11408e-07
4.04402e-07
1.1634e-06
4.04455e-07
1.16366e-06
5.73727e-07
5.73806e-07
4.11408e-07
4.04401e-07
1.16351e-06
4.04456e-07
1.16377e-06
5.73725e-07
1.41155e-06
7.23342e-06
7.23242e-06
1.41148e-06
1.41155e-06
7.23366e-06
7.23265e-06
1.41147e-06
2.43825e-05
2.43931e-05
2.43837e-05
2.43943e-05
4.25691e-07
2.35228e-06
2.35277e-06
2.35244e-06
2.35292e-06
2.43981e-05
2.43972e-05
2.43994e-05
2.43984e-05
2.43959e-05
2.43955e-05
2.43992e-05
2.43988e-05
2.35242e-06
2.35292e-06
4.25451e-07
2.35214e-06
2.35266e-06
2.43954e-05
2.43956e-05
2.43987e-05
2.43989e-05
4.25575e-07
2.35213e-06
2.35265e-06
2.35238e-06
2.35289e-06
1.41162e-06
7.23281e-06
1.4119e-06
7.23272e-06
5.73742e-07
1.16372e-06
4.04366e-07
4.11318e-07
5.73831e-07
1.16335e-06
4.0435e-07
5.7374e-07
1.16385e-06
4.04364e-07
4.11314e-07
5.73831e-07
1.16348e-06
4.04349e-07
1.41191e-06
7.23214e-06
7.23218e-06
1.41163e-06
1.4119e-06
7.2327e-06
7.23276e-06
1.41162e-06
5.73833e-07
4.11309e-07
1.16335e-06
4.04339e-07
1.16373e-06
4.0434e-07
5.73737e-07
5.73832e-07
4.11308e-07
1.16347e-06
4.04339e-07
1.16385e-06
4.0434e-07
5.73734e-07
2.35295e-06
2.35279e-06
4.25442e-07
2.35267e-06
2.35238e-06
2.4395e-05
2.43944e-05
2.43973e-05
2.43975e-05
4.2557e-07
2.35262e-06
2.35239e-06
2.3529e-06
2.35273e-06
2.43944e-05
2.43948e-05
5.73738e-07
1.164e-06
4.04367e-07
4.11313e-07
5.73827e-07
1.16361e-06
4.04351e-07
1.41152e-06
7.23379e-06
1.41175e-06
7.2336e-06
5.73744e-07
4.04368e-07
1.16409e-06
4.11324e-07
5.73834e-07
4.04351e-07
1.1637e-06
1.41173e-06
7.23315e-06
7.23324e-06
1.41149e-06
5.73828e-07
4.11304e-07
1.16361e-06
4.04339e-07
1.164e-06
4.0434e-07
5.73731e-07
1.41176e-06
7.23354e-06
7.23367e-06
1.41151e-06
5.73835e-07
4.11314e-07
4.04341e-07
1.1637e-06
4.04341e-07
1.16409e-06
5.73738e-07
1.41164e-06
7.23264e-06
1.41192e-06
7.23249e-06
5.73743e-07
4.04366e-07
1.16378e-06
4.11318e-07
5.73831e-07
4.0435e-07
1.16343e-06
1.41164e-06
7.23331e-06
1.41192e-06
7.2332e-06
5.73828e-07
4.11302e-07
1.16346e-06
4.04339e-07
1.16385e-06
4.04341e-07
5.73735e-07
1.41192e-06
7.23246e-06
7.23256e-06
1.41164e-06
5.73833e-07
4.11309e-07
4.0434e-07
1.16343e-06
4.0434e-07
1.1638e-06
5.73739e-07
1.41192e-06
7.23315e-06
7.23323e-06
1.41164e-06
2.3535e-06
2.35251e-06
4.25456e-07
2.3531e-06
2.35224e-06
2.43979e-05
2.43975e-05
2.43985e-05
2.4399e-05
4.25579e-07
2.35308e-06
2.35222e-06
2.35342e-06
2.35247e-06
2.43974e-05
2.43977e-05
5.73728e-07
4.04366e-07
1.16389e-06
4.11313e-07
5.73818e-07
4.0435e-07
1.16353e-06
1.4115e-06
7.23344e-06
1.41173e-06
7.23332e-06
1.4115e-06
7.23369e-06
1.41173e-06
7.23357e-06
5.73822e-07
4.11306e-07
4.0434e-07
1.16343e-06
4.04342e-07
1.16379e-06
5.73726e-07
5.7382e-07
4.11303e-07
4.04339e-07
1.16353e-06
4.0434e-07
1.1639e-06
5.73723e-07
1.41174e-06
7.23327e-06
7.23336e-06
1.41149e-06
1.41174e-06
7.23352e-06
7.2336e-06
1.41149e-06
2.43982e-05
2.43978e-05
2.43995e-05
2.43991e-05
4.25576e-07
2.35223e-06
2.35272e-06
2.35248e-06
2.35297e-06
2.43977e-05
2.43979e-05
2.4399e-05
2.43993e-05
2.43956e-05
2.43953e-05
2.43989e-05
2.43987e-05
2.35236e-06
2.35288e-06
4.25459e-07
2.35213e-06
2.35265e-06
2.43953e-05
2.43955e-05
2.43987e-05
2.43989e-05
4.25588e-07
2.35211e-06
2.35264e-06
2.35236e-06
2.35288e-06
1.41162e-06
7.23274e-06
1.4119e-06
7.23269e-06
5.73737e-07
1.16373e-06
4.04343e-07
4.11312e-07
5.73828e-07
1.16336e-06
4.04343e-07
5.73734e-07
1.16385e-06
4.04343e-07
4.11312e-07
5.73826e-07
1.16347e-06
4.04343e-07
1.41191e-06
7.23213e-06
7.23216e-06
1.41163e-06
1.4119e-06
7.23269e-06
7.23274e-06
1.41162e-06
5.73831e-07
4.1131e-07
1.16336e-06
4.0434e-07
1.16373e-06
4.04341e-07
5.73742e-07
5.73829e-07
4.11309e-07
1.16347e-06
4.0434e-07
1.16384e-06
4.04341e-07
5.73739e-07
2.35286e-06
2.35273e-06
4.25457e-07
2.35261e-06
2.35239e-06
2.43948e-05
2.43944e-05
2.43974e-05
2.43976e-05
4.25584e-07
2.3526e-06
2.3524e-06
2.35285e-06
2.35274e-06
2.43944e-05
2.43948e-05
5.73731e-07
1.16401e-06
4.04343e-07
4.11307e-07
5.7382e-07
1.16361e-06
4.04343e-07
1.41151e-06
7.23362e-06
1.41175e-06
7.23353e-06
5.73738e-07
4.04344e-07
1.16409e-06
4.11317e-07
5.73828e-07
4.04344e-07
1.1637e-06
1.41173e-06
7.23314e-06
7.23323e-06
1.41149e-06
5.73824e-07
4.11305e-07
1.16361e-06
4.0434e-07
1.164e-06
4.04341e-07
5.73736e-07
1.41175e-06
7.23353e-06
7.23361e-06
1.41151e-06
5.73831e-07
4.11315e-07
4.04341e-07
1.1637e-06
4.04342e-07
1.16409e-06
5.73742e-07
1.41163e-06
7.23254e-06
1.41192e-06
7.23245e-06
5.73738e-07
4.04343e-07
1.16379e-06
4.11312e-07
5.73828e-07
4.04343e-07
1.16343e-06
1.41163e-06
7.23319e-06
1.41192e-06
7.23313e-06
5.73826e-07
4.11303e-07
1.16346e-06
4.04339e-07
1.16385e-06
4.04342e-07
5.73737e-07
1.41192e-06
7.23246e-06
7.23254e-06
1.41164e-06
5.73829e-07
4.1131e-07
4.0434e-07
1.16343e-06
4.04341e-07
1.16379e-06
5.73742e-07
1.41192e-06
7.23313e-06
7.23318e-06
1.41164e-06
2.35341e-06
2.35246e-06
4.25464e-07
2.35309e-06
2.35222e-06
2.43976e-05
2.43974e-05
2.43985e-05
2.4399e-05
4.25592e-07
2.35308e-06
2.35222e-06
2.35342e-06
2.35246e-06
2.43974e-05
2.43976e-05
5.73722e-07
4.04343e-07
1.1639e-06
4.11306e-07
5.73814e-07
4.04343e-07
1.16353e-06
1.41149e-06
7.23332e-06
1.41173e-06
7.23326e-06
1.41149e-06
7.23356e-06
1.41173e-06
7.2335e-06
5.73818e-07
4.11306e-07
4.04339e-07
1.16342e-06
4.04342e-07
1.16378e-06
5.73728e-07
5.73816e-07
4.11304e-07
4.0434e-07
1.16353e-06
4.04341e-07
1.1639e-06
5.73726e-07
1.41173e-06
7.23326e-06
7.2333e-06
1.41149e-06
1.41173e-06
7.2335e-06
7.23354e-06
1.41149e-06
2.43979e-05
2.43977e-05
2.43992e-05
2.4399e-05
4.25591e-07
2.35224e-06
2.35273e-06
2.35248e-06
2.35296e-06
2.43977e-05
2.43979e-05
2.4399e-05
2.43992e-05
2.43956e-05
2.43953e-05
2.43989e-05
2.43987e-05
2.35235e-06
2.35288e-06
4.25455e-07
2.3521e-06
2.35265e-06
2.43954e-05
2.43956e-05
2.43987e-05
2.43989e-05
4.25584e-07
2.35209e-06
2.35264e-06
2.35234e-06
2.35287e-06
1.41162e-06
7.23273e-06
1.4119e-06
7.23255e-06
5.73735e-07
1.16373e-06
4.04342e-07
4.11311e-07
5.73832e-07
1.16336e-06
4.04342e-07
5.73734e-07
1.16384e-06
4.04342e-07
4.11311e-07
5.7383e-07
1.1635e-06
4.04342e-07
1.41191e-06
7.23207e-06
7.23218e-06
1.41163e-06
1.4119e-06
7.23248e-06
7.23262e-06
1.41162e-06
5.73828e-07
4.11309e-07
1.16335e-06
4.0434e-07
1.16373e-06
4.0434e-07
5.73741e-07
5.73827e-07
4.11309e-07
1.16354e-06
4.04339e-07
1.16391e-06
4.0434e-07
5.73738e-07
2.35284e-06
2.35275e-06
4.25453e-07
2.35271e-06
2.3524e-06
2.43948e-05
2.43944e-05
2.43961e-05
2.43968e-05
4.25581e-07
2.35285e-06
2.3524e-06
2.35308e-06
2.35275e-06
2.43944e-05
2.43948e-05
5.73731e-07
1.16401e-06
4.04342e-07
4.11306e-07
5.73825e-07
1.16361e-06
4.04342e-07
1.41151e-06
7.23361e-06
1.41174e-06
7.23353e-06
5.73737e-07
4.04343e-07
1.16409e-06
4.11316e-07
5.73832e-07
4.04343e-07
1.1637e-06
1.41173e-06
7.23314e-06
7.23322e-06
1.41149e-06
5.73821e-07
4.11304e-07
1.16361e-06
4.0434e-07
1.164e-06
4.0434e-07
5.73734e-07
1.41175e-06
7.23353e-06
7.23361e-06
1.41151e-06
5.73828e-07
4.11314e-07
4.04341e-07
1.1637e-06
4.04341e-07
1.16409e-06
5.7374e-07
1.41164e-06
7.23254e-06
1.41192e-06
7.23246e-06
5.73739e-07
4.04342e-07
1.16379e-06
4.11311e-07
5.73831e-07
4.04342e-07
1.16343e-06
1.41164e-06
7.23317e-06
1.41192e-06
7.23313e-06
5.73826e-07
4.11302e-07
1.16346e-06
4.04338e-07
1.16385e-06
4.04341e-07
5.73735e-07
1.41192e-06
7.23246e-06
7.23254e-06
1.41164e-06
5.73829e-07
4.11309e-07
4.0434e-07
1.16343e-06
4.0434e-07
1.16379e-06
5.7374e-07
1.41192e-06
7.23313e-06
7.23318e-06
1.41164e-06
2.35341e-06
2.35246e-06
4.2546e-07
2.35309e-06
2.35222e-06
2.43976e-05
2.43974e-05
2.43985e-05
2.4399e-05
4.25589e-07
2.35308e-06
2.35222e-06
2.35342e-06
2.35246e-06
2.43974e-05
2.43976e-05
5.73722e-07
4.04342e-07
1.1639e-06
4.11306e-07
5.73817e-07
4.04342e-07
1.16353e-06
1.41149e-06
7.2333e-06
1.41173e-06
7.23326e-06
1.41149e-06
7.23354e-06
1.41173e-06
7.2335e-06
5.73817e-07
4.11306e-07
4.0434e-07
1.16343e-06
4.04341e-07
1.16379e-06
5.73727e-07
5.73814e-07
4.11303e-07
4.0434e-07
1.16353e-06
4.0434e-07
1.1639e-06
5.73724e-07
1.41173e-06
7.23326e-06
7.23331e-06
1.41149e-06
1.41173e-06
7.2335e-06
7.23354e-06
1.41149e-06
2.43979e-05
2.43977e-05
2.43992e-05
2.4399e-05
4.25586e-07
2.35224e-06
2.35273e-06
2.35248e-06
2.35297e-06
2.43977e-05
2.43979e-05
2.4399e-05
2.43992e-05
2.43956e-05
2.43958e-05
2.43989e-05
2.43987e-05
2.35235e-06
2.35287e-06
4.25455e-07
2.35214e-06
2.35264e-06
2.43959e-05
2.43961e-05
2.43987e-05
2.43989e-05
4.25585e-07