/*--------------------------------*- C++ -*----------------------------------*\
| =========                 |                                                 |
| \\      /  F ield         | OpenFOAM: The Open Source CFD Toolbox           |
|  \\    /   O peration     | Version:  2206                                  |
|   \\  /    A nd           | Website:  www.openfoam.com                      |
|    \\/     M anipulation  |                                                 |
\*---------------------------------------------------------------------------*/
FoamFile
{
    version     2.0;
    format      ascii;
    arch        "LSB;label=32;scalar=64";
    class       surfaceScalarField;
    location    "25.5";
    object      phi;
}
// * * * * * * * * * * * * * * * * * * * * * * * * * * * * * * * * * * * * * //

dimensions      [0 3 -1 0 0 0 0];

oriented        oriented;

internalField   nonuniform List<scalar> 
82717
(
1.39112e-09
1.49864e-09
-1.49331e-09
-1.46148e-09
0.00108306
-0.0010832
-1.19969e-06
-1.51514e-09
2.62876e-09
0.0010832
-2.48728e-07
1.20217e-06
2.47697e-07
8.84661e-07
-2.47891e-07
-8.84418e-07
2.45072e-07
-1.19428e-06
-1.5078e-09
2.61063e-09
0.00108285
-2.48701e-07
1.19674e-06
2.47675e-07
8.84491e-07
-2.50539e-07
-8.8429e-07
2.47745e-07
1.22787e-06
1.1944e-06
-2.27717e-07
-2.32994e-07
0.000264239
1.47745e-09
1.57612e-09
-0.00108306
-1.50889e-09
-1.49607e-09
0.00108306
-0.0010832
-1.19966e-06
-1.63793e-09
2.54816e-09
0.00108319
-2.48685e-07
1.20219e-06
2.47729e-07
8.84688e-07
-2.47819e-07
-8.84372e-07
2.45125e-07
-0.00108285
-1.19427e-06
-1.60302e-09
2.57098e-09
0.00108285
-2.48677e-07
1.19675e-06
2.47695e-07
8.84521e-07
-2.50465e-07
-8.84245e-07
2.47812e-07
-0.000266201
1.22786e-06
1.19438e-06
-2.27689e-07
-2.32967e-07
0.000264239
1.55625e-09
1.69266e-09
-0.00108306
-1.54658e-09
-1.5295e-09
0.00108306
-0.00108319
-1.19965e-06
-1.7312e-09
2.55483e-09
0.00108319
-2.48669e-07
1.2022e-06
2.47755e-07
8.84746e-07
-2.47766e-07
-8.84332e-07
2.45198e-07
-0.00108285
-1.19424e-06
-1.69847e-09
2.52462e-09
0.00108285
-2.48643e-07
1.19678e-06
2.47735e-07
8.84569e-07
-2.50415e-07
-8.84209e-07
2.47873e-07
-0.000266201
1.22783e-06
1.19435e-06
-2.27654e-07
-2.32929e-07
0.000264239
1.68148e-09
1.89228e-09
-0.00108306
-1.66699e-09
-1.57741e-09
0.00108306
-0.00108319
-1.19963e-06
-1.77483e-09
2.61537e-09
0.00108319
-2.48668e-07
1.20222e-06
2.47773e-07
8.84806e-07
-2.47712e-07
-8.84287e-07
2.45265e-07
-0.00108285
-1.19418e-06
-1.88114e-09
2.41983e-09
0.00108285
-2.48584e-07
1.19686e-06
2.47817e-07
8.84656e-07
-2.50347e-07
-8.84158e-07
2.47975e-07
-0.0002662
1.22777e-06
1.1943e-06
-2.276e-07
-2.3287e-07
0.000264239
2.04768e-09
2.44466e-09
-0.00108306
-1.92253e-09
-1.66359e-09
0.00108306
-0.00108319
-1.19951e-06
-2.02417e-09
2.58347e-09
0.00108319
-2.48574e-07
1.20229e-06
2.47792e-07
8.84945e-07
-2.47646e-07
-8.8419e-07
2.45358e-07
-0.00108285
-1.19407e-06
-2.36849e-09
2.13055e-09
0.00108285
-2.48485e-07
1.19702e-06
2.47957e-07
8.84837e-07
-2.50242e-07
-8.84035e-07
2.48139e-07
-0.0002662
1.22765e-06
1.1942e-06
-2.27501e-07
-2.32755e-07
0.000264238
-6.66897e-11
4.5257e-11
-0.00108306
-7.68238e-10
-7.69334e-10
0.00108306
-0.00108319
-1.19997e-06
-2.91574e-10
2.96398e-09
0.00108319
-2.49067e-07
1.20201e-06
2.47506e-07
8.84207e-07
-2.486e-07
-8.85037e-07
2.44538e-07
-0.00108285
-1.19468e-06
-8.56385e-11
3.17748e-09
0.00108285
-2.4916e-07
1.19645e-06
2.47345e-07
8.84025e-07
-2.51248e-07
-8.84895e-07
2.47151e-07
-0.0002662
1.22826e-06
1.19479e-06
-2.2824e-07
-2.33502e-07
0.000264238
1.32917e-09
1.56567e-09
-0.00108306
-1.46878e-09
-1.42836e-09
0.00108306
-0.0010832
-1.19971e-06
-1.64342e-09
2.60903e-09
0.0010832
-2.48752e-07
1.20219e-06
2.47711e-07
8.84784e-07
-2.47959e-07
-8.84423e-07
2.45157e-07
-0.00108285
-1.19427e-06
-1.63135e-09
2.48932e-09
0.00108285
-2.48678e-07
1.19684e-06
2.47804e-07
8.84581e-07
-2.50637e-07
-8.84328e-07
2.47811e-07
-0.000266201
1.22786e-06
1.19437e-06
-2.27692e-07
-2.32977e-07
0.000264239
1.37875e-09
1.5217e-09
-0.00108306
-1.45683e-09
-1.42267e-09
0.00108306
-0.0010832
-1.19967e-06
-1.63078e-09
2.56444e-09
0.0010832
-2.48702e-07
1.20222e-06
2.47778e-07
8.84738e-07
-2.47916e-07
-8.84443e-07
2.45159e-07
-0.00108285
-1.1943e-06
-1.62563e-09
2.56964e-09
0.00108285
-2.48722e-07
1.1968e-06
2.47744e-07
8.84569e-07
-2.50571e-07
-8.8432e-07
2.47836e-07
-0.000266201
1.22788e-06
1.19441e-06
-2.27726e-07
-2.32998e-07
0.000264239
1.29441e-09
1.42547e-09
-0.00108305
-1.43908e-09
-1.45539e-09
0.00108305
-0.0010832
-1.19971e-06
-1.51797e-09
2.63877e-09
0.0010832
-2.51496e-07
1.2022e-06
2.50431e-07
8.84717e-07
-2.47985e-07
-8.84477e-07
2.45149e-07
-0.00108285
-1.19431e-06
-1.54046e-09
2.5966e-09
0.00108285
-2.48738e-07
1.19679e-06
2.4773e-07
8.84552e-07
-2.50588e-07
-8.84338e-07
2.4782e-07
-0.000266201
1.2279e-06
1.19442e-06
-2.27739e-07
-2.33012e-07
0.000264239
1.412e-09
1.51029e-09
-0.00108306
-1.45878e-09
-1.45772e-09
0.00108306
-0.0010832
-1.19969e-06
-1.53381e-09
2.60622e-09
0.0010832
-2.51503e-07
1.20219e-06
2.50481e-07
8.84719e-07
-2.47974e-07
-8.84469e-07
2.45154e-07
-0.00108285
-1.19431e-06
-1.53043e-09
2.59175e-09
0.00108285
-2.48737e-07
1.19679e-06
2.47731e-07
8.84549e-07
-2.5059e-07
-8.84341e-07
2.47817e-07
-0.000266201
1.2279e-06
1.19442e-06
-2.27739e-07
-2.33012e-07
0.000264239
1.42153e-09
1.52441e-09
-0.00108306
-1.47643e-09
-1.46325e-09
0.00108306
-0.0010832
-1.19969e-06
-1.54279e-09
2.60503e-09
0.0010832
-2.51494e-07
1.2022e-06
2.50492e-07
8.84722e-07
-2.47975e-07
-8.84467e-07
2.45154e-07
-0.00108285
-1.19431e-06
-1.53067e-09
2.58462e-09
0.00108285
-2.48734e-07
1.19679e-06
2.47733e-07
8.8455e-07
-2.50589e-07
-8.8434e-07
2.47818e-07
-0.000266201
1.2279e-06
1.19442e-06
-2.27737e-07
-2.33012e-07
0.000264239
1.41488e-09
1.53189e-09
-0.00108306
-1.48277e-09
-1.46364e-09
0.00108306
-0.0010832
-1.19969e-06
-1.54138e-09
2.60678e-09
0.0010832
-2.51494e-07
1.20219e-06
2.50491e-07
8.84722e-07
-2.47974e-07
-8.84466e-07
2.45155e-07
-0.00108285
-1.19431e-06
-1.52716e-09
2.58487e-09
0.00108285
-2.48734e-07
1.19679e-06
2.47733e-07
8.84549e-07
-2.5059e-07
-8.84341e-07
2.47817e-07
-0.000266201
1.2279e-06
1.19442e-06
-2.27738e-07
-2.33013e-07
0.000264239
1.42054e-09
1.54181e-09
-0.00108306
-1.48912e-09
-1.46801e-09
0.00108306
-0.0010832
-1.19969e-06
-1.5449e-09
2.60591e-09
0.0010832
-2.51494e-07
1.20219e-06
2.50492e-07
8.84723e-07
-2.47974e-07
-8.84466e-07
2.45156e-07
-0.00108285
-1.19431e-06
-1.53e-09
2.58193e-09
0.00108285
-2.48733e-07
1.19679e-06
2.47735e-07
8.8455e-07
-2.50591e-07
-8.84341e-07
2.47819e-07
-0.000266201
1.2279e-06
1.19442e-06
-2.27738e-07
-2.33013e-07
0.000264239
1.415e-09
1.53909e-09
-0.00108306
-1.48937e-09
-1.46534e-09
0.00108306
-0.0010832
-1.19969e-06
-1.53521e-09
2.60921e-09
0.0010832
-2.51493e-07
1.20219e-06
2.5049e-07
8.84721e-07
-2.47975e-07
-8.84467e-07
2.45153e-07
-0.00108285
-1.19431e-06
-1.52249e-09
2.58703e-09
0.00108285
-2.48733e-07
1.19679e-06
2.47729e-07
8.84545e-07
-2.50588e-07
-8.84339e-07
2.47812e-07
-0.000266201
1.2279e-06
1.19442e-06
-2.27738e-07
-2.33011e-07
0.000264239
1.40869e-09
1.53068e-09
-0.00108306
-1.48218e-09
-1.46068e-09
0.00108306
-0.0010832
-1.19969e-06
-1.53711e-09
2.6094e-09
0.0010832
-2.51498e-07
1.20219e-06
2.50493e-07
8.84721e-07
-2.47976e-07
-8.84466e-07
2.45155e-07
-0.00108285
-1.19431e-06
-1.51703e-09
2.59175e-09
0.00108285
-2.48736e-07
1.19679e-06
2.4773e-07
8.84545e-07
-2.50592e-07
-8.84342e-07
2.47812e-07
-0.000266201
1.2279e-06
1.19442e-06
-2.2774e-07
-2.33015e-07
0.000264239
1.3942e-09
1.52754e-09
-0.00108306
-1.47901e-09
-1.4535e-09
0.00108306
-0.0010832
-1.19969e-06
-1.53121e-09
2.61366e-09
0.0010832
-2.51496e-07
1.20219e-06
2.50489e-07
8.84718e-07
-2.47972e-07
-8.84465e-07
2.4515e-07
-0.00108285
-1.19431e-06
-1.51473e-09
2.59382e-09
0.00108285
-2.48734e-07
1.19679e-06
2.47728e-07
8.84541e-07
-2.50589e-07
-8.84339e-07
2.47808e-07
-0.000266201
1.2279e-06
1.19442e-06
-2.27739e-07
-2.33013e-07
0.000264239
1.39104e-09
1.52712e-09
-0.00108306
-1.47855e-09
-1.45143e-09
0.00108306
-0.0010832
-1.19969e-06
-1.5343e-09
2.61244e-09
0.0010832
-2.51491e-07
1.20219e-06
2.50484e-07
8.84709e-07
-2.47963e-07
-8.84457e-07
2.4514e-07
-0.00108285
-1.1943e-06
-1.51747e-09
2.59064e-09
0.00108285
-2.48729e-07
1.19678e-06
2.47726e-07
8.84534e-07
-2.50578e-07
-8.84332e-07
2.47799e-07
-0.000266201
1.2279e-06
1.19442e-06
-2.27735e-07
-2.3301e-07
0.000264239
1.4044e-09
1.54137e-09
-0.00108306
-1.48405e-09
-1.45576e-09
0.00108306
-0.0010832
-1.19968e-06
-1.54325e-09
2.6101e-09
0.0010832
-2.51477e-07
1.20218e-06
2.50472e-07
8.84688e-07
-2.47937e-07
-8.8443e-07
2.45119e-07
-0.00108285
-1.19429e-06
-1.52631e-09
2.58997e-09
0.00108285
-2.4871e-07
1.19677e-06
2.47706e-07
8.84512e-07
-2.50547e-07
-8.84303e-07
2.47774e-07
-0.000266201
1.22788e-06
1.1944e-06
-2.27719e-07
-2.32994e-07
0.000264239
1.24108e-06
0.00108285
-1.23863e-06
2.55796e-07
-2.56905e-07
-8.8999e-07
2.47755e-07
-2.5071e-07
8.90172e-07
-1.20217e-06
0.000266246
-0.000264268
2.30412e-07
2.35248e-07
-1.19968e-06
2.47697e-07
-2.48723e-07
2.45059e-07
-2.47896e-07
1.23319e-06
1.19705e-06
-2.25191e-07
-2.30412e-07
0.000264245
-1.23564e-06
-1.19953e-06
0.000266219
-0.000264245
2.27669e-07
2.32895e-07
2.78135e-09
0.00108241
-2.56857e-07
1.23563e-06
2.55742e-07
8.84552e-07
-2.47893e-07
-8.84396e-07
2.44987e-07
-1.23864e-06
-1.20837e-09
-2.50129e-09
0.00108285
-2.56914e-07
1.24107e-06
2.5579e-07
8.90139e-07
-2.50708e-07
-8.90031e-07
2.47762e-07
0.00108241
-1.50076e-09
-0.00108241
2.75073e-09
-1.23318e-06
2.55758e-07
-2.56842e-07
-8.84344e-07
2.45053e-07
-2.47822e-07
8.84591e-07
1.24108e-06
0.00108285
-1.33396e-09
-0.00108285
2.67878e-09
-1.23862e-06
2.55816e-07
-2.56883e-07
-8.89953e-07
2.47809e-07
-2.50648e-07
8.9016e-07
-2.27947e-07
-2.32789e-07
0.000264268
-1.20219e-06
0.000266246
-0.000264268
2.30445e-07
2.3527e-07
2.61278e-09
0.00108346
-2.51477e-07
1.19952e-06
2.50422e-07
8.87427e-07
-2.50663e-07
-8.8713e-07
2.47822e-07
-1.23326e-06
-1.34681e-09
2.77707e-09
0.00108253
-2.56905e-07
1.23569e-06
2.55776e-07
8.87272e-07
-2.50631e-07
-8.87129e-07
2.4773e-07
0.00108346
-1.58936e-09
-0.00108346
2.55672e-09
-1.19704e-06
2.50442e-07
-2.51461e-07
-8.87082e-07
2.47881e-07
-2.50599e-07
8.87463e-07
1.23569e-06
0.00108253
-1.41573e-09
-0.00108253
2.7465e-09
-1.23325e-06
2.5579e-07
-2.56889e-07
-8.87085e-07
2.47782e-07
-2.50568e-07
8.87301e-07
-1.35777e-09
2.76636e-09
0.00108232
-2.51359e-07
1.23029e-06
2.50259e-07
8.84583e-07
-2.47869e-07
2.4496e-07
-8.84429e-07
-1.62719e-09
-0.0010832
2.55405e-09
-1.19966e-06
2.47728e-07
-2.48688e-07
-8.84369e-07
2.45124e-07
8.84695e-07
-2.47825e-07
1.2303e-06
0.00108232
-1.44606e-09
-0.00108232
2.73619e-09
-1.22786e-06
2.50275e-07
-2.51342e-07
-8.84382e-07
2.45017e-07
-2.47806e-07
8.84618e-07
-2.25385e-07
-2.32763e-07
0.000264226
-1.19675e-06
0.000266196
-0.000264226
2.27846e-07
2.35227e-07
-1.46731e-09
2.6112e-09
0.00108337
-2.48758e-07
1.19685e-06
2.47731e-07
8.82113e-07
-2.47959e-07
2.45109e-07
-8.81858e-07
-1.61008e-09
-0.00108285
2.57188e-09
-1.19427e-06
2.47691e-07
-2.48682e-07
-8.84191e-07
2.47784e-07
8.84583e-07
-2.50494e-07
1.19686e-06
0.00108337
-1.54512e-09
-0.00108337
2.568e-09
-1.19438e-06
2.47748e-07
-2.4874e-07
-8.81813e-07
2.45165e-07
-2.47899e-07
8.82148e-07
-0.000264239
2.30173e-07
2.35458e-07
1.23318e-06
1.19705e-06
-2.25169e-07
-2.30388e-07
0.000264244
-1.23566e-06
-1.20222e-06
0.000266216
-0.000264244
2.3025e-07
2.35539e-07
2.75015e-09
0.00108241
-2.56835e-07
1.23564e-06
2.55769e-07
8.84573e-07
-2.47823e-07
-8.84364e-07
2.45052e-07
-1.23861e-06
-1.38229e-09
2.67259e-09
0.00108285
-2.56878e-07
1.24109e-06
2.5582e-07
8.90164e-07
-2.50639e-07
-8.89952e-07
2.4782e-07
0.00108241
-1.59378e-09
-0.00108241
2.66697e-09
-1.23315e-06
2.55802e-07
-2.56803e-07
-8.86989e-07
2.45117e-07
-2.50467e-07
8.84642e-07
1.24112e-06
0.00108285
-1.49472e-09
-0.00108285
2.67393e-09
-1.23859e-06
2.55856e-07
-2.56852e-07
-8.89913e-07
2.47873e-07
-2.50595e-07
8.90208e-07
-2.27909e-07
-2.32759e-07
0.000264268
-1.20221e-06
0.000266245
-0.000264268
2.30478e-07
2.35316e-07
2.57659e-09
0.00108346
-2.5146e-07
1.19952e-06
2.50478e-07
8.87453e-07
-2.50595e-07
-8.87088e-07
2.47883e-07
-1.23324e-06
-1.42812e-09
2.7422e-09
0.00108253
-2.56881e-07
1.2357e-06
2.55798e-07
8.87294e-07
-2.50565e-07
-8.87093e-07
2.47787e-07
0.00108346
-1.73634e-09
-0.00108346
2.51712e-09
-1.19969e-06
2.53245e-07
-2.5419e-07
-8.87052e-07
2.47945e-07
-2.50545e-07
8.87506e-07
1.23572e-06
0.00108252
-1.56507e-09
-0.00108252
2.67397e-09
-1.23322e-06
2.55829e-07
-2.56852e-07
-8.87038e-07
2.47857e-07
-2.50504e-07
8.87361e-07
-1.45496e-09
2.7305e-09
0.00108232
-2.51333e-07
1.23031e-06
2.5028e-07
8.84612e-07
-2.47795e-07
2.45025e-07
-8.84384e-07
-1.73004e-09
-0.00108319
2.53414e-09
-1.19964e-06
2.47758e-07
-2.48664e-07
-8.84338e-07
2.45188e-07
8.8474e-07
-2.47774e-07
1.23034e-06
0.00108232
-1.56542e-09
-0.00108232
2.66376e-09
-1.22783e-06
2.50318e-07
-2.51303e-07
-8.84355e-07
2.45083e-07
-2.4775e-07
8.84657e-07
-2.25365e-07
-2.32735e-07
0.000264226
-1.19679e-06
0.000266195
-0.000264226
2.27894e-07
2.35265e-07
-1.55706e-09
2.57189e-09
0.00108337
-2.48732e-07
1.19687e-06
2.47753e-07
8.82144e-07
-2.47888e-07
2.45173e-07
-8.81814e-07
-1.73642e-09
-0.00108285
2.50224e-09
-1.19424e-06
2.47734e-07
-2.48642e-07
-8.84161e-07
2.4785e-07
8.84625e-07
-2.50437e-07
1.19689e-06
0.00108337
-1.71501e-09
-0.00108337
2.52403e-09
-1.19435e-06
2.4779e-07
-2.48703e-07
-8.81779e-07
2.45235e-07
-2.47838e-07
8.82195e-07
-0.000264239
2.30213e-07
2.35501e-07
1.23315e-06
1.19968e-06
-2.2769e-07
-2.32965e-07
0.000264244
-1.23573e-06
-1.20228e-06
0.000266216
-0.000264244
2.30311e-07
2.35607e-07
2.66983e-09
0.00108241
-2.56798e-07
1.23567e-06
2.55809e-07
8.87305e-07
-2.47781e-07
-8.84321e-07
2.47805e-07
-1.23858e-06
-1.53951e-09
2.69489e-09
0.00108285
-2.56848e-07
1.24112e-06
2.55862e-07
8.90214e-07
-2.50594e-07
-8.89909e-07
2.4788e-07
0.00108241
-1.8352e-09
-0.00108241
2.49395e-09
-1.2331e-06
2.55875e-07
-2.56748e-07
-8.86946e-07
2.47899e-07
-2.50412e-07
8.8738e-07
1.24118e-06
0.00108285
-1.57835e-09
-0.00108285
2.65997e-09
-1.23855e-06
2.55899e-07
-2.56829e-07
-8.89891e-07
2.47935e-07
-2.50571e-07
8.90261e-07
-2.27893e-07
-2.32722e-07
0.000264268
-1.20224e-06
0.000266245
-0.000264267
2.30494e-07
2.35393e-07
2.53474e-09
0.00108346
-2.54185e-07
1.20222e-06
2.53252e-07
8.87505e-07
-2.50545e-07
-8.8705e-07
2.47945e-07
-1.23322e-06
-1.54341e-09
2.6959e-09
0.00108252
-2.5685e-07
1.23572e-06
2.55835e-07
8.87353e-07
-2.50505e-07
-8.8704e-07
2.47856e-07
0.00108345
-2.04124e-09
-0.00108345
2.39306e-09
-1.19964e-06
2.53315e-07
-2.54137e-07
-8.86991e-07
2.48045e-07
-2.50476e-07
8.87587e-07
1.23579e-06
0.00108252
-1.83861e-09
-0.00108252
2.52528e-09
-1.23317e-06
2.55905e-07
-2.568e-07
-8.86999e-07
2.47948e-07
-2.50445e-07
8.87423e-07
-1.55022e-09
2.68012e-09
0.00108232
-2.51299e-07
1.23034e-06
2.50322e-07
8.84658e-07
-2.47745e-07
2.45087e-07
-8.84351e-07
-1.93594e-09
-0.00108319
2.51367e-09
-1.19963e-06
2.47788e-07
-2.48664e-07
-8.84272e-07
2.45299e-07
8.8483e-07
-2.47692e-07
1.2304e-06
0.00108232
-1.83394e-09
-0.00108232
2.50585e-09
-1.22778e-06
2.50388e-07
-2.51253e-07
-8.84301e-07
2.45175e-07
-2.47687e-07
8.8473e-07
-2.25323e-07
-2.32702e-07
0.000264226
-1.19685e-06
0.000266195
-0.000264226
2.27954e-07
2.35332e-07
-1.69401e-09
2.54369e-09
0.00108337
-2.48699e-07
1.1969e-06
2.47795e-07
8.82195e-07
-2.47834e-07
2.45239e-07
-8.81774e-07
-2.02539e-09
-0.00108285
2.35899e-09
-1.19419e-06
2.47803e-07
-2.48595e-07
-8.84104e-07
2.47945e-07
8.84702e-07
-2.50372e-07
1.19695e-06
0.00108337
-2.023e-09
-0.00108337
2.39575e-09
-1.19431e-06
2.47858e-07
-2.48656e-07
-8.81721e-07
2.45334e-07
-2.47771e-07
8.82272e-07
-0.000264239
2.30273e-07
2.35565e-07
1.23308e-06
1.19963e-06
-2.27633e-07
-2.32903e-07
0.000264244
-1.23583e-06
-1.20236e-06
0.000266215
-0.000264243
2.30384e-07
2.35701e-07
2.52868e-09
0.00108241
-2.56735e-07
1.23575e-06
2.55892e-07
8.87385e-07
-2.50413e-07
-8.86955e-07
2.47904e-07
-1.23855e-06
-1.50641e-09
2.7555e-09
0.00108285
-2.56838e-07
1.24114e-06
2.55873e-07
8.90249e-07
-2.50559e-07
-8.89891e-07
2.47936e-07
0.00108241
-2.07748e-09
-0.00108241
2.32591e-09
-1.23307e-06
2.55979e-07
-2.56713e-07
-8.86923e-07
2.47994e-07
-2.50378e-07
8.87472e-07
1.24132e-06
0.00108285
-2.12053e-09
-0.00108285
2.32856e-09
-1.23844e-06
2.56092e-07
-2.56705e-07
-8.87079e-07
2.45429e-07
-2.47723e-07
8.87766e-07
-2.27864e-07
-2.32656e-07
0.000264267
-1.20241e-06
0.000266242
-0.000264264
2.33256e-07
2.32997e-07
2.46134e-09
0.00108345
-2.54129e-07
1.20229e-06
2.53325e-07
8.87597e-07
-2.50473e-07
-8.86995e-07
2.48052e-07
-1.23315e-06
-1.71945e-09
2.58449e-09
0.00108252
-2.56788e-07
1.2358e-06
2.55919e-07
8.87437e-07
-2.5044e-07
-8.86998e-07
2.47958e-07
0.00108345
-2.3337e-09
-0.00108345
2.27273e-09
-1.19962e-06
2.53403e-07
-2.54117e-07
-8.86962e-07
2.48159e-07
-2.50439e-07
8.87699e-07
1.23588e-06
0.00108252
-2.12861e-09
-0.00108252
2.35204e-09
-1.23314e-06
2.56005e-07
-2.56771e-07
-8.86966e-07
2.4806e-07
-2.50406e-07
8.87535e-07
-1.69915e-09
2.54735e-09
0.00108232
-2.5124e-07
1.23042e-06
2.50404e-07
8.84739e-07
-2.47683e-07
2.45185e-07
-8.84305e-07
-2.34439e-09
-0.00108319
2.2162e-09
-1.19948e-06
2.47935e-07
-2.48515e-07
-8.84206e-07
2.4543e-07
8.84965e-07
-2.47621e-07
1.2305e-06
0.00108232
-2.0714e-09
-0.00108232
2.32777e-09
-1.22775e-06
2.50493e-07
-2.51219e-07
-8.84284e-07
2.45274e-07
-2.47659e-07
8.84826e-07
-2.25266e-07
-2.3264e-07
0.000264226
-1.19694e-06
0.000266194
-0.000264225
2.28046e-07
2.35419e-07
-1.90074e-09
2.46133e-09
0.00108337
-2.48645e-07
1.19697e-06
2.4787e-07
8.82287e-07
-2.47762e-07
2.45347e-07
-8.81719e-07
-2.30405e-09
-0.00108285
2.19236e-09
-1.19417e-06
2.47904e-07
-2.48566e-07
-8.84079e-07
2.48053e-07
8.84808e-07
-2.50337e-07
1.19703e-06
0.00108337
-2.32319e-09
-0.00108337
2.27111e-09
-1.1943e-06
2.47947e-07
-2.48637e-07
-8.81688e-07
2.45448e-07
-2.4773e-07
8.82387e-07
-0.000264238
2.30351e-07
2.35658e-07
1.23296e-06
1.19953e-06
-2.27535e-07
-2.32783e-07
0.000264243
-1.23532e-06
-1.20185e-06
0.000266215
-0.000264243
2.29759e-07
2.35076e-07
2.13429e-09
0.0010824
-2.56621e-07
1.23592e-06
2.56049e-07
8.87531e-07
-2.50322e-07
-8.86863e-07
2.48043e-07
-1.23846e-06
-1.64422e-09
2.69309e-09
0.00108285
-2.56807e-07
1.24121e-06
2.55955e-07
8.87652e-07
-2.47791e-07
-8.8714e-07
2.45302e-07
0.00108241
2.09554e-11
-0.0010824
3.29913e-09
-1.2335e-06
2.55404e-07
-2.57227e-07
-8.87573e-07
2.47159e-07
-2.51099e-07
8.86759e-07
1.24074e-06
0.00108285
5.48642e-11
-0.00108285
3.47457e-09
-1.239e-06
2.52719e-07
-2.54653e-07
-8.87866e-07
2.44474e-07
-2.48645e-07
8.87003e-07
-2.30253e-07
-2.30012e-07
0.000264264
-1.20183e-06
0.000266242
-0.000264262
2.29973e-07
2.32274e-07
2.2366e-09
0.00108345
-2.54041e-07
1.20243e-06
2.53452e-07
8.87787e-07
-2.50361e-07
-8.86865e-07
2.48227e-07
-1.23304e-06
-2.20701e-09
2.28853e-09
0.00108252
-2.5669e-07
1.23596e-06
2.56061e-07
8.8762e-07
-2.50334e-07
-8.86873e-07
2.48121e-07
0.00108345
-2.47457e-10
-0.00108345
3.29583e-09
-1.20006e-06
2.52816e-07
-2.54645e-07
-8.876e-07
2.47327e-07
-2.51154e-07
8.86977e-07
1.23537e-06
0.00108252
-1.41208e-11
-0.00108252
3.37397e-09
-1.23359e-06
2.55418e-07
-2.57297e-07
-8.87606e-07
2.4723e-07
-2.51123e-07
8.86814e-07
-2.10125e-09
2.16745e-09
0.00108232
-2.51132e-07
1.23059e-06
2.50557e-07
8.84902e-07
-2.47593e-07
2.45331e-07
-8.84199e-07
-4.57079e-11
-0.00108319
3.38716e-09
-1.2001e-06
2.47291e-07
-2.49217e-07
-8.84974e-07
2.44485e-07
8.84152e-07
-2.48533e-07
1.22999e-06
0.00108232
2.60192e-11
-0.00108232
3.29919e-09
-1.22819e-06
2.49916e-07
-2.51735e-07
-8.84928e-07
2.44442e-07
-2.48381e-07
8.84109e-07
-2.25154e-07
-2.32532e-07
0.000264225
-1.19643e-06
0.000266194
-0.000264225
2.27418e-07
2.34791e-07
-2.44393e-09
2.22984e-09
0.00108337
-2.48559e-07
1.19711e-06
2.47998e-07
8.82478e-07
-2.47652e-07
2.45517e-07
-8.81589e-07
-2.33581e-10
-0.00108285
3.23079e-09
-1.19461e-06
2.47316e-07
-2.49091e-07
-8.84712e-07
2.47223e-07
8.84088e-07
-2.51046e-07
1.19652e-06
0.00108337
-2.57527e-10
-0.00108337
3.28577e-09
-1.19474e-06
2.47362e-07
-2.49165e-07
-8.82321e-07
2.44624e-07
-2.48434e-07
8.81668e-07
-0.000264238
2.29726e-07
2.35036e-07
1.23358e-06
1.20012e-06
-2.28269e-07
-2.33537e-07
0.000264243
-1.23569e-06
-1.20223e-06
0.000266217
-0.000264244
2.30209e-07
2.35531e-07
3.36305e-09
0.00108241
-2.57305e-07
1.23533e-06
2.55423e-07
8.86768e-07
-2.51301e-07
-8.87684e-07
2.47079e-07
-1.23892e-06
-2.63857e-10
3.06858e-09
0.00108285
-2.54541e-07
1.24088e-06
2.52896e-07
8.8711e-07
-2.48651e-07
-8.87851e-07
2.44584e-07
0.00108241
-1.22885e-09
-0.00108241
2.777e-09
-1.23324e-06
2.55831e-07
-2.56906e-07
-8.87213e-07
2.47618e-07
-2.5082e-07
8.87244e-07
1.24114e-06
0.00108285
-1.28357e-09
-0.00108285
2.60835e-09
-1.23861e-06
2.53175e-07
-2.54188e-07
-8.8743e-07
2.45039e-07
-2.48169e-07
8.87496e-07
-2.28373e-07
-2.30688e-07
0.000264262
-1.20221e-06
0.000266243
-0.000264263
2.30435e-07
2.32777e-07
3.20229e-09
0.00108345
-2.54706e-07
1.20188e-06
2.52855e-07
8.86964e-07
-2.51377e-07
-8.87735e-07
2.47231e-07
-1.23365e-06
7.5088e-11
3.32866e-09
0.00108252
-2.5736e-07
1.2354e-06
2.55452e-07
8.86805e-07
-2.51337e-07
-8.87732e-07
2.47135e-07
0.00108346
-1.39101e-09
-0.00108346
2.58762e-09
-1.19977e-06
2.53277e-07
-2.54281e-07
-8.87258e-07
2.47795e-07
-2.50902e-07
8.87468e-07
1.23577e-06
0.00108253
-1.24867e-09
-0.00108253
2.66541e-09
-1.23328e-06
2.55888e-07
-2.56928e-07
-8.87258e-07
2.47697e-07
-2.50866e-07
8.87308e-07
6.04466e-11
3.33598e-09
0.00108232
-2.51805e-07
1.23001e-06
2.4994e-07
8.84117e-07
-2.48583e-07
2.44362e-07
-8.85037e-07
-1.55157e-09
-0.0010832
2.52067e-09
-1.19969e-06
2.47752e-07
-2.48719e-07
-8.84495e-07
2.45094e-07
8.84748e-07
-2.48053e-07
1.23037e-06
0.00108232
-1.30735e-09
-0.00108232
2.732e-09
-1.22791e-06
2.50358e-07
-2.51394e-07
-8.84543e-07
2.44938e-07
-2.48091e-07
8.84629e-07
-2.25903e-07
-2.33278e-07
0.000264225
-1.19682e-06
0.000266196
-0.000264226
2.27886e-07
2.3527e-07
-8.01534e-11
3.19326e-09
0.00108337
-2.49221e-07
1.19656e-06
2.47404e-07
8.81653e-07
-2.4866e-07
2.44523e-07
-8.82457e-07
-1.4519e-09
-0.00108285
2.54145e-09
-1.19431e-06
2.47778e-07
-2.48733e-07
-8.84358e-07
2.47699e-07
8.84587e-07
-2.50783e-07
1.19694e-06
0.00108337
-1.41494e-09
-0.00108337
2.52165e-09
-1.19442e-06
2.47843e-07
-2.4878e-07
-8.8198e-07
2.45082e-07
-2.48188e-07
8.82154e-07
-0.000264239
2.30217e-07
2.35493e-07
1.23319e-06
1.19974e-06
-2.27769e-07
-2.33015e-07
0.000264245
-1.2357e-06
-1.19954e-06
0.000266214
-0.000264245
2.30205e-07
2.35502e-07
2.69925e-09
0.00108241
-2.56853e-07
1.23572e-06
2.55857e-07
8.87271e-07
-2.50729e-07
-8.87161e-07
2.47672e-07
-1.2386e-06
-1.30628e-09
2.65924e-09
0.00108285
-2.54198e-07
1.24114e-06
2.53152e-07
8.87504e-07
-2.48117e-07
-8.87404e-07
2.45068e-07
0.00108241
-1.38341e-09
-0.00108241
2.73566e-09
-1.2332e-06
2.55819e-07
-2.5687e-07
-8.87111e-07
2.45043e-07
-2.5061e-07
8.84615e-07
1.24114e-06
0.00108285
-1.33924e-09
-0.00108285
2.67282e-09
-1.23864e-06
2.55891e-07
-2.56926e-07
-8.90062e-07
2.47851e-07
-2.50759e-07
8.90195e-07
-2.27991e-07
-2.30226e-07
0.000264263
-1.20219e-06
0.000266246
-0.000264266
2.30452e-07
2.32767e-07
2.57399e-09
0.00108346
-2.54239e-07
1.20224e-06
2.53285e-07
8.87519e-07
-2.50779e-07
-8.87177e-07
2.47885e-07
-1.23323e-06
-1.4504e-09
2.60284e-09
0.00108253
-2.56873e-07
1.23579e-06
2.55914e-07
8.87364e-07
-2.50732e-07
-8.87169e-07
2.47795e-07
0.00108346
-1.58357e-09
-0.00108346
2.65127e-09
-1.19975e-06
2.50504e-07
-2.54273e-07
-8.87153e-07
2.47927e-07
-2.50698e-07
8.87521e-07
1.23576e-06
0.00108253
-1.44694e-09
-0.00108253
2.65032e-09
-1.23326e-06
2.55863e-07
-2.56906e-07
-8.87154e-07
2.47822e-07
-2.50658e-07
8.87352e-07
-1.48007e-09
2.64488e-09
0.00108232
-2.51337e-07
1.23039e-06
2.50385e-07
8.84675e-07
-2.47964e-07
2.45027e-07
-8.84464e-07
-1.63704e-09
-0.0010832
2.63074e-09
-1.19971e-06
2.47733e-07
-2.48752e-07
-8.84432e-07
2.45166e-07
8.8475e-07
-2.47913e-07
1.23036e-06
0.00108232
-1.46779e-09
-0.00108232
2.67271e-09
-1.22787e-06
2.50345e-07
-2.51361e-07
-8.8446e-07
2.45047e-07
-2.47902e-07
8.84658e-07
-2.25367e-07
-2.32739e-07
0.000264226
-1.19681e-06
0.000266196
-0.000264226
2.27889e-07
2.35271e-07
-1.59704e-09
2.47734e-09
0.00108337
-2.48728e-07
1.19696e-06
2.47864e-07
8.82204e-07
-2.48059e-07
2.45174e-07
-8.81897e-07
-1.67721e-09
-0.00108285
2.54241e-09
-1.19428e-06
2.47756e-07
-2.48707e-07
-8.84259e-07
2.47823e-07
8.84633e-07
-2.50582e-07
1.19691e-06
0.00108337
-1.55511e-09
-0.00108337
2.52854e-09
-1.1944e-06
2.47809e-07
-2.48767e-07
-8.81887e-07
2.45197e-07
-2.47992e-07
8.8219e-07
-0.000264239
2.30209e-07
2.35501e-07
1.23321e-06
1.19708e-06
-2.27774e-07
-2.33004e-07
0.000264245
-1.23833e-06
-1.19956e-06
0.000266219
-0.000264245
2.2765e-07
2.3548e-07
2.76096e-09
0.00108241
-2.54155e-07
1.23568e-06
2.5307e-07
8.84603e-07
-2.479e-07
-8.84446e-07
2.44999e-07
-1.23862e-06
-1.41558e-09
2.60754e-09
0.00108285
-2.56882e-07
1.24116e-06
2.55928e-07
8.90217e-07
-2.50705e-07
-8.90031e-07
2.47893e-07
0.00108241
-1.25018e-09
-0.00108241
2.79302e-09
-1.23323e-06
2.55793e-07
-2.56899e-07
-8.84469e-07
2.42294e-07
-2.47956e-07
8.84583e-07
1.24111e-06
0.00108286
-1.34198e-09
-0.00108286
2.69932e-09
-1.23866e-06
2.5584e-07
-2.56947e-07
-8.92777e-07
2.47834e-07
-2.50764e-07
8.92899e-07
-2.27939e-07
-2.30225e-07
0.000264266
-1.20219e-06
0.000266243
-0.000264265
2.30483e-07
2.35271e-07
2.64554e-09
0.00108346
-2.51547e-07
1.19954e-06
2.5049e-07
8.87508e-07
-2.50711e-07
-8.87168e-07
2.47914e-07
-1.23327e-06
-1.41356e-09
2.68383e-09
0.00108253
-2.56919e-07
1.23575e-06
2.55854e-07
8.87343e-07
-2.5067e-07
-8.87166e-07
2.47811e-07
0.00108347
-1.25712e-08
-0.00108346
2.64842e-09
-1.19709e-06
2.50528e-07
-2.51532e-07
-8.87175e-07
2.47917e-07
-2.50714e-07
8.87507e-07
1.23574e-06
0.00108253
-1.35826e-09
-0.00108253
2.71989e-09
-1.23328e-06
2.55838e-07
-2.56935e-07
-8.8718e-07
2.47799e-07
-2.50682e-07
8.87331e-07
-1.44029e-09
2.70581e-09
0.00108232
-2.51372e-07
1.23036e-06
2.50334e-07
8.8465e-07
-2.4791e-07
2.45038e-07
-8.84469e-07
-1.55906e-09
-0.0010832
2.61479e-09
-1.19969e-06
2.50436e-07
-2.51478e-07
-8.84474e-07
2.45149e-07
8.84716e-07
-2.4798e-07
1.23034e-06
0.00108232
-1.40204e-09
-0.00108232
2.74707e-09
-1.2279e-06
2.50321e-07
-2.51389e-07
-8.8448e-07
2.45031e-07
-2.47919e-07
8.8464e-07
-2.25395e-07
-2.32765e-07
0.000264226
-1.19679e-06
0.000266196
-0.000264226
2.2787e-07
2.3525e-07
-1.50732e-09
2.55585e-09
0.00108337
-2.48779e-07
1.19691e-06
2.47799e-07
8.8218e-07
-2.48002e-07
2.45187e-07
-8.81899e-07
-1.57224e-09
-0.00108285
2.59156e-09
-1.19431e-06
2.47731e-07
-2.48735e-07
-8.84284e-07
2.47801e-07
8.8461e-07
-2.50604e-07
1.1969e-06
0.00108337
-1.52024e-09
-0.00108337
2.58943e-09
-1.19442e-06
2.4779e-07
-2.48792e-07
-8.81908e-07
2.45182e-07
-2.48009e-07
8.82175e-07
-0.000264239
2.30192e-07
2.35482e-07
1.23587e-06
1.1971e-06
-2.25238e-07
-2.32965e-07
0.000264245
-1.23833e-06
-1.19956e-06
0.000266217
-0.000264245
2.27697e-07
2.38007e-07
2.78669e-09
0.00108241
-2.56863e-07
1.23833e-06
2.55799e-07
8.84572e-07
-2.45232e-07
-8.84498e-07
2.42308e-07
-1.23866e-06
-1.36002e-09
2.72115e-09
0.00108286
-2.5696e-07
1.24112e-06
2.55845e-07
8.92921e-07
-2.50752e-07
-8.92763e-07
2.47856e-07
0.00108241
-1.38608e-09
-0.00108241
2.74419e-09
-1.23587e-06
2.55789e-07
-2.5687e-07
-8.87091e-07
2.42334e-07
-2.45225e-07
8.87274e-07
1.24113e-06
0.00108286
-1.35386e-09
-0.00108286
2.72918e-09
-1.23864e-06
2.55861e-07
-2.56937e-07
-8.92756e-07
2.47826e-07
-2.50769e-07
8.92909e-07
-2.27962e-07
-2.30281e-07
0.000264263
-1.20219e-06
0.00026624
-0.000264263
2.30454e-07
2.35297e-07
2.6402e-09
0.00108347
-2.51523e-07
1.19955e-06
2.50523e-07
8.87495e-07
-2.50715e-07
-8.87179e-07
2.47905e-07
-1.23328e-06
-1.36056e-09
2.72936e-09
0.00108253
-2.56936e-07
1.23574e-06
2.55839e-07
8.87331e-07
-2.50685e-07
-8.87181e-07
2.47798e-07
0.00108347
-1.51974e-09
-0.00108347
2.60049e-09
-1.1971e-06
2.50515e-07
-2.51537e-07
-8.8719e-07
2.47894e-07
-2.50725e-07
8.87484e-07
1.23573e-06
0.00108253
-1.3693e-09
-0.00108253
2.74412e-09
-1.23328e-06
2.55835e-07
-2.56938e-07
-8.87178e-07
2.47799e-07
-2.50681e-07
8.87331e-07
-1.39017e-09
2.74212e-09
0.00108232
-2.51389e-07
1.23034e-06
2.5032e-07
8.8464e-07
-2.4792e-07
2.4503e-07
-8.84481e-07
-1.54499e-09
-0.0010832
2.60288e-09
-1.19968e-06
2.50484e-07
-2.51496e-07
-8.84466e-07
2.45156e-07
8.84721e-07
-2.47971e-07
1.23034e-06
0.00108232
-1.38548e-09
-0.00108232
2.74085e-09
-1.2279e-06
2.50319e-07
-2.5139e-07
-8.84482e-07
2.45029e-07
-2.4792e-07
8.84639e-07
-2.2541e-07
-2.32781e-07
0.000264226
-1.19679e-06
0.000266196
-0.000264226
2.2787e-07
2.35248e-07
-1.51866e-09
2.601e-09
0.00108337
-2.48792e-07
1.1969e-06
2.47789e-07
8.82175e-07
-2.48009e-07
2.45183e-07
-8.81907e-07
-1.55201e-09
-0.00108285
2.58733e-09
-1.19431e-06
2.47731e-07
-2.48735e-07
-8.84288e-07
2.47797e-07
8.84605e-07
-2.50608e-07
1.1969e-06
0.00108337
-1.51921e-09
-0.00108337
2.59765e-09
-1.19442e-06
2.47789e-07
-2.48793e-07
-8.81907e-07
2.45183e-07
-2.48009e-07
8.82175e-07
-0.000264239
2.30191e-07
2.35481e-07
1.23587e-06
1.19709e-06
-2.25246e-07
-2.35529e-07
0.000264245
-1.23833e-06
-1.19956e-06
0.000266217
-0.000264245
2.27701e-07
2.3801e-07
2.74321e-09
0.00108241
-2.56869e-07
1.23833e-06
2.55789e-07
8.87274e-07
-2.45226e-07
-8.87089e-07
2.42333e-07
-1.23865e-06
-1.36966e-09
2.74161e-09
0.00108286
-2.5694e-07
1.24113e-06
2.55857e-07
8.92912e-07
-2.50766e-07
-8.92759e-07
2.47832e-07
0.00108241
-1.39246e-09
-0.00108241
2.74867e-09
-1.23587e-06
2.55784e-07
-2.56878e-07
-8.8709e-07
2.42333e-07
-2.45234e-07
8.87276e-07
1.24112e-06
0.00108286
-1.38805e-09
-0.00108286
2.74969e-09
-1.23865e-06
2.55856e-07
-2.56941e-07
-8.92749e-07
2.47838e-07
-2.50754e-07
8.92916e-07
-2.2797e-07
-2.32796e-07
0.000264263
-1.20219e-06
0.00026624
-0.000264263
2.30454e-07
2.35288e-07
2.59639e-09
0.00108347
-2.5153e-07
1.19956e-06
2.5052e-07
8.87484e-07
-2.50728e-07
-8.8719e-07
2.47893e-07
-1.23328e-06
-1.37467e-09
2.75139e-09
0.00108253
-2.56938e-07
1.23573e-06
2.55837e-07
8.87332e-07
-2.50683e-07
-8.87179e-07
2.47799e-07
0.00108347
-1.54719e-09
-0.00108347
2.5858e-09
-1.19709e-06
2.50524e-07