/*--------------------------------*- C++ -*----------------------------------*\
| =========                 |                                                 |
| \\      /  F ield         | OpenFOAM: The Open Source CFD Toolbox           |
|  \\    /   O peration     | Version:  2206                                  |
|   \\  /    A nd           | Website:  www.openfoam.com                      |
|    \\/     M anipulation  |                                                 |
\*---------------------------------------------------------------------------*/
FoamFile
{
    version     2.0;
    format      ascii;
    arch        "LSB;label=32;scalar=64";
    class       volVectorField;
    location    "25.5";
    object      U;
}
// * * * * * * * * * * * * * * * * * * * * * * * * * * * * * * * * * * * * * //

dimensions      [0 1 -1 0 0 0 0];

internalField   nonuniform List<vector> 
28687
(
(-6.92795e-07 -6.91772e-07 0.102891)
(-4.77754e-07 7.12102e-07 0.102838)
(7.10701e-07 -4.71042e-07 0.102838)
(-4.33783e-05 -4.33949e-05 0.102761)
(-6.97428e-07 -6.97393e-07 0.102891)
(-4.65726e-07 7.03444e-07 0.102838)
(7.05874e-07 -4.61048e-07 0.102838)
(-4.33713e-05 -4.33881e-05 0.102761)
(-7.0613e-07 -7.01912e-07 0.102891)
(-4.49413e-07 7.06844e-07 0.102838)
(7.00777e-07 -4.50008e-07 0.102838)
(-4.33595e-05 -4.33759e-05 0.102761)
(-7.22188e-07 -7.09813e-07 0.102891)
(-4.45477e-07 7.17654e-07 0.102838)
(6.88693e-07 -4.3278e-07 0.102837)
(-4.33371e-05 -4.33516e-05 0.102761)
(-7.49955e-07 -7.21417e-07 0.102891)
(-4.05888e-07 7.0508e-07 0.102837)
(6.4172e-07 -3.70753e-07 0.102837)
(-4.33046e-05 -4.33123e-05 0.10276)
(-6.00174e-07 -5.96354e-07 0.102891)
(-5.80583e-07 7.49522e-07 0.102838)
(7.85992e-07 -6.00272e-07 0.102837)
(-4.35632e-05 -4.35743e-05 0.10276)
(-6.97323e-07 -6.88128e-07 0.102891)
(-4.5884e-07 7.09473e-07 0.102838)
(6.88783e-07 -4.593e-07 0.102838)
(-4.33763e-05 -4.33964e-05 0.102761)
(-6.92409e-07 -6.86764e-07 0.102891)
(-4.60478e-07 7.00443e-07 0.102838)
(7.04307e-07 -4.60196e-07 0.102838)
(-4.33897e-05 -4.34031e-05 0.102761)
(-6.84014e-07 -6.85464e-07 0.102891)
(-4.70192e-07 7.14635e-07 0.102838)
(7.08715e-07 -4.66384e-07 0.102838)
(-4.33936e-05 -4.34092e-05 0.102761)
(-6.92957e-07 -6.91289e-07 0.102891)
(-4.66894e-07 7.09472e-07 0.102838)
(7.08086e-07 -4.67159e-07 0.102838)
(-4.33935e-05 -4.34092e-05 0.102761)
(-6.94564e-07 -6.91345e-07 0.102891)
(-4.64878e-07 7.08148e-07 0.102838)
(7.07096e-07 -4.67042e-07 0.102838)
(-4.33925e-05 -4.34091e-05 0.102761)
(-6.95516e-07 -6.91251e-07 0.102891)
(-4.64609e-07 7.08315e-07 0.102838)
(7.07017e-07 -4.67354e-07 0.102838)
(-4.33929e-05 -4.34094e-05 0.102761)
(-6.9642e-07 -6.91669e-07 0.102891)
(-4.64136e-07 7.08123e-07 0.102838)
(7.06585e-07 -4.67141e-07 0.102838)
(-4.33932e-05 -4.34094e-05 0.102761)
(-6.96479e-07 -6.91276e-07 0.102891)
(-4.64908e-07 7.0851e-07 0.102838)
(7.0731e-07 -4.67883e-07 0.102838)
(-4.33934e-05 -4.34089e-05 0.102761)
(-6.95688e-07 -6.90647e-07 0.102891)
(-4.64761e-07 7.08525e-07 0.102838)
(7.07769e-07 -4.6832e-07 0.102838)
(-4.33941e-05 -4.34099e-05 0.102761)
(-6.95334e-07 -6.89823e-07 0.102891)
(-4.6532e-07 7.09035e-07 0.102838)
(7.08092e-07 -4.68724e-07 0.102838)
(-4.33937e-05 -4.34094e-05 0.102761)
(-6.95289e-07 -6.89553e-07 0.102891)
(-4.6487e-07 7.08844e-07 0.102838)
(7.07629e-07 -4.68498e-07 0.102838)
(-4.33922e-05 -4.3408e-05 0.102761)
(-6.95745e-07 -6.89877e-07 0.102891)
(-4.63685e-07 7.0836e-07 0.102838)
(7.07185e-07 -4.6704e-07 0.102838)
(-4.33841e-05 -4.34001e-05 0.102761)
(-7.36699e-07 5.00283e-07 0.102838)
(4.53382e-05 -4.53101e-05 0.102764)
(-4.72488e-07 7.11609e-07 0.102838)
(4.33842e-05 4.33643e-05 0.102761)
(-4.53367e-05 -4.53154e-05 0.102764)
(7.34645e-07 4.88065e-07 0.102838)
(-7.3712e-07 5.06196e-07 0.102838)
(7.29931e-07 4.73543e-07 0.102838)
(-7.27885e-07 4.93462e-07 0.102838)
(-4.33893e-05 4.33607e-05 0.102761)
(4.53411e-05 -4.53181e-05 0.102764)
(4.72249e-07 7.16248e-07 0.102838)
(4.90875e-07 -7.34174e-07 0.102838)
(4.59948e-07 7.07955e-07 0.102838)
(4.8235e-07 -7.29824e-07 0.102838)
(-4.91504e-07 -7.29992e-07 0.102838)
(-4.65454e-07 7.03554e-07 0.102838)
(-4.81478e-07 -7.24057e-07 0.102838)
(4.33679e-05 -4.34005e-05 0.102761)
(-4.53093e-05 4.53449e-05 0.102764)
(-7.0743e-07 -4.69868e-07 0.102838)
(7.04865e-07 -4.57897e-07 0.102838)
(-7.01074e-07 -4.60542e-07 0.102838)
(4.53149e-05 4.53331e-05 0.102764)
(4.33775e-05 4.33605e-05 0.102761)
(-4.53463e-05 -4.53267e-05 0.102764)
(7.31156e-07 4.79203e-07 0.102838)
(-7.27241e-07 4.89851e-07 0.102838)
(7.2088e-07 4.62414e-07 0.102838)
(-7.24734e-07 4.77297e-07 0.102838)
(-4.338e-05 4.3348e-05 0.102761)
(4.53583e-05 -4.53283e-05 0.102764)
(4.63774e-07 7.13074e-07 0.102838)
(4.82378e-07 -7.29385e-07 0.102838)
(4.45025e-07 7.03506e-07 0.102838)
(4.65531e-07 -7.2121e-07 0.102838)
(-4.81663e-07 -7.24555e-07 0.102838)
(-4.4565e-07 7.00984e-07 0.102838)
(-4.65657e-07 -7.15382e-07 0.102838)
(4.33624e-05 -4.33933e-05 0.102761)
(-4.53247e-05 4.53574e-05 0.102764)
(-7.02048e-07 -4.60904e-07 0.102838)
(6.96137e-07 -4.42952e-07 0.102838)
(-6.93954e-07 -4.42449e-07 0.102838)
(4.53287e-05 4.53475e-05 0.102764)
(4.33678e-05 4.33526e-05 0.102761)
(-4.53716e-05 -4.53497e-05 0.102764)
(7.2268e-07 4.70549e-07 0.102838)
(-7.29986e-07 4.76231e-07 0.102838)
(6.95658e-07 4.32221e-07 0.102837)
(-7.2247e-07 4.69372e-07 0.102837)
(-4.33646e-05 4.33422e-05 0.102761)
(4.53886e-05 -4.53426e-05 0.102764)
(4.52514e-07 7.06661e-07 0.102838)
(4.70033e-07 -7.2483e-07 0.102838)
(4.10261e-07 6.81146e-07 0.102838)
(4.3331e-07 -6.9754e-07 0.102837)
(-4.69338e-07 -7.19275e-07 0.102838)
(-4.19078e-07 6.96493e-07 0.102838)
(-4.32477e-07 -6.9289e-07 0.102837)
(4.33495e-05 -4.33829e-05 0.102761)
(-4.53469e-05 4.53829e-05 0.102764)
(-6.97795e-07 -4.4667e-07 0.102838)
(6.73477e-07 -4.08552e-07 0.102838)
(-6.72521e-07 -4.07063e-07 0.102838)
(4.53512e-05 4.53713e-05 0.102764)
(4.33426e-05 4.33293e-05 0.102761)
(-4.54107e-05 -4.53819e-05 0.102764)
(7.07071e-07 4.56941e-07 0.102837)
(-7.41825e-07 4.82534e-07 0.102837)
(6.6647e-07 4.00505e-07 0.102837)
(-6.69498e-07 4.02255e-07 0.102837)
(-4.33415e-05 4.33296e-05 0.102761)
(4.5446e-05 -4.54245e-05 0.102764)
(4.34769e-07 6.97206e-07 0.102838)
(4.53753e-07 -7.12e-07 0.102837)
(3.75099e-07 6.58014e-07 0.102837)
(3.98876e-07 -6.69576e-07 0.102837)
(-4.54325e-07 -7.06313e-07 0.102837)
(-3.69434e-07 6.4704e-07 0.102837)
(-4.01825e-07 -6.63452e-07 0.102837)
(4.33258e-05 -4.33572e-05 0.102761)
(-4.53853e-05 4.54199e-05 0.102764)
(-6.879e-07 -4.27597e-07 0.102837)
(6.45954e-07 -3.75504e-07 0.102837)
(-6.49829e-07 -3.71727e-07 0.102837)
(4.53845e-05 4.54102e-05 0.102764)
(4.33017e-05 4.32971e-05 0.10276)
(-4.52029e-05 -4.51736e-05 0.102764)
(6.53218e-07 4.06431e-07 0.102837)
(-7.23286e-07 4.5611e-07 0.102837)
(8.1831e-07 6.20765e-07 0.102837)
(-8.25121e-07 6.14974e-07 0.102837)
(-4.33058e-05 4.32779e-05 0.10276)
(4.52046e-05 -4.51756e-05 0.102764)
(3.68461e-07 6.56448e-07 0.102837)
(3.91894e-07 -6.646e-07 0.102837)
(5.97026e-07 8.14492e-07 0.102837)
(6.20551e-07 -8.26184e-07 0.102837)
(-3.98896e-07 -6.5358e-07 0.102837)
(-5.97394e-07 8.05944e-07 0.102837)
(-6.23256e-07 -8.1507e-07 0.102837)
(4.32884e-05 -4.33208e-05 0.10276)
(-4.5176e-05 4.52101e-05 0.102764)
(-6.46964e-07 -3.6247e-07 0.102837)
(8.03809e-07 -5.96503e-07 0.102837)
(-8.05159e-07 -5.91934e-07 0.102837)
(4.51767e-05 4.52034e-05 0.102764)
(4.3566e-05 4.35538e-05 0.10276)
(-4.53586e-05 -4.53308e-05 0.102764)
(8.06625e-07 6.20481e-07 0.102837)
(-7.74291e-07 5.88324e-07 0.102837)
(7.23657e-07 4.9904e-07 0.102838)
(-7.16102e-07 5.02475e-07 0.102838)
(-4.35403e-05 4.35103e-05 0.10276)
(4.53744e-05 -4.53326e-05 0.102764)
(6.03684e-07 7.93526e-07 0.102837)
(6.22595e-07 -8.07782e-07 0.102837)
(4.79046e-07 7.04126e-07 0.102838)
(4.98568e-07 -7.13763e-07 0.102838)
(-6.19483e-07 -8.02868e-07 0.102837)
(-4.68196e-07 6.983e-07 0.102838)
(-4.92613e-07 -7.1549e-07 0.102838)
(4.3551e-05 -4.35826e-05 0.10276)
(-4.53372e-05 4.5376e-05 0.102764)
(-7.83448e-07 -5.95728e-07 0.102837)
(6.93142e-07 -4.72978e-07 0.102838)
(-6.87982e-07 -4.73425e-07 0.102838)
(4.53462e-05 4.53599e-05 0.102764)
(4.33913e-05 4.33836e-05 0.102761)
(-4.53624e-05 -4.53255e-05 0.102764)
(7.18353e-07 4.9469e-07 0.102838)
(-7.22229e-07 5.00731e-07 0.102838)
(7.25944e-07 4.82844e-07 0.102838)
(-7.2557e-07 4.92314e-07 0.102838)
(-4.33878e-05 4.33819e-05 0.102761)
(4.53688e-05 -4.53303e-05 0.102764)
(4.65244e-07 7.04182e-07 0.102838)
(4.80758e-07 -7.08189e-07 0.102838)
(4.60469e-07 7.13819e-07 0.102838)
(4.80562e-07 -7.20164e-07 0.102838)
(-4.79052e-07 -7.09083e-07 0.102838)
(-4.59048e-07 7.09385e-07 0.102838)
(-4.84963e-07 -7.16959e-07 0.102838)
(4.33689e-05 -4.33985e-05 0.102761)
(-4.53354e-05 4.53728e-05 0.102764)
(-6.84243e-07 -4.58423e-07 0.102838)
(7.00028e-07 -4.54539e-07 0.102838)
(-6.95985e-07 -4.61894e-07 0.102838)
(4.53386e-05 4.53602e-05 0.102764)
(4.3399e-05 4.33879e-05 0.102761)
(-4.53608e-05 -4.53224e-05 0.102764)
(7.28488e-07 4.84953e-07 0.102838)
(-7.17006e-07 4.84099e-07 0.102838)
(7.35394e-07 4.9958e-07 0.102838)
(-7.33704e-07 4.97459e-07 0.102838)
(-4.33828e-05 4.33659e-05 0.102761)
(4.53524e-05 -4.53304e-05 0.102764)
(4.67372e-07 7.13891e-07 0.102838)
(4.83135e-07 -7.23661e-07 0.102838)
(4.72397e-07 7.1215e-07 0.102838)
(4.88092e-07 -7.28916e-07 0.102838)
(-4.88393e-07 -7.20741e-07 0.102838)
(-4.68843e-07 7.13208e-07 0.102838)
(-4.85748e-07 -7.25477e-07 0.102838)
(4.33788e-05 -4.34084e-05 0.102761)
(-4.53283e-05 4.53651e-05 0.102764)
(-6.99647e-07 -4.66126e-07 0.102838)
(7.07904e-07 -4.62454e-07 0.102838)
(-7.03507e-07 -4.635e-07 0.102838)
(4.53335e-05 4.53529e-05 0.102764)
(4.3401e-05 4.33876e-05 0.102761)
(-4.5358e-05 -4.53242e-05 0.102764)
(7.37092e-07 4.97448e-07 0.102838)
(-7.32393e-07 4.90518e-07 0.102838)
(7.29983e-07 4.86474e-07 0.102838)
(-7.31746e-07 4.9076e-07 0.102838)
(-4.34034e-05 4.33759e-05 0.102761)
(4.53637e-05 -4.53319e-05 0.102764)
(4.75227e-07 7.13137e-07 0.102838)
(4.88183e-07 -7.2916e-07 0.102838)
(4.68307e-07 7.12485e-07 0.102838)
(4.87994e-07 -7.30379e-07 0.102838)
(-4.86236e-07 -7.26029e-07 0.102838)
(-4.65243e-07 7.0911e-07 0.102838)
(-4.86377e-07 -7.25697e-07 0.102838)
(4.33842e-05 -4.34145e-05 0.102761)
(-4.53279e-05 4.53638e-05 0.102764)
(-7.04706e-07 -4.63749e-07 0.102838)
(7.07544e-07 -4.64001e-07 0.102838)
(-7.04607e-07 -4.63556e-07 0.102838)
(4.53328e-05 4.53523e-05 0.102764)
(4.34045e-05 4.33813e-05 0.102761)
(-4.53584e-05 -4.5327e-05 0.102764)
(7.29853e-07 4.84135e-07 0.102838)
(-7.33574e-07 4.90902e-07 0.102838)
(7.30869e-07 4.85819e-07 0.102838)
(-7.34337e-07 4.89815e-07 0.102838)
(-4.33938e-05 4.33764e-05 0.102761)
(4.53595e-05 -4.5333e-05 0.102764)
(4.70106e-07 7.11864e-07 0.102838)
(4.87456e-07 -7.30476e-07 0.102838)
(4.65979e-07 7.10308e-07 0.102838)
(4.87037e-07 -7.30325e-07 0.102838)
(-4.86446e-07 -7.26361e-07 0.102838)
(-4.64029e-07 7.08673e-07 0.102838)
(-4.85388e-07 -7.26228e-07 0.102838)
(4.33838e-05 -4.34151e-05 0.102761)
(-4.53288e-05 4.53642e-05 0.102764)
(-7.05222e-07 -4.63579e-07 0.102838)
(7.06542e-07 -4.63836e-07 0.102838)
(-7.04541e-07 -4.62236e-07 0.102838)
(4.53341e-05 4.53524e-05 0.102764)
(4.34046e-05 4.33796e-05 0.102761)
(-4.53585e-05 -4.53274e-05 0.102764)
(7.30112e-07 4.82355e-07 0.102838)
(-7.34455e-07 4.89702e-07 0.102838)
(7.30881e-07 4.85805e-07 0.102838)
(-7.35306e-07 4.90906e-07 0.102838)
(-4.33969e-05 4.33742e-05 0.102761)
(4.53591e-05 -4.5332e-05 0.102764)
(4.6927e-07 7.09867e-07 0.102838)
(4.86787e-07 -7.30082e-07 0.102838)
(4.65117e-07 7.09212e-07 0.102838)
(4.86991e-07 -7.30313e-07 0.102838)
(-4.85711e-07 -7.26491e-07 0.102838)
(-4.63605e-07 7.08759e-07 0.102838)
(-4.85768e-07 -7.26363e-07 0.102838)
(4.33831e-05 -4.34148e-05 0.102761)
(-4.53287e-05 4.5364e-05 0.102764)
(-7.05051e-07 -4.62208e-07 0.102838)
(7.06308e-07 -4.64172e-07 0.102838)
(-7.04533e-07 -4.61107e-07 0.102838)
(4.53338e-05 4.53523e-05 0.102764)
(4.34049e-05 4.33799e-05 0.102761)
(-4.53591e-05 -4.53277e-05 0.102764)
(7.30924e-07 4.83367e-07 0.102838)
(-7.35534e-07 4.9031e-07 0.102838)
(7.31031e-07 4.85688e-07 0.102838)
(-7.35706e-07 4.90956e-07 0.102838)
(-4.33974e-05 4.33753e-05 0.102761)
(4.5359e-05 -4.53316e-05 0.102764)
(4.68982e-07 7.0983e-07 0.102838)
(4.86781e-07 -7.3021e-07 0.102838)
(4.64529e-07 7.08569e-07 0.102838)
(4.86638e-07 -7.30168e-07 0.102838)
(-4.85969e-07 -7.26733e-07 0.102838)
(-4.63049e-07 7.08719e-07 0.102838)
(-4.84974e-07 -7.26106e-07 0.102838)
(4.33832e-05 -4.3415e-05 0.102761)
(-4.53292e-05 4.53643e-05 0.102764)
(-7.05291e-07 -4.63011e-07 0.102838)
(7.05987e-07 -4.64096e-07 0.102838)
(-7.04603e-07 -4.62936e-07 0.102838)
(4.53337e-05 4.53525e-05 0.102764)
(4.34044e-05 4.33795e-05 0.102761)
(-4.53586e-05 -4.53276e-05 0.102764)
(7.3055e-07 4.82829e-07 0.102838)
(-7.35591e-07 4.90267e-07 0.102838)
(7.30805e-07 4.85653e-07 0.102838)
(-7.36026e-07 4.91426e-07 0.102838)
(-4.33974e-05 4.33756e-05 0.102761)
(4.53585e-05 -4.53311e-05 0.102764)
(4.68229e-07 7.08768e-07 0.102838)
(4.86249e-07 -7.29955e-07 0.102838)
(4.64581e-07 7.07845e-07 0.102838)
(4.86908e-07 -7.30613e-07 0.102838)
(-4.85244e-07 -7.26495e-07 0.102838)
(-4.63444e-07 7.08798e-07 0.102838)
(-4.85062e-07 -7.26304e-07 0.102838)
(4.33828e-05 -4.34149e-05 0.102761)
(-4.53281e-05 4.53631e-05 0.102764)
(-7.05208e-07 -4.6366e-07 0.102838)
(7.06342e-07 -4.64558e-07 0.102838)
(-7.04799e-07 -4.63751e-07 0.102838)
(4.53329e-05 4.53513e-05 0.102764)
(4.34036e-05 4.33783e-05 0.102761)
(-4.5359e-05 -4.53279e-05 0.102764)
(7.30962e-07 4.83374e-07 0.102838)
(-7.36273e-07 4.91011e-07 0.102838)
(7.3164e-07 4.85917e-07 0.102838)
(-7.36236e-07 4.9175e-07 0.102838)
(-4.33977e-05 4.33756e-05 0.102761)
(4.53587e-05 -4.53313e-05 0.102764)
(4.68766e-07 7.08569e-07 0.102838)
(4.86822e-07 -7.30603e-07 0.102838)
(4.65156e-07 7.08193e-07 0.102838)
(4.87275e-07 -7.30792e-07 0.102838)
(-4.85713e-07 -7.26865e-07 0.102838)
(-4.64003e-07 7.0926e-07 0.102838)
(-4.85455e-07 -7.26674e-07 0.102838)
(4.33825e-05 -4.34146e-05 0.102761)
(-4.53287e-05 4.53639e-05 0.102764)
(-7.05678e-07 -4.64794e-07 0.102838)
(7.06811e-07 -4.6491e-07 0.102838)
(-7.05221e-07 -4.64454e-07 0.102838)
(4.53324e-05 4.53519e-05 0.102764)
(4.34048e-05 4.33796e-05 0.102761)
(-4.53579e-05 -4.53253e-05 0.102764)
(7.31889e-07 4.83767e-07 0.102838)
(-7.36077e-07 4.91107e-07 0.102838)
(7.32891e-07 4.87258e-07 0.102838)
(-7.35851e-07 4.92025e-07 0.102838)
(-4.33993e-05 4.33771e-05 0.102761)
(4.53576e-05 -4.53301e-05 0.102764)
(4.69355e-07 7.0899e-07 0.102838)
(4.87415e-07 -7.30746e-07 0.102838)
(4.65203e-07 7.0903e-07 0.102838)
(4.87583e-07 -7.30534e-07 0.102838)
(-4.85816e-07 -7.27115e-07 0.102838)
(-4.63757e-07 7.09329e-07 0.102838)
(-4.85251e-07 -7.26437e-07 0.102838)
(4.33835e-05 -4.34153e-05 0.102761)
(-4.53277e-05 4.53632e-05 0.102764)
(-7.0586e-07 -4.65452e-07 0.102838)
(7.07015e-07 -4.65026e-07 0.102838)
(-7.05241e-07 -4.64613e-07 0.102838)
(4.53318e-05 4.53512e-05 0.102764)
(4.34044e-05 4.33809e-05 0.102761)
(-4.53559e-05 -4.53231e-05 0.102764)
(7.32968e-07 4.85368e-07 0.102838)
(-7.36354e-07 4.92029e-07 0.102838)
(7.32841e-07 4.87667e-07 0.102838)
(-7.35816e-07 4.92728e-07 0.102838)
(-4.33982e-05 4.33765e-05 0.102761)
(4.53564e-05 -4.53287e-05 0.102764)
(4.69539e-07 7.09994e-07 0.102838)
(4.87939e-07 -7.30744e-07 0.102838)
(4.65204e-07 7.09311e-07 0.102838)
(4.87611e-07 -7.30464e-07 0.102838)
(-4.86185e-07 -7.27353e-07 0.102838)
(-4.64756e-07 7.09815e-07 0.102838)
(-4.8594e-07 -7.26843e-07 0.102838)
(4.33831e-05 -4.34146e-05 0.102761)
(-4.53257e-05 4.53612e-05 0.102764)
(-7.06254e-07 -4.6602e-07 0.102838)
(7.06914e-07 -4.651e-07 0.102838)
(-7.05486e-07 -4.65079e-07 0.102838)
(4.53298e-05 4.53489e-05 0.102764)
(4.34028e-05 4.33793e-05 0.102761)
(-4.53514e-05 -4.53187e-05 0.102764)
(7.32916e-07 4.85603e-07 0.102838)
(-7.36485e-07 4.91941e-07 0.102838)
(7.32222e-07 4.8671e-07 0.102838)
(-7.34714e-07 4.91391e-07 0.102838)
(-4.33964e-05 4.33749e-05 0.102761)
(4.53536e-05 -4.53257e-05 0.102764)
(4.69539e-07 7.10032e-07 0.102838)
(4.8753e-07 -7.30297e-07 0.102838)
(4.64197e-07 7.08572e-07 0.102838)
(4.86597e-07 -7.30011e-07 0.102838)
(-4.8595e-07 -7.27246e-07 0.102838)
(-4.63839e-07 7.0918e-07 0.102838)
(-4.85269e-07 -7.26288e-07 0.102838)
(4.33812e-05 -4.34128e-05 0.102761)
(-4.53212e-05 4.53566e-05 0.102764)
(-7.06261e-07 -4.66207e-07 0.102838)
(7.06458e-07 -4.64309e-07 0.102838)
(-7.04803e-07 -4.64176e-07 0.102838)
(4.53253e-05 4.53443e-05 0.102764)
(4.33947e-05 4.33712e-05 0.102761)
(7.31848e-07 4.83698e-07 0.102838)
(-7.36362e-07 4.90937e-07 0.102838)
(-4.33908e-05 4.33692e-05 0.102761)
(4.67618e-07 7.09015e-07 0.102838)
(4.8611e-07 -7.29998e-07 0.102838)
(-4.84028e-07 -7.26519e-07 0.102838)
(4.33736e-05 -4.34053e-05 0.102761)
(-7.05147e-07 -4.64414e-07 0.102838)
(6.98083e-08 -9.33756e-06 0.10057)
(7.08708e-07 6.77491e-06 0.0933606)
(-7.59093e-08 9.05506e-06 0.100558)
(-1.11457e-06 -6.6047e-06 0.093378)
(-1.92376e-06 2.77235e-06 0.0812837)
(1.86623e-06 -2.72048e-06 0.0813017)
(-9.40136e-06 5.94729e-08 0.10057)
(6.72038e-06 6.62393e-07 0.0933596)
(9.12674e-06 -6.00498e-08 0.100559)
(-6.5431e-06 -1.07615e-06 0.0933787)
(7.02213e-07 -6.79386e-07 0.102891)
(-6.86945e-07 6.93561e-07 0.102891)
(6.89945e-07 6.85743e-07 0.102891)
(-6.95861e-07 -6.95665e-07 0.102891)
(7.08072e-07 -6.87457e-07 0.102891)
(-6.90018e-07 6.97684e-07 0.102891)
(6.94627e-07 6.89555e-07 0.102891)
(1.51205e-05 7.39119e-08 0.102372)
(-1.47307e-05 4.19889e-06 0.100918)
(-6.03993e-07 -1.82876e-07 0.102875)
(-4.73352e-07 7.0716e-07 0.102838)
(-1.52558e-05 -8.76238e-08 0.102366)
(1.40981e-05 -4.57571e-06 0.100936)
(-6.00285e-07 -1.85463e-07 0.102875)
(2.70273e-06 -1.87718e-06 0.0812809)
(-2.5976e-06 1.79323e-06 0.0813022)
(8.62091e-08 1.51315e-05 0.102372)
(-1.8463e-07 -5.93699e-07 0.102875)
(4.24004e-06 -1.47888e-05 0.100918)
(7.10788e-07 -4.68395e-07 0.102838)
(-9.12482e-08 -1.52697e-05 0.102366)
(-1.85455e-07 -5.87062e-07 0.102875)
(-4.6062e-06 1.41419e-05 0.100936)
(-4.51092e-06 -5.53303e-06 0.0983251)
(-5.51995e-06 -4.50581e-06 0.0983245)
(4.5309e-05 4.53274e-05 0.102764)
(4.23867e-06 5.36279e-06 0.0983436)
(5.35762e-06 4.2299e-06 0.0983427)
(6.98674e-08 -9.35293e-06 0.10057)
(7.13204e-07 6.72295e-06 0.0933609)
(-6.81875e-08 9.01927e-06 0.100558)
(-1.11891e-06 -6.63218e-06 0.0933783)
(-1.89634e-06 2.73009e-06 0.0812838)
(1.8845e-06 -2.75083e-06 0.081302)
(-9.41634e-06 5.4124e-08 0.10057)
(6.66854e-06 6.71286e-07 0.0933598)
(9.09604e-06 -5.62104e-08 0.100558)
(-6.57527e-06 -1.07504e-06 0.093379)
(7.09951e-07 -6.91904e-07 0.102891)
(-6.92112e-07 6.99597e-07 0.102891)
(6.96204e-07 6.91868e-07 0.102891)
(-7.05943e-07 -7.00321e-07 0.102891)
(7.05308e-07 -6.9816e-07 0.102891)
(-6.98331e-07 7.04111e-07 0.102891)
(6.98738e-07 7.00046e-07 0.102891)
(1.51501e-05 7.31081e-08 0.102372)
(-1.46983e-05 4.16997e-06 0.100918)
(-5.89256e-07 -1.89277e-07 0.102875)
(-4.58689e-07 7.01663e-07 0.102838)
(-1.52148e-05 -8.91584e-08 0.102366)
(1.41285e-05 -4.6089e-06 0.100936)
(-5.77832e-07 -1.90587e-07 0.102875)
(2.63088e-06 -1.84584e-06 0.0812809)
(-2.6267e-06 1.81367e-06 0.0813024)
(8.49413e-08 1.51614e-05 0.102371)
(-1.87403e-07 -5.82324e-07 0.102875)
(4.21771e-06 -1.47558e-05 0.100918)
(7.03048e-07 -4.55004e-07 0.102838)
(-9.16168e-08 -1.52283e-05 0.102366)
(-1.89906e-07 -5.70224e-07 0.102875)
(-4.64721e-06 1.41712e-05 0.100936)
(-4.51002e-06 -5.52369e-06 0.0983253)
(-5.51032e-06 -4.5046e-06 0.0983246)
(4.53179e-05 4.53366e-05 0.102764)
(4.22365e-06 5.37274e-06 0.0983437)
(5.3666e-06 4.21552e-06 0.0983428)
(5.88022e-08 -9.38619e-06 0.10057)
(7.13012e-07 6.68781e-06 0.0933612)
(-7.40928e-08 9.00129e-06 0.100558)
(-1.11459e-06 -6.66615e-06 0.0933787)
(-1.87247e-06 2.67022e-06 0.0812843)
(1.85345e-06 -2.76004e-06 0.0813031)
(-9.45533e-06 5.33759e-08 0.10057)
(6.63157e-06 6.70435e-07 0.0933602)
(9.06913e-06 -5.74405e-08 0.100558)
(-6.61186e-06 -1.07313e-06 0.0933794)
(7.09318e-07 -7.04417e-07 0.102891)
(-6.99198e-07 7.04723e-07 0.102891)
(6.99838e-07 7.0068e-07 0.102891)
(-7.22619e-07 -7.10762e-07 0.102891)
(7.14125e-07 -7.04641e-07 0.102891)
(-7.12169e-07 7.18543e-07 0.102891)
(7.10819e-07 7.16676e-07 0.102891)
(1.51895e-05 7.34003e-08 0.102371)
(-1.46655e-05 4.15562e-06 0.100918)
(-5.6306e-07 -1.91547e-07 0.102875)
(-4.35389e-07 6.98206e-07 0.102838)
(-1.51809e-05 -9.05675e-08 0.102366)
(1.41629e-05 -4.63439e-06 0.100936)
(-5.50806e-07 -1.93825e-07 0.102875)
(2.58048e-06 -1.84136e-06 0.0812814)
(-2.68536e-06 1.86105e-06 0.0813032)
(8.18323e-08 1.51977e-05 0.102371)
(-1.91337e-07 -5.62827e-07 0.102875)
(4.19183e-06 -1.47257e-05 0.100918)
(7.02551e-07 -4.44934e-07 0.102838)
(-9.40227e-08 -1.51936e-05 0.102366)
(-1.95374e-07 -5.52183e-07 0.102875)
(-4.66554e-06 1.42117e-05 0.100936)
(-4.51271e-06 -5.5267e-06 0.0983253)
(-5.51588e-06 -4.50729e-06 0.0983246)
(4.53369e-05 4.53556e-05 0.102764)
(4.22107e-06 5.38295e-06 0.0983437)
(5.37411e-06 4.21433e-06 0.0983428)
(4.92975e-08 -9.42246e-06 0.10057)
(7.05059e-07 6.67414e-06 0.0933617)
(-7.94976e-08 8.95667e-06 0.100558)
(-1.1243e-06 -6.68358e-06 0.0933792)
(-1.89763e-06 2.70712e-06 0.0812858)
(1.82119e-06 -2.75447e-06 0.0813044)
(-9.48861e-06 4.81634e-08 0.100569)
(6.62156e-06 6.64888e-07 0.0933607)
(9.02477e-06 -5.92853e-08 0.100558)
(-6.63417e-06 -1.07838e-06 0.09338)
(7.1288e-07 -7.0521e-07 0.102891)
(-7.12784e-07 7.18614e-07 0.102891)
(7.1021e-07 7.16798e-07 0.102891)
(-7.37214e-07 -7.20101e-07 0.102891)
(7.33952e-07 -7.29196e-07 0.102891)
(-7.26975e-07 7.32977e-07 0.102891)
(7.20491e-07 7.32444e-07 0.102891)
(1.52209e-05 7.14033e-08 0.102371)
(-1.46303e-05 4.10082e-06 0.100918)
(-5.47238e-07 -1.90899e-07 0.102875)
(-4.40903e-07 7.06281e-07 0.102837)
(-1.51528e-05 -9.08881e-08 0.102366)
(1.41967e-05 -4.64409e-06 0.100936)
(-5.51978e-07 -1.91458e-07 0.102875)
(2.57062e-06 -1.79239e-06 0.0812825)
(-2.69968e-06 1.82286e-06 0.0813046)
(7.74627e-08 1.52325e-05 0.102371)
(-2.00031e-07 -5.38578e-07 0.102875)
(4.16178e-06 -1.46871e-05 0.100918)
(7.11684e-07 -4.53343e-07 0.102837)
(-9.87084e-08 -1.51667e-05 0.102366)
(-2.00539e-07 -5.53341e-07 0.102875)
(-4.70795e-06 1.42406e-05 0.100935)
(-4.50425e-06 -5.49674e-06 0.0983253)
(-5.48597e-06 -4.49549e-06 0.0983246)
(4.53508e-05 4.53739e-05 0.102764)
(4.26507e-06 5.39655e-06 0.0983437)
(5.38386e-06 4.26237e-06 0.0983428)
(-3.79751e-09 -9.42443e-06 0.10057)
(6.48716e-07 6.67138e-06 0.0933624)
(-1.23353e-07 8.97477e-06 0.100558)
(-1.15118e-06 -6.66155e-06 0.09338)
(-1.82764e-06 2.60015e-06 0.0812873)
(1.59398e-06 -2.62761e-06 0.0813061)
(-9.52101e-06 5.30673e-08 0.100569)
(6.61266e-06 6.39505e-07 0.0933614)
(9.0258e-06 -8.00521e-08 0.100558)
(-6.6302e-06 -1.08251e-06 0.0933806)
(7.15539e-07 -7.02341e-07 0.102891)
(-7.33789e-07 7.39622e-07 0.102891)
(7.23135e-07 7.44312e-07 0.102891)
(-6.19676e-07 -6.04979e-07 0.102891)
(5.93931e-07 -5.9296e-07 0.102891)
(-6.10974e-07 6.17319e-07 0.102891)
(6.06469e-07 6.16055e-07 0.102891)
(1.52293e-05 1.13107e-07 0.102371)
(-1.46086e-05 4.08585e-06 0.100918)
(-5.08301e-07 -1.83445e-07 0.102875)
(-4.9037e-07 7.93024e-07 0.102837)
(-1.51555e-05 -8.21223e-08 0.102366)
(1.4126e-05 -4.5012e-06 0.100936)
(-5.67838e-07 -1.49812e-07 0.102875)
(2.54288e-06 -1.68846e-06 0.081284)
(-2.67442e-06 1.74814e-06 0.0813064)
(8.05601e-08 1.52622e-05 0.102371)
(-2.0944e-07 -4.78886e-07 0.102875)
(4.12734e-06 -1.46519e-05 0.100918)
(7.01847e-07 -4.36278e-07 0.102837)
(-1.04109e-07 -1.51602e-05 0.102366)
(-2.00531e-07 -5.26739e-07 0.102875)
(-4.70031e-06 1.42362e-05 0.100935)
(-4.45743e-06 -5.4448e-06 0.0983254)
(-5.44363e-06 -4.44427e-06 0.0983247)
(4.53702e-05 4.54042e-05 0.102764)
(4.29872e-06 5.38518e-06 0.098344)
(5.36468e-06 4.30301e-06 0.098343)
(7.12826e-08 -9.0298e-06 0.10057)
(8.08673e-07 7.09508e-06 0.0933627)
(-7.00258e-08 9.28415e-06 0.100558)
(-1.02208e-06 -6.11012e-06 0.0933794)
(-1.90357e-06 2.85289e-06 0.0812845)
(1.91534e-06 -2.55439e-06 0.0813029)
(-9.09e-06 1.12458e-08 0.100569)
(7.05147e-06 7.53067e-07 0.0933618)
(9.35794e-06 -4.7548e-08 0.100558)
(-6.07494e-06 -1.00709e-06 0.09338)
(6.09264e-07 -6.13104e-07 0.102891)
(-5.95972e-07 6.02091e-07 0.102891)
(5.96742e-07 5.96947e-07 0.102891)
(-6.82027e-07 -6.75933e-07 0.102891)
(6.98246e-07 -6.882e-07 0.102891)
(-6.78671e-07 6.86481e-07 0.102891)
(6.82893e-07 6.80842e-07 0.102891)
(1.47529e-05 6.22054e-08 0.102371)
(-1.50031e-05 4.36402e-06 0.100918)
(-7.55257e-07 -1.56925e-07 0.102875)
(-5.36065e-07 7.06326e-07 0.102838)
(-1.56134e-05 -4.61445e-08 0.102366)
(1.38442e-05 -4.44189e-06 0.100936)
(-7.14188e-07 -1.81222e-07 0.102875)
(2.83754e-06 -1.94239e-06 0.0812836)
(-2.45753e-06 1.82811e-06 0.0813035)
(9.88509e-08 1.47617e-05 0.102371)
(-1.51079e-07 -7.6268e-07 0.102875)
(4.3899e-06 -1.50343e-05 0.100918)
(7.45973e-07 -5.56844e-07 0.102838)
(-7.14076e-08 -1.56238e-05 0.102366)
(-1.57815e-07 -7.21793e-07 0.102875)
(-4.40251e-06 1.3865e-05 0.100935)
(-4.68618e-06 -5.61972e-06 0.0983254)
(-5.60622e-06 -4.6805e-06 0.0983247)
(4.52454e-05 4.5259e-05 0.102764)
(4.1005e-06 5.35641e-06 0.0983435)
(5.35323e-06 4.08779e-06 0.0983426)
(7.03061e-08 -9.29538e-06 0.10057)
(7.82353e-07 6.91596e-06 0.0933608)
(-6.43309e-08 9.14497e-06 0.100558)
(-9.61247e-07 -6.47734e-06 0.0933782)
(-1.95505e-06 2.84965e-06 0.0812837)
(1.83719e-06 -2.67375e-06 0.0813014)
(-9.36783e-06 5.67553e-08 0.10057)
(6.86866e-06 7.06043e-07 0.09336)
(9.21258e-06 -7.08075e-08 0.100558)
(-6.49129e-06 -1.04679e-06 0.0933786)
(7.04367e-07 -6.90256e-07 0.102891)
(-6.94325e-07 7.02728e-07 0.102891)
(6.98253e-07 6.96255e-07 0.102891)
(-6.95893e-07 -6.85888e-07 0.102891)
(7.03951e-07 -6.87732e-07 0.102891)
(-6.93482e-07 7.05697e-07 0.102891)
(7.02318e-07 6.92721e-07 0.102891)
(1.51121e-05 7.85349e-08 0.102372)
(-1.47822e-05 4.24312e-06 0.100918)
(-5.99719e-07 -1.8392e-07 0.102875)
(-4.56231e-07 7.14928e-07 0.102838)
(-1.53158e-05 -9.96713e-08 0.102366)
(1.40918e-05 -4.55461e-06 0.100936)
(-5.88287e-07 -1.80111e-07 0.102875)
(2.68489e-06 -1.81584e-06 0.0812811)
(-2.59409e-06 1.8297e-06 0.0813023)
(8.35492e-08 1.5119e-05 0.102372)
(-1.86558e-07 -5.99172e-07 0.102875)
(4.30675e-06 -1.48619e-05 0.100918)
(6.90144e-07 -4.51565e-07 0.102838)
(-9.31822e-08 -1.5337e-05 0.102366)
(-1.88767e-07 -5.81081e-07 0.102875)
(-4.60794e-06 1.41279e-05 0.100936)
(-4.53525e-06 -5.51304e-06 0.098325)
(-5.49852e-06 -4.53144e-06 0.0983243)
(4.535e-05 4.53689e-05 0.102764)
(4.21493e-06 5.379e-06 0.0983435)
(5.37246e-06 4.20738e-06 0.0983426)
(7.63484e-08 -9.32483e-06 0.10057)
(7.18467e-07 6.7541e-06 0.0933605)
(-7.09708e-08 9.05766e-06 0.100558)
(-1.05584e-06 -6.53094e-06 0.0933783)
(-1.85881e-06 2.74911e-06 0.0812836)
(1.99818e-06 -2.78186e-06 0.0813012)
(-9.39157e-06 5.56035e-08 0.10057)
(6.75477e-06 6.95442e-07 0.0933599)
(9.11918e-06 -5.4702e-08 0.100558)
(-6.54344e-06 -1.06468e-06 0.0933783)
(7.04369e-07 -6.92191e-07 0.102891)
(-6.90519e-07 7.02684e-07 0.102891)
(7.0077e-07 6.88834e-07 0.102891)
(-6.84153e-07 -6.83625e-07 0.102891)
(6.99733e-07 -6.92855e-07 0.102891)
(-6.86398e-07 6.95998e-07 0.102891)
(6.91262e-07 6.88205e-07 0.102891)
(1.51106e-05 7.50713e-08 0.102372)
(-1.47287e-05 4.18738e-06 0.100918)
(-5.87992e-07 -1.83933e-07 0.102875)
(-4.62424e-07 6.97201e-07 0.102838)
(-1.52547e-05 -8.46382e-08 0.102366)
(1.40905e-05 -4.5891e-06 0.100937)
(-5.86445e-07 -1.87845e-07 0.102875)
(2.64158e-06 -1.83967e-06 0.0812809)
(-2.60928e-06 1.81615e-06 0.0813023)
(8.52165e-08 1.51244e-05 0.102372)
(-1.86559e-07 -5.85975e-07 0.102875)
(4.22987e-06 -1.47821e-05 0.100918)
(7.05571e-07 -4.59387e-07 0.102838)
(-9.14267e-08 -1.52665e-05 0.102366)
(-1.86683e-07 -5.81813e-07 0.102875)
(-4.61923e-06 1.41443e-05 0.100936)
(-4.52236e-06 -5.52519e-06 0.0983251)
(-5.51397e-06 -4.51613e-06 0.0983245)
(4.53338e-05 4.53548e-05 0.102764)
(4.21394e-06 5.37221e-06 0.0983436)
(5.36536e-06 4.20654e-06 0.0983427)
(7.44807e-08 -9.32645e-06 0.10057)
(7.77023e-07 6.78093e-06 0.0933602)
(-6.33838e-08 9.05842e-06 0.100558)
(-1.05841e-06 -6.48745e-06 0.0933786)
(-1.86306e-06 2.57943e-06 0.0812837)
(1.86442e-06 -2.80902e-06 0.0813015)
(-9.39136e-06 5.1228e-08 0.10057)
(6.78297e-06 6.95459e-07 0.0933602)
(9.11917e-06 -5.99314e-08 0.100558)
(-6.55621e-06 -1.07581e-06 0.0933781)
(6.94377e-07 -6.89447e-07 0.102891)
(-6.86886e-07 6.94585e-07 0.102891)
(6.89963e-07 6.88257e-07 0.102891)
(-6.92478e-07 -6.89247e-07 0.102891)
(6.94157e-07 -6.87984e-07 0.102891)
(-6.88046e-07 6.94135e-07 0.102891)
(6.89372e-07 6.8832e-07 0.102891)
(1.511e-05 7.88379e-08 0.102372)
(-1.47316e-05 4.20117e-06 0.100918)
(-5.9304e-07 -1.83706e-07 0.102875)
(-4.68041e-07 7.11577e-07 0.102838)
(-1.5259e-05 -8.45936e-08 0.102366)
(1.40929e-05 -4.57188e-06 0.100937)
(-5.92538e-07 -1.83421e-07 0.102875)
(2.6398e-06 -1.84276e-06 0.0812809)
(-2.60971e-06 1.81483e-06 0.0813023)
(8.50602e-08 1.51218e-05 0.102372)
(-1.85496e-07 -5.90161e-07 0.102875)
(4.23349e-06 -1.47843e-05 0.100918)
(7.07503e-07 -4.63826e-07 0.102838)
(-9.15569e-08 -1.5272e-05 0.102366)
(-1.86409e-07 -5.83941e-07 0.102875)
(-4.61762e-06 1.41429e-05 0.100936)
(-4.52312e-06 -5.52584e-06 0.0983252)
(-5.51423e-06 -4.51729e-06 0.0983245)
(4.53326e-05 4.53523e-05 0.102764)
(4.21361e-06 5.37275e-06 0.0983436)
(5.36577e-06 4.20669e-06 0.0983427)
(6.10751e-08 -9.32588e-06 0.10057)
(7.11009e-07 6.72957e-06 0.0933601)
(-7.87394e-08 9.05448e-06 0.100558)
(-1.07793e-06 -6.50543e-06 0.0933785)
(-1.91797e-06 2.74451e-06 0.0812838)
(1.87371e-06 -2.73317e-06 0.0813017)
(-9.39078e-06 4.9138e-08 0.10057)
(6.78558e-06 6.96347e-07 0.0933602)
(9.11986e-06 -6.17477e-08 0.100558)
(-6.55021e-06 -1.07337e-06 0.0933783)
(6.93908e-07 -6.908e-07 0.102891)
(-6.88424e-07 6.9367e-07 0.102891)
(6.89258e-07 6.89766e-07 0.102891)
(-6.951e-07 -6.89993e-07 0.102891)
(6.93902e-07 -6.9278e-07 0.102891)
(-6.88976e-07 6.93734e-07 0.102891)
(6.89058e-07 6.90828e-07 0.102891)
(1.51103e-05 7.69449e-08 0.102372)
(-1.47317e-05 4.19325e-06 0.100918)
(-5.90773e-07 -1.84597e-07 0.102875)
(-4.65825e-07 7.09586e-07 0.102838)
(-1.52589e-05 -8.61716e-08 0.102366)
(1.40933e-05 -4.57676e-06 0.100937)
(-5.88175e-07 -1.84834e-07 0.102875)
(2.63932e-06 -1.84366e-06 0.0812809)
(-2.61033e-06 1.81386e-06 0.0813023)