/*--------------------------------*- C++ -*----------------------------------*\
| =========                 |                                                 |
| \\      /  F ield         | OpenFOAM: The Open Source CFD Toolbox           |
|  \\    /   O peration     | Version:  2206                                  |
|   \\  /    A nd           | Website:  www.openfoam.com                      |
|    \\/     M anipulation  |                                                 |
\*---------------------------------------------------------------------------*/
FoamFile
{
    version     2.0;
    format      ascii;
    arch        "LSB;label=32;scalar=64";
    class       volScalarField;
    location    "13";
    object      epsilon;
}
// * * * * * * * * * * * * * * * * * * * * * * * * * * * * * * * * * * * * * //

dimensions      [0 2 -3 0 0 0 0];

internalField   nonuniform List<scalar> 
28448
(
3.88673e-07
4.00014e-07
4.00015e-07
4.17327e-07
3.88676e-07
4.00016e-07
4.00017e-07
4.17335e-07
3.88662e-07
4.00006e-07
3.99991e-07
4.17331e-07
3.88488e-07
3.99852e-07
3.99839e-07
4.17206e-07
3.88449e-07
3.99824e-07
3.99828e-07
4.17196e-07
3.88448e-07
3.99823e-07
3.99828e-07
4.17194e-07
3.88448e-07
3.99823e-07
3.99828e-07
4.17196e-07
3.88448e-07
3.99823e-07
3.99828e-07
4.17197e-07
3.88448e-07
3.99823e-07
3.99828e-07
4.17197e-07
3.88448e-07
3.99823e-07
3.99828e-07
4.17197e-07
3.88448e-07
3.99823e-07
3.99828e-07
4.17197e-07
3.88448e-07
3.99823e-07
3.99828e-07
4.17197e-07
3.88448e-07
3.99823e-07
3.99828e-07
4.17197e-07
3.88448e-07
3.99823e-07
3.99828e-07
4.17197e-07
3.88448e-07
3.99823e-07
3.99828e-07
4.17197e-07
3.88448e-07
3.99823e-07
3.99828e-07
4.17197e-07
3.88448e-07
3.99823e-07
3.99828e-07
4.17197e-07
3.88458e-07
3.99834e-07
4.17171e-07
4.00022e-07
4.00023e-07
4.17166e-07
4.00016e-07
4.00028e-07
4.00014e-07
4.00022e-07
4.1718e-07
4.00015e-07
4.00016e-07
4.17177e-07
4.17326e-07
4.17186e-07
4.00021e-07
4.00023e-07
4.0002e-07
4.00021e-07
4.17322e-07
4.17181e-07
4.00016e-07
4.00032e-07
4.00014e-07
4.00031e-07
4.00026e-07
4.00016e-07
4.00025e-07
4.17333e-07
4.17189e-07
4.0002e-07
4.00018e-07
4.00019e-07
4.17187e-07
4.17336e-07
4.17187e-07
4.00024e-07
4.00025e-07
4.0002e-07
4.00021e-07
4.17332e-07
4.17182e-07
4.00018e-07
4.00031e-07
4.00015e-07
4.00022e-07
4.00026e-07
4.00012e-07
4.00016e-07
4.1734e-07
4.17188e-07
4.0002e-07
4.00008e-07
4.0001e-07
4.17186e-07
4.17337e-07
4.17099e-07
4.00015e-07
4.00016e-07
3.99902e-07
3.99903e-07
4.17333e-07
4.17093e-07
4.00009e-07
4.00006e-07
3.99896e-07
3.99874e-07
4e-07
3.99887e-07
3.99868e-07
4.17335e-07
4.17073e-07
3.99994e-07
3.99862e-07
3.99862e-07
4.1707e-07
4.17233e-07
4.17036e-07
3.99866e-07
3.99868e-07
3.99833e-07
3.99834e-07
4.17228e-07
4.17031e-07
3.99861e-07
3.99854e-07
3.99827e-07
3.9984e-07
3.99848e-07
3.99824e-07
3.99834e-07
4.17211e-07
4.17047e-07
3.99841e-07
3.99828e-07
3.99828e-07
4.17045e-07
4.17188e-07
4.1705e-07
3.99835e-07
3.99837e-07
3.99833e-07
3.99835e-07
4.17184e-07
4.17045e-07
3.9983e-07
3.99843e-07
3.99828e-07
3.9984e-07
3.99837e-07
3.99824e-07
3.99834e-07
4.17201e-07
4.17052e-07
3.99831e-07
3.99828e-07
3.99828e-07
4.17047e-07
4.17198e-07
4.17047e-07
3.99835e-07
3.99837e-07
3.99833e-07
3.99834e-07
4.17194e-07
4.17043e-07
3.9983e-07
3.99842e-07
3.99827e-07
3.9984e-07
3.99836e-07
3.99823e-07
3.99834e-07
4.17201e-07
4.17053e-07
3.9983e-07
3.99828e-07
3.99828e-07
4.17049e-07
4.17198e-07
4.17046e-07
3.99835e-07
3.99837e-07
3.99833e-07
3.99834e-07
4.17194e-07
4.17042e-07
3.99829e-07
3.99842e-07
3.99827e-07
3.9984e-07
3.99837e-07
3.99823e-07
3.99834e-07
4.17203e-07
4.17051e-07
3.99831e-07
3.99828e-07
3.99828e-07
4.17049e-07
4.17197e-07
4.17046e-07
3.99835e-07
3.99837e-07
3.99833e-07
3.99834e-07
4.17193e-07
4.17041e-07
3.99829e-07
3.99842e-07
3.99827e-07
3.9984e-07
3.99837e-07
3.99823e-07
3.99834e-07
4.17202e-07
4.17051e-07
3.99831e-07
3.99828e-07
3.99828e-07
4.17049e-07
4.17197e-07
4.17046e-07
3.99835e-07
3.99837e-07
3.99833e-07
3.99834e-07
4.17193e-07
4.17041e-07
3.99829e-07
3.99842e-07
3.99827e-07
3.9984e-07
3.99837e-07
3.99823e-07
3.99834e-07
4.17202e-07
4.17051e-07
3.99831e-07
3.99828e-07
3.99828e-07
4.17048e-07
4.17197e-07
4.17046e-07
3.99835e-07
3.99837e-07
3.99833e-07
3.99835e-07
4.17193e-07
4.17041e-07
3.9983e-07
3.99843e-07
3.99827e-07
3.9984e-07
3.99837e-07
3.99823e-07
3.99834e-07
4.17203e-07
4.17051e-07
3.9983e-07
3.99828e-07
3.99828e-07
4.17048e-07
4.17197e-07
4.17046e-07
3.99835e-07
3.99837e-07
3.99833e-07
3.99835e-07
4.17193e-07
4.17041e-07
3.99829e-07
3.99843e-07
3.99827e-07
3.9984e-07
3.99837e-07
3.99823e-07
3.99834e-07
4.17203e-07
4.17051e-07
3.9983e-07
3.99828e-07
3.99828e-07
4.17049e-07
4.17197e-07
4.17046e-07
3.99835e-07
3.99837e-07
3.99833e-07
3.99834e-07
4.17193e-07
4.17041e-07
3.99829e-07
3.99843e-07
3.99827e-07
3.9984e-07
3.99837e-07
3.99823e-07
3.99834e-07
4.17202e-07
4.17051e-07
3.9983e-07
3.99828e-07
3.99828e-07
4.17049e-07
4.17197e-07
4.17046e-07
3.99835e-07
3.99837e-07
3.99833e-07
3.99835e-07
4.17193e-07
4.17041e-07
3.9983e-07
3.99843e-07
3.99827e-07
3.9984e-07
3.99837e-07
3.99823e-07
3.99834e-07
4.17203e-07
4.17051e-07
3.9983e-07
3.99828e-07
3.99828e-07
4.17048e-07
4.17197e-07
4.17046e-07
3.99835e-07
3.99837e-07
3.99833e-07
3.99834e-07
4.17193e-07
4.17041e-07
3.9983e-07
3.99842e-07
3.99827e-07
3.9984e-07
3.99837e-07
3.99823e-07
3.99834e-07
4.17203e-07
4.17051e-07
3.99831e-07
3.99828e-07
3.99828e-07
4.17048e-07
4.17197e-07
4.17046e-07
3.99835e-07
3.99837e-07
3.99833e-07
3.99834e-07
4.17193e-07
4.17041e-07
3.99829e-07
3.99843e-07
3.99827e-07
3.9984e-07
3.99837e-07
3.99823e-07
3.99834e-07
4.17202e-07
4.17051e-07
3.99831e-07
3.99828e-07
3.99828e-07
4.17049e-07
4.17197e-07
4.17046e-07
3.99835e-07
3.99837e-07
3.99833e-07
3.99834e-07
4.17193e-07
4.17041e-07
3.99829e-07
3.99843e-07
3.99827e-07
3.9984e-07
3.99837e-07
3.99823e-07
3.99834e-07
4.17203e-07
4.17051e-07
3.99831e-07
3.99828e-07
3.99828e-07
4.17049e-07
4.17197e-07
4.17046e-07
3.99835e-07
3.99837e-07
3.99836e-07
4.17193e-07
3.99829e-07
3.99843e-07
3.99827e-07
3.9984e-07
3.99837e-07
3.99838e-07
4.17202e-07
4.17051e-07
3.99831e-07
3.99829e-07
3.99832e-07
4.17049e-07
4.17202e-07
3.9983e-07
3.99843e-07
4.17202e-07
3.88674e-07
3.88675e-07
3.88675e-07
3.88674e-07
1.47168e-06
7.56085e-06
1.47206e-06
7.56034e-06
2.47634e-05
2.47601e-05
1.47154e-06
7.56189e-06
1.47188e-06
7.56135e-06
3.88675e-07
3.8868e-07
3.8868e-07
3.88677e-07
3.88674e-07
3.88678e-07
3.88677e-07
5.78943e-07
1.20452e-06
3.91594e-07
4.00018e-07
5.79062e-07
1.20409e-06
3.91598e-07
2.47629e-05
2.47599e-05
5.78968e-07
3.91594e-07
1.20452e-06
4.0002e-07
5.79089e-07
3.91599e-07
1.20401e-06
2.45632e-06
2.45683e-06
4.17184e-07
2.45605e-06
2.45656e-06
1.47165e-06
7.56045e-06
1.47201e-06
7.56004e-06
2.47584e-05
2.4757e-05
1.47152e-06
7.56146e-06
1.47183e-06
7.56103e-06
3.88673e-07
3.88677e-07
3.88676e-07
3.88669e-07
3.88667e-07
3.88663e-07
3.88663e-07
5.7892e-07
1.20444e-06
3.91594e-07
4.00017e-07
5.79019e-07
1.20397e-06
3.91593e-07
2.47591e-05
2.47582e-05
5.7894e-07
3.91593e-07
1.20438e-06
4.00017e-07
5.79042e-07
3.91592e-07
1.20394e-06
2.45643e-06
2.45695e-06
4.17188e-07
2.45604e-06
2.45656e-06
1.47217e-06
7.56071e-06
1.47212e-06
7.56257e-06
2.47589e-05
2.47655e-05
1.47206e-06
7.56173e-06
1.47198e-06
7.5636e-06
3.88661e-07
3.88643e-07
3.88643e-07
3.88532e-07
3.88528e-07
3.8849e-07
3.8849e-07
5.78983e-07
1.20454e-06
3.91571e-07
3.99986e-07
5.79066e-07
1.2043e-06
3.91532e-07
2.47653e-05
2.47709e-05
5.79003e-07
3.91564e-07
1.20463e-06
3.99948e-07
5.79094e-07
3.91518e-07
1.2044e-06
2.45698e-06
2.45751e-06
4.17146e-07
2.45706e-06
2.45759e-06
1.47249e-06
7.56631e-06
1.47286e-06
7.56588e-06
2.47707e-05
2.47701e-05
1.47234e-06
7.56734e-06
1.47267e-06
7.56689e-06
3.88488e-07
3.88467e-07
3.88466e-07
3.88449e-07
3.8845e-07
3.88451e-07
3.8845e-07
5.78973e-07
1.20496e-06
3.914e-07
3.99836e-07
5.79076e-07
1.20449e-06
3.9139e-07
2.47721e-05
2.47712e-05
5.78996e-07
3.91396e-07
1.20489e-06
3.99833e-07
5.79104e-07
3.91389e-07
1.20445e-06
2.45735e-06
2.45785e-06
4.17039e-07
2.45696e-06
2.45747e-06
1.47248e-06
7.56613e-06
1.47285e-06
7.56579e-06
2.47705e-05
2.477e-05
1.47234e-06
7.56717e-06
1.47266e-06
7.5668e-06
3.88453e-07
3.88454e-07
3.88454e-07
3.88449e-07
3.8845e-07
3.88451e-07
3.8845e-07
5.78971e-07
1.20495e-06
3.91383e-07
3.99827e-07
5.79073e-07
1.20448e-06
3.91386e-07
2.47718e-05
2.47711e-05
5.78989e-07
3.91383e-07
1.20488e-06
3.99831e-07
5.79097e-07
3.91386e-07
1.20444e-06
2.45731e-06
2.45781e-06
4.17054e-07
2.45695e-06
2.45746e-06
1.47248e-06
7.56611e-06
1.47285e-06
7.56578e-06
2.47705e-05
2.477e-05
1.47233e-06
7.56715e-06
1.47266e-06
7.5668e-06
3.88452e-07
3.88453e-07
3.88453e-07
3.88449e-07
3.8845e-07
3.88451e-07
3.8845e-07
5.78971e-07
1.20495e-06
3.91381e-07
3.99825e-07
5.79074e-07
1.20448e-06
3.91384e-07
2.47718e-05
2.47711e-05
5.78989e-07
3.91383e-07
1.20488e-06
3.9983e-07
5.791e-07
3.91386e-07
1.20445e-06
2.4573e-06
2.45781e-06
4.1705e-07
2.45694e-06
2.45746e-06
1.47248e-06
7.56611e-06
1.47285e-06
7.56578e-06
2.47705e-05
2.477e-05
1.47233e-06
7.56715e-06
1.47266e-06
7.5668e-06
3.88452e-07
3.88453e-07
3.88453e-07
3.88449e-07
3.8845e-07
3.88451e-07
3.8845e-07
5.78971e-07
1.20495e-06
3.91382e-07
3.99826e-07
5.79074e-07
1.20448e-06
3.91384e-07
2.47718e-05
2.47711e-05
5.78993e-07
3.91382e-07
1.20489e-06
3.9983e-07
5.791e-07
3.91385e-07
1.20445e-06
2.4573e-06
2.45781e-06
4.1705e-07
2.45694e-06
2.45746e-06
1.47248e-06
7.56611e-06
1.47285e-06
7.56578e-06
2.47705e-05
2.477e-05
1.47233e-06
7.56715e-06
1.47266e-06
7.56679e-06
3.88452e-07
3.88453e-07
3.88453e-07
3.88449e-07
3.8845e-07
3.88451e-07
3.8845e-07
5.78971e-07
1.20495e-06
3.91382e-07
3.99825e-07
5.79074e-07
1.20448e-06
3.91384e-07
2.47718e-05
2.47711e-05
5.7899e-07
3.91382e-07
1.20489e-06
3.9983e-07
5.79094e-07
3.91385e-07
1.20445e-06
2.4573e-06
2.45781e-06
4.17049e-07
2.45694e-06
2.45746e-06
1.47248e-06
7.56611e-06
1.47285e-06
7.56578e-06
2.47705e-05
2.477e-05
1.47233e-06
7.56714e-06
1.47265e-06
7.56679e-06
3.88452e-07
3.88453e-07
3.88453e-07
3.88449e-07
3.8845e-07
3.88451e-07
3.8845e-07
5.78971e-07
1.20495e-06
3.91382e-07
3.99826e-07
5.79074e-07
1.20448e-06
3.91385e-07
2.47718e-05
2.47711e-05
5.78991e-07
3.91382e-07
1.20489e-06
3.9983e-07
5.79092e-07
3.91385e-07
1.20445e-06
2.4573e-06
2.45781e-06
4.1705e-07
2.45694e-06
2.45746e-06
1.47248e-06
7.56611e-06
1.47285e-06
7.56578e-06
2.47705e-05
2.477e-05
1.47233e-06
7.56715e-06
1.47265e-06
7.56679e-06
3.88452e-07
3.88453e-07
3.88453e-07
3.88449e-07
3.8845e-07
3.88451e-07
3.8845e-07
5.78971e-07
1.20495e-06
3.91382e-07
3.99825e-07
5.79074e-07
1.20448e-06
3.91384e-07
2.47718e-05
2.47711e-05
5.79002e-07
3.91382e-07
1.20489e-06
3.9983e-07
5.791e-07
3.91385e-07
1.20445e-06
2.4573e-06
2.45781e-06
4.1705e-07
2.45694e-06
2.45746e-06
1.47248e-06
7.56611e-06
1.47285e-06
7.56578e-06
2.47705e-05
2.477e-05
1.47233e-06
7.56715e-06
1.47265e-06
7.56679e-06
3.88452e-07
3.88453e-07
3.88453e-07
3.88449e-07
3.8845e-07
3.88451e-07
3.8845e-07
5.78971e-07
1.20495e-06
3.91382e-07
3.99826e-07
5.79074e-07
1.20448e-06
3.91384e-07
2.47718e-05
2.47711e-05
5.79008e-07
3.91382e-07
1.20489e-06
3.9983e-07
5.79108e-07
3.91385e-07
1.20445e-06
2.4573e-06
2.45781e-06
4.1705e-07
2.45694e-06
2.45746e-06
1.47248e-06
7.56611e-06
1.47285e-06
7.56578e-06
2.47705e-05
2.477e-05
1.47233e-06
7.56714e-06
1.47265e-06
7.56679e-06
3.88452e-07
3.88453e-07
3.88453e-07
3.88449e-07
3.8845e-07
3.88451e-07
3.8845e-07
5.78971e-07
1.20495e-06
3.91382e-07
3.99825e-07
5.79074e-07
1.20448e-06
3.91384e-07
2.47718e-05
2.47711e-05
5.79011e-07
3.91383e-07
1.20489e-06
3.9983e-07
5.79113e-07
3.91385e-07
1.20445e-06
2.4573e-06
2.45781e-06
4.1705e-07
2.45694e-06
2.45746e-06
1.47248e-06
7.56611e-06
1.47285e-06
7.56578e-06
2.47705e-05
2.477e-05
1.47233e-06
7.56714e-06
1.47266e-06
7.56679e-06
3.88452e-07
3.88453e-07
3.88453e-07
3.88449e-07
3.8845e-07
3.88451e-07
3.8845e-07
5.78971e-07
1.20495e-06
3.91381e-07
3.99825e-07
5.79074e-07
1.20448e-06
3.91384e-07
2.47718e-05
2.47711e-05
5.7901e-07
3.91383e-07
1.20489e-06
3.9983e-07
5.79115e-07
3.91385e-07
1.20445e-06
2.4573e-06
2.45781e-06
4.17049e-07
2.45694e-06
2.45746e-06
1.47248e-06
7.56611e-06
1.47285e-06
7.56578e-06
2.47705e-05
2.477e-05
1.47233e-06
7.56715e-06
1.47266e-06
7.56679e-06
3.88452e-07
3.88453e-07
3.88453e-07
3.88449e-07
3.8845e-07
3.88451e-07
3.8845e-07
5.78971e-07
1.20495e-06
3.91382e-07
3.99826e-07
5.79074e-07
1.20448e-06
3.91384e-07
2.47718e-05
2.47711e-05
5.79009e-07
3.91383e-07
1.20489e-06
3.9983e-07
5.79112e-07
3.91385e-07
1.20445e-06
2.4573e-06
2.45781e-06
4.1705e-07
2.45694e-06
2.45746e-06
1.47248e-06
7.56611e-06
1.47285e-06
7.56578e-06
2.47705e-05
2.477e-05
1.47233e-06
7.56714e-06
1.47266e-06
7.56679e-06
3.88452e-07
3.88453e-07
3.88453e-07
3.88449e-07
3.8845e-07
3.88451e-07
3.8845e-07
5.78971e-07
1.20495e-06
3.91382e-07
3.99826e-07
5.79074e-07
1.20448e-06
3.91384e-07
2.47718e-05
2.47711e-05
5.79008e-07
3.91383e-07
1.20489e-06
3.9983e-07
5.79111e-07
3.91385e-07
1.20445e-06
2.4573e-06
2.45781e-06
4.1705e-07
2.45694e-06
2.45746e-06
1.47248e-06
7.56611e-06
1.47285e-06
7.56578e-06
2.47705e-05
2.477e-05
1.47234e-06
7.56714e-06
1.47266e-06
7.56679e-06
3.88452e-07
3.88453e-07
3.88453e-07
3.88449e-07
3.8845e-07
3.88451e-07
3.8845e-07
5.78971e-07
1.20495e-06
3.91382e-07
3.99825e-07
5.79074e-07
1.20448e-06
3.91384e-07
2.47718e-05
2.4771e-05
5.79007e-07
3.91383e-07
1.20489e-06
3.9983e-07
5.7911e-07
3.91385e-07
1.20445e-06
2.4573e-06
2.45781e-06
4.1705e-07
2.45695e-06
2.45746e-06
1.47248e-06
7.56611e-06
1.47285e-06
7.56578e-06
2.47705e-05
2.477e-05
1.47233e-06
7.56714e-06
1.47266e-06
7.56679e-06
3.88452e-07
3.88453e-07
3.88453e-07
3.88451e-07
3.88458e-07
3.88451e-07
3.88454e-07
5.78971e-07
1.20495e-06
3.91381e-07
3.99825e-07
5.79074e-07
1.20448e-06
3.91384e-07
2.47718e-05
2.4771e-05
5.79007e-07
3.91383e-07
1.20489e-06
3.9983e-07
5.7911e-07
3.91386e-07
1.20445e-06
2.4573e-06
2.45781e-06
4.1705e-07
2.45694e-06
2.45746e-06
7.56714e-06
1.47266e-06
3.88457e-07
2.47718e-05
1.20488e-06
2.47623e-05
2.47647e-05
2.45566e-06
2.45622e-06
7.56058e-06
1.47171e-06
7.56117e-06
1.47171e-06
1.20396e-06
3.91596e-07
5.78925e-07
1.20405e-06
3.91596e-07
5.78924e-07
2.47637e-05
2.45615e-06
2.45574e-06
2.47605e-05
7.5616e-06
1.4716e-06
1.20418e-06
3.91598e-07
5.78925e-07
1.47224e-06
7.56214e-06
7.56266e-06
1.47162e-06
5.7905e-07
4.00028e-07
3.91597e-07
1.20429e-06
3.91597e-07
1.20476e-06
5.78951e-07
5.79045e-07
1.20398e-06
3.91593e-07
3.91593e-07
5.7895e-07
1.47242e-06
7.56097e-06
1.47174e-06
5.79048e-07
4.00022e-07
3.91595e-07
1.2041e-06
3.91595e-07
1.20449e-06
5.78956e-07
1.47242e-06
7.5618e-06
7.56224e-06
1.47174e-06
2.47627e-05
2.47684e-05
4.17314e-07
2.4567e-06
2.45592e-06
2.45707e-06
2.45622e-06
2.4762e-05
2.47669e-05
5.79076e-07
4.00015e-07
3.91594e-07
1.2041e-06
3.91595e-07
1.20447e-06
5.78972e-07
5.79048e-07
4.00016e-07
3.91596e-07
1.2042e-06
3.91596e-07
1.2046e-06
5.78955e-07
1.47246e-06
7.56194e-06
7.56238e-06
1.47177e-06
1.47225e-06
7.56221e-06
7.56266e-06
1.47163e-06
4.17312e-07
2.45594e-06
2.45645e-06
2.45624e-06
2.45674e-06
2.47623e-05
2.47672e-05
2.47635e-05
2.47684e-05
2.47619e-05
2.47587e-05
2.47644e-05
2.47612e-05
2.45605e-06
2.45661e-06
4.17183e-07
2.45589e-06
2.45645e-06
2.47566e-05
2.47587e-05
2.47591e-05
2.47611e-05
4.17333e-07
2.45595e-06
2.45652e-06
2.45619e-06
2.45676e-06
1.47169e-06
7.56133e-06
1.47204e-06
7.56103e-06
5.78961e-07
1.20442e-06
3.91596e-07
4.00021e-07
5.79038e-07
1.204e-06
3.91595e-07
5.78958e-07
1.20453e-06
3.91596e-07
4.00023e-07
5.79036e-07
1.20412e-06
3.91595e-07
1.47199e-06
7.56015e-06
7.56039e-06
1.47166e-06
1.472e-06
7.5608e-06
7.56108e-06
1.47168e-06
5.7906e-07
4.00019e-07
1.20391e-06
3.91593e-07
1.20438e-06
3.91593e-07
5.78927e-07
5.79058e-07
4.00021e-07
1.20402e-06
3.91592e-07
1.2045e-06
3.91593e-07
5.78926e-07
2.45655e-06
2.45625e-06
4.17178e-07
2.45639e-06
2.45605e-06
2.47605e-05
2.4757e-05
2.47581e-05
2.47601e-05
4.17329e-07
2.45647e-06
2.45617e-06
2.45672e-06
2.45647e-06
2.47548e-05
2.47572e-05
5.78931e-07
1.2047e-06
3.91598e-07
4.00016e-07
5.79028e-07
1.20425e-06
3.91598e-07
1.47158e-06
7.56223e-06
1.47188e-06
7.5619e-06
5.78944e-07
3.91601e-07
1.20474e-06
4.00032e-07
5.79059e-07
3.91601e-07
1.20427e-06
1.4718e-06
7.56115e-06
7.56143e-06
1.47152e-06
5.79027e-07
4.00014e-07
1.20415e-06
3.91596e-07
1.20466e-06
3.91596e-07
5.78917e-07
1.47185e-06
7.56175e-06
7.562e-06
1.47156e-06
5.79038e-07
4.00031e-07
3.91599e-07
1.20423e-06
3.916e-07
1.20469e-06
5.78922e-07
1.47172e-06
7.56116e-06
1.47205e-06
7.56084e-06
5.78949e-07
3.916e-07
1.2045e-06
4.00026e-07
5.79064e-07
3.916e-07
1.20401e-06
1.47172e-06
7.56185e-06
1.47205e-06
7.56155e-06
5.79036e-07
4.00017e-07
1.20399e-06
3.91595e-07
1.20449e-06
3.91597e-07
5.78916e-07
1.47203e-06
7.56061e-06
7.56093e-06
1.4717e-06
5.79041e-07
4.00025e-07
3.91597e-07
1.20396e-06
3.91598e-07
1.2044e-06
5.78922e-07
1.47203e-06
7.56138e-06
7.5616e-06
1.4717e-06
2.45712e-06
2.45623e-06
4.17188e-07
2.45686e-06
2.45603e-06
2.47618e-05
2.47594e-05
2.47585e-05
2.47602e-05
4.17338e-07
2.45691e-06
2.45606e-06
2.45724e-06
2.45632e-06
2.4758e-05
2.47594e-05
5.78948e-07
3.916e-07
1.20461e-06
4.0002e-07
5.79063e-07
3.916e-07
1.20412e-06
1.47175e-06
7.56198e-06
1.47208e-06
7.56168e-06
1.47159e-06
7.56226e-06
1.47189e-06
7.56196e-06
5.79066e-07
4.00019e-07
3.91595e-07
1.20395e-06
3.91597e-07
1.20439e-06
5.78937e-07
5.7904e-07
4.00019e-07
3.91598e-07
1.20407e-06
3.91599e-07
1.20451e-06
5.7892e-07
1.47206e-06
7.56151e-06
7.56173e-06
1.47172e-06
1.47186e-06
7.56179e-06
7.56201e-06
1.47156e-06
2.47621e-05
2.47596e-05
2.47633e-05
2.47609e-05
4.17335e-07
2.45608e-06
2.4566e-06
2.45634e-06
2.45685e-06
2.47583e-05
2.47596e-05
2.47595e-05
2.47609e-05
2.47567e-05
2.47556e-05
2.47591e-05
2.47581e-05
2.45622e-06
2.4568e-06
4.17187e-07
2.45597e-06
2.45654e-06
2.47562e-05
2.47559e-05
2.47587e-05
2.47584e-05
4.17337e-07
2.45596e-06
2.45653e-06
2.4562e-06
2.45678e-06
1.47168e-06
7.56086e-06
1.47199e-06
7.56068e-06
5.78917e-07
1.2043e-06
3.91595e-07
4.00024e-07
5.79023e-07
1.20388e-06
3.91594e-07
5.78917e-07
1.20442e-06
3.91592e-07
4.00025e-07
5.79023e-07
1.20399e-06
3.91592e-07
1.47195e-06
7.56021e-06
7.56013e-06
1.47168e-06
1.47199e-06
7.56079e-06
7.56077e-06
1.4717e-06
5.79018e-07
4.00022e-07
1.20392e-06
3.91589e-07
1.20428e-06
3.91591e-07
5.78927e-07
5.79019e-07
4.00023e-07
1.20403e-06
3.91588e-07
1.2044e-06
3.91589e-07
5.78928e-07
2.45676e-06
2.45654e-06
4.17183e-07
2.45648e-06
2.45621e-06
2.47551e-05
2.47539e-05
2.47575e-05
2.47573e-05
4.17333e-07
2.45647e-06
2.45621e-06
2.45673e-06
2.45657e-06
2.47548e-05
2.47545e-05
5.78922e-07
1.20457e-06
3.91596e-07
4.00018e-07
5.79017e-07
1.20412e-06
3.91595e-07
1.47155e-06
7.56186e-06
1.47183e-06
7.56173e-06
5.78927e-07
3.91598e-07
1.20467e-06
4.0003e-07
5.79022e-07
3.91597e-07
1.20422e-06
1.47178e-06
7.56118e-06
7.56113e-06
1.47157e-06
5.79022e-07
4.00017e-07
1.20417e-06
3.91591e-07
1.20455e-06
3.91593e-07
5.78934e-07
1.47181e-06
7.56231e-06
7.5619e-06
1.47171e-06
5.79028e-07
4.00027e-07
3.91588e-07
1.20438e-06
3.91593e-07
1.20468e-06
5.78948e-07
1.47169e-06
7.56071e-06
1.47201e-06
7.5605e-06
5.78925e-07
3.91597e-07
1.20436e-06
4.00024e-07
5.7902e-07
3.91595e-07
1.20395e-06
1.47169e-06
7.56145e-06
1.47201e-06
7.56133e-06
5.79022e-07
4.00015e-07
1.20402e-06
3.91585e-07
1.20441e-06
3.9159e-07
5.78945e-07
1.472e-06
7.56057e-06
7.56061e-06
1.47187e-06
5.79025e-07
4.00021e-07
3.91585e-07
1.2041e-06
3.91591e-07
1.20437e-06
5.78949e-07
1.472e-06
7.56188e-06
7.56146e-06
1.47187e-06
2.45729e-06
2.45635e-06
4.17191e-07
2.45688e-06
2.45603e-06
2.47582e-05
2.47574e-05
2.47613e-05
2.47592e-05
4.1734e-07
2.45717e-06
2.45634e-06
2.45724e-06
2.45629e-06
2.47601e-05
2.4758e-05
5.78922e-07
3.91597e-07
1.20448e-06
4.00018e-07
5.79018e-07
3.91595e-07
1.20406e-06
1.47171e-06
7.56158e-06
1.47204e-06
7.56145e-06
1.47155e-06
7.56187e-06
1.47183e-06
7.56174e-06
5.79049e-07
4.00013e-07
3.91583e-07
1.2041e-06
3.91589e-07
1.20436e-06
5.78966e-07
5.79023e-07
4.00015e-07
3.91585e-07
1.20422e-06
3.91592e-07
1.20448e-06
5.78947e-07
1.47203e-06
7.562e-06
7.56158e-06
1.4719e-06
1.47182e-06
7.5623e-06
7.56187e-06
1.47174e-06
2.47584e-05
2.47577e-05
2.47597e-05
2.4759e-05
4.17339e-07
2.45637e-06
2.4569e-06
2.45631e-06
2.45683e-06
2.47604e-05
2.47583e-05
2.47617e-05
2.47596e-05
2.47573e-05
2.47638e-05
2.47598e-05
2.47664e-05
2.45637e-06
2.45695e-06
4.17176e-07
2.45669e-06
2.45726e-06
2.47691e-05
2.47679e-05
2.47715e-05
2.47704e-05
4.17314e-07
2.45698e-06
2.45754e-06
2.45718e-06
2.45775e-06
1.47214e-06
7.56099e-06
1.47208e-06
7.56291e-06
5.78974e-07
1.20439e-06
3.91583e-07
3.99998e-07
5.7904e-07
1.20423e-06
3.91566e-07
5.7897e-07
1.2045e-06
3.91583e-07
3.99999e-07
5.7904e-07
1.20432e-06
3.91565e-07
1.47266e-06
7.566e-06
7.56456e-06
1.47249e-06
1.47263e-06
7.56651e-06
7.56488e-06
1.47248e-06
5.79085e-07
3.99952e-07
1.20441e-06
3.9146e-07
1.20473e-06
3.91516e-07
5.78982e-07
5.79082e-07
3.99953e-07
1.20451e-06
3.91459e-07
1.20483e-06
3.91515e-07
5.7898e-07
2.45691e-06
2.45675e-06
4.17172e-07
2.4572e-06
2.45689e-06
2.47564e-05
2.47622e-05
2.47702e-05
2.47694e-05
4.17309e-07
2.45749e-06
2.45727e-06
2.45771e-06
2.45756e-06
2.47674e-05
2.47663e-05
5.78977e-07
1.20467e-06
3.91584e-07
3.99992e-07
5.79045e-07
1.20448e-06
3.91562e-07
1.47226e-06
7.56335e-06
1.47214e-06
7.56642e-06
5.78991e-07
3.91572e-07
1.20492e-06
3.99962e-07
5.79067e-07
3.91528e-07
1.2047e-06
1.47249e-06
7.56702e-06
7.56559e-06
1.47234e-06
5.79081e-07
3.99946e-07
1.20466e-06
3.91453e-07
1.20501e-06
3.91507e-07
5.7898e-07
1.47262e-06
7.56745e-06
7.5676e-06
1.47238e-06
5.79092e-07
3.99912e-07
3.91428e-07
1.20475e-06
3.91472e-07
1.20518e-06
5.78983e-07
1.47242e-06
7.56083e-06
1.47236e-06
7.56277e-06
5.78986e-07
3.91568e-07
1.20461e-06
3.99956e-07
5.79066e-07
3.9152e-07
1.20441e-06
1.47241e-06
7.56285e-06
1.47236e-06
7.56608e-06
5.79081e-07
3.99934e-07
1.20449e-06
3.9143e-07
1.20482e-06
3.91474e-07
5.78975e-07
1.47281e-06
7.56636e-06
7.56474e-06
1.47251e-06
5.79084e-07
3.99906e-07
3.91421e-07
1.20447e-06
3.91464e-07
1.20487e-06
5.7898e-07
1.47281e-06
7.56703e-06
7.56717e-06
1.47251e-06
2.45785e-06
2.45688e-06
4.17146e-07
2.45798e-06
2.45704e-06
2.47638e-05
2.477e-05
2.47714e-05
2.47722e-05
4.17276e-07
2.45788e-06
2.45698e-06
2.45839e-06
2.45736e-06
2.47704e-05
2.47709e-05
5.78984e-07
3.91567e-07
1.20473e-06
3.9995e-07
5.79064e-07
3.91518e-07
1.20453e-06
1.47244e-06
7.56298e-06
1.47239e-06
7.56624e-06
1.47228e-06
7.56329e-06
1.47219e-06
7.56656e-06
5.79109e-07
3.99898e-07
3.91421e-07
1.20446e-06
3.91461e-07
1.20486e-06
5.78997e-07
5.79082e-07
3.999e-07
3.9142e-07
1.20458e-06
3.91462e-07
1.20498e-06
5.78979e-07
1.47284e-06
7.56715e-06
7.56731e-06
1.47253e-06
1.47263e-06
7.56746e-06
7.56762e-06
1.47238e-06
2.47642e-05
2.47703e-05
2.47655e-05
2.47716e-05
4.17276e-07
2.45701e-06
2.45752e-06
2.45739e-06
2.4579e-06
2.47706e-05
2.47711e-05
2.47719e-05
2.47724e-05
2.47694e-05
2.47688e-05
2.47718e-05
2.47712e-05
2.45723e-06
2.45779e-06
4.17047e-07
2.45688e-06
2.45745e-06
2.47686e-05
2.47691e-05
2.47711e-05
2.47715e-05
4.17191e-07
2.45686e-06
2.45742e-06
2.45716e-06
2.45772e-06
1.47249e-06
7.56659e-06
1.47282e-06
7.56643e-06
5.78977e-07
1.20483e-06
3.9142e-07
3.99847e-07
5.79081e-07
1.20441e-06
3.91398e-07
5.78975e-07
1.20494e-06
3.9142e-07
3.99849e-07
5.7908e-07
1.20451e-06
3.91398e-07
1.47281e-06
7.56581e-06
7.56595e-06
1.47248e-06
1.47281e-06
7.56638e-06
7.56651e-06
1.47248e-06
5.79077e-07
3.99835e-07
1.2044e-06
3.91383e-07
1.20481e-06
3.91385e-07
5.78974e-07
5.79076e-07
3.99836e-07
1.20451e-06
3.91383e-07
1.20493e-06
3.91385e-07
5.78972e-07
2.45775e-06
2.45763e-06
4.17042e-07
2.45739e-06
2.45711e-06
2.4768e-05
2.47672e-05
2.47699e-05
2.47704e-05
4.17186e-07
2.45737e-06
2.45707e-06
2.45768e-06
2.45747e-06
2.47671e-05
2.47677e-05
5.78977e-07
1.2051e-06
3.91416e-07
3.99841e-07
5.79079e-07
1.20465e-06
3.91397e-07
1.47236e-06
7.56754e-06
1.47265e-06
7.56732e-06
5.78979e-07
3.91402e-07
1.20519e-06
3.99845e-07
5.79082e-07
3.91391e-07
1.20474e-06
1.47262e-06
7.56683e-06
7.56699e-06
1.47234e-06
5.79077e-07
3.99829e-07
1.20465e-06
3.91383e-07
1.20509e-06
3.91385e-07
5.78973e-07
1.47264e-06
7.56728e-06
7.56744e-06
1.47236e-06
5.79078e-07
3.9984e-07
3.91384e-07
1.20473e-06
3.91384e-07
1.20518e-06
5.78974e-07
1.4725e-06
7.56649e-06
1.47283e-06
7.56627e-06
5.78977e-07
3.91398e-07
1.20488e-06
3.99839e-07
5.79078e-07
3.91388e-07
1.20446e-06
1.4725e-06
7.56709e-06
1.47283e-06
7.56694e-06
5.79071e-07
3.99826e-07
1.20449e-06
3.91383e-07
1.20493e-06
3.91384e-07
5.78971e-07
1.47282e-06
7.56621e-06
7.56638e-06
1.47249e-06
5.79075e-07
3.99834e-07
3.91383e-07
1.20446e-06
3.91383e-07
1.20487e-06
5.78975e-07
1.47282e-06
7.56689e-06
7.56702e-06
1.47249e-06
2.45822e-06
2.45725e-06
4.17042e-07
2.4578e-06
2.45694e-06
2.47707e-05
2.47702e-05
2.47711e-05
2.47717e-05
4.17191e-07
2.45779e-06
2.45693e-06
2.45817e-06
2.45722e-06
2.47701e-05
2.47705e-05
5.78976e-07
3.91398e-07
1.20499e-06
3.99833e-07
5.79077e-07
3.91389e-07
1.20457e-06
1.47252e-06
7.56722e-06
1.47286e-06
7.56707e-06
1.47237e-06
7.56752e-06
1.47265e-06
7.56736e-06
5.79101e-07
3.99829e-07
3.91383e-07
1.20445e-06
3.91385e-07
1.20486e-06
5.7899e-07
5.79074e-07
3.99828e-07
3.91384e-07
1.20457e-06
3.91384e-07
1.20499e-06
5.78972e-07
1.47284e-06
7.56703e-06
7.56715e-06
1.4725e-06
1.47264e-06
7.56732e-06
7.56744e-06
1.47236e-06
2.47709e-05
2.47704e-05
2.47722e-05
2.47717e-05
4.17188e-07
2.45695e-06
2.45746e-06
2.45725e-06
2.45775e-06
2.47703e-05
2.47708e-05
2.47716e-05
2.47721e-05
2.4769e-05
2.47686e-05
2.47714e-05
2.4771e-05
2.45713e-06
2.45771e-06
4.17048e-07
2.45685e-06
2.45742e-06
2.47686e-05
2.4769e-05
2.4771e-05
2.47714e-05
4.172e-07
2.45685e-06
2.45742e-06
2.45713e-06
2.45771e-06
1.47248e-06
7.56648e-06
1.4728e-06
7.56637e-06
5.78972e-07
1.20481e-06
3.91385e-07
3.99835e-07
5.79074e-07
1.2044e-06
3.91385e-07
5.7897e-07
1.20493e-06
3.91386e-07
3.99837e-07
5.79072e-07
1.20451e-06
3.91386e-07
1.4728e-06
7.56578e-06
7.56588e-06
1.47248e-06
1.4728e-06
7.56636e-06
7.56647e-06
1.47248e-06
5.79073e-07
3.99834e-07
1.2044e-06
3.91383e-07
1.20481e-06
3.91384e-07
5.78976e-07
5.79072e-07
3.99835e-07
1.20451e-06
3.91383e-07
1.20493e-06
3.91384e-07
5.78974e-07
2.45766e-06
2.45744e-06
4.17043e-07
2.45737e-06
2.45708e-06
2.47676e-05
2.4767e-05
2.47699e-05
2.47704e-05
4.17196e-07
2.45736e-06
2.45708e-06
2.45767e-06
2.45746e-06
2.47671e-05
2.47676e-05
5.78973e-07
1.20509e-06
3.91386e-07
3.9983e-07
5.79072e-07
1.20465e-06
3.91386e-07
1.47236e-06
7.5674e-06
1.47264e-06
7.56727e-06
5.78975e-07
3.91388e-07
1.20518e-06
3.99843e-07
5.79073e-07
3.91388e-07
1.20473e-06
1.47261e-06
7.5668e-06
7.56692e-06
1.47234e-06
5.79073e-07
3.99828e-07
1.20465e-06
3.91383e-07
1.20509e-06
3.91384e-07
5.78976e-07
1.47263e-06
7.56726e-06
7.56739e-06
1.47236e-06
5.79075e-07
3.99841e-07
3.91384e-07
1.20473e-06
3.91386e-07
1.20518e-06
5.78977e-07
1.47249e-06
7.56632e-06
1.47282e-06
7.56618e-06
5.78976e-07
3.91387e-07
1.20487e-06
3.99837e-07
5.79073e-07
3.91387e-07
1.20446e-06
1.47249e-06
7.56698e-06
1.47282e-06
7.56688e-06
5.79071e-07
3.99826e-07
1.20449e-06
3.91382e-07
1.20492e-06
3.91385e-07
5.78973e-07
1.47282e-06
7.56618e-06
7.56631e-06
1.4725e-06
5.79075e-07
3.99835e-07
3.91383e-07
1.20446e-06
3.91384e-07
1.20487e-06
5.78977e-07
1.47282e-06
7.56688e-06
7.56698e-06
1.4725e-06
2.45816e-06
2.45721e-06
4.17056e-07
2.45779e-06
2.45693e-06
2.47705e-05
2.47701e-05
2.4771e-05
2.47717e-05
4.17206e-07
2.45779e-06
2.45693e-06
2.45816e-06
2.45721e-06
2.477e-05
2.47704e-05
5.78972e-07
3.91388e-07
1.20498e-06
3.99831e-07
5.7907e-07
3.91388e-07
1.20456e-06
1.4725e-06
7.56713e-06
1.47282e-06
7.56702e-06
1.47235e-06
7.56741e-06
1.47263e-06
7.56731e-06
5.79097e-07
3.99831e-07
3.91383e-07
1.20445e-06
3.91385e-07
1.20486e-06
5.78993e-07
5.79071e-07
3.99829e-07
3.91383e-07
1.20456e-06
3.91385e-07
1.20498e-06
5.78973e-07
1.47283e-06
7.56701e-06
7.56711e-06
1.4725e-06
1.47261e-06
7.5673e-06
7.56741e-06
1.47234e-06
2.47707e-05
2.47703e-05
2.4772e-05
2.47716e-05
4.17203e-07
2.45695e-06
2.45746e-06
2.45724e-06
2.45774e-06
2.47703e-05
2.47707e-05
2.47716e-05
2.4772e-05
2.47689e-05
2.47686e-05
2.47714e-05
2.4771e-05
2.45713e-06
2.4577e-06
4.17044e-07
2.45685e-06
2.45742e-06
2.47686e-05
2.4769e-05
2.4771e-05
2.47714e-05
4.17194e-07
2.45685e-06
2.45742e-06
2.45713e-06
2.4577e-06
1.47248e-06
7.56646e-06
1.4728e-06
7.56637e-06
5.78974e-07
1.20481e-06
3.91385e-07
3.99835e-07
5.79077e-07
1.2044e-06
3.91385e-07
5.78971e-07
1.20492e-06
3.91385e-07
3.99837e-07
5.79075e-07
1.20451e-06
3.91385e-07
1.4728e-06
7.56578e-06
7.56588e-06
1.47248e-06
1.4728e-06
7.56636e-06
7.56646e-06
1.47248e-06
5.79074e-07
3.99833e-07
1.2044e-06
3.91383e-07
1.20481e-06
3.91383e-07
5.78974e-07
5.79072e-07
3.99835e-07
1.20451e-06
3.91383e-07
1.20493e-06
3.91383e-07
5.78973e-07
2.45766e-06
2.45746e-06
4.17039e-07
2.45736e-06
2.45708e-06
2.47676e-05
2.47671e-05
2.47699e-05
2.47704e-05
4.1719e-07
2.45736e-06
2.45708e-06
2.45767e-06
2.45745e-06
2.47671e-05
2.47676e-05
5.78973e-07
1.20509e-06
3.91385e-07
3.9983e-07
5.79075e-07
1.20465e-06
3.91385e-07
1.47235e-06
7.56739e-06
1.47263e-06
7.56727e-06
5.78974e-07
3.91387e-07
1.20517e-06
3.99842e-07
5.79076e-07
3.91387e-07
1.20473e-06
1.47261e-06
7.5668e-06
7.56691e-06
1.47234e-06
5.79073e-07
3.99827e-07
1.20465e-06
3.91383e-07
1.20509e-06
3.91383e-07
5.78975e-07
1.47263e-06
7.56727e-06
7.56739e-06
1.47236e-06
5.79074e-07
3.9984e-07
3.91384e-07
1.20473e-06
3.91385e-07
1.20518e-06
5.78976e-07
1.4725e-06
7.5663e-06
1.47282e-06
7.56618e-06
5.78975e-07
3.91385e-07
1.20487e-06
3.99836e-07
5.79075e-07
3.91385e-07
1.20446e-06
1.4725e-06
7.56697e-06
1.47282e-06
7.56688e-06
5.7907e-07
3.99825e-07
1.20449e-06
3.91382e-07
1.20492e-06
3.91384e-07
5.78973e-07
1.47282e-06
7.56618e-06
7.5663e-06
1.4725e-06
5.79074e-07
3.99834e-07
3.91383e-07
1.20446e-06
3.91383e-07
1.20487e-06
5.78977e-07
1.47282e-06
7.56688e-06
7.56697e-06
1.4725e-06
2.45816e-06
2.45721e-06
4.17051e-07
2.45779e-06
2.45693e-06
2.47704e-05
2.477e-05
2.4771e-05
2.47716e-05
4.17201e-07
2.45779e-06
2.45693e-06
2.45816e-06
2.45721e-06
2.477e-05
2.47704e-05
5.7897e-07
3.91386e-07
1.20498e-06
3.9983e-07
5.79071e-07
3.91386e-07
1.20456e-06
1.47251e-06
7.56711e-06
1.47283e-06