/*--------------------------------*- C++ -*----------------------------------*\
| =========                 |                                                 |
| \\      /  F ield         | OpenFOAM: The Open Source CFD Toolbox           |
|  \\    /   O peration     | Version:  2206                                  |
|   \\  /    A nd           | Website:  www.openfoam.com                      |
|    \\/     M anipulation  |                                                 |
\*---------------------------------------------------------------------------*/
FoamFile
{
    version     2.0;
    format      ascii;
    arch        "LSB;label=32;scalar=64";
    class       volScalarField;
    location    "14.5";
    object      k;
}
// * * * * * * * * * * * * * * * * * * * * * * * * * * * * * * * * * * * * * //

dimensions      [0 2 -2 0 0 0 0];

internalField   nonuniform List<scalar> 
28897
(
3.09786e-05
3.08462e-05
3.08458e-05
3.06528e-05
3.09785e-05
3.08462e-05
3.08457e-05
3.06529e-05
3.09779e-05
3.08457e-05
3.08451e-05
3.06523e-05
3.09703e-05
3.08379e-05
3.08368e-05
3.0643e-05
3.09689e-05
3.08356e-05
3.08355e-05
3.06418e-05
3.09689e-05
3.08356e-05
3.08356e-05
3.06418e-05
3.09689e-05
3.08356e-05
3.08356e-05
3.06418e-05
3.09689e-05
3.08356e-05
3.08356e-05
3.06418e-05
3.09689e-05
3.08356e-05
3.08356e-05
3.06418e-05
3.09689e-05
3.08356e-05
3.08356e-05
3.06418e-05
3.09689e-05
3.08356e-05
3.08356e-05
3.06418e-05
3.09689e-05
3.08356e-05
3.08356e-05
3.06418e-05
3.09689e-05
3.08356e-05
3.08356e-05
3.06418e-05
3.09689e-05
3.08356e-05
3.08356e-05
3.06418e-05
3.09689e-05
3.08356e-05
3.08356e-05
3.06418e-05
3.09689e-05
3.08356e-05
3.08356e-05
3.06418e-05
3.09689e-05
3.08356e-05
3.08356e-05
3.06418e-05
3.09691e-05
3.08358e-05
3.08357e-05
3.06418e-05
3.06542e-05
3.08457e-05
3.08458e-05
3.06547e-05
3.08458e-05
3.08457e-05
3.08462e-05
3.08458e-05
3.06542e-05
3.08458e-05
3.08458e-05
3.06543e-05
3.0653e-05
3.06544e-05
3.0846e-05
3.0846e-05
3.08459e-05
3.0846e-05
3.06535e-05
3.06548e-05
3.08461e-05
3.08459e-05
3.0846e-05
3.08458e-05
3.0846e-05
3.08463e-05
3.0846e-05
3.06529e-05
3.06542e-05
3.08461e-05
3.08457e-05
3.0846e-05
3.06544e-05
3.06532e-05
3.06541e-05
3.08458e-05
3.08461e-05
3.08455e-05
3.08457e-05
3.06536e-05
3.06544e-05
3.0846e-05
3.08458e-05
3.08456e-05
3.08455e-05
3.0846e-05
3.0846e-05
3.08457e-05
3.0653e-05
3.06538e-05
3.0846e-05
3.08454e-05
3.08457e-05
3.06542e-05
3.06526e-05
3.06459e-05
3.08452e-05
3.08454e-05
3.08385e-05
3.08392e-05
3.06531e-05
3.06482e-05
3.08453e-05
3.08451e-05
3.08386e-05
3.08384e-05
3.08453e-05
3.08404e-05
3.08389e-05
3.06524e-05
3.06458e-05
3.08453e-05
3.08386e-05
3.08387e-05
3.06462e-05
3.06432e-05
3.06433e-05
3.08368e-05
3.08372e-05
3.08354e-05
3.08354e-05
3.06448e-05
3.06432e-05
3.08369e-05
3.08367e-05
3.08355e-05
3.08353e-05
3.0837e-05
3.08356e-05
3.08355e-05
3.0643e-05
3.06432e-05
3.08369e-05
3.08355e-05
3.08355e-05
3.06433e-05
3.06421e-05
3.06433e-05
3.08356e-05
3.08356e-05
3.08355e-05
3.08355e-05
3.06421e-05
3.06433e-05
3.08357e-05
3.08355e-05
3.08356e-05
3.08354e-05
3.08356e-05
3.08356e-05
3.08355e-05
3.0642e-05
3.06432e-05
3.08357e-05
3.08356e-05
3.08356e-05
3.06433e-05
3.06421e-05
3.06433e-05
3.08356e-05
3.08356e-05
3.08355e-05
3.08355e-05
3.06421e-05
3.06433e-05
3.08357e-05
3.08355e-05
3.08356e-05
3.08354e-05
3.08356e-05
3.08356e-05
3.08355e-05
3.0642e-05
3.06432e-05
3.08357e-05
3.08356e-05
3.08356e-05
3.06433e-05
3.06421e-05
3.06434e-05
3.08356e-05
3.08356e-05
3.08355e-05
3.08355e-05
3.06421e-05
3.06433e-05
3.08357e-05
3.08355e-05
3.08356e-05
3.08354e-05
3.08356e-05
3.08356e-05
3.08355e-05
3.0642e-05
3.06433e-05
3.08357e-05
3.08356e-05
3.08356e-05
3.06433e-05
3.06421e-05
3.06434e-05
3.08356e-05
3.08356e-05
3.08355e-05
3.08355e-05
3.06421e-05
3.06433e-05
3.08357e-05
3.08355e-05
3.08356e-05
3.08354e-05
3.08356e-05
3.08356e-05
3.08355e-05
3.0642e-05
3.06432e-05
3.08357e-05
3.08356e-05
3.08356e-05
3.06433e-05
3.06421e-05
3.06434e-05
3.08356e-05
3.08356e-05
3.08355e-05
3.08355e-05
3.06421e-05
3.06433e-05
3.08357e-05
3.08355e-05
3.08356e-05
3.08354e-05
3.08356e-05
3.08356e-05
3.08355e-05
3.0642e-05
3.06432e-05
3.08357e-05
3.08356e-05
3.08356e-05
3.06433e-05
3.06421e-05
3.06433e-05
3.08356e-05
3.08356e-05
3.08355e-05
3.08355e-05
3.06421e-05
3.06433e-05
3.08357e-05
3.08355e-05
3.08356e-05
3.08354e-05
3.08356e-05
3.08356e-05
3.08355e-05
3.0642e-05
3.06432e-05
3.08357e-05
3.08356e-05
3.08356e-05
3.06433e-05
3.06421e-05
3.06433e-05
3.08356e-05
3.08356e-05
3.08355e-05
3.08355e-05
3.06421e-05
3.06433e-05
3.08357e-05
3.08355e-05
3.08356e-05
3.08354e-05
3.08356e-05
3.08356e-05
3.08355e-05
3.0642e-05
3.06432e-05
3.08357e-05
3.08356e-05
3.08356e-05
3.06433e-05
3.06421e-05
3.06434e-05
3.08356e-05
3.08356e-05
3.08355e-05
3.08355e-05
3.06421e-05
3.06433e-05
3.08357e-05
3.08355e-05
3.08356e-05
3.08354e-05
3.08356e-05
3.08356e-05
3.08355e-05
3.0642e-05
3.06432e-05
3.08357e-05
3.08356e-05
3.08356e-05
3.06433e-05
3.06421e-05
3.06434e-05
3.08356e-05
3.08356e-05
3.08355e-05
3.08355e-05
3.06421e-05
3.06433e-05
3.08357e-05
3.08355e-05
3.08356e-05
3.08354e-05
3.08356e-05
3.08356e-05
3.08355e-05
3.0642e-05
3.06432e-05
3.08357e-05
3.08356e-05
3.08356e-05
3.06433e-05
3.06422e-05
3.06434e-05
3.08356e-05
3.08356e-05
3.08355e-05
3.08355e-05
3.06421e-05
3.06433e-05
3.08357e-05
3.08355e-05
3.08356e-05
3.08354e-05
3.08356e-05
3.08356e-05
3.08355e-05
3.0642e-05
3.06432e-05
3.08357e-05
3.08356e-05
3.08356e-05
3.06433e-05
3.06422e-05
3.06434e-05
3.08356e-05
3.08356e-05
3.08355e-05
3.08355e-05
3.06421e-05
3.06433e-05
3.08357e-05
3.08355e-05
3.08356e-05
3.08354e-05
3.08356e-05
3.08356e-05
3.08355e-05
3.0642e-05
3.06432e-05
3.08357e-05
3.08356e-05
3.08356e-05
3.06433e-05
3.06422e-05
3.06434e-05
3.08356e-05
3.08356e-05
3.08355e-05
3.08355e-05
3.06421e-05
3.06433e-05
3.08357e-05
3.08355e-05
3.08356e-05
3.08354e-05
3.08356e-05
3.08356e-05
3.08355e-05
3.0642e-05
3.06432e-05
3.08357e-05
3.08356e-05
3.08356e-05
3.06433e-05
3.06422e-05
3.06434e-05
3.08356e-05
3.08356e-05
3.08355e-05
3.08355e-05
3.06421e-05
3.06433e-05
3.08357e-05
3.08355e-05
3.08356e-05
3.08354e-05
3.08356e-05
3.08356e-05
3.08355e-05
3.0642e-05
3.06432e-05
3.08357e-05
3.08356e-05
3.08356e-05
3.06433e-05
3.06422e-05
3.08357e-05
3.08357e-05
3.06421e-05
3.08358e-05
3.08356e-05
3.08357e-05
3.0642e-05
3.08358e-05
3.09786e-05
3.09787e-05
3.09786e-05
3.09786e-05
3.17331e-05
6.43918e-05
3.17333e-05
6.43888e-05
8.49691e-05
8.49613e-05
3.17337e-05
6.43966e-05
3.17337e-05
6.43937e-05
3.09789e-05
3.09788e-05
3.09788e-05
3.09786e-05
3.09788e-05
3.09787e-05
3.09788e-05
3.01519e-05
3.14301e-05
3.0936e-05
3.08464e-05
3.01514e-05
3.14284e-05
3.09362e-05
8.49634e-05
8.49568e-05
3.01515e-05
3.09359e-05
3.14293e-05
3.08458e-05
3.01511e-05
3.0936e-05
3.14279e-05
3.34132e-05
3.3414e-05
3.06544e-05
3.34152e-05
3.34156e-05
3.17348e-05
6.43897e-05
3.17355e-05
6.43873e-05
8.49574e-05
8.49547e-05
3.17354e-05
6.43945e-05
3.17359e-05
6.43922e-05
3.09788e-05
3.09787e-05
3.09787e-05
3.09782e-05
3.09784e-05
3.09783e-05
3.09784e-05
3.01524e-05
3.14312e-05
3.09361e-05
3.08462e-05
3.0152e-05
3.14301e-05
3.0936e-05
8.49547e-05
8.49522e-05
3.01522e-05
3.09358e-05
3.14309e-05
3.08456e-05
3.01517e-05
3.09358e-05
3.14299e-05
3.34195e-05
3.34197e-05
3.06545e-05
3.34201e-05
3.34202e-05
3.17328e-05
6.43911e-05
3.17354e-05
6.43966e-05
8.49563e-05
8.49605e-05
3.17333e-05
6.43958e-05
3.17357e-05
6.44015e-05
3.09781e-05
3.0978e-05
3.0978e-05
3.09721e-05
3.09725e-05
3.09721e-05
3.09721e-05
3.01507e-05
3.14323e-05
3.09354e-05
3.08452e-05
3.01516e-05
3.14295e-05
3.09346e-05
8.49577e-05
8.49653e-05
3.01501e-05
3.09352e-05
3.14315e-05
3.08442e-05
3.01516e-05
3.09343e-05
3.14281e-05
3.34213e-05
3.34208e-05
3.06522e-05
3.34193e-05
3.34186e-05
3.17232e-05
6.44172e-05
3.1727e-05
6.44147e-05
8.49774e-05
8.49761e-05
3.17239e-05
6.44218e-05
3.17269e-05
6.44195e-05
3.09707e-05
3.09704e-05
3.09704e-05
3.09689e-05
3.0969e-05
3.09689e-05
3.09689e-05
3.01393e-05
3.14261e-05
3.09277e-05
3.08366e-05
3.01409e-05
3.14202e-05
3.09268e-05
8.49762e-05
8.4974e-05
3.01393e-05
3.09273e-05
3.14231e-05
3.0836e-05
3.01398e-05
3.09266e-05
3.14191e-05
3.34127e-05
3.341e-05
3.06435e-05
3.3406e-05
3.34059e-05
3.17227e-05
6.44162e-05
3.17239e-05
6.4414e-05
8.49769e-05
8.49757e-05
3.17234e-05
6.44209e-05
3.17244e-05
6.44188e-05
3.09691e-05
3.09691e-05
3.09691e-05
3.09689e-05
3.0969e-05
3.0969e-05
3.0969e-05
3.01391e-05
3.14202e-05
3.09261e-05
3.08357e-05
3.01389e-05
3.14181e-05
3.09262e-05
8.49753e-05
8.49735e-05
3.01393e-05
3.0926e-05
3.14201e-05
3.08357e-05
3.01391e-05
3.09262e-05
3.14183e-05
3.34061e-05
3.34063e-05
3.06434e-05
3.34052e-05
3.34054e-05
3.17227e-05
6.4416e-05
3.17239e-05
6.44139e-05
8.49769e-05
8.49756e-05
3.17234e-05
6.44207e-05
3.17244e-05
6.44187e-05
3.09691e-05
3.09691e-05
3.09691e-05
3.09689e-05
3.0969e-05
3.0969e-05
3.0969e-05
3.01391e-05
3.142e-05
3.0926e-05
3.08357e-05
3.01389e-05
3.14181e-05
3.09262e-05
8.49752e-05
8.49735e-05
3.01393e-05
3.0926e-05
3.142e-05
3.08357e-05
3.01391e-05
3.09262e-05
3.14183e-05
3.34061e-05
3.34063e-05
3.06434e-05
3.34052e-05
3.34054e-05
3.17227e-05
6.4416e-05
3.17239e-05
6.44139e-05
8.49769e-05
8.49756e-05
3.17234e-05
6.44207e-05
3.17244e-05
6.44187e-05
3.09691e-05
3.09691e-05
3.09691e-05
3.09689e-05
3.0969e-05
3.0969e-05
3.0969e-05
3.01391e-05
3.142e-05
3.0926e-05
3.08357e-05
3.01389e-05
3.14181e-05
3.09262e-05
8.49752e-05
8.49735e-05
3.01393e-05
3.0926e-05
3.142e-05
3.08357e-05
3.01391e-05
3.09262e-05
3.14183e-05
3.34061e-05
3.34063e-05
3.06434e-05
3.34052e-05
3.34054e-05
3.17227e-05
6.4416e-05
3.17239e-05
6.44139e-05
8.49769e-05
8.49756e-05
3.17234e-05
6.44207e-05
3.17244e-05
6.44187e-05
3.09691e-05
3.09691e-05
3.09691e-05
3.09689e-05
3.0969e-05
3.0969e-05
3.0969e-05
3.01391e-05
3.142e-05
3.0926e-05
3.08357e-05
3.01389e-05
3.14181e-05
3.09262e-05
8.49752e-05
8.49735e-05
3.01393e-05
3.0926e-05
3.142e-05
3.08357e-05
3.01391e-05
3.09262e-05
3.14183e-05
3.34061e-05
3.34063e-05
3.06434e-05
3.34052e-05
3.34054e-05
3.17227e-05
6.4416e-05
3.17239e-05
6.44139e-05
8.49768e-05
8.49756e-05
3.17234e-05
6.44207e-05
3.17244e-05
6.44187e-05
3.09691e-05
3.09691e-05
3.09691e-05
3.09689e-05
3.0969e-05
3.0969e-05
3.0969e-05
3.01391e-05
3.142e-05
3.0926e-05
3.08357e-05
3.01389e-05
3.14181e-05
3.09262e-05
8.49752e-05
8.49735e-05
3.01393e-05
3.0926e-05
3.142e-05
3.08357e-05
3.01391e-05
3.09262e-05
3.14183e-05
3.34061e-05
3.34063e-05
3.06434e-05
3.34052e-05
3.34054e-05
3.17227e-05
6.4416e-05
3.17239e-05
6.44139e-05
8.49768e-05
8.49757e-05
3.17234e-05
6.44207e-05
3.17244e-05
6.44187e-05
3.09691e-05
3.09691e-05
3.09691e-05
3.09689e-05
3.0969e-05
3.0969e-05
3.0969e-05
3.01391e-05
3.142e-05
3.0926e-05
3.08357e-05
3.01389e-05
3.14181e-05
3.09262e-05
8.49752e-05
8.49735e-05
3.01393e-05
3.0926e-05
3.142e-05
3.08357e-05
3.01391e-05
3.09262e-05
3.14183e-05
3.34061e-05
3.34063e-05
3.06434e-05
3.34052e-05
3.34054e-05
3.17227e-05
6.44164e-05
3.17239e-05
6.44147e-05
8.49773e-05
8.4976e-05
3.17234e-05
6.44204e-05
3.17244e-05
6.44179e-05
3.09691e-05
3.09691e-05
3.09691e-05
3.09689e-05
3.0969e-05
3.0969e-05
3.0969e-05
3.01391e-05
3.142e-05
3.0926e-05
3.08357e-05
3.01389e-05
3.14181e-05
3.09262e-05
8.49752e-05
8.49735e-05
3.01393e-05
3.0926e-05
3.142e-05
3.08357e-05
3.01391e-05
3.09262e-05
3.14183e-05
3.34061e-05
3.34063e-05
3.06434e-05
3.34052e-05
3.34054e-05
3.17227e-05
6.44168e-05
3.17239e-05
6.4415e-05
8.49772e-05
8.49763e-05
3.17234e-05
6.44197e-05
3.17244e-05
6.44177e-05
3.09691e-05
3.09691e-05
3.09691e-05
3.09689e-05
3.0969e-05
3.0969e-05
3.0969e-05
3.01391e-05
3.142e-05
3.0926e-05
3.08357e-05
3.01389e-05
3.14181e-05
3.09262e-05
8.49752e-05
8.49735e-05
3.01393e-05
3.0926e-05
3.142e-05
3.08357e-05
3.01391e-05
3.09262e-05
3.14183e-05
3.34061e-05
3.34063e-05
3.06434e-05
3.34052e-05
3.34054e-05
3.17227e-05
6.4417e-05
3.17239e-05
6.44152e-05
8.49775e-05
8.49763e-05
3.17234e-05
6.44195e-05
3.17244e-05
6.44176e-05
3.09691e-05
3.09691e-05
3.09691e-05
3.09689e-05
3.0969e-05
3.0969e-05
3.0969e-05
3.01391e-05
3.142e-05
3.0926e-05
3.08357e-05
3.01389e-05
3.14181e-05
3.09262e-05
8.49752e-05
8.49735e-05
3.01393e-05
3.0926e-05
3.142e-05
3.08357e-05
3.01391e-05
3.09262e-05
3.14183e-05
3.34061e-05
3.34063e-05
3.06434e-05
3.34052e-05
3.34054e-05
3.17227e-05
6.44171e-05
3.17239e-05
6.44152e-05
8.49774e-05
8.49762e-05
3.17234e-05
6.44196e-05
3.17244e-05
6.44177e-05
3.09691e-05
3.09691e-05
3.09691e-05
3.09689e-05
3.0969e-05
3.0969e-05
3.0969e-05
3.01391e-05
3.142e-05
3.0926e-05
3.08357e-05
3.01389e-05
3.14181e-05
3.09262e-05
8.49752e-05
8.49735e-05
3.01393e-05
3.0926e-05
3.14201e-05
3.08357e-05
3.01391e-05
3.09262e-05
3.14183e-05
3.34061e-05
3.34063e-05
3.06434e-05
3.34052e-05
3.34054e-05
3.17227e-05
6.44171e-05
3.17239e-05
6.44152e-05
8.49774e-05
8.49762e-05
3.17234e-05
6.44197e-05
3.17244e-05
6.44178e-05
3.09691e-05
3.09691e-05
3.09691e-05
3.09689e-05
3.0969e-05
3.0969e-05
3.0969e-05
3.01391e-05
3.142e-05
3.0926e-05
3.08357e-05
3.01389e-05
3.14181e-05
3.09262e-05
8.49752e-05
8.49735e-05
3.01393e-05
3.0926e-05
3.14201e-05
3.08357e-05
3.01391e-05
3.09262e-05
3.14183e-05
3.34061e-05
3.34063e-05
3.06434e-05
3.34052e-05
3.34054e-05
3.17227e-05
6.44171e-05
3.17239e-05
6.44152e-05
8.49774e-05
8.49762e-05
3.17234e-05
6.44197e-05
3.17244e-05
6.44178e-05
3.09691e-05
3.09691e-05
3.09691e-05
3.09689e-05
3.0969e-05
3.0969e-05
3.0969e-05
3.01391e-05
3.142e-05
3.0926e-05
3.08357e-05
3.01389e-05
3.14181e-05
3.09262e-05
8.49752e-05
8.49735e-05
3.01393e-05
3.0926e-05
3.14201e-05
3.08357e-05
3.0139e-05
3.09262e-05
3.14183e-05
3.34061e-05
3.34063e-05
3.06434e-05
3.34052e-05
3.34054e-05
3.17227e-05
6.44171e-05
3.17239e-05
6.44152e-05
8.49774e-05
8.49762e-05
3.17234e-05
6.44197e-05
3.17244e-05
6.44178e-05
3.09691e-05
3.09691e-05
3.09691e-05
3.0969e-05
3.0969e-05
3.0969e-05
3.0969e-05
3.01391e-05
3.142e-05
3.09261e-05
3.08357e-05
3.01389e-05
3.14181e-05
3.09262e-05
8.49752e-05
8.49735e-05
3.01392e-05
3.0926e-05
3.14201e-05
3.08357e-05
3.01391e-05
3.09262e-05
3.14183e-05
3.34061e-05
3.34063e-05
3.06434e-05
3.34052e-05
3.34054e-05
6.44171e-05
3.17239e-05
8.49775e-05
6.44197e-05
3.17244e-05
3.09692e-05
3.09691e-05
3.09691e-05
3.142e-05
3.09262e-05
3.01389e-05
8.49752e-05
3.09262e-05
3.14201e-05
3.0139e-05
3.34061e-05
3.34063e-05
8.49619e-05
8.4973e-05
8.49666e-05
8.49766e-05
3.06523e-05
3.34091e-05
3.34122e-05
3.34075e-05
3.34102e-05
3.17323e-05
6.439e-05
6.43934e-05
3.17318e-05
3.17325e-05
6.43937e-05
6.43965e-05
3.1732e-05
3.01516e-05
3.08458e-05
3.14271e-05
3.09359e-05
3.1429e-05
3.0936e-05
3.01514e-05
3.01518e-05
3.08458e-05
3.14281e-05
3.09359e-05
3.143e-05
3.0936e-05
3.01516e-05
8.49702e-05
3.34103e-05
3.34066e-05
8.49669e-05
3.17328e-05
6.43949e-05
6.43982e-05
3.17324e-05
3.01519e-05
3.08459e-05
3.1428e-05
3.0936e-05
3.14298e-05
3.0936e-05
3.01517e-05
3.17324e-05
6.43932e-05
6.43966e-05
3.1732e-05
3.01518e-05
3.08457e-05
3.09359e-05
3.14276e-05
3.09359e-05
3.14293e-05
3.01516e-05
3.14281e-05
3.0936e-05
3.0936e-05
3.01515e-05
6.43914e-05
3.17318e-05
3.08458e-05
3.0936e-05
3.14268e-05
3.0936e-05
3.01516e-05
6.4392e-05
3.17317e-05
8.49631e-05
8.49742e-05
3.06522e-05
3.34096e-05
3.34118e-05
3.34077e-05
3.34098e-05
8.4966e-05
8.49762e-05
3.01517e-05
3.08458e-05
3.09359e-05
3.14275e-05
3.09359e-05
3.14293e-05
3.01512e-05
3.01518e-05
3.08459e-05
3.0936e-05
3.1428e-05
3.0936e-05
3.14297e-05
3.01516e-05
3.17324e-05
6.43943e-05
6.43973e-05
3.1732e-05
3.17326e-05
6.43953e-05
6.43984e-05
3.17322e-05
3.06524e-05
3.34109e-05
3.34122e-05
3.34102e-05
8.49674e-05
8.49667e-05
8.49769e-05
8.49621e-05
8.49557e-05
8.49662e-05
8.49605e-05
3.34118e-05
3.34141e-05
3.06543e-05
3.34128e-05
3.34155e-05
8.49524e-05
8.49564e-05
8.49572e-05
8.49607e-05
3.06531e-05
3.34156e-05
3.34182e-05
3.34152e-05
3.34173e-05
3.17333e-05
6.43942e-05
3.17339e-05
6.43925e-05
3.01518e-05
3.14295e-05
3.09362e-05
3.0846e-05
3.0152e-05
3.14275e-05
3.09362e-05
3.01519e-05
3.14303e-05
3.09362e-05
3.0846e-05
3.01521e-05
3.14285e-05
3.09362e-05
3.1735e-05
6.43877e-05
6.43895e-05
3.17342e-05
3.17352e-05
6.43914e-05
6.43931e-05
3.17344e-05
3.01524e-05
3.08459e-05
3.14286e-05
3.0936e-05
3.14301e-05
3.09361e-05
3.01521e-05
3.01525e-05
3.0846e-05
3.14296e-05
3.09361e-05
3.1431e-05
3.09361e-05
3.01523e-05
3.34125e-05
3.34096e-05
3.06548e-05
3.34144e-05
3.34109e-05
8.49665e-05
8.49577e-05
8.49568e-05
8.49612e-05
3.06535e-05
3.34176e-05
3.34142e-05
3.34162e-05
3.34134e-05
8.4953e-05
8.49583e-05
3.01521e-05
3.14302e-05
3.09362e-05
3.08461e-05
3.01522e-05
3.14284e-05
3.09362e-05
3.17333e-05
6.43939e-05
3.17337e-05
6.4392e-05
3.01519e-05
3.09361e-05
3.14301e-05
3.08459e-05
3.01521e-05
3.09361e-05
3.14281e-05
3.17354e-05
6.43926e-05
6.43943e-05
3.17348e-05
3.01526e-05
3.0846e-05
3.14294e-05
3.09361e-05
3.14308e-05
3.09361e-05
3.01524e-05
3.1735e-05
6.4391e-05
6.43927e-05
3.17344e-05
3.01525e-05
3.08459e-05
3.0936e-05
3.1429e-05
3.09361e-05
3.14306e-05
3.01523e-05
3.17334e-05
6.43925e-05
3.17338e-05
6.43907e-05
3.01521e-05
3.09362e-05
3.14294e-05
3.0846e-05
3.01521e-05
3.09362e-05
3.14283e-05
3.17333e-05
6.43926e-05
3.17337e-05
6.4391e-05
3.01524e-05
3.08464e-05
3.14291e-05
3.09361e-05
3.14308e-05
3.09362e-05
3.01521e-05
3.17353e-05
6.43896e-05
6.43914e-05
3.17346e-05
3.01526e-05
3.0846e-05
3.09361e-05
3.14294e-05
3.09362e-05
3.14308e-05
3.01524e-05
3.17352e-05
6.43903e-05
6.43916e-05
3.17345e-05
3.34121e-05
3.34138e-05
3.06542e-05
3.34132e-05
3.34152e-05
8.49657e-05
8.496e-05
8.49533e-05
8.49575e-05
3.0653e-05
3.3416e-05
3.34179e-05
3.34154e-05
3.3417e-05
8.49567e-05
8.49602e-05
3.01519e-05
3.09362e-05
3.14302e-05
3.08461e-05
3.01521e-05
3.09362e-05
3.14284e-05
3.17333e-05
6.43949e-05
3.17338e-05
6.43931e-05
3.17335e-05
6.43958e-05
3.17339e-05
6.43941e-05
3.0152e-05
3.08457e-05
3.09358e-05
3.1429e-05
3.09359e-05
3.14303e-05
3.01517e-05
3.01525e-05
3.0846e-05
3.09361e-05
3.14294e-05
3.09361e-05
3.14308e-05
3.01523e-05
3.1735e-05
6.4392e-05
6.43937e-05
3.17344e-05
3.17352e-05
6.4393e-05
6.43947e-05
3.17346e-05
8.49669e-05
8.49605e-05
8.49664e-05
8.49607e-05
3.06532e-05
3.34181e-05
3.34183e-05
3.3417e-05
3.34174e-05
8.49569e-05
8.49606e-05
8.49574e-05
8.49609e-05
8.49536e-05
8.49512e-05
8.49579e-05
8.4956e-05
3.34177e-05
3.34198e-05
3.06543e-05
3.34176e-05
3.34202e-05
8.49529e-05
8.49528e-05
8.49574e-05
8.4957e-05
3.06531e-05
3.34179e-05
3.34202e-05
3.34193e-05
3.34215e-05
3.1735e-05
6.4392e-05
3.17361e-05
6.43907e-05
3.01522e-05
3.14313e-05
3.0936e-05
3.08458e-05
3.01526e-05
3.14296e-05
3.09359e-05
3.01522e-05
3.14321e-05
3.0936e-05
3.0846e-05
3.01528e-05
3.14306e-05
3.0936e-05
3.17364e-05
6.43881e-05
6.43883e-05
3.17345e-05
3.17366e-05
6.43904e-05
6.43915e-05
3.17346e-05
3.01522e-05
3.08457e-05
3.14297e-05
3.09357e-05
3.14321e-05
3.09358e-05
3.01517e-05
3.01521e-05
3.08459e-05
3.14308e-05
3.09357e-05
3.14329e-05
3.09358e-05
3.01516e-05
3.34193e-05
3.34164e-05
3.06547e-05
3.342e-05
3.34166e-05
8.49538e-05
8.49508e-05
8.49543e-05
8.49555e-05
3.06534e-05
3.34209e-05
3.3418e-05
3.34214e-05
3.34185e-05
8.49504e-05
8.49522e-05
3.01525e-05
3.14318e-05
3.0936e-05
3.08459e-05
3.01529e-05
3.14303e-05
3.0936e-05
3.1735e-05
6.43918e-05
3.17359e-05
6.43905e-05
3.01523e-05
3.0936e-05
3.14316e-05
3.08457e-05
3.01528e-05
3.09359e-05
3.14299e-05
3.17368e-05
6.43929e-05
6.43931e-05
3.17351e-05
3.01525e-05
3.08458e-05
3.14304e-05
3.09357e-05
3.14326e-05
3.09358e-05
3.01519e-05
3.17364e-05
6.43911e-05
6.43915e-05
3.17347e-05
3.01521e-05
3.08456e-05
3.09356e-05
3.14299e-05
3.09358e-05
3.14323e-05
3.01515e-05
3.17352e-05
6.43904e-05
3.17363e-05
6.43887e-05
3.01525e-05
3.09361e-05
3.14318e-05
3.0846e-05
3.0153e-05
3.0936e-05
3.14302e-05
3.17351e-05
6.4391e-05
3.17362e-05
6.43901e-05
3.01528e-05
3.08461e-05
3.14305e-05
3.09357e-05
3.14326e-05
3.09358e-05
3.01518e-05
3.17369e-05
6.43883e-05
6.43896e-05
3.17352e-05
3.01523e-05
3.08458e-05
3.09357e-05
3.14302e-05
3.09359e-05
3.14324e-05
3.01517e-05
3.17367e-05
6.43905e-05
6.43909e-05
3.1735e-05
3.34178e-05
3.34195e-05
3.06541e-05
3.34179e-05
3.34199e-05
8.49575e-05
8.49554e-05
8.49542e-05
8.49539e-05
3.06528e-05
3.34178e-05
3.34199e-05
3.34193e-05
3.34211e-05
8.49568e-05
8.49565e-05
3.01527e-05
3.0936e-05
3.14318e-05
3.08459e-05
3.01529e-05
3.0936e-05
3.14303e-05
3.17351e-05
6.43926e-05
3.17359e-05
6.43914e-05
3.17353e-05
6.43936e-05
3.17361e-05
6.43924e-05
3.01526e-05
3.08456e-05
3.09355e-05
3.14299e-05
3.09357e-05
3.14321e-05
3.01519e-05
3.01526e-05
3.08458e-05
3.09357e-05
3.14304e-05
3.09358e-05
3.14326e-05
3.01518e-05
3.17365e-05
6.43919e-05
6.43922e-05
3.17348e-05
3.17367e-05
6.43929e-05
6.43932e-05
3.17349e-05
8.49575e-05
8.49553e-05
8.49582e-05
8.49561e-05
3.06533e-05
3.34207e-05
3.34202e-05
3.34215e-05
3.34215e-05
8.49554e-05
8.49562e-05
8.49575e-05
8.49572e-05
8.49561e-05
8.49637e-05
8.49596e-05
8.49686e-05
3.3419e-05
3.3421e-05
3.06519e-05
3.34161e-05
3.34186e-05
8.49733e-05
8.4971e-05
8.49777e-05
8.49753e-05
3.06488e-05
3.34091e-05
3.3411e-05
3.34169e-05
3.34189e-05
3.17329e-05
6.43914e-05
3.17359e-05
6.4396e-05
3.01499e-05
3.14319e-05
3.09353e-05
3.08441e-05
3.01515e-05
3.14281e-05
3.09343e-05
3.015e-05
3.14328e-05
3.09353e-05
3.08445e-05
3.01515e-05
3.14294e-05
3.09343e-05
3.17337e-05
6.44148e-05
6.44051e-05
3.1727e-05
3.17337e-05
6.4417e-05
6.44035e-05
3.17271e-05
3.01479e-05
3.08413e-05
3.14228e-05
3.09291e-05
3.14295e-05
3.09317e-05
3.0141e-05
3.0148e-05
3.08422e-05
3.14247e-05
3.09292e-05
3.14308e-05
3.09318e-05
3.0141e-05
3.34217e-05
3.34192e-05
3.06532e-05
3.34193e-05
3.34169e-05
8.49529e-05
8.49561e-05
8.49756e-05
8.49664e-05
3.06507e-05
3.34156e-05
3.34133e-05
3.34199e-05
3.34179e-05
8.49707e-05
8.49621e-05
3.01501e-05
3.14324e-05
3.09353e-05
3.08442e-05
3.01517e-05
3.14286e-05
3.09343e-05
3.17329e-05
6.43929e-05
3.17357e-05
6.43992e-05
3.01499e-05
3.09353e-05
3.14321e-05
3.0844e-05
3.01514e-05
3.09342e-05
3.14282e-05
3.17339e-05
6.44195e-05
6.44099e-05
3.17271e-05
3.0148e-05
3.08414e-05
3.14232e-05
3.09291e-05
3.14299e-05
3.09316e-05
3.0141e-05
3.17335e-05
6.44179e-05
6.44077e-05
3.17268e-05
3.01479e-05
3.08412e-05
3.0929e-05
3.1423e-05
3.09316e-05
3.14297e-05
3.01409e-05
3.17336e-05
6.43894e-05
3.17364e-05
6.43908e-05
3.01506e-05
3.09354e-05
3.14322e-05
3.08443e-05
3.01516e-05
3.09345e-05
3.14289e-05
3.17335e-05
6.43918e-05
3.17362e-05
6.43952e-05
3.01499e-05
3.08434e-05
3.14255e-05
3.09297e-05
3.14312e-05
3.09324e-05
3.0143e-05
3.17347e-05
6.44086e-05
6.43949e-05
3.17291e-05
3.01498e-05
3.08418e-05
3.09294e-05
3.14243e-05
3.09321e-05
3.14304e-05
3.01428e-05
3.17345e-05
6.44157e-05
6.44015e-05
3.17289e-05
3.34188e-05
3.34206e-05
3.06518e-05
3.34162e-05
3.34183e-05
8.49592e-05
8.49679e-05
8.49746e-05
8.49724e-05
3.06487e-05
3.3409e-05
3.34106e-05
3.34168e-05
3.34185e-05
8.49769e-05
8.49746e-05
3.01501e-05
3.09353e-05
3.14324e-05
3.08442e-05
3.01517e-05
3.09343e-05
3.14285e-05
3.1733e-05
6.43933e-05
3.17359e-05
6.43999e-05
3.17331e-05
6.43943e-05
3.1736e-05
6.44007e-05
3.01481e-05
3.08414e-05
3.09291e-05
3.14227e-05
3.09316e-05
3.14294e-05
3.01411e-05
3.0148e-05
3.08415e-05
3.09291e-05
3.14232e-05
3.09316e-05
3.14298e-05
3.0141e-05
3.17336e-05
6.44187e-05
6.44083e-05
3.17269e-05
3.17337e-05
6.44196e-05
6.4409e-05
3.17269e-05
8.49574e-05
8.49635e-05
8.49599e-05
8.49685e-05
3.06491e-05
3.34141e-05
3.34111e-05
3.34199e-05
3.34189e-05
8.4977e-05
8.49704e-05
8.49776e-05
8.49752e-05
8.49747e-05
8.49727e-05
8.49786e-05
8.49772e-05
3.34089e-05
3.341e-05
3.06434e-05
3.34025e-05
3.3406e-05
8.49724e-05
8.49742e-05
8.49769e-05
8.49781e-05
3.06421e-05
3.3402e-05
3.34056e-05
3.34035e-05
3.34068e-05
3.17234e-05
6.44195e-05
3.17273e-05
6.44181e-05
3.01392e-05
3.14238e-05
3.09274e-05
3.0836e-05
3.01401e-05
3.14189e-05
3.09266e-05
3.01393e-05
3.14255e-05
3.09275e-05
3.08362e-05
3.01402e-05
3.14204e-05
3.09266e-05
3.17246e-05
6.44142e-05
6.44155e-05
3.17227e-05
3.17248e-05
6.44175e-05
6.44187e-05
3.17229e-05
3.01395e-05
3.08355e-05
3.1418e-05
3.0926e-05
3.14209e-05
3.09261e-05
3.01392e-05
3.01397e-05
3.08355e-05
3.14191e-05
3.09261e-05
3.14221e-05
3.09261e-05
3.01393e-05
3.34146e-05
3.34135e-05
3.06437e-05
3.34062e-05
3.34044e-05
8.49741e-05
8.49727e-05
8.49757e-05
8.49771e-05
3.06421e-05
3.34051e-05
3.34017e-05
3.34067e-05
3.34048e-05
8.49722e-05
8.49741e-05
3.01395e-05
3.14241e-05
3.09274e-05
3.08361e-05
3.01403e-05
3.14197e-05
3.09266e-05
3.17235e-05
6.44194e-05
3.17267e-05
6.44179e-05
3.01393e-05
3.09274e-05
3.1424e-05
3.08359e-05
3.01401e-05
3.09266e-05
3.14191e-05
3.17251e-05
6.4419e-05
6.44202e-05
3.17234e-05
3.01398e-05
3.08356e-05
3.14188e-05
3.09261e-05
3.14215e-05
3.09261e-05
3.01395e-05
3.17247e-05
6.44174e-05
6.44187e-05
3.1723e-05
3.01397e-05
3.08354e-05
3.0926e-05
3.14183e-05
3.09261e-05
3.14211e-05
3.01393e-05
3.17237e-05
6.44161e-05
3.17291e-05
6.44166e-05
3.01392e-05
3.09276e-05
3.14249e-05
3.08361e-05
3.01411e-05
3.09267e-05
3.14197e-05
3.17236e-05
6.44195e-05
3.1729e-05
6.44183e-05
3.01395e-05
3.08359e-05
3.14185e-05
3.09261e-05
3.14219e-05
3.09262e-05
3.0139e-05
3.17249e-05
6.44161e-05
6.44175e-05
3.17229e-05
3.01395e-05
3.08355e-05
3.09261e-05
3.14184e-05
3.09261e-05
3.14213e-05
3.01392e-05
3.17248e-05
6.44179e-05
6.44189e-05
3.17228e-05
3.34085e-05
3.34095e-05
3.06432e-05
3.34029e-05
3.34055e-05
8.4978e-05
8.49765e-05
8.49736e-05
8.49755e-05
3.06419e-05
3.34025e-05
3.34051e-05
3.34039e-05
3.34064e-05
8.49762e-05
8.49775e-05
3.01394e-05
3.09274e-05
3.14241e-05
3.08361e-05
3.01402e-05
3.09266e-05
3.14196e-05
3.17236e-05
6.44197e-05
3.17268e-05
6.44186e-05
3.17237e-05
6.44208e-05
3.17269e-05
6.44197e-05
3.01396e-05
3.08357e-05
3.0926e-05
3.14184e-05
3.09262e-05
3.1421e-05
3.01391e-05
3.01398e-05
3.08356e-05
3.09261e-05
3.14188e-05
3.09261e-05
3.14215e-05
3.01395e-05
3.17247e-05
6.44182e-05
6.44193e-05
3.17231e-05
3.17249e-05
6.44193e-05
6.44203e-05
3.17232e-05
8.49783e-05
8.49768e-05
8.49787e-05
8.49772e-05
3.06422e-05
3.34053e-05
3.34055e-05
3.34067e-05
3.34067e-05
8.49764e-05
8.49778e-05
8.49769e-05
8.49783e-05
8.49739e-05
8.49723e-05
8.49778e-05
8.49768e-05
3.34034e-05
3.34066e-05
3.06434e-05
3.34022e-05
3.34055e-05
8.49723e-05
8.49739e-05
8.49767e-05
8.49778e-05
3.06421e-05
3.34021e-05
3.34055e-05
3.34035e-05
3.34066e-05
3.17229e-05
6.44183e-05
3.17244e-05
6.44173e-05
3.01392e-05
3.14203e-05
3.09262e-05
3.08356e-05
3.01395e-05
3.14178e-05
3.09262e-05
3.01393e-05
3.14212e-05
3.09262e-05
3.08356e-05
3.01396e-05
3.1419e-05
3.09262e-05
3.17242e-05
6.44139e-05
6.4415e-05
3.17227e-05
3.17244e-05
6.44173e-05
6.44181e-05
3.17229e-05
3.01395e-05
3.08355e-05
3.14178e-05
3.09261e-05
3.14202e-05
3.09261e-05
3.01392e-05
3.01397e-05
3.08355e-05
3.14189e-05
3.09261e-05
3.14211e-05
3.09261e-05
3.01393e-05
3.34061e-05
3.3403e-05
3.06434e-05
3.3405e-05
3.34017e-05
8.49737e-05
8.49721e-05
8.49756e-05
8.49768e-05
3.06422e-05
3.34051e-05
3.34017e-05
3.34061e-05
3.3403e-05
8.4972e-05
8.49736e-05
3.01395e-05
3.1421e-05
3.09262e-05
3.08357e-05
3.01398e-05
3.14187e-05
3.09262e-05
3.1723e-05
6.44183e-05
3.17244e-05
6.44172e-05
3.01393e-05
3.09262e-05
3.14206e-05
3.08355e-05
3.01396e-05
3.09262e-05
3.14181e-05
3.17248e-05
6.44188e-05
6.44197e-05
3.17234e-05
3.01398e-05
3.08356e-05
3.14187e-05
3.09261e-05
3.14209e-05
3.09261e-05
3.01395e-05
3.17243e-05
6.44172e-05
6.44182e-05
3.17229e-05
3.01396e-05
3.08355e-05
3.0926e-05
3.14181e-05
3.09261e-05
3.14205e-05
3.01393e-05
3.17228e-05
6.4417e-05
3.17244e-05
6.44158e-05
3.01392e-05
3.09262e-05
3.14205e-05
3.08356e-05
3.01395e-05
3.09262e-05
3.14182e-05
3.17227e-05
6.44186e-05
3.17243e-05
6.44177e-05
3.01395e-05
3.08357e-05
3.14181e-05
3.0926e-05
3.14204e-05
3.09262e-05
3.0139e-05
3.17243e-05
6.44157e-05
6.44168e-05
3.17228e-05
3.01395e-05
3.08356e-05
3.09261e-05
3.14182e-05
3.09261e-05
3.14204e-05
3.01392e-05
3.17242e-05
6.44176e-05
6.44185e-05
3.17226e-05
3.34038e-05
3.34062e-05
3.06433e-05
3.34025e-05
3.34051e-05
8.49773e-05
8.49761e-05
8.49735e-05
8.49751e-05
3.0642e-05
3.34025e-05
3.34051e-05
3.34038e-05
3.34061e-05
8.49761e-05
8.49772e-05
3.01394e-05
3.09262e-05
3.1421e-05
3.08357e-05
3.01397e-05
3.09262e-05
3.14187e-05
3.1723e-05
6.4419e-05
3.17244e-05
6.44181e-05
3.17232e-05
6.442e-05
3.17246e-05
6.44191e-05
3.01397e-05
3.08357e-05
3.0926e-05
3.14183e-05
3.09262e-05
3.14205e-05
3.01391e-05
3.01398e-05
3.08356e-05
3.09261e-05
3.14187e-05
3.09261e-05
3.14209e-05
3.01394e-05
3.17244e-05
6.4418e-05
6.44189e-05
3.1723e-05
3.17246e-05
6.44191e-05
6.44199e-05
3.17232e-05
8.49775e-05
8.49763e-05
8.4978e-05
8.49768e-05
3.06422e-05
3.34052e-05
3.34055e-05
3.34063e-05
3.34065e-05
8.49762e-05
8.49774e-05
8.49768e-05
8.4978e-05
8.49738e-05
8.49723e-05
8.49777e-05
8.49767e-05
3.34035e-05
3.34066e-05
3.06433e-05
3.34022e-05
3.34055e-05
8.49723e-05
8.49739e-05
8.49767e-05
8.49778e-05
3.06421e-05
3.34021e-05
3.34055e-05
3.34035e-05
3.34066e-05
3.17229e-05
6.44181e-05
3.17244e-05
6.44173e-05
3.01392e-05
3.14202e-05
3.09262e-05
3.08356e-05
3.01395e-05
3.14178e-05
3.09262e-05
3.01393e-05
3.14211e-05
3.09262e-05
3.08356e-05
3.01396e-05
3.14189e-05
3.09262e-05
3.17243e-05
6.44139e-05
6.44149e-05
3.17227e-05
3.17244e-05
6.44173e-05
6.44181e-05
3.17229e-05
3.01395e-05
3.08355e-05
3.14178e-05
3.09261e-05
3.14202e-05
3.09261e-05
3.01392e-05
3.01397e-05
3.08356e-05
3.14189e-05
3.09261e-05
3.14211e-05
3.09261e-05
3.01393e-05
3.34061e-05
3.3403e-05
3.06434e-05
3.34051e-05
3.34017e-05
8.49736e-05
8.4972e-05
8.49756e-05
8.49768e-05
3.06421e-05
3.34051e-05
3.34017e-05
3.34061e-05
3.3403e-05
8.4972e-05
8.49736e-05
3.01395e-05
3.14209e-05
3.09262e-05
3.08357e-05
3.01398e-05
3.14187e-05
3.09262e-05
3.1723e-05
6.44181e-05
3.17243e-05
6.44171e-05
3.01393e-05
3.09262e-05
3.14205e-05
3.08355e-05
3.01396e-05
3.09261e-05
3.14181e-05
3.17248e-05
6.44187e-05
6.44197e-05
3.17234e-05
3.01398e-05
3.08356e-05
3.14187e-05
3.09261e-05
3.14209e-05
3.09261e-05
3.01394e-05
3.17243e-05
6.44172e-05
6.44181e-05
3.17229e-05
3.01397e-05
3.08355e-05
3.0926e-05
3.14181e-05
3.09261e-05
3.14205e-05
3.01393e-05
3.17228e-05
6.44167e-05
3.17243e-05
6.44157e-05
3.01392e-05
3.09262e-05
3.14204e-05
3.08356e-05
3.01395e-05
3.09262e-05
3.14182e-05
3.17227e-05
6.44184e-05
3.17242e-05
6.44176e-05
3.01395e-05
3.08357e-05
3.14181e-05
3.09261e-05
3.14204e-05
3.09261e-05
3.0139e-05
3.17243e-05
6.44157e-05
6.44167e-05
3.17228e-05