/*--------------------------------*- C++ -*----------------------------------*\
| =========                 |                                                 |
| \\      /  F ield         | OpenFOAM: The Open Source CFD Toolbox           |
|  \\    /   O peration     | Version:  2206                                  |
|   \\  /    A nd           | Website:  www.openfoam.com                      |
|    \\/     M anipulation  |                                                 |
\*---------------------------------------------------------------------------*/
FoamFile
{
    version     2.0;
    format      ascii;
    arch        "LSB;label=32;scalar=64";
    class       volVectorField;
    location    "14.5";
    object      U;
}
// * * * * * * * * * * * * * * * * * * * * * * * * * * * * * * * * * * * * * //

dimensions      [0 1 -1 0 0 0 0];

internalField   nonuniform List<vector> 
28897
(
(-5.07117e-07 -5.0045e-07 0.101748)
(-3.05431e-07 5.10672e-07 0.101736)
(4.97792e-07 -2.92716e-07 0.101736)
(-3.82935e-05 -3.83031e-05 0.101716)
(-5.16123e-07 -5.15222e-07 0.101748)
(-2.84848e-07 4.97777e-07 0.101736)
(4.78906e-07 -2.60091e-07 0.101736)
(-3.82678e-05 -3.82851e-05 0.101716)
(-4.12898e-07 -4.28037e-07 0.101748)
(-3.65487e-07 5.44287e-07 0.101735)
(5.96305e-07 -4.31356e-07 0.101735)
(-3.83639e-05 -3.84383e-05 0.101716)
(-4.72461e-07 -4.6289e-07 0.101748)
(-3.66835e-07 5.31169e-07 0.101736)
(5.1557e-07 -3.48648e-07 0.101736)
(-3.83606e-05 -3.83576e-05 0.101716)
(-4.85493e-07 -4.79878e-07 0.101748)
(-3.27033e-07 5.15416e-07 0.101736)
(5.12826e-07 -3.25755e-07 0.101736)
(-3.83297e-05 -3.83411e-05 0.101716)
(-4.84649e-07 -4.81025e-07 0.101748)
(-3.22683e-07 5.14617e-07 0.101736)
(5.13217e-07 -3.23794e-07 0.101736)
(-3.83259e-05 -3.83406e-05 0.101716)
(-4.84672e-07 -4.81549e-07 0.101748)
(-3.22344e-07 5.14341e-07 0.101736)
(5.1327e-07 -3.23689e-07 0.101736)
(-3.83253e-05 -3.83409e-05 0.101716)
(-4.84566e-07 -4.81735e-07 0.101748)
(-3.21895e-07 5.14141e-07 0.101736)
(5.13299e-07 -3.23437e-07 0.101736)
(-3.8325e-05 -3.83407e-05 0.101716)
(-4.84358e-07 -4.81692e-07 0.101748)
(-3.2233e-07 5.1451e-07 0.101736)
(5.13381e-07 -3.24065e-07 0.101736)
(-3.83247e-05 -3.83409e-05 0.101716)
(-4.83919e-07 -4.81094e-07 0.101748)
(-3.22088e-07 5.15012e-07 0.101736)
(5.12578e-07 -3.25156e-07 0.101736)
(-3.83227e-05 -3.83442e-05 0.101716)
(-4.78311e-07 -4.7558e-07 0.101748)
(-3.20341e-07 5.13827e-07 0.101736)
(5.1307e-07 -3.24215e-07 0.101736)
(-3.83235e-05 -3.83419e-05 0.101716)
(-4.8632e-07 -4.78318e-07 0.101748)
(-3.23318e-07 5.26509e-07 0.101736)
(5.13751e-07 -3.23967e-07 0.101736)
(-3.83271e-05 -3.83407e-05 0.101716)
(-4.83944e-07 -4.79728e-07 0.101748)
(-3.22264e-07 5.16266e-07 0.101736)
(5.13423e-07 -3.23063e-07 0.101736)
(-3.83262e-05 -3.834e-05 0.101716)
(-4.83626e-07 -4.81462e-07 0.101748)
(-3.22631e-07 5.16088e-07 0.101736)
(5.13403e-07 -3.23014e-07 0.101736)
(-3.83261e-05 -3.83411e-05 0.101716)
(-4.83665e-07 -4.81826e-07 0.101748)
(-3.21791e-07 5.15064e-07 0.101736)
(5.11973e-07 -3.21784e-07 0.101736)
(-3.83256e-05 -3.8341e-05 0.101716)
(-4.83379e-07 -4.81683e-07 0.101748)
(-3.22341e-07 5.15224e-07 0.101736)
(5.12703e-07 -3.22267e-07 0.101736)
(-3.83232e-05 -3.83388e-05 0.101716)
(-4.84184e-07 -4.82654e-07 0.101748)
(-3.21046e-07 5.14421e-07 0.101736)
(5.11967e-07 -3.2109e-07 0.101736)
(-3.83198e-05 -3.83354e-05 0.101716)
(-4.87797e-07 -4.86015e-07 0.101748)
(-3.12134e-07 5.10609e-07 0.101736)
(5.0785e-07 -3.12012e-07 0.101736)
(-3.83064e-05 -3.83214e-05 0.101716)
(-3.97862e-05 -3.97522e-05 0.101717)
(5.22387e-07 3.24712e-07 0.101736)
(-5.29082e-07 3.2724e-07 0.101736)
(3.97813e-05 -3.97591e-05 0.101717)
(3.06822e-07 5.10578e-07 0.101736)
(3.22945e-07 -5.22573e-07 0.101736)
(-3.13671e-07 5.10943e-07 0.101736)
(-3.24684e-07 -5.1756e-07 0.101736)
(-3.97554e-05 3.97888e-05 0.101717)
(5.07461e-07 -3.07563e-07 0.101736)
(-5.10047e-07 -3.07459e-07 0.101736)
(3.97578e-05 3.97807e-05 0.101717)
(3.83013e-05 3.82777e-05 0.101716)
(-3.98272e-05 -3.97969e-05 0.101717)
(5.11701e-07 3.03739e-07 0.101736)
(-5.34772e-07 3.13193e-07 0.101736)
(5.17076e-07 3.05275e-07 0.101736)
(-5.11894e-07 3.05485e-07 0.101736)
(-3.83079e-05 3.828e-05 0.101716)
(3.98191e-05 -3.97956e-05 0.101717)
(2.9267e-07 5.00386e-07 0.101736)
(3.03599e-07 -5.11217e-07 0.101736)
(2.91553e-07 5.0154e-07 0.101736)
(3.05924e-07 -5.14981e-07 0.101736)
(-3.11075e-07 -5.07194e-07 0.101736)
(-2.88264e-07 4.96417e-07 0.101736)
(-3.02541e-07 -5.12138e-07 0.101736)
(3.82776e-05 -3.83104e-05 0.101716)
(-3.97981e-05 3.98318e-05 0.101717)
(-4.99666e-07 -2.886e-07 0.101736)
(5.01238e-07 -2.9048e-07 0.101736)
(-4.99878e-07 -2.92351e-07 0.101736)
(3.98e-05 3.98251e-05 0.101717)
(3.82846e-05 3.82565e-05 0.101716)
(-3.97657e-05 -3.9748e-05 0.101716)
(4.95276e-07 2.69235e-07 0.101736)
(-5.12086e-07 2.87305e-07 0.101736)
(5.81192e-07 3.59573e-07 0.101735)
(-4.74564e-07 3.20011e-07 0.101735)
(-3.82712e-05 3.82457e-05 0.101716)
(3.98939e-05 -3.98408e-05 0.101716)
(2.6237e-07 4.7719e-07 0.101736)
(2.72902e-07 -4.9086e-07 0.101736)
(3.58197e-07 5.46926e-07 0.101735)
(3.69346e-07 -5.65842e-07 0.101735)
(-2.83238e-07 -4.97371e-07 0.101736)
(-2.56806e-07 4.74837e-07 0.101735)
(-3.11756e-07 -5.68686e-07 0.101735)
(3.82601e-05 -3.82911e-05 0.101716)
(-3.97416e-05 3.97783e-05 0.101716)
(-4.7624e-07 -2.58648e-07 0.101736)
(5.54527e-07 -3.52392e-07 0.101735)
(-5.26379e-07 -3.63069e-07 0.101735)
(3.97926e-05 3.97605e-05 0.101716)
(3.84313e-05 3.83908e-05 0.101716)
(-3.97709e-05 -3.97336e-05 0.101717)
(6.25238e-07 4.33874e-07 0.101735)
(-5.4206e-07 4.15376e-07 0.101735)
(5.37552e-07 3.85911e-07 0.101736)
(-5.81488e-07 4.00646e-07 0.101736)
(-3.82726e-05 3.82779e-05 0.101716)
(3.97168e-05 -3.97047e-05 0.101717)
(4.3721e-07 5.89123e-07 0.101735)
(4.45618e-07 -6.07225e-07 0.101735)
(3.66938e-07 5.28982e-07 0.101736)
(3.82565e-07 -5.40688e-07 0.101736)
(-4.06991e-07 -6.24327e-07 0.101735)
(-3.98556e-07 5.54814e-07 0.101736)
(-3.94709e-07 -5.31785e-07 0.101736)
(3.84002e-05 -3.84295e-05 0.101716)
(-3.97379e-05 3.97717e-05 0.101717)
(-5.75077e-07 -4.39949e-07 0.101735)
(5.25127e-07 -3.68035e-07 0.101736)
(-5.3154e-07 -3.66106e-07 0.101736)
(3.97285e-05 3.977e-05 0.101717)
(3.83591e-05 3.83385e-05 0.101716)
(-3.98003e-05 -3.97646e-05 0.101717)
(5.26475e-07 3.61547e-07 0.101736)
(-5.57016e-07 3.71526e-07 0.101736)
(5.26129e-07 3.41697e-07 0.101736)
(-5.36691e-07 3.42725e-07 0.101736)
(-3.83945e-05 3.83554e-05 0.101716)
(3.97955e-05 -3.97695e-05 0.101717)
(3.47968e-07 5.20791e-07 0.101736)
(3.59237e-07 -5.30442e-07 0.101736)
(3.23232e-07 5.15884e-07 0.101736)
(3.38635e-07 -5.27456e-07 0.101736)
(-3.69787e-07 -5.20543e-07 0.101736)
(-3.29004e-07 5.15386e-07 0.101736)
(-3.40862e-07 -5.22419e-07 0.101736)
(3.83364e-05 -3.83702e-05 0.101716)
(-3.9769e-05 3.98021e-05 0.101717)
(-5.21254e-07 -3.43606e-07 0.101736)
(5.11324e-07 -3.24791e-07 0.101736)
(-5.1478e-07 -3.2431e-07 0.101736)
(3.97702e-05 3.97936e-05 0.101717)
(3.83383e-05 3.83161e-05 0.101716)
(-3.98004e-05 -3.97676e-05 0.101717)
(5.27568e-07 3.36955e-07 0.101736)
(-5.35512e-07 3.40199e-07 0.101736)
(5.2846e-07 3.37421e-07 0.101736)
(-5.33545e-07 3.38608e-07 0.101736)
(-3.8336e-05 3.83097e-05 0.101716)
(3.97999e-05 -3.97723e-05 0.101717)
(3.25674e-07 5.16497e-07 0.101736)
(3.36924e-07 -5.27351e-07 0.101736)
(3.21262e-07 5.14694e-07 0.101736)
(3.36178e-07 -5.27145e-07 0.101736)
(-3.3795e-07 -5.23825e-07 0.101736)
(-3.22013e-07 5.14654e-07 0.101736)
(-3.33629e-07 -5.24289e-07 0.101736)
(3.83152e-05 -3.83477e-05 0.101716)
(-3.97701e-05 3.98039e-05 0.101717)
(-5.14249e-07 -3.22874e-07 0.101736)
(5.11988e-07 -3.21527e-07 0.101736)
(-5.11847e-07 -3.21741e-07 0.101736)
(3.97748e-05 3.97942e-05 0.101717)
(3.83387e-05 3.83139e-05 0.101716)
(-3.98007e-05 -3.97686e-05 0.101717)
(5.28927e-07 3.34273e-07 0.101736)
(-5.33011e-07 3.3774e-07 0.101736)
(5.28294e-07 3.3605e-07 0.101736)
(-5.32406e-07 3.37598e-07 0.101736)
(-3.83332e-05 3.83082e-05 0.101716)
(3.9801e-05 -3.97729e-05 0.101717)
(3.2472e-07 5.15253e-07 0.101736)
(3.35706e-07 -5.26718e-07 0.101736)
(3.20663e-07 5.13537e-07 0.101736)
(3.35547e-07 -5.26807e-07 0.101736)
(-3.33334e-07 -5.24522e-07 0.101736)
(-3.20917e-07 5.13974e-07 0.101736)
(-3.3259e-07 -5.24447e-07 0.101736)
(3.83145e-05 -3.83464e-05 0.101716)
(-3.977e-05 3.98043e-05 0.101717)
(-5.11746e-07 -3.21379e-07 0.101736)
(5.12078e-07 -3.20952e-07 0.101736)
(-5.10951e-07 -3.21712e-07 0.101736)
(3.97757e-05 3.97941e-05 0.101717)
(3.83385e-05 3.83131e-05 0.101716)
(-3.98002e-05 -3.97689e-05 0.101717)
(5.28974e-07 3.33574e-07 0.101736)
(-5.32387e-07 3.37373e-07 0.101736)
(5.28416e-07 3.36223e-07 0.101736)
(-5.32688e-07 3.37714e-07 0.101736)
(-3.83322e-05 3.83075e-05 0.101716)
(3.98005e-05 -3.97728e-05 0.101717)
(3.24501e-07 5.1451e-07 0.101736)
(3.35322e-07 -5.26649e-07 0.101736)
(3.21057e-07 5.13593e-07 0.101736)
(3.35904e-07 -5.27062e-07 0.101736)
(-3.33025e-07 -5.2491e-07 0.101736)
(-3.21159e-07 5.14109e-07 0.101736)
(-3.32576e-07 -5.24455e-07 0.101736)
(3.83145e-05 -3.83461e-05 0.101716)
(-3.97697e-05 3.98039e-05 0.101717)
(-5.11335e-07 -3.21743e-07 0.101736)
(5.12348e-07 -3.21048e-07 0.101736)
(-5.108e-07 -3.21719e-07 0.101736)
(3.97758e-05 3.9794e-05 0.101717)
(3.83386e-05 3.83134e-05 0.101716)
(-3.98e-05 -3.97692e-05 0.101717)
(5.29073e-07 3.33256e-07 0.101736)
(-5.32232e-07 3.37548e-07 0.101736)
(5.28453e-07 3.36227e-07 0.101736)
(-5.32651e-07 3.37453e-07 0.101736)
(-3.83324e-05 3.83079e-05 0.101716)
(3.98006e-05 -3.97723e-05 0.101717)
(3.24417e-07 5.14196e-07 0.101736)
(3.35322e-07 -5.26557e-07 0.101736)
(3.21052e-07 5.137e-07 0.101736)
(3.35578e-07 -5.26718e-07 0.101736)
(-3.32289e-07 -5.24312e-07 0.101736)
(-3.20473e-07 5.14035e-07 0.101736)
(-3.3191e-07 -5.24171e-07 0.101736)
(3.83147e-05 -3.83464e-05 0.101716)
(-3.97703e-05 3.98044e-05 0.101717)
(-5.10579e-07 -3.21043e-07 0.101736)
(5.1202e-07 -3.20584e-07 0.101736)
(-5.10562e-07 -3.21272e-07 0.101736)
(3.97759e-05 3.97942e-05 0.101717)
(3.83383e-05 3.8314e-05 0.101716)
(-3.97999e-05 -3.97703e-05 0.101717)
(5.29196e-07 3.33701e-07 0.101736)
(-5.31796e-07 3.37407e-07 0.101736)
(5.26938e-07 3.36016e-07 0.101736)
(-5.34807e-07 3.40633e-07 0.101736)
(-3.83318e-05 3.83074e-05 0.101716)
(3.98011e-05 -3.97712e-05 0.101717)
(3.24726e-07 5.1441e-07 0.101736)
(3.35748e-07 -5.26801e-07 0.101736)
(3.23217e-07 5.13579e-07 0.101736)
(3.37382e-07 -5.28135e-07 0.101736)
(-3.32801e-07 -5.24756e-07 0.101736)
(-3.21924e-07 5.15734e-07 0.101736)
(-3.36655e-07 -5.2646e-07 0.101736)
(3.83143e-05 -3.83461e-05 0.101716)
(-3.97704e-05 3.98025e-05 0.101717)
(-5.10838e-07 -3.2183e-07 0.101736)
(5.11999e-07 -3.22641e-07 0.101736)
(-5.10822e-07 -3.26469e-07 0.101736)
(3.97776e-05 3.97909e-05 0.101717)
(3.83366e-05 3.83123e-05 0.101716)
(-3.97909e-05 -3.97764e-05 0.101717)
(5.27892e-07 3.34133e-07 0.101736)
(-5.30822e-07 3.40569e-07 0.101736)
(5.2641e-07 3.36324e-07 0.101736)
(-5.31512e-07 3.43123e-07 0.101736)
(-3.83311e-05 3.83106e-05 0.101716)
(3.98013e-05 -3.97695e-05 0.101717)
(3.2765e-07 5.13336e-07 0.101736)
(3.37143e-07 -5.27832e-07 0.101736)
(3.2869e-07 5.15807e-07 0.101736)
(3.37703e-07 -5.2732e-07 0.101736)
(-3.39504e-07 -5.2716e-07 0.101736)
(-3.18576e-07 5.11495e-07 0.101736)
(-3.39387e-07 -5.26138e-07 0.101736)
(3.83143e-05 -3.83479e-05 0.101716)
(-3.97707e-05 3.98036e-05 0.101717)
(-5.08595e-07 -3.2862e-07 0.101736)
(5.11216e-07 -3.22084e-07 0.101736)
(-5.06567e-07 -3.27187e-07 0.101736)
(3.97786e-05 3.97924e-05 0.101717)
(3.83443e-05 3.83163e-05 0.101716)
(-3.98014e-05 -3.97749e-05 0.101717)
(5.34455e-07 3.45579e-07 0.101736)
(-5.32446e-07 3.39218e-07 0.101736)
(5.25052e-07 3.32738e-07 0.101736)
(-5.37573e-07 3.52319e-07 0.101736)
(-3.83343e-05 3.83075e-05 0.101716)
(3.97954e-05 -3.976e-05 0.101717)
(3.33653e-07 5.18426e-07 0.101736)
(3.37572e-07 -5.26491e-07 0.101736)
(3.22633e-07 5.12962e-07 0.101736)
(3.37769e-07 -5.27003e-07 0.101736)
(-3.36319e-07 -5.25256e-07 0.101736)
(-3.22662e-07 5.23937e-07 0.101736)
(-3.35328e-07 -5.23964e-07 0.101736)
(3.83144e-05 -3.83469e-05 0.101716)
(-3.97696e-05 3.98041e-05 0.101717)
(-5.08945e-07 -3.23529e-07 0.101736)
(5.12928e-07 -3.21708e-07 0.101736)
(-5.1178e-07 -3.22182e-07 0.101736)
(3.97744e-05 3.97947e-05 0.101717)
(3.83329e-05 3.83201e-05 0.101716)
(-3.97987e-05 -3.97709e-05 0.101717)
(5.24954e-07 3.39457e-07 0.101736)
(-5.40502e-07 3.54325e-07 0.101736)
(5.27258e-07 3.34259e-07 0.101736)
(-5.28616e-07 3.38042e-07 0.101736)
(-3.83403e-05 3.83255e-05 0.101716)
(3.97998e-05 -3.97728e-05 0.101717)
(3.24171e-07 5.16863e-07 0.101736)
(3.37403e-07 -5.27232e-07 0.101736)
(3.21262e-07 5.1588e-07 0.101736)
(3.37051e-07 -5.2706e-07 0.101736)
(-3.35863e-07 -5.23947e-07 0.101736)
(-3.20713e-07 5.16006e-07 0.101736)
(-3.34008e-07 -5.23495e-07 0.101736)
(3.83152e-05 -3.83468e-05 0.101716)
(-3.97701e-05 3.98043e-05 0.101717)
(-5.12035e-07 -3.21979e-07 0.101736)
(5.12445e-07 -3.21074e-07 0.101736)
(-5.11528e-07 -3.21163e-07 0.101736)
(3.97749e-05 3.97951e-05 0.101717)
(3.83351e-05 3.83214e-05 0.101716)
(-3.9797e-05 -3.97721e-05 0.101717)
(5.28607e-07 3.39274e-07 0.101736)
(-5.30626e-07 3.40813e-07 0.101736)
(5.27839e-07 3.32531e-07 0.101736)
(-5.30317e-07 3.38902e-07 0.101736)
(-3.83332e-05 3.83084e-05 0.101716)
(3.98003e-05 -3.97734e-05 0.101717)
(3.25617e-07 5.17606e-07 0.101736)
(3.36601e-07 -5.26863e-07 0.101736)
(3.22304e-07 5.15464e-07 0.101736)
(3.36804e-07 -5.27393e-07 0.101736)
(-3.33925e-07 -5.24098e-07 0.101736)
(-3.21104e-07 5.16004e-07 0.101736)
(-3.33485e-07 -5.24574e-07 0.101736)
(3.83147e-05 -3.83463e-05 0.101716)
(-3.97701e-05 3.9804e-05 0.101717)
(-5.11539e-07 -3.21037e-07 0.101736)
(5.12691e-07 -3.21394e-07 0.101736)
(-5.11525e-07 -3.22244e-07 0.101736)
(3.9775e-05 3.97939e-05 0.101717)
(3.83355e-05 3.83186e-05 0.101716)
(-3.97972e-05 -3.97736e-05 0.101717)
(5.27463e-07 3.36931e-07 0.101736)
(-5.30374e-07 3.38954e-07 0.101736)
(5.27139e-07 3.31338e-07 0.101736)
(-5.299e-07 3.37763e-07 0.101736)
(-3.83331e-05 3.83083e-05 0.101716)
(3.98012e-05 -3.97744e-05 0.101717)
(3.2554e-07 5.16182e-07 0.101736)
(3.36458e-07 -5.27246e-07 0.101736)
(3.22526e-07 5.14866e-07 0.101736)
(3.36008e-07 -5.27121e-07 0.101736)
(-3.33582e-07 -5.24888e-07 0.101736)
(-3.21026e-07 5.15183e-07 0.101736)
(-3.32721e-07 -5.24587e-07 0.101736)
(3.83147e-05 -3.83466e-05 0.101716)
(-3.97708e-05 3.98044e-05 0.101717)
(-5.11579e-07 -3.21703e-07 0.101736)
(5.12203e-07 -3.2113e-07 0.101736)
(-5.11006e-07 -3.2226e-07 0.101736)
(3.97758e-05 3.9794e-05 0.101717)
(3.83357e-05 3.83177e-05 0.101716)
(-3.97959e-05 -3.97724e-05 0.101717)
(5.26922e-07 3.35976e-07 0.101736)
(-5.29634e-07 3.37829e-07 0.101736)
(5.26555e-07 3.30936e-07 0.101736)
(-5.29394e-07 3.3704e-07 0.101736)
(-3.83321e-05 3.83075e-05 0.101716)
(3.97998e-05 -3.97732e-05 0.101717)
(3.25597e-07 5.15833e-07 0.101736)
(3.35603e-07 -5.26767e-07 0.101736)
(3.21843e-07 5.14274e-07 0.101736)
(3.35712e-07 -5.26783e-07 0.101736)
(-3.32373e-07 -5.24405e-07 0.101736)
(-3.20562e-07 5.14803e-07 0.101736)
(-3.31795e-07 -5.23995e-07 0.101736)
(3.83142e-05 -3.83463e-05 0.101716)
(-3.97691e-05 3.98029e-05 0.101717)
(-5.10525e-07 -3.20697e-07 0.101736)
(5.12267e-07 -3.20536e-07 0.101736)
(-5.10388e-07 -3.21783e-07 0.101736)
(3.97748e-05 3.9793e-05 0.101717)
(3.83335e-05 3.83153e-05 0.101716)
(-3.97923e-05 -3.9769e-05 0.101717)
(5.26826e-07 3.36221e-07 0.101736)
(-5.2976e-07 3.37845e-07 0.101736)
(5.27903e-07 3.32784e-07 0.101736)
(-5.30615e-07 3.38773e-07 0.101736)
(-3.83302e-05 3.83052e-05 0.101716)
(3.97963e-05 -3.97699e-05 0.101717)
(3.25678e-07 5.15628e-07 0.101736)
(3.36067e-07 -5.27038e-07 0.101736)
(3.23984e-07 5.15407e-07 0.101736)
(3.37768e-07 -5.28287e-07 0.101736)
(-3.32722e-07 -5.24649e-07 0.101736)
(-3.22739e-07 5.15956e-07 0.101736)
(-3.34088e-07 -5.25603e-07 0.101736)
(3.83123e-05 -3.83444e-05 0.101716)
(-3.97654e-05 3.97991e-05 0.101717)
(-5.10793e-07 -3.20793e-07 0.101736)
(5.13489e-07 -3.22776e-07 0.101736)
(-5.11689e-07 -3.2415e-07 0.101736)
(3.97709e-05 3.97889e-05 0.101717)
(3.83298e-05 3.83116e-05 0.101716)
(-3.97884e-05 -3.97647e-05 0.101717)
(5.26072e-07 3.34604e-07 0.101736)
(-5.28951e-07 3.363e-07 0.101736)
(5.25539e-07 3.27655e-07 0.101736)
(-5.28379e-07 3.3355e-07 0.101736)
(-3.83265e-05 3.83013e-05 0.101716)
(3.97922e-05 -3.97656e-05 0.101717)
(3.24232e-07 5.14662e-07 0.101736)
(3.34687e-07 -5.26448e-07 0.101736)
(3.18389e-07 5.13342e-07 0.101736)
(3.32315e-07 -5.25898e-07 0.101736)
(-3.31727e-07 -5.24153e-07 0.101736)
(-3.17317e-07 5.13782e-07 0.101736)
(-3.29044e-07 -5.23257e-07 0.101736)
(3.83087e-05 -3.83409e-05 0.101716)
(-3.97616e-05 3.97954e-05 0.101717)
(-5.10202e-07 -3.19381e-07 0.101736)
(5.11195e-07 -3.17246e-07 0.101736)
(-5.09767e-07 -3.18688e-07 0.101736)
(3.97669e-05 3.97854e-05 0.101717)
(3.83156e-05 3.82977e-05 0.101716)
(5.21818e-07 3.26103e-07 0.101736)
(-5.24892e-07 3.27643e-07 0.101736)
(-3.83126e-05 3.82876e-05 0.101716)
(3.15484e-07 5.10838e-07 0.101736)
(3.25864e-07 -5.22284e-07 0.101736)
(-3.22912e-07 -5.19645e-07 0.101736)
(3.82946e-05 -3.83264e-05 0.101716)
(-5.06301e-07 -3.10187e-07 0.101736)
(-4.98932e-07 -4.90201e-07 0.101748)
(4.88398e-07 -4.91143e-07 0.101748)
(-4.92555e-07 4.94739e-07 0.101748)
(4.86612e-07 4.95006e-07 0.101748)
(6.72823e-09 -7.539e-06 0.100775)
(7.15561e-07 5.65868e-06 0.096371)
(-2.05572e-08 7.26618e-06 0.100772)
(-9.48219e-07 -5.89961e-06 0.0963776)
(-1.47962e-06 1.84105e-06 0.0868122)
(1.50966e-06 -2.12036e-06 0.0868189)
(-7.58233e-06 4.07259e-09 0.100775)
(5.69319e-06 7.02487e-07 0.0963708)
(7.31043e-06 -2.53307e-09 0.100772)
(-5.92526e-06 -9.23883e-07 0.0963775)
(4.91771e-07 -4.99107e-07 0.101748)
(-5.01787e-07 5.03866e-07 0.101748)
(4.94205e-07 5.04949e-07 0.101748)
(-5.17522e-07 -5.13569e-07 0.101748)
(5.13207e-07 -5.11378e-07 0.101748)
(-5.12754e-07 5.16224e-07 0.101748)
(5.12651e-07 5.13723e-07 0.101748)
(1.24294e-05 -7.50632e-09 0.101565)
(-1.14911e-05 3.38552e-06 0.100951)
(-3.71499e-07 -1.49287e-07 0.101745)
(-2.84905e-07 4.96993e-07 0.101736)
(-1.23245e-05 5.27112e-09 0.101563)
(1.11983e-05 -3.68152e-06 0.100956)
(-3.4608e-07 -1.52742e-07 0.101745)
(1.79203e-06 -1.4287e-06 0.0868102)
(-2.05934e-06 1.45476e-06 0.0868192)
(-6.07286e-09 1.24453e-05 0.101565)
(-1.59066e-07 -3.56342e-07 0.101745)
(3.38896e-06 -1.15088e-05 0.100952)
(4.83815e-07 -2.73959e-07 0.101736)
(-7.98912e-09 -1.23248e-05 0.101563)
(-1.62083e-07 -3.30958e-07 0.101745)
(-3.73538e-06 1.1243e-05 0.100956)
(-3.73939e-06 -4.44891e-06 0.0997489)
(-4.44501e-06 -3.74315e-06 0.0997485)
(3.97775e-05 3.98019e-05 0.101717)
(3.55606e-06 4.34449e-06 0.0997543)
(4.33747e-06 3.53816e-06 0.0997539)
(2.28861e-09 -7.57266e-06 0.100775)
(7.60173e-07 5.55085e-06 0.0963717)
(-3.47898e-08 7.17604e-06 0.100772)
(-8.94626e-07 -5.85038e-06 0.0963785)
(-1.39782e-06 1.74887e-06 0.0868139)
(1.48395e-06 -2.17103e-06 0.0868215)
(-7.61433e-06 -1.23594e-08 0.100775)
(5.58828e-06 7.41328e-07 0.0963716)
(7.21901e-06 -2.52938e-08 0.100772)
(-5.87589e-06 -8.89018e-07 0.0963784)
(5.15811e-07 -5.17262e-07 0.101748)
(-5.11687e-07 5.15558e-07 0.101748)
(5.13723e-07 5.15538e-07 0.101748)
(-4.70369e-07 -4.85128e-07 0.101748)
(5.38136e-07 -5.1554e-07 0.101748)
(-4.72314e-07 4.79061e-07 0.101748)
(5.07425e-07 4.68403e-07 0.101748)
(1.24588e-05 -2.48404e-08 0.101564)
(-1.14036e-05 3.29307e-06 0.100951)
(-3.41224e-07 -1.67185e-07 0.101745)
(-2.44187e-07 4.73875e-07 0.101736)
(-1.22557e-05 -9.70023e-09 0.101563)
(1.12492e-05 -3.74727e-06 0.100956)
(-2.99165e-07 -1.6649e-07 0.101745)
(1.62074e-06 -1.36156e-06 0.0868125)
(-2.01195e-06 1.48327e-06 0.0868214)
(-1.07719e-08 1.24772e-05 0.101564)
(-1.64392e-07 -3.20739e-07 0.101745)
(3.29298e-06 -1.14251e-05 0.100951)
(4.43465e-07 -2.12346e-07 0.101736)
(-1.67858e-08 -1.22561e-05 0.101563)
(-1.68105e-07 -2.75275e-07 0.101745)
(-3.77169e-06 1.13027e-05 0.100956)
(-3.66434e-06 -4.4134e-06 0.0997488)
(-4.39245e-06 -3.6861e-06 0.0997484)
(3.98517e-05 3.98659e-05 0.101717)
(3.49101e-06 4.41304e-06 0.0997542)
(4.40021e-06 3.54976e-06 0.0997538)
(5.23739e-08 -7.21915e-06 0.100775)
(7.46756e-07 5.69984e-06 0.0963726)
(3.6649e-08 7.27587e-06 0.100771)
(-9.52119e-07 -4.92844e-06 0.0963787)
(-1.16171e-06 1.64474e-06 0.0868178)
(1.14495e-06 -1.47926e-06 0.0868244)
(-7.2607e-06 2.57909e-08 0.100775)
(5.74268e-06 7.13454e-07 0.0963724)
(7.32634e-06 5.2801e-09 0.100771)
(-4.9571e-06 -9.34784e-07 0.0963787)
(4.95113e-07 -4.73324e-07 0.101748)
(-4.14745e-07 4.21209e-07 0.101748)
(4.49028e-07 4.11961e-07 0.101748)
(-4.54273e-07 -4.43725e-07 0.101748)
(4.17483e-07 -4.27138e-07 0.101748)
(-4.47355e-07 4.48963e-07 0.101748)
(4.3364e-07 4.50249e-07 0.101748)
(1.19744e-05 -1.3646e-08 0.101564)
(-1.1391e-05 3.1393e-06 0.100951)
(-4.46266e-07 -1.74522e-07 0.101745)
(-4.34068e-07 5.87659e-07 0.101735)
(-1.23054e-05 -4.31755e-08 0.101563)
(1.08688e-05 -3.43379e-06 0.100956)
(-5.37486e-07 -1.39481e-07 0.101745)
(1.94163e-06 -1.61728e-06 0.086816)
(-1.19272e-06 1.00574e-06 0.0868216)
(3.34294e-08 1.18954e-05 0.101564)
(-1.21085e-07 -5.15805e-07 0.101745)
(3.42421e-06 -1.16362e-05 0.100951)
(5.80331e-07 -4.3618e-07 0.101736)
(5.89488e-09 -1.24667e-05 0.101563)
(-1.12247e-07 -5.5401e-07 0.101745)
(-3.27622e-06 1.07937e-05 0.100956)
(-3.71018e-06 -4.62722e-06 0.0997486)
(-4.51613e-06 -3.82315e-06 0.0997481)
(3.96542e-05 3.96595e-05 0.101717)
(3.46838e-06 4.16898e-06 0.0997539)
(4.19176e-06 3.56904e-06 0.0997535)
(-1.11958e-09 -7.43388e-06 0.100776)
(7.50446e-07 6.03275e-06 0.0963709)
(-4.04005e-08 7.41697e-06 0.100772)
(-9.44013e-07 -5.6481e-06 0.096377)
(-1.67104e-06 2.237e-06 0.0868129)
(1.4242e-06 -1.91688e-06 0.0868184)
(-7.48152e-06 6.39921e-09 0.100775)
(6.05348e-06 7.3351e-07 0.0963707)
(7.45705e-06 -1.13919e-08 0.100772)
(-5.68081e-06 -9.2419e-07 0.096377)
(4.39713e-07 -4.50011e-07 0.101748)
(-4.66807e-07 4.67919e-07 0.101748)
(4.53249e-07 4.69629e-07 0.101748)
(-4.86092e-07 -4.77715e-07 0.101748)
(4.75158e-07 -4.78114e-07 0.101748)
(-4.81093e-07 4.82259e-07 0.101748)
(4.74407e-07 4.81182e-07 0.101748)
(1.22528e-05 8.73539e-09 0.101565)
(-1.1744e-05 3.67051e-06 0.100951)
(-4.82658e-07 -1.21388e-07 0.101745)
(-3.45872e-07 5.19795e-07 0.101736)
(-1.26283e-05 3.66054e-08 0.101563)
(1.10478e-05 -3.55983e-06 0.100957)
(-4.47889e-07 -1.3358e-07 0.101745)
(2.01168e-06 -1.46137e-06 0.0868099)
(-1.86592e-06 1.40682e-06 0.0868179)
(-1.99549e-09 1.22883e-05 0.101565)
(-1.44672e-07 -4.53281e-07 0.101745)
(3.55527e-06 -1.16881e-05 0.100952)
(5.11358e-07 -3.34737e-07 0.101736)
(-4.58957e-10 -1.2561e-05 0.101563)
(-1.49702e-07 -4.27087e-07 0.101745)
(-3.63012e-06 1.11165e-05 0.100956)
(-3.65723e-06 -4.41048e-06 0.0997488)
(-4.44489e-06 -3.68041e-06 0.0997485)
(3.97625e-05 3.97912e-05 0.101717)
(3.55074e-06 4.34522e-06 0.0997543)
(4.32108e-06 3.54364e-06 0.0997539)
(1.11722e-08 -7.46859e-06 0.100776)
(7.41388e-07 5.81492e-06 0.0963706)
(-2.64186e-08 7.30628e-06 0.100772)
(-9.36015e-07 -5.6816e-06 0.0963769)
(-1.5153e-06 1.96157e-06 0.086812)
(1.44097e-06 -1.97257e-06 0.0868183)
(-7.51171e-06 5.64117e-09 0.100775)
(5.84595e-06 7.27564e-07 0.0963704)
(7.34977e-06 -1.11191e-08 0.100772)
(-5.71115e-06 -9.16628e-07 0.0963769)
(4.7817e-07 -4.8071e-07 0.101748)
(-4.81368e-07 4.82922e-07 0.101748)
(4.76368e-07 4.81913e-07 0.101748)
(-4.85486e-07 -4.79574e-07 0.101748)
(4.82355e-07 -4.8253e-07 0.101748)
(-4.80705e-07 4.82873e-07 0.101748)
(4.78883e-07 4.81654e-07 0.101748)
(1.23109e-05 -6.78737e-09 0.101565)
(-1.15458e-05 3.41185e-06 0.100952)
(-4.11559e-07 -1.46308e-07 0.101745)
(-3.24598e-07 5.15525e-07 0.101736)
(-1.24254e-05 1.78823e-09 0.101564)
(1.11105e-05 -3.61531e-06 0.100957)
(-4.05905e-07 -1.47668e-07 0.101745)
(1.88068e-06 -1.46162e-06 0.0868097)
(-1.88066e-06 1.38747e-06 0.0868179)
(-9.85456e-10 1.2321e-05 0.101565)
(-1.51292e-07 -4.02566e-07 0.101745)
(3.43834e-06 -1.15776e-05 0.100952)
(5.12157e-07 -3.23236e-07 0.101736)
(-6.25066e-09 -1.24285e-05 0.101564)
(-1.51488e-07 -4.01829e-07 0.101745)
(-3.64556e-06 1.11454e-05 0.100956)
(-3.71164e-06 -4.44787e-06 0.0997489)
(-4.44118e-06 -3.7051e-06 0.0997486)
(3.97729e-05 3.97936e-05 0.101717)
(3.55194e-06 4.32996e-06 0.0997544)
(4.32153e-06 3.54873e-06 0.0997539)
(1.30337e-08 -7.46861e-06 0.100776)
(7.45801e-07 5.81597e-06 0.0963706)
(-2.38108e-08 7.30398e-06 0.100772)
(-9.33959e-07 -5.68004e-06 0.0963769)
(-1.51806e-06 1.96147e-06 0.086812)
(1.44023e-06 -1.97179e-06 0.0868183)
(-7.5118e-06 5.67747e-09 0.100775)
(5.84802e-06 7.29132e-07 0.0963704)
(7.34752e-06 -1.10131e-08 0.100772)
(-5.70954e-06 -9.15953e-07 0.0963769)
(4.8252e-07 -4.8326e-07 0.101748)
(-4.80677e-07 4.83178e-07 0.101748)
(4.79443e-07 4.82248e-07 0.101748)
(-4.85523e-07 -4.80353e-07 0.101748)
(4.834e-07 -4.8338e-07 0.101748)
(-4.80737e-07 4.82948e-07 0.101748)
(4.79727e-07 4.81566e-07 0.101748)
(1.23122e-05 -7.31566e-09 0.101565)
(-1.15408e-05 3.41395e-06 0.100951)
(-4.03991e-07 -1.4804e-07 0.101745)
(-3.2163e-07 5.14561e-07 0.101736)
(-1.24202e-05 -6.96524e-11 0.101564)
(1.11116e-05 -3.61373e-06 0.100957)
(-4.01295e-07 -1.48619e-07 0.101745)
(1.88088e-06 -1.46456e-06 0.0868097)
(-1.88023e-06 1.387e-06 0.0868179)
(-2.47667e-10 1.2322e-05 0.101565)
(-1.50181e-07 -3.99291e-07 0.101745)
(3.44115e-06 -1.1576e-05 0.100952)
(5.12297e-07 -3.21732e-07 0.101736)
(-5.1131e-09 -1.24266e-05 0.101564)
(-1.50577e-07 -3.99833e-07 0.101745)
(-3.64407e-06 1.1146e-05 0.100956)
(-3.70827e-06 -4.44973e-06 0.0997489)
(-4.44009e-06 -3.70338e-06 0.0997486)
(3.97751e-05 3.97941e-05 0.101717)
(3.5534e-06 4.32908e-06 0.0997544)
(4.32195e-06 3.54921e-06 0.0997539)
(1.313e-08 -7.46878e-06 0.100776)
(7.46797e-07 5.81659e-06 0.0963706)
(-2.28972e-08 7.30405e-06 0.100772)
(-9.34362e-07 -5.68263e-06 0.0963769)
(-1.51779e-06 1.96166e-06 0.086812)
(1.4407e-06 -1.9723e-06 0.0868183)
(-7.51196e-06 5.07083e-09 0.100775)
(5.84835e-06 7.29711e-07 0.0963704)
(7.34788e-06 -1.12812e-08 0.100772)
(-5.71075e-06 -9.16253e-07 0.0963769)
(4.83038e-07 -4.83713e-07 0.101748)
(-4.80776e-07 4.8311e-07 0.101748)
(4.79709e-07 4.81925e-07 0.101748)
(-4.85271e-07 -4.80137e-07 0.101748)
(4.83237e-07 -4.83171e-07 0.101748)
(-4.8039e-07 4.82814e-07 0.101748)
(4.79767e-07 4.816e-07 0.101748)
(1.23123e-05 -7.45164e-09 0.101565)
(-1.15403e-05 3.41362e-06 0.100952)
(-4.03466e-07 -1.48386e-07 0.101745)
(-3.22072e-07 5.14732e-07 0.101736)
(-1.24197e-05 -2.47046e-10 0.101564)
(1.11115e-05 -3.61376e-06 0.100957)
(-4.01604e-07 -1.48777e-07 0.101745)
(1.88113e-06 -1.46399e-06 0.0868097)
(-1.88034e-06 1.38696e-06 0.0868179)
(2.68595e-10 1.23212e-05 0.101565)
(-1.4998e-07 -3.99144e-07 0.101745)
(3.44138e-06 -1.15758e-05 0.100952)
(5.12511e-07 -3.2202e-07 0.101736)
(-4.5488e-09 -1.24267e-05 0.101564)
(-1.50451e-07 -4.00175e-07 0.101745)
(-3.64356e-06 1.1146e-05 0.100956)
(-3.70768e-06 -4.44985e-06 0.0997489)
(-4.4397e-06 -3.70361e-06 0.0997486)
(3.97751e-05 3.97935e-05 0.101717)
(3.5537e-06 4.32881e-06 0.0997544)
(4.32203e-06 3.54903e-06 0.099754)
(1.29239e-08 -7.46835e-06 0.100776)
(7.48925e-07 5.82282e-06 0.0963706)
(-2.2721e-08 7.3037e-06 0.100772)
(-9.3918e-07 -5.6899e-06 0.0963769)
(-1.51772e-06 1.96341e-06 0.086812)
(1.44398e-06 -1.97894e-06 0.0868183)
(-7.51197e-06 4.89855e-09 0.100775)
(5.85068e-06 7.31258e-07 0.0963704)
(7.34797e-06 -1.14989e-08 0.100772)
(-5.71161e-06 -9.19649e-07 0.0963769)
(4.83268e-07 -4.83553e-07 0.101748)
(-4.8057e-07 4.83281e-07 0.101748)
(4.80175e-07 4.82289e-07 0.101748)
(-4.85358e-07 -4.80217e-07 0.101748)
(4.83672e-07 -4.83453e-07 0.101748)
(-4.8053e-07 4.83112e-07 0.101748)
(4.8021e-07 4.81983e-07 0.101748)
(1.23128e-05 -7.53842e-09 0.101565)
(-1.15403e-05 3.41386e-06 0.100952)
(-4.02924e-07 -1.48265e-07 0.101745)
(-3.21074e-07 5.14233e-07 0.101736)
(-1.24199e-05 -1.85338e-10 0.101564)
(1.11119e-05 -3.61382e-06 0.100957)
(-4.00398e-07 -1.48732e-07 0.101745)
(1.88083e-06 -1.46476e-06 0.0868097)
(-1.88016e-06 1.38692e-06 0.0868179)
(1.32179e-10 1.23221e-05 0.101565)
(-1.49828e-07 -3.98648e-07 0.101745)
(3.44163e-06 -1.15763e-05 0.100952)
(5.12197e-07 -3.20955e-07 0.101736)
(-4.39242e-09 -1.24267e-05 0.101564)
(-1.50216e-07 -3.99064e-07 0.101745)
(-3.64299e-06 1.11477e-05 0.100956)
(-3.70731e-06 -4.44975e-06 0.0997489)
(-4.4396e-06 -3.70317e-06 0.0997486)
(3.9776e-05 3.97944e-05 0.101717)
(3.55366e-06 4.32932e-06 0.0997544)
(4.32256e-06 3.54897e-06 0.099754)
(1.22078e-08 -7.4681e-06 0.100776)
(7.52721e-07 5.83138e-06 0.0963706)
(-2.33361e-08 7.30402e-06 0.100772)
(-9.41784e-07 -5.70231e-06 0.0963768)
(-1.52332e-06 1.97348e-06 0.0868119)
(1.4419e-06 -1.97918e-06 0.0868183)
(-7.51249e-06 4.76224e-09 0.100775)
(5.85209e-06 7.34838e-07 0.0963705)
(7.34792e-06 -1.1466e-08 0.100772)
(-5.71523e-06 -9.24064e-07 0.0963768)
(4.83031e-07 -4.83283e-07 0.101748)
(-4.8031e-07 4.82909e-07 0.101748)
(4.79818e-07 4.81782e-07 0.101748)
(-4.85096e-07 -4.80027e-07 0.101748)
(4.82359e-07 -4.80711e-07 0.101748)
(-4.79052e-07 4.8106e-07 0.101748)
(4.77774e-07 4.786e-07 0.101748)
(1.23127e-05 -7.353e-09 0.101565)
(-1.15403e-05 3.4137e-06 0.100952)
(-4.03254e-07 -1.48154e-07 0.101745)
(-3.22009e-07 5.15207e-07 0.101736)
(-1.24195e-05 -2.53222e-10 0.101564)
(1.11117e-05 -3.61404e-06 0.100957)
(-4.0168e-07 -1.48518e-07 0.101745)
(1.88088e-06 -1.46417e-06 0.0868097)
(-1.88111e-06 1.38617e-06 0.0868179)
(-6.98182e-11 1.23216e-05 0.101565)
(-1.49843e-07 -3.99334e-07 0.101745)
(3.44005e-06 -1.15792e-05 0.100952)
(5.1264e-07 -3.22002e-07 0.101736)
(-4.55657e-09 -1.24268e-05 0.101564)
(-1.50062e-07 -4.01017e-07 0.101745)
(-3.64248e-06 1.11488e-05 0.100956)
(-3.70746e-06 -4.45019e-06 0.0997489)
(-4.43974e-06 -3.70343e-06 0.0997486)
(3.97752e-05 3.9793e-05 0.101717)
(3.55407e-06 4.32913e-06 0.0997544)
(4.32304e-06 3.54928e-06 0.099754)
(-1.97579e-09 -7.46745e-06 0.100776)
(7.49997e-07 5.84866e-06 0.0963708)
(-2.94874e-08 7.30333e-06 0.100772)
(-1.01114e-06 -5.75192e-06 0.0963767)
(-1.52778e-06 1.98175e-06 0.0868119)
(1.4355e-06 -1.9162e-06 0.0868182)
(-7.51184e-06 5.02417e-09 0.100775)
(5.85592e-06 7.38618e-07 0.0963706)
(7.34879e-06 -1.18893e-08 0.100772)
(-5.7168e-06 -9.28768e-07 0.0963766)
(4.82475e-07 -4.79151e-07 0.101748)
(-4.78537e-07 4.81359e-07 0.101748)
(4.76007e-07 4.76235e-07 0.101748)