/*--------------------------------*- C++ -*----------------------------------*\
| =========                 |                                                 |
| \\      /  F ield         | OpenFOAM: The Open Source CFD Toolbox           |
|  \\    /   O peration     | Version:  2206                                  |
|   \\  /    A nd           | Website:  www.openfoam.com                      |
|    \\/     M anipulation  |                                                 |
\*---------------------------------------------------------------------------*/
FoamFile
{
    version     2.0;
    format      ascii;
    arch        "LSB;label=32;scalar=64";
    class       surfaceScalarField;
    location    "19";
    object      phi;
}
// * * * * * * * * * * * * * * * * * * * * * * * * * * * * * * * * * * * * * //

dimensions      [0 3 -1 0 0 0 0];

oriented        oriented;

internalField   nonuniform List<scalar> 
83348
(
1.30801e-09
1.43389e-09
-0.00107606
-1.31726e-09
-1.26485e-09
0.00107606
-0.00107649
-1.18804e-06
-1.35212e-09
2.13199e-09
0.00107649
-2.42195e-07
1.1902e-06
2.41366e-07
8.69391e-07
-2.33558e-07
-8.69214e-07
2.31422e-07
-0.00107615
-1.18268e-06
-1.40969e-09
2.05334e-09
0.00107615
-2.39432e-07
1.18485e-06
2.38643e-07
8.69245e-07
-2.36142e-07
-8.69069e-07
2.34103e-07
-0.000264646
1.21607e-06
1.1828e-06
-2.21518e-07
-2.26747e-07
0.000262696
1.5977e-09
1.7179e-09
-0.00107606
-1.42158e-09
-1.3779e-09
0.00107606
-0.00107648
-1.18799e-06
-1.5823e-09
2.01865e-09
0.00107648
-2.42129e-07
1.19025e-06
2.41436e-07
8.69455e-07
-2.33465e-07
-8.69162e-07
2.31534e-07
-0.00107615
-1.18262e-06
-1.704e-09
1.90517e-09
0.00107615
-2.39356e-07
1.1849e-06
2.38718e-07
8.69307e-07
-2.36038e-07
-8.69011e-07
2.34219e-07
-0.000264646
1.21601e-06
1.18274e-06
-2.21452e-07
-2.26674e-07
0.000262695
1.98453e-09
2.0544e-09
-0.00107606
-1.5345e-09
-1.53595e-09
0.00107605
-0.00107648
-1.18796e-06
-1.78135e-09
1.94234e-09
0.00107648
-2.42098e-07
1.19029e-06
2.41481e-07
8.69496e-07
-2.3341e-07
-8.69147e-07
2.31606e-07
-0.00107614
-1.18258e-06
-2.06459e-09
1.72991e-09
0.00107614
-2.39319e-07
1.18502e-06
2.38843e-07
8.69446e-07
-2.35992e-07
-8.68979e-07
2.34355e-07
-0.000264645
1.216e-06
1.18269e-06
-2.21411e-07
-2.26681e-07
0.000262695
-1.11274e-10
-1.44102e-10
-0.00107605
-5.01477e-10
-6.35428e-10
0.00107606
-0.00107648
-1.18822e-06
-5.13557e-10
2.45775e-09
0.00107648
-2.42396e-07
1.18997e-06
2.4111e-07
8.6901e-07
-2.33838e-07
-8.69588e-07
2.31068e-07
-0.00107614
-1.18306e-06
1.00649e-10
2.79506e-09
0.00107614
-2.39907e-07
1.18451e-06
2.38222e-07
8.68702e-07
-2.36833e-07
-8.69693e-07
2.33409e-07
-0.000264645
1.2165e-06
1.18309e-06
-2.21878e-07
-2.27263e-07
0.000262694
1.02991e-09
1.212e-09
-0.00107606
-1.26575e-09
-1.15148e-09
0.00107606
-0.00107649
-1.18813e-06
-8.8803e-10
2.25927e-09
0.00107649
-2.42308e-07
1.19023e-06
2.41403e-07
8.69337e-07
-2.34e-07
-8.69432e-07
2.31216e-07
-0.00107615
-1.18273e-06
-1.1715e-09
2.05856e-09
0.00107615
-2.39485e-07
1.18489e-06
2.38701e-07
8.6923e-07
-2.36433e-07
-8.69223e-07
2.33997e-07
-0.000264646
1.2161e-06
1.18288e-06
-2.21606e-07
-2.26801e-07
0.000262696
1.18033e-09
1.30159e-09
-0.00107606
-1.26491e-09
-1.2195e-09
0.00107606
-0.00107649
-1.18807e-06
-1.27454e-09
2.11312e-09
0.00107649
-2.42235e-07
1.19024e-06
2.41425e-07
8.69413e-07
-2.33693e-07
-8.69323e-07
2.31428e-07
-0.00107615
-1.18272e-06
-1.2843e-09
2.08904e-09
0.00107615
-2.3949e-07
1.18488e-06
2.38678e-07
8.69243e-07
-2.36299e-07
-8.69194e-07
2.34078e-07
-0.000264646
1.21612e-06
1.18285e-06
-2.21563e-07
-2.26796e-07
0.000262696
1.17919e-09
1.28113e-09
-0.00107606
-1.24298e-09
-1.21826e-09
0.00107606
-0.00107649
-1.18808e-06
-1.28403e-09
2.12596e-09
0.00107649
-2.42246e-07
1.19024e-06
2.41417e-07
8.69414e-07
-2.33693e-07
-8.69321e-07
2.31427e-07
-0.00107615
-1.18273e-06
-1.27515e-09
2.1078e-09
0.00107615
-2.39496e-07
1.18487e-06
2.38673e-07
8.69242e-07
-2.363e-07
-8.69195e-07
2.34076e-07
-0.000264646
1.21612e-06
1.18284e-06
-2.21563e-07
-2.268e-07
0.000262696
1.1854e-09
1.28355e-09
-0.00107606
-1.24345e-09
-1.22228e-09
0.00107606
-0.00107649
-1.18808e-06
-1.28516e-09
2.12452e-09
0.00107649
-2.42244e-07
1.19024e-06
2.41417e-07
8.69415e-07
-2.33692e-07
-8.6932e-07
2.31427e-07
-0.00107615
-1.18273e-06
-1.27514e-09
2.10825e-09
0.00107615
-2.39496e-07
1.18487e-06
2.38673e-07
8.69243e-07
-2.363e-07
-8.69194e-07
2.34077e-07
-0.000264646
1.21612e-06
1.18284e-06
-2.21561e-07
-2.268e-07
0.000262696
1.18387e-09
1.28365e-09
-0.00107606
-1.24372e-09
-1.22276e-09
0.00107606
-0.00107649
-1.18808e-06
-1.28871e-09
2.12511e-09
0.00107649
-2.42245e-07
1.19024e-06
2.41417e-07
8.69415e-07
-2.33692e-07
-8.6932e-07
2.31428e-07
-0.00107615
-1.18273e-06
-1.27552e-09
2.10868e-09
0.00107615
-2.39497e-07
1.18487e-06
2.38673e-07
8.69247e-07
-2.36302e-07
-8.69196e-07
2.34081e-07
-0.000264646
1.21612e-06
1.18284e-06
-2.2156e-07
-2.268e-07
0.000262696
1.17569e-09
1.26254e-09
-0.00107606
-1.25787e-09
-1.2374e-09
0.00107606
-0.00107649
-1.18808e-06
-1.29298e-09
2.12721e-09
0.00107649
-2.42248e-07
1.19024e-06
2.41417e-07
8.69417e-07
-2.33689e-07
-8.69317e-07
2.3143e-07
-0.00107615
-1.18272e-06
-1.26594e-09
2.09213e-09
0.00107615
-2.39493e-07
1.18488e-06
2.38677e-07
8.69246e-07
-2.36306e-07
-8.69199e-07
2.3408e-07
-0.000264646
1.21613e-06
1.18283e-06
-2.21554e-07
-2.26801e-07
0.000262696
1.09919e-09
-8.88776e-09
-0.00107605
-1.25115e-09
-1.20889e-09
0.00107606
-0.00107649
-1.18809e-06
-1.29943e-09
2.11863e-09
0.00107649
-2.42201e-07
1.19025e-06
2.41401e-07
8.69417e-07
-2.33688e-07
-8.69317e-07
2.31429e-07
-0.00107615
-1.18273e-06
-1.26367e-09
2.1009e-09
0.00107615
-2.39495e-07
1.18487e-06
2.38675e-07
8.69244e-07
-2.36309e-07
-8.69202e-07
2.34078e-07
-0.000264646
1.21612e-06
1.18284e-06
-2.21558e-07
-2.26803e-07
0.000262696
1.13341e-09
1.30249e-09
-0.00107606
-1.26364e-09
-1.19904e-09
0.00107606
-0.00107649
-1.18813e-06
-1.26021e-09
2.21603e-09
0.00107649
-2.3955e-07
1.19021e-06
2.38618e-07
8.69421e-07
-2.33666e-07
-8.69319e-07
2.31409e-07
-0.00107615
-1.18273e-06
-1.28147e-09
2.10808e-09
0.00107615
-2.39496e-07
1.18487e-06
2.38675e-07
8.69246e-07
-2.36307e-07
-8.69201e-07
2.3408e-07
-0.000264646
1.21612e-06
1.18284e-06
-2.21563e-07
-2.26797e-07
0.000262696
1.13127e-09
1.26803e-09
-0.00107606
-1.23313e-09
-1.20155e-09
0.00107606
-0.00107649
-1.18809e-06
-1.26489e-09
2.14271e-09
0.00107649
-2.39508e-07
1.19024e-06
2.38658e-07
8.6941e-07
-2.33664e-07
-8.69323e-07
2.31405e-07
-0.00107615
-1.18273e-06
-1.27272e-09
2.11523e-09
0.00107615
-2.39497e-07
1.18487e-06
2.38673e-07
8.69243e-07
-2.36309e-07
-8.69203e-07
2.34077e-07
-0.000264646
1.21612e-06
1.18285e-06
-2.21565e-07
-2.268e-07
0.000262696
1.15069e-09
1.26466e-09
-0.00107606
-1.2284e-09
-1.21281e-09
0.00107606
-0.00107649
-1.18809e-06
-1.27828e-09
2.13768e-09
0.00107649
-2.39509e-07
1.19025e-06
2.3866e-07
8.69415e-07
-2.33665e-07
-8.69322e-07
2.31409e-07
-0.00107615
-1.18273e-06
-1.27726e-09
2.11525e-09
0.00107615
-2.39498e-07
1.18487e-06
2.38674e-07
8.69245e-07
-2.36309e-07
-8.69201e-07
2.3408e-07
-0.000264646
1.21612e-06
1.18284e-06
-2.21564e-07
-2.26801e-07
0.000262696
1.16644e-09
1.26512e-09
-0.00107606
-1.23055e-09
-1.22329e-09
0.00107606
-0.00107649
-1.18808e-06
-1.27853e-09
2.1326e-09
0.00107649
-2.39504e-07
1.19025e-06
2.38658e-07
8.69409e-07
-2.33659e-07
-8.69318e-07
2.31399e-07
-0.00107615
-1.18273e-06
-1.27558e-09
2.10939e-09
0.00107615
-2.39492e-07
1.18487e-06
2.38671e-07
8.6924e-07
-2.36302e-07
-8.69197e-07
2.34072e-07
-0.000264646
1.21612e-06
1.18284e-06
-2.21558e-07
-2.26796e-07
0.000262696
1.17571e-09
1.26802e-09
-0.00107606
-1.23154e-09
-1.22584e-09
0.00107606
-0.00107649
-1.18808e-06
-1.29038e-09
2.12725e-09
0.00107649
-2.39502e-07
1.19025e-06
2.38657e-07
8.69408e-07
-2.33657e-07
-8.69315e-07
2.31397e-07
-0.00107615
-1.18272e-06
-1.28809e-09
2.10784e-09
0.00107615
-2.3949e-07
1.18487e-06
2.3867e-07
8.69239e-07
-2.36299e-07
-8.69195e-07
2.3407e-07
-0.000264646
1.21612e-06
1.18284e-06
-2.21557e-07
-2.26795e-07
0.000262696
1.17806e-09
1.26914e-09
-0.00107606
-1.23128e-09
-1.22661e-09
0.00107606
-0.00107649
-1.18808e-06
-1.29015e-09
2.12641e-09
0.00107649
-2.39497e-07
1.19024e-06
2.38654e-07
8.69402e-07
-2.33645e-07
-8.69303e-07
2.31389e-07
-0.00107615
-1.18272e-06
-1.2882e-09
2.10865e-09
0.00107615
-2.39485e-07
1.18487e-06
2.38667e-07
8.69232e-07
-2.36286e-07
-8.69183e-07
2.34063e-07
-0.000264646
1.21611e-06
1.18283e-06
-2.21552e-07
-2.2679e-07
0.000262696
1.20717e-09
1.30407e-09
-0.00107606
-1.2436e-09
-1.23713e-09
-0.00107649
-1.18805e-06
-1.31808e-09
2.12084e-09
-2.39462e-07
1.19022e-06
2.38621e-07
8.69374e-07
-2.33588e-07
-8.69253e-07
2.31361e-07
-0.00107615
-1.18269e-06
-1.31539e-09
2.10454e-09
-2.39451e-07
1.18485e-06
2.38633e-07
8.69204e-07
-2.3623e-07
-8.69132e-07
2.34034e-07
-0.000264646
1.21609e-06
1.18281e-06
-2.21527e-07
-2.26764e-07
0.000262696
-1.22613e-06
-1.18759e-06
0.000264662
-0.000262701
2.21174e-07
2.31423e-07
0.0010757
-1.21908e-09
-0.0010757
2.22009e-09
-1.22401e-06
2.46643e-07
-2.47547e-07
-8.71836e-07
2.28614e-07
-2.30841e-07
8.71942e-07
1.2289e-06
0.00107615
-1.21026e-09
-0.00107615
2.24415e-09
-1.22678e-06
2.46702e-07
-2.47618e-07
-8.77461e-07
2.34092e-07
-2.36336e-07
8.77544e-07
-1.1902e-06
0.000264685
-0.000262719
2.23896e-07
2.28709e-07
0.00107676
-1.38698e-09
-0.00107676
2.09535e-09
-1.18545e-06
2.41397e-07
-2.42225e-07
-8.7192e-07
2.3415e-07
-2.36295e-07
8.7214e-07
1.22355e-06
0.00107582
-1.23811e-09
-0.00107582
2.21491e-09
-1.22144e-06
2.46694e-07
-2.47603e-07
-8.71902e-07
2.34061e-07
-2.36258e-07
8.72008e-07
-1.31283e-09
2.13555e-09
-1.18804e-06
2.41359e-07
-2.42197e-07
-8.69239e-07
2.31386e-07
8.69372e-07
-2.33603e-07
1.2182e-06
0.00107562
-1.20667e-09
-0.00107562
2.21377e-09
-1.21608e-06
2.41203e-07
-2.42085e-07
-8.69236e-07
2.31291e-07
-2.33519e-07
8.69309e-07
-1.18483e-06
0.000264641
-0.000262683
2.21341e-07
2.28681e-07
-1.35747e-09
-0.00107615
2.08941e-09
-1.18269e-06
2.38619e-07
-2.39447e-07
-8.69049e-07
2.34048e-07
8.69276e-07
-2.36201e-07
1.18493e-06
0.00107666
-1.35637e-09
-0.00107666
2.12022e-09
-1.18281e-06
2.38668e-07
-2.39513e-07
-8.69332e-07
2.3414e-07
-2.3628e-07
8.69526e-07
-0.000262696
2.2365e-07
2.28909e-07
1.22399e-06
1.18544e-06
-2.19039e-07
-2.29249e-07
0.000262701
-1.22618e-06
-1.18763e-06
0.000264662
-0.000262701
2.21246e-07
2.31494e-07
2.17615e-09
0.0010757
-2.4753e-07
1.22615e-06
2.46669e-07
8.71968e-07
-2.30805e-07
-8.71796e-07
2.28651e-07
-1.22679e-06
-1.27136e-09
2.27417e-09
0.00107614
-2.47627e-07
1.23154e-06
2.49417e-07
8.77562e-07
-2.36291e-07
-8.7743e-07
2.34122e-07
0.0010757
-1.42845e-09
-0.0010757
2.10285e-09
-1.22396e-06
2.46715e-07
-2.47478e-07
-8.71789e-07
2.2872e-07
-2.30746e-07
8.71996e-07
1.22893e-06
0.00107615
-1.40526e-09
-0.00107614
2.18279e-09
-1.2294e-06
2.46759e-07
-2.50283e-07
-8.77408e-07
2.34184e-07
-2.36241e-07
8.77597e-07
-2.21746e-07
-2.26566e-07
0.000262719
-1.19023e-06
0.000264685
-0.000262719
2.23955e-07
2.28762e-07
2.06293e-09
0.00107676
-2.4221e-07
1.1876e-06
2.41421e-07
8.72162e-07
-2.36261e-07
-8.71893e-07
2.34182e-07
-1.22142e-06
-1.31172e-09
2.18211e-09
0.00107582
-2.47586e-07
1.22357e-06
2.46718e-07
8.7203e-07
-2.36216e-07
-8.7187e-07
2.341e-07
0.00107676
-1.61599e-09
-0.00107676
1.99246e-09
-1.18541e-06
2.41468e-07
-2.4216e-07
-8.71867e-07
2.34256e-07
-2.36199e-07
8.72201e-07
1.22359e-06
0.00107582
-1.45383e-09
-0.00107582
2.11197e-09
-1.22139e-06
2.46767e-07
-2.47534e-07
-8.71857e-07
2.34165e-07
-2.36163e-07
8.7206e-07
-1.26661e-09
2.16318e-09
0.00107562
-2.42066e-07
1.21821e-06
2.41226e-07
8.6933e-07
-2.33476e-07
2.31327e-07
-8.69208e-07
-1.47095e-09
-0.00107648
2.05383e-09
-1.18801e-06
2.41413e-07
-2.42145e-07
-8.69192e-07
2.31481e-07
8.69414e-07
-2.33502e-07
1.21824e-06
0.00107562
-1.38745e-09
-0.00107562
2.09343e-09
-1.21604e-06
2.41278e-07
-2.42016e-07
-8.6919e-07
2.31382e-07
-2.33425e-07
8.69356e-07
-2.19187e-07
-2.26526e-07
0.000262683
-1.18488e-06
0.000264641
-0.000262682
2.21412e-07
2.28752e-07
-1.42591e-09
2.0953e-09
0.00107666
-2.39497e-07
1.18494e-06
2.3869e-07
8.69548e-07
-2.3624e-07
2.34172e-07
-8.693e-07
-1.58073e-09
-0.00107615
1.98427e-09
-1.18265e-06
2.38691e-07
-2.39381e-07
-8.68996e-07
2.34153e-07
8.69336e-07
-2.36106e-07
1.18497e-06
0.00107666
-1.59127e-09
-0.00107666
2.02377e-09
-1.18277e-06
2.38738e-07
-2.39447e-07
-8.69278e-07
2.34246e-07
-2.36183e-07
8.69587e-07
-0.000262695
2.23712e-07
2.28978e-07
1.22394e-06
1.18539e-06
-2.18966e-07
-2.29181e-07
0.0002627
-1.22618e-06
-1.18765e-06
0.000264661
-0.0002627
2.21291e-07
2.31527e-07
2.02674e-09
0.0010757
-2.47456e-07
1.2262e-06
2.4674e-07
8.7203e-07
-2.30698e-07
-8.7174e-07
2.28769e-07
-1.22674e-06
-1.52405e-09
2.14223e-09
0.00107614
-2.47558e-07
1.2316e-06
2.49497e-07
8.77624e-07
-2.36198e-07
-8.77375e-07
2.34236e-07
0.0010757
-1.58718e-09
-0.0010757
2.10778e-09
-1.22395e-06
2.46727e-07
-2.47463e-07
-8.71751e-07
2.28772e-07
-2.30689e-07
8.7202e-07
1.23164e-06
0.00107614
-1.5341e-09
-0.00107614
2.11321e-09
-1.22934e-06
2.49552e-07
-2.50228e-07
-8.77361e-07
2.34281e-07
-2.36157e-07
8.77634e-07
-2.21686e-07
-2.26512e-07
0.000262719
-1.19028e-06
0.000264687
-0.000262718
2.24081e-07
2.28872e-07
1.90701e-09
0.00107676
-2.42134e-07
1.18766e-06
2.41495e-07
8.72224e-07
-2.36155e-07
-8.71835e-07
2.34298e-07
-1.22137e-06
-1.59631e-09
2.02674e-09
0.00107582
-2.47509e-07
1.22362e-06
2.46794e-07
8.72091e-07
-2.36112e-07
-8.71816e-07
2.34215e-07
0.00107676
-1.71877e-09
-0.00107676
1.94023e-09
-1.18538e-06
2.41493e-07
-2.42132e-07
-8.71846e-07
2.34298e-07
-2.36151e-07
8.72208e-07
1.22361e-06
0.00107582
-1.57581e-09
-0.00107582
2.07559e-09
-1.22137e-06
2.46787e-07
-2.47512e-07
-8.71826e-07
2.34213e-07
-2.3611e-07
8.72077e-07
-1.52864e-09
2.02781e-09
0.00107562
-2.41985e-07
1.21826e-06
2.41299e-07
8.69394e-07
-2.33388e-07
2.31431e-07
-8.69156e-07
-1.61085e-09
-0.00107648
2.0099e-09
-1.18795e-06
2.41477e-07
-2.42088e-07
-8.69119e-07
2.31592e-07
8.69489e-07
-2.33409e-07
1.21824e-06
0.00107562
-1.53216e-09
-0.00107562
2.11344e-09
-1.21601e-06
2.41279e-07
-2.4199e-07
-8.69132e-07
2.31464e-07
-2.33362e-07
8.69415e-07
-2.19116e-07
-2.26457e-07
0.000262682
-1.18489e-06
0.00026464
-0.000262682
2.21448e-07
2.28792e-07
-1.72369e-09
1.93828e-09
0.00107666
-2.39421e-07
1.185e-06
2.38765e-07
8.69613e-07
-2.36132e-07
2.34292e-07
-8.6924e-07
-1.70914e-09
-0.00107614
1.96602e-09
-1.18263e-06
2.38708e-07
-2.39359e-07
-8.68968e-07
2.34202e-07
8.69351e-07
-2.36051e-07
1.185e-06
0.00107666
-1.69703e-09
-0.00107666
1.96529e-09
-1.18273e-06
2.38765e-07
-2.39422e-07
-8.69251e-07
2.34291e-07
-2.36129e-07
8.69596e-07
-0.000262695
2.23784e-07
2.29007e-07
1.2239e-06
1.18533e-06
-2.1894e-07
-2.29167e-07
0.0002627
-1.22588e-06
-1.18739e-06
0.00026466
-0.000262699
2.20939e-07
2.31142e-07
1.85522e-09
0.0010757
-2.47423e-07
1.22632e-06
2.46862e-07
8.72177e-07
-2.30653e-07
-8.71702e-07
2.28909e-07
-1.22934e-06
-1.7704e-09
2.02938e-09
0.00107614
-2.50215e-07
1.23166e-06
2.49573e-07
8.777e-07
-2.36151e-07
-8.77364e-07
2.34307e-07
0.0010757
-4.67571e-10
-0.0010757
2.94282e-09
-1.22418e-06
2.46354e-07
-2.47768e-07
-8.72072e-07
2.28321e-07
-2.31027e-07
8.71626e-07
1.23168e-06
0.00107614
-9.78674e-10
-0.00107614
1.90487e-09
-1.22927e-06
2.49575e-07
-2.50162e-07
-8.77573e-07
2.34067e-07
-2.36274e-07
8.77356e-07
-2.21671e-07
-2.2644e-07
0.000262718
-1.19024e-06
0.000264687
-0.000262717
2.24004e-07
2.28881e-07
1.68613e-09
0.00107676
-2.42087e-07
1.18779e-06
2.41633e-07
8.72355e-07
-2.3612e-07
-8.71813e-07
2.34426e-07
-1.22132e-06
-1.93358e-09
1.83417e-09
0.00107582
-2.47469e-07
1.22374e-06
2.46922e-07
8.72226e-07
-2.36074e-07
-8.71788e-07
2.34346e-07
0.00107676
-3.91028e-10
-0.00107676
2.50475e-09
-1.18558e-06
2.41159e-07
-2.42401e-07
-8.72205e-07
2.33813e-07
-2.36522e-07
8.71777e-07
1.22333e-06
0.00107581
-3.11673e-10
-0.00107581
2.69259e-09
-1.22158e-06
2.46441e-07
-2.47791e-07
-8.72175e-07
2.33742e-07
-2.36469e-07
8.71655e-07
-1.85094e-09
1.89537e-09
0.00107561
-2.41986e-07
1.21835e-06
2.41386e-07
8.69488e-07
-2.33324e-07
2.31556e-07
-8.69119e-07
-1.51347e-09
-0.00107648
1.97767e-09
-1.18794e-06
2.41448e-07
-2.4207e-07
-8.69179e-07
2.31522e-07
8.69362e-07
-2.33426e-07
1.21794e-06
0.00107561
-8.98076e-10
-0.00107561
2.87064e-09
-1.21625e-06
2.40908e-07
-2.4229e-07
-8.69275e-07
2.31221e-07
-2.33521e-07
8.69195e-07
-2.191e-07
-2.26436e-07
0.000262682
-1.18461e-06
0.000264639
-0.000262681
2.21085e-07
2.28424e-07
-2.06934e-09
1.71422e-09
0.00107666
-2.39371e-07
1.18512e-06
2.38902e-07
8.69737e-07
-2.36098e-07
2.34414e-07
-8.6922e-07
-4.8804e-10
-0.00107614
2.6235e-09
-1.18284e-06
2.38358e-07
-2.39644e-07
-8.69313e-07
2.33731e-07
8.6893e-07
-2.36405e-07
1.18483e-06
0.00107666
-3.4784e-10
-0.00107666
2.36912e-09
-1.18285e-06
2.38498e-07
-2.39627e-07
-8.69618e-07
2.33797e-07
-2.36502e-07
8.6915e-07
-0.000262694
2.23544e-07
2.28617e-07
1.2244e-06
1.1858e-06
-2.19494e-07
-2.29747e-07
0.000262699
-1.22617e-06
-1.1876e-06
0.000264662
-0.000262701
2.21147e-07
2.31411e-07
3.06808e-09
0.0010757
-2.48032e-07
1.22579e-06
2.46224e-07
8.7145e-07
-2.31478e-07
-8.72393e-07
2.27976e-07
-1.22955e-06
-9.33903e-11
2.43394e-09
0.00107614
-2.50468e-07
1.23139e-06
2.49244e-07
8.77098e-07
-2.36751e-07
-8.77937e-07
2.33577e-07
0.0010757
-7.58828e-10
-0.0010757
2.19612e-09
-1.2241e-06
2.46697e-07
-2.47646e-07
-8.72071e-07
2.28399e-07
-2.3129e-07
8.71884e-07
1.23145e-06
0.00107614
-5.51631e-10
-0.00107614
2.67105e-09
-1.22969e-06
2.493e-07
-2.5065e-07
-8.77717e-07
2.33788e-07
-2.36893e-07
8.7746e-07
-2.21974e-07
-2.26669e-07
0.000262717
-1.19014e-06
0.000264688
-0.000262719
2.23809e-07
2.28541e-07
2.71039e-09
0.00107676
-2.42664e-07
1.18728e-06
2.41021e-07
8.71609e-07
-2.3697e-07
-8.72531e-07
2.33475e-07
-1.2218e-06
2.00504e-10
2.89364e-09
0.00107582
-2.48054e-07
1.22323e-06
2.46307e-07
8.71484e-07
-2.36913e-07
-8.725e-07
2.33404e-07
0.00107676
-1.00566e-09
-0.00107676
2.18415e-09
-1.18556e-06
2.41431e-07
-2.42342e-07
-8.7213e-07
2.3395e-07
-2.36726e-07
8.72105e-07
1.22357e-06
0.00107582
-8.30301e-10
-0.00107582
2.28696e-09
-1.22153e-06
2.46736e-07
-2.47713e-07
-8.72124e-07
2.33856e-07
-2.367e-07
8.71964e-07
-3.1122e-11
3.07411e-09
0.00107561
-2.426e-07
1.21781e-06
2.40741e-07
8.68879e-07
-2.33954e-07
2.30806e-07
-8.6967e-07
-5.03587e-10
-0.00107648
2.46571e-09
-1.18825e-06
2.41276e-07
-2.42478e-07
-8.69564e-07
2.30995e-07
8.69244e-07
-2.34238e-07
1.21824e-06
0.00107562
-6.15343e-10
-0.00107562
2.19142e-09
-1.21616e-06
2.4127e-07
-2.4217e-07
-8.69533e-07
2.30991e-07
-2.34069e-07
8.69216e-07
-2.19663e-07
-2.27e-07
0.000262681
-1.18485e-06
0.000264641
-0.000262683
2.21322e-07
2.28662e-07
1.52445e-10
2.65239e-09
0.00107666
-2.39893e-07
1.18467e-06
2.38337e-07
8.6898e-07
-2.36958e-07
2.33453e-07
-8.69951e-07
-9.47036e-10
-0.00107615
2.14235e-09
-1.18279e-06
2.3866e-07
-2.39559e-07
-8.6926e-07
2.33845e-07
8.69237e-07
-2.36633e-07
1.18492e-06
0.00107666
-9.78913e-10
-0.00107666
2.26689e-09
-1.18295e-06
2.38674e-07
-2.39659e-07
-8.69536e-07
2.33942e-07
-2.3671e-07
8.69496e-07
-0.000262695
2.23591e-07
2.28904e-07
1.22404e-06
1.1855e-06
-2.19107e-07
-2.29307e-07
0.000262701
-1.22618e-06
-1.18763e-06
0.000264662
-0.000262701
2.21204e-07
2.31455e-07
2.12204e-09
0.0010757
-2.47575e-07
1.2262e-06
2.46733e-07
8.71949e-07
-2.31105e-07
-8.71963e-07
2.28542e-07
-1.22956e-06
-8.9774e-10
2.44835e-09
0.00107614
-2.50484e-07
1.23155e-06
2.49435e-07
8.77521e-07
-2.36651e-07
-8.7762e-07
2.33979e-07
0.0010757
-1.15893e-09
-0.0010757
2.19364e-09
-1.22403e-06
2.46709e-07
-2.4758e-07
-8.71933e-07
2.28624e-07
-2.30962e-07
8.71963e-07
1.2316e-06
0.00107614
-1.16721e-09
-0.00107614
2.24801e-09
-1.22946e-06
2.49497e-07
-2.50365e-07
-8.77554e-07
2.34108e-07
-2.36447e-07
8.77569e-07
-2.21902e-07
-2.26725e-07
0.000262719
-1.19025e-06
0.000264688
-0.000262719
2.23974e-07
2.28757e-07
2.11039e-09
0.00107676
-2.42273e-07
1.18763e-06
2.41468e-07
8.7215e-07
-2.36549e-07
-8.72044e-07
2.34079e-07
-1.22148e-06
-1.08237e-09
2.20302e-09
0.00107582
-2.47642e-07
1.2236e-06
2.46772e-07
8.72024e-07
-2.36506e-07
-8.72023e-07
2.34002e-07
0.00107676
-1.34373e-09
-0.00107676
2.09461e-09
-1.18549e-06
2.41457e-07
-2.42264e-07
-8.72012e-07
2.34162e-07
-2.36412e-07
8.72167e-07
1.2236e-06
0.00107582
-1.19749e-09
-0.00107582
2.20353e-09
-1.22147e-06
2.46757e-07
-2.47639e-07
-8.71998e-07
2.34075e-07
-2.36375e-07
8.72031e-07
-9.07421e-10
2.11884e-09
0.00107562
-2.42102e-07
1.21826e-06
2.41298e-07
8.69304e-07
-2.33847e-07
2.31169e-07
-8.69397e-07
-1.27336e-09
-0.00107649
2.10699e-09
-1.18807e-06
2.41432e-07
-2.42224e-07
-8.69326e-07
2.31426e-07
8.69413e-07
-2.33702e-07
1.21824e-06
0.00107562
-1.15227e-09
-0.00107562
2.19138e-09
-1.21611e-06
2.41267e-07
-2.42118e-07
-8.69324e-07
2.31311e-07
-2.33636e-07
8.69347e-07
-2.19246e-07
-2.26591e-07
0.000262683
-1.18488e-06
0.000264641
-0.000262683
2.21373e-07
2.28711e-07
-1.20736e-09
2.17834e-09
0.00107666
-2.39583e-07
1.18496e-06
2.38719e-07
8.69541e-07
-2.36525e-07
2.34074e-07
-8.69447e-07
-1.30752e-09
-0.00107615
2.07027e-09
-1.18272e-06
2.38684e-07
-2.3948e-07
-8.69142e-07
2.34059e-07
8.69301e-07
-2.3632e-07
1.18498e-06
0.00107666
-1.30299e-09
-0.00107666
2.12607e-09
-1.18284e-06
2.38727e-07
-2.39554e-07
-8.69424e-07
2.3415e-07
-2.36397e-07
8.6955e-07
-0.000262696
2.23682e-07
2.28936e-07
1.22404e-06
1.18549e-06
-2.19085e-07
-2.29296e-07
0.000262701
-1.22617e-06
-1.18763e-06
0.000264662
-0.000262701
2.21203e-07
2.31448e-07
2.21803e-09
0.0010757
-2.47588e-07
1.22618e-06
2.46703e-07
8.71969e-07
-2.30963e-07
-8.71923e-07
2.28627e-07
-1.22946e-06
-1.17165e-09
2.24907e-09
0.00107614
-2.50372e-07
1.2316e-06
2.4949e-07
8.77571e-07
-2.36442e-07
-8.77549e-07
2.34111e-07
0.0010757
-1.15442e-09
-0.0010757
2.23893e-09
-1.22405e-06
2.46696e-07
-2.47595e-07
-8.71935e-07
2.28625e-07
-2.30964e-07
8.71964e-07
1.2316e-06
0.00107614
-1.16374e-09
-0.00107614
2.2488e-09
-1.22947e-06
2.49485e-07
-2.50378e-07
-8.7755e-07
2.34107e-07
-2.36446e-07
8.77572e-07
-2.21815e-07
-2.26598e-07
0.000262719
-1.19024e-06
0.000264688
-0.000262719
2.23967e-07
2.2875e-07
2.10558e-09
0.00107676
-2.42271e-07
1.18763e-06
2.41453e-07
8.7216e-07
-2.36417e-07
-8.72018e-07
2.34157e-07
-1.22147e-06
-1.18676e-09
2.21957e-09
0.00107582
-2.47645e-07
1.22359e-06
2.46753e-07
8.72031e-07
-2.36373e-07
-8.71998e-07
2.34077e-07
0.00107676
-1.31326e-09
-0.00107676
2.10228e-09
-1.18549e-06
2.41452e-07
-2.42272e-07
-8.72017e-07
2.34157e-07
-2.36417e-07
8.72163e-07
1.22359e-06
0.00107582
-1.16947e-09
-0.00107582
2.2232e-09
-1.22147e-06
2.4675e-07
-2.47649e-07
-8.72002e-07
2.3407e-07
-2.36379e-07
8.72027e-07
-1.15167e-09
2.21482e-09
0.00107562
-2.42126e-07
1.21824e-06
2.41259e-07
8.69345e-07
-2.3363e-07
2.31311e-07
-8.69324e-07
-1.2922e-09
-0.00107649
2.12627e-09
-1.18808e-06
2.41417e-07
-2.42244e-07
-8.6932e-07
2.31429e-07
8.69417e-07
-2.33694e-07
1.21824e-06
0.00107562
-1.17211e-09
-0.00107562
2.22917e-09
-1.21612e-06
2.41256e-07
-2.42132e-07
-8.69322e-07
2.31316e-07
-2.33628e-07
8.6935e-07
-2.19232e-07
-2.26573e-07
0.000262683
-1.18487e-06
0.000264641
-0.000262683
2.21368e-07
2.28708e-07
-1.28921e-09
2.13614e-09
0.00107666
-2.39557e-07
1.18497e-06
2.38724e-07
8.69546e-07
-2.36397e-07
2.34146e-07
-8.69426e-07
-1.29204e-09
-0.00107615
2.10075e-09
-1.18273e-06
2.38674e-07
-2.39493e-07
-8.69144e-07
2.34056e-07
8.69299e-07
-2.36321e-07
1.18498e-06
0.00107666
-1.2828e-09
-0.00107666
2.12e-09
-1.18284e-06
2.38726e-07
-2.39556e-07
-8.69428e-07
2.34146e-07
-2.364e-07
8.69548e-07
-0.000262696
2.23681e-07
2.28931e-07
1.22405e-06
1.18549e-06
-2.19088e-07
-2.29301e-07
0.000262701
-1.22617e-06
-1.18763e-06
0.000264662
-0.000262701
2.21207e-07
2.31448e-07
2.24352e-09
0.0010757
-2.47597e-07
1.22617e-06
2.46696e-07
8.7197e-07
-2.30966e-07
-8.71924e-07
2.28629e-07
-1.22947e-06
-1.16547e-09
2.24874e-09
0.00107614
-2.5038e-07
1.2316e-06
2.49484e-07
8.77571e-07
-2.36444e-07
-8.77549e-07
2.34109e-07
0.0010757
-1.16305e-09
-0.0010757
2.24019e-09
-1.22405e-06
2.46696e-07
-2.47595e-07
-8.71933e-07
2.2863e-07
-2.30965e-07
8.71967e-07
1.2316e-06
0.00107614
-1.17047e-09
-0.00107614
2.24406e-09
-1.22947e-06
2.49487e-07
-2.50377e-07
-8.77547e-07
2.34107e-07
-2.36444e-07
8.77572e-07
-2.21821e-07
-2.26604e-07
0.000262719
-1.19024e-06
0.000264688
-0.000262719
2.23968e-07
2.28752e-07
2.10641e-09
0.00107676
-2.42274e-07
1.18763e-06
2.41452e-07
8.72157e-07
-2.36421e-07
-8.72022e-07
2.34153e-07
-1.22147e-06
-1.16675e-09
2.22891e-09
0.00107582
-2.47649e-07
1.22359e-06
2.4675e-07
8.72028e-07
-2.36377e-07
-8.72001e-07
2.34073e-07
0.00107676
-1.31503e-09
-0.00107676
2.095e-09
-1.18549e-06
2.41454e-07
-2.4227e-07
-8.72016e-07
2.34158e-07
-2.36416e-07
8.72164e-07
1.22359e-06
0.00107582
-1.17153e-09
-0.00107582
2.22324e-09
-1.22147e-06
2.4675e-07
-2.47648e-07
-8.72001e-07
2.34071e-07
-2.36378e-07
8.72028e-07
-1.16589e-09
2.23247e-09
0.00107562
-2.42132e-07
1.21823e-06
2.41254e-07
8.69347e-07
-2.33627e-07
2.31313e-07
-8.69322e-07
-1.29965e-09
-0.00107649
2.12382e-09
-1.18808e-06
2.41418e-07
-2.42243e-07
-8.69318e-07
2.3143e-07
8.69419e-07
-2.33692e-07
1.21824e-06
0.00107562
-1.17948e-09
-0.00107562
2.23044e-09
-1.21612e-06
2.41256e-07
-2.42132e-07
-8.69321e-07
2.31317e-07
-2.33627e-07
8.69352e-07
-2.19236e-07
-2.26575e-07
0.000262683
-1.18487e-06
0.000264641
-0.000262683
2.21367e-07
2.28709e-07
-1.27834e-09
2.12704e-09
0.00107666
-2.39556e-07
1.18498e-06
2.38724e-07
8.69545e-07
-2.36399e-07
2.34144e-07
-8.69428e-07
-1.29456e-09
-0.00107615
2.10297e-09
-1.18273e-06
2.38673e-07
-2.39494e-07
-8.69143e-07
2.34058e-07
8.69301e-07
-2.3632e-07
1.18498e-06
0.00107666
-1.28249e-09
-0.00107666
2.11419e-09
-1.18284e-06
2.38728e-07
-2.39554e-07
-8.69428e-07
2.34145e-07
-2.36401e-07
8.69547e-07
-0.000262696
2.23683e-07
2.28931e-07
1.22405e-06
1.18549e-06
-2.19087e-07
-2.293e-07
0.000262701
-1.22617e-06
-1.18763e-06
0.000264662
-0.000262701
2.2121e-07
2.31447e-07
2.24312e-09
0.0010757
-2.47596e-07
1.22617e-06
2.46696e-07
8.71973e-07
-2.30968e-07
-8.71924e-07
2.28634e-07
-1.22947e-06
-1.17002e-09
2.24615e-09
0.00107614
-2.50378e-07
1.2316e-06
2.49485e-07
8.77571e-07
-2.36441e-07
-8.77546e-07
2.34108e-07
0.0010757
-1.16494e-09
-0.0010757
2.23813e-09
-1.22405e-06
2.46696e-07
-2.47595e-07
-8.71935e-07
2.28637e-07
-2.30971e-07
8.71968e-07
1.2316e-06
0.00107614
-1.16453e-09
-0.00107614
2.24953e-09
-1.22947e-06
2.49485e-07
-2.50378e-07
-8.77548e-07
2.34106e-07
-2.36446e-07
8.77571e-07
-2.21818e-07
-2.26602e-07
0.000262719
-1.19024e-06
0.000264688
-0.000262719
2.23967e-07
2.2875e-07
2.10082e-09
0.00107676
-2.42272e-07
1.18763e-06
2.41454e-07
8.72158e-07
-2.3642e-07
-8.7202e-07
2.34153e-07
-1.22147e-06
-1.16946e-09
2.22943e-09
0.00107582
-2.47649e-07
1.22359e-06
2.4675e-07
8.72029e-07
-2.36376e-07
-8.72e-07
2.34074e-07
0.00107676
-1.31321e-09
-0.00107676
2.09395e-09
-1.18549e-06
2.41455e-07
-2.42271e-07
-8.72017e-07
2.34156e-07
-2.36416e-07
8.72162e-07
1.22359e-06
0.00107582
-1.167e-09
-0.00107582
2.22665e-09
-1.22147e-06
2.46748e-07
-2.4765e-07
-8.72003e-07
2.3407e-07
-2.36379e-07
8.72027e-07
-1.16641e-09
2.23518e-09
0.00107562
-2.42133e-07
1.21823e-06
2.41254e-07
8.69347e-07
-2.33627e-07
2.31313e-07
-8.69322e-07
-1.29506e-09
-0.00107649
2.12598e-09
-1.18808e-06
2.41417e-07
-2.42245e-07
-8.69319e-07
2.31429e-07
8.69417e-07
-2.33693e-07
1.21823e-06
0.00107562
-1.17886e-09
-0.00107562
2.22987e-09
-1.21612e-06
2.41256e-07
-2.42132e-07
-8.69321e-07
2.31317e-07
-2.33627e-07
8.69351e-07
-2.19236e-07
-2.26575e-07
0.000262683
-1.18487e-06
0.000264641
-0.000262683
2.21366e-07
2.28707e-07
-1.27407e-09
2.12424e-09
0.00107666
-2.39555e-07
1.18498e-06
2.38726e-07
8.69544e-07
-2.364e-07
2.34143e-07
-8.69428e-07
-1.29168e-09
-0.00107615
2.10596e-09
-1.18273e-06
2.38672e-07
-2.39495e-07
-8.69145e-07
2.34059e-07
8.69302e-07
-2.36323e-07
1.18498e-06
0.00107666
-1.28179e-09
-0.00107666
2.11269e-09
-1.18284e-06
2.38728e-07
-2.39554e-07
-8.69428e-07
2.34145e-07
-2.36401e-07
8.69547e-07
-0.000262696
2.23683e-07
2.28931e-07
1.22405e-06
1.18549e-06
-2.1909e-07
-2.29299e-07
0.000262701
-1.22617e-06
-1.18764e-06
0.000264662
-0.000262701
2.21219e-07
2.31446e-07
2.24282e-09
0.0010757
-2.47596e-07
1.22617e-06
2.46695e-07
8.71974e-07
-2.30974e-07
-8.71926e-07
2.28641e-07
-1.22947e-06
-1.16941e-09
2.24544e-09
0.00107614
-2.50378e-07
1.2316e-06
2.49485e-07
8.77571e-07
-2.36441e-07
-8.77546e-07
2.34108e-07
0.0010757
-1.17277e-09
-0.0010757
2.22641e-09
-1.22404e-06
2.46701e-07
-2.4759e-07
-8.71931e-07
2.28655e-07
-2.30971e-07
8.71978e-07
1.2316e-06
0.00107614
-1.15094e-09
-0.00107614
2.25717e-09
-1.22946e-06
2.49489e-07
-2.50376e-07
-8.77548e-07
2.34099e-07
-2.36444e-07
8.77568e-07
-2.2182e-07
-2.26602e-07
0.000262719
-1.19024e-06
0.000264688
-0.000262719
2.23963e-07
2.28753e-07
2.09786e-09
0.00107676
-2.42272e-07
1.18763e-06
2.41455e-07
8.72156e-07
-2.36419e-07
-8.7202e-07
2.34151e-07
-1.22147e-06
-1.16749e-09
2.23027e-09
0.00107582
-2.4765e-07
1.22359e-06
2.46749e-07
8.72028e-07
-2.36376e-07
-8.72e-07
2.34074e-07
0.00107676
-1.30563e-09
-0.00107676
2.0852e-09
-1.18549e-06
2.41459e-07
-2.42268e-07
-8.72016e-07
2.34152e-07
-2.36414e-07
8.72158e-07
1.22359e-06
0.00107582
-1.16187e-09
-0.00107582
2.22536e-09
-1.22147e-06
2.46749e-07
-2.47649e-07
-8.72002e-07
2.34069e-07
-2.36379e-07
8.72027e-07
-1.16993e-09
2.23153e-09
0.00107562
-2.42132e-07
1.21823e-06
2.41254e-07
8.69348e-07
-2.33626e-07
2.31315e-07
-8.69321e-07
-1.301e-09
-0.00107649
2.12987e-09
-1.18808e-06
2.41416e-07
-2.42246e-07
-8.69317e-07
2.31431e-07
8.6942e-07
-2.3369e-07
1.21823e-06
0.00107562
-1.15871e-09
-0.00107562
2.22861e-09
-1.21612e-06
2.41252e-07
-2.42135e-07
-8.69322e-07
2.31314e-07
-2.33629e-07
8.6935e-07
-2.19237e-07
-2.26575e-07
0.000262683
-1.18488e-06
0.000264641
-0.000262683
2.2137e-07
2.28708e-07
-1.27757e-09
2.1195e-09
0.00107666
-2.39553e-07
1.18498e-06
2.38727e-07
8.69544e-07
-2.36399e-07
2.34144e-07
-8.69428e-07
-1.28994e-09
-0.00107615
2.09686e-09
-1.18272e-06
2.38677e-07
-2.39492e-07
-8.69149e-07
2.3406e-07
8.69302e-07
-2.36328e-07
1.18499e-06
0.00107666
-1.25065e-09
-0.00107666
2.11084e-09
-1.18284e-06
2.38736e-07
-2.39548e-07
-8.69426e-07
2.3415e-07
-2.364e-07
8.69553e-07
-0.000262696
2.23689e-07
2.2893e-07
1.22404e-06