/*--------------------------------*- C++ -*----------------------------------*\
| =========                 |                                                 |
| \\      /  F ield         | OpenFOAM: The Open Source CFD Toolbox           |
|  \\    /   O peration     | Version:  2206                                  |
|   \\  /    A nd           | Website:  www.openfoam.com                      |
|    \\/     M anipulation  |                                                 |
\*---------------------------------------------------------------------------*/
FoamFile
{
    version     2.0;
    format      ascii;
    arch        "LSB;label=32;scalar=64";
    class       volScalarField;
    location    "4.5";
    object      epsilon;
}
// * * * * * * * * * * * * * * * * * * * * * * * * * * * * * * * * * * * * * //

dimensions      [0 2 -3 0 0 0 0];

internalField   nonuniform List<scalar> 
171728
(
5.16568e-07
4.78336e-07
4.84274e-07
4.84282e-07
5.16586e-07
5.17172e-07
5.1658e-07
4.8428e-07
4.84282e-07
5.16578e-07
4.84278e-07
4.84284e-07
4.84282e-07
5.16586e-07
4.84282e-07
9.52078e-07
9.52151e-07
5.17165e-07
9.76877e-07
9.76876e-07
7.93877e-07
2.17315e-06
2.14629e-06
7.62894e-07
2.89111e-06
2.85268e-06
7.93948e-07
2.17331e-06
2.14638e-06
7.6291e-07
4.78336e-07
4.78337e-07
4.78336e-07
5.50931e-07
7.44714e-07
4.78754e-07
4.84296e-07
7.96889e-07
4.78775e-07
5.42671e-07
2.89123e-06
2.85277e-06
5.50942e-07
4.78755e-07
7.44738e-07
4.84295e-07
4.78775e-07
7.96936e-07
5.42677e-07
9.52125e-07
9.52184e-07
5.17208e-07
9.76677e-07
9.76666e-07
2.89112e-06
2.85216e-06
2.8912e-06
2.8522e-06
5.16575e-07
9.7693e-07
9.76918e-07
9.52084e-07
9.5215e-07
2.85214e-06
2.89111e-06
2.8522e-06
2.89118e-06
2.89105e-06
2.85261e-06
2.89118e-06
2.8527e-06
9.52065e-07
9.52129e-07
5.17192e-07
9.76769e-07
9.76782e-07
7.9387e-07
2.1732e-06
2.14629e-06
7.62892e-07
5.50938e-07
7.44738e-07
4.78755e-07
4.84301e-07
7.96942e-07
4.78775e-07
5.4266e-07
5.50937e-07
7.44773e-07
4.78755e-07
4.84299e-07
7.96987e-07
4.78775e-07
5.4266e-07
9.52135e-07
9.52032e-07
5.17189e-07
9.76724e-07
9.76672e-07
2.891e-06
2.8526e-06
5.50952e-07
7.4477e-07
4.78755e-07
4.84294e-07
7.97013e-07
4.78775e-07
5.42665e-07
7.93951e-07
2.1734e-06
2.14647e-06
7.62911e-07
5.50954e-07
4.78755e-07
7.4481e-07
4.84299e-07
4.78775e-07
7.97043e-07
5.42667e-07
7.93774e-07
2.17314e-06
2.14631e-06
7.62904e-07
5.50936e-07
4.78755e-07
7.4477e-07
4.84301e-07
4.78775e-07
7.96913e-07
5.42674e-07
7.93782e-07
2.17323e-06
2.14642e-06
7.62907e-07
9.52195e-07
9.52064e-07
5.17206e-07
9.76819e-07
9.76774e-07
2.89109e-06
2.85267e-06
5.50941e-07
4.78755e-07
7.44796e-07
4.84293e-07
4.78775e-07
7.96935e-07
5.42678e-07
7.93796e-07
2.17326e-06
2.14642e-06
7.62914e-07
7.93774e-07
2.17328e-06
2.14642e-06
7.62917e-07
2.89101e-06
2.85267e-06
2.89108e-06
2.85275e-06
1.07983e-06
2.94405e-06
2.94407e-06
2.94542e-06
2.94535e-06
1.06959e-06
7.96036e-07
6.10306e-07
2.21478e-06
9.76889e-07
2.16274e-06
7.61468e-07
6.2059e-07
7.96206e-07
6.10291e-07
2.21511e-06
9.76905e-07
2.163e-06
7.61601e-07
6.20567e-07
1.0696e-06
2.94541e-06
2.94534e-06
2.94402e-06
2.94402e-06
1.07982e-06
7.61469e-07
2.16275e-06
9.52082e-07
6.20594e-07
2.21479e-06
7.96029e-07
6.10312e-07
7.61601e-07
2.16301e-06
9.52147e-07
6.2057e-07
2.21511e-06
7.96196e-07
6.10296e-07
2.42698e-06
2.28032e-06
8.26109e-07
7.62887e-07
2.2984e-06
7.97918e-07
2.40466e-06
2.97697e-06
2.14595e-06
9.81074e-07
1.00235e-06
3.02639e-06
3.02643e-06
1.00229e-06
2.17317e-06
9.81067e-07
2.97754e-06
2.40426e-06
7.93908e-07
2.29837e-06
7.97924e-07
2.27993e-06
8.26149e-07
2.42696e-06
2.85217e-06
2.89116e-06
2.42698e-06
8.26135e-07
2.28033e-06
7.62909e-07
7.9791e-07
2.29844e-06
2.40462e-06
2.97688e-06
2.14604e-06
9.80987e-07
1.00226e-06
3.02639e-06
3.02644e-06
1.00218e-06
2.17333e-06
9.80984e-07
2.97745e-06
2.40422e-06
7.93964e-07
7.97913e-07
2.29842e-06
8.26164e-07
2.27995e-06
2.42696e-06
2.85226e-06
2.89126e-06
1.07989e-06
2.94493e-06
2.94486e-06
2.94536e-06
2.94531e-06
1.0694e-06
7.96023e-07
6.10334e-07
2.21472e-06
9.76874e-07
7.61504e-07
6.20597e-07
2.16272e-06
7.9619e-07
6.10317e-07
2.21505e-06
9.76863e-07
7.61636e-07
6.20571e-07
2.163e-06
1.06959e-06
2.94531e-06
2.94526e-06
1.08004e-06
2.94408e-06
2.94405e-06
7.61457e-07
2.16311e-06
9.52074e-07
6.20531e-07
6.10302e-07
2.21476e-06
7.95841e-07
7.61587e-07
2.16339e-06
9.5213e-07
6.20504e-07
6.10281e-07
2.21509e-06
7.96012e-07
2.85214e-06
2.89111e-06
2.8522e-06
2.89118e-06
1.06962e-06
2.94541e-06
2.94534e-06
1.07986e-06
2.94397e-06
2.94397e-06
7.61497e-07
6.2061e-07
2.16272e-06
9.52113e-07
7.96072e-07
2.21476e-06
6.10325e-07
7.61631e-07
6.20587e-07
2.163e-06
9.52177e-07
7.9624e-07
2.21508e-06
6.10312e-07
1.07998e-06
2.94393e-06
2.9439e-06
1.06963e-06
2.94537e-06
2.94531e-06
7.96063e-07
2.21479e-06
6.10309e-07
9.76903e-07
7.61473e-07
2.16275e-06
6.20606e-07
7.96229e-07
2.21511e-06
6.10299e-07
9.76896e-07
7.61606e-07
2.16302e-06
6.20582e-07
2.89106e-06
2.85216e-06
2.89112e-06
2.85221e-06
2.85211e-06
2.89108e-06
2.8522e-06
2.89121e-06
1.07981e-06
2.94451e-06
2.94463e-06
2.94542e-06
2.94534e-06
1.06947e-06
7.96037e-07
6.10295e-07
9.76881e-07
2.21477e-06
2.16274e-06
6.20585e-07
7.61464e-07
7.96209e-07
6.10281e-07
9.76888e-07
2.21513e-06
2.16305e-06
6.20562e-07
7.61594e-07
7.6145e-07
2.1631e-06
9.52053e-07
6.20529e-07
2.21479e-06
7.95925e-07
6.10282e-07
7.61581e-07
2.1634e-06
9.5212e-07
6.20506e-07
2.21515e-06
7.96094e-07
6.10268e-07
1.06959e-06
2.94541e-06
2.94534e-06
2.94402e-06
2.94407e-06
1.07981e-06
2.42695e-06
2.28032e-06
8.26065e-07
7.62884e-07
2.2984e-06
7.97892e-07
2.40462e-06
2.97688e-06
2.14593e-06
9.80975e-07
1.00222e-06
3.02636e-06
3.02639e-06
1.00212e-06
2.17321e-06
9.80968e-07
2.97746e-06
2.4042e-06
7.93902e-07
2.29837e-06
7.97901e-07
2.27993e-06
8.26129e-07
2.42693e-06
1.07978e-06
2.94467e-06
2.94474e-06
2.94534e-06
2.9454e-06
1.06943e-06
7.96187e-07
6.103e-07
9.76846e-07
2.21507e-06
2.163e-06
6.20577e-07
7.61596e-07
7.96003e-07
6.10268e-07
9.7678e-07
2.21474e-06
6.20543e-07
2.16273e-06
7.61449e-07
7.61571e-07
2.16337e-06
9.52109e-07
6.2052e-07
2.2151e-06
6.10279e-07
7.9606e-07
7.6142e-07
2.1631e-06
9.5201e-07
6.20487e-07
6.10242e-07
2.21477e-06
7.95877e-07
1.06956e-06
2.9453e-06
2.94535e-06
2.94405e-06
2.94413e-06
1.07983e-06
2.85208e-06
2.89105e-06
2.42703e-06
2.28033e-06
8.2617e-07
7.62913e-07
2.29844e-06
7.97947e-07
2.40468e-06
2.977e-06
2.14612e-06
9.81109e-07
1.00238e-06
3.02648e-06
3.02649e-06
1.00231e-06
2.17342e-06
9.81103e-07
2.97755e-06
2.40428e-06
7.93969e-07
2.29842e-06
7.97946e-07
2.27995e-06
8.2621e-07
2.42702e-06
2.42691e-06
8.25992e-07
2.28036e-06
7.62878e-07
7.97878e-07
2.2984e-06
2.40463e-06
2.97683e-06
2.14596e-06
9.80962e-07
1.00217e-06
3.02626e-06
3.02629e-06
1.00208e-06
2.17317e-06
9.80943e-07
2.97744e-06
2.40418e-06
7.93879e-07
7.979e-07
2.29836e-06
8.26091e-07
2.27994e-06
2.42686e-06
2.42695e-06
2.28035e-06
8.26045e-07
7.62883e-07
2.2984e-06
7.97921e-07
2.40468e-06
2.97692e-06
2.14606e-06
9.811e-07
1.00237e-06
3.02621e-06
3.02631e-06
1.00222e-06
2.17326e-06
9.8108e-07
2.97753e-06
2.40425e-06
7.93883e-07
2.29836e-06
7.97945e-07
2.27994e-06
8.26148e-07
2.42692e-06
1.07979e-06
2.94473e-06
2.94466e-06
2.94537e-06
2.94544e-06
1.06947e-06
7.96215e-07
6.10324e-07
9.7694e-07
2.21516e-06
2.16305e-06
6.20604e-07
7.61619e-07
7.96024e-07
6.10285e-07
9.76864e-07
2.21476e-06
6.2057e-07
2.16274e-06
7.61467e-07
7.61597e-07
2.1634e-06
9.52177e-07
6.20546e-07
2.21517e-06
6.10309e-07
7.96103e-07
7.61443e-07
2.16309e-06
9.52054e-07
6.20514e-07
6.10268e-07
2.21478e-06
7.95902e-07
1.0696e-06
2.94536e-06
2.9454e-06
2.94416e-06
2.94403e-06
1.07986e-06
2.85215e-06
2.89113e-06
2.42698e-06
8.26056e-07
2.28037e-06
7.6289e-07
7.97916e-07
2.29842e-06
2.4047e-06
2.97694e-06
2.14606e-06
9.81087e-07
1.00232e-06
3.02633e-06
3.02641e-06
1.00226e-06
2.17329e-06
9.8107e-07
2.97755e-06
2.40426e-06
7.93885e-07
7.97935e-07
2.29837e-06
8.26121e-07
2.27996e-06
2.42693e-06
2.42692e-06
8.25959e-07
2.28037e-06
7.62887e-07
7.9789e-07
2.29841e-06
2.40467e-06
2.97685e-06
2.14606e-06
9.80996e-07
1.0022e-06
3.02611e-06
3.0263e-06
1.00204e-06
2.17331e-06
9.80964e-07
2.97751e-06
2.40421e-06
7.93887e-07
7.97926e-07
2.29836e-06
8.26105e-07
2.27995e-06
2.42687e-06
2.85214e-06
2.89106e-06
2.85221e-06
2.89114e-06
5.84115e-07
5.30924e-07
5.30924e-07
5.17164e-07
5.70446e-07
5.3477e-07
5.34764e-07
4.77849e-07
4.77849e-07
4.78357e-07
4.7787e-07
4.7787e-07
4.77798e-07
4.77778e-07
5.8412e-07
5.30946e-07
5.30952e-07
5.17171e-07
5.70471e-07
5.34777e-07
5.34776e-07
5.70466e-07
5.16584e-07
5.34781e-07
5.34782e-07
5.84135e-07
5.30941e-07
5.30946e-07
5.84112e-07
5.30928e-07
5.30924e-07
5.17161e-07
5.34765e-07
5.34761e-07
5.70443e-07
5.84102e-07
5.30931e-07
5.30917e-07
5.17155e-07
5.34748e-07
5.34766e-07
5.7044e-07
5.8412e-07
5.30946e-07
5.30926e-07
5.17172e-07
5.34765e-07
5.34785e-07
5.70455e-07
5.70453e-07
5.16587e-07
5.34771e-07
5.34767e-07
5.84118e-07
5.30938e-07
5.30935e-07
4.77849e-07
4.77849e-07
4.78357e-07
4.7787e-07
4.7787e-07
4.77798e-07
4.77778e-07
4.77849e-07
4.77849e-07
4.78356e-07
4.7787e-07
4.7787e-07
4.77798e-07
4.77778e-07
4.77849e-07
4.77849e-07
4.78356e-07
4.7787e-07
4.7787e-07
4.77798e-07
4.77778e-07
4.93042e-07
5.60424e-07
4.93323e-07
5.42659e-07
5.51557e-07
4.90885e-07
4.95827e-07
5.08225e-07
5.40687e-07
7.96974e-07
5.91402e-07
5.51478e-07
6.05776e-07
5.03745e-07
5.03747e-07
6.05725e-07
7.44696e-07
5.51459e-07
5.40677e-07
5.91388e-07
5.08246e-07
4.95785e-07
5.50936e-07
5.51569e-07
4.90879e-07
5.60439e-07
4.93276e-07
4.93037e-07
4.93044e-07
4.93325e-07
5.60442e-07
5.42665e-07
4.90886e-07
5.51572e-07
4.95831e-07
5.08234e-07
5.40698e-07
7.97004e-07
5.91432e-07
5.51491e-07
6.0581e-07
5.03754e-07
5.03753e-07
6.05765e-07
7.44724e-07
5.51474e-07
5.4069e-07
5.91418e-07
5.08255e-07
4.95789e-07
5.50943e-07
4.90881e-07
5.51583e-07
4.93278e-07
5.60455e-07
4.93041e-07
5.70445e-07
5.16588e-07
5.34774e-07
5.34774e-07
5.30935e-07
5.30936e-07
5.84057e-07
5.84131e-07
5.17166e-07
5.30928e-07
5.30933e-07
5.70452e-07
5.34776e-07
5.34775e-07
5.70428e-07
5.16566e-07
5.34755e-07
5.34758e-07
5.84057e-07
5.30911e-07
5.30914e-07
4.93043e-07
5.60443e-07
4.9332e-07
5.42657e-07
5.51567e-07
4.90883e-07
4.95829e-07
5.08238e-07
5.40705e-07
7.97018e-07
5.91431e-07
6.0582e-07
5.51501e-07
5.03755e-07
5.03758e-07
6.05773e-07
7.44722e-07
5.51484e-07
5.91421e-07
5.40698e-07
5.0826e-07
4.95787e-07
5.50936e-07
5.51572e-07
4.90877e-07
5.60452e-07
4.93275e-07
4.93037e-07
4.93042e-07
5.60435e-07
4.93322e-07
5.42655e-07
5.51559e-07
4.90884e-07
4.95829e-07
5.08239e-07
5.40707e-07
7.97067e-07
5.91419e-07
6.05806e-07
5.51512e-07
5.03754e-07
5.03755e-07
6.05756e-07
7.44758e-07
5.51495e-07
5.91409e-07
5.08259e-07
5.40701e-07
4.95788e-07
5.50934e-07
5.51566e-07
4.90877e-07
5.60445e-07
4.93275e-07
4.93037e-07
5.70417e-07
5.16566e-07
5.34764e-07
5.34747e-07
5.30897e-07
5.30916e-07
5.84048e-07
4.93043e-07
5.60445e-07
4.93323e-07
5.42666e-07
5.51566e-07
4.90885e-07
4.95829e-07
5.08232e-07
5.40695e-07
7.9708e-07
5.91416e-07
6.05803e-07
5.51498e-07
5.03749e-07
5.03754e-07
6.0576e-07
7.44765e-07
5.51484e-07
5.91409e-07
5.40695e-07
5.08254e-07
4.95787e-07
5.50946e-07
5.51569e-07
4.90877e-07
5.60452e-07
4.93277e-07
4.93037e-07
4.93046e-07
4.93323e-07
5.6046e-07
5.42669e-07
4.90886e-07
5.51581e-07
4.95832e-07
5.08246e-07
5.40719e-07
7.97116e-07
5.91451e-07
6.05846e-07
5.51523e-07
5.03761e-07
5.03764e-07
6.058e-07
7.44799e-07
5.51505e-07
5.91444e-07
5.08267e-07
5.40716e-07
4.95791e-07
5.50948e-07
4.90878e-07
5.51582e-07
4.93278e-07
5.60468e-07
4.9304e-07
4.93047e-07
4.93323e-07
5.60447e-07
5.42664e-07
4.90887e-07
5.51578e-07
4.95833e-07
5.08242e-07
5.40722e-07
7.97016e-07
5.91451e-07
5.51507e-07
6.05828e-07
5.03762e-07
5.03764e-07
6.05775e-07
7.44745e-07
5.51493e-07
5.40712e-07
5.91436e-07
5.08265e-07
4.9579e-07
5.50938e-07
4.90881e-07
5.51589e-07
4.93277e-07
5.60458e-07
4.93043e-07
5.7044e-07
5.16589e-07
5.34779e-07
5.34761e-07
5.3092e-07
5.3094e-07
5.84067e-07
4.93044e-07
4.93327e-07
5.60434e-07
5.42664e-07
4.90887e-07
5.51566e-07
4.95832e-07
5.08235e-07
5.40712e-07
7.97049e-07
5.91431e-07
5.51501e-07
6.058e-07
5.03757e-07
5.03754e-07
6.05741e-07
7.44765e-07
5.51485e-07
5.40697e-07
5.91408e-07
5.08257e-07
4.9579e-07
5.50944e-07
4.90882e-07
5.51583e-07
4.93279e-07
5.60452e-07
4.93042e-07
4.78359e-07
4.84292e-07
4.84297e-07
5.16578e-07
4.78336e-07
4.84275e-07
4.84281e-07
5.16567e-07
4.78336e-07
4.84273e-07
4.84278e-07
5.16579e-07
4.78336e-07
4.84276e-07
4.8428e-07
5.1657e-07
4.78336e-07
4.84279e-07
4.84279e-07
5.16575e-07
4.78336e-07
4.84277e-07
4.84281e-07
5.16576e-07
4.78336e-07
4.84278e-07
4.84284e-07
5.16572e-07
4.78336e-07
4.84275e-07
4.84283e-07
5.16581e-07
4.78336e-07
4.84278e-07
4.8428e-07
5.16569e-07
4.78336e-07
4.84272e-07
4.84277e-07
5.16567e-07
4.78336e-07
4.84277e-07
4.84283e-07
5.16564e-07
4.78335e-07
4.84274e-07
4.84279e-07
5.16583e-07
4.78336e-07
4.84279e-07
4.84285e-07
5.16583e-07
4.78336e-07
4.84274e-07
4.84279e-07
5.1658e-07
4.78337e-07
4.84278e-07
4.84284e-07
5.16568e-07
4.78336e-07
4.84273e-07
4.84282e-07
5.16565e-07
4.78336e-07
4.84278e-07
4.84283e-07
5.16624e-07
5.1715e-07
4.84301e-07
4.84301e-07
4.84284e-07
4.84281e-07
5.16618e-07
5.17155e-07
4.84297e-07
4.84303e-07
4.84275e-07
4.84286e-07
4.84285e-07
4.84275e-07
4.84282e-07
5.16633e-07
5.17159e-07
4.84285e-07
4.84277e-07
4.84278e-07
5.17156e-07
5.16564e-07
5.17159e-07
4.84282e-07
4.84278e-07
4.84284e-07
4.84284e-07
5.16575e-07
5.17152e-07
4.84278e-07
4.84288e-07
4.84276e-07
4.84284e-07
4.84282e-07
4.84277e-07
4.84283e-07
5.16574e-07
5.17168e-07
4.84278e-07
4.8428e-07
4.84283e-07
5.17159e-07
5.16581e-07
5.17157e-07
4.84282e-07
4.84282e-07
4.84285e-07
4.8428e-07
5.16575e-07
5.17148e-07
4.84277e-07
4.84283e-07
4.84278e-07
4.84284e-07
4.8428e-07
4.84279e-07
4.84282e-07
5.16591e-07
5.17166e-07
4.84281e-07
4.84278e-07
4.84283e-07
5.17157e-07
5.16581e-07
5.17162e-07
4.8428e-07
4.84282e-07
4.84284e-07
4.84283e-07
5.16563e-07
5.17165e-07
4.84278e-07
4.84287e-07
4.84276e-07
4.84283e-07
4.84283e-07
4.84277e-07
4.84283e-07
5.16579e-07
5.1717e-07
4.84279e-07
4.84278e-07
4.84283e-07
5.17161e-07
5.16584e-07
5.17163e-07
4.84281e-07
4.84281e-07
4.84286e-07
4.84282e-07
5.16583e-07
5.17162e-07
4.84278e-07
4.84284e-07
4.84278e-07
4.84284e-07
4.84284e-07
4.84276e-07
4.84283e-07
5.16588e-07
5.17175e-07
4.84282e-07
4.8428e-07
4.8428e-07
5.17165e-07
5.16581e-07
5.17158e-07
4.84285e-07
4.84284e-07
4.84284e-07
4.84283e-07
5.16573e-07
5.17154e-07
4.84279e-07
4.84289e-07
4.84276e-07
4.84284e-07
4.84283e-07
4.84277e-07
4.8428e-07
5.16587e-07
5.1717e-07
4.84281e-07
4.84279e-07
4.84282e-07
5.17158e-07
5.16575e-07
5.17161e-07
4.84281e-07
4.8428e-07
4.84285e-07
4.84282e-07
5.16578e-07
5.17166e-07
4.84281e-07
4.84283e-07
4.84278e-07
4.84285e-07
4.84281e-07
4.84276e-07
4.84283e-07
5.16587e-07
5.17174e-07
4.84281e-07
4.84279e-07
4.8428e-07
5.17172e-07
5.16581e-07
5.1716e-07
4.84279e-07
4.84282e-07
4.84284e-07
4.8428e-07
5.16582e-07
5.17158e-07
4.8428e-07
4.84283e-07
4.84278e-07
4.84285e-07
4.84284e-07
4.84276e-07
4.84284e-07
5.16591e-07
5.17168e-07
4.84282e-07
4.84279e-07
4.84279e-07
5.17159e-07
5.16581e-07
5.17147e-07
4.84281e-07
4.84281e-07
4.84282e-07
4.84282e-07
5.16573e-07
5.17143e-07
4.84278e-07
4.84286e-07
4.84276e-07
4.84283e-07
4.84284e-07
4.84277e-07
4.84283e-07
5.16586e-07
5.17163e-07
4.8428e-07
4.84278e-07
4.84278e-07
5.17152e-07
5.1657e-07
5.17154e-07
4.84281e-07
4.84281e-07
4.84283e-07
4.84283e-07
5.16565e-07
5.17144e-07
4.84276e-07
4.84283e-07
4.84276e-07
4.84283e-07
4.84281e-07
4.84279e-07
4.84282e-07
5.16585e-07
5.17163e-07
4.8428e-07
4.8428e-07
4.84282e-07
5.17149e-07
5.16572e-07
5.17167e-07
4.84279e-07
4.84279e-07
4.84285e-07
4.84281e-07
5.1657e-07
5.17165e-07
4.84278e-07
4.84283e-07
4.84276e-07
4.84283e-07
4.84282e-07
4.84279e-07
4.84281e-07
5.16581e-07
5.17175e-07
4.84279e-07
4.84278e-07
4.84283e-07
5.17168e-07
5.16591e-07
5.17173e-07
4.8428e-07
4.84283e-07
4.84285e-07
4.84285e-07
5.16585e-07
5.17168e-07
4.8428e-07
4.84284e-07
4.84278e-07
4.84288e-07
4.8428e-07
4.84277e-07
4.84284e-07
5.16598e-07
5.17178e-07
4.84281e-07
4.8428e-07
4.84279e-07
5.17173e-07
5.16589e-07
5.17164e-07
4.84282e-07
4.84282e-07
4.84286e-07
4.84282e-07
5.16589e-07
5.17163e-07
4.8428e-07
4.84289e-07
4.84279e-07
4.84285e-07
4.84285e-07
4.8428e-07
4.84283e-07
5.16591e-07
5.17179e-07
4.84281e-07
4.84279e-07
4.84281e-07
5.17171e-07
5.16581e-07
5.17151e-07
4.84283e-07
4.84281e-07
4.84284e-07
4.8428e-07
5.16582e-07
5.17149e-07
4.84281e-07
4.84284e-07
4.84281e-07
4.84287e-07
4.84283e-07
4.84276e-07
4.84284e-07
5.166e-07
5.1716e-07
4.84281e-07
4.84279e-07
4.84279e-07
5.17158e-07
5.16568e-07
5.17144e-07
4.84281e-07
4.8428e-07
4.84284e-07
4.84279e-07
5.16569e-07
5.17148e-07
4.84281e-07
4.84283e-07
4.84277e-07
4.84284e-07
4.84282e-07
4.84278e-07
4.84281e-07
5.1658e-07
5.17157e-07
4.84281e-07
4.84278e-07
4.8428e-07
5.17151e-07
5.16566e-07
5.17157e-07
4.8428e-07
4.84279e-07
4.84284e-07
4.8428e-07
5.16571e-07
5.17162e-07
4.84277e-07
4.84282e-07
4.84278e-07
4.84282e-07
4.84281e-07
4.84278e-07
4.84282e-07
5.16578e-07
5.17164e-07
4.8428e-07
4.84278e-07
4.84282e-07
5.17154e-07
5.16577e-07
5.17162e-07
4.8428e-07
4.84282e-07
4.84284e-07
4.84283e-07
5.1658e-07
5.17154e-07
4.8428e-07
4.84283e-07
4.84278e-07
4.84285e-07
4.84284e-07
4.8428e-07
4.84284e-07
5.16584e-07
5.17171e-07
4.84281e-07
4.84278e-07
4.84281e-07
7.93997e-07
2.1735e-06
2.14592e-06
7.62829e-07
2.89161e-06
2.85217e-06
7.94014e-07
2.17364e-06
2.14602e-06
7.62848e-07
4.78359e-07
4.78359e-07
4.78341e-07
4.78336e-07
4.78336e-07
4.78336e-07
4.78336e-07
5.50946e-07
7.44641e-07
4.78777e-07
4.84279e-07
7.97022e-07
4.78755e-07
5.42662e-07
2.89172e-06
2.85225e-06
5.50958e-07
4.78777e-07
7.44661e-07
4.84278e-07
4.78755e-07
7.97082e-07
5.42664e-07
9.52043e-07
9.52112e-07
5.17161e-07
9.769e-07
9.76929e-07
7.93926e-07
2.17311e-06
7.62934e-07
2.14592e-06
2.89115e-06
2.85217e-06
7.93956e-07
2.17328e-06
7.62944e-07
2.14602e-06
4.78336e-07
4.78337e-07
4.78336e-07
4.78336e-07
4.78336e-07
4.78336e-07
4.78336e-07
5.50945e-07
7.44715e-07
4.78754e-07
4.84274e-07
5.42672e-07
7.97015e-07
4.78754e-07
2.89122e-06
2.85226e-06
5.50955e-07
4.78754e-07
7.44749e-07
4.84277e-07
5.42685e-07
4.78754e-07
7.97042e-07
9.52074e-07
9.52136e-07
5.17161e-07
9.76914e-07
9.76916e-07
7.93968e-07
2.17312e-06
7.62916e-07
2.14591e-06
2.89114e-06
2.85218e-06
7.94032e-07
2.17328e-06
7.62938e-07
2.146e-06
4.78336e-07
4.78336e-07
4.78336e-07
4.78336e-07
4.78336e-07
4.78336e-07
4.78337e-07
5.50947e-07
7.44711e-07
4.78754e-07
4.84279e-07
5.42664e-07
7.97015e-07
4.78754e-07
2.89125e-06
2.85225e-06
5.50959e-07
4.78754e-07
7.44739e-07
4.84277e-07
5.42675e-07
4.78754e-07
7.97054e-07
9.52053e-07
9.52116e-07
5.17163e-07
9.76857e-07
9.76868e-07
7.94045e-07
2.17316e-06
7.62916e-07
2.1459e-06
2.89121e-06
2.85217e-06
7.94007e-07
2.1733e-06
7.62928e-07
2.14602e-06
4.78336e-07
4.78336e-07
4.78336e-07
4.78336e-07
4.78336e-07
4.78336e-07
4.78336e-07
5.50959e-07
7.44712e-07
4.78754e-07
4.84278e-07
5.42661e-07
7.97044e-07
4.78754e-07
2.89126e-06
2.85227e-06
5.50962e-07
4.78754e-07
7.44738e-07
4.84278e-07
5.42668e-07
4.78754e-07
7.97067e-07
9.52067e-07
9.52138e-07
5.17159e-07
9.76946e-07
9.76973e-07
7.93887e-07
2.17312e-06
7.62919e-07
2.14593e-06
2.89109e-06
2.85219e-06
7.94026e-07
2.17329e-06
7.62943e-07
2.146e-06
4.78336e-07
4.78336e-07
4.78336e-07
4.78336e-07
4.78336e-07
4.78336e-07
4.78336e-07
5.50942e-07
7.44713e-07
4.78754e-07
4.8428e-07
5.42679e-07
7.96975e-07
4.78754e-07
2.89125e-06
2.85225e-06
5.50962e-07
4.78754e-07
7.44747e-07
4.84277e-07
5.42682e-07
4.78754e-07
7.9706e-07
9.52071e-07
9.52132e-07
5.17168e-07
9.76858e-07
9.76877e-07
7.93989e-07
2.17314e-06
7.62906e-07
2.14591e-06
2.89117e-06
2.85217e-06
7.93935e-07
2.17328e-06
7.62923e-07
2.14603e-06
4.78336e-07
4.78336e-07
4.78336e-07
4.78336e-07
4.78336e-07
4.78336e-07
4.78336e-07
5.50951e-07
7.44715e-07
4.78754e-07
4.84279e-07
5.42666e-07
7.97037e-07
4.78754e-07
2.89117e-06
2.85226e-06
5.50957e-07
4.78754e-07
7.44747e-07
4.8428e-07
5.42683e-07
4.78754e-07
7.97023e-07
9.5207e-07
9.52139e-07
5.17166e-07
9.76928e-07
9.76914e-07
7.93937e-07
2.17311e-06
7.62926e-07
2.14591e-06
2.8911e-06
2.85215e-06
7.94029e-07
2.17328e-06
7.62933e-07
2.146e-06
4.78336e-07
4.78336e-07
4.78336e-07
4.78336e-07
4.78336e-07
4.78336e-07
4.78336e-07
5.50943e-07
7.44717e-07
4.78754e-07
4.84276e-07
5.42683e-07
7.96959e-07
4.78754e-07
2.89123e-06
2.85224e-06
5.50956e-07
4.78755e-07
7.4474e-07
4.8428e-07
5.42683e-07
4.78754e-07
7.97037e-07
9.52098e-07
9.52157e-07
5.17173e-07
9.76836e-07
9.76852e-07
7.93979e-07
2.17314e-06
7.62888e-07
2.14593e-06
2.89114e-06
2.85216e-06
7.93983e-07
2.17327e-06
7.62919e-07
2.14601e-06
4.78336e-07
4.78336e-07
4.78337e-07
4.78336e-07
4.78336e-07
4.78336e-07
4.78336e-07
5.50953e-07
7.4471e-07
4.78754e-07
4.84281e-07
5.42659e-07
7.97038e-07
4.78754e-07
2.89119e-06
2.85225e-06
5.50965e-07
4.78754e-07
7.44748e-07
4.84279e-07
5.42673e-07
4.78754e-07
7.97057e-07
9.52067e-07
9.52126e-07
5.17167e-07
9.76909e-07
9.76902e-07
7.94008e-07
2.17314e-06
7.62906e-07
2.14592e-06
2.8912e-06
2.85218e-06
7.94059e-07
2.17331e-06
7.62908e-07
2.14601e-06
4.78336e-07
4.78337e-07
4.78337e-07
4.78336e-07
4.78336e-07
4.78336e-07
4.78336e-07
5.50954e-07
7.44706e-07
4.78754e-07
4.84277e-07
5.42658e-07
7.97043e-07
4.78754e-07
2.89128e-06
2.85227e-06
5.50965e-07
4.78754e-07
7.44731e-07
4.84279e-07
5.42667e-07
4.78755e-07
7.97071e-07
9.52031e-07
9.52089e-07
5.17158e-07
9.76914e-07
9.76937e-07
7.94078e-07
2.17318e-06
7.62914e-07
2.14591e-06
2.89123e-06
2.85218e-06
7.94074e-07
2.17332e-06
7.62936e-07
2.14601e-06
4.78336e-07
4.78336e-07
4.78337e-07
4.78336e-07
4.78336e-07
4.78336e-07
4.78336e-07
5.50942e-07
7.44716e-07
4.78754e-07
4.84278e-07
5.42659e-07
7.9704e-07
4.78754e-07
2.89128e-06
2.85226e-06
5.50954e-07
4.78754e-07
7.44745e-07
4.84277e-07
5.42667e-07
4.78754e-07
7.9708e-07
9.52032e-07
9.52097e-07
5.17152e-07
9.76971e-07
9.76993e-07
7.93977e-07
2.17314e-06
7.62935e-07
2.14592e-06
2.89116e-06
2.85217e-06
7.94017e-07
2.1733e-06
7.62944e-07
2.14601e-06
4.78336e-07
4.78337e-07
4.78336e-07
4.78335e-07
4.78336e-07
4.78336e-07
4.78336e-07
5.50947e-07
7.44713e-07
4.78754e-07
4.84274e-07
5.42676e-07
7.97011e-07
4.78753e-07
2.89127e-06
2.85225e-06
5.50953e-07
4.78755e-07
7.44736e-07
4.84278e-07
5.4268e-07
4.78754e-07
7.97058e-07
9.52056e-07
9.52134e-07
5.17158e-07
9.7696e-07
9.76977e-07
7.93884e-07
2.1731e-06
7.62925e-07
2.14593e-06
2.89108e-06
2.85216e-06
7.93912e-07
2.17326e-06
7.6294e-07
2.14602e-06
4.78335e-07
4.78336e-07
4.78336e-07
4.78336e-07
4.78336e-07
4.78336e-07
4.78336e-07
5.50949e-07
7.44715e-07
4.78753e-07
4.8428e-07
5.42674e-07
7.96981e-07
4.78754e-07
2.89118e-06
2.85226e-06
5.50962e-07
4.78754e-07
7.44744e-07
4.84278e-07
5.42681e-07
4.78754e-07
7.97035e-07
9.52061e-07
9.52131e-07
5.17167e-07
9.76901e-07
9.76906e-07
7.93837e-07
2.1731e-06
7.62897e-07
2.14595e-06
2.89105e-06
2.85217e-06
7.93883e-07
2.17325e-06
7.62923e-07
2.14603e-06
4.78336e-07
4.78336e-07
4.78336e-07
4.78337e-07
4.78336e-07
4.78336e-07
4.78336e-07
5.50952e-07
7.4471e-07
4.78754e-07
4.84281e-07
5.42678e-07
7.96977e-07
4.78754e-07
2.89112e-06
2.85226e-06
5.5096e-07
4.78754e-07
7.44748e-07
4.84279e-07
5.4269e-07
4.78754e-07
7.97006e-07
9.52087e-07
9.5215e-07
5.17172e-07
9.76853e-07
9.7685e-07
7.93968e-07
2.17313e-06
7.62892e-07
2.14593e-06
2.89114e-06
2.85218e-06
7.9397e-07
2.17328e-06
7.62902e-07
2.14604e-06
4.78336e-07
4.78336e-07
4.78336e-07
4.78337e-07
4.78336e-07
4.78337e-07
4.78337e-07
5.5095e-07
7.44717e-07
4.78754e-07
4.84279e-07
5.42672e-07
7.97017e-07
4.78754e-07
2.8912e-06
2.85228e-06
5.5096e-07
4.78754e-07
7.44737e-07
4.84279e-07
5.42678e-07
4.78754e-07
7.97052e-07
9.52045e-07
9.52118e-07
5.17165e-07
9.76808e-07
9.76827e-07
7.9401e-07
2.17316e-06
7.62918e-07
2.14593e-06
2.89122e-06
2.85218e-06
7.94061e-07
2.17332e-06
7.62927e-07
2.14603e-06
4.78336e-07
4.78337e-07
4.78337e-07
4.78336e-07
4.78336e-07
4.78336e-07
4.78336e-07
5.50937e-07
7.44713e-07
4.78754e-07
4.84278e-07
5.42661e-07
7.97044e-07
4.78754e-07
2.8913e-06
2.85226e-06
5.50945e-07
4.78755e-07
7.44741e-07
4.84279e-07
5.42675e-07
4.78755e-07
7.97082e-07
9.52049e-07
9.52125e-07
5.17153e-07
9.76947e-07
9.76943e-07
7.94078e-07
2.17314e-06
7.62936e-07
2.14588e-06
2.89117e-06
2.85215e-06
7.94089e-07
2.17329e-06
7.62955e-07
2.14598e-06
4.78335e-07
4.78336e-07
4.78336e-07
4.78336e-07
4.78336e-07
4.78336e-07
4.78336e-07
5.5095e-07
7.44721e-07
4.78753e-07
4.84279e-07
5.42667e-07
7.97015e-07
4.78754e-07
2.89128e-06
2.85225e-06
5.50958e-07
4.78755e-07
7.44742e-07
4.84277e-07
5.42668e-07
4.78754e-07
7.97081e-07
9.52076e-07
9.52147e-07
5.17155e-07
9.76906e-07
9.76935e-07
7.93951e-07
2.17313e-06
7.62923e-07
2.14592e-06
2.89113e-06
2.85216e-06
7.94027e-07
2.17329e-06
7.62942e-07
2.146e-06
4.78336e-07
4.78336e-07
4.78336e-07
4.78336e-07
4.78336e-07
4.78336e-07
4.78336e-07
5.5095e-07
7.44717e-07
4.78754e-07
4.84276e-07
5.42679e-07
7.96987e-07
4.78754e-07
2.89124e-06
2.85224e-06
5.50962e-07
4.78755e-07
7.44748e-07
4.84278e-07
5.42687e-07
4.78754e-07
7.97036e-07
2.89155e-06
2.85209e-06
2.89164e-06
2.85219e-06
9.51949e-07
9.52012e-07
5.17155e-07
9.76905e-07
9.76904e-07
2.85208e-06
2.89108e-06
2.85218e-06
2.89118e-06
5.1657e-07
9.76857e-07
9.76868e-07
9.5206e-07
9.52128e-07
7.93994e-07
2.17353e-06
2.14592e-06
7.62831e-07
5.50942e-07
7.44663e-07
4.78777e-07
4.84284e-07
7.97055e-07
4.78755e-07
5.42658e-07
5.50941e-07
7.44704e-07
4.78777e-07
4.84284e-07
7.97107e-07
4.78755e-07
5.42658e-07
7.62916e-07
2.14589e-06
2.17314e-06
7.9406e-07
7.62914e-07
2.1459e-06
2.1732e-06
7.94064e-07
5.42666e-07
4.84281e-07
7.97045e-07
4.78754e-07
7.44739e-07
4.78754e-07
5.50951e-07
5.42664e-07
4.84281e-07
7.97104e-07
4.78754e-07
7.44775e-07
4.78754e-07
5.5095e-07
9.52015e-07
9.51908e-07
5.17147e-07
9.76877e-07
9.76813e-07
2.89151e-06
2.85208e-06
2.85216e-06
2.89118e-06
5.16565e-07
9.76867e-07
9.76811e-07
9.52118e-07
9.52016e-07
2.85208e-06
2.89107e-06
5.50951e-07
7.44697e-07
4.78777e-07
4.84278e-07
7.97092e-07
4.78755e-07
5.42666e-07
7.94021e-07
2.17372e-06
2.14611e-06
7.62851e-07
5.50953e-07
4.78777e-07
7.44738e-07
4.84286e-07
4.78755e-07
7.97173e-07
5.42669e-07
7.62931e-07
2.146e-06
2.1733e-06
7.94065e-07
5.42672e-07
4.84279e-07
7.97089e-07
4.78754e-07
7.44773e-07
4.78754e-07
5.50957e-07
7.62934e-07
2.1461e-06
2.17337e-06
7.9406e-07
5.42674e-07
4.84282e-07
4.78754e-07
7.97137e-07
4.78754e-07
7.44823e-07
5.50958e-07
7.94007e-07
2.1735e-06
2.14593e-06
7.62837e-07
5.50945e-07
4.78778e-07
7.44743e-07
4.84285e-07
4.78755e-07
7.97076e-07
5.42664e-07
7.93994e-07
2.17328e-06
2.14604e-06
7.62835e-07
5.42665e-07
4.84279e-07
7.97014e-07
4.78754e-07
7.44713e-07
4.78754e-07
5.50948e-07
7.62916e-07
2.14592e-06
2.17316e-06
7.94041e-07
5.42666e-07
4.8428e-07
4.78754e-07
7.97084e-07
4.78754e-07
7.44753e-07
5.50949e-07
7.62916e-07
2.14603e-06
2.17327e-06
7.94046e-07
9.52064e-07
9.51925e-07
5.17167e-07
9.76974e-07
9.76924e-07
2.89163e-06
2.85214e-06
2.85225e-06
2.89123e-06
5.16585e-07
9.76933e-07
9.7689e-07
9.52202e-07
9.52064e-07
2.85213e-06
2.89115e-06
5.50956e-07
4.78779e-07
7.44772e-07
4.84281e-07
4.78756e-07
7.97145e-07
5.42663e-07
7.94067e-07
2.17362e-06
2.14603e-06
7.62845e-07
7.94059e-07
2.17334e-06
2.14603e-06
7.62842e-07
5.42674e-07
4.8428e-07
4.78754e-07
7.97064e-07
4.78754e-07
7.4475e-07
5.50962e-07
5.42672e-07
4.84278e-07
4.78754e-07
7.97129e-07
4.78754e-07
7.44788e-07
5.50961e-07
7.6294e-07
2.14601e-06
2.17327e-06
7.94105e-07
7.62937e-07
2.14601e-06
2.17332e-06
7.94108e-07
2.89119e-06
2.85216e-06
2.89126e-06
2.85222e-06
5.16583e-07
9.76916e-07
9.76919e-07
9.52058e-07
9.52127e-07
2.85215e-06
2.89119e-06
2.85221e-06
2.89126e-06
2.89106e-06
2.85208e-06
2.89116e-06
2.85219e-06
9.52055e-07
9.52128e-07
5.17159e-07
9.76861e-07
9.76875e-07
2.85208e-06
2.89105e-06
2.85219e-06
2.89116e-06
5.16574e-07
9.76851e-07
9.76864e-07
9.52063e-07
9.52134e-07
7.93936e-07
2.17318e-06
7.62933e-07
2.14592e-06
5.50935e-07
7.44742e-07
4.78754e-07
4.84283e-07
5.42677e-07
7.97021e-07
4.78754e-07
5.50935e-07
7.44779e-07
4.78754e-07
4.84283e-07
5.42677e-07
7.97086e-07
4.78754e-07
7.62899e-07
2.14591e-06
2.17314e-06
7.93972e-07
7.62899e-07
2.14592e-06
2.17319e-06
7.9397e-07
5.42663e-07
4.84282e-07
7.97041e-07
4.78754e-07
7.44737e-07
4.78754e-07
5.50943e-07
5.42663e-07
4.84283e-07
7.97087e-07
4.78754e-07
7.4478e-07
4.78754e-07
5.50942e-07
9.52122e-07
9.52019e-07
5.17145e-07
9.76867e-07
9.76823e-07
2.89107e-06
2.85206e-06
2.85217e-06
2.89113e-06
5.1656e-07
9.76862e-07
9.76781e-07
9.52138e-07
9.52043e-07
2.85208e-06
2.89101e-06
5.50945e-07
7.44778e-07
4.78754e-07
4.84275e-07
5.42681e-07
7.97074e-07
4.78754e-07
7.93953e-07
2.17337e-06
7.62943e-07
2.14612e-06
5.50945e-07
4.78755e-07
7.44816e-07
4.84285e-07
5.42682e-07
4.78754e-07
7.97126e-07
7.62914e-07
2.14601e-06
2.17331e-06
7.94032e-07
5.42667e-07
4.84278e-07
7.97094e-07
4.78754e-07
7.44774e-07
4.78754e-07
5.50954e-07
7.62914e-07
2.14611e-06
2.17339e-06
7.9403e-07
5.42668e-07
4.84284e-07
4.78754e-07
7.97151e-07
4.78754e-07
7.44814e-07
5.50955e-07
7.94003e-07
2.17316e-06
7.6293e-07
2.14592e-06
5.50945e-07
4.78754e-07
7.4476e-07
4.84283e-07
5.42674e-07
4.78754e-07
7.97071e-07
7.93998e-07
2.17326e-06
7.62932e-07
2.14603e-06
5.42671e-07
4.84277e-07
7.96984e-07
4.78754e-07
7.44722e-07
4.78754e-07
5.50937e-07
7.62916e-07
2.14595e-06
2.17314e-06
7.93915e-07
5.42672e-07
4.84281e-07
4.78754e-07
7.97025e-07
4.78754e-07
7.44764e-07
5.50938e-07
7.62916e-07
2.14605e-06
2.17324e-06
7.93919e-07
9.52192e-07
9.52058e-07
5.17166e-07
9.76926e-07
9.76861e-07
2.89113e-06
2.85212e-06
2.85226e-06
2.89124e-06
5.16584e-07
9.76955e-07
9.76852e-07
9.52188e-07
9.52061e-07
2.85215e-06
2.8911e-06
5.50954e-07
4.78754e-07
7.44791e-07
4.8428e-07
5.42684e-07
4.78754e-07
7.97116e-07
7.94018e-07
2.17325e-06
7.62953e-07
2.14601e-06
7.94019e-07
2.17331e-06
7.62951e-07
2.14602e-06
5.4268e-07
4.8428e-07
4.78754e-07
7.97025e-07
4.78754e-07
7.44745e-07
5.50948e-07
5.42678e-07
4.84279e-07
4.78755e-07
7.9707e-07
4.78754e-07
7.44795e-07
5.50947e-07
7.6293e-07
2.14604e-06
2.17325e-06
7.93952e-07
7.62929e-07
2.14604e-06
2.17329e-06
7.93955e-07
2.89115e-06
2.85214e-06
2.89123e-06
2.85219e-06
5.16586e-07
9.76841e-07