/*--------------------------------*- C++ -*----------------------------------*\
| =========                 |                                                 |
| \\      /  F ield         | OpenFOAM: The Open Source CFD Toolbox           |
|  \\    /   O peration     | Version:  2206                                  |
|   \\  /    A nd           | Website:  www.openfoam.com                      |
|    \\/     M anipulation  |                                                 |
\*---------------------------------------------------------------------------*/
FoamFile
{
    version     2.0;
    format      ascii;
    arch        "LSB;label=32;scalar=64";
    class       volScalarField;
    location    "4.5";
    object      k;
}
// * * * * * * * * * * * * * * * * * * * * * * * * * * * * * * * * * * * * * //

dimensions      [0 2 -2 0 0 0 0];

internalField   nonuniform List<scalar> 
171728
(
3.69065e-05
3.52543e-05
3.55255e-05
3.55258e-05
3.69069e-05
3.68996e-05
3.69065e-05
3.55259e-05
3.55259e-05
3.69069e-05
3.55256e-05
3.55259e-05
3.55261e-05
3.69072e-05
3.55258e-05
3.34436e-05
3.34426e-05
3.68995e-05
3.31566e-05
3.31561e-05
3.38813e-05
2.73005e-05
2.70745e-05
3.41097e-05
2.01738e-05
1.99942e-05
3.38809e-05
2.72999e-05
2.70733e-05
3.41097e-05
3.52542e-05
3.52543e-05
3.52543e-05
3.60472e-05
3.52937e-05
3.52742e-05
3.55265e-05
3.5029e-05
3.52752e-05
3.60756e-05
2.01733e-05
1.99935e-05
3.60473e-05
3.52742e-05
3.52939e-05
3.55268e-05
3.52752e-05
3.50289e-05
3.60757e-05
3.34432e-05
3.34423e-05
3.69029e-05
3.31619e-05
3.31615e-05
2.01737e-05
1.99916e-05
2.01736e-05
1.99913e-05
3.69068e-05
3.31562e-05
3.31559e-05
3.34436e-05
3.34427e-05
1.99915e-05
2.01737e-05
1.99913e-05
2.01735e-05
2.01741e-05
1.99944e-05
2.01737e-05
1.99939e-05
3.34435e-05
3.34425e-05
3.69024e-05
3.31612e-05
3.31605e-05
3.38814e-05
2.73004e-05
2.7074e-05
3.41097e-05
3.60468e-05
3.52941e-05
3.52742e-05
3.55269e-05
3.50291e-05
3.52752e-05
3.60752e-05
3.60468e-05
3.52939e-05
3.52742e-05
3.55266e-05
3.5029e-05
3.52752e-05
3.60752e-05
3.34428e-05
3.34433e-05
3.69026e-05
3.31613e-05
3.31614e-05
2.0174e-05
1.99945e-05
3.60467e-05
3.52935e-05
3.52742e-05
3.55267e-05
3.50284e-05
3.52752e-05
3.60751e-05
3.3881e-05
2.73e-05
2.70733e-05
3.41097e-05
3.60468e-05
3.52742e-05
3.52939e-05
3.5527e-05
3.52752e-05
3.50288e-05
3.60752e-05
3.3882e-05
2.72998e-05
2.7074e-05
3.41097e-05
3.60473e-05
3.52742e-05
3.52944e-05
3.5527e-05
3.52752e-05
3.50298e-05
3.60757e-05
3.38821e-05
2.72996e-05
2.7074e-05
3.41098e-05
3.34427e-05
3.34434e-05
3.69026e-05
3.31608e-05
3.31609e-05
2.01737e-05
1.99941e-05
3.60475e-05
3.52742e-05
3.52939e-05
3.55266e-05
3.52752e-05
3.50294e-05
3.60757e-05
3.3882e-05
2.72997e-05
2.70739e-05
3.41098e-05
3.38822e-05
2.72996e-05
2.70736e-05
3.41098e-05
2.01732e-05
1.9994e-05
2.0173e-05
1.99939e-05
3.23937e-05
1.8949e-05
1.89479e-05
1.89546e-05
1.89531e-05
3.24022e-05
3.50487e-05
3.70001e-05
2.6904e-05
3.31564e-05
2.64802e-05
3.53045e-05
3.69418e-05
3.50464e-05
3.69982e-05
2.69019e-05
3.31558e-05
2.64777e-05
3.53027e-05
3.69396e-05
3.24021e-05
1.89545e-05
1.89531e-05
1.89488e-05
1.89477e-05
3.23938e-05
3.53047e-05
2.64803e-05
3.34437e-05
3.6942e-05
2.6904e-05
3.50489e-05
3.70005e-05
3.53029e-05
2.64778e-05
3.34427e-05
3.69398e-05
2.69019e-05
3.50467e-05
3.69985e-05
2.38432e-05
2.46723e-05
3.36911e-05
3.41101e-05
2.48029e-05
3.39104e-05
2.36967e-05
1.84171e-05
2.70715e-05
3.27662e-05
3.25457e-05
1.86205e-05
1.86207e-05
3.25504e-05
2.73006e-05
3.27666e-05
1.84195e-05
2.3694e-05
3.38771e-05
2.48026e-05
3.391e-05
2.46695e-05
3.36868e-05
2.3843e-05
1.99918e-05
2.01741e-05
2.38436e-05
3.36909e-05
2.46721e-05
3.41102e-05
3.39105e-05
2.48028e-05
2.36968e-05
1.84173e-05
2.70704e-05
3.27666e-05
3.25463e-05
1.86211e-05
1.86213e-05
3.25511e-05
2.73001e-05
3.2767e-05
1.84196e-05
2.36942e-05
3.38768e-05
3.39101e-05
2.48026e-05
3.36867e-05
2.46693e-05
2.38435e-05
1.99912e-05
2.01734e-05
3.23933e-05
1.89528e-05
1.89513e-05
1.89543e-05
1.89529e-05
3.24074e-05
3.5049e-05
3.70008e-05
2.69035e-05
3.31566e-05
3.53048e-05
3.69423e-05
2.64801e-05
3.50468e-05
3.69989e-05
2.69014e-05
3.31562e-05
3.5303e-05
3.69402e-05
2.64777e-05
3.2402e-05
1.89541e-05
1.89527e-05
3.2392e-05
1.89491e-05
1.89478e-05
3.53051e-05
2.64833e-05
3.34438e-05
3.69473e-05
3.7001e-05
2.69038e-05
3.50538e-05
3.53033e-05
2.64809e-05
3.34429e-05
3.6945e-05
3.6999e-05
2.69017e-05
3.50515e-05
1.99915e-05
2.01737e-05
1.99913e-05
2.01735e-05
3.2402e-05
1.89545e-05
1.89531e-05
3.23935e-05
1.89486e-05
1.89475e-05
3.53047e-05
3.69422e-05
2.64801e-05
3.34434e-05
3.50488e-05
2.69038e-05
3.70007e-05
3.53029e-05
3.69401e-05
2.64777e-05
3.34424e-05
3.50466e-05
2.69016e-05
3.69987e-05
3.23926e-05
1.89485e-05
1.89471e-05
3.24018e-05
1.89543e-05
1.89529e-05
3.50488e-05
2.6904e-05
3.70003e-05
3.31566e-05
3.53046e-05
2.64803e-05
3.69422e-05
3.50466e-05
2.69019e-05
3.69984e-05
3.31561e-05
3.53028e-05
2.64778e-05
3.69399e-05
2.01735e-05
1.99916e-05
2.01733e-05
1.99914e-05
1.99921e-05
2.01743e-05
1.99915e-05
2.01739e-05
3.23938e-05
1.8951e-05
1.89502e-05
1.89546e-05
1.89529e-05
3.24068e-05
3.50485e-05
3.69998e-05
3.31565e-05
2.6904e-05
2.64804e-05
3.69416e-05
3.53043e-05
3.50464e-05
3.69978e-05
3.3156e-05
2.69016e-05
2.64776e-05
3.69394e-05
3.53025e-05
3.53045e-05
2.64833e-05
3.34439e-05
3.69462e-05
2.69041e-05
3.50524e-05
3.7e-05
3.53027e-05
2.64804e-05
3.34429e-05
3.69439e-05
2.69016e-05
3.50502e-05
3.69982e-05
3.24021e-05
1.89545e-05
1.89529e-05
1.89488e-05
1.89478e-05
3.23937e-05
2.38435e-05
2.46723e-05
3.36914e-05
3.41102e-05
2.48029e-05
3.39105e-05
2.36969e-05
1.84171e-05
2.7071e-05
3.27667e-05
3.25465e-05
1.86208e-05
1.86209e-05
3.25516e-05
2.73005e-05
3.27671e-05
1.84195e-05
2.36942e-05
3.38771e-05
2.48026e-05
3.39101e-05
2.46695e-05
3.36868e-05
2.38434e-05
3.23939e-05
1.89507e-05
1.89521e-05
1.89533e-05
1.89546e-05
3.24071e-05
3.50466e-05
3.69985e-05
3.31565e-05
2.69018e-05
2.6478e-05
3.69403e-05
3.53026e-05
3.50484e-05
3.69993e-05
3.31567e-05
2.69035e-05
3.6941e-05
2.64801e-05
3.53041e-05
3.53029e-05
2.6481e-05
3.34432e-05
3.69451e-05
2.69021e-05
3.6999e-05
3.50509e-05
3.53043e-05
2.6483e-05
3.34436e-05
3.69457e-05
3.69995e-05
2.69037e-05
3.50525e-05
3.24021e-05
1.89531e-05
1.89543e-05
1.89481e-05
1.89494e-05
3.23933e-05
1.9992e-05
2.01742e-05
2.38431e-05
2.46721e-05
3.36909e-05
3.41102e-05
2.48028e-05
3.39104e-05
2.36964e-05
1.8417e-05
2.70704e-05
3.27662e-05
3.25457e-05
1.86207e-05
1.86207e-05
3.25505e-05
2.73001e-05
3.27666e-05
1.84192e-05
2.36937e-05
3.38768e-05
2.48026e-05
3.391e-05
2.46693e-05
3.36865e-05
2.3843e-05
2.38435e-05
3.36918e-05
2.46723e-05
3.41103e-05
3.39105e-05
2.48026e-05
2.36973e-05
1.84174e-05
2.70709e-05
3.27665e-05
3.25466e-05
1.86209e-05
1.8621e-05
3.25516e-05
2.72999e-05
3.27669e-05
1.84199e-05
2.36943e-05
3.38773e-05
3.391e-05
2.48023e-05
3.3687e-05
2.46693e-05
2.38432e-05
2.3843e-05
2.46723e-05
3.36916e-05
3.41104e-05
2.48026e-05
3.39105e-05
2.36968e-05
1.84171e-05
2.70709e-05
3.27661e-05
3.25455e-05
1.862e-05
1.86204e-05
3.2551e-05
2.72998e-05
3.27666e-05
1.84197e-05
2.36939e-05
3.38773e-05
2.48023e-05
3.39099e-05
2.46693e-05
3.36868e-05
2.38427e-05
3.23942e-05
1.89504e-05
1.89515e-05
1.89528e-05
1.89545e-05
3.24071e-05
3.50469e-05
3.69989e-05
3.31561e-05
2.69018e-05
2.64777e-05
3.69405e-05
3.5303e-05
3.50487e-05
3.69996e-05
3.31564e-05
2.69039e-05
3.69413e-05
2.64804e-05
3.53045e-05
3.53032e-05
2.64805e-05
3.3443e-05
3.6945e-05
2.69019e-05
3.69991e-05
3.50508e-05
3.53046e-05
2.64833e-05
3.34436e-05
3.69457e-05
3.69997e-05
2.69041e-05
3.50527e-05
3.24022e-05
1.89528e-05
1.89544e-05
1.89479e-05
1.89488e-05
3.23935e-05
1.99917e-05
2.01739e-05
2.38431e-05
3.36915e-05
2.46723e-05
3.41103e-05
3.39105e-05
2.48026e-05
2.36968e-05
1.84173e-05
2.70708e-05
3.27661e-05
3.25458e-05
1.86206e-05
1.86209e-05
3.25506e-05
2.72999e-05
3.27665e-05
1.84198e-05
2.36939e-05
3.38774e-05
3.391e-05
2.48022e-05
3.3687e-05
2.46693e-05
2.38428e-05
2.38434e-05
3.36922e-05
2.46723e-05
3.41103e-05
3.39106e-05
2.48026e-05
2.36973e-05
1.84172e-05
2.70705e-05
3.27666e-05
3.25466e-05
1.862e-05
1.86208e-05
3.25522e-05
2.72998e-05
3.27671e-05
1.842e-05
2.36943e-05
3.38774e-05
3.39101e-05
2.48022e-05
3.36871e-05
2.46693e-05
2.3843e-05
1.99915e-05
2.01735e-05
1.99913e-05
2.01733e-05
3.6452e-05
3.70156e-05
3.70155e-05
3.68995e-05
3.65783e-05
3.69975e-05
3.69973e-05
3.52238e-05
3.52238e-05
3.52553e-05
3.52248e-05
3.52248e-05
3.52201e-05
3.5219e-05
3.64522e-05
3.70162e-05
3.70164e-05
3.68996e-05
3.65791e-05
3.69977e-05
3.69976e-05
3.65789e-05
3.69072e-05
3.69978e-05
3.69977e-05
3.64523e-05
3.70163e-05
3.70162e-05
3.64517e-05
3.70154e-05
3.70152e-05
3.6899e-05
3.69971e-05
3.69969e-05
3.65781e-05
3.64517e-05
3.70158e-05
3.70154e-05
3.68994e-05
3.69969e-05
3.69974e-05
3.65782e-05
3.64521e-05
3.70163e-05
3.70157e-05
3.68995e-05
3.69972e-05
3.69977e-05
3.65787e-05
3.65787e-05
3.69073e-05
3.69974e-05
3.69973e-05
3.64521e-05
3.70161e-05
3.70161e-05
3.52238e-05
3.52238e-05
3.52552e-05
3.52248e-05
3.52248e-05
3.52201e-05
3.52191e-05
3.52238e-05
3.52238e-05
3.52553e-05
3.52248e-05
3.52248e-05
3.52201e-05
3.52191e-05
3.52238e-05
3.52238e-05
3.52553e-05
3.52248e-05
3.52248e-05
3.52201e-05
3.5219e-05
3.57051e-05
3.60803e-05
3.57004e-05
3.6076e-05
3.61055e-05
3.56586e-05
3.57512e-05
3.59262e-05
3.62806e-05
3.50247e-05
3.60819e-05
3.62645e-05
3.6042e-05
3.58832e-05
3.58835e-05
3.60464e-05
3.5294e-05
3.62677e-05
3.62807e-05
3.60822e-05
3.59291e-05
3.57483e-05
3.60431e-05
3.61051e-05
3.56582e-05
3.60761e-05
3.56975e-05
3.57048e-05
3.57052e-05
3.57005e-05
3.60804e-05
3.6076e-05
3.56587e-05
3.61056e-05
3.57513e-05
3.59264e-05
3.6281e-05
3.50247e-05
3.6082e-05
3.62647e-05
3.6042e-05
3.58834e-05
3.58836e-05
3.60463e-05
3.52941e-05
3.62678e-05
3.6281e-05
3.60822e-05
3.59292e-05
3.57484e-05
3.60432e-05
3.56583e-05
3.61054e-05
3.56975e-05
3.60763e-05
3.57049e-05
3.65791e-05
3.69077e-05
3.70007e-05
3.70005e-05
3.70163e-05
3.70164e-05
3.64556e-05
3.64522e-05
3.68997e-05
3.70157e-05
3.70157e-05
3.65785e-05
3.69977e-05
3.69974e-05
3.65782e-05
3.69068e-05
3.69999e-05
3.69997e-05
3.64547e-05
3.70155e-05
3.70155e-05
3.57052e-05
3.60801e-05
3.57002e-05
3.60757e-05
3.61054e-05
3.56585e-05
3.57512e-05
3.59265e-05
3.62812e-05
3.50249e-05
3.6082e-05
3.60421e-05
3.62651e-05
3.58835e-05
3.58838e-05
3.60464e-05
3.52944e-05
3.62682e-05
3.60824e-05
3.62814e-05
3.59293e-05
3.57483e-05
3.60428e-05
3.6105e-05
3.5658e-05
3.6076e-05
3.56973e-05
3.57048e-05
3.57051e-05
3.60801e-05
3.57002e-05
3.60756e-05
3.61053e-05
3.56585e-05
3.57512e-05
3.59265e-05
3.62804e-05
3.50248e-05
3.6082e-05
3.60421e-05
3.62645e-05
3.58833e-05
3.58836e-05
3.60465e-05
3.52942e-05
3.62676e-05
3.60823e-05
3.59292e-05
3.62808e-05
3.57483e-05
3.60427e-05
3.61049e-05
3.5658e-05
3.60759e-05
3.56973e-05
3.57047e-05
3.65783e-05
3.69075e-05
3.70003e-05
3.69999e-05
3.70154e-05
3.70161e-05
3.64549e-05
3.57051e-05
3.60799e-05
3.57002e-05
3.60757e-05
3.61053e-05
3.56586e-05
3.57511e-05
3.59261e-05
3.628e-05
3.50243e-05
3.60817e-05
3.60418e-05
3.62639e-05
3.58831e-05
3.58835e-05
3.60462e-05
3.52939e-05
3.6267e-05
3.60821e-05
3.62804e-05
3.5929e-05
3.57482e-05
3.60427e-05
3.61048e-05
3.5658e-05
3.60758e-05
3.56973e-05
3.57047e-05
3.57052e-05
3.57002e-05
3.60801e-05
3.60758e-05
3.56586e-05
3.61055e-05
3.57512e-05
3.59265e-05
3.62806e-05
3.50247e-05
3.6082e-05
3.60421e-05
3.62645e-05
3.58834e-05
3.58838e-05
3.60465e-05
3.52942e-05
3.62676e-05
3.60825e-05
3.59293e-05
3.62809e-05
3.57484e-05
3.60427e-05
3.56581e-05
3.6105e-05
3.56973e-05
3.6076e-05
3.57048e-05
3.57054e-05
3.57004e-05
3.60807e-05
3.60761e-05
3.56587e-05
3.61059e-05
3.57515e-05
3.59267e-05
3.62816e-05
3.50252e-05
3.60825e-05
3.62654e-05
3.60423e-05
3.58837e-05
3.58841e-05
3.6047e-05
3.52947e-05
3.62688e-05
3.62819e-05
3.60828e-05
3.59297e-05
3.57485e-05
3.60431e-05
3.56583e-05
3.61055e-05
3.56975e-05
3.60763e-05
3.5705e-05
3.65784e-05
3.69071e-05
3.70004e-05
3.69999e-05
3.70154e-05
3.7016e-05
3.6455e-05
3.57053e-05
3.57006e-05
3.60807e-05
3.6076e-05
3.56587e-05
3.61056e-05
3.57514e-05
3.59264e-05
3.62807e-05
3.50247e-05
3.60822e-05
3.62643e-05
3.60422e-05
3.58834e-05
3.58836e-05
3.60468e-05
3.52941e-05
3.62677e-05
3.62807e-05
3.60824e-05
3.59293e-05
3.57485e-05
3.60432e-05
3.56583e-05
3.61054e-05
3.56975e-05
3.60763e-05
3.57049e-05
3.52553e-05
3.55264e-05
3.55268e-05
3.69065e-05
3.52542e-05
3.55254e-05
3.55258e-05
3.69067e-05
3.52542e-05
3.55255e-05
3.55257e-05
3.69066e-05
3.52542e-05
3.55255e-05
3.55258e-05
3.69068e-05
3.52542e-05
3.55257e-05
3.55257e-05
3.69068e-05
3.52542e-05
3.55255e-05
3.55258e-05
3.69068e-05
3.52542e-05
3.55256e-05
3.55259e-05
3.69068e-05
3.52542e-05
3.55255e-05
3.55257e-05
3.69073e-05
3.52542e-05
3.55255e-05
3.55258e-05
3.69065e-05
3.52542e-05
3.55253e-05
3.55258e-05
3.69061e-05
3.52542e-05
3.55255e-05
3.55259e-05
3.69063e-05
3.52542e-05
3.55255e-05
3.55258e-05
3.69068e-05
3.52542e-05
3.55257e-05
3.5526e-05
3.69072e-05
3.52542e-05
3.55255e-05
3.55259e-05
3.6907e-05
3.52543e-05
3.55255e-05
3.55259e-05
3.69065e-05
3.52542e-05
3.55254e-05
3.55257e-05
3.69063e-05
3.52542e-05
3.55256e-05
3.55259e-05
3.69098e-05
3.68988e-05
3.55268e-05
3.55268e-05
3.55259e-05
3.55258e-05
3.69098e-05
3.68988e-05
3.55265e-05
3.55268e-05
3.55254e-05
3.55259e-05
3.55262e-05
3.55256e-05
3.5526e-05
3.691e-05
3.68994e-05
3.5526e-05
3.55256e-05
3.55255e-05
3.68991e-05
3.69063e-05
3.68991e-05
3.55258e-05
3.55257e-05
3.55259e-05
3.55257e-05
3.69066e-05
3.68991e-05
3.55256e-05
3.55259e-05
3.55257e-05
3.55258e-05
3.55259e-05
3.55258e-05
3.5526e-05
3.69071e-05
3.68997e-05
3.55256e-05
3.55257e-05
3.55259e-05
3.68992e-05
3.69069e-05
3.6899e-05
3.55257e-05
3.55258e-05
3.55258e-05
3.55258e-05
3.69068e-05
3.68985e-05
3.55256e-05
3.55258e-05
3.55257e-05
3.55259e-05
3.5526e-05
3.55257e-05
3.5526e-05
3.69073e-05
3.68997e-05
3.55258e-05
3.55257e-05
3.55258e-05
3.68991e-05
3.69068e-05
3.68992e-05
3.55257e-05
3.55258e-05
3.55259e-05
3.55259e-05
3.69061e-05
3.68991e-05
3.55256e-05
3.55258e-05
3.55255e-05
3.55259e-05
3.5526e-05
3.55258e-05
3.5526e-05
3.69073e-05
3.68999e-05
3.55256e-05
3.55257e-05
3.55259e-05
3.68993e-05
3.69068e-05
3.68993e-05
3.55259e-05
3.5526e-05
3.5526e-05
3.55259e-05
3.69067e-05
3.68991e-05
3.55256e-05
3.55258e-05
3.55258e-05
3.55259e-05
3.55261e-05
3.55256e-05
3.55261e-05
3.69076e-05
3.69001e-05
3.55258e-05
3.55258e-05
3.55256e-05
3.68994e-05
3.6907e-05
3.6899e-05
3.5526e-05
3.5526e-05
3.55259e-05
3.55258e-05
3.69066e-05
3.68991e-05
3.55256e-05
3.55259e-05
3.55256e-05
3.55259e-05
3.55259e-05
3.55258e-05
3.55259e-05
3.69077e-05
3.68999e-05
3.55258e-05
3.55257e-05
3.55259e-05
3.68992e-05
3.69065e-05
3.68993e-05
3.55259e-05
3.55259e-05
3.55259e-05
3.55259e-05
3.69069e-05
3.68993e-05
3.55257e-05
3.55259e-05
3.55257e-05
3.5526e-05
3.55259e-05
3.55257e-05
3.55261e-05
3.69073e-05
3.69e-05
3.55257e-05
3.55257e-05
3.55256e-05
3.68998e-05
3.69072e-05
3.68991e-05
3.55257e-05
3.55258e-05
3.55259e-05
3.55257e-05
3.6907e-05
3.68989e-05
3.55257e-05
3.55259e-05
3.55257e-05
3.55259e-05
3.5526e-05
3.55256e-05
3.5526e-05
3.69077e-05
3.68998e-05
3.55257e-05
3.55257e-05
3.55256e-05
3.68992e-05
3.69067e-05
3.68984e-05
3.55259e-05
3.55258e-05
3.55258e-05
3.55258e-05
3.69063e-05
3.68985e-05
3.55256e-05
3.5526e-05
3.55255e-05
3.55258e-05
3.5526e-05
3.55256e-05
3.5526e-05
3.69071e-05
3.68992e-05
3.55257e-05
3.55256e-05
3.55255e-05
3.68989e-05
3.69061e-05
3.6899e-05
3.55258e-05
3.55258e-05
3.55259e-05
3.55257e-05
3.69062e-05
3.68986e-05
3.55255e-05
3.55258e-05
3.55255e-05
3.55259e-05
3.5526e-05
3.55257e-05
3.5526e-05
3.69067e-05
3.68994e-05
3.55257e-05
3.55258e-05
3.55258e-05
3.68988e-05
3.69066e-05
3.68996e-05
3.55258e-05
3.55259e-05
3.55259e-05
3.55259e-05
3.69062e-05
3.68993e-05
3.55254e-05
3.55259e-05
3.55256e-05
3.55259e-05
3.55259e-05
3.55257e-05
3.55261e-05
3.6907e-05
3.68998e-05
3.55257e-05
3.55258e-05
3.55258e-05
3.68995e-05
3.69074e-05
3.68999e-05
3.55258e-05
3.55258e-05
3.5526e-05
3.55259e-05
3.69072e-05
3.68997e-05
3.55258e-05
3.55259e-05
3.55256e-05
3.5526e-05
3.55261e-05
3.55257e-05
3.55261e-05
3.69074e-05
3.69003e-05
3.55257e-05
3.55258e-05
3.55258e-05
3.68999e-05
3.69074e-05
3.68993e-05
3.5526e-05
3.5526e-05
3.5526e-05
3.55259e-05
3.69072e-05
3.68992e-05
3.55256e-05
3.55259e-05
3.55257e-05
3.55259e-05
3.55261e-05
3.55257e-05
3.55261e-05
3.69079e-05
3.69e-05
3.55258e-05
3.55258e-05
3.55259e-05
3.68996e-05
3.6907e-05
3.68988e-05
3.55259e-05
3.55258e-05
3.55258e-05
3.55257e-05
3.69069e-05
3.68988e-05
3.55257e-05
3.55259e-05
3.55257e-05
3.55258e-05
3.5526e-05
3.55256e-05
3.5526e-05
3.69074e-05
3.68995e-05
3.55259e-05
3.55258e-05
3.55256e-05
3.68991e-05
3.69062e-05
3.68984e-05
3.55259e-05
3.55258e-05
3.55258e-05
3.55257e-05
3.69064e-05
3.68984e-05
3.55256e-05
3.55259e-05
3.55256e-05
3.55258e-05
3.55259e-05
3.55256e-05
3.5526e-05
3.6907e-05
3.68992e-05
3.55257e-05
3.55257e-05
3.55257e-05
3.68987e-05
3.69062e-05
3.68991e-05
3.55258e-05
3.55258e-05
3.55259e-05
3.55257e-05
3.69064e-05
3.6899e-05
3.55255e-05
3.55258e-05
3.55257e-05
3.55258e-05
3.55258e-05
3.55258e-05
3.55259e-05
3.69068e-05
3.68996e-05
3.55257e-05
3.55257e-05
3.55258e-05
3.6899e-05
3.69068e-05
3.68991e-05
3.55259e-05
3.55259e-05
3.55259e-05
3.5526e-05
3.69066e-05
3.68991e-05
3.55255e-05
3.55259e-05
3.55255e-05
3.5526e-05
3.5526e-05
3.55256e-05
3.55259e-05
3.69072e-05
3.68997e-05
3.55257e-05
3.55257e-05
3.55259e-05
3.38764e-05
2.73034e-05
2.70713e-05
3.41141e-05
2.01761e-05
1.99917e-05
3.38764e-05
2.73027e-05
2.70703e-05
3.41141e-05
3.52553e-05
3.52553e-05
3.52545e-05
3.52542e-05
3.52542e-05
3.52542e-05
3.52542e-05
3.60425e-05
3.52978e-05
3.52752e-05
3.55257e-05
3.50242e-05
3.52742e-05
3.60794e-05
2.01756e-05
1.99911e-05
3.60424e-05
3.52753e-05
3.52979e-05
3.55257e-05
3.52742e-05
3.50241e-05
3.60793e-05
3.34435e-05
3.34426e-05
3.68992e-05
3.31563e-05
3.31557e-05
3.38769e-05
2.73002e-05
3.41096e-05
2.70713e-05
2.01739e-05
1.99917e-05
3.38768e-05
2.72996e-05
3.41096e-05
2.70703e-05
3.52542e-05
3.52542e-05
3.52542e-05
3.52543e-05
3.52542e-05
3.52542e-05
3.52543e-05
3.60425e-05
3.52935e-05
3.52741e-05
3.55258e-05
3.60753e-05
3.50242e-05
3.52741e-05
2.01732e-05
1.99912e-05
3.60427e-05
3.52741e-05
3.52937e-05
3.55257e-05
3.60755e-05
3.52741e-05
3.50244e-05
3.34435e-05
3.34425e-05
3.68991e-05
3.31561e-05
3.31556e-05
3.38767e-05
2.73002e-05
3.41096e-05
2.70713e-05
2.01739e-05
1.99918e-05
3.38763e-05
2.72997e-05
3.41096e-05
2.70701e-05
3.52542e-05
3.52542e-05
3.52543e-05
3.52542e-05
3.52542e-05
3.52542e-05
3.52543e-05
3.60426e-05
3.52936e-05
3.52741e-05
3.55256e-05
3.60753e-05
3.50243e-05
3.52741e-05
2.01734e-05
1.99911e-05
3.60428e-05
3.52741e-05
3.52938e-05
3.55257e-05
3.60755e-05
3.52741e-05
3.50243e-05
3.34436e-05
3.34427e-05
3.68993e-05
3.31567e-05
3.31561e-05
3.38761e-05
2.73005e-05
3.41096e-05
2.70711e-05
2.01742e-05
1.99917e-05
3.38765e-05
2.72999e-05
3.41097e-05
2.70703e-05
3.52542e-05
3.52542e-05
3.52542e-05
3.52542e-05
3.52542e-05
3.52542e-05
3.52543e-05
3.60422e-05
3.52934e-05
3.52741e-05
3.55257e-05
3.60749e-05
3.50239e-05
3.52741e-05
2.01734e-05
1.99912e-05
3.60426e-05
3.52742e-05
3.52937e-05
3.55257e-05
3.60752e-05
3.52742e-05
3.50243e-05
3.34435e-05
3.34426e-05
3.68992e-05
3.3156e-05
3.31554e-05
3.38772e-05
2.73002e-05
3.41098e-05
2.70714e-05
2.01737e-05
1.99918e-05
3.38764e-05
2.72997e-05
3.41096e-05
2.70701e-05
3.52542e-05
3.52542e-05
3.52543e-05
3.52543e-05
3.52542e-05
3.52542e-05
3.52543e-05
3.60431e-05
3.5294e-05
3.52741e-05
3.55257e-05
3.60758e-05
3.50249e-05
3.52742e-05
2.01734e-05
1.99911e-05
3.60428e-05
3.52741e-05
3.52938e-05
3.55257e-05
3.60756e-05
3.52741e-05
3.50244e-05
3.34436e-05
3.34428e-05
3.68992e-05
3.31567e-05
3.31561e-05
3.38766e-05
2.73004e-05
3.41097e-05
2.70712e-05
2.0174e-05
1.99917e-05
3.3877e-05
2.72996e-05
3.41098e-05
2.70703e-05
3.52542e-05
3.52542e-05
3.52542e-05
3.52542e-05
3.52542e-05
3.52542e-05
3.52542e-05
3.60426e-05
3.52935e-05
3.52741e-05
3.55256e-05
3.60752e-05
3.50242e-05
3.52741e-05
2.0173e-05
1.99911e-05
3.60431e-05
3.52742e-05
3.52941e-05
3.55258e-05
3.60758e-05
3.52742e-05
3.50248e-05
3.34435e-05
3.34426e-05
3.68994e-05
3.31562e-05
3.31558e-05
3.38768e-05
2.73001e-05
3.41097e-05
2.70712e-05
2.01737e-05
1.99916e-05
3.38764e-05
2.72998e-05
3.41097e-05
2.70702e-05
3.52542e-05
3.52543e-05
3.52542e-05
3.52542e-05
3.52543e-05
3.52542e-05
3.52543e-05
3.60432e-05
3.52939e-05
3.52741e-05
3.55256e-05
3.60759e-05
3.5025e-05
3.52741e-05
2.01733e-05
1.99911e-05
3.60431e-05
3.52742e-05
3.52938e-05
3.55258e-05
3.60758e-05
3.52742e-05
3.50247e-05
3.34434e-05
3.34426e-05
3.68999e-05
3.31569e-05
3.31563e-05
3.38766e-05
2.73004e-05
3.41098e-05
2.70714e-05
2.0174e-05
1.99918e-05
3.38766e-05
2.72997e-05
3.41098e-05
2.70703e-05
3.52542e-05
3.52542e-05
3.52543e-05
3.52543e-05
3.52542e-05
3.52542e-05
3.52543e-05
3.60427e-05
3.52937e-05
3.52741e-05
3.55257e-05
3.60753e-05
3.50243e-05
3.52741e-05
2.01731e-05
1.99911e-05
3.60428e-05
3.52741e-05
3.52939e-05
3.55258e-05
3.60755e-05
3.52742e-05
3.50246e-05
3.34436e-05
3.34427e-05
3.68994e-05
3.31564e-05
3.31559e-05
3.38764e-05
2.73004e-05
3.41096e-05
2.70713e-05
2.01742e-05
1.99919e-05
3.38762e-05
2.73e-05
3.41097e-05
2.70702e-05
3.52542e-05
3.52543e-05
3.52543e-05
3.52542e-05
3.52542e-05
3.52542e-05
3.52543e-05
3.60422e-05
3.52933e-05
3.52741e-05
3.55255e-05
3.60749e-05
3.50239e-05
3.52741e-05
2.01735e-05
1.99912e-05
3.60424e-05
3.52742e-05
3.52935e-05
3.55258e-05
3.60752e-05
3.52742e-05
3.50242e-05
3.34436e-05
3.34428e-05
3.68992e-05
3.31562e-05
3.31556e-05
3.38758e-05
2.73007e-05
3.41094e-05
2.70712e-05
2.01744e-05
1.99918e-05
3.38759e-05
2.73001e-05
3.41094e-05
2.70702e-05
3.52542e-05
3.52542e-05
3.52543e-05
3.52542e-05
3.52542e-05
3.52542e-05
3.52543e-05
3.60419e-05
3.52932e-05
3.52741e-05
3.55255e-05
3.60747e-05
3.50236e-05
3.52741e-05
2.01736e-05
1.99912e-05
3.60421e-05
3.52742e-05
3.52935e-05
3.55257e-05
3.60749e-05
3.52742e-05
3.50239e-05
3.34436e-05
3.34427e-05
3.68987e-05
3.31556e-05
3.3155e-05
3.38766e-05
2.73003e-05
3.41096e-05
2.70713e-05
2.01741e-05
1.99918e-05
3.38764e-05
2.72999e-05
3.41095e-05
2.70703e-05
3.52542e-05
3.52543e-05
3.52542e-05
3.52542e-05
3.52542e-05
3.52542e-05
3.52542e-05
3.60425e-05
3.52935e-05
3.52741e-05
3.55257e-05
3.60754e-05
3.50242e-05
3.52741e-05
2.01735e-05
1.99911e-05
3.60426e-05
3.52742e-05
3.52935e-05
3.55257e-05
3.60754e-05
3.52742e-05
3.50243e-05
3.34436e-05
3.34426e-05
3.68992e-05
3.31558e-05
3.31553e-05
3.38773e-05
2.73e-05
3.41099e-05
2.70714e-05
2.01737e-05
1.99918e-05
3.38772e-05
2.72996e-05
3.41098e-05
2.70704e-05
3.52542e-05
3.52542e-05
3.52543e-05
3.52542e-05
3.52542e-05
3.52542e-05
3.52542e-05
3.60432e-05
3.5294e-05
3.52741e-05
3.55256e-05
3.60758e-05
3.5025e-05
3.52741e-05
2.01731e-05
1.99911e-05
3.60431e-05
3.52741e-05
3.5294e-05
3.5526e-05
3.60758e-05
3.52742e-05
3.50249e-05
3.34438e-05
3.34428e-05
3.68996e-05
3.31565e-05
3.3156e-05
3.38776e-05
2.73001e-05
3.411e-05
2.70716e-05
2.01736e-05
1.99918e-05
3.38774e-05
2.72995e-05
3.41099e-05
2.70705e-05
3.52542e-05
3.52542e-05
3.52542e-05
3.52543e-05
3.52543e-05
3.52542e-05
3.52543e-05
3.60433e-05
3.52941e-05
3.52741e-05
3.55258e-05
3.6076e-05
3.50251e-05
3.52742e-05
2.01728e-05
1.99911e-05
3.60435e-05
3.52742e-05
3.52943e-05
3.55258e-05
3.60762e-05
3.52742e-05
3.50253e-05
3.34437e-05
3.34428e-05
3.68997e-05
3.31569e-05
3.31565e-05
3.38767e-05
2.73003e-05
3.41098e-05
2.70714e-05
2.0174e-05
1.99919e-05
3.38768e-05
2.72998e-05
3.41098e-05
2.70705e-05
3.52542e-05
3.52543e-05
3.52543e-05
3.52543e-05
3.52542e-05
3.52542e-05
3.52543e-05
3.60428e-05
3.52938e-05
3.52741e-05
3.55257e-05
3.60756e-05
3.50245e-05
3.52742e-05
2.01732e-05
1.99912e-05
3.6043e-05
3.52742e-05
3.5294e-05
3.55257e-05
3.60758e-05
3.52742e-05
3.50247e-05
3.34437e-05
3.34427e-05
3.68993e-05
3.31571e-05
3.31566e-05
3.38763e-05
2.73005e-05
3.41095e-05
2.70714e-05
2.01744e-05
1.99918e-05
3.3876e-05
2.73001e-05
3.41095e-05
2.70704e-05
3.52542e-05
3.52543e-05
3.52543e-05
3.52542e-05
3.52542e-05
3.52542e-05
3.52543e-05
3.60422e-05
3.52933e-05
3.52741e-05
3.55255e-05
3.6075e-05
3.50238e-05
3.52741e-05
2.01736e-05
1.99912e-05
3.60424e-05
3.52742e-05
3.52934e-05
3.55257e-05
3.60753e-05
3.52742e-05
3.5024e-05
3.34434e-05
3.34425e-05
3.68988e-05
3.31559e-05
3.31555e-05
3.38758e-05
2.73004e-05
3.41095e-05
2.70709e-05
2.01741e-05
1.99917e-05
3.38759e-05
2.72998e-05
3.41094e-05
2.707e-05
3.52542e-05
3.52542e-05
3.52542e-05
3.52542e-05
3.52542e-05
3.52542e-05
3.52542e-05
3.60422e-05
3.52934e-05
3.52741e-05
3.55256e-05
3.6075e-05
3.50242e-05
3.52741e-05
2.01736e-05
1.99911e-05
3.60422e-05
3.52741e-05
3.52934e-05
3.55257e-05
3.60749e-05
3.52741e-05
3.5024e-05
3.34434e-05
3.34424e-05
3.6899e-05
3.31562e-05
3.31556e-05
3.38768e-05
2.73003e-05
3.41097e-05
2.70713e-05
2.01739e-05
1.99917e-05
3.38764e-05
2.72998e-05
3.41096e-05
2.70702e-05
3.52542e-05
3.52542e-05
3.52542e-05
3.52542e-05
3.52542e-05
3.52542e-05
3.52542e-05
3.60429e-05
3.52937e-05
3.52741e-05
3.55258e-05
3.60756e-05
3.50247e-05
3.52742e-05
2.01734e-05
1.99911e-05
3.60428e-05
3.52742e-05
3.52938e-05
3.55258e-05
3.60756e-05
3.52742e-05
3.50245e-05
2.01764e-05
1.9992e-05
2.01759e-05
1.99915e-05
3.34481e-05
3.34471e-05
3.6899e-05
3.31563e-05
3.31557e-05
1.99919e-05
2.01743e-05
1.99914e-05
2.01737e-05
3.69065e-05
3.31566e-05
3.3156e-05
3.34435e-05
3.34425e-05
3.38765e-05
2.73032e-05
2.70709e-05
3.41141e-05
3.60424e-05
3.52983e-05
3.52752e-05
3.5526e-05
3.50246e-05
3.52742e-05
3.60793e-05
3.60424e-05
3.52981e-05
3.52752e-05
3.55259e-05
3.50245e-05
3.52742e-05
3.60793e-05
3.41096e-05
2.70711e-05
2.73004e-05
3.3876e-05
3.41096e-05
2.70707e-05
2.73004e-05
3.3876e-05
3.60752e-05
3.55259e-05
3.50247e-05
3.52741e-05
3.52939e-05
3.52741e-05
3.60424e-05
3.60751e-05
3.55259e-05
3.50244e-05
3.52741e-05
3.52938e-05
3.52741e-05
3.60423e-05
3.34475e-05
3.34479e-05
3.68987e-05
3.31563e-05
3.31564e-05
2.01763e-05
1.9992e-05
1.99917e-05
2.01741e-05
3.6906e-05
3.31563e-05
3.31564e-05
3.34429e-05
3.34433e-05
1.9992e-05
2.01743e-05
3.60425e-05
3.52978e-05
3.52752e-05
3.55255e-05
3.50241e-05
3.52742e-05
3.60794e-05
3.38764e-05
2.73027e-05
2.70703e-05
3.41142e-05
3.60425e-05
3.52752e-05
3.52982e-05
3.55262e-05
3.52742e-05
3.50243e-05
3.60795e-05
3.41096e-05
2.70701e-05
2.72998e-05
3.38761e-05
3.60752e-05
3.55256e-05
3.50241e-05
3.52741e-05
3.52934e-05
3.52741e-05
3.60424e-05
3.41096e-05
2.70703e-05
2.72997e-05
3.38761e-05
3.60753e-05
3.5526e-05
3.52742e-05
3.50245e-05
3.52742e-05
3.52938e-05
3.60425e-05
3.38764e-05
2.73027e-05
2.70707e-05
3.41142e-05
3.60425e-05
3.52753e-05
3.52941e-05
3.5526e-05
3.52742e-05
3.50246e-05
3.60796e-05
3.38765e-05
2.73e-05
2.70708e-05
3.41143e-05
3.60752e-05
3.55256e-05
3.50242e-05
3.52741e-05
3.52934e-05
3.52741e-05
3.60424e-05
3.41096e-05
2.70706e-05
2.72999e-05
3.38762e-05
3.60752e-05
3.55257e-05
3.52742e-05
3.50244e-05
3.52741e-05
3.52939e-05
3.60423e-05
3.41097e-05
2.70707e-05
2.72999e-05
3.38762e-05
3.34474e-05
3.34481e-05
3.68995e-05
3.31558e-05
3.31559e-05
2.01762e-05
1.99916e-05
1.99911e-05
2.01733e-05
3.69073e-05
3.31561e-05
3.31562e-05
3.34426e-05
3.34433e-05
1.99916e-05
2.0174e-05
3.60425e-05
3.52753e-05
3.52935e-05
3.55258e-05
3.52742e-05
3.50239e-05
3.60794e-05
3.38761e-05
2.73027e-05
2.70705e-05
3.41142e-05
3.38762e-05
2.73001e-05
2.70703e-05
3.41143e-05
3.60752e-05
3.55257e-05
3.52741e-05
3.50243e-05
3.52741e-05
3.52936e-05
3.60424e-05
3.60752e-05
3.55257e-05
3.52741e-05
3.50239e-05
3.52742e-05
3.52934e-05
3.60424e-05
3.41096e-05
2.70704e-05
2.72998e-05
3.38759e-05
3.41096e-05
2.70701e-05
2.72999e-05
3.38759e-05
2.0174e-05
1.99916e-05
2.01739e-05
1.99914e-05
3.69067e-05
3.31562e-05
3.31557e-05
3.34435e-05
3.34426e-05
1.99916e-05
2.0174e-05
1.99913e-05
2.01739e-05
2.01742e-05
1.99919e-05
2.01737e-05
1.99915e-05
3.34436e-05
3.34425e-05
3.68991e-05
3.31565e-05
3.3156e-05
1.9992e-05
2.01741e-05
1.99915e-05
2.01737e-05
3.69067e-05
3.31566e-05
3.3156e-05
3.34435e-05
3.34425e-05
3.38768e-05
2.73003e-05
3.41096e-05
2.70708e-05
3.60426e-05
3.52941e-05
3.52741e-05
3.5526e-05
3.60755e-05
3.50249e-05
3.52741e-05
3.60426e-05
3.52938e-05
3.52741e-05
3.55257e-05
3.60755e-05
3.50246e-05
3.52741e-05
3.41098e-05
2.70712e-05
2.73004e-05
3.38766e-05
3.41098e-05
2.70709e-05
2.73004e-05
3.38766e-05
3.60753e-05
3.55259e-05
3.50248e-05
3.52741e-05
3.5294e-05
3.52741e-05
3.60426e-05
3.60753e-05
3.55256e-05
3.50247e-05
3.52741e-05
3.5294e-05
3.52741e-05
3.60426e-05
3.34429e-05
3.34433e-05
3.68988e-05
3.31563e-05
3.31563e-05
2.01743e-05
1.99919e-05
1.99917e-05
2.01738e-05
3.69065e-05
3.31564e-05
3.31567e-05
3.34428e-05
3.34431e-05
1.9992e-05
2.0174e-05
3.60427e-05
3.52935e-05
3.52741e-05
3.55255e-05
3.60755e-05
3.50243e-05
3.52741e-05
3.38768e-05
2.72997e-05
3.41096e-05
2.70704e-05
3.60427e-05
3.52742e-05
3.5294e-05
3.55262e-05
3.60755e-05
3.52742e-05
3.50246e-05
3.41097e-05
2.70702e-05
2.72999e-05
3.38763e-05
3.60752e-05
3.55255e-05
3.50242e-05
3.52741e-05
3.52935e-05
3.52741e-05
3.60425e-05
3.41098e-05
2.70703e-05
2.72999e-05
3.38763e-05
3.60753e-05
3.55261e-05
3.52741e-05
3.50245e-05
3.52742e-05
3.52939e-05
3.60425e-05
3.38764e-05
2.72999e-05
3.41096e-05
2.70706e-05
3.60425e-05
3.52741e-05
3.5294e-05
3.5526e-05
3.60754e-05
3.52742e-05
3.50246e-05
3.38764e-05
2.72998e-05
3.41096e-05
2.70707e-05
3.60755e-05
3.55258e-05
3.50246e-05
3.52742e-05
3.52936e-05
3.52742e-05
3.60427e-05
3.41097e-05
2.70709e-05
2.72997e-05
3.3877e-05
3.60756e-05
3.55257e-05
3.52742e-05
3.5025e-05
3.52741e-05
3.52942e-05
3.60428e-05
3.41098e-05
2.70708e-05
2.72997e-05
3.3877e-05
3.34427e-05
3.34434e-05
3.68993e-05
3.31562e-05
3.31563e-05
2.01739e-05
1.99915e-05
1.99911e-05
2.01733e-05
3.69068e-05
3.3156e-05
3.31565e-05
3.34427e-05
3.34433e-05
1.99917e-05
2.01738e-05
3.60427e-05
3.52741e-05
3.52935e-05
3.55258e-05
3.60755e-05
3.52742e-05
3.50241e-05
3.38764e-05
2.72996e-05
3.41096e-05
2.70704e-05
3.38764e-05
2.72998e-05
3.41096e-05
2.70702e-05
3.60757e-05
3.55259e-05
3.52742e-05
3.50246e-05
3.52742e-05
3.52937e-05
3.60429e-05
3.60756e-05
3.55259e-05
3.52742e-05
3.50245e-05
3.52742e-05
3.52937e-05
3.60428e-05
3.41098e-05
2.70706e-05
2.72996e-05
3.38769e-05
3.41098e-05
2.70703e-05
2.72997e-05
3.38769e-05
2.01739e-05
1.99915e-05
2.01737e-05
1.99913e-05
3.69068e-05
3.31568e-05