/*--------------------------------*- C++ -*----------------------------------*\
| =========                 |                                                 |
| \\      /  F ield         | OpenFOAM: The Open Source CFD Toolbox           |
|  \\    /   O peration     | Version:  2206                                  |
|   \\  /    A nd           | Website:  www.openfoam.com                      |
|    \\/     M anipulation  |                                                 |
\*---------------------------------------------------------------------------*/
FoamFile
{
    version     2.0;
    format      ascii;
    arch        "LSB;label=32;scalar=64";
    class       volScalarField;
    location    "4.5";
    object      p;
}
// * * * * * * * * * * * * * * * * * * * * * * * * * * * * * * * * * * * * * //

dimensions      [0 2 -2 0 0 0 0];

internalField   nonuniform List<scalar> 
171728
(
0.000105659
9.60142e-05
0.000100912
0.000100915
0.000108219
8.59596e-05
0.000108166
0.00010094
0.000100932
0.00010818
0.000100941
0.000100932
0.00010092
0.00010817
0.000100926
0.000110203
0.0001102
8.47708e-05
8.27293e-05
8.27181e-05
7.84306e-05
0.000115607
8.02176e-05
0.000116467
0.000114837
8.14879e-05
7.83719e-05
0.000115603
8.02213e-05
0.000116487
9.59977e-05
9.60057e-05
9.59998e-05
9.11563e-05
0.000102904
0.00010062
0.000101527
9.44751e-05
0.000101236
0.000107334
0.000114828
8.15022e-05
9.11882e-05
0.000100632
0.000102906
0.000101532
0.000101249
9.4482e-05
0.000107341
0.000112732
0.000112729
8.72127e-05
8.517e-05
8.51743e-05
0.00011232
7.90083e-05
0.000112311
7.89966e-05
0.000106964
8.39283e-05
8.39258e-05
0.000111499
0.000111481
8.02093e-05
0.000113621
8.02104e-05
0.000113596
0.000114828
8.15232e-05
0.000114826
8.15212e-05
0.000112709
0.000112708
8.73228e-05
8.52402e-05
8.52384e-05
7.84372e-05
0.000115607
8.02003e-05
0.000116464
9.12974e-05
0.000102928
0.000100667
0.000101559
9.45202e-05
0.00010127
0.000107318
9.13052e-05
0.000102916
0.000100657
0.000101543
9.45138e-05
0.000101264
0.000107317
0.000112717
0.000112701
8.72772e-05
8.52058e-05
8.5193e-05
0.000114819
8.14661e-05
9.12919e-05
0.000102927
0.000100662
0.000101552
9.45308e-05
0.00010126
0.000107356
7.83793e-05
0.000115601
8.02079e-05
0.000116483
9.12931e-05
0.000100655
0.00010292
0.000101543
0.000101253
9.45184e-05
0.000107349
7.83932e-05
0.000115593
8.01629e-05
0.000116444
9.11383e-05
0.000100626
0.00010291
0.000101529
0.000101232
9.4479e-05
0.000107342
7.83835e-05
0.000115618
8.0142e-05
0.000116449
0.000112709
0.000112691
8.72906e-05
8.52213e-05
8.52122e-05
0.00011481
8.14912e-05
9.11738e-05
0.000100638
0.000102914
0.000101538
0.000101249
9.44929e-05
0.000107345
7.84322e-05
0.000115585
8.01849e-05
0.000116443
7.84324e-05
0.000115607
8.01707e-05
0.000116444
0.000114852
8.14397e-05
0.000114846
8.14514e-05
0.000114736
8.17184e-05
8.17157e-05
0.000110861
0.000110859
7.76416e-05
8.2771e-05
0.00011258
0.000104506
8.211e-05
8.71767e-05
0.000107677
7.678e-05
8.27709e-05
0.000112578
0.000104504
8.2107e-05
8.71774e-05
0.00010767
7.67864e-05
7.70325e-05
0.000110209
0.000110209
8.1103e-05
8.11017e-05
0.000114081
0.00010832
8.77981e-05
0.00011086
7.73872e-05
0.000105156
8.33992e-05
0.000113245
0.00010831
8.7796e-05
0.000110849
7.73851e-05
0.00010515
8.33967e-05
0.000113235
0.000113747
8.35067e-05
7.93532e-05
0.000117093
0.000113557
0.000116662
8.32502e-05
8.16681e-05
7.96059e-05
0.000115174
7.98701e-05
0.000114139
0.000114759
8.0469e-05
0.000116225
0.000115794
8.22731e-05
8.26372e-05
7.78612e-05
0.000112935
0.000116029
8.28778e-05
7.87949e-05
0.000113123
8.08642e-05
0.000115447
0.000113724
7.92969e-05
8.35283e-05
0.000117062
0.000116637
0.000113533
8.32453e-05
8.16692e-05
7.9612e-05
0.000115177
7.98667e-05
0.000114144
0.000114737
8.0455e-05
0.00011621
0.000115769
8.22616e-05
8.26472e-05
7.78399e-05
0.000116063
0.000112948
7.87806e-05
8.29047e-05
0.000113138
8.08857e-05
0.000115435
0.000117241
8.41762e-05
8.41773e-05
0.000113349
0.000113352
8.00864e-05
8.52619e-05
0.000115137
0.000107025
8.45441e-05
0.000110183
7.91856e-05
8.9635e-05
8.52664e-05
0.000115135
0.000107024
8.455e-05
0.000110174
7.91951e-05
8.96432e-05
7.94592e-05
0.000112742
0.000112743
0.000116634
8.35485e-05
8.35503e-05
0.000110778
9.02579e-05
0.000113334
7.9816e-05
0.000115744
0.000107631
8.58843e-05
0.000110771
9.02649e-05
0.000113339
7.9827e-05
0.000115745
0.000107634
8.58878e-05
7.83892e-05
0.000112981
7.83873e-05
0.000112962
7.82426e-05
0.000111501
0.000111498
0.000115379
8.23222e-05
8.23196e-05
0.000109579
7.85754e-05
8.90147e-05
0.000112121
8.46346e-05
0.000106415
0.000114518
0.000109566
7.8578e-05
8.90182e-05
0.000112107
8.46358e-05
0.000106407
0.000114507
0.000116011
8.29293e-05
8.29291e-05
7.88462e-05
0.000112127
0.000112125
8.4015e-05
0.000105793
0.00011389
8.33292e-05
0.000108956
8.84055e-05
7.79811e-05
8.40125e-05
0.000105784
0.000113876
8.33171e-05
0.000108944
8.84036e-05
7.79763e-05
0.000114241
7.96091e-05
0.000114221
7.95972e-05
8.09045e-05
0.000115447
8.09029e-05
0.00011544
0.000117206
8.42427e-05
8.42417e-05
0.000113333
0.000113334
8.01756e-05
8.52894e-05
0.000115084
8.46208e-05
0.000107008
8.96874e-05
7.92993e-05
0.000110175
8.52858e-05
0.000115079
8.46157e-05
0.000107009
8.96894e-05
7.93021e-05
0.000110172
0.000110799
9.03091e-05
0.000113329
7.99274e-05
0.00010763
8.59102e-05
0.000115697
0.000110792
9.03131e-05
0.000113324
7.99326e-05
0.000107629
8.59135e-05
0.000115695
7.9549e-05
0.000112711
0.000112713
8.36174e-05
8.36162e-05
0.000116585
0.00011374
8.35031e-05
7.93667e-05
0.000117087
0.000113554
0.00011665
8.32346e-05
8.16401e-05
7.95793e-05
0.00011517
7.98388e-05
0.000114137
0.000114752
8.04547e-05
0.00011622
0.000115785
8.22572e-05
8.26169e-05
7.78504e-05
0.000112934
0.000116031
8.28702e-05
7.87682e-05
0.000113123
0.000117205
8.42042e-05
8.42002e-05
0.00011333
0.000113323
8.01275e-05
8.52652e-05
0.000115102
8.45814e-05
0.000107011
8.96599e-05
7.92462e-05
0.000110166
8.52501e-05
0.000115093
8.45651e-05
0.000107006
7.92363e-05
8.96462e-05
0.000110174
0.000110774
9.02833e-05
0.000113327
7.98811e-05
0.000107621
0.000115706
8.58871e-05
0.000110778
9.02704e-05
0.000113306
7.98692e-05
0.000115696
0.000107612
8.58766e-05
7.94971e-05
0.000112722
0.000112717
8.35761e-05
8.35718e-05
0.000116599
8.08385e-05
0.000115423
0.000113717
8.35317e-05
7.93224e-05
0.000117061
0.000113532
0.000116621
8.32552e-05
8.1658e-05
7.95968e-05
0.000115177
7.98524e-05
0.000114143
0.000114733
8.0453e-05
0.000116201
0.000115764
8.22619e-05
8.26385e-05
7.7833e-05
0.000112947
0.000116056
8.29011e-05
7.87604e-05
0.000113131
0.000113711
7.93033e-05
8.33944e-05
0.000117042
0.000116621
0.000113517
8.31586e-05
8.15784e-05
7.95355e-05
0.000115149
7.97751e-05
0.000114111
0.000114721
8.0404e-05
0.000116196
0.000115755
8.22026e-05
8.25439e-05
7.77649e-05
0.000116018
0.000112902
7.86659e-05
8.27856e-05
0.000113095
0.000113714
8.33911e-05
7.92769e-05
0.000117048
0.00011352
0.000116633
8.31543e-05
8.15683e-05
7.95213e-05
0.000115175
7.97678e-05
0.000114131
0.000114739
8.0384e-05
0.000116222
0.00011578
8.21876e-05
8.25295e-05
7.77641e-05
0.000112905
0.000116025
8.27821e-05
7.86476e-05
0.0001131
0.000117196
8.42226e-05
8.42203e-05
0.000113324
0.000113319
8.01511e-05
8.52809e-05
0.000115085
8.46011e-05
0.000107003
8.96767e-05
7.92723e-05
0.000110159
8.52749e-05
0.00011508
8.45899e-05
0.000106996
7.926e-05
8.9666e-05
0.000110159
0.000110775
9.02965e-05
0.000113319
7.99013e-05
0.000107618
0.000115692
8.58995e-05
0.000110774
9.02855e-05
0.000113304
7.98872e-05
0.000115687
0.000107611
8.58952e-05
7.95254e-05
0.000112709
0.000112703
8.35992e-05
8.35969e-05
0.000116583
8.08681e-05
0.000115422
0.000113718
7.93465e-05
8.34234e-05
0.000117057
0.000116625
0.000113531
8.31857e-05
8.16114e-05
7.95631e-05
0.000115148
7.98086e-05
0.00011411
0.000114727
8.04344e-05
0.000116195
0.000115759
8.22312e-05
8.25745e-05
7.78046e-05
0.000116017
0.000112901
7.87076e-05
8.28158e-05
0.000113095
0.000113736
7.93432e-05
8.34219e-05
0.000117064
0.000116654
0.000113538
8.31811e-05
8.15995e-05
7.95483e-05
0.000115165
7.97951e-05
0.00011412
0.000114752
8.04159e-05
0.000116225
0.000115789
8.22185e-05
8.25731e-05
7.7806e-05
0.000116017
0.000112899
7.86997e-05
8.28159e-05
0.000113091
8.08204e-05
0.000115458
8.08329e-05
0.000115461
9.33449e-05
0.000105034
0.000105039
8.4165e-05
0.000100646
8.74559e-05
8.74483e-05
9.76531e-05
9.7655e-05
9.66365e-05
9.82723e-05
9.82759e-05
9.98437e-05
9.92223e-05
9.5798e-05
0.000107564
0.000107568
8.65707e-05
0.000103172
8.99128e-05
8.99067e-05
0.000102546
0.000107596
8.92894e-05
8.92815e-05
9.51862e-05
0.000106952
0.000106951
9.58476e-05
0.00010754
0.000107539
8.66944e-05
8.99675e-05
8.99567e-05
0.000103148
9.58154e-05
0.000107552
0.00010753
8.66381e-05
8.99283e-05
8.99226e-05
0.000103148
9.58312e-05
0.000107545
0.000107523
8.66588e-05
8.99503e-05
8.99367e-05
0.00010314
0.000101291
0.00010632
8.80778e-05
8.80657e-05
9.39671e-05
0.000105687
0.000105688
9.76499e-05
9.76424e-05
9.66179e-05
9.82685e-05
9.82649e-05
9.9836e-05
9.92178e-05
9.76503e-05
9.7645e-05
9.66275e-05
9.82721e-05
9.82647e-05
9.98407e-05
9.92209e-05
9.7638e-05
9.76445e-05
9.66164e-05
9.82583e-05
9.82653e-05
9.98365e-05
9.92176e-05
0.000112477
9.18773e-05
8.07023e-05
0.00010792
0.000107256
0.000112384
8.16985e-05
8.05199e-05
0.000112614
9.38539e-05
0.000107383
8.08986e-05
9.00265e-05
0.000112754
0.000113332
9.06491e-05
0.000103508
8.15327e-05
0.000113208
0.000107979
8.11714e-05
8.09222e-05
9.05552e-05
0.000106686
0.000111826
9.12534e-05
8.0068e-05
0.000112026
0.000112428
8.07322e-05
9.19198e-05
0.000107933
0.000112398
0.000107251
8.18014e-05
8.05433e-05
0.000112603
9.38671e-05
0.000107386
8.09218e-05
9.00508e-05
0.000112755
0.000113323
9.06739e-05
0.000103516
8.15503e-05
0.0001132
0.000107983
8.11911e-05
8.09692e-05
9.05836e-05
0.000111837
0.000106691
8.00982e-05
9.12701e-05
0.000112036
0.000103772
0.000108832
9.05341e-05
9.05256e-05
0.000108169
0.000108175
9.64189e-05
9.45718e-05
8.53666e-05
0.000106325
0.000106322
0.000101925
8.86847e-05
8.86723e-05
0.00010377
0.000108779
9.05909e-05
9.05814e-05
9.64694e-05
0.000108157
0.000108159
0.000112654
9.20412e-05
8.09043e-05
0.000107962
0.000107259
0.000112391
8.17001e-05
8.06509e-05
0.000112623
9.39125e-05
0.000107399
9.01405e-05
8.09728e-05
0.000112768
0.000113376
9.07312e-05
0.000103548
8.15912e-05
0.000108019
0.00011323
8.12329e-05
8.12648e-05
9.0711e-05
0.000106585
0.000111669
9.15162e-05
8.03933e-05
0.000111956
0.000112591
9.20909e-05
8.0961e-05
0.000107945
0.000107205
0.000112328
8.17077e-05
8.06118e-05
0.000112622
9.38994e-05
0.000107393
9.01012e-05
8.09479e-05
0.000112763
0.000113361
9.07139e-05
0.000103532
8.15721e-05
0.000108002
8.12104e-05
0.000113221
8.12085e-05
9.06823e-05
0.000106585
0.000111698
9.14668e-05
8.03261e-05
0.000111944
0.000103756
0.000108786
9.05443e-05
9.05548e-05
0.000108137
0.00010816
9.64359e-05
0.000112402
9.19968e-05
8.0962e-05
0.000107908
0.000107246
0.000112237
8.18312e-05
8.06718e-05
0.00011259
9.3913e-05
0.0001074
9.0129e-05
8.0991e-05
0.000112699
0.000113222
9.07338e-05
0.000103533
8.16312e-05
0.000107977
0.000113189
8.13618e-05
8.11196e-05
9.07046e-05
0.000106684
0.000111759
9.14558e-05
8.03237e-05
0.00011205
0.000112333
8.08916e-05
9.20566e-05
0.000107914
0.000112315
0.00010718
8.18513e-05
8.05934e-05
0.000112603
9.39041e-05
0.000107408
9.01041e-05
8.09646e-05
0.000112759
0.000113298
9.07194e-05
0.00010352
8.15893e-05
0.000107974
8.12341e-05
0.000113194
8.10658e-05
9.0703e-05
0.000111705
0.000106691
8.03528e-05
9.14006e-05
0.000112048
0.000112725
8.06381e-05
9.18373e-05
0.000107937
0.00011243
0.000107303
8.14457e-05
8.05348e-05
0.000112653
9.38662e-05
0.000107407
8.08842e-05
9.00455e-05
0.000112771
0.000113395
9.06279e-05
0.000103514
8.15e-05
0.000113251
0.000108011
8.11037e-05
8.1087e-05
9.05707e-05
0.000111827
0.000106683
8.00982e-05
9.13203e-05
0.000111932
0.000103755
0.000108778
9.05557e-05
9.05743e-05
0.000108138
0.000108156
9.64511e-05
0.000112633
8.07087e-05
9.18944e-05
0.00010795
0.000112437
0.000107314
8.16341e-05
8.0575e-05
0.000112637
9.38807e-05
0.000107407
8.09157e-05
9.00634e-05
0.000112769
0.000113392
9.06548e-05
0.000103528
8.15358e-05
0.000113239
0.000108022
8.11637e-05
8.11986e-05
9.06003e-05
0.000111833
0.000106689
8.0151e-05
9.13426e-05
0.000111879
5.33666e-05
5.82802e-05
5.82626e-05
6.55046e-05
5.5892e-05
6.08072e-05
6.08233e-05
6.80387e-05
5.84351e-05
6.33665e-05
6.33418e-05
7.06024e-05
6.0983e-05
6.58978e-05
6.59134e-05
7.31135e-05
6.35044e-05
6.84305e-05
6.84373e-05
7.57021e-05
6.59586e-05
7.08791e-05
7.08942e-05
7.81593e-05
6.84424e-05
7.33781e-05
7.33342e-05
8.0653e-05
7.08861e-05
7.57866e-05
7.58279e-05
8.31106e-05
7.33691e-05
7.82946e-05
7.82644e-05
8.54975e-05
7.5948e-05
8.08698e-05
8.08468e-05
8.80136e-05
7.85053e-05
8.34273e-05
8.34303e-05
9.06199e-05
8.09958e-05
8.59094e-05
8.59112e-05
9.32009e-05
8.33994e-05
8.83281e-05
8.83442e-05
9.56937e-05
8.58266e-05
9.07531e-05
9.07501e-05
9.80786e-05
8.83647e-05
9.32836e-05
9.32794e-05
0.000100473
9.09427e-05
9.58657e-05
9.58605e-05
0.000103022
9.34789e-05
9.84325e-05
9.84237e-05
6.55154e-05
4.59416e-05
5.82804e-05
5.82837e-05
6.01765e-05
6.01789e-05
6.55229e-05
4.59416e-05
5.82772e-05
5.82803e-05
6.01711e-05
6.01799e-05
5.82683e-05
6.01709e-05
6.01744e-05
6.55119e-05
4.59548e-05
5.82556e-05
6.01863e-05
6.01783e-05
4.59595e-05
6.80292e-05
4.84914e-05
6.08085e-05
6.08117e-05
6.2733e-05
6.27311e-05
6.8027e-05
4.84753e-05
6.08107e-05
6.08186e-05
6.27295e-05
6.27247e-05
6.0814e-05
6.27278e-05
6.27286e-05
6.80421e-05
4.8466e-05
6.08257e-05
6.27105e-05
6.27146e-05
4.84435e-05
7.05775e-05
5.10534e-05
6.33625e-05
6.33625e-05
6.52469e-05
6.52566e-05
7.05836e-05
5.10702e-05
6.33521e-05
6.33506e-05
6.52608e-05
6.52723e-05
6.33661e-05
6.52642e-05
6.52649e-05
7.05758e-05
5.10387e-05
6.33395e-05
6.52805e-05
6.52747e-05
5.10688e-05
7.30988e-05
5.3554e-05
6.59016e-05
6.59085e-05
6.78117e-05
6.78228e-05
7.30847e-05
5.35145e-05
6.59056e-05
6.59126e-05
6.77986e-05
6.7795e-05
6.59052e-05
6.78236e-05
6.78244e-05
7.31275e-05
5.35778e-05
6.59117e-05
6.77966e-05
6.78054e-05
5.35422e-05
7.56619e-05
5.5983e-05
6.84323e-05
6.84321e-05
7.02536e-05
7.0259e-05
7.56906e-05
5.60138e-05
6.84278e-05
6.84256e-05
7.02744e-05
7.03001e-05
6.8439e-05
7.02603e-05
7.0277e-05
7.56477e-05
5.59857e-05
6.84497e-05
7.02956e-05
7.02928e-05
5.60163e-05
7.8145e-05
5.84615e-05
7.08773e-05
7.0879e-05
7.27502e-05
7.27614e-05
7.81176e-05
5.84195e-05
7.08822e-05
7.08957e-05
7.27181e-05
7.27083e-05
7.08901e-05
7.27558e-05
7.27433e-05
7.81807e-05
5.84008e-05
7.08954e-05
7.27172e-05
7.27238e-05
5.83908e-05
8.06238e-05
6.09066e-05
7.33844e-05
7.33864e-05
7.51876e-05
7.51788e-05
8.06632e-05
6.0849e-05
7.33601e-05
7.33491e-05
7.52223e-05
7.523e-05
7.33718e-05
7.51693e-05
7.51754e-05
8.06201e-05
6.09156e-05
7.33458e-05
7.52232e-05
7.5202e-05
6.08416e-05
8.30731e-05
6.34333e-05
7.57945e-05
7.5789e-05
7.76704e-05
7.76736e-05
8.30698e-05
6.34817e-05
7.58211e-05
7.58333e-05
7.76421e-05
7.76349e-05
7.57952e-05
7.76725e-05
7.76619e-05
8.31073e-05
6.34014e-05
7.58162e-05
7.76351e-05
7.76458e-05
6.34322e-05
8.54863e-05
6.61081e-05
7.82869e-05
7.82955e-05
8.02165e-05
8.02259e-05
8.54817e-05
6.61209e-05
7.82729e-05
7.82582e-05
8.01959e-05
8.0193e-05
7.82793e-05
8.02185e-05
8.02205e-05
8.54851e-05
6.60551e-05
7.82744e-05
8.01989e-05
8.02066e-05
6.60848e-05
8.79813e-05
6.86151e-05
8.08628e-05
8.0866e-05
8.27865e-05
8.27819e-05
8.79849e-05
6.85858e-05
8.08578e-05
8.08522e-05
8.27943e-05
8.28018e-05
8.08656e-05
8.27881e-05
8.2793e-05
8.80069e-05
6.8606e-05
8.08509e-05
8.27919e-05
8.27811e-05
6.86046e-05
9.06023e-05
7.09656e-05
8.34269e-05
8.34239e-05
8.53109e-05
8.53047e-05
9.0613e-05
7.09394e-05
8.34256e-05
8.34361e-05
8.53174e-05
8.53082e-05
8.34347e-05
8.52903e-05
8.5297e-05
9.06336e-05
7.10013e-05
8.34255e-05
8.53123e-05
8.5306e-05
7.09546e-05
9.32268e-05
7.32997e-05
8.59311e-05
8.59219e-05
8.7731e-05
8.77332e-05
9.32185e-05
7.33103e-05
8.59317e-05
8.59196e-05
8.77307e-05
8.77483e-05
8.59013e-05
8.77324e-05
8.77377e-05
9.31952e-05
7.33388e-05
8.59053e-05
8.77513e-05
8.77475e-05
7.33293e-05
9.56873e-05
7.58203e-05
8.83245e-05
8.83246e-05
9.01328e-05
9.01389e-05
9.56801e-05
7.58507e-05
8.83257e-05
8.83404e-05
9.01311e-05
9.01341e-05
8.83389e-05
9.01535e-05
9.01629e-05
9.56967e-05
7.57929e-05
8.83424e-05
9.01357e-05
9.01438e-05
7.57801e-05
9.80153e-05
7.85069e-05
9.07445e-05
9.07497e-05
9.2637e-05
9.26417e-05
9.80095e-05
7.84824e-05
9.07355e-05
9.07425e-05
9.26261e-05
9.26228e-05
9.07632e-05
9.26354e-05
9.26322e-05
9.80438e-05
7.84601e-05
9.07576e-05
9.26385e-05
9.26429e-05
7.845e-05
0.000100424
8.10752e-05
9.32831e-05
9.32889e-05
9.52113e-05
9.52157e-05
0.000100444
8.10467e-05
9.32616e-05
9.32718e-05
9.52211e-05
9.52135e-05
9.32691e-05
9.52208e-05
9.52192e-05
0.000100453
8.107e-05
9.32821e-05
9.52145e-05
9.52127e-05
8.10671e-05
0.00010301
8.35467e-05
9.58562e-05
9.58637e-05
9.77569e-05
9.77676e-05
0.000103023
8.35182e-05
9.58668e-05
9.5859e-05
9.77673e-05
9.77816e-05
9.58699e-05
9.77853e-05
9.77912e-05
0.000103012
8.35723e-05
9.58636e-05
9.77785e-05
9.77852e-05
8.35531e-05
0.000105607
8.60624e-05
9.83894e-05
9.84076e-05
0.000100309
0.000100306
0.000105667
8.6009e-05
9.83958e-05
9.84095e-05
0.000100313
0.000100314
9.84338e-05
0.000100299
0.000100304
0.000105626
8.60348e-05
9.84366e-05
0.0001003
0.000100301
3.57448e-05
7.29426e-05
3.75621e-05
7.37925e-05
7.2179e-05
3.88548e-05
3.5759e-05
7.29189e-05
3.757e-05
7.37674e-05
5.33657e-05
5.33635e-05
5.33536e-05
5.52565e-05
5.52547e-05
5.5265e-05
5.52605e-05
4.86494e-05
6.02576e-05
5.80019e-05
5.89049e-05
5.1852e-05
5.86195e-05
6.46523e-05
7.21603e-05
3.8871e-05
4.86967e-05
5.79824e-05
6.02436e-05
5.88981e-05
5.86141e-05
5.18491e-05
6.45906e-05
7.00332e-05
7.00211e-05
4.46928e-05
4.25724e-05
4.25771e-05
3.83166e-05
7.54646e-05
7.63127e-05
4.01114e-05
7.46977e-05
4.13973e-05
3.83676e-05
7.54558e-05
7.63081e-05
4.01358e-05
5.58889e-05
5.59017e-05
5.58997e-05
5.78055e-05
5.78031e-05
5.77995e-05
5.77992e-05
5.12e-05
6.28061e-05
6.05119e-05
6.14432e-05
6.71756e-05
5.44042e-05
6.11466e-05
7.4701e-05
4.14275e-05
5.12255e-05
6.05305e-05
6.28312e-05
6.14606e-05
6.71922e-05
6.11812e-05
5.44158e-05
7.25821e-05
7.25974e-05
4.71928e-05
4.51234e-05
4.51398e-05
4.08638e-05
7.80202e-05
7.88884e-05
4.26596e-05
7.72421e-05
4.39525e-05
4.07966e-05
7.79902e-05
7.88432e-05
4.26523e-05
5.84387e-05
5.84311e-05
5.84328e-05
6.03385e-05
6.0343e-05
6.03549e-05
6.03527e-05
5.37652e-05
6.5342e-05
6.30977e-05
6.39889e-05
6.97522e-05
5.69653e-05
6.37123e-05
7.72302e-05
4.39448e-05
5.37309e-05
6.30495e-05
6.53219e-05
6.39859e-05
6.96947e-05
6.37002e-05
5.69543e-05
7.51289e-05
7.51075e-05
4.9757e-05
4.76812e-05
4.76663e-05
4.33679e-05
8.05307e-05
8.1384e-05
4.523e-05
7.97686e-05
4.65183e-05
4.34096e-05
8.05314e-05
8.14023e-05
4.52216e-05
6.09866e-05
6.09914e-05
6.09918e-05
6.28816e-05
6.28935e-05
6.28812e-05
6.28933e-05
5.63309e-05
6.78801e-05
6.56088e-05
6.65424e-05
7.22372e-05
5.95066e-05
6.62479e-05
7.9773e-05
4.651e-05
5.63189e-05
6.56447e-05
6.78968e-05
6.65352e-05
7.23097e-05
6.62564e-05
5.9506e-05
7.76538e-05
7.76679e-05
5.23183e-05
5.02298e-05
5.02241e-05
4.58619e-05
8.30916e-05
8.39472e-05
4.76495e-05
8.23294e-05
4.89369e-05
4.58974e-05
8.30616e-05
8.38725e-05
4.77117e-05
6.35048e-05
6.35161e-05
6.35203e-05
6.53455e-05
6.53419e-05
6.5376e-05
6.5365e-05
5.87035e-05
7.04086e-05
6.81497e-05
6.90357e-05
7.4868e-05
6.19972e-05
6.87551e-05
8.22958e-05
4.90093e-05
5.88828e-05
6.81618e-05
7.04263e-05
6.90799e-05
7.48437e-05
6.88146e-05
6.20503e-05
8.02171e-05
8.02186e-05
5.47723e-05
5.27025e-05
5.27399e-05
4.82985e-05
8.55337e-05
8.63601e-05
5.01216e-05
8.47766e-05
5.14214e-05
4.83041e-05
8.55465e-05
8.63872e-05
5.0102e-05
6.5961e-05
6.59762e-05
6.59749e-05
6.78116e-05
6.78282e-05
6.77975e-05
6.78143e-05
6.11943e-05
7.28872e-05
7.06012e-05
7.14905e-05
7.73075e-05
6.44223e-05
7.11928e-05
8.48121e-05
5.13835e-05
6.11771e-05
7.06098e-05
7.28969e-05
7.14989e-05
7.73392e-05
7.12176e-05
6.44373e-05
8.26862e-05
8.26952e-05
5.72134e-05
5.51337e-05
5.51382e-05
5.0811e-05
8.80685e-05
8.89375e-05
5.26131e-05
8.73129e-05
5.38573e-05
5.08264e-05
8.79976e-05
8.88157e-05
5.26431e-05
6.84467e-05
6.84235e-05
6.84332e-05
7.02792e-05
7.02528e-05
7.02969e-05
7.0267e-05
6.36331e-05
7.53861e-05
7.31018e-05
7.39826e-05
7.98648e-05
6.69123e-05
7.37049e-05
8.72493e-05
5.39087e-05
6.36294e-05
7.30439e-05
7.53326e-05
7.39647e-05
7.97577e-05
7.36764e-05
6.69013e-05
8.51876e-05
8.51581e-05
5.95829e-05
5.75685e-05
5.75659e-05
5.32466e-05
9.04549e-05
9.12618e-05
5.50564e-05
8.97036e-05
5.6354e-05
5.32384e-05
9.0498e-05
9.13505e-05
5.50535e-05
7.08707e-05
7.09053e-05
7.08858e-05
7.27416e-05
7.27572e-05
7.27303e-05
7.27457e-05
6.61554e-05
7.77706e-05
7.54991e-05
7.64168e-05
8.21766e-05
6.93794e-05
7.61334e-05
8.97509e-05
5.63458e-05
6.61193e-05
7.55477e-05
7.78331e-05
7.64267e-05
8.22852e-05
7.61424e-05
6.93713e-05
8.75998e-05
8.76247e-05
6.21366e-05
6.00669e-05
6.00627e-05
5.58238e-05
9.29269e-05
9.37878e-05
5.76495e-05
9.21495e-05
5.89707e-05
5.5699e-05
9.28765e-05
9.37149e-05
5.75835e-05
7.33856e-05
7.33591e-05
7.33738e-05
7.52988e-05
7.53107e-05
7.52918e-05
7.53018e-05
6.87442e-05
8.02544e-05
7.80027e-05
7.89252e-05
8.45959e-05
7.19046e-05
7.86335e-05
9.21202e-05
5.88764e-05
6.87396e-05
7.79848e-05
8.02356e-05
7.89042e-05
8.46056e-05
7.8615e-05
7.18934e-05
9.00258e-05
9.00201e-05
6.47622e-05
6.26419e-05
6.26385e-05
5.8265e-05
9.54665e-05
9.63728e-05
6.02131e-05
9.46891e-05
6.15243e-05
5.8462e-05
9.54482e-05
9.6304e-05
6.02789e-05
7.59544e-05
7.59407e-05
7.59471e-05
7.78734e-05
7.78695e-05
7.78751e-05
7.78736e-05
7.14559e-05
8.2724e-05
8.05813e-05
8.15162e-05
8.71084e-05
7.45366e-05
8.12274e-05
9.46841e-05
6.15455e-05
7.14476e-05
8.05639e-05
8.27953e-05
8.14961e-05
8.70637e-05
8.1212e-05
7.44635e-05
9.259e-05
9.25665e-05
6.73655e-05
6.52278e-05
6.52517e-05
6.08803e-05
9.80462e-05
9.88873e-05
6.2708e-05
9.72761e-05
6.39865e-05
6.09144e-05
9.80408e-05
9.89037e-05
6.27341e-05
7.85039e-05
7.85082e-05
7.85108e-05
8.03817e-05
8.03689e-05
8.03774e-05
8.03721e-05
7.38859e-05
8.54095e-05
8.31413e-05
8.40655e-05
8.9768e-05
7.70279e-05
8.37879e-05
9.72951e-05
6.40248e-05
7.38617e-05
8.3139e-05
8.54219e-05
8.4063e-05
8.97599e-05
8.37762e-05
7.70227e-05
9.5184e-05
9.51733e-05
6.97979e-05
6.77325e-05
6.77407e-05
6.33249e-05
0.000100633
0.000101457
6.50781e-05
9.98693e-05
6.63614e-05
6.33469e-05
0.000100623
0.000101448
6.50997e-05
8.09832e-05
8.09879e-05
8.09803e-05
8.2802e-05
8.28026e-05
8.28191e-05
8.28167e-05
7.61735e-05
8.79052e-05
8.56193e-05
8.65282e-05
9.23388e-05
7.94477e-05
8.6243e-05
9.98405e-05
6.63969e-05
7.61869e-05
8.56194e-05
8.79165e-05
8.65238e-05
9.23495e-05
8.62349e-05
7.94497e-05
9.77114e-05
9.77189e-05
7.2141e-05
7.01012e-05
7.01163e-05
6.57293e-05
0.00010306
0.000103844
6.74677e-05
0.000102305
6.87644e-05
6.57258e-05
0.000103043
0.000103841
6.74763e-05
8.3402e-05
8.34166e-05
8.34191e-05
8.52141e-05
8.52287e-05
8.52194e-05
8.52352e-05
7.85803e-05
9.03393e-05
8.80426e-05
8.89341e-05
9.47889e-05
8.18629e-05
8.86526e-05
0.000102317
6.87584e-05
7.85684e-05
8.80613e-05
9.03653e-05
8.89388e-05
9.48206e-05
8.86554e-05
8.18516e-05
0.000100185
0.000100192
7.45299e-05
7.2512e-05
7.25073e-05
6.82301e-05
0.000105402
0.000106212
7.00311e-05
0.000104648
7.13289e-05
6.82265e-05
0.000105395
0.000106215
7.0017e-05
8.5842e-05
8.58343e-05
8.58464e-05
8.77272e-05
8.77303e-05
8.77286e-05
8.77293e-05
8.10897e-05
9.27364e-05
9.04618e-05
9.13732e-05
9.71748e-05
8.43374e-05
9.10882e-05
0.000104664
7.13043e-05
8.1008e-05
9.04675e-05
9.27379e-05
9.13662e-05
9.71724e-05
9.10789e-05
8.43168e-05
0.000102578
0.000102567
7.7111e-05
7.50348e-05
7.50296e-05
7.09035e-05
0.000107885
0.000108706
7.26772e-05
0.000107122
7.39652e-05
7.08583e-05
0.000107833
0.000108668
7.26629e-05
8.83726e-05
8.83693e-05
8.83668e-05
9.02996e-05
9.03019e-05
9.03002e-05
9.03018e-05
8.37193e-05
9.52544e-05
9.29901e-05
9.39245e-05
9.95844e-05
8.6879e-05
9.36337e-05
0.000107095
7.39585e-05
8.37361e-05
9.30037e-05
9.52546e-05
9.39263e-05
9.96311e-05
9.36322e-05
8.69223e-05
0.000105003
0.000105024
7.97743e-05
7.76409e-05
7.76573e-05
7.32882e-05
0.000110463
0.00011132
7.52053e-05
0.000109707
7.64789e-05
7.33211e-05
0.000110478
0.000111345
7.52065e-05
9.09462e-05
9.09436e-05
9.09485e-05
9.28475e-05
9.28581e-05
9.28651e-05
9.28751e-05
8.63755e-05
9.78585e-05
9.55787e-05
9.65137e-05
0.000102267
8.95056e-05
9.62294e-05
0.000109689
7.6516e-05
8.63772e-05
9.5573e-05
9.78464e-05
9.65003e-05
0.000102123
9.62102e-05
8.94764e-05
0.000107599
0.000107589
8.23268e-05
8.02346e-05
8.02221e-05
7.58867e-05
0.000113026
0.000113879
7.76835e-05
0.000112296
7.89693e-05
7.58423e-05
0.000113036
0.000113895
7.76934e-05
9.34962e-05
9.35003e-05
9.35166e-05
9.53864e-05
9.53782e-05
9.53856e-05
9.53842e-05
8.88202e-05
0.000100428
9.81571e-05
9.90719e-05
0.000104841
9.2036e-05
9.88067e-05
0.000112281
7.89985e-05
8.88307e-05
9.81443e-05
0.000100416
9.90591e-05
0.000104798
9.87874e-05
9.20269e-05
7.21682e-05
3.88695e-05
7.21551e-05
3.88703e-05
7.00509e-05
7.00427e-05
4.46823e-05
4.2584e-05
4.25865e-05
4.01409e-05
7.34173e-05
4.01396e-05
7.34174e-05
6.67573e-05
4.38614e-05
4.38613e-05
7.13028e-05
7.1305e-05
3.57439e-05
7.29469e-05
3.75564e-05
7.37931e-05
4.86566e-05
6.02658e-05
5.80028e-05
5.89061e-05
5.18632e-05
5.86176e-05
6.46641e-05
4.86626e-05
6.02654e-05
5.80031e-05
5.89067e-05
5.18661e-05
5.86201e-05
6.46595e-05
7.50457e-05
3.88381e-05
7.41943e-05
3.69432e-05
7.50454e-05
3.88384e-05
7.41938e-05
3.69401e-05
6.58944e-05
5.95406e-05
5.31467e-05
5.9886e-05
6.15231e-05
5.92512e-05
4.9953e-05
6.59048e-05
5.95386e-05
5.31522e-05
5.98883e-05
6.15189e-05
5.92502e-05
4.9953e-05
7.00633e-05
7.0048e-05
4.46726e-05
4.25754e-05
4.25815e-05
7.2161e-05
3.88578e-05
4.01332e-05
7.34226e-05
6.67537e-05
4.38546e-05
4.38561e-05
7.13091e-05
7.12957e-05
4.01343e-05
7.34082e-05
4.86831e-05
6.02473e-05
5.80064e-05
5.89112e-05
5.18713e-05
5.86396e-05
6.46453e-05
3.57558e-05
7.29268e-05
3.75729e-05
7.37678e-05
4.869e-05
5.80076e-05
6.02556e-05
5.89122e-05
5.86349e-05
5.18774e-05
6.46517e-05
7.50491e-05
3.88397e-05
7.41872e-05
3.69528e-05
6.59016e-05
5.95398e-05
5.3146e-05
5.98726e-05
6.15177e-05
5.92539e-05
4.99386e-05
7.50518e-05
3.88539e-05
7.41969e-05
3.6967e-05
6.59075e-05
5.95452e-05
5.98812e-05
5.31607e-05
5.92568e-05
6.15276e-05
4.99557e-05
3.57253e-05
7.29309e-05
3.75497e-05
7.37727e-05
4.86339e-05
5.79967e-05
6.02518e-05
5.88902e-05
5.86069e-05
5.18473e-05
6.46472e-05
3.57281e-05
7.2927e-05
3.75487e-05
7.37715e-05
6.58522e-05
5.95299e-05
5.3131e-05
5.98839e-05
6.15125e-05
5.92377e-05
4.99765e-05
7.50267e-05
3.88303e-05
7.41817e-05
3.69807e-05
6.58536e-05
5.95271e-05
5.98883e-05
5.31387e-05
5.92363e-05
6.15073e-05
4.99707e-05
7.50245e-05
3.88366e-05
7.41763e-05
3.69772e-05
7.00475e-05
7.00265e-05
4.46882e-05
4.2588e-05
4.25893e-05
7.21409e-05
3.88714e-05
4.01503e-05
7.34242e-05
6.67583e-05
4.38701e-05
4.38812e-05
7.13132e-05
7.12998e-05
4.01613e-05
7.34131e-05
4.86876e-05
5.7981e-05
6.02293e-05
5.88923e-05
5.8613e-05
5.18526e-05
6.4583e-05
3.57029e-05
7.29089e-05
3.75622e-05
7.37452e-05
3.5709e-05
7.28975e-05
3.7562e-05
7.37403e-05
6.59029e-05
5.95434e-05
5.98924e-05
5.31489e-05
5.92563e-05
6.1536e-05
4.9979e-05
6.59007e-05
5.95329e-05
5.98914e-05
5.31485e-05
5.92525e-05
6.15297e-05
4.99842e-05
7.50523e-05
3.88553e-05
7.41915e-05
3.6922e-05
7.50493e-05
3.88558e-05
7.41817e-05
3.69233e-05
7.2149e-05
3.88568e-05
7.21332e-05
3.88616e-05
6.67418e-05
4.38589e-05
4.38697e-05
7.12852e-05
7.12935e-05
4.01432e-05
7.33982e-05
4.0153e-05
7.34062e-05
7.4687e-05
4.14146e-05
7.46872e-05
4.14284e-05
7.25727e-05
7.2576e-05
4.72104e-05
4.5134e-05
4.51443e-05
4.27046e-05
7.59668e-05
4.26932e-05
7.59751e-05
6.93169e-05
4.64242e-05
4.64145e-05
7.38501e-05
7.38591e-05
3.83096e-05
7.54717e-05
7.63156e-05
4.01002e-05
5.11767e-05
6.27933e-05
6.05129e-05
6.14493e-05
6.71699e-05
5.44209e-05
6.11568e-05
5.11675e-05
6.28006e-05
6.05178e-05
6.14472e-05
6.71714e-05
5.44151e-05
6.1156e-05
7.75871e-05
4.14081e-05
7.67433e-05
3.96176e-05
7.75841e-05
4.13985e-05
7.67373e-05
3.9616e-05
6.84467e-05
6.20953e-05
5.57202e-05
6.24526e-05
6.40641e-05
6.18106e-05
5.25121e-05
6.84464e-05
6.209e-05
5.57175e-05
6.24481e-05
6.40561e-05
6.18039e-05
5.25078e-05
7.25842e-05
7.25763e-05
4.71903e-05
4.51176e-05
4.51256e-05
7.469e-05
4.14044e-05
4.26895e-05
7.59685e-05
6.93107e-05
4.64096e-05
4.64159e-05
7.38535e-05
7.38481e-05
4.26943e-05
7.59625e-05
5.12463e-05
6.27913e-05
6.05159e-05
6.14598e-05
6.71631e-05
5.44386e-05
6.11842e-05
3.83669e-05
7.54722e-05
7.63185e-05
4.01378e-05
5.1232e-05
6.0523e-05
6.27993e-05
6.1464e-05
6.71809e-05
6.11848e-05
5.44464e-05
7.76253e-05
4.13981e-05
7.67492e-05
3.95721e-05
6.85041e-05
6.21024e-05
5.57079e-05
6.24512e-05
6.40765e-05
6.18357e-05
5.24989e-05
7.76217e-05
4.13891e-05
7.6751e-05
3.95726e-05
6.84956e-05
6.20995e-05
6.24454e-05
5.57e-05
6.18276e-05
6.40769e-05
5.24962e-05
3.82685e-05
7.54711e-05
7.63273e-05
4.00987e-05
5.12063e-05
6.05176e-05
6.28056e-05
6.14498e-05
6.71849e-05
6.11503e-05
5.44165e-05
3.82715e-05
7.54758e-05
7.63283e-05
4.01014e-05
6.84773e-05
6.20854e-05
5.57031e-05
6.24476e-05
6.40649e-05
6.17987e-05
5.24598e-05
7.76002e-05
4.13957e-05
7.67392e-05
3.96333e-05
6.84894e-05
6.20894e-05
6.24485e-05
5.57116e-05
6.17993e-05
6.40654e-05
5.24474e-05
7.76053e-05
4.139e-05
7.67519e-05
3.96303e-05
7.25884e-05
7.25887e-05
4.72118e-05
4.51445e-05
4.51446e-05
7.47033e-05
4.14205e-05
4.26828e-05
7.59791e-05
6.93191e-05
4.64e-05
4.6393e-05
7.38637e-05
7.38508e-05
4.26676e-05
7.59665e-05
5.12412e-05
6.05352e-05
6.28343e-05
6.14692e-05
6.71981e-05
6.11903e-05
5.44393e-05
3.8293e-05
7.54865e-05
7.63402e-05
4.01163e-05
3.83055e-05
7.54901e-05
7.6343e-05
4.01321e-05
6.85098e-05
6.20891e-05
6.24187e-05
5.56615e-05
6.18092e-05
6.40786e-05
5.23945e-05
6.85405e-05
6.20994e-05
6.24194e-05
5.56688e-05
6.18174e-05
6.40973e-05
5.23737e-05
7.76243e-05
4.13604e-05
7.67451e-05
3.95558e-05
7.76398e-05
4.13538e-05
7.67697e-05
3.95468e-05
7.46953e-05
4.14071e-05
7.47112e-05
4.14243e-05
6.93351e-05
4.64029e-05
4.63798e-05
7.38615e-05
7.38772e-05