/*--------------------------------*- C++ -*----------------------------------*\
| =========                 |                                                 |
| \\      /  F ield         | OpenFOAM: The Open Source CFD Toolbox           |
|  \\    /   O peration     | Version:  2206                                  |
|   \\  /    A nd           | Website:  www.openfoam.com                      |
|    \\/     M anipulation  |                                                 |
\*---------------------------------------------------------------------------*/
FoamFile
{
    version     2.0;
    format      ascii;
    arch        "LSB;label=32;scalar=64";
    class       volScalarField;
    location    "4.5";
    object      p;
}
// * * * * * * * * * * * * * * * * * * * * * * * * * * * * * * * * * * * * * //

dimensions      [0 2 -2 0 0 0 0];

internalField   nonuniform List<scalar> 
171728
(
0.00414325
0.00414309
0.00414309
0.00414597
0.00409186
0.00409182
0.00409182
0.00409414
0.00404767
0.00404764
0.00404763
0.00405018
0.00400369
0.00400366
0.00400366
0.00400621
0.00395971
0.00395969
0.00395969
0.00396224
0.00391574
0.00391572
0.00391572
0.00391827
0.00387177
0.00387175
0.00387175
0.0038743
0.0038278
0.00382778
0.00382778
0.00383033
0.00378383
0.00378381
0.00378381
0.00378635
0.00373986
0.00373984
0.00373984
0.00374238
0.00369589
0.00369587
0.00369587
0.00369841
0.00365192
0.0036519
0.0036519
0.00365444
0.00360795
0.00360793
0.00360793
0.00361047
0.00356398
0.00356396
0.00356396
0.00356651
0.00352001
0.00351999
0.00351999
0.00352254
0.00347604
0.00347602
0.00347602
0.00347857
0.00343207
0.00343205
0.00343205
0.0034346
0.0033881
0.00338808
0.00338808
0.00339063
0.00334413
0.00334411
0.00334411
0.00334666
0.00330016
0.00330014
0.00330014
0.00330268
0.00325619
0.00325617
0.00325617
0.00325871
0.00321222
0.0032122
0.0032122
0.00321475
0.00316825
0.00316823
0.00316823
0.00317078
0.00312428
0.00312426
0.00312426
0.00312681
0.00308031
0.00308029
0.00308029
0.00308284
0.00303634
0.00303632
0.00303632
0.00303886
0.00299237
0.00299235
0.00299235
0.00299489
0.0029484
0.00294838
0.00294838
0.00295092
0.00290443
0.00290441
0.00290441
0.00290695
0.00286046
0.00286044
0.00286044
0.00286298
0.00281649
0.00281647
0.00281647
0.00281902
0.00277252
0.0027725
0.0027725
0.00277505
0.00272855
0.00272853
0.00272853
0.00273108
0.00268458
0.00268456
0.00268456
0.00268711
0.00264061
0.00264059
0.00264059
0.00264314
0.00259664
0.00259662
0.00259662
0.00259917
0.00255267
0.00255265
0.00255265
0.0025552
0.0025087
0.00250868
0.00250868
0.00251123
0.00246473
0.00246471
0.00246471
0.00246725
0.00242076
0.00242074
0.00242074
0.00242328
0.00237679
0.00237677
0.00237677
0.00237931
0.00233282
0.0023328
0.0023328
0.00233534
0.00228885
0.00228883
0.00228883
0.00229137
0.00224488
0.00224486
0.00224486
0.00224741
0.00220091
0.00220089
0.00220089
0.00220344
0.00215694
0.00215692
0.00215692
0.00215947
0.00211297
0.00211295
0.00211295
0.0021155
0.002069
0.00206898
0.00206898
0.00207153
0.00202503
0.00202501
0.00202501
0.00202756
0.00198106
0.00198104
0.00198104
0.00198358
0.00193709
0.00193707
0.00193707
0.00193961
0.00189312
0.0018931
0.0018931
0.00189564
0.00184915
0.00184913
0.00184913
0.00185167
0.00180518
0.00180516
0.00180516
0.00180771
0.00176121
0.00176119
0.00176119
0.00176374
0.00171724
0.00171722
0.00171722
0.00171977
0.00167327
0.00167325
0.00167325
0.0016758
0.0016293
0.00162928
0.00162928
0.00163183
0.00158533
0.00158531
0.00158531
0.00158786
0.00154136
0.00154134
0.00154134
0.00154389
0.00149739
0.00149737
0.00149737
0.00149991
0.00145342
0.0014534
0.0014534
0.00145594
0.00140945
0.00140943
0.00140943
0.00141198
0.00136548
0.00136546
0.00136546
0.00136801
0.00132151
0.00132149
0.00132149
0.00132404
0.00127754
0.00127752
0.00127752
0.00128007
0.00123357
0.00123355
0.00123355
0.0012361
0.0011896
0.00118958
0.00118958
0.00119213
0.00114563
0.00114561
0.00114561
0.00114816
0.00110166
0.00110164
0.00110164
0.00110419
0.00105769
0.00105767
0.00105767
0.00106022
0.00101372
0.0010137
0.0010137
0.00101625
0.000969752
0.000969731
0.000969731
0.000972277
0.000925782
0.000925761
0.000925761
0.000928307
0.000881812
0.000881791
0.000881791
0.000884337
0.000837843
0.000837821
0.000837821
0.000840367
0.000793873
0.000793852
0.000793852
0.000796398
0.000749903
0.000749882
0.000749882
0.000752428
0.000705932
0.000705911
0.000705911
0.000708457
0.000661961
0.00066194
0.00066194
0.000664486
0.000617989
0.000617968
0.000617968
0.000620513
0.000574017
0.000573996
0.000573996
0.000576542
0.000530047
0.000530025
0.000530025
0.000532571
0.000486076
0.000486055
0.000486055
0.000488601
0.000442106
0.000442085
0.000442085
0.000444631
0.000398133
0.000398112
0.000398112
0.000400658
0.00035416
0.000354138
0.000354138
0.000356684
0.000310185
0.000310164
0.000310164
0.00031271
0.00026621
0.000266189
0.000266188
0.000268735
0.000222235
0.000222214
0.000222214
0.00022476
0.00017826
0.000178239
0.000178239
0.000180785
0.000134284
0.000134264
0.000134264
0.00013681
9.03238e-05
9.02978e-05
9.02972e-05
9.28353e-05
4.69082e-05
4.63635e-05
4.63628e-05
4.87504e-05
1.12305e-05
1.17576e-05
1.17586e-05
1.13796e-05
0.00415624
0.00415659
0.00415659
0.00415624
0.0041566
0.0041566
0.0041576
0.0041576
0.00415761
0.00415761
0.00415659
0.0041566
0.00415624
0.0041566
0.0041566
0.00415624
0.00414597
0.00410004
0.00414308
0.00414309
0.00410285
0.00410285
0.00414597
0.00410004
0.00414309
0.00414309
0.00410286
0.00410289
0.00414309
0.00410286
0.00410286
0.00414597
0.00410005
0.00414309
0.00410289
0.00410285
0.00410004
0.00409414
0.00405609
0.00409182
0.00409182
0.00405863
0.00405863
0.00409414
0.00405609
0.00409182
0.00409182
0.00405863
0.00405863
0.00409182
0.00405863
0.00405863
0.00409414
0.00405609
0.00409182
0.00405863
0.00405863
0.00405609
0.00405018
0.00401212
0.00404764
0.00404764
0.00401466
0.00401466
0.00405019
0.00401212
0.00404763
0.00404763
0.00401466
0.00401466
0.00404764
0.00401466
0.00401466
0.00405018
0.00401212
0.00404764
0.00401466
0.00401466
0.00401212
0.00400621
0.00396815
0.00400366
0.00400366
0.00397068
0.00397069
0.00400621
0.00396815
0.00400366
0.00400366
0.00397068
0.00397068
0.00400366
0.00397069
0.00397068
0.00400621
0.00396815
0.00400366
0.00397068
0.00397068
0.00396815
0.00396224
0.00392418
0.00395969
0.00395969
0.00392671
0.00392671
0.00396224
0.00392418
0.00395969
0.00395969
0.00392671
0.00392671
0.00395969
0.00392671
0.00392671
0.00396224
0.00392418
0.00395969
0.00392671
0.00392671
0.00392418
0.00391827
0.00388021
0.00391572
0.00391572
0.00388274
0.00388274
0.00391827
0.00388021
0.00391572
0.00391572
0.00388274
0.00388274
0.00391572
0.00388274
0.00388274
0.00391827
0.00388021
0.00391572
0.00388274
0.00388274
0.00388021
0.0038743
0.00383623
0.00387175
0.00387175
0.00383877
0.00383877
0.0038743
0.00383624
0.00387175
0.00387175
0.00383877
0.00383877
0.00387175
0.00383877
0.00383877
0.0038743
0.00383623
0.00387175
0.00383877
0.00383877
0.00383623
0.00383032
0.00379226
0.00382778
0.00382778
0.0037948
0.0037948
0.00383032
0.00379226
0.00382778
0.00382778
0.0037948
0.0037948
0.00382778
0.0037948
0.0037948
0.00383032
0.00379226
0.00382778
0.0037948
0.0037948
0.00379226
0.00378635
0.00374829
0.00378381
0.00378381
0.00375083
0.00375083
0.00378635
0.00374829
0.00378381
0.00378381
0.00375083
0.00375083
0.00378381
0.00375083
0.00375083
0.00378635
0.00374829
0.00378381
0.00375083
0.00375083
0.00374829
0.00374238
0.00370432
0.00373984
0.00373984
0.00370686
0.00370686
0.00374238
0.00370432
0.00373984
0.00373984
0.00370686
0.00370686
0.00373984
0.00370686
0.00370686
0.00374238
0.00370432
0.00373984
0.00370686
0.00370686
0.00370432
0.00369841
0.00366035
0.00369587
0.00369587
0.00366289
0.00366289
0.00369841
0.00366035
0.00369587
0.00369587
0.00366289
0.00366289
0.00369587
0.00366289
0.00366289
0.00369841
0.00366035
0.00369587
0.00366289
0.00366289
0.00366035
0.00365444
0.00361638
0.0036519
0.0036519
0.00361892
0.00361892
0.00365444
0.00361638
0.0036519
0.0036519
0.00361892
0.00361892
0.0036519
0.00361892
0.00361892
0.00365444
0.00361638
0.0036519
0.00361892
0.00361892
0.00361638
0.00361047
0.00357242
0.00360793
0.00360793
0.00357495
0.00357495
0.00361047
0.00357242
0.00360793
0.00360793
0.00357495
0.00357495
0.00360793
0.00357495
0.00357495
0.00361047
0.00357242
0.00360793
0.00357495
0.00357495
0.00357242
0.00356651
0.00352845
0.00356396
0.00356396
0.00353098
0.00353099
0.00356651
0.00352845
0.00356396
0.00356396
0.00353098
0.00353098
0.00356396
0.00353099
0.00353098
0.00356651
0.00352845
0.00356396
0.00353098
0.00353098
0.00352845
0.00352254
0.00348448
0.00351999
0.00351999
0.00348702
0.00348701
0.00352254
0.00348448
0.00351999
0.00351999
0.00348701
0.00348702
0.00351999
0.00348701
0.00348702
0.00352254
0.00348448
0.00351999
0.00348701
0.00348702
0.00348448
0.00347857
0.00344051
0.00347602
0.00347602
0.00344304
0.00344304
0.00347857
0.00344051
0.00347602
0.00347602
0.00344304
0.00344304
0.00347602
0.00344304
0.00344304
0.00347857
0.00344051
0.00347602
0.00344304
0.00344304
0.00344051
0.0034346
0.00339654
0.00343205
0.00343205
0.00339907
0.00339907
0.0034346
0.00339654
0.00343205
0.00343205
0.00339907
0.00339907
0.00343205
0.00339907
0.00339907
0.0034346
0.00339654
0.00343205
0.00339907
0.00339907
0.00339654
0.00339063
0.00335257
0.00338808
0.00338808
0.0033551
0.0033551
0.00339063
0.00335257
0.00338808
0.00338808
0.0033551
0.0033551
0.00338808
0.0033551
0.0033551
0.00339063
0.00335256
0.00338808
0.0033551
0.0033551
0.00335256
0.00334666
0.00330859
0.00334411
0.00334411
0.00331113
0.00331113
0.00334666
0.00330859
0.00334411
0.00334411
0.00331113
0.00331113
0.00334411
0.00331113
0.00331113
0.00334666
0.00330859
0.00334411
0.00331113
0.00331113
0.00330859
0.00330268
0.00326462
0.00330014
0.00330014
0.00326716
0.00326716
0.00330268
0.00326462
0.00330014
0.00330014
0.00326716
0.00326716
0.00330014
0.00326716
0.00326716
0.00330268
0.00326462
0.00330014
0.00326716
0.00326716
0.00326462
0.00325871
0.00322065
0.00325617
0.00325617
0.00322319
0.00322319
0.00325871
0.00322065
0.00325617
0.00325617
0.00322319
0.00322319
0.00325617
0.00322319
0.00322319
0.00325871
0.00322065
0.00325617
0.00322319
0.00322319
0.00322065
0.00321474
0.00317669
0.0032122
0.0032122
0.00317922
0.00317922
0.00321474
0.00317669
0.0032122
0.0032122
0.00317922
0.00317922
0.0032122
0.00317922
0.00317922
0.00321474
0.00317669
0.0032122
0.00317922
0.00317922
0.00317669
0.00317078
0.00313272
0.00316823
0.00316823
0.00313525
0.00313525
0.00317078
0.00313272
0.00316823
0.00316823
0.00313525
0.00313525
0.00316823
0.00313525
0.00313525
0.00317078
0.00313271
0.00316823
0.00313525
0.00313525
0.00313271
0.00312681
0.00308875
0.00312426
0.00312426
0.00309128
0.00309128
0.0031268
0.00308875
0.00312426
0.00312426
0.00309128
0.00309128
0.00312426
0.00309128
0.00309128
0.00312681
0.00308874
0.00312426
0.00309128
0.00309128
0.00308875
0.00308283
0.00304477
0.00308029
0.00308029
0.00304731
0.00304731
0.00308283
0.00304477
0.00308029
0.00308029
0.00304731
0.00304731
0.00308029
0.00304731
0.00304731
0.00308284
0.00304477
0.00308029
0.00304731
0.00304731
0.00304477
0.00303886
0.0030008
0.00303632
0.00303632
0.00300334
0.00300334
0.00303886
0.0030008
0.00303632
0.00303632
0.00300334
0.00300334
0.00303632
0.00300334
0.00300334
0.00303886
0.0030008
0.00303632
0.00300334
0.00300334
0.0030008
0.00299489
0.00295683
0.00299235
0.00299235
0.00295937
0.00295937
0.00299489
0.00295683
0.00299235
0.00299235
0.00295937
0.00295937
0.00299235
0.00295937
0.00295937
0.00299489
0.00295683
0.00299235
0.00295937
0.00295937
0.00295683
0.00295092
0.00291286
0.00294838
0.00294838
0.0029154
0.0029154
0.00295092
0.00291286
0.00294838
0.00294838
0.0029154
0.0029154
0.00294838
0.0029154
0.0029154
0.00295092
0.00291286
0.00294838
0.0029154
0.0029154
0.00291286
0.00290695
0.00286889
0.00290441
0.00290441
0.00287143
0.00287143
0.00290695
0.00286889
0.00290441
0.00290441
0.00287143
0.00287143
0.00290441
0.00287143
0.00287143
0.00290695
0.00286889
0.00290441
0.00287143
0.00287143
0.00286889
0.00286298
0.00282492
0.00286044
0.00286044
0.00282746
0.00282746
0.00286298
0.00282493
0.00286044
0.00286044
0.00282746
0.00282746
0.00286044
0.00282746
0.00282746
0.00286298
0.00282492
0.00286044
0.00282746
0.00282746
0.00282492
0.00281901
0.00278096
0.00281647
0.00281647
0.00278349
0.00278349
0.00281901
0.00278096
0.00281647
0.00281647
0.00278349
0.00278349
0.00281647
0.00278349
0.00278349
0.00281902
0.00278096
0.00281647
0.00278349
0.00278349
0.00278096
0.00277505
0.00273699
0.0027725
0.0027725
0.00273952
0.00273952
0.00277505
0.00273699
0.0027725
0.0027725
0.00273952
0.00273952
0.0027725
0.00273952
0.00273952
0.00277505
0.00273699
0.0027725
0.00273952
0.00273952
0.00273699
0.00273108
0.00269302
0.00272853
0.00272853
0.00269555
0.00269555
0.00273108
0.00269302
0.00272853
0.00272853
0.00269555
0.00269555
0.00272853
0.00269555
0.00269555
0.00273108
0.00269302
0.00272853
0.00269555
0.00269555
0.00269302
0.00268711
0.00264905
0.00268456
0.00268456
0.00265158
0.00265158
0.00268711
0.00264905
0.00268456
0.00268456
0.00265158
0.00265158
0.00268456
0.00265158
0.00265158
0.00268711
0.00264905
0.00268456
0.00265158
0.00265158
0.00264905
0.00264314
0.00260508
0.00264059
0.00264059
0.00260761
0.00260761
0.00264314
0.00260508
0.00264059
0.00264059
0.00260761
0.00260761
0.00264059
0.00260761
0.00260761
0.00264314
0.00260508
0.00264059
0.00260761
0.00260761
0.00260508
0.00259917
0.00256111
0.00259662
0.00259662
0.00256364
0.00256364
0.00259917
0.00256111
0.00259662
0.00259662
0.00256364
0.00256364
0.00259662
0.00256364
0.00256364
0.00259917
0.00256111
0.00259662
0.00256364
0.00256364
0.00256111
0.0025552
0.00251714
0.00255265
0.00255265
0.00251967
0.00251967
0.0025552
0.00251714
0.00255265
0.00255265
0.00251967
0.00251967
0.00255265
0.00251967
0.00251967
0.0025552
0.00251714
0.00255265
0.00251967
0.00251967
0.00251714
0.00251122
0.00247316
0.00250868
0.00250868
0.0024757
0.0024757
0.00251122
0.00247316
0.00250868
0.00250868
0.0024757
0.0024757
0.00250868
0.0024757
0.0024757
0.00251123
0.00247316
0.00250868
0.0024757
0.0024757
0.00247316
0.00246725
0.00242919
0.00246471
0.00246471
0.00243173
0.00243173
0.00246725
0.00242919
0.00246471
0.00246471
0.00243173
0.00243173
0.00246471
0.00243173
0.00243173
0.00246725
0.00242919
0.00246471
0.00243173
0.00243173
0.00242919
0.00242328
0.00238522
0.00242074
0.00242074
0.00238776
0.00238776
0.00242328
0.00238522
0.00242074
0.00242074
0.00238776
0.00238776
0.00242074
0.00238776
0.00238776
0.00242328
0.00238522
0.00242074
0.00238776
0.00238776
0.00238522
0.00237931
0.00234125
0.00237677
0.00237677
0.00234379
0.00234379
0.00237931
0.00234125
0.00237677
0.00237677
0.00234379
0.00234379
0.00237677
0.00234379
0.00234379
0.00237931
0.00234125
0.00237677
0.00234379
0.00234379
0.00234125
0.00233534
0.00229728
0.0023328
0.0023328
0.00229982
0.00229982
0.00233534
0.00229728
0.0023328
0.0023328
0.00229982
0.00229982
0.0023328
0.00229982
0.00229982
0.00233534
0.00229728
0.0023328
0.00229982
0.00229982
0.00229728
0.00229137
0.00225332
0.00228883
0.00228883
0.00225585
0.00225585
0.00229137
0.00225332
0.00228883
0.00228883
0.00225585
0.00225585
0.00228883
0.00225585
0.00225585
0.00229137
0.00225332
0.00228883
0.00225585
0.00225585
0.00225332
0.00224741
0.00220935
0.00224486
0.00224486
0.00221188
0.00221188
0.00224741
0.00220935
0.00224486
0.00224486
0.00221188
0.00221188
0.00224486
0.00221188
0.00221188
0.00224741
0.00220935
0.00224486
0.00221188
0.00221188
0.00220935
0.00220344
0.00216538
0.00220089
0.00220089
0.00216791
0.00216791
0.00220344
0.00216538
0.00220089
0.00220089
0.00216791
0.00216791
0.00220089
0.00216791
0.00216791
0.00220344
0.00216538
0.00220089
0.00216791
0.00216791
0.00216538
0.00215947
0.00212141
0.00215692
0.00215692
0.00212394
0.00212394
0.00215947
0.00212141
0.00215692
0.00215692
0.00212394
0.00212394
0.00215692
0.00212394
0.00212394
0.00215947
0.00212141
0.00215692
0.00212394
0.00212394
0.00212141
0.0021155
0.00207744
0.00211295
0.00211295
0.00207997
0.00207997
0.0021155
0.00207744
0.00211295
0.00211295
0.00207997
0.00207997
0.00211295
0.00207997
0.00207997
0.0021155
0.00207744
0.00211295
0.00207997
0.00207997
0.00207744
0.00207153
0.00203347
0.00206898
0.00206898
0.002036
0.002036
0.00207153
0.00203347
0.00206898
0.00206898
0.002036
0.002036
0.00206898
0.002036
0.002036
0.00207153
0.00203346
0.00206898
0.002036
0.002036
0.00203347
0.00202756
0.00198949
0.00202501
0.00202501
0.00199203
0.00199203
0.00202756
0.0019895
0.00202501
0.00202501
0.00199203
0.00199203
0.00202501
0.00199203
0.00199203
0.00202756
0.00198949
0.00202501
0.00199203
0.00199203
0.00198949
0.00198358
0.00194552
0.00198104
0.00198104
0.00194806
0.00194806
0.00198358
0.00194552
0.00198104
0.00198104
0.00194806
0.00194806
0.00198104
0.00194806
0.00194806
0.00198358
0.00194552
0.00198104
0.00194806
0.00194806
0.00194552
0.00193961
0.00190155
0.00193707
0.00193707
0.00190409
0.00190409
0.00193961
0.00190155
0.00193707
0.00193707
0.00190409
0.00190409
0.00193707
0.00190409
0.00190409
0.00193961
0.00190155
0.00193707
0.00190409
0.00190409
0.00190155
0.00189564
0.00185758
0.0018931
0.0018931
0.00186012
0.00186012
0.00189564
0.00185758
0.0018931
0.0018931
0.00186012
0.00186012
0.0018931
0.00186012
0.00186012
0.00189564
0.00185758
0.0018931
0.00186012
0.00186012
0.00185758
0.00185167
0.00181361
0.00184913
0.00184913
0.00181615
0.00181615
0.00185167
0.00181361
0.00184913
0.00184913
0.00181615
0.00181615
0.00184913
0.00181615
0.00181615
0.00185167
0.00181361
0.00184913
0.00181615
0.00181615
0.00181361
0.00180771
0.00176965
0.00180516
0.00180516
0.00177218
0.00177218
0.0018077
0.00176965
0.00180516
0.00180516
0.00177218
0.00177218
0.00180516
0.00177218
0.00177218
0.00180771
0.00176965
0.00180516
0.00177218
0.00177218
0.00176965
0.00176374
0.00172568
0.00176119
0.00176119
0.00172821
0.00172821
0.00176374
0.00172568
0.00176119
0.00176119
0.00172821
0.00172821
0.00176119
0.00172821
0.00172821
0.00176374
0.00172568
0.00176119
0.00172821
0.00172821
0.00172568
0.00171977
0.00168171
0.00171722
0.00171722
0.00168424
0.00168424
0.00171977
0.00168171
0.00171722
0.00171722
0.00168424
0.00168424
0.00171722
0.00168424
0.00168424
0.00171977
0.00168171
0.00171722
0.00168424
0.00168424
0.00168171
0.0016758
0.00163774
0.00167325
0.00167325
0.00164027
0.00164027
0.0016758
0.00163774
0.00167325
0.00167325
0.00164027
0.00164027
0.00167325
0.00164027
0.00164027
0.0016758
0.00163774
0.00167325
0.00164027
0.00164027
0.00163774
0.00163183
0.00159377
0.00162928
0.00162928
0.0015963
0.0015963
0.00163183
0.00159377
0.00162928
0.00162928
0.0015963
0.0015963
0.00162928
0.0015963
0.0015963
0.00163183
0.00159377
0.00162928
0.0015963
0.0015963
0.00159377
0.00158786
0.00154979
0.00158531
0.00158531
0.00155233
0.00155233
0.00158786
0.0015498
0.00158531
0.00158531
0.00155233
0.00155233
0.00158531
0.00155233
0.00155233
0.00158786
0.00154979
0.00158531
0.00155233
0.00155233
0.00154979
0.00154388
0.00150582
0.00154134
0.00154134
0.00150836
0.00150836
0.00154388
0.00150582
0.00154134
0.00154134
0.00150836
0.00150836
0.00154134
0.00150836
0.00150836
0.00154388
0.00150582
0.00154134
0.00150836
0.00150836
0.00150582
0.00149991
0.00146185
0.00149737
0.00149737
0.00146439
0.00146439
0.00149991
0.00146185
0.00149737
0.00149737
0.00146439
0.00146439
0.00149737
0.00146439
0.00146439
0.00149991
0.00146185
0.00149737
0.00146439
0.00146439
0.00146185
0.00145594
0.00141788
0.0014534
0.0014534
0.00142042
0.00142042
0.00145594
0.00141788
0.0014534
0.0014534
0.00142042
0.00142042
0.0014534
0.00142042
0.00142042
0.00145594
0.00141788
0.0014534
0.00142042
0.00142042
0.00141788
0.00141198
0.00137392
0.00140943
0.00140943
0.00137645
0.00137645
0.00141197
0.00137392
0.00140943
0.00140943
0.00137645
0.00137645
0.00140943
0.00137645
0.00137645
0.00141198
0.00137392
0.00140943
0.00137645
0.00137645
0.00137392
0.00136801
0.00132995
0.00136546
0.00136546
0.00133248
0.00133248
0.00136801
0.00132995
0.00136546
0.00136546
0.00133248
0.00133248
0.00136546
0.00133248
0.00133248
0.00136801
0.00132995
0.00136546
0.00133248
0.00133248
0.00132995
0.00132404
0.00128598
0.00132149
0.00132149
0.00128851
0.00128851
0.00132404
0.00128598
0.00132149
0.00132149
0.00128851
0.00128851
0.00132149
0.00128851
0.00128851
0.00132404
0.00128598
0.00132149
0.00128851
0.00128851
0.00128598
0.00128007
0.00124201
0.00127752
0.00127752
0.00124454
0.00124454
0.00128007
0.00124201
0.00127752
0.00127752
0.00124454
0.00124454
0.00127752
0.00124454
0.00124455
0.00128007
0.00124201
0.00127752
0.00124454
0.00124454
0.00124201
0.0012361
0.00119804
0.00123355
0.00123355
0.00120057
0.00120057
0.0012361
0.00119804
0.00123355
0.00123355
0.00120057
0.00120057
0.00123355
0.00120057
0.00120057
0.0012361
0.00119804
0.00123355
0.00120057
0.00120057
0.00119804
0.00119213
0.00115407
0.00118958
0.00118958
0.0011566
0.0011566
0.00119213
0.00115407
0.00118958
0.00118958
0.0011566
0.0011566
0.00118958
0.0011566
0.0011566
0.00119213
0.00115407
0.00118958
0.0011566
0.0011566
0.00115407
0.00114816
0.0011101
0.00114561
0.00114561
0.00111263
0.00111263
0.00114816
0.0011101
0.00114561
0.00114561
0.00111263
0.00111263
0.00114561
0.00111263
0.00111263
0.00114816
0.0011101
0.00114561
0.00111263
0.00111263
0.0011101
0.00110419
0.00106613
0.00110164
0.00110164
0.00106866
0.00106866
0.00110419
0.00106613
0.00110164
0.00110164
0.00106866
0.00106866
0.00110164
0.00106866
0.00106866
0.00110419
0.00106613
0.00110164
0.00106866
0.00106866
0.00106613
0.00106022
0.00102216
0.00105767
0.00105767
0.00102469
0.00102469
0.00106022
0.00102216
0.00105767
0.00105767
0.00102469
0.00102469
0.00105767
0.00102469
0.00102469
0.00106022
0.00102216
0.00105767
0.00102469
0.00102469
0.00102216
0.00101625
0.000978186
0.0010137
0.0010137
0.000980723
0.000980723
0.00101625
0.000978187
0.0010137
0.0010137
0.000980723
0.000980723
0.0010137
0.000980724
0.000980724
0.00101625
0.000978186
0.0010137
0.000980723
0.000980723
0.000978186
0.000972276
0.000934216
0.000969731
0.000969731
0.000936753
0.000936753
0.000972276
0.000934216
0.000969731
0.000969731
0.000936753
0.000936753
0.000969731
0.000936753
0.000936754
0.000972276
0.000934216
0.000969731
0.000936753
0.000936753
0.000934216
0.000928307
0.000890246
0.000925761
0.000925761
0.000892784
0.000892783
0.000928306
0.000890247
0.000925761
0.000925761
0.000892783
0.000892784
0.000925761
0.000892784
0.000892784
0.000928306
0.000890246
0.000925761
0.000892784
0.000892784
0.000890246
0.000884337
0.000846277
0.000881791
0.000881791
0.000848814
0.000848814
0.000884337
0.000846277
0.000881791
0.000881791
0.000848814
0.000848814
0.000881791
0.000848814
0.000848814
0.000884337
0.000846277
0.000881791
0.000848814
0.000848814
0.000846277
0.000840367
0.000802307
0.000837822
0.000837821
0.000804844
0.000804844
0.000840367
0.000802307
0.000837821
0.000837821
0.000804844
0.000804844
0.000837822
0.000804844
0.000804845
0.000840367
0.000802307
0.000837821
0.000804844
0.000804844
0.000802307
0.000796398
0.000758337
0.000793852
0.000793852
0.000760875
0.000760874
0.000796397
0.000758338
0.000793852
0.000793852
0.000760874
0.000760875
0.000793852
0.000760875
0.000760875
0.000796398
0.000758337
0.000793852
0.000760875
0.000760875
0.000758337
0.000752428
0.000714367
0.000749882
0.000749882
0.000716904
0.000716904
0.000752428
0.000714367
0.000749882
0.000749882
0.000716904
0.000716904
0.000749882
0.000716904
0.000716904
0.000752428
0.000714367
0.000749882
0.000716904
0.000716904
0.000714367
0.000708457
0.000670395
0.000705911
0.000705911
0.000672933
0.000672933
0.000708457
0.000670396
0.000705911
0.000705911
0.000672933
0.000672933
0.000705911
0.000672933
0.000672933
0.000708457
0.000670395
0.000705911
0.000672933
0.000672933
0.000670395
0.000664485
0.000626423
0.00066194
0.00066194
0.000628961
0.000628961
0.000664485
0.000626424
0.00066194
0.00066194
0.000628961
0.000628961
0.00066194
0.000628961
0.000628961
0.000664485
0.000626423
0.00066194
0.000628961
0.000628961
0.000626423
0.000620513
0.000582452
0.000617968
0.000617968
0.000584989
0.000584989
0.000620513
0.000582452
0.000617968
0.000617968
0.000584989
0.000584989
0.000617968
0.000584989
0.000584989
0.000620513
0.000582452
0.000617968
0.000584989
0.000584989
0.000582452
0.000576542
0.000538481
0.000573996
0.000573996
0.000541018
0.000541018
0.000576542
0.000538481
0.000573996
0.000573996
0.000541018
0.000541018
0.000573996
0.000541018
0.000541018
0.000576542
0.000538481
0.000573996
0.000541018
0.000541018
0.000538481
0.000532571
0.000494511
0.000530025
0.000530025
0.000497048
0.000497048
0.000532571
0.000494511
0.000530025
0.000530025
0.000497048
0.000497048
0.000530026
0.000497048
0.000497048
0.000532571
0.000494511
0.000530025
0.000497048
0.000497048
0.000494511
0.000488601
0.00045054
0.000486055
0.000486055
0.000453077
0.000453077
0.000488601
0.00045054
0.000486055
0.000486055
0.000453077
0.000453077
0.000486056
0.000453077
0.000453078
0.000488601
0.00045054
0.000486055
0.000453077
0.000453077
0.00045054
0.00044463
0.000406568
0.000442085
0.000442084
0.000409105
0.000409105
0.00044463
0.000406568
0.000442085
0.000442085
0.000409105
0.000409105
0.000442085
0.000409106
0.000409106
0.00044463
0.000406568
0.000442085
0.000409106
0.000409105
0.000406568
0.000400658
0.000362595
0.000398112
0.000398112
0.000365132
0.000365132
0.000400658
0.000362595
0.000398112
0.000398112
0.000365132
0.000365132
0.000398112
0.000365132
0.000365132
0.000400658
0.000362595
0.000398112
0.000365132
0.000365132
0.000362595
0.000356684
0.00031862
0.000354139
0.000354138
0.000321157
0.000321157
0.000356684
0.00031862
0.000354138
0.000354138
0.000321157
0.000321157
0.000354139
0.000321158
0.000321158
0.000356685
0.00031862
0.000354138
0.000321158
0.000321157
0.00031862
0.00031271
0.000274645
0.000310164
0.000310164
0.000277182
0.000277182
0.00031271
0.000274645
0.000310164
0.000310164
0.000277182
0.000277182
0.000310164
0.000277182
0.000277183
0.00031271
0.000274645
0.000310164
0.000277182
0.000277182
0.000274645
0.000268734
0.00023067
0.000266189
0.000266189
0.000233208
0.000233207
0.000268734
0.00023067
0.000266188
0.000266188
0.000233207
0.000233207
0.000266189
0.000233207
0.000233208
0.000268735
0.00023067
0.000266189
0.000233207
0.000233207
0.00023067
0.00022476
0.000186695
0.000222214
0.000222214
0.000189233
0.000189233
0.000224759
0.000186696
0.000222214
0.000222214
0.000189233
0.000189233
0.000222214
0.000189233
0.000189233
0.00022476
0.000186695
0.000222214
0.000189233
0.000189233
0.000186695
0.000180785
0.000142721
0.000178239
0.000178239
0.000145258
0.000145258
0.000180785
0.000142721
0.000178239
0.000178239
0.000145258
0.000145258
0.000178239
0.000145258
0.000145258
0.000180785
0.000142721
0.000178239
0.000145258
0.000145258
0.000142721
0.00013681
9.87478e-05
0.000134264
0.000134264
0.000101288
0.000101288
0.00013681
9.87483e-05
0.000134264
0.000134264
0.000101288
0.000101288
0.000134265
0.000101288
0.000101287
0.00013681
9.87474e-05
0.000134265
0.000101288
0.000101287
9.87473e-05
9.28361e-05
5.47475e-05
9.02982e-05
9.02977e-05
5.734e-05
5.734e-05
9.28355e-05
5.47484e-05
9.02975e-05
9.02975e-05
5.73382e-05
5.73385e-05
9.02974e-05
5.73385e-05
5.73374e-05
9.28362e-05
5.47468e-05
9.02975e-05
5.73377e-05
5.73358e-05
5.47444e-05
4.87547e-05
1.47727e-05
4.63661e-05
4.6365e-05
1.70865e-05
1.70844e-05
4.87539e-05
1.47716e-05
4.63654e-05
4.63649e-05
1.70847e-05
1.70822e-05
4.63627e-05
1.70821e-05
1.70791e-05
4.87535e-05
1.477e-05
4.63609e-05
1.70833e-05
1.70806e-05
1.47666e-05
1.13835e-05
1.176e-05
1.17591e-05
1.1383e-05
1.17584e-05
1.17576e-05
1.12298e-05
1.12296e-05
1.12282e-05
1.17554e-05
1.13827e-05
1.17558e-05
0.00416498
0.00417466
0.00416948
0.00416948
0.00419168
0.00417857
0.00420706
0.00417266
0.00419168
0.00417858
0.00417266
0.00420706
0.0041831
0.00421078
0.00421078
0.00411987
0.00413753
0.00414818
0.00411544
0.00411192
0.00411835
0.00411986
0.00413751
0.00414817
0.00411543
0.00414325
0.00414325
0.00414325
0.00410275
0.00410275
0.00410277
0.00410275
0.00411865
0.00414306
0.00414334
0.00412718
0.00414621
0.00411808
0.0041279
0.00411202
0.00411834
0.00411866
0.00414334
0.00414307
0.00412718
0.0041462
0.0041279
0.00411807
0.00414957
0.00414955
0.00412151
0.00411679
0.00411679
0.00407787
0.00409359
0.00409398
0.00407776
0.00409358
0.00407777
0.00407786
0.00409357
0.00409397
0.00407775
0.00409186
0.00409186
0.00409186
0.00405868
0.00405868
0.00405868
0.00405868
0.00407795
0.00409408
0.00409178
0.00408072
0.00409394
0.0040779
0.00408074
0.00409357
0.00407775
0.00407795
0.00409178
0.00409407
0.00408072
0.00409393
0.00408074
0.0040779
0.00409388
0.00409387
0.00407812
0.00407782
0.00407782
0.00403392
0.00405036
0.00405037
0.00403391
0.00405037
0.00403391
0.00403392
0.00405036
0.00405037
0.00403391
0.00404767
0.00404767
0.00404767
0.00401468
0.00401468
0.00401468
0.00401468
0.00403399
0.00405033
0.00404765
0.00403664
0.00405031
0.00403395
0.00403665
0.00405036
0.00403391
0.00403399
0.00404765
0.00405033
0.00403664
0.00405031
0.00403665
0.00403395
0.00405037
0.00405037
0.0040341
0.00403391
0.00403391
0.00398995
0.00400641
0.0040064
0.00398995
0.00400641
0.00398994
0.00398995
0.00400641
0.0040064
0.00398995
0.00400369
0.00400369
0.00400369
0.00397071
0.00397071
0.00397071
0.00397071
0.00399002
0.00400637
0.00400367
0.00399267
0.00400634
0.00398998
0.00399268
0.00400641
0.00398994
0.00399002
0.00400367
0.00400637
0.00399267
0.00400634
0.00399268
0.00398998
0.00400641
0.00400641
0.00399013
0.00398994
0.00398994
0.00394598
0.00396244
0.00396243
0.00394597
0.00396244
0.00394597
0.00394598
0.00396244
0.00396243
0.00394597
0.00395971
0.00395971
0.00395971
0.00392674
0.00392674
0.00392674
0.00392674
0.00394605
0.0039624
0.0039597
0.0039487
0.00396237
0.00394601
0.00394871
0.00396244
0.00394597
0.00394605
0.0039597
0.0039624
0.0039487
0.00396237
0.00394871
0.00394601
0.00396244
0.00396244
0.00394616
0.00394597
0.00394597
0.00390201
0.00391847
0.00391846
0.003902
0.00391848
0.00390198
0.00390201
0.00391847
0.00391846
0.003902
0.00391574
0.00391574
0.00391574
0.00388276
0.00388276
0.00388276
0.00388276
0.00390208
0.00391843
0.00391573
0.00390473
0.0039184
0.00390204
0.00390473
0.00391847
0.003902
0.00390208