/*--------------------------------*- C++ -*----------------------------------*\
| =========                 |                                                 |
| \\      /  F ield         | OpenFOAM: The Open Source CFD Toolbox           |
|  \\    /   O peration     | Version:  2206                                  |
|   \\  /    A nd           | Website:  www.openfoam.com                      |
|    \\/     M anipulation  |                                                 |
\*---------------------------------------------------------------------------*/
FoamFile
{
    version     2.0;
    format      ascii;
    arch        "LSB;label=32;scalar=64";
    class       volScalarField;
    location    "18.5";
    object      p;
}
// * * * * * * * * * * * * * * * * * * * * * * * * * * * * * * * * * * * * * //

dimensions      [0 2 -2 0 0 0 0];

internalField   nonuniform List<scalar> 
28673
(
0.000536373
0.000538988
0.000491863
0.000491834
0.000491833
0.000494448
0.000447327
0.000447298
0.000447297
0.000449911
0.000402791
0.000402761
0.000402761
0.000405376
0.000358243
0.000358212
0.000358214
0.000360826
0.000313695
0.000313666
0.000313665
0.00031628
0.000269152
0.000269122
0.000269122
0.000271736
0.000224608
0.00022458
0.00022458
0.000227193
0.000180056
0.000180029
0.000180029
0.000182636
0.000135516
0.000135477
0.000135477
0.000138076
9.09538e-05
9.09049e-05
9.09039e-05
9.34638e-05
4.70869e-05
4.65332e-05
4.65302e-05
4.89567e-05
1.05316e-05
1.08782e-05
1.08764e-05
1.04683e-05
0.000547509
0.0005449
0.000547509
0.000500359
0.000536374
0.000536373
0.000502968
0.000502968
0.000538987
0.00050036
0.000502967
0.000502968
0.000536374
0.000502968
0.000502968
0.000500359
0.000536374
0.000502968
0.000502968
0.00050036
0.000494447
0.000455823
0.000491834
0.000491834
0.000458432
0.000458432
0.000494448
0.000455824
0.000491833
0.000491833
0.000458432
0.000458432
0.000491834
0.000458432
0.000458432
0.000494447
0.000455823
0.000491834
0.000458432
0.000458432
0.000455823
0.000449911
0.000411288
0.000447297
0.000447297
0.000413896
0.000413896
0.000449912
0.000411289
0.000447297
0.000447298
0.000413896
0.000413896
0.000447297
0.000413896
0.000413897
0.000449911
0.000411287
0.000447297
0.000413896
0.000413896
0.000411288
0.000405375
0.000366741
0.000402761
0.000402761
0.000369351
0.00036935
0.000405376
0.000366739
0.000402761
0.000402761
0.000369352
0.000369353
0.000402761
0.00036935
0.000369351
0.000405375
0.000366743
0.000402761
0.000369352
0.000369351
0.00036674
0.000360827
0.000322192
0.000358213
0.000358212
0.000324802
0.000324802
0.000360825
0.000322193
0.000358214
0.000358215
0.000324801
0.000324801
0.000358213
0.000324802
0.000324802
0.000360828
0.000322192
0.000358213
0.000324802
0.000324802
0.000322193
0.000316279
0.000277649
0.000313666
0.000313666
0.000280258
0.000280258
0.00031628
0.000277649
0.000313665
0.000313665
0.000280258
0.000280258
0.000313666
0.000280258
0.000280258
0.000316279
0.000277649
0.000313666
0.000280258
0.000280258
0.000277649
0.000271736
0.000233106
0.000269122
0.000269122
0.000235715
0.000235715
0.000271736
0.000233106
0.000269122
0.000269122
0.000235715
0.000235715
0.000269122
0.000235715
0.000235715
0.000271736
0.000233106
0.000269122
0.000235715
0.000235715
0.000233106
0.000227193
0.000188559
0.00022458
0.00022458
0.00019117
0.00019117
0.000227193
0.000188559
0.00022458
0.00022458
0.00019117
0.00019117
0.00022458
0.00019117
0.00019117
0.000227193
0.000188558
0.00022458
0.00019117
0.00019117
0.000188559
0.000182636
0.00014401
0.000180029
0.000180029
0.000146598
0.000146598
0.000182635
0.000144009
0.000180029
0.000180029
0.000146597
0.000146597
0.000180029
0.000146597
0.000146598
0.000182635
0.000144009
0.000180029
0.000146597
0.000146598
0.000144009
0.000138076
9.94698e-05
0.000135478
0.000135477
0.000102076
0.000102076
0.000138075
9.94705e-05
0.000135477
0.000135477
0.000102075
0.000102075
0.000135477
0.000102075
0.000102075
0.000138075
9.94688e-05
0.000135477
0.000102074
0.000102075
9.94693e-05
9.34648e-05
5.49557e-05
9.09061e-05
9.0906e-05
5.75604e-05
5.75612e-05
9.34644e-05
5.49571e-05
9.09045e-05
9.0904e-05
5.75578e-05
5.75575e-05
9.09052e-05
5.75595e-05
5.75575e-05
9.34639e-05
5.49534e-05
9.09042e-05
5.7557e-05
5.75562e-05
5.49529e-05
4.89604e-05
1.43779e-05
4.6535e-05
4.65351e-05
1.66441e-05
1.66434e-05
4.89609e-05
1.43776e-05
4.65326e-05
4.65311e-05
1.66424e-05
1.66386e-05
4.65304e-05
1.66408e-05
1.66368e-05
4.89572e-05
1.43735e-05
4.65295e-05
1.6639e-05
1.66383e-05
1.43721e-05
1.04724e-05
1.08796e-05
1.08799e-05
1.04732e-05
1.08782e-05
1.08758e-05
1.05313e-05
1.05295e-05
1.0529e-05
1.08747e-05
1.04696e-05
1.08753e-05
0.00052248
0.000539155
0.000539156
0.00052248
0.000539157
0.00052248
0.00052248
0.000522481
0.000536403
0.000536403
0.000502998
0.000502998
0.000502998
0.000502997
0.000522537
0.000539123
0.000536381
0.000525238
0.000539106
0.000522511
0.000525245
0.000522479
0.000522537
0.000536381
0.000525238
0.000539106
0.000525246
0.000522511
0.00053916
0.00053916
0.000522629
0.000522476
0.000522476
0.000477944
0.000494616
0.000494617
0.000477943
0.000494617
0.000477943
0.000477943
0.000494615
0.000494617
0.000477943
0.000491863
0.000491863
0.000491863
0.000458461
0.000458462
0.000458461
0.000458461
0.000477999
0.000494584
0.000491842
0.0004807
0.000494567
0.000477974
0.000480708
0.000494617
0.000477943
0.000477999
0.000491841
0.000494584
0.000480699
0.000494566
0.000480707
0.000477974
0.000494621
0.000494621
0.000478092
0.000477939
0.000477939
0.000433409
0.00045008
0.000450081
0.000433408
0.000450082
0.000433407
0.000433407
0.00045008
0.000450081
0.000433408
0.000447328
0.000447327
0.000447327
0.000413925
0.000413926
0.000413925
0.000413925
0.000433464
0.000450049
0.000447305
0.000436165
0.000450031
0.000433439
0.000436172
0.000450081
0.000433407
0.000433464
0.000447305
0.000450048
0.000436163
0.00045003
0.000436171
0.000433438
0.000450084
0.000450084
0.000433556
0.000433405
0.000433405
0.000388875
0.000405548
0.000405547
0.000388874
0.000405552
0.000388869
0.000388873
0.000405545
0.000405546
0.000388874
0.000402791
0.000402791
0.000402791
0.000369381
0.000369379
0.000369382
0.00036938
0.000388927
0.000405517
0.000402768
0.000391626
0.000405496
0.000388903
0.000391632
0.000405545
0.000388875
0.000388927
0.000402768
0.000405513
0.000391625
0.000405495
0.000391633
0.000388904
0.000405552
0.000405552
0.000389018
0.000388872
0.000388872
0.000344318
0.000360995
0.000360999
0.000344317
0.000360996
0.000344317
0.00034432
0.000360998
0.000361004
0.000344318
0.000358242
0.000358243
0.000358242
0.000324832
0.000324832
0.000324832
0.000324831
0.000344372
0.000360963
0.000358219
0.000347075
0.000360944
0.000344348
0.000347082
0.000360998
0.000344316
0.000344373
0.00035822
0.000360968
0.000347076
0.000360945
0.000347083
0.000344349
0.000361
0.000361
0.000344465
0.000344313
0.000344313
0.000299774
0.000316449
0.00031645
0.000299773
0.00031645
0.000299773
0.000299773
0.000316448
0.000316449
0.000299773
0.000313696
0.000313695
0.000313695
0.000280288
0.000280288
0.000280287
0.000280287
0.000299829
0.000316417
0.000313673
0.00030253
0.000316399
0.000299804
0.000302537
0.000316449
0.000299772
0.000299829
0.000313673
0.000316417
0.000302529
0.000316398
0.000302537
0.000299804
0.000316453
0.000316453
0.000299921
0.00029977
0.000299769
0.000255231
0.000271905
0.000271907
0.00025523
0.000271906
0.000255229
0.00025523
0.000271905
0.000271907
0.00025523
0.000269152
0.000269152
0.000269152
0.000235743
0.000235743
0.000235743
0.000235743
0.000255285
0.000271874
0.00026913
0.000257986
0.000271855
0.000255261
0.000257994
0.000271906
0.000255229
0.000255285
0.000269129
0.000271874
0.000257986
0.000271855
0.000257993
0.000255261
0.00027191
0.00027191
0.000255377
0.000255226
0.000255226
0.000210687
0.00022736
0.000227361
0.000210683
0.000227362
0.000210682
0.000210686
0.000227361
0.000227361
0.000210684
0.000224608
0.000224608
0.000224608
0.000191191
0.000191191
0.00019119
0.000191191
0.000210741
0.000227328
0.000224587
0.000213444
0.00022731
0.000210719
0.000213449
0.000227362
0.000210682
0.000210741
0.000224587
0.000227328
0.000213444
0.00022731
0.000213449
0.000210719
0.000227365
0.000227365
0.000210834
0.000210681
0.000210681
0.00016615
0.000182806
0.000182802
0.000166144
0.000182818
0.000166119
0.00016615
0.000182806
0.000182802
0.000166143
0.000180056
0.000180055
0.000180056
0.000146634
0.000146634
0.000146634
0.000146634
0.000166203
0.000182749
0.000180036
0.000168883
0.00018275
0.00016621
0.000168886
0.000182819
0.000166119
0.000166203
0.000180036
0.000182749
0.000168883
0.00018275
0.000168886
0.00016621
0.00018281
0.000182809
0.000166279
0.000166142
0.000166141
0.000121526
0.000138245
0.000138245
0.000121558
0.000138278
0.000121477
0.000121526
0.000138254
0.000138244
0.000121562
0.000135516
0.000135515
0.000135516
0.000102075
0.000102074
0.000102075
0.000102075
0.0001216
0.000138196
0.000135498
0.00012437
0.000138222
0.0001216
0.000124369
0.000138281
0.000121467
0.000121599
0.000135498
0.000138199
0.00012437
0.000138221
0.000124368
0.0001216
0.000138221
0.000138222
0.000121753
0.000121584
0.000121586
7.69515e-05
9.36655e-05
9.36222e-05
7.70501e-05
9.38564e-05
7.68096e-05
7.69498e-05
9.36651e-05
9.36215e-05
7.70485e-05
9.09521e-05
9.09527e-05
9.09528e-05
5.77908e-05
5.77914e-05
5.7789e-05
5.77888e-05
7.70389e-05
9.35845e-05
9.09349e-05
7.97885e-05
9.35971e-05
7.71061e-05
7.9813e-05
9.38527e-05
7.68136e-05
7.70371e-05
9.09325e-05
9.35833e-05
7.97869e-05
9.35959e-05
7.98113e-05
7.71036e-05
9.36395e-05
9.36399e-05
7.72012e-05
7.70631e-05
7.70632e-05
3.15178e-05
4.86467e-05
4.87798e-05
3.07913e-05
4.90817e-05
3.01554e-05
3.15045e-05
4.86406e-05
4.8774e-05
3.0784e-05
4.7087e-05
4.7084e-05
4.70838e-05
1.81607e-05
1.81598e-05
1.81572e-05
1.81568e-05
3.21687e-05
4.86473e-05
4.67971e-05
3.57876e-05
4.88899e-05
3.13944e-05
3.61996e-05
4.90669e-05
3.01641e-05
3.21687e-05
4.67942e-05
4.86459e-05
3.57846e-05
4.88893e-05
3.6197e-05
3.13956e-05
4.85945e-05
4.85928e-05
3.31116e-05
3.10534e-05
3.10504e-05
6.56473e-06
7.82095e-06
7.66104e-06
4.50417e-07
5.03682e-06
-2.39731e-06
6.58223e-06
7.80231e-06
7.64751e-06
4.54349e-07
3.09467e-06
1.08967e-05
1.08951e-05
3.53435e-06
1.1159e-05
3.1928e-06
3.19238e-06
5.48869e-06
7.81033e-06
1.02925e-05
3.72016e-06
9.38092e-06
4.79985e-06
3.34363e-06
5.00164e-06
-2.38836e-06
5.49432e-06
1.02921e-05
7.80637e-06
3.71983e-06
9.38106e-06
3.34423e-06
4.81052e-06
4.26446e-06
4.26166e-06
3.77547e-06
4.10723e-06
4.12288e-06
0.000544752
0.000544782
0.00054475
0.000544748
0.000544748
0.00054475
0.000544782
0.000544752
0.000539156
0.00052248
0.00052248
0.00053916
0.000522629
0.000522476
0.000522477
0.000500211
0.000516886
0.00050021
0.000516886
0.000516716
0.000500208
0.000500207
0.000516889
0.000516889
0.00052248
0.000539155
0.000539156
0.00052248
0.000522537
0.000539124
0.000536381
0.000525238
0.000539106
0.000522511
0.000525245
0.000522537
0.000539123
0.000536381
0.000525238
0.000539106
0.000522511
0.000525245
0.000516885
0.000500212
0.000516884
0.000500212
0.000516885
0.000500211
0.000516884
0.000500212
0.000516835
0.000514103
0.000500242
0.000502975
0.000516853
0.00051411
0.000500268
0.000516835
0.000514102
0.000500242
0.000502976
0.000516853
0.00051411
0.000500268
0.000539159
0.000539159
0.000522629
0.000522477
0.000522477
0.000539157
0.000522479
0.000500211
0.000516886
0.000516716
0.000500208
0.000500208
0.000516889
0.000516889
0.000500211
0.000516886
0.000522537
0.000525238
0.000522511
0.000525246
0.00052248
0.000522481
0.000522537
0.000525238
0.000525246
0.000522512
0.000516885
0.000500211
0.000516884
0.000500211
0.000516835
0.000514103
0.000500242
0.000502975
0.000516853
0.00051411
0.000500267
0.000516885
0.00050021
0.000516884
0.000500211
0.000516835
0.000514103
0.000502975
0.000500241
0.00051411
0.000516853
0.000500267
0.00052248
0.000539155
0.000539156
0.00052248
0.000522537
0.000536381
0.000539124
0.000525238
0.000539106
0.000525246
0.000522511
0.00052248
0.000539155
0.000539156
0.00052248
0.000516835
0.000514102
0.000500242
0.000502976
0.000516853
0.00051411
0.000500268
0.000516885
0.000500212
0.000516884
0.000500212
0.000516835
0.000514103
0.000502976
0.000500242
0.00051411
0.000516853
0.000500268
0.000516885
0.000500212
0.000516884
0.000500212
0.00052263
0.000522477
0.000522477
0.00052248
0.00050021
0.000516886
0.000516717
0.000500207
0.000500207
0.000516889
0.000516889
0.00050021
0.000516886
0.000522537
0.000536381
0.000539124
0.000525238
0.000539106
0.000525246
0.000522511
0.00052248
0.000539156
0.00052248
0.00052248
0.000539156
0.000539156
0.00052248
0.000516835
0.000514103
0.000502975
0.000500242
0.00051411
0.000516853
0.000500268
0.000516835
0.000514103
0.000502975
0.000500242
0.00051411
0.000516853
0.000500268
0.000516885
0.000500211
0.000516884
0.000500212
0.000516885
0.000500212
0.000516884
0.000500212
0.000539156
0.00052248
0.000539156
0.00052248
0.000516716
0.000500208
0.000500208
0.000516889
0.000516889
0.000500211
0.000516886
0.000500211
0.000516886
0.000494618
0.000477942
0.000494616
0.000477943
0.000494621
0.00049462
0.000478091
0.000477939
0.000477939
0.000455675
0.000472349
0.000455675
0.000472348
0.000472179
0.000455671
0.000455671
0.000472352
0.000472352
0.000477944
0.000494616
0.000494617
0.000477943
0.000477999
0.000494585
0.000491841
0.0004807
0.000494567
0.000477974
0.000480707
0.000477999
0.000494585
0.000491842
0.0004807
0.000494567
0.000477974
0.000480708
0.000472349
0.000455676
0.000472347
0.000455676
0.000472349
0.000455676
0.000472347
0.000455676
0.000472298
0.000469566
0.000455706
0.000458439
0.000472316
0.000469573
0.000455732
0.000472298
0.000469566
0.000455706
0.000458439
0.000472316
0.000469573
0.000455732
0.00049462
0.00049462
0.000478092
0.00047794
0.00047794
0.000494618
0.000477943
0.000455676
0.000472349
0.00047218
0.000455672
0.000455672
0.000472352
0.000472352
0.000455675
0.000472349
0.000477999
0.000494584
0.000491841
0.000480699
0.000494566
0.000477974
0.000480707
0.000477943
0.000494615
0.000494617
0.000477943
0.000477999
0.000491841
0.000494584
0.000480699
0.000494566
0.000480707
0.000477974
0.000472349
0.000455675
0.000472347
0.000455675
0.000472298
0.000469566
0.000455706
0.000458439
0.000472316
0.000469573
0.000455731
0.000472349
0.000455675
0.000472347
0.000455675
0.000472298
0.000469565
0.000458439
0.000455705
0.000469573
0.000472316
0.000455731
0.000477944
0.000494616
0.000494617
0.000477943
0.000478
0.000491841
0.000494585
0.0004807
0.000494567
0.000480708
0.000477974
0.000477944
0.000494616
0.000494617
0.000477943
0.000472298
0.000469566
0.000455707
0.000458439
0.000472316
0.000469574
0.000455732
0.000472349
0.000455677
0.000472348
0.000455676
0.000472298
0.000469566
0.000458439
0.000455706
0.000469574
0.000472316
0.000455732
0.000472349
0.000455676
0.000472347
0.000455676
0.000494619
0.00049462
0.000478091
0.00047794
0.000477939
0.000494617
0.000477943
0.000455674
0.000472349
0.000472179
0.000455671
0.000455671
0.000472352
0.000472352
0.000455675
0.000472348
0.000477999
0.000491841
0.000494585
0.0004807
0.000494566
0.000480707
0.000477974
0.000477944
0.000494616
0.000494617
0.000477943
0.000477944
0.000494616
0.000494617
0.000477943
0.000472298
0.000469565
0.000458439
0.000455706
0.000469573
0.000472316
0.000455731
0.000472298
0.000469566
0.000458439
0.000455706
0.000469573
0.000472316
0.000455732
0.000472348
0.000455675
0.000472347
0.000455676
0.000472348
0.000455676
0.000472347
0.000455676
0.000494618
0.000477942
0.000494618
0.000477942
0.00047218
0.000455671
0.000455671
0.000472352
0.000472352
0.000455675
0.000472349
0.000455675
0.000472349
0.000450081
0.000433408
0.000450081
0.000433407
0.000450084
0.000450084
0.000433556
0.000433405
0.000433404
0.000411141
0.000427814
0.000411139
0.000427814
0.000427644
0.000411137
0.000411136
0.000427817
0.000427817
0.000433409
0.000450081
0.000450081
0.000433408
0.000433464
0.000450049
0.000447305
0.000436164
0.000450031
0.000433439
0.000436171
0.000433464
0.000450049
0.000447305
0.000436165
0.000450031
0.000433439
0.000436172
0.000427814
0.000411142
0.000427812
0.000411142
0.000427815
0.000411145
0.000427813
0.000411142
0.000427763
0.000425031
0.000411172
0.000413903
0.000427781
0.000425038
0.000411197
0.000427763
0.000425031
0.000411174
0.000413904
0.000427782
0.000425038
0.000411197
0.000450085
0.000450085
0.000433557
0.000433404
0.000433404
0.000450083
0.000433407
0.000411145
0.000427814
0.000427645
0.000411142
0.000411142
0.000427817
0.000427817
0.000411145
0.000427815
0.000433463
0.000450048
0.000447305
0.000436163
0.00045003
0.000433438
0.000436171
0.000433407
0.000450079
0.000450081
0.000433408
0.000433463
0.000447305
0.000450048
0.000436163
0.00045003
0.000436171
0.000433438
0.000427813
0.00041114
0.000427812
0.00041114
0.000427762
0.00042503
0.000411171
0.000413903
0.00042778
0.000425037
0.000411195
0.000427813
0.000411139
0.000427812
0.00041114
0.000427762
0.000425029
0.000413903
0.00041117
0.000425037
0.00042778
0.000411195
0.000433409
0.000450081
0.000450082
0.000433408
0.000433464
0.000447305
0.000450049
0.000436164
0.000450031
0.000436172
0.000433439
0.000433409
0.00045008
0.000450082
0.000433409
0.000427763
0.000425031
0.000411174
0.000413904
0.000427782
0.000425038
0.000411197
0.000427815
0.000411146
0.000427813
0.000411142
0.000427763
0.000425031
0.000413904
0.000411172
0.000425038
0.000427781
0.000411197
0.000427815
0.000411142
0.000427813
0.000411142
0.000450084
0.000450084
0.000433555
0.000433404
0.000433404
0.000450081
0.000433407
0.000411138
0.000427814
0.000427644
0.000411135
0.000411135
0.000427817
0.000427817
0.000411139
0.000427814
0.000433464
0.000447305
0.000450049
0.000436164
0.00045003
0.000436171
0.000433439
0.000433409
0.00045008
0.000450081
0.000433408
0.000433409
0.00045008
0.000450081
0.000433408
0.000427762
0.00042503
0.000413903
0.00041117
0.000425037
0.000427781
0.000411196
0.000427762
0.000425031
0.000413903
0.000411172
0.000425038
0.000427781
0.000411196
0.000427814
0.00041114
0.000427813
0.000411141
0.000427814
0.000411142
0.000427812
0.000411141
0.000450081
0.000433408
0.000450081
0.000433408
0.000427645
0.000411137
0.000411137
0.000427817
0.000427817
0.000411141
0.000427814
0.000411141
0.000427814
0.00040555
0.000388874
0.000405546
0.000388875
0.000405552
0.000405549
0.000389018
0.000388872
0.000388872
0.000366592
0.000383276
0.000366594
0.00038328
0.000383104
0.00036659
0.000366593
0.000383282
0.000383284
0.000388875
0.00040555
0.000405547
0.000388871
0.000388927
0.000405515
0.000402768
0.000391625
0.000405496
0.000388904
0.000391633
0.000388926
0.000405517
0.000402768
0.000391626
0.000405496
0.000388903
0.000391632
0.000383279
0.000366593
0.000383276
0.000366597
0.000383279
0.000366592
0.000383272
0.000366597
0.000383223
0.000380489
0.000366626
0.000369358
0.000383245
0.000380496
0.000366648
0.000383223
0.000380489
0.000366624
0.000369358
0.000383243
0.000380496
0.000366648
0.000405555
0.000405555
0.000389016
0.000388869
0.000388869
0.000405552
0.000388869
0.000366591
0.000383272
0.000383102
0.000366589
0.000366589
0.000383278
0.000383278
0.00036659
0.000383272
0.000388927
0.000405514
0.000402768
0.000391625
0.000405494
0.000388904
0.000391633
0.000388873
0.000405544
0.000405546
0.000388875
0.000388927
0.000402768
0.000405513
0.000391625
0.000405494
0.000391633
0.000388904
0.000383279
0.000366596
0.000383277
0.000366602
0.000383225
0.00038049
0.000366628
0.000369359
0.000383245
0.000380496
0.000366652
0.000383279
0.000366598
0.000383278
0.000366602
0.000383225
0.00038049
0.00036936
0.00036663
0.000380497
0.000383246
0.000366652
0.000388875
0.00040555
0.000405548
0.000388871
0.000388927
0.000402768
0.000405515
0.000391625
0.000405496
0.000391633
0.000388904
0.000388875
0.000405548
0.000405548
0.000388874
0.000383223
0.000380489
0.000366624
0.000369358
0.000383243
0.000380496
0.000366648
0.000383279
0.000366592
0.000383272
0.000366597
0.000383223
0.000380489
0.000369358
0.000366625
0.000380496
0.000383244
0.000366648
0.000383279
0.000366593
0.000383275
0.000366597
0.000405547
0.000405548
0.000389018
0.000388872
0.000388872
0.000405546
0.000388875
0.000366596
0.000383281
0.000383105
0.000366595
0.000366593
0.000383284
0.000383284
0.000366594
0.00038328
0.000388927
0.000402768
0.000405515
0.000391626
0.000405495
0.000391633
0.000388904
0.000388876
0.000405545
0.000405547
0.000388875
0.000388876
0.000405548
0.000405547
0.000388874
0.000383224
0.000380489
0.000369359
0.000366628
0.000380497
0.000383245
0.000366649
0.000383224
0.00038049
0.000369358
0.000366626
0.000380496
0.000383245
0.000366649
0.00038328
0.000366597
0.000383278
0.000366598
0.00038328
0.000366593
0.000383276
0.000366598
0.00040555
0.000388873
0.00040555
0.000388874
0.000383104
0.00036659
0.00036659
0.000383282
0.000383282
0.000366591
0.000383276
0.000366591
0.000383276
0.000360995
0.000344317
0.000360997
0.000344316
0.000361
0.000361002
0.000344465
0.000344313
0.000344314
0.000322044
0.000338722
0.000322044
0.000338722
0.000338552
0.000322041
0.000322041
0.000338725
0.000338725
0.000344318
0.000360995
0.000360999
0.000344318
0.000344373
0.000360965
0.00035822
0.000347075
0.000360944
0.000344348
0.000347082
0.000344373
0.000360964
0.00035822
0.000347074
0.000360944
0.000344348
0.000347082
0.000338722
0.000322045
0.000338721
0.000322046
0.000338722
0.000322045
0.000338721
0.000322046
0.000338671
0.000335938
0.000322076
0.000324809
0.000338689
0.000335945
0.000322101
0.000338671
0.000335938
0.000322076
0.000324809
0.000338689
0.000335946
0.000322101
0.000360999
0.000360999
0.000344465
0.000344314
0.000344314
0.000360996
0.000344317
0.000322045
0.000338722
0.000338552
0.000322042
0.000322042
0.000338725
0.000338725
0.000322044
0.000338722
0.000344373
0.000360967
0.000358221
0.000347075
0.000360947
0.00034435
0.000347083
0.00034432
0.000360998
0.000361004
0.000344318
0.000344373
0.000358221
0.000360969
0.000347076
0.000360947
0.000347083
0.00034435
0.000338723
0.000322045
0.000338721
0.000322045
0.00033867
0.000335938
0.000322075
0.000324809
0.00033869
0.000335946
0.0003221
0.000338723
0.000322045
0.00033872
0.000322045
0.00033867
0.000335938
0.000324809
0.000322075
0.000335946
0.00033869
0.0003221
0.000344318
0.000360995
0.000360998
0.000344318
0.000344373
0.00035822
0.000360965
0.000347075
0.000360944
0.000347082
0.000344348
0.000344318
0.000360995
0.000360998
0.000344317
0.00033867
0.000335938
0.000322076
0.000324809
0.000338689
0.000335946
0.000322101
0.000338722
0.000322046
0.000338721
0.000322046
0.00033867
0.000335938
0.000324809
0.000322076
0.000335946
0.000338689
0.000322101
0.000338722
0.000322045
0.000338721
0.000322046
0.000361004
0.000361003
0.000344465
0.000344314
0.000344314
0.000360997
0.000344316
0.000322043
0.000338722
0.000338552
0.00032204
0.000322041
0.000338725
0.000338725
0.000322044
0.000338721
0.000344373
0.00035822
0.000360965
0.000347075
0.000360945
0.000347082
0.000344348
0.000344319
0.000360998
0.000361
0.000344317
0.000344319
0.000360995
0.000360999
0.000344318
0.00033867
0.000335938
0.000324809
0.000322075
0.000335946
0.00033869
0.000322101
0.00033867
0.000335938
0.000324809
0.000322076
0.000335946
0.000338689
0.000322101
0.000338722
0.000322045
0.00033872
0.000322046
0.000338722
0.000322045
0.000338721
0.000322046
0.000360995
0.000344316
0.000360995
0.000344317
0.000338552
0.000322041
0.000322041
0.000338725
0.000338725
0.000322044
0.000338721
0.000322044
0.000338722
0.00031645
0.000299772
0.000316449
0.000299772
0.000316453
0.000316453
0.000299921
0.000299769
0.000299769
0.000277501
0.000294178
0.000277501
0.000294178
0.000294008
0.000277498
0.000277498
0.000294181
0.000294181
0.000299774
0.000316449
0.00031645
0.000299774
0.000299829
0.000316417
0.000313673
0.00030253
0.000316399
0.000299804
0.000302537
0.000299829
0.000316417
0.000313673
0.00030253
0.000316399
0.000299804
0.000302537
0.000294178
0.000277502
0.000294177
0.000277502
0.000294178
0.000277502
0.000294177
0.000277502
0.000294127
0.000291394
0.000277532
0.000280265
0.000294145
0.000291401
0.000277557
0.000294127
0.000291394
0.000277532
0.000280265
0.000294146
0.000291401
0.000277557
0.000316453
0.000316453
0.000299921
0.00029977
0.00029977
0.00031645
0.000299772
0.000277501
0.000294178
0.000294008
0.000277498
0.000277498
0.000294182
0.000294181
0.000277501
0.000294178
0.000299828
0.000316417
0.000313673
0.000302529
0.000316398
0.000299804
0.000302537
0.000299773
0.000316448
0.000316449
0.000299773
0.000299828
0.000313673
0.000316416
0.000302529
0.000316398
0.000302537
0.000299804
0.000294178
0.000277502
0.000294177
0.000277502
0.000294126
0.000291394
0.000277532
0.000280265
0.000294145
0.000291401
0.000277557
0.000294178
0.000277501
0.000294176
0.000277502
0.000294126
0.000291394
0.000280265
0.000277532
0.000291401
0.000294145
0.000277557
0.000299774
0.000316449
0.00031645
0.000299774
0.000299829
0.000313673
0.000316417
0.00030253
0.000316399
0.000302537
0.000299804
0.000299774
0.000316449
0.00031645
0.000299773
0.000294127
0.000291394
0.000277532
0.000280265
0.000294145
0.000291401
0.000277557
0.000294178
0.000277502
0.000294177
0.000277502
0.000294127
0.000291394
0.000280265
0.000277532
0.000291401
0.000294145
0.000277557
0.000294178
0.000277502
0.000294177
0.000277502
0.000316452
0.000316453
0.00029992
0.000299769
0.000299769
0.000316449
0.000299772
0.0002775
0.000294178
0.000294008
0.000277498
0.000277498
0.000294181
0.000294181
0.000277501
0.000294178
0.000299829
0.000313673
0.000316417
0.00030253
0.000316398
0.000302537
0.000299804
0.000299774
0.000316448
0.00031645
0.000299773
0.000299774
0.000316449
0.00031645
0.000299773
0.000294126
0.000291394
0.000280265
0.000277532
0.000291401
0.000294145
0.000277557
0.000294126
0.000291394
0.000280265
0.000277532
0.000291401
0.000294145
0.000277557
0.000294178
0.000277501
0.000294177
0.000277502
0.000294178
0.000277502
0.000294177
0.000277502
0.00031645
0.000299773
0.00031645
0.000299773
0.000294008
0.000277498
0.000277498
0.000294181
0.000294181
0.000277501
0.000294178
0.000277501
0.000294178
0.000271906
0.000255229
0.000271906
0.000255229
0.00027191
0.00027191
0.000255377
0.000255226
0.000255226
0.000232957
0.000249634
0.000232957
0.000249634
0.000249465
0.000232954
0.000232954
0.000249638
0.000249638
0.000255231
0.000271905
0.000271907
0.00025523
0.000255285
0.000271874
0.00026913
0.000257986
0.000271855
0.000255261
0.000257994
0.000255285
0.000271874
0.00026913
0.000257986
0.000271855
0.000255261
0.000257994
0.000249635
0.000232958
0.000249633
0.000232959
0.000249635
0.000232958
0.000249633
0.000232959
0.000249583
0.000246851
0.000232989
0.000235722
0.000249602
0.000246858
0.000233014
0.000249583
0.000246851
0.000232989
0.000235722
0.000249602
0.000246858
0.000233014
0.00027191
0.00027191
0.000255378
0.000255226
0.000255227
0.000271907
0.000255229
0.000232957
0.000249634
0.000249465
0.000232954
0.000232955
0.000249638
0.000249638
0.000232957
0.000249635
0.000255285
0.000271873
0.000269129
0.000257986
0.000271855
0.000255261
0.000257993
0.00025523
0.000271905
0.000271906
0.00025523
0.000255285
0.000269129
0.000271873
0.000257986
0.000271855
0.000257993
0.000255261
0.000249635
0.000232958
0.000249633
0.000232959
0.000249583
0.000246851
0.000232989
0.000235722
0.000249602
0.000246858
0.000233014
0.000249635
0.000232958
0.000249633
0.000232959
0.000249583
0.000246851
0.000235722
0.000232989
0.000246858
0.000249602
0.000233013
0.000255231
0.000271905
0.000271907
0.00025523
0.000255285
0.00026913
0.000271874
0.000257986
0.000271855
0.000257994
0.000255261
0.000255231
0.000271905
0.000271906
0.00025523
0.000249583
0.000246851
0.00023299
0.000235722
0.000249602
0.000246858
0.000233014
0.000249635
0.000232958
0.000249633
0.000232959
0.000249583
0.000246851
0.000235722
0.000232989
0.000246858
0.000249602
0.000233014
0.000249635
0.000232958
0.000249633
0.000232959
0.000271909
0.00027191
0.000255377
0.000255226
0.000255226
0.000271906
0.000255229
0.000232957
0.000249635
0.000249465
0.000232954
0.000232954
0.000249638
0.000249638
0.000232957
0.000249634
0.000255285
0.000269129
0.000271874
0.000257986
0.000271855
0.000257993
0.000255261
0.00025523
0.000271905
0.000271906
0.00025523
0.000255231
0.000271905
0.000271906
0.00025523
0.000249583
0.000246851
0.000235722
0.000232989
0.000246858
0.000249602
0.000233014
0.000249583
0.000246851
0.000235722
0.000232989
0.000246858
0.000249602
0.000233014
0.000249634
0.000232958
0.000249633
0.000232959
0.000249634
0.000232958
0.000249633
0.000232959
0.000271906
0.000255229
0.000271906
0.000255229
0.000249465
0.000232954
0.000232954
0.000249638
0.000249638
0.000232957
0.000249634
0.000232957
0.000249634
0.000227362
0.000210682
0.000227362
0.000210682
0.000227365
0.000227365
0.000210834
0.000210681
0.000210681
0.000188398
0.00020509
0.000188398
0.00020509
0.000204918
0.000188406
0.000188406
0.00020509
0.00020509
0.000210687
0.000227361
0.000227361
0.000210683
0.000210741
0.000227329
0.000224587
0.000213444
0.00022731
0.000210719
0.000213449
0.000210741
0.000227328
0.000224587
0.000213444
0.00022731
0.000210719
0.000213449
0.000205085
0.000188406
0.000205087
0.000188413
0.000205085
0.000188406
0.000205087
0.000188413
0.000205034
0.000202308
0.000188457
0.000191173
0.000205049
0.000202314
0.000188469
0.000205034
0.000202308
0.000188457
0.000191173
0.000205049
0.000202314
0.000188469
0.000227365
0.000227365
0.000210834
0.000210681
0.000210681
0.000227362
0.000210682
0.000188398
0.00020509
0.000204918
0.000188406
0.000188406
0.00020509
0.00020509
0.000188398
0.00020509
0.000210741
0.000227328
0.000224587
0.000213444
0.00022731
0.000210719
0.000213449
0.000210686
0.00022736
0.000227361
0.000210683
0.000210741
0.000224587
0.000227328
0.000213444
0.00022731
0.000213449
0.000210719
0.000205085
0.000188406
0.000205087
0.000188413
0.000205034
0.000202308
0.000188457
0.000191173
0.000205049
0.000202314
0.000188469
0.000205085
0.000188406
0.000205087
0.000188413
0.000205034
0.000202308
0.000191173
0.000188457
0.000202314
0.000205049
0.000188469
0.000210687
0.000227361
0.000227362
0.000210684
0.000210741
0.000224587
0.000227329
0.000213444
0.00022731
0.000213449
0.000210719
0.000210687
0.000227361
0.000227361
0.000210684
0.000205034
0.000202308