/*--------------------------------*- C++ -*----------------------------------*\
| =========                 |                                                 |
| \\      /  F ield         | OpenFOAM: The Open Source CFD Toolbox           |
|  \\    /   O peration     | Version:  2206                                  |
|   \\  /    A nd           | Website:  www.openfoam.com                      |
|    \\/     M anipulation  |                                                 |
\*---------------------------------------------------------------------------*/
FoamFile
{
    version     2.0;
    format      ascii;
    arch        "LSB;label=32;scalar=64";
    class       volVectorField;
    location    "27";
    object      U;
}
// * * * * * * * * * * * * * * * * * * * * * * * * * * * * * * * * * * * * * //

dimensions      [0 1 -1 0 0 0 0];

internalField   nonuniform List<vector> 
28448
(
(-7.19359e-07 -7.18453e-07 0.10304)
(-4.87576e-07 7.39269e-07 0.102979)
(7.3782e-07 -4.79406e-07 0.102979)
(-4.40077e-05 -4.40158e-05 0.102892)
(-7.27076e-07 -7.22396e-07 0.10304)
(-4.76715e-07 7.35295e-07 0.102979)
(7.33797e-07 -4.70992e-07 0.102979)
(-4.39979e-05 -4.40059e-05 0.102892)
(-7.32676e-07 -7.28232e-07 0.10304)
(-4.70618e-07 7.33567e-07 0.102979)
(7.34429e-07 -4.62836e-07 0.102979)
(-4.39883e-05 -4.39939e-05 0.102892)
(-7.42784e-07 -7.44456e-07 0.10304)
(-4.60142e-07 7.19338e-07 0.102979)
(7.4292e-07 -4.6975e-07 0.102979)
(-4.39658e-05 -4.39719e-05 0.102892)
(-7.57787e-07 -7.76832e-07 0.10304)
(-4.10215e-07 6.62993e-07 0.102979)
(7.2171e-07 -4.34328e-07 0.102978)
(-4.39321e-05 -4.39375e-05 0.102891)
(-6.24731e-07 -6.17923e-07 0.10304)
(-6.20514e-07 8.29063e-07 0.102979)
(7.90264e-07 -5.83683e-07 0.102979)
(-4.41722e-05 -4.41762e-05 0.102891)
(-7.26691e-07 -7.14839e-07 0.10304)
(-4.67584e-07 7.2551e-07 0.102979)
(7.20096e-07 -4.60186e-07 0.102979)
(-4.40039e-05 -4.40013e-05 0.102892)
(-7.27152e-07 -7.27201e-07 0.10304)
(-4.79023e-07 7.28171e-07 0.102979)
(7.32465e-07 -4.75948e-07 0.102979)
(-4.40188e-05 -4.40267e-05 0.102892)
(-7.21569e-07 -7.22038e-07 0.10304)
(-4.8507e-07 7.33968e-07 0.102979)
(7.35647e-07 -4.80147e-07 0.102979)
(-4.40221e-05 -4.4031e-05 0.102892)
(-7.20774e-07 -7.21165e-07 0.10304)
(-4.85676e-07 7.34896e-07 0.102979)
(7.36313e-07 -4.80411e-07 0.102979)
(-4.40231e-05 -4.40314e-05 0.102892)
(-7.20143e-07 -7.20849e-07 0.10304)
(-4.85871e-07 7.35219e-07 0.102979)
(7.37136e-07 -4.81198e-07 0.102979)
(-4.40235e-05 -4.40318e-05 0.102892)
(-7.19713e-07 -7.20289e-07 0.10304)
(-4.86182e-07 7.35538e-07 0.102979)
(7.37346e-07 -4.81227e-07 0.102979)
(-4.4024e-05 -4.40321e-05 0.102892)
(-7.20018e-07 -7.20375e-07 0.10304)
(-4.86226e-07 7.35639e-07 0.102979)
(7.36957e-07 -4.80524e-07 0.102979)
(-4.40231e-05 -4.40309e-05 0.102892)
(-7.2049e-07 -7.207e-07 0.10304)
(-4.85729e-07 7.35132e-07 0.102979)
(7.36589e-07 -4.80497e-07 0.102979)
(-4.40244e-05 -4.40323e-05 0.102892)
(-7.20579e-07 -7.20977e-07 0.10304)
(-4.85101e-07 7.34821e-07 0.102979)
(7.36659e-07 -4.80257e-07 0.102979)
(-4.40229e-05 -4.40308e-05 0.102892)
(-7.20887e-07 -7.2094e-07 0.10304)
(-4.85178e-07 7.34909e-07 0.102979)
(7.35862e-07 -4.7963e-07 0.102979)
(-4.40214e-05 -4.40294e-05 0.102892)
(-7.207e-07 -7.20629e-07 0.10304)
(-4.85221e-07 7.34708e-07 0.102979)
(7.35897e-07 -4.80151e-07 0.102979)
(-4.40181e-05 -4.40263e-05 0.102892)
(-7.19092e-07 -7.20431e-07 0.10304)
(7.36239e-07 -4.80824e-07 0.102979)
(-4.60263e-05 -4.5998e-05 0.102896)
(7.61195e-07 5.01612e-07 0.102979)
(-7.64203e-07 5.16894e-07 0.102979)
(4.60305e-05 -4.60034e-05 0.102896)
(4.87448e-07 7.4292e-07 0.102979)
(5.10051e-07 -7.64e-07 0.102979)
(-4.8791e-07 7.37582e-07 0.102979)
(-5.16334e-07 -7.54416e-07 0.102979)
(-4.59991e-05 4.6033e-05 0.102896)
(7.40203e-07 -4.83044e-07 0.102979)
(-7.37817e-07 -4.99283e-07 0.102979)
(4.59976e-05 4.60237e-05 0.102896)
(4.40116e-05 4.39984e-05 0.102892)
(-4.60313e-05 -4.60012e-05 0.102896)
(7.62584e-07 5.09263e-07 0.102979)
(-7.65234e-07 5.19281e-07 0.102979)
(7.56039e-07 4.9363e-07 0.102979)
(-7.59699e-07 5.08922e-07 0.102979)
(-4.40064e-05 4.39803e-05 0.102892)
(4.6034e-05 -4.60062e-05 0.102896)
(4.90504e-07 7.46127e-07 0.102979)
(5.05058e-07 -7.61369e-07 0.102979)
(4.77618e-07 7.39593e-07 0.102979)
(5.01007e-07 -7.55808e-07 0.102979)
(-5.11738e-07 -7.5139e-07 0.102979)
(-4.77408e-07 7.36087e-07 0.102979)
(-5.04878e-07 -7.45861e-07 0.102979)
(4.39916e-05 -4.4025e-05 0.102892)
(-4.60038e-05 4.60416e-05 0.102896)
(-7.34621e-07 -4.93942e-07 0.102979)
(7.33791e-07 -4.70951e-07 0.102979)
(-7.30727e-07 -4.88613e-07 0.102979)
(4.60046e-05 4.60311e-05 0.102896)
(4.40022e-05 4.39907e-05 0.102892)
(-4.60446e-05 -4.60156e-05 0.102896)
(7.55697e-07 5.00848e-07 0.102979)
(-7.59178e-07 5.10279e-07 0.102979)
(7.46376e-07 4.76662e-07 0.102979)
(-7.49985e-07 4.92737e-07 0.102979)
(-4.39986e-05 4.39725e-05 0.102892)
(4.60488e-05 -4.60191e-05 0.102896)
(4.79347e-07 7.40922e-07 0.102979)
(4.98831e-07 -7.55759e-07 0.102979)
(4.61925e-07 7.30927e-07 0.102979)
(4.90639e-07 -7.52814e-07 0.102979)
(-5.04036e-07 -7.45168e-07 0.102979)
(-4.64118e-07 7.28013e-07 0.102979)
(-4.97888e-07 -7.42791e-07 0.102979)
(4.39838e-05 -4.40141e-05 0.102892)
(-4.60169e-05 4.60519e-05 0.102896)
(-7.30257e-07 -4.86267e-07 0.102979)
(7.31518e-07 -4.63359e-07 0.102979)
(-7.29352e-07 -4.78545e-07 0.102979)
(4.60151e-05 4.60442e-05 0.102896)
(4.39908e-05 4.3978e-05 0.102892)
(-4.60659e-05 -4.6037e-05 0.102896)
(7.52363e-07 4.89548e-07 0.102979)
(-7.56895e-07 4.99828e-07 0.102979)
(7.26551e-07 4.4533e-07 0.102979)
(-7.3081e-07 4.59252e-07 0.102979)
(-4.39873e-05 4.39609e-05 0.102892)
(4.60695e-05 -4.6045e-05 0.102896)
(4.70455e-07 7.37862e-07 0.102979)
(4.89743e-07 -7.56043e-07 0.102979)
(4.313e-07 7.09835e-07 0.102979)
(4.68918e-07 -7.37573e-07 0.102979)
(-4.96432e-07 -7.45279e-07 0.102979)
(-4.34963e-07 7.06456e-07 0.102979)
(-4.75461e-07 -7.29256e-07 0.102979)
(4.39724e-05 -4.40045e-05 0.102892)
(-4.60508e-05 4.60867e-05 0.102896)
(-7.31543e-07 -4.76383e-07 0.102979)
(7.16192e-07 -4.42449e-07 0.102979)
(-7.15717e-07 -4.5839e-07 0.102979)
(4.60491e-05 4.60772e-05 0.102896)
(4.39694e-05 4.3956e-05 0.102892)
(-4.60879e-05 -4.60709e-05 0.102895)
(7.37805e-07 4.66855e-07 0.102979)
(-7.44279e-07 4.75694e-07 0.102979)
(7.11206e-07 4.19464e-07 0.102979)
(-7.14261e-07 4.3401e-07 0.102979)
(-4.39655e-05 4.39373e-05 0.102892)
(4.60948e-05 -4.60805e-05 0.102895)
(4.5335e-07 7.21138e-07 0.102979)
(4.92445e-07 -7.64453e-07 0.102979)
(4.0839e-07 6.84363e-07 0.102979)
(4.14575e-07 -6.96698e-07 0.102979)
(-5.02758e-07 -7.57075e-07 0.102979)
(-4.00568e-07 6.78668e-07 0.102979)
(-4.16695e-07 -6.8669e-07 0.102979)
(4.39488e-05 -4.39803e-05 0.102892)
(-4.61035e-05 4.61413e-05 0.102895)
(-7.42741e-07 -4.84032e-07 0.102979)
(6.74573e-07 -3.75743e-07 0.102979)
(-6.74126e-07 -3.93879e-07 0.102979)
(4.61031e-05 4.61337e-05 0.102895)
(4.39471e-05 4.39212e-05 0.102891)
(-4.58968e-05 -4.58871e-05 0.102895)
(6.94583e-07 3.99755e-07 0.102979)
(-7.03275e-07 4.09261e-07 0.102979)
(8.60175e-07 6.20468e-07 0.102978)
(-8.67457e-07 6.30546e-07 0.102978)
(-4.39422e-05 4.39037e-05 0.102891)
(4.58899e-05 -4.58969e-05 0.102895)
(4.00564e-07 6.62975e-07 0.102979)
(4.54805e-07 -7.49587e-07 0.102978)
(6.25133e-07 8.22813e-07 0.102979)
(6.36175e-07 -8.60699e-07 0.102979)
(-4.67038e-07 -7.42114e-07 0.102978)
(-6.32057e-07 8.13433e-07 0.102979)
(-6.52139e-07 -8.44419e-07 0.102979)
(4.39158e-05 -4.39474e-05 0.102891)
(-4.58635e-05 4.58865e-05 0.102895)
(-7.22854e-07 -4.47183e-07 0.102978)
(8.25619e-07 -6.20971e-07 0.102979)
(-8.25532e-07 -6.3591e-07 0.102979)
(4.58567e-05 4.58853e-05 0.102895)
(4.41962e-05 4.41748e-05 0.102891)
(-4.60584e-05 -4.60094e-05 0.102896)
(8.48043e-07 6.4925e-07 0.102979)
(-8.48461e-07 6.57612e-07 0.102979)
(7.44168e-07 5.25092e-07 0.102979)
(-7.42492e-07 5.41647e-07 0.102979)
(-4.41948e-05 4.41542e-05 0.102891)
(4.60692e-05 -4.60128e-05 0.102896)
(6.29051e-07 8.32922e-07 0.102979)
(6.1636e-07 -8.06433e-07 0.102979)
(4.9011e-07 7.46285e-07 0.102979)
(5.09114e-07 -7.21622e-07 0.102979)
(-6.22488e-07 -7.9516e-07 0.102979)
(-4.8173e-07 7.43978e-07 0.102979)
(-5.09476e-07 -7.15972e-07 0.102979)
(4.41541e-05 -4.41912e-05 0.102891)
(-4.60364e-05 4.60893e-05 0.102896)
(-7.86308e-07 -5.9838e-07 0.102979)
(7.19897e-07 -4.63421e-07 0.102979)
(-7.15467e-07 -4.82567e-07 0.102979)
(4.60386e-05 4.60772e-05 0.102896)
(4.40061e-05 4.40092e-05 0.102892)
(-4.60583e-05 -4.60313e-05 0.102896)
(7.36027e-07 5.04467e-07 0.102979)
(-7.36431e-07 5.16208e-07 0.102979)
(7.48755e-07 4.88641e-07 0.102979)
(-7.52583e-07 5.0474e-07 0.102979)
(-4.39967e-05 4.39915e-05 0.102892)
(4.60613e-05 -4.60364e-05 0.102896)
(4.7272e-07 7.32364e-07 0.102979)
(4.98027e-07 -7.29336e-07 0.102979)
(4.73959e-07 7.30086e-07 0.102979)
(4.98934e-07 -7.54476e-07 0.102979)
(-5.01474e-07 -7.20625e-07 0.102979)
(-4.74041e-07 7.24937e-07 0.102979)
(-5.05371e-07 -7.43728e-07 0.102979)
(4.39896e-05 -4.40089e-05 0.102892)
(-4.60274e-05 4.60603e-05 0.102896)
(-7.16112e-07 -4.73984e-07 0.102979)
(7.30527e-07 -4.71024e-07 0.102979)
(-7.28793e-07 -4.87814e-07 0.102979)
(4.60253e-05 4.60521e-05 0.102896)
(4.40174e-05 4.40023e-05 0.102892)
(-4.60497e-05 -4.60232e-05 0.102896)
(7.52559e-07 4.96634e-07 0.102979)
(-7.56884e-07 5.07112e-07 0.102979)
(7.57953e-07 4.96517e-07 0.102979)
(-7.61829e-07 5.1178e-07 0.102979)
(-4.40143e-05 4.39846e-05 0.102892)
(4.60528e-05 -4.60285e-05 0.102896)
(4.79717e-07 7.34264e-07 0.102979)
(5.00566e-07 -7.5812e-07 0.102979)
(4.83339e-07 7.37757e-07 0.102979)
(5.03388e-07 -7.61048e-07 0.102979)
(-5.07738e-07 -7.46703e-07 0.102979)
(-4.83528e-07 7.33244e-07 0.102979)
(-5.10042e-07 -7.50564e-07 0.102979)
(4.40015e-05 -4.40371e-05 0.102892)
(-4.60235e-05 4.60552e-05 0.102896)
(-7.30346e-07 -4.90134e-07 0.102979)
(7.34871e-07 -4.77948e-07 0.102979)
(-7.33545e-07 -4.94067e-07 0.102979)
(4.60211e-05 4.60465e-05 0.102896)
(4.40247e-05 4.40096e-05 0.102892)
(-4.60487e-05 -4.60215e-05 0.102896)
(7.5813e-07 5.02492e-07 0.102979)
(-7.6228e-07 5.12632e-07 0.102979)
(7.5895e-07 4.97961e-07 0.102979)
(-7.62772e-07 5.13287e-07 0.102979)
(-4.40211e-05 4.39918e-05 0.102892)
(4.60517e-05 -4.60264e-05 0.102896)
(4.85762e-07 7.39595e-07 0.102979)
(5.03743e-07 -7.61687e-07 0.102979)
(4.8441e-07 7.39318e-07 0.102979)
(5.04494e-07 -7.61439e-07 0.102979)
(-5.11065e-07 -7.50761e-07 0.102979)
(-4.84828e-07 7.35015e-07 0.102979)
(-5.11242e-07 -7.51073e-07 0.102979)
(4.40048e-05 -4.40409e-05 0.102892)
(-4.6022e-05 4.60545e-05 0.102896)
(-7.33635e-07 -4.95011e-07 0.102979)
(7.35984e-07 -4.78523e-07 0.102979)
(-7.34799e-07 -4.95093e-07 0.102979)
(4.60194e-05 4.60455e-05 0.102896)
(4.4025e-05 4.40106e-05 0.102892)
(-4.60485e-05 -4.60213e-05 0.102896)
(7.58668e-07 5.03298e-07 0.102979)
(-7.62653e-07 5.13388e-07 0.102979)
(7.59232e-07 4.98378e-07 0.102979)
(-7.62761e-07 5.13775e-07 0.102979)
(-4.40215e-05 4.39929e-05 0.102892)
(4.60519e-05 -4.60263e-05 0.102896)
(4.86325e-07 7.40591e-07 0.102979)
(5.04458e-07 -7.61755e-07 0.102979)
(4.85049e-07 7.39653e-07 0.102979)
(5.05046e-07 -7.61701e-07 0.102979)
(-5.11675e-07 -7.5082e-07 0.102979)
(-4.85007e-07 7.35305e-07 0.102979)
(-5.113e-07 -7.51362e-07 0.102979)
(4.40056e-05 -4.4041e-05 0.102892)
(-4.60216e-05 4.60542e-05 0.102896)
(-7.3442e-07 -4.95667e-07 0.102979)
(7.36595e-07 -4.79078e-07 0.102979)
(-7.35134e-07 -4.95797e-07 0.102979)
(4.60191e-05 4.60453e-05 0.102896)
(4.40255e-05 4.4011e-05 0.102892)
(-4.6048e-05 -4.60208e-05 0.102896)
(7.58988e-07 5.03713e-07 0.102979)
(-7.62662e-07 5.13974e-07 0.102979)
(7.596e-07 4.98977e-07 0.102979)
(-7.62927e-07 5.14308e-07 0.102979)
(-4.40216e-05 4.39933e-05 0.102892)
(4.60517e-05 -4.6026e-05 0.102896)
(4.87052e-07 7.40895e-07 0.102979)
(5.05267e-07 -7.62289e-07 0.102979)
(4.85568e-07 7.39991e-07 0.102979)
(5.05688e-07 -7.62158e-07 0.102979)
(-5.1185e-07 -7.51236e-07 0.102979)
(-4.85336e-07 7.35579e-07 0.102979)
(-5.11514e-07 -7.51575e-07 0.102979)
(4.40063e-05 -4.40415e-05 0.102892)
(-4.60208e-05 4.60537e-05 0.102896)
(-7.34767e-07 -4.96559e-07 0.102979)
(7.3724e-07 -4.79568e-07 0.102979)
(-7.35553e-07 -4.96198e-07 0.102979)
(4.60187e-05 4.60451e-05 0.102896)
(4.40259e-05 4.40116e-05 0.102892)
(-4.60481e-05 -4.60205e-05 0.102896)
(7.59334e-07 5.04326e-07 0.102979)
(-7.62936e-07 5.14395e-07 0.102979)
(7.59334e-07 4.9878e-07 0.102979)
(-7.6309e-07 5.14263e-07 0.102979)
(-4.4022e-05 4.39937e-05 0.102892)
(4.60508e-05 -4.6025e-05 0.102896)
(4.8737e-07 7.41342e-07 0.102979)
(5.05438e-07 -7.62321e-07 0.102979)
(4.85187e-07 7.40082e-07 0.102979)
(5.05097e-07 -7.61274e-07 0.102979)
(-5.11859e-07 -7.51124e-07 0.102979)
(-4.85329e-07 7.35826e-07 0.102979)
(-5.11409e-07 -7.50937e-07 0.102979)
(4.40068e-05 -4.40419e-05 0.102892)
(-4.60216e-05 4.60547e-05 0.102896)
(-7.3505e-07 -4.96443e-07 0.102979)
(7.36622e-07 -4.78616e-07 0.102979)
(-7.35551e-07 -4.95405e-07 0.102979)
(4.60187e-05 4.60454e-05 0.102896)
(4.4025e-05 4.40107e-05 0.102892)
(-4.6049e-05 -4.60218e-05 0.102896)
(7.5905e-07 5.0404e-07 0.102979)
(-7.6298e-07 5.14251e-07 0.102979)
(7.58946e-07 4.98339e-07 0.102979)
(-7.62868e-07 5.13985e-07 0.102979)
(-4.4021e-05 4.39928e-05 0.102892)
(4.60522e-05 -4.60266e-05 0.102896)
(4.86977e-07 7.41182e-07 0.102979)
(5.05079e-07 -7.61647e-07 0.102979)
(4.84909e-07 7.3973e-07 0.102979)
(5.05171e-07 -7.61281e-07 0.102979)
(-5.12079e-07 -7.50871e-07 0.102979)
(-4.85193e-07 7.35544e-07 0.102979)
(-5.11446e-07 -7.50954e-07 0.102979)
(4.40059e-05 -4.40407e-05 0.102892)
(-4.60214e-05 4.60546e-05 0.102896)
(-7.35291e-07 -4.95975e-07 0.102979)
(7.36522e-07 -4.78561e-07 0.102979)
(-7.35588e-07 -4.95293e-07 0.102979)
(4.60194e-05 4.60461e-05 0.102896)
(4.40259e-05 4.40116e-05 0.102892)
(-4.6048e-05 -4.6021e-05 0.102896)
(7.58668e-07 5.03723e-07 0.102979)
(-7.62501e-07 5.13785e-07 0.102979)
(7.59116e-07 4.98216e-07 0.102979)
(-7.62395e-07 5.1348e-07 0.102979)
(-4.40213e-05 4.3993e-05 0.102892)
(4.60523e-05 -4.60267e-05 0.102896)
(4.86516e-07 7.40812e-07 0.102979)
(5.04709e-07 -7.61536e-07 0.102979)
(4.84806e-07 7.39584e-07 0.102979)
(5.04911e-07 -7.6125e-07 0.102979)
(-5.11923e-07 -7.50804e-07 0.102979)
(-4.84458e-07 7.35086e-07 0.102979)
(-5.10782e-07 -7.50557e-07 0.102979)
(4.40066e-05 -4.40413e-05 0.102892)
(-4.60204e-05 4.60535e-05 0.102896)
(-7.35076e-07 -4.9603e-07 0.102979)
(7.3657e-07 -4.78511e-07 0.102979)
(-7.35003e-07 -4.9488e-07 0.102979)
(4.60191e-05 4.60457e-05 0.102896)
(4.4025e-05 4.40108e-05 0.102892)
(-4.60478e-05 -4.60205e-05 0.102896)
(7.58742e-07 5.03542e-07 0.102979)
(-7.62137e-07 5.1344e-07 0.102979)
(7.58664e-07 4.97637e-07 0.102979)
(-7.62717e-07 5.13589e-07 0.102979)
(-4.40206e-05 4.39923e-05 0.102892)
(4.60505e-05 -4.60248e-05 0.102896)
(4.86362e-07 7.40847e-07 0.102979)
(5.04676e-07 -7.61559e-07 0.102979)
(4.8454e-07 7.39499e-07 0.102979)
(5.04714e-07 -7.60984e-07 0.102979)
(-5.11082e-07 -7.50186e-07 0.102979)
(-4.84524e-07 7.35456e-07 0.102979)
(-5.10072e-07 -7.50185e-07 0.102979)
(4.40052e-05 -4.40401e-05 0.102892)
(-4.60211e-05 4.60542e-05 0.102896)
(-7.34457e-07 -4.95262e-07 0.102979)
(7.36066e-07 -4.78124e-07 0.102979)
(-7.34548e-07 -4.94205e-07 0.102979)
(4.60186e-05 4.6045e-05 0.102896)
(4.40236e-05 4.40092e-05 0.102892)
(-4.60455e-05 -4.60184e-05 0.102896)
(7.58597e-07 5.03482e-07 0.102979)
(-7.62295e-07 5.13383e-07 0.102979)
(7.58667e-07 4.97614e-07 0.102979)
(-7.62465e-07 5.13197e-07 0.102979)
(-4.40194e-05 4.39912e-05 0.102892)
(4.60472e-05 -4.60215e-05 0.102896)
(4.85842e-07 7.40469e-07 0.102979)
(5.03789e-07 -7.60992e-07 0.102979)
(4.84856e-07 7.39292e-07 0.102979)
(5.0482e-07 -7.61055e-07 0.102979)
(-5.11377e-07 -7.50498e-07 0.102979)
(-4.84211e-07 7.35162e-07 0.102979)
(-5.10324e-07 -7.5043e-07 0.102979)
(4.40042e-05 -4.40393e-05 0.102892)
(-4.60191e-05 4.60521e-05 0.102896)
(-7.34537e-07 -4.95526e-07 0.102979)
(7.36175e-07 -4.78037e-07 0.102979)
(-7.34528e-07 -4.94598e-07 0.102979)
(4.60156e-05 4.60419e-05 0.102896)
(4.40209e-05 4.40067e-05 0.102892)
(-4.6038e-05 -4.60097e-05 0.102896)
(7.58438e-07 5.03395e-07 0.102979)
(-7.61994e-07 5.13466e-07 0.102979)
(7.58897e-07 4.96565e-07 0.102979)
(-4.40141e-05 4.3986e-05 0.102892)
(4.85941e-07 7.40641e-07 0.102979)
(5.04096e-07 -7.61281e-07 0.102979)
(4.84478e-07 7.39426e-07 0.102979)
(5.04216e-07 -7.60754e-07 0.102979)
(-5.11151e-07 -7.50356e-07 0.102979)
(-5.09356e-07 -7.50837e-07 0.102979)
(4.4002e-05 -4.40369e-05 0.102892)
(-4.60117e-05 4.60448e-05 0.102896)
(-7.34214e-07 -4.95463e-07 0.102979)
(7.3574e-07 -4.77432e-07 0.102979)
(-7.34505e-07 -4.94266e-07 0.102979)
(4.60041e-05 4.603e-05 0.102896)
(4.40133e-05 4.39991e-05 0.102892)
(4.85717e-07 7.41052e-07 0.102979)
(5.03417e-07 -7.61547e-07 0.102979)
(4.39932e-05 -4.40274e-05 0.102892)
(-7.20154e-07 -7.18942e-07 0.10304)
(7.23331e-07 -7.13845e-07 0.10304)
(-7.12428e-07 7.23072e-07 0.10304)
(7.24653e-07 7.07912e-07 0.10304)
(7.06982e-08 -9.51389e-06 0.100509)
(6.88088e-07 6.85978e-06 0.0929834)
(-8.27882e-08 9.19918e-06 0.100495)
(-1.12614e-06 -6.67886e-06 0.0930025)
(-1.96219e-06 2.85434e-06 0.0807467)
(1.90947e-06 -2.79829e-06 0.0807663)
(-9.58188e-06 6.82104e-08 0.100508)
(6.82519e-06 6.6279e-07 0.0929829)
(9.26925e-06 -5.64101e-08 0.100495)
(-6.64679e-06 -1.09329e-06 0.0930025)
(7.23581e-07 -7.13058e-07 0.10304)
(-7.13929e-07 7.25132e-07 0.10304)
(7.27689e-07 7.09904e-07 0.10304)
(-7.25917e-07 -7.22242e-07 0.10304)
(7.28638e-07 -7.1649e-07 0.10304)
(-7.18056e-07 7.31301e-07 0.10304)
(7.31391e-07 7.16437e-07 0.10304)
(1.54436e-05 9.30167e-08 0.102465)
(-1.50326e-05 4.27479e-06 0.100881)
(-6.16167e-07 -1.88578e-07 0.103021)
(-4.8036e-07 7.37808e-07 0.102979)
(-1.55542e-05 -9.38855e-08 0.102459)
(1.43881e-05 -4.67064e-06 0.100902)
(-6.08498e-07 -1.87489e-07 0.103021)
(2.73561e-06 -1.90647e-06 0.0807438)
(-2.69712e-06 1.86114e-06 0.080767)
(9.11318e-08 1.54362e-05 0.102465)
(-1.8933e-07 -6.08385e-07 0.103021)
(4.31018e-06 -1.50862e-05 0.100881)
(7.34332e-07 -4.71738e-07 0.102979)
(-1.04102e-07 -1.55515e-05 0.102459)
(-1.90128e-07 -6.04481e-07 0.103021)
(-4.71898e-06 1.44522e-05 0.100901)
(-4.57132e-06 -5.61161e-06 0.098098)
(-5.6034e-06 -4.56314e-06 0.0980972)
(4.60025e-05 4.60289e-05 0.102896)
(4.27391e-06 5.45361e-06 0.0981186)
(5.44763e-06 4.2674e-06 0.0981176)
(7.06832e-08 -9.52607e-06 0.100509)
(7.00526e-07 6.81496e-06 0.0929837)
(-7.54944e-08 9.18253e-06 0.100495)
(-1.13668e-06 -6.70542e-06 0.0930028)
(-1.95239e-06 2.82586e-06 0.0807468)
(1.91891e-06 -2.82429e-06 0.0807665)
(-9.60052e-06 6.73881e-08 0.100508)
(6.77675e-06 6.83701e-07 0.0929831)
(9.25391e-06 -5.90969e-08 0.100495)
(-6.67926e-06 -1.09824e-06 0.0930028)
(7.30675e-07 -7.16437e-07 0.10304)
(-7.19985e-07 7.33941e-07 0.10304)
(7.34152e-07 7.19696e-07 0.10304)
(-7.32582e-07 -7.29056e-07 0.10304)
(7.33456e-07 -7.22622e-07 0.10304)
(-7.23539e-07 7.34937e-07 0.10304)
(7.34899e-07 7.21964e-07 0.10304)
(1.54691e-05 9.05039e-08 0.102465)
(-1.5012e-05 4.253e-06 0.100881)
(-6.03841e-07 -1.88754e-07 0.103021)
(-4.71026e-07 7.34724e-07 0.102979)
(-1.55295e-05 -9.27725e-08 0.102459)
(1.44139e-05 -4.70246e-06 0.100902)
(-5.94437e-07 -1.90188e-07 0.103021)
(2.70912e-06 -1.88051e-06 0.0807439)
(-2.71955e-06 1.8859e-06 0.0807673)
(9.038e-08 1.54626e-05 0.102465)
(-1.92273e-07 -5.96165e-07 0.103021)
(4.27253e-06 -1.5062e-05 0.100881)
(7.28023e-07 -4.59503e-07 0.102979)
(-1.06768e-07 -1.55295e-05 0.102459)
(-1.93249e-07 -5.88554e-07 0.103021)
(-4.75184e-06 1.44833e-05 0.100901)
(-4.5792e-06 -5.60015e-06 0.0980981)
(-5.59057e-06 -4.57435e-06 0.0980974)
(4.60123e-05 4.60401e-05 0.102896)
(4.27043e-06 5.46055e-06 0.0981187)
(5.45325e-06 4.26479e-06 0.0981177)
(6.67989e-08 -9.56693e-06 0.100509)
(7.09087e-07 6.77884e-06 0.092984)
(-8.28025e-08 9.15998e-06 0.100495)
(-1.13805e-06 -6.74228e-06 0.0930032)
(-1.95756e-06 2.78709e-06 0.0807473)
(1.96656e-06 -2.87506e-06 0.0807673)
(-9.63819e-06 6.67292e-08 0.100508)
(6.74429e-06 6.84939e-07 0.0929835)
(9.22349e-06 -5.603e-08 0.100495)
(-6.71509e-06 -1.10613e-06 0.0930032)
(7.34785e-07 -7.21813e-07 0.10304)
(-7.27824e-07 7.41291e-07 0.10304)
(7.41049e-07 7.284e-07 0.10304)
(-7.44971e-07 -7.44299e-07 0.10304)
(7.45561e-07 -7.39632e-07 0.10304)
(-7.35928e-07 7.44333e-07 0.10304)
(7.46301e-07 7.31165e-07 0.10304)
(1.55075e-05 9.11064e-08 0.102464)
(-1.49824e-05 4.22919e-06 0.100881)
(-5.91449e-07 -1.91491e-07 0.103021)
(-4.5982e-07 7.34185e-07 0.102979)
(-1.54975e-05 -9.27583e-08 0.102458)
(1.44503e-05 -4.71627e-06 0.100901)
(-5.76144e-07 -1.93061e-07 0.103021)
(2.66e-06 -1.85834e-06 0.0807446)
(-2.74979e-06 1.86783e-06 0.0807683)
(8.88918e-08 1.5503e-05 0.102464)
(-1.96153e-07 -5.8198e-07 0.103021)
(4.26027e-06 -1.50284e-05 0.100881)
(7.21134e-07 -4.39879e-07 0.102979)
(-1.0654e-07 -1.54936e-05 0.102458)
(-1.97044e-07 -5.63547e-07 0.103021)
(-4.77104e-06 1.45128e-05 0.100901)
(-4.57791e-06 -5.59542e-06 0.0980982)
(-5.58937e-06 -4.56951e-06 0.0980974)
(4.60261e-05 4.60538e-05 0.102896)
(4.27877e-06 5.45776e-06 0.0981187)
(5.45113e-06 4.2724e-06 0.0981177)
(5.87957e-08 -9.59302e-06 0.100509)
(6.93132e-07 6.76888e-06 0.0929845)
(-7.95848e-08 9.11054e-06 0.100495)
(-1.1484e-06 -6.75476e-06 0.0930038)
(-1.90611e-06 2.77492e-06 0.0807483)
(1.92676e-06 -2.88561e-06 0.0807686)
(-9.67382e-06 6.94874e-08 0.100508)
(6.73408e-06 6.68988e-07 0.092984)
(9.18689e-06 -7.16353e-08 0.100495)
(-6.72301e-06 -1.12753e-06 0.0930037)
(7.43458e-07 -7.40332e-07 0.10304)
(-7.34564e-07 7.4279e-07 0.10304)
(7.45424e-07 7.29948e-07 0.10304)
(-7.53733e-07 -7.57341e-07 0.10304)
(7.57879e-07 -7.51861e-07 0.10304)
(-7.52854e-07 7.64627e-07 0.10304)
(7.63222e-07 7.50497e-07 0.10304)
(1.55473e-05 8.24905e-08 0.102464)
(-1.49484e-05 4.20429e-06 0.100881)
(-5.80698e-07 -2.04782e-07 0.103021)
(-4.75352e-07 7.40041e-07 0.102979)
(-1.54838e-05 -1.00877e-07 0.102458)
(1.44743e-05 -4.76061e-06 0.100901)
(-5.92658e-07 -2.01311e-07 0.103021)
(2.64011e-06 -1.82407e-06 0.0807458)
(-2.7286e-06 1.82189e-06 0.0807695)
(8.08927e-08 1.55584e-05 0.102464)
(-2.01446e-07 -5.79977e-07 0.103021)
(4.2216e-06 -1.50016e-05 0.100881)
(7.3479e-07 -4.49757e-07 0.102979)
(-1.10608e-07 -1.54809e-05 0.102458)
(-1.96469e-07 -5.73573e-07 0.103021)
(-4.78075e-06 1.45453e-05 0.100901)
(-4.55023e-06 -5.57694e-06 0.0980982)
(-5.56922e-06 -4.54117e-06 0.0980974)
(4.60214e-05 4.60508e-05 0.102896)
(4.30173e-06 5.47093e-06 0.0981188)
(5.46338e-06 4.2994e-06 0.0981178)
(5.52592e-08 -9.61513e-06 0.100509)
(6.63186e-07 6.75664e-06 0.0929852)
(-1.01019e-07 9.11706e-06 0.100495)
(-1.15774e-06 -6.74467e-06 0.0930045)
(-1.80857e-06 2.74582e-06 0.0807497)
(1.86518e-06 -2.87691e-06 0.0807704)
(-9.66382e-06 5.87889e-09 0.100508)
(6.72942e-06 6.12635e-07 0.0929847)
(9.19496e-06 -8.5856e-08 0.100495)
(-6.69053e-06 -1.18534e-06 0.0930045)
(7.55044e-07 -7.72165e-07 0.10304)
(-7.40684e-07 7.37275e-07 0.10304)
(7.49964e-07 7.25352e-07 0.10304)
(-6.43628e-07 -6.55023e-07 0.10304)
(6.40947e-07 -6.52101e-07 0.10304)
(-6.24174e-07 6.23507e-07 0.10304)
(6.33822e-07 6.15932e-07 0.10304)
(1.54916e-05 5.49923e-08 0.102464)
(-1.49176e-05 4.16953e-06 0.100881)
(-5.25974e-07 -2.28775e-07 0.103021)
(-4.88009e-07 6.99528e-07 0.102978)
(-1.54523e-05 -1.23746e-07 0.102458)
(1.44381e-05 -4.81397e-06 0.100901)
(-6.15451e-07 -2.36727e-07 0.103021)
(2.62281e-06 -1.83326e-06 0.0807474)
(-2.64211e-06 1.65129e-06 0.0807709)
(1.12364e-07 1.54675e-05 0.102464)
(-2.02937e-07 -5.35654e-07 0.103021)
(4.22043e-06 -1.49655e-05 0.100881)
(7.93922e-07 -5.34767e-07 0.102978)
(-1.1885e-07 -1.54183e-05 0.102458)
(-1.83491e-07 -6.46967e-07 0.103021)
(-4.71825e-06 1.44456e-05 0.1009)
(-4.4855e-06 -5.56714e-06 0.0980983)
(-5.56059e-06 -4.47023e-06 0.0980976)
(4.59673e-05 4.59938e-05 0.102895)
(4.25476e-06 5.37879e-06 0.098119)
(5.36474e-06 4.25671e-06 0.098118)
(2.70678e-08 -9.18172e-06 0.100508)
(7.94064e-07 7.12927e-06 0.0929856)
(-6.37632e-08 9.40349e-06 0.100495)
(-1.05994e-06 -6.20765e-06 0.093004)
(-2.05391e-06 3.01283e-06 0.0807495)
(1.94779e-06 -2.65682e-06 0.0807678)
(-9.28069e-06 1.1787e-07 0.100508)
(7.10983e-06 7.85133e-07 0.0929852)
(9.51698e-06 -1.53929e-07 0.100495)
(-6.19258e-06 -9.84364e-07 0.0930039)
(6.33296e-07 -6.13091e-07 0.10304)
(-6.30759e-07 6.48784e-07 0.10304)
(6.47302e-07 6.39043e-07 0.10304)
(-7.08726e-07 -6.89855e-07 0.10304)
(7.17448e-07 -6.84897e-07 0.10304)
(-7.13221e-07 7.42703e-07 0.10304)
(7.29481e-07 7.27575e-07 0.10304)
(1.51523e-05 1.39824e-07 0.102464)
(-1.5305e-05 4.41194e-06 0.100881)
(-7.83355e-07 -1.46935e-07 0.103021)
(-5.69117e-07 8.10775e-07 0.102979)
(-1.59744e-05 -9.80971e-08 0.102458)
(1.41143e-05 -4.41334e-06 0.100901)
(-7.29001e-07 -1.32323e-07 0.103021)
(2.88795e-06 -1.8884e-06 0.0807455)
(-2.57065e-06 1.92442e-06 0.0807678)
(9.6547e-08 1.5156e-05 0.102464)
(-1.55497e-07 -7.58434e-07 0.103021)
(4.49288e-06 -1.53761e-05 0.100881)
(7.53429e-07 -5.27683e-07 0.102979)
(-8.35511e-08 -1.59665e-05 0.102458)
(-1.67517e-07 -7.02614e-07 0.103021)
(-4.53147e-06 1.42236e-05 0.1009)
(-4.74911e-06 -5.65073e-06 0.098098)
(-5.65085e-06 -4.73761e-06 0.0980973)
(4.59768e-05 4.60135e-05 0.102896)
(4.16181e-06 5.46707e-06 0.0981183)
(5.44963e-06 4.16148e-06 0.0981173)
(5.87708e-08 -9.46658e-06 0.100509)
(7.26159e-07 7.03278e-06 0.0929837)
(-9.85845e-08 9.33073e-06 0.100495)
(-1.10833e-06 -6.59549e-06 0.0930025)
(-1.92297e-06 2.886e-06 0.080747)
(1.93631e-06 -2.78803e-06 0.0807664)
(-9.54651e-06 6.35619e-08 0.100508)
(6.97982e-06 7.19091e-07 0.0929832)
(9.37006e-06 -2.08989e-08 0.100495)
(-6.56844e-06 -1.08129e-06 0.0930025)
(7.32748e-07 -7.08817e-07 0.10304)
(-7.22088e-07 7.45653e-07 0.10304)
(7.37525e-07 7.3085e-07 0.10304)
(-7.30938e-07 -7.29072e-07 0.10304)
(7.32666e-07 -7.22991e-07 0.10304)
(-7.20278e-07 7.31113e-07 0.10304)
(7.32052e-07 7.17027e-07 0.10304)
(1.5424e-05 9.20891e-08 0.102465)
(-1.51086e-05 4.37007e-06 0.100881)
(-6.15866e-07 -1.76948e-07 0.103022)
(-4.65039e-07 7.19829e-07 0.102979)
(-1.56125e-05 -7.14957e-08 0.102459)
(1.43676e-05 -4.66236e-06 0.100902)
(-6.07181e-07 -1.8752e-07 0.103022)
(2.75176e-06 -1.85639e-06 0.0807439)
(-2.67557e-06 1.87003e-06 0.0807671)
(8.72813e-08 1.54185e-05 0.102465)
(-1.90011e-07 -6.02141e-07 0.103022)
(4.34546e-06 -1.5132e-05 0.100881)
(7.23032e-07 -4.61e-07 0.102979)
(-1.05079e-07 -1.55883e-05 0.102459)
(-1.91075e-07 -6.02435e-07 0.103021)
(-4.71453e-06 1.44379e-05 0.100901)
(-4.60037e-06 -5.58978e-06 0.0980978)
(-5.59213e-06 -4.58414e-06 0.098097)
(4.60344e-05 4.60663e-05 0.102896)
(4.25936e-06 5.45677e-06 0.0981184)
(5.44804e-06 4.25401e-06 0.0981174)
(6.24556e-08 -9.50084e-06 0.100509)
(7.13969e-07 6.87414e-06 0.0929834)
(-8.55417e-08 9.21078e-06 0.100495)
(-1.11858e-06 -6.64019e-06 0.0930024)
(-1.95439e-06 2.83948e-06 0.0807468)
(1.92228e-06 -2.80578e-06 0.0807664)
(-9.56937e-06 5.28258e-08 0.100508)
(6.84158e-06 6.85364e-07 0.0929829)
(9.28084e-06 -7.27403e-08 0.100495)
(-6.60739e-06 -1.09227e-06 0.0930024)
(7.29305e-07 -7.20926e-07 0.10304)
(-7.18073e-07 7.27567e-07 0.10304)
(7.30954e-07 7.13486e-07 0.10304)
(-7.22843e-07 -7.22686e-07 0.10304)
(7.24756e-07 -7.16968e-07 0.10304)
(-7.15336e-07 7.23872e-07 0.10304)
(7.26902e-07 7.09569e-07 0.10304)
(1.54232e-05 8.68718e-08 0.102465)
(-1.50409e-05 4.25974e-06 0.100881)
(-6.11647e-07 -1.93155e-07 0.103021)
(-4.81009e-07 7.30531e-07 0.102979)
(-1.55747e-05 -9.97988e-08 0.102459)
(1.43769e-05 -4.67938e-06 0.100902)
(-6.11641e-07 -1.92982e-07 0.103021)
(2.72072e-06 -1.88621e-06 0.0807438)
(-2.68506e-06 1.85972e-06 0.0807671)
(8.66487e-08 1.54063e-05 0.102465)
(-1.89941e-07 -6.0613e-07 0.103021)
(4.29916e-06 -1.50934e-05 0.100881)
(7.33656e-07 -4.76642e-07 0.102979)
(-1.02698e-07 -1.55612e-05 0.102459)
(-1.8981e-07 -6.10695e-07 0.103021)
(-4.71964e-06 1.44392e-05 0.100901)
(-4.58752e-06 -5.60748e-06 0.0980979)
(-5.5978e-06 -4.58157e-06 0.0980972)
(4.60228e-05 4.60485e-05 0.102896)
(4.25804e-06 5.45052e-06 0.0981185)
(5.44772e-06 4.24901e-06 0.0981175)
(6.28547e-08 -9.50027e-06 0.100509)
(7.10859e-07 6.87439e-06 0.0929834)
(-8.49927e-08 9.20969e-06 0.100495)
(-1.11987e-06 -6.63831e-06 0.0930024)
(-1.95597e-06 2.83745e-06 0.0807468)
(1.92239e-06 -2.80578e-06 0.0807664)
(-9.5691e-06 5.41509e-08 0.100508)
(6.84067e-06 6.85488e-07 0.0929829)
(9.28042e-06 -7.05432e-08 0.100495)
(-6.60635e-06 -1.09181e-06 0.0930024)
(7.23863e-07 -7.16049e-07 0.10304)
(-7.14645e-07 7.23299e-07 0.10304)
(7.275e-07 7.09001e-07 0.10304)
(-7.21521e-07 -7.21141e-07 0.10304)
(7.23495e-07 -7.15549e-07 0.10304)
(-7.14338e-07 7.23241e-07 0.10304)
(7.25807e-07 7.08884e-07 0.10304)
(1.5423e-05 8.81419e-08 0.102465)
(-1.50423e-05 4.26676e-06 0.100881)
(-6.16148e-07 -1.91205e-07 0.103021)
(-4.84782e-07 7.34592e-07 0.102979)
(-1.55766e-05 -9.75604e-08 0.102459)
(1.43767e-05 -4.67615e-06 0.100902)
(-6.1508e-07 -1.91386e-07 0.103021)
(2.7205e-06 -1.88654e-06 0.0807438)
(-2.68453e-06 1.86029e-06 0.0807671)
(8.6404e-08 1.54059e-05 0.102465)
(-1.89121e-07 -6.1006e-07 0.103021)
(4.30181e-06 -1.5096e-05 0.100881)
(7.35743e-07 -4.78627e-07 0.102979)
(-1.00795e-07 -1.55617e-05 0.102459)
(-1.89111e-07 -6.13189e-07 0.103021)
(-4.71803e-06 1.44389e-05 0.100901)
(-4.58844e-06 -5.60766e-06 0.0980979)
(-5.59737e-06 -4.58254e-06 0.0980972)
(4.60204e-05 4.60464e-05 0.102896)
(4.2574e-06 5.45126e-06 0.0981185)
(5.44841e-06 4.24918e-06 0.0981175)
(6.30717e-08 -9.50027e-06 0.100509)
(7.1086e-07 6.8749e-06 0.0929834)
(-8.47517e-08 9.21039e-06 0.100495)
(-1.11958e-06 -6.63831e-06 0.0930024)
(-1.95507e-06 2.83768e-06 0.0807468)
(1.92261e-06 -2.80577e-06 0.0807664)
(-9.56923e-06 5.46681e-08 0.100508)
(6.84096e-06 6.85644e-07 0.0929829)
(9.28075e-06 -6.99507e-08 0.100495)
(-6.60655e-06 -1.09141e-06 0.0930024)
(7.23222e-07 -7.15328e-07 0.10304)
(-7.14016e-07 7.2301e-07 0.10304)
(7.26836e-07 7.08652e-07 0.10304)
(-7.20975e-07 -7.20887e-07 0.10304)
(7.23423e-07 -7.1528e-07 0.10304)
(-7.13745e-07 7.22753e-07 0.10304)
(7.2576e-07 7.08381e-07 0.10304)
(1.54227e-05 8.87094e-08 0.102465)
(-1.50429e-05 4.26694e-06 0.100881)
(-6.16858e-07 -1.90698e-07 0.103021)
(-4.85075e-07 7.35053e-07 0.102979)
(-1.5578e-05 -9.6835e-08 0.102459)
(1.43766e-05 -4.67554e-06 0.100902)
(-6.15327e-07 -1.91055e-07 0.103021)
(2.72098e-06 -1.88565e-06 0.0807438)