/*--------------------------------*- C++ -*----------------------------------*\
| =========                 |                                                 |
| \\      /  F ield         | OpenFOAM: The Open Source CFD Toolbox           |
|  \\    /   O peration     | Version:  2206                                  |
|   \\  /    A nd           | Website:  www.openfoam.com                      |
|    \\/     M anipulation  |                                                 |
\*---------------------------------------------------------------------------*/
FoamFile
{
    version     2.0;
    format      ascii;
    arch        "LSB;label=32;scalar=64";
    class       volVectorField;
    location    "26.5";
    object      U;
}
// * * * * * * * * * * * * * * * * * * * * * * * * * * * * * * * * * * * * * //

dimensions      [0 1 -1 0 0 0 0];

internalField   nonuniform List<vector> 
28448
(
(-7.10352e-07 -7.09357e-07 0.102991)
(-4.809e-07 7.30108e-07 0.102932)
(7.27901e-07 -4.72258e-07 0.102932)
(-4.38004e-05 -4.38086e-05 0.102848)
(-7.1869e-07 -7.1361e-07 0.102991)
(-4.69168e-07 7.25732e-07 0.102932)
(7.23445e-07 -4.62699e-07 0.102932)
(-4.37904e-05 -4.37982e-05 0.102848)
(-7.25046e-07 -7.19787e-07 0.102991)
(-4.63034e-07 7.25646e-07 0.102932)
(7.21919e-07 -4.50608e-07 0.102932)
(-4.37792e-05 -4.37852e-05 0.102848)
(-7.33424e-07 -7.34531e-07 0.102991)
(-4.63741e-07 7.19282e-07 0.102932)
(7.36182e-07 -4.64101e-07 0.102932)
(-4.37655e-05 -4.37724e-05 0.102848)
(-7.44743e-07 -7.7e-07 0.10299)
(-4.28067e-07 6.61306e-07 0.102932)
(7.41523e-07 -4.66706e-07 0.102932)
(-4.37443e-05 -4.37513e-05 0.102848)
(-6.18766e-07 -6.0594e-07 0.102991)
(-5.95976e-07 8.15388e-07 0.102932)
(7.64864e-07 -5.53615e-07 0.102932)
(-4.39395e-05 -4.39405e-05 0.102848)
(-7.20914e-07 -7.11478e-07 0.102991)
(-4.60394e-07 7.12964e-07 0.102932)
(7.12696e-07 -4.55613e-07 0.102932)
(-4.3798e-05 -4.37967e-05 0.102848)
(-7.16494e-07 -7.16714e-07 0.102991)
(-4.74569e-07 7.20301e-07 0.102932)
(7.23871e-07 -4.71059e-07 0.102932)
(-4.38126e-05 -4.38208e-05 0.102848)
(-7.12149e-07 -7.12542e-07 0.102991)
(-4.79251e-07 7.24909e-07 0.102932)
(7.26432e-07 -4.74172e-07 0.102932)
(-4.3815e-05 -4.3824e-05 0.102848)
(-7.11512e-07 -7.1195e-07 0.102991)
(-4.79664e-07 7.25498e-07 0.102932)
(7.26973e-07 -4.74418e-07 0.102932)
(-4.38159e-05 -4.38242e-05 0.102848)
(-7.10835e-07 -7.116e-07 0.102991)
(-4.79865e-07 7.25807e-07 0.102932)
(7.27865e-07 -4.75269e-07 0.102932)
(-4.38162e-05 -4.38246e-05 0.102848)
(-7.10495e-07 -7.11055e-07 0.102991)
(-4.80147e-07 7.26144e-07 0.102932)
(7.27859e-07 -4.75074e-07 0.102932)
(-4.38166e-05 -4.38248e-05 0.102848)
(-7.10868e-07 -7.11242e-07 0.102991)
(-4.8022e-07 7.26175e-07 0.102932)
(7.27563e-07 -4.74489e-07 0.102932)
(-4.3816e-05 -4.38239e-05 0.102848)
(-7.11318e-07 -7.11613e-07 0.102991)
(-4.79557e-07 7.2559e-07 0.102932)
(7.27193e-07 -4.74489e-07 0.102932)
(-4.38171e-05 -4.38251e-05 0.102848)
(-7.11452e-07 -7.11846e-07 0.102991)
(-4.78988e-07 7.25394e-07 0.102932)
(7.27204e-07 -4.74073e-07 0.102932)
(-4.38154e-05 -4.38234e-05 0.102848)
(-7.11676e-07 -7.11758e-07 0.102991)
(-4.79113e-07 7.25422e-07 0.102932)
(7.26445e-07 -4.73558e-07 0.102932)
(-4.38141e-05 -4.38222e-05 0.102848)
(-7.11435e-07 -7.11423e-07 0.102991)
(-4.79274e-07 7.2525e-07 0.102932)
(7.26509e-07 -4.74218e-07 0.102932)
(-4.38106e-05 -4.38189e-05 0.102848)
(-7.09683e-07 -7.1123e-07 0.102991)
(7.26915e-07 -4.7496e-07 0.102932)
(-4.57966e-05 -4.57685e-05 0.102852)
(7.51848e-07 4.95649e-07 0.102932)
(-7.54513e-07 5.10584e-07 0.102932)
(4.58011e-05 -4.57737e-05 0.102852)
(4.81406e-07 7.33825e-07 0.102932)
(5.03475e-07 -7.5451e-07 0.102932)
(-4.81751e-07 7.2835e-07 0.102932)
(-5.09568e-07 -7.4477e-07 0.102932)
(-4.5769e-05 4.5803e-05 0.102852)
(7.31102e-07 -4.76793e-07 0.102932)
(-7.28459e-07 -4.92765e-07 0.102932)
(4.57679e-05 4.57941e-05 0.102852)
(4.38047e-05 4.37915e-05 0.102848)
(-4.58017e-05 -4.57718e-05 0.102852)
(7.52994e-07 5.02808e-07 0.102932)
(-7.55489e-07 5.12763e-07 0.102932)
(7.46576e-07 4.88159e-07 0.102932)
(-7.49992e-07 5.03057e-07 0.102932)
(-4.37995e-05 4.37736e-05 0.102848)
(4.58048e-05 -4.5777e-05 0.102852)
(4.84096e-07 7.3692e-07 0.102932)
(4.97603e-07 -7.5099e-07 0.102932)
(4.71748e-07 7.3045e-07 0.102932)
(4.94168e-07 -7.46017e-07 0.102932)
(-5.04298e-07 -7.41073e-07 0.102932)
(-4.71187e-07 7.26749e-07 0.102932)
(-4.98187e-07 -7.36028e-07 0.102932)
(4.37849e-05 -4.38179e-05 0.102848)
(-4.57749e-05 4.58123e-05 0.102852)
(-7.24601e-07 -4.86705e-07 0.102932)
(7.24509e-07 -4.64647e-07 0.102932)
(-7.21256e-07 -4.81842e-07 0.102932)
(4.57757e-05 4.58022e-05 0.102852)
(4.37947e-05 4.37833e-05 0.102848)
(-4.58151e-05 -4.57864e-05 0.102852)
(7.45915e-07 4.94319e-07 0.102932)
(-7.48991e-07 5.0378e-07 0.102932)
(7.37947e-07 4.71881e-07 0.102932)
(-7.4169e-07 4.87487e-07 0.102932)
(-4.37904e-05 4.37651e-05 0.102848)
(4.58185e-05 -4.57905e-05 0.102852)
(4.72616e-07 7.31678e-07 0.102932)
(4.8977e-07 -7.44791e-07 0.102932)
(4.57387e-07 7.22571e-07 0.102932)
(4.85918e-07 -7.45495e-07 0.102932)
(-4.9566e-07 -7.34332e-07 0.102932)
(-4.60142e-07 7.19938e-07 0.102932)
(-4.92636e-07 -7.35427e-07 0.102932)
(4.37761e-05 -4.3807e-05 0.102848)
(-4.57879e-05 4.58235e-05 0.102852)
(-7.20011e-07 -4.77435e-07 0.102932)
(7.24565e-07 -4.58641e-07 0.102932)
(-7.22109e-07 -4.7378e-07 0.102932)
(4.57868e-05 4.58156e-05 0.102852)
(4.37836e-05 4.37708e-05 0.102848)
(-4.58419e-05 -4.58136e-05 0.102852)
(7.44677e-07 4.849e-07 0.102932)
(-7.48932e-07 4.94769e-07 0.102932)
(7.17278e-07 4.40766e-07 0.102932)
(-7.2214e-07 4.54571e-07 0.102932)
(-4.37805e-05 4.3753e-05 0.102848)
(4.58457e-05 -4.58205e-05 0.102852)
(4.64654e-07 7.30122e-07 0.102932)
(4.78236e-07 -7.43251e-07 0.102932)
(4.28994e-07 7.00493e-07 0.102932)
(4.72446e-07 -7.38681e-07 0.102932)
(-4.84034e-07 -7.32652e-07 0.102932)
(-4.3542e-07 6.98419e-07 0.102932)
(-4.8036e-07 -7.30993e-07 0.102932)
(4.3764e-05 -4.37955e-05 0.102848)
(-4.58217e-05 4.58568e-05 0.102852)
(-7.1885e-07 -4.64191e-07 0.102932)
(7.17231e-07 -4.48587e-07 0.102932)
(-7.16976e-07 -4.64358e-07 0.102932)
(4.58197e-05 4.58473e-05 0.102852)
(4.37583e-05 4.37444e-05 0.102848)
(-4.58812e-05 -4.58655e-05 0.102852)
(7.38979e-07 4.72137e-07 0.102932)
(-7.45466e-07 4.80828e-07 0.102932)
(6.86859e-07 3.94316e-07 0.102932)
(-6.91486e-07 4.08938e-07 0.102932)
(-4.37546e-05 4.37284e-05 0.102848)
(4.58869e-05 -4.58713e-05 0.102852)
(4.58765e-07 7.21343e-07 0.102932)
(4.86711e-07 -7.58399e-07 0.102932)
(3.88826e-07 6.58511e-07 0.102932)
(4.1496e-07 -6.99422e-07 0.102932)
(-4.97063e-07 -7.50862e-07 0.102932)
(-3.87543e-07 6.5629e-07 0.102932)
(-4.19747e-07 -6.91038e-07 0.102932)
(4.37484e-05 -4.37801e-05 0.102848)
(-4.58766e-05 4.59136e-05 0.102852)
(-7.35945e-07 -4.78269e-07 0.102932)
(6.75496e-07 -3.82232e-07 0.102932)
(-6.75837e-07 -4.00049e-07 0.102932)
(4.58762e-05 4.59051e-05 0.102852)
(4.37254e-05 4.36977e-05 0.102848)
(-4.56509e-05 -4.56336e-05 0.102852)
(6.96819e-07 4.02428e-07 0.102932)
(-7.08047e-07 4.11191e-07 0.102932)
(8.51006e-07 6.30381e-07 0.102932)
(-8.54971e-07 6.41642e-07 0.102932)
(-4.37239e-05 4.36839e-05 0.102848)
(4.56509e-05 -4.56413e-05 0.102852)
(4.10501e-07 6.61013e-07 0.102932)
(4.79303e-07 -7.74022e-07 0.102932)
(6.26561e-07 8.22146e-07 0.102932)
(6.25369e-07 -8.29656e-07 0.102932)
(-4.96349e-07 -7.66589e-07 0.102932)
(-6.27152e-07 8.15521e-07 0.102932)
(-6.36416e-07 -8.1497e-07 0.102932)
(4.37267e-05 -4.376e-05 0.102848)
(-4.56462e-05 4.56761e-05 0.102852)
(-7.4386e-07 -4.79244e-07 0.102932)
(8.03535e-07 -6.01522e-07 0.102932)
(-8.01561e-07 -6.1671e-07 0.102932)
(4.56425e-05 4.56741e-05 0.102852)
(4.39881e-05 4.3975e-05 0.102848)
(-4.58377e-05 -4.57923e-05 0.102852)
(8.22883e-07 6.35926e-07 0.102932)
(-8.21311e-07 6.4528e-07 0.102932)
(7.30067e-07 5.05992e-07 0.102932)
(-7.29042e-07 5.22549e-07 0.102932)
(-4.39799e-05 4.39571e-05 0.102848)
(4.5847e-05 -4.57971e-05 0.102852)
(6.08212e-07 8.16178e-07 0.102932)
(5.92569e-07 -7.72186e-07 0.102932)
(4.74004e-07 7.29294e-07 0.102932)
(4.97387e-07 -7.14886e-07 0.102932)
(-5.95809e-07 -7.63556e-07 0.102932)
(-4.67746e-07 7.25222e-07 0.102932)
(-4.98659e-07 -7.08003e-07 0.102932)
(4.39253e-05 -4.39536e-05 0.102848)
(-4.58083e-05 4.58578e-05 0.102852)
(-7.59795e-07 -5.68809e-07 0.102932)
(7.1044e-07 -4.54637e-07 0.102932)
(-7.06287e-07 -4.73272e-07 0.102932)
(4.58095e-05 4.5847e-05 0.102852)
(4.37954e-05 4.37949e-05 0.102848)
(-4.5826e-05 -4.57995e-05 0.102852)
(7.26875e-07 4.92881e-07 0.102932)
(-7.2794e-07 5.0452e-07 0.102932)
(7.41521e-07 4.84093e-07 0.102932)
(-7.45298e-07 4.99831e-07 0.102932)
(-4.37871e-05 4.37765e-05 0.102848)
(4.58289e-05 -4.58045e-05 0.102852)
(4.6432e-07 7.20465e-07 0.102932)
(4.90559e-07 -7.24523e-07 0.102932)
(4.70095e-07 7.2268e-07 0.102932)
(4.93775e-07 -7.46777e-07 0.102932)
(-4.95054e-07 -7.15228e-07 0.102932)
(-4.70341e-07 7.17809e-07 0.102932)
(-5.00093e-07 -7.35831e-07 0.102932)
(4.37833e-05 -4.38054e-05 0.102848)
(-4.57965e-05 4.58289e-05 0.102852)
(-7.09084e-07 -4.69175e-07 0.102932)
(7.2254e-07 -4.66622e-07 0.102932)
(-7.20611e-07 -4.83211e-07 0.102932)
(4.57946e-05 4.5821e-05 0.102852)
(4.38127e-05 4.37974e-05 0.102848)
(-4.58197e-05 -4.57933e-05 0.102852)
(7.44323e-07 4.91813e-07 0.102932)
(-7.48503e-07 5.01977e-07 0.102932)
(7.4864e-07 4.90615e-07 0.102932)
(-7.52345e-07 5.05696e-07 0.102932)
(-4.38096e-05 4.37798e-05 0.102848)
(4.5823e-05 -4.57984e-05 0.102852)
(4.75232e-07 7.26287e-07 0.102932)
(4.94886e-07 -7.49176e-07 0.102932)
(4.77486e-07 7.28859e-07 0.102932)
(4.97254e-07 -7.51533e-07 0.102932)
(-5.02179e-07 -7.38017e-07 0.102932)
(-4.77806e-07 7.24461e-07 0.102932)
(-5.03664e-07 -7.40928e-07 0.102932)
(4.37957e-05 -4.38313e-05 0.102848)
(-4.57936e-05 4.58253e-05 0.102852)
(-7.21796e-07 -4.85278e-07 0.102932)
(7.2587e-07 -4.72032e-07 0.102932)
(-7.2425e-07 -4.87993e-07 0.102932)
(4.57915e-05 4.58169e-05 0.102852)
(4.3818e-05 4.3803e-05 0.102848)
(-4.58189e-05 -4.57919e-05 0.102852)
(7.48483e-07 4.96413e-07 0.102932)
(-7.52546e-07 5.06388e-07 0.102932)
(7.49376e-07 4.91656e-07 0.102932)
(-7.52975e-07 5.06733e-07 0.102932)
(-4.38143e-05 4.37854e-05 0.102848)
(4.58221e-05 -4.57968e-05 0.102852)
(4.79821e-07 7.30422e-07 0.102932)
(4.974e-07 -7.51814e-07 0.102932)
(4.78265e-07 7.30058e-07 0.102932)
(4.9813e-07 -7.51808e-07 0.102932)
(-5.04877e-07 -7.41146e-07 0.102932)
(-4.78748e-07 7.2572e-07 0.102932)
(-5.0458e-07 -7.41243e-07 0.102932)
(4.37982e-05 -4.38339e-05 0.102848)
(-4.57923e-05 4.58248e-05 0.102852)
(-7.24411e-07 -4.89128e-07 0.102932)
(7.26745e-07 -4.72439e-07 0.102932)
(-7.25277e-07 -4.88822e-07 0.102932)
(4.57901e-05 4.58162e-05 0.102852)
(4.38182e-05 4.38037e-05 0.102848)
(-4.58187e-05 -4.57918e-05 0.102852)
(7.48877e-07 4.97004e-07 0.102932)
(-7.52734e-07 5.06889e-07 0.102932)
(7.49681e-07 4.92081e-07 0.102932)
(-7.52984e-07 5.07265e-07 0.102932)
(-4.38145e-05 4.37861e-05 0.102848)
(4.58222e-05 -4.57967e-05 0.102852)
(4.80275e-07 7.31159e-07 0.102932)
(4.97963e-07 -7.51854e-07 0.102932)
(4.78969e-07 7.30373e-07 0.102932)
(4.9878e-07 -7.52201e-07 0.102932)
(-5.0529e-07 -7.4117e-07 0.102932)
(-4.78945e-07 7.26013e-07 0.102932)
(-5.0466e-07 -7.41594e-07 0.102932)
(4.37989e-05 -4.3834e-05 0.102848)
(-4.57918e-05 4.58244e-05 0.102852)
(-7.25072e-07 -4.89738e-07 0.102932)
(7.27451e-07 -4.73117e-07 0.102932)
(-7.2561e-07 -4.89612e-07 0.102932)
(4.57898e-05 4.58158e-05 0.102852)
(4.38187e-05 4.38041e-05 0.102848)
(-4.58183e-05 -4.57912e-05 0.102852)
(7.49203e-07 4.97415e-07 0.102932)
(-7.52753e-07 5.07485e-07 0.102932)
(7.50063e-07 4.92715e-07 0.102932)
(-7.53209e-07 5.07775e-07 0.102932)
(-4.38147e-05 4.37865e-05 0.102848)
(4.5822e-05 -4.57964e-05 0.102852)
(4.81019e-07 7.31443e-07 0.102932)
(4.9886e-07 -7.52493e-07 0.102932)
(4.79418e-07 7.30758e-07 0.102932)
(4.99233e-07 -7.52497e-07 0.102932)
(-5.055e-07 -7.41606e-07 0.102932)
(-4.79299e-07 7.26306e-07 0.102932)
(-5.04813e-07 -7.41703e-07 0.102932)
(4.37996e-05 -4.38346e-05 0.102848)
(-4.57913e-05 4.58241e-05 0.102852)
(-7.25425e-07 -4.9066e-07 0.102932)
(7.27911e-07 -4.73425e-07 0.102932)
(-7.25979e-07 -4.89829e-07 0.102932)
(4.57895e-05 4.58157e-05 0.102852)
(4.38191e-05 4.38047e-05 0.102848)
(-4.58186e-05 -4.57912e-05 0.102852)
(7.49518e-07 4.9799e-07 0.102932)
(-7.53063e-07 5.07861e-07 0.102932)
(7.49733e-07 4.92404e-07 0.102932)
(-7.53316e-07 5.07644e-07 0.102932)
(-4.38151e-05 4.37869e-05 0.102848)
(4.58214e-05 -4.57957e-05 0.102852)
(4.8123e-07 7.31912e-07 0.102932)
(4.98819e-07 -7.52314e-07 0.102932)
(4.78991e-07 7.30741e-07 0.102932)
(4.9868e-07 -7.5168e-07 0.102932)
(-5.05427e-07 -7.41343e-07 0.102932)
(-4.79275e-07 7.26494e-07 0.102932)
(-5.04805e-07 -7.41204e-07 0.102932)
(4.37999e-05 -4.38347e-05 0.102848)
(-4.57921e-05 4.58251e-05 0.102852)
(-7.25612e-07 -4.90335e-07 0.102932)
(7.27379e-07 -4.72527e-07 0.102932)
(-7.26091e-07 -4.89162e-07 0.102932)
(4.57896e-05 4.58162e-05 0.102852)
(4.38183e-05 4.38039e-05 0.102848)
(-4.5819e-05 -4.57922e-05 0.102852)
(7.49201e-07 4.97655e-07 0.102932)
(-7.53062e-07 5.0768e-07 0.102932)
(7.49317e-07 4.91935e-07 0.102932)
(-7.53003e-07 5.07307e-07 0.102932)
(-4.38141e-05 4.3786e-05 0.102848)
(4.5823e-05 -4.57974e-05 0.102852)
(4.80841e-07 7.31688e-07 0.102932)
(4.98565e-07 -7.51775e-07 0.102932)
(4.78696e-07 7.30371e-07 0.102932)
(4.98698e-07 -7.51683e-07 0.102932)
(-5.05742e-07 -7.4124e-07 0.102932)
(-4.78999e-07 7.26144e-07 0.102932)
(-5.04668e-07 -7.41125e-07 0.102932)
(4.37993e-05 -4.38338e-05 0.102848)
(-4.57915e-05 4.58246e-05 0.102852)
(-7.25932e-07 -4.89998e-07 0.102932)
(7.27239e-07 -4.72491e-07 0.102932)
(-7.25979e-07 -4.89006e-07 0.102932)
(4.579e-05 4.58166e-05 0.102852)
(4.38189e-05 4.38047e-05 0.102848)
(-4.58178e-05 -4.57911e-05 0.102852)
(7.4886e-07 4.97336e-07 0.102932)
(-7.52485e-07 5.07126e-07 0.102932)
(7.49545e-07 4.91845e-07 0.102932)
(-7.52617e-07 5.06872e-07 0.102932)
(-4.38148e-05 4.37866e-05 0.102848)
(4.58227e-05 -4.57972e-05 0.102852)
(4.8037e-07 7.31294e-07 0.102932)
(4.9813e-07 -7.51648e-07 0.102932)
(4.78608e-07 7.30244e-07 0.102932)
(4.9847e-07 -7.51624e-07 0.102932)
(-5.05437e-07 -7.41105e-07 0.102932)
(-4.78305e-07 7.25781e-07 0.102932)
(-5.0399e-07 -7.40676e-07 0.102932)
(4.37994e-05 -4.38339e-05 0.102848)
(-4.57906e-05 4.58238e-05 0.102852)
(-7.25603e-07 -4.90014e-07 0.102932)
(7.27317e-07 -4.72351e-07 0.102932)
(-7.25397e-07 -4.88499e-07 0.102932)
(4.57896e-05 4.58161e-05 0.102852)
(4.38178e-05 4.38036e-05 0.102848)
(-4.5818e-05 -4.5791e-05 0.102852)
(7.48859e-07 4.97072e-07 0.102932)
(-7.5223e-07 5.06834e-07 0.102932)
(7.49004e-07 4.91219e-07 0.102932)
(-7.52944e-07 5.06988e-07 0.102932)
(-4.38139e-05 4.37858e-05 0.102848)
(4.58209e-05 -4.57953e-05 0.102852)
(4.80197e-07 7.31365e-07 0.102932)
(4.98076e-07 -7.5162e-07 0.102932)
(4.78299e-07 7.30135e-07 0.102932)
(4.98245e-07 -7.51377e-07 0.102932)
(-5.04526e-07 -7.40436e-07 0.102932)
(-4.78471e-07 7.26116e-07 0.102932)
(-5.03404e-07 -7.40425e-07 0.102932)
(4.37978e-05 -4.38326e-05 0.102848)
(-4.57914e-05 4.58243e-05 0.102852)
(-7.24984e-07 -4.89152e-07 0.102932)
(7.26746e-07 -4.71962e-07 0.102932)
(-7.25016e-07 -4.87914e-07 0.102932)
(4.57893e-05 4.58157e-05 0.102852)
(4.38166e-05 4.38022e-05 0.102848)
(-4.58156e-05 -4.57887e-05 0.102852)
(7.48766e-07 4.97137e-07 0.102932)
(-7.52365e-07 5.06777e-07 0.102932)
(7.49029e-07 4.91152e-07 0.102932)
(-7.52709e-07 5.06597e-07 0.102932)
(-4.38124e-05 4.37843e-05 0.102848)
(4.58176e-05 -4.57919e-05 0.102852)
(4.79698e-07 7.30927e-07 0.102932)
(4.9719e-07 -7.51063e-07 0.102932)
(4.78711e-07 7.29986e-07 0.102932)
(4.98472e-07 -7.51508e-07 0.102932)
(-5.0508e-07 -7.40899e-07 0.102932)
(-4.78107e-07 7.25906e-07 0.102932)
(-5.035e-07 -7.40549e-07 0.102932)
(4.37972e-05 -4.38321e-05 0.102848)
(-4.57894e-05 4.58223e-05 0.102852)
(-7.25189e-07 -4.89632e-07 0.102932)
(7.26971e-07 -4.71921e-07 0.102932)
(-7.24843e-07 -4.8819e-07 0.102932)
(4.57863e-05 4.58125e-05 0.102852)
(4.38139e-05 4.37996e-05 0.102848)
(-4.5808e-05 -4.578e-05 0.102852)
(7.48748e-07 4.97159e-07 0.102932)
(-7.52042e-07 5.06964e-07 0.102932)
(7.49397e-07 4.90013e-07 0.102932)
(-4.38071e-05 4.37792e-05 0.102848)
(4.79814e-07 7.31143e-07 0.102932)
(4.9747e-07 -7.51347e-07 0.102932)
(4.78228e-07 7.29924e-07 0.102932)
(4.97642e-07 -7.51135e-07 0.102932)
(-5.04884e-07 -7.40788e-07 0.102932)
(-5.02488e-07 -7.41058e-07 0.102932)
(4.37951e-05 -4.38298e-05 0.102848)
(-4.57819e-05 4.58151e-05 0.102852)
(-7.24897e-07 -4.89651e-07 0.102932)
(7.26498e-07 -4.71179e-07 0.102932)
(-7.24842e-07 -4.87902e-07 0.102932)
(4.57747e-05 4.58004e-05 0.102852)
(4.38064e-05 4.37916e-05 0.102848)
(4.79688e-07 7.31644e-07 0.102932)
(4.96825e-07 -7.51642e-07 0.102932)
(4.37861e-05 -4.38202e-05 0.102848)
(-7.10898e-07 -7.09635e-07 0.102991)
(7.1426e-07 -7.04538e-07 0.102991)
(-7.03442e-07 7.14178e-07 0.102991)
(7.15805e-07 6.9919e-07 0.102991)
(7.07957e-08 -9.45619e-06 0.10053)
(6.90198e-07 6.82704e-06 0.0931081)
(-8.06082e-08 9.14812e-06 0.100517)
(-1.12346e-06 -6.65952e-06 0.0931267)
(-1.95093e-06 2.8283e-06 0.0809213)
(1.89864e-06 -2.77582e-06 0.0809404)
(-9.52412e-06 7.02452e-08 0.100529)
(6.79437e-06 6.66119e-07 0.0931076)
(9.21671e-06 -5.23363e-08 0.100517)
(-6.62853e-06 -1.09133e-06 0.0931266)
(7.14714e-07 -7.0394e-07 0.102991)
(-7.05199e-07 7.16474e-07 0.102991)
(7.19097e-07 7.01432e-07 0.102991)
(-7.16877e-07 -7.12825e-07 0.102991)
(7.19773e-07 -7.07055e-07 0.102991)
(-7.09593e-07 7.22979e-07 0.102991)
(7.22918e-07 7.08382e-07 0.102991)
(1.53424e-05 8.97372e-08 0.102434)
(-1.4931e-05 4.25133e-06 0.100894)
(-6.07257e-07 -1.86634e-07 0.102973)
(-4.73571e-07 7.28461e-07 0.102932)
(-1.54466e-05 -8.92602e-08 0.102428)
(1.42982e-05 -4.63906e-06 0.100914)
(-5.99407e-07 -1.85781e-07 0.102973)
(2.7086e-06 -1.89258e-06 0.0809184)
(-2.67396e-06 1.84322e-06 0.0809411)
(8.75868e-08 1.53351e-05 0.102434)
(-1.87661e-07 -5.99204e-07 0.102973)
(4.28664e-06 -1.49839e-05 0.100894)
(7.24575e-07 -4.65115e-07 0.102932)
(-1.00077e-07 -1.54436e-05 0.102428)
(-1.88544e-07 -5.95832e-07 0.102973)
(-4.68773e-06 1.43597e-05 0.100913)
(-4.54932e-06 -5.58588e-06 0.0981743)
(-5.57776e-06 -4.54098e-06 0.0981735)
(4.57736e-05 4.57999e-05 0.102852)
(4.25909e-06 5.42753e-06 0.0981942)
(5.42159e-06 4.25258e-06 0.0981932)
(6.83055e-08 -9.47069e-06 0.10053)
(6.95072e-07 6.78725e-06 0.0931084)
(-7.33212e-08 9.1312e-06 0.100517)
(-1.12638e-06 -6.68738e-06 0.093127)
(-1.93296e-06 2.79684e-06 0.0809214)
(1.9057e-06 -2.8025e-06 0.0809405)
(-9.54514e-06 6.53355e-08 0.100529)
(6.7475e-06 6.8083e-07 0.0931079)
(9.20101e-06 -5.41949e-08 0.100517)
(-6.6596e-06 -1.09118e-06 0.0931269)
(7.22527e-07 -7.07658e-07 0.102991)
(-7.12048e-07 7.26015e-07 0.102991)
(7.25979e-07 7.12179e-07 0.102991)
(-7.23141e-07 -7.19372e-07 0.102991)
(7.24099e-07 -7.12983e-07 0.102991)
(-7.15426e-07 7.27242e-07 0.102991)
(7.2714e-07 7.14324e-07 0.102991)
(1.53671e-05 8.69087e-08 0.102434)
(-1.49089e-05 4.22654e-06 0.100894)
(-5.93643e-07 -1.87092e-07 0.102973)
(-4.62701e-07 7.24411e-07 0.102932)
(-1.54218e-05 -8.89746e-08 0.102428)
(1.43239e-05 -4.67316e-06 0.100914)
(-5.83349e-07 -1.88819e-07 0.102973)
(2.6821e-06 -1.87239e-06 0.0809186)
(-2.70427e-06 1.87803e-06 0.0809414)
(8.74314e-08 1.53618e-05 0.102434)
(-1.90774e-07 -5.85146e-07 0.102973)
(4.24673e-06 -1.49593e-05 0.100894)
(7.17291e-07 -4.51463e-07 0.102932)
(-1.02731e-07 -1.54212e-05 0.102428)
(-1.91776e-07 -5.77893e-07 0.102973)
(-4.71991e-06 1.43929e-05 0.100913)
(-4.55861e-06 -5.5753e-06 0.0981744)
(-5.56666e-06 -4.55346e-06 0.0981737)
(4.5784e-05 4.58123e-05 0.102852)
(4.25491e-06 5.43506e-06 0.0981943)
(5.42738e-06 4.25016e-06 0.0981933)
(6.54998e-08 -9.50914e-06 0.10053)
(7.13875e-07 6.74703e-06 0.0931088)
(-7.94186e-08 9.10012e-06 0.100517)
(-1.13718e-06 -6.72077e-06 0.0931274)
(-1.94425e-06 2.75675e-06 0.0809219)
(1.95162e-06 -2.85565e-06 0.0809414)
(-9.58294e-06 7.00594e-08 0.100529)
(6.71031e-06 6.9216e-07 0.0931083)
(9.16653e-06 -5.96429e-08 0.100517)
(-6.6933e-06 -1.10512e-06 0.0931273)
(7.27897e-07 -7.13552e-07 0.102991)
(-7.21144e-07 7.35435e-07 0.102991)
(7.34779e-07 7.22511e-07 0.102991)
(-7.3514e-07 -7.35747e-07 0.102991)
(7.35637e-07 -7.31443e-07 0.102991)
(-7.27104e-07 7.3405e-07 0.102991)
(7.37208e-07 7.21181e-07 0.102991)
(1.54132e-05 8.7621e-08 0.102434)
(-1.48808e-05 4.20517e-06 0.100894)
(-5.80274e-07 -1.90258e-07 0.102973)
(-4.46038e-07 7.21177e-07 0.102932)
(-1.53923e-05 -8.94374e-08 0.102428)
(1.43636e-05 -4.68759e-06 0.100914)
(-5.59599e-07 -1.92118e-07 0.102973)
(2.62732e-06 -1.83116e-06 0.0809193)
(-2.72426e-06 1.83961e-06 0.0809424)
(8.45694e-08 1.54083e-05 0.102434)
(-1.95305e-07 -5.67589e-07 0.102973)
(4.23194e-06 -1.49243e-05 0.100894)
(7.04384e-07 -4.25441e-07 0.102932)
(-1.03123e-07 -1.53882e-05 0.102428)
(-1.95331e-07 -5.47757e-07 0.102973)
(-4.74002e-06 1.44251e-05 0.100913)
(-4.55913e-06 -5.56701e-06 0.0981744)
(-5.561e-06 -4.55105e-06 0.0981737)
(4.57993e-05 4.58263e-05 0.102852)
(4.26809e-06 5.4325e-06 0.0981942)
(5.42666e-06 4.2614e-06 0.0981933)
(5.86819e-08 -9.55167e-06 0.10053)
(6.85435e-07 6.73614e-06 0.0931093)
(-8.02957e-08 9.06412e-06 0.100517)
(-1.12972e-06 -6.73587e-06 0.0931279)
(-1.8683e-06 2.73571e-06 0.080923)
(1.87583e-06 -2.85273e-06 0.0809428)
(-9.62663e-06 5.13756e-08 0.100529)
(6.70122e-06 6.5998e-07 0.0931088)
(9.13582e-06 -5.96703e-08 0.100517)
(-6.70307e-06 -1.11034e-06 0.0931279)
(7.34147e-07 -7.30513e-07 0.102991)
(-7.25646e-07 7.34596e-07 0.102991)
(7.36467e-07 7.21923e-07 0.102991)
(-7.48697e-07 -7.57708e-07 0.102991)
(7.50863e-07 -7.52503e-07 0.102991)
(-7.43433e-07 7.49112e-07 0.102991)
(7.53223e-07 7.35763e-07 0.102991)
(1.54408e-05 7.59691e-08 0.102434)
(-1.48417e-05 4.17554e-06 0.100894)
(-5.81254e-07 -2.02995e-07 0.102973)
(-4.62487e-07 7.29224e-07 0.102932)
(-1.53701e-05 -9.77307e-08 0.102428)
(1.43811e-05 -4.73431e-06 0.100914)
(-5.76766e-07 -1.97856e-07 0.102973)
(2.61244e-06 -1.8438e-06 0.0809206)
(-2.7032e-06 1.83952e-06 0.0809436)
(7.67611e-08 1.54547e-05 0.102434)
(-1.98204e-07 -5.7401e-07 0.102973)
(4.19416e-06 -1.49001e-05 0.100894)
(7.0899e-07 -4.2454e-07 0.102932)
(-1.0773e-07 -1.53667e-05 0.102428)
(-1.94802e-07 -5.519e-07 0.102973)
(-4.7491e-06 1.44602e-05 0.100913)
(-4.52039e-06 -5.55869e-06 0.0981744)
(-5.55011e-06 -4.51195e-06 0.0981737)
(4.57996e-05 4.58285e-05 0.102852)
(4.28199e-06 5.45691e-06 0.0981943)
(5.44982e-06 4.27948e-06 0.0981933)
(7.12426e-08 -9.56613e-06 0.10053)
(6.56173e-07 6.72943e-06 0.0931099)
(-1.06783e-07 9.07213e-06 0.100517)
(-1.13201e-06 -6.71865e-06 0.0931287)
(-1.7947e-06 2.69661e-06 0.0809246)
(1.77717e-06 -2.81359e-06 0.0809446)
(-9.59317e-06 -3.50053e-08 0.100529)
(6.70447e-06 5.96863e-07 0.0931095)
(9.1422e-06 -7.28319e-08 0.100517)
(-6.65928e-06 -1.15871e-06 0.0931287)
(7.37664e-07 -7.66134e-07 0.10299)
(-7.18614e-07 7.08876e-07 0.10299)
(7.26475e-07 6.97849e-07 0.10299)
(-6.2272e-07 -6.26192e-07 0.102991)
(6.25124e-07 -6.22343e-07 0.102991)
(-6.14225e-07 6.21868e-07 0.102991)
(6.26542e-07 6.13984e-07 0.102991)
(1.53071e-05 4.65895e-08 0.102433)
(-1.48165e-05 4.12811e-06 0.100894)
(-5.45787e-07 -2.33386e-07 0.102972)
(-5.22447e-07 7.14038e-07 0.102932)
(-1.53287e-05 -1.21092e-07 0.102428)
(1.43053e-05 -4.77262e-06 0.100914)
(-6.55823e-07 -2.32639e-07 0.102972)
(2.60948e-06 -1.8953e-06 0.0809223)
(-2.57104e-06 1.6251e-06 0.0809447)
(1.12679e-07 1.52823e-05 0.102433)
(-1.95457e-07 -5.6367e-07 0.102972)
(4.205e-06 -1.4876e-05 0.100894)
(8.06974e-07 -5.64854e-07 0.102932)
(-1.12824e-07 -1.53022e-05 0.102428)
(-1.73254e-07 -6.84109e-07 0.102972)
(-4.65102e-06 1.42957e-05 0.100913)
(-4.46731e-06 -5.56299e-06 0.0981746)
(-5.55619e-06 -4.45275e-06 0.0981739)
(4.56927e-05 4.57189e-05 0.102852)
(4.18908e-06 5.32975e-06 0.0981945)
(5.31358e-06 4.19087e-06 0.0981935)
(2.40096e-08 -9.14018e-06 0.10053)
(7.98507e-07 7.19647e-06 0.0931102)
(-8.13885e-08 9.41785e-06 0.100517)
(-1.06482e-06 -6.19104e-06 0.0931278)
(-2.00246e-06 2.99763e-06 0.0809238)
(1.94105e-06 -2.64426e-06 0.0809415)
(-9.24775e-06 1.37749e-07 0.100529)
(7.16829e-06 8.02343e-07 0.0931098)
(9.50682e-06 -1.05247e-07 0.100517)
(-6.18188e-06 -9.88272e-07 0.0931278)
(6.30573e-07 -6.00777e-07 0.102991)
(-6.32816e-07 6.57393e-07 0.102991)
(6.51254e-07 6.4691e-07 0.102991)
(-7.08828e-07 -6.92943e-07 0.102991)
(7.15945e-07 -6.87479e-07 0.102991)
(-7.08737e-07 7.35847e-07 0.102991)
(7.24105e-07 7.20663e-07 0.102991)
(1.51038e-05 1.41067e-07 0.102434)
(-1.52308e-05 4.44579e-06 0.100894)
(-7.5647e-07 -1.3534e-07 0.102973)
(-5.39788e-07 7.87202e-07 0.102932)
(-1.58625e-05 -7.56708e-08 0.102428)
(1.40501e-05 -4.37892e-06 0.100914)
(-6.96635e-07 -1.32188e-07 0.102973)
(2.85848e-06 -1.84925e-06 0.0809198)
(-2.56048e-06 1.90843e-06 0.0809416)
(9.01459e-08 1.51097e-05 0.102434)
(-1.57397e-07 -7.26487e-07 0.102973)
(4.48776e-06 -1.5275e-05 0.100894)
(7.32397e-07 -5.00756e-07 0.102932)
(-8.08745e-08 -1.58484e-05 0.102428)
(-1.70943e-07 -6.70527e-07 0.102973)
(-4.51515e-06 1.41655e-05 0.100913)
(-4.7111e-06 -5.60435e-06 0.0981742)
(-5.60729e-06 -4.69725e-06 0.0981735)
(4.57708e-05 4.58094e-05 0.102852)
(4.17049e-06 5.45039e-06 0.0981939)
(5.43138e-06 4.17157e-06 0.0981929)
(5.89518e-08 -9.42124e-06 0.10053)
(7.28318e-07 6.96311e-06 0.0931083)
(-9.25967e-08 9.24596e-06 0.100517)
(-1.10459e-06 -6.58836e-06 0.0931266)
(-1.9142e-06 2.84935e-06 0.0809215)
(1.91712e-06 -2.76818e-06 0.0809404)
(-9.49719e-06 5.697e-08 0.100529)
(6.91448e-06 7.14545e-07 0.0931078)
(9.29134e-06 -3.268e-08 0.100517)
(-6.55892e-06 -1.07943e-06 0.0931265)
(7.26061e-07 -7.05363e-07 0.102991)
(-7.13761e-07 7.34709e-07 0.102991)
(7.28602e-07 7.20133e-07 0.102991)
(-7.19895e-07 -7.18562e-07 0.102991)
(7.21707e-07 -7.12464e-07 0.102991)
(-7.09894e-07 7.20116e-07 0.102991)
(7.21715e-07 7.06159e-07 0.102991)
(1.53226e-05 8.5736e-08 0.102434)
(-1.49849e-05 4.31149e-06 0.100894)
(-6.0482e-07 -1.8004e-07 0.102973)
(-4.61073e-07 7.11214e-07 0.102932)
(-1.54922e-05 -7.54496e-08 0.102428)
(1.42813e-05 -4.64106e-06 0.100914)
(-5.99206e-07 -1.88121e-07 0.102973)
(2.71764e-06 -1.84978e-06 0.0809185)
(-2.655e-06 1.85262e-06 0.0809411)
(8.41146e-08 1.53156e-05 0.102434)
(-1.88571e-07 -5.93215e-07 0.102973)
(4.305e-06 -1.50152e-05 0.100894)
(7.16001e-07 -4.57799e-07 0.102932)
(-1.0083e-07 -1.54698e-05 0.102428)
(-1.89291e-07 -5.95783e-07 0.102973)
(-4.68559e-06 1.43477e-05 0.100913)
(-4.57288e-06 -5.56753e-06 0.0981741)
(-5.56839e-06 -4.55845e-06 0.0981734)
(4.58022e-05 4.58327e-05 0.102852)
(4.24606e-06 5.4298e-06 0.098194)
(5.42237e-06 4.2392e-06 0.098193)
(6.13396e-08 -9.44322e-06 0.10053)
(7.1599e-07 6.8458e-06 0.0931081)
(-8.34087e-08 9.15823e-06 0.100517)
(-1.11331e-06 -6.61615e-06 0.0931265)
(-1.94078e-06 2.81159e-06 0.0809213)
(1.90633e-06 -2.78129e-06 0.0809404)
(-9.51134e-06 5.19388e-08 0.100529)
(6.81277e-06 6.88571e-07 0.0931076)
(9.22803e-06 -6.95612e-08 0.100517)
(-6.58359e-06 -1.08655e-06 0.0931265)
(7.18828e-07 -7.10555e-07 0.102991)
(-7.08067e-07 7.17331e-07 0.102991)
(7.21033e-07 7.03327e-07 0.102991)
(-7.13306e-07 -7.13066e-07 0.102991)
(7.15233e-07 -7.07349e-07 0.102991)
(-7.05943e-07 7.1452e-07 0.102991)
(7.17602e-07 7.00351e-07 0.102991)
(1.53194e-05 8.37529e-08 0.102434)
(-1.49409e-05 4.23769e-06 0.100894)
(-6.04808e-07 -1.90881e-07 0.102973)
(-4.75892e-07 7.22112e-07 0.102932)
(-1.54709e-05 -9.53479e-08 0.102428)
(1.42843e-05 -4.64568e-06 0.100914)
(-6.04409e-07 -1.90939e-07 0.102973)
(2.6942e-06 -1.87347e-06 0.0809184)
(-2.66141e-06 1.84532e-06 0.0809411)
(8.32242e-08 1.53029e-05 0.102434)
(-1.87923e-07 -5.99269e-07 0.102973)
(4.2762e-06 -1.49929e-05 0.100894)
(7.24687e-07 -4.71107e-07 0.102932)
(-9.84944e-08 -1.54575e-05 0.102428)
(-1.88103e-07 -6.03377e-07 0.102973)
(-4.68632e-06 1.43462e-05 0.100913)
(-4.56699e-06 -5.58188e-06 0.0981742)
(-5.57227e-06 -4.56101e-06 0.0981735)
(4.57933e-05 4.58186e-05 0.102852)
(4.24426e-06 5.42534e-06 0.098194)
(5.42258e-06 4.23504e-06 0.0981931)
(6.17279e-08 -9.4426e-06 0.10053)
(7.13852e-07 6.84707e-06 0.0931081)
(-8.29048e-08 9.15778e-06 0.100517)
(-1.11423e-06 -6.61441e-06 0.0931265)
(-1.94183e-06 2.81042e-06 0.0809213)
(1.90678e-06 -2.78099e-06 0.0809404)
(-9.51106e-06 5.29344e-08 0.100529)
(6.81299e-06 6.89107e-07 0.0931076)
(9.22786e-06 -6.78176e-08 0.100517)
(-6.58248e-06 -1.08617e-06 0.0931265)
(7.14492e-07 -7.06629e-07 0.102991)
(-7.05336e-07 7.14052e-07 0.102991)
(7.1827e-07 6.99861e-07 0.102991)
(-7.12289e-07 -7.11959e-07 0.102991)
(7.14287e-07 -7.06372e-07 0.102991)
(-7.05167e-07 7.14023e-07 0.102991)
(7.16747e-07 6.9983e-07 0.102991)
(1.53191e-05 8.47436e-08 0.102434)
(-1.49417e-05 4.24334e-06 0.100894)
(-6.08555e-07 -1.89293e-07 0.102973)
(-4.78821e-07 7.25361e-07 0.102932)
(-1.54717e-05 -9.36487e-08 0.102428)
(1.4284e-05 -4.64369e-06 0.100914)
(-6.07236e-07 -1.89715e-07 0.102973)
(2.69434e-06 -1.87357e-06 0.0809184)
(-2.66079e-06 1.84603e-06 0.0809411)
(8.29137e-08 1.53025e-05 0.102434)
(-1.87306e-07 -6.02341e-07 0.102973)
(4.27865e-06 -1.49949e-05 0.100894)
(7.2638e-07 -4.72577e-07 0.102932)
(-9.65685e-08 -1.54564e-05 0.102428)
(-1.87537e-07 -6.05329e-07 0.102973)
(-4.68521e-06 1.43458e-05 0.100913)
(-4.56743e-06 -5.58202e-06 0.0981742)
(-5.57199e-06 -4.56129e-06 0.0981735)
(4.57911e-05 4.58169e-05 0.102852)
(4.24359e-06 5.42619e-06 0.098194)
(5.42348e-06 4.23505e-06 0.0981931)
(6.19316e-08 -9.44275e-06 0.10053)
(7.14025e-07 6.84735e-06 0.0931081)
(-8.26852e-08 9.15828e-06 0.100517)
(-1.11397e-06 -6.61441e-06 0.0931265)
(-1.94115e-06 2.8106e-06 0.0809213)
(1.90679e-06 -2.78106e-06 0.0809404)
(-9.51128e-06 5.33596e-08 0.100529)
(6.81309e-06 6.89294e-07 0.0931076)
(9.22809e-06 -6.73122e-08 0.100517)
(-6.58271e-06 -1.08573e-06 0.0931265)
(7.14047e-07 -7.06194e-07 0.102991)
(-7.04837e-07 7.13787e-07 0.102991)
(7.17791e-07 6.99556e-07 0.102991)
(-7.11694e-07 -7.11686e-07 0.102991)
(7.14193e-07 -7.06064e-07 0.102991)
(-7.04498e-07 7.13418e-07 0.102991)
(7.16707e-07 6.99258e-07 0.102991)
(1.53192e-05 8.51894e-08 0.102434)
(-1.49422e-05 4.24362e-06 0.100894)
(-6.09011e-07 -1.88933e-07 0.102973)
(-4.79057e-07 7.25682e-07 0.102932)
(-1.54729e-05 -9.30269e-08 0.102428)
(1.42842e-05 -4.64302e-06 0.100914)
(-6.07381e-07 -1.89486e-07 0.102973)