/*--------------------------------*- C++ -*----------------------------------*\
| =========                 |                                                 |
| \\      /  F ield         | OpenFOAM: The Open Source CFD Toolbox           |
|  \\    /   O peration     | Version:  2206                                  |
|   \\  /    A nd           | Website:  www.openfoam.com                      |
|    \\/     M anipulation  |                                                 |
\*---------------------------------------------------------------------------*/
FoamFile
{
    version     2.0;
    format      ascii;
    arch        "LSB;label=32;scalar=64";
    class       volScalarField;
    location    "3";
    object      nut;
}
// * * * * * * * * * * * * * * * * * * * * * * * * * * * * * * * * * * * * * //

dimensions      [0 2 -1 0 0 0 0];

internalField   nonuniform List<scalar> 
171728
(
0.000239639
0.000234144
0.000234988
0.000234988
0.000239634
0.000239486
0.000239631
0.000234991
0.00023499
0.000239639
0.000234989
0.00023499
0.000234993
0.00023964
0.000234989
0.000119386
0.000119371
0.000239489
0.000111541
0.000111538
0.000139519
3.239e-05
3.22786e-05
0.000151546
1.37725e-05
1.37232e-05
0.000139505
3.23864e-05
3.22747e-05
0.000151542
0.000234144
0.000234144
0.000234144
0.000221389
0.000166123
0.000234211
0.000234989
0.000148113
0.000234213
0.000225971
1.37713e-05
1.37219e-05
0.000221387
0.000234211
0.000166121
0.000234994
0.000234213
0.000148104
0.000225971
0.000119383
0.000119368
0.000239508
0.000111598
0.000111597
1.37724e-05
1.37224e-05
1.37718e-05
1.37218e-05
0.000239639
0.000111534
0.000111533
0.000119386
0.000119372
1.37224e-05
1.37724e-05
1.37218e-05
1.37718e-05
1.37732e-05
1.37239e-05
1.37721e-05
1.37227e-05
0.000119387
0.000119372
0.000239509
0.000111583
0.000111578
0.00013952
3.23892e-05
3.22775e-05
0.000151546
0.000221382
0.000166123
0.000234211
0.000234992
0.000148105
0.000234213
0.000225972
0.000221383
0.000166113
0.000234211
0.000234988
0.000148095
0.000234213
0.000225971
0.000119374
0.000119391
0.000239514
0.000111589
0.000111595
1.37732e-05
1.3724e-05
0.000221377
0.000166111
0.000234211
0.000234993
0.000148085
0.000234213
0.000225969
0.000139504
3.23852e-05
3.22735e-05
0.000151543
0.000221377
0.000234211
0.000166106
0.000234996
0.000234213
0.000148082
0.000225969
0.000139541
3.23885e-05
3.22772e-05
0.000151544
0.000221388
0.000234211
0.000166119
0.000234994
0.000234213
0.000148116
0.000225972
0.00013954
3.23869e-05
3.22756e-05
0.000151544
0.000119366
0.000119386
0.000239506
0.000111575
0.00011158
1.37725e-05
1.37232e-05
0.000221388
0.000234211
0.00016611
0.000234992
0.000234213
0.000148105
0.000225971
0.000139537
3.23866e-05
3.22753e-05
0.000151542
0.000139542
3.23861e-05
3.22747e-05
0.000151542
1.37722e-05
1.3723e-05
1.37716e-05
1.37225e-05
9.86999e-05
1.20203e-05
1.20189e-05
1.20313e-05
1.20299e-05
9.83747e-05
0.000148182
0.000217856
3.08951e-05
0.000111539
3.06907e-05
0.000162781
0.000212435
0.000148134
0.000217842
3.08861e-05
0.000111533
3.06815e-05
0.000162745
0.000212417
9.83729e-05
1.20313e-05
1.20299e-05
1.20203e-05
1.20189e-05
9.87017e-05
0.000162782
3.06908e-05
0.000119386
0.000212435
3.08951e-05
0.000148187
0.000217859
0.000162746
3.06816e-05
0.000119372
0.000212419
3.0886e-05
0.000148139
0.000217844
2.25148e-05
2.55473e-05
0.00013362
0.000151549
2.56014e-05
0.0001441
2.24555e-05
1.12403e-05
3.22773e-05
0.000110437
0.000105269
1.12962e-05
1.12962e-05
0.000105307
3.23901e-05
0.00011044
1.12409e-05
2.24545e-05
0.000139482
2.56013e-05
0.000144097
2.55462e-05
0.000133583
2.25147e-05
1.37226e-05
1.37726e-05
2.25155e-05
0.000133614
2.55467e-05
0.000151546
0.000144102
2.56008e-05
2.24562e-05
1.12409e-05
3.22735e-05
0.000110449
0.000105282
1.12969e-05
1.12969e-05
0.000105322
3.23865e-05
0.000110451
1.12415e-05
2.24552e-05
0.00013947
0.000144099
2.56008e-05
0.000133579
2.55456e-05
2.25155e-05
1.37213e-05
1.37713e-05
9.86918e-05
1.20212e-05
1.20197e-05
1.20312e-05
1.20298e-05
9.84274e-05
0.000148191
0.000217857
3.08948e-05
0.000111542
0.000162778
0.000212438
3.06907e-05
0.000148143
0.000217843
3.08858e-05
0.000111541
0.000162741
0.000212423
3.06815e-05
9.83747e-05
1.20312e-05
1.20298e-05
9.86739e-05
1.20203e-05
1.20189e-05
0.000162786
3.0692e-05
0.000119389
0.000212502
0.000217864
3.08949e-05
0.000148257
0.00016275
3.06829e-05
0.000119374
0.000212486
0.00021785
3.08859e-05
0.000148209
1.37224e-05
1.37724e-05
1.37218e-05
1.37718e-05
9.837e-05
1.20313e-05
1.20299e-05
9.8697e-05
1.20202e-05
1.20188e-05
0.000162778
0.000212434
3.06907e-05
0.000119384
0.00014818
3.0895e-05
0.000217859
0.000162741
0.000212419
3.06815e-05
0.000119369
0.000148133
3.08859e-05
0.000217842
9.86823e-05
1.20202e-05
1.20188e-05
9.83684e-05
1.20313e-05
1.20298e-05
0.000148181
3.08951e-05
0.000217857
0.000111538
0.000162781
3.06908e-05
0.000212434
0.000148134
3.0886e-05
0.000217842
0.000111536
0.000162744
3.06816e-05
0.000212417
1.37723e-05
1.37224e-05
1.37717e-05
1.37218e-05
1.37233e-05
1.37732e-05
1.37221e-05
1.37721e-05
9.87016e-05
1.20208e-05
1.20193e-05
1.20313e-05
1.20297e-05
9.84143e-05
0.000148182
0.000217856
0.00011154
3.08953e-05
3.0691e-05
0.000212434
0.00016278
0.000148135
0.000217841
0.000111536
3.08851e-05
3.06807e-05
0.000212418
0.000162743
0.000162783
3.06923e-05
0.00011939
0.00021249
3.08953e-05
0.00014823
0.000217859
0.000162746
3.06817e-05
0.000119375
0.000212474
3.0885e-05
0.000148182
0.000217845
9.8374e-05
1.20313e-05
1.20297e-05
1.20202e-05
1.20187e-05
9.87017e-05
2.25156e-05
2.55473e-05
0.000133629
0.00015155
2.56014e-05
0.000144105
2.24564e-05
1.12407e-05
3.22763e-05
0.00011045
0.000105287
1.12967e-05
1.12967e-05
0.000105331
3.23891e-05
0.000110453
1.12413e-05
2.24553e-05
0.000139483
2.56013e-05
0.000144101
2.55462e-05
0.000133586
2.25156e-05
9.87045e-05
1.20199e-05
1.20211e-05
1.20301e-05
1.20314e-05
9.84213e-05
0.000148141
0.000217843
0.000111544
3.08865e-05
3.06821e-05
0.000212424
0.000162744
0.000148188
0.000217859
0.000111553
3.08947e-05
0.000212438
3.06905e-05
0.000162781
0.000162749
3.06834e-05
0.000119378
0.000212483
3.08866e-05
0.000217851
0.000148194
0.000162786
3.06917e-05
0.000119394
0.000212497
0.000217864
3.08947e-05
0.000148239
9.83775e-05
1.20301e-05
1.20313e-05
1.20192e-05
1.20204e-05
9.86974e-05
1.37233e-05
1.37733e-05
2.25141e-05
2.55468e-05
0.000133608
0.000151545
2.56009e-05
0.000144096
2.24549e-05
1.124e-05
3.22722e-05
0.000110433
0.000105266
1.1296e-05
1.1296e-05
0.000105305
3.23853e-05
0.000110436
1.12406e-05
2.24538e-05
0.00013947
2.56008e-05
0.000144093
2.55456e-05
0.00013357
2.25141e-05
2.2516e-05
0.000133644
2.55469e-05
0.000151551
0.000144107
2.56008e-05
2.24568e-05
1.12412e-05
3.22758e-05
0.00011045
0.000105294
1.12971e-05
1.12971e-05
0.000105335
3.23886e-05
0.000110454
1.12418e-05
2.24557e-05
0.000139489
0.000144101
2.56007e-05
0.000133594
2.55457e-05
2.25159e-05
2.25146e-05
2.55469e-05
0.000133636
0.000151551
2.56009e-05
0.0001441
2.24555e-05
1.12405e-05
3.22742e-05
0.000110433
0.000105268
1.12963e-05
1.12964e-05
0.000105318
3.23869e-05
0.000110437
1.12411e-05
2.24544e-05
0.000139489
2.56008e-05
0.000144094
2.55457e-05
0.000133584
2.25145e-05
9.87048e-05
1.20192e-05
1.20208e-05
1.20294e-05
1.20312e-05
9.84173e-05
0.000148138
0.000217839
0.000111531
3.08851e-05
3.06806e-05
0.000212417
0.000162743
0.000148185
0.000217858
0.000111541
3.08952e-05
0.000212433
3.0691e-05
0.000162781
0.000162747
3.06819e-05
0.000119369
0.000212475
3.08852e-05
0.000217843
0.000148185
0.000162784
3.06923e-05
0.000119389
0.000212489
0.000217859
3.08953e-05
0.000148235
9.83743e-05
1.20294e-05
1.20312e-05
1.20186e-05
1.20201e-05
9.86963e-05
1.37225e-05
1.37725e-05
2.25146e-05
0.000133633
2.55466e-05
0.000151548
0.0001441
2.56006e-05
2.24554e-05
1.12406e-05
3.22739e-05
0.000110434
0.000105274
1.12965e-05
1.12966e-05
0.000105312
3.23867e-05
0.000110438
1.12412e-05
2.24543e-05
0.000139488
0.000144095
2.56005e-05
0.00013359
2.55454e-05
2.25145e-05
2.25157e-05
0.000133653
2.55468e-05
0.000151549
0.000144104
2.56007e-05
2.24565e-05
1.12409e-05
3.22733e-05
0.000110447
0.00010529
1.12967e-05
1.12968e-05
0.000105342
3.23862e-05
0.000110452
1.12416e-05
2.24554e-05
0.000139488
0.000144097
2.56006e-05
0.000133593
2.55455e-05
2.25155e-05
1.37224e-05
1.37723e-05
1.37218e-05
1.37717e-05
0.00021449
0.000238039
0.000238038
0.00023949
0.000222946
0.000236327
0.000236327
0.000234044
0.000234044
0.000234146
0.000234047
0.000234047
0.000234032
0.00023403
0.000214492
0.000238038
0.000238038
0.000239487
0.000222947
0.000236325
0.000236325
0.000222947
0.00023964
0.000236327
0.000236325
0.000214488
0.000238044
0.000238037
0.000214488
0.000238035
0.000238034
0.000239483
0.000236324
0.000236322
0.000222944
0.000214492
0.000238039
0.000238039
0.000239492
0.000236327
0.000236327
0.000222946
0.000214489
0.00023804
0.000238041
0.000239486
0.000236325
0.000236324
0.000222947
0.000222948
0.000239641
0.000236325
0.000236327
0.000214489
0.00023804
0.000238043
0.000234044
0.000234044
0.000234145
0.000234047
0.000234047
0.000234032
0.00023403
0.000234044
0.000234044
0.000234146
0.000234047
0.000234047
0.000234032
0.00023403
0.000234044
0.000234044
0.000234146
0.000234047
0.000234047
0.000234032
0.00023403
0.00023493
0.00021949
0.000234738
0.000225977
0.000224168
0.000234977
0.000234635
0.000233119
0.000228258
0.000148067
0.000213525
0.000223091
0.000207021
0.000234108
0.000234108
0.000207073
0.000166128
0.000223122
0.000228259
0.000213528
0.000233132
0.000234626
0.000221351
0.000224164
0.000234977
0.000219449
0.00023473
0.000234931
0.00023493
0.000234739
0.000219487
0.000225975
0.000234978
0.000224167
0.000234634
0.000233118
0.00022826
0.000148061
0.000213519
0.000223089
0.000207012
0.000234108
0.000234109
0.000207062
0.000166123
0.000223118
0.000228258
0.000213522
0.000233131
0.000234626
0.00022135
0.000234977
0.000224164
0.00023473
0.000219447
0.00023493
0.00022295
0.000239642
0.000236349
0.000236346
0.000238039
0.000238041
0.000214536
0.000214488
0.000239493
0.000238039
0.000238036
0.000222944
0.000236328
0.000236325
0.000222948
0.000239641
0.000236348
0.000236344
0.000214526
0.00023804
0.00023804
0.00023493
0.000219482
0.000234737
0.000225974
0.000224166
0.000234977
0.000234634
0.000233119
0.00022826
0.000148061
0.000213518
0.000207009
0.000223091
0.000234109
0.000234109
0.000207061
0.000166127
0.000223119
0.000213523
0.000228261
0.000233131
0.000234626
0.000221348
0.000224163
0.000234975
0.000219444
0.000234729
0.00023493
0.00023493
0.000219484
0.000234736
0.000225974
0.000224166
0.000234976
0.000234633
0.000233117
0.000228251
0.000148049
0.000213522
0.000207014
0.00022308
0.000234108
0.000234109
0.000207066
0.000166118
0.000223111
0.000213526
0.00023313
0.000228256
0.000234625
0.000221347
0.000224163
0.000234976
0.000219444
0.00023473
0.000234929
0.000222951
0.000239654
0.000236349
0.00023635
0.000238044
0.000238048
0.000214532
0.00023493
0.000219479
0.000234736
0.000225973
0.000224165
0.000234977
0.000234633
0.000233116
0.000228252
0.000148042
0.00021352
0.000207011
0.000223079
0.000234107
0.000234108
0.000207061
0.000166114
0.000223106
0.000213523
0.000228252
0.000233129
0.000234625
0.000221344
0.000224162
0.000234976
0.000219442
0.000234729
0.000234929
0.00023493
0.000234736
0.000219476
0.000225973
0.000234977
0.000224163
0.000234633
0.000233117
0.00022825
0.000148039
0.000213514
0.000207002
0.000223078
0.000234108
0.000234108
0.000207054
0.00016611
0.000223108
0.000213518
0.000233129
0.00022825
0.000234625
0.000221343
0.000234976
0.00022416
0.000234729
0.000219438
0.00023493
0.000234931
0.000234738
0.000219488
0.000225977
0.000234977
0.000224168
0.000234635
0.000233119
0.000228258
0.000148063
0.000213519
0.000223091
0.00020701
0.000234109
0.000234109
0.000207067
0.000166124
0.000223123
0.00022826
0.000213523
0.000233132
0.000234626
0.000221351
0.000234977
0.000224164
0.00023473
0.000219446
0.000234931
0.000222944
0.00023963
0.000236345
0.000236345
0.000238032
0.000238034
0.000214527
0.000234931
0.000234739
0.000219491
0.000225975
0.000234978
0.000224167
0.000234636
0.000233118
0.000228254
0.000148052
0.000213521
0.000223083
0.000207016
0.000234109
0.000234108
0.000207073
0.000166114
0.000223114
0.000228253
0.000213525
0.000233132
0.000234626
0.00022135
0.000234977
0.000224163
0.00023473
0.000219447
0.00023493
0.000234146
0.00023499
0.000234993
0.000239632
0.000234144
0.000234987
0.000234989
0.000239644
0.000234143
0.000234988
0.000234989
0.000239633
0.000234144
0.000234987
0.00023499
0.000239644
0.000234144
0.000234989
0.00023499
0.000239639
0.000234144
0.000234988
0.000234989
0.000239639
0.000234144
0.000234988
0.000234989
0.00023964
0.000234144
0.000234988
0.000234987
0.000239645
0.000234144
0.000234987
0.000234991
0.000239638
0.000234144
0.000234988
0.000234991
0.000239632
0.000234143
0.000234988
0.00023499
0.000239638
0.000234144
0.000234989
0.000234991
0.000239634
0.000234144
0.000234989
0.000234991
0.000239641
0.000234144
0.000234988
0.000234991
0.00023964
0.000234144
0.000234988
0.000234989
0.000239638
0.000234144
0.000234988
0.000234987
0.000239638
0.000234144
0.000234988
0.00023499
0.000239644
0.000239486
0.000234992
0.000234992
0.000234989
0.000234991
0.000239651
0.000239483
0.000234989
0.000234991
0.000234987
0.000234989
0.000234993
0.00023499
0.000234993
0.000239643
0.000239491
0.00023499
0.000234989
0.000234987
0.000239489
0.000239638
0.000239486
0.000234989
0.00023499
0.00023499
0.000234987
0.000239637
0.00023949
0.000234988
0.000234986
0.000234992
0.000234988
0.00023499
0.000234991
0.000234992
0.000239646
0.000239493
0.000234988
0.000234989
0.00023499
0.000239487
0.000239639
0.000239486
0.000234988
0.000234989
0.000234988
0.00023499
0.000239639
0.000239482
0.000234988
0.000234989
0.000234991
0.000234988
0.000234993
0.000234989
0.000234993
0.00023964
0.000239492
0.00023499
0.00023499
0.000234988
0.000239489
0.000239638
0.000239487
0.000234989
0.000234989
0.00023499
0.000234989
0.000239636
0.000239483
0.000234988
0.000234986
0.000234989
0.00023499
0.000234991
0.000234992
0.000234992
0.000239647
0.000239495
0.000234988
0.000234989
0.00023499
0.000239489
0.000239634
0.000239487
0.000234992
0.000234993
0.000234989
0.00023499
0.000239632
0.000239484
0.000234989
0.000234987
0.000234991
0.000234989
0.000234992
0.00023499
0.000234993
0.000239648
0.000239493
0.000234989
0.00023499
0.000234987
0.000239488
0.000239639
0.000239485
0.00023499
0.000234991
0.00023499
0.000234989
0.000239638
0.00023949
0.000234988
0.000234987
0.00023499
0.00023499
0.00023499
0.000234991
0.000234991
0.000239648
0.000239494
0.000234989
0.000234989
0.00023499
0.000239489
0.000239633
0.000239488
0.000234991
0.000234991
0.000234988
0.000234991
0.000239639
0.000239485
0.000234988
0.00023499
0.00023499
0.00023499
0.000234991
0.00023499
0.000234993
0.000239641
0.000239493
0.000234989
0.000234989
0.000234987
0.000239491
0.000239644
0.000239488
0.000234989
0.000234988
0.000234989
0.000234989
0.000239639
0.000239484
0.000234989
0.00023499
0.00023499
0.000234988
0.000234991
0.000234989
0.000234991
0.000239647
0.000239494
0.000234988
0.000234989
0.000234988
0.000239488
0.000239633
0.000239482
0.000234991
0.000234991
0.00023499
0.000234989
0.000239632
0.000239486
0.000234988
0.000234991
0.000234987
0.000234989
0.00023499
0.000234989
0.000234992
0.000239639
0.000239487
0.000234989
0.000234989
0.000234987
0.000239488
0.00023963
0.000239487
0.00023499
0.00023499
0.00023499
0.000234987
0.000239637
0.000239488
0.000234988
0.000234989
0.000234988
0.00023499
0.000234993
0.00023499
0.000234992
0.000239632
0.000239489
0.00023499
0.000234989
0.00023499
0.000239487
0.000239638
0.000239489
0.000234991
0.000234992
0.000234988
0.000234991
0.000239631
0.000239485
0.000234986
0.00023499
0.000234989
0.000234989
0.000234991
0.00023499
0.000234993
0.000239639
0.00023949
0.000234989
0.00023499
0.000234989
0.000239488
0.000239641
0.000239491
0.000234989
0.000234988
0.00023499
0.000234988
0.00023964
0.000239492
0.000234989
0.000234989
0.000234989
0.000234987
0.000234995
0.000234989
0.000234992
0.000239635
0.000239495
0.000234989
0.00023499
0.00023499
0.000239491
0.000239641
0.000239487
0.000234992
0.000234991
0.00023499
0.000234991
0.000239636
0.000239485
0.000234987
0.000234986
0.00023499
0.000234988
0.000234992
0.000234989
0.000234993
0.000239649
0.00023949
0.00023499
0.00023499
0.00023499
0.000239488
0.00023964
0.000239489
0.00023499
0.00023499
0.000234988
0.000234989
0.000239638
0.000239487
0.000234987
0.000234989
0.000234988
0.000234986
0.000234991
0.000234989
0.000234991
0.000239635
0.000239493
0.000234991
0.00023499
0.000234988
0.000239488
0.000239633
0.000239484
0.000234991
0.000234991
0.000234988
0.00023499
0.000239637
0.000239482
0.000234988
0.000234989
0.00023499
0.000234988
0.000234991
0.000234989
0.000234992
0.00023964
0.000239489
0.000234989
0.00023499
0.00023499
0.000239485
0.000239636
0.00023949
0.00023499
0.00023499
0.000234989
0.000234989
0.000239636
0.000239483
0.000234987
0.000234989
0.00023499
0.000234989
0.00023499
0.000234992
0.000234991
0.000239639
0.000239493
0.000234989
0.000234989
0.000234989
0.000239488
0.00023964
0.000239484
0.000234991
0.000234991
0.00023499
0.000234992
0.000239632
0.000239489
0.000234986
0.00023499
0.000234987
0.00023499
0.00023499
0.000234987
0.000234989
0.000239641
0.00023949
0.000234988
0.000234989
0.000234991
0.000139462
3.23912e-05
3.22772e-05
0.0001516
1.3773e-05
1.37224e-05
0.000139459
3.23876e-05
3.22734e-05
0.000151597
0.000234146
0.000234146
0.000234145
0.000234144
0.000234144
0.000234144
0.000234144
0.000221341
0.00016618
0.000234213
0.000234989
0.000148055
0.000234211
0.00022601
1.37719e-05
1.37213e-05
0.000221338
0.000234213
0.000166178
0.00023499
0.000234211
0.000148043
0.000226009
0.000119387
0.000119372
0.000239488
0.000111537
0.00011153
0.000139477
3.23899e-05
0.00015154
3.22772e-05
1.37725e-05
1.37224e-05
0.000139472
3.23863e-05
0.000151538
3.22734e-05
0.000234144
0.000234144
0.000234144
0.000234144
0.000234144
0.000234144
0.000234144
0.000221342
0.000166122
0.000234211
0.000234993
0.00022597
0.000148055
0.000234211
1.37713e-05
1.37213e-05
0.000221342
0.000234211
0.000166118
0.00023499
0.000225968
0.000234211
0.000148052
0.000119385
0.000119371
0.000239486
0.000111535
0.000111531
0.000139469
3.23899e-05
0.000151543
3.22772e-05
1.37724e-05
1.37225e-05
0.000139457
3.23864e-05
0.000151539
3.22734e-05
0.000234144
0.000234144
0.000234144
0.000234144
0.000234144
0.000234144
0.000234144
0.000221342
0.000166123
0.000234211
0.000234988
0.00022597
0.000148056
0.000234211
1.37713e-05
1.37213e-05
0.000221341
0.000234211
0.00016612
0.000234989
0.00022597
0.000234211
0.00014805
0.000119387
0.000119373
0.000239489
0.000111544
0.000111539
0.000139453
3.239e-05
0.000151543
3.22771e-05
1.37725e-05
1.37225e-05
0.000139461
3.23864e-05
0.00015154
3.22734e-05
0.000234144
0.000234143
0.000234144
0.000234144
0.000234144
0.000234144
0.000234144
0.000221335
0.000166122
0.000234211
0.000234989
0.000225968
0.000148048
0.000234211
1.37713e-05
1.37213e-05
0.000221338
0.000234211
0.000166119
0.00023499
0.000225969
0.000234211
0.000148047
0.000119385
0.000119371
0.000239489
0.00011153
0.000111523
0.000139488
3.23899e-05
0.000151543
3.22772e-05
1.37724e-05
1.37224e-05
0.000139459
3.23864e-05
0.000151538
3.22734e-05
0.000234144
0.000234143
0.000234144
0.000234144
0.000234144
0.000234144
0.000234144
0.000221349
0.000166125
0.000234211
0.000234989
0.000225972
0.000148068
0.000234211
1.37713e-05
1.37213e-05
0.000221341
0.000234211
0.000166119
0.00023499
0.000225969
0.000234211
0.00014805
0.000119386
0.000119373
0.000239483
0.000111545
0.000111539
0.000139466
3.239e-05
0.000151544
3.22772e-05
1.37725e-05
1.37225e-05
0.000139479
3.23863e-05
0.000151541
3.22734e-05
0.000234144
0.000234143
0.000234144
0.000234144
0.000234144
0.000234144
0.000234144
0.000221341
0.000166122
0.000234211
0.000234987
0.00022597
0.000148052
0.000234211
1.37712e-05
1.37213e-05
0.000221346
0.000234211
0.00016612
0.00023499
0.000225971
0.000234211
0.00014806
0.000119386
0.000119371
0.000239489
0.000111534
0.000111533
0.000139478
3.23899e-05
0.000151542
3.22772e-05
1.37724e-05
1.37224e-05
0.000139459
3.23865e-05
0.00015154
3.22735e-05
0.000234144
0.000234144
0.000234144
0.000234144
0.000234144
0.000234144
0.000234144
0.000221351
0.000166124
0.000234211
0.000234989
0.000225972
0.000148072
0.000234211
1.37713e-05
1.37213e-05
0.000221346
0.000234211
0.000166119
0.00023499
0.000225972
0.000234211
0.000148056
0.000119385
0.000119371
0.000239492
0.000111548
0.000111543
0.000139468
3.239e-05
0.000151547
3.22772e-05
1.37726e-05
1.37226e-05
0.000139468
3.23865e-05
0.000151542
3.22736e-05
0.000234144
0.000234144
0.000234144
0.000234144
0.000234144
0.000234144
0.000234144
0.000221342
0.000166123
0.000234211
0.000234989
0.000225971
0.000148054
0.000234211
1.37712e-05
1.37213e-05
0.00022134
0.000234211
0.000166119
0.000234991
0.000225971
0.000234211
0.000148052
0.000119386
0.000119372
0.000239487
0.000111537
0.000111536
0.000139459
3.239e-05
0.000151544
3.22772e-05
1.37727e-05
1.37226e-05
0.00013945
3.23866e-05
0.000151543
3.22736e-05
0.000234144
0.000234144
0.000234144
0.000234144
0.000234144
0.000234144
0.000234144
0.000221336
0.000166122
0.000234211
0.000234988
0.000225969
0.000148048
0.000234211
1.37713e-05
1.37213e-05
0.000221336
0.000234211
0.000166118
0.00023499
0.000225968
0.000234211
0.000148045
0.000119388
0.000119375
0.00023949
0.000111534
0.000111528
0.000139442
3.23902e-05
0.000151543
3.22771e-05
1.37727e-05
1.37226e-05
0.000139445
3.23867e-05
0.000151538
3.22736e-05
0.000234144
0.000234144
0.000234144
0.000234144
0.000234144
0.000234144
0.000234144
0.000221335
0.00016612
0.000234211
0.000234986
0.000225967
0.000148045
0.000234211
1.37714e-05
1.37213e-05
0.000221335
0.000234211
0.000166117
0.000234991
0.000225967
0.000234211
0.000148041
0.000119387
0.000119373
0.000239484
0.000111524
0.000111517
0.000139467
3.239e-05
0.00015154
3.22772e-05
1.37726e-05
1.37226e-05
0.000139458
3.23866e-05
0.000151538
3.22736e-05
0.000234144
0.000234144
0.000234144
0.000234143
0.000234144
0.000234144
0.000234144
0.000221341
0.000166123
0.000234211
0.000234993
0.000225969
0.000148056
0.000234211
1.37713e-05
1.37213e-05
0.000221341
0.000234211
0.000166118
0.000234989
0.000225968
0.000234211
0.000148048
0.000119386
0.000119371
0.000239489
0.000111527
0.000111522
0.000139491
3.23898e-05
0.000151542
3.22772e-05
1.37725e-05
1.37225e-05
0.000139485
3.23865e-05
0.000151539
3.22736e-05
0.000234143
0.000234144
0.000234144
0.000234144
0.000234144
0.000234143
0.000234144
0.000221349
0.000166125
0.000234211
0.000234987
0.000225973
0.000148069
0.000234211
1.37712e-05
1.37213e-05
0.000221344
0.000234211
0.000166121
0.000234994
0.000225971
0.000234211
0.000148058
0.000119388
0.000119373
0.000239491
0.000111539
0.000111535
0.000139501
3.23898e-05
0.000151546
3.22773e-05
1.37724e-05
1.37225e-05
0.000139492
3.23864e-05
0.000151542
3.22737e-05
0.000234144
0.000234144
0.000234144
0.000234144
0.000234144
0.000234144
0.000234144
0.000221349
0.000166126
0.000234211
0.00023499
0.000225973
0.000148071
0.000234211
1.37711e-05
1.37212e-05
0.000221349
0.000234211
0.000166121
0.00023499
0.000225973
0.000234211
0.000148067
0.000119386
0.000119372
0.00023949
0.000111548
0.000111545
0.00013947
3.23899e-05
0.000151546
3.22772e-05
1.37725e-05
1.37226e-05
0.000139471
3.23865e-05
0.000151544
3.22737e-05
0.000234144
0.000234144
0.000234144
0.000234144
0.000234144
0.000234144
0.000234144
0.000221344
0.000166123
0.000234211
0.000234989
0.000225972
0.000148059
0.000234211
1.37712e-05
1.37213e-05
0.000221343
0.000234211
0.000166121
0.00023499
0.000225972
0.000234211
0.000148054
0.000119388
0.000119373
0.000239486
0.000111552
0.000111547
0.000139457
3.239e-05
0.000151542
3.22772e-05
1.37727e-05
1.37226e-05
0.000139447
3.23867e-05
0.00015154
3.22736e-05
0.000234144
0.000234144
0.000234144
0.000234144
0.000234144
0.000234144
0.000234144
0.000221341
0.000166121
0.000234211
0.000234987
0.000225969
0.000148046
0.000234211
1.37714e-05
1.37213e-05
0.000221341
0.000234211
0.000166117
0.00023499
0.000225968
0.000234211
0.000148042
0.000119386
0.000119371
0.000239486
0.000111529
0.000111526
0.000139445
3.239e-05
0.00015154
3.22771e-05
1.37726e-05
1.37226e-05
0.000139443
3.23866e-05
0.000151536
3.22735e-05
0.000234144
0.000234144
0.000234144
0.000234144
0.000234144
0.000234144
0.000234144
0.000221338
0.000166121
0.000234211
0.000234988
0.000225968
0.000148054
0.000234211
1.37714e-05
1.37213e-05
0.000221334
0.000234211
0.000166117
0.000234989
0.000225967
0.000234211
0.000148041
0.000119385
0.000119369
0.000239489
0.000111535
0.000111528
0.000139474
3.239e-05
0.000151542
3.22772e-05
1.37726e-05
1.37225e-05
0.000139458
3.23866e-05
0.000151538
3.22736e-05
0.000234144
0.000234144
0.000234144
0.000234144
0.000234144
0.000234144
0.000234144
0.000221346
0.000166124
0.000234211
0.000234992
0.000225971
0.000148065
0.000234211
1.37713e-05
1.37213e-05
0.000221341
0.000234211
0.000166118
0.000234992
0.000225969
0.000234211
0.000148054
1.37738e-05
1.37232e-05
1.37726e-05
1.37221e-05
0.000119436
0.00011942
0.000239487
0.000111537
0.000111533
1.37232e-05
1.37733e-05
1.3722e-05
1.37721e-05
0.000239638
0.000111544
0.000111538
0.000119388
0.000119372
0.000139463
3.23904e-05
3.22762e-05
0.000151601
0.000221343
0.000166181
0.000234213
0.000234991
0.000148053
0.000234211
0.00022601
0.000221342
0.000166171
0.000234213
0.00023499
0.000148041
0.000234211
0.00022601
0.000151543
3.22771e-05
3.239e-05
0.000139451
0.000151543
3.22762e-05
3.23892e-05
0.00013945
0.000225969
0.00023499
0.000148055
0.000234211
0.000166121
0.000234211
0.000221339
0.000225969
0.000234991
0.00014804
0.000234211
0.000166113
0.000234211
0.000221339
0.000119423
0.00011944
0.000239488
0.000111539
0.000111547
1.37738e-05
1.37233e-05
1.37224e-05
1.37725e-05
0.000239631
0.000111541
0.000111547
0.000119375
0.000119391
1.37233e-05
1.37733e-05
0.000221341
0.00016617
0.000234213
0.000234986
0.000148039
0.000234211
0.00022601
0.000139459
3.23863e-05
3.22722e-05
0.000151597
0.00022134
0.000234213
0.000166164
0.000234993
0.000234211
0.000148027
0.000226009
0.00015154
3.22733e-05
3.23864e-05
0.00013945
0.000225968
0.000234987
0.000148039
0.000234211
0.00016611
0.000234211
0.000221338
0.00015154
3.22722e-05
3.23851e-05
0.000139451
0.000225968
0.000234993
0.000234211
0.000148035
0.000234211
0.000166104
0.000221339
0.000139461
3.23897e-05
3.22758e-05
0.0001516
0.000221342
0.000234213
0.000166119
0.00023499
0.000234211
0.000148048
0.000226011
0.000139464
3.2387e-05
3.22742e-05
0.000151601
0.00022597
0.000234988
0.000148056
0.000234211
0.000166122
0.000234211
0.000221339
0.000151543
3.22757e-05
3.23886e-05
0.000139453
0.00022597
0.000234989
0.000234211
0.000148045
0.000234211
0.000166118
0.000221339
0.000151543
3.22742e-05
3.2387e-05
0.000139453
0.000119416
0.000119436
0.00023949
0.000111526
0.000111531
1.37732e-05
1.37225e-05
1.37213e-05
1.37713e-05
0.000239645
0.000111532
0.000111537
0.000119365
0.000119385
1.37225e-05
1.37726e-05
0.000221338
0.000234213
0.000166109
0.00023499
0.000234211
0.000148029
0.000226009
0.000139449
3.23879e-05
3.22738e-05
0.000151598
0.000139451
3.23863e-05
3.22733e-05
0.000151599
0.000225968
0.000234988
0.000234211
0.000148047
0.000234211
0.000166117
0.000221336
0.000225968
0.00023499
0.000234211
0.00014803
0.000234211
0.000166107
0.000221336
0.000151539
3.22738e-05
3.23867e-05
0.000139441
0.00015154
3.22732e-05
3.23863e-05
0.000139441
1.37725e-05
1.37224e-05
1.37719e-05
1.37218e-05
0.000239633
0.000111535
0.000111531
0.000119386
0.000119371
1.37224e-05
1.37725e-05
1.37218e-05
1.37719e-05
1.37733e-05
1.37232e-05
1.37721e-05
1.37221e-05
0.000119388
0.000119372
0.000239487
0.000111543
0.000111538
1.37232e-05
1.37732e-05
1.3722e-05
1.3772e-05
0.000239639
0.000111545
0.000111539
0.000119387
0.000119372
0.000139476
3.23892e-05
0.000151541
3.22762e-05
0.000221347
0.000166122
0.000234211
0.000234991
0.00022597
0.00014806
0.000234211
0.000221346
0.000166113
0.000234211
0.000234987
0.00022597
0.000148045
0.000234211
0.000151545
3.22772e-05
3.239e-05
0.000139469
0.000151546
3.22762e-05
3.23892e-05
0.000139469
0.000225971
0.000234991
0.000148057
0.000234211
0.000166122
0.000234211
0.000221344
0.000225971
0.000234986
0.000148046
0.000234211
0.000166114
0.000234211
0.000221344
0.000119375
0.000119391
0.00023949
0.000111541
0.000111545
1.37733e-05
1.37233e-05
1.37224e-05
1.37724e-05
0.000239645
0.000111542
0.000111552
0.000119374
0.00011939
1.37233e-05
1.37732e-05
0.000221344
0.00016611
0.000234211
0.000234988
0.000225969
0.000148044
0.000234211
0.000139473
3.23851e-05
0.000151539
3.22722e-05
0.000221344
0.000234211
0.000166106
0.000234993
0.000225969
0.000234211
0.000148037
0.000151543
3.22734e-05
3.23864e-05
0.000139456
0.00022597
0.000234987
0.00014804
0.000234211
0.000166111
0.000234211
0.000221339
0.000151543
3.22722e-05
3.23852e-05
0.000139457
0.00022597
0.000234993
0.000234211
0.000148032
0.000234211
0.000166105
0.000221339
0.000139462
3.23886e-05
0.000151541
3.22757e-05
0.000221343
0.000234211
0.000166119
0.000234992
0.00022597
0.000234211
0.000148049
0.000139464
3.2387e-05
0.000151541
3.22742e-05
0.000225971
0.000234992
0.000148064
0.000234211
0.000166122
0.000234211
0.000221347
0.000151543
3.22758e-05
3.23885e-05
0.00013948
0.000225971
0.000234989
0.000234211
0.00014806
0.000234211
0.000166119
0.000221347
0.000151543
3.22742e-05
3.23869e-05
0.00013948
0.000119366
0.000119387
0.000239487
0.000111533
0.000111541
1.37726e-05
1.37225e-05
1.37213e-05
1.37713e-05
0.000239633
0.000111529
0.000111543
0.000119366
0.000119386
1.37225e-05
1.37725e-05
0.000221342
0.000234211
0.000166108
0.00023499
0.000225969
0.000234211
0.000148035
0.00013946
3.23866e-05
0.000151537
3.22738e-05
0.00013946
3.23863e-05
0.000151538
3.22732e-05
0.000225971
0.000234991
0.000234211
0.000148057
0.000234211
0.000166118
0.000221346
0.000225971
0.000234993
0.000234211
0.000148046
0.000234211
0.000166108
0.000221345
0.000151541
3.22739e-05
3.23866e-05
0.000139474
0.000151541
3.22733e-05
3.23862e-05
0.000139473
1.37725e-05
1.37224e-05
1.37719e-05
1.37218e-05
0.000239633
0.000111547
0.000111544
0.000119384
0.00011937
1.37224e-05
1.37723e-05