/*--------------------------------*- C++ -*----------------------------------*\
| =========                 |                                                 |
| \\      /  F ield         | OpenFOAM: The Open Source CFD Toolbox           |
|  \\    /   O peration     | Version:  2206                                  |
|   \\  /    A nd           | Website:  www.openfoam.com                      |
|    \\/     M anipulation  |                                                 |
\*---------------------------------------------------------------------------*/
FoamFile
{
    version     2.0;
    format      ascii;
    arch        "LSB;label=32;scalar=64";
    class       volScalarField;
    location    "3";
    object      p;
}
// * * * * * * * * * * * * * * * * * * * * * * * * * * * * * * * * * * * * * //

dimensions      [0 2 -2 0 0 0 0];

internalField   nonuniform List<scalar> 
171728
(
0.00399955
0.00399956
0.00399955
0.00400246
0.00394967
0.00394958
0.00394957
0.00395198
0.00390707
0.00390704
0.00390704
0.00390949
0.00386461
0.00386459
0.00386458
0.00386704
0.00382215
0.00382213
0.00382213
0.00382459
0.0037797
0.00377968
0.00377968
0.00378214
0.00373725
0.00373723
0.00373723
0.00373968
0.00369479
0.00369477
0.00369477
0.00369723
0.00365234
0.00365232
0.00365232
0.00365478
0.00360989
0.00360987
0.00360987
0.00361233
0.00356744
0.00356742
0.00356742
0.00356987
0.00352498
0.00352496
0.00352496
0.00352742
0.00348253
0.00348251
0.00348251
0.00348497
0.00344008
0.00344006
0.00344006
0.00344251
0.00339763
0.00339761
0.00339761
0.00340006
0.00335517
0.00335515
0.00335515
0.00335761
0.00331272
0.0033127
0.0033127
0.00331516
0.00327027
0.00327025
0.00327025
0.0032727
0.00322782
0.0032278
0.00322779
0.00323025
0.00318536
0.00318534
0.00318534
0.0031878
0.00314291
0.00314289
0.00314289
0.00314535
0.00310046
0.00310044
0.00310044
0.00310289
0.003058
0.00305798
0.00305798
0.00306044
0.00301555
0.00301553
0.00301553
0.00301799
0.0029731
0.00297308
0.00297308
0.00297553
0.00293065
0.00293063
0.00293063
0.00293308
0.00288819
0.00288817
0.00288817
0.00289063
0.00284574
0.00284572
0.00284572
0.00284818
0.00280329
0.00280327
0.00280327
0.00280572
0.00276084
0.00276082
0.00276082
0.00276327
0.00271838
0.00271836
0.00271836
0.00272082
0.00267593
0.00267591
0.00267591
0.00267837
0.00263348
0.00263346
0.00263346
0.00263591
0.00259103
0.00259101
0.00259101
0.00259346
0.00254857
0.00254855
0.00254855
0.00255101
0.00250612
0.0025061
0.0025061
0.00250856
0.00246367
0.00246365
0.00246365
0.0024661
0.00242122
0.0024212
0.0024212
0.00242365
0.00237876
0.00237874
0.00237874
0.0023812
0.00233631
0.00233629
0.00233629
0.00233875
0.00229386
0.00229384
0.00229384
0.00229629
0.00225141
0.00225139
0.00225139
0.00225384
0.00220895
0.00220893
0.00220893
0.00221139
0.0021665
0.00216648
0.00216648
0.00216894
0.00212405
0.00212403
0.00212403
0.00212648
0.0020816
0.00208157
0.00208157
0.00208403
0.00203914
0.00203912
0.00203912
0.00204158
0.00199669
0.00199667
0.00199667
0.00199913
0.00195424
0.00195422
0.00195422
0.00195667
0.00191179
0.00191176
0.00191176
0.00191422
0.00186933
0.00186931
0.00186931
0.00187177
0.00182688
0.00182686
0.00182686
0.00182932
0.00178443
0.00178441
0.00178441
0.00178686
0.00174198
0.00174195
0.00174195
0.00174441
0.00169952
0.0016995
0.0016995
0.00170196
0.00165707
0.00165705
0.00165705
0.00165951
0.00161462
0.0016146
0.0016146
0.00161705
0.00157217
0.00157214
0.00157214
0.0015746
0.00152971
0.00152969
0.00152969
0.00153215
0.00148726
0.00148724
0.00148724
0.0014897
0.00144481
0.00144479
0.00144479
0.00144724
0.00140236
0.00140233
0.00140233
0.00140479
0.0013599
0.00135988
0.00135988
0.00136234
0.00131745
0.00131743
0.00131743
0.00131989
0.001275
0.00127498
0.00127498
0.00127743
0.00123255
0.00123252
0.00123252
0.00123498
0.00119009
0.00119007
0.00119007
0.00119253
0.00114764
0.00114762
0.00114762
0.00115008
0.00110519
0.00110517
0.00110517
0.00110762
0.00106274
0.00106272
0.00106271
0.00106517
0.00102028
0.00102026
0.00102026
0.00102272
0.000977831
0.00097781
0.00097781
0.000980267
0.000935378
0.000935357
0.000935358
0.000937814
0.000892926
0.000892905
0.000892905
0.000895361
0.000850473
0.000850452
0.000850453
0.000852909
0.000808021
0.000808
0.000808
0.000810456
0.000765569
0.000765548
0.000765548
0.000768004
0.000723116
0.000723095
0.000723095
0.000725552
0.000680664
0.000680643
0.000680643
0.000683099
0.000638211
0.00063819
0.00063819
0.000640646
0.000595758
0.000595737
0.000595737
0.000598194
0.000553306
0.000553285
0.000553285
0.000555741
0.000510854
0.000510833
0.000510833
0.000513289
0.000468401
0.00046838
0.00046838
0.000470836
0.000425948
0.000425927
0.000425927
0.000428383
0.000383496
0.000383474
0.000383475
0.000385931
0.000341044
0.000341023
0.000341023
0.000343479
0.000298591
0.00029857
0.00029857
0.000301027
0.000256138
0.000256117
0.000256117
0.000258574
0.000213685
0.000213664
0.000213664
0.00021612
0.000171233
0.000171212
0.000171211
0.000173668
0.000128781
0.000128761
0.00012876
0.000131217
8.63424e-05
8.63141e-05
8.63127e-05
8.8765e-05
4.44884e-05
4.39818e-05
4.39799e-05
4.63013e-05
1.08527e-05
1.11983e-05
1.11959e-05
1.08968e-05
0.00401207
0.00401238
0.00401238
0.00401208
0.00401238
0.00401238
0.00401322
0.00401322
0.00401322
0.00401322
0.00401238
0.00401238
0.00401207
0.00401238
0.00401238
0.00401208
0.00400246
0.00395766
0.00399955
0.00399956
0.00396025
0.00396025
0.00400246
0.00395766
0.00399956
0.00399955
0.00396025
0.00396024
0.00399956
0.00396025
0.00396025
0.00400246
0.00395766
0.00399956
0.00396025
0.00396025
0.00395766
0.00395198
0.00391521
0.00394957
0.00394957
0.00391765
0.00391765
0.00395198
0.00391521
0.00394957
0.00394957
0.00391765
0.00391765
0.00394957
0.00391765
0.00391765
0.00395198
0.0039152
0.00394957
0.00391765
0.00391765
0.00391521
0.00390949
0.00387275
0.00390704
0.00390704
0.0038752
0.0038752
0.0039095
0.00387275
0.00390704
0.00390704
0.0038752
0.0038752
0.00390704
0.0038752
0.0038752
0.00390949
0.00387275
0.00390704
0.0038752
0.0038752
0.00387275
0.00386704
0.0038303
0.00386459
0.00386459
0.00383275
0.00383275
0.00386704
0.0038303
0.00386458
0.00386458
0.00383275
0.00383275
0.00386459
0.00383275
0.00383275
0.00386704
0.0038303
0.00386458
0.00383275
0.00383275
0.0038303
0.00382459
0.00378785
0.00382213
0.00382213
0.00379029
0.00379029
0.00382459
0.00378785
0.00382213
0.00382213
0.00379029
0.00379029
0.00382213
0.00379029
0.00379029
0.00382459
0.00378785
0.00382213
0.00379029
0.00379029
0.00378785
0.00378214
0.0037454
0.00377968
0.00377968
0.00374784
0.00374784
0.00378214
0.0037454
0.00377968
0.00377968
0.00374784
0.00374784
0.00377968
0.00374784
0.00374784
0.00378214
0.0037454
0.00377968
0.00374784
0.00374784
0.0037454
0.00373968
0.00370294
0.00373723
0.00373723
0.00370539
0.00370539
0.00373968
0.00370294
0.00373723
0.00373723
0.00370539
0.00370539
0.00373723
0.00370539
0.00370539
0.00373968
0.00370294
0.00373723
0.00370539
0.00370539
0.00370294
0.00369723
0.00366049
0.00369477
0.00369477
0.00366293
0.00366293
0.00369723
0.00366049
0.00369477
0.00369477
0.00366293
0.00366293
0.00369477
0.00366294
0.00366294
0.00369723
0.00366049
0.00369477
0.00366293
0.00366294
0.00366049
0.00365478
0.00361804
0.00365232
0.00365232
0.00362048
0.00362048
0.00365478
0.00361804
0.00365232
0.00365232
0.00362048
0.00362048
0.00365232
0.00362048
0.00362048
0.00365478
0.00361804
0.00365232
0.00362048
0.00362048
0.00361804
0.00361233
0.00357558
0.00360987
0.00360987
0.00357803
0.00357803
0.00361233
0.00357558
0.00360987
0.00360987
0.00357803
0.00357803
0.00360987
0.00357803
0.00357803
0.00361233
0.00357558
0.00360987
0.00357803
0.00357803
0.00357558
0.00356987
0.00353313
0.00356742
0.00356742
0.00353558
0.00353558
0.00356987
0.00353313
0.00356742
0.00356742
0.00353558
0.00353558
0.00356742
0.00353558
0.00353558
0.00356987
0.00353313
0.00356742
0.00353558
0.00353558
0.00353313
0.00352742
0.00349068
0.00352496
0.00352496
0.00349312
0.00349312
0.00352742
0.00349068
0.00352496
0.00352496
0.00349312
0.00349312
0.00352496
0.00349312
0.00349312
0.00352742
0.00349068
0.00352496
0.00349312
0.00349312
0.00349068
0.00348497
0.00344823
0.00348251
0.00348251
0.00345067
0.00345067
0.00348497
0.00344823
0.00348251
0.00348251
0.00345067
0.00345067
0.00348251
0.00345067
0.00345067
0.00348497
0.00344823
0.00348251
0.00345067
0.00345067
0.00344823
0.00344251
0.00340577
0.00344006
0.00344006
0.00340822
0.00340822
0.00344251
0.00340578
0.00344006
0.00344006
0.00340822
0.00340822
0.00344006
0.00340822
0.00340822
0.00344251
0.00340577
0.00344006
0.00340822
0.00340822
0.00340577
0.00340006
0.00336332
0.00339761
0.00339761
0.00336577
0.00336577
0.00340006
0.00336332
0.00339761
0.00339761
0.00336577
0.00336577
0.00339761
0.00336577
0.00336577
0.00340006
0.00336332
0.00339761
0.00336577
0.00336577
0.00336332
0.00335761
0.00332087
0.00335515
0.00335515
0.00332331
0.00332331
0.00335761
0.00332087
0.00335515
0.00335515
0.00332331
0.00332331
0.00335515
0.00332331
0.00332331
0.00335761
0.00332087
0.00335515
0.00332331
0.00332331
0.00332087
0.00331516
0.00327842
0.0033127
0.0033127
0.00328086
0.00328086
0.00331516
0.00327842
0.0033127
0.0033127
0.00328086
0.00328086
0.0033127
0.00328086
0.00328086
0.00331516
0.00327842
0.0033127
0.00328086
0.00328086
0.00327842
0.0032727
0.00323596
0.00327025
0.00327025
0.00323841
0.00323841
0.0032727
0.00323596
0.00327025
0.00327025
0.00323841
0.00323841
0.00327025
0.00323841
0.00323841
0.0032727
0.00323596
0.00327025
0.00323841
0.00323841
0.00323596
0.00323025
0.00319351
0.0032278
0.00322779
0.00319595
0.00319595
0.00323025
0.00319351
0.0032278
0.00322779
0.00319595
0.00319595
0.00322779
0.00319595
0.00319596
0.00323025
0.00319351
0.00322779
0.00319595
0.00319596
0.00319351
0.0031878
0.00315106
0.00318534
0.00318534
0.0031535
0.0031535
0.0031878
0.00315106
0.00318534
0.00318534
0.0031535
0.0031535
0.00318534
0.0031535
0.0031535
0.0031878
0.00315106
0.00318534
0.0031535
0.0031535
0.00315106
0.00314535
0.0031086
0.00314289
0.00314289
0.00311105
0.00311105
0.00314534
0.0031086
0.00314289
0.00314289
0.00311105
0.00311105
0.00314289
0.00311105
0.00311105
0.00314535
0.0031086
0.00314289
0.00311105
0.00311105
0.0031086
0.00310289
0.00306615
0.00310044
0.00310044
0.0030686
0.0030686
0.00310289
0.00306615
0.00310044
0.00310044
0.0030686
0.0030686
0.00310044
0.0030686
0.0030686
0.00310289
0.00306615
0.00310044
0.0030686
0.0030686
0.00306615
0.00306044
0.0030237
0.00305798
0.00305798
0.00302614
0.00302614
0.00306044
0.0030237
0.00305798
0.00305798
0.00302614
0.00302614
0.00305798
0.00302614
0.00302614
0.00306044
0.0030237
0.00305798
0.00302614
0.00302614
0.0030237
0.00301799
0.00298125
0.00301553
0.00301553
0.00298369
0.00298369
0.00301799
0.00298125
0.00301553
0.00301553
0.00298369
0.00298369
0.00301553
0.00298369
0.00298369
0.00301799
0.00298125
0.00301553
0.00298369
0.00298369
0.00298125
0.00297553
0.00293879
0.00297308
0.00297308
0.00294124
0.00294124
0.00297553
0.00293879
0.00297308
0.00297308
0.00294124
0.00294124
0.00297308
0.00294124
0.00294124
0.00297554
0.00293879
0.00297308
0.00294124
0.00294124
0.00293879
0.00293308
0.00289634
0.00293063
0.00293063
0.00289879
0.00289879
0.00293308
0.00289634
0.00293063
0.00293063
0.00289879
0.00289879
0.00293063
0.00289879
0.00289879
0.00293308
0.00289634
0.00293063
0.00289879
0.00289879
0.00289634
0.00289063
0.00285389
0.00288817
0.00288817
0.00285633
0.00285633
0.00289063
0.00285389
0.00288817
0.00288817
0.00285633
0.00285633
0.00288817
0.00285633
0.00285633
0.00289063
0.00285389
0.00288817
0.00285633
0.00285633
0.00285389
0.00284818
0.00281144
0.00284572
0.00284572
0.00281388
0.00281388
0.00284818
0.00281144
0.00284572
0.00284572
0.00281388
0.00281388
0.00284572
0.00281388
0.00281388
0.00284818
0.00281144
0.00284572
0.00281388
0.00281388
0.00281144
0.00280572
0.00276898
0.00280327
0.00280327
0.00277143
0.00277143
0.00280572
0.00276898
0.00280327
0.00280327
0.00277143
0.00277143
0.00280327
0.00277143
0.00277143
0.00280572
0.00276898
0.00280327
0.00277143
0.00277143
0.00276898
0.00276327
0.00272653
0.00276082
0.00276082
0.00272898
0.00272898
0.00276327
0.00272653
0.00276082
0.00276082
0.00272898
0.00272898
0.00276082
0.00272898
0.00272898
0.00276327
0.00272653
0.00276082
0.00272898
0.00272898
0.00272653
0.00272082
0.00268408
0.00271836
0.00271836
0.00268652
0.00268652
0.00272082
0.00268408
0.00271836
0.00271836
0.00268652
0.00268652
0.00271836
0.00268652
0.00268652
0.00272082
0.00268408
0.00271836
0.00268652
0.00268652
0.00268408
0.00267837
0.00264163
0.00267591
0.00267591
0.00264407
0.00264407
0.00267837
0.00264163
0.00267591
0.00267591
0.00264407
0.00264407
0.00267591
0.00264407
0.00264407
0.00267837
0.00264163
0.00267591
0.00264407
0.00264407
0.00264163
0.00263591
0.00259917
0.00263346
0.00263346
0.00260162
0.00260162
0.00263591
0.00259917
0.00263346
0.00263346
0.00260162
0.00260162
0.00263346
0.00260162
0.00260162
0.00263591
0.00259917
0.00263346
0.00260162
0.00260162
0.00259917
0.00259346
0.00255672
0.00259101
0.00259101
0.00255917
0.00255917
0.00259346
0.00255672
0.00259101
0.00259101
0.00255917
0.00255917
0.00259101
0.00255917
0.00255917
0.00259346
0.00255672
0.00259101
0.00255917
0.00255917
0.00255672
0.00255101
0.00251427
0.00254855
0.00254855
0.00251671
0.00251671
0.00255101
0.00251427
0.00254855
0.00254855
0.00251671
0.00251671
0.00254855
0.00251671
0.00251671
0.00255101
0.00251427
0.00254855
0.00251671
0.00251671
0.00251427
0.00250856
0.00247182
0.0025061
0.0025061
0.00247426
0.00247426
0.00250856
0.00247182
0.0025061
0.0025061
0.00247426
0.00247426
0.0025061
0.00247426
0.00247426
0.00250856
0.00247182
0.0025061
0.00247426
0.00247426
0.00247182
0.0024661
0.00242936
0.00246365
0.00246365
0.00243181
0.00243181
0.0024661
0.00242936
0.00246365
0.00246365
0.00243181
0.00243181
0.00246365
0.00243181
0.00243181
0.0024661
0.00242936
0.00246365
0.00243181
0.00243181
0.00242936
0.00242365
0.00238691
0.0024212
0.0024212
0.00238936
0.00238936
0.00242365
0.00238691
0.0024212
0.0024212
0.00238936
0.00238936
0.0024212
0.00238936
0.00238936
0.00242365
0.00238691
0.0024212
0.00238936
0.00238936
0.00238691
0.0023812
0.00234446
0.00237874
0.00237874
0.0023469
0.0023469
0.0023812
0.00234446
0.00237874
0.00237874
0.0023469
0.0023469
0.00237874
0.0023469
0.0023469
0.0023812
0.00234446
0.00237874
0.0023469
0.0023469
0.00234446
0.00233875
0.00230201
0.00233629
0.00233629
0.00230445
0.00230445
0.00233875
0.00230201
0.00233629
0.00233629
0.00230445
0.00230445
0.00233629
0.00230445
0.00230445
0.00233875
0.00230201
0.00233629
0.00230445
0.00230445
0.00230201
0.00229629
0.00225955
0.00229384
0.00229384
0.002262
0.002262
0.00229629
0.00225955
0.00229384
0.00229384
0.002262
0.002262
0.00229384
0.002262
0.002262
0.00229629
0.00225955
0.00229384
0.002262
0.002262
0.00225955
0.00225384
0.0022171
0.00225139
0.00225139
0.00221955
0.00221955
0.00225384
0.0022171
0.00225139
0.00225139
0.00221955
0.00221955
0.00225139
0.00221955
0.00221955
0.00225384
0.0022171
0.00225139
0.00221955
0.00221955
0.0022171
0.00221139
0.00217465
0.00220893
0.00220893
0.00217709
0.00217709
0.00221139
0.00217465
0.00220893
0.00220893
0.00217709
0.00217709
0.00220893
0.00217709
0.00217709
0.00221139
0.00217465
0.00220893
0.00217709
0.00217709
0.00217465
0.00216894
0.0021322
0.00216648
0.00216648
0.00213464
0.00213464
0.00216894
0.0021322
0.00216648
0.00216648
0.00213464
0.00213464
0.00216648
0.00213464
0.00213464
0.00216894
0.0021322
0.00216648
0.00213464
0.00213464
0.0021322
0.00212648
0.00208974
0.00212403
0.00212403
0.00209219
0.00209219
0.00212648
0.00208974
0.00212403
0.00212403
0.00209219
0.00209219
0.00212403
0.00209219
0.00209219
0.00212648
0.00208974
0.00212403
0.00209219
0.00209219
0.00208974
0.00208403
0.00204729
0.00208157
0.00208157
0.00204974
0.00204974
0.00208403
0.00204729
0.00208157
0.00208157
0.00204974
0.00204974
0.00208157
0.00204974
0.00204974
0.00208403
0.00204729
0.00208157
0.00204974
0.00204974
0.00204729
0.00204158
0.00200484
0.00203912
0.00203912
0.00200728
0.00200728
0.00204158
0.00200484
0.00203912
0.00203912
0.00200728
0.00200728
0.00203912
0.00200728
0.00200728
0.00204158
0.00200484
0.00203912
0.00200728
0.00200728
0.00200484
0.00199913
0.00196239
0.00199667
0.00199667
0.00196483
0.00196483
0.00199913
0.00196239
0.00199667
0.00199667
0.00196483
0.00196483
0.00199667
0.00196483
0.00196483
0.00199913
0.00196239
0.00199667
0.00196483
0.00196483
0.00196239
0.00195667
0.00191993
0.00195422
0.00195422
0.00192238
0.00192238
0.00195667
0.00191993
0.00195422
0.00195422
0.00192238
0.00192238
0.00195422
0.00192238
0.00192238
0.00195667
0.00191993
0.00195422
0.00192238
0.00192238
0.00191993
0.00191422
0.00187748
0.00191176
0.00191176
0.00187992
0.00187992
0.00191422
0.00187748
0.00191176
0.00191176
0.00187992
0.00187992
0.00191176
0.00187992
0.00187992
0.00191422
0.00187748
0.00191176
0.00187992
0.00187992
0.00187748
0.00187177
0.00183503
0.00186931
0.00186931
0.00183747
0.00183747
0.00187177
0.00183503
0.00186931
0.00186931
0.00183747
0.00183747
0.00186931
0.00183747
0.00183747
0.00187177
0.00183503
0.00186931
0.00183747
0.00183747
0.00183503
0.00182932
0.00179257
0.00182686
0.00182686
0.00179502
0.00179502
0.00182932
0.00179258
0.00182686
0.00182686
0.00179502
0.00179502
0.00182686
0.00179502
0.00179502
0.00182932
0.00179257
0.00182686
0.00179502
0.00179502
0.00179257
0.00178686
0.00175012
0.00178441
0.00178441
0.00175257
0.00175257
0.00178686
0.00175012
0.00178441
0.00178441
0.00175257
0.00175257
0.00178441
0.00175257
0.00175257
0.00178686
0.00175012
0.00178441
0.00175257
0.00175257
0.00175012
0.00174441
0.00170767
0.00174195
0.00174195
0.00171012
0.00171012
0.00174441
0.00170767
0.00174195
0.00174195
0.00171012
0.00171012
0.00174195
0.00171012
0.00171012
0.00174441
0.00170767
0.00174195
0.00171012
0.00171012
0.00170767
0.00170196
0.00166522
0.0016995
0.0016995
0.00166766
0.00166766
0.00170196
0.00166522
0.0016995
0.0016995
0.00166766
0.00166766
0.0016995
0.00166766
0.00166766
0.00170196
0.00166522
0.0016995
0.00166766
0.00166766
0.00166522
0.00165951
0.00162277
0.00165705
0.00165705
0.00162521
0.00162521
0.00165951
0.00162277
0.00165705
0.00165705
0.00162521
0.00162521
0.00165705
0.00162521
0.00162521
0.00165951
0.00162277
0.00165705
0.00162521
0.00162521
0.00162277
0.00161705
0.00158031
0.0016146
0.0016146
0.00158276
0.00158276
0.00161705
0.00158031
0.0016146
0.0016146
0.00158276
0.00158276
0.0016146
0.00158276
0.00158276
0.00161705
0.00158031
0.0016146
0.00158276
0.00158276
0.00158031
0.0015746
0.00153786
0.00157214
0.00157214
0.00154031
0.00154031
0.0015746
0.00153786
0.00157214
0.00157214
0.00154031
0.00154031
0.00157214
0.00154031
0.00154031
0.0015746
0.00153786
0.00157214
0.00154031
0.00154031
0.00153786
0.00153215
0.00149541
0.00152969
0.00152969
0.00149785
0.00149785
0.00153215
0.00149541
0.00152969
0.00152969
0.00149785
0.00149785
0.00152969
0.00149785
0.00149785
0.00153215
0.00149541
0.00152969
0.00149785
0.00149785
0.00149541
0.0014897
0.00145295
0.00148724
0.00148724
0.0014554
0.0014554
0.0014897
0.00145296
0.00148724
0.00148724
0.0014554
0.0014554
0.00148724
0.0014554
0.0014554
0.0014897
0.00145295
0.00148724
0.0014554
0.0014554
0.00145295
0.00144724
0.0014105
0.00144479
0.00144479
0.00141295
0.00141295
0.00144724
0.0014105
0.00144479
0.00144479
0.00141295
0.00141295
0.00144479
0.00141295
0.00141295
0.00144724
0.0014105
0.00144479
0.00141295
0.00141295
0.0014105
0.00140479
0.00136805
0.00140233
0.00140233
0.0013705
0.00137049
0.00140479
0.00136805
0.00140233
0.00140233
0.00137049
0.00137049
0.00140233
0.0013705
0.0013705
0.00140479
0.00136805
0.00140233
0.0013705
0.0013705
0.00136805
0.00136234
0.0013256
0.00135988
0.00135988
0.00132804
0.00132804
0.00136234
0.0013256
0.00135988
0.00135988
0.00132804
0.00132804
0.00135988
0.00132804
0.00132804
0.00136234
0.0013256
0.00135988
0.00132804
0.00132804
0.0013256
0.00131989
0.00128314
0.00131743
0.00131743
0.00128559
0.00128559
0.00131989
0.00128315
0.00131743
0.00131743
0.00128559
0.00128559
0.00131743
0.00128559
0.00128559
0.00131989
0.00128315
0.00131743
0.00128559
0.00128559
0.00128315
0.00127743
0.00124069
0.00127498
0.00127498
0.00124314
0.00124314
0.00127743
0.00124069
0.00127498
0.00127498
0.00124314
0.00124314
0.00127498
0.00124314
0.00124314
0.00127743
0.00124069
0.00127498
0.00124314
0.00124314
0.00124069
0.00123498
0.00119824
0.00123252
0.00123252
0.00120068
0.00120068
0.00123498
0.00119824
0.00123252
0.00123252
0.00120068
0.00120068
0.00123252
0.00120068
0.00120068
0.00123498
0.00119824
0.00123252
0.00120068
0.00120068
0.00119824
0.00119253
0.00115579
0.00119007
0.00119007
0.00115823
0.00115823
0.00119253
0.00115579
0.00119007
0.00119007
0.00115823
0.00115823
0.00119007
0.00115823
0.00115823
0.00119253
0.00115579
0.00119007
0.00115823
0.00115823
0.00115579
0.00115008
0.00111333
0.00114762
0.00114762
0.00111578
0.00111578
0.00115008
0.00111334
0.00114762
0.00114762
0.00111578
0.00111578
0.00114762
0.00111578
0.00111578
0.00115008
0.00111333
0.00114762
0.00111578
0.00111578
0.00111333
0.00110762
0.00107088
0.00110517
0.00110517
0.00107333
0.00107333
0.00110762
0.00107088
0.00110517
0.00110517
0.00107333
0.00107333
0.00110517
0.00107333
0.00107333
0.00110762
0.00107088
0.00110517
0.00107333
0.00107333
0.00107088
0.00106517
0.00102843
0.00106271
0.00106271
0.00103088
0.00103088
0.00106517
0.00102843
0.00106271
0.00106271
0.00103088
0.00103088
0.00106272
0.00103088
0.00103088
0.00106517
0.00102843
0.00106271
0.00103088
0.00103088
0.00102843
0.00102272
0.000985979
0.00102026
0.00102026
0.000988423
0.000988423
0.00102272
0.000985979
0.00102026
0.00102026
0.000988423
0.000988423
0.00102026
0.000988423
0.000988424
0.00102272
0.000985978
0.00102026
0.000988423
0.000988423
0.000985979
0.000980267
0.000943526
0.00097781
0.00097781
0.000945971
0.000945971
0.000980266
0.000943526
0.00097781
0.00097781
0.00094597
0.000945971
0.000977811
0.000945971
0.000945971
0.000980266
0.000943526
0.00097781
0.000945971
0.000945971
0.000943526
0.000937814
0.000901073
0.000935358
0.000935357
0.000903518
0.000903518
0.000937814
0.000901073
0.000935357
0.000935357
0.000903518
0.000903518
0.000935358
0.000903518
0.000903518
0.000937814
0.000901073
0.000935357
0.000903518
0.000903518
0.000901073
0.000895361
0.000858621
0.000892905
0.000892905
0.000861066
0.000861065
0.000895361
0.000858621
0.000892905
0.000892905
0.000861065
0.000861066
0.000892905
0.000861066
0.000861066
0.000895361
0.000858621
0.000892905
0.000861066
0.000861066
0.000858621
0.000852909
0.000816168
0.000850452
0.000850452
0.000818613
0.000818613
0.000852909
0.000816168
0.000850452
0.000850453
0.000818613
0.000818613
0.000850453
0.000818613
0.000818613
0.000852909
0.000816168
0.000850453
0.000818613
0.000818613
0.000816168
0.000810456
0.000773716
0.000808
0.000808
0.000776161
0.00077616
0.000810456
0.000773716
0.000808
0.000808
0.000776161
0.000776161
0.000808
0.000776161
0.000776161
0.000810456
0.000773716
0.000808
0.000776161
0.000776161
0.000773716
0.000768004
0.000731263
0.000765548
0.000765547
0.000733708
0.000733708
0.000768004
0.000731264
0.000765547
0.000765548
0.000733708
0.000733708
0.000765548
0.000733708
0.000733709
0.000768004
0.000731263
0.000765548
0.000733708
0.000733708
0.000731264
0.000725551
0.000688811
0.000723095
0.000723095
0.000691256
0.000691256
0.000725551
0.000688811
0.000723095
0.000723095
0.000691256
0.000691256
0.000723095
0.000691256
0.000691256
0.000725552
0.000688811
0.000723095
0.000691256
0.000691256
0.000688811
0.000683099
0.000646358
0.000680643
0.000680642
0.000648803
0.000648803
0.000683099
0.000646358
0.000680643
0.000680643
0.000648803
0.000648803
0.000680643
0.000648803
0.000648803
0.000683099
0.000646358
0.000680643
0.000648803
0.000648803
0.000646358
0.000640646
0.000603905
0.00063819
0.00063819
0.00060635
0.00060635
0.000640646
0.000603905
0.00063819
0.00063819
0.00060635
0.00060635
0.00063819
0.00060635
0.00060635
0.000640646
0.000603905
0.00063819
0.00060635
0.00060635
0.000603905
0.000598193
0.000561453
0.000595737
0.000595737
0.000563898
0.000563898
0.000598193
0.000561453
0.000595737
0.000595737
0.000563898
0.000563898
0.000595737
0.000563898
0.000563898
0.000598193
0.000561453
0.000595737
0.000563898
0.000563898
0.000561453
0.000555741
0.000519001
0.000553285
0.000553285
0.000521446
0.000521446
0.000555741
0.000519001
0.000553285
0.000553285
0.000521446
0.000521446
0.000553285
0.000521446
0.000521446
0.000555741
0.000519001
0.000553285
0.000521446
0.000521446
0.000519001
0.000513289
0.000476548
0.000510833
0.000510833
0.000478993
0.000478993
0.000513289
0.000476548
0.000510833
0.000510833
0.000478993
0.000478993
0.000510833
0.000478993
0.000478993
0.000513289
0.000476548
0.000510833
0.000478993
0.000478993
0.000476548
0.000470836
0.000434095
0.00046838
0.00046838
0.00043654
0.00043654
0.000470836
0.000434095
0.00046838
0.00046838
0.00043654
0.00043654
0.00046838
0.00043654
0.00043654
0.000470836
0.000434095
0.00046838
0.00043654
0.00043654
0.000434095
0.000428383
0.000391643
0.000425927
0.000425927
0.000394088
0.000394087
0.000428383
0.000391643
0.000425927
0.000425927
0.000394087
0.000394088
0.000425927
0.000394087
0.000394088
0.000428383
0.000391643
0.000425927
0.000394088
0.000394087
0.000391643
0.000385931
0.000349191
0.000383475
0.000383474
0.000351635
0.000351635
0.000385931
0.000349191
0.000383474
0.000383475
0.000351635
0.000351636
0.000383475
0.000351635
0.000351636
0.000385931
0.000349191
0.000383474
0.000351636
0.000351636
0.000349191
0.000343479
0.000306739
0.000341023
0.000341022
0.000309183
0.000309183
0.000343479
0.000306739
0.000341023
0.000341023
0.000309183
0.000309183
0.000341023
0.000309183
0.000309184
0.000343479
0.000306738
0.000341023
0.000309184
0.000309184
0.000306739
0.000301027
0.000264285
0.00029857
0.00029857
0.00026673
0.00026673
0.000301026
0.000264286
0.00029857
0.00029857
0.00026673
0.00026673
0.000298571
0.00026673
0.000266731
0.000301027
0.000264285
0.00029857
0.00026673
0.00026673
0.000264286
0.000258573
0.000221832
0.000256117
0.000256117
0.000224277
0.000224277
0.000258573
0.000221832
0.000256117
0.000256117
0.000224277
0.000224277
0.000256117
0.000224277
0.000224277
0.000258574
0.000221832
0.000256117
0.000224277
0.000224277
0.000221832
0.00021612
0.00017938
0.000213664
0.000213664
0.000181825
0.000181825
0.00021612
0.00017938
0.000213664
0.000213664
0.000181824
0.000181824
0.000213664
0.000181825
0.000181825
0.00021612
0.000179379
0.000213664
0.000181824
0.000181824
0.00017938
0.000173668
0.000136929
0.000171212
0.000171212
0.000139373
0.000139374
0.000173668
0.000136929
0.000171212
0.000171211
0.000139373
0.000139373
0.000171212
0.000139374
0.000139374
0.000173668
0.000136928
0.000171212
0.000139373
0.000139373
0.000136929
0.000131217
9.44778e-05
0.000128761
0.000128761
9.69248e-05
9.69252e-05
0.000131217
9.44787e-05
0.000128761
0.00012876
9.69243e-05
9.69241e-05
0.000128761
9.69252e-05
9.69243e-05
0.000131217
9.44769e-05
0.000128761
9.69241e-05
9.69241e-05
9.44774e-05
8.87658e-05
5.20335e-05
8.63142e-05
8.6314e-05
5.45189e-05
5.45205e-05
8.87657e-05
5.20362e-05
8.63134e-05
8.6313e-05
5.4517e-05
5.45174e-05
8.63136e-05
5.4519e-05
5.45164e-05
8.87653e-05
5.20323e-05
8.63134e-05
5.45167e-05
5.45149e-05
5.20306e-05
4.63052e-05
1.39768e-05
4.39825e-05
4.39843e-05
1.59519e-05
1.59522e-05
4.63069e-05
1.39777e-05
4.39804e-05
4.39808e-05
1.59502e-05
1.59466e-05
4.3978e-05
1.59498e-05
1.59449e-05
4.63038e-05
1.39728e-05
4.39768e-05
1.59472e-05
1.5946e-05
1.39714e-05
1.09003e-05
1.11987e-05
1.11993e-05
1.09019e-05
1.11972e-05
1.11948e-05
1.08532e-05
1.0851e-05
1.08506e-05
1.11943e-05
1.08979e-05
1.11946e-05
0.00402074
0.00403036
0.00402521
0.00402521
0.00404722
0.00403425
0.00406257
0.00402837
0.00404721
0.00403425
0.00402837
0.00406256
0.00403873
0.00406632
0.00406632
0.00397706
0.00399043
0.00400248
0.00397505
0.00396618
0.00397719
0.00397704
0.0039904
0.00400246
0.00397503
0.00399955
0.00399955
0.00399955
0.00396034
0.00396034
0.00396034
0.00396034
0.00397668
0.00399899
0.00399977
0.00398333
0.00400187
0.00397683
0.00398413
0.00396629
0.00397719
0.00397668
0.00399977
0.003999
0.00398333
0.00400187
0.00398413
0.00397682
0.00400332
0.0040033
0.0039783
0.003976
0.003976
0.00393621
0.00395184
0.00395195
0.00393617
0.00395185
0.00393617
0.00393621
0.00395184
0.00395194
0.00393617
0.00394967
0.00394967
0.00394967
0.00391769
0.00391769
0.00391769
0.00391769
0.0039363
0.00395196
0.00394962
0.00393891
0.00395195
0.00393622
0.00393896
0.00395185
0.00393616
0.0039363
0.00394962
0.00395195
0.00393891
0.00395195
0.00393896
0.00393622
0.00395192
0.00395191
0.00393645
0.00393618
0.00393618
0.0038938
0.00390968
0.00390968
0.00389379
0.00390968
0.00389379
0.0038938
0.00390968
0.00390968
0.00389379
0.00390707
0.00390707
0.00390707
0.00387522
0.00387522
0.00387522
0.00387522
0.00389387
0.00390965
0.00390705
0.00389643
0.00390962
0.00389383
0.00389644
0.00390968
0.00389379
0.00389387
0.00390705
0.00390964
0.00389642
0.00390962
0.00389644
0.00389383
0.00390968
0.00390968
0.00389398
0.00389379
0.00389379
0.00385135
0.00386723
0.00386723
0.00385134
0.00386724
0.00385134
0.00385135
0.00386723
0.00386723
0.00385134
0.00386461
0.00386461
0.00386461
0.00383277
0.00383277
0.00383277
0.00383277
0.00385141
0.0038672
0.00386459
0.00385397
0.00386717
0.00385138
0.00385398
0.00386724
0.00385134
0.00385141
0.00386459
0.0038672
0.00385397
0.00386717
0.00385398
0.00385138
0.00386724
0.00386724
0.00385153
0.00385134
0.00385134
0.0038089
0.00382478
0.00382478
0.00380889
0.00382479
0.00380889
0.0038089
0.00382478
0.00382478
0.00380889
0.00382215
0.00382215
0.00382215
0.00379031
0.00379031
0.00379031
0.00379031
0.00380896
0.00382475
0.00382214
0.00381152
0.00382472
0.00380893
0.00381153
0.00382479
0.00380889
0.00380896
0.00382214
0.00382475
0.00381152
0.00382472
0.00381153
0.00380892
0.00382478
0.00382478
0.00380907
0.00380889
0.00380889
0.00376645
0.00378233
0.00378233
0.00376644
0.00378235
0.00376642
0.00376645
0.00378233
0.00378233
0.00376644
0.0037797
0.0037797
0.0037797
0.00374786
0.00374786
0.00374786
0.00374786
0.00376651
0.0037823
0.00377969
0.00376907
0.00378226
0.00376647
0.00376907
0.00378233
0.00376644
0.00376651
0.00377969
0.0037823
0.00376907