/*--------------------------------*- C++ -*----------------------------------*\
| =========                 |                                                 |
| \\      /  F ield         | OpenFOAM: The Open Source CFD Toolbox           |
|  \\    /   O peration     | Version:  2206                                  |
|   \\  /    A nd           | Website:  www.openfoam.com                      |
|    \\/     M anipulation  |                                                 |
\*---------------------------------------------------------------------------*/
FoamFile
{
    version     2.0;
    format      ascii;
    arch        "LSB;label=32;scalar=64";
    class       volScalarField;
    location    "3";
    object      Uy;
}
// * * * * * * * * * * * * * * * * * * * * * * * * * * * * * * * * * * * * * //

dimensions      [0 1 -1 0 0 0 0];

internalField   nonuniform List<scalar> 
171728
(
9.86879e-05
0.000100531
-0.000160133
-0.000220644
1.06861e-05
5.96642e-06
-1.00741e-05
-4.00397e-05
5.91259e-07
5.37529e-07
-7.63941e-07
-3.17651e-05
-1.22477e-07
2.44395e-07
-1.52359e-07
-3.14402e-05
-1.6371e-07
2.36998e-07
-1.19418e-07
-3.14228e-05
-1.64969e-07
2.43548e-07
-1.18543e-07
-3.14226e-05
-1.65423e-07
2.32624e-07
-1.18456e-07
-3.14231e-05
-1.66349e-07
2.31028e-07
-1.19048e-07
-3.1425e-05
-1.67101e-07
2.30729e-07
-1.18901e-07
-3.14254e-05
-1.65605e-07
2.30076e-07
-1.16906e-07
-3.14245e-05
-1.6111e-07
2.30232e-07
-1.16153e-07
-3.14237e-05
-1.68619e-07
2.29652e-07
-1.17369e-07
-3.1423e-05
-1.69909e-07
2.28006e-07
-1.17777e-07
-3.1424e-05
-1.6956e-07
2.28412e-07
-1.18043e-07
-3.14223e-05
-1.66965e-07
2.35106e-07
-1.19652e-07
-3.14243e-05
-1.66224e-07
2.33649e-07
-1.19305e-07
-3.14246e-05
-1.67411e-07
2.32045e-07
-1.19415e-07
-3.1425e-05
-1.65345e-07
2.3177e-07
-1.16622e-07
-3.14242e-05
-1.56779e-07
2.45164e-07
-1.15215e-07
-3.14224e-05
-1.59437e-07
2.17645e-07
-1.14168e-07
-3.14215e-05
-1.62647e-07
2.31003e-07
-1.17842e-07
-3.14247e-05
-1.68024e-07
2.285e-07
-1.17249e-07
-3.14242e-05
-1.67581e-07
2.30253e-07
-1.20348e-07
-3.14263e-05
-1.67723e-07
2.29903e-07
-1.19669e-07
-3.14261e-05
-1.67761e-07
2.29181e-07
-1.18969e-07
-3.14255e-05
-1.68496e-07
2.2848e-07
-1.18246e-07
-3.14253e-05
-1.68473e-07
2.27322e-07
-1.1687e-07
-3.14245e-05
-1.68452e-07
2.29072e-07
-1.18446e-07
-3.14238e-05
-1.67916e-07
2.28467e-07
-1.17961e-07
-3.14235e-05
-1.67852e-07
2.30583e-07
-1.20403e-07
-3.14252e-05
-1.67898e-07
2.31194e-07
-1.2016e-07
-3.1425e-05
-1.67557e-07
2.31477e-07
-1.20116e-07
-3.14263e-05
-1.67929e-07
2.28988e-07
-1.18437e-07
-3.14254e-05
-1.68554e-07
2.26732e-07
-1.16679e-07
-3.14251e-05
-1.68202e-07
2.27537e-07
-1.17011e-07
-3.14253e-05
-1.68488e-07
2.26922e-07
-1.16416e-07
-3.14232e-05
-1.67973e-07
2.29951e-07
-1.19797e-07
-3.14266e-05
-1.68027e-07
2.28924e-07
-1.18649e-07
-3.14255e-05
-1.6798e-07
2.31144e-07
-1.22164e-07
-3.14267e-05
-1.68698e-07
2.29931e-07
-1.20283e-07
-3.1429e-05
-1.62607e-07
2.30811e-07
-1.19993e-07
-3.14274e-05
-1.6653e-07
2.40862e-07
-1.17566e-07
-3.14242e-05
-1.67275e-07
2.29505e-07
-1.16819e-07
-3.14245e-05
-1.6821e-07
2.28378e-07
-1.17366e-07
-3.14245e-05
-1.68028e-07
2.28537e-07
-1.17444e-07
-3.14241e-05
-1.67444e-07
2.30632e-07
-1.19924e-07
-3.14258e-05
-1.67711e-07
2.29472e-07
-1.19034e-07
-3.14265e-05
-1.67774e-07
2.30023e-07
-1.191e-07
-3.14269e-05
-1.67941e-07
2.29771e-07
-1.18947e-07
-3.14262e-05
-1.6845e-07
2.28496e-07
-1.17003e-07
-3.14244e-05
-1.68688e-07
2.2814e-07
-1.17582e-07
-3.14257e-05
-1.68951e-07
2.27956e-07
-1.17475e-07
-3.14243e-05
-1.68549e-07
2.2908e-07
-1.18747e-07
-3.14253e-05
-1.69321e-07
2.25408e-07
-1.18312e-07
-3.14257e-05
-1.6997e-07
2.22894e-07
-1.19885e-07
-3.14281e-05
-1.69044e-07
2.29309e-07
-1.19291e-07
-3.14268e-05
-1.69789e-07
2.28012e-07
-1.16194e-07
-3.14241e-05
-1.70158e-07
2.26996e-07
-1.14605e-07
-3.14238e-05
-1.70572e-07
2.2618e-07
-1.13199e-07
-3.14201e-05
-1.69464e-07
2.28012e-07
-1.15295e-07
-3.14227e-05
-1.69934e-07
2.26893e-07
-1.1425e-07
-3.14209e-05
-1.69455e-07
2.28847e-07
-1.1647e-07
-3.1423e-05
-1.69582e-07
2.29203e-07
-1.1682e-07
-3.14236e-05
-1.69347e-07
2.28072e-07
-1.15699e-07
-3.14241e-05
-1.70038e-07
2.28405e-07
-1.1594e-07
-3.14227e-05
-1.70173e-07
2.26742e-07
-1.1402e-07
-3.14223e-05
-1.69706e-07
2.27518e-07
-1.14006e-07
-3.14221e-05
-1.69608e-07
2.26709e-07
-1.12736e-07
-3.14202e-05
-1.68126e-07
2.2989e-07
-1.1213e-07
-3.14193e-05
-1.66294e-07
2.30963e-07
-1.04729e-07
-3.14121e-05
-1.6742e-07
2.30833e-07
-1.1337e-07
-3.14189e-05
-1.68959e-07
2.29362e-07
-1.15686e-07
-3.14229e-05
-1.6975e-07
2.27221e-07
-1.1422e-07
-3.14222e-05
-1.69894e-07
2.27546e-07
-1.14413e-07
-3.14219e-05
-1.70459e-07
2.26129e-07
-1.13341e-07
-3.14205e-05
-1.69966e-07
2.27213e-07
-1.15124e-07
-3.1421e-05
-1.69727e-07
2.27863e-07
-1.14113e-07
-3.14212e-05
-1.6958e-07
2.29288e-07
-1.17278e-07
-3.14229e-05
-1.69489e-07
2.28616e-07
-1.1669e-07
-3.14222e-05
-1.69698e-07
2.29328e-07
-1.16529e-07
-3.14241e-05
-1.70118e-07
2.26932e-07
-1.14379e-07
-3.14221e-05
-1.70165e-07
2.26335e-07
-1.13998e-07
-3.14223e-05
-1.70328e-07
2.2712e-07
-1.14472e-07
-3.14213e-05
-1.70174e-07
2.26462e-07
-1.13942e-07
-3.14203e-05
-1.69722e-07
2.27947e-07
-1.15608e-07
-3.14226e-05
-1.69611e-07
2.28693e-07
-1.16035e-07
-3.14227e-05
-1.69531e-07
2.29455e-07
-1.16812e-07
-3.14227e-05
-1.69967e-07
2.28366e-07
-1.15622e-07
-3.14228e-05
-1.69976e-07
2.2787e-07
-1.15479e-07
-3.14225e-05
-1.69744e-07
2.26468e-07
-1.13493e-07
-3.14218e-05
-1.69494e-07
2.26726e-07
-1.14593e-07
-3.14217e-05
-1.70649e-07
2.26315e-07
-1.1803e-07
-3.14188e-05
-2.95539e-07
1.52779e-07
-3.39163e-08
-3.13263e-05
-4.84352e-06
-9.6376e-07
2.88767e-06
-2.58363e-05
-4.87986e-05
-3.56089e-05
4.60988e-05
4.95876e-05
0.000140536
0.000165373
0.000165358
0.000140518
0.000131382
-0.000131422
9.55895e-05
9.55831e-05
-9.56419e-05
-9.56401e-05
0.000131375
-0.000131417
-0.000140563
-0.00016542
-0.000165413
-0.000140544
0.000220633
-1.8831e-05
0.000160009
0.000160045
1.97523e-05
1.97479e-05
0.000220573
-1.88231e-05
0.000100543
-0.000100613
1.17292e-05
-1.17754e-05
-0.000100614
1.17289e-05
-1.17724e-05
-0.00022068
1.88072e-05
-0.000160163
-1.97763e-05
-1.97889e-05
1.87867e-05
3.99887e-05
-3.16321e-05
1.00638e-05
1.00701e-05
1.38065e-06
1.38312e-06
3.99912e-05
-3.16383e-05
5.9775e-06
-6.00926e-06
8.72783e-07
-8.7503e-07
-5.99759e-06
8.71447e-07
-8.85467e-07
-4.00269e-05
3.16602e-05
-1.00734e-05
-1.383e-06
-1.3836e-06
3.16541e-05
3.1734e-05
-3.21201e-05
7.59539e-07
7.66258e-07
1.97315e-07
2.06876e-07
3.17316e-05
-3.21197e-05
5.3402e-07
-5.44234e-07
2.6174e-07
-2.67578e-07
-5.39605e-07
2.63325e-07
-2.65466e-07
-3.17665e-05
3.21489e-05
-7.63263e-07
-1.95096e-07
-2.02771e-07
3.21418e-05
3.14166e-05
-3.21425e-05
1.53796e-07
1.60989e-07
1.26578e-07
1.29994e-07
3.14136e-05
-3.21379e-05
2.45039e-07
-2.48625e-07
2.32621e-07
-2.33462e-07
-2.46173e-07
2.35659e-07
-2.31051e-07
-3.14458e-05
3.21732e-05
-1.55892e-07
-1.19884e-07
-1.19573e-07
3.21665e-05
3.14017e-05
-3.21439e-05
1.24581e-07
1.30566e-07
1.25407e-07
1.31995e-07
3.1406e-05
-3.21304e-05
2.31976e-07
-2.32425e-07
2.32062e-07
-2.31908e-07
-2.30888e-07
2.39968e-07
-2.29401e-07
-3.14288e-05
3.2176e-05
-1.18245e-07
-1.16686e-07
-1.17284e-07
3.21698e-05
3.14022e-05
-3.21408e-05
1.26177e-07
1.41775e-07
1.25544e-07
1.26922e-07
3.14178e-05
-3.21402e-05
2.32778e-07
-2.31915e-07
2.33099e-07
-2.30964e-07
-2.29318e-07
2.3389e-07
-2.30713e-07
-3.14286e-05
3.21767e-05
-1.16984e-07
-1.16203e-07
-1.16875e-07
3.2169e-05
3.14046e-05
-3.21376e-05
1.263e-07
1.2632e-07
1.25885e-07
1.26521e-07
3.14009e-05
-3.21437e-05
2.34697e-07
-2.31287e-07
2.34164e-07
-2.31831e-07
-2.3037e-07
2.32239e-07
-2.32518e-07
-3.14277e-05
3.21764e-05
-1.16728e-07
-1.1691e-07
-1.18068e-07
3.2167e-05
3.14012e-05
-3.21445e-05
1.26326e-07
1.24153e-07
1.23975e-07
1.24522e-07
3.13999e-05
-3.2145e-05
2.31741e-07
-2.31515e-07
2.30878e-07
-2.32448e-07
-2.31406e-07
2.31355e-07
-2.32134e-07
-3.14298e-05
3.21757e-05
-1.173e-07
-1.17105e-07
-1.17998e-07
3.21678e-05
3.13987e-05
-3.21447e-05
1.21778e-07
1.22936e-07
1.2241e-07
1.22582e-07
3.13988e-05
-3.2145e-05
2.30738e-07
-2.32614e-07
2.31254e-07
-2.31629e-07
-2.32769e-07
2.31648e-07
-2.32264e-07
-3.14297e-05
3.21772e-05
-1.17721e-07
-1.15892e-07
-1.17662e-07
3.21692e-05
3.14007e-05
-3.21211e-05
1.24467e-07
1.24933e-07
1.40664e-07
1.23449e-07
3.13989e-05
-3.21451e-05
2.33105e-07
-2.30378e-07
2.41407e-07
-2.29057e-07
-2.29559e-07
2.31481e-07
-2.30774e-07
-3.14287e-05
3.21784e-05
-1.1559e-07
-1.14248e-07
-1.15779e-07
3.21689e-05
3.14203e-05
-3.21459e-05
1.26182e-07
1.25703e-07
1.20543e-07
1.19038e-07
3.13977e-05
-3.21463e-05
2.33776e-07
-2.28659e-07
2.28897e-07
-2.30131e-07
-2.28916e-07
2.30032e-07
-2.30763e-07
-3.14273e-05
3.21772e-05
-1.14715e-07
-1.14626e-07
-1.15952e-07
3.21689e-05
3.13951e-05
-3.21451e-05
1.20079e-07
1.23891e-07
1.19932e-07
1.29395e-07
3.13955e-05
-3.21484e-05
2.28641e-07
-2.30721e-07
2.29644e-07
-2.32703e-07
-2.30011e-07
2.29963e-07
-2.31972e-07
-3.14272e-05
3.21759e-05
-1.15497e-07
-1.16507e-07
-1.19088e-07
3.21688e-05
3.13966e-05
-3.2147e-05
1.18108e-07
1.32215e-07
1.1863e-07
1.32488e-07
3.13942e-05
-3.21485e-05
2.29081e-07
-2.32331e-07
2.28327e-07
-2.3263e-07
-2.30145e-07
2.27595e-07
-2.29873e-07
-3.1429e-05
3.21753e-05
-1.18257e-07
-1.15411e-07
-1.1817e-07
3.21685e-05
3.13999e-05
-3.21462e-05
1.21593e-07
1.31708e-07
1.21817e-07
1.2718e-07
3.13943e-05
-3.21423e-05
2.3359e-07
-2.33106e-07
2.32831e-07
-2.34123e-07
-2.30429e-07
2.3345e-07
-2.31368e-07
-3.14288e-05
3.21751e-05
-1.18279e-07
-1.17577e-07
-1.18199e-07
3.21686e-05
3.14051e-05
-3.21457e-05
1.27144e-07
1.28387e-07
1.2531e-07
1.38384e-07
3.14024e-05
-3.21224e-05
2.3297e-07
-2.33437e-07
2.3196e-07
-2.3306e-07
-2.31777e-07
2.426e-07
-2.30567e-07
-3.14305e-05
3.21763e-05
-1.18629e-07
-1.17247e-07
-1.17473e-07
3.21702e-05
3.14048e-05
-3.21478e-05
1.25196e-07
1.24021e-07
1.21592e-07
1.23349e-07
3.14111e-05
-3.21487e-05
2.31806e-07
-2.32316e-07
2.30702e-07
-2.32686e-07
-2.30341e-07
2.3304e-07
-2.32017e-07
-3.14298e-05
3.21769e-05
-1.17528e-07
-1.16931e-07
-1.17466e-07
3.21694e-05
3.14039e-05
-3.21469e-05
1.26053e-07
1.22832e-07
1.20865e-07
1.22779e-07
3.13985e-05
-3.21481e-05
2.30282e-07
-2.32147e-07
2.31117e-07
-2.30377e-07
-2.31036e-07
2.31663e-07
-2.3023e-07
-3.14299e-05
3.2178e-05
-1.17029e-07
-1.15974e-07
-1.16212e-07
3.21702e-05
3.14031e-05
-3.21352e-05
1.2581e-07
1.23547e-07
1.28185e-07
1.36924e-07
3.14014e-05
-3.21286e-05
2.32079e-07
-2.30268e-07
2.37749e-07
-2.28579e-07
-2.28584e-07
2.42714e-07
-2.27651e-07
-3.14288e-05
3.21804e-05
-1.15116e-07
-1.13515e-07
-1.15357e-07
3.21727e-05
3.14242e-05
-3.21369e-05
1.43106e-07
1.39074e-07
1.21253e-07
1.23753e-07
3.14261e-05
-3.21441e-05
2.41646e-07
-2.2682e-07
2.36942e-07
-2.28658e-07
-2.26069e-07
2.27877e-07
-2.28266e-07
-3.14272e-05
3.21796e-05
-1.15252e-07
-1.12129e-07
-1.23514e-07
3.21715e-05
3.14148e-05
-3.21399e-05
1.24547e-07
1.1734e-07
1.36071e-07
1.28107e-07
3.13829e-05
-3.21497e-05
2.34397e-07
-2.28893e-07
2.27609e-07
-2.29834e-07
-2.28386e-07
2.31085e-07
-2.30971e-07
-3.14268e-05
3.2178e-05
-1.24504e-07
-1.14701e-07
-1.18026e-07
3.21702e-05
3.14037e-05
-3.21409e-05
1.40093e-07
1.06805e-07
1.22735e-07
1.21842e-07
3.13939e-05
-3.2147e-05
2.33327e-07
-2.29711e-07
2.30035e-07
-2.31936e-07
-2.31054e-07
2.29052e-07
-2.32151e-07
-3.1428e-05
3.21762e-05
-1.17749e-07
-1.16275e-07
-1.17888e-07
3.2168e-05
3.13971e-05
-3.21424e-05
1.21642e-07
1.2173e-07
1.24574e-07
1.25316e-07
3.13971e-05
-3.21461e-05
2.29902e-07
-2.31977e-07
2.30616e-07
-2.34651e-07
-2.30022e-07
2.31754e-07
-2.33735e-07
-3.14287e-05
3.21755e-05
-1.15764e-07
-1.18827e-07
-1.19268e-07
3.21682e-05
3.13991e-05
-3.21425e-05
1.22116e-07
1.23394e-07
1.22385e-07
1.23898e-07
3.14003e-05
-3.21465e-05
2.29388e-07
-2.33455e-07
2.29529e-07
-2.33498e-07
-2.32923e-07
2.30662e-07
-2.33137e-07
-3.14319e-05
3.21757e-05
-1.18378e-07
-1.17308e-07
-1.17268e-07
3.21684e-05
3.13975e-05
-3.21442e-05
1.21365e-07
1.22501e-07
1.229e-07
1.23706e-07
3.1399e-05
-3.21475e-05
2.29191e-07
-2.3296e-07
2.29111e-07
-2.33345e-07
-2.31911e-07
2.30593e-07
-2.32279e-07
-3.14306e-05
3.21763e-05
-1.17566e-07
-1.17993e-07
-1.17916e-07
3.21692e-05
3.13985e-05
-3.21451e-05
1.21683e-07
1.22708e-07
1.21119e-07
1.22403e-07
3.13997e-05
-3.21489e-05
2.29207e-07
-2.32852e-07
2.27492e-07
-2.31634e-07
-2.31482e-07
2.2898e-07
-2.3127e-07
-3.14317e-05
3.2178e-05
-1.17646e-07
-1.16241e-07
-1.1723e-07
3.21702e-05
3.13969e-05
-3.21439e-05
1.19951e-07
1.20901e-07
1.20461e-07
1.21239e-07
3.13983e-05
-3.21479e-05
2.27845e-07
-2.31806e-07
2.27371e-07
-2.31331e-07
-2.31978e-07
2.28212e-07
-2.31782e-07
-3.14299e-05
3.21769e-05
-1.18119e-07
-1.15388e-07
-1.17637e-07
3.21688e-05
3.13954e-05
-3.21444e-05
1.18633e-07
1.20301e-07
1.21178e-07
1.22001e-07
3.13969e-05
-3.21483e-05
2.27102e-07
-2.30916e-07
2.28096e-07
-2.32295e-07
-2.29369e-07
2.29321e-07
-2.31183e-07
-3.14285e-05
3.21773e-05
-1.14983e-07
-1.16612e-07
-1.16733e-07
3.21701e-05
3.13967e-05
-3.21436e-05
1.20478e-07
1.21349e-07
1.20914e-07
1.2138e-07
3.13977e-05
-3.21477e-05
2.29187e-07
-2.32634e-07
2.27555e-07
-2.30761e-07
-2.31554e-07
2.28154e-07
-2.30149e-07
-3.14296e-05
3.21769e-05
-1.17343e-07
-1.14975e-07
-1.15769e-07
3.21696e-05
3.13961e-05
-3.21423e-05
1.20067e-07
1.21293e-07
1.23439e-07
1.24158e-07
3.13968e-05
-3.21462e-05
2.2782e-07
-2.31421e-07
2.29934e-07
-2.34211e-07
-2.31238e-07
2.31023e-07
-2.32904e-07
-3.14283e-05
3.21752e-05
-1.1723e-07
-1.18314e-07
-1.18921e-07
3.2168e-05
3.13978e-05
-3.21434e-05
1.22682e-07
1.23616e-07
1.22151e-07
1.22872e-07
3.13992e-05
-3.21459e-05
2.30627e-07
-2.34121e-07
2.28984e-07
-2.32821e-07
-2.32657e-07
2.2944e-07
-2.32322e-07
-3.14309e-05
3.21762e-05
-1.19037e-07
-1.16739e-07
-1.17986e-07
3.21685e-05
3.13976e-05
-3.21425e-05
1.22414e-07
1.24131e-07
1.24234e-07
1.25203e-07
3.13979e-05
-3.21475e-05
2.30265e-07
-2.33711e-07
2.30835e-07
-2.34548e-07
-2.33284e-07
2.30386e-07
-2.32921e-07
-3.14301e-05
3.21756e-05
-1.19244e-07
-1.17981e-07
-1.18818e-07
3.21694e-05
3.13992e-05
-3.21438e-05
1.22692e-07
1.24246e-07
1.23107e-07
1.23799e-07
3.13977e-05
-3.21461e-05
2.3062e-07
-2.34035e-07
2.29853e-07
-2.33517e-07
-2.3298e-07
2.30325e-07
-2.32825e-07
-3.14321e-05
3.21767e-05
-1.19281e-07
-1.17369e-07
-1.18409e-07
3.2169e-05
3.13982e-05
-3.21451e-05
1.20939e-07
1.22567e-07
1.20115e-07
1.21392e-07
3.1396e-05
-3.21471e-05
2.2898e-07
-2.32513e-07
2.27168e-07
-2.31441e-07
-2.31139e-07
2.28509e-07
-2.31624e-07
-3.14308e-05
3.21779e-05
-1.16872e-07
-1.15816e-07
-1.17041e-07
3.21705e-05
3.13962e-05
-3.21442e-05
1.18452e-07
1.19812e-07
1.21462e-07
1.22114e-07
3.1395e-05
-3.21465e-05
2.26606e-07
-2.30383e-07
2.28164e-07
-2.32334e-07
-2.29247e-07
2.29322e-07
-2.32762e-07
-3.14294e-05
3.2177e-05
-1.15177e-07
-1.17001e-07
-1.18063e-07
3.21689e-05
3.13968e-05
-3.21449e-05
1.19619e-07
1.20514e-07
1.19975e-07
1.20918e-07
3.13951e-05
-3.21465e-05
2.28029e-07
-2.31325e-07
2.26899e-07
-2.30719e-07
-2.30309e-07
2.27967e-07
-2.30505e-07
-3.14298e-05
3.21775e-05
-1.15481e-07
-1.14921e-07
-1.16186e-07
3.21694e-05
3.13952e-05
-3.21423e-05
1.18416e-07
1.19728e-07
1.22922e-07
1.24516e-07
3.13935e-05
-3.21444e-05
2.26655e-07
-2.30358e-07
2.29454e-07
-2.33762e-07
-2.29522e-07
2.31137e-07
-2.33843e-07
-3.14281e-05
3.21755e-05
-1.15305e-07
-1.18485e-07
-1.20109e-07
3.21673e-05
3.13969e-05
-3.21425e-05
1.20651e-07
1.22216e-07
1.22693e-07
1.24318e-07
3.13965e-05
-3.21443e-05
2.28959e-07
-2.3332e-07
2.29131e-07
-2.33576e-07
-2.33413e-07
2.30506e-07
-2.33295e-07
-3.14304e-05
3.21749e-05
-1.19127e-07
-1.17636e-07
-1.19262e-07
3.21674e-05
3.13969e-05
-3.21435e-05
1.21091e-07
1.22337e-07
1.22892e-07
1.242e-07
3.13954e-05
-3.21453e-05
2.29097e-07
-2.32597e-07
2.29418e-07
-2.3355e-07
-2.32055e-07
2.30765e-07
-2.33129e-07
-3.14302e-05
3.21761e-05
-1.17983e-07
-1.17177e-07
-1.19265e-07
3.21682e-05
3.13983e-05
-3.21443e-05
1.22198e-07
1.2392e-07
1.23429e-07
1.26067e-07
3.13968e-05
-3.21456e-05
2.3005e-07
-2.34577e-07
2.29176e-07
-2.34417e-07
-2.33943e-07
2.31913e-07
-2.34234e-07
-3.14315e-05
3.21746e-05
-1.20144e-07
-1.18385e-07
-1.22773e-07
3.21658e-05
3.13954e-05
-3.21519e-05
1.20923e-07
1.25425e-07
1.25156e-07
1.21825e-07
3.14003e-05
-3.21514e-05
2.27747e-07
-2.33576e-07
2.31607e-07
-2.32679e-07
-2.34635e-07
2.25136e-07
-2.33761e-07
-3.14319e-05
3.21772e-05
-1.26518e-07
-1.18153e-07
-1.22585e-07
3.2168e-05
3.14033e-05
-3.21471e-05
1.33984e-07
1.2435e-07
1.19913e-07
1.33323e-07
3.13897e-05
-3.21353e-05
2.3203e-07
-2.31925e-07
2.29236e-07
-2.31404e-07
-2.33201e-07
2.37735e-07
-2.29908e-07
-3.14315e-05
3.2178e-05
-1.19651e-07
-1.1597e-07
-1.16956e-07
3.21712e-05
3.14033e-05
-3.21479e-05
1.23123e-07
1.40176e-07
1.20115e-07
1.23791e-07
3.14154e-05
-3.2146e-05
2.28797e-07
-2.31003e-07
2.29834e-07
-2.31295e-07
-2.29716e-07
2.31566e-07
-2.30099e-07
-3.14295e-05
3.21779e-05
-1.16847e-07
-1.15378e-07
-1.16525e-07
3.2171e-05
3.14028e-05
-3.21482e-05
1.22007e-07
1.21826e-07
1.19349e-07
1.22703e-07
3.13982e-05
-3.21478e-05
2.28913e-07
-2.31153e-07
2.29226e-07
-2.32702e-07
-2.29339e-07
2.30377e-07
-2.3204e-07
-3.14296e-05
3.21767e-05
-1.1533e-07
-1.16625e-07
-1.17876e-07
3.2169e-05
3.14017e-05
-3.21479e-05
1.21902e-07
1.21237e-07
1.18955e-07
1.21688e-07
3.13963e-05
-3.2148e-05
2.28582e-07
-2.31655e-07
2.28577e-07
-2.31955e-07
-2.30386e-07
2.29155e-07
-2.31408e-07
-3.14295e-05
3.21767e-05
-1.16372e-07
-1.16184e-07
-1.17095e-07
3.21689e-05
3.14014e-05
-3.21467e-05
1.2159e-07
1.21352e-07
1.22019e-07
1.24358e-07
3.13956e-05
-3.2147e-05
2.28256e-07
-2.32046e-07
2.31265e-07
-2.34183e-07
-2.31369e-07
2.31398e-07
-2.32534e-07
-3.1429e-05
3.21756e-05
-1.17032e-07
-1.1861e-07
-1.18731e-07
3.21686e-05
3.14041e-05
-3.21471e-05
1.24164e-07
1.23322e-07
1.21049e-07
1.24212e-07
3.1398e-05
-3.21468e-05
2.30458e-07
-2.33762e-07
2.30313e-07
-2.34018e-07
-2.33559e-07
2.31436e-07
-2.33718e-07
-3.14317e-05
3.21754e-05
-1.19577e-07
-1.19034e-07
-1.2032e-07
3.21678e-05
3.14029e-05
-3.2148e-05
1.22736e-07
1.22206e-07
1.20343e-07
1.23303e-07
3.13975e-05
-3.21478e-05
2.2895e-07
-2.32858e-07
2.29759e-07
-2.33436e-07
-2.32895e-07
2.30636e-07
-2.33318e-07
-3.1431e-05
3.21764e-05
-1.1842e-07
-1.18001e-07
-1.19794e-07
3.21687e-05
3.14034e-05
-3.21483e-05
1.23659e-07
1.23006e-07
1.20298e-07
1.23634e-07
3.1398e-05
-3.21482e-05
2.29935e-07
-2.33467e-07
2.29581e-07
-2.33567e-07
-2.32284e-07
2.30526e-07
-2.32659e-07
-3.14314e-05
3.21765e-05
-1.1791e-07
-1.17949e-07
-1.19511e-07
3.21687e-05
3.14033e-05
-3.21494e-05
1.23225e-07
1.22817e-07
1.1879e-07
1.22017e-07
3.13978e-05
-3.21498e-05
2.29668e-07
-2.33346e-07
2.28616e-07
-2.32106e-07
-2.3234e-07
2.29344e-07
-2.30499e-07
-3.14315e-05
3.21778e-05
-1.18269e-07
-1.15623e-07
-1.16784e-07
3.21709e-05
3.14016e-05
-3.21492e-05
1.21385e-07
1.21142e-07
1.18355e-07
1.21789e-07
3.13959e-05
-3.21489e-05
2.28222e-07
-2.31889e-07
2.27737e-07
-2.32045e-07
-2.31552e-07
2.29239e-07
-2.3227e-07
-3.14298e-05
3.21774e-05
-1.16927e-07
-1.16638e-07
-1.1887e-07
3.21696e-05
3.1401e-05
-3.21497e-05
1.21394e-07
1.20739e-07
1.16937e-07
1.20392e-07
3.13961e-05
-3.21489e-05
2.27838e-07
-2.31987e-07
2.26385e-07
-2.31311e-07
-2.31384e-07
2.28128e-07
-2.31801e-07
-3.14295e-05
3.21774e-05
-1.17085e-07
-1.16046e-07
-1.1764e-07
3.21689e-05
3.13999e-05
-3.21485e-05
1.21598e-07
1.20878e-07
1.1892e-07
1.2214e-07
3.13951e-05
-3.21485e-05
2.27675e-07
-2.32025e-07
2.2815e-07
-2.32717e-07
-2.30517e-07
2.29135e-07
-2.31982e-07
-3.14286e-05
3.21764e-05
-1.1632e-07
-1.17026e-07
-1.18078e-07
3.21686e-05
3.14017e-05
-3.21479e-05
1.23026e-07
1.22336e-07
1.19973e-07
1.22736e-07
3.13964e-05
-3.2149e-05
2.29227e-07
-2.3329e-07
2.29736e-07
-2.34713e-07
-2.32284e-07
2.28836e-07
-2.33452e-07
-3.14303e-05
3.21746e-05
-1.18503e-07
-1.18094e-07
-1.19035e-07
3.21671e-05
3.14011e-05
-3.21492e-05
1.21172e-07
1.19221e-07
1.17527e-07
1.04399e-07
3.13926e-05
-3.21727e-05
2.28073e-07
-2.33385e-07
2.28134e-07
-2.34835e-07
-2.3344e-07
2.1747e-07
-2.36186e-07
-3.14308e-05
3.21747e-05
-1.18968e-07
-1.18748e-07
-1.21193e-07
3.21657e-05
3.14008e-05
-3.21485e-05
1.20662e-07
1.16216e-07
1.18916e-07
1.2284e-07
3.13728e-05
-3.21491e-05
2.2787e-07
-2.3461e-07
2.28759e-07
-2.34508e-07
-2.35844e-07
2.29385e-07
-2.34166e-07
-3.14315e-05
3.21754e-05
-1.20873e-07
-1.17956e-07
-1.21463e-07
3.21678e-05
3.14019e-05
-3.21495e-05
1.22839e-07
1.23572e-07
1.18579e-07
1.24226e-07
3.13966e-05
-3.21496e-05
2.29232e-07
-2.34724e-07
2.286e-07
-2.33072e-07
-2.33297e-07
2.28337e-07
-2.30677e-07
-3.14319e-05
3.21769e-05
-1.22426e-07
-1.14712e-07
-1.29039e-07
3.21714e-05
3.14028e-05
-3.21486e-05
1.22439e-07
1.24419e-07
1.1883e-07
1.24901e-07
3.13965e-05
-3.21493e-05
2.29864e-07
-2.33546e-07
2.29581e-07
-2.33719e-07
-2.29451e-07
2.28887e-07
-2.31556e-07
-3.14312e-05
3.21766e-05
-1.28953e-07
-1.15078e-07
-1.31238e-07
3.21713e-05
3.14024e-05
-3.21494e-05
1.20949e-07
1.23688e-07
1.16432e-07
1.22337e-07
3.13962e-05
-3.215e-05
2.28653e-07
-2.32838e-07
2.27701e-07
-2.31752e-07
-2.27952e-07
2.26503e-07
-2.28368e-07
-3.14309e-05
3.21773e-05
-1.27912e-07
-1.1207e-07
-1.2753e-07
3.21727e-05
3.13997e-05
-3.2148e-05
1.19416e-07
1.21965e-07
1.18653e-07
1.2495e-07
3.13936e-05
-3.21484e-05
2.27707e-07
-2.31642e-07
2.29207e-07
-2.33485e-07
-2.26746e-07
2.28501e-07
-2.2982e-07
-3.14282e-05
3.21756e-05
-1.26494e-07
-1.14085e-07
-1.29694e-07
3.21708e-05
3.1403e-05
-3.21477e-05
1.22225e-07
1.25056e-07
1.18193e-07
1.2442e-07
3.13964e-05
-3.21486e-05
2.29913e-07
-2.33537e-07
2.29478e-07
-2.32977e-07
-2.28565e-07
2.28138e-07
-2.29097e-07
-3.14312e-05
3.21756e-05
-1.28826e-07
-1.13303e-07
-1.28882e-07
3.21715e-05
3.1401e-05
-3.21471e-05
1.20552e-07
1.23648e-07
1.19235e-07
1.25246e-07
3.1394e-05
-3.21481e-05
2.28493e-07
-2.32294e-07
2.2959e-07
-2.335e-07
-2.28716e-07
2.2841e-07
-2.29741e-07
-3.14292e-05
3.21752e-05
-1.29135e-07
-1.14079e-07
-1.29715e-07
3.21708e-05
3.14027e-05
-3.2147e-05
1.22819e-07
1.25613e-07
1.20354e-07
1.26388e-07
3.13961e-05
-3.21473e-05
2.30391e-07
-2.34342e-07
2.30646e-07
-2.34722e-07
-2.30564e-07
2.29819e-07
-2.31694e-07
-3.14309e-05
3.21748e-05
-1.30885e-07
-1.16141e-07
-1.31816e-07
3.217e-05
3.14034e-05
-3.21471e-05
1.23233e-07
1.25733e-07
1.20313e-07
1.26106e-07
3.13969e-05
-3.21485e-05
2.30702e-07
-2.34488e-07
2.30882e-07
-2.34601e-07
-2.29876e-07
2.29714e-07
-2.31022e-07
-3.14316e-05
3.21754e-05
-1.30249e-07
-1.15577e-07
-1.30767e-07
3.21711e-05
3.1404e-05
-3.21488e-05
1.22545e-07
1.24984e-07
1.18433e-07
1.24895e-07
3.13972e-05
-3.21489e-05
2.30097e-07
-2.33676e-07
2.28945e-07
-2.33466e-07
-2.29277e-07
2.28709e-07
-2.3029e-07
-3.14321e-05
3.21764e-05
-1.29467e-07
-1.14434e-07
-1.30214e-07
3.21712e-05
3.14024e-05
-3.21496e-05
1.22719e-07
1.24963e-07
1.1673e-07
1.23618e-07
3.13959e-05
-3.21501e-05
2.3049e-07
-2.33984e-07
2.27509e-07
-2.31982e-07
-2.30267e-07
2.2718e-07
-2.28832e-07
-3.14307e-05
3.21775e-05
-1.30511e-07
-1.12579e-07
-1.28852e-07
3.21727e-05
3.14012e-05
-3.21483e-05
1.20208e-07
1.22962e-07
1.18578e-07
1.24914e-07
3.13953e-05
-3.21496e-05
2.28212e-07
-2.31964e-07
2.29049e-07
-2.33252e-07
-2.28135e-07
2.28295e-07
-2.28455e-07
-3.14298e-05
3.21763e-05
-1.28375e-07
-1.13017e-07
-1.28207e-07
3.2173e-05
3.14021e-05
-3.21486e-05
1.21635e-07
1.23908e-07
1.17062e-07
1.23503e-07
3.13956e-05
-3.2149e-05
2.299e-07
-2.32773e-07
2.2825e-07
-2.32167e-07
-2.28145e-07
2.27782e-07
-2.28949e-07
-3.14304e-05
3.21768e-05
-1.2819e-07
-1.12827e-07
-1.28549e-07
3.21718e-05
3.1401e-05
-3.21466e-05
1.20747e-07
1.23198e-07
1.18966e-07
1.26038e-07
3.13942e-05
-3.21463e-05
2.29065e-07
-2.31458e-07
2.30017e-07
-2.3198e-07
-2.25938e-07
2.3068e-07
-2.28734e-07
-3.14289e-05
3.21772e-05
-1.2603e-07
-1.13076e-07
-1.28921e-07
3.21723e-05
3.14025e-05
-3.21445e-05
1.22635e-07
1.25801e-07
1.20473e-07
1.26772e-07
3.13971e-05
-3.21455e-05
2.30827e-07
-2.30255e-07
2.32245e-07
-2.26135e-07
-2.26823e-07
2.31164e-07
-2.22841e-07
-3.14271e-05
3.21842e-05
-1.26974e-07
-9.85832e-08
-1.17539e-07
3.21785e-05
3.14035e-05
-3.21456e-05
1.2451e-07
1.26911e-07
1.19964e-07
1.26837e-07
3.13967e-05
-3.21461e-05
2.33163e-07
-2.25781e-07
2.31896e-07
-2.29938e-07
-2.22729e-07
2.31857e-07
-2.26235e-07
-3.14191e-05
3.21798e-05
-1.18888e-07
-1.10625e-07
-1.27061e-07
3.21755e-05
3.14042e-05
-3.21466e-05
1.23396e-07
1.26714e-07
1.20258e-07
1.2693e-07
3.13977e-05
-3.21469e-05
2.32178e-07
-2.31363e-07
2.31453e-07
-2.34567e-07
-2.26322e-07
2.3157e-07
-2.29513e-07
-3.14277e-05
3.21753e-05
-1.26442e-07
-1.14771e-07
-1.31627e-07
3.21719e-05
3.14036e-05
-3.21483e-05
1.22171e-07
1.26003e-07
1.18384e-07
1.25229e-07
3.13981e-05
-3.2149e-05
2.30524e-07
-2.3375e-07
2.29211e-07
-2.33204e-07
-2.29269e-07
2.28638e-07
-2.30104e-07
-3.1432e-05
3.21765e-05
-1.27475e-07
-1.14031e-07
-1.3207e-07
3.21716e-05
3.14019e-05
-3.21488e-05
1.2162e-07
1.23564e-07
1.17796e-07
1.23913e-07
3.13952e-05
-3.21497e-05
2.29826e-07
-2.32514e-07
2.28473e-07
-2.32099e-07
-2.28758e-07
2.27169e-07
-2.28503e-07
-3.14296e-05
3.21767e-05
-1.27833e-07
-1.13067e-07
-1.28534e-07
3.21726e-05
3.14019e-05
-3.2148e-05
1.2095e-07
1.24231e-07
1.1753e-07
1.23607e-07
3.13951e-05
-3.21484e-05
2.2914e-07
-2.33191e-07
2.27992e-07
-2.32926e-07
-2.28011e-07
2.28284e-07
-2.29279e-07
-3.143e-05
3.21757e-05
-1.28351e-07
-1.13649e-07
-1.28924e-07
3.21714e-05
3.13997e-05
-3.2148e-05
1.19186e-07
1.22622e-07
1.17652e-07
1.24207e-07
3.13944e-05
-3.21487e-05
2.27176e-07
-2.3176e-07
2.28482e-07
-2.3277e-07
-2.26365e-07
2.27824e-07
-2.28196e-07
-3.14293e-05
3.21758e-05
-1.26372e-07
-1.1382e-07
-1.28376e-07
3.21718e-05
3.14012e-05
-3.21472e-05
1.21321e-07
1.2334e-07
1.18256e-07
1.24328e-07
3.1395e-05
-3.21479e-05
2.29227e-07
-2.3298e-07
2.2915e-07
-2.33498e-07
-2.29643e-07
2.28285e-07
-2.29807e-07
-3.14295e-05
3.21752e-05
-1.30203e-07
-1.13682e-07
-1.29635e-07
3.21703e-05
3.1401e-05
-3.21468e-05
1.21617e-07
1.2463e-07
1.19621e-07
1.25583e-07
3.13946e-05
-3.2147e-05
2.29717e-07
-2.33383e-07
2.3012e-07
-2.34235e-07
-2.27786e-07
2.29185e-07
-2.30645e-07
-3.14293e-05
3.21744e-05
-1.28059e-07
-1.14932e-07
-1.30753e-07
3.21699e-05
3.14029e-05
-3.21466e-05
1.23566e-07
1.26266e-07
1.20183e-07
1.26433e-07
3.1396e-05
-3.21475e-05
2.31007e-07
-2.34745e-07
2.30523e-07
-2.34141e-07
-2.30568e-07
2.29369e-07
-2.30293e-07
-3.14309e-05
3.21748e-05
-1.3133e-07
-1.15193e-07
-1.30601e-07
3.21707e-05
3.14022e-05
-3.21477e-05
1.21748e-07
1.2504e-07
1.1919e-07
1.25773e-07
3.1396e-05
-3.21479e-05
2.29314e-07
-2.33964e-07
2.29409e-07
-2.34777e-07
-2.30137e-07
2.29969e-07
-2.31515e-07
-3.14307e-05
3.21751e-05
-1.30667e-07
-1.15068e-07
-1.30811e-07
3.21703e-05
3.14028e-05
-3.2148e-05
1.22969e-07
1.25354e-07
1.18339e-07
1.24739e-07
3.13973e-05
-3.2149e-05
2.30898e-07
-2.34642e-07
2.29191e-07
-2.33629e-07
-2.30601e-07
2.28524e-07
-2.30165e-07
-3.1432e-05
3.21764e-05
-1.3089e-07
-1.14068e-07
-1.30012e-07
3.21714e-05
3.14017e-05
-3.21483e-05
1.21434e-07
1.23961e-07
1.1782e-07
1.24731e-07
3.13954e-05
-3.21486e-05
2.29261e-07
-2.32657e-07
2.28383e-07
-2.33486e-07
-2.2821e-07
2.28531e-07
-2.29539e-07
-3.14299e-05
3.21759e-05
-1.28491e-07
-1.13468e-07
-1.28776e-07
3.21713e-05
3.14014e-05
-3.21489e-05
1.20451e-07
1.22348e-07
1.17182e-07
1.23405e-07
3.13954e-05
-3.21499e-05
2.2801e-07
-2.31453e-07
2.28012e-07
-2.32032e-07
-2.28422e-07
2.2726e-07
-2.29133e-07
-3.14302e-05
3.21769e-05
-1.28834e-07
-1.12665e-07
-1.28993e-07
3.2173e-05
3.14005e-05
-3.2148e-05
1.20553e-07
1.23427e-07
1.17136e-07
1.24075e-07
3.13942e-05
-3.21485e-05
2.28763e-07
-2.32627e-07
2.27872e-07
-2.32514e-07
-2.27822e-07
2.27499e-07
-2.28265e-07
-3.14288e-05
3.21759e-05
-1.28184e-07
-1.12713e-07
-1.287e-07
3.21707e-05
3.13999e-05
-3.21473e-05
1.20279e-07
1.23268e-07
1.17858e-07
1.2473e-07
3.1394e-05
-3.21474e-05
2.27927e-07
-2.31901e-07
2.28832e-07
-2.33844e-07
-2.28465e-07
2.29086e-07
-2.30874e-07
-3.14288e-05
3.21747e-05
-1.28732e-07
-1.14236e-07
-1.3017e-07
3.21696e-05
3.14015e-05
-3.21463e-05
1.22134e-07
1.24682e-07
1.19543e-07
1.26626e-07
3.13953e-05
-3.21468e-05
2.29899e-07
-2.33458e-07
2.30314e-07
-2.34424e-07
-2.28866e-07
2.29852e-07
-2.30326e-07
-3.14302e-05
3.21731e-05
-1.2957e-07
-1.15529e-07
-1.30885e-07
3.21702e-05
3.14025e-05
-3.2147e-05
1.22686e-07
1.25649e-07
1.19317e-07
1.25834e-07
3.13963e-05
-3.21473e-05
2.30273e-07
-2.35365e-07
2.29778e-07
-2.32142e-07
-2.30705e-07
2.28847e-07
-2.29624e-07
-3.14304e-05
3.21729e-05
-1.31474e-07
-1.14568e-07
-1.30844e-07
3.217e-05
3.14023e-05
-3.21478e-05
1.23009e-07
1.26248e-07
1.18616e-07
1.25972e-07
3.13961e-05
-3.21478e-05
2.30559e-07
-2.36626e-07
2.29151e-07
-2.33272e-07
-2.30869e-07
2.29801e-07
-2.30312e-07
-3.143e-05
3.21734e-05
-1.31072e-07
-1.1558e-07
-1.30245e-07
3.2171e-05
3.14023e-05
-3.21484e-05
1.22216e-07
1.24598e-07
1.1859e-07
1.25184e-07
3.13972e-05
-3.21489e-05
2.29974e-07
-2.35462e-07
2.29446e-07
-2.31969e-07
-2.29647e-07
2.28557e-07
-2.30786e-07
-3.14306e-05
3.21743e-05
-1.30063e-07
-1.14667e-07
-1.30176e-07
3.21718e-05
3.14025e-05
-3.21473e-05
1.22054e-07
1.24921e-07
1.18058e-07
1.23833e-07
3.13961e-05
-3.21488e-05
2.30253e-07
-2.35211e-07
2.29731e-07
-2.3283e-07
-2.29349e-07
2.28346e-07
-2.2916e-07
-3.14295e-05
3.21731e-05
-1.29095e-07
-1.13574e-07
-1.28755e-07
3.21718e-05
3.14018e-05
-3.21493e-05
1.19674e-07
1.22991e-07
1.17944e-07
1.23434e-07
3.13952e-05
-3.21492e-05
2.26597e-07
-2.31873e-07
2.27318e-07
-2.32389e-07
-2.28248e-07
2.28232e-07
-2.28836e-07
-3.14285e-05
3.2175e-05
-1.28558e-07
-1.14186e-07
-1.27678e-07
3.21718e-05
3.14012e-05
-3.21481e-05
1.2129e-07
1.23104e-07
1.19079e-07
1.23794e-07
3.13947e-05
-3.21471e-05
2.28644e-07
-2.32742e-07
2.26394e-07
-2.31069e-07
-2.28151e-07
2.27787e-07
-2.28497e-07
-3.14269e-05
3.21773e-05
-1.2614e-07
-1.15116e-07
-1.19302e-07
3.21702e-05
3.14005e-05
-3.2186e-05
1.26238e-07
1.25546e-07
9.70685e-08
1.02616e-07
3.13916e-05
-3.2185e-05
2.27598e-07
-2.29381e-07
1.92437e-07
-1.91897e-07
-2.25198e-07
1.89338e-07
-1.94869e-07
-3.14244e-05
3.22149e-05
-1.21061e-07
-8.82738e-08
-8.7884e-08
3.22099e-05
3.1313e-05
-3.18454e-05
4.37305e-08
4.71879e-08
-1.9429e-06
-1.94018e-06
3.13071e-05
-3.18407e-05
1.43367e-07
-1.44744e-07
-1.23281e-06
1.24762e-06
-1.38246e-07
-1.21421e-06
1.24851e-06
-3.13322e-05
3.1868e-05