/*--------------------------------*- C++ -*----------------------------------*\
| =========                 |                                                 |
| \\      /  F ield         | OpenFOAM: The Open Source CFD Toolbox           |
|  \\    /   O peration     | Version:  2206                                  |
|   \\  /    A nd           | Website:  www.openfoam.com                      |
|    \\/     M anipulation  |                                                 |
\*---------------------------------------------------------------------------*/
FoamFile
{
    version     2.0;
    format      ascii;
    arch        "LSB;label=32;scalar=64";
    class       volScalarField;
    location    "27";
    object      epsilon;
}
// * * * * * * * * * * * * * * * * * * * * * * * * * * * * * * * * * * * * * //

dimensions      [0 2 -3 0 0 0 0];

internalField   nonuniform List<scalar> 
28335
(
2.91502e-07
3.1736e-07
3.17371e-07
3.50216e-07
2.91503e-07
3.17364e-07
3.17374e-07
3.50221e-07
2.91505e-07
3.17367e-07
3.17377e-07
3.50228e-07
2.91501e-07
3.17369e-07
3.17378e-07
3.50236e-07
2.91498e-07
3.17369e-07
3.17379e-07
3.5024e-07
2.91478e-07
3.17347e-07
3.17357e-07
3.50231e-07
2.91377e-07
3.17247e-07
3.17257e-07
3.50115e-07
2.91365e-07
3.17237e-07
3.17247e-07
3.50101e-07
2.91364e-07
3.17237e-07
3.17247e-07
3.50106e-07
2.91364e-07
3.17237e-07
3.17247e-07
3.50101e-07
2.91364e-07
3.17237e-07
3.17247e-07
3.50104e-07
2.91364e-07
3.17237e-07
3.17247e-07
3.50107e-07
2.91364e-07
3.17237e-07
3.17247e-07
3.50106e-07
2.91364e-07
3.17237e-07
3.17247e-07
3.50105e-07
2.91364e-07
3.17236e-07
3.17247e-07
3.50105e-07
2.91364e-07
3.17236e-07
3.17247e-07
3.50105e-07
2.91364e-07
3.17236e-07
3.17247e-07
3.50104e-07
3.49954e-07
3.17381e-07
3.17386e-07
3.49945e-07
3.17367e-07
3.17394e-07
3.1736e-07
3.17384e-07
3.49962e-07
3.17371e-07
3.17369e-07
3.49959e-07
3.50213e-07
3.49959e-07
3.17384e-07
3.17389e-07
3.17384e-07
3.17389e-07
3.50205e-07
3.4995e-07
3.1737e-07
3.17397e-07
3.17369e-07
3.17396e-07
3.17387e-07
3.17364e-07
3.17386e-07
3.50221e-07
3.49967e-07
3.17372e-07
3.17374e-07
3.17371e-07
3.49964e-07
3.50218e-07
3.49966e-07
3.17387e-07
3.17392e-07
3.17388e-07
3.17392e-07
3.5021e-07
3.49956e-07
3.17372e-07
3.17399e-07
3.17373e-07
3.174e-07
3.1739e-07
3.17367e-07
3.1739e-07
3.50226e-07
3.49973e-07
3.17374e-07
3.17377e-07
3.17375e-07
3.49971e-07
3.50225e-07
3.49974e-07
3.17391e-07
3.17395e-07
3.17391e-07
3.17395e-07
3.50217e-07
3.49964e-07
3.17376e-07
3.17403e-07
3.17376e-07
3.17403e-07
3.17393e-07
3.17369e-07
3.17393e-07
3.50233e-07
3.49981e-07
3.17378e-07
3.17379e-07
3.17377e-07
3.49979e-07
3.50234e-07
3.49978e-07
3.17393e-07
3.17398e-07
3.1739e-07
3.17395e-07
3.50225e-07
3.49969e-07
3.17378e-07
3.17405e-07
3.17375e-07
3.17403e-07
3.17395e-07
3.17369e-07
3.17392e-07
3.50241e-07
3.49986e-07
3.1738e-07
3.17379e-07
3.17377e-07
3.49984e-07
3.50237e-07
3.49973e-07
3.17391e-07
3.17396e-07
3.17384e-07
3.17388e-07
3.50229e-07
3.49964e-07
3.17376e-07
3.17404e-07
3.17369e-07
3.17397e-07
3.17394e-07
3.17363e-07
3.17387e-07
3.50245e-07
3.49981e-07
3.17378e-07
3.17373e-07
3.17371e-07
3.4998e-07
3.50226e-07
3.49866e-07
3.17369e-07
3.17374e-07
3.17285e-07
3.17289e-07
3.50218e-07
3.49857e-07
3.17355e-07
3.17382e-07
3.1727e-07
3.17297e-07
3.17373e-07
3.17264e-07
3.17288e-07
3.50235e-07
3.49873e-07
3.17357e-07
3.17274e-07
3.17272e-07
3.49872e-07
3.50111e-07
3.49834e-07
3.1727e-07
3.17274e-07
3.17258e-07
3.17263e-07
3.50103e-07
3.49824e-07
3.17255e-07
3.17282e-07
3.17244e-07
3.17271e-07
3.17273e-07
3.17237e-07
3.17262e-07
3.50119e-07
3.49841e-07
3.17257e-07
3.17247e-07
3.17246e-07
3.49841e-07
3.50096e-07
3.49843e-07
3.1726e-07
3.17265e-07
3.17258e-07
3.17263e-07
3.50087e-07
3.49834e-07
3.17246e-07
3.17273e-07
3.17244e-07
3.17271e-07
3.17264e-07
3.17237e-07
3.17262e-07
3.50104e-07
3.4985e-07
3.17248e-07
3.17247e-07
3.17246e-07
3.4985e-07
3.50101e-07
3.49838e-07
3.1726e-07
3.17264e-07
3.17257e-07
3.17262e-07
3.50092e-07
3.49829e-07
3.17245e-07
3.17272e-07
3.17243e-07
3.1727e-07
3.17263e-07
3.17237e-07
3.17261e-07
3.50108e-07
3.49847e-07
3.17247e-07
3.17247e-07
3.17245e-07
3.49845e-07
3.50097e-07
3.49843e-07
3.17259e-07
3.17264e-07
3.17257e-07
3.17262e-07
3.50088e-07
3.49833e-07
3.17245e-07
3.17272e-07
3.17243e-07
3.1727e-07
3.17262e-07
3.17237e-07
3.17261e-07
3.50105e-07
3.4985e-07
3.17247e-07
3.17247e-07
3.17245e-07
3.4985e-07
3.501e-07
3.49842e-07
3.17259e-07
3.17264e-07
3.17257e-07
3.17262e-07
3.50091e-07
3.49833e-07
3.17245e-07
3.17272e-07
3.17243e-07
3.1727e-07
3.17262e-07
3.17237e-07
3.17261e-07
3.50107e-07
3.4985e-07
3.17247e-07
3.17247e-07
3.17245e-07
3.4985e-07
3.50101e-07
3.49841e-07
3.17259e-07
3.17264e-07
3.17257e-07
3.17262e-07
3.50092e-07
3.49832e-07
3.17245e-07
3.17272e-07
3.17243e-07
3.1727e-07
3.17263e-07
3.17237e-07
3.17261e-07
3.50109e-07
3.49849e-07
3.17247e-07
3.17247e-07
3.17245e-07
3.49848e-07
3.501e-07
3.49841e-07
3.17259e-07
3.17264e-07
3.17257e-07
3.17262e-07
3.50092e-07
3.49832e-07
3.17245e-07
3.17272e-07
3.17243e-07
3.1727e-07
3.17262e-07
3.17237e-07
3.17261e-07
3.50108e-07
3.49849e-07
3.17247e-07
3.17247e-07
3.17245e-07
3.49848e-07
3.501e-07
3.49841e-07
3.17259e-07
3.17264e-07
3.17257e-07
3.17262e-07
3.50092e-07
3.49832e-07
3.17245e-07
3.17272e-07
3.17243e-07
3.1727e-07
3.17263e-07
3.17237e-07
3.17261e-07
3.50108e-07
3.49849e-07
3.17247e-07
3.17247e-07
3.17245e-07
3.49848e-07
3.501e-07
3.49841e-07
3.17259e-07
3.17264e-07
3.17257e-07
3.17262e-07
3.50092e-07
3.49833e-07
3.17245e-07
3.17272e-07
3.17243e-07
3.1727e-07
3.17262e-07
3.17237e-07
3.1726e-07
3.50108e-07
3.49849e-07
3.17247e-07
3.17247e-07
3.17245e-07
3.49848e-07
3.501e-07
3.49841e-07
3.17259e-07
3.17264e-07
3.17257e-07
3.17262e-07
3.50092e-07
3.49833e-07
3.17245e-07
3.17272e-07
3.17243e-07
3.1727e-07
3.17263e-07
3.17237e-07
3.17261e-07
3.50108e-07
3.49849e-07
3.17247e-07
3.17247e-07
3.17245e-07
3.49848e-07
3.501e-07
3.17259e-07
3.17264e-07
3.50092e-07
3.17245e-07
3.17271e-07
3.17262e-07
3.50108e-07
3.17246e-07
1.74338e-06
8.86857e-06
2.27235e-05
1.74325e-06
8.87e-06
2.91502e-07
2.91503e-07
2.91506e-07
2.91504e-07
5.66149e-07
3.17361e-07
1.38738e-06
3.00189e-07
2.27232e-05
5.66163e-07
3.17371e-07
3.00191e-07
1.38734e-06
3.4995e-07
2.96951e-06
2.97028e-06
1.74358e-06
8.86884e-06
1.74409e-06
8.86824e-06
2.27212e-05
2.272e-05
1.74346e-06
8.87031e-06
1.74391e-06
8.86969e-06
2.91505e-07
2.91508e-07
2.91506e-07
2.91503e-07
2.91504e-07
2.91507e-07
2.91505e-07
5.66177e-07
1.38826e-06
3.00188e-07
3.17364e-07
5.66319e-07
1.38753e-06
3.00191e-07
2.27215e-05
2.27201e-05
5.66189e-07
3.0019e-07
1.3882e-06
3.17374e-07
5.66336e-07
3.00193e-07
1.38749e-06
2.97038e-06
2.97112e-06
3.49961e-07
2.96992e-06
2.97066e-06
1.74364e-06
8.8684e-06
1.74418e-06
8.86793e-06
2.27194e-05
2.2719e-05
1.74351e-06
8.86986e-06
1.744e-06
8.86937e-06
2.91504e-07
2.91507e-07
2.91505e-07
2.91505e-07
2.91502e-07
2.91505e-07
2.91504e-07
5.66202e-07
1.38835e-06
3.0019e-07
3.17367e-07
5.66347e-07
1.38759e-06
3.00192e-07
2.27196e-05
2.27189e-05
5.66214e-07
3.00192e-07
1.38827e-06
3.17377e-07
5.66364e-07
3.00195e-07
1.38755e-06
2.97052e-06
2.97126e-06
3.49967e-07
2.97004e-06
2.97078e-06
1.74362e-06
8.86824e-06
1.74419e-06
8.86784e-06
2.27191e-05
2.2719e-05
1.74348e-06
8.8697e-06
1.744e-06
8.86929e-06
2.91505e-07
2.91508e-07
2.91507e-07
2.91503e-07
2.91503e-07
2.91506e-07
2.91504e-07
5.66217e-07
1.38839e-06
3.00191e-07
3.1737e-07
5.66365e-07
1.38762e-06
3.00194e-07
2.27192e-05
2.2719e-05
5.66229e-07
3.00193e-07
1.38831e-06
3.1738e-07
5.66381e-07
3.00196e-07
1.38757e-06
2.97067e-06
2.97141e-06
3.49974e-07
2.97021e-06
2.97095e-06
1.74361e-06
8.86824e-06
1.74417e-06
8.86787e-06
2.27195e-05
2.27196e-05
1.74348e-06
8.86971e-06
1.74398e-06
8.86933e-06
2.91502e-07
2.91505e-07
2.91503e-07
2.91498e-07
2.91498e-07
2.91501e-07
2.91499e-07
5.66229e-07
1.3884e-06
3.0019e-07
3.1737e-07
5.66378e-07
1.38762e-06
3.00191e-07
2.27196e-05
2.27196e-05
5.66244e-07
3.00193e-07
1.38831e-06
3.1738e-07
5.66397e-07
3.00192e-07
1.38757e-06
2.97079e-06
2.97153e-06
3.49982e-07
2.97028e-06
2.97102e-06
1.74368e-06
8.86846e-06
1.74416e-06
8.8684e-06
2.27206e-05
2.27207e-05
1.74355e-06
8.86994e-06
1.74398e-06
8.86987e-06
2.91497e-07
2.91501e-07
2.91499e-07
2.91491e-07
2.9149e-07
2.91494e-07
2.91492e-07
5.66242e-07
1.38842e-06
3.00188e-07
3.1737e-07
5.66387e-07
1.38771e-06
3.00187e-07
2.27207e-05
2.27207e-05
5.66251e-07
3.00189e-07
1.38833e-06
3.1738e-07
5.66402e-07
3.00189e-07
1.38766e-06
2.97078e-06
2.97151e-06
3.49984e-07
2.97034e-06
2.97108e-06
1.74383e-06
8.86931e-06
1.74447e-06
8.86907e-06
2.27202e-05
2.27197e-05
1.74369e-06
8.87066e-06
1.74428e-06
8.87035e-06
2.91479e-07
2.91482e-07
2.91481e-07
2.91395e-07
2.91394e-07
2.91397e-07
2.91395e-07
5.66182e-07
1.38857e-06
3.00168e-07
3.1732e-07
5.66388e-07
1.38774e-06
3.00142e-07
2.27204e-05
2.27195e-05
5.66193e-07
3.0017e-07
1.38849e-06
3.1733e-07
5.66404e-07
3.00144e-07
1.38769e-06
2.97097e-06
2.9717e-06
3.4994e-07
2.97033e-06
2.97107e-06
1.74356e-06
8.86941e-06
1.74419e-06
8.86898e-06
2.27193e-05
2.2719e-05
1.74343e-06
8.87067e-06
1.74401e-06
8.87019e-06
2.91378e-07
2.91381e-07
2.9138e-07
2.91365e-07
2.91366e-07
2.91369e-07
2.91368e-07
5.66075e-07
1.38836e-06
3.00069e-07
3.17241e-07
5.66252e-07
1.38753e-06
3.00063e-07
2.27196e-05
2.27192e-05
5.66084e-07
3.0007e-07
1.38828e-06
3.17252e-07
5.66264e-07
3.00065e-07
1.38749e-06
2.97062e-06
2.97135e-06
3.49835e-07
2.97001e-06
2.97074e-06
1.74351e-06
8.86932e-06
1.74408e-06
8.86893e-06
2.27191e-05
2.2719e-05
1.74338e-06
8.87053e-06
1.7439e-06
8.8701e-06
2.91368e-07
2.91371e-07
2.9137e-07
2.91365e-07
2.91366e-07
2.91369e-07
2.91368e-07
5.66064e-07
1.38827e-06
3.00059e-07
3.1724e-07
5.66217e-07
1.38749e-06
3.00061e-07
2.27195e-05
2.27192e-05
5.66075e-07
3.0006e-07
1.3882e-06
3.1725e-07
5.66231e-07
3.00063e-07
1.38745e-06
2.97049e-06
2.97122e-06
3.49852e-07
2.96995e-06
2.97069e-06
1.74351e-06
8.86931e-06
1.74407e-06
8.86893e-06
2.27192e-05
2.2719e-05
1.74338e-06
8.87049e-06
1.74389e-06
8.87008e-06
2.91368e-07
2.91371e-07
2.91369e-07
2.91364e-07
2.91366e-07
2.91369e-07
2.91367e-07
5.66062e-07
1.38827e-06
3.00058e-07
3.17238e-07
5.66216e-07
1.38749e-06
3.00059e-07
2.27194e-05
2.27192e-05
5.66075e-07
3.0006e-07
1.38819e-06
3.17248e-07
5.66232e-07
3.00061e-07
1.38745e-06
2.97048e-06
2.97121e-06
3.49848e-07
2.96995e-06
2.97068e-06
1.74351e-06
8.86931e-06
1.74407e-06
8.86893e-06
2.27192e-05
2.2719e-05
1.74338e-06
8.87047e-06
1.74389e-06
8.87006e-06
2.91368e-07
2.91371e-07
2.91369e-07
2.91364e-07
2.91366e-07
2.91369e-07
2.91367e-07
5.66061e-07
1.38827e-06
3.00058e-07
3.17238e-07
5.66214e-07
1.38749e-06
3.0006e-07
2.27194e-05
2.27192e-05
5.66074e-07
3.00059e-07
1.38819e-06
3.17248e-07
5.66231e-07
3.00061e-07
1.38745e-06
2.97048e-06
2.97121e-06
3.49848e-07
2.96995e-06
2.97068e-06
1.74351e-06
8.86931e-06
1.74407e-06
8.86893e-06
2.27192e-05
2.2719e-05
1.74338e-06
8.87047e-06
1.74389e-06
8.87006e-06
2.91368e-07
2.91371e-07
2.91369e-07
2.91364e-07
2.91366e-07
2.91369e-07
2.91367e-07
5.66062e-07
1.38827e-06
3.00058e-07
3.17238e-07
5.66215e-07
1.38749e-06
3.00059e-07
2.27194e-05
2.27192e-05
5.66074e-07
3.00059e-07
1.38819e-06
3.17248e-07
5.66231e-07
3.00061e-07
1.38745e-06
2.97048e-06
2.97121e-06
3.49844e-07
2.96995e-06
2.97068e-06
1.74351e-06
8.86931e-06
1.74407e-06
8.86893e-06
2.27192e-05
2.2719e-05
1.74338e-06
8.87046e-06
1.74389e-06
8.87005e-06
2.91368e-07
2.91371e-07
2.91369e-07
2.91364e-07
2.91366e-07
2.91369e-07
2.91367e-07
5.66062e-07
1.38827e-06
3.00058e-07
3.17238e-07
5.66216e-07
1.38749e-06
3.0006e-07
2.27194e-05
2.27192e-05
5.6608e-07
3.0006e-07
1.38819e-06
3.17248e-07
5.66234e-07
3.00061e-07
1.38745e-06
2.97048e-06
2.97121e-06
3.49846e-07
2.96995e-06
2.97068e-06
1.74351e-06
8.86931e-06
1.74407e-06
8.86893e-06
2.27192e-05
2.27191e-05
1.74338e-06
8.87046e-06
1.74389e-06
8.87005e-06
2.91368e-07
2.91371e-07
2.91369e-07
2.91364e-07
2.91366e-07
2.91369e-07
2.91367e-07
5.6606e-07
1.38827e-06
3.00058e-07
3.17238e-07
5.66213e-07
1.38749e-06
3.0006e-07
2.27194e-05
2.27192e-05
5.6609e-07
3.0006e-07
1.38819e-06
3.17248e-07
5.66243e-07
3.00062e-07
1.38745e-06
2.97048e-06
2.97121e-06
3.49848e-07
2.96994e-06
2.97068e-06
1.74351e-06
8.86931e-06
1.74407e-06
8.86893e-06
2.27192e-05
2.27191e-05
1.74338e-06
8.87046e-06
1.74389e-06
8.87005e-06
2.91368e-07
2.91371e-07
2.91369e-07
2.91365e-07
2.91366e-07
2.91369e-07
2.91367e-07
5.66062e-07
1.38827e-06
3.00058e-07
3.17238e-07
5.66214e-07
1.38749e-06
3.00059e-07
2.27194e-05
2.27192e-05
5.66095e-07
3.0006e-07
1.38819e-06
3.17248e-07
5.6625e-07
3.00062e-07
1.38745e-06
2.97048e-06
2.97121e-06
3.49847e-07
2.96994e-06
2.97068e-06
1.74351e-06
8.86931e-06
1.74407e-06
8.86893e-06
2.27192e-05
2.27191e-05
1.74338e-06
8.87046e-06
1.74389e-06
8.87005e-06
2.91368e-07
2.91371e-07
2.91369e-07
2.91364e-07
2.91366e-07
2.91369e-07
2.91367e-07
5.66062e-07
1.38827e-06
3.00058e-07
3.17238e-07
5.66215e-07
1.38749e-06
3.00059e-07
2.27194e-05
2.27192e-05
5.66095e-07
3.0006e-07
1.38819e-06
3.17248e-07
5.66252e-07
3.00062e-07
1.38745e-06
2.97048e-06
2.97121e-06
3.49847e-07
2.96994e-06
2.97068e-06
1.74351e-06
8.86931e-06
1.74407e-06
8.86893e-06
2.27192e-05
2.27191e-05
1.74338e-06
8.87046e-06
1.74389e-06
8.87005e-06
2.91368e-07
2.91371e-07
2.91369e-07
2.91364e-07
2.91366e-07
2.91369e-07
2.91367e-07
5.66062e-07
1.38827e-06
3.00058e-07
3.17238e-07
5.66215e-07
1.38749e-06
3.00059e-07
2.27194e-05
2.27192e-05
5.66094e-07
3.0006e-07
1.38819e-06
3.17248e-07
5.66251e-07
3.00062e-07
1.38745e-06
2.97047e-06
2.97121e-06
3.49847e-07
2.96994e-06
2.97068e-06
1.74351e-06
8.86931e-06
1.74407e-06
8.86893e-06
2.27192e-05
2.27191e-05
1.74338e-06
8.87046e-06
1.74389e-06
8.87005e-06
2.91368e-07
2.9137e-07
2.91368e-07
5.66064e-07
1.38827e-06
3.00058e-07
3.17238e-07
5.66215e-07
1.38749e-06
3.0006e-07
2.27194e-05
2.27192e-05
5.66094e-07
3.0006e-07
1.38819e-06
3.17249e-07
5.66249e-07
3.00062e-07
1.38745e-06
2.97047e-06
2.97121e-06
3.49847e-07
2.97001e-06
2.97073e-06
2.27225e-05
2.27238e-05
3.49942e-07
2.96949e-06
2.97019e-06
2.27204e-05
2.27223e-05
2.27217e-05
2.27235e-05
3.50206e-07
2.96976e-06
2.97047e-06
2.97007e-06
2.97077e-06
1.74339e-06
8.86939e-06
5.66147e-07
3.17381e-07
1.38729e-06
3.0019e-07
5.6615e-07
3.17386e-07
1.38745e-06
3.00191e-07
1.74397e-06
8.86853e-06
8.86896e-06
1.74351e-06
1.74398e-06
8.86932e-06
8.86978e-06
1.74352e-06
5.66308e-07
3.17381e-07
1.38739e-06
3.00189e-07
1.38805e-06
3.00189e-07
5.66161e-07
5.66311e-07
3.17386e-07
1.38755e-06
3.0019e-07
1.38822e-06
3.0019e-07
5.66163e-07
3.49934e-07
2.97017e-06
2.96933e-06
2.27206e-05
2.27214e-05
2.27232e-05
3.50197e-07
2.97044e-06
2.96962e-06
2.97078e-06
2.97001e-06
2.27187e-05
2.27207e-05
5.66164e-07
3.17367e-07
1.38757e-06
3.00192e-07
1.74325e-06
8.86968e-06
5.66155e-07
3.17394e-07
3.00195e-07
1.38764e-06
1.74379e-06
8.86998e-06
8.87041e-06
1.74338e-06
5.66322e-07
3.17367e-07
1.38767e-06
3.00191e-07
1.38832e-06
3.00191e-07
5.66178e-07
1.74378e-06
8.86959e-06
8.8701e-06
1.74337e-06
5.66315e-07
3.17394e-07
3.00194e-07
1.38774e-06
3.00194e-07
1.38845e-06
5.66169e-07
1.74341e-06
8.86887e-06
5.66154e-07
3.17385e-07
3.00191e-07
1.38735e-06
1.7434e-06
8.86963e-06
5.66309e-07
3.1736e-07
1.38747e-06
3.00188e-07
1.38817e-06
3.00189e-07
5.66163e-07
1.744e-06
8.86881e-06
8.86927e-06
1.74354e-06
5.66313e-07
3.17384e-07
3.0019e-07
1.38745e-06
3.0019e-07
1.38811e-06
5.66168e-07
1.74399e-06
8.86956e-06
8.87003e-06
1.74353e-06
3.4995e-07
2.97023e-06
2.96953e-06
2.27234e-05
2.27214e-05
2.27234e-05
3.50213e-07
2.97049e-06
2.9698e-06
2.9709e-06
2.97011e-06
2.27213e-05
2.27232e-05
5.66166e-07
3.17369e-07
3.00191e-07
1.3875e-06
1.74324e-06
8.86978e-06
1.74325e-06
8.87035e-06
5.66327e-07
3.17371e-07
3.0019e-07
1.38744e-06
3.00191e-07
1.3881e-06
5.66176e-07
5.6633e-07
3.17369e-07
3.0019e-07
1.3876e-06
3.0019e-07
1.38827e-06
5.66181e-07
1.74378e-06
8.86971e-06
8.87018e-06
1.74336e-06
1.74379e-06
8.87028e-06
8.87074e-06
1.74337e-06
2.27235e-05
2.27242e-05
3.50213e-07
2.96981e-06
2.97056e-06
2.97012e-06
2.97087e-06
2.27215e-05
2.27233e-05
2.27221e-05
2.2724e-05
2.27203e-05
2.27192e-05
2.27216e-05
2.27204e-05
2.97027e-06
2.97099e-06
3.49955e-07
2.96984e-06
2.97057e-06
2.27184e-05
2.27193e-05
2.27197e-05
2.27205e-05
3.50214e-07
2.96989e-06
2.97063e-06
2.97034e-06
2.97108e-06
1.74359e-06
8.8696e-06
1.74409e-06
8.86901e-06
5.66176e-07
1.38813e-06
3.00191e-07
3.17384e-07
5.66322e-07
1.38745e-06
3.00191e-07
5.66178e-07
1.38831e-06
3.00192e-07
3.17389e-07
5.66325e-07
1.38761e-06
3.00192e-07
1.74414e-06
8.86805e-06
8.86854e-06
1.74362e-06
1.74415e-06
8.86881e-06
8.86931e-06
1.74363e-06
5.66337e-07
3.17384e-07
1.38748e-06
3.0019e-07
1.38818e-06
3.0019e-07
5.66191e-07
5.6634e-07
3.17388e-07
1.38764e-06
3.00191e-07
1.38836e-06
3.00191e-07
5.66193e-07
2.97098e-06
2.97024e-06
3.49946e-07
2.97057e-06
2.9698e-06
2.27188e-05
2.27174e-05
2.27194e-05
2.27201e-05
3.50205e-07
2.97067e-06
2.96991e-06
2.9711e-06
2.9704e-06
2.27166e-05
2.27176e-05
5.66193e-07
1.38841e-06
3.00193e-07
3.1737e-07
5.66336e-07
1.38773e-06
3.00193e-07
1.74345e-06
8.8699e-06
1.74389e-06
8.86929e-06
5.66184e-07
3.00195e-07
1.38853e-06
3.17397e-07
5.66329e-07
3.00195e-07
1.3878e-06
1.74396e-06
8.86949e-06
8.87001e-06
1.7435e-06
5.66351e-07
3.17369e-07
1.38777e-06
3.00192e-07
1.38846e-06
3.00191e-07
5.66209e-07
1.74395e-06
8.8691e-06
8.86962e-06
1.74349e-06
5.66344e-07
3.17396e-07
3.00195e-07
1.38784e-06
3.00194e-07
1.38858e-06
5.66199e-07
1.74361e-06
8.86914e-06
1.74411e-06
8.86854e-06
5.66183e-07
3.00192e-07
1.3882e-06
3.17387e-07
5.66327e-07
3.00192e-07
1.3875e-06
1.7436e-06
8.86985e-06
1.7441e-06
8.86925e-06
5.66337e-07
3.17364e-07
1.38757e-06
3.0019e-07
1.38831e-06
3.0019e-07
5.66191e-07
1.74417e-06
8.86834e-06
8.86887e-06
1.74365e-06
5.66343e-07
3.17386e-07
3.00191e-07
1.38754e-06
3.00191e-07
1.38825e-06
5.66198e-07
1.74416e-06
8.86906e-06
8.86956e-06
1.74365e-06
2.97111e-06
2.97033e-06
3.49963e-07
2.97066e-06
2.9699e-06
2.27212e-05
2.272e-05
2.27194e-05
2.27204e-05
3.50221e-07
2.97076e-06
2.96995e-06
2.97126e-06
2.9704e-06
2.27193e-05
2.27201e-05
5.66196e-07
3.00192e-07
1.38836e-06
3.17372e-07
5.66345e-07
3.00192e-07
1.38766e-06
1.74343e-06
8.87e-06
1.74389e-06
8.8694e-06
1.74344e-06
8.87056e-06
1.7439e-06
8.86998e-06
5.66354e-07
3.17374e-07
3.00192e-07
1.38753e-06
3.00193e-07
1.38824e-06
5.66204e-07
5.66361e-07
3.17371e-07
3.00191e-07
1.3877e-06
3.00191e-07
1.38841e-06
5.66211e-07
1.74395e-06
8.8692e-06
8.8697e-06
1.74347e-06
1.74396e-06
8.86981e-06
8.87029e-06
1.74349e-06
2.27214e-05
2.27202e-05
2.2722e-05
2.27208e-05
3.50221e-07
2.96998e-06
2.97072e-06
2.97043e-06
2.97117e-06
2.27195e-05
2.27203e-05
2.27201e-05
2.2721e-05
2.27187e-05
2.27181e-05
2.272e-05
2.27194e-05
2.97039e-06
2.97113e-06
3.4996e-07
2.96996e-06
2.9707e-06
2.27179e-05
2.27184e-05
2.27192e-05
2.27197e-05
3.5022e-07
2.97005e-06
2.97079e-06
2.97046e-06
2.97121e-06
1.74365e-06
8.86914e-06
1.74419e-06
8.86869e-06
5.66204e-07
1.38822e-06
3.00193e-07
3.17387e-07
5.66352e-07
1.38751e-06
3.00193e-07
5.66205e-07
1.38839e-06
3.00194e-07
3.17392e-07
5.66354e-07
1.38767e-06
3.00194e-07
1.74419e-06
8.86786e-06
8.86828e-06
1.74364e-06
1.7442e-06
8.86862e-06
8.86903e-06
1.74365e-06
5.66365e-07
3.17387e-07
1.38752e-06
3.00192e-07
1.38824e-06
3.00192e-07
5.66215e-07
5.66366e-07
3.17391e-07
1.38768e-06
3.00193e-07
1.38841e-06
3.00193e-07
5.66216e-07
2.97119e-06
2.9705e-06
3.49952e-07
2.97074e-06
2.96998e-06
2.27169e-05
2.27162e-05
2.27189e-05
2.27193e-05
3.50211e-07
2.97083e-06
2.97008e-06
2.97127e-06
2.97057e-06
2.27161e-05
2.27166e-05
5.66221e-07
1.3885e-06
3.00195e-07
3.17373e-07
5.66366e-07
1.38779e-06
3.00195e-07
1.7435e-06
8.86946e-06
1.74399e-06
8.86898e-06
5.66211e-07
3.00198e-07
1.38862e-06
3.17399e-07
5.66358e-07
3.00198e-07
1.38786e-06
1.744e-06
8.86931e-06
8.86974e-06
1.7435e-06
5.66377e-07
3.17372e-07
1.38781e-06
3.00194e-07
1.38852e-06
3.00194e-07
5.6623e-07
1.74399e-06
8.86891e-06
8.86935e-06
1.74349e-06
5.6637e-07
3.17399e-07
3.00197e-07
1.38788e-06
3.00197e-07
1.38864e-06
5.66221e-07
1.74367e-06
8.8687e-06
1.7442e-06
8.86823e-06
5.6621e-07
3.00194e-07
1.38828e-06
3.1739e-07
5.66357e-07
3.00194e-07
1.38756e-06
1.74366e-06
8.86938e-06
1.7442e-06
8.86894e-06
5.66361e-07
3.17367e-07
1.38761e-06
3.00191e-07
1.38836e-06
3.00192e-07
5.6621e-07
1.74421e-06
8.86816e-06
8.8686e-06
1.74366e-06
5.66369e-07
3.17389e-07
3.00193e-07
1.38758e-06
3.00193e-07
1.3883e-06
5.6622e-07
1.74421e-06
8.86887e-06
8.86928e-06
1.74366e-06
2.97136e-06
2.97046e-06
3.49969e-07
2.97084e-06
2.97002e-06
2.27196e-05
2.2719e-05
2.27189e-05
2.27193e-05
3.50228e-07
2.97093e-06
2.97011e-06
2.97143e-06
2.97053e-06
2.27188e-05
2.27193e-05
5.66223e-07
3.00194e-07
1.38844e-06
3.17374e-07
5.66375e-07
3.00194e-07
1.38772e-06
1.74348e-06
8.86953e-06
1.74398e-06
8.86908e-06
1.7435e-06
8.87014e-06
1.74399e-06
8.86969e-06
5.66377e-07
3.17377e-07
3.00193e-07
1.38757e-06
3.00194e-07
1.38829e-06
5.66222e-07
5.66386e-07
3.17374e-07
3.00193e-07
1.38773e-06
3.00193e-07
1.38846e-06
5.66232e-07
1.74398e-06
8.86901e-06
8.86942e-06
1.74348e-06
1.744e-06
8.86959e-06
8.87002e-06
1.74349e-06
2.27197e-05
2.27191e-05
2.27204e-05
2.27198e-05
3.50226e-07
2.97013e-06
2.97087e-06
2.97056e-06
2.97129e-06
2.2719e-05
2.27194e-05
2.27196e-05
2.27201e-05
2.27183e-05
2.2718e-05
2.27196e-05
2.27193e-05
2.97055e-06
2.9713e-06
3.49968e-07
2.97013e-06
2.97087e-06
2.27183e-05
2.27184e-05
2.27196e-05
2.27197e-05
3.50228e-07
2.97018e-06
2.97092e-06
2.97063e-06
2.97138e-06
1.74363e-06
8.86898e-06
1.74419e-06
8.8686e-06
5.66222e-07
1.38825e-06
3.00196e-07
3.17391e-07
5.66374e-07
1.38753e-06
3.00196e-07
5.66224e-07
1.38843e-06
3.00196e-07
3.17396e-07
5.66376e-07
1.38769e-06
3.00196e-07
1.74417e-06
8.86784e-06
8.8682e-06
1.74362e-06
1.74418e-06
8.86862e-06
8.86897e-06
1.74364e-06
5.66382e-07
3.1739e-07
1.38754e-06
3.00195e-07
1.38826e-06
3.00195e-07
5.66231e-07
5.66384e-07
3.17395e-07
1.3877e-06
3.00195e-07
1.38843e-06
3.00196e-07
5.66233e-07
2.97135e-06
2.97068e-06
3.4996e-07
2.97091e-06
2.97018e-06
2.27166e-05
2.27162e-05
2.27193e-05
2.27194e-05
3.5022e-07
2.97095e-06
2.97022e-06
2.97142e-06
2.97076e-06
2.27165e-05
2.27167e-05
5.66237e-07
1.38853e-06
3.00197e-07
3.17376e-07
5.66386e-07
1.38782e-06
3.00197e-07
1.74348e-06
8.8693e-06
1.74398e-06
8.8689e-06
5.66229e-07
3.002e-07
1.38865e-06
3.17403e-07
5.66379e-07
3.002e-07
1.38789e-06
1.74398e-06
8.8693e-06
8.86967e-06
1.74349e-06
5.66394e-07
3.17376e-07
1.38782e-06
3.00195e-07
1.38854e-06
3.00195e-07
5.66247e-07
1.74397e-06
8.86892e-06
8.8693e-06
1.74349e-06
5.66388e-07
3.17403e-07
3.00198e-07
1.3879e-06
3.00199e-07
1.38867e-06
5.66238e-07
1.74365e-06
8.86855e-06
1.74421e-06
8.86814e-06
5.66226e-07
3.00196e-07
1.38831e-06
3.17394e-07
5.66377e-07
3.00196e-07
1.38759e-06
1.74365e-06
8.86922e-06
1.7442e-06
8.86885e-06
5.66375e-07
3.1737e-07
1.38763e-06
3.00192e-07
1.38839e-06
3.00194e-07
5.66224e-07
1.74419e-06
8.86816e-06
8.86854e-06
1.74365e-06
5.66384e-07
3.17393e-07
3.00194e-07
1.38759e-06
3.00196e-07
1.38832e-06
5.66235e-07
1.74419e-06
8.86886e-06
8.86921e-06
1.74365e-06
2.97152e-06
2.97062e-06
3.49976e-07
2.97102e-06
2.97019e-06
2.27192e-05
2.27189e-05
2.27192e-05
2.27195e-05
3.50235e-07
2.97106e-06
2.97024e-06
2.97161e-06
2.9707e-06
2.27192e-05
2.27193e-05
5.66241e-07
3.00197e-07
1.38847e-06
3.17378e-07
5.66394e-07
3.00197e-07
1.38774e-06
1.74346e-06
8.86937e-06
1.74397e-06
8.86899e-06
1.74348e-06
8.86994e-06
1.74399e-06
8.86955e-06
5.66392e-07
3.1738e-07
3.00195e-07
1.38758e-06
3.00195e-07
1.38831e-06
5.66238e-07
5.66404e-07
3.17377e-07
3.00195e-07
1.38774e-06
3.00196e-07
1.38848e-06
5.66251e-07
1.74396e-06
8.869e-06
8.86936e-06
1.74347e-06
1.74397e-06
8.86955e-06
8.86991e-06
1.74348e-06
2.27193e-05
2.2719e-05
2.272e-05
2.27197e-05
3.50234e-07
2.97026e-06
2.971e-06
2.97072e-06
2.97146e-06
2.27193e-05
2.27194e-05
2.27199e-05
2.27201e-05
2.27187e-05
2.27187e-05
2.272e-05
2.27199e-05
2.97067e-06
2.97142e-06
3.49977e-07
2.97021e-06
2.97095e-06
2.27193e-05
2.27191e-05
2.27206e-05
2.27204e-05
3.50236e-07
2.97017e-06
2.97091e-06
2.97068e-06
2.97142e-06
1.74363e-06
8.869e-06
1.74418e-06
8.86865e-06
5.66236e-07
1.38826e-06
3.00194e-07
3.17393e-07
5.6639e-07
1.38754e-06
3.00192e-07
5.66239e-07
1.38844e-06
3.00194e-07
3.17398e-07
5.66393e-07
1.3877e-06
3.00192e-07
1.74417e-06
8.868e-06
8.86825e-06
1.74362e-06
1.74418e-06
8.86877e-06
8.86903e-06
1.74363e-06
5.66394e-07
3.1739e-07
1.38755e-06
3.00188e-07
1.38826e-06
3.00189e-07
5.66234e-07
5.66397e-07
3.17395e-07
1.38771e-06
3.00188e-07
1.38844e-06
3.00189e-07
5.66236e-07
2.97146e-06
2.97079e-06
3.49968e-07
2.97098e-06
2.97023e-06
2.2717e-05
2.27168e-05
2.27203e-05
2.27201e-05
3.50227e-07
2.97093e-06
2.97019e-06
2.97147e-06
2.97079e-06
2.27174e-05
2.27174e-05
5.66252e-07
1.38854e-06
3.00193e-07
3.17378e-07
5.66403e-07
1.38782e-06
3.00193e-07
1.74348e-06
8.86933e-06
1.74397e-06
8.86896e-06
5.66243e-07
3.00197e-07
1.38867e-06
3.17405e-07
5.66396e-07
3.00195e-07
1.3879e-06
1.74398e-06
8.86946e-06
8.86973e-06
1.74349e-06
5.66406e-07
3.17376e-07
1.38783e-06
3.00189e-07
1.38854e-06
3.00189e-07
5.66248e-07
1.74398e-06
8.86908e-06
8.86936e-06
1.74348e-06
5.664e-07
3.17403e-07
3.00191e-07
1.38791e-06
3.00192e-07
1.38867e-06
5.6624e-07
1.74364e-06
8.86856e-06
1.74419e-06
8.86819e-06
5.66241e-07
3.00193e-07
1.38832e-06
3.17395e-07
5.66393e-07
3.00192e-07
1.38759e-06
1.74364e-06
8.86924e-06
1.74419e-06
8.86889e-06
5.66387e-07
3.17369e-07
1.38763e-06
3.00188e-07
1.38839e-06
3.0019e-07
5.66233e-07
1.74419e-06
8.86832e-06
8.8686e-06
1.74364e-06
5.66397e-07
3.17393e-07
3.00188e-07
1.3876e-06
3.00189e-07
1.38832e-06
5.6624e-07
1.74419e-06
8.86901e-06
8.86927e-06
1.74364e-06
2.97164e-06
2.97074e-06
3.49984e-07
2.97108e-06
2.97026e-06
2.27196e-05
2.27195e-05
2.27202e-05
2.27202e-05
3.50243e-07
2.97104e-06
2.97022e-06
2.97164e-06
2.97074e-06
2.27202e-05
2.272e-05
5.66255e-07
3.00194e-07
1.38848e-06
3.1738e-07
5.66412e-07
3.00193e-07
1.38774e-06
1.74346e-06
8.86938e-06
1.74396e-06
8.86904e-06
1.74347e-06
8.86992e-06
1.74397e-06
8.86957e-06
5.66406e-07
3.17379e-07
3.00189e-07
1.38758e-06
3.0019e-07
1.3883e-06
5.66245e-07
5.66415e-07
3.17377e-07
3.00189e-07
1.38775e-06
3.0019e-07
1.38848e-06
5.66252e-07
1.74397e-06
8.86916e-06
8.86941e-06
1.74346e-06
1.74397e-06
8.86968e-06
8.86994e-06
1.74347e-06
2.27197e-05
2.27197e-05
2.27204e-05
2.27203e-05
3.50242e-07
2.97024e-06
2.97098e-06
2.97077e-06
2.9715e-06
2.27204e-05
2.27202e-05
2.2721e-05
2.27208e-05
2.27199e-05
2.27198e-05
2.27212e-05
2.27211e-05
2.97066e-06
2.97141e-06
3.49978e-07
2.97027e-06
2.97101e-06
2.27193e-05
2.272e-05
2.27206e-05
2.27213e-05
3.50237e-07
2.97037e-06
2.97111e-06
2.97081e-06
2.97155e-06
1.7437e-06
8.86921e-06
1.74417e-06
8.86917e-06
5.66237e-07
1.38828e-06
3.00188e-07
3.17391e-07
5.6639e-07
1.38762e-06
3.00187e-07
5.6624e-07
1.38846e-06
3.00189e-07
3.17396e-07
5.66393e-07
1.38778e-06
3.00188e-07
1.7443e-06
8.86886e-06
8.86887e-06
1.74388e-06
1.74432e-06
8.86965e-06
8.86964e-06
1.74389e-06
5.66398e-07
3.17389e-07
1.3877e-06
3.00181e-07
1.38838e-06
3.00185e-07
5.66238e-07
5.66401e-07
3.17394e-07
1.38786e-06
3.00182e-07
1.38855e-06
3.00186e-07
5.6624e-07
2.97145e-06
2.97077e-06
3.4997e-07
2.97103e-06
2.97029e-06
2.27181e-05
2.2718e-05
2.27202e-05
2.2721e-05
3.50229e-07
2.97112e-06
2.97039e-06
2.97158e-06
2.97092e-06
2.27174e-05
2.27183e-05
5.66251e-07
1.38856e-06
3.00188e-07
3.17376e-07
5.66401e-07
1.3879e-06
3.00188e-07
1.74354e-06
8.86955e-06
1.74397e-06
8.86947e-06
5.66244e-07
3.00192e-07
1.38869e-06
3.17404e-07
5.66395e-07
3.00192e-07
1.38798e-06
1.74412e-06
8.87021e-06
8.87035e-06
1.74375e-06
5.6641e-07
3.17374e-07
1.38797e-06
3.00183e-07
1.38866e-06
3.00186e-07
5.66253e-07
1.74411e-06
8.86994e-06
8.86997e-06
1.74374e-06
5.66405e-07
3.17402e-07
3.00186e-07
1.38806e-06
3.0019e-07
1.38878e-06
5.66246e-07
1.74371e-06
8.86879e-06
1.74418e-06
8.86871e-06
5.66245e-07
3.00189e-07
1.38834e-06
3.17394e-07
5.66395e-07
3.00188e-07
1.38767e-06
1.7437e-06
8.86945e-06
1.74418e-06
8.86941e-06
5.66403e-07
3.17368e-07
1.38779e-06
3.00181e-07
1.38851e-06
3.00185e-07
5.66243e-07
1.74433e-06
8.86919e-06
8.86922e-06
1.74391e-06
5.66405e-07
3.17392e-07
3.00182e-07
1.38775e-06
3.00186e-07
1.38844e-06
5.66246e-07
1.74433e-06
8.86989e-06
8.86989e-06
1.7439e-06
2.97162e-06
2.97072e-06
3.49986e-07
2.97113e-06
2.97032e-06
2.27208e-05
2.27207e-05
2.27202e-05
2.27211e-05
3.50244e-07
2.97123e-06
2.97042e-06
2.97176e-06
2.97087e-06
2.27202e-05
2.27209e-05
5.66255e-07
3.00189e-07
1.3885e-06
3.17378e-07
5.6641e-07
3.00188e-07
1.38782e-06
1.74353e-06
8.8696e-06
1.74395e-06
8.86955e-06
1.74353e-06
8.87012e-06
1.74396e-06
8.87007e-06
5.66416e-07
3.17379e-07
3.00182e-07
1.38774e-06
3.00187e-07
1.38843e-06
5.66254e-07
5.66419e-07
3.17376e-07
3.00182e-07
1.3879e-06
3.00186e-07
1.38859e-06
5.66258e-07
1.7441e-06
8.87003e-06
8.87003e-06
1.74373e-06
1.7441e-06
8.87055e-06
8.87054e-06
1.74373e-06
2.27209e-05
2.27208e-05
2.27215e-05
2.27214e-05
3.50243e-07
2.97044e-06
2.97118e-06
2.97089e-06
2.97163e-06
2.27203e-05
2.2721e-05
2.2721e-05
2.27217e-05
2.27194e-05
2.27187e-05
2.27207e-05
2.272e-05
2.97085e-06
2.9716e-06
3.49932e-07
2.97026e-06
2.971e-06
2.27184e-05
2.27189e-05
2.27197e-05
2.27202e-05
3.50174e-07
2.97005e-06
2.97079e-06
2.9707e-06
2.97144e-06
1.74385e-06
8.87008e-06
1.74448e-06
8.86987e-06
5.66178e-07
1.38843e-06
3.0017e-07
3.1734e-07
5.66388e-07
1.38764e-06
3.00143e-07
5.6618e-07
1.38861e-06
3.00171e-07
3.17344e-07
5.6639e-07
1.3878e-06
3.00144e-07
1.74435e-06
8.86905e-06
8.86944e-06
1.74367e-06
1.74436e-06
8.86984e-06
8.87024e-06
1.74368e-06
5.66315e-07
3.1731e-07
1.38752e-06
3.00087e-07
1.38834e-06
3.00112e-07
5.66107e-07
5.66317e-07
3.17315e-07
1.38768e-06
3.00087e-07
1.38851e-06
3.00113e-07
5.66109e-07
2.97163e-06
2.97097e-06
3.49924e-07
2.97101e-06
2.97029e-06
2.27177e-05
2.27168e-05
2.27192e-05
2.27199e-05
3.50167e-07
2.97088e-06
2.97007e-06
2.97147e-06
2.97081e-06
2.27165e-05
2.27172e-05
5.66192e-07
1.38876e-06
3.00172e-07
3.17325e-07
5.66399e-07
1.38795e-06
3.00145e-07
1.74369e-06
8.87041e-06
1.74427e-06
8.87018e-06
5.66184e-07
3.00175e-07
1.38884e-06
3.17353e-07
5.66393e-07
3.00147e-07
1.388e-06
1.74416e-06
8.87029e-06
8.87073e-06
1.74353e-06
5.66326e-07
3.17295e-07
1.38785e-06
3.00088e-07