/*--------------------------------*- C++ -*----------------------------------*\
| =========                 |                                                 |
| \\      /  F ield         | OpenFOAM: The Open Source CFD Toolbox           |
|  \\    /   O peration     | Version:  2206                                  |
|   \\  /    A nd           | Website:  www.openfoam.com                      |
|    \\/     M anipulation  |                                                 |
\*---------------------------------------------------------------------------*/
FoamFile
{
    version     2.0;
    format      ascii;
    arch        "LSB;label=32;scalar=64";
    class       volVectorField;
    location    "27";
    object      U;
}
// * * * * * * * * * * * * * * * * * * * * * * * * * * * * * * * * * * * * * //

dimensions      [0 1 -1 0 0 0 0];

internalField   nonuniform List<vector> 
28335
(
(-7.25679e-07 -7.21971e-07 0.10304)
(-4.77534e-07 7.3608e-07 0.102979)
(7.33109e-07 -4.77426e-07 0.102979)
(-4.40014e-05 -4.40162e-05 0.102892)
(-7.32555e-07 -7.28373e-07 0.10304)
(-4.64697e-07 7.28934e-07 0.102979)
(7.25352e-07 -4.65758e-07 0.102979)
(-4.39927e-05 -4.40088e-05 0.102892)
(-7.44157e-07 -7.40901e-07 0.10304)
(-4.46324e-07 7.22143e-07 0.102979)
(7.19242e-07 -4.4583e-07 0.102979)
(-4.39811e-05 -4.39948e-05 0.102892)
(-7.43817e-07 -7.40847e-07 0.10304)
(-4.5823e-07 7.34841e-07 0.102979)
(7.32826e-07 -4.5898e-07 0.102979)
(-4.39874e-05 -4.40004e-05 0.102891)
(-6.98763e-07 -6.96252e-07 0.10304)
(-5.35525e-07 7.94568e-07 0.102978)
(7.91569e-07 -5.35612e-07 0.102978)
(-4.40052e-05 -4.40188e-05 0.102891)
(-6.72171e-07 -6.70902e-07 0.10304)
(-5.43891e-07 7.47968e-07 0.102979)
(7.49391e-07 -5.44906e-07 0.102979)
(-4.41012e-05 -4.41202e-05 0.102892)
(-7.31445e-07 -7.33601e-07 0.10304)
(-4.70123e-07 7.12645e-07 0.102979)
(7.19963e-07 -4.721e-07 0.102979)
(-4.40017e-05 -4.40181e-05 0.102892)
(-7.23901e-07 -7.22507e-07 0.10304)
(-4.81459e-07 7.34574e-07 0.102979)
(7.33236e-07 -4.81521e-07 0.102979)
(-4.40184e-05 -4.40329e-05 0.102892)
(-7.21956e-07 -7.21529e-07 0.10304)
(-4.85054e-07 7.35632e-07 0.102979)
(7.3495e-07 -4.8113e-07 0.102979)
(-4.40222e-05 -4.40325e-05 0.102892)
(-7.2108e-07 -7.21104e-07 0.10304)
(-4.85382e-07 7.35308e-07 0.102979)
(7.35959e-07 -4.81088e-07 0.102979)
(-4.40225e-05 -4.40317e-05 0.102892)
(-7.20439e-07 -7.2069e-07 0.10304)
(-4.85828e-07 7.35392e-07 0.102979)
(7.36303e-07 -4.81277e-07 0.102979)
(-4.40228e-05 -4.40321e-05 0.102892)
(-7.199e-07 -7.20381e-07 0.10304)
(-4.86315e-07 7.35567e-07 0.102979)
(7.36827e-07 -4.81667e-07 0.102979)
(-4.40232e-05 -4.40322e-05 0.102892)
(-7.19966e-07 -7.20474e-07 0.10304)
(-4.86673e-07 7.35934e-07 0.102979)
(7.37119e-07 -4.81872e-07 0.102979)
(-4.40229e-05 -4.40319e-05 0.102892)
(-7.1994e-07 -7.2041e-07 0.10304)
(-4.85825e-07 7.35531e-07 0.102979)
(7.36696e-07 -4.81015e-07 0.102979)
(-4.40214e-05 -4.40305e-05 0.102892)
(-7.20212e-07 -7.20535e-07 0.10304)
(-4.85531e-07 7.35098e-07 0.102979)
(7.36596e-07 -4.80998e-07 0.102979)
(-4.40213e-05 -4.40304e-05 0.102892)
(-7.2068e-07 -7.20914e-07 0.10304)
(-4.85344e-07 7.34714e-07 0.102979)
(7.36279e-07 -4.80513e-07 0.102979)
(-4.40195e-05 -4.40284e-05 0.102892)
(-7.20639e-07 -7.20568e-07 0.10304)
(-4.84336e-07 7.34362e-07 0.102979)
(7.35966e-07 -4.79366e-07 0.102979)
(-4.40121e-05 -4.40209e-05 0.102892)
(-4.6027e-05 -4.60017e-05 0.102896)
(7.59836e-07 4.99569e-07 0.102979)
(-7.63999e-07 5.08454e-07 0.102979)
(4.60321e-05 -4.60041e-05 0.102896)
(4.845e-07 7.39961e-07 0.102979)
(5.06201e-07 -7.60554e-07 0.102979)
(-4.81804e-07 7.38992e-07 0.102979)
(-5.04204e-07 -7.56394e-07 0.102979)
(-4.6e-05 4.60352e-05 0.102896)
(7.36145e-07 -4.81915e-07 0.102979)
(-7.34883e-07 -4.82659e-07 0.102979)
(4.60029e-05 4.60226e-05 0.102896)
(4.40075e-05 4.39912e-05 0.102892)
(-4.60343e-05 -4.60086e-05 0.102896)
(7.55894e-07 4.99477e-07 0.102979)
(-7.61024e-07 5.0314e-07 0.102979)
(7.55385e-07 4.92561e-07 0.102979)
(-7.59832e-07 5.0145e-07 0.102979)
(-4.4002e-05 4.39765e-05 0.102892)
(4.60402e-05 -4.60106e-05 0.102896)
(4.82318e-07 7.37239e-07 0.102979)
(5.01322e-07 -7.58088e-07 0.102979)
(4.76876e-07 7.35454e-07 0.102979)
(4.99496e-07 -7.56351e-07 0.102979)
(-4.98336e-07 -7.52729e-07 0.102979)
(-4.73965e-07 7.34741e-07 0.102979)
(-4.96748e-07 -7.52936e-07 0.102979)
(4.39886e-05 -4.40209e-05 0.102892)
(-4.6007e-05 4.60425e-05 0.102896)
(-7.31314e-07 -4.74888e-07 0.102979)
(7.31447e-07 -4.74623e-07 0.102979)
(-7.30943e-07 -4.77249e-07 0.102979)
(4.60097e-05 4.60281e-05 0.102896)
(4.39986e-05 4.39831e-05 0.102892)
(-4.60501e-05 -4.60243e-05 0.102896)
(7.49222e-07 4.88485e-07 0.102979)
(-7.53819e-07 4.91707e-07 0.102979)
(7.54733e-07 4.83104e-07 0.102979)
(-7.59784e-07 4.92011e-07 0.102979)
(-4.39923e-05 4.39684e-05 0.102892)
(4.60544e-05 -4.60269e-05 0.102896)
(4.69864e-07 7.31207e-07 0.102979)
(4.88206e-07 -7.51176e-07 0.102979)
(4.66911e-07 7.35341e-07 0.102979)
(4.89669e-07 -7.56643e-07 0.102979)
(-4.86164e-07 -7.4664e-07 0.102979)
(-4.66011e-07 7.35417e-07 0.102979)
(-4.87945e-07 -7.51741e-07 0.102979)
(4.3979e-05 -4.40126e-05 0.102892)
(-4.60225e-05 4.60576e-05 0.102896)
(-7.24839e-07 -4.65188e-07 0.102979)
(7.31663e-07 -4.6557e-07 0.102979)
(-7.3128e-07 -4.66155e-07 0.102979)
(4.60242e-05 4.60452e-05 0.102896)
(4.3986e-05 4.39696e-05 0.102892)
(-4.6067e-05 -4.60421e-05 0.102896)
(7.41771e-07 4.67324e-07 0.102979)
(-7.47153e-07 4.7122e-07 0.102979)
(7.64417e-07 4.90208e-07 0.102979)
(-7.68476e-07 4.99539e-07 0.102979)
(-4.39813e-05 4.3955e-05 0.102892)
(4.60733e-05 -4.60443e-05 0.102896)
(4.49962e-07 7.22817e-07 0.102979)
(4.70195e-07 -7.44267e-07 0.102979)
(4.75651e-07 7.44191e-07 0.102979)
(4.97254e-07 -7.64403e-07 0.102979)
(-4.66636e-07 -7.38831e-07 0.102979)
(-4.72984e-07 7.4368e-07 0.102979)
(-4.96171e-07 -7.6099e-07 0.102979)
(4.39676e-05 -4.39997e-05 0.102892)
(-4.60407e-05 4.60763e-05 0.102896)
(-7.18471e-07 -4.44202e-07 0.102979)
(7.40978e-07 -4.72779e-07 0.102979)
(-7.40384e-07 -4.73201e-07 0.102979)
(4.60417e-05 4.60634e-05 0.102896)
(4.39925e-05 4.39759e-05 0.102891)
(-4.61061e-05 -4.60808e-05 0.102895)
(7.55857e-07 4.805e-07 0.102979)
(-7.60137e-07 4.8485e-07 0.102979)
(7.40186e-07 4.57211e-07 0.102978)
(-7.44207e-07 4.66487e-07 0.102978)
(-4.39864e-05 4.39615e-05 0.102892)
(4.61117e-05 -4.60827e-05 0.102895)
(4.63737e-07 7.36629e-07 0.102979)
(4.82435e-07 -7.56621e-07 0.102979)
(4.42162e-07 7.20261e-07 0.102978)
(4.63836e-07 -7.39441e-07 0.102978)
(-4.80549e-07 -7.52744e-07 0.102979)
(-4.38618e-07 7.20228e-07 0.102979)
(-4.61459e-07 -7.36724e-07 0.102978)
(4.39729e-05 -4.40051e-05 0.102891)
(-4.60795e-05 4.61163e-05 0.102895)
(-7.32241e-07 -4.5778e-07 0.102979)
(7.16216e-07 -4.37075e-07 0.102978)
(-7.15799e-07 -4.3814e-07 0.102978)
(4.60811e-05 4.61024e-05 0.102895)
(4.40111e-05 4.39943e-05 0.102891)
(-4.59303e-05 -4.59067e-05 0.102896)
(8.15244e-07 5.57486e-07 0.102978)
(-8.19046e-07 5.61569e-07 0.102978)
(8.12273e-07 6.10029e-07 0.102979)
(-8.14384e-07 6.16778e-07 0.102979)
(-4.4006e-05 4.39799e-05 0.102891)
(4.59363e-05 -4.59126e-05 0.102896)
(5.41216e-07 7.96046e-07 0.102978)
(5.58685e-07 -8.15179e-07 0.102978)
(5.95056e-07 7.90241e-07 0.102979)
(6.18226e-07 -8.14088e-07 0.102979)
(-5.5701e-07 -8.11975e-07 0.102978)
(-5.93696e-07 7.8812e-07 0.102979)
(-6.12501e-07 -8.07197e-07 0.102979)
(4.39909e-05 -4.4023e-05 0.102891)
(-4.59045e-05 4.59371e-05 0.102896)
(-7.90481e-07 -5.3397e-07 0.102978)
(7.8792e-07 -5.94086e-07 0.102979)
(-7.83483e-07 -5.95232e-07 0.102979)
(4.59112e-05 4.59272e-05 0.102896)
(4.41122e-05 4.40947e-05 0.102892)
(-4.60657e-05 -4.60454e-05 0.102896)
(7.73005e-07 5.64367e-07 0.102979)
(-7.74722e-07 5.64803e-07 0.102979)
(7.42366e-07 4.83971e-07 0.102979)
(-7.33418e-07 4.81562e-07 0.102979)
(-4.41064e-05 4.40751e-05 0.102892)
(4.60775e-05 -4.60635e-05 0.102896)
(5.47824e-07 7.51645e-07 0.102979)
(5.67583e-07 -7.75512e-07 0.102979)
(4.73215e-07 7.16981e-07 0.102979)
(4.92863e-07 -7.40991e-07 0.102979)
(-5.61668e-07 -7.69257e-07 0.102979)
(-4.6841e-07 7.06726e-07 0.102979)
(-4.90707e-07 -7.39219e-07 0.102979)
(4.40934e-05 -4.41273e-05 0.102892)
(-4.60431e-05 4.60752e-05 0.102896)
(-7.45061e-07 -5.44516e-07 0.102979)
(7.15037e-07 -4.70183e-07 0.102979)
(-7.14983e-07 -4.72076e-07 0.102979)
(4.60429e-05 4.60605e-05 0.102896)
(4.40097e-05 4.39887e-05 0.102892)
(-4.60499e-05 -4.60256e-05 0.102896)
(7.46999e-07 4.89546e-07 0.102979)
(-7.37818e-07 4.84524e-07 0.102979)
(7.56497e-07 4.95353e-07 0.102979)
(-7.59079e-07 5.05085e-07 0.102979)
(-4.39972e-05 4.3956e-05 0.102892)
(4.60574e-05 -4.60291e-05 0.102896)
(4.77144e-07 7.22828e-07 0.102979)
(4.93151e-07 -7.46056e-07 0.102979)
(4.81982e-07 7.34745e-07 0.102979)
(5.02703e-07 -7.57227e-07 0.102979)
(-4.90581e-07 -7.43375e-07 0.102979)
(-4.79209e-07 7.33847e-07 0.102979)
(-5.00767e-07 -7.53198e-07 0.102979)
(4.39865e-05 -4.40222e-05 0.102892)
(-4.60243e-05 4.60582e-05 0.102896)
(-7.19122e-07 -4.71727e-07 0.102979)
(7.31569e-07 -4.78345e-07 0.102979)
(-7.30388e-07 -4.81388e-07 0.102979)
(4.60256e-05 4.60449e-05 0.102896)
(4.40246e-05 4.40076e-05 0.102892)
(-4.6049e-05 -4.6023e-05 0.102896)
(7.57011e-07 5.02347e-07 0.102979)
(-7.59598e-07 5.06092e-07 0.102979)
(7.58287e-07 4.98104e-07 0.102979)
(-7.62091e-07 5.11031e-07 0.102979)
(-4.40173e-05 4.39912e-05 0.102892)
(4.6053e-05 -4.60262e-05 0.102896)
(4.86432e-07 7.37294e-07 0.102979)
(5.04108e-07 -7.59075e-07 0.102979)
(4.8356e-07 7.38063e-07 0.102979)
(5.04355e-07 -7.60043e-07 0.102979)
(-5.03598e-07 -7.53794e-07 0.102979)
(-4.83848e-07 7.36e-07 0.102979)
(-5.11025e-07 -7.53558e-07 0.102979)
(4.40041e-05 -4.40383e-05 0.102892)
(-4.60228e-05 4.60558e-05 0.102896)
(-7.31131e-07 -4.84295e-07 0.102979)
(7.34371e-07 -4.79684e-07 0.102979)
(-7.32138e-07 -4.92628e-07 0.102979)
(4.60204e-05 4.60445e-05 0.102896)
(4.40249e-05 4.40093e-05 0.102892)
(-4.60488e-05 -4.6022e-05 0.102896)
(7.58207e-07 5.03369e-07 0.102979)
(-7.617e-07 5.11093e-07 0.102979)
(7.58784e-07 4.98297e-07 0.102979)
(-7.61723e-07 5.1178e-07 0.102979)
(-4.40205e-05 4.39932e-05 0.102892)
(4.60526e-05 -4.60267e-05 0.102896)
(4.86784e-07 7.39194e-07 0.102979)
(5.04004e-07 -7.60651e-07 0.102979)
(4.83463e-07 7.39095e-07 0.102979)
(5.0421e-07 -7.60653e-07 0.102979)
(-5.11921e-07 -7.52813e-07 0.102979)
(-4.84319e-07 7.35326e-07 0.102979)
(-5.11201e-07 -7.52094e-07 0.102979)
(4.40049e-05 -4.40399e-05 0.102892)
(-4.60227e-05 4.60554e-05 0.102896)
(-7.31584e-07 -4.93905e-07 0.102979)
(7.35425e-07 -4.79022e-07 0.102979)
(-7.32288e-07 -4.93704e-07 0.102979)
(4.60201e-05 4.60454e-05 0.102896)
(4.40251e-05 4.40102e-05 0.102892)
(-4.60482e-05 -4.60215e-05 0.102896)
(7.58716e-07 5.03499e-07 0.102979)
(-7.61967e-07 5.12356e-07 0.102979)
(7.59295e-07 4.98599e-07 0.102979)
(-7.62407e-07 5.13025e-07 0.102979)
(-4.40209e-05 4.39928e-05 0.102892)
(4.60517e-05 -4.60262e-05 0.102896)
(4.86975e-07 7.40151e-07 0.102979)
(5.04365e-07 -7.61341e-07 0.102979)
(4.84117e-07 7.39658e-07 0.102979)
(5.04833e-07 -7.61468e-07 0.102979)
(-5.11809e-07 -7.51878e-07 0.102979)
(-4.85017e-07 7.35622e-07 0.102979)
(-5.11653e-07 -7.52138e-07 0.102979)
(4.4005e-05 -4.40404e-05 0.102892)
(-4.6022e-05 4.60544e-05 0.102896)
(-7.31949e-07 -4.94548e-07 0.102979)
(7.36092e-07 -4.79504e-07 0.102979)
(-7.32833e-07 -4.94701e-07 0.102979)
(4.60197e-05 4.6045e-05 0.102896)
(4.40256e-05 4.40106e-05 0.102892)
(-4.60482e-05 -4.60213e-05 0.102896)
(7.59039e-07 5.03809e-07 0.102979)
(-7.62305e-07 5.1315e-07 0.102979)
(7.59513e-07 4.98842e-07 0.102979)
(-7.62511e-07 5.13324e-07 0.102979)
(-4.40216e-05 4.39932e-05 0.102892)
(4.60518e-05 -4.60264e-05 0.102896)
(4.87461e-07 7.4053e-07 0.102979)
(5.04722e-07 -7.61824e-07 0.102979)
(4.8437e-07 7.40087e-07 0.102979)
(5.05039e-07 -7.61543e-07 0.102979)
(-5.12016e-07 -7.5178e-07 0.102979)
(-4.85216e-07 7.3559e-07 0.102979)
(-5.11824e-07 -7.51975e-07 0.102979)
(4.40057e-05 -4.40412e-05 0.102892)
(-4.60221e-05 4.60546e-05 0.102896)
(-7.32333e-07 -4.95186e-07 0.102979)
(7.36327e-07 -4.79584e-07 0.102979)
(-7.33383e-07 -4.95057e-07 0.102979)
(4.60198e-05 4.60453e-05 0.102896)
(4.4026e-05 4.40114e-05 0.102892)
(-4.60473e-05 -4.60204e-05 0.102896)
(7.59365e-07 5.04258e-07 0.102979)
(-7.62543e-07 5.13608e-07 0.102979)
(7.59518e-07 4.99038e-07 0.102979)
(-7.63015e-07 5.14098e-07 0.102979)
(-4.40219e-05 4.39935e-05 0.102892)
(4.60508e-05 -4.60251e-05 0.102896)
(4.87938e-07 7.41098e-07 0.102979)
(5.05231e-07 -7.621e-07 0.102979)
(4.84698e-07 7.40268e-07 0.102979)
(5.05483e-07 -7.61841e-07 0.102979)
(-5.12491e-07 -7.5184e-07 0.102979)
(-4.85807e-07 7.36063e-07 0.102979)
(-5.12309e-07 -7.52025e-07 0.102979)
(4.4006e-05 -4.40415e-05 0.102892)
(-4.60207e-05 4.60534e-05 0.102896)
(-7.33129e-07 -4.95867e-07 0.102979)
(7.36766e-07 -4.79878e-07 0.102979)
(-7.33893e-07 -4.95557e-07 0.102979)
(4.60187e-05 4.60443e-05 0.102896)
(4.40251e-05 4.40104e-05 0.102892)
(-4.60486e-05 -4.60216e-05 0.102896)
(7.59145e-07 5.04074e-07 0.102979)
(-7.62983e-07 5.14149e-07 0.102979)
(7.5946e-07 4.98804e-07 0.102979)
(-7.62956e-07 5.14147e-07 0.102979)
(-4.40215e-05 4.3993e-05 0.102892)
(4.60524e-05 -4.60264e-05 0.102896)
(4.87865e-07 7.41083e-07 0.102979)
(5.05529e-07 -7.62374e-07 0.102979)
(4.84567e-07 7.4024e-07 0.102979)
(5.05293e-07 -7.61663e-07 0.102979)
(-5.12946e-07 -7.51919e-07 0.102979)
(-4.85271e-07 7.35776e-07 0.102979)
(-5.11713e-07 -7.51566e-07 0.102979)
(4.40059e-05 -4.40413e-05 0.102892)
(-4.60209e-05 4.60536e-05 0.102896)
(-7.33562e-07 -4.96291e-07 0.102979)
(7.36488e-07 -4.79203e-07 0.102979)
(-7.33542e-07 -4.95007e-07 0.102979)
(4.60191e-05 4.60445e-05 0.102896)
(4.40255e-05 4.40108e-05 0.102892)
(-4.60481e-05 -4.60212e-05 0.102896)
(7.5923e-07 5.03929e-07 0.102979)
(-7.62799e-07 5.14054e-07 0.102979)
(7.59377e-07 4.98592e-07 0.102979)
(-7.62744e-07 5.1395e-07 0.102979)
(-4.40217e-05 4.39932e-05 0.102892)
(4.60519e-05 -4.60262e-05 0.102896)
(4.87599e-07 7.41096e-07 0.102979)
(5.05237e-07 -7.62052e-07 0.102979)
(4.84401e-07 7.40151e-07 0.102979)
(5.04779e-07 -7.61172e-07 0.102979)
(-5.12114e-07 -7.51379e-07 0.102979)
(-4.84713e-07 7.35397e-07 0.102979)
(-5.11172e-07 -7.51107e-07 0.102979)
(4.40048e-05 -4.40402e-05 0.102892)
(-4.60212e-05 4.60539e-05 0.102896)
(-7.33044e-07 -4.95507e-07 0.102979)
(7.35898e-07 -4.78456e-07 0.102979)
(-7.33174e-07 -4.94409e-07 0.102979)
(4.60194e-05 4.60448e-05 0.102896)
(4.40251e-05 4.40104e-05 0.102892)
(-4.6047e-05 -4.60201e-05 0.102896)
(7.58729e-07 5.03388e-07 0.102979)
(-7.62333e-07 5.13542e-07 0.102979)
(7.59077e-07 4.98438e-07 0.102979)
(-7.62684e-07 5.13884e-07 0.102979)
(-4.4021e-05 4.39926e-05 0.102892)
(4.60505e-05 -4.6025e-05 0.102896)
(4.87035e-07 7.40883e-07 0.102979)
(5.0527e-07 -7.61827e-07 0.102979)
(4.84484e-07 7.39995e-07 0.102979)
(5.04648e-07 -7.60857e-07 0.102979)
(-5.12281e-07 -7.51203e-07 0.102979)
(-4.84746e-07 7.35367e-07 0.102979)
(-5.10965e-07 -7.50638e-07 0.102979)
(4.40045e-05 -4.40399e-05 0.102892)
(-4.60202e-05 4.6053e-05 0.102896)
(-7.33164e-07 -4.95598e-07 0.102979)
(7.35739e-07 -4.78126e-07 0.102979)
(-7.33011e-07 -4.93908e-07 0.102979)
(4.60185e-05 4.60442e-05 0.102896)
(4.40233e-05 4.40086e-05 0.102892)
(-4.60439e-05 -4.60169e-05 0.102896)
(7.58377e-07 5.03016e-07 0.102979)
(-7.62253e-07 5.13167e-07 0.102979)
(7.58448e-07 4.97536e-07 0.102979)
(-7.6214e-07 5.13007e-07 0.102979)
(-4.40194e-05 4.39911e-05 0.102892)
(4.60474e-05 -4.60218e-05 0.102896)
(4.86379e-07 7.40492e-07 0.102979)
(5.04974e-07 -7.61622e-07 0.102979)
(4.83836e-07 7.39318e-07 0.102979)
(5.04079e-07 -7.6075e-07 0.102979)
(-5.12057e-07 -7.50863e-07 0.102979)
(-4.84089e-07 7.34878e-07 0.102979)
(-5.10358e-07 -7.50368e-07 0.102979)
(4.40029e-05 -4.40381e-05 0.102892)
(-4.60155e-05 4.60483e-05 0.102896)
(-7.3299e-07 -4.94918e-07 0.102979)
(7.35534e-07 -4.77794e-07 0.102979)
(-7.32855e-07 -4.93629e-07 0.102979)
(4.60139e-05 4.60395e-05 0.102896)
(4.40179e-05 4.40033e-05 0.102892)
(7.57934e-07 5.02583e-07 0.102979)
(-7.61667e-07 5.12829e-07 0.102979)
(-4.40138e-05 4.39857e-05 0.102892)
(4.85369e-07 7.40493e-07 0.102979)
(5.03948e-07 -7.61026e-07 0.102979)
(-5.10697e-07 -7.50038e-07 0.102979)
(4.39958e-05 -4.40309e-05 0.102892)
(-7.32627e-07 -4.93974e-07 0.102979)
(6.50714e-08 -9.50057e-06 0.100509)
(-1.13939e-06 -6.65021e-06 0.0930025)
(1.90383e-06 -2.77274e-06 0.0807662)
(-9.56856e-06 5.69747e-08 0.100508)
(-6.64291e-06 -1.1223e-06 0.0930021)
(-7.23832e-07 -7.19252e-07 0.10304)
(7.22174e-07 -7.20741e-07 0.10304)
(-7.17666e-07 7.21715e-07 0.10304)
(7.17475e-07 7.20182e-07 0.10304)
(1.54184e-05 8.58233e-08 0.102465)
(-4.85002e-07 7.40057e-07 0.102979)
(1.43677e-05 -4.66237e-06 0.100902)
(-6.14403e-07 -1.88569e-07 0.103022)
(-2.64757e-06 1.83799e-06 0.0807671)
(9.19239e-08 1.54236e-05 0.102465)
(7.36932e-07 -4.85174e-07 0.102979)
(-1.8886e-07 -6.16393e-07 0.103021)
(-4.70177e-06 1.44299e-05 0.100901)
(4.60024e-05 4.60222e-05 0.102896)
(4.27806e-06 5.44125e-06 0.0981185)
(5.4367e-06 4.27206e-06 0.0981175)
(7.24988e-08 -9.52321e-06 0.100509)
(7.04108e-07 6.82977e-06 0.0929835)
(-7.55966e-08 9.19064e-06 0.100495)
(-1.11914e-06 -6.69642e-06 0.0930027)
(-1.96026e-06 2.83883e-06 0.0807465)
(1.91489e-06 -2.8164e-06 0.0807662)
(-9.59065e-06 6.32337e-08 0.100508)
(6.81776e-06 6.86638e-07 0.0929832)
(9.26359e-06 -6.02068e-08 0.100495)
(-6.68901e-06 -1.10051e-06 0.0930024)
(7.24414e-07 -7.23018e-07 0.10304)
(-7.19326e-07 7.24176e-07 0.10304)
(7.19192e-07 7.22978e-07 0.10304)
(-7.309e-07 -7.26369e-07 0.10304)
(7.29129e-07 -7.27423e-07 0.10304)
(-7.24601e-07 7.28363e-07 0.10304)
(7.23979e-07 7.25991e-07 0.10304)
(1.54558e-05 8.78307e-08 0.102465)
(-1.50197e-05 4.26388e-06 0.100881)
(-6.05539e-07 -1.89719e-07 0.103022)
(-4.76028e-07 7.35718e-07 0.102979)
(-1.55434e-05 -9.64679e-08 0.102459)
(1.43961e-05 -4.6826e-06 0.100902)
(-6.02576e-07 -1.90707e-07 0.103022)
(2.71813e-06 -1.89149e-06 0.0807438)
(-2.69951e-06 1.8536e-06 0.0807671)
(9.37592e-08 1.54612e-05 0.102465)
(-1.89529e-07 -5.94286e-07 0.103021)
(4.30167e-06 -1.50782e-05 0.100881)
(7.32413e-07 -4.75424e-07 0.102979)
(-9.8408e-08 -1.55525e-05 0.102459)
(-1.90627e-07 -6.04101e-07 0.103021)
(-4.72475e-06 1.44568e-05 0.100901)
(-4.57026e-06 -5.60616e-06 0.098098)
(-5.59656e-06 -4.56325e-06 0.0980973)
(4.60063e-05 4.60262e-05 0.102896)
(4.27008e-06 5.45306e-06 0.0981186)
(5.44877e-06 4.26425e-06 0.0981176)
(6.96653e-08 -9.53756e-06 0.100509)
(6.97556e-07 6.80359e-06 0.0929839)
(-7.91518e-08 9.17126e-06 0.100495)
(-1.13867e-06 -6.72131e-06 0.093003)
(-1.95298e-06 2.81435e-06 0.0807468)
(1.93541e-06 -2.85335e-06 0.0807667)
(-9.60933e-06 6.19646e-08 0.100508)
(6.79017e-06 6.83057e-07 0.0929835)
(9.24278e-06 -6.64897e-08 0.100495)
(-6.71446e-06 -1.11548e-06 0.0930027)
(7.31305e-07 -7.29486e-07 0.10304)
(-7.27268e-07 7.307e-07 0.10304)
(7.25687e-07 7.28822e-07 0.10304)
(-7.39336e-07 -7.34578e-07 0.10304)
(7.36901e-07 -7.35168e-07 0.10304)
(-7.32938e-07 7.36382e-07 0.10304)
(7.31937e-07 7.35854e-07 0.10304)
(1.54812e-05 8.49516e-08 0.102465)
(-1.49957e-05 4.2286e-06 0.100881)
(-5.89143e-07 -1.93773e-07 0.103021)
(-4.5948e-07 7.25496e-07 0.102979)
(-1.55191e-05 -9.99652e-08 0.102459)
(1.44273e-05 -4.71469e-06 0.100902)
(-5.81256e-07 -1.93965e-07 0.103021)
(2.69837e-06 -1.88189e-06 0.080744)
(-2.73834e-06 1.87677e-06 0.0807675)
(9.10139e-08 1.54871e-05 0.102464)
(-1.94129e-07 -5.79203e-07 0.103021)
(4.26655e-06 -1.50543e-05 0.100881)
(7.21245e-07 -4.59911e-07 0.102979)
(-1.02947e-07 -1.55301e-05 0.102458)
(-1.94525e-07 -5.82955e-07 0.103021)
(-4.75488e-06 1.44864e-05 0.100901)
(-4.57636e-06 -5.60077e-06 0.0980981)
(-5.58775e-06 -4.57301e-06 0.0980974)
(4.60201e-05 4.604e-05 0.102896)
(4.27142e-06 5.45387e-06 0.0981187)
(5.44947e-06 4.26175e-06 0.0981177)
(6.77779e-08 -9.59588e-06 0.100509)
(6.92374e-07 6.7733e-06 0.0929843)
(-8.13434e-08 9.14502e-06 0.100495)
(-1.12231e-06 -6.7402e-06 0.0930035)
(-1.91748e-06 2.76615e-06 0.0807476)
(1.92735e-06 -2.85593e-06 0.0807676)
(-9.66485e-06 5.94027e-08 0.100508)
(6.75858e-06 6.74566e-07 0.0929839)
(9.21394e-06 -6.53631e-08 0.100495)
(-6.72838e-06 -1.10711e-06 0.0930032)
(7.42404e-07 -7.41089e-07 0.10304)
(-7.37658e-07 7.42202e-07 0.10304)
(7.37336e-07 7.4186e-07 0.10304)
(-7.43097e-07 -7.39148e-07 0.10304)
(7.41597e-07 -7.39945e-07 0.10304)
(-7.36871e-07 7.4137e-07 0.10304)
(7.36394e-07 7.40474e-07 0.10304)
(1.553e-05 8.4205e-08 0.102464)
(-1.49673e-05 4.21369e-06 0.100881)
(-5.64723e-07 -1.97328e-07 0.103021)
(-4.29784e-07 7.06393e-07 0.102979)
(-1.54883e-05 -9.90172e-08 0.102458)
(1.44657e-05 -4.73256e-06 0.100901)
(-5.49456e-07 -1.97186e-07 0.103021)
(2.64864e-06 -1.85025e-06 0.0807449)
(-2.73994e-06 1.86679e-06 0.0807685)
(8.84387e-08 1.55322e-05 0.102464)
(-1.97294e-07 -5.54321e-07 0.103021)
(4.2489e-06 -1.50235e-05 0.100881)
(7.03478e-07 -4.28609e-07 0.102979)
(-1.00467e-07 -1.54996e-05 0.102458)
(-1.97037e-07 -5.49634e-07 0.103021)
(-4.77229e-06 1.4526e-05 0.100901)
(-4.57486e-06 -5.59756e-06 0.0980981)
(-5.58825e-06 -4.56793e-06 0.0980974)
(4.60388e-05 4.60601e-05 0.102896)
(4.28171e-06 5.4659e-06 0.0981187)
(5.46179e-06 4.27576e-06 0.0981177)
(5.8271e-08 -9.61925e-06 0.100509)
(7.04456e-07 6.76376e-06 0.0929848)
(-8.55103e-08 9.10176e-06 0.100495)
(-1.14377e-06 -6.75995e-06 0.0930041)
(-1.98795e-06 2.77751e-06 0.0807489)
(2.01477e-06 -2.854e-06 0.0807688)
(-9.68727e-06 4.91447e-08 0.100508)
(6.74552e-06 6.84345e-07 0.0929844)
(9.1717e-06 -7.11066e-08 0.100495)
(-6.74298e-06 -1.12747e-06 0.0930039)
(7.42969e-07 -7.41387e-07 0.10304)
(-7.38178e-07 7.43031e-07 0.10304)
(7.37422e-07 7.41812e-07 0.10304)
(-7.45709e-07 -7.41739e-07 0.10304)
(7.44921e-07 -7.42749e-07 0.10304)
(-7.40148e-07 7.45276e-07 0.10304)
(7.40144e-07 7.43902e-07 0.10304)
(1.55344e-05 7.87943e-08 0.102464)
(-1.49481e-05 4.18686e-06 0.100881)
(-5.80595e-07 -1.96791e-07 0.103021)
(-4.07102e-07 6.89872e-07 0.102979)
(-1.54556e-05 -1.04252e-07 0.102458)
(1.44984e-05 -4.76051e-06 0.100901)
(-5.39059e-07 -2.00582e-07 0.103021)
(2.66359e-06 -1.91834e-06 0.0807462)
(-2.73577e-06 1.95507e-06 0.0807697)
(8.41774e-08 1.55393e-05 0.102464)
(-1.96565e-07 -5.70677e-07 0.103021)
(4.22317e-06 -1.50045e-05 0.100881)
(6.87256e-07 -4.06747e-07 0.102979)
(-1.05322e-07 -1.54652e-05 0.102458)
(-2.00223e-07 -5.39474e-07 0.103021)
(-4.79771e-06 1.45579e-05 0.1009)
(-4.54015e-06 -5.5913e-06 0.0980982)
(-5.5825e-06 -4.53302e-06 0.0980974)
(4.60622e-05 4.6084e-05 0.102895)
(4.30294e-06 5.50837e-06 0.0981188)
(5.50262e-06 4.29818e-06 0.0981178)
(1.03984e-07 -9.41518e-06 0.100509)
(6.97536e-07 6.79428e-06 0.0929855)
(-6.56552e-08 9.10054e-06 0.100495)
(-1.04586e-06 -6.51935e-06 0.0930047)
(-2.08584e-06 2.81512e-06 0.0807505)
(1.76067e-06 -2.64762e-06 0.0807695)
(-9.48169e-06 9.70209e-08 0.100508)
(6.77058e-06 6.78315e-07 0.092985)
(9.16932e-06 -4.90472e-08 0.100495)
(-6.49112e-06 -1.02469e-06 0.0930046)
(6.98327e-07 -6.97298e-07 0.10304)
(-6.94122e-07 6.98649e-07 0.10304)
(6.94119e-07 6.97356e-07 0.10304)
(-6.39302e-07 -6.36765e-07 0.10304)
(6.37745e-07 -6.39074e-07 0.10304)
(-6.33015e-07 6.34862e-07 0.10304)
(6.34841e-07 6.34574e-07 0.10304)
(1.52355e-05 1.05734e-07 0.102464)
(-1.49862e-05 4.21696e-06 0.100881)
(-6.48372e-07 -1.81987e-07 0.103021)
(-6.09511e-07 8.35758e-07 0.102979)
(-1.54695e-05 -9.47593e-08 0.102458)
(1.42311e-05 -4.5937e-06 0.100901)
(-7.49366e-07 -1.62866e-07 0.103021)
(2.70922e-06 -2.0167e-06 0.0807478)
(-2.53345e-06 1.70112e-06 0.0807703)
(1.1069e-07 1.52389e-05 0.102464)
(-1.81848e-07 -6.38538e-07 0.103021)
(4.24798e-06 -1.50385e-05 0.100881)
(8.336e-07 -6.10122e-07 0.102978)
(-9.80637e-08 -1.54754e-05 0.102458)
(-1.62092e-07 -7.5121e-07 0.103021)
(-4.63365e-06 1.42925e-05 0.1009)
(-4.53335e-06 -5.63263e-06 0.0980984)
(-5.62171e-06 -4.52632e-06 0.0980977)
(4.58804e-05 4.58997e-05 0.102895)
(4.13329e-06 5.35039e-06 0.0981189)
(5.34676e-06 4.12492e-06 0.0981179)
(4.92802e-08 -9.34047e-06 0.100509)
(7.57705e-07 7.27046e-06 0.0929846)
(-1.23085e-07 9.50204e-06 0.100495)
(-1.09528e-06 -6.4218e-06 0.093003)
(-1.91634e-06 2.94607e-06 0.0807475)
(1.95525e-06 -2.73192e-06 0.0807667)
(-9.40908e-06 2.79356e-08 0.100508)
(7.23719e-06 7.3274e-07 0.0929841)
(9.57102e-06 -1.17625e-07 0.100495)
(-6.39053e-06 -1.06881e-06 0.0930029)
(6.71924e-07 -6.73842e-07 0.10304)
(-6.65956e-07 6.68429e-07 0.10304)
(6.68099e-07 6.67884e-07 0.10304)
(-7.32254e-07 -7.33223e-07 0.10304)
(7.36175e-07 -7.39786e-07 0.10304)
(-7.28681e-07 7.30836e-07 0.10304)
(7.28498e-07 7.28078e-07 0.10304)
(1.52896e-05 8.43745e-08 0.102465)
(-1.53078e-05 4.46368e-06 0.100881)
(-7.1266e-07 -1.73268e-07 0.103021)
(-5.00041e-07 7.20741e-07 0.102979)
(-1.59063e-05 -8.88442e-08 0.102458)
(1.42322e-05 -4.55134e-06 0.100901)
(-6.58455e-07 -1.87237e-07 0.103022)
(2.84173e-06 -1.85759e-06 0.0807449)
(-2.62464e-06 1.88993e-06 0.0807674)
(9.04675e-08 1.52927e-05 0.102465)
(-1.69869e-07 -7.05861e-07 0.103021)
(4.50364e-06 -1.53625e-05 0.100881)
(7.24013e-07 -5.01147e-07 0.102979)
(-8.94583e-08 -1.5917e-05 0.102458)
(-1.82536e-07 -6.61113e-07 0.103022)
(-4.58641e-06 1.42957e-05 0.100901)
(-4.70016e-06 -5.61308e-06 0.0980979)
(-5.5993e-06 -4.69848e-06 0.0980972)
(4.60273e-05 4.60433e-05 0.102896)
(4.21673e-06 5.46455e-06 0.0981183)
(5.46314e-06 4.20573e-06 0.0981173)
(6.92702e-08 -9.5007e-06 0.100509)
(7.25638e-07 6.89817e-06 0.0929834)
(-7.63153e-08 9.22579e-06 0.100495)
(-1.11255e-06 -6.63737e-06 0.0930024)
(-1.83201e-06 2.74196e-06 0.0807465)
(1.9338e-06 -2.80333e-06 0.0807662)
(-9.56671e-06 5.6297e-08 0.100508)
(6.86739e-06 6.90842e-07 0.0929829)
(9.2989e-06 -7.04131e-08 0.100495)
(-6.60407e-06 -1.09109e-06 0.0930024)
(7.3654e-07 -7.39497e-07 0.10304)
(-7.28587e-07 7.31046e-07 0.10304)
(7.28945e-07 7.28258e-07 0.10304)
(-7.25854e-07 -7.2418e-07 0.10304)
(7.26331e-07 -7.23672e-07 0.10304)
(-7.2062e-07 7.2419e-07 0.10304)
(7.21554e-07 7.20635e-07 0.10304)
(1.54318e-05 8.26997e-08 0.102465)
(-1.50549e-05 4.26288e-06 0.100881)
(-6.0591e-07 -1.9978e-07 0.103022)
(-4.73288e-07 7.22879e-07 0.102979)
(-1.55748e-05 -1.05842e-07 0.102459)
(1.43776e-05 -4.68549e-06 0.100902)
(-6.04633e-07 -1.98063e-07 0.103022)
(2.7337e-06 -1.87684e-06 0.0807439)
(-2.68065e-06 1.86316e-06 0.0807671)
(9.0431e-08 1.54351e-05 0.102465)
(-1.9199e-07 -6.00082e-07 0.103022)
(4.31031e-06 -1.51098e-05 0.100881)
(7.24865e-07 -4.73126e-07 0.102979)
(-1.0268e-07 -1.55826e-05 0.102459)
(-1.91278e-07 -6.04765e-07 0.103022)
(-4.71963e-06 1.44387e-05 0.100901)
(-4.58516e-06 -5.60475e-06 0.0980979)
(-5.59268e-06 -4.57961e-06 0.0980971)
(4.60327e-05 4.6051e-05 0.102896)
(4.26115e-06 5.45096e-06 0.0981184)
(5.44836e-06 4.25297e-06 0.0981174)
(6.39088e-08 -9.50097e-06 0.100509)
(7.11209e-07 6.87383e-06 0.0929834)
(-8.38485e-08 9.2095e-06 0.100495)
(-1.11958e-06 -6.63872e-06 0.0930024)
(-1.94545e-06 2.83475e-06 0.0807466)
(1.92699e-06 -2.80614e-06 0.0807663)
(-9.56885e-06 5.50423e-08 0.100508)
(6.84039e-06 6.83954e-07 0.0929829)
(9.28004e-06 -6.93433e-08 0.100495)
(-6.60675e-06 -1.09295e-06 0.0930024)
(7.24197e-07 -7.20743e-07 0.10304)
(-7.18637e-07 7.22719e-07 0.10304)
(7.21521e-07 7.18134e-07 0.10304)
(-7.23128e-07 -7.21292e-07 0.10304)
(7.24007e-07 -7.17506e-07 0.10304)
(-7.16136e-07 7.22831e-07 0.10304)
(7.25583e-07 7.09629e-07 0.10304)
(1.5424e-05 8.72091e-08 0.102465)
(-1.5042e-05 4.26416e-06 0.100881)
(-6.12483e-07 -1.90181e-07 0.103022)
(-4.82108e-07 7.35246e-07 0.102979)
(-1.55746e-05 -9.88569e-08 0.102459)
(1.43769e-05 -4.67767e-06 0.100902)
(-6.12594e-07 -1.90133e-07 0.103021)
(2.72108e-06 -1.88565e-06 0.0807438)
(-2.68456e-06 1.8602e-06 0.0807671)
(9.05404e-08 1.54244e-05 0.102465)
(-1.88818e-07 -6.05547e-07 0.103021)
(4.30061e-06 -1.50973e-05 0.100881)
(7.33585e-07 -4.80239e-07 0.102979)
(-1.01008e-07 -1.55816e-05 0.102459)
(-1.88933e-07 -6.09581e-07 0.103021)
(-4.71668e-06 1.44375e-05 0.100901)
(-4.58826e-06 -5.60689e-06 0.0980979)
(-5.59535e-06 -4.58308e-06 0.0980972)
(4.60231e-05 4.60447e-05 0.102896)
(4.25746e-06 5.4518e-06 0.0981185)
(5.44831e-06 4.24943e-06 0.0981175)
(6.35276e-08 -9.50089e-06 0.100509)
(7.10579e-07 6.87478e-06 0.0929834)
(-8.48307e-08 9.21018e-06 0.100495)
(-1.11976e-06 -6.63823e-06 0.0930024)
(-1.95136e-06 2.83709e-06 0.0807467)
(1.92578e-06 -2.80642e-06 0.0807663)
(-9.56888e-06 5.48847e-08 0.100508)
(6.84161e-06 6.84781e-07 0.0929829)
(9.2805e-06 -6.9746e-08 0.100495)
(-6.60572e-06 -1.09245e-06 0.0930024)
(7.23905e-07 -7.16605e-07 0.10304)
(-7.15355e-07 7.22846e-07 0.10304)
(7.27209e-07 7.08795e-07 0.10304)
(-7.22179e-07 -7.21092e-07 0.10304)
(7.24091e-07 -7.16266e-07 0.10304)
(-7.1484e-07 7.23291e-07 0.10304)
(7.259e-07 7.08848e-07 0.10304)
(1.54233e-05 8.82584e-08 0.102465)
(-1.50424e-05 4.26681e-06 0.100881)
(-6.16548e-07 -1.90155e-07 0.103021)
(-4.84045e-07 7.35283e-07 0.102979)
(-1.55765e-05 -9.74432e-08 0.102459)
(1.43768e-05 -4.67666e-06 0.100902)
(-6.14878e-07 -1.90555e-07 0.103021)
(2.72085e-06 -1.88547e-06 0.0807438)
(-2.68445e-06 1.86053e-06 0.0807671)
(9.09147e-08 1.54212e-05 0.102465)
(-1.89589e-07 -6.09618e-07 0.103021)
(4.30211e-06 -1.50973e-05 0.100881)
(7.34884e-07 -4.79015e-07 0.102979)
(-1.01989e-07 -1.55806e-05 0.102459)
(-1.89766e-07 -6.12635e-07 0.103021)
(-4.71667e-06 1.44379e-05 0.100901)
(-4.5891e-06 -5.60602e-06 0.0980979)
(-5.59566e-06 -4.58321e-06 0.0980972)
(4.60206e-05 4.60459e-05 0.102896)
(4.25714e-06 5.45251e-06 0.0981185)
(5.44817e-06 4.24989e-06 0.0981175)
(6.29816e-08 -9.5002e-06 0.100509)
(7.10776e-07 6.87517e-06 0.0929834)
(-8.4489e-08 9.21006e-06 0.100495)
(-1.11993e-06 -6.63787e-06 0.0930024)
(-1.95309e-06 2.83696e-06 0.0807467)
(1.92417e-06 -2.80616e-06 0.0807663)
(-9.56873e-06 5.44207e-08 0.100508)
(6.84264e-06 6.84679e-07 0.0929829)
(9.28064e-06 -6.99419e-08 0.100495)
(-6.60555e-06 -1.09273e-06 0.0930024)
(7.23713e-07 -7.15876e-07 0.10304)
(-7.14415e-07 7.22911e-07 0.10304)
(7.26901e-07 7.08388e-07 0.10304)
(-7.21354e-07 -7.2056e-07 0.10304)
(7.23688e-07 -7.15433e-07 0.10304)
(-7.14186e-07 7.22971e-07 0.10304)
(7.25742e-07 7.08246e-07 0.10304)
(1.54227e-05 8.83816e-08 0.102465)
(-1.50429e-05 4.26656e-06 0.100881)
(-6.16572e-07 -1.90142e-07 0.103021)
(-4.85007e-07 7.35543e-07 0.102979)
(-1.55775e-05 -9.70061e-08 0.102459)
(1.43763e-05 -4.6759e-06 0.100902)