/*--------------------------------*- C++ -*----------------------------------*\
| =========                 |                                                 |
| \\      /  F ield         | OpenFOAM: The Open Source CFD Toolbox           |
|  \\    /   O peration     | Version:  2206                                  |
|   \\  /    A nd           | Website:  www.openfoam.com                      |
|    \\/     M anipulation  |                                                 |
\*---------------------------------------------------------------------------*/
FoamFile
{
    version     2.0;
    format      ascii;
    arch        "LSB;label=32;scalar=64";
    class       volScalarField;
    location    "38.5";
    object      epsilon;
}
// * * * * * * * * * * * * * * * * * * * * * * * * * * * * * * * * * * * * * //

dimensions      [0 2 -3 0 0 0 0];

internalField   nonuniform List<scalar> 
28335
(
2.38001e-07
2.67841e-07
2.67853e-07
3.02979e-07
2.38002e-07
2.67845e-07
2.67857e-07
3.02986e-07
2.38004e-07
2.67849e-07
2.67861e-07
3.03e-07
2.38006e-07
2.67853e-07
2.67865e-07
3.03008e-07
2.38005e-07
2.67857e-07
2.67869e-07
3.03016e-07
2.38003e-07
2.67859e-07
2.67871e-07
3.03023e-07
2.38e-07
2.67861e-07
2.67873e-07
3.03029e-07
2.37999e-07
2.67863e-07
2.67874e-07
3.03032e-07
2.37958e-07
2.67808e-07
2.67819e-07
3.02988e-07
2.37904e-07
2.67749e-07
2.6776e-07
3.02891e-07
2.37901e-07
2.67747e-07
2.67759e-07
3.02897e-07
2.37901e-07
2.67746e-07
2.67758e-07
3.02896e-07
2.37901e-07
2.67746e-07
2.67758e-07
3.02896e-07
2.37901e-07
2.67746e-07
2.67758e-07
3.02896e-07
2.37901e-07
2.67746e-07
2.67758e-07
3.02894e-07
2.37901e-07
2.67746e-07
2.67758e-07
3.02894e-07
2.37901e-07
2.67746e-07
2.67758e-07
3.02897e-07
3.02692e-07
2.67866e-07
2.67872e-07
3.02681e-07
2.67849e-07
2.67878e-07
2.67841e-07
2.67869e-07
3.02698e-07
2.67853e-07
2.67852e-07
3.02699e-07
3.02974e-07
3.02706e-07
2.67868e-07
2.67875e-07
2.67869e-07
2.67876e-07
3.02963e-07
3.02696e-07
2.67852e-07
2.67881e-07
2.67852e-07
2.67882e-07
2.67872e-07
2.67845e-07
2.67872e-07
3.0298e-07
3.02712e-07
2.67854e-07
2.67857e-07
2.67855e-07
3.02705e-07
3.02989e-07
3.02712e-07
2.67872e-07
2.67878e-07
2.67873e-07
2.67879e-07
3.02979e-07
3.02702e-07
2.67855e-07
2.67884e-07
2.67856e-07
2.67885e-07
2.67875e-07
2.67848e-07
2.67876e-07
3.02994e-07
3.02718e-07
2.67857e-07
2.6786e-07
2.67859e-07
3.0272e-07
3.02995e-07
3.0272e-07
2.67876e-07
2.67882e-07
2.67877e-07
2.67883e-07
3.02985e-07
3.02709e-07
2.67859e-07
2.67888e-07
2.6786e-07
2.6789e-07
2.67879e-07
2.67852e-07
2.6788e-07
3.03001e-07
3.02726e-07
2.67861e-07
2.67864e-07
2.67863e-07
3.02727e-07
3.03003e-07
3.02729e-07
2.6788e-07
2.67886e-07
2.67882e-07
2.67888e-07
3.02993e-07
3.02718e-07
2.67863e-07
2.67892e-07
2.67864e-07
2.67894e-07
2.67883e-07
2.67857e-07
2.67884e-07
3.03009e-07
3.02734e-07
2.67866e-07
2.67868e-07
2.67867e-07
3.02735e-07
3.03011e-07
3.02736e-07
2.67884e-07
2.67891e-07
2.67884e-07
2.67891e-07
3.03001e-07
3.02725e-07
2.67867e-07
2.67897e-07
2.67867e-07
2.67897e-07
2.67887e-07
2.67859e-07
2.67887e-07
3.03017e-07
3.02742e-07
2.6787e-07
2.67871e-07
2.6787e-07
3.02742e-07
3.03019e-07
3.02742e-07
2.67887e-07
2.67893e-07
2.67885e-07
2.67892e-07
3.03009e-07
3.02731e-07
2.6787e-07
2.67899e-07
2.67869e-07
2.67898e-07
2.6789e-07
2.67861e-07
2.67888e-07
3.03025e-07
3.02748e-07
2.67872e-07
2.67873e-07
2.6787e-07
3.02748e-07
3.03025e-07
3.02747e-07
2.67887e-07
2.67894e-07
2.67887e-07
2.67894e-07
3.03014e-07
3.02736e-07
2.67871e-07
2.679e-07
2.67871e-07
2.679e-07
2.6789e-07
2.67863e-07
2.6789e-07
3.03031e-07
3.02752e-07
2.67872e-07
2.67875e-07
2.67872e-07
3.02752e-07
3.03028e-07
3.02713e-07
2.67887e-07
2.67894e-07
2.67856e-07
2.67863e-07
3.03019e-07
3.02702e-07
2.67871e-07
2.679e-07
2.6784e-07
2.67869e-07
2.6789e-07
2.67832e-07
2.6786e-07
3.03034e-07
3.02719e-07
2.67872e-07
2.67843e-07
2.67841e-07
3.02719e-07
3.02983e-07
3.02611e-07
2.67833e-07
2.67839e-07
2.6778e-07
2.67786e-07
3.02973e-07
3.026e-07
2.67816e-07
2.67846e-07
2.67763e-07
2.67792e-07
2.67836e-07
2.67755e-07
2.67783e-07
3.02989e-07
3.02617e-07
2.67818e-07
2.67767e-07
2.67765e-07
3.02618e-07
3.02886e-07
3.02607e-07
2.67775e-07
2.67781e-07
2.67772e-07
2.67778e-07
3.02876e-07
3.02595e-07
2.67758e-07
2.67787e-07
2.67755e-07
2.67784e-07
2.67778e-07
2.67747e-07
2.67776e-07
3.02892e-07
3.02612e-07
2.6776e-07
2.67759e-07
2.67757e-07
3.02615e-07
3.02891e-07
3.02609e-07
2.67774e-07
2.67781e-07
2.67771e-07
2.67778e-07
3.0288e-07
3.02598e-07
2.67757e-07
2.67786e-07
2.67755e-07
2.67783e-07
2.67778e-07
2.67746e-07
2.67775e-07
3.02896e-07
3.02614e-07
2.67759e-07
2.67758e-07
2.67756e-07
3.02617e-07
3.02889e-07
3.02609e-07
2.67772e-07
2.67778e-07
2.6777e-07
2.67777e-07
3.02879e-07
3.02598e-07
2.67756e-07
2.67784e-07
2.67754e-07
2.67783e-07
2.67776e-07
2.67746e-07
2.67774e-07
3.02895e-07
3.02614e-07
2.67757e-07
2.67758e-07
2.67756e-07
3.02616e-07
3.02891e-07
3.02608e-07
2.67772e-07
2.67779e-07
2.6777e-07
2.67777e-07
3.0288e-07
3.02597e-07
2.67756e-07
2.67785e-07
2.67754e-07
2.67783e-07
2.67776e-07
2.67746e-07
2.67774e-07
3.02896e-07
3.02613e-07
2.67758e-07
2.67758e-07
2.67756e-07
3.02616e-07
3.0289e-07
3.02606e-07
2.67772e-07
2.67779e-07
2.67771e-07
2.67777e-07
3.0288e-07
3.02595e-07
2.67756e-07
2.67784e-07
2.67754e-07
2.67783e-07
2.67776e-07
2.67746e-07
2.67774e-07
3.02895e-07
3.02612e-07
2.67757e-07
2.67758e-07
2.67756e-07
3.02614e-07
3.02888e-07
3.02608e-07
2.67772e-07
2.67778e-07
2.6777e-07
2.67777e-07
3.02878e-07
3.02597e-07
2.67755e-07
2.67784e-07
2.67754e-07
2.67783e-07
2.67776e-07
2.67746e-07
2.67774e-07
3.02894e-07
3.02614e-07
2.67757e-07
2.67758e-07
2.67756e-07
3.02616e-07
3.02889e-07
3.0261e-07
2.67772e-07
2.67779e-07
2.6777e-07
2.67777e-07
3.02879e-07
3.02599e-07
2.67756e-07
2.67785e-07
2.67754e-07
2.67783e-07
2.67776e-07
2.67746e-07
2.67774e-07
3.02894e-07
3.02615e-07
2.67758e-07
2.67758e-07
2.67756e-07
3.02618e-07
3.02891e-07
2.67772e-07
2.67778e-07
3.02881e-07
2.67755e-07
2.67784e-07
2.67775e-07
3.02896e-07
2.67757e-07
1.84412e-06
8.83369e-06
2.07524e-05
1.84406e-06
8.83528e-06
2.38001e-07
2.38002e-07
2.38006e-07
2.38004e-07
5.3195e-07
2.67841e-07
1.48254e-06
2.4838e-07
2.0752e-05
5.31981e-07
2.67853e-07
2.48382e-07
1.48255e-06
3.02694e-07
3.3562e-06
3.35728e-06
1.84435e-06
8.8338e-06
1.8449e-06
8.83338e-06
2.0751e-05
2.07509e-05
1.84429e-06
8.83539e-06
1.84479e-06
8.83494e-06
2.38003e-07
2.38007e-07
2.38005e-07
2.38002e-07
2.38003e-07
2.38007e-07
2.38005e-07
5.31988e-07
1.48359e-06
2.48379e-07
2.67844e-07
5.32158e-07
1.48273e-06
2.48381e-07
2.07508e-05
2.07508e-05
5.32018e-07
2.48382e-07
1.48356e-06
2.67856e-07
5.32193e-07
2.48384e-07
1.48273e-06
3.35694e-06
3.35799e-06
3.02701e-07
3.35643e-06
3.35748e-06
1.84447e-06
8.83359e-06
1.84505e-06
8.83325e-06
2.07502e-05
2.07503e-05
1.84441e-06
8.83515e-06
1.84494e-06
8.83478e-06
2.38003e-07
2.38007e-07
2.38005e-07
2.38004e-07
2.38002e-07
2.38006e-07
2.38004e-07
5.32022e-07
1.48372e-06
2.48381e-07
2.67848e-07
5.32194e-07
1.48284e-06
2.48383e-07
2.07501e-05
2.07502e-05
5.32053e-07
2.48383e-07
1.48368e-06
2.6786e-07
5.32229e-07
2.48386e-07
1.48284e-06
3.35718e-06
3.35822e-06
3.02713e-07
3.35666e-06
3.3577e-06
1.84454e-06
8.83359e-06
1.84514e-06
8.83329e-06
2.07498e-05
2.07501e-05
1.84448e-06
8.83511e-06
1.84503e-06
8.83478e-06
2.38004e-07
2.38008e-07
2.38005e-07
2.38006e-07
2.38004e-07
2.38008e-07
2.38006e-07
5.3205e-07
1.4838e-06
2.48383e-07
2.67852e-07
5.32225e-07
1.4829e-06
2.48385e-07
2.07497e-05
2.07499e-05
5.32081e-07
2.48385e-07
1.48377e-06
2.67864e-07
5.3226e-07
2.48388e-07
1.48291e-06
3.35735e-06
3.35839e-06
3.02721e-07
3.35678e-06
3.35783e-06
1.84458e-06
8.83364e-06
1.84518e-06
8.83333e-06
2.07497e-05
2.07501e-05
1.84451e-06
8.83515e-06
1.84507e-06
8.83483e-06
2.38006e-07
2.3801e-07
2.38008e-07
2.38005e-07
2.38006e-07
2.3801e-07
2.38008e-07
5.32072e-07
1.48384e-06
2.48385e-07
2.67856e-07
5.32249e-07
1.48294e-06
2.48387e-07
2.07496e-05
2.07499e-05
5.32102e-07
2.48387e-07
1.48381e-06
2.67868e-07
5.32283e-07
2.4839e-07
1.48293e-06
3.35739e-06
3.35843e-06
3.0273e-07
3.35679e-06
3.35785e-06
1.84457e-06
8.83369e-06
1.8452e-06
8.83339e-06
2.075e-05
2.07505e-05
1.8445e-06
8.83523e-06
1.84507e-06
8.83492e-06
2.38006e-07
2.3801e-07
2.38008e-07
2.38003e-07
2.38003e-07
2.38007e-07
2.38005e-07
5.32083e-07
1.48386e-06
2.48386e-07
2.6786e-07
5.32264e-07
1.48295e-06
2.48387e-07
2.07498e-05
2.07503e-05
5.32111e-07
2.48388e-07
1.48382e-06
2.67871e-07
5.32297e-07
2.4839e-07
1.48295e-06
3.3574e-06
3.35845e-06
3.02738e-07
3.35682e-06
3.35788e-06
1.84454e-06
8.83377e-06
1.84517e-06
8.83347e-06
2.07505e-05
2.0751e-05
1.84447e-06
8.83521e-06
1.84505e-06
8.83485e-06
2.38003e-07
2.38007e-07
2.38005e-07
2.38e-07
2.38e-07
2.38003e-07
2.38001e-07
5.32088e-07
1.48388e-06
2.48385e-07
2.67861e-07
5.3227e-07
1.48295e-06
2.48386e-07
2.07503e-05
2.07508e-05
5.32116e-07
2.48388e-07
1.48383e-06
2.67873e-07
5.32302e-07
2.48389e-07
1.48295e-06
3.35743e-06
3.35848e-06
3.02745e-07
3.35683e-06
3.35789e-06
1.84453e-06
8.83391e-06
1.84516e-06
8.83371e-06
2.07509e-05
2.07512e-05
1.84447e-06
8.83527e-06
1.84504e-06
8.83502e-06
2.38e-07
2.38004e-07
2.38002e-07
2.38e-07
2.37998e-07
2.38003e-07
2.38001e-07
5.32092e-07
1.48387e-06
2.48384e-07
2.67863e-07
5.32276e-07
1.48297e-06
2.48385e-07
2.07509e-05
2.07513e-05
5.3212e-07
2.48386e-07
1.48383e-06
2.67875e-07
5.32309e-07
2.48388e-07
1.48297e-06
3.35739e-06
3.35844e-06
3.0275e-07
3.35682e-06
3.35788e-06
1.84469e-06
8.83419e-06
1.84528e-06
8.83389e-06
2.07505e-05
2.07504e-05
1.84462e-06
8.8355e-06
1.84516e-06
8.83516e-06
2.37998e-07
2.38003e-07
2.38001e-07
2.3798e-07
2.37981e-07
2.37984e-07
2.37982e-07
5.32085e-07
1.48396e-06
2.48384e-07
2.6786e-07
5.32282e-07
1.48305e-06
2.48382e-07
2.07506e-05
2.07505e-05
5.32114e-07
2.48386e-07
1.48392e-06
2.67871e-07
5.32314e-07
2.48384e-07
1.48304e-06
3.35754e-06
3.35859e-06
3.02746e-07
3.35696e-06
3.35802e-06
1.84448e-06
8.83407e-06
1.8452e-06
8.83366e-06
2.07497e-05
2.07499e-05
1.84442e-06
8.83536e-06
1.84508e-06
8.83491e-06
2.37959e-07
2.37962e-07
2.3796e-07
2.3791e-07
2.3791e-07
2.37914e-07
2.37912e-07
5.31961e-07
1.48389e-06
2.48339e-07
2.67787e-07
5.32196e-07
1.48289e-06
2.4832e-07
2.07497e-05
2.07499e-05
5.3199e-07
2.48341e-07
1.48385e-06
2.67799e-07
5.32229e-07
2.48322e-07
1.48289e-06
3.35749e-06
3.35854e-06
3.02666e-07
3.35682e-06
3.35787e-06
1.84434e-06
8.83387e-06
1.84499e-06
8.83352e-06
2.07495e-05
2.07498e-05
1.84427e-06
8.83514e-06
1.84487e-06
8.83475e-06
2.37906e-07
2.3791e-07
2.37908e-07
2.37902e-07
2.37903e-07
2.37907e-07
2.37905e-07
5.31899e-07
1.48372e-06
2.48283e-07
2.67749e-07
5.32097e-07
1.48278e-06
2.48283e-07
2.07494e-05
2.07497e-05
5.31927e-07
2.48285e-07
1.48369e-06
2.6776e-07
5.32129e-07
2.48285e-07
1.48278e-06
3.35731e-06
3.35836e-06
3.02605e-07
3.35668e-06
3.35773e-06
1.84431e-06
8.83381e-06
1.84493e-06
8.83349e-06
2.07494e-05
2.07498e-05
1.84425e-06
8.83507e-06
1.84482e-06
8.83472e-06
2.37904e-07
2.37908e-07
2.37906e-07
2.37901e-07
2.37902e-07
2.37906e-07
2.37904e-07
5.31892e-07
1.48367e-06
2.48282e-07
2.67748e-07
5.32077e-07
1.48275e-06
2.48283e-07
2.07494e-05
2.07497e-05
5.3192e-07
2.48284e-07
1.48364e-06
2.6776e-07
5.32108e-07
2.48285e-07
1.48275e-06
3.35724e-06
3.35829e-06
3.02621e-07
3.35664e-06
3.3577e-06
1.8443e-06
8.83381e-06
1.84492e-06
8.83348e-06
2.07494e-05
2.07498e-05
1.84424e-06
8.83506e-06
1.84481e-06
8.83471e-06
2.37904e-07
2.37907e-07
2.37905e-07
2.37901e-07
2.37903e-07
2.37906e-07
2.37904e-07
5.31889e-07
1.48367e-06
2.48281e-07
2.67747e-07
5.32075e-07
1.48275e-06
2.48282e-07
2.07494e-05
2.07497e-05
5.31922e-07
2.48283e-07
1.48363e-06
2.67759e-07
5.32109e-07
2.48284e-07
1.48275e-06
3.35724e-06
3.35828e-06
3.02614e-07
3.35664e-06
3.3577e-06
1.8443e-06
8.8338e-06
1.84492e-06
8.83348e-06
2.07494e-05
2.07498e-05
1.84424e-06
8.83506e-06
1.84481e-06
8.83471e-06
2.37904e-07
2.37908e-07
2.37906e-07
2.37901e-07
2.37902e-07
2.37906e-07
2.37904e-07
5.31889e-07
1.48367e-06
2.48281e-07
2.67747e-07
5.32074e-07
1.48275e-06
2.48282e-07
2.07494e-05
2.07497e-05
5.3193e-07
2.48283e-07
1.48363e-06
2.67759e-07
5.32116e-07
2.48284e-07
1.48275e-06
3.35724e-06
3.35828e-06
3.02616e-07
3.35664e-06
3.3577e-06
1.8443e-06
8.8338e-06
1.84492e-06
8.83348e-06
2.07494e-05
2.07498e-05
1.84424e-06
8.83505e-06
1.84481e-06
8.83471e-06
2.37904e-07
2.37907e-07
2.37905e-07
2.37901e-07
2.37903e-07
2.37906e-07
2.37904e-07
5.3189e-07
1.48367e-06
2.48281e-07
2.67747e-07
5.32074e-07
1.48275e-06
2.48282e-07
2.07494e-05
2.07497e-05
5.31934e-07
2.48283e-07
1.48363e-06
2.67759e-07
5.32122e-07
2.48285e-07
1.48275e-06
3.35724e-06
3.35828e-06
3.02617e-07
3.35664e-06
3.3577e-06
1.8443e-06
8.83381e-06
1.84492e-06
8.83348e-06
2.07495e-05
2.07498e-05
1.84424e-06
8.83505e-06
1.84481e-06
8.83471e-06
2.37904e-07
2.37907e-07
2.37906e-07
2.37901e-07
2.37902e-07
2.37906e-07
2.37904e-07
5.31889e-07
1.48367e-06
2.48281e-07
2.67747e-07
5.32074e-07
1.48275e-06
2.48282e-07
2.07494e-05
2.07497e-05
5.31934e-07
2.48283e-07
1.48363e-06
2.67759e-07
5.32123e-07
2.48285e-07
1.48275e-06
3.35724e-06
3.35828e-06
3.02617e-07
3.35664e-06
3.35769e-06
1.8443e-06
8.83381e-06
1.84492e-06
8.83348e-06
2.07495e-05
2.07498e-05
1.84424e-06
8.83505e-06
1.84481e-06
8.83471e-06
2.37904e-07
2.37908e-07
2.37906e-07
2.37901e-07
2.37902e-07
2.37906e-07
2.37904e-07
5.31888e-07
1.48367e-06
2.48281e-07
2.67747e-07
5.32073e-07
1.48275e-06
2.48282e-07
2.07494e-05
2.07497e-05
5.31932e-07
2.48283e-07
1.48363e-06
2.67759e-07
5.32122e-07
2.48285e-07
1.48275e-06
3.35724e-06
3.35828e-06
3.02614e-07
3.35664e-06
3.35769e-06
1.8443e-06
8.83381e-06
1.84492e-06
8.83349e-06
2.07495e-05
2.07498e-05
1.84424e-06
8.83505e-06
1.84481e-06
8.83471e-06
2.37904e-07
2.37907e-07
2.37905e-07
5.31891e-07
1.48367e-06
2.48281e-07
2.67747e-07
5.32074e-07
1.48275e-06
2.48282e-07
2.07494e-05
2.07494e-05
5.31931e-07
2.48283e-07
1.48363e-06
2.67759e-07
5.3212e-07
2.48285e-07
1.48275e-06
3.35724e-06
3.35828e-06
3.02613e-07
3.35689e-06
3.35796e-06
2.07516e-05
2.07526e-05
3.02686e-07
3.35613e-06
3.35715e-06
2.07506e-05
2.07511e-05
2.07517e-05
2.07521e-05
3.02971e-07
3.35619e-06
3.35722e-06
3.35669e-06
3.35772e-06
1.84415e-06
8.8347e-06
5.31944e-07
2.67865e-07
1.48249e-06
2.4838e-07
5.31951e-07
2.67872e-07
1.48272e-06
2.48382e-07
1.84476e-06
8.83351e-06
8.83397e-06
1.84426e-06
1.8448e-06
8.83452e-06
8.83499e-06
1.84429e-06
5.32137e-07
2.67865e-07
1.4826e-06
2.4838e-07
1.48339e-06
2.4838e-07
5.31964e-07
5.32144e-07
2.67872e-07
1.48282e-06
2.48382e-07
1.48363e-06
2.48382e-07
5.3197e-07
3.02675e-07
3.35711e-06
3.35569e-06
2.07496e-05
2.07515e-05
2.07519e-05
3.02961e-07
3.35724e-06
3.35598e-06
3.35771e-06
3.35642e-06
2.07487e-05
2.07492e-05
5.3198e-07
2.67849e-07
1.48283e-06
2.48383e-07
1.84404e-06
8.8346e-06
5.31965e-07
2.67878e-07
2.48386e-07
1.48286e-06
1.84465e-06
8.83509e-06
8.83557e-06
1.8442e-06
5.32168e-07
2.67849e-07
1.48293e-06
2.48383e-07
1.48372e-06
2.48383e-07
5.31999e-07
1.84463e-06
8.83441e-06
8.8349e-06
1.84418e-06
5.32155e-07
2.67878e-07
2.48385e-07
1.48297e-06
2.48385e-07
1.4838e-06
5.31983e-07
1.84416e-06
8.83417e-06
5.31956e-07
2.67869e-07
2.48382e-07
1.48256e-06
1.84416e-06
8.83471e-06
5.32141e-07
2.67841e-07
1.48265e-06
2.48379e-07
1.48348e-06
2.48379e-07
5.31969e-07
1.84481e-06
8.83399e-06
8.83448e-06
1.8443e-06
5.32147e-07
2.67869e-07
2.48382e-07
1.48267e-06
2.48382e-07
1.48347e-06
5.31975e-07
1.8448e-06
8.83453e-06
8.83499e-06
1.8443e-06
3.02692e-07
3.35676e-06
3.3562e-06
2.07524e-05
2.07512e-05
2.07516e-05
3.02977e-07
3.35715e-06
3.35626e-06
3.35749e-06
3.35676e-06
2.07514e-05
2.07519e-05
5.31984e-07
2.67852e-07
2.48382e-07
1.48276e-06
1.84404e-06
8.83484e-06
1.84405e-06
8.83556e-06
5.32177e-07
2.67853e-07
2.48382e-07
1.48265e-06
2.48382e-07
1.48345e-06
5.31999e-07
5.3218e-07
2.67852e-07
2.48382e-07
1.48287e-06
2.48382e-07
1.48367e-06
5.32003e-07
1.84464e-06
8.83466e-06
8.83513e-06
1.84418e-06
1.84465e-06
8.83537e-06
8.83584e-06
1.84419e-06
2.07525e-05
2.0753e-05
3.02979e-07
3.35631e-06
3.35737e-06
3.35678e-06
3.35785e-06
2.07516e-05
2.0752e-05
2.07521e-05
2.07526e-05
2.07502e-05
2.075e-05
2.07513e-05
2.0751e-05
3.35676e-06
3.35779e-06
3.02696e-07
3.35629e-06
3.35732e-06
2.07495e-05
2.07496e-05
2.07505e-05
2.07506e-05
3.02981e-07
3.3564e-06
3.35744e-06
3.35686e-06
3.3579e-06
1.84438e-06
8.83481e-06
1.84492e-06
8.83436e-06
5.31983e-07
1.48349e-06
2.48381e-07
2.67868e-07
5.32157e-07
1.48268e-06
2.48381e-07
5.3199e-07
1.48372e-06
2.48383e-07
2.67875e-07
5.32163e-07
1.4829e-06
2.48383e-07
1.84498e-06
8.83328e-06
8.83368e-06
1.84442e-06
1.84501e-06
8.83426e-06
8.83466e-06
1.84445e-06
5.32176e-07
2.67869e-07
1.48274e-06
2.4838e-07
1.48356e-06
2.4838e-07
5.32002e-07
5.32183e-07
2.67875e-07
1.48297e-06
2.48382e-07
1.4838e-06
2.48382e-07
5.32008e-07
3.35783e-06
3.35667e-06
3.02685e-07
3.35741e-06
3.35617e-06
2.07484e-05
2.07481e-05
2.07505e-05
2.07505e-05
3.0297e-07
3.35765e-06
3.35631e-06
3.35802e-06
3.35684e-06
2.07478e-05
2.07478e-05
5.32018e-07
1.48381e-06
2.48385e-07
2.67852e-07
5.32187e-07
1.48301e-06
2.48385e-07
1.84428e-06
8.83472e-06
1.84476e-06
8.83426e-06
5.32003e-07
2.48387e-07
1.48391e-06
2.67881e-07
5.32174e-07
2.48387e-07
1.48307e-06
1.84487e-06
8.83483e-06
8.83526e-06
1.84436e-06
5.32207e-07
2.67852e-07
1.48307e-06
2.48383e-07
1.48389e-06
2.48383e-07
5.32037e-07
1.84485e-06
8.83418e-06
8.83459e-06
1.84434e-06
5.32194e-07
2.67881e-07
2.48386e-07
1.48313e-06
2.48386e-07
1.484e-06
5.32021e-07
1.8444e-06
8.8343e-06
1.84494e-06
8.83384e-06
5.31995e-07
2.48383e-07
1.48357e-06
2.67872e-07
5.32166e-07
2.48383e-07
1.48275e-06
1.84439e-06
8.83482e-06
1.84493e-06
8.83437e-06
5.32179e-07
2.67844e-07
1.48279e-06
2.48381e-07
1.48365e-06
2.48381e-07
5.32006e-07
1.84502e-06
8.83374e-06
8.83417e-06
1.84447e-06
5.32185e-07
2.67872e-07
2.48382e-07
1.48281e-06
2.48382e-07
1.48364e-06
5.32013e-07
1.84502e-06
8.83427e-06
8.83468e-06
1.84446e-06
3.3579e-06
3.35683e-06
3.02704e-07
3.35756e-06
3.35636e-06
2.0751e-05
2.07507e-05
2.07505e-05
2.07505e-05
3.02988e-07
3.35773e-06
3.35648e-06
3.35826e-06
3.35694e-06
2.07503e-05
2.07504e-05
5.32023e-07
2.48383e-07
1.48377e-06
2.67854e-07
5.322e-07
2.48383e-07
1.48294e-06
1.84427e-06
8.83495e-06
1.84476e-06
8.83451e-06
1.84428e-06
8.83565e-06
1.84478e-06
8.83521e-06
5.32214e-07
2.67856e-07
2.48383e-07
1.48279e-06
2.48383e-07
1.48362e-06
5.32036e-07
5.32219e-07
2.67854e-07
2.48382e-07
1.48301e-06
2.48382e-07
1.48384e-06
5.32041e-07
1.84485e-06
8.8344e-06
8.83481e-06
1.84434e-06
1.84486e-06
8.83511e-06
8.83551e-06
1.84435e-06
2.07511e-05
2.07509e-05
2.07517e-05
2.07514e-05
3.02983e-07
3.35656e-06
3.3576e-06
3.35702e-06
3.35806e-06
2.07505e-05
2.07505e-05
2.0751e-05
2.07511e-05
2.07492e-05
2.07493e-05
2.07503e-05
2.07503e-05
3.35697e-06
3.35801e-06
3.02707e-07
3.35651e-06
3.35754e-06
2.07492e-05
2.0749e-05
2.07502e-05
2.075e-05
3.02989e-07
3.35661e-06
3.35763e-06
3.35708e-06
3.35811e-06
1.8445e-06
8.83458e-06
1.84507e-06
8.83421e-06
5.32019e-07
1.48362e-06
2.48383e-07
2.67872e-07
5.32194e-07
1.48279e-06
2.48383e-07
5.32025e-07
1.48387e-06
2.48385e-07
2.67878e-07
5.322e-07
1.48303e-06
2.48385e-07
1.84509e-06
8.83326e-06
8.83358e-06
1.84452e-06
1.84512e-06
8.8342e-06
8.83454e-06
1.84455e-06
5.32211e-07
2.67872e-07
1.48284e-06
2.48382e-07
1.48367e-06
2.48382e-07
5.32035e-07
5.32217e-07
2.67879e-07
1.48307e-06
2.48384e-07
1.48392e-06
2.48384e-07
5.3204e-07
3.35827e-06
3.35697e-06
3.02696e-07
3.35783e-06
3.35641e-06
2.07475e-05
2.07475e-05
2.07501e-05
2.075e-05
3.02979e-07
3.35787e-06
3.35649e-06
3.35841e-06
3.35706e-06
2.07474e-05
2.07473e-05
5.32054e-07
1.48394e-06
2.48386e-07
2.67855e-07
5.32225e-07
1.48312e-06
2.48386e-07
1.8444e-06
8.83452e-06
1.84491e-06
8.83415e-06
5.32039e-07
2.48388e-07
1.48406e-06
2.67884e-07
5.32212e-07
2.48388e-07
1.48318e-06
1.84498e-06
8.83477e-06
8.83512e-06
1.84446e-06
5.32242e-07
2.67856e-07
1.48316e-06
2.48385e-07
1.48399e-06
2.48385e-07
5.32069e-07
1.84496e-06
8.83416e-06
8.8345e-06
1.84444e-06
5.32229e-07
2.67885e-07
2.48388e-07
1.48322e-06
2.48388e-07
1.48411e-06
5.32054e-07
1.84452e-06
8.83407e-06
1.84509e-06
8.83368e-06
5.3203e-07
2.48385e-07
1.4837e-06
2.67875e-07
5.32203e-07
2.48385e-07
1.48286e-06
1.84451e-06
8.83458e-06
1.84508e-06
8.83421e-06
5.32213e-07
2.67848e-07
1.48287e-06
2.48383e-07
1.48375e-06
2.48383e-07
5.32037e-07
1.84513e-06
8.83366e-06
8.83403e-06
1.84456e-06
5.32219e-07
2.67876e-07
2.48384e-07
1.4829e-06
2.48384e-07
1.48374e-06
5.32045e-07
1.84513e-06
8.8342e-06
8.83454e-06
1.84455e-06
3.35838e-06
3.35705e-06
3.02712e-07
3.35776e-06
3.35658e-06
2.075e-05
2.075e-05
2.075e-05
2.07499e-05
3.02995e-07
3.35774e-06
3.35667e-06
3.35839e-06
3.35715e-06
2.07499e-05
2.07498e-05
5.32059e-07
2.48385e-07
1.4839e-06
2.67858e-07
5.32237e-07
2.48385e-07
1.48306e-06
1.84439e-06
8.83472e-06
1.84491e-06
8.83434e-06
1.8444e-06
8.83542e-06
1.84492e-06
8.83506e-06
5.32248e-07
2.6786e-07
2.48385e-07
1.48288e-06
2.48385e-07
1.48372e-06
5.32068e-07
5.32254e-07
2.67858e-07
2.48384e-07
1.4831e-06
2.48384e-07
1.48395e-06
5.32074e-07
1.84496e-06
8.83434e-06
8.83467e-06
1.84443e-06
1.84497e-06
8.83507e-06
8.83539e-06
1.84444e-06
2.07502e-05
2.07502e-05
2.07507e-05
2.07507e-05
3.02998e-07
3.35674e-06
3.35778e-06
3.35724e-06
3.35827e-06
2.07501e-05
2.075e-05
2.07506e-05
2.07505e-05
2.0749e-05
2.07492e-05
2.075e-05
2.07502e-05
3.35717e-06
3.35819e-06
3.02715e-07
3.35668e-06
3.35769e-06
2.07492e-05
2.07489e-05
2.07502e-05
2.07499e-05
3.02998e-07
3.3567e-06
3.35771e-06
3.35723e-06
3.35824e-06
1.84457e-06
8.83453e-06
1.84516e-06
8.83421e-06
5.32048e-07
1.48371e-06
2.48385e-07
2.67876e-07
5.32226e-07
1.48287e-06
2.48385e-07
5.32054e-07
1.48396e-06
2.48387e-07
2.67882e-07
5.32232e-07
1.48309e-06
2.48387e-07
1.84516e-06
8.83331e-06
8.83362e-06
1.84457e-06
1.84518e-06
8.83423e-06
8.83454e-06
1.84459e-06
5.3224e-07
2.67877e-07
1.48289e-06
2.48385e-07
1.48374e-06
2.48384e-07
5.32061e-07
5.32245e-07
2.67883e-07
1.4831e-06
2.48386e-07
1.48397e-06
2.48386e-07
5.32066e-07
3.35843e-06
3.35713e-06
3.02704e-07
3.35785e-06
3.35654e-06
2.07472e-05
2.07473e-05
2.07501e-05
2.07498e-05
3.02987e-07
3.35783e-06
3.35657e-06
3.3584e-06
3.35718e-06
2.07473e-05
2.07471e-05
5.32083e-07
1.48403e-06
2.48387e-07
2.67859e-07
5.32257e-07
1.48319e-06
2.48387e-07
1.84447e-06
8.83452e-06
1.845e-06
8.83417e-06
5.32068e-07
2.4839e-07
1.48414e-06
2.67888e-07
5.32244e-07
2.4839e-07
1.48324e-06
1.84504e-06
8.8348e-06
8.83513e-06
1.8445e-06
5.3227e-07
2.6786e-07
1.48321e-06
2.48387e-07
1.48405e-06
2.48386e-07
5.32095e-07
1.84503e-06
8.83419e-06
8.83453e-06
1.84449e-06
5.32258e-07
2.67889e-07
2.4839e-07
1.48325e-06
2.4839e-07
1.48415e-06
5.3208e-07
1.84458e-06
8.83402e-06
1.84517e-06
8.83367e-06
5.32058e-07
2.48387e-07
1.48378e-06
2.67879e-07
5.32234e-07
2.48387e-07
1.48293e-06
1.84458e-06
8.83454e-06
1.84516e-06
8.83422e-06
5.3224e-07
2.67852e-07
1.48292e-06
2.48385e-07
1.48381e-06
2.48385e-07
5.32062e-07
1.84519e-06
8.83369e-06
8.83403e-06
1.8446e-06
5.32247e-07
2.67879e-07
2.48386e-07
1.48294e-06
2.48386e-07
1.48381e-06
5.3207e-07
1.84519e-06
8.83424e-06
8.83455e-06
1.8446e-06
3.35836e-06
3.35723e-06
3.02721e-07
3.3577e-06
3.35672e-06
2.07497e-05
2.07499e-05
2.07499e-05
2.07497e-05
3.03003e-07
3.35769e-06
3.35675e-06
3.35833e-06
3.35728e-06
2.07499e-05
2.07497e-05
5.32089e-07
2.48387e-07
1.48398e-06
2.67861e-07
5.32269e-07
2.48387e-07
1.48313e-06
1.84446e-06
8.83467e-06
1.845e-06
8.83434e-06
1.84447e-06
8.8354e-06
1.84501e-06
8.83508e-06
5.32275e-07
2.67864e-07
2.48387e-07
1.48292e-06
2.48387e-07
1.48378e-06
5.32092e-07
5.32283e-07
2.67862e-07
2.48386e-07
1.48314e-06
2.48386e-07
1.48401e-06
5.32101e-07
1.84502e-06
8.83436e-06
8.83468e-06
1.84448e-06
1.84503e-06
8.8351e-06
8.83542e-06
1.84448e-06
2.07499e-05
2.075e-05
2.07504e-05
2.07506e-05
3.03004e-07
3.35679e-06
3.35785e-06
3.35734e-06
3.35838e-06
2.075e-05
2.07498e-05
2.07506e-05
2.07504e-05
2.0749e-05
2.07493e-05
2.075e-05
2.07503e-05
3.35724e-06
3.35826e-06
3.02723e-07
3.3567e-06
3.35772e-06
2.07494e-05
2.07491e-05
2.07504e-05
2.07501e-05
3.03006e-07
3.35671e-06
3.35774e-06
3.35724e-06
3.35827e-06
1.84461e-06
8.83457e-06
1.8452e-06
8.83426e-06
5.32071e-07
1.48376e-06
2.48387e-07
2.6788e-07
5.32252e-07
1.4829e-06
2.48387e-07
5.32076e-07
1.48398e-06
2.48389e-07
2.67887e-07
5.32256e-07
1.48311e-06
2.48389e-07
1.84518e-06
8.83336e-06
8.83367e-06
1.84459e-06
1.84521e-06
8.8343e-06
8.8346e-06
1.84461e-06
5.32262e-07
2.67881e-07
1.48291e-06
2.48387e-07
1.48377e-06
2.48387e-07
5.3208e-07
5.32266e-07
2.67887e-07
1.48312e-06
2.48388e-07
1.48399e-06
2.48388e-07
5.32084e-07
3.35838e-06
3.35721e-06
3.02713e-07
3.35782e-06
3.3566e-06
2.07472e-05
2.07474e-05
2.07503e-05
2.075e-05
3.02996e-07
3.35783e-06
3.35663e-06
3.35838e-06
3.35723e-06
2.07476e-05
2.07473e-05
5.32105e-07
1.48407e-06
2.48389e-07
2.67863e-07
5.32282e-07
1.48322e-06
2.48389e-07
1.8445e-06
8.83455e-06
1.84504e-06
8.83421e-06
5.3209e-07
2.48392e-07
1.48417e-06
2.67893e-07
5.32269e-07
2.48392e-07
1.48326e-06
1.84507e-06
8.83487e-06
8.83519e-06
1.84452e-06
5.32291e-07
2.67864e-07
1.48322e-06
2.48389e-07
1.48408e-06
2.48388e-07
5.32112e-07
1.84505e-06
8.83423e-06
8.83457e-06
1.8445e-06
5.32278e-07
2.67893e-07
2.48392e-07
1.48327e-06
2.48392e-07
1.48418e-06
5.32097e-07
1.84461e-06
8.83406e-06
1.84521e-06
8.83372e-06
5.3208e-07
2.48389e-07
1.48382e-06
2.67883e-07
5.32258e-07
2.48389e-07
1.48295e-06
1.84461e-06
8.83458e-06
1.84521e-06
8.83426e-06
5.32261e-07
2.67856e-07
1.48294e-06
2.48386e-07
1.48384e-06
2.48387e-07
5.32079e-07
1.84522e-06
8.83377e-06
8.83409e-06
1.84462e-06
5.32268e-07
2.67884e-07
2.48388e-07
1.48296e-06
2.48388e-07
1.48383e-06
5.32088e-07
1.84522e-06
8.83431e-06
8.83461e-06
1.84462e-06
3.35832e-06
3.3573e-06
3.02729e-07
3.35769e-06
3.35676e-06
2.07497e-05
2.075e-05
2.07501e-05
2.07497e-05
3.03012e-07
3.35771e-06
3.35677e-06
3.35833e-06
3.35731e-06
2.07501e-05
2.07498e-05
5.32111e-07
2.48389e-07
1.48403e-06
2.67866e-07
5.32294e-07
2.48389e-07
1.48315e-06
1.84449e-06
8.8347e-06
1.84504e-06
8.83439e-06
1.8445e-06
8.83544e-06
1.84505e-06
8.83512e-06
5.32295e-07
2.67868e-07
2.48388e-07
1.48294e-06
2.48389e-07
1.48381e-06
5.32108e-07
5.32303e-07
2.67867e-07
2.48388e-07
1.48316e-06
2.48388e-07
1.48404e-06
5.32117e-07
1.84505e-06
8.83443e-06
8.83473e-06
1.84449e-06
1.84505e-06
8.83515e-06
8.83546e-06
1.8445e-06
2.07498e-05
2.07501e-05
2.07504e-05
2.07507e-05
3.03013e-07
3.3568e-06
3.35786e-06
3.35735e-06
3.3584e-06
2.07503e-05
2.07499e-05
2.07508e-05
2.07505e-05
2.07492e-05
2.07496e-05
2.07503e-05
2.07506e-05
3.35726e-06
3.35829e-06
3.02731e-07
3.35673e-06
3.35776e-06
2.07499e-05
2.07495e-05
2.07509e-05
2.07505e-05
3.03014e-07
3.35675e-06
3.35778e-06
3.35728e-06
3.35831e-06
1.8446e-06
8.83465e-06
1.84521e-06
8.83434e-06
5.32084e-07
1.48378e-06
2.4839e-07
2.67884e-07
5.32269e-07
1.48291e-06
2.4839e-07
5.32089e-07
1.484e-06
2.48391e-07
2.67891e-07
5.32274e-07
1.48313e-06
2.48391e-07
1.84517e-06
8.83343e-06
8.83373e-06
1.84457e-06
1.8452e-06
8.8344e-06
8.83469e-06
1.84459e-06
5.32273e-07
2.67884e-07
1.48292e-06
2.48388e-07
1.48378e-06
2.48388e-07
5.32088e-07
5.32278e-07
2.67891e-07
1.48313e-06
2.48389e-07
1.48401e-06
2.4839e-07
5.32093e-07
3.35839e-06
3.35726e-06
3.02721e-07
3.35785e-06
3.35665e-06
2.07474e-05
2.07478e-05
2.07508e-05
2.07503e-05
3.03004e-07
3.35786e-06
3.35667e-06
3.35841e-06
3.35728e-06
2.07481e-05
2.07477e-05
5.32115e-07
1.48409e-06
2.48391e-07
2.67867e-07
5.32297e-07
1.48323e-06
2.48391e-07
1.84448e-06
8.8346e-06
1.84505e-06
8.83426e-06
5.32101e-07
2.48394e-07
1.48418e-06
2.67897e-07
5.32284e-07
2.48394e-07
1.48327e-06
1.84504e-06
8.83487e-06
8.83528e-06
1.84449e-06
5.323e-07
2.67867e-07
1.48323e-06
2.4839e-07
1.48409e-06
2.4839e-07
5.32119e-07
1.84503e-06
8.83432e-06
8.83463e-06
1.84448e-06
5.32288e-07
2.67897e-07
2.48393e-07
1.48328e-06
2.48393e-07
1.48419e-06
5.32104e-07
1.84461e-06
8.83414e-06
1.84522e-06
8.83381e-06
5.32092e-07
2.48391e-07
1.48383e-06
2.67887e-07
5.32275e-07
2.48391e-07
1.48297e-06
1.84461e-06
8.83465e-06
1.84522e-06
8.83435e-06
5.3227e-07
2.6786e-07
1.48296e-06
2.48386e-07
1.48386e-06
2.48387e-07
5.32086e-07
1.8452e-06
8.83388e-06
8.83419e-06
1.8446e-06
5.32279e-07
2.67887e-07
2.48389e-07
1.48297e-06
2.48389e-07
1.48384e-06
5.32096e-07
1.8452e-06
8.83441e-06
8.8347e-06
1.8446e-06
3.35834e-06
3.35732e-06
3.02737e-07
3.35773e-06
3.35679e-06
2.075e-05
2.07503e-05
2.07506e-05
2.07502e-05
3.03019e-07
3.35774e-06
3.35681e-06
3.35836e-06
3.35734e-06
2.07506e-05
2.07502e-05
5.3212e-07
2.48391e-07
1.48404e-06
2.6787e-07
5.32308e-07
2.48391e-07
1.48316e-06
1.84447e-06
8.83478e-06
1.84504e-06
8.83448e-06
1.84448e-06
8.83549e-06
1.84505e-06
8.83517e-06
5.32302e-07
2.67871e-07
2.48388e-07
1.48295e-06
2.4839e-07
1.48382e-06
5.32113e-07
5.32311e-07
2.67869e-07
2.48389e-07
1.48316e-06
2.4839e-07
1.48404e-06
5.32122e-07
1.84502e-06
8.83454e-06
8.83483e-06
1.84446e-06
1.84503e-06
8.8352e-06
8.8355e-06
1.84447e-06
2.07501e-05
2.07505e-05
2.07507e-05
2.0751e-05
3.03021e-07
3.35683e-06
3.35789e-06
3.35738e-06
3.35843e-06
2.07507e-05
2.07503e-05
2.07513e-05
2.07509e-05
2.07497e-05
2.07501e-05
2.07507e-05
2.07511e-05
3.35729e-06
3.35832e-06
3.02738e-07
3.35675e-06
3.35777e-06
2.07505e-05
2.075e-05
2.07515e-05
2.0751e-05
3.03021e-07
3.35672e-06
3.35774e-06
3.35728e-06
3.35831e-06
1.84457e-06
8.83475e-06
1.84519e-06
8.83445e-06
5.3209e-07
1.48378e-06
2.48389e-07
2.67887e-07
5.32277e-07
1.48291e-06
2.48389e-07
5.32096e-07
1.48401e-06
2.4839e-07
2.67893e-07
5.32282e-07
1.48313e-06
2.4839e-07
1.84514e-06
8.83355e-06
8.83381e-06
1.84455e-06
1.84517e-06
8.83452e-06
8.83479e-06
1.84458e-06
5.32279e-07
2.67885e-07
1.48291e-06
2.48386e-07
1.48378e-06
2.48388e-07
5.32092e-07
5.32285e-07
2.67892e-07
1.48312e-06
2.48388e-07
1.484e-06
2.48389e-07
5.32098e-07
3.35842e-06
3.3573e-06
3.02727e-07
3.35785e-06
3.35667e-06
2.07479e-05
2.07483e-05
2.07511e-05
2.07509e-05
3.0301e-07
3.35787e-06
3.35663e-06
3.3584e-06
3.35729e-06
2.07487e-05
2.07482e-05
5.32122e-07
1.48414e-06
2.48391e-07
2.6787e-07
5.32303e-07
1.48326e-06
2.48391e-07
1.84446e-06
8.83469e-06
1.84502e-06
8.83437e-06
5.32108e-07
2.48394e-07
1.4842e-06
2.679e-07
5.32291e-07
2.48394e-07
1.48328e-06
1.84502e-06
8.83489e-06
8.83521e-06
1.84448e-06
5.32307e-07
2.67869e-07
1.48327e-06
2.48387e-07