/*--------------------------------*- C++ -*----------------------------------*\
| =========                 |                                                 |
| \\      /  F ield         | OpenFOAM: The Open Source CFD Toolbox           |
|  \\    /   O peration     | Version:  2206                                  |
|   \\  /    A nd           | Website:  www.openfoam.com                      |
|    \\/     M anipulation  |                                                 |
\*---------------------------------------------------------------------------*/
FoamFile
{
    version     2.0;
    format      ascii;
    arch        "LSB;label=32;scalar=64";
    class       volVectorField;
    location    "12.5";
    object      U;
}
// * * * * * * * * * * * * * * * * * * * * * * * * * * * * * * * * * * * * * //

dimensions      [0 1 -1 0 0 0 0];

internalField   nonuniform List<vector> 
28897
(
(-4.68955e-07 -4.63493e-07 0.101531)
(-2.58076e-07 4.63403e-07 0.101524)
(4.49134e-07 -2.48184e-07 0.101524)
(-3.71875e-05 -3.71928e-05 0.101511)
(-4.78371e-07 -4.84377e-07 0.101531)
(-1.93638e-07 4.22259e-07 0.101523)
(4.17146e-07 -1.9379e-07 0.101523)
(-3.71354e-05 -3.71571e-05 0.10151)
(-3.72242e-07 -3.73278e-07 0.101531)
(-4.04521e-07 5.47858e-07 0.101523)
(5.25413e-07 -3.85611e-07 0.101524)
(-3.73456e-05 -3.73713e-05 0.10151)
(-4.39056e-07 -4.31946e-07 0.101532)
(-3.13036e-07 4.85386e-07 0.101524)
(4.79616e-07 -3.05503e-07 0.101524)
(-3.72463e-05 -3.7252e-05 0.101511)
(-4.42164e-07 -4.3821e-07 0.101532)
(-2.96353e-07 4.80039e-07 0.101524)
(4.77998e-07 -2.96365e-07 0.101524)
(-3.72341e-05 -3.72475e-05 0.101511)
(-4.41997e-07 -4.39319e-07 0.101532)
(-2.93871e-07 4.78745e-07 0.101524)
(4.78019e-07 -2.95187e-07 0.101524)
(-3.72318e-05 -3.72468e-05 0.101511)
(-4.41779e-07 -4.39261e-07 0.101532)
(-2.94475e-07 4.79091e-07 0.101524)
(4.78253e-07 -2.95717e-07 0.101524)
(-3.72319e-05 -3.72475e-05 0.101511)
(-4.41924e-07 -4.39694e-07 0.101532)
(-2.9331e-07 4.7855e-07 0.101524)
(4.7777e-07 -2.94638e-07 0.101524)
(-3.72308e-05 -3.72465e-05 0.101511)
(-4.41328e-07 -4.39362e-07 0.101532)
(-2.95124e-07 4.79674e-07 0.101524)
(4.78804e-07 -2.96782e-07 0.101524)
(-3.72318e-05 -3.72478e-05 0.101511)
(-4.41047e-07 -4.38974e-07 0.101532)
(-2.93806e-07 4.79585e-07 0.101524)
(4.77248e-07 -2.96602e-07 0.101524)
(-3.72285e-05 -3.72501e-05 0.101511)
(-4.35347e-07 -4.32964e-07 0.101532)
(-2.92288e-07 4.78656e-07 0.101524)
(4.78362e-07 -2.96606e-07 0.101524)
(-3.72301e-05 -3.72485e-05 0.101511)
(-4.44127e-07 -4.36657e-07 0.101532)
(-2.94671e-07 4.90841e-07 0.101524)
(4.78239e-07 -2.95296e-07 0.101524)
(-3.72332e-05 -3.72465e-05 0.101511)
(-4.41576e-07 -4.3818e-07 0.101532)
(-2.94268e-07 4.81333e-07 0.101524)
(4.78111e-07 -2.94864e-07 0.101524)
(-3.72322e-05 -3.72462e-05 0.101511)
(-4.41177e-07 -4.39374e-07 0.101532)
(-2.9424e-07 4.80222e-07 0.101524)
(4.7806e-07 -2.94732e-07 0.101524)
(-3.72321e-05 -3.72472e-05 0.101511)
(-4.41278e-07 -4.3967e-07 0.101532)
(-2.93228e-07 4.7928e-07 0.101524)
(4.76799e-07 -2.93317e-07 0.101524)
(-3.7231e-05 -3.72463e-05 0.101511)
(-4.40764e-07 -4.39466e-07 0.101532)
(-2.94615e-07 4.79907e-07 0.101524)
(4.77975e-07 -2.94777e-07 0.101524)
(-3.7231e-05 -3.72466e-05 0.101511)
(-4.40985e-07 -4.39728e-07 0.101532)
(-2.92114e-07 4.77987e-07 0.101524)
(4.75891e-07 -2.92253e-07 0.101524)
(-3.7229e-05 -3.72445e-05 0.101511)
(-4.47389e-07 -4.45962e-07 0.101532)
(-2.84337e-07 4.75238e-07 0.101524)
(4.73027e-07 -2.84157e-07 0.101524)
(-3.72094e-05 -3.72242e-05 0.101511)
(-3.86168e-05 -3.85828e-05 0.101511)
(4.73665e-07 2.77063e-07 0.101524)
(-4.88157e-07 2.84171e-07 0.101524)
(3.85953e-05 -3.85771e-05 0.101511)
(2.61242e-07 4.63374e-07 0.101524)
(2.7412e-07 -4.72852e-07 0.101524)
(-2.75833e-07 4.72283e-07 0.101524)
(-2.81414e-07 -4.69405e-07 0.101524)
(-3.85867e-05 3.86188e-05 0.101511)
(4.60187e-07 -2.62045e-07 0.101524)
(-4.62952e-07 -2.61009e-07 0.101524)
(3.85846e-05 3.86151e-05 0.101511)
(3.71948e-05 3.71704e-05 0.101511)
(-3.86604e-05 -3.86332e-05 0.101511)
(4.61268e-07 2.5788e-07 0.101524)
(-4.85595e-07 2.66073e-07 0.101524)
(4.38552e-07 2.16586e-07 0.101523)
(-4.63943e-07 2.4243e-07 0.101523)
(-3.72103e-05 3.71782e-05 0.101511)
(3.86486e-05 -3.86187e-05 0.101511)
(2.48762e-07 4.51386e-07 0.101524)
(2.58092e-07 -4.60801e-07 0.101524)
(2.06452e-07 4.20711e-07 0.101524)
(2.18577e-07 -4.3353e-07 0.101523)
(-2.63851e-07 -4.58501e-07 0.101524)
(-2.44627e-07 4.55903e-07 0.101524)
(-2.32622e-07 -4.43155e-07 0.101523)
(3.71695e-05 -3.72034e-05 0.101511)
(-3.86318e-05 3.86664e-05 0.101511)
(-4.517e-07 -2.45384e-07 0.101524)
(4.22939e-07 -2.04714e-07 0.101523)
(-4.19415e-07 -2.05974e-07 0.101524)
(3.86377e-05 3.86438e-05 0.101511)
(3.71488e-05 3.71169e-05 0.10151)
(-3.84855e-05 -3.84636e-05 0.101511)
(4.32521e-07 1.98702e-07 0.101523)
(-4.34802e-07 2.09617e-07 0.101523)
(5.74522e-07 4.1079e-07 0.101523)
(-5.32678e-07 4.07207e-07 0.101523)
(-3.71719e-05 3.71503e-05 0.10151)
(3.85423e-05 -3.84946e-05 0.101511)
(1.97707e-07 4.12325e-07 0.101523)
(2.05992e-07 -4.26448e-07 0.101523)
(4.06181e-07 5.43675e-07 0.101523)
(4.17921e-07 -5.59474e-07 0.101523)
(-1.94723e-07 -4.25916e-07 0.101523)
(-3.74156e-07 5.30946e-07 0.101523)
(-3.96053e-07 -5.7645e-07 0.101523)
(3.71219e-05 -3.71533e-05 0.10151)
(-3.84594e-05 3.84975e-05 0.101511)
(-4.03243e-07 -1.94353e-07 0.101523)
(5.48874e-07 -4.02331e-07 0.101523)
(-5.36436e-07 -4.1038e-07 0.101523)
(3.8485e-05 3.84678e-05 0.101511)
(3.73644e-05 3.7334e-05 0.10151)
(-3.86059e-05 -3.85699e-05 0.101511)
(5.42932e-07 3.93374e-07 0.101523)
(-5.63325e-07 4.11888e-07 0.101523)
(4.91231e-07 3.27419e-07 0.101524)
(-5.13284e-07 3.32201e-07 0.101524)
(-3.73527e-05 3.73388e-05 0.10151)
(3.85876e-05 -3.85684e-05 0.101511)
(3.88481e-07 5.23785e-07 0.101524)
(3.98946e-07 -5.36888e-07 0.101524)
(3.09821e-07 4.85565e-07 0.101524)
(3.22953e-07 -4.94098e-07 0.101524)
(-4.00732e-07 -5.42239e-07 0.101523)
(-3.252e-07 4.91445e-07 0.101524)
(-3.31746e-07 -4.86131e-07 0.101524)
(3.73389e-05 -3.73655e-05 0.10151)
(-3.85756e-05 3.86058e-05 0.101511)
(-5.24196e-07 -3.87334e-07 0.101524)
(4.80311e-07 -3.11601e-07 0.101524)
(-4.85667e-07 -3.09773e-07 0.101524)
(3.85718e-05 3.86018e-05 0.101511)
(3.72509e-05 3.72289e-05 0.101511)
(-3.86155e-05 -3.85815e-05 0.101511)
(4.90464e-07 3.16907e-07 0.101524)
(-5.06656e-07 3.21152e-07 0.101524)
(4.90819e-07 3.08462e-07 0.101524)
(-4.97686e-07 3.09856e-07 0.101524)
(-3.72591e-05 3.72275e-05 0.101511)
(3.86121e-05 -3.85861e-05 0.101511)
(3.05187e-07 4.84345e-07 0.101524)
(3.15454e-07 -4.9304e-07 0.101524)
(2.93318e-07 4.8004e-07 0.101524)
(3.06283e-07 -4.89795e-07 0.101524)
(-3.2207e-07 -4.87116e-07 0.101524)
(-2.96617e-07 4.80592e-07 0.101524)
(-3.07099e-07 -4.87406e-07 0.101524)
(3.7226e-05 -3.72612e-05 0.101511)
(-3.85855e-05 3.86177e-05 0.101511)
(-4.84421e-07 -3.02765e-07 0.101524)
(4.76504e-07 -2.94406e-07 0.101524)
(-4.78207e-07 -2.94549e-07 0.101524)
(3.85883e-05 3.86094e-05 0.101511)
(3.7245e-05 3.72206e-05 0.101511)
(-3.86155e-05 -3.85833e-05 0.101511)
(4.91657e-07 3.06058e-07 0.101524)
(-4.97563e-07 3.0918e-07 0.101524)
(4.91221e-07 3.05926e-07 0.101524)
(-4.94596e-07 3.07414e-07 0.101524)
(-3.72416e-05 3.72149e-05 0.101511)
(3.86147e-05 -3.85878e-05 0.101511)
(2.97214e-07 4.80792e-07 0.101524)
(3.06969e-07 -4.90799e-07 0.101524)
(2.92236e-07 4.78332e-07 0.101524)
(3.0506e-07 -4.88683e-07 0.101524)
(-3.06883e-07 -4.89031e-07 0.101524)
(-2.92719e-07 4.78796e-07 0.101524)
(-3.03189e-07 -4.87205e-07 0.101524)
(3.72195e-05 -3.72532e-05 0.101511)
(-3.85861e-05 3.86189e-05 0.101511)
(-4.78894e-07 -2.95112e-07 0.101524)
(4.76359e-07 -2.92587e-07 0.101524)
(-4.75591e-07 -2.93175e-07 0.101524)
(3.85911e-05 3.86101e-05 0.101511)
(3.72447e-05 3.72189e-05 0.101511)
(-3.86154e-05 -3.85837e-05 0.101511)
(4.91564e-07 3.03912e-07 0.101524)
(-4.9536e-07 3.07365e-07 0.101524)
(4.9141e-07 3.05736e-07 0.101524)
(-4.94622e-07 3.07617e-07 0.101524)
(-3.72394e-05 3.72134e-05 0.101511)
(3.86147e-05 -3.85878e-05 0.101511)
(2.96185e-07 4.79128e-07 0.101524)
(3.05975e-07 -4.89995e-07 0.101524)
(2.92387e-07 4.77969e-07 0.101524)
(3.04977e-07 -4.88869e-07 0.101524)
(-3.04289e-07 -4.88823e-07 0.101524)
(-2.93049e-07 4.78954e-07 0.101524)
(-3.03448e-07 -4.87809e-07 0.101524)
(3.7219e-05 -3.72521e-05 0.101511)
(-3.8586e-05 3.86188e-05 0.101511)
(-4.77062e-07 -2.94249e-07 0.101524)
(4.76533e-07 -2.9274e-07 0.101524)
(-4.75528e-07 -2.93873e-07 0.101524)
(3.85911e-05 3.86094e-05 0.101511)
(3.7245e-05 3.72188e-05 0.101511)
(-3.86156e-05 -3.85842e-05 0.101511)
(4.92115e-07 3.04363e-07 0.101524)
(-4.95679e-07 3.07966e-07 0.101524)
(4.91035e-07 3.05073e-07 0.101524)
(-4.94228e-07 3.06892e-07 0.101524)
(-3.72399e-05 3.72139e-05 0.101511)
(3.86152e-05 -3.85884e-05 0.101511)
(2.96824e-07 4.79303e-07 0.101524)
(3.06341e-07 -4.9034e-07 0.101524)
(2.91964e-07 4.77556e-07 0.101524)
(3.04501e-07 -4.88363e-07 0.101524)
(-3.04884e-07 -4.89407e-07 0.101524)
(-2.92097e-07 4.78404e-07 0.101524)
(-3.02102e-07 -4.86847e-07 0.101524)
(3.72192e-05 -3.72524e-05 0.101511)
(-3.85863e-05 3.86193e-05 0.101511)
(-4.77208e-07 -2.94985e-07 0.101524)
(4.76257e-07 -2.91794e-07 0.101524)
(-4.74566e-07 -2.9261e-07 0.101524)
(3.85921e-05 3.86104e-05 0.101511)
(3.72448e-05 3.72186e-05 0.101511)
(-3.86148e-05 -3.85837e-05 0.101511)
(4.91939e-07 3.03598e-07 0.101524)
(-4.94824e-07 3.07312e-07 0.101524)
(4.91515e-07 3.06206e-07 0.101524)
(-4.94664e-07 3.0712e-07 0.101524)
(-3.72392e-05 3.72132e-05 0.101511)
(3.86147e-05 -3.85877e-05 0.101511)
(2.96138e-07 4.78756e-07 0.101524)
(3.05581e-07 -4.89605e-07 0.101524)
(2.93008e-07 4.78431e-07 0.101524)
(3.05612e-07 -4.89255e-07 0.101524)
(-3.03499e-07 -4.88485e-07 0.101524)
(-2.93006e-07 4.79138e-07 0.101524)
(-3.03119e-07 -4.87764e-07 0.101524)
(3.72187e-05 -3.72518e-05 0.101511)
(-3.85856e-05 3.86185e-05 0.101511)
(-4.76189e-07 -2.93766e-07 0.101524)
(4.77011e-07 -2.92894e-07 0.101524)
(-4.75603e-07 -2.93877e-07 0.101524)
(3.8591e-05 3.86095e-05 0.101511)
(3.72452e-05 3.72197e-05 0.101511)
(-3.86151e-05 -3.85857e-05 0.101511)
(4.925e-07 3.04496e-07 0.101524)
(-4.95926e-07 3.09212e-07 0.101524)
(4.9015e-07 3.05562e-07 0.101524)
(-4.96758e-07 3.10075e-07 0.101524)
(-3.72397e-05 3.72138e-05 0.101511)
(3.86156e-05 -3.85872e-05 0.101511)
(2.97232e-07 4.79329e-07 0.101524)
(3.07159e-07 -4.90846e-07 0.101524)
(2.94417e-07 4.77922e-07 0.101524)
(3.06308e-07 -4.89894e-07 0.101524)
(-3.05651e-07 -4.9004e-07 0.101524)
(-2.9292e-07 4.79888e-07 0.101524)
(-3.06732e-07 -4.89176e-07 0.101524)
(3.72196e-05 -3.72529e-05 0.101511)
(-3.85865e-05 3.86173e-05 0.101511)
(-4.77605e-07 -2.96126e-07 0.101524)
(4.76184e-07 -2.93731e-07 0.101524)
(-4.74888e-07 -2.97863e-07 0.101524)
(3.85937e-05 3.86069e-05 0.101511)
(3.72432e-05 3.72179e-05 0.101511)
(-3.86054e-05 -3.85916e-05 0.101511)
(4.90364e-07 3.04097e-07 0.101524)
(-4.93198e-07 3.10103e-07 0.101524)
(4.89054e-07 3.05875e-07 0.101524)
(-4.94037e-07 3.14056e-07 0.101524)
(-3.72379e-05 3.72165e-05 0.101511)
(3.86152e-05 -3.85842e-05 0.101511)
(2.99673e-07 4.77703e-07 0.101524)
(3.07702e-07 -4.91241e-07 0.101524)
(3.00323e-07 4.8017e-07 0.101524)
(3.07171e-07 -4.89366e-07 0.101524)
(-3.10885e-07 -4.91357e-07 0.101524)
(-2.9066e-07 4.76511e-07 0.101524)
(-3.10183e-07 -4.89475e-07 0.101524)
(3.72188e-05 -3.7254e-05 0.101511)
(-3.85863e-05 3.86181e-05 0.101511)
(-4.74123e-07 -3.01452e-07 0.101524)
(4.75817e-07 -2.93966e-07 0.101524)
(-4.71191e-07 -2.9923e-07 0.101524)
(3.85942e-05 3.86079e-05 0.101511)
(3.72511e-05 3.72224e-05 0.101511)
(-3.86156e-05 -3.85884e-05 0.101511)
(4.98807e-07 3.17512e-07 0.101524)
(-4.9508e-07 3.08946e-07 0.101524)
(4.86934e-07 3.01219e-07 0.101524)
(-4.99125e-07 3.2069e-07 0.101524)
(-3.72417e-05 3.7213e-05 0.101511)
(3.86097e-05 -3.85762e-05 0.101511)
(3.06162e-07 4.83774e-07 0.101524)
(3.08916e-07 -4.90347e-07 0.101524)
(2.93344e-07 4.76772e-07 0.101524)
(3.06957e-07 -4.88811e-07 0.101524)
(-3.08596e-07 -4.90225e-07 0.101524)
(-2.93884e-07 4.88326e-07 0.101524)
(-3.05651e-07 -4.86913e-07 0.101524)
(3.72194e-05 -3.72532e-05 0.101511)
(-3.85855e-05 3.86187e-05 0.101511)
(-4.75215e-07 -2.97147e-07 0.101524)
(4.77238e-07 -2.93275e-07 0.101524)
(-4.76061e-07 -2.93658e-07 0.101524)
(3.85902e-05 3.86107e-05 0.101511)
(3.72399e-05 3.72267e-05 0.101511)
(-3.86124e-05 -3.85855e-05 0.101511)
(4.88592e-07 3.10107e-07 0.101524)
(-5.03713e-07 3.25021e-07 0.101524)
(4.90512e-07 3.04337e-07 0.101524)
(-4.8995e-07 3.06211e-07 0.101524)
(-3.72475e-05 3.72313e-05 0.101511)
(3.86142e-05 -3.85886e-05 0.101511)
(2.95493e-07 4.81629e-07 0.101524)
(3.07637e-07 -4.90399e-07 0.101524)
(2.92689e-07 4.80635e-07 0.101524)
(3.05965e-07 -4.88777e-07 0.101524)
(-3.0674e-07 -4.87828e-07 0.101524)
(-2.92075e-07 4.79644e-07 0.101524)
(-3.04244e-07 -4.86431e-07 0.101524)
(3.72199e-05 -3.72528e-05 0.101511)
(-3.85862e-05 3.86191e-05 0.101511)
(-4.77365e-07 -2.94179e-07 0.101524)
(4.76742e-07 -2.92586e-07 0.101524)
(-4.75881e-07 -2.92936e-07 0.101524)
(3.85909e-05 3.8611e-05 0.101511)
(3.72422e-05 3.72267e-05 0.101511)
(-3.8612e-05 -3.85881e-05 0.101511)
(4.90813e-07 3.08543e-07 0.101524)
(-4.95348e-07 3.12437e-07 0.101524)
(4.90366e-07 3.01583e-07 0.101524)
(-4.92895e-07 3.08513e-07 0.101524)
(-3.72399e-05 3.72143e-05 0.101511)
(3.86141e-05 -3.85884e-05 0.101511)
(2.97017e-07 4.81398e-07 0.101524)
(3.07013e-07 -4.90233e-07 0.101524)
(2.9346e-07 4.79354e-07 0.101524)
(3.05734e-07 -4.8923e-07 0.101524)
(-3.05367e-07 -4.88436e-07 0.101524)
(-2.9298e-07 4.80678e-07 0.101524)
(-3.03929e-07 -4.87706e-07 0.101524)
(3.72192e-05 -3.72523e-05 0.101511)
(-3.85862e-05 3.86188e-05 0.101511)
(-4.77366e-07 -2.94208e-07 0.101524)
(4.77006e-07 -2.92949e-07 0.101524)
(-4.76045e-07 -2.94113e-07 0.101524)
(3.85909e-05 3.86097e-05 0.101511)
(3.72418e-05 3.72237e-05 0.101511)
(-3.86122e-05 -3.85891e-05 0.101511)
(4.90275e-07 3.06954e-07 0.101524)
(-4.93621e-07 3.08984e-07 0.101524)
(4.89828e-07 3.00765e-07 0.101524)
(-4.91662e-07 3.06859e-07 0.101524)
(-3.72403e-05 3.72143e-05 0.101511)
(3.86157e-05 -3.85901e-05 0.101511)
(2.97436e-07 4.80475e-07 0.101524)
(3.06757e-07 -4.90642e-07 0.101524)
(2.93143e-07 4.78816e-07 0.101524)
(3.04762e-07 -4.8853e-07 0.101524)
(-3.0489e-07 -4.89216e-07 0.101524)
(-2.9201e-07 4.7927e-07 0.101524)
(-3.02265e-07 -4.86896e-07 0.101524)
(3.72191e-05 -3.72525e-05 0.101511)
(-3.85872e-05 3.86196e-05 0.101511)
(-4.77323e-07 -2.94657e-07 0.101524)
(4.76243e-07 -2.92076e-07 0.101524)
(-4.74742e-07 -2.93138e-07 0.101524)
(3.85923e-05 3.86107e-05 0.101511)
(3.72418e-05 3.72231e-05 0.101511)
(-3.86119e-05 -3.8589e-05 0.101511)
(4.89751e-07 3.06351e-07 0.101524)
(-4.92677e-07 3.07814e-07 0.101524)
(4.89832e-07 3.00944e-07 0.101524)
(-4.91861e-07 3.06942e-07 0.101524)
(-3.72391e-05 3.72131e-05 0.101511)
(3.8615e-05 -3.85898e-05 0.101511)
(2.96922e-07 4.79959e-07 0.101524)
(3.0606e-07 -4.90078e-07 0.101524)
(2.93349e-07 4.78738e-07 0.101524)
(3.05263e-07 -4.88996e-07 0.101524)
(-3.03384e-07 -4.88384e-07 0.101524)
(-2.92715e-07 4.79413e-07 0.101524)
(-3.02869e-07 -4.87505e-07 0.101524)
(3.72183e-05 -3.72519e-05 0.101511)
(-3.85865e-05 3.86189e-05 0.101511)
(-4.7595e-07 -2.93224e-07 0.101524)
(4.76772e-07 -2.92724e-07 0.101524)
(-4.75256e-07 -2.9412e-07 0.101524)
(3.85914e-05 3.86096e-05 0.101511)
(3.72412e-05 3.72223e-05 0.101511)
(-3.86118e-05 -3.8589e-05 0.101511)
(4.90386e-07 3.07044e-07 0.101524)
(-4.93373e-07 3.08486e-07 0.101524)
(4.90199e-07 3.0105e-07 0.101524)
(-4.9207e-07 3.07107e-07 0.101524)
(-3.72388e-05 3.72124e-05 0.101511)
(3.8615e-05 -3.85898e-05 0.101511)
(2.9778e-07 4.80407e-07 0.101524)
(3.0709e-07 -4.91035e-07 0.101524)
(2.93728e-07 4.78885e-07 0.101524)
(3.05506e-07 -4.89245e-07 0.101524)
(-3.0491e-07 -4.89637e-07 0.101524)
(-2.9303e-07 4.79725e-07 0.101524)
(-3.0343e-07 -4.87899e-07 0.101524)
(3.72181e-05 -3.72517e-05 0.101511)
(-3.85864e-05 3.86188e-05 0.101511)
(-4.77171e-07 -2.94446e-07 0.101524)
(4.77055e-07 -2.92982e-07 0.101524)
(-4.75495e-07 -2.94633e-07 0.101524)
(3.85914e-05 3.86096e-05 0.101511)
(3.72392e-05 3.72201e-05 0.101511)
(-3.86042e-05 -3.85811e-05 0.101511)
(4.88428e-07 3.04515e-07 0.101524)
(-4.91343e-07 3.05888e-07 0.101524)
(4.8649e-07 2.95276e-07 0.101524)
(-4.88396e-07 3.01019e-07 0.101524)
(-3.72367e-05 3.72105e-05 0.101511)
(3.86074e-05 -3.8582e-05 0.101511)
(2.95359e-07 4.78388e-07 0.101524)
(3.0455e-07 -4.89001e-07 0.101524)
(2.87542e-07 4.75494e-07 0.101524)
(2.99425e-07 -4.85577e-07 0.101524)
(-3.02556e-07 -4.87675e-07 0.101524)
(-2.86698e-07 4.76198e-07 0.101524)
(-2.97131e-07 -4.83928e-07 0.101524)
(3.72161e-05 -3.72496e-05 0.101511)
(-3.85786e-05 3.86114e-05 0.101511)
(-4.75226e-07 -2.91696e-07 0.101524)
(4.73368e-07 -2.86567e-07 0.101524)
(-4.7185e-07 -2.87809e-07 0.101524)
(3.85837e-05 3.86025e-05 0.101511)
(3.72195e-05 3.72006e-05 0.101511)
(4.8556e-07 2.96786e-07 0.101524)
(-4.88398e-07 2.98123e-07 0.101524)
(-3.72168e-05 3.71907e-05 0.101511)
(2.87108e-07 4.75729e-07 0.101524)
(2.96727e-07 -4.85837e-07 0.101524)
(-2.94267e-07 -4.84259e-07 0.101524)
(3.71963e-05 -3.72296e-05 0.101511)
(-4.72333e-07 -2.83044e-07 0.101524)
(-4.638e-07 -4.55614e-07 0.101531)
(4.50535e-07 -4.54637e-07 0.101531)
(-4.58137e-07 4.59931e-07 0.101531)
(4.51553e-07 4.6118e-07 0.101531)
(-9.29639e-09 -7.04524e-06 0.100759)
(7.2729e-07 5.282e-06 0.0969398)
(-2.35523e-08 6.77533e-06 0.100757)
(-8.96945e-07 -5.63935e-06 0.0969449)
(-1.34566e-06 1.58117e-06 0.0882181)
(1.38776e-06 -1.98184e-06 0.0882236)
(-7.08499e-06 -1.13393e-08 0.100759)
(5.31902e-06 7.11387e-07 0.0969396)
(6.81303e-06 -6.09169e-09 0.100757)
(-5.66302e-06 -8.74615e-07 0.0969448)
(4.56722e-07 -4.63249e-07 0.101531)
(-4.64498e-07 4.6625e-07 0.101531)
(4.57684e-07 4.67041e-07 0.101531)
(-4.74851e-07 -4.73879e-07 0.101531)
(4.77111e-07 -4.76518e-07 0.101531)
(-4.70285e-07 4.74414e-07 0.101531)
(4.7442e-07 4.74337e-07 0.101531)
(1.17953e-05 -2.37116e-08 0.101394)
(-1.0679e-05 3.16947e-06 0.100906)
(-3.09177e-07 -1.44327e-07 0.10153)
(-2.45257e-07 4.50228e-07 0.101524)
(-1.16362e-05 2.02967e-08 0.101393)
(1.04594e-05 -3.46993e-06 0.100909)
(-2.98239e-07 -1.48252e-07 0.10153)
(1.47194e-06 -1.25263e-06 0.0882166)
(-1.90184e-06 1.3892e-06 0.0882236)
(-2.41483e-08 1.18144e-05 0.101394)
(-1.53249e-07 -2.99873e-07 0.10153)
(3.13806e-06 -1.06773e-05 0.100906)
(4.55824e-07 -2.53992e-07 0.101524)
(4.88378e-09 -1.16263e-05 0.101393)
(-1.61102e-07 -2.98424e-07 0.10153)
(-3.52361e-06 1.05056e-05 0.100909)
(-3.50855e-06 -4.09639e-06 0.099937)
(-4.09655e-06 -3.49692e-06 0.0999367)
(3.86095e-05 3.86362e-05 0.101511)
(3.28034e-06 4.07042e-06 0.0999407)
(4.05188e-06 3.29706e-06 0.0999404)
(-7.76351e-10 -7.15432e-06 0.100759)
(7.85152e-07 5.35212e-06 0.0969408)
(-2.66609e-08 6.73159e-06 0.100756)
(-7.82125e-07 -5.81045e-06 0.0969457)
(-1.31787e-06 1.4939e-06 0.088221)
(1.61187e-06 -2.09484e-06 0.0882263)
(-7.18845e-06 -3.29059e-08 0.100759)
(5.38646e-06 7.53613e-07 0.0969406)
(6.77e-06 -2.46423e-08 0.100757)
(-5.83525e-06 -7.70067e-07 0.0969456)
(4.8193e-07 -4.79953e-07 0.101531)
(-4.76397e-07 4.8145e-07 0.101531)
(4.83822e-07 4.77601e-07 0.101531)
(-3.62593e-07 -3.71399e-07 0.101531)
(4.25454e-07 -4.08887e-07 0.101531)
(-3.62157e-07 3.67317e-07 0.101531)
(3.86622e-07 3.5998e-07 0.101531)
(1.18775e-05 -5.48291e-08 0.101394)
(-1.0592e-05 3.04904e-06 0.100905)
(-2.42956e-07 -1.63444e-07 0.10153)
(-1.93519e-07 4.18618e-07 0.101523)
(-1.16001e-05 -3.42176e-09 0.101393)
(1.05627e-05 -3.57005e-06 0.100909)
(-2.51002e-07 -1.76413e-07 0.10153)
(1.5233e-06 -1.25837e-06 0.0882191)
(-2.19794e-06 1.55592e-06 0.0882276)
(-2.74237e-08 1.18614e-05 0.101393)
(-1.63775e-07 -2.45291e-07 0.10153)
(3.08866e-06 -1.06146e-05 0.100905)
(4.77345e-07 -2.66931e-07 0.101523)
(-3.39784e-09 -1.16014e-05 0.101393)
(-1.56692e-07 -3.07204e-07 0.10153)
(-3.6443e-06 1.05877e-05 0.100908)
(-3.53897e-06 -4.04839e-06 0.0999367)
(-4.04104e-06 -3.47968e-06 0.0999365)
(3.86563e-05 3.86456e-05 0.101511)
(3.4688e-06 4.10281e-06 0.0999406)
(4.1417e-06 3.35486e-06 0.0999402)
(1.95165e-09 -6.8204e-06 0.100759)
(6.80238e-07 6.37744e-06 0.0969409)
(3.18979e-08 7.05627e-06 0.100756)
(-9.08902e-07 -4.96046e-06 0.0969447)
(-1.76517e-06 2.36393e-06 0.0882242)
(9.37628e-07 -1.12634e-06 0.0882246)
(-6.86027e-06 7.51366e-09 0.100759)
(6.40745e-06 6.58962e-07 0.0969407)
(7.09776e-06 2.26061e-08 0.100756)
(-4.99977e-06 -8.85363e-07 0.0969446)
(3.78844e-07 -3.76208e-07 0.101531)
(-3.68921e-07 3.72433e-07 0.101531)
(3.70038e-07 3.69473e-07 0.101531)
(-4.34488e-07 -4.24675e-07 0.101532)
(4.09183e-07 -4.16733e-07 0.101532)
(-4.29372e-07 4.2996e-07 0.101532)
(4.18419e-07 4.31145e-07 0.101532)
(1.13282e-05 1.91533e-08 0.101394)
(-1.10051e-05 3.43236e-06 0.100905)
(-5.11293e-07 -1.16533e-07 0.10153)
(-3.79594e-07 5.29375e-07 0.101524)
(-1.21141e-05 1.00603e-08 0.101393)
(1.00571e-05 -2.97324e-06 0.100909)
(-4.96277e-07 -1.03235e-07 0.10153)
(2.51085e-06 -1.80122e-06 0.0882193)
(-1.36034e-06 1.17725e-06 0.0882227)
(1.72068e-09 1.14291e-05 0.101394)
(-1.10316e-07 -5.06277e-07 0.10153)
(3.62966e-06 -1.11234e-05 0.100905)
(5.00299e-07 -3.51065e-07 0.101524)
(4.44738e-08 -1.2191e-05 0.101393)
(-1.23186e-07 -4.6612e-07 0.10153)
(-3.17712e-06 1.02007e-05 0.100909)
(-3.4554e-06 -4.29142e-06 0.0999364)
(-4.26032e-06 -3.34496e-06 0.0999362)
(3.85284e-05 3.85679e-05 0.101511)
(3.4651e-06 4.03458e-06 0.0999407)
(3.97577e-06 3.42421e-06 0.0999404)
(-1.37745e-09 -6.97102e-06 0.100759)
(7.24231e-07 5.54448e-06 0.0969394)
(-2.52662e-08 6.85705e-06 0.100757)
(-9.12581e-07 -5.41167e-06 0.0969441)
(-1.41918e-06 1.79875e-06 0.0882179)
(1.3217e-06 -1.75914e-06 0.0882224)
(-7.00976e-06 -3.80054e-10 0.100759)
(5.57298e-06 7.04193e-07 0.0969392)
(6.89172e-06 -5.11681e-09 0.100757)
(-5.44011e-06 -8.88199e-07 0.0969441)
(4.21329e-07 -4.27256e-07 0.101532)
(-4.34953e-07 4.35702e-07 0.101532)
(4.25335e-07 4.35513e-07 0.101532)
(-4.4303e-07 -4.36696e-07 0.101532)
(4.37123e-07 -4.38526e-07 0.101532)
(-4.3901e-07 4.40186e-07 0.101532)
(4.35179e-07 4.3925e-07 0.101532)
(1.16525e-05 -1.72866e-08 0.101394)
(-1.07936e-05 3.24213e-06 0.100906)
(-3.97717e-07 -1.30863e-07 0.10153)
(-3.04166e-07 4.82809e-07 0.101524)
(-1.18086e-05 2.84009e-08 0.101393)
(1.03488e-05 -3.37475e-06 0.100909)
(-3.82638e-07 -1.36091e-07 0.10153)
(1.6834e-06 -1.33088e-06 0.0882157)
(-1.6849e-06 1.27707e-06 0.0882219)
(-1.65571e-08 1.16661e-05 0.101394)
(-1.42795e-07 -3.81266e-07 0.10153)
(3.23688e-06 -1.07979e-05 0.100906)
(4.77537e-07 -2.98463e-07 0.101524)
(8.28583e-09 -1.17939e-05 0.101393)
(-1.44099e-07 -3.71549e-07 0.10153)
(-3.4061e-06 1.03854e-05 0.100909)
(-3.47296e-06 -4.11781e-06 0.099937)
(-4.12335e-06 -3.46615e-06 0.0999367)
(3.85815e-05 3.86059e-05 0.101511)
(3.33652e-06 4.02168e-06 0.0999409)
(4.00818e-06 3.33463e-06 0.0999405)
(2.94991e-09 -6.97628e-06 0.100759)
(7.34255e-07 5.52711e-06 0.0969394)
(-1.50797e-08 6.83207e-06 0.100757)
(-9.06885e-07 -5.41149e-06 0.0969441)
(-1.40484e-06 1.75843e-06 0.0882178)
(1.32004e-06 -1.76092e-06 0.0882224)
(-7.01431e-06 -6.26961e-10 0.100759)
(5.55773e-06 7.12302e-07 0.0969392)
(6.87059e-06 -5.65415e-09 0.100757)
(-5.4385e-06 -8.85679e-07 0.0969441)
(4.38084e-07 -4.39518e-07 0.101532)
(-4.38766e-07 4.40257e-07 0.101532)
(4.35256e-07 4.38907e-07 0.101532)
(-4.42745e-07 -4.38073e-07 0.101532)
(4.40833e-07 -4.40996e-07 0.101532)
(-4.38857e-07 4.4074e-07 0.101532)
(4.37945e-07 4.3985e-07 0.101532)
(1.16646e-05 -2.14912e-08 0.101394)
(-1.07454e-05 3.20311e-06 0.100906)
(-3.68648e-07 -1.40588e-07 0.10153)
(-2.94108e-07 4.79518e-07 0.101524)
(-1.17633e-05 1.50355e-08 0.101393)
(1.03597e-05 -3.37674e-06 0.100909)
(-3.657e-07 -1.4114e-07 0.10153)
(1.67807e-06 -1.34625e-06 0.0882157)
(-1.68417e-06 1.27216e-06 0.088222)
(-1.49976e-08 1.16722e-05 0.101394)
(-1.43698e-07 -3.62671e-07 0.10153)
(3.22741e-06 -1.07762e-05 0.100906)
(4.76706e-07 -2.9339e-07 0.101524)
(9.04167e-09 -1.17682e-05 0.101393)
(-1.43637e-07 -3.63473e-07 0.10153)
(-3.40391e-06 1.03895e-05 0.100909)
(-3.46639e-06 -4.12805e-06 0.099937)
(-4.12056e-06 -3.45998e-06 0.0999367)
(3.8588e-05 3.86074e-05 0.101511)
(3.34242e-06 4.01842e-06 0.0999409)
(4.01013e-06 3.33751e-06 0.0999405)
(4.09168e-09 -6.97597e-06 0.100759)
(7.36068e-07 5.52832e-06 0.0969394)
(-1.30603e-08 6.8322e-06 0.100757)
(-9.06304e-07 -5.41086e-06 0.0969441)
(-1.40511e-06 1.75945e-06 0.0882178)
(1.32005e-06 -1.76088e-06 0.0882224)
(-7.01376e-06 -8.90235e-10 0.100759)
(5.55895e-06 7.12906e-07 0.0969392)
(6.87058e-06 -5.72579e-09 0.100757)
(-5.43785e-06 -8.85273e-07 0.0969441)
(4.40316e-07 -4.41105e-07 0.101532)
(-4.38666e-07 4.40506e-07 0.101532)
(4.37078e-07 4.39129e-07 0.101532)
(-4.42722e-07 -4.38313e-07 0.101532)
(4.40995e-07 -4.4121e-07 0.101532)
(-4.38916e-07 4.40657e-07 0.101532)
(4.37965e-07 4.39525e-07 0.101532)
(1.16654e-05 -2.17124e-08 0.101394)
(-1.07445e-05 3.20411e-06 0.100906)
(-3.65035e-07 -1.41454e-07 0.10153)
(-2.92515e-07 4.78434e-07 0.101524)
(-1.17623e-05 1.43963e-08 0.101393)
(1.03603e-05 -3.37656e-06 0.100909)
(-3.63528e-07 -1.41731e-07 0.10153)
(1.6785e-06 -1.34656e-06 0.0882157)
(-1.68408e-06 1.27226e-06 0.088222)
(-1.43376e-08 1.16727e-05 0.101394)
(-1.42983e-07 -3.61163e-07 0.10153)
(3.22873e-06 -1.07758e-05 0.100906)
(4.76578e-07 -2.92512e-07 0.101524)
(9.74682e-09 -1.17674e-05 0.101393)
(-1.43144e-07 -3.62447e-07 0.10153)
(-3.40324e-06 1.039e-05 0.100909)
(-3.46522e-06 -4.12921e-06 0.099937)
(-4.12027e-06 -3.46002e-06 0.0999367)
(3.85893e-05 3.86076e-05 0.101511)
(3.34305e-06 4.01798e-06 0.0999409)
(4.0106e-06 3.33724e-06 0.0999405)
(3.9762e-09 -6.97593e-06 0.100759)
(7.36538e-07 5.52757e-06 0.0969394)
(-1.28363e-08 6.83217e-06 0.100757)
(-9.06415e-07 -5.41202e-06 0.0969441)
(-1.40528e-06 1.75917e-06 0.0882178)
(1.32048e-06 -1.76085e-06 0.0882224)
(-7.01372e-06 -1.44495e-09 0.100759)
(5.55846e-06 7.13037e-07 0.0969392)
(6.8705e-06 -6.13506e-09 0.100757)
(-5.43832e-06 -8.85399e-07 0.0969441)
(4.40148e-07 -4.40915e-07 0.101532)
(-4.38527e-07 4.40287e-07 0.101532)
(4.36874e-07 4.38785e-07 0.101532)
(-4.42838e-07 -4.3849e-07 0.101532)
(4.41417e-07 -4.41401e-07 0.101532)
(-4.38872e-07 4.41056e-07 0.101532)
(4.38757e-07 4.40301e-07 0.101532)
(1.1665e-05 -2.16116e-08 0.101394)
(-1.07446e-05 3.20406e-06 0.100906)
(-3.65689e-07 -1.41432e-07 0.10153)
(-2.93033e-07 4.78797e-07 0.101524)
(-1.17624e-05 1.42946e-08 0.101393)
(1.036e-05 -3.37652e-06 0.100909)
(-3.64011e-07 -1.41641e-07 0.10153)
(1.67826e-06 -1.3466e-06 0.0882157)
(-1.68399e-06 1.27197e-06 0.088222)
(-1.40075e-08 1.16722e-05 0.101394)
(-1.42883e-07 -3.61732e-07 0.10153)
(3.22887e-06 -1.07761e-05 0.100906)
(4.77037e-07 -2.9289e-07 0.101524)
(1.02326e-08 -1.17683e-05 0.101393)
(-1.42973e-07 -3.62902e-07 0.10153)
(-3.40295e-06 1.039e-05 0.100909)
(-3.46472e-06 -4.12954e-06 0.099937)
(-4.12026e-06 -3.45993e-06 0.0999367)
(3.85891e-05 3.86072e-05 0.101511)
(3.34351e-06 4.01807e-06 0.0999409)
(4.01075e-06 3.33763e-06 0.0999405)
(3.62474e-09 -6.97578e-06 0.100759)
(7.37373e-07 5.53232e-06 0.0969394)
(-1.25344e-08 6.83168e-06 0.100757)
(-9.09851e-07 -5.41954e-06 0.0969441)
(-1.40571e-06 1.76024e-06 0.0882178)
(1.32093e-06 -1.76432e-06 0.0882224)
(-7.01396e-06 -1.60159e-09 0.100759)
(5.56103e-06 7.137e-07 0.0969392)
(6.87046e-06 -5.96194e-09 0.100757)
(-5.44068e-06 -8.88106e-07 0.096944)
(4.40915e-07 -4.41223e-07 0.101532)
(-4.38714e-07 4.40892e-07 0.101532)
(4.37714e-07 4.39439e-07 0.101532)
(-4.42455e-07 -4.38033e-07 0.101532)
(4.40985e-07 -4.41226e-07 0.101532)
(-4.38445e-07 4.40383e-07 0.101532)
(4.3821e-07 4.39634e-07 0.101532)
(1.16657e-05 -2.18475e-08 0.101394)
(-1.07441e-05 3.20414e-06 0.100906)
(-3.64275e-07 -1.41455e-07 0.10153)
(-2.92359e-07 4.78434e-07 0.101524)
(-1.17616e-05 1.41427e-08 0.101393)
(1.03602e-05 -3.37668e-06 0.100909)
(-3.63068e-07 -1.41657e-07 0.10153)
(1.67844e-06 -1.34665e-06 0.0882157)
(-1.68404e-06 1.27226e-06 0.0882219)
(-1.42767e-08 1.16728e-05 0.101394)
(-1.42851e-07 -3.60395e-07 0.10153)
(3.22896e-06 -1.07763e-05 0.100906)
(4.76584e-07 -2.92025e-07 0.101524)
(1.00266e-08 -1.17673e-05 0.101393)
(-1.42861e-07 -3.62049e-07 0.10153)
(-3.40267e-06 1.03909e-05 0.100909)
(-3.46499e-06 -4.12892e-06 0.099937)
(-4.11963e-06 -3.46031e-06 0.0999367)
(3.85895e-05 3.86076e-05 0.101511)
(3.34321e-06 4.0176e-06 0.0999409)
(4.01048e-06 3.33717e-06 0.0999405)
(3.14001e-09 -6.97628e-06 0.100759)
(7.42578e-07 5.54075e-06 0.0969394)
(-1.29186e-08 6.83109e-06 0.100757)
(-9.14475e-07 -5.43007e-06 0.096944)
(-1.41509e-06 1.77384e-06 0.0882178)
(1.32536e-06 -1.77486e-06 0.0882224)
(-7.01392e-06 -1.69609e-09 0.100759)
(5.56136e-06 7.17674e-07 0.0969393)
(6.87026e-06 -5.87813e-09 0.100757)
(-5.44203e-06 -8.9259e-07 0.096944)
(4.39724e-07 -4.4026e-07 0.101532)
(-4.37914e-07 4.39631e-07 0.101532)
(4.36523e-07 4.38085e-07 0.101532)
(-4.42566e-07 -4.38138e-07 0.101532)
(4.40378e-07 -4.38861e-07 0.101532)
(-4.37357e-07 4.39077e-07 0.101532)
(4.36364e-07 4.36961e-07 0.101532)
(1.16651e-05 -2.15468e-08 0.101394)
(-1.07444e-05 3.20376e-06 0.100906)
(-3.66383e-07 -1.41255e-07 0.10153)
(-2.93779e-07 4.79757e-07 0.101524)
(-1.17619e-05 1.43131e-08 0.101393)
(1.03598e-05 -3.37646e-06 0.100909)
(-3.65197e-07 -1.41466e-07 0.10153)
(1.67754e-06 -1.34742e-06 0.0882157)
(-1.6841e-06 1.27137e-06 0.088222)
(-1.42573e-08 1.16719e-05 0.101394)
(-1.42768e-07 -3.62886e-07 0.10153)
(3.2275e-06 -1.07789e-05 0.100906)
(4.77337e-07 -2.93751e-07 0.101524)
(1.00773e-08 -1.1768e-05 0.101393)
(-1.42716e-07 -3.64916e-07 0.10153)
(-3.40167e-06 1.03921e-05 0.100909)
(-3.46458e-06 -4.12891e-06 0.099937)
(-4.11932e-06 -3.4598e-06 0.0999367)
(3.8588e-05 3.86056e-05 0.101511)
(3.34337e-06 4.01735e-06 0.0999409)
(4.01071e-06 3.33731e-06 0.0999405)
(-1.14754e-08 -6.97667e-06 0.100759)
(7.41009e-07 5.55872e-06 0.0969396)
(-1.96372e-08 6.8298e-06 0.100757)
(-9.85572e-07 -5.47916e-06 0.0969439)
(-1.40689e-06 1.77031e-06 0.0882178)
(1.32447e-06 -1.71277e-06 0.0882223)
(-7.0143e-06 -1.39557e-09 0.100759)
(5.56604e-06 7.215e-07 0.0969394)
(6.87107e-06 -6.64971e-09 0.100757)
(-5.44488e-06 -8.97677e-07 0.0969438)
(4.39962e-07 -4.36758e-07 0.101532)
(-4.36542e-07 4.38826e-07 0.101532)
(4.3358e-07 4.33293e-07 0.101532)
(-4.39503e-07 -4.35488e-07 0.101532)