/*--------------------------------*- C++ -*----------------------------------*\
| =========                 |                                                 |
| \\      /  F ield         | OpenFOAM: The Open Source CFD Toolbox           |
|  \\    /   O peration     | Version:  2206                                  |
|   \\  /    A nd           | Website:  www.openfoam.com                      |
|    \\/     M anipulation  |                                                 |
\*---------------------------------------------------------------------------*/
FoamFile
{
    version     2.0;
    format      ascii;
    arch        "LSB;label=32;scalar=64";
    class       volScalarField;
    location    "24.5";
    object      nut;
}
// * * * * * * * * * * * * * * * * * * * * * * * * * * * * * * * * * * * * * //

dimensions      [0 2 -1 0 0 0 0];

internalField   nonuniform List<scalar> 
28687
(
0.000222702
0.000199914
0.000199907
0.00017571
0.000222701
0.000199914
0.000199906
0.000175728
0.000222698
0.000199912
0.000199903
0.000175727
0.000222699
0.000199911
0.000199903
0.000175724
0.000222699
0.000199909
0.000199901
0.000175725
0.000222688
0.000199884
0.000199886
0.000175695
0.000222672
0.000199858
0.000199851
0.000175653
0.000222678
0.000199862
0.000199855
0.000175662
0.000222679
0.000199862
0.000199855
0.000175657
0.000222679
0.000199862
0.000199856
0.00017566
0.000222679
0.000199863
0.000199856
0.000175658
0.000222679
0.000199863
0.000199856
0.000175657
0.000222679
0.000199863
0.000199856
0.000175658
0.000222679
0.000199863
0.000199856
0.000175658
0.000222679
0.000199863
0.000199856
0.000175658
0.000222679
0.000199863
0.000199856
0.000175658
0.000222679
0.000199863
0.000199856
0.000175658
0.000222679
0.000199863
0.000199856
0.000175658
0.000199894
0.000175905
0.000199914
0.000175712
0.000175898
0.000199898
0.000199894
0.000199898
0.000199894
0.000175738
0.000175899
0.000199911
0.000199887
0.00019991
0.000199886
0.000199897
0.000199914
0.000199897
0.000175704
0.00017589
0.000199912
0.000199907
0.000199911
0.000175894
0.000175734
0.000175896
0.000199897
0.000199894
0.000199896
0.000199894
0.000175735
0.000175898
0.00019991
0.000199886
0.000199909
0.000199885
0.000199896
0.000199913
0.000199895
0.000175726
0.000175888
0.000199911
0.000199903
0.000199909
0.000175893
0.000175732
0.000175894
0.000199896
0.000199895
0.000199894
0.000199894
0.000175734
0.000175897
0.000199908
0.000199884
0.000199907
0.000199883
0.000199894
0.000199911
0.000199893
0.000175724
0.000175886
0.000199909
0.000199903
0.000199908
0.00017589
0.00017573
0.000175894
0.000199895
0.000199895
0.000199894
0.000199894
0.000175732
0.000175898
0.000199906
0.000199883
0.000199904
0.000199883
0.000199893
0.00019991
0.000199894
0.000175722
0.000175885
0.000199909
0.000199901
0.000199909
0.000175891
0.000175729
0.000175875
0.000199892
0.000199892
0.000199883
0.000199879
0.000175733
0.000175869
0.000199903
0.000199881
0.000199896
0.000199874
0.000199894
0.000199898
0.000199884
0.000175722
0.000175867
0.000199908
0.000199894
0.000199899
0.000175871
0.000175703
0.000175825
0.000199874
0.000199863
0.00019984
0.000199839
0.000175692
0.000175828
0.000199889
0.000199866
0.000199854
0.000199831
0.000199874
0.000199857
0.000199841
0.000175695
0.000175817
0.000199889
0.000199851
0.000199855
0.000175821
0.000175659
0.000175831
0.00019984
0.000199841
0.000199843
0.000199843
0.000175666
0.000175833
0.000199854
0.000199831
0.000199856
0.000199834
0.000199841
0.000199862
0.000199844
0.000175652
0.000175823
0.000199856
0.000199855
0.000199859
0.000175829
0.000175667
0.000175824
0.000199844
0.000199843
0.000199844
0.000199843
0.000175668
0.000175829
0.000199857
0.000199835
0.000199857
0.000199834
0.000199845
0.000199863
0.000199845
0.000175659
0.000175817
0.00019986
0.000199855
0.000199859
0.000175822
0.00017566
0.000175829
0.000199845
0.000199844
0.000199846
0.000199843
0.000175665
0.000175833
0.000199858
0.000199835
0.000199859
0.000199835
0.000199845
0.000199863
0.000199846
0.000175654
0.000175821
0.00019986
0.000199856
0.00019986
0.000175826
0.000175665
0.000175826
0.000199846
0.000199843
0.000199846
0.000199843
0.000175668
0.000175831
0.000199859
0.000199836
0.000199859
0.000199835
0.000199846
0.000199863
0.000199846
0.000175658
0.000175818
0.000199861
0.000199856
0.00019986
0.000175823
0.000175663
0.000175826
0.000199847
0.000199844
0.000199846
0.000199844
0.000175668
0.000175829
0.000199859
0.000199836
0.000199859
0.000199835
0.000199846
0.000199863
0.000199846
0.000175656
0.000175818
0.000199861
0.000199856
0.00019986
0.000175823
0.000175662
0.000175827
0.000199847
0.000199844
0.000199846
0.000199844
0.000175665
0.000175829
0.00019986
0.000199836
0.00019986
0.000199835
0.000199846
0.000199863
0.000199846
0.000175654
0.000175818
0.000199859
0.000199856
0.000199858
0.000175824
0.000175662
0.000175827
0.000199847
0.000199844
0.000199846
0.000199844
0.000175665
0.00017583
0.00019986
0.000199836
0.00019986
0.000199835
0.000199846
0.000199863
0.000199845
0.000175655
0.000175819
0.000199858
0.000199856
0.000199858
0.000175824
0.000175662
0.000175827
0.000199847
0.000199844
0.000199846
0.000199844
0.000175665
0.00017583
0.00019986
0.000199836
0.00019986
0.000199835
0.000199846
0.000199863
0.000199845
0.000175655
0.000175819
0.000199859
0.000199856
0.000199858
0.000175824
0.000175662
0.000175826
0.000199846
0.000199844
0.000199846
0.000199844
0.000175665
0.00017583
0.00019986
0.000199836
0.00019986
0.000199835
0.000199846
0.000199863
0.000199845
0.000175655
0.000175819
0.000199859
0.000199856
0.000199858
0.000175824
0.000175662
0.000175826
0.000199847
0.000199844
0.000199846
0.000199844
0.000175666
0.00017583
0.00019986
0.000199836
0.00019986
0.000199835
0.000199846
0.000199863
0.000199845
0.000175655
0.000175819
0.000199859
0.000199856
0.000199858
0.000175824
0.000175662
0.000175826
0.000199846
0.000199844
0.000199846
0.000199844
0.000175665
0.000175829
0.00019986
0.000199836
0.00019986
0.000199835
0.000199846
0.000199863
0.000199846
0.000175655
0.000175819
0.000199859
0.000199856
0.000199858
0.000175824
0.000175662
0.000199846
0.000199844
0.000175665
0.00019986
0.000199835
0.000199846
0.000175655
0.000199859
4.41825e-05
4.93721e-05
4.41745e-05
4.93704e-05
2.55114e-05
2.55107e-05
4.41892e-05
4.93682e-05
4.41818e-05
4.93664e-05
0.000222703
0.000222699
0.000222701
0.000222701
0.000222703
0.000222699
0.000222701
0.000103577
5.39201e-05
0.000214336
0.000199915
0.000103553
5.39365e-05
0.000214336
2.55091e-05
2.55082e-05
0.000103581
0.000214333
5.39226e-05
0.000199907
0.000103556
0.000214333
5.39371e-05
3.52293e-05
3.5224e-05
0.000175897
3.52307e-05
3.52248e-05
4.41865e-05
4.93705e-05
4.41778e-05
4.93695e-05
2.55102e-05
2.55099e-05
4.41922e-05
4.93665e-05
4.41848e-05
4.93655e-05
0.000222703
0.000222698
0.000222701
0.000222699
0.000222702
0.000222697
0.0002227
0.000103577
5.39236e-05
0.000214336
0.000199914
0.00010355
5.39398e-05
0.000214334
2.55077e-05
2.55072e-05
0.000103579
0.000214334
5.39245e-05
0.000199904
0.000103553
0.000214332
5.394e-05
3.52286e-05
3.52229e-05
0.000175894
3.52327e-05
3.5227e-05
4.41889e-05
4.93699e-05
4.41805e-05
4.93691e-05
2.55098e-05
2.55097e-05
4.41942e-05
4.93659e-05
4.41861e-05
4.93651e-05
0.000222701
0.000222695
0.000222698
0.000222698
0.0002227
0.000222697
0.000222697
0.000103575
5.39263e-05
0.000214333
0.000199912
0.000103549
5.39419e-05
0.000214332
2.55071e-05
2.55069e-05
0.000103577
0.000214332
5.39272e-05
0.000199903
0.00010355
0.00021433
5.39424e-05
3.52347e-05
3.52291e-05
0.000175892
3.52397e-05
3.52341e-05
4.41931e-05
4.93698e-05
4.41841e-05
4.93691e-05
2.55096e-05
2.55097e-05
4.41992e-05
4.93658e-05
4.41907e-05
4.9365e-05
0.000222702
0.000222698
0.0002227
0.000222699
0.000222702
0.000222694
0.000222701
0.000103577
5.39281e-05
0.000214333
0.00019991
0.00010355
5.3944e-05
0.000214335
2.55071e-05
2.5507e-05
0.00010358
0.00021433
5.39292e-05
0.000199902
0.000103552
0.000214331
5.39445e-05
3.52408e-05
3.52353e-05
0.00017589
3.52446e-05
3.5239e-05
4.4192e-05
4.93699e-05
4.41865e-05
4.93696e-05
2.55101e-05
2.55102e-05
4.41986e-05
4.93659e-05
4.41936e-05
4.93656e-05
0.000222701
0.000222694
0.000222701
0.000222695
0.000222695
0.000222692
0.000222695
0.000103575
5.39291e-05
0.000214335
0.000199907
0.000103553
5.39407e-05
0.000214334
2.55074e-05
2.55075e-05
0.000103578
0.00021433
5.39313e-05
0.000199899
0.000103555
0.00021433
5.3944e-05
3.52433e-05
3.52379e-05
0.000175888
3.52444e-05
3.52389e-05
4.41727e-05
4.93718e-05
4.41729e-05
4.93718e-05
2.55101e-05
2.551e-05
4.41788e-05
4.93678e-05
4.41798e-05
4.93678e-05
0.000222684
0.000222687
0.000222688
0.00022267
0.00022267
0.000222667
0.000222669
0.000103532
5.39134e-05
0.000214316
0.00019987
0.000103531
5.39199e-05
0.000214301
2.55077e-05
2.55074e-05
0.000103536
0.000214318
5.39193e-05
0.00019987
0.000103534
0.000214301
5.39253e-05
3.52377e-05
3.52321e-05
0.000175841
3.52368e-05
3.52312e-05
4.41614e-05
4.93731e-05
4.41563e-05
4.93722e-05
2.55098e-05
2.55095e-05
4.41679e-05
4.93688e-05
4.41632e-05
4.9368e-05
0.000222673
0.00022267
0.000222672
0.000222678
0.000222679
0.000222676
0.000222678
0.000103505
5.38952e-05
0.000214293
0.000199861
0.000103479
5.39083e-05
0.000214297
2.55074e-05
2.55072e-05
0.000103512
0.000214291
5.38998e-05
0.000199853
0.000103481
0.000214294
5.39117e-05
3.52282e-05
3.52225e-05
0.000175829
3.52286e-05
3.52229e-05
4.41598e-05
4.93726e-05
4.41526e-05
4.93716e-05
2.55098e-05
2.55099e-05
4.41666e-05
4.93687e-05
4.416e-05
4.93679e-05
0.00022268
0.000222677
0.000222679
0.000222679
0.000222679
0.000222676
0.000222678
0.000103509
5.38924e-05
0.000214298
0.000199862
0.000103482
5.39074e-05
0.000214298
2.55073e-05
2.55072e-05
0.000103512
0.000214297
5.3896e-05
0.000199855
0.000103487
0.000214297
5.39101e-05
3.52252e-05
3.52196e-05
0.000175823
3.52275e-05
3.52219e-05
4.41598e-05
4.93723e-05
4.41524e-05
4.93713e-05
2.55101e-05
2.55101e-05
4.41666e-05
4.93689e-05
4.41598e-05
4.93684e-05
0.00022268
0.000222676
0.000222678
0.000222679
0.000222679
0.000222676
0.000222678
0.000103509
5.38923e-05
0.000214299
0.000199863
0.000103483
5.39073e-05
0.0002143
2.55073e-05
2.55072e-05
0.000103512
0.000214297
5.38956e-05
0.000199856
0.000103485
0.000214297
5.391e-05
3.52251e-05
3.52195e-05
0.000175823
3.52275e-05
3.52218e-05
4.41597e-05
4.93718e-05
4.41523e-05
4.93709e-05
2.55102e-05
2.55102e-05
4.41666e-05
4.93693e-05
4.41599e-05
4.93687e-05
0.00022268
0.000222676
0.000222679
0.000222679
0.000222679
0.000222676
0.000222678
0.000103507
5.38923e-05
0.000214299
0.000199863
0.000103483
5.39073e-05
0.000214299
2.55073e-05
2.55072e-05
0.00010351
0.000214297
5.38956e-05
0.000199856
0.000103486
0.000214297
5.391e-05
3.52251e-05
3.52195e-05
0.000175824
3.52275e-05
3.52218e-05
4.41597e-05
4.93715e-05
4.41523e-05
4.93707e-05
2.55103e-05
2.55102e-05
4.41666e-05
4.93695e-05
4.41598e-05
4.93689e-05
0.00022268
0.000222677
0.000222679
0.000222679
0.00022268
0.000222676
0.000222678
0.000103509
5.38923e-05
0.000214299
0.000199863
0.000103481
5.39073e-05
0.0002143
2.55073e-05
2.55072e-05
0.000103513
0.000214297
5.38956e-05
0.000199856
0.000103485
0.000214297
5.391e-05
3.52251e-05
3.52195e-05
0.000175826
3.52275e-05
3.52218e-05
4.41598e-05
4.93713e-05
4.41523e-05
4.93705e-05
2.55103e-05
2.55102e-05
4.41666e-05
4.93697e-05
4.41599e-05
4.9369e-05
0.00022268
0.000222677
0.000222679
0.000222679
0.00022268
0.000222676
0.000222678
0.000103508
5.38923e-05
0.000214299
0.000199863
0.000103483
5.39073e-05
0.0002143
2.55073e-05
2.55072e-05
0.000103512
0.000214297
5.38956e-05
0.000199856
0.000103486
0.000214297
5.391e-05
3.52251e-05
3.52195e-05
0.000175825
3.52275e-05
3.52219e-05
4.41598e-05
4.93713e-05
4.41524e-05
4.93705e-05
2.55103e-05
2.55102e-05
4.41667e-05
4.93697e-05
4.41599e-05
4.9369e-05
0.00022268
0.000222677
0.000222678
0.000222679
0.00022268
0.000222676
0.000222678
0.000103509
5.38923e-05
0.000214299
0.000199863
0.000103482
5.39073e-05
0.000214299
2.55073e-05
2.55072e-05
0.000103513
0.000214297
5.38956e-05
0.000199856
0.000103485
0.000214297
5.391e-05
3.52251e-05
3.52195e-05
0.000175824
3.52275e-05
3.52219e-05
4.41598e-05
4.93712e-05
4.41524e-05
4.93704e-05
2.55103e-05
2.55102e-05
4.41667e-05
4.93697e-05
4.41599e-05
4.9369e-05
0.00022268
0.000222677
0.000222678
0.000222679
0.00022268
0.000222676
0.000222678
0.000103509
5.38923e-05
0.000214299
0.000199863
0.000103483
5.39073e-05
0.000214299
2.55073e-05
2.55072e-05
0.000103513
0.000214297
5.38956e-05
0.000199856
0.000103487
0.000214297
5.391e-05
3.52251e-05
3.52195e-05
0.000175824
3.52275e-05
3.52219e-05
4.41598e-05
4.93712e-05
4.41524e-05
4.93704e-05
2.55103e-05
2.55102e-05
4.41667e-05
4.93698e-05
4.41599e-05
4.9369e-05
0.00022268
0.000222677
0.000222678
0.000222679
0.000222679
0.000222676
0.000222678
0.000103507
5.38923e-05
0.000214299
0.000199863
0.000103483
5.39073e-05
0.000214299
2.55073e-05
2.55072e-05
0.000103511
0.000214297
5.38956e-05
0.000199856
0.000103486
0.000214297
5.391e-05
3.52251e-05
3.52195e-05
0.000175824
3.52275e-05
3.52218e-05
4.41598e-05
4.93712e-05
4.41524e-05
4.93704e-05
2.55103e-05
2.55102e-05
4.41667e-05
4.93698e-05
4.41599e-05
4.9369e-05
0.00022268
0.000222677
0.000222678
0.000222679
0.000222679
0.000222676
0.000222678
0.000103509
5.38923e-05
0.000214299
0.000199863
0.000103481
5.39073e-05
0.000214299
2.55073e-05
2.55072e-05
0.000103512
0.000214297
5.38956e-05
0.000199856
0.000103485
0.000214297
5.391e-05
3.52251e-05
3.52195e-05
0.000175824
3.52275e-05
3.52218e-05
4.41598e-05
4.93712e-05
4.41524e-05
4.93704e-05
2.55103e-05
2.55102e-05
4.41667e-05
4.93698e-05
4.41599e-05
4.9369e-05
0.00022268
0.000222677
0.000222678
0.000222679
0.000222679
0.000222676
0.000222678
0.000103507
5.38923e-05
0.000214299
0.000199863
0.000103483
5.39073e-05
0.0002143
2.55073e-05
2.55072e-05
0.000103513
0.000214297
5.38956e-05
0.000199856
0.000103486
0.000214297
5.391e-05
3.52251e-05
3.52195e-05
0.000175824
3.52275e-05
3.52219e-05
4.41601e-05
4.93712e-05
4.41524e-05
4.93708e-05
2.55103e-05
2.55103e-05
4.4167e-05
4.93698e-05
4.41599e-05
4.93695e-05
0.00022268
0.000222676
0.000222678
0.000103509
5.38923e-05
0.000214299
0.000199863
0.000103481
5.39073e-05
0.0002143
2.55073e-05
2.55072e-05
0.000103513
0.000214297
5.38956e-05
0.000199857
0.000103485
0.000214297
5.39106e-05
3.52251e-05
3.52195e-05
0.000175827
3.52275e-05
3.52244e-05
4.93707e-05
5.39378e-05
2.55115e-05
3.52266e-05
3.52202e-05
2.5512e-05
5.39347e-05
4.93692e-05
2.55131e-05
2.55123e-05
2.55107e-05
2.55099e-05
3.52318e-05
3.52246e-05
0.000175901
3.5232e-05
3.52255e-05
2.55117e-05
2.55123e-05
2.55092e-05
2.55099e-05
0.000175737
3.5232e-05
3.52254e-05
3.52294e-05
3.5223e-05
4.41833e-05
4.93712e-05
4.41752e-05
4.93699e-05
0.000103576
5.39255e-05
0.000214336
0.000199898
0.000103551
5.39403e-05
0.000214336
0.000103577
5.39248e-05
0.000214335
0.000199894
0.000103553
5.39395e-05
0.000214335
4.41767e-05
4.93698e-05
4.93709e-05
4.41847e-05
4.41774e-05
4.93694e-05
4.93704e-05
4.41854e-05
0.000103551
0.000199898
5.39418e-05
0.000214335
5.39273e-05
0.000214336
0.000103576
0.000103553
0.000199894
5.3941e-05
0.000214335
5.39264e-05
0.000214336
0.000103578
3.5224e-05
3.52181e-05
0.0001759
3.52268e-05
3.52229e-05
2.5512e-05
2.55112e-05
2.55102e-05
2.55107e-05
0.000175736
3.52285e-05
3.5226e-05
3.52249e-05
3.5221e-05
2.55107e-05
2.55113e-05
0.000103578
5.39161e-05
0.000214335
0.00019991
0.000103554
5.39311e-05
0.000214335
4.4188e-05
4.93652e-05
4.41806e-05
4.93634e-05
0.000103577
0.000214331
5.39098e-05
0.000199887
0.000103552
0.000214331
5.39251e-05
4.4184e-05
4.93658e-05
4.93669e-05
4.41912e-05
0.000103554
0.00019991
5.39324e-05
0.000214335
5.39175e-05
0.000214335
0.000103579
4.41828e-05
4.93628e-05
4.93639e-05
4.419e-05
0.000103553
0.000199887
0.000214331
5.39267e-05
0.000214331
5.39116e-05
0.000103577
4.41825e-05
4.93697e-05
4.41745e-05
4.93684e-05
0.000103575
0.000214335
5.39224e-05
0.000199897
0.000103551
0.000214335
5.3937e-05
4.41821e-05
4.93687e-05
4.41741e-05
4.9367e-05
0.000103554
0.000199915
5.39382e-05
0.000214336
5.39231e-05
0.000214337
0.000103576
4.41766e-05
4.93679e-05
4.9369e-05
4.41846e-05
0.000103551
0.000199897
0.000214335
5.39385e-05
0.000214335
5.3924e-05
0.000103575
4.41762e-05
4.93664e-05
4.93675e-05
4.41842e-05
3.52117e-05
3.52298e-05
0.000175892
3.52146e-05
3.52306e-05
2.55117e-05
2.55109e-05
2.55076e-05
2.55083e-05
0.000175729
3.52166e-05
3.52304e-05
3.52122e-05
3.52279e-05
2.55102e-05
2.55108e-05
0.000103581
0.000214335
5.39199e-05
0.000199912
0.000103556
0.000214335
5.39346e-05
4.41887e-05
4.93685e-05
4.41813e-05
4.93668e-05
4.4189e-05
4.93684e-05
4.41816e-05
4.93668e-05
0.000103558
0.000199907
0.000214334
5.39386e-05
0.000214335
5.39243e-05
0.00010358
0.000103557
0.000199912
0.000214335
5.39361e-05
0.000214336
5.39215e-05
0.000103582
4.41835e-05
4.93662e-05
4.93672e-05
4.41907e-05
4.41838e-05
4.93661e-05
4.93672e-05
4.4191e-05
2.55115e-05
2.55107e-05
2.55105e-05
2.55097e-05
0.000175733
3.52307e-05
3.52248e-05
3.52281e-05
3.52223e-05
2.551e-05
2.55106e-05
2.5509e-05
2.55096e-05
2.55117e-05
2.55113e-05
2.55093e-05
2.55089e-05
3.523e-05
3.52237e-05
0.000175898
3.52341e-05
3.52278e-05
2.55111e-05
2.55114e-05
2.55087e-05
2.55089e-05
0.000175734
3.52376e-05
3.52316e-05
3.52326e-05
3.52265e-05
4.41872e-05
4.937e-05
4.41795e-05
4.93691e-05
0.000103578
5.39288e-05
0.000214334
0.000199897
0.000103553
5.39433e-05
0.000214334
0.000103579
5.39278e-05
0.000214333
0.000199894
0.000103554
5.39423e-05
0.000214333
4.41804e-05
4.93693e-05
4.93701e-05
4.41876e-05
4.41811e-05
4.93689e-05
4.93697e-05
4.41883e-05
0.000103553
0.000199897
5.3945e-05
0.000214334
5.39303e-05
0.000214335
0.000103578
0.000103554
0.000199894
5.39435e-05
0.000214332
5.39292e-05
0.000214332
0.000103579
3.52268e-05
3.5224e-05
0.000175899
3.52309e-05
3.52289e-05
2.55108e-05
2.55104e-05
2.55097e-05
2.551e-05
0.000175735
3.52343e-05
3.52316e-05
3.52295e-05
3.52268e-05
2.55102e-05
2.55105e-05
0.000103581
5.39189e-05
0.000214334
0.00019991
0.000103556
5.39338e-05
0.000214334
4.4191e-05
4.93634e-05
4.41846e-05
4.93625e-05
0.00010358
0.000214329
5.39132e-05
0.000199886
0.000103554
0.000214328
5.39281e-05
4.41866e-05
4.93652e-05
4.93661e-05
4.41927e-05
0.000103558
0.00019991
5.39352e-05
0.000214334
5.39203e-05
0.000214334
0.00010358
4.41854e-05
4.93622e-05
4.93631e-05
4.41916e-05
0.000103556
0.000199886
0.000214328
5.39295e-05
0.000214328
5.39145e-05
0.000103578
4.41862e-05
4.93685e-05
4.41786e-05
4.93676e-05
0.000103578
0.000214332
5.39255e-05
0.000199896
0.000103552
0.000214332
5.39399e-05
4.41859e-05
4.9367e-05
4.41783e-05
4.9366e-05
0.000103553
0.000199914
5.3941e-05
0.000214333
5.39263e-05
0.000214334
0.000103575
4.41801e-05
4.93674e-05
4.93683e-05
4.41872e-05
0.000103555
0.000199896
0.000214331
5.39413e-05
0.000214331
5.39269e-05
0.000103577
4.41797e-05
4.93658e-05
4.93666e-05
4.41867e-05
3.52143e-05
3.52285e-05
0.000175889
3.52182e-05
3.52326e-05
2.55102e-05
2.55098e-05
2.5507e-05
2.55074e-05
0.000175726
3.5221e-05
3.52362e-05
3.5216e-05
3.52311e-05
2.55096e-05
2.55099e-05
0.000103584
0.000214333
5.39229e-05
0.000199911
0.000103558
0.000214333
5.39375e-05
4.41915e-05
4.93667e-05
4.41852e-05
4.93658e-05
4.4192e-05
4.93667e-05
4.41856e-05
4.93658e-05
0.000103555
0.000199904
0.000214332
5.39413e-05
0.000214332
5.39271e-05
0.000103577
0.00010356
0.00019991
0.000214332
5.39389e-05
0.000214332
5.39244e-05
0.000103582
4.41858e-05
4.93655e-05
4.93664e-05
4.41919e-05
4.41863e-05
4.93655e-05
4.93663e-05
4.41924e-05
2.55101e-05
2.55097e-05
2.5509e-05
2.55086e-05
0.00017573
3.52361e-05
3.52305e-05
3.52312e-05
3.52255e-05
2.55094e-05
2.55098e-05
2.55084e-05
2.55087e-05
2.55112e-05
2.5511e-05
2.55088e-05
2.55086e-05
3.52363e-05
3.52305e-05
0.000175896
3.52413e-05
3.52354e-05
2.5511e-05
2.55112e-05
2.55086e-05
2.55087e-05
0.000175732
3.52442e-05
3.52384e-05
3.52398e-05
3.52341e-05
4.41897e-05
4.93695e-05
4.41822e-05
4.93688e-05
0.000103579
5.39318e-05
0.000214332
0.000199895
0.000103554
5.39463e-05
0.000214332
0.00010358
5.39304e-05
0.000214333
0.000199895
0.000103556
5.39446e-05
0.000214333
4.4183e-05
4.9369e-05
4.93697e-05
4.4191e-05
4.41838e-05
4.93688e-05
4.93695e-05
4.41918e-05
0.000103555
0.000199894
5.39474e-05
0.000214333
5.3933e-05
0.000214333
0.00010358
0.000103556
0.000199895
5.39455e-05
0.000214334
5.39313e-05
0.000214334
0.000103581
3.52329e-05
3.52296e-05
0.000175898
3.52375e-05
3.52341e-05
2.55104e-05
2.55102e-05
2.55095e-05
2.55099e-05
0.000175734
3.52397e-05
3.52363e-05
3.52358e-05
3.52321e-05
2.55102e-05
2.55104e-05
0.00010358
5.39217e-05
0.000214333
0.000199908
0.000103555
5.39365e-05
0.000214333
4.41931e-05
4.93629e-05
4.41861e-05
4.93621e-05
0.000103578
0.000214326
5.39159e-05
0.000199884
0.000103554
0.000214325
5.39309e-05
4.41891e-05
4.9365e-05
4.93657e-05
4.41968e-05
0.000103556
0.000199907
5.39376e-05
0.00021433
5.39229e-05
0.000214332
0.000103581
4.4188e-05
4.9362e-05
4.93628e-05
4.41957e-05
0.000103554
0.000199884
0.000214325
5.39319e-05
0.000214325
5.39172e-05
0.00010358
4.41884e-05
4.93681e-05
4.41811e-05
4.93673e-05
0.000103576
0.00021433
5.39283e-05
0.000199894
0.000103552
0.00021433
5.39425e-05
4.41879e-05
4.93664e-05
4.41805e-05
4.93656e-05
0.000103552
0.000199911
5.39429e-05
0.000214332
5.39284e-05
0.000214332
0.000103576
4.41825e-05
4.93672e-05
4.9368e-05
4.41904e-05
0.000103553
0.000199893
0.000214331
5.39435e-05
0.000214331
5.39294e-05
0.000103577
4.4182e-05
4.93655e-05
4.93663e-05
4.41902e-05
3.52192e-05
3.52348e-05
0.000175887
3.52247e-05
3.52399e-05
2.55098e-05
2.55095e-05
2.55069e-05
2.55071e-05
0.000175724
3.52276e-05
3.52428e-05
3.52228e-05
3.52384e-05
2.55095e-05
2.55097e-05
0.000103582
0.00021433
5.39258e-05
0.000199908
0.000103557
0.00021433
5.39403e-05
4.41933e-05
4.93661e-05
4.41864e-05
4.93654e-05
4.41939e-05
4.93661e-05
4.41869e-05
4.93653e-05
0.000103552
0.000199903
0.00021433
5.39433e-05
0.00021433
5.39294e-05
0.000103578
0.000103557
0.000199909
0.000214331
5.39413e-05
0.000214331
5.39271e-05
0.000103583
4.41882e-05
4.93653e-05
4.9366e-05
4.41959e-05
4.41888e-05
4.93653e-05
4.9366e-05
4.41966e-05
2.55096e-05
2.55094e-05
2.55086e-05
2.55083e-05
0.000175728
3.52426e-05
3.5237e-05
3.52382e-05
3.52327e-05
2.55094e-05
2.55095e-05
2.55083e-05
2.55085e-05
2.55112e-05
2.55111e-05
2.55088e-05
2.55087e-05
3.52425e-05
3.52369e-05
0.000175894
3.52462e-05
3.52405e-05
2.55113e-05
2.55113e-05
2.55089e-05
2.55089e-05
0.00017573
3.52472e-05
3.52416e-05
3.52443e-05
3.52388e-05
4.4194e-05
4.93695e-05
4.41859e-05
4.93689e-05
0.000103583
5.39342e-05
0.000214335
0.000199895
0.000103556
5.39486e-05
0.000214335
0.000103585
5.39323e-05
0.000214336
0.000199895
0.000103558
5.39468e-05
0.000214336
4.41872e-05
4.93691e-05
4.93697e-05
4.4194e-05
4.4188e-05
4.9369e-05
4.93695e-05
4.41947e-05
0.00010356
0.000199895
5.39497e-05
0.000214335
5.39354e-05
0.000214336
0.000103583
0.000103562
0.000199896
5.39471e-05
0.000214335
5.39336e-05
0.000214336
0.000103585
3.52379e-05
3.5234e-05
0.000175897
3.52413e-05
3.52377e-05
2.55105e-05
2.55104e-05
2.55099e-05
2.55099e-05
0.000175734
3.52415e-05
3.52381e-05
3.52393e-05
3.52354e-05
2.55106e-05
2.55106e-05
0.000103584
5.3924e-05
0.00021433
0.000199906
0.000103558
5.39388e-05
0.000214329
4.41981e-05
4.93627e-05
4.41906e-05
4.9362e-05
0.000103583
0.000214326
5.39183e-05
0.000199883
0.000103557
0.000214327
5.39331e-05
4.4194e-05
4.93651e-05
4.93658e-05
4.42003e-05
0.000103562
0.000199906
5.39398e-05
0.000214331
5.39253e-05
0.00021433
0.000103584
4.41928e-05
4.93621e-05
4.93628e-05
4.41991e-05
0.00010356
0.000199884
0.00021433
5.39341e-05
0.000214329
5.39195e-05
0.000103583
4.41924e-05
4.9368e-05
4.41845e-05
4.93673e-05
0.00010358
0.000214333
5.39304e-05
0.000199893
0.000103555
0.000214334
5.39446e-05
4.41924e-05
4.93662e-05
4.41844e-05
4.93655e-05
0.000103553
0.00019991
5.39445e-05
0.000214336
5.39305e-05
0.000214336
0.000103579
4.41864e-05
4.93676e-05
4.9368e-05
4.41934e-05
0.000103557
0.000199894
0.000214336
5.39456e-05
0.000214336
5.39316e-05
0.00010358
4.41864e-05
4.93656e-05
4.93662e-05
4.41932e-05
3.52254e-05
3.52411e-05
0.000175885
3.52295e-05
3.52449e-05
2.55097e-05
2.55096e-05
2.55072e-05
2.55073e-05
0.000175722
3.52304e-05
3.52459e-05
3.5227e-05
3.52429e-05
2.55098e-05
2.55098e-05
0.000103586
0.000214332
5.39281e-05
0.000199909
0.00010356
0.000214332
5.39425e-05
4.41983e-05
4.93659e-05
4.41908e-05
4.93653e-05
4.4199e-05
4.93659e-05
4.41914e-05
4.93653e-05
0.000103556
0.000199901
0.000214329
5.39456e-05
0.00021433
5.39316e-05
0.000103582
0.000103563
0.00019991
0.000214333
5.39434e-05
0.000214333
5.39293e-05
0.000103586
4.4193e-05
4.93654e-05
4.9366e-05
4.41994e-05
4.41937e-05
4.93654e-05
4.9366e-05
4.41999e-05
2.55095e-05
2.55095e-05
2.55085e-05
2.55084e-05
0.000175727
3.52457e-05
3.52402e-05
3.52426e-05
3.52371e-05
2.55096e-05
2.55097e-05
2.55086e-05
2.55086e-05
2.55115e-05
2.55116e-05
2.55091e-05
2.55092e-05
3.5245e-05
3.52395e-05
0.00017589
3.52459e-05
3.52403e-05
2.55117e-05
2.55118e-05
2.55093e-05
2.55094e-05
0.000175725
3.52427e-05
3.52369e-05
3.52428e-05
3.52373e-05
4.41928e-05
4.93699e-05
4.41882e-05
4.93699e-05
0.000103574
5.39363e-05
0.000214334
0.000199889
0.000103555
5.39478e-05
0.000214332
0.000103575
5.39331e-05
0.000214334
0.00019989
0.000103557
5.39427e-05
0.000214332
4.41841e-05
4.93708e-05
4.93705e-05
4.41834e-05
4.41848e-05
4.93711e-05
4.93709e-05
4.41841e-05
0.000103545
0.000199887
5.39399e-05
0.000214327
5.39328e-05
0.00021433
0.000103562
0.000103545
0.000199886
5.39332e-05
0.000214326
5.39271e-05
0.00021433
0.000103562
3.52389e-05
3.52353e-05
0.00017589
3.52391e-05
3.52362e-05
2.55109e-05
2.55109e-05
2.55101e-05
2.55103e-05
0.000175722
3.52354e-05
3.52323e-05
3.52359e-05
3.52326e-05
2.55108e-05
2.55111e-05
0.000103575
5.3926e-05
0.000214332
0.000199901
0.000103556
5.3938e-05
0.000214331
4.41974e-05
4.93629e-05
4.41933e-05
4.93626e-05
0.000103574
0.000214331
5.39202e-05
0.000199879
0.000103555
0.000214331
5.39324e-05
4.41912e-05
4.93667e-05
4.93665e-05
4.41897e-05
0.000103547
0.0001999
5.393e-05
0.000214327
5.39226e-05
0.00021433
0.000103564
4.41901e-05
4.93637e-05
4.93635e-05
4.41887e-05
0.000103545
0.000199877
0.000214325
5.39245e-05
0.000214329
5.3917e-05
0.000103563
4.41919e-05
4.93685e-05
4.4187e-05
4.93685e-05
0.000103572
0.000214336
5.39323e-05
0.000199892
0.000103552
0.000214335
5.3944e-05
4.41915e-05
4.93663e-05
4.41867e-05
4.93661e-05
0.000103546
0.000199904
5.39314e-05
0.000214328
5.39248e-05
0.000214332
0.000103561
4.4184e-05
4.93697e-05
4.93695e-05
4.41834e-05
0.000103544
0.000199889
0.000214328
5.39363e-05
0.000214333
5.39292e-05
0.000103561
4.41836e-05
4.93672e-05
4.93669e-05
4.4183e-05
3.52277e-05
3.52437e-05
0.000175882
3.52291e-05
3.52447e-05
2.551e-05
2.55101e-05
2.55076e-05
2.55078e-05
0.000175717
3.52257e-05
3.52414e-05
3.52255e-05
3.52416e-05
2.55102e-05
2.55104e-05
0.000103578
0.000214333
5.393e-05
0.000199906
0.000103558
0.000214333
5.39416e-05
4.4198e-05
4.93661e-05
4.41937e-05
4.93658e-05
4.41983e-05
4.93661e-05
4.41941e-05
4.93658e-05
0.000103549
0.000199897
0.000214326
5.39365e-05
0.000214329
5.39294e-05
0.000103564
0.000103549
0.000199903
0.000214328
5.39336e-05
0.000214331
5.39265e-05
0.000103567
4.41907e-05
4.9367e-05
4.93667e-05
4.41894e-05
4.4191e-05
4.93669e-05
4.93667e-05
4.41897e-05
2.55099e-05
2.551e-05
2.55088e-05
2.55089e-05
0.000175722
3.52411e-05
3.52355e-05
3.52413e-05
3.52358e-05
2.551e-05
2.55102e-05
2.5509e-05
2.55092e-05
2.55118e-05
2.55115e-05
2.55094e-05
2.55091e-05
3.52394e-05
3.52337e-05
0.000175844
3.52384e-05
3.52326e-05
2.55114e-05
2.55116e-05
2.55089e-05
2.55092e-05
0.000175667
3.52332e-05
3.52274e-05
3.52348e-05
3.5229e-05
4.41731e-05
4.9372e-05
4.41744e-05
4.93718e-05
0.000103532
5.39237e-05
0.000214318
0.000199857
0.000103532
5.39289e-05
0.000214301
0.000103531
5.39167e-05
0.000214314
0.00019985
0.000103532
5.39212e-05
0.000214298
4.41638e-05
4.93722e-05
4.93726e-05
4.4165e-05
4.41642e-05
4.93717e-05
4.93725e-05
4.41655e-05
0.000103495
0.000199846
5.39195e-05
0.00021429
5.39126e-05
0.000214293
0.000103504
0.000103493
0.000199842
5.39123e-05
0.000214289
5.39041e-05
0.000214291
0.000103505
3.52319e-05
3.52284e-05
0.000175836
3.5229e-05
3.52268e-05
2.5511e-05
2.55107e-05
2.55097e-05
2.55101e-05
0.000175663
3.52225e-05
3.52211e-05
3.52242e-05
3.52228e-05
2.55105e-05
2.55108e-05
0.000103535
5.39134e-05
0.000214319
0.000199872
0.000103534
5.3919e-05
0.000214301
4.41777e-05
4.93647e-05
4.41797e-05
4.93648e-05
0.000103533
0.000214315
5.39078e-05
0.000199849
0.000103532
0.000214297
5.39134e-05
4.41705e-05
4.93681e-05
4.93686e-05
4.41712e-05
0.000103497
0.00019986
5.39095e-05
0.00021429
5.39022e-05
0.000214294
0.000103506
4.41695e-05
4.93651e-05
4.93657e-05
4.41701e-05
0.000103496
0.000199837
0.000214286
5.39038e-05
0.000214289
5.38966e-05
0.000103504
4.41726e-05
4.93706e-05
4.41738e-05
4.93705e-05
0.000103532
0.000214317
5.39202e-05
0.000199857
0.000103531
0.0002143
5.39251e-05
4.41722e-05
4.93682e-05
4.41734e-05
4.93683e-05
0.000103495
0.000199861
5.39114e-05
0.000214291
5.39033e-05
0.000214294
0.000103504
4.41636e-05
4.93706e-05
4.93712e-05
4.4165e-05
0.000103495
0.000199847
0.00021429
5.39156e-05
0.000214292
5.39088e-05
0.000103503
4.41633e-05
4.93686e-05
4.93691e-05
4.41646e-05
3.52219e-05
3.52381e-05
0.000175837
3.52214e-05
3.52371e-05
2.55103e-05
2.551e-05
2.55073e-05
2.55076e-05
0.00017566
3.5216e-05
3.52317e-05
3.52173e-05
3.52333e-05
2.55099e-05
2.55101e-05
0.000103538
0.000214319
5.39174e-05
0.000199872
0.000103536
0.000214302
5.39226e-05
4.41784e-05
4.93679e-05
4.41804e-05
4.93681e-05
4.41787e-05
4.93679e-05
4.41806e-05
4.93681e-05
0.000103499
0.000199858
0.00021429
5.39157e-05
0.000214293
5.39092e-05
0.000103507
0.0001035
0.000199861
0.000214291
5.39131e-05
0.000214294
5.39062e-05
0.000103509
4.41701e-05
4.93684e-05
4.93689e-05
4.41709e-05
4.41704e-05
4.93684e-05
4.93689e-05
4.41711e-05
2.55101e-05
2.55098e-05
2.55091e-05
2.55088e-05
0.000175664
3.52316e-05
3.52259e-05
3.52331e-05
3.52275e-05
2.55097e-05
2.551e-05
2.55087e-05
2.55089e-05
2.55115e-05
2.5511e-05
2.5509e-05
2.55089e-05
3.52297e-05
3.52242e-05
0.00017583
3.52296e-05
3.52245e-05
2.5511e-05
2.55112e-05
2.55089e-05
2.5509e-05
0.000175668
3.52287e-05
3.52235e-05
3.52269e-05