/*--------------------------------*- C++ -*----------------------------------*\
| =========                 |                                                 |
| \\      /  F ield         | OpenFOAM: The Open Source CFD Toolbox           |
|  \\    /   O peration     | Version:  2206                                  |
|   \\  /    A nd           | Website:  www.openfoam.com                      |
|    \\/     M anipulation  |                                                 |
\*---------------------------------------------------------------------------*/
FoamFile
{
    version     2.0;
    format      ascii;
    arch        "LSB;label=32;scalar=64";
    class       volVectorField;
    location    "24.5";
    object      U;
}
// * * * * * * * * * * * * * * * * * * * * * * * * * * * * * * * * * * * * * //

dimensions      [0 1 -1 0 0 0 0];

internalField   nonuniform List<vector> 
28687
(
(-6.74643e-07 -6.73998e-07 0.102791)
(-4.65138e-07 6.9356e-07 0.102742)
(6.92605e-07 -4.58648e-07 0.102742)
(-4.2956e-05 -4.29728e-05 0.102672)
(-6.80488e-07 -6.81205e-07 0.102791)
(-4.50993e-07 6.82848e-07 0.102742)
(6.86685e-07 -4.47128e-07 0.102742)
(-4.29479e-05 -4.29646e-05 0.102672)
(-6.91143e-07 -6.88393e-07 0.102791)
(-4.29696e-07 6.81529e-07 0.102742)
(6.84447e-07 -4.36925e-07 0.102742)
(-4.29354e-05 -4.29521e-05 0.102672)
(-7.03036e-07 -6.93101e-07 0.102791)
(-4.35129e-07 6.97998e-07 0.102742)
(6.90247e-07 -4.41035e-07 0.102742)
(-4.291e-05 -4.29233e-05 0.102672)
(-7.20015e-07 -6.87213e-07 0.102791)
(-4.59734e-07 7.59916e-07 0.102742)
(6.67735e-07 -4.06797e-07 0.102742)
(-4.2875e-05 -4.2879e-05 0.102671)
(-5.95378e-07 -5.96695e-07 0.102791)
(-5.31812e-07 6.91847e-07 0.102742)
(7.34519e-07 -5.54849e-07 0.102742)
(-4.31105e-05 -4.31283e-05 0.102672)
(-6.82852e-07 -6.71949e-07 0.102791)
(-4.46599e-07 6.98357e-07 0.102742)
(6.73661e-07 -4.44738e-07 0.102742)
(-4.29543e-05 -4.29724e-05 0.102672)
(-6.71732e-07 -6.66443e-07 0.102791)
(-4.49977e-07 6.82894e-07 0.102742)
(6.88081e-07 -4.5004e-07 0.102742)
(-4.29705e-05 -4.29838e-05 0.102672)
(-6.65355e-07 -6.67172e-07 0.102791)
(-4.57963e-07 6.96166e-07 0.102742)
(6.90448e-07 -4.54352e-07 0.102742)
(-4.29717e-05 -4.29874e-05 0.102672)
(-6.74563e-07 -6.73195e-07 0.102791)
(-4.54813e-07 6.90987e-07 0.102742)
(6.89506e-07 -4.54658e-07 0.102742)
(-4.29713e-05 -4.29872e-05 0.102672)
(-6.76191e-07 -6.73269e-07 0.102791)
(-4.52661e-07 6.89731e-07 0.102742)
(6.88695e-07 -4.54818e-07 0.102742)
(-4.29704e-05 -4.29871e-05 0.102672)
(-6.77153e-07 -6.73141e-07 0.102791)
(-4.52354e-07 6.89967e-07 0.102742)
(6.88599e-07 -4.55084e-07 0.102742)
(-4.29708e-05 -4.29874e-05 0.102672)
(-6.781e-07 -6.73571e-07 0.102791)
(-4.521e-07 6.89677e-07 0.102742)
(6.88177e-07 -4.54956e-07 0.102742)
(-4.29712e-05 -4.29875e-05 0.102672)
(-6.77879e-07 -6.72917e-07 0.102791)
(-4.52977e-07 6.90327e-07 0.102742)
(6.88969e-07 -4.55731e-07 0.102742)
(-4.29716e-05 -4.29874e-05 0.102672)
(-6.77123e-07 -6.72346e-07 0.102791)
(-4.52614e-07 6.90105e-07 0.102742)
(6.89428e-07 -4.56134e-07 0.102742)
(-4.29724e-05 -4.29888e-05 0.102672)
(-6.76971e-07 -6.7164e-07 0.102791)
(-4.53461e-07 6.90825e-07 0.102742)
(6.89673e-07 -4.56458e-07 0.102742)
(-4.2972e-05 -4.29881e-05 0.102672)
(-6.76958e-07 -6.7149e-07 0.102791)
(-4.52376e-07 6.90229e-07 0.102742)
(6.88967e-07 -4.56016e-07 0.102742)
(-4.29699e-05 -4.29857e-05 0.102672)
(-6.77079e-07 -6.71591e-07 0.102791)
(-4.5114e-07 6.89706e-07 0.102742)
(6.88857e-07 -4.54769e-07 0.102742)
(-4.29618e-05 -4.29778e-05 0.102672)
(-7.17633e-07 4.86836e-07 0.102742)
(4.48713e-05 -4.48435e-05 0.102675)
(-4.60714e-07 6.93613e-07 0.102742)
(4.29618e-05 4.2942e-05 0.102672)
(-4.48717e-05 -4.48495e-05 0.102675)
(7.16074e-07 4.74909e-07 0.102742)
(-7.18094e-07 4.92047e-07 0.102742)
(7.10694e-07 4.61566e-07 0.102742)
(-7.08035e-07 4.78688e-07 0.102742)
(-4.29676e-05 4.29392e-05 0.102672)
(4.48752e-05 -4.4853e-05 0.102675)
(4.59997e-07 6.98162e-07 0.102742)
(4.77688e-07 -7.15437e-07 0.102742)
(4.48549e-07 6.89728e-07 0.102742)
(4.69829e-07 -7.10072e-07 0.102742)
(-4.78415e-07 -7.11783e-07 0.102742)
(-4.53803e-07 6.85044e-07 0.102742)
(-4.69348e-07 -7.05619e-07 0.102742)
(4.29457e-05 -4.29777e-05 0.102672)
(-4.48439e-05 4.488e-05 0.102675)
(-6.8991e-07 -4.57948e-07 0.102742)
(6.86629e-07 -4.46495e-07 0.102742)
(-6.83176e-07 -4.49511e-07 0.102742)
(4.48498e-05 4.48678e-05 0.102675)
(4.29536e-05 4.29372e-05 0.102672)
(-4.48808e-05 -4.48613e-05 0.102675)
(7.11813e-07 4.64175e-07 0.102742)
(-7.06309e-07 4.72861e-07 0.102742)
(7.03616e-07 4.51189e-07 0.102742)
(-7.08015e-07 4.63667e-07 0.102742)
(-4.29578e-05 4.2925e-05 0.102672)
(4.48962e-05 -4.48643e-05 0.102675)
(4.49872e-07 6.9434e-07 0.102742)
(4.66516e-07 -7.09335e-07 0.102742)
(4.35241e-07 6.86333e-07 0.102742)
(4.55502e-07 -7.03903e-07 0.102742)
(-4.67161e-07 -7.05777e-07 0.102742)
(-4.35383e-07 6.85384e-07 0.102742)
(-4.54671e-07 -6.98514e-07 0.102742)
(4.29379e-05 -4.29691e-05 0.102672)
(-4.48576e-05 4.48922e-05 0.102675)
(-6.83894e-07 -4.47359e-07 0.102742)
(6.80029e-07 -4.33077e-07 0.102742)
(-6.77231e-07 -4.33069e-07 0.102742)
(4.4864e-05 4.48822e-05 0.102675)
(4.29438e-05 4.29286e-05 0.102672)
(-4.49181e-05 -4.48955e-05 0.102675)
(7.05158e-07 4.55856e-07 0.102742)
(-7.03277e-07 4.4982e-07 0.102742)
(6.82392e-07 4.31815e-07 0.102742)
(-7.21296e-07 4.72764e-07 0.102742)
(-4.29391e-05 4.29161e-05 0.102672)
(4.4919e-05 -4.48778e-05 0.102675)
(4.39818e-07 6.89661e-07 0.102742)
(4.5687e-07 -7.07346e-07 0.102742)
(4.10127e-07 6.70739e-07 0.102742)
(4.32057e-07 -6.85513e-07 0.102742)
(-4.55324e-07 -7.02576e-07 0.102742)
(-4.26005e-07 6.97289e-07 0.102742)
(-4.32542e-07 -6.80524e-07 0.102742)
(4.29267e-05 -4.29582e-05 0.102672)
(-4.48939e-05 4.49294e-05 0.102675)
(-6.81575e-07 -4.34538e-07 0.102742)
(6.62349e-07 -4.08708e-07 0.102742)
(-6.62058e-07 -4.06651e-07 0.102742)
(4.48975e-05 4.49184e-05 0.102675)
(4.29142e-05 4.29026e-05 0.102672)
(-4.49884e-05 -4.49547e-05 0.102675)
(7.06442e-07 4.62323e-07 0.102742)
(-7.18669e-07 4.58032e-07 0.102742)
(6.29545e-07 3.77862e-07 0.102742)
(-6.87692e-07 4.26235e-07 0.102742)
(-4.2934e-05 4.29204e-05 0.102672)
(4.49671e-05 -4.4942e-05 0.102675)
(4.43136e-07 6.99128e-07 0.102742)
(4.60257e-07 -7.12634e-07 0.102742)
(3.44913e-07 6.29696e-07 0.102742)
(3.7076e-07 -6.38161e-07 0.102742)
(-4.61368e-07 -7.06647e-07 0.102742)
(-3.77066e-07 6.68408e-07 0.102742)
(-3.76838e-07 -6.28362e-07 0.102742)
(4.28981e-05 -4.29295e-05 0.102672)
(-4.49593e-05 4.49952e-05 0.102675)
(-6.90418e-07 -4.35807e-07 0.102742)
(6.15366e-07 -3.47431e-07 0.102742)
(-6.20964e-07 -3.42401e-07 0.102742)
(4.49586e-05 4.49871e-05 0.102675)
(4.28675e-05 4.28685e-05 0.102671)
(-4.47294e-05 -4.47063e-05 0.102675)
(6.72573e-07 4.44918e-07 0.102742)
(-7.73581e-07 5.13918e-07 0.102742)
(7.9304e-07 6.05834e-07 0.102742)
(-7.62011e-07 5.77578e-07 0.102742)
(-4.29388e-05 4.29221e-05 0.102671)
(4.47805e-05 -4.47688e-05 0.102675)
(4.03669e-07 6.83478e-07 0.102742)
(4.27294e-07 -6.89805e-07 0.102742)
(5.90559e-07 7.79141e-07 0.102742)
(6.11985e-07 -7.93302e-07 0.102742)
(-4.36902e-07 -6.74778e-07 0.102742)
(-5.71244e-07 7.37703e-07 0.102742)
(-6.0995e-07 -7.87518e-07 0.102742)
(4.2859e-05 -4.28892e-05 0.102671)
(-4.47049e-05 4.47418e-05 0.102675)
(-6.74034e-07 -3.97732e-07 0.102742)
(7.71467e-07 -5.87819e-07 0.102742)
(-7.70382e-07 -5.85859e-07 0.102742)
(4.471e-05 4.47314e-05 0.102675)
(4.31212e-05 4.31021e-05 0.102672)
(-4.49012e-05 -4.4871e-05 0.102675)
(7.59513e-07 5.72122e-07 0.102742)
(-7.18418e-07 5.38996e-07 0.102742)
(6.98842e-07 4.74259e-07 0.102742)
(-7.02223e-07 4.84707e-07 0.102742)
(-4.30642e-05 4.30219e-05 0.102672)
(4.49078e-05 -4.48607e-05 0.102675)
(5.6015e-07 7.39937e-07 0.102742)
(5.77355e-07 -7.55989e-07 0.102742)
(4.52849e-07 6.83099e-07 0.102742)
(4.7101e-07 -6.90698e-07 0.102742)
(-5.71288e-07 -7.5534e-07 0.102742)
(-4.4809e-07 6.87665e-07 0.102742)
(-4.67695e-07 -6.91973e-07 0.102742)
(4.31028e-05 -4.3133e-05 0.102672)
(-4.48798e-05 4.49169e-05 0.102675)
(-7.30583e-07 -5.52545e-07 0.102742)
(6.70922e-07 -4.47577e-07 0.102742)
(-6.67245e-07 -4.47885e-07 0.102742)
(4.48865e-05 4.49019e-05 0.102675)
(4.29665e-05 4.29615e-05 0.102672)
(-4.48937e-05 -4.48561e-05 0.102675)
(7.00839e-07 4.81017e-07 0.102742)
(-7.09841e-07 4.88689e-07 0.102742)
(7.09558e-07 4.72888e-07 0.102742)
(-7.08248e-07 4.81281e-07 0.102742)
(-4.29685e-05 4.29655e-05 0.102672)
(4.49008e-05 -4.48631e-05 0.102675)
(4.49997e-07 6.90145e-07 0.102742)
(4.65228e-07 -6.92624e-07 0.102742)
(4.50964e-07 6.98567e-07 0.102742)
(4.70504e-07 -7.03893e-07 0.102742)
(-4.652e-07 -6.92499e-07 0.102742)
(-4.49357e-07 6.92556e-07 0.102742)
(-4.75434e-07 -7.01045e-07 0.102742)
(4.29447e-05 -4.29753e-05 0.102672)
(-4.48658e-05 4.49041e-05 0.102675)
(-6.70669e-07 -4.43871e-07 0.102742)
(6.84989e-07 -4.45127e-07 0.102742)
(-6.81327e-07 -4.52885e-07 0.102742)
(4.48696e-05 4.48916e-05 0.102675)
(4.29794e-05 4.29689e-05 0.102672)
(-4.48949e-05 -4.48561e-05 0.102675)
(7.11706e-07 4.7454e-07 0.102742)
(-6.99182e-07 4.72465e-07 0.102742)
(7.16589e-07 4.86926e-07 0.102742)
(-7.14347e-07 4.84251e-07 0.102742)
(-4.29628e-05 4.29454e-05 0.102672)
(4.48865e-05 -4.48645e-05 0.102675)
(4.57134e-07 6.9761e-07 0.102742)
(4.72465e-07 -7.06711e-07 0.102742)
(4.60378e-07 6.93754e-07 0.102742)
(4.75079e-07 -7.09595e-07 0.102742)
(-4.77843e-07 -7.0411e-07 0.102742)
(-4.56938e-07 6.94663e-07 0.102742)
(-4.73205e-07 -7.06972e-07 0.102742)
(4.29596e-05 -4.29885e-05 0.102672)
(-4.48619e-05 4.48992e-05 0.102675)
(-6.83984e-07 -4.56427e-07 0.102742)
(6.89686e-07 -4.50522e-07 0.102742)
(-6.85586e-07 -4.5196e-07 0.102742)
(4.48677e-05 4.48869e-05 0.102675)
(4.29789e-05 4.29658e-05 0.102672)
(-4.48924e-05 -4.48583e-05 0.102675)
(7.18244e-07 4.84437e-07 0.102742)
(-7.13413e-07 4.77639e-07 0.102742)
(7.1075e-07 4.73568e-07 0.102742)
(-7.12131e-07 4.77249e-07 0.102742)
(-4.29812e-05 4.29539e-05 0.102672)
(4.48981e-05 -4.4866e-05 0.102675)
(4.63168e-07 6.94746e-07 0.102742)
(4.75392e-07 -7.10283e-07 0.102742)
(4.55922e-07 6.93821e-07 0.102742)
(4.74573e-07 -7.10681e-07 0.102742)
(-4.73622e-07 -7.07711e-07 0.102742)
(-4.53101e-07 6.90532e-07 0.102742)
(-4.73373e-07 -7.06694e-07 0.102742)
(4.29621e-05 -4.2992e-05 0.102672)
(-4.4862e-05 4.48983e-05 0.102675)
(-6.87072e-07 -4.52232e-07 0.102742)
(6.88969e-07 -4.51623e-07 0.102742)
(-6.86233e-07 -4.51536e-07 0.102742)
(4.48675e-05 4.48868e-05 0.102675)
(4.29823e-05 4.29594e-05 0.102672)
(-4.48929e-05 -4.48614e-05 0.102675)
(7.10916e-07 4.71204e-07 0.102742)
(-7.14624e-07 4.77572e-07 0.102742)
(7.11286e-07 4.72255e-07 0.102742)
(-7.14929e-07 4.76622e-07 0.102742)
(-4.29718e-05 4.29547e-05 0.102672)
(4.48938e-05 -4.48672e-05 0.102675)
(4.57557e-07 6.93485e-07 0.102742)
(4.74295e-07 -7.11282e-07 0.102742)
(4.53461e-07 6.91404e-07 0.102742)
(4.73604e-07 -7.10679e-07 0.102742)
(-4.73488e-07 -7.07663e-07 0.102742)
(-4.51707e-07 6.90049e-07 0.102742)
(-4.72417e-07 -7.0723e-07 0.102742)
(4.29616e-05 -4.29925e-05 0.102672)
(-4.48627e-05 4.48985e-05 0.102675)
(-6.87279e-07 -4.5164e-07 0.102742)
(6.8794e-07 -4.51473e-07 0.102742)
(-6.86263e-07 -4.50212e-07 0.102742)
(4.48686e-05 4.48867e-05 0.102675)
(4.29823e-05 4.29575e-05 0.102672)
(-4.48929e-05 -4.48613e-05 0.102675)
(7.11195e-07 4.69692e-07 0.102742)
(-7.15581e-07 4.76686e-07 0.102742)
(7.11527e-07 4.72829e-07 0.102742)
(-7.16057e-07 4.77569e-07 0.102742)
(-4.29747e-05 4.29523e-05 0.102672)
(4.48932e-05 -4.48659e-05 0.102675)
(4.56971e-07 6.91478e-07 0.102742)
(4.73829e-07 -7.11082e-07 0.102742)
(4.52694e-07 6.90702e-07 0.102742)
(4.73675e-07 -7.10748e-07 0.102742)
(-4.73012e-07 -7.07936e-07 0.102742)
(-4.51408e-07 6.90338e-07 0.102742)
(-4.72852e-07 -7.07394e-07 0.102742)
(4.29609e-05 -4.29921e-05 0.102672)
(-4.48626e-05 4.48984e-05 0.102675)
(-6.87291e-07 -4.50496e-07 0.102742)
(6.87794e-07 -4.51875e-07 0.102742)
(-6.86268e-07 -4.49147e-07 0.102742)
(4.48683e-05 4.48867e-05 0.102675)
(4.29826e-05 4.29581e-05 0.102672)
(-4.48936e-05 -4.4862e-05 0.102675)
(7.11874e-07 4.70392e-07 0.102742)
(-7.16738e-07 4.77295e-07 0.102742)
(7.1141e-07 4.724e-07 0.102742)
(-7.16136e-07 4.77411e-07 0.102742)
(-4.29753e-05 4.29536e-05 0.102672)
(4.48933e-05 -4.48661e-05 0.102675)
(4.56615e-07 6.91445e-07 0.102742)
(4.7383e-07 -7.11193e-07 0.102742)
(4.52078e-07 6.89802e-07 0.102742)
(4.73181e-07 -7.10531e-07 0.102742)
(-4.73114e-07 -7.08047e-07 0.102742)
(-4.5087e-07 6.90074e-07 0.102742)
(-4.72095e-07 -7.07187e-07 0.102742)
(4.2961e-05 -4.29923e-05 0.102672)
(-4.48633e-05 4.48987e-05 0.102675)
(-6.87397e-07 -4.51194e-07 0.102742)
(6.87351e-07 -4.51701e-07 0.102742)
(-6.86379e-07 -4.50903e-07 0.102742)
(4.48681e-05 4.48868e-05 0.102675)
(4.29821e-05 4.29574e-05 0.102672)
(-4.4893e-05 -4.48618e-05 0.102675)
(7.11282e-07 4.69828e-07 0.102742)
(-7.16685e-07 4.77165e-07 0.102742)
(7.11676e-07 4.72821e-07 0.102742)
(-7.16696e-07 4.7815e-07 0.102742)
(-4.29754e-05 4.29536e-05 0.102672)
(4.48929e-05 -4.48654e-05 0.102675)
(4.56012e-07 6.9032e-07 0.102742)
(4.73361e-07 -7.11028e-07 0.102742)
(4.5249e-07 6.89431e-07 0.102742)
(4.73695e-07 -7.11116e-07 0.102742)
(-4.72553e-07 -7.07944e-07 0.102742)
(-4.5154e-07 6.90468e-07 0.102742)
(-4.72435e-07 -7.07512e-07 0.102742)
(4.29606e-05 -4.29922e-05 0.102672)
(-4.48622e-05 4.48976e-05 0.102675)
(-6.87431e-07 -4.51936e-07 0.102742)
(6.8798e-07 -4.524e-07 0.102742)
(-6.86705e-07 -4.52013e-07 0.102742)
(4.48674e-05 4.48859e-05 0.102675)
(4.29819e-05 4.2957e-05 0.102672)
(-4.48933e-05 -4.48621e-05 0.102675)
(7.12067e-07 4.70578e-07 0.102742)
(-7.17403e-07 4.77942e-07 0.102742)
(7.12519e-07 4.72989e-07 0.102742)
(-7.1663e-07 4.78291e-07 0.102742)
(-4.29763e-05 4.29543e-05 0.102672)
(4.48922e-05 -4.48652e-05 0.102675)
(4.56741e-07 6.90431e-07 0.102742)
(4.7396e-07 -7.11615e-07 0.102742)
(4.52885e-07 6.89794e-07 0.102742)
(4.74037e-07 -7.11191e-07 0.102742)
(-4.73177e-07 -7.08482e-07 0.102742)
(-4.51756e-07 6.9071e-07 0.102742)
(-4.72515e-07 -7.07675e-07 0.102742)
(4.29608e-05 -4.29924e-05 0.102672)
(-4.48629e-05 4.48986e-05 0.102675)
(-6.87959e-07 -4.53172e-07 0.102742)
(6.8835e-07 -4.52602e-07 0.102742)
(-6.86927e-07 -4.52461e-07 0.102742)
(4.48669e-05 4.48868e-05 0.102675)
(4.2984e-05 4.29591e-05 0.102672)
(-4.48923e-05 -4.48593e-05 0.102675)
(7.13186e-07 4.71249e-07 0.102742)
(-7.17061e-07 4.78034e-07 0.102742)
(7.13611e-07 4.74528e-07 0.102742)
(-7.16521e-07 4.78914e-07 0.102742)
(-4.29768e-05 4.29551e-05 0.102672)
(4.48908e-05 -4.48635e-05 0.102675)
(4.5724e-07 6.91018e-07 0.102742)
(4.74602e-07 -7.11722e-07 0.102742)
(4.53024e-07 6.90682e-07 0.102742)
(4.74494e-07 -7.11084e-07 0.102742)
(-4.73047e-07 -7.08421e-07 0.102742)
(-4.51884e-07 6.91002e-07 0.102742)
(-4.72684e-07 -7.07672e-07 0.102742)
(4.29625e-05 -4.29938e-05 0.102672)
(-4.48618e-05 4.48977e-05 0.102675)
(-6.88038e-07 -4.53657e-07 0.102742)
(6.88636e-07 -4.5296e-07 0.102742)
(-6.8728e-07 -4.52959e-07 0.102742)
(4.48661e-05 4.48855e-05 0.102675)
(4.29829e-05 4.29597e-05 0.102672)
(-4.48902e-05 -4.48573e-05 0.102675)
(7.13825e-07 4.72429e-07 0.102742)
(-7.17561e-07 4.79016e-07 0.102742)
(7.13301e-07 4.74357e-07 0.102742)
(-7.16252e-07 4.79069e-07 0.102742)
(-4.29756e-05 4.29543e-05 0.102672)
(4.48908e-05 -4.48631e-05 0.102675)
(4.57264e-07 6.91743e-07 0.102742)
(4.74997e-07 -7.11777e-07 0.102742)
(4.52597e-07 6.90597e-07 0.102742)
(4.73777e-07 -7.10507e-07 0.102742)
(-4.73627e-07 -7.08906e-07 0.102742)
(-4.52478e-07 6.91258e-07 0.102742)
(-4.72872e-07 -7.07797e-07 0.102742)
(4.29616e-05 -4.29927e-05 0.102672)
(-4.486e-05 4.48959e-05 0.102675)
(-6.88505e-07 -4.54242e-07 0.102742)
(6.88039e-07 -4.52352e-07 0.102742)
(-6.87094e-07 -4.52821e-07 0.102742)
(4.48644e-05 4.48833e-05 0.102675)
(4.29804e-05 4.29571e-05 0.102672)
(-4.4886e-05 -4.48531e-05 0.102675)
(7.13668e-07 4.72546e-07 0.102742)
(-7.17337e-07 4.78401e-07 0.102742)
(7.12426e-07 4.73101e-07 0.102742)
(-7.15262e-07 4.77618e-07 0.102742)
(-4.29744e-05 4.29531e-05 0.102672)
(4.48877e-05 -4.48597e-05 0.102675)
(4.57165e-07 6.91632e-07 0.102742)
(4.7437e-07 -7.11082e-07 0.102742)
(4.51348e-07 6.89671e-07 0.102742)
(4.72882e-07 -7.10311e-07 0.102742)
(-4.73036e-07 -7.08501e-07 0.102742)
(-4.51659e-07 6.90728e-07 0.102742)
(-4.72131e-07 -7.07116e-07 0.102742)
(4.29586e-05 -4.29897e-05 0.102672)
(-4.48551e-05 4.48909e-05 0.102675)
(-6.88323e-07 -4.54207e-07 0.102742)
(6.87806e-07 -4.51548e-07 0.102742)
(-6.86223e-07 -4.51539e-07 0.102742)
(4.48598e-05 4.48788e-05 0.102675)
(4.29722e-05 4.29489e-05 0.102672)
(7.12822e-07 4.70721e-07 0.102742)
(-7.17251e-07 4.77623e-07 0.102742)
(-4.29688e-05 4.29472e-05 0.102672)
(4.55482e-07 6.90796e-07 0.102742)
(4.73214e-07 -7.11053e-07 0.102742)
(-4.71079e-07 -7.07797e-07 0.102742)
(4.29513e-05 -4.29826e-05 0.102672)
(-6.87386e-07 -4.52616e-07 0.102742)
(6.75808e-08 -9.21534e-06 0.100607)
(7.15012e-07 6.71459e-06 0.0936176)
(-7.09083e-08 8.9443e-06 0.100596)
(-1.10448e-06 -6.56497e-06 0.0936338)
(-1.89525e-06 2.71329e-06 0.0816648)
(1.82387e-06 -2.66375e-06 0.0816816)
(-9.27656e-06 5.6904e-08 0.100607)
(6.65863e-06 6.69922e-07 0.0936166)
(9.01386e-06 -5.55216e-08 0.100597)
(-6.49896e-06 -1.07064e-06 0.0936345)
(6.84459e-07 -6.61768e-07 0.102791)
(-6.69178e-07 6.75546e-07 0.102791)
(6.7202e-07 6.67753e-07 0.102791)
(-6.77523e-07 -6.77387e-07 0.102791)
(6.90918e-07 -6.712e-07 0.102791)
(-6.72054e-07 6.79716e-07 0.102791)
(6.768e-07 6.71552e-07 0.102791)
(1.49081e-05 6.65479e-08 0.102307)
(-1.45076e-05 4.14726e-06 0.100939)
(-5.86649e-07 -1.80047e-07 0.102777)
(-4.59252e-07 6.87593e-07 0.102742)
(-1.50366e-05 -8.03511e-08 0.102303)
(1.38932e-05 -4.51109e-06 0.100956)
(-5.81325e-07 -1.82505e-07 0.102777)
(2.64482e-06 -1.84854e-06 0.081662)
(-2.55284e-06 1.77096e-06 0.0816821)
(7.89088e-08 1.49189e-05 0.102307)
(-1.81438e-07 -5.76925e-07 0.102777)
(4.18611e-06 -1.45672e-05 0.100939)
(6.92035e-07 -4.54395e-07 0.102742)
(-8.32948e-08 -1.505e-05 0.102303)
(-1.82252e-07 -5.68282e-07 0.102777)
(-4.53842e-06 1.39384e-05 0.100955)
(-4.46274e-06 -5.47192e-06 0.0984737)
(-5.45833e-06 -4.45778e-06 0.098473)
(4.48427e-05 4.48608e-05 0.102675)
(4.20631e-06 5.3047e-06 0.0984908)
(5.29906e-06 4.19795e-06 0.0984899)
(6.6645e-08 -9.23226e-06 0.100607)
(7.06847e-07 6.66168e-06 0.0936179)
(-6.20996e-08 8.9096e-06 0.100596)
(-1.10141e-06 -6.59243e-06 0.0936341)
(-1.8753e-06 2.67024e-06 0.0816649)
(1.86187e-06 -2.7115e-06 0.081682)
(-9.29863e-06 5.1508e-08 0.100607)
(6.6066e-06 6.66376e-07 0.0936168)
(8.9843e-06 -5.36531e-08 0.100596)
(-6.5333e-06 -1.06157e-06 0.0936348)
(6.93555e-07 -6.76299e-07 0.102791)
(-6.76351e-07 6.8318e-07 0.102791)
(6.79654e-07 6.75123e-07 0.102791)
(-6.86755e-07 -6.82513e-07 0.102791)
(6.90228e-07 -6.84418e-07 0.102791)
(-6.79455e-07 6.85417e-07 0.102791)
(6.80867e-07 6.81226e-07 0.102791)
(1.49419e-05 6.47779e-08 0.102307)
(-1.44775e-05 4.11151e-06 0.100939)
(-5.69154e-07 -1.87365e-07 0.102777)
(-4.41876e-07 6.80647e-07 0.102742)
(-1.49966e-05 -8.20984e-08 0.102303)
(1.39296e-05 -4.54308e-06 0.100956)
(-5.55007e-07 -1.87899e-07 0.102777)
(2.57222e-06 -1.80436e-06 0.081662)
(-2.58429e-06 1.78565e-06 0.0816823)
(7.74369e-08 1.49544e-05 0.102307)
(-1.85189e-07 -5.63108e-07 0.102777)
(4.15591e-06 -1.45298e-05 0.100939)
(6.82656e-07 -4.38157e-07 0.102742)
(-8.38644e-08 -1.50097e-05 0.102303)
(-1.87378e-07 -5.46769e-07 0.102777)
(-4.57484e-06 1.39714e-05 0.100955)
(-4.46161e-06 -5.46093e-06 0.0984738)
(-5.44747e-06 -4.45644e-06 0.0984731)
(4.4852e-05 4.48706e-05 0.102675)
(4.18677e-06 5.31275e-06 0.0984908)
(5.3068e-06 4.17876e-06 0.09849)
(5.35314e-08 -9.26717e-06 0.100607)
(7.25246e-07 6.62043e-06 0.0936183)
(-6.90776e-08 8.87609e-06 0.100596)
(-1.10782e-06 -6.62344e-06 0.0936346)
(-1.8132e-06 2.59841e-06 0.0816656)
(1.79386e-06 -2.69766e-06 0.0816832)
(-9.33252e-06 4.77806e-08 0.100607)
(6.56419e-06 6.82234e-07 0.0936173)
(8.94361e-06 -5.41308e-08 0.100596)
(-6.56576e-06 -1.06745e-06 0.0936353)
(6.967e-07 -6.9236e-07 0.102791)
(-6.85029e-07 6.90714e-07 0.102791)
(6.86246e-07 6.86079e-07 0.102791)
(-7.04481e-07 -6.91845e-07 0.102791)
(6.95762e-07 -6.86564e-07 0.102791)
(-6.94463e-07 7.00519e-07 0.102791)
(6.92309e-07 6.99031e-07 0.102791)
(1.49851e-05 6.36667e-08 0.102307)
(-1.44348e-05 4.0915e-06 0.100939)
(-5.40478e-07 -1.91398e-07 0.102776)
(-4.06771e-07 6.67055e-07 0.102742)
(-1.49548e-05 -8.28358e-08 0.102302)
(1.39714e-05 -4.56523e-06 0.100956)
(-5.19023e-07 -1.90535e-07 0.102776)
(2.51938e-06 -1.80524e-06 0.0816627)
(-2.64182e-06 1.81688e-06 0.0816833)
(7.33253e-08 1.4993e-05 0.102307)
(-1.90676e-07 -5.44282e-07 0.102776)
(4.1378e-06 -1.44955e-05 0.100939)
(6.75135e-07 -4.1757e-07 0.102742)
(-8.68643e-08 -1.49694e-05 0.102302)
(-1.93801e-07 -5.19696e-07 0.102776)
(-4.60726e-06 1.40136e-05 0.100955)
(-4.46932e-06 -5.4628e-06 0.0984738)
(-5.45214e-06 -4.46372e-06 0.0984731)
(4.48739e-05 4.48928e-05 0.102675)
(4.19414e-06 5.32246e-06 0.0984908)
(5.31383e-06 4.18875e-06 0.0984899)
(4.63458e-08 -9.33185e-06 0.100607)
(6.92604e-07 6.60361e-06 0.0936188)
(-8.39584e-08 8.85459e-06 0.100596)
(-1.0887e-06 -6.64592e-06 0.0936352)
(-1.93875e-06 2.65141e-06 0.0816672)
(1.87795e-06 -2.70742e-06 0.0816845)
(-9.39384e-06 4.78514e-08 0.100606)
(6.54982e-06 6.57294e-07 0.0936178)
(8.91897e-06 -6.03574e-08 0.100596)
(-6.59465e-06 -1.04271e-06 0.0936359)
(6.96853e-07 -6.91156e-07 0.102791)
(-6.95997e-07 7.01402e-07 0.102791)
(6.93235e-07 6.98471e-07 0.102791)
(-7.32339e-07 -7.05261e-07 0.102791)
(7.05158e-07 -6.93438e-07 0.102791)
(-7.16908e-07 7.22948e-07 0.102791)
(7.07071e-07 7.26974e-07 0.102791)
(1.50287e-05 6.74391e-08 0.102307)
(-1.4413e-05 4.04827e-06 0.100939)
(-5.37938e-07 -1.87257e-07 0.102776)
(-3.95239e-07 6.52902e-07 0.102742)
(-1.49393e-05 -8.46615e-08 0.102302)
(1.40168e-05 -4.5834e-06 0.100956)
(-5.20987e-07 -1.89204e-07 0.102776)
(2.48361e-06 -1.7293e-06 0.0816639)
(-2.62141e-06 1.74136e-06 0.0816847)
(6.92662e-08 1.50377e-05 0.102307)
(-1.98417e-07 -5.39584e-07 0.102776)
(4.08827e-06 -1.44597e-05 0.100939)
(6.83726e-07 -4.26066e-07 0.102742)
(-9.22141e-08 -1.49519e-05 0.102302)
(-1.94488e-07 -5.28162e-07 0.102776)
(-4.6311e-06 1.40441e-05 0.100955)
(-4.44443e-06 -5.42649e-06 0.0984738)
(-5.41748e-06 -4.43532e-06 0.0984731)
(4.48711e-05 4.48955e-05 0.102675)
(4.22124e-06 5.33852e-06 0.0984909)
(5.32403e-06 4.21977e-06 0.09849)
(2.00664e-08 -9.26893e-06 0.100607)
(6.41797e-07 6.60814e-06 0.0936194)
(-1.46922e-07 8.85737e-06 0.100596)
(-1.08651e-06 -6.58098e-06 0.093636)
(-1.97996e-06 2.59758e-06 0.0816688)
(1.53907e-06 -2.4704e-06 0.0816855)
(-9.35697e-06 8.40769e-08 0.100606)
(6.54448e-06 6.41693e-07 0.0936185)
(8.89545e-06 -8.22544e-08 0.100596)
(-6.54086e-06 -1.03245e-06 0.0936366)
(6.6035e-07 -6.45288e-07 0.102791)
(-7.01764e-07 7.07322e-07 0.102791)
(6.89549e-07 7.14383e-07 0.102791)
(-5.82723e-07 -5.7716e-07 0.102791)
(5.86771e-07 -5.91033e-07 0.102791)
(-5.77662e-07 5.84037e-07 0.102791)
(5.77352e-07 5.79442e-07 0.102791)
(1.49244e-05 1.31565e-07 0.102307)
(-1.44075e-05 4.1135e-06 0.100939)
(-5.35121e-07 -1.5322e-07 0.102776)
(-5.44027e-07 8.14394e-07 0.102742)
(-1.49161e-05 -6.44517e-08 0.102302)
(1.38102e-05 -4.35223e-06 0.100955)
(-6.30342e-07 -1.23823e-07 0.102776)
(2.4476e-06 -1.70634e-06 0.0816658)
(-2.51193e-06 1.5919e-06 0.0816864)
(8.35965e-08 1.49568e-05 0.102307)
(-2.01598e-07 -4.97641e-07 0.102776)
(4.05947e-06 -1.44249e-05 0.100939)
(7.44515e-07 -5.04349e-07 0.102742)
(-9.71751e-08 -1.49114e-05 0.102302)
(-1.79583e-07 -5.96456e-07 0.102776)
(-4.57003e-06 1.39466e-05 0.100955)
(-4.36673e-06 -5.39072e-06 0.0984739)
(-5.39261e-06 -4.35e-06 0.0984733)
(4.48118e-05 4.4845e-05 0.102674)
(4.17561e-06 5.24654e-06 0.0984911)
(5.22958e-06 4.17768e-06 0.0984902)
(7.36916e-08 -8.97132e-06 0.100607)
(8.13214e-07 7.18635e-06 0.0936193)
(-6.24572e-08 9.24326e-06 0.100596)
(-1.03315e-06 -6.14097e-06 0.0936347)
(-1.80772e-06 2.78596e-06 0.0816649)
(1.88037e-06 -2.52576e-06 0.0816825)
(-9.02875e-06 1.04459e-08 0.100606)
(7.14752e-06 7.5425e-07 0.0936184)
(9.31734e-06 -8.16786e-08 0.100596)
(-6.10231e-06 -1.00921e-06 0.0936353)
(6.21302e-07 -6.25297e-07 0.102791)
(-5.93033e-07 5.98743e-07 0.102791)
(5.96291e-07 5.92156e-07 0.102791)
(-6.77405e-07 -6.68982e-07 0.102791)
(6.85075e-07 -6.7308e-07 0.102791)
(-6.7366e-07 6.81089e-07 0.102791)
(6.76335e-07 6.76131e-07 0.102791)
(1.46521e-05 4.20636e-08 0.102307)
(-1.47942e-05 4.30205e-06 0.100939)
(-7.08913e-07 -1.75074e-07 0.102776)
(-4.87819e-07 6.73664e-07 0.102742)
(-1.54542e-05 -7.28833e-08 0.102302)
(1.37082e-05 -4.39807e-06 0.100956)
(-6.54117e-07 -1.88177e-07 0.102777)
(2.78623e-06 -1.84927e-06 0.0816639)
(-2.4358e-06 1.80462e-06 0.0816829)
(8.46653e-08 1.4658e-05 0.102307)
(-1.52278e-07 -7.20609e-07 0.102776)
(4.40101e-06 -1.48637e-05 0.100939)
(6.98065e-07 -5.02963e-07 0.102742)
(-6.4821e-08 -1.54685e-05 0.102302)
(-1.64962e-07 -6.60146e-07 0.102777)
(-4.35295e-06 1.37205e-05 0.100955)
(-4.61662e-06 -5.51514e-06 0.0984737)
(-5.49972e-06 -4.61418e-06 0.098473)
(4.4836e-05 4.48483e-05 0.102675)
(4.12234e-06 5.32162e-06 0.0984906)
(5.31815e-06 4.10984e-06 0.0984897)
(6.48632e-08 -9.18563e-06 0.100607)
(7.83574e-07 6.79358e-06 0.0936176)
(-6.64822e-08 8.98726e-06 0.100596)
(-9.55389e-07 -6.44822e-06 0.093634)
(-1.94021e-06 2.77379e-06 0.0816647)
(1.79539e-06 -2.62435e-06 0.0816813)
(-9.25844e-06 5.40043e-08 0.100607)
(6.7455e-06 7.07085e-07 0.0936168)
(9.05001e-06 -5.67719e-08 0.100596)
(-6.46152e-06 -1.04043e-06 0.0936343)
(6.84584e-07 -6.70042e-07 0.102791)
(-6.79354e-07 6.87818e-07 0.102791)
(6.81784e-07 6.81743e-07 0.102791)
(-6.74492e-07 -6.64559e-07 0.102791)
(6.82649e-07 -6.67158e-07 0.102791)
(-6.72352e-07 6.84596e-07 0.102791)
(6.81325e-07 6.71896e-07 0.102791)
(1.49027e-05 7.54027e-08 0.102307)
(-1.45255e-05 4.16944e-06 0.100939)
(-5.76881e-07 -1.76901e-07 0.102777)
(-4.46774e-07 7.01742e-07 0.102742)
(-1.50575e-05 -8.18495e-08 0.102303)
(1.38941e-05 -4.49075e-06 0.100956)
(-5.70966e-07 -1.74049e-07 0.102777)
(2.6085e-06 -1.79053e-06 0.0816621)
(-2.54846e-06 1.789e-06 0.0816822)
(7.69409e-08 1.49118e-05 0.102307)
(-1.84617e-07 -5.74131e-07 0.102777)
(4.20734e-06 -1.45949e-05 0.100939)
(6.77331e-07 -4.41537e-07 0.102742)
(-8.58003e-08 -1.50764e-05 0.102303)
(-1.84825e-07 -5.62627e-07 0.102777)
(-4.54886e-06 1.39339e-05 0.100955)
(-4.47635e-06 -5.4546e-06 0.0984736)
(-5.44139e-06 -4.47106e-06 0.0984729)
(4.48764e-05 4.48967e-05 0.102675)
(4.18106e-06 5.31775e-06 0.0984907)
(5.30976e-06 4.17472e-06 0.0984898)
(7.12811e-08 -9.20126e-06 0.100607)
(7.26396e-07 6.69552e-06 0.0936175)
(-6.54161e-08 8.9446e-06 0.100596)
(-1.04549e-06 -6.48278e-06 0.0936341)
(-1.8287e-06 2.68964e-06 0.0816647)
(1.96336e-06 -2.72749e-06 0.0816812)
(-9.26682e-06 4.9925e-08 0.100607)
(6.69505e-06 7.0271e-07 0.0936169)
(9.00438e-06 -5.08553e-08 0.100596)
(-6.4925e-06 -1.05495e-06 0.0936341)
(6.84133e-07 -6.72671e-07 0.102791)
(-6.70439e-07 6.82382e-07 0.102791)
(6.8062e-07 6.68595e-07 0.102791)
(-6.65065e-07 -6.64796e-07 0.102791)
(6.81015e-07 -6.74446e-07 0.102791)
(-6.67749e-07 6.77072e-07 0.102791)
(6.72713e-07 6.69489e-07 0.102791)
(1.48952e-05 6.71824e-08 0.102307)
(-1.45083e-05 4.13521e-06 0.100939)
(-5.73109e-07 -1.80603e-07 0.102777)
(-4.51058e-07 6.7939e-07 0.102742)
(-1.50402e-05 -7.757e-08 0.102303)
(1.38851e-05 -4.51936e-06 0.100956)
(-5.70902e-07 -1.84487e-07 0.102777)
(2.5828e-06 -1.80915e-06 0.081662)
(-2.55548e-06 1.78043e-06 0.0816822)
(7.77057e-08 1.49085e-05 0.102307)
(-1.82796e-07 -5.71308e-07 0.102777)
(4.17808e-06 -1.45595e-05 0.100939)
(6.88628e-07 -4.48348e-07 0.102742)
(-8.36828e-08 -1.50509e-05 0.102303)
(-1.82883e-07 -5.6654e-07 0.102777)
(-4.54764e-06 1.39377e-05 0.100955)
(-4.4753e-06 -5.46398e-06 0.0984737)
(-5.45292e-06 -4.46901e-06 0.098473)
(4.48663e-05 4.48872e-05 0.102675)
(4.18023e-06 5.31361e-06 0.0984907)
(5.30658e-06 4.17321e-06 0.0984898)
(6.96509e-08 -9.20293e-06 0.100607)
(7.8608e-07 6.72394e-06 0.0936172)
(-5.82339e-08 8.94581e-06 0.100596)
(-1.04781e-06 -6.43969e-06 0.0936344)
(-1.83117e-06 2.51991e-06 0.0816648)
(1.82834e-06 -2.75349e-06 0.0816814)
(-9.26669e-06 4.58308e-08 0.100607)
(6.7247e-06 7.03568e-07 0.0936171)
(9.0047e-06 -5.54411e-08 0.100596)
(-6.50555e-06 -1.06535e-06 0.0936339)
(6.75974e-07 -6.71277e-07 0.102791)
(-6.68697e-07 6.76019e-07 0.102791)
(6.71586e-07 6.69764e-07 0.102791)
(-6.73973e-07 -6.70867e-07 0.102791)
(6.75953e-07 -6.69739e-07 0.102791)
(-6.69811e-07 6.75802e-07 0.102791)
(6.71331e-07 6.70245e-07 0.102791)
(1.48954e-05 7.11988e-08 0.102307)
(-1.45102e-05 4.14883e-06 0.100939)
(-5.76877e-07 -1.80726e-07 0.102777)
(-4.55643e-07 6.93115e-07 0.102742)
(-1.50419e-05 -7.71242e-08 0.102303)
(1.38883e-05 -4.50272e-06 0.100956)
(-5.75965e-07 -1.80118e-07 0.102777)
(2.58222e-06 -1.81101e-06 0.081662)
(-2.55574e-06 1.77937e-06 0.0816822)
(7.76026e-08 1.49069e-05 0.102307)
(-1.82367e-07 -5.74292e-07 0.102777)
(4.18048e-06 -1.45611e-05 0.100939)
(6.89452e-07 -4.51638e-07 0.102742)
(-8.38598e-08 -1.50546e-05 0.102303)
(-1.82988e-07 -5.67669e-07 0.102777)
(-4.5472e-06 1.39368e-05 0.100955)
(-4.4752e-06 -5.46437e-06 0.0984737)
(-5.45262e-06 -4.46943e-06 0.098473)
(4.48659e-05 4.48854e-05 0.102675)
(4.18033e-06 5.3139e-06 0.0984907)
(5.30682e-06 4.17374e-06 0.0984898)
(5.62873e-08 -9.20249e-06 0.100607)
(7.19915e-07 6.6732e-06 0.0936171)
(-7.32455e-08 8.94242e-06 0.100596)
(-1.06653e-06 -6.45693e-06 0.0936343)
(-1.88683e-06 2.68501e-06 0.0816649)
(1.83755e-06 -2.67729e-06 0.0816816)
(-9.26621e-06 4.40537e-08 0.100607)
(6.72709e-06 7.04352e-07 0.0936171)
(9.0056e-06 -5.72938e-08 0.100596)
(-6.49967e-06 -1.0628e-06 0.0936341)
(6.75745e-07 -6.72805e-07 0.102791)
(-6.70527e-07 6.75591e-07 0.102791)
(6.71185e-07 6.71667e-07 0.102791)
(-6.76629e-07 -6.71742e-07 0.102791)
(6.75622e-07 -6.74535e-07 0.102791)
(-6.70772e-07 6.75388e-07 0.102791)
(6.70914e-07 6.72668e-07 0.102791)
(1.48959e-05 6.94324e-08 0.102307)
(-1.45098e-05 4.14045e-06 0.100939)
(-5.74272e-07 -1.81648e-07 0.102777)
(-4.53393e-07 6.91142e-07 0.102742)
(-1.50419e-05 -7.88193e-08 0.102303)
(1.3888e-05 -4.50635e-06 0.100956)
(-5.71401e-07 -1.81492e-07 0.102777)
(2.58161e-06 -1.81198e-06 0.081662)
(-2.55633e-06 1.77833e-06 0.0816822)