/*--------------------------------*- C++ -*----------------------------------*\
| =========                 |                                                 |
| \\      /  F ield         | OpenFOAM: The Open Source CFD Toolbox           |
|  \\    /   O peration     | Version:  2206                                  |
|   \\  /    A nd           | Website:  www.openfoam.com                      |
|    \\/     M anipulation  |                                                 |
\*---------------------------------------------------------------------------*/
FoamFile
{
    version     2.0;
    format      ascii;
    arch        "LSB;label=32;scalar=64";
    class       volScalarField;
    location    "38";
    object      nut;
}
// * * * * * * * * * * * * * * * * * * * * * * * * * * * * * * * * * * * * * //

dimensions      [0 2 -1 0 0 0 0];

internalField   nonuniform List<scalar> 
28673
(
0.000174313
0.000144953
0.000209328
0.000174314
0.000174303
0.000144983
0.000209327
0.000174313
0.000174302
0.00014498
0.000209326
0.000174312
0.000174301
0.00014498
0.000209327
0.000174311
0.000174299
0.000144978
0.000209328
0.00017431
0.0001743
0.000144978
0.000209327
0.000174309
0.000174299
0.000144977
0.000209327
0.000174306
0.000174298
0.000144977
0.00020932
0.000174295
0.000174292
0.000144959
0.000209292
0.000174275
0.000174266
0.000144935
0.000209302
0.000174292
0.000174281
0.000144952
0.000209315
0.000174299
0.000174289
0.000144973
0.000210648
0.000177514
0.00017751
0.000149094
0.000174283
0.000145109
0.000174314
0.000145126
0.000174291
0.000174282
0.000174288
0.000174283
0.000144926
0.000145168
0.000174306
0.000174273
0.000174288
0.000174314
0.000174288
0.000145125
0.000174307
0.000174303
0.000174307
0.00014517
0.000144944
0.000145149
0.000174287
0.000174283
0.000174287
0.000174282
0.000144986
0.000145174
0.000174305
0.000174273
0.000174305
0.000174273
0.000174288
0.000174313
0.000174287
0.000144947
0.000145165
0.000174306
0.000174303
0.000174306
0.000145166
0.000144967
0.000145168
0.000174287
0.000174282
0.000174287
0.000174281
0.000144989
0.000145175
0.000174305
0.000174273
0.000174305
0.000174272
0.000174287
0.000174312
0.000174285
0.000144978
0.000145162
0.000174305
0.000174301
0.000174304
0.000145166
0.000144984
0.000145169
0.000174287
0.000174281
0.000174287
0.000174281
0.00014499
0.000145175
0.000174305
0.000174273
0.000174305
0.000174272
0.000174285
0.000174311
0.000174284
0.000144977
0.00014516
0.000174304
0.000174299
0.000174303
0.000145164
0.000144985
0.000145169
0.000174287
0.00017428
0.000174287
0.000174281
0.000144989
0.000145174
0.000174305
0.000174272
0.000174305
0.000174271
0.000174285
0.00017431
0.000174285
0.000144976
0.00014516
0.000174304
0.0001743
0.000174303
0.000145164
0.000144985
0.000145169
0.000174287
0.000174281
0.000174288
0.000174282
0.000144988
0.000145173
0.000174306
0.000174272
0.000174306
0.000174272
0.000174285
0.00017431
0.000174285
0.000144975
0.00014516
0.000174304
0.0001743
0.000174304
0.000145163
0.000144985
0.00014517
0.000174288
0.000174282
0.000174289
0.000174282
0.000144988
0.000145173
0.000174307
0.000174273
0.000174308
0.000174274
0.000174287
0.000174306
0.000174286
0.000144976
0.00014516
0.000174305
0.000174299
0.000174305
0.000145163
0.000144986
0.00014516
0.000174288
0.000174279
0.000174283
0.000174273
0.000144987
0.000145156
0.000174309
0.000174274
0.000174306
0.000174269
0.000174284
0.000174303
0.000174278
0.000144976
0.000145153
0.000174303
0.000174294
0.000174297
0.00014515
0.000144972
0.000145129
0.000174278
0.000174264
0.000174256
0.000174247
0.000144966
0.000145134
0.000174302
0.000174266
0.000174276
0.000174243
0.000174272
0.000174278
0.000174252
0.000144967
0.000145123
0.000174291
0.000174274
0.000174271
0.000145122
0.000144943
0.000145139
0.000174251
0.000174244
0.000174267
0.00017426
0.00014495
0.000145144
0.00017427
0.000174236
0.000174285
0.00017425
0.000174248
0.000174292
0.000174265
0.000144935
0.00014513
0.000174266
0.00017428
0.000174284
0.000145135
0.000144957
0.00014516
0.000174269
0.000174262
0.000174314
0.000174307
0.00014496
0.000145165
0.000174287
0.000174253
0.000174334
0.0001743
0.000174267
0.000174338
0.000174311
0.000144948
0.000145151
0.000174286
0.000174329
0.000174332
0.000145154
0.000144979
0.000146859
0.000174274
0.000174268
0.00017643
0.000176426
0.000144983
0.000146862
0.000174294
0.000174259
0.000176445
0.000176423
0.00017427
0.000176448
0.00017643
0.000144971
0.000146853
0.000174292
0.000176444
0.000176446
0.000146858
0.000149096
0.000177501
0.000177497
0.000149098
0.000177512
0.000177494
0.000210647
0.000210647
0.000210648
0.0001775
0.000149091
0.000177513
3.87329e-05
4.94237e-05
3.87272e-05
4.94228e-05
2.45862e-05
2.4586e-05
3.87386e-05
4.94186e-05
0.00020933
0.000209326
0.000209328
0.000209329
0.000209322
0.000209326
7.77893e-05
4.64109e-05
0.000194463
0.000174315
7.77663e-05
4.6421e-05
0.000194462
2.45837e-05
7.77807e-05
0.000194458
0.000174304
7.77578e-05
0.000194458
4.64235e-05
3.81591e-05
3.81556e-05
0.000145172
3.81598e-05
3.81562e-05
3.87364e-05
4.9423e-05
3.87305e-05
4.94222e-05
2.45856e-05
2.45856e-05
3.87422e-05
4.9419e-05
3.87367e-05
4.94182e-05
0.000209329
0.000209321
0.000209326
0.000209327
0.000209328
0.000209321
0.000209325
7.77901e-05
4.64143e-05
0.000194462
0.000174314
7.7766e-05
4.64243e-05
0.000194462
2.45832e-05
2.45831e-05
7.77813e-05
0.000194457
4.64171e-05
0.000174303
7.77573e-05
0.000194457
4.64269e-05
3.81614e-05
3.8158e-05
0.000145168
3.81646e-05
3.81612e-05
3.87399e-05
4.94227e-05
3.87341e-05
4.94221e-05
2.45854e-05
2.45855e-05
3.87458e-05
4.94187e-05
3.87404e-05
4.9418e-05
0.000209328
0.00020932
0.000209323
0.000209326
0.000209328
0.000209319
0.000209322
7.77912e-05
4.64172e-05
0.000194461
0.000174313
7.77669e-05
4.64269e-05
0.000194461
2.45828e-05
2.45829e-05
7.77821e-05
0.000194456
4.64204e-05
0.000174302
7.77579e-05
0.000194456
4.64301e-05
3.81661e-05
3.81627e-05
0.000145166
3.81688e-05
3.81655e-05
3.87429e-05
4.94228e-05
3.87374e-05
4.94222e-05
2.45853e-05
2.45855e-05
3.87489e-05
4.94187e-05
3.87436e-05
4.94181e-05
0.000209328
0.00020932
0.000209322
0.000209327
0.000209325
0.00020932
0.000209323
7.77922e-05
4.64195e-05
0.000194459
0.000174312
7.77681e-05
4.6429e-05
0.000194459
2.45827e-05
2.45828e-05
7.77831e-05
0.000194454
4.64231e-05
0.0001743
7.77589e-05
0.000194453
4.64324e-05
3.8169e-05
3.81657e-05
0.000145165
3.81709e-05
3.81676e-05
3.87448e-05
4.94229e-05
3.87397e-05
4.94228e-05
2.45854e-05
2.45858e-05
3.87509e-05
4.94188e-05
3.87461e-05
4.94186e-05
0.000209327
0.000209321
0.000209324
0.000209329
0.000209327
0.000209321
0.000209324
7.77928e-05
4.64221e-05
0.000194458
0.00017431
7.77689e-05
4.6431e-05
0.000194458
2.45827e-05
2.45831e-05
7.77838e-05
0.000194453
4.64258e-05
0.0001743
7.77599e-05
0.000194454
4.64343e-05
3.8171e-05
3.81679e-05
0.000145164
3.81731e-05
3.817e-05
3.87469e-05
4.94233e-05
3.87424e-05
4.94236e-05
2.45857e-05
2.45867e-05
3.87529e-05
4.94192e-05
3.87487e-05
4.94195e-05
0.000209329
0.000209321
0.000209325
0.000209327
0.000209328
0.000209319
0.000209327
7.77951e-05
4.6426e-05
0.000194459
0.00017431
7.77712e-05
4.64331e-05
0.00019446
2.45829e-05
2.45839e-05
7.77858e-05
0.000194455
4.64295e-05
0.0001743
7.7762e-05
0.000194455
4.64366e-05
3.81771e-05
3.8174e-05
0.000145163
3.81785e-05
3.81755e-05
3.87442e-05
4.94231e-05
3.87412e-05
4.9424e-05
2.45858e-05
2.45874e-05
3.87506e-05
4.94191e-05
3.87477e-05
4.94201e-05
0.000209327
0.000209319
0.000209328
0.000209327
0.000209325
0.00020932
0.000209325
7.77941e-05
4.64283e-05
0.00019446
0.000174308
7.77713e-05
4.64331e-05
0.000194459
2.4583e-05
2.45847e-05
7.77849e-05
0.000194454
4.64321e-05
0.000174299
7.7762e-05
0.000194454
4.6437e-05
3.81813e-05
3.81784e-05
0.000145163
3.81809e-05
3.8178e-05
3.87391e-05
4.94235e-05
3.87378e-05
4.94263e-05
2.45859e-05
2.45881e-05
3.87474e-05
4.94195e-05
3.87455e-05
4.94223e-05
0.000209324
0.000209319
0.000209324
0.000209322
0.000209321
0.000209316
0.00020932
7.77869e-05
4.64323e-05
0.000194457
0.000174305
7.77698e-05
4.64325e-05
0.000194456
2.45834e-05
2.45858e-05
7.77796e-05
0.000194453
4.64372e-05
0.000174296
7.77618e-05
0.000194451
4.64374e-05
3.81867e-05
3.81838e-05
0.00014516
3.81833e-05
3.81803e-05
3.87302e-05
4.94246e-05
3.87286e-05
4.94297e-05
2.45846e-05
2.45874e-05
3.87382e-05
4.94207e-05
3.87373e-05
4.94259e-05
0.000209316
0.000209315
0.000209315
0.000209297
0.000209295
0.000209291
0.000209293
7.7765e-05
4.64373e-05
0.000194447
0.000174288
7.77542e-05
4.64305e-05
0.000194436
2.45826e-05
2.45854e-05
7.77592e-05
0.000194446
4.64427e-05
0.000174289
7.77479e-05
0.000194437
4.64357e-05
3.81845e-05
3.81811e-05
0.000145134
3.81719e-05
3.81683e-05
3.872e-05
4.94251e-05
3.87173e-05
4.94328e-05
2.45813e-05
2.45852e-05
3.87273e-05
4.94218e-05
3.87254e-05
4.94296e-05
0.000209294
0.000209287
0.000209291
0.000209301
0.000209302
0.000209295
0.000209299
7.77514e-05
4.64482e-05
0.000194422
0.000174282
7.77378e-05
4.64248e-05
0.000194424
2.45794e-05
2.45833e-05
7.77452e-05
0.000194418
4.64519e-05
0.000174271
7.77317e-05
0.000194419
4.64268e-05
3.81615e-05
3.8158e-05
0.000145129
3.81311e-05
3.81276e-05
3.87051e-05
4.94193e-05
3.87001e-05
4.94318e-05
2.45751e-05
2.458e-05
3.87117e-05
4.94163e-05
3.87074e-05
4.94287e-05
0.000209304
0.000209297
0.000209301
0.000209317
0.000209316
0.00020931
0.000209314
7.77489e-05
4.64507e-05
0.000194434
0.000174302
7.77404e-05
4.63958e-05
0.000194433
2.45734e-05
2.45782e-05
7.77428e-05
0.000194429
4.64508e-05
0.000174293
7.77344e-05
0.000194428
4.6395e-05
3.81104e-05
3.81071e-05
0.000145137
3.80511e-05
3.80472e-05
3.87339e-05
4.94074e-05
3.86745e-05
4.94476e-05
2.45635e-05
2.45772e-05
3.8738e-05
4.94039e-05
3.86799e-05
4.94446e-05
0.000209315
0.000209309
0.000209312
0.000209704
0.000209704
0.000209701
0.000209704
7.78899e-05
4.64467e-05
0.000194501
0.000174568
7.77712e-05
4.63839e-05
0.000194434
2.45615e-05
2.45753e-05
7.78851e-05
0.000194496
4.64456e-05
0.000174559
7.77655e-05
0.00019443
4.63834e-05
3.80002e-05
3.79965e-05
0.000145417
3.78375e-05
3.78351e-05
4.16735e-05
5.27146e-05
3.8862e-05
8.50177e-05
2.70211e-05
2.97082e-05
4.16762e-05
5.27118e-05
3.88645e-05
8.50099e-05
0.000224817
0.000219554
0.000219557
0.000207156
0.000224603
0.00021844
0.000218443
8.27899e-05
4.74214e-05
0.000196655
0.000180251
7.97557e-05
5.77533e-05
0.000200128
2.70196e-05
2.97071e-05
8.27847e-05
0.000196652
4.74215e-05
0.000180249
7.97519e-05
0.000200127
5.77508e-05
3.87912e-05
3.87852e-05
0.000154441
3.85935e-05
3.85903e-05
4.94231e-05
4.6424e-05
2.45864e-05
3.81577e-05
3.81543e-05
2.45869e-05
4.64193e-05
4.94213e-05
2.45875e-05
2.45873e-05
2.45855e-05
3.81595e-05
0.00014511
3.81601e-05
3.81543e-05
2.4587e-05
2.45871e-05
2.45851e-05
2.45853e-05
0.000144928
3.81627e-05
3.81572e-05
3.8159e-05
3.81536e-05
3.87338e-05
4.94237e-05
3.8728e-05
4.94228e-05
7.77903e-05
4.64167e-05
0.000194462
0.00017429
7.77672e-05
4.64261e-05
0.000194462
7.77907e-05
4.64159e-05
0.000194461
0.000174283
7.77675e-05
4.64256e-05
0.000194461
3.87289e-05
4.94224e-05
4.94233e-05
3.87346e-05
3.87298e-05
4.94225e-05
4.94234e-05
3.87355e-05
7.77679e-05
0.000174289
4.64277e-05
0.000194462
4.64182e-05
0.000194462
7.77909e-05
7.77682e-05
0.000174283
4.64273e-05
0.000194461
4.64176e-05
0.000194461
7.77912e-05
3.81569e-05
3.81528e-05
0.000145131
3.81604e-05
3.81557e-05
2.45867e-05
2.45865e-05
2.45858e-05
2.45859e-05
0.000144952
3.81627e-05
3.81571e-05
3.81592e-05
3.81541e-05
2.45863e-05
2.45864e-05
7.77915e-05
0.000174307
4.64181e-05
0.000194459
3.87377e-05
4.94153e-05
7.77917e-05
0.000174273
0.000194453
4.64135e-05
3.8735e-05
4.94184e-05
4.94192e-05
3.87405e-05
7.77695e-05
0.000174307
4.64201e-05
0.000194459
4.64103e-05
0.000194459
7.77921e-05
3.8734e-05
4.94149e-05
4.94158e-05
3.87394e-05
7.77694e-05
0.000174273
0.000194453
4.64153e-05
0.000194453
4.64053e-05
7.77923e-05
3.8733e-05
4.9422e-05
3.87273e-05
4.9421e-05
7.77887e-05
0.00019446
4.64138e-05
0.000174288
7.77659e-05
0.00019446
4.64234e-05
3.8733e-05
4.94199e-05
3.87272e-05
4.9419e-05
7.77671e-05
0.000174314
4.64227e-05
0.000194463
4.64129e-05
0.000194463
7.77899e-05
3.8729e-05
4.94208e-05
4.94216e-05
3.87347e-05
7.77666e-05
0.000174288
0.00019446
4.6425e-05
0.00019446
4.64154e-05
7.77893e-05
3.87289e-05
4.94187e-05
4.94196e-05
3.87346e-05
0.000145094
3.81481e-05
3.81581e-05
2.45864e-05
2.45833e-05
2.45835e-05
0.000144912
3.81496e-05
3.8161e-05
3.81466e-05
3.81574e-05
2.4586e-05
2.45862e-05
7.77795e-05
0.000194458
4.64115e-05
0.000174307
7.77569e-05
0.000194458
4.6421e-05
3.87255e-05
3.87195e-05
4.94187e-05
3.8725e-05
4.94197e-05
3.87191e-05
4.94189e-05
7.77585e-05
0.000174303
0.000194458
4.64252e-05
0.000194458
4.64156e-05
7.77812e-05
7.77575e-05
0.000174307
0.000194458
4.64226e-05
0.000194458
4.6413e-05
7.77799e-05
3.87211e-05
4.94184e-05
4.94192e-05
3.87271e-05
3.87206e-05
4.94185e-05
4.94194e-05
3.87266e-05
2.45862e-05
2.45859e-05
2.45851e-05
2.45849e-05
0.000144986
3.81622e-05
3.81587e-05
3.81586e-05
3.81551e-05
2.45856e-05
2.45858e-05
2.45846e-05
2.45847e-05
2.45868e-05
2.45867e-05
2.4585e-05
2.45848e-05
3.81616e-05
3.8156e-05
0.000145139
3.81652e-05
3.81596e-05
2.45866e-05
2.45866e-05
2.45847e-05
2.45847e-05
0.000144956
3.81676e-05
3.81621e-05
3.81641e-05
3.81585e-05
3.87372e-05
4.94231e-05
3.87315e-05
4.94223e-05
7.77912e-05
4.64198e-05
0.000194461
0.000174287
7.77684e-05
4.64293e-05
0.000194461
7.77915e-05
4.64193e-05
0.00019446
0.000174283
7.77687e-05
4.6429e-05
0.000194459
3.87324e-05
4.94221e-05
4.94228e-05
3.87382e-05
3.87332e-05
4.94222e-05
4.94229e-05
3.8739e-05
7.77688e-05
0.000174287
4.64309e-05
0.000194461
4.64215e-05
0.000194461
7.77918e-05
7.7769e-05
0.000174282
4.64305e-05
0.000194458
4.6421e-05
0.000194458
7.77921e-05
3.81615e-05
3.81555e-05
0.000145179
3.81649e-05
3.81587e-05
2.45862e-05
2.45861e-05
2.45855e-05
2.45855e-05
0.000144993
3.81668e-05
3.81602e-05
3.81637e-05
3.81571e-05
2.4586e-05
2.4586e-05
7.77923e-05
4.64124e-05
0.000194458
0.000174305
7.777e-05
4.64221e-05
0.000194458
3.87413e-05
4.94155e-05
3.87358e-05
4.94146e-05
7.77925e-05
0.000194453
4.64071e-05
0.000174273
7.77699e-05
0.000194453
4.6417e-05
3.87386e-05
4.94181e-05
4.94188e-05
3.87441e-05
7.77702e-05
0.000174305
4.64239e-05
0.000194458
4.64143e-05
0.000194459
7.77926e-05
3.87377e-05
4.94145e-05
4.94152e-05
3.87431e-05
7.77701e-05
0.000174273
0.000194453
4.64186e-05
0.000194453
4.64088e-05
7.77928e-05
3.87365e-05
4.94214e-05
3.87307e-05
4.94206e-05
7.77896e-05
0.000194459
4.6417e-05
0.000174288
7.77671e-05
0.000194459
4.64266e-05
3.87364e-05
4.94193e-05
3.87306e-05
4.94185e-05
7.77679e-05
0.000174313
4.64257e-05
0.000194461
4.64161e-05
0.000194462
7.77908e-05
3.87325e-05
4.94205e-05
4.94212e-05
3.87383e-05
7.77675e-05
0.000174287
0.000194459
4.64282e-05
0.000194459
4.64187e-05
7.77902e-05
3.87324e-05
4.94183e-05
4.94191e-05
3.87382e-05
3.81478e-05
3.81599e-05
0.00014516
3.8151e-05
3.81635e-05
2.45858e-05
2.45857e-05
2.45829e-05
2.4583e-05
0.000144977
3.81526e-05
3.8166e-05
3.81493e-05
3.81624e-05
2.45855e-05
2.45856e-05
7.778e-05
0.000194457
4.64146e-05
0.000174306
7.77577e-05
0.000194457
4.64243e-05
3.87289e-05
4.9419e-05
3.87227e-05
4.94182e-05
3.87283e-05
4.94191e-05
3.87223e-05
4.94183e-05
7.7759e-05
0.000174303
0.000194457
4.64286e-05
0.000194457
4.64191e-05
7.77818e-05
7.7758e-05
0.000174306
0.000194456
4.64258e-05
0.000194457
4.64163e-05
7.77806e-05
3.87245e-05
4.9418e-05
4.94188e-05
3.87306e-05
3.8724e-05
4.94182e-05
4.94189e-05
3.873e-05
2.45855e-05
2.45854e-05
2.45845e-05
2.45844e-05
0.000144983
3.81669e-05
3.81635e-05
3.81635e-05
3.816e-05
2.45853e-05
2.45853e-05
2.45842e-05
2.45843e-05
2.45865e-05
2.45865e-05
2.45846e-05
2.45846e-05
3.81664e-05
3.81609e-05
0.00014516
3.81696e-05
3.81642e-05
2.45865e-05
2.45865e-05
2.45845e-05
2.45845e-05
0.000144977
3.8171e-05
3.81659e-05
3.81682e-05
3.81629e-05
3.87407e-05
4.94228e-05
3.8735e-05
4.94222e-05
7.77923e-05
4.6423e-05
0.00019446
0.000174287
7.77693e-05
4.64323e-05
0.00019446
7.77927e-05
4.64224e-05
0.000194458
0.000174282
7.77697e-05
4.64318e-05
0.000194458
3.87359e-05
4.94222e-05
4.94227e-05
3.87415e-05
3.87367e-05
4.94222e-05
4.94228e-05
3.87423e-05
7.77699e-05
0.000174287
4.64335e-05
0.00019446
4.64244e-05
0.000194461
7.77929e-05
7.77702e-05
0.000174281
4.64328e-05
0.000194458
4.64236e-05
0.000194458
7.77933e-05
3.81655e-05
3.81586e-05
0.000145176
3.81682e-05
3.81615e-05
2.4586e-05
2.4586e-05
2.45854e-05
2.45854e-05
0.000144991
3.81692e-05
3.81625e-05
3.81668e-05
3.81597e-05
2.4586e-05
2.45859e-05
7.77927e-05
4.64162e-05
0.000194458
0.000174305
7.77704e-05
4.64256e-05
0.000194458
3.87449e-05
4.94151e-05
3.87396e-05
4.94144e-05
7.77929e-05
0.000194452
4.64104e-05
0.000174273
7.77703e-05
0.000194452
4.64201e-05
3.87421e-05
4.9418e-05
4.94187e-05
3.87474e-05
7.77706e-05
0.000174305
4.64271e-05
0.000194458
4.64178e-05
0.000194458
7.7793e-05
3.87413e-05
4.94144e-05
4.94151e-05
3.87466e-05
7.77705e-05
0.000174273
0.000194452
4.64214e-05
0.000194452
4.64119e-05
7.77932e-05
3.874e-05
4.94211e-05
3.87343e-05
4.94204e-05
7.77907e-05
0.000194458
4.64202e-05
0.000174287
7.77681e-05
0.000194458
4.64296e-05
3.87399e-05
4.94189e-05
3.87342e-05
4.94183e-05
7.7769e-05
0.000174313
4.6428e-05
0.00019446
4.64187e-05
0.000194461
7.77919e-05
3.8736e-05
4.94204e-05
4.94211e-05
3.87416e-05
7.77687e-05
0.000174286
0.000194458
4.64307e-05
0.000194458
4.64215e-05
7.77914e-05
3.87359e-05
4.94183e-05
4.94189e-05
3.87415e-05
3.81509e-05
3.81648e-05
0.000145161
3.81541e-05
3.81681e-05
2.45854e-05
2.45854e-05
2.45828e-05
2.45828e-05
0.000144976
3.81553e-05
3.81697e-05
3.81523e-05
3.81668e-05
2.45854e-05
2.45853e-05
7.77811e-05
0.000194455
4.64178e-05
0.000174305
7.77585e-05
0.000194455
4.64272e-05
3.87322e-05
4.94186e-05
3.87262e-05
4.9418e-05
3.87317e-05
4.94188e-05
3.87257e-05
4.94182e-05
7.77599e-05
0.000174302
0.000194454
4.64313e-05
0.000194456
4.64221e-05
7.77828e-05
7.77591e-05
0.000174304
0.000194454
4.64284e-05
0.000194455
4.64192e-05
7.77817e-05
3.87278e-05
4.9418e-05
4.94186e-05
3.87338e-05
3.87273e-05
4.94182e-05
4.94188e-05
3.87333e-05
2.45852e-05
2.45852e-05
2.45841e-05
2.45842e-05
0.000144981
3.81701e-05
3.81668e-05
3.81674e-05
3.81641e-05
2.45852e-05
2.45851e-05
2.45842e-05
2.45841e-05
2.45864e-05
2.45865e-05
2.45844e-05
2.45845e-05
3.81695e-05
3.81644e-05
0.000145171
3.81719e-05
3.81669e-05
2.45866e-05
2.45864e-05
2.45846e-05
2.45844e-05
0.000144985
3.81727e-05
3.81678e-05
3.81704e-05
3.81655e-05
3.87436e-05
4.94228e-05
3.87382e-05
4.94223e-05
7.77933e-05
4.64256e-05
0.000194461
0.000174287
7.77705e-05
4.64345e-05
0.000194461
7.77936e-05
4.64247e-05
0.000194458
0.000174281
7.77708e-05
4.64337e-05
0.000194458
3.87388e-05
4.94224e-05
4.94228e-05
3.8744e-05
3.87395e-05
4.94225e-05
4.94228e-05
3.87447e-05
7.77709e-05
0.000174287
4.64354e-05
0.00019446
4.64268e-05
0.000194461
7.77938e-05
7.77712e-05
0.000174281
4.64346e-05
0.000194458
4.64257e-05
0.000194458
7.77941e-05
3.81677e-05
3.81607e-05
0.000145175
3.817e-05
3.81634e-05
2.45859e-05
2.4586e-05
2.45856e-05
2.45854e-05
0.000144989
3.81709e-05
3.81646e-05
3.81686e-05
3.81618e-05
2.45861e-05
2.45859e-05
7.77931e-05
4.64192e-05
0.000194458
0.000174305
7.77709e-05
4.64283e-05
0.000194457
3.8748e-05
4.94151e-05
3.87429e-05
4.94145e-05
7.77933e-05
0.000194451
4.64131e-05
0.000174273
7.77708e-05
0.000194451
4.64225e-05
3.87451e-05
4.94183e-05
4.94187e-05
3.875e-05
7.77711e-05
0.000174305
4.64293e-05
0.000194457
4.64205e-05
0.000194458
7.77936e-05
3.87443e-05
4.94147e-05
4.94151e-05
3.87492e-05
7.7771e-05
0.000174272
0.000194451
4.64236e-05
0.000194451
4.64144e-05
7.77937e-05
3.87429e-05
4.94211e-05
3.87375e-05
4.94205e-05
7.77917e-05
0.000194457
4.64227e-05
0.000174285
7.77692e-05
0.000194457
4.64317e-05
3.87428e-05
4.94189e-05
3.87374e-05
4.94184e-05
7.77699e-05
0.000174312
4.643e-05
0.000194458
4.64209e-05
0.000194459
7.77926e-05
3.87388e-05
4.94207e-05
4.94211e-05
3.8744e-05
7.77696e-05
0.000174285
0.000194456
4.64326e-05
0.000194456
4.64238e-05
7.77921e-05
3.87387e-05
4.94185e-05
4.94189e-05
3.87439e-05
3.81535e-05
3.81683e-05
0.000145161
3.81563e-05
3.81709e-05
2.45853e-05
2.45854e-05
2.45829e-05
2.45827e-05
0.000144976
3.81573e-05
3.81717e-05
3.81545e-05
3.81694e-05
2.45854e-05
2.45853e-05
7.77821e-05
0.000194454
4.64203e-05
0.000174304
7.77597e-05
0.000194454
4.64294e-05
3.87351e-05
4.94186e-05
3.87293e-05
4.94181e-05
3.87346e-05
4.94189e-05
3.87288e-05
4.94183e-05
7.77609e-05
0.0001743
0.000194453
4.64333e-05
0.000194453
4.64246e-05
7.77836e-05
7.77601e-05
0.000174303
0.000194453
4.64303e-05
0.000194453
4.64215e-05
7.77825e-05
3.87306e-05
4.94183e-05
4.94187e-05
3.87362e-05
3.87301e-05
4.94185e-05
4.94189e-05
3.87356e-05
2.45851e-05
2.45852e-05
2.45841e-05
2.45842e-05
0.00014498
3.81716e-05
3.81684e-05
3.81694e-05
3.81662e-05
2.45853e-05
2.45851e-05
2.45843e-05
2.45841e-05
2.45865e-05
2.45869e-05
2.45845e-05
2.45848e-05
3.81717e-05
3.81668e-05
0.00014517
3.81742e-05
3.81692e-05
2.45873e-05
2.45866e-05
2.45853e-05
2.45845e-05
0.000144985
3.8177e-05
3.81718e-05
3.81744e-05
3.81693e-05
3.87455e-05
4.94229e-05
3.87405e-05
4.94228e-05
7.77943e-05
4.64282e-05
0.00019446
0.000174287
7.77716e-05
4.64365e-05
0.00019446
7.77947e-05
4.64271e-05
0.000194457
0.00017428
7.77719e-05
4.64356e-05
0.000194457
3.87409e-05
4.94231e-05
4.9423e-05
3.87458e-05
3.87416e-05
4.94232e-05
4.94231e-05
3.87465e-05
7.77728e-05
0.000174287
4.64378e-05
0.00019446
4.64302e-05
0.000194461
7.77956e-05
7.77731e-05
0.000174281
4.64368e-05
0.000194458
4.64291e-05
0.000194458
7.77959e-05
3.817e-05
3.81634e-05
0.000145174
3.81725e-05
3.81663e-05
2.4586e-05
2.45864e-05
2.45863e-05
2.45856e-05
0.000144989
3.81752e-05
3.8169e-05
3.81726e-05
3.81662e-05
2.45868e-05
2.45861e-05
7.7794e-05
4.6422e-05
0.000194457
0.000174305
7.77718e-05
4.64304e-05
0.000194457
3.875e-05
4.94152e-05
3.87454e-05
4.9415e-05
7.77941e-05
0.000194451
4.64159e-05
0.000174272
7.77716e-05
0.000194451
4.64247e-05
3.87473e-05
4.9419e-05
4.9419e-05
3.87518e-05
7.77729e-05
0.000174305
4.64317e-05
0.000194457
4.6424e-05
0.000194458
7.77951e-05
3.87465e-05
4.94153e-05
4.94153e-05
3.8751e-05
7.77727e-05
0.000174272
0.000194451
4.64261e-05
0.000194451
4.6418e-05
7.77952e-05
3.87447e-05
4.94212e-05
3.87397e-05
4.9421e-05
7.77925e-05
0.000194455
4.64252e-05
0.000174285
7.77702e-05
0.000194455
4.64337e-05
3.87447e-05
4.9419e-05
3.87396e-05
4.94189e-05
7.77714e-05
0.00017431
4.64323e-05
0.000194459
4.64243e-05
0.000194458
7.77939e-05
3.87408e-05
4.94214e-05
4.94214e-05
3.87456e-05
7.77712e-05
0.000174285
0.000194456
4.64349e-05
0.000194456
4.64272e-05
7.77935e-05
3.87407e-05
4.94193e-05
4.94191e-05
3.87456e-05
3.81561e-05
3.81708e-05
0.000145161
3.81592e-05
3.81732e-05
2.45853e-05
2.45857e-05
2.45835e-05
2.45828e-05
0.000144976
3.8162e-05
3.81759e-05
3.8159e-05
3.81733e-05
2.45861e-05
2.45854e-05
7.77828e-05
0.000194453
4.64229e-05
0.000174304
7.77607e-05
0.000194453
4.64314e-05
3.87369e-05
4.94187e-05
3.87315e-05
4.94186e-05
3.87364e-05
4.94189e-05
3.8731e-05
4.94188e-05
7.77624e-05
0.0001743
0.000194455
4.64356e-05
0.000194454
4.64279e-05
7.77847e-05
7.77617e-05
0.000174304
0.000194454
4.64326e-05
0.000194454
4.64249e-05
7.77838e-05
3.87325e-05
4.9419e-05
4.94189e-05
3.87378e-05
3.87321e-05
4.94191e-05
4.9419e-05
3.87373e-05
2.45851e-05
2.45855e-05
2.45841e-05
2.45845e-05
0.000144979
3.81758e-05
3.81727e-05
3.81732e-05
3.81701e-05
2.4586e-05
2.45852e-05
2.45849e-05
2.45842e-05
2.45867e-05
2.45877e-05
2.45847e-05
2.45857e-05
3.8178e-05
3.81728e-05
0.00014517
3.81798e-05
3.81747e-05
2.4588e-05
2.45868e-05
2.4586e-05
2.45848e-05
0.000144985
3.81813e-05
3.81763e-05
3.81806e-05
3.81755e-05
3.87476e-05
4.94234e-05
3.87431e-05
4.94237e-05
7.77971e-05
4.64322e-05
0.000194461
0.000174287
7.77744e-05
4.64389e-05
0.000194461
7.77974e-05
4.64309e-05
0.000194459
0.000174281
7.77747e-05
4.64377e-05
0.000194459
3.87429e-05
4.94238e-05
4.94233e-05
3.87465e-05
3.87435e-05
4.9424e-05
4.94235e-05
3.87472e-05
7.77748e-05
0.000174288
4.64391e-05
0.000194462
4.64335e-05
0.000194462
7.77976e-05
7.7775e-05
0.000174281
4.64379e-05
0.00019446
4.64322e-05
0.00019446
7.77979e-05
3.81761e-05
3.81697e-05
0.000145174
3.81778e-05
3.81717e-05
2.45862e-05
2.45873e-05
2.4587e-05
2.45858e-05
0.000144988
3.81791e-05
3.81729e-05
3.81786e-05
3.81722e-05
2.45876e-05
2.45864e-05
7.77965e-05
4.6426e-05
0.000194457
0.000174305
7.77743e-05
4.64328e-05
0.000194457
3.87521e-05
4.94156e-05
3.8748e-05
4.94158e-05
7.77967e-05
0.00019445
4.642e-05
0.000174271
7.77741e-05
0.00019445
4.64271e-05
3.87492e-05
4.94198e-05
4.94193e-05
3.87525e-05
7.77746e-05
0.000174306
4.64332e-05
0.000194457
4.64275e-05
0.000194458
7.7797e-05
3.87484e-05
4.9416e-05
4.94156e-05
3.87517e-05
7.77745e-05
0.000174272
0.000194452
4.64274e-05
0.000194451
4.64213e-05
7.77972e-05
3.87467e-05
4.94217e-05
3.87423e-05
4.9422e-05
7.77947e-05
0.000194457
4.64291e-05
0.000174285
7.77725e-05
0.000194457
4.64359e-05
3.87467e-05
4.94194e-05
3.87422e-05
4.94197e-05
7.77729e-05
0.00017431
4.64333e-05
0.00019446
4.64274e-05
0.00019446
7.77954e-05
3.87426e-05
4.94222e-05
4.94218e-05
3.87463e-05
7.77727e-05
0.000174285
0.000194458
4.64361e-05
0.000194458
4.64304e-05
7.77951e-05
3.87426e-05
4.942e-05
4.94195e-05
3.87463e-05
3.81627e-05
3.81768e-05
0.00014516
3.81648e-05
3.81787e-05
2.45855e-05
2.45865e-05
2.45843e-05
2.45831e-05
0.000144976
3.81661e-05
3.81803e-05
3.81652e-05
3.81796e-05
2.45869e-05
2.45856e-05
7.7785e-05
0.000194455
4.64267e-05
0.000174304
7.77629e-05
0.000194455
4.64336e-05
3.87388e-05
4.94191e-05
3.8734e-05
4.94194e-05
3.87383e-05
4.94193e-05
3.87336e-05
4.94196e-05
7.77636e-05
0.0001743
0.000194453
4.64368e-05
0.000194455
4.64311e-05
7.77861e-05
7.7763e-05
0.000174304
0.000194456
4.64338e-05
0.000194455
4.6428e-05
7.77853e-05
3.87342e-05
4.94196e-05
4.94192e-05
3.87382e-05
3.87339e-05
4.94198e-05
4.94193e-05
3.8738e-05
2.45854e-05
2.45864e-05
2.45843e-05
2.45854e-05
0.000144979
3.81799e-05
3.8177e-05
3.81793e-05
3.81763e-05
2.45867e-05
2.45855e-05
2.45857e-05
2.45844e-05
2.45868e-05
2.45885e-05
2.45848e-05
2.45864e-05
3.81823e-05
3.81775e-05
0.00014517
3.81822e-05
3.81778e-05
2.4589e-05
2.4587e-05
2.45869e-05
2.45849e-05
0.000144985
3.81843e-05
3.81805e-05
3.81845e-05
3.81803e-05
3.87449e-05
4.94233e-05
3.8742e-05
4.94244e-05
7.7796e-05
4.64348e-05
0.00019446
0.000174289
7.77748e-05
4.64393e-05
0.000194459
7.77964e-05
4.64334e-05
0.000194459
0.000174283
7.77752e-05
4.64378e-05
0.000194458
3.87392e-05
4.9425e-05
4.94231e-05
3.87421e-05
3.874e-05
4.94254e-05
4.94235e-05
3.8743e-05
7.77746e-05
0.000174289
4.64395e-05
0.000194457
4.64369e-05
0.000194458
7.77938e-05
7.7775e-05
0.000174283
4.64377e-05
0.000194456
4.64352e-05
0.000194457
7.77943e-05
3.81801e-05
3.81736e-05
0.000145173
3.81799e-05
3.81737e-05
2.45864e-05
2.4588e-05
2.45878e-05
2.45859e-05
0.000144988
3.81823e-05
3.81763e-05
3.81824e-05
3.81759e-05
2.45884e-05
2.45865e-05
7.77962e-05
4.64289e-05
0.000194459
0.000174307
7.77748e-05
4.64336e-05
0.000194459
3.87498e-05
4.94154e-05
3.8747e-05
4.94163e-05
7.77964e-05
0.000194454
4.64226e-05
0.000174273
7.77747e-05
0.000194454
4.64276e-05
3.87462e-05
4.9421e-05
4.94191e-05
3.87492e-05
7.77755e-05
0.000174307
4.64343e-05
0.000194462
4.64313e-05
0.000194461
7.77954e-05
3.87454e-05
4.94172e-05
4.94154e-05
3.87483e-05
7.77754e-05
0.000174274
0.000194454
4.64283e-05
0.000194454
4.64249e-05
7.77955e-05
3.8744e-05
4.94216e-05
3.87411e-05
4.94226e-05
7.77937e-05
0.000194459
4.64316e-05
0.000174287
7.77727e-05
0.00019446
4.64362e-05
3.8744e-05
4.94193e-05
3.87411e-05
4.94203e-05
7.77731e-05
0.000174307
4.64331e-05
0.000194457
4.64303e-05
0.000194458
7.77928e-05
3.87391e-05
4.94236e-05
4.94218e-05
3.87421e-05
7.77728e-05
0.000174287
0.000194459
4.64365e-05
0.00019446
4.64337e-05
7.77921e-05
3.8739e-05
4.94212e-05
4.94193e-05
3.8742e-05
3.81669e-05
3.81813e-05
0.00014516
3.81673e-05
3.81815e-05
2.45856e-05
2.45872e-05
2.45852e-05
2.45832e-05
0.000144975
3.81696e-05
3.81835e-05
3.81693e-05
3.81838e-05
2.45878e-05
2.45857e-05
7.77841e-05
0.000194457
4.64293e-05
0.000174306
7.7763e-05
0.000194457
4.6434e-05
3.87365e-05
4.9419e-05
3.87333e-05
4.94199e-05
3.87357e-05
4.94191e-05
3.87324e-05
4.94201e-05
7.77641e-05
0.000174299
0.000194453
4.64375e-05
0.000194454
4.64346e-05
7.77845e-05
7.77633e-05
0.000174306
0.000194455
4.64343e-05
0.000194457
4.64314e-05
7.7783e-05
3.87319e-05
4.94207e-05
4.94189e-05
3.87359e-05
3.87305e-05
4.94211e-05
4.94192e-05
3.8734e-05
2.45855e-05
2.45871e-05
2.45845e-05
2.45861e-05
0.000144979
3.81831e-05
3.81802e-05
3.81832e-05
3.81803e-05
2.45876e-05
2.45856e-05
2.45866e-05
2.45846e-05
2.45871e-05
2.45892e-05
2.45851e-05
2.45873e-05
3.81875e-05
3.81837e-05
0.00014517
3.81846e-05
3.81806e-05
2.4589e-05
2.45867e-05
2.45872e-05
2.45848e-05
0.000144983
3.81809e-05
3.81761e-05
3.81886e-05
3.81844e-05
3.874e-05
4.94239e-05
3.87387e-05
4.94266e-05
7.77876e-05
4.64394e-05
0.000194456
0.000174287
7.77721e-05
4.6439e-05
0.000194455
7.7788e-05
4.64373e-05
0.000194454
0.000174277
7.77725e-05
4.64369e-05
0.000194454
3.87335e-05
4.94279e-05
4.94241e-05
3.87344e-05
3.87344e-05
4.94281e-05
4.94244e-05
3.87352e-05
7.77655e-05
0.000174284
4.64378e-05
0.000194452
4.64414e-05
0.000194454
7.77779e-05
7.77658e-05
0.000174275
4.64355e-05
0.00019445
4.64391e-05
0.000194453
7.7778e-05
3.81856e-05
3.81794e-05
0.000145169
3.81821e-05
3.81785e-05
2.45866e-05
2.45889e-05
2.45879e-05
2.45855e-05
0.000144981
3.81773e-05
3.81764e-05
3.81859e-05
3.81826e-05
2.45888e-05
2.45864e-05
7.77915e-05
4.64344e-05
0.000194463
0.000174309
7.77746e-05
4.64346e-05
0.000194463
3.87466e-05
4.94157e-05
3.87447e-05
4.94185e-05
7.77916e-05
0.000194452
4.64279e-05
0.000174273
7.77744e-05
0.00019445
4.64286e-05
3.87425e-05
4.94239e-05
4.94201e-05
3.87428e-05
7.77703e-05
0.000174307
4.64337e-05
0.000194458
4.64372e-05
0.000194462
7.77832e-05
3.87417e-05
4.94202e-05
4.94164e-05
3.8742e-05
7.77701e-05
0.00017427
0.000194449
4.6428e-05
0.00019445
4.64308e-05
7.77833e-05
3.87392e-05
4.94222e-05
3.87379e-05
4.94248e-05
7.7786e-05
0.000194457
4.64362e-05
0.000174282
7.77708e-05
0.000194455
4.6436e-05
3.87391e-05
4.94197e-05
3.87378e-05
4.94225e-05
7.7765e-05
0.000174304
4.64313e-05
0.000194454