/*--------------------------------*- C++ -*----------------------------------*\
| =========                 |                                                 |
| \\      /  F ield         | OpenFOAM: The Open Source CFD Toolbox           |
|  \\    /   O peration     | Version:  2206                                  |
|   \\  /    A nd           | Website:  www.openfoam.com                      |
|    \\/     M anipulation  |                                                 |
\*---------------------------------------------------------------------------*/
FoamFile
{
    version     2.0;
    format      ascii;
    arch        "LSB;label=32;scalar=64";
    class       volVectorField;
    location    "38";
    object      U;
}
// * * * * * * * * * * * * * * * * * * * * * * * * * * * * * * * * * * * * * //

dimensions      [0 1 -1 0 0 0 0];

internalField   nonuniform List<vector> 
28673
(
(-6.21494e-07 9.58078e-07 0.103955)
(-4.84371e-05 -4.84435e-05 0.103777)
(-9.23147e-07 -9.25163e-07 0.104087)
(-6.15261e-07 9.52502e-07 0.103955)
(9.5572e-07 -6.09787e-07 0.103955)
(-4.84357e-05 -4.84425e-05 0.103777)
(-9.28114e-07 -9.28624e-07 0.104087)
(-6.05769e-07 9.46585e-07 0.103955)
(9.49327e-07 -6.00726e-07 0.103955)
(-4.84283e-05 -4.84373e-05 0.103777)
(-9.36618e-07 -9.38074e-07 0.104087)
(-5.92126e-07 9.35332e-07 0.103955)
(9.35968e-07 -5.8611e-07 0.103955)
(-4.8415e-05 -4.84265e-05 0.103777)
(-9.51316e-07 -9.50834e-07 0.104087)
(-5.83335e-07 9.21411e-07 0.103955)
(9.19996e-07 -5.71104e-07 0.103955)
(-4.83356e-05 -4.83462e-05 0.103777)
(-9.60996e-07 -9.63894e-07 0.104087)
(-6.09845e-07 9.63616e-07 0.103955)
(9.73288e-07 -6.07538e-07 0.103955)
(-4.82931e-05 -4.83014e-05 0.103777)
(-8.41206e-07 -8.33232e-07 0.104088)
(-7.49738e-07 1.00888e-06 0.103955)
(1.01783e-06 -7.64598e-07 0.103955)
(-4.80038e-05 -4.80052e-05 0.103777)
(-8.30055e-07 -7.64305e-07 0.104088)
(-1.04943e-06 1.25013e-06 0.103955)
(1.13765e-06 -9.62972e-07 0.103955)
(-4.77487e-05 -4.77356e-05 0.103776)
(-5.88618e-07 -6.26876e-07 0.104089)
(-1.45004e-06 1.44808e-06 0.103955)
(1.54345e-06 -1.50784e-06 0.103955)
(-4.7031e-05 -4.70522e-05 0.103776)
(-5.24722e-07 -5.36726e-07 0.104091)
(-2.23698e-06 2.09028e-06 0.103954)
(2.09544e-06 -2.23956e-06 0.103954)
(-4.55411e-05 -4.5568e-05 0.103777)
(-5.07837e-07 -4.87971e-07 0.104093)
(-3.92552e-06 3.47572e-06 0.103953)
(3.4537e-06 -3.90489e-06 0.103952)
(-4.17872e-05 -4.17846e-05 0.103778)
(-5.94638e-06 -5.88657e-06 0.104091)
(-2.57832e-06 3.75308e-06 0.103947)
(3.71454e-06 -2.55583e-06 0.103947)
(-2.69398e-05 -2.69117e-05 0.103781)
(-4.04991e-05 -4.03696e-05 0.104027)
(4.26934e-05 -3.37271e-05 0.103908)
(-3.38127e-05 4.26796e-05 0.103908)
(4.52792e-05 4.53288e-05 0.103754)
(-9.91709e-07 6.57524e-07 0.103955)
(5.09663e-05 -5.09409e-05 0.103787)
(-6.1933e-07 9.57823e-07 0.103955)
(-5.09579e-05 -5.09328e-05 0.103787)
(9.85558e-07 6.46023e-07 0.103955)
(-9.92394e-07 6.58995e-07 0.103955)
(9.86751e-07 6.36012e-07 0.103955)
(-9.89083e-07 6.55074e-07 0.103955)
(-4.8438e-05 4.84061e-05 0.103777)
(5.09574e-05 -5.09317e-05 0.103787)
(6.20971e-07 9.58767e-07 0.103955)
(6.48999e-07 -9.87556e-07 0.103955)
(-6.55453e-07 -9.76314e-07 0.103955)
(-6.17081e-07 9.54699e-07 0.103955)
(-6.51058e-07 -9.75665e-07 0.103955)
(-5.09241e-05 5.09593e-05 0.103787)
(-9.55305e-07 -6.30896e-07 0.103955)
(9.58402e-07 -6.12056e-07 0.103955)
(-9.5395e-07 -6.26255e-07 0.103955)
(5.09207e-05 5.09495e-05 0.103787)
(4.84415e-05 4.84245e-05 0.103777)
(-5.09565e-05 -5.0929e-05 0.103787)
(9.8475e-07 6.3819e-07 0.103955)
(-9.8744e-07 6.52553e-07 0.103955)
(9.85933e-07 6.32567e-07 0.103955)
(-9.88941e-07 6.52755e-07 0.103955)
(-4.84292e-05 4.83977e-05 0.103777)
(5.09608e-05 -5.09349e-05 0.103787)
(6.19286e-07 9.57477e-07 0.103955)
(6.44153e-07 -9.86273e-07 0.103955)
(6.17814e-07 9.59363e-07 0.103955)
(6.44624e-07 -9.87293e-07 0.103955)
(-6.49429e-07 -9.74269e-07 0.103955)
(-6.14811e-07 9.55015e-07 0.103955)
(-6.47987e-07 -9.76189e-07 0.103955)
(4.84198e-05 -4.84556e-05 0.103777)
(-5.09266e-05 5.09609e-05 0.103787)
(-9.51636e-07 -6.25161e-07 0.103955)
(9.57686e-07 -6.08481e-07 0.103955)
(-9.53062e-07 -6.24498e-07 0.103955)
(5.09245e-05 5.0951e-05 0.103787)
(4.84297e-05 4.84151e-05 0.103777)
(-5.09516e-05 -5.09264e-05 0.103787)
(9.78549e-07 6.29994e-07 0.103955)
(-9.80925e-07 6.43726e-07 0.103955)
(9.9262e-07 6.34114e-07 0.103955)
(-9.91234e-07 6.54106e-07 0.103955)
(-4.84214e-05 4.83904e-05 0.103777)
(5.09613e-05 -5.09341e-05 0.103787)
(6.09464e-07 9.52337e-07 0.103955)
(6.34576e-07 -9.80774e-07 0.103955)
(6.22578e-07 9.64324e-07 0.103955)
(6.48938e-07 -9.91396e-07 0.103955)
(-6.40023e-07 -9.68971e-07 0.103955)
(-6.15841e-07 9.58117e-07 0.103955)
(-6.49582e-07 -9.82433e-07 0.103955)
(4.84107e-05 -4.84471e-05 0.103777)
(-5.09248e-05 5.09591e-05 0.103787)
(-9.45372e-07 -6.17656e-07 0.103955)
(9.62922e-07 -6.11619e-07 0.103955)
(-9.57094e-07 -6.29019e-07 0.103955)
(5.0924e-05 5.09482e-05 0.103787)
(4.84173e-05 4.83995e-05 0.103777)
(-5.09192e-05 -5.08904e-05 0.103787)
(9.67021e-07 6.14458e-07 0.103955)
(-9.68645e-07 6.29486e-07 0.103955)
(9.9209e-07 6.38986e-07 0.103955)
(-9.89625e-07 6.57954e-07 0.103955)
(-4.84082e-05 4.83772e-05 0.103777)
(5.09321e-05 -5.09036e-05 0.103787)
(5.94429e-07 9.38484e-07 0.103955)
(6.176e-07 -9.67794e-07 0.103955)
(6.28098e-07 9.66217e-07 0.103955)
(6.60175e-07 -9.96324e-07 0.103955)
(-6.24425e-07 -9.57224e-07 0.103955)
(-6.17698e-07 9.57421e-07 0.103955)
(-6.5231e-07 -9.80472e-07 0.103955)
(4.83975e-05 -4.84336e-05 0.103777)
(-5.08884e-05 5.09235e-05 0.103787)
(-9.31364e-07 -6.04285e-07 0.103955)
(9.68022e-07 -6.17471e-07 0.103955)
(-9.5526e-07 -6.30838e-07 0.103955)
(5.08919e-05 5.09161e-05 0.103787)
(4.83379e-05 4.83245e-05 0.103777)
(-5.08035e-05 -5.07778e-05 0.103787)
(9.48188e-07 6.04808e-07 0.103955)
(-9.53673e-07 6.22248e-07 0.103955)
(9.821e-07 5.96543e-07 0.103955)
(-9.74302e-07 6.0862e-07 0.103955)
(-4.83258e-05 4.82969e-05 0.103777)
(5.08177e-05 -5.0793e-05 0.103787)
(5.81817e-07 9.1973e-07 0.103955)
(6.07024e-07 -9.50293e-07 0.103955)
(5.88892e-07 9.54552e-07 0.103955)
(6.20583e-07 -9.86817e-07 0.103955)
(-6.12669e-07 -9.3651e-07 0.103955)
(-5.71342e-07 9.41035e-07 0.103955)
(-6.11727e-07 -9.70341e-07 0.103955)
(4.83243e-05 -4.8357e-05 0.103777)
(-5.0773e-05 5.08066e-05 0.103787)
(-9.11983e-07 -5.88558e-07 0.103955)
(9.59703e-07 -5.81834e-07 0.103955)
(-9.4783e-07 -5.87709e-07 0.103955)
(5.0774e-05 5.08029e-05 0.103787)
(4.8294e-05 4.82751e-05 0.103777)
(-5.06928e-05 -5.06614e-05 0.103787)
(9.97167e-07 6.31399e-07 0.103955)
(-9.97718e-07 6.46435e-07 0.103955)
(9.01648e-07 4.94902e-07 0.103954)
(-9.1542e-07 5.05015e-07 0.103954)
(-4.82831e-05 4.82501e-05 0.103777)
(5.06833e-05 -5.06597e-05 0.103787)
(6.18927e-07 9.71759e-07 0.103955)
(6.46544e-07 -1.00606e-06 0.103955)
(4.57837e-07 8.7748e-07 0.103954)
(4.83606e-07 -8.97249e-07 0.103954)
(-6.42561e-07 -9.84109e-07 0.103955)
(-4.68877e-07 8.78199e-07 0.103954)
(-5.09849e-07 -8.99441e-07 0.103954)
(4.82786e-05 -4.83131e-05 0.103777)
(-5.0668e-05 5.06962e-05 0.103787)
(-9.62213e-07 -6.18495e-07 0.103955)
(8.67782e-07 -4.67529e-07 0.103954)
(-8.82788e-07 -4.80267e-07 0.103954)
(5.06508e-05 5.06835e-05 0.103787)
(4.79868e-05 4.79776e-05 0.103777)
(-5.03458e-05 -5.02831e-05 0.103787)
(1.04308e-06 7.8993e-07 0.103955)
(-1.04589e-06 7.83695e-07 0.103955)
(7.94396e-07 3.46895e-07 0.103954)
(-8.76867e-07 3.91794e-07 0.103954)
(-4.79998e-05 4.79671e-05 0.103777)
(5.02787e-05 -5.0257e-05 0.103787)
(7.58949e-07 1.03479e-06 0.103955)
(7.88654e-07 -1.05968e-06 0.103955)
(2.86094e-07 7.92791e-07 0.103955)
(3.06108e-07 -7.92714e-07 0.103954)
(-7.97535e-07 -1.03704e-06 0.103955)
(-3.58739e-07 8.36741e-07 0.103955)
(-3.66503e-07 -8.02642e-07 0.103954)
(4.79629e-05 -4.80034e-05 0.103777)
(-5.03188e-05 5.03352e-05 0.103787)
(-1.02435e-06 -7.68962e-07 0.103955)
(7.57414e-07 -2.93872e-07 0.103955)
(-8.06561e-07 -3.17481e-07 0.103954)
(5.02761e-05 5.0326e-05 0.103787)
(4.76956e-05 4.77216e-05 0.103776)
(-4.95079e-05 -4.94772e-05 0.103788)
(1.18804e-06 1.04141e-06 0.103955)
(-1.29082e-06 1.0816e-06 0.103955)
(6.54461e-07 1.7559e-07 0.103955)
(-6.14029e-07 1.65611e-07 0.103955)
(-4.7788e-05 4.77535e-05 0.103776)
(4.95644e-05 -4.9537e-05 0.103788)
(9.38268e-07 1.20763e-06 0.103955)
(9.41921e-07 -1.18689e-06 0.103955)
(1.65337e-07 6.3487e-07 0.103955)
(1.97519e-07 -6.69626e-07 0.103955)
(-1.05598e-06 -1.21085e-06 0.103955)
(-1.28488e-07 5.81202e-07 0.103955)
(-1.80984e-07 -6.38025e-07 0.103955)
(4.76646e-05 -4.77183e-05 0.103776)
(-4.94805e-05 4.95081e-05 0.103788)
(-1.22176e-06 -1.0083e-06 0.103955)
(6.31661e-07 -1.55561e-07 0.103955)
(-6.11355e-07 -1.61151e-07 0.103955)
(4.94918e-05 4.95146e-05 0.103788)
(4.70709e-05 4.70285e-05 0.103776)
(-4.86111e-05 -4.86297e-05 0.103789)
(1.55e-06 1.49912e-06 0.103955)
(-1.47634e-06 1.49112e-06 0.103955)
(-2.81729e-08 -7.04199e-07 0.103956)
(5.17899e-08 -6.86409e-07 0.103956)
(-4.69863e-05 4.69561e-05 0.103777)
(4.8649e-05 -4.86175e-05 0.103789)
(1.53516e-06 1.49029e-06 0.103955)
(1.57425e-06 -1.55436e-06 0.103955)
(-6.90125e-07 -9.3325e-08 0.103956)
(-6.47552e-07 3.91373e-08 0.103956)
(-1.50687e-06 -1.51585e-06 0.103955)
(7.31489e-07 -7.82597e-08 0.103956)
(7.00358e-07 4.48806e-08 0.103956)
(4.70639e-05 -4.7082e-05 0.103776)
(-4.85796e-05 4.86367e-05 0.103789)
(-1.47381e-06 -1.50101e-06 0.103955)
(-4.7699e-08 7.11463e-07 0.103956)
(9.19629e-08 7.13018e-07 0.103956)
(4.86212e-05 4.86272e-05 0.103789)
(4.55667e-05 4.5527e-05 0.103777)
(-4.5626e-05 -4.55784e-05 0.103788)
(2.12066e-06 2.2602e-06 0.103954)
(-2.11552e-06 2.27907e-06 0.103954)
(-1.34214e-06 -2.08217e-06 0.103958)
(1.31797e-06 -2.06639e-06 0.103958)
(-4.55472e-05 4.55236e-05 0.103777)
(4.56174e-05 -4.55846e-05 0.103788)
(2.25665e-06 2.07578e-06 0.103954)
(2.28362e-06 -2.11189e-06 0.103954)
(-2.12801e-06 -1.35395e-06 0.103958)
(-2.0938e-06 1.33935e-06 0.103958)
(-2.25974e-06 -2.10576e-06 0.103954)
(2.10823e-06 -1.34396e-06 0.103958)
(2.08203e-06 1.33523e-06 0.103958)
(4.55573e-05 -4.55705e-05 0.103777)
(-4.56071e-05 4.56216e-05 0.103788)
(-2.07306e-06 -2.24745e-06 0.103954)
(-1.36792e-06 2.12304e-06 0.103958)
(1.35266e-06 2.11374e-06 0.103958)
(4.55769e-05 4.56123e-05 0.103788)
(4.17636e-05 4.17792e-05 0.103778)
(-3.6742e-05 -3.66799e-05 0.103786)
(3.48087e-06 3.9419e-06 0.103952)
(-3.49983e-06 3.96411e-06 0.103952)
(-5.25935e-06 -6.80028e-06 0.103961)
(5.23004e-06 -6.79527e-06 0.103961)
(-4.17806e-05 4.1769e-05 0.103778)
(3.67093e-05 -3.66949e-05 0.103786)
(3.90693e-06 3.47031e-06 0.103952)
(3.9308e-06 -3.48128e-06 0.103952)
(-6.85229e-06 -5.24446e-06 0.103961)
(-6.82554e-06 5.24942e-06 0.103961)
(-3.9463e-06 -3.47337e-06 0.103952)
(6.82634e-06 -5.22793e-06 0.103961)
(6.81158e-06 5.25399e-06 0.103961)
(4.17576e-05 -4.17902e-05 0.103778)
(-3.67209e-05 3.6714e-05 0.103786)
(-3.46521e-06 -3.91832e-06 0.103952)
(-5.26325e-06 6.83007e-06 0.103961)
(5.24983e-06 6.83543e-06 0.103961)
(3.6687e-05 3.6717e-05 0.103786)
(2.68775e-05 2.69491e-05 0.103781)
(-4.17896e-05 -4.16169e-05 0.103754)
(3.71636e-06 2.60985e-06 0.103947)
(-3.7481e-06 2.62371e-06 0.103947)
(-3.43135e-05 -5.33224e-05 0.103938)
(3.43006e-05 -5.33603e-05 0.103938)
(-2.69265e-05 2.69436e-05 0.103781)
(4.17816e-05 -4.16228e-05 0.103754)
(2.52687e-06 3.73885e-06 0.103947)
(2.55661e-06 -3.71725e-06 0.103947)
(-5.35253e-05 -3.42179e-05 0.103939)
(-5.34603e-05 3.4311e-05 0.103939)
(-2.5803e-06 -3.7117e-06 0.103947)
(5.34988e-05 -3.4225e-05 0.103939)
(5.34576e-05 3.43233e-05 0.103939)
(2.68911e-05 -2.69269e-05 0.103781)
(-4.17245e-05 4.17798e-05 0.103754)
(-3.71993e-06 -2.56193e-06 0.103947)
(-3.42956e-05 5.34849e-05 0.103939)
(3.4306e-05 5.35109e-05 0.103939)
(4.17229e-05 4.178e-05 0.103754)
(-4.53441e-05 -4.51588e-05 0.103754)
(-3.38364e-05 -4.25057e-05 0.103908)
(3.38223e-05 -4.25371e-05 0.103908)
(4.53332e-05 -4.51609e-05 0.103754)
(-4.27167e-05 -3.37202e-05 0.103908)
(-4.2658e-05 3.38249e-05 0.103908)
(4.04908e-05 -4.0367e-05 0.104027)
(-4.04654e-05 4.05043e-05 0.104027)
(4.04857e-05 4.05177e-05 0.104027)
(4.26581e-05 3.38407e-05 0.103908)
(-4.52751e-05 4.53294e-05 0.103754)
(3.38237e-05 4.27124e-05 0.103908)
(9.39777e-08 -1.03859e-05 0.0998696)
(6.06295e-07 7.41191e-06 0.0905227)
(-1.25731e-07 9.99303e-06 0.0998429)
(-1.23262e-06 -7.05179e-06 0.0905549)
(-2.20387e-06 3.33208e-06 0.0777769)
(2.21803e-06 -3.20694e-06 0.0778086)
(-1.04673e-05 8.40895e-08 0.0998684)
(-7.0444e-06 -1.21089e-06 0.0905547)
(9.23731e-07 -9.13793e-07 0.104087)
(9.25563e-07 9.07569e-07 0.104087)
(-9.21963e-07 -9.22849e-07 0.104087)
(9.27042e-07 -9.1721e-07 0.104087)
(-9.13404e-07 9.26437e-07 0.104087)
(9.2661e-07 9.09639e-07 0.104087)
(1.7395e-05 1.60252e-07 0.103032)
(-1.66876e-05 4.65473e-06 0.10042)
(-7.9697e-07 -2.311e-07 0.104043)
(-6.21011e-07 9.5727e-07 0.103955)
(-1.76009e-05 -1.78972e-07 0.103018)
(1.58422e-05 -5.24452e-06 0.100461)
(-7.97247e-07 -2.31769e-07 0.104043)
(-3.06118e-06 2.14408e-06 0.0778099)
(1.5485e-07 1.7371e-05 0.103032)
(-2.30054e-07 -7.89566e-07 0.104043)
(9.57321e-07 -6.16119e-07 0.103955)
(-1.7641e-07 -1.75875e-05 0.103018)
(-2.3036e-07 -7.94747e-07 0.104043)
(-5.28834e-06 1.59104e-05 0.10046)
(-4.88282e-06 -5.91225e-06 0.096346)
(-5.90251e-06 -4.87759e-06 0.0963449)
(5.09189e-05 5.09479e-05 0.103787)
(4.40467e-06 5.74375e-06 0.0963823)
(5.74315e-06 4.39765e-06 0.0963807)
(9.52409e-08 -1.04012e-05 0.0998696)
(6.09096e-07 7.38518e-06 0.0905227)
(-1.26053e-07 9.9872e-06 0.0998429)
(-1.22182e-06 -7.08542e-06 0.090555)
(-2.17833e-06 3.29982e-06 0.0777768)
(2.22788e-06 -3.23303e-06 0.0778087)
(-1.04742e-05 8.48633e-08 0.0998684)
(7.38667e-06 5.87131e-07 0.0905223)
(1.00732e-05 -1.1067e-07 0.0998435)
(-7.06952e-06 -1.21541e-06 0.0905547)
(9.29329e-07 -9.19646e-07 0.104087)
(-9.14952e-07 9.27609e-07 0.104087)
(9.30126e-07 9.10814e-07 0.104087)
(-9.23599e-07 -9.23188e-07 0.104087)
(9.27297e-07 -9.17332e-07 0.104087)
(-9.14367e-07 9.27112e-07 0.104087)
(9.27796e-07 9.09291e-07 0.104087)
(1.74129e-05 1.6125e-07 0.103032)
(-1.66778e-05 4.64661e-06 0.10042)
(-7.91063e-07 -2.34087e-07 0.104043)
(-6.15976e-07 9.54881e-07 0.103955)
(-1.75807e-05 -1.80933e-07 0.103018)
(1.58586e-05 -5.26226e-06 0.100461)
(-7.91036e-07 -2.34242e-07 0.104043)
(3.19713e-06 -2.11452e-06 0.0777734)
(-3.09981e-06 2.15973e-06 0.0778098)
(1.58327e-07 1.73909e-05 0.103032)
(-2.2823e-07 -7.84461e-07 0.104043)
(4.69712e-06 -1.67421e-05 0.10042)
(9.57665e-07 -6.09621e-07 0.103955)
(-1.73534e-07 -1.75673e-05 0.103018)
(-2.27946e-07 -7.88831e-07 0.104043)
(-5.30275e-06 1.59285e-05 0.10046)
(-4.88994e-06 -5.91326e-06 0.0963461)
(-5.90354e-06 -4.88338e-06 0.0963451)
(5.09222e-05 5.09495e-05 0.103787)
(4.39563e-06 5.7526e-06 0.0963824)
(5.75239e-06 4.38987e-06 0.0963808)
(1.00424e-07 -1.04138e-05 0.0998697)
(6.16583e-07 7.36353e-06 0.0905228)
(-1.23162e-07 9.96733e-06 0.0998429)
(-1.22543e-06 -7.08597e-06 0.0905552)
(-2.18029e-06 3.28666e-06 0.0777771)
(2.21829e-06 -3.23637e-06 0.077809)
(-1.04842e-05 8.64277e-08 0.0998685)
(7.35473e-06 5.94677e-07 0.0905224)
(1.00553e-05 -1.08134e-07 0.0998435)
(-7.07917e-06 -1.21197e-06 0.0905549)
(9.33508e-07 -9.23579e-07 0.104087)
(-9.19671e-07 9.32096e-07 0.104087)
(9.34554e-07 9.14121e-07 0.104087)
(-9.13756e-07 -9.15517e-07 0.104087)
(9.2091e-07 -9.10603e-07 0.104087)
(-9.05292e-07 9.18176e-07 0.104087)
(9.21011e-07 9.00636e-07 0.104087)
(1.74158e-05 1.62262e-07 0.103032)
(-1.66601e-05 4.63298e-06 0.10042)
(-7.77745e-07 -2.36849e-07 0.104043)
(-6.15158e-07 9.56553e-07 0.103955)
(-1.75615e-05 -1.80884e-07 0.103018)
(1.58594e-05 -5.27963e-06 0.100461)
(-7.90827e-07 -2.33737e-07 0.104043)
(3.17065e-06 -2.11389e-06 0.0777735)
(-3.1138e-06 2.15795e-06 0.0778099)
(1.58013e-07 1.73946e-05 0.103032)
(-2.31949e-07 -7.71721e-07 0.104043)
(4.68094e-06 -1.67202e-05 0.10042)
(9.60293e-07 -6.11251e-07 0.103955)
(-1.75786e-07 -1.75503e-05 0.103018)
(-2.27522e-07 -7.91263e-07 0.104043)
(-5.32319e-06 1.59294e-05 0.10046)
(-4.88785e-06 -5.91036e-06 0.0963461)
(-5.8982e-06 -4.88359e-06 0.0963451)
(5.09243e-05 5.095e-05 0.103787)
(4.39421e-06 5.76982e-06 0.0963824)
(5.77179e-06 4.38619e-06 0.0963809)
(2.04555e-07 -1.04308e-05 0.0998698)
(6.48344e-07 7.28663e-06 0.0905226)
(-1.41722e-07 9.94655e-06 0.0998428)
(-1.27527e-06 -6.91409e-06 0.0905566)
(-2.19613e-06 3.28505e-06 0.0777772)
(2.28221e-06 -3.20801e-06 0.0778093)
(-1.05054e-05 1.93158e-07 0.0998686)
(7.28625e-06 6.32219e-07 0.0905222)
(1.00373e-05 -1.3088e-07 0.0998433)
(-6.89958e-06 -1.25382e-06 0.0905562)
(9.44168e-07 -9.34031e-07 0.104087)
(-9.29738e-07 9.40829e-07 0.104087)
(9.44427e-07 9.23085e-07 0.104087)
(-8.90046e-07 -8.9145e-07 0.104086)
(8.97988e-07 -8.86993e-07 0.104086)
(-8.79858e-07 8.94463e-07 0.104086)
(8.99768e-07 8.80109e-07 0.104086)
(1.73486e-05 2.06287e-07 0.103032)
(-1.65474e-05 4.63979e-06 0.100419)
(-7.51846e-07 -2.44845e-07 0.104043)
(-6.24765e-07 9.65883e-07 0.103955)
(-1.75028e-05 -1.97707e-07 0.103018)
(1.56075e-05 -5.30649e-06 0.100462)
(-8.08235e-07 -2.25163e-07 0.104043)
(3.15652e-06 -2.12728e-06 0.0777736)
(-3.08087e-06 2.21974e-06 0.0778103)
(2.02646e-07 1.73275e-05 0.103032)
(-2.3868e-07 -7.4667e-07 0.104043)
(4.68924e-06 -1.66164e-05 0.10042)
(9.66376e-07 -6.21022e-07 0.103955)
(-1.88966e-07 -1.74972e-05 0.103018)
(-2.17971e-07 -8.11067e-07 0.104043)
(-5.3429e-06 1.5673e-05 0.10046)
(-4.8113e-06 -5.96329e-06 0.0963462)
(-5.94729e-06 -4.81136e-06 0.0963451)
(5.09192e-05 5.09432e-05 0.103787)
(4.17532e-06 5.85182e-06 0.0963823)
(5.85638e-06 4.16583e-06 0.0963808)
(1.11148e-06 -9.56944e-06 0.0998703)
(7.89249e-07 6.57706e-06 0.0905174)
(-6.47589e-07 9.6704e-06 0.0998426)
(-1.7371e-06 -5.78914e-06 0.090568)
(-2.65054e-06 2.94103e-06 0.0777768)
(3.18726e-06 -2.35736e-06 0.0778132)
(-9.63671e-06 1.09893e-06 0.0998691)
(6.56043e-06 7.75116e-07 0.0905169)
(9.75046e-06 -6.42506e-07 0.0998431)
(-5.76507e-06 -1.71403e-06 0.0905677)
(9.56241e-07 -9.45341e-07 0.104087)
(-9.43908e-07 9.56674e-07 0.104087)
(9.59468e-07 9.41127e-07 0.104087)
(-9.12064e-07 -9.18898e-07 0.104086)
(9.28448e-07 -9.18693e-07 0.104086)
(-9.01907e-07 9.16968e-07 0.104086)
(9.25042e-07 9.05012e-07 0.104086)
(1.65689e-05 4.60531e-07 0.103032)
(-1.55347e-05 4.38467e-06 0.100417)
(-7.19237e-07 -2.57526e-07 0.104043)
(-6.22597e-07 9.63477e-07 0.103955)
(-1.7127e-05 -3.64965e-07 0.103018)
(1.42687e-05 -4.69964e-06 0.100465)
(-8.24824e-07 -2.08416e-07 0.104043)
(2.83395e-06 -2.57563e-06 0.0777731)
(-2.23959e-06 3.11966e-06 0.077814)
(4.59389e-07 1.65552e-05 0.103032)
(-2.5179e-07 -7.099e-07 0.104043)
(4.44362e-06 -1.55985e-05 0.100418)
(9.57734e-07 -6.09842e-07 0.103955)
(-3.52567e-07 -1.7125e-05 0.103018)
(-2.03222e-07 -8.19535e-07 0.104043)
(-4.74329e-06 1.4334e-05 0.100464)
(-3.65224e-06 -5.94039e-06 0.0963464)
(-5.92912e-06 -3.65104e-06 0.0963453)
(5.08011e-05 5.08286e-05 0.103787)
(2.34029e-06 5.65539e-06 0.0963847)
(5.65571e-06 2.33716e-06 0.0963832)
(1.76325e-06 -1.07551e-05 0.0998785)
(1.87362e-06 5.8623e-06 0.0904973)
(-1.6721e-06 8.67246e-06 0.0998384)
(-2.25198e-06 -6.54918e-06 0.090591)
(-3.04327e-06 1.24917e-06 0.0777645)
(2.0675e-06 -1.3722e-06 0.0778342)
(-1.08382e-05 1.76094e-06 0.0998773)
(5.85388e-06 1.88353e-06 0.0904968)
(8.7626e-06 -1.66315e-06 0.0998389)
(-6.54156e-06 -2.25279e-06 0.0905907)
(9.66567e-07 -9.57253e-07 0.104087)
(-9.51045e-07 9.64115e-07 0.104087)
(9.70893e-07 9.51916e-07 0.104087)
(-9.73077e-07 -9.63601e-07 0.104085)
(9.70365e-07 -9.65349e-07 0.104085)
(-9.66854e-07 9.6904e-07 0.104085)
(9.65434e-07 9.56343e-07 0.104085)
(1.77736e-05 5.579e-07 0.103034)
(-1.54213e-05 3.18923e-06 0.100408)
(-7.17907e-07 -2.6367e-07 0.104044)
(-5.16838e-07 9.16331e-07 0.103955)
(-1.65552e-05 -5.95562e-07 0.103017)
(1.52097e-05 -3.5089e-06 0.100477)
(-7.50021e-07 -2.04685e-07 0.104042)
(1.1361e-06 -2.99152e-06 0.0777607)
(-1.28039e-06 2.02706e-06 0.0778349)
(5.52756e-07 1.77654e-05 0.103034)
(-2.56457e-07 -7.13925e-07 0.104044)
(3.23444e-06 -1.54906e-05 0.100408)
(9.08392e-07 -4.99118e-07 0.103955)
(-5.82932e-07 -1.65539e-05 0.103017)
(-2.04213e-07 -7.37984e-07 0.104042)
(-3.55016e-06 1.52837e-05 0.100476)
(-2.92716e-06 -4.83006e-06 0.0963333)
(-4.8311e-06 -2.92753e-06 0.0963322)
(5.08686e-05 5.08976e-05 0.103787)
(3.10334e-06 3.09884e-06 0.0964043)
(3.10412e-06 3.10632e-06 0.0964027)
(1.11462e-06 -1.10106e-05 0.0998824)
(-4.47017e-07 7.4411e-06 0.0904739)
(-1.3066e-06 1.1967e-05 0.0998298)
(-1.0912e-06 -6.19664e-06 0.0906168)
(-1.33553e-06 2.23053e-06 0.0777415)
(1.48918e-06 -1.50851e-06 0.0778554)
(-1.11476e-05 1.16344e-06 0.0998813)
(7.41526e-06 -4.05341e-07 0.0904734)
(1.20602e-05 -1.2915e-06 0.0998303)
(-6.20798e-06 -1.05297e-06 0.0906164)
(8.40396e-07 -8.34857e-07 0.104088)
(-8.32817e-07 8.36353e-07 0.104088)
(8.38877e-07 8.27234e-07 0.104088)
(-1.00128e-06 -9.63285e-07 0.104085)
(9.41115e-07 -9.39448e-07 0.104085)
(-9.96237e-07 9.9288e-07 0.104085)
(9.58883e-07 9.75566e-07 0.104085)
(1.57896e-05 4.98932e-07 0.103034)
(-1.49751e-05 1.83331e-06 0.100397)
(-7.97954e-07 -2.67367e-07 0.104044)
(-3.7688e-07 8.07322e-07 0.103954)
(-1.77211e-05 -4.51335e-07 0.103015)
(1.27211e-05 -2.14853e-06 0.100486)
(-7.40543e-07 -1.78979e-07 0.104042)
(2.11506e-06 -1.32463e-06 0.0777377)
(-1.40411e-06 1.51031e-06 0.0778558)
(4.47414e-07 1.57895e-05 0.103034)
(-2.73869e-07 -8.01407e-07 0.104044)
(1.86749e-06 -1.50699e-05 0.100398)
(8.20949e-07 -3.87514e-07 0.103954)
(-4.44873e-07 -1.77303e-05 0.103015)
(-1.87896e-07 -7.40227e-07 0.104042)
(-2.22969e-06 1.28185e-05 0.100485)
(-2.83561e-06 -1.76424e-06 0.0963128)
(-1.77778e-06 -2.82908e-06 0.0963119)
(5.04381e-05 5.04783e-05 0.103787)
(1.2655e-06 1.23969e-06 0.0964245)
(1.21994e-06 1.27352e-06 0.0964229)
(2.57768e-06 -9.54022e-06 0.0998962)
(1.22679e-06 3.85269e-06 0.0904399)
(-2.3384e-06 8.8742e-06 0.0998238)
(-2.57251e-06 -2.28648e-06 0.0906632)
(-6.75182e-07 -4.07057e-07 0.0777276)
(-3.21384e-07 2.66416e-06 0.0778716)
(-9.72321e-06 2.65881e-06 0.0998952)
(3.77922e-06 1.28835e-06 0.0904393)
(8.94397e-06 -2.30129e-06 0.0998243)
(-2.36186e-06 -2.5324e-06 0.0906631)
(7.38719e-07 -7.37768e-07 0.104088)
(-8.3322e-07 8.09474e-07 0.104088)
(7.64373e-07 7.8418e-07 0.104088)
(-8.9494e-07 -9.0021e-07 0.104084)
(9.20958e-07 -9.12465e-07 0.104085)
(-8.874e-07 9.01824e-07 0.104084)
(9.10035e-07 8.8795e-07 0.104084)
(1.55856e-05 7.61163e-07 0.103037)
(-1.15533e-05 -4.67171e-08 0.100385)
(-8.83956e-07 -2.40467e-07 0.104044)
(-3.48397e-07 7.86702e-07 0.103955)
(-1.6248e-05 -7.55246e-07 0.103013)
(9.49345e-06 -1.22227e-07 0.100504)
(-8.87145e-07 -1.00615e-07 0.104041)
(-4.84873e-07 -5.74233e-07 0.0777251)
(2.75397e-06 -4.89737e-07 0.0778733)
(6.97795e-07 1.5611e-05 0.103037)
(-3.10167e-07 -8.24522e-07 0.104044)
(-1.51294e-07 -1.15702e-05 0.100385)
(6.95708e-07 -2.85847e-07 0.103955)
(-7.96358e-07 -1.62184e-05 0.103013)
(-1.6901e-07 -8.4967e-07 0.104041)
(-2.82758e-07 9.59908e-06 0.100503)
(1.77831e-07 2.44141e-06 0.0962857)
(2.43384e-06 1.90128e-07 0.0962848)
(5.00768e-05 5.01251e-05 0.103788)
(-1.83032e-06 -4.61426e-06 0.0964605)
(-4.62035e-06 -1.82199e-06 0.0964588)
(3.93724e-06 -8.07146e-06 0.0999234)
(1.73014e-06 9.36957e-08 0.0903725)
(-3.61995e-06 8.35278e-06 0.0998021)
(-3.35695e-06 3.32868e-06 0.0907453)
(2.49538e-06 -6.68494e-06 0.0777029)
(-4.15724e-06 1.03479e-05 0.0778947)
(-8.01171e-06 3.86043e-06 0.0999226)
(7.88602e-08 1.62977e-06 0.0903726)
(8.39246e-06 -3.67451e-06 0.0998027)
(3.48027e-06 -3.42267e-06 0.0907456)
(6.54337e-07 -6.41752e-07 0.104089)
(-5.70473e-07 6.04559e-07 0.104089)
(6.38834e-07 6.04861e-07 0.104089)
(-9.80263e-07 -1.01e-06 0.104084)
(1.01784e-06 -1.00907e-06 0.104084)
(-9.65942e-07 9.90596e-07 0.104084)
(1.01294e-06 9.95092e-07 0.104084)
(1.40853e-05 9.14256e-07 0.103042)
(-7.43636e-06 -2.56014e-06 0.100363)
(-9.66087e-07 -3.1782e-07 0.104046)
(2.652e-07 2.68288e-07 0.103956)
(-1.52509e-05 -1.02425e-06 0.10301)
(3.90755e-06 2.89085e-06 0.100528)
(-7.22676e-07 -7.58891e-08 0.104041)
(-6.75669e-06 2.52704e-06 0.0777007)
(1.04107e-05 -4.18543e-06 0.0778957)
(9.77771e-07 1.4059e-05 0.103042)
(-2.60531e-07 -9.95147e-07 0.104046)
(-2.46182e-06 -7.48321e-06 0.100363)
(3.61657e-07 2.13729e-07 0.103956)
(-1.00204e-06 -1.52642e-05 0.10301)
(-6.51295e-09 -7.57306e-07 0.104041)
(2.97726e-06 3.92571e-06 0.100527)
(3.93523e-06 8.94284e-06 0.0962337)
(8.96896e-06 3.91065e-06 0.0962328)
(4.93401e-05 4.9343e-05 0.103788)
(-6.99047e-06 -1.2426e-05 0.0965221)
(-1.23823e-05 -7.00122e-06 0.0965204)
(5.71988e-06 -5.63564e-06 0.0999749)
(3.42998e-06 -8.28935e-06 0.0902478)
(-5.19408e-06 6.24312e-06 0.0997614)
(-4.64753e-06 1.31764e-05 0.0909016)
(7.51743e-06 -1.83315e-05 0.077673)
(-1.04943e-05 2.46671e-05 0.0779237)
(-5.60752e-06 5.74799e-06 0.0999742)
(-8.31664e-06 3.43603e-06 0.0902474)
(6.29438e-06 -5.22377e-06 0.0997615)
(1.32737e-05 -4.62249e-06 0.0909014)
(5.40145e-07 -5.31178e-07 0.104091)
(-5.1456e-07 5.28273e-07 0.104091)
(5.36948e-07 5.27591e-07 0.104091)
(-7.85437e-07 -7.68019e-07 0.104082)
(7.7027e-07 -7.64378e-07 0.104082)
(-7.78298e-07 7.82432e-07 0.104082)
(7.68122e-07 7.78802e-07 0.104082)
(1.14205e-05 1.17246e-06 0.103047)
(-3.18409e-07 -5.78032e-06 0.100333)
(-9.39538e-07 -3.6516e-07 0.104048)
(1.26981e-06 -5.58422e-07 0.103957)
(-1.28137e-05 -1.20261e-06 0.103006)
(-3.8837e-06 6.68345e-06 0.100563)
(-6.09549e-07 9.98737e-08 0.104039)
(-1.83557e-05 7.55414e-06 0.0776708)
(2.4682e-05 -1.0487e-05 0.077924)
(1.16915e-06 1.14161e-05 0.103047)
(-3.4585e-07 -9.41971e-07 0.104048)
(-5.72159e-06 -3.82114e-07 0.100332)
(-5.71121e-07 1.27381e-06 0.103957)
(-1.16607e-06 -1.2837e-05 0.103006)
(1.01419e-07 -6.08286e-07 0.104039)
(6.65857e-06 -3.85395e-06 0.100562)
(1.01792e-05 1.86338e-05 0.0961462)
(1.86326e-05 1.01592e-05 0.0961453)
(4.75479e-05 4.75712e-05 0.103789)
(-1.35814e-05 -2.38005e-05 0.0966289)
(-2.37791e-05 -1.35748e-05 0.0966271)
(7.19106e-06 -1.13132e-06 0.100068)
(5.63329e-06 -2.27893e-05 0.090014)
(-6.96355e-06 2.57652e-06 0.0996878)
(-5.46874e-06 3.07517e-05 0.0911987)
(1.79327e-05 -3.99427e-05 0.0776461)
(-2.51867e-05 5.37575e-05 0.0779417)
(-1.0718e-06 7.22002e-06 0.100068)
(-2.29226e-05 5.66263e-06 0.0900136)
(2.53097e-06 -6.95266e-06 0.0996876)
(3.08995e-05 -5.45184e-06 0.0911985)
(4.91005e-07 -4.83186e-07 0.104093)
(-5.01738e-07 5.05177e-07 0.104093)
(4.89678e-07 5.04586e-07 0.104093)
(-2.5246e-06 -2.48039e-06 0.104075)
(2.50188e-06 -2.47898e-06 0.104075)
(-2.50423e-06 2.51976e-06 0.104075)
(2.49365e-06 2.52463e-06 0.104075)
(7.93376e-06 1.41377e-06 0.103045)
(9.09602e-06 -9.95976e-06 0.100292)
(-9.12676e-07 -4.87897e-07 0.10405)
(3.50704e-06 -2.61332e-06 0.10396)
(-9.12136e-06 -1.39685e-06 0.103004)
(-1.3541e-05 1.06919e-05 0.10061)
(-1.90328e-07 3.03426e-07 0.104036)
(-3.99271e-05 1.79536e-05 0.0776449)
(5.37864e-05 -2.52154e-05 0.0779414)
(1.38891e-06 7.93217e-06 0.103045)
(-5.00149e-07 -9.00816e-07 0.10405)
(-9.97057e-06 9.0736e-06 0.100292)
(-2.63916e-06 3.52684e-06 0.103959)
(-1.41462e-06 -9.12711e-06 0.103005)
(2.82673e-07 -1.77131e-07 0.104036)
(1.0653e-05 -1.35242e-05 0.10061)
(1.93162e-05 3.36168e-05 0.0960033)
(3.35834e-05 1.93003e-05 0.0960025)
(4.22034e-05 4.22349e-05 0.103787)
(-2.55442e-05 -4.0805e-05 0.0968053)
(-4.07781e-05 -2.55106e-05 0.0968036)
(4.90199e-06 -5.64187e-06 0.100249)
(1.51091e-06 -5.03323e-05 0.0895756)
(-7.89901e-06 -5.49314e-06 0.0995589)
(3.39001e-06 5.88798e-05 0.0917842)
(4.66157e-05 -9.27901e-05 0.0776395)
(-6.87691e-05 0.000129256 0.0779625)
(-5.62459e-06 4.92297e-06 0.100249)
(-5.06374e-05 1.53545e-06 0.0895751)
(-5.52676e-06 -7.89367e-06 0.0995587)
(5.90867e-05 3.31041e-06 0.0917842)
(5.92184e-06 -5.88338e-06 0.104091)
(-5.91624e-06 5.93896e-06 0.104091)
(5.91158e-06 5.95014e-06 0.104091)
(-2.68176e-05 -2.6711e-05 0.104023)
(2.68112e-05 -2.67138e-05 0.104023)
(-2.67882e-05 2.68302e-05 0.104023)
(2.68027e-05 2.6839e-05 0.104023)
(2.17443e-05 -5.64244e-07 0.103018)
(2.26322e-05 -1.47795e-05 0.100249)
(5.10324e-06 -2.17381e-06 0.104051)
(1.856e-05 -1.26395e-05 0.103959)
(7.34742e-07 -1.60993e-06 0.103024)
(-1.01884e-05 5.12882e-06 0.100679)
(1.19746e-05 -2.04456e-06 0.104021)
(-9.28088e-05 4.66579e-05 0.0776386)
(0.000128961 -6.86202e-05 0.0779621)
(-6.08206e-07 2.17097e-05 0.103018)
(-2.20508e-06 5.1007e-06 0.104051)
(-1.48572e-05 2.26313e-05 0.100248)
(-1.2695e-05 1.85687e-05 0.103959)
(-1.6454e-06 7.28695e-07 0.103024)
(-2.08457e-06 1.19404e-05 0.104021)
(5.01366e-06 -1.0174e-05 0.100679)
(4.01134e-05 5.43585e-05 0.0957697)
(5.42318e-05 4.0133e-05 0.0957689)
(3.30459e-05 3.31343e-05 0.10378)
(-4.82204e-05 -5.70595e-05 0.0971286)
(-5.71206e-05 -4.80368e-05 0.0971267)
(-2.03833e-05 -0.00011289 0.100887)
(-0.000131922 -0.000185368 0.0892497)
(-2.0964e-05 -7.79627e-05 0.0994215)
(-0.00026792 -0.000116574 0.0939257)
(0.000283058 -0.00043822 0.0784212)
(0.000152752 -0.000327369 0.0869467)
(-0.000113033 -2.02529e-05 0.100887)
(-0.00018621 -0.000131272 0.0892486)
(-7.86646e-05 -2.08838e-05 0.0994211)
(-0.000116746 -0.000267906 0.0939251)
(-9.50061e-06 -9.40261e-06 0.103993)
(-1.27139e-05 -3.4946e-05 0.104049)
(-3.50824e-05 -1.26185e-05 0.104049)
(-4.24329e-05 -4.22803e-05 0.103943)
(-1.07965e-05 -1.07015e-05 0.104058)
(-1.06189e-05 -3.85923e-05 0.103978)
(-3.87424e-05 -1.05261e-05 0.103978)
(0.0001155 2.49283e-06 0.102952)
(0.000116969 -7.29714e-05 0.100444)
(5.78702e-05 -1.58656e-05 0.103989)
(5.56736e-05 -4.67951e-05 0.103845)
(8.01392e-05 -1.00236e-05 0.103106)
(7.15008e-05 -6.28052e-05 0.100785)
(5.83605e-05 -1.25135e-05 0.103926)
(-0.000438297 0.00028278 0.0784208)
(-0.000327273 0.000152561 0.0869465)
(2.48144e-06 0.000115417 0.102952)
(-1.59338e-05 5.78308e-05 0.103989)
(-7.30953e-05 0.000116948 0.100444)
(-4.69178e-05 5.5666e-05 0.103845)
(-1.00282e-05 8.0096e-05 0.103106)
(-1.2587e-05 5.8338e-05 0.103926)
(-6.29476e-05 7.13112e-05 0.100785)
(0.00025687 9.09613e-05 0.0958441)
(9.09011e-05 0.000257057 0.0958438)
(5.93705e-05 5.93905e-05 0.103697)
(7.59777e-05 -4.60698e-05 0.0993539)
(-4.62638e-05 7.61133e-05 0.0993544)
(1.22038e-06 -7.06386e-06 0.0905548)
(5.2839e-06 -1.58884e-05 0.10046)
(2.19354e-06 -3.18276e-06 0.0778087)
(5.68399e-06 -4.35149e-06 0.0963817)
(4.27331e-06 -5.63506e-06 0.0963846)