/*--------------------------------*- C++ -*----------------------------------*\
| =========                 |                                                 |
| \\      /  F ield         | OpenFOAM: The Open Source CFD Toolbox           |
|  \\    /   O peration     | Version:  2206                                  |
|   \\  /    A nd           | Website:  www.openfoam.com                      |
|    \\/     M anipulation  |                                                 |
\*---------------------------------------------------------------------------*/
FoamFile
{
    version     2.0;
    format      ascii;
    arch        "LSB;label=32;scalar=64";
    class       volScalarField;
    location    "8";
    object      p;
}
// * * * * * * * * * * * * * * * * * * * * * * * * * * * * * * * * * * * * * //

dimensions      [0 2 -2 0 0 0 0];

internalField   nonuniform List<scalar> 
28673
(
0.000551743
0.000554402
0.000506017
0.000505996
0.000505994
0.000508655
0.000460257
0.000460233
0.000460236
0.000462893
0.000414493
0.00041447
0.00041447
0.000417129
0.000368729
0.000368706
0.000368706
0.000371366
0.000322966
0.000322943
0.000322943
0.000325603
0.000277202
0.00027718
0.000277179
0.000279839
0.000231437
0.000231414
0.000231414
0.000234074
0.000185671
0.000185648
0.000185648
0.000188308
0.000139904
0.000139884
0.000139883
0.000142542
9.41422e-05
9.41196e-05
9.41186e-05
9.67446e-05
4.90247e-05
4.83892e-05
4.83863e-05
5.08864e-05
1.14769e-05
1.18251e-05
1.18229e-05
1.14679e-05
0.000563183
0.000560529
0.000563183
0.000514779
0.000551743
0.000551743
0.000517432
0.000517433
0.000554402
0.000514782
0.000517431
0.00051743
0.000551744
0.000517433
0.000517433
0.000514778
0.000551743
0.00051743
0.000517432
0.00051478
0.000508654
0.000469021
0.000505994
0.000505996
0.000471676
0.000471674
0.000508656
0.00046902
0.000505994
0.000505994
0.000471677
0.000471678
0.000505995
0.000471675
0.000471676
0.000508653
0.000469022
0.000505995
0.000471678
0.000471676
0.00046902
0.000462893
0.000423256
0.000460234
0.000460233
0.00042591
0.00042591
0.000462892
0.000423256
0.000460235
0.000460236
0.00042591
0.00042591
0.000460234
0.00042591
0.00042591
0.000462894
0.000423256
0.000460234
0.000425911
0.00042591
0.000423256
0.000417129
0.000377493
0.00041447
0.00041447
0.000380147
0.000380147
0.000417129
0.000377493
0.000414469
0.00041447
0.000380147
0.000380147
0.00041447
0.000380147
0.000380147
0.000417129
0.000377493
0.000414469
0.000380147
0.000380147
0.000377493
0.000371366
0.000331729
0.000368706
0.000368706
0.000334384
0.000334384
0.000371366
0.00033173
0.000368706
0.000368706
0.000334383
0.000334384
0.000368706
0.000334384
0.000334384
0.000371366
0.000331729
0.000368706
0.000334384
0.000334384
0.000331729
0.000325602
0.000285966
0.000322943
0.000322943
0.00028862
0.00028862
0.000325602
0.000285966
0.000322943
0.000322943
0.00028862
0.00028862
0.000322943
0.00028862
0.000288621
0.000325603
0.000285966
0.000322943
0.00028862
0.00028862
0.000285966
0.000279839
0.000240201
0.000277179
0.000277179
0.000242856
0.000242856
0.000279839
0.000240202
0.000277179
0.000277179
0.000242856
0.000242856
0.00027718
0.000242856
0.000242856
0.000279839
0.000240201
0.000277179
0.000242856
0.000242856
0.000240201
0.000234074
0.000194435
0.000231414
0.000231414
0.000197089
0.000197089
0.000234074
0.000194435
0.000231414
0.000231414
0.000197089
0.000197089
0.000231414
0.000197089
0.000197089
0.000234074
0.000194434
0.000231414
0.000197089
0.000197089
0.000194435
0.000188308
0.00014867
0.000185648
0.000185648
0.000151324
0.000151324
0.000188307
0.00014867
0.000185648
0.000185648
0.000151324
0.000151324
0.000185648
0.000151324
0.000151324
0.000188307
0.000148669
0.000185648
0.000151324
0.000151324
0.00014867
0.000142542
0.000102901
0.000139884
0.000139884
0.00010557
0.00010557
0.000142542
0.000102902
0.000139884
0.000139883
0.00010557
0.000105569
0.000139884
0.00010557
0.00010557
0.000142542
0.000102901
0.000139884
0.000105569
0.000105569
0.000102901
9.67448e-05
5.71553e-05
9.41196e-05
9.41192e-05
5.97278e-05
5.97272e-05
9.6745e-05
5.71545e-05
9.41188e-05
9.41186e-05
5.97261e-05
5.97242e-05
9.41193e-05
5.9725e-05
5.97264e-05
9.67449e-05
5.71507e-05
9.41193e-05
5.97227e-05
5.97247e-05
5.71528e-05
5.08889e-05
1.53615e-05
4.83926e-05
4.83914e-05
1.76004e-05
1.75998e-05
5.08878e-05
1.53619e-05
4.83903e-05
4.8389e-05
1.7598e-05
1.75942e-05
4.83902e-05
1.75973e-05
1.75934e-05
5.08846e-05
1.53569e-05
4.83891e-05
1.7595e-05
1.75953e-05
1.53568e-05
1.14712e-05
1.1826e-05
1.18266e-05
1.14728e-05
1.18244e-05
1.18221e-05
1.14771e-05
1.14751e-05
1.14749e-05
1.18216e-05
1.14685e-05
1.18224e-05
0.000537469
0.000554595
0.000554591
0.000537465
0.000554602
0.00053747
0.000537464
0.000537462
0.000551767
0.000551767
0.000517454
0.000517455
0.000517453
0.000517454
0.000537539
0.000554561
0.00055175
0.000540305
0.000554537
0.000537504
0.000540312
0.000537469
0.000537537
0.00055175
0.000540304
0.000554536
0.000540311
0.000537497
0.000554596
0.000554596
0.000537652
0.000537464
0.000537464
0.000491735
0.000508853
0.00050885
0.000491729
0.00050886
0.000491719
0.000491727
0.000508851
0.000508847
0.000491726
0.000506018
0.000506017
0.000506017
0.000471699
0.000471698
0.0004717
0.000471698
0.000491791
0.000508823
0.000506002
0.000494559
0.000508792
0.000491763
0.000494563
0.000508853
0.000491726
0.000491791
0.000506
0.000508816
0.000494556
0.00050879
0.000494563
0.000491757
0.000508855
0.000508855
0.000491904
0.000491731
0.000491731
0.00044596
0.000463092
0.000463091
0.000445956
0.000463093
0.000445955
0.000445961
0.000463095
0.000463099
0.000445957
0.000460257
0.000460258
0.000460256
0.000425933
0.000425933
0.000425934
0.000425933
0.000446023
0.000463057
0.000460239
0.000448792
0.000463028
0.00044599
0.000448798
0.000463093
0.000445955
0.000446024
0.00046024
0.000463063
0.000448793
0.000463029
0.000448799
0.000445991
0.000463094
0.000463094
0.000446138
0.000445954
0.000445954
0.000400197
0.000417327
0.000417325
0.000400192
0.000417329
0.000400192
0.000400197
0.000417327
0.000417325
0.000400193
0.000414493
0.000414493
0.000414492
0.00038017
0.00038017
0.00038017
0.00038017
0.00040026
0.000417293
0.000414476
0.000403029
0.000417264
0.000400227
0.000403035
0.000417329
0.000400192
0.00040026
0.000414476
0.000417293
0.000403029
0.000417264
0.000403035
0.000400227
0.00041733
0.00041733
0.000400375
0.000400191
0.000400191
0.000354433
0.000371564
0.000371562
0.000354429
0.000371565
0.000354428
0.000354433
0.000371564
0.000371562
0.000354429
0.000368729
0.000368729
0.000368729
0.000334407
0.000334406
0.000334407
0.000334406
0.000354496
0.00037153
0.000368712
0.000357265
0.000371501
0.000354463
0.000357271
0.000371566
0.000354428
0.000354497
0.000368712
0.00037153
0.000357265
0.000371501
0.000357271
0.000354463
0.000371567
0.000371567
0.000354611
0.000354427
0.000354427
0.00030867
0.000325801
0.000325798
0.000308666
0.000325802
0.000308665
0.00030867
0.000325801
0.000325799
0.000308666
0.000322966
0.000322966
0.000322965
0.000288643
0.000288643
0.000288643
0.000288643
0.000308734
0.000325766
0.000322949
0.000311502
0.000325738
0.0003087
0.000311508
0.000325802
0.000308665
0.000308734
0.000322949
0.000325767
0.000311502
0.000325738
0.000311508
0.0003087
0.000325803
0.000325803
0.000308848
0.000308664
0.000308664
0.000262906
0.000280038
0.000280035
0.000262902
0.000280039
0.000262902
0.000262906
0.000280037
0.000280035
0.000262902
0.000277202
0.000277202
0.000277202
0.000242879
0.000242879
0.000242879
0.000242878
0.00026297
0.000280003
0.000277186
0.000265738
0.000279975
0.000262936
0.000265745
0.000280039
0.000262901
0.00026297
0.000277186
0.000280003
0.000265738
0.000279975
0.000265744
0.000262936
0.00028004
0.00028004
0.000263084
0.000262901
0.000262901
0.00021714
0.000234272
0.00023427
0.000217136
0.000234273
0.000217135
0.00021714
0.000234272
0.00023427
0.000217136
0.000231437
0.000231437
0.000231437
0.000197112
0.000197112
0.000197112
0.000197112
0.000217204
0.000234238
0.00023142
0.000219972
0.000234209
0.00021717
0.000219979
0.000234273
0.000217135
0.000217203
0.00023142
0.000234238
0.000219972
0.000234209
0.000219978
0.00021717
0.000234275
0.000234275
0.000217318
0.000217134
0.000217134
0.000171373
0.000188506
0.000188503
0.00017137
0.000188507
0.000171369
0.000171374
0.000188506
0.000188503
0.00017137
0.000185671
0.000185671
0.000185671
0.000151345
0.000151345
0.000151345
0.000151345
0.000171437
0.000188471
0.000185654
0.000174206
0.000188443
0.000171404
0.000174212
0.000188507
0.000171368
0.000171437
0.000185654
0.000188471
0.000174206
0.000188442
0.000174212
0.000171403
0.000188509
0.000188508
0.000171552
0.000171368
0.000171368
0.000125606
0.000142738
0.000142736
0.000125603
0.000142741
0.000125601
0.000125606
0.000142738
0.000142736
0.000125603
0.000139904
0.000139904
0.000139904
0.000105567
0.000105568
0.000105566
0.000105568
0.00012567
0.000142704
0.00013989
0.000128445
0.000142676
0.00012564
0.000128447
0.00014274
0.000125601
0.00012567
0.000139889
0.000142704
0.000128445
0.000142676
0.000128447
0.000125639
0.000142742
0.000142741
0.000125788
0.000125601
0.000125601
7.97849e-05
9.69307e-05
9.6937e-05
7.97923e-05
9.69633e-05
7.96526e-05
7.97834e-05
9.69282e-05
9.69365e-05
7.97906e-05
9.41432e-05
9.41411e-05
9.4142e-05
5.99705e-05
5.997e-05
5.99676e-05
5.9969e-05
7.98784e-05
9.6848e-05
9.41286e-05
8.26628e-05
9.68773e-05
7.99868e-05
8.26659e-05
9.69588e-05
7.96617e-05
7.98771e-05
9.41275e-05
9.68475e-05
8.26611e-05
9.68768e-05
8.2665e-05
7.99818e-05
9.6936e-05
9.69375e-05
7.99905e-05
7.98127e-05
7.98138e-05
3.30007e-05
5.072e-05
5.08678e-05
3.2364e-05
5.11996e-05
3.1681e-05
3.2991e-05
5.07044e-05
5.08575e-05
3.23577e-05
4.90244e-05
4.9021e-05
4.90225e-05
1.92598e-05
1.92591e-05
1.92562e-05
1.92566e-05
3.36338e-05
5.05979e-05
4.87202e-05
3.74363e-05
5.09214e-05
3.27112e-05
3.78573e-05
5.11853e-05
3.16905e-05
3.36351e-05
4.87172e-05
5.05923e-05
3.74321e-05
5.09224e-05
3.78539e-05
3.27075e-05
5.04655e-05
5.04662e-05
3.46329e-05
3.25302e-05
3.25267e-05
8.98683e-06
8.90386e-06
8.72483e-06
2.58178e-06
5.95993e-06
1.01259e-06
9.0043e-06
8.88236e-06
8.70592e-06
2.57495e-06
3.47294e-06
1.17457e-05
1.17438e-05
4.06278e-06
1.19611e-05
3.66123e-06
3.66067e-06
6.51191e-06
8.2424e-06
1.12713e-05
4.39908e-06
1.04958e-05
6.49286e-06
3.89939e-06
5.92033e-06
1.01853e-06
6.51949e-06
1.12708e-05
8.23837e-06
4.39914e-06
1.04953e-05
3.89997e-06
6.50162e-06
4.28751e-06
4.28784e-06
4.68615e-06
6.19283e-06
6.20696e-06
0.000560341
0.000560375
0.000560348
0.000560336
0.000560336
0.000560348
0.000560375
0.000560341
0.0005546
0.000537464
0.000537471
0.000554596
0.000537651
0.000537463
0.00053746
0.000514596
0.000531724
0.000514597
0.000531726
0.000531526
0.000514593
0.000514594
0.000531725
0.000531721
0.00053747
0.000554594
0.000554591
0.00053747
0.000537538
0.000554561
0.00055175
0.000540304
0.000554536
0.0005375
0.000540311
0.000537538
0.000554561
0.00055175
0.000540305
0.000554536
0.000537504
0.000540312
0.00053172
0.000514596
0.000531723
0.0005146
0.000531721
0.000514601
0.000531725
0.0005146
0.000531664
0.000528868
0.00051463
0.000517439
0.000531688
0.000528875
0.000514666
0.000531664
0.00052887
0.000514634
0.00051744
0.000531691
0.000528876
0.000514667
0.000554596
0.000554596
0.000537654
0.000537469
0.000537469
0.000554603
0.000537469
0.000514602
0.000531728
0.000531529
0.0005146
0.0005146
0.000531728
0.000531728
0.000514602
0.000531728
0.000537535
0.000540304
0.000537497
0.000540311
0.000537464
0.000537461
0.000537535
0.000540304
0.000540311
0.000537496
0.000531714
0.000514596
0.000531718
0.000514598
0.000531659
0.000528866
0.000514629
0.000517437
0.000531684
0.000528873
0.000514664
0.000531714
0.000514595
0.000531716
0.000514598
0.000531659
0.000528865
0.000517436
0.000514628
0.000528873
0.000531683
0.000514664
0.00053747
0.000554594
0.000554591
0.00053747
0.000537539
0.00055175
0.000554561
0.000540304
0.000554536
0.000540312
0.0005375
0.00053747
0.000554595
0.000554591
0.000537465
0.000531664
0.00052887
0.000514634
0.00051744
0.000531691
0.000528876
0.000514667
0.000531721
0.000514601
0.000531725
0.000514601
0.000531664
0.000528868
0.000517439
0.000514631
0.000528875
0.000531689
0.000514667
0.000531721
0.000514597
0.000531723
0.000514601
0.00053765
0.000537457
0.000537458
0.000537469
0.000514595
0.000531724
0.000531525
0.000514593
0.000514594
0.000531718
0.000531719
0.000514596
0.000531725
0.000537537
0.00055175
0.000554561
0.000540304
0.000554536
0.000540311
0.0005375
0.000537468
0.00055459
0.000537463
0.000537468
0.000554595
0.00055459
0.000537465
0.000531662
0.000528866
0.000517437
0.000514629
0.000528874
0.000531684
0.000514665
0.000531662
0.000528868
0.000517438
0.00051463
0.000528874
0.000531689
0.000514666
0.000531718
0.000514596
0.000531718
0.000514599
0.000531719
0.000514596
0.000531723
0.000514599
0.0005546
0.000537465
0.0005546
0.000537464
0.000531528
0.000514594
0.000514593
0.000531726
0.000531726
0.000514597
0.000531724
0.000514596
0.000531724
0.000508855
0.000491726
0.000508854
0.000491727
0.000508854
0.000508853
0.000491904
0.00049173
0.000491725
0.000468837
0.000485977
0.000468836
0.000485983
0.000485778
0.000468839
0.000468845
0.000485988
0.000485987
0.000491734
0.000508859
0.00050885
0.000491728
0.000491791
0.000508817
0.000506001
0.000494557
0.000508791
0.000491762
0.000494563
0.000491791
0.000508823
0.000506002
0.000494559
0.000508792
0.000491763
0.000494563
0.000485983
0.000468841
0.000485982
0.000468847
0.000485983
0.000468839
0.000485979
0.000468847
0.000485913
0.000483118
0.000468876
0.000471681
0.000485949
0.000483123
0.000468906
0.000485913
0.000483117
0.000468873
0.000471681
0.000485946
0.000483123
0.000468905
0.000508864
0.000508864
0.000491903
0.000491729
0.000491729
0.00050886
0.000491719
0.000468838
0.000485975
0.000485775
0.000468836
0.000468836
0.000485983
0.000485983
0.000468838
0.000485975
0.000491791
0.000508816
0.000506001
0.000494557
0.000508788
0.000491758
0.000494562
0.000491727
0.000508851
0.000508847
0.000491726
0.000491791
0.000506
0.000508815
0.000494556
0.000508789
0.000494562
0.000491757
0.000485979
0.000468845
0.000485982
0.000468855
0.000485915
0.000483118
0.00046888
0.000471683
0.000485946
0.000483123
0.000468908
0.000485979
0.000468846
0.000485983
0.000468855
0.000485915
0.000483118
0.000471683
0.000468883
0.000483123
0.000485946
0.000468908
0.000491735
0.000508859
0.00050885
0.000491728
0.000491791
0.000506002
0.000508818
0.000494557
0.000508792
0.000494563
0.000491763
0.000491735
0.000508854
0.00050885
0.00049173
0.000485913
0.000483117
0.000468873
0.000471681
0.000485946
0.000483123
0.000468905
0.000485983
0.000468839
0.000485979
0.000468847
0.000485913
0.000483118
0.000471681
0.000468875
0.000483123
0.000485949
0.000468905
0.000485984
0.00046884
0.000485982
0.000468847
0.000508852
0.000508853
0.000491904
0.000491724
0.000491724
0.000508853
0.000491727
0.000468838
0.000485984
0.000485778
0.000468847
0.000468846
0.000485987
0.000485987
0.000468836
0.000485984
0.000491791
0.000506001
0.000508817
0.000494557
0.00050879
0.000494563
0.000491762
0.000491735
0.000508851
0.000508849
0.000491727
0.000491735
0.000508853
0.000508849
0.00049173
0.000485913
0.000483117
0.000471682
0.000468881
0.000483123
0.000485946
0.000468907
0.000485913
0.000483118
0.000471682
0.000468876
0.000483123
0.000485949
0.000468907
0.000485984
0.000468845
0.000485983
0.000468849
0.000485984
0.000468841
0.000485982
0.000468848
0.000508856
0.000491726
0.000508855
0.000491726
0.000485777
0.000468838
0.000468839
0.000485988
0.000485988
0.000468837
0.000485977
0.000468837
0.000485977
0.000463092
0.000445955
0.000463091
0.000445955
0.000463094
0.000463098
0.000446138
0.000445954
0.000445954
0.000423073
0.00044021
0.000423073
0.00044021
0.000440011
0.000423072
0.000423072
0.000440211
0.000440211
0.00044596
0.000463092
0.000463091
0.000445956
0.000446023
0.000463058
0.00046024
0.000448792
0.000463028
0.00044599
0.000448798
0.000446023
0.000463057
0.000460239
0.000448792
0.000463028
0.00044599
0.000448798
0.000440207
0.000423074
0.000440209
0.000423078
0.000440207
0.000423074
0.000440209
0.000423078
0.000440146
0.000437351
0.000423108
0.000425917
0.000440174
0.000437357
0.000423142
0.000440146
0.000437351
0.000423108
0.000425917
0.000440175
0.000437357
0.000423142
0.000463093
0.000463093
0.000446138
0.000445954
0.000445954
0.000463093
0.000445954
0.000423073
0.00044021
0.00044001
0.000423072
0.000423073
0.000440212
0.000440211
0.000423073
0.00044021
0.000446024
0.000463062
0.000460241
0.000448792
0.000463029
0.000445991
0.000448799
0.000445961
0.000463097
0.000463099
0.000445957
0.000446024
0.000460241
0.000463064
0.000448793
0.000463029
0.000448799
0.000445991
0.000440208
0.000423074
0.000440209
0.000423078
0.000440146
0.000437351
0.000423108
0.000425917
0.000440175
0.000437358
0.000423142
0.000440208
0.000423074
0.000440209
0.000423078
0.000440146
0.000437351
0.000425917
0.000423108
0.000437358
0.000440175
0.000423142
0.00044596
0.000463092
0.000463091
0.000445956
0.000446023
0.000460239
0.000463058
0.000448792
0.000463028
0.000448798
0.00044599
0.00044596
0.000463092
0.000463091
0.000445956
0.000440146
0.000437351
0.000423108
0.000425917
0.000440174
0.000437357
0.000423142
0.000440207
0.000423074
0.000440209
0.000423078
0.000440146
0.000437351
0.000425917
0.000423108
0.000437357
0.000440174
0.000423142
0.000440207
0.000423074
0.000440209
0.000423078
0.0004631
0.0004631
0.000446138
0.000445955
0.000445954
0.000463091
0.000445955
0.000423073
0.000440211
0.000440011
0.000423073
0.000423072
0.000440211
0.000440212
0.000423073
0.00044021
0.000446024
0.00046024
0.000463059
0.000448792
0.000463028
0.000448799
0.00044599
0.000445961
0.000463095
0.000463092
0.000445956
0.000445961
0.000463092
0.000463092
0.000445956
0.000440146
0.000437352
0.000425917
0.000423108
0.000437358
0.000440175
0.000423142
0.000440146
0.000437351
0.000425917
0.000423108
0.000437358
0.000440175
0.000423142
0.000440207
0.000423074
0.000440209
0.000423079
0.000440207
0.000423074
0.000440209
0.000423079
0.000463092
0.000445955
0.000463092
0.000445955
0.000440011
0.000423072
0.000423072
0.000440211
0.000440211
0.000423073
0.00044021
0.000423073
0.00044021
0.000417328
0.000400192
0.000417328
0.000400192
0.00041733
0.00041733
0.000400375
0.000400191
0.000400191
0.00037731
0.000394447
0.00037731
0.000394447
0.000394247
0.000377309
0.000377309
0.000394448
0.000394448
0.000400197
0.000417327
0.000417325
0.000400193
0.00040026
0.000417293
0.000414476
0.000403029
0.000417264
0.000400226
0.000403035
0.00040026
0.000417293
0.000414476
0.000403029
0.000417265
0.000400227
0.000403035
0.000394444
0.000377311
0.000394446
0.000377315
0.000394444
0.000377311
0.000394446
0.000377315
0.000394383
0.000391588
0.000377345
0.000380153
0.000394411
0.000391594
0.000377378
0.000394383
0.000391588
0.000377345
0.000380153
0.000394412
0.000391594
0.000377378
0.00041733
0.00041733
0.000400375
0.000400191
0.000400191
0.000417329
0.000400191
0.00037731
0.000394447
0.000394247
0.000377309
0.000377309
0.000394449
0.000394448
0.00037731
0.000394447
0.00040026
0.000417293
0.000414476
0.000403029
0.000417264
0.000400226
0.000403035
0.000400197
0.000417327
0.000417325
0.000400193
0.00040026
0.000414476
0.000417293
0.000403029
0.000417264
0.000403035
0.000400227
0.000394444
0.000377311
0.000394446
0.000377315
0.000394383
0.000391588
0.000377345
0.000380153
0.000394411
0.000391594
0.000377379
0.000394444
0.000377311
0.000394446
0.000377315
0.000394383
0.000391588
0.000380153
0.000377345
0.000391594
0.000394412
0.000377378
0.000400197
0.000417327
0.000417325
0.000400193
0.00040026
0.000414476
0.000417293
0.000403029
0.000417264
0.000403035
0.000400226
0.000400197
0.000417327
0.000417325
0.000400192
0.000394383
0.000391588
0.000377345
0.000380153
0.000394411
0.000391594
0.000377378
0.000394444
0.000377311
0.000394446
0.000377315
0.000394383
0.000391588
0.000380153
0.000377345
0.000391594
0.000394411
0.000377379
0.000394444
0.000377311
0.000394446
0.000377315
0.00041733
0.00041733
0.000400375
0.000400191
0.000400191
0.000417329
0.000400192
0.00037731
0.000394447
0.000394248
0.000377309
0.000377309
0.000394448
0.000394449
0.00037731
0.000394447
0.00040026
0.000414476
0.000417293
0.000403029
0.000417264
0.000403035
0.000400226
0.000400197
0.000417327
0.000417325
0.000400193
0.000400197
0.000417327
0.000417325
0.000400193
0.000394383
0.000391588
0.000380153
0.000377345
0.000391594
0.000394412
0.000377379
0.000394383
0.000391588
0.000380153
0.000377345
0.000391594
0.000394412
0.000377379
0.000394444
0.000377311
0.000394446
0.000377315
0.000394443
0.000377311
0.000394446
0.000377315
0.000417328
0.000400192
0.000417328
0.000400192
0.000394248
0.000377309
0.000377309
0.000394448
0.000394448
0.00037731
0.000394447
0.00037731
0.000394447
0.000371565
0.000354428
0.000371565
0.000354428
0.000371566
0.000371566
0.000354611
0.000354427
0.000354427
0.000331547
0.000348683
0.000331547
0.000348683
0.000348484
0.000331546
0.000331546
0.000348685
0.000348685
0.000354433
0.000371564
0.000371562
0.000354429
0.000354496
0.000371529
0.000368712
0.000357265
0.000371501
0.000354463
0.000357271
0.000354496
0.00037153
0.000368712
0.000357265
0.000371501
0.000354463
0.000357271
0.00034868
0.000331547
0.000348682
0.000331552
0.00034868
0.000331547
0.000348682
0.000331552
0.000348619
0.000345824
0.000331582
0.00033439
0.000348648
0.00034583
0.000331615
0.000348619
0.000345824
0.000331581
0.00033439
0.000348648
0.000345831
0.000331615
0.000371566
0.000371566
0.000354611
0.000354427
0.000354427
0.000371565
0.000354428
0.000331547
0.000348683
0.000348484
0.000331546
0.000331546
0.000348685
0.000348684
0.000331546
0.000348683
0.000354497
0.000371529
0.000368712
0.000357265
0.000371501
0.000354463
0.000357271
0.000354433
0.000371564
0.000371562
0.000354429
0.000354496
0.000368712
0.00037153
0.000357265
0.000371501
0.000357271
0.000354463
0.00034868
0.000331548
0.000348682
0.000331552
0.000348619
0.000345824
0.000331582
0.00033439
0.000348647
0.00034583
0.000331615
0.00034868
0.000331548
0.000348682
0.000331552
0.000348619
0.000345824
0.00033439
0.000331582
0.00034583
0.000348648
0.000331615
0.000354433
0.000371564
0.000371562
0.000354429
0.000354496
0.000368712
0.00037153
0.000357265
0.000371501
0.000357271
0.000354463
0.000354433
0.000371564
0.000371562
0.000354429
0.000348619
0.000345824
0.000331582
0.00033439
0.000348648
0.000345831
0.000331615
0.00034868
0.000331548
0.000348682
0.000331552
0.000348619
0.000345824
0.00033439
0.000331581
0.000345831
0.000348648
0.000331615
0.00034868
0.000331547
0.000348682
0.000331552
0.000371566
0.000371567
0.000354611
0.000354427
0.000354427
0.000371565
0.000354428
0.000331546
0.000348683
0.000348484
0.000331546
0.000331546
0.000348684
0.000348685
0.000331547
0.000348683
0.000354497
0.000368712
0.00037153
0.000357265
0.000371501
0.000357271
0.000354463
0.000354433
0.000371564
0.000371562
0.000354429
0.000354433
0.000371564
0.000371562
0.000354429
0.000348619
0.000345824
0.00033439
0.000331581
0.00034583
0.000348648
0.000331615
0.000348619
0.000345824
0.00033439
0.000331581
0.00034583
0.000348648
0.000331615
0.00034868
0.000331548
0.000348682
0.000331552
0.00034868
0.000331547
0.000348682
0.000331552
0.000371565
0.000354428
0.000371565
0.000354428
0.000348484
0.000331546
0.000331546
0.000348684
0.000348685
0.000331546
0.000348683
0.000331547
0.000348683
0.000325802
0.000308665
0.000325802
0.000308665
0.000325803
0.000325803
0.000308848
0.000308664
0.000308664
0.000285783
0.00030292
0.000285783
0.00030292
0.000302721
0.000285783
0.000285782
0.000302922
0.000302922
0.00030867
0.000325801
0.000325799
0.000308666
0.000308733
0.000325766
0.000322949
0.000311502
0.000325738
0.0003087
0.000311508
0.000308733
0.000325766
0.000322949
0.000311502
0.000325738
0.0003087
0.000311508
0.000302917
0.000285784
0.000302919
0.000285789
0.000302917
0.000285784
0.000302919
0.000285789
0.000302856
0.000300061
0.000285818
0.000288626
0.000302885
0.000300067
0.000285852
0.000302856
0.000300061
0.000285818
0.000288627
0.000302885
0.000300067
0.000285852
0.000325803
0.000325803
0.000308848
0.000308665
0.000308665
0.000325802
0.000308665
0.000285784
0.00030292
0.000302721
0.000285783
0.000285783
0.000302922
0.000302921
0.000285783
0.000302921
0.000308733
0.000325766
0.000322949
0.000311502
0.000325738
0.0003087
0.000311508
0.00030867
0.000325801
0.000325799
0.000308666
0.000308733
0.000322949
0.000325766
0.000311502
0.000325738
0.000311508
0.0003087
0.000302917
0.000285784
0.000302919
0.000285788
0.000302856
0.000300061
0.000285818
0.000288626
0.000302884
0.000300067
0.000285852
0.000302917
0.000285784
0.000302919
0.000285788
0.000302856
0.000300061
0.000288626
0.000285818
0.000300067
0.000302885
0.000285852
0.00030867
0.000325801
0.000325799
0.000308666
0.000308734
0.000322949
0.000325766
0.000311502
0.000325738
0.000311508
0.0003087
0.00030867
0.000325801
0.000325799
0.000308666
0.000302856
0.000300061
0.000285818
0.000288627
0.000302885
0.000300067
0.000285852
0.000302917
0.000285784
0.000302919
0.000285789
0.000302856
0.000300061
0.000288627
0.000285818
0.000300067
0.000302885
0.000285852
0.000302917
0.000285784
0.000302919
0.000285789
0.000325803
0.000325804
0.000308848
0.000308665
0.000308664
0.000325802
0.000308665
0.000285783
0.00030292
0.000302721
0.000285783
0.000285783
0.000302921
0.000302922
0.000285784
0.00030292
0.000308734
0.000322949
0.000325767
0.000311502
0.000325738
0.000311508
0.0003087
0.00030867
0.000325801
0.000325799
0.000308666
0.00030867
0.000325801
0.000325799
0.000308666
0.000302856
0.000300061
0.000288626
0.000285818
0.000300067
0.000302885
0.000285852
0.000302856
0.000300061
0.000288626
0.000285818
0.000300067
0.000302885
0.000285852
0.000302917
0.000285784
0.000302919
0.000285789
0.000302917
0.000285784
0.000302919
0.000285789
0.000325802
0.000308665
0.000325802
0.000308665
0.000302721
0.000285782
0.000285782
0.000302922
0.000302922
0.000285783
0.00030292
0.000285783
0.00030292
0.000280039
0.000262901
0.000280039
0.000262901
0.00028004
0.00028004
0.000263084
0.0002629
0.000262901
0.000240018
0.000257156
0.000240018
0.000257156
0.000256957
0.000240017
0.000240017
0.000257158
0.000257158
0.000262906
0.000280038
0.000280036
0.000262902
0.00026297
0.000280003
0.000277186
0.000265738
0.000279975
0.000262936
0.000265744
0.00026297
0.000280003
0.000277186
0.000265738
0.000279975
0.000262936
0.000265745
0.000257153
0.000240019
0.000257155
0.000240024
0.000257153
0.000240019
0.000257155
0.000240024
0.000257092
0.000254297
0.000240053
0.000242862
0.000257121
0.000254303
0.000240087
0.000257092
0.000254297
0.000240053
0.000242862
0.000257121
0.000254303
0.000240087
0.00028004
0.00028004
0.000263084
0.000262901
0.000262901
0.000280039
0.000262901
0.000240019
0.000257156
0.000256957
0.000240018
0.000240018
0.000257158
0.000257158
0.000240018
0.000257157
0.00026297
0.000280003
0.000277185
0.000265738
0.000279974
0.000262936
0.000265744
0.000262906
0.000280037
0.000280035
0.000262902
0.00026297
0.000277186
0.000280003
0.000265738
0.000279974
0.000265744
0.000262936
0.000257153
0.000240019
0.000257155
0.000240023
0.000257092
0.000254297
0.000240053
0.000242862
0.000257121
0.000254303
0.000240087
0.000257153
0.000240019
0.000257155
0.000240023
0.000257092
0.000254297
0.000242862
0.000240053
0.000254303
0.000257121
0.000240087
0.000262906
0.000280038
0.000280035
0.000262902
0.00026297
0.000277186
0.000280003
0.000265739
0.000279974
0.000265745
0.000262936
0.000262906
0.000280038
0.000280035
0.000262902
0.000257092
0.000254297
0.000240053
0.000242862
0.000257121
0.000254303
0.000240087
0.000257153
0.000240019
0.000257155
0.000240024
0.000257092
0.000254297
0.000242862
0.000240053
0.000254303
0.000257121
0.000240087
0.000257153
0.000240019
0.000257155
0.000240024
0.00028004
0.00028004
0.000263084
0.000262901
0.0002629
0.000280039
0.000262901
0.000240018
0.000257157
0.000256957
0.000240018
0.000240017
0.000257158
0.000257158
0.000240018
0.000257156
0.00026297
0.000277186
0.000280003
0.000265738
0.000279974
0.000265745
0.000262936
0.000262906
0.000280038
0.000280036
0.000262902
0.000262907
0.000280038
0.000280035
0.000262902
0.000257092
0.000254297
0.000242862
0.000240053
0.000254303
0.000257121
0.000240087
0.000257092
0.000254297
0.000242862
0.000240053
0.000254303
0.000257121
0.000240087
0.000257153
0.000240019
0.000257155
0.000240023
0.000257153
0.000240019
0.000257155
0.000240024
0.000280039
0.000262901
0.000280039
0.000262902
0.000256957
0.000240018
0.000240018
0.000257158
0.000257158
0.000240019
0.000257156
0.000240019
0.000257156
0.000234273
0.000217135
0.000234273
0.000217135
0.000234275
0.000234275
0.000217318
0.000217134
0.000217134
0.000194252
0.00021139
0.000194252
0.00021139
0.00021119
0.000194251
0.000194251
0.000211391
0.000211391
0.00021714
0.000234272
0.00023427
0.000217136
0.000217204
0.000234238
0.00023142
0.000219972
0.000234209
0.00021717
0.000219979
0.000217204
0.000234238
0.00023142
0.000219972
0.000234209
0.00021717
0.000219979
0.000211387
0.000194253
0.000211389
0.000194257
0.000211387
0.000194252
0.000211389
0.000194257
0.000211326
0.000208531
0.000194287
0.000197095
0.000211354
0.000208537
0.00019432
0.000211326
0.000208531
0.000194286
0.000197095
0.000211354
0.000208537
0.00019432
0.000234274
0.000234274
0.000217318
0.000217134
0.000217134
0.000234273
0.000217135
0.000194252
0.00021139
0.00021119
0.000194251
0.000194251
0.000211391
0.000211391
0.000194252
0.00021139
0.000217204
0.000234238
0.00023142
0.000219972
0.000234209
0.00021717
0.000219979
0.00021714
0.000234272
0.00023427
0.000217136
0.000217204
0.00023142
0.000234237
0.000219972
0.000234209
0.000219978
0.00021717
0.000211387
0.000194253
0.000211389
0.000194257
0.000211326
0.000208531
0.000194287
0.000197095
0.000211354
0.000208537
0.00019432
0.000211387
0.000194253
0.000211389
0.000194257
0.000211326
0.000208531
0.000197095
0.000194287
0.000208537
0.000211354
0.00019432
0.00021714
0.000234272
0.00023427
0.000217136
0.000217204
0.00023142
0.000234238
0.000219972
0.000234209
0.000219979
0.00021717
0.00021714
0.000234272
0.00023427
0.000217136
0.000211326
0.000208531
0.000194287
0.000197095
0.000211354