/*--------------------------------*- C++ -*----------------------------------*\
| =========                 |                                                 |
| \\      /  F ield         | OpenFOAM: The Open Source CFD Toolbox           |
|  \\    /   O peration     | Version:  2206                                  |
|   \\  /    A nd           | Website:  www.openfoam.com                      |
|    \\/     M anipulation  |                                                 |
\*---------------------------------------------------------------------------*/
FoamFile
{
    version     2.0;
    format      ascii;
    arch        "LSB;label=32;scalar=64";
    class       surfaceScalarField;
    location    "8";
    object      phi;
}
// * * * * * * * * * * * * * * * * * * * * * * * * * * * * * * * * * * * * * //

dimensions      [0 3 -1 0 0 0 0];

oriented        oriented;

internalField   nonuniform List<scalar> 
83378
(
-0.00106425
-1.16388e-06
-1.26999e-09
1.00695e-09
0.00106425
-2.18334e-07
1.1656e-06
2.18019e-07
8.36507e-07
-2.01243e-07
-8.36283e-07
2.00525e-07
1.19163e-06
1.15873e-06
-2.08097e-07
-2.1327e-07
0.0002598
6.10319e-10
1.50585e-09
-0.00106357
-1.18969e-09
-6.41434e-10
0.00106357
-0.00106424
-1.1641e-06
-2.94334e-10
1.7982e-09
0.00106425
-2.18687e-07
1.16539e-06
2.17612e-07
8.36098e-07
-2.01608e-07
-8.36583e-07
1.99939e-07
-0.00106391
-1.15848e-06
-1.19907e-09
6.74449e-10
0.00106391
-2.18222e-07
1.16043e-06
2.18183e-07
8.36177e-07
-2.03836e-07
-8.36266e-07
2.032e-07
-0.000261728
1.19159e-06
1.15876e-06
-2.08046e-07
-2.13162e-07
0.000259799
3.78829e-10
1.56396e-10
-0.00106358
-4.48862e-10
-6.04393e-10
0.00106358
-0.00106425
-1.16409e-06
-5.06226e-10
1.33883e-09
0.00106425
-2.18604e-07
1.1655e-06
2.17869e-07
8.36338e-07
-2.01732e-07
-8.36563e-07
2.00176e-07
-0.00106391
-1.15888e-06
-2.50335e-10
1.6926e-09
0.00106391
-2.18773e-07
1.16012e-06
2.17738e-07
8.36108e-07
-2.04661e-07
-8.36525e-07
2.02596e-07
-0.000261729
1.19183e-06
1.15893e-06
-2.08321e-07
-2.1349e-07
0.0002598
7.45404e-10
6.69759e-10
-0.00106358
-6.78154e-10
-7.74496e-10
0.00106358
-0.00106425
-1.16402e-06
-7.89467e-10
1.27976e-09
0.00106425
-2.18539e-07
1.16556e-06
2.17917e-07
8.3639e-07
-2.0159e-07
-8.36515e-07
2.00281e-07
-0.00106391
-1.15874e-06
-7.48325e-10
1.37398e-09
0.00106391
-2.18557e-07
1.16022e-06
2.17902e-07
8.36217e-07
-2.04213e-07
-8.36395e-07
2.02925e-07
-0.000261729
1.19174e-06
1.15884e-06
-2.082e-07
-2.13375e-07
0.0002598
7.37719e-10
7.43628e-10
-0.00106358
-7.28878e-10
-7.70886e-10
0.00106358
-0.00106425
-1.16402e-06
-7.80808e-10
1.29075e-09
0.00106425
-2.18539e-07
1.16556e-06
2.17916e-07
8.36392e-07
-2.01587e-07
-8.36511e-07
2.00282e-07
-0.00106391
-1.15873e-06
-7.9078e-10
1.32071e-09
0.00106391
-2.1851e-07
1.16024e-06
2.17915e-07
8.36224e-07
-2.04203e-07
-8.36386e-07
2.02932e-07
-0.000261729
1.19173e-06
1.15884e-06
-2.08199e-07
-2.13365e-07
0.0002598
7.31299e-10
7.54173e-10
-0.00106358
-7.40428e-10
-7.67563e-10
0.00106358
-0.00106425
-1.16402e-06
-7.68278e-10
1.29654e-09
0.00106425
-2.18542e-07
1.16555e-06
2.17914e-07
8.36389e-07
-2.0159e-07
-8.36514e-07
2.00279e-07
-0.00106391
-1.15873e-06
-7.94454e-10
1.31089e-09
0.00106391
-2.18509e-07
1.16024e-06
2.17915e-07
8.36223e-07
-2.04204e-07
-8.36387e-07
2.02931e-07
-0.000261729
1.19173e-06
1.15884e-06
-2.08202e-07
-2.13366e-07
0.0002598
7.36873e-10
7.6074e-10
-0.00106358
-7.43938e-10
-7.70873e-10
0.00106358
-0.00106425
-1.16402e-06
-7.75186e-10
1.29321e-09
0.00106425
-2.1854e-07
1.16556e-06
2.17916e-07
8.36392e-07
-2.01588e-07
-8.36512e-07
2.00282e-07
-0.00106391
-1.15873e-06
-7.97996e-10
1.30887e-09
0.00106391
-2.18507e-07
1.16024e-06
2.17917e-07
8.36225e-07
-2.04203e-07
-8.36386e-07
2.02933e-07
-0.000261729
1.19173e-06
1.15884e-06
-2.08201e-07
-2.13363e-07
0.0002598
7.30866e-10
7.5662e-10
-0.00106358
-7.42028e-10
-7.67387e-10
0.00106358
-0.00106425
-1.16402e-06
-7.6955e-10
1.29474e-09
0.00106425
-2.18541e-07
1.16555e-06
2.17915e-07
8.3639e-07
-2.0159e-07
-8.36514e-07
2.0028e-07
-0.00106391
-1.15873e-06
-7.89875e-10
1.30888e-09
0.00106391
-2.18509e-07
1.16024e-06
2.17886e-07
8.36223e-07
-2.04206e-07
-8.36388e-07
2.02931e-07
-0.000261729
1.19173e-06
1.15884e-06
-2.08202e-07
-2.13364e-07
0.0002598
7.28772e-10
7.7626e-10
-0.00106358
-7.52935e-10
-7.6423e-10
0.00106358
-0.00106425
-1.16402e-06
-7.81496e-10
1.29296e-09
0.00106425
-2.18539e-07
1.16555e-06
2.17914e-07
8.3639e-07
-2.01587e-07
-8.36511e-07
2.0028e-07
-0.00106391
-1.15873e-06
-7.98506e-10
1.29917e-09
0.00106391
-2.18507e-07
1.16025e-06
2.17886e-07
8.36222e-07
-2.04202e-07
-8.36385e-07
2.0293e-07
-0.000261729
1.19173e-06
1.15884e-06
-2.082e-07
-2.13362e-07
0.0002598
7.3741e-10
7.81715e-10
-0.00106358
-7.85136e-10
-7.84033e-10
0.00106358
-0.00106425
-1.16399e-06
-7.94782e-10
1.23213e-09
0.00106425
-2.18504e-07
1.1655e-06
2.17862e-07
8.36318e-07
-2.01518e-07
-8.3644e-07
2.00189e-07
-0.00106391
-1.15869e-06
-8.11554e-10
1.22223e-09
0.00106391
-2.18502e-07
1.16019e-06
2.17875e-07
8.36146e-07
-2.04152e-07
-8.36269e-07
2.02836e-07
-0.000261729
1.19169e-06
1.1588e-06
-2.0815e-07
-2.13314e-07
0.0002598
1.14948e-08
1.16229e-08
-0.00106358
-4.16249e-09
-9.18798e-09
0.00106357
-0.00106425
-1.16261e-06
-6.29923e-09
-6.1834e-09
0.00106426
-2.17135e-07
1.1656e-06
2.20627e-07
8.36347e-07
-1.98004e-07
-8.35922e-07
1.9287e-07
-0.00106392
-1.15468e-06
-1.16137e-08
-1.11307e-09
0.00106393
-2.17069e-07
1.15769e-06
2.1797e-07
8.33532e-07
-1.97981e-07
-8.33108e-07
1.95551e-07
-0.000261735
1.19293e-06
1.1574e-06
-2.03383e-07
-2.08511e-07
0.000259797
8.14766e-07
8.21685e-07
-0.00106343
-6.98656e-07
-6.88744e-07
0.00106318
-0.0010645
-1.07231e-06
-8.15956e-07
-3.69083e-07
0.00106482
-1.37851e-07
1.32413e-06
3.12539e-07
9.91959e-07
-1.0383e-07
-7.39294e-07
2.98821e-07
-0.00106419
-1.06424e-06
-8.2643e-07
-3.79759e-07
0.00106451
-1.37698e-07
1.31901e-06
3.15372e-07
9.89004e-07
-1.09235e-07
-7.36511e-07
3.01506e-07
-0.000261819
1.10522e-06
1.06442e-06
-1.13073e-07
-1.15564e-07
0.000259878
4.87608e-06
4.86955e-06
-0.0010497
-1.03988e-05
-1.03036e-05
0.000254792
0.000258128
0.000257221
0.000257221
3.95217e-06
6.20192e-06
6.48957e-06
3.95583e-06
6.20267e-06
6.49287e-06
-0.000263279
5.03939e-06
-4.86697e-06
5.63794e-06
-3.19686e-06
0.000260665
-0.000263256
-4.86914e-06
5.04455e-06
-3.20462e-06
5.63502e-06
0.00026065
-0.000262219
-5.03648e-06
-5.04732e-06
5.65087e-06
5.63921e-06
0.000261013
1.20385e-06
0.00106391
-1.20222e-06
2.2601e-07
-2.2648e-07
2.03073e-07
-2.04115e-07
-1.16559e-06
0.000261773
-0.000259825
2.09997e-07
2.12267e-07
-1.16393e-06
2.17968e-07
-2.18412e-07
2.00402e-07
-2.01385e-07
-1.19865e-06
-1.16305e-06
0.000261744
-0.000259804
2.07418e-07
2.15092e-07
1.31533e-09
0.00106348
-2.23761e-07
2.23225e-07
8.36426e-07
-2.01313e-07
-8.36277e-07
2.00356e-07
-1.20218e-06
-1.15568e-09
1.04881e-09
0.00106391
-2.26405e-07
1.20386e-06
2.26058e-07
8.41914e-07
-2.03968e-07
-8.41735e-07
2.032e-07
0.00106348
-1.33694e-09
-0.00106348
7.67104e-10
-1.19674e-06
2.23455e-07
-2.23547e-07
-8.36201e-07
2.0057e-07
-2.01096e-07
8.36471e-07
1.20379e-06
0.00106391
-9.89545e-10
-0.00106391
1.45552e-09
-1.20219e-06
2.25936e-07
-2.26421e-07
-8.41718e-07
2.03166e-07
-2.03869e-07
8.4186e-07
-2.08241e-07
-2.10528e-07
0.000259825
-1.16553e-06
0.000261772
-0.000259825
2.09979e-07
2.12247e-07
0.00106451
-1.65094e-09
-0.00106451
1.04705e-09
-1.16127e-06
2.20848e-07
-2.21024e-07
-8.38899e-07
2.03323e-07
-2.03837e-07
8.39264e-07
1.19863e-06
0.00106359
-1.54644e-09
-0.00106359
9.48544e-10
-1.19685e-06
2.26098e-07
-2.26339e-07
-8.38873e-07
2.03246e-07
-2.03813e-07
8.39159e-07
-1.09333e-09
1.25648e-09
0.00106339
-2.21e-07
1.19327e-06
2.20549e-07
8.36439e-07
-2.01317e-07
2.00346e-07
-8.36316e-07
-1.06905e-09
-0.00106425
1.36564e-09
-1.1639e-06
2.17903e-07
-2.18344e-07
-8.36269e-07
2.00492e-07
8.36449e-07
-2.01148e-07
1.1934e-06
0.00106339
-1.29319e-09
-0.00106339
8.46785e-10
-1.19151e-06
2.20724e-07
-2.2083e-07
-8.36246e-07
2.00554e-07
-2.01109e-07
8.3648e-07
-1.16037e-06
0.000261723
-0.000259786
2.07585e-07
2.14832e-07
-9.63737e-10
1.10447e-09
0.00106442
-2.18458e-07
1.16038e-06
2.18027e-07
8.36571e-07
-2.0409e-07
2.03093e-07
-8.36447e-07
-1.56285e-09
-0.00106391
8.22555e-10
-1.15853e-06
2.18103e-07
-2.18264e-07
-8.36067e-07
2.03218e-07
8.36411e-07
-2.03768e-07
1.16045e-06
0.00106441
-1.44552e-09
-0.00106441
1.03257e-09
-1.15865e-06
2.18151e-07
-2.18331e-07
-8.36322e-07
2.03341e-07
-2.03841e-07
8.36665e-07
-0.000259799
2.09901e-07
2.15121e-07
1.19677e-06
1.16136e-06
-2.05576e-07
-2.13059e-07
0.000259804
-1.19834e-06
-1.16286e-06
0.000261744
-0.000259805
2.07079e-07
2.14654e-07
8.86067e-10
0.00106348
-2.23604e-07
1.19857e-06
2.23306e-07
8.36146e-07
-2.01205e-07
-8.36415e-07
2.0028e-07
-1.2024e-06
-2.32257e-10
1.91571e-09
0.00106391
-2.26766e-07
1.20364e-06
2.25642e-07
8.41512e-07
-2.04328e-07
-8.42028e-07
2.02615e-07
0.00106348
-8.99997e-11
-0.00106348
1.65845e-09
-1.19711e-06
2.23022e-07
-2.2407e-07
-8.36613e-07
1.99837e-07
-2.0203e-07
8.3622e-07
1.20373e-06
0.00106391
-1.76192e-10
-0.00106391
1.47375e-09
-1.20242e-06
2.25856e-07
-2.26739e-07
-8.42049e-07
2.02737e-07
-2.04613e-07
8.41735e-07
-2.0849e-07
-2.10778e-07
0.000259824
-1.16546e-06
0.000261772
-0.000259825
2.09812e-07
2.12082e-07
1.40813e-09
0.00106451
-2.2111e-07
1.16289e-06
2.20638e-07
8.39238e-07
-2.03866e-07
-8.38906e-07
2.03324e-07
-1.19684e-06
-1.61997e-09
9.62463e-10
0.00106359
-2.26324e-07
1.19863e-06
2.26129e-07
8.3919e-07
-2.03782e-07
-8.38838e-07
2.0334e-07
0.00106451
-3.13831e-11
-0.00106451
1.58343e-09
-1.16159e-06
2.20505e-07
-2.21515e-07
-8.39427e-07
2.02458e-07
-2.04815e-07
8.38896e-07
1.19837e-06
0.00106359
7.40676e-11
-0.00106359
1.73107e-09
-1.19721e-06
2.25658e-07
-2.26887e-07
-8.39402e-07
2.02354e-07
-2.048e-07
8.38791e-07
-6.52203e-10
1.07272e-09
0.00106339
-2.20923e-07
1.19325e-06
2.20525e-07
8.36175e-07
-2.01213e-07
2.00279e-07
-8.36448e-07
-2.78494e-10
-0.00106425
1.41218e-09
-1.16413e-06
2.17818e-07
-2.18665e-07
-8.36603e-07
2.00066e-07
8.36323e-07
-2.01887e-07
1.19313e-06
0.00106339
-6.58821e-11
-0.00106339
1.6437e-09
-1.19187e-06
2.20336e-07
-2.21339e-07
-8.3664e-07
1.99833e-07
-2.02025e-07
8.36239e-07
-2.05613e-07
-2.12937e-07
0.000259786
-1.16006e-06
0.000261723
-0.000259786
2.07124e-07
2.14421e-07
-8.92394e-10
1.45434e-09
0.00106441
-2.18453e-07
1.16028e-06
2.17924e-07
8.3637e-07
-2.03932e-07
2.03078e-07
-8.36508e-07
-3.17413e-11
-0.00106391
1.68826e-09
-1.15891e-06
2.17629e-07
-2.18836e-07
-8.36509e-07
2.02348e-07
8.36114e-07
-2.04782e-07
1.16022e-06
0.00106442
-3.32467e-12
-0.00106442
1.56225e-09
-1.15899e-06
2.178e-07
-2.18821e-07
-8.36757e-07
2.02594e-07
-2.04776e-07
8.36376e-07
-0.000259799
2.09533e-07
2.14718e-07
1.1971e-06
1.16151e-06
-2.05838e-07
-2.1349e-07
0.000259805
-1.19845e-06
-1.16296e-06
0.000261744
-0.000259805
2.07229e-07
2.14822e-07
1.61777e-09
0.00106348
-2.24024e-07
1.19837e-06
2.23074e-07
8.36261e-07
-2.01781e-07
-8.36541e-07
2.00046e-07
-1.20238e-06
-3.95909e-10
1.37869e-09
0.00106391
-2.26675e-07
1.20377e-06
2.25908e-07
8.41747e-07
-2.04457e-07
-8.42012e-07
2.02849e-07
0.00106348
-7.48088e-10
-0.00106348
1.44586e-09
-1.197e-06
2.23178e-07
-2.23895e-07
-8.36464e-07
2.00208e-07
-2.01544e-07
8.36333e-07
1.20382e-06
0.00106391
-6.5436e-10
-0.00106391
1.31205e-09
-1.20231e-06
2.25955e-07
-2.26608e-07
-8.41976e-07
2.02948e-07
-2.04328e-07
8.41793e-07
-2.08495e-07
-2.10777e-07
0.000259825
-1.16555e-06
0.000261773
-0.000259825
2.09927e-07
2.12198e-07
1.42689e-09
0.00106451
-2.21392e-07
1.16291e-06
2.20598e-07
8.38968e-07
-2.04761e-07
-8.39325e-07
2.0264e-07
-1.19716e-06
1.52902e-11
1.66407e-09
0.00106359
-2.26818e-07
1.19842e-06
2.25761e-07
8.38871e-07
-2.04755e-07
-8.39296e-07
2.02541e-07
0.00106451
-6.17016e-10
-0.00106451
1.27366e-09
-1.16144e-06
2.20666e-07
-2.21286e-07
-8.3923e-07
2.02952e-07
-2.04356e-07
8.39048e-07
1.19851e-06
0.00106359
-5.34504e-10
-0.00106359
1.40811e-09
-1.19705e-06
2.25911e-07
-2.26618e-07
-8.39186e-07
2.02891e-07
-2.04313e-07
8.38957e-07
-3.65998e-10
1.55883e-09
0.00106339
-2.21248e-07
1.19316e-06
2.20409e-07
8.36272e-07
-2.01788e-07
2.00031e-07
-8.36581e-07
-7.80127e-10
-0.00106425
1.28035e-09
-1.16403e-06
2.17913e-07
-2.1854e-07
-8.3652e-07
2.0028e-07
8.36388e-07
-2.01597e-07
1.19323e-06
0.00106339
-7.26266e-10
-0.00106339
1.39348e-09
-1.19175e-06
2.20487e-07
-2.21144e-07
-8.36508e-07
2.00201e-07
-2.01549e-07
8.36342e-07
-2.06116e-07
-2.13354e-07
0.000259787
-1.16021e-06
0.000261724
-0.000259787
2.07364e-07
2.14649e-07
-2.23349e-10
1.37699e-09
0.00106442
-2.18708e-07
1.16027e-06
2.17891e-07
8.36398e-07
-2.04555e-07
2.02777e-07
-8.36709e-07
-7.17734e-10
-0.00106391
1.41485e-09
-1.15876e-06
2.17887e-07
-2.18572e-07
-8.36359e-07
2.029e-07
8.36266e-07
-2.04252e-07
1.16034e-06
0.00106442
-5.72553e-10
-0.00106442
1.23473e-09
-1.15884e-06
2.1797e-07
-2.18598e-07
-8.36645e-07
2.02943e-07
-2.04325e-07
8.36465e-07
-0.0002598
2.09695e-07
2.14864e-07
1.19699e-06
1.16144e-06
-2.05723e-07
-2.13354e-07
0.000259805
-1.19847e-06
-1.16296e-06
0.000261744
-0.000259805
2.07228e-07
2.14846e-07
1.4137e-09
0.00106348
-2.23883e-07
1.19846e-06
2.23189e-07
8.36328e-07
-2.01534e-07
-8.36462e-07
2.00213e-07
-1.20231e-06
-6.66526e-10
1.31404e-09
0.00106391
-2.26609e-07
1.20382e-06
2.25957e-07
8.41797e-07
-2.04315e-07
-8.41968e-07
2.02954e-07
0.00106348
-7.67669e-10
-0.00106348
1.37263e-09
-1.19698e-06
2.23201e-07
-2.23867e-07
-8.36457e-07
2.00214e-07
-2.01534e-07
8.36337e-07
1.20382e-06
0.00106391
-6.76401e-10
-0.00106391
1.32984e-09
-1.20231e-06
2.25956e-07
-2.26607e-07
-8.41962e-07
2.02957e-07
-2.04316e-07
8.41804e-07
-2.08406e-07
-2.10691e-07
0.000259825
-1.16555e-06
0.000261773
-0.000259825
2.09932e-07
2.12203e-07
1.28017e-09
0.00106451
-2.21286e-07
1.16296e-06
2.20666e-07
8.39062e-07
-2.04332e-07
-8.39208e-07
2.02973e-07
-1.19704e-06
-6.10189e-10
1.40329e-09
0.00106359
-2.26608e-07
1.19851e-06
2.25917e-07
8.38974e-07
-2.04279e-07
-8.39164e-07
2.02913e-07
0.00106451
-7.50052e-10
-0.00106451
1.28968e-09
-1.16144e-06
2.20664e-07
-2.21285e-07
-8.39191e-07
2.02985e-07
-2.0431e-07
8.39081e-07
1.19852e-06
0.00106359
-6.88852e-10
-0.00106359
1.35498e-09
-1.19702e-06
2.25928e-07
-2.26593e-07
-8.39147e-07
2.02926e-07
-2.04265e-07
8.38991e-07
-7.43849e-10
1.37479e-09
0.00106339
-2.21133e-07
1.19323e-06
2.20495e-07
8.36342e-07
-2.01538e-07
2.00201e-07
-8.36502e-07
-7.94502e-10
-0.00106425
1.28515e-09
-1.16402e-06
2.17916e-07
-2.18537e-07
-8.36508e-07
2.00289e-07
8.36398e-07
-2.01586e-07
1.19324e-06
0.00106339
-7.55767e-10
-0.00106339
1.34693e-09
-1.19173e-06
2.20501e-07
-2.21127e-07
-8.36495e-07
2.00211e-07
-2.01536e-07
8.36352e-07
-2.05906e-07
-2.13172e-07
0.000259787
-1.16024e-06
0.000261726
-0.000259787
2.07388e-07
2.12159e-07
-5.97891e-10
1.23888e-09
0.00106442
-2.18591e-07
1.16034e-06
2.17973e-07
8.36469e-07
-2.04312e-07
2.02945e-07
-8.36634e-07
-8.04279e-10
-0.00106391
1.32233e-09
-1.15873e-06
2.17883e-07
-2.18539e-07
-8.36337e-07
2.02917e-07
8.36281e-07
-2.04224e-07
1.16034e-06
0.00106442
-6.49032e-10
-0.00106442
1.25526e-09
-1.15884e-06
2.17972e-07
-2.18594e-07
-8.36622e-07
2.0296e-07
-2.04303e-07
8.36484e-07
-0.0002598
2.09699e-07
2.14878e-07
1.19697e-06
1.16145e-06
-2.05727e-07
-2.13337e-07
0.000259805
-1.19847e-06
-1.16295e-06
0.000261744
-0.000259805
2.07226e-07
2.14848e-07
1.37204e-09
0.00106348
-2.23869e-07
1.19847e-06
2.232e-07
8.36327e-07
-2.01534e-07
-8.36462e-07
2.00212e-07
-1.20231e-06
-6.69731e-10
1.33314e-09
0.00106391
-2.2661e-07
1.20382e-06
2.25954e-07
8.41801e-07
-2.04311e-07
-8.41963e-07
2.02957e-07
0.00106348
-7.53312e-10
-0.00106348
1.36298e-09
-1.19697e-06
2.23202e-07
-2.23866e-07
-8.3646e-07
2.00211e-07
-2.01537e-07
8.36335e-07
1.20382e-06
0.00106391
-6.64211e-10
-0.00106391
1.34551e-09
-1.20232e-06
2.25952e-07
-2.26611e-07
-8.41965e-07
2.02955e-07
-2.04319e-07
8.41801e-07
-2.08404e-07
-2.1069e-07
0.000259825
-1.16555e-06
0.000261773
-0.000259825
2.0993e-07
2.12199e-07
1.30473e-09
0.00106451
-2.21291e-07
1.16295e-06
2.20661e-07
8.3908e-07
-2.04311e-07
-8.39186e-07
2.02989e-07
-1.19703e-06
-6.98038e-10
1.37917e-09
0.00106359
-2.26599e-07
1.19852e-06
2.25925e-07
8.38992e-07
-2.04257e-07
-8.39142e-07
2.02931e-07
0.00106451
-7.62916e-10
-0.00106451
1.30131e-09
-1.16145e-06
2.20661e-07
-2.21288e-07
-8.39189e-07
2.02987e-07
-2.04309e-07
8.39083e-07
1.19852e-06
0.00106359
-7.0301e-10
-0.00106359
1.35089e-09
-1.19702e-06
2.25928e-07
-2.26593e-07
-8.39146e-07
2.02926e-07
-2.04264e-07
8.38991e-07
-7.45656e-10
1.34662e-09
0.00106339
-2.21124e-07
1.19324e-06
2.20503e-07
8.36346e-07
-2.01534e-07
2.00204e-07
-8.36498e-07
-7.73426e-10
-0.00106425
1.29502e-09
-1.16403e-06
2.17912e-07
-2.1854e-07
-8.36512e-07
2.00284e-07
8.36394e-07
-2.0159e-07
1.19324e-06
0.00106339
-7.35893e-10
-0.00106339
1.34451e-09
-1.19173e-06
2.20499e-07
-2.21129e-07
-8.36499e-07
2.00207e-07
-2.01539e-07
8.36348e-07
-2.05885e-07
-2.10663e-07
0.000259787
-1.16024e-06
0.000261726
-0.000259787
2.0739e-07
2.12159e-07
-6.42087e-10
1.26214e-09
0.00106442
-2.18592e-07
1.16034e-06
2.17972e-07
8.3648e-07
-2.04301e-07
2.02955e-07
-8.36621e-07
-8.05493e-10
-0.00106391
1.3086e-09
-1.15872e-06
2.17884e-07
-2.18537e-07
-8.36338e-07
2.02917e-07
8.3628e-07
-2.04225e-07
1.16034e-06
0.00106442
-6.50109e-10
-0.00106442
1.27156e-09
-1.15884e-06
2.17968e-07
-2.18598e-07
-8.36623e-07
2.02959e-07
-2.04305e-07
8.36483e-07
-0.0002598
2.09696e-07
2.14877e-07
1.19697e-06
1.16145e-06
-2.05729e-07
-2.13336e-07
0.000259805
-1.19848e-06
-1.16295e-06
0.000261744
-0.000259805
2.07226e-07
2.1485e-07
1.3606e-09
0.00106348
-2.23867e-07
1.19847e-06
2.23202e-07
8.36326e-07
-2.01536e-07
-8.36464e-07
2.0021e-07
-1.20232e-06
-6.599e-10
1.34506e-09
0.00106391
-2.26614e-07
1.20382e-06
2.25951e-07
8.41799e-07
-2.04313e-07
-8.41965e-07
2.02955e-07
0.00106348
-7.5831e-10
-0.00106348
1.35413e-09
-1.19697e-06
2.23204e-07
-2.23862e-07
-8.36459e-07
2.00212e-07
-2.01536e-07
8.36335e-07
1.20382e-06
0.00106391
-6.74407e-10
-0.00106391
1.33977e-09
-1.20231e-06
2.25955e-07
-2.26608e-07
-8.41963e-07
2.02957e-07
-2.04317e-07
8.41803e-07
-2.08407e-07
-2.10693e-07
0.000259825
-1.16555e-06
0.000261773
-0.000259825
2.09931e-07
2.12202e-07
1.30741e-09
0.00106451
-2.21292e-07
1.16295e-06
2.2066e-07
8.39082e-07
-2.0431e-07
-8.39185e-07
2.0299e-07
-1.19703e-06
-7.05891e-10
1.37717e-09
0.00106359
-2.26599e-07
1.19852e-06
2.25924e-07
8.38992e-07
-2.04257e-07
-8.39143e-07
2.02931e-07
0.00106451
-7.7241e-10
-0.00106451
1.2973e-09
-1.16145e-06
2.20662e-07
-2.21287e-07
-8.39186e-07
2.02989e-07
-2.04306e-07
8.39085e-07
1.19852e-06
0.00106359
-7.14682e-10
-0.00106359
1.35004e-09
-1.19702e-06
2.2593e-07
-2.26591e-07
-8.39144e-07
2.02929e-07
-2.04261e-07
8.38994e-07
-7.30361e-10
1.34544e-09
0.00106339
-2.21125e-07
1.19324e-06
2.20501e-07
8.36342e-07
-2.01538e-07
2.00201e-07
-8.36502e-07
-7.82955e-10
-0.00106425
1.28969e-09
-1.16402e-06
2.17915e-07
-2.18538e-07
-8.3651e-07
2.00287e-07
8.36396e-07
-2.01588e-07
1.19324e-06
0.00106339
-7.41852e-10
-0.00106339
1.33957e-09
-1.19173e-06
2.20502e-07
-2.21126e-07
-8.36498e-07
2.00209e-07
-2.01538e-07
8.3635e-07
-2.05884e-07
-2.10664e-07
0.000259787
-1.16025e-06
0.000261726
-0.000259787
2.07391e-07
2.1216e-07
-6.42815e-10
1.2733e-09
0.00106442
-2.18594e-07
1.16034e-06
2.17969e-07
8.36479e-07
-2.04302e-07
2.02953e-07
-8.36622e-07
-8.1119e-10
-0.00106391
1.30356e-09
-1.15872e-06
2.17886e-07
-2.18536e-07
-8.36337e-07
2.02919e-07
8.36283e-07
-2.04224e-07
1.16034e-06
0.00106442
-6.56319e-10
-0.00106442
1.27026e-09
-1.15884e-06
2.17969e-07
-2.18597e-07
-8.36621e-07
2.02962e-07
-2.04302e-07
8.36485e-07
-0.0002598
2.09697e-07
2.1488e-07
1.19697e-06
1.16145e-06
-2.05728e-07
-2.13334e-07
0.000259805
-1.19847e-06
-1.16295e-06
0.000261744
-0.000259805
2.07225e-07
2.14848e-07
1.3573e-09
0.00106348
-2.23866e-07
1.19848e-06
2.23204e-07
8.36327e-07
-2.01535e-07
-8.36463e-07
2.00211e-07
-1.20231e-06
-6.69114e-10
1.34122e-09
0.00106391
-2.26611e-07
1.20382e-06
2.25954e-07
8.41801e-07
-2.04311e-07
-8.41963e-07
2.02957e-07
0.00106348
-7.51685e-10
-0.00106348
1.36096e-09
-1.19697e-06
2.23202e-07
-2.23864e-07
-8.3646e-07
2.00211e-07
-2.01537e-07
8.36334e-07
1.20382e-06
0.00106391
-6.68456e-10
-0.00106391
1.34693e-09
-1.20231e-06
2.25952e-07
-2.26611e-07
-8.41963e-07
2.02956e-07
-2.04317e-07
8.41803e-07
-2.08404e-07
-2.1069e-07
0.000259825
-1.16555e-06
0.000261773
-0.000259825
2.09931e-07
2.122e-07
1.30816e-09
0.00106451
-2.21292e-07
1.16295e-06
2.2066e-07
8.39084e-07
-2.04308e-07
-8.39183e-07
2.02992e-07
-1.19703e-06
-7.13273e-10
1.37208e-09
0.00106359
-2.26596e-07
1.19852e-06
2.25927e-07
8.38995e-07
-2.04255e-07
-8.3914e-07
2.02933e-07
0.00106451
-7.63123e-10
-0.00106451
1.30517e-09
-1.16145e-06
2.2066e-07
-2.21289e-07
-8.39188e-07
2.02987e-07
-2.04308e-07
8.39083e-07
1.19852e-06
0.00106359
-7.06054e-10
-0.00106359
1.36146e-09
-1.19702e-06
2.25927e-07
-2.26593e-07
-8.39145e-07
2.02927e-07
-2.04263e-07
8.38992e-07
-7.36305e-10
1.34173e-09
0.00106339
-2.21123e-07
1.19324e-06
2.20504e-07
8.36344e-07
-2.01536e-07
2.00202e-07
-8.365e-07
-7.75968e-10
-0.00106425
1.29424e-09
-1.16402e-06
2.17913e-07
-2.18539e-07
-8.36511e-07
2.00286e-07
8.36394e-07
-2.01589e-07
1.19324e-06
0.00106339
-7.33447e-10
-0.00106339
1.34239e-09
-1.19173e-06
2.20501e-07
-2.21127e-07
-8.365e-07
2.00207e-07
-2.0154e-07
8.36348e-07
-2.05882e-07
-2.10661e-07
0.000259787
-1.16024e-06
0.000261726
-0.000259787
2.07389e-07
2.12155e-07
-6.47489e-10
1.27199e-09
0.00106442
-2.18594e-07
1.16034e-06
2.1797e-07
8.36481e-07
-2.04299e-07
2.02955e-07
-8.3662e-07
-8.01405e-10
-0.00106391
1.3082e-09
-1.15872e-06
2.17884e-07
-2.18538e-07
-8.36339e-07
2.02916e-07
8.36279e-07
-2.04226e-07
1.16034e-06
0.00106442
-6.50653e-10
-0.00106442
1.2751e-09
-1.15884e-06
2.17967e-07
-2.18599e-07
-8.36622e-07
2.0296e-07
-2.04303e-07
8.36484e-07
-0.0002598
2.09695e-07
2.14879e-07
1.19697e-06
1.16145e-06
-2.0573e-07
-2.13336e-07
0.000259805
-1.19848e-06
-1.16295e-06
0.000261744
-0.000259805
2.07227e-07
2.14851e-07
1.35749e-09
0.00106348
-2.23867e-07
1.19847e-06
2.23203e-07
8.36325e-07
-2.01536e-07
-8.36464e-07
2.0021e-07
-1.20232e-06
-6.65247e-10
1.34405e-09
0.00106391
-2.26613e-07
1.20382e-06
2.25952e-07
8.418e-07
-2.04311e-07
-8.41963e-07
2.02957e-07
0.00106348
-7.55426e-10
-0.00106348
1.35316e-09
-1.19697e-06
2.23205e-07
-2.23861e-07
-8.36459e-07
2.00212e-07
-2.01536e-07
8.36335e-07
1.20382e-06
0.00106391
-6.75229e-10
-0.00106391
1.35108e-09
-1.20231e-06
2.25953e-07
-2.2661e-07
-8.41961e-07
2.02957e-07
-2.04315e-07
8.41803e-07
-2.08405e-07
-2.10692e-07
0.000259825
-1.16555e-06
0.000261773
-0.000259825
2.09931e-07
2.12201e-07
1.31052e-09
0.00106451
-2.21294e-07
1.16295e-06
2.20659e-07
8.39082e-07
-2.04309e-07
-8.39184e-07
2.02991e-07
-1.19703e-06
-7.07805e-10
1.3663e-09
0.00106359
-2.26596e-07
1.19852e-06
2.25926e-07
8.38993e-07
-2.04257e-07
-8.39142e-07
2.02932e-07
0.00106451
-7.6957e-10
-0.00106451
1.30208e-09
-1.16145e-06
2.20662e-07
-2.21287e-07
-8.39185e-07
2.02988e-07
-2.04304e-07
8.39085e-07
1.19852e-06
0.00106359
-7.10506e-10
-0.00106359
1.35409e-09
-1.19703e-06
2.25929e-07
-2.26592e-07
-8.39143e-07
2.02929e-07
-2.04261e-07
8.38993e-07
-7.31759e-10
1.34239e-09
0.00106339
-2.21124e-07
1.19324e-06
2.20503e-07
8.36343e-07
-2.01538e-07
2.00201e-07
-8.36502e-07
-7.79602e-10
-0.00106425
1.29024e-09
-1.16402e-06
2.17914e-07
-2.18538e-07
-8.36509e-07
2.00286e-07
8.36395e-07
-2.01587e-07
1.19324e-06
0.00106339
-7.37693e-10
-0.00106339
1.33942e-09
-1.19173e-06
2.20502e-07
-2.21126e-07
-8.36499e-07
2.00207e-07
-2.01538e-07
8.36348e-07
-2.05884e-07
-2.10664e-07
0.000259787
-1.16025e-06
0.000261726
-0.000259787
2.07394e-07
2.12162e-07
-6.44026e-10
1.27487e-09
0.00106442
-2.18595e-07
1.16034e-06
2.17969e-07
8.36481e-07
-2.04301e-07
2.02954e-07
-8.36621e-07
-8.13069e-10
-0.00106391
1.3e-09
-1.15873e-06
2.17886e-07
-2.18505e-07
-8.36336e-07
2.02918e-07
8.36282e-07
-2.04222e-07
1.16034e-06
0.00106442
-6.71555e-10
-0.00106442
1.28009e-09
-1.15884e-06
2.17968e-07
-2.18597e-07
-8.36617e-07
2.02964e-07
-2.04299e-07
8.36487e-07
-0.0002598
2.09696e-07
2.1488e-07
1.19697e-06
1.16145e-06
-2.05728e-07
-2.13332e-07
0.000259805
-1.19846e-06
-1.16294e-06
0.000261744
-0.000259805
2.07216e-07
2.14835e-07
1.34198e-09
0.00106348
-2.23863e-07
1.19848e-06
2.23204e-07
8.36323e-07
-2.01536e-07
-8.36464e-07
2.00208e-07
-1.20231e-06
-6.81201e-10
1.33415e-09
0.00106391
-2.2661e-07
1.20382e-06
2.25954e-07
8.418e-07
-2.04308e-07
-8.41959e-07
2.02956e-07
0.00106348
-6.20102e-10
-0.00106348
1.40459e-09
-1.19695e-06
2.23194e-07
-2.23845e-07
-8.36439e-07
2.00188e-07
-2.01518e-07
8.36314e-07
1.20381e-06
0.00106391
-5.67044e-10
-0.00106391
1.43039e-09
-1.2023e-06
2.25941e-07
-2.26594e-07
-8.41933e-07
2.02931e-07
-2.04288e-07
8.41782e-07
-2.08403e-07
-2.1069e-07
0.000259825
-1.16554e-06
0.000261773
-0.000259825
2.09911e-07
2.12189e-07
1.30103e-09
0.00106451
-2.21292e-07
1.16295e-06
2.20661e-07
8.39083e-07
-2.04306e-07
-8.39181e-07
2.02992e-07
-1.19702e-06
-7.20109e-10
1.35415e-09
0.00106359
-2.26593e-07
1.19852e-06
2.25928e-07
8.38993e-07
-2.04254e-07
-8.39139e-07
2.02932e-07
0.00106451
-6.53114e-10
-0.00106451
1.36233e-09
-1.16143e-06
2.20654e-07
-2.21274e-07
-8.3916e-07
2.0297e-07
-2.04286e-07
8.39067e-07
1.19851e-06
0.00106359
-5.92703e-10
-0.00106359
1.40805e-09
-1.19701e-06
2.25921e-07
-2.26573e-07
-8.39121e-07
2.02906e-07
-2.04241e-07
8.38973e-07
-7.53318e-10
1.32505e-09
0.00106339
-2.21122e-07
1.19324e-06
2.20504e-07
8.36344e-07
-2.01534e-07
2.00204e-07
-8.36498e-07
-6.40619e-10
-0.00106425
1.35585e-09
-1.16401e-06
2.17899e-07
-2.18522e-07
-8.36486e-07
2.00262e-07
8.36371e-07
-2.01568e-07
1.19323e-06
0.00106339
-5.82057e-10
-0.00106339
1.41151e-09
-1.19172e-06
2.20488e-07
-2.21115e-07
-8.36474e-07
2.00189e-07
-2.01515e-07
8.36331e-07
-2.05879e-07
-2.10659e-07
0.000259787
-1.16023e-06
0.000261724
-0.000259787
2.07387e-07
2.14651e-07
-6.88466e-10
1.27337e-09
0.00106442
-2.18593e-07
1.16034e-06
2.1797e-07
8.36486e-07
-2.04293e-07
2.02961e-07
-8.36614e-07
-6.85555e-10
-0.00106391
1.35166e-09
-1.15871e-06
2.17909e-07
-2.18519e-07
-8.36309e-07
2.02915e-07
8.36207e-07
-2.04201e-07
1.16033e-06
0.00106442
-6.26873e-10
-0.00106442
1.37039e-09
-1.15882e-06
2.17961e-07
-2.18578e-07
-8.36582e-07
2.02956e-07
-2.04265e-07
8.36483e-07
-0.0002598
2.09685e-07
2.14866e-07
1.19693e-06
1.16141e-06
-2.0568e-07
-2.13282e-07
0.000259805
-1.2008e-06
-1.16533e-06
0.000261748
-0.000259805
2.08834e-07
2.14024e-07
1.2549e-09
0.00106348
-2.23827e-07
1.19841e-06
2.23154e-07
8.36249e-07
-2.01473e-07
-8.36404e-07
2.00112e-07
-1.20228e-06
-7.03775e-10
1.26122e-09
0.00106391
-2.26573e-07
1.20377e-06
2.25906e-07
8.41727e-07
-2.04234e-07
-8.41888e-07
2.02859e-07
0.00106348
-1.80586e-09
-0.00106347
-4.53337e-09
-1.19842e-06
2.25576e-07
-2.22585e-07
-8.37096e-07
1.99703e-07
-2.01216e-07
8.37638e-07
1.20613e-06
0.00106392
-1.21871e-08
-0.00106391
5.92015e-10
-1.20115e-06
2.25614e-07
-2.25338e-07
-8.3733e-07
1.97094e-07
-1.98662e-07
8.37842e-07
-2.08351e-07
-2.10642e-07
0.000259825
-1.16788e-06
0.000261771
-0.000259823
2.0906e-07
2.16319e-07
1.23058e-09
0.0010645
-2.21258e-07
1.16553e-06
2.23312e-07
8.39012e-07
-2.04241e-07
-8.39112e-07
2.02901e-07
-1.19699e-06
-7.58196e-10
1.2595e-09
0.00106359
-2.26554e-07
1.19847e-06
2.25884e-07
8.38923e-07
-2.04187e-07
-8.39073e-07
2.02842e-07
0.00106451
-1.86803e-09
-0.00106451
5.74955e-10
-1.16293e-06
2.23046e-07
-2.22691e-07
-8.39777e-07
1.99836e-07
-2.01291e-07
8.40411e-07
1.19562e-06
0.0010636
-1.82054e-09
-0.00106359
-4.49941e-09
-1.19326e-06
2.25621e-07
-2.25312e-07
-8.37194e-07
1.99765e-07
-2.01268e-07
8.37724e-07
-7.3914e-10
1.23523e-09
0.00106339
-2.21088e-07
1.19319e-06
2.20458e-07
8.36275e-07
-2.01466e-07
2.00114e-07
-8.36431e-07
-7.04784e-09
-0.00106425
5.65643e-10
-1.16289e-06
2.17606e-07
-2.17263e-07
-8.37123e-07
1.99768e-07
8.40337e-07
-1.98583e-07
1.19561e-06
0.00106339
-7.04897e-09
-0.00106339
5.22431e-10
-1.19061e-06
2.22903e-07
-2.19859e-07
-8.37127e-07
1.99705e-07
-1.98546e-07
8.37658e-07
-2.05836e-07
-2.13108e-07
0.000259787
-1.15999e-06
0.000261722
-0.000259789
2.09026e-07
2.13799e-07
-7.70323e-10
1.2186e-09
0.00106442
-2.18552e-07
1.16029e-06
2.17927e-07
8.36433e-07
-2.04212e-07
2.02882e-07
-8.36535e-07
-1.89184e-09
-0.00106392
-4.56527e-09
-1.15758e-06
2.17627e-07
-2.17247e-07
-8.34313e-07
1.99762e-07
8.34911e-07
-2.01206e-07
1.16005e-06
0.00106442
-1.89924e-09
-0.00106442
-4.53516e-09
-1.15248e-06
2.17651e-07
-2.14621e-07
-8.31961e-07
1.97125e-07
-1.98604e-07
8.35152e-07
-0.000259805
2.08861e-07
2.16501e-07
1.19555e-06
1.15743e-06
-2.05859e-07
-2.08497e-07
0.000259809
-1.24989e-06
-1.21434e-06
0.000261832
-0.000259828
2.2774e-07
2.3299e-07
4.09186e-09
0.00106348
-2.22409e-07
1.20118e-06
2.2327e-07
8.36231e-07
-1.98002e-07
-8.35883e-07
1.92869e-07
-1.20086e-06
-8.75158e-10
-1.03675e-09
0.00106392
-2.25167e-07
1.20386e-06
2.25971e-07
8.39149e-07
-1.95409e-07
-8.3619e-07
1.95559e-07
0.00106374
-3.29748e-07
-0.00106358
-1.53158e-07
-1.15894e-06
2.48595e-07
-1.88218e-07
-7.8347e-07
2.21149e-07
-1.47318e-07
8.77276e-07
1.25513e-06
0.00106416
-3.2975e-07
-0.00106401
-1.47705e-07
-1.16435e-06
2.48558e-07
-1.88313e-07
-7.91629e-07
2.2385e-07
-1.47341e-07
8.85371e-07
-2.06074e-07
-2.10845e-07
0.000259825
-1.2143e-06
0.000261855
-0.000259849
2.30444e-07
2.32672e-07
-1.0394e-09
0.00106453
-2.19812e-07
1.1604e-06
2.1798e-07
8.36453e-07
-1.98042e-07
-8.36017e-07
1.95622e-07
-1.19037e-06
-1.15332e-08
-1.10115e-09
0.0010636
-2.22399e-07
1.19598e-06
2.23278e-07
8.36358e-07
-1.95329e-07
-8.35997e-07
1.92891e-07
0.00106476
-3.35716e-07
-0.00106461
-1.47624e-07
-1.12084e-06
2.45953e-07
-1.82983e-07
-7.88723e-07
2.24005e-07
-1.47267e-07
8.82779e-07
1.24726e-06
0.00106386
-3.35099e-07
-0.00106369
-1.53087e-07
-1.15641e-06
2.486e-07
-1.85559e-07
-7.86118e-07
2.23886e-07
-1.49902e-07
8.80043e-07
-6.2221e-09
-1.14921e-09
0.00106339
-2.22358e-07
1.19593e-06
2.23261e-07
8.36309e-07
-1.95298e-07
1.92853e-07
-8.33302e-07
-3.3023e-07
-0.00106434
-1.52696e-07
-1.12343e-06
2.43203e-07
-1.80299e-07
-7.86183e-07
2.21169e-07
8.80013e-07
-1.47288e-07
1.24723e-06
0.00106364
-3.29784e-07
-0.00106349
-1.53137e-07
-1.15375e-06
2.48545e-07
-1.82821e-07
-7.86084e-07