/*--------------------------------*- C++ -*----------------------------------*\
| =========                 |                                                 |
| \\      /  F ield         | OpenFOAM: The Open Source CFD Toolbox           |
|  \\    /   O peration     | Version:  2206                                  |
|   \\  /    A nd           | Website:  www.openfoam.com                      |
|    \\/     M anipulation  |                                                 |
\*---------------------------------------------------------------------------*/
FoamFile
{
    version     2.0;
    format      ascii;
    arch        "LSB;label=32;scalar=64";
    class       volVectorField;
    location    "8";
    object      U;
}
// * * * * * * * * * * * * * * * * * * * * * * * * * * * * * * * * * * * * * //

dimensions      [0 1 -1 0 0 0 0];

internalField   nonuniform List<vector> 
28673
(
(-1.8192e-07 3.53804e-07 0.101039)
(-3.43217e-05 -3.43363e-05 0.101036)
(-3.88118e-07 -3.26524e-07 0.10104)
(-2.50077e-07 4.44256e-07 0.101039)
(3.21636e-07 -1.87464e-07 0.101039)
(-3.43148e-05 -3.43051e-05 0.101036)
(-2.92645e-07 -3.11692e-07 0.10104)
(-2.57428e-07 3.97909e-07 0.101039)
(4.26298e-07 -2.62949e-07 0.101039)
(-3.4409e-05 -3.44219e-05 0.101036)
(-3.25124e-07 -3.35057e-07 0.10104)
(-2.24687e-07 3.86399e-07 0.101039)
(3.95516e-07 -2.23726e-07 0.101039)
(-3.43659e-05 -3.4381e-05 0.101036)
(-3.30616e-07 -3.34879e-07 0.10104)
(-2.24746e-07 3.87147e-07 0.101039)
(3.9023e-07 -2.21213e-07 0.101039)
(-3.43658e-05 -3.43772e-05 0.101036)
(-3.31559e-07 -3.34404e-07 0.10104)
(-2.25622e-07 3.8786e-07 0.101039)
(3.89238e-07 -2.20939e-07 0.101039)
(-3.43669e-05 -3.43777e-05 0.101036)
(-3.32052e-07 -3.34851e-07 0.10104)
(-2.24915e-07 3.87429e-07 0.101039)
(3.89145e-07 -2.20726e-07 0.101039)
(-3.43665e-05 -3.43766e-05 0.101036)
(-3.31743e-07 -3.34393e-07 0.10104)
(-2.25413e-07 3.87533e-07 0.101039)
(3.89166e-07 -2.21644e-07 0.101039)
(-3.43672e-05 -3.43771e-05 0.101036)
(-3.33821e-07 -3.34971e-07 0.10104)
(-2.23953e-07 3.8741e-07 0.101039)
(3.88311e-07 -2.21016e-07 0.101039)
(-3.43658e-05 -3.43763e-05 0.101036)
(-3.48768e-07 -3.49728e-07 0.101041)
(-2.33152e-07 3.9854e-07 0.101039)
(3.97529e-07 -2.3185e-07 0.101039)
(-3.43424e-05 -3.43558e-05 0.101036)
(-2.9691e-07 -2.91958e-07 0.101041)
(-1.10258e-06 1.12294e-06 0.101038)
(1.11509e-06 -1.09759e-06 0.101038)
(-3.33167e-05 -3.33233e-05 0.101036)
(-6.81893e-06 -6.76004e-06 0.101038)
(-2.93761e-06 2.67114e-06 0.101035)
(2.63905e-06 -2.92261e-06 0.101035)
(-2.28131e-05 -2.2792e-05 0.101038)
(-4.41009e-05 -4.39717e-05 0.100966)
(4.28706e-05 -3.48925e-05 0.100972)
(-3.49856e-05 4.28544e-05 0.100972)
(5.00661e-05 5.01038e-05 0.100975)
(-3.76982e-07 2.04384e-07 0.101039)
(3.5529e-05 -3.55055e-05 0.101036)
(-1.92804e-07 3.67838e-07 0.101039)
(-3.55893e-05 -3.55435e-05 0.101036)
(3.88626e-07 1.97774e-07 0.101039)
(-3.63748e-07 1.94138e-07 0.101039)
(3.30836e-07 1.60716e-07 0.101039)
(-4.14746e-07 1.97402e-07 0.101039)
(-3.43159e-05 3.4288e-05 0.101036)
(3.55246e-05 -3.55035e-05 0.101036)
(1.34384e-07 3.55877e-07 0.101039)
(1.40216e-07 -3.43216e-07 0.101039)
(-2.05283e-07 -3.78096e-07 0.101039)
(-1.87846e-07 4.01821e-07 0.101039)
(-1.72256e-07 -3.39673e-07 0.101039)
(-3.5545e-05 3.55668e-05 0.101036)
(-3.66255e-07 -2.05854e-07 0.101039)
(3.25152e-07 -1.32694e-07 0.101039)
(-3.51746e-07 -1.53247e-07 0.101039)
(3.55506e-05 3.55896e-05 0.101036)
(3.42853e-05 3.43017e-05 0.101036)
(-3.5452e-05 -3.54469e-05 0.101036)
(3.6079e-07 2.42924e-07 0.101039)
(-4.59077e-07 2.58571e-07 0.101039)
(4.31658e-07 2.8612e-07 0.101039)
(-4.18566e-07 2.87412e-07 0.101039)
(-3.43988e-05 3.43698e-05 0.101036)
(3.54755e-05 -3.54523e-05 0.101036)
(1.5572e-07 4.10243e-07 0.101039)
(1.40206e-07 -3.56633e-07 0.101039)
(2.87827e-07 4.20412e-07 0.101039)
(3.0222e-07 -4.4091e-07 0.101039)
(-2.45043e-07 -3.81699e-07 0.101039)
(-2.76946e-07 4.06671e-07 0.101039)
(-2.97311e-07 -4.23714e-07 0.101039)
(3.42539e-05 -3.43059e-05 0.101036)
(-3.54049e-05 3.54476e-05 0.101036)
(-4.0882e-07 -2.20034e-07 0.101039)
(4.35387e-07 -2.8728e-07 0.101039)
(-4.19127e-07 -2.91375e-07 0.101039)
(3.54385e-05 3.54622e-05 0.101036)
(3.44365e-05 3.43912e-05 0.101036)
(-3.55051e-05 -3.54935e-05 0.101036)
(4.25386e-07 2.65175e-07 0.101039)
(-4.08273e-07 2.68874e-07 0.101039)
(4.0674e-07 2.2717e-07 0.101039)
(-3.96539e-07 2.38507e-07 0.101039)
(-3.44056e-05 3.43789e-05 0.101036)
(3.55162e-05 -3.54922e-05 0.101036)
(2.79067e-07 4.03855e-07 0.101039)
(2.92239e-07 -4.30455e-07 0.101039)
(2.36789e-07 3.87449e-07 0.101039)
(2.44039e-07 -4.02955e-07 0.101039)
(-2.74502e-07 -4.15103e-07 0.101039)
(-2.26169e-07 3.87533e-07 0.101039)
(-2.39057e-07 -3.96848e-07 0.101039)
(3.44285e-05 -3.44514e-05 0.101036)
(-3.54783e-05 3.5514e-05 0.101036)
(-4.01643e-07 -2.74333e-07 0.101039)
(3.99822e-07 -2.25e-07 0.101039)
(-3.83442e-07 -2.4101e-07 0.101039)
(3.54929e-05 3.55099e-05 0.101036)
(3.43829e-05 3.4355e-05 0.101036)
(-3.55143e-05 -3.54927e-05 0.101036)
(4.02918e-07 2.29643e-07 0.101039)
(-3.95896e-07 2.37319e-07 0.101039)
(3.98742e-07 2.2552e-07 0.101039)
(-3.96985e-07 2.35392e-07 0.101039)
(-3.43749e-05 3.4348e-05 0.101036)
(3.55175e-05 -3.54939e-05 0.101036)
(2.32471e-07 3.88265e-07 0.101039)
(2.37495e-07 -4.02921e-07 0.101039)
(2.24377e-07 3.88182e-07 0.101039)
(2.30511e-07 -3.9636e-07 0.101039)
(-2.38068e-07 -3.95234e-07 0.101039)
(-2.23244e-07 3.86824e-07 0.101039)
(-2.3571e-07 -3.9172e-07 0.101039)
(3.43599e-05 -3.43893e-05 0.101036)
(-3.5488e-05 3.55179e-05 0.101036)
(-3.83582e-07 -2.39211e-07 0.101039)
(3.9029e-07 -2.19149e-07 0.101039)
(-3.83911e-07 -2.33971e-07 0.101039)
(3.5494e-05 3.55156e-05 0.101036)
(3.43764e-05 3.43565e-05 0.101036)
(-3.55151e-05 -3.54918e-05 0.101036)
(3.98873e-07 2.3067e-07 0.101039)
(-3.97347e-07 2.36472e-07 0.101039)
(3.98174e-07 2.26921e-07 0.101039)
(-3.98684e-07 2.36493e-07 0.101039)
(-3.43746e-05 3.43474e-05 0.101036)
(3.55159e-05 -3.54927e-05 0.101036)
(2.25854e-07 3.90586e-07 0.101039)
(2.30178e-07 -4.00634e-07 0.101039)
(2.23437e-07 3.89543e-07 0.101039)
(2.29858e-07 -3.9617e-07 0.101039)
(-2.37358e-07 -3.92232e-07 0.101039)
(-2.25045e-07 3.88053e-07 0.101039)
(-2.37347e-07 -3.91784e-07 0.101039)
(3.43526e-05 -3.43856e-05 0.101036)
(-3.54888e-05 3.5518e-05 0.101036)
(-3.84956e-07 -2.35172e-07 0.101039)
(3.89061e-07 -2.19454e-07 0.101039)
(-3.85527e-07 -2.34127e-07 0.101039)
(3.54927e-05 3.55151e-05 0.101036)
(3.43758e-05 3.43572e-05 0.101036)
(-3.55159e-05 -3.5492e-05 0.101036)
(3.97727e-07 2.31246e-07 0.101039)
(-3.98523e-07 2.37324e-07 0.101039)
(3.9692e-07 2.26422e-07 0.101039)
(-3.97639e-07 2.35235e-07 0.101039)
(-3.4376e-05 3.43484e-05 0.101036)
(3.55169e-05 -3.54935e-05 0.101036)
(2.25074e-07 3.9073e-07 0.101039)
(2.29797e-07 -4.0037e-07 0.101039)
(2.22564e-07 3.8891e-07 0.101039)
(2.28642e-07 -3.96025e-07 0.101039)
(-2.38552e-07 -3.92361e-07 0.101039)
(-2.23767e-07 3.87131e-07 0.101039)
(-2.36545e-07 -3.91012e-07 0.101039)
(3.43521e-05 -3.43856e-05 0.101036)
(-3.54894e-05 3.55186e-05 0.101036)
(-3.86113e-07 -2.35248e-07 0.101039)
(3.88344e-07 -2.18635e-07 0.101039)
(-3.8516e-07 -2.33384e-07 0.101039)
(3.54932e-05 3.55162e-05 0.101036)
(3.43751e-05 3.4357e-05 0.101036)
(-3.55152e-05 -3.54913e-05 0.101036)
(3.97315e-07 2.30789e-07 0.101039)
(-3.97966e-07 2.36416e-07 0.101039)
(3.98224e-07 2.27345e-07 0.101039)
(-3.98852e-07 2.36048e-07 0.101039)
(-3.43748e-05 3.43475e-05 0.101036)
(3.55163e-05 -3.54932e-05 0.101036)
(2.24489e-07 3.90817e-07 0.101039)
(2.29224e-07 -3.99651e-07 0.101039)
(2.23679e-07 3.90281e-07 0.101039)
(2.29688e-07 -3.98168e-07 0.101039)
(-2.38081e-07 -3.91797e-07 0.101039)
(-2.24775e-07 3.88065e-07 0.101039)
(-2.37612e-07 -3.916e-07 0.101039)
(3.43512e-05 -3.43846e-05 0.101036)
(-3.54887e-05 3.5517e-05 0.101036)
(-3.8585e-07 -2.34805e-07 0.101039)
(3.89293e-07 -2.20009e-07 0.101039)
(-3.86057e-07 -2.34108e-07 0.101039)
(3.54923e-05 3.55157e-05 0.101036)
(3.4376e-05 3.4358e-05 0.101036)
(-3.5516e-05 -3.54919e-05 0.101036)
(3.97329e-07 2.31295e-07 0.101039)
(-3.98248e-07 2.36735e-07 0.101039)
(3.96663e-07 2.25932e-07 0.101039)
(-3.98446e-07 2.34881e-07 0.101039)
(-3.43757e-05 3.43479e-05 0.101036)
(3.55167e-05 -3.54933e-05 0.101036)
(2.24839e-07 3.91035e-07 0.101039)
(2.29854e-07 -3.98451e-07 0.101039)
(2.22529e-07 3.89045e-07 0.101039)
(2.2888e-07 -3.96995e-07 0.101039)
(-2.38598e-07 -3.91906e-07 0.101039)
(-2.23652e-07 3.8698e-07 0.101039)
(-2.35993e-07 -3.90839e-07 0.101039)
(3.43518e-05 -3.4385e-05 0.101036)
(-3.54903e-05 3.55194e-05 0.101036)
(-3.86292e-07 -2.35109e-07 0.101039)
(3.87863e-07 -2.18284e-07 0.101039)
(-3.85498e-07 -2.31741e-07 0.101039)
(3.54929e-05 3.55161e-05 0.101036)
(3.43743e-05 3.43571e-05 0.101036)
(-3.55068e-05 -3.54853e-05 0.101036)
(3.96102e-07 2.32222e-07 0.101039)
(-3.97061e-07 2.35846e-07 0.101039)
(3.9432e-07 2.28249e-07 0.101039)
(-3.98044e-07 2.35567e-07 0.101039)
(-3.43744e-05 3.43468e-05 0.101036)
(3.55099e-05 -3.54837e-05 0.101036)
(2.23698e-07 3.90345e-07 0.101039)
(2.291e-07 -3.97439e-07 0.101039)
(2.24239e-07 3.87444e-07 0.101039)
(2.31691e-07 -3.95053e-07 0.101039)
(-2.34413e-07 -3.90266e-07 0.101039)
(-2.26194e-07 3.85858e-07 0.101039)
(-2.33268e-07 -3.91986e-07 0.101039)
(3.43499e-05 -3.43825e-05 0.101036)
(-3.54843e-05 3.55146e-05 0.101036)
(-3.85636e-07 -2.30829e-07 0.101039)
(3.8482e-07 -2.20558e-07 0.101039)
(-3.85838e-07 -2.26232e-07 0.101039)
(3.5488e-05 3.55085e-05 0.101036)
(3.4352e-05 3.43362e-05 0.101036)
(-3.51248e-05 -3.51068e-05 0.101036)
(4.0544e-07 2.43879e-07 0.101039)
(-4.06808e-07 2.45013e-07 0.101039)
(-6.64551e-09 -1.59032e-07 0.101039)
(-3.98258e-09 -1.57405e-07 0.101039)
(-3.43533e-05 3.43246e-05 0.101036)
(3.51303e-05 -3.51021e-05 0.101036)
(2.35809e-07 4.00039e-07 0.101039)
(2.38733e-07 -4.05303e-07 0.101039)
(-1.76325e-07 -8.03988e-09 0.101039)
(-1.62488e-07 5.09575e-09 0.101039)
(-2.41275e-07 -3.98772e-07 0.101039)
(1.71367e-07 -7.99864e-09 0.101039)
(1.66293e-07 3.83243e-09 0.101039)
(3.43303e-05 -3.43617e-05 0.101036)
(-3.51103e-05 3.51299e-05 0.101036)
(-3.95394e-07 -2.33839e-07 0.101039)
(-1.97311e-08 1.74697e-07 0.101039)
(1.13013e-08 1.73257e-07 0.101039)
(3.50989e-05 3.51274e-05 0.101036)
(3.33201e-05 3.33097e-05 0.101036)
(-2.90146e-05 -2.89608e-05 0.101036)
(1.12214e-06 1.11228e-06 0.101038)
(-1.12928e-06 1.11566e-06 0.101038)
(-4.46104e-06 -6.50577e-06 0.101041)
(4.43522e-06 -6.49859e-06 0.101041)
(-3.33224e-05 3.3305e-05 0.101036)
(2.89738e-05 -2.89674e-05 0.101036)
(1.0995e-06 1.12132e-06 0.101038)
(1.10761e-06 -1.12282e-06 0.101038)
(-6.53463e-06 -4.43854e-06 0.101041)
(-6.53487e-06 4.45469e-06 0.101041)
(-1.10884e-06 -1.1142e-06 0.101038)
(6.50808e-06 -4.41517e-06 0.101041)
(6.5181e-06 4.4513e-06 0.101041)
(3.33065e-05 -3.33313e-05 0.101036)
(-2.89987e-05 2.89887e-05 0.101036)
(-1.11556e-06 -1.09713e-06 0.101038)
(-4.44673e-06 6.51511e-06 0.101041)
(4.43912e-06 6.52215e-06 0.101041)
(2.89652e-05 2.89948e-05 0.101036)
(2.27628e-05 2.28292e-05 0.101038)
(-4.46335e-05 -4.44567e-05 0.100997)
(2.62359e-06 2.96087e-06 0.101035)
(-2.65224e-06 2.96402e-06 0.101035)
(-3.57493e-05 -5.70984e-05 0.101008)
(3.57453e-05 -5.71466e-05 0.101008)
(-2.2807e-05 2.28322e-05 0.101038)
(4.46231e-05 -4.44735e-05 0.100997)
(2.88844e-06 2.65536e-06 0.101035)
(2.89652e-06 -2.61638e-06 0.101035)
(-5.7295e-05 -3.56393e-05 0.101008)
(-5.72457e-05 3.57505e-05 0.101008)
(-2.92654e-06 -2.61853e-06 0.101035)
(5.72722e-05 -3.56512e-05 0.101008)
(5.7229e-05 3.57592e-05 0.101008)
(2.27594e-05 -2.28099e-05 0.101038)
(-4.45802e-05 4.46198e-05 0.100997)
(-2.6402e-06 -2.92085e-06 0.101035)
(-3.57197e-05 5.72462e-05 0.101008)
(3.57316e-05 5.72955e-05 0.101008)
(4.45788e-05 4.46232e-05 0.100997)
(-5.01212e-05 -4.99358e-05 0.100975)
(-3.50144e-05 -4.26864e-05 0.100972)
(3.50025e-05 -4.27183e-05 0.100972)
(5.01014e-05 -4.9935e-05 0.100975)
(-4.28935e-05 -3.48938e-05 0.100972)
(-4.2849e-05 3.50058e-05 0.100972)
(4.40934e-05 -4.397e-05 0.100966)
(-4.40777e-05 4.41035e-05 0.100966)
(4.40977e-05 4.41172e-05 0.100966)
(4.2842e-05 3.50156e-05 0.100972)
(-5.00604e-05 5.01017e-05 0.100975)
(3.49993e-05 4.29004e-05 0.100972)
(-3.22653e-08 -5.65416e-06 0.100657)
(5.65477e-07 4.39251e-06 0.0981888)
(1.895e-08 5.52259e-06 0.100656)
(-6.68767e-07 -4.9874e-06 0.0981909)
(-8.66122e-07 9.3548e-07 0.0919545)
(1.16609e-06 -1.58883e-06 0.0919581)
(-5.62662e-06 -2.23438e-08 0.100657)
(-4.86287e-06 -8.09329e-07 0.0981904)
(3.73519e-07 -3.66657e-07 0.10104)
(3.69092e-07 3.47349e-07 0.10104)
(-3.91414e-07 -3.66276e-07 0.10104)
(3.47059e-07 -3.43434e-07 0.10104)
(-3.79858e-07 3.74838e-07 0.10104)
(3.70663e-07 3.76661e-07 0.10104)
(1.01367e-05 -5.39896e-08 0.100985)
(-8.55128e-06 2.50127e-06 0.100739)
(-2.26927e-07 -1.43347e-07 0.10104)
(-1.59606e-07 3.34114e-07 0.101039)
(-9.942e-06 2.19346e-08 0.100985)
(8.52096e-06 -2.88447e-06 0.10074)
(-2.02633e-07 -1.46966e-07 0.10104)
(-1.63121e-06 1.22811e-06 0.0919554)
(-3.82149e-08 1.01225e-05 0.100985)
(-1.17844e-07 -2.33758e-07 0.10104)
(3.76071e-07 -1.75057e-07 0.101039)
(4.96084e-08 -9.94005e-06 0.100985)
(-1.22574e-07 -2.12056e-07 0.10104)
(-2.83857e-06 8.48743e-06 0.10074)
(-2.8337e-06 -3.26432e-06 0.100241)
(-3.25253e-06 -2.83183e-06 0.100241)
(3.55139e-05 3.5537e-05 0.101036)
(2.5519e-06 3.27847e-06 0.100242)
(3.27233e-06 2.54849e-06 0.100242)
(-2.34205e-09 -5.52201e-06 0.100656)
(8.32894e-07 4.18127e-06 0.0981898)
(-8.07228e-08 5.3626e-06 0.100655)
(-8.68242e-07 -4.15919e-06 0.0981915)
(-1.27809e-06 1.18505e-06 0.0919606)
(4.10368e-07 -2.54538e-07 0.0919582)
(-5.72826e-06 5.56016e-09 0.100656)
(4.42279e-06 7.64453e-07 0.0981893)
(5.4413e-06 1.01847e-09 0.100655)
(-5.09956e-06 -5.04919e-07 0.0981912)
(2.84394e-07 -2.83688e-07 0.10104)
(-3.93274e-07 3.68264e-07 0.10104)
(3.35574e-07 3.49179e-07 0.10104)
(-2.85656e-07 -2.90972e-07 0.10104)
(3.07827e-07 -3.03471e-07 0.10104)
(-2.78022e-07 2.85286e-07 0.10104)
(2.99529e-07 2.84162e-07 0.10104)
(9.7281e-06 7.18355e-09 0.100985)
(-8.57683e-06 2.64625e-06 0.100738)
(-2.70217e-07 -8.03436e-08 0.10104)
(-2.88989e-07 4.37343e-07 0.101039)
(-9.82852e-06 7.35087e-08 0.100984)
(8.13065e-06 -2.44465e-06 0.100739)
(-3.49407e-07 -7.6176e-08 0.10104)
(8.93285e-07 -9.05841e-07 0.0919552)
(-1.82801e-06 1.31663e-06 0.0919611)
(-1.13598e-07 9.74922e-06 0.100985)
(-1.78208e-07 -2.26471e-07 0.10104)
(2.42222e-06 -8.49584e-06 0.100738)
(3.66648e-07 -2.66012e-07 0.101039)
(-5.9699e-09 -9.79765e-06 0.100984)
(-1.80616e-07 -3.23269e-07 0.10104)
(-2.97628e-06 8.41053e-06 0.100739)
(-2.83038e-06 -3.09383e-06 0.100241)
(-3.10229e-06 -2.8119e-06 0.100241)
(3.54052e-05 3.54505e-05 0.101036)
(2.76105e-06 3.02373e-06 0.100242)
(3.00165e-06 2.76903e-06 0.100241)
(2.43214e-09 -5.5721e-06 0.100657)
(6.16563e-07 4.90081e-06 0.098189)
(3.65315e-08 5.57363e-06 0.100656)
(-7.54062e-07 -4.57368e-06 0.0981904)
(-1.07976e-06 1.36783e-06 0.0919536)
(1.05111e-06 -1.27081e-06 0.0919553)
(-5.56922e-06 -1.94469e-08 0.100657)
(5.37533e-06 5.00813e-07 0.0981892)
(5.63919e-06 2.45766e-08 0.100656)
(-4.45578e-06 -7.82447e-07 0.0981903)
(3.23621e-07 -3.17771e-07 0.10104)
(-2.81559e-07 2.90459e-07 0.10104)
(3.19452e-07 2.9746e-07 0.10104)
(-3.20889e-07 -3.33045e-07 0.10104)
(3.37123e-07 -3.28958e-07 0.10104)
(-3.1502e-07 3.25639e-07 0.10104)
(3.41812e-07 3.18252e-07 0.10104)
(9.91702e-06 -5.10618e-08 0.100985)
(-8.72664e-06 2.70206e-06 0.100739)
(-3.3193e-07 -1.2354e-07 0.10104)
(-2.40616e-07 3.92237e-07 0.101039)
(-1.01697e-05 3.16473e-08 0.100985)
(8.35605e-06 -2.74011e-06 0.10074)
(-3.02896e-07 -1.25426e-07 0.10104)
(2.04392e-06 -1.49095e-06 0.0919541)
(-1.10827e-06 9.81678e-07 0.091955)
(-1.77831e-08 9.89879e-06 0.100985)
(-8.61773e-08 -3.38431e-07 0.10104)
(2.96828e-06 -8.8668e-06 0.100739)
(4.14882e-07 -2.42967e-07 0.101039)
(8.58253e-08 -1.0172e-05 0.100985)
(-9.52664e-08 -3.14348e-07 0.10104)
(-2.6877e-06 8.35286e-06 0.10074)
(-2.68731e-06 -3.30772e-06 0.100241)
(-3.30125e-06 -2.68422e-06 0.100241)
(3.54789e-05 3.54944e-05 0.101036)
(2.67479e-06 3.1644e-06 0.100243)
(3.16637e-06 2.66431e-06 0.100242)
(-6.20734e-09 -5.59661e-06 0.100657)
(6.73728e-07 4.6786e-06 0.0981887)
(1.02141e-08 5.49977e-06 0.100656)
(-7.53629e-07 -4.60065e-06 0.0981904)
(-1.1067e-06 1.28087e-06 0.0919535)
(1.03714e-06 -1.28373e-06 0.0919553)
(-5.62632e-06 -1.58029e-08 0.100657)
(4.66751e-06 6.47098e-07 0.0981885)
(5.5352e-06 6.91634e-09 0.100656)
(-4.591e-06 -7.45965e-07 0.0981901)
(3.37202e-07 -3.29776e-07 0.10104)
(-3.20658e-07 3.29333e-07 0.10104)
(3.43743e-07 3.20549e-07 0.10104)
(-3.30213e-07 -3.34698e-07 0.10104)
(3.36628e-07 -3.29492e-07 0.10104)
(-3.26537e-07 3.34029e-07 0.10104)
(3.43388e-07 3.23611e-07 0.10104)
(9.9499e-06 -4.46903e-08 0.100985)
(-8.64493e-06 2.6376e-06 0.100739)
(-2.76716e-07 -1.23664e-07 0.10104)
(-2.22964e-07 3.8689e-07 0.101039)
(-1.00309e-05 3.76347e-08 0.100985)
(8.37586e-06 -2.74303e-06 0.10074)
(-2.72603e-07 -1.23812e-07 0.10104)
(1.2261e-06 -1.07403e-06 0.0919523)
(-1.234e-06 1.01392e-06 0.0919549)
(-4.12774e-08 9.93919e-06 0.100985)
(-1.14527e-07 -2.79283e-07 0.10104)
(2.66093e-06 -8.67096e-06 0.100739)
(3.93111e-07 -2.20476e-07 0.101039)
(4.43132e-08 -1.00228e-05 0.100985)
(-1.17235e-07 -2.77614e-07 0.10104)
(-2.75793e-06 8.40389e-06 0.10074)
(-2.7506e-06 -3.25626e-06 0.100241)
(-3.24478e-06 -2.74825e-06 0.100241)
(3.54926e-05 3.55128e-05 0.101036)
(2.6848e-06 3.17123e-06 0.100243)
(3.16952e-06 2.67766e-06 0.100242)
(-7.80216e-09 -5.59726e-06 0.100657)
(6.70345e-07 4.67892e-06 0.0981887)
(6.10706e-09 5.49765e-06 0.100656)
(-7.56265e-07 -4.59931e-06 0.0981904)
(-1.10703e-06 1.27904e-06 0.0919535)
(1.03611e-06 -1.2849e-06 0.0919553)
(-5.62814e-06 -1.48476e-08 0.100657)
(4.66603e-06 6.52434e-07 0.0981885)
(5.52838e-06 9.64175e-09 0.100656)
(-4.59215e-06 -7.4463e-07 0.0981901)
(3.35861e-07 -3.29481e-07 0.10104)
(-3.27695e-07 3.33849e-07 0.10104)
(3.43394e-07 3.23702e-07 0.10104)
(-3.31372e-07 -3.33748e-07 0.10104)
(3.34967e-07 -3.28611e-07 0.10104)
(-3.28203e-07 3.34553e-07 0.10104)
(3.41767e-07 3.23956e-07 0.10104)
(9.9506e-06 -4.36495e-08 0.100985)
(-8.6435e-06 2.63826e-06 0.100739)
(-2.75796e-07 -1.22246e-07 0.10104)
(-2.24119e-07 3.87962e-07 0.101039)
(-1.00289e-05 3.92603e-08 0.100985)
(8.37595e-06 -2.74263e-06 0.10074)
(-2.74076e-07 -1.22555e-07 0.10104)
(1.22902e-06 -1.07898e-06 0.0919523)
(-1.23352e-06 1.01362e-06 0.0919549)
(-4.33271e-08 9.94172e-06 0.100985)
(-1.19601e-07 -2.73891e-07 0.10104)
(2.65568e-06 -8.66803e-06 0.100739)
(3.89834e-07 -2.19161e-07 0.101039)
(3.93125e-08 -1.00186e-05 0.100985)
(-1.20339e-07 -2.74976e-07 0.10104)
(-2.76033e-06 8.40443e-06 0.10074)
(-2.74968e-06 -3.25385e-06 0.100241)
(-3.24577e-06 -2.74539e-06 0.100241)
(3.54913e-05 3.55138e-05 0.101036)
(2.68473e-06 3.17307e-06 0.100243)
(3.1688e-06 2.67947e-06 0.100242)
(-7.85817e-09 -5.59642e-06 0.100657)
(6.69118e-07 4.67912e-06 0.0981887)
(5.42143e-09 5.49801e-06 0.100656)
(-7.56219e-07 -4.59887e-06 0.0981904)
(-1.10769e-06 1.27945e-06 0.0919535)
(1.03579e-06 -1.28491e-06 0.0919553)
(-5.62776e-06 -1.44896e-08 0.100657)
(4.66583e-06 6.54076e-07 0.0981885)
(5.52916e-06 1.01274e-08 0.100656)
(-4.59233e-06 -7.43405e-07 0.0981901)
(3.34662e-07 -3.28727e-07 0.10104)
(-3.28598e-07 3.34178e-07 0.10104)
(3.42054e-07 3.23871e-07 0.10104)
(-3.32057e-07 -3.34056e-07 0.10104)
(3.35241e-07 -3.28999e-07 0.10104)
(-3.28898e-07 3.34664e-07 0.10104)
(3.41939e-07 3.24219e-07 0.10104)
(9.95002e-06 -4.38185e-08 0.100985)
(-8.64409e-06 2.63845e-06 0.100739)
(-2.76857e-07 -1.21822e-07 0.10104)
(-2.2452e-07 3.88122e-07 0.101039)
(-1.00302e-05 3.94435e-08 0.100985)
(8.37569e-06 -2.74224e-06 0.10074)
(-2.7435e-07 -1.22427e-07 0.10104)
(1.23007e-06 -1.07865e-06 0.0919523)
(-1.23288e-06 1.01365e-06 0.0919549)
(-4.41436e-08 9.94392e-06 0.100985)
(-1.20526e-07 -2.73256e-07 0.10104)
(2.65512e-06 -8.66899e-06 0.100739)
(3.89327e-07 -2.19292e-07 0.101039)
(3.9718e-08 -1.00218e-05 0.100985)
(-1.20907e-07 -2.74548e-07 0.10104)
(-2.76002e-06 8.40402e-06 0.10074)
(-2.75079e-06 -3.25394e-06 0.100241)
(-3.24717e-06 -2.74562e-06 0.100241)
(3.54909e-05 3.5514e-05 0.101036)
(2.68403e-06 3.17283e-06 0.100243)
(3.16817e-06 2.67937e-06 0.100242)
(-8.18402e-09 -5.59704e-06 0.100657)
(6.69206e-07 4.67939e-06 0.0981887)
(5.3149e-09 5.49865e-06 0.100656)
(-7.56698e-07 -4.59941e-06 0.0981904)
(-1.10824e-06 1.27885e-06 0.0919535)
(1.03598e-06 -1.28537e-06 0.0919553)
(-5.62902e-06 -1.43486e-08 0.100657)
(4.66606e-06 6.53154e-07 0.0981885)
(5.52871e-06 1.00469e-08 0.100656)
(-4.5928e-06 -7.4486e-07 0.0981901)
(3.35093e-07 -3.29307e-07 0.10104)
(-3.29232e-07 3.34552e-07 0.10104)
(3.42556e-07 3.24188e-07 0.10104)
(-3.31644e-07 -3.33891e-07 0.10104)
(3.35099e-07 -3.28847e-07 0.10104)
(-3.28536e-07 3.34415e-07 0.10104)
(3.41627e-07 3.24016e-07 0.10104)
(9.95073e-06 -4.33089e-08 0.100985)
(-8.64335e-06 2.63837e-06 0.100739)
(-2.76088e-07 -1.22046e-07 0.10104)
(-2.24088e-07 3.87851e-07 0.101039)
(-1.00291e-05 3.97441e-08 0.100985)
(8.37622e-06 -2.74272e-06 0.10074)
(-2.74016e-07 -1.22572e-07 0.10104)
(1.22921e-06 -1.07933e-06 0.0919523)
(-1.23392e-06 1.01331e-06 0.0919549)
(-4.50658e-08 9.94553e-06 0.100985)
(-1.2082e-07 -2.7311e-07 0.10104)
(2.65451e-06 -8.66822e-06 0.100739)
(3.89116e-07 -2.19412e-07 0.101039)
(4.01943e-08 -1.0023e-05 0.100985)
(-1.21188e-07 -2.75086e-07 0.10104)
(-2.76108e-06 8.40498e-06 0.10074)
(-2.75065e-06 -3.25376e-06 0.100241)
(-3.24696e-06 -2.74486e-06 0.100241)
(3.5491e-05 3.55146e-05 0.101036)
(2.685e-06 3.17327e-06 0.100243)
(3.16841e-06 2.68034e-06 0.100242)
(-8.51639e-09 -5.59604e-06 0.100657)
(6.69028e-07 4.67929e-06 0.0981887)
(4.77788e-09 5.49739e-06 0.100656)
(-7.56209e-07 -4.59865e-06 0.0981904)
(-1.10774e-06 1.27925e-06 0.0919535)
(1.03628e-06 -1.28446e-06 0.0919553)
(-5.62723e-06 -1.42605e-08 0.100657)
(4.66538e-06 6.53156e-07 0.0981885)
(5.52817e-06 1.0302e-08 0.100656)
(-4.58941e-06 -7.42835e-07 0.0981901)
(3.3468e-07 -3.29022e-07 0.10104)
(-3.28995e-07 3.34153e-07 0.10104)
(3.42342e-07 3.23949e-07 0.10104)
(-3.31572e-07 -3.33111e-07 0.10104)
(3.34538e-07 -3.28816e-07 0.10104)
(-3.28504e-07 3.3466e-07 0.10104)
(3.40436e-07 3.24954e-07 0.10104)
(9.9499e-06 -4.35213e-08 0.100985)
(-8.64388e-06 2.63796e-06 0.100739)
(-2.76525e-07 -1.21852e-07 0.10104)
(-2.24683e-07 3.88268e-07 0.101039)
(-1.00297e-05 3.98396e-08 0.100985)
(8.37527e-06 -2.74225e-06 0.10074)
(-2.74155e-07 -1.22337e-07 0.10104)
(1.2291e-06 -1.07936e-06 0.0919523)
(-1.23315e-06 1.01378e-06 0.0919549)
(-4.55972e-08 9.94586e-06 0.100985)
(-1.20844e-07 -2.73873e-07 0.10104)
(2.65414e-06 -8.66886e-06 0.100739)
(3.89457e-07 -2.1975e-07 0.101039)
(3.97025e-08 -1.00253e-05 0.100985)
(-1.2117e-07 -2.75087e-07 0.10104)
(-2.76083e-06 8.40398e-06 0.10074)
(-2.75028e-06 -3.2533e-06 0.100241)
(-3.24657e-06 -2.7451e-06 0.100241)
(3.54907e-05 3.55145e-05 0.101036)
(2.68392e-06 3.17303e-06 0.100243)
(3.1679e-06 2.67901e-06 0.100242)
(-8.39998e-09 -5.59414e-06 0.100657)
(6.69392e-07 4.67808e-06 0.0981887)
(4.85456e-09 5.49845e-06 0.100656)
(-7.54699e-07 -4.5958e-06 0.0981904)
(-1.10595e-06 1.27845e-06 0.0919535)
(1.02701e-06 -1.28115e-06 0.0919553)
(-5.62526e-06 -1.32835e-08 0.100657)
(4.66238e-06 6.52954e-07 0.0981885)
(5.5285e-06 1.01693e-08 0.100656)
(-4.58881e-06 -7.41271e-07 0.0981901)
(3.35098e-07 -3.30735e-07 0.10104)
(-3.30282e-07 3.3496e-07 0.10104)
(3.4122e-07 3.26735e-07 0.10104)
(-3.15345e-07 -3.14329e-07 0.10104)
(3.15367e-07 -3.12856e-07 0.10104)
(-3.1316e-07 3.1706e-07 0.10104)
(3.13198e-07 3.13229e-07 0.10104)
(9.94865e-06 -4.3371e-08 0.100985)
(-8.6441e-06 2.6384e-06 0.100739)
(-2.74765e-07 -1.22033e-07 0.10104)
(-2.23913e-07 3.87242e-07 0.101039)
(-1.00296e-05 3.96462e-08 0.100985)
(8.37487e-06 -2.74167e-06 0.10074)
(-2.72394e-07 -1.20553e-07 0.10104)
(1.22976e-06 -1.07905e-06 0.0919523)
(-1.23477e-06 1.01328e-06 0.0919549)
(-4.52989e-08 9.94379e-06 0.100985)
(-1.21808e-07 -2.72398e-07 0.10104)
(2.65408e-06 -8.66857e-06 0.100739)
(3.87581e-07 -2.18954e-07 0.101039)
(3.94284e-08 -1.00244e-05 0.100985)
(-1.19779e-07 -2.7399e-07 0.10104)
(-2.75815e-06 8.40243e-06 0.10074)
(-2.75135e-06 -3.25429e-06 0.100241)
(-3.24764e-06 -2.74515e-06 0.100241)
(3.54919e-05 3.5514e-05 0.101036)
(2.68383e-06 3.17212e-06 0.100243)
(3.16598e-06 2.67951e-06 0.100242)
(5.41301e-08 -5.45964e-06 0.100657)
(6.67341e-07 4.63566e-06 0.0981887)
(-1.54499e-09 5.46907e-06 0.100656)
(-8.04086e-07 -4.11899e-06 0.0981912)
(-1.07823e-06 1.23384e-06 0.0919535)
(1.03615e-06 -1.10573e-06 0.0919557)
(-5.48095e-06 5.46742e-08 0.100657)
(4.6306e-06 6.59054e-07 0.0981884)
(5.49405e-06 4.57861e-09 0.100656)
(-4.12088e-06 -8.02793e-07 0.0981909)
(3.48404e-07 -3.45251e-07 0.101041)
(-3.47867e-07 3.49737e-07 0.101041)
(3.47691e-07 3.45044e-07 0.101041)
(-1.96222e-07 -2.00258e-07 0.10104)
(1.94607e-07 -1.94779e-07 0.10104)
(-2.00025e-07 2.01428e-07 0.10104)
(1.96618e-07 2.02738e-07 0.10104)
(9.83534e-06 -1.66271e-08 0.100985)
(-8.6129e-06 2.6282e-06 0.100739)
(-2.6422e-07 -1.46119e-07 0.101041)
(-2.00238e-07 3.4367e-07 0.101039)
(-9.99895e-06 3.63103e-08 0.100985)
(8.15875e-06 -2.65817e-06 0.10074)
(-3.1108e-07 -5.90006e-08 0.10104)
(1.22652e-06 -1.08486e-06 0.0919522)
(-1.1399e-06 1.07944e-06 0.0919553)
(-1.847e-08 9.83428e-06 0.100985)
(-1.47097e-07 -2.5881e-07 0.101041)
(2.63929e-06 -8.63316e-06 0.100739)
(3.38814e-07 -1.92466e-07 0.101039)
(3.48222e-08 -9.99416e-06 0.100985)
(-6.19064e-08 -3.05325e-07 0.10104)
(-2.6716e-06 8.18055e-06 0.10074)
(-2.73225e-06 -3.25283e-06 0.100241)
(-3.24791e-06 -2.7251e-06 0.100241)
(3.54365e-05 3.54588e-05 0.101036)
(2.61975e-06 3.22826e-06 0.100243)
(3.22097e-06 2.6154e-06 0.100243)
(8.11392e-06 -1.41877e-06 0.100657)
(1.97997e-06 -1.08167e-05 0.0981659)
(-1.88196e-06 4.0507e-06 0.100655)
(-4.36811e-06 4.78506e-05 0.0982981)
(-2.29627e-06 -2.98717e-06 0.0919466)
(2.37246e-06 1.68755e-05 0.0919867)
(-1.40055e-06 8.14659e-06 0.100657)
(-1.08247e-05 1.98661e-06 0.0981657)
(4.05115e-06 -1.88094e-06 0.100655)
(4.78903e-05 -4.36609e-06 0.0982979)
(2.91413e-07 -2.91284e-07 0.101041)
(-2.96023e-07 2.99413e-07 0.101041)
(2.92156e-07 3.03555e-07 0.101041)
(-1.66866e-06 -1.63345e-06 0.101036)
(1.64663e-06 -1.63026e-06 0.101036)
(-1.6501e-06 1.66142e-06 0.101036)
(1.64293e-06 1.66548e-06 0.101036)
(7.20279e-06 1.2865e-06 0.100986)
(-3.854e-06 9.69637e-07 0.100734)
(-7.08455e-08 -3.70502e-07 0.101041)
(2.00022e-06 -1.46276e-06 0.10104)
(-8.63698e-06 -3.54097e-07 0.100985)
(-6.48552e-06 2.68072e-06 0.10075)
(-4.15453e-08 4.29243e-07 0.101039)
(-2.99197e-06 -2.26933e-06 0.0919457)
(1.68909e-05 2.32873e-06 0.091986)
(1.27379e-06 7.21332e-06 0.100986)
(-3.74518e-07 -6.62568e-08 0.101041)
(9.87102e-07 -3.85187e-06 0.100734)
(-1.47656e-06 2.00513e-06 0.10104)
(-3.5918e-07 -8.63197e-06 0.100985)
(4.15537e-07 -3.54695e-08 0.101039)
(2.66634e-06 -6.45968e-06 0.10075)
(-3.62299e-06 -4.4975e-06 0.100239)
(-4.48775e-06 -3.60471e-06 0.100239)
(3.33775e-05 3.34046e-05 0.101037)
(4.83772e-06 -1.22701e-08 0.100244)
(-3.22957e-08 4.82035e-06 0.100244)
(4.70276e-06 -1.81361e-05 0.100682)
(2.92917e-05 -7.15171e-05 0.0978081)
(-1.16391e-05 -6.13053e-06 0.100652)
(3.1827e-05 5.26534e-05 0.0988126)
(1.1823e-05 -7.34657e-05 0.0918426)
(-4.86797e-05 0.000118861 0.0921831)
(-1.81444e-05 4.70258e-06 0.100683)
(-7.18465e-05 2.92769e-05 0.0978078)
(-6.19641e-06 -1.16833e-05 0.100652)
(5.27894e-05 3.17231e-05 0.0988126)
(6.79618e-06 -6.75427e-06 0.101038)
(-6.79026e-06 6.81237e-06 0.101038)
(6.78292e-06 6.82223e-06 0.101038)
(-3.15278e-05 -3.14219e-05 0.100976)
(3.15221e-05 -3.14316e-05 0.100976)
(-3.1507e-05 3.15381e-05 0.100976)
(3.15202e-05 3.15484e-05 0.100976)
(2.15251e-05 -2.41788e-06 0.100995)
(1.59253e-05 -1.25011e-05 0.100721)
(6.29458e-06 -3.41677e-06 0.101041)
(1.83812e-05 -1.13782e-05 0.101039)
(-9.4663e-07 -2.45664e-06 0.100988)
(-9.40767e-06 1.96623e-06 0.100767)
(1.09399e-05 -1.79707e-06 0.101025)
(-7.34615e-05 1.18654e-05 0.0918418)
(0.000118584 -4.8458e-05 0.0921823)
(-2.43803e-06 2.15026e-05 0.100995)
(-3.44544e-06 6.28376e-06 0.101041)
(-1.25767e-05 1.59304e-05 0.100721)
(-1.14274e-05 1.83812e-05 0.101039)
(-2.48335e-06 -9.42432e-07 0.100988)
(-1.83441e-06 1.0891e-05 0.101025)
(1.82982e-06 -9.39408e-06 0.100767)
(3.92537e-05 4.17529e-05 0.100241)
(4.1514e-05 3.92396e-05 0.100241)
(3.31247e-05 3.32216e-05 0.101037)
(-9.5605e-06 -3.42997e-05 0.100321)
(-3.4381e-05 -9.32414e-06 0.100321)
(-1.01049e-05 -0.000143185 0.100648)
(-0.000137347 -0.000150105 0.0972571)
(-2.62792e-05 -8.31843e-05 0.100602)
(-0.000182212 -0.000120949 0.0998349)
(0.000256248 -0.0003686 0.0921459)
(0.00013558 -0.000304201 0.0966809)
(-0.000143379 -1.01851e-05 0.100648)
(-0.000150603 -0.000136578 0.0972567)
(-8.39022e-05 -2.61956e-05 0.100602)
(-0.000121258 -0.000182277 0.0998346)
(-9.18461e-06 -9.09224e-06 0.100897)
(-1.31151e-05 -3.74224e-05 0.100964)
(-3.75618e-05 -1.30218e-05 0.100964)
(-3.72301e-05 -3.7075e-05 0.100889)
(-1.15209e-05 -1.14285e-05 0.100962)
(-1.01642e-05 -3.55446e-05 0.100894)
(-3.56899e-05 -1.00782e-05 0.100894)
(0.000106434 4.38232e-06 0.100815)
(0.000102663 -6.71046e-05 0.100799)
(6.29532e-05 -1.82363e-05 0.100966)
(5.22764e-05 -4.0958e-05 0.100883)
(8.52656e-05 -1.52074e-05 0.100939)
(8.35138e-05 -3.54587e-05 0.100692)
(5.30685e-05 -1.06177e-05 0.100887)
(-0.000368438 0.000256143 0.0921455)
(-0.000304388 0.000135473 0.0966807)
(4.36286e-06 0.000106292 0.100815)
(-1.83019e-05 6.29126e-05 0.100966)
(-6.73963e-05 0.000102716 0.100799)
(-4.10803e-05 5.22458e-05 0.100883)
(-1.52063e-05 8.5165e-05 0.100939)
(-1.06855e-05 5.30378e-05 0.100887)
(-3.55084e-05 8.33229e-05 0.100692)
(0.000206919 7.69767e-05 0.100209)
(7.70151e-05 0.000207069 0.10021)
(5.3154e-05 5.31626e-05 0.100878)
(1.23949e-05 -7.66476e-05 0.100924)
(-7.67575e-05 1.24187e-05 0.100924)
(8.24941e-07 -4.85908e-06 0.0981905)
(2.82758e-06 -8.43865e-06 0.10074)
(1.28222e-06 -1.67232e-06 0.0919557)
(3.17972e-06 -2.52722e-06 0.100243)
(2.49386e-06 -3.15403e-06 0.100243)
(1.6417e-06 -1.26511e-06 0.0919565)
(8.41607e-06 -2.81209e-06 0.10074)
(4.82836e-06 -8.19583e-07 0.0981906)
(8.99001e-07 8.42864e-07 0.0919543)
(-1.26079e-06 -1.72359e-06 0.0919575)
(-1.6473e-06 -1.25769e-06 0.0919554)