/*--------------------------------*- C++ -*----------------------------------*\
| =========                 |                                                 |
| \\      /  F ield         | OpenFOAM: The Open Source CFD Toolbox           |
|  \\    /   O peration     | Version:  2206                                  |
|   \\  /    A nd           | Website:  www.openfoam.com                      |
|    \\/     M anipulation  |                                                 |
\*---------------------------------------------------------------------------*/
FoamFile
{
    version     2.0;
    format      ascii;
    arch        "LSB;label=32;scalar=64";
    class       volVectorField;
    location    "31";
    object      U;
}
// * * * * * * * * * * * * * * * * * * * * * * * * * * * * * * * * * * * * * //

dimensions      [0 1 -1 0 0 0 0];

internalField   nonuniform List<vector> 
28673
(
(-5.38273e-07 8.15564e-07 0.103346)
(-4.56394e-05 -4.56471e-05 0.103229)
(-7.92407e-07 -7.97455e-07 0.10343)
(-5.29747e-07 8.0921e-07 0.103346)
(8.14433e-07 -5.25697e-07 0.103346)
(-4.56335e-05 -4.56438e-05 0.103229)
(-7.94979e-07 -7.99343e-07 0.10343)
(-5.23533e-07 8.06214e-07 0.103346)
(8.1153e-07 -5.21693e-07 0.103346)
(-4.5627e-05 -4.56391e-05 0.103229)
(-8.01316e-07 -8.0593e-07 0.10343)
(-5.17677e-07 8.06886e-07 0.103346)
(8.03302e-07 -5.07627e-07 0.103346)
(-4.56181e-05 -4.56272e-05 0.103229)
(-8.27073e-07 -8.21018e-07 0.10343)
(-5.02133e-07 7.98119e-07 0.103345)
(7.74439e-07 -4.73676e-07 0.103345)
(-4.55954e-05 -4.56045e-05 0.103229)
(-8.54617e-07 -8.40613e-07 0.10343)
(-4.54082e-07 7.51659e-07 0.103345)
(7.40689e-07 -4.4214e-07 0.103345)
(-4.55519e-05 -4.55478e-05 0.103228)
(-7.81183e-07 -7.38237e-07 0.10343)
(-6.97922e-07 8.97406e-07 0.103346)
(8.79412e-07 -6.87812e-07 0.103345)
(-4.54997e-05 -4.54899e-05 0.103228)
(-6.3581e-07 -6.81503e-07 0.103432)
(-7.91532e-07 9.37073e-07 0.103346)
(9.92235e-07 -8.17155e-07 0.103346)
(-4.53503e-05 -4.53822e-05 0.103228)
(-6.32621e-07 -6.30406e-07 0.103432)
(-1.16096e-06 1.20407e-06 0.103346)
(1.1931e-06 -1.15261e-06 0.103346)
(-4.44141e-05 -4.44288e-05 0.103228)
(-4.00622e-07 -3.93448e-07 0.103434)
(-2.01864e-06 1.83572e-06 0.103345)
(1.83092e-06 -2.01486e-06 0.103345)
(-4.32513e-05 -4.32633e-05 0.103228)
(-3.51039e-07 -3.37095e-07 0.103436)
(-3.65286e-06 3.1563e-06 0.103343)
(3.14717e-06 -3.63752e-06 0.103343)
(-4.02184e-05 -4.02213e-05 0.103229)
(-5.79686e-06 -5.7412e-06 0.103433)
(-2.43171e-06 3.50953e-06 0.103338)
(3.47407e-06 -2.41534e-06 0.103338)
(-2.6594e-05 -2.65696e-05 0.10323)
(-4.12172e-05 -4.10898e-05 0.103366)
(4.20122e-05 -3.38952e-05 0.103292)
(-3.39796e-05 4.19931e-05 0.103292)
(4.64065e-05 4.64491e-05 0.103193)
(-8.44893e-07 5.67909e-07 0.103346)
(4.784e-05 -4.78147e-05 0.103235)
(-5.35907e-07 8.1534e-07 0.103346)
(-4.78359e-05 -4.78133e-05 0.103235)
(8.40186e-07 5.5885e-07 0.103346)
(-8.45485e-07 5.69578e-07 0.103346)
(8.3976e-07 5.45541e-07 0.103346)
(-8.3922e-07 5.6296e-07 0.103346)
(-4.56391e-05 4.56094e-05 0.103229)
(4.7844e-05 -4.78178e-05 0.103235)
(5.3501e-07 8.14533e-07 0.103346)
(5.57592e-07 -8.40302e-07 0.103346)
(-5.67295e-07 -8.32399e-07 0.103346)
(-5.30586e-07 8.09829e-07 0.103346)
(-5.59203e-07 -8.29567e-07 0.103346)
(-4.78085e-05 4.78439e-05 0.103235)
(-8.14158e-07 -5.48844e-07 0.103346)
(8.15727e-07 -5.26526e-07 0.103346)
(-8.09462e-07 -5.42063e-07 0.103346)
(4.78103e-05 4.7835e-05 0.103235)
(4.56393e-05 4.56207e-05 0.103229)
(-4.78391e-05 -4.78177e-05 0.103235)
(8.40307e-07 5.50115e-07 0.103346)
(-8.38717e-07 5.61609e-07 0.103346)
(8.38261e-07 5.39348e-07 0.103346)
(-8.36268e-07 5.56632e-07 0.103346)
(-4.56299e-05 4.56011e-05 0.103229)
(4.78493e-05 -4.7824e-05 0.103235)
(5.35777e-07 8.15073e-07 0.103346)
(5.5523e-07 -8.39804e-07 0.103346)
(5.28581e-07 8.11559e-07 0.103346)
(5.49513e-07 -8.36905e-07 0.103346)
(-5.59318e-07 -8.30938e-07 0.103346)
(-5.24158e-07 8.07603e-07 0.103346)
(-5.52465e-07 -8.27839e-07 0.103346)
(4.56202e-05 -4.56535e-05 0.103229)
(-4.78129e-05 4.78475e-05 0.103235)
(-8.09548e-07 -5.43569e-07 0.103346)
(8.12187e-07 -5.19496e-07 0.103346)
(-8.05412e-07 -5.38348e-07 0.103346)
(4.78162e-05 4.7839e-05 0.103235)
(4.56332e-05 4.56145e-05 0.103229)
(-4.78502e-05 -4.78278e-05 0.103235)
(8.36751e-07 5.45592e-07 0.103346)
(-8.35017e-07 5.56145e-07 0.103346)
(8.31476e-07 5.28575e-07 0.103346)
(-8.33699e-07 5.51364e-07 0.103345)
(-4.56234e-05 4.55943e-05 0.103229)
(4.78622e-05 -4.78355e-05 0.103235)
(5.29232e-07 8.11713e-07 0.103346)
(5.50233e-07 -8.38501e-07 0.103346)
(5.17425e-07 8.03294e-07 0.103346)
(5.4007e-07 -8.29341e-07 0.103345)
(-5.52913e-07 -8.27716e-07 0.103346)
(-5.17968e-07 8.06096e-07 0.103346)
(-5.40746e-07 -8.193e-07 0.103345)
(4.56146e-05 -4.56489e-05 0.103229)
(-4.78202e-05 4.78593e-05 0.103235)
(-8.04954e-07 -5.39892e-07 0.103346)
(8.07207e-07 -5.06627e-07 0.103346)
(-7.97303e-07 -5.23376e-07 0.103346)
(4.78275e-05 4.78526e-05 0.103235)
(4.56239e-05 4.56028e-05 0.103229)
(-4.78649e-05 -4.78439e-05 0.103234)
(8.3451e-07 5.38956e-07 0.103345)
(-8.3494e-07 5.49805e-07 0.103345)
(8.20797e-07 5.05053e-07 0.103345)
(-8.26764e-07 5.30883e-07 0.103345)
(-4.5615e-05 4.55858e-05 0.103229)
(4.78797e-05 -4.7854e-05 0.103234)
(5.17028e-07 8.04624e-07 0.103346)
(5.3247e-07 -8.28189e-07 0.103345)
(4.9978e-07 7.97603e-07 0.103345)
(5.25597e-07 -8.26346e-07 0.103345)
(-5.47185e-07 -8.24862e-07 0.103345)
(-4.99023e-07 7.97129e-07 0.103345)
(-5.18711e-07 -8.08711e-07 0.103345)
(4.56069e-05 -4.56364e-05 0.103229)
(-4.78343e-05 4.78666e-05 0.103234)
(-8.03354e-07 -5.29318e-07 0.103346)
(8.01852e-07 -4.90734e-07 0.103345)
(-7.87457e-07 -5.0143e-07 0.103345)
(4.7842e-05 4.78669e-05 0.103234)
(4.55995e-05 4.55841e-05 0.103229)
(-4.78605e-05 -4.78153e-05 0.103234)
(8.07983e-07 5.10204e-07 0.103345)
(-8.28927e-07 5.33244e-07 0.103345)
(8.2004e-07 5.1447e-07 0.103345)
(-8.10578e-07 5.10829e-07 0.103345)
(-4.5592e-05 4.55623e-05 0.103229)
(4.78831e-05 -4.78603e-05 0.103234)
(4.79941e-07 7.8373e-07 0.103345)
(4.94161e-07 -8.0313e-07 0.103345)
(5.14451e-07 8.20892e-07 0.103345)
(5.51499e-07 -8.51803e-07 0.103345)
(-5.19823e-07 -8.01332e-07 0.103345)
(-4.82075e-07 7.79358e-07 0.103345)
(-5.27898e-07 -8.08431e-07 0.103345)
(4.5583e-05 -4.56211e-05 0.103229)
(-4.78258e-05 4.78435e-05 0.103234)
(-7.825e-07 -4.98829e-07 0.103345)
(8.15566e-07 -5.1189e-07 0.103345)
(-7.98692e-07 -5.02685e-07 0.103345)
(4.7822e-05 4.78595e-05 0.103234)
(4.55441e-05 4.55526e-05 0.103228)
(-4.75601e-05 -4.74568e-05 0.103234)
(7.48647e-07 4.63604e-07 0.103345)
(-7.8428e-07 4.81609e-07 0.103345)
(8.83881e-07 6.71784e-07 0.103345)
(-9.66073e-07 6.91252e-07 0.103345)
(-4.55308e-05 4.54973e-05 0.103228)
(4.74497e-05 -4.74269e-05 0.103234)
(4.49156e-07 7.54678e-07 0.103345)
(4.7894e-07 -7.78499e-07 0.103345)
(5.57495e-07 9.21411e-07 0.103345)
(5.64131e-07 -8.84942e-07 0.103345)
(-4.73782e-07 -7.40097e-07 0.103345)
(-6.63458e-07 9.30876e-07 0.103345)
(-6.85957e-07 -9.09167e-07 0.103345)
(4.55382e-05 -4.55889e-05 0.103228)
(-4.75803e-05 4.75641e-05 0.103234)
(-7.38557e-07 -4.40847e-07 0.103345)
(8.25846e-07 -5.99668e-07 0.103345)
(-9.2414e-07 -6.39306e-07 0.103345)
(4.74471e-05 4.74969e-05 0.103234)
(4.54297e-05 4.54894e-05 0.103228)
(-4.75463e-05 -4.76025e-05 0.103235)
(9.15689e-07 7.35267e-07 0.103345)
(-9.30115e-07 7.25395e-07 0.103345)
(7.61718e-07 3.69295e-07 0.103345)
(-6.9734e-07 3.82354e-07 0.103345)
(-4.55041e-05 4.54717e-05 0.103228)
(4.76419e-05 -4.76135e-05 0.103235)
(6.6232e-07 9.44478e-07 0.103345)
(6.75574e-07 -9.38396e-07 0.103345)
(4.23541e-07 6.86207e-07 0.103345)
(4.57884e-07 -7.56972e-07 0.103345)
(-7.41457e-07 -9.22922e-07 0.103345)
(-3.46938e-07 6.72258e-07 0.103345)
(-3.85252e-07 -7.27311e-07 0.103345)
(4.53689e-05 -4.54524e-05 0.103228)
(-4.74892e-05 4.75688e-05 0.103235)
(-9.2495e-07 -7.09843e-07 0.103345)
(7.6182e-07 -3.87171e-07 0.103345)
(-6.81971e-07 -3.85181e-07 0.103345)
(4.75897e-05 4.75946e-05 0.103235)
(4.54168e-05 4.5326e-05 0.103228)
(-4.68184e-05 -4.67874e-05 0.103235)
(1.00211e-06 8.14353e-07 0.103346)
(-9.60978e-07 8.26161e-07 0.103346)
(5.12348e-07 3.05136e-08 0.103346)
(-5.20578e-07 4.81325e-08 0.103346)
(-4.53396e-05 4.53166e-05 0.103228)
(4.68136e-05 -4.67855e-05 0.103235)
(8.4776e-07 9.31565e-07 0.103346)
(8.75771e-07 -9.90671e-07 0.103346)
(1.22146e-08 4.84932e-07 0.103346)
(3.58085e-08 -5.09124e-07 0.103346)
(-8.23647e-07 -9.73815e-07 0.103346)
(-1.45645e-08 4.9251e-07 0.103346)
(-3.96232e-08 -5.08027e-07 0.103346)
(4.54227e-05 -4.54097e-05 0.103228)
(-4.67983e-05 4.68233e-05 0.103235)
(-9.30641e-07 -8.23779e-07 0.103346)
(4.81854e-07 -6.18358e-09 0.103346)
(-4.80691e-07 -2.26411e-08 0.103346)
(4.67875e-05 4.68081e-05 0.103235)
(4.44146e-05 4.44059e-05 0.103228)
(-4.60446e-05 -4.60123e-05 0.103236)
(1.22123e-06 1.17756e-06 0.103346)
(-1.23153e-06 1.19381e-06 0.103346)
(-1.50728e-08 -5.81684e-07 0.103346)
(3.32452e-09 -5.68453e-07 0.103346)
(-4.44194e-05 4.43917e-05 0.103228)
(4.60438e-05 -4.6019e-05 0.103236)
(1.15848e-06 1.20142e-06 0.103346)
(1.17652e-06 -1.22232e-06 0.103346)
(-6.06171e-07 -3.11336e-08 0.103346)
(-5.77318e-07 9.22477e-09 0.103346)
(-1.18655e-06 -1.21609e-06 0.103346)
(6.01848e-07 -3.22113e-08 0.103346)
(5.766e-07 1.55524e-08 0.103346)
(4.43883e-05 -4.44276e-05 0.103228)
(-4.60207e-05 4.6049e-05 0.103236)
(-1.19724e-06 -1.17058e-06 0.103346)
(-3.93187e-08 6.0768e-07 0.103346)
(3.47915e-08 6.02056e-07 0.103346)
(4.60121e-05 4.60393e-05 0.103236)
(4.32529e-05 4.32462e-05 0.103228)
(-4.37096e-05 -4.36799e-05 0.103236)
(1.85368e-06 2.03948e-06 0.103345)
(-1.86168e-06 2.05194e-06 0.103345)
(-1.23604e-06 -1.97108e-06 0.103348)
(1.22397e-06 -1.95699e-06 0.103348)
(-4.32527e-05 4.32253e-05 0.103228)
(4.37144e-05 -4.36845e-05 0.103236)
(2.01957e-06 1.83879e-06 0.103345)
(2.04063e-06 -1.8568e-06 0.103345)
(-2.00303e-06 -1.25025e-06 0.103348)
(-1.97262e-06 1.23762e-06 0.103348)
(-2.04261e-06 -1.84522e-06 0.103345)
(1.99281e-06 -1.24466e-06 0.103348)
(1.96931e-06 1.23526e-06 0.103348)
(4.32354e-05 -4.32666e-05 0.103228)
(-4.36888e-05 4.37144e-05 0.103236)
(-1.83338e-06 -2.02163e-06 0.103345)
(-1.25706e-06 2.00293e-06 0.103348)
(1.24957e-06 1.99773e-06 0.103348)
(4.36737e-05 4.37083e-05 0.103236)
(4.02112e-05 4.02141e-05 0.103229)
(-3.59445e-05 -3.58852e-05 0.103235)
(3.16561e-06 3.66594e-06 0.103343)
(-3.17508e-06 3.6853e-06 0.103343)
(-5.1221e-06 -6.71323e-06 0.103351)
(5.09986e-06 -6.70443e-06 0.103351)
(-4.02138e-05 4.0204e-05 0.103229)
(3.59114e-05 -3.58988e-05 0.103235)
(3.64316e-06 3.1519e-06 0.103343)
(3.66369e-06 -3.16551e-06 0.103343)
(-6.75384e-06 -5.11125e-06 0.103351)
(-6.73104e-06 5.11462e-06 0.103351)
(-3.67087e-06 -3.15625e-06 0.103343)
(6.72899e-06 -5.0937e-06 0.103351)
(6.71898e-06 5.1184e-06 0.103351)
(4.02063e-05 -4.02284e-05 0.103229)
(-3.59208e-05 3.59166e-05 0.103235)
(-3.1483e-06 -3.64915e-06 0.103343)
(-5.12426e-06 6.735e-06 0.103351)
(5.11401e-06 6.73906e-06 0.103351)
(3.58959e-05 3.59224e-05 0.103235)
(2.6539e-05 2.66086e-05 0.10323)
(-4.22578e-05 -4.2077e-05 0.103202)
(3.4726e-06 2.4649e-06 0.103338)
(-3.499e-06 2.4759e-06 0.103338)
(-3.48677e-05 -5.4074e-05 0.103326)
(3.48636e-05 -5.41115e-05 0.103326)
(-2.65866e-05 2.66061e-05 0.10323)
(4.22562e-05 -4.20915e-05 0.103202)
(2.38123e-06 3.49453e-06 0.103338)
(2.40713e-06 -3.47078e-06 0.103338)
(-5.42762e-05 -3.47749e-05 0.103326)
(-5.42142e-05 3.48684e-05 0.103326)
(-2.4249e-06 -3.46602e-06 0.103338)
(5.42589e-05 -3.47874e-05 0.103326)
(5.42097e-05 3.48831e-05 0.103326)
(2.65547e-05 -2.65862e-05 0.10323)
(-4.21865e-05 4.22466e-05 0.103202)
(-3.47653e-06 -2.414e-06 0.103338)
(-3.48503e-05 5.42311e-05 0.103326)
(3.48627e-05 5.42679e-05 0.103327)
(4.2194e-05 4.22473e-05 0.103202)
(-4.64628e-05 -4.62802e-05 0.103193)
(-3.40014e-05 -4.18228e-05 0.103292)
(3.39898e-05 -4.1854e-05 0.103292)
(4.64525e-05 -4.62831e-05 0.103193)
(-4.20315e-05 -3.38888e-05 0.103292)
(-4.19758e-05 3.39935e-05 0.103292)
(4.12099e-05 -4.10874e-05 0.103366)
(-4.11846e-05 4.12236e-05 0.103366)
(4.12075e-05 4.12356e-05 0.103366)
(4.19766e-05 3.40097e-05 0.103292)
(-4.63968e-05 4.64486e-05 0.103193)
(3.39922e-05 4.20296e-05 0.103292)
(8.08773e-08 -9.89768e-06 0.100312)
(6.64141e-07 7.077e-06 0.092026)
(-9.96366e-08 9.56985e-06 0.100294)
(-1.17065e-06 -6.81907e-06 0.0920499)
(-2.0608e-06 3.05059e-06 0.0794915)
(2.03993e-06 -2.97265e-06 0.0795157)
(-9.96534e-06 6.91122e-08 0.100311)
(-6.80356e-06 -1.1546e-06 0.0920497)
(7.94863e-07 -7.86157e-07 0.10343)
(7.98176e-07 7.79753e-07 0.10343)
(-7.92875e-07 -7.95167e-07 0.10343)
(8.00176e-07 -7.91091e-07 0.10343)
(-7.85451e-07 7.97137e-07 0.10343)
(8.00704e-07 7.81121e-07 0.10343)
(1.61958e-05 1.13341e-07 0.102694)
(-1.57574e-05 4.44144e-06 0.100749)
(-6.85439e-07 -2.03892e-07 0.103403)
(-5.36098e-07 8.13454e-07 0.103346)
(-1.63691e-05 -1.2746e-07 0.102686)
(1.50258e-05 -4.90603e-06 0.100777)
(-6.83283e-07 -2.05309e-07 0.103403)
(-2.8156e-06 1.95705e-06 0.0795166)
(1.11071e-07 1.61749e-05 0.102694)
(-2.02903e-07 -6.79003e-07 0.103403)
(8.15378e-07 -5.3169e-07 0.103346)
(-1.26199e-07 -1.63558e-05 0.102686)
(-2.02811e-07 -6.82027e-07 0.103403)
(-4.94302e-06 1.50872e-05 0.100776)
(-4.71886e-06 -5.77275e-06 0.0974723)
(-5.76277e-06 -4.71123e-06 0.0974715)
(4.78058e-05 4.78321e-05 0.103235)
(4.35532e-06 5.59977e-06 0.0974987)
(5.59784e-06 4.34827e-06 0.0974975)
(8.52573e-08 -9.91534e-06 0.100312)
(6.75302e-07 7.05598e-06 0.0920262)
(-9.8901e-08 9.54908e-06 0.100294)
(-1.14825e-06 -6.8434e-06 0.0920501)
(-2.04763e-06 3.02013e-06 0.0794916)
(2.03536e-06 -2.98798e-06 0.0795158)
(-9.98306e-06 6.70144e-08 0.100311)
(7.04491e-06 6.46103e-07 0.0920258)
(9.63097e-06 -8.32452e-08 0.100294)
(-6.82131e-06 -1.13406e-06 0.0920498)
(8.02802e-07 -7.93468e-07 0.10343)
(-7.85095e-07 7.97585e-07 0.10343)
(8.04112e-07 7.81832e-07 0.10343)
(-7.95819e-07 -7.99154e-07 0.10343)
(8.03573e-07 -7.93581e-07 0.10343)
(-7.8883e-07 7.99725e-07 0.10343)
(8.04642e-07 7.83483e-07 0.10343)
(1.62218e-05 1.13289e-07 0.102694)
(-1.57401e-05 4.42685e-06 0.100749)
(-6.76339e-07 -2.087e-07 0.103403)
(-5.25556e-07 8.08375e-07 0.103346)
(-1.63435e-05 -1.28598e-07 0.102686)
(1.50506e-05 -4.92773e-06 0.100777)
(-6.69787e-07 -2.09843e-07 0.103403)
(2.91173e-06 -1.98042e-06 0.0794884)
(-2.86259e-06 1.96903e-06 0.0795166)
(1.1358e-07 1.62012e-05 0.102694)
(-2.00353e-07 -6.72398e-07 0.103403)
(4.47522e-06 -1.58003e-05 0.100749)
(8.14238e-07 -5.21586e-07 0.103346)
(-1.23518e-07 -1.63301e-05 0.102686)
(-2.00767e-07 -6.70933e-07 0.103403)
(-4.96337e-06 1.51097e-05 0.100776)
(-4.71765e-06 -5.76399e-06 0.0974724)
(-5.7526e-06 -4.71191e-06 0.0974716)
(4.78114e-05 4.78346e-05 0.103235)
(4.34966e-06 5.60904e-06 0.0974988)
(5.61056e-06 4.3389e-06 0.0974975)
(8.82766e-08 -9.93498e-06 0.100312)
(6.68146e-07 7.02429e-06 0.0920264)
(-8.92357e-08 9.52963e-06 0.100294)
(-1.17257e-06 -6.86094e-06 0.0920504)
(-2.04615e-06 3.01277e-06 0.0794918)
(2.05779e-06 -3.00562e-06 0.0795162)
(-9.99795e-06 7.02114e-08 0.100311)
(7.0177e-06 6.61546e-07 0.092026)
(9.61467e-06 -7.69776e-08 0.100294)
(-6.85051e-06 -1.14333e-06 0.09205)
(8.0683e-07 -7.96587e-07 0.10343)
(-7.87945e-07 7.99311e-07 0.10343)
(8.07109e-07 7.8391e-07 0.10343)
(-7.998e-07 -8.03363e-07 0.10343)
(8.07054e-07 -7.9616e-07 0.10343)
(-7.93609e-07 8.06068e-07 0.10343)
(8.08817e-07 7.90423e-07 0.10343)
(1.62442e-05 1.10626e-07 0.102694)
(-1.57224e-05 4.40361e-06 0.100749)
(-6.66796e-07 -2.10841e-07 0.103403)
(-5.16675e-07 8.02176e-07 0.103346)
(-1.63219e-05 -1.29699e-07 0.102685)
(1.50777e-05 -4.95586e-06 0.100777)
(-6.58622e-07 -2.1191e-07 0.103403)
(2.88866e-06 -1.97756e-06 0.0794885)
(-2.88e-06 1.98589e-06 0.0795169)
(1.10243e-07 1.62224e-05 0.102694)
(-2.02108e-07 -6.65324e-07 0.103403)
(4.45343e-06 -1.57855e-05 0.100749)
(8.12055e-07 -5.16558e-07 0.103346)
(-1.24123e-07 -1.63128e-05 0.102685)
(-2.01927e-07 -6.6414e-07 0.103403)
(-4.98631e-06 1.51313e-05 0.100776)
(-4.71333e-06 -5.76051e-06 0.0974725)
(-5.74493e-06 -4.71054e-06 0.0974717)
(4.78205e-05 4.78428e-05 0.103235)
(4.35569e-06 5.61459e-06 0.0974989)
(5.61789e-06 4.34293e-06 0.0974976)
(8.60186e-08 -9.95299e-06 0.100312)
(6.72859e-07 6.9989e-06 0.0920267)
(-9.36268e-08 9.51388e-06 0.100294)
(-1.16915e-06 -6.89449e-06 0.0920508)
(-2.01838e-06 2.97893e-06 0.0794925)
(2.03931e-06 -3.02107e-06 0.079517)
(-1.00286e-05 7.2931e-08 0.100311)
(7.005e-06 6.43797e-07 0.0920263)
(9.60169e-06 -8.13143e-08 0.100294)
(-6.88073e-06 -1.15415e-06 0.0920504)
(8.12894e-07 -8.02542e-07 0.10343)
(-7.96088e-07 8.06694e-07 0.10343)
(8.12029e-07 7.92275e-07 0.10343)
(-8.09042e-07 -8.11198e-07 0.10343)
(8.1082e-07 -8.02079e-07 0.10343)
(-7.99139e-07 8.10847e-07 0.10343)
(8.14518e-07 7.98404e-07 0.10343)
(1.62673e-05 1.13062e-07 0.102694)
(-1.56918e-05 4.39372e-06 0.100749)
(-6.54151e-07 -2.13346e-07 0.103403)
(-5.07008e-07 8.0017e-07 0.103346)
(-1.62966e-05 -1.32885e-07 0.102685)
(1.50849e-05 -4.96362e-06 0.100777)
(-6.4896e-07 -2.14252e-07 0.103403)
(2.87729e-06 -1.96563e-06 0.079489)
(-2.90435e-06 1.99416e-06 0.0795174)
(1.1221e-07 1.62497e-05 0.102694)
(-2.0435e-07 -6.46772e-07 0.103403)
(4.43981e-06 -1.57576e-05 0.100749)
(8.14434e-07 -5.14521e-07 0.103346)
(-1.21405e-07 -1.62869e-05 0.102685)
(-2.03646e-07 -6.57282e-07 0.103403)
(-5.00017e-06 1.51542e-05 0.100776)
(-4.70723e-06 -5.76535e-06 0.0974726)
(-5.75468e-06 -4.70062e-06 0.0974718)
(4.78281e-05 4.78537e-05 0.103234)
(4.35755e-06 5.61815e-06 0.0974989)
(5.61565e-06 4.35025e-06 0.0974977)
(1.05136e-07 -9.96543e-06 0.100312)
(6.58013e-07 6.96039e-06 0.092027)
(-1.03963e-07 9.46281e-06 0.100294)
(-1.21046e-06 -6.77887e-06 0.0920517)
(-2.0179e-06 2.98668e-06 0.0794935)
(2.0363e-06 -3.01337e-06 0.079518)
(-1.00387e-05 1.08666e-07 0.100311)
(6.95092e-06 6.69532e-07 0.0920266)
(9.54261e-06 -9.19127e-08 0.100294)
(-6.77241e-06 -1.2141e-06 0.0920513)
(8.20133e-07 -8.12961e-07 0.10343)
(-8.21181e-07 8.27106e-07 0.10343)
(8.24879e-07 8.11897e-07 0.10343)
(-7.91105e-07 -7.87403e-07 0.103429)
(7.94985e-07 -7.88676e-07 0.103429)
(-7.77439e-07 7.88072e-07 0.103429)
(7.91525e-07 7.80686e-07 0.103429)
(1.62364e-05 1.22101e-07 0.102694)
(-1.56423e-05 4.37004e-06 0.100749)
(-6.20939e-07 -2.19799e-07 0.103403)
(-5.29921e-07 8.24394e-07 0.103345)
(-1.62479e-05 -1.34495e-07 0.102685)
(1.49977e-05 -4.99444e-06 0.100777)
(-6.73888e-07 -2.03462e-07 0.103403)
(2.86615e-06 -1.98774e-06 0.0794897)
(-2.90024e-06 2.05545e-06 0.0795185)
(1.16074e-07 1.62264e-05 0.102694)
(-2.1955e-07 -6.0054e-07 0.103403)
(4.42237e-06 -1.57065e-05 0.100749)
(8.08313e-07 -5.16707e-07 0.103345)
(-1.28075e-07 -1.62415e-05 0.102685)
(-2.06612e-07 -6.6819e-07 0.103403)
(-5.02616e-06 1.507e-05 0.100776)
(-4.67221e-06 -5.7682e-06 0.0974726)
(-5.75794e-06 -4.66504e-06 0.0974717)
(4.78331e-05 4.78633e-05 0.103234)
(4.30539e-06 5.70934e-06 0.0974991)
(5.70087e-06 4.30307e-06 0.0974979)
(8.54581e-07 -9.6854e-06 0.100313)
(7.07744e-07 6.24937e-06 0.0920242)
(-4.07744e-07 9.46389e-06 0.100293)
(-1.54612e-06 -5.16251e-06 0.0920617)
(-2.2511e-06 2.79116e-06 0.0794943)
(2.54225e-06 -2.33758e-06 0.0795211)
(-9.74478e-06 8.90919e-07 0.100312)
(6.20869e-06 7.54517e-07 0.0920237)
(9.47804e-06 -3.558e-07 0.100294)
(-5.19659e-06 -1.48455e-06 0.0920612)
(8.35174e-07 -8.30646e-07 0.10343)
(-8.40799e-07 8.52088e-07 0.10343)
(8.43869e-07 8.44225e-07 0.10343)
(-7.14978e-07 -6.45423e-07 0.103429)
(6.23766e-07 -6.22356e-07 0.103429)
(-7.28223e-07 6.96441e-07 0.103429)
(6.49561e-07 6.62309e-07 0.103429)
(1.57981e-05 3.89464e-07 0.102694)
(-1.49705e-05 4.31819e-06 0.100748)
(-5.53961e-07 -2.34904e-07 0.103403)
(-5.42753e-07 8.55392e-07 0.103345)
(-1.60984e-05 -2.16992e-07 0.102685)
(1.34621e-05 -4.63877e-06 0.100779)
(-7.08154e-07 -1.47571e-07 0.103402)
(2.6926e-06 -2.16812e-06 0.0794902)
(-2.27016e-06 2.77931e-06 0.0795217)
(3.29492e-07 1.58172e-05 0.102694)
(-2.49383e-07 -5.31476e-07 0.103403)
(4.34954e-06 -1.50157e-05 0.100748)
(7.62407e-07 -4.72174e-07 0.103345)
(-2.42573e-07 -1.6094e-05 0.102685)
(-1.94066e-07 -6.55557e-07 0.103402)
(-4.816e-06 1.35971e-05 0.100778)
(-4.10994e-06 -5.94792e-06 0.0974728)
(-5.95716e-06 -4.09279e-06 0.097472)
(4.77933e-05 4.7841e-05 0.103234)
(2.81187e-06 5.74021e-06 0.0974992)
(5.71701e-06 2.82168e-06 0.097498)
(2.93996e-06 -7.75623e-06 0.100317)
(2.95693e-06 3.63905e-06 0.0919963)
(-2.52142e-06 7.7276e-06 0.100292)
(-4.66725e-06 -3.22801e-06 0.0920994)
(-4.09618e-06 3.47853e-07 0.0794815)
(3.54651e-06 1.0839e-06 0.0795411)
(-7.89749e-06 2.94281e-06 0.100316)
(3.42345e-06 2.95958e-06 0.091996)
(7.6151e-06 -2.44274e-06 0.100293)
(-3.28187e-06 -4.73368e-06 0.0920997)
(7.40892e-07 -7.35893e-07 0.10343)
(-7.88931e-07 7.72929e-07 0.10343)
(7.49509e-07 7.4149e-07 0.10343)
(-7.67641e-07 -8.19252e-07 0.103429)
(8.40906e-07 -8.27885e-07 0.103429)
(-7.45371e-07 7.83962e-07 0.103429)
(8.30196e-07 7.88851e-07 0.103429)
(1.43871e-05 7.68742e-07 0.102694)
(-1.29273e-05 3.12522e-06 0.10074)
(-7.73309e-07 -2.18456e-07 0.103403)
(-5.74238e-07 8.21599e-07 0.103345)
(-1.49617e-05 -6.98656e-07 0.102685)
(1.24761e-05 -2.23505e-06 0.100792)
(-8.93741e-07 -1.20855e-07 0.103402)
(2.04063e-07 -4.16665e-06 0.0794799)
(1.18042e-06 3.39537e-06 0.0795431)
(7.54779e-07 1.43837e-05 0.102694)
(-2.63332e-07 -7.57787e-07 0.103403)
(3.00637e-06 -1.29005e-05 0.10074)
(8.84428e-07 -6.06417e-07 0.103345)
(-7.64112e-07 -1.49331e-05 0.102685)
(-1.08068e-07 -9.12887e-07 0.103402)
(-2.23499e-06 1.25435e-05 0.100791)
(-9.05316e-07 -4.68811e-06 0.0974668)
(-4.69572e-06 -8.98049e-07 0.0974659)
(4.73389e-05 4.73653e-05 0.103234)
(9.99339e-07 2.69446e-06 0.0975172)
(2.72138e-06 9.94865e-07 0.0975159)
(2.08835e-06 -1.26e-05 0.100328)
(8.12765e-07 6.92592e-06 0.0919499)
(-2.44051e-06 1.29403e-05 0.100279)
(-4.34869e-07 -5.41983e-06 0.0921475)
(-1.12708e-06 6.14885e-07 0.0794438)
(1.58855e-06 3.18852e-08 0.0795754)
(-1.25898e-05 2.05333e-06 0.100327)
(7.03456e-06 7.50866e-07 0.0919499)
(1.30928e-05 -2.51077e-06 0.100279)
(-5.28291e-06 -4.22507e-07 0.0921474)
(6.95998e-07 -6.82062e-07 0.103432)
(-6.16575e-07 6.50684e-07 0.103432)
(6.92456e-07 6.53678e-07 0.103432)
(-8.8023e-07 -8.84747e-07 0.103428)
(8.85251e-07 -8.77541e-07 0.103428)
(-8.7457e-07 8.83215e-07 0.103428)
(8.88971e-07 8.72263e-07 0.103428)
(1.56296e-05 5.47449e-07 0.102697)
(-1.41588e-05 9.25309e-07 0.10072)
(-7.29952e-07 -2.69525e-07 0.103405)
(-1.46683e-07 5.43063e-07 0.103345)
(-1.77913e-05 -5.7105e-07 0.102682)
(1.16034e-05 -5.88106e-07 0.10081)
(-6.00878e-07 -1.54717e-07 0.103402)
(5.3311e-07 -1.05081e-06 0.0794413)
(1.70288e-07 1.54763e-06 0.0795762)
(5.76629e-07 1.56063e-05 0.102697)
(-2.13833e-07 -7.51646e-07 0.103405)
(1.10209e-06 -1.42609e-05 0.10072)
(5.64193e-07 -1.54597e-07 0.103345)
(-4.93708e-07 -1.78181e-05 0.102682)
(-1.20271e-07 -6.16941e-07 0.103402)
(-5.76729e-07 1.16234e-05 0.100809)
(-2.59656e-06 1.08463e-06 0.0974298)
(1.09743e-06 -2.61998e-06 0.097429)
(4.72975e-05 4.73058e-05 0.103235)
(4.26813e-07 -1.43238e-06 0.0975526)
(-1.40319e-06 4.1395e-07 0.0975513)
(3.65108e-06 -8.55407e-06 0.100341)
(3.08614e-06 9.07916e-07 0.0918883)
(-3.24009e-06 7.9419e-06 0.100275)
(-3.12818e-06 2.44066e-06 0.0922275)
(4.00777e-07 -3.53477e-06 0.0794254)
(-2.28913e-06 7.84251e-06 0.0795917)
(-8.58714e-06 3.6701e-06 0.10034)
(8.6092e-07 3.09182e-06 0.0918878)
(7.99249e-06 -3.23831e-06 0.100276)
(2.49144e-06 -3.10062e-06 0.0922273)
(6.31655e-07 -6.23893e-07 0.103432)
(-6.26808e-07 6.32712e-07 0.103432)
(6.34755e-07 6.21547e-07 0.103432)
(-8.91511e-07 -8.83459e-07 0.103427)
(8.85774e-07 -8.82677e-07 0.103427)
(-8.84549e-07 8.89404e-07 0.103427)
(8.82876e-07 8.85032e-07 0.103427)
(1.41967e-05 8.07544e-07 0.1027)
(-7.6544e-06 -1.92401e-06 0.100706)
(-7.15462e-07 -2.87494e-07 0.103405)
(2.07083e-07 2.9314e-07 0.103346)
(-1.3876e-05 -8.78999e-07 0.102682)
(5.73759e-06 2.54609e-06 0.10083)
(-5.95194e-07 -6.56452e-08 0.103401)
(-3.62499e-06 4.53708e-07 0.0794227)
(7.9039e-06 -2.31517e-06 0.0795922)
(7.9569e-07 1.41899e-05 0.1027)
(-2.88088e-07 -7.11763e-07 0.103405)
(-1.90513e-06 -7.70913e-06 0.100706)
(2.8174e-07 2.13578e-07 0.103346)
(-8.79131e-07 -1.38873e-05 0.102682)
(-6.99182e-08 -5.95656e-07 0.103401)
(2.50864e-06 5.78265e-06 0.10083)
(2.80608e-06 6.79281e-06 0.0973913)
(6.79515e-06 2.80894e-06 0.0973906)
(4.67263e-05 4.67503e-05 0.103236)
(-4.93707e-06 -1.05683e-05 0.0976043)
(-1.05658e-05 -4.93127e-06 0.0976029)
(5.5306e-06 -6.37461e-06 0.100378)
(3.77817e-06 -7.06596e-06 0.0917628)
(-5.16277e-06 6.4317e-06 0.100247)
(-4.02947e-06 1.12073e-05 0.0923839)
(6.09548e-06 -1.64505e-05 0.0794)
(-9.4266e-06 2.27252e-05 0.0796164)
(-6.36924e-06 5.54861e-06 0.100377)
(-7.1447e-06 3.78765e-06 0.0917624)
(6.44395e-06 -5.16455e-06 0.100247)
(1.12994e-05 -4.02237e-06 0.0923836)
(3.95285e-07 -3.90967e-07 0.103434)
(-3.93684e-07 3.98201e-07 0.103434)
(3.91118e-07 3.94537e-07 0.103434)
(-7.33762e-07 -7.22718e-07 0.103425)
(7.27303e-07 -7.21532e-07 0.103425)
(-7.26652e-07 7.34066e-07 0.103425)
(7.23363e-07 7.3277e-07 0.103425)
(1.1756e-05 1.01817e-06 0.102705)
(-2.16929e-06 -5.20709e-06 0.100678)
(-8.62487e-07 -3.05928e-07 0.103407)
(1.14233e-06 -4.76063e-07 0.103347)
(-1.25533e-05 -1.17965e-06 0.102678)
(-2.04286e-06 6.36423e-06 0.100861)
(-5.08315e-07 9.49392e-08 0.103399)
(-1.6489e-05 6.13318e-06 0.0793978)
(2.26984e-05 -9.43816e-06 0.0796165)
(1.01037e-06 1.17594e-05 0.102705)
(-3.08241e-07 -8.5815e-07 0.103407)
(-5.1973e-06 -2.21163e-06 0.100677)
(-4.87411e-07 1.15351e-06 0.103347)
(-1.18169e-06 -1.25621e-05 0.102678)
(9.14441e-08 -5.03647e-07 0.103399)
(6.34563e-06 -2.00858e-06 0.10086)
(9.0595e-06 1.72364e-05 0.0973115)
(1.7225e-05 9.05271e-06 0.0973109)
(4.5099e-05 4.51228e-05 0.103236)
(-1.28198e-05 -2.35844e-05 0.0977028)
(-2.35634e-05 -1.27855e-05 0.0977014)
(6.96608e-06 -1.77658e-06 0.100453)
(4.6871e-06 -2.08294e-05 0.0915331)
(-6.89204e-06 3.17091e-06 0.100189)
(-4.9651e-06 2.97536e-05 0.0926755)
(1.73913e-05 -3.93018e-05 0.0793771)
(-2.48008e-05 5.28032e-05 0.0796319)
(-1.71711e-06 6.99923e-06 0.100453)
(-2.09758e-05 4.70946e-06 0.0915327)
(3.13501e-06 -6.89027e-06 0.100189)
(2.98957e-05 -4.94287e-06 0.0926754)
(3.42094e-07 -3.34105e-07 0.103436)
(-3.43948e-07 3.50629e-07 0.103436)
(3.40805e-07 3.51934e-07 0.103436)
(-2.51818e-06 -2.47825e-06 0.103419)
(2.49907e-06 -2.47594e-06 0.103419)
(-2.49732e-06 2.51353e-06 0.103419)
(2.49191e-06 2.51913e-06 0.103419)
(8.42147e-06 1.11982e-06 0.102708)
(7.55521e-06 -9.48362e-06 0.100645)
(-8.90027e-07 -4.10524e-07 0.103409)
(3.39067e-06 -2.49182e-06 0.103349)
(-9.45351e-06 -1.29288e-06 0.102674)
(-1.23905e-05 9.7842e-06 0.100896)
(1.04444e-08 2.48247e-07 0.103397)
(-3.92858e-05 1.74003e-05 0.0793759)
(5.28353e-05 -2.48405e-05 0.0796314)
(1.10313e-06 8.42402e-06 0.102708)
(-4.1529e-07 -8.80458e-07 0.103409)
(-9.47534e-06 7.52821e-06 0.100645)
(-2.50911e-06 3.40732e-06 0.103349)
(-1.30052e-06 -9.45937e-06 0.102674)
(2.34309e-07 2.18039e-08 0.103397)
(9.75266e-06 -1.23628e-05 0.100896)
(1.92385e-05 3.35557e-05 0.0971749)
(3.35077e-05 1.92266e-05 0.0971743)
(4.07809e-05 4.08117e-05 0.103236)
(-2.48783e-05 -4.10044e-05 0.0978739)
(-4.0981e-05 -2.48508e-05 0.0978725)
(4.53777e-06 -4.7703e-06 0.100609)
(1.28292e-06 -4.8053e-05 0.0910964)
(-7.73256e-06 -5.31995e-06 0.100081)
(7.62657e-06 5.6326e-05 0.0932622)
(4.6472e-05 -9.01712e-05 0.0793752)
(-6.82094e-05 0.000124584 0.0796431)
(-4.75423e-06 4.54604e-06 0.100609)
(-4.83586e-05 1.32977e-06 0.0910959)
(-5.37812e-06 -7.74706e-06 0.100081)
(5.64956e-05 7.5386e-06 0.0932621)
(5.77451e-06 -5.73569e-06 0.103433)
(-5.7674e-06 5.79084e-06 0.103434)
(5.76409e-06 5.80085e-06 0.103434)
(-2.74608e-05 -2.73565e-05 0.103365)
(2.74589e-05 -2.73605e-05 0.103365)
(-2.74327e-05 2.74745e-05 0.103365)
(2.74495e-05 2.74835e-05 0.103365)
(2.33051e-05 -3.91718e-07 0.102695)
(2.16343e-05 -1.36499e-05 0.100619)
(4.9921e-06 -2.11557e-06 0.103409)
(1.85856e-05 -1.26315e-05 0.103348)
(-2.69889e-07 -1.52439e-06 0.102682)
(-9.038e-06 3.10426e-06 0.100942)
(1.23239e-05 -2.13911e-06 0.103382)
(-9.01386e-05 4.64821e-05 0.0793742)
(0.000124288 -6.80405e-05 0.0796426)
(-4.19668e-07 2.32746e-05 0.102695)
(-2.14645e-06 4.984e-06 0.103409)
(-1.36744e-05 2.16308e-05 0.100618)
(-1.26816e-05 1.85833e-05 0.103348)
(-1.55207e-06 -2.72981e-07 0.102682)
(-2.18064e-06 1.22814e-05 0.103382)
(3.02401e-06 -9.01939e-06 0.100941)
(3.87579e-05 5.70018e-05 0.0969473)
(5.68867e-05 3.87567e-05 0.0969468)
(3.2911e-05 3.30018e-05 0.10323)
(-4.57898e-05 -6.12447e-05 0.0981868)
(-6.12921e-05 -4.56266e-05 0.0981852)
(-1.96819e-05 -0.00012357 0.101122)
(-0.000129903 -0.000180686 0.0907313)
(-2.22472e-05 -7.98752e-05 0.0999488)
(-0.000265469 -0.000126355 0.0952344)
(0.000275503 -0.000429325 0.0801586)
(0.000158382 -0.000338052 0.0883131)
(-0.000123752 -1.95955e-05 0.101121)
(-0.000181532 -0.000129267 0.0907304)
(-8.05956e-05 -2.21929e-05 0.0999485)
(-0.00012652 -0.000265434 0.0952336)
(-9.52018e-06 -9.4229e-06 0.103316)
(-1.28225e-05 -3.55308e-05 0.103378)
(-3.56669e-05 -1.27276e-05 0.103378)
(-4.27356e-05 -4.25848e-05 0.103285)
(-1.09511e-05 -1.08567e-05 0.103381)
(-1.05603e-05 -3.88095e-05 0.103307)
(-3.8959e-05 -1.04686e-05 0.103307)
(0.000119249 2.86498e-06 0.102597)
(0.000115136 -6.8683e-05 0.100796)
(5.8653e-05 -1.61692e-05 0.103344)
(5.57903e-05 -4.64717e-05 0.103224)
(7.9052e-05 -1.13097e-05 0.102727)
(7.29082e-05 -5.87801e-05 0.101047)
(5.78638e-05 -1.24421e-05 0.103276)
(-0.000429399 0.000275242 0.0801581)
(-0.000338021 0.000158171 0.0883129)
(2.86313e-06 0.000119164 0.102597)
(-1.6239e-05 5.8612e-05 0.103344)
(-6.88093e-05 0.000115125 0.100796)
(-4.66022e-05 5.57834e-05 0.103224)
(-1.13053e-05 7.90113e-05 0.102727)
(-1.25143e-05 5.78389e-05 0.103276)
(-5.89031e-05 7.26914e-05 0.101046)
(0.000248224 9.66275e-05 0.0969945)
(9.65429e-05 0.000248413 0.0969944)
(5.91969e-05 5.92174e-05 0.103127)
(5.71312e-05 -5.44974e-05 0.100251)
(-5.46709e-05 5.72564e-05 0.100251)
(1.16708e-06 -6.82114e-06 0.0920498)
(4.93908e-06 -1.5065e-05 0.100776)
(2.0142e-06 -2.94074e-06 0.0795157)
(5.54291e-06 -4.29616e-06 0.0974983)
(4.22289e-06 -5.49383e-06 0.0975009)
(2.80765e-06 -1.94883e-06 0.0795179)
(1.50199e-05 -4.9063e-06 0.100777)
(6.75803e-06 -1.14546e-06 0.0920507)