/*--------------------------------*- C++ -*----------------------------------*\
| =========                 |                                                 |
| \\      /  F ield         | OpenFOAM: The Open Source CFD Toolbox           |
|  \\    /   O peration     | Version:  2206                                  |
|   \\  /    A nd           | Website:  www.openfoam.com                      |
|    \\/     M anipulation  |                                                 |
\*---------------------------------------------------------------------------*/
FoamFile
{
    version     2.0;
    format      ascii;
    arch        "LSB;label=32;scalar=64";
    class       volScalarField;
    location    "33";
    object      k;
}
// * * * * * * * * * * * * * * * * * * * * * * * * * * * * * * * * * * * * * //

dimensions      [0 2 -2 0 0 0 0];

internalField   nonuniform List<scalar> 
28673
(
2.42966e-05
2.36282e-05
2.49677e-05
2.42968e-05
2.42965e-05
2.36312e-05
2.49677e-05
2.42968e-05
2.42965e-05
2.36314e-05
2.49677e-05
2.42969e-05
2.42966e-05
2.36316e-05
2.49678e-05
2.42969e-05
2.42967e-05
2.36318e-05
2.49676e-05
2.42969e-05
2.42967e-05
2.3632e-05
2.49675e-05
2.42968e-05
2.42966e-05
2.36321e-05
2.49666e-05
2.42943e-05
2.42956e-05
2.36296e-05
2.49614e-05
2.42892e-05
2.42898e-05
2.36241e-05
2.49605e-05
2.4289e-05
2.42888e-05
2.36232e-05
2.49606e-05
2.42891e-05
2.42889e-05
2.36233e-05
2.49608e-05
2.42894e-05
2.42892e-05
2.36238e-05
2.49861e-05
2.43334e-05
2.43334e-05
2.37139e-05
2.42961e-05
2.36355e-05
2.42966e-05
2.36324e-05
2.42962e-05
2.42961e-05
2.4296e-05
2.42961e-05
2.36315e-05
2.36356e-05
2.42965e-05
2.42957e-05
2.42962e-05
2.42968e-05
2.42961e-05
2.36351e-05
2.42965e-05
2.42965e-05
2.42965e-05
2.36355e-05
2.36288e-05
2.36358e-05
2.42962e-05
2.42963e-05
2.42963e-05
2.42962e-05
2.36316e-05
2.36358e-05
2.42966e-05
2.42958e-05
2.42967e-05
2.42958e-05
2.42962e-05
2.42968e-05
2.42962e-05
2.36311e-05
2.36353e-05
2.42966e-05
2.42965e-05
2.42966e-05
2.36357e-05
2.36318e-05
2.36361e-05
2.42964e-05
2.42963e-05
2.42964e-05
2.42963e-05
2.36318e-05
2.36361e-05
2.42968e-05
2.4296e-05
2.42968e-05
2.42959e-05
2.42963e-05
2.42969e-05
2.42962e-05
2.36313e-05
2.36355e-05
2.42967e-05
2.42966e-05
2.42966e-05
2.36358e-05
2.36321e-05
2.36364e-05
2.42965e-05
2.42965e-05
2.42966e-05
2.42965e-05
2.36321e-05
2.36363e-05
2.42969e-05
2.4296e-05
2.42969e-05
2.4296e-05
2.42964e-05
2.42969e-05
2.42963e-05
2.36315e-05
2.36357e-05
2.42967e-05
2.42967e-05
2.42967e-05
2.3636e-05
2.36324e-05
2.36366e-05
2.42967e-05
2.42967e-05
2.42967e-05
2.42967e-05
2.36323e-05
2.36365e-05
2.42971e-05
2.42962e-05
2.42971e-05
2.42962e-05
2.42965e-05
2.42969e-05
2.42965e-05
2.36318e-05
2.3636e-05
2.42969e-05
2.42967e-05
2.42969e-05
2.36362e-05
2.36326e-05
2.36368e-05
2.42969e-05
2.42968e-05
2.42967e-05
2.42964e-05
2.36325e-05
2.36366e-05
2.42972e-05
2.42963e-05
2.42972e-05
2.42963e-05
2.42966e-05
2.42968e-05
2.42965e-05
2.3632e-05
2.36362e-05
2.42971e-05
2.42966e-05
2.42969e-05
2.36364e-05
2.36328e-05
2.36355e-05
2.42967e-05
2.42964e-05
2.42958e-05
2.42951e-05
2.36325e-05
2.36342e-05
2.42972e-05
2.42962e-05
2.42966e-05
2.42956e-05
2.42964e-05
2.42957e-05
2.42955e-05
2.36322e-05
2.36353e-05
2.42968e-05
2.42961e-05
2.42959e-05
2.36347e-05
2.36309e-05
2.36297e-05
2.4295e-05
2.42936e-05
2.42901e-05
2.42892e-05
2.36292e-05
2.36284e-05
2.4296e-05
2.42952e-05
2.42912e-05
2.42905e-05
2.42944e-05
2.42898e-05
2.42897e-05
2.36308e-05
2.36299e-05
2.42948e-05
2.4291e-05
2.42901e-05
2.3629e-05
2.36249e-05
2.36274e-05
2.42893e-05
2.42887e-05
2.42885e-05
2.42883e-05
2.3624e-05
2.36275e-05
2.42901e-05
2.42894e-05
2.42889e-05
2.42881e-05
2.42891e-05
2.4289e-05
2.42885e-05
2.3625e-05
2.36271e-05
2.42895e-05
2.42888e-05
2.42889e-05
2.36274e-05
2.36234e-05
2.36276e-05
2.42887e-05
2.42885e-05
2.42886e-05
2.42885e-05
2.36235e-05
2.36275e-05
2.42891e-05
2.42882e-05
2.42891e-05
2.42882e-05
2.42886e-05
2.42891e-05
2.42886e-05
2.3623e-05
2.36271e-05
2.42891e-05
2.42889e-05
2.4289e-05
2.36275e-05
2.36235e-05
2.36279e-05
2.42888e-05
2.42887e-05
2.42892e-05
2.42891e-05
2.36234e-05
2.3628e-05
2.42892e-05
2.42884e-05
2.42896e-05
2.42888e-05
2.42889e-05
2.42897e-05
2.42892e-05
2.36231e-05
2.36275e-05
2.42892e-05
2.42896e-05
2.42896e-05
2.36279e-05
2.3624e-05
2.36646e-05
2.42889e-05
2.42888e-05
2.43236e-05
2.43235e-05
2.3624e-05
2.36645e-05
2.42893e-05
2.42885e-05
2.43239e-05
2.43233e-05
2.42889e-05
2.43238e-05
2.43236e-05
2.36236e-05
2.36642e-05
2.42893e-05
2.43238e-05
2.43239e-05
2.36645e-05
2.37141e-05
2.43332e-05
2.43332e-05
2.3714e-05
2.43335e-05
2.4333e-05
2.49861e-05
2.49861e-05
2.49861e-05
2.43333e-05
2.37138e-05
2.43335e-05
2.80811e-05
6.99228e-05
2.80825e-05
6.99201e-05
7.72312e-05
7.72288e-05
2.80818e-05
6.99225e-05
2.49679e-05
2.49676e-05
2.49677e-05
2.49678e-05
2.49676e-05
2.49676e-05
2.2764e-05
2.76238e-05
2.46653e-05
2.42968e-05
2.27642e-05
2.76198e-05
2.46653e-05
7.72273e-05
2.27632e-05
2.4665e-05
2.42965e-05
2.27634e-05
2.4665e-05
2.76192e-05
3.58169e-05
3.58199e-05
2.36355e-05
3.58152e-05
3.58181e-05
2.80838e-05
6.99209e-05
2.80857e-05
6.99189e-05
7.72256e-05
7.72249e-05
2.80849e-05
6.99236e-05
2.80864e-05
6.99213e-05
2.49678e-05
2.49676e-05
2.49676e-05
2.49677e-05
2.49677e-05
2.49675e-05
2.49675e-05
2.27649e-05
2.76263e-05
2.46652e-05
2.42969e-05
2.27649e-05
2.76219e-05
2.46653e-05
7.72242e-05
7.72223e-05
2.27641e-05
2.4665e-05
2.7626e-05
2.42966e-05
2.2764e-05
2.46651e-05
2.7622e-05
3.58204e-05
3.58232e-05
2.36356e-05
3.58193e-05
3.58221e-05
2.80857e-05
6.99205e-05
2.80878e-05
6.99184e-05
7.72238e-05
7.72238e-05
2.80871e-05
6.99231e-05
2.80888e-05
6.9921e-05
2.49678e-05
2.49675e-05
2.49675e-05
2.49677e-05
2.49678e-05
2.49674e-05
2.49674e-05
2.27656e-05
2.76279e-05
2.46652e-05
2.42969e-05
2.27657e-05
2.76232e-05
2.46653e-05
7.72209e-05
7.722e-05
2.27648e-05
2.46649e-05
2.76281e-05
2.42966e-05
2.27648e-05
2.4665e-05
2.76238e-05
3.5823e-05
3.58259e-05
2.36358e-05
3.58209e-05
3.58238e-05
2.80869e-05
6.99201e-05
2.80893e-05
6.99182e-05
7.72238e-05
7.72242e-05
2.80883e-05
6.99227e-05
2.80904e-05
6.99207e-05
2.49677e-05
2.49675e-05
2.49675e-05
2.49678e-05
2.49676e-05
2.49675e-05
2.49675e-05
2.27661e-05
2.76289e-05
2.46652e-05
2.4297e-05
2.27662e-05
2.76241e-05
2.46653e-05
7.72199e-05
7.72194e-05
2.27653e-05
2.46649e-05
2.76293e-05
2.42967e-05
2.27654e-05
2.46651e-05
2.76247e-05
3.58238e-05
3.58268e-05
2.3636e-05
3.5822e-05
3.5825e-05
2.80874e-05
6.992e-05
2.809e-05
6.99184e-05
7.72245e-05
7.72254e-05
2.80886e-05
6.99227e-05
2.8091e-05
6.99211e-05
2.49677e-05
2.49676e-05
2.49676e-05
2.49676e-05
2.49676e-05
2.49675e-05
2.49676e-05
2.27664e-05
2.76296e-05
2.46652e-05
2.4297e-05
2.27665e-05
2.76247e-05
2.46653e-05
7.722e-05
7.72204e-05
2.27655e-05
2.4665e-05
2.763e-05
2.42968e-05
2.27657e-05
2.46652e-05
2.76253e-05
3.58256e-05
3.58287e-05
2.36361e-05
3.58239e-05
3.5827e-05
2.80879e-05
6.99202e-05
2.80905e-05
6.99203e-05
7.7226e-05
7.72298e-05
2.80892e-05
6.99231e-05
2.80915e-05
6.99232e-05
2.49676e-05
2.49675e-05
2.49676e-05
2.49675e-05
2.49674e-05
2.49672e-05
2.49674e-05
2.27668e-05
2.76296e-05
2.46652e-05
2.42969e-05
2.27669e-05
2.76239e-05
2.46652e-05
7.72214e-05
7.72247e-05
2.27659e-05
2.4665e-05
2.76301e-05
2.42968e-05
2.2766e-05
2.4665e-05
2.76246e-05
3.58271e-05
3.58302e-05
2.36364e-05
3.58245e-05
3.58277e-05
2.80859e-05
6.9923e-05
2.80897e-05
6.9926e-05
7.72281e-05
7.72354e-05
2.80878e-05
6.99259e-05
2.80913e-05
6.99286e-05
2.49674e-05
2.49672e-05
2.49673e-05
2.49671e-05
2.49668e-05
2.49669e-05
2.49667e-05
2.27652e-05
2.7629e-05
2.4665e-05
2.42967e-05
2.27666e-05
2.76216e-05
2.4665e-05
7.72245e-05
7.72329e-05
2.27645e-05
2.46648e-05
2.76294e-05
2.42965e-05
2.27659e-05
2.46648e-05
2.76222e-05
3.58278e-05
3.5831e-05
2.3636e-05
3.58241e-05
3.58272e-05
2.80846e-05
6.99231e-05
2.80906e-05
6.99285e-05
7.72248e-05
7.72372e-05
2.80874e-05
6.9926e-05
2.80926e-05
6.99318e-05
2.49658e-05
2.49666e-05
2.4966e-05
2.49625e-05
2.49616e-05
2.49625e-05
2.49618e-05
2.27599e-05
2.76282e-05
2.46632e-05
2.42926e-05
2.27637e-05
2.76165e-05
2.46617e-05
7.72229e-05
7.72353e-05
2.27595e-05
2.46637e-05
2.76294e-05
2.42943e-05
2.2763e-05
2.46623e-05
2.76185e-05
3.58291e-05
3.5832e-05
2.36319e-05
3.58224e-05
3.58253e-05
2.80806e-05
6.99224e-05
2.80855e-05
6.99356e-05
7.72197e-05
7.72357e-05
2.80828e-05
6.9926e-05
2.80877e-05
6.9939e-05
2.4961e-05
2.49615e-05
2.49611e-05
2.49605e-05
2.49606e-05
2.49604e-05
2.49605e-05
2.27564e-05
2.76222e-05
2.46582e-05
2.42891e-05
2.27577e-05
2.76077e-05
2.46579e-05
7.72191e-05
7.72353e-05
2.27555e-05
2.46583e-05
2.76238e-05
2.42892e-05
2.27569e-05
2.46579e-05
2.76091e-05
3.5827e-05
3.58298e-05
2.36277e-05
3.58231e-05
3.58259e-05
2.80814e-05
6.99237e-05
2.80839e-05
6.99461e-05
7.72005e-05
7.7222e-05
2.8083e-05
6.99275e-05
2.80854e-05
6.99501e-05
2.49607e-05
2.49605e-05
2.49606e-05
2.49606e-05
2.49606e-05
2.49605e-05
2.49605e-05
2.27558e-05
2.76196e-05
2.46578e-05
2.42892e-05
2.27577e-05
2.76014e-05
2.46579e-05
7.72012e-05
7.72228e-05
2.27549e-05
2.46576e-05
2.76207e-05
2.4289e-05
2.27568e-05
2.46578e-05
2.7603e-05
3.58281e-05
3.58307e-05
2.36275e-05
3.58262e-05
3.58287e-05
2.80859e-05
6.99096e-05
2.80856e-05
6.99451e-05
7.71601e-05
7.71882e-05
2.80873e-05
6.99136e-05
2.80867e-05
6.99491e-05
2.49607e-05
2.49606e-05
2.49606e-05
2.49608e-05
2.49609e-05
2.49607e-05
2.49608e-05
2.27548e-05
2.76311e-05
2.46579e-05
2.42893e-05
2.27586e-05
2.76053e-05
2.46579e-05
7.71619e-05
7.7189e-05
2.27541e-05
2.46578e-05
2.76329e-05
2.42891e-05
2.27578e-05
2.46578e-05
2.7607e-05
3.58246e-05
3.58267e-05
2.36275e-05
3.58242e-05
3.58263e-05
2.80904e-05
6.98663e-05
2.80842e-05
6.99243e-05
7.70738e-05
7.70997e-05
2.80921e-05
6.98702e-05
2.80855e-05
6.99279e-05
2.4961e-05
2.49609e-05
2.49609e-05
2.49685e-05
2.49685e-05
2.49684e-05
2.49684e-05
2.27525e-05
2.76599e-05
2.4659e-05
2.42934e-05
2.276e-05
2.75862e-05
2.46581e-05
7.70743e-05
7.70998e-05
2.27518e-05
2.46589e-05
2.76611e-05
2.42933e-05
2.27593e-05
2.46579e-05
2.75868e-05
3.58058e-05
3.58079e-05
2.36332e-05
3.57899e-05
3.5792e-05
2.52848e-05
6.79744e-05
2.79482e-05
5.99027e-05
7.30787e-05
4.89799e-05
2.52861e-05
6.79816e-05
2.79504e-05
5.99081e-05
2.52689e-05
2.51626e-05
2.51627e-05
2.49097e-05
2.5264e-05
2.51383e-05
2.51383e-05
2.27807e-05
2.72878e-05
2.47018e-05
2.43784e-05
2.27812e-05
3.01786e-05
2.47754e-05
7.30783e-05
4.89784e-05
2.27802e-05
2.47017e-05
2.72877e-05
2.43783e-05
2.27807e-05
2.47754e-05
3.01776e-05
3.59823e-05
3.59841e-05
2.38256e-05
3.39065e-05
3.39047e-05
6.99241e-05
2.76206e-05
7.72323e-05
3.58167e-05
3.58086e-05
7.72278e-05
2.76183e-05
6.99209e-05
7.72332e-05
7.72307e-05
7.72314e-05
3.5817e-05
2.36304e-05
3.58151e-05
3.58159e-05
7.72277e-05
7.723e-05
7.72279e-05
7.72307e-05
2.36267e-05
3.58172e-05
3.58184e-05
3.58177e-05
3.58187e-05
2.80815e-05
6.99257e-05
2.8083e-05
6.99231e-05
2.2764e-05
2.76237e-05
2.46652e-05
2.42961e-05
2.27643e-05
2.762e-05
2.46652e-05
2.27642e-05
2.7626e-05
2.46652e-05
2.42961e-05
2.27643e-05
2.76221e-05
2.46652e-05
2.80843e-05
6.99192e-05
6.99217e-05
2.80826e-05
2.80847e-05
6.99225e-05
6.99248e-05
2.8083e-05
2.27647e-05
2.4296e-05
2.76213e-05
2.46651e-05
2.76253e-05
2.46651e-05
2.27645e-05
2.27648e-05
2.42961e-05
2.76233e-05
2.46652e-05
2.76274e-05
2.46652e-05
2.27647e-05
3.58197e-05
3.58119e-05
2.36355e-05
3.58195e-05
3.58113e-05
7.72279e-05
7.72248e-05
7.72263e-05
7.7228e-05
2.36315e-05
3.58216e-05
3.58132e-05
3.58223e-05
3.58143e-05
7.72227e-05
7.72249e-05
2.27647e-05
2.42965e-05
2.76205e-05
2.46651e-05
2.80813e-05
6.99191e-05
2.27645e-05
2.42957e-05
2.4665e-05
2.76191e-05
2.80848e-05
6.99218e-05
6.99243e-05
2.80835e-05
2.27653e-05
2.42965e-05
2.76218e-05
2.46651e-05
2.76257e-05
2.46651e-05
2.27651e-05
2.80843e-05
6.99181e-05
6.99208e-05
2.80831e-05
2.27651e-05
2.42957e-05
2.46649e-05
2.76206e-05
2.46649e-05
2.76247e-05
2.27649e-05
2.80814e-05
6.99227e-05
2.80828e-05
6.99199e-05
2.2764e-05
2.46651e-05
2.76235e-05
2.42962e-05
2.27642e-05
2.46651e-05
2.76198e-05
2.80813e-05
6.99242e-05
2.80827e-05
6.99215e-05
2.27646e-05
2.42968e-05
2.7621e-05
2.46652e-05
2.76253e-05
2.46652e-05
2.27645e-05
2.80846e-05
6.99193e-05
6.99217e-05
2.80829e-05
2.27647e-05
2.42962e-05
2.46651e-05
2.76211e-05
2.46651e-05
2.76251e-05
2.27645e-05
2.80845e-05
6.99206e-05
6.99231e-05
2.80828e-05
2.36351e-05
3.5811e-05
3.58137e-05
7.72324e-05
7.72244e-05
7.72274e-05
2.36311e-05
3.58138e-05
3.58162e-05
3.58143e-05
3.58165e-05
7.72288e-05
7.72316e-05
2.27631e-05
2.4665e-05
2.76244e-05
2.42965e-05
2.27633e-05
2.4665e-05
2.76206e-05
2.80801e-05
2.80819e-05
6.99218e-05
2.808e-05
6.99267e-05
2.80818e-05
6.99241e-05
2.27638e-05
2.42965e-05
2.4665e-05
2.76208e-05
2.4665e-05
2.76246e-05
2.27637e-05
2.27637e-05
2.42965e-05
2.4665e-05
2.76219e-05
2.4665e-05
2.76259e-05
2.27636e-05
2.80836e-05
6.9921e-05
6.99235e-05
2.80816e-05
2.80834e-05
6.99232e-05
6.99257e-05
2.80814e-05
7.72328e-05
7.72303e-05
7.72321e-05
7.72297e-05
2.36315e-05
3.58175e-05
3.58203e-05
3.58179e-05
3.58207e-05
7.72274e-05
7.72296e-05
7.72267e-05
7.72289e-05
7.72271e-05
7.72259e-05
7.72271e-05
7.72255e-05
3.58198e-05
3.5821e-05
2.36349e-05
3.5819e-05
3.58205e-05
7.72249e-05
7.72254e-05
7.7224e-05
7.7225e-05
2.36312e-05
3.58202e-05
3.5822e-05
3.58215e-05
3.5823e-05
2.80843e-05
6.99242e-05
2.80862e-05
6.99221e-05
2.2765e-05
2.76265e-05
2.46652e-05
2.42962e-05
2.27652e-05
2.76224e-05
2.46652e-05
2.27652e-05
2.76285e-05
2.46652e-05
2.42962e-05
2.27653e-05
2.76243e-05
2.46652e-05
2.80869e-05
6.99187e-05
6.99207e-05
2.80849e-05
2.80874e-05
6.99217e-05
6.99239e-05
2.80853e-05
2.27656e-05
2.42962e-05
2.76232e-05
2.46651e-05
2.76275e-05
2.46652e-05
2.27654e-05
2.27658e-05
2.42962e-05
2.7625e-05
2.46651e-05
2.76295e-05
2.46651e-05
2.27656e-05
3.58242e-05
3.5816e-05
2.36357e-05
3.58231e-05
3.58145e-05
7.72229e-05
7.72214e-05
7.7224e-05
7.72244e-05
2.36317e-05
3.58239e-05
3.58154e-05
3.58255e-05
3.58172e-05
7.72204e-05
7.72216e-05
2.27655e-05
2.7627e-05
2.46652e-05
2.42966e-05
2.27657e-05
2.7623e-05
2.46652e-05
2.80845e-05
6.99199e-05
2.8086e-05
6.99174e-05
2.27652e-05
2.4665e-05
2.76261e-05
2.42958e-05
2.27655e-05
2.4665e-05
2.76218e-05
2.80878e-05
6.99212e-05
6.99233e-05
2.80861e-05
2.27661e-05
2.42966e-05
2.7624e-05
2.46651e-05
2.76281e-05
2.46651e-05
2.27659e-05
2.80873e-05
6.99171e-05
6.99193e-05
2.80857e-05
2.27658e-05
2.42958e-05
2.46649e-05
2.76228e-05
2.46649e-05
2.76273e-05
2.27656e-05
2.80842e-05
6.99212e-05
2.8086e-05
6.99189e-05
2.2765e-05
2.46652e-05
2.76263e-05
2.42962e-05
2.27652e-05
2.46652e-05
2.76222e-05
2.8084e-05
6.99224e-05
2.80859e-05
6.99202e-05
2.27656e-05
2.42969e-05
2.76227e-05
2.46652e-05
2.76273e-05
2.46653e-05
2.27654e-05
2.80872e-05
6.99185e-05
6.99209e-05
2.80852e-05
2.27657e-05
2.42962e-05
2.46651e-05
2.7623e-05
2.46651e-05
2.76273e-05
2.27654e-05
2.80871e-05
6.99199e-05
6.9922e-05
2.80851e-05
3.58167e-05
3.58188e-05
2.36352e-05
3.58158e-05
3.58183e-05
7.7228e-05
7.72263e-05
7.72209e-05
7.72224e-05
2.36312e-05
3.5817e-05
3.58198e-05
3.58185e-05
3.58208e-05
7.72248e-05
7.72259e-05
2.2764e-05
2.4665e-05
2.76271e-05
2.42966e-05
2.27642e-05
2.4665e-05
2.76229e-05
2.80829e-05
6.99227e-05
2.8085e-05
6.99204e-05
2.80826e-05
6.9925e-05
2.80848e-05
6.99229e-05
2.27647e-05
2.42966e-05
2.46649e-05
2.76231e-05
2.4665e-05
2.76272e-05
2.27645e-05
2.27647e-05
2.42966e-05
2.46649e-05
2.76238e-05
2.46649e-05
2.76281e-05
2.27645e-05
2.80862e-05
6.99203e-05
6.99223e-05
2.80839e-05
2.8086e-05
6.99227e-05
6.99247e-05
2.80836e-05
7.72267e-05
7.72255e-05
7.72259e-05
7.72248e-05
2.36316e-05
3.58204e-05
3.58233e-05
3.58218e-05
3.58246e-05
7.72245e-05
7.7225e-05
7.72238e-05
7.72243e-05
7.72246e-05
7.72243e-05
7.72236e-05
7.72234e-05
3.58225e-05
3.58244e-05
2.36359e-05
3.58208e-05
3.58228e-05
7.72242e-05
7.72243e-05
7.72229e-05
7.72231e-05
2.36319e-05
3.58212e-05
3.58231e-05
3.58229e-05
3.5825e-05
2.80861e-05
6.99235e-05
2.80883e-05
6.99213e-05
2.27657e-05
2.76283e-05
2.46652e-05
2.42964e-05
2.2766e-05
2.76239e-05
2.46652e-05
2.27659e-05
2.76301e-05
2.46652e-05
2.42963e-05
2.27662e-05
2.76255e-05
2.46652e-05
2.80887e-05
6.99182e-05
6.99202e-05
2.80864e-05
2.80891e-05
6.99212e-05
6.99232e-05
2.80868e-05
2.27663e-05
2.42964e-05
2.76243e-05
2.46652e-05
2.76289e-05
2.46652e-05
2.27661e-05
2.27664e-05
2.42963e-05
2.7626e-05
2.46652e-05
2.76306e-05
2.46652e-05
2.27662e-05
3.58262e-05
3.5818e-05
2.3636e-05
3.58246e-05
3.58163e-05
7.72207e-05
7.72199e-05
7.7224e-05
7.72239e-05
2.36319e-05
3.58253e-05
3.58173e-05
3.58269e-05
3.5819e-05
7.72197e-05
7.72202e-05
2.27662e-05
2.7629e-05
2.46652e-05
2.42968e-05
2.27665e-05
2.76247e-05
2.46652e-05
2.80866e-05
6.99191e-05
2.80884e-05
6.99169e-05
2.27659e-05
2.4665e-05
2.76282e-05
2.4296e-05
2.27662e-05
2.4665e-05
2.76236e-05
2.80898e-05
6.99208e-05
6.99229e-05
2.80878e-05
2.27668e-05
2.42968e-05
2.76252e-05
2.46652e-05
2.76297e-05
2.46652e-05
2.27665e-05
2.80893e-05
6.99166e-05
6.99188e-05
2.80873e-05
2.27665e-05
2.42959e-05
2.4665e-05
2.76242e-05
2.4665e-05
2.76289e-05
2.27662e-05
2.8086e-05
6.99204e-05
2.80882e-05
6.99181e-05
2.27657e-05
2.46652e-05
2.76281e-05
2.42963e-05
2.2766e-05
2.46652e-05
2.76236e-05
2.80859e-05
6.99217e-05
2.80881e-05
6.99195e-05
2.27662e-05
2.42969e-05
2.76237e-05
2.46652e-05
2.76285e-05
2.46653e-05
2.2766e-05
2.8089e-05
6.99179e-05
6.99201e-05
2.80867e-05
2.27663e-05
2.42963e-05
2.46651e-05
2.7624e-05
2.46651e-05
2.76286e-05
2.2766e-05
2.80888e-05
6.99193e-05
6.99213e-05
2.80865e-05
3.58196e-05
3.58222e-05
2.36354e-05
3.58178e-05
3.58207e-05
7.72245e-05
7.72243e-05
7.72195e-05
7.72203e-05
2.36314e-05
3.58188e-05
3.58211e-05
3.58204e-05
3.58228e-05
7.72238e-05
7.7224e-05
2.27648e-05
2.4665e-05
2.76289e-05
2.42966e-05
2.27651e-05
2.4665e-05
2.76244e-05
2.80847e-05
6.99222e-05
2.80872e-05
6.99201e-05
2.80845e-05
6.99245e-05
2.80869e-05
6.99223e-05
2.27654e-05
2.42966e-05
2.46649e-05
2.76243e-05
2.4665e-05
2.76289e-05
2.27651e-05
2.27654e-05
2.42966e-05
2.46649e-05
2.76248e-05
2.46649e-05
2.76295e-05
2.2765e-05
2.80879e-05
6.99198e-05
6.99219e-05
2.80853e-05
2.80877e-05
6.9922e-05
6.99241e-05
2.80851e-05
7.72243e-05
7.7224e-05
7.72236e-05
7.72233e-05
2.36318e-05
3.58212e-05
3.58242e-05
3.5823e-05
3.5826e-05
7.72238e-05
7.72238e-05
7.72231e-05
7.72232e-05
7.72243e-05
7.72244e-05
7.7223e-05
7.7223e-05
3.58234e-05
3.58253e-05
2.36362e-05
3.5822e-05
3.58236e-05
7.72248e-05
7.72246e-05
7.72233e-05
7.72231e-05
2.36322e-05
3.58231e-05
3.58245e-05
3.58243e-05
3.58259e-05
2.80872e-05
6.99231e-05
2.80897e-05
6.99212e-05
2.27664e-05
2.76293e-05
2.46654e-05
2.42965e-05
2.27667e-05
2.76248e-05
2.46654e-05
2.27665e-05
2.7631e-05
2.46653e-05
2.42965e-05
2.27668e-05
2.76264e-05
2.46653e-05
2.80897e-05
6.99182e-05
6.99201e-05
2.80872e-05
2.80901e-05
6.99214e-05
6.99231e-05
2.80875e-05
2.2767e-05
2.42965e-05
2.76251e-05
2.46654e-05
2.76298e-05
2.46654e-05
2.27667e-05
2.27671e-05
2.42965e-05
2.76267e-05
2.46653e-05
2.76314e-05
2.46653e-05
2.27668e-05
3.58277e-05
3.58199e-05
2.36362e-05
3.58262e-05
3.58182e-05
7.72202e-05
7.72201e-05
7.72245e-05
7.72243e-05
2.36322e-05
3.58271e-05
3.58193e-05
3.58286e-05
3.58209e-05
7.72207e-05
7.72206e-05
2.27669e-05
2.76301e-05
2.46653e-05
2.42969e-05
2.27671e-05
2.76256e-05
2.46653e-05
2.80878e-05
6.99185e-05
2.809e-05
6.99164e-05
2.27666e-05
2.46651e-05
2.76295e-05
2.4296e-05
2.27668e-05
2.46651e-05
2.76247e-05
2.80909e-05
6.99208e-05
6.99227e-05
2.80885e-05
2.27674e-05
2.42969e-05
2.7626e-05
2.46652e-05
2.76305e-05
2.46652e-05
2.27671e-05
2.80904e-05
6.99163e-05
6.99184e-05
2.80881e-05
2.27671e-05
2.4296e-05
2.4665e-05
2.76251e-05
2.4665e-05
2.763e-05
2.27668e-05
2.80871e-05
6.992e-05
2.80896e-05
6.9918e-05
2.27663e-05
2.46652e-05
2.7629e-05
2.42964e-05
2.27666e-05
2.46651e-05
2.76244e-05
2.8087e-05
6.99211e-05
2.80894e-05
6.99192e-05
2.27667e-05
2.4297e-05
2.76245e-05
2.46652e-05
2.76294e-05
2.46652e-05
2.27663e-05
2.80899e-05
6.99181e-05
6.992e-05
2.80873e-05
2.27669e-05
2.42964e-05
2.46651e-05
2.76248e-05
2.46651e-05
2.76294e-05
2.27665e-05
2.80898e-05
6.99193e-05
6.99211e-05
2.80872e-05
3.58214e-05
3.58232e-05
2.36356e-05
3.58199e-05
3.58217e-05
7.72239e-05
7.72239e-05
7.72195e-05
7.72198e-05
2.36316e-05
3.58209e-05
3.58226e-05
3.58225e-05
3.5824e-05
7.72242e-05
7.7224e-05
2.27653e-05
2.4665e-05
2.76299e-05
2.42967e-05
2.27657e-05
2.4665e-05
2.76252e-05
2.80857e-05
6.99217e-05
2.80885e-05
6.99197e-05
2.80855e-05
6.99239e-05
2.80883e-05
6.99219e-05
2.27659e-05
2.42967e-05
2.4665e-05
2.76251e-05
2.4665e-05
2.76297e-05
2.27655e-05
2.27659e-05
2.42967e-05
2.4665e-05
2.76256e-05
2.4665e-05
2.76303e-05
2.27655e-05
2.80888e-05
6.99197e-05
6.99215e-05
2.8086e-05
2.80887e-05
6.99219e-05
6.99237e-05
2.80858e-05
7.72239e-05
7.7224e-05
7.72232e-05
7.72233e-05
2.3632e-05
3.58229e-05
3.5826e-05
3.58243e-05
3.58273e-05
7.72244e-05
7.72242e-05
7.72237e-05
7.72235e-05
7.72249e-05
7.72255e-05
7.72233e-05
7.72239e-05
3.58254e-05
3.58269e-05
2.36365e-05
3.58241e-05
3.58256e-05
7.72268e-05
7.72255e-05
7.72251e-05
7.72239e-05
2.36325e-05
3.58248e-05
3.58264e-05
3.58264e-05
3.58279e-05
2.80877e-05
6.99232e-05
2.80903e-05
6.99217e-05
2.27669e-05
2.76301e-05
2.46655e-05
2.42967e-05
2.27673e-05
2.76254e-05
2.46655e-05
2.2767e-05
2.76317e-05
2.46654e-05
2.42967e-05
2.27674e-05
2.76269e-05
2.46654e-05
2.80903e-05
6.99191e-05
6.99201e-05
2.80877e-05
2.80906e-05
6.99226e-05
6.99234e-05
2.8088e-05
2.27675e-05
2.42967e-05
2.76254e-05
2.46654e-05
2.76303e-05
2.46654e-05
2.27671e-05
2.27676e-05
2.42967e-05
2.76268e-05
2.46653e-05
2.76319e-05
2.46654e-05
2.27672e-05
3.58295e-05
3.5822e-05
2.36364e-05
3.58279e-05
3.58202e-05
7.72211e-05
7.72217e-05
7.72266e-05
7.72254e-05
2.36324e-05
3.58283e-05
3.58206e-05
3.58302e-05
3.58227e-05
7.7223e-05
7.7222e-05
2.27672e-05
2.76309e-05
2.46653e-05
2.42971e-05
2.27676e-05
2.76263e-05
2.46653e-05
2.80882e-05
6.99183e-05
2.80906e-05
6.99166e-05
2.2767e-05
2.46651e-05
2.76304e-05
2.42962e-05
2.27674e-05
2.46651e-05
2.76253e-05
2.80912e-05
6.99219e-05
6.99229e-05
2.80889e-05
2.27678e-05
2.42971e-05
2.76263e-05
2.46653e-05
2.76312e-05
2.46653e-05
2.27675e-05
2.80908e-05
6.99173e-05
6.99184e-05
2.80886e-05
2.27676e-05
2.42962e-05
2.46651e-05
2.76253e-05
2.46651e-05
2.76306e-05
2.27673e-05
2.80875e-05
6.99202e-05
2.80901e-05
6.99185e-05
2.27666e-05
2.46652e-05
2.76298e-05
2.42965e-05
2.2767e-05
2.46652e-05
2.7625e-05
2.80874e-05
6.99212e-05
2.809e-05
6.99196e-05
2.2767e-05
2.4297e-05
2.76246e-05
2.46653e-05
2.76299e-05
2.46653e-05
2.27667e-05
2.80903e-05
6.99194e-05
6.99204e-05
2.80877e-05
2.27672e-05
2.42965e-05
2.46652e-05
2.7625e-05
2.46652e-05
2.763e-05
2.27669e-05
2.80903e-05
6.99204e-05
6.99213e-05
2.80877e-05
3.58235e-05
3.5825e-05
2.36359e-05
3.58217e-05
3.58237e-05
7.72242e-05
7.72248e-05
7.72219e-05
7.72206e-05
2.36319e-05
3.58223e-05
3.58245e-05
3.58243e-05
3.5826e-05
7.72261e-05
7.72248e-05
2.27656e-05
2.46651e-05
2.76306e-05
2.42969e-05
2.27661e-05
2.46651e-05
2.76258e-05
2.80861e-05
6.99215e-05
2.8089e-05
6.99199e-05
2.80859e-05
6.99238e-05
2.80889e-05
6.99222e-05
2.27661e-05
2.42968e-05
2.4665e-05
2.76253e-05
2.46651e-05
2.76302e-05
2.27657e-05
2.27662e-05
2.42969e-05
2.46651e-05
2.76258e-05
2.46651e-05
2.76308e-05
2.27659e-05
2.80893e-05
6.99206e-05
6.99216e-05
2.80864e-05
2.80891e-05
6.9923e-05
6.99239e-05
2.80863e-05
7.72244e-05
7.72251e-05
7.72237e-05
7.72244e-05
2.36322e-05
3.58245e-05
3.58276e-05
3.58262e-05
3.58292e-05
7.72263e-05
7.72251e-05
7.72257e-05
7.72244e-05
7.72265e-05
7.72297e-05
7.72248e-05
7.72278e-05
3.5827e-05
3.58287e-05
2.36367e-05
3.58248e-05
3.58269e-05
7.72342e-05
7.72279e-05
7.72325e-05
7.7226e-05
2.36328e-05
3.58244e-05
3.58269e-05
3.58271e-05
3.58294e-05
2.80883e-05
6.99238e-05
2.80909e-05
6.99242e-05
2.27672e-05
2.76302e-05
2.46654e-05
2.42969e-05
2.27677e-05
2.76247e-05
2.46653e-05
2.27673e-05
2.76317e-05
2.46653e-05
2.42967e-05
2.27678e-05
2.76261e-05
2.46653e-05
2.80906e-05
6.99229e-05
6.99209e-05
2.80872e-05
2.8091e-05
6.99274e-05
6.99249e-05
2.80877e-05
2.27676e-05
2.42969e-05
2.76235e-05
2.46651e-05
2.76298e-05
2.46652e-05
2.27664e-05
2.27678e-05
2.42966e-05
2.76249e-05
2.46651e-05
2.76313e-05
2.46651e-05
2.27666e-05
3.58305e-05
3.5823e-05
2.36366e-05
3.58281e-05
3.58203e-05
7.72229e-05
7.72262e-05
7.72336e-05
7.72279e-05
2.36326e-05
3.58281e-05
3.58203e-05
3.58306e-05
3.5823e-05
7.72302e-05
7.72245e-05
2.27678e-05
2.76311e-05
2.46654e-05
2.42972e-05
2.27681e-05
2.76258e-05
2.46654e-05
2.80888e-05
6.99187e-05
2.80912e-05
6.99185e-05
2.27675e-05
2.46652e-05
2.76305e-05
2.42963e-05
2.27679e-05
2.46652e-05
2.76247e-05
2.80917e-05
6.99256e-05
6.99241e-05
2.80891e-05
2.27683e-05
2.42972e-05
2.76247e-05
2.46654e-05
2.76308e-05
2.46654e-05
2.27675e-05
2.80914e-05
6.99208e-05
6.99195e-05
2.80887e-05
2.27681e-05
2.42963e-05
2.4665e-05
2.76236e-05
2.46651e-05
2.76301e-05
2.27673e-05
2.8088e-05
6.99207e-05
2.80906e-05
6.99209e-05
2.2767e-05
2.46654e-05
2.76298e-05
2.42966e-05
2.27675e-05
2.46654e-05
2.76243e-05
2.8088e-05
6.99215e-05
2.80906e-05
6.99217e-05
2.27674e-05
2.42969e-05
2.76227e-05
2.46651e-05
2.76293e-05
2.46651e-05
2.27666e-05
2.80908e-05
6.99241e-05
6.99221e-05
2.80875e-05
2.27675e-05
2.42966e-05
2.46652e-05
2.76231e-05
2.46653e-05
2.76295e-05
2.27664e-05
2.80907e-05
6.99243e-05
6.99223e-05
2.80874e-05
3.58248e-05
3.58267e-05
2.36361e-05
3.58225e-05
3.58248e-05
7.72258e-05
7.72288e-05
7.72294e-05
7.72229e-05
2.36321e-05
3.58221e-05
3.58244e-05
3.58252e-05
3.58272e-05
7.72335e-05
7.72269e-05
2.2766e-05
2.46652e-05
2.76307e-05
2.42971e-05
2.27665e-05
2.46652e-05
2.76252e-05
2.80867e-05
6.99218e-05
2.80896e-05
6.99218e-05
2.80866e-05
6.99242e-05
2.80895e-05
6.99243e-05
2.27665e-05
2.42967e-05
2.46649e-05
2.76234e-05
2.46649e-05
2.76297e-05
2.27658e-05
2.27666e-05
2.4297e-05
2.46649e-05
2.7624e-05
2.46651e-05
2.76303e-05
2.27656e-05
2.80897e-05
6.99239e-05
6.99224e-05
2.80863e-05
2.80896e-05
6.9927e-05
6.9925e-05
2.80861e-05
7.7226e-05
7.72292e-05
7.72254e-05
7.72285e-05
2.36324e-05
3.58242e-05
3.58274e-05
3.58269e-05
3.583e-05
7.72337e-05
7.72274e-05
7.7233e-05
7.72267e-05
7.72293e-05
7.72364e-05
7.72277e-05
7.72356e-05
3.58276e-05
3.58302e-05
2.36366e-05
3.58243e-05
3.58267e-05
7.72366e-05
7.72284e-05
7.72364e-05
7.72278e-05
2.36324e-05
3.58237e-05
3.58261e-05
3.58286e-05
3.58311e-05
2.80863e-05
6.99275e-05
2.80902e-05
6.99301e-05
2.27653e-05
2.76296e-05
2.4665e-05
2.42965e-05
2.27667e-05
2.76224e-05
2.46649e-05
2.27654e-05
2.76311e-05
2.4665e-05
2.42962e-05
2.2767e-05
2.76237e-05
2.46649e-05
2.809e-05
6.99274e-05
6.9924e-05
2.80855e-05
2.80904e-05
6.9931e-05
6.9928e-05
2.80859e-05
2.27659e-05
2.42962e-05
2.7621e-05
2.46644e-05
2.76299e-05
2.46648e-05
2.27637e-05
2.27659e-05
2.42958e-05
2.7622e-05
2.46643e-05
2.76313e-05
2.46647e-05
2.27638e-05
3.58315e-05
3.58239e-05
2.36359e-05
3.5828e-05
3.58202e-05
7.72253e-05
7.72324e-05
7.72358e-05
7.72274e-05
2.36315e-05
3.58265e-05
3.58191e-05
3.58322e-05
3.58248e-05
7.7233e-05
7.72246e-05
2.27663e-05
2.76308e-05
2.46654e-05
2.42972e-05
2.27679e-05
2.76237e-05
2.46653e-05
2.80874e-05
6.99212e-05
2.8091e-05
6.99238e-05
2.2766e-05
2.4665e-05
2.763e-05
2.42961e-05
2.27676e-05
2.46649e-05
2.76225e-05
2.80915e-05
6.99302e-05
6.99267e-05
2.80876e-05
2.27669e-05
2.4297e-05
2.76227e-05
2.46649e-05
2.76312e-05
2.46652e-05
2.27653e-05
2.80912e-05
6.99256e-05
6.9922e-05
2.80872e-05
2.27666e-05
2.42959e-05
2.46646e-05
2.76216e-05
2.46648e-05
2.76304e-05
2.2765e-05
2.80862e-05
6.99245e-05
2.809e-05
6.9927e-05
2.27652e-05
2.46651e-05
2.76293e-05
2.42962e-05
2.27667e-05
2.46649e-05
2.7622e-05
2.8086e-05
6.99244e-05
2.80899e-05
6.99273e-05
2.27658e-05
2.42964e-05
2.76199e-05
2.46643e-05
2.76293e-05
2.46648e-05
2.27636e-05
2.80902e-05
6.99279e-05
6.9925e-05
2.80857e-05
2.27658e-05
2.4296e-05
2.46643e-05
2.76207e-05
2.46647e-05
2.76296e-05
2.27637e-05
2.80901e-05
6.99287e-05
6.99253e-05
2.80856e-05
3.58256e-05
3.58275e-05
2.36361e-05
3.58217e-05
3.58239e-05
7.72288e-05
7.72366e-05
7.72339e-05
7.72253e-05
2.3632e-05
3.58216e-05
3.58237e-05
3.58264e-05
3.58282e-05
7.7237e-05
7.72287e-05
2.27645e-05
2.46649e-05
2.76301e-05
2.42966e-05
2.2766e-05
2.46648e-05
2.76228e-05
2.80849e-05
6.99239e-05
2.80887e-05
6.99268e-05
2.80848e-05
6.99271e-05
2.80888e-05
6.993e-05
2.27651e-05
2.42964e-05
2.46643e-05
2.76211e-05
2.46646e-05
2.76298e-05
2.2763e-05
2.2765e-05
2.42964e-05
2.46642e-05
2.76215e-05
2.46646e-05
2.76304e-05
2.27628e-05
2.80888e-05
6.99288e-05
6.9925e-05
2.80841e-05
2.80891e-05
6.99313e-05
6.99279e-05
2.80843e-05
7.72288e-05
7.7236e-05
7.7228e-05
7.72353e-05
2.36318e-05
3.58235e-05
3.58265e-05
3.58284e-05
3.58315e-05
7.72363e-05
7.7228e-05
7.72356e-05
7.72273e-05
7.72258e-05
7.72379e-05
7.72256e-05
7.72373e-05
3.58289e-05
3.58314e-05
2.36329e-05
3.58226e-05
3.58254e-05
7.72378e-05
7.72245e-05
7.72369e-05
7.72238e-05
2.36278e-05
3.58224e-05
3.58254e-05
3.58276e-05
3.58304e-05
2.8085e-05
6.99266e-05
2.8091e-05
6.9932e-05
2.276e-05
2.76293e-05
2.46636e-05
2.42933e-05
2.2764e-05
2.76181e-05
2.4662e-05
2.276e-05
2.76302e-05
2.46633e-05
2.42919e-05
2.27641e-05
2.76186e-05
2.46616e-05
2.80883e-05
6.99314e-05
6.99225e-05
2.80824e-05
2.80887e-05
6.9935e-05
6.99261e-05
2.80828e-05
2.27598e-05
2.42917e-05
2.76136e-05
2.46591e-05
2.76266e-05
2.46605e-05
2.27571e-05
2.27598e-05
2.42904e-05
2.76142e-05
2.46588e-05
2.76271e-05
2.46601e-05
2.27572e-05
3.58316e-05
3.58245e-05
2.3631e-05
3.58248e-05
3.58175e-05
7.72225e-05
7.72348e-05
7.72372e-05
7.72238e-05
2.36259e-05
3.58242e-05
3.58169e-05
3.58298e-05
3.58226e-05
7.7236e-05
7.7222e-05
2.2763e-05
2.76311e-05
2.46645e-05
2.42946e-05
2.27659e-05
2.76203e-05
2.46632e-05
2.8087e-05
6.99216e-05
2.80923e-05
6.99273e-05
2.27628e-05
2.46642e-05
2.76304e-05
2.42939e-05
2.27657e-05
2.46631e-05
2.76193e-05
2.80909e-05
6.99349e-05
6.99259e-05
2.8085e-05
2.27628e-05
2.42929e-05
2.76158e-05
2.466e-05
2.76288e-05
2.46617e-05
2.27586e-05
2.80905e-05
6.99304e-05
6.99215e-05
2.80846e-05
2.27626e-05
2.42923e-05
2.46599e-05
2.76148e-05
2.46616e-05
2.76281e-05
2.27583e-05
2.80849e-05
6.99237e-05
2.80909e-05
6.99289e-05
2.27599e-05
2.46633e-05
2.7629e-05
2.42927e-05
2.2764e-05
2.46617e-05
2.76177e-05
2.80848e-05
6.99244e-05
2.80908e-05
6.99299e-05
2.27597e-05
2.4291e-05
2.76121e-05
2.46589e-05
2.76252e-05