/*--------------------------------*- C++ -*----------------------------------*\
| =========                 |                                                 |
| \\      /  F ield         | OpenFOAM: The Open Source CFD Toolbox           |
|  \\    /   O peration     | Version:  2206                                  |
|   \\  /    A nd           | Website:  www.openfoam.com                      |
|    \\/     M anipulation  |                                                 |
\*---------------------------------------------------------------------------*/
FoamFile
{
    version     2.0;
    format      ascii;
    arch        "LSB;label=32;scalar=64";
    class       volScalarField;
    location    "33";
    object      nut;
}
// * * * * * * * * * * * * * * * * * * * * * * * * * * * * * * * * * * * * * //

dimensions      [0 2 -1 0 0 0 0];

internalField   nonuniform List<scalar> 
28673
(
0.000183279
0.000154989
0.000214563
0.000183278
0.000183268
0.000155021
0.000214562
0.000183277
0.000183267
0.00015502
0.000214561
0.000183276
0.000183265
0.000155019
0.000214562
0.000183274
0.000183265
0.000155018
0.000214561
0.000183273
0.000183264
0.000155017
0.000214561
0.00018327
0.000183262
0.000155015
0.000214552
0.000183248
0.000183251
0.000154987
0.000214527
0.00018323
0.00018322
0.000154964
0.000214536
0.000183239
0.000183229
0.000154974
0.000214537
0.000183247
0.000183237
0.000154974
0.000214541
0.000183252
0.000183243
0.000155004
0.000215656
0.000186401
0.000186398
0.000159134
0.000183252
0.000155218
0.000183279
0.000155166
0.000183258
0.000183252
0.000183256
0.000183252
0.000155032
0.000155214
0.000183271
0.000183242
0.000183256
0.000183279
0.000183255
0.0001552
0.000183272
0.000183269
0.000183272
0.000155205
0.000154989
0.000155207
0.000183256
0.000183253
0.000183257
0.000183252
0.00015503
0.000155214
0.000183272
0.000183241
0.000183272
0.000183241
0.000183255
0.000183277
0.000183254
0.000155017
0.0001552
0.000183271
0.000183267
0.000183271
0.000155205
0.000155025
0.000155209
0.000183257
0.000183251
0.000183256
0.000183251
0.00015503
0.000155213
0.000183272
0.000183242
0.000183272
0.000183241
0.000183253
0.000183276
0.000183253
0.000155017
0.0001552
0.00018327
0.000183265
0.000183269
0.000155204
0.000155026
0.000155209
0.000183256
0.000183251
0.000183256
0.000183251
0.00015503
0.000155212
0.000183272
0.000183241
0.000183272
0.00018324
0.000183252
0.000183274
0.000183252
0.000155017
0.000155199
0.000183269
0.000183264
0.000183268
0.000155202
0.000155026
0.000155208
0.000183256
0.000183251
0.000183256
0.000183251
0.000155029
0.000155211
0.000183272
0.000183241
0.000183272
0.000183241
0.000183253
0.000183273
0.000183252
0.000155016
0.000155198
0.000183269
0.000183264
0.000183269
0.000155201
0.000155025
0.000155208
0.000183256
0.000183251
0.000183256
0.000183248
0.000155028
0.000155209
0.000183272
0.000183241
0.000183274
0.000183242
0.000183252
0.000183271
0.000183252
0.000155016
0.000155198
0.00018327
0.000183263
0.000183269
0.000155201
0.000155025
0.000155191
0.000183253
0.000183246
0.000183244
0.000183233
0.000155025
0.000155184
0.000183273
0.000183241
0.000183265
0.000183233
0.00018325
0.00018326
0.000183239
0.000155015
0.000155185
0.000183267
0.000183256
0.000183256
0.000155181
0.000155002
0.000155155
0.000183236
0.00018322
0.00018321
0.000183203
0.000154991
0.00015516
0.000183259
0.000183228
0.000183228
0.000183198
0.000183228
0.00018323
0.000183207
0.000154998
0.000155148
0.000183245
0.000183224
0.000183223
0.00015515
0.00015497
0.000155163
0.000183208
0.000183204
0.000183217
0.000183211
0.000154978
0.000155166
0.000183225
0.000183194
0.000183233
0.000183202
0.000183206
0.000183239
0.000183214
0.000154962
0.000155155
0.000183223
0.000183229
0.000183232
0.000155159
0.000154981
0.000155161
0.00018322
0.000183213
0.000183225
0.00018322
0.000154983
0.000155165
0.000183236
0.000183204
0.000183242
0.000183211
0.000183216
0.000183247
0.000183223
0.000154973
0.000155152
0.000183234
0.000183237
0.00018324
0.000155156
0.00015498
0.000155187
0.000183226
0.000183222
0.000183266
0.000183262
0.000154984
0.000155193
0.000183243
0.000183212
0.000183284
0.000183253
0.000183225
0.00018329
0.000183264
0.000154971
0.00015518
0.000183241
0.000183281
0.000183283
0.000155184
0.000155008
0.000156894
0.000183228
0.000183224
0.00018534
0.000185337
0.000155013
0.000156895
0.000183246
0.000183215
0.000185353
0.000185333
0.000183225
0.000185355
0.000185339
0.000155002
0.000156889
0.000183245
0.000185351
0.000185353
0.000156892
0.000159137
0.000186391
0.000186388
0.000159137
0.000186401
0.000186385
0.000215656
0.000215655
0.000215656
0.00018639
0.000159131
0.000186401
3.96004e-05
4.95128e-05
3.95939e-05
4.95119e-05
2.488e-05
2.48796e-05
3.96062e-05
4.95076e-05
0.000214564
0.00021456
0.000214563
0.000214563
0.000214558
0.00021456
8.53503e-05
4.79495e-05
0.000201794
0.00018328
8.53268e-05
4.79619e-05
0.000201794
2.48774e-05
8.53409e-05
0.00020179
0.00018327
8.53176e-05
0.00020179
4.79642e-05
3.65293e-05
3.65241e-05
0.000155208
3.65305e-05
3.65259e-05
3.96043e-05
4.95122e-05
3.95974e-05
4.95114e-05
2.48791e-05
2.4879e-05
3.96101e-05
4.9508e-05
3.96037e-05
4.95072e-05
0.000214563
0.000214557
0.00021456
0.000214562
0.000214562
0.000214556
0.000214559
8.53518e-05
4.79529e-05
0.000201794
0.000183278
8.53271e-05
4.79649e-05
0.000201794
2.48769e-05
2.48766e-05
8.53421e-05
0.000201789
4.79559e-05
0.000183268
8.53173e-05
0.000201789
4.79678e-05
3.65321e-05
3.65277e-05
0.000155206
3.65353e-05
3.65309e-05
3.96078e-05
4.9512e-05
3.96011e-05
4.95113e-05
2.48788e-05
2.48788e-05
3.96137e-05
4.95078e-05
3.96074e-05
4.95071e-05
0.000214562
0.000214555
0.000214557
0.000214561
0.000214562
0.000214555
0.000214556
8.53525e-05
4.79556e-05
0.000201793
0.000183277
8.53279e-05
4.79675e-05
0.000201792
2.48763e-05
2.48762e-05
8.53429e-05
0.000201787
4.79589e-05
0.000183266
8.53183e-05
0.000201787
4.79705e-05
3.65352e-05
3.65309e-05
0.000155205
3.65372e-05
3.6533e-05
3.96105e-05
4.95119e-05
3.96042e-05
4.95112e-05
2.48788e-05
2.48789e-05
3.96164e-05
4.95077e-05
3.96106e-05
4.9507e-05
0.000214561
0.000214556
0.000214558
0.000214562
0.00021456
0.000214557
0.000214558
8.5353e-05
4.79579e-05
0.000201791
0.000183275
8.53282e-05
4.79696e-05
0.00020179
2.48762e-05
2.48761e-05
8.53435e-05
0.000201786
4.79611e-05
0.000183265
8.53187e-05
0.000201786
4.79725e-05
3.65365e-05
3.65323e-05
0.000155204
3.6539e-05
3.65349e-05
3.96123e-05
4.95118e-05
3.96063e-05
4.95113e-05
2.48789e-05
2.48791e-05
3.96178e-05
4.95077e-05
3.96123e-05
4.95071e-05
0.000214561
0.000214557
0.000214559
0.000214562
0.000214562
0.000214555
0.000214561
8.53538e-05
4.79599e-05
0.00020179
0.000183274
8.53289e-05
4.79712e-05
0.000201791
2.48762e-05
2.48763e-05
8.53441e-05
0.000201787
4.7963e-05
0.000183265
8.53193e-05
0.000201787
4.79742e-05
3.65393e-05
3.65352e-05
0.000155202
3.65419e-05
3.65378e-05
3.96129e-05
4.95119e-05
3.96075e-05
4.9512e-05
2.48792e-05
2.48798e-05
3.96192e-05
4.95078e-05
3.96136e-05
4.95079e-05
0.000214562
0.000214555
0.000214562
0.000214561
0.00021456
0.000214555
0.00021456
8.5355e-05
4.79623e-05
0.000201793
0.000183272
8.53304e-05
4.79724e-05
0.000201792
2.48764e-05
2.4877e-05
8.53452e-05
0.000201788
4.79657e-05
0.000183264
8.53205e-05
0.000201787
4.79757e-05
3.65427e-05
3.65387e-05
0.000155202
3.65447e-05
3.65408e-05
3.96093e-05
4.95129e-05
3.96076e-05
4.95139e-05
2.48795e-05
2.48807e-05
3.96181e-05
4.95088e-05
3.96154e-05
4.95097e-05
0.00021456
0.000214555
0.000214559
0.000214557
0.000214554
0.000214552
0.000214552
8.53454e-05
4.79646e-05
0.00020179
0.000183268
8.5329e-05
4.79695e-05
0.000201789
2.48769e-05
2.48783e-05
8.5337e-05
0.000201786
4.79695e-05
0.00018326
8.53201e-05
0.000201785
4.7975e-05
3.65491e-05
3.65452e-05
0.000155196
3.65484e-05
3.65445e-05
3.95936e-05
4.95129e-05
3.95929e-05
4.95148e-05
2.4879e-05
2.4881e-05
3.96022e-05
4.95088e-05
3.96022e-05
4.95109e-05
0.000214543
0.000214548
0.000214544
0.000214528
0.000214528
0.000214524
0.000214526
8.53115e-05
4.7958e-05
0.000201771
0.000183239
8.53047e-05
4.79585e-05
0.00020176
2.48767e-05
2.48787e-05
8.53054e-05
0.000201773
4.79646e-05
0.000183241
8.52968e-05
0.000201761
4.79648e-05
3.65496e-05
3.65454e-05
0.000155159
3.65467e-05
3.65424e-05
3.95861e-05
4.95127e-05
3.9583e-05
4.95173e-05
2.48782e-05
2.48807e-05
3.95933e-05
4.95089e-05
3.95912e-05
4.95135e-05
0.000214531
0.000214523
0.000214528
0.000214536
0.000214537
0.00021453
0.000214534
8.53043e-05
4.79596e-05
0.000201752
0.000183235
8.52804e-05
4.79574e-05
0.000201755
2.4876e-05
2.48787e-05
8.52963e-05
0.000201748
4.7965e-05
0.000183223
8.52723e-05
0.000201751
4.79615e-05
3.65472e-05
3.65429e-05
0.000155157
3.65356e-05
3.65313e-05
3.95794e-05
4.95132e-05
3.95753e-05
4.95211e-05
2.48751e-05
2.48785e-05
3.9586e-05
4.95096e-05
3.95825e-05
4.95176e-05
0.000214537
0.000214531
0.000214535
0.000214536
0.000214538
0.000214533
0.000214535
8.5305e-05
4.79765e-05
0.000201759
0.000183242
8.52866e-05
4.79585e-05
0.000201759
2.48732e-05
2.48766e-05
8.52983e-05
0.000201755
4.7979e-05
0.000183234
8.52795e-05
0.000201755
4.79592e-05
3.65265e-05
3.65222e-05
0.000155155
3.64981e-05
3.64937e-05
3.95659e-05
4.95081e-05
3.95605e-05
4.95207e-05
2.48686e-05
2.48731e-05
3.95724e-05
4.95049e-05
3.95677e-05
4.95175e-05
0.000214538
0.000214533
0.000214536
0.000214551
0.000214551
0.000214546
0.000214549
8.53016e-05
4.79832e-05
0.000201763
0.000183257
8.52889e-05
4.79302e-05
0.000201762
2.48668e-05
2.48712e-05
8.52954e-05
0.000201759
4.79824e-05
0.000183247
8.52827e-05
0.000201758
4.79286e-05
3.64762e-05
3.64715e-05
0.000155161
3.64175e-05
3.64128e-05
3.96121e-05
4.94965e-05
3.95306e-05
4.9537e-05
2.48565e-05
2.48696e-05
3.9616e-05
4.94929e-05
3.9537e-05
4.9534e-05
0.000214543
0.000214538
0.000214541
0.000214863
0.000214863
0.00021486
0.000214862
8.5454e-05
4.79784e-05
0.000201821
0.000183505
8.53142e-05
4.79296e-05
0.000201757
2.48544e-05
2.48677e-05
8.54493e-05
0.000201817
4.79769e-05
0.000183498
8.53085e-05
0.000201754
4.79288e-05
3.63666e-05
3.6362e-05
0.000155447
3.62163e-05
3.62135e-05
4.38599e-05
5.28733e-05
3.98551e-05
8.32239e-05
2.72749e-05
2.84601e-05
4.38627e-05
5.28714e-05
3.98577e-05
8.32125e-05
0.000226523
0.000222739
0.000222741
0.000212589
0.000226371
0.000221836
0.000221837
9.06897e-05
4.93127e-05
0.000203721
0.000188986
8.73961e-05
5.95515e-05
0.000206864
2.72734e-05
2.84592e-05
9.06844e-05
0.000203719
4.93127e-05
0.000188984
8.73922e-05
0.000206862
5.95515e-05
3.71348e-05
3.71283e-05
0.000164442
3.78e-05
3.77937e-05
4.95121e-05
4.79642e-05
2.48802e-05
3.65274e-05
3.65226e-05
2.48806e-05
4.79601e-05
4.95103e-05
2.48814e-05
2.4881e-05
2.48793e-05
3.65298e-05
0.000155143
3.65309e-05
3.65241e-05
2.48805e-05
2.48808e-05
2.48787e-05
2.48791e-05
0.000154963
3.65336e-05
3.65272e-05
3.65297e-05
3.65233e-05
3.96012e-05
4.95126e-05
3.95947e-05
4.95117e-05
8.53515e-05
4.79551e-05
0.000201794
0.000183257
8.53279e-05
4.79664e-05
0.000201794
8.53518e-05
4.79544e-05
0.000201793
0.000183252
8.53276e-05
4.79661e-05
0.000201793
3.95958e-05
4.95116e-05
4.95124e-05
3.96024e-05
3.95966e-05
4.95115e-05
4.95123e-05
3.96031e-05
8.53286e-05
0.000183256
4.79682e-05
0.000201794
4.79568e-05
0.000201794
8.53525e-05
8.53289e-05
0.000183252
4.79677e-05
0.000201793
4.79562e-05
0.000201793
8.5353e-05
3.65264e-05
3.6521e-05
0.000155214
3.653e-05
3.65244e-05
2.48806e-05
2.48801e-05
2.48792e-05
2.48795e-05
0.000155031
3.65321e-05
3.65261e-05
3.65287e-05
3.65227e-05
2.48798e-05
2.48801e-05
8.53534e-05
0.000183272
4.79581e-05
0.000201792
3.96052e-05
4.95045e-05
8.53533e-05
0.000183242
0.000201786
4.79532e-05
3.9602e-05
4.95074e-05
4.95082e-05
3.96082e-05
8.53308e-05
0.000183271
4.79603e-05
0.000201791
4.79486e-05
0.000201791
8.53537e-05
3.9601e-05
4.95041e-05
4.95051e-05
3.96072e-05
8.53303e-05
0.000183242
0.000201786
4.79551e-05
0.000201786
4.79432e-05
8.53536e-05
3.96004e-05
4.9511e-05
3.95939e-05
4.951e-05
8.53499e-05
0.000201792
4.79521e-05
0.000183256
8.53266e-05
0.000201792
4.79636e-05
3.96003e-05
4.95091e-05
3.95937e-05
4.95081e-05
8.53277e-05
0.00018328
4.79635e-05
0.000201794
4.79518e-05
0.000201795
8.53517e-05
3.95958e-05
4.95098e-05
4.95106e-05
3.96024e-05
8.53274e-05
0.000183255
0.000201792
4.79654e-05
0.000201792
4.79539e-05
8.5351e-05
3.95956e-05
4.95078e-05
4.95087e-05
3.96022e-05
0.000155205
3.65164e-05
3.65289e-05
2.48801e-05
2.48769e-05
2.48774e-05
0.000155021
3.65182e-05
3.65319e-05
3.65148e-05
3.6528e-05
2.48796e-05
2.488e-05
8.53396e-05
0.00020179
4.79494e-05
0.000183272
8.53165e-05
0.00020179
4.7961e-05
3.95927e-05
3.95858e-05
4.95078e-05
3.95923e-05
4.95089e-05
3.95855e-05
4.95079e-05
8.53182e-05
0.00018327
0.000201789
4.79661e-05
0.00020179
4.79546e-05
8.5342e-05
8.53172e-05
0.000183272
0.00020179
4.79627e-05
0.00020179
4.79512e-05
8.53408e-05
3.95876e-05
4.95075e-05
4.95084e-05
3.95946e-05
3.95872e-05
4.95076e-05
4.95085e-05
3.95941e-05
2.488e-05
2.48796e-05
2.4879e-05
2.48786e-05
0.000155024
3.65332e-05
3.65287e-05
3.65293e-05
3.65248e-05
2.48791e-05
2.48795e-05
2.48781e-05
2.48784e-05
2.48804e-05
2.48802e-05
2.48786e-05
2.48783e-05
3.65324e-05
3.65259e-05
0.000155198
3.65359e-05
3.65296e-05
2.488e-05
2.48801e-05
2.48781e-05
2.48782e-05
0.000155019
3.65374e-05
3.65315e-05
3.65345e-05
3.65283e-05
3.9605e-05
4.95121e-05
3.95985e-05
4.95114e-05
8.53533e-05
4.79585e-05
0.000201793
0.000183257
8.53296e-05
4.79697e-05
0.000201793
8.53539e-05
4.79578e-05
0.000201791
0.000183252
8.53301e-05
4.79692e-05
0.000201791
3.95997e-05
4.95114e-05
4.95121e-05
3.96061e-05
3.96004e-05
4.95112e-05
4.9512e-05
3.96069e-05
8.53303e-05
0.000183257
4.79711e-05
0.000201793
4.79601e-05
0.000201793
8.53537e-05
8.53308e-05
0.000183252
4.79704e-05
0.00020179
4.79592e-05
0.00020179
8.53542e-05
3.65307e-05
3.65243e-05
0.000155214
3.65336e-05
3.65274e-05
2.48798e-05
2.48796e-05
2.48788e-05
2.48789e-05
0.000155031
3.65346e-05
3.65285e-05
3.65321e-05
3.65255e-05
2.48794e-05
2.48796e-05
8.53539e-05
4.79508e-05
0.000201791
0.000183272
8.5331e-05
4.79623e-05
0.000201791
3.96091e-05
4.95047e-05
3.9603e-05
4.95039e-05
8.53538e-05
0.000201786
4.7945e-05
0.000183241
8.53306e-05
0.000201786
4.79568e-05
3.96059e-05
4.95071e-05
4.95079e-05
3.9612e-05
8.53312e-05
0.000183272
4.7964e-05
0.000201791
4.79528e-05
0.000201791
8.5354e-05
3.96049e-05
4.95038e-05
4.95045e-05
3.9611e-05
8.53308e-05
0.000183242
0.000201786
4.79583e-05
0.000201786
4.79467e-05
8.53538e-05
3.96043e-05
4.95104e-05
3.95978e-05
4.95096e-05
8.53519e-05
0.000201791
4.79556e-05
0.000183255
8.53285e-05
0.000201791
4.79669e-05
3.96041e-05
4.95084e-05
3.95976e-05
4.95077e-05
8.53291e-05
0.000183278
4.79662e-05
0.000201793
4.79548e-05
0.000201794
8.53528e-05
3.95997e-05
4.95095e-05
4.95103e-05
3.96062e-05
8.53292e-05
0.000183254
0.000201791
4.79682e-05
0.000201791
4.79571e-05
8.53523e-05
3.95995e-05
4.95076e-05
4.95083e-05
3.96059e-05
3.65164e-05
3.65307e-05
0.000155201
3.65198e-05
3.65343e-05
2.48794e-05
2.48792e-05
2.48763e-05
2.48766e-05
0.000155018
3.65211e-05
3.65362e-05
3.6518e-05
3.6533e-05
2.48789e-05
2.48791e-05
8.53417e-05
0.000201788
4.79529e-05
0.000183271
8.53184e-05
0.000201788
4.79643e-05
3.95965e-05
4.95081e-05
3.95895e-05
4.95073e-05
3.9596e-05
4.95082e-05
3.95891e-05
4.95075e-05
8.53194e-05
0.000183268
0.000201788
4.79692e-05
0.000201789
4.7958e-05
8.5343e-05
8.53191e-05
0.000183271
0.000201787
4.79656e-05
0.000201788
4.79544e-05
8.53423e-05
3.95914e-05
4.95073e-05
4.9508e-05
3.95983e-05
3.95909e-05
4.95074e-05
4.95081e-05
3.95978e-05
2.4879e-05
2.48788e-05
2.4878e-05
2.48778e-05
0.000155023
3.65366e-05
3.65323e-05
3.65338e-05
3.65295e-05
2.48787e-05
2.48788e-05
2.48776e-05
2.48777e-05
2.488e-05
2.48799e-05
2.4878e-05
2.4878e-05
3.65358e-05
3.65299e-05
0.000155209
3.65382e-05
3.65324e-05
2.48799e-05
2.48799e-05
2.48779e-05
2.48779e-05
0.000155026
3.65389e-05
3.65329e-05
3.65365e-05
3.65307e-05
3.96085e-05
4.95119e-05
3.96022e-05
4.95111e-05
8.53538e-05
4.79614e-05
0.000201792
0.000183257
8.53306e-05
4.79724e-05
0.000201792
8.53543e-05
4.79604e-05
0.000201789
0.000183251
8.5331e-05
4.79715e-05
0.000201789
3.96031e-05
4.95112e-05
4.95119e-05
3.96093e-05
3.96038e-05
4.9511e-05
4.95117e-05
3.961e-05
8.53308e-05
0.000183256
4.79734e-05
0.000201792
4.79626e-05
0.000201793
8.53545e-05
8.53312e-05
0.000183251
4.79726e-05
0.00020179
4.79616e-05
0.00020179
8.53549e-05
3.6533e-05
3.65266e-05
0.000155214
3.65354e-05
3.65297e-05
2.48795e-05
2.48793e-05
2.48788e-05
2.48788e-05
0.000155031
3.65365e-05
3.6531e-05
3.65338e-05
3.65279e-05
2.48793e-05
2.48794e-05
8.5354e-05
4.79544e-05
0.00020179
0.000183272
8.53313e-05
4.79655e-05
0.00020179
3.96128e-05
4.95045e-05
3.96068e-05
4.95037e-05
8.53539e-05
0.000201785
4.79481e-05
0.000183242
8.53308e-05
0.000201785
4.79597e-05
3.96095e-05
4.9507e-05
4.95078e-05
3.96153e-05
8.53314e-05
0.000183272
4.79666e-05
0.00020179
4.79558e-05
0.000201791
8.53545e-05
3.96086e-05
4.95036e-05
4.95044e-05
3.96143e-05
8.53309e-05
0.000183242
0.000201785
4.79609e-05
0.000201785
4.79495e-05
8.53543e-05
3.96079e-05
4.95102e-05
3.96015e-05
4.95094e-05
8.53523e-05
0.00020179
4.79584e-05
0.000183253
8.53296e-05
0.00020179
4.79694e-05
3.96076e-05
4.95082e-05
3.96013e-05
4.95074e-05
8.53296e-05
0.000183277
4.79686e-05
0.000201791
4.79573e-05
0.000201792
8.5353e-05
3.96031e-05
4.95093e-05
4.95101e-05
3.96093e-05
8.53296e-05
0.000183253
0.000201789
4.79705e-05
0.000201789
4.79595e-05
8.53528e-05
3.96029e-05
4.95073e-05
4.95081e-05
3.96091e-05
3.65191e-05
3.65347e-05
0.0001552
3.65221e-05
3.65372e-05
2.48789e-05
2.48788e-05
2.48761e-05
2.48762e-05
0.000155018
3.65233e-05
3.65379e-05
3.65201e-05
3.65355e-05
2.48787e-05
2.48788e-05
8.53425e-05
0.000201787
4.79557e-05
0.00018327
8.53197e-05
0.000201786
4.79669e-05
3.96e-05
4.9508e-05
3.95932e-05
4.95072e-05
3.95995e-05
4.9508e-05
3.95927e-05
4.95073e-05
8.53201e-05
0.000183266
0.000201786
4.79715e-05
0.000201787
4.79606e-05
8.53435e-05
8.53198e-05
0.00018327
0.000201786
4.79679e-05
0.000201786
4.79569e-05
8.53428e-05
3.95948e-05
4.95071e-05
4.95079e-05
3.96014e-05
3.95943e-05
4.95072e-05
4.95079e-05
3.96009e-05
2.48786e-05
2.48786e-05
2.48776e-05
2.48775e-05
0.000155022
3.65379e-05
3.65337e-05
3.65355e-05
3.65313e-05
2.48786e-05
2.48786e-05
2.48775e-05
2.48775e-05
2.48799e-05
2.48799e-05
2.48779e-05
2.48779e-05
3.65373e-05
3.65312e-05
0.000155209
3.65401e-05
3.65338e-05
2.488e-05
2.488e-05
2.48779e-05
2.48779e-05
0.000155026
3.65417e-05
3.65352e-05
3.65387e-05
3.65323e-05
3.96111e-05
4.95117e-05
3.96052e-05
4.9511e-05
8.53554e-05
4.79637e-05
0.000201793
0.000183256
8.53316e-05
4.79745e-05
0.000201793
8.53558e-05
4.79626e-05
0.000201791
0.000183251
8.5332e-05
4.79736e-05
0.000201791
3.96057e-05
4.95112e-05
4.95119e-05
3.96115e-05
3.96062e-05
4.95111e-05
4.95117e-05
3.9612e-05
8.53325e-05
0.000183256
4.79755e-05
0.000201793
4.79647e-05
0.000201793
8.53564e-05
8.53329e-05
0.000183251
4.79745e-05
0.00020179
4.79636e-05
0.000201791
8.53567e-05
3.6535e-05
3.65293e-05
0.000155213
3.65378e-05
3.65325e-05
2.48794e-05
2.48794e-05
2.48789e-05
2.48789e-05
0.00015503
3.65392e-05
3.6534e-05
3.65363e-05
3.65307e-05
2.48795e-05
2.48795e-05
8.53553e-05
4.79569e-05
0.00020179
0.000183272
8.53321e-05
4.79677e-05
0.00020179
3.96154e-05
4.95043e-05
3.961e-05
4.95035e-05
8.53549e-05
0.000201784
4.79506e-05
0.000183241
8.53314e-05
0.000201784
4.7962e-05
3.9612e-05
4.9507e-05
4.95077e-05
3.96172e-05
8.53328e-05
0.000183272
4.79688e-05
0.00020179
4.7958e-05
0.00020179
8.53558e-05
3.9611e-05
4.95035e-05
4.95042e-05
3.96163e-05
8.53321e-05
0.000183241
0.000201784
4.7963e-05
0.000201784
4.79518e-05
8.53557e-05
3.96103e-05
4.951e-05
3.96044e-05
4.95093e-05
8.53535e-05
0.000201788
4.79606e-05
0.000183252
8.53302e-05
0.000201788
4.79715e-05
3.96102e-05
4.9508e-05
3.96043e-05
4.95073e-05
8.53302e-05
0.000183275
4.79705e-05
0.00020179
4.79594e-05
0.00020179
8.53537e-05
3.96054e-05
4.95094e-05
4.951e-05
3.96111e-05
8.53308e-05
0.000183252
0.000201788
4.79724e-05
0.000201788
4.79616e-05
8.53539e-05
3.96053e-05
4.95073e-05
4.9508e-05
3.9611e-05
3.65215e-05
3.65362e-05
0.000155199
3.65249e-05
3.65388e-05
2.48788e-05
2.48788e-05
2.48761e-05
2.48762e-05
0.000155017
3.65264e-05
3.65403e-05
3.6523e-05
3.65373e-05
2.48788e-05
2.48788e-05
8.53434e-05
0.000201785
4.79579e-05
0.000183269
8.53203e-05
0.000201785
4.79689e-05
3.96024e-05
4.95078e-05
3.95961e-05
4.95071e-05
3.9602e-05
4.95078e-05
3.95957e-05
4.95071e-05
8.53207e-05
0.000183265
0.000201787
4.79734e-05
0.000201786
4.79626e-05
8.53441e-05
8.53208e-05
0.000183269
0.000201785
4.79698e-05
0.000201785
4.79589e-05
8.53438e-05
3.95971e-05
4.95071e-05
4.95077e-05
3.96032e-05
3.95967e-05
4.95071e-05
4.95078e-05
3.96028e-05
2.48786e-05
2.48786e-05
2.48775e-05
2.48776e-05
0.000155021
3.65405e-05
3.65364e-05
3.65375e-05
3.65334e-05
2.48787e-05
2.48786e-05
2.48776e-05
2.48776e-05
2.488e-05
2.48801e-05
2.48779e-05
2.4878e-05
3.65403e-05
3.65337e-05
0.000155209
3.65433e-05
3.65368e-05
2.48803e-05
2.48801e-05
2.48782e-05
2.4878e-05
0.000155026
3.65446e-05
3.65383e-05
3.65419e-05
3.65355e-05
3.96128e-05
4.95118e-05
3.96071e-05
4.95112e-05
8.53571e-05
4.79658e-05
0.000201792
0.000183256
8.53335e-05
4.79764e-05
0.000201792
8.53574e-05
4.79645e-05
0.00020179
0.000183251
8.53337e-05
4.79752e-05
0.00020179
3.96073e-05
4.95115e-05
4.95118e-05
3.96129e-05
3.96078e-05
4.95115e-05
4.95118e-05
3.96135e-05
8.53342e-05
0.000183256
4.79771e-05
0.000201793
4.79669e-05
0.000201793
8.5358e-05
8.53344e-05
0.000183251
4.79759e-05
0.000201792
4.79655e-05
0.000201791
8.53583e-05
3.65378e-05
3.65323e-05
0.000155212
3.65404e-05
3.65353e-05
2.48795e-05
2.48796e-05
2.48793e-05
2.48791e-05
0.000155029
3.65415e-05
3.65363e-05
3.6539e-05
3.65336e-05
2.48799e-05
2.48797e-05
8.53562e-05
4.79591e-05
0.00020179
0.000183272
8.53333e-05
4.79698e-05
0.00020179
3.9617e-05
4.95042e-05
3.96118e-05
4.95036e-05
8.53563e-05
0.000201784
4.79528e-05
0.000183241
8.53329e-05
0.000201784
4.79639e-05
3.96133e-05
4.95074e-05
4.95077e-05
3.96185e-05
8.53338e-05
0.000183272
4.79706e-05
0.00020179
4.79603e-05
0.00020179
8.53572e-05
3.96125e-05
4.95038e-05
4.95042e-05
3.96177e-05
8.53336e-05
0.000183241
0.000201784
4.79647e-05
0.000201784
4.79539e-05
8.53573e-05
3.96118e-05
4.95101e-05
3.96062e-05
4.95095e-05
8.53543e-05
0.000201788
4.79626e-05
0.000183252
8.53312e-05
0.000201788
4.79733e-05
3.96118e-05
4.9508e-05
3.96061e-05
4.95075e-05
8.53311e-05
0.000183274
4.79719e-05
0.000201792
4.79613e-05
0.000201791
8.53547e-05
3.96068e-05
4.95098e-05
4.95102e-05
3.96125e-05
8.53318e-05
0.000183252
0.00020179
4.79739e-05
0.000201789
4.79636e-05
8.53553e-05
3.96068e-05
4.95077e-05
4.9508e-05
3.96125e-05
3.65245e-05
3.65388e-05
0.000155199
3.65277e-05
3.65419e-05
2.48788e-05
2.48789e-05
2.48765e-05
2.48763e-05
0.000155017
3.65289e-05
3.65434e-05
3.65259e-05
3.65406e-05
2.48791e-05
2.48789e-05
8.5344e-05
0.000201785
4.79599e-05
0.000183269
8.53212e-05
0.000201785
4.79707e-05
3.96039e-05
4.95077e-05
3.95978e-05
4.95072e-05
3.96036e-05
4.95078e-05
3.95975e-05
4.95072e-05
8.53213e-05
0.000183265
0.000201787
4.79749e-05
0.000201786
4.79646e-05
8.53448e-05
8.53215e-05
0.000183269
0.000201788
4.79714e-05
0.000201786
4.7961e-05
8.53449e-05
3.95984e-05
4.95074e-05
4.95078e-05
3.96045e-05
3.95982e-05
4.95075e-05
4.95078e-05
3.96043e-05
2.48787e-05
2.48788e-05
2.48776e-05
2.48777e-05
0.00015502
3.65431e-05
3.65392e-05
3.65405e-05
3.65365e-05
2.4879e-05
2.48788e-05
2.48779e-05
2.48777e-05
2.48803e-05
2.48808e-05
2.48782e-05
2.48787e-05
3.65439e-05
3.65377e-05
0.000155208
3.65462e-05
3.65405e-05
2.48815e-05
2.48805e-05
2.48794e-05
2.48784e-05
0.000155026
3.65484e-05
3.65438e-05
3.6547e-05
3.65416e-05
3.96136e-05
4.95119e-05
3.96085e-05
4.95121e-05
8.53576e-05
4.79685e-05
0.000201793
0.000183256
8.53354e-05
4.7978e-05
0.000201792
8.53582e-05
4.79671e-05
0.000201792
0.000183251
8.53357e-05
4.79765e-05
0.000201791
3.96082e-05
4.95129e-05
4.95122e-05
3.96124e-05
3.96089e-05
4.95132e-05
4.95123e-05
3.96132e-05
8.5335e-05
0.000183257
4.79784e-05
0.00020179
4.79709e-05
0.000201791
8.53534e-05
8.53357e-05
0.00018325
4.79762e-05
0.000201789
4.7969e-05
0.00020179
8.53543e-05
3.65408e-05
3.65352e-05
0.000155211
3.65428e-05
3.65375e-05
2.48798e-05
2.48804e-05
2.48804e-05
2.48795e-05
0.000155028
3.65451e-05
3.65401e-05
3.65436e-05
3.65381e-05
2.4881e-05
2.48801e-05
8.53583e-05
4.79621e-05
0.000201791
0.000183272
8.53352e-05
4.79717e-05
0.000201792
3.96184e-05
4.95043e-05
3.96132e-05
4.95043e-05
8.53584e-05
0.000201785
4.79556e-05
0.000183241
8.53349e-05
0.000201785
4.79656e-05
3.96151e-05
4.95087e-05
4.95082e-05
3.96194e-05
8.53368e-05
0.000183274
4.79728e-05
0.000201794
4.79648e-05
0.000201794
8.53572e-05
3.96143e-05
4.95051e-05
4.95046e-05
3.96185e-05
8.53365e-05
0.000183242
0.000201786
4.79666e-05
0.000201786
4.79582e-05
8.53573e-05
3.96126e-05
4.95103e-05
3.96074e-05
4.95103e-05
8.53555e-05
0.000201792
4.79652e-05
0.000183252
8.53331e-05
0.000201792
4.79748e-05
3.96126e-05
4.95081e-05
3.96074e-05
4.95082e-05
8.53332e-05
0.000183272
4.79723e-05
0.000201791
4.79648e-05
0.000201791
8.53539e-05
3.96079e-05
4.95115e-05
4.95108e-05
3.96123e-05
8.53335e-05
0.000183253
0.000201791
4.79752e-05
0.000201792
4.79676e-05
8.53522e-05
3.96078e-05
4.95091e-05
4.95084e-05
3.96121e-05
3.65278e-05
3.65426e-05
0.000155199
3.65306e-05
3.65453e-05
2.48791e-05
2.48796e-05
2.48777e-05
2.48767e-05
0.000155016
3.65335e-05
3.65477e-05
3.65312e-05
3.65461e-05
2.48803e-05
2.48793e-05
8.53455e-05
0.00020179
4.79626e-05
0.00018327
8.53229e-05
0.000201789
4.79723e-05
3.96046e-05
4.95078e-05
3.9599e-05
4.95079e-05
3.96045e-05
4.95079e-05
3.95989e-05
4.9508e-05
8.53234e-05
0.000183264
0.000201786
4.79766e-05
0.000201786
4.79686e-05
8.53447e-05
8.53237e-05
0.00018327
0.000201787
4.79727e-05
0.000201788
4.7965e-05
8.53435e-05
3.95995e-05
4.95086e-05
4.9508e-05
3.96043e-05
3.95994e-05
4.9509e-05
4.95082e-05
3.96042e-05
2.48789e-05
2.48794e-05
2.48779e-05
2.48784e-05
0.000155019
3.65471e-05
3.65432e-05
3.65455e-05
3.65417e-05
2.48802e-05
2.48791e-05
2.48791e-05
2.48781e-05
2.48807e-05
2.48819e-05
2.48787e-05
2.48799e-05
3.65501e-05
3.65456e-05
0.000155204
3.65498e-05
3.65452e-05
2.48819e-05
2.48806e-05
2.48801e-05
2.48787e-05
0.00015502
3.6549e-05
3.65437e-05
3.65507e-05
3.65458e-05
3.96101e-05
4.95133e-05
3.96088e-05
4.95142e-05
8.53467e-05
4.79718e-05
0.000201789
0.00018325
8.53299e-05
4.7976e-05
0.000201788
8.53468e-05
4.79692e-05
0.000201788
0.000183243
8.53308e-05
4.79733e-05
0.000201787
3.96021e-05
4.95144e-05
4.95132e-05
3.96017e-05
3.96029e-05
4.95145e-05
4.95134e-05
3.96025e-05
8.53206e-05
0.000183248
4.79708e-05
0.000201782
4.79691e-05
0.000201786
8.53348e-05
8.53205e-05
0.00018324
4.79677e-05
0.000201781
4.79661e-05
0.000201785
8.53349e-05
3.65469e-05
3.65417e-05
0.000155202
3.65463e-05
3.6542e-05
2.48802e-05
2.48814e-05
2.48808e-05
2.48794e-05
0.000155014
3.65446e-05
3.6541e-05
3.6547e-05
3.65426e-05
2.48815e-05
2.48801e-05
8.5351e-05
4.79665e-05
0.000201795
0.000183272
8.53345e-05
4.79717e-05
0.000201794
3.96173e-05
4.95052e-05
3.9615e-05
4.95061e-05
8.53505e-05
0.000201785
4.79598e-05
0.000183238
8.53343e-05
0.000201783
4.79655e-05
3.96117e-05
4.95103e-05
4.95091e-05
3.96108e-05
8.53257e-05
0.000183269
4.79671e-05
0.000201789
4.79651e-05
0.000201793
8.53412e-05
3.96109e-05
4.95068e-05
4.95055e-05
3.961e-05
8.5325e-05
0.000183236
0.00020178
4.7961e-05
0.000201783
4.79584e-05
8.53412e-05
3.96094e-05
4.95116e-05
3.9608e-05
4.95125e-05
8.53449e-05
0.00020179
4.79685e-05
0.000183247
8.53289e-05
0.000201788
4.7973e-05
3.96091e-05
4.95091e-05
3.96077e-05
4.95102e-05
8.53193e-05
0.000183265
4.7964e-05
0.000201782
4.79621e-05
0.000201787
8.53334e-05
3.96021e-05
4.95128e-05
4.95118e-05
3.96017e-05
8.53191e-05
0.000183244
0.000201781
4.79678e-05
0.000201786
4.7966e-05
8.53331e-05
3.96019e-05
4.95107e-05
4.95095e-05
3.96015e-05
3.65351e-05
3.65494e-05
0.000155196
3.65357e-05
3.6549e-05
2.48796e-05
2.48808e-05
2.48784e-05
2.48771e-05
0.000155012
3.65352e-05
3.65484e-05
3.65363e-05
3.65498e-05
2.48809e-05
2.48795e-05
8.53362e-05
0.000201786
4.79659e-05
0.000183264
8.53208e-05
0.000201785
4.79704e-05
3.96021e-05
4.95086e-05
3.96004e-05
4.95096e-05
3.96013e-05
4.9509e-05
3.95994e-05
4.951e-05
8.53109e-05
0.000183258
0.00020178
4.79702e-05
0.000201783
4.79682e-05
8.53254e-05
8.53102e-05
0.000183261
0.000201779
4.79651e-05
0.000201783
4.79633e-05
8.53236e-05
3.95952e-05
4.95103e-05
4.95089e-05
3.95957e-05
3.95936e-05
4.95104e-05
4.95092e-05
3.95936e-05
2.48794e-05
2.48805e-05
2.48783e-05
2.48795e-05
0.00015501
3.65475e-05
3.65433e-05
3.65492e-05
3.65452e-05
2.48806e-05
2.48792e-05
2.48795e-05
2.48782e-05
2.48802e-05
2.48821e-05
2.48783e-05
2.48802e-05
3.65508e-05
3.65454e-05
0.000155169
3.65482e-05
3.65429e-05
2.48821e-05
2.488e-05
2.48801e-05
2.4878e-05
0.000154977
3.65446e-05
3.65398e-05
3.65513e-05
3.65462e-05
3.95943e-05
4.95129e-05
3.95939e-05
4.95149e-05
8.53125e-05
4.79658e-05
0.000201774
0.000183224
8.53071e-05
4.79656e-05
0.00020176
8.53124e-05
4.79624e-05
0.000201769
0.000183212
8.53072e-05
4.79622e-05
0.000201757
3.9587e-05
4.95159e-05
4.95127e-05
3.9589e-05
3.95877e-05
4.95159e-05
4.95128e-05
3.95897e-05
8.52863e-05
0.000183214
4.79628e-05
0.000201749
4.79646e-05
0.000201753
8.53032e-05
8.52863e-05
0.000183204
4.79599e-05
0.000201748
4.79611e-05
0.00020175
8.53036e-05
3.65462e-05
3.65424e-05
0.000155164
3.6543e-05
3.65402e-05
2.48798e-05
2.48818e-05
2.4881e-05
2.48788e-05
0.000154975
3.65394e-05
3.65388e-05
3.65461e-05
3.65436e-05
2.4882e-05
2.48797e-05
8.5326e-05
4.79622e-05
0.000201783
0.000183246
8.53154e-05
4.79618e-05
0.000201767
3.96012e-05
4.95053e-05
3.96017e-05
4.95074e-05
8.53261e-05
0.000201776
4.79555e-05
0.000183216
8.53152e-05
0.000201764
4.79558e-05
3.95959e-05
4.9512e-05
4.95088e-05
3.95969e-05
8.52997e-05
0.000183234
4.79584e-05
0.000201749
4.79608e-05
0.000201756
8.53045e-05
3.9595e-05
4.95085e-05
4.95053e-05
3.9596e-05
8.52994e-05
0.000183204
0.000201745
4.79524e-05
0.000201752
4.79542e-05
8.53043e-05
3.95935e-05
4.95113e-05
3.95932e-05
4.95132e-05
8.53111e-05
0.00020177
4.79626e-05
0.000183217
8.5306e-05
0.000201757
4.79625e-05
3.95933e-05
4.95092e-05
3.9593e-05
4.95111e-05
8.52858e-05
0.000183232
4.79563e-05