/*--------------------------------*- C++ -*----------------------------------*\
| =========                 |                                                 |
| \\      /  F ield         | OpenFOAM: The Open Source CFD Toolbox           |
|  \\    /   O peration     | Version:  2206                                  |
|   \\  /    A nd           | Website:  www.openfoam.com                      |
|    \\/     M anipulation  |                                                 |
\*---------------------------------------------------------------------------*/
FoamFile
{
    version     2.0;
    format      ascii;
    arch        "LSB;label=32;scalar=64";
    class       volScalarField;
    location    "33";
    object      p;
}
// * * * * * * * * * * * * * * * * * * * * * * * * * * * * * * * * * * * * * //

dimensions      [0 2 -2 0 0 0 0];

internalField   nonuniform List<scalar> 
28673
(
0.000492481
0.000494909
0.000451498
0.000451459
0.000451459
0.000453887
0.000410479
0.00041044
0.00041044
0.000412868
0.00036946
0.000369422
0.000369422
0.00037185
0.00032844
0.000328403
0.000328402
0.000330831
0.000287417
0.00028738
0.000287379
0.000289807
0.000246397
0.000246355
0.000246356
0.000248783
0.000205359
0.000205323
0.000205324
0.000207742
0.000164324
0.000164292
0.000164292
0.000166708
0.000123283
0.000123249
0.000123248
0.000125649
8.22443e-05
8.21985e-05
8.21971e-05
8.45701e-05
4.18888e-05
4.13363e-05
4.13334e-05
4.35721e-05
8.70298e-06
8.86543e-06
8.86267e-06
8.40939e-06
0.000502736
0.000500316
0.000502736
0.000459294
0.000492481
0.000492481
0.000461715
0.000461714
0.000494909
0.000459294
0.000461714
0.000461715
0.000492481
0.000461714
0.000461715
0.000459294
0.000492481
0.000461715
0.000461714
0.000459294
0.000453887
0.000418274
0.000451459
0.000451459
0.000420695
0.000420695
0.000453887
0.000418275
0.000451459
0.000451459
0.000420695
0.000420695
0.000451459
0.000420695
0.000420695
0.000453887
0.000418274
0.000451459
0.000420695
0.000420695
0.000418274
0.000412868
0.000377256
0.00041044
0.00041044
0.000379676
0.000379676
0.000412868
0.000377256
0.00041044
0.00041044
0.000379676
0.000379676
0.000410441
0.000379676
0.000379677
0.000412868
0.000377256
0.00041044
0.000379676
0.000379676
0.000377256
0.00037185
0.000336237
0.000369422
0.000369422
0.000338657
0.000338657
0.00037185
0.000336237
0.000369422
0.000369422
0.000338657
0.000338657
0.000369422
0.000338657
0.000338657
0.00037185
0.000336236
0.000369422
0.000338657
0.000338657
0.000336237
0.00033083
0.000295215
0.000328403
0.000328403
0.000297636
0.000297636
0.00033083
0.000295216
0.000328403
0.000328402
0.000297636
0.000297636
0.000328403
0.000297636
0.000297636
0.00033083
0.000295214
0.000328403
0.000297636
0.000297636
0.000295215
0.000289806
0.000254192
0.00028738
0.00028738
0.000256608
0.000256607
0.000289807
0.000254192
0.00028738
0.000287379
0.000256608
0.000256608
0.00028738
0.000256607
0.000256608
0.000289806
0.000254192
0.00028738
0.000256608
0.000256608
0.000254192
0.000248783
0.000213171
0.000246356
0.000246355
0.000215594
0.000215593
0.000248783
0.00021317
0.000246356
0.000246356
0.000215594
0.000215595
0.000246356
0.000215593
0.000215594
0.000248784
0.000213171
0.000246356
0.000215594
0.000215594
0.00021317
0.000207743
0.00017213
0.000205324
0.000205323
0.000174543
0.000174543
0.000207742
0.000172131
0.000205324
0.000205325
0.000174543
0.000174543
0.000205324
0.000174543
0.000174543
0.000207743
0.00017213
0.000205324
0.000174543
0.000174543
0.000172131
0.000166707
0.000131102
0.000164292
0.000164292
0.000133508
0.000133509
0.000166708
0.000131103
0.000164291
0.000164291
0.000133508
0.000133508
0.000164292
0.000133509
0.000133509
0.000166707
0.000131102
0.000164292
0.000133508
0.000133509
0.000131103
0.000125648
9.00643e-05
0.000123248
0.000123249
9.24702e-05
9.24707e-05
0.000125649
9.00651e-05
0.000123248
0.000123248
9.24699e-05
9.24695e-05
0.000123249
9.24703e-05
9.24697e-05
0.000125648
9.00635e-05
0.000123249
9.24693e-05
9.24693e-05
9.00637e-05
8.45713e-05
4.90567e-05
8.21986e-05
8.21989e-05
5.14699e-05
5.14706e-05
8.45712e-05
4.9058e-05
8.21978e-05
8.21972e-05
5.14679e-05
5.14676e-05
8.21977e-05
5.14691e-05
5.14667e-05
8.45706e-05
4.90546e-05
8.21972e-05
5.14667e-05
5.14655e-05
4.90533e-05
4.35763e-05
1.19339e-05
4.13379e-05
4.13383e-05
1.41044e-05
1.41045e-05
4.35771e-05
1.19346e-05
4.13358e-05
4.13349e-05
1.41026e-05
1.40992e-05
4.13333e-05
1.41019e-05
1.40972e-05
4.35737e-05
1.19296e-05
4.13322e-05
1.40995e-05
1.40987e-05
1.19283e-05
8.41327e-06
8.86587e-06
8.86677e-06
8.41515e-06
8.86443e-06
8.86195e-06
8.70306e-06
8.7008e-06
8.70017e-06
8.86079e-06
8.41046e-06
8.86158e-06
0.000479692
0.000495046
0.00049505
0.000479693
0.000495047
0.000479692
0.000479693
0.000479694
0.000492519
0.000492519
0.000461753
0.000461753
0.000461753
0.000461753
0.000479741
0.000495014
0.00049249
0.000482225
0.000495005
0.000479724
0.000482234
0.000479692
0.000479742
0.00049249
0.000482225
0.000495005
0.000482235
0.000479724
0.000495052
0.000495052
0.000479805
0.000479689
0.000479689
0.000438672
0.000454024
0.000454028
0.000438673
0.000454026
0.000438672
0.000438672
0.000454024
0.000454028
0.000438673
0.000451498
0.000451498
0.000451497
0.000420733
0.000420733
0.000420733
0.000420733
0.000438721
0.000453993
0.000451468
0.000441204
0.000453983
0.000438703
0.000441214
0.000454026
0.000438671
0.000438721
0.000451468
0.000453993
0.000441204
0.000453983
0.000441213
0.000438703
0.000454029
0.00045403
0.000438784
0.000438668
0.000438668
0.000397653
0.000413005
0.000413008
0.000397654
0.000413007
0.000397653
0.000397653
0.000413005
0.000413009
0.000397654
0.000410478
0.000410479
0.000410478
0.000379715
0.000379715
0.000379715
0.000379714
0.000397702
0.000412974
0.00041045
0.000400186
0.000412964
0.000397685
0.000400195
0.000413007
0.000397653
0.000397702
0.00041045
0.000412974
0.000400186
0.000412964
0.000400195
0.000397684
0.00041301
0.000413011
0.000397765
0.00039765
0.00039765
0.000356635
0.000371987
0.00037199
0.000356635
0.000371988
0.000356635
0.000356634
0.000371987
0.00037199
0.000356635
0.00036946
0.00036946
0.00036946
0.000338695
0.000338695
0.000338695
0.000338695
0.000356684
0.000371955
0.000369431
0.000359167
0.000371946
0.000356666
0.000359176
0.000371988
0.000356634
0.000356683
0.000369431
0.000371955
0.000359167
0.000371945
0.000359176
0.000356666
0.000371992
0.000371992
0.000356746
0.000356631
0.000356631
0.000315615
0.000330967
0.00033097
0.000315613
0.000330969
0.000315613
0.000315614
0.000330967
0.00033097
0.000315613
0.00032844
0.00032844
0.00032844
0.000297672
0.000297672
0.000297672
0.000297672
0.000315664
0.000330935
0.000328412
0.000318147
0.000330926
0.000315646
0.000318156
0.000330969
0.000315611
0.000315663
0.000328412
0.000330935
0.000318147
0.000330925
0.000318156
0.000315645
0.000330973
0.000330973
0.000315726
0.00031561
0.00031561
0.000274599
0.000289944
0.000289946
0.000274597
0.00028995
0.000274591
0.000274597
0.000289944
0.000289945
0.000274596
0.000287417
0.000287417
0.000287417
0.000256649
0.000256649
0.000256649
0.000256649
0.000274647
0.000289908
0.000287389
0.000277122
0.0002899
0.000274633
0.00027713
0.000289949
0.000274588
0.000274646
0.000287389
0.000289908
0.000277121
0.0002899
0.00027713
0.000274631
0.000289949
0.000289949
0.000274703
0.000274593
0.000274593
0.000233573
0.000248917
0.000248908
0.00023357
0.000248917
0.000233565
0.000233573
0.000248917
0.000248907
0.000233569
0.000246396
0.000246397
0.000246396
0.000215618
0.000215617
0.000215619
0.000215618
0.000233609
0.000248884
0.000246365
0.000236108
0.000248877
0.0002336
0.000236115
0.000248919
0.000233568
0.000233609
0.000246365
0.000248884
0.000236108
0.000248877
0.000236116
0.000233602
0.000248919
0.000248919
0.000233685
0.000233567
0.000233566
0.000192554
0.000207902
0.000207919
0.000192519
0.00020791
0.000192504
0.000192554
0.000207903
0.000207921
0.00019252
0.000205358
0.000205359
0.000205358
0.000174577
0.000174577
0.000174577
0.000174577
0.000192599
0.000207857
0.000205328
0.000195058
0.000207847
0.000192575
0.000195061
0.000207912
0.0001925
0.000192599
0.000205329
0.00020786
0.000195059
0.000207847
0.000195061
0.000192576
0.000207901
0.000207901
0.000192643
0.000192527
0.000192527
0.000151498
0.000166841
0.00016686
0.000151483
0.000166879
0.000151443
0.000151497
0.000166841
0.000166859
0.000151483
0.000164324
0.000164324
0.000164324
0.000133533
0.000133533
0.000133533
0.000133533
0.000151553
0.000166797
0.000164302
0.000154037
0.000166819
0.000151536
0.000154033
0.000166878
0.000151442
0.000151552
0.000164301
0.000166796
0.000154037
0.000166818
0.000154033
0.000151535
0.000166834
0.000166834
0.000151616
0.000151501
0.000151501
0.000110457
0.000125803
0.00012582
0.000110451
0.000125871
0.00011037
0.000110456
0.000125803
0.000125819
0.00011045
0.000123283
0.000123283
0.000123283
9.24772e-05
9.24767e-05
9.24765e-05
9.24765e-05
0.00011051
0.000125742
0.000123261
0.000112998
0.000125774
0.000110513
0.000112992
0.00012587
0.000110369
0.000110509
0.000123261
0.000125742
0.000112997
0.000125773
0.000112991
0.000110512
0.000125786
0.000125787
0.000110581
0.000110475
0.000110474
6.9353e-05
8.47295e-05
8.47533e-05
6.93654e-05
8.48854e-05
6.91538e-05
6.93511e-05
8.47287e-05
8.4752e-05
6.93637e-05
8.22435e-05
8.22432e-05
8.22431e-05
5.17084e-05
5.17093e-05
5.17065e-05
5.17062e-05
6.94096e-05
8.46605e-05
8.222e-05
7.19476e-05
8.4711e-05
6.9437e-05
7.1958e-05
8.48807e-05
6.91567e-05
6.94086e-05
8.2219e-05
8.46597e-05
7.1946e-05
8.47103e-05
7.19569e-05
6.94346e-05
8.47002e-05
8.46999e-05
6.95303e-05
6.93921e-05
6.9392e-05
2.74446e-05
4.31888e-05
4.33393e-05
2.67742e-05
4.36307e-05
2.61241e-05
2.74311e-05
4.31806e-05
4.33331e-05
2.67663e-05
4.18894e-05
4.18862e-05
4.18856e-05
1.55345e-05
1.55341e-05
1.55311e-05
1.55305e-05
2.80679e-05
4.32013e-05
4.15967e-05
3.15236e-05
4.34742e-05
2.72987e-05
3.19139e-05
4.36159e-05
2.61309e-05
2.80682e-05
4.15941e-05
4.31999e-05
3.15207e-05
4.34743e-05
3.19115e-05
2.73005e-05
4.3128e-05
4.31275e-05
2.90195e-05
2.69935e-05
2.6991e-05
4.89717e-06
5.55102e-06
5.77934e-06
-3.90685e-08
2.43495e-06
-4.22491e-06
4.91476e-06
5.53196e-06
5.76543e-06
-1.92404e-08
2.50198e-06
9.15507e-06
9.15338e-06
2.74751e-06
9.45436e-06
2.50612e-06
2.50548e-06
4.34405e-06
6.13256e-06
8.50679e-06
2.81102e-06
7.48099e-06
4.31563e-06
2.58465e-06
2.40378e-06
-4.22183e-06
4.34937e-06
8.50599e-06
6.12671e-06
2.80918e-06
7.48133e-06
2.58499e-06
4.32402e-06
2.31966e-06
2.31653e-06
2.6431e-06
2.57538e-06
2.59058e-06
0.000500205
0.000500235
0.000500203
0.0005002
0.000500201
0.000500203
0.000500235
0.000500205
0.000495047
0.000479692
0.000479692
0.000495052
0.000479805
0.000479689
0.000479689
0.000459181
0.000474536
0.000459182
0.000474536
0.000474398
0.000459178
0.000459178
0.00047454
0.00047454
0.000479692
0.000495046
0.00049505
0.000479693
0.000479741
0.000495014
0.00049249
0.000482225
0.000495005
0.000479724
0.000482234
0.000479741
0.000495014
0.00049249
0.000482225
0.000495005
0.000479723
0.000482235
0.000474538
0.000459182
0.000474534
0.000459181
0.000474538
0.000459182
0.000474534
0.000459182
0.000474494
0.00047197
0.000459213
0.000461724
0.000474503
0.000471979
0.000459231
0.000474493
0.00047197
0.000459213
0.000461724
0.000474503
0.000471979
0.000459231
0.000495051
0.000495051
0.000479804
0.000479689
0.000479689
0.000495047
0.000479692
0.000459182
0.000474536
0.000474398
0.000459178
0.000459178
0.00047454
0.00047454
0.000459181
0.000474536
0.000479742
0.000482225
0.000479724
0.000482235
0.000479693
0.000479694
0.000479742
0.000482226
0.000482235
0.000479724
0.000474539
0.000459182
0.000474535
0.000459181
0.000474494
0.00047197
0.000459213
0.000461724
0.000474503
0.000471979
0.000459231
0.000474539
0.000459182
0.000474535
0.000459181
0.000474494
0.00047197
0.000461724
0.000459213
0.000471979
0.000474504
0.00045923
0.000479692
0.000495046
0.00049505
0.000479693
0.000479741
0.00049249
0.000495014
0.000482226
0.000495005
0.000482235
0.000479724
0.000479692
0.000495046
0.00049505
0.000479693
0.000474493
0.00047197
0.000459213
0.000461724
0.000474503
0.000471979
0.000459231
0.000474538
0.000459183
0.000474534
0.000459182
0.000474493
0.00047197
0.000461724
0.000459213
0.000471979
0.000474503
0.000459231
0.000474538
0.000459182
0.000474534
0.000459181
0.000479805
0.00047969
0.00047969
0.000479692
0.000459181
0.000474536
0.000474398
0.000459178
0.000459178
0.00047454
0.000474541
0.000459182
0.000474536
0.000479742
0.00049249
0.000495014
0.000482225
0.000495005
0.000482235
0.000479724
0.000479693
0.00049505
0.000479694
0.000479693
0.000495046
0.00049505
0.000479693
0.000474493
0.00047197
0.000461724
0.000459213
0.000471979
0.000474504
0.000459231
0.000474493
0.00047197
0.000461724
0.000459213
0.000471979
0.000474503
0.000459231
0.000474538
0.000459183
0.000474535
0.000459182
0.000474538
0.000459182
0.000474535
0.000459182
0.000495047
0.000479692
0.000495047
0.000479692
0.000474398
0.000459178
0.000459178
0.00047454
0.00047454
0.000459181
0.000474536
0.000459181
0.000474536
0.000454025
0.000438672
0.000454025
0.000438672
0.000454029
0.000454029
0.000438784
0.000438668
0.000438668
0.000418162
0.000433516
0.000418162
0.000433516
0.000433378
0.000418159
0.000418159
0.00043352
0.00043352
0.000438672
0.000454024
0.000454028
0.000438673
0.000438721
0.000453993
0.000451468
0.000441204
0.000453983
0.000438703
0.000441213
0.000438721
0.000453993
0.000451469
0.000441204
0.000453983
0.000438703
0.000441214
0.000433518
0.000418163
0.000433514
0.000418162
0.000433518
0.000418163
0.000433514
0.000418162
0.000433473
0.00043095
0.000418193
0.000420704
0.000433483
0.000430959
0.000418211
0.000433473
0.00043095
0.000418193
0.000420704
0.000433483
0.000430959
0.000418211
0.000454029
0.000454029
0.000438784
0.000438668
0.000438668
0.000454026
0.000438671
0.000418162
0.000433516
0.000433377
0.000418159
0.000418159
0.00043352
0.00043352
0.000418162
0.000433516
0.000438721
0.000453992
0.000451468
0.000441204
0.000453983
0.000438703
0.000441213
0.000438672
0.000454024
0.000454028
0.000438673
0.000438721
0.000451469
0.000453992
0.000441204
0.000453983
0.000441213
0.000438703
0.000433518
0.000418163
0.000433514
0.000418162
0.000433473
0.000430949
0.000418194
0.000420704
0.000433483
0.000430959
0.000418211
0.000433518
0.000418163
0.000433514
0.000418162
0.000433473
0.000430949
0.000420704
0.000418194
0.000430959
0.000433483
0.000418211
0.000438672
0.000454024
0.000454028
0.000438673
0.000438721
0.000451469
0.000453993
0.000441204
0.000453983
0.000441214
0.000438703
0.000438672
0.000454024
0.000454028
0.000438673
0.000433473
0.00043095
0.000418194
0.000420704
0.000433483
0.000430959
0.000418211
0.000433518
0.000418163
0.000433514
0.000418162
0.000433473
0.00043095
0.000420704
0.000418193
0.000430959
0.000433483
0.000418211
0.000433518
0.000418163
0.000433514
0.000418162
0.000454029
0.000454029
0.000438784
0.000438668
0.000438668
0.000454025
0.000438672
0.000418162
0.000433516
0.000433377
0.000418159
0.000418159
0.00043352
0.00043352
0.000418162
0.000433516
0.000438721
0.000451468
0.000453993
0.000441204
0.000453983
0.000441214
0.000438703
0.000438672
0.000454024
0.000454027
0.000438673
0.000438672
0.000454024
0.000454027
0.000438673
0.000433473
0.00043095
0.000420704
0.000418193
0.000430959
0.000433483
0.000418211
0.000433473
0.00043095
0.000420704
0.000418193
0.000430959
0.000433483
0.000418211
0.000433518
0.000418163
0.000433514
0.000418162
0.000433518
0.000418163
0.000433514
0.000418162
0.000454025
0.000438672
0.000454026
0.000438672
0.000433378
0.000418159
0.000418159
0.00043352
0.00043352
0.000418162
0.000433516
0.000418162
0.000433516
0.000413006
0.000397653
0.000413006
0.000397653
0.00041301
0.00041301
0.000397765
0.00039765
0.00039765
0.000377144
0.000392497
0.000377144
0.000392498
0.000392359
0.000377141
0.00037714
0.000392501
0.000392502
0.000397653
0.000413005
0.000413008
0.000397654
0.000397702
0.000412974
0.000410449
0.000400186
0.000412964
0.000397685
0.000400195
0.000397702
0.000412974
0.00041045
0.000400186
0.000412964
0.000397684
0.000400195
0.0003925
0.000377145
0.000392496
0.000377144
0.0003925
0.000377145
0.000392496
0.000377144
0.000392455
0.000389931
0.000377175
0.000379686
0.000392465
0.00038994
0.000377193
0.000392455
0.000389931
0.000377175
0.000379686
0.000392464
0.00038994
0.000377193
0.000413011
0.00041301
0.000397765
0.00039765
0.00039765
0.000413007
0.000397653
0.000377144
0.000392497
0.000392359
0.000377141
0.000377141
0.000392501
0.000392501
0.000377144
0.000392498
0.000397702
0.000412973
0.000410449
0.000400186
0.000412964
0.000397684
0.000400195
0.000397653
0.000413005
0.000413008
0.000397654
0.000397702
0.000410449
0.000412973
0.000400186
0.000412964
0.000400195
0.000397684
0.0003925
0.000377145
0.000392496
0.000377144
0.000392455
0.000389931
0.000377175
0.000379685
0.000392464
0.00038994
0.000377193
0.0003925
0.000377145
0.000392496
0.000377144
0.000392455
0.000389931
0.000379685
0.000377175
0.00038994
0.000392464
0.000377193
0.000397653
0.000413005
0.000413008
0.000397654
0.000397702
0.00041045
0.000412974
0.000400186
0.000412964
0.000400195
0.000397684
0.000397653
0.000413005
0.000413008
0.000397654
0.000392455
0.000389931
0.000377176
0.000379686
0.000392464
0.00038994
0.000377193
0.0003925
0.000377145
0.000392496
0.000377144
0.000392455
0.000389931
0.000379686
0.000377175
0.00038994
0.000392465
0.000377193
0.0003925
0.000377145
0.000392496
0.000377144
0.00041301
0.00041301
0.000397765
0.00039765
0.00039765
0.000413006
0.000397653
0.000377144
0.000392498
0.000392359
0.000377141
0.00037714
0.000392501
0.000392502
0.000377144
0.000392498
0.000397702
0.00041045
0.000412974
0.000400186
0.000412964
0.000400195
0.000397685
0.000397653
0.000413005
0.000413008
0.000397654
0.000397653
0.000413005
0.000413008
0.000397654
0.000392455
0.000389931
0.000379685
0.000377175
0.00038994
0.000392465
0.000377193
0.000392455
0.000389931
0.000379686
0.000377175
0.00038994
0.000392465
0.000377193
0.000392499
0.000377145
0.000392496
0.000377144
0.000392499
0.000377145
0.000392496
0.000377144
0.000413006
0.000397653
0.000413007
0.000397653
0.000392359
0.000377141
0.000377141
0.000392501
0.000392502
0.000377144
0.000392497
0.000377144
0.000392498
0.000371988
0.000356634
0.000371988
0.000356634
0.000371992
0.000371992
0.000356746
0.000356631
0.000356631
0.000336124
0.000351478
0.000336124
0.000351478
0.00035134
0.000336121
0.000336121
0.000351483
0.000351482
0.000356635
0.000371987
0.00037199
0.000356636
0.000356684
0.000371955
0.000369431
0.000359167
0.000371946
0.000356666
0.000359176
0.000356684
0.000371955
0.000369431
0.000359167
0.000371946
0.000356666
0.000359176
0.00035148
0.000336125
0.000351477
0.000336125
0.00035148
0.000336125
0.000351477
0.000336125
0.000351436
0.000348912
0.000336156
0.000338666
0.000351446
0.000348921
0.000336174
0.000351436
0.000348912
0.000336156
0.000338666
0.000351446
0.000348922
0.000336174
0.000371992
0.000371992
0.000356747
0.000356631
0.000356632
0.000371989
0.000356634
0.000336124
0.000351479
0.00035134
0.000336121
0.000336121
0.000351483
0.000351483
0.000336124
0.000351479
0.000356683
0.000371955
0.000369431
0.000359167
0.000371945
0.000356666
0.000359176
0.000356634
0.000371987
0.00037199
0.000356635
0.000356683
0.000369431
0.000371955
0.000359167
0.000371945
0.000359176
0.000356666
0.00035148
0.000336125
0.000351477
0.000336125
0.000351436
0.000348912
0.000336156
0.000338666
0.000351445
0.000348921
0.000336174
0.00035148
0.000336125
0.000351477
0.000336125
0.000351436
0.000348912
0.000338666
0.000336156
0.000348921
0.000351445
0.000336173
0.000356635
0.000371987
0.00037199
0.000356636
0.000356684
0.000369431
0.000371955
0.000359167
0.000371946
0.000359176
0.000356666
0.000356635
0.000371987
0.00037199
0.000356635
0.000351436
0.000348912
0.000336156
0.000338666
0.000351446
0.000348921
0.000336174
0.00035148
0.000336125
0.000351477
0.000336125
0.000351436
0.000348913
0.000338666
0.000336156
0.000348922
0.000351446
0.000336174
0.00035148
0.000336125
0.000351477
0.000336125
0.000371992
0.000371992
0.000356746
0.000356631
0.000356631
0.000371988
0.000356634
0.000336124
0.000351478
0.00035134
0.000336121
0.000336121
0.000351482
0.000351482
0.000336124
0.000351478
0.000356684
0.000369431
0.000371955
0.000359167
0.000371945
0.000359176
0.000356666
0.000356635
0.000371987
0.00037199
0.000356636
0.000356635
0.000371987
0.00037199
0.000356635
0.000351436
0.000348912
0.000338666
0.000336156
0.000348921
0.000351446
0.000336174
0.000351436
0.000348912
0.000338666
0.000336156
0.000348921
0.000351446
0.000336174
0.00035148
0.000336125
0.000351477
0.000336125
0.00035148
0.000336125
0.000351477
0.000336125
0.000371988
0.000356634
0.000371988
0.000356634
0.00035134
0.000336121
0.000336121
0.000351483
0.000351483
0.000336124
0.000351479
0.000336124
0.000351479
0.000330969
0.000315612
0.000330969
0.000315612
0.000330972
0.000330972
0.000315726
0.00031561
0.00031561
0.000295098
0.00031046
0.000295098
0.000310459
0.000310319
0.000295098
0.000295098
0.000310462
0.000310462
0.000315615
0.000330967
0.00033097
0.000315614
0.000315664
0.000330935
0.000328412
0.000318147
0.000330926
0.000315645
0.000318156
0.000315664
0.000330935
0.000328412
0.000318147
0.000330926
0.000315646
0.000318156
0.000310459
0.000295102
0.000310458
0.000295103
0.000310459
0.000295102
0.000310458
0.000295103
0.000310414
0.000307893
0.000295136
0.000297645
0.000310424
0.000307901
0.000295153
0.000310414
0.000307893
0.000295137
0.000297645
0.000310424
0.000307902
0.000295153
0.000330973
0.000330972
0.000315727
0.00031561
0.00031561
0.000330969
0.000315612
0.000295098
0.00031046
0.000310319
0.000295098
0.000295099
0.000310462
0.000310462
0.000295098
0.00031046
0.000315663
0.000330935
0.000328411
0.000318147
0.000330925
0.000315645
0.000318156
0.000315614
0.000330967
0.00033097
0.000315613
0.000315663
0.000328411
0.000330935
0.000318147
0.000330925
0.000318156
0.000315645
0.000310459
0.000295102
0.000310457
0.000295103
0.000310414
0.000307892
0.000295136
0.000297644
0.000310424
0.000307901
0.000295153
0.000310458
0.000295102
0.000310457
0.000295103
0.000310414
0.000307892
0.000297644
0.000295136
0.000307901
0.000310423
0.000295153
0.000315615
0.000330967
0.00033097
0.000315614
0.000315664
0.000328412
0.000330935
0.000318147
0.000330926
0.000318156
0.000315646
0.000315615
0.000330967
0.00033097
0.000315613
0.000310414
0.000307893
0.000295137
0.000297645
0.000310424
0.000307902
0.000295153
0.000310459
0.000295102
0.000310458
0.000295103
0.000310414
0.000307893
0.000297645
0.000295136
0.000307902
0.000310424
0.000295153
0.000310459
0.000295102
0.000310458
0.000295103
0.000330972
0.000330973
0.000315726
0.000315609
0.000315609
0.000330969
0.000315612
0.000295098
0.000310459
0.00031032
0.000295098
0.000295098
0.000310462
0.000310462
0.000295098
0.000310459
0.000315664
0.000328412
0.000330935
0.000318147
0.000330925
0.000318156
0.000315646
0.000315615
0.000330967
0.00033097
0.000315613
0.000315615
0.000330967
0.000330969
0.000315613
0.000310414
0.000307892
0.000297644
0.000295136
0.000307901
0.000310424
0.000295153
0.000310414
0.000307893
0.000297645
0.000295136
0.000307901
0.000310424
0.000295153
0.000310458
0.000295102
0.000310457
0.000295103
0.000310458
0.000295102
0.000310458
0.000295103
0.000330969
0.000315612
0.000330969
0.000315612
0.00031032
0.000295098
0.000295098
0.000310462
0.000310462
0.000295098
0.00031046
0.000295098
0.00031046
0.000289949
0.00027459
0.000289949
0.000274589
0.000289949
0.000289949
0.000274703
0.000274593
0.000274593
0.000254089
0.000269432
0.000254089
0.000269432
0.000269291
0.000254092
0.000254092
0.000269431
0.000269431
0.000274598
0.000289945
0.000289946
0.000274598
0.000274647
0.000289908
0.000287389
0.000277121
0.0002899
0.000274632
0.00027713
0.000274647
0.000289909
0.000287389
0.000277122
0.0002899
0.000274633
0.00027713
0.000269428
0.000254092
0.000269426
0.000254102
0.000269428
0.000254092
0.000269427
0.000254102
0.000269383
0.000266864
0.000254124
0.000256616
0.00026939
0.000266873
0.000254138
0.000269383
0.000266864
0.000254124
0.000256616
0.000269391
0.000266873
0.000254138
0.00028995
0.00028995
0.000274703
0.000274594
0.000274595
0.00028995
0.000274591
0.000254089
0.000269434
0.000269291
0.000254093
0.000254092
0.000269432
0.000269432
0.000254089
0.000269434
0.000274646
0.000289907
0.000287389
0.000277121
0.000289899
0.000274632
0.000277129
0.000274597
0.000289944
0.000289945
0.000274595
0.000274646
0.000287389
0.000289907
0.000277121
0.000289899
0.000277129
0.000274631
0.000269427
0.000254092
0.000269425
0.000254102
0.000269383
0.000266864
0.000254124
0.000256616
0.00026939
0.000266873
0.000254138
0.000269427
0.000254092
0.000269425
0.000254102
0.000269383
0.000266863
0.000256616
0.000254124
0.000266873
0.000269389
0.000254138
0.000274598
0.000289945
0.000289946
0.000274598
0.000274647
0.000287389
0.000289908
0.000277122
0.0002899
0.00027713
0.000274632
0.000274598
0.000289944
0.000289946
0.000274597
0.000269383
0.000266864
0.000254124
0.000256616
0.000269391
0.000266873
0.000254138
0.000269427
0.000254092
0.000269427
0.000254102
0.000269383
0.000266864
0.000256616
0.000254124
0.000266873
0.00026939
0.000254138
0.000269427
0.000254092
0.000269426
0.000254101
0.000289949
0.000289949
0.000274702
0.000274592
0.000274592
0.000289949
0.000274589
0.000254089
0.000269431
0.000269291
0.000254092
0.000254092
0.00026943
0.00026943
0.000254089
0.000269431
0.000274646
0.000287389
0.000289908
0.000277121
0.0002899
0.00027713
0.000274632
0.000274598
0.000289944
0.000289945
0.000274595
0.000274598
0.000289944
0.000289945
0.000274597
0.000269383
0.000266863
0.000256616
0.000254124
0.000266873
0.000269389
0.000254138
0.000269383
0.000266864
0.000256616
0.000254124
0.000266873
0.00026939
0.000254138
0.000269427
0.000254092
0.000269425
0.000254102
0.000269427
0.000254092
0.000269426
0.000254102
0.000289949
0.00027459
0.000289949
0.00027459
0.000269291
0.000254093
0.000254093
0.000269431
0.000269431
0.000254089
0.000269433
0.000254089
0.000269433
0.000248918
0.000233567
0.000248919
0.000233568
0.000248919
0.000248918
0.000233685
0.000233567
0.000233567
0.000213029
0.000228424
0.00021303
0.000228425
0.000228276
0.000213037
0.000213038
0.000228425
0.000228426
0.000233573
0.000248916
0.000248908
0.000233568
0.000233609
0.000248884
0.000246365
0.000236108
0.000248877
0.000233601
0.000236116
0.000233609
0.000248884
0.000246365
0.000236108
0.000248877
0.0002336
0.000236116
0.000228431
0.000213038
0.000228419
0.000213013
0.000228431
0.000213036
0.000228417
0.000213013
0.000228387
0.000225854
0.000213078
0.0002156
0.000228388
0.000225863
0.000213087
0.000228387
0.000225853
0.000213077
0.0002156
0.000228386
0.000225863
0.000213086
0.000248918
0.000248918
0.000233685
0.000233566
0.000233566
0.000248918
0.000233565
0.000213028
0.000228423
0.000228275
0.000213036
0.000213036
0.000228423
0.000228423
0.000213028
0.000228423
0.000233609
0.000248884
0.000246365
0.000236108
0.000248877
0.0002336
0.000236116
0.000233573
0.000248917
0.000248907
0.00023357
0.000233609
0.000246365
0.000248884
0.000236108
0.000248877
0.000236116
0.000233601
0.000228432
0.000213038
0.000228419
0.000213016
0.000228388
0.000225853
0.000213079
0.0002156
0.000228387
0.000225863
0.000213089
0.000228432
0.000213039
0.000228419
0.000213016
0.000228388
0.000225853
0.0002156
0.00021308
0.000225863
0.000228387
0.000213088
0.000233573
0.000248916
0.000248907
0.000233568
0.000233609
0.000246365
0.000248884
0.000236108
0.000248877
0.000236116
0.000233601
0.000233573
0.000248917
0.000248907
0.000233569
0.000228387
0.000225853
0.000213077
0.000215599
0.000228386
0.000225863
0.000213087
0.000228431
0.000213037
0.000228417
0.000213013
0.000228387
0.000225854
0.0002156
0.000213078
0.000225863
0.000228387
0.000213087
0.000228431
0.000213037
0.000228418
0.000213013
0.000248918
0.000248919
0.000233685
0.000233568
0.000233568
0.000248918
0.000233568
0.000213031
0.000228426
0.000228276
0.000213039
0.000213038
0.000228427
0.000228426
0.00021303
0.000228426
0.000233609
0.000246365
0.000248884
0.000236108
0.000248877
0.000236116
0.000233601
0.000233573
0.000248917
0.000248908
0.000233571
0.000233574
0.000248917
0.000248908
0.000233569
0.000228388
0.000225854
0.0002156
0.00021308
0.000225863
0.000228388
0.000213087
0.000228388
0.000225853
0.0002156
0.000213078
0.000225863
0.000228387
0.000213087
0.000228431
0.000213039
0.00022842
0.000213014
0.000228431
0.000213037
0.000228418
0.000213014
0.000248918
0.000233567
0.000248918
0.000233567
0.000228276
0.000213037
0.000213037
0.000228425
0.000228425
0.000213029
0.000228424
0.000213029
0.000228424
0.00020791
0.000192504
0.000207911
0.000192504
0.000207901
0.000207903
0.000192643
0.000192529
0.000192528
0.000171987
0.000187388
0.000171986
0.000187388
0.000187216
0.000172027
0.000172027
0.00018736
0.000187361
0.000192554
0.000207901
0.000207918
0.00019252
0.000192599
0.000207859
0.000205328
0.000195059
0.000207847
0.000192575
0.000195061
0.000192599
0.000207857
0.000205328
0.000195058
0.000207847
0.000192577
0.000195061
0.000187331
0.000172022
0.000187366
0.000172016
0.000187331
0.000172022
0.000187366
0.000172016
0.0001873
0.000184795
0.000172069
0.000174555
0.00018731
0.000184808
0.000172054
0.0001873
0.000184795
0.000172069
0.000174556
0.00018731
0.000184808
0.000172054
0.000207901
0.0002079
0.000192643
0.000192527
0.00019253
0.00020791
0.000192502
0.000171987
0.000187388
0.000187216
0.000172028
0.000172028
0.000187361
0.00018736
0.000171986
0.000187388
0.0001926
0.00020786
0.000205329
0.000195059
0.000207849
0.000192578
0.000195062
0.000192554
0.000207903
0.000207921
0.00019252
0.0001926
0.000205329
0.000207861
0.000195059
0.000207849
0.000195062
0.00019258
0.000187331
0.000172021
0.000187366
0.000172016
0.0001873
0.000184795
0.000172069
0.000174555
0.000187311
0.000184808
0.000172054
0.000187332
0.000172021
0.000187366
0.000172016
0.0001873
0.000184795
0.000174555
0.000172068
0.000184808
0.000187311
0.000172054
0.000192553
0.000207901
0.000207918
0.000192519
0.000192599
0.000205328
0.000207858
0.000195059
0.000207847
0.000195061
0.000192577
0.000192553
0.000207901
0.000207918
0.000192519
0.0001873
0.000184795
0.000172069