/*--------------------------------*- C++ -*----------------------------------*\
| =========                 |                                                 |
| \\      /  F ield         | OpenFOAM: The Open Source CFD Toolbox           |
|  \\    /   O peration     | Version:  2206                                  |
|   \\  /    A nd           | Website:  www.openfoam.com                      |
|    \\/     M anipulation  |                                                 |
\*---------------------------------------------------------------------------*/
FoamFile
{
    version     2.0;
    format      ascii;
    arch        "LSB;label=32;scalar=64";
    class       volScalarField;
    location    "23.5";
    object      nut;
}
// * * * * * * * * * * * * * * * * * * * * * * * * * * * * * * * * * * * * * //

dimensions      [0 2 -1 0 0 0 0];

internalField   nonuniform List<scalar> 
28897
(
0.000223558
0.000201958
0.000201949
0.000178513
0.000223558
0.000201958
0.000201948
0.000178511
0.000223556
0.000201955
0.000201947
0.00017851
0.000223557
0.000201954
0.000201946
0.000178509
0.000223554
0.000201949
0.000201939
0.000178496
0.000223527
0.000201905
0.000201895
0.000178433
0.000223536
0.000201904
0.000201898
0.000178445
0.000223536
0.000201905
0.000201898
0.000178436
0.000223537
0.000201905
0.000201899
0.00017844
0.000223537
0.000201905
0.000201899
0.000178438
0.000223537
0.000201905
0.000201899
0.000178438
0.000223537
0.000201906
0.000201899
0.000178438
0.000223537
0.000201906
0.000201898
0.000178439
0.000223537
0.000201906
0.000201898
0.000178439
0.000223537
0.000201906
0.000201898
0.000178439
0.000223537
0.000201906
0.000201899
0.000178439
0.000223537
0.000201906
0.000201899
0.000178438
0.000223537
0.000201906
0.000201899
0.000178439
0.000178678
0.000201941
0.000201939
0.000178683
0.000201954
0.000201931
0.000201959
0.000201941
0.00017867
0.00020195
0.000201953
0.000178675
0.000178517
0.000178675
0.000201942
0.00020194
0.000201942
0.000201939
0.000178521
0.000178678
0.000201955
0.000201932
0.000201955
0.000201931
0.000201942
0.000201959
0.000201941
0.00017851
0.000178667
0.000201954
0.000201948
0.000201953
0.000178673
0.000178515
0.000178673
0.000201941
0.000201939
0.000201939
0.000201939
0.000178518
0.000178678
0.000201954
0.000201931
0.000201952
0.00020193
0.000201941
0.000201955
0.000201941
0.000178508
0.000178666
0.000201952
0.000201947
0.000201952
0.000178672
0.000178513
0.000178672
0.000201937
0.000201939
0.000201937
0.000201939
0.000178518
0.000178677
0.00020195
0.000201931
0.000201951
0.000201927
0.000201942
0.000201955
0.000201942
0.000178506
0.000178664
0.000201951
0.000201946
0.000201949
0.00017867
0.000178513
0.000178666
0.000201938
0.000201937
0.000201936
0.000201933
0.000178517
0.000178674
0.000201953
0.000201926
0.000201949
0.000201924
0.000201941
0.000201951
0.000201936
0.000178505
0.000178658
0.000201949
0.000201943
0.000201947
0.000178664
0.000178502
0.000178608
0.000201932
0.00020193
0.000201891
0.000201894
0.000178511
0.000178622
0.000201945
0.000201921
0.000201905
0.000201881
0.000201932
0.000201915
0.000201893
0.000178494
0.0001786
0.000201943
0.000201901
0.000201903
0.000178605
0.000178439
0.000178608
0.000201886
0.000201886
0.000201888
0.000201885
0.000178449
0.000178611
0.000201899
0.000201875
0.000201901
0.000201877
0.000201886
0.000201903
0.000201887
0.000178431
0.000178601
0.000201897
0.000201897
0.000201899
0.000178606
0.000178448
0.000178602
0.000201889
0.000201886
0.000201889
0.000201886
0.000178452
0.000178607
0.000201902
0.000201878
0.000201902
0.000201878
0.000201888
0.000201905
0.000201888
0.000178441
0.000178594
0.0002019
0.000201898
0.0002019
0.000178598
0.000178441
0.000178604
0.000201889
0.000201886
0.00020189
0.000201887
0.000178446
0.000178607
0.000201902
0.000201879
0.000201903
0.000201879
0.000201889
0.000201905
0.000201889
0.000178434
0.000178597
0.000201901
0.000201899
0.000201901
0.000178601
0.000178445
0.000178602
0.00020189
0.000201887
0.00020189
0.000201887
0.000178447
0.000178607
0.000201903
0.00020188
0.000201903
0.000201879
0.00020189
0.000201906
0.000201889
0.000178438
0.000178595
0.000201902
0.000201899
0.000201901
0.000178599
0.000178442
0.000178604
0.00020189
0.000201887
0.00020189
0.000201887
0.000178446
0.000178608
0.000201903
0.00020188
0.000201903
0.000201879
0.000201889
0.000201906
0.000201889
0.000178435
0.000178596
0.000201902
0.000201899
0.000201901
0.0001786
0.000178444
0.000178603
0.00020189
0.000201888
0.00020189
0.000201887
0.000178448
0.000178607
0.000201903
0.00020188
0.000201903
0.000201879
0.000201889
0.000201906
0.000201889
0.000178437
0.000178596
0.000201902
0.000201899
0.000201901
0.000178601
0.000178444
0.000178602
0.00020189
0.000201888
0.00020189
0.000201887
0.000178447
0.000178606
0.000201903
0.00020188
0.000201902
0.000201879
0.000201889
0.000201906
0.000201889
0.000178437
0.000178595
0.000201902
0.000201899
0.000201901
0.0001786
0.000178443
0.000178603
0.00020189
0.000201888
0.00020189
0.000201887
0.000178447
0.000178606
0.000201903
0.00020188
0.000201902
0.000201879
0.00020189
0.000201906
0.000201889
0.000178436
0.000178595
0.000201902
0.000201899
0.000201901
0.0001786
0.000178444
0.000178603
0.000201891
0.000201888
0.000201891
0.000201887
0.000178447
0.000178606
0.000201902
0.00020188
0.000201902
0.000201879
0.000201889
0.000201906
0.000201889
0.000178436
0.000178595
0.000201901
0.000201899
0.000201901
0.0001786
0.000178444
0.000178603
0.000201891
0.000201888
0.000201891
0.000201887
0.000178446
0.000178606
0.000201902
0.00020188
0.000201902
0.000201879
0.00020189
0.000201906
0.000201889
0.000178436
0.000178595
0.000201902
0.000201899
0.000201901
0.0001786
0.000178444
0.000178603
0.000201891
0.000201888
0.000201891
0.000201887
0.000178447
0.000178606
0.000201902
0.00020188
0.000201902
0.000201879
0.000201889
0.000201906
0.000201889
0.000178436
0.000178595
0.000201902
0.000201899
0.000201901
0.0001786
0.000178444
0.000178603
0.000201891
0.000201888
0.000201891
0.000201887
0.000178447
0.000178606
0.000201903
0.00020188
0.000201902
0.000201879
0.000201889
0.000201906
0.000201889
0.000178436
0.000178595
0.000201902
0.000201898
0.000201901
0.0001786
0.000178444
0.000201891
0.000201888
0.000178447
0.000201903
0.00020188
0.00020189
0.000178436
0.000201902
0.000223558
0.000223559
0.000223556
0.000223557
4.50857e-05
4.92991e-05
4.50765e-05
4.92979e-05
2.55925e-05
2.55917e-05
4.50924e-05
4.92977e-05
4.50841e-05
4.92966e-05
0.000223559
0.000223556
0.000223558
0.000223558
0.000223559
0.000223556
0.000223557
0.000106334
5.50198e-05
0.000215763
0.00020196
0.000106308
5.50366e-05
0.000215764
2.55891e-05
2.55884e-05
0.000106336
0.00021576
5.50215e-05
0.000201949
0.00010631
0.000215761
5.50375e-05
3.52685e-05
3.52608e-05
0.000178674
3.52732e-05
3.52644e-05
4.50882e-05
4.92983e-05
4.50798e-05
4.92973e-05
2.55912e-05
2.55909e-05
4.50936e-05
4.92969e-05
4.5086e-05
4.92959e-05
0.000223559
0.000223556
0.000223559
0.000223557
0.000223558
0.000223555
0.000223559
0.000106338
5.50227e-05
0.000215763
0.000201956
0.000106309
5.50395e-05
0.000215763
2.55881e-05
2.55878e-05
0.000106334
0.00021576
5.50245e-05
0.000201948
0.000106308
0.000215758
5.50403e-05
3.52742e-05
3.52661e-05
0.000178673
3.5279e-05
3.52717e-05
4.50923e-05
4.9298e-05
4.5083e-05
4.92972e-05
2.55909e-05
2.55908e-05
4.50989e-05
4.92965e-05
4.50898e-05
4.92957e-05
0.00022356
0.000223555
0.000223558
0.000223557
0.000223558
0.000223554
0.000223557
0.00010634
5.50256e-05
0.000215763
0.000201955
0.000106313
5.50417e-05
0.000215761
2.55879e-05
2.55877e-05
0.000106337
0.000215757
5.50266e-05
0.000201945
0.000106308
0.000215756
5.50423e-05
3.52803e-05
3.52737e-05
0.000178671
3.52848e-05
3.52781e-05
4.50945e-05
4.9298e-05
4.50868e-05
4.92973e-05
2.5591e-05
2.5591e-05
4.51013e-05
4.92965e-05
4.50942e-05
4.92959e-05
0.000223558
0.000223554
0.000223557
0.000223556
0.000223556
0.000223553
0.000223555
0.000106339
5.50274e-05
0.00021576
0.000201953
0.000106315
5.50437e-05
0.00021576
2.5588e-05
2.55881e-05
0.00010634
0.000215757
5.50293e-05
0.000201945
0.000106312
0.000215756
5.50447e-05
3.52844e-05
3.52779e-05
0.00017867
3.52876e-05
3.52807e-05
4.50789e-05
4.92992e-05
4.50799e-05
4.92996e-05
2.55916e-05
2.55916e-05
4.50853e-05
4.92977e-05
4.50872e-05
4.92982e-05
0.000223555
0.000223551
0.000223553
0.000223528
0.000223531
0.000223525
0.000223527
0.000106318
5.50248e-05
0.000215756
0.000201944
0.000106302
5.50332e-05
0.000215751
2.55886e-05
2.55884e-05
0.000106316
0.000215754
5.50234e-05
0.000201933
0.000106304
0.000215747
5.50301e-05
3.52818e-05
3.52745e-05
0.000178643
3.52811e-05
3.52741e-05
4.50617e-05
4.93014e-05
4.50581e-05
4.93007e-05
2.55914e-05
2.55912e-05
4.50684e-05
4.93e-05
4.50653e-05
4.92992e-05
0.00022353
0.000223525
0.000223527
0.000223535
0.000223535
0.000223533
0.000223534
0.00010626
5.50017e-05
0.000215722
0.000201902
0.000106245
5.50101e-05
0.000215721
2.55883e-05
2.55881e-05
0.000106264
0.000215717
5.5e-05
0.000201894
0.000106239
0.000215718
5.501e-05
3.52715e-05
3.52643e-05
0.0001786
3.527e-05
3.52634e-05
4.50587e-05
4.93013e-05
4.50514e-05
4.93005e-05
2.55912e-05
2.55911e-05
4.50657e-05
4.92999e-05
4.5059e-05
4.92991e-05
0.000223537
0.000223534
0.000223535
0.000223536
0.000223537
0.000223534
0.000223536
0.000106266
5.49897e-05
0.000215725
0.000201905
0.000106238
5.50043e-05
0.000215726
2.55882e-05
2.55881e-05
0.000106268
0.000215724
5.49923e-05
0.000201898
0.000106241
0.000215724
5.50068e-05
3.52647e-05
3.52588e-05
0.000178603
3.52669e-05
3.52611e-05
4.50586e-05
4.93012e-05
4.50509e-05
4.93004e-05
2.55912e-05
2.55911e-05
4.50655e-05
4.92998e-05
4.50585e-05
4.92991e-05
0.000223537
0.000223534
0.000223536
0.000223537
0.000223537
0.000223534
0.000223536
0.000106263
5.49884e-05
0.000215726
0.000201905
0.000106237
5.50039e-05
0.000215726
2.55882e-05
2.55881e-05
0.000106268
0.000215724
5.49917e-05
0.000201899
0.000106241
0.000215724
5.50066e-05
3.52643e-05
3.52585e-05
0.000178599
3.52668e-05
3.5261e-05
4.50586e-05
4.93012e-05
4.50509e-05
4.93004e-05
2.55912e-05
2.55911e-05
4.50655e-05
4.92998e-05
4.50585e-05
4.9299e-05
0.000223537
0.000223534
0.000223536
0.000223537
0.000223537
0.000223534
0.000223536
0.000106264
5.49884e-05
0.000215726
0.000201906
0.000106237
5.50039e-05
0.000215726
2.55882e-05
2.55881e-05
0.000106266
0.000215724
5.49917e-05
0.000201899
0.00010624
0.000215725
5.50066e-05
3.52643e-05
3.52585e-05
0.000178602
3.52668e-05
3.5261e-05
4.50586e-05
4.93012e-05
4.50509e-05
4.93005e-05
2.55912e-05
2.55911e-05
4.50656e-05
4.92998e-05
4.50585e-05
4.9299e-05
0.000223537
0.000223534
0.000223536
0.000223537
0.000223537
0.000223534
0.000223536
0.000106265
5.49884e-05
0.000215726
0.000201906
0.000106238
5.50039e-05
0.000215727
2.55882e-05
2.55881e-05
0.000106268
0.000215724
5.49917e-05
0.000201899
0.00010624
0.000215725
5.50068e-05
3.52643e-05
3.52585e-05
0.000178602
3.52668e-05
3.5261e-05
4.50586e-05
4.93017e-05
4.50509e-05
4.93013e-05
2.55909e-05
2.55908e-05
4.50656e-05
4.92995e-05
4.50585e-05
4.92985e-05
0.000223537
0.000223534
0.000223536
0.000223537
0.000223537
0.000223534
0.000223536
0.000106265
5.49884e-05
0.000215726
0.000201906
0.000106238
5.50039e-05
0.000215727
2.55882e-05
2.55881e-05
0.000106268
0.000215724
5.49918e-05
0.000201899
0.00010624
0.000215724
5.50068e-05
3.52643e-05
3.52585e-05
0.000178601
3.52668e-05
3.5261e-05
4.50586e-05
4.93024e-05
4.50509e-05
4.93018e-05
2.55908e-05
2.55906e-05
4.50655e-05
4.92989e-05
4.50585e-05
4.92981e-05
0.000223537
0.000223534
0.000223536
0.000223537
0.000223537
0.000223534
0.000223536
0.000106263
5.49884e-05
0.000215726
0.000201906
0.000106237
5.50039e-05
0.000215727
2.55882e-05
2.55881e-05
0.000106267
0.000215724
5.49918e-05
0.000201899
0.00010624
0.000215724
5.50069e-05
3.52643e-05
3.52585e-05
0.000178601
3.52668e-05
3.5261e-05
4.50586e-05
4.93026e-05
4.50509e-05
4.93019e-05
2.55907e-05
2.55906e-05
4.50656e-05
4.92988e-05
4.50585e-05
4.9298e-05
0.000223537
0.000223534
0.000223536
0.000223537
0.000223537
0.000223534
0.000223536
0.000106264
5.49884e-05
0.000215726
0.000201906
0.000106237
5.50039e-05
0.000215726
2.55882e-05
2.55881e-05
0.000106264
0.000215724
5.49919e-05
0.000201899
0.000106237
0.000215724
5.50069e-05
3.52643e-05
3.52585e-05
0.000178601
3.52668e-05
3.5261e-05
4.50586e-05
4.93027e-05
4.50509e-05
4.9302e-05
2.55907e-05
2.55906e-05
4.50655e-05
4.92988e-05
4.50585e-05
4.9298e-05
0.000223537
0.000223534
0.000223536
0.000223537
0.000223537
0.000223534
0.000223536
0.000106262
5.49884e-05
0.000215726
0.000201906
0.000106238
5.50039e-05
0.000215726
2.55882e-05
2.55881e-05
0.000106264
0.000215724
5.49919e-05
0.000201899
0.000106236
0.000215724
5.50069e-05
3.52643e-05
3.52585e-05
0.000178601
3.52668e-05
3.5261e-05
4.50586e-05
4.93028e-05
4.50509e-05
4.93021e-05
2.55907e-05
2.55906e-05
4.50655e-05
4.92988e-05
4.50585e-05
4.9298e-05
0.000223537
0.000223534
0.000223536
0.000223537
0.000223537
0.000223534
0.000223536
0.000106264
5.49884e-05
0.000215726
0.000201906
0.000106237
5.50039e-05
0.000215727
2.55882e-05
2.55881e-05
0.000106263
0.000215724
5.49919e-05
0.000201899
0.000106236
0.000215724
5.50069e-05
3.52643e-05
3.52585e-05
0.000178601
3.52668e-05
3.5261e-05
4.50586e-05
4.93028e-05
4.50509e-05
4.93021e-05
2.55907e-05
2.55906e-05
4.50655e-05
4.92988e-05
4.50585e-05
4.9298e-05
0.000223537
0.000223534
0.000223536
0.000223537
0.000223537
0.000223534
0.000223536
0.000106263
5.49884e-05
0.000215726
0.000201906
0.000106237
5.50039e-05
0.000215727
2.55882e-05
2.55881e-05
0.000106263
0.000215724
5.49919e-05
0.000201899
0.000106236
0.000215725
5.5007e-05
3.52643e-05
3.52585e-05
0.000178601
3.52668e-05
3.5261e-05
4.50586e-05
4.93028e-05
4.50509e-05
4.93021e-05
2.55907e-05
2.55906e-05
4.50656e-05
4.92988e-05
4.50585e-05
4.9298e-05
0.000223537
0.000223534
0.000223536
0.000223537
0.000223537
0.000223534
0.000223536
0.000106263
5.49884e-05
0.000215726
0.000201906
0.000106238
5.5004e-05
0.000215727
2.55882e-05
2.55881e-05
0.000106263
0.000215724
5.49919e-05
0.000201899
0.000106236
0.000215725
5.5007e-05
3.52643e-05
3.52585e-05
0.000178601
3.52668e-05
3.5261e-05
4.93028e-05
4.50509e-05
2.55907e-05
4.92988e-05
4.50585e-05
0.000223538
0.000223535
0.000223537
5.49884e-05
0.000215727
0.000106236
2.55882e-05
0.000215725
5.4992e-05
0.000106235
3.52643e-05
3.52586e-05
2.5592e-05
2.55929e-05
2.55908e-05
2.55916e-05
0.000178495
3.52628e-05
3.52639e-05
3.52574e-05
3.52635e-05
4.50754e-05
4.92984e-05
4.93004e-05
4.50836e-05
4.50762e-05
4.93005e-05
4.93023e-05
4.50844e-05
0.00010631
0.000201941
5.50326e-05
0.00021576
5.5017e-05
0.000215761
0.000106335
0.000106312
0.000201939
5.50371e-05
0.00021576
5.50223e-05
0.00021576
0.000106337
2.55926e-05
3.52658e-05
3.52609e-05
2.55929e-05
4.50831e-05
4.92971e-05
4.9299e-05
4.50906e-05
0.000106312
0.000201954
5.50344e-05
0.000215761
5.50196e-05
0.000215761
0.000106337
4.50817e-05
4.9293e-05
4.9295e-05
4.50892e-05
0.000106311
0.000201931
0.000215758
5.50239e-05
0.000215758
5.50082e-05
0.000106336
5.50349e-05
0.000215763
0.000215763
0.000106335
4.92987e-05
4.50785e-05
0.000201941
0.000215762
5.50245e-05
0.000215762
0.000106334
4.92961e-05
4.50782e-05
2.55891e-05
2.559e-05
0.000178488
3.52547e-05
3.52691e-05
3.52494e-05
3.52681e-05
2.55917e-05
2.55926e-05
0.000106312
0.00020195
0.00021576
5.50361e-05
0.00021576
5.50214e-05
0.000106337
0.000106312
0.000201953
0.000215761
5.50336e-05
0.000215761
5.50186e-05
0.000106338
4.50822e-05
4.92963e-05
4.92982e-05
4.50898e-05
4.50828e-05
4.92963e-05
4.92982e-05
4.50905e-05
0.000178493
3.52703e-05
3.52632e-05
3.52624e-05
2.55917e-05
2.55905e-05
2.55914e-05
2.5592e-05
2.55913e-05
2.55908e-05
2.55901e-05
3.52605e-05
3.52616e-05
0.000178676
3.52643e-05
3.52651e-05
2.55909e-05
2.55914e-05
2.55897e-05
2.55901e-05
0.000178516
3.52663e-05
3.52686e-05
3.52618e-05
3.52636e-05
4.50864e-05
4.9301e-05
4.50783e-05
4.93e-05
0.000106337
5.50188e-05
0.000215761
0.000201942
0.000106312
5.50342e-05
0.000215761
0.000106339
5.50239e-05
0.000215761
0.00020194
0.000106314
5.50386e-05
0.000215761
4.50796e-05
4.92976e-05
4.92985e-05
4.50872e-05
4.50803e-05
4.92996e-05
4.93005e-05
4.50876e-05
0.000106312
0.000201942
5.50357e-05
0.000215761
5.50203e-05
0.000215761
0.000106337
0.000106314
0.00020194
5.504e-05
0.000215761
5.50254e-05
0.000215761
0.000106339
3.52631e-05
3.52588e-05
0.00017868
3.52657e-05
3.52632e-05
2.55929e-05
2.5592e-05
2.55912e-05
2.55917e-05
0.000178519
3.5268e-05
3.52645e-05
3.52638e-05
3.52608e-05
2.55915e-05
2.55921e-05
0.00010634
5.5021e-05
0.000215762
0.000201955
0.000106314
5.50359e-05
0.000215762
4.50909e-05
4.92935e-05
4.50838e-05
4.92925e-05
0.000106338
0.000215758
5.501e-05
0.000201932
0.000106313
0.000215758
5.50255e-05
4.50868e-05
4.92962e-05
4.92971e-05
4.5093e-05
0.000106316
0.000201955
5.50374e-05
0.000215763
5.50226e-05
0.000215763
0.000106339
4.50852e-05
4.92921e-05
4.92931e-05
4.50912e-05
0.000106313
0.000201932
0.000215758
5.50269e-05
0.000215759
5.50115e-05
0.000106337
4.5083e-05
4.92992e-05
4.50731e-05
4.9298e-05
0.000106335
0.000215762
5.50113e-05
0.000201942
0.000106309
0.000215762
5.50292e-05
4.50827e-05
4.92966e-05
4.50728e-05
4.92957e-05
0.000106311
0.000201959
5.50379e-05
0.000215763
5.50227e-05
0.000215764
0.000106336
4.50774e-05
4.92976e-05
4.92986e-05
4.50866e-05
0.000106311
0.000201942
0.000215762
5.50351e-05
0.000215762
5.50171e-05
0.000106336
4.50771e-05
4.92953e-05
4.92962e-05
4.50863e-05
3.52525e-05
3.52667e-05
0.000178669
3.52566e-05
3.52702e-05
2.55917e-05
2.5591e-05
2.5588e-05
2.55885e-05
0.000178509
3.52584e-05
3.52734e-05
3.5254e-05
3.52685e-05
2.55906e-05
2.55911e-05
0.000106339
0.000215762
5.50201e-05
0.000201954
0.000106314
0.000215761
5.50351e-05
4.50913e-05
4.92968e-05
4.50843e-05
4.92958e-05
4.50922e-05
4.92968e-05
4.50849e-05
4.92957e-05
0.000106312
0.000201949
0.00021576
5.5039e-05
0.000215761
5.50243e-05
0.000106335
0.000106315
0.000201954
0.000215761
5.50366e-05
0.000215762
5.50216e-05
0.000106338
4.50856e-05
4.92954e-05
4.92963e-05
4.50916e-05
4.50864e-05
4.92954e-05
4.92963e-05
4.50926e-05
2.55916e-05
2.55909e-05
2.55905e-05
2.55898e-05
0.000178514
3.5276e-05
3.52676e-05
3.52715e-05
3.52627e-05
2.55905e-05
2.55909e-05
2.55894e-05
2.55899e-05
2.55911e-05
2.55907e-05
2.55898e-05
2.55895e-05
3.52645e-05
3.52675e-05
0.000178675
3.52709e-05
3.5273e-05
2.55906e-05
2.55909e-05
2.55894e-05
2.55896e-05
0.000178514
3.52747e-05
3.52768e-05
3.52693e-05
3.52719e-05
4.50884e-05
4.93002e-05
4.50812e-05
4.92993e-05
0.000106338
5.50218e-05
0.000215759
0.000201941
0.000106313
5.50373e-05
0.000215758
0.00010634
5.50268e-05
0.000215758
0.000201939
0.000106315
5.50412e-05
0.000215758
4.5082e-05
4.92972e-05
4.9298e-05
4.509e-05
4.50821e-05
4.92992e-05
4.92999e-05
4.50903e-05
0.000106315
0.00020194
5.50385e-05
0.000215758
5.50234e-05
0.000215758
0.000106338
0.000106316
0.000201939
5.50422e-05
0.000215757
5.5028e-05
0.000215757
0.00010634
3.52665e-05
3.52623e-05
0.000178679
3.52718e-05
3.5268e-05
2.55916e-05
2.55912e-05
2.55908e-05
2.55911e-05
0.000178518
3.52759e-05
3.52727e-05
3.52705e-05
3.52665e-05
2.5591e-05
2.55913e-05
0.000106337
5.50241e-05
0.00021576
0.000201954
0.000106314
5.50389e-05
0.00021576
4.5092e-05
4.92928e-05
4.50854e-05
4.92919e-05
0.000106337
0.000215756
5.5013e-05
0.00020193
0.000106313
0.000215755
5.50286e-05
4.50882e-05
4.92958e-05
4.92966e-05
4.5096e-05
0.000106314
0.000201953
5.50399e-05
0.000215759
5.50255e-05
0.00021576
0.000106339
4.50866e-05
4.92918e-05
4.92926e-05
4.50945e-05
0.000106313
0.000201931
0.000215755
5.503e-05
0.000215755
5.50147e-05
0.000106338
4.50895e-05
4.92982e-05
4.50807e-05
4.92973e-05
0.000106339
0.000215762
5.50226e-05
0.000201941
0.000106313
0.000215762
5.50394e-05
4.50893e-05
4.92959e-05
4.50805e-05
4.92951e-05
0.000106314
0.000201956
5.50409e-05
0.000215763
5.50257e-05
0.000215763
0.000106339
4.50836e-05
4.92971e-05
4.9298e-05
4.50919e-05
0.000106315
0.000201941
0.000215763
5.50424e-05
0.000215763
5.50265e-05
0.00010634
4.50834e-05
4.9295e-05
4.92957e-05
4.50918e-05
3.52564e-05
3.5272e-05
0.000178667
3.52623e-05
3.52776e-05
2.55908e-05
2.55904e-05
2.55877e-05
2.5588e-05
0.000178507
3.52662e-05
3.52813e-05
3.52606e-05
3.52762e-05
2.55903e-05
2.55906e-05
0.000106337
0.000215759
5.50232e-05
0.000201952
0.000106312
0.000215759
5.5038e-05
4.50921e-05
4.9296e-05
4.50856e-05
4.92952e-05
4.50933e-05
4.92959e-05
4.50866e-05
4.92951e-05
0.00010631
0.000201947
0.000215758
5.50412e-05
0.000215758
5.5027e-05
0.000106335
0.000106312
0.000201952
0.000215758
5.50391e-05
0.000215758
5.50245e-05
0.000106338
4.50867e-05
4.9295e-05
4.92958e-05
4.50946e-05
4.50877e-05
4.9295e-05
4.92957e-05
4.50956e-05
2.55906e-05
2.55902e-05
2.55896e-05
2.55892e-05
0.000178513
3.52821e-05
3.52754e-05
3.52774e-05
3.52703e-05
2.55901e-05
2.55904e-05
2.55891e-05
2.55894e-05
2.55908e-05
2.55906e-05
2.55896e-05
2.55894e-05
3.52726e-05
3.52754e-05
0.000178673
3.52772e-05
3.52797e-05
2.55908e-05
2.55909e-05
2.55896e-05
2.55896e-05
0.000178512
3.52789e-05
3.52816e-05
3.52749e-05
3.52781e-05
4.50929e-05
4.92998e-05
4.50844e-05
4.92991e-05
0.000106338
5.50245e-05
0.000215756
0.000201937
0.000106313
5.50396e-05
0.000215756
0.000106342
5.50289e-05
0.000215757
0.000201939
0.000106315
5.50433e-05
0.000215757
4.50864e-05
4.92972e-05
4.92978e-05
4.50942e-05
4.5087e-05
4.92991e-05
4.92997e-05
4.50949e-05
0.000106315
0.000201937
5.50409e-05
0.000215757
5.50257e-05
0.000215756
0.000106339
0.000106319
0.000201939
5.50449e-05
0.000215758
5.50302e-05
0.000215757
0.000106342
3.52745e-05
3.52709e-05
0.000178678
3.52792e-05
3.52757e-05
2.55912e-05
2.5591e-05
2.55909e-05
2.5591e-05
0.000178517
3.52816e-05
3.52778e-05
3.52776e-05
3.52737e-05
2.55911e-05
2.55912e-05
0.000106342
5.50265e-05
0.000215757
0.000201949
0.000106316
5.5041e-05
0.000215756
4.50974e-05
4.92925e-05
4.50894e-05
4.92917e-05
0.000106341
0.000215753
5.5016e-05
0.00020193
0.000106315
0.000215753
5.50313e-05
4.50937e-05
4.92958e-05
4.92964e-05
4.5101e-05
0.000106319
0.00020195
5.50424e-05
0.000215757
5.50277e-05
0.000215756
0.000106342
4.50922e-05
4.92917e-05
4.92924e-05
4.50996e-05
0.000106318
0.000201929
0.000215755
5.50325e-05
0.000215753
5.50173e-05
0.000106342
4.50939e-05
4.92978e-05
4.50859e-05
4.9297e-05
0.000106344
0.000215761
5.50293e-05
0.000201942
0.000106317
0.000215761
5.50446e-05
4.50939e-05
4.92956e-05
4.50858e-05
4.9295e-05
0.000106316
0.000201954
5.50427e-05
0.000215759
5.50278e-05
0.000215759
0.000106342
4.50878e-05
4.9297e-05
4.92977e-05
4.50955e-05
0.00010632
0.000201942
0.000215759
5.50462e-05
0.000215759
5.50314e-05
0.000106344
4.50878e-05
4.9295e-05
4.92956e-05
4.50954e-05
3.52641e-05
3.52797e-05
0.000178665
3.52689e-05
3.52841e-05
2.55905e-05
2.55903e-05
2.55878e-05
2.5588e-05
0.000178505
3.52705e-05
3.5286e-05
3.52666e-05
3.52824e-05
2.55905e-05
2.55905e-05
0.000106342
0.000215757
5.50254e-05
0.000201951
0.000106315
0.000215757
5.50402e-05
4.50974e-05
4.92957e-05
4.50895e-05
4.9295e-05
4.50985e-05
4.92956e-05
4.50904e-05
4.92949e-05
0.000106313
0.000201945
0.000215755
5.50438e-05
0.000215755
5.50291e-05
0.000106339
0.000106318
0.00020195
0.000215758
5.50415e-05
0.000215757
5.50266e-05
0.000106343
4.50922e-05
4.9295e-05
4.92956e-05
4.50997e-05
4.50932e-05
4.92949e-05
4.92955e-05
4.51008e-05
2.55903e-05
2.55901e-05
2.55893e-05
2.55892e-05
0.000178511
3.52866e-05
3.528e-05
3.5283e-05
3.52764e-05
2.55902e-05
2.55903e-05
2.55893e-05
2.55894e-05
2.5591e-05
2.5591e-05
2.55897e-05
2.55898e-05
3.52764e-05
3.52798e-05
0.000178673
3.52795e-05
3.52823e-05
2.55913e-05
2.55913e-05
2.55901e-05
2.559e-05
0.000178513
3.52769e-05
3.52797e-05
3.52764e-05
3.52797e-05
4.50951e-05
4.92997e-05
4.50885e-05
4.92991e-05
0.000106336
5.5027e-05
0.000215758
0.000201939
0.000106312
5.50417e-05
0.000215758
0.000106337
5.50318e-05
0.000215759
0.000201936
0.000106314
5.50462e-05
0.00021576
4.50877e-05
4.92981e-05
4.92981e-05
4.50903e-05
4.50883e-05
4.92995e-05
4.92997e-05
4.5091e-05
0.00010631
0.000201939
5.50371e-05
0.000215757
5.5027e-05
0.000215759
0.00010633
0.000106312
0.000201935
5.50432e-05
0.000215757
5.50326e-05
0.000215759
0.000106332
3.52797e-05
3.52755e-05
0.000178678
3.52829e-05
3.52791e-05
2.55913e-05
2.55912e-05
2.55914e-05
2.55913e-05
0.000178517
3.52809e-05
3.52778e-05
3.52804e-05
3.52764e-05
2.55916e-05
2.55915e-05
0.000106338
5.50291e-05
0.000215759
0.000201952
0.000106314
5.50432e-05
0.00021576
4.50997e-05
4.92924e-05
4.50939e-05
4.92919e-05
0.000106336
0.000215755
5.50185e-05
0.000201926
0.000106314
0.000215756
5.5033e-05
4.50951e-05
4.92967e-05
4.92967e-05
4.5097e-05
0.000106313
0.000201951
5.50387e-05
0.000215759
5.5029e-05
0.000215761
0.000106331
4.50936e-05
4.92926e-05
4.92927e-05
4.50955e-05
0.000106308
0.000201925
0.000215755
5.50284e-05
0.000215756
5.50182e-05
0.000106329
4.50956e-05
4.92977e-05
4.50892e-05
4.9297e-05
0.000106337
0.000215758
5.50327e-05
0.00020194
0.000106316
0.000215758
5.50466e-05
4.50952e-05
4.92957e-05
4.50889e-05
4.92952e-05
0.000106315
0.000201953
5.50419e-05
0.000215758
5.50295e-05
0.00021576
0.000106332
4.50889e-05
4.92973e-05
4.92977e-05
4.50929e-05
0.000106312
0.000201939
0.000215757
5.5043e-05
0.000215758
5.50325e-05
0.000106331
4.50885e-05
4.92958e-05
4.92959e-05
4.50924e-05
3.5268e-05
3.5284e-05
0.000178665
3.5271e-05
3.52867e-05
2.55907e-05
2.55907e-05
2.55884e-05
2.55884e-05
0.000178505
3.52683e-05
3.52841e-05
3.52678e-05
3.5284e-05
2.5591e-05
2.5591e-05
0.00010634
0.000215758
5.50281e-05
0.000201949
0.000106316
0.000215759
5.50424e-05
4.51004e-05
4.92956e-05
4.50941e-05
4.92951e-05
4.51012e-05
4.92956e-05
4.5095e-05
4.9295e-05
0.000106316
0.000201945
0.000215756
5.50406e-05
0.000215757
5.50308e-05
0.000106334
0.000106312
0.000201948
0.000215758
5.5038e-05
0.00021576
5.50281e-05
0.000106331
4.50944e-05
4.92958e-05
4.92958e-05
4.50965e-05
4.50949e-05
4.92958e-05
4.92958e-05
4.5097e-05
2.55904e-05
2.55904e-05
2.55895e-05
2.55895e-05
0.00017851
3.52855e-05
3.52781e-05
3.52852e-05
3.5278e-05
2.55908e-05
2.55907e-05
2.55898e-05
2.55898e-05
2.55916e-05
2.55913e-05
2.55903e-05
2.55901e-05
3.5273e-05
3.52763e-05
0.000178643
3.52728e-05
3.52755e-05
2.55911e-05
2.55915e-05
2.55899e-05
2.55902e-05
0.000178468
3.52672e-05
3.52698e-05
3.52688e-05
3.5272e-05
4.50796e-05
4.93005e-05
4.50817e-05
4.93012e-05
0.000106313
5.50205e-05
0.000215754
0.000201923
0.0001063
5.50266e-05
0.000215746
0.000106315
5.50276e-05
0.000215754
0.000201923
0.000106302
5.5033e-05
0.000215746
4.5069e-05
4.93006e-05
4.93006e-05
4.5068e-05
4.50697e-05
4.93025e-05
4.93023e-05
4.50687e-05
0.000106279
0.000201904
5.50141e-05
0.00021572
5.50091e-05
0.000215729
0.00010627
0.00010628
0.000201908
5.50203e-05
0.000215721
5.50161e-05
0.00021573
0.000106271
3.52775e-05
3.52741e-05
0.000178656
3.52772e-05
3.5274e-05
2.55919e-05
2.55918e-05
2.55914e-05
2.55917e-05
0.000178485
3.52725e-05
3.52697e-05
3.52738e-05
3.52702e-05
2.55916e-05
2.55919e-05
0.000106314
5.50226e-05
0.000215756
0.000201936
0.000106301
5.50281e-05
0.000215747
4.5084e-05
4.92936e-05
4.50869e-05
4.92941e-05
0.000106314
0.000215751
5.50117e-05
0.000201913
0.0001063
0.000215743
5.50178e-05
4.5076e-05
4.92991e-05
4.92991e-05
4.50744e-05
0.00010628
0.000201917
5.50156e-05
0.00021572
5.50111e-05
0.00021573
0.00010627
4.50747e-05
4.92952e-05
4.92951e-05
4.5073e-05
0.000106279
0.000201894
0.000215717
5.50053e-05
0.000215726
5.50001e-05
0.000106269
4.50823e-05
4.92982e-05
4.50841e-05
4.92986e-05
0.000106317
0.000215754
5.50272e-05
0.000201924
0.000106301
0.000215749
5.5033e-05
4.50818e-05
4.92967e-05
4.50836e-05
4.92972e-05
0.000106287
0.000201931
5.50205e-05
0.000215727
5.50159e-05
0.000215737
0.00010628
4.50721e-05
4.93001e-05
4.92997e-05
4.50704e-05
0.000106286
0.000201906
0.000215724
5.50201e-05
0.000215734
5.50159e-05
0.000106278
4.50716e-05
4.92985e-05
4.92982e-05
4.50699e-05
3.52643e-05
3.52807e-05
0.000178636
3.52641e-05
3.52801e-05
2.55912e-05
2.5591e-05
2.55882e-05
2.55886e-05
0.000178462
3.52586e-05
3.52743e-05
3.526e-05
3.52764e-05
2.55908e-05
2.55911e-05
0.000106315
0.000215755
5.50217e-05
0.000201935
0.000106301
0.000215747
5.50274e-05
4.50848e-05
4.92968e-05
4.50878e-05
4.92973e-05
4.50853e-05
4.92967e-05
4.50881e-05
4.92973e-05
0.000106281
0.000201915
0.00021572
5.50176e-05
0.00021573
5.50133e-05
0.000106273
0.000106279
0.000201916
0.00021572
5.50149e-05
0.000215729
5.50102e-05
0.00010627
4.50755e-05
4.92984e-05
4.92983e-05
4.50738e-05
4.50758e-05
4.92983e-05
4.92983e-05
4.50743e-05
2.5591e-05
2.55909e-05
2.559e-05
2.55898e-05
0.000178469
3.52756e-05
3.52684e-05
3.52773e-05
3.52704e-05
2.55907e-05
2.5591e-05
2.55896e-05
2.55899e-05
2.55913e-05
2.5591e-05
2.559e-05
2.55898e-05
3.52631e-05
3.5266e-05
0.000178602
3.52611e-05
3.52649e-05
2.5591e-05
2.55912e-05
2.55898e-05
2.559e-05
0.000178444
3.52592e-05
3.5263e-05
3.52575e-05
3.5262e-05
4.50624e-05
4.93033e-05
4.50599e-05
4.93026e-05
0.000106261
5.49972e-05
0.000215717
0.000201885
0.000106238
5.50065e-05
0.000215719
0.000106262
5.50039e-05
0.000215718
0.000201884
0.000106239
5.50118e-05
0.000215719
4.50542e-05
4.93005e-05
4.93013e-05
4.50593e-05
4.5055e-05
4.93025e-05
4.93032e-05
4.50601e-05
0.000106237
0.000201886
5.50039e-05
0.000215723
5.49913e-05
0.000215721
0.000106263
0.000106238
0.000201883
5.50086e-05
0.000215723
5.49971e-05
0.000215721
0.000106265
3.52686e-05
3.52657e-05
0.000178606
3.52666e-05
3.52632e-05
2.55917e-05
2.55914e-05
2.55911e-05
2.55914e-05
0.000178445
3.52634e-05
3.52592e-05
3.52631e-05
3.52593e-05
2.55914e-05
2.55916e-05
0.000106262
5.49993e-05
0.000215718
0.000201899
0.000106239
5.50083e-05
0.000215719
4.5067e-05
4.92959e-05
4.5065e-05
4.92952e-05
0.000106261
0.000215714
5.49883e-05
0.000201875
0.000106238
0.000215716
5.49977e-05
4.50616e-05
4.92991e-05
4.92999e-05
4.50662e-05
0.000106239
0.000201899
5.50058e-05
0.000215724
5.49936e-05
0.000215722
0.000106265
4.50603e-05
4.92951e-05
4.92959e-05
4.50648e-05
0.000106237
0.000201875
0.000215721
5.49951e-05
0.000215718
5.49824e-05
0.000106264
4.50628e-05
4.9301e-05
4.50613e-05
4.93005e-05
0.000106259
0.00021572
5.50033e-05
0.000201885
0.000106244
0.00021572
5.50111e-05
4.50624e-05
4.92992e-05
4.50608e-05
4.92987e-05
0.000106237
0.000201901
5.50058e-05
0.000215725
5.49943e-05
0.000215723
0.000106264
4.5055e-05
4.93005e-05