/*--------------------------------*- C++ -*----------------------------------*\
| =========                 |                                                 |
| \\      /  F ield         | OpenFOAM: The Open Source CFD Toolbox           |
|  \\    /   O peration     | Version:  2206                                  |
|   \\  /    A nd           | Website:  www.openfoam.com                      |
|    \\/     M anipulation  |                                                 |
\*---------------------------------------------------------------------------*/
FoamFile
{
    version     2.0;
    format      ascii;
    arch        "LSB;label=32;scalar=64";
    class       volScalarField;
    location    "3.5";
    object      epsilon;
}
// * * * * * * * * * * * * * * * * * * * * * * * * * * * * * * * * * * * * * //

dimensions      [0 2 -3 0 0 0 0];

internalField   nonuniform List<scalar> 
28897
(
4.90715e-07
4.91322e-07
4.9127e-07
4.91964e-07
4.90464e-07
4.91037e-07
4.91029e-07
4.91692e-07
4.90463e-07
4.91027e-07
4.91027e-07
4.91692e-07
4.90463e-07
4.91027e-07
4.91027e-07
4.91692e-07
4.90463e-07
4.91027e-07
4.91027e-07
4.91692e-07
4.90463e-07
4.91027e-07
4.91027e-07
4.91692e-07
4.90463e-07
4.91027e-07
4.91027e-07
4.91692e-07
4.90463e-07
4.91027e-07
4.91027e-07
4.91692e-07
4.90463e-07
4.91027e-07
4.91027e-07
4.91692e-07
4.90463e-07
4.91027e-07
4.91027e-07
4.91692e-07
4.90463e-07
4.91027e-07
4.91027e-07
4.91692e-07
4.90463e-07
4.91027e-07
4.91027e-07
4.91692e-07
4.90463e-07
4.91027e-07
4.91027e-07
4.91692e-07
4.90463e-07
4.91027e-07
4.91027e-07
4.91692e-07
4.90463e-07
4.91027e-07
4.91027e-07
4.91692e-07
4.90463e-07
4.91027e-07
4.91027e-07
4.91692e-07
4.90463e-07
4.91027e-07
4.91027e-07
4.91692e-07
4.90468e-07
4.91032e-07
4.91032e-07
4.91692e-07
4.91972e-07
4.91321e-07
4.91322e-07
4.91997e-07
4.91321e-07
4.91321e-07
4.91338e-07
4.91322e-07
4.91972e-07
4.91319e-07
4.91321e-07
4.91973e-07
4.91967e-07
4.91685e-07
4.91278e-07
4.91282e-07
4.91038e-07
4.9104e-07
4.92009e-07
4.9169e-07
4.91278e-07
4.91278e-07
4.91038e-07
4.91039e-07
4.9128e-07
4.91069e-07
4.91039e-07
4.91966e-07
4.91684e-07
4.91278e-07
4.91038e-07
4.91038e-07
4.91688e-07
4.91698e-07
4.91686e-07
4.91033e-07
4.91034e-07
4.91027e-07
4.91028e-07
4.917e-07
4.91685e-07
4.91034e-07
4.91034e-07
4.91028e-07
4.91028e-07
4.91034e-07
4.91027e-07
4.91028e-07
4.91697e-07
4.91685e-07
4.91034e-07
4.91028e-07
4.91028e-07
4.91688e-07
4.917e-07
4.91686e-07
4.91031e-07
4.91031e-07
4.91028e-07
4.91028e-07
4.91699e-07
4.91685e-07
4.91032e-07
4.91032e-07
4.91028e-07
4.91028e-07
4.91032e-07
4.91028e-07
4.91028e-07
4.91699e-07
4.91686e-07
4.91032e-07
4.91028e-07
4.91028e-07
4.91688e-07
4.917e-07
4.91686e-07
4.91031e-07
4.91031e-07
4.91028e-07
4.91028e-07
4.91699e-07
4.91685e-07
4.91031e-07
4.91032e-07
4.91028e-07
4.91028e-07
4.91032e-07
4.91028e-07
4.91028e-07
4.91699e-07
4.91685e-07
4.91032e-07
4.91028e-07
4.91028e-07
4.91688e-07
4.917e-07
4.91686e-07
4.91031e-07
4.91031e-07
4.91028e-07
4.91028e-07
4.91699e-07
4.91685e-07
4.91031e-07
4.91032e-07
4.91028e-07
4.91028e-07
4.91032e-07
4.91028e-07
4.91028e-07
4.91699e-07
4.91685e-07
4.91032e-07
4.91028e-07
4.91028e-07
4.91688e-07
4.917e-07
4.91686e-07
4.91031e-07
4.91032e-07
4.91028e-07
4.91028e-07
4.91699e-07
4.91685e-07
4.91031e-07
4.91032e-07
4.91028e-07
4.91028e-07
4.91032e-07
4.91028e-07
4.91028e-07
4.91699e-07
4.91685e-07
4.91032e-07
4.91028e-07
4.91028e-07
4.91688e-07
4.917e-07
4.91686e-07
4.91031e-07
4.91031e-07
4.91028e-07
4.91028e-07
4.91699e-07
4.91685e-07
4.91031e-07
4.91032e-07
4.91028e-07
4.91028e-07
4.91032e-07
4.91028e-07
4.91028e-07
4.91699e-07
4.91685e-07
4.91032e-07
4.91028e-07
4.91028e-07
4.91688e-07
4.917e-07
4.91686e-07
4.91031e-07
4.91032e-07
4.91028e-07
4.91028e-07
4.91699e-07
4.91685e-07
4.91032e-07
4.91032e-07
4.91028e-07
4.91028e-07
4.91032e-07
4.91028e-07
4.91028e-07
4.91699e-07
4.91685e-07
4.91032e-07
4.91028e-07
4.91028e-07
4.91687e-07
4.917e-07
4.91686e-07
4.91031e-07
4.91032e-07
4.91028e-07
4.91028e-07
4.91699e-07
4.91685e-07
4.91032e-07
4.91032e-07
4.91028e-07
4.91028e-07
4.91032e-07
4.91028e-07
4.91028e-07
4.91699e-07
4.91686e-07
4.91032e-07
4.91028e-07
4.91028e-07
4.91688e-07
4.917e-07
4.91686e-07
4.91031e-07
4.91032e-07
4.91028e-07
4.91028e-07
4.91699e-07
4.91685e-07
4.91031e-07
4.91032e-07
4.91028e-07
4.91028e-07
4.91032e-07
4.91028e-07
4.91028e-07
4.917e-07
4.91685e-07
4.91032e-07
4.91028e-07
4.91028e-07
4.91687e-07
4.917e-07
4.91686e-07
4.91031e-07
4.91032e-07
4.91028e-07
4.91028e-07
4.91699e-07
4.91685e-07
4.91031e-07
4.91032e-07
4.91028e-07
4.91028e-07
4.91032e-07
4.91028e-07
4.91028e-07
4.91699e-07
4.91686e-07
4.91031e-07
4.91028e-07
4.91028e-07
4.91688e-07
4.917e-07
4.91686e-07
4.91032e-07
4.91032e-07
4.91028e-07
4.91028e-07
4.91699e-07
4.91685e-07
4.91032e-07
4.91032e-07
4.91028e-07
4.91028e-07
4.91032e-07
4.91028e-07
4.91028e-07
4.917e-07
4.91685e-07
4.91031e-07
4.91028e-07
4.91028e-07
4.91687e-07
4.917e-07
4.91686e-07
4.91032e-07
4.91032e-07
4.91028e-07
4.91028e-07
4.91699e-07
4.91685e-07
4.91032e-07
4.91032e-07
4.91028e-07
4.91028e-07
4.91032e-07
4.91028e-07
4.91028e-07
4.91699e-07
4.91686e-07
4.91031e-07
4.91028e-07
4.91028e-07
4.91688e-07
4.917e-07
4.91686e-07
4.91032e-07
4.91032e-07
4.91028e-07
4.91028e-07
4.91699e-07
4.91685e-07
4.91032e-07
4.91032e-07
4.91028e-07
4.91028e-07
4.91032e-07
4.91028e-07
4.91028e-07
4.91699e-07
4.91685e-07
4.91031e-07
4.91028e-07
4.91028e-07
4.91688e-07
4.917e-07
4.91686e-07
4.91032e-07
4.91032e-07
4.91028e-07
4.91028e-07
4.91699e-07
4.91685e-07
4.91032e-07
4.91032e-07
4.91028e-07
4.91028e-07
4.91032e-07
4.91028e-07
4.91028e-07
4.91699e-07
4.91686e-07
4.91031e-07
4.91028e-07
4.91028e-07
4.91688e-07
4.917e-07
4.91686e-07
4.91032e-07
4.91032e-07
4.91028e-07
4.91028e-07
4.91699e-07
4.91685e-07
4.91032e-07
4.91032e-07
4.91028e-07
4.91028e-07
4.91032e-07
4.91028e-07
4.91028e-07
4.917e-07
4.91685e-07
4.91031e-07
4.91028e-07
4.91028e-07
4.91687e-07
4.917e-07
4.91686e-07
4.91032e-07
4.91032e-07
4.91028e-07
4.91028e-07
4.91699e-07
4.91685e-07
4.91032e-07
4.91032e-07
4.91028e-07
4.91028e-07
4.91032e-07
4.91029e-07
4.91028e-07
4.91699e-07
4.91685e-07
4.91031e-07
4.91029e-07
4.91028e-07
4.91688e-07
4.917e-07
4.91033e-07
4.91032e-07
4.91699e-07
4.91033e-07
4.91033e-07
4.91032e-07
4.91699e-07
4.91032e-07
4.90764e-07
4.90767e-07
4.90765e-07
4.90765e-07
9.16563e-07
4.77057e-06
9.15314e-07
4.77681e-06
1.49229e-05
1.4952e-05
9.16542e-07
4.77114e-06
9.15199e-07
4.77735e-06
4.90724e-07
4.90721e-07
4.90721e-07
4.90474e-07
4.90476e-07
4.90475e-07
4.90474e-07
5.30119e-07
8.12805e-07
4.90789e-07
4.91272e-07
5.30105e-07
8.13093e-07
4.90679e-07
1.49387e-05
1.49765e-05
5.30138e-07
4.90783e-07
8.13069e-07
4.9116e-07
5.30111e-07
4.90669e-07
8.13837e-07
1.33988e-06
1.3407e-06
4.91744e-07
1.34265e-06
1.34368e-06
9.16932e-07
4.77754e-06
9.17074e-07
4.77723e-06
1.4978e-05
1.49763e-05
9.16845e-07
4.77809e-06
9.16968e-07
4.77778e-06
4.90469e-07
4.90469e-07
4.90469e-07
4.90463e-07
4.90462e-07
4.90462e-07
4.90462e-07
5.30162e-07
8.14332e-07
4.90535e-07
4.91033e-07
5.302e-07
8.14145e-07
4.90538e-07
1.49804e-05
1.49787e-05
5.30161e-07
4.90534e-07
8.14282e-07
4.91032e-07
5.30196e-07
4.90537e-07
8.14116e-07
1.34403e-06
1.34426e-06
4.91688e-07
1.34387e-06
1.34409e-06
9.16933e-07
4.77754e-06
9.17072e-07
4.77723e-06
1.4978e-05
1.49763e-05
9.16843e-07
4.77809e-06
9.16964e-07
4.77777e-06
4.90466e-07
4.90467e-07
4.90466e-07
4.90463e-07
4.90463e-07
4.90463e-07
4.90463e-07
5.30163e-07
8.14326e-07
4.90533e-07
4.91032e-07
5.30197e-07
8.14143e-07
4.90537e-07
1.49804e-05
1.49787e-05
5.30161e-07
4.90533e-07
8.14279e-07
4.91032e-07
5.30193e-07
4.90537e-07
8.14116e-07
1.34403e-06
1.34426e-06
4.91688e-07
1.34386e-06
1.34409e-06
9.16933e-07
4.77754e-06
9.17072e-07
4.77723e-06
1.4978e-05
1.49764e-05
9.16844e-07
4.77809e-06
9.16964e-07
4.77777e-06
4.90467e-07
4.90467e-07
4.90467e-07
4.90463e-07
4.90463e-07
4.90463e-07
4.90463e-07
5.30163e-07
8.14326e-07
4.90533e-07
4.91031e-07
5.30197e-07
8.14143e-07
4.90537e-07
1.49804e-05
1.49787e-05
5.30162e-07
4.90533e-07
8.14279e-07
4.91032e-07
5.30193e-07
4.90537e-07
8.14116e-07
1.34403e-06
1.34426e-06
4.91688e-07
1.34386e-06
1.34409e-06
9.16933e-07
4.77754e-06
9.17072e-07
4.77723e-06
1.4978e-05
1.49764e-05
9.16844e-07
4.77809e-06
9.16964e-07
4.77777e-06
4.90467e-07
4.90467e-07
4.90467e-07
4.90463e-07
4.90463e-07
4.90463e-07
4.90463e-07
5.30163e-07
8.14326e-07
4.90533e-07
4.91031e-07
5.30197e-07
8.14143e-07
4.90537e-07
1.49804e-05
1.49787e-05
5.30162e-07
4.90533e-07
8.14279e-07
4.91032e-07
5.30193e-07
4.90537e-07
8.14116e-07
1.34403e-06
1.34426e-06
4.91688e-07
1.34386e-06
1.34409e-06
9.16933e-07
4.77754e-06
9.17072e-07
4.77723e-06
1.4978e-05
1.49764e-05
9.16844e-07
4.77809e-06
9.16964e-07
4.77777e-06
4.90467e-07
4.90467e-07
4.90467e-07
4.90463e-07
4.90463e-07
4.90463e-07
4.90463e-07
5.30163e-07
8.14326e-07
4.90533e-07
4.91032e-07
5.30198e-07
8.14143e-07
4.90537e-07
1.49804e-05
1.49787e-05
5.30162e-07
4.90533e-07
8.14279e-07
4.91032e-07
5.30193e-07
4.90537e-07
8.14116e-07
1.34403e-06
1.34427e-06
4.91688e-07
1.34386e-06
1.34409e-06
9.16933e-07
4.77754e-06
9.17072e-07
4.77723e-06
1.4978e-05
1.49764e-05
9.16844e-07
4.77809e-06
9.16964e-07
4.77777e-06
4.90467e-07
4.90467e-07
4.90467e-07
4.90463e-07
4.90463e-07
4.90463e-07
4.90463e-07
5.30163e-07
8.14326e-07
4.90533e-07
4.91031e-07
5.30197e-07
8.14143e-07
4.90537e-07
1.49804e-05
1.49787e-05
5.30162e-07
4.90533e-07
8.14279e-07
4.91032e-07
5.30193e-07
4.90537e-07
8.14116e-07
1.34403e-06
1.34426e-06
4.91688e-07
1.34386e-06
1.34409e-06
9.16933e-07
4.77754e-06
9.17072e-07
4.77723e-06
1.4978e-05
1.49764e-05
9.16844e-07
4.77809e-06
9.16964e-07
4.77777e-06
4.90467e-07
4.90467e-07
4.90467e-07
4.90463e-07
4.90463e-07
4.90463e-07
4.90463e-07
5.30163e-07
8.14326e-07
4.90533e-07
4.91031e-07
5.30197e-07
8.14143e-07
4.90537e-07
1.49804e-05
1.49787e-05
5.30161e-07
4.90533e-07
8.1428e-07
4.91032e-07
5.30193e-07
4.90537e-07
8.14116e-07
1.34403e-06
1.34426e-06
4.91688e-07
1.34386e-06
1.34409e-06
9.16933e-07
4.77754e-06
9.17072e-07
4.77723e-06
1.4978e-05
1.49764e-05
9.16844e-07
4.77809e-06
9.16964e-07
4.77777e-06
4.90467e-07
4.90466e-07
4.90467e-07
4.90463e-07
4.90463e-07
4.90463e-07
4.90463e-07
5.30163e-07
8.14326e-07
4.90533e-07
4.91032e-07
5.30196e-07
8.14143e-07
4.90537e-07
1.49804e-05
1.49787e-05
5.30161e-07
4.90533e-07
8.14279e-07
4.91032e-07
5.30193e-07
4.90537e-07
8.14116e-07
1.34403e-06
1.34426e-06
4.91688e-07
1.34386e-06
1.34409e-06
9.16933e-07
4.77754e-06
9.17072e-07
4.77723e-06
1.4978e-05
1.49764e-05
9.16844e-07
4.77809e-06
9.16964e-07
4.77778e-06
4.90467e-07
4.90466e-07
4.90466e-07
4.90463e-07
4.90463e-07
4.90463e-07
4.90463e-07
5.30164e-07
8.14326e-07
4.90533e-07
4.91032e-07
5.30197e-07
8.14143e-07
4.90537e-07
1.49804e-05
1.49787e-05
5.30161e-07
4.90533e-07
8.14282e-07
4.91032e-07
5.30193e-07
4.90537e-07
8.14116e-07
1.34403e-06
1.34427e-06
4.91688e-07
1.34386e-06
1.34409e-06
9.16934e-07
4.7775e-06
9.17071e-07
4.77715e-06
1.49784e-05
1.49769e-05
9.16843e-07
4.77808e-06
9.16963e-07
4.77776e-06
4.90467e-07
4.90466e-07
4.90466e-07
4.90464e-07
4.90463e-07
4.90463e-07
4.90463e-07
5.30163e-07
8.14326e-07
4.90533e-07
4.91032e-07
5.30196e-07
8.14143e-07
4.90537e-07
1.49804e-05
1.49787e-05
5.30162e-07
4.90533e-07
8.14281e-07
4.91032e-07
5.30193e-07
4.90537e-07
8.14116e-07
1.34403e-06
1.34426e-06
4.91688e-07
1.34386e-06
1.34409e-06
9.16933e-07
4.77743e-06
9.17071e-07
4.77712e-06
1.49779e-05
1.49764e-05
9.16842e-07
4.77811e-06
9.16962e-07
4.7778e-06
4.90467e-07
4.90466e-07
4.90467e-07
4.90463e-07
4.90463e-07
4.90463e-07
4.90463e-07
5.30163e-07
8.14326e-07
4.90533e-07
4.91031e-07
5.30197e-07
8.14143e-07
4.90537e-07
1.49804e-05
1.49787e-05
5.30162e-07
4.90533e-07
8.14281e-07
4.91032e-07
5.30195e-07
4.90537e-07
8.14116e-07
1.34403e-06
1.34426e-06
4.91688e-07
1.34386e-06
1.34409e-06
9.16933e-07
4.77743e-06
9.17072e-07
4.77711e-06
1.49784e-05
1.49767e-05
9.16842e-07
4.77811e-06
9.16962e-07
4.77779e-06
4.90466e-07
4.90467e-07
4.90467e-07
4.90463e-07
4.90463e-07
4.90463e-07
4.90463e-07
5.30163e-07
8.14326e-07
4.90533e-07
4.91031e-07
5.30197e-07
8.14143e-07
4.90537e-07
1.49804e-05
1.49787e-05
5.30162e-07
4.90533e-07
8.14281e-07
4.91032e-07
5.30193e-07
4.90537e-07
8.14116e-07
1.34403e-06
1.34426e-06
4.91688e-07
1.34386e-06
1.34409e-06
9.16932e-07
4.77743e-06
9.17071e-07
4.77711e-06
1.49785e-05
1.49769e-05
9.16842e-07
4.77811e-06
9.16962e-07
4.77779e-06
4.90466e-07
4.90467e-07
4.90467e-07
4.90463e-07
4.90463e-07
4.90463e-07
4.90463e-07
5.30163e-07
8.14326e-07
4.90533e-07
4.91031e-07
5.30197e-07
8.14143e-07
4.90537e-07
1.49804e-05
1.49787e-05
5.30163e-07
4.90533e-07
8.14281e-07
4.91032e-07
5.30197e-07
4.90537e-07
8.14116e-07
1.34403e-06
1.34426e-06
4.91688e-07
1.34386e-06
1.34409e-06
9.16932e-07
4.77743e-06
9.17072e-07
4.77711e-06
1.49785e-05
1.49769e-05
9.16842e-07
4.77811e-06
9.16962e-07
4.77779e-06
4.90466e-07
4.90466e-07
4.90467e-07
4.90463e-07
4.90463e-07
4.90463e-07
4.90463e-07
5.30162e-07
8.14326e-07
4.90533e-07
4.91031e-07
5.30198e-07
8.14143e-07
4.90537e-07
1.49804e-05
1.49787e-05
5.30162e-07
4.90533e-07
8.14281e-07
4.91032e-07
5.30197e-07
4.90537e-07
8.14116e-07
1.34403e-06
1.34426e-06
4.91688e-07
1.34386e-06
1.34409e-06
9.16932e-07
4.77743e-06
9.17071e-07
4.77711e-06
1.49785e-05
1.49769e-05
9.16842e-07
4.77811e-06
9.16962e-07
4.77779e-06
4.90466e-07
4.90466e-07
4.90466e-07
4.90463e-07
4.90463e-07
4.90463e-07
4.90463e-07
5.30163e-07
8.14326e-07
4.90533e-07
4.91031e-07
5.30197e-07
8.14143e-07
4.90537e-07
1.49804e-05
1.49787e-05
5.30162e-07
4.90533e-07
8.14281e-07
4.91032e-07
5.30197e-07
4.90537e-07
8.14116e-07
1.34403e-06
1.34427e-06
4.91688e-07
1.34386e-06
1.34409e-06
9.16932e-07
4.77743e-06
9.17071e-07
4.77711e-06
1.49785e-05
1.49769e-05
9.16842e-07
4.77811e-06
9.16962e-07
4.77779e-06
4.90466e-07
4.90466e-07
4.90467e-07
4.90465e-07
4.90463e-07
4.90463e-07
4.90463e-07
5.30164e-07
8.14326e-07
4.90533e-07
4.91031e-07
5.30197e-07
8.14143e-07
4.90537e-07
1.49804e-05
1.49787e-05
5.30163e-07
4.90533e-07
8.14281e-07
4.91032e-07
5.30197e-07
4.90537e-07
8.14115e-07
1.34403e-06
1.34426e-06
4.91688e-07
1.34386e-06
1.34409e-06
4.77743e-06
9.17072e-07
1.49785e-05
4.77812e-06
9.16964e-07
4.90467e-07
4.90467e-07
4.90468e-07
8.14329e-07
4.90538e-07
5.30196e-07
1.49804e-05
4.90538e-07
8.14282e-07
5.30197e-07
1.34404e-06
1.34427e-06
1.4926e-05
1.4923e-05
1.49283e-05
1.4925e-05
4.91991e-07
1.33992e-06
1.34002e-06
1.33969e-06
1.33973e-06
9.14944e-07
4.76895e-06
4.76832e-06
9.14941e-07
9.14955e-07
4.76895e-06
4.76829e-06
9.14959e-07
5.30109e-07
4.91334e-07
8.12761e-07
4.90834e-07
8.12882e-07
4.90848e-07
5.30066e-07
5.30108e-07
4.91335e-07
8.12746e-07
4.90835e-07
8.12852e-07
4.90848e-07
5.30071e-07
1.49223e-05
1.33957e-06
1.33953e-06
1.49222e-05
9.14832e-07
4.7695e-06
4.76887e-06
9.1489e-07
5.301e-07
4.91334e-07
8.12799e-07
4.90834e-07
8.1288e-07
4.90847e-07
5.30062e-07
9.14898e-07
4.76977e-06
4.76908e-06
9.14934e-07
5.30109e-07
4.91334e-07
4.90834e-07
8.1288e-07
4.90847e-07
8.12991e-07
5.30071e-07
8.12591e-07
4.90835e-07
4.90847e-07
5.30072e-07
4.76844e-06
9.1486e-07
4.91334e-07
4.90835e-07
8.12622e-07
4.90848e-07
5.30072e-07
4.76894e-06
9.14865e-07
1.49287e-05
1.49258e-05
4.91991e-07
1.34023e-06
1.33979e-06
1.34e-06
1.33951e-06
1.49275e-05
1.49242e-05
5.30105e-07
4.91332e-07
4.90832e-07
8.12733e-07
4.90846e-07
8.12801e-07
5.30069e-07
5.30104e-07
4.91334e-07
4.90835e-07
8.12801e-07
4.90848e-07
8.12884e-07
5.30066e-07
9.14888e-07
4.76949e-06
4.76877e-06
9.14924e-07
9.14875e-07
4.76955e-06
4.76888e-06
9.14912e-07
4.91996e-07
1.33956e-06
1.34002e-06
1.3397e-06
1.49247e-05
1.49281e-05
1.4925e-05
1.4934e-05
1.49739e-05
1.49366e-05
1.49761e-05
1.34062e-06
1.3406e-06
4.91745e-07
1.34346e-06
1.34368e-06
1.49765e-05
1.49753e-05
1.49786e-05
1.49771e-05
4.91733e-07
1.34407e-06
1.34416e-06
1.34411e-06
1.34413e-06
9.16578e-07
4.77021e-06
9.15237e-07
4.77659e-06
5.30144e-07
8.13083e-07
4.9079e-07
4.91163e-07
5.30109e-07
8.13852e-07
4.90672e-07
5.30145e-07
8.12963e-07
4.90791e-07
4.91171e-07
5.30114e-07
8.13679e-07
4.90672e-07
9.16952e-07
4.77742e-06
4.77706e-06
9.16936e-07
9.16973e-07
4.77733e-06
4.77707e-06
9.16941e-07
5.3019e-07
4.91074e-07
8.1418e-07
4.90544e-07
8.14246e-07
4.9058e-07
5.30165e-07
5.30193e-07
4.91079e-07
8.14171e-07
4.90544e-07
8.14136e-07
4.9058e-07
5.30169e-07
1.33963e-06
1.33971e-06
4.91897e-07
1.34145e-06
1.34125e-06
1.49222e-05
1.49513e-05
1.4978e-05
1.49658e-05
4.91837e-07
1.34412e-06
1.344e-06
1.34293e-06
1.343e-06
1.49762e-05
1.49653e-05
5.30145e-07
8.13074e-07
4.9079e-07
4.91162e-07
5.30106e-07
8.13907e-07
4.90672e-07
9.1656e-07
4.77122e-06
9.15146e-07
4.77766e-06
5.30149e-07
4.9079e-07
8.13199e-07
4.91163e-07
5.30114e-07
4.90672e-07
8.13968e-07
9.16888e-07
4.77796e-06
4.77761e-06
9.16866e-07
5.30191e-07
4.91074e-07
8.14198e-07
4.90544e-07
8.14266e-07
4.9058e-07
5.30162e-07
9.1692e-07
4.77809e-06
4.77794e-06
9.16902e-07
5.30196e-07
4.91075e-07
4.90544e-07
8.14295e-07
4.90581e-07
8.14364e-07
5.3017e-07
9.16113e-07
4.76853e-06
9.1498e-07
4.77322e-06
5.30121e-07
4.90792e-07
8.12785e-07
4.91165e-07
5.30102e-07
4.90675e-07
8.13491e-07
9.16111e-07
4.76934e-06
9.14987e-07
4.77601e-06
5.30179e-07
4.91149e-07
8.14147e-07
4.90546e-07
8.13769e-07
4.90587e-07
5.3017e-07
9.16827e-07
4.77747e-06
4.77562e-06
9.1696e-07
5.3018e-07
4.91076e-07
4.90544e-07
8.14143e-07
4.90582e-07
8.14079e-07
5.3017e-07
9.16825e-07
4.77778e-06
4.77719e-06
9.16957e-07
1.34096e-06
1.3404e-06
4.91745e-07
1.34382e-06
1.34346e-06
1.49357e-05
1.49753e-05
1.49801e-05
1.49777e-05
4.91732e-07
1.3444e-06
1.34393e-06
1.34442e-06
1.34392e-06
1.49776e-05
1.49762e-05
5.3014e-07
4.90791e-07
8.13068e-07
4.91163e-07
5.30108e-07
4.90672e-07
8.13903e-07
9.16549e-07
4.77092e-06
9.15134e-07
4.77739e-06
9.16553e-07
4.7709e-06
9.15137e-07
4.77745e-06
5.30188e-07
4.91074e-07
4.90543e-07
8.14125e-07
4.90581e-07
8.14192e-07
5.30167e-07
5.30191e-07
4.91074e-07
4.90544e-07
8.14201e-07
4.90581e-07
8.14274e-07
5.30165e-07
9.16912e-07
4.77779e-06
4.77765e-06
9.16896e-07
9.16913e-07
4.77791e-06
4.77772e-06
9.16888e-07
1.49264e-05
1.4968e-05
1.49358e-05
1.49761e-05
4.91735e-07
1.34393e-06
1.34416e-06
1.34362e-06
1.34413e-06
1.49779e-05
1.49743e-05
1.49787e-05
1.49773e-05
1.49751e-05
1.49764e-05
1.49775e-05
1.49783e-05
1.34423e-06
1.34416e-06
4.91683e-07
1.34401e-06
1.34412e-06
1.49766e-05
1.49749e-05
1.49787e-05
1.49772e-05
4.91698e-07
1.34406e-06
1.34417e-06
1.34421e-06
1.34412e-06
9.16939e-07
4.77705e-06
9.16994e-07
4.77725e-06
5.30167e-07
8.14297e-07
4.90539e-07
4.91032e-07
5.30191e-07
8.14173e-07
4.90538e-07
5.30166e-07
8.14263e-07
4.90539e-07
4.91032e-07
5.30195e-07
8.14169e-07
4.90537e-07
9.16982e-07
4.7774e-06
4.77694e-06
9.16926e-07
9.16994e-07
4.77733e-06
4.77706e-06
9.16937e-07
5.30195e-07
4.91028e-07
8.14174e-07
4.90533e-07
8.14286e-07
4.90534e-07
5.30161e-07
5.30196e-07
4.91029e-07
8.14171e-07
4.90533e-07
8.1426e-07
4.90534e-07
5.30166e-07
1.34414e-06
1.34418e-06
4.91682e-07
1.34408e-06
1.34397e-06
1.49747e-05
1.49756e-05
1.49778e-05
1.49751e-05
4.91696e-07
1.34409e-06
1.34403e-06
1.34408e-06
1.34417e-06
1.49761e-05
1.49749e-05
5.30157e-07
8.14296e-07
4.90538e-07
4.91032e-07
5.30186e-07
8.1419e-07
4.90537e-07
9.16907e-07
4.77781e-06
9.16916e-07
4.77802e-06
5.30166e-07
4.90539e-07
8.14406e-07
4.91032e-07
5.30195e-07
4.90537e-07
8.14286e-07
9.16866e-07
4.77794e-06
4.77749e-06
9.16856e-07
5.30188e-07
4.91029e-07
8.14193e-07
4.90533e-07
8.14282e-07
4.90533e-07
5.30158e-07
9.16923e-07
4.7781e-06
4.7778e-06
9.16898e-07
5.30196e-07
4.91029e-07
4.90533e-07
8.14291e-07
4.90533e-07
8.14398e-07
5.30166e-07
9.16944e-07
4.77718e-06
9.1701e-07
4.77738e-06
5.30161e-07
4.90539e-07
8.14231e-07
4.91032e-07
5.30196e-07
4.90537e-07
8.14132e-07
9.16946e-07
4.77747e-06
9.17009e-07
4.7777e-06
5.30191e-07
4.91031e-07
8.14152e-07
4.90533e-07
8.14257e-07
4.90537e-07
5.30166e-07
9.16999e-07
4.77744e-06
4.77722e-06
9.16945e-07
5.30191e-07
4.91029e-07
4.90533e-07
8.14136e-07
4.90533e-07
8.14227e-07
5.30166e-07
9.17002e-07
4.77775e-06
4.77759e-06
9.16947e-07
1.34454e-06
1.34393e-06
4.91683e-07
1.34436e-06
1.34389e-06
1.49766e-05
1.49773e-05
1.498e-05
1.49771e-05
4.91697e-07
1.34438e-06
1.34392e-06
1.34445e-06
1.3439e-06
1.49778e-05
1.49764e-05
5.30157e-07
4.90538e-07
8.14291e-07
4.91032e-07
5.30193e-07
4.90536e-07
8.14193e-07
9.16899e-07
4.77752e-06
9.16908e-07
4.77775e-06
9.16881e-07
4.77765e-06
9.16904e-07
4.77787e-06
5.30189e-07
4.91031e-07
4.90533e-07
8.14122e-07
4.90537e-07
8.14207e-07
5.30162e-07
5.3019e-07
4.91029e-07
4.90532e-07
8.14198e-07
4.90532e-07
8.14289e-07
5.3016e-07
9.16913e-07
4.77781e-06
4.77756e-06
9.1689e-07
9.16899e-07
4.77792e-06
4.77763e-06
9.16874e-07
1.49764e-05
1.49775e-05
1.49775e-05
1.49784e-05
4.91702e-07
1.34392e-06
1.34415e-06
1.34387e-06
1.34409e-06
1.4978e-05
1.49764e-05
1.49788e-05
1.49775e-05
1.49748e-05
1.49761e-05
1.49773e-05
1.4978e-05
1.34423e-06
1.34417e-06
4.91684e-07
1.344e-06
1.34412e-06
1.49766e-05
1.49754e-05
1.49787e-05
1.49772e-05
4.91698e-07
1.34406e-06
1.34416e-06
1.34422e-06
1.34412e-06
9.16938e-07
4.77701e-06
9.16993e-07
4.77722e-06
5.30167e-07
8.14294e-07
4.90537e-07
4.91031e-07
5.3019e-07
8.14173e-07
4.90537e-07
5.30166e-07
8.14261e-07
4.90537e-07
4.91031e-07
5.30195e-07
8.14168e-07
4.90537e-07
9.16983e-07
4.7774e-06
4.77693e-06
9.16925e-07
9.16994e-07
4.77733e-06
4.77713e-06
9.16938e-07
5.30195e-07
4.91029e-07
8.14174e-07
4.90533e-07
8.14286e-07
4.90535e-07
5.30161e-07
5.30195e-07
4.91029e-07
8.14171e-07
4.90533e-07
8.1426e-07
4.90535e-07
5.30167e-07
1.34409e-06
1.34419e-06
4.91683e-07
1.34407e-06
1.34397e-06
1.49744e-05
1.49757e-05
1.49779e-05
1.4975e-05
4.91697e-07
1.34409e-06
1.34402e-06
1.34407e-06
1.34417e-06
1.49761e-05
1.4975e-05
5.30159e-07
8.14294e-07
4.90537e-07
4.91031e-07
5.30186e-07
8.14191e-07
4.90537e-07
9.16907e-07
4.77779e-06
9.16914e-07
4.778e-06
5.30167e-07
4.90537e-07
8.14403e-07
4.91032e-07
5.30195e-07
4.90537e-07
8.14286e-07
9.16864e-07
4.77794e-06
4.77748e-06
9.16855e-07
5.30188e-07
4.9103e-07
8.14192e-07
4.90533e-07
8.14282e-07
4.90535e-07
5.30157e-07
9.16923e-07
4.7781e-06
4.77785e-06
9.16898e-07
5.30196e-07
4.9103e-07
4.90533e-07
8.14291e-07
4.90535e-07
8.14399e-07
5.30166e-07
9.16946e-07
4.77713e-06
9.16998e-07
4.77736e-06
5.30162e-07
4.90537e-07
8.14226e-07
4.91032e-07
5.30194e-07
4.90537e-07
8.1413e-07
9.16944e-07
4.77744e-06
9.17002e-07
4.77766e-06
5.30191e-07
4.91032e-07
8.14152e-07
4.90534e-07
8.14256e-07
4.90537e-07
5.30166e-07
9.16999e-07
4.77744e-06
4.77724e-06
9.16948e-07
5.30191e-07
4.9103e-07
4.90533e-07
8.14136e-07
4.90535e-07
8.14226e-07
5.30166e-07
9.17e-07
4.77775e-06
4.77756e-06
9.16946e-07
1.34455e-06
1.34392e-06
4.91683e-07
1.34436e-06
1.34389e-06
1.49766e-05
1.49772e-05
1.498e-05
1.4977e-05
4.91697e-07
1.34438e-06
1.34392e-06
1.34444e-06
1.3439e-06
1.49778e-05
1.49763e-05
5.30158e-07
4.90536e-07
8.1429e-07
4.91032e-07
5.30191e-07
4.90536e-07
8.14192e-07
9.16898e-07
4.7775e-06
9.16904e-07
4.77771e-06
9.16881e-07
4.77761e-06
9.16893e-07
4.77783e-06
5.3019e-07
4.91032e-07
4.90534e-07
8.14122e-07
4.90537e-07
8.14208e-07
5.30162e-07
5.3019e-07
4.9103e-07
4.90533e-07
8.14197e-07
4.90534e-07
8.14289e-07
5.3016e-07
9.16912e-07
4.77781e-06
4.77762e-06
9.1689e-07
9.169e-07
4.77792e-06
4.77773e-06
9.16874e-07
1.49766e-05
1.49773e-05
1.49776e-05
1.49782e-05
4.91702e-07
1.34392e-06
1.34415e-06
1.34386e-06
1.34408e-06
1.4978e-05
1.49765e-05
1.49788e-05
1.49774e-05
1.49748e-05
1.49761e-05
1.49773e-05
1.4978e-05
1.34423e-06
1.34416e-06
4.91684e-07
1.344e-06
1.34412e-06
1.49766e-05
1.49754e-05
1.49787e-05
1.49772e-05
4.91698e-07
1.34406e-06
1.34416e-06
1.34422e-06
1.34412e-06
9.16939e-07
4.77701e-06
9.16994e-07
4.77722e-06
5.30167e-07
8.14293e-07
4.90537e-07
4.91031e-07
5.3019e-07
8.14173e-07
4.90537e-07
5.30166e-07
8.14261e-07
4.90537e-07
4.91031e-07
5.30195e-07
8.14168e-07
4.90537e-07
9.16983e-07
4.7774e-06
4.77694e-06
9.16925e-07
9.16995e-07
4.77733e-06
4.77713e-06
9.16939e-07
5.30195e-07
4.91029e-07
8.14174e-07
4.90533e-07
8.14286e-07
4.90535e-07
5.30161e-07
5.30195e-07
4.9103e-07
8.14171e-07
4.90533e-07
8.1426e-07
4.90535e-07
5.30167e-07
1.3441e-06
1.34419e-06
4.91683e-07
1.34407e-06
1.34397e-06
1.49744e-05
1.49757e-05
1.49778e-05
1.4975e-05
4.91697e-07
1.34409e-06
1.34402e-06
1.34407e-06
1.34417e-06
1.49761e-05
1.4975e-05
5.30159e-07
8.14294e-07
4.90537e-07
4.91031e-07
5.30185e-07
8.14191e-07
4.90537e-07
9.16907e-07
4.77779e-06
9.16914e-07
4.778e-06
5.30167e-07
4.90537e-07
8.14403e-07
4.91032e-07
5.30195e-07
4.90536e-07
8.14286e-07
9.16865e-07
4.77794e-06
4.77748e-06
9.16855e-07
5.30188e-07
4.9103e-07
8.14192e-07
4.90533e-07
8.14282e-07
4.90535e-07
5.30157e-07
9.16923e-07
4.7781e-06
4.77785e-06
9.16898e-07
5.30196e-07
4.9103e-07
4.90533e-07
8.14291e-07
4.90534e-07
8.14399e-07
5.30166e-07
9.16943e-07
4.77713e-06
9.17002e-07
4.77736e-06
5.30162e-07
4.90536e-07
8.14226e-07
4.91032e-07
5.30194e-07
4.90536e-07
8.1413e-07
9.16945e-07
4.77743e-06
9.17001e-07
4.77766e-06
5.30191e-07
4.91031e-07
8.14152e-07
4.90533e-07
8.14256e-07
4.90537e-07
5.30166e-07
9.16998e-07
4.77744e-06
4.77724e-06
9.16942e-07
5.30191e-07
4.9103e-07
4.90533e-07
8.14136e-07
4.90534e-07
8.14226e-07
5.30166e-07
9.17001e-07
4.77775e-06
4.77756e-06
9.16947e-07
1.34455e-06
1.34392e-06
4.91684e-07
1.34436e-06
1.34389e-06
1.49766e-05
1.49772e-05
1.498e-05
1.4977e-05
4.91697e-07
1.34438e-06
1.34392e-06
1.34444e-06
1.3439e-06
1.49778e-05
1.49763e-05
5.30158e-07
4.90536e-07
8.14289e-07
4.91031e-07
5.30191e-07
4.90536e-07
8.14192e-07
9.16899e-07
4.7775e-06
9.16904e-07
4.77771e-06
9.16881e-07
4.77761e-06
9.16893e-07
4.77783e-06
5.30189e-07
4.91031e-07
4.90534e-07
8.14122e-07
4.90537e-07
8.14208e-07
5.30162e-07
5.3019e-07
4.9103e-07
4.90533e-07
8.14198e-07
4.90534e-07
8.1429e-07
5.3016e-07
9.16913e-07
4.77781e-06
4.77762e-06
9.1689e-07
9.16899e-07
4.77792e-06
4.77773e-06
9.16875e-07
1.49766e-05
1.49773e-05
1.49776e-05
1.49782e-05
4.91702e-07
1.34392e-06
1.34415e-06
1.34386e-06
1.34409e-06
1.4978e-05
1.49765e-05
1.49788e-05
1.49774e-05
1.49748e-05
1.49761e-05
1.49772e-05
1.4978e-05
1.34423e-06
1.34416e-06
4.91684e-07
1.344e-06
1.34412e-06
1.49766e-05
1.49754e-05
1.49787e-05
1.49772e-05
4.91698e-07
1.34406e-06
1.34416e-06
1.34422e-06
1.34412e-06
9.16939e-07
4.77701e-06
9.16995e-07
4.77722e-06
5.30167e-07
8.14293e-07
4.90537e-07
4.91031e-07
5.3019e-07
8.14173e-07
4.90537e-07
5.30166e-07
8.14261e-07
4.90537e-07
4.91031e-07
5.30196e-07
8.14168e-07
4.90537e-07
9.16983e-07
4.7774e-06
4.77694e-06
9.16925e-07
9.16996e-07
4.77733e-06
4.77713e-06
9.1694e-07
5.30195e-07
4.91029e-07
8.14174e-07
4.90533e-07
8.14286e-07
4.90535e-07
5.30161e-07
5.30195e-07
4.9103e-07
8.14171e-07
4.90533e-07
8.1426e-07
4.90535e-07
5.30167e-07
1.34409e-06
1.34419e-06
4.91683e-07
1.34407e-06
1.34397e-06
1.49744e-05
1.49757e-05
1.49778e-05
1.4975e-05
4.91697e-07
1.34409e-06
1.34402e-06
1.34407e-06
1.34417e-06
1.49761e-05
1.4975e-05
5.30159e-07
8.14294e-07
4.90537e-07
4.91031e-07
5.30185e-07
8.14191e-07
4.90536e-07
9.16907e-07
4.77779e-06
9.16914e-07
4.778e-06
5.30167e-07
4.90536e-07
8.14403e-07
4.91032e-07
5.30195e-07
4.90536e-07
8.14286e-07
9.16865e-07
4.77794e-06
4.77748e-06
9.16855e-07
5.30188e-07
4.9103e-07
8.14192e-07
4.90533e-07
8.14282e-07
4.90534e-07
5.30157e-07
9.16923e-07
4.7781e-06
4.77785e-06
9.16898e-07
5.30197e-07
4.9103e-07
4.90533e-07
8.14291e-07
4.90534e-07
8.14399e-07
5.30166e-07
9.16946e-07
4.77713e-06
9.16997e-07
4.77736e-06
5.30162e-07
4.90536e-07
8.14226e-07
4.91032e-07
5.30194e-07
4.90536e-07
8.1413e-07
9.16944e-07
4.77743e-06
9.17002e-07
4.77766e-06
5.30191e-07
4.91031e-07
8.14152e-07
4.90533e-07
8.14256e-07
4.90537e-07
5.30166e-07
9.17e-07
4.77744e-06
4.77723e-06
9.16949e-07
5.30191e-07
4.9103e-07
4.90532e-07
8.14136e-07
4.90534e-07
8.14226e-07
5.30166e-07
9.17001e-07
4.77775e-06
4.77756e-06
9.16948e-07
1.34455e-06
1.34392e-06
4.91683e-07
1.34436e-06
1.34389e-06
1.49766e-05
1.49772e-05
1.498e-05
1.4977e-05
4.91697e-07
1.34438e-06
1.34392e-06
1.34444e-06
1.3439e-06
1.49778e-05
1.49763e-05
5.30159e-07
4.90536e-07
8.1429e-07
4.91031e-07
5.30191e-07
4.90536e-07
8.14192e-07
9.16898e-07
4.7775e-06
9.16904e-07
4.77771e-06
9.16883e-07
4.77761e-06
9.16894e-07
4.77783e-06
5.30189e-07
4.91031e-07
4.90533e-07
8.14122e-07
4.90537e-07
8.14208e-07
5.30162e-07
5.3019e-07
4.9103e-07
4.90533e-07
8.14198e-07
4.90534e-07
8.1429e-07
5.3016e-07
9.16912e-07
4.77781e-06
4.77762e-06
9.1689e-07
9.16901e-07
4.77792e-06
4.77773e-06
9.16875e-07
1.49767e-05
1.49773e-05
1.49776e-05
1.49782e-05
4.91702e-07
1.34392e-06
1.34416e-06
1.34386e-06
1.34409e-06
1.4978e-05
1.49765e-05
1.49788e-05
1.49774e-05
1.49748e-05
1.49761e-05
1.49772e-05
1.4978e-05
1.34423e-06
1.34416e-06
4.91684e-07
1.344e-06
1.34412e-06
1.49766e-05
1.49754e-05
1.49787e-05
1.49772e-05
4.91698e-07
1.34406e-06
1.34416e-06
1.34422e-06
1.34412e-06
9.1694e-07
4.77701e-06
9.16996e-07
4.77722e-06
5.30168e-07
8.14293e-07
4.90537e-07
4.91031e-07
5.3019e-07
8.14173e-07
4.90537e-07
5.30167e-07
8.14261e-07
4.90537e-07
4.91032e-07
5.30196e-07
8.14168e-07
4.90537e-07
9.16983e-07
4.7774e-06
4.77694e-06
9.16925e-07
9.16996e-07
4.77733e-06
4.77713e-06
9.16938e-07
5.30195e-07
4.91029e-07
8.14174e-07
4.90533e-07
8.14286e-07
4.90535e-07
5.30161e-07
5.30196e-07
4.9103e-07
8.14171e-07
4.90533e-07
8.1426e-07
4.90535e-07
5.30166e-07
1.34409e-06
1.34419e-06
4.91683e-07
1.34407e-06
1.34397e-06
1.49744e-05
1.49757e-05
1.49778e-05
1.4975e-05
4.91697e-07
1.34409e-06
1.34402e-06
1.34407e-06
1.34417e-06
1.49761e-05
1.4975e-05
5.30159e-07
8.14294e-07
4.90536e-07
4.91031e-07
5.30185e-07
8.14191e-07
4.90536e-07
9.16907e-07
4.77779e-06
9.16914e-07
4.778e-06
5.30167e-07
4.90536e-07
8.14403e-07
4.91032e-07
5.30195e-07
4.90536e-07
8.14286e-07
9.16865e-07
4.77794e-06
4.77748e-06
9.16855e-07
5.30188e-07
4.9103e-07
8.14192e-07
4.90533e-07
8.14282e-07
4.90534e-07
5.30157e-07
9.16923e-07
4.7781e-06
4.77785e-06
9.16898e-07
5.30196e-07
4.9103e-07
4.90533e-07
8.14291e-07
4.90534e-07
8.14399e-07
5.30166e-07
9.16942e-07
4.77713e-06
9.17003e-07
4.77736e-06
5.30162e-07
4.90536e-07
8.14226e-07
4.91032e-07
5.30195e-07
4.90536e-07
8.1413e-07
9.16944e-07
4.77743e-06
9.17003e-07
4.77766e-06
5.30191e-07
4.91031e-07
8.14152e-07
4.90534e-07