/*--------------------------------*- C++ -*----------------------------------*\
| =========                 |                                                 |
| \\      /  F ield         | OpenFOAM: The Open Source CFD Toolbox           |
|  \\    /   O peration     | Version:  2206                                  |
|   \\  /    A nd           | Website:  www.openfoam.com                      |
|    \\/     M anipulation  |                                                 |
\*---------------------------------------------------------------------------*/
FoamFile
{
    version     2.0;
    format      ascii;
    arch        "LSB;label=32;scalar=64";
    class       volScalarField;
    location    "3.5";
    object      p;
}
// * * * * * * * * * * * * * * * * * * * * * * * * * * * * * * * * * * * * * //

dimensions      [0 2 -2 0 0 0 0];

internalField   nonuniform List<scalar> 
28907
(
4.72404e-07
2.25743e-05
2.26894e-05
1.00348e-06
2.25752e-05
2.26856e-05
2.26939e-05
2.27009e-05
1.00454e-06
2.26901e-05
2.27009e-05
9.87761e-07
3.55446e-05
6.88149e-06
1.54192e-05
1.54886e-05
1.54854e-05
1.55085e-05
-1.94177e-05
5.39286e-05
-1.94284e-05
5.39456e-05
3.27316e-05
-1.33189e-05
-1.33285e-05
5.01326e-05
5.0151e-05
5.28473e-05
-2.14441e-05
5.47353e-05
-2.33318e-05
5.28516e-05
-2.13871e-05
5.47705e-05
-2.33206e-05
4.30164e-05
2.11544e-05
1.52891e-06
2.26252e-05
3.5299e-05
2.11654e-05
-2.69922e-06
4.30235e-05
2.12214e-05
1.61343e-06
2.26504e-05
3.5328e-05
2.11817e-05
-2.69197e-06
-1.93365e-05
5.39777e-05
3.2802e-05
-1.32318e-05
-1.32266e-05
5.01885e-05
5.02034e-05
-1.93358e-05
5.4004e-05
5.28677e-05
-2.14631e-05
5.47489e-05
-2.33481e-05
4.30592e-05
2.11658e-05
1.51848e-06
2.26249e-05
3.53078e-05
2.11611e-05
-2.7469e-06
5.28771e-05
-2.14137e-05
5.47911e-05
-2.33428e-05
4.30706e-05
2.12152e-05
2.26499e-05
1.57024e-06
2.11833e-05
3.53577e-05
-2.74953e-06
4.30933e-05
2.12241e-05
1.58963e-06
2.26721e-05
3.53737e-05
2.11997e-05
-2.71777e-06
5.29119e-05
-2.1395e-05
5.48161e-05
-2.33232e-05
4.31011e-05
2.26737e-05
1.56452e-06
2.11999e-05
-2.73207e-06
5.2917e-05
-2.14104e-05
-2.33256e-05
-1.9365e-05
5.3996e-05
3.28035e-05
-1.32602e-05
-1.32476e-05
5.02076e-05
-1.93539e-05
2.26745e-05
1.5617e-06
-2.74262e-06
2.26745e-05
1.57463e-06
-2.74071e-06
-2.14068e-05
-2.33296e-05
-2.14141e-05
-2.33256e-05
-1.32602e-05
-1.32593e-05
-1.93648e-05
-1.93653e-05
5.68275e-05
-1.64428e-05
5.68418e-05
-1.64529e-05
5.30249e-05
5.30374e-05
3.89471e-06
-1.0334e-05
-1.03408e-05
-1.35025e-05
5.98451e-05
-1.35128e-05
5.98585e-05
3.86524e-05
-7.40189e-06
-7.40934e-06
5.60526e-05
5.60642e-05
5.53589e-05
-2.0892e-05
5.5375e-05
-2.09041e-05
-2.20027e-05
5.07349e-05
5.07426e-05
5.56497e-05
-1.67868e-05
-1.67907e-05
4.64133e-05
-1.84664e-05
5.15557e-05
-6.22788e-06
4.47481e-05
5.31196e-05
-1.25712e-05
4.64043e-05
-1.85065e-05
5.15712e-05
-6.22974e-06
4.47485e-05
5.31459e-05
-1.25714e-05
-1.40241e-05
4.33249e-05
5.16992e-05
-1.47917e-05
4.49995e-05
-7.70042e-06
-1.99061e-05
-1.4021e-05
4.33246e-05
5.17216e-05
-1.48056e-05
4.4989e-05
-7.7019e-06
-1.9939e-05
5.70738e-05
-1.53192e-05
-1.53221e-05
5.21612e-05
5.21685e-05
-2.05406e-05
-1.85597e-05
5.29138e-05
5.25964e-05
-2.48147e-05
5.27188e-05
-1.85233e-05
-2.37528e-05
5.51898e-05
5.61694e-05
-2.23742e-05
5.62414e-05
-1.93513e-05
-2.08351e-05
5.48052e-05
-2.29192e-05
5.37594e-05
-2.38539e-05
5.41487e-05
5.42924e-05
-1.70313e-05
-2.22718e-05
5.43543e-05
5.4038e-05
-1.70756e-05
-1.85271e-05
5.2913e-05
5.26139e-05
-2.48054e-05
5.27453e-05
-1.8517e-05
-2.37228e-05
5.52216e-05
5.62195e-05
-2.2322e-05
5.62773e-05
-1.93011e-05
-2.0793e-05
5.48328e-05
-2.2872e-05
5.37853e-05
-2.38097e-05
5.41805e-05
5.42987e-05
-1.70245e-05
-2.22368e-05
5.4354e-05
5.406e-05
-1.70347e-05
5.5428e-05
-2.08216e-05
-2.19179e-05
5.0798e-05
5.0801e-05
5.57129e-05
-1.67022e-05
-1.67014e-05
4.64968e-05
-1.83807e-05
5.16372e-05
-6.11963e-06
5.32417e-05
4.48216e-05
-1.24433e-05
4.6537e-05
-1.83604e-05
5.1657e-05
-6.13121e-06
4.48478e-05
5.32632e-05
-1.24693e-05
-1.39243e-05
4.33706e-05
5.177e-05
-1.47199e-05
-1.98527e-05
4.50373e-05
-7.60739e-06
-1.39505e-05
4.33939e-05
5.17892e-05
-1.47145e-05
4.50767e-05
-7.61831e-06
-1.983e-05
5.71717e-05
-1.52182e-05
-1.52175e-05
5.22532e-05
5.22579e-05
-2.04358e-05
5.5459e-05
-2.08202e-05
-1.85818e-05
5.26178e-05
5.29395e-05
-2.48295e-05
5.2761e-05
-2.37659e-05
-1.85568e-05
5.52121e-05
5.61838e-05
-2.23903e-05
5.62591e-05
-1.93672e-05
-2.08518e-05
5.48233e-05
-2.29353e-05
5.37859e-05
-2.38693e-05
5.41864e-05
5.43158e-05
-2.22874e-05
-1.70682e-05
5.40598e-05
5.43838e-05
-1.71009e-05
-1.85763e-05
5.2959e-05
5.26316e-05
-2.48243e-05
5.27538e-05
-1.85515e-05
-2.37499e-05
5.52529e-05
5.62453e-05
-2.2356e-05
5.63053e-05
-1.93485e-05
-2.08388e-05
5.48544e-05
-2.28993e-05
5.38062e-05
-2.38431e-05
5.41997e-05
5.43289e-05
-1.70664e-05
-2.22626e-05
5.44011e-05
5.40845e-05
-1.70846e-05
-1.8545e-05
5.26934e-05
5.29401e-05
-2.48065e-05
5.28597e-05
-2.37324e-05
-1.85344e-05
5.52939e-05
5.62703e-05
-2.23303e-05
5.634e-05
-1.93115e-05
-2.08077e-05
5.48885e-05
-2.28827e-05
5.38458e-05
-2.38209e-05
5.43055e-05
5.43626e-05
-2.22446e-05
-1.70469e-05
5.4142e-05
5.43923e-05
-1.70478e-05
-1.85736e-05
5.2965e-05
5.26771e-05
-2.4808e-05
5.27942e-05
-1.85388e-05
-2.37395e-05
5.5292e-05
5.62764e-05
-2.23531e-05
5.63448e-05
-1.93481e-05
-2.08346e-05
5.4891e-05
5.38392e-05
-2.38371e-05
5.42485e-05
5.43685e-05
-1.70509e-05
-2.22571e-05
5.44193e-05
5.41295e-05
-1.70854e-05
5.54522e-05
-2.085e-05
-2.19345e-05
-1.67198e-05
-1.6718e-05
4.65134e-05
-1.84028e-05
5.16624e-05
-6.14313e-06
5.3264e-05
4.48348e-05
-1.24582e-05
4.65397e-05
-1.83583e-05
5.16752e-05
-6.14638e-06
4.48549e-05
5.32658e-05
-1.24721e-05
-1.39425e-05
5.17812e-05
-1.47475e-05
-1.98813e-05
-7.62985e-06
-1.39567e-05
-1.47395e-05
-7.63533e-06
-1.98409e-05
5.71822e-05
-1.52345e-05
-1.52311e-05
5.22638e-05
5.22664e-05
-2.04485e-05
5.54733e-05
-2.08412e-05
5.53176e-05
5.62839e-05
-2.2348e-05
5.63557e-05
-1.9338e-05
5.43169e-05
5.4375e-05
-2.22565e-05
-1.7057e-05
5.41528e-05
5.4413e-05
-1.7073e-05
5.52879e-05
5.6275e-05
-2.23518e-05
5.63398e-05
-1.93421e-05
5.42524e-05
5.43747e-05
-2.22561e-05
-1.70553e-05
5.41285e-05
5.44321e-05
-1.7084e-05
4.65486e-05
-1.83633e-05
5.16829e-05
-6.15465e-06
5.3239e-05
4.4871e-05
-1.24663e-05
4.6536e-05
-1.84002e-05
5.16859e-05
-6.15061e-06
5.32582e-05
4.48664e-05
-1.24632e-05
5.71948e-05
-1.52404e-05
-1.52406e-05
5.22811e-05
5.22855e-05
-2.04539e-05
5.54735e-05
5.54769e-05
-1.79296e-05
5.833e-05
-1.79401e-05
5.8343e-05
6.00555e-05
-1.23237e-05
-1.23263e-05
5.51359e-05
5.51422e-05
-1.75418e-05
-1.10642e-05
5.4611e-05
4.62128e-05
-1.18235e-05
4.78907e-05
-4.72384e-06
-1.69675e-05
-1.10658e-05
5.46393e-05
4.62126e-05
-1.18309e-05
4.78826e-05
-4.7261e-06
-1.70116e-05
-1.90434e-05
5.36297e-05
5.36362e-05
5.85479e-05
-1.38209e-05
-1.38235e-05
4.94075e-05
-3.23014e-06
5.45332e-05
-1.54609e-05
4.77211e-05
-9.55587e-06
5.61229e-05
4.93997e-05
-3.2332e-06
5.45442e-05
-1.55073e-05
4.77206e-05
-9.55863e-06
5.61511e-05
6.13615e-05
-1.4968e-05
6.13785e-05
-1.49787e-05
-1.60542e-05
5.66489e-05
5.66556e-05
6.15657e-05
-1.08429e-05
-1.08458e-05
5.24335e-05
-1.2467e-05
5.75723e-05
-2.96589e-07
5.07571e-05
5.91001e-05
-6.58415e-06
5.24265e-05
-1.25171e-05
5.75877e-05
-3.02101e-07
5.07588e-05
5.91286e-05
-6.5879e-06
-8.06318e-06
4.92393e-05
5.76137e-05
-8.86197e-06
5.09219e-05
-1.75815e-06
-1.39611e-05
-8.06652e-06
4.92393e-05
5.76415e-05
-8.86939e-06
5.09143e-05
-1.76215e-06
-1.40096e-05
6.30743e-05
-9.37207e-06
-9.37563e-06
5.81611e-05
5.81689e-05
-1.45771e-05
3.57259e-05
3.39684e-05
-2.41485e-06
-2.42496e-06
3.8921e-05
3.89353e-05
6.4083e-06
3.58517e-05
3.42661e-05
-2.21717e-06
-2.18977e-06
3.912e-05
3.90816e-05
6.59122e-06
3.58634e-05
3.42729e-05
-2.22077e-06
-2.20104e-06
3.91251e-05
3.90903e-05
6.56872e-06
3.59073e-05
3.42885e-05
-2.20245e-06
-2.20899e-06
3.91323e-05
3.91532e-05
6.54526e-06
7.98011e-06
4.04229e-05
4.04372e-05
2.36736e-06
3.71907e-05
-8.17879e-07
-8.26158e-07
4.18217e-05
4.01475e-05
3.6725e-06
3.67078e-06
4.50275e-05
4.50445e-05
1.23514e-05
1.3975e-05
1.754e-05
1.75401e-05
1.60821e-05
1.60804e-05
1.86557e-05
2.01234e-05
1.40193e-05
1.75596e-05
1.75824e-05
1.60942e-05
1.6114e-05
1.86615e-05
2.01312e-05
1.75618e-05
1.75837e-05
1.6094e-05
1.86675e-05
2.01366e-05
1.75787e-05
1.75792e-05
1.6109e-05
1.86693e-05
2.01407e-05
4.96667e-06
-5.84342e-07
3.75752e-05
3.7588e-05
3.43536e-05
-3.77226e-06
-3.79248e-06
-1.59083e-05
4.18314e-05
4.17609e-05
-4.19844e-06
4.30319e-05
-3.33196e-06
-1.61886e-05
4.78194e-05
-1.74548e-05
3.67209e-05
-3.10305e-06
4.97667e-05
4.30507e-05
-1.60129e-05
-1.74791e-05
4.16547e-05
4.83396e-05
4.8792e-08
-1.89141e-05
4.63961e-05
-4.60988e-06
4.44673e-05
4.44434e-05
-1.83302e-06
-1.47124e-05
4.32487e-05
4.32002e-05
-1.44335e-05
-1.58732e-05
4.18435e-05
4.17678e-05
-4.19401e-06
4.30437e-05
-3.29065e-06
-1.618e-05
4.78705e-05
-1.73647e-05
3.67694e-05
-3.02076e-06
4.30734e-05
4.98423e-05
-1.59397e-05
-1.74247e-05
4.16724e-05
4.8378e-05
1.228e-07
4.64264e-05
-4.53964e-06
-1.88379e-05
4.44899e-05
4.44511e-05
-1.78494e-06
-1.4699e-05
4.32661e-05
4.32101e-05
-1.43919e-05
5.09004e-06
-4.70654e-07
3.76676e-05
3.76262e-05
-3.69768e-06
3.44112e-05
-3.67161e-06
-1.59211e-05
4.18628e-05
4.17815e-05
-4.24583e-06
4.30452e-05
-3.36361e-06
-1.61985e-05
4.78266e-05
-1.74932e-05
3.67287e-05
-3.09221e-06
4.97941e-05
4.30562e-05
-1.60213e-05
-1.74893e-05
4.16777e-05
4.83498e-05
4.05011e-08
-1.89356e-05
4.64042e-05
-4.61759e-06
4.44878e-05
4.44853e-05
-1.86284e-06
-1.47252e-05
4.32772e-05
4.32256e-05
-1.44514e-05
-1.5895e-05
4.17919e-05
4.18937e-05
-4.24638e-06
4.30699e-05
-1.61967e-05
-3.35602e-06
4.79072e-05
-1.73772e-05
3.68062e-05
-3.12357e-06
4.3158e-05
4.98615e-05
-1.59733e-05
-1.74565e-05
4.17381e-05
4.83923e-05
8.19112e-08
4.64557e-05
-4.63051e-06
-1.88545e-05
4.45219e-05
4.45019e-05
-1.47188e-05
-1.85727e-06
4.32427e-05
4.33258e-05
-1.44149e-05
-1.58845e-05
4.19122e-05
4.18339e-05
-4.21711e-06
4.31113e-05
-3.31626e-06
-1.61739e-05
4.79254e-05
-1.74043e-05
3.68233e-05
-3.03474e-06
4.99019e-05
4.31296e-05
-1.59469e-05
-1.7432e-05
4.17091e-05
4.84344e-05
9.98745e-08
4.64747e-05
-1.88791e-05
-4.54885e-06
4.45629e-05
4.45387e-05
-1.81453e-06
-1.46912e-05
4.33498e-05
4.32853e-05
-1.44026e-05
-1.58859e-05
4.18376e-05
4.19208e-05
-4.22732e-06
4.3109e-05
-1.61808e-05
-3.35275e-06
4.79427e-05
-1.73685e-05
3.68449e-05
-3.13238e-06
4.32095e-05
4.98757e-05
-1.59668e-05
-1.74503e-05
4.17643e-05
4.64879e-05
-4.62852e-06
4.45628e-05
4.45506e-05
-1.46986e-05
-1.85709e-06
4.32893e-05
4.33715e-05
-1.44038e-05
5.06507e-06
-4.78453e-07
3.76739e-05
-3.70572e-06
-3.68427e-06
4.79454e-05
-1.74016e-05
3.68492e-05
-3.11379e-06
4.99021e-05
4.32056e-05
-1.59634e-05
4.45764e-05
4.45641e-05
-1.46975e-05
-1.85693e-06
4.3301e-05
4.33897e-05
-1.44105e-05
4.7931e-05
-1.73891e-05
3.68324e-05
-3.08157e-06
4.31733e-05
4.98884e-05
-1.59581e-05
4.45669e-05
4.45602e-05
-1.46964e-05
-1.85139e-06
4.32985e-05
4.33667e-05
-1.44063e-05
3.87394e-05
3.71553e-05
7.07337e-07
7.02106e-07
9.48643e-06
4.19901e-05
4.2005e-05
1.09322e-05
5.39222e-06
4.35118e-05
4.3527e-05
4.02797e-05
2.19725e-06
2.19403e-06
1.69133e-05
2.41681e-05
2.41685e-05
3.57599e-05
2.28752e-05
3.00743e-05
3.00712e-05
4.16588e-05
2.88297e-05
3.60044e-05
3.60116e-05
4.76323e-05
3.47825e-05
4.19727e-05
4.19733e-05
5.35896e-05
4.07013e-05
4.79131e-05
4.79215e-05
5.9496e-05
4.65922e-05
5.38098e-05
5.38071e-05
6.53926e-05
5.24989e-05
5.96972e-05
5.9694e-05
7.12914e-05
5.84235e-05
6.56057e-05
6.5607e-05
7.72315e-05
6.43717e-05
7.15505e-05
7.15501e-05
8.31796e-05
7.03089e-05
7.74905e-05
7.74891e-05
8.90776e-05
7.62122e-05
8.34102e-05
8.34035e-05
9.49933e-05
8.21037e-05
8.92963e-05
8.93026e-05
0.000100904
8.80003e-05
9.51999e-05
9.52056e-05
0.000106802
9.39075e-05
0.000101106
0.000101101
0.000112705
9.98215e-05
0.000107012
0.000107015
0.000118638
0.000105723
0.000112914
0.000112909
0.00012451
0.000111622
0.000118803
0.0001188
0.000130417
2.40849e-05
2.4163e-05
2.85754e-05
2.8594e-05
3.57354e-05
6.91733e-06
2.40889e-05
2.41559e-05
2.85739e-05
2.85886e-05
2.41758e-05
2.85968e-05
2.86013e-05
3.57411e-05
6.90628e-06
2.41771e-05
2.85928e-05
2.86007e-05
6.90189e-06
4.1644e-05
1.28348e-05
3.00596e-05
3.00722e-05
3.45233e-05
3.45208e-05
4.16381e-05
1.28487e-05
3.00578e-05
3.00685e-05
3.45223e-05
3.45246e-05
3.00781e-05
3.4519e-05
3.45239e-05
4.16557e-05
1.28448e-05
3.00772e-05
3.45245e-05
3.45245e-05
1.28323e-05
4.7638e-05
1.87927e-05
3.60128e-05
3.60079e-05
4.04838e-05
4.04833e-05
4.76085e-05
1.87876e-05
3.6012e-05
3.6012e-05
4.04851e-05
4.04829e-05
3.60096e-05
4.04815e-05
4.04823e-05
4.76312e-05
1.87791e-05
3.60099e-05
4.04829e-05
4.04843e-05
1.87646e-05
5.35707e-05
2.47277e-05
4.1973e-05
4.19717e-05
4.64376e-05
4.64352e-05
5.35669e-05
2.47313e-05
4.19746e-05
4.19729e-05
4.64455e-05
4.64373e-05
4.19751e-05
4.64299e-05
4.64234e-05
5.35846e-05
2.47258e-05
4.1975e-05
4.64324e-05
4.6424e-05
2.4706e-05
5.94945e-05
3.06094e-05
4.79194e-05
4.79188e-05
5.23394e-05
5.23396e-05
5.94903e-05
3.06183e-05
4.79162e-05
4.79226e-05
5.23395e-05
5.23337e-05
4.7906e-05
5.23372e-05
5.23324e-05
5.95092e-05
3.06078e-05
4.7907e-05
5.23354e-05
5.23325e-05
3.05936e-05
6.53852e-05
3.6497e-05
5.38097e-05
5.3811e-05
5.82256e-05
5.82264e-05
6.53802e-05
3.65102e-05
5.38102e-05
5.38046e-05
5.8221e-05
5.82264e-05
5.38061e-05
5.82218e-05
5.82227e-05
6.53928e-05
3.6503e-05
5.38037e-05
5.82185e-05
5.82205e-05
3.64863e-05
7.12851e-05
4.2417e-05
5.97002e-05
5.97011e-05
6.41302e-05
6.41296e-05
7.12751e-05
4.2427e-05
5.96989e-05
5.96993e-05
6.41289e-05
6.41281e-05
5.96952e-05
6.41257e-05
6.41242e-05
7.12917e-05
4.24189e-05
5.96944e-05
6.41249e-05
6.41232e-05
4.24024e-05
7.72134e-05
4.83639e-05
6.56117e-05
6.56093e-05
7.0065e-05
7.00647e-05
7.72022e-05
4.83669e-05
6.56117e-05
6.56101e-05
7.00637e-05
7.00657e-05
6.56098e-05
7.00611e-05
7.00629e-05
7.72195e-05
4.83622e-05
6.56056e-05
7.00626e-05
7.00627e-05
4.83583e-05
8.31612e-05
5.433e-05
7.15525e-05
7.15533e-05
7.60141e-05
7.60176e-05
8.31618e-05
5.43435e-05
7.1552e-05
7.15532e-05
7.60128e-05
7.60112e-05
7.15525e-05
7.60117e-05
7.60072e-05
8.31724e-05
5.43296e-05
7.15514e-05
7.6008e-05
7.60098e-05
5.43246e-05
8.90749e-05
6.02439e-05
7.74957e-05
7.74975e-05
8.19303e-05
8.19346e-05
8.90631e-05
6.02439e-05
7.74951e-05
7.74946e-05
8.19272e-05
8.19299e-05
7.74885e-05
8.19315e-05
8.19294e-05
8.90769e-05
6.02359e-05
7.74902e-05
8.19276e-05
8.19287e-05
6.02282e-05
9.49928e-05
6.61155e-05
8.34088e-05
8.3412e-05
8.78318e-05
8.78309e-05
9.49833e-05
6.61076e-05
8.34049e-05
8.34055e-05
8.78296e-05
8.78318e-05
8.34062e-05
8.78219e-05
8.78313e-05
9.49922e-05
6.61128e-05
8.34043e-05
8.78287e-05
8.78302e-05
6.61044e-05
0.000100903
7.20078e-05
8.93036e-05
8.93007e-05
9.37283e-05
9.37248e-05
0.000100884
7.19974e-05
8.93025e-05
8.93051e-05
9.373e-05
9.37336e-05
8.93017e-05
9.37214e-05
9.3726e-05
0.000100903
7.20021e-05
8.93015e-05
9.37308e-05
9.37282e-05
7.19923e-05
0.000106801
7.79106e-05
9.52035e-05
9.52023e-05
9.96286e-05
9.96326e-05
0.000106794
7.79151e-05
9.52047e-05
9.52079e-05
9.96263e-05
9.96273e-05
9.52025e-05
9.96323e-05
9.96271e-05
0.000106803
7.79033e-05
9.52042e-05
9.9627e-05
9.96264e-05
7.78907e-05
0.000112709
8.38419e-05
0.000101106
0.000101108
0.000105542
0.000105537
0.000112697
8.38326e-05
0.000101104
0.000101103
0.000105542
0.00010554
0.0001011
0.000105532
0.000105533
0.000112708
8.38305e-05
0.000101099
0.000105536
0.000105532
8.3806e-05
0.000118611
8.97594e-05
0.000107019
0.000107016
0.000111445
0.000111445
0.000118605
8.97579e-05
0.000107019
0.000107017
0.000111443
0.00011144
0.000107013
0.000111442
0.000111442
0.000118614
8.97495e-05
0.000107015
0.000111437
0.00011144
8.97549e-05
0.000124495
9.56313e-05
0.000112918
0.000112918
0.000117327
0.00011733
0.000124489
9.56356e-05
0.000112915
0.000112914
0.000117326
0.000117328
0.000112915
0.000117328
0.000117331
0.000124498
9.56288e-05
0.000112913
0.000117326
0.000117329
9.56388e-05
0.000130395
0.0001188
0.000118804
0.000130391
0.000118799
0.000118802
0.000123245
0.000118806
0.000130404
0.000101535
0.000118804
0.000123245
-2.03811e-05
5.76375e-05
5.57635e-05
-1.84749e-05
5.68953e-05
-1.63953e-05
-2.03986e-05
5.76509e-05
5.57844e-05
-1.84954e-05
1.69618e-05
1.69634e-05
1.69794e-05
2.13891e-05
2.13983e-05
2.13985e-05
2.14111e-05
2.45716e-07
3.82874e-05
2.41478e-05
2.56425e-05
4.54224e-06
2.56238e-05
4.60016e-05
5.69202e-05
-1.64213e-05
2.36135e-07
2.41497e-05
3.83061e-05
2.56404e-05
2.56263e-05
4.52401e-06
4.60154e-05
5.31472e-05
5.31466e-05
3.93991e-06
-1.02969e-05
-1.02931e-05
-1.45049e-05
6.36968e-05
6.18035e-05
-1.26059e-05
6.28687e-05
-1.0542e-05
-1.45311e-05
6.37156e-05
6.18443e-05
-1.26404e-05
2.28827e-05
2.28831e-05
2.2894e-05
2.73402e-05
2.7346e-05
2.73488e-05
2.73527e-05
5.99699e-06
4.42446e-05
3.00549e-05
3.15534e-05
5.1998e-05
1.03664e-05
3.15322e-05
6.29027e-05
-1.05659e-05
5.94862e-06
3.00544e-05
4.42769e-05
3.15528e-05
5.20247e-05
3.15328e-05
1.03248e-05
5.90776e-05
5.90837e-05
9.8673e-06
-4.4333e-06
-4.43781e-06
-8.60055e-06
6.97284e-05
6.78797e-05
-6.6775e-06
6.88824e-05
-4.63631e-06
-8.60715e-06
6.97401e-05
6.79046e-05
-6.70373e-06
2.88348e-05
2.88385e-05
2.88409e-05
3.32959e-05
3.32984e-05
3.3302e-05
3.33023e-05
1.16437e-05
5.03192e-05
3.59736e-05
3.7496e-05
5.81399e-05
1.6163e-05
3.74614e-05
6.88973e-05
-4.63709e-06
1.1681e-05
3.59825e-05
5.03424e-05
3.75006e-05
5.81427e-05
3.7469e-05
1.61678e-05
6.50958e-05
6.51064e-05
1.57894e-05
1.45217e-06
1.44205e-06
-2.58313e-06
7.56283e-05
7.37354e-05
-6.55552e-07
7.48066e-05
1.36699e-06
-2.58629e-06
7.563e-05
7.37569e-05
-6.6698e-07
3.4785e-05
3.47888e-05
3.47885e-05
3.92262e-05
3.92241e-05
3.92284e-05
3.92329e-05
1.79012e-05
5.62633e-05
4.19423e-05
4.34599e-05
6.40875e-05
2.22642e-05
4.34288e-05
7.4827e-05
1.35369e-06
1.78926e-05
4.19449e-05
5.62734e-05
4.34611e-05
6.40714e-05
4.34319e-05
2.22481e-05
7.10427e-05
7.10466e-05
2.17428e-05
7.45379e-06
7.45474e-06
3.4472e-06
8.13883e-05
7.94551e-05
5.38766e-06
8.05898e-05
7.4098e-06
3.44038e-06
8.13737e-05
7.94593e-05
5.39273e-06
4.06998e-05
4.07057e-05
4.07071e-05
4.51186e-05
4.51183e-05
4.51212e-05
4.51235e-05
2.41476e-05
6.19772e-05
4.78833e-05
4.93946e-05
6.96399e-05
2.8393e-05
4.93652e-05
8.06092e-05
7.39561e-06
2.41464e-05
4.78888e-05
6.19852e-05
4.939e-05
6.96463e-05
4.93677e-05
2.84027e-05
7.68365e-05
7.68376e-05
2.76493e-05
1.34756e-05
1.34871e-05
9.33395e-06
8.72476e-05
8.53242e-05
1.12546e-05
8.64533e-05
1.33004e-05
9.32256e-06
8.72427e-05
8.53436e-05
1.12482e-05
4.65907e-05
4.65941e-05
4.65958e-05
5.10197e-05
5.10182e-05
5.10197e-05
5.10228e-05
3.00705e-05
6.7769e-05
5.37899e-05
5.52813e-05
7.54315e-05
3.42986e-05
5.5263e-05
8.64795e-05
1.32724e-05
3.00523e-05
5.3792e-05
6.77765e-05
5.52803e-05
7.54421e-05
5.5265e-05
3.42819e-05
8.26869e-05
8.26869e-05
3.35373e-05
1.93807e-05
1.93802e-05
1.51613e-05
9.32345e-05
9.13328e-05
1.70728e-05
9.24308e-05
1.91185e-05
1.51479e-05
9.32427e-05
9.13432e-05
1.70549e-05
5.24972e-05
5.24975e-05
5.25013e-05
5.69398e-05
5.69384e-05
5.6938e-05
5.69397e-05
3.57254e-05
7.37913e-05
5.9678e-05
6.11726e-05
8.14827e-05
4.00388e-05
6.11516e-05
9.24605e-05
1.90998e-05
3.56969e-05
5.96779e-05
7.38115e-05
6.11693e-05
8.14995e-05
6.11512e-05
4.00126e-05
8.86573e-05
8.86627e-05
3.94458e-05
2.5192e-05
2.51911e-05
2.10047e-05
9.92904e-05
9.7398e-05
2.29128e-05
9.84624e-05
2.49639e-05
2.09942e-05
9.92991e-05
9.74246e-05
2.29008e-05
5.84223e-05
5.84227e-05
5.84233e-05
6.28845e-05
6.28806e-05
6.28834e-05
6.28825e-05
4.12464e-05
7.99018e-05
6.55813e-05
6.70893e-05
8.77361e-05
4.57565e-05
6.70601e-05
9.84829e-05
2.49569e-05
4.12962e-05
6.55847e-05
7.9916e-05
6.70914e-05
8.77334e-05
6.7066e-05
4.57639e-05
9.47045e-05
9.47087e-05
4.53755e-05
3.10418e-05
3.10347e-05
2.6939e-05
0.000105264
0.000103416
2.88609e-05
0.000104427
3.09113e-05
2.69301e-05
0.000105275
0.000103431
2.88406e-05
6.43669e-05
6.43701e-05
6.43694e-05
6.88275e-05
6.88258e-05
6.88276e-05
6.88251e-05
4.71871e-05
8.59219e-05
7.15203e-05
7.30403e-05
9.38849e-05
5.17002e-05
7.30116e-05
0.000104436
3.09052e-05
4.7217e-05
7.1523e-05
8.59136e-05
7.30376e-05
9.38105e-05
7.3012e-05
5.16992e-05
0.000100653
0.000100661
5.13409e-05
3.69979e-05
3.69833e-05
3.29761e-05
0.000111107
0.000109199
3.48912e-05
0.000110281
3.69255e-05
3.29661e-05
0.000111105
0.000109212
3.48821e-05
7.03079e-05
7.03093e-05
7.03063e-05
7.47396e-05
7.47359e-05
7.47388e-05
7.4735e-05
5.35119e-05
9.16829e-05
7.74614e-05
7.89719e-05
9.94496e-05
5.78329e-05
7.89429e-05
0.000110306
3.69102e-05
5.34784e-05
7.74628e-05
9.17137e-05
7.89714e-05
9.94852e-05
7.89451e-05
5.78094e-05
0.000106503
0.000106516
5.72841e-05
4.30029e-05
4.29998e-05
3.89001e-05
0.000116942
0.00011503
4.08269e-05
0.000116131
4.28583e-05
3.88867e-05
0.00011695
0.000115048
4.07935e-05
7.62099e-05
7.62133e-05
7.62092e-05
8.06306e-05
8.06299e-05
8.0633e-05
8.06289e-05
5.9624e-05
9.74657e-05
8.33853e-05
8.48914e-05
0.000105131
6.38588e-05
8.48647e-05
0.000116148
4.28329e-05
5.95681e-05
8.33828e-05
9.74905e-05
8.48795e-05
0.000105164
8.48604e-05
6.38036e-05
0.000112328
0.00011234
6.31611e-05
4.89719e-05
4.89607e-05
4.47469e-05
0.000122862
0.000120951
4.66731e-05
0.000122049
4.86942e-05
4.47568e-05
0.000122877
0.000120975
4.66579e-05
8.21046e-05
8.21068e-05
8.21037e-05
8.65247e-05
8.65271e-05
8.65299e-05
8.65257e-05
6.54044e-05
0.00010337
8.92798e-05
9.07689e-05
0.000111039
6.96572e-05
9.07512e-05
0.000122076
4.87046e-05
6.54329e-05
8.92836e-05
0.000103394
9.0778e-05
0.000111058
9.0758e-05
6.96811e-05
0.000118248
0.000118252
6.90465e-05
5.48207e-05
5.48298e-05
5.06273e-05
0.000128799
0.000126894
5.25587e-05
0.000128004
5.4581e-05
5.06474e-05
0.000128776
0.000126861
5.2565e-05
8.80018e-05
8.80057e-05
8.80021e-05
9.24305e-05
9.24295e-05
9.24352e-05
9.24355e-05
7.12888e-05
0.000109351
9.5178e-05
9.66794e-05
0.000117047
7.55544e-05
9.66565e-05
0.00012797
5.46073e-05
7.13396e-05
9.51865e-05
0.000109306
9.66806e-05
0.000116982
9.66625e-05
7.55845e-05
0.000124181
0.000124163
7.49489e-05
6.07226e-05
6.07361e-05
5.65286e-05
0.000134724
0.000132823
5.84493e-05
0.000133906
6.04861e-05
5.65074e-05
0.000134746
0.000132855
5.84139e-05
9.39087e-05
9.39123e-05
9.39149e-05
9.83434e-05
9.83478e-05
9.83486e-05
9.83475e-05
7.70576e-05
0.000115247
0.000101085
0.000102579
0.000122951
8.14095e-05
0.000102556
0.000133934
6.04578e-05
7.69779e-05
0.000101083
0.000115283
0.000102577
0.000123005
0.000102556
8.13564e-05
0.000130092
0.000130106
8.08454e-05
6.65665e-05
6.6557e-05
6.24526e-05
0.000140637
0.000138733
6.43778e-05
0.000139839
6.63973e-05
6.24514e-05
0.000140641
0.000138739
6.43691e-05
9.98259e-05
9.98272e-05
9.98248e-05
0.000104249
0.000104253
0.000104255
0.000104253
8.28251e-05
0.000121312
0.000106984
0.000108491
0.000129129
8.72368e-05
0.000108462
0.000139837
6.63986e-05
8.28738e-05
0.000106989
0.00012128
0.00010849
0.000129097
0.000108465
8.7276e-05
0.000136095
0.000136101
8.67848e-05
7.24624e-05
7.24695e-05
6.83868e-05
0.000146485
0.000144571
7.03018e-05
0.000145686
7.23325e-05
6.83825e-05
0.000146489
0.000144579
7.02889e-05
0.000105726
0.000105729
0.000105727
0.000110146
0.000110148
0.000110149
0.000110146
8.89072e-05
0.000127078
0.000112887
0.000114385
0.000134829
9.324e-05
0.000114359
0.000145698
7.23186e-05
8.88199e-05
0.000112884
0.000127111
0.000114382
0.000134878
0.000114357
9.31943e-05
0.000141927
0.00014194
9.26983e-05
7.84193e-05
7.84042e-05
7.42235e-05
0.000152439
0.000150554
7.61199e-05
0.000151634
7.81641e-05
7.42312e-05
0.00015243
0.000150551
7.61163e-05
0.000111624
0.000111625
0.000111621
0.000116055
9.46696e-05
0.000133026
0.000118777
0.000120281
0.000140799
9.90393e-05
0.000120253
0.000151633
7.81643e-05
9.46214e-05
0.000118775
0.000133048
0.000120279
0.00014085
0.000120252
9.90274e-05
0.000147859
0.000147876
9.85935e-05
8.42682e-05
8.42567e-05
-2.03753e-05
5.76876e-05
-1.84384e-05
5.57665e-05
2.3627e-07
3.81888e-05
2.41079e-05
2.55978e-05
2.55935e-05
4.5914e-05
4.49938e-06
2.43113e-07
3.82366e-05
2.4127e-05
2.56379e-05
4.55571e-06
2.56087e-05
4.59216e-05
5.87563e-05
-1.55395e-05
-1.74437e-05
6.06533e-05
5.87535e-05
-1.55101e-05
6.0663e-05
-1.74394e-05
4.89514e-05
2.70883e-05
7.39309e-06
2.85607e-05
2.7079e-05
3.08795e-06
4.12238e-05
4.89501e-05
2.71156e-05
7.46177e-06
2.85684e-05
4.12203e-05
2.70888e-05
3.09734e-06
5.31046e-05
5.31223e-05
3.95494e-06
-1.02868e-05
-1.02755e-05
5.69243e-05
-1.63885e-05
-1.34685e-05
5.98658e-05
3.86789e-05
-7.36031e-06
-7.3402e-06
5.60759e-05
5.60784e-05
-1.34504e-05
5.98772e-05
1.87718e-07
3.8194e-05
2.41049e-05
2.55973e-05
2.55904e-05
4.59502e-05
4.48922e-06
-2.03993e-05
5.77149e-05
-1.84631e-05
5.57945e-05
1.85099e-07
2.41275e-05
3.82734e-05
2.56342e-05
2.56071e-05
4.51646e-06
4.59696e-05
5.87822e-05
-1.55575e-05
-1.74613e-05
6.06644e-05
4.89886e-05
2.70873e-05
7.3884e-06
2.85559e-05
2.70746e-05
3.01534e-06
4.12249e-05
5.8788e-05
-1.55383e-05
6.06932e-05
-1.74633e-05
4.89981e-05
2.71099e-05
2.85654e-05
7.40833e-06
2.7086e-05
4.1257e-05
3.01781e-06
-2.03692e-05
5.77354e-05
-1.84416e-05
5.58257e-05
2.35229e-07
2.41503e-05
3.83081e-05
2.56501e-05
2.56271e-05
4.52966e-06
4.60149e-05
-2.03739e-05
5.77409e-05
-1.84486e-05
5.583e-05
4.89721e-05
2.71195e-05
7.46995e-06
2.85775e-05
4.12456e-05
2.7101e-05
3.15048e-06
5.87868e-05
-1.54993e-05
6.06873e-05
-1.74268e-05
4.89822e-05
2.7126e-05
2.85808e-05
7.46096e-06
2.71039e-05
4.12577e-05
3.14229e-06
5.87879e-05
-1.55027e-05
6.06917e-05
-1.74285e-05
5.31299e-05
5.31353e-05
3.94801e-06
-1.03125e-05
-1.02899e-05
5.69338e-05
-1.63991e-05
-1.34969e-05
5.98917e-05
3.86908e-05
-7.39084e-06
-7.3597e-06
5.61013e-05
5.60894e-05
-1.34661e-05
5.98868e-05
2.37136e-07
2.41508e-05
3.82903e-05
2.56501e-05
2.56274e-05
4.54207e-06
4.60126e-05
-2.0373e-05
5.77435e-05
-1.84514e-05
5.58405e-05
-2.03716e-05
5.77364e-05
-1.84527e-05
5.58373e-05
4.89784e-05
2.71167e-05
2.85774e-05
7.44137e-06
2.71018e-05
4.1261e-05
3.12211e-06
4.89754e-05
2.71254e-05
2.85785e-05
7.46672e-06
2.71025e-05
4.12399e-05
3.12478e-06
5.8799e-05
-1.55151e-05
6.06974e-05
-1.74368e-05
5.87942e-05
-1.55144e-05
6.0688e-05
-1.74336e-05
5.6939e-05
-1.64087e-05
5.69392e-05
-1.64067e-05
3.87005e-05
-7.35566e-06
-7.35599e-06
5.60946e-05
5.60929e-05
-1.34657e-05
5.98867e-05
-1.34682e-05
5.98871e-05
6.28767e-05
-1.05553e-05
6.28982e-05
-1.05801e-05
5.90888e-05
5.91092e-05
9.8576e-06
-4.46486e-06
-4.48565e-06
-7.5911e-06
6.58927e-05
-7.60654e-06
6.59128e-05
4.46465e-05
-1.50409e-06
-1.51829e-06
6.2104e-05
6.21259e-05
-1.44999e-05
6.36764e-05
6.17962e-05
-1.25935e-05
5.87501e-06
4.42963e-05
3.00408e-05
3.15466e-05
5.20499e-05
1.02756e-05
3.15213e-05
5.88273e-06
4.4249e-05
3.00456e-05
3.15518e-05
5.20414e-05
1.03292e-05
3.15236e-05
6.48578e-05
-9.64678e-06
6.67301e-05
-1.15696e-05
6.48515e-05
-9.65791e-06
6.67147e-05
-1.15674e-05
5.51693e-05
3.30346e-05
1.32293e-05
3.44889e-05
4.7352e-05
3.30037e-05
8.72267e-06
5.51633e-05
3.30338e-05
1.32272e-05
3.44887e-05
4.73165e-05
3.30039e-05
8.72216e-06
5.90781e-05
5.90653e-05
9.88323e-06
-4.44209e-06
-4.41583e-06
6.28623e-05
-1.05184e-05
-7.60247e-06
6.5885e-05
4.46117e-05
-1.505e-06
-1.48725e-06
6.20951e-05
6.20755e-05
-7.5778e-06
6.58702e-05
5.78778e-06
4.43048e-05
3.00372e-05
3.15427e-05
5.21139e-05
1.02434e-05
3.15178e-05
-1.45295e-05
6.372e-05
6.18456e-05
-1.2622e-05
5.79795e-06
3.00439e-05
4.43069e-05
3.15516e-05
5.21127e-05
3.1524e-05
1.02677e-05
6.48941e-05
-9.67085e-06
6.67485e-05
-1.15765e-05
5.52283e-05
3.30336e-05
1.32054e-05
3.44895e-05
4.73726e-05
3.3004e-05
8.68364e-06
6.48912e-05
-9.65814e-06
6.67442e-05
-1.15742e-05
5.52212e-05
3.30377e-05
3.44931e-05
1.32254e-05
3.30082e-05
4.73597e-05
8.69322e-06
-1.44841e-05
6.36761e-05
6.17847e-05
-1.25728e-05
5.98665e-06
3.0057e-05
4.42565e-05
3.15563e-05
5.20079e-05
3.15347e-05
1.03463e-05
-1.44861e-05
6.36815e-05
6.17858e-05
-1.25762e-05
5.50705e-05
3.3035e-05
1.32609e-05
3.44913e-05
4.72803e-05
3.30115e-05
8.83646e-06
6.48137e-05
-9.64794e-06
6.66928e-05
-1.15432e-05
5.50832e-05
3.30396e-05
3.4496e-05
1.32459e-05
3.30139e-05
4.73044e-05
8.82883e-06
6.48151e-05
-9.64368e-06
6.67055e-05
-1.15449e-05
5.91129e-05
5.90887e-05
9.87595e-06
-4.46568e-06
-4.43626e-06
6.28838e-05
-1.05328e-05
-7.6048e-06
6.59076e-05
4.46368e-05
-1.5067e-06
-1.48964e-06
6.21172e-05
6.21015e-05
-7.57827e-06
6.58963e-05
5.94825e-06
3.00541e-05
4.42465e-05
3.15561e-05
5.20211e-05
3.15324e-05
1.03518e-05
-1.44995e-05
6.37001e-05
6.18097e-05
-1.25911e-05
-1.44963e-05
6.36847e-05
6.18044e-05
-1.25913e-05
5.51051e-05
3.30377e-05
3.44969e-05
1.32456e-05
3.30145e-05
4.73268e-05
8.82055e-06
5.51063e-05
3.304e-05
3.44974e-05
1.32599e-05
3.30133e-05
4.72964e-05
8.81548e-06
6.48418e-05
-9.65019e-06
6.67272e-05
-1.15575e-05
6.48371e-05
-9.65662e-06
6.67122e-05
-1.15576e-05
6.28698e-05
-1.05354e-05
6.28772e-05
-1.0542e-05
4.4635e-05
-1.4946e-06
-1.50235e-06
6.20903e-05
6.21041e-05
-7.58772e-06
6.58801e-05
-7.59823e-06
6.5894e-05
6.88864e-05
-4.61629e-06
6.89025e-05
-4.63183e-06
6.50953e-05
6.51137e-05
1.58168e-05
1.47223e-06
1.45722e-06
-1.63913e-06
7.18629e-05
-1.64921e-06
7.18803e-05
5.0607e-05
4.45711e-06
4.4505e-06
6.80688e-05
6.80883e-05
-8.59947e-06
6.97199e-05
6.78733e-05
-6.69505e-06
1.16906e-05
5.03473e-05
3.59771e-05
3.75027e-05
5.82046e-05
1.62003e-05
3.74667e-05
1.16875e-05
5.03342e-05
3.59761e-05
3.74982e-05
5.82042e-05
1.61934e-05
3.74659e-05
7.08429e-05
-3.69058e-06
7.27048e-05
-5.61126e-06
7.08378e-05
-3.69809e-06
7.26969e-05
-5.60775e-06
6.11588e-05
3.89938e-05
1.92009e-05
4.04503e-05
5.3324e-05
3.89585e-05
1.47939e-05
6.11602e-05
3.89902e-05
1.92152e-05
4.04519e-05
5.33119e-05
3.89584e-05
1.47938e-05
6.50943e-05
6.50837e-05
1.58105e-05
1.45673e-06
1.45787e-06
6.88792e-05
-4.62752e-06
-1.64899e-06
7.18639e-05
5.06008e-05
4.44727e-06
4.43303e-06
6.80778e-05
6.80855e-05
-1.66299e-06
7.18835e-05
1.16603e-05
5.03583e-05
3.5978e-05
3.75018e-05
5.82287e-05
1.6174e-05
3.74676e-05
-8.60521e-06
6.97347e-05
6.79009e-05
-6.69479e-06
1.16688e-05
3.59807e-05
5.03458e-05
3.75016e-05
5.82239e-05
3.74705e-05
1.61932e-05
7.08685e-05
-3.70124e-06
7.27176e-05
-5.62137e-06
6.11883e-05
3.89947e-05
1.92182e-05
4.04526e-05