/*--------------------------------*- C++ -*----------------------------------*\
| =========                 |                                                 |
| \\      /  F ield         | OpenFOAM: The Open Source CFD Toolbox           |
|  \\    /   O peration     | Version:  2206                                  |
|   \\  /    A nd           | Website:  www.openfoam.com                      |
|    \\/     M anipulation  |                                                 |
\*---------------------------------------------------------------------------*/
FoamFile
{
    version     2.0;
    format      ascii;
    arch        "LSB;label=32;scalar=64";
    class       surfaceScalarField;
    location    "3.5";
    object      phi;
}
// * * * * * * * * * * * * * * * * * * * * * * * * * * * * * * * * * * * * * //

dimensions      [0 3 -1 0 0 0 0];

oriented        oriented;

internalField   nonuniform List<scalar> 
83348
(
1.62208e-10
1.22491e-10
-0.00105853
-2.76272e-10
-3.34575e-10
0.00105853
-0.00105922
-1.15196e-06
-5.28318e-10
7.2252e-10
0.00105922
-2.11169e-07
1.15307e-06
2.10771e-07
8.20827e-07
-1.86676e-07
-8.21078e-07
1.86154e-07
-0.00105889
-1.1468e-06
-1.51898e-10
9.60712e-10
0.00105889
-2.08683e-07
1.14776e-06
2.07946e-07
8.20638e-07
-1.89682e-07
-8.21083e-07
1.88468e-07
-0.0002605
1.17966e-06
1.14688e-06
-2.01829e-07
-2.07022e-07
0.000258583
3.51219e-10
3.86463e-10
-0.00105853
-4.08179e-10
-3.89304e-10
0.00105853
-0.00105923
-1.15205e-06
-3.22398e-10
8.94823e-10
0.00105923
-2.11344e-07
1.1531e-06
2.10767e-07
8.20921e-07
-1.87007e-07
-8.21119e-07
1.86109e-07
-0.00105889
-1.14677e-06
-3.79454e-10
8.42045e-10
0.00105889
-2.08616e-07
1.14783e-06
2.08077e-07
8.2076e-07
-1.89557e-07
-8.20978e-07
1.88724e-07
-0.000260501
1.17961e-06
1.14688e-06
-2.01801e-07
-2.06939e-07
0.000258583
4.17605e-10
4.40711e-10
-0.00105853
-4.36519e-10
-4.28703e-10
0.00105853
-0.00105923
-1.15202e-06
-4.34953e-10
8.31937e-10
0.00105923
-2.11311e-07
1.15312e-06
2.10792e-07
8.20945e-07
-1.86962e-07
-8.21086e-07
1.8614e-07
-0.00105889
-1.14676e-06
-4.34214e-10
8.22136e-10
0.00105889
-2.08602e-07
1.14784e-06
2.08088e-07
8.20774e-07
-1.89536e-07
-8.2096e-07
1.8874e-07
-0.000260501
1.1796e-06
1.14687e-06
-2.01782e-07
-2.06925e-07
0.000258583
4.33537e-10
4.51373e-10
-0.00105853
-4.38347e-10
-4.35262e-10
0.00105853
-0.00105923
-1.15202e-06
-4.53042e-10
8.22451e-10
0.00105923
-2.11308e-07
1.15312e-06
2.10794e-07
8.20949e-07
-1.86957e-07
-8.21082e-07
1.86144e-07
-0.00105889
-1.14676e-06
-4.45283e-10
8.1834e-10
0.00105889
-2.086e-07
1.14784e-06
2.08089e-07
8.20777e-07
-1.89532e-07
-8.20956e-07
1.88743e-07
-0.000260501
1.17959e-06
1.14686e-06
-2.01779e-07
-2.06923e-07
0.000258583
4.26711e-10
4.45995e-10
-0.00105853
-4.37793e-10
-4.33238e-10
0.00105853
-0.00105923
-1.15202e-06
-4.47653e-10
8.24087e-10
0.00105923
-2.11308e-07
1.15312e-06
2.10793e-07
8.20946e-07
-1.86958e-07
-8.21083e-07
1.86141e-07
-0.00105889
-1.14676e-06
-4.44063e-10
8.16228e-10
0.00105889
-2.08599e-07
1.14784e-06
2.0809e-07
8.20775e-07
-1.89533e-07
-8.20958e-07
1.88742e-07
-0.000260501
1.17959e-06
1.14686e-06
-2.01778e-07
-2.06925e-07
0.000258583
4.37685e-10
4.54624e-10
-0.00105853
-4.38751e-10
-4.36253e-10
0.00105853
-0.00105923
-1.15202e-06
-4.61469e-10
8.20719e-10
0.00105923
-2.11305e-07
1.15312e-06
2.10795e-07
8.2095e-07
-1.86954e-07
-8.21078e-07
1.86145e-07
-0.00105889
-1.14675e-06
-4.55515e-10
8.16248e-10
0.00105889
-2.08597e-07
1.14785e-06
2.08091e-07
8.20779e-07
-1.89529e-07
-8.20953e-07
1.88745e-07
-0.000260501
1.17959e-06
1.14686e-06
-2.01774e-07
-2.06921e-07
0.000258583
4.20555e-10
4.35831e-10
-0.00105853
-4.32228e-10
-4.31239e-10
0.00105853
-0.00105923
-1.15202e-06
-4.41691e-10
8.30775e-10
0.00105923
-2.1131e-07
1.15312e-06
2.10791e-07
8.20944e-07
-1.8696e-07
-8.21084e-07
1.86139e-07
-0.00105889
-1.14676e-06
-4.32692e-10
8.28488e-10
0.00105889
-2.08602e-07
1.14784e-06
2.08086e-07
8.20772e-07
-1.89535e-07
-8.2096e-07
1.88738e-07
-0.000260501
1.1796e-06
1.14687e-06
-2.01779e-07
-2.06924e-07
0.000258583
4.22957e-10
4.39618e-10
-0.00105853
-4.32955e-10
-4.30895e-10
0.00105853
-0.00105923
-1.15202e-06
-4.47246e-10
8.25801e-10
0.00105923
-2.11308e-07
1.15312e-06
2.10792e-07
8.20945e-07
-1.86958e-07
-8.21083e-07
1.8614e-07
-0.00105889
-1.14676e-06
-4.38325e-10
8.22533e-10
0.00105889
-2.08601e-07
1.14784e-06
2.08087e-07
8.20774e-07
-1.89534e-07
-8.20958e-07
1.8874e-07
-0.000260501
1.17959e-06
1.14687e-06
-2.0178e-07
-2.06925e-07
0.000258583
4.16257e-10
4.33489e-10
-0.00105853
-4.32242e-10
-4.29404e-10
0.00105853
-0.00105923
-1.15203e-06
-4.36526e-10
8.33916e-10
0.00105923
-2.11312e-07
1.15311e-06
2.1079e-07
8.20944e-07
-1.86962e-07
-8.21087e-07
1.86139e-07
-0.00105889
-1.14676e-06
-4.20618e-10
8.2747e-10
0.00105889
-2.08604e-07
1.14784e-06
2.08087e-07
8.20775e-07
-1.89541e-07
-8.20965e-07
1.88742e-07
-0.000260501
1.1796e-06
1.14687e-06
-2.0178e-07
-2.06928e-07
0.000258583
4.21048e-10
4.18881e-10
-0.00105853
-4.44866e-10
-4.48201e-10
0.00105853
-0.00105923
-1.15203e-06
-4.45159e-10
8.35341e-10
0.00105923
-2.11318e-07
1.15312e-06
2.10791e-07
8.20947e-07
-1.86959e-07
-8.21084e-07
1.86143e-07
-0.00105889
-1.14676e-06
-4.19055e-10
8.04149e-10
0.00105889
-2.08601e-07
1.14785e-06
2.08091e-07
8.20776e-07
-1.89544e-07
-8.20967e-07
1.88744e-07
-0.000260501
1.17961e-06
1.14685e-06
-2.01773e-07
-2.0693e-07
0.000258583
3.2764e-10
-9.53274e-09
-0.00105852
-4.34424e-10
-4.27458e-10
0.00105854
-0.00105923
-1.15202e-06
-4.64088e-10
8.26064e-10
0.00105923
-2.11267e-07
1.15313e-06
2.10769e-07
8.20948e-07
-1.86956e-07
-8.2108e-07
1.86139e-07
-0.00105889
-1.14676e-06
-4.32494e-10
8.17433e-10
0.00105889
-2.08601e-07
1.14784e-06
2.0809e-07
8.20779e-07
-1.89542e-07
-8.20964e-07
1.88747e-07
-0.000260501
1.17959e-06
1.14686e-06
-2.01775e-07
-2.06925e-07
0.000258583
3.93426e-10
4.58593e-10
-0.00105854
-4.60389e-10
-4.18203e-10
0.00105854
-0.00105923
-1.15207e-06
-4.26404e-10
9.23184e-10
0.00105923
-2.08654e-07
1.15308e-06
2.0803e-07
8.20955e-07
-1.86932e-07
-8.2108e-07
1.86125e-07
-0.00105889
-1.14676e-06
-4.52086e-10
8.1709e-10
0.00105889
-2.086e-07
1.14785e-06
2.08091e-07
8.2078e-07
-1.89539e-07
-8.20963e-07
1.88749e-07
-0.000260501
1.17959e-06
1.14687e-06
-2.0178e-07
-2.06921e-07
0.000258583
4.08523e-10
4.5499e-10
-0.00105854
-4.42853e-10
-4.26248e-10
0.00105854
-0.00105923
-1.15203e-06
-4.55903e-10
8.37113e-10
0.00105923
-2.08608e-07
1.15313e-06
2.08083e-07
8.2095e-07
-1.86929e-07
-8.21079e-07
1.86123e-07
-0.00105889
-1.14675e-06
-4.62475e-10
8.15479e-10
0.00105889
-2.08597e-07
1.14785e-06
2.08093e-07
8.20783e-07
-1.89536e-07
-8.20959e-07
1.88752e-07
-0.000260501
1.17959e-06
1.14686e-06
-2.01776e-07
-2.06919e-07
0.000258583
4.12655e-10
4.42329e-10
-0.00105854
-4.35787e-10
-4.32089e-10
0.00105854
-0.00105923
-1.15203e-06
-4.48016e-10
8.30478e-10
0.00105923
-2.08606e-07
1.15313e-06
2.08084e-07
8.20946e-07
-1.86933e-07
-8.21082e-07
1.86118e-07
-0.00105889
-1.14676e-06
-4.46257e-10
8.22918e-10
0.00105889
-2.086e-07
1.14784e-06
2.08089e-07
8.20779e-07
-1.89539e-07
-8.20962e-07
1.88747e-07
-0.000260501
1.17959e-06
1.14686e-06
-2.01778e-07
-2.06923e-07
0.000258583
4.19055e-10
4.45162e-10
-0.00105854
-4.35833e-10
-4.34929e-10
0.00105854
-0.00105923
-1.15203e-06
-4.50757e-10
8.25391e-10
0.00105923
-2.08605e-07
1.15313e-06
2.08085e-07
8.20947e-07
-1.86931e-07
-8.21081e-07
1.86119e-07
-0.00105889
-1.14675e-06
-4.48572e-10
8.14358e-10
0.00105889
-2.08598e-07
1.14785e-06
2.08092e-07
8.2078e-07
-1.89538e-07
-8.20961e-07
1.88748e-07
-0.000260501
1.17959e-06
1.14686e-06
-2.01777e-07
-2.06922e-07
0.000258583
4.03451e-10
4.28928e-10
-0.00105854
-4.28299e-10
-4.28594e-10
0.00105854
-0.00105923
-1.15203e-06
-4.4016e-10
8.34003e-10
0.00105923
-2.08608e-07
1.15312e-06
2.08082e-07
8.20944e-07
-1.86936e-07
-8.21085e-07
1.86116e-07
-0.00105889
-1.14676e-06
-4.36537e-10
8.25881e-10
0.00105889
-2.08603e-07
1.14784e-06
2.08088e-07
8.20776e-07
-1.89542e-07
-8.20965e-07
1.88744e-07
-0.000260501
1.1796e-06
1.14687e-06
-2.01779e-07
-2.06925e-07
0.000258583
4.20304e-10
4.42955e-10
-0.00105854
-4.37863e-10
-4.40167e-10
0.00105854
-0.00105923
-1.15203e-06
-4.5898e-10
8.2539e-10
0.00105923
-2.08605e-07
1.15313e-06
2.08087e-07
8.20948e-07
-1.86933e-07
-8.21082e-07
1.86121e-07
-0.00105889
-1.14676e-06
-4.56924e-10
8.18775e-10
0.00105889
-2.08599e-07
1.14785e-06
2.08092e-07
8.20779e-07
-1.89539e-07
-8.20961e-07
1.8875e-07
-0.000260501
1.17959e-06
1.14686e-06
-2.01777e-07
-2.06924e-07
0.000258583
6.58583e-10
6.83016e-10
-0.00105854
-5.35367e-10
-5.34195e-10
-0.00105923
-1.15196e-06
-6.93124e-10
7.18139e-10
-2.08511e-07
1.15316e-06
2.08132e-07
8.21011e-07
-1.86791e-07
-8.2098e-07
1.86175e-07
-0.00105889
-1.14669e-06
-6.8862e-10
7.11073e-10
-2.08506e-07
1.14788e-06
2.08138e-07
8.20842e-07
-1.89397e-07
-8.20859e-07
1.88803e-07
-0.000260501
1.17953e-06
1.1468e-06
-2.01702e-07
-2.06846e-07
0.000258583
-1.18843e-06
-1.15052e-06
0.000260516
-0.000258588
2.00401e-07
2.10458e-07
0.00105845
-5.39093e-10
-0.00105845
8.58088e-10
-1.18732e-06
2.15984e-07
-2.16418e-07
-8.23556e-07
1.83439e-07
-1.83922e-07
8.23366e-07
1.19126e-06
0.00105889
-6.6843e-10
-0.00105889
5.86559e-10
-1.19e-06
2.16226e-07
-2.16458e-07
-8.29063e-07
1.88958e-07
-1.89337e-07
8.28913e-07
-1.15317e-06
0.000260539
-0.000258606
2.03187e-07
2.07975e-07
0.00105949
-5.38523e-10
-0.0010595
7.61836e-10
-1.14939e-06
2.10799e-07
-2.11193e-07
-8.23661e-07
1.88823e-07
-1.89308e-07
8.23492e-07
1.18589e-06
0.00105857
-5.08024e-10
-0.00105857
8.03024e-10
-1.18478e-06
2.16038e-07
-2.16457e-07
-8.23615e-07
1.88769e-07
-1.89267e-07
8.23417e-07
-8.64454e-10
6.31954e-10
-1.15193e-06
2.10917e-07
-2.11158e-07
-8.20904e-07
1.86408e-07
8.20994e-07
-1.86712e-07
1.18062e-06
0.00105837
-6.97059e-10
-0.00105837
8.50402e-10
-1.17952e-06
2.1062e-07
-2.11041e-07
-8.20883e-07
1.8626e-07
-1.86522e-07
8.20908e-07
-1.1478e-06
0.000260495
-0.00025857
2.00534e-07
2.07786e-07
-5.59498e-10
-0.00105889
7.86647e-10
-1.14669e-06
2.08057e-07
-2.0846e-07
-8.20832e-07
1.88746e-07
8.20705e-07
-1.89235e-07
1.14793e-06
0.0010594
-5.13335e-10
-0.0010594
7.20247e-10
-1.14678e-06
2.08139e-07
-2.08504e-07
-8.21105e-07
1.88813e-07
-1.89287e-07
8.20928e-07
-0.000258583
2.02882e-07
2.07974e-07
1.18744e-06
1.1495e-06
-1.99418e-07
-2.09485e-07
0.000258588
-1.18845e-06
-1.15053e-06
0.000260516
-0.000258588
2.00391e-07
2.10456e-07
1.05782e-09
0.00105845
-2.16644e-07
1.18838e-06
2.1587e-07
8.23356e-07
-1.84389e-07
-8.23747e-07
1.83132e-07
-1.19003e-06
-3.5914e-10
7.0246e-10
0.00105889
-2.16459e-07
1.19379e-06
2.1877e-07
8.28875e-07
-1.8952e-07
-8.29197e-07
1.88666e-07
0.00105845
-2.82034e-10
-0.00105845
8.82804e-10
-1.18741e-06
2.15993e-07
-2.16581e-07
-8.23678e-07
1.83364e-07
-1.8429e-07
8.23448e-07
1.19116e-06
0.00105889
-2.25607e-10
-0.00105889
9.6993e-10
-1.19277e-06
2.1603e-07
-2.19366e-07
-8.29194e-07
1.88717e-07
-1.89709e-07
8.28945e-07
-2.019e-07
-2.06637e-07
0.000258606
-1.15309e-06
0.000260539
-0.000258606
2.03033e-07
2.07792e-07
9.35364e-10
0.0010595
-2.11415e-07
1.15048e-06
2.10687e-07
8.23472e-07
-1.89777e-07
-8.23868e-07
1.8852e-07
-1.18489e-06
-1.15402e-10
9.78951e-10
0.00105857
-2.1668e-07
1.18585e-06
2.15925e-07
8.23396e-07
-1.89725e-07
-8.23821e-07
1.88475e-07
0.0010595
-3.38296e-10
-0.0010595
8.66815e-10
-1.14949e-06
2.10798e-07
-2.11364e-07
-8.23776e-07
1.88758e-07
-1.89671e-07
8.23584e-07
1.18591e-06
0.00105857
-2.90938e-10
-0.00105857
8.93782e-10
-1.18488e-06
2.16038e-07
-2.16627e-07
-8.23732e-07
1.88704e-07
-1.89626e-07
8.23507e-07
-2.98651e-10
1.05147e-09
0.00105837
-2.1127e-07
1.18055e-06
2.10487e-07
8.20756e-07
-1.86808e-07
1.85859e-07
-8.21125e-07
-2.35415e-10
-0.00105923
9.35358e-10
-1.15207e-06
2.10741e-07
-2.11375e-07
-8.21145e-07
1.86058e-07
8.209e-07
-1.87075e-07
1.18065e-06
0.00105837
-2.49233e-10
-0.00105837
8.83033e-10
-1.17962e-06
2.10628e-07
-2.1121e-07
-8.21115e-07
1.85987e-07
-1.86945e-07
8.20866e-07
-1.99561e-07
-2.06806e-07
0.00025857
-1.14782e-06
0.000260496
-0.00025857
2.0053e-07
2.07777e-07
-9.72907e-11
8.9539e-10
0.0010594
-2.08702e-07
1.14789e-06
2.08023e-07
8.209e-07
-1.89763e-07
1.885e-07
-8.21317e-07
-3.32758e-10
-0.00105889
8.602e-10
-1.14678e-06
2.08062e-07
-2.08627e-07
-8.2095e-07
1.88679e-07
8.20794e-07
-1.89599e-07
1.14792e-06
0.0010594
-3.24338e-10
-0.0010594
8.81384e-10
-1.1469e-06
2.08108e-07
-2.08694e-07
-8.21222e-07
1.88746e-07
-1.89654e-07
8.21022e-07
-0.000258583
2.02822e-07
2.0798e-07
1.1874e-06
1.14948e-06
-1.99351e-07
-2.09409e-07
0.000258588
-1.18847e-06
-1.15055e-06
0.000260516
-0.000258588
2.00414e-07
2.1048e-07
8.61934e-10
0.00105845
-2.16569e-07
1.18847e-06
2.1601e-07
8.2347e-07
-1.84269e-07
-8.23652e-07
1.83384e-07
-1.19015e-06
-3.16348e-10
9.38877e-10
0.00105889
-2.16665e-07
1.19378e-06
2.18728e-07
8.28961e-07
-1.89661e-07
-8.2917e-07
1.88753e-07
0.00105845
-3.99975e-10
-0.00105845
8.49319e-10
-1.18739e-06
2.16019e-07
-2.16549e-07
-8.23645e-07
1.834e-07
-1.84244e-07
8.23479e-07
1.1938e-06
0.00105889
-3.94759e-10
-0.00105889
8.76978e-10
-1.19272e-06
2.18758e-07
-2.19296e-07
-8.29149e-07
1.88774e-07
-1.89624e-07
8.28981e-07
-2.02015e-07
-2.0679e-07
0.000258606
-1.15311e-06
0.000260542
-0.000258606
2.03104e-07
2.0784e-07
8.5006e-10
0.0010595
-2.11353e-07
1.15054e-06
2.10813e-07
8.23598e-07
-1.89648e-07
-8.23758e-07
1.88781e-07
-1.18487e-06
-3.55846e-10
8.75209e-10
0.00105857
-2.16616e-07
1.18592e-06
2.16054e-07
8.23523e-07
-1.896e-07
-8.23709e-07
1.8873e-07
0.0010595
-4.51176e-10
-0.0010595
8.22426e-10
-1.14947e-06
2.10824e-07
-2.11333e-07
-8.23741e-07
1.88794e-07
-1.89624e-07
8.23615e-07
1.18593e-06
0.00105857
-4.02211e-10
-0.00105857
8.5158e-10
-1.18485e-06
2.16064e-07
-2.16595e-07
-8.23699e-07
1.88738e-07
-1.8958e-07
8.23536e-07
-3.22852e-10
8.56336e-10
0.00105837
-2.11195e-07
1.18066e-06
2.10644e-07
8.20885e-07
-1.86907e-07
1.8602e-07
-8.21093e-07
-4.27264e-10
-0.00105923
8.40695e-10
-1.15203e-06
2.10788e-07
-2.11308e-07
-8.21092e-07
1.86132e-07
8.20944e-07
-1.86962e-07
1.18067e-06
0.00105837
-3.88008e-10
-0.00105837
8.55877e-10
-1.1796e-06
2.1065e-07
-2.1118e-07
-8.21074e-07
1.86034e-07
-1.86877e-07
8.20903e-07
-1.99487e-07
-2.06737e-07
0.00025857
-1.14784e-06
0.000260496
-0.00025857
2.00552e-07
2.07801e-07
-3.87738e-10
8.60645e-10
0.0010594
-2.08677e-07
1.14793e-06
2.08125e-07
8.21039e-07
-1.89629e-07
1.88773e-07
-8.21201e-07
-4.40297e-10
-0.00105889
8.19166e-10
-1.14676e-06
2.08086e-07
-2.08596e-07
-8.20916e-07
1.88713e-07
8.20823e-07
-1.89554e-07
1.14794e-06
0.0010594
-4.28878e-10
-0.0010594
8.35796e-10
-1.14687e-06
2.08135e-07
-2.08657e-07
-8.21188e-07
1.8878e-07
-1.89608e-07
8.21051e-07
-0.000258583
2.02849e-07
2.08001e-07
1.18739e-06
1.14947e-06
-1.99336e-07
-2.09393e-07
0.000258588
-1.18848e-06
-1.15056e-06
0.000260516
-0.000258588
2.00416e-07
2.10481e-07
8.51218e-10
0.00105845
-2.16554e-07
1.18848e-06
2.16022e-07
8.23487e-07
-1.84247e-07
-8.23632e-07
1.83402e-07
-1.19272e-06
-4.11389e-10
8.67919e-10
0.00105889
-2.19299e-07
1.1938e-06
2.18761e-07
8.28984e-07
-1.89623e-07
-8.29143e-07
1.88783e-07
0.00105845
-4.15275e-10
-0.00105845
8.50443e-10
-1.18739e-06
2.16021e-07
-2.16546e-07
-8.2364e-07
1.83403e-07
-1.84239e-07
8.23482e-07
1.19381e-06
0.00105889
-4.16391e-10
-0.00105889
8.53432e-10
-1.19272e-06
2.18764e-07
-2.19288e-07
-8.29143e-07
1.88778e-07
-1.89616e-07
8.28984e-07
-2.0202e-07
-2.06758e-07
0.000258606
-1.15312e-06
0.000260542
-0.000258606
2.03107e-07
2.07844e-07
8.23944e-10
0.0010595
-2.11338e-07
1.15055e-06
2.10825e-07
8.23613e-07
-1.89627e-07
-8.2374e-07
1.88796e-07
-1.18485e-06
-4.127e-10
8.55011e-10
0.00105857
-2.16601e-07
1.18593e-06
2.16065e-07
8.23539e-07
-1.8958e-07
-8.23691e-07
1.88745e-07
0.0010595
-4.58937e-10
-0.0010595
8.15033e-10
-1.14946e-06
2.10826e-07
-2.11329e-07
-8.23737e-07
1.88796e-07
-1.89619e-07
8.23617e-07
1.18593e-06
0.00105857
-4.13827e-10
-0.00105857
8.4223e-10
-1.18485e-06
2.16067e-07
-2.16591e-07
-8.23695e-07
1.88741e-07
-1.89575e-07
8.23539e-07
-4.0615e-10
8.47837e-10
0.00105837
-2.11181e-07
1.18067e-06
2.10654e-07
8.20907e-07
-1.86876e-07
1.86044e-07
-8.21066e-07
-4.58998e-10
-0.00105923
8.25517e-10
-1.15202e-06
2.10793e-07
-2.11301e-07
-8.21084e-07
1.86138e-07
8.20949e-07
-1.86954e-07
1.18067e-06
0.00105837
-4.19388e-10
-0.00105837
8.47701e-10
-1.17959e-06
2.10654e-07
-2.11174e-07
-8.21065e-07
1.8604e-07
-1.86869e-07
8.20909e-07
-1.99473e-07
-2.06722e-07
0.00025857
-1.14784e-06
0.000260496
-0.00025857
2.00554e-07
2.07803e-07
-4.40016e-10
8.29456e-10
0.0010594
-2.08658e-07
1.14795e-06
2.08139e-07
8.21054e-07
-1.89608e-07
1.8879e-07
-8.21182e-07
-4.57767e-10
-0.00105889
8.15153e-10
-1.14675e-06
2.08089e-07
-2.08592e-07
-8.20911e-07
1.88717e-07
8.20827e-07
-1.89549e-07
1.14795e-06
0.0010594
-4.47007e-10
-0.0010594
8.17714e-10
-1.14686e-06
2.0814e-07
-2.08651e-07
-8.21182e-07
1.88785e-07
-1.89601e-07
8.21055e-07
-0.000258583
2.02853e-07
2.08005e-07
1.18739e-06
1.14947e-06
-1.99333e-07
-2.09392e-07
0.000258588
-1.18847e-06
-1.15056e-06
0.000260516
-0.000258588
2.00417e-07
2.10481e-07
8.47352e-10
0.00105845
-2.16552e-07
1.18848e-06
2.16024e-07
8.2349e-07
-1.84243e-07
-8.23628e-07
1.83406e-07
-1.19272e-06
-4.26658e-10
8.5352e-10
0.00105889
-2.19294e-07
1.19381e-06
2.18766e-07
8.28987e-07
-1.89619e-07
-8.29139e-07
1.88785e-07
0.00105845
-4.15551e-10
-0.00105845
8.49851e-10
-1.18739e-06
2.16021e-07
-2.16546e-07
-8.2364e-07
1.83404e-07
-1.84239e-07
8.23482e-07
1.19381e-06
0.00105889
-4.13646e-10
-0.00105889
8.58102e-10
-1.19272e-06
2.18762e-07
-2.19288e-07
-8.29144e-07
1.88777e-07
-1.89618e-07
8.28983e-07
-2.02018e-07
-2.06754e-07
0.000258606
-1.15312e-06
0.000260542
-0.000258606
2.03107e-07
2.07843e-07
8.14067e-10
0.0010595
-2.11334e-07
1.15056e-06
2.10828e-07
8.23616e-07
-1.89624e-07
-8.23737e-07
1.88799e-07
-1.18485e-06
-4.22816e-10
8.47584e-10
0.00105857
-2.16598e-07
1.18593e-06
2.16068e-07
8.23542e-07
-1.89577e-07
-8.23689e-07
1.88748e-07
0.0010595
-4.60505e-10
-0.0010595
8.13213e-10
-1.14946e-06
2.10827e-07
-2.11328e-07
-8.23737e-07
1.88797e-07
-1.89619e-07
8.23617e-07
1.18593e-06
0.00105857
-4.15609e-10
-0.00105857
8.44394e-10
-1.18485e-06
2.16066e-07
-2.16591e-07
-8.23694e-07
1.88742e-07
-1.89575e-07
8.23539e-07
-4.20608e-10
8.46175e-10
0.00105837
-2.11179e-07
1.18067e-06
2.10655e-07
8.2091e-07
-1.86872e-07
1.86047e-07
-8.21062e-07
-4.52388e-10
-0.00105923
8.28343e-10
-1.15202e-06
2.10791e-07
-2.11302e-07
-8.21085e-07
1.86136e-07
8.20947e-07
-1.86956e-07
1.18067e-06
0.00105837
-4.10854e-10
-0.00105837
8.53761e-10
-1.17959e-06
2.10652e-07
-2.11177e-07
-8.21067e-07
1.86038e-07
-1.86871e-07
8.20907e-07
-1.99472e-07
-2.06719e-07
0.00025857
-1.14784e-06
0.000260496
-0.00025857
2.00555e-07
2.07803e-07
-4.47613e-10
8.20989e-10
0.0010594
-2.08655e-07
1.14795e-06
2.08142e-07
8.21055e-07
-1.89605e-07
1.88792e-07
-8.21179e-07
-4.53289e-10
-0.00105889
8.12401e-10
-1.14675e-06
2.08089e-07
-2.08592e-07
-8.20912e-07
1.88716e-07
8.20825e-07
-1.89549e-07
1.14795e-06
0.0010594
-4.39756e-10
-0.0010594
8.19111e-10
-1.14686e-06
2.08141e-07
-2.08651e-07
-8.21185e-07
1.88782e-07
-1.89605e-07
8.21052e-07
-0.000258583
2.02854e-07
2.08003e-07
1.18739e-06
1.14947e-06
-1.99333e-07
-2.09392e-07
0.000258588
-1.18847e-06
-1.15056e-06
0.000260516
-0.000258588
2.00417e-07
2.1048e-07
8.49965e-10
0.00105845
-2.16553e-07
1.18847e-06
2.16021e-07
8.23488e-07
-1.84244e-07
-8.23628e-07
1.83403e-07
-1.19272e-06
-4.20799e-10
8.56874e-10
0.00105889
-2.19295e-07
1.19381e-06
2.18763e-07
8.28984e-07
-1.8962e-07
-8.2914e-07
1.88783e-07
0.00105845
-4.2022e-10
-0.00105845
8.49171e-10
-1.18739e-06
2.1602e-07
-2.16545e-07
-8.23637e-07
1.83404e-07
-1.84236e-07
8.23483e-07
1.19381e-06
0.00105889
-4.19982e-10
-0.00105889
8.51367e-10
-1.19272e-06
2.18763e-07
-2.19287e-07
-8.29141e-07
1.88779e-07
-1.89614e-07
8.28984e-07
-2.02018e-07
-2.06755e-07
0.000258606
-1.15312e-06
0.000260542
-0.000258606
2.03108e-07
2.07844e-07
8.16795e-10
0.0010595
-2.11334e-07
1.15055e-06
2.10827e-07
8.23613e-07
-1.89624e-07
-8.23737e-07
1.88797e-07
-1.18485e-06
-4.19814e-10
8.48368e-10
0.00105857
-2.16598e-07
1.18593e-06
2.16067e-07
8.2354e-07
-1.89577e-07
-8.23688e-07
1.88747e-07
0.0010595
-4.62751e-10
-0.0010595
8.10957e-10
-1.14946e-06
2.10827e-07
-2.11326e-07
-8.23735e-07
1.88796e-07
-1.89617e-07
8.23617e-07
1.18593e-06
0.00105857
-4.1931e-10
-0.00105857
8.39611e-10
-1.18485e-06
2.16067e-07
-2.16589e-07
-8.23692e-07
1.88742e-07
-1.89572e-07
8.23539e-07
-4.13369e-10
8.48229e-10
0.00105837
-2.1118e-07
1.18067e-06
2.10653e-07
8.20907e-07
-1.86873e-07
1.86045e-07
-8.21063e-07
-4.64372e-10
-0.00105923
8.22978e-10
-1.15202e-06
2.10793e-07
-2.11299e-07
-8.21081e-07
1.86138e-07
8.20949e-07
-1.86952e-07
1.18067e-06
0.00105837
-4.25539e-10
-0.00105837
8.45448e-10
-1.17959e-06
2.10654e-07
-2.11173e-07
-8.21062e-07
1.86042e-07
-1.86866e-07
8.2091e-07
-1.99471e-07
-2.0672e-07
0.00025857
-1.14784e-06
0.000260496
-0.00025857
2.00554e-07
2.07803e-07
-4.44405e-10
8.21785e-10
0.0010594
-2.08654e-07
1.14795e-06
2.08141e-07
8.21053e-07
-1.89606e-07
1.88789e-07
-8.21182e-07
-4.62775e-10
-0.00105889
8.12064e-10
-1.14675e-06
2.08089e-07
-2.0859e-07
-8.20908e-07
1.88717e-07
8.20827e-07
-1.89546e-07
1.14795e-06
0.0010594
-4.51757e-10
-0.0010594
8.12337e-10
-1.14686e-06
2.08142e-07
-2.08647e-07
-8.2118e-07
1.88785e-07
-1.89599e-07
8.21055e-07
-0.000258583
2.02855e-07
2.08004e-07
1.18739e-06
1.14946e-06
-1.99331e-07
-2.09391e-07
0.000258588
-1.18847e-06
-1.15055e-06
0.000260516
-0.000258588
2.00414e-07
2.10479e-07
8.46457e-10
0.00105845
-2.16551e-07
1.18848e-06
2.16023e-07
8.23491e-07
-1.84241e-07
-8.23625e-07
1.83406e-07
-1.19272e-06
-4.28877e-10
8.50113e-10
0.00105889
-2.19292e-07
1.19381e-06
2.18765e-07
8.28987e-07
-1.89616e-07
-8.29137e-07
1.88786e-07
0.00105845
-4.09907e-10
-0.00105845
8.56694e-10
-1.18739e-06
2.16018e-07
-2.16548e-07
-8.2364e-07
1.83401e-07
-1.8424e-07
8.2348e-07
1.1938e-06
0.00105889
-4.09712e-10
-0.00105889
8.5865e-10
-1.19272e-06
2.18761e-07
-2.19289e-07
-8.29144e-07
1.88775e-07
-1.89618e-07
8.28981e-07
-2.02015e-07
-2.06752e-07
0.000258606
-1.15312e-06
0.000260542
-0.000258606
2.03105e-07
2.07842e-07
8.11503e-10
0.0010595
-2.11332e-07
1.15056e-06
2.10829e-07
8.23616e-07
-1.89622e-07
-8.23735e-07
1.888e-07
-1.18485e-06
-4.25688e-10
8.43487e-10
0.00105857
-2.16595e-07
1.18594e-06
2.16069e-07
8.23542e-07
-1.89574e-07
-8.23686e-07
1.88749e-07
0.0010595
-4.51004e-10
-0.0010595
8.1928e-10
-1.14947e-06
2.10824e-07
-2.1133e-07
-8.23738e-07
1.88793e-07
-1.89621e-07
8.23614e-07
1.18593e-06
0.00105857
-4.06876e-10
-0.00105857
8.49014e-10
-1.18485e-06
2.16064e-07
-2.16592e-07
-8.23696e-07
1.88738e-07
-1.89576e-07
8.23536e-07
-4.33052e-10
8.38275e-10
0.00105837
-2.11175e-07
1.18067e-06
2.10657e-07
8.20913e-07
-1.86867e-07
1.8605e-07
-8.21057e-07
-4.51209e-10
-0.00105923
8.30737e-10
-1.15202e-06
2.1079e-07
-2.11303e-07
-8.21085e-07
1.86135e-07
8.20946e-07
-1.86956e-07
1.18067e-06
0.00105837
-4.1255e-10
-0.00105837
8.56001e-10
-1.17959e-06
2.10651e-07
-2.11177e-07
-8.21067e-07
1.86037e-07
-1.86871e-07
8.20907e-07
-1.99469e-07
-2.06717e-07
0.00025857
-1.14784e-06
0.000260496
-0.00025857
2.00552e-07
2.07801e-07
-4.60326e-10
8.11821e-10
0.0010594
-2.0865e-07
1.14795e-06
2.08145e-07
8.21058e-07
-1.89601e-07
1.88794e-07
-8.21176e-07
-4.48094e-10
-0.00105889
8.21152e-10
-1.14676e-06
2.08086e-07
-2.08593e-07
-8.20912e-07
1.88713e-07
8.20823e-07
-1.89551e-07
1.14794e-06
0.0010594
-4.36119e-10
-0.0010594
8.2311e-10
-1.14686e-06
2.08138e-07
-2.08652e-07
-8.21184e-07
1.88781e-07
-1.89605e-07
8.21051e-07
-0.000258583
2.02852e-07
2.08002e-07
1.18739e-06
1.14947e-06
-1.99334e-07
-2.09393e-07
0.000258588
-1.18847e-06
-1.15055e-06
0.000260516
-0.000258588
2.00413e-07
2.10478e-07
8.57344e-10
0.00105845
-2.16554e-07
1.18847e-06
2.1602e-07
8.23486e-07
-1.84246e-07
-8.2363e-07
1.83401e-07
-1.19272e-06
-4.12668e-10
8.61276e-10
0.00105889
-2.19296e-07
1.1938e-06
2.18762e-07
8.28982e-07
-1.89622e-07
-8.29142e-07
1.8878e-07
0.00105845
-4.08721e-10
-0.00105845
8.55144e-10
-1.18739e-06
2.16017e-07
-2.16548e-07
-8.23641e-07
1.834e-07
-1.8424e-07
8.23479e-07
1.1938e-06
0.00105889
-4.10096e-10
-0.00105889
8.5936e-10
-1.19272e-06
2.1876e-07
-2.1929e-07
-8.29144e-07
1.88775e-07
-1.89618e-07
8.2898e-07
-2.02019e-07
-2.06755e-07
0.000258606
-1.15312e-06
0.000260542
-0.000258606
2.03105e-07
2.0784e-07
8.22399e-10
0.0010595
-2.11336e-07
1.15055e-06
2.10824e-07
8.23611e-07
-1.89627e-07
-8.23739e-07
1.88794e-07
-1.18485e-06
-4.07721e-10
8.56675e-10
0.00105857
-2.166e-07
1.18593e-06
2.16064e-07
8.23537e-07
-1.8958e-07
-8.23691e-07
1.88743e-07
0.0010595
-4.51189e-10
-0.0010595
8.17377e-10
-1.14947e-06
2.10824e-07
-2.1133e-07
-8.23739e-07
1.88793e-07
-1.89621e-07
8.23613e-07
1.18593e-06
0.00105857
-4.08865e-10
-0.00105857
8.48303e-10
-1.18485e-06
2.16063e-07
-2.16593e-07
-8.23696e-07
1.88738e-07
-1.89576e-07
8.23536e-07
-4.08511e-10
8.5564e-10
0.00105837
-2.11181e-07
1.18067e-06
2.10651e-07
8.20905e-07
-1.86874e-07
1.86042e-07
-8.21064e-07
-4.4906e-10
-0.00105923
8.28499e-10
-1.15202e-06
2.1079e-07
-2.11303e-07
-8.21085e-07
1.86133e-07
8.20944e-07
-1.86957e-07
1.18067e-06
0.00105837
-4.07132e-10
-0.00105837
8.57904e-10
-1.17959e-06
2.10649e-07
-2.11178e-07
-8.21068e-07
1.86035e-07
-1.86872e-07
8.20904e-07
-1.99473e-07
-2.06721e-07
0.00025857
-1.14784e-06
0.000260496
-0.00025857
2.00551e-07
2.078e-07
-4.34268e-10
8.29003e-10
0.0010594
-2.08657e-07
1.14794e-06
2.08138e-07
8.21051e-07
-1.89607e-07
1.88787e-07
-8.21182e-07
-4.46646e-10
-0.00105889
8.18073e-10
-1.14675e-06
2.08086e-07
-2.08594e-07
-8.20913e-07
1.88712e-07
8.20822e-07
-1.89551e-07
1.14794e-06
0.0010594
-4.31571e-10
-0.0010594
8.25287e-10
-1.14687e-06
2.08136e-07
-2.08653e-07
-8.21185e-07
1.88779e-07
-1.89605e-07
8.21049e-07
-0.000258583
2.02849e-07
2.08e-07
1.18739e-06
1.14947e-06
-1.99334e-07
-2.09393e-07
0.000258588
-1.18847e-06
-1.15055e-06
0.000260516
-0.000258588
2.00414e-07
2.10479e-07
8.55424e-10
0.00105845
-2.16554e-07
1.18847e-06
2.16019e-07
8.23486e-07
-1.84245e-07
-8.23629e-07
1.83401e-07
-1.19272e-06
-4.17672e-10
8.58741e-10
0.00105889
-2.19296e-07
1.1938e-06
2.18761e-07
8.28983e-07
-1.8962e-07
-8.2914e-07
1.88782e-07
0.00105845
-4.04191e-10
-0.00105845
8.57879e-10
-1.18739e-06
2.16018e-07
-2.1655e-07
-8.23643e-07
1.834e-07
-1.84243e-07
8.23479e-07
1.1938e-06
0.00105889
-4.0368e-10
-0.00105889
8.63268e-10
-1.19272e-06
2.18759e-07
-2.19292e-07
-8.29147e-07
1.88774e-07
-1.8962e-07
8.2898e-07
-2.02018e-07
-2.06755e-07
0.000258606
-1.15311e-06
0.000260542
-0.000258606
2.03104e-07
2.07841e-07
8.21032e-10
0.0010595
-2.11336e-07
1.15055e-06
2.10824e-07
8.23611e-07
-1.89626e-07
-8.23738e-07
1.88795e-07
-1.18485e-06
-4.14731e-10
8.53192e-10
0.00105857
-2.166e-07
1.18593e-06
2.16064e-07
8.23539e-07
-1.89578e-07
-8.23689e-07
1.88745e-07
0.0010595
-4.46623e-10
-0.0010595
8.20664e-10
-1.14947e-06
2.10824e-07
-2.11332e-07
-8.23741e-07
1.88793e-07
-1.89624e-07
8.23613e-07
1.18593e-06
0.00105857
-4.0241e-10
-0.00105857
8.52024e-10
-1.18485e-06
2.16063e-07
-2.16595e-07
-8.23698e-07
1.88738e-07
-1.89579e-07
8.23535e-07
-4.14227e-10
8.51333e-10
0.00105837
-2.11181e-07
1.18067e-06
2.10652e-07
8.20907e-07
-1.86873e-07
1.86044e-07
-8.21063e-07
-4.44404e-10
-0.00105923
8.34233e-10
-1.15202e-06
2.10789e-07
-2.11305e-07
-8.21087e-07
1.86133e-07
8.20945e-07
-1.86959e-07
1.18067e-06
0.00105837
-4.05022e-10
-0.00105837
8.59634e-10
-1.1796e-06
2.10649e-07
-2.1118e-07
-8.2107e-07
1.86036e-07
-1.86874e-07
8.20905e-07
-1.99472e-07
-2.06721e-07
0.00025857
-1.14784e-06
0.000260496
-0.00025857
2.00551e-07
2.078e-07
-4.39953e-10
8.25402e-10
0.0010594
-2.08656e-07
1.14795e-06
2.08139e-07
8.21052e-07
-1.89607e-07
1.88788e-07
-8.21182e-07
-4.46972e-10
-0.00105889
8.23018e-10
-1.14676e-06
2.08085e-07
-2.08595e-07
-8.20915e-07
1.88714e-07
8.20824e-07
-1.89554e-07
1.14794e-06
0.0010594
-4.29296e-10
-0.0010594
8.2672e-10
-1.14687e-06
2.08137e-07
-2.08654e-07
-8.21187e-07
1.88779e-07
-1.89607e-07
8.21049e-07
-0.000258583
2.02851e-07
2.08e-07
1.18739e-06
1.14947e-06
-1.99336e-07
-2.09395e-07
0.000258588
-1.18847e-06
-1.15055e-06
0.000260516
-0.000258588
2.00421e-07
2.10477e-07
8.57615e-10
0.00105845
-2.16557e-07
1.18847e-06
2.16019e-07
8.23486e-07
-1.84249e-07
-8.23633e-07
1.83401e-07
-1.19272e-06
-4.06675e-10
8.6618e-10
0.00105889
-2.19299e-07
1.1938e-06
2.1876e-07
8.28982e-07
-1.89624e-07
-8.29144e-07
1.8878e-07
0.00105845
-3.95874e-10
-0.00105845
8.45792e-10
-1.18739e-06
2.16021e-07
-2.16545e-07
-8.23641e-07
1.83411e-07
-1.84241e-07
8.23484e-07
1.1938e-06
0.00105889
-3.78235e-10
-0.00105889
8.85093e-10
-1.19272e-06
2.18758e-07
-2.19294e-07
-8.29152e-07
1.88773e-07
-1.89629e-07
8.28977e-07
-2.02022e-07
-2.06757e-07
0.000258606
-1.15311e-06
0.000260542
-0.000258606
2.03104e-07
2.0784e-07
8.23715e-10
0.0010595
-2.11338e-07
1.15055e-06
2.10825e-07
8.23611e-07
-1.89629e-07
-8.23742e-07
1.88794e-07
-1.18486e-06
-4.05436e-10
8.58896e-10
0.00105857
-2.16603e-07
1.18593e-06
2.16063e-07
8.23537e-07
-1.89582e-07
-8.23693e-07
1.88744e-07
0.0010595
-4.29688e-10
-0.0010595
8.14412e-10
-1.14947e-06
2.10825e-07
-2.11329e-07
-8.23744e-07
1.88788e-07
-1.89626e-07
8.23608e-07
1.18593e-06
0.00105857
-3.87571e-10
-0.00105857
8.59028e-10
-1.18486e-06
2.16059e-07
-2.16598e-07
-8.237e-07
1.88735e-07
-1.89581e-07
8.23533e-07
-4.01684e-10
8.57142e-10
0.00105837
-2.11184e-07
1.18067e-06
2.1065e-07
8.20905e-07
-1.86877e-07
1.86043e-07
-8.21067e-07
-4.36583e-10
-0.00105923
8.43506e-10
-1.15203e-06
2.10787e-07
-2.11311e-07
-8.21089e-07
1.86132e-07
8.20944e-07
-1.8696e-07
1.18066e-06
0.00105837
-3.70754e-10
-0.00105837
8.62521e-10
-1.1796e-06
2.10642e-07
-2.11185e-07
-8.21074e-07
1.8603e-07
-1.86879e-07
8.209e-07
-1.99475e-07
-2.06723e-07
0.00025857
-1.14784e-06
0.000260496
-0.00025857
2.00552e-07
2.07797e-07
-4.27782e-10
8.30564e-10
0.0010594
-2.08658e-07
1.14794e-06
2.08138e-07
8.21049e-07
-1.8961e-07
1.88785e-07
-8.21185e-07
-4.27369e-10
-0.00105889
8.19398e-10
-1.14676e-06
2.08088e-07
-2.08594e-07
-8.20924e-07
1.88715e-07
8.20823e-07
-1.89564e-07
1.14795e-06
0.0010594
-3.88303e-10
-0.0010594
8.28194e-10
-1.14686e-06
2.08145e-07
-2.08649e-07
-8.21186e-07
1.88782e-07
-1.89608e-07
8.21055e-07
-0.000258583
2.02857e-07
2.07996e-07
1.18739e-06
1.14947e-06