/*--------------------------------*- C++ -*----------------------------------*\
| =========                 |                                                 |
| \\      /  F ield         | OpenFOAM: The Open Source CFD Toolbox           |
|  \\    /   O peration     | Version:  2206                                  |
|   \\  /    A nd           | Website:  www.openfoam.com                      |
|    \\/     M anipulation  |                                                 |
\*---------------------------------------------------------------------------*/
FoamFile
{
    version     2.0;
    format      ascii;
    arch        "LSB;label=32;scalar=64";
    class       volVectorField;
    location    "3.5";
    object      U;
}
// * * * * * * * * * * * * * * * * * * * * * * * * * * * * * * * * * * * * * //

dimensions      [0 1 -1 0 0 0 0];

internalField   nonuniform List<vector> 
28897
(
(-1.71393e-07 -1.76098e-07 0.100562)
(-1.3508e-07 2.49921e-07 0.100562)
(2.71727e-07 -1.60094e-07 0.100562)
(-3.14882e-05 -3.15262e-05 0.100562)
(-1.85999e-07 -1.84007e-07 0.100562)
(-1.41142e-07 2.60769e-07 0.100562)
(2.55105e-07 -1.37378e-07 0.100562)
(-3.14926e-05 -3.15054e-05 0.100562)
(-1.89806e-07 -1.88682e-07 0.100562)
(-1.31851e-07 2.52637e-07 0.100562)
(2.51979e-07 -1.32665e-07 0.100562)
(-3.14857e-05 -3.15008e-05 0.100562)
(-1.89809e-07 -1.8915e-07 0.100562)
(-1.30082e-07 2.51158e-07 0.100562)
(2.50984e-07 -1.3118e-07 0.100562)
(-3.14843e-05 -3.14998e-05 0.100562)
(-1.89892e-07 -1.89049e-07 0.100562)
(-1.30731e-07 2.51475e-07 0.100562)
(2.50695e-07 -1.31273e-07 0.100562)
(-3.14841e-05 -3.15004e-05 0.100562)
(-1.89873e-07 -1.89243e-07 0.100562)
(-1.29095e-07 2.50635e-07 0.100562)
(2.50251e-07 -1.29904e-07 0.100562)
(-3.14825e-05 -3.14986e-05 0.100562)
(-1.89479e-07 -1.89013e-07 0.100562)
(-1.31796e-07 2.52861e-07 0.100562)
(2.52822e-07 -1.32992e-07 0.100562)
(-3.14845e-05 -3.15003e-05 0.100562)
(-1.895e-07 -1.88918e-07 0.100562)
(-1.308e-07 2.51894e-07 0.100562)
(2.51774e-07 -1.32043e-07 0.100562)
(-3.14846e-05 -3.15003e-05 0.100562)
(-1.89457e-07 -1.88871e-07 0.100562)
(-1.32304e-07 2.53342e-07 0.100562)
(2.52727e-07 -1.34413e-07 0.100562)
(-3.14851e-05 -3.15019e-05 0.100562)
(-1.893e-07 -1.89478e-07 0.100562)
(-1.30596e-07 2.53296e-07 0.100562)
(2.50882e-07 -1.33628e-07 0.100562)
(-3.14807e-05 -3.15043e-05 0.100562)
(-1.8151e-07 -1.83934e-07 0.100562)
(-1.29787e-07 2.52818e-07 0.100562)
(2.51644e-07 -1.32219e-07 0.100562)
(-3.14825e-05 -3.1501e-05 0.100562)
(-1.91427e-07 -1.87292e-07 0.100562)
(-1.29792e-07 2.64215e-07 0.100562)
(2.50834e-07 -1.30772e-07 0.100562)
(-3.14848e-05 -3.14991e-05 0.100562)
(-1.90382e-07 -1.88333e-07 0.100562)
(-1.29051e-07 2.52396e-07 0.100562)
(2.50126e-07 -1.29465e-07 0.100562)
(-3.14832e-05 -3.14979e-05 0.100562)
(-1.89706e-07 -1.88994e-07 0.100562)
(-1.30727e-07 2.52342e-07 0.100562)
(2.51438e-07 -1.31143e-07 0.100562)
(-3.14839e-05 -3.14996e-05 0.100562)
(-1.897e-07 -1.89248e-07 0.100562)
(-1.30426e-07 2.51742e-07 0.100562)
(2.50096e-07 -1.3055e-07 0.100562)
(-3.14833e-05 -3.14992e-05 0.100562)
(-1.89064e-07 -1.88817e-07 0.100562)
(-1.32006e-07 2.5329e-07 0.100562)
(2.52066e-07 -1.32257e-07 0.100562)
(-3.14846e-05 -3.15006e-05 0.100562)
(-1.90163e-07 -1.90181e-07 0.100562)
(-1.30346e-07 2.51909e-07 0.100562)
(2.50807e-07 -1.30347e-07 0.100562)
(-3.14835e-05 -3.14998e-05 0.100562)
(-2.03182e-07 -2.02782e-07 0.100562)
(-1.05131e-07 2.35198e-07 0.100562)
(2.34032e-07 -1.05369e-07 0.100562)
(-3.14555e-05 -3.1471e-05 0.100562)
(-3.22967e-05 -3.22696e-05 0.100562)
(2.60154e-07 1.28633e-07 0.100562)
(-2.20552e-07 1.10963e-07 0.100562)
(3.2335e-05 -3.23037e-05 0.100562)
(1.26613e-07 2.50676e-07 0.100562)
(1.31239e-07 -2.56089e-07 0.100562)
(-8.57582e-08 2.24707e-07 0.100562)
(-1.0994e-07 -2.59549e-07 0.100562)
(-3.22685e-05 3.23013e-05 0.100562)
(2.52356e-07 -1.24704e-07 0.100562)
(-2.43487e-07 -1.28616e-07 0.100562)
(3.22852e-05 3.22887e-05 0.100562)
(3.15225e-05 3.14909e-05 0.100562)
(-3.22976e-05 -3.22668e-05 0.100562)
(2.81339e-07 1.61015e-07 0.100562)
(-2.50176e-07 1.52105e-07 0.100562)
(2.63005e-07 1.47354e-07 0.100562)
(-2.70917e-07 1.51744e-07 0.100562)
(-3.14512e-05 3.14386e-05 0.100562)
(3.22865e-05 -3.22661e-05 0.100562)
(1.61844e-07 2.70317e-07 0.100562)
(1.63769e-07 -2.7564e-07 0.100562)
(1.41452e-07 2.58831e-07 0.100562)
(1.46635e-07 -2.63032e-07 0.100562)
(-1.49981e-07 -2.827e-07 0.100562)
(-1.48272e-07 2.65048e-07 0.100562)
(-1.49804e-07 -2.61435e-07 0.100562)
(3.14953e-05 -3.15246e-05 0.100562)
(-3.22688e-05 3.22998e-05 0.100562)
(-2.64045e-07 -1.63072e-07 0.100562)
(2.5776e-07 -1.408e-07 0.100562)
(-2.59246e-07 -1.4163e-07 0.100562)
(3.22721e-05 3.22935e-05 0.100562)
(3.15055e-05 3.14783e-05 0.100562)
(-3.23062e-05 -3.22752e-05 0.100562)
(2.59322e-07 1.40729e-07 0.100562)
(-2.69519e-07 1.44295e-07 0.100562)
(2.56804e-07 1.36573e-07 0.100562)
(-2.60746e-07 1.38289e-07 0.100562)
(-3.15095e-05 3.14812e-05 0.100562)
(3.23028e-05 -3.22771e-05 0.100562)
(1.37454e-07 2.56289e-07 0.100562)
(1.4048e-07 -2.59749e-07 0.100562)
(1.30985e-07 2.52276e-07 0.100562)
(1.36787e-07 -2.56834e-07 0.100562)
(-1.42584e-07 -2.57411e-07 0.100562)
(-1.32493e-07 2.54349e-07 0.100562)
(-1.3729e-07 -2.56602e-07 0.100562)
(3.14796e-05 -3.15107e-05 0.100562)
(-3.22767e-05 3.23082e-05 0.100562)
(-2.55425e-07 -1.35509e-07 0.100562)
(2.51788e-07 -1.31216e-07 0.100562)
(-2.52872e-07 -1.32391e-07 0.100562)
(3.22819e-05 3.23003e-05 0.100562)
(3.15003e-05 3.14729e-05 0.100562)
(-3.23065e-05 -3.2276e-05 0.100562)
(2.56557e-07 1.34915e-07 0.100562)
(-2.59514e-07 1.36537e-07 0.100562)
(2.55991e-07 1.34838e-07 0.100562)
(-2.57459e-07 1.36095e-07 0.100562)
(-3.14967e-05 3.14712e-05 0.100562)
(3.23045e-05 -3.22786e-05 0.100562)
(1.3262e-07 2.52464e-07 0.100562)
(1.35568e-07 -2.56615e-07 0.100562)
(1.29756e-07 2.50868e-07 0.100562)
(1.35186e-07 -2.5513e-07 0.100562)
(-1.35109e-07 -2.55003e-07 0.100562)
(-1.29478e-07 2.51848e-07 0.100562)
(-1.34035e-07 -2.54676e-07 0.100562)
(3.14747e-05 -3.15056e-05 0.100562)
(-3.22775e-05 3.23092e-05 0.100562)
(-2.51032e-07 -1.30944e-07 0.100562)
(2.50529e-07 -1.29229e-07 0.100562)
(-2.50092e-07 -1.30236e-07 0.100562)
(3.22837e-05 3.23016e-05 0.100562)
(3.14995e-05 3.14717e-05 0.100562)
(-3.23065e-05 -3.22763e-05 0.100562)
(2.55227e-07 1.32857e-07 0.100562)
(-2.5741e-07 1.34825e-07 0.100562)
(2.56172e-07 1.35023e-07 0.100562)
(-2.5836e-07 1.36762e-07 0.100562)
(-3.14949e-05 3.147e-05 0.100562)
(3.2304e-05 -3.22782e-05 0.100562)
(1.30926e-07 2.50655e-07 0.100562)
(1.33965e-07 -2.55201e-07 0.100562)
(1.2985e-07 2.50864e-07 0.100562)
(1.35131e-07 -2.55519e-07 0.100562)
(-1.33657e-07 -2.54473e-07 0.100562)
(-1.30485e-07 2.52681e-07 0.100562)
(-1.35233e-07 -2.55852e-07 0.100562)
(3.1474e-05 -3.15044e-05 0.100562)
(-3.22776e-05 3.2309e-05 0.100562)
(-2.49869e-07 -1.30049e-07 0.100562)
(2.50416e-07 -1.29705e-07 0.100562)
(-2.50607e-07 -1.31246e-07 0.100562)
(3.22837e-05 3.23008e-05 0.100562)
(3.14996e-05 3.14715e-05 0.100562)
(-3.23061e-05 -3.22761e-05 0.100562)
(2.5587e-07 1.33831e-07 0.100562)
(-2.57911e-07 1.35602e-07 0.100562)
(2.55638e-07 1.3418e-07 0.100562)
(-2.57068e-07 1.35607e-07 0.100562)
(-3.14954e-05 3.14701e-05 0.100562)
(3.23042e-05 -3.22785e-05 0.100562)
(1.31863e-07 2.51258e-07 0.100562)
(1.34389e-07 -2.55321e-07 0.100562)
(1.29229e-07 2.50184e-07 0.100562)
(1.34352e-07 -2.54463e-07 0.100562)
(-1.34354e-07 -2.54822e-07 0.100562)
(-1.2879e-07 2.51385e-07 0.100562)
(-1.33201e-07 -2.54107e-07 0.100562)
(3.14736e-05 -3.15046e-05 0.100562)
(-3.22774e-05 3.2309e-05 0.100562)
(-2.49922e-07 -1.30375e-07 0.100562)
(2.49777e-07 -1.28385e-07 0.100562)
(-2.4915e-07 -1.2952e-07 0.100562)
(3.22839e-05 3.23012e-05 0.100562)
(3.14989e-05 3.14707e-05 0.100562)
(-3.23056e-05 -3.22751e-05 0.100562)
(2.54873e-07 1.32289e-07 0.100562)
(-2.56839e-07 1.34445e-07 0.100562)
(2.57276e-07 1.35827e-07 0.100562)
(-2.58719e-07 1.3733e-07 0.100562)
(-3.14941e-05 3.14689e-05 0.100562)
(3.23035e-05 -3.22776e-05 0.100562)
(1.30472e-07 2.50105e-07 0.100562)
(1.33447e-07 -2.54404e-07 0.100562)
(1.3099e-07 2.51956e-07 0.100562)
(1.3642e-07 -2.56516e-07 0.100562)
(-1.32024e-07 -2.53018e-07 0.100562)
(-1.30739e-07 2.53132e-07 0.100562)
(-1.35177e-07 -2.56149e-07 0.100562)
(3.14727e-05 -3.15034e-05 0.100562)
(-3.22764e-05 3.23081e-05 0.100562)
(-2.48216e-07 -1.28397e-07 0.100562)
(2.51819e-07 -1.30612e-07 0.100562)
(-2.51265e-07 -1.31751e-07 0.100562)
(3.22828e-05 3.23004e-05 0.100562)
(3.15e-05 3.1472e-05 0.100562)
(-3.23052e-05 -3.22749e-05 0.100562)
(2.57075e-07 1.34759e-07 0.100562)
(-2.59018e-07 1.3687e-07 0.100562)
(2.56951e-07 1.35813e-07 0.100562)
(-2.58528e-07 1.3706e-07 0.100562)
(-3.14954e-05 3.14704e-05 0.100562)
(3.23028e-05 -3.22772e-05 0.100562)
(1.33046e-07 2.52352e-07 0.100562)
(1.36084e-07 -2.56924e-07 0.100562)
(1.30808e-07 2.51564e-07 0.100562)
(1.35892e-07 -2.56045e-07 0.100562)
(-1.3543e-07 -2.56174e-07 0.100562)
(-1.3068e-07 2.52677e-07 0.100562)
(-1.35567e-07 -2.56312e-07 0.100562)
(3.14744e-05 -3.1505e-05 0.100562)
(-3.22762e-05 3.23076e-05 0.100562)
(-2.51411e-07 -1.31867e-07 0.100562)
(2.51188e-07 -1.30392e-07 0.100562)
(-2.51423e-07 -1.31985e-07 0.100562)
(3.2282e-05 3.22996e-05 0.100562)
(3.14999e-05 3.1472e-05 0.100562)
(-3.23056e-05 -3.22754e-05 0.100562)
(2.56709e-07 1.34294e-07 0.100562)
(-2.58412e-07 1.36015e-07 0.100562)
(2.57551e-07 1.365e-07 0.100562)
(-2.59363e-07 1.37995e-07 0.100562)
(-3.14954e-05 3.14699e-05 0.100562)
(3.23031e-05 -3.22773e-05 0.100562)
(1.32477e-07 2.5202e-07 0.100562)
(1.35032e-07 -2.56201e-07 0.100562)
(1.31582e-07 2.5226e-07 0.100562)
(1.36816e-07 -2.56862e-07 0.100562)
(-1.34285e-07 -2.55217e-07 0.100562)
(-1.31464e-07 2.53592e-07 0.100562)
(-1.36097e-07 -2.56881e-07 0.100562)
(3.14739e-05 -3.15049e-05 0.100562)
(-3.22763e-05 3.23079e-05 0.100562)
(-2.50503e-07 -1.30769e-07 0.100562)
(2.5205e-07 -1.30503e-07 0.100562)
(-2.51989e-07 -1.32647e-07 0.100562)
(3.22824e-05 3.22999e-05 0.100562)
(3.15012e-05 3.14731e-05 0.100562)
(-3.23053e-05 -3.22763e-05 0.100562)
(2.57392e-07 1.35291e-07 0.100562)
(-2.59479e-07 1.37347e-07 0.100562)
(2.55883e-07 1.37077e-07 0.100562)
(-2.6235e-07 1.40265e-07 0.100562)
(-3.14966e-05 3.14716e-05 0.100562)
(3.23039e-05 -3.22776e-05 0.100562)
(1.33392e-07 2.52631e-07 0.100562)
(1.36192e-07 -2.57217e-07 0.100562)
(1.3417e-07 2.52269e-07 0.100562)
(1.37988e-07 -2.58026e-07 0.100562)
(-1.36006e-07 -2.56525e-07 0.100562)
(-1.31994e-07 2.55347e-07 0.100562)
(-1.3945e-07 -2.58256e-07 0.100562)
(3.14752e-05 -3.15063e-05 0.100562)
(-3.22773e-05 3.23064e-05 0.100562)
(-2.51495e-07 -1.32421e-07 0.100562)
(2.51419e-07 -1.32028e-07 0.100562)
(-2.51257e-07 -1.36457e-07 0.100562)
(3.22863e-05 3.22969e-05 0.100562)
(3.14995e-05 3.14707e-05 0.100562)
(-3.22951e-05 -3.2283e-05 0.100562)
(2.56471e-07 1.3459e-07 0.100562)
(-2.56532e-07 1.40261e-07 0.100562)
(2.56264e-07 1.38095e-07 0.100562)
(-2.52967e-07 1.35709e-07 0.100562)
(-3.14949e-05 3.14754e-05 0.100562)
(3.2306e-05 -3.22824e-05 0.100562)
(1.35318e-07 2.51099e-07 0.100562)
(1.36838e-07 -2.57384e-07 0.100562)
(1.36524e-07 2.54616e-07 0.100562)
(1.37403e-07 -2.56435e-07 0.100562)
(-1.4275e-07 -2.57978e-07 0.100562)
(-1.25601e-07 2.47801e-07 0.100562)
(-1.40731e-07 -2.57009e-07 0.100562)
(3.14741e-05 -3.15072e-05 0.100562)
(-3.22778e-05 3.23087e-05 0.100562)
(-2.46818e-07 -1.39289e-07 0.100562)
(2.5013e-07 -1.31098e-07 0.100562)
(-2.45933e-07 -1.35356e-07 0.100562)
(3.22866e-05 3.23e-05 0.100562)
(3.15079e-05 3.14775e-05 0.100562)
(-3.23036e-05 -3.22784e-05 0.100562)
(2.64535e-07 1.46564e-07 0.100562)
(-2.59197e-07 1.37099e-07 0.100562)
(2.53944e-07 1.33981e-07 0.100562)
(-2.61749e-07 1.46719e-07 0.100562)
(-3.14992e-05 3.14625e-05 0.100562)
(3.2299e-05 -3.2267e-05 0.100562)
(1.41002e-07 2.55314e-07 0.100562)
(1.36467e-07 -2.5522e-07 0.100562)
(1.30026e-07 2.52363e-07 0.100562)
(1.35665e-07 -2.55018e-07 0.100562)
(-1.35963e-07 -2.55071e-07 0.100562)
(-1.30294e-07 2.60213e-07 0.100562)
(-1.35538e-07 -2.53385e-07 0.100562)
(3.14747e-05 -3.15056e-05 0.100562)
(-3.22779e-05 3.23094e-05 0.100562)
(-2.48698e-07 -1.31176e-07 0.100562)
(2.50318e-07 -1.29332e-07 0.100562)
(-2.50351e-07 -1.30304e-07 0.100562)
(3.22834e-05 3.23023e-05 0.100562)
(3.14964e-05 3.14798e-05 0.100562)
(-3.23042e-05 -3.22805e-05 0.100562)
(2.51956e-07 1.37325e-07 0.100562)
(-2.72249e-07 1.55461e-07 0.100562)
(2.54011e-07 1.33086e-07 0.100562)
(-2.58138e-07 1.37398e-07 0.100562)
(-3.15034e-05 3.14894e-05 0.100562)
(3.2304e-05 -3.22777e-05 0.100562)
(1.31346e-07 2.52578e-07 0.100562)
(1.34682e-07 -2.55013e-07 0.100562)
(1.29059e-07 2.5184e-07 0.100562)
(1.34387e-07 -2.54065e-07 0.100562)
(-1.34954e-07 -2.52551e-07 0.100562)
(-1.28804e-07 2.53766e-07 0.100562)
(-1.33487e-07 -2.52475e-07 0.100562)
(3.14739e-05 -3.15047e-05 0.100562)
(-3.22785e-05 3.231e-05 0.100562)
(-2.50303e-07 -1.29437e-07 0.100562)
(2.49304e-07 -1.2799e-07 0.100562)
(-2.49326e-07 -1.28645e-07 0.100562)
(3.22841e-05 3.23028e-05 0.100562)
(3.14952e-05 3.1477e-05 0.100562)
(-3.23029e-05 -3.22804e-05 0.100562)
(2.53872e-07 1.36009e-07 0.100562)
(-2.57012e-07 1.36034e-07 0.100562)
(2.55718e-07 1.32891e-07 0.100562)
(-2.57358e-07 1.36194e-07 0.100562)
(-3.14953e-05 3.14723e-05 0.100562)
(3.23042e-05 -3.22801e-05 0.100562)
(1.30917e-07 2.51967e-07 0.100562)
(1.33793e-07 -2.54088e-07 0.100562)
(1.30328e-07 2.5177e-07 0.100562)
(1.35525e-07 -2.5564e-07 0.100562)
(-1.32637e-07 -2.52071e-07 0.100562)
(-1.30047e-07 2.52805e-07 0.100562)
(-1.34357e-07 -2.54677e-07 0.100562)
(3.14728e-05 -3.15036e-05 0.100562)
(-3.22773e-05 3.23087e-05 0.100562)
(-2.48659e-07 -1.28078e-07 0.100562)
(2.50759e-07 -1.29458e-07 0.100562)
(-2.50294e-07 -1.30347e-07 0.100562)
(3.2283e-05 3.23008e-05 0.100562)
(3.14961e-05 3.14768e-05 0.100562)
(-3.23028e-05 -3.22805e-05 0.100562)
(2.55309e-07 1.36018e-07 0.100562)
(-2.5735e-07 1.35961e-07 0.100562)
(2.55592e-07 1.32177e-07 0.100562)
(-2.56796e-07 1.35487e-07 0.100562)
(-3.14954e-05 3.1471e-05 0.100562)
(3.23045e-05 -3.22803e-05 0.100562)
(1.32242e-07 2.52194e-07 0.100562)
(1.34997e-07 -2.55846e-07 0.100562)
(1.29944e-07 2.51134e-07 0.100562)
(1.34938e-07 -2.554e-07 0.100562)
(-1.3421e-07 -2.5464e-07 0.100562)
(-1.29772e-07 2.52172e-07 0.100562)
(-1.33919e-07 -2.54793e-07 0.100562)
(3.14736e-05 -3.15045e-05 0.100562)
(-3.22773e-05 3.23087e-05 0.100562)
(-2.50171e-07 -1.302e-07 0.100562)
(2.50672e-07 -1.29445e-07 0.100562)
(-2.49943e-07 -1.30352e-07 0.100562)
(3.22835e-05 3.23009e-05 0.100562)
(3.14955e-05 3.14761e-05 0.100562)
(-3.23016e-05 -3.22796e-05 0.100562)
(2.54865e-07 1.35259e-07 0.100562)
(-2.56739e-07 1.35105e-07 0.100562)
(2.56941e-07 1.3363e-07 0.100562)
(-2.57874e-07 1.36963e-07 0.100562)
(-3.14947e-05 3.14704e-05 0.100562)
(3.23036e-05 -3.22795e-05 0.100562)
(1.3179e-07 2.51526e-07 0.100562)
(1.34424e-07 -2.55716e-07 0.100562)
(1.31741e-07 2.5239e-07 0.100562)
(1.36495e-07 -2.56543e-07 0.100562)
(-1.33911e-07 -2.54756e-07 0.100562)
(-1.31103e-07 2.53311e-07 0.100562)
(-1.35428e-07 -2.56049e-07 0.100562)
(3.14731e-05 -3.1504e-05 0.100562)
(-3.22764e-05 3.23079e-05 0.100562)
(-2.49768e-07 -1.30162e-07 0.100562)
(2.52055e-07 -1.30981e-07 0.100562)
(-2.51232e-07 -1.32043e-07 0.100562)
(3.22825e-05 3.22999e-05 0.100562)
(3.14973e-05 3.14775e-05 0.100562)
(-3.2302e-05 -3.22803e-05 0.100562)
(2.56769e-07 1.37276e-07 0.100562)
(-2.58244e-07 1.37071e-07 0.100562)
(2.56848e-07 1.33167e-07 0.100562)
(-2.57686e-07 1.36569e-07 0.100562)
(-3.14963e-05 3.14718e-05 0.100562)
(3.23039e-05 -3.22801e-05 0.100562)
(1.33699e-07 2.53093e-07 0.100562)
(1.36225e-07 -2.56989e-07 0.100562)
(1.31798e-07 2.51993e-07 0.100562)
(1.36236e-07 -2.56305e-07 0.100562)
(-1.35062e-07 -2.55684e-07 0.100562)
(-1.30806e-07 2.52987e-07 0.100562)
(-1.34775e-07 -2.55625e-07 0.100562)
(3.14747e-05 -3.15055e-05 0.100562)
(-3.22769e-05 3.23081e-05 0.100562)
(-2.50685e-07 -1.31235e-07 0.100562)
(2.51553e-07 -1.30742e-07 0.100562)
(-2.50377e-07 -1.31596e-07 0.100562)
(3.22829e-05 3.23e-05 0.100562)
(3.14967e-05 3.14766e-05 0.100562)
(-3.23108e-05 -3.22886e-05 0.100562)
(2.55916e-07 1.35973e-07 0.100562)
(-2.56958e-07 1.35835e-07 0.100562)
(2.47299e-07 1.21155e-07 0.100562)
(-2.48232e-07 1.24178e-07 0.100562)
(-3.14955e-05 3.14709e-05 0.100562)
(3.23126e-05 -3.22881e-05 0.100562)
(1.32555e-07 2.52028e-07 0.100562)
(1.35081e-07 -2.55726e-07 0.100562)
(1.19136e-07 2.42695e-07 0.100562)
(1.24063e-07 -2.46944e-07 0.100562)
(-1.33364e-07 -2.54266e-07 0.100562)
(-1.18662e-07 2.43768e-07 0.100562)
(-1.22569e-07 -2.46677e-07 0.100562)
(3.14736e-05 -3.15047e-05 0.100562)
(-3.22847e-05 3.23172e-05 0.100562)
(-2.49189e-07 -1.29283e-07 0.100562)
(2.42484e-07 -1.18434e-07 0.100562)
(-2.41776e-07 -1.19655e-07 0.100562)
(3.22911e-05 3.23086e-05 0.100562)
(3.14676e-05 3.14478e-05 0.100562)
(2.38607e-07 1.10303e-07 0.100562)
(-2.40421e-07 1.10152e-07 0.100562)
(-3.14664e-05 3.14422e-05 0.100562)
(1.06953e-07 2.351e-07 0.100562)
(1.09882e-07 -2.39353e-07 0.100562)
(-1.08332e-07 -2.38286e-07 0.100562)
(3.14451e-05 -3.14756e-05 0.100562)
(-2.3357e-07 -1.04591e-07 0.100562)
(-1.98494e-07 -2.00842e-07 0.100562)
(2.12464e-07 -2.05078e-07 0.100562)
(-1.98422e-07 1.99992e-07 0.100562)
(2.07901e-07 1.96723e-07 0.100562)
(1.52695e-08 -3.68026e-06 0.100461)
(3.70232e-07 3.58284e-06 0.0993507)
(3.87002e-08 3.63436e-06 0.10046)
(-5.43702e-07 -2.96747e-06 0.0993509)
(-1.77591e-07 -9.98704e-08 0.0964378)
(1.11758e-07 2.68646e-07 0.0964374)
(-3.69709e-06 8.99165e-09 0.100461)
(3.59284e-06 3.48578e-07 0.0993506)
(3.64646e-06 2.38553e-08 0.10046)
(-2.98503e-06 -5.36572e-07 0.0993508)
(2.05048e-07 -1.95733e-07 0.100562)
(-1.72443e-07 1.73668e-07 0.100562)
(1.84854e-07 1.6939e-07 0.100562)
(-1.82382e-07 -1.79874e-07 0.100562)
(1.73791e-07 -1.75821e-07 0.100562)
(-1.80438e-07 1.8092e-07 0.100562)
(1.77373e-07 1.80461e-07 0.100562)
(7.43426e-06 -3.19809e-08 0.100553)
(-5.84916e-06 1.68848e-06 0.100486)
(-1.58476e-07 -9.41671e-08 0.100562)
(-1.61998e-07 2.69631e-07 0.100562)
(-7.5697e-06 6.57158e-09 0.100553)
(5.70407e-06 -1.7865e-06 0.100486)
(-1.8908e-07 -7.71671e-08 0.100562)
(1.45247e-06 -1.09605e-06 0.0964376)
(-3.38751e-07 4.63377e-07 0.096435)
(-2.09938e-08 7.48314e-06 0.100553)
(-7.08902e-08 -1.85955e-07 0.100562)
(2.03402e-06 -6.03932e-06 0.100486)
(2.69064e-07 -1.5814e-07 0.100562)
(3.31397e-08 -7.72752e-06 0.100553)
(-6.92433e-08 -1.8868e-07 0.100562)
(-1.87642e-06 5.75576e-06 0.100486)
(-1.72464e-06 -2.26866e-06 0.100344)
(-2.21828e-06 -1.48362e-06 0.100344)
(3.2257e-05 3.22736e-05 0.100562)
(1.91204e-06 2.03173e-06 0.100345)
(2.02041e-06 1.79176e-06 0.100345)
(-8.91236e-09 -3.69262e-06 0.100461)
(4.49925e-07 3.25866e-06 0.0993504)
(1.83577e-10 3.65762e-06 0.100461)
(-4.71101e-07 -3.20317e-06 0.0993507)
(-7.37519e-07 7.77652e-07 0.0964347)
(6.68223e-07 -7.52015e-07 0.096435)
(-3.71032e-06 -1.09414e-08 0.100461)
(3.27015e-06 4.41209e-07 0.0993503)
(3.6718e-06 6.52736e-09 0.100461)
(-3.21698e-06 -4.64177e-07 0.0993507)
(1.79753e-07 -1.81924e-07 0.100562)
(-1.84408e-07 1.84882e-07 0.100562)
(1.81452e-07 1.8432e-07 0.100562)
(-1.89791e-07 -1.87503e-07 0.100562)
(1.87518e-07 -1.88264e-07 0.100562)
(-1.88023e-07 1.88364e-07 0.100562)
(1.86356e-07 1.8773e-07 0.100562)
(7.57999e-06 -3.40421e-08 0.100553)
(-5.97442e-06 1.9597e-06 0.100486)
(-1.66376e-07 -7.28125e-08 0.100562)
(-1.36935e-07 2.57207e-07 0.100562)
(-7.65274e-06 4.03377e-08 0.100553)
(5.82358e-06 -1.97731e-06 0.100486)
(-1.60788e-07 -7.5025e-08 0.100562)
(7.47832e-07 -7.0727e-07 0.0964342)
(-7.27981e-07 6.54783e-07 0.0964347)
(-3.02706e-08 7.58714e-06 0.100553)
(-7.75639e-08 -1.6181e-07 0.100562)
(1.96101e-06 -5.97885e-06 0.100486)
(2.52924e-07 -1.33404e-07 0.100562)
(2.97964e-08 -7.65226e-06 0.100553)
(-7.83387e-08 -1.54372e-07 0.100562)
(-1.99268e-06 5.83625e-06 0.100486)
(-1.65924e-06 -2.14708e-06 0.100345)
(-2.1459e-06 -1.6519e-06 0.100345)
(3.22811e-05 3.23006e-05 0.100562)
(1.64188e-06 2.10045e-06 0.100345)
(2.09305e-06 1.64037e-06 0.100345)
(-7.31314e-09 -3.69448e-06 0.100461)
(4.54124e-07 3.25595e-06 0.0993504)
(2.85618e-09 3.65138e-06 0.100461)
(-4.71375e-07 -3.20431e-06 0.0993507)
(-7.31624e-07 7.77233e-07 0.0964347)
(6.71952e-07 -7.53644e-07 0.096435)
(-3.71205e-06 -1.05925e-08 0.100461)
(3.26811e-06 4.44725e-07 0.0993503)
(3.66644e-06 6.66287e-09 0.100461)
(-3.2178e-06 -4.65504e-07 0.0993507)
(1.88133e-07 -1.89153e-07 0.100562)
(-1.88506e-07 1.88877e-07 0.100562)
(1.87066e-07 1.8809e-07 0.100562)
(-1.898e-07 -1.8818e-07 0.100562)
(1.89563e-07 -1.89474e-07 0.100562)
(-1.8826e-07 1.8916e-07 0.100562)
(1.88048e-07 1.8847e-07 0.100562)
(7.58321e-06 -3.61538e-08 0.100553)
(-5.95852e-06 1.94565e-06 0.100486)
(-1.54672e-07 -7.71076e-08 0.100562)
(-1.30504e-07 2.52346e-07 0.100562)
(-7.63893e-06 3.49005e-08 0.100553)
(5.82677e-06 -1.9796e-06 0.100486)
(-1.52572e-07 -7.74146e-08 0.100562)
(7.49916e-07 -7.10006e-07 0.0964342)
(-7.28464e-07 6.55233e-07 0.0964347)
(-3.06584e-08 7.58926e-06 0.100553)
(-7.83768e-08 -1.54912e-07 0.100562)
(1.95677e-06 -5.97158e-06 0.100486)
(2.50653e-07 -1.30039e-07 0.100562)
(2.91617e-08 -7.6435e-06 0.100553)
(-7.83635e-08 -1.49769e-07 0.100562)
(-1.99299e-06 5.83794e-06 0.100486)
(-1.65346e-06 -2.14709e-06 0.100345)
(-2.14315e-06 -1.65016e-06 0.100345)
(3.22846e-05 3.23025e-05 0.100562)
(1.6441e-06 2.09902e-06 0.100345)
(2.09389e-06 1.6414e-06 0.100345)
(-6.71023e-09 -3.69403e-06 0.100461)
(4.55137e-07 3.25653e-06 0.0993504)
(3.6908e-09 3.6523e-06 0.100461)
(-4.70317e-07 -3.20417e-06 0.0993507)
(-7.30718e-07 7.78324e-07 0.0964347)
(6.72136e-07 -7.53615e-07 0.096435)
(-3.71124e-06 -1.06029e-08 0.100461)
(3.26884e-06 4.44927e-07 0.0993503)
(3.66733e-06 6.82133e-09 0.100461)
(-3.21759e-06 -4.64438e-07 0.0993507)
(1.89252e-07 -1.89866e-07 0.100562)
(-1.885e-07 1.89158e-07 0.100562)
(1.87906e-07 1.88419e-07 0.100562)
(-1.90154e-07 -1.88423e-07 0.100562)
(1.89531e-07 -1.8972e-07 0.100562)
(-1.88494e-07 1.88926e-07 0.100562)
(1.87911e-07 1.8833e-07 0.100562)
(7.58398e-06 -3.62631e-08 0.100553)
(-5.9586e-06 1.94595e-06 0.100486)
(-1.52453e-07 -7.75093e-08 0.100562)
(-1.29671e-07 2.51363e-07 0.100562)
(-7.63879e-06 3.4587e-08 0.100553)
(5.82724e-06 -1.97956e-06 0.100486)
(-1.51155e-07 -7.78489e-08 0.100562)
(7.50357e-07 -7.0967e-07 0.0964342)
(-7.27979e-07 6.55607e-07 0.0964347)
(-3.06362e-08 7.5883e-06 0.100553)
(-7.81374e-08 -1.525e-07 0.100562)
(1.95735e-06 -5.97141e-06 0.100486)
(2.49739e-07 -1.29361e-07 0.100562)
(2.95459e-08 -7.64232e-06 0.100553)
(-7.84455e-08 -1.50517e-07 0.100562)
(-1.9925e-06 5.8381e-06 0.100486)
(-1.65405e-06 -2.14794e-06 0.100345)
(-2.14289e-06 -1.65072e-06 0.100345)
(3.22852e-05 3.23026e-05 0.100562)
(1.64453e-06 2.09861e-06 0.100345)
(2.09384e-06 1.64117e-06 0.100345)
(-6.8157e-09 -3.69351e-06 0.100461)
(4.55373e-07 3.25543e-06 0.0993504)
(3.6491e-09 3.65183e-06 0.100461)
(-4.7051e-07 -3.20439e-06 0.0993507)
(-7.30866e-07 7.78202e-07 0.0964347)
(6.72421e-07 -7.53377e-07 0.096435)
(-3.71084e-06 -1.08948e-08 0.100461)
(3.26768e-06 4.45298e-07 0.0993503)
(3.66683e-06 6.30093e-09 0.100461)
(-3.21769e-06 -4.64709e-07 0.0993507)
(1.89059e-07 -1.89732e-07 0.100562)
(-1.88459e-07 1.89056e-07 0.100562)
(1.87472e-07 1.88232e-07 0.100562)
(-1.89876e-07 -1.88305e-07 0.100562)
(1.89733e-07 -1.89561e-07 0.100562)
(-1.88293e-07 1.89102e-07 0.100562)
(1.88186e-07 1.88495e-07 0.100562)
(7.58268e-06 -3.61841e-08 0.100553)
(-5.95855e-06 1.94546e-06 0.100486)
(-1.53263e-07 -7.75146e-08 0.100562)
(-1.30036e-07 2.51734e-07 0.100562)
(-7.63896e-06 3.4445e-08 0.100553)
(5.82622e-06 -1.97947e-06 0.100486)
(-1.51669e-07 -7.77372e-08 0.100562)
(7.50417e-07 -7.09682e-07 0.0964341)
(-7.28219e-07 6.55449e-07 0.0964346)
(-2.97576e-08 7.58858e-06 0.100553)
(-7.82771e-08 -1.50746e-07 0.100562)
(1.95727e-06 -5.97183e-06 0.100486)
(2.50019e-07 -1.29566e-07 0.100562)
(3.07171e-08 -7.64221e-06 0.100553)
(-7.84851e-08 -1.51493e-07 0.100562)
(-1.99262e-06 5.83735e-06 0.100486)
(-1.65332e-06 -2.14783e-06 0.100345)
(-2.14296e-06 -1.65046e-06 0.100345)
(3.22844e-05 3.23015e-05 0.100562)
(1.64473e-06 2.09812e-06 0.100345)
(2.09346e-06 1.64137e-06 0.100345)
(-6.8367e-09 -3.69397e-06 0.100461)
(4.54459e-07 3.25633e-06 0.0993504)
(3.7777e-09 3.65138e-06 0.100461)
(-4.7093e-07 -3.20344e-06 0.0993507)
(-7.30071e-07 7.78424e-07 0.0964347)
(6.72314e-07 -7.53489e-07 0.096435)
(-3.71139e-06 -1.0763e-08 0.100461)
(3.26873e-06 4.44526e-07 0.0993503)
(3.66673e-06 6.45359e-09 0.100461)
(-3.21681e-06 -4.6537e-07 0.0993507)
(1.89608e-07 -1.89849e-07 0.100562)
(-1.88447e-07 1.895e-07 0.100562)
(1.88246e-07 1.8878e-07 0.100562)
(-1.89796e-07 -1.88347e-07 0.100562)
(1.89605e-07 -1.8968e-07 0.100562)
(-1.88413e-07 1.8901e-07 0.100562)
(1.88132e-07 1.88272e-07 0.100562)
(7.58372e-06 -3.63658e-08 0.100553)
(-5.95791e-06 1.94546e-06 0.100486)
(-1.51168e-07 -7.733e-08 0.100562)
(-1.29445e-07 2.51534e-07 0.100562)
(-7.63775e-06 3.42475e-08 0.100553)
(5.82677e-06 -1.97928e-06 0.100486)
(-1.50874e-07 -7.75606e-08 0.100562)
(7.50636e-07 -7.09183e-07 0.0964341)
(-7.27917e-07 6.55762e-07 0.0964346)
(-2.98684e-08 7.58931e-06 0.100553)
(-7.78203e-08 -1.4925e-07 0.100562)
(1.95762e-06 -5.97121e-06 0.100486)
(2.4976e-07 -1.28871e-07 0.100562)
(3.05225e-08 -7.64058e-06 0.100553)
(-7.81296e-08 -1.50758e-07 0.100562)
(-1.99219e-06 5.83724e-06 0.100486)
(-1.65376e-06 -2.14772e-06 0.100345)
(-2.14275e-06 -1.65116e-06 0.100345)
(3.22853e-05 3.23025e-05 0.100562)
(1.64407e-06 2.09878e-06 0.100345)
(2.09409e-06 1.64056e-06 0.100345)
(-6.8213e-09 -3.69409e-06 0.100461)
(4.55339e-07 3.25528e-06 0.0993504)
(3.64088e-09 3.65116e-06 0.100461)
(-4.70701e-07 -3.20395e-06 0.0993507)
(-7.31804e-07 7.77137e-07 0.0964347)
(6.7181e-07 -7.54186e-07 0.096435)
(-3.7111e-06 -1.06379e-08 0.100461)
(3.26762e-06 4.44945e-07 0.0993503)
(3.66605e-06 6.52786e-09 0.100461)
(-3.21734e-06 -4.64963e-07 0.0993507)
(1.8918e-07 -1.89727e-07 0.100562)
(-1.88255e-07 1.88981e-07 0.100562)
(1.87783e-07 1.88128e-07 0.100562)
(-1.89624e-07 -1.88127e-07 0.100562)
(1.89188e-07 -1.89449e-07 0.100562)
(-1.8818e-07 1.88549e-07 0.100562)
(1.87646e-07 1.87769e-07 0.100562)
(7.58275e-06 -3.60006e-08 0.100553)
(-5.95801e-06 1.94519e-06 0.100486)
(-1.54443e-07 -7.75681e-08 0.100562)
(-1.31467e-07 2.53021e-07 0.100562)
(-7.63839e-06 3.45104e-08 0.100553)
(5.82628e-06 -1.97937e-06 0.100486)
(-1.53686e-07 -7.77495e-08 0.100562)
(7.49221e-07 -7.1063e-07 0.0964341)
(-7.28941e-07 6.54933e-07 0.0964346)
(-2.98034e-08 7.58851e-06 0.100553)
(-7.79656e-08 -1.52928e-07 0.100562)
(1.95676e-06 -5.97095e-06 0.100486)
(2.51604e-07 -1.31249e-07 0.100562)
(3.04867e-08 -7.64122e-06 0.100553)
(-7.8204e-08 -1.53985e-07 0.100562)
(-1.99249e-06 5.83721e-06 0.100486)
(-1.65258e-06 -2.1473e-06 0.100345)
(-2.14214e-06 -1.64943e-06 0.100345)
(3.2283e-05 3.23004e-05 0.100562)
(1.64441e-06 2.099e-06 0.100345)
(2.09445e-06 1.641e-06 0.100345)
(-7.11387e-09 -3.69451e-06 0.100461)
(4.54878e-07 3.25581e-06 0.0993504)
(3.54851e-09 3.65138e-06 0.100461)
(-4.70866e-07 -3.2041e-06 0.0993507)
(-7.30293e-07 7.7822e-07 0.0964347)
(6.72586e-07 -7.5363e-07 0.096435)
(-3.71199e-06 -1.10228e-08 0.100461)
(3.26814e-06 4.44781e-07 0.0993503)
(3.66656e-06 6.42688e-09 0.100461)
(-3.21753e-06 -4.65227e-07 0.0993507)
(1.89045e-07 -1.89644e-07 0.100562)
(-1.88293e-07 1.88906e-07 0.100562)
(1.87523e-07 1.87917e-07 0.100562)
(-1.89683e-07 -1.88113e-07 0.100562)
(1.89246e-07 -1.89387e-07 0.100562)
(-1.88098e-07 1.88725e-07 0.100562)
(1.87858e-07 1.88082e-07 0.100562)
(7.58306e-06 -3.60365e-08 0.100553)
(-5.95861e-06 1.94572e-06 0.100486)
(-1.53409e-07 -7.75788e-08 0.100562)
(-1.30395e-07 2.52393e-07 0.100562)
(-7.63871e-06 3.4719e-08 0.100553)
(5.82633e-06 -1.9795e-06 0.100486)
(-1.52285e-07 -7.76364e-08 0.100562)
(7.50653e-07 -7.09013e-07 0.0964341)
(-7.28287e-07 6.55669e-07 0.0964346)
(-2.98906e-08 7.58886e-06 0.100553)
(-7.80885e-08 -1.51867e-07 0.100562)
(1.95727e-06 -5.97159e-06 0.100486)
(2.50888e-07 -1.30044e-07 0.100562)
(3.0629e-08 -7.6416e-06 0.100553)
(-7.82028e-08 -1.52545e-07 0.100562)
(-1.99254e-06 5.83743e-06 0.100486)
(-1.65391e-06 -2.14809e-06 0.100345)
(-2.14299e-06 -1.65094e-06 0.100345)
(3.22843e-05 3.23016e-05 0.100562)
(1.64422e-06 2.09898e-06 0.100345)
(2.09448e-06 1.64097e-06 0.100345)
(-7.77497e-09 -3.69446e-06 0.100461)
(4.54846e-07 3.25619e-06 0.0993504)
(3.42167e-09 3.65118e-06 0.100461)
(-4.73516e-07 -3.20569e-06 0.0993507)
(-7.30882e-07 7.77839e-07 0.0964347)
(6.72408e-07 -7.56059e-07 0.096435)
(-3.71152e-06 -1.11253e-08 0.100461)
(3.26821e-06 4.4463e-07 0.0993503)
(3.66618e-06 6.28116e-09 0.100461)
(-3.21753e-06 -4.65444e-07 0.0993507)
(1.88865e-07 -1.89258e-07 0.100562)
(-1.87997e-07 1.88528e-07 0.100562)
(1.87295e-07 1.87684e-07 0.100562)
(-1.89709e-07 -1.87627e-07 0.100562)
(1.88512e-07 -1.87685e-07 0.100562)
(-1.86929e-07 1.87201e-07 0.100562)
(1.86119e-07 1.86169e-07 0.100562)
(7.58295e-06 -3.63064e-08 0.100553)
(-5.95845e-06 1.94547e-06 0.100486)
(-1.55404e-07 -7.74152e-08 0.100562)
(-1.32256e-07 2.53996e-07 0.100562)
(-7.63873e-06 3.45663e-08 0.100553)
(5.82661e-06 -1.97978e-06 0.100486)
(-1.54595e-07 -7.75021e-08 0.100562)
(7.50098e-07 -7.09653e-07 0.0964341)
(-7.28736e-07 6.54906e-07 0.0964347)
(-3.00191e-08 7.58835e-06 0.100553)
(-7.80759e-08 -1.53895e-07 0.100562)
(1.9563e-06 -5.97368e-06 0.100486)
(2.51655e-07 -1.3115e-07 0.100562)
(3.07026e-08 -7.64186e-06 0.100553)
(-7.8188e-08 -1.55059e-07 0.100562)
(-1.99233e-06 5.83902e-06 0.100486)
(-1.6529e-06 -2.14741e-06 0.100345)
(-2.1424e-06 -1.65067e-06 0.100345)
(3.22831e-05 3.23002e-05 0.100562)
(1.64501e-06 2.09908e-06 0.100345)
(2.09491e-06 1.6416e-06 0.100345)
(-2.32356e-08 -3.69391e-06 0.100461)
(4.686e-07 3.27427e-06 0.0993505)
(-2.68903e-09 3.64992e-06 0.100461)
(-5.70134e-07 -3.25384e-06 0.0993507)
(-7.48122e-07 8.18928e-07 0.0964347)
(7.05151e-07 -7.39326e-07 0.096435)
(-3.71108e-06 -1.07798e-08 0.100461)
(3.2752e-06 4.47354e-07 0.0993503)
(3.66603e-06 5.77432e-09 0.100461)
(-3.22198e-06 -4.7099e-07 0.0993506)
(1.88497e-07 -1.84611e-07 0.100562)
(-1.86032e-07 1.87515e-07 0.100562)
(1.83595e-07 1.81318e-07 0.100562)
(-1.88922e-07 -1.86503e-07 0.100562)
(1.91275e-07 -1.87558e-07 0.100562)