/*--------------------------------*- C++ -*----------------------------------*\
| =========                 |                                                 |
| \\      /  F ield         | OpenFOAM: The Open Source CFD Toolbox           |
|  \\    /   O peration     | Version:  2206                                  |
|   \\  /    A nd           | Website:  www.openfoam.com                      |
|    \\/     M anipulation  |                                                 |
\*---------------------------------------------------------------------------*/
FoamFile
{
    version     2.0;
    format      ascii;
    arch        "LSB;label=32;scalar=64";
    class       volScalarField;
    location    "10.5";
    object      k;
}
// * * * * * * * * * * * * * * * * * * * * * * * * * * * * * * * * * * * * * //

dimensions      [0 2 -2 0 0 0 0];

internalField   nonuniform List<scalar> 
28335
(
3.25645e-05
3.25119e-05
3.25119e-05
3.24273e-05
3.25634e-05
3.25109e-05
3.25109e-05
3.24265e-05
3.25547e-05
3.25017e-05
3.25017e-05
3.24162e-05
3.25541e-05
3.25012e-05
3.25011e-05
3.24161e-05
3.25541e-05
3.25012e-05
3.25012e-05
3.24162e-05
3.25541e-05
3.25012e-05
3.25012e-05
3.24162e-05
3.25541e-05
3.25012e-05
3.25012e-05
3.24162e-05
3.25541e-05
3.25012e-05
3.25012e-05
3.24162e-05
3.25541e-05
3.25012e-05
3.25012e-05
3.24162e-05
3.25541e-05
3.25012e-05
3.25012e-05
3.24162e-05
3.25541e-05
3.25012e-05
3.25012e-05
3.24162e-05
3.25541e-05
3.25012e-05
3.25012e-05
3.24162e-05
3.25541e-05
3.25012e-05
3.25012e-05
3.24162e-05
3.25541e-05
3.25012e-05
3.25012e-05
3.24162e-05
3.25541e-05
3.25012e-05
3.25012e-05
3.24162e-05
3.25541e-05
3.25012e-05
3.25012e-05
3.24162e-05
3.25541e-05
3.25012e-05
3.25012e-05
3.24162e-05
3.24284e-05
3.2512e-05
3.25119e-05
3.24284e-05
3.2512e-05
3.25119e-05
3.25119e-05
3.2512e-05
3.24284e-05
3.25119e-05
3.2512e-05
3.24281e-05
3.24278e-05
3.24277e-05
3.2512e-05
3.2512e-05
3.25116e-05
3.25116e-05
3.24278e-05
3.24277e-05
3.25121e-05
3.2512e-05
3.25116e-05
3.25115e-05
3.2512e-05
3.25115e-05
3.25116e-05
3.24278e-05
3.24277e-05
3.2512e-05
3.25115e-05
3.25116e-05
3.24278e-05
3.24269e-05
3.24175e-05
3.25109e-05
3.25109e-05
3.25028e-05
3.25029e-05
3.24269e-05
3.24175e-05
3.2511e-05
3.25109e-05
3.25029e-05
3.25028e-05
3.25109e-05
3.25029e-05
3.25029e-05
3.24268e-05
3.24174e-05
3.25109e-05
3.25029e-05
3.25029e-05
3.24174e-05
3.24166e-05
3.2417e-05
3.25018e-05
3.25018e-05
3.25011e-05
3.25011e-05
3.24165e-05
3.2417e-05
3.25018e-05
3.25017e-05
3.25011e-05
3.2501e-05
3.25018e-05
3.25012e-05
3.25011e-05
3.24165e-05
3.2417e-05
3.25018e-05
3.25011e-05
3.25011e-05
3.24169e-05
3.24165e-05
3.24171e-05
3.25013e-05
3.25012e-05
3.25011e-05
3.25011e-05
3.24165e-05
3.2417e-05
3.25013e-05
3.25012e-05
3.25012e-05
3.25011e-05
3.25013e-05
3.25012e-05
3.25011e-05
3.24164e-05
3.2417e-05
3.25013e-05
3.25012e-05
3.25012e-05
3.24169e-05
3.24165e-05
3.24171e-05
3.25013e-05
3.25013e-05
3.25011e-05
3.25011e-05
3.24165e-05
3.2417e-05
3.25013e-05
3.25012e-05
3.25012e-05
3.25011e-05
3.25013e-05
3.25012e-05
3.25011e-05
3.24164e-05
3.2417e-05
3.25013e-05
3.25012e-05
3.25012e-05
3.24169e-05
3.24165e-05
3.24171e-05
3.25013e-05
3.25013e-05
3.25011e-05
3.25011e-05
3.24165e-05
3.2417e-05
3.25013e-05
3.25012e-05
3.25012e-05
3.25011e-05
3.25013e-05
3.25012e-05
3.25011e-05
3.24164e-05
3.2417e-05
3.25013e-05
3.25012e-05
3.25012e-05
3.24169e-05
3.24165e-05
3.24171e-05
3.25013e-05
3.25013e-05
3.25011e-05
3.25011e-05
3.24165e-05
3.2417e-05
3.25013e-05
3.25012e-05
3.25012e-05
3.25011e-05
3.25013e-05
3.25012e-05
3.25011e-05
3.24164e-05
3.2417e-05
3.25013e-05
3.25012e-05
3.25012e-05
3.24169e-05
3.24165e-05
3.24171e-05
3.25013e-05
3.25013e-05
3.25011e-05
3.25011e-05
3.24165e-05
3.2417e-05
3.25013e-05
3.25012e-05
3.25012e-05
3.25011e-05
3.25013e-05
3.25012e-05
3.25011e-05
3.24164e-05
3.2417e-05
3.25013e-05
3.25012e-05
3.25012e-05
3.24169e-05
3.24165e-05
3.24171e-05
3.25013e-05
3.25013e-05
3.25011e-05
3.25011e-05
3.24165e-05
3.2417e-05
3.25013e-05
3.25012e-05
3.25012e-05
3.25011e-05
3.25013e-05
3.25012e-05
3.25011e-05
3.24164e-05
3.2417e-05
3.25013e-05
3.25012e-05
3.25012e-05
3.24169e-05
3.24165e-05
3.24171e-05
3.25013e-05
3.25013e-05
3.25011e-05
3.25011e-05
3.24165e-05
3.2417e-05
3.25013e-05
3.25012e-05
3.25012e-05
3.25011e-05
3.25013e-05
3.25012e-05
3.25011e-05
3.24164e-05
3.2417e-05
3.25013e-05
3.25012e-05
3.25012e-05
3.24169e-05
3.24165e-05
3.24171e-05
3.25013e-05
3.25013e-05
3.25011e-05
3.25011e-05
3.24165e-05
3.2417e-05
3.25013e-05
3.25012e-05
3.25012e-05
3.25011e-05
3.25013e-05
3.25012e-05
3.25011e-05
3.24164e-05
3.2417e-05
3.25013e-05
3.25012e-05
3.25012e-05
3.24169e-05
3.24165e-05
3.24171e-05
3.25013e-05
3.25013e-05
3.25011e-05
3.25011e-05
3.24165e-05
3.2417e-05
3.25013e-05
3.25012e-05
3.25012e-05
3.25011e-05
3.25013e-05
3.25012e-05
3.25011e-05
3.24164e-05
3.2417e-05
3.25013e-05
3.25012e-05
3.25012e-05
3.24169e-05
3.24165e-05
3.24171e-05
3.25013e-05
3.25013e-05
3.25011e-05
3.25011e-05
3.24165e-05
3.2417e-05
3.25013e-05
3.25012e-05
3.25012e-05
3.25011e-05
3.25013e-05
3.25012e-05
3.25011e-05
3.24164e-05
3.2417e-05
3.25013e-05
3.25012e-05
3.25012e-05
3.24169e-05
3.24165e-05
3.24171e-05
3.25013e-05
3.25013e-05
3.25011e-05
3.25011e-05
3.24165e-05
3.2417e-05
3.25013e-05
3.25012e-05
3.25012e-05
3.25011e-05
3.25013e-05
3.25012e-05
3.25011e-05
3.24164e-05
3.2417e-05
3.25013e-05
3.25012e-05
3.25012e-05
3.24169e-05
3.24165e-05
3.24171e-05
3.25013e-05
3.25013e-05
3.25011e-05
3.25011e-05
3.24165e-05
3.2417e-05
3.25013e-05
3.25012e-05
3.25012e-05
3.25011e-05
3.25013e-05
3.25012e-05
3.25011e-05
3.24164e-05
3.2417e-05
3.25013e-05
3.25012e-05
3.25012e-05
3.24169e-05
3.24165e-05
3.24171e-05
3.25013e-05
3.25013e-05
3.25011e-05
3.25011e-05
3.24165e-05
3.2417e-05
3.25013e-05
3.25012e-05
3.25012e-05
3.25011e-05
3.25013e-05
3.25012e-05
3.25011e-05
3.24164e-05
3.2417e-05
3.25013e-05
3.25012e-05
3.25012e-05
3.24169e-05
3.24165e-05
3.25013e-05
3.25013e-05
3.24165e-05
3.25013e-05
3.25012e-05
3.25012e-05
3.24164e-05
3.25012e-05
3.31369e-05
5.9547e-05
8.28503e-05
3.31375e-05
5.95494e-05
3.25646e-05
3.25646e-05
3.25646e-05
3.25646e-05
3.21275e-05
3.2512e-05
3.29179e-05
3.25501e-05
8.28482e-05
3.21275e-05
3.2512e-05
3.25501e-05
3.29181e-05
3.24282e-05
3.40992e-05
3.40993e-05
3.31389e-05
5.95476e-05
3.31391e-05
5.95453e-05
8.28422e-05
8.28379e-05
3.31394e-05
5.955e-05
3.31395e-05
5.95476e-05
3.25646e-05
3.25646e-05
3.25646e-05
3.25641e-05
3.25642e-05
3.25641e-05
3.25641e-05
3.21284e-05
3.29201e-05
3.255e-05
3.25119e-05
3.21278e-05
3.29195e-05
3.255e-05
8.28411e-05
8.28358e-05
3.21284e-05
3.255e-05
3.29202e-05
3.25119e-05
3.21278e-05
3.255e-05
3.29197e-05
3.41047e-05
3.41048e-05
3.24282e-05
3.41061e-05
3.41062e-05
3.31363e-05
5.9548e-05
3.31393e-05
5.95606e-05
8.28399e-05
8.28654e-05
3.31368e-05
5.95505e-05
3.31396e-05
5.95628e-05
3.25635e-05
3.25635e-05
3.25635e-05
3.2556e-05
3.2556e-05
3.2556e-05
3.2556e-05
3.21239e-05
3.29206e-05
3.25489e-05
3.25088e-05
3.21275e-05
3.2917e-05
3.25468e-05
8.28396e-05
8.2863e-05
3.21239e-05
3.25489e-05
3.29206e-05
3.25087e-05
3.21275e-05
3.25468e-05
3.29171e-05
3.41072e-05
3.41072e-05
3.24242e-05
3.41048e-05
3.41048e-05
3.31271e-05
5.95855e-05
3.31284e-05
5.95831e-05
8.28872e-05
8.28847e-05
3.31276e-05
5.95879e-05
3.31285e-05
5.95855e-05
3.25549e-05
3.25549e-05
3.25549e-05
3.25541e-05
3.25541e-05
3.25541e-05
3.25541e-05
3.2115e-05
3.29103e-05
3.25401e-05
3.25014e-05
3.21149e-05
3.29082e-05
3.25398e-05
8.28864e-05
8.28836e-05
3.2115e-05
3.25401e-05
3.29102e-05
3.25014e-05
3.21149e-05
3.25398e-05
3.29084e-05
3.40927e-05
3.40928e-05
3.2417e-05
3.40916e-05
3.40916e-05
3.31271e-05
5.95846e-05
3.31278e-05
5.95826e-05
8.28862e-05
8.28846e-05
3.31276e-05
5.95869e-05
3.31282e-05
5.9585e-05
3.25543e-05
3.25543e-05
3.25543e-05
3.25541e-05
3.25542e-05
3.25542e-05
3.25541e-05
3.2115e-05
3.29092e-05
3.25395e-05
3.25013e-05
3.21148e-05
3.2908e-05
3.25396e-05
8.28851e-05
8.28831e-05
3.2115e-05
3.25395e-05
3.29093e-05
3.25013e-05
3.21149e-05
3.25396e-05
3.29082e-05
3.40921e-05
3.40922e-05
3.2417e-05
3.40916e-05
3.40917e-05
3.31271e-05
5.95845e-05
3.31278e-05
5.95826e-05
8.28862e-05
8.28846e-05
3.31277e-05
5.95869e-05
3.31283e-05
5.9585e-05
3.25543e-05
3.25543e-05
3.25543e-05
3.25541e-05
3.25542e-05
3.25542e-05
3.25542e-05
3.2115e-05
3.29092e-05
3.25395e-05
3.25013e-05
3.21148e-05
3.2908e-05
3.25396e-05
8.28851e-05
8.28831e-05
3.2115e-05
3.25395e-05
3.29093e-05
3.25013e-05
3.21148e-05
3.25396e-05
3.29082e-05
3.40922e-05
3.40922e-05
3.2417e-05
3.40916e-05
3.40917e-05
3.31271e-05
5.95845e-05
3.31278e-05
5.95826e-05
8.28863e-05
8.28846e-05
3.31277e-05
5.95866e-05
3.31283e-05
5.95845e-05
3.25543e-05
3.25543e-05
3.25543e-05
3.25541e-05
3.25542e-05
3.25542e-05
3.25542e-05
3.2115e-05
3.29092e-05
3.25395e-05
3.25013e-05
3.21148e-05
3.2908e-05
3.25396e-05
8.28851e-05
8.28831e-05
3.2115e-05
3.25395e-05
3.29093e-05
3.25013e-05
3.21148e-05
3.25396e-05
3.29082e-05
3.40922e-05
3.40922e-05
3.2417e-05
3.40916e-05
3.40917e-05
3.31271e-05
5.95845e-05
3.31278e-05
5.95826e-05
8.28861e-05
8.28844e-05
3.31277e-05
5.95863e-05
3.31283e-05
5.95842e-05
3.25543e-05
3.25543e-05
3.25543e-05
3.25541e-05
3.25542e-05
3.25542e-05
3.25542e-05
3.2115e-05
3.29092e-05
3.25395e-05
3.25013e-05
3.21148e-05
3.2908e-05
3.25396e-05
8.28851e-05
8.28831e-05
3.2115e-05
3.25395e-05
3.29093e-05
3.25013e-05
3.21148e-05
3.25396e-05
3.29082e-05
3.40922e-05
3.40922e-05
3.2417e-05
3.40916e-05
3.40917e-05
3.31271e-05
5.95845e-05
3.31278e-05
5.95826e-05
8.28859e-05
8.28843e-05
3.31277e-05
5.95861e-05
3.31283e-05
5.95841e-05
3.25543e-05
3.25543e-05
3.25543e-05
3.25541e-05
3.25542e-05
3.25542e-05
3.25542e-05
3.2115e-05
3.29092e-05
3.25395e-05
3.25013e-05
3.21148e-05
3.2908e-05
3.25396e-05
8.2885e-05
8.28831e-05
3.2115e-05
3.25395e-05
3.29093e-05
3.25013e-05
3.21148e-05
3.25396e-05
3.29082e-05
3.40922e-05
3.40922e-05
3.2417e-05
3.40916e-05
3.40917e-05
3.31271e-05
5.95845e-05
3.31278e-05
5.95826e-05
8.2886e-05
8.28843e-05
3.31277e-05
5.95861e-05
3.31283e-05
5.95841e-05
3.25543e-05
3.25543e-05
3.25543e-05
3.25541e-05
3.25542e-05
3.25542e-05
3.25542e-05
3.2115e-05
3.29092e-05
3.25395e-05
3.25013e-05
3.21148e-05
3.2908e-05
3.25396e-05
8.2885e-05
8.28831e-05
3.2115e-05
3.25395e-05
3.29093e-05
3.25013e-05
3.21148e-05
3.25396e-05
3.29082e-05
3.40922e-05
3.40922e-05
3.2417e-05
3.40916e-05
3.40917e-05
3.31271e-05
5.95845e-05
3.31278e-05
5.95826e-05
8.28859e-05
8.28843e-05
3.31277e-05
5.95861e-05
3.31283e-05
5.95841e-05
3.25543e-05
3.25543e-05
3.25543e-05
3.25541e-05
3.25542e-05
3.25542e-05
3.25542e-05
3.2115e-05
3.29092e-05
3.25395e-05
3.25013e-05
3.21148e-05
3.2908e-05
3.25396e-05
8.2885e-05
8.28831e-05
3.2115e-05
3.25395e-05
3.29093e-05
3.25013e-05
3.21148e-05
3.25396e-05
3.29082e-05
3.40922e-05
3.40922e-05
3.2417e-05
3.40916e-05
3.40917e-05
3.31271e-05
5.95845e-05
3.31278e-05
5.95826e-05
8.28859e-05
8.28843e-05
3.31277e-05
5.95861e-05
3.31283e-05
5.95841e-05
3.25543e-05
3.25543e-05
3.25543e-05
3.25541e-05
3.25542e-05
3.25542e-05
3.25542e-05
3.2115e-05
3.29092e-05
3.25395e-05
3.25013e-05
3.21148e-05
3.2908e-05
3.25396e-05
8.2885e-05
8.28831e-05
3.2115e-05
3.25395e-05
3.29093e-05
3.25013e-05
3.21148e-05
3.25396e-05
3.29082e-05
3.40922e-05
3.40922e-05
3.2417e-05
3.40916e-05
3.40917e-05
3.31271e-05
5.95845e-05
3.31278e-05
5.95826e-05
8.28859e-05
8.28843e-05
3.31277e-05
5.95861e-05
3.31283e-05
5.95841e-05
3.25543e-05
3.25543e-05
3.25543e-05
3.25541e-05
3.25542e-05
3.25542e-05
3.25542e-05
3.2115e-05
3.29092e-05
3.25395e-05
3.25013e-05
3.21148e-05
3.2908e-05
3.25396e-05
8.2885e-05
8.28831e-05
3.2115e-05
3.25395e-05
3.29093e-05
3.25013e-05
3.21149e-05
3.25396e-05
3.29082e-05
3.40922e-05
3.40922e-05
3.2417e-05
3.40916e-05
3.40917e-05
3.31271e-05
5.95845e-05
3.31278e-05
5.95826e-05
8.28859e-05
8.28843e-05
3.31277e-05
5.95861e-05
3.31283e-05
5.95841e-05
3.25543e-05
3.25543e-05
3.25543e-05
3.25541e-05
3.25542e-05
3.25542e-05
3.25542e-05
3.2115e-05
3.29092e-05
3.25395e-05
3.25013e-05
3.21148e-05
3.2908e-05
3.25396e-05
8.2885e-05
8.28831e-05
3.2115e-05
3.25395e-05
3.29093e-05
3.25013e-05
3.21149e-05
3.25396e-05
3.29082e-05
3.40922e-05
3.40922e-05
3.2417e-05
3.40916e-05
3.40917e-05
3.31271e-05
5.95845e-05
3.31278e-05
5.95826e-05
8.28859e-05
8.28843e-05
3.31277e-05
5.95861e-05
3.31283e-05
5.95841e-05
3.25543e-05
3.25543e-05
3.25543e-05
3.25541e-05
3.25542e-05
3.25542e-05
3.25542e-05
3.2115e-05
3.29092e-05
3.25395e-05
3.25013e-05
3.21148e-05
3.2908e-05
3.25396e-05
8.2885e-05
8.28831e-05
3.21149e-05
3.25395e-05
3.29093e-05
3.25013e-05
3.21147e-05
3.25396e-05
3.29082e-05
3.40922e-05
3.40922e-05
3.2417e-05
3.40916e-05
3.40917e-05
3.31271e-05
5.95845e-05
3.31278e-05
5.95826e-05
8.28859e-05
8.28843e-05
3.31277e-05
5.95861e-05
3.31283e-05
5.95841e-05
3.25543e-05
3.25543e-05
3.25543e-05
3.25541e-05
3.25542e-05
3.25542e-05
3.25542e-05
3.2115e-05
3.29092e-05
3.25395e-05
3.25013e-05
3.21148e-05
3.2908e-05
3.25396e-05
8.2885e-05
8.28831e-05
3.21149e-05
3.25395e-05
3.29093e-05
3.25013e-05
3.21147e-05
3.25396e-05
3.29082e-05
3.40922e-05
3.40922e-05
3.2417e-05
3.40916e-05
3.40917e-05
3.31271e-05
5.95845e-05
3.31278e-05
5.95826e-05
8.28859e-05
8.28842e-05
3.31277e-05
5.95861e-05
3.31283e-05
5.95841e-05
3.25543e-05
3.25543e-05
3.25543e-05
3.25541e-05
3.25542e-05
3.25542e-05
3.25541e-05
3.2115e-05
3.29092e-05
3.25395e-05
3.25013e-05
3.21148e-05
3.2908e-05
3.25396e-05
8.2885e-05
8.2883e-05
3.21149e-05
3.25395e-05
3.29093e-05
3.25013e-05
3.21147e-05
3.25396e-05
3.29082e-05
3.40921e-05
3.40922e-05
3.2417e-05
3.40916e-05
3.40917e-05
3.31271e-05
5.95845e-05
3.31278e-05
5.95826e-05
8.28859e-05
8.28842e-05
3.31277e-05
5.95861e-05
3.31283e-05
5.95842e-05
3.25543e-05
3.25542e-05
3.25542e-05
3.21154e-05
3.29092e-05
3.25395e-05
3.25012e-05
3.21148e-05
3.2908e-05
3.25397e-05
8.2885e-05
8.28833e-05
3.21154e-05
3.25395e-05
3.29093e-05
3.25014e-05
3.21147e-05
3.25397e-05
3.29084e-05
3.40921e-05
3.40922e-05
3.24173e-05
3.40917e-05
3.40917e-05
8.28482e-05
8.28502e-05
3.24284e-05
3.40992e-05
3.40992e-05
8.28403e-05
8.28473e-05
8.28424e-05
8.28493e-05
3.24279e-05
3.41036e-05
3.41035e-05
3.41014e-05
3.41014e-05
3.31371e-05
5.9548e-05
3.21278e-05
3.2512e-05
3.29182e-05
3.25501e-05
3.21278e-05
3.2512e-05
3.29186e-05
3.25501e-05
3.31384e-05
5.95462e-05
5.95474e-05
3.31381e-05
3.31386e-05
5.9547e-05
5.95484e-05
3.31383e-05
3.21281e-05
3.2512e-05
3.29192e-05
3.25501e-05
3.292e-05
3.25501e-05
3.21281e-05
3.21281e-05
3.2512e-05
3.29195e-05
3.25501e-05
3.29204e-05
3.25501e-05
3.21281e-05
3.24284e-05
3.40992e-05
3.40963e-05
8.28446e-05
8.28422e-05
8.28494e-05
3.24279e-05
3.41035e-05
3.41009e-05
3.41016e-05
3.40993e-05
8.28367e-05
8.28446e-05
3.2128e-05
3.25121e-05
3.29187e-05
3.25502e-05
3.31372e-05
5.95484e-05
3.21279e-05
3.2512e-05
3.25501e-05
3.29182e-05
3.31388e-05
5.95486e-05
5.95499e-05
3.31386e-05
3.21284e-05
3.2512e-05
3.29196e-05
3.25501e-05
3.29204e-05
3.25501e-05
3.21284e-05
3.31385e-05
5.95476e-05
5.9549e-05
3.31384e-05
3.21282e-05
3.25119e-05
3.25501e-05
3.29191e-05
3.25501e-05
3.29201e-05
3.21281e-05
3.3137e-05
5.95467e-05
3.21277e-05
3.2512e-05
3.25501e-05
3.29182e-05
3.3137e-05
5.95485e-05
3.21279e-05
3.2512e-05
3.29187e-05
3.255e-05
3.29198e-05
3.25501e-05
3.21278e-05
3.31385e-05
5.95458e-05
5.95472e-05
3.31383e-05
3.21281e-05
3.2512e-05
3.25501e-05
3.29191e-05
3.25501e-05
3.29199e-05
3.2128e-05
3.31385e-05
5.95475e-05
5.95489e-05
3.31382e-05
3.24283e-05
3.40974e-05
3.40992e-05
8.28494e-05
8.28405e-05
8.28482e-05
3.24279e-05
3.41017e-05
3.41034e-05
3.41e-05
3.41013e-05
8.28415e-05
8.28485e-05
3.21279e-05
3.2512e-05
3.25501e-05
3.29184e-05
3.31372e-05
5.95489e-05
3.31372e-05
5.95497e-05
3.21279e-05
3.2512e-05
3.255e-05
3.29189e-05
3.25501e-05
3.29199e-05
3.21278e-05
3.21282e-05
3.2512e-05
3.25501e-05
3.29193e-05
3.25501e-05
3.29202e-05
3.21283e-05
3.31385e-05
5.95479e-05
5.95493e-05
3.31384e-05
3.31386e-05
5.95486e-05
5.955e-05
3.31384e-05
8.28496e-05
8.28507e-05
3.24277e-05
3.41033e-05
3.41034e-05
3.41013e-05
3.41014e-05
8.28418e-05
8.28487e-05
8.28428e-05
8.28498e-05
8.28401e-05
8.28364e-05
8.28422e-05
8.28385e-05
3.41052e-05
3.41052e-05
3.24282e-05
3.41066e-05
3.41065e-05
8.28357e-05
8.28364e-05
8.28378e-05
8.28384e-05
3.24276e-05
3.41072e-05
3.41072e-05
3.41078e-05
3.41078e-05
3.31392e-05
5.9547e-05
3.31397e-05
5.95464e-05
3.21285e-05
3.29209e-05
3.25501e-05
3.2512e-05
3.21287e-05
3.292e-05
3.255e-05
3.21285e-05
3.29213e-05
3.25501e-05
3.2512e-05
3.21287e-05
3.29203e-05
3.255e-05
3.31402e-05
5.95459e-05
5.95454e-05
3.31388e-05
3.31404e-05
5.95468e-05
5.95465e-05
3.3139e-05
3.21284e-05
3.25118e-05
3.292e-05
3.25497e-05
3.29217e-05
3.25499e-05
3.21278e-05
3.21286e-05
3.25118e-05
3.29203e-05
3.25496e-05
3.2922e-05
3.25499e-05
3.21281e-05
3.41053e-05
3.41032e-05
3.24281e-05
3.41064e-05
3.4104e-05
8.28367e-05
8.28322e-05
8.28378e-05
8.28379e-05
3.24276e-05
3.41072e-05
3.4105e-05
3.41078e-05
3.41057e-05
8.28319e-05
8.28325e-05
3.21286e-05
3.29213e-05
3.25501e-05
3.2512e-05
3.21289e-05
3.29204e-05
3.255e-05
3.31392e-05
5.95478e-05
3.31396e-05
5.95469e-05
3.21285e-05
3.25501e-05
3.2921e-05
3.2512e-05
3.21287e-05
3.255e-05
3.29199e-05
3.31405e-05
5.95481e-05
5.95478e-05
3.31393e-05
3.21285e-05
3.25119e-05
3.29204e-05
3.25497e-05
3.2922e-05
3.25499e-05
3.2128e-05
3.31403e-05
5.95473e-05
5.95472e-05
3.31391e-05
3.21285e-05
3.25118e-05
3.25496e-05
3.29199e-05
3.25499e-05
3.29217e-05
3.21282e-05
3.31391e-05
5.9546e-05
3.31397e-05
5.9545e-05
3.21285e-05
3.25501e-05
3.29208e-05
3.25119e-05
3.21286e-05
3.255e-05
3.29198e-05
3.31391e-05
5.95475e-05
3.31396e-05
5.95469e-05
3.21284e-05
3.25118e-05
3.29196e-05
3.25496e-05
3.29213e-05
3.25499e-05
3.21278e-05
3.31404e-05
5.95454e-05
5.95453e-05
3.3139e-05
3.21284e-05
3.25118e-05
3.25496e-05
3.29198e-05
3.25499e-05
3.29215e-05
3.21279e-05
3.31403e-05
5.95472e-05
5.95469e-05
3.31389e-05
3.41038e-05
3.4105e-05
3.24281e-05
3.41047e-05
3.41064e-05
8.28413e-05
8.28376e-05
8.28357e-05
8.28361e-05
3.24276e-05
3.41056e-05
3.41071e-05
3.41063e-05
3.41076e-05
8.28369e-05
8.28376e-05
3.21285e-05
3.25501e-05
3.29211e-05
3.2512e-05
3.21288e-05
3.255e-05
3.292e-05
3.31392e-05
5.95479e-05
3.31396e-05
5.95472e-05
3.31392e-05
5.95486e-05
3.31397e-05
5.9548e-05
3.21284e-05
3.25118e-05
3.25496e-05
3.29197e-05
3.25499e-05
3.29213e-05
3.21278e-05
3.21284e-05
3.25118e-05
3.25496e-05
3.292e-05
3.25499e-05
3.29217e-05
3.21279e-05
3.31403e-05
5.95475e-05
5.95473e-05
3.3139e-05
3.31403e-05
5.95483e-05
5.9548e-05
3.3139e-05
8.28416e-05
8.28378e-05
8.28426e-05
8.28388e-05
3.24276e-05
3.41069e-05
3.41069e-05
3.41074e-05
3.41075e-05
8.28371e-05
8.28378e-05
8.28382e-05
8.28388e-05
8.28369e-05
8.28631e-05
8.2839e-05
8.28658e-05
3.41077e-05
3.41078e-05
3.24242e-05
3.41051e-05
3.4105e-05
8.28849e-05
8.28771e-05
8.28871e-05
8.28795e-05
3.24206e-05
3.40929e-05
3.40928e-05
3.41039e-05
3.41039e-05
3.31365e-05
5.95473e-05
3.31399e-05
5.95616e-05
3.21239e-05
3.29213e-05
3.2549e-05
3.25087e-05
3.21277e-05
3.29173e-05
3.25468e-05
3.21239e-05
3.29216e-05
3.2549e-05
3.25088e-05
3.21278e-05
3.29176e-05
3.25468e-05
3.31361e-05
5.95839e-05
5.95745e-05
3.31282e-05
3.31363e-05
5.95855e-05
5.95761e-05
3.31282e-05
3.21208e-05
3.25053e-05
3.29096e-05
3.25413e-05
3.29172e-05
3.25436e-05
3.21154e-05
3.21208e-05
3.25053e-05
3.291e-05
3.25413e-05
3.29176e-05
3.25436e-05
3.21154e-05
3.41078e-05
3.41058e-05
3.24242e-05
3.4105e-05
3.41027e-05
8.28342e-05
8.28603e-05
8.28861e-05
8.2879e-05
3.24207e-05
3.4093e-05
3.40916e-05
3.41041e-05
3.41027e-05
8.28819e-05
8.28756e-05
3.21239e-05
3.29217e-05
3.2549e-05
3.25088e-05
3.21279e-05
3.29176e-05
3.25469e-05
3.31366e-05
5.95481e-05
3.31398e-05
5.95619e-05
3.21238e-05
3.2549e-05
3.29213e-05
3.25087e-05
3.21279e-05
3.25468e-05
3.29172e-05
3.31361e-05
5.95863e-05
5.95769e-05
3.31283e-05
3.21208e-05
3.25053e-05
3.29101e-05
3.25413e-05
3.29176e-05
3.25436e-05
3.21155e-05
3.3136e-05
5.95864e-05
5.95765e-05
3.3128e-05
3.21207e-05
3.25052e-05
3.25413e-05
3.29098e-05
3.25436e-05
3.29175e-05
3.21154e-05
3.31366e-05
5.95462e-05
3.31398e-05
5.95605e-05
3.21239e-05
3.2549e-05
3.29211e-05
3.25088e-05
3.21277e-05
3.25468e-05
3.29171e-05
3.31364e-05
5.95477e-05
3.31397e-05
5.95622e-05
3.21209e-05
3.25052e-05
3.29098e-05
3.25413e-05
3.29173e-05
3.25435e-05
3.21153e-05
3.31363e-05
5.95845e-05
5.95752e-05
3.31282e-05
3.21208e-05
3.25053e-05
3.25413e-05
3.29096e-05
3.25436e-05
3.29171e-05
3.21153e-05
3.31362e-05
5.95861e-05
5.95767e-05
3.31281e-05
3.41063e-05
3.41077e-05
3.24242e-05
3.41036e-05
3.41049e-05
8.2838e-05
8.28643e-05
8.28848e-05
8.28784e-05
3.24206e-05
3.40917e-05
3.40928e-05
3.41032e-05
3.41037e-05
8.28861e-05
8.28783e-05
3.2124e-05
3.2549e-05
3.29213e-05
3.25088e-05
3.21277e-05
3.25468e-05
3.29173e-05
3.31367e-05
5.9548e-05
3.31398e-05
5.95622e-05
3.31366e-05
5.95488e-05
3.31397e-05
5.95633e-05
3.21209e-05
3.25052e-05
3.25413e-05
3.29097e-05
3.25435e-05
3.2917e-05
3.21153e-05
3.21208e-05
3.25053e-05
3.25413e-05
3.29098e-05
3.25436e-05
3.29173e-05
3.21154e-05
3.3136e-05
5.95864e-05
5.95768e-05
3.31281e-05
3.3136e-05
5.95873e-05
5.95778e-05
3.3128e-05
8.28383e-05
8.28653e-05
8.28394e-05
8.28664e-05
3.24207e-05
3.40929e-05
3.4093e-05
3.41036e-05
3.41037e-05
8.28862e-05
8.28789e-05
8.28872e-05
8.288e-05
8.2885e-05
8.2884e-05
8.28871e-05
8.28861e-05
3.40928e-05
3.40928e-05
3.2417e-05
3.40915e-05
3.40915e-05
8.28836e-05
8.2884e-05
8.28857e-05
8.28861e-05
3.24166e-05
3.40916e-05
3.40916e-05
3.40923e-05
3.40923e-05
3.31271e-05
5.95857e-05
3.31287e-05
5.95852e-05
3.21151e-05
3.29105e-05
3.25402e-05
3.25014e-05
3.21155e-05
3.29083e-05
3.25398e-05
3.21151e-05
3.29109e-05
3.25402e-05
3.25014e-05
3.21155e-05
3.29087e-05
3.25398e-05
3.31282e-05
5.9583e-05
5.95831e-05
3.31271e-05
3.31283e-05
5.95849e-05
5.95853e-05
3.31271e-05
3.21154e-05
3.25011e-05
3.29081e-05
3.25395e-05
3.29098e-05
3.25395e-05
3.21151e-05
3.21154e-05
3.25011e-05
3.29085e-05
3.25395e-05
3.29102e-05
3.25395e-05
3.21151e-05
3.4093e-05
3.40917e-05
3.24169e-05
3.40914e-05
3.40885e-05
8.28824e-05
8.28807e-05
8.28847e-05
8.28847e-05
3.24165e-05
3.40914e-05
3.40887e-05
3.40923e-05
3.40895e-05
8.28804e-05
8.28813e-05
3.21153e-05
3.29109e-05
3.25402e-05
3.25014e-05
3.21156e-05
3.29087e-05
3.25398e-05
3.31272e-05
5.95867e-05
3.31285e-05
5.95858e-05
3.21152e-05
3.25402e-05
3.29107e-05
3.25013e-05
3.21155e-05
3.25397e-05
3.29082e-05
3.31286e-05
5.95853e-05
5.95856e-05
3.31276e-05
3.21156e-05
3.25011e-05
3.29085e-05
3.25395e-05
3.29102e-05
3.25395e-05
3.21153e-05
3.31283e-05
5.95854e-05
5.9586e-05
3.31272e-05
3.21154e-05
3.2501e-05
3.25395e-05
3.29081e-05
3.25395e-05
3.29099e-05
3.21152e-05
3.31271e-05
5.95849e-05
3.31286e-05
5.95839e-05
3.2115e-05
3.25402e-05
3.29105e-05
3.25014e-05
3.21154e-05
3.25398e-05
3.29083e-05
3.3127e-05
5.95862e-05
3.31285e-05
5.95857e-05
3.21153e-05
3.25013e-05
3.2908e-05
3.25395e-05
3.29098e-05
3.25396e-05
3.21149e-05
3.31282e-05
5.95835e-05
5.95842e-05
3.31271e-05
3.21154e-05
3.25011e-05
3.25395e-05
3.29081e-05
3.25395e-05
3.29098e-05
3.21151e-05
3.31281e-05
5.95854e-05
5.95858e-05
3.3127e-05
3.40917e-05
3.40927e-05
3.24169e-05
3.40895e-05
3.40914e-05
8.28861e-05
8.28852e-05
8.28832e-05
8.28842e-05
3.24165e-05
3.40895e-05
3.40915e-05
3.40905e-05
3.40922e-05
8.28849e-05
8.28853e-05
3.21151e-05
3.25402e-05
3.29107e-05
3.25014e-05
3.21155e-05
3.25398e-05
3.29085e-05
3.31272e-05
5.95866e-05
3.31285e-05
5.95861e-05
3.31272e-05
5.95874e-05
3.31285e-05
5.95869e-05
3.21154e-05
3.25013e-05
3.25395e-05
3.29083e-05
3.25396e-05
3.29099e-05
3.2115e-05
3.21154e-05
3.25011e-05
3.25395e-05
3.29083e-05
3.25395e-05
3.291e-05
3.21151e-05
3.31282e-05
5.95858e-05
5.95861e-05
3.31272e-05
3.31282e-05
5.95866e-05
5.95869e-05
3.31272e-05
8.28862e-05
8.28853e-05
8.28873e-05
8.28864e-05
3.24165e-05
3.40916e-05
3.40917e-05
3.40924e-05
3.40924e-05
8.2885e-05
8.28854e-05
8.2886e-05
8.28864e-05
8.28837e-05
8.28834e-05
8.28857e-05
8.28855e-05
3.40924e-05
3.40924e-05
3.2417e-05
3.40916e-05
3.40916e-05
8.28834e-05
8.28835e-05
8.28855e-05
8.28856e-05
3.24165e-05
3.40915e-05
3.40916e-05
3.40923e-05
3.40924e-05
3.31271e-05
5.9585e-05
3.31283e-05
5.95848e-05
3.21151e-05
3.29097e-05
3.25397e-05
3.25013e-05
3.21154e-05
3.29081e-05
3.25397e-05
3.21151e-05
3.29101e-05
3.25397e-05
3.25012e-05
3.21155e-05
3.29085e-05
3.25397e-05
3.31283e-05
5.95829e-05
5.95827e-05
3.31271e-05
3.31283e-05
5.95848e-05
5.95849e-05
3.31271e-05
3.21154e-05
3.25012e-05
3.29081e-05
3.25395e-05
3.29097e-05
3.25396e-05
3.21151e-05
3.21154e-05
3.25012e-05
3.29085e-05
3.25395e-05
3.29101e-05
3.25395e-05
3.21151e-05
3.40923e-05
3.40898e-05
3.24169e-05
3.40915e-05
3.40888e-05
8.28811e-05
8.28806e-05
8.28847e-05
8.28846e-05
3.24165e-05
3.40915e-05
3.40886e-05
3.40924e-05
3.40898e-05
8.28805e-05
8.28813e-05
3.21153e-05
3.29101e-05
3.25397e-05
3.25013e-05
3.21156e-05
3.29085e-05
3.25397e-05
3.31273e-05
5.95857e-05
3.31283e-05
5.95853e-05
3.21152e-05
3.25397e-05
3.29098e-05
3.25012e-05
3.21155e-05
3.25397e-05
3.29081e-05
3.31287e-05
5.95852e-05
5.95852e-05
3.31277e-05
3.21156e-05
3.25012e-05
3.29085e-05
3.25395e-05
3.29101e-05
3.25396e-05
3.21153e-05
3.31283e-05
5.95853e-05
5.95856e-05
3.31273e-05
3.21155e-05
3.25012e-05
3.25395e-05
3.29081e-05
3.25395e-05
3.29098e-05
3.21152e-05
3.31271e-05
5.95838e-05
3.31282e-05
5.95835e-05
3.21151e-05
3.25397e-05
3.29097e-05
3.25013e-05
3.21154e-05
3.25397e-05
3.29081e-05
3.3127e-05
5.95855e-05
3.31281e-05
5.95853e-05
3.21153e-05
3.25013e-05
3.2908e-05
3.25395e-05
3.29097e-05
3.25396e-05
3.21148e-05
3.31282e-05
5.95836e-05
5.95838e-05
3.31271e-05
3.21154e-05
3.25012e-05
3.25395e-05
3.29081e-05
3.25395e-05
3.29097e-05
3.21151e-05
3.31281e-05
5.95853e-05
5.95854e-05
3.3127e-05
3.40905e-05
3.40923e-05
3.24169e-05
3.40896e-05
3.40915e-05
8.28849e-05
8.28847e-05
8.28831e-05
8.28838e-05
3.24164e-05
3.40895e-05
3.40915e-05
3.40905e-05
3.40923e-05
8.28847e-05
8.28848e-05
3.21152e-05
3.25397e-05
3.29099e-05
3.25013e-05
3.21154e-05
3.25397e-05
3.29083e-05
3.31272e-05
5.95859e-05
3.31283e-05
5.95857e-05
3.31272e-05
5.95866e-05
3.31282e-05
5.95864e-05
3.21154e-05
3.25013e-05
3.25395e-05
3.29082e-05
3.25396e-05
3.29098e-05
3.21149e-05
3.21154e-05
3.25012e-05
3.25395e-05
3.29083e-05
3.25395e-05
3.29099e-05
3.21151e-05
3.31283e-05
5.95857e-05
5.95858e-05
3.31272e-05
3.31283e-05
5.95864e-05
5.95865e-05
3.31272e-05
8.28851e-05
8.28848e-05
8.28862e-05
8.28859e-05
3.24164e-05
3.40917e-05
3.40917e-05
3.40924e-05
3.40925e-05
8.28849e-05
8.2885e-05
8.28859e-05
8.2886e-05
8.28836e-05
8.28834e-05
8.28856e-05
8.28854e-05
3.40923e-05
3.40924e-05
3.2417e-05
3.40915e-05
3.40915e-05
8.28834e-05
8.28835e-05
8.28855e-05
8.28856e-05
3.24165e-05
3.40916e-05
3.40915e-05
3.40924e-05
3.40923e-05
3.31271e-05
5.95849e-05
3.31283e-05
5.95848e-05
3.21151e-05
3.29097e-05
3.25396e-05
3.25013e-05
3.21154e-05
3.29081e-05
3.25396e-05
3.21151e-05
3.29101e-05
3.25396e-05
3.25013e-05
3.21154e-05
3.29085e-05
3.25396e-05
3.31283e-05
5.95829e-05
5.95827e-05
3.31271e-05
3.31283e-05
5.95848e-05
5.95849e-05
3.31271e-05
3.21154e-05
3.25012e-05
3.29081e-05
3.25395e-05
3.29097e-05
3.25396e-05
3.21151e-05
3.21154e-05
3.25012e-05
3.29085e-05
3.25395e-05
3.29101e-05
3.25395e-05
3.21151e-05
3.40924e-05
3.40897e-05
3.2417e-05
3.40915e-05
3.40888e-05
8.28812e-05
8.28805e-05
8.28848e-05
8.28846e-05
3.24165e-05
3.40915e-05
3.40886e-05
3.40924e-05
3.40898e-05
8.28804e-05
8.28812e-05
3.21153e-05
3.291e-05
3.25396e-05
3.25013e-05
3.21156e-05
3.29085e-05
3.25396e-05
3.31273e-05
5.95856e-05
3.31283e-05
5.95853e-05
3.21152e-05
3.25396e-05
3.29098e-05
3.25012e-05
3.21155e-05
3.25396e-05
3.29081e-05
3.31287e-05
5.95849e-05
5.95852e-05
3.31277e-05
3.21156e-05
3.25012e-05
3.29085e-05
3.25395e-05
3.29101e-05
3.25396e-05
3.21153e-05
3.31283e-05
5.95853e-05
5.95856e-05
3.31273e-05
3.21154e-05
3.25012e-05
3.25395e-05
3.29081e-05
3.25395e-05
3.29098e-05
3.21152e-05
3.31271e-05
5.95839e-05
3.31282e-05
5.95835e-05
3.21151e-05
3.25396e-05
3.29097e-05
3.25013e-05
3.21154e-05
3.25396e-05
3.29081e-05
3.3127e-05
5.95854e-05
3.31281e-05
5.95853e-05
3.21153e-05
3.25013e-05
3.2908e-05
3.25395e-05
3.29097e-05
3.25396e-05
3.21148e-05
3.31282e-05
5.95835e-05
5.95839e-05
3.31271e-05
3.21154e-05
3.25012e-05
3.25395e-05
3.29081e-05
3.25396e-05
3.29097e-05
3.21151e-05
3.31282e-05
5.95853e-05
5.95854e-05
3.3127e-05
3.40905e-05
3.40923e-05
3.24169e-05
3.40896e-05
3.40915e-05
8.28848e-05
8.28846e-05
8.28831e-05
8.28838e-05
3.24164e-05
3.40895e-05
3.40915e-05
3.40905e-05
3.40923e-05
8.28847e-05
8.28848e-05
3.21152e-05
3.25396e-05
3.29099e-05
3.25013e-05
3.21154e-05
3.25396e-05
3.29083e-05
3.31272e-05
5.95858e-05
3.31283e-05
5.95857e-05
3.31272e-05
5.95865e-05
3.31282e-05
5.95864e-05
3.21154e-05
3.25013e-05
3.25395e-05
3.29082e-05
3.25396e-05
3.29098e-05
3.21149e-05
3.21155e-05
3.25012e-05
3.25395e-05
3.29083e-05
3.25395e-05
3.29099e-05
3.21151e-05
3.31283e-05
5.95857e-05
5.95858e-05
3.31272e-05
3.31283e-05
5.95864e-05
5.95865e-05
3.31272e-05
8.2885e-05
8.28848e-05
8.28861e-05
8.28859e-05
3.24165e-05
3.40917e-05
3.40917e-05
3.40924e-05
3.40925e-05
8.28849e-05
8.2885e-05
8.28859e-05
8.2886e-05
8.28836e-05
8.28834e-05
8.28856e-05
8.28854e-05
3.40924e-05
3.40923e-05
3.2417e-05
3.40916e-05
3.40915e-05
8.28834e-05
8.28835e-05
8.28855e-05
8.28856e-05
3.24165e-05
3.40915e-05
3.40915e-05
3.40924e-05
3.40923e-05
3.31271e-05
5.95849e-05
3.31283e-05
5.95848e-05
3.21151e-05
3.29097e-05
3.25396e-05
3.25013e-05
3.21154e-05
3.29081e-05
3.25396e-05
3.21151e-05
3.29101e-05
3.25396e-05
3.25013e-05
3.21155e-05
3.29085e-05
3.25396e-05
3.31283e-05
5.95829e-05
5.95827e-05
3.31271e-05
3.31283e-05
5.95847e-05
5.95849e-05
3.31271e-05
3.21154e-05
3.25012e-05
3.29081e-05
3.25395e-05
3.29097e-05
3.25396e-05
3.21151e-05
3.21154e-05
3.25012e-05
3.29085e-05
3.25395e-05
3.29101e-05
3.25395e-05
3.21151e-05
3.40924e-05
3.40897e-05
3.2417e-05
3.40915e-05
3.40888e-05
8.28811e-05
8.28805e-05
8.28846e-05
8.28847e-05
3.24165e-05
3.40916e-05
3.40886e-05
3.40924e-05
3.40898e-05
8.28805e-05
8.28812e-05
3.21153e-05
3.29102e-05
3.25397e-05
3.25013e-05
3.21156e-05
3.29086e-05
3.25396e-05
3.31273e-05
5.95856e-05
3.31283e-05
5.95853e-05
3.21152e-05
3.25396e-05
3.29098e-05
3.25012e-05
3.21155e-05
3.25396e-05
3.29081e-05
3.31287e-05
5.95846e-05
5.95848e-05
3.31277e-05
3.21156e-05
3.25012e-05