/*--------------------------------*- C++ -*----------------------------------*\
| =========                 |                                                 |
| \\      /  F ield         | OpenFOAM: The Open Source CFD Toolbox           |
|  \\    /   O peration     | Version:  2206                                  |
|   \\  /    A nd           | Website:  www.openfoam.com                      |
|    \\/     M anipulation  |                                                 |
\*---------------------------------------------------------------------------*/
FoamFile
{
    version     2.0;
    format      ascii;
    arch        "LSB;label=32;scalar=64";
    class       volScalarField;
    location    "16";
    object      p;
}
// * * * * * * * * * * * * * * * * * * * * * * * * * * * * * * * * * * * * * //

dimensions      [0 2 -2 0 0 0 0];

internalField   nonuniform List<scalar> 
171728
(
0.00426827
0.0042686
0.0042686
0.00427165
0.00421293
0.00421335
0.00421335
0.00421634
0.0041622
0.004162
0.004162
0.00416477
0.00411231
0.00411215
0.00411215
0.00411464
0.00406645
0.0040664
0.0040664
0.00406906
0.00402123
0.0040212
0.0040212
0.00402384
0.00397607
0.00397604
0.00397604
0.00397869
0.00393092
0.00393089
0.00393089
0.00393353
0.00388576
0.00388574
0.00388574
0.00388838
0.00384061
0.00384058
0.00384058
0.00384323
0.00379546
0.00379543
0.00379543
0.00379808
0.00375031
0.00375028
0.00375028
0.00375292
0.00370515
0.00370512
0.00370512
0.00370777
0.00366
0.00365997
0.00365997
0.00366262
0.00361485
0.00361482
0.00361482
0.00361747
0.0035697
0.00356967
0.00356967
0.00357232
0.00352455
0.00352452
0.00352452
0.00352717
0.0034794
0.00347937
0.00347937
0.00348202
0.00343425
0.00343422
0.00343422
0.00343687
0.0033891
0.00338907
0.00338907
0.00339171
0.00334395
0.00334392
0.00334392
0.00334656
0.00329879
0.00329877
0.00329877
0.00330141
0.00325364
0.00325361
0.00325361
0.00325626
0.00320849
0.00320846
0.00320846
0.00321111
0.00316334
0.00316331
0.00316331
0.00316596
0.00311819
0.00311816
0.00311816
0.00312081
0.00307304
0.00307302
0.00307302
0.00307566
0.00302789
0.00302787
0.00302787
0.00303051
0.00298274
0.00298272
0.00298272
0.00298536
0.00293759
0.00293756
0.00293756
0.00294021
0.00289244
0.00289241
0.00289241
0.00289506
0.00284729
0.00284726
0.00284726
0.00284991
0.00280214
0.00280211
0.00280211
0.00280476
0.00275699
0.00275696
0.00275696
0.0027596
0.00271183
0.00271181
0.00271181
0.00271445
0.00266668
0.00266665
0.00266665
0.0026693
0.00262153
0.0026215
0.0026215
0.00262414
0.00257637
0.00257635
0.00257635
0.00257899
0.00253122
0.00253119
0.00253119
0.00253384
0.00248607
0.00248604
0.00248604
0.00248869
0.00244091
0.00244088
0.00244088
0.00244353
0.00239575
0.00239573
0.00239573
0.00239837
0.0023506
0.00235057
0.00235057
0.00235321
0.00230544
0.00230541
0.00230541
0.00230805
0.00226027
0.00226025
0.00226025
0.00226289
0.00221512
0.00221509
0.00221509
0.00221773
0.00216996
0.00216993
0.00216993
0.00217257
0.0021248
0.00212477
0.00212477
0.00212741
0.00207964
0.00207961
0.00207961
0.00208225
0.00203447
0.00203445
0.00203445
0.00203709
0.00198931
0.00198928
0.00198928
0.00199193
0.00194415
0.00194412
0.00194412
0.00194677
0.00189899
0.00189896
0.00189896
0.00190161
0.00185383
0.0018538
0.0018538
0.00185645
0.00180867
0.00180864
0.00180864
0.00181129
0.00176351
0.00176348
0.00176348
0.00176612
0.00171834
0.00171832
0.00171832
0.00172096
0.00167318
0.00167315
0.00167315
0.0016758
0.00162801
0.00162799
0.00162799
0.00163063
0.00158285
0.00158282
0.00158282
0.00158546
0.00153768
0.00153765
0.00153765
0.0015403
0.00149251
0.00149248
0.00149248
0.00149513
0.00144734
0.00144732
0.00144732
0.00144996
0.00140218
0.00140215
0.00140215
0.00140479
0.00135701
0.00135698
0.00135698
0.00135963
0.00131184
0.00131181
0.00131181
0.00131446
0.00126667
0.00126665
0.00126665
0.00126929
0.00122151
0.00122148
0.00122148
0.00122412
0.00117634
0.00117631
0.00117631
0.00117896
0.00113118
0.00113115
0.00113115
0.00113379
0.00108601
0.00108599
0.00108599
0.00108863
0.00104085
0.00104082
0.00104082
0.00104347
0.000995684
0.000995656
0.000995656
0.000998301
0.00095052
0.000950492
0.000950492
0.000953137
0.000905356
0.000905328
0.000905328
0.000907973
0.000860193
0.000860165
0.000860165
0.00086281
0.00081503
0.000815002
0.000815002
0.000817647
0.000769868
0.00076984
0.00076984
0.000772485
0.000724707
0.000724679
0.000724679
0.000727324
0.000679546
0.000679518
0.000679518
0.000682163
0.000634386
0.000634358
0.000634358
0.000637003
0.000589226
0.000589198
0.000589198
0.000591843
0.000544066
0.000544038
0.000544038
0.000546683
0.000498906
0.000498878
0.000498878
0.000501523
0.000453746
0.000453717
0.000453717
0.000456363
0.000408584
0.000408556
0.000408556
0.000411201
0.000363421
0.000363393
0.000363393
0.000366038
0.000318258
0.00031823
0.00031823
0.000320875
0.000273096
0.000273068
0.000273068
0.000275713
0.000227933
0.000227906
0.000227906
0.00023055
0.000182769
0.000182746
0.000182746
0.000185386
0.000137597
0.00013755
0.00013755
0.000140181
9.24548e-05
9.24341e-05
9.24322e-05
9.50285e-05
4.79412e-05
4.73754e-05
4.73717e-05
4.98566e-05
1.08361e-05
1.12018e-05
1.11995e-05
1.08094e-05
0.0042817
0.00428193
0.00428192
0.0042817
0.00428193
0.00428193
0.00428269
0.00428269
0.0042827
0.0042827
0.00428193
0.00428193
0.0042817
0.00428193
0.00428193
0.0042817
0.00427165
0.00422297
0.00426859
0.0042686
0.00422522
0.00422522
0.00427165
0.00422297
0.0042686
0.0042686
0.00422522
0.00422522
0.0042686
0.00422522
0.00422522
0.00427165
0.00422297
0.0042686
0.00422522
0.00422522
0.00422297
0.00421634
0.00417186
0.00421336
0.00421336
0.00417519
0.00417519
0.00421634
0.00417187
0.00421335
0.00421335
0.00417519
0.00417519
0.00421336
0.00417519
0.00417519
0.00421634
0.00417186
0.00421335
0.00417519
0.00417519
0.00417187
0.00416477
0.00412087
0.004162
0.004162
0.00412406
0.00412406
0.00416477
0.00412087
0.004162
0.004162
0.00412406
0.00412406
0.004162
0.00412406
0.00412407
0.00416477
0.00412087
0.004162
0.00412406
0.00412407
0.00412087
0.00411464
0.00407507
0.00411215
0.00411215
0.00407773
0.00407773
0.00411464
0.00407507
0.00411215
0.00411215
0.00407773
0.00407773
0.00411215
0.00407773
0.00407773
0.00411464
0.00407507
0.00411215
0.00407773
0.00407773
0.00407507
0.00406906
0.00402985
0.0040664
0.0040664
0.00403249
0.00403249
0.00406906
0.00402985
0.0040664
0.0040664
0.00403249
0.00403249
0.0040664
0.00403249
0.00403249
0.00406906
0.00402984
0.0040664
0.00403249
0.00403249
0.00402985
0.00402384
0.00398469
0.0040212
0.0040212
0.00398733
0.00398733
0.00402384
0.00398469
0.0040212
0.0040212
0.00398733
0.00398733
0.0040212
0.00398733
0.00398733
0.00402384
0.00398469
0.0040212
0.00398733
0.00398733
0.00398469
0.00397869
0.00393954
0.00397604
0.00397604
0.00394218
0.00394218
0.00397868
0.00393954
0.00397604
0.00397604
0.00394218
0.00394218
0.00397604
0.00394218
0.00394218
0.00397869
0.00393954
0.00397604
0.00394218
0.00394218
0.00393954
0.00393353
0.00389438
0.00393089
0.00393089
0.00389702
0.00389702
0.00393353
0.00389438
0.00393089
0.00393089
0.00389702
0.00389702
0.00393089
0.00389702
0.00389702
0.00393353
0.00389438
0.00393089
0.00389702
0.00389702
0.00389438
0.00388838
0.00384923
0.00388574
0.00388574
0.00385187
0.00385187
0.00388838
0.00384923
0.00388574
0.00388574
0.00385187
0.00385187
0.00388574
0.00385187
0.00385187
0.00388838
0.00384923
0.00388574
0.00385187
0.00385187
0.00384923
0.00384323
0.00380408
0.00384059
0.00384059
0.00380672
0.00380672
0.00384323
0.00380408
0.00384059
0.00384059
0.00380672
0.00380672
0.00384058
0.00380672
0.00380672
0.00384323
0.00380408
0.00384058
0.00380672
0.00380672
0.00380408
0.00379808
0.00375893
0.00379543
0.00379543
0.00376157
0.00376157
0.00379808
0.00375893
0.00379543
0.00379543
0.00376157
0.00376157
0.00379543
0.00376157
0.00376157
0.00379808
0.00375893
0.00379543
0.00376157
0.00376157
0.00375893
0.00375292
0.00371377
0.00375028
0.00375028
0.00371641
0.00371641
0.00375292
0.00371377
0.00375028
0.00375028
0.00371641
0.00371641
0.00375028
0.00371641
0.00371641
0.00375292
0.00371377
0.00375028
0.00371641
0.00371641
0.00371377
0.00370777
0.00366862
0.00370512
0.00370512
0.00367126
0.00367126
0.00370777
0.00366862
0.00370512
0.00370512
0.00367126
0.00367126
0.00370512
0.00367126
0.00367126
0.00370777
0.00366862
0.00370512
0.00367126
0.00367126
0.00366862
0.00366262
0.00362347
0.00365997
0.00365997
0.00362611
0.00362611
0.00366262
0.00362347
0.00365997
0.00365997
0.00362611
0.00362611
0.00365997
0.00362611
0.00362611
0.00366262
0.00362347
0.00365997
0.00362611
0.00362611
0.00362347
0.00361747
0.00357832
0.00361482
0.00361482
0.00358096
0.00358096
0.00361747
0.00357832
0.00361482
0.00361482
0.00358096
0.00358096
0.00361482
0.00358096
0.00358096
0.00361747
0.00357832
0.00361482
0.00358096
0.00358096
0.00357832
0.00357232
0.00353317
0.00356967
0.00356967
0.00353581
0.00353581
0.00357232
0.00353317
0.00356967
0.00356967
0.00353581
0.00353581
0.00356967
0.00353581
0.00353581
0.00357232
0.00353317
0.00356967
0.00353581
0.00353581
0.00353317
0.00352717
0.00348802
0.00352452
0.00352452
0.00349066
0.00349066
0.00352717
0.00348802
0.00352452
0.00352452
0.00349066
0.00349066
0.00352452
0.00349066
0.00349066
0.00352717
0.00348802
0.00352452
0.00349066
0.00349066
0.00348802
0.00348202
0.00344287
0.00347937
0.00347937
0.00344551
0.00344551
0.00348202
0.00344287
0.00347937
0.00347937
0.00344551
0.00344551
0.00347937
0.00344551
0.00344551
0.00348202
0.00344287
0.00347937
0.00344551
0.00344551
0.00344287
0.00343687
0.00339772
0.00343422
0.00343422
0.00340036
0.00340036
0.00343687
0.00339772
0.00343422
0.00343422
0.00340036
0.00340036
0.00343422
0.00340036
0.00340036
0.00343687
0.00339772
0.00343422
0.00340036
0.00340036
0.00339772
0.00339171
0.00335257
0.00338907
0.00338907
0.00335521
0.00335521
0.00339171
0.00335257
0.00338907
0.00338907
0.00335521
0.00335521
0.00338907
0.00335521
0.00335521
0.00339171
0.00335257
0.00338907
0.00335521
0.00335521
0.00335257
0.00334656
0.00330741
0.00334392
0.00334392
0.00331005
0.00331005
0.00334656
0.00330741
0.00334392
0.00334392
0.00331005
0.00331005
0.00334392
0.00331005
0.00331005
0.00334656
0.00330741
0.00334392
0.00331005
0.00331005
0.00330741
0.00330141
0.00326226
0.00329877
0.00329877
0.0032649
0.0032649
0.00330141
0.00326226
0.00329877
0.00329877
0.0032649
0.0032649
0.00329877
0.0032649
0.0032649
0.00330141
0.00326226
0.00329877
0.0032649
0.0032649
0.00326226
0.00325626
0.00321711
0.00325361
0.00325361
0.00321975
0.00321975
0.00325626
0.00321711
0.00325361
0.00325361
0.00321975
0.00321975
0.00325361
0.00321975
0.00321975
0.00325626
0.00321711
0.00325361
0.00321975
0.00321975
0.00321711
0.00321111
0.00317196
0.00320846
0.00320846
0.0031746
0.0031746
0.00321111
0.00317196
0.00320846
0.00320846
0.0031746
0.0031746
0.00320846
0.0031746
0.0031746
0.00321111
0.00317196
0.00320846
0.0031746
0.0031746
0.00317196
0.00316596
0.00312681
0.00316331
0.00316331
0.00312945
0.00312945
0.00316596
0.00312681
0.00316331
0.00316331
0.00312945
0.00312945
0.00316331
0.00312945
0.00312945
0.00316596
0.00312681
0.00316331
0.00312945
0.00312945
0.00312681
0.00312081
0.00308166
0.00311816
0.00311816
0.0030843
0.0030843
0.00312081
0.00308166
0.00311816
0.00311816
0.0030843
0.0030843
0.00311816
0.0030843
0.0030843
0.00312081
0.00308166
0.00311816
0.0030843
0.0030843
0.00308166
0.00307566
0.00303651
0.00307302
0.00307302
0.00303915
0.00303915
0.00307566
0.00303651
0.00307301
0.00307302
0.00303915
0.00303915
0.00307302
0.00303915
0.00303915
0.00307566
0.00303651
0.00307302
0.00303915
0.00303915
0.00303651
0.00303051
0.00299136
0.00302787
0.00302787
0.002994
0.002994
0.00303051
0.00299136
0.00302787
0.00302787
0.002994
0.002994
0.00302787
0.002994
0.002994
0.00303051
0.00299136
0.00302787
0.002994
0.002994
0.00299136
0.00298536
0.00294621
0.00298272
0.00298272
0.00294885
0.00294885
0.00298536
0.00294621
0.00298271
0.00298272
0.00294885
0.00294885
0.00298272
0.00294885
0.00294885
0.00298536
0.00294621
0.00298272
0.00294885
0.00294885
0.00294621
0.00294021
0.00290106
0.00293756
0.00293756
0.0029037
0.0029037
0.00294021
0.00290106
0.00293756
0.00293756
0.0029037
0.0029037
0.00293756
0.0029037
0.0029037
0.00294021
0.00290106
0.00293756
0.0029037
0.0029037
0.00290106
0.00289506
0.00285591
0.00289241
0.00289241
0.00285855
0.00285855
0.00289506
0.00285591
0.00289241
0.00289241
0.00285855
0.00285855
0.00289241
0.00285855
0.00285855
0.00289506
0.00285591
0.00289241
0.00285855
0.00285855
0.00285591
0.00284991
0.00281076
0.00284726
0.00284726
0.0028134
0.0028134
0.00284991
0.00281076
0.00284726
0.00284726
0.0028134
0.0028134
0.00284726
0.0028134
0.0028134
0.00284991
0.00281076
0.00284726
0.0028134
0.0028134
0.00281076
0.00280476
0.00276561
0.00280211
0.00280211
0.00276825
0.00276825
0.00280475
0.00276561
0.00280211
0.00280211
0.00276825
0.00276825
0.00280211
0.00276825
0.00276825
0.00280476
0.00276561
0.00280211
0.00276825
0.00276825
0.00276561
0.0027596
0.00272045
0.00275696
0.00275696
0.00272309
0.00272309
0.0027596
0.00272045
0.00275696
0.00275696
0.00272309
0.00272309
0.00275696
0.00272309
0.00272309
0.0027596
0.00272045
0.00275696
0.00272309
0.00272309
0.00272045
0.00271445
0.0026753
0.00271181
0.00271181
0.00267794
0.00267794
0.00271445
0.0026753
0.00271181
0.00271181
0.00267794
0.00267794
0.00271181
0.00267794
0.00267794
0.00271445
0.0026753
0.00271181
0.00267794
0.00267794
0.0026753
0.0026693
0.00263015
0.00266665
0.00266665
0.00263279
0.00263279
0.0026693
0.00263015
0.00266665
0.00266665
0.00263279
0.00263279
0.00266665
0.00263279
0.00263279
0.0026693
0.00263015
0.00266665
0.00263279
0.00263279
0.00263015
0.00262414
0.00258499
0.0026215
0.0026215
0.00258763
0.00258763
0.00262414
0.00258499
0.0026215
0.0026215
0.00258763
0.00258763
0.0026215
0.00258763
0.00258763
0.00262414
0.00258499
0.0026215
0.00258763
0.00258763
0.00258499
0.00257899
0.00253984
0.00257635
0.00257635
0.00254248
0.00254248
0.00257899
0.00253984
0.00257635
0.00257635
0.00254248
0.00254248
0.00257635
0.00254248
0.00254248
0.00257899
0.00253984
0.00257635
0.00254248
0.00254248
0.00253984
0.00253384
0.00249469
0.00253119
0.00253119
0.00249733
0.00249733
0.00253384
0.00249469
0.00253119
0.00253119
0.00249733
0.00249733
0.00253119
0.00249733
0.00249733
0.00253384
0.00249469
0.00253119
0.00249733
0.00249733
0.00249469
0.00248869
0.00244953
0.00248604
0.00248604
0.00245217
0.00245217
0.00248869
0.00244953
0.00248604
0.00248604
0.00245217
0.00245217
0.00248604
0.00245217
0.00245217
0.00248869
0.00244953
0.00248604
0.00245217
0.00245217
0.00244953
0.00244353
0.00240438
0.00244089
0.00244088
0.00240702
0.00240702
0.00244353
0.00240438
0.00244089
0.00244088
0.00240702
0.00240702
0.00244088
0.00240702
0.00240702
0.00244353
0.00240438
0.00244088
0.00240702
0.00240702
0.00240438
0.00239837
0.00235922
0.00239573
0.00239573
0.00236186
0.00236186
0.00239837
0.00235922
0.00239573
0.00239573
0.00236186
0.00236186
0.00239573
0.00236186
0.00236186
0.00239837
0.00235922
0.00239573
0.00236186
0.00236186
0.00235922
0.00235321
0.00231406
0.00235057
0.00235057
0.0023167
0.0023167
0.00235321
0.00231406
0.00235057
0.00235057
0.0023167
0.0023167
0.00235057
0.0023167
0.0023167
0.00235321
0.00231406
0.00235057
0.0023167
0.0023167
0.00231406
0.00230805
0.0022689
0.00230541
0.00230541
0.00227154
0.00227154
0.00230805
0.0022689
0.00230541
0.00230541
0.00227154
0.00227154
0.00230541
0.00227154
0.00227154
0.00230805
0.0022689
0.00230541
0.00227154
0.00227154
0.0022689
0.00226289
0.00222374
0.00226025
0.00226025
0.00222638
0.00222638
0.00226289
0.00222374
0.00226025
0.00226025
0.00222638
0.00222638
0.00226025
0.00222638
0.00222638
0.00226289
0.00222374
0.00226025
0.00222638
0.00222638
0.00222374
0.00221773
0.00217858
0.00221509
0.00221509
0.00218122
0.00218122
0.00221773
0.00217858
0.00221509
0.00221509
0.00218122
0.00218122
0.00221509
0.00218122
0.00218122
0.00221773
0.00217858
0.00221509
0.00218122
0.00218122
0.00217858
0.00217257
0.00213342
0.00216993
0.00216993
0.00213606
0.00213606
0.00217257
0.00213342
0.00216993
0.00216993
0.00213606
0.00213606
0.00216993
0.00213606
0.00213606
0.00217257
0.00213342
0.00216993
0.00213606
0.00213606
0.00213342
0.00212741
0.00208826
0.00212477
0.00212477
0.0020909
0.0020909
0.00212741
0.00208826
0.00212477
0.00212477
0.0020909
0.0020909
0.00212477
0.0020909
0.0020909
0.00212741
0.00208826
0.00212477
0.0020909
0.0020909
0.00208826
0.00208225
0.0020431
0.00207961
0.00207961
0.00204574
0.00204574
0.00208225
0.0020431
0.00207961
0.00207961
0.00204574
0.00204574
0.00207961
0.00204574
0.00204574
0.00208225
0.0020431
0.00207961
0.00204574
0.00204574
0.0020431
0.00203709
0.00199793
0.00203445
0.00203445
0.00200057
0.00200057
0.00203709
0.00199793
0.00203445
0.00203445
0.00200057
0.00200057
0.00203445
0.00200057
0.00200057
0.00203709
0.00199793
0.00203445
0.00200057
0.00200057
0.00199793
0.00199193
0.00195277
0.00198928
0.00198928
0.00195541
0.00195541
0.00199193
0.00195277
0.00198928
0.00198928
0.00195541
0.00195541
0.00198928
0.00195541
0.00195541
0.00199193
0.00195277
0.00198928
0.00195541
0.00195541
0.00195277
0.00194677
0.00190761
0.00194412
0.00194412
0.00191025
0.00191025
0.00194677
0.00190761
0.00194412
0.00194412
0.00191025
0.00191025
0.00194412
0.00191025
0.00191025
0.00194677
0.00190761
0.00194412
0.00191025
0.00191025
0.00190761
0.00190161
0.00186245
0.00189896
0.00189896
0.00186509
0.00186509
0.00190161
0.00186245
0.00189896
0.00189896
0.00186509
0.00186509
0.00189896
0.00186509
0.00186509
0.00190161
0.00186245
0.00189896
0.00186509
0.00186509
0.00186245
0.00185645
0.00181729
0.0018538
0.0018538
0.00181993
0.00181993
0.00185645
0.00181729
0.0018538
0.0018538
0.00181993
0.00181993
0.0018538
0.00181993
0.00181993
0.00185645
0.00181729
0.0018538
0.00181993
0.00181993
0.00181729
0.00181129
0.00177213
0.00180864
0.00180864
0.00177477
0.00177477
0.00181129
0.00177213
0.00180864
0.00180864
0.00177477
0.00177477
0.00180864
0.00177477
0.00177477
0.00181129
0.00177213
0.00180864
0.00177477
0.00177477
0.00177213
0.00176612
0.00172697
0.00176348
0.00176348
0.00172961
0.00172961
0.00176612
0.00172697
0.00176348
0.00176348
0.00172961
0.00172961
0.00176348
0.00172961
0.00172961
0.00176612
0.00172697
0.00176348
0.00172961
0.00172961
0.00172697
0.00172096
0.0016818
0.00171832
0.00171832
0.00168444
0.00168444
0.00172096
0.0016818
0.00171832
0.00171832
0.00168444
0.00168444
0.00171832
0.00168444
0.00168444
0.00172096
0.0016818
0.00171832
0.00168444
0.00168444
0.0016818
0.0016758
0.00163664
0.00167315
0.00167315
0.00163928
0.00163928
0.0016758
0.00163664
0.00167315
0.00167315
0.00163928
0.00163928
0.00167315
0.00163928
0.00163928
0.0016758
0.00163664
0.00167315
0.00163928
0.00163928
0.00163664
0.00163063
0.00159147
0.00162799
0.00162799
0.00159411
0.00159411
0.00163063
0.00159147
0.00162799
0.00162799
0.00159411
0.00159411
0.00162799
0.00159411
0.00159411
0.00163063
0.00159147
0.00162799
0.00159411
0.00159411
0.00159147
0.00158546
0.0015463
0.00158282
0.00158282
0.00154894
0.00154894
0.00158546
0.0015463
0.00158282
0.00158282
0.00154894
0.00154894
0.00158282
0.00154894
0.00154894
0.00158546
0.0015463
0.00158282
0.00154894
0.00154894
0.0015463
0.0015403
0.00150114
0.00153765
0.00153765
0.00150378
0.00150378
0.0015403
0.00150114
0.00153765
0.00153765
0.00150378
0.00150378
0.00153765
0.00150378
0.00150378
0.0015403
0.00150114
0.00153765
0.00150378
0.00150378
0.00150114
0.00149513
0.00145597
0.00149248
0.00149248
0.00145861
0.00145861
0.00149513
0.00145597
0.00149248
0.00149248
0.00145861
0.00145861
0.00149248
0.00145861
0.00145861
0.00149513
0.00145597
0.00149248
0.00145861
0.00145861
0.00145597
0.00144996
0.0014108
0.00144732
0.00144732
0.00141344
0.00141344
0.00144996
0.0014108
0.00144732
0.00144732
0.00141344
0.00141344
0.00144732
0.00141344
0.00141344
0.00144996
0.0014108
0.00144732
0.00141344
0.00141344
0.0014108
0.00140479
0.00136563
0.00140215
0.00140215
0.00136827
0.00136827
0.00140479
0.00136563
0.00140215
0.00140215
0.00136827
0.00136827
0.00140215
0.00136827
0.00136827
0.00140479
0.00136563
0.00140215
0.00136827
0.00136827
0.00136563
0.00135963
0.00132046
0.00135698
0.00135698
0.0013231
0.0013231
0.00135962
0.00132046
0.00135698
0.00135698
0.0013231
0.0013231
0.00135698
0.0013231
0.0013231
0.00135963
0.00132046
0.00135698
0.0013231
0.0013231
0.00132046
0.00131446
0.0012753
0.00131181
0.00131181
0.00127794
0.00127794
0.00131446
0.0012753
0.00131181
0.00131181
0.00127794
0.00127794
0.00131181
0.00127794
0.00127794
0.00131446
0.0012753
0.00131181
0.00127794
0.00127794
0.0012753
0.00126929
0.00123013
0.00126665
0.00126664
0.00123277
0.00123277
0.00126929
0.00123013
0.00126664
0.00126664
0.00123277
0.00123277
0.00126665
0.00123277
0.00123277
0.00126929
0.00123013
0.00126664
0.00123277
0.00123277
0.00123013
0.00122412
0.00118496
0.00122148
0.00122148
0.00118761
0.0011876
0.00122412
0.00118496
0.00122148
0.00122148
0.0011876
0.0011876
0.00122148
0.0011876
0.0011876
0.00122412
0.00118496
0.00122148
0.0011876
0.0011876
0.00118496
0.00117896
0.0011398
0.00117631
0.00117631
0.00114244
0.00114244
0.00117896
0.0011398
0.00117631
0.00117631
0.00114244
0.00114244
0.00117631
0.00114244
0.00114244
0.00117896
0.0011398
0.00117631
0.00114244
0.00114244
0.0011398
0.00113379
0.00109464
0.00113115
0.00113115
0.00109728
0.00109728
0.00113379
0.00109464
0.00113115
0.00113115
0.00109728
0.00109728
0.00113115
0.00109728
0.00109728
0.00113379
0.00109464
0.00113115
0.00109728
0.00109728
0.00109464
0.00108863
0.00104947
0.00108599
0.00108599
0.00105211
0.00105211
0.00108863
0.00104947
0.00108599
0.00108599
0.00105211
0.00105211
0.00108599
0.00105211
0.00105211
0.00108863
0.00104947
0.00108599
0.00105211
0.00105211
0.00104947
0.00104347
0.00100431
0.00104082
0.00104082
0.00100695
0.00100695
0.00104347
0.00100431
0.00104082
0.00104082
0.00100695
0.00100695
0.00104082
0.00100695
0.00100695
0.00104347
0.00100431
0.00104082
0.00100695
0.00100695
0.00100431
0.000998301
0.000959142
0.000995656
0.000995656
0.000961783
0.000961783
0.000998301
0.000959143
0.000995656
0.000995656
0.000961783
0.000961783
0.000995656
0.000961783
0.000961783
0.000998301
0.000959142
0.000995656
0.000961783
0.000961783
0.000959142
0.000953137
0.000913978
0.000950492
0.000950492
0.000916619
0.000916619
0.000953137
0.000913979
0.000950492
0.000950492
0.000916619
0.000916619
0.000950492
0.000916619
0.000916619
0.000953137
0.000913978
0.000950492
0.000916619
0.000916619
0.000913978
0.000907973
0.000868815
0.000905328
0.000905328
0.000871456
0.000871456
0.000907973
0.000868815
0.000905328
0.000905328
0.000871456
0.000871456
0.000905328
0.000871456
0.000871456
0.000907973
0.000868815
0.000905328
0.000871456
0.000871456
0.000868815
0.00086281
0.000823652
0.000860165
0.000860165
0.000826293
0.000826293
0.00086281
0.000823652
0.000860165
0.000860165
0.000826293
0.000826293
0.000860165
0.000826293
0.000826293
0.00086281
0.000823652
0.000860165
0.000826293
0.000826293
0.000823652
0.000817647
0.00077849
0.000815002
0.000815002
0.00078113
0.00078113
0.000817647
0.00077849
0.000815002
0.000815002
0.00078113
0.00078113
0.000815002
0.00078113
0.00078113
0.000817647
0.00077849
0.000815002
0.00078113
0.00078113
0.00077849
0.000772485
0.000733329
0.00076984
0.00076984
0.000735969
0.000735969
0.000772485
0.000733329
0.00076984
0.00076984
0.000735969
0.000735969
0.00076984
0.000735969
0.000735969
0.000772485
0.000733328
0.00076984
0.000735969
0.000735969
0.000733329
0.000727324
0.000688168
0.000724679
0.000724678
0.000690808
0.000690808
0.000727323
0.000688168
0.000724678
0.000724679
0.000690808
0.000690808
0.000724679
0.000690808
0.000690808
0.000727324
0.000688168
0.000724679
0.000690808
0.000690808
0.000688168
0.000682163
0.000643007
0.000679518
0.000679518
0.000645648
0.000645648
0.000682163
0.000643008
0.000679518
0.000679518
0.000645648
0.000645648
0.000679518
0.000645648
0.000645648
0.000682163
0.000643007
0.000679518
0.000645648
0.000645648
0.000643007
0.000637003
0.000597847
0.000634358
0.000634358
0.000600488
0.000600488
0.000637003
0.000597848
0.000634358
0.000634358
0.000600488
0.000600488
0.000634358
0.000600488
0.000600488
0.000637003
0.000597847
0.000634358
0.000600488
0.000600488
0.000597847
0.000591843
0.000552687
0.000589198
0.000589198
0.000555328
0.000555328
0.000591842
0.000552688
0.000589198
0.000589198
0.000555328
0.000555328
0.000589198
0.000555328
0.000555328
0.000591843
0.000552687
0.000589198
0.000555328
0.000555328
0.000552687
0.000546683
0.000507528
0.000544038
0.000544038
0.000510168
0.000510168
0.000546683
0.000507528
0.000544038
0.000544038
0.000510168
0.000510168
0.000544038
0.000510168
0.000510168
0.000546683
0.000507528
0.000544038
0.000510168
0.000510168
0.000507528
0.000501523
0.000462367
0.000498878
0.000498878
0.000465008
0.000465008
0.000501523
0.000462368
0.000498878
0.000498878
0.000465008
0.000465008
0.000498878
0.000465008
0.000465008
0.000501523
0.000462367
0.000498878
0.000465008
0.000465008
0.000462367
0.000456363
0.000417206
0.000453718
0.000453717
0.000419846
0.000419846
0.000456362
0.000417206
0.000453717
0.000453717
0.000419846
0.000419846
0.000453718
0.000419846
0.000419847
0.000456363
0.000417206
0.000453717
0.000419846
0.000419846
0.000417206
0.000411201
0.000372044
0.000408556
0.000408556
0.000374684
0.000374684
0.000411201
0.000372044
0.000408556
0.000408556
0.000374684
0.000374684
0.000408556
0.000374684
0.000374684
0.000411201
0.000372043
0.000408556
0.000374684
0.000374684
0.000372044
0.000366038
0.00032688
0.000363393
0.000363393
0.000329521
0.000329521
0.000366038
0.000326881
0.000363393
0.000363393
0.000329521
0.000329521
0.000363393
0.000329521
0.000329521
0.000366038
0.00032688
0.000363393
0.000329521
0.000329521
0.00032688
0.000320875
0.000281718
0.00031823
0.00031823
0.000284358
0.000284358
0.000320875
0.000281718
0.00031823
0.00031823
0.000284358
0.000284358
0.00031823
0.000284358
0.000284359
0.000320875
0.000281718
0.00031823
0.000284358
0.000284358
0.000281718
0.000275713
0.000236555
0.000273068
0.000273068
0.000239196
0.000239196
0.000275713
0.000236556
0.000273068
0.000273068
0.000239196
0.000239196
0.000273068
0.000239196
0.000239196
0.000275713
0.000236555
0.000273068
0.000239196
0.000239196
0.000236555
0.00023055
0.000191394
0.000227906
0.000227906
0.000194036
0.000194036
0.00023055
0.000191394
0.000227905
0.000227906
0.000194036
0.000194036
0.000227906
0.000194036
0.000194036
0.00023055
0.000191394
0.000227906
0.000194036
0.000194036
0.000191394
0.000185386
0.000146221
0.000182746
0.000182746
0.000148856
0.000148856
0.000185386
0.000146221
0.000182746
0.000182746
0.000148856
0.000148856
0.000182746
0.000148856
0.000148857
0.000185386
0.000146221
0.000182746
0.000148856
0.000148856
0.000146221
0.000140181
0.000101086
0.00013755
0.00013755
0.000103735
0.000103736
0.00014018
0.000101086
0.00013755
0.00013755
0.000103736
0.000103735
0.00013755
0.000103736
0.000103735
0.00014018
0.000101084
0.00013755
0.000103735
0.000103735
0.000101084
9.50304e-05
5.59595e-05
9.2433e-05
9.24336e-05
5.85745e-05
5.85753e-05
9.503e-05
5.59603e-05
9.24334e-05
9.24319e-05
5.85731e-05
5.85723e-05
9.24326e-05
5.85736e-05
5.85724e-05
9.50292e-05
5.59566e-05
9.24321e-05
5.85708e-05
5.85701e-05
5.59565e-05
4.98608e-05
1.47445e-05
4.7377e-05
4.73772e-05
1.7057e-05
1.70562e-05
4.9861e-05
1.47441e-05
4.73751e-05
4.73732e-05
1.70553e-05
1.7051e-05
4.73726e-05
1.70536e-05
1.70494e-05
4.98571e-05
1.47389e-05
4.73711e-05
1.7051e-05
1.70503e-05
1.47377e-05
1.0814e-05
1.12033e-05
1.12034e-05
1.08149e-05
1.12019e-05
1.11991e-05
1.08357e-05
1.08337e-05
1.08333e-05
1.11981e-05
1.08106e-05
1.11984e-05
0.00429008
0.00429984
0.00429463
0.00429464
0.004317
0.0043038
0.00433239
0.00429784
0.004317
0.0043038
0.00429785
0.00433239
0.00430836
0.00433612
0.00433613
0.00424544
0.00426455
0.00427375
0.00423746
0.00423827
0.00424109
0.00424542
0.00426452
0.00427374
0.00423744
0.00426827
0.00426827
0.00426827
0.00422485
0.00422485
0.00422485
0.00422485
0.00424294
0.00426875
0.00426867
0.00425177
0.00427177
0.00424184
0.00425264
0.00423837
0.00424108
0.00424294
0.00426867
0.00426877
0.00425177
0.00427177
0.00425264
0.00424184
0.00427463
0.00427461
0.00424618
0.00424145
0.00424144
0.00419844
0.00421799
0.00421945
0.00419679
0.00421705
0.00419617
0.00419843
0.00421799
0.00421944
0.00419678
0.00421293
0.00421293
0.00421293
0.00417534
0.00417534
0.00417534
0.00417534
0.00419719
0.00421811
0.00421294
0.00420114
0.00421696
0.00419755
0.0042009
0.00421705
0.00419616
0.00419719
0.00421294
0.00421811
0.00420113
0.00421696
0.0042009
0.00419755
0.0042191
0.0042191
0.00419763
0.00419769
0.00419769
0.0041463
0.00416494
0.00416622
0.00414497
0.00416463
0.00414451
0.0041463
0.00416494
0.00416622
0.00414497
0.0041622
0.0041622
0.0041622
0.00412425
0.00412425
0.00412425
0.00412425
0.00414548
0.00416542
0.00416198
0.00414903
0.00416505
0.0041456
0.00414902
0.00416462
0.00414451
0.00414548
0.00416198
0.00416542
0.00414903
0.00416505
0.00414901
0.0041456
0.00416569
0.00416569
0.00414564
0.00414536
0.00414536
0.00409716
0.0041138
0.00411421
0.00409699
0.00411354
0.00409696
0.00409716
0.0041138
0.00411421
0.00409699
0.00411231
0.00411231
0.00411231
0.00407779
0.00407779
0.00407779
0.00407779
0.00409745
0.00411444
0.00411222
0.00410053
0.00411445
0.00409748
0.00410058
0.00411354
0.00409696
0.00409745
0.00411222
0.00411444
0.00410053
0.00411445
0.00410058
0.00409748
0.00411391
0.00411391
0.00409774
0.00409718
0.00409718
0.00405226
0.00406909
0.00406914
0.00405224
0.00406913
0.00405225
0.00405226
0.00406909
0.00406914
0.00405224
0.00406645
0.00406645
0.00406645
0.00403252
0.00403252
0.00403252
0.00403252
0.00405233
0.00406912
0.00406641
0.00405509
0.00406913
0.00405229
0.0040551
0.00406913
0.00405225
0.00405233
0.00406641
0.00406912
0.00405508
0.00406913
0.0040551
0.00405229
0.00406918
0.00406918
0.00405244
0.00405226
0.00405226
0.00400711
0.00402401
0.00402401
0.00400711
0.00402402
0.0040071
0.00400711
0.00402401
0.00402401
0.00400711
0.00402123
0.00402123
0.00402123
0.00398736
0.00398736
0.00398736
0.00398736
0.00400717
0.00402398
0.00402121
0.00400991
0.00402396
0.00400714
0.00400991
0.00402401
0.00400711
0.00400717
0.00402121
0.00402398
0.00400991
0.00402396
0.00400991
0.00400714