/*--------------------------------*- C++ -*----------------------------------*\
| =========                 |                                                 |
| \\      /  F ield         | OpenFOAM: The Open Source CFD Toolbox           |
|  \\    /   O peration     | Version:  2206                                  |
|   \\  /    A nd           | Website:  www.openfoam.com                      |
|    \\/     M anipulation  |                                                 |
\*---------------------------------------------------------------------------*/
FoamFile
{
    version     2.0;
    format      ascii;
    arch        "LSB;label=32;scalar=64";
    class       volScalarField;
    location    "16";
    object      Ux;
}
// * * * * * * * * * * * * * * * * * * * * * * * * * * * * * * * * * * * * * //

dimensions      [0 1 -1 0 0 0 0];

internalField   nonuniform List<scalar> 
171728
(
0.000107854
-0.000190387
0.000120033
-0.000238509
9.60648e-05
-0.000164553
0.000100545
-0.000200167
9.28981e-05
-0.000160389
9.7025e-05
-0.000197744
5.36792e-05
-7.22022e-05
4.33381e-05
-0.00011347
9.4985e-06
-1.20767e-05
8.7131e-06
-4.89743e-05
3.03897e-07
-1.16835e-06
1.11397e-06
-3.9624e-05
-4.72804e-07
-3.65799e-07
5.6128e-07
-3.91128e-05
-5.10824e-07
-3.42426e-07
5.40673e-07
-3.90957e-05
-5.13923e-07
-3.43316e-07
5.40797e-07
-3.90956e-05
-5.1259e-07
-3.42827e-07
5.40648e-07
-3.90959e-05
-5.09714e-07
-3.42666e-07
5.40994e-07
-3.90961e-05
-5.14281e-07
-3.45138e-07
5.40228e-07
-3.90957e-05
-5.13553e-07
-3.52091e-07
5.3976e-07
-3.90957e-05
-5.14022e-07
-3.4864e-07
5.39252e-07
-3.90958e-05
-5.17015e-07
-3.41981e-07
5.38806e-07
-3.90955e-05
-5.16922e-07
-3.43127e-07
5.39073e-07
-3.90964e-05
-5.15414e-07
-3.44396e-07
5.39458e-07
-3.90959e-05
-5.14245e-07
-3.44905e-07
5.40749e-07
-3.90972e-05
-5.12022e-07
-3.44529e-07
5.40863e-07
-3.90973e-05
-5.06172e-07
-3.41378e-07
5.41382e-07
-3.90971e-05
-5.02478e-07
-3.4775e-07
5.40996e-07
-3.90952e-05
-5.12742e-07
-3.43447e-07
5.39717e-07
-3.90949e-05
-5.14331e-07
-3.43088e-07
5.39372e-07
-3.90949e-05
-5.14888e-07
-3.43693e-07
5.39846e-07
-3.90953e-05
-5.14764e-07
-3.43598e-07
5.40127e-07
-3.9096e-05
-5.13896e-07
-3.44541e-07
5.40802e-07
-3.90972e-05
-5.14324e-07
-3.44047e-07
5.40124e-07
-3.9097e-05
-5.14554e-07
-3.4387e-07
5.40599e-07
-3.90965e-05
-5.14777e-07
-3.43099e-07
5.3981e-07
-3.90963e-05
-5.15734e-07
-3.42172e-07
5.39169e-07
-3.90955e-05
-5.14911e-07
-3.4281e-07
5.39694e-07
-3.90958e-05
-5.15042e-07
-3.42689e-07
5.39486e-07
-3.90961e-05
-5.1432e-07
-3.43534e-07
5.40467e-07
-3.9097e-05
-5.14347e-07
-3.43891e-07
5.40224e-07
-3.90973e-05
-5.14173e-07
-3.44168e-07
5.40689e-07
-3.90972e-05
-5.14663e-07
-3.43714e-07
5.40344e-07
-3.90967e-05
-5.15315e-07
-3.4269e-07
5.39781e-07
-3.90956e-05
-5.14998e-07
-3.42952e-07
5.40077e-07
-3.90956e-05
-5.15599e-07
-3.41765e-07
5.39102e-07
-3.90945e-05
-5.14997e-07
-3.42587e-07
5.38576e-07
-3.90929e-05
-5.09113e-07
-3.41091e-07
5.39206e-07
-3.90943e-05
-5.16558e-07
-3.43838e-07
5.40316e-07
-3.90979e-05
-5.14399e-07
-3.43315e-07
5.3983e-07
-3.90972e-05
-5.14119e-07
-3.43566e-07
5.39885e-07
-3.90971e-05
-5.14414e-07
-3.42851e-07
5.38396e-07
-3.90961e-05
-5.14291e-07
-3.42026e-07
5.38813e-07
-3.90953e-05
-5.14151e-07
-3.43055e-07
5.38936e-07
-3.90959e-05
-5.14242e-07
-3.42881e-07
5.39059e-07
-3.90961e-05
-5.1307e-07
-3.44478e-07
5.39989e-07
-3.90975e-05
-5.1333e-07
-3.44018e-07
5.399e-07
-3.90977e-05
-5.13303e-07
-3.44486e-07
5.39955e-07
-3.90973e-05
-5.13649e-07
-3.43903e-07
5.39377e-07
-3.90973e-05
-5.13821e-07
-3.4245e-07
5.38981e-07
-3.90957e-05
-5.13072e-07
-3.42599e-07
5.38999e-07
-3.90956e-05
-5.11781e-07
-3.42231e-07
5.39327e-07
-3.90953e-05
-5.13218e-07
-3.43522e-07
5.3977e-07
-3.90971e-05
-5.12408e-07
-3.45359e-07
5.402e-07
-3.90995e-05
-5.1175e-07
-3.4662e-07
5.40987e-07
-3.91004e-05
-5.11807e-07
-3.45943e-07
5.4121e-07
-3.90999e-05
-5.11814e-07
-3.45188e-07
5.40547e-07
-3.90991e-05
-5.12466e-07
-3.44762e-07
5.40187e-07
-3.90989e-05
-5.13565e-07
-3.43823e-07
5.39589e-07
-3.90977e-05
-5.12169e-07
-3.44855e-07
5.40447e-07
-3.90992e-05
-5.12356e-07
-3.44562e-07
5.40026e-07
-3.90987e-05
-5.11685e-07
-3.46072e-07
5.41133e-07
-3.90997e-05
-5.1152e-07
-3.46365e-07
5.41332e-07
-3.90999e-05
-5.11582e-07
-3.45672e-07
5.40802e-07
-3.90996e-05
-5.11828e-07
-3.45211e-07
5.4077e-07
-3.90998e-05
-5.1273e-07
-3.44068e-07
5.41691e-07
-3.90999e-05
-5.12151e-07
-3.44698e-07
5.47436e-07
-3.91036e-05
-5.12086e-07
-3.43669e-07
5.43428e-07
-3.91016e-05
-5.11922e-07
-3.4565e-07
5.41172e-07
-3.90993e-05
-5.11876e-07
-3.45555e-07
5.40696e-07
-3.90998e-05
-5.11281e-07
-3.46102e-07
5.41698e-07
-3.91e-05
-5.11673e-07
-3.46192e-07
5.41358e-07
-3.91003e-05
-5.12462e-07
-3.44749e-07
5.40361e-07
-3.90996e-05
-5.12493e-07
-3.44776e-07
5.4042e-07
-3.90994e-05
-5.13167e-07
-3.44003e-07
5.39968e-07
-3.90986e-05
-5.12701e-07
-3.45048e-07
5.40232e-07
-3.90994e-05
-5.12278e-07
-3.44751e-07
5.4057e-07
-3.90997e-05
-5.11488e-07
-3.46116e-07
5.41166e-07
-3.91005e-05
-5.1175e-07
-3.46077e-07
5.41011e-07
-3.91001e-05
-5.11747e-07
-3.46263e-07
5.41153e-07
-3.91003e-05
-5.12334e-07
-3.44801e-07
5.40241e-07
-3.90992e-05
-5.12526e-07
-3.44433e-07
5.39917e-07
-3.90992e-05
-5.12816e-07
-3.44645e-07
5.40155e-07
-3.90989e-05
-5.12814e-07
-3.44366e-07
5.40352e-07
-3.90988e-05
-5.12086e-07
-3.45385e-07
5.41099e-07
-3.90996e-05
-5.12553e-07
-3.45168e-07
5.40854e-07
-3.91e-05
-5.21915e-07
-3.40659e-07
5.373e-07
-3.90949e-05
-5.18118e-07
-4.32945e-07
5.9788e-07
-3.89739e-05
-5.45562e-07
-1.17034e-06
1.02336e-06
-3.77825e-05
-2.19692e-07
-2.70998e-06
2.28504e-06
-3.7142e-05
-5.80716e-06
-2.22015e-06
2.83076e-06
-2.61894e-05
-4.32314e-05
4.11525e-05
-3.45356e-05
4.93323e-05
0.000135572
0.000124124
-0.000124117
-0.000135569
0.000153039
0.000153013
9.11095e-05
-9.10998e-05
9.10833e-05
-9.10806e-05
-0.000153034
-0.000153023
0.000135564
0.000124073
-0.00012407
-0.000135572
0.000238551
0.000113868
0.000120074
-0.000120027
9.0469e-05
-9.04321e-05
-0.000238561
-0.000113827
0.000190422
0.000190358
0.000148683
0.000148715
-0.000190338
-0.000148648
-0.000148675
0.000238483
0.000113825
-0.000120012
9.04577e-05
-9.0438e-05
-0.000113823
0.000200246
0.000108631
0.000100543
-0.000100516
9.50202e-05
-9.50255e-05
-0.000200209
-0.000108621
0.000164586
0.000164602
0.000157557
0.000157597
-0.000164578
-0.000157555
-0.00015757
0.000200163
0.000108591
-0.000100526
9.50144e-05
-9.502e-05
-0.000108606
0.000197803
4.75651e-05
9.7006e-05
-9.70155e-05
5.7831e-05
-5.78239e-05
-0.000197793
-4.75726e-05
0.000160406
0.000160442
9.90817e-05
9.91044e-05
-0.000160427
-9.90784e-05
-9.91e-05
0.000197727
4.75183e-05
-9.70389e-05
5.78185e-05
-5.77988e-05
-4.75294e-05
0.000113529
-2.7234e-05
4.33574e-05
-4.33621e-05
1.42221e-05
-1.42293e-05
-0.000113516
2.72334e-05
7.22138e-05
7.22232e-05
2.05081e-05
2.05175e-05
-7.22041e-05
-2.05064e-05
-2.05072e-05
0.000113473
-2.7215e-05
-4.3325e-05
1.42023e-05
-1.42017e-05
2.72242e-05
4.89872e-05
-3.98313e-05
8.7302e-06
-8.74012e-06
1.75515e-06
-1.76914e-06
-4.89908e-05
3.98292e-05
1.20796e-05
1.20919e-05
2.05043e-06
2.06428e-06
-1.2087e-05
-2.0515e-06
-2.06762e-06
4.89632e-05
-3.98046e-05
-8.71246e-06
1.74127e-06
-1.74234e-06
3.98061e-05
3.96266e-05
-4.0607e-05
1.12642e-06
-1.14177e-06
6.05573e-07
-6.09436e-07
-3.96327e-05
4.0608e-05
1.16867e-06
1.18024e-06
4.03179e-07
4.18548e-07
-1.18132e-06
-4.02314e-07
-4.18086e-07
3.96104e-05
-4.05821e-05
-1.11388e-06
5.89723e-07
-5.90343e-07
4.0585e-05
3.9121e-05
-4.06325e-05
5.80538e-07
-5.76879e-07
5.64055e-07
-5.56412e-07
-3.91184e-05
4.06373e-05
3.69992e-07
3.82451e-07
3.44748e-07
3.59998e-07
-3.79531e-07
-3.42152e-07
-3.5755e-07
3.9101e-05
-4.06084e-05
-5.59556e-07
5.40375e-07
-5.39203e-07
4.06128e-05
3.91042e-05
-4.06329e-05
5.59425e-07
-5.57002e-07
5.58411e-07
-5.58671e-07
-3.91014e-05
4.06359e-05
3.46638e-07
3.59436e-07
3.44334e-07
3.59632e-07
-3.55631e-07
-3.42867e-07
-3.57099e-07
3.90848e-05
-4.06083e-05
-5.37946e-07
5.39537e-07
-5.37935e-07
4.06131e-05
3.91041e-05
-4.06329e-05
5.57215e-07
-5.58243e-07
5.59141e-07
-5.58216e-07
-3.91027e-05
4.06383e-05
3.47317e-07
3.60162e-07
3.44734e-07
3.60182e-07
-3.56113e-07
-3.42818e-07
-3.57314e-07
3.90854e-05
-4.06079e-05
-5.37684e-07
5.39709e-07
-5.37917e-07
4.06131e-05
3.91052e-05
-4.06294e-05
5.60107e-07
-5.5708e-07
5.69414e-07
-5.57753e-07
-3.91017e-05
4.06431e-05
3.47802e-07
3.60665e-07
3.45062e-07
3.60755e-07
-3.56072e-07
-3.42104e-07
-3.57493e-07
3.90857e-05
-4.06075e-05
-5.37641e-07
5.397e-07
-5.38023e-07
4.06127e-05
3.91084e-05
-4.06311e-05
5.67664e-07
-5.56883e-07
5.58023e-07
-5.59482e-07
-3.91013e-05
4.06419e-05
3.47978e-07
3.61034e-07
3.44142e-07
3.59944e-07
-3.56258e-07
-3.43283e-07
-3.57287e-07
3.90861e-05
-4.0608e-05
-5.37688e-07
5.39379e-07
-5.37913e-07
4.0613e-05
3.91051e-05
-4.06333e-05
5.59563e-07
-5.59255e-07
5.56107e-07
-5.58671e-07
-3.91024e-05
4.0639e-05
3.48123e-07
3.60008e-07
3.4263e-07
3.58794e-07
-3.56338e-07
-3.49789e-07
-3.5782e-07
3.90851e-05
-4.06091e-05
-5.37511e-07
5.38836e-07
-5.37162e-07
4.0613e-05
3.9103e-05
-4.06356e-05
5.55761e-07
-5.57797e-07
5.54355e-07
-5.56022e-07
-3.91057e-05
4.06358e-05
3.44647e-07
3.58633e-07
3.40912e-07
3.57673e-07
-3.56846e-07
-3.48576e-07
-3.57876e-07
3.90842e-05
-4.06101e-05
-5.36713e-07
5.38131e-07
-5.36962e-07
4.06127e-05
3.9102e-05
-4.06321e-05
5.56039e-07
-5.55893e-07
5.53514e-07
-5.58185e-07
-3.91077e-05
4.06391e-05
3.43934e-07
3.57754e-07
3.41456e-07
3.5742e-07
-3.56416e-07
-3.41752e-07
-3.56747e-07
3.90834e-05
-4.06104e-05
-5.36594e-07
5.37733e-07
-5.37368e-07
4.06135e-05
3.91029e-05
-4.06337e-05
5.52308e-07
-5.60683e-07
5.50949e-07
-5.68941e-07
-3.91066e-05
4.06353e-05
3.44525e-07
3.57722e-07
3.42161e-07
3.58157e-07
-3.55427e-07
-3.42755e-07
-3.57602e-07
3.90832e-05
-4.06097e-05
-5.37278e-07
5.37862e-07
-5.38515e-07
4.06127e-05
3.91017e-05
-4.06307e-05
5.50637e-07
-5.64623e-07
5.54196e-07
-5.59955e-07
-3.91069e-05
4.06358e-05
3.45486e-07
3.58689e-07
3.43679e-07
3.58653e-07
-3.56659e-07
-3.42912e-07
-3.57267e-07
3.90841e-05
-4.06092e-05
-5.38423e-07
5.38241e-07
-5.38289e-07
4.06128e-05
3.91035e-05
-4.06313e-05
5.53001e-07
-5.59489e-07
5.54042e-07
-5.58718e-07
-3.91048e-05
4.06373e-05
3.46757e-07
3.592e-07
3.44769e-07
3.60265e-07
-3.56018e-07
-3.44019e-07
-3.58134e-07
3.90846e-05
-4.06081e-05
-5.37642e-07
5.39465e-07
-5.38806e-07
4.06124e-05
3.91041e-05
-4.06327e-05
5.52796e-07
-5.58604e-07
5.56814e-07
-5.65077e-07
-3.91037e-05
4.06363e-05
3.4762e-07
3.60393e-07
3.44299e-07
3.60272e-07
-3.57291e-07
-3.44187e-07
-3.58594e-07
3.90861e-05
-4.0608e-05
-5.38513e-07
5.39616e-07
-5.3837e-07
4.06123e-05
3.91057e-05
-4.06348e-05
5.59375e-07
-5.65317e-07
5.60093e-07
-5.53647e-07
-3.91088e-05
4.06424e-05
3.46688e-07
3.60591e-07
3.44378e-07
3.59877e-07
-3.58398e-07
-3.42675e-07
-3.63483e-07
3.90863e-05
-4.06082e-05
-5.37658e-07
5.4008e-07
-5.36702e-07
4.06115e-05
3.91078e-05
-4.06406e-05
5.59116e-07
-5.44394e-07
5.60498e-07
-5.5777e-07
-3.90911e-05
4.06305e-05
3.48325e-07
3.5991e-07
3.49474e-07
3.59831e-07
-3.62261e-07
-3.46456e-07
-3.56256e-07
3.90858e-05
-4.06084e-05
-5.35948e-07
5.40152e-07
-5.36513e-07
4.06136e-05
3.91042e-05
-4.06397e-05
5.64877e-07
-5.55332e-07
5.5379e-07
-5.58267e-07
-3.91069e-05
4.06411e-05
3.51144e-07
3.59995e-07
3.42755e-07
3.58509e-07
-3.54715e-07
-3.44682e-07
-3.55996e-07
3.9085e-05
-4.06091e-05
-5.36451e-07
5.38857e-07
-5.36925e-07
4.06136e-05
3.91065e-05
-4.06384e-05
5.5438e-07
-5.56871e-07
5.55338e-07
-5.58688e-07
-3.90995e-05
4.06376e-05
3.44971e-07
3.58294e-07
3.42096e-07
3.5806e-07
-3.54328e-07
-3.42133e-07
-3.55768e-07
3.90842e-05
-4.06091e-05
-5.36496e-07
5.38495e-07
-5.37459e-07
4.06139e-05
3.91081e-05
-4.06381e-05
5.55418e-07
-5.58398e-07
5.55376e-07
-5.59482e-07
-3.91018e-05
4.06366e-05
3.45545e-07
3.58282e-07
3.42529e-07
3.58466e-07
-3.54567e-07
-3.42688e-07
-3.56481e-07
3.90842e-05
-4.0609e-05
-5.369e-07
5.38551e-07
-5.3747e-07
4.06136e-05
3.91086e-05
-4.06377e-05
5.55934e-07
-5.59637e-07
5.56135e-07
-5.59736e-07
-3.91028e-05
4.06363e-05
3.46167e-07
3.59006e-07
3.43214e-07
3.58929e-07
-3.55585e-07
-3.42673e-07
-3.56351e-07
3.90845e-05
-4.06088e-05
-5.37503e-07
5.3871e-07
-5.37791e-07
4.06128e-05
3.91094e-05
-4.06369e-05
5.56831e-07
-5.59962e-07
5.57496e-07
-5.59981e-07
-3.91033e-05
4.06361e-05
3.46595e-07
3.59324e-07
3.44068e-07
3.59839e-07
-3.55384e-07
-3.43516e-07
-3.57764e-07
3.90848e-05
-4.0608e-05
-5.3769e-07
5.39401e-07
-5.38784e-07
4.06117e-05
3.911e-05
-4.06368e-05
5.57922e-07
-5.60121e-07
5.57353e-07
-5.60109e-07
-3.91033e-05
4.06353e-05
3.47467e-07
3.60401e-07
3.43787e-07
3.59726e-07
-3.56556e-07
-3.43728e-07
-3.57417e-07
3.90855e-05
-4.06081e-05
-5.38529e-07
5.39414e-07
-5.38912e-07
4.06116e-05
3.91098e-05
-4.06372e-05
5.57531e-07
-5.59905e-07
5.56853e-07
-5.59665e-07
-3.91039e-05
4.06359e-05
3.46798e-07
3.59605e-07
3.43542e-07
3.59431e-07
-3.55773e-07
-3.43148e-07
-3.56429e-07
3.90851e-05
-4.06082e-05
-5.38348e-07
5.39216e-07
-5.38208e-07
4.06121e-05
3.91096e-05
-4.0638e-05
5.57153e-07
-5.60074e-07
5.56809e-07
-5.58562e-07
-3.91034e-05
4.06369e-05
3.46781e-07
3.59848e-07
3.42816e-07
3.58505e-07
-3.55336e-07
-3.42387e-07
-3.56174e-07
3.90853e-05
-4.06092e-05
-5.37858e-07
5.38654e-07
-5.38e-07
4.06127e-05
3.91089e-05
-4.06384e-05
5.57235e-07
-5.5983e-07
5.55715e-07
-5.57341e-07
-3.91025e-05
4.06373e-05
3.461e-07
3.58808e-07
3.42021e-07
3.57817e-07
-3.55069e-07
-3.41752e-07
-3.55297e-07
3.90841e-05
-4.06095e-05
-5.37834e-07
5.38161e-07
-5.37373e-07
4.06131e-05
3.91083e-05
-4.06384e-05
5.55861e-07
-5.60199e-07
5.56446e-07
-5.56156e-07
-3.91023e-05
4.06367e-05
3.44903e-07
3.57826e-07
3.42159e-07
3.57994e-07
-3.53745e-07
-3.42101e-07
-3.55463e-07
3.90838e-05
-4.06094e-05
-5.36747e-07
5.38381e-07
-5.37585e-07
4.0613e-05
3.91086e-05
-4.0638e-05
5.57148e-07
-5.63938e-07
5.56412e-07
-5.57428e-07
-3.91036e-05
4.0638e-05
3.46054e-07
3.58714e-07
3.42408e-07
3.58168e-07
-3.54348e-07
-3.41739e-07
-3.55485e-07
3.90841e-05
-4.06092e-05
-5.37125e-07
5.38404e-07
-5.37661e-07
4.06128e-05
3.91087e-05
-4.06371e-05
5.56706e-07
-5.6063e-07
5.57057e-07
-5.61146e-07
-3.9103e-05
4.06377e-05
3.45524e-07
3.58497e-07
3.43617e-07
3.59375e-07
-3.54605e-07
-3.43012e-07
-3.56953e-07
3.90842e-05
-4.06081e-05
-5.37434e-07
5.39419e-07
-5.3867e-07
4.06118e-05
3.91099e-05
-4.06374e-05
5.5759e-07
-5.60985e-07
5.5688e-07
-5.61443e-07
-3.91029e-05
4.06373e-05
3.46939e-07
3.5978e-07
3.43403e-07
3.59306e-07
-3.55557e-07
-3.43305e-07
-3.57135e-07
3.90854e-05
-4.06082e-05
-5.3797e-07
5.39353e-07
-5.38877e-07
4.06116e-05
3.91095e-05
-4.06366e-05
5.57283e-07
-5.61478e-07
5.5739e-07
-5.6173e-07
-3.91034e-05
4.06375e-05
3.46775e-07
3.59718e-07
3.44104e-07
3.5987e-07
-3.55843e-07
-3.43371e-07
-3.57306e-07
3.90851e-05
-4.06077e-05
-5.38302e-07
5.39621e-07
-5.38751e-07
4.06116e-05
3.91103e-05
-4.06372e-05
5.57667e-07
-5.61673e-07
5.57122e-07
-5.61757e-07
-3.91031e-05
4.06374e-05
3.47241e-07
3.60188e-07
3.43786e-07
3.59607e-07
-3.56314e-07
-3.43313e-07
-3.56918e-07
3.90857e-05
-4.06083e-05
-5.38432e-07
5.39455e-07
-5.38676e-07
4.06121e-05
3.91096e-05
-4.06384e-05
5.57054e-07
-5.6152e-07
5.56427e-07
-5.60481e-07
-3.91032e-05
4.06394e-05
3.46536e-07
3.59564e-07
3.42332e-07
3.58177e-07
-3.55503e-07
-3.41853e-07
-3.55688e-07
3.9085e-05
-4.06094e-05
-5.38203e-07
5.38604e-07
-5.37736e-07
4.06133e-05
3.91086e-05
-4.0638e-05
5.56813e-07
-5.60346e-07
5.56458e-07
-5.60948e-07
-3.91013e-05
4.06383e-05
3.45532e-07
3.58346e-07
3.42793e-07
3.58393e-07
-3.54965e-07
-3.42332e-07
-3.55721e-07
3.90842e-05
-4.0609e-05
-5.3779e-07
5.38917e-07
-5.3796e-07
4.06129e-05
3.91088e-05
-4.06387e-05
5.57041e-07
-5.60785e-07
5.55177e-07
-5.60494e-07
-3.91023e-05
4.06396e-05
3.45743e-07
3.58696e-07
3.41718e-07
3.57272e-07
-3.54608e-07
-3.40494e-07
-3.5418e-07
3.90844e-05
-4.061e-05
-5.37429e-07
5.37937e-07
-5.3693e-07
4.06138e-05
3.91079e-05
-4.06383e-05
5.56252e-07
-5.59246e-07
5.53867e-07
-5.62352e-07
-3.91007e-05
4.06393e-05
3.45123e-07
3.58004e-07
3.44037e-07
3.59035e-07
-3.53621e-07
-3.42468e-07
-3.59004e-07
3.90833e-05
-4.061e-05
-5.36446e-07
5.37864e-07
-5.37287e-07
4.06154e-05
3.91062e-05
-4.06288e-05
5.55103e-07
-5.5921e-07
5.54385e-07
-5.59391e-07
-3.91005e-05
4.06391e-05
3.48081e-07
3.59789e-07
3.50106e-07
3.60238e-07
-3.61166e-07
-3.39415e-07
-3.62644e-07
3.90835e-05
-4.06096e-05
-5.34903e-07
5.37577e-07
-5.33639e-07
4.06154e-05
3.91146e-05
-4.06395e-05
5.61256e-07
-5.608e-07
5.5279e-07
-5.66171e-07
-3.91037e-05
4.06329e-05
3.54573e-07
3.6053e-07
3.43769e-07
3.60027e-07
-3.58211e-07
-3.4364e-07
-3.58215e-07
3.90842e-05
-4.06088e-05
-5.35261e-07
5.39311e-07
-5.3877e-07
4.06115e-05
3.91026e-05
-4.06361e-05
5.52873e-07
-5.68293e-07
5.54741e-07
-5.57769e-07
-3.91103e-05
4.06374e-05
3.45522e-07
3.60639e-07
3.43032e-07
3.5993e-07
-3.57858e-07
-3.4236e-07
-3.57629e-07
3.9085e-05
-4.06091e-05
-5.38587e-07
5.39105e-07
-5.38909e-07
4.06117e-05
3.91052e-05
-4.06344e-05
5.56716e-07
-5.58409e-07
5.56374e-07
-5.58227e-07
-3.91032e-05
4.06386e-05
3.47146e-07
3.59924e-07
3.4393e-07
3.59336e-07
-3.56071e-07
-3.42366e-07
-3.57035e-07
3.90845e-05
-4.06091e-05
-5.3809e-07
5.3929e-07
-5.38893e-07
4.06118e-05
3.9106e-05
-4.06349e-05
5.55672e-07
-5.58787e-07
5.54998e-07
-5.58238e-07
-3.91024e-05
4.06383e-05
3.46923e-07
3.59738e-07
3.43986e-07
3.5862e-07
-3.55765e-07
-3.42505e-07
-3.55932e-07
3.90844e-05
-4.06098e-05
-5.38197e-07
5.3866e-07
-5.38118e-07
4.06126e-05
3.91056e-05
-4.06351e-05
5.54474e-07
-5.57996e-07
5.5464e-07
-5.57238e-07
-3.91022e-05
4.06399e-05
3.46794e-07
3.58768e-07
3.43505e-07
3.58203e-07
-3.54607e-07
-3.4122e-07
-3.54719e-07
3.90836e-05
-4.06102e-05
-5.37137e-07
5.38527e-07
-5.37265e-07
4.06137e-05
3.91054e-05
-4.06349e-05
5.54215e-07
-5.57226e-07
5.54615e-07
-5.57814e-07
-3.91007e-05
4.06386e-05
3.46372e-07
3.58681e-07
3.43937e-07
3.58624e-07
-3.54013e-07
-3.42393e-07
-3.55666e-07
3.90835e-05
-4.06098e-05
-5.36847e-07
5.38876e-07
-5.3774e-07
4.0613e-05
3.91056e-05
-4.06352e-05
5.54269e-07
-5.5783e-07
5.54308e-07
-5.57363e-07
-3.9102e-05
4.06396e-05
3.4671e-07
3.58989e-07
3.43131e-07
3.58253e-07
-3.5448e-07
-3.41851e-07
-3.55541e-07
3.90838e-05
-4.06099e-05
-5.3707e-07
5.38734e-07
-5.3799e-07
4.06128e-05
3.91054e-05
-4.06336e-05
5.54312e-07
-5.57698e-07
5.55663e-07
-5.58543e-07
-3.91011e-05
4.0638e-05
3.46613e-07
3.59069e-07
3.4502e-07
3.59733e-07
-3.54539e-07
-3.43325e-07
-3.56656e-07
3.90837e-05
-4.06088e-05
-5.37361e-07
5.39675e-07
-5.38852e-07
4.06115e-05
3.91069e-05
-4.06338e-05
5.55501e-07
-5.58817e-07
5.55646e-07
-5.58684e-07
-3.91027e-05
4.06378e-05
3.48207e-07
3.60505e-07
3.44972e-07
3.59864e-07
-3.56111e-07
-3.43677e-07
-3.57141e-07
3.90848e-05
-4.06085e-05
-5.38649e-07
5.39908e-07
-5.39305e-07
4.06112e-05
3.91066e-05
-4.06338e-05
5.55076e-07
-5.58468e-07
5.55487e-07
-5.58624e-07
-3.91026e-05
4.06376e-05
3.47605e-07
3.60001e-07
3.44728e-07
3.59672e-07
-3.5585e-07
-3.43639e-07
-3.57036e-07
3.90848e-05
-4.06086e-05
-5.38721e-07
5.39865e-07
-5.39096e-07
4.06116e-05
3.91068e-05
-4.0634e-05
5.55364e-07
-5.58926e-07
5.55253e-07
-5.58527e-07
-3.91032e-05
4.06377e-05
3.47914e-07
3.60289e-07
3.44591e-07
3.59638e-07
-3.55945e-07
-3.43699e-07
-3.57086e-07
3.90849e-05
-4.06086e-05
-5.38599e-07
5.39592e-07
-5.39253e-07
4.06114e-05
3.91062e-05
-4.06346e-05
5.54762e-07
-5.58749e-07
5.5489e-07
-5.57561e-07
-3.91028e-05
4.06392e-05
3.47367e-07
3.59757e-07
3.43873e-07
3.58422e-07
-3.55138e-07
-3.41969e-07
-3.54932e-07
3.90844e-05
-4.06098e-05
-5.38175e-07
5.38796e-07
-5.37969e-07
4.0613e-05
3.91058e-05
-4.06336e-05
5.54703e-07
-5.57053e-07
5.55981e-07
-5.5656e-07
-3.91014e-05
4.06392e-05
3.46738e-07
3.58764e-07
3.44436e-07
3.58427e-07
-3.53698e-07
-3.41979e-07
-3.5483e-07
3.90835e-05
-4.06095e-05
-5.37347e-07
5.39045e-07
-5.37766e-07
4.06131e-05
3.91064e-05
-4.06326e-05
5.55796e-07
-5.55367e-07
5.57558e-07
-5.45654e-07
-3.91007e-05
4.06431e-05
3.4713e-07
3.58385e-07
3.44667e-07
3.58079e-07
-3.53478e-07
-3.41303e-07
-3.54257e-07
3.90835e-05
-4.06095e-05
-5.37142e-07
5.39019e-07
-5.37368e-07
4.06133e-05
3.91072e-05
-4.06338e-05
5.57351e-07
-5.473e-07
5.5584e-07
-5.57256e-07
-3.90965e-05
4.064e-05
3.47943e-07
3.58654e-07
3.4475e-07
3.5868e-07
-3.53077e-07
-3.434e-07
-3.56225e-07
3.90837e-05
-4.06091e-05
-5.36674e-07
5.39425e-07
-5.37741e-07
4.06122e-05
3.91066e-05
-4.06341e-05
5.5518e-07
-5.55342e-07
5.55823e-07
-5.57207e-07
-3.9101e-05
4.0638e-05
3.47848e-07
3.5919e-07
3.44524e-07
3.5765e-07
-3.56942e-07
-3.44689e-07
-3.64066e-07
3.90842e-05
-4.06098e-05
-5.3722e-07
5.39759e-07
-5.37337e-07
4.06095e-05
3.91062e-05
-4.06342e-05
5.55574e-07
-5.57367e-07
5.56052e-07
-5.57847e-07
-3.91029e-05
4.06366e-05
3.47277e-07
3.57642e-07
3.44246e-07
3.57434e-07
-3.63626e-07
-3.45917e-07
-3.6468e-07
3.90836e-05
-4.06095e-05
-5.36527e-07
5.40703e-07
-5.38255e-07
4.06086e-05
3.91061e-05
-4.06343e-05
5.55645e-07
-5.58064e-07
5.55938e-07
-5.58174e-07
-3.91042e-05
4.06367e-05
3.47264e-07
3.57873e-07
3.44271e-07
3.57627e-07
-3.64233e-07
-3.45773e-07
-3.64336e-07
3.90839e-05
-4.06092e-05
-5.37602e-07
5.41026e-07
-5.38279e-07
4.06089e-05
3.9106e-05
-4.06348e-05
5.55488e-07
-5.57945e-07
5.55742e-07
-5.57512e-07
-3.91037e-05
4.06376e-05
3.47063e-07
3.57902e-07
3.43777e-07
3.5677e-07
-3.63469e-07
-3.448e-07
-3.63212e-07
3.90842e-05
-4.06102e-05
-5.37422e-07
5.40394e-07
-5.3791e-07
4.06098e-05
3.91057e-05
-4.06351e-05
5.55586e-07
-5.57419e-07
5.55437e-07
-5.57507e-07
-3.9103e-05
4.06377e-05
3.46802e-07
3.57004e-07
3.43406e-07
3.56598e-07
-3.62587e-07
-3.44564e-07
-3.63159e-07
3.90832e-05
-4.06104e-05
-5.37166e-07
5.40233e-07
-5.379e-07
4.06099e-05
3.91051e-05
-4.06365e-05
5.5472e-07
-5.57187e-07
5.54214e-07
-5.5646e-07
-3.91028e-05
4.06387e-05
3.45988e-07
3.56568e-07
3.41629e-07
3.55039e-07
-3.62505e-07
-3.43131e-07
-3.6172e-07
3.9083e-05
-4.06114e-05
-5.37186e-07
5.39264e-07
-5.36908e-07
4.06111e-05
3.91039e-05
-4.06352e-05
5.54003e-07
-5.56541e-07
5.55212e-07
-5.574e-07
-3.91019e-05
4.06376e-05
3.44703e-07
3.55544e-07
3.43327e-07
3.56657e-07
-3.61048e-07
-3.44429e-07
-3.63041e-07
3.90822e-05
-4.06102e-05
-5.35943e-07
5.40315e-07
-5.37552e-07
4.061e-05
3.91054e-05
-4.06353e-05
5.55098e-07
-5.57382e-07
5.55193e-07
-5.57168e-07
-3.91031e-05
4.06379e-05
3.46317e-07
3.56974e-07
3.43232e-07
3.56332e-07
-3.62373e-07
-3.44081e-07
-3.62641e-07
3.90834e-05
-4.06106e-05
-5.36948e-07
5.39844e-07
-5.37617e-07
4.06102e-05
3.9105e-05
-4.06345e-05
5.54824e-07
-5.57104e-07
5.55596e-07
-5.57833e-07
-3.91027e-05
4.06371e-05
3.45738e-07
3.56638e-07
3.44251e-07
3.57004e-07
-3.62153e-07
-3.45136e-07
-3.63754e-07
3.90828e-05
-4.06098e-05
-5.36996e-07
5.40508e-07
-5.38436e-07
4.06094e-05
3.91061e-05
-4.06344e-05
5.55578e-07
-5.57983e-07
5.55953e-07
-5.58278e-07
-3.91036e-05
4.06368e-05
3.46372e-07
3.57758e-07
3.44968e-07
3.57622e-07
-3.63482e-07
-3.45835e-07
-3.64196e-07
3.9084e-05
-4.06092e-05
-5.37893e-07
5.41111e-07
-5.38964e-07
4.06091e-05
3.91059e-05
-4.06343e-05
5.55655e-07
-5.5836e-07
5.56024e-07
-5.57897e-07
-3.91038e-05
4.06372e-05
3.46454e-07
3.57855e-07
3.44931e-07
3.57244e-07
-3.63657e-07
-3.45192e-07
-3.63582e-07
3.90842e-05
-4.06096e-05
-5.38568e-07
5.40718e-07
-5.38793e-07
4.06091e-05
3.91059e-05
-4.06347e-05
5.55559e-07
-5.57744e-07
5.55792e-07
-5.58011e-07
-3.91031e-05
4.06369e-05
3.46375e-07
3.57383e-07
3.44609e-07
3.57088e-07
-3.63007e-07
-3.45282e-07
-3.63687e-07
3.90838e-05
-4.06098e-05
-5.37972e-07
5.40899e-07
-5.39042e-07
4.06093e-05
3.91054e-05
-4.06359e-05
5.55182e-07
-5.57634e-07
5.54556e-07
-5.56782e-07
-3.91033e-05
4.06385e-05
3.4576e-07
3.57415e-07
3.42904e-07
3.567e-07
-3.62772e-07
-3.43569e-07
-3.63307e-07
3.90839e-05
-4.06091e-05
-5.37896e-07
5.40529e-07
-5.38986e-07
4.06087e-05
3.91038e-05
-4.06354e-05
5.54189e-07
-5.56896e-07
5.54811e-07
-5.57356e-07
-3.91015e-05
4.06373e-05
3.44402e-07
3.57436e-07
3.43143e-07
3.59576e-07
-3.63098e-07
-3.44175e-07
-3.65962e-07
3.90841e-05
-4.06037e-05
-5.39195e-07
5.45859e-07
-5.43834e-07
4.06037e-05
3.91041e-05
-4.06356e-05
5.54331e-07
-5.57337e-07
5.54849e-07
-5.56474e-07
-3.91025e-05
4.06389e-05
3.44565e-07
3.60338e-07
3.42926e-07
3.57702e-07
-3.66188e-07
-3.42824e-07
-3.64012e-07
3.90879e-05
-4.06075e-05
-5.43924e-07
5.45367e-07
-5.42942e-07
4.06065e-05
3.91045e-05
-4.0635e-05
5.54514e-07
-5.5658e-07
5.5529e-07
-5.57806e-07
-3.91012e-05
4.06369e-05
3.44401e-07
3.57452e-07
3.4372e-07
3.56916e-07
-3.62835e-07
-3.44966e-07
-3.63385e-07
3.90853e-05
-4.06096e-05
-5.40794e-07
5.40855e-07
-5.386e-07
4.06096e-05
3.91054e-05
-4.06345e-05
5.55148e-07
-5.57798e-07
5.55789e-07
-5.57496e-07
-3.91035e-05
4.06378e-05
3.45734e-07
3.57485e-07
3.44588e-07
3.57134e-07
-3.6311e-07
-3.44856e-07
-3.63781e-07
3.90839e-05
-4.06098e-05
-5.38586e-07
5.40573e-07
-5.38912e-07
4.06091e-05
3.91057e-05
-4.06343e-05
5.55259e-07
-5.5769e-07
5.56036e-07
-5.58027e-07
-3.91027e-05
4.0637e-05
3.45942e-07
3.57226e-07
3.4513e-07
3.57558e-07
-3.63248e-07
-3.45433e-07
-3.64082e-07
3.90835e-05
-4.06092e-05
-5.38338e-07
5.41068e-07
-5.39202e-07
4.06087e-05
3.91061e-05
-4.06343e-05
5.55813e-07
-5.58082e-07
5.56129e-07
-5.58545e-07
-3.91035e-05
4.06363e-05
3.46709e-07
3.58246e-07
3.45094e-07
3.57878e-07
-3.63121e-07
-3.45964e-07
-3.63887e-07
3.90844e-05
-4.06088e-05
-5.38275e-07
5.41538e-07
-5.39415e-07
4.06085e-05
3.91059e-05
-4.06353e-05
5.55514e-07
-5.58366e-07
5.55268e-07
-5.57391e-07
-3.91041e-05
4.06375e-05
3.46332e-07
3.57892e-07
3.44053e-07
3.5627e-07
-3.63462e-07
-3.44657e-07
-3.63269e-07
3.90843e-05
-4.06104e-05
-5.38817e-07
5.40211e-07
-5.39252e-07
4.0609e-05
3.91049e-05
-4.06354e-05
5.54935e-07
-5.57178e-07
5.55303e-07
-5.57159e-07
-3.91027e-05
4.06379e-05
3.45464e-07
3.56453e-07
3.43748e-07
3.56054e-07
-3.62067e-07
-3.44174e-07
-3.62805e-07
3.90828e-05
-4.06103e-05
-5.38116e-07
5.40171e-07
-5.3884e-07
4.06095e-05
3.91049e-05
-4.06361e-05
5.54937e-07
-5.57196e-07
5.54701e-07
-5.57058e-07
-3.91026e-05
4.0638e-05
3.45413e-07
3.5665e-07
3.43249e-07
3.55862e-07
-3.62056e-07
-3.43608e-07
-3.61657e-07
3.9083e-05
-4.06105e-05
-5.38053e-07
5.39989e-07
-5.38189e-07
4.061e-05
3.91043e-05
-4.06358e-05
5.54259e-07
-5.56911e-07
5.54891e-07
-5.57025e-07
-3.91024e-05
4.06382e-05
3.44482e-07
3.55929e-07
3.43432e-07
3.55829e-07
-3.61144e-07
-3.44225e-07
-3.62699e-07
3.90827e-05
-4.06105e-05
-5.3748e-07
5.39898e-07
-5.38771e-07
4.06096e-05
3.91045e-05
-4.0635e-05
5.5461e-07
-5.5715e-07
5.55349e-07
-5.57055e-07
-3.91024e-05
4.06381e-05
3.45061e-07
3.56242e-07
3.43849e-07
3.56246e-07
-3.62096e-07
-3.439e-07
-3.62757e-07
3.90829e-05
-4.06099e-05
-5.38e-07
5.40286e-07
-5.38973e-07
4.06092e-05
3.91054e-05
-4.06345e-05
5.55217e-07
-5.57248e-07
5.55988e-07
-5.58195e-07
-3.91023e-05
4.06364e-05
3.45664e-07
3.56891e-07
3.44951e-07
3.57373e-07
-3.62313e-07
-3.45598e-07
-3.6385e-07
3.90834e-05
-4.06092e-05
-5.38311e-07
5.40946e-07
-5.39599e-07
4.06084e-05
3.91059e-05
-4.06346e-05
5.55762e-07
-5.58144e-07
5.55776e-07
-5.58047e-07
-3.91039e-05
4.06367e-05
3.46707e-07
3.5776e-07
3.44898e-07
3.57257e-07
-3.63342e-07
-3.45626e-07
-3.63782e-07
3.90841e-05
-4.06093e-05
-5.38941e-07
5.40903e-07
-5.39374e-07
4.06086e-05
3.91056e-05
-4.06344e-05
5.55382e-07
-5.57951e-07
5.55847e-07
-5.58217e-07
-3.91036e-05
4.06367e-05
3.46364e-07
3.57474e-07
3.44854e-07
3.57366e-07
-3.63134e-07
-3.45625e-07
-3.63925e-07
3.90839e-05
-4.06092e-05
-5.38603e-07
5.41006e-07
-5.39526e-07
4.06083e-05
3.91058e-05
-4.0635e-05
5.55483e-07
-5.58256e-07
5.55567e-07
-5.57313e-07
-3.91037e-05
4.06381e-05
3.46333e-07
3.57671e-07
3.44248e-07
3.56604e-07
-3.63414e-07
-3.44549e-07
-3.6298e-07
3.9084e-05
-4.061e-05
-5.39027e-07
5.40418e-07
-5.38898e-07
4.06094e-05
3.91052e-05
-4.06355e-05
5.54902e-07
-5.57057e-07
5.55016e-07
-5.57203e-07
-3.91021e-05
4.06375e-05
3.45465e-07
3.56663e-07
3.43586e-07
3.55854e-07
-3.61932e-07
-3.44263e-07
-3.62343e-07
3.90832e-05
-4.06104e-05
-5.3769e-07
5.40012e-07
-5.38487e-07
4.06097e-05
3.91048e-05
-4.06357e-05
5.54715e-07
-5.57029e-07
5.55062e-07
-5.57081e-07
-3.91028e-05
4.06379e-05
3.44967e-07
3.5618e-07
3.43364e-07
3.55641e-07
-3.61714e-07
-3.44074e-07
-3.62119e-07
3.90827e-05
-4.06105e-05
-5.3775e-07
5.3989e-07
-5.38238e-07
4.061e-05
3.91045e-05
-4.06357e-05
5.54589e-07
-5.5697e-07
5.54709e-07
-5.56875e-07
-3.91025e-05
4.06381e-05
3.44703e-07
3.55883e-07
3.43217e-07
3.55676e-07
-3.61712e-07
-3.43756e-07
-3.62149e-07
3.90825e-05
-4.06106e-05
-5.37749e-07
5.39573e-07
-5.3827e-07
4.06099e-05
3.91045e-05
-4.0635e-05
5.54411e-07
-5.57082e-07
5.55336e-07
-5.57408e-07
-3.91023e-05
4.06374e-05
3.44864e-07
3.5636e-07
3.4394e-07
3.56313e-07
-3.61593e-07
-3.44612e-07
-3.62772e-07
3.90817e-05
-4.06103e-05
-5.37625e-07
5.40092e-07
-5.38773e-07
4.06091e-05
3.91053e-05
-4.06344e-05
5.55207e-07
-5.57546e-07
5.56225e-07
-5.58378e-07
-3.91031e-05
4.06367e-05
3.45617e-07
3.56909e-07
3.45146e-07
3.57723e-07
-3.62464e-07
-3.4575e-07
-3.64045e-07
3.90822e-05
-4.06096e-05
-5.38296e-07
5.41062e-07
-5.39666e-07
4.06085e-05
3.91058e-05
-4.06313e-05
5.54903e-07
-5.57192e-07
5.59155e-07
-5.61669e-07
-3.91034e-05
4.06337e-05
3.4542e-07
3.56814e-07
3.49196e-07
3.6162e-07
-3.62391e-07
-3.4968e-07
-3.68391e-07
3.90825e-05
-4.06067e-05
-5.38011e-07
5.43656e-07
-5.4261e-07
4.06056e-05
3.91007e-05
-4.05792e-05
5.51385e-07
-5.53807e-07
5.29388e-07
-5.33125e-07
-3.90984e-05
4.0582e-05
3.41009e-07
3.52497e-07
3.16431e-07
3.2951e-07
-3.57925e-07
-3.17719e-07
-3.36187e-07
3.90774e-05
-4.0556e-05
-5.34594e-07
5.1433e-07
-5.13962e-07
4.0554e-05
3.89793e-05
-3.98172e-05
6.11445e-07
-6.13624e-07
1.94743e-07
-2.02083e-07
-3.89781e-05
3.98208e-05
4.34007e-07
4.44693e-07
-1.90693e-07
-1.72827e-07
-4.50198e-07
1.87212e-07
1.72831e-07
3.89568e-05
-3.97941e-05
-5.95296e-07
1.80997e-07
-1.82779e-07
3.97915e-05
3.77914e-05
-3.93295e-05
1.03584e-06
-1.03662e-06
-8.14563e-07
8.06537e-07
-3.77894e-05
3.93309e-05
1.17511e-06
1.1816e-06
-1.45935e-06
-1.44072e-06
-1.18537e-06
1.45189e-06
1.42998e-06
3.77707e-05
-3.93041e-05
-1.02067e-06
-8.26342e-07
8.16397e-07
3.92928e-05
3.71418e-05
-3.38373e-05
2.29303e-06
-2.30264e-06
-4.84459e-06
4.82222e-06
-3.7145e-05
3.38002e-05
2.70361e-06
2.7154e-06
-6.60663e-06
-6.59137e-06
-2.72449e-06
6.57596e-06
6.57752e-06
3.7138e-05
-3.38195e-05
-2.2853e-06