/*--------------------------------*- C++ -*----------------------------------*\
| =========                 |                                                 |
| \\      /  F ield         | OpenFOAM: The Open Source CFD Toolbox           |
|  \\    /   O peration     | Version:  2206                                  |
|   \\  /    A nd           | Website:  www.openfoam.com                      |
|    \\/     M anipulation  |                                                 |
\*---------------------------------------------------------------------------*/
FoamFile
{
    version     2.0;
    format      ascii;
    arch        "LSB;label=32;scalar=64";
    class       surfaceScalarField;
    location    "24";
    object      phi;
}
// * * * * * * * * * * * * * * * * * * * * * * * * * * * * * * * * * * * * * //

dimensions      [0 3 -1 0 0 0 0];

oriented        oriented;

internalField   nonuniform List<scalar> 
81717
(
1.40341e-09
1.51921e-09
-0.00108148
-1.44338e-09
-1.43595e-09
0.00108148
-0.00108169
-1.19706e-06
-1.5381e-09
2.47432e-09
0.00108169
-2.46678e-07
1.1995e-06
2.45718e-07
8.81347e-07
-2.44749e-07
-8.81058e-07
2.42184e-07
-0.00108135
-1.19169e-06
-1.53447e-09
2.45932e-09
0.00108134
-2.46667e-07
1.1941e-06
2.45732e-07
8.81175e-07
-2.47397e-07
-8.80937e-07
2.44866e-07
-0.000265854
1.22524e-06
1.1918e-06
-2.26335e-07
-2.31601e-07
0.000263895
1.50552e-09
1.63112e-09
-0.00108148
-1.48894e-09
-1.47701e-09
0.00108148
-0.00108168
-1.19704e-06
-1.64146e-09
2.4331e-09
0.00108168
-2.46641e-07
1.19953e-06
2.45761e-07
8.81387e-07
-2.44696e-07
-8.81026e-07
2.42243e-07
-0.00108134
-1.19166e-06
-1.64036e-09
2.4128e-09
0.00108134
-2.46628e-07
1.19413e-06
2.45775e-07
8.81215e-07
-2.47344e-07
-8.80906e-07
2.44928e-07
-0.000265854
1.22521e-06
1.19178e-06
-2.26298e-07
-2.31562e-07
0.000263894
1.66174e-09
1.77444e-09
-0.00108147
-1.56886e-09
-1.56168e-09
0.00108147
-0.00108168
-1.19698e-06
-1.797e-09
2.34775e-09
0.00108168
-2.46583e-07
1.1996e-06
2.45835e-07
8.81475e-07
-2.44621e-07
-8.80972e-07
2.42349e-07
-0.00108134
-1.1916e-06
-1.79786e-09
2.33425e-09
0.00108134
-2.4657e-07
1.1942e-06
2.4585e-07
8.81304e-07
-2.47271e-07
-8.80852e-07
2.4503e-07
-0.000265853
1.22515e-06
1.19172e-06
-2.26237e-07
-2.31499e-07
0.000263894
2.13059e-09
2.24764e-09
-0.00108147
-1.71075e-09
-1.70147e-09
0.00108147
-0.00108168
-1.19685e-06
-2.27783e-09
2.07778e-09
0.00108168
-2.46471e-07
1.19976e-06
2.4598e-07
8.81666e-07
-2.44499e-07
-8.80828e-07
2.42523e-07
-0.00108134
-1.19147e-06
-2.28782e-09
2.05719e-09
0.00108134
-2.46456e-07
1.19436e-06
2.45998e-07
8.81496e-07
-2.47148e-07
-8.80706e-07
2.45208e-07
-0.000265853
1.22502e-06
1.19159e-06
-2.26102e-07
-2.31365e-07
0.000263894
-5.41224e-11
4.93368e-11
-0.00108147
-7.65966e-10
-7.64541e-10
0.00108148
-0.00108168
-1.19747e-06
-5.31493e-11
3.04474e-09
0.00108168
-2.47155e-07
1.19923e-06
2.45395e-07
8.80872e-07
-2.45561e-07
-8.8171e-07
2.41515e-07
-0.00108134
-1.19209e-06
-3.8146e-11
3.04048e-09
0.00108134
-2.47147e-07
1.19382e-06
2.45404e-07
8.80698e-07
-2.48215e-07
-8.81591e-07
2.44192e-07
-0.000265853
1.22563e-06
1.1922e-06
-2.26878e-07
-2.32146e-07
0.000263894
1.44049e-09
1.52085e-09
-0.00108148
-1.45269e-09
-1.47731e-09
0.00108148
-0.00108169
-1.19706e-06
-1.56109e-09
2.36351e-09
0.00108169
-2.46672e-07
1.19959e-06
2.45825e-07
8.81397e-07
-2.44901e-07
-8.8114e-07
2.42192e-07
-0.00108135
-1.19168e-06
-1.53139e-09
2.38782e-09
0.00108135
-2.46668e-07
1.19418e-06
2.4583e-07
8.81222e-07
-2.47558e-07
-8.81023e-07
2.44865e-07
-0.000265854
1.22524e-06
1.19181e-06
-2.26341e-07
-2.31612e-07
0.000263895
1.41304e-09
1.4717e-09
-0.00108148
-1.41037e-09
-1.45761e-09
0.00108148
-0.00108169
-1.19705e-06
-1.54258e-09
2.38688e-09
0.00108169
-2.46674e-07
1.19958e-06
2.45807e-07
8.81375e-07
-2.44864e-07
-8.8115e-07
2.42194e-07
-0.00108135
-1.19172e-06
-1.50157e-09
2.46635e-09
0.00108135
-2.46713e-07
1.19414e-06
2.45778e-07
8.81207e-07
-2.47512e-07
-8.81027e-07
2.44878e-07
-0.000265854
1.22527e-06
1.19184e-06
-2.26369e-07
-2.3164e-07
0.000263895
1.36771e-09
1.46538e-09
-0.00108148
-1.41766e-09
-1.4303e-09
0.00108148
-0.00108169
-1.1971e-06
-1.4911e-09
2.4807e-09
0.00108169
-2.46729e-07
1.19955e-06
2.45764e-07
8.81377e-07
-2.44871e-07
-8.81155e-07
2.42192e-07
-0.00108135
-1.19172e-06
-1.48285e-09
2.47829e-09
0.00108135
-2.46721e-07
1.19414e-06
2.45773e-07
8.81201e-07
-2.47519e-07
-8.81035e-07
2.44874e-07
-0.000265854
1.22528e-06
1.19185e-06
-2.26378e-07
-2.31646e-07
0.000263895
1.36973e-09
1.46569e-09
-0.00108148
-1.41837e-09
-1.43689e-09
0.00108148
-0.00108169
-1.1971e-06
-1.4876e-09
2.47675e-09
0.00108169
-2.4673e-07
1.19954e-06
2.45763e-07
8.81375e-07
-2.44872e-07
-8.81155e-07
2.42191e-07
-0.00108135
-1.19172e-06
-1.5057e-09
2.47855e-09
0.00108135
-2.4672e-07
1.19414e-06
2.45774e-07
8.81205e-07
-2.47515e-07
-8.8103e-07
2.44877e-07
-0.000265854
1.22527e-06
1.19185e-06
-2.2638e-07
-2.31641e-07
0.000263895
1.36585e-09
1.45674e-09
-0.00108148
-1.41366e-09
-1.43289e-09
0.00108148
-0.00108169
-1.1971e-06
-1.48007e-09
2.47743e-09
0.00108169
-2.4673e-07
1.19954e-06
2.45761e-07
8.81373e-07
-2.44872e-07
-8.81157e-07
2.4219e-07
-0.00108135
-1.19173e-06
-1.50354e-09
2.48347e-09
0.00108135
-2.46722e-07
1.19414e-06
2.45772e-07
8.81204e-07
-2.47516e-07
-8.81031e-07
2.44877e-07
-0.000265854
1.22527e-06
1.19185e-06
-2.26381e-07
-2.31641e-07
0.000263895
1.36413e-09
1.45285e-09
-0.00108148
-1.41071e-09
-1.43194e-09
0.00108148
-0.00108169
-1.1971e-06
-1.47914e-09
2.47572e-09
0.00108169
-2.46729e-07
1.19954e-06
2.45762e-07
8.81373e-07
-2.44872e-07
-8.81157e-07
2.4219e-07
-0.00108135
-1.19173e-06
-1.50422e-09
2.48345e-09
0.00108135
-2.46722e-07
1.19414e-06
2.45772e-07
8.81205e-07
-2.47515e-07
-8.8103e-07
2.44877e-07
-0.000265854
1.22527e-06
1.19185e-06
-2.26381e-07
-2.3164e-07
0.000263895
1.36167e-09
1.44884e-09
-0.00108148
-1.40989e-09
-1.43128e-09
0.00108148
-0.00108169
-1.1971e-06
-1.47125e-09
2.47839e-09
0.00108169
-2.46731e-07
1.19954e-06
2.45761e-07
8.81371e-07
-2.44874e-07
-8.81159e-07
2.42189e-07
-0.00108135
-1.19173e-06
-1.49773e-09
2.48736e-09
0.00108135
-2.46724e-07
1.19414e-06
2.45771e-07
8.81204e-07
-2.47517e-07
-8.81032e-07
2.44877e-07
-0.000265854
1.22527e-06
1.19185e-06
-2.26383e-07
-2.31642e-07
0.000263895
1.36455e-09
1.45129e-09
-0.00108148
-1.411e-09
-1.43193e-09
0.00108148
-0.00108169
-1.1971e-06
-1.47609e-09
2.47615e-09
0.00108169
-2.4673e-07
1.19954e-06
2.45762e-07
8.81372e-07
-2.44873e-07
-8.81157e-07
2.42191e-07
-0.00108135
-1.19173e-06
-1.50322e-09
2.48596e-09
0.00108135
-2.46723e-07
1.19414e-06
2.4577e-07
8.81203e-07
-2.47514e-07
-8.8103e-07
2.44876e-07
-0.000265854
1.22527e-06
1.19185e-06
-2.26381e-07
-2.31639e-07
0.000263895
1.36818e-09
1.4556e-09
-0.00108148
-1.41309e-09
-1.43386e-09
0.00108148
-0.00108169
-1.1971e-06
-1.48133e-09
2.47298e-09
0.00108169
-2.46729e-07
1.19954e-06
2.45765e-07
8.81372e-07
-2.44869e-07
-8.81156e-07
2.4219e-07
-0.00108135
-1.19173e-06
-1.50719e-09
2.48339e-09
0.00108135
-2.46725e-07
1.19414e-06
2.45775e-07
8.81208e-07
-2.47517e-07
-8.81031e-07
2.44882e-07
-0.000265854
1.22527e-06
1.19185e-06
-2.26384e-07
-2.31643e-07
0.000263895
1.36938e-09
1.45865e-09
-0.00108148
-1.4153e-09
-1.4334e-09
0.00108148
-0.00108169
-1.1971e-06
-1.48412e-09
2.47205e-09
0.00108169
-2.46725e-07
1.19954e-06
2.45761e-07
8.8137e-07
-2.44865e-07
-8.81153e-07
2.42186e-07
-0.00108135
-1.19173e-06
-1.51309e-09
2.48152e-09
0.00108135
-2.46721e-07
1.19414e-06
2.45772e-07
8.81205e-07
-2.4751e-07
-8.81027e-07
2.44877e-07
-0.000265854
1.22527e-06
1.19185e-06
-2.2638e-07
-2.31637e-07
0.000263895
1.38002e-09
1.47224e-09
-0.00108148
-1.4213e-09
-1.44028e-09
0.00108148
-0.00108169
-1.1971e-06
-1.49237e-09
2.46926e-09
0.00108169
-2.46722e-07
1.19954e-06
2.45759e-07
8.81364e-07
-2.44857e-07
-8.81144e-07
2.4218e-07
-0.00108135
-1.19172e-06
-1.5134e-09
2.48118e-09
0.00108135
-2.46714e-07
1.19413e-06
2.45765e-07
8.81196e-07
-2.47497e-07
-8.81016e-07
2.44865e-07
-0.000265854
1.22526e-06
1.19184e-06
-2.26373e-07
-2.3163e-07
0.000263895
1.37656e-09
1.47441e-09
-0.00108148
-1.41821e-09
-1.43544e-09
0.00108148
-0.00108169
-1.19709e-06
-1.49784e-09
2.46785e-09
0.00108169
-2.46708e-07
1.19953e-06
2.45746e-07
8.81343e-07
-2.44831e-07
-8.81117e-07
2.42159e-07
-0.00108135
-1.19171e-06
-1.51984e-09
2.48302e-09
0.00108135
-2.46695e-07
1.19412e-06
2.45746e-07
8.81173e-07
-2.47466e-07
-8.80987e-07
2.44839e-07
-0.000265854
1.22525e-06
1.19183e-06
-2.26359e-07
-2.31616e-07
0.000263895
-1.23294e-06
-1.19686e-06
0.00026587
-0.0002639
2.26219e-07
2.33988e-07
0.00108091
-1.41544e-09
-0.00108091
2.60072e-09
-1.23055e-06
2.51051e-07
-2.52103e-07
-8.81028e-07
2.42076e-07
-2.44729e-07
8.8126e-07
1.23837e-06
0.00108134
-1.37534e-09
-0.00108134
2.60981e-09
-1.23598e-06
2.53843e-07
-2.54878e-07
-8.8662e-07
2.44863e-07
-2.47565e-07
8.86832e-07
-1.1995e-06
0.000265898
-0.000263921
2.28991e-07
2.31275e-07
0.00108195
-1.52608e-09
-0.00108195
2.46074e-09
-1.19446e-06
2.48506e-07
-2.49471e-07
-8.83772e-07
2.44924e-07
-2.47538e-07
8.84111e-07
1.23299e-06
0.00108102
-1.36241e-09
-0.00108102
2.61666e-09
-1.23062e-06
2.53818e-07
-2.54872e-07
-8.83771e-07
2.44831e-07
-2.47498e-07
8.83953e-07
-1.52404e-09
-0.00108169
2.48823e-09
-1.19707e-06
2.45709e-07
-2.46691e-07
-8.81063e-07
2.42168e-07
8.81349e-07
-2.44767e-07
1.22761e-06
0.00108081
-1.37837e-09
-0.00108081
2.61477e-09
-1.22524e-06
2.48305e-07
-2.49332e-07
-8.81073e-07
2.42069e-07
-2.44736e-07
8.81271e-07
-1.1941e-06
0.000265849
-0.000263882
2.26407e-07
2.33782e-07
-1.52278e-09
-0.00108135
2.47169e-09
-1.1917e-06
2.45722e-07
-2.4668e-07
-8.80892e-07
2.44831e-07
8.81233e-07
-2.47437e-07
1.1942e-06
0.00108186
-1.50823e-09
-0.00108186
2.47741e-09
-1.19181e-06
2.45775e-07
-2.46741e-07
-8.81165e-07
2.44918e-07
-2.47512e-07
8.8147e-07
-0.000263895
2.28729e-07
2.34009e-07
1.23054e-06
1.19445e-06
-2.23824e-07
-2.31555e-07
0.0002639
-1.23296e-06
-1.19688e-06
0.000265869
-0.0002639
2.26256e-07
2.34028e-07
2.59056e-09
0.00108091
-2.5209e-07
1.23294e-06
2.5106e-07
8.8125e-07
-2.44716e-07
-8.81027e-07
2.42085e-07
-1.23597e-06
-1.39044e-09
2.6009e-09
0.00108134
-2.54867e-07
1.23838e-06
2.53851e-07
8.86829e-07
-2.47546e-07
-8.86615e-07
2.44876e-07
0.00108091
-1.52971e-09
-0.00108091
2.53966e-09
-1.23053e-06
2.51092e-07
-2.52063e-07
-8.80998e-07
2.42134e-07
-2.44674e-07
8.81293e-07
1.2384e-06
0.00108134
-1.4947e-09
-0.00108134
2.54752e-09
-1.23595e-06
2.53883e-07
-2.54839e-07
-8.86593e-07
2.44925e-07
-2.47505e-07
8.86864e-07
-2.26551e-07
-2.2885e-07
0.000263921
-1.19952e-06
0.000265898
-0.000263921
2.29031e-07
2.31316e-07
2.45676e-09
0.00108195
-2.49459e-07
1.19686e-06
2.48514e-07
8.84106e-07
-2.47524e-07
-8.83771e-07
2.44935e-07
-1.23061e-06
-1.37653e-09
2.61204e-09
0.00108102
-2.54858e-07
1.23299e-06
2.53827e-07
8.83951e-07
-2.47482e-07
-8.83769e-07
2.44846e-07
0.00108195
-1.65451e-09
-0.00108195
2.41115e-09
-1.19444e-06
2.48545e-07
-2.49434e-07
-8.83741e-07
2.44987e-07
-2.47477e-07
8.84146e-07
1.23301e-06
0.00108102
-1.50407e-09
-0.00108102
2.55316e-09
-1.23059e-06
2.53855e-07
-2.54833e-07
-8.83725e-07
2.44901e-07
-2.47432e-07
8.84002e-07
-1.38832e-09
2.60991e-09
0.00108081
-2.49322e-07
1.22761e-06
2.48311e-07
8.81267e-07
-2.4472e-07
2.4208e-07
-8.81068e-07
-1.65226e-09
-0.00108168
2.43101e-09
-1.19704e-06
2.45748e-07
-2.46652e-07
-8.81032e-07
2.42233e-07
8.81385e-07
-2.44706e-07
1.22763e-06
0.00108081
-1.503e-09
-0.00108081
2.55247e-09
-1.22521e-06
2.48346e-07
-2.49292e-07
-8.81044e-07
2.42134e-07
-2.44675e-07
8.81305e-07
-2.24005e-07
-2.31367e-07
0.000263882
-1.19412e-06
0.000265848
-0.000263882
2.26453e-07
2.33819e-07
-1.52572e-09
2.47219e-09
0.00108186
-2.4673e-07
1.19421e-06
2.45782e-07
8.81465e-07
-2.47497e-07
2.44929e-07
-8.81166e-07
-1.64738e-09
-0.00108134
2.40798e-09
-1.19166e-06
2.45764e-07
-2.46638e-07
-8.80864e-07
2.44894e-07
8.81266e-07
-2.47378e-07
1.19423e-06
0.00108186
-1.63604e-09
-0.00108186
2.41475e-09
-1.19178e-06
2.45813e-07
-2.46703e-07
-8.8113e-07
2.44981e-07
-2.47455e-07
8.81515e-07
-0.000263895
2.28768e-07
2.34049e-07
1.23052e-06
1.19443e-06
-2.23789e-07
-2.31517e-07
0.0002639
-1.23303e-06
-1.19695e-06
0.000265869
-0.000263899
2.26328e-07
2.34095e-07
2.53979e-09
0.0010809
-2.52051e-07
1.23297e-06
2.51104e-07
8.81292e-07
-2.44667e-07
-8.80995e-07
2.42144e-07
-1.23595e-06
-1.49339e-09
2.55359e-09
0.00108134
-2.54828e-07
1.2384e-06
2.53894e-07
8.86868e-07
-2.47493e-07
-8.86585e-07
2.44937e-07
0.0010809
-1.83247e-09
-0.0010809
2.38828e-09
-1.23048e-06
2.51166e-07
-2.5201e-07
-8.80933e-07
2.42247e-07
-2.44595e-07
8.81381e-07
1.23847e-06
0.00108134
-1.79134e-09
-0.00108134
2.39902e-09
-1.2359e-06
2.5396e-07
-2.54783e-07
-8.86534e-07
2.45033e-07
-2.47429e-07
8.86946e-07
-2.26513e-07
-2.28814e-07
0.000263921
-1.1996e-06
0.000265898
-0.00026392
2.29099e-07
2.31386e-07
2.41454e-09
0.00108195
-2.49421e-07
1.19689e-06
2.48557e-07
8.84148e-07
-2.4747e-07
-8.83738e-07
2.44997e-07
-1.23058e-06
-1.49301e-09
2.5647e-09
0.00108102
-2.54822e-07
1.23302e-06
2.53868e-07
8.83998e-07
-2.47422e-07
-8.83725e-07
2.44913e-07
0.00108195
-1.94093e-09
-0.00108195
2.24999e-09
-1.19438e-06
2.48623e-07
-2.49376e-07
-8.83684e-07
2.45094e-07
-2.47401e-07
8.84226e-07
1.23309e-06
0.00108101
-1.77956e-09
-0.00108101
2.40213e-09
-1.23054e-06
2.53936e-07
-2.54774e-07
-8.83684e-07
2.45003e-07
-2.47364e-07
8.84071e-07
-1.49597e-09
2.55628e-09
0.00108081
-2.49282e-07
1.22764e-06
2.48356e-07
8.81308e-07
-2.44665e-07
2.42143e-07
-8.81037e-07
-1.94243e-09
-0.00108168
2.27698e-09
-1.19699e-06
2.45826e-07
-2.46595e-07
-8.80976e-07
2.42341e-07
8.81464e-07
-2.4463e-07
1.2277e-06
0.00108081
-1.79683e-09
-0.00108081
2.40051e-09
-1.22516e-06
2.48423e-07
-2.49236e-07
-8.80986e-07
2.4224e-07
-2.44601e-07
8.81386e-07
-2.23963e-07
-2.31331e-07
0.000263882
-1.19419e-06
0.000265848
-0.000263881
2.26519e-07
2.3389e-07
-1.64338e-09
2.4194e-09
0.00108186
-2.46693e-07
1.19423e-06
2.45823e-07
8.81522e-07
-2.47442e-07
2.44993e-07
-8.81119e-07
-1.94496e-09
-0.00108134
2.26278e-09
-1.19161e-06
2.4584e-07
-2.46583e-07
-8.80806e-07
2.45001e-07
8.81347e-07
-2.47301e-07
1.1943e-06
0.00108185
-1.93805e-09
-0.00108185
2.26192e-09
-1.19173e-06
2.45889e-07
-2.46649e-07
-8.81069e-07
2.45092e-07
-2.47377e-07
8.81599e-07
-0.000263894
2.28835e-07
2.34117e-07
1.23046e-06
1.19437e-06
-2.23725e-07
-2.31457e-07
0.000263899
-1.23315e-06
-1.19707e-06
0.000265868
-0.000263899
2.26441e-07
2.3421e-07
2.46197e-09
0.0010809
-2.51997e-07
1.23304e-06
2.51175e-07
8.81381e-07
-2.44591e-07
-8.80938e-07
2.4225e-07
-1.23588e-06
-1.64751e-09
2.47115e-09
0.00108134
-2.54771e-07
1.23848e-06
2.53969e-07
8.86956e-07
-2.4742e-07
-8.8653e-07
2.45041e-07
0.0010809
-2.17218e-09
-0.0010809
2.19454e-09
-1.23043e-06
2.51292e-07
-2.51961e-07
-8.80886e-07
2.4238e-07
-2.44543e-07
8.81517e-07
1.23859e-06
0.00108134
-2.13099e-09
-0.00108134
2.20226e-09
-1.23586e-06
2.54087e-07
-2.54734e-07
-8.86486e-07
2.45165e-07
-2.47378e-07
8.87084e-07
-2.26451e-07
-2.28748e-07
0.00026392
-1.19971e-06
0.000265897
-0.00026392
2.29212e-07
2.31504e-07
2.33096e-09
0.00108195
-2.49364e-07
1.19696e-06
2.4863e-07
8.84233e-07
-2.47396e-07
-8.83685e-07
2.45099e-07
-1.23052e-06
-1.64063e-09
2.47844e-09
0.00108101
-2.54762e-07
1.23309e-06
2.53944e-07
8.84085e-07
-2.47353e-07
-8.83677e-07
2.45014e-07
0.00108195
-2.28507e-09
-0.00108195
2.05796e-09
-1.19434e-06
2.48749e-07
-2.49327e-07
-8.83634e-07
2.45228e-07
-2.47347e-07
8.84365e-07
1.2332e-06
0.00108101
-2.1255e-09
-0.00108101
2.20076e-09
-1.23049e-06
2.54061e-07
-2.54727e-07
-8.8363e-07
2.45139e-07
-2.47309e-07
8.84212e-07
-1.64805e-09
2.47491e-09
0.00108081
-2.49224e-07
1.22771e-06
2.48431e-07
8.81395e-07
-2.44594e-07
2.42247e-07
-8.80984e-07
-2.29605e-09
-0.00108168
2.07974e-09
-1.19695e-06
2.45951e-07
-2.46548e-07
-8.80922e-07
2.42479e-07
8.81609e-07
-2.44574e-07
1.22782e-06
0.00108081
-2.13976e-09
-0.00108081
2.20843e-09
-1.22512e-06
2.48545e-07
-2.49191e-07
-8.80938e-07
2.42374e-07
-2.44551e-07
8.81524e-07
-2.239e-07
-2.31267e-07
0.000263881
-1.19431e-06
0.000265848
-0.000263881
2.26635e-07
2.34004e-07
-1.80131e-09
2.33701e-09
0.00108185
-2.46637e-07
1.1943e-06
2.45897e-07
8.8161e-07
-2.47368e-07
2.451e-07
-8.81065e-07
-2.29877e-09
-0.00108134
2.06405e-09
-1.19157e-06
2.45967e-07
-2.46534e-07
-8.80754e-07
2.45136e-07
8.81489e-07
-2.47247e-07
1.19441e-06
0.00108185
-2.28066e-09
-0.00108185
2.07336e-09
-1.19169e-06
2.46011e-07
-2.46604e-07
-8.81022e-07
2.45227e-07
-2.47325e-07
8.81736e-07
-0.000263894
2.28947e-07
2.34231e-07
1.23034e-06
1.19424e-06
-2.23591e-07
-2.31321e-07
0.000263899
-1.23259e-06
-1.19651e-06
0.000265868
-0.000263899
2.25748e-07
2.33514e-07
2.18699e-09
0.0010809
-2.51883e-07
1.2332e-06
2.51325e-07
8.81562e-07
-2.44475e-07
-8.80804e-07
2.4242e-07
-1.23576e-06
-2.11645e-09
2.19738e-09
0.00108134
-2.54657e-07
1.23864e-06
2.54116e-07
8.8714e-07
-2.47305e-07
-8.86393e-07
2.45211e-07
0.0010809
6.30059e-11
-0.0010809
3.29754e-09
-1.23094e-06
2.50647e-07
-2.52559e-07
-8.81596e-07
2.4146e-07
-2.45356e-07
8.80744e-07
1.23803e-06
0.00108134
8.67216e-11
-0.00108134
3.29952e-09
-1.23636e-06
2.53446e-07
-2.55329e-07
-8.87197e-07
2.44248e-07
-2.48187e-07
8.86311e-07
-2.26317e-07
-2.28612e-07
0.00026392
-1.19915e-06
0.000265897
-0.000263919
2.28522e-07
2.30809e-07
2.05829e-09
0.00108195
-2.49251e-07
1.19712e-06
2.48778e-07
8.84417e-07
-2.47276e-07
-8.83546e-07
2.45269e-07
-1.2304e-06
-2.11205e-09
2.19903e-09
0.00108101
-2.54649e-07
1.23326e-06
2.54095e-07
8.84268e-07
-2.47237e-07
-8.8354e-07
2.45184e-07
0.00108195
-3.07997e-11
-0.00108195
3.1524e-09
-1.19484e-06
2.48103e-07
-2.49922e-07
-8.84347e-07
2.44302e-07
-2.4816e-07
8.83585e-07
1.23264e-06
0.00108101
9.39791e-11
-0.00108101
3.30938e-09
-1.231e-06
2.53418e-07
-2.55322e-07
-8.84341e-07
2.44225e-07
-2.48117e-07
8.8344e-07
-2.12844e-09
2.19904e-09
0.00108081
-2.49113e-07
1.22787e-06
2.48578e-07
8.81584e-07
-2.44473e-07
2.42424e-07
-8.80843e-07
-2.4552e-11
-0.00108168
3.1744e-09
-1.19745e-06
2.4531e-07
-2.4714e-07
-8.81643e-07
2.4155e-07
8.80819e-07
-2.4539e-07
1.22726e-06
0.00108081
8.40434e-11
-0.00108081
3.30009e-09
-1.22562e-06
2.47913e-07
-2.49777e-07
-8.8165e-07
2.41451e-07
-2.45362e-07
8.80748e-07
-2.23767e-07
-2.31132e-07
0.000263881
-1.19375e-06
0.000265847
-0.00026388
2.25944e-07
2.33306e-07
-2.28232e-09
2.06606e-09
0.00108185
-2.46525e-07
1.19447e-06
2.46045e-07
8.81797e-07
-2.47247e-07
2.45278e-07
-8.80927e-07
-1.64464e-11
-0.00108134
3.1639e-09
-1.19207e-06
2.45322e-07
-2.47128e-07
-8.81474e-07
2.44206e-07
8.80698e-07
-2.4806e-07
1.19386e-06
0.00108185
-1.19528e-11
-0.00108185
3.15414e-09
-1.19219e-06
2.4538e-07
-2.47187e-07
-8.81742e-07
2.44297e-07
-2.48139e-07
8.80947e-07
-0.000263893
2.2826e-07
2.33541e-07
1.23095e-06
1.19486e-06
-2.24376e-07
-2.32108e-07
0.000263899
-1.23301e-06
-1.19693e-06
0.00026587
-0.0002639
2.26273e-07
2.34037e-07
3.17082e-09
0.0010809
-2.52572e-07
1.23266e-06
2.50732e-07
8.80787e-07
-2.45524e-07
-8.81665e-07
2.41426e-07
-1.23638e-06
5.84405e-11
3.17591e-09
0.00108134
-2.55343e-07
1.2381e-06
2.53526e-07
8.86366e-07
-2.48354e-07
-8.87256e-07
2.44215e-07
0.00108091
-1.31772e-09
-0.00108091
2.5616e-09
-1.23058e-06
2.51145e-07
-2.5213e-07
-8.81161e-07
2.42021e-07
-2.4498e-07
8.81283e-07
1.23845e-06
0.00108134
-1.29177e-09
-0.00108134
2.54673e-09
-1.23601e-06
2.53939e-07
-2.54904e-07
-8.86752e-07
2.44811e-07
-2.47811e-07
8.86855e-07
-2.27097e-07
-2.29396e-07
0.00026392
-1.19958e-06
0.000265899
-0.000263921
2.29047e-07
2.31328e-07
3.02577e-09
0.00108195
-2.49941e-07
1.19658e-06
2.48186e-07
8.83639e-07
-2.48326e-07
-8.84412e-07
2.44274e-07
-1.23102e-06
7.46731e-11
3.20417e-09
0.00108101
-2.5534e-07
1.23271e-06
2.53496e-07
8.83491e-07
-2.48284e-07
-8.84403e-07
2.44188e-07
0.00108195
-1.41105e-09
-0.00108195
2.39807e-09
-1.19448e-06
2.48604e-07
-2.49495e-07
-8.83909e-07
2.44864e-07
-2.47783e-07
8.84126e-07
1.23306e-06
0.00108102
-1.26174e-09
-0.00108102
2.57392e-09
-1.23064e-06
2.53912e-07
-2.54899e-07
-8.83905e-07
2.44779e-07
-2.47752e-07
8.83981e-07
5.06897e-11
3.17437e-09
0.00108081
-2.4979e-07
1.22733e-06
2.47994e-07
8.80804e-07
-2.45528e-07
2.4142e-07
-8.81709e-07
-1.41815e-09
-0.00108169
2.41337e-09
-1.19709e-06
2.4581e-07
-2.46711e-07
-8.81201e-07
2.42112e-07
8.81366e-07
-2.45019e-07
1.22767e-06
0.00108081
-1.27435e-09
-0.00108081
2.58516e-09
-1.22527e-06
2.48395e-07
-2.49361e-07
-8.81206e-07
2.42012e-07
-2.44986e-07
8.81292e-07
-2.2455e-07
-2.31921e-07
0.000263881
-1.19417e-06
0.000265849
-0.000263882
2.26464e-07
2.33828e-07
-4.08114e-11
3.0235e-09
0.00108185
-2.47201e-07
1.19393e-06
2.45464e-07
8.80997e-07
-2.48315e-07
2.4426e-07
-8.81814e-07
-1.39564e-09
-0.00108135
2.42192e-09
-1.19172e-06
2.45818e-07
-2.46706e-07
-8.81032e-07
2.44768e-07
8.81246e-07
-2.47692e-07
1.19428e-06
0.00108186
-1.37983e-09
-0.00108186
2.42325e-09
-1.19183e-06
2.45869e-07
-2.46765e-07
-8.81306e-07
2.44856e-07
-2.47771e-07
8.81493e-07
-0.000263895
2.2878e-07
2.34053e-07
1.23055e-06
1.19445e-06
-2.23826e-07
-2.31564e-07
0.0002639
-1.23298e-06
-1.19691e-06
0.00026587
-0.0002639
2.26261e-07
2.34017e-07
2.53789e-09
0.00108091
-2.52097e-07
1.23301e-06
2.51151e-07
8.81313e-07
-2.44869e-07
-8.81101e-07
2.42095e-07
-1.23597e-06
-1.44919e-09
2.50673e-09
0.00108134
-2.54865e-07
1.23846e-06
2.53951e-07
8.86891e-07
-2.47692e-07
-8.86688e-07
2.44894e-07
0.00108091
-1.46756e-09
-0.00108091
2.62352e-09
-1.23058e-06
2.51102e-07
-2.52139e-07
-8.81089e-07
2.42117e-07
-2.44813e-07
8.8131e-07
1.23844e-06
0.00108134
-1.53005e-09
-0.00108134
2.49835e-09
-1.23598e-06
2.53938e-07
-2.5487e-07
-8.86656e-07
2.44959e-07
-2.47591e-07
8.86907e-07
-2.26547e-07
-2.28852e-07
0.000263921
-1.19959e-06
0.000265899
-0.000263921
2.29095e-07
2.3132e-07
2.37088e-09
0.00108195
-2.49459e-07
1.19694e-06
2.48614e-07
8.84153e-07
-2.47676e-07
-8.83854e-07
2.44934e-07
-1.23061e-06
-1.40847e-09
2.54628e-09
0.00108102
-2.54865e-07
1.23307e-06
2.5392e-07
8.84017e-07
-2.47632e-07
-8.83838e-07
2.44861e-07
0.00108195
-1.51809e-09
-0.00108195
2.42224e-09
-1.19448e-06
2.4857e-07
-2.49494e-07
-8.83851e-07
2.44952e-07
-2.47628e-07
8.84144e-07
1.23304e-06
0.00108102
-1.39287e-09
-0.00108102
2.59956e-09
-1.23064e-06
2.53878e-07
-2.549e-07
-8.83841e-07
2.44872e-07
-2.47585e-07
8.84e-07
-1.41242e-09
2.56397e-09
0.00108081
-2.49329e-07
1.22768e-06
2.48401e-07
8.81322e-07
-2.44876e-07
2.42086e-07
-8.81148e-07
-1.57171e-09
-0.00108169
2.36735e-09
-1.19705e-06
2.45819e-07
-2.4667e-07
-8.8114e-07
2.42202e-07
8.81383e-07
-2.44855e-07
1.22765e-06
0.00108081
-1.41203e-09
-0.00108081
2.62794e-09
-1.22526e-06
2.48361e-07
-2.49363e-07
-8.81145e-07
2.42106e-07
-2.44824e-07
8.81313e-07
-2.24002e-07
-2.31377e-07
0.000263882
-1.19415e-06
0.000265849
-0.000263882
2.2645e-07
2.33816e-07
-1.52079e-09
2.39637e-09
0.00108186
-2.46734e-07
1.19428e-06
2.45874e-07
8.81527e-07
-2.47658e-07
2.44932e-07
-8.81241e-07
-1.53458e-09
-0.00108135
2.45072e-09
-1.19171e-06
2.45785e-07
-2.46704e-07
-8.8097e-07
2.44862e-07
8.81267e-07
-2.47529e-07
1.19425e-06
0.00108186
-1.50785e-09
-0.00108186
2.44736e-09
-1.19183e-06
2.45835e-07
-2.46768e-07
-8.81242e-07
2.4495e-07
-2.47607e-07
8.81512e-07
-0.000263895
2.28767e-07
2.34041e-07
1.23059e-06
1.19448e-06
-2.23857e-07
-2.31599e-07
0.0002639
-1.23298e-06
-1.1969e-06
0.00026587
-0.0002639
2.26248e-07
2.34013e-07
2.63673e-09
0.00108091
-2.52146e-07
1.23297e-06
2.51096e-07
8.81295e-07
-2.44824e-07
-8.81105e-07
2.42106e-07
-1.23599e-06
-1.48966e-09
2.51374e-09
0.00108134
-2.54879e-07
1.23843e-06
2.53922e-07
8.86893e-07
-2.47607e-07
-8.86667e-07
2.44929e-07
0.00108091
-1.3992e-09
-0.00108091
2.61726e-09
-1.23059e-06
2.51098e-07
-2.52151e-07
-8.81114e-07
2.42101e-07
-2.44832e-07
8.81291e-07
1.23842e-06
0.00108134
-1.34963e-09
-0.00108134
2.60778e-09
-1.23601e-06
2.53893e-07
-2.54926e-07
-8.86716e-07
2.44891e-07
-2.4767e-07
8.8686e-07
-2.26521e-07
-2.2888e-07
0.000263921
-1.19954e-06
0.000265899
-0.000263921
2.29023e-07
2.31308e-07
2.44302e-09
0.00108195
-2.49503e-07
1.1969e-06
2.48562e-07
8.84135e-07
-2.47636e-07
-8.83862e-07
2.44943e-07
-1.23064e-06
-1.36614e-09
2.62363e-09
0.00108102
-2.54908e-07
1.23303e-06
2.5387e-07
8.83994e-07
-2.47591e-07
-8.83849e-07
2.44867e-07
0.00108195
-1.48692e-09
-0.00108195
2.45821e-09
-1.19449e-06
2.48557e-07
-2.49513e-07
-8.83865e-07
2.44943e-07
-2.47641e-07
8.84136e-07
1.23303e-06
0.00108102
-1.34105e-09
-0.00108102
2.62826e-09
-1.23065e-06
2.53866e-07
-2.54917e-07
-8.83859e-07
2.44859e-07
-2.47602e-07
8.83987e-07
-1.38784e-09
2.64333e-09
0.00108081
-2.49372e-07
1.22764e-06
2.48352e-07
8.81305e-07
-2.4483e-07
2.42099e-07
-8.81153e-07
-1.4992e-09
-0.00108169
2.47997e-09
-1.1971e-06
2.45762e-07
-2.46733e-07
-8.81156e-07
2.42191e-07
8.81377e-07
-2.44875e-07
1.22764e-06
0.00108081
-1.35314e-09
-0.00108081
2.6352e-09
-1.22528e-06
2.48352e-07
-2.49377e-07
-8.81163e-07
2.42093e-07
-2.44839e-07
8.81299e-07
-2.24036e-07
-2.31406e-07
0.000263882
-1.19414e-06
0.000265849
-0.000263882
2.26439e-07
2.33806e-07
-1.48155e-09
2.46334e-09
0.00108186
-2.46776e-07
1.19425e-06
2.45827e-07
8.81505e-07
-2.47614e-07
2.44942e-07
-8.81251e-07
-1.491e-09
-0.00108135
2.48054e-09
-1.19173e-06
2.45772e-07
-2.46722e-07
-8.80985e-07
2.44851e-07
8.81256e-07
-2.47542e-07
1.19424e-06
0.00108186
-1.45231e-09
-0.00108186
2.47306e-09
-1.19184e-06
2.45823e-07
-2.46784e-07
-8.81261e-07
2.44936e-07
-2.47624e-07
8.81498e-07
-0.000263895
2.28756e-07
2.34032e-07
1.23059e-06
1.19449e-06
-2.23868e-07
-2.31601e-07
0.0002639
-1.23298e-06
-1.1969e-06
0.00026587
-0.0002639
2.26245e-07
2.34014e-07
2.61181e-09
0.00108091
-2.52147e-07
1.23298e-06
2.51099e-07
8.81283e-07
-2.44836e-07
-8.81122e-07
2.42098e-07
-1.23601e-06
-1.34085e-09
2.60612e-09
0.00108134
-2.54921e-07
1.23842e-06
2.53893e-07
8.86861e-07
-2.47662e-07
-8.86711e-07
2.44893e-07
0.00108091
-1.40092e-09
-0.00108091
2.61504e-09
-1.23059e-06
2.51099e-07
-2.52148e-07
-8.81114e-07
2.42101e-07
-2.44833e-07
8.81291e-07
1.23841e-06
0.00108134
-1.30966e-09
-0.00108134
2.6039e-09
-1.23601e-06
2.53888e-07
-2.54926e-07
-8.86718e-07
2.44881e-07
-2.47675e-07
8.86853e-07
-2.26588e-07
-2.2889e-07
0.000263921
-1.19954e-06
0.000265899
-0.000263921
2.2902e-07
2.31305e-07
2.46728e-09
0.00108195
-2.49514e-07
1.1969e-06
2.48555e-07
8.84133e-07
-2.47642e-07
-8.83868e-07
2.44941e-07
-1.23065e-06
-1.34058e-09
2.63579e-09
0.00108102
-2.54915e-07
1.23303e-06
2.53866e-07
8.83988e-07
-2.476e-07
-8.83858e-07
2.44861e-07
0.00108195
-1.49249e-09
-0.00108195
2.46908e-09
-1.1945e-06
2.48554e-07
-2.49516e-07
-8.83863e-07
2.44944e-07
-2.4764e-07
8.84138e-07
1.23303e-06
0.00108102
-1.34286e-09
-0.00108102
2.62703e-09
-1.23065e-06
2.53865e-07
-2.54917e-07
-8.83858e-07
2.44859e-07
-2.47601e-07
8.83988e-07
-1.34702e-09
2.63255e-09
0.00108081
-2.49376e-07
1.22764e-06
2.48351e-07
8.81297e-07
-2.4484e-07
2.42091e-07
-8.81165e-07
-1.49284e-09
-0.00108169
2.48103e-09
-1.1971e-06
2.4576e-07
-2.46732e-07
-8.81154e-07
2.42191e-07
8.81376e-07
-2.44873e-07
1.22765e-06
0.00108081
-1.35304e-09
-0.00108081
2.61873e-09
-1.22527e-06
2.4836e-07
-2.4937e-07
-8.81166e-07
2.42089e-07
-2.44844e-07
8.81296e-07
-2.24044e-07
-2.31413e-07
0.000263882
-1.19414e-06
0.000265849
-0.000263882
2.2644e-07
2.33807e-07
-1.43191e-09
2.47137e-09
0.00108186
-2.46785e-07
1.19424e-06
2.4582e-07
8.81495e-07
-2.47627e-07
2.44932e-07
-8.81264e-07
-1.51408e-09
-0.00108135
2.4787e-09
-1.19172e-06
2.45774e-07
-2.46721e-07
-8.8098e-07
2.44855e-07
8.8126e-07
-2.47538e-07
1.19424e-06
0.00108186
-1.36062e-09
-0.00108186
2.4538e-09
-1.19185e-06
2.45819e-07
-2.46788e-07
-8.81271e-07
2.44923e-07
-2.47636e-07
8.81487e-07
-0.000263895
2.28753e-07
2.34037e-07
1.23059e-06
1.1945e-06
-2.2387e-07
-2.316e-07
0.0002639
-1.23298e-06
-1.19689e-06
0.00026587
-0.0002639
2.26243e-07
2.34013e-07
2.61416e-09
0.00108091
-2.52147e-07
1.23298e-06
2.51099e-07
8.81282e-07
-2.44837e-07
-8.81122e-07
2.42096e-07
-1.23601e-06
-1.30465e-09
2.60331e-09
0.00108134
-2.54924e-07
1.23841e-06
2.53889e-07
8.86854e-07
-2.47672e-07
-8.86718e-07
2.44883e-07
0.00108091
-1.39577e-09
-0.00108091
2.61641e-09
-1.23059e-06
2.51098e-07
-2.52149e-07
-8.81115e-07
2.421e-07
-2.44834e-07
8.8129e-07
1.23841e-06
0.00108134
-1.29237e-09
-0.00108134
2.60606e-09
-1.23602e-06
2.53888e-07
-2.54926e-07
-8.8672e-07
2.44878e-07
-2.47678e-07
8.86851e-07
-2.26592e-07
-2.28892e-07
0.000263921
-1.19954e-06
0.000265899
-0.000263921
2.29021e-07
2.31304e-07
2.47696e-09
0.00108195
-2.49517e-07
1.19689e-06
2.48552e-07
8.84133e-07
-2.47642e-07
-8.83868e-07
2.44941e-07
-1.23065e-06
-1.33904e-09
2.63614e-09
0.00108102
-2.54916e-07
1.23303e-06
2.53864e-07
8.83989e-07
-2.47599e-07
-8.83857e-07
2.44862e-07
0.00108195
-1.48368e-09
-0.00108195
2.47695e-09
-1.1945e-06
2.48551e-07
-2.49519e-07
-8.83865e-07
2.44943e-07
-2.47641e-07
8.84136e-07
1.23303e-06
0.00108102
-1.33046e-09
-0.00108102
2.63332e-09
-1.23066e-06
2.53862e-07
-2.54921e-07
-8.8386e-07
2.44857e-07
-2.47603e-07
8.83986e-07
-1.35244e-09
2.61858e-09
0.00108081
-2.49368e-07
1.22765e-06
2.48359e-07
8.81293e-07
-2.44845e-07
2.42086e-07
-8.81169e-07
-1.4874e-09
-0.00108169
2.47848e-09
-1.1971e-06
2.45762e-07
-2.46731e-07
-8.81155e-07
2.42191e-07
8.81375e-07
-2.44874e-07
1.22765e-06
0.00108081
-1.35232e-09
-0.00108081
2.61387e-09
-1.22527e-06
2.48362e-07
-2.49367e-07
-8.81168e-07
2.42089e-07
-2.44844e-07
8.81294e-07
-2.24043e-07
-2.31412e-07
0.000263882
-1.19414e-06
0.000265849
-0.000263882
2.26438e-07
2.33803e-07
-1.3414e-09
2.45418e-09
0.00108186
-2.46789e-07
1.19423e-06
2.45816e-07
8.81482e-07
-2.47639e-07
2.44919e-07
-8.81275e-07
-1.51515e-09
-0.00108135
2.48473e-09
-1.19173e-06
2.45772e-07
-2.46723e-07
-8.8098e-07
2.44855e-07
8.8126e-07
-2.47538e-07
1.19423e-06
0.00108186
-1.34526e-09
-0.00108186
2.45865e-09
-1.19185e-06
2.45817e-07
-2.4679e-07
-8.81276e-07
2.44918e-07
-2.47642e-07
8.81482e-07
-0.000263895
2.28752e-07
2.34037e-07
1.23059e-06
1.1945e-06
-2.23872e-07
-2.31601e-07
0.0002639
-1.23298e-06
-1.19689e-06
0.00026587
-0.0002639
2.26242e-07
2.34013e-07
2.61623e-09
0.00108091
-2.52148e-07
1.23297e-06
2.51098e-07
8.81282e-07
-2.44838e-07
-8.81122e-07
2.42096e-07
-1.23602e-06
-1.28625e-09
2.60975e-09
0.00108134
-2.54926e-07
1.23841e-06
2.53887e-07
8.86849e-07
-2.47677e-07
-8.86721e-07
2.44878e-07
0.00108091
-1.39461e-09