/*--------------------------------*- C++ -*----------------------------------*\
| =========                 |                                                 |
| \\      /  F ield         | OpenFOAM: The Open Source CFD Toolbox           |
|  \\    /   O peration     | Version:  2206                                  |
|   \\  /    A nd           | Website:  www.openfoam.com                      |
|    \\/     M anipulation  |                                                 |
\*---------------------------------------------------------------------------*/
FoamFile
{
    version     2.0;
    format      ascii;
    arch        "LSB;label=32;scalar=64";
    class       volVectorField;
    location    "27";
    object      U;
}
// * * * * * * * * * * * * * * * * * * * * * * * * * * * * * * * * * * * * * //

dimensions      [0 1 -1 0 0 0 0];

internalField   nonuniform List<vector> 
28687
(
(-7.20607e-07 -7.19055e-07 0.10304)
(-4.95164e-07 7.39376e-07 0.102979)
(7.38032e-07 -4.88441e-07 0.102979)
(-4.40039e-05 -4.40202e-05 0.102892)
(-7.24669e-07 -7.24241e-07 0.10304)
(-4.83051e-07 7.31683e-07 0.102979)
(7.33909e-07 -4.78397e-07 0.102979)
(-4.39979e-05 -4.40143e-05 0.102892)
(-7.34209e-07 -7.27595e-07 0.10304)
(-4.65234e-07 7.3146e-07 0.102979)
(7.23159e-07 -4.62841e-07 0.102979)
(-4.39866e-05 -4.40022e-05 0.102892)
(-7.50043e-07 -7.38271e-07 0.10304)
(-4.36391e-07 7.19231e-07 0.102979)
(7.03193e-07 -4.30325e-07 0.102979)
(-4.39759e-05 -4.39912e-05 0.102892)
(-7.60347e-07 -7.45805e-07 0.10304)
(-3.94899e-07 6.77611e-07 0.102979)
(6.84674e-07 -4.08799e-07 0.102979)
(-4.39854e-05 -4.3996e-05 0.102891)
(-6.56254e-07 -6.39174e-07 0.10304)
(-6.16413e-07 8.48378e-07 0.102979)
(8.31052e-07 -6.0943e-07 0.102978)
(-4.41243e-05 -4.41292e-05 0.102891)
(-7.01637e-07 -6.96143e-07 0.10304)
(-4.91214e-07 7.26322e-07 0.102979)
(7.24928e-07 -5.0035e-07 0.102979)
(-4.40351e-05 -4.4057e-05 0.102892)
(-7.2507e-07 -7.19254e-07 0.10304)
(-4.74006e-07 7.25548e-07 0.102979)
(7.26484e-07 -4.73377e-07 0.102979)
(-4.40067e-05 -4.40211e-05 0.102892)
(-7.12665e-07 -7.13646e-07 0.10304)
(-4.8787e-07 7.42772e-07 0.102979)
(7.36316e-07 -4.83935e-07 0.102979)
(-4.40184e-05 -4.40336e-05 0.102892)
(-7.20655e-07 -7.18716e-07 0.10304)
(-4.84889e-07 7.37787e-07 0.102979)
(7.36294e-07 -4.85528e-07 0.102979)
(-4.40189e-05 -4.40344e-05 0.102892)
(-7.22091e-07 -7.18508e-07 0.10304)
(-4.83279e-07 7.36677e-07 0.102979)
(7.35422e-07 -4.85465e-07 0.102979)
(-4.4018e-05 -4.40344e-05 0.102892)
(-7.23156e-07 -7.18754e-07 0.10304)
(-4.82825e-07 7.36401e-07 0.102979)
(7.35157e-07 -4.85641e-07 0.102979)
(-4.40181e-05 -4.40344e-05 0.102892)
(-7.23891e-07 -7.18862e-07 0.10304)
(-4.82287e-07 7.36549e-07 0.102979)
(7.34905e-07 -4.85554e-07 0.102979)
(-4.40185e-05 -4.40345e-05 0.102892)
(-7.24414e-07 -7.18983e-07 0.10304)
(-4.82558e-07 7.36348e-07 0.102979)
(7.35271e-07 -4.85996e-07 0.102979)
(-4.40187e-05 -4.40343e-05 0.102892)
(-7.23791e-07 -7.18331e-07 0.10304)
(-4.83024e-07 7.36845e-07 0.102979)
(7.35855e-07 -4.86501e-07 0.102979)
(-4.40191e-05 -4.40341e-05 0.102892)
(-7.23055e-07 -7.1744e-07 0.10304)
(-4.82876e-07 7.36945e-07 0.102979)
(7.3621e-07 -4.86903e-07 0.102979)
(-4.40188e-05 -4.40341e-05 0.102892)
(-7.22769e-07 -7.16774e-07 0.10304)
(-4.83263e-07 7.37211e-07 0.102979)
(7.36275e-07 -4.87213e-07 0.102979)
(-4.40177e-05 -4.40332e-05 0.102892)
(-7.23288e-07 -7.17054e-07 0.10304)
(-4.82175e-07 7.36804e-07 0.102979)
(7.35408e-07 -4.85825e-07 0.102979)
(-4.40097e-05 -4.40256e-05 0.102892)
(-7.65711e-07 5.19802e-07 0.102979)
(4.60295e-05 -4.60018e-05 0.102896)
(-4.90559e-07 7.39095e-07 0.102979)
(4.40085e-05 4.39891e-05 0.102892)
(-4.60282e-05 -4.60066e-05 0.102896)
(7.63211e-07 5.06435e-07 0.102979)
(-7.65758e-07 5.26343e-07 0.102979)
(7.59583e-07 4.92277e-07 0.102979)
(-7.57118e-07 5.12481e-07 0.102979)
(-4.40133e-05 4.39844e-05 0.102892)
(4.60311e-05 -4.60081e-05 0.102896)
(4.89615e-07 7.43836e-07 0.102979)
(5.09694e-07 -7.63013e-07 0.102979)
(4.78772e-07 7.36676e-07 0.102979)
(5.01049e-07 -7.59293e-07 0.102979)
(-5.10071e-07 -7.57845e-07 0.102979)
(-4.83365e-07 7.30943e-07 0.102979)
(-5.01969e-07 -7.53955e-07 0.102979)
(4.39923e-05 -4.40257e-05 0.102892)
(-4.60012e-05 4.6036e-05 0.102896)
(-7.34349e-07 -4.86677e-07 0.102979)
(7.33046e-07 -4.76724e-07 0.102979)
(-7.30229e-07 -4.79437e-07 0.102979)
(4.60045e-05 4.60232e-05 0.102896)
(4.40031e-05 4.39853e-05 0.102892)
(-4.60355e-05 -4.60143e-05 0.102896)
(7.60551e-07 4.9736e-07 0.102979)
(-7.57244e-07 5.11737e-07 0.102979)
(7.51499e-07 4.84884e-07 0.102979)
(-7.50295e-07 4.92608e-07 0.102979)
(-4.4006e-05 4.3974e-05 0.102892)
(4.60462e-05 -4.6018e-05 0.102896)
(4.81133e-07 7.40948e-07 0.102979)
(5.0133e-07 -7.59437e-07 0.102979)
(4.6692e-07 7.34085e-07 0.102979)
(4.87861e-07 -7.51606e-07 0.102979)
(-4.99981e-07 -7.5278e-07 0.102979)
(-4.63585e-07 7.25904e-07 0.102979)
(-4.88925e-07 -7.46698e-07 0.102979)
(4.39871e-05 -4.40198e-05 0.102892)
(-4.60138e-05 4.60468e-05 0.102896)
(-7.29438e-07 -4.77636e-07 0.102979)
(7.2577e-07 -4.64412e-07 0.102979)
(-7.24696e-07 -4.64359e-07 0.102979)
(4.60158e-05 4.60353e-05 0.102896)
(4.39933e-05 4.39788e-05 0.102892)
(-4.60534e-05 -4.60313e-05 0.102896)
(7.46939e-07 4.85402e-07 0.102979)
(-7.56536e-07 4.99163e-07 0.102979)
(7.39989e-07 4.64493e-07 0.102979)
(-7.41184e-07 4.73335e-07 0.102979)
(-4.39934e-05 4.39672e-05 0.102892)
(4.60652e-05 -4.60204e-05 0.102896)
(4.65212e-07 7.307e-07 0.102979)
(4.83128e-07 -7.48801e-07 0.102979)
(4.45612e-07 7.24456e-07 0.102979)
(4.68745e-07 -7.43093e-07 0.102979)
(-4.83614e-07 -7.42694e-07 0.102979)
(-4.33828e-07 7.16088e-07 0.102979)
(-4.66944e-07 -7.38099e-07 0.102979)
(4.39735e-05 -4.40089e-05 0.102892)
(-4.6027e-05 4.60632e-05 0.102896)
(-7.20993e-07 -4.58665e-07 0.102979)
(7.17937e-07 -4.43199e-07 0.102979)
(-7.16489e-07 -4.42442e-07 0.102979)
(4.6032e-05 4.60517e-05 0.102896)
(4.39807e-05 4.39669e-05 0.102892)
(-4.60533e-05 -4.60274e-05 0.102895)
(7.2479e-07 4.55486e-07 0.102979)
(-7.46458e-07 4.8077e-07 0.102979)
(7.51699e-07 4.75177e-07 0.102979)
(-7.22776e-07 4.43107e-07 0.102979)
(-4.3971e-05 4.39625e-05 0.102892)
(4.60834e-05 -4.60544e-05 0.102896)
(4.32612e-07 7.10691e-07 0.102979)
(4.53306e-07 -7.27754e-07 0.102979)
(4.58294e-07 7.38269e-07 0.102979)
(4.79573e-07 -7.5333e-07 0.102979)
(-4.52057e-07 -7.22698e-07 0.102979)
(-4.27096e-07 7.009e-07 0.102979)
(-4.80361e-07 -7.48768e-07 0.102979)
(4.39655e-05 -4.3997e-05 0.102892)
(-4.6028e-05 4.60636e-05 0.102895)
(-7.01412e-07 -4.25821e-07 0.102979)
(7.2874e-07 -4.5573e-07 0.102979)
(-7.30363e-07 -4.53179e-07 0.102979)
(4.60291e-05 4.60531e-05 0.102895)
(4.3986e-05 4.39763e-05 0.102891)
(-4.60064e-05 -4.59675e-05 0.102895)
(7.04825e-07 4.3668e-07 0.102979)
(-6.99902e-07 4.243e-07 0.102979)
(7.9704e-07 5.67165e-07 0.102978)
(-8.71544e-07 6.13823e-07 0.102978)
(-4.39523e-05 4.39284e-05 0.102891)
(4.5927e-05 -4.58822e-05 0.102895)
(4.09508e-07 6.96152e-07 0.102979)
(4.30189e-07 -7.08669e-07 0.102979)
(5.31222e-07 8.04428e-07 0.102978)
(5.58353e-07 -8.12611e-07 0.102978)
(-4.32377e-07 -7.02772e-07 0.102979)
(-5.7245e-07 8.5763e-07 0.102978)
(-5.6709e-07 -7.97311e-07 0.102978)
(4.39703e-05 -4.40034e-05 0.102891)
(-4.59741e-05 4.601e-05 0.102895)
(-6.87232e-07 -4.02343e-07 0.102979)
(7.89278e-07 -5.33099e-07 0.102978)
(-7.94497e-07 -5.26218e-07 0.102978)
(4.59714e-05 4.60046e-05 0.102895)
(4.4119e-05 4.41145e-05 0.102891)
(-4.59964e-05 -4.597e-05 0.102896)
(8.41693e-07 6.38596e-07 0.102978)
(-8.65672e-07 6.41038e-07 0.102978)
(7.81335e-07 5.64171e-07 0.102979)
(-7.49509e-07 5.47809e-07 0.102979)
(-4.41783e-05 4.417e-05 0.102891)
(4.60424e-05 -4.60165e-05 0.102896)
(6.095e-07 8.42964e-07 0.102978)
(6.31672e-07 -8.53387e-07 0.102978)
(5.45108e-07 7.58343e-07 0.102979)
(5.67297e-07 -7.7017e-07 0.102979)
(-6.3541e-07 -8.41013e-07 0.102978)
(-5.22151e-07 7.25508e-07 0.102979)
(-5.59285e-07 -7.71667e-07 0.102979)
(4.4107e-05 -4.4141e-05 0.102891)
(-4.59739e-05 4.60148e-05 0.102896)
(-8.31982e-07 -6.00957e-07 0.102978)
(7.48115e-07 -5.38501e-07 0.102979)
(-7.42319e-07 -5.39504e-07 0.102979)
(4.59849e-05 4.59978e-05 0.102896)
(4.40521e-05 4.40415e-05 0.102892)
(-4.60618e-05 -4.60263e-05 0.102896)
(7.5846e-07 5.3441e-07 0.102979)
(-7.44066e-07 5.28432e-07 0.102979)
(7.48579e-07 4.95545e-07 0.102979)
(-7.48978e-07 5.07421e-07 0.102979)
(-4.40246e-05 4.4005e-05 0.102892)
(4.60667e-05 -4.60265e-05 0.102896)
(5.07401e-07 7.38434e-07 0.102979)
(5.24994e-07 -7.45526e-07 0.102979)
(4.73712e-07 7.33751e-07 0.102979)
(4.9373e-07 -7.41545e-07 0.102979)
(-5.193e-07 -7.47068e-07 0.102979)
(-4.71763e-07 7.31906e-07 0.102979)
(-4.98088e-07 -7.39711e-07 0.102979)
(4.40306e-05 -4.40581e-05 0.102892)
(-4.60368e-05 4.60728e-05 0.102896)
(-7.18015e-07 -4.99555e-07 0.102979)
(7.19924e-07 -4.67307e-07 0.102979)
(-7.15976e-07 -4.74953e-07 0.102979)
(4.60384e-05 4.60588e-05 0.102896)
(4.40164e-05 4.40039e-05 0.102892)
(-4.60538e-05 -4.60151e-05 0.102896)
(7.52593e-07 4.98393e-07 0.102979)
(-7.42864e-07 4.99932e-07 0.102979)
(7.62655e-07 5.17327e-07 0.102979)
(-7.62417e-07 5.16691e-07 0.102979)
(-4.40017e-05 4.3986e-05 0.102892)
(4.60445e-05 -4.60226e-05 0.102896)
(4.80748e-07 7.36401e-07 0.102979)
(4.97068e-07 -7.47497e-07 0.102979)
(4.89635e-07 7.39078e-07 0.102979)
(5.06173e-07 -7.56865e-07 0.102979)
(-5.01657e-07 -7.44255e-07 0.102979)
(-4.85892e-07 7.40743e-07 0.102979)
(-5.0447e-07 -7.53499e-07 0.102979)
(4.39944e-05 -4.40261e-05 0.102892)
(-4.60213e-05 4.60578e-05 0.102896)
(-7.21156e-07 -4.78643e-07 0.102979)
(7.34471e-07 -4.79388e-07 0.102979)
(-7.30748e-07 -4.80726e-07 0.102979)
(4.60249e-05 4.60448e-05 0.102896)
(4.40245e-05 4.40109e-05 0.102892)
(-4.60501e-05 -4.60157e-05 0.102896)
(7.65676e-07 5.16362e-07 0.102979)
(-7.61758e-07 5.0993e-07 0.102979)
(7.58705e-07 5.05779e-07 0.102979)
(-7.61238e-07 5.1046e-07 0.102979)
(-4.40277e-05 4.39996e-05 0.102892)
(4.6055e-05 -4.60237e-05 0.102896)
(4.92829e-07 7.40986e-07 0.102979)
(5.07183e-07 -7.58199e-07 0.102979)
(4.86653e-07 7.4057e-07 0.102979)
(5.07416e-07 -7.59452e-07 0.102979)
(-5.04682e-07 -7.53965e-07 0.102979)
(-4.83516e-07 7.37102e-07 0.102979)
(-5.06465e-07 -7.54928e-07 0.102979)
(4.40073e-05 -4.40389e-05 0.102892)
(-4.60199e-05 4.60557e-05 0.102896)
(-7.31759e-07 -4.80594e-07 0.102979)
(7.35192e-07 -4.82201e-07 0.102979)
(-7.33035e-07 -4.82052e-07 0.102979)
(4.60233e-05 4.60431e-05 0.102896)
(4.40287e-05 4.40056e-05 0.102892)
(-4.60496e-05 -4.60179e-05 0.102896)
(7.58861e-07 5.0301e-07 0.102979)
(-7.63263e-07 5.10897e-07 0.102979)
(7.60158e-07 5.05958e-07 0.102979)
(-7.63751e-07 5.10107e-07 0.102979)
(-4.40184e-05 4.39999e-05 0.102892)
(4.60512e-05 -4.6024e-05 0.102896)
(4.88588e-07 7.40005e-07 0.102979)
(5.07221e-07 -7.60217e-07 0.102979)
(4.84901e-07 7.38741e-07 0.102979)
(5.06856e-07 -7.59618e-07 0.102979)
(-5.05705e-07 -7.55135e-07 0.102979)
(-4.82419e-07 7.36837e-07 0.102979)
(-5.05742e-07 -7.55759e-07 0.102979)
(4.40078e-05 -4.40401e-05 0.102892)
(-4.60204e-05 4.60556e-05 0.102896)
(-7.33034e-07 -4.81331e-07 0.102979)
(7.34571e-07 -4.82493e-07 0.102979)
(-7.33066e-07 -4.81078e-07 0.102979)
(4.60244e-05 4.60429e-05 0.102896)
(4.40295e-05 4.40046e-05 0.102892)
(-4.60502e-05 -4.60191e-05 0.102896)
(7.59609e-07 5.01824e-07 0.102979)
(-7.64066e-07 5.09719e-07 0.102979)
(7.59783e-07 5.04809e-07 0.102979)
(-7.64476e-07 5.10908e-07 0.102979)
(-4.40215e-05 4.39988e-05 0.102892)
(4.60505e-05 -4.60237e-05 0.102896)
(4.87812e-07 7.38453e-07 0.102979)
(5.06636e-07 -7.59789e-07 0.102979)
(4.83759e-07 7.37031e-07 0.102979)
(5.06472e-07 -7.59373e-07 0.102979)
(-5.04952e-07 -7.55345e-07 0.102979)
(-4.81784e-07 7.36471e-07 0.102979)
(-5.05718e-07 -7.55596e-07 0.102979)
(4.40073e-05 -4.404e-05 0.102892)
(-4.60206e-05 4.60558e-05 0.102896)
(-7.32798e-07 -4.80042e-07 0.102979)
(7.34023e-07 -4.82493e-07 0.102979)
(-7.32784e-07 -4.79568e-07 0.102979)
(4.60243e-05 4.60431e-05 0.102896)
(4.40291e-05 4.40038e-05 0.102892)
(-4.60506e-05 -4.60189e-05 0.102896)
(7.60306e-07 5.02733e-07 0.102979)
(-7.64674e-07 5.09946e-07 0.102979)
(7.60168e-07 5.05224e-07 0.102979)
(-7.65403e-07 5.11396e-07 0.102979)
(-4.40218e-05 4.3999e-05 0.102892)
(4.60502e-05 -4.60226e-05 0.102896)
(4.87451e-07 7.37937e-07 0.102979)
(5.06421e-07 -7.59776e-07 0.102979)
(4.83296e-07 7.36814e-07 0.102979)
(5.06438e-07 -7.59434e-07 0.102979)
(-5.05116e-07 -7.55486e-07 0.102979)
(-4.81372e-07 7.36793e-07 0.102979)
(-5.05115e-07 -7.55473e-07 0.102979)
(4.40071e-05 -4.40399e-05 0.102892)
(-4.60208e-05 4.60559e-05 0.102896)
(-7.32945e-07 -4.80656e-07 0.102979)
(7.33945e-07 -4.82675e-07 0.102979)
(-7.32989e-07 -4.81726e-07 0.102979)
(4.60241e-05 4.60432e-05 0.102896)
(4.40289e-05 4.4004e-05 0.102892)
(-4.60506e-05 -4.6019e-05 0.102896)
(7.60222e-07 5.02414e-07 0.102979)
(-7.65249e-07 5.10397e-07 0.102979)
(7.59556e-07 5.04654e-07 0.102979)
(-7.65342e-07 5.11359e-07 0.102979)
(-4.40222e-05 4.40002e-05 0.102892)
(4.60496e-05 -4.60222e-05 0.102896)
(4.8669e-07 7.37205e-07 0.102979)
(5.06102e-07 -7.59622e-07 0.102979)
(4.8286e-07 7.35818e-07 0.102979)
(5.06195e-07 -7.595e-07 0.102979)
(-5.04384e-07 -7.55211e-07 0.102979)
(-4.81285e-07 7.36494e-07 0.102979)
(-5.04838e-07 -7.55466e-07 0.102979)
(4.40071e-05 -4.40399e-05 0.102892)
(-4.60202e-05 4.60552e-05 0.102896)
(-7.32826e-07 -4.81452e-07 0.102979)
(7.3384e-07 -4.82667e-07 0.102979)
(-7.33069e-07 -4.82094e-07 0.102979)
(4.60233e-05 4.60422e-05 0.102896)
(4.40279e-05 4.40028e-05 0.102892)
(-4.60497e-05 -4.60183e-05 0.102896)
(7.60031e-07 5.02377e-07 0.102979)
(-7.65606e-07 5.10753e-07 0.102979)
(7.60424e-07 5.05313e-07 0.102979)
(-7.65802e-07 5.11906e-07 0.102979)
(-4.40216e-05 4.39993e-05 0.102892)
(4.60502e-05 -4.60224e-05 0.102896)
(4.868e-07 7.36584e-07 0.102979)
(5.06377e-07 -7.60097e-07 0.102979)
(4.83603e-07 7.36107e-07 0.102979)
(5.06675e-07 -7.59927e-07 0.102979)
(-5.04465e-07 -7.55291e-07 0.102979)
(-4.82127e-07 7.37123e-07 0.102979)
(-5.05425e-07 -7.55947e-07 0.102979)
(4.40067e-05 -4.40397e-05 0.102892)
(-4.60194e-05 4.60544e-05 0.102896)
(-7.33198e-07 -4.82224e-07 0.102979)
(7.3455e-07 -4.83297e-07 0.102979)
(-7.33633e-07 -4.83086e-07 0.102979)
(4.60227e-05 4.60415e-05 0.102896)
(4.40278e-05 4.40027e-05 0.102892)
(-4.6049e-05 -4.60168e-05 0.102896)
(7.60913e-07 5.02774e-07 0.102979)
(-7.65916e-07 5.11104e-07 0.102979)
(7.61533e-07 5.05914e-07 0.102979)
(-7.65258e-07 5.11848e-07 0.102979)
(-4.4023e-05 4.40004e-05 0.102892)
(4.60496e-05 -4.60219e-05 0.102896)
(4.87436e-07 7.36933e-07 0.102979)
(5.06835e-07 -7.60384e-07 0.102979)
(4.83637e-07 7.3665e-07 0.102979)
(5.06881e-07 -7.59664e-07 0.102979)
(-5.04918e-07 -7.55888e-07 0.102979)
(-4.81788e-07 7.37086e-07 0.102979)
(-5.05062e-07 -7.55707e-07 0.102979)
(4.40065e-05 -4.40394e-05 0.102892)
(-4.60189e-05 4.60543e-05 0.102896)
(-7.33622e-07 -4.83106e-07 0.102979)
(7.34705e-07 -4.83192e-07 0.102979)
(-7.33354e-07 -4.82986e-07 0.102979)
(4.60223e-05 4.60416e-05 0.102896)
(4.40285e-05 4.40044e-05 0.102892)
(-4.60479e-05 -4.60148e-05 0.102896)
(7.62312e-07 5.04375e-07 0.102979)
(-7.65761e-07 5.11603e-07 0.102979)
(7.61849e-07 5.06972e-07 0.102979)
(-7.65264e-07 5.12746e-07 0.102979)
(-4.40224e-05 4.40002e-05 0.102892)
(4.60479e-05 -4.60199e-05 0.102896)
(4.87864e-07 7.37982e-07 0.102979)
(5.07487e-07 -7.60309e-07 0.102979)
(4.83761e-07 7.37247e-07 0.102979)
(5.07425e-07 -7.59787e-07 0.102979)
(-5.04837e-07 -7.55778e-07 0.102979)
(-4.82669e-07 7.37612e-07 0.102979)
(-5.05873e-07 -7.56114e-07 0.102979)
(4.40069e-05 -4.40394e-05 0.102892)
(-4.60176e-05 4.60532e-05 0.102896)
(-7.33719e-07 -4.83528e-07 0.102979)
(7.34896e-07 -4.83683e-07 0.102979)
(-7.33818e-07 -4.83719e-07 0.102979)
(4.60204e-05 4.60398e-05 0.102896)
(4.4027e-05 4.40036e-05 0.102892)
(-4.60433e-05 -4.60103e-05 0.102896)
(7.62541e-07 5.05042e-07 0.102979)
(-7.66242e-07 5.12373e-07 0.102979)
(7.61559e-07 5.06468e-07 0.102979)
(-7.6386e-07 5.11729e-07 0.102979)
(-4.40213e-05 4.39993e-05 0.102892)
(4.60451e-05 -4.6017e-05 0.102896)
(4.88052e-07 7.38355e-07 0.102979)
(5.07727e-07 -7.60347e-07 0.102979)
(4.83203e-07 7.36825e-07 0.102979)
(5.06342e-07 -7.58959e-07 0.102979)
(-5.05155e-07 -7.56102e-07 0.102979)
(-4.8167e-07 7.36824e-07 0.102979)
(-5.05276e-07 -7.55742e-07 0.102979)
(4.40057e-05 -4.40381e-05 0.102892)
(-4.60136e-05 4.6049e-05 0.102896)
(-7.34087e-07 -4.84179e-07 0.102979)
(7.34129e-07 -4.82932e-07 0.102979)
(-7.33361e-07 -4.83425e-07 0.102979)
(4.60159e-05 4.6035e-05 0.102896)
(4.40194e-05 4.3996e-05 0.102892)
(7.61627e-07 5.03711e-07 0.102979)
(-7.66135e-07 5.11413e-07 0.102979)
(-4.40154e-05 4.39934e-05 0.102892)
(4.86517e-07 7.37523e-07 0.102979)
(5.06284e-07 -7.59601e-07 0.102979)
(-5.03698e-07 -7.5551e-07 0.102979)
(4.39977e-05 -4.40302e-05 0.102892)
(-7.33148e-07 -4.82847e-07 0.102979)
(7.05001e-08 -9.51015e-06 0.100509)
(6.96765e-07 6.85628e-06 0.0929832)
(-8.21915e-08 9.21507e-06 0.100495)
(-1.13387e-06 -6.65774e-06 0.0930023)
(-1.95704e-06 2.85185e-06 0.0807467)
(1.90648e-06 -2.79208e-06 0.0807663)
(-9.57569e-06 6.01856e-08 0.100508)
(6.80113e-06 6.52843e-07 0.0929822)
(9.28789e-06 -6.71319e-08 0.100495)
(-6.59742e-06 -1.09416e-06 0.0930032)
(7.29183e-07 -7.06048e-07 0.10304)
(-7.14319e-07 7.212e-07 0.10304)
(7.17096e-07 7.13186e-07 0.10304)
(-7.23468e-07 -7.23422e-07 0.10304)
(7.3482e-07 -7.14033e-07 0.10304)
(-7.17623e-07 7.25249e-07 0.10304)
(7.21673e-07 7.16854e-07 0.10304)
(1.5427e-05 8.42251e-08 0.102465)
(-1.50397e-05 4.27266e-06 0.100881)
(-6.2798e-07 -1.8768e-07 0.103021)
(-4.93158e-07 7.36251e-07 0.102979)
(-1.55736e-05 -9.89773e-08 0.102459)
(1.43775e-05 -4.67239e-06 0.100902)
(-6.2725e-07 -1.89491e-07 0.103021)
(2.78542e-06 -1.92577e-06 0.0807438)
(-2.6734e-06 1.84552e-06 0.080767)
(9.65745e-08 1.54385e-05 0.102465)
(-1.90054e-07 -6.16844e-07 0.103021)
(4.3145e-06 -1.51026e-05 0.100881)
(7.38458e-07 -4.87559e-07 0.102979)
(-1.03317e-07 -1.55878e-05 0.102459)
(-1.90209e-07 -6.13351e-07 0.103021)
(-4.70745e-06 1.44279e-05 0.100901)
(-4.57931e-06 -5.61402e-06 0.0980979)
(-5.60016e-06 -4.57322e-06 0.0980972)
(4.60014e-05 4.60202e-05 0.102896)
(4.28075e-06 5.4426e-06 0.0981185)
(5.43668e-06 4.27146e-06 0.0981175)
(7.38565e-08 -9.52927e-06 0.100509)
(7.176e-07 6.81029e-06 0.0929834)
(-7.53638e-08 9.18496e-06 0.100495)
(-1.13328e-06 -6.69313e-06 0.0930026)
(-1.94468e-06 2.81748e-06 0.0807467)
(1.91425e-06 -2.81259e-06 0.0807666)
(-9.59188e-06 6.04154e-08 0.100508)
(6.76259e-06 6.66277e-07 0.0929823)
(9.26187e-06 -6.04983e-08 0.100495)
(-6.63822e-06 -1.088e-06 0.0930034)
(7.35466e-07 -7.15942e-07 0.10304)
(-7.18507e-07 7.26098e-07 0.10304)
(7.22499e-07 7.18621e-07 0.10304)
(-7.33652e-07 -7.27231e-07 0.10304)
(7.32472e-07 -7.25346e-07 0.10304)
(-7.25892e-07 7.32153e-07 0.10304)
(7.2608e-07 7.27697e-07 0.10304)
(1.54574e-05 8.52609e-08 0.102465)
(-1.50125e-05 4.24922e-06 0.100881)
(-6.13468e-07 -1.93135e-07 0.103021)
(-4.81486e-07 7.3361e-07 0.102979)
(-1.55389e-05 -1.00847e-07 0.102459)
(1.44047e-05 -4.70401e-06 0.100902)
(-6.08429e-07 -1.93804e-07 0.103021)
(2.70865e-06 -1.89396e-06 0.0807438)
(-2.69971e-06 1.86888e-06 0.0807671)
(9.56629e-08 1.54681e-05 0.102464)
(-1.91957e-07 -6.05414e-07 0.103021)
(4.2954e-06 -1.5074e-05 0.100881)
(7.32605e-07 -4.7615e-07 0.102979)
(-1.02856e-07 -1.55523e-05 0.102459)
(-1.93289e-07 -6.00053e-07 0.103021)
(-4.73991e-06 1.44547e-05 0.100901)
(-4.57415e-06 -5.6037e-06 0.098098)
(-5.58981e-06 -4.56863e-06 0.0980973)
(4.60088e-05 4.60276e-05 0.102896)
(4.27003e-06 5.45481e-06 0.0981186)
(5.44838e-06 4.26218e-06 0.0981176)
(6.26196e-08 -9.55652e-06 0.100509)
(6.91127e-07 6.79233e-06 0.0929837)
(-7.85056e-08 9.17288e-06 0.100495)
(-1.11805e-06 -6.72952e-06 0.093003)
(-1.93847e-06 2.7685e-06 0.0807471)
(1.92814e-06 -2.8316e-06 0.0807674)
(-9.62825e-06 6.03565e-08 0.100508)
(6.73816e-06 6.49736e-07 0.0929827)
(9.24022e-06 -6.50494e-08 0.100495)
(-6.67812e-06 -1.07665e-06 0.0930038)
(7.31156e-07 -7.24275e-07 0.10304)
(-7.26653e-07 7.32013e-07 0.10304)
(7.25797e-07 7.28327e-07 0.10304)
(-7.46834e-07 -7.38445e-07 0.10304)
(7.4345e-07 -7.34813e-07 0.10304)
(-7.38059e-07 7.44616e-07 0.10304)
(7.37848e-07 7.40854e-07 0.10304)
(1.54971e-05 8.44726e-08 0.102465)
(-1.49916e-05 4.22531e-06 0.100881)
(-5.86046e-07 -1.93058e-07 0.103021)
(-4.6789e-07 7.38854e-07 0.102979)
(-1.55156e-05 -1.00684e-07 0.102459)
(1.44476e-05 -4.71247e-06 0.100901)
(-5.86955e-07 -1.94677e-07 0.103021)
(2.67623e-06 -1.85891e-06 0.0807441)
(-2.74083e-06 1.86273e-06 0.0807677)
(9.33203e-08 1.55087e-05 0.102464)
(-1.96099e-07 -5.82664e-07 0.103021)
(4.26532e-06 -1.50441e-05 0.100881)
(7.28559e-07 -4.66824e-07 0.102979)
(-1.05002e-07 -1.55282e-05 0.102458)
(-1.96708e-07 -5.81792e-07 0.103021)
(-4.75564e-06 1.44879e-05 0.100901)
(-4.57654e-06 -5.59944e-06 0.0980981)
(-5.58697e-06 -4.57014e-06 0.0980974)
(4.60223e-05 4.60414e-05 0.102896)
(4.27209e-06 5.45308e-06 0.0981187)
(5.44404e-06 4.26429e-06 0.0981177)
(6.51793e-08 -9.58712e-06 0.100509)
(7.10223e-07 6.76663e-06 0.0929842)
(-8.69467e-08 9.12504e-06 0.100495)
(-1.14923e-06 -6.73791e-06 0.0930035)
(-1.96625e-06 2.81775e-06 0.0807482)
(1.92411e-06 -2.85169e-06 0.0807688)
(-9.65831e-06 5.7824e-08 0.100508)
(6.71656e-06 6.66609e-07 0.0929831)
(9.19724e-06 -6.6098e-08 0.100495)
(-6.68768e-06 -1.10785e-06 0.0930043)
(7.41306e-07 -7.32882e-07 0.10304)
(-7.39774e-07 7.46052e-07 0.10304)
(7.38186e-07 7.43913e-07 0.10304)
(-7.46036e-07 -7.38696e-07 0.10304)
(7.52851e-07 -7.52639e-07 0.10304)
(-7.40383e-07 7.46448e-07 0.10304)
(7.3773e-07 7.41728e-07 0.10304)
(1.55164e-05 8.30986e-08 0.102464)
(-1.49367e-05 4.21136e-06 0.100881)
(-5.54966e-07 -1.9431e-07 0.103021)
(-4.6043e-07 7.39636e-07 0.102979)
(-1.54676e-05 -1.02932e-07 0.102458)
(1.44625e-05 -4.76779e-06 0.100901)
(-5.67943e-07 -1.96512e-07 0.103021)
(2.66279e-06 -1.89623e-06 0.0807451)
(-2.76083e-06 1.93435e-06 0.0807688)
(8.94941e-08 1.55289e-05 0.102464)
(-2.00656e-07 -5.46845e-07 0.103021)
(4.25116e-06 -1.50127e-05 0.100881)
(7.12904e-07 -4.44794e-07 0.102979)
(-1.07912e-07 -1.54835e-05 0.102458)
(-2.04363e-07 -5.54154e-07 0.103021)
(-4.79386e-06 1.45246e-05 0.1009)
(-4.56529e-06 -5.60079e-06 0.0980981)
(-5.59021e-06 -4.55647e-06 0.0980974)
(4.60563e-05 4.6077e-05 0.102896)
(4.28801e-06 5.48456e-06 0.0981187)
(5.47572e-06 4.28292e-06 0.0981176)
(7.63398e-09 -9.56258e-06 0.100509)
(6.99744e-07 6.75227e-06 0.0929848)
(-9.29892e-08 9.08046e-06 0.100495)
(-1.19999e-06 -6.72568e-06 0.0930042)
(-1.79531e-06 2.71924e-06 0.0807492)
(1.8586e-06 -2.82809e-06 0.0807707)
(-9.65446e-06 3.49435e-08 0.100508)
(6.70116e-06 6.7116e-07 0.0929837)
(9.15071e-06 -6.46585e-08 0.100495)
(-6.69439e-06 -1.12957e-06 0.0930049)
(7.60043e-07 -7.55886e-07 0.10304)
(-7.51311e-07 7.57187e-07 0.10304)
(7.45576e-07 7.55433e-07 0.10304)
(-7.12175e-07 -6.83863e-07 0.10304)
(6.52599e-07 -6.41102e-07 0.10304)
(-6.96862e-07 7.03696e-07 0.10304)
(6.86991e-07 7.07651e-07 0.10304)
(1.55209e-05 9.70198e-08 0.102464)
(-1.49082e-05 4.16892e-06 0.100881)
(-5.39554e-07 -2.02239e-07 0.103021)
(-4.14893e-07 7.18398e-07 0.102979)
(-1.5449e-05 -9.70566e-08 0.102458)
(1.44769e-05 -4.74109e-06 0.100901)
(-5.29821e-07 -1.92234e-07 0.103021)
(2.68046e-06 -1.8615e-06 0.0807463)
(-2.78117e-06 1.98722e-06 0.0807703)
(8.53488e-08 1.55446e-05 0.102464)
(-2.04992e-07 -5.3674e-07 0.103021)
(4.23217e-06 -1.49833e-05 0.100881)
(6.67098e-07 -3.86051e-07 0.102979)
(-1.11368e-07 -1.54656e-05 0.102458)
(-2.13134e-07 -5.00611e-07 0.103021)
(-4.82192e-06 1.45537e-05 0.1009)
(-4.55305e-06 -5.55928e-06 0.0980982)
(-5.55384e-06 -4.54189e-06 0.0980975)
(4.61076e-05 4.61364e-05 0.102895)
(4.34017e-06 5.52274e-06 0.0981188)
(5.50331e-06 4.34128e-06 0.0981178)
(6.486e-08 -9.23513e-06 0.100509)
(7.5142e-07 6.89099e-06 0.0929854)
(-8.95117e-08 9.21763e-06 0.100495)
(-1.01603e-06 -6.27418e-06 0.0930045)
(-2.08909e-06 2.90628e-06 0.0807484)
(1.91276e-06 -2.61184e-06 0.0807682)
(-9.29888e-06 5.08234e-08 0.100508)
(6.85012e-06 7.18985e-07 0.0929844)
(9.27721e-06 -1.68466e-08 0.100495)
(-6.24876e-06 -1.00561e-06 0.093005)
(6.22766e-07 -6.18639e-07 0.10304)
(-6.46524e-07 6.53033e-07 0.10304)
(6.41381e-07 6.52705e-07 0.10304)
(-6.693e-07 -6.66291e-07 0.10304)
(6.9807e-07 -6.92898e-07 0.10304)
(-6.66632e-07 6.7523e-07 0.10304)
(6.72439e-07 6.6777e-07 0.10304)
(1.50449e-05 1.17761e-07 0.102464)
(-1.51792e-05 4.42721e-06 0.10088)
(-7.57162e-07 -1.32245e-07 0.103021)
(-6.08089e-07 7.95517e-07 0.102979)
(-1.56589e-05 -3.35749e-08 0.102458)
(1.41065e-05 -4.52313e-06 0.100901)
(-7.81872e-07 -1.5447e-07 0.103021)
(2.82969e-06 -2.07137e-06 0.0807473)
(-2.51393e-06 1.81269e-06 0.0807693)
(1.13966e-07 1.50569e-05 0.102464)
(-1.65756e-07 -7.45573e-07 0.103021)
(4.34289e-06 -1.51675e-05 0.100881)
(8.21488e-07 -6.21842e-07 0.102979)
(-8.99836e-08 -1.56571e-05 0.102458)
(-1.56785e-07 -7.82108e-07 0.103021)
(-4.559e-06 1.41681e-05 0.1009)
(-4.65716e-06 -5.70182e-06 0.0980984)
(-5.69505e-06 -4.6449e-06 0.0980977)
(4.5864e-05 4.58855e-05 0.102896)
(4.08918e-06 5.37856e-06 0.0981187)
(5.37404e-06 4.0798e-06 0.0981177)
(8.34055e-08 -9.41947e-06 0.100509)
(7.86689e-07 7.14196e-06 0.0929838)
(-6.11441e-08 9.41288e-06 0.100495)
(-9.71627e-07 -6.47911e-06 0.0930028)
(-1.97149e-06 2.96656e-06 0.0807469)
(1.90538e-06 -2.73322e-06 0.0807662)
(-9.48954e-06 5.09404e-08 0.100508)
(7.09778e-06 7.05078e-07 0.092983)
(9.48471e-06 -9.80452e-08 0.100495)
(-6.49444e-06 -1.0581e-06 0.0930032)
(7.21869e-07 -7.11292e-07 0.10304)
(-6.9946e-07 7.0814e-07 0.10304)
(7.05816e-07 7.00895e-07 0.10304)
(-7.28367e-07 -7.19014e-07 0.10304)
(7.37515e-07 -7.20449e-07 0.10304)
(-7.2588e-07 7.38036e-07 0.10304)
(7.34889e-07 7.24214e-07 0.10304)
(1.53846e-05 7.56022e-08 0.102465)
(-1.51881e-05 4.36167e-06 0.100881)
(-6.52176e-07 -1.94352e-07 0.103022)
(-4.75449e-07 7.31322e-07 0.102979)
(-1.57599e-05 -1.22973e-07 0.102459)
(1.43388e-05 -4.63094e-06 0.100902)
(-6.23175e-07 -1.91001e-07 0.103022)
(2.80061e-06 -1.84831e-06 0.0807443)
(-2.64932e-06 1.88572e-06 0.0807672)
(9.37003e-08 1.53876e-05 0.102465)
(-1.83725e-07 -6.5752e-07 0.103022)
(4.4648e-06 -1.52754e-05 0.100881)
(7.14417e-07 -4.7494e-07 0.102979)
(-9.89294e-08 -1.57802e-05 0.102459)
(-1.91208e-07 -6.19599e-07 0.103022)
(-4.65677e-06 1.43645e-05 0.100901)
(-4.64839e-06 -5.59738e-06 0.0980978)
(-5.58106e-06 -4.64703e-06 0.098097)
(4.60478e-05 4.60637e-05 0.102896)
(4.24521e-06 5.4618e-06 0.0981183)
(5.45729e-06 4.23539e-06 0.0981173)
(8.01018e-08 -9.50082e-06 0.100509)
(7.11808e-07 6.84394e-06 0.0929831)
(-7.92244e-08 9.22078e-06 0.100495)
(-1.07307e-06 -6.60115e-06 0.0930027)
(-1.90103e-06 2.83681e-06 0.0807466)
(2.04727e-06 -2.85832e-06 0.0807659)
(-9.56876e-06 6.19637e-08 0.100508)
(6.8493e-06 6.87997e-07 0.0929825)
(9.2845e-06 -6.23133e-08 0.100495)
(-6.61643e-06 -1.08171e-06 0.0930027)
(7.36493e-07 -7.23296e-07 0.10304)
(-7.22586e-07 7.3477e-07 0.10304)
(7.32743e-07 7.20511e-07 0.10304)
(-7.13713e-07 -7.1264e-07 0.10304)
(7.28505e-07 -7.21079e-07 0.10304)
(-7.15195e-07 7.25355e-07 0.10304)
(7.1969e-07 7.1701e-07 0.10304)
(1.54287e-05 8.66447e-08 0.102465)
(-1.50382e-05 4.26144e-06 0.100881)
(-6.08476e-07 -1.90192e-07 0.103022)
(-4.77581e-07 7.2355e-07 0.102979)
(-1.55669e-05 -9.71428e-08 0.102459)
(1.43781e-05 -4.68859e-06 0.100902)
(-6.08185e-07 -1.9305e-07 0.103022)
(2.72786e-06 -1.87864e-06 0.0807438)
(-2.68229e-06 1.86317e-06 0.0807671)
(9.58456e-08 1.54417e-05 0.102465)
(-1.93351e-07 -6.06713e-07 0.103021)
(4.30403e-06 -1.50964e-05 0.100881)
(7.29677e-07 -4.7396e-07 0.102979)
(-1.04303e-07 -1.55812e-05 0.102459)
(-1.92711e-07 -6.03253e-07 0.103021)
(-4.7219e-06 1.44326e-05 0.100901)
(-4.58571e-06 -5.60516e-06 0.0980979)
(-5.59267e-06 -4.57944e-06 0.0980972)
(4.60289e-05 4.60497e-05 0.102896)
(4.25923e-06 5.45138e-06 0.0981185)
(5.44451e-06 4.25158e-06 0.0981175)
(7.83762e-08 -9.50248e-06 0.100509)
(7.66461e-07 6.86268e-06 0.0929828)
(-7.03689e-08 9.21784e-06 0.100495)
(-1.07618e-06 -6.55886e-06 0.093003)
(-1.90754e-06 2.6637e-06 0.0807467)
(1.91246e-06 -2.88602e-06 0.0807661)
(-9.56875e-06 5.67036e-08 0.100508)
(6.86874e-06 6.85653e-07 0.0929828)
(9.27972e-06 -6.77689e-08 0.100495)
(-6.6305e-06 -1.0941e-06 0.0930025)
(7.22376e-07 -7.16998e-07 0.10304)
(-7.14841e-07 7.23091e-07 0.10304)
(7.17773e-07 7.16368e-07 0.10304)
(-7.20343e-07 -7.16778e-07 0.10304)
(7.21548e-07 -7.15477e-07 0.10304)
(-7.15551e-07 7.21906e-07 0.10304)
(7.16472e-07 7.1563e-07 0.10304)
(1.54242e-05 8.97703e-08 0.102465)
(-1.50413e-05 4.27348e-06 0.100881)
(-6.16108e-07 -1.88475e-07 0.103021)
(-4.86168e-07 7.39899e-07 0.102979)
(-1.55761e-05 -9.58697e-08 0.102459)
(1.4379e-05 -4.67114e-06 0.100902)
(-6.16627e-07 -1.87919e-07 0.103021)
(2.7214e-06 -1.88471e-06 0.0807438)
(-2.68422e-06 1.86067e-06 0.0807671)
(9.56921e-08 1.5436e-05 0.102465)
(-1.90785e-07 -6.12945e-07 0.103021)
(4.30569e-06 -1.50965e-05 0.100881)
(7.35222e-07 -4.81763e-07 0.102979)
(-1.0369e-07 -1.55896e-05 0.102459)
(-1.9123e-07 -6.07594e-07 0.103021)
(-4.71852e-06 1.44299e-05 0.100901)
(-4.58871e-06 -5.60651e-06 0.0980979)
(-5.59472e-06 -4.5824e-06 0.0980972)
(4.60243e-05 4.60444e-05 0.102896)
(4.25744e-06 5.45193e-06 0.0981185)
(5.44462e-06 4.25044e-06 0.0981175)
(6.5533e-08 -9.50255e-06 0.100509)
(7.01417e-07 6.81179e-06 0.0929826)
(-8.50562e-08 9.21318e-06 0.100495)
(-1.09703e-06 -6.57718e-06 0.093003)
(-1.96307e-06 2.82863e-06 0.0807468)
(1.92403e-06 -2.81082e-06 0.0807663)
(-9.56832e-06 5.43442e-08 0.100508)
(6.87176e-06 6.86395e-07 0.0929828)
(9.28032e-06 -6.97915e-08 0.100495)
(-6.62448e-06 -1.09214e-06 0.0930027)
(7.21172e-07 -7.1798e-07 0.10304)
(-7.15611e-07 7.21035e-07 0.10304)
(7.16226e-07 7.16864e-07 0.10304)
(-7.22722e-07 -7.17249e-07 0.10304)
(7.21275e-07 -7.20082e-07 0.10304)
(-7.16195e-07 7.21202e-07 0.10304)
(7.16064e-07 7.17954e-07 0.10304)
(1.54248e-05 8.80004e-08 0.102465)
(-1.5043e-05 4.26647e-06 0.100881)
(-6.14718e-07 -1.89436e-07 0.103022)
(-4.84033e-07 7.37753e-07 0.102979)
(-1.55763e-05 -9.72411e-08 0.102459)
(1.43788e-05 -4.67582e-06 0.100902)
(-6.12841e-07 -1.89377e-07 0.103022)
(2.72095e-06 -1.8856e-06 0.0807438)
(-2.68466e-06 1.86002e-06 0.0807671)
(9.57215e-08 1.54354e-05 0.102465)
(-1.91017e-07 -6.13816e-07 0.103021)