/*--------------------------------*- C++ -*----------------------------------*\
| =========                 |                                                 |
| \\      /  F ield         | OpenFOAM: The Open Source CFD Toolbox           |
|  \\    /   O peration     | Version:  2206                                  |
|   \\  /    A nd           | Website:  www.openfoam.com                      |
|    \\/     M anipulation  |                                                 |
\*---------------------------------------------------------------------------*/
FoamFile
{
    version     2.0;
    format      ascii;
    arch        "LSB;label=32;scalar=64";
    class       volScalarField;
    location    "2.5";
    object      epsilon;
}
// * * * * * * * * * * * * * * * * * * * * * * * * * * * * * * * * * * * * * //

dimensions      [0 2 -3 0 0 0 0];

internalField   nonuniform List<scalar> 
28688
(
5.05145e-07
5.0567e-07
5.0567e-07
5.06114e-07
5.03641e-07
5.03872e-07
5.03872e-07
5.04077e-07
5.0364e-07
5.03863e-07
5.03863e-07
5.04065e-07
5.0364e-07
5.03863e-07
5.03863e-07
5.04065e-07
5.0364e-07
5.03863e-07
5.03863e-07
5.04065e-07
5.0364e-07
5.03863e-07
5.03863e-07
5.04065e-07
5.0364e-07
5.03863e-07
5.03863e-07
5.04065e-07
5.0364e-07
5.03863e-07
5.03863e-07
5.04065e-07
5.0364e-07
5.03863e-07
5.03863e-07
5.04065e-07
5.0364e-07
5.03863e-07
5.03863e-07
5.04065e-07
5.0364e-07
5.03863e-07
5.03863e-07
5.04065e-07
5.0364e-07
5.03863e-07
5.03863e-07
5.04065e-07
5.08009e-07
5.07441e-07
5.07441e-07
5.08008e-07
5.07441e-07
5.07441e-07
5.09574e-07
5.09574e-07
5.09574e-07
5.09574e-07
5.0744e-07
5.07441e-07
5.08009e-07
5.07441e-07
5.07441e-07
5.08008e-07
5.06116e-07
5.04092e-07
5.05672e-07
5.05675e-07
5.03911e-07
5.03911e-07
5.06116e-07
5.04091e-07
5.05674e-07
5.05675e-07
5.03911e-07
5.03911e-07
5.05673e-07
5.03909e-07
5.03911e-07
5.06116e-07
5.04092e-07
5.05674e-07
5.0391e-07
5.03911e-07
5.04091e-07
5.0409e-07
5.04064e-07
5.03877e-07
5.03877e-07
5.03862e-07
5.03862e-07
5.0409e-07
5.04064e-07
5.03877e-07
5.03877e-07
5.03862e-07
5.03862e-07
5.03877e-07
5.03863e-07
5.03862e-07
5.0409e-07
5.04063e-07
5.03876e-07
5.03863e-07
5.03862e-07
5.04064e-07
5.04074e-07
5.04064e-07
5.03868e-07
5.03867e-07
5.03862e-07
5.03863e-07
5.04074e-07
5.04064e-07
5.03867e-07
5.03867e-07
5.03863e-07
5.03863e-07
5.03867e-07
5.03863e-07
5.03862e-07
5.04074e-07
5.04064e-07
5.03867e-07
5.03863e-07
5.03862e-07
5.04064e-07
5.04074e-07
5.04064e-07
5.03867e-07
5.03867e-07
5.03863e-07
5.03863e-07
5.04074e-07
5.04063e-07
5.03867e-07
5.03867e-07
5.03863e-07
5.03863e-07
5.03867e-07
5.03863e-07
5.03863e-07
5.04074e-07
5.04063e-07
5.03867e-07
5.03863e-07
5.03863e-07
5.04064e-07
5.04075e-07
5.04064e-07
5.03867e-07
5.03867e-07
5.03863e-07
5.03863e-07
5.04073e-07
5.04063e-07
5.03867e-07
5.03867e-07
5.03863e-07
5.03863e-07
5.03867e-07
5.03863e-07
5.03863e-07
5.04074e-07
5.04064e-07
5.03867e-07
5.03863e-07
5.03863e-07
5.04064e-07
5.04075e-07
5.04064e-07
5.03867e-07
5.03867e-07
5.03863e-07
5.03863e-07
5.04074e-07
5.04063e-07
5.03867e-07
5.03867e-07
5.03863e-07
5.03863e-07
5.03867e-07
5.03863e-07
5.03863e-07
5.04074e-07
5.04063e-07
5.03867e-07
5.03863e-07
5.03863e-07
5.04064e-07
5.04075e-07
5.04064e-07
5.03867e-07
5.03867e-07
5.03863e-07
5.03863e-07
5.04074e-07
5.04063e-07
5.03867e-07
5.03867e-07
5.03863e-07
5.03863e-07
5.03867e-07
5.03863e-07
5.03863e-07
5.04073e-07
5.04063e-07
5.03867e-07
5.03863e-07
5.03863e-07
5.04064e-07
5.04074e-07
5.04064e-07
5.03867e-07
5.03867e-07
5.03862e-07
5.03863e-07
5.04074e-07
5.04064e-07
5.03867e-07
5.03867e-07
5.03863e-07
5.03863e-07
5.03867e-07
5.03863e-07
5.03863e-07
5.04074e-07
5.04063e-07
5.03867e-07
5.03863e-07
5.03863e-07
5.04064e-07
5.04074e-07
5.04064e-07
5.03867e-07
5.03867e-07
5.03862e-07
5.03863e-07
5.04074e-07
5.04063e-07
5.03867e-07
5.03867e-07
5.03863e-07
5.03863e-07
5.03867e-07
5.03863e-07
5.03863e-07
5.04074e-07
5.04064e-07
5.03867e-07
5.03863e-07
5.03863e-07
5.04064e-07
5.04074e-07
5.04063e-07
5.03867e-07
5.03867e-07
5.03862e-07
5.03863e-07
5.04074e-07
5.04063e-07
5.03867e-07
5.03867e-07
5.03863e-07
5.03863e-07
5.03867e-07
5.03863e-07
5.03863e-07
5.04074e-07
5.04064e-07
5.03867e-07
5.03863e-07
5.03863e-07
5.04064e-07
5.04074e-07
5.04064e-07
5.03867e-07
5.03867e-07
5.03862e-07
5.03862e-07
5.04074e-07
5.04063e-07
5.03867e-07
5.03867e-07
5.03863e-07
5.03863e-07
5.03867e-07
5.03863e-07
5.03863e-07
5.04074e-07
5.04064e-07
5.03867e-07
5.03863e-07
5.03863e-07
5.04064e-07
5.04074e-07
5.04073e-07
5.03867e-07
5.03867e-07
5.03868e-07
5.04074e-07
5.03867e-07
5.03867e-07
5.03868e-07
5.03868e-07
5.03867e-07
5.03868e-07
5.04074e-07
5.04073e-07
5.03867e-07
5.03871e-07
5.03868e-07
5.04074e-07
5.35769e-07
5.35757e-07
5.35764e-07
5.35764e-07
5.3529e-07
5.35791e-07
5.33639e-07
5.35757e-07
5.3529e-07
5.35791e-07
5.35757e-07
5.33639e-07
5.35591e-07
5.35985e-07
5.35985e-07
8.75724e-07
3.8077e-06
8.96555e-07
4.33076e-06
1.17364e-05
1.26504e-05
8.75776e-07
3.80792e-06
8.96674e-07
4.33118e-06
5.05147e-07
5.05147e-07
5.05147e-07
5.03649e-07
5.0365e-07
5.0365e-07
5.0365e-07
5.33639e-07
1.04522e-06
5.05168e-07
5.04523e-07
5.29287e-07
8.47018e-07
5.04007e-07
1.17378e-05
1.26515e-05
5.33636e-07
5.05169e-07
1.04521e-06
5.04523e-07
5.29283e-07
5.04007e-07
8.4696e-07
2.17893e-06
2.17947e-06
5.04702e-07
1.38594e-06
1.38615e-06
8.27714e-07
4.41757e-06
8.29528e-07
4.41742e-06
1.28277e-05
1.28267e-05
8.27772e-07
4.4181e-06
8.29633e-07
4.41794e-06
5.03646e-07
5.03646e-07
5.03646e-07
5.0364e-07
5.0364e-07
5.0364e-07
5.0364e-07
5.27336e-07
7.51594e-07
5.03664e-07
5.03869e-07
5.27645e-07
7.49167e-07
5.03668e-07
1.28293e-05
1.28284e-05
5.27339e-07
5.03664e-07
7.51576e-07
5.0387e-07
5.27648e-07
5.03668e-07
7.49185e-07
1.15868e-06
1.15884e-06
5.04072e-07
1.15629e-06
1.15645e-06
8.27454e-07
4.41758e-06
8.27604e-07
4.41733e-06
1.28269e-05
1.28258e-05
8.27396e-07
4.418e-06
8.27528e-07
4.41775e-06
5.03645e-07
5.03644e-07
5.03645e-07
5.0364e-07
5.0364e-07
5.0364e-07
5.0364e-07
5.27299e-07
7.49124e-07
5.03663e-07
5.03869e-07
5.27318e-07
7.48961e-07
5.03668e-07
1.28289e-05
1.28275e-05
5.27293e-07
5.03663e-07
7.49123e-07
5.03868e-07
5.2732e-07
5.03669e-07
7.48952e-07
1.15606e-06
1.15624e-06
5.04069e-07
1.15592e-06
1.15611e-06
8.27451e-07
4.41763e-06
8.27605e-07
4.41738e-06
1.28269e-05
1.28257e-05
8.27391e-07
4.41808e-06
8.27494e-07
4.41783e-06
5.03645e-07
5.03645e-07
5.03644e-07
5.0364e-07
5.0364e-07
5.0364e-07
5.0364e-07
5.27297e-07
7.49117e-07
5.03663e-07
5.03868e-07
5.27319e-07
7.48957e-07
5.03668e-07
1.28288e-05
1.28274e-05
5.27296e-07
5.03663e-07
7.49075e-07
5.03868e-07
5.27317e-07
5.03668e-07
7.48932e-07
1.15607e-06
1.15625e-06
5.04069e-07
1.15594e-06
1.15611e-06
8.2745e-07
4.41757e-06
8.27604e-07
4.41732e-06
1.28267e-05
1.28248e-05
8.27387e-07
4.41807e-06
8.27495e-07
4.41781e-06
5.03644e-07
5.03645e-07
5.03645e-07
5.0364e-07
5.0364e-07
5.0364e-07
5.0364e-07
5.27297e-07
7.49116e-07
5.03663e-07
5.03868e-07
5.27318e-07
7.48956e-07
5.03668e-07
1.28288e-05
1.28274e-05
5.27295e-07
5.03663e-07
7.49076e-07
5.03868e-07
5.27316e-07
5.03668e-07
7.48932e-07
1.15606e-06
1.15624e-06
5.04069e-07
1.15594e-06
1.15611e-06
8.27452e-07
4.41751e-06
8.27603e-07
4.41727e-06
1.28273e-05
1.28263e-05
8.27387e-07
4.41807e-06
8.27495e-07
4.41781e-06
5.03644e-07
5.03644e-07
5.03644e-07
5.0364e-07
5.0364e-07
5.0364e-07
5.0364e-07
5.27297e-07
7.49116e-07
5.03663e-07
5.03868e-07
5.27318e-07
7.48956e-07
5.03668e-07
1.28288e-05
1.28274e-05
5.27294e-07
5.03663e-07
7.49076e-07
5.03868e-07
5.27318e-07
5.03668e-07
7.48932e-07
1.15606e-06
1.15625e-06
5.04069e-07
1.15594e-06
1.15611e-06
8.2745e-07
4.4175e-06
8.27604e-07
4.41727e-06
1.28271e-05
1.28259e-05
8.27387e-07
4.41807e-06
8.27495e-07
4.41781e-06
5.03644e-07
5.03644e-07
5.03644e-07
5.0364e-07
5.0364e-07
5.0364e-07
5.0364e-07
5.27297e-07
7.49116e-07
5.03663e-07
5.03868e-07
5.27318e-07
7.48956e-07
5.03668e-07
1.28288e-05
1.28274e-05
5.27295e-07
5.03663e-07
7.49076e-07
5.03868e-07
5.27317e-07
5.03668e-07
7.48932e-07
1.15606e-06
1.15624e-06
5.04069e-07
1.15594e-06
1.15611e-06
8.2745e-07
4.4175e-06
8.27604e-07
4.41727e-06
1.28271e-05
1.28259e-05
8.27387e-07
4.41807e-06
8.27495e-07
4.41781e-06
5.03644e-07
5.03645e-07
5.03644e-07
5.0364e-07
5.0364e-07
5.0364e-07
5.0364e-07
5.27297e-07
7.49116e-07
5.03663e-07
5.03868e-07
5.27319e-07
7.48956e-07
5.03668e-07
1.28288e-05
1.28274e-05
5.27295e-07
5.03663e-07
7.49076e-07
5.03868e-07
5.27317e-07
5.03668e-07
7.48932e-07
1.15606e-06
1.15625e-06
5.04069e-07
1.15594e-06
1.15611e-06
8.2745e-07
4.4175e-06
8.27604e-07
4.41727e-06
1.28271e-05
1.28259e-05
8.27387e-07
4.41807e-06
8.27495e-07
4.41781e-06
5.03644e-07
5.03644e-07
5.03644e-07
5.0364e-07
5.0364e-07
5.0364e-07
5.0364e-07
5.27297e-07
7.49116e-07
5.03663e-07
5.03868e-07
5.27318e-07
7.48956e-07
5.03668e-07
1.28288e-05
1.28275e-05
5.27295e-07
5.03663e-07
7.49076e-07
5.03868e-07
5.27318e-07
5.03668e-07
7.48932e-07
1.15606e-06
1.15625e-06
5.04069e-07
1.15594e-06
1.15611e-06
8.27451e-07
4.41748e-06
8.27604e-07
4.41723e-06
1.28271e-05
1.28259e-05
8.27387e-07
4.41804e-06
8.27495e-07
4.41777e-06
5.03644e-07
5.03645e-07
5.03644e-07
5.0364e-07
5.0364e-07
5.0364e-07
5.0364e-07
5.27297e-07
7.49116e-07
5.03663e-07
5.03868e-07
5.27318e-07
7.48956e-07
5.03668e-07
1.28288e-05
1.28275e-05
5.27295e-07
5.03663e-07
7.49076e-07
5.03868e-07
5.27318e-07
5.03668e-07
7.48932e-07
1.15606e-06
1.15625e-06
5.04069e-07
1.15594e-06
1.1561e-06
8.27453e-07
4.41746e-06
8.27604e-07
4.41722e-06
1.28271e-05
1.28259e-05
8.27387e-07
4.41805e-06
8.27495e-07
4.41779e-06
5.03644e-07
5.03644e-07
5.03644e-07
5.0364e-07
5.0364e-07
5.0364e-07
5.0364e-07
5.27297e-07
7.49116e-07
5.03663e-07
5.03868e-07
5.27319e-07
7.48956e-07
5.03668e-07
1.28288e-05
1.28275e-05
5.27295e-07
5.03663e-07
7.49076e-07
5.03868e-07
5.27317e-07
5.03668e-07
7.48932e-07
1.15606e-06
1.15625e-06
5.0407e-07
1.15594e-06
1.15611e-06
8.2745e-07
4.41745e-06
8.27604e-07
4.41721e-06
1.28271e-05
1.28258e-05
8.27387e-07
4.41805e-06
8.27495e-07
4.41779e-06
5.03644e-07
5.03645e-07
5.03644e-07
5.03648e-07
5.03651e-07
5.03645e-07
5.03645e-07
5.27297e-07
7.49116e-07
5.03663e-07
5.03867e-07
5.27318e-07
7.48956e-07
5.03668e-07
1.28288e-05
1.28274e-05
5.27295e-07
5.03663e-07
7.49076e-07
5.03868e-07
5.27316e-07
5.03668e-07
7.48932e-07
1.15606e-06
1.15625e-06
5.0407e-07
1.15594e-06
1.15611e-06
5.3559e-07
5.35989e-07
5.35986e-07
1.04731e-05
5.81313e-07
1.04743e-05
5.81306e-07
5.28242e-07
2.24938e-06
2.2503e-06
5.40812e-07
5.40809e-07
5.3529e-07
5.35791e-07
5.33639e-07
5.35758e-07
5.3529e-07
5.35791e-07
5.33639e-07
5.35758e-07
5.30509e-07
3.44785e-06
5.68133e-07
8.27788e-07
5.30509e-07
3.44786e-06
5.68132e-07
8.27753e-07
5.29072e-07
5.28322e-07
1.07055e-06
5.09553e-07
5.32656e-07
5.28692e-07
5.2114e-07
5.29072e-07
5.28322e-07
1.07068e-06
5.09553e-07
5.32655e-07
5.28692e-07
5.21142e-07
5.3559e-07
5.35988e-07
5.35986e-07
1.04733e-05
5.81292e-07
5.28242e-07
2.24973e-06
2.25007e-06
5.40813e-07
5.40809e-07
1.04739e-05
5.81286e-07
5.3529e-07
5.35791e-07
5.33639e-07
5.35758e-07
5.3529e-07
5.35791e-07
5.35758e-07
5.33639e-07
5.30509e-07
3.44816e-06
5.68131e-07
8.27897e-07
5.29072e-07
5.28322e-07
1.07078e-06
5.09553e-07
5.32655e-07
5.28692e-07
5.21147e-07
5.30509e-07
3.44826e-06
5.68129e-07
8.27741e-07
5.29072e-07
5.28322e-07
5.09553e-07
1.07075e-06
5.28692e-07
5.32655e-07
5.21142e-07
5.35769e-07
5.35758e-07
5.35764e-07
5.35764e-07
5.35769e-07
5.35758e-07
5.35764e-07
5.35764e-07
5.35769e-07
5.35758e-07
5.35764e-07
5.35764e-07
5.28771e-07
5.28624e-07
5.09591e-07
5.09591e-07
5.28737e-07
5.28737e-07
5.09619e-07
5.28771e-07
5.28622e-07
5.09591e-07
5.09591e-07
5.28737e-07
5.28737e-07
5.09618e-07
5.28771e-07
5.28622e-07
5.09591e-07
5.09591e-07
5.28737e-07
5.28737e-07
5.09618e-07
5.28771e-07
5.28622e-07
5.09591e-07
5.09591e-07
5.28737e-07
5.28737e-07
5.09618e-07
5.3529e-07
5.35791e-07
5.35758e-07
5.33639e-07
5.29072e-07
5.28321e-07
1.0707e-06
5.09554e-07
5.32655e-07
5.28693e-07
5.21146e-07
5.30508e-07
3.44805e-06
5.68125e-07
8.2778e-07
5.29072e-07
5.28322e-07
5.09553e-07
1.07063e-06
5.28692e-07
5.32654e-07
5.21142e-07
5.30508e-07
3.44817e-06
5.68129e-07
8.27692e-07
5.3559e-07
5.35986e-07
5.35985e-07
1.04744e-05
5.81303e-07
5.28242e-07
2.25002e-06
2.25009e-06
5.40809e-07
5.40806e-07
1.04742e-05
5.81281e-07
5.3529e-07
5.35791e-07
5.35758e-07
5.33639e-07
5.29072e-07
5.28321e-07
5.09554e-07
1.07065e-06
5.28693e-07
5.32654e-07
5.21143e-07
5.29072e-07
5.28322e-07
5.09553e-07
1.07079e-06
5.28692e-07
5.32655e-07
5.21146e-07
5.30508e-07
3.44819e-06
5.68123e-07
8.27724e-07
5.30508e-07
3.44823e-06
5.68134e-07
8.27831e-07
5.28241e-07
2.24983e-06
2.25037e-06
5.40807e-07
5.40808e-07
1.04741e-05
5.81285e-07
1.04744e-05
5.81299e-07
1.17354e-05
1.26491e-05
1.17367e-05
1.26509e-05
2.17872e-06
2.17946e-06
5.04702e-07
1.3859e-06
1.3863e-06
1.28248e-05
1.27425e-05
1.28266e-05
1.27442e-05
5.04435e-07
1.16209e-06
1.16232e-06
1.26132e-06
1.26167e-06
8.75723e-07
3.8076e-06
8.9661e-07
4.3309e-06
5.33626e-07
1.04497e-06
5.05171e-07
5.04524e-07
5.29293e-07
8.46969e-07
5.04006e-07
5.33636e-07
1.04515e-06
5.05171e-07
5.04526e-07
5.29296e-07
8.47184e-07
5.04006e-07
8.55124e-07
4.41701e-06
4.38356e-06
8.30835e-07
8.55253e-07
4.4171e-06
4.3837e-06
8.30853e-07
5.31632e-07
5.04062e-07
7.53872e-07
5.03673e-07
8.02507e-07
5.03729e-07
5.27848e-07
5.31643e-07
5.04063e-07
7.5397e-07
5.03674e-07
8.02607e-07
5.03729e-07
5.2785e-07
2.17905e-06
2.17905e-06
5.04703e-07
1.38634e-06
1.38593e-06
1.17359e-05
1.26497e-05
1.28262e-05
1.27436e-05
5.04436e-07
1.1623e-06
1.16211e-06
1.26163e-06
1.26141e-06
1.2825e-05
1.27429e-05
5.33642e-07
1.04523e-06
5.05171e-07
5.04525e-07
5.29304e-07
8.47171e-07
5.04006e-07
8.75768e-07
3.80812e-06
8.96507e-07
4.33144e-06
5.33638e-07
5.05171e-07
1.04514e-06
5.04526e-07
5.29292e-07
5.04005e-07
8.47151e-07
8.55204e-07
4.41751e-06
4.38397e-06
8.30883e-07
5.31638e-07
5.04062e-07
7.53963e-07
5.03673e-07
8.02626e-07
5.03729e-07
5.27849e-07
8.55218e-07
4.41766e-06
4.38424e-06
8.30863e-07
5.31641e-07
5.04062e-07
5.03674e-07
7.5401e-07
5.03729e-07
8.026e-07
5.27851e-07
8.758e-07
3.80773e-06
8.96579e-07
4.331e-06
5.33631e-07
5.0517e-07
1.04511e-06
5.04524e-07
5.2928e-07
5.04006e-07
8.47047e-07
8.75784e-07
3.80796e-06
8.9645e-07
4.33122e-06
5.31637e-07
5.04061e-07
7.5388e-07
5.03673e-07
8.02504e-07
5.03731e-07
5.27853e-07
8.55227e-07
4.41712e-06
4.38373e-06
8.30852e-07
5.31631e-07
5.04062e-07
5.03674e-07
7.53914e-07
5.0373e-07
8.02437e-07
5.27849e-07
8.55141e-07
4.41728e-06
4.38396e-06
8.30878e-07
2.17922e-06
2.17908e-06
5.04702e-07
1.38627e-06
1.38579e-06
1.17365e-05
1.26503e-05
1.28278e-05
1.27449e-05
5.04435e-07
1.16239e-06
1.16224e-06
1.26163e-06
1.26138e-06
1.2826e-05
1.27438e-05
5.33642e-07
5.05171e-07
1.04525e-06
5.04525e-07
5.29297e-07
5.04005e-07
8.47147e-07
8.75867e-07
3.808e-06
8.96531e-07
4.33124e-06
8.7593e-07
3.80798e-06
8.96624e-07
4.33122e-06
5.31634e-07
5.04061e-07
5.03673e-07
7.53922e-07
5.0373e-07
8.02489e-07
5.2785e-07
5.31637e-07
5.04062e-07
5.03673e-07
7.53977e-07
5.03729e-07
8.02601e-07
5.27853e-07
8.55049e-07
4.41743e-06
4.38403e-06
8.3089e-07
8.55089e-07
4.41751e-06
4.38405e-06
8.30907e-07
1.17362e-05
1.26503e-05
1.17368e-05
1.26509e-05
5.04439e-07
1.16212e-06
1.16228e-06
1.26116e-06
1.26156e-06
1.28257e-05
1.27434e-05
1.28266e-05
1.27442e-05
1.28249e-05
1.2826e-05
1.28268e-05
1.28279e-05
1.15851e-06
1.15879e-06
5.04067e-07
1.15621e-06
1.15644e-06
1.2826e-05
1.28248e-05
1.28277e-05
1.28267e-05
5.04077e-07
1.15596e-06
1.15618e-06
1.15607e-06
1.15633e-06
8.27723e-07
4.41745e-06
8.2949e-07
4.41767e-06
5.27332e-07
7.51551e-07
5.03669e-07
5.03869e-07
5.2764e-07
7.49168e-07
5.03667e-07
5.27335e-07
7.51591e-07
5.03669e-07
5.03869e-07
5.27644e-07
7.49247e-07
5.03667e-07
8.27714e-07
4.41756e-06
4.41711e-06
8.275e-07
8.27722e-07
4.41754e-06
4.41731e-06
8.27509e-07
5.27343e-07
5.03862e-07
7.49003e-07
5.03662e-07
7.49187e-07
5.03663e-07
5.27301e-07
5.27345e-07
5.03862e-07
7.49021e-07
5.03662e-07
7.49259e-07
5.03662e-07
5.27303e-07
1.15874e-06
1.15851e-06
5.04068e-07
1.1564e-06
1.15615e-06
1.28252e-05
1.28263e-05
1.28269e-05
1.28253e-05
5.04076e-07
1.15615e-06
1.15601e-06
1.1563e-06
1.15617e-06
1.28258e-05
1.2825e-05
5.27337e-07
7.51647e-07
5.03669e-07
5.03869e-07
5.27646e-07
7.49267e-07
5.03667e-07
8.27776e-07
4.41801e-06
8.2957e-07
4.41826e-06
5.27341e-07
5.03669e-07
7.51639e-07
5.0387e-07
5.27647e-07
5.03667e-07
7.49293e-07
8.27729e-07
4.41799e-06
4.41764e-06
8.27467e-07
5.27347e-07
5.03862e-07
7.49037e-07
5.03662e-07
7.49279e-07
5.03663e-07
5.27299e-07
8.27729e-07
4.41814e-06
4.41793e-06
8.27496e-07
5.27353e-07
5.03862e-07
5.03662e-07
7.49095e-07
5.03663e-07
7.49332e-07
5.27305e-07
8.27732e-07
4.41747e-06
8.29484e-07
4.41768e-06
5.27336e-07
5.03669e-07
7.51552e-07
5.0387e-07
5.27643e-07
5.03667e-07
7.49234e-07
8.27729e-07
4.41767e-06
8.29522e-07
4.41793e-06
5.27344e-07
5.03866e-07
7.48987e-07
5.03663e-07
7.49203e-07
5.03666e-07
5.273e-07
8.27691e-07
4.41755e-06
4.41734e-06
8.27498e-07
5.27344e-07
5.03862e-07
5.03662e-07
7.48992e-07
5.03663e-07
7.49243e-07
5.273e-07
8.27728e-07
4.41783e-06
4.41759e-06
8.27512e-07
1.15887e-06
1.15842e-06
5.04068e-07
1.15647e-06
1.15624e-06
1.2826e-05
1.28274e-05
1.28289e-05
1.28272e-05
5.04077e-07
1.15631e-06
1.156e-06
1.15647e-06
1.15612e-06
1.2827e-05
1.28261e-05
5.27336e-07
5.03669e-07
7.51595e-07
5.03869e-07
5.27645e-07
5.03667e-07
7.49262e-07
8.27772e-07
4.41773e-06
8.29568e-07
4.41796e-06
8.27738e-07
4.41783e-06
8.29555e-07
4.41806e-06
5.27347e-07
5.03867e-07
5.03663e-07
7.48981e-07
5.03666e-07
7.49196e-07
5.27303e-07
5.27345e-07
5.03862e-07
5.03662e-07
7.49039e-07
5.03663e-07
7.49272e-07
5.273e-07
8.27731e-07
4.41782e-06
4.41761e-06
8.27497e-07
8.27737e-07
4.41798e-06
4.41775e-06
8.27486e-07
1.28259e-05
1.28274e-05
1.28268e-05
1.28282e-05
5.04081e-07
1.156e-06
1.15618e-06
1.15617e-06
1.15636e-06
1.28271e-05
1.28262e-05
1.28279e-05
1.2827e-05
1.28239e-05
1.28258e-05
1.28257e-05
1.28274e-05
1.1561e-06
1.15606e-06
5.04066e-07
1.15613e-06
1.15614e-06
1.28257e-05
1.28248e-05
1.28277e-05
1.28265e-05
5.04076e-07
1.15609e-06
1.15618e-06
1.15605e-06
1.15614e-06
8.27496e-07
4.41725e-06
8.27522e-07
4.41749e-06
5.27295e-07
7.49085e-07
5.03666e-07
5.03868e-07
5.2732e-07
7.48991e-07
5.03666e-07
5.27301e-07
7.49071e-07
5.03667e-07
5.03867e-07
5.27323e-07
7.48994e-07
5.03667e-07
8.27475e-07
4.41758e-06
4.41713e-06
8.27492e-07
8.27538e-07
4.41751e-06
4.41735e-06
8.2748e-07
5.27313e-07
5.03864e-07
7.48986e-07
5.03662e-07
7.49072e-07
5.03663e-07
5.27299e-07
5.27321e-07
5.03865e-07
7.48996e-07
5.03662e-07
7.49053e-07
5.03663e-07
5.273e-07
1.15605e-06
1.15618e-06
5.04066e-07
1.1561e-06
1.15612e-06
1.28243e-05
1.28257e-05
1.28269e-05
1.28249e-05
5.04075e-07
1.15616e-06
1.15609e-06
1.15601e-06
1.15606e-06
1.28257e-05
1.28247e-05
5.27292e-07
7.49091e-07
5.03667e-07
5.03867e-07
5.27317e-07
7.49023e-07
5.03667e-07
8.27469e-07
4.41785e-06
8.27496e-07
4.41811e-06
5.273e-07
5.03667e-07
7.49172e-07
5.03867e-07
5.27323e-07
5.03667e-07
7.49087e-07
8.27396e-07
4.41806e-06
4.4176e-06
8.27409e-07
5.27311e-07
5.03864e-07
7.49046e-07
5.03662e-07
7.49111e-07
5.03664e-07
5.27291e-07
8.2747e-07
4.41811e-06
4.41797e-06
8.27454e-07
5.2732e-07
5.03864e-07
5.03662e-07
7.49085e-07
5.03664e-07
7.49171e-07
5.273e-07
8.27519e-07
4.41728e-06
8.27506e-07
4.41755e-06
5.27297e-07
5.03667e-07
7.4904e-07
5.03867e-07
5.27318e-07
5.03667e-07
7.48956e-07
8.27507e-07
4.41755e-06
8.27522e-07
4.41778e-06
5.2732e-07
5.03867e-07
7.48975e-07
5.03663e-07
7.49044e-07
5.03667e-07
5.27299e-07
8.2755e-07
4.41753e-06
4.4174e-06
8.27485e-07
5.27318e-07
5.03864e-07
5.03662e-07
7.48961e-07
5.03664e-07
7.49018e-07
5.27298e-07
8.27547e-07
4.4178e-06
4.41764e-06
8.27484e-07
1.15645e-06
1.15588e-06
5.04066e-07
1.15641e-06
1.156e-06
1.28255e-05
1.28267e-05
1.28288e-05
1.28266e-05
5.04076e-07
1.15638e-06
1.15599e-06
1.15632e-06
1.15589e-06
1.28269e-05
1.28257e-05
5.27291e-07
5.03666e-07
7.49086e-07
5.03867e-07
5.27316e-07
5.03666e-07
7.49008e-07
8.27434e-07
4.41755e-06
8.27498e-07
4.41784e-06
8.27429e-07
4.41767e-06
8.27486e-07
4.41793e-06
5.27312e-07
5.03867e-07
5.03663e-07
7.4895e-07
5.03667e-07
7.49006e-07
5.27295e-07
5.27311e-07
5.03864e-07
5.03662e-07
7.49014e-07
5.03663e-07
7.49072e-07
5.27293e-07
8.27435e-07
4.41784e-06
4.4177e-06
8.27434e-07
8.27431e-07
4.41795e-06
4.41779e-06
8.27426e-07
1.28255e-05
1.28268e-05
1.28259e-05
1.28275e-05
5.04079e-07
1.15599e-06
1.15618e-06
1.15586e-06
1.15605e-06
1.2827e-05
1.28258e-05
1.28277e-05
1.28266e-05
1.28238e-05
1.28256e-05
1.28257e-05
1.28275e-05
1.156e-06
1.15606e-06
5.04066e-07
1.15606e-06
1.15614e-06
1.28257e-05
1.28245e-05
1.28277e-05
1.28265e-05
5.04076e-07
1.15596e-06
1.15618e-06
1.1559e-06
1.15614e-06
8.27505e-07
4.41717e-06
8.27523e-07
4.41747e-06
5.27294e-07
7.49073e-07
5.03667e-07
5.03867e-07
5.27321e-07
7.48983e-07
5.03667e-07
5.27302e-07
7.49053e-07
5.03666e-07
5.03867e-07
5.27322e-07
7.48991e-07
5.03666e-07
8.27473e-07
4.41755e-06
4.41708e-06
8.2749e-07
8.2752e-07
4.4175e-06
4.41734e-06
8.27478e-07
5.27313e-07
5.03864e-07
7.4895e-07
5.03662e-07
7.49038e-07
5.03664e-07
5.27299e-07
5.27321e-07
5.03865e-07
7.48993e-07
5.03662e-07
7.4905e-07
5.03663e-07
5.273e-07
1.15605e-06
1.15603e-06
5.04066e-07
1.15612e-06
1.15609e-06
1.28239e-05
1.28256e-05
1.28267e-05
1.28248e-05
5.04075e-07
1.15614e-06
1.15609e-06
1.15601e-06
1.15604e-06
1.28257e-05
1.28246e-05
5.2729e-07
7.49103e-07
5.03667e-07
5.03867e-07
5.27312e-07
7.49011e-07
5.03667e-07
8.27459e-07
4.41777e-06
8.27455e-07
4.41809e-06
5.27299e-07
5.03667e-07
7.49166e-07
5.03867e-07
5.27321e-07
5.03667e-07
7.4908e-07
8.27391e-07
4.41805e-06
4.41763e-06
8.27411e-07
5.27309e-07
5.03864e-07
7.49006e-07
5.03662e-07
7.49069e-07
5.03663e-07
5.27291e-07
8.27461e-07
4.41811e-06
4.41796e-06
8.27452e-07
5.27319e-07
5.03865e-07
5.03662e-07
7.49083e-07
5.03663e-07
7.49165e-07
5.273e-07
8.27486e-07
4.4172e-06
8.27514e-07
4.41752e-06
5.27297e-07
5.03666e-07
7.49018e-07
5.03867e-07
5.27317e-07
5.03666e-07
7.48955e-07
8.2749e-07
4.41749e-06
8.27516e-07
4.41777e-06
5.27318e-07
5.03867e-07
7.48974e-07
5.03663e-07
7.4904e-07
5.03667e-07
5.27298e-07
8.27538e-07
4.41752e-06
4.41739e-06
8.27485e-07
5.27317e-07
5.03864e-07
5.03662e-07
7.4896e-07
5.03663e-07
7.49017e-07
5.27297e-07
8.2754e-07
4.4178e-06
4.41763e-06
8.27483e-07
1.15633e-06
1.15587e-06
5.04066e-07
1.15634e-06
1.15596e-06
1.28252e-05
1.28266e-05
1.28288e-05
1.28266e-05
5.04076e-07
1.15638e-06
1.15598e-06
1.15628e-06
1.15586e-06
1.28269e-05
1.28256e-05
5.27293e-07
5.03666e-07
7.49072e-07
5.03867e-07
5.27313e-07
5.03666e-07
7.49006e-07
8.2745e-07
4.4175e-06
8.27435e-07
4.41783e-06
8.27433e-07
4.41763e-06
8.27429e-07
4.41791e-06
5.27315e-07
5.03867e-07
5.03663e-07
7.48949e-07
5.03667e-07
7.48989e-07
5.27296e-07
5.27312e-07
5.03864e-07
5.03662e-07
7.49013e-07
5.03663e-07
7.4907e-07
5.27293e-07
8.27451e-07
4.41784e-06
4.41769e-06
8.27444e-07
8.27436e-07
4.41795e-06
4.41777e-06
8.2743e-07
1.28253e-05
1.28268e-05
1.28261e-05
1.28275e-05
5.04079e-07
1.15599e-06
1.15618e-06
1.15588e-06
1.15605e-06
1.2827e-05
1.28258e-05
1.28277e-05
1.28265e-05
1.28237e-05
1.28257e-05
1.28257e-05
1.28274e-05
1.15585e-06
1.15606e-06
5.04066e-07
1.15594e-06
1.15614e-06
1.28257e-05
1.28246e-05
1.28277e-05
1.28265e-05
5.04076e-07
1.15598e-06
1.15618e-06
1.15593e-06
1.15614e-06
8.27484e-07
4.41716e-06
8.27515e-07
4.41747e-06
5.27294e-07
7.49012e-07
5.03667e-07
5.03867e-07
5.27321e-07
7.48936e-07
5.03667e-07
5.27299e-07
7.49051e-07
5.03667e-07
5.03867e-07
5.27321e-07
7.48991e-07
5.03667e-07
8.27473e-07
4.41751e-06
4.41711e-06
8.2749e-07
8.27531e-07
4.41751e-06
4.41734e-06
8.27477e-07
5.27312e-07
5.03865e-07
7.48939e-07
5.03662e-07
7.48998e-07
5.03664e-07
5.27299e-07
5.27319e-07
5.03864e-07
7.48993e-07
5.03662e-07
7.4905e-07
5.03663e-07
5.273e-07
1.15604e-06
1.15603e-06
5.04066e-07
1.15609e-06
1.15608e-06
1.28238e-05
1.28256e-05
1.28274e-05
1.28251e-05
5.04075e-07
1.15613e-06
1.15609e-06
1.15601e-06
1.15604e-06
1.28257e-05
1.28246e-05
5.2729e-07
7.49072e-07
5.03667e-07
5.03867e-07
5.27313e-07
7.4902e-07
5.03667e-07
8.2746e-07
4.41777e-06
8.27453e-07
4.41808e-06
5.273e-07
5.03667e-07
7.49166e-07
5.03867e-07
5.27321e-07
5.03667e-07
7.4908e-07
8.2739e-07
4.41805e-06
4.41764e-06
8.27411e-07
5.27308e-07
5.03865e-07
7.49035e-07
5.03662e-07
7.49083e-07
5.03664e-07
5.27291e-07
8.27461e-07
4.41811e-06
4.41795e-06
8.27452e-07
5.27319e-07
5.03865e-07
5.03662e-07
7.49083e-07
5.03663e-07
7.49165e-07
5.273e-07
8.27487e-07
4.41719e-06
8.2751e-07
4.41752e-06
5.27297e-07
5.03666e-07
7.49017e-07
5.03867e-07
5.27316e-07
5.03666e-07
7.48954e-07
8.2749e-07
4.41748e-06
8.27518e-07
4.41777e-06
5.27318e-07
5.03867e-07
7.48974e-07
5.03663e-07
7.4904e-07
5.03667e-07
5.27298e-07
8.27536e-07
4.41752e-06
4.41738e-06
8.27481e-07
5.27317e-07
5.03864e-07
5.03662e-07
7.4896e-07
5.03663e-07
7.49017e-07
5.27297e-07
8.27539e-07
4.4178e-06
4.41763e-06
8.27483e-07
1.15633e-06
1.15586e-06
5.04066e-07
1.15634e-06
1.15595e-06
1.28253e-05
1.28266e-05
1.28288e-05
1.28266e-05
5.04076e-07
1.15638e-06
1.15599e-06
1.15628e-06
1.15587e-06
1.28269e-05
1.28256e-05
5.27292e-07
5.03667e-07
7.49071e-07
5.03867e-07
5.27313e-07
5.03667e-07
7.49006e-07
8.27445e-07
4.4175e-06
8.27446e-07
4.41783e-06
8.27434e-07
4.41762e-06
8.2743e-07
4.41791e-06
5.27314e-07
5.03867e-07
5.03663e-07
7.48949e-07
5.03666e-07
7.48989e-07
5.27297e-07
5.27312e-07
5.03865e-07
5.03662e-07
7.49013e-07
5.03663e-07
7.4907e-07
5.27293e-07
8.27446e-07
4.41784e-06
4.41769e-06
8.27444e-07
8.27436e-07
4.41795e-06
4.41777e-06
8.27428e-07
1.28253e-05
1.28268e-05
1.28261e-05
1.28275e-05
5.04079e-07
1.156e-06
1.15618e-06
1.15588e-06
1.15606e-06
1.2827e-05
1.28258e-05
1.28277e-05
1.28265e-05
1.28238e-05
1.28253e-05
1.28257e-05
1.28274e-05
1.15587e-06
1.15606e-06
5.04066e-07
1.15593e-06
1.15614e-06
1.28255e-05
1.28243e-05
1.28277e-05
1.28265e-05
5.04076e-07
1.15595e-06
1.15618e-06
1.15583e-06
1.15614e-06
8.27487e-07
4.41717e-06
8.27513e-07
4.41748e-06
5.27294e-07
7.49001e-07
5.03667e-07
5.03867e-07
5.27321e-07
7.4893e-07
5.03667e-07
5.273e-07
7.49051e-07
5.03667e-07
5.03867e-07
5.27321e-07
7.48993e-07
5.03667e-07
8.27474e-07
4.4175e-06
4.41715e-06
8.27489e-07
8.27534e-07
4.41751e-06
4.41735e-06
8.27478e-07
5.27313e-07
5.03865e-07
7.48936e-07
5.03662e-07
7.4899e-07
5.03664e-07
5.27299e-07
5.2732e-07
5.03864e-07
7.48994e-07
5.03662e-07
7.49052e-07
5.03664e-07
5.273e-07
1.15606e-06
1.15603e-06
5.04066e-07
1.15615e-06
1.15608e-06
1.28238e-05
1.28256e-05
1.28271e-05
1.28253e-05
5.04075e-07
1.15613e-06
1.15609e-06
1.15604e-06
1.15604e-06
1.28257e-05
1.28246e-05
5.27289e-07
7.49098e-07
5.03666e-07
5.03867e-07
5.27313e-07
7.49028e-07
5.03666e-07
8.2746e-07
4.41777e-06
8.27453e-07
4.41808e-06
5.27299e-07
5.03666e-07
7.49165e-07
5.03867e-07
5.27321e-07
5.03666e-07
7.4908e-07
8.27389e-07
4.41805e-06
4.41763e-06
8.27411e-07
5.27308e-07
5.03864e-07
7.49035e-07
5.03662e-07
7.49089e-07
5.03663e-07
5.27291e-07
8.27461e-07
4.41811e-06
4.41795e-06
8.27452e-07
5.27318e-07
5.03864e-07
5.03662e-07
7.49083e-07
5.03663e-07
7.49165e-07
5.273e-07
8.27487e-07
4.41719e-06
8.27524e-07
4.41752e-06
5.27297e-07
5.03667e-07
7.49017e-07
5.03867e-07
5.27316e-07
5.03667e-07
7.48954e-07
8.27489e-07
4.41748e-06
8.27519e-07
4.41777e-06
5.27318e-07
5.03867e-07
7.48974e-07
5.03663e-07
7.4904e-07
5.03667e-07
5.27298e-07
8.27537e-07
4.41752e-06
4.41738e-06
8.27482e-07
5.27317e-07
5.03864e-07
5.03662e-07
7.4896e-07
5.03664e-07
7.49017e-07
5.27297e-07
8.27539e-07
4.4178e-06
4.41763e-06
8.27483e-07
1.15633e-06
1.15587e-06
5.04066e-07
1.15634e-06
1.15595e-06
1.28252e-05
1.28266e-05
1.28288e-05
1.28266e-05
5.04076e-07
1.15638e-06
1.15599e-06
1.15628e-06
1.15587e-06
1.28269e-05
1.28256e-05
5.27292e-07
5.03667e-07
7.49071e-07
5.03867e-07
5.27313e-07
5.03666e-07
7.49005e-07
8.27445e-07
4.4175e-06
8.27447e-07
4.41783e-06
8.27429e-07
4.41762e-06
8.27428e-07
4.41791e-06
5.27314e-07
5.03867e-07
5.03663e-07
7.48949e-07
5.03667e-07
7.48989e-07
5.27297e-07
5.27312e-07
5.03864e-07
5.03662e-07
7.49012e-07
5.03663e-07
7.49069e-07
5.27293e-07
8.27446e-07
4.41784e-06
4.41769e-06
8.27444e-07
8.27433e-07
4.41795e-06
4.41777e-06
8.27426e-07
1.28253e-05
1.28268e-05
1.28261e-05
1.28275e-05
5.04079e-07
1.156e-06
1.15618e-06
1.15588e-06
1.15605e-06
1.2827e-05
1.28258e-05
1.28277e-05
1.28265e-05
1.28237e-05
1.28252e-05
1.28257e-05
1.28274e-05
1.15582e-06
1.15606e-06
5.04066e-07
1.15593e-06
1.15614e-06
1.28256e-05
1.28243e-05
1.28277e-05
1.28265e-05
5.04076e-07
1.15598e-06
1.15618e-06
1.15593e-06
1.15614e-06
8.27487e-07
4.41717e-06
8.27514e-07
4.41747e-06
5.27294e-07
7.48999e-07
5.03667e-07
5.03867e-07
5.27321e-07
7.48931e-07
5.03667e-07
5.273e-07
7.49051e-07
5.03667e-07
5.03867e-07
5.27321e-07
7.4899e-07
5.03667e-07
8.27473e-07
4.4175e-06
4.41715e-06
8.2749e-07
8.27534e-07
4.41751e-06
4.41734e-06
8.27478e-07
5.27313e-07
5.03865e-07
7.48938e-07
5.03662e-07
7.48994e-07
5.03663e-07
5.27299e-07
5.2732e-07
5.03864e-07
7.48993e-07
5.03662e-07
7.49049e-07
5.03664e-07
5.273e-07
1.15603e-06
1.15603e-06
5.04066e-07
1.1561e-06
1.15608e-06
1.28238e-05
1.28256e-05
1.28271e-05
1.2825e-05
5.04075e-07
1.15614e-06
1.15609e-06
1.156e-06
1.15604e-06
1.28257e-05
1.28246e-05
5.2729e-07
7.49098e-07
5.03667e-07
5.03867e-07
5.27313e-07
7.49028e-07
5.03667e-07
8.27459e-07
4.41777e-06
8.27454e-07
4.41808e-06
5.27299e-07
5.03666e-07
7.49165e-07
5.03867e-07
5.27321e-07
5.03666e-07
7.4908e-07
8.2739e-07
4.41805e-06
4.41763e-06
8.27411e-07
5.27308e-07
5.03864e-07
7.49035e-07
5.03662e-07
7.49089e-07
5.03663e-07
5.27291e-07
8.27461e-07
4.41811e-06
4.41795e-06
8.27452e-07
5.27318e-07
5.03864e-07
5.03662e-07
7.49083e-07
5.03663e-07
7.49165e-07
5.27299e-07
8.27488e-07
4.41719e-06
8.27524e-07
4.41752e-06
5.27297e-07
5.03667e-07
7.49017e-07
5.03867e-07
5.27316e-07
5.03667e-07
7.48954e-07
8.27491e-07
4.41748e-06
8.27519e-07
4.41777e-06
5.27318e-07
5.03867e-07
7.48974e-07
5.03663e-07
7.4904e-07
5.03667e-07
5.27299e-07
8.27538e-07
4.41752e-06
4.41738e-06
8.27482e-07
5.27318e-07
5.03864e-07
5.03662e-07
7.4896e-07
5.03664e-07
7.49017e-07
5.27297e-07
8.27541e-07
4.4178e-06
4.41763e-06
8.27484e-07
1.15633e-06
1.15587e-06
5.04066e-07
1.15634e-06
1.15595e-06
1.28252e-05
1.28266e-05
1.28288e-05
1.28266e-05
5.04075e-07
1.15638e-06
1.15599e-06