/*--------------------------------*- C++ -*----------------------------------*\
| =========                 |                                                 |
| \\      /  F ield         | OpenFOAM: The Open Source CFD Toolbox           |
|  \\    /   O peration     | Version:  2206                                  |
|   \\  /    A nd           | Website:  www.openfoam.com                      |
|    \\/     M anipulation  |                                                 |
\*---------------------------------------------------------------------------*/
FoamFile
{
    version     2.0;
    format      ascii;
    arch        "LSB;label=32;scalar=64";
    class       volScalarField;
    location    "2.5";
    object      k;
}
// * * * * * * * * * * * * * * * * * * * * * * * * * * * * * * * * * * * * * //

dimensions      [0 2 -2 0 0 0 0];

internalField   nonuniform List<scalar> 
28515
(
3.95061e-05
4.17658e-05
4.17662e-05
4.39563e-05
3.62189e-05
3.64125e-05
3.64125e-05
3.83559e-05
3.62148e-05
3.64066e-05
3.64067e-05
3.83296e-05
3.62147e-05
3.64067e-05
3.64067e-05
3.83287e-05
3.62147e-05
3.64068e-05
3.64067e-05
3.83298e-05
3.62148e-05
3.64064e-05
3.64067e-05
3.83287e-05
3.62147e-05
3.64064e-05
3.64066e-05
3.83276e-05
3.62147e-05
3.64064e-05
3.64065e-05
3.83287e-05
3.62147e-05
3.64065e-05
3.64066e-05
3.83287e-05
3.62147e-05
3.64066e-05
3.64067e-05
3.83286e-05
3.62148e-05
3.64064e-05
3.64065e-05
3.83283e-05
3.62147e-05
3.64064e-05
3.64065e-05
3.8328e-05
4.50634e-05
4.82937e-05
4.82957e-05
4.50657e-05
4.82904e-05
4.8296e-05
4.49725e-05
4.49701e-05
4.49716e-05
4.4974e-05
4.82924e-05
4.82929e-05
4.50665e-05
4.82938e-05
4.82905e-05
4.50634e-05
4.39564e-05
3.8312e-05
4.17658e-05
4.17645e-05
3.64215e-05
3.64214e-05
4.39567e-05
3.83117e-05
4.17654e-05
4.17655e-05
3.64213e-05
3.64217e-05
4.17665e-05
3.64211e-05
3.64213e-05
4.39573e-05
3.83122e-05
4.17658e-05
3.64215e-05
3.64212e-05
3.83123e-05
3.83546e-05
3.82728e-05
3.64127e-05
3.64126e-05
3.64071e-05
3.64068e-05
3.8355e-05
3.82722e-05
3.64125e-05
3.6413e-05
3.64065e-05
3.64068e-05
3.64127e-05
3.64068e-05
3.64067e-05
3.83558e-05
3.82734e-05
3.64125e-05
3.64066e-05
3.6407e-05
3.82726e-05
3.83298e-05
3.82712e-05
3.6407e-05
3.64069e-05
3.6407e-05
3.64065e-05
3.83288e-05
3.82714e-05
3.64066e-05
3.64069e-05
3.64068e-05
3.64071e-05
3.64069e-05
3.64068e-05
3.64067e-05
3.83305e-05
3.82721e-05
3.64068e-05
3.6407e-05
3.64068e-05
3.82716e-05
3.83291e-05
3.82714e-05
3.64067e-05
3.64069e-05
3.6407e-05
3.64065e-05
3.83275e-05
3.82719e-05
3.64067e-05
3.64068e-05
3.64069e-05
3.64071e-05
3.64067e-05
3.64069e-05
3.64067e-05
3.83298e-05
3.82723e-05
3.64067e-05
3.6407e-05
3.64068e-05
3.82723e-05
3.83293e-05
3.82712e-05
3.64067e-05
3.64067e-05
3.64067e-05
3.64066e-05
3.83285e-05
3.8271e-05
3.64068e-05
3.64069e-05
3.64069e-05
3.64067e-05
3.64068e-05
3.64066e-05
3.64069e-05
3.83301e-05
3.82726e-05
3.64067e-05
3.64068e-05
3.64065e-05
3.82718e-05
3.83289e-05
3.82702e-05
3.64066e-05
3.64068e-05
3.64066e-05
3.64066e-05
3.83281e-05
3.82703e-05
3.64067e-05
3.64067e-05
3.64069e-05
3.64067e-05
3.64067e-05
3.64067e-05
3.64069e-05
3.83298e-05
3.82719e-05
3.64067e-05
3.64067e-05
3.64064e-05
3.8271e-05
3.83278e-05
3.82714e-05
3.64067e-05
3.64067e-05
3.64069e-05
3.64067e-05
3.83275e-05
3.82715e-05
3.64067e-05
3.64067e-05
3.64068e-05
3.6407e-05
3.64069e-05
3.64067e-05
3.6407e-05
3.83294e-05
3.82724e-05
3.64066e-05
3.64068e-05
3.64065e-05
3.82715e-05
3.83286e-05
3.8272e-05
3.64067e-05
3.64066e-05
3.64069e-05
3.64068e-05
3.83289e-05
3.82721e-05
3.64067e-05
3.64071e-05
3.64069e-05
3.64068e-05
3.64067e-05
3.64067e-05
3.6407e-05
3.83295e-05
3.8273e-05
3.64067e-05
3.64069e-05
3.64066e-05
3.8272e-05
3.8329e-05
3.8272e-05
3.64068e-05
3.64067e-05
3.64069e-05
3.64068e-05
3.83293e-05
3.82721e-05
3.64067e-05
3.64072e-05
3.64068e-05
3.6407e-05
3.64069e-05
3.64067e-05
3.6407e-05
3.833e-05
3.82733e-05
3.64067e-05
3.64069e-05
3.64066e-05
3.82723e-05
3.83295e-05
3.82715e-05
3.64068e-05
3.64065e-05
3.64066e-05
3.64068e-05
3.83293e-05
3.82714e-05
3.64067e-05
3.64069e-05
3.64069e-05
3.64068e-05
3.64069e-05
3.64067e-05
3.64067e-05
3.83305e-05
3.82727e-05
3.64069e-05
3.64066e-05
3.64066e-05
3.82719e-05
3.83283e-05
3.82711e-05
3.64069e-05
3.6407e-05
3.64066e-05
3.64069e-05
3.83282e-05
3.82706e-05
3.64067e-05
3.64068e-05
3.64068e-05
3.64068e-05
3.64069e-05
3.64067e-05
3.64066e-05
3.833e-05
3.82722e-05
3.64068e-05
3.64066e-05
3.64067e-05
3.82709e-05
3.83285e-05
3.64065e-05
3.64068e-05
3.83281e-05
3.64067e-05
3.64071e-05
3.64069e-05
3.83289e-05
3.64067e-05
3.10574e-05
3.26943e-05
3.12861e-05
3.12859e-05
8.58323e-05
3.96148e-05
0.000117484
3.16042e-05
8.58317e-05
3.96195e-05
3.1604e-05
0.00011749
4.8105e-05
0.000105444
0.000105442
3.56987e-05
3.20869e-05
3.65654e-05
3.09523e-05
2.74829e-05
2.53477e-05
3.56985e-05
3.20865e-05
3.65651e-05
3.09516e-05
3.95068e-05
3.95074e-05
3.95064e-05
3.62357e-05
3.62357e-05
3.62358e-05
3.62357e-05
3.76058e-05
3.87734e-05
3.85828e-05
3.7068e-05
3.83241e-05
3.7203e-05
3.66543e-05
2.74825e-05
2.53472e-05
3.76058e-05
3.85837e-05
3.87736e-05
3.7069e-05
3.83243e-05
3.66544e-05
3.72032e-05
3.78074e-05
3.78082e-05
3.8832e-05
3.55781e-05
3.55776e-05
3.57053e-05
3.11213e-05
3.59995e-05
3.09209e-05
2.54587e-05
2.52714e-05
3.57054e-05
3.1121e-05
3.59995e-05
3.09203e-05
3.62189e-05
3.6219e-05
3.6219e-05
3.62148e-05
3.62149e-05
3.62148e-05
3.62148e-05
3.75469e-05
3.73186e-05
3.62293e-05
3.6407e-05
3.7569e-05
3.70631e-05
3.62237e-05
2.54581e-05
2.52708e-05
3.75472e-05
3.62293e-05
3.73189e-05
3.6407e-05
3.75694e-05
3.62238e-05
3.70633e-05
3.58578e-05
3.58571e-05
3.82759e-05
3.5505e-05
3.55047e-05
3.57063e-05
3.11151e-05
3.59967e-05
3.09204e-05
2.54359e-05
2.52727e-05
3.57063e-05
3.1115e-05
3.59967e-05
3.09199e-05
3.62148e-05
3.62148e-05
3.62148e-05
3.62147e-05
3.62147e-05
3.62148e-05
3.62148e-05
3.75446e-05
3.73152e-05
3.62237e-05
3.64068e-05
3.75715e-05
3.70624e-05
3.62237e-05
2.54352e-05
2.5272e-05
3.75446e-05
3.62237e-05
3.73155e-05
3.6407e-05
3.75716e-05
3.62237e-05
3.70625e-05
3.58519e-05
3.58512e-05
3.82719e-05
3.55053e-05
3.55049e-05
3.57068e-05
3.11147e-05
3.59966e-05
3.09204e-05
2.54352e-05
2.52727e-05
3.57068e-05
3.11145e-05
3.59966e-05
3.09198e-05
3.62148e-05
3.62147e-05
3.62147e-05
3.62148e-05
3.62147e-05
3.62148e-05
3.62147e-05
3.75439e-05
3.73151e-05
3.62236e-05
3.64068e-05
3.75711e-05
3.70624e-05
3.62236e-05
2.54343e-05
2.5272e-05
3.75444e-05
3.62236e-05
3.73156e-05
3.64069e-05
3.75715e-05
3.62237e-05
3.70627e-05
3.58518e-05
3.58511e-05
3.82721e-05
3.55052e-05
3.55047e-05
3.57068e-05
3.11146e-05
3.59966e-05
3.09204e-05
2.54349e-05
2.52726e-05
3.57068e-05
3.11144e-05
3.59966e-05
3.09198e-05
3.62147e-05
3.62147e-05
3.62147e-05
3.62148e-05
3.62147e-05
3.62148e-05
3.62147e-05
3.75445e-05
3.73154e-05
3.62236e-05
3.64066e-05
3.75718e-05
3.7063e-05
3.62236e-05
2.54339e-05
2.52719e-05
3.75447e-05
3.62237e-05
3.73157e-05
3.6407e-05
3.7572e-05
3.62237e-05
3.70632e-05
3.58519e-05
3.58512e-05
3.82717e-05
3.55056e-05
3.55053e-05
3.57066e-05
3.11149e-05
3.59964e-05
3.09205e-05
2.54351e-05
2.52727e-05
3.57064e-05
3.11146e-05
3.59964e-05
3.09198e-05
3.62147e-05
3.62148e-05
3.62147e-05
3.62148e-05
3.62148e-05
3.62148e-05
3.62148e-05
3.75442e-05
3.73151e-05
3.62236e-05
3.64066e-05
3.75712e-05
3.70626e-05
3.62237e-05
2.54345e-05
2.52721e-05
3.75442e-05
3.62237e-05
3.7315e-05
3.6407e-05
3.75711e-05
3.62237e-05
3.70625e-05
3.58517e-05
3.5851e-05
3.8271e-05
3.55054e-05
3.55051e-05
3.57061e-05
3.1115e-05
3.59964e-05
3.09204e-05
2.54354e-05
2.52728e-05
3.57061e-05
3.11147e-05
3.59965e-05
3.09198e-05
3.62147e-05
3.62147e-05
3.62148e-05
3.62147e-05
3.62147e-05
3.62148e-05
3.62147e-05
3.75432e-05
3.73147e-05
3.62236e-05
3.64066e-05
3.75705e-05
3.70616e-05
3.62237e-05
2.54347e-05
2.52721e-05
3.75437e-05
3.62237e-05
3.7315e-05
3.64066e-05
3.75709e-05
3.62236e-05
3.7062e-05
3.58516e-05
3.5851e-05
3.82709e-05
3.55049e-05
3.55045e-05
3.57067e-05
3.11149e-05
3.59966e-05
3.09204e-05
2.54349e-05
2.52726e-05
3.57065e-05
3.11146e-05
3.59966e-05
3.09198e-05
3.62147e-05
3.62147e-05
3.62147e-05
3.62147e-05
3.62147e-05
3.62147e-05
3.62147e-05
3.75441e-05
3.73156e-05
3.62236e-05
3.64068e-05
3.75713e-05
3.70625e-05
3.62236e-05
2.54344e-05
2.5272e-05
3.75442e-05
3.62236e-05
3.73156e-05
3.6407e-05
3.75715e-05
3.62237e-05
3.70626e-05
3.58518e-05
3.58512e-05
3.82718e-05
3.55053e-05
3.55049e-05
3.57071e-05
3.11146e-05
3.59967e-05
3.09205e-05
2.54345e-05
2.52726e-05
3.57071e-05
3.11144e-05
3.59967e-05
3.09199e-05
3.62147e-05
3.62147e-05
3.62147e-05
3.62148e-05
3.62147e-05
3.62148e-05
3.62147e-05
3.75449e-05
3.73157e-05
3.62236e-05
3.64068e-05
3.75721e-05
3.70631e-05
3.62236e-05
2.54337e-05
2.52718e-05
3.75454e-05
3.62236e-05
3.73162e-05
3.6407e-05
3.75725e-05
3.62237e-05
3.70635e-05
3.58519e-05
3.58513e-05
3.82725e-05
3.55056e-05
3.55051e-05
3.57069e-05
3.11147e-05
3.59966e-05
3.09205e-05
2.54345e-05
2.52725e-05
3.57069e-05
3.11145e-05
3.59966e-05
3.09199e-05
3.62147e-05
3.62147e-05
3.62147e-05
3.62148e-05
3.62147e-05
3.62147e-05
3.62148e-05
3.75451e-05
3.73159e-05
3.62236e-05
3.64067e-05
3.75722e-05
3.70633e-05
3.62236e-05
2.54339e-05
2.52719e-05
3.75453e-05
3.62237e-05
3.73158e-05
3.64067e-05
3.75722e-05
3.62236e-05
3.70635e-05
3.5852e-05
3.58513e-05
3.82725e-05
3.55059e-05
3.55056e-05
3.57069e-05
3.11147e-05
3.59965e-05
3.09206e-05
2.5435e-05
2.52727e-05
3.57069e-05
3.11145e-05
3.59966e-05
3.09199e-05
3.62148e-05
3.62147e-05
3.62148e-05
3.62148e-05
3.62148e-05
3.62148e-05
3.62148e-05
3.75445e-05
3.73151e-05
3.62236e-05
3.64067e-05
3.75713e-05
3.70627e-05
3.62237e-05
2.54343e-05
2.5272e-05
3.75448e-05
3.62236e-05
3.73154e-05
3.64066e-05
3.75717e-05
3.62237e-05
3.70629e-05
3.58516e-05
3.58509e-05
3.82714e-05
3.55056e-05
3.55052e-05
3.5706e-05
3.11151e-05
3.59963e-05
3.09205e-05
2.54355e-05
2.52728e-05
3.11149e-05
3.59964e-05
3.62148e-05
3.62148e-05
3.62148e-05
3.75432e-05
3.73145e-05
3.62236e-05
3.64067e-05
3.75703e-05
3.70615e-05
3.62237e-05
2.54347e-05
3.75436e-05
3.62237e-05
3.73149e-05
3.75707e-05
3.62237e-05
3.58515e-05
3.58509e-05
3.8271e-05
3.55048e-05
3.55044e-05
4.81068e-05
0.000105418
0.00010544
3.65756e-05
7.25258e-05
3.65721e-05
7.25254e-05
6.34824e-05
4.18932e-05
4.18937e-05
8.43633e-05
8.43608e-05
8.58449e-05
3.96236e-05
0.000117512
3.16045e-05
8.58362e-05
3.96134e-05
0.000117526
3.16046e-05
9.56382e-05
3.61336e-05
7.61561e-05
3.87541e-05
9.56378e-05
3.61365e-05
7.61219e-05
3.87524e-05
7.5087e-05
5.62177e-05
4.00773e-05
4.40748e-05
9.3312e-05
3.95722e-05
4.08625e-05
7.50844e-05
5.62172e-05
4.0077e-05
4.40739e-05
9.32772e-05
3.9571e-05
4.08617e-05
4.80822e-05
0.000105467
0.000105422
3.65752e-05
7.25194e-05
6.34855e-05
4.18986e-05
4.18915e-05
8.43515e-05
8.43489e-05
3.65806e-05
7.25097e-05
8.58403e-05
3.96265e-05
0.000117531
3.16048e-05
8.58515e-05
3.96155e-05
3.16044e-05
0.000117516
9.56339e-05
3.61119e-05
7.61516e-05
3.87526e-05
7.50801e-05
5.62173e-05
4.00737e-05
4.40722e-05
9.33086e-05
3.95721e-05
4.08617e-05
9.56337e-05
3.61393e-05
7.61375e-05
3.87538e-05
7.50743e-05
5.62158e-05
4.40739e-05
4.00771e-05
3.95718e-05
9.32898e-05
4.08623e-05
3.10573e-05
3.26916e-05
3.12861e-05
3.12859e-05
3.10575e-05
3.26919e-05
3.12859e-05
3.12857e-05
3.10573e-05
3.2694e-05
3.12858e-05
3.12859e-05
3.9076e-05
4.38111e-05
4.00426e-05
4.00421e-05
3.91448e-05
3.91446e-05
3.87563e-05
3.9076e-05
4.38111e-05
4.00427e-05
4.00427e-05
3.91443e-05
3.91444e-05
3.87563e-05
3.90761e-05
4.3811e-05
4.00427e-05
4.00427e-05
3.91445e-05
3.91443e-05
3.87563e-05
3.90762e-05
4.38108e-05
4.00431e-05
4.00428e-05
3.91446e-05
3.91445e-05
3.87563e-05
8.58137e-05
3.96257e-05
3.16044e-05
0.000117523
7.50893e-05
5.62147e-05
4.00754e-05
4.40733e-05
9.3283e-05
3.95711e-05
4.08628e-05
9.56339e-05
3.61336e-05
7.61206e-05
3.87539e-05
7.50847e-05
5.62161e-05
4.40751e-05
4.00758e-05
3.95717e-05
9.33095e-05
4.08639e-05
9.56333e-05
3.61171e-05
7.61479e-05
3.87568e-05
4.80812e-05
0.000105451
0.000105428
3.65866e-05
7.25292e-05
6.34852e-05
4.1895e-05
4.18881e-05
8.43608e-05
8.43582e-05
3.65922e-05
7.25215e-05
8.58249e-05
3.96221e-05
3.16041e-05
0.00011752
7.50838e-05
5.62141e-05
4.40739e-05
4.00762e-05
3.95714e-05
9.32951e-05
4.08633e-05
7.5076e-05
5.62168e-05
4.40738e-05
4.00754e-05
3.95717e-05
9.32903e-05
4.08636e-05
9.56347e-05
3.61371e-05
7.61354e-05
3.87552e-05
9.56323e-05
3.6114e-05
7.61257e-05
3.87552e-05
6.34833e-05
4.18906e-05
4.18927e-05
8.43714e-05
8.43475e-05
3.65804e-05
7.25349e-05
3.65859e-05
7.25097e-05
2.7483e-05
2.53478e-05
2.74822e-05
2.53473e-05
3.78075e-05
3.78075e-05
3.88314e-05
3.55774e-05
3.55771e-05
2.52738e-05
2.5582e-05
2.5273e-05
2.55813e-05
3.86112e-05
3.55086e-05
3.55082e-05
3.5911e-05
3.59103e-05
3.56987e-05
3.20871e-05
3.65652e-05
3.0952e-05
3.76052e-05
3.87726e-05
3.85822e-05
3.70686e-05
3.83243e-05
3.72032e-05
3.66546e-05
3.76052e-05
3.87741e-05
3.85818e-05
3.7068e-05
3.83242e-05
3.72038e-05
3.66545e-05
3.6012e-05
3.09228e-05
3.11654e-05
3.57023e-05
3.6012e-05
3.09225e-05
3.11654e-05
3.57023e-05
3.75604e-05
3.6478e-05
3.70701e-05
3.62367e-05
3.73779e-05
3.6313e-05
3.75486e-05
3.75604e-05
3.6478e-05
3.70703e-05
3.62367e-05
3.73779e-05
3.6313e-05
3.75486e-05
3.78099e-05
3.78079e-05
3.88315e-05
3.55776e-05
3.55775e-05
2.74822e-05
2.53478e-05
2.52734e-05
2.55816e-05
3.86111e-05
3.55085e-05
3.55084e-05
3.59105e-05
3.59107e-05
2.52737e-05
2.5582e-05
3.76054e-05
3.87733e-05
3.85823e-05
3.70682e-05
3.83241e-05
3.72028e-05
3.66544e-05
3.56985e-05
3.20868e-05
3.65654e-05
3.09515e-05
3.76053e-05
3.85829e-05
3.87739e-05
3.70684e-05
3.83244e-05
3.66545e-05
3.72039e-05
3.6012e-05
3.09221e-05
3.11651e-05
3.57023e-05
3.75606e-05
3.64778e-05
3.70697e-05
3.62367e-05
3.73775e-05
3.63129e-05
3.75488e-05
3.60121e-05
3.09221e-05
3.11651e-05
3.57023e-05
3.75609e-05
3.64781e-05
3.62368e-05
3.70704e-05
3.6313e-05
3.73781e-05
3.75488e-05
3.56989e-05
3.20864e-05
3.6565e-05
3.09521e-05
3.76057e-05
3.85829e-05
3.87731e-05
3.70688e-05
3.83245e-05
3.66547e-05
3.7204e-05
3.56989e-05
3.20858e-05
3.65655e-05
3.09517e-05
3.75603e-05
3.64778e-05
3.70697e-05
3.62367e-05
3.73773e-05
3.6313e-05
3.75486e-05
3.60119e-05
3.09225e-05
3.11652e-05
3.57023e-05
3.75606e-05
3.6478e-05
3.62367e-05
3.70702e-05
3.6313e-05
3.73777e-05
3.75485e-05
3.6012e-05
3.09224e-05
3.11651e-05
3.57022e-05
3.78095e-05
3.78073e-05
3.88321e-05
3.55775e-05
3.55775e-05
2.74819e-05
2.53474e-05
2.52728e-05
2.55812e-05
3.86114e-05
3.55084e-05
3.55083e-05
3.59104e-05
3.59108e-05
2.52734e-05
2.55817e-05
3.76059e-05
3.85831e-05
3.87738e-05
3.70683e-05
3.83246e-05
3.66543e-05
3.72036e-05
3.56989e-05
3.20863e-05
3.65651e-05
3.09519e-05
3.56989e-05
3.20863e-05
3.65652e-05
3.09515e-05
3.75607e-05
3.64781e-05
3.62367e-05
3.70697e-05
3.6313e-05
3.73774e-05
3.75488e-05
3.75607e-05
3.64778e-05
3.62367e-05
3.70698e-05
3.6313e-05
3.73775e-05
3.75487e-05
3.6012e-05
3.09224e-05
3.11651e-05
3.57023e-05
3.6012e-05
3.09221e-05
3.11651e-05
3.57022e-05
2.74822e-05
2.53476e-05
2.74823e-05
2.53475e-05
3.86125e-05
3.55086e-05
3.55083e-05
3.59109e-05
3.59102e-05
2.52734e-05
2.55819e-05
2.52731e-05
2.55813e-05
2.54591e-05
2.52719e-05
2.54583e-05
2.52711e-05
3.58579e-05
3.5857e-05
3.82756e-05
3.5505e-05
3.55046e-05
2.52726e-05
2.54394e-05
2.5272e-05
2.54386e-05
3.83316e-05
3.55053e-05
3.55049e-05
3.58527e-05
3.5852e-05
3.57053e-05
3.11214e-05
3.59996e-05
3.09207e-05
3.75469e-05
3.73191e-05
3.62293e-05
3.64073e-05
3.75692e-05
3.70635e-05
3.62238e-05
3.7547e-05
3.73191e-05
3.62292e-05
3.6407e-05
3.75691e-05
3.70636e-05
3.62237e-05
3.59973e-05
3.09205e-05
3.11161e-05
3.57062e-05
3.59973e-05
3.09204e-05
3.11161e-05
3.57063e-05
3.75715e-05
3.64078e-05
3.7063e-05
3.62236e-05
3.73162e-05
3.62242e-05
3.75451e-05
3.75713e-05
3.64078e-05
3.70632e-05
3.62236e-05
3.73162e-05
3.62242e-05
3.75451e-05
3.58573e-05
3.58576e-05
3.82756e-05
3.55048e-05
3.5505e-05
2.5459e-05
2.52718e-05
2.52724e-05
2.54389e-05
3.83313e-05
3.55051e-05
3.55052e-05
3.58521e-05
3.58526e-05
2.52726e-05
2.54393e-05
3.75473e-05
3.73188e-05
3.62293e-05
3.64073e-05
3.75694e-05
3.70632e-05
3.62238e-05
3.57055e-05
3.1121e-05
3.59997e-05
3.09203e-05
3.75474e-05
3.62293e-05
3.73195e-05
3.6407e-05
3.75696e-05
3.62237e-05
3.70639e-05
3.59972e-05
3.09201e-05
3.11158e-05
3.57063e-05
3.75714e-05
3.64073e-05
3.70627e-05
3.62236e-05
3.7316e-05
3.62242e-05
3.75455e-05
3.59974e-05
3.092e-05
3.11157e-05
3.57063e-05
3.75715e-05
3.64078e-05
3.62236e-05
3.70633e-05
3.62242e-05
3.73167e-05
3.75455e-05
3.57052e-05
3.1121e-05
3.59995e-05
3.09206e-05
3.7547e-05
3.62293e-05
3.73191e-05
3.64074e-05
3.75694e-05
3.62238e-05
3.70637e-05
3.57053e-05
3.11211e-05
3.59996e-05
3.09206e-05
3.75716e-05
3.64071e-05
3.70626e-05
3.62236e-05
3.73158e-05
3.62242e-05
3.75452e-05
3.59973e-05
3.09203e-05
3.11157e-05
3.57062e-05
3.75716e-05
3.64074e-05
3.62236e-05
3.70631e-05
3.62242e-05
3.73163e-05
3.75451e-05
3.59973e-05
3.09203e-05
3.11157e-05
3.57062e-05
3.58574e-05
3.58577e-05
3.82766e-05
3.55048e-05
3.55049e-05
2.54587e-05
2.52714e-05
2.52717e-05
2.54381e-05
3.83324e-05
3.55051e-05
3.55052e-05
3.58523e-05
3.58526e-05
2.52723e-05
2.5439e-05
3.75472e-05
3.62293e-05
3.73187e-05
3.64071e-05
3.75695e-05
3.62238e-05
3.70634e-05
3.57054e-05
3.11209e-05
3.59996e-05
3.09205e-05
3.57054e-05
3.11211e-05
3.59996e-05
3.09203e-05
3.75718e-05
3.64075e-05
3.62236e-05
3.70629e-05
3.62242e-05
3.73159e-05
3.75455e-05
3.75717e-05
3.64076e-05
3.62236e-05
3.70627e-05
3.62242e-05
3.73161e-05
3.75455e-05
3.59973e-05
3.09202e-05
3.11157e-05
3.57063e-05
3.59973e-05
3.092e-05
3.11157e-05
3.57063e-05
2.54589e-05
2.52713e-05
2.54586e-05
2.5271e-05
3.83319e-05
3.55052e-05
3.55047e-05
3.58527e-05
3.58521e-05
2.52722e-05
2.54389e-05
2.52719e-05
2.54386e-05
2.54361e-05
2.52729e-05
2.54355e-05
2.52723e-05
3.5852e-05
3.58511e-05
3.82716e-05
3.55051e-05
3.55046e-05
2.52729e-05
2.54351e-05
2.52722e-05
2.54344e-05
3.83291e-05
3.55056e-05
3.55051e-05
3.58518e-05
3.58511e-05
3.57063e-05
3.11153e-05
3.59967e-05
3.09202e-05
3.7544e-05
3.73157e-05
3.62237e-05
3.64067e-05
3.75714e-05
3.70627e-05
3.62236e-05
3.7544e-05
3.73157e-05
3.62237e-05
3.64069e-05
3.75713e-05
3.70629e-05
3.62236e-05
3.59966e-05
3.09204e-05
3.11148e-05
3.57067e-05
3.59967e-05
3.09202e-05
3.1115e-05
3.57066e-05
3.75715e-05
3.64068e-05
3.70631e-05
3.62236e-05
3.73161e-05
3.62236e-05
3.75442e-05
3.75715e-05
3.64069e-05
3.70632e-05
3.62236e-05
3.73158e-05
3.62237e-05
3.75441e-05
3.58514e-05
3.58517e-05
3.82709e-05
3.55051e-05
3.55051e-05
2.5436e-05
2.5273e-05
2.52727e-05
2.54353e-05
3.83278e-05
3.55054e-05
3.55053e-05
3.58513e-05
3.58515e-05
2.5273e-05
2.54354e-05
3.75443e-05
3.73155e-05
3.62237e-05
3.64065e-05
3.75714e-05
3.70622e-05
3.62236e-05
3.57063e-05
3.11149e-05
3.59968e-05
3.09199e-05
3.75443e-05
3.62237e-05
3.73158e-05
3.64068e-05
3.75715e-05
3.62236e-05
3.70629e-05
3.59966e-05
3.09198e-05
3.11146e-05
3.57068e-05
3.75717e-05
3.64067e-05
3.70627e-05
3.62236e-05
3.73158e-05
3.62236e-05
3.75445e-05
3.59967e-05
3.09199e-05
3.11146e-05
3.57068e-05
3.75717e-05
3.64068e-05
3.62237e-05
3.70634e-05
3.62236e-05
3.73162e-05
3.75445e-05
3.57066e-05
3.11148e-05
3.59967e-05
3.09203e-05
3.75445e-05
3.62237e-05
3.7316e-05
3.64066e-05
3.75716e-05
3.62237e-05
3.70631e-05
3.57067e-05
3.11148e-05
3.59968e-05
3.09202e-05
3.7571e-05
3.64069e-05
3.70624e-05
3.62237e-05
3.73151e-05
3.62237e-05
3.75441e-05
3.59965e-05
3.09202e-05
3.11147e-05
3.57065e-05
3.75712e-05
3.64069e-05
3.62237e-05
3.70631e-05
3.62237e-05
3.73157e-05
3.7544e-05
3.59966e-05
3.09201e-05
3.11146e-05
3.57065e-05
3.58514e-05
3.58518e-05
3.82722e-05
3.55049e-05
3.5505e-05
2.54359e-05
2.52727e-05
2.5272e-05
2.54343e-05
3.83294e-05
3.55053e-05
3.55051e-05
3.58513e-05
3.58516e-05
2.52726e-05
2.54351e-05
3.75446e-05
3.62237e-05
3.73156e-05
3.64068e-05
3.75716e-05
3.62237e-05
3.70627e-05
3.57065e-05
3.11148e-05
3.59967e-05
3.09201e-05
3.57066e-05
3.11148e-05
3.59967e-05
3.09199e-05
3.75713e-05
3.6407e-05
3.62237e-05
3.70627e-05
3.62237e-05
3.73155e-05
3.75444e-05
3.75712e-05
3.64069e-05
3.62237e-05
3.70627e-05
3.62237e-05
3.73154e-05
3.75444e-05
3.59966e-05
3.092e-05
3.11146e-05
3.57066e-05
3.59966e-05
3.09198e-05
3.11146e-05
3.57066e-05
2.54356e-05
2.52725e-05
2.54353e-05
2.52722e-05
3.83281e-05
3.55054e-05
3.55052e-05
3.58518e-05
3.58511e-05
2.52726e-05
2.54352e-05
2.52723e-05
2.54347e-05
2.54353e-05
2.52729e-05
2.54345e-05
2.52722e-05
3.58519e-05
3.58511e-05
3.82717e-05
3.55057e-05
3.55051e-05
2.52729e-05
2.54352e-05
2.52722e-05
2.54342e-05
3.83293e-05
3.55058e-05
3.55054e-05
3.58518e-05
3.5851e-05
3.57067e-05
3.1115e-05
3.59966e-05
3.09202e-05
3.75444e-05
3.73161e-05
3.62236e-05
3.64067e-05
3.75716e-05
3.70635e-05
3.62236e-05
3.75443e-05
3.73159e-05
3.62236e-05
3.64068e-05
3.75715e-05
3.70631e-05
3.62236e-05
3.59967e-05
3.09204e-05
3.11147e-05
3.57069e-05
3.59966e-05
3.09202e-05
3.11149e-05
3.57069e-05
3.75719e-05
3.64068e-05
3.70636e-05
3.62237e-05
3.73161e-05
3.62236e-05
3.75446e-05
3.75718e-05
3.64069e-05
3.70635e-05
3.62236e-05
3.73162e-05
3.62236e-05
3.75446e-05
3.58513e-05
3.58516e-05
3.82709e-05
3.55053e-05
3.55052e-05
2.54355e-05
2.52729e-05
2.52726e-05
2.54349e-05
3.83278e-05
3.55056e-05
3.55057e-05
3.58514e-05
3.58516e-05
2.52728e-05
2.54351e-05
3.75446e-05
3.73156e-05
3.62236e-05
3.64069e-05
3.75715e-05
3.70629e-05
3.62237e-05
3.57068e-05
3.11146e-05
3.59967e-05
3.09199e-05
3.75445e-05
3.62236e-05
3.73162e-05
3.64068e-05
3.75716e-05
3.62236e-05
3.70632e-05
3.59967e-05
3.09198e-05
3.11144e-05
3.57069e-05
3.75718e-05
3.64068e-05
3.70632e-05
3.62236e-05
3.73157e-05
3.62236e-05
3.75449e-05
3.59967e-05
3.09199e-05
3.11145e-05
3.57069e-05
3.75719e-05
3.64068e-05
3.62237e-05
3.70636e-05
3.62236e-05
3.73164e-05
3.75449e-05
3.57064e-05
3.11146e-05
3.59966e-05
3.09201e-05
3.75439e-05
3.62236e-05
3.73157e-05
3.64068e-05
3.75713e-05
3.62236e-05
3.70629e-05
3.57064e-05
3.11147e-05
3.59966e-05
3.09201e-05
3.75719e-05
3.64069e-05
3.7063e-05
3.62237e-05
3.73155e-05
3.62236e-05
3.75446e-05
3.59967e-05
3.09201e-05
3.11145e-05
3.57069e-05
3.75719e-05
3.64067e-05
3.62236e-05
3.70635e-05
3.62236e-05
3.73163e-05
3.75445e-05
3.59967e-05
3.09201e-05
3.11145e-05
3.57069e-05
3.58513e-05
3.58517e-05
3.82725e-05
3.55052e-05
3.55052e-05
2.54351e-05
2.52725e-05
2.52719e-05
2.5434e-05
3.83301e-05
3.55054e-05
3.55055e-05
3.58514e-05
3.58517e-05
2.52725e-05
2.54347e-05
3.75444e-05
3.62237e-05
3.73154e-05
3.64066e-05
3.75715e-05
3.62236e-05
3.70626e-05
3.57066e-05
3.11145e-05
3.59967e-05
3.092e-05
3.57065e-05
3.11147e-05
3.59967e-05
3.09198e-05
3.7572e-05
3.64066e-05
3.62237e-05
3.70632e-05
3.62236e-05
3.73159e-05
3.75448e-05
3.7572e-05
3.6407e-05
3.62237e-05
3.7063e-05
3.62237e-05
3.73159e-05
3.75447e-05
3.59967e-05
3.092e-05
3.11143e-05
3.57069e-05
3.59967e-05
3.09198e-05
3.11145e-05
3.57068e-05
2.54354e-05
2.52726e-05
2.54351e-05
2.52723e-05
3.83289e-05
3.55056e-05
3.55053e-05
3.58519e-05
3.58512e-05
2.52724e-05
2.54348e-05
2.52722e-05
2.54344e-05
2.54352e-05
2.52729e-05
2.54344e-05
2.52721e-05
3.58518e-05
3.5851e-05
3.82717e-05
3.55059e-05
3.55053e-05
2.5273e-05
2.54353e-05
2.52723e-05
2.54344e-05
3.8329e-05
3.55057e-05
3.55052e-05
3.58517e-05
3.58508e-05
3.57068e-05
3.11149e-05
3.59966e-05
3.09202e-05
3.75445e-05
3.7316e-05
3.62237e-05
3.64067e-05
3.75716e-05
3.70635e-05
3.62236e-05
3.75445e-05
3.73161e-05
3.62236e-05
3.64068e-05
3.75716e-05
3.70635e-05
3.62236e-05
3.59966e-05
3.09204e-05
3.11147e-05
3.57069e-05
3.59966e-05
3.09203e-05
3.11149e-05
3.57069e-05
3.75716e-05
3.64068e-05
3.70633e-05
3.62237e-05
3.73156e-05
3.62237e-05
3.75444e-05
3.75715e-05
3.6407e-05
3.70633e-05
3.62236e-05
3.7316e-05
3.62237e-05
3.75444e-05
3.58513e-05
3.58517e-05
3.82715e-05
3.55055e-05
3.55057e-05
2.54352e-05
2.52728e-05
2.52727e-05
2.54349e-05
3.83285e-05
3.55054e-05
3.55054e-05
3.58513e-05
3.58515e-05
2.52728e-05
2.54353e-05
3.75446e-05
3.73156e-05
3.62236e-05
3.64069e-05
3.75718e-05
3.7063e-05
3.62237e-05
3.57068e-05
3.11145e-05
3.59967e-05
3.09199e-05
3.75447e-05
3.62236e-05
3.73164e-05
3.64069e-05
3.75719e-05
3.62237e-05
3.70636e-05
3.59966e-05
3.09198e-05
3.11144e-05
3.5707e-05
3.75716e-05
3.64068e-05
3.70629e-05
3.62237e-05
3.73154e-05
3.62237e-05
3.75446e-05
3.59966e-05
3.09199e-05
3.11144e-05
3.57071e-05
3.75716e-05
3.64071e-05
3.62237e-05
3.70635e-05
3.62237e-05
3.73161e-05
3.75447e-05
3.57067e-05
3.11145e-05
3.59967e-05
3.09201e-05
3.75445e-05
3.62236e-05
3.73161e-05
3.6407e-05
3.75718e-05
3.62237e-05
3.70635e-05
3.57068e-05
3.11146e-05
3.59967e-05
3.09201e-05
3.75717e-05
3.64064e-05
3.70628e-05
3.62237e-05
3.73153e-05
3.62236e-05
3.75446e-05
3.59966e-05
3.09201e-05
3.11144e-05
3.57069e-05
3.75718e-05
3.6407e-05
3.62237e-05
3.70635e-05
3.62237e-05
3.73161e-05
3.75445e-05
3.59966e-05
3.09201e-05
3.11145e-05
3.57069e-05
3.58513e-05
3.58518e-05
3.82726e-05
3.55055e-05
3.55057e-05
2.54348e-05
2.52724e-05
2.5272e-05
2.54341e-05
3.83294e-05
3.55054e-05
3.55057e-05
3.58513e-05
3.58516e-05
2.52725e-05
2.54349e-05
3.75447e-05
3.62237e-05
3.73159e-05
3.64066e-05
3.75719e-05
3.62236e-05
3.7063e-05
3.57068e-05
3.11143e-05
3.59967e-05
3.09199e-05
3.57068e-05
3.11146e-05
3.59967e-05
3.09199e-05
3.75719e-05
3.64066e-05
3.62237e-05
3.70632e-05
3.62237e-05
3.73155e-05
3.75448e-05
3.75719e-05
3.64066e-05
3.62237e-05
3.7063e-05
3.62236e-05
3.73157e-05
3.75446e-05
3.59967e-05
3.092e-05
3.11143e-05
3.5707e-05
3.59967e-05
3.09199e-05
3.11146e-05
3.57069e-05
2.54349e-05
2.52725e-05
2.54345e-05
2.52722e-05
3.83288e-05
3.55056e-05
3.55052e-05
3.58518e-05
3.58511e-05
2.52725e-05
2.54348e-05
2.52722e-05
2.54344e-05
2.54358e-05
2.52733e-05
2.54349e-05
2.52724e-05
3.58517e-05
3.58508e-05
3.82709e-05
3.55053e-05
3.55047e-05
2.52733e-05
2.5436e-05
2.52724e-05
2.54351e-05
3.83284e-05
3.5505e-05
3.55045e-05
3.58516e-05
3.58507e-05
3.57065e-05
3.11151e-05
3.59964e-05
3.09202e-05
3.75438e-05
3.73154e-05
3.62237e-05
3.64067e-05
3.75707e-05
3.70628e-05
3.62237e-05
3.75438e-05
3.73157e-05
3.62236e-05
3.64068e-05
3.75707e-05
3.7063e-05
3.62237e-05
3.59963e-05
3.09203e-05
3.1115e-05
3.57061e-05
3.59964e-05
3.09202e-05
3.11151e-05
3.57062e-05
3.75701e-05
3.64067e-05
3.70622e-05
3.62236e-05
3.73151e-05
3.62237e-05
3.75431e-05
3.75702e-05
3.64069e-05
3.70625e-05
3.62236e-05
3.73154e-05
3.62237e-05
3.75431e-05
3.58512e-05
3.58514e-05
3.82709e-05
3.55052e-05
3.55054e-05
2.54353e-05
2.52729e-05
2.52728e-05
2.54353e-05
3.83279e-05
3.5505e-05
3.55049e-05
3.58511e-05
3.58513e-05
2.52731e-05
2.54357e-05
3.75438e-05
3.73149e-05
3.62237e-05
3.64068e-05
3.75705e-05
3.70623e-05
3.62237e-05
3.57065e-05
3.11147e-05
3.59964e-05
3.09198e-05
3.75438e-05
3.62237e-05
3.73157e-05
3.64069e-05
3.75705e-05
3.62237e-05
3.70629e-05
3.59964e-05
3.09197e-05
3.11147e-05
3.5706e-05
3.75703e-05
3.64067e-05
3.70617e-05
3.62237e-05
3.73148e-05
3.62237e-05
3.75432e-05
3.59965e-05
3.09197e-05
3.11147e-05
3.57061e-05
3.75704e-05
3.64071e-05
3.62237e-05
3.70626e-05
3.62237e-05
3.73154e-05
3.75433e-05
3.57067e-05
3.11145e-05
3.59965e-05
3.09201e-05
3.75442e-05
3.62236e-05
3.73159e-05
3.6407e-05
3.75713e-05
3.62237e-05
3.70632e-05
3.57067e-05
3.11145e-05
3.59965e-05
3.09201e-05
3.75707e-05
3.64064e-05
3.7062e-05
3.62237e-05
3.73148e-05
3.62237e-05
3.75435e-05
3.59964e-05
3.09202e-05
3.11147e-05
3.57063e-05
3.75708e-05
3.6407e-05
3.62237e-05
3.70627e-05
3.62237e-05
3.73156e-05
3.75435e-05
3.59965e-05
3.09201e-05
3.11146e-05
3.57064e-05
3.58512e-05
3.58515e-05
3.82716e-05
3.5505e-05
3.55053e-05
2.54353e-05
2.52726e-05
2.52721e-05
2.54348e-05
3.83286e-05
3.55049e-05
3.5505e-05
3.58511e-05
3.58515e-05
2.52727e-05
2.54354e-05
3.75442e-05
3.62237e-05
3.73156e-05
3.64065e-05
3.75712e-05
3.62237e-05
3.70627e-05
3.57066e-05
3.11144e-05
3.59965e-05
3.09199e-05
3.57067e-05
3.11146e-05
3.59966e-05
3.09198e-05
3.75708e-05
3.64065e-05
3.62237e-05
3.70623e-05
3.62237e-05
3.7315e-05
3.75437e-05
3.75708e-05
3.64065e-05
3.62237e-05
3.70623e-05
3.62237e-05
3.73152e-05
3.75436e-05
3.59965e-05
3.09199e-05
3.11145e-05
3.57063e-05
3.59965e-05
3.09198e-05
3.11146e-05
3.57063e-05
2.54349e-05
2.52725e-05
2.54346e-05
2.52722e-05
3.83283e-05
3.55053e-05
3.55049e-05
3.58516e-05
3.5851e-05
2.52727e-05
2.54351e-05
2.52723e-05
2.54348e-05
2.5436e-05
2.52733e-05
2.5435e-05
2.52724e-05
3.58518e-05
3.58509e-05
3.8271e-05
3.5505e-05
3.55046e-05
2.52731e-05
2.54355e-05
2.52723e-05
2.54346e-05
3.83283e-05
3.55054e-05
3.5505e-05
3.58519e-05
3.5851e-05
3.57062e-05
3.11152e-05
3.59965e-05
3.09202e-05
3.75432e-05
3.73155e-05
3.62236e-05
3.64069e-05
3.75706e-05
3.70624e-05
3.62236e-05
3.75431e-05
3.73154e-05
3.62236e-05
3.64065e-05
3.75705e-05
3.70623e-05
3.62236e-05
3.59966e-05
3.09204e-05
3.11149e-05
3.57066e-05
3.59966e-05
3.09202e-05
3.11151e-05
3.57064e-05
3.75712e-05
3.64068e-05
3.70631e-05
3.62236e-05
3.73159e-05
3.62236e-05
3.7544e-05
3.7571e-05
3.64069e-05
3.70627e-05
3.62236e-05
3.73158e-05
3.62236e-05
3.75438e-05
3.58512e-05
3.58514e-05
3.82708e-05
3.55047e-05
3.55046e-05
2.54358e-05
2.52732e-05
2.52727e-05
2.54352e-05
3.83274e-05
3.5505e-05
3.55049e-05
3.58513e-05
3.58515e-05
2.5273e-05
2.54355e-05
3.75434e-05
3.73152e-05
3.62236e-05
3.64068e-05
3.75709e-05
3.70621e-05
3.62237e-05
3.57062e-05
3.11147e-05
3.59966e-05
3.09198e-05
3.75435e-05
3.62236e-05
3.73157e-05
3.64071e-05
3.7571e-05
3.62237e-05
3.70627e-05
3.59966e-05
3.09198e-05
3.11147e-05
3.57066e-05
3.75714e-05
3.64066e-05
3.70626e-05
3.62236e-05
3.73157e-05
3.62236e-05
3.75443e-05
3.59967e-05
3.09198e-05
3.11147e-05
3.57066e-05
3.75714e-05
3.64072e-05
3.62237e-05
3.70631e-05
3.62237e-05
3.7316e-05
3.75442e-05
3.57061e-05
3.11148e-05
3.59965e-05
3.09202e-05
3.75433e-05
3.62237e-05
3.73154e-05
3.6407e-05
3.75707e-05
3.62237e-05
3.70624e-05
3.57062e-05
3.11147e-05
3.59965e-05
3.09201e-05
3.75709e-05
3.64066e-05
3.70622e-05
3.62237e-05
3.73152e-05
3.62236e-05
3.75438e-05
3.59965e-05
3.09201e-05
3.11148e-05
3.57064e-05
3.7571e-05
3.6407e-05
3.62237e-05
3.70627e-05
3.62237e-05
3.73156e-05
3.75439e-05
3.59966e-05
3.09201e-05
3.11147e-05
3.57064e-05
3.58513e-05
3.58516e-05
3.82716e-05
3.55049e-05
3.55048e-05
2.54354e-05
2.52728e-05
2.52721e-05
2.54345e-05
3.83291e-05
3.55051e-05
3.55051e-05
3.58514e-05
3.58517e-05
2.52727e-05
2.54352e-05
3.75436e-05
3.62237e-05
3.73152e-05
3.64064e-05
3.75709e-05
3.62236e-05
3.70621e-05
3.57063e-05
3.11146e-05