/*--------------------------------*- C++ -*----------------------------------*\
| =========                 |                                                 |
| \\      /  F ield         | OpenFOAM: The Open Source CFD Toolbox           |
|  \\    /   O peration     | Version:  2206                                  |
|   \\  /    A nd           | Website:  www.openfoam.com                      |
|    \\/     M anipulation  |                                                 |
\*---------------------------------------------------------------------------*/
FoamFile
{
    version     2.0;
    format      ascii;
    arch        "LSB;label=32;scalar=64";
    class       volScalarField;
    location    "2.5";
    object      p;
}
// * * * * * * * * * * * * * * * * * * * * * * * * * * * * * * * * * * * * * //

dimensions      [0 2 -2 0 0 0 0];

internalField   nonuniform List<scalar> 
28515
(
-0.000516405
-0.000505737
-0.000505733
-0.000490809
-0.000468047
-0.000463859
-0.000463894
-0.000442971
-0.000446784
-0.000440495
-0.000440525
-0.000410873
-0.000428684
-0.000422644
-0.000422628
-0.000391821
-0.000411232
-0.000405178
-0.00040516
-0.000374563
-0.000393817
-0.000387743
-0.000387706
-0.000356877
-0.000376513
-0.000370453
-0.000370473
-0.000339514
-0.000359217
-0.000353164
-0.000353167
-0.000322441
-0.000341767
-0.000335691
-0.000335655
-0.000304981
-0.000324263
-0.000318204
-0.000318223
-0.000287305
-0.000306831
-0.000300763
-0.000300762
-0.000270053
-0.000289538
-0.000283498
-0.000283465
-0.000252615
-0.000484498
-0.00047549
-0.000475479
-0.00048449
-0.000475477
-0.000475468
-0.000440142
-0.000440144
-0.000440142
-0.000440143
-0.000475482
-0.000475481
-0.000484478
-0.000475475
-0.000475473
-0.000484492
-0.000490792
-0.000482011
-0.000505732
-0.00050573
-0.000455752
-0.000455752
-0.000490796
-0.000482003
-0.000505727
-0.000505731
-0.00045574
-0.000455773
-0.00050575
-0.000455726
-0.000455762
-0.00049079
-0.00048202
-0.000505739
-0.000455748
-0.000455749
-0.000482018
-0.000442948
-0.000483986
-0.00046386
-0.000463838
-0.000443118
-0.000443122
-0.000442938
-0.000483886
-0.000463875
-0.000463881
-0.000443088
-0.000443145
-0.000463864
-0.00044309
-0.000443185
-0.000442973
-0.000484036
-0.000463889
-0.000443114
-0.00044316
-0.000484151
-0.000410531
-0.000469497
-0.000440518
-0.000440483
-0.000426998
-0.000426988
-0.000410423
-0.000469836
-0.00044054
-0.00044051
-0.000426995
-0.000426988
-0.000440534
-0.000426984
-0.000426946
-0.000410647
-0.000469636
-0.000440557
-0.000426986
-0.000426934
-0.000469508
-0.000391922
-0.000452059
-0.000422621
-0.000422644
-0.000409524
-0.00040954
-0.000391715
-0.000452313
-0.000422616
-0.00042263
-0.000409518
-0.000409527
-0.000422625
-0.000409545
-0.000409552
-0.000391876
-0.00045204
-0.000422617
-0.000409532
-0.000409544
-0.000452022
-0.000374333
-0.000434913
-0.000405153
-0.000405172
-0.000392069
-0.000392089
-0.000374271
-0.000434987
-0.000405146
-0.000405154
-0.000392055
-0.000392057
-0.000405181
-0.000392087
-0.000392085
-0.000374529
-0.000434798
-0.000405173
-0.000392052
-0.000392076
-0.000434588
-0.000356564
-0.000417479
-0.000387744
-0.000387747
-0.000374782
-0.000374799
-0.000356587
-0.000417396
-0.000387744
-0.000387707
-0.000374775
-0.000374782
-0.000387738
-0.000374796
-0.000374746
-0.000356587
-0.000417633
-0.000387727
-0.000374781
-0.00037474
-0.000417483
-0.000339542
-0.000400467
-0.000370459
-0.000370458
-0.000357514
-0.000357507
-0.000339821
-0.000400535
-0.000370452
-0.000370473
-0.000357513
-0.000357508
-0.000370444
-0.000357508
-0.000357513
-0.000339521
-0.000400408
-0.000370439
-0.000357506
-0.000357507
-0.000400311
-0.000322284
-0.000382598
-0.000353161
-0.00035316
-0.000340079
-0.000340064
-0.000322241
-0.000382784
-0.000353159
-0.000353166
-0.000340073
-0.000340049
-0.00035317
-0.000340062
-0.000340032
-0.000322291
-0.000382453
-0.000353167
-0.000340046
-0.000340024
-0.00038247
-0.000305207
-0.000365018
-0.000335691
-0.000335693
-0.000322546
-0.000322572
-0.000304991
-0.000365131
-0.000335683
-0.000335657
-0.000322539
-0.000322591
-0.000335644
-0.000322572
-0.000322555
-0.00030498
-0.00036517
-0.000335635
-0.000322592
-0.000322548
-0.00036532
-0.000287273
-0.000347958
-0.000318182
-0.000318204
-0.000305112
-0.000305097
-0.000287568
-0.000347773
-0.000318176
-0.000318221
-0.00030511
-0.000305111
-0.000318212
-0.000305102
-0.000305161
-0.000287705
-0.000347777
-0.000318207
-0.000305115
-0.000305155
-0.000347669
-0.000269669
-0.00033068
-0.000300763
-0.000300758
-0.000287809
-0.000287819
-0.000269654
-0.000330499
-0.000300754
-0.000300762
-0.000287802
-0.00028776
-0.000300781
-0.000287823
-0.000287783
-0.000269836
-0.000330602
-0.000300773
-0.000287766
-0.000287772
-0.000330536
-0.000252765
-0.000283491
-0.000283495
-0.000252921
-0.000283485
-0.000283465
-0.000283484
-0.000252472
-0.000283476
-0.000479199
-0.000508543
-0.000491945
-0.000491942
-0.000527995
-0.000512081
-0.000457129
-0.000498189
-0.000527984
-0.000512075
-0.000498178
-0.0004571
-0.000523879
-0.000456808
-0.000456762
-0.000505279
-0.000462502
-0.000473428
-0.000508239
-0.000436456
-0.000508089
-0.000505257
-0.000462532
-0.000473437
-0.000508223
-0.00051641
-0.000516419
-0.000516419
-0.0004548
-0.000454797
-0.000454811
-0.000454813
-0.000496487
-0.000482338
-0.000514983
-0.000461822
-0.000463404
-0.000490037
-0.000448775
-0.000436452
-0.000508096
-0.000496471
-0.000514982
-0.000482317
-0.000461828
-0.000463399
-0.000448765
-0.00049004
-0.000464775
-0.000464742
-0.000471116
-0.000501189
-0.000501186
-0.000535945
-0.000394805
-0.000396411
-0.00053836
-0.000395081
-0.00053735
-0.000535961
-0.000394819
-0.000396433
-0.00053836
-0.000468032
-0.000468067
-0.000468054
-0.00044842
-0.00044843
-0.000448442
-0.000448462
-0.000521229
-0.000416909
-0.000466431
-0.000448948
-0.000408136
-0.000509713
-0.000450069
-0.000395136
-0.000537364
-0.000521252
-0.000466445
-0.000416947
-0.000449004
-0.000408147
-0.000450077
-0.00050975
-0.000400301
-0.000400309
-0.000486279
-0.000530641
-0.000530649
-0.000530782
-0.00035574
-0.000356964
-0.000533759
-0.000356299
-0.000532532
-0.000530796
-0.000355771
-0.000356977
-0.000533745
-0.00044677
-0.000446787
-0.000446807
-0.00043304
-0.000433038
-0.000433031
-0.000433014
-0.000514639
-0.000380644
-0.000442785
-0.000435662
-0.000370972
-0.000502871
-0.000437629
-0.000356329
-0.000532543
-0.000514647
-0.000442794
-0.000380682
-0.000435684
-0.000370987
-0.000437624
-0.000502868
-0.000362055
-0.00036207
-0.000477759
-0.000525481
-0.000525488
-0.000514622
-0.000335687
-0.000336849
-0.000517579
-0.000336289
-0.000516392
-0.000514611
-0.000335694
-0.000336834
-0.000517557
-0.000428691
-0.000428678
-0.000428679
-0.000415602
-0.000415613
-0.0004156
-0.000415613
-0.000498286
-0.000360979
-0.000424654
-0.000418298
-0.000351252
-0.000486527
-0.0004203
-0.000336275
-0.00051636
-0.000498309
-0.000424635
-0.000360973
-0.000418269
-0.000351196
-0.000420279
-0.000486495
-0.000342081
-0.000342077
-0.000461055
-0.000509309
-0.000509317
-0.000497255
-0.000318066
-0.000319211
-0.000500226
-0.000318674
-0.000499004
-0.000497247
-0.000318073
-0.000319184
-0.000500193
-0.000411243
-0.00041123
-0.000411242
-0.000398149
-0.000398161
-0.000398138
-0.000398148
-0.000480953
-0.000343389
-0.000407209
-0.000400808
-0.00033361
-0.000469139
-0.000402846
-0.000318649
-0.000498973
-0.000480969
-0.000407188
-0.000343379
-0.000400786
-0.000333549
-0.000402823
-0.000469104
-0.000324514
-0.000324508
-0.000443307
-0.000491925
-0.000491926
-0.00047984
-0.000300656
-0.000301848
-0.000482871
-0.000301231
-0.000481661
-0.000479814
-0.00030066
-0.000301862
-0.000482822
-0.00039382
-0.000393791
-0.000393798
-0.000380831
-0.00038085
-0.000380838
-0.000380817
-0.000463522
-0.000325947
-0.000389796
-0.000383432
-0.000316213
-0.000451784
-0.00038547
-0.000301198
-0.000481623
-0.000463507
-0.000389769
-0.000325931
-0.000383399
-0.000316178
-0.000385443
-0.000451739
-0.000307024
-0.000307019
-0.000426034
-0.000474549
-0.000474543
-0.000462538
-0.000283365
-0.00028461
-0.000465571
-0.00028395
-0.000464343
-0.000462544
-0.000283371
-0.0002846
-0.000465555
-0.000376515
-0.000376526
-0.000376508
-0.000363561
-0.000363552
-0.00036356
-0.000363556
-0.000446161
-0.000308656
-0.000372494
-0.000366119
-0.000298997
-0.000434439
-0.000368169
-0.000283943
-0.000464378
-0.000446193
-0.000372492
-0.00030867
-0.000366159
-0.000298966
-0.000368175
-0.000434462
-0.000289737
-0.000289727
-0.000408927
-0.00045727
-0.000457269
-0.000445237
-0.000266061
-0.000267219
-0.000448209
-0.000266643
-0.000446977
-0.000445212
-0.000266081
-0.000267243
-0.000448171
-0.000359213
-0.000359216
-0.000359214
-0.000346142
-0.000346131
-0.000346116
-0.000346099
-0.000428877
-0.000291358
-0.000355174
-0.000348796
-0.000281643
-0.000417091
-0.000350814
-0.000266653
-0.00044697
-0.000428891
-0.00035517
-0.000291379
-0.000348816
-0.00028163
-0.000350812
-0.000417085
-0.000272479
-0.000272479
-0.000391402
-0.000439882
-0.000439881
-0.000427775
-0.000248607
-0.000249725
-0.000430696
-0.000249223
-0.000429466
-0.00042778
-0.000248619
-0.000249717
-0.000430673
-0.00034176
-0.000341739
-0.000341719
-0.000328633
-0.000328639
-0.000328658
-0.000328621
-0.000411477
-0.000273915
-0.0003377
-0.000331316
-0.000264095
-0.000399605
-0.000333328
-0.000249202
-0.000429448
-0.000411567
-0.000337674
-0.000273894
-0.000331291
-0.000264002
-0.000333306
-0.000399593
-0.000255031
-0.000255021
-0.000373832
-0.00042232
-0.000422328
-0.000410261
-0.000231117
-0.00023224
-0.000413221
-0.000231733
-0.000411974
-0.000410258
-0.000231118
-0.000232248
-0.000413189
-0.000324271
-0.000324289
-0.000324274
-0.000311181
-0.000311184
-0.000311188
-0.000311218
-0.000394074
-0.000256415
-0.000320231
-0.000313833
-0.000246543
-0.000382148
-0.000315875
-0.00023175
-0.000411973
-0.000394088
-0.000320233
-0.000256443
-0.000313845
-0.000246483
-0.000315875
-0.000382138
-0.000237585
-0.000237581
-0.000356706
-0.000404929
-0.000404927
-0.000392878
-0.000213662
-0.000214835
-0.000395878
-0.000214263
-0.000394648
-0.000392875
-0.000213676
-0.000214848
-0.000395847
-0.000306838
-0.000306835
-0.000306848
-0.000293857
-0.000293868
-0.000293835
-0.000293836
-0.000376527
-0.000238975
-0.000302821
-0.000296424
-0.000229214
-0.00036477
-0.00029849
-0.000214259
-0.000394628
-0.000376561
-0.000302805
-0.000238981
-0.000296411
-0.000229174
-0.000298466
-0.000364739
-0.000220115
-0.000220112
-0.000339041
-0.00038753
-0.000387535
-0.000375539
-0.000196396
-0.000197632
-0.000378579
-0.000196968
-0.000377375
-0.00019639
-0.000197606
-0.000289544
-0.000289528
-0.000289527
-0.000359179
-0.000221711
-0.000285527
-0.000279163
-0.000212062
-0.000347486
-0.0002812
-0.00019693
-0.00035921
-0.000285505
-0.000221681
-0.000211999
-0.000281198
-0.00020278
-0.000202767
-0.000321964
-0.000370307
-0.00037031
-0.00052392
-0.000456873
-0.000456815
-0.000500157
-0.000477331
-0.000500144
-0.000477292
-0.000405316
-0.000475901
-0.000475903
-0.0004781
-0.000478062
-0.000528028
-0.000512095
-0.000457269
-0.000498199
-0.000528022
-0.000512083
-0.00045716
-0.000498196
-0.000472751
-0.00049108
-0.000474432
-0.000496553
-0.000472752
-0.000491126
-0.000474469
-0.000496558
-0.000441687
-0.000388413
-0.00050333
-0.000440112
-0.000477582
-0.00038639
-0.000491713
-0.000441671
-0.000388425
-0.000503377
-0.000440115
-0.000477574
-0.000386386
-0.000491706
-0.00052387
-0.00045688
-0.000456789
-0.000500198
-0.000477368
-0.000405244
-0.000475934
-0.000475945
-0.000478104
-0.000478054
-0.000500207
-0.000477322
-0.000528008
-0.000512091
-0.000457201
-0.000498197
-0.00052797
-0.000512076
-0.000498186
-0.000457118
-0.000472726
-0.000491073
-0.000474403
-0.00049655
-0.000441682
-0.000388415
-0.000503332
-0.00044011
-0.000477549
-0.000386388
-0.000491706
-0.000472725
-0.000491137
-0.000474412
-0.000496555
-0.000441656
-0.000388422
-0.000440101
-0.000503372
-0.000386383
-0.000477538
-0.00049171
-0.0004792
-0.000508544
-0.000491945
-0.000491942
-0.000479196
-0.000508531
-0.000491937
-0.000491936
-0.000479196
-0.000508515
-0.000491938
-0.000491934
-0.000406344
-0.0003907
-0.000445001
-0.000445007
-0.000397989
-0.000397986
-0.000448772
-0.000406345
-0.000390698
-0.000445003
-0.00044501
-0.000397988
-0.000397987
-0.000448772
-0.00040634
-0.000390693
-0.000445005
-0.000445008
-0.000397982
-0.000397983
-0.000448764
-0.000406341
-0.000390673
-0.000445006
-0.000445005
-0.000397984
-0.000397981
-0.000448765
-0.000527998
-0.000512063
-0.000498188
-0.000457135
-0.000441643
-0.000388415
-0.000503376
-0.000440114
-0.00047754
-0.000386384
-0.000491717
-0.000472732
-0.000491153
-0.000474412
-0.000496565
-0.000441623
-0.000388386
-0.000440105
-0.00050333
-0.000386382
-0.000477543
-0.000491722
-0.000472706
-0.000491094
-0.000474411
-0.000496561
-0.000523865
-0.000456846
-0.000456779
-0.000500198
-0.000477327
-0.000405245
-0.000475936
-0.000475877
-0.000478066
-0.000478061
-0.000500162
-0.000477346
-0.000527985
-0.000512052
-0.000498177
-0.000457102
-0.000441628
-0.000388417
-0.000440099
-0.000503318
-0.000386378
-0.000477546
-0.000491707
-0.000441615
-0.00038838
-0.000440107
-0.000503335
-0.000386374
-0.000477515
-0.000491704
-0.00047271
-0.000491089
-0.000474436
-0.000496544
-0.000472691
-0.000491095
-0.000474391
-0.000496545
-0.000405279
-0.000475889
-0.000475896
-0.000478075
-0.00047804
-0.000500154
-0.00047732
-0.000500156
-0.000477301
-0.000436444
-0.000508098
-0.00043646
-0.000508089
-0.00046472
-0.000464717
-0.000471115
-0.000501185
-0.000501174
-0.000527428
-0.000427937
-0.000527432
-0.000427943
-0.000468865
-0.000521022
-0.000521035
-0.000433311
-0.000433327
-0.000505272
-0.000462508
-0.000473425
-0.000508222
-0.000496469
-0.000482328
-0.000514976
-0.000461826
-0.000463385
-0.000490033
-0.000448765
-0.000496466
-0.00048234
-0.000514975
-0.000461828
-0.000463384
-0.000490014
-0.000448767
-0.00043149
-0.000527914
-0.000428478
-0.000525852
-0.000431486
-0.000527902
-0.000428464
-0.000525853
-0.000439945
-0.000476303
-0.000503255
-0.000451517
-0.000447599
-0.000481663
-0.00051301
-0.000439942
-0.000476295
-0.000503236
-0.000451529
-0.000447592
-0.000481662
-0.000513009
-0.000464743
-0.000464722
-0.000471121
-0.000501185
-0.000501194
-0.000436464
-0.000508099
-0.000527416
-0.000427913
-0.000468853
-0.000521014
-0.000521014
-0.000433283
-0.000433282
-0.000527423
-0.000427909
-0.000496454
-0.000482335
-0.000514969
-0.000461824
-0.000463392
-0.000490019
-0.000448774
-0.00050525
-0.000462503
-0.000473431
-0.000508227
-0.000496454
-0.000514972
-0.000482332
-0.000461833
-0.000463393
-0.00044876
-0.000490022
-0.000431517
-0.000527916
-0.000428488
-0.000525868
-0.000439961
-0.000476311
-0.000503253
-0.000451535
-0.000447611
-0.000481674
-0.000513024
-0.000431517
-0.00052794
-0.000428483
-0.00052587
-0.000439964
-0.000476312
-0.000451538
-0.000503272
-0.000481671
-0.000447615
-0.000513025
-0.000505291
-0.000462521
-0.000473445
-0.000508247
-0.000496488
-0.00051499
-0.000482377
-0.000461839
-0.00046341
-0.000448766
-0.000490048
-0.000505288
-0.000462575
-0.000473462
-0.000508259
-0.000439938
-0.000476306
-0.00050325
-0.000451515
-0.000447578
-0.00048167
-0.000513006
-0.000431503
-0.000527918
-0.00042845
-0.000525846
-0.000439942
-0.000476312
-0.000451523
-0.000503268
-0.000481668
-0.000447595
-0.000513005
-0.000431507
-0.00052794
-0.000428465
-0.000525845
-0.000464727
-0.000464708
-0.000471114
-0.000501183
-0.000501189
-0.000436441
-0.000508105
-0.000527453
-0.000427943
-0.000468875
-0.000521046
-0.000521035
-0.000433323
-0.000433325
-0.000527447
-0.000427937
-0.000496475
-0.000514988
-0.000482364
-0.000461836
-0.000463403
-0.000448775
-0.000490038
-0.000505262
-0.000462476
-0.000473432
-0.000508247
-0.000505278
-0.000462567
-0.000473452
-0.000508245
-0.000439947
-0.000476323
-0.000451522
-0.000503273
-0.000481673
-0.000447597
-0.000513017
-0.000439946
-0.000476319
-0.000451538
-0.000503257
-0.000481676
-0.00044761
-0.000513012
-0.000431514
-0.00052794
-0.000428468
-0.000525859
-0.000431502
-0.000527924
-0.000428484
-0.000525853
-0.00043651
-0.000508113
-0.000436487
-0.00050811
-0.000468878
-0.00052103
-0.000521039
-0.000433325
-0.000433344
-0.000527447
-0.000427936
-0.000527441
-0.000427946
-0.000395098
-0.000537349
-0.000395101
-0.000537354
-0.000400284
-0.000400289
-0.000486193
-0.000530602
-0.000530614
-0.000537779
-0.000371594
-0.000537775
-0.000371597
-0.000424099
-0.000530814
-0.000530817
-0.000377109
-0.000377117
-0.000535944
-0.000394799
-0.000396418
-0.000538355
-0.000521218
-0.000416931
-0.000466436
-0.000449002
-0.000408139
-0.000509718
-0.000450067
-0.000521216
-0.000416926
-0.000466417
-0.000448993
-0.000408143
-0.000509708
-0.000450064
-0.00037228
-0.000538934
-0.000371035
-0.000536111
-0.000372289
-0.000538925
-0.000371045
-0.00053611
-0.000385472
-0.000451602
-0.000508631
-0.000444632
-0.000395136
-0.000454118
-0.000520339
-0.00038548
-0.000451604
-0.000508612
-0.000444633
-0.000395153
-0.000454122
-0.000520341
-0.000400267
-0.000400261
-0.000486116
-0.000530606
-0.000530607
-0.000395077
-0.000537352
-0.000537774
-0.000371585
-0.000423913
-0.000530812
-0.000530814
-0.000377104
-0.000377108
-0.000537785
-0.000371594
-0.000521238
-0.000416941
-0.000466436
-0.000448966
-0.00040815
-0.000509706
-0.000450075
-0.000535962
-0.00039485
-0.00039644
-0.000538368
-0.000521239
-0.000466434
-0.000416983
-0.00044903
-0.000408156
-0.00045007
-0.000509724
-0.000372302
-0.000538923
-0.000371059
-0.000536118
-0.000385489
-0.000451636
-0.000508616
-0.000444646
-0.000395169
-0.000454134
-0.000520351
-0.000372307
-0.000538937
-0.000371074
-0.000536119
-0.000385493
-0.000451619
-0.000444639
-0.000508627
-0.000454131
-0.00039518
-0.000520356
-0.000535958
-0.000394783
-0.000396407
-0.000538367
-0.000521232
-0.000466427
-0.000416941
-0.000449039
-0.000408142
-0.000450068
-0.000509755
-0.000535961
-0.000394813
-0.000396412
-0.000538394
-0.00038547
-0.000451637
-0.000508641
-0.000444639
-0.000395143
-0.000454134
-0.00052038
-0.000372275
-0.00053895
-0.000371038
-0.000536147
-0.000385478
-0.000451652
-0.000444643
-0.000508682
-0.000454139
-0.000395188
-0.000520388
-0.000372283
-0.000538979
-0.00037108
-0.000536151
-0.000400323
-0.000400307
-0.000486279
-0.000530623
-0.000530635
-0.000395123
-0.000537379
-0.000537788
-0.000371618
-0.000424299
-0.00053083
-0.000530823
-0.000377142
-0.000377149
-0.000537788
-0.000371636
-0.00052125
-0.000466432
-0.000416953
-0.000448998
-0.000408151
-0.000450076
-0.000509736
-0.000535978
-0.000394825
-0.000396429
-0.000538392
-0.000535975
-0.00039483
-0.000396432
-0.000538388
-0.000385487
-0.000451651
-0.000444645
-0.000508645
-0.000454145
-0.000395172
-0.000520381
-0.000385499
-0.000451691
-0.000444659
-0.000508672
-0.000454155
-0.000395218
-0.000520392
-0.0003723
-0.000538946
-0.000371074
-0.000536144
-0.00037231
-0.000538972
-0.0003711
-0.000536149
-0.000395114
-0.000537389
-0.000395117
-0.000537389
-0.000424303
-0.000530867
-0.000530873
-0.000377163
-0.000377169
-0.000537828
-0.000371646
-0.000537827
-0.000371645
-0.000356329
-0.000532568
-0.000356332
-0.000532564
-0.000362046
-0.000362059
-0.000478153
-0.000525538
-0.000525544
-0.000524836
-0.000345545
-0.000524828
-0.000345536
-0.000400936
-0.000517758
-0.000517763
-0.000351357
-0.000351367
-0.000530777
-0.000355743
-0.000356961
-0.000533722
-0.000514643
-0.000380674
-0.000442791
-0.000435725
-0.000371003
-0.000502896
-0.000437639
-0.00051464
-0.000380675
-0.000442784
-0.000435667
-0.000371005
-0.000502844
-0.000437627
-0.000346091
-0.000526054
-0.000344934
-0.000523076
-0.000346089
-0.000526036
-0.000344927
-0.000523072
-0.000360392
-0.000431388
-0.000494997
-0.000429004
-0.000370164
-0.000433367
-0.000506791
-0.000360394
-0.000431355
-0.000494987
-0.000429002
-0.000370149
-0.000433361
-0.000506793
-0.00036201
-0.000362004
-0.000478044
-0.000525498
-0.000525496
-0.000356296
-0.00053254
-0.000524839
-0.00034551
-0.000400627
-0.000517774
-0.000517764
-0.000351304
-0.000351305
-0.000524839
-0.000345502
-0.00051466
-0.000380705
-0.000442801
-0.000435725
-0.000371012
-0.000502881
-0.000437645
-0.000530795
-0.000355765
-0.000356972
-0.000533735
-0.000514664
-0.000442791
-0.000380698
-0.000435689
-0.000371006
-0.000437629
-0.000502864
-0.000346092
-0.000526036
-0.000344949
-0.000523079
-0.000360386
-0.000431391
-0.000494979
-0.000429004
-0.000370182
-0.000433368
-0.0005068
-0.000346087
-0.000526036
-0.000344924
-0.000523078
-0.000360377
-0.000431362
-0.000428993
-0.000494986
-0.000433355
-0.000370152
-0.000506807
-0.00053079
-0.000355719
-0.000356926
-0.000533743
-0.00051464
-0.000442792
-0.000380686
-0.000435662
-0.000370967
-0.000437623
-0.000502855
-0.000530788
-0.000355746
-0.00035693
-0.00053373
-0.000360389
-0.000431353
-0.000495002
-0.000429003
-0.00037012
-0.000433361
-0.000506748
-0.000346074
-0.000526045
-0.000344906
-0.000523048
-0.000360386
-0.000431325
-0.000428992
-0.000494965
-0.000433366
-0.000370112
-0.000506743
-0.000346069
-0.000526016
-0.000344894
-0.000523041
-0.000362048
-0.000362046
-0.000477926
-0.000525512
-0.000525493
-0.000356336
-0.000532531
-0.000524829
-0.000345513
-0.000400826
-0.000517764
-0.000517741
-0.000351325
-0.000351337
-0.000524813
-0.000345529
-0.000514653
-0.000442804
-0.000380716
-0.000435661
-0.000370987
-0.000437623
-0.000502849
-0.000530785
-0.000355753
-0.000356949
-0.000533729
-0.000530787
-0.000355779
-0.000356952
-0.000533723
-0.000360363
-0.000431367
-0.000428989
-0.000494986
-0.000433355
-0.000370142
-0.000506767
-0.000360355
-0.00043131
-0.000428971
-0.000494959
-0.000433323
-0.000370114
-0.000506772
-0.000346062
-0.000526023
-0.000344924
-0.000523048
-0.000346053
-0.000526009
-0.000344904
-0.000523048
-0.000356343
-0.000532526
-0.000356347
-0.000532526
-0.000400808
-0.00051772
-0.000517727
-0.000351272
-0.000351275
-0.000524802
-0.000345494
-0.0005248
-0.000345482
-0.000336303
-0.000516356
-0.000336287
-0.000516342
-0.000342111
-0.000342116
-0.000460906
-0.000509263
-0.000509264
-0.00050769
-0.000327456
-0.000507675
-0.000327436
-0.000383215
-0.000500595
-0.000500593
-0.000333271
-0.000333278
-0.000514623
-0.000335695
-0.000336853
-0.000517596
-0.00049831
-0.000360977
-0.000424644
-0.000418264
-0.000351213
-0.000486485
-0.000420286
-0.000498314
-0.00036099
-0.00042465
-0.000418294
-0.000351216
-0.0004865
-0.000420299
-0.000327993
-0.000508921
-0.000326838
-0.000505964
-0.000328003
-0.000508928
-0.000326856
-0.000505964
-0.000342371
-0.000413899
-0.000477812
-0.000411555
-0.000352147
-0.000415922
-0.000489647
-0.000342377
-0.000413917
-0.000477813
-0.000411565
-0.000352172
-0.000415933
-0.00048965
-0.000342102
-0.000342117
-0.000461202
-0.000509321
-0.000509321
-0.000336304
-0.000516404
-0.000507714
-0.000327452
-0.000383091
-0.000500634
-0.000500644
-0.000333279
-0.000333293
-0.000507738
-0.00032747
-0.000498306
-0.000360984
-0.00042464
-0.000418257
-0.000351195
-0.000486464
-0.00042028
-0.000514614
-0.000335678
-0.000336835
-0.000517575
-0.000498314
-0.000424637
-0.000360974
-0.000418269
-0.000351188
-0.000420279
-0.00048648
-0.000327971
-0.000508896
-0.000326847
-0.000505948
-0.000342349
-0.000413892
-0.000477786
-0.000411549
-0.000352159
-0.000415915
-0.000489643
-0.000327974
-0.000508907
-0.000326831
-0.000505949
-0.000342342
-0.000413899
-0.000411547
-0.000477797
-0.000415914
-0.000352147
-0.000489649
-0.000514616
-0.000335698
-0.000336867
-0.000517617
-0.000498284
-0.000424644
-0.000360966
-0.0004183
-0.000351248
-0.000420293
-0.000486516
-0.000514612
-0.000335684
-0.000336864
-0.000517599
-0.000342397
-0.000413921
-0.000477852
-0.000411572
-0.000352163
-0.000415936
-0.000489659
-0.000327996
-0.000508966
-0.00032686
-0.000505987
-0.000342396
-0.000413929
-0.000411568
-0.000477842
-0.000415934
-0.000352168
-0.000489656
-0.000328001
-0.000508954
-0.000326853
-0.000505983
-0.000342102
-0.000342116
-0.000460918
-0.000509287
-0.000509275
-0.000336303
-0.00051636
-0.000507684
-0.00032743
-0.000383293
-0.000500604
-0.000500606
-0.00033327
-0.000333289
-0.000507697
-0.00032746
-0.000498323
-0.000424632
-0.000360955
-0.000418294
-0.000351187
-0.000420283
-0.00048651
-0.000514622
-0.000335689
-0.000336826
-0.000517582
-0.000514626
-0.00033568
-0.000336816
-0.000517587
-0.000342338
-0.000413902
-0.000411552
-0.000477822
-0.000415917
-0.000352147
-0.000489683
-0.000342331
-0.000413921
-0.000411556
-0.000477829
-0.000415923
-0.000352155
-0.000489692
-0.000327957
-0.000508932
-0.000326845
-0.000505988
-0.000327963
-0.000508937
-0.000326846
-0.00050599
-0.000336289
-0.000516389
-0.00033627
-0.000516384
-0.000383376
-0.000500639
-0.000500644
-0.000333285
-0.000333281
-0.000507729
-0.000327472
-0.00050772
-0.000327446
-0.000318681
-0.000498995
-0.000318662
-0.000498974
-0.000324492
-0.000324496
-0.000443456
-0.000491897
-0.000491891
-0.00049032
-0.000309931
-0.000490288
-0.000309905
-0.000365422
-0.000483223
-0.000483204
-0.000315731
-0.000315731
-0.000497255
-0.000318078
-0.000319223
-0.000500219
-0.000480931
-0.000343376
-0.000407191
-0.000400786
-0.000333598
-0.000469107
-0.000402829
-0.000480932
-0.000343401
-0.000407201
-0.000400802
-0.000333603
-0.000469098
-0.000402839
-0.000310482
-0.000491537
-0.000309328
-0.000488538
-0.000310497
-0.000491519
-0.000309338
-0.000488535
-0.000324889
-0.000396422
-0.00046042
-0.000394133
-0.00033464
-0.000398474
-0.00047219
-0.000324895
-0.000396442
-0.000460399
-0.000394142
-0.000334667
-0.000398484
-0.000472189
-0.000324499
-0.000324512
-0.000443569
-0.000491922
-0.00049193
-0.000318699
-0.000499025
-0.000490314
-0.000309924
-0.000365392
-0.000483233
-0.000483247
-0.00031575
-0.000315757
-0.00049034
-0.000309948
-0.000480925
-0.000343387
-0.000407183
-0.000400778
-0.000333571
-0.000469075
-0.00040282
-0.000497249
-0.000318049
-0.000319187
-0.000500198
-0.000480932
-0.000407181
-0.000343374
-0.000400777
-0.000333562
-0.000402815
-0.000469078
-0.000310466
-0.000491491
-0.000309324
-0.000488521
-0.000324866
-0.000396413
-0.000460377
-0.000394128
-0.000334647
-0.000398465
-0.000472167
-0.000310467
-0.00049149
-0.000309302
-0.000488523
-0.000324857
-0.000396409
-0.00039412
-0.000460371
-0.000398459
-0.000334631
-0.000472172
-0.000497283
-0.000318085
-0.000319211
-0.000500254
-0.00048095
-0.000407208
-0.000343392
-0.000400819
-0.000333609
-0.000402842
-0.000469127
-0.000497279
-0.000318079
-0.000319215
-0.000500243
-0.000324884
-0.000396441
-0.000460445
-0.000394136
-0.000334647
-0.000398483
-0.000472232
-0.00031048
-0.00049156
-0.00030934
-0.000488578
-0.000324882
-0.000396447
-0.000394131
-0.000460419
-0.000398482
-0.000334653
-0.000472228
-0.000310485
-0.00049154
-0.000309333
-0.000488574
-0.000324491
-0.000324513
-0.000443237
-0.000491886
-0.000491885
-0.000318691
-0.000498981
-0.000490277
-0.000309891
-0.000365549
-0.000483191
-0.000483192
-0.000315724
-0.000315743
-0.000490286
-0.000309935
-0.000480978
-0.000407196
-0.000343381
-0.00040081
-0.000333541
-0.000402831
-0.000469116
-0.000497276
-0.000318075
-0.00031917
-0.000500216
-0.000497279
-0.000318073
-0.000319174
-0.000500223
-0.000324828
-0.000396412
-0.000394112
-0.000460399
-0.000398459
-0.000334633
-0.000472225
-0.00032482
-0.000396439
-0.00039412
-0.000460402
-0.000398471
-0.000334643
-0.000472232
-0.000310437
-0.000491511
-0.000309327
-0.000488552
-0.000310443
-0.000491513
-0.000309326
-0.000488555
-0.0003187
-0.000499015
-0.000318678
-0.000499004
-0.00036584
-0.000483218
-0.000483214
-0.000315762
-0.000315755
-0.000490313
-0.000309946
-0.000490297
-0.000309923
-0.000301245
-0.000481668
-0.000301228
-0.000481636
-0.000307045
-0.00030705
-0.000426177
-0.000474575
-0.000474554
-0.000473006
-0.000292605
-0.00047299
-0.000292593
-0.000348397
-0.000465913
-0.000465905
-0.000298414
-0.00029842
-0.000479836
-0.00030066
-0.000301861
-0.000482851
-0.000463475
-0.000325964
-0.000389802
-0.000383447
-0.000316274
-0.000451764
-0.000385484
-0.000463473
-0.000325988
-0.000389807
-0.000383435
-0.000316277
-0.000451739
-0.000385484
-0.000293249
-0.000474204
-0.000292024
-0.000471169
-0.00029326
-0.000474197
-0.000292034
-0.000471166
-0.000307683
-0.000379115
-0.000443098
-0.000376828
-0.000317332
-0.000381157
-0.000454796
-0.000307688
-0.000379128
-0.000443082
-0.000376831
-0.000317358
-0.000381161
-0.000454797
-0.000307053
-0.000307045
-0.000426406
-0.000474581
-0.0004746
-0.000301238
-0.000481691
-0.000473008
-0.0002926
-0.000348263
-0.00046592
-0.000465924
-0.000298416
-0.000298404
-0.000473019
-0.000292594
-0.000463441
-0.000325978
-0.000389797
-0.00038344
-0.00031628
-0.000451721
-0.000385477
-0.000479814
-0.000300632
-0.000301857
-0.00048282
-0.000463447
-0.000389784
-0.000325953
-0.000383401
-0.000316268
-0.000385461
-0.000451711
-0.000293262
-0.000474177
-0.00029203
-0.000471159
-0.00030769
-0.000379109
-0.000443068
-0.000376823
-0.000317346
-0.000381149
-0.000454784
-0.000293256
-0.000474199
-0.00029201
-0.000471162
-0.000307681
-0.000379093
-0.000376815
-0.000443085
-0.000381138
-0.000317327
-0.00045479
-0.000479884
-0.000300636
-0.0003018
-0.000482901
-0.000463515
-0.000389788
-0.000325942
-0.000383393
-0.00031621
-0.000385455
-0.000451738
-0.000479879
-0.000300619
-0.000301802
-0.00048286
-0.000307605
-0.000379124
-0.000443112
-0.000376824
-0.000317308
-0.000381148
-0.000454824
-0.000293174
-0.00047422
-0.000291999
-0.000471195
-0.000307598
-0.000379062
-0.000376805
-0.000443082
-0.000381129
-0.000317276
-0.000454819
-0.000293172
-0.000474206
-0.000291961
-0.000471191
-0.000307019
-0.000307024
-0.000426219
-0.000474536
-0.000474538
-0.000301231
-0.000481634
-0.000473007
-0.000292572
-0.000348089
-0.000465918
-0.000465909
-0.000298386
-0.000298384
-0.000473003
-0.000292585
-0.000463512
-0.000389776
-0.000325934
-0.000383383
-0.000316169
-0.000385442
-0.000451719
-0.000479857
-0.000300633
-0.000301769
-0.000482847
-0.000479859
-0.000300617
-0.000301774
-0.00048283
-0.000307571
-0.000379089
-0.000376809
-0.000443103
-0.000381125
-0.000317293
-0.000454835
-0.00030756
-0.000379053
-0.000376797
-0.00044307
-0.000381117
-0.000317267
-0.000454838
-0.000293147
-0.000474207
-0.000291992
-0.000471197
-0.000293149
-0.000474183
-0.000291958
-0.000471195
-0.000301222
-0.000481642
-0.000301203
-0.000481624