/*--------------------------------*- C++ -*----------------------------------*\
| =========                 |                                                 |
| \\      /  F ield         | OpenFOAM: The Open Source CFD Toolbox           |
|  \\    /   O peration     | Version:  2206                                  |
|   \\  /    A nd           | Website:  www.openfoam.com                      |
|    \\/     M anipulation  |                                                 |
\*---------------------------------------------------------------------------*/
FoamFile
{
    version     2.0;
    format      ascii;
    arch        "LSB;label=32;scalar=64";
    class       surfaceScalarField;
    location    "2.5";
    object      phi;
}
// * * * * * * * * * * * * * * * * * * * * * * * * * * * * * * * * * * * * * //

dimensions      [0 3 -1 0 0 0 0];

oriented        oriented;

internalField   nonuniform List<scalar> 
83438
(
-0.00104218
-1.41791e-05
-1.40753e-05
9.18334e-06
9.01267e-06
0.00105224
-0.000261446
-5.54181e-06
1.4056e-05
6.62233e-06
0.00105864
-4.41052e-06
-1.50009e-06
-2.05305e-06
-2.37526e-06
-6.38867e-06
-6.86957e-06
-2.94336e-06
-0.000263271
-0.000259715
-0.000262804
-0.000261423
-5.54699e-06
1.40849e-05
6.71195e-06
0.00105843
-4.41583e-06
-1.51041e-06
-2.06081e-06
-2.3795e-06
-6.38279e-06
-6.86555e-06
-2.9455e-06
-0.000259687
-0.000263243
-0.000262768
-0.000260506
5.5174e-06
5.55751e-06
-4.76542e-06
-4.75943e-06
0.000258956
-3.64551e-07
-3.65372e-07
-0.00105725
2.98468e-07
2.98538e-07
0.00105738
-0.00105839
-1.22336e-06
3.59776e-07
1.65033e-07
0.00105825
-2.57101e-07
1.11668e-06
1.79883e-07
7.81303e-07
-2.41089e-07
-8.94317e-07
1.50628e-07
-0.00105807
-1.21816e-06
3.70176e-07
1.60256e-07
0.00105793
-2.57168e-07
1.11131e-06
1.79779e-07
7.7859e-07
-2.43703e-07
-8.94138e-07
1.53292e-07
-0.000260321
1.25611e-06
1.21825e-06
-2.55192e-07
-2.57831e-07
0.00025836
-5.05982e-09
-5.1305e-09
-0.00105747
8.66269e-09
8.62345e-09
0.00105746
-0.00105816
-1.15122e-06
1.01118e-08
2.57817e-09
0.00105816
-2.08422e-07
1.151e-06
2.06735e-07
8.17733e-07
-1.88771e-07
-8.25026e-07
1.83637e-07
-0.00105784
-1.14596e-06
5.13185e-09
7.6197e-09
0.00105784
-2.08455e-07
1.14571e-06
2.06721e-07
8.17558e-07
-1.88733e-07
-8.19623e-07
1.86252e-07
-0.000260245
1.18137e-06
1.14604e-06
-2.01631e-07
-2.09222e-07
0.000258329
-5.13429e-11
-5.15705e-11
-0.00105747
-1.25797e-10
-1.1826e-10
0.00105747
-0.00105816
-1.15062e-06
5.38036e-11
7.50204e-10
0.00105816
-2.10458e-07
1.15148e-06
2.09936e-07
8.18538e-07
-1.85202e-07
-8.18787e-07
1.84429e-07
-0.00105783
-1.14533e-06
5.27701e-11
7.45658e-10
0.00105783
-2.07766e-07
1.14618e-06
2.07242e-07
8.18371e-07
-1.87766e-07
-8.18655e-07
1.87026e-07
-0.00026024
1.17814e-06
1.14544e-06
-2.00993e-07
-2.06135e-07
0.000258323
2.69943e-10
3.24823e-10
-0.00105747
-3.33077e-10
-2.97732e-10
0.00105747
-0.00105816
-1.15061e-06
-2.90925e-10
7.38751e-10
0.00105816
-2.10454e-07
1.15148e-06
2.09934e-07
8.18594e-07
-1.8515e-07
-8.1873e-07
1.8448e-07
-0.00105783
-1.1453e-06
-3.16063e-10
6.71809e-10
0.00105783
-2.07736e-07
1.14621e-06
2.07271e-07
8.18419e-07
-1.87719e-07
-8.18604e-07
1.87072e-07
-0.00026024
1.1781e-06
1.14541e-06
-2.00969e-07
-2.06107e-07
0.000258323
2.75319e-10
3.65576e-10
-0.00105747
-3.58349e-10
-2.98904e-10
0.00105747
-0.00105816
-1.15063e-06
-3.07444e-10
7.78416e-10
0.00105816
-2.10478e-07
1.15147e-06
2.09913e-07
8.18606e-07
-1.85144e-07
-8.18725e-07
1.84492e-07
-0.00105783
-1.1453e-06
-3.546e-10
6.56973e-10
0.00105783
-2.07731e-07
1.14622e-06
2.0728e-07
8.18429e-07
-1.87712e-07
-8.18598e-07
1.87082e-07
-0.00026024
1.1781e-06
1.14541e-06
-2.00964e-07
-2.06101e-07
0.000258323
2.79443e-10
3.36907e-10
-0.00105747
-3.23359e-10
-3.03744e-10
0.00105747
-0.00105816
-1.15059e-06
-3.49318e-10
6.90867e-10
0.00105816
-2.10432e-07
1.15151e-06
2.0996e-07
8.186e-07
-1.85138e-07
-8.18721e-07
1.84488e-07
-0.00105783
-1.1453e-06
-3.57396e-10
6.61189e-10
0.00105783
-2.07729e-07
1.14622e-06
2.07277e-07
8.18427e-07
-1.87709e-07
-8.18594e-07
1.8708e-07
-0.00026024
1.1781e-06
1.1454e-06
-2.00962e-07
-2.06101e-07
0.000258323
2.78737e-10
3.23219e-10
-0.00105747
-3.11527e-10
-3.08462e-10
0.00105747
-0.00105816
-1.15059e-06
-3.44463e-10
6.85574e-10
0.00105816
-2.10431e-07
1.15151e-06
2.09963e-07
8.18597e-07
-1.85146e-07
-8.18729e-07
1.84485e-07
-0.00105783
-1.1453e-06
-3.43357e-10
6.73469e-10
0.00105783
-2.07735e-07
1.14622e-06
2.07274e-07
8.18425e-07
-1.87716e-07
-8.18602e-07
1.87077e-07
-0.00026024
1.1781e-06
1.14541e-06
-2.00963e-07
-2.06105e-07
0.000258323
3.14017e-10
3.30775e-10
-0.00105747
-3.24985e-10
-3.2163e-10
0.00105747
-0.00105816
-1.15059e-06
-3.48942e-10
6.73955e-10
0.00105816
-2.10426e-07
1.15151e-06
2.09968e-07
8.186e-07
-1.85144e-07
-8.18728e-07
1.84488e-07
-0.00105783
-1.1453e-06
-3.43199e-10
6.64669e-10
0.00105783
-2.07732e-07
1.14622e-06
2.07278e-07
8.18428e-07
-1.87714e-07
-8.18602e-07
1.8708e-07
-0.00026024
1.1781e-06
1.14541e-06
-2.00963e-07
-2.06106e-07
0.000258323
2.90906e-10
3.33603e-10
-0.00105747
-3.14585e-10
-3.04721e-10
0.00105747
-0.00105816
-1.15059e-06
-3.60776e-10
6.78141e-10
0.00105816
-2.10427e-07
1.15151e-06
2.09966e-07
8.18604e-07
-1.85143e-07
-8.18725e-07
1.84491e-07
-0.00105783
-1.1453e-06
-3.55605e-10
6.64861e-10
0.00105783
-2.07733e-07
1.14622e-06
2.07279e-07
8.18432e-07
-1.87712e-07
-8.18598e-07
1.87084e-07
-0.00026024
1.1781e-06
1.1454e-06
-2.00961e-07
-2.06105e-07
0.000258323
2.51489e-10
3.24903e-10
-0.00105747
-2.90607e-10
-2.75501e-10
0.00105747
-0.00105816
-1.15059e-06
-3.87078e-10
6.77611e-10
0.00105816
-2.07752e-07
1.15151e-06
2.07292e-07
8.18608e-07
-1.85112e-07
-8.18719e-07
1.84473e-07
-0.00105783
-1.1453e-06
-3.75686e-10
6.60454e-10
0.00105783
-2.07728e-07
1.14622e-06
2.07281e-07
8.18436e-07
-1.87706e-07
-8.18592e-07
1.87087e-07
-0.00026024
1.1781e-06
1.1454e-06
-2.00958e-07
-2.06101e-07
0.000258323
3.56031e-10
3.5161e-10
-0.00105747
-3.3903e-10
-3.48165e-10
0.00105747
-0.00105816
-1.15058e-06
-3.89182e-10
6.45906e-10
0.00105816
-2.07743e-07
1.15152e-06
2.07306e-07
8.18608e-07
-1.85112e-07
-8.18719e-07
1.84481e-07
-0.00105783
-1.14529e-06
-3.61533e-10
6.57658e-10
0.00105783
-2.07726e-07
1.14622e-06
2.07282e-07
8.18432e-07
-1.87707e-07
-8.18593e-07
1.87084e-07
-0.00026024
1.1781e-06
1.1454e-06
-2.00957e-07
-2.061e-07
0.000258323
5.21999e-06
5.23073e-06
0.000260508
-0.00025917
-5.90122e-06
-5.88723e-06
5.09426e-06
0.000261394
-0.000258705
-5.94854e-06
3.38541e-06
-5.22001e-06
5.08925e-06
0.000261428
-0.000258721
-5.95658e-06
3.38053e-06
5.22057e-06
0.000260521
-0.000259173
-5.87266e-06
-5.91591e-06
5.08747e-06
0.000261458
-0.000258736
-5.9542e-06
3.37515e-06
5.0942e-06
-5.22226e-06
0.000261402
-0.000258706
3.39044e-06
-5.95888e-06
1.07511e-05
1.06569e-05
-0.000252649
-0.000256077
-0.000255118
-0.000255118
-6.41128e-06
-4.15291e-06
-6.65497e-06
-6.4117e-06
-4.15397e-06
-6.66056e-06
-5.08238e-06
0.0010422
1.07105e-05
1.06623e-05
-0.000252651
-0.000256074
-0.000255121
-0.000255121
-6.41389e-06
-4.15321e-06
-6.65769e-06
-6.40914e-06
-4.14871e-06
-6.65295e-06
-5.08203e-06
0.00104208
1.07709e-05
1.07231e-05
-0.000252644
-0.000256069
-0.000255118
-0.000255113
-6.4138e-06
-4.16071e-06
-6.65768e-06
-6.41399e-06
-4.15092e-06
-6.65528e-06
-5.09672e-06
-5.08486e-06
0.00104214
1.07662e-05
1.06673e-05
-0.000252646
-0.000256071
-0.000255118
-0.000255118
-6.40868e-06
-4.15561e-06
-6.65267e-06
-6.41412e-06
-4.15378e-06
-6.658e-06
-0.000258731
-5.94651e-06
3.37009e-06
-5.21987e-06
0.000261389
-0.000258703
3.38542e-06
-5.94855e-06
5.22308e-06
0.000260501
-0.000259158
-5.87508e-06
-5.91308e-06
-0.000258716
3.37773e-06
-5.94361e-06
-5.23079e-06
0.000261456
-0.000258731
3.37271e-06
-5.95164e-06
-0.000259168
-5.90117e-06
-5.88722e-06
5.51769e-06
5.55481e-06
-4.76558e-06
-4.75948e-06
0.000258961
-1.08627e-06
-1.05103e-06
0.000260332
-0.000258425
1.11673e-07
1.18995e-07
6.87502e-06
0.00105804
-4.40803e-06
-1.45379e-06
-2.04793e-06
-2.37616e-06
-6.40297e-06
-6.87514e-06
-2.95005e-06
-0.000263232
-0.000259671
-0.000262768
-5.52807e-06
1.41525e-05
6.81435e-06
0.00105841
-4.42704e-06
-1.44613e-06
-2.05101e-06
-2.387e-06
-6.43439e-06
-6.89202e-06
-2.96574e-06
-0.000263307
-0.000259702
-0.000262809
0.00105764
9.40751e-07
-0.00105792
4.34504e-07
-1.38786e-06
1.32931e-07
-3.47907e-07
-1.03396e-06
9.1023e-08
-3.48932e-07
7.14492e-07
1.09423e-06
0.00105806
9.40894e-07
-0.00105833
4.29264e-07
-1.39832e-06
1.41119e-07
-3.53274e-07
-1.03956e-06
9.10511e-08
-3.49018e-07
7.19909e-07
-4.76357e-06
-4.7563e-06
0.000258971
-1.0536e-06
0.000260357
-0.000258445
1.14299e-07
1.21518e-07
6.59593e-06
0.00105888
-4.43217e-06
-1.51288e-06
-2.0639e-06
-2.38555e-06
-6.4171e-06
-6.88765e-06
-2.96114e-06
-0.000263327
-0.00025973
-0.000262822
-5.5278e-06
1.41876e-05
6.90834e-06
0.00105819
-4.42693e-06
-1.45618e-06
-2.05603e-06
-2.38913e-06
-6.43387e-06
-6.8911e-06
-2.96547e-06
-0.000259671
-0.000263284
-0.000262781
0.00105865
9.4758e-07
-0.00105892
4.23422e-07
-1.35763e-06
1.30464e-07
-3.47875e-07
-1.03694e-06
9.09092e-08
-3.46682e-07
7.16945e-07
1.08381e-06
0.00105775
9.51558e-07
-0.00105805
4.44824e-07
-1.38785e-06
1.35681e-07
-3.47917e-07
-1.03679e-06
9.35915e-08
-3.51811e-07
7.1444e-07
1.41844e-05
6.89571e-06
0.00105799
-4.40792e-06
-1.45364e-06
-2.04527e-06
-2.37636e-06
-6.40307e-06
-2.95032e-06
-6.87297e-06
-0.000259666
-0.000263227
-0.000262763
9.4704e-07
-0.00105867
4.28607e-07
-1.35757e-06
1.33208e-07
-3.45128e-07
-1.0342e-06
8.83738e-08
7.11869e-07
-3.46489e-07
1.0837e-06
0.00105754
9.51245e-07
-0.00105784
4.44876e-07
-1.38783e-06
1.35632e-07
-3.47869e-07
-1.03659e-06
9.09295e-08
-3.48957e-07
7.17027e-07
-4.76863e-06
-4.75613e-06
0.000258951
-1.04561e-06
0.000260308
-0.000258407
1.11583e-07
1.16507e-07
1.40849e-05
6.61452e-06
0.00105883
-4.43239e-06
-1.51298e-06
-2.06405e-06
-2.3853e-06
-6.41689e-06
-2.96101e-06
-6.88488e-06
-0.00025972
-0.000263325
-0.000262817
9.52111e-07
-0.00105836
4.44454e-07
-1.35514e-06
1.30313e-07
-3.4796e-07
-1.03123e-06
9.36883e-08
7.11754e-07
-3.49047e-07
1.04577e-06
0.00105856
9.52501e-07
-0.00105884
4.34035e-07
-1.35255e-06
1.3037e-07
-3.45326e-07
-1.03421e-06
9.10288e-08
-3.49118e-07
7.11945e-07
-0.000258422
1.14044e-07
1.16556e-07
1.25613e-06
1.22079e-06
-2.52586e-07
-2.6037e-07
0.000258368
-1.18313e-06
-1.14526e-06
0.000260258
-0.000258334
1.98474e-07
2.06037e-07
1.65494e-07
0.0010575
-2.59732e-07
1.14935e-06
1.85084e-07
7.81245e-07
-2.4105e-07
-8.96838e-07
1.50656e-07
-1.26138e-06
3.64673e-07
1.60235e-07
0.00105792
-2.6242e-07
1.15734e-06
1.85197e-07
7.86645e-07
-2.43767e-07
-9.02389e-07
1.53316e-07
0.0010574
2.56928e-08
-0.00105741
9.7698e-09
-1.18736e-06
2.14019e-07
-2.17229e-07
-8.26174e-07
1.82721e-07
-1.89807e-07
8.16752e-07
1.18844e-06
0.00105784
2.56728e-08
-0.00105784
4.71063e-09
-1.19259e-06
2.14042e-07
-2.17255e-07
-8.28989e-07
1.82784e-07
-1.89867e-07
8.19576e-07
-2.52837e-07
-2.59988e-07
0.000258385
-1.15044e-06
0.000260284
-0.000258347
1.98672e-07
2.03411e-07
1.59902e-07
0.00105851
-2.57121e-07
1.11408e-06
1.826e-07
7.83881e-07
-2.43896e-07
-8.99692e-07
1.53316e-07
-1.25611e-06
3.70084e-07
1.65581e-07
0.0010576
-2.62471e-07
1.14945e-06
1.85117e-07
7.81228e-07
-2.43852e-07
-8.96996e-07
1.53179e-07
0.00105842
2.57992e-08
-0.00105844
9.65653e-09
-1.14942e-06
2.08834e-07
-2.11979e-07
-8.23697e-07
1.85436e-07
-1.89927e-07
8.1951e-07
1.17801e-06
0.00105752
2.58174e-08
-0.00105752
9.74994e-09
-1.18477e-06
2.11329e-07
-2.17254e-07
-8.26285e-07
1.82722e-07
-1.89855e-07
8.19464e-07
3.64805e-07
1.65578e-07
0.0010574
-2.62436e-07
1.1468e-06
1.82419e-07
7.81211e-07
-2.43811e-07
1.53199e-07
-8.96918e-07
2.57586e-08
-0.00105818
1.47027e-08
-1.15717e-06
2.06102e-07
-2.11956e-07
-8.23592e-07
1.85409e-07
8.19431e-07
-1.89878e-07
1.18056e-06
0.00105731
2.0618e-08
-0.00105732
9.80024e-09
-1.18472e-06
2.11339e-07
-2.17223e-07
-8.26194e-07
1.82684e-07
-1.89809e-07
8.16811e-07
-2.55433e-07
-2.5757e-07
0.000258347
-1.14254e-06
0.000260233
-0.000258314
1.98607e-07
2.03411e-07
3.65165e-07
1.54999e-07
0.00105843
-2.57174e-07
1.10884e-06
1.77138e-07
7.78717e-07
-2.4114e-07
1.48055e-07
-8.94303e-07
2.57524e-08
-0.00105785
9.73829e-09
-1.1467e-06
2.06062e-07
-2.11963e-07
-8.1816e-07
1.82747e-07
8.11424e-07
-1.89837e-07
1.14523e-06
0.00105833
2.57905e-08
-0.00105834
9.71361e-09
-1.14683e-06
2.06125e-07
-2.11992e-07
-8.26245e-07
1.82786e-07
-1.92535e-07
8.16881e-07
-0.000258322
1.98475e-07
2.036e-07
1.18396e-06
1.15124e-06
-1.99093e-07
-2.06718e-07
0.000258329
-1.18416e-06
-1.14886e-06
0.000260255
-0.000258326
1.99328e-07
2.04452e-07
2.66928e-09
0.0010574
-2.16391e-07
1.18371e-06
2.14626e-07
8.1767e-07
-1.86071e-07
-8.19754e-07
1.80936e-07
-1.18928e-06
5.09686e-09
1.26462e-08
0.00105782
-2.16439e-07
1.18902e-06
2.14703e-07
8.23147e-07
-1.88801e-07
-8.25197e-07
1.86299e-07
0.00105741
3.57398e-10
-0.00105741
8.77979e-10
-1.18337e-06
2.12443e-07
-2.13051e-07
-8.1879e-07
1.81654e-07
-1.82543e-07
8.1843e-07
1.18947e-06
0.00105782
4.25852e-10
-0.00105782
8.73352e-10
-1.18868e-06
2.15185e-07
-2.15793e-07
-8.269e-07
1.87006e-07
-1.87921e-07
8.26511e-07
-2.01781e-07
-2.04058e-07
0.000258349
-1.15145e-06
0.000260283
-0.000258351
2.02051e-07
2.06803e-07
2.54881e-09
0.00105843
-2.13819e-07
1.14842e-06
2.09426e-07
8.20388e-07
-1.88812e-07
-8.25071e-07
1.863e-07
-1.1814e-06
5.15376e-09
7.61087e-09
0.00105751
-2.1643e-07
1.18115e-06
2.1469e-07
8.20379e-07
-1.88771e-07
-8.22458e-07
1.86248e-07
0.00105842
3.54835e-10
-0.00105842
8.41543e-10
-1.14806e-06
2.09903e-07
-2.10495e-07
-8.21497e-07
1.8703e-07
-1.87918e-07
8.21153e-07
1.18421e-06
0.00105751
3.87242e-10
-0.00105751
8.82103e-10
-1.18343e-06
2.15173e-07
-2.15784e-07
-8.21454e-07
1.86976e-07
-1.87877e-07
8.21077e-07
1.01479e-08
2.63195e-09
0.00105731
-2.13698e-07
1.17853e-06
2.09298e-07
8.2032e-07
-1.88703e-07
1.83569e-07
-8.22387e-07
3.62251e-10
-0.00105816
8.51691e-10
-1.15065e-06
2.09902e-07
-2.10494e-07
-8.1885e-07
1.8437e-07
8.18486e-07
-1.85267e-07
1.17895e-06
0.00105731
3.84415e-10
-0.00105731
8.78505e-10
-1.17817e-06
2.09774e-07
-2.10371e-07
-8.18825e-07
1.84273e-07
-1.85174e-07
8.18446e-07
-2.01767e-07
-2.06541e-07
0.000258314
-1.14616e-06
0.000260235
-0.000258311
1.99529e-07
2.0677e-07
5.11402e-09
7.58395e-09
0.00105833
-2.08482e-07
1.14064e-06
2.04109e-07
8.17851e-07
-1.86135e-07
1.83656e-07
-8.19862e-07
3.60761e-10
-0.00105783
8.48763e-10
-1.14537e-06
2.07209e-07
-2.07801e-07
-8.18673e-07
1.8695e-07
8.18366e-07
-1.87847e-07
1.14626e-06
0.00105833
4.20083e-10
-0.00105834
8.3758e-10
-1.14547e-06
2.07259e-07
-2.07851e-07
-8.16335e-07
1.84352e-07
-1.85257e-07
8.15968e-07
-0.000258323
2.01826e-07
2.06973e-07
1.18334e-06
1.14803e-06
-1.98488e-07
-2.03608e-07
0.000258326
-1.18422e-06
-1.14891e-06
0.000260255
-0.000258326
1.99367e-07
2.04498e-07
7.62487e-10
0.00105741
-2.13014e-07
1.18419e-06
2.1248e-07
8.18477e-07
-1.82481e-07
-8.18728e-07
1.81711e-07
-1.18865e-06
9.94722e-11
7.69978e-10
0.00105782
-2.15757e-07
1.1895e-06
2.15217e-07
8.26562e-07
-1.87857e-07
-8.26833e-07
1.87065e-07
0.00105741
-2.45704e-10
-0.00105741
6.78376e-10
-1.1833e-06
2.12502e-07
-2.12983e-07
-8.18695e-07
1.81741e-07
-1.82443e-07
8.18513e-07
1.18952e-06
0.00105782
-2.03531e-10
-0.00105782
7.30818e-10
-1.18862e-06
2.15228e-07
-2.15735e-07
-8.26789e-07
1.8709e-07
-1.87825e-07
8.26602e-07
-2.01206e-07
-2.05963e-07
0.000258351
-1.15149e-06
0.000260283
-0.000258351
2.02074e-07
2.06844e-07
7.44349e-10
0.00105842
-2.10464e-07
1.14888e-06
2.09936e-07
8.21206e-07
-1.87859e-07
-8.21438e-07
1.87088e-07
-1.18339e-06
6.9307e-11
7.7201e-10
0.00105751
-2.15747e-07
1.18424e-06
2.15208e-07
8.2113e-07
-1.87811e-07
-8.21385e-07
1.87037e-07
0.00105842
-3.05065e-10
-0.00105842
6.9141e-10
-1.14801e-06
2.09951e-07
-2.10439e-07
-8.21383e-07
1.87125e-07
-1.87812e-07
8.21256e-07
1.18427e-06
0.00105751
-2.65357e-10
-0.00105751
6.9e-10
-1.18336e-06
2.15229e-07
-2.15717e-07
-8.21337e-07
1.8707e-07
-1.8777e-07
8.21176e-07
7.13434e-11
7.62774e-10
0.00105731
-2.10338e-07
1.17899e-06
2.09809e-07
8.18499e-07
-1.85113e-07
1.84334e-07
-8.18763e-07
-2.75475e-10
-0.00105816
7.2057e-10
-1.1506e-06
2.09938e-07
-2.10444e-07
-8.18733e-07
1.84467e-07
8.18588e-07
-1.85157e-07
1.17901e-06
0.00105731
-2.49666e-10
-0.00105731
6.80442e-10
-1.17811e-06
2.0983e-07
-2.10308e-07
-8.18715e-07
1.84369e-07
-1.85069e-07
8.18545e-07
-1.9869e-07
-2.05931e-07
0.000258311
-1.14621e-06
0.000260235
-0.000258311
1.99571e-07
2.06813e-07
8.38648e-11
7.42064e-10
0.00105833
-2.07819e-07
1.14629e-06
2.07293e-07
8.16022e-07
-1.85195e-07
1.84415e-07
-8.16273e-07
-2.98976e-10
-0.00105783
6.7205e-10
-1.1453e-06
2.07264e-07
-2.07737e-07
-8.18561e-07
1.87041e-07
8.18463e-07
-1.87742e-07
1.14631e-06
0.00105833
-2.90474e-10
-0.00105833
6.83797e-10
-1.14541e-06
2.07312e-07
-2.07791e-07
-8.16216e-07
1.84456e-07
-1.85144e-07
8.16075e-07
-0.000258323
2.01866e-07
2.07017e-07
1.1833e-06
1.148e-06
-1.98465e-07
-2.03576e-07
0.000258326
-1.18423e-06
-1.14891e-06
0.000260255
-0.000258326
1.9937e-07
2.04507e-07
6.57216e-10
0.00105741
-2.12978e-07
1.18423e-06
2.12512e-07
8.18522e-07
-1.82446e-07
-8.18681e-07
1.81746e-07
-1.18863e-06
-1.95515e-10
7.47271e-10
0.00105782
-2.15743e-07
1.18952e-06
2.15227e-07
8.26593e-07
-1.87834e-07
-8.26794e-07
1.87081e-07
0.00105741
-2.62187e-10
-0.00105741
6.41628e-10
-1.1833e-06
2.12513e-07
-2.12975e-07
-8.18693e-07
1.81743e-07
-1.82444e-07
8.18518e-07
1.18952e-06
0.00105782
-1.80383e-10
-0.00105782
7.59874e-10
-1.18863e-06
2.1522e-07
-2.15744e-07
-8.2679e-07
1.87061e-07
-1.87839e-07
8.26594e-07
-2.01209e-07
-2.0594e-07
0.000258351
-1.15147e-06
0.000260283
-0.000258351
2.02043e-07
2.06851e-07
6.87115e-10
0.00105842
-2.10436e-07
1.14891e-06
2.09959e-07
8.21259e-07
-1.87807e-07
-8.21384e-07
1.87137e-07
-1.18336e-06
-2.89603e-10
6.89479e-10
0.00105751
-2.15716e-07
1.18427e-06
2.15237e-07
8.21179e-07
-1.87763e-07
-8.21333e-07
1.87082e-07
0.00105842
-3.64848e-10
-0.00105842
6.93485e-10
-1.14801e-06
2.09956e-07
-2.10437e-07
-8.21374e-07
1.87134e-07
-1.87804e-07
8.21265e-07
1.18427e-06
0.00105751
-3.11193e-10
-0.00105751
6.71547e-10
-1.18336e-06
2.15237e-07
-2.15714e-07
-8.21332e-07
1.8708e-07
-1.87764e-07
8.21187e-07
-2.74881e-10
6.64211e-10
0.00105731
-2.10307e-07
1.17902e-06
2.09838e-07
8.18548e-07
-1.85064e-07
1.84381e-07
-8.18712e-07
-3.05011e-10
-0.00105816
7.65254e-10
-1.15062e-06
2.09919e-07
-2.10463e-07
-8.18724e-07
1.84482e-07
8.18604e-07
-1.8515e-07
1.17902e-06
0.00105731
-2.91234e-10
-0.00105731
6.47342e-10
-1.1781e-06
2.09841e-07
-2.10301e-07
-8.1871e-07
1.84379e-07
-1.85064e-07
8.18556e-07
-1.98664e-07
-2.05904e-07
0.000258311
-1.14622e-06
0.000260235
-0.000258311
1.99577e-07
2.0682e-07
-3.22262e-10
6.82557e-10
0.00105833
-2.07791e-07
1.14632e-06
2.07319e-07
8.16079e-07
-1.85138e-07
1.84469e-07
-8.16213e-07
-3.54771e-10
-0.00105783
6.61121e-10
-1.1453e-06
2.0727e-07
-2.07733e-07
-8.18554e-07
1.87053e-07
8.18474e-07
-1.87736e-07
1.14632e-06
0.00105833
-3.63658e-10
-0.00105833
6.7708e-10
-1.14541e-06
2.07321e-07
-2.07787e-07
-8.16206e-07
1.84471e-07
-1.85134e-07
8.1609e-07
-0.000258323
2.01875e-07
2.07028e-07
1.1833e-06
1.14801e-06
-1.98466e-07
-2.03572e-07
0.000258326
-1.18423e-06
-1.14891e-06
0.000260255
-0.000258326
1.99368e-07
2.04508e-07
6.34609e-10
0.00105741
-2.12974e-07
1.18423e-06
2.1252e-07
8.18521e-07
-1.8244e-07
-8.18689e-07
1.81754e-07
-1.18864e-06
-1.26234e-10
7.90983e-10
0.00105782
-2.1576e-07
1.18951e-06
2.15212e-07
8.26578e-07
-1.87869e-07
-8.26812e-07
1.87053e-07
0.00105741
-2.85058e-10
-0.00105741
6.62082e-10
-1.1833e-06
2.1251e-07
-2.12978e-07
-8.18683e-07
1.81744e-07
-1.82442e-07
8.18524e-07
1.18953e-06
0.00105782
-2.66149e-10
-0.00105782
6.9769e-10
-1.18861e-06
2.15243e-07
-2.15722e-07
-8.26772e-07
1.87103e-07
-1.87811e-07
8.26614e-07
-2.01239e-07
-2.0594e-07
0.000258351
-1.1515e-06
0.000260283
-0.000258351
2.02085e-07
2.06856e-07
6.94763e-10
0.00105842
-2.10436e-07
1.14891e-06
2.09962e-07
8.21268e-07
-1.87802e-07
-8.21379e-07
1.87146e-07
-1.18335e-06
-3.26567e-10
6.65583e-10
0.00105751
-2.15709e-07
1.18428e-06
2.15247e-07
8.21189e-07
-1.87756e-07
-8.21326e-07
1.87092e-07
0.00105842
-3.65342e-10
-0.00105842
6.91523e-10
-1.148e-06
2.09957e-07
-2.10436e-07
-8.21369e-07
1.87138e-07
-1.87799e-07
8.2127e-07
1.18428e-06
0.00105751
-3.16588e-10
-0.00105751
6.61198e-10
-1.18335e-06
2.15241e-07
-2.15707e-07
-8.21327e-07
1.87082e-07
-1.87759e-07
8.21188e-07
-2.98602e-10
6.37044e-10
0.00105731
-2.10299e-07
1.17903e-06
2.09849e-07
8.18555e-07
-1.85059e-07
1.84388e-07
-8.18708e-07
-3.45162e-10
-0.00105816
7.0698e-10
-1.1506e-06
2.0995e-07
-2.10438e-07
-8.18719e-07
1.84485e-07
8.18604e-07
-1.85141e-07
1.17902e-06
0.00105731
-3.1042e-10
-0.00105731
6.5649e-10
-1.1781e-06
2.09841e-07
-2.10298e-07
-8.18704e-07
1.84381e-07
-1.8506e-07
8.18559e-07
-1.9866e-07
-2.05899e-07
0.000258311
-1.14622e-06
0.000260235
-0.000258311
1.9958e-07
2.06824e-07
-3.71212e-10
6.75113e-10
0.00105833
-2.07785e-07
1.14632e-06
2.07328e-07
8.1609e-07
-1.85129e-07
1.8448e-07
-8.16205e-07
-3.73405e-10
-0.00105783
6.56244e-10
-1.1453e-06
2.07275e-07
-2.07728e-07
-8.18548e-07
1.87058e-07
8.18479e-07
-1.8773e-07
1.14632e-06
0.00105833
-3.66001e-10
-0.00105833
6.67115e-10
-1.14541e-06
2.07323e-07
-2.07782e-07
-8.16203e-07
1.84471e-07
-1.85131e-07
8.16091e-07
-0.000258323
2.01875e-07
2.07027e-07
1.18331e-06
1.14801e-06
-1.98473e-07
-2.03576e-07
0.000258326
-1.18682e-06
-1.1489e-06
0.000260258
-0.000258326
1.99392e-07
2.04504e-07
6.94784e-10
0.0010574
-2.12991e-07
1.18683e-06
2.15176e-07
8.18517e-07
-1.82449e-07
-8.18688e-07
1.81742e-07
-1.18861e-06
-2.83024e-10
6.76081e-10
0.00105782
-2.15719e-07
1.18953e-06
2.15252e-07
8.26617e-07
-1.87804e-07
-8.26772e-07
1.87117e-07
0.0010574
-2.57766e-10
-0.0010574
7.24431e-10
-1.18592e-06
2.15172e-07
-2.15675e-07
-8.187e-07
1.8174e-07
-1.82466e-07
8.18521e-07
1.18954e-06
0.00105782
-2.81499e-10
-0.00105782
6.65165e-10
-1.18861e-06
2.1525e-07
-2.15718e-07
-8.24161e-07
1.8711e-07
-1.87806e-07
8.24002e-07
-2.01184e-07
-2.05928e-07
0.000258351
-1.15151e-06
0.000260283
-0.000258351
2.02093e-07
2.06857e-07
7.08025e-10
0.00105842
-2.10441e-07
1.1489e-06
2.09952e-07
8.21267e-07
-1.87801e-07
-8.21377e-07
1.87143e-07
-1.18335e-06
-3.18719e-10
6.59887e-10
0.00105751
-2.15707e-07
1.18428e-06
2.15246e-07
8.21186e-07
-1.87756e-07
-8.21326e-07
1.87089e-07
0.00105842
-3.27054e-10
-0.00105842
7.13068e-10
-1.14802e-06
2.09943e-07
-2.10465e-07
-8.21372e-07
1.87136e-07
-1.87801e-07
8.21266e-07
1.18428e-06
0.00105751
-3.00913e-10
-0.00105751
6.62344e-10
-1.18335e-06
2.1524e-07
-2.15709e-07
-8.21333e-07
1.87078e-07
-1.87763e-07
8.21184e-07
-3.19304e-10
6.59277e-10
0.00105731
-2.10298e-07
1.17902e-06
2.09846e-07
8.18558e-07
-1.85055e-07
1.84389e-07
-8.18702e-07
-3.5269e-10
-0.00105816
6.87029e-10
-1.15059e-06
2.09958e-07
-2.10429e-07
-8.18724e-07
1.8448e-07
8.18599e-07
-1.85147e-07
1.17902e-06
0.00105731
-3.13711e-10
-0.00105731
6.76284e-10
-1.1781e-06
2.09837e-07
-2.10304e-07
-8.18706e-07
1.84381e-07
-1.85061e-07
8.18559e-07
-1.98659e-07
-2.05896e-07
0.000258311
-1.14622e-06
0.000260235
-0.000258311
1.99577e-07
2.06822e-07
-3.64587e-10
6.67325e-10
0.00105833
-2.07782e-07
1.14633e-06
2.07328e-07
8.16088e-07
-1.85128e-07
1.84478e-07
-8.16203e-07
-3.56893e-10
-0.00105783
6.67565e-10
-1.1453e-06
2.07271e-07
-2.07732e-07
-8.18552e-07
1.87052e-07
8.18473e-07
-1.87734e-07
1.14632e-06
0.00105833
-3.4621e-10
-0.00105833
6.63388e-10
-1.14541e-06
2.07323e-07
-2.07783e-07
-8.16209e-07
1.84467e-07
-1.85137e-07
8.16086e-07
-0.000258323
2.01876e-07
2.07024e-07
1.18591e-06
1.148e-06
-1.98501e-07
-2.03582e-07
0.000258326
-1.18683e-06
-1.14892e-06
0.000260258
-0.000258326
1.9941e-07
2.04505e-07
6.93057e-10
0.0010574
-2.1566e-07
1.18682e-06
2.15205e-07
8.18518e-07
-1.82449e-07
-8.18688e-07
1.84396e-07
-1.18861e-06
-2.92793e-10
6.73756e-10
0.00105782
-2.1572e-07
1.18953e-06
2.15253e-07
8.24002e-07
-1.87804e-07
-8.24159e-07
1.87118e-07
0.0010574
-3.01459e-10
-0.0010574
6.9523e-10
-1.18591e-06
2.15203e-07
-2.15682e-07
-8.18679e-07
1.84405e-07
-1.85087e-07
8.18533e-07
1.18953e-06
0.00105782
-3.0757e-10
-0.00105782
6.8026e-10
-1.18861e-06
2.1525e-07
-2.15721e-07
-8.24156e-07
1.87117e-07
-1.87803e-07
8.24009e-07
-2.01181e-07
-2.05931e-07
0.000258351
-1.15151e-06
0.000260283
-0.000258351
2.02098e-07
2.06857e-07
6.89789e-10
0.00105842
-2.10441e-07
1.14891e-06
2.0996e-07
8.21263e-07
-1.87805e-07
-8.21384e-07
1.87142e-07
-1.18336e-06
-3.02121e-10
6.72791e-10
0.00105751
-2.15712e-07
1.18428e-06
2.15243e-07
8.21182e-07
-1.87763e-07
-8.21333e-07
1.87085e-07
0.00105842
-3.38599e-10
-0.00105842
6.73877e-10
-1.148e-06
2.0996e-07
-2.10431e-07
-8.21377e-07
1.87133e-07
-1.87806e-07
8.21263e-07
1.18428e-06
0.00105751
-3.06426e-10
-0.00105751
6.74406e-10
-1.18336e-06
2.1524e-07
-2.15713e-07
-8.21333e-07
1.87081e-07
-1.87764e-07
8.21188e-07
-3.14444e-10
6.75191e-10
0.00105731
-2.10304e-07
1.17902e-06
2.09841e-07
8.18557e-07
-1.85057e-07
1.84389e-07
-8.18705e-07
-3.47573e-10
-0.00105816
6.76535e-10
-1.15059e-06
2.09963e-07
-2.10428e-07
-8.18727e-07
1.84481e-07
8.18601e-07
-1.85149e-07
1.17902e-06
0.00105731
-3.16302e-10
-0.00105731
6.81507e-10
-1.17811e-06
2.09837e-07
-2.10306e-07
-8.18705e-07
1.84383e-07
-1.85061e-07
8.18562e-07
-1.98663e-07
-2.05902e-07
0.000258311
-1.14622e-06
0.000260235
-0.000258311
1.99579e-07
2.06823e-07
-3.41361e-10
6.64455e-10
0.00105833
-2.07784e-07
1.14632e-06
2.07328e-07
8.16084e-07
-1.85134e-07
1.84474e-07
-8.1621e-07
-3.53296e-10
-0.00105783
6.62948e-10
-1.1453e-06
2.07274e-07
-2.07733e-07
-8.18556e-07
1.87055e-07
8.18476e-07
-1.87736e-07
1.14632e-06
0.00105833
-3.39992e-10
-0.00105833
6.5889e-10
-1.14541e-06
2.07324e-07
-2.07784e-07
-8.1621e-07
1.84468e-07
-1.85139e-07
8.16088e-07
-0.000258323
2.01877e-07
2.07024e-07
1.18591e-06
1.148e-06
-1.98492e-07
-2.03581e-07
0.000258326
-1.18683e-06
-1.14891e-06
0.000260258
-0.000258326
1.99409e-07
2.04506e-07
6.93046e-10
0.0010574
-2.15679e-07
1.18683e-06
2.15209e-07
8.18531e-07
-1.85085e-07
-8.18678e-07
1.84412e-07
-1.18861e-06
-3.07134e-10
6.79122e-10
0.00105782
-2.1572e-07
1.18954e-06
2.15254e-07
8.24007e-07
-1.87799e-07
-8.24154e-07
1.87124e-07
0.0010574
-3.05991e-10
-0.0010574
7.00904e-10
-1.18591e-06
2.15201e-07
-2.15682e-07
-8.18681e-07
1.84408e-07
-1.85088e-07
8.18537e-07
1.18954e-06
0.00105782
-3.03692e-10
-0.00105782
6.86789e-10
-1.18861e-06
2.15255e-07
-2.15717e-07
-8.24151e-07
1.8712e-07
-1.87797e-07
8.24015e-07
-2.01176e-07
-2.05931e-07
0.000258351
-1.15151e-06
0.000260283
-0.000258351
2.02096e-07
2.06863e-07
6.7638e-10
0.00105842
-2.10429e-07
1.14892e-06
2.09966e-07
8.21262e-07
-1.87808e-07
-8.21385e-07
1.8714e-07
-1.18336e-06
-3.1131e-10
6.76324e-10
0.00105751
-2.15711e-07
1.18428e-06
2.15244e-07
8.21187e-07
-1.87759e-07
-8.21329e-07
1.8709e-07
0.00105842
-3.43752e-10
-0.00105842
6.79843e-10
-1.148e-06
2.09958e-07
-2.10433e-07
-8.21377e-07
1.87136e-07
-1.87805e-07
8.21269e-07
1.18428e-06
0.00105751
-3.07372e-10
-0.00105751
6.66024e-10
-1.18336e-06
2.15241e-07
-2.15711e-07
-8.21331e-07
1.87083e-07
-1.87761e-07
8.21189e-07
-3.20825e-10
6.78206e-10
0.00105731
-2.10305e-07
1.17902e-06
2.09843e-07
8.1856e-07
-1.85056e-07
1.84393e-07
-8.18704e-07
-3.61561e-10
-0.00105816
6.81173e-10
-1.15059e-06
2.09962e-07
-2.10428e-07
-8.18722e-07
1.84485e-07
8.18606e-07
-1.85145e-07
1.17902e-06
0.00105731
-3.24795e-10
-0.00105731
6.75043e-10
-1.1781e-06
2.09841e-07
-2.10303e-07
-8.18703e-07
1.84387e-07
-1.85058e-07
8.18565e-07
-1.98661e-07
-2.059e-07
0.000258311
-1.14622e-06
0.000260235
-0.000258311
1.99581e-07
2.06824e-07
-3.44502e-10
6.598e-10
0.00105833
-2.07783e-07
1.14633e-06
2.0733e-07
8.16087e-07
-1.85133e-07
1.84478e-07
-8.16209e-07
-3.66269e-10
-0.00105783
6.61954e-10
-1.1453e-06
2.07274e-07
-2.07731e-07
-8.1855e-07
1.87059e-07
8.18482e-07
-1.87732e-07
1.14633e-06
0.00105833
-3.53887e-10
-0.00105833
6.5566e-10
-1.1454e-06
2.07328e-07
-2.07781e-07
-8.16208e-07
1.84472e-07
-1.85135e-07
8.16092e-07
-0.000258323
2.01881e-07
2.07027e-07
1.18591e-06
1.148e-06
-1.98498e-07
-2.0358e-07
0.000258326
-1.18681e-06
-1.14887e-06
0.000260258
-0.000258326
1.9932e-07
2.04502e-07
7.19108e-10
0.0010574
-2.15684e-07
1.18683e-06
2.15203e-07
8.1853e-07
-1.85092e-07
-8.18681e-07
1.8441e-07
-1.1886e-06
-2.77471e-10
-4.5967e-09
0.00105783
-2.15714e-07
1.18955e-06
2.15266e-07
8.2398e-07
-1.87794e-07
-8.24153e-07
1.87133e-07
0.0010574
-1.47545e-10
-0.0010574
8.20938e-10
-1.18593e-06
2.15157e-07
-2.15722e-07
-8.18722e-07
1.8433e-07
-1.85158e-07
8.18486e-07
1.18955e-06
0.00105782
-2.63048e-10
-0.00105783
5.64473e-09
-1.1886e-06
2.15266e-07
-2.15709e-07
-8.24113e-07
1.87138e-07
-1.87797e-07
8.2403e-07
-2.01177e-07
-2.05927e-07
0.000258351
-1.15151e-06
0.000260283
-0.000258351
2.02094e-07
2.06875e-07
6.91999e-10
0.00105842
-2.10435e-07
1.14891e-06
2.0996e-07
8.21267e-07
-1.87804e-07
-8.2138e-07
1.87142e-07
-1.18335e-06
-3.16367e-10
6.61809e-10
0.00105751
-2.15709e-07
1.18428e-06
2.15248e-07
8.21189e-07
-1.87757e-07
-8.21328e-07
1.87093e-07
0.00105842
-3.29163e-10
-0.00105842
7.53312e-10
-1.14803e-06
2.09904e-07
-2.10476e-07
-8.21371e-07
1.87145e-07
-1.878e-07
8.21278e-07
1.18428e-06
0.00105751
-3.11199e-10
-0.00105751
6.42596e-10
-1.18335e-06
2.15245e-07
-2.15706e-07
-8.21328e-07
1.87083e-07
-1.87759e-07
8.2119e-07
-3.27754e-10
6.67128e-10
0.00105731
-2.10303e-07
1.17902e-06
2.09846e-07
8.18562e-07
-1.85054e-07
1.84395e-07
-8.18702e-07
-3.86334e-10
-0.00105816
6.83608e-10
-1.15059e-06
2.07285e-07
-2.07753e-07
-8.18719e-07
1.84465e-07
8.18608e-07
-1.85116e-07
1.17902e-06
0.00105731
-3.38961e-10
-0.00105731
6.63252e-10
-1.1781e-06
2.09844e-07
-2.10298e-07
-8.18699e-07
1.84389e-07
-1.85054e-07
8.18567e-07
-1.98662e-07
-2.05899e-07
0.000258311
-1.14622e-06
0.000260235
-0.000258311
1.99581e-07
2.06826e-07
-3.5886e-10
6.54721e-10
0.00105833
-2.0778e-07
1.14633e-06
2.07333e-07
8.16091e-07
-1.85131e-07
1.84481e-07
-8.16206e-07
-3.80807e-10
-0.00105783
6.59568e-10
-1.1453e-06
2.07276e-07
-2.07729e-07
-8.18548e-07
1.8706e-07
8.18483e-07
-1.8773e-07
1.14633e-06
0.00105833
-3.65061e-10
-0.00105833
6.44336e-10
-1.1454e-06
2.0733e-07
-2.07776e-07
-8.16203e-07
1.84474e-07
-1.8513e-07
8.16093e-07
-0.000258323
2.01882e-07
2.07029e-07
1.18592e-06
1.14804e-06
-1.9856e-07