/*--------------------------------*- C++ -*----------------------------------*\
| =========                 |                                                 |
| \\      /  F ield         | OpenFOAM: The Open Source CFD Toolbox           |
|  \\    /   O peration     | Version:  2206                                  |
|   \\  /    A nd           | Website:  www.openfoam.com                      |
|    \\/     M anipulation  |                                                 |
\*---------------------------------------------------------------------------*/
FoamFile
{
    version     2.0;
    format      ascii;
    arch        "LSB;label=32;scalar=64";
    class       volScalarField;
    location    "29.5";
    object      nut;
}
// * * * * * * * * * * * * * * * * * * * * * * * * * * * * * * * * * * * * * //

dimensions      [0 2 -1 0 0 0 0];

internalField   nonuniform List<scalar> 
28897
(
0.000218068
0.000189935
0.000189924
0.000162941
0.000218067
0.000189934
0.000189923
0.000162939
0.000218067
0.000189931
0.000189922
0.000162938
0.000218066
0.000189931
0.00018992
0.000162938
0.000218065
0.000189929
0.00018992
0.000162936
0.000218065
0.000189926
0.000189916
0.000162931
0.000218039
0.000189898
0.000189884
0.000162887
0.00021804
0.000189881
0.000189874
0.000162879
0.000218042
0.000189883
0.000189875
0.000162877
0.000218043
0.000189884
0.000189876
0.000162877
0.000218042
0.000189884
0.000189876
0.000162878
0.000218042
0.000189885
0.000189876
0.000162878
0.000218043
0.000189885
0.000189876
0.000162876
0.000218043
0.000189885
0.000189876
0.000162877
0.000218043
0.000189885
0.000189876
0.000162878
0.000218043
0.000189885
0.000189876
0.000162878
0.000218043
0.000189885
0.000189876
0.000162878
0.000218044
0.000189885
0.000189876
0.000162878
0.000163125
0.000189913
0.00018991
0.000163127
0.00018993
0.000189901
0.000189935
0.000189913
0.000163117
0.000189925
0.000189928
0.000163122
0.000162947
0.000163123
0.000189914
0.000189911
0.000189914
0.00018991
0.000162946
0.000163126
0.000189931
0.000189902
0.000189931
0.000189901
0.000189914
0.000189934
0.000189913
0.000162938
0.000163114
0.000189929
0.000189923
0.000189929
0.000163119
0.000162945
0.000163122
0.000189913
0.00018991
0.000189913
0.00018991
0.000162947
0.000163126
0.00018993
0.000189901
0.00018993
0.000189901
0.000189913
0.000189932
0.000189913
0.000162936
0.000163113
0.000189928
0.000189922
0.000189928
0.000163118
0.000162943
0.000163121
0.000189914
0.000189911
0.000189911
0.000189909
0.000162947
0.000163125
0.000189931
0.000189902
0.000189928
0.000189901
0.000189914
0.000189931
0.000189914
0.000162935
0.000163112
0.000189927
0.00018992
0.000189927
0.000163118
0.000162942
0.000163119
0.00018991
0.000189909
0.00018991
0.000189909
0.000162947
0.000163125
0.000189927
0.000189901
0.000189927
0.000189897
0.000189915
0.00018993
0.000189914
0.000162934
0.00016311
0.000189928
0.00018992
0.000189926
0.000163117
0.00016294
0.000163118
0.000189911
0.000189909
0.00018991
0.000189905
0.000162946
0.000163123
0.000189928
0.000189896
0.000189926
0.000189893
0.000189913
0.000189927
0.000189908
0.000162932
0.000163108
0.000189925
0.000189917
0.000189921
0.000163113
0.000162939
0.000163083
0.000189907
0.000189903
0.000189884
0.000189885
0.000162944
0.000163096
0.000189924
0.000189891
0.000189901
0.000189873
0.000189906
0.000189913
0.000189886
0.000162929
0.000163075
0.000189919
0.000189898
0.000189901
0.00016308
0.000162893
0.000163062
0.000189871
0.000189871
0.00018986
0.000189856
0.000162906
0.000163066
0.000189888
0.000189859
0.000189877
0.000189847
0.000189872
0.00018988
0.000189859
0.000162885
0.000163053
0.000189887
0.000189872
0.000189875
0.000163059
0.000162886
0.000163064
0.000189862
0.000189858
0.000189863
0.000189859
0.000162888
0.00016307
0.000189879
0.00018985
0.00018988
0.000189851
0.000189861
0.000189884
0.000189862
0.000162878
0.000163055
0.000189877
0.000189876
0.000189878
0.000163059
0.000162884
0.000163061
0.000189864
0.000189859
0.000189864
0.00018986
0.000162889
0.000163065
0.00018988
0.000189851
0.000189881
0.000189852
0.000189862
0.000189884
0.000189863
0.000162876
0.000163052
0.000189878
0.000189876
0.000189879
0.000163057
0.000162883
0.000163063
0.000189865
0.00018986
0.000189865
0.000189861
0.000162887
0.000163067
0.000189882
0.000189852
0.000189882
0.000189852
0.000189864
0.000189885
0.000189864
0.000162875
0.000163054
0.00018988
0.000189877
0.00018988
0.000163059
0.000162885
0.00016306
0.000189866
0.000189861
0.000189865
0.000189861
0.000162888
0.000163064
0.000189882
0.000189853
0.000189881
0.000189852
0.000189864
0.000189885
0.000189864
0.000162876
0.000163053
0.00018988
0.000189877
0.00018988
0.000163057
0.000162883
0.000163061
0.000189865
0.000189862
0.000189865
0.000189861
0.000162886
0.000163066
0.000189881
0.000189853
0.000189881
0.000189852
0.000189864
0.000189885
0.000189864
0.000162875
0.000163053
0.00018988
0.000189877
0.00018988
0.000163057
0.000162882
0.000163062
0.000189865
0.000189861
0.000189865
0.000189861
0.000162887
0.000163067
0.000189881
0.000189852
0.000189881
0.000189852
0.000189864
0.000189885
0.000189864
0.000162875
0.000163054
0.00018988
0.000189877
0.00018988
0.000163058
0.000162884
0.000163062
0.000189866
0.000189862
0.000189865
0.000189861
0.000162888
0.000163066
0.000189881
0.000189852
0.000189881
0.000189852
0.000189864
0.000189885
0.000189864
0.000162876
0.000163053
0.00018988
0.000189877
0.00018988
0.000163058
0.000162884
0.000163061
0.000189865
0.000189861
0.000189866
0.000189861
0.000162888
0.000163065
0.000189881
0.000189853
0.00018988
0.000189852
0.000189864
0.000189885
0.000189864
0.000162876
0.000163053
0.00018988
0.000189877
0.00018988
0.000163058
0.000162884
0.000163061
0.000189866
0.000189862
0.000189866
0.000189861
0.000162888
0.000163065
0.000189881
0.000189853
0.000189881
0.000189852
0.000189864
0.000189886
0.000189864
0.000162876
0.000163053
0.00018988
0.000189877
0.00018988
0.000163058
0.000162884
0.000163061
0.000189866
0.000189862
0.000189866
0.000189861
0.000162887
0.000163065
0.000189881
0.000189852
0.000189881
0.000189852
0.000189864
0.000189885
0.000189864
0.000162875
0.000163053
0.00018988
0.000189876
0.00018988
0.000163058
0.000162884
0.000189866
0.000189862
0.000162887
0.000189881
0.000189853
0.000189864
0.000162875
0.00018988
0.000218068
0.000218068
0.000218064
0.000218066
4.09228e-05
4.95239e-05
4.09152e-05
4.95231e-05
2.51227e-05
2.51221e-05
4.09293e-05
4.95227e-05
4.09221e-05
4.95219e-05
0.000218069
0.000218064
0.000218067
0.000218067
0.000218068
0.000218064
0.000218066
9.18748e-05
4.97908e-05
0.000206996
0.000189936
9.18492e-05
4.98047e-05
0.000206996
2.51193e-05
2.51188e-05
9.18789e-05
0.000206992
4.97937e-05
0.000189924
9.1854e-05
0.000206993
4.98071e-05
3.57035e-05
3.57028e-05
0.000163121
3.57072e-05
3.5706e-05
4.09267e-05
4.95235e-05
4.09192e-05
4.95226e-05
2.51216e-05
2.51214e-05
4.09332e-05
4.95223e-05
4.09262e-05
4.95214e-05
0.000218068
0.000218064
0.000218067
0.000218067
0.000218068
0.000218063
0.000218068
9.18765e-05
4.9794e-05
0.000206996
0.000189933
9.18522e-05
4.98077e-05
0.000206995
2.51185e-05
2.51183e-05
9.18791e-05
0.000206993
4.97967e-05
0.000189923
9.18546e-05
0.000206991
4.98098e-05
3.57083e-05
3.5705e-05
0.000163119
3.57119e-05
3.57072e-05
4.09295e-05
4.95231e-05
4.09225e-05
4.95223e-05
2.51213e-05
2.51212e-05
4.09354e-05
4.95218e-05
4.09291e-05
4.95211e-05
0.000218068
0.000218062
0.000218068
0.000218067
0.000218068
0.000218062
0.000218068
9.18768e-05
4.97968e-05
0.000206995
0.000189931
9.18516e-05
4.98103e-05
0.000206996
2.51182e-05
2.51181e-05
9.18789e-05
0.000206991
4.97992e-05
0.000189922
9.18542e-05
0.000206992
4.98122e-05
3.57129e-05
3.5707e-05
0.000163119
3.57163e-05
3.57104e-05
4.09317e-05
4.9523e-05
4.09247e-05
4.95223e-05
2.51213e-05
2.51213e-05
4.09377e-05
4.95218e-05
4.0931e-05
4.95211e-05
0.000218068
0.000218062
0.000218068
0.000218065
0.000218068
0.000218061
0.000218066
9.18809e-05
4.97991e-05
0.000206995
0.000189931
9.18555e-05
4.98124e-05
0.000206993
2.51183e-05
2.51183e-05
9.18803e-05
0.000206989
4.98013e-05
0.00018992
9.18551e-05
0.000206989
4.9814e-05
3.57168e-05
3.57113e-05
0.000163118
3.57199e-05
3.57145e-05
4.0933e-05
4.95232e-05
4.09269e-05
4.95225e-05
2.51215e-05
2.51216e-05
4.09394e-05
4.95219e-05
4.09337e-05
4.95213e-05
0.000218067
0.000218061
0.000218066
0.000218066
0.000218065
0.00021806
0.000218064
9.18833e-05
4.98007e-05
0.000206993
0.000189928
9.18588e-05
4.98137e-05
0.000206992
2.51185e-05
2.51186e-05
9.18823e-05
0.000206989
4.98028e-05
0.000189919
9.18572e-05
0.000206988
4.98152e-05
3.57195e-05
3.57141e-05
0.000163116
3.57217e-05
3.57161e-05
4.09255e-05
4.95239e-05
4.09243e-05
4.95236e-05
2.51219e-05
2.51219e-05
4.09317e-05
4.95226e-05
4.09311e-05
4.95224e-05
0.000218065
0.00021806
0.000218064
0.00021805
0.000218054
0.000218046
0.000218049
9.18672e-05
4.97997e-05
0.00020699
0.000189924
9.18518e-05
4.9809e-05
0.000206989
2.51189e-05
2.51187e-05
9.18685e-05
0.000206987
4.98007e-05
0.000189913
9.18524e-05
0.000206985
4.98088e-05
3.57186e-05
3.57127e-05
0.000163104
3.57186e-05
3.57132e-05
4.0913e-05
4.95248e-05
4.09108e-05
4.9524e-05
2.51216e-05
2.51214e-05
4.09192e-05
4.95235e-05
4.09175e-05
4.95229e-05
0.000218042
0.000218034
0.000218037
0.000218036
0.000218037
0.000218033
0.000218035
9.18249e-05
4.97876e-05
0.000206964
0.000189889
9.18254e-05
4.97945e-05
0.000206957
2.51185e-05
2.51183e-05
9.18212e-05
0.000206958
4.97877e-05
0.000189876
9.18209e-05
0.00020695
4.97945e-05
3.57134e-05
3.57082e-05
0.000163059
3.5713e-05
3.57077e-05
4.09082e-05
4.95246e-05
4.09031e-05
4.95238e-05
2.51214e-05
2.51213e-05
4.09147e-05
4.95234e-05
4.091e-05
4.95226e-05
0.00021804
0.000218036
0.000218039
0.000218042
0.000218043
0.000218039
0.000218041
9.18253e-05
4.97756e-05
0.000206955
0.000189883
9.17968e-05
4.97866e-05
0.000206957
2.51183e-05
2.51182e-05
9.1828e-05
0.000206953
4.97779e-05
0.000189875
9.18001e-05
0.000206954
4.9789e-05
3.57078e-05
3.57028e-05
0.000163065
3.57087e-05
3.57038e-05
4.09075e-05
4.95245e-05
4.09014e-05
4.95237e-05
2.51213e-05
2.51213e-05
4.0914e-05
4.95232e-05
4.09084e-05
4.95225e-05
0.000218043
0.000218039
0.000218041
0.000218043
0.000218043
0.000218039
0.000218041
9.18255e-05
4.9773e-05
0.000206956
0.000189884
9.18008e-05
4.97854e-05
0.000206956
2.51183e-05
2.51182e-05
9.18281e-05
0.000206954
4.97762e-05
0.000189876
9.18031e-05
0.000206954
4.97883e-05
3.57061e-05
3.57014e-05
0.000163056
3.57079e-05
3.57032e-05
4.09075e-05
4.95244e-05
4.09013e-05
4.95237e-05
2.51213e-05
2.51213e-05
4.0914e-05
4.95232e-05
4.09083e-05
4.95225e-05
0.000218043
0.000218039
0.000218042
0.000218043
0.000218043
0.000218039
0.000218041
9.18256e-05
4.97727e-05
0.000206957
0.000189885
9.18002e-05
4.97853e-05
0.000206958
2.51183e-05
2.51182e-05
9.18279e-05
0.000206955
4.97761e-05
0.000189877
9.18026e-05
0.000206955
4.97884e-05
3.5706e-05
3.57014e-05
0.000163059
3.57079e-05
3.57032e-05
4.09075e-05
4.95249e-05
4.09013e-05
4.95245e-05
2.5121e-05
2.51209e-05
4.0914e-05
4.95229e-05
4.09083e-05
4.9522e-05
0.000218043
0.000218039
0.000218042
0.000218042
0.000218043
0.000218039
0.000218041
9.18259e-05
4.97727e-05
0.000206957
0.000189885
9.18009e-05
4.97853e-05
0.000206958
2.51183e-05
2.51182e-05
9.18278e-05
0.000206955
4.97762e-05
0.000189877
9.18024e-05
0.000206955
4.97884e-05
3.5706e-05
3.57014e-05
0.000163058
3.57079e-05
3.57032e-05
4.09075e-05
4.95256e-05
4.09013e-05
4.9525e-05
2.51208e-05
2.51207e-05
4.0914e-05
4.95223e-05
4.09083e-05
4.95216e-05
0.000218043
0.000218039
0.000218042
0.000218043
0.000218043
0.000218039
0.000218041
9.18261e-05
4.97727e-05
0.000206958
0.000189885
9.1801e-05
4.97853e-05
0.000206958
2.51183e-05
2.51182e-05
9.18276e-05
0.000206955
4.97763e-05
0.000189877
9.18022e-05
0.000206955
4.97885e-05
3.5706e-05
3.57014e-05
0.00016306
3.57079e-05
3.57032e-05
4.09075e-05
4.95258e-05
4.09013e-05
4.95252e-05
2.51208e-05
2.51208e-05
4.0914e-05
4.95223e-05
4.09083e-05
4.95215e-05
0.000218044
0.000218039
0.000218042
0.000218043
0.000218043
0.000218039
0.000218041
9.18257e-05
4.97727e-05
0.000206957
0.000189885
9.18007e-05
4.97853e-05
0.000206958
2.51183e-05
2.51182e-05
9.18267e-05
0.000206955
4.97763e-05
0.000189877
9.18009e-05
0.000206955
4.97885e-05
3.5706e-05
3.57014e-05
0.000163059
3.57079e-05
3.57032e-05
4.09075e-05
4.9526e-05
4.09013e-05
4.95253e-05
2.51208e-05
2.51207e-05
4.0914e-05
4.95222e-05
4.09083e-05
4.95215e-05
0.000218044
0.000218039
0.000218042
0.000218043
0.000218043
0.000218039
0.000218042
9.18255e-05
4.97727e-05
0.000206957
0.000189885
9.18004e-05
4.97853e-05
0.000206958
2.51183e-05
2.51182e-05
9.18257e-05
0.000206955
4.97763e-05
0.000189877
9.18e-05
0.000206955
4.97885e-05
3.5706e-05
3.57014e-05
0.000163058
3.57079e-05
3.57032e-05
4.09075e-05
4.95261e-05
4.09013e-05
4.95254e-05
2.51208e-05
2.51207e-05
4.0914e-05
4.95222e-05
4.09083e-05
4.95215e-05
0.000218044
0.000218039
0.000218042
0.000218043
0.000218043
0.000218039
0.000218042
9.18253e-05
4.97727e-05
0.000206957
0.000189885
9.18007e-05
4.97853e-05
0.000206958
2.51183e-05
2.51182e-05
9.18251e-05
0.000206954
4.97763e-05
0.000189877
9.17992e-05
0.000206955
4.97885e-05
3.5706e-05
3.57014e-05
0.000163058
3.57079e-05
3.57032e-05
4.09075e-05
4.95261e-05
4.09013e-05
4.95255e-05
2.51208e-05
2.51207e-05
4.09139e-05
4.95222e-05
4.09083e-05
4.95214e-05
0.000218044
0.000218039
0.000218042
0.000218043
0.000218043
0.000218039
0.000218041
9.18252e-05
4.97727e-05
0.000206957
0.000189886
9.18e-05
4.97853e-05
0.000206958
2.51183e-05
2.51182e-05
9.18251e-05
0.000206955
4.97763e-05
0.000189877
9.17993e-05
0.000206955
4.97885e-05
3.5706e-05
3.57014e-05
0.000163059
3.57079e-05
3.57032e-05
4.09075e-05
4.95262e-05
4.09013e-05
4.95255e-05
2.51207e-05
2.51207e-05
4.0914e-05
4.95222e-05
4.09083e-05
4.95214e-05
0.000218044
0.000218039
0.000218042
0.000218043
0.000218043
0.000218039
0.000218042
9.18256e-05
4.97727e-05
0.000206958
0.000189886
9.18007e-05
4.97853e-05
0.000206958
2.51183e-05
2.51182e-05
9.18249e-05
0.000206955
4.97763e-05
0.000189877
9.1799e-05
0.000206955
4.97886e-05
3.5706e-05
3.57014e-05
0.000163059
3.57079e-05
3.57032e-05
4.95262e-05
4.09013e-05
2.51207e-05
4.95222e-05
4.09083e-05
0.000218044
0.000218039
0.000218042
4.97727e-05
0.000206958
9.18002e-05
2.51183e-05
0.000206956
4.97764e-05
9.17988e-05
3.57061e-05
3.57014e-05
2.51222e-05
2.51228e-05
2.51211e-05
2.51216e-05
0.000162909
3.57076e-05
3.57053e-05
3.57059e-05
3.57041e-05
4.09138e-05
4.95232e-05
4.95242e-05
4.09209e-05
4.09146e-05
4.95255e-05
4.95264e-05
4.09217e-05
9.18523e-05
0.000189913
4.98024e-05
0.000206993
4.97891e-05
0.000206993
9.18771e-05
9.18537e-05
0.00018991
4.98066e-05
0.000206992
4.97939e-05
0.000206992
9.18786e-05
2.51228e-05
3.57037e-05
3.56998e-05
2.51229e-05
4.09208e-05
4.95221e-05
4.9523e-05
4.09274e-05
9.18534e-05
0.00018993
4.98044e-05
0.000206995
4.97917e-05
0.000206995
9.18779e-05
4.09197e-05
4.95175e-05
4.95185e-05
4.09262e-05
9.18526e-05
0.000189901
0.000206989
4.97948e-05
0.000206989
4.97815e-05
9.18774e-05
4.98029e-05
0.000206996
0.000206996
9.18746e-05
4.95233e-05
4.09194e-05
0.000189913
0.000206994
4.98053e-05
0.000206994
9.1875e-05
4.95213e-05
4.09193e-05
2.51193e-05
2.51199e-05
0.000162901
3.56944e-05
3.57089e-05
3.56918e-05
3.57071e-05
2.51219e-05
2.51225e-05
9.18547e-05
0.000189925
0.000206992
4.98054e-05
0.000206992
4.97928e-05
9.18798e-05
9.1853e-05
0.000189929
0.000206994
4.98037e-05
0.000206994
4.97908e-05
9.1878e-05
4.09204e-05
4.95211e-05
4.9522e-05
4.09269e-05
4.09207e-05
4.95212e-05
4.95221e-05
4.09274e-05
0.000162906
3.57048e-05
3.57041e-05
3.57018e-05
2.51219e-05
2.51207e-05
2.51213e-05
2.51222e-05
2.51217e-05
2.5121e-05
2.51205e-05
3.57046e-05
3.5704e-05
0.000163125
3.57048e-05
3.57072e-05
2.51214e-05
2.51218e-05
2.51201e-05
2.51204e-05
0.000162946
3.57038e-05
3.57078e-05
3.57019e-05
3.57056e-05
4.09236e-05
4.95262e-05
4.09165e-05
4.95254e-05
9.18784e-05
4.9791e-05
0.000206994
0.000189914
9.1854e-05
4.9804e-05
0.000206993
9.18798e-05
4.97957e-05
0.000206993
0.000189911
9.18554e-05
4.98083e-05
0.000206993
4.09177e-05
4.95229e-05
4.95238e-05
4.09249e-05
4.09185e-05
4.95252e-05
4.95261e-05
4.09257e-05
9.18552e-05
0.000189914
4.98054e-05
0.000206994
4.97925e-05
0.000206994
9.18791e-05
9.18565e-05
0.000189911
4.98099e-05
0.000206993
4.97974e-05
0.000206993
9.18804e-05
3.57025e-05
3.5698e-05
0.000163125
3.57063e-05
3.57014e-05
2.51229e-05
2.51223e-05
2.51216e-05
2.5122e-05
0.000162947
3.57077e-05
3.57022e-05
3.57047e-05
3.56993e-05
2.51219e-05
2.51224e-05
9.18792e-05
4.97934e-05
0.000206996
0.000189931
9.18553e-05
4.98061e-05
0.000206996
4.09281e-05
4.95182e-05
4.09216e-05
4.95174e-05
9.18785e-05
0.00020699
4.97833e-05
0.000189902
9.18543e-05
0.00020699
4.97965e-05
4.09247e-05
4.95217e-05
4.95226e-05
4.09313e-05
9.18564e-05
0.000189931
4.98075e-05
0.000206995
4.9795e-05
0.000206995
9.188e-05
4.09236e-05
4.95172e-05
4.95181e-05
4.09302e-05
9.18554e-05
0.000189902
0.00020699
4.9798e-05
0.00020699
4.9785e-05
9.18793e-05
4.09184e-05
4.9524e-05
4.09135e-05
4.95231e-05
9.18766e-05
0.000206995
4.97941e-05
0.000189914
9.18523e-05
0.000206995
4.98063e-05
4.09183e-05
4.95218e-05
4.09133e-05
4.95209e-05
9.18523e-05
0.000189935
4.98062e-05
0.000206996
4.97932e-05
0.000206997
9.18777e-05
4.0913e-05
4.9523e-05
4.95238e-05
4.09204e-05
9.18539e-05
0.000189914
0.000206994
4.98058e-05
0.000206995
4.97948e-05
9.18783e-05
4.09128e-05
4.95206e-05
4.95215e-05
4.09203e-05
3.56924e-05
3.57074e-05
0.000163116
3.56956e-05
3.57109e-05
2.51219e-05
2.51214e-05
2.51185e-05
2.51188e-05
0.000162938
3.56962e-05
3.57117e-05
3.56933e-05
3.57092e-05
2.51211e-05
2.51214e-05
9.18781e-05
0.000206994
4.97925e-05
0.000189929
9.18538e-05
0.000206994
4.98053e-05
4.09288e-05
4.95217e-05
4.09223e-05
4.95209e-05
4.09292e-05
4.95218e-05
4.09226e-05
4.95211e-05
9.18558e-05
0.000189924
0.000206993
4.98085e-05
0.000206993
4.97961e-05
9.18805e-05
9.18544e-05
0.000189929
0.000206994
4.98068e-05
0.000206994
4.97941e-05
9.18802e-05
4.09242e-05
4.95207e-05
4.95216e-05
4.09308e-05
4.09245e-05
4.95208e-05
4.95217e-05
4.09313e-05
2.51218e-05
2.51213e-05
2.51206e-05
2.51202e-05
0.000162942
3.57096e-05
3.57068e-05
3.57057e-05
3.57043e-05
2.51209e-05
2.51212e-05
2.51199e-05
2.51201e-05
2.51215e-05
2.51212e-05
2.51201e-05
2.51199e-05
3.57017e-05
3.5706e-05
0.000163123
3.5705e-05
3.57082e-05
2.51211e-05
2.51213e-05
2.51199e-05
2.51199e-05
0.000162944
3.57066e-05
3.57095e-05
3.57031e-05
3.57065e-05
4.09275e-05
4.95258e-05
4.09205e-05
4.95248e-05
9.18783e-05
4.97939e-05
0.000206991
0.000189913
9.18554e-05
4.98068e-05
0.000206991
9.18797e-05
4.97989e-05
0.00020699
0.00018991
9.18566e-05
4.98112e-05
0.00020699
4.09215e-05
4.95224e-05
4.95232e-05
4.09283e-05
4.09223e-05
4.95247e-05
4.95255e-05
4.0929e-05
9.1855e-05
0.000189914
4.98081e-05
0.00020699
4.97953e-05
0.000206991
9.18801e-05
9.18564e-05
0.00018991
4.98124e-05
0.00020699
4.98002e-05
0.00020699
9.18816e-05
3.57059e-05
3.57002e-05
0.000163127
3.57082e-05
3.57035e-05
2.5122e-05
2.51216e-05
2.51213e-05
2.51214e-05
0.000162948
3.5709e-05
3.57052e-05
3.57063e-05
3.57017e-05
2.51215e-05
2.51217e-05
9.18808e-05
4.97964e-05
0.000206994
0.00018993
9.18571e-05
4.98087e-05
0.000206994
4.0932e-05
4.95178e-05
4.09256e-05
4.95169e-05
9.18796e-05
0.000206988
4.97865e-05
0.000189901
9.1856e-05
0.000206987
4.97995e-05
4.09285e-05
4.95212e-05
4.9522e-05
4.09346e-05
9.18581e-05
0.00018993
4.981e-05
0.000206994
4.97976e-05
0.000206995
9.18821e-05
4.09273e-05
4.95167e-05
4.95176e-05
4.09333e-05
9.18565e-05
0.000189901
0.000206987
4.98008e-05
0.000206987
4.97879e-05
9.1881e-05
4.09236e-05
4.95237e-05
4.09156e-05
4.95228e-05
9.18779e-05
0.000206994
4.97942e-05
0.000189913
9.18551e-05
0.000206994
4.9806e-05
4.09235e-05
4.95212e-05
4.09154e-05
4.95204e-05
9.18534e-05
0.000189933
4.98091e-05
0.000206995
4.97962e-05
0.000206995
9.18774e-05
4.09188e-05
4.95225e-05
4.95234e-05
4.09266e-05
9.1855e-05
0.000189913
0.000206994
4.9808e-05
0.000206994
4.97949e-05
9.18791e-05
4.09187e-05
4.95203e-05
4.9521e-05
4.09266e-05
3.5694e-05
3.57097e-05
0.000163114
3.56973e-05
3.5712e-05
2.51211e-05
2.51209e-05
2.51182e-05
2.51184e-05
0.000162936
3.56989e-05
3.57132e-05
3.56953e-05
3.57102e-05
2.51208e-05
2.5121e-05
9.1881e-05
0.000206992
4.97955e-05
0.000189928
9.18564e-05
0.000206991
4.98081e-05
4.09325e-05
4.95213e-05
4.09261e-05
4.95204e-05
4.09332e-05
4.95214e-05
4.09266e-05
4.95205e-05
9.18558e-05
0.000189922
0.000206991
4.9811e-05
0.000206991
4.97987e-05
9.18801e-05
9.18569e-05
0.000189928
0.000206991
4.98093e-05
0.000206991
4.97968e-05
9.18807e-05
4.09277e-05
4.95202e-05
4.9521e-05
4.09336e-05
4.09284e-05
4.95203e-05
4.95211e-05
4.09344e-05
2.51209e-05
2.51207e-05
2.51199e-05
2.51197e-05
0.000162941
3.57142e-05
3.57084e-05
3.57105e-05
3.57054e-05
2.51206e-05
2.51208e-05
2.51196e-05
2.51197e-05
2.51212e-05
2.51211e-05
2.51199e-05
2.51199e-05
3.57047e-05
3.57081e-05
0.000163122
3.57086e-05
3.57117e-05
2.51211e-05
2.51212e-05
2.51199e-05
2.51199e-05
0.000162944
3.57109e-05
3.5714e-05
3.57068e-05
3.57104e-05
4.09301e-05
4.95253e-05
4.09237e-05
4.95246e-05
9.18816e-05
4.97966e-05
0.00020699
0.000189914
9.18571e-05
4.98094e-05
0.000206989
9.18829e-05
4.98013e-05
0.000206989
0.00018991
9.18585e-05
4.98135e-05
0.000206989
4.09242e-05
4.95223e-05
4.9523e-05
4.09306e-05
4.09248e-05
4.95245e-05
4.95252e-05
4.09311e-05
9.18583e-05
0.000189913
4.98105e-05
0.000206988
4.97978e-05
0.000206989
9.18821e-05
9.18595e-05
0.000189909
4.98146e-05
0.000206989
4.98025e-05
0.000206989
9.18834e-05
3.57074e-05
3.57033e-05
0.000163127
3.57107e-05
3.57069e-05
2.51216e-05
2.51214e-05
2.51213e-05
2.51213e-05
0.000162947
3.57129e-05
3.57091e-05
3.57093e-05
3.57052e-05
2.51214e-05
2.51215e-05
9.18817e-05
4.97989e-05
0.000206993
0.000189931
9.18591e-05
4.98113e-05
0.000206993
4.09342e-05
4.95174e-05
4.09285e-05
4.95166e-05
9.18813e-05
0.000206985
4.97892e-05
0.000189902
9.18578e-05
0.000206985
4.9802e-05
4.09305e-05
4.95211e-05
4.95218e-05
4.09364e-05
9.18586e-05
0.00018993
4.98124e-05
0.00020699
4.98002e-05
0.000206992
9.1882e-05
4.09293e-05
4.95166e-05
4.95173e-05
4.09351e-05
9.18579e-05
0.000189902
0.000206984
4.98031e-05
0.000206985
4.97904e-05
9.18815e-05
4.0929e-05
4.95232e-05
4.09217e-05
4.95224e-05
9.18799e-05
0.000206994
4.97972e-05
0.000189914
9.18561e-05
0.000206994
4.98108e-05
4.0929e-05
4.95209e-05
4.09216e-05
4.95202e-05
9.18545e-05
0.000189931
4.98114e-05
0.000206996
4.97988e-05
0.000206996
9.18807e-05
4.0924e-05
4.95224e-05
4.95231e-05
4.09311e-05
9.18571e-05
0.000189914
0.000206995
4.98132e-05
0.000206995
4.98e-05
9.18816e-05
4.0924e-05
4.95202e-05
4.95209e-05
4.09311e-05
3.56969e-05
3.57116e-05
0.000163113
3.57007e-05
3.57152e-05
2.51209e-05
2.51208e-05
2.51182e-05
2.51183e-05
0.000162935
3.57028e-05
3.57175e-05
3.56988e-05
3.57138e-05
2.51208e-05
2.51209e-05
9.18803e-05
0.00020699
4.9798e-05
0.000189927
9.18564e-05
0.00020699
4.98106e-05
4.09343e-05
4.95208e-05
4.09287e-05
4.95201e-05
4.09352e-05
4.9521e-05
4.09294e-05
4.95202e-05
9.18557e-05
0.000189921
0.00020699
4.98132e-05
0.000206992
4.98011e-05
9.18807e-05
9.18563e-05
0.000189927
0.000206991
4.98116e-05
0.000206991
4.97993e-05
9.18813e-05
4.09294e-05
4.95201e-05
4.95208e-05
4.09353e-05
4.09302e-05
4.95202e-05
4.95209e-05
4.09361e-05
2.51207e-05
2.51206e-05
2.51197e-05
2.51196e-05
0.00016294
3.57182e-05
3.57127e-05
3.57148e-05
3.5709e-05
2.51207e-05
2.51207e-05
2.51196e-05
2.51197e-05
2.51213e-05
2.51212e-05
2.512e-05
2.512e-05
3.57091e-05
3.57127e-05
0.00016312
3.57127e-05
3.5716e-05
2.51213e-05
2.51214e-05
2.51201e-05
2.51201e-05
0.000162941
3.57139e-05
3.57173e-05
3.57108e-05
3.57145e-05
4.09323e-05
4.95252e-05
4.09258e-05
4.95246e-05
9.18824e-05
4.97989e-05
0.000206988
0.00018991
9.18587e-05
4.98115e-05
0.000206988
9.18843e-05
4.98035e-05
0.000206989
0.000189908
9.186e-05
4.98155e-05
0.000206989
4.09264e-05
4.95224e-05
4.95231e-05
4.09329e-05
4.0927e-05
4.95246e-05
4.95253e-05
4.09336e-05
9.18592e-05
0.00018991
4.98122e-05
0.00020699
4.97998e-05
0.000206989
9.18828e-05
9.18612e-05
0.000189909
4.98163e-05
0.000206991
4.98044e-05
0.00020699
9.18851e-05
3.57115e-05
3.57074e-05
0.000163126
3.5715e-05
3.57113e-05
2.51216e-05
2.51215e-05
2.51215e-05
2.51214e-05
0.000162947
3.57166e-05
3.57128e-05
3.57135e-05
3.57095e-05
2.51216e-05
2.51217e-05
9.18833e-05
4.98012e-05
0.000206989
0.000189926
9.18592e-05
4.98133e-05
0.000206989
4.09365e-05
4.95173e-05
4.09304e-05
4.95166e-05
9.18826e-05
0.000206984
4.97915e-05
0.0001899
9.18583e-05
0.000206984
4.98042e-05
4.0933e-05
4.95212e-05
4.95218e-05
4.09391e-05
9.18608e-05
0.000189927
4.9814e-05
0.000206989
4.98021e-05
0.000206989
9.18844e-05
4.09318e-05
4.95167e-05
4.95174e-05
4.0938e-05
9.18597e-05
0.000189899
0.000206985
4.98049e-05
0.000206984
4.97925e-05
9.18842e-05
4.09327e-05
4.95231e-05
4.09259e-05
4.95224e-05
9.18835e-05
0.000206995
4.98023e-05
0.000189914
9.18589e-05
0.000206994
4.98151e-05
4.09327e-05
4.95209e-05
4.09259e-05
4.95203e-05
9.18584e-05
0.00018993
4.98132e-05
0.000206992
4.98009e-05
0.000206992
9.18841e-05
4.09274e-05
4.95224e-05
4.95231e-05
4.09339e-05
9.1861e-05
0.000189915
0.000206991
4.98163e-05
0.000206993
4.98039e-05
9.18855e-05
4.09274e-05
4.95204e-05
4.9521e-05
4.09339e-05
3.57009e-05
3.5716e-05
0.000163112
3.57046e-05
3.57194e-05
2.5121e-05
2.51209e-05
2.51184e-05
2.51185e-05
0.000162934
3.57058e-05
3.57206e-05
3.57026e-05
3.57177e-05
2.51211e-05
2.51211e-05
9.18829e-05
0.000206991
4.98002e-05
0.000189928
9.18576e-05
0.000206991
4.98125e-05
4.09365e-05
4.95208e-05
4.09305e-05
4.95201e-05
4.09375e-05
4.95209e-05
4.09313e-05
4.95202e-05
9.18574e-05
0.00018992
0.000206988
4.98147e-05
0.000206988
4.98029e-05
9.18828e-05
9.18593e-05
0.000189928
0.000206989
4.98132e-05
0.000206989
4.98011e-05
9.18837e-05
4.09318e-05
4.95202e-05
4.95208e-05
4.0938e-05
4.09327e-05
4.95203e-05
4.95209e-05
4.0939e-05
2.51208e-05
2.51207e-05
2.51197e-05
2.51197e-05
0.00016294
3.57211e-05
3.57157e-05
3.57182e-05
3.57129e-05
2.51209e-05
2.51208e-05
2.51198e-05
2.51198e-05
2.51215e-05
2.51215e-05
2.51202e-05
2.51203e-05
3.57117e-05
3.57156e-05
0.00016312
3.57142e-05
3.57177e-05
2.51217e-05
2.51217e-05
2.51205e-05
2.51204e-05
0.000162941
3.57131e-05
3.57166e-05
3.57118e-05
3.57157e-05
4.09338e-05
4.95253e-05
4.09282e-05
4.95247e-05
9.1881e-05
4.98005e-05
0.000206989
0.000189911
9.18592e-05
4.98126e-05
0.000206989
9.18821e-05
4.98052e-05
0.000206991
0.000189908
9.18613e-05
4.9817e-05
0.000206991
4.09273e-05
4.9523e-05
4.95233e-05
4.09316e-05
4.09281e-05
4.95249e-05
4.95254e-05
4.09323e-05
9.18569e-05
0.000189911
4.98108e-05
0.000206989
4.98006e-05
0.000206989
9.18768e-05
9.18578e-05
0.000189907
4.9816e-05
0.00020699
4.98057e-05
0.000206991
9.18786e-05
3.57148e-05
3.57108e-05
0.000163125
3.57173e-05
3.57135e-05
2.51218e-05
2.51218e-05
2.51218e-05
2.51217e-05
0.000162946
3.57164e-05
3.57129e-05
3.57153e-05
3.57112e-05
2.5122e-05
2.5122e-05
9.18815e-05
4.98028e-05
0.000206992
0.000189927
9.1861e-05
4.98145e-05
0.000206992
4.09382e-05
4.95175e-05
4.09331e-05
4.95168e-05
9.18796e-05
0.000206986
4.97932e-05
0.000189894
9.18604e-05
0.000206987
4.98053e-05
4.09342e-05
4.95218e-05
4.95221e-05
4.09379e-05
9.1858e-05
0.000189927
4.98127e-05
0.000206993
4.98029e-05
0.000206994
9.1878e-05
4.0933e-05
4.95173e-05
4.95177e-05
4.09367e-05
9.18552e-05
0.000189894
0.000206987
4.98034e-05
0.000206988
4.97932e-05
9.18766e-05
4.09342e-05
4.95232e-05
4.09285e-05
4.95225e-05
9.18822e-05
0.000206991
4.9805e-05
0.000189912
9.18623e-05
0.00020699
4.98168e-05
4.0934e-05
4.95211e-05
4.09285e-05
4.95205e-05
9.18598e-05
0.000189927
4.9813e-05
0.000206991
4.98019e-05
0.000206991
9.18792e-05
4.09284e-05
4.95227e-05
4.95232e-05
4.09331e-05
9.18577e-05
0.00018991
0.00020699
4.98154e-05
0.00020699
4.98053e-05
9.18775e-05
4.09282e-05
4.95209e-05
4.95212e-05
4.09327e-05
3.57036e-05
3.57188e-05
0.00016311
3.57061e-05
3.57211e-05
2.51212e-05
2.51212e-05
2.51188e-05
2.51188e-05
0.000162932
3.57049e-05
3.572e-05
3.57036e-05
3.5719e-05
2.51214e-05
2.51214e-05
9.18827e-05
0.000206991
4.98018e-05
0.000189923
9.18594e-05
0.000206991
4.98137e-05
4.09386e-05
4.95209e-05
4.09332e-05
4.95203e-05
4.09394e-05
4.9521e-05
4.09341e-05
4.95204e-05
9.18591e-05
0.000189919
0.000206987
4.98138e-05
0.000206988
4.98038e-05
9.18799e-05
9.18579e-05
0.000189922
0.000206992
4.98119e-05
0.000206992
4.98019e-05
9.1877e-05
4.09335e-05
4.95207e-05
4.95211e-05
4.09375e-05
4.09341e-05
4.95208e-05
4.95212e-05
4.09379e-05
2.5121e-05
2.5121e-05
2.512e-05
2.512e-05
0.000162938
3.5721e-05
3.57151e-05
3.57197e-05
3.5714e-05
2.51212e-05
2.51211e-05
2.51202e-05
2.51202e-05
2.51219e-05
2.51217e-05
2.51205e-05
2.51205e-05
3.57102e-05
3.57142e-05
0.000163108
3.57111e-05
3.57147e-05
2.51214e-05
2.51217e-05
2.51201e-05
2.51204e-05
0.000162922
3.57087e-05
3.57123e-05
3.57082e-05
3.57122e-05
4.09263e-05
4.95257e-05
4.09256e-05
4.95257e-05
9.18661e-05
4.97979e-05
0.000206988
0.000189903
9.18491e-05
4.98056e-05
0.000206986
9.18677e-05
4.98037e-05
0.000206989
0.0001899
9.18509e-05
4.98111e-05
0.000206986
4.09179e-05
4.9524e-05
4.95245e-05
4.09187e-05
4.09186e-05
4.95263e-05
4.95266e-05
4.09194e-05
9.18377e-05
0.000189898
4.97985e-05
0.00020697
4.9792e-05
0.000206982
9.18497e-05
9.18393e-05
0.000189896
4.9804e-05
0.00020697
4.9798e-05
0.000206982
9.18513e-05
3.57138e-05
3.57102e-05
0.000163117
3.57145e-05
3.5711e-05
2.51222e-05
2.51221e-05
2.51216e-05
2.51219e-05
0.000162933
3.57127e-05
3.57091e-05
3.5712e-05
3.57082e-05
2.51219e-05
2.51222e-05
9.18656e-05
4.98002e-05
0.000206992
0.00018992
9.18507e-05
4.98075e-05
0.000206989
4.09306e-05
4.95182e-05
4.09304e-05
4.95179e-05
9.18655e-05
0.000206985
4.97904e-05
0.000189889
9.18491e-05
0.000206983
4.97981e-05
4.09245e-05
4.95228e-05
4.95232e-05
4.09248e-05
9.18381e-05
0.000189914
4.98004e-05
0.00020697
4.97943e-05
0.000206983
9.185e-05
4.09234e-05
4.95183e-05
4.95188e-05
4.09237e-05
9.18376e-05
0.000189884
0.000206966
4.9791e-05
0.000206978
4.97844e-05
9.18497e-05
4.09277e-05
4.95236e-05
4.09266e-05
4.95233e-05
9.18663e-05
0.000206988
4.9803e-05
0.000189903
9.18505e-05
0.000206986
4.98105e-05
4.09274e-05
4.95217e-05
4.09263e-05
4.95215e-05
9.18392e-05
0.000189921
4.98022e-05
0.000206977
4.97955e-05
0.000206985
9.18541e-05