/*--------------------------------*- C++ -*----------------------------------*\
| =========                 |                                                 |
| \\      /  F ield         | OpenFOAM: The Open Source CFD Toolbox           |
|  \\    /   O peration     | Version:  2206                                  |
|   \\  /    A nd           | Website:  www.openfoam.com                      |
|    \\/     M anipulation  |                                                 |
\*---------------------------------------------------------------------------*/
FoamFile
{
    version     2.0;
    format      ascii;
    arch        "LSB;label=32;scalar=64";
    class       volVectorField;
    location    "9";
    object      U;
}
// * * * * * * * * * * * * * * * * * * * * * * * * * * * * * * * * * * * * * //

dimensions      [0 1 -1 0 0 0 0];

internalField   nonuniform List<vector> 
28673
(
(-2.03111e-07 3.82255e-07 0.101147)
(-3.50178e-05 -3.50333e-05 0.101142)
(-4.20518e-07 -3.8134e-07 0.101149)
(-2.23218e-07 4.4272e-07 0.101147)
(3.41344e-07 -1.58593e-07 0.101147)
(-3.49716e-05 -3.49666e-05 0.101142)
(-3.07447e-07 -3.1922e-07 0.101149)
(-2.93028e-07 4.26197e-07 0.101147)
(4.60847e-07 -3.05693e-07 0.101147)
(-3.51322e-05 -3.51391e-05 0.101142)
(-3.46901e-07 -3.59891e-07 0.101149)
(-2.43571e-07 4.08979e-07 0.101147)
(4.2107e-07 -2.43286e-07 0.101147)
(-3.50616e-05 -3.50787e-05 0.101142)
(-3.55751e-07 -3.60729e-07 0.101149)
(-2.41095e-07 4.08686e-07 0.101147)
(4.1261e-07 -2.37871e-07 0.101147)
(-3.50598e-05 -3.50717e-05 0.101142)
(-3.56945e-07 -3.59925e-07 0.101149)
(-2.42626e-07 4.09846e-07 0.101147)
(4.11313e-07 -2.37787e-07 0.101147)
(-3.50614e-05 -3.50721e-05 0.101142)
(-3.57665e-07 -3.60302e-07 0.101149)
(-2.4165e-07 4.0913e-07 0.101147)
(4.1088e-07 -2.37236e-07 0.101147)
(-3.50609e-05 -3.50711e-05 0.101142)
(-3.5739e-07 -3.59997e-07 0.101149)
(-2.42237e-07 4.09476e-07 0.101147)
(4.11102e-07 -2.3847e-07 0.101147)
(-3.50616e-05 -3.50715e-05 0.101142)
(-3.60509e-07 -3.61673e-07 0.101149)
(-2.40625e-07 4.09523e-07 0.101147)
(4.10526e-07 -2.37689e-07 0.101147)
(-3.50603e-05 -3.50707e-05 0.101142)
(-3.79291e-07 -3.79436e-07 0.10115)
(-2.68563e-07 4.40771e-07 0.101147)
(4.40163e-07 -2.67626e-07 0.101147)
(-3.50086e-05 -3.5022e-05 0.101142)
(-2.64692e-07 -2.60114e-07 0.101151)
(-1.66716e-06 1.50507e-06 0.101146)
(1.49518e-06 -1.66533e-06 0.101146)
(-3.35488e-05 -3.35576e-05 0.101142)
(-6.71666e-06 -6.65765e-06 0.101148)
(-2.25065e-06 2.18709e-06 0.101142)
(2.15226e-06 -2.23471e-06 0.101142)
(-2.52527e-05 -2.52294e-05 0.101143)
(-4.5055e-05 -4.4925e-05 0.101075)
(4.10893e-05 -3.39643e-05 0.101077)
(-3.40532e-05 4.10756e-05 0.101077)
(5.04789e-05 5.05159e-05 0.101082)
(-3.9957e-07 2.25391e-07 0.101147)
(3.62678e-05 -3.6243e-05 0.101143)
(-2.11955e-07 3.89623e-07 0.101147)
(-3.63263e-05 -3.62787e-05 0.101142)
(4.10292e-07 2.12937e-07 0.101147)
(-3.92791e-07 2.16421e-07 0.101147)
(3.55618e-07 1.58498e-07 0.101147)
(-3.88157e-07 1.78832e-07 0.101147)
(-3.50156e-05 3.49891e-05 0.101142)
(3.6337e-05 -3.63163e-05 0.101142)
(1.64232e-07 3.6866e-07 0.101147)
(1.82802e-07 -3.80016e-07 0.101147)
(-2.20199e-07 -3.99916e-07 0.101147)
(-1.67583e-07 3.75042e-07 0.101147)
(-1.71137e-07 -3.53945e-07 0.101147)
(-3.62796e-05 3.63009e-05 0.101142)
(-3.85872e-07 -2.21779e-07 0.101147)
(3.64677e-07 -1.50624e-07 0.101147)
(-3.56819e-07 -1.57115e-07 0.101147)
(3.62963e-05 3.63304e-05 0.101142)
(3.49651e-05 3.49684e-05 0.101142)
(-3.61958e-05 -3.61494e-05 0.101142)
(3.52899e-07 1.96419e-07 0.101147)
(-4.57999e-07 2.33006e-07 0.101147)
(4.57922e-07 3.32274e-07 0.101147)
(-4.52366e-07 3.22428e-07 0.101147)
(-3.50139e-05 3.49847e-05 0.101142)
(3.62077e-05 -3.61853e-05 0.101142)
(1.48041e-07 3.89045e-07 0.101147)
(1.49797e-07 -3.65342e-07 0.101147)
(3.07038e-07 4.68658e-07 0.101147)
(3.14781e-07 -4.70976e-07 0.101147)
(-2.01679e-07 -3.66361e-07 0.101147)
(-3.12027e-07 4.379e-07 0.101147)
(-3.40393e-07 -4.54974e-07 0.101147)
(3.49688e-05 -3.50103e-05 0.101142)
(-3.61437e-05 3.61748e-05 0.101142)
(-3.85657e-07 -1.78274e-07 0.101147)
(4.55928e-07 -3.26922e-07 0.101147)
(-4.6263e-07 -3.2793e-07 0.101147)
(3.61558e-05 3.61885e-05 0.101142)
(3.51453e-05 3.51188e-05 0.101142)
(-3.62457e-05 -3.62392e-05 0.101143)
(4.55482e-07 3.05616e-07 0.101147)
(-4.38928e-07 3.04541e-07 0.101147)
(4.34051e-07 2.49108e-07 0.101147)
(-4.20643e-07 2.60926e-07 0.101147)
(-3.51185e-05 3.50911e-05 0.101142)
(3.62629e-05 -3.62379e-05 0.101143)
(3.11618e-07 4.39984e-07 0.101147)
(3.27034e-07 -4.6616e-07 0.101147)
(2.63097e-07 4.10139e-07 0.101147)
(2.72483e-07 -4.29938e-07 0.101147)
(-3.12871e-07 -4.4529e-07 0.101147)
(-2.4732e-07 4.10809e-07 0.101147)
(-2.614e-07 -4.23729e-07 0.101147)
(3.51497e-05 -3.51727e-05 0.101142)
(-3.62188e-05 3.6256e-05 0.101143)
(-4.36891e-07 -3.08998e-07 0.101147)
(4.27011e-07 -2.47275e-07 0.101147)
(-4.0711e-07 -2.64492e-07 0.101147)
(3.6237e-05 3.62523e-05 0.101143)
(3.50818e-05 3.50495e-05 0.101142)
(-3.62618e-05 -3.62409e-05 0.101143)
(4.28762e-07 2.48564e-07 0.101147)
(-4.19157e-07 2.5695e-07 0.101147)
(4.22316e-07 2.42824e-07 0.101147)
(-4.1962e-07 2.53218e-07 0.101147)
(-3.50691e-05 3.50432e-05 0.101142)
(3.62665e-05 -3.62422e-05 0.101143)
(2.5512e-07 4.10018e-07 0.101147)
(2.61403e-07 -4.28251e-07 0.101147)
(2.42357e-07 4.09887e-07 0.101147)
(2.49548e-07 -4.19744e-07 0.101147)
(-2.5685e-07 -4.19764e-07 0.101147)
(-2.39666e-07 4.08525e-07 0.101147)
(-2.53056e-07 -4.15615e-07 0.101147)
(3.50598e-05 -3.50873e-05 0.101142)
(-3.62358e-05 3.62659e-05 0.101143)
(-4.05174e-07 -2.58872e-07 0.101147)
(4.13138e-07 -2.36014e-07 0.101147)
(-4.06186e-07 -2.5219e-07 0.101147)
(3.62412e-05 3.62623e-05 0.101143)
(3.50702e-05 3.50498e-05 0.101142)
(-3.62628e-05 -3.62394e-05 0.101143)
(4.21716e-07 2.47771e-07 0.101147)
(-4.1995e-07 2.5391e-07 0.101147)
(4.21226e-07 2.44677e-07 0.101147)
(-4.21733e-07 2.54514e-07 0.101147)
(-3.50671e-05 3.50408e-05 0.101142)
(3.62649e-05 -3.6241e-05 0.101143)
(2.43193e-07 4.11973e-07 0.101147)
(2.48281e-07 -4.23877e-07 0.101147)
(2.40868e-07 4.11782e-07 0.101147)
(2.4827e-07 -4.19482e-07 0.101147)
(-2.53414e-07 -4.14428e-07 0.101147)
(-2.416e-07 4.10061e-07 0.101147)
(-2.54923e-07 -4.1531e-07 0.101147)
(3.5047e-05 -3.50793e-05 0.101142)
(-3.62371e-05 3.62663e-05 0.101143)
(-4.0585e-07 -2.51499e-07 0.101147)
(4.11472e-07 -2.36089e-07 0.101147)
(-4.08204e-07 -2.5187e-07 0.101147)
(3.62396e-05 3.62622e-05 0.101143)
(3.50694e-05 3.5051e-05 0.101142)
(-3.62639e-05 -3.62397e-05 0.101143)
(4.20618e-07 2.48791e-07 0.101147)
(-4.2166e-07 2.54979e-07 0.101147)
(4.19844e-07 2.44393e-07 0.101147)
(-4.21093e-07 2.53734e-07 0.101147)
(-3.50687e-05 3.5042e-05 0.101142)
(3.62654e-05 -3.62414e-05 0.101143)
(2.42099e-07 4.12825e-07 0.101147)
(2.47556e-07 -4.23449e-07 0.101147)
(2.39839e-07 4.1114e-07 0.101147)
(2.47029e-07 -4.19458e-07 0.101147)
(-2.55082e-07 -4.14618e-07 0.101147)
(-2.4097e-07 4.09406e-07 0.101147)
(-2.54418e-07 -4.14584e-07 0.101147)
(3.5046e-05 -3.50791e-05 0.101142)
(-3.62375e-05 3.62663e-05 0.101143)
(-4.07631e-07 -2.51713e-07 0.101147)
(4.10637e-07 -2.35682e-07 0.101147)
(-4.08e-07 -2.51238e-07 0.101147)
(3.62397e-05 3.62629e-05 0.101143)
(3.50685e-05 3.50508e-05 0.101142)
(-3.62637e-05 -3.62393e-05 0.101143)
(4.19799e-07 2.48507e-07 0.101147)
(-4.2077e-07 2.53924e-07 0.101147)
(4.2075e-07 2.44919e-07 0.101147)
(-4.2181e-07 2.53946e-07 0.101147)
(-3.50678e-05 3.50413e-05 0.101142)
(3.62651e-05 -3.62414e-05 0.101143)
(2.41373e-07 4.12603e-07 0.101147)
(2.4656e-07 -4.22375e-07 0.101147)
(2.40688e-07 4.12259e-07 0.101147)
(2.47631e-07 -4.21178e-07 0.101147)
(-2.54526e-07 -4.13908e-07 0.101147)
(-2.41479e-07 4.09879e-07 0.101147)
(-2.55268e-07 -4.15049e-07 0.101147)
(3.50454e-05 -3.50785e-05 0.101142)
(-3.62372e-05 3.62652e-05 0.101143)
(-4.07265e-07 -2.51027e-07 0.101147)
(4.1122e-07 -2.36711e-07 0.101147)
(-4.08797e-07 -2.51888e-07 0.101147)
(3.62391e-05 3.62627e-05 0.101143)
(3.5069e-05 3.50513e-05 0.101142)
(-3.62636e-05 -3.62392e-05 0.101143)
(4.20318e-07 2.49029e-07 0.101147)
(-4.21334e-07 2.54272e-07 0.101147)
(4.20077e-07 2.44133e-07 0.101147)
(-4.22498e-07 2.53566e-07 0.101147)
(-3.50683e-05 3.50414e-05 0.101142)
(3.62647e-05 -3.62407e-05 0.101143)
(2.41887e-07 4.13393e-07 0.101147)
(2.47284e-07 -4.21493e-07 0.101147)
(2.40366e-07 4.11935e-07 0.101147)
(2.47695e-07 -4.21057e-07 0.101147)
(-2.55238e-07 -4.1419e-07 0.101147)
(-2.41168e-07 4.09671e-07 0.101147)
(-2.54748e-07 -4.15276e-07 0.101147)
(3.50457e-05 -3.50786e-05 0.101142)
(-3.62379e-05 3.62666e-05 0.101143)
(-4.07954e-07 -2.51659e-07 0.101147)
(4.10723e-07 -2.35812e-07 0.101147)
(-4.09143e-07 -2.50384e-07 0.101147)
(3.62391e-05 3.62626e-05 0.101143)
(3.50675e-05 3.50507e-05 0.101142)
(-3.62448e-05 -3.62226e-05 0.101143)
(4.18847e-07 2.49895e-07 0.101147)
(-4.20135e-07 2.53654e-07 0.101147)
(4.1099e-07 2.43545e-07 0.101147)
(-4.15211e-07 2.51429e-07 0.101147)
(-3.50674e-05 3.50406e-05 0.101142)
(3.62486e-05 -3.62214e-05 0.101143)
(2.40754e-07 4.12462e-07 0.101147)
(2.46754e-07 -4.2052e-07 0.101147)
(2.38083e-07 4.04187e-07 0.101147)
(2.47191e-07 -4.12591e-07 0.101147)
(-2.50931e-07 -4.12206e-07 0.101147)
(-2.39943e-07 4.02312e-07 0.101147)
(-2.47308e-07 -4.09102e-07 0.101147)
(3.50441e-05 -3.50763e-05 0.101142)
(-3.62227e-05 3.62526e-05 0.101143)
(-4.07225e-07 -2.47234e-07 0.101147)
(4.01172e-07 -2.34377e-07 0.101147)
(-4.02415e-07 -2.40665e-07 0.101147)
(3.62249e-05 3.62459e-05 0.101143)
(3.50167e-05 3.50024e-05 0.101142)
(-3.56375e-05 -3.56196e-05 0.101143)
(4.48516e-07 2.80523e-07 0.101147)
(-4.50214e-07 2.81283e-07 0.101147)
(-2.44272e-07 -4.79183e-07 0.101147)
(2.31742e-07 -4.81938e-07 0.101147)
(-3.50181e-05 3.49909e-05 0.101142)
(3.56399e-05 -3.56128e-05 0.101143)
(2.71544e-07 4.42225e-07 0.101147)
(2.7565e-07 -4.48594e-07 0.101147)
(-4.98606e-07 -2.45349e-07 0.101147)
(-4.81951e-07 2.42894e-07 0.101147)
(-2.77206e-07 -4.4154e-07 0.101147)
(4.9707e-07 -2.44976e-07 0.101147)
(4.84314e-07 2.39458e-07 0.101147)
(3.49968e-05 -3.50271e-05 0.101142)
(-3.56218e-05 3.56426e-05 0.101143)
(-4.37631e-07 -2.69387e-07 0.101147)
(-2.57712e-07 4.96001e-07 0.101147)
(2.49183e-07 4.93451e-07 0.101147)
(3.56093e-05 3.5636e-05 0.101143)
(3.35524e-05 3.35404e-05 0.101142)
(-3.04569e-05 -3.04091e-05 0.101142)
(1.50299e-06 1.68219e-06 0.101146)
(-1.51062e-06 1.68099e-06 0.101146)
(-4.18037e-06 -6.3937e-06 0.101149)
(4.15714e-06 -6.3882e-06 0.101149)
(-3.35544e-05 3.35393e-05 0.101142)
(3.04174e-05 -3.04122e-05 0.101142)
(1.66724e-06 1.50264e-06 0.101146)
(1.67528e-06 -1.50464e-06 0.101146)
(-6.42319e-06 -4.15723e-06 0.101149)
(-6.42057e-06 4.17029e-06 0.101149)
(-1.67376e-06 -1.49657e-06 0.101146)
(6.39563e-06 -4.13571e-06 0.101149)
(6.41012e-06 4.16997e-06 0.101149)
(3.354e-05 -3.35625e-05 0.101142)
(-3.04442e-05 3.04375e-05 0.101142)
(-1.49526e-06 -1.66558e-06 0.101146)
(-4.16553e-06 6.40161e-06 0.101149)
(4.15757e-06 6.40957e-06 0.101149)
(3.04117e-05 3.04363e-05 0.101142)
(2.52024e-05 2.52624e-05 0.101143)
(-4.6836e-05 -4.66617e-05 0.101107)
(2.13626e-06 2.27128e-06 0.101142)
(-2.17069e-06 2.2782e-06 0.101142)
(-3.69857e-05 -5.75914e-05 0.101116)
(3.69821e-05 -5.76355e-05 0.101116)
(-2.5253e-05 2.5272e-05 0.101143)
(4.68252e-05 -4.66794e-05 0.101107)
(2.19132e-06 2.16974e-06 0.101142)
(2.20825e-06 -2.13279e-06 0.101142)
(-5.77852e-05 -3.68767e-05 0.101116)
(-5.77382e-05 3.69901e-05 0.101116)
(-2.23118e-06 -2.13038e-06 0.101142)
(5.77635e-05 -3.68894e-05 0.101116)
(5.77231e-05 3.69985e-05 0.101116)
(2.52078e-05 -2.52456e-05 0.101143)
(-4.67891e-05 4.68254e-05 0.101107)
(-2.15195e-06 -2.23306e-06 0.101142)
(-3.69595e-05 5.77375e-05 0.101116)
(3.69709e-05 5.77818e-05 0.101116)
(4.67836e-05 4.68289e-05 0.101107)
(-5.05326e-05 -5.03473e-05 0.101082)
(-3.40827e-05 -4.09076e-05 0.101077)
(3.40711e-05 -4.09405e-05 0.101077)
(5.05132e-05 -5.03486e-05 0.101082)
(-4.1113e-05 -3.39625e-05 0.101077)
(-4.10655e-05 3.40745e-05 0.101077)
(4.50476e-05 -4.49256e-05 0.101075)
(-4.50297e-05 4.50577e-05 0.101075)
(4.50502e-05 4.50703e-05 0.101075)
(4.1062e-05 3.40824e-05 0.101077)
(-5.04747e-05 5.05176e-05 0.101082)
(3.4067e-05 4.11159e-05 0.101077)
(-1.84542e-08 -5.98409e-06 0.100687)
(6.02355e-07 4.62958e-06 0.0979173)
(1.71305e-08 5.84017e-06 0.100686)
(-7.32905e-07 -5.13951e-06 0.0979199)
(-1.04606e-06 1.19126e-06 0.0910542)
(1.32069e-06 -1.81326e-06 0.0910583)
(-5.97087e-06 -1.83467e-08 0.100687)
(-5.09903e-06 -8.58946e-07 0.0979193)
(3.94957e-07 -3.87382e-07 0.101149)
(3.91435e-07 3.68266e-07 0.101149)
(-4.08621e-07 -4.00543e-07 0.101149)
(3.99454e-07 -3.94504e-07 0.101149)
(-3.97455e-07 4.03242e-07 0.101149)
(4.02072e-07 4.00329e-07 0.101149)
(1.05281e-05 -5.72059e-08 0.101079)
(-9.08549e-06 2.68623e-06 0.100783)
(-2.49837e-07 -1.46863e-07 0.101149)
(-1.90292e-07 3.709e-07 0.101147)
(-1.036e-05 2.225e-08 0.101078)
(9.00372e-06 -3.04537e-06 0.100785)
(-2.3371e-07 -1.53661e-07 0.101149)
(-1.72191e-06 1.27932e-06 0.0910558)
(-3.41941e-08 1.05128e-05 0.101079)
(-1.21675e-07 -2.54664e-07 0.101149)
(3.99633e-07 -1.9899e-07 0.101147)
(4.8495e-08 -1.03594e-05 0.101078)
(-1.26052e-07 -2.42361e-07 0.101149)
(-2.96805e-06 8.9593e-06 0.100785)
(-2.98966e-06 -3.48172e-06 0.100189)
(-3.46831e-06 -2.98842e-06 0.100189)
(3.62657e-05 3.62863e-05 0.101142)
(2.73421e-06 3.46489e-06 0.100191)
(3.46061e-06 2.72982e-06 0.100191)
(-5.79053e-08 -5.99427e-06 0.100687)
(7.60581e-07 4.62261e-06 0.0979184)
(-5.68334e-08 5.71951e-06 0.100686)
(-7.16017e-07 -5.09218e-06 0.0979207)
(-8.67101e-07 7.26897e-07 0.0910596)
(4.81087e-07 -6.95358e-07 0.0910616)
(-6.1316e-06 -2.1587e-08 0.100687)
(4.66882e-06 7.08529e-07 0.0979178)
(5.78729e-06 3.74937e-09 0.100686)
(-5.2947e-06 -5.07059e-07 0.0979202)
(3.53372e-07 -3.51589e-07 0.101149)
(-4.11817e-07 3.9974e-07 0.101149)
(3.86875e-07 3.98463e-07 0.101149)
(-3.16223e-07 -2.94401e-07 0.101149)
(3.08364e-07 -3.05669e-07 0.101149)
(-3.20822e-07 3.22247e-07 0.101149)
(3.03933e-07 2.97122e-07 0.101149)
(1.0397e-05 2.34659e-08 0.101078)
(-8.9333e-06 2.5746e-06 0.100783)
(-2.33147e-07 -1.1435e-07 0.101149)
(-2.85785e-07 4.74664e-07 0.101147)
(-1.02458e-05 3.28032e-08 0.101078)
(8.7096e-06 -2.67551e-06 0.100784)
(-3.18024e-07 -7.83482e-08 0.101149)
(1.0757e-06 -1.05229e-06 0.0910549)
(-2.00113e-06 1.46921e-06 0.0910598)
(-1.07791e-07 1.04222e-05 0.101078)
(-1.67511e-07 -1.9104e-07 0.101149)
(2.65393e-06 -9.01799e-06 0.100783)
(3.47752e-07 -2.23628e-07 0.101147)
(2.84681e-09 -1.02267e-05 0.101078)
(-1.90069e-07 -2.76102e-07 0.101149)
(-3.2784e-06 9.03788e-06 0.100784)
(-2.94546e-06 -3.3313e-06 0.100189)
(-3.33886e-06 -2.92881e-06 0.100189)
(3.62002e-05 3.62494e-05 0.101142)
(2.72826e-06 3.4055e-06 0.10019)
(3.38345e-06 2.73845e-06 0.10019)
(1.57745e-08 -5.88124e-06 0.100688)
(5.89859e-07 5.53217e-06 0.0979179)
(4.59012e-08 5.96115e-06 0.100686)
(-8.0315e-07 -4.73785e-06 0.0979195)
(-1.21283e-06 1.67924e-06 0.0910537)
(1.15555e-06 -1.38466e-06 0.0910557)
(-5.86427e-06 -1.88444e-08 0.100687)
(5.76554e-06 4.94486e-07 0.0979183)
(6.00813e-06 4.97629e-08 0.100686)
(-4.39122e-06 -8.55723e-07 0.0979196)
(3.36267e-07 -3.31675e-07 0.101149)
(-2.96899e-07 3.06168e-07 0.101149)
(3.27434e-07 3.09536e-07 0.101149)
(-3.40361e-07 -3.5634e-07 0.101149)
(3.62393e-07 -3.53741e-07 0.101149)
(-3.32814e-07 3.4466e-07 0.101149)
(3.64468e-07 3.39774e-07 0.101149)
(1.028e-05 -5.08244e-08 0.101079)
(-9.3144e-06 2.94128e-06 0.100783)
(-3.88712e-07 -1.25013e-07 0.101149)
(-2.71393e-07 4.18594e-07 0.101147)
(-1.07381e-05 3.35452e-08 0.101078)
(8.80581e-06 -2.87005e-06 0.100785)
(-3.50943e-07 -1.30264e-07 0.101149)
(2.43711e-06 -1.77185e-06 0.0910564)
(-9.32046e-07 9.1212e-07 0.0910561)
(2.64762e-09 1.02574e-05 0.101079)
(-9.30938e-08 -3.92839e-07 0.101149)
(3.22391e-06 -9.47015e-06 0.100783)
(4.46956e-07 -2.75851e-07 0.101147)
(6.62555e-08 -1.07342e-05 0.101078)
(-8.98394e-08 -3.62516e-07 0.101149)
(-2.72233e-06 8.75792e-06 0.100785)
(-2.73696e-06 -3.58247e-06 0.100189)
(-3.58359e-06 -2.72979e-06 0.100189)
(3.62155e-05 3.62317e-05 0.101143)
(2.86209e-06 3.36251e-06 0.100191)
(3.3629e-06 2.8524e-06 0.100191)
(-2.98858e-09 -5.93817e-06 0.100688)
(6.88592e-07 4.93076e-06 0.0979173)
(1.1079e-08 5.83641e-06 0.100686)
(-7.83498e-07 -4.84089e-06 0.0979194)
(-1.18996e-06 1.41643e-06 0.0910534)
(1.12563e-06 -1.428e-06 0.0910557)
(-5.96875e-06 -1.74331e-08 0.100687)
(4.92186e-06 6.58915e-07 0.097917)
(5.8828e-06 7.00882e-09 0.100686)
(-4.82666e-06 -7.77189e-07 0.0979191)
(3.63291e-07 -3.55241e-07 0.101149)
(-3.41209e-07 3.51562e-07 0.101149)
(3.68472e-07 3.44114e-07 0.101149)
(-3.54972e-07 -3.60389e-07 0.101149)
(3.62782e-07 -3.55072e-07 0.101149)
(-3.5079e-07 3.59e-07 0.101149)
(3.68714e-07 3.4807e-07 0.101149)
(1.03627e-05 -4.27918e-08 0.101079)
(-9.15243e-06 2.77503e-06 0.100783)
(-3.02634e-07 -1.29957e-07 0.101149)
(-2.40503e-07 4.08915e-07 0.101147)
(-1.04546e-05 3.25626e-08 0.101078)
(8.8565e-06 -2.89916e-06 0.100785)
(-2.96395e-07 -1.29859e-07 0.101149)
(1.35593e-06 -1.14922e-06 0.091052)
(-1.36133e-06 1.09503e-06 0.0910553)
(-3.70568e-08 1.03522e-05 0.101079)
(-1.16326e-07 -3.06558e-07 0.101149)
(2.80893e-06 -9.18423e-06 0.100783)
(4.17137e-07 -2.38679e-07 0.101147)
(4.47457e-08 -1.04487e-05 0.101078)
(-1.20549e-07 -3.02607e-07 0.101149)
(-2.91465e-06 8.88644e-06 0.100785)
(-2.93291e-06 -3.47886e-06 0.100189)
(-3.4649e-06 -2.93268e-06 0.100189)
(3.62421e-05 3.62609e-05 0.101143)
(2.85316e-06 3.38395e-06 0.100191)
(3.38279e-06 2.84597e-06 0.100191)
(-5.78661e-09 -5.93936e-06 0.100688)
(6.83847e-07 4.92743e-06 0.0979173)
(4.46498e-09 5.83123e-06 0.100686)
(-7.86365e-07 -4.83987e-06 0.0979194)
(-1.19245e-06 1.41383e-06 0.0910534)
(1.12481e-06 -1.42954e-06 0.0910557)
(-5.97298e-06 -1.53494e-08 0.100687)
(4.9143e-06 6.69931e-07 0.097917)
(5.8656e-06 1.03389e-08 0.100686)
(-4.82861e-06 -7.74495e-07 0.0979191)
(3.62277e-07 -3.55344e-07 0.101149)
(-3.52363e-07 3.59392e-07 0.101149)
(3.6942e-07 3.49099e-07 0.101149)
(-3.56786e-07 -3.59314e-07 0.101149)
(3.60805e-07 -3.54031e-07 0.101149)
(-3.53366e-07 3.60138e-07 0.101149)
(3.66874e-07 3.48814e-07 0.101149)
(1.03642e-05 -4.13533e-08 0.101079)
(-9.14844e-06 2.77684e-06 0.100783)
(-2.97517e-07 -1.28274e-07 0.101149)
(-2.4064e-07 4.09456e-07 0.101147)
(-1.04495e-05 3.53791e-08 0.101078)
(8.85733e-06 -2.89844e-06 0.100785)
(-2.96009e-07 -1.2832e-07 0.101149)
(1.362e-06 -1.16387e-06 0.091052)
(-1.36023e-06 1.09282e-06 0.0910553)
(-4.09341e-08 1.03567e-05 0.101079)
(-1.24778e-07 -2.9607e-07 0.101149)
(2.79681e-06 -9.17527e-06 0.100783)
(4.11869e-07 -2.36136e-07 0.101147)
(3.59161e-08 -1.04409e-05 0.101078)
(-1.25539e-07 -2.9739e-07 0.101149)
(-2.91779e-06 8.88826e-06 0.100785)
(-2.93013e-06 -3.47666e-06 0.100189)
(-3.46704e-06 -2.9267e-06 0.100189)
(3.62416e-05 3.62639e-05 0.101143)
(2.85363e-06 3.38673e-06 0.100191)
(3.38228e-06 2.84853e-06 0.100191)
(-6.13006e-09 -5.93878e-06 0.100688)
(6.82382e-07 4.9279e-06 0.0979173)
(3.69874e-09 5.83135e-06 0.100686)
(-7.87009e-07 -4.83941e-06 0.0979194)
(-1.19364e-06 1.41387e-06 0.0910534)
(1.12409e-06 -1.42941e-06 0.0910557)
(-5.97245e-06 -1.49361e-08 0.100687)
(4.91368e-06 6.71718e-07 0.097917)
(5.86595e-06 1.07881e-08 0.100686)
(-4.82857e-06 -7.72747e-07 0.0979191)
(3.60587e-07 -3.54363e-07 0.101149)
(-3.53826e-07 3.60009e-07 0.101149)
(3.67697e-07 3.49404e-07 0.101149)
(-3.57637e-07 -3.59415e-07 0.101149)
(3.6078e-07 -3.54238e-07 0.101149)
(-3.54182e-07 3.60141e-07 0.101149)
(3.66715e-07 3.49094e-07 0.101149)
(1.03631e-05 -4.13013e-08 0.101079)
(-9.14912e-06 2.77691e-06 0.100783)
(-2.99408e-07 -1.27577e-07 0.101149)
(-2.41558e-07 4.10183e-07 0.101147)
(-1.04503e-05 3.5894e-08 0.101078)
(8.85673e-06 -2.89794e-06 0.100785)
(-2.96849e-07 -1.27931e-07 0.101149)
(1.36236e-06 -1.16387e-06 0.091052)
(-1.35956e-06 1.09271e-06 0.0910553)
(-4.18209e-08 1.03588e-05 0.101079)
(-1.26181e-07 -2.95585e-07 0.101149)
(2.79562e-06 -9.17611e-06 0.100783)
(4.11104e-07 -2.36117e-07 0.101147)
(3.60975e-08 -1.04437e-05 0.101078)
(-1.26446e-07 -2.9676e-07 0.101149)
(-2.91776e-06 8.88753e-06 0.100785)
(-2.93071e-06 -3.47671e-06 0.100189)
(-3.46886e-06 -2.92604e-06 0.100189)
(3.62405e-05 3.62635e-05 0.101143)
(2.85278e-06 3.38648e-06 0.100191)
(3.38111e-06 2.84825e-06 0.100191)
(-6.43248e-09 -5.93867e-06 0.100688)
(6.82717e-07 4.92834e-06 0.0979173)
(3.69662e-09 5.83248e-06 0.100686)
(-7.87168e-07 -4.83966e-06 0.0979194)
(-1.1941e-06 1.41343e-06 0.0910534)
(1.12387e-06 -1.42999e-06 0.0910557)
(-5.97296e-06 -1.49354e-08 0.100687)
(4.91378e-06 6.71483e-07 0.097917)
(5.8659e-06 1.08263e-08 0.100686)
(-4.82867e-06 -7.73888e-07 0.0979191)
(3.60954e-07 -3.54791e-07 0.101149)
(-3.54504e-07 3.6039e-07 0.101149)
(3.68007e-07 3.49769e-07 0.101149)
(-3.57398e-07 -3.5947e-07 0.101149)
(3.60782e-07 -3.54306e-07 0.101149)
(-3.54047e-07 3.60038e-07 0.101149)
(3.66549e-07 3.48942e-07 0.101149)
(1.0364e-05 -4.09771e-08 0.101079)
(-9.14863e-06 2.77696e-06 0.100783)
(-2.98251e-07 -1.2774e-07 0.101149)
(-2.40797e-07 4.09755e-07 0.101147)
(-1.04496e-05 3.59631e-08 0.101078)
(8.85742e-06 -2.89847e-06 0.100785)
(-2.96156e-07 -1.28132e-07 0.101149)
(1.36222e-06 -1.16398e-06 0.091052)
(-1.36058e-06 1.09209e-06 0.0910553)
(-4.26186e-08 1.03609e-05 0.101079)
(-1.26472e-07 -2.9475e-07 0.101149)
(2.79543e-06 -9.17576e-06 0.100783)
(4.1067e-07 -2.35826e-07 0.101147)
(3.64753e-08 -1.04455e-05 0.101078)
(-1.2677e-07 -2.96748e-07 0.101149)
(-2.91864e-06 8.88853e-06 0.100785)
(-2.93076e-06 -3.47651e-06 0.100189)
(-3.46874e-06 -2.92573e-06 0.100189)
(3.6241e-05 3.62646e-05 0.101143)
(2.85324e-06 3.38639e-06 0.100191)
(3.38095e-06 2.84932e-06 0.100191)
(-6.87263e-09 -5.93887e-06 0.100688)
(6.82447e-07 4.92784e-06 0.0979173)
(3.12899e-09 5.83079e-06 0.100686)
(-7.86859e-07 -4.83884e-06 0.0979194)
(-1.19353e-06 1.41385e-06 0.0910534)
(1.12402e-06 -1.42933e-06 0.0910557)
(-5.97235e-06 -1.46494e-08 0.100687)
(4.91199e-06 6.70386e-07 0.097917)
(5.86451e-06 1.09897e-08 0.100686)
(-4.82505e-06 -7.72343e-07 0.0979191)
(3.60613e-07 -3.54759e-07 0.101149)
(-3.54415e-07 3.59974e-07 0.101149)
(3.67874e-07 3.49479e-07 0.101149)
(-3.56183e-07 -3.57672e-07 0.101149)
(3.59249e-07 -3.53311e-07 0.101149)
(-3.5297e-07 3.59299e-07 0.101149)
(3.64385e-07 3.48897e-07 0.101149)
(1.03632e-05 -4.10169e-08 0.101079)
(-9.14861e-06 2.77658e-06 0.100783)
(-2.98837e-07 -1.27683e-07 0.101149)
(-2.41776e-07 4.101e-07 0.101147)
(-1.04499e-05 3.62721e-08 0.101078)
(8.85664e-06 -2.89817e-06 0.100785)
(-2.96808e-07 -1.27919e-07 0.101149)
(1.36186e-06 -1.1643e-06 0.091052)
(-1.36013e-06 1.09251e-06 0.0910553)
(-4.3335e-08 1.03601e-05 0.101079)
(-1.26617e-07 -2.96122e-07 0.101149)
(2.79473e-06 -9.17588e-06 0.100783)
(4.11282e-07 -2.3674e-07 0.101147)
(3.63612e-08 -1.04474e-05 0.101078)
(-1.26672e-07 -2.97634e-07 0.101149)
(-2.91848e-06 8.8876e-06 0.100785)
(-2.93018e-06 -3.47589e-06 0.100189)
(-3.46806e-06 -2.92547e-06 0.100189)
(3.62402e-05 3.62641e-05 0.101143)
(2.85294e-06 3.38714e-06 0.100191)
(3.38128e-06 2.84866e-06 0.100191)
(-6.5175e-09 -5.93433e-06 0.100688)
(6.82049e-07 4.9263e-06 0.0979173)
(3.00194e-09 5.83151e-06 0.100686)
(-7.84184e-07 -4.83435e-06 0.0979194)
(-1.18936e-06 1.41253e-06 0.0910534)
(1.11135e-06 -1.4234e-06 0.0910557)
(-5.96733e-06 -1.33244e-08 0.100687)
(4.91076e-06 6.70402e-07 0.097917)
(5.8648e-06 1.08381e-08 0.100686)
(-4.82392e-06 -7.70313e-07 0.0979191)
(3.62309e-07 -3.57443e-07 0.101149)
(-3.56724e-07 3.62064e-07 0.101149)
(3.67991e-07 3.53607e-07 0.101149)
(-3.27436e-07 -3.25923e-07 0.101149)
(3.27182e-07 -3.24296e-07 0.101149)
(-3.24542e-07 3.2876e-07 0.101149)
(3.24677e-07 3.24777e-07 0.101149)
(1.03596e-05 -4.0387e-08 0.101079)
(-9.14868e-06 2.77689e-06 0.100783)
(-2.96486e-07 -1.28918e-07 0.101149)
(-2.42107e-07 4.09804e-07 0.101147)
(-1.04494e-05 3.59649e-08 0.101078)
(8.85397e-06 -2.89647e-06 0.100785)
(-2.97673e-07 -1.22944e-07 0.101149)
(1.36281e-06 -1.16393e-06 0.091052)
(-1.36187e-06 1.09207e-06 0.0910553)
(-4.25271e-08 1.03566e-05 0.101079)
(-1.28717e-07 -2.9403e-07 0.101149)
(2.79426e-06 -9.1751e-06 0.100783)
(4.09979e-07 -2.37095e-07 0.101147)
(3.5544e-08 -1.04458e-05 0.101078)
(-1.22181e-07 -2.9927e-07 0.101149)
(-2.91409e-06 8.8839e-06 0.100785)
(-2.9313e-06 -3.47662e-06 0.100189)
(-3.46882e-06 -2.92559e-06 0.100189)
(3.62397e-05 3.6262e-05 0.101143)
(2.85117e-06 3.38455e-06 0.100191)
(3.37803e-06 2.84734e-06 0.100191)
(2.30523e-07 -5.62368e-06 0.100688)
(7.01879e-07 4.73111e-06 0.0979169)
(-2.53531e-08 5.75531e-06 0.100686)
(-1.00646e-06 -2.95672e-06 0.0979224)
(-1.18728e-06 1.32421e-06 0.0910532)
(1.3266e-06 -9.18386e-07 0.0910569)
(-5.64657e-06 2.31129e-07 0.100688)
(4.72299e-06 7.01685e-07 0.0979167)
(5.78117e-06 -1.63848e-08 0.100686)
(-2.95136e-06 -1.0089e-06 0.0979221)
(3.79142e-07 -3.75916e-07 0.10115)
(-3.77953e-07 3.80205e-07 0.10115)
(3.78258e-07 3.75985e-07 0.10115)
(-1.99478e-07 -2.03981e-07 0.101149)
(2.01306e-07 -2.01409e-07 0.101149)
(-2.04764e-07 2.05661e-07 0.101149)
(2.03009e-07 2.06185e-07 0.101149)
(1.00894e-05 3.06049e-08 0.101079)
(-9.03511e-06 2.74188e-06 0.100783)
(-2.7097e-07 -1.71041e-07 0.101149)
(-1.5378e-07 3.04858e-07 0.101147)
(-1.03773e-05 2.5756e-08 0.101078)
(8.11978e-06 -2.65714e-06 0.100786)
(-3.55983e-07 -1.82673e-08 0.101149)
(1.32647e-06 -1.20001e-06 0.0910519)
(-9.22429e-07 1.35264e-06 0.0910564)
(2.87495e-08 1.00889e-05 0.101079)
(-1.71573e-07 -2.66853e-07 0.101149)
(2.75439e-06 -9.05596e-06 0.100783)
(2.9909e-07 -1.47159e-07 0.101147)
(2.37158e-08 -1.03745e-05 0.101078)
(-2.23991e-08 -3.49846e-07 0.101149)
(-2.67113e-06 8.1411e-06 0.100786)
(-2.88006e-06 -3.49974e-06 0.100189)
(-3.49387e-06 -2.87336e-06 0.100189)
(3.61268e-05 3.61487e-05 0.101143)
(2.763e-06 3.67872e-06 0.100192)
(3.67002e-06 2.76016e-06 0.100192)
(1.2196e-05 9.37028e-07 0.100689)
(3.2662e-06 -2.55335e-05 0.0978611)
(-4.43067e-06 3.53631e-06 0.100686)
(-1.07727e-05 5.36141e-05 0.0981005)
(-3.37529e-06 -7.78456e-06 0.0910376)
(1.50119e-06 2.37395e-05 0.0911094)
(9.63332e-07 1.22452e-05 0.100689)
(-2.55606e-05 3.28143e-06 0.0978609)
(3.53252e-06 -4.42215e-06 0.100686)
(5.37112e-05 -1.0751e-05 0.0981002)
(2.63147e-07 -2.60773e-07 0.101151)
(-2.65123e-07 2.68233e-07 0.101151)
(2.62665e-07 2.72535e-07 0.101151)
(-1.52047e-06 -1.4867e-06 0.101144)
(1.49793e-06 -1.48341e-06 0.101144)
(-1.50209e-06 1.51381e-06 0.101144)
(1.49614e-06 1.5194e-06 0.101144)
(6.54642e-06 1.97563e-06 0.101079)
(1.03743e-07 -2.65132e-07 0.100776)
(-6.72127e-08 -4.97763e-07 0.10115)
(2.57366e-06 -1.78251e-06 0.101148)
(-8.31757e-06 -7.86565e-07 0.101078)
(-9.48736e-06 4.65891e-06 0.100799)
(-1.81767e-07 6.50241e-07 0.101148)
(-7.79667e-06 -3.34248e-06 0.0910367)
(2.37355e-05 1.40644e-06 0.0911085)
(1.9564e-06 6.56096e-06 0.101079)
(-5.02301e-07 -6.17147e-08 0.10115)
(-2.52057e-07 8.54524e-08 0.100776)
(-1.79755e-06 2.5816e-06 0.101148)
(-7.90168e-07 -8.31773e-06 0.101078)
(6.36595e-07 -1.74404e-07 0.101148)
(4.64813e-06 -9.46687e-06 0.100799)
(-4.18964e-06 -4.08805e-06 0.100187)
(-4.09453e-06 -4.16477e-06 0.100187)
(3.31611e-05 3.31866e-05 0.101144)
(-3.39761e-06 -1.09299e-05 0.100191)
(-1.09151e-05 -3.38005e-06 0.10019)
(3.55339e-06 -7.91541e-06 0.100717)
(1.55856e-05 -7.46472e-05 0.0974813)
(-7.65292e-06 4.18789e-06 0.100678)
(4.37631e-05 -1.78845e-05 0.0986261)
(2.1244e-05 -8.89787e-05 0.0909158)
(-3.32115e-05 9.60683e-05 0.091288)
(-7.92977e-06 3.54266e-06 0.100718)
(-7.5006e-05 1.56275e-05 0.097481)
(4.13224e-06 -7.66204e-06 0.100678)
(-1.77984e-05 4.36166e-05 0.0986261)
(6.69225e-06 -6.65183e-06 0.101148)
(-6.68707e-06 6.71059e-06 0.101148)
(6.67984e-06 6.72002e-06 0.101148)
(-3.0456e-05 -3.03492e-05 0.101084)
(3.04521e-05 -3.03598e-05 0.101084)
(-3.04332e-05 3.04668e-05 0.101084)
(3.04468e-05 3.04766e-05 0.101084)
(1.94243e-05 -1.73908e-06 0.101087)
(1.68081e-05 -1.57407e-05 0.100765)
(6.10756e-06 -2.92978e-06 0.10115)
(1.78863e-05 -1.13072e-05 0.101147)
(-2.20227e-06 -1.04816e-06 0.101079)
(-1.1192e-05 -8.55649e-06 0.100835)
(1.21351e-05 -2.88921e-06 0.101133)
(-8.89729e-05 2.11621e-05 0.0909151)
(9.58383e-05 -3.30681e-05 0.0912872)
(-1.75405e-06 1.94176e-05 0.101087)
(-2.96118e-06 6.10226e-06 0.10115)
(-1.57478e-05 1.68202e-05 0.100765)
(-1.13546e-05 1.78858e-05 0.101147)
(-1.06987e-06 -2.19506e-06 0.101079)
(-2.92743e-06 1.20868e-05 0.101133)
(-8.69105e-06 -1.11697e-05 0.100835)
(2.14045e-05 3.49073e-05 0.100163)
(3.46978e-05 2.1378e-05 0.100163)
(3.21987e-05 3.22974e-05 0.101143)
(-2.7768e-05 -4.20134e-05 0.10032)
(-4.20533e-05 -2.75581e-05 0.100319)
(-1.02519e-05 -0.000142416 0.100715)
(-0.000122727 -0.000115582 0.0969606)
(-2.79973e-05 -8.82824e-05 0.100618)
(-0.000178398 -0.00014753 0.0996205)
(0.000209811 -0.000380869 0.091309)
(0.000148331 -0.000321816 0.0961337)
(-0.000142694 -1.04099e-05 0.100715)
(-0.00011621 -0.000121933 0.0969602)
(-8.89561e-05 -2.78979e-05 0.100618)
(-0.000147905 -0.000178518 0.09962)
(-9.34162e-06 -9.24893e-06 0.101005)
(-1.28701e-05 -3.76464e-05 0.101074)
(-3.77855e-05 -1.27756e-05 0.101074)
(-3.92214e-05 -3.90698e-05 0.100999)
(-1.16676e-05 -1.15735e-05 0.101072)
(-1.02836e-05 -3.71149e-05 0.101001)
(-3.72604e-05 -1.01969e-05 0.101001)
(0.000109447 3.20847e-06 0.100917)
(0.000126738 -5.78528e-05 0.100825)
(6.41194e-05 -1.89816e-05 0.101076)
(5.41277e-05 -4.22966e-05 0.100995)
(8.46013e-05 -1.53091e-05 0.10103)
(0.000101734 -3.72859e-05 0.100762)
(5.52675e-05 -1.19394e-05 0.100996)
(-0.000380731 0.000209675 0.0913086)
(-0.000321902 0.000148171 0.0961334)
(3.16982e-06 0.000109282 0.100917)
(-1.90479e-05 6.40848e-05 0.101076)
(-5.81362e-05 0.000126734 0.100825)
(-4.24208e-05 5.41018e-05 0.100995)
(-1.53066e-05 8.45428e-05 0.10103)
(-1.20087e-05 5.52367e-05 0.100996)
(-3.73451e-05 0.000101567 0.100761)
(0.000232085 9.01275e-05 0.100122)
(9.0112e-05 0.000232242 0.100122)
(5.37108e-05 5.37168e-05 0.100988)
(8.31954e-06 -8.81563e-05 0.10103)
(-8.82807e-05 8.35755e-06 0.101031)
(8.67925e-07 -5.08007e-06 0.0979195)
(2.95284e-06 -8.90751e-06 0.100785)
(1.29556e-06 -1.72627e-06 0.0910562)
(3.3684e-06 -2.73353e-06 0.100191)
(2.69209e-06 -3.33845e-06 0.100192)
(1.69356e-06 -1.27338e-06 0.091057)
(8.88693e-06 -2.93927e-06 0.100785)
(5.0514e-06 -8.59282e-07 0.0979196)