/*--------------------------------*- C++ -*----------------------------------*\
| =========                 |                                                 |
| \\      /  F ield         | OpenFOAM: The Open Source CFD Toolbox           |
|  \\    /   O peration     | Version:  2206                                  |
|   \\  /    A nd           | Website:  www.openfoam.com                      |
|    \\/     M anipulation  |                                                 |
\*---------------------------------------------------------------------------*/
FoamFile
{
    version     2.0;
    format      ascii;
    arch        "LSB;label=32;scalar=64";
    class       volScalarField;
    location    "11.5";
    object      epsilon;
}
// * * * * * * * * * * * * * * * * * * * * * * * * * * * * * * * * * * * * * //

dimensions      [0 2 -3 0 0 0 0];

internalField   nonuniform List<scalar> 
28673
(
4.11501e-07
4.2571e-07
4.02342e-07
4.11504e-07
4.11507e-07
4.2573e-07
4.02332e-07
4.11476e-07
4.11503e-07
4.2573e-07
4.02156e-07
4.11312e-07
4.11352e-07
4.25608e-07
4.02101e-07
4.11301e-07
4.11304e-07
4.25579e-07
4.02101e-07
4.113e-07
4.11304e-07
4.25581e-07
4.02101e-07
4.113e-07
4.11304e-07
4.25583e-07
4.02101e-07
4.113e-07
4.11304e-07
4.25583e-07
4.02101e-07
4.113e-07
4.11304e-07
4.25583e-07
4.02101e-07
4.113e-07
4.11303e-07
4.25583e-07
4.02101e-07
4.11297e-07
4.11301e-07
4.25581e-07
4.02102e-07
4.11303e-07
4.11307e-07
4.25564e-07
4.01929e-07
4.08819e-07
4.0882e-07
4.2283e-07
4.11512e-07
4.25588e-07
4.115e-07
4.25612e-07
4.11509e-07
4.11512e-07
4.11509e-07
4.1151e-07
4.25719e-07
4.25602e-07
4.11504e-07
4.11515e-07
4.1151e-07
4.11504e-07
4.11509e-07
4.25608e-07
4.11506e-07
4.11507e-07
4.11505e-07
4.25604e-07
4.25739e-07
4.25612e-07
4.11513e-07
4.11514e-07
4.11508e-07
4.11502e-07
4.2573e-07
4.256e-07
4.11507e-07
4.11518e-07
4.11502e-07
4.11514e-07
4.11513e-07
4.11495e-07
4.11507e-07
4.25736e-07
4.25611e-07
4.11509e-07
4.11507e-07
4.11502e-07
4.25606e-07
4.25739e-07
4.25526e-07
4.11501e-07
4.11483e-07
4.11374e-07
4.11343e-07
4.25722e-07
4.25471e-07
4.115e-07
4.11511e-07
4.11408e-07
4.11419e-07
4.11498e-07
4.11335e-07
4.11364e-07
4.25738e-07
4.25537e-07
4.11493e-07
4.114e-07
4.11359e-07
4.25497e-07
4.25637e-07
4.25445e-07
4.11339e-07
4.11322e-07
4.11307e-07
4.11309e-07
4.25587e-07
4.25449e-07
4.11359e-07
4.1137e-07
4.11304e-07
4.11314e-07
4.11333e-07
4.11301e-07
4.11308e-07
4.25647e-07
4.25451e-07
4.11329e-07
4.11304e-07
4.11304e-07
4.2545e-07
4.25574e-07
4.25458e-07
4.1131e-07
4.11313e-07
4.11308e-07
4.11309e-07
4.25581e-07
4.2545e-07
4.11306e-07
4.11316e-07
4.11303e-07
4.11314e-07
4.11312e-07
4.113e-07
4.11309e-07
4.25578e-07
4.25463e-07
4.11307e-07
4.11304e-07
4.11304e-07
4.25457e-07
4.25584e-07
4.25457e-07
4.1131e-07
4.11312e-07
4.11308e-07
4.11309e-07
4.25577e-07
4.25452e-07
4.11306e-07
4.11316e-07
4.11303e-07
4.11314e-07
4.11311e-07
4.113e-07
4.11309e-07
4.25589e-07
4.25461e-07
4.11307e-07
4.11304e-07
4.11304e-07
4.25459e-07
4.25584e-07
4.25456e-07
4.1131e-07
4.11312e-07
4.11308e-07
4.11309e-07
4.25579e-07
4.25452e-07
4.11306e-07
4.11316e-07
4.11303e-07
4.11314e-07
4.11311e-07
4.113e-07
4.11309e-07
4.25588e-07
4.25461e-07
4.11307e-07
4.11304e-07
4.11304e-07
4.25459e-07
4.25583e-07
4.25456e-07
4.1131e-07
4.11312e-07
4.11308e-07
4.11309e-07
4.25579e-07
4.25452e-07
4.11306e-07
4.11316e-07
4.11303e-07
4.11314e-07
4.11311e-07
4.113e-07
4.11309e-07
4.25587e-07
4.25461e-07
4.11307e-07
4.11304e-07
4.11304e-07
4.25459e-07
4.25583e-07
4.25456e-07
4.1131e-07
4.11312e-07
4.11308e-07
4.11309e-07
4.25579e-07
4.25452e-07
4.11306e-07
4.11316e-07
4.11303e-07
4.11314e-07
4.11311e-07
4.113e-07
4.11309e-07
4.25587e-07
4.25461e-07
4.11307e-07
4.11304e-07
4.11304e-07
4.25459e-07
4.25583e-07
4.25455e-07
4.1131e-07
4.11312e-07
4.11306e-07
4.11307e-07
4.25579e-07
4.25451e-07
4.11305e-07
4.11316e-07
4.11301e-07
4.11312e-07
4.11311e-07
4.11298e-07
4.11307e-07
4.25587e-07
4.25461e-07
4.11307e-07
4.11302e-07
4.11302e-07
4.25458e-07
4.25581e-07
4.2544e-07
4.11308e-07
4.11309e-07
4.11288e-07
4.11289e-07
4.25578e-07
4.25436e-07
4.11303e-07
4.11314e-07
4.11283e-07
4.11293e-07
4.11309e-07
4.1128e-07
4.11289e-07
4.25586e-07
4.25445e-07
4.11304e-07
4.11284e-07
4.11283e-07
4.25443e-07
4.25565e-07
4.24318e-07
4.11316e-07
4.11316e-07
4.09895e-07
4.09894e-07
4.25561e-07
4.24316e-07
4.11311e-07
4.11321e-07
4.09891e-07
4.09897e-07
4.11317e-07
4.09891e-07
4.09895e-07
4.25568e-07
4.24321e-07
4.11311e-07
4.09892e-07
4.0989e-07
4.24316e-07
4.22833e-07
4.08821e-07
4.08821e-07
4.22832e-07
4.08819e-07
4.08823e-07
4.01928e-07
4.01929e-07
4.01928e-07
4.08821e-07
4.22835e-07
4.08819e-07
1.4107e-06
7.22658e-06
1.41126e-06
7.22624e-06
2.43857e-05
2.43827e-05
1.41061e-06
7.22732e-06
4.02345e-07
4.02341e-07
4.02343e-07
4.02343e-07
4.02342e-07
4.02339e-07
5.73708e-07
1.16344e-06
4.04569e-07
4.11504e-07
5.73816e-07
1.16287e-06
4.04569e-07
2.43873e-05
5.73743e-07
4.04567e-07
4.11508e-07
5.73852e-07
4.04567e-07
1.16308e-06
2.35108e-06
2.35156e-06
4.25597e-07
2.35086e-06
2.35135e-06
1.41066e-06
7.22633e-06
1.411e-06
7.22591e-06
2.43809e-05
2.43796e-05
1.41054e-06
7.22747e-06
1.41085e-06
7.22704e-06
4.02343e-07
4.02342e-07
4.02339e-07
4.02337e-07
4.02333e-07
4.02337e-07
4.02331e-07
5.73652e-07
1.16323e-06
4.04566e-07
4.11506e-07
5.73742e-07
1.16282e-06
4.04566e-07
2.43842e-05
2.43818e-05
5.73686e-07
4.04565e-07
1.16324e-06
4.11511e-07
5.73776e-07
4.04565e-07
1.16281e-06
2.35127e-06
2.35175e-06
4.25606e-07
2.35096e-06
2.35145e-06
1.41129e-06
7.22656e-06
1.41114e-06
7.22929e-06
2.43894e-05
2.43972e-05
1.4108e-06
7.22743e-06
1.41082e-06
7.22787e-06
4.02319e-07
4.02333e-07
4.02321e-07
4.0221e-07
4.02159e-07
4.02216e-07
4.02166e-07
5.73712e-07
1.16356e-06
4.04548e-07
4.11428e-07
5.73771e-07
1.1634e-06
4.04515e-07
2.43822e-05
2.43854e-05
5.73746e-07
4.04551e-07
1.16322e-06
4.11492e-07
5.73805e-07
4.04526e-07
1.16299e-06
2.35153e-06
2.35201e-06
4.25582e-07
2.35198e-06
2.35247e-06
1.41163e-06
7.23247e-06
1.41195e-06
7.23208e-06
2.4398e-05
2.43973e-05
1.41148e-06
7.2337e-06
1.41173e-06
7.23335e-06
4.02127e-07
4.02162e-07
4.02131e-07
4.02102e-07
4.02102e-07
4.02103e-07
4.02102e-07
5.73738e-07
1.16388e-06
4.04362e-07
4.11306e-07
5.73832e-07
1.16346e-06
4.04349e-07
2.44001e-05
2.4399e-05
5.73772e-07
4.04369e-07
1.16377e-06
4.11326e-07
5.73866e-07
4.04352e-07
1.16341e-06
2.3526e-06
2.35309e-06
4.25453e-07
2.35224e-06
2.35273e-06
1.41163e-06
7.23238e-06
1.41196e-06
7.23206e-06
2.43979e-05
2.43973e-05
1.41149e-06
7.23358e-06
1.41177e-06
7.23323e-06
4.02106e-07
4.02106e-07
4.02106e-07
4.02101e-07
4.02102e-07
4.02103e-07
4.02103e-07
5.73734e-07
1.16388e-06
4.04339e-07
4.11303e-07
5.73827e-07
1.16346e-06
4.04343e-07
2.43994e-05
2.43986e-05
5.7377e-07
4.0434e-07
1.16382e-06
4.11306e-07
5.73865e-07
4.04343e-07
1.16342e-06
2.35256e-06
2.35305e-06
4.25462e-07
2.35223e-06
2.35272e-06
1.41163e-06
7.23237e-06
1.41196e-06
7.23205e-06
2.43979e-05
2.43973e-05
1.41149e-06
7.23356e-06
1.41178e-06
7.23322e-06
4.02105e-07
4.02106e-07
4.02105e-07
4.02101e-07
4.02102e-07
4.02103e-07
4.02103e-07
5.73736e-07
1.16388e-06
4.04338e-07
4.11302e-07
5.73831e-07
1.16346e-06
4.04341e-07
2.43993e-05
2.43985e-05
5.73771e-07
4.04339e-07
1.16382e-06
4.11306e-07
5.73867e-07
4.04342e-07
1.16342e-06
2.35256e-06
2.35305e-06
4.25457e-07
2.35223e-06
2.35272e-06
1.41163e-06
7.23237e-06
1.41196e-06
7.23205e-06
2.43979e-05
2.43973e-05
1.41149e-06
7.23356e-06
1.41178e-06
7.23322e-06
4.02105e-07
4.02106e-07
4.02105e-07
4.02101e-07
4.02102e-07
4.02103e-07
4.02103e-07
5.73736e-07
1.16388e-06
4.04338e-07
4.11302e-07
5.7383e-07
1.16346e-06
4.04341e-07
2.43993e-05
2.43985e-05
5.7377e-07
4.04339e-07
1.16382e-06
4.11306e-07
5.73865e-07
4.04342e-07
1.16342e-06
2.35256e-06
2.35305e-06
4.25457e-07
2.35223e-06
2.35272e-06
1.41163e-06
7.23237e-06
1.41196e-06
7.23205e-06
2.43978e-05
2.43973e-05
1.41149e-06
7.23356e-06
1.41177e-06
7.23322e-06
4.02105e-07
4.02106e-07
4.02105e-07
4.02101e-07
4.02102e-07
4.02103e-07
4.02103e-07
5.73736e-07
1.16388e-06
4.04339e-07
4.11302e-07
5.7383e-07
1.16346e-06
4.04341e-07
2.43993e-05
2.43985e-05
5.73762e-07
4.04339e-07
1.16382e-06
4.11306e-07
5.73858e-07
4.04342e-07
1.16342e-06
2.35256e-06
2.35305e-06
4.25457e-07
2.35223e-06
2.35272e-06
1.41163e-06
7.23237e-06
1.41196e-06
7.23206e-06
2.43979e-05
2.43973e-05
1.41149e-06
7.23356e-06
1.41177e-06
7.23323e-06
4.02105e-07
4.02106e-07
4.02105e-07
4.02101e-07
4.02102e-07
4.02103e-07
4.02103e-07
5.73736e-07
1.16388e-06
4.04338e-07
4.11302e-07
5.73829e-07
1.16346e-06
4.04341e-07
2.43993e-05
2.43986e-05
5.73755e-07
4.04339e-07
1.16382e-06
4.11306e-07
5.7385e-07
4.04342e-07
1.16342e-06
2.35256e-06
2.35305e-06
4.25457e-07
2.35223e-06
2.35272e-06
1.41164e-06
7.23238e-06
1.41196e-06
7.23273e-06
2.43978e-05
2.43986e-05
1.4115e-06
7.23348e-06
1.41178e-06
7.23378e-06
4.02105e-07
4.02106e-07
4.02105e-07
4.02101e-07
4.02102e-07
4.02103e-07
4.02103e-07
5.73735e-07
1.16379e-06
4.04339e-07
4.11302e-07
5.73828e-07
1.16334e-06
4.04341e-07
2.43993e-05
2.44e-05
5.73752e-07
4.04339e-07
1.16373e-06
4.11306e-07
5.73845e-07
4.04342e-07
1.16333e-06
2.35248e-06
2.35296e-06
4.25457e-07
2.35219e-06
2.35268e-06
1.41243e-06
7.23112e-06
1.41267e-06
7.23257e-06
2.43894e-05
2.43952e-05
1.41229e-06
7.23225e-06
1.41247e-06
7.2337e-06
4.02105e-07
4.02105e-07
4.02105e-07
4.02101e-07
4.021e-07
4.021e-07
4.021e-07
5.73738e-07
1.16374e-06
4.04338e-07
4.11297e-07
5.73826e-07
1.16447e-06
4.0434e-07
2.43917e-05
2.43974e-05
5.73759e-07
4.04339e-07
1.16379e-06
4.113e-07
5.73842e-07
4.04341e-07
1.16455e-06
2.35329e-06
2.35376e-06
4.25453e-07
2.35815e-06
2.35862e-06
1.41076e-06
7.22538e-06
1.41382e-06
7.2297e-06
2.43474e-05
2.43483e-05
1.41073e-06
7.22659e-06
1.41367e-06
7.23082e-06
4.02105e-07
4.02106e-07
4.02105e-07
4.02062e-07
4.02062e-07
4.02062e-07
4.02062e-07
5.73057e-07
1.16518e-06
4.04323e-07
4.1117e-07
5.73826e-07
1.16238e-06
4.04338e-07
2.435e-05
2.43507e-05
5.7307e-07
4.04324e-07
1.16525e-06
4.11173e-07
5.73844e-07
4.04339e-07
1.16242e-06
2.36188e-06
2.36232e-06
4.25256e-07
2.37182e-06
2.3721e-06
1.0562e-06
6.4262e-06
1.3952e-06
2.89714e-06
1.9196e-05
6.89064e-06
1.05622e-06
6.4279e-06
1.39528e-06
2.89769e-06
4.01172e-07
4.01311e-07
4.01311e-07
4.02391e-07
4.01172e-07
4.01383e-07
4.01383e-07
5.50226e-07
1.11675e-06
4.03842e-07
4.07383e-07
5.65479e-07
1.12505e-06
4.02928e-07
1.91973e-05
6.89052e-06
5.50238e-07
4.03842e-07
1.11673e-06
4.07384e-07
5.65486e-07
4.02928e-07
1.12502e-06
2.32741e-06
2.32806e-06
4.19487e-07
1.9848e-06
1.98481e-06
7.22668e-06
1.16314e-06
2.4386e-05
2.35104e-06
2.35071e-06
2.43829e-05
1.16312e-06
7.22651e-06
2.43878e-05
2.4383e-05
2.43871e-05
2.35097e-06
4.25604e-07
2.35076e-06
2.35105e-06
2.43801e-05
2.43827e-05
2.43837e-05
2.43868e-05
4.25736e-07
2.35084e-06
2.35125e-06
2.35103e-06
2.35138e-06
1.41069e-06
7.22676e-06
1.41125e-06
7.22648e-06
5.73709e-07
1.16363e-06
4.04566e-07
4.11509e-07
5.7382e-07
1.1629e-06
4.04566e-07
5.73707e-07
1.16343e-06
4.04568e-07
4.11511e-07
5.73816e-07
1.16291e-06
4.04568e-07
1.41097e-06
7.22606e-06
7.22626e-06
1.41068e-06
1.41096e-06
7.22629e-06
7.22649e-06
1.41068e-06
5.73792e-07
4.11508e-07
1.16277e-06
4.04565e-07
1.16321e-06
4.04565e-07
5.73654e-07
5.7379e-07
4.1151e-07
1.16285e-06
4.04566e-07
1.16325e-06
4.04567e-07
5.7365e-07
2.3514e-06
2.35117e-06
4.25598e-07
2.35129e-06
2.35099e-06
2.43828e-05
2.43794e-05
2.43807e-05
2.43826e-05
4.25727e-07
2.35134e-06
2.35108e-06
2.35156e-06
2.35137e-06
2.43773e-05
2.43794e-05
5.73716e-07
4.11505e-07
1.16326e-06
4.04566e-07
1.41058e-06
7.22754e-06
5.73711e-07
4.11515e-07
4.04567e-07
1.16322e-06
1.41085e-06
7.2272e-06
7.22745e-06
1.41058e-06
5.7381e-07
4.11504e-07
1.16301e-06
4.04565e-07
1.16352e-06
4.04566e-07
5.73676e-07
1.41082e-06
7.22739e-06
7.22767e-06
1.41057e-06
5.73805e-07
4.11515e-07
4.04566e-07
1.16311e-06
4.04567e-07
1.16361e-06
5.73674e-07
1.4107e-06
7.22662e-06
1.41127e-06
7.22632e-06
5.7371e-07
4.04566e-07
1.1637e-06
4.1151e-07
5.73818e-07
4.04566e-07
1.16295e-06
1.4107e-06
7.22766e-06
1.41127e-06
7.22726e-06
5.73787e-07
4.11504e-07
1.16282e-06
4.04566e-07
1.16323e-06
4.04567e-07
5.73649e-07
1.41098e-06
7.22612e-06
7.22637e-06
1.41069e-06
5.73788e-07
4.11509e-07
4.04565e-07
1.16282e-06
4.04565e-07
1.16326e-06
5.73653e-07
1.41098e-06
7.22702e-06
7.22726e-06
1.41069e-06
4.25596e-07
2.35142e-06
2.35065e-06
2.43861e-05
2.43839e-05
2.43873e-05
4.25728e-07
2.35171e-06
2.35087e-06
2.35187e-06
2.35099e-06
2.43827e-05
2.43857e-05
5.73747e-07
4.04567e-07
1.16375e-06
4.11506e-07
5.73856e-07
4.04567e-07
1.16305e-06
1.41088e-06
1.41151e-06
7.22732e-06
1.41089e-06
7.22804e-06
1.41151e-06
7.22763e-06
5.73822e-07
4.11507e-07
4.04565e-07
1.16288e-06
4.04566e-07
1.1634e-06
5.73684e-07
5.73826e-07
4.11504e-07
4.04566e-07
1.16293e-06
4.04566e-07
1.16337e-06
5.73688e-07
1.4112e-06
7.22716e-06
7.22742e-06
1.41088e-06
1.41121e-06
7.22739e-06
7.22764e-06
1.41089e-06
2.43896e-05
2.43848e-05
2.4391e-05
2.43861e-05
4.25727e-07
2.35094e-06
2.35144e-06
2.35113e-06
2.35162e-06
2.43819e-05
2.43846e-05
2.43833e-05
2.43859e-05
2.43801e-05
2.4379e-05
2.43836e-05
2.43819e-05
2.35107e-06
2.3515e-06
4.25612e-07
2.35087e-06
2.35131e-06
2.43794e-05
2.4379e-05
2.43809e-05
2.43819e-05
4.2574e-07
2.35092e-06
2.35129e-06
2.35106e-06
2.35155e-06
1.41067e-06
7.22632e-06
1.41095e-06
7.22624e-06
5.73653e-07
1.16312e-06
4.04565e-07
4.11513e-07
5.73743e-07
1.16275e-06
4.04564e-07
5.73652e-07
1.16321e-06
4.04566e-07
4.11513e-07
5.73741e-07
1.16284e-06
4.04565e-07
1.41092e-06
7.22608e-06
7.22595e-06
1.41071e-06
1.41093e-06
7.22711e-06
7.22634e-06
1.41071e-06
5.73746e-07
4.11511e-07
1.16281e-06
4.04558e-07
1.16311e-06
4.04562e-07
5.73664e-07
5.73745e-07
4.11509e-07
1.16303e-06
4.04558e-07
1.16322e-06
4.04562e-07
5.73661e-07
2.35159e-06
2.35144e-06
4.25603e-07
2.35129e-06
2.35108e-06
2.43776e-05
2.43767e-05
2.43834e-05
2.43799e-05
4.25731e-07
2.35169e-06
2.35141e-06
2.35152e-06
2.3514e-06
2.43805e-05
2.43774e-05
5.7365e-07
1.16334e-06
4.04565e-07
4.11506e-07
5.73758e-07
1.16295e-06
4.04565e-07
1.41054e-06
7.22744e-06
1.41079e-06
7.22722e-06
5.7365e-07
4.04566e-07
1.16348e-06
4.11518e-07
5.73756e-07
4.04565e-07
1.16306e-06
1.41078e-06
7.22705e-06
7.22709e-06
1.41053e-06
5.73743e-07
4.11504e-07
1.16294e-06
4.04561e-07
1.16329e-06
4.04562e-07
5.73659e-07
1.41078e-06
7.22719e-06
7.2273e-06
1.41054e-06
5.73743e-07
4.11515e-07
4.04562e-07
1.16306e-06
4.04563e-07
1.16345e-06
5.73659e-07
1.41069e-06
7.22619e-06
1.41096e-06
7.2261e-06
5.73657e-07
4.04565e-07
1.16317e-06
4.11513e-07
5.73742e-07
4.04564e-07
1.16281e-06
1.41069e-06
7.22704e-06
1.41096e-06
7.22694e-06
5.73744e-07
4.11503e-07
1.16302e-06
4.04559e-07
1.16322e-06
4.04563e-07
5.73661e-07
1.41095e-06
7.22707e-06
7.22624e-06
1.41073e-06
5.73747e-07
4.1151e-07
4.04558e-07
1.16286e-06
4.04561e-07
1.16316e-06
5.73665e-07
1.41095e-06
7.2271e-06
7.22698e-06
1.41073e-06
2.35205e-06
2.35112e-06
4.2561e-07
2.35179e-06
2.35093e-06
2.43825e-05
2.43808e-05
2.43811e-05
2.4382e-05
4.25738e-07
2.35177e-06
2.35091e-06
2.35212e-06
2.35116e-06
2.43801e-05
2.43808e-05
5.73691e-07
4.04566e-07
1.16328e-06
4.11508e-07
5.73777e-07
4.04565e-07
1.16291e-06
1.41088e-06
7.22717e-06
1.4112e-06
7.22699e-06
1.41089e-06
7.22742e-06
1.4112e-06
7.22732e-06
5.73777e-07
4.1151e-07
4.04559e-07
1.1628e-06
4.04563e-07
1.16316e-06
5.73694e-07
5.73781e-07
4.11506e-07
4.04559e-07
1.16297e-06
4.04562e-07
1.16327e-06
5.73699e-07
1.41119e-06
7.22689e-06
7.22703e-06
1.41092e-06
1.4112e-06
7.22749e-06
7.22737e-06
1.41094e-06
2.43819e-05
2.43808e-05
2.43833e-05
2.43821e-05
4.25735e-07
2.35102e-06
2.3515e-06
2.35116e-06
2.35165e-06
2.43812e-05
2.43808e-05
2.43825e-05
2.43821e-05
2.43806e-05
2.43912e-05
2.43812e-05
2.43849e-05
2.35134e-06
2.35156e-06
4.25603e-07
2.3519e-06
2.35195e-06
2.43962e-05
2.43953e-05
2.43985e-05
2.43906e-05
4.25721e-07
2.35221e-06
2.35284e-06
2.35236e-06
2.35262e-06
1.41128e-06
7.22855e-06
1.41109e-06
7.23218e-06
5.73718e-07
1.16325e-06
4.04549e-07
4.11479e-07
5.73771e-07
1.16317e-06
4.04521e-07
5.73714e-07
1.16353e-06
4.04548e-07
4.11434e-07
5.73768e-07
1.16341e-06
4.04514e-07
1.41173e-06
7.23219e-06
7.23144e-06
1.4116e-06
1.41173e-06
7.2327e-06
7.23289e-06
1.4116e-06
5.73822e-07
4.11426e-07
1.16335e-06
4.04402e-07
1.16363e-06
4.04458e-07
5.73738e-07
5.73819e-07
4.11382e-07
1.16348e-06
4.04397e-07
1.16382e-06
4.0445e-07
5.73737e-07
2.35234e-06
2.35223e-06
4.25538e-07
2.35273e-06
2.35252e-06
2.43865e-05
2.43943e-05
2.43974e-05
2.43979e-05
4.25648e-07
2.35267e-06
2.35248e-06
2.35301e-06
2.35296e-06
2.43947e-05
2.43955e-05
5.7369e-07
1.16331e-06
4.04558e-07
4.11491e-07
5.73751e-07
1.16316e-06
4.04549e-07
1.4108e-06
7.2273e-06
1.41078e-06
7.22792e-06
5.7369e-07
4.04559e-07
1.16346e-06
4.11502e-07
5.73753e-07
4.0455e-07
1.16326e-06
1.41124e-06
7.2329e-06
7.22921e-06
1.41138e-06
5.738e-07
4.11465e-07
1.16351e-06
4.04456e-07
1.16363e-06
4.0452e-07
5.73735e-07
1.41124e-06
7.23307e-06
7.22927e-06
1.4114e-06
5.73802e-07
4.11476e-07
4.04457e-07
1.16362e-06
4.04521e-07
1.16377e-06
5.73736e-07
1.41129e-06
7.22856e-06
1.4111e-06
7.232e-06
5.73716e-07
4.04549e-07
1.1633e-06
4.1147e-07
5.73769e-07
4.04519e-07
1.16321e-06
1.41129e-06
7.22728e-06
1.4111e-06
7.23009e-06
5.73816e-07
4.11374e-07
1.16346e-06
4.04397e-07
1.16383e-06
4.04449e-07
5.73735e-07
1.41174e-06
7.23257e-06
7.23281e-06
1.41162e-06
5.73819e-07
4.11414e-07
4.044e-07
1.16341e-06
4.04455e-07
1.16367e-06
5.73739e-07
1.41174e-06
7.2333e-06
7.23228e-06
1.41162e-06
2.35209e-06
2.35117e-06
4.25606e-07
2.35217e-06
2.35136e-06
2.43804e-05
2.43837e-05
2.43986e-05
2.43909e-05
4.25727e-07
2.3532e-06
2.35224e-06
2.35294e-06
2.35193e-06
2.43972e-05
2.4389e-05
5.73751e-07
4.0455e-07
1.16341e-06
4.11465e-07
5.73804e-07
4.04521e-07
1.16332e-06
1.41148e-06
7.22693e-06
1.41135e-06
7.2276e-06
1.41148e-06
7.22767e-06
1.41136e-06
7.23049e-06
5.73851e-07
4.11455e-07
4.04409e-07
1.16333e-06
4.04464e-07
1.16346e-06
5.7377e-07
5.73855e-07
4.11409e-07
4.04402e-07
1.16352e-06
4.04458e-07
1.16378e-06
5.73775e-07
1.41202e-06
7.2328e-06
7.22896e-06
1.41184e-06
1.41203e-06
7.23368e-06
7.2327e-06
1.41185e-06
2.43825e-05
2.43931e-05
2.43838e-05
2.43944e-05
4.25691e-07
2.35228e-06
2.35278e-06
2.35244e-06
2.35293e-06
2.43981e-05
2.43972e-05
2.43994e-05
2.43985e-05
2.43964e-05
2.4396e-05
2.43994e-05
2.43988e-05
2.35243e-06
2.35308e-06
4.25465e-07
2.35216e-06
2.35274e-06
2.43959e-05
2.43961e-05
2.43985e-05
2.43989e-05
4.25584e-07
2.35215e-06
2.3527e-06
2.35239e-06
2.35296e-06
1.41162e-06
7.23272e-06
1.4119e-06
7.23264e-06
5.73742e-07
1.16373e-06
4.04367e-07
4.11321e-07
5.73831e-07
1.16337e-06
4.04351e-07
5.7374e-07
1.16385e-06
4.04364e-07
4.11314e-07
5.7383e-07
1.16348e-06
4.04349e-07
1.41191e-06
7.23208e-06
7.23212e-06
1.41163e-06
1.4119e-06
7.23262e-06
7.23268e-06
1.41162e-06
5.73833e-07
4.11309e-07
1.16337e-06
4.04339e-07
1.16374e-06
4.0434e-07
5.73738e-07
5.73832e-07
4.11309e-07
1.16348e-06
4.04339e-07
1.16385e-06
4.0434e-07
5.73735e-07
2.35292e-06
2.35281e-06
4.25442e-07
2.35265e-06
2.3524e-06
2.4395e-05
2.43944e-05
2.43972e-05
2.43975e-05
4.25569e-07
2.35263e-06
2.3524e-06
2.3529e-06
2.35274e-06
2.43944e-05
2.43948e-05
5.73742e-07
1.1639e-06
4.04402e-07
4.11329e-07
5.73828e-07
1.16357e-06
4.04369e-07
1.41151e-06
7.2339e-06
1.41171e-06
7.23368e-06
5.73743e-07
4.04403e-07
1.16406e-06
4.1134e-07
5.7383e-07
4.0437e-07
1.1637e-06
1.41173e-06
7.23327e-06
7.23339e-06
1.41149e-06
5.73834e-07
4.11309e-07
1.16357e-06
4.0434e-07
1.16393e-06
4.04347e-07
5.73738e-07
1.41175e-06
7.23357e-06
7.23374e-06
1.41151e-06
5.73835e-07
4.1132e-07
4.04342e-07
1.1637e-06
4.04347e-07
1.16409e-06
5.73741e-07
1.41164e-06
7.23263e-06
1.41192e-06
7.23249e-06
5.73743e-07
4.04366e-07
1.16379e-06
4.11319e-07
5.73831e-07
4.0435e-07
1.16343e-06
1.41164e-06
7.23333e-06
1.41191e-06
7.23321e-06
5.73828e-07
4.11302e-07
1.16346e-06
4.04339e-07
1.16385e-06
4.04341e-07
5.73735e-07
1.41192e-06
7.23246e-06
7.23256e-06
1.41164e-06
5.73833e-07
4.11309e-07
4.0434e-07
1.16343e-06
4.0434e-07
1.1638e-06
5.73739e-07
1.41192e-06
7.23315e-06
7.23324e-06
1.41164e-06
2.35357e-06
2.35252e-06
4.25474e-07
2.35315e-06
2.35225e-06
2.43982e-05
2.43977e-05
2.43986e-05
2.43993e-05
4.25591e-07
2.35309e-06
2.35223e-06
2.35346e-06
2.35248e-06
2.43975e-05
2.43978e-05
5.73778e-07
4.04368e-07
1.1639e-06
4.11314e-07
5.73866e-07
4.04351e-07
1.16354e-06
1.41185e-06
7.23354e-06
1.41218e-06
7.23337e-06
1.41185e-06
7.23371e-06
1.41218e-06
7.23358e-06
5.73863e-07
4.11311e-07
4.0434e-07
1.16342e-06
4.04343e-07
1.16378e-06
5.73771e-07
5.73868e-07
4.11305e-07
4.04341e-07
1.16353e-06
4.04341e-07
1.16391e-06
5.73777e-07
1.41217e-06
7.2333e-06
7.2334e-06
1.41184e-06
1.41218e-06
7.23353e-06
7.23362e-06
1.41185e-06
2.43982e-05
2.43978e-05
2.43996e-05
2.43991e-05
4.25576e-07
2.35223e-06
2.35273e-06
2.35248e-06
2.35297e-06
2.43977e-05
2.43979e-05
2.4399e-05
2.43993e-05
2.43961e-05
2.43958e-05
2.43987e-05
2.43984e-05
2.35238e-06
2.35294e-06
4.25456e-07
2.35214e-06
2.35269e-06
2.43958e-05
2.4396e-05
2.43984e-05
2.43986e-05
4.25587e-07
2.35214e-06
2.35269e-06
2.35238e-06
2.35293e-06
1.41162e-06
7.23266e-06
1.4119e-06
7.23262e-06
5.73736e-07
1.16374e-06
4.04343e-07
4.1131e-07
5.73828e-07
1.16338e-06
4.04343e-07
5.73734e-07
1.16385e-06
4.04343e-07
4.11313e-07
5.73826e-07
1.16348e-06
4.04343e-07
1.41191e-06
7.23207e-06
7.2321e-06
1.41163e-06
1.4119e-06
7.23262e-06
7.23267e-06
1.41162e-06
5.73831e-07
4.11309e-07
1.16337e-06
4.0434e-07
1.16374e-06
4.04341e-07
5.73742e-07
5.73828e-07
4.1131e-07
1.16348e-06
4.04339e-07
1.16385e-06
4.04341e-07
5.73739e-07
2.35289e-06
2.35275e-06
4.25456e-07
2.35264e-06
2.35241e-06
2.43948e-05
2.43944e-05
2.43972e-05
2.43974e-05
4.25583e-07
2.35263e-06
2.3524e-06
2.35289e-06
2.35275e-06
2.43944e-05
2.43948e-05
5.73732e-07
1.16393e-06
4.04342e-07
4.11305e-07
5.73828e-07
1.16358e-06
4.04342e-07
1.41151e-06
7.23364e-06
1.41175e-06
7.23353e-06
5.73735e-07
4.04344e-07
1.16409e-06
4.11316e-07
5.73831e-07
4.04344e-07
1.1637e-06
1.41173e-06
7.23324e-06
7.23329e-06
1.41149e-06
5.73825e-07
4.11304e-07
1.16357e-06
4.0434e-07
1.16393e-06
4.0434e-07
5.7374e-07
1.41175e-06
7.23353e-06
7.23361e-06
1.41151e-06
5.73827e-07
4.11314e-07
4.04341e-07
1.1637e-06
4.04342e-07
1.16409e-06
5.73742e-07
1.41163e-06
7.23254e-06
1.41192e-06
7.23246e-06
5.73738e-07
4.04343e-07
1.16379e-06
4.11312e-07
5.73828e-07
4.04343e-07
1.16343e-06
1.41163e-06
7.23319e-06
1.41192e-06
7.23313e-06
5.73826e-07
4.11302e-07
1.16346e-06
4.04339e-07
1.16385e-06
4.04342e-07
5.73737e-07
1.41192e-06
7.23246e-06
7.23254e-06
1.41164e-06
5.73829e-07
4.1131e-07
4.0434e-07
1.16343e-06
4.04341e-07
1.16379e-06
5.73742e-07
1.41192e-06
7.23313e-06
7.23318e-06
1.41164e-06
2.35342e-06
2.35247e-06
4.2546e-07
2.35309e-06
2.35222e-06
2.43977e-05
2.43974e-05
2.43985e-05
2.4399e-05
4.2559e-07
2.35308e-06
2.35222e-06
2.35342e-06
2.35246e-06
2.43974e-05
2.43976e-05
5.73774e-07
4.04344e-07
1.1639e-06
4.11307e-07
5.73866e-07
4.04344e-07
1.16353e-06
1.41184e-06
7.23334e-06
1.41217e-06
7.23327e-06
1.41185e-06
7.23357e-06
1.41217e-06
7.23351e-06
5.7386e-07
4.11306e-07
4.04339e-07
1.16342e-06
4.04342e-07
1.16378e-06
5.73772e-07
5.73864e-07
4.11305e-07
4.04341e-07
1.16353e-06
4.04342e-07
1.1639e-06
5.73777e-07
1.41217e-06
7.23326e-06
7.23331e-06
1.41184e-06
1.41217e-06
7.23351e-06
7.23356e-06
1.41185e-06
2.43979e-05
2.43976e-05
2.43992e-05
2.4399e-05
4.25591e-07
2.35224e-06
2.35273e-06
2.35248e-06
2.35296e-06
2.43977e-05
2.43979e-05
2.4399e-05
2.43992e-05
2.4396e-05
2.43958e-05
2.43986e-05
2.43984e-05
2.35238e-06
2.35293e-06
4.25454e-07
2.35214e-06
2.35269e-06
2.43958e-05
2.4396e-05
2.43984e-05
2.43986e-05
4.25583e-07
2.35214e-06
2.35269e-06
2.35238e-06
2.35293e-06
1.41162e-06
7.23266e-06
1.4119e-06
7.23262e-06
5.73735e-07
1.16374e-06
4.04342e-07
4.1131e-07
5.73832e-07
1.16338e-06
4.04342e-07
5.73734e-07
1.16385e-06
4.04342e-07
4.11312e-07
5.73831e-07
1.16348e-06
4.04342e-07
1.41191e-06
7.23206e-06
7.23209e-06
1.41163e-06
1.4119e-06
7.23262e-06
7.23266e-06
1.41162e-06
5.73828e-07
4.11308e-07
1.16337e-06
4.0434e-07
1.16374e-06
4.0434e-07
5.73741e-07
5.73826e-07
4.11309e-07
1.16348e-06
4.04339e-07
1.16385e-06
4.0434e-07
5.73738e-07
2.35289e-06
2.35275e-06
4.25453e-07
2.35264e-06
2.3524e-06
2.43948e-05
2.43944e-05
2.43972e-05
2.43974e-05
4.25582e-07
2.35263e-06
2.3524e-06
2.35289e-06
2.35275e-06
2.43944e-05
2.43948e-05
5.73736e-07
1.16393e-06
4.04342e-07
4.11306e-07
5.73831e-07
1.16358e-06
4.04342e-07
1.41151e-06
7.23361e-06
1.41175e-06
7.23353e-06
5.73738e-07
4.04343e-07
1.16409e-06
4.11316e-07
5.73834e-07
4.04343e-07
1.1637e-06
1.41173e-06
7.23324e-06
7.23328e-06
1.41149e-06
5.73826e-07
4.11303e-07
1.16357e-06
4.04339e-07
1.16393e-06
4.04339e-07
5.73738e-07
1.41175e-06
7.23353e-06
7.23361e-06
1.41151e-06
5.73828e-07
4.11314e-07
4.04341e-07
1.1637e-06
4.04341e-07
1.16409e-06
5.73739e-07
1.41164e-06
7.23254e-06
1.41192e-06
7.23246e-06
5.73739e-07
4.04342e-07
1.16379e-06
4.11311e-07
5.73832e-07
4.04342e-07
1.16343e-06
1.41164e-06
7.23318e-06
1.41192e-06
7.23313e-06
5.73826e-07
4.11302e-07
1.16346e-06
4.04338e-07
1.16385e-06
4.04341e-07
5.73736e-07
1.41192e-06
7.23246e-06
7.23254e-06
1.41164e-06
5.73829e-07
4.11309e-07
4.0434e-07
1.16343e-06
4.0434e-07
1.16379e-06
5.7374e-07
1.41192e-06
7.23314e-06
7.23318e-06
1.41164e-06
2.35341e-06
2.35246e-06
4.25459e-07
2.35309e-06
2.35222e-06
2.43976e-05
2.43974e-05
2.43985e-05
2.4399e-05
4.25587e-07
2.35308e-06
2.35222e-06
2.35342e-06
2.35246e-06
2.43974e-05
2.43976e-05
5.73776e-07
4.04343e-07
1.1639e-06
4.11307e-07
5.73868e-07
4.04343e-07
1.16353e-06
1.41184e-06
7.23331e-06
1.41217e-06
7.23326e-06
1.41185e-06
7.23355e-06
1.41217e-06
7.23351e-06
5.73861e-07
4.11306e-07
4.04339e-07
1.16342e-06
4.04342e-07
1.16378e-06
5.73771e-07
5.73865e-07
4.11305e-07
4.04341e-07
1.16353e-06
4.04341e-07
1.1639e-06
5.73775e-07
1.41217e-06
7.23326e-06
7.23331e-06
1.41185e-06
1.41217e-06
7.23351e-06
7.23356e-06
1.41185e-06
2.43979e-05
2.43977e-05
2.43992e-05
2.4399e-05
4.25586e-07
2.35224e-06
2.35273e-06
2.35248e-06
2.35296e-06
2.43977e-05
2.43979e-05
2.4399e-05
2.43992e-05
2.4396e-05
2.43958e-05
2.43986e-05
2.43984e-05
2.35238e-06
2.35293e-06
4.25455e-07
2.35214e-06
2.35269e-06
2.43958e-05
2.4396e-05
2.43984e-05
2.43986e-05
4.25584e-07
2.35214e-06
2.35269e-06
2.35238e-06
2.35293e-06
1.41162e-06
7.23266e-06
1.4119e-06
7.23262e-06
5.73737e-07
1.16374e-06
4.04342e-07
4.1131e-07
5.73833e-07
1.16338e-06
4.04342e-07
5.73736e-07
1.16385e-06
4.04342e-07
4.11312e-07
5.7383e-07
1.16348e-06
4.04342e-07
1.41191e-06
7.23206e-06
7.23209e-06
1.41163e-06
1.4119e-06
7.23262e-06
7.23266e-06
1.41162e-06
5.73828e-07
4.11308e-07
1.16337e-06
4.0434e-07
1.16374e-06
4.0434e-07
5.73741e-07
5.73828e-07
4.1131e-07
1.16348e-06
4.04339e-07
1.16385e-06
4.0434e-07
5.73736e-07
2.35289e-06
2.35275e-06
4.25452e-07
2.35264e-06
2.3524e-06
2.43948e-05
2.43944e-05
2.43972e-05
2.43974e-05
4.2558e-07
2.35263e-06
2.3524e-06
2.35289e-06
2.35275e-06
2.43944e-05
2.43948e-05
5.73737e-07
1.16393e-06
4.04342e-07
4.11306e-07
5.7383e-07
1.16358e-06
4.04342e-07
1.41151e-06
7.23361e-06
1.41175e-06
7.23353e-06
5.7374e-07
4.04343e-07
1.16409e-06
4.11316e-07
5.73832e-07
4.04343e-07
1.1637e-06
1.41173e-06
7.23324e-06
7.23328e-06
1.41149e-06
5.73827e-07
4.11303e-07
1.16357e-06
4.04339e-07
1.16393e-06
4.0434e-07
5.73737e-07
1.41175e-06
7.23353e-06
7.23361e-06
1.41151e-06
5.7383e-07
4.11314e-07
4.04341e-07
1.1637e-06
4.04341e-07
1.16409e-06
5.73739e-07
1.41164e-06
7.23254e-06
1.41192e-06
7.23246e-06
5.7374e-07
4.04342e-07
1.16379e-06
4.11311e-07
5.7383e-07
4.04342e-07
1.16343e-06
1.41164e-06
7.23318e-06
1.41192e-06
7.23314e-06
5.73826e-07
4.11302e-07
1.16346e-06
4.04339e-07
1.16385e-06
4.04341e-07
5.73735e-07
1.41192e-06
7.23246e-06
7.23254e-06
1.41164e-06
5.7383e-07
4.11309e-07
4.0434e-07
1.16343e-06
4.0434e-07
1.16379e-06
5.73739e-07
1.41192e-06
7.23314e-06
7.23318e-06
1.41164e-06
2.35341e-06
2.35246e-06
4.25461e-07
2.35309e-06
2.35222e-06
2.43976e-05
2.43974e-05
2.43985e-05
2.4399e-05
4.25589e-07
2.35308e-06
2.35222e-06
2.35342e-06
2.35246e-06
2.43974e-05
2.43976e-05
5.73777e-07
4.04343e-07
1.1639e-06
4.11307e-07
5.73867e-07
4.04343e-07
1.16353e-06
1.41181e-06
7.23331e-06
1.4121e-06
7.23326e-06
1.41185e-06
7.23356e-06
1.41217e-06
7.23351e-06
5.73859e-07
4.11306e-07
4.04339e-07
1.16342e-06
4.04342e-07
1.16378e-06
5.73764e-07
5.73866e-07
4.11305e-07
4.04341e-07
1.16353e-06
4.04341e-07
1.1639e-06
5.73774e-07
1.41207e-06
7.23326e-06
7.23331e-06
1.41174e-06
1.41217e-06
7.23351e-06
7.23356e-06
1.41185e-06
2.43979e-05
2.43977e-05
2.43992e-05
2.4399e-05
4.25586e-07
2.35224e-06
2.35273e-06
2.35248e-06
2.35296e-06
2.43977e-05
2.43979e-05
2.4399e-05
2.43992e-05
2.4396e-05
2.43958e-05
2.43986e-05
2.43984e-05
2.35238e-06
2.35293e-06
4.25456e-07
2.35215e-06
2.35269e-06
2.43958e-05
2.4396e-05
2.43984e-05
2.43986e-05
4.25584e-07
2.35214e-06
2.35269e-06
2.35238e-06
2.35293e-06
1.41162e-06
7.23266e-06
1.4119e-06
7.23262e-06
5.73737e-07
1.16374e-06
4.04342e-07
4.1131e-07
5.73833e-07
1.16338e-06
4.04342e-07
5.73736e-07
1.16385e-06
4.04342e-07
4.11312e-07
5.73829e-07
1.16348e-06
4.04342e-07
1.41191e-06
7.23207e-06
7.23209e-06
1.41163e-06
1.4119e-06
7.23262e-06
7.23266e-06
1.41162e-06
5.73828e-07
4.11308e-07
1.16337e-06
4.0434e-07
1.16374e-06
4.0434e-07
5.7374e-07
5.73828e-07
4.1131e-07
1.16348e-06
4.0434e-07
1.16385e-06
4.0434e-07
5.73736e-07
2.35289e-06
2.35275e-06
4.25452e-07
2.35264e-06
2.3524e-06
2.43948e-05
2.43944e-05
2.43972e-05
2.43974e-05
4.25581e-07
2.35263e-06
2.3524e-06
2.35289e-06
2.35275e-06
2.43944e-05
2.43948e-05
5.73737e-07
1.16393e-06
4.04342e-07
4.11306e-07
5.73829e-07
1.16358e-06
4.04342e-07
1.41151e-06
7.23361e-06
1.41174e-06
7.23353e-06
5.7374e-07
4.04343e-07
1.16409e-06
4.11316e-07
5.73831e-07
4.04343e-07
1.1637e-06
1.41173e-06
7.23324e-06
7.23328e-06
1.41149e-06
5.73828e-07
4.11303e-07
1.16357e-06
4.04339e-07
1.16393e-06
4.0434e-07
5.73737e-07
1.41175e-06
7.23353e-06
7.23362e-06
1.41151e-06
5.7383e-07
4.11314e-07
4.04341e-07
1.1637e-06
4.04341e-07
1.16409e-06
5.73739e-07
1.41164e-06
7.23254e-06
1.41192e-06
7.23246e-06
5.73741e-07
4.04342e-07
1.16379e-06
4.11311e-07
5.73829e-07
4.04342e-07
1.16343e-06
1.41164e-06
7.23318e-06
1.41192e-06
7.23313e-06
5.73826e-07
4.11302e-07
1.16346e-06