/*--------------------------------*- C++ -*----------------------------------*\
| =========                 |                                                 |
| \\      /  F ield         | OpenFOAM: The Open Source CFD Toolbox           |
|  \\    /   O peration     | Version:  2206                                  |
|   \\  /    A nd           | Website:  www.openfoam.com                      |
|    \\/     M anipulation  |                                                 |
\*---------------------------------------------------------------------------*/
FoamFile
{
    version     2.0;
    format      ascii;
    arch        "LSB;label=32;scalar=64";
    class       volScalarField;
    location    "11";
    object      k;
}
// * * * * * * * * * * * * * * * * * * * * * * * * * * * * * * * * * * * * * //

dimensions      [0 2 -2 0 0 0 0];

internalField   nonuniform List<scalar> 
28897
(
3.23589e-05
3.22987e-05
3.22983e-05
3.22021e-05
3.23586e-05
3.22986e-05
3.2298e-05
3.22019e-05
3.23513e-05
3.22921e-05
3.22901e-05
3.2193e-05
3.23485e-05
3.22875e-05
3.22875e-05
3.21908e-05
3.23485e-05
3.22875e-05
3.22875e-05
3.21908e-05
3.23485e-05
3.22876e-05
3.22875e-05
3.21908e-05
3.23485e-05
3.22876e-05
3.22875e-05
3.21908e-05
3.23485e-05
3.22876e-05
3.22875e-05
3.21908e-05
3.23485e-05
3.22876e-05
3.22875e-05
3.21908e-05
3.23485e-05
3.22876e-05
3.22875e-05
3.21908e-05
3.23485e-05
3.22876e-05
3.22875e-05
3.21908e-05
3.23485e-05
3.22876e-05
3.22875e-05
3.21908e-05
3.23485e-05
3.22876e-05
3.22875e-05
3.21908e-05
3.23485e-05
3.22876e-05
3.22875e-05
3.21908e-05
3.23485e-05
3.22876e-05
3.22875e-05
3.21908e-05
3.23485e-05
3.22876e-05
3.22875e-05
3.21908e-05
3.23485e-05
3.22876e-05
3.22875e-05
3.21908e-05
3.23487e-05
3.22877e-05
3.22877e-05
3.21908e-05
3.2203e-05
3.22983e-05
3.22983e-05
3.22037e-05
3.22983e-05
3.22982e-05
3.22987e-05
3.22983e-05
3.2203e-05
3.22983e-05
3.22983e-05
3.22029e-05
3.22024e-05
3.2203e-05
3.22985e-05
3.22986e-05
3.22983e-05
3.22984e-05
3.22031e-05
3.22033e-05
3.22986e-05
3.22985e-05
3.22984e-05
3.22983e-05
3.22986e-05
3.22987e-05
3.22984e-05
3.22024e-05
3.22026e-05
3.22986e-05
3.22981e-05
3.22984e-05
3.22029e-05
3.22022e-05
3.21964e-05
3.22981e-05
3.22983e-05
3.2293e-05
3.22939e-05
3.22026e-05
3.21996e-05
3.22982e-05
3.22981e-05
3.22931e-05
3.2293e-05
3.22982e-05
3.22956e-05
3.22934e-05
3.2202e-05
3.21964e-05
3.22982e-05
3.2293e-05
3.22931e-05
3.21966e-05
3.2193e-05
3.21917e-05
3.22902e-05
3.22908e-05
3.22875e-05
3.22875e-05
3.21963e-05
3.21916e-05
3.22903e-05
3.22902e-05
3.22875e-05
3.22874e-05
3.22905e-05
3.22877e-05
3.22875e-05
3.2193e-05
3.21917e-05
3.22903e-05
3.22875e-05
3.22875e-05
3.21916e-05
3.21912e-05
3.21918e-05
3.22876e-05
3.22876e-05
3.22875e-05
3.22875e-05
3.21911e-05
3.21918e-05
3.22877e-05
3.22876e-05
3.22876e-05
3.22875e-05
3.22876e-05
3.22876e-05
3.22875e-05
3.21911e-05
3.21917e-05
3.22876e-05
3.22876e-05
3.22876e-05
3.21916e-05
3.21912e-05
3.21918e-05
3.22876e-05
3.22876e-05
3.22875e-05
3.22875e-05
3.21911e-05
3.21918e-05
3.22877e-05
3.22876e-05
3.22876e-05
3.22875e-05
3.22876e-05
3.22876e-05
3.22875e-05
3.21911e-05
3.21917e-05
3.22877e-05
3.22876e-05
3.22876e-05
3.21916e-05
3.21912e-05
3.21918e-05
3.22876e-05
3.22876e-05
3.22875e-05
3.22875e-05
3.21911e-05
3.21918e-05
3.22877e-05
3.22876e-05
3.22876e-05
3.22875e-05
3.22876e-05
3.22876e-05
3.22875e-05
3.21911e-05
3.21917e-05
3.22877e-05
3.22876e-05
3.22876e-05
3.21916e-05
3.21912e-05
3.21918e-05
3.22876e-05
3.22876e-05
3.22875e-05
3.22875e-05
3.21912e-05
3.21918e-05
3.22877e-05
3.22876e-05
3.22876e-05
3.22875e-05
3.22877e-05
3.22876e-05
3.22875e-05
3.21911e-05
3.21917e-05
3.22877e-05
3.22876e-05
3.22876e-05
3.21916e-05
3.21912e-05
3.21918e-05
3.22876e-05
3.22876e-05
3.22875e-05
3.22875e-05
3.21912e-05
3.21918e-05
3.22877e-05
3.22876e-05
3.22876e-05
3.22875e-05
3.22876e-05
3.22876e-05
3.22875e-05
3.21911e-05
3.21917e-05
3.22877e-05
3.22876e-05
3.22876e-05
3.21916e-05
3.21912e-05
3.21918e-05
3.22876e-05
3.22876e-05
3.22875e-05
3.22875e-05
3.21912e-05
3.21918e-05
3.22877e-05
3.22876e-05
3.22876e-05
3.22875e-05
3.22876e-05
3.22876e-05
3.22875e-05
3.21911e-05
3.21917e-05
3.22877e-05
3.22876e-05
3.22876e-05
3.21916e-05
3.21912e-05
3.21918e-05
3.22876e-05
3.22876e-05
3.22875e-05
3.22875e-05
3.21912e-05
3.21918e-05
3.22877e-05
3.22876e-05
3.22876e-05
3.22875e-05
3.22877e-05
3.22876e-05
3.22875e-05
3.21911e-05
3.21917e-05
3.22877e-05
3.22876e-05
3.22876e-05
3.21916e-05
3.21912e-05
3.21918e-05
3.22876e-05
3.22876e-05
3.22875e-05
3.22875e-05
3.21911e-05
3.21917e-05
3.22877e-05
3.22876e-05
3.22876e-05
3.22875e-05
3.22876e-05
3.22876e-05
3.22875e-05
3.21911e-05
3.21917e-05
3.22877e-05
3.22876e-05
3.22876e-05
3.21916e-05
3.21912e-05
3.21918e-05
3.22876e-05
3.22876e-05
3.22875e-05
3.22875e-05
3.21911e-05
3.21918e-05
3.22877e-05
3.22876e-05
3.22876e-05
3.22875e-05
3.22877e-05
3.22876e-05
3.22875e-05
3.21911e-05
3.21917e-05
3.22877e-05
3.22876e-05
3.22876e-05
3.21916e-05
3.21912e-05
3.21918e-05
3.22876e-05
3.22876e-05
3.22875e-05
3.22875e-05
3.21912e-05
3.21918e-05
3.22877e-05
3.22876e-05
3.22876e-05
3.22875e-05
3.22876e-05
3.22876e-05
3.22875e-05
3.21911e-05
3.21917e-05
3.22877e-05
3.22876e-05
3.22876e-05
3.21916e-05
3.21912e-05
3.21918e-05
3.22876e-05
3.22876e-05
3.22875e-05
3.22875e-05
3.21911e-05
3.21918e-05
3.22877e-05
3.22876e-05
3.22876e-05
3.22875e-05
3.22876e-05
3.22876e-05
3.22875e-05
3.21911e-05
3.21917e-05
3.22877e-05
3.22876e-05
3.22876e-05
3.21916e-05
3.21912e-05
3.21918e-05
3.22876e-05
3.22876e-05
3.22875e-05
3.22875e-05
3.21911e-05
3.21918e-05
3.22877e-05
3.22876e-05
3.22876e-05
3.22875e-05
3.22877e-05
3.22876e-05
3.22875e-05
3.21911e-05
3.21917e-05
3.22877e-05
3.22876e-05
3.22876e-05
3.21916e-05
3.21912e-05
3.21918e-05
3.22876e-05
3.22876e-05
3.22875e-05
3.22875e-05
3.21912e-05
3.21918e-05
3.22877e-05
3.22876e-05
3.22876e-05
3.22875e-05
3.22876e-05
3.22876e-05
3.22875e-05
3.21911e-05
3.21917e-05
3.22877e-05
3.22876e-05
3.22876e-05
3.21916e-05
3.21912e-05
3.21918e-05
3.22876e-05
3.22876e-05
3.22875e-05
3.22875e-05
3.21912e-05
3.21918e-05
3.22877e-05
3.22876e-05
3.22876e-05
3.22875e-05
3.22876e-05
3.22876e-05
3.22875e-05
3.21911e-05
3.21917e-05
3.22877e-05
3.22876e-05
3.22876e-05
3.21916e-05
3.21912e-05
3.22877e-05
3.22877e-05
3.21912e-05
3.22878e-05
3.22877e-05
3.22877e-05
3.21911e-05
3.22878e-05
3.23589e-05
3.2359e-05
3.2359e-05
3.2359e-05
3.29555e-05
6.02642e-05
3.29555e-05
6.02614e-05
8.33842e-05
8.33769e-05
3.2956e-05
6.0268e-05
3.29558e-05
6.02653e-05
3.23592e-05
3.23592e-05
3.23592e-05
3.23587e-05
3.2359e-05
3.23589e-05
3.23589e-05
3.18777e-05
3.27253e-05
3.23418e-05
3.22989e-05
3.18773e-05
3.27247e-05
3.2342e-05
8.33805e-05
8.33737e-05
3.18775e-05
3.23418e-05
3.2725e-05
3.22983e-05
3.1877e-05
3.23418e-05
3.27246e-05
3.39949e-05
3.39958e-05
3.2203e-05
3.3997e-05
3.39976e-05
3.29555e-05
6.0263e-05
3.29568e-05
6.0263e-05
8.33728e-05
8.33711e-05
3.29559e-05
6.02668e-05
3.29572e-05
6.02668e-05
3.23588e-05
3.23587e-05
3.23587e-05
3.23539e-05
3.23545e-05
3.2354e-05
3.2354e-05
3.18772e-05
3.27269e-05
3.23416e-05
3.22983e-05
3.18777e-05
3.27257e-05
3.23412e-05
8.3373e-05
8.33746e-05
3.18771e-05
3.23415e-05
3.27264e-05
3.22976e-05
3.18777e-05
3.23411e-05
3.27248e-05
3.40006e-05
3.40007e-05
3.22023e-05
3.4e-05
3.39997e-05
3.29447e-05
6.02983e-05
3.29509e-05
6.02986e-05
8.34071e-05
8.34161e-05
3.29452e-05
6.0302e-05
3.29508e-05
6.03023e-05
3.23518e-05
3.23514e-05
3.23514e-05
3.23486e-05
3.23486e-05
3.23486e-05
3.23486e-05
3.18649e-05
3.27234e-05
3.23345e-05
3.22898e-05
3.18699e-05
3.27162e-05
3.23328e-05
8.34172e-05
8.3416e-05
3.18648e-05
3.23339e-05
3.272e-05
3.22886e-05
3.18674e-05
3.23325e-05
3.27145e-05
3.39967e-05
3.39933e-05
3.2192e-05
3.39861e-05
3.39851e-05
3.29443e-05
6.02996e-05
3.29451e-05
6.02974e-05
8.34172e-05
8.34156e-05
3.29449e-05
6.03033e-05
3.29455e-05
6.03012e-05
3.23487e-05
3.23487e-05
3.23487e-05
3.23485e-05
3.23486e-05
3.23486e-05
3.23486e-05
3.18646e-05
3.27149e-05
3.23313e-05
3.22877e-05
3.18644e-05
3.27135e-05
3.23314e-05
8.34168e-05
8.34148e-05
3.18647e-05
3.23313e-05
3.27148e-05
3.22876e-05
3.18645e-05
3.23314e-05
3.27136e-05
3.39852e-05
3.39853e-05
3.21918e-05
3.39847e-05
3.39848e-05
3.29443e-05
6.02992e-05
3.29451e-05
6.02973e-05
8.3417e-05
8.34156e-05
3.29449e-05
6.0303e-05
3.29455e-05
6.03011e-05
3.23487e-05
3.23487e-05
3.23487e-05
3.23485e-05
3.23486e-05
3.23486e-05
3.23486e-05
3.18646e-05
3.27147e-05
3.23313e-05
3.22877e-05
3.18644e-05
3.27134e-05
3.23314e-05
8.34166e-05
8.34147e-05
3.18647e-05
3.23313e-05
3.27148e-05
3.22877e-05
3.18645e-05
3.23314e-05
3.27136e-05
3.39852e-05
3.39853e-05
3.21918e-05
3.39847e-05
3.39848e-05
3.29443e-05
6.02992e-05
3.29451e-05
6.02973e-05
8.3417e-05
8.34156e-05
3.29449e-05
6.0303e-05
3.29455e-05
6.03011e-05
3.23487e-05
3.23487e-05
3.23487e-05
3.23485e-05
3.23486e-05
3.23486e-05
3.23486e-05
3.18646e-05
3.27147e-05
3.23313e-05
3.22877e-05
3.18644e-05
3.27134e-05
3.23314e-05
8.34166e-05
8.34147e-05
3.18647e-05
3.23313e-05
3.27148e-05
3.22877e-05
3.18645e-05
3.23314e-05
3.27136e-05
3.39852e-05
3.39853e-05
3.21918e-05
3.39847e-05
3.39848e-05
3.29443e-05
6.02992e-05
3.29451e-05
6.02973e-05
8.3417e-05
8.34156e-05
3.29449e-05
6.0303e-05
3.29456e-05
6.03011e-05
3.23487e-05
3.23487e-05
3.23487e-05
3.23485e-05
3.23486e-05
3.23486e-05
3.23486e-05
3.18646e-05
3.27147e-05
3.23313e-05
3.22877e-05
3.18644e-05
3.27134e-05
3.23314e-05
8.34166e-05
8.34147e-05
3.18647e-05
3.23313e-05
3.27148e-05
3.22877e-05
3.18645e-05
3.23314e-05
3.27136e-05
3.39852e-05
3.39853e-05
3.21918e-05
3.39847e-05
3.39848e-05
3.29443e-05
6.02992e-05
3.29451e-05
6.02973e-05
8.3417e-05
8.34156e-05
3.29449e-05
6.0303e-05
3.29456e-05
6.03011e-05
3.23487e-05
3.23487e-05
3.23487e-05
3.23485e-05
3.23486e-05
3.23486e-05
3.23486e-05
3.18646e-05
3.27147e-05
3.23313e-05
3.22877e-05
3.18644e-05
3.27134e-05
3.23314e-05
8.34166e-05
8.34147e-05
3.18647e-05
3.23313e-05
3.27148e-05
3.22877e-05
3.18645e-05
3.23314e-05
3.27136e-05
3.39852e-05
3.39853e-05
3.21918e-05
3.39847e-05
3.39848e-05
3.29443e-05
6.02992e-05
3.29451e-05
6.02973e-05
8.3417e-05
8.34156e-05
3.29449e-05
6.0303e-05
3.29456e-05
6.03011e-05
3.23487e-05
3.23487e-05
3.23487e-05
3.23485e-05
3.23486e-05
3.23486e-05
3.23486e-05
3.18646e-05
3.27147e-05
3.23313e-05
3.22877e-05
3.18644e-05
3.27134e-05
3.23314e-05
8.34166e-05
8.34147e-05
3.18647e-05
3.23313e-05
3.27148e-05
3.22877e-05
3.18645e-05
3.23314e-05
3.27136e-05
3.39852e-05
3.39854e-05
3.21918e-05
3.39847e-05
3.39848e-05
3.29443e-05
6.02992e-05
3.29451e-05
6.02973e-05
8.3417e-05
8.34157e-05
3.29449e-05
6.0303e-05
3.29456e-05
6.03011e-05
3.23487e-05
3.23487e-05
3.23487e-05
3.23485e-05
3.23486e-05
3.23486e-05
3.23486e-05
3.18646e-05
3.27147e-05
3.23313e-05
3.22877e-05
3.18644e-05
3.27134e-05
3.23314e-05
8.34166e-05
8.34147e-05
3.18647e-05
3.23313e-05
3.27148e-05
3.22877e-05
3.18645e-05
3.23314e-05
3.27136e-05
3.39853e-05
3.39853e-05
3.21918e-05
3.39847e-05
3.39848e-05
3.29443e-05
6.02997e-05
3.29451e-05
6.02979e-05
8.34176e-05
8.34161e-05
3.29449e-05
6.03028e-05
3.29456e-05
6.03004e-05
3.23487e-05
3.23487e-05
3.23487e-05
3.23485e-05
3.23486e-05
3.23486e-05
3.23486e-05
3.18646e-05
3.27147e-05
3.23313e-05
3.22877e-05
3.18644e-05
3.27134e-05
3.23314e-05
8.34166e-05
8.34147e-05
3.18647e-05
3.23313e-05
3.27148e-05
3.22877e-05
3.18645e-05
3.23314e-05
3.27136e-05
3.39852e-05
3.39853e-05
3.21918e-05
3.39847e-05
3.39848e-05
3.29443e-05
6.02999e-05
3.29451e-05
6.02982e-05
8.34175e-05
8.34164e-05
3.29449e-05
6.03021e-05
3.29455e-05
6.03002e-05
3.23487e-05
3.23487e-05
3.23487e-05
3.23485e-05
3.23486e-05
3.23486e-05
3.23486e-05
3.18646e-05
3.27147e-05
3.23313e-05
3.22877e-05
3.18644e-05
3.27134e-05
3.23314e-05
8.34166e-05
8.34147e-05
3.18647e-05
3.23313e-05
3.27148e-05
3.22877e-05
3.18645e-05
3.23314e-05
3.27136e-05
3.39852e-05
3.39854e-05
3.21918e-05
3.39847e-05
3.39848e-05
3.29443e-05
6.03e-05
3.29451e-05
6.02981e-05
8.34178e-05
8.34162e-05
3.29449e-05
6.03022e-05
3.29456e-05
6.03004e-05
3.23487e-05
3.23487e-05
3.23487e-05
3.23485e-05
3.23486e-05
3.23486e-05
3.23486e-05
3.18646e-05
3.27147e-05
3.23313e-05
3.22877e-05
3.18644e-05
3.27134e-05
3.23314e-05
8.34166e-05
8.34147e-05
3.18647e-05
3.23313e-05
3.27148e-05
3.22877e-05
3.18645e-05
3.23314e-05
3.27137e-05
3.39852e-05
3.39853e-05
3.21918e-05
3.39847e-05
3.39848e-05
3.29443e-05
6.02999e-05
3.29451e-05
6.02981e-05
8.34178e-05
8.34164e-05
3.29449e-05
6.03024e-05
3.29456e-05
6.03005e-05
3.23487e-05
3.23487e-05
3.23487e-05
3.23485e-05
3.23486e-05
3.23486e-05
3.23486e-05
3.18646e-05
3.27147e-05
3.23313e-05
3.22877e-05
3.18644e-05
3.27134e-05
3.23314e-05
8.34166e-05
8.34147e-05
3.18647e-05
3.23313e-05
3.27148e-05
3.22877e-05
3.18645e-05
3.23314e-05
3.27137e-05
3.39852e-05
3.39853e-05
3.21918e-05
3.39847e-05
3.39848e-05
3.29443e-05
6.03e-05
3.29451e-05
6.02981e-05
8.34178e-05
8.34164e-05
3.29449e-05
6.03024e-05
3.29456e-05
6.03005e-05
3.23487e-05
3.23487e-05
3.23487e-05
3.23485e-05
3.23486e-05
3.23486e-05
3.23486e-05
3.18646e-05
3.27147e-05
3.23313e-05
3.22877e-05
3.18644e-05
3.27134e-05
3.23314e-05
8.34166e-05
8.34147e-05
3.18647e-05
3.23313e-05
3.27148e-05
3.22877e-05
3.18645e-05
3.23314e-05
3.27137e-05
3.39852e-05
3.39853e-05
3.21918e-05
3.39847e-05
3.39848e-05
3.29443e-05
6.03e-05
3.29451e-05
6.02981e-05
8.34179e-05
8.34164e-05
3.29449e-05
6.03024e-05
3.29456e-05
6.03005e-05
3.23487e-05
3.23487e-05
3.23487e-05
3.23485e-05
3.23486e-05
3.23486e-05
3.23486e-05
3.18646e-05
3.27147e-05
3.23313e-05
3.22877e-05
3.18644e-05
3.27134e-05
3.23314e-05
8.34166e-05
8.34147e-05
3.18647e-05
3.23313e-05
3.27148e-05
3.22877e-05
3.18645e-05
3.23314e-05
3.27137e-05
3.39852e-05
3.39853e-05
3.21918e-05
3.39847e-05
3.39848e-05
3.29443e-05
6.03e-05
3.29451e-05
6.02981e-05
8.34178e-05
8.34164e-05
3.29449e-05
6.03024e-05
3.29456e-05
6.03005e-05
3.23487e-05
3.23487e-05
3.23487e-05
3.23486e-05
3.23486e-05
3.23486e-05
3.23486e-05
3.18646e-05
3.27147e-05
3.23313e-05
3.22877e-05
3.18644e-05
3.27134e-05
3.23314e-05
8.34166e-05
8.34147e-05
3.18647e-05
3.23313e-05
3.27148e-05
3.22877e-05
3.18645e-05
3.23314e-05
3.27137e-05
3.39852e-05
3.39853e-05
3.21918e-05
3.39847e-05
3.39848e-05
6.03e-05
3.29451e-05
8.34178e-05
6.03024e-05
3.29456e-05
3.23488e-05
3.23488e-05
3.23488e-05
3.27147e-05
3.23315e-05
3.18644e-05
8.34166e-05
3.23315e-05
3.27148e-05
3.18645e-05
3.39852e-05
3.39853e-05
8.33781e-05
8.33908e-05
8.33834e-05
8.3394e-05
3.22022e-05
3.39916e-05
3.39941e-05
3.39896e-05
3.39916e-05
3.29546e-05
6.02627e-05
6.0265e-05
3.29544e-05
3.29546e-05
6.02656e-05
6.02676e-05
3.29545e-05
3.18775e-05
3.22983e-05
3.27232e-05
3.23418e-05
3.27243e-05
3.23419e-05
3.18773e-05
3.18775e-05
3.22983e-05
3.27239e-05
3.23418e-05
3.2725e-05
3.23418e-05
3.18774e-05
8.33851e-05
3.39924e-05
3.3989e-05
8.33813e-05
3.2955e-05
6.02665e-05
6.02688e-05
3.29549e-05
3.18777e-05
3.22984e-05
3.27238e-05
3.23418e-05
3.27248e-05
3.23419e-05
3.18776e-05
3.29545e-05
6.0266e-05
6.02684e-05
3.29545e-05
3.18775e-05
3.22983e-05
3.23418e-05
3.27235e-05
3.23418e-05
3.27246e-05
3.18774e-05
3.27238e-05
3.23418e-05
3.23419e-05
3.18773e-05
6.02638e-05
3.29543e-05
3.22984e-05
3.23419e-05
3.27234e-05
3.23419e-05
3.18775e-05
6.02645e-05
3.29542e-05
8.33802e-05
8.33929e-05
3.22021e-05
3.39921e-05
3.39939e-05
3.399e-05
3.39915e-05
8.33827e-05
8.33932e-05
3.18775e-05
3.22983e-05
3.23418e-05
3.27236e-05
3.23418e-05
3.27246e-05
3.1877e-05
3.18776e-05
3.22984e-05
3.23418e-05
3.27238e-05
3.23419e-05
3.27248e-05
3.18774e-05
3.29546e-05
6.02665e-05
6.02687e-05
3.29546e-05
3.29547e-05
6.02672e-05
6.02694e-05
3.29547e-05
3.22023e-05
3.39929e-05
3.39941e-05
3.39917e-05
8.33839e-05
8.33838e-05
8.33943e-05
8.33781e-05
8.33722e-05
8.3383e-05
8.33776e-05
3.39942e-05
3.39959e-05
3.22029e-05
3.39954e-05
3.39975e-05
8.33691e-05
8.33726e-05
8.33747e-05
8.33776e-05
3.22023e-05
3.39979e-05
3.39998e-05
3.39976e-05
3.3999e-05
3.29556e-05
6.02656e-05
3.2956e-05
6.02644e-05
3.18777e-05
3.27252e-05
3.2342e-05
3.22985e-05
3.18779e-05
3.27243e-05
3.2342e-05
3.18778e-05
3.27258e-05
3.2342e-05
3.22986e-05
3.1878e-05
3.2725e-05
3.2342e-05
3.29569e-05
6.02612e-05
6.02618e-05
3.29561e-05
3.2957e-05
6.02638e-05
6.02644e-05
3.29562e-05
3.18777e-05
3.22984e-05
3.2725e-05
3.23418e-05
3.27263e-05
3.23419e-05
3.18775e-05
3.18781e-05
3.22985e-05
3.27258e-05
3.23418e-05
3.27268e-05
3.23419e-05
3.18776e-05
3.39946e-05
3.39919e-05
3.22036e-05
3.39968e-05
3.39936e-05
8.33812e-05
8.33732e-05
8.33723e-05
8.33767e-05
3.22029e-05
3.39996e-05
3.39967e-05
3.39985e-05
3.3996e-05
8.33687e-05
8.33732e-05
3.18779e-05
3.27257e-05
3.23421e-05
3.22985e-05
3.18781e-05
3.27248e-05
3.2342e-05
3.29556e-05
6.02662e-05
3.29559e-05
6.02648e-05
3.18778e-05
3.2342e-05
3.27255e-05
3.22985e-05
3.1878e-05
3.2342e-05
3.27245e-05
3.29572e-05
6.0265e-05
6.02656e-05
3.29566e-05
3.18779e-05
3.22985e-05
3.27255e-05
3.23418e-05
3.27267e-05
3.23419e-05
3.18778e-05
3.29568e-05
6.02645e-05
6.02651e-05
3.29562e-05
3.18782e-05
3.22984e-05
3.23418e-05
3.27253e-05
3.23419e-05
3.27266e-05
3.18776e-05
3.29557e-05
6.02644e-05
3.29559e-05
6.02629e-05
3.18778e-05
3.23421e-05
3.27254e-05
3.22986e-05
3.1878e-05
3.23421e-05
3.27246e-05
3.29556e-05
6.02645e-05
3.29558e-05
6.02636e-05
3.18783e-05
3.22988e-05
3.27255e-05
3.23417e-05
3.27267e-05
3.23419e-05
3.18779e-05
3.29571e-05
6.02619e-05
6.02631e-05
3.29564e-05
3.18783e-05
3.22985e-05
3.23418e-05
3.27254e-05
3.23419e-05
3.27265e-05
3.18779e-05
3.2957e-05
6.02634e-05
6.02637e-05
3.29563e-05
3.39945e-05
3.39958e-05
3.22028e-05
3.39957e-05
3.39974e-05
8.33822e-05
8.33767e-05
8.3371e-05
8.33741e-05
3.22021e-05
3.39981e-05
3.39997e-05
3.39977e-05
3.39988e-05
8.33737e-05
8.33766e-05
3.18779e-05
3.23421e-05
3.27257e-05
3.22986e-05
3.1878e-05
3.2342e-05
3.27248e-05
3.29556e-05
6.02665e-05
3.29559e-05
6.02653e-05
3.29557e-05
6.02672e-05
3.2956e-05
6.0266e-05
3.18781e-05
3.22982e-05
3.23416e-05
3.27253e-05
3.23417e-05
3.27264e-05
3.18778e-05
3.18784e-05
3.22985e-05
3.23418e-05
3.27255e-05
3.23419e-05
3.27267e-05
3.18781e-05
3.29569e-05
6.02648e-05
6.02653e-05
3.29563e-05
3.2957e-05
6.02655e-05
6.0266e-05
3.29564e-05
8.33832e-05
8.3377e-05
8.33833e-05
8.33778e-05
3.22024e-05
3.39997e-05
3.4e-05
3.39986e-05
3.39991e-05
8.33736e-05
8.33769e-05
8.33749e-05
8.33778e-05
8.33699e-05
8.33719e-05
8.33748e-05
8.33767e-05
3.39993e-05
3.40009e-05
3.22021e-05
3.39978e-05
3.39997e-05
8.34065e-05
8.3379e-05
8.34121e-05
8.33826e-05
3.22007e-05
3.39938e-05
3.3995e-05
3.39987e-05
3.40002e-05
3.29555e-05
6.0264e-05
3.29574e-05
6.02642e-05
3.18769e-05
3.27268e-05
3.23416e-05
3.22977e-05
3.18777e-05
3.27246e-05
3.23412e-05
3.18769e-05
3.27275e-05
3.23416e-05
3.22979e-05
3.18775e-05
3.27255e-05
3.23412e-05
3.29563e-05
6.02889e-05
6.02664e-05
3.29516e-05
3.29564e-05
6.02852e-05
6.02653e-05
3.29516e-05
3.18765e-05
3.22963e-05
3.27203e-05
3.23367e-05
3.2726e-05
3.23398e-05
3.187e-05
3.18765e-05
3.22968e-05
3.27221e-05
3.23368e-05
3.27268e-05
3.23399e-05
3.187e-05
3.4001e-05
3.39986e-05
3.22028e-05
3.40005e-05
3.39983e-05
8.33691e-05
8.33679e-05
8.33915e-05
8.33721e-05
3.22018e-05
3.39985e-05
3.39966e-05
3.4001e-05
3.39992e-05
8.3385e-05
8.33695e-05
3.18771e-05
3.27272e-05
3.23416e-05
3.22977e-05
3.18778e-05
3.27251e-05
3.23412e-05
3.29556e-05
6.02649e-05
3.29572e-05
6.0266e-05
3.18769e-05
3.23416e-05
3.27271e-05
3.22976e-05
3.18775e-05
3.23411e-05
3.27248e-05
3.29566e-05
6.02926e-05
6.02702e-05
3.29518e-05
3.18766e-05
3.22964e-05
3.27206e-05
3.23367e-05
3.27263e-05
3.23398e-05
3.18701e-05
3.29562e-05
6.0291e-05
6.02687e-05
3.29516e-05
3.18765e-05
3.22963e-05
3.23367e-05
3.27205e-05
3.23398e-05
3.27261e-05
3.18699e-05
3.29561e-05
6.02623e-05
3.29577e-05
6.02619e-05
3.18771e-05
3.23417e-05
3.27271e-05
3.22978e-05
3.18777e-05
3.23412e-05
3.27252e-05
3.2956e-05
6.02636e-05
3.29576e-05
6.02643e-05
3.18769e-05
3.22976e-05
3.27231e-05
3.23375e-05
3.27272e-05
3.23402e-05
3.18729e-05
3.2957e-05
6.02704e-05
6.02625e-05
3.29535e-05
3.18769e-05
3.22966e-05
3.23371e-05
3.27222e-05
3.23401e-05
3.27265e-05
3.18728e-05
3.29569e-05
6.02812e-05
6.0265e-05
3.29533e-05
3.39993e-05
3.40007e-05
3.2202e-05
3.39979e-05
3.39995e-05
8.33738e-05
8.3376e-05
8.34096e-05
8.3382e-05
3.22006e-05
3.39939e-05
3.39947e-05
3.39986e-05
3.4e-05
8.34111e-05
8.33818e-05
3.18771e-05
3.23416e-05
3.27272e-05
3.22978e-05
3.18779e-05
3.23412e-05
3.27251e-05
3.29557e-05
6.0265e-05
3.29573e-05
6.02661e-05
3.29557e-05
6.02657e-05
3.29574e-05
6.02668e-05
3.18767e-05
3.22963e-05
3.23367e-05
3.27203e-05
3.23398e-05
3.2726e-05
3.18702e-05
3.18766e-05
3.22964e-05
3.23367e-05
3.27206e-05
3.23398e-05
3.27262e-05
3.18701e-05
3.29563e-05
6.02916e-05
6.02684e-05
3.29517e-05
3.29564e-05
6.02918e-05
6.02689e-05
3.29517e-05
8.33736e-05
8.33736e-05
8.3375e-05
8.3377e-05
3.2201e-05
3.39979e-05
3.39951e-05
3.40007e-05
3.40002e-05
8.34025e-05
8.33754e-05
8.34119e-05
8.33826e-05
8.3414e-05
8.34135e-05
8.34182e-05
8.34183e-05
3.39931e-05
3.39933e-05
3.21919e-05
3.39831e-05
3.39851e-05
8.34127e-05
8.34141e-05
8.34178e-05
8.34185e-05
3.21912e-05
3.39817e-05
3.39848e-05
3.39837e-05
3.39857e-05
3.29448e-05
6.0297e-05
3.2951e-05
6.03011e-05
3.18647e-05
3.27206e-05
3.2334e-05
3.22887e-05
3.18677e-05
3.27144e-05
3.23325e-05
3.18648e-05
3.27221e-05
3.23341e-05
3.2289e-05
3.18677e-05
3.27157e-05
3.23325e-05
3.29456e-05
6.02979e-05
6.02989e-05
3.29443e-05
3.29457e-05
6.03005e-05
6.03012e-05
3.29443e-05
3.1865e-05
3.22877e-05
3.27133e-05
3.23313e-05
3.27157e-05
3.23316e-05
3.18647e-05
3.18651e-05
3.22878e-05
3.27142e-05
3.23313e-05
3.27167e-05
3.23316e-05
3.18648e-05
3.39979e-05
3.39971e-05
3.21926e-05
3.39875e-05
3.39871e-05
8.34018e-05
8.3413e-05
8.34158e-05
8.34163e-05
3.21913e-05
3.39844e-05
3.39818e-05
3.39866e-05
3.39866e-05
8.34126e-05
8.3414e-05
3.18649e-05
3.27204e-05
3.2334e-05
3.22887e-05
3.18678e-05
3.27149e-05
3.23325e-05
3.29449e-05
6.03006e-05
3.29506e-05
6.03019e-05
3.18648e-05
3.2334e-05
3.27208e-05
3.22886e-05
3.18676e-05
3.23325e-05
3.27145e-05
3.29461e-05
6.03016e-05
6.03025e-05
3.29449e-05
3.18652e-05
3.22878e-05
3.2714e-05
3.23313e-05
3.27162e-05
3.23316e-05
3.18649e-05
3.29457e-05
6.03011e-05
6.03021e-05
3.29445e-05
3.18651e-05
3.22877e-05
3.23313e-05
3.27136e-05
3.23315e-05
3.27159e-05
3.18648e-05
3.29454e-05
6.02831e-05
3.29532e-05
6.0299e-05
3.18649e-05
3.23343e-05
3.27222e-05
3.22888e-05
3.18701e-05
3.23326e-05
3.27151e-05
3.29453e-05
6.02947e-05
3.29531e-05
6.03016e-05
3.18651e-05
3.22883e-05
3.27138e-05
3.23313e-05
3.27169e-05
3.23317e-05
3.18644e-05
3.2946e-05
6.02994e-05
6.03006e-05
3.29443e-05
3.1865e-05
3.22878e-05
3.23313e-05
3.27137e-05
3.23316e-05
3.27162e-05
3.18647e-05
3.29459e-05
6.03011e-05
6.03016e-05
3.29442e-05
3.39928e-05
3.3993e-05
3.21918e-05
3.39831e-05
3.39848e-05
8.34173e-05
8.34173e-05
8.3415e-05
8.34166e-05
3.21911e-05
3.39824e-05
3.39845e-05
3.39836e-05
3.39854e-05
8.34168e-05
8.34174e-05
3.18648e-05
3.2334e-05
3.27204e-05
3.22887e-05
3.18677e-05
3.23325e-05
3.27149e-05
3.29449e-05
6.03006e-05
3.29507e-05
6.03019e-05
3.2945e-05
6.03011e-05
3.29507e-05
6.03026e-05
3.1865e-05
3.22878e-05
3.23313e-05
3.27137e-05
3.23316e-05
3.27158e-05
3.18645e-05
3.18651e-05
3.22878e-05
3.23313e-05
3.2714e-05
3.23316e-05
3.27161e-05
3.18648e-05
3.29457e-05
6.03014e-05
6.0302e-05
3.29445e-05
3.29459e-05
6.03022e-05
6.03027e-05
3.29446e-05
8.34137e-05
8.34177e-05
8.34184e-05
8.34184e-05
3.21912e-05
3.39847e-05
3.39848e-05
3.3986e-05
3.39857e-05
8.34171e-05
8.34178e-05
8.3418e-05
8.34186e-05
8.34135e-05
8.34126e-05
8.3418e-05
8.34175e-05
3.39829e-05
3.39856e-05
3.21917e-05
3.3982e-05
3.39848e-05
8.34126e-05
8.34134e-05
8.34175e-05
8.34178e-05
3.21911e-05
3.3982e-05
3.39847e-05
3.39832e-05
3.39856e-05
3.29444e-05
6.03006e-05
3.29456e-05
6.03002e-05
3.18647e-05
3.27151e-05
3.23314e-05
3.22876e-05
3.1865e-05
3.27132e-05
3.23314e-05
3.18648e-05
3.27158e-05
3.23314e-05
3.22876e-05
3.18651e-05
3.27141e-05
3.23314e-05
3.29455e-05
6.02974e-05
6.02978e-05
3.29443e-05
3.29456e-05
6.03001e-05
6.03004e-05
3.29444e-05
3.1865e-05
3.22876e-05
3.27132e-05
3.23313e-05
3.2715e-05
3.23314e-05
3.18647e-05
3.18651e-05
3.22875e-05
3.27141e-05
3.23313e-05
3.27157e-05
3.23314e-05
3.18648e-05
3.39852e-05
3.39827e-05
3.21917e-05
3.39844e-05
3.39816e-05
8.34133e-05
8.34122e-05
8.34155e-05
8.34158e-05
3.21911e-05
3.39845e-05
3.39816e-05
3.39853e-05
3.39827e-05
8.34122e-05
8.3413e-05
3.18649e-05
3.27156e-05
3.23314e-05
3.22877e-05
3.18652e-05
3.27139e-05
3.23314e-05
3.29445e-05
6.03014e-05
3.29455e-05
6.03008e-05
3.18648e-05
3.23314e-05
3.27153e-05
3.22876e-05
3.18651e-05
3.23314e-05
3.27135e-05
3.2946e-05
6.03012e-05
6.03015e-05
3.29449e-05
3.18652e-05
3.22876e-05
3.27139e-05
3.23313e-05
3.27156e-05
3.23314e-05
3.18649e-05
3.29455e-05
6.03007e-05
6.03012e-05
3.29445e-05
3.18651e-05
3.22875e-05
3.23313e-05
3.27135e-05
3.23314e-05
3.27153e-05
3.18648e-05
3.29443e-05
6.02998e-05
3.29455e-05
6.02991e-05
3.18647e-05
3.23314e-05
3.27153e-05
3.22876e-05
3.1865e-05
3.23314e-05
3.27136e-05
3.29442e-05
6.03012e-05
3.29454e-05
6.03009e-05
3.1865e-05
3.22877e-05
3.27134e-05
3.23313e-05
3.27152e-05
3.23314e-05
3.18644e-05
3.29455e-05
6.0299e-05
6.02995e-05
3.29443e-05
3.1865e-05
3.22876e-05
3.23313e-05
3.27135e-05
3.23314e-05
3.27152e-05
3.18647e-05
3.29454e-05
6.03008e-05
6.0301e-05
3.29442e-05
3.39835e-05
3.39853e-05
3.21916e-05
3.39826e-05
3.39845e-05
8.3417e-05
8.34165e-05
8.34147e-05
8.34156e-05
3.2191e-05
3.39825e-05
3.39845e-05
3.39836e-05
3.39854e-05
8.34165e-05
8.34168e-05
3.18649e-05
3.23314e-05
3.27156e-05
3.22876e-05
3.18651e-05
3.23314e-05
3.27139e-05
3.29445e-05
6.03016e-05
3.29456e-05
6.03012e-05
3.29446e-05
6.03023e-05
3.29457e-05
6.03019e-05
3.1865e-05
3.22876e-05
3.23313e-05
3.27136e-05
3.23314e-05
3.27153e-05
3.18645e-05
3.18652e-05
3.22876e-05
3.23313e-05
3.27139e-05
3.23314e-05
3.27155e-05
3.18648e-05
3.29456e-05
6.03011e-05
6.03014e-05
3.29445e-05
3.29457e-05
6.03018e-05
6.03021e-05
3.29446e-05
8.34174e-05
8.34168e-05
8.34182e-05
8.34177e-05
3.21911e-05
3.39847e-05
3.39848e-05
3.39855e-05
3.39856e-05
8.34167e-05
8.3417e-05
8.34176e-05
8.3418e-05
8.34134e-05
8.34126e-05
8.34177e-05
8.34174e-05
3.3983e-05
3.39856e-05
3.21917e-05
3.39821e-05
3.39847e-05
8.34126e-05
8.34134e-05
8.34174e-05
8.34177e-05
3.21911e-05
3.3982e-05
3.39847e-05
3.39831e-05
3.39856e-05
3.29444e-05
6.03003e-05
3.29456e-05
6.03001e-05
3.18647e-05
3.2715e-05
3.23314e-05
3.22876e-05
3.1865e-05
3.27132e-05
3.23314e-05
3.18648e-05
3.27157e-05
3.23314e-05
3.22876e-05
3.18651e-05
3.27141e-05
3.23314e-05
3.29456e-05
6.02974e-05
6.02977e-05
3.29443e-05
3.29456e-05
6.03001e-05
6.03003e-05
3.29444e-05
3.1865e-05
3.22876e-05
3.27132e-05
3.23313e-05
3.2715e-05
3.23314e-05
3.18647e-05
3.1865e-05
3.22876e-05
3.27141e-05
3.23313e-05
3.27157e-05
3.23313e-05
3.18648e-05
3.39853e-05
3.39826e-05
3.21917e-05
3.39845e-05
3.39817e-05
8.3413e-05
8.34122e-05
8.34155e-05
8.34158e-05
3.21911e-05
3.39845e-05
3.39816e-05
3.39853e-05
3.39828e-05
8.34122e-05
8.3413e-05
3.18649e-05
3.27155e-05
3.23314e-05
3.22877e-05
3.18652e-05
3.27139e-05
3.23314e-05
3.29445e-05
6.03011e-05
3.29455e-05
6.03007e-05
3.18648e-05
3.23314e-05
3.27153e-05
3.22876e-05
3.18651e-05
3.23314e-05
3.27135e-05
3.2946e-05
6.03012e-05
6.03014e-05
3.29449e-05
3.18652e-05
3.22876e-05
3.27139e-05
3.23313e-05
3.27155e-05
3.23314e-05
3.18649e-05
3.29455e-05
6.03007e-05
6.03011e-05
3.29444e-05
3.1865e-05
3.22875e-05
3.23313e-05
3.27135e-05
3.23313e-05
3.27153e-05
3.18648e-05
3.29443e-05
6.02994e-05
3.29455e-05
6.02989e-05
3.18647e-05
3.23314e-05
3.27152e-05
3.22876e-05
3.1865e-05
3.23314e-05
3.27136e-05
3.29442e-05
6.03009e-05
3.29454e-05
6.03007e-05
3.1865e-05
3.22877e-05
3.27134e-05
3.23313e-05
3.27152e-05
3.23314e-05
3.18644e-05
3.29455e-05
6.0299e-05
6.02993e-05
3.29443e-05
3.1865e-05
3.22876e-05
3.23313e-05
3.27135e-05
3.23313e-05
3.27152e-05
3.18647e-05
3.29454e-05
6.03008e-05
6.03009e-05
3.29442e-05
3.39835e-05
3.39854e-05
3.21916e-05
3.39825e-05
3.39845e-05
8.34167e-05
8.34163e-05
8.34147e-05
8.34155e-05
3.2191e-05
3.39825e-05
3.39845e-05
3.39835e-05
3.39853e-05
8.34164e-05
8.34166e-05
3.18649e-05
3.23314e-05
3.27155e-05
3.22877e-05
3.18651e-05
3.23314e-05
3.27139e-05
3.29445e-05
6.03013e-05
3.29456e-05
6.03011e-05
3.29446e-05
6.0302e-05
3.29457e-05
6.03018e-05
3.18651e-05
3.22877e-05
3.23313e-05
3.27136e-05
3.23314e-05
3.27153e-05
3.18645e-05
3.18652e-05
3.22876e-05
3.23313e-05
3.27139e-05
3.23313e-05
3.27155e-05
3.18648e-05
3.29456e-05
6.03011e-05
6.03013e-05
3.29445e-05
3.29457e-05
6.03018e-05
6.0302e-05
3.29446e-05
8.3417e-05
8.34166e-05
8.3418e-05
8.34175e-05
3.21912e-05
3.39847e-05
3.39848e-05
3.39855e-05
3.39856e-05
8.34166e-05
8.34169e-05
8.34175e-05
8.34179e-05
8.34134e-05
8.34126e-05
8.34177e-05
8.34174e-05
3.3983e-05
3.39856e-05
3.21917e-05
3.39821e-05
3.39847e-05
8.34126e-05
8.34135e-05
8.34174e-05
8.34177e-05
3.21911e-05
3.3982e-05
3.39847e-05
3.39832e-05
3.39856e-05
3.29444e-05
6.03003e-05
3.29456e-05
6.03001e-05
3.18647e-05
3.2715e-05
3.23314e-05
3.22876e-05
3.1865e-05
3.27132e-05
3.23314e-05
3.18648e-05
3.27157e-05
3.23314e-05
3.22876e-05
3.18651e-05
3.27141e-05
3.23314e-05
3.29456e-05
6.02974e-05
6.02977e-05
3.29443e-05
3.29456e-05
6.03001e-05
6.03003e-05
3.29444e-05
3.1865e-05
3.22876e-05
3.27132e-05
3.23313e-05
3.2715e-05
3.23314e-05
3.18647e-05
3.1865e-05
3.22876e-05
3.2714e-05
3.23313e-05
3.27157e-05
3.23313e-05
3.18648e-05
3.39853e-05
3.39826e-05
3.21917e-05
3.39845e-05
3.39817e-05
8.3413e-05
8.34122e-05
8.34155e-05
8.34158e-05
3.21911e-05
3.39845e-05
3.39816e-05
3.39853e-05
3.39828e-05
8.34122e-05
8.3413e-05
3.1865e-05
3.27155e-05
3.23314e-05
3.22877e-05
3.18652e-05
3.27139e-05
3.23314e-05
3.29445e-05
6.03011e-05
3.29455e-05
6.03007e-05
3.18648e-05
3.23314e-05
3.27153e-05
3.22876e-05
3.18651e-05
3.23314e-05
3.27135e-05
3.2946e-05
6.03012e-05
6.03014e-05
3.29449e-05
3.18652e-05
3.22876e-05
3.27139e-05
3.23313e-05
3.27155e-05
3.23314e-05
3.18649e-05
3.29455e-05
6.03007e-05
6.03011e-05
3.29444e-05
3.1865e-05
3.22875e-05
3.23313e-05
3.27135e-05
3.23313e-05
3.27153e-05
3.18648e-05
3.29443e-05
6.02994e-05
3.29455e-05
6.02989e-05
3.18647e-05
3.23314e-05
3.27152e-05
3.22876e-05
3.1865e-05
3.23314e-05
3.27136e-05
3.29442e-05
6.03009e-05
3.29454e-05
6.03008e-05
3.1865e-05
3.22877e-05
3.27134e-05