/*--------------------------------*- C++ -*----------------------------------*\
| =========                 |                                                 |
| \\      /  F ield         | OpenFOAM: The Open Source CFD Toolbox           |
|  \\    /   O peration     | Version:  2206                                  |
|   \\  /    A nd           | Website:  www.openfoam.com                      |
|    \\/     M anipulation  |                                                 |
\*---------------------------------------------------------------------------*/
FoamFile
{
    version     2.0;
    format      ascii;
    arch        "LSB;label=32;scalar=64";
    class       volVectorField;
    location    "7";
    object      U;
}
// * * * * * * * * * * * * * * * * * * * * * * * * * * * * * * * * * * * * * //

dimensions      [0 1 -1 0 0 0 0];

internalField   nonuniform List<vector> 
28335
(
(-3.3226e-07 -3.31652e-07 0.100932)
(-1.82089e-07 3.58342e-07 0.100931)
(3.5663e-07 -1.81596e-07 0.100931)
(-3.35673e-05 -3.35826e-05 0.100929)
(-2.78083e-07 -2.77564e-07 0.100932)
(-2.44929e-07 3.87273e-07 0.100931)
(3.86157e-07 -2.45749e-07 0.100931)
(-3.3691e-05 -3.37074e-05 0.100929)
(-3.04096e-07 -3.03264e-07 0.100932)
(-2.07957e-07 3.66765e-07 0.100931)
(3.65287e-07 -2.08196e-07 0.100931)
(-3.3646e-05 -3.36617e-05 0.100929)
(-3.06482e-07 -3.05913e-07 0.100932)
(-2.04617e-07 3.64435e-07 0.100931)
(3.63111e-07 -2.05059e-07 0.100931)
(-3.36433e-05 -3.36591e-05 0.100929)
(-3.06426e-07 -3.06448e-07 0.100932)
(-2.04381e-07 3.63942e-07 0.100931)
(3.63176e-07 -2.05072e-07 0.100931)
(-3.36429e-05 -3.36592e-05 0.100929)
(-3.04813e-07 -3.06866e-07 0.100932)
(-2.0554e-07 3.62211e-07 0.100931)
(3.64394e-07 -2.06472e-07 0.100931)
(-3.36432e-05 -3.36604e-05 0.100929)
(-3.03368e-07 -3.07628e-07 0.100932)
(-2.06199e-07 3.54889e-07 0.100931)
(3.64617e-07 -2.06866e-07 0.100931)
(-3.36432e-05 -3.36612e-05 0.100929)
(-3.05055e-07 -3.06214e-07 0.100932)
(-2.07191e-07 3.65096e-07 0.100931)
(3.6506e-07 -2.06882e-07 0.100931)
(-3.36452e-05 -3.36605e-05 0.100929)
(-3.05235e-07 -3.07146e-07 0.100932)
(-2.07379e-07 3.64312e-07 0.100931)
(3.64832e-07 -2.03926e-07 0.100931)
(-3.36467e-05 -3.36579e-05 0.100929)
(-3.04864e-07 -3.07255e-07 0.100932)
(-2.06764e-07 3.63585e-07 0.100931)
(3.64787e-07 -2.02855e-07 0.100931)
(-3.36461e-05 -3.36567e-05 0.100929)
(-3.05027e-07 -3.07533e-07 0.100932)
(-2.06321e-07 3.62978e-07 0.100931)
(3.64478e-07 -2.0253e-07 0.100931)
(-3.36462e-05 -3.36565e-05 0.100929)
(-3.05547e-07 -3.07997e-07 0.100932)
(-2.0577e-07 3.6259e-07 0.100931)
(3.64236e-07 -2.01981e-07 0.100931)
(-3.36456e-05 -3.36557e-05 0.100929)
(-3.05038e-07 -3.07613e-07 0.100932)
(-2.06176e-07 3.62958e-07 0.100931)
(3.64501e-07 -2.02156e-07 0.100931)
(-3.36457e-05 -3.36561e-05 0.100929)
(-3.0488e-07 -3.07373e-07 0.100932)
(-2.0657e-07 3.63292e-07 0.100931)
(3.64621e-07 -2.02421e-07 0.100931)
(-3.36459e-05 -3.36564e-05 0.100929)
(-3.04637e-07 -3.06892e-07 0.100932)
(-2.07725e-07 3.64365e-07 0.100931)
(3.65503e-07 -2.03459e-07 0.100931)
(-3.36469e-05 -3.3657e-05 0.100929)
(-3.04757e-07 -3.06076e-07 0.100932)
(-2.06656e-07 3.64726e-07 0.100931)
(3.65247e-07 -2.02211e-07 0.100931)
(-3.36469e-05 -3.36561e-05 0.100929)
(-3.11607e-07 -3.08493e-07 0.100932)
(-1.98161e-07 3.67023e-07 0.100931)
(3.55704e-07 -1.85276e-07 0.100931)
(-3.36321e-05 -3.36401e-05 0.100929)
(-3.48014e-05 -3.4778e-05 0.100929)
(3.21376e-07 1.27528e-07 0.100931)
(-3.2306e-07 1.32063e-07 0.100931)
(3.48034e-05 -3.47778e-05 0.100929)
(1.23596e-07 3.13065e-07 0.100931)
(1.31107e-07 -3.20366e-07 0.100931)
(-1.22551e-07 3.14751e-07 0.100931)
(-1.30289e-07 -3.19271e-07 0.100931)
(-3.47741e-05 3.48071e-05 0.100929)
(3.1322e-07 -1.21798e-07 0.100931)
(-3.12371e-07 -1.23384e-07 0.100931)
(3.47807e-05 3.47982e-05 0.100929)
(3.35787e-05 3.35598e-05 0.100929)
(-3.46817e-05 -3.46584e-05 0.100929)
(3.64876e-07 1.9095e-07 0.100931)
(-3.66821e-07 1.91532e-07 0.100931)
(4.05273e-07 2.66759e-07 0.100931)
(-4.06806e-07 2.70458e-07 0.100931)
(-3.3577e-05 3.35531e-05 0.100929)
(3.46833e-05 -3.46597e-05 0.100929)
(1.84647e-07 3.58664e-07 0.100931)
(1.9021e-07 -3.64534e-07 0.100931)
(2.62028e-07 3.98109e-07 0.100931)
(2.69774e-07 -4.0543e-07 0.100931)
(-1.89287e-07 -3.62729e-07 0.100931)
(-2.62515e-07 3.98542e-07 0.100931)
(-2.68226e-07 -4.03361e-07 0.100931)
(3.35567e-05 -3.35874e-05 0.100929)
(-3.46555e-05 3.46868e-05 0.100929)
(-3.55137e-07 -1.79692e-07 0.100931)
(3.96805e-07 -2.6292e-07 0.100931)
(-3.95104e-07 -2.63364e-07 0.100931)
(3.46613e-05 3.4678e-05 0.100929)
(3.37015e-05 3.36825e-05 0.100929)
(-3.47329e-05 -3.47107e-05 0.100929)
(3.94184e-07 2.53005e-07 0.100931)
(-3.96052e-07 2.53447e-07 0.100931)
(3.75564e-07 2.14888e-07 0.100931)
(-3.76715e-07 2.19046e-07 0.100931)
(-3.37001e-05 3.36744e-05 0.100929)
(3.47354e-05 -3.47115e-05 0.100929)
(2.46605e-07 3.87657e-07 0.100931)
(2.52251e-07 -3.94808e-07 0.100931)
(2.10613e-07 3.68143e-07 0.100931)
(2.17801e-07 -3.74812e-07 0.100931)
(-2.51277e-07 -3.93662e-07 0.100931)
(-2.10161e-07 3.68543e-07 0.100931)
(-2.16628e-07 -3.72682e-07 0.100931)
(3.36784e-05 -3.37118e-05 0.100929)
(-3.47076e-05 3.47391e-05 0.100929)
(-3.85591e-07 -2.44848e-07 0.100931)
(3.66627e-07 -2.10041e-07 0.100931)
(-3.64863e-07 -2.09881e-07 0.100931)
(3.47143e-05 3.47317e-05 0.100929)
(3.36582e-05 3.36385e-05 0.100929)
(-3.47371e-05 -3.47148e-05 0.100929)
(3.73588e-07 2.16267e-07 0.100931)
(-3.75314e-07 2.16964e-07 0.100931)
(3.715e-07 2.087e-07 0.100931)
(-3.72928e-07 2.12891e-07 0.100931)
(-3.36563e-05 3.36301e-05 0.100929)
(3.47392e-05 -3.47154e-05 0.100929)
(2.10221e-07 3.67296e-07 0.100931)
(2.1554e-07 -3.73647e-07 0.100931)
(2.04409e-07 3.6399e-07 0.100931)
(2.11919e-07 -3.71038e-07 0.100931)
(-2.14766e-07 -3.72544e-07 0.100931)
(-2.04233e-07 3.64797e-07 0.100931)
(-2.10907e-07 -3.6928e-07 0.100931)
(3.3634e-05 -3.36672e-05 0.100929)
(-3.47115e-05 3.47431e-05 0.100929)
(-3.6459e-07 -2.0745e-07 0.100931)
(3.62846e-07 -2.04083e-07 0.100931)
(-3.61287e-07 -2.04093e-07 0.100931)
(3.47184e-05 3.47357e-05 0.100929)
(3.36552e-05 3.36355e-05 0.100929)
(-3.47374e-05 -3.47154e-05 0.100929)
(3.71141e-07 2.12815e-07 0.100931)
(-3.72975e-07 2.1359e-07 0.100931)
(3.71173e-07 2.07721e-07 0.100931)
(-3.72295e-07 2.11932e-07 0.100931)
(-3.36537e-05 3.36274e-05 0.100929)
(3.474e-05 -3.4716e-05 0.100929)
(2.06803e-07 3.64726e-07 0.100931)
(2.1243e-07 -3.71477e-07 0.100931)
(2.0386e-07 3.63288e-07 0.100931)
(2.11183e-07 -3.70738e-07 0.100931)
(-2.11625e-07 -3.70612e-07 0.100931)
(-2.03542e-07 3.63983e-07 0.100931)
(-2.10002e-07 -3.69018e-07 0.100931)
(3.36314e-05 -3.36645e-05 0.100929)
(-3.47116e-05 3.47436e-05 0.100929)
(-3.62473e-07 -2.04734e-07 0.100931)
(3.62486e-07 -2.03643e-07 0.100931)
(-3.60836e-07 -2.03808e-07 0.100931)
(3.47188e-05 3.47357e-05 0.100929)
(3.36551e-05 3.3635e-05 0.100929)
(-3.47353e-05 -3.47151e-05 0.100929)
(3.71445e-07 2.12438e-07 0.100931)
(-3.72641e-07 2.13247e-07 0.100931)
(3.73401e-07 2.08204e-07 0.100931)
(-3.71305e-07 2.11131e-07 0.100931)
(-3.36531e-05 3.36267e-05 0.100929)
(3.4739e-05 -3.47165e-05 0.10093)
(2.06853e-07 3.64504e-07 0.100931)
(2.1234e-07 -3.71578e-07 0.100931)
(2.05731e-07 3.63686e-07 0.100931)
(2.12429e-07 -3.71739e-07 0.100931)
(-2.11193e-07 -3.70739e-07 0.100931)
(-2.04508e-07 3.62756e-07 0.100931)
(-2.10359e-07 -3.70205e-07 0.100931)
(3.36312e-05 -3.36641e-05 0.100929)
(-3.47109e-05 3.47427e-05 0.100929)
(-3.62217e-07 -2.05027e-07 0.100931)
(3.63428e-07 -2.04521e-07 0.100931)
(-3.60861e-07 -2.04732e-07 0.100931)
(3.47184e-05 3.47345e-05 0.100929)
(3.36571e-05 3.3635e-05 0.100929)
(-3.47336e-05 -3.47161e-05 0.100929)
(3.74198e-07 2.12677e-07 0.100931)
(-3.73241e-07 2.13406e-07 0.100931)
(3.75973e-07 2.07e-07 0.100931)
(-3.62633e-07 1.9868e-07 0.100931)
(-3.36533e-05 3.36241e-05 0.100929)
(3.47419e-05 -3.47364e-05 0.100929)
(2.09392e-07 3.64801e-07 0.100931)
(2.13735e-07 -3.72966e-07 0.100931)
(2.07011e-07 3.63039e-07 0.100931)
(2.13052e-07 -3.7245e-07 0.100931)
(-2.12096e-07 -3.72782e-07 0.100931)
(-2.04524e-07 3.54338e-07 0.100931)
(-2.10457e-07 -3.71809e-07 0.100931)
(3.36319e-05 -3.36651e-05 0.100929)
(-3.47104e-05 3.4742e-05 0.100929)
(-3.62819e-07 -2.06707e-07 0.100931)
(3.6394e-07 -2.04991e-07 0.100931)
(-3.60827e-07 -2.05715e-07 0.100931)
(3.47184e-05 3.47332e-05 0.100929)
(3.36582e-05 3.36344e-05 0.100929)
(-3.47353e-05 -3.47141e-05 0.100929)
(3.75781e-07 2.11492e-07 0.100931)
(-3.60904e-07 2.00261e-07 0.100931)
(3.73336e-07 2.08807e-07 0.100931)
(-3.71906e-07 2.12517e-07 0.100931)
(-3.36512e-05 3.36071e-05 0.100929)
(3.47396e-05 -3.47174e-05 0.100929)
(2.09947e-07 3.64133e-07 0.100931)
(2.13784e-07 -3.73195e-07 0.100931)
(2.06354e-07 3.64379e-07 0.100931)
(2.1335e-07 -3.72745e-07 0.100931)
(-2.11678e-07 -3.73547e-07 0.100931)
(-2.0548e-07 3.63906e-07 0.100931)
(-2.12762e-07 -3.71021e-07 0.100931)
(3.36324e-05 -3.36656e-05 0.100929)
(-3.47097e-05 3.47417e-05 0.100929)
(-3.6254e-07 -2.07143e-07 0.100931)
(3.64469e-07 -2.05367e-07 0.100931)
(-3.61818e-07 -2.07206e-07 0.100931)
(3.4717e-05 3.4734e-05 0.100929)
(3.36572e-05 3.36367e-05 0.100929)
(-3.47364e-05 -3.4714e-05 0.100929)
(3.73267e-07 2.13842e-07 0.100931)
(-3.73471e-07 2.15428e-07 0.100931)
(3.72803e-07 2.08877e-07 0.100931)
(-3.73177e-07 2.15995e-07 0.100931)
(-3.36547e-05 3.36272e-05 0.100929)
(3.47379e-05 -3.47153e-05 0.100929)
(2.09375e-07 3.65927e-07 0.100931)
(2.1404e-07 -3.73545e-07 0.100931)
(2.05179e-07 3.65075e-07 0.100931)
(2.11091e-07 -3.72548e-07 0.100931)
(-2.15556e-07 -3.72277e-07 0.100931)
(-2.06824e-07 3.64593e-07 0.100931)
(-2.20228e-07 -3.68429e-07 0.100931)
(3.36332e-05 -3.36662e-05 0.100929)
(-3.47113e-05 3.4742e-05 0.100929)
(-3.63209e-07 -2.10139e-07 0.100931)
(3.64058e-07 -2.02761e-07 0.100931)
(-3.60971e-07 -2.15429e-07 0.100931)
(3.47148e-05 3.47365e-05 0.100929)
(3.36559e-05 3.36367e-05 0.100929)
(-3.47369e-05 -3.47139e-05 0.100929)
(3.72643e-07 2.13058e-07 0.100931)
(-3.73511e-07 2.1752e-07 0.100931)
(3.72676e-07 2.0832e-07 0.100931)
(-3.72829e-07 2.16619e-07 0.100931)
(-3.36553e-05 3.36276e-05 0.100929)
(3.47381e-05 -3.47158e-05 0.100929)
(2.07847e-07 3.66182e-07 0.100931)
(2.11523e-07 -3.7331e-07 0.100931)
(2.04569e-07 3.65295e-07 0.100931)
(2.10259e-07 -3.72332e-07 0.100931)
(-2.21322e-07 -3.69308e-07 0.100931)
(-2.06181e-07 3.63679e-07 0.100931)
(-2.18925e-07 -3.66664e-07 0.100931)
(3.36316e-05 -3.36659e-05 0.100929)
(-3.47119e-05 3.47422e-05 0.100929)
(-3.62189e-07 -2.17122e-07 0.100931)
(3.642e-07 -2.0136e-07 0.100931)
(-3.60642e-07 -2.15053e-07 0.100931)
(3.47156e-05 3.47379e-05 0.100929)
(3.36554e-05 3.36367e-05 0.100929)
(-3.47374e-05 -3.47142e-05 0.100929)
(3.72664e-07 2.12865e-07 0.100931)
(-3.72995e-07 2.17802e-07 0.100931)
(3.7229e-07 2.07754e-07 0.100931)
(-3.72591e-07 2.16355e-07 0.100931)
(-3.3655e-05 3.36271e-05 0.100929)
(3.47381e-05 -3.47161e-05 0.100929)
(2.07672e-07 3.66523e-07 0.100931)
(2.11041e-07 -3.72951e-07 0.100931)
(2.04135e-07 3.65161e-07 0.100931)
(2.09809e-07 -3.72247e-07 0.100931)
(-2.20262e-07 -3.67904e-07 0.100931)
(-2.06002e-07 3.6321e-07 0.100931)
(-2.18831e-07 -3.66305e-07 0.100931)
(3.36311e-05 -3.36656e-05 0.100929)
(-3.47121e-05 3.47424e-05 0.100929)
(-3.61781e-07 -2.16736e-07 0.100931)
(3.64016e-07 -2.01033e-07 0.100931)
(-3.60672e-07 -2.15161e-07 0.100931)
(3.47155e-05 3.47382e-05 0.100929)
(3.36548e-05 3.36363e-05 0.100929)
(-3.47383e-05 -3.47149e-05 0.100929)
(3.71997e-07 2.11992e-07 0.100931)
(-3.72637e-07 2.17302e-07 0.100931)
(3.71221e-07 2.06604e-07 0.100931)
(-3.71711e-07 2.15259e-07 0.100931)
(-3.36548e-05 3.36266e-05 0.100929)
(3.47389e-05 -3.47167e-05 0.100929)
(2.06733e-07 3.65987e-07 0.100931)
(2.10381e-07 -3.72743e-07 0.100931)
(2.02779e-07 3.64168e-07 0.100931)
(2.08608e-07 -3.71326e-07 0.100931)
(-2.19943e-07 -3.67481e-07 0.100931)
(-2.0498e-07 3.62356e-07 0.100931)
(-2.17933e-07 -3.65416e-07 0.100931)
(3.36308e-05 -3.36654e-05 0.100929)
(-3.47127e-05 3.47432e-05 0.100929)
(-3.61618e-07 -2.1655e-07 0.100931)
(3.63272e-07 -2.0005e-07 0.100931)
(-3.60011e-07 -2.14177e-07 0.100931)
(3.47161e-05 3.4739e-05 0.100929)
(3.3654e-05 3.36356e-05 0.100929)
(-3.4738e-05 -3.47146e-05 0.100929)
(3.71215e-07 2.11187e-07 0.100931)
(-3.72178e-07 2.16627e-07 0.100931)
(3.71618e-07 2.07028e-07 0.100931)
(-3.71887e-07 2.15679e-07 0.100931)
(-3.36541e-05 3.36261e-05 0.100929)
(3.47388e-05 -3.47167e-05 0.100929)
(2.05919e-07 3.65324e-07 0.100931)
(2.09768e-07 -3.72301e-07 0.100931)
(2.03444e-07 3.6462e-07 0.100931)
(2.09249e-07 -3.71699e-07 0.100931)
(-2.19597e-07 -3.67128e-07 0.100931)
(-2.05161e-07 3.62583e-07 0.100931)
(-2.18121e-07 -3.6556e-07 0.100931)
(3.36303e-05 -3.36646e-05 0.100929)
(-3.47126e-05 3.47428e-05 0.100929)
(-3.6151e-07 -2.16202e-07 0.100931)
(3.63609e-07 -2.00225e-07 0.100931)
(-3.5999e-07 -2.14232e-07 0.100931)
(3.47162e-05 3.47389e-05 0.100929)
(3.36545e-05 3.36361e-05 0.100929)
(-3.47375e-05 -3.47142e-05 0.100929)
(3.72175e-07 2.1204e-07 0.100931)
(-3.7258e-07 2.1726e-07 0.100931)
(3.72268e-07 2.07528e-07 0.100931)
(-3.72522e-07 2.16292e-07 0.100931)
(-3.36544e-05 3.36263e-05 0.100929)
(3.47382e-05 -3.47162e-05 0.100929)
(2.06966e-07 3.66245e-07 0.100931)
(2.10495e-07 -3.72732e-07 0.100931)
(2.03876e-07 3.65116e-07 0.100931)
(2.09595e-07 -3.72068e-07 0.100931)
(-2.19882e-07 -3.67365e-07 0.100931)
(-2.05811e-07 3.63166e-07 0.100931)
(-2.18543e-07 -3.66035e-07 0.100931)
(3.36305e-05 -3.36651e-05 0.100929)
(-3.47124e-05 3.47425e-05 0.100929)
(-3.61451e-07 -2.16302e-07 0.100931)
(3.63794e-07 -2.00607e-07 0.100931)
(-3.6029e-07 -2.14703e-07 0.100931)
(3.4716e-05 3.47385e-05 0.100929)
(3.36548e-05 3.36364e-05 0.100929)
(-3.47369e-05 -3.47135e-05 0.100929)
(3.7228e-07 2.12228e-07 0.100931)
(-3.72772e-07 2.17547e-07 0.100931)
(3.7258e-07 2.08329e-07 0.100931)
(-3.73031e-07 2.1716e-07 0.100931)
(-3.36548e-05 3.36267e-05 0.100929)
(3.47375e-05 -3.47152e-05 0.100929)
(2.0702e-07 3.66301e-07 0.100931)
(2.10654e-07 -3.72845e-07 0.100931)
(2.04446e-07 3.65772e-07 0.100931)
(2.10313e-07 -3.72366e-07 0.100931)
(-2.20289e-07 -3.67771e-07 0.100931)
(-2.06489e-07 3.63938e-07 0.100931)
(-2.19352e-07 -3.66374e-07 0.100931)
(3.36308e-05 -3.36655e-05 0.100929)
(-3.47117e-05 3.47422e-05 0.100929)
(-3.61779e-07 -2.16682e-07 0.100931)
(3.64372e-07 -2.0115e-07 0.100931)
(-3.60935e-07 -2.15194e-07 0.100931)
(3.47154e-05 3.47382e-05 0.100929)
(3.36554e-05 3.36373e-05 0.100929)
(-3.4737e-05 -3.47124e-05 0.100929)
(3.72716e-07 2.13243e-07 0.100931)
(-3.73572e-07 2.18715e-07 0.100931)
(3.72553e-07 2.09148e-07 0.100931)
(-3.72778e-07 2.18035e-07 0.100931)
(-3.36554e-05 3.36278e-05 0.100929)
(3.47377e-05 -3.47143e-05 0.100929)
(2.0769e-07 3.67164e-07 0.100931)
(2.11611e-07 -3.73352e-07 0.100931)
(2.04511e-07 3.66597e-07 0.100931)
(2.10922e-07 -3.71964e-07 0.100931)
(-2.215e-07 -3.68232e-07 0.100931)
(-2.06159e-07 3.64894e-07 0.100931)
(-2.19766e-07 -3.65799e-07 0.100931)
(3.36318e-05 -3.36659e-05 0.100929)
(-3.47113e-05 3.47427e-05 0.100929)
(-3.62696e-07 -2.1771e-07 0.100931)
(3.64845e-07 -2.01318e-07 0.100931)
(-3.61197e-07 -2.14978e-07 0.100931)
(3.4715e-05 3.47387e-05 0.100929)
(3.36551e-05 3.36382e-05 0.100929)
(-3.47339e-05 -3.47066e-05 0.100929)
(3.72457e-07 2.13696e-07 0.100931)
(-3.72775e-07 2.18931e-07 0.100931)
(3.69753e-07 2.07255e-07 0.100931)
(-3.68967e-07 2.1601e-07 0.100931)
(-3.36547e-05 3.36284e-05 0.100929)
(3.4736e-05 -3.4708e-05 0.100929)
(2.07189e-07 3.68106e-07 0.100931)
(2.11626e-07 -3.71735e-07 0.100931)
(2.00418e-07 3.66868e-07 0.100931)
(2.09042e-07 -3.67206e-07 0.100931)
(-2.21107e-07 -3.66734e-07 0.100931)
(-2.01625e-07 3.65088e-07 0.100931)
(-2.16645e-07 -3.6201e-07 0.100931)
(3.3632e-05 -3.36649e-05 0.100929)
(-3.47085e-05 3.47431e-05 0.100929)
(-3.62331e-07 -2.16479e-07 0.100931)
(3.63656e-07 -1.96238e-07 0.100931)
(-3.59503e-07 -2.1047e-07 0.100931)
(3.4713e-05 3.47382e-05 0.100929)
(3.36428e-05 3.36282e-05 0.100929)
(3.70319e-07 2.11853e-07 0.100931)
(-3.69165e-07 2.17206e-07 0.100931)
(-3.36408e-05 3.36187e-05 0.100929)
(2.0094e-07 3.69759e-07 0.100931)
(1.9847e-07 -3.58609e-07 0.100931)
(-2.06162e-07 -3.54179e-07 0.100931)
(3.36181e-05 -3.36484e-05 0.100929)
(-3.52274e-07 -1.99325e-07 0.100931)
(-2.34512e-08 -5.2504e-06 0.100621)
(-7.02386e-07 -4.69523e-06 0.0984571)
(1.25052e-06 -1.68321e-06 0.0928938)
(-5.27727e-06 -2.54387e-08 0.100621)
(-4.68693e-06 -6.85687e-07 0.0984568)
(-3.51547e-07 -3.49945e-07 0.100932)
(3.51431e-07 -3.50882e-07 0.100932)
(-3.49129e-07 3.51006e-07 0.100932)
(3.49341e-07 3.50587e-07 0.100932)
(9.64946e-06 -5.18297e-08 0.10089)
(-1.72351e-07 3.48749e-07 0.100931)
(7.96599e-06 -2.6807e-06 0.100691)
(-2.0638e-07 -1.25383e-07 0.100932)
(-1.65479e-06 1.23521e-06 0.0928936)
(-4.52966e-08 9.65435e-06 0.10089)
(3.4699e-07 -1.71949e-07 0.100931)
(-1.25181e-07 -2.09769e-07 0.100932)
(-2.6975e-06 7.98864e-06 0.100691)
(3.47323e-05 3.47503e-05 0.100929)
(2.34938e-06 3.00588e-06 0.100284)
(3.00028e-06 2.34436e-06 0.100284)
(1.54088e-08 -5.19617e-06 0.10062)
(8.22671e-07 3.92863e-06 0.0984564)
(-3.32561e-08 5.02134e-06 0.10062)
(-7.74747e-07 -4.15259e-06 0.0984578)
(-6.0326e-07 4.15636e-07 0.0928958)
(6.9749e-07 -7.8684e-07 0.0928997)
(-5.22553e-06 1.1797e-08 0.10062)
(3.91503e-06 8.114e-07 0.0984561)
(5.04625e-06 -2.53427e-08 0.10062)
(-4.13815e-06 -7.68858e-07 0.0984576)
(3.3184e-07 -3.32004e-07 0.100932)
(-3.3055e-07 3.31988e-07 0.100932)
(3.29708e-07 3.31379e-07 0.100932)
(-2.63661e-07 -2.62112e-07 0.100932)
(2.63023e-07 -2.63726e-07 0.100932)
(-2.62274e-07 2.62075e-07 0.100932)
(2.62317e-07 2.61505e-07 0.100932)
(9.38844e-06 -4.20097e-08 0.10089)
(-7.88677e-06 2.2141e-06 0.100689)
(-2.02663e-07 -1.34637e-07 0.100932)
(-2.48316e-07 3.98532e-07 0.100931)
(-9.35283e-06 1.85149e-08 0.10089)
(7.75773e-06 -2.50098e-06 0.10069)
(-2.8799e-07 -1.10871e-07 0.100932)
(3.56901e-07 -5.68264e-07 0.0928947)
(-7.13152e-07 6.71516e-07 0.0928994)
(-3.54861e-08 9.39137e-06 0.10089)
(-1.35265e-07 -1.94552e-07 0.100932)
(2.22524e-06 -7.91031e-06 0.100689)
(3.96361e-07 -2.47825e-07 0.100931)
(1.34252e-08 -9.35357e-06 0.10089)
(-1.11605e-07 -2.91971e-07 0.100932)
(-2.52176e-06 7.78877e-06 0.10069)
(-2.6506e-06 -2.85609e-06 0.100283)
(-2.84888e-06 -2.64449e-06 0.100283)
(3.46623e-05 3.46809e-05 0.100929)
(2.51683e-06 2.86042e-06 0.100283)
(2.85514e-06 2.51528e-06 0.100283)
(-7.05422e-09 -5.20213e-06 0.100621)
(5.70032e-07 4.67778e-06 0.0984558)
(1.74989e-08 5.20429e-06 0.100621)
(-7.09955e-07 -4.30165e-06 0.0984568)
(-1.16741e-06 1.48031e-06 0.0928924)
(9.61582e-07 -1.14551e-06 0.0928932)
(-5.23014e-06 -1.06116e-08 0.100621)
(4.67143e-06 5.60017e-07 0.0984556)
(5.23165e-06 1.92799e-08 0.100621)
(-4.2949e-06 -6.96046e-07 0.0984566)
(2.77857e-07 -2.78552e-07 0.100932)
(-2.76668e-07 2.76955e-07 0.100932)
(2.76085e-07 2.76219e-07 0.100932)
(-3.01827e-07 -3.00415e-07 0.100932)
(3.01488e-07 -3.01524e-07 0.100932)
(-3.00211e-07 3.00882e-07 0.100932)
(3.00531e-07 3.00781e-07 0.100932)
(9.47272e-06 -4.30995e-08 0.10089)
(-8.23863e-06 2.64768e-06 0.10069)
(-3.09975e-07 -1.01864e-07 0.100932)
(-2.27308e-07 3.78418e-07 0.100931)
(-9.73429e-06 5.62726e-08 0.10089)
(7.84515e-06 -2.56126e-06 0.100691)
(-2.82293e-07 -1.08471e-07 0.100932)
(1.42555e-06 -1.13635e-06 0.0928914)
(-1.07668e-06 9.28612e-07 0.092893)
(-3.52857e-08 9.47739e-06 0.10089)
(-1.01328e-07 -3.03521e-07 0.100932)
(2.66838e-06 -8.26566e-06 0.10069)
(3.76996e-07 -2.2752e-07 0.100931)
(5.50644e-08 -9.73792e-06 0.10089)
(-1.08121e-07 -2.86258e-07 0.100932)
(-2.57296e-06 7.86888e-06 0.100691)
(-2.45021e-06 -3.09945e-06 0.100283)
(-3.09194e-06 -2.44918e-06 0.100283)
(3.46975e-05 3.47149e-05 0.100929)
(2.48297e-06 2.94628e-06 0.100284)
(2.94115e-06 2.47813e-06 0.100284)
(-1.08842e-08 -5.22594e-06 0.100621)
(6.25724e-07 4.40613e-06 0.0984556)
(4.30979e-09 5.14081e-06 0.100621)
(-7.04579e-07 -4.32337e-06 0.0984568)
(-1.03336e-06 1.17124e-06 0.092892)
(9.51605e-07 -1.15241e-06 0.0928932)
(-5.254e-06 -1.3264e-08 0.100621)
(4.39517e-06 6.05374e-07 0.0984553)
(5.16775e-06 7.43288e-09 0.100621)
(-4.31483e-06 -6.89831e-07 0.0984566)
(3.03401e-07 -3.03912e-07 0.100932)
(-3.02393e-07 3.03081e-07 0.100932)
(3.01798e-07 3.02394e-07 0.100932)
(-3.06347e-07 -3.05115e-07 0.100932)
(3.05839e-07 -3.06142e-07 0.100932)
(-3.04725e-07 3.05242e-07 0.100932)
(3.04767e-07 3.04873e-07 0.100932)
(9.50716e-06 -4.57644e-08 0.10089)
(-8.11824e-06 2.49506e-06 0.10069)
(-2.53083e-07 -1.13567e-07 0.100932)
(-2.05141e-07 3.66143e-07 0.100931)
(-9.584e-06 4.15217e-08 0.10089)
(7.87283e-06 -2.57887e-06 0.100691)
(-2.48563e-07 -1.14248e-07 0.100932)
(1.09987e-06 -9.93261e-07 0.092891)
(-1.08736e-06 9.2073e-07 0.092893)
(-4.11347e-08 9.5109e-06 0.10089)
(-1.1362e-07 -2.46288e-07 0.100932)
(2.51032e-06 -8.14265e-06 0.10069)
(3.64384e-07 -2.04836e-07 0.100931)
(3.93552e-08 -9.58639e-06 0.10089)
(-1.1435e-07 -2.51414e-07 0.100932)
(-2.59375e-06 7.8977e-06 0.100691)
(-2.54402e-06 -3.02596e-06 0.100283)
(-3.01874e-06 -2.53964e-06 0.100283)
(3.47145e-05 3.47321e-05 0.100929)
(2.49502e-06 2.94866e-06 0.100284)
(2.94379e-06 2.49067e-06 0.100284)
(-1.06405e-08 -5.22657e-06 0.100621)
(6.26164e-07 4.40498e-06 0.0984556)
(4.65444e-09 5.13921e-06 0.100621)
(-7.04209e-07 -4.32416e-06 0.0984568)
(-1.03344e-06 1.17041e-06 0.092892)
(9.51126e-07 -1.15199e-06 0.0928932)
(-5.25425e-06 -1.32509e-08 0.100621)
(4.39407e-06 6.06403e-07 0.0984553)
(5.1663e-06 7.46543e-09 0.100621)
(-4.31371e-06 -6.89333e-07 0.0984566)
(3.05737e-07 -3.06439e-07 0.100932)
(-3.04743e-07 3.05235e-07 0.100932)
(3.04014e-07 3.04338e-07 0.100932)
(-3.06734e-07 -3.05939e-07 0.100932)
(3.06359e-07 -3.07014e-07 0.100932)
(-3.05299e-07 3.05481e-07 0.100932)
(3.05352e-07 3.05015e-07 0.100932)
(9.50804e-06 -4.59638e-08 0.10089)
(-8.11559e-06 2.49525e-06 0.10069)
(-2.48364e-07 -1.14364e-07 0.100932)
(-2.03514e-07 3.64703e-07 0.100931)
(-9.57995e-06 4.17591e-08 0.10089)
(7.8737e-06 -2.57933e-06 0.100691)
(-2.46265e-07 -1.14989e-07 0.100932)
(1.09881e-06 -9.93772e-07 0.092891)
(-1.08682e-06 9.20161e-07 0.092893)
(-4.10414e-08 9.51176e-06 0.10089)
(-1.14282e-07 -2.41974e-07 0.100932)
(2.51058e-06 -8.14055e-06 0.10069)
(3.6319e-07 -2.03509e-07 0.100931)
(3.93806e-08 -9.58258e-06 0.10089)
(-1.14787e-07 -2.49597e-07 0.100932)
(-2.59329e-06 7.89782e-06 0.100691)
(-2.54244e-06 -3.02349e-06 0.100283)
(-3.01697e-06 -2.53823e-06 0.100283)
(3.47152e-05 3.47326e-05 0.100929)
(2.49511e-06 2.94789e-06 0.100284)
(2.94315e-06 2.49042e-06 0.100284)
(-1.02776e-08 -5.22697e-06 0.100621)
(6.26051e-07 4.40513e-06 0.0984556)
(5.04597e-09 5.13854e-06 0.100621)
(-7.04027e-07 -4.32406e-06 0.0984568)
(-1.03087e-06 1.16924e-06 0.092892)
(9.42043e-07 -1.14544e-06 0.0928932)
(-5.25483e-06 -1.38052e-08 0.100621)
(4.38832e-06 6.04155e-07 0.0984553)
(5.16548e-06 7.23506e-09 0.100621)
(-4.305e-06 -6.87402e-07 0.0984566)
(3.06302e-07 -3.0706e-07 0.100932)
(-3.04927e-07 3.05416e-07 0.100932)
(3.04612e-07 3.04321e-07 0.100932)
(-3.05404e-07 -3.06239e-07 0.100932)
(3.07071e-07 -3.08253e-07 0.100932)
(-3.04416e-07 3.04947e-07 0.100932)
(3.05607e-07 3.04201e-07 0.100932)
(9.50774e-06 -4.67655e-08 0.10089)
(-8.11532e-06 2.49494e-06 0.10069)
(-2.47753e-07 -1.14723e-07 0.100932)
(-2.03726e-07 3.6426e-07 0.100931)
(-9.57929e-06 4.14523e-08 0.10089)
(7.873e-06 -2.57986e-06 0.100691)
(-2.46274e-07 -1.15628e-07 0.100932)
(1.09888e-06 -9.93759e-07 0.092891)
(-1.08691e-06 9.19898e-07 0.092893)
(-4.12671e-08 9.51164e-06 0.10089)
(-1.141e-07 -2.41898e-07 0.100932)
(2.51009e-06 -8.13994e-06 0.10069)
(3.63583e-07 -2.03904e-07 0.100931)
(3.91066e-08 -9.58213e-06 0.10089)
(-1.14615e-07 -2.50194e-07 0.100932)
(-2.59365e-06 7.89776e-06 0.100691)
(-2.5416e-06 -3.0239e-06 0.100283)
(-3.01643e-06 -2.53814e-06 0.100283)
(3.47157e-05 3.47324e-05 0.100929)
(2.49472e-06 2.94698e-06 0.100284)
(2.94413e-06 2.48929e-06 0.100284)
(-4.18649e-09 -5.22927e-06 0.100621)
(6.27693e-07 4.40454e-06 0.0984556)
(7.27744e-09 5.13777e-06 0.100621)
(-7.0165e-07 -4.32492e-06 0.0984568)
(-1.00788e-06 1.13508e-06 0.092892)
(9.45748e-07 -1.13051e-06 0.0928933)
(-5.25491e-06 -1.45185e-08 0.100621)
(4.38288e-06 6.00831e-07 0.0984553)
(5.16573e-06 6.60227e-09 0.100621)
(-4.30063e-06 -6.86609e-07 0.0984566)
(3.07117e-07 -3.09241e-07 0.100932)
(-3.03992e-07 3.04578e-07 0.100932)
(3.04618e-07 3.03095e-07 0.100932)
(-3.03723e-07 -3.07175e-07 0.100932)
(3.10076e-07 -3.14322e-07 0.100932)
(-3.03562e-07 3.04267e-07 0.100932)
(3.05701e-07 3.02876e-07 0.100932)
(9.5078e-06 -4.99084e-08 0.10089)
(-8.11629e-06 2.49208e-06 0.10069)
(-2.48976e-07 -1.17135e-07 0.100932)
(-2.04635e-07 3.59319e-07 0.100931)
(-9.58007e-06 3.91519e-08 0.10089)
(7.87164e-06 -2.58587e-06 0.100691)
(-2.47e-07 -1.19082e-07 0.100932)
(1.09865e-06 -9.94192e-07 0.092891)
(-1.08644e-06 9.20227e-07 0.092893)
(-4.04984e-08 9.51138e-06 0.10089)
(-1.13604e-07 -2.43775e-07 0.100932)
(2.51007e-06 -8.14054e-06 0.10069)
(3.64468e-07 -2.04935e-07 0.100931)
(3.94883e-08 -9.58286e-06 0.10089)
(-1.14117e-07 -2.5127e-07 0.100932)
(-2.59349e-06 7.89753e-06 0.100691)
(-2.54186e-06 -3.0241e-06 0.100283)
(-3.01602e-06 -2.53864e-06 0.100283)
(3.47152e-05 3.47306e-05 0.100929)
(2.49587e-06 2.94681e-06 0.100284)
(2.94398e-06 2.49026e-06 0.100284)
(-5.73115e-09 -5.22847e-06 0.100621)
(6.29807e-07 4.4034e-06 0.0984555)
(1.5562e-08 5.13584e-06 0.100621)
(-7.02276e-07 -4.32584e-06 0.0984568)
(-8.76543e-07 1.01072e-06 0.0928919)
(9.56681e-07 -1.15445e-06 0.0928933)
(-5.25467e-06 -1.40326e-08 0.100621)
(4.38364e-06 6.01334e-07 0.0984553)
(5.1658e-06 6.24429e-09 0.100621)
(-4.29965e-06 -6.85403e-07 0.0984566)
(3.10325e-07 -3.14359e-07 0.100932)
(-3.0368e-07 3.03964e-07 0.100932)
(3.04758e-07 3.01903e-07 0.100932)
(-3.04989e-07 -3.05775e-07 0.100932)
(3.06862e-07 -3.06449e-07 0.100932)
(-3.03715e-07 3.04394e-07 0.100932)
(3.05761e-07 3.02601e-07 0.100932)
(9.50741e-06 -4.87278e-08 0.10089)
(-8.1188e-06 2.48605e-06 0.10069)
(-2.48607e-07 -1.21642e-07 0.100932)
(-2.06007e-07 3.6366e-07 0.100931)
(-9.58067e-06 3.6584e-08 0.10089)
(7.87199e-06 -2.58279e-06 0.100691)
(-2.47505e-07 -1.2068e-07 0.100932)
(1.09894e-06 -9.93758e-07 0.092891)
(-1.08697e-06 9.20066e-07 0.092893)
(-4.07469e-08 9.5109e-06 0.10089)
(-1.13412e-07 -2.45617e-07 0.100932)
(2.51051e-06 -8.14087e-06 0.10069)
(3.64856e-07 -2.05131e-07 0.100931)
(3.97049e-08 -9.58318e-06 0.10089)
(-1.1394e-07 -2.50362e-07 0.100932)
(-2.59346e-06 7.89788e-06 0.100691)
(-2.54195e-06 -3.02526e-06 0.100283)
(-3.01676e-06 -2.53917e-06 0.100283)
(3.47148e-05 3.47304e-05 0.100929)
(2.49587e-06 2.94748e-06 0.100284)
(2.94453e-06 2.49025e-06 0.100284)
(-9.90315e-09 -5.22643e-06 0.100621)
(6.27029e-07 4.40469e-06 0.0984555)
(5.57959e-09 5.13903e-06 0.100621)
(-7.03677e-07 -4.32382e-06 0.0984568)
(-1.0274e-06 1.16888e-06 0.092892)
(9.55915e-07 -1.15685e-06 0.0928933)
(-5.2544e-06 -1.32956e-08 0.100621)
(4.38393e-06 6.01377e-07 0.0984553)
(5.16606e-06 7.06272e-09 0.100621)
(-4.29994e-06 -6.85525e-07 0.0984566)
(3.06441e-07 -3.05484e-07 0.100932)
(-3.03611e-07 3.04533e-07 0.100932)
(3.06256e-07 3.01318e-07 0.100932)
(-3.05459e-07 -3.06438e-07 0.100932)
(3.07358e-07 -3.0271e-07 0.100932)
(-3.02593e-07 3.06418e-07 0.100932)
(3.14171e-07 2.97269e-07 0.100932)
(9.50714e-06 -4.58753e-08 0.10089)
(-8.11654e-06 2.49458e-06 0.10069)
(-2.51474e-07 -1.15159e-07 0.100932)
(-2.0661e-07 3.6563e-07 0.100931)
(-9.58065e-06 4.10429e-08 0.10089)
(7.87304e-06 -2.57965e-06 0.100691)
(-2.50674e-07 -1.1544e-07 0.100932)
(1.09874e-06 -9.94111e-07 0.092891)
(-1.08694e-06 9.20058e-07 0.092893)
(-4.21721e-08 9.50881e-06 0.10089)
(-1.1366e-07 -2.48183e-07 0.100932)
(2.51044e-06 -8.14056e-06 0.10069)
(3.65083e-07 -2.04438e-07 0.100931)
(4.04702e-08 -9.58245e-06 0.10089)
(-1.13974e-07 -2.49846e-07 0.100932)
(-2.59335e-06 7.8981e-06 0.100691)
(-2.5426e-06 -3.02331e-06 0.100283)
(-3.01593e-06 -2.53889e-06 0.100283)
(3.47125e-05 3.47319e-05 0.100929)
(2.49548e-06 2.94765e-06 0.100284)
(2.94351e-06 2.49054e-06 0.100284)
(-1.03674e-08 -5.22746e-06 0.100621)
(6.25617e-07 4.40478e-06 0.0984555)
(5.06869e-09 5.13853e-06 0.100621)
(-7.04878e-07 -4.32474e-06 0.0984568)
(-1.033e-06 1.16916e-06 0.0928921)
(9.51225e-07 -1.15191e-06 0.0928933)
(-5.25511e-06 -1.36195e-08 0.100621)
(4.38369e-06 6.02211e-07 0.0984553)
(5.1655e-06 6.94535e-09 0.100621)
(-4.30078e-06 -6.85174e-07 0.0984566)
(3.07349e-07 -3.023e-07 0.100932)
(-3.02217e-07 3.06615e-07 0.100932)
(3.14254e-07 2.96544e-07 0.100932)
(-3.04989e-07 -3.06696e-07 0.100932)
(3.07971e-07 -3.0193e-07 0.100932)
(-3.01989e-07 3.07353e-07 0.100932)
(3.14922e-07 2.97533e-07 0.100932)
(9.50676e-06 -4.55619e-08 0.10089)
(-8.1164e-06 2.49526e-06 0.10069)
(-2.52845e-07 -1.15192e-07 0.100932)
(-2.06184e-07 3.64374e-07 0.100931)
(-9.58117e-06 4.18065e-08 0.10089)
(7.87327e-06 -2.57925e-06 0.100691)
(-2.50704e-07 -1.15743e-07 0.100932)
(1.09895e-06 -9.93684e-07 0.092891)
(-1.0869e-06 9.20526e-07 0.092893)
(-4.28254e-08 9.50849e-06 0.10089)
(-1.14478e-07 -2.49181e-07 0.100932)
(2.51036e-06 -8.1401e-06 0.10069)
(3.64933e-07 -2.01594e-07 0.100931)
(4.02247e-08 -9.58225e-06 0.10089)
(-1.1484e-07 -2.50502e-07 0.100932)
(-2.59367e-06 7.89859e-06 0.100691)
(-2.54289e-06 -3.02362e-06 0.100283)
(-3.01719e-06 -2.53853e-06 0.100283)
(3.47123e-05 3.47346e-05 0.100929)
(2.49493e-06 2.94841e-06 0.100284)
(2.94347e-06 2.4904e-06 0.100284)
(-1.04099e-08 -5.22688e-06 0.100621)
(6.25501e-07 4.40511e-06 0.0984555)
(4.82908e-09 5.13847e-06 0.100621)
(-7.04054e-07 -4.32373e-06 0.0984568)
(-1.03357e-06 1.17053e-06 0.0928921)
(9.5119e-07 -1.15202e-06 0.0928933)
(-5.25458e-06 -1.35493e-08 0.100621)
(4.38399e-06 6.02419e-07 0.0984553)
(5.16583e-06 6.9787e-09 0.100621)
(-4.30046e-06 -6.852e-07 0.0984566)
(3.07906e-07 -3.01791e-07 0.100932)
(-3.02017e-07 3.07415e-07 0.100932)
(3.1504e-07 2.96921e-07 0.100932)
(-3.05043e-07 -3.06945e-07 0.100932)
(3.07937e-07 -3.01829e-07 0.100932)
(-3.01993e-07 3.07412e-07 0.100932)
(3.14954e-07 2.97393e-07 0.100932)
(9.5067e-06 -4.54863e-08 0.10089)
(-8.11576e-06 2.49523e-06 0.10069)
(-2.52076e-07 -1.15178e-07 0.100932)
(-2.05761e-07 3.63726e-07 0.100931)
(-9.58038e-06 4.18706e-08 0.10089)
(7.87324e-06 -2.57923e-06 0.100691)
(-2.50059e-07 -1.15803e-07 0.100932)