/*--------------------------------*- C++ -*----------------------------------*\
| =========                 |                                                 |
| \\      /  F ield         | OpenFOAM: The Open Source CFD Toolbox           |
|  \\    /   O peration     | Version:  2206                                  |
|   \\  /    A nd           | Website:  www.openfoam.com                      |
|    \\/     M anipulation  |                                                 |
\*---------------------------------------------------------------------------*/
FoamFile
{
    version     2.0;
    format      ascii;
    arch        "LSB;label=32;scalar=64";
    class       volScalarField;
    location    "5.5";
    object      Uy;
}
// * * * * * * * * * * * * * * * * * * * * * * * * * * * * * * * * * * * * * //

dimensions      [0 1 -1 0 0 0 0];

internalField   nonuniform List<scalar> 
171728
(
0.000108871
0.000127184
-0.00020294
-0.000224492
3.84125e-05
2.70164e-05
-4.34156e-05
-8.21699e-05
2.98816e-06
2.17217e-06
-3.36123e-06
-3.47856e-05
-5.15881e-08
4.12969e-07
-3.54022e-07
-3.26709e-05
-2.47036e-07
3.34247e-07
-1.84297e-07
-3.2583e-05
-2.56499e-07
3.36463e-07
-1.77e-07
-3.25776e-05
-2.57271e-07
3.28078e-07
-1.7715e-07
-3.25785e-05
-2.58031e-07
3.26178e-07
-1.7721e-07
-3.25799e-05
-2.59107e-07
3.25671e-07
-1.77879e-07
-3.25803e-05
-2.57362e-07
3.25739e-07
-1.76609e-07
-3.25791e-05
-2.52567e-07
3.26379e-07
-1.75718e-07
-3.25782e-05
-2.60805e-07
3.24043e-07
-1.75194e-07
-3.25779e-05
-2.62527e-07
3.22954e-07
-1.75996e-07
-3.25776e-05
-2.61736e-07
3.22273e-07
-1.76231e-07
-3.25791e-05
-2.59566e-07
3.29191e-07
-1.76914e-07
-3.25786e-05
-2.57482e-07
3.30687e-07
-1.78263e-07
-3.25794e-05
-2.59387e-07
3.27374e-07
-1.77536e-07
-3.25796e-05
-2.57432e-07
3.2778e-07
-1.76347e-07
-3.25789e-05
-2.49039e-07
3.41805e-07
-1.73376e-07
-3.25763e-05
-2.52423e-07
3.14075e-07
-1.72667e-07
-3.25763e-05
-2.55698e-07
3.2549e-07
-1.75506e-07
-3.25776e-05
-2.60718e-07
3.23338e-07
-1.77257e-07
-3.25797e-05
-2.59985e-07
3.2537e-07
-1.78131e-07
-3.258e-05
-2.59463e-07
3.25209e-07
-1.78566e-07
-3.25814e-05
-2.60188e-07
3.24552e-07
-1.78047e-07
-3.25801e-05
-2.60138e-07
3.23927e-07
-1.77439e-07
-3.25792e-05
-2.60517e-07
3.22986e-07
-1.76439e-07
-3.25794e-05
-2.6122e-07
3.22953e-07
-1.76413e-07
-3.25777e-05
-2.6045e-07
3.23062e-07
-1.76327e-07
-3.25787e-05
-2.60425e-07
3.24296e-07
-1.77723e-07
-3.258e-05
-2.60088e-07
3.25366e-07
-1.77696e-07
-3.25807e-05
-2.599e-07
3.25673e-07
-1.78464e-07
-3.25808e-05
-2.60072e-07
3.25044e-07
-1.7871e-07
-3.25808e-05
-2.60163e-07
3.23814e-07
-1.76743e-07
-3.25792e-05
-2.60456e-07
3.23681e-07
-1.77479e-07
-3.25792e-05
-2.60537e-07
3.22854e-07
-1.75741e-07
-3.25777e-05
-2.60605e-07
3.23841e-07
-1.7671e-07
-3.2578e-05
-2.60528e-07
3.244e-07
-1.78014e-07
-3.25799e-05
-2.60341e-07
3.24379e-07
-1.77882e-07
-3.25803e-05
-2.6e-07
3.26092e-07
-1.7937e-07
-3.25837e-05
-2.54893e-07
3.23453e-07
-1.77467e-07
-3.25801e-05
-2.58684e-07
3.35834e-07
-1.7634e-07
-3.25786e-05
-2.59835e-07
3.24832e-07
-1.75297e-07
-3.25772e-05
-2.60372e-07
3.24096e-07
-1.75784e-07
-3.25783e-05
-2.60627e-07
3.23531e-07
-1.75569e-07
-3.25789e-05
-2.60214e-07
3.24742e-07
-1.76651e-07
-3.25796e-05
-2.59621e-07
3.25832e-07
-1.78319e-07
-3.25806e-05
-2.5989e-07
3.24804e-07
-1.77054e-07
-3.25803e-05
-2.59988e-07
3.25078e-07
-1.77612e-07
-3.25808e-05
-2.60363e-07
3.23971e-07
-1.75618e-07
-3.25788e-05
-2.60708e-07
3.23434e-07
-1.75704e-07
-3.25781e-05
-2.60954e-07
3.22808e-07
-1.75595e-07
-3.25789e-05
-2.6107e-07
3.23205e-07
-1.76268e-07
-3.25792e-05
-2.61332e-07
3.2161e-07
-1.77722e-07
-3.25807e-05
-2.62204e-07
3.14988e-07
-1.77991e-07
-3.25817e-05
-2.60653e-07
3.24211e-07
-1.77698e-07
-3.25809e-05
-2.6213e-07
3.2278e-07
-1.74557e-07
-3.25776e-05
-2.62029e-07
3.2265e-07
-1.74375e-07
-3.25764e-05
-2.62832e-07
3.21064e-07
-1.72411e-07
-3.25756e-05
-2.62964e-07
3.21501e-07
-1.72779e-07
-3.25752e-05
-2.61916e-07
3.22355e-07
-1.73286e-07
-3.25766e-05
-2.622e-07
3.2206e-07
-1.73295e-07
-3.25763e-05
-2.619e-07
3.23371e-07
-1.75469e-07
-3.25781e-05
-2.61902e-07
3.23919e-07
-1.75174e-07
-3.25773e-05
-2.61927e-07
3.22535e-07
-1.74023e-07
-3.25771e-05
-2.62401e-07
3.21865e-07
-1.72805e-07
-3.2576e-05
-2.62629e-07
3.2223e-07
-1.7263e-07
-3.2575e-05
-2.62144e-07
3.21851e-07
-1.72691e-07
-3.25751e-05
-2.60529e-07
3.24156e-07
-1.69817e-07
-3.25725e-05
-2.58363e-07
3.25315e-07
-1.59523e-07
-3.25673e-05
-2.59763e-07
3.25133e-07
-1.72864e-07
-3.25729e-05
-2.60737e-07
3.24881e-07
-1.74911e-07
-3.25768e-05
-2.61919e-07
3.23075e-07
-1.74037e-07
-3.25771e-05
-2.62335e-07
3.21224e-07
-1.72437e-07
-3.25756e-05
-2.6232e-07
3.22311e-07
-1.73387e-07
-3.25758e-05
-2.62702e-07
3.21199e-07
-1.72294e-07
-3.25748e-05
-2.62338e-07
3.22385e-07
-1.73656e-07
-3.25764e-05
-2.62089e-07
3.22445e-07
-1.73563e-07
-3.25773e-05
-2.61589e-07
3.2347e-07
-1.74893e-07
-3.25776e-05
-2.61792e-07
3.23398e-07
-1.74506e-07
-3.25776e-05
-2.62071e-07
3.22986e-07
-1.74308e-07
-3.2577e-05
-2.62474e-07
3.22203e-07
-1.73039e-07
-3.25756e-05
-2.62508e-07
3.21688e-07
-1.72706e-07
-3.25751e-05
-2.62505e-07
3.21582e-07
-1.72698e-07
-3.25761e-05
-2.6223e-07
3.22327e-07
-1.73115e-07
-3.25758e-05
-2.61837e-07
3.23334e-07
-1.74822e-07
-3.25768e-05
-2.61705e-07
3.22666e-07
-1.74077e-07
-3.25774e-05
-2.61822e-07
3.23309e-07
-1.74518e-07
-3.25773e-05
-2.6222e-07
3.22671e-07
-1.74462e-07
-3.25767e-05
-2.61944e-07
3.22251e-07
-1.73045e-07
-3.25754e-05
-2.617e-07
3.22295e-07
-1.73774e-07
-3.25751e-05
-2.62483e-07
3.23655e-07
-1.79732e-07
-3.25736e-05
-3.76678e-07
3.80583e-07
-2.15896e-07
-3.22855e-05
-4.89118e-06
2.54918e-06
-1.77033e-06
-2.18427e-05
-4.10035e-05
-3.56652e-05
4.41809e-05
5.38013e-05
0.000132883
0.000138052
0.000138027
0.000132855
0.000114325
-0.000114342
8.54508e-05
8.54472e-05
-8.54848e-05
-8.54817e-05
0.000114323
-0.000114344
-0.000132904
-0.000138069
-0.000138049
-0.000132877
0.000224496
3.76722e-05
0.000202813
0.000202866
7.83257e-05
7.83367e-05
0.000224443
3.77936e-05
0.000127206
-0.000127238
4.8472e-05
-4.85428e-05
-0.000127232
4.85043e-05
-4.85348e-05
-0.000224539
-3.77669e-05
-0.000202969
-7.83483e-05
-7.83815e-05
-3.77787e-05
8.20547e-05
-3.02279e-05
4.33955e-05
4.34143e-05
6.44854e-06
6.45254e-06
8.20893e-05
-3.02341e-05
2.70266e-05
-2.70829e-05
4.07697e-06
-4.09194e-06
-2.70711e-05
4.07386e-06
-4.09785e-06
-8.2175e-05
3.02494e-05
-4.34314e-05
-6.45302e-06
-6.45538e-06
3.02428e-05
3.47503e-05
-3.33947e-05
3.35382e-06
3.36085e-06
5.5321e-07
5.60104e-07
3.47461e-05
-3.33957e-05
2.17072e-06
-2.1852e-06
5.14121e-07
-5.24456e-07
-2.1828e-06
5.15745e-07
-5.21434e-07
-3.4787e-05
3.34203e-05
-3.35992e-06
-5.50071e-07
-5.5415e-07
3.34134e-05
3.26441e-05
-3.35257e-05
3.56036e-07
3.65344e-07
1.97703e-07
2.04771e-07
3.26405e-05
-3.35215e-05
4.12445e-07
-4.20648e-07
3.32775e-07
-3.36874e-07
-4.18561e-07
3.36447e-07
-3.34957e-07
-3.26763e-05
3.35557e-05
-3.57635e-07
-1.89551e-07
-1.89131e-07
3.35488e-05
3.256e-05
-3.35312e-05
1.905e-07
1.98242e-07
1.8526e-07
1.94751e-07
3.25617e-05
-3.35226e-05
3.30277e-07
-3.32461e-07
3.27266e-07
-3.27939e-07
-3.30473e-07
3.33848e-07
-3.25339e-07
-3.2588e-05
3.35634e-05
-1.81975e-07
-1.75523e-07
-1.74202e-07
3.35571e-05
3.25568e-05
-3.353e-05
1.86084e-07
1.99974e-07
1.85086e-07
1.89062e-07
3.25691e-05
-3.353e-05
3.27908e-07
-3.28699e-07
3.28121e-07
-3.2859e-07
-3.26448e-07
3.28661e-07
-3.26998e-07
-3.25832e-05
3.35634e-05
-1.75301e-07
-1.75518e-07
-1.75123e-07
3.35561e-05
3.2559e-05
-3.35209e-05
1.89094e-07
1.89721e-07
1.88828e-07
1.88131e-07
3.25563e-05
-3.35327e-05
3.30726e-07
-3.28488e-07
3.30451e-07
-3.27362e-07
-3.28478e-07
3.25816e-07
-3.27743e-07
-3.25834e-05
3.35639e-05
-1.75457e-07
-1.74675e-07
-1.75369e-07
3.35556e-05
3.25573e-05
-3.35317e-05
1.8508e-07
1.87386e-07
1.84123e-07
1.85876e-07
3.25519e-05
-3.35332e-05
3.26352e-07
-3.2882e-07
3.25636e-07
-3.29085e-07
-3.2979e-07
3.25654e-07
-3.28805e-07
-3.2583e-05
3.35626e-05
-1.76377e-07
-1.76028e-07
-1.76248e-07
3.35546e-05
3.25526e-05
-3.35324e-05
1.84622e-07
1.86969e-07
1.83752e-07
1.84708e-07
3.25515e-05
-3.3533e-05
3.26397e-07
-3.29801e-07
3.26261e-07
-3.28227e-07
-3.29647e-07
3.26504e-07
-3.2828e-07
-3.25844e-05
3.35641e-05
-1.76643e-07
-1.75674e-07
-1.75259e-07
3.35558e-05
3.25549e-05
-3.35145e-05
1.84451e-07
1.88708e-07
1.99565e-07
1.84086e-07
3.25513e-05
-3.35328e-05
3.28354e-07
-3.28132e-07
3.35462e-07
-3.26068e-07
-3.29222e-07
3.26613e-07
-3.26854e-07
-3.25828e-05
3.35652e-05
-1.75651e-07
-1.73384e-07
-1.7364e-07
3.35568e-05
3.25725e-05
-3.35323e-05
1.94083e-07
1.89621e-07
1.81501e-07
1.79368e-07
3.25504e-05
-3.35353e-05
3.33493e-07
-3.26757e-07
3.23785e-07
-3.27302e-07
-3.28315e-07
3.25181e-07
-3.26585e-07
-3.25816e-05
3.35642e-05
-1.74285e-07
-1.73683e-07
-1.73709e-07
3.35565e-05
3.25498e-05
-3.35336e-05
1.80916e-07
1.87567e-07
1.7899e-07
1.88583e-07
3.25487e-05
-3.35371e-05
3.24119e-07
-3.27747e-07
3.2301e-07
-3.28249e-07
-3.27905e-07
3.2337e-07
-3.2671e-07
-3.25823e-05
3.35637e-05
-1.74294e-07
-1.73645e-07
-1.7541e-07
3.35562e-05
3.25501e-05
-3.35343e-05
1.7967e-07
1.95133e-07
1.76264e-07
1.92675e-07
3.25463e-05
-3.35376e-05
3.25152e-07
-3.29425e-07
3.22885e-07
-3.28761e-07
-3.28332e-07
3.213e-07
-3.27077e-07
-3.25826e-05
3.35629e-05
-1.77371e-07
-1.73963e-07
-1.7776e-07
3.35556e-05
3.25544e-05
-3.35333e-05
1.83947e-07
1.92848e-07
1.81468e-07
1.8641e-07
3.25467e-05
-3.35321e-05
3.29039e-07
-3.29847e-07
3.26739e-07
-3.29343e-07
-3.27439e-07
3.26321e-07
-3.26685e-07
-3.25836e-05
3.3563e-05
-1.77396e-07
-1.75314e-07
-1.75587e-07
3.35564e-05
3.25585e-05
-3.35328e-05
1.86382e-07
1.90102e-07
1.86008e-07
2.05192e-07
3.2554e-05
-3.35116e-05
3.27817e-07
-3.30203e-07
3.27005e-07
-3.29537e-07
-3.27347e-07
3.38641e-07
-3.26855e-07
-3.25838e-05
3.35625e-05
-1.75693e-07
-1.76182e-07
-1.75375e-07
3.35555e-05
3.2559e-05
-3.35345e-05
1.87379e-07
1.87942e-07
1.81349e-07
1.85338e-07
3.2571e-05
-3.35366e-05
3.27451e-07
-3.30412e-07
3.25553e-07
-3.2899e-07
-3.28401e-07
3.27204e-07
-3.28033e-07
-3.25845e-05
3.35634e-05
-1.76186e-07
-1.75605e-07
-1.75534e-07
3.35554e-05
3.25574e-05
-3.35337e-05
1.8779e-07
1.8526e-07
1.81129e-07
1.85018e-07
3.25515e-05
-3.35358e-05
3.26152e-07
-3.29707e-07
3.26143e-07
-3.27819e-07
-3.2928e-07
3.27314e-07
-3.27098e-07
-3.25837e-05
3.35643e-05
-1.76012e-07
-1.74963e-07
-1.7477e-07
3.35565e-05
3.25572e-05
-3.35208e-05
1.87973e-07
1.85577e-07
1.9002e-07
1.95464e-07
3.25535e-05
-3.35177e-05
3.27404e-07
-3.27633e-07
3.33124e-07
-3.24696e-07
-3.27424e-07
3.35844e-07
-3.23737e-07
-3.2583e-05
3.35671e-05
-1.74844e-07
-1.71881e-07
-1.72682e-07
3.3559e-05
3.25768e-05
-3.35267e-05
2.0168e-07
2.06548e-07
1.82001e-07
1.85976e-07
3.25741e-05
-3.35273e-05
3.37559e-07
-3.25188e-07
3.30589e-07
-3.23995e-07
-3.24701e-07
3.21378e-07
-3.24105e-07
-3.25806e-05
3.35669e-05
-1.74782e-07
-1.7038e-07
-1.80765e-07
3.35591e-05
3.25669e-05
-3.35277e-05
1.86926e-07
1.78936e-07
1.90357e-07
1.93246e-07
3.254e-05
-3.35332e-05
3.29792e-07
-3.26196e-07
3.18508e-07
-3.26293e-07
-3.25958e-07
3.25953e-07
-3.25861e-07
-3.25805e-05
3.35649e-05
-1.81773e-07
-1.7318e-07
-1.74489e-07
3.35566e-05
3.25568e-05
-3.3528e-05
2.00147e-07
1.73065e-07
1.83092e-07
1.84106e-07
3.25442e-05
-3.35358e-05
3.27454e-07
-3.27088e-07
3.2526e-07
-3.29178e-07
-3.27442e-07
3.24503e-07
-3.28503e-07
-3.25817e-05
3.35637e-05
-1.7589e-07
-1.75023e-07
-1.7661e-07
3.35557e-05
3.25519e-05
-3.35289e-05
1.80761e-07
1.84014e-07
1.82121e-07
1.85094e-07
3.25501e-05
-3.3535e-05
3.24376e-07
-3.29512e-07
3.23839e-07
-3.29128e-07
-3.29636e-07
3.24316e-07
-3.28541e-07
-3.25835e-05
3.3563e-05
-1.76395e-07
-1.75005e-07
-1.75912e-07
3.35551e-05
3.2552e-05
-3.35286e-05
1.82824e-07
1.86049e-07
1.84467e-07
1.87012e-07
3.25513e-05
-3.35341e-05
3.25416e-07
-3.30964e-07
3.24955e-07
-3.30585e-07
-3.30409e-07
3.2552e-07
-3.30388e-07
-3.25843e-05
3.35619e-05
-1.76065e-07
-1.77255e-07
-1.76678e-07
3.3554e-05
3.25526e-05
-3.35297e-05
1.8215e-07
1.86231e-07
1.82404e-07
1.85415e-07
3.25523e-05
-3.3535e-05
3.24905e-07
-3.30775e-07
3.23032e-07
-3.29009e-07
-3.30712e-07
3.24355e-07
-3.29061e-07
-3.25854e-05
3.3563e-05
-1.77509e-07
-1.75882e-07
-1.76512e-07
3.35547e-05
3.25511e-05
-3.35294e-05
1.81934e-07
1.85199e-07
1.82895e-07
1.85318e-07
3.2551e-05
-3.35351e-05
3.24272e-07
-3.30067e-07
3.2358e-07
-3.28833e-07
-3.30073e-07
3.24054e-07
-3.27837e-07
-3.25841e-05
3.35628e-05
-1.77021e-07
-1.75296e-07
-1.75404e-07
3.35554e-05
3.25513e-05
-3.35307e-05
1.81155e-07
1.84703e-07
1.81997e-07
1.8427e-07
3.25506e-05
-3.35361e-05
3.23523e-07
-3.29317e-07
3.22722e-07
-3.28742e-07
-3.2864e-07
3.24005e-07
-3.28555e-07
-3.25838e-05
3.3564e-05
-1.76114e-07
-1.75434e-07
-1.76395e-07
3.35561e-05
3.25504e-05
-3.35311e-05
1.80404e-07
1.83555e-07
1.80494e-07
1.83062e-07
3.25502e-05
-3.35364e-05
3.23108e-07
-3.28768e-07
3.21156e-07
-3.27083e-07
-3.29405e-07
3.22316e-07
-3.26763e-07
-3.25834e-05
3.35644e-05
-1.7651e-07
-1.73893e-07
-1.74494e-07
3.35565e-05
3.25491e-05
-3.35302e-05
1.79461e-07
1.82942e-07
1.81767e-07
1.8438e-07
3.25489e-05
-3.35357e-05
3.2233e-07
-3.28634e-07
3.2274e-07
-3.28533e-07
-3.28212e-07
3.23596e-07
-3.27566e-07
-3.2582e-05
3.35635e-05
-1.74956e-07
-1.7487e-07
-1.75179e-07
3.35556e-05
3.25504e-05
-3.35302e-05
1.8095e-07
1.83917e-07
1.81508e-07
1.83987e-07
3.255e-05
-3.35354e-05
3.23301e-07
-3.28528e-07
3.22185e-07
-3.28163e-07
-3.27988e-07
3.233e-07
-3.28316e-07
-3.25832e-05
3.35634e-05
-1.7531e-07
-1.74929e-07
-1.75929e-07
3.3555e-05
3.25505e-05
-3.35288e-05
1.81003e-07
1.84768e-07
1.83113e-07
1.85679e-07
3.25505e-05
-3.35333e-05
3.23717e-07
-3.30027e-07
3.23515e-07
-3.2976e-07
-3.29815e-07
3.24239e-07
-3.29507e-07
-3.25835e-05
3.35621e-05
-1.76979e-07
-1.76567e-07
-1.77552e-07
3.3554e-05
3.25519e-05
-3.35294e-05
1.81725e-07
1.8555e-07
1.82987e-07
1.85491e-07
3.25512e-05
-3.35352e-05
3.24197e-07
-3.29904e-07
3.23368e-07
-3.29261e-07
-3.2966e-07
3.23422e-07
-3.2896e-07
-3.25847e-05
3.35625e-05
-1.76984e-07
-1.76124e-07
-1.76714e-07
3.35541e-05
3.2552e-05
-3.35289e-05
1.82851e-07
1.86823e-07
1.83544e-07
1.86791e-07
3.25494e-05
-3.35324e-05
3.25139e-07
-3.30916e-07
3.23781e-07
-3.30218e-07
-3.30605e-07
3.2522e-07
-3.299e-07
-3.25848e-05
3.35618e-05
-1.78023e-07
-1.77046e-07
-1.78106e-07
3.3554e-05
3.25516e-05
-3.35299e-05
1.82351e-07
1.85966e-07
1.82728e-07
1.85758e-07
3.25488e-05
-3.35342e-05
3.24916e-07
-3.30744e-07
3.23309e-07
-3.28995e-07
-3.30568e-07
3.2434e-07
-3.28272e-07
-3.25848e-05
3.35635e-05
-1.77944e-07
-1.75598e-07
-1.76196e-07
3.35559e-05
3.2551e-05
-3.35304e-05
1.80658e-07
1.84494e-07
1.81793e-07
1.8459e-07
3.25477e-05
-3.35344e-05
3.23389e-07
-3.29315e-07
3.22529e-07
-3.28456e-07
-3.29604e-07
3.23624e-07
-3.28312e-07
-3.25836e-05
3.35636e-05
-1.76227e-07
-1.75373e-07
-1.76246e-07
3.35557e-05
3.25503e-05
-3.35308e-05
1.80599e-07
1.84157e-07
1.8142e-07
1.84233e-07
3.25471e-05
-3.3535e-05
3.23164e-07
-3.29416e-07
3.22274e-07
-3.27951e-07
-3.29764e-07
3.23214e-07
-3.26982e-07
-3.25832e-05
3.35641e-05
-1.76604e-07
-1.74502e-07
-1.74639e-07
3.35568e-05
3.25497e-05
-3.3531e-05
1.8016e-07
1.83652e-07
1.80965e-07
1.83773e-07
3.25465e-05
-3.35351e-05
3.2298e-07
-3.28509e-07
3.21789e-07
-3.27148e-07
-3.28123e-07
3.22384e-07
-3.26079e-07
-3.25826e-05
3.35645e-05
-1.7484e-07
-1.73399e-07
-1.73904e-07
3.35568e-05
3.25502e-05
-3.353e-05
1.80898e-07
1.84912e-07
1.82405e-07
1.85666e-07
3.25466e-05
-3.35337e-05
3.23387e-07
-3.29179e-07
3.22984e-07
-3.29309e-07
-3.28616e-07
3.2433e-07
-3.28779e-07
-3.25825e-05
3.35632e-05
-1.75782e-07
-1.76347e-07
-1.76971e-07
3.35547e-05
3.25507e-05
-3.35292e-05
1.8136e-07
1.85613e-07
1.83191e-07
1.86086e-07
3.2548e-05
-3.35335e-05
3.23876e-07
-3.3019e-07
3.23753e-07
-3.29361e-07
-3.30418e-07
3.24372e-07
-3.28734e-07
-3.25837e-05
3.35626e-05
-1.77495e-07
-1.75267e-07
-1.76725e-07
3.35547e-05
3.25518e-05
-3.35304e-05
1.8198e-07
1.85553e-07
1.83572e-07
1.87074e-07
3.25487e-05
-3.35329e-05
3.24093e-07
-3.29972e-07
3.23727e-07
-3.31112e-07
-3.29608e-07
3.26253e-07
-3.30729e-07
-3.25843e-05
3.35608e-05
-1.77075e-07
-1.7755e-07
-1.81424e-07
3.35516e-05
3.25496e-05
-3.35371e-05
1.81991e-07
1.9246e-07
1.84922e-07
1.88835e-07
3.25518e-05
-3.35312e-05
3.23666e-07
-3.31684e-07
3.26003e-07
-3.28919e-07
-3.32841e-07
3.19768e-07
-3.30029e-07
-3.25863e-05
3.3563e-05
-1.85025e-07
-1.76392e-07
-1.80562e-07
3.35543e-05
3.25564e-05
-3.35351e-05
1.90472e-07
1.81969e-07
1.80165e-07
1.94091e-07
3.2542e-05
-3.35216e-05
3.26419e-07
-3.28827e-07
3.23275e-07
-3.28315e-07
-3.29202e-07
3.32151e-07
-3.26618e-07
-3.25839e-05
3.35638e-05
-1.76369e-07
-1.75494e-07
-1.75531e-07
3.35562e-05
3.25608e-05
-3.35357e-05
1.85762e-07
2.0255e-07
1.79254e-07
1.85612e-07
3.25686e-05
-3.3533e-05
3.2585e-07
-3.29134e-07
3.2312e-07
-3.27022e-07
-3.27314e-07
3.25045e-07
-3.25124e-07
-3.25834e-05
3.35649e-05
-1.7548e-07
-1.73514e-07
-1.739e-07
3.35575e-05
3.25547e-05
-3.35354e-05
1.8347e-07
1.84299e-07
1.78674e-07
1.83052e-07
3.25502e-05
-3.35368e-05
3.24634e-07
-3.28392e-07
3.22903e-07
-3.27822e-07
-3.27529e-07
3.2367e-07
-3.2705e-07
-3.25822e-05
3.35642e-05
-1.7483e-07
-1.74158e-07
-1.74958e-07
3.35565e-05
3.25545e-05
-3.35358e-05
1.82802e-07
1.83635e-07
1.78277e-07
1.82657e-07
3.25472e-05
-3.35368e-05
3.23994e-07
-3.29239e-07
3.22516e-07
-3.28309e-07
-3.28721e-07
3.23538e-07
-3.27958e-07
-3.25827e-05
3.35638e-05
-1.75524e-07
-1.75066e-07
-1.75799e-07
3.35557e-05
3.25544e-05
-3.35355e-05
1.82788e-07
1.83152e-07
1.78661e-07
1.82964e-07
3.25473e-05
-3.35365e-05
3.2383e-07
-3.29217e-07
3.2279e-07
-3.28671e-07
-3.28657e-07
3.23686e-07
-3.28109e-07
-3.25829e-05
3.35635e-05
-1.75356e-07
-1.7542e-07
-1.76118e-07
3.35551e-05
3.25551e-05
-3.3534e-05
1.84275e-07
1.8464e-07
1.81328e-07
1.85277e-07
3.25481e-05
-3.35352e-05
3.25023e-07
-3.30228e-07
3.25044e-07
-3.30408e-07
-3.29196e-07
3.25572e-07
-3.29121e-07
-3.25837e-05
3.35621e-05
-1.75853e-07
-1.77325e-07
-1.77499e-07
3.35541e-05
3.25566e-05
-3.35346e-05
1.85152e-07
1.85768e-07
1.80039e-07
1.84149e-07
3.25492e-05
-3.35359e-05
3.25623e-07
-3.31238e-07
3.23919e-07
-3.29538e-07
-3.30825e-07
3.24734e-07
-3.28877e-07
-3.2585e-05
3.35629e-05
-1.77774e-07
-1.76611e-07
-1.77354e-07
3.3555e-05
3.25561e-05
-3.35342e-05
1.84024e-07
1.8436e-07
1.80345e-07
1.84599e-07
3.2549e-05
-3.35352e-05
3.24833e-07
-3.3027e-07
3.24037e-07
-3.29825e-07
-3.30049e-07
3.2505e-07
-3.29752e-07
-3.25845e-05
3.35625e-05
-1.76512e-07
-1.76901e-07
-1.77979e-07
3.35544e-05
3.25564e-05
-3.35354e-05
1.84426e-07
1.85239e-07
1.79417e-07
1.83528e-07
3.25493e-05
-3.35366e-05
3.24991e-07
-3.30728e-07
3.23306e-07
-3.28708e-07
-3.3021e-07
3.23746e-07
-3.27608e-07
-3.25847e-05
3.35635e-05
-1.77024e-07
-1.75331e-07
-1.75794e-07
3.35556e-05
3.2555e-05
-3.35357e-05
1.83177e-07
1.83824e-07
1.78833e-07
1.8284e-07
3.25476e-05
-3.35373e-05
3.24226e-07
-3.29502e-07
3.23143e-07
-3.28203e-07
-3.28322e-07
3.2331e-07
-3.26651e-07
-3.25834e-05
3.35641e-05
-1.74874e-07
-1.74291e-07
-1.74339e-07
3.35566e-05
3.25546e-05
-3.35357e-05
1.82463e-07
1.8318e-07
1.7822e-07
1.82219e-07
3.2547e-05
-3.35369e-05
3.23444e-07
-3.29117e-07
3.22613e-07
-3.28146e-07
-3.29026e-07
3.23382e-07
-3.2771e-07
-3.25828e-05
3.35639e-05
-1.76101e-07
-1.74833e-07
-1.75266e-07
3.35559e-05
3.25542e-05
-3.35359e-05
1.81431e-07
1.81993e-07
1.77703e-07
1.8172e-07
3.25473e-05
-3.3537e-05
3.22488e-07
-3.28692e-07
3.21906e-07
-3.28153e-07
-3.29017e-07
3.22765e-07
-3.27966e-07
-3.25828e-05
3.35636e-05
-1.75777e-07
-1.75017e-07
-1.75513e-07
3.35554e-05
3.25542e-05
-3.35353e-05
1.82533e-07
1.83089e-07
1.79093e-07
1.82479e-07
3.2547e-05
-3.35373e-05
3.23247e-07
-3.29712e-07
3.22918e-07
-3.30006e-07
-3.29193e-07
3.22188e-07
-3.29856e-07
-3.25831e-05
3.35623e-05
-1.76303e-07
-1.76749e-07
-1.77168e-07
3.35538e-05
3.25544e-05
-3.35364e-05
1.83079e-07
1.82804e-07
1.77602e-07
1.66499e-07
3.25441e-05
-3.35565e-05
3.24155e-07
-3.31419e-07
3.22245e-07
-3.30634e-07
-3.31197e-07
3.12489e-07
-3.31155e-07
-3.25845e-05
3.35621e-05
-1.77816e-07
-1.77012e-07
-1.78092e-07
3.3553e-05
3.2554e-05
-3.35346e-05
1.81549e-07
1.72484e-07
1.79992e-07
1.84114e-07
3.25252e-05
-3.35374e-05
3.23361e-07
-3.31456e-07
3.23973e-07
-3.30674e-07
-3.32582e-07
3.23685e-07
-3.30256e-07
-3.25849e-05
3.35616e-05
-1.78885e-07
-1.76978e-07
-1.79343e-07
3.35532e-05
3.25561e-05
-3.35348e-05
1.83323e-07
1.85128e-07
1.78199e-07
1.85558e-07
3.25479e-05
-3.35366e-05
3.24387e-07
-3.31419e-07
3.23221e-07
-3.29813e-07
-3.30973e-07
3.2304e-07
-3.26583e-07
-3.25854e-05
3.35622e-05
-1.81586e-07
-1.73433e-07
-1.86364e-07
3.35569e-05
3.25556e-05
-3.35345e-05
1.82637e-07
1.86587e-07
1.78541e-07
1.86405e-07
3.25476e-05
-3.35371e-05
3.24483e-07
-3.30814e-07
3.24395e-07
-3.29984e-07
-3.27594e-07
3.22673e-07
-3.2556e-07
-3.25848e-05
3.35627e-05
-1.88185e-07
-1.72783e-07
-1.86963e-07
3.35582e-05
3.25559e-05
-3.35357e-05
1.82449e-07
1.86681e-07
1.77215e-07
1.8558e-07
3.2547e-05
-3.35381e-05
3.25329e-07
-3.3103e-07
3.22945e-07
-3.29268e-07
-3.2764e-07
3.21629e-07
-3.24973e-07
-3.25843e-05
3.35635e-05
-1.89159e-07
-1.72006e-07
-1.86549e-07
3.3559e-05
3.25545e-05
-3.3536e-05
1.80597e-07
1.85171e-07
1.75542e-07
1.84102e-07
3.25461e-05
-3.35381e-05
3.23605e-07
-3.29706e-07
3.21704e-07
-3.28293e-07
-3.25904e-07
3.20756e-07
-3.24124e-07
-3.25834e-05
3.35635e-05
-1.87216e-07
-1.70887e-07
-1.85655e-07
3.35597e-05
3.2554e-05
-3.35343e-05
1.80791e-07
1.85716e-07
1.78418e-07
1.86869e-07
3.25459e-05
-3.35369e-05
3.23698e-07
-3.30077e-07
3.24244e-07
-3.30145e-07
-3.25447e-07
3.225e-07
-3.251e-07
-3.25832e-05
3.35622e-05
-1.87117e-07
-1.72284e-07
-1.864e-07
3.35579e-05
3.25559e-05
-3.35349e-05
1.8227e-07
1.86758e-07
1.77699e-07
1.86037e-07
3.2547e-05
-3.35375e-05
3.25254e-07
-3.3071e-07
3.23702e-07
-3.2969e-07
-3.26388e-07
3.21956e-07
-3.24825e-07
-3.25845e-05
3.35625e-05
-1.88086e-07
-1.72015e-07
-1.86399e-07
3.35584e-05
3.25556e-05
-3.35338e-05
1.81979e-07
1.86874e-07
1.78709e-07
1.87606e-07
3.25468e-05
-3.35359e-05
3.24509e-07
-3.30591e-07
3.24415e-07
-3.31348e-07
-3.26206e-07
3.23705e-07
-3.27081e-07
-3.25844e-05
3.35614e-05
-1.88072e-07
-1.74074e-07
-1.88969e-07
3.35569e-05
3.25567e-05
-3.35338e-05
1.83464e-07
1.88029e-07
1.79302e-07
1.87566e-07
3.25487e-05
-3.35363e-05
3.25806e-07
-3.31788e-07
3.24822e-07
-3.30902e-07
-3.27896e-07
3.23416e-07
-3.26044e-07
-3.25859e-05
3.35617e-05
-1.90207e-07
-1.73406e-07
-1.87594e-07
3.35577e-05
3.25569e-05
-3.35337e-05
1.83544e-07
1.88402e-07
1.78959e-07
1.8728e-07
3.25482e-05
-3.35366e-05
3.26138e-07
-3.32339e-07
3.24794e-07
-3.30635e-07
-3.28159e-07
3.2332e-07
-3.259e-07
-3.25856e-05
3.35619e-05
-1.89635e-07
-1.7344e-07
-1.87784e-07
3.35579e-05
3.25565e-05
-3.35348e-05
1.82211e-07
1.86907e-07
1.77959e-07
1.86379e-07
3.25478e-05
-3.35374e-05
3.25036e-07
-3.30766e-07
3.2386e-07
-3.29936e-07
-3.26336e-07
3.22413e-07
-3.2502e-07
-3.25851e-05
3.35628e-05
-1.88457e-07
-1.71979e-07
-1.86572e-07
3.35585e-05
3.25556e-05
-3.35354e-05
1.81369e-07
1.86478e-07
1.76318e-07
1.84959e-07
3.25468e-05
-3.35376e-05
3.24319e-07
-3.30237e-07
3.21915e-07
-3.28496e-07
-3.261e-07
3.21091e-07
-3.24175e-07
-3.25842e-05
3.35634e-05
-1.87838e-07
-1.71406e-07
-1.85896e-07
3.3559e-05
3.25546e-05
-3.35348e-05
1.81327e-07
1.86307e-07
1.776e-07
1.85946e-07
3.25461e-05
-3.3538e-05
3.24519e-07
-3.30305e-07
3.23356e-07
-3.28717e-07
-3.25588e-07
3.21872e-07
-3.24376e-07
-3.25833e-05
3.35636e-05
-1.87279e-07
-1.7165e-07
-1.86537e-07
3.35596e-05
3.25548e-05
-3.35336e-05
1.8109e-07
1.85948e-07
1.78177e-07
1.86034e-07
3.2546e-05
-3.35366e-05
3.24458e-07
-3.29409e-07
3.24923e-07
-3.26828e-07
-3.25599e-07
3.22942e-07
-3.22117e-07
-3.2583e-05
3.35651e-05
-1.87474e-07
-1.68828e-07
-1.83271e-07
3.3561e-05
3.25563e-05
-3.35314e-05
1.82526e-07
1.87455e-07
1.79629e-07
1.88334e-07
3.25472e-05
-3.35342e-05
3.26316e-07
-3.27519e-07
3.26452e-07
-3.23145e-07
-3.23308e-07
3.25588e-07
-3.19439e-07
-3.25803e-05
3.35713e-05
-1.84695e-07
-1.58522e-07
-1.76488e-07
3.35653e-05
3.2558e-05
-3.35323e-05
1.84407e-07
1.8891e-07
1.80295e-07
1.88594e-07
3.25492e-05
-3.35351e-05
3.28311e-07
-3.23111e-07
3.2644e-07
-3.25636e-07
-3.18888e-07
3.24962e-07
-3.20587e-07
-3.25742e-05
3.35669e-05
-1.74535e-07
-1.67804e-07
-1.83948e-07
3.35636e-05
3.25574e-05
-3.35326e-05
1.83308e-07
1.88493e-07
1.80192e-07
1.88386e-07
3.25487e-05
-3.35353e-05
3.27153e-07
-3.28345e-07
3.25769e-07
-3.30036e-07
-3.24412e-07
3.243e-07
-3.25163e-07
-3.2581e-05
3.35619e-05
-1.86382e-07
-1.73076e-07
-1.90024e-07
3.35581e-05
3.25577e-05
-3.35339e-05
1.84179e-07
1.89014e-07
1.78523e-07
1.87703e-07
3.25488e-05
-3.35363e-05
3.27165e-07
-3.31854e-07
3.24055e-07
-3.30356e-07
-3.26533e-07
3.23095e-07
-3.25896e-07
-3.25854e-05
3.35618e-05
-1.85983e-07
-1.73249e-07
-1.8927e-07
3.35572e-05
3.2556e-05
-3.3535e-05
1.82431e-07
1.87752e-07
1.77287e-07
1.85455e-07
3.25476e-05
-3.35379e-05
3.25424e-07
-3.31219e-07
3.23268e-07
-3.29315e-07
-3.27252e-07
3.21919e-07
-3.25154e-07
-3.25847e-05
3.35632e-05
-1.88805e-07
-1.71672e-07
-1.86336e-07
3.35588e-05
3.2555e-05
-3.35352e-05
1.81557e-07
1.85828e-07
1.78039e-07
1.86266e-07
3.25461e-05
-3.35376e-05
3.24642e-07
-3.29615e-07
3.23825e-07
-3.29492e-07
-3.25515e-07
3.21791e-07
-3.24965e-07
-3.25836e-05
3.3563e-05
-1.87198e-07
-1.71691e-07
-1.87049e-07
3.35588e-05
3.25551e-05
-3.35358e-05
1.81535e-07
1.86278e-07
1.76366e-07
1.85269e-07
3.25464e-05
-3.3538e-05
3.24553e-07
-3.30625e-07
3.22373e-07
-3.28732e-07
-3.26728e-07
3.21136e-07
-3.23762e-07
-3.25838e-05
3.35634e-05
-1.88549e-07
-1.70567e-07
-1.8505e-07
3.35591e-05
3.25542e-05
-3.35345e-05
1.80569e-07
1.85425e-07
1.77546e-07
1.85337e-07
3.25455e-05
-3.35371e-05
3.23904e-07
-3.29495e-07
3.23067e-07
-3.29269e-07
-3.24722e-07
3.21714e-07
-3.25411e-07
-3.25829e-05
3.35625e-05
-1.86782e-07
-1.72687e-07
-1.87598e-07
3.35583e-05
3.25552e-05
-3.35341e-05
1.81965e-07
1.86497e-07
1.77782e-07
1.86713e-07
3.25466e-05
-3.35366e-05
3.25136e-07
-3.31003e-07
3.23724e-07
-3.30324e-07
-3.26621e-07
3.22674e-07
-3.25684e-07
-3.25839e-05
3.35621e-05
-1.88551e-07
-1.7241e-07
-1.87413e-07
3.35576e-05
3.25559e-05
-3.35334e-05
1.82478e-07
1.8702e-07
1.79928e-07
1.87778e-07
3.25476e-05
-3.3536e-05
3.25341e-07
-3.30841e-07
3.252e-07
-3.31138e-07
-3.26841e-07
3.2345e-07
-3.26102e-07
-3.25848e-05
3.35613e-05
-1.89109e-07
-1.73673e-07
-1.88401e-07
3.35568e-05
3.2557e-05
-3.3534e-05
1.83919e-07
1.88618e-07
1.78832e-07
1.87537e-07
3.25482e-05
-3.35362e-05
3.26652e-07
-3.31872e-07
3.24206e-07
-3.30635e-07
-3.27734e-07
3.22878e-07
-3.25996e-07
-3.25856e-05
3.35617e-05
-1.89821e-07
-1.73419e-07
-1.88221e-07
3.35574e-05
3.25565e-05
-3.35339e-05
1.82795e-07
1.87388e-07
1.79046e-07
1.86952e-07
3.2548e-05
-3.35364e-05
3.25395e-07
-3.31682e-07
3.24446e-07
-3.30768e-07
-3.27353e-07
3.23326e-07
-3.26266e-07
-3.25853e-05
3.35618e-05
-1.89417e-07
-1.73636e-07
-1.88441e-07
3.35575e-05
3.25561e-05
-3.35352e-05
1.82613e-07
1.87661e-07
1.77773e-07
1.85913e-07
3.25474e-05
-3.35379e-05
3.25673e-07
-3.31626e-07
3.23306e-07
-3.29441e-07
-3.2755e-07
3.217e-07
-3.24571e-07
-3.25847e-05
3.35634e-05
-1.89562e-07
-1.71897e-07
-1.86368e-07
3.3559e-05
3.25551e-05
-3.35348e-05
1.81343e-07
1.86336e-07
1.77282e-07
1.85371e-07
3.25465e-05
-3.35374e-05
3.24291e-07
-3.306e-07
3.23301e-07
-3.29251e-07
-3.25533e-07
3.21719e-07
-3.24109e-07
-3.25837e-05
3.35629e-05
-1.87243e-07
-1.71512e-07
-1.85711e-07
3.35586e-05
3.25548e-05
-3.35353e-05
1.81144e-07
1.85745e-07
1.77239e-07
1.85025e-07
3.2546e-05
-3.35378e-05
3.24526e-07
-3.2991e-07
3.23202e-07
-3.29372e-07
-3.26524e-07
3.21744e-07
-3.24814e-07
-3.25833e-05
3.35628e-05
-1.88016e-07
-1.71796e-07
-1.86224e-07
3.35586e-05
3.25544e-05
-3.35351e-05
1.81041e-07
1.8576e-07
1.77211e-07
1.8585e-07
3.25459e-05
-3.35375e-05
3.24132e-07
-3.30149e-07
3.2288e-07
-3.28877e-07
-3.25443e-07
3.21545e-07
-3.24697e-07
-3.25835e-05
3.3563e-05
-1.87631e-07
-1.70909e-07
-1.86585e-07
3.35587e-05
3.2555e-05
-3.35337e-05
1.81557e-07
1.86563e-07
1.78792e-07
1.87313e-07
3.25466e-05
-3.35367e-05
3.24355e-07
-3.30864e-07
3.24632e-07
-3.29273e-07
-3.26325e-07
3.22772e-07
-3.25578e-07
-3.25838e-05
3.35614e-05
-1.87985e-07
-1.73216e-07
-1.87421e-07
3.35573e-05
3.25566e-05
-3.35333e-05
1.8284e-07
1.87813e-07
1.79117e-07
1.87275e-07
3.25477e-05
-3.35362e-05
3.25886e-07
-3.33334e-07
3.24654e-07
-3.28862e-07
-3.27018e-07
3.23216e-07
-3.25999e-07
-3.25847e-05
3.35592e-05
-1.89338e-07
-1.73393e-07
-1.88296e-07
3.35572e-05
3.25567e-05
-3.35338e-05
1.82913e-07
1.87909e-07
1.7924e-07
1.87526e-07
3.2548e-05
-3.35362e-05
3.2597e-07
-3.33149e-07
3.2464e-07
-3.28886e-07
-3.26911e-07
3.22885e-07
-3.26199e-07
-3.25844e-05
3.35595e-05
-1.89746e-07
-1.73513e-07
-1.88519e-07
3.35574e-05
3.25567e-05
-3.35341e-05
1.828e-07
1.88028e-07
1.78318e-07
1.86546e-07
3.2548e-05
-3.35366e-05
3.25324e-07
-3.33872e-07
3.23936e-07
-3.28975e-07
-3.26749e-07
3.23103e-07
-3.25631e-07
-3.25844e-05
3.356e-05
-1.89315e-07
-1.73191e-07
-1.88011e-07
3.35577e-05
3.2556e-05
-3.35352e-05
1.82739e-07
1.86995e-07
1.78343e-07
1.86004e-07
3.25475e-05
-3.35377e-05
3.25575e-07
-3.32847e-07
3.23986e-07
-3.2886e-07
-3.27245e-07
3.21642e-07
-3.24296e-07
-3.25835e-05
3.356e-05
-1.88774e-07
-1.72449e-07
-1.86362e-07
3.35587e-05
3.25553e-05
-3.3535e-05
1.81779e-07
1.86252e-07
1.7674e-07
1.84848e-07
3.25463e-05
-3.35378e-05
3.25194e-07
-3.30606e-07
3.22897e-07
-3.28259e-07
-3.25868e-07
3.2134e-07
-3.24252e-07
-3.2582e-05
3.35619e-05
-1.88187e-07
-1.70697e-07
-1.8454e-07
3.35587e-05
3.25547e-05
-3.35342e-05
1.82085e-07
1.85392e-07
1.78254e-07
1.86085e-07
3.25457e-05
-3.35344e-05
3.24447e-07
-3.30484e-07
3.24114e-07
-3.288e-07
-3.25751e-07
3.21959e-07
-3.27489e-07
-3.25808e-05
3.35619e-05
-1.8493e-07
-1.73512e-07
-1.7916e-07
3.35562e-05
3.25535e-05
-3.3497e-05
1.90983e-07
1.91001e-07
1.48442e-07
1.5515e-07
3.25421e-05
-3.35003e-05
3.2476e-07
-3.28409e-07
2.56958e-07
-2.58755e-07
-3.22358e-07
2.55216e-07
-2.58925e-07
-3.25779e-05
3.3524e-05
-1.82104e-07
-1.34369e-07
-1.34899e-07
3.3522e-05
3.22721e-05
-2.97177e-05
2.26373e-07
2.31312e-07
-4.40461e-06
-4.40283e-06
3.22682e-05
-2.97149e-05
3.76757e-07
-3.78154e-07
-3.38816e-06
3.40339e-06
-3.72068e-07
-3.37082e-06
3.40679e-06
-3.22903e-05
2.97328e-05
-2.15111e-07
4.41791e-06
4.42249e-06