/*--------------------------------*- C++ -*----------------------------------*\
| =========                 |                                                 |
| \\      /  F ield         | OpenFOAM: The Open Source CFD Toolbox           |
|  \\    /   O peration     | Version:  2206                                  |
|   \\  /    A nd           | Website:  www.openfoam.com                      |
|    \\/     M anipulation  |                                                 |
\*---------------------------------------------------------------------------*/
FoamFile
{
    version     2.0;
    format      ascii;
    arch        "LSB;label=32;scalar=64";
    class       volScalarField;
    location    "17";
    object      epsilon;
}
// * * * * * * * * * * * * * * * * * * * * * * * * * * * * * * * * * * * * * //

dimensions      [0 2 -3 0 0 0 0];

internalField   nonuniform List<scalar> 
28335
(
3.55853e-07
3.72686e-07
3.72693e-07
3.9701e-07
3.55854e-07
3.72689e-07
3.72695e-07
3.97016e-07
3.55849e-07
3.72687e-07
3.72694e-07
3.9702e-07
3.55764e-07
3.72614e-07
3.72621e-07
3.96992e-07
3.55665e-07
3.72527e-07
3.72534e-07
3.96878e-07
3.55662e-07
3.72526e-07
3.72533e-07
3.96893e-07
3.55662e-07
3.72526e-07
3.72532e-07
3.96885e-07
3.55662e-07
3.72526e-07
3.72532e-07
3.96888e-07
3.55662e-07
3.72526e-07
3.72532e-07
3.96889e-07
3.55662e-07
3.72526e-07
3.72532e-07
3.96889e-07
3.55662e-07
3.72526e-07
3.72532e-07
3.96889e-07
3.55662e-07
3.72526e-07
3.72532e-07
3.96889e-07
3.55662e-07
3.72526e-07
3.72532e-07
3.96889e-07
3.55662e-07
3.72526e-07
3.72533e-07
3.96889e-07
3.55662e-07
3.72526e-07
3.72533e-07
3.96889e-07
3.55662e-07
3.72526e-07
3.72533e-07
3.96889e-07
3.55662e-07
3.72526e-07
3.72533e-07
3.96889e-07
3.96809e-07
3.727e-07
3.72703e-07
3.96803e-07
3.72691e-07
3.7271e-07
3.72686e-07
3.72702e-07
3.96816e-07
3.72693e-07
3.72692e-07
3.96812e-07
3.97009e-07
3.96816e-07
3.72704e-07
3.72706e-07
3.72702e-07
3.72705e-07
3.97003e-07
3.96809e-07
3.72695e-07
3.72713e-07
3.72693e-07
3.72712e-07
3.72705e-07
3.72689e-07
3.72704e-07
3.97016e-07
3.96822e-07
3.72696e-07
3.72695e-07
3.72695e-07
3.96819e-07
3.97015e-07
3.96819e-07
3.72705e-07
3.72707e-07
3.72701e-07
3.72704e-07
3.97009e-07
3.96812e-07
3.72695e-07
3.72715e-07
3.72692e-07
3.72711e-07
3.72706e-07
3.72688e-07
3.72703e-07
3.97021e-07
3.96826e-07
3.72697e-07
3.72695e-07
3.72694e-07
3.96823e-07
3.97017e-07
3.96803e-07
3.72701e-07
3.72704e-07
3.72671e-07
3.72674e-07
3.97011e-07
3.96797e-07
3.72692e-07
3.72711e-07
3.72662e-07
3.72681e-07
3.72703e-07
3.72658e-07
3.72673e-07
3.97024e-07
3.9681e-07
3.72693e-07
3.72664e-07
3.72664e-07
3.96808e-07
3.9699e-07
3.96682e-07
3.72629e-07
3.72631e-07
3.72547e-07
3.7255e-07
3.96984e-07
3.96675e-07
3.7262e-07
3.72639e-07
3.72538e-07
3.72557e-07
3.72631e-07
3.72533e-07
3.72549e-07
3.96996e-07
3.96689e-07
3.72621e-07
3.7254e-07
3.72539e-07
3.96685e-07
3.96877e-07
3.96688e-07
3.72543e-07
3.72546e-07
3.7254e-07
3.72543e-07
3.96871e-07
3.96682e-07
3.72534e-07
3.72553e-07
3.72531e-07
3.7255e-07
3.72545e-07
3.72527e-07
3.72542e-07
3.96884e-07
3.96696e-07
3.72536e-07
3.72533e-07
3.72533e-07
3.96693e-07
3.9689e-07
3.96685e-07
3.72543e-07
3.72546e-07
3.72539e-07
3.72542e-07
3.96885e-07
3.96679e-07
3.72534e-07
3.72553e-07
3.7253e-07
3.72549e-07
3.72545e-07
3.72526e-07
3.72542e-07
3.96897e-07
3.96692e-07
3.72536e-07
3.72532e-07
3.72532e-07
3.96689e-07
3.96884e-07
3.96689e-07
3.72541e-07
3.72544e-07
3.72539e-07
3.72542e-07
3.96879e-07
3.96682e-07
3.72532e-07
3.72552e-07
3.7253e-07
3.72549e-07
3.72544e-07
3.72526e-07
3.72542e-07
3.96891e-07
3.96696e-07
3.72534e-07
3.72533e-07
3.72532e-07
3.96693e-07
3.96887e-07
3.96688e-07
3.72541e-07
3.72544e-07
3.72539e-07
3.72542e-07
3.96881e-07
3.96681e-07
3.72533e-07
3.72552e-07
3.7253e-07
3.72549e-07
3.72544e-07
3.72526e-07
3.72542e-07
3.96894e-07
3.96695e-07
3.72534e-07
3.72532e-07
3.72532e-07
3.96693e-07
3.96887e-07
3.96688e-07
3.72541e-07
3.72544e-07
3.72539e-07
3.72542e-07
3.96881e-07
3.96681e-07
3.72533e-07
3.72552e-07
3.72531e-07
3.72549e-07
3.72544e-07
3.72526e-07
3.72541e-07
3.96894e-07
3.96695e-07
3.72534e-07
3.72532e-07
3.72532e-07
3.96692e-07
3.96887e-07
3.96688e-07
3.72541e-07
3.72544e-07
3.72539e-07
3.72542e-07
3.9688e-07
3.96681e-07
3.72533e-07
3.72551e-07
3.72531e-07
3.72549e-07
3.72544e-07
3.72526e-07
3.72541e-07
3.96893e-07
3.96695e-07
3.72534e-07
3.72532e-07
3.72532e-07
3.96692e-07
3.96887e-07
3.96688e-07
3.72541e-07
3.72544e-07
3.72539e-07
3.72542e-07
3.9688e-07
3.96681e-07
3.72533e-07
3.72551e-07
3.72531e-07
3.72549e-07
3.72544e-07
3.72526e-07
3.72541e-07
3.96893e-07
3.96695e-07
3.72534e-07
3.72532e-07
3.72532e-07
3.96692e-07
3.96887e-07
3.96687e-07
3.72541e-07
3.72544e-07
3.72539e-07
3.72542e-07
3.9688e-07
3.96681e-07
3.72533e-07
3.72551e-07
3.72531e-07
3.72549e-07
3.72544e-07
3.72526e-07
3.72541e-07
3.96893e-07
3.96694e-07
3.72534e-07
3.72532e-07
3.72532e-07
3.96692e-07
3.96886e-07
3.96688e-07
3.72541e-07
3.72544e-07
3.72539e-07
3.72542e-07
3.9688e-07
3.96681e-07
3.72533e-07
3.72552e-07
3.72531e-07
3.72549e-07
3.72544e-07
3.72526e-07
3.72541e-07
3.96893e-07
3.96694e-07
3.72534e-07
3.72533e-07
3.72532e-07
3.96692e-07
3.96886e-07
3.96687e-07
3.72541e-07
3.72544e-07
3.72539e-07
3.72542e-07
3.9688e-07
3.96681e-07
3.72533e-07
3.72552e-07
3.72531e-07
3.72549e-07
3.72544e-07
3.72526e-07
3.72541e-07
3.96893e-07
3.96695e-07
3.72534e-07
3.72533e-07
3.72532e-07
3.96692e-07
3.96886e-07
3.96688e-07
3.72541e-07
3.72544e-07
3.72539e-07
3.72542e-07
3.9688e-07
3.96681e-07
3.72533e-07
3.72552e-07
3.72531e-07
3.72549e-07
3.72544e-07
3.72526e-07
3.72541e-07
3.96893e-07
3.96694e-07
3.72534e-07
3.72533e-07
3.72532e-07
3.96692e-07
3.96887e-07
3.96687e-07
3.72541e-07
3.72544e-07
3.72539e-07
3.72542e-07
3.9688e-07
3.96681e-07
3.72533e-07
3.72551e-07
3.72531e-07
3.72549e-07
3.72544e-07
3.72526e-07
3.72541e-07
3.96893e-07
3.96694e-07
3.72534e-07
3.72533e-07
3.72532e-07
3.96692e-07
3.96886e-07
3.72541e-07
3.72544e-07
3.9688e-07
3.72533e-07
3.72551e-07
3.72543e-07
3.96893e-07
3.72533e-07
1.59552e-06
8.2327e-06
2.47469e-05
1.59563e-06
8.23404e-06
3.55853e-07
3.55854e-07
3.55856e-07
3.55855e-07
5.85312e-07
3.72687e-07
1.28569e-06
3.60726e-07
2.47472e-05
5.85319e-07
3.72693e-07
3.60727e-07
1.28565e-06
3.96802e-07
2.65599e-06
2.65655e-06
1.59565e-06
8.23282e-06
1.59612e-06
8.23231e-06
2.47438e-05
2.47417e-05
1.59551e-06
8.23417e-06
1.59596e-06
8.23365e-06
3.55857e-07
3.55858e-07
3.55858e-07
3.55856e-07
3.55855e-07
3.55857e-07
3.55856e-07
5.85335e-07
1.28633e-06
3.60725e-07
3.7269e-07
5.85452e-07
1.28579e-06
3.60728e-07
2.47444e-05
2.4742e-05
5.85345e-07
3.60726e-07
1.28627e-06
3.72697e-07
5.85465e-07
3.6073e-07
1.28576e-06
2.65644e-06
2.657e-06
3.96816e-07
2.65607e-06
2.65664e-06
1.59559e-06
8.23249e-06
1.59604e-06
8.23205e-06
2.47411e-05
2.47404e-05
1.59544e-06
8.23384e-06
1.59585e-06
8.23338e-06
3.55855e-07
3.55857e-07
3.55855e-07
3.5585e-07
3.5585e-07
3.55852e-07
3.55851e-07
5.85341e-07
1.28638e-06
3.60726e-07
3.72691e-07
5.85464e-07
1.28581e-06
3.60726e-07
2.47416e-05
2.47408e-05
5.85351e-07
3.60728e-07
1.28632e-06
3.72698e-07
5.85486e-07
3.60727e-07
1.28577e-06
2.65654e-06
2.65711e-06
3.96821e-07
2.65615e-06
2.65672e-06
1.59569e-06
8.23247e-06
1.596e-06
8.23262e-06
2.47415e-05
2.47427e-05
1.59554e-06
8.23382e-06
1.5958e-06
8.23394e-06
3.55849e-07
3.55851e-07
3.5585e-07
3.55814e-07
3.55814e-07
3.55816e-07
3.55815e-07
5.8536e-07
1.28638e-06
3.60721e-07
3.72685e-07
5.85465e-07
1.28591e-06
3.60719e-07
2.47421e-05
2.47431e-05
5.85357e-07
3.60722e-07
1.28631e-06
3.72692e-07
5.85467e-07
3.6072e-07
1.28586e-06
2.65651e-06
2.65707e-06
3.96822e-07
2.65628e-06
2.65685e-06
1.59613e-06
8.236e-06
1.5966e-06
8.236e-06
2.47464e-05
2.47459e-05
1.59596e-06
8.23735e-06
1.5964e-06
8.23733e-06
3.55765e-07
3.55767e-07
3.55766e-07
3.55672e-07
3.55672e-07
3.55674e-07
3.55673e-07
5.85337e-07
1.28674e-06
3.60642e-07
3.72579e-07
5.85493e-07
1.28613e-06
3.60604e-07
2.4747e-05
2.47464e-05
5.85339e-07
3.60644e-07
1.28665e-06
3.72585e-07
5.85505e-07
3.60605e-07
1.28608e-06
2.65708e-06
2.65765e-06
3.96733e-07
2.65647e-06
2.65704e-06
1.59602e-06
8.23627e-06
1.59647e-06
8.23586e-06
2.47462e-05
2.47457e-05
1.59586e-06
8.23763e-06
1.59627e-06
8.23721e-06
3.55667e-07
3.55669e-07
3.55668e-07
3.55662e-07
3.55664e-07
3.55665e-07
3.55664e-07
5.85308e-07
1.28663e-06
3.60548e-07
3.72528e-07
5.85434e-07
1.28604e-06
3.60549e-07
2.47468e-05
2.47461e-05
5.85312e-07
3.60549e-07
1.28656e-06
3.72535e-07
5.8544e-07
3.6055e-07
1.286e-06
2.65673e-06
2.65729e-06
3.96683e-07
2.65629e-06
2.65686e-06
1.59601e-06
8.23621e-06
1.59645e-06
8.23584e-06
2.47462e-05
2.47457e-05
1.59586e-06
8.23745e-06
1.59625e-06
8.23703e-06
3.55666e-07
3.55668e-07
3.55667e-07
3.55662e-07
3.55663e-07
3.55665e-07
3.55664e-07
5.8531e-07
1.28661e-06
3.60546e-07
3.72528e-07
5.85432e-07
1.28604e-06
3.60548e-07
2.47467e-05
2.4746e-05
5.85314e-07
3.60547e-07
1.28654e-06
3.72535e-07
5.85437e-07
3.60549e-07
1.286e-06
2.65671e-06
2.65727e-06
3.96697e-07
2.65628e-06
2.65685e-06
1.59601e-06
8.23621e-06
1.59645e-06
8.23584e-06
2.47459e-05
2.47454e-05
1.59586e-06
8.23737e-06
1.59625e-06
8.23696e-06
3.55665e-07
3.55667e-07
3.55666e-07
3.55662e-07
3.55663e-07
3.55665e-07
3.55664e-07
5.85309e-07
1.28661e-06
3.60546e-07
3.72528e-07
5.85431e-07
1.28604e-06
3.60548e-07
2.47467e-05
2.4746e-05
5.85311e-07
3.60547e-07
1.28654e-06
3.72535e-07
5.85438e-07
3.60549e-07
1.286e-06
2.65671e-06
2.65727e-06
3.96693e-07
2.65628e-06
2.65685e-06
1.59601e-06
8.23621e-06
1.59645e-06
8.23584e-06
2.47459e-05
2.47454e-05
1.59586e-06
8.23733e-06
1.59625e-06
8.23694e-06
3.55666e-07
3.55667e-07
3.55666e-07
3.55662e-07
3.55663e-07
3.55665e-07
3.55664e-07
5.85309e-07
1.28661e-06
3.60546e-07
3.72528e-07
5.85432e-07
1.28604e-06
3.60548e-07
2.47467e-05
2.4746e-05
5.85313e-07
3.60547e-07
1.28654e-06
3.72534e-07
5.85441e-07
3.60549e-07
1.286e-06
2.65671e-06
2.65727e-06
3.96691e-07
2.65628e-06
2.65685e-06
1.59601e-06
8.2362e-06
1.59645e-06
8.23584e-06
2.47459e-05
2.47454e-05
1.59586e-06
8.23731e-06
1.59625e-06
8.23692e-06
3.55666e-07
3.55667e-07
3.55666e-07
3.55662e-07
3.55663e-07
3.55665e-07
3.55664e-07
5.8531e-07
1.28661e-06
3.60546e-07
3.72528e-07
5.85432e-07
1.28604e-06
3.60548e-07
2.47467e-05
2.4746e-05
5.85314e-07
3.60547e-07
1.28654e-06
3.72535e-07
5.85442e-07
3.60549e-07
1.286e-06
2.65671e-06
2.65727e-06
3.96692e-07
2.65628e-06
2.65685e-06
1.59601e-06
8.2362e-06
1.59645e-06
8.23584e-06
2.47459e-05
2.47454e-05
1.59586e-06
8.2373e-06
1.59625e-06
8.23691e-06
3.55666e-07
3.55667e-07
3.55666e-07
3.55662e-07
3.55663e-07
3.55665e-07
3.55664e-07
5.8531e-07
1.28661e-06
3.60546e-07
3.72528e-07
5.85432e-07
1.28604e-06
3.60548e-07
2.47467e-05
2.4746e-05
5.85315e-07
3.60547e-07
1.28654e-06
3.72535e-07
5.85441e-07
3.60549e-07
1.286e-06
2.65671e-06
2.65727e-06
3.96692e-07
2.65628e-06
2.65685e-06
1.59601e-06
8.2362e-06
1.59645e-06
8.23584e-06
2.47459e-05
2.47454e-05
1.59586e-06
8.2373e-06
1.59625e-06
8.23691e-06
3.55666e-07
3.55667e-07
3.55666e-07
3.55662e-07
3.55663e-07
3.55665e-07
3.55664e-07
5.8531e-07
1.28661e-06
3.60546e-07
3.72528e-07
5.85432e-07
1.28604e-06
3.60549e-07
2.47467e-05
2.4746e-05
5.85314e-07
3.60547e-07
1.28654e-06
3.72534e-07
5.85441e-07
3.6055e-07
1.286e-06
2.65671e-06
2.65727e-06
3.96692e-07
2.65628e-06
2.65685e-06
1.59601e-06
8.2362e-06
1.59645e-06
8.23584e-06
2.47459e-05
2.47454e-05
1.59586e-06
8.2373e-06
1.59625e-06
8.23691e-06
3.55666e-07
3.55667e-07
3.55666e-07
3.55662e-07
3.55663e-07
3.55665e-07
3.55664e-07
5.8531e-07
1.28661e-06
3.60546e-07
3.72528e-07
5.85432e-07
1.28604e-06
3.60548e-07
2.47467e-05
2.4746e-05
5.85321e-07
3.60547e-07
1.28654e-06
3.72535e-07
5.85443e-07
3.60549e-07
1.286e-06
2.65671e-06
2.65727e-06
3.96692e-07
2.65628e-06
2.65685e-06
1.59601e-06
8.2362e-06
1.59645e-06
8.23584e-06
2.47459e-05
2.47454e-05
1.59586e-06
8.2373e-06
1.59625e-06
8.23691e-06
3.55666e-07
3.55667e-07
3.55666e-07
3.55662e-07
3.55663e-07
3.55665e-07
3.55664e-07
5.8531e-07
1.28661e-06
3.60546e-07
3.72528e-07
5.85432e-07
1.28604e-06
3.60548e-07
2.47467e-05
2.4746e-05
5.85331e-07
3.60547e-07
1.28654e-06
3.72535e-07
5.85454e-07
3.60549e-07
1.286e-06
2.65671e-06
2.65727e-06
3.96692e-07
2.65628e-06
2.65685e-06
1.59601e-06
8.2362e-06
1.59645e-06
8.23584e-06
2.47459e-05
2.47454e-05
1.59586e-06
8.2373e-06
1.59625e-06
8.23691e-06
3.55666e-07
3.55667e-07
3.55666e-07
3.55662e-07
3.55663e-07
3.55665e-07
3.55664e-07
5.8531e-07
1.28661e-06
3.60546e-07
3.72528e-07
5.85432e-07
1.28604e-06
3.60548e-07
2.47467e-05
2.4746e-05
5.85335e-07
3.60547e-07
1.28654e-06
3.72535e-07
5.85461e-07
3.6055e-07
1.286e-06
2.65671e-06
2.65727e-06
3.96692e-07
2.65628e-06
2.65685e-06
1.59601e-06
8.2362e-06
1.59645e-06
8.23584e-06
2.47459e-05
2.47454e-05
1.59586e-06
8.2373e-06
1.59625e-06
8.23691e-06
3.55666e-07
3.55667e-07
3.55666e-07
3.55662e-07
3.55663e-07
3.55665e-07
3.55664e-07
5.8531e-07
1.28661e-06
3.60546e-07
3.72528e-07
5.85432e-07
1.28604e-06
3.60548e-07
2.47467e-05
2.4746e-05
5.85335e-07
3.60547e-07
1.28654e-06
3.72535e-07
5.85462e-07
3.60549e-07
1.286e-06
2.65671e-06
2.65727e-06
3.96692e-07
2.65628e-06
2.65685e-06
1.59601e-06
8.2362e-06
1.59645e-06
8.23584e-06
2.47459e-05
2.47454e-05
1.59586e-06
8.2373e-06
1.59625e-06
8.23691e-06
3.55666e-07
3.55667e-07
3.55666e-07
3.55662e-07
3.55663e-07
3.55665e-07
3.55664e-07
5.8531e-07
1.28661e-06
3.60546e-07
3.72528e-07
5.85432e-07
1.28604e-06
3.60548e-07
2.47467e-05
2.4746e-05
5.85336e-07
3.60547e-07
1.28654e-06
3.72535e-07
5.85462e-07
3.60549e-07
1.286e-06
2.65671e-06
2.65727e-06
3.96692e-07
2.65628e-06
2.65685e-06
1.59601e-06
8.2362e-06
1.59645e-06
8.23584e-06
2.47459e-05
2.47454e-05
1.59586e-06
8.2373e-06
1.59625e-06
8.23691e-06
3.55666e-07
3.55666e-07
3.55665e-07
5.8531e-07
1.28661e-06
3.60546e-07
3.72527e-07
5.85432e-07
1.28604e-06
3.60549e-07
2.47467e-05
2.47461e-05
5.85334e-07
3.60547e-07
1.28654e-06
3.72535e-07
5.85461e-07
3.6055e-07
1.28599e-06
2.6567e-06
2.65726e-06
3.96692e-07
2.6566e-06
2.65716e-06
2.47454e-05
2.47475e-05
3.96799e-07
2.65582e-06
2.65642e-06
2.47424e-05
2.47452e-05
2.47445e-05
2.47473e-05
3.97003e-07
2.65588e-06
2.65649e-06
2.6562e-06
2.65681e-06
1.59557e-06
8.23324e-06
5.85314e-07
3.727e-07
1.2856e-06
3.60727e-07
5.85315e-07
3.72703e-07
1.28572e-06
3.60728e-07
1.596e-06
8.2325e-06
8.23291e-06
1.59569e-06
1.59608e-06
8.23304e-06
8.23346e-06
1.59572e-06
5.85442e-07
3.727e-07
1.28567e-06
3.60726e-07
1.28614e-06
3.60726e-07
5.85334e-07
5.85444e-07
3.72703e-07
1.28579e-06
3.60727e-07
1.28627e-06
3.60727e-07
5.85334e-07
3.96792e-07
2.65635e-06
2.65573e-06
2.47436e-05
2.47439e-05
2.47467e-05
3.96997e-07
2.65645e-06
2.65595e-06
2.65676e-06
2.65624e-06
2.47406e-05
2.47438e-05
5.85324e-07
3.72691e-07
1.28584e-06
3.60727e-07
1.59561e-06
8.23399e-06
5.85322e-07
3.7271e-07
3.6073e-07
1.28595e-06
1.59602e-06
8.23384e-06
8.23427e-06
1.59561e-06
5.8545e-07
3.72691e-07
1.28591e-06
3.60727e-07
1.28638e-06
3.60727e-07
5.85344e-07
1.59601e-06
8.23378e-06
8.23424e-06
1.59559e-06
5.85449e-07
3.7271e-07
3.60729e-07
1.28601e-06
3.60729e-07
1.28653e-06
5.85338e-07
1.59554e-06
8.23293e-06
5.85317e-07
3.72702e-07
3.60728e-07
1.28566e-06
1.59554e-06
8.23371e-06
5.85438e-07
3.72686e-07
1.28575e-06
3.60725e-07
1.28626e-06
3.60726e-07
5.85328e-07
1.59602e-06
8.23273e-06
8.23318e-06
1.59569e-06
5.85442e-07
3.72702e-07
3.60727e-07
1.28573e-06
3.60727e-07
1.28621e-06
5.85335e-07
1.59601e-06
8.23351e-06
8.23393e-06
1.59569e-06
3.96806e-07
2.65661e-06
2.6559e-06
2.47467e-05
2.47442e-05
2.47473e-05
3.9701e-07
2.65672e-06
2.65596e-06
2.65706e-06
2.65629e-06
2.47437e-05
2.47465e-05
5.85322e-07
3.72692e-07
3.60728e-07
1.28578e-06
1.59557e-06
8.23385e-06
1.59557e-06
8.23423e-06
5.85452e-07
3.72693e-07
3.60726e-07
1.28572e-06
3.60726e-07
1.2862e-06
5.85336e-07
5.85456e-07
3.72692e-07
3.60727e-07
1.28585e-06
3.60727e-07
1.28633e-06
5.85342e-07
1.59597e-06
8.23365e-06
8.23407e-06
1.59557e-06
1.59598e-06
8.23403e-06
8.23445e-06
1.59558e-06
2.47469e-05
2.4748e-05
3.97006e-07
2.656e-06
2.65657e-06
2.65637e-06
2.65692e-06
2.47439e-05
2.47467e-05
2.47449e-05
2.47478e-05
2.47423e-05
2.47402e-05
2.47444e-05
2.47423e-05
2.65627e-06
2.65688e-06
3.96814e-07
2.65597e-06
2.65658e-06
2.47392e-05
2.47405e-05
2.47413e-05
2.47426e-05
3.97014e-07
2.65604e-06
2.65664e-06
2.65635e-06
2.65697e-06
1.59564e-06
8.23321e-06
1.5961e-06
8.23285e-06
5.8535e-07
1.28621e-06
3.60728e-07
3.72704e-07
5.85461e-07
1.28572e-06
3.60728e-07
5.85346e-07
1.28634e-06
3.6073e-07
3.72706e-07
5.85459e-07
1.28584e-06
3.6073e-07
1.59605e-06
8.23216e-06
8.2325e-06
1.59562e-06
1.59603e-06
8.2327e-06
8.23304e-06
1.59561e-06
5.85475e-07
3.72702e-07
1.28574e-06
3.60727e-07
1.28625e-06
3.60727e-07
5.85358e-07
5.85472e-07
3.72705e-07
1.28585e-06
3.60728e-07
1.28638e-06
3.60729e-07
5.85356e-07
2.65687e-06
2.65646e-06
3.96807e-07
2.65656e-06
2.65611e-06
2.47409e-05
2.47384e-05
2.47407e-05
2.4742e-05
3.97008e-07
2.65663e-06
2.6562e-06
2.65697e-06
2.65659e-06
2.47374e-05
2.47389e-05
5.85358e-07
1.28644e-06
3.60731e-07
3.72695e-07
5.85467e-07
1.28597e-06
3.60731e-07
1.5955e-06
8.23398e-06
1.59592e-06
8.23359e-06
5.85351e-07
3.60732e-07
1.28658e-06
3.72713e-07
5.85462e-07
3.60732e-07
1.28605e-06
1.59586e-06
8.23349e-06
8.23385e-06
1.59547e-06
5.8548e-07
3.72693e-07
1.28598e-06
3.60728e-07
1.28649e-06
3.60729e-07
5.85366e-07
1.59585e-06
8.23345e-06
8.23381e-06
1.59547e-06
5.85475e-07
3.72712e-07
3.6073e-07
1.28607e-06
3.60731e-07
1.28662e-06
5.85358e-07
1.59565e-06
8.23293e-06
1.59609e-06
8.23253e-06
5.85348e-07
3.60729e-07
1.28627e-06
3.72705e-07
5.85459e-07
3.60729e-07
1.28578e-06
1.59565e-06
8.23368e-06
1.59609e-06
8.23332e-06
5.85458e-07
3.72689e-07
1.28581e-06
3.60727e-07
1.28635e-06
3.60727e-07
5.85342e-07
1.59605e-06
8.23239e-06
8.23275e-06
1.59563e-06
5.85471e-07
3.72704e-07
3.60728e-07
1.28579e-06
3.60729e-07
1.28631e-06
5.85357e-07
1.59605e-06
8.23316e-06
8.23351e-06
1.59563e-06
2.65722e-06
2.65635e-06
3.96821e-07
2.65687e-06
2.65605e-06
2.47436e-05
2.47415e-05
2.4741e-05
2.47425e-05
3.97021e-07
2.65695e-06
2.65611e-06
2.65735e-06
2.65643e-06
2.47405e-05
2.47418e-05
5.85354e-07
3.6073e-07
1.28639e-06
3.72696e-07
5.85472e-07
3.6073e-07
1.2859e-06
1.59549e-06
8.23382e-06
1.59591e-06
8.23346e-06
1.59549e-06
8.2342e-06
1.59591e-06
8.23384e-06
5.85476e-07
3.72697e-07
3.60729e-07
1.28578e-06
3.60729e-07
1.2863e-06
5.85359e-07
5.85485e-07
3.72695e-07
3.60729e-07
1.28591e-06
3.60729e-07
1.28644e-06
5.85367e-07
1.59584e-06
8.23331e-06
8.23365e-06
1.59546e-06
1.59584e-06
8.23368e-06
8.23402e-06
1.59546e-06
2.47438e-05
2.47417e-05
2.47449e-05
2.47427e-05
3.97017e-07
2.65613e-06
2.6567e-06
2.65646e-06
2.65703e-06
2.47407e-05
2.4742e-05
2.47418e-05
2.4743e-05
2.47397e-05
2.4739e-05
2.47418e-05
2.4741e-05
2.6564e-06
2.65701e-06
3.96819e-07
2.65607e-06
2.65667e-06
2.47392e-05
2.47395e-05
2.47412e-05
2.47416e-05
3.9702e-07
2.65602e-06
2.65663e-06
2.65644e-06
2.65705e-06
1.59559e-06
8.23289e-06
1.59601e-06
8.2326e-06
5.85352e-07
1.28625e-06
3.60728e-07
3.72705e-07
5.8548e-07
1.28573e-06
3.60727e-07
5.85349e-07
1.28638e-06
3.60728e-07
3.72707e-07
5.85478e-07
1.28584e-06
3.60726e-07
1.596e-06
8.23204e-06
8.23226e-06
1.59558e-06
1.596e-06
8.23258e-06
8.23281e-06
1.59558e-06
5.85472e-07
3.72703e-07
1.28572e-06
3.60722e-07
1.28625e-06
3.60723e-07
5.85345e-07
5.8547e-07
3.72705e-07
1.28584e-06
3.60722e-07
1.28637e-06
3.60722e-07
5.85344e-07
2.65701e-06
2.65665e-06
3.96813e-07
2.65666e-06
2.65623e-06
2.47381e-05
2.47371e-05
2.47406e-05
2.4741e-05
3.97014e-07
2.65662e-06
2.65619e-06
2.65705e-06
2.65669e-06
2.47374e-05
2.47379e-05
5.85355e-07
1.28649e-06
3.60727e-07
3.72695e-07
5.85484e-07
1.28597e-06
3.60726e-07
1.59545e-06
8.23368e-06
1.59582e-06
8.23336e-06
5.85353e-07
3.6073e-07
1.28663e-06
3.72715e-07
5.85479e-07
3.60728e-07
1.28607e-06
1.5958e-06
8.23337e-06
8.23361e-06
1.59543e-06
5.85473e-07
3.72693e-07
1.28596e-06
3.60723e-07
1.28648e-06
3.60723e-07
5.85347e-07
1.59581e-06
8.23335e-06
8.23361e-06
1.59544e-06
5.85472e-07
3.72713e-07
3.60725e-07
1.28606e-06
3.60725e-07
1.28663e-06
5.85347e-07
1.59561e-06
8.23261e-06
1.59603e-06
8.23229e-06
5.85352e-07
3.60728e-07
1.28631e-06
3.72706e-07
5.85477e-07
3.60726e-07
1.28578e-06
1.59561e-06
8.23336e-06
1.59603e-06
8.23306e-06
5.85462e-07
3.72689e-07
1.2858e-06
3.60722e-07
1.28636e-06
3.60723e-07
5.85342e-07
1.59601e-06
8.23228e-06
8.23254e-06
1.5956e-06
5.85471e-07
3.72704e-07
3.60722e-07
1.28577e-06
3.60722e-07
1.2863e-06
5.85348e-07
1.59602e-06
8.23304e-06
8.23328e-06
1.5956e-06
2.65741e-06
2.65648e-06
3.96825e-07
2.65698e-06
2.65613e-06
2.47409e-05
2.47402e-05
2.4741e-05
2.47415e-05
3.97025e-07
2.65694e-06
2.65609e-06
2.65744e-06
2.65651e-06
2.47404e-05
2.47408e-05
5.85356e-07
3.60728e-07
1.28644e-06
3.72697e-07
5.85492e-07
3.60727e-07
1.2859e-06
1.59543e-06
8.2335e-06
1.59581e-06
8.23321e-06
1.59543e-06
8.23387e-06
1.59582e-06
8.23357e-06
5.85473e-07
3.72696e-07
3.60723e-07
1.28576e-06
3.60724e-07
1.28629e-06
5.85341e-07
5.85477e-07
3.72695e-07
3.60723e-07
1.28589e-06
3.60723e-07
1.28643e-06
5.85345e-07
1.59579e-06
8.23318e-06
8.23342e-06
1.59541e-06
1.5958e-06
8.23355e-06
8.23378e-06
1.59542e-06
2.47412e-05
2.47404e-05
2.47422e-05
2.47415e-05
3.97022e-07
2.65611e-06
2.65668e-06
2.65653e-06
2.6571e-06
2.47406e-05
2.4741e-05
2.47417e-05
2.47421e-05
2.47401e-05
2.47412e-05
2.47422e-05
2.47432e-05
2.65637e-06
2.65699e-06
3.96817e-07
2.65619e-06
2.6568e-06
2.47443e-05
2.47426e-05
2.47464e-05
2.47447e-05
3.97017e-07
2.65656e-06
2.65717e-06
2.6567e-06
2.65732e-06
1.59569e-06
8.23285e-06
1.59598e-06
8.23309e-06
5.85361e-07
1.28625e-06
3.60722e-07
3.72699e-07
5.85468e-07
1.28583e-06
3.6072e-07
5.85359e-07
1.28637e-06
3.60722e-07
3.72701e-07
5.85467e-07
1.28594e-06
3.6072e-07
1.59623e-06
8.23493e-06
8.23318e-06
1.59609e-06
1.59622e-06
8.23544e-06
8.23364e-06
1.59609e-06
5.85494e-07
3.72692e-07
1.28604e-06
3.60691e-07
1.28642e-06
3.60712e-07
5.8538e-07
5.85493e-07
3.72694e-07
1.28615e-06
3.60691e-07
1.28655e-06
3.60713e-07
5.85378e-07
2.65699e-06
2.65664e-06
3.96811e-07
2.65678e-06
2.65637e-06
2.47386e-05
2.47395e-05
2.47457e-05
2.47441e-05
3.97011e-07
2.65715e-06
2.65675e-06
2.65731e-06
2.65697e-06
2.47425e-05
2.47412e-05
5.85365e-07
1.28649e-06
3.60722e-07
3.72689e-07
5.85467e-07
1.28607e-06
3.60721e-07
1.59554e-06
8.23366e-06
1.59578e-06
8.23386e-06
5.85363e-07
3.60724e-07
1.28663e-06
3.72709e-07
5.85469e-07
3.60722e-07
1.28617e-06
1.59603e-06
8.23624e-06
8.23456e-06
1.59594e-06
5.85495e-07
3.72683e-07
1.28628e-06
3.60692e-07
1.28666e-06
3.60713e-07
5.85384e-07
1.59603e-06
8.23617e-06
8.23448e-06
1.59595e-06
5.85495e-07
3.72702e-07
3.60694e-07
1.28639e-06
3.60715e-07
1.28681e-06
5.85381e-07
1.5957e-06
8.23259e-06
1.59599e-06
8.23279e-06
5.85364e-07
3.60722e-07
1.2863e-06
3.727e-07
5.85469e-07
3.6072e-07
1.28588e-06
1.5957e-06
8.23332e-06
1.59599e-06
8.23356e-06
5.85491e-07
3.72678e-07
1.28613e-06
3.6069e-07
1.28654e-06
3.60711e-07
5.85378e-07
1.59624e-06
8.23513e-06
8.23342e-06
1.59611e-06
5.85494e-07
3.72694e-07
3.60691e-07
1.28609e-06
3.60713e-07
1.28648e-06
5.85382e-07
1.59624e-06
8.23591e-06
8.2341e-06
1.59611e-06
2.65739e-06
2.65644e-06
3.96825e-07
2.65712e-06
2.65626e-06
2.47414e-05
2.47424e-05
2.4746e-05
2.47448e-05
3.97024e-07
2.65748e-06
2.65663e-06
2.65771e-06
2.65677e-06
2.47455e-05
2.47438e-05
5.85361e-07
3.60722e-07
1.28643e-06
3.72691e-07
5.8547e-07
3.6072e-07
1.286e-06
1.59552e-06
8.23346e-06
1.59576e-06
8.23369e-06
1.59552e-06
8.23382e-06
1.59577e-06
8.23406e-06
5.85498e-07
3.72685e-07
3.60691e-07
1.28608e-06
3.60713e-07
1.28646e-06
5.85384e-07
5.85501e-07
3.72684e-07
3.60692e-07
1.28621e-06
3.60713e-07
1.2866e-06
5.85388e-07
1.59601e-06
8.23603e-06
8.23423e-06
1.59593e-06
1.59601e-06
8.23642e-06
8.23461e-06
1.59593e-06
2.47416e-05
2.47426e-05
2.47427e-05
2.47437e-05
3.97021e-07
2.65665e-06
2.65722e-06
2.6568e-06
2.65736e-06
2.47458e-05
2.47441e-05
2.47468e-05
2.47451e-05
2.47451e-05
2.47445e-05
2.47471e-05
2.47466e-05
2.65695e-06
2.65756e-06
3.9673e-07
2.65639e-06
2.65699e-06
2.47443e-05
2.4745e-05
2.47464e-05
2.47471e-05
3.96914e-07
2.65623e-06
2.65684e-06
2.6567e-06
2.65731e-06
1.59613e-06
8.23653e-06
1.59658e-06
8.23663e-06
5.85338e-07
1.28659e-06
3.60645e-07
3.72593e-07
5.85496e-07
1.28603e-06
3.60605e-07
5.85337e-07
1.28672e-06
3.60645e-07
3.72595e-07
5.85495e-07
1.28616e-06
3.60605e-07
1.59651e-06
8.23592e-06
8.23621e-06
1.59604e-06
1.59652e-06
8.23656e-06
8.23684e-06
1.59605e-06
5.85453e-07
3.72564e-07
1.28597e-06
3.60555e-07
1.28654e-06
3.60573e-07
5.85316e-07
5.85452e-07
3.72566e-07
1.28609e-06
3.60555e-07
1.28667e-06
3.60573e-07
5.85315e-07
2.65756e-06
2.65724e-06
3.96723e-07
2.65698e-06
2.65661e-06
2.47436e-05
2.47428e-05
2.47457e-05
2.47464e-05
3.96908e-07
2.65681e-06
2.65639e-06
2.6573e-06
2.657e-06
2.47426e-05
2.47435e-05
5.85339e-07
1.28683e-06
3.60645e-07
3.72583e-07
5.85499e-07
1.28627e-06
3.60606e-07
1.59598e-06
8.2373e-06
1.59638e-06
8.23743e-06
5.8534e-07
3.60647e-07
1.28698e-06
3.72603e-07
5.85496e-07
3.60608e-07
1.28639e-06
1.5963e-06
8.23726e-06
8.23756e-06
1.59589e-06
5.85454e-07
3.72554e-07
1.28621e-06
3.60556e-07
1.28677e-06
3.60574e-07
5.85318e-07
1.59632e-06
8.23734e-06
8.23767e-06
1.59591e-06
5.85454e-07
3.72573e-07
3.60557e-07
1.28632e-06
3.60575e-07
1.28694e-06
5.85319e-07
1.59615e-06
8.23625e-06
1.59659e-06
8.23636e-06
5.85341e-07
3.60645e-07
1.28665e-06
3.72594e-07
5.85496e-07
3.60605e-07
1.28609e-06
1.59614e-06
8.23701e-06
1.59659e-06
8.2371e-06
5.8545e-07
3.7255e-07
1.28607e-06
3.60554e-07
1.28667e-06
3.60573e-07
5.85314e-07
1.59654e-06
8.23628e-06
8.2366e-06
1.59607e-06
5.85454e-07
3.72565e-07
3.60555e-07
1.28603e-06
3.60573e-07
1.2866e-06
5.85319e-07
1.59654e-06
8.23703e-06
8.23731e-06
1.59607e-06
2.65797e-06
2.65702e-06
3.96737e-07
2.65733e-06
2.65646e-06
2.47463e-05
2.47458e-05
2.47461e-05
2.47471e-05
3.9692e-07
2.65714e-06
2.6563e-06
2.65772e-06
2.65678e-06
2.47456e-05
2.47463e-05
5.85344e-07
3.60645e-07
1.28678e-06
3.72585e-07
5.85508e-07
3.60606e-07
1.28621e-06
1.59596e-06
8.23714e-06
1.59637e-06
8.23724e-06
1.59596e-06
8.23752e-06
1.59637e-06
8.23762e-06
5.85458e-07
3.72557e-07
3.60555e-07
1.28602e-06
3.60574e-07
1.28659e-06
5.85316e-07
5.85462e-07
3.72556e-07
3.60556e-07
1.28615e-06
3.60573e-07
1.28673e-06
5.85322e-07
1.59631e-06
8.23717e-06
8.23745e-06
1.59589e-06
1.59631e-06
8.23754e-06
8.23783e-06
1.59589e-06
2.47465e-05
2.4746e-05
2.47476e-05
2.4747e-05
3.96917e-07
2.65632e-06
2.65689e-06
2.6568e-06
2.65736e-06
2.47458e-05
2.47465e-05
2.47468e-05
2.47476e-05
2.47449e-05
2.47442e-05
2.47469e-05
2.47463e-05
2.65659e-06
2.6572e-06
3.96679e-07
2.6562e-06
2.65681e-06
2.47442e-05
2.47448e-05
2.47462e-05
2.47468e-05
3.96881e-07
2.65619e-06
2.6568e-06
2.65656e-06
2.65718e-06
1.59602e-06
8.23676e-06
1.59645e-06
8.23651e-06
5.8531e-07
1.28648e-06
3.60551e-07
3.72542e-07
5.85436e-07
1.28595e-06
3.60549e-07
5.85309e-07
1.28662e-06
3.60551e-07
3.72545e-07
5.85435e-07
1.28607e-06
3.6055e-07
1.59643e-06
8.23584e-06
8.23608e-06
1.59601e-06
1.59643e-06
8.23649e-06
8.23673e-06
1.59602e-06
5.85432e-07
3.7254e-07
1.28594e-06
3.60547e-07
1.28647e-06
3.60547e-07
5.85311e-07
5.85431e-07
3.72543e-07
1.28607e-06
3.60548e-07
1.28661e-06
3.60548e-07
5.8531e-07
2.65718e-06
2.65683e-06
3.96673e-07
2.65678e-06
2.65635e-06
2.47433e-05
2.47425e-05
2.47457e-05
2.47462e-05
3.96875e-07
2.65677e-06
2.65635e-06
2.65716e-06
2.65681e-06
2.47425e-05
2.47433e-05
5.85313e-07
1.28672e-06
3.60551e-07
3.72533e-07
5.85436e-07
1.28619e-06
3.6055e-07
1.59588e-06
8.23758e-06
1.59626e-06
8.23729e-06
5.85313e-07
3.60553e-07
1.28688e-06
3.72552e-07
5.85438e-07
3.60552e-07
1.2863e-06
1.59623e-06
8.23708e-06
8.23744e-06
1.59586e-06
5.85432e-07
3.72531e-07
1.28618e-06
3.60547e-07
1.2867e-06
3.60547e-07
5.85314e-07
1.59624e-06
8.23726e-06
8.23753e-06
1.59588e-06
5.85434e-07
3.7255e-07
3.6055e-07
1.2863e-06
3.6055e-07
1.28686e-06
5.85314e-07
1.59604e-06
8.23651e-06
1.59647e-06
8.23622e-06
5.85314e-07
3.60551e-07
1.28655e-06
3.72544e-07
5.85437e-07
3.6055e-07
1.28601e-06
1.59604e-06
8.23724e-06
1.59647e-06
8.23698e-06
5.8543e-07
3.72528e-07
1.28604e-06
3.60547e-07
1.2866e-06
3.60548e-07
5.8531e-07
1.59645e-06
8.23621e-06
8.23647e-06
1.59604e-06
5.85434e-07
3.72542e-07
3.60548e-07
1.286e-06
3.60548e-07
1.28654e-06
5.85315e-07
1.59645e-06
8.23697e-06
8.2372e-06
1.59604e-06
2.65758e-06
2.65667e-06
3.96686e-07
2.6571e-06
2.65627e-06
2.47461e-05
2.47455e-05
2.4746e-05
2.47468e-05
3.96888e-07
2.65709e-06
2.65626e-06
2.65756e-06
2.65664e-06
2.47455e-05
2.47461e-05
5.85318e-07
3.60552e-07
1.28668e-06
3.72535e-07
5.85444e-07
3.6055e-07
1.28613e-06
1.59586e-06
8.23738e-06
1.59625e-06
8.23713e-06
1.59587e-06
8.23775e-06
1.59625e-06
8.23749e-06
5.85437e-07
3.72535e-07
3.60548e-07
1.286e-06
3.60549e-07
1.28653e-06
5.85312e-07
5.85442e-07
3.72533e-07
3.60548e-07
1.28613e-06
3.60548e-07
1.28666e-06
5.85317e-07
1.59623e-06
8.23711e-06
8.23734e-06
1.59586e-06
1.59623e-06
8.23747e-06
8.2377e-06
1.59586e-06
2.47463e-05
2.47457e-05
2.47474e-05
2.47468e-05
3.96885e-07
2.65629e-06
2.65686e-06
2.65667e-06
2.65723e-06
2.47457e-05
2.47463e-05
2.47467e-05
2.47473e-05
2.47448e-05
2.47442e-05
2.47468e-05
2.47462e-05
2.65656e-06
2.65717e-06
3.96692e-07
2.65619e-06
2.6568e-06
2.47442e-05
2.47448e-05
2.47462e-05
2.47468e-05
3.96891e-07
2.65619e-06
2.6568e-06
2.65656e-06
2.65717e-06
1.59602e-06
8.23671e-06
1.59643e-06
8.23649e-06
5.85312e-07
1.28647e-06
3.6055e-07
3.72543e-07
5.85434e-07
1.28594e-06
3.6055e-07
5.85311e-07
1.2866e-06
3.60551e-07
3.72546e-07
5.85433e-07
1.28607e-06
3.6055e-07
1.59643e-06
8.23584e-06
8.23606e-06
1.59601e-06
1.59643e-06
8.23646e-06
8.23671e-06
1.59602e-06
5.85434e-07
3.7254e-07
1.28594e-06
3.60547e-07
1.28647e-06
3.60547e-07
5.85311e-07
5.85433e-07
3.72543e-07
1.28606e-06
3.60547e-07
1.2866e-06
3.60547e-07
5.8531e-07
2.65716e-06
2.65681e-06
3.96686e-07
2.65677e-06
2.65634e-06
2.47433e-05
2.47425e-05
2.47454e-05
2.47462e-05
3.96885e-07
2.65685e-06
2.65634e-06
2.65715e-06
2.65681e-06
2.47425e-05
2.47433e-05
5.85316e-07
1.28675e-06
3.60551e-07
3.72534e-07
5.85434e-07
1.2862e-06
3.60551e-07
1.59587e-06
8.23751e-06
1.59624e-06
8.23726e-06
5.85315e-07
3.60553e-07
1.28686e-06
3.72553e-07
5.85436e-07
3.60553e-07
1.2863e-06
1.59623e-06
8.23699e-06
8.23726e-06
1.59586e-06
5.85435e-07