/*--------------------------------*- C++ -*----------------------------------*\
| =========                 |                                                 |
| \\      /  F ield         | OpenFOAM: The Open Source CFD Toolbox           |
|  \\    /   O peration     | Version:  2206                                  |
|   \\  /    A nd           | Website:  www.openfoam.com                      |
|    \\/     M anipulation  |                                                 |
\*---------------------------------------------------------------------------*/
FoamFile
{
    version     2.0;
    format      ascii;
    arch        "LSB;label=32;scalar=64";
    class       volScalarField;
    location    "17";
    object      nut;
}
// * * * * * * * * * * * * * * * * * * * * * * * * * * * * * * * * * * * * * //

dimensions      [0 2 -1 0 0 0 0];

internalField   nonuniform List<scalar> 
28335
(
0.000228382
0.000215192
0.000215187
0.000198346
0.000228382
0.000215189
0.000215184
0.000198346
0.000228381
0.000215187
0.000215182
0.000198342
0.000228355
0.000215145
0.00021514
0.000198272
0.000228365
0.000215142
0.000215137
0.00019827
0.000228366
0.000215143
0.000215138
0.000198264
0.000228366
0.000215143
0.000215138
0.000198268
0.000228366
0.000215143
0.000215138
0.000198266
0.000228366
0.000215143
0.000215138
0.000198266
0.000228366
0.000215143
0.000215139
0.000198266
0.000228366
0.000215143
0.000215139
0.000198266
0.000228366
0.000215143
0.000215138
0.000198266
0.000228366
0.000215143
0.000215138
0.000198266
0.000228366
0.000215143
0.000215138
0.000198266
0.000228366
0.000215143
0.000215138
0.000198266
0.000228366
0.000215143
0.000215138
0.000198266
0.000228366
0.000215143
0.000215138
0.000198266
0.000198477
0.000215182
0.00021518
0.000198479
0.000215189
0.000215175
0.000215192
0.000215181
0.000198471
0.000215187
0.000215188
0.000198472
0.000198353
0.000198474
0.000215182
0.00021518
0.000215182
0.00021518
0.000198356
0.000198476
0.000215189
0.000215174
0.000215189
0.000215175
0.000215181
0.000215189
0.000215181
0.000198348
0.000198468
0.000215188
0.000215184
0.000215187
0.000198471
0.000198351
0.000198472
0.000215184
0.00021518
0.000215182
0.00021518
0.000198353
0.000198475
0.000215189
0.000215176
0.000215189
0.000215174
0.000215181
0.000215188
0.00021518
0.000198346
0.000198466
0.000215187
0.000215183
0.000215187
0.000198469
0.000198349
0.000198422
0.00021518
0.000215178
0.000215149
0.000215147
0.000198351
0.000198425
0.000215187
0.000215172
0.000215156
0.000215142
0.000215178
0.00021516
0.000215149
0.000198342
0.000198417
0.000215185
0.000215156
0.000215156
0.00019842
0.000198278
0.000198395
0.000215134
0.000215133
0.00021513
0.000215128
0.000198281
0.000198398
0.000215142
0.000215127
0.000215137
0.000215122
0.000215134
0.00021514
0.000215129
0.000198273
0.000198389
0.000215141
0.000215135
0.000215136
0.000198394
0.000198274
0.000198393
0.000215133
0.000215131
0.000215133
0.000215131
0.000198277
0.000198396
0.00021514
0.000215125
0.00021514
0.000215125
0.000215132
0.000215143
0.000215132
0.000198268
0.000198387
0.000215138
0.000215138
0.000215139
0.000198391
0.000198268
0.000198395
0.000215133
0.000215131
0.000215133
0.000215132
0.000198271
0.000198398
0.00021514
0.000215125
0.00021514
0.000215126
0.000215132
0.000215144
0.000215132
0.000198262
0.000198389
0.000215139
0.000215139
0.000215139
0.000198393
0.000198272
0.000198393
0.000215134
0.000215132
0.000215133
0.000215132
0.000198275
0.000198396
0.000215141
0.000215126
0.00021514
0.000215126
0.000215133
0.000215144
0.000215132
0.000198266
0.000198387
0.00021514
0.000215139
0.000215139
0.000198391
0.000198271
0.000198394
0.000215134
0.000215132
0.000215133
0.000215132
0.000198273
0.000198397
0.000215141
0.000215126
0.00021514
0.000215126
0.000215133
0.000215144
0.000215132
0.000198265
0.000198388
0.00021514
0.000215139
0.000215139
0.000198391
0.000198271
0.000198394
0.000215134
0.000215132
0.000215133
0.000215132
0.000198273
0.000198397
0.000215141
0.000215126
0.00021514
0.000215126
0.000215133
0.000215144
0.000215132
0.000198265
0.000198388
0.00021514
0.000215139
0.000215139
0.000198391
0.000198271
0.000198394
0.000215134
0.000215132
0.000215133
0.000215132
0.000198274
0.000198397
0.000215141
0.000215126
0.00021514
0.000215126
0.000215133
0.000215144
0.000215132
0.000198265
0.000198388
0.00021514
0.000215139
0.000215139
0.000198392
0.000198271
0.000198394
0.000215134
0.000215132
0.000215133
0.000215132
0.000198274
0.000198397
0.000215141
0.000215126
0.00021514
0.000215126
0.000215133
0.000215144
0.000215132
0.000198265
0.000198388
0.00021514
0.000215139
0.000215139
0.000198392
0.000198271
0.000198394
0.000215134
0.000215132
0.000215133
0.000215132
0.000198274
0.000198397
0.000215141
0.000215126
0.00021514
0.000215126
0.000215133
0.000215144
0.000215132
0.000198265
0.000198388
0.00021514
0.000215139
0.000215139
0.000198392
0.000198271
0.000198394
0.000215134
0.000215132
0.000215133
0.000215132
0.000198274
0.000198397
0.000215141
0.000215126
0.00021514
0.000215126
0.000215133
0.000215144
0.000215132
0.000198265
0.000198388
0.00021514
0.000215139
0.000215139
0.000198391
0.000198271
0.000198394
0.000215134
0.000215132
0.000215133
0.000215132
0.000198274
0.000198397
0.000215141
0.000215126
0.00021514
0.000215126
0.000215133
0.000215144
0.000215132
0.000198265
0.000198388
0.00021514
0.000215139
0.000215139
0.000198392
0.000198271
0.000198394
0.000215134
0.000215132
0.000215133
0.000215132
0.000198274
0.000198397
0.000215141
0.000215126
0.00021514
0.000215126
0.000215133
0.000215144
0.000215132
0.000198265
0.000198388
0.00021514
0.000215139
0.000215139
0.000198392
0.000198271
0.000198394
0.000215134
0.000215132
0.000215133
0.000215132
0.000198274
0.000198397
0.000215141
0.000215126
0.00021514
0.000215126
0.000215133
0.000215144
0.000215132
0.000198266
0.000198388
0.00021514
0.000215139
0.000215139
0.000198392
0.000198271
0.000215134
0.000215132
0.000198274
0.000215141
0.000215126
0.000215132
0.000198266
0.000215139
5.39753e-05
4.82929e-05
2.60457e-05
5.39731e-05
4.82889e-05
0.000228382
0.000228383
0.000228382
0.000228383
0.000128951
0.000215193
6.54983e-05
0.000224273
2.60432e-05
0.00012895
0.000215188
0.000224272
6.55014e-05
0.000198477
3.73538e-05
3.73469e-05
5.39777e-05
4.82932e-05
5.39633e-05
4.82922e-05
2.60446e-05
2.60438e-05
5.39849e-05
4.82892e-05
5.39702e-05
4.82881e-05
0.000228382
0.00022838
0.000228381
0.000228382
0.000228381
0.000228379
0.000228381
0.000128948
6.54805e-05
0.000224272
0.000215189
0.000128919
6.54992e-05
0.00022427
2.60422e-05
2.60414e-05
0.000128947
0.000224271
6.54831e-05
0.000215184
0.000128917
0.000224268
6.55002e-05
3.73602e-05
3.73533e-05
0.000198471
3.7368e-05
3.73609e-05
5.39862e-05
4.82925e-05
5.3974e-05
4.82916e-05
2.60436e-05
2.60434e-05
5.39938e-05
4.82885e-05
5.39825e-05
4.82876e-05
0.000228381
0.00022838
0.000228381
0.000228382
0.000228382
0.00022838
0.000228381
0.000128953
6.54812e-05
0.00022427
0.000215189
0.000128924
6.55026e-05
0.000224271
2.60412e-05
2.6041e-05
0.000128955
0.000224268
6.54837e-05
0.000215184
0.00012892
0.00022427
6.5505e-05
3.73706e-05
3.73635e-05
0.000198472
3.73766e-05
3.73695e-05
5.39796e-05
4.82924e-05
5.39771e-05
4.82927e-05
2.60437e-05
2.60441e-05
5.39872e-05
4.82884e-05
5.39857e-05
4.82886e-05
0.000228381
0.00022838
0.00022838
0.00022836
0.00022836
0.000228359
0.000228359
0.000128943
6.54854e-05
0.00022427
0.000215185
0.000128927
6.54973e-05
0.000224268
2.60414e-05
2.60417e-05
0.000128944
0.000224269
6.54888e-05
0.00021518
0.000128925
0.000224267
6.55e-05
3.73752e-05
3.73681e-05
0.000198462
3.7374e-05
3.73668e-05
5.39359e-05
4.82992e-05
5.39416e-05
4.82993e-05
2.60454e-05
2.60453e-05
5.39424e-05
4.82951e-05
5.39493e-05
4.82952e-05
0.000228356
0.000228354
0.000228355
0.000228362
0.000228363
0.000228362
0.000228362
0.000128846
6.54486e-05
0.000224235
0.000215138
0.000128853
6.54526e-05
0.000224234
2.60431e-05
2.60429e-05
0.000128846
0.000224234
6.54519e-05
0.000215134
0.000128851
0.000224233
6.54553e-05
3.73577e-05
3.73505e-05
0.000198389
3.73478e-05
3.73406e-05
5.39295e-05
4.82998e-05
5.39201e-05
4.8299e-05
2.60454e-05
2.60452e-05
5.39374e-05
4.82958e-05
5.39289e-05
4.8295e-05
0.000228366
0.000228365
0.000228365
0.000228366
0.000228367
0.000228365
0.000228366
0.000128847
6.54247e-05
0.000224242
0.000215143
0.000128818
6.5443e-05
0.000224243
2.6043e-05
2.60428e-05
0.000128847
0.000224241
6.54287e-05
0.000215138
0.000128818
0.000224242
6.54462e-05
3.7341e-05
3.73339e-05
0.000198396
3.73443e-05
3.73371e-05
5.39294e-05
4.82997e-05
5.39196e-05
4.8299e-05
2.60453e-05
2.60452e-05
5.39374e-05
4.82958e-05
5.39285e-05
4.8295e-05
0.000228367
0.000228365
0.000228366
0.000228367
0.000228367
0.000228365
0.000228366
0.000128847
6.54236e-05
0.000224242
0.000215143
0.000128818
6.54427e-05
0.000224243
2.6043e-05
2.60428e-05
0.000128847
0.000224242
6.54276e-05
0.000215139
0.000128818
0.000224242
6.54459e-05
3.73409e-05
3.73337e-05
0.000198389
3.73443e-05
3.73371e-05
5.39294e-05
4.82997e-05
5.39196e-05
4.8299e-05
2.60455e-05
2.60453e-05
5.39374e-05
4.82956e-05
5.39285e-05
4.82948e-05
0.000228367
0.000228366
0.000228366
0.000228366
0.000228367
0.000228365
0.000228366
0.000128847
6.54236e-05
0.000224243
0.000215144
0.000128818
6.54428e-05
0.000224243
2.6043e-05
2.60428e-05
0.000128848
0.000224242
6.54276e-05
0.000215139
0.000128818
0.000224242
6.5446e-05
3.73409e-05
3.73337e-05
0.000198392
3.73443e-05
3.73371e-05
5.39294e-05
4.82997e-05
5.39196e-05
4.8299e-05
2.60455e-05
2.60453e-05
5.39374e-05
4.82956e-05
5.39285e-05
4.82948e-05
0.000228367
0.000228365
0.000228366
0.000228366
0.000228367
0.000228365
0.000228366
0.000128847
6.54236e-05
0.000224243
0.000215144
0.000128818
6.54428e-05
0.000224243
2.6043e-05
2.60428e-05
0.000128847
0.000224242
6.54276e-05
0.000215139
0.000128817
0.000224242
6.5446e-05
3.73409e-05
3.73337e-05
0.000198392
3.73443e-05
3.73371e-05
5.39294e-05
4.82997e-05
5.39196e-05
4.8299e-05
2.60455e-05
2.60453e-05
5.39374e-05
4.82955e-05
5.39285e-05
4.82947e-05
0.000228367
0.000228365
0.000228366
0.000228366
0.000228367
0.000228365
0.000228366
0.000128847
6.54236e-05
0.000224243
0.000215144
0.000128818
6.54427e-05
0.000224243
2.6043e-05
2.60428e-05
0.000128847
0.000224242
6.54276e-05
0.000215139
0.000128817
0.000224242
6.5446e-05
3.73409e-05
3.73337e-05
0.000198392
3.73443e-05
3.73371e-05
5.39294e-05
4.82997e-05
5.39196e-05
4.8299e-05
2.60455e-05
2.60453e-05
5.39374e-05
4.82955e-05
5.39285e-05
4.82947e-05
0.000228367
0.000228366
0.000228366
0.000228366
0.000228367
0.000228365
0.000228366
0.000128847
6.54236e-05
0.000224243
0.000215144
0.000128818
6.54427e-05
0.000224243
2.6043e-05
2.60428e-05
0.000128846
0.000224242
6.54276e-05
0.000215139
0.000128817
0.000224242
6.5446e-05
3.73409e-05
3.73337e-05
0.000198392
3.73443e-05
3.73371e-05
5.39294e-05
4.82997e-05
5.39196e-05
4.8299e-05
2.60455e-05
2.60453e-05
5.39374e-05
4.82955e-05
5.39285e-05
4.82947e-05
0.000228367
0.000228366
0.000228366
0.000228366
0.000228367
0.000228365
0.000228366
0.000128847
6.54236e-05
0.000224243
0.000215144
0.000128818
6.54427e-05
0.000224243
2.6043e-05
2.60428e-05
0.000128846
0.000224242
6.54276e-05
0.000215139
0.000128817
0.000224242
6.5446e-05
3.73409e-05
3.73338e-05
0.000198392
3.73443e-05
3.73371e-05
5.39294e-05
4.82997e-05
5.39196e-05
4.8299e-05
2.60455e-05
2.60453e-05
5.39374e-05
4.82955e-05
5.39285e-05
4.82947e-05
0.000228367
0.000228365
0.000228366
0.000228366
0.000228367
0.000228365
0.000228366
0.000128847
6.54236e-05
0.000224243
0.000215144
0.000128818
6.54427e-05
0.000224243
2.6043e-05
2.60428e-05
0.000128845
0.000224242
6.54276e-05
0.000215139
0.000128816
0.000224242
6.5446e-05
3.73409e-05
3.73337e-05
0.000198392
3.73443e-05
3.73371e-05
5.39294e-05
4.82997e-05
5.39196e-05
4.8299e-05
2.60455e-05
2.60453e-05
5.39374e-05
4.82955e-05
5.39285e-05
4.82947e-05
0.000228367
0.000228365
0.000228366
0.000228366
0.000228367
0.000228365
0.000228366
0.000128847
6.54236e-05
0.000224243
0.000215144
0.000128818
6.54427e-05
0.000224243
2.6043e-05
2.60428e-05
0.000128843
0.000224242
6.54276e-05
0.000215139
0.000128814
0.000224242
6.5446e-05
3.73409e-05
3.73338e-05
0.000198392
3.73443e-05
3.73371e-05
5.39294e-05
4.82997e-05
5.39195e-05
4.8299e-05
2.60455e-05
2.60453e-05
5.39374e-05
4.82955e-05
5.39285e-05
4.82947e-05
0.000228367
0.000228365
0.000228366
0.000228366
0.000228367
0.000228365
0.000228366
0.000128847
6.54236e-05
0.000224243
0.000215144
0.000128818
6.54428e-05
0.000224243
2.6043e-05
2.60428e-05
0.00012884
0.000224242
6.54276e-05
0.000215139
0.000128812
0.000224242
6.54459e-05
3.73409e-05
3.73337e-05
0.000198392
3.73443e-05
3.73371e-05
5.39294e-05
4.82997e-05
5.39195e-05
4.8299e-05
2.60455e-05
2.60453e-05
5.39374e-05
4.82955e-05
5.39285e-05
4.82947e-05
0.000228367
0.000228365
0.000228366
0.000228366
0.000228367
0.000228365
0.000228366
0.000128847
6.54236e-05
0.000224243
0.000215144
0.000128818
6.54427e-05
0.000224243
2.6043e-05
2.60428e-05
0.00012884
0.000224242
6.54275e-05
0.000215139
0.00012881
0.000224242
6.54459e-05
3.73409e-05
3.73337e-05
0.000198392
3.73443e-05
3.73371e-05
5.39294e-05
4.82997e-05
5.39196e-05
4.8299e-05
2.60455e-05
2.60453e-05
5.39374e-05
4.82955e-05
5.39285e-05
4.82947e-05
0.000228367
0.000228366
0.000228366
0.000228366
0.000228367
0.000228365
0.000228366
0.000128847
6.54236e-05
0.000224243
0.000215144
0.000128818
6.54428e-05
0.000224243
2.6043e-05
2.60428e-05
0.00012884
0.000224242
6.54275e-05
0.000215139
0.000128811
0.000224242
6.54459e-05
3.73409e-05
3.73337e-05
0.000198392
3.73443e-05
3.73371e-05
5.39294e-05
4.82997e-05
5.39196e-05
4.8299e-05
2.60455e-05
2.60453e-05
5.39374e-05
4.82955e-05
5.39285e-05
4.82947e-05
0.000228367
0.000228365
0.000228366
0.00012885
6.54236e-05
0.000224243
0.000215143
0.000128818
6.54428e-05
0.000224244
2.6043e-05
2.60428e-05
0.000128843
0.000224242
6.54275e-05
0.000215139
0.00012881
0.000224242
6.5447e-05
3.73409e-05
3.73338e-05
0.000198395
3.73394e-05
3.73323e-05
2.60468e-05
2.6045e-05
0.000198482
3.73567e-05
3.73483e-05
2.60458e-05
2.60468e-05
2.6044e-05
2.60449e-05
0.000198356
3.73643e-05
3.73559e-05
3.73562e-05
3.73477e-05
5.39736e-05
4.82924e-05
0.000128952
0.000215183
6.55042e-05
0.000224272
0.000128954
0.000215181
6.55007e-05
0.000224272
5.39658e-05
4.82925e-05
4.82933e-05
5.39721e-05
5.3963e-05
4.8292e-05
4.82928e-05
5.39715e-05
0.000128927
0.000215183
6.55044e-05
0.000224272
6.54887e-05
0.000224272
0.000128949
0.000128928
0.000215181
6.55012e-05
0.000224271
6.54849e-05
0.000224272
0.000128951
0.000198485
3.735e-05
3.73496e-05
2.60464e-05
2.60446e-05
2.60456e-05
0.000198359
3.73575e-05
3.7356e-05
3.73496e-05
3.73493e-05
2.60453e-05
2.60464e-05
0.000128953
0.00021519
6.54947e-05
0.000224273
5.39721e-05
4.82863e-05
0.000128952
0.000215176
0.00022427
6.54854e-05
5.39658e-05
4.82885e-05
4.82894e-05
5.39768e-05
0.000128928
0.00021519
6.54951e-05
0.000224271
6.54793e-05
0.000224272
0.00012895
5.39648e-05
4.82859e-05
4.82868e-05
5.39762e-05
0.000128927
0.000215175
0.000224269
6.54869e-05
0.00022427
6.54692e-05
0.00012895
5.39752e-05
4.8291e-05
0.000128952
0.000215182
0.000224272
6.55007e-05
5.39748e-05
4.82894e-05
0.000128926
0.000215193
6.54996e-05
0.000224272
6.54821e-05
0.000224272
0.000128947
5.39658e-05
4.82906e-05
4.82915e-05
5.39728e-05
0.000128927
0.000215182
0.000224272
6.5501e-05
0.000224272
6.54849e-05
0.000128949
5.39654e-05
4.8289e-05
4.82898e-05
5.39724e-05
0.000198476
3.73391e-05
3.73553e-05
2.60457e-05
2.60422e-05
2.60433e-05
0.000198351
3.73471e-05
3.73629e-05
3.7339e-05
3.73546e-05
2.60447e-05
2.60457e-05
0.000128954
0.00021519
0.000224272
6.5497e-05
5.39739e-05
4.82891e-05
5.39743e-05
4.82889e-05
0.000128924
0.000215188
0.000224271
6.55017e-05
0.000224271
6.54857e-05
0.000128946
0.000128929
0.000215189
0.000224272
6.54973e-05
0.000224272
6.5481e-05
0.000128951
5.39661e-05
4.82887e-05
4.82896e-05
5.3977e-05
5.39666e-05
4.82885e-05
4.82894e-05
5.39774e-05
2.60456e-05
2.60446e-05
0.000198352
3.7362e-05
3.7355e-05
3.73533e-05
3.73464e-05
2.60445e-05
2.60455e-05
2.60436e-05
2.60446e-05
2.60457e-05
2.6045e-05
2.60439e-05
2.60432e-05
3.73633e-05
3.73549e-05
0.000198474
3.737e-05
3.73616e-05
2.60447e-05
2.60451e-05
2.60428e-05
2.60433e-05
0.000198351
3.73748e-05
3.73664e-05
3.73688e-05
3.73604e-05
5.39795e-05
4.82923e-05
5.3966e-05
4.82916e-05
0.00012895
6.54884e-05
0.000224272
0.000215182
0.000128927
6.55027e-05
0.000224272
0.000128952
6.54849e-05
0.000224271
0.00021518
0.000128928
6.54998e-05
0.000224271
5.39716e-05
4.82919e-05
4.82925e-05
5.39828e-05
5.39733e-05
4.82913e-05
4.8292e-05
5.39843e-05
0.000128927
0.000215183
6.55043e-05
0.000224272
6.54871e-05
0.000224272
0.000128951
0.000128929
0.00021518
6.55011e-05
0.000224271
6.54836e-05
0.000224271
0.000128952
3.73566e-05
3.73547e-05
0.000198477
3.73631e-05
3.7361e-05
2.60454e-05
2.60446e-05
2.60435e-05
2.60439e-05
0.000198353
3.73678e-05
3.73652e-05
3.73618e-05
3.73593e-05
2.60442e-05
2.60447e-05
0.000128951
6.54791e-05
0.000224271
0.000215189
0.000128929
6.54933e-05
0.000224271
5.39842e-05
4.82863e-05
5.39718e-05
4.82855e-05
0.000128951
0.000224269
6.54703e-05
0.000215174
0.000128928
0.000224269
6.54869e-05
5.39798e-05
4.82878e-05
4.82885e-05
5.39902e-05
0.000128928
0.000215189
6.5495e-05
0.000224272
6.54777e-05
0.000224271
0.000128952
5.39791e-05
4.82852e-05
4.82859e-05
5.39892e-05
0.000128928
0.000215175
0.000224269
6.54878e-05
0.000224269
6.54701e-05
0.000128952
5.39786e-05
4.8291e-05
5.39663e-05
4.82902e-05
0.00012895
0.00022427
6.54848e-05
0.000215181
0.000128927
0.00022427
6.54995e-05
5.39783e-05
4.82893e-05
5.3966e-05
4.82886e-05
0.000128926
0.000215189
6.54997e-05
0.000224269
6.54826e-05
0.000224269
0.000128951
5.39724e-05
4.829e-05
4.82907e-05
5.39835e-05
0.000128927
0.000215181
0.00022427
6.55009e-05
0.00022427
6.54835e-05
0.000128951
5.39721e-05
4.82883e-05
4.8289e-05
5.39831e-05
3.73455e-05
3.73619e-05
0.000198468
3.73524e-05
3.73687e-05
2.60447e-05
2.60439e-05
2.6041e-05
2.60416e-05
0.000198345
3.73568e-05
3.73734e-05
3.73503e-05
3.73674e-05
2.60436e-05
2.6044e-05
0.00012895
0.00022427
6.54809e-05
0.000215188
0.000128925
0.00022427
6.54956e-05
5.39847e-05
4.82891e-05
5.39722e-05
4.82884e-05
5.39851e-05
4.82889e-05
5.39727e-05
4.82882e-05
0.000128923
0.000215184
0.000224268
6.55011e-05
0.000224268
6.54842e-05
0.000128948
0.000128926
0.000215188
0.000224269
6.54967e-05
0.000224269
6.54793e-05
0.00012895
5.39794e-05
4.82881e-05
4.82887e-05
5.39898e-05
5.39797e-05
4.82879e-05
4.82885e-05
5.399e-05
2.60445e-05
2.60437e-05
2.60435e-05
2.60428e-05
0.000198348
3.73728e-05
3.73657e-05
3.73667e-05
3.73597e-05
2.60434e-05
2.60438e-05
2.60425e-05
2.60429e-05
2.60448e-05
2.60446e-05
2.6043e-05
2.60427e-05
3.73735e-05
3.7365e-05
0.000198473
3.73787e-05
3.73702e-05
2.60446e-05
2.60448e-05
2.60428e-05
2.6043e-05
0.00019835
3.7381e-05
3.73725e-05
3.73769e-05
3.73685e-05
5.39876e-05
4.82917e-05
5.39777e-05
4.82911e-05
0.000128957
6.54897e-05
0.000224272
0.000215183
0.000128929
6.55084e-05
0.000224272
0.000128958
6.54861e-05
0.000224271
0.00021518
0.00012893
6.55053e-05
0.000224272
5.39791e-05
4.82916e-05
4.82921e-05
5.39872e-05
5.39804e-05
4.82911e-05
4.82916e-05
5.39886e-05
0.000128933
0.000215183
6.55107e-05
0.000224272
6.54937e-05
0.000224273
0.000128954
0.000128935
0.000215181
6.55075e-05
0.000224272
6.54901e-05
0.000224272
0.000128957
3.73664e-05
3.73634e-05
0.000198475
3.73715e-05
3.73689e-05
2.60444e-05
2.60441e-05
2.60434e-05
2.60436e-05
0.000198352
3.73737e-05
3.73711e-05
3.73696e-05
3.73665e-05
2.60442e-05
2.60444e-05
0.000128959
6.54805e-05
0.000224273
0.000215189
0.000128931
6.54994e-05
0.000224273
5.39927e-05
4.82857e-05
5.39836e-05
4.82851e-05
0.000128958
0.000224269
6.54718e-05
0.000215176
0.000128931
0.00022427
6.54909e-05
5.39876e-05
4.82876e-05
4.82881e-05
5.39948e-05
0.000128934
0.00021519
6.55016e-05
0.000224272
6.54847e-05
0.000224273
0.000128955
5.39865e-05
4.8285e-05
4.82855e-05
5.39937e-05
0.000128934
0.000215175
0.000224269
6.54927e-05
0.00022427
6.54749e-05
0.000128955
5.39866e-05
4.82904e-05
5.39768e-05
4.82898e-05
0.000128956
0.00022427
6.54861e-05
0.000215181
0.000128929
0.000224271
6.55051e-05
5.39864e-05
4.82887e-05
5.39764e-05
4.82881e-05
0.000128929
0.000215189
6.55049e-05
0.000224271
6.54869e-05
0.000224271
0.000128956
5.39794e-05
4.82897e-05
4.82902e-05
5.39878e-05
0.000128933
0.000215181
0.000224272
6.55073e-05
0.000224272
6.549e-05
0.000128954
5.39792e-05
4.82881e-05
4.82885e-05
5.39873e-05
3.73546e-05
3.7372e-05
0.000198468
3.73602e-05
3.73772e-05
2.60437e-05
2.60435e-05
2.6041e-05
2.60412e-05
0.000198345
3.73621e-05
3.73795e-05
3.73575e-05
3.73754e-05
2.60435e-05
2.60437e-05
0.000128957
0.000224269
6.54817e-05
0.000215187
0.000128927
0.00022427
6.55009e-05
5.39933e-05
4.82885e-05
5.3984e-05
4.82879e-05
5.39934e-05
4.82882e-05
5.39842e-05
4.82877e-05
0.00012893
0.000215184
0.00022427
6.55075e-05
0.00022427
6.54901e-05
0.000128954
0.000128932
0.000215187
0.000224271
6.5503e-05
0.000224271
6.54857e-05
0.000128955
5.3987e-05
4.82878e-05
4.82883e-05
5.39946e-05
5.3987e-05
4.82876e-05
4.82881e-05
5.39944e-05
2.60436e-05
2.60433e-05
2.60426e-05
2.60424e-05
0.000198348
3.73789e-05
3.73717e-05
3.73748e-05
3.73677e-05
2.60433e-05
2.60435e-05
2.60424e-05
2.60426e-05
2.6045e-05
2.60453e-05
2.60431e-05
2.60435e-05
3.73782e-05
3.73697e-05
0.000198463
3.7376e-05
3.73676e-05
2.60464e-05
2.60458e-05
2.60446e-05
2.6044e-05
0.000198331
3.73659e-05
3.73575e-05
3.73709e-05
3.73624e-05
5.3981e-05
4.82916e-05
5.39806e-05
4.8292e-05
0.000128941
6.54945e-05
0.00022427
0.000215177
0.000128925
6.55026e-05
0.000224268
0.000128944
6.5491e-05
0.00022427
0.000215175
0.000128928
6.54996e-05
0.000224268
5.39668e-05
4.8297e-05
4.82937e-05
5.39571e-05
5.3968e-05
4.82964e-05
4.8293e-05
5.3958e-05
0.000128909
0.000215169
6.54797e-05
0.000224243
6.5482e-05
0.000224261
0.000128899
0.000128911
0.000215167
6.54765e-05
0.000224244
6.54786e-05
0.000224261
0.0001289
3.73708e-05
3.73678e-05
0.000198465
3.73686e-05
3.73665e-05
2.60446e-05
2.60449e-05
2.60452e-05
2.60446e-05
0.000198333
3.73583e-05
3.73551e-05
3.73634e-05
3.73607e-05
2.60459e-05
2.60455e-05
0.000128943
6.54854e-05
0.00022427
0.000215184
0.000128927
6.54934e-05
0.000224267
5.39862e-05
4.82856e-05
5.39868e-05
4.8286e-05
0.000128943
0.000224268
6.54755e-05
0.000215169
0.000128926
0.000224266
6.54848e-05
5.39752e-05
4.82929e-05
4.82897e-05
5.39643e-05
0.000128912
0.000215176
6.54704e-05
0.000224243
6.54729e-05
0.00022426
0.0001289
5.39741e-05
4.82902e-05
4.82871e-05
5.39629e-05
0.000128911
0.000215161
0.000224241
6.54619e-05
0.000224259
6.54631e-05
0.000128899
5.39802e-05
4.82903e-05
5.39798e-05
4.82907e-05
0.000128942
0.00022427
6.54909e-05
0.000215175
0.000128926
0.000224268
6.54994e-05
5.39797e-05
4.82886e-05
5.39793e-05
4.8289e-05
0.000128911
0.000215179
6.54744e-05
0.000224245
6.54758e-05
0.000224262
0.000128901
5.39672e-05
4.8295e-05
4.82918e-05
5.39573e-05
0.00012891
0.000215168
0.000224244
6.54763e-05
0.000224261
6.54785e-05
0.000128899
5.39667e-05
4.82934e-05
4.829e-05
5.39567e-05
3.73586e-05
3.73767e-05
0.000198457
3.73572e-05
3.73747e-05
2.60439e-05
2.60442e-05
2.60427e-05
2.60423e-05
0.000198325
3.73467e-05
3.73646e-05
3.73513e-05
3.73695e-05
2.60453e-05
2.60447e-05
0.000128943
0.00022427
6.54865e-05
0.000215182
0.000128925
0.000224267
6.54951e-05
5.3987e-05
4.82884e-05
5.39875e-05
4.82887e-05
5.39869e-05
4.82881e-05
5.39873e-05
4.82885e-05
0.00012891
0.000215174
0.000224244
6.5477e-05
0.000224261
6.54793e-05
0.0001289
0.000128909
0.000215175
0.000224243
6.54719e-05
0.000224261
6.5474e-05
0.000128898
5.39748e-05
4.82931e-05
4.82897e-05
5.39639e-05
5.39747e-05
4.82929e-05
4.82895e-05
5.39637e-05
2.60437e-05
2.6044e-05
2.60428e-05
2.60431e-05
0.00019833
3.73641e-05
3.73568e-05
3.73688e-05
3.73616e-05
2.60451e-05
2.60445e-05
2.60442e-05
2.60436e-05
2.60467e-05
2.60465e-05
2.60448e-05
2.60447e-05
3.73602e-05
3.73517e-05
0.00019839
3.73492e-05
3.73408e-05
2.60464e-05
2.60467e-05
2.60446e-05
2.60448e-05
0.000198264
3.7346e-05
3.73375e-05
3.7345e-05
3.73365e-05
5.39365e-05
4.82986e-05
5.39439e-05
4.82989e-05
0.000128845
6.54573e-05
0.000224234
0.000215129
0.000128854
6.54581e-05
0.000224233
0.000128847
6.54536e-05
0.000224234
0.000215127
0.000128855
6.54547e-05
0.000224233
5.39255e-05
4.82991e-05
4.82997e-05
5.39303e-05
5.39261e-05
4.82988e-05
4.82993e-05
5.39309e-05
0.000128821
0.000215128
6.54504e-05
0.000224239
6.54394e-05
0.000224235
0.000128846
0.000128822
0.000215126
6.54469e-05
0.000224239
6.54355e-05
0.000224235
0.000128848
3.7353e-05
3.73495e-05
0.000198393
3.73423e-05
3.73407e-05
2.60463e-05
2.60461e-05
2.60452e-05
2.60455e-05
0.000198266
3.73386e-05
3.73348e-05
3.73381e-05
3.73361e-05
2.6046e-05
2.60463e-05
0.000128847
6.5448e-05
0.000224234
0.000215136
0.000128855
6.54486e-05
0.000224233
5.39409e-05
4.82925e-05
5.39491e-05
4.82929e-05
0.000128846
0.000224232
6.54383e-05
0.000215121
0.000128854
0.000224231
6.54397e-05
5.39337e-05
4.82951e-05
4.82957e-05
5.39381e-05
0.000128823
0.000215134
6.5441e-05
0.000224239
6.543e-05
0.000224235
0.000128848
5.3932e-05
4.82927e-05
4.82934e-05
5.39361e-05
0.000128821
0.00021512
0.000224237
6.54317e-05
0.000224233
6.54198e-05
0.000128847
5.39357e-05
4.82973e-05
5.39432e-05
4.82976e-05
0.000128845
0.000224235
6.54535e-05
0.000215128
0.000128854
0.000224233
6.54546e-05
5.39352e-05
4.82956e-05
5.39426e-05
4.82959e-05
0.000128822
0.000215138
6.54445e-05
0.000224239
6.54328e-05
0.000224236
0.000128845
5.39253e-05
4.82975e-05
4.82981e-05
5.393e-05
0.00012882
0.000215126
0.000224239
6.54469e-05
0.000224235
6.54356e-05
0.000128845
5.39247e-05
4.82958e-05
4.82963e-05
5.39295e-05
3.73408e-05
3.73587e-05
0.000198384
3.73313e-05
3.73479e-05
2.60456e-05
2.60454e-05
2.60428e-05
2.60431e-05
0.000198258
3.73265e-05
3.73447e-05
3.73263e-05
3.73437e-05
2.60453e-05
2.60456e-05
0.000128844
0.000224234
6.5449e-05
0.000215135
0.000128852
0.000224233
6.54501e-05
5.39418e-05
4.82953e-05
5.395e-05
4.82957e-05
5.39416e-05
4.82951e-05
5.39498e-05
4.82955e-05
0.000128821
0.000215133
0.000224238
6.54477e-05
0.000224235
6.54364e-05
0.000128846
0.000128819
0.000215133
0.000224239
6.54424e-05
0.000224234
6.5431e-05
0.000128846
5.39327e-05
4.82955e-05
4.82961e-05
5.39369e-05
5.39325e-05
4.82953e-05
4.82959e-05
5.39366e-05
2.60454e-05
2.60452e-05
2.60445e-05
2.60443e-05
0.000198263
3.73447e-05
3.73374e-05
3.73436e-05
3.73364e-05
2.60451e-05
2.60454e-05
2.60442e-05
2.60445e-05
2.60466e-05
2.60464e-05
2.60448e-05
2.60445e-05
3.73433e-05
3.73348e-05
0.000198398
3.73457e-05
3.73372e-05
2.60464e-05
2.60466e-05
2.60445e-05
2.60448e-05
0.000198274
3.73457e-05
3.73373e-05
3.73431e-05
3.73346e-05
5.39302e-05
4.82992e-05
5.39229e-05
4.82987e-05
0.000128847
6.5434e-05
0.000224242
0.000215133
0.000128822
6.54489e-05
0.000224243
0.000128849
6.54301e-05
0.000224242
0.000215131
0.000128824
6.54453e-05
0.000224242
5.39218e-05
4.8299e-05
4.82994e-05
5.39295e-05
5.39224e-05
4.82987e-05
4.82991e-05
5.39301e-05
0.000128823
0.000215133
6.54486e-05
0.000224242
6.54331e-05
0.000224243
0.000128847
0.000128824
0.000215131
6.54451e-05
0.000224242
6.54291e-05
0.000224243
0.000128848
3.73358e-05
3.73315e-05
0.000198401
3.73383e-05
3.73348e-05
2.60462e-05
2.6046e-05
2.60452e-05
2.60454e-05
0.000198277
3.73384e-05
3.73349e-05
3.73357e-05
3.73317e-05
2.60459e-05
2.60462e-05
0.00012885
6.54247e-05
0.000224242
0.00021514
0.000128825
6.54395e-05
0.000224242
5.39354e-05
4.82932e-05
5.3929e-05
4.82926e-05
0.000128848
0.00022424
6.54143e-05
0.000215125
0.000128824
0.00022424
6.54302e-05
5.39306e-05
4.82951e-05
4.82955e-05
5.39374e-05
0.000128826
0.00021514
6.54395e-05
0.000224242
6.54238e-05
0.000224243
0.000128849
5.39286e-05
4.82926e-05
4.82931e-05
5.39354e-05
0.000128824
0.000215125
0.00022424
6.54298e-05
0.00022424
6.54133e-05
0.000128848
5.39292e-05
4.82979e-05
5.39219e-05
4.82974e-05
0.000128846
0.000224242
6.54303e-05
0.000215132
0.000128822
0.000224242
6.54454e-05
5.39288e-05
4.82962e-05
5.39214e-05
4.82957e-05
0.000128824
0.000215143
6.54428e-05
0.000224243
6.54263e-05
0.000224243
0.000128846
5.39214e-05
4.82973e-05
4.82978e-05
5.39291e-05
0.000128823
0.000215132
0.000224242
6.54451e-05
0.000224242
6.54293e-05
0.000128846
5.3921e-05
4.82957e-05
4.82961e-05
5.39287e-05
3.73231e-05
3.73419e-05
0.000198392
3.73263e-05
3.73444e-05
2.60455e-05
2.60453e-05
2.60428e-05
2.6043e-05
0.000198269
3.73264e-05
3.73444e-05
3.7323e-05
3.73417e-05
2.60453e-05
2.60455e-05
0.000128846
0.000224242
6.54256e-05
0.000215139
0.000128821
0.000224242
6.54409e-05
5.39362e-05
4.8296e-05
5.39296e-05
4.82954e-05
5.39359e-05
4.82957e-05
5.39293e-05
4.82952e-05
0.000128823
0.000215138
0.000224242
6.5446e-05
0.000224242
6.54303e-05
0.000128846
0.000128822
0.000215139
0.000224242
6.54406e-05
0.000224242
6.54247e-05
0.000128846
5.39292e-05
4.82954e-05
4.82959e-05
5.39362e-05
5.39289e-05
4.82952e-05
4.82956e-05
5.39359e-05
2.60453e-05
2.60451e-05
2.60444e-05
2.60442e-05
0.000198272
3.73443e-05
3.73371e-05
3.73416e-05
3.73345e-05
2.60451e-05
2.60453e-05
2.60442e-05
2.60444e-05
2.60466e-05
2.60464e-05
2.60447e-05
2.60445e-05
3.73431e-05
3.73347e-05
0.000198391
3.73457e-05
3.73373e-05
2.60464e-05
2.60466e-05
2.60445e-05
2.60447e-05
0.000198268
3.73457e-05
3.73373e-05
3.73432e-05
3.73347e-05
5.39301e-05
4.82991e-05
5.39224e-05
4.82987e-05
0.000128847
6.54329e-05
0.000224242
0.000215133
0.000128823
6.54486e-05
0.000224242
0.000128848
6.5429e-05
0.000224242
0.000215131
0.000128825
6.54451e-05
0.000224242
5.39217e-05
4.8299e-05
4.82994e-05
5.39295e-05
5.39224e-05
4.82986e-05
4.82991e-05
5.39301e-05
0.000128823
0.000215134
6.54486e-05
0.000224243
6.54329e-05
0.000224243
0.000128847
0.000128825
0.000215132
6.54452e-05
0.000224242
6.5429e-05
0.000224243
0.000128848
3.73357e-05
3.73317e-05
0.000198393
3.73384e-05
3.73349e-05
2.60462e-05
2.60459e-05
2.60453e-05
2.60454e-05
0.000198271
3.73374e-05
3.73349e-05
3.73358e-05
3.73317e-05
2.6046e-05
2.60462e-05
0.000128849
6.54225e-05
0.000224242
0.00021514
0.000128825
6.54388e-05
0.000224242
5.39355e-05
4.82931e-05
5.39287e-05
4.82926e-05
0.000128848
0.00022424
6.54131e-05
0.000215125
0.000128824
0.00022424
6.54299e-05
5.39306e-05
4.82949e-05
4.82954e-05
5.39374e-05
0.000128825
0.000215141