/*--------------------------------*- C++ -*----------------------------------*\
| =========                 |                                                 |
| \\      /  F ield         | OpenFOAM: The Open Source CFD Toolbox           |
|  \\    /   O peration     | Version:  2206                                  |
|   \\  /    A nd           | Website:  www.openfoam.com                      |
|    \\/     M anipulation  |                                                 |
\*---------------------------------------------------------------------------*/
FoamFile
{
    version     2.0;
    format      ascii;
    arch        "LSB;label=32;scalar=64";
    class       volScalarField;
    location    "29";
    object      p;
}
// * * * * * * * * * * * * * * * * * * * * * * * * * * * * * * * * * * * * * //

dimensions      [0 2 -2 0 0 0 0];

internalField   nonuniform List<scalar> 
171728
(
0.00399035
0.00399069
0.00399069
0.00399374
0.00393499
0.00393541
0.00393541
0.00393841
0.00388423
0.0038842
0.0038842
0.00388696
0.00383182
0.00383184
0.00383184
0.0038346
0.00378052
0.00378053
0.00378053
0.00378325
0.0037313
0.00373115
0.00373116
0.00373362
0.00368655
0.00368644
0.00368644
0.00368891
0.00364431
0.00364426
0.00364426
0.00364676
0.00360236
0.00360232
0.00360232
0.0036048
0.00356048
0.00356044
0.00356044
0.00356291
0.0035186
0.00351856
0.00351856
0.00352104
0.00347672
0.00347669
0.00347669
0.00347916
0.00343485
0.00343481
0.00343481
0.00343728
0.00339297
0.00339293
0.00339293
0.00339541
0.00335109
0.00335105
0.00335105
0.00335353
0.00330921
0.00330918
0.00330918
0.00331165
0.00326733
0.0032673
0.0032673
0.00326977
0.00322546
0.00322542
0.00322542
0.0032279
0.00318358
0.00318354
0.00318354
0.00318602
0.0031417
0.00314167
0.00314167
0.00314414
0.00309982
0.00309979
0.00309979
0.00310226
0.00305794
0.00305791
0.00305791
0.00306038
0.00301606
0.00301603
0.00301603
0.0030185
0.00297418
0.00297415
0.00297415
0.00297662
0.0029323
0.00293226
0.00293226
0.00293474
0.00289042
0.00289038
0.00289038
0.00289286
0.00284854
0.0028485
0.0028485
0.00285098
0.00280666
0.00280662
0.00280662
0.0028091
0.00276478
0.00276474
0.00276474
0.00276721
0.00272289
0.00272286
0.00272286
0.00272533
0.00268101
0.00268098
0.00268098
0.00268345
0.00263913
0.0026391
0.0026391
0.00264157
0.00259725
0.00259721
0.00259721
0.00259969
0.00255537
0.00255533
0.00255533
0.00255781
0.00251348
0.00251345
0.00251345
0.00251592
0.0024716
0.00247156
0.00247156
0.00247403
0.00242971
0.00242967
0.00242967
0.00243215
0.00238782
0.00238779
0.00238779
0.00239026
0.00234593
0.0023459
0.0023459
0.00234837
0.00230405
0.00230401
0.00230401
0.00230649
0.00226216
0.00226213
0.00226213
0.0022646
0.00222027
0.00222024
0.00222024
0.00222271
0.00217839
0.00217835
0.00217835
0.00218083
0.0021365
0.00213647
0.00213647
0.00213894
0.00209462
0.00209458
0.00209458
0.00209706
0.00205273
0.0020527
0.0020527
0.00205517
0.00201085
0.00201081
0.00201081
0.00201329
0.00196896
0.00196893
0.00196893
0.0019714
0.00192708
0.00192704
0.00192704
0.00192951
0.00188519
0.00188516
0.00188516
0.00188763
0.00184331
0.00184327
0.00184327
0.00184575
0.00180143
0.00180139
0.00180139
0.00180386
0.00175955
0.00175951
0.00175951
0.00176198
0.00171767
0.00171763
0.00171763
0.0017201
0.00167579
0.00167575
0.00167575
0.00167823
0.00163391
0.00163387
0.00163387
0.00163635
0.00159203
0.00159199
0.00159199
0.00159447
0.00155015
0.00155011
0.00155011
0.00155259
0.00150827
0.00150823
0.00150823
0.00151071
0.00146639
0.00146636
0.00146636
0.00146883
0.00142452
0.00142448
0.00142448
0.00142695
0.00138264
0.0013826
0.0013826
0.00138508
0.00134076
0.00134073
0.00134073
0.0013432
0.00129889
0.00129885
0.00129885
0.00130132
0.00125701
0.00125698
0.00125698
0.00125945
0.00121514
0.0012151
0.0012151
0.00121758
0.00117327
0.00117323
0.00117323
0.0011757
0.00113139
0.00113135
0.00113135
0.00113383
0.00108951
0.00108948
0.00108948
0.00109195
0.00104764
0.0010476
0.0010476
0.00105007
0.00100576
0.00100572
0.00100572
0.0010082
0.000963881
0.000963845
0.000963846
0.000966319
0.000922005
0.000921969
0.00092197
0.000924444
0.000880129
0.000880093
0.000880093
0.000882567
0.000838253
0.000838216
0.000838216
0.00084069
0.000796376
0.00079634
0.00079634
0.000798814
0.0007545
0.000754464
0.000754464
0.000756938
0.000712625
0.000712589
0.000712589
0.000715063
0.000670749
0.000670714
0.000670714
0.000673188
0.000628873
0.000628837
0.000628837
0.000631311
0.000586994
0.000586958
0.000586958
0.000589432
0.000545112
0.000545076
0.000545076
0.00054755
0.000503229
0.000503193
0.000503193
0.000505667
0.000461346
0.00046131
0.00046131
0.000463784
0.000419464
0.000419428
0.000419428
0.000421902
0.000377583
0.000377547
0.000377547
0.000380021
0.000335704
0.000335668
0.000335668
0.000338142
0.000293825
0.00029379
0.00029379
0.000296263
0.000251941
0.000251905
0.000251905
0.000254376
0.000210068
0.000210033
0.000210033
0.000212502
0.000168177
0.000168136
0.000168135
0.000170597
0.000126288
0.000126264
0.000126264
0.000128713
8.44013e-05
8.4362e-05
8.43606e-05
8.67845e-05
4.31885e-05
4.26372e-05
4.26343e-05
4.49242e-05
9.16524e-06
9.36809e-06
9.3655e-06
8.91233e-06
0.00400377
0.00400399
0.00400399
0.00400377
0.00400399
0.00400399
0.00400475
0.00400476
0.00400476
0.00400476
0.00400399
0.004004
0.00400377
0.004004
0.004004
0.00400377
0.00399374
0.00394498
0.00399068
0.00399068
0.00394726
0.00394726
0.00399374
0.00394498
0.00399069
0.00399069
0.00394725
0.00394726
0.00399069
0.00394725
0.00394726
0.00399374
0.00394498
0.00399069
0.00394725
0.00394725
0.00394498
0.00393841
0.00389389
0.00393542
0.00393542
0.00389734
0.00389734
0.00393841
0.00389389
0.00393541
0.00393541
0.00389734
0.00389734
0.00393542
0.00389734
0.00389734
0.00393841
0.00389389
0.00393541
0.00389734
0.00389734
0.00389389
0.00388696
0.00384149
0.0038842
0.0038842
0.00384487
0.00384487
0.00388696
0.00384149
0.0038842
0.0038842
0.00384487
0.00384487
0.0038842
0.00384487
0.00384487
0.00388696
0.00384149
0.0038842
0.00384487
0.00384487
0.00384149
0.0038346
0.00378999
0.00383184
0.00383184
0.00379326
0.00379326
0.0038346
0.00378999
0.00383184
0.00383184
0.00379326
0.00379326
0.00383184
0.00379326
0.00379326
0.0038346
0.00378999
0.00383184
0.00379326
0.00379326
0.00378999
0.00378325
0.00373998
0.00378053
0.00378053
0.0037431
0.0037431
0.00378325
0.00373998
0.00378053
0.00378053
0.00374311
0.00374311
0.00378053
0.00374311
0.00374311
0.00378325
0.00373998
0.00378053
0.00374311
0.00374311
0.00373998
0.00373363
0.00369453
0.00373115
0.00373115
0.00369718
0.00369718
0.00373363
0.00369453
0.00373115
0.00373115
0.00369718
0.00369718
0.00373115
0.00369718
0.00369718
0.00373363
0.00369454
0.00373116
0.00369718
0.00369718
0.00369453
0.00368891
0.0036523
0.00368643
0.00368643
0.00365477
0.00365477
0.00368891
0.0036523
0.00368644
0.00368644
0.00365477
0.00365477
0.00368644
0.00365477
0.00365477
0.00368891
0.0036523
0.00368644
0.00365477
0.00365477
0.0036523
0.00364676
0.00361032
0.00364426
0.00364426
0.00361279
0.00361279
0.00364676
0.00361032
0.00364426
0.00364426
0.00361279
0.00361279
0.00364426
0.00361279
0.00361279
0.00364676
0.00361032
0.00364426
0.00361279
0.00361279
0.00361032
0.00360479
0.00356844
0.00360232
0.00360232
0.00357091
0.00357091
0.00360479
0.00356844
0.00360232
0.00360232
0.00357091
0.00357091
0.00360232
0.00357091
0.00357091
0.00360479
0.00356844
0.00360232
0.00357091
0.00357091
0.00356844
0.00356291
0.00352657
0.00356044
0.00356044
0.00352903
0.00352903
0.00356291
0.00352657
0.00356044
0.00356044
0.00352903
0.00352903
0.00356044
0.00352903
0.00352903
0.00356291
0.00352657
0.00356044
0.00352903
0.00352903
0.00352657
0.00352104
0.00348469
0.00351856
0.00351856
0.00348716
0.00348716
0.00352104
0.00348469
0.00351856
0.00351856
0.00348716
0.00348716
0.00351856
0.00348716
0.00348716
0.00352104
0.00348469
0.00351856
0.00348716
0.00348716
0.00348469
0.00347916
0.00344281
0.00347669
0.00347669
0.00344528
0.00344528
0.00347916
0.00344281
0.00347669
0.00347669
0.00344528
0.00344528
0.00347669
0.00344528
0.00344528
0.00347916
0.00344281
0.00347669
0.00344528
0.00344528
0.00344281
0.00343728
0.00340093
0.00343481
0.00343481
0.0034034
0.0034034
0.00343728
0.00340093
0.00343481
0.00343481
0.0034034
0.0034034
0.00343481
0.0034034
0.0034034
0.00343728
0.00340093
0.00343481
0.0034034
0.0034034
0.00340093
0.00339541
0.00335906
0.00339293
0.00339293
0.00336152
0.00336152
0.00339541
0.00335906
0.00339293
0.00339293
0.00336152
0.00336152
0.00339293
0.00336152
0.00336152
0.00339541
0.00335906
0.00339293
0.00336152
0.00336152
0.00335906
0.00335353
0.00331718
0.00335105
0.00335105
0.00331965
0.00331965
0.00335353
0.00331718
0.00335105
0.00335105
0.00331965
0.00331965
0.00335105
0.00331965
0.00331965
0.00335353
0.00331718
0.00335105
0.00331965
0.00331965
0.00331718
0.00331165
0.0032753
0.00330918
0.00330918
0.00327777
0.00327777
0.00331165
0.0032753
0.00330918
0.00330918
0.00327777
0.00327777
0.00330918
0.00327777
0.00327777
0.00331165
0.0032753
0.00330918
0.00327777
0.00327777
0.0032753
0.00326977
0.00323342
0.0032673
0.0032673
0.00323589
0.00323589
0.00326977
0.00323342
0.0032673
0.0032673
0.00323589
0.00323589
0.0032673
0.00323589
0.00323589
0.00326977
0.00323342
0.0032673
0.00323589
0.00323589
0.00323342
0.0032279
0.00319155
0.00322542
0.00322542
0.00319401
0.00319401
0.0032279
0.00319155
0.00322542
0.00322542
0.00319401
0.00319401
0.00322542
0.00319401
0.00319401
0.0032279
0.00319155
0.00322542
0.00319401
0.00319401
0.00319155
0.00318602
0.00314967
0.00318354
0.00318354
0.00315214
0.00315213
0.00318602
0.00314967
0.00318354
0.00318354
0.00315214
0.00315214
0.00318354
0.00315213
0.00315214
0.00318602
0.00314967
0.00318354
0.00315214
0.00315214
0.00314967
0.00314414
0.00310779
0.00314167
0.00314166
0.00311026
0.00311026
0.00314414
0.00310779
0.00314167
0.00314167
0.00311026
0.00311026
0.00314167
0.00311026
0.00311026
0.00314414
0.00310779
0.00314167
0.00311026
0.00311026
0.00310779
0.00310226
0.00306591
0.00309979
0.00309979
0.00306838
0.00306838
0.00310226
0.00306591
0.00309979
0.00309979
0.00306838
0.00306838
0.00309979
0.00306838
0.00306838
0.00310226
0.00306591
0.00309979
0.00306838
0.00306838
0.00306591
0.00306038
0.00302403
0.00305791
0.00305791
0.0030265
0.0030265
0.00306038
0.00302403
0.00305791
0.00305791
0.0030265
0.0030265
0.00305791
0.0030265
0.0030265
0.00306038
0.00302403
0.00305791
0.0030265
0.0030265
0.00302403
0.0030185
0.00298215
0.00301603
0.00301603
0.00298462
0.00298462
0.0030185
0.00298215
0.00301603
0.00301603
0.00298462
0.00298462
0.00301603
0.00298462
0.00298462
0.0030185
0.00298215
0.00301603
0.00298462
0.00298462
0.00298215
0.00297662
0.00294027
0.00297415
0.00297415
0.00294273
0.00294273
0.00297662
0.00294027
0.00297415
0.00297415
0.00294273
0.00294273
0.00297415
0.00294273
0.00294273
0.00297662
0.00294027
0.00297415
0.00294273
0.00294273
0.00294027
0.00293474
0.00289839
0.00293226
0.00293226
0.00290085
0.00290085
0.00293474
0.00289839
0.00293226
0.00293226
0.00290085
0.00290085
0.00293226
0.00290085
0.00290085
0.00293474
0.00289839
0.00293226
0.00290085
0.00290085
0.00289839
0.00289286
0.00285651
0.00289038
0.00289038
0.00285897
0.00285897
0.00289286
0.00285651
0.00289038
0.00289038
0.00285897
0.00285897
0.00289038
0.00285897
0.00285897
0.00289286
0.00285651
0.00289038
0.00285897
0.00285897
0.00285651
0.00285098
0.00281462
0.0028485
0.0028485
0.00281709
0.00281709
0.00285098
0.00281462
0.0028485
0.0028485
0.00281709
0.00281709
0.0028485
0.00281709
0.00281709
0.00285098
0.00281462
0.0028485
0.00281709
0.00281709
0.00281462
0.0028091
0.00277274
0.00280662
0.00280662
0.00277521
0.00277521
0.0028091
0.00277274
0.00280662
0.00280662
0.00277521
0.00277521
0.00280662
0.00277521
0.00277521
0.0028091
0.00277274
0.00280662
0.00277521
0.00277521
0.00277274
0.00276721
0.00273086
0.00276474
0.00276474
0.00273333
0.00273333
0.00276721
0.00273086
0.00276474
0.00276474
0.00273333
0.00273333
0.00276474
0.00273333
0.00273333
0.00276721
0.00273086
0.00276474
0.00273333
0.00273333
0.00273086
0.00272533
0.00268898
0.00272286
0.00272286
0.00269145
0.00269145
0.00272533
0.00268898
0.00272286
0.00272286
0.00269145
0.00269145
0.00272286
0.00269145
0.00269145
0.00272533
0.00268898
0.00272286
0.00269145
0.00269145
0.00268898
0.00268345
0.0026471
0.00268098
0.00268098
0.00264957
0.00264957
0.00268345
0.0026471
0.00268098
0.00268098
0.00264957
0.00264957
0.00268098
0.00264957
0.00264957
0.00268345
0.0026471
0.00268098
0.00264957
0.00264957
0.0026471
0.00264157
0.00260522
0.0026391
0.0026391
0.00260769
0.00260769
0.00264157
0.00260522
0.0026391
0.0026391
0.00260769
0.00260769
0.0026391
0.00260769
0.00260769
0.00264157
0.00260522
0.0026391
0.00260769
0.00260769
0.00260522
0.00259969
0.00256333
0.00259721
0.00259721
0.0025658
0.0025658
0.00259969
0.00256334
0.00259721
0.00259721
0.0025658
0.0025658
0.00259721
0.0025658
0.0025658
0.00259969
0.00256333
0.00259721
0.0025658
0.0025658
0.00256333
0.00255781
0.00252145
0.00255533
0.00255533
0.00252392
0.00252392
0.00255781
0.00252145
0.00255533
0.00255533
0.00252392
0.00252392
0.00255533
0.00252392
0.00252392
0.00255781
0.00252145
0.00255533
0.00252392
0.00252392
0.00252145
0.00251592
0.00247956
0.00251345
0.00251345
0.00248203
0.00248203
0.00251592
0.00247956
0.00251345
0.00251345
0.00248203
0.00248203
0.00251345
0.00248203
0.00248203
0.00251592
0.00247956
0.00251345
0.00248203
0.00248203
0.00247956
0.00247403
0.00243768
0.00247156
0.00247156
0.00244014
0.00244014
0.00247403
0.00243768
0.00247156
0.00247156
0.00244014
0.00244014
0.00247156
0.00244014
0.00244014
0.00247403
0.00243768
0.00247156
0.00244014
0.00244014
0.00243768
0.00243215
0.00239579
0.00242967
0.00242967
0.00239826
0.00239826
0.00243215
0.00239579
0.00242967
0.00242967
0.00239826
0.00239826
0.00242967
0.00239826
0.00239826
0.00243215
0.00239579
0.00242967
0.00239826
0.00239826
0.00239579
0.00239026
0.0023539
0.00238779
0.00238779
0.00235637
0.00235637
0.00239026
0.0023539
0.00238779
0.00238779
0.00235637
0.00235637
0.00238779
0.00235637
0.00235637
0.00239026
0.0023539
0.00238779
0.00235637
0.00235637
0.0023539
0.00234837
0.00231202
0.0023459
0.0023459
0.00231448
0.00231448
0.00234837
0.00231202
0.0023459
0.0023459
0.00231448
0.00231448
0.0023459
0.00231448
0.00231448
0.00234837
0.00231202
0.0023459
0.00231448
0.00231448
0.00231202
0.00230649
0.00227013
0.00230401
0.00230401
0.0022726
0.0022726
0.00230649
0.00227013
0.00230401
0.00230401
0.0022726
0.0022726
0.00230401
0.0022726
0.0022726
0.00230649
0.00227013
0.00230401
0.0022726
0.0022726
0.00227013
0.0022646
0.00222824
0.00226213
0.00226213
0.00223071
0.00223071
0.0022646
0.00222824
0.00226213
0.00226213
0.00223071
0.00223071
0.00226213
0.00223071
0.00223071
0.0022646
0.00222824
0.00226212
0.00223071
0.00223071
0.00222824
0.00222271
0.00218636
0.00222024
0.00222024
0.00218882
0.00218882
0.00222271
0.00218636
0.00222024
0.00222024
0.00218882
0.00218882
0.00222024
0.00218882
0.00218882
0.00222271
0.00218636
0.00222024
0.00218882
0.00218882
0.00218636
0.00218083
0.00214447
0.00217835
0.00217835
0.00214694
0.00214694
0.00218083
0.00214447
0.00217835
0.00217835
0.00214694
0.00214694
0.00217835
0.00214694
0.00214694
0.00218083
0.00214447
0.00217835
0.00214694
0.00214694
0.00214447
0.00213894
0.00210258
0.00213647
0.00213647
0.00210505
0.00210505
0.00213894
0.00210258
0.00213647
0.00213647
0.00210505
0.00210505
0.00213647
0.00210505
0.00210505
0.00213894
0.00210258
0.00213647
0.00210505
0.00210505
0.00210258
0.00209706
0.0020607
0.00209458
0.00209458
0.00206317
0.00206317
0.00209706
0.0020607
0.00209458
0.00209458
0.00206317
0.00206317
0.00209458
0.00206317
0.00206317
0.00209706
0.0020607
0.00209458
0.00206317
0.00206317
0.0020607
0.00205517
0.00201882
0.0020527
0.0020527
0.00202128
0.00202128
0.00205517
0.00201882
0.0020527
0.0020527
0.00202128
0.00202128
0.0020527
0.00202128
0.00202128
0.00205517
0.00201881
0.0020527
0.00202128
0.00202128
0.00201881
0.00201329
0.00197693
0.00201081
0.00201081
0.0019794
0.0019794
0.00201329
0.00197693
0.00201081
0.00201081
0.0019794
0.0019794
0.00201081
0.0019794
0.0019794
0.00201329
0.00197693
0.00201081
0.0019794
0.0019794
0.00197693
0.0019714
0.00193504
0.00196893
0.00196893
0.00193751
0.00193751
0.0019714
0.00193504
0.00196893
0.00196893
0.00193751
0.00193751
0.00196893
0.00193751
0.00193751
0.0019714
0.00193504
0.00196893
0.00193751
0.00193751
0.00193504
0.00192951
0.00189316
0.00192704
0.00192704
0.00189563
0.00189563
0.00192951
0.00189316
0.00192704
0.00192704
0.00189563
0.00189563
0.00192704
0.00189563
0.00189563
0.00192951
0.00189316
0.00192704
0.00189563
0.00189563
0.00189316
0.00188763
0.00185128
0.00188516
0.00188516
0.00185374
0.00185374
0.00188763
0.00185128
0.00188516
0.00188516
0.00185374
0.00185374
0.00188516
0.00185374
0.00185374
0.00188763
0.00185128
0.00188516
0.00185374
0.00185374
0.00185128
0.00184575
0.00180939
0.00184327
0.00184327
0.00181186
0.00181186
0.00184575
0.00180939
0.00184327
0.00184327
0.00181186
0.00181186
0.00184327
0.00181186
0.00181186
0.00184575
0.00180939
0.00184327
0.00181186
0.00181186
0.00180939
0.00180386
0.00176751
0.00180139
0.00180139
0.00176998
0.00176998
0.00180386
0.00176751
0.00180139
0.00180139
0.00176998
0.00176998
0.00180139
0.00176998
0.00176998
0.00180386
0.00176751
0.00180139
0.00176998
0.00176998
0.00176751
0.00176198
0.00172563
0.00175951
0.00175951
0.0017281
0.0017281
0.00176198
0.00172563
0.00175951
0.00175951
0.0017281
0.0017281
0.00175951
0.0017281
0.0017281
0.00176198
0.00172563
0.00175951
0.0017281
0.0017281
0.00172563
0.0017201
0.00168375
0.00171763
0.00171763
0.00168622
0.00168622
0.0017201
0.00168375
0.00171763
0.00171763
0.00168622
0.00168622
0.00171763
0.00168622
0.00168622
0.0017201
0.00168375
0.00171763
0.00168622
0.00168622
0.00168375
0.00167822
0.00164187
0.00167575
0.00167575
0.00164434
0.00164434
0.00167823
0.00164187
0.00167575
0.00167575
0.00164434
0.00164434
0.00167575
0.00164434
0.00164434
0.00167822
0.00164187
0.00167575
0.00164434
0.00164434
0.00164187
0.00163635
0.00159999
0.00163387
0.00163387
0.00160246
0.00160246
0.00163635
0.00159999
0.00163387
0.00163387
0.00160246
0.00160246
0.00163387
0.00160246
0.00160246
0.00163635
0.00159999
0.00163387
0.00160246
0.00160246
0.00159999
0.00159447
0.00155812
0.00159199
0.00159199
0.00156058
0.00156058
0.00159447
0.00155812
0.00159199
0.00159199
0.00156058
0.00156058
0.00159199
0.00156058
0.00156058
0.00159447
0.00155811
0.00159199
0.00156058
0.00156058
0.00155811
0.00155259
0.00151624
0.00155011
0.00155011
0.0015187
0.0015187
0.00155259
0.00151624
0.00155011
0.00155011
0.0015187
0.0015187
0.00155011
0.0015187
0.0015187
0.00155259
0.00151624
0.00155011
0.0015187
0.0015187
0.00151624
0.00151071
0.00147436
0.00150823
0.00150823
0.00147683
0.00147683
0.00151071
0.00147436
0.00150823
0.00150823
0.00147683
0.00147683
0.00150823
0.00147683
0.00147683
0.00151071
0.00147436
0.00150823
0.00147683
0.00147683
0.00147436
0.00146883
0.00143248
0.00146636
0.00146636
0.00143495
0.00143495
0.00146883
0.00143248
0.00146636
0.00146636
0.00143495
0.00143495
0.00146636
0.00143495
0.00143495
0.00146883
0.00143248
0.00146636
0.00143495
0.00143495
0.00143248
0.00142695
0.0013906
0.00142448
0.00142448
0.00139307
0.00139307
0.00142695
0.0013906
0.00142448
0.00142448
0.00139307
0.00139307
0.00142448
0.00139307
0.00139307
0.00142695
0.0013906
0.00142448
0.00139307
0.00139307
0.0013906
0.00138508
0.00134873
0.0013826
0.0013826
0.00135119
0.00135119
0.00138508
0.00134873
0.0013826
0.0013826
0.00135119
0.00135119
0.0013826
0.00135119
0.00135119
0.00138508
0.00134873
0.0013826
0.00135119
0.00135119
0.00134873
0.0013432
0.00130685
0.00134073
0.00134073
0.00130932
0.00130932
0.0013432
0.00130685
0.00134073
0.00134073
0.00130932
0.00130932
0.00134073
0.00130932
0.00130932
0.0013432
0.00130685
0.00134073
0.00130932
0.00130932
0.00130685
0.00130132
0.00126498
0.00129885
0.00129885
0.00126745
0.00126745
0.00130132
0.00126498
0.00129885
0.00129885
0.00126745
0.00126745
0.00129885
0.00126745
0.00126745
0.00130132
0.00126498
0.00129885
0.00126745
0.00126745
0.00126498
0.00125945
0.00122311
0.00125698
0.00125698
0.00122557
0.00122557
0.00125945
0.00122311
0.00125698
0.00125698
0.00122557
0.00122557
0.00125698
0.00122557
0.00122557
0.00125945
0.00122311
0.00125698
0.00122557
0.00122557
0.00122311
0.00121758
0.00118123
0.0012151
0.0012151
0.0011837
0.0011837
0.00121758
0.00118123
0.0012151
0.0012151
0.0011837
0.0011837
0.0012151
0.0011837
0.0011837
0.00121758
0.00118123
0.0012151
0.0011837
0.0011837
0.00118123
0.0011757
0.00113936
0.00117323
0.00117323
0.00114182
0.00114182
0.0011757
0.00113936
0.00117323
0.00117323
0.00114182
0.00114182
0.00117323
0.00114182
0.00114182
0.0011757
0.00113936
0.00117323
0.00114182
0.00114182
0.00113936
0.00113383
0.00109748
0.00113135
0.00113135
0.00109995
0.00109995
0.00113383
0.00109748
0.00113135
0.00113135
0.00109995
0.00109995
0.00113135
0.00109995
0.00109995
0.00113383
0.00109748
0.00113135
0.00109995
0.00109995
0.00109748
0.00109195
0.0010556
0.00108948
0.00108948
0.00105807
0.00105807
0.00109195
0.0010556
0.00108948
0.00108948
0.00105807
0.00105807
0.00108948
0.00105807
0.00105807
0.00109195
0.0010556
0.00108948
0.00105807
0.00105807
0.0010556
0.00105007
0.00101372
0.0010476
0.0010476
0.00101619
0.00101619
0.00105007
0.00101372
0.0010476
0.0010476
0.00101619
0.00101619
0.0010476
0.00101619
0.00101619
0.00105007
0.00101372
0.0010476
0.00101619
0.00101619
0.00101372
0.0010082
0.000971847
0.00100572
0.00100572
0.000974315
0.000974314
0.0010082
0.000971848
0.00100572
0.00100572
0.000974314
0.000974315
0.00100572
0.000974315
0.000974315
0.0010082
0.000971847
0.00100572
0.000974315
0.000974315
0.000971847
0.000966319
0.000929971
0.000963845
0.000963845
0.000932438
0.000932438
0.000966319
0.000929972
0.000963845
0.000963845
0.000932438
0.000932439
0.000963846
0.000932438
0.000932439
0.000966319
0.000929971
0.000963845
0.000932439
0.000932439
0.000929972
0.000924443
0.000888095
0.000921969
0.000921969
0.000890562
0.000890562
0.000924443
0.000888095
0.000921969
0.00092197
0.000890562
0.000890562
0.00092197
0.000890562
0.000890562
0.000924443
0.000888095
0.00092197
0.000890562
0.000890562
0.000888095
0.000882567
0.000846219
0.000880093
0.000880093
0.000848686
0.000848686
0.000882567
0.000846219
0.000880093
0.000880093
0.000848686
0.000848686
0.000880093
0.000848686
0.000848686
0.000882567
0.000846218
0.000880093
0.000848686
0.000848686
0.000846219
0.00084069
0.000804342
0.000838217
0.000838216
0.000806809
0.000806809
0.00084069
0.000804342
0.000838216
0.000838216
0.000806809
0.000806809
0.000838217
0.000806809
0.000806809
0.00084069
0.000804342
0.000838216
0.000806809
0.000806809
0.000804342
0.000798814
0.000762466
0.00079634
0.00079634
0.000764933
0.000764933
0.000798814
0.000762466
0.00079634
0.00079634
0.000764933
0.000764933
0.00079634
0.000764933
0.000764933
0.000798814
0.000762466
0.00079634
0.000764933
0.000764933
0.000762466
0.000756938
0.00072059
0.000754464
0.000754464
0.000723058
0.000723057
0.000756938
0.000720591
0.000754464
0.000754464
0.000723057
0.000723057
0.000754464
0.000723057
0.000723058
0.000756938
0.00072059
0.000754464
0.000723057
0.000723057
0.00072059
0.000715062
0.000678715
0.000712589
0.000712589
0.000681182
0.000681182
0.000715062
0.000678716
0.000712589
0.000712589
0.000681182
0.000681182
0.000712589
0.000681182
0.000681183
0.000715062
0.000678715
0.000712589
0.000681183
0.000681182
0.000678716
0.000673187
0.000636839
0.000670714
0.000670713
0.000639306
0.000639306
0.000673187
0.000636839
0.000670713
0.000670714
0.000639306
0.000639306
0.000670714
0.000639306
0.000639306
0.000673187
0.000636839
0.000670714
0.000639306
0.000639306
0.000636839
0.000631311
0.000594961
0.000628837
0.000628837
0.000597428
0.000597428
0.000631311
0.000594961
0.000628837
0.000628837
0.000597428
0.000597428
0.000628837
0.000597428
0.000597428
0.000631311
0.000594961
0.000628837
0.000597428
0.000597428
0.000594961
0.000589432
0.000553079
0.000586958
0.000586958
0.000555547
0.000555546
0.000589432
0.000553079
0.000586958
0.000586958
0.000555546
0.000555546
0.000586958
0.000555546
0.000555547
0.000589432
0.000553079
0.000586958
0.000555546
0.000555546
0.000553079
0.00054755
0.000511196
0.000545076
0.000545076
0.000513664
0.000513664
0.00054755
0.000511197
0.000545076
0.000545076
0.000513664
0.000513664
0.000545076
0.000513664
0.000513664
0.00054755
0.000511196
0.000545076
0.000513664
0.000513664
0.000511197
0.000505667
0.000469313
0.000503193
0.000503193
0.00047178
0.00047178
0.000505667
0.000469313
0.000503193
0.000503193
0.00047178
0.00047178
0.000503193
0.00047178
0.000471781
0.000505667
0.000469313
0.000503193
0.00047178
0.00047178
0.000469313
0.000463784
0.000427431
0.00046131
0.00046131
0.000429898
0.000429898
0.000463784
0.000427431
0.00046131
0.00046131
0.000429898
0.000429898
0.00046131
0.000429898
0.000429898
0.000463784
0.000427431
0.00046131
0.000429898
0.000429898
0.000427431
0.000421902
0.00038555
0.000419428
0.000419428
0.000388017
0.000388017
0.000421902
0.00038555
0.000419428
0.000419428
0.000388017
0.000388017
0.000419428
0.000388017
0.000388017
0.000421902
0.00038555
0.000419428
0.000388017
0.000388017
0.00038555
0.000380021
0.00034367
0.000377547
0.000377547
0.000346138
0.000346138
0.000380021
0.000343671
0.000377547
0.000377547
0.000346137
0.000346138
0.000377547
0.000346138
0.000346138
0.000380021
0.00034367
0.000377547
0.000346138
0.000346138
0.00034367
0.000338142
0.000301792
0.000335668
0.000335668
0.000304259
0.000304259
0.000338142
0.000301792
0.000335668
0.000335668
0.000304259
0.000304259
0.000335668
0.000304259
0.000304259
0.000338142
0.000301792
0.000335668
0.000304259
0.000304259
0.000301792
0.000296263
0.00025991
0.00029379
0.00029379
0.000262377
0.000262377
0.000296263
0.00025991
0.00029379
0.00029379
0.000262377
0.000262377
0.00029379
0.000262377
0.000262377
0.000296263
0.00025991
0.00029379
0.000262377
0.000262377
0.00025991
0.000254376
0.000218032
0.000251905
0.000251905
0.000220494
0.000220493
0.000254376
0.000218032
0.000251905
0.000251905
0.000220493
0.000220493
0.000251905
0.000220493
0.000220494
0.000254376
0.000218031
0.000251905
0.000220493
0.000220493
0.000218031
0.000212503
0.000176157
0.000210033
0.000210033
0.000178622
0.000178622
0.000212502
0.000176158
0.000210033
0.000210033
0.000178622
0.000178622
0.000210033
0.000178622
0.000178622
0.000212503
0.000176157
0.000210033
0.000178622
0.000178622
0.000176157
0.000170597
0.000134273
0.000168136
0.000168136
0.000136738
0.000136738
0.000170597
0.000134273
0.000168135
0.000168136
0.000136738
0.000136738
0.000168136
0.000136738
0.000136738
0.000170597
0.000134273
0.000168135
0.000136738
0.000136738
0.000134273
0.000128714
9.23833e-05
0.000126264
0.000126264
9.48411e-05
9.48418e-05
0.000128714
9.23842e-05
0.000126264
0.000126264
9.48408e-05
9.48406e-05
0.000126264
9.48414e-05
9.48409e-05
0.000128713
9.23827e-05
0.000126264
9.48405e-05
9.48405e-05
9.23829e-05
8.67854e-05
5.05256e-05
8.43616e-05
8.43619e-05
5.2988e-05
5.29885e-05
8.67854e-05
5.05265e-05
8.4361e-05
8.43606e-05
5.2986e-05
5.29855e-05
8.43612e-05
5.29872e-05
5.29853e-05
8.6785e-05
5.05231e-05
8.43607e-05
5.29847e-05
5.2984e-05
5.05228e-05
4.49279e-05
1.25453e-05
4.26391e-05
4.26391e-05
1.47462e-05
1.47455e-05
4.49282e-05
1.25452e-05
4.2637e-05
4.26357e-05
1.47442e-05
1.47405e-05
4.2635e-05
1.47429e-05
1.47387e-05
4.49248e-05
1.25406e-05
4.26338e-05
1.47407e-05
1.47401e-05
1.25395e-05
8.9164e-06
9.36915e-06
9.3696e-06
8.91776e-06
9.36754e-06
9.36484e-06
9.16523e-06
9.16284e-06
9.16252e-06
9.36403e-06
8.91334e-06
9.36461e-06
0.00401214
0.0040219
0.0040167
0.0040167
0.00403908
0.00402587
0.00405447
0.00401991
0.00403908
0.00402587
0.00401992
0.00405447
0.00403044
0.00405821
0.00405821
0.00396749
0.00398664
0.00399584
0.00395956
0.00396034
0.00396308
0.00396747
0.00398662
0.00399583
0.00395954
0.00399036
0.00399036
0.00399036
0.00394695
0.00394695
0.00394694
0.00394694
0.003965
0.00399083
0.00399076
0.00397382
0.00399385
0.0039639
0.0039747
0.00396045
0.00396308
0.00396501
0.00399076
0.00399084
0.00397382
0.00399385
0.0039747
0.0039639
0.0039967
0.00399669
0.00396823
0.00396353
0.00396353
0.00392082
0.00394016
0.00394151
0.00391933
0.00393906
0.00391891
0.00392082
0.00394015
0.00394151
0.00391932
0.00393499
0.00393499
0.00393499
0.00389741
0.00389741
0.00389741
0.00389741
0.00391943
0.00394022
0.00393499
0.00392313
0.00393901
0.00391995
0.00392286
0.00393906
0.00391891
0.00391943
0.00393499
0.00394022
0.00392312
0.00393901
0.00392286
0.00391995
0.00394126
0.00394126
0.00391967
0.00392026
0.00392027
0.0038686
0.0038875
0.00388851
0.00386752
0.00388716
0.00386722
0.0038686
0.0038875
0.00388851
0.00386752
0.00388423
0.00388423
0.00388423
0.00384483
0.00384483
0.00384483
0.00384483
0.0038677
0.00388785
0.00388411
0.00387108
0.00388727
0.00386804
0.00387098
0.00388716
0.00386722
0.0038677
0.00388411
0.00388785
0.00387108
0.00388727
0.00387098
0.00386804
0.00388813
0.00388813
0.0038677
0.00386809
0.00386809
0.00381595
0.0038348
0.00383568
0.00381522
0.00383459
0.00381504
0.00381595
0.0038348
0.00383567
0.00381522
0.00383182
0.00383182
0.00383182
0.00379325
0.00379325
0.00379325
0.00379325
0.00381551
0.00383519
0.00383179
0.0038189
0.00383487
0.00381566
0.00381889
0.00383459
0.00381504
0.00381551
0.00383179
0.00383519
0.0038189
0.00383487
0.00381889
0.00381566
0.00383524
0.00383524
0.00381561
0.0038156
0.0038156
0.00376475
0.00378321
0.00378381
0.00376422
0.00378304
0.00376412
0.00376475
0.00378321
0.00378381
0.00376422
0.00378052
0.00378052
0.00378052
0.00374327
0.00374327
0.00374328
0.00374328
0.00376454
0.00378355
0.0037805
0.00376786
0.00378338
0.00376461
0.00376788
0.00378304
0.00376412
0.00376454
0.0037805
0.00378355
0.00376786
0.00378338
0.00376788
0.00376461
0.00378352
0.00378352
0.00376464
0.00376455
0.00376455
0.00371573
0.00373304
0.00373371
0.0037156
0.00373282
0.00371532
0.00371573
0.00373304
0.00373372
0.0037156
0.0037313
0.0037313
0.0037313
0.00369733
0.00369733
0.00369733
0.00369733
0.00371605
0.00373348
0.0037312
0.00371947
0.00373356
0.00371599
0.00371953
0.00373281
0.00371533
0.00371606
0.0037312
0.00373348
0.00371947
0.00373357
0.00371954
0.00371599