/*--------------------------------*- C++ -*----------------------------------*\
| =========                 |                                                 |
| \\      /  F ield         | OpenFOAM: The Open Source CFD Toolbox           |
|  \\    /   O peration     | Version:  2206                                  |
|   \\  /    A nd           | Website:  www.openfoam.com                      |
|    \\/     M anipulation  |                                                 |
\*---------------------------------------------------------------------------*/
FoamFile
{
    version     2.0;
    format      ascii;
    arch        "LSB;label=32;scalar=64";
    class       volScalarField;
    location    "29";
    object      Uy;
}
// * * * * * * * * * * * * * * * * * * * * * * * * * * * * * * * * * * * * * //

dimensions      [0 1 -1 0 0 0 0];

internalField   nonuniform List<scalar> 
171728
(
0.000107864
0.000119392
-0.000190302
-0.000239452
9.45123e-05
9.70893e-05
-0.000159452
-0.000200921
9.61256e-05
9.4152e-05
-0.000156862
-0.000201114
9.42102e-05
9.09659e-05
-0.000153802
-0.000195838
8.82663e-05
8.19959e-05
-0.000141161
-0.000186432
7.27825e-05
6.44962e-05
-0.000115846
-0.00016297
3.74119e-05
3.20918e-05
-5.17625e-05
-9.09401e-05
1.02093e-05
1.05315e-05
-1.41978e-05
-5.66549e-05
5.87766e-07
1.8474e-06
-1.99003e-06
-4.59039e-05
-6.6828e-07
8.27276e-07
-5.63151e-07
-4.48946e-05
-7.43948e-07
7.7719e-07
-5.079e-07
-4.4854e-05
-7.5442e-07
7.75841e-07
-5.0983e-07
-4.48547e-05
-7.55585e-07
7.73494e-07
-5.09462e-07
-4.48549e-05
-7.55297e-07
7.73166e-07
-5.09088e-07
-4.48543e-05
-7.53246e-07
7.79e-07
-5.09145e-07
-4.48536e-05
-7.51144e-07
7.82766e-07
-5.08873e-07
-4.48529e-05
-7.53562e-07
7.77966e-07
-5.08607e-07
-4.48534e-05
-7.51633e-07
7.80232e-07
-5.07689e-07
-4.48527e-05
-7.43197e-07
7.93086e-07
-5.0708e-07
-4.48526e-05
-7.45975e-07
7.67605e-07
-5.062e-07
-4.48521e-05
-7.48891e-07
7.80797e-07
-5.09523e-07
-4.48548e-05
-7.54794e-07
7.75885e-07
-5.09625e-07
-4.48546e-05
-7.54413e-07
7.74998e-07
-5.10419e-07
-4.4855e-05
-7.5479e-07
7.744e-07
-5.09788e-07
-4.48545e-05
-7.55193e-07
7.7409e-07
-5.09594e-07
-4.48542e-05
-7.55676e-07
7.73511e-07
-5.09487e-07
-4.48544e-05
-7.55038e-07
7.73911e-07
-5.10295e-07
-4.48549e-05
-7.54481e-07
7.74765e-07
-5.10132e-07
-4.4855e-05
-7.53152e-07
7.75021e-07
-5.11189e-07
-4.48559e-05
-7.53271e-07
7.75322e-07
-5.10632e-07
-4.48557e-05
-7.5389e-07
7.7579e-07
-5.10467e-07
-4.48551e-05
-7.53788e-07
7.74724e-07
-5.0986e-07
-4.48552e-05
-7.5493e-07
7.73726e-07
-5.09012e-07
-4.48543e-05
-7.54033e-07
7.74012e-07
-5.09177e-07
-4.48544e-05
-7.54135e-07
7.73833e-07
-5.09297e-07
-4.48548e-05
-7.5366e-07
7.74081e-07
-5.10381e-07
-4.48555e-05
-7.53372e-07
7.74553e-07
-5.105e-07
-4.48557e-05
-7.53108e-07
7.74252e-07
-5.10934e-07
-4.48558e-05
-7.53873e-07
7.74336e-07
-5.10381e-07
-4.48555e-05
-7.53879e-07
7.73601e-07
-5.10001e-07
-4.48569e-05
-7.49191e-07
7.72431e-07
-5.08975e-07
-4.48554e-05
-7.52074e-07
7.83916e-07
-5.07015e-07
-4.48525e-05
-7.52457e-07
7.75651e-07
-5.0817e-07
-4.4854e-05
-7.5357e-07
7.75925e-07
-5.07946e-07
-4.48546e-05
-7.52927e-07
7.7648e-07
-5.08699e-07
-4.48554e-05
-7.53706e-07
7.76379e-07
-5.08342e-07
-4.48551e-05
-7.54628e-07
7.76018e-07
-5.08423e-07
-4.48554e-05
-7.55239e-07
7.75701e-07
-5.07497e-07
-4.48546e-05
-7.55555e-07
7.75102e-07
-5.07096e-07
-4.48539e-05
-7.55622e-07
7.75548e-07
-5.07348e-07
-4.4854e-05
-7.55405e-07
7.75551e-07
-5.07467e-07
-4.48541e-05
-7.54381e-07
7.76285e-07
-5.08577e-07
-4.4855e-05
-7.5481e-07
7.7564e-07
-5.08309e-07
-4.48547e-05
-7.55636e-07
7.72931e-07
-5.09262e-07
-4.48561e-05
-7.57152e-07
7.66343e-07
-5.09237e-07
-4.48569e-05
-7.56622e-07
7.73771e-07
-5.07432e-07
-4.48547e-05
-7.57686e-07
7.73636e-07
-5.05447e-07
-4.48528e-05
-7.57869e-07
7.72534e-07
-5.04723e-07
-4.48518e-05
-7.57135e-07
7.73239e-07
-5.05363e-07
-4.48521e-05
-7.56883e-07
7.72937e-07
-5.05339e-07
-4.48521e-05
-7.56471e-07
7.7394e-07
-5.05767e-07
-4.48525e-05
-7.56796e-07
7.73479e-07
-5.05492e-07
-4.48522e-05
-7.56719e-07
7.72895e-07
-5.04603e-07
-4.48515e-05
-7.57229e-07
7.72682e-07
-5.04141e-07
-4.48513e-05
-7.58038e-07
7.72247e-07
-5.03591e-07
-4.48504e-05
-7.57239e-07
7.72786e-07
-5.0434e-07
-4.4851e-05
-7.57236e-07
7.72635e-07
-5.0418e-07
-4.48511e-05
-7.56341e-07
7.73588e-07
-5.05372e-07
-4.48514e-05
-7.54805e-07
7.74977e-07
-5.01408e-07
-4.48488e-05
-7.53153e-07
7.75778e-07
-4.91623e-07
-4.48422e-05
-7.54802e-07
7.74912e-07
-5.01423e-07
-4.48468e-05
-7.57143e-07
7.72987e-07
-5.03701e-07
-4.48498e-05
-7.57598e-07
7.72944e-07
-5.03437e-07
-4.48509e-05
-7.57781e-07
7.71982e-07
-5.03892e-07
-4.48508e-05
-7.57108e-07
7.72952e-07
-5.0471e-07
-4.48516e-05
-7.57047e-07
7.72869e-07
-5.04736e-07
-4.48519e-05
-7.5654e-07
7.73309e-07
-5.05578e-07
-4.48521e-05
-7.56539e-07
7.73742e-07
-5.05217e-07
-4.48521e-05
-7.57208e-07
7.72805e-07
-5.03839e-07
-4.48512e-05
-7.57406e-07
7.72545e-07
-5.04147e-07
-4.48511e-05
-7.57774e-07
7.72618e-07
-5.03567e-07
-4.48506e-05
-7.57675e-07
7.72512e-07
-5.04191e-07
-4.4851e-05
-7.57265e-07
7.72769e-07
-5.04436e-07
-4.48515e-05
-7.56671e-07
7.73292e-07
-5.05254e-07
-4.4852e-05
-7.56858e-07
7.73009e-07
-5.05394e-07
-4.48521e-05
-7.57509e-07
7.72403e-07
-5.04351e-07
-4.48522e-05
-7.62028e-07
7.66896e-07
-4.9866e-07
-4.48496e-05
-7.72715e-07
7.54839e-07
-4.89784e-07
-4.48252e-05
-7.86396e-07
7.49166e-07
-5.12724e-07
-4.46533e-05
-7.66843e-07
9.11124e-07
-6.85957e-07
-4.45234e-05
-4.80895e-07
1.16056e-06
-1.16904e-06
-4.3711e-05
-3.89325e-07
1.73469e-06
-1.90948e-06
-4.31316e-05
-3.79059e-07
3.0114e-06
-3.53305e-06
-4.00822e-05
-5.73611e-06
3.38108e-06
-2.34021e-06
-2.6663e-05
-4.13489e-05
-3.40383e-05
4.18159e-05
4.67837e-05
0.000135076
0.000152822
0.000152803
0.000135044
0.000124156
-0.000124174
9.0816e-05
9.08134e-05
-9.0862e-05
-9.08602e-05
0.000124153
-0.000124169
-0.000135095
-0.000152852
-0.000152835
-0.000135069
0.000239454
0.000111594
0.000190202
0.000190243
0.000147389
0.000147385
0.000239403
0.000111562
0.000119411
-0.000119472
8.91923e-05
-8.92125e-05
-0.000119475
8.91938e-05
-8.92066e-05
-0.000239497
-0.000111686
-0.000190332
-0.000147327
-0.000147353
-0.000111689
0.000200789
0.000106005
0.00015951
0.000159506
0.000156836
0.000156837
0.000200757
0.000105999
9.70828e-05
-9.70949e-05
9.41298e-05
-9.41324e-05
-9.70896e-05
9.41377e-05
-9.4122e-05
-0.000200929
-0.000106063
-0.000159478
-0.00015679
-0.000156809
-0.000106072
0.000201001
9.71613e-05
0.000156911
0.000156908
0.000150618
0.000150607
0.000200987
9.71504e-05
9.41471e-05
-9.4143e-05
8.89788e-05
-8.89637e-05
-9.41352e-05
8.89689e-05
-8.89665e-05
-0.000201121
-9.72065e-05
-0.000156884
-0.000150556
-0.000150564
-9.72329e-05
0.000195726
8.81852e-05
0.000153858
0.000153851
0.000143931
0.000143917
0.000195705
8.81825e-05
9.09765e-05
-9.09626e-05
8.39159e-05
-8.38958e-05
-9.0965e-05
8.39054e-05
-8.39018e-05
-0.00019583
-8.82239e-05
-0.000153808
-0.000143876
-0.000143874
-8.82572e-05
0.000186317
7.41604e-05
0.00014121
0.000141208
0.000132325
0.000132313
0.000186307
7.41493e-05
8.20043e-05
-8.19967e-05
7.5517e-05
-7.54685e-05
-8.19989e-05
7.55117e-05
-7.54781e-05
-0.00018642
-7.41926e-05
-0.000141158
-0.000132254
-0.000132246
-7.42263e-05
0.000162886
4.44861e-06
0.000115933
0.000115917
6.42704e-05
6.42841e-05
0.000162872
4.42606e-06
6.45092e-05
-6.45044e-05
3.76963e-05
-3.77416e-05
-6.44697e-05
3.76871e-05
-3.77295e-05
-0.000162972
-4.44479e-06
-0.000115826
-6.42693e-05
-6.42525e-05
-4.4012e-06
9.09236e-05
-3.22651e-05
5.17562e-05
5.17656e-05
2.12479e-05
2.12643e-05
9.08887e-05
-3.22689e-05
3.20951e-05
-3.21466e-05
1.52415e-05
-1.52752e-05
-3.21353e-05
1.52362e-05
-1.52751e-05
-9.09606e-05
3.22844e-05
-5.17573e-05
-2.12431e-05
-2.12519e-05
3.22722e-05
5.66114e-05
-4.54321e-05
1.42027e-05
1.42215e-05
3.31969e-06
3.33473e-06
5.66017e-05
-4.54271e-05
1.0537e-05
-1.05687e-05
2.81411e-06
-2.83821e-06
-1.05683e-05
2.81002e-06
-2.83695e-06
-5.66602e-05
4.54582e-05
-1.42003e-05
-3.30567e-06
-3.30488e-06
4.54451e-05
4.58682e-05
-4.68693e-05
2.00421e-06
2.0191e-06
6.6821e-07
6.74003e-07
4.58645e-05
-4.68686e-05
1.85237e-06
-1.87481e-06
8.98048e-07
-9.15918e-07
-1.87218e-06
8.94442e-07
-9.13467e-07
-4.59085e-05
4.69039e-05
-1.98542e-06
-6.44929e-07
-6.42639e-07
4.68908e-05
4.48671e-05
-4.69164e-05
5.87045e-07
5.96121e-07
5.4567e-07
5.38394e-07
4.48585e-05
-4.69312e-05
8.34192e-07
-8.49477e-07
7.91296e-07
-7.97568e-07
-8.46434e-07
7.79635e-07
-7.96837e-07
-4.48994e-05
4.69685e-05
-5.57627e-07
-5.06654e-07
-5.05175e-07
4.69536e-05
4.48423e-05
-4.6934e-05
5.42109e-07
5.43531e-07
5.2924e-07
5.34558e-07
4.48193e-05
-4.69319e-05
7.89126e-07
-7.96429e-07
7.77757e-07
-7.97381e-07
-7.94952e-07
7.7645e-07
-7.95011e-07
-4.48572e-05
4.69661e-05
-5.03616e-07
-5.06422e-07
-5.04789e-07
4.69528e-05
4.48226e-05
-4.69335e-05
5.31826e-07
5.41225e-07
5.27117e-07
5.4292e-07
4.48181e-05
-4.69334e-05
7.79873e-07
-7.99032e-07
7.77468e-07
-7.98608e-07
-7.95208e-07
7.74385e-07
-7.94886e-07
-4.48598e-05
4.69648e-05
-5.05149e-07
-5.06922e-07
-5.07567e-07
4.69521e-05
4.48239e-05
-4.69341e-05
5.29355e-07
5.4742e-07
5.25135e-07
5.45373e-07
4.48163e-05
-4.69353e-05
7.7999e-07
-7.99582e-07
7.7748e-07
-7.9898e-07
-7.94657e-07
7.72983e-07
-7.93685e-07
-4.48604e-05
4.69646e-05
-5.0801e-07
-5.06167e-07
-5.08644e-07
4.69529e-05
4.4827e-05
-4.69318e-05
5.3079e-07
5.44743e-07
5.28588e-07
5.39506e-07
4.48156e-05
-4.69315e-05
7.82673e-07
-7.99951e-07
7.80616e-07
-7.98638e-07
-7.93417e-07
7.76999e-07
-7.93103e-07
-4.48607e-05
4.6965e-05
-5.07958e-07
-5.06304e-07
-5.06042e-07
4.69539e-05
4.48309e-05
-4.69319e-05
5.33116e-07
5.40222e-07
5.30707e-07
5.4997e-07
4.4822e-05
-4.69146e-05
7.81049e-07
-7.99404e-07
7.80082e-07
-7.97872e-07
-7.92863e-07
7.86698e-07
-7.92149e-07
-4.48603e-05
4.69658e-05
-5.05009e-07
-5.06128e-07
-5.04028e-07
4.69548e-05
4.48301e-05
-4.69325e-05
5.34592e-07
5.43503e-07
5.27568e-07
5.35709e-07
4.48349e-05
-4.69356e-05
7.8094e-07
-7.98615e-07
7.78637e-07
-7.97556e-07
-7.92224e-07
7.77425e-07
-7.93164e-07
-4.48597e-05
4.69662e-05
-5.03652e-07
-5.0584e-07
-5.03846e-07
4.69541e-05
4.48282e-05
-4.69313e-05
5.33408e-07
5.35872e-07
5.27928e-07
5.33902e-07
4.48168e-05
-4.69355e-05
7.79385e-07
-7.98402e-07
7.79452e-07
-7.96408e-07
-7.93296e-07
7.78326e-07
-7.92373e-07
-4.48592e-05
4.69673e-05
-5.03596e-07
-5.05084e-07
-5.02781e-07
4.69551e-05
4.48285e-05
-4.69186e-05
5.33819e-07
5.36034e-07
5.3893e-07
5.46673e-07
4.48188e-05
-4.69176e-05
7.81337e-07
-7.96912e-07
7.87509e-07
-7.94721e-07
-7.9201e-07
7.8902e-07
-7.91155e-07
-4.48584e-05
4.69685e-05
-5.02555e-07
-5.04519e-07
-5.03201e-07
4.69557e-05
4.48456e-05
-4.69195e-05
5.48961e-07
5.51717e-07
5.34596e-07
5.41178e-07
4.48381e-05
-4.69297e-05
7.91707e-07
-7.95318e-07
7.86994e-07
-7.94421e-07
-7.90916e-07
7.78091e-07
-7.91169e-07
-4.48578e-05
4.69683e-05
-5.04337e-07
-5.03146e-07
-5.10477e-07
4.69556e-05
4.48368e-05
-4.69232e-05
5.3376e-07
5.31528e-07
5.44316e-07
5.43903e-07
4.481e-05
-4.69316e-05
7.84317e-07
-7.95975e-07
7.78276e-07
-7.9717e-07
-7.92001e-07
7.7893e-07
-7.94558e-07
-4.48577e-05
4.69657e-05
-5.11502e-07
-5.05923e-07
-5.07352e-07
4.69527e-05
4.48309e-05
-4.69244e-05
5.42889e-07
5.37047e-07
5.31971e-07
5.36375e-07
4.48188e-05
-4.69332e-05
7.79377e-07
-7.98396e-07
7.78854e-07
-7.97969e-07
-7.94641e-07
7.75203e-07
-7.94228e-07
-4.48597e-05
4.69651e-05
-5.06505e-07
-5.06754e-07
-5.068e-07
4.69527e-05
4.48261e-05
-4.69273e-05
5.28488e-07
5.37314e-07
5.3173e-07
5.36997e-07
4.4819e-05
-4.69327e-05
7.78168e-07
-7.9921e-07
7.76512e-07
-7.98503e-07
-7.94628e-07
7.75089e-07
-7.95317e-07
-4.486e-05
4.69647e-05
-5.05967e-07
-5.07594e-07
-5.06195e-07
4.69521e-05
4.48244e-05
-4.69279e-05
5.28218e-07
5.36755e-07
5.30397e-07
5.37374e-07
4.48184e-05
-4.6933e-05
7.76749e-07
-7.99248e-07
7.75289e-07
-7.97874e-07
-7.95234e-07
7.74687e-07
-7.94802e-07
-4.48604e-05
4.69654e-05
-5.05224e-07
-5.07051e-07
-5.0422e-07
4.69528e-05
4.48237e-05
-4.69283e-05
5.28508e-07
5.3653e-07
5.30336e-07
5.37278e-07
4.48182e-05
-4.69326e-05
7.75912e-07
-7.98693e-07
7.74371e-07
-7.97429e-07
-7.94775e-07
7.74286e-07
-7.94391e-07
-4.48596e-05
4.69658e-05
-5.05047e-07
-5.06594e-07
-5.05824e-07
4.6953e-05
4.48234e-05
-4.6929e-05
5.27852e-07
5.36603e-07
5.29782e-07
5.36994e-07
4.48186e-05
-4.69327e-05
7.74947e-07
-7.98493e-07
7.73402e-07
-7.97548e-07
-7.94523e-07
7.73897e-07
-7.94391e-07
-4.48592e-05
4.69657e-05
-5.05808e-07
-5.06576e-07
-5.06404e-07
4.69528e-05
4.48226e-05
-4.69288e-05
5.27196e-07
5.36356e-07
5.30408e-07
5.37514e-07
4.48185e-05
-4.69323e-05
7.73996e-07
-7.98498e-07
7.73451e-07
-7.97999e-07
-7.94302e-07
7.74125e-07
-7.94706e-07
-4.48593e-05
4.69652e-05
-5.06133e-07
-5.07295e-07
-5.07261e-07
4.69524e-05
4.48232e-05
-4.69281e-05
5.28084e-07
5.36982e-07
5.30654e-07
5.3795e-07
4.48191e-05
-4.69316e-05
7.7442e-07
-7.99025e-07
7.7383e-07
-7.98099e-07
-7.94892e-07
7.74901e-07
-7.94719e-07
-4.48599e-05
4.6965e-05
-5.07211e-07
-5.0726e-07
-5.07508e-07
4.69522e-05
4.48239e-05
-4.6926e-05
5.28561e-07
5.37431e-07
5.32636e-07
5.38961e-07
4.48198e-05
-4.69311e-05
7.74927e-07
-7.98956e-07
7.75061e-07
-7.98262e-07
-7.94786e-07
7.74889e-07
-7.95419e-07
-4.486e-05
4.69647e-05
-5.07281e-07
-5.08178e-07
-5.08591e-07
4.69514e-05
4.4826e-05
-4.69258e-05
5.30311e-07
5.38605e-07
5.32875e-07
5.38805e-07
4.48204e-05
-4.69312e-05
7.76033e-07
-7.99317e-07
7.7516e-07
-7.97684e-07
-7.95533e-07
7.75092e-07
-7.9531e-07
-4.48605e-05
4.69651e-05
-5.08455e-07
-5.07849e-07
-5.08645e-07
4.69514e-05
4.48259e-05
-4.69269e-05
5.30202e-07
5.3823e-07
5.32025e-07
5.38562e-07
4.48199e-05
-4.69307e-05
7.75884e-07
-7.98629e-07
7.74508e-07
-7.98288e-07
-7.9536e-07
7.7426e-07
-7.94881e-07
-4.48598e-05
4.69645e-05
-5.08249e-07
-5.07982e-07
-5.08138e-07
4.69519e-05
4.48248e-05
-4.69261e-05
5.29453e-07
5.38313e-07
5.32393e-07
5.3837e-07
4.48196e-05
-4.69321e-05
7.75221e-07
-7.99053e-07
7.74827e-07
-7.97643e-07
-7.94713e-07
7.74053e-07
-7.94938e-07
-4.48604e-05
4.69655e-05
-5.0747e-07
-5.07437e-07
-5.08151e-07
4.69521e-05
4.48256e-05
-4.69279e-05
5.29755e-07
5.37857e-07
5.30698e-07
5.37972e-07
4.48175e-05
-4.69317e-05
7.75635e-07
-7.98489e-07
7.73698e-07
-7.97066e-07
-7.94932e-07
7.73986e-07
-7.94249e-07
-4.48595e-05
4.6966e-05
-5.07448e-07
-5.06723e-07
-5.07433e-07
4.69528e-05
4.48237e-05
-4.69266e-05
5.28127e-07
5.37156e-07
5.3165e-07
5.38588e-07
4.48164e-05
-4.69317e-05
7.74451e-07
-7.97919e-07
7.74636e-07
-7.97399e-07
-7.94266e-07
7.74371e-07
-7.94256e-07
-4.48588e-05
4.69658e-05
-5.06557e-07
-5.07121e-07
-5.07539e-07
4.69528e-05
4.48254e-05
-4.69269e-05
5.29204e-07
5.38057e-07
5.31623e-07
5.38593e-07
4.48165e-05
-4.6932e-05
7.75517e-07
-7.98267e-07
7.74399e-07
-7.97101e-07
-7.94171e-07
7.74094e-07
-7.94358e-07
-4.48593e-05
4.69659e-05
-5.06417e-07
-5.06876e-07
-5.07557e-07
4.69526e-05
4.48252e-05
-4.69269e-05
5.29001e-07
5.38064e-07
5.32167e-07
5.39611e-07
4.48162e-05
-4.69313e-05
7.75114e-07
-7.98172e-07
7.74865e-07
-7.98057e-07
-7.94606e-07
7.74133e-07
-7.95134e-07
-4.48592e-05
4.6965e-05
-5.06819e-07
-5.08084e-07
-5.08629e-07
4.69517e-05
4.48258e-05
-4.69272e-05
5.29707e-07
5.38954e-07
5.32326e-07
5.39802e-07
4.48168e-05
-4.69312e-05
7.75685e-07
-7.99004e-07
7.74844e-07
-7.97986e-07
-7.95264e-07
7.74798e-07
-7.9522e-07
-4.48602e-05
4.6965e-05
-5.07756e-07
-5.08187e-07
-5.08912e-07
4.69516e-05
4.48262e-05
-4.69273e-05
5.30189e-07
5.39296e-07
5.32495e-07
5.40069e-07
4.48169e-05
-4.69309e-05
7.75738e-07
-7.98999e-07
7.75092e-07
-7.98198e-07
-7.95281e-07
7.74358e-07
-7.953e-07
-4.48601e-05
4.69647e-05
-5.07978e-07
-5.08432e-07
-5.09034e-07
4.69515e-05
4.4827e-05
-4.69283e-05
5.30616e-07
5.39589e-07
5.31692e-07
5.39908e-07
4.4817e-05
-4.69309e-05
7.75929e-07
-7.99193e-07
7.74734e-07
-7.98025e-07
-7.95512e-07
7.74941e-07
-7.95092e-07
-4.48604e-05
4.69649e-05
-5.08227e-07
-5.08111e-07
-5.08758e-07
4.69516e-05
4.48266e-05
-4.69301e-05
5.30245e-07
5.39125e-07
5.29937e-07
5.40202e-07
4.48169e-05
-4.69311e-05
7.75153e-07
-7.98722e-07
7.73647e-07
-7.9769e-07
-7.94891e-07
7.74261e-07
-7.95474e-07
-4.486e-05
4.69652e-05
-5.07658e-07
-5.07404e-07
-5.11128e-07
4.69505e-05
4.48247e-05
-4.69358e-05
5.29573e-07
5.41132e-07
5.31423e-07
5.43593e-07
4.48177e-05
-4.69273e-05
7.73682e-07
-7.98689e-07
7.76001e-07
-7.97768e-07
-7.96148e-07
7.7141e-07
-7.95546e-07
-4.486e-05
4.69653e-05
-5.12372e-07
-5.07799e-07
-5.12829e-07
4.69513e-05
4.48273e-05
-4.69361e-05
5.39107e-07
5.37491e-07
5.24904e-07
5.49081e-07
4.48174e-05
-4.69222e-05
7.77589e-07
-7.97943e-07
7.72838e-07
-7.96236e-07
-7.94256e-07
7.81307e-07
-7.91922e-07
-4.48598e-05
4.69673e-05
-5.08316e-07
-5.05344e-07
-5.05953e-07
4.69552e-05
4.48283e-05
-4.69296e-05
5.33013e-07
5.50797e-07
5.28274e-07
5.37001e-07
4.48305e-05
-4.69329e-05
7.76257e-07
-7.97451e-07
7.77025e-07
-7.97292e-07
-7.91858e-07
7.76021e-07
-7.93112e-07
-4.48582e-05
4.69663e-05
-5.04902e-07
-5.06356e-07
-5.07392e-07
4.69536e-05
4.4832e-05
-4.69294e-05
5.33196e-07
5.37799e-07
5.27776e-07
5.37009e-07
4.48147e-05
-4.69334e-05
7.77664e-07
-7.9854e-07
7.76885e-07
-7.97959e-07
-7.93816e-07
7.76427e-07
-7.94416e-07
-4.48592e-05
4.69657e-05
-5.06436e-07
-5.06805e-07
-5.08174e-07
4.69526e-05
4.48322e-05
-4.69284e-05
5.32709e-07
5.36623e-07
5.28598e-07
5.36859e-07
4.48147e-05
-4.69334e-05
7.77837e-07
-7.9899e-07
7.77749e-07
-7.9859e-07
-7.94467e-07
7.76668e-07
-7.95119e-07
-4.48595e-05
4.6965e-05
-5.06515e-07
-5.07743e-07
-5.09274e-07
4.69519e-05
4.48332e-05
-4.69289e-05
5.34049e-07
5.37427e-07
5.28032e-07
5.36595e-07
4.48149e-05
-4.69336e-05
7.79081e-07
-7.99769e-07
7.77628e-07
-7.98453e-07
-7.95249e-07
7.76838e-07
-7.94988e-07
-4.48603e-05
4.69651e-05
-5.07345e-07
-5.0766e-07
-5.09255e-07
4.6952e-05
4.48323e-05
-4.69301e-05
5.33199e-07
5.36401e-07
5.26976e-07
5.35858e-07
4.48146e-05
-4.69343e-05
7.78456e-07
-7.99313e-07
7.77077e-07
-7.98316e-07
-7.94996e-07
7.76141e-07
-7.95162e-07
-4.486e-05
4.69653e-05
-5.06744e-07
-5.07494e-07
-5.0937e-07
4.69519e-05
4.48309e-05
-4.69314e-05
5.32059e-07
5.36043e-07
5.25679e-07
5.35068e-07
4.48141e-05
-4.69348e-05
7.77883e-07
-7.99353e-07
7.765e-07
-7.97815e-07
-7.9525e-07
7.76267e-07
-7.94595e-07
-4.48599e-05
4.69658e-05
-5.06967e-07
-5.06782e-07
-5.08545e-07
4.69524e-05
4.48296e-05
-4.69321e-05
5.30869e-07
5.35035e-07
5.25041e-07
5.34357e-07
4.48134e-05
-4.69354e-05
7.7744e-07
-7.98718e-07
7.76063e-07
-7.97651e-07
-7.9432e-07
7.75136e-07
-7.93909e-07
-4.48592e-05
4.6966e-05
-5.05904e-07
-5.06004e-07
-5.07468e-07
4.69533e-05
4.4829e-05
-4.69323e-05
5.30412e-07
5.34617e-07
5.25059e-07
5.34383e-07
4.48129e-05
-4.6935e-05
7.7704e-07
-7.9881e-07
7.75982e-07
-7.97979e-07
-7.93999e-07
7.75963e-07
-7.93979e-07
-4.48591e-05
4.69657e-05
-5.05559e-07
-5.06235e-07
-5.07378e-07
4.69532e-05
4.48289e-05
-4.69321e-05
5.30474e-07
5.34561e-07
5.25061e-07
5.34451e-07
4.4813e-05
-4.69348e-05
7.76971e-07
-7.98952e-07
7.76008e-07
-7.97901e-07
-7.94092e-07
7.7559e-07
-7.94001e-07
-4.48593e-05
4.69658e-05
-5.06039e-07
-5.06233e-07
-5.07059e-07
4.69531e-05
4.48292e-05
-4.69311e-05
5.30692e-07
5.34881e-07
5.26241e-07
5.35413e-07
4.48133e-05
-4.69342e-05
7.77249e-07
-7.98993e-07
7.76863e-07
-7.98373e-07
-7.94192e-07
7.76382e-07
-7.94652e-07
-4.48594e-05
4.69652e-05
-5.06188e-07
-5.07066e-07
-5.08071e-07
4.69522e-05
4.48301e-05
-4.69311e-05
5.31928e-07
5.35963e-07
5.26234e-07
5.35411e-07
4.4814e-05
-4.69343e-05
7.77995e-07
-7.99514e-07
7.76702e-07
-7.98471e-07
-7.94724e-07
7.76008e-07
-7.94672e-07
-4.48599e-05
4.6965e-05
-5.07438e-07
-5.0709e-07
-5.07828e-07
4.69523e-05
4.48297e-05
-4.69314e-05
5.31388e-07
5.35433e-07
5.25502e-07
5.33892e-07
4.48136e-05
-4.6936e-05
7.77519e-07
-7.99467e-07
7.76367e-07
-7.98894e-07
-7.94766e-07
7.74596e-07
-7.95938e-07
-4.48598e-05
4.69646e-05
-5.07336e-07
-5.07347e-07
-5.09214e-07
4.69509e-05
4.48291e-05
-4.69328e-05
5.30516e-07
5.32664e-07
5.23572e-07
5.21468e-07
4.48103e-05
-4.69519e-05
7.77119e-07
-8.00184e-07
7.74928e-07
-7.994e-07
-7.96587e-07
7.65492e-07
-7.97476e-07
-4.48601e-05
4.69641e-05
-5.0945e-07
-5.07829e-07
-5.10354e-07
4.69495e-05
4.48277e-05
-4.69323e-05
5.28794e-07
5.23907e-07
5.2424e-07
5.34334e-07
4.47939e-05
-4.69365e-05
7.75721e-07
-8.00221e-07
7.75392e-07
-7.9879e-07
-7.9735e-07
7.74824e-07
-7.95319e-07
-4.48603e-05
4.69651e-05
-5.10042e-07
-5.06099e-07
-5.09362e-07
4.69518e-05
4.48289e-05
-4.69318e-05
5.2973e-07
5.33672e-07
5.23735e-07
5.36855e-07
4.48112e-05
-4.69358e-05
7.76689e-07
-7.9976e-07
7.76115e-07
-7.98628e-07
-7.94617e-07
7.7414e-07
-7.92717e-07
-4.48598e-05
4.69652e-05
-5.10778e-07
-5.04092e-07
-5.17192e-07
4.6954e-05
4.48293e-05
-4.69317e-05
5.2892e-07
5.37485e-07
5.23067e-07
5.37498e-07
4.48121e-05
-4.69368e-05
7.77245e-07
-7.99765e-07
7.76542e-07
-7.98885e-07
-7.92236e-07
7.72729e-07
-7.91116e-07
-4.48598e-05
4.69651e-05
-5.18859e-07
-5.0298e-07
-5.17914e-07
4.69552e-05
4.48296e-05
-4.69308e-05
5.28455e-07
5.37811e-07
5.23701e-07
5.38578e-07
4.48113e-05
-4.69364e-05
7.7769e-07
-7.99982e-07
7.77282e-07
-7.99561e-07
-7.9102e-07
7.73435e-07
-7.90987e-07
-4.48599e-05
4.69644e-05
-5.18938e-07
-5.03485e-07
-5.18954e-07
4.6955e-05
4.48305e-05
-4.69305e-05
5.29238e-07
5.39106e-07
5.23929e-07
5.39031e-07
4.48117e-05
-4.69365e-05
7.7844e-07
-8.00735e-07
7.7771e-07
-7.99825e-07
-7.90975e-07
7.73157e-07
-7.90897e-07
-4.48608e-05
4.69641e-05
-5.19938e-07
-5.03591e-07
-5.19309e-07
4.69549e-05
4.48307e-05
-4.69301e-05
5.29347e-07
5.39304e-07
5.24288e-07
5.39788e-07
4.48115e-05
-4.69356e-05
7.78742e-07
-8.0081e-07
7.78006e-07
-7.99987e-07
-7.90913e-07
7.7391e-07
-7.91004e-07
-4.4861e-05
4.69638e-05
-5.2024e-07
-5.03808e-07
-5.19843e-07
4.69545e-05
4.48312e-05
-4.69303e-05
5.29872e-07
5.40391e-07
5.24047e-07
5.4024e-07
4.48126e-05
-4.69355e-05
7.79167e-07
-8.01145e-07
7.77893e-07
-8.00518e-07
-7.91108e-07
7.73911e-07
-7.9091e-07
-4.48613e-05
4.69633e-05
-5.20944e-07
-5.03957e-07
-5.19944e-07
4.69547e-05
4.48308e-05
-4.69301e-05
5.29359e-07
5.40324e-07
5.23876e-07
5.3962e-07
4.48124e-05
-4.69363e-05
7.78854e-07
-8.01441e-07
7.78085e-07
-7.99711e-07
-7.90801e-07
7.73111e-07
-7.9022e-07
-4.48616e-05
4.69643e-05
-5.20614e-07
-5.02977e-07
-5.19118e-07
4.69553e-05
4.48311e-05
-4.69306e-05
5.2928e-07
5.39869e-07
5.23516e-07
5.3951e-07
4.48117e-05
-4.69364e-05
7.79215e-07
-8.00629e-07
7.77755e-07
-7.99501e-07
-7.9028e-07
7.73081e-07
-7.90209e-07
-4.48606e-05
4.69645e-05
-5.20004e-07
-5.02775e-07
-5.18871e-07
4.69555e-05
4.48303e-05
-4.69316e-05
5.28686e-07
5.39457e-07
5.22265e-07
5.3828e-07
4.48115e-05
-4.69372e-05
7.78676e-07
-8.00339e-07
7.76825e-07
-7.98929e-07
-7.90058e-07
7.72382e-07
-7.89305e-07
-4.48604e-05
4.69653e-05
-5.19329e-07
-5.01785e-07
-5.17995e-07
4.69565e-05
4.48295e-05
-4.69308e-05
5.27869e-07
5.3865e-07
5.23203e-07
5.3923e-07
4.48108e-05
-4.69365e-05
7.78224e-07
-8.00019e-07
7.77409e-07
-7.99352e-07
-7.89316e-07
7.72986e-07
-7.89699e-07
-4.48598e-05
4.69647e-05
-5.18832e-07
-5.02446e-07
-5.18622e-07
4.69561e-05
4.48304e-05
-4.69307e-05
5.28821e-07
5.39582e-07
5.23189e-07
5.39122e-07
4.48115e-05
-4.69367e-05
7.78876e-07
-8.00465e-07
7.77377e-07
-7.99261e-07
-7.89945e-07
7.72742e-07
-7.89776e-07
-4.48604e-05
4.69647e-05
-5.19662e-07
-5.02341e-07
-5.18812e-07
4.69558e-05
4.48304e-05
-4.69298e-05
5.28777e-07
5.3949e-07
5.24092e-07
5.40075e-07
4.48112e-05
-4.69356e-05
7.78749e-07
-8.00321e-07
7.7802e-07
-7.99963e-07
-7.89816e-07
7.73571e-07
-7.89977e-07
-4.48602e-05
4.69637e-05
-5.19547e-07
-5.03596e-07
-5.19761e-07
4.69553e-05
4.48313e-05
-4.69286e-05
5.2979e-07
5.40603e-07
5.24897e-07
5.41046e-07
4.48123e-05
-4.69344e-05
7.79575e-07
-8.00897e-07
7.7898e-07
-7.98105e-07
-7.89875e-07
7.74953e-07
-7.88713e-07
-4.48612e-05
4.69657e-05
-5.20141e-07
-5.01672e-07
-5.1846e-07
4.69566e-05
4.48319e-05
-4.69275e-05
5.30659e-07
5.41536e-07
5.25561e-07
5.4178e-07
4.48129e-05
-4.69337e-05
7.80692e-07
-7.97941e-07
7.80276e-07
-7.9274e-07
-7.87781e-07
7.75624e-07
-7.84028e-07
-4.48574e-05
4.69729e-05
-5.17014e-07
-4.90082e-07
-5.09874e-07
4.69626e-05
4.48327e-05
-4.69282e-05
5.31058e-07
5.42167e-07
5.25225e-07
5.41335e-07
4.48134e-05
-4.69345e-05
7.81728e-07
-7.93279e-07
7.79947e-07
-7.95307e-07
-7.83123e-07
7.75873e-07
-7.84648e-07
-4.48504e-05
4.69686e-05
-5.06814e-07
-4.98474e-07
-5.13873e-07
4.69612e-05
4.48323e-05
-4.69305e-05
5.3014e-07
5.41086e-07
5.23199e-07
5.39475e-07
4.48128e-05
-4.69361e-05
7.80644e-07
-7.9743e-07
7.7754e-07
-7.98172e-07
-7.86256e-07
7.7323e-07
-7.88375e-07
-4.4857e-05
4.69657e-05
-5.15726e-07
-5.01584e-07
-5.19003e-07
4.69573e-05
4.48304e-05
-4.69308e-05
5.28614e-07
5.39629e-07
5.23092e-07
5.39299e-07
4.48118e-05
-4.69363e-05
7.787e-07
-7.99535e-07
7.77101e-07
-7.99191e-07
-7.8867e-07
7.73534e-07
-7.89434e-07
-4.48595e-05
4.69648e-05
-5.17129e-07
-5.02585e-07
-5.19684e-07
4.6956e-05
4.48302e-05
-4.69311e-05
5.28436e-07
5.3932e-07
5.22742e-07
5.38624e-07
4.48116e-05
-4.69372e-05
7.78304e-07
-8.0008e-07
7.76902e-07
-7.99034e-07
-7.8929e-07
7.71964e-07
-7.89246e-07
-4.48602e-05
4.6965e-05
-5.18607e-07
-5.01896e-07
-5.18459e-07
4.69562e-05
4.48301e-05
-4.69305e-05
5.28205e-07
5.38942e-07
5.23431e-07
5.3939e-07
4.48108e-05
-4.69362e-05
7.78304e-07
-8.00272e-07
7.77381e-07
-7.99753e-07
-7.89482e-07
7.73336e-07
-7.8998e-07
-4.48601e-05
4.69642e-05
-5.19567e-07
-5.02909e-07
-5.19649e-07
4.69554e-05
4.48308e-05
-4.69302e-05
5.29185e-07
5.39796e-07
5.23772e-07
5.39697e-07
4.48117e-05
-4.69361e-05
7.78874e-07
-8.00864e-07
7.77476e-07
-7.99623e-07
-7.90047e-07
7.72976e-07
-7.90204e-07
-4.48608e-05
4.69642e-05
-5.20638e-07
-5.02952e-07
-5.20079e-07
4.6955e-05
4.48309e-05
-4.69299e-05
5.29227e-07
5.40041e-07
5.24119e-07
5.40031e-07
4.48119e-05
-4.69359e-05
7.78794e-07
-8.00706e-07
7.77743e-07
-8.00493e-07
-7.90413e-07
7.7336e-07
-7.9048e-07
-4.48607e-05
4.69633e-05
-5.2117e-07
-5.03731e-07
-5.20614e-07
4.69547e-05
4.48312e-05
-4.69297e-05
5.29774e-07
5.40475e-07
5.24402e-07
5.40736e-07
4.48121e-05
-4.69351e-05
7.79163e-07
-8.01661e-07
7.77892e-07
-8.00317e-07
-7.90471e-07
7.73909e-07
-7.90341e-07
-4.48618e-05
4.69635e-05
-5.21433e-07
-5.03726e-07
-5.20537e-07
4.69547e-05
4.48313e-05
-4.69304e-05
5.29763e-07
5.40841e-07
5.23529e-07
5.39442e-07
4.48128e-05
-4.69364e-05
7.79201e-07
-8.01027e-07
7.77446e-07
-7.99248e-07
-7.90428e-07
7.73235e-07
-7.89818e-07
-4.48613e-05
4.69648e-05
-5.21442e-07
-5.02319e-07
-5.1947e-07
4.69554e-05
4.48305e-05
-4.69305e-05
5.28884e-07
5.39533e-07
5.23312e-07
5.39085e-07
4.48113e-05
-4.69367e-05
7.78729e-07
-8.00171e-07
7.77289e-07
-7.99261e-07
-7.89676e-07
7.72714e-07
-7.89581e-07
-4.486e-05
4.69647e-05
-5.2005e-07
-5.02454e-07
-5.19348e-07
4.69557e-05
4.48304e-05
-4.69309e-05
5.28699e-07
5.39366e-07
5.22926e-07
5.39161e-07
4.48111e-05
-4.69364e-05
7.78511e-07
-8.0033e-07
7.77073e-07
-7.99107e-07
-7.89686e-07
7.72968e-07
-7.89091e-07
-4.48603e-05
4.6965e-05
-5.20242e-07
-5.01851e-07
-5.1871e-07
4.69562e-05
4.48301e-05
-4.6931e-05
5.28344e-07
5.39267e-07
5.22865e-07
5.38857e-07
4.48115e-05
-4.69368e-05
7.78354e-07
-8.00094e-07
7.76826e-07
-7.99188e-07
-7.89166e-07
7.72809e-07
-7.89351e-07
-4.48599e-05
4.69648e-05
-5.19588e-07
-5.0237e-07
-5.19273e-07
4.69559e-05
4.483e-05
-4.69302e-05
5.28519e-07
5.392e-07
5.23407e-07
5.394e-07
4.48111e-05
-4.69363e-05
7.78268e-07
-8.00457e-07
7.7747e-07
-7.99248e-07
-7.89576e-07
7.72733e-07
-7.89799e-07
-4.48602e-05
4.69645e-05
-5.20266e-07
-5.02593e-07
-5.196e-07
4.69554e-05
4.48308e-05
-4.693e-05
5.28929e-07
5.39782e-07
5.24063e-07
5.4004e-07
4.48118e-05
-4.69359e-05
7.78799e-07
-8.00742e-07
7.77826e-07
-7.99628e-07
-7.89993e-07
7.73482e-07
-7.90312e-07
-4.48605e-05
4.69639e-05
-5.2065e-07
-5.03347e-07
-5.20536e-07
4.69548e-05
4.48311e-05
-4.69302e-05
5.2963e-07
5.40366e-07
5.24234e-07
5.40132e-07
4.4812e-05
-4.69358e-05
7.791e-07
-8.01563e-07
7.77609e-07
-7.99372e-07
-7.90455e-07
7.73439e-07
-7.90428e-07
-4.48611e-05
4.69636e-05
-5.21606e-07
-5.03813e-07
-5.20829e-07
4.69547e-05
4.48308e-05
-4.69303e-05
5.29562e-07
5.40301e-07
5.24613e-07
5.40728e-07
4.48121e-05
-4.69355e-05
7.787e-07
-8.02108e-07
7.78008e-07
-7.99123e-07
-7.9039e-07
7.74228e-07
-7.9114e-07
-4.48612e-05
4.6963e-05
-5.2159e-07
-5.04416e-07
-5.2153e-07
4.69544e-05
4.48306e-05
-4.69288e-05
5.28484e-07
5.39236e-07
5.27914e-07
5.43814e-07
4.48122e-05
-4.69346e-05
7.77811e-07
-8.02179e-07
7.80851e-07
-8.01177e-07
-7.89678e-07
7.76358e-07
-7.9392e-07
-4.48605e-05
4.69608e-05
-5.20722e-07
-5.07563e-07
-5.24788e-07
4.69533e-05
4.48281e-05
-4.6915e-05
5.22907e-07
5.33445e-07
5.36564e-07
5.52544e-07
4.48094e-05
-4.69204e-05
7.72633e-07
-7.97374e-07
7.88855e-07
-8.09245e-07
-7.84431e-07
7.84857e-07
-8.01682e-07
-4.48574e-05
4.69471e-05
-5.15019e-07
-5.16244e-07
-5.33336e-07
4.69396e-05
4.48036e-05
-4.6817e-05
5.14435e-07
5.2428e-07
5.28811e-07
5.45035e-07
4.47847e-05
-4.6823e-05
7.60111e-07
-7.84164e-07
7.84979e-07
-8.05985e-07
-7.71663e-07
7.80725e-07
-7.98113e-07
-4.48327e-05
4.68484e-05
-5.05715e-07
-5.09611e-07
-5.26165e-07
4.68408e-05
4.46305e-05
-4.65071e-05
5.37576e-07
5.46393e-07
4.10433e-07
4.26464e-07
4.4612e-05
-4.6512e-05
7.5455e-07
-7.7817e-07
7.33951e-07
-7.56249e-07
-7.6596e-07
7.29959e-07
-7.47907e-07
-4.46599e-05
4.6538e-05
-5.28937e-07
-3.91629e-07
-4.06236e-07
4.65313e-05
4.45005e-05
-4.61246e-05
7.11069e-07
7.19561e-07
1.29411e-08
2.64835e-08
4.44819e-05
-4.6131e-05
9.16761e-07
-9.38053e-07
4.2894e-07
-4.51269e-07
-9.27347e-07
4.25732e-07
-4.43982e-07
-4.45282e-05
4.61577e-05
-7.0305e-07
6.9514e-09
-5.17422e-09
4.61484e-05
4.36891e-05
-4.55839e-05
1.19052e-06
1.20207e-06
-5.28442e-07
-5.15725e-07
4.36709e-05
-4.55885e-05
1.16465e-06
-1.18743e-06
-1.6116e-08
-6.67189e-09
-1.17483e-06
-1.74575e-08
-7.94583e-10
-4.3715e-05
4.56184e-05
-1.18017e-06
5.48123e-07
5.44719e-07
4.56068e-05
4.31111e-05
-4.31981e-05
1.9351e-06
1.94245e-06
-1.91757e-06
-1.90297e-06
4.30921e-05
-4.3202e-05
1.73871e-06
-1.75551e-06
-1.19364e-06
1.18094e-06
-1.74558e-06
-1.18896e-06
1.17804e-06
-4.31354e-05
4.32354e-05
-1.91654e-06
1.94671e-06
1.93994e-06
4.32276e-05
4.00718e-05
-3.58683e-05
3.56013e-06
3.57739e-06
-6.70519e-06
-6.69587e-06
4.00627e-05
-3.588e-05
3.0084e-06
-3.02162e-06
-5.08907e-06
5.09363e-06
-3.01116e-06
-5.07245e-06
5.09547e-06
-4.0087e-05
3.58991e-05
-3.54373e-06