/*--------------------------------*- C++ -*----------------------------------*\
| =========                 |                                                 |
| \\      /  F ield         | OpenFOAM: The Open Source CFD Toolbox           |
|  \\    /   O peration     | Version:  2206                                  |
|   \\  /    A nd           | Website:  www.openfoam.com                      |
|    \\/     M anipulation  |                                                 |
\*---------------------------------------------------------------------------*/
FoamFile
{
    version     2.0;
    format      ascii;
    arch        "LSB;label=32;scalar=64";
    class       volScalarField;
    location    "28";
    object      p;
}
// * * * * * * * * * * * * * * * * * * * * * * * * * * * * * * * * * * * * * //

dimensions      [0 2 -2 0 0 0 0];

internalField   nonuniform List<scalar> 
28673
(
0.000505924
0.00050841
0.000463861
0.000463826
0.000463826
0.000466311
0.000421767
0.000421731
0.000421731
0.000424217
0.000379674
0.000379639
0.000379639
0.000382125
0.000337582
0.000337547
0.000337546
0.000340033
0.000295486
0.000295451
0.000295451
0.000297937
0.000253375
0.00025334
0.000253342
0.000255824
0.000211272
0.000211231
0.00021123
0.000213714
0.000169158
0.000169126
0.000169126
0.000171598
0.000127047
0.000127023
0.000127023
0.000129487
8.49385e-05
8.48962e-05
8.48946e-05
8.73288e-05
4.35035e-05
4.29523e-05
4.29494e-05
4.52515e-05
9.27624e-06
9.48856e-06
9.48625e-06
9.03347e-06
0.000516449
0.00051397
0.000516449
0.000471871
0.000505924
0.000505924
0.00047435
0.00047435
0.000508409
0.000471871
0.00047435
0.00047435
0.000505924
0.00047435
0.00047435
0.000471871
0.000505924
0.00047435
0.00047435
0.000471871
0.000466311
0.000429776
0.000463826
0.000463826
0.000432255
0.000432255
0.000466311
0.000429776
0.000463825
0.000463826
0.000432255
0.000432255
0.000463826
0.000432255
0.000432255
0.000466311
0.000429776
0.000463826
0.000432255
0.000432255
0.000429776
0.000424217
0.000387683
0.000421731
0.000421731
0.000390162
0.000390162
0.000424217
0.000387684
0.000421731
0.000421731
0.000390162
0.000390162
0.000421732
0.000390162
0.000390162
0.000424217
0.000387683
0.000421731
0.000390162
0.000390162
0.000387683
0.000382124
0.000345591
0.000379639
0.000379639
0.00034807
0.00034807
0.000382124
0.000345592
0.000379639
0.000379639
0.000348069
0.00034807
0.000379639
0.00034807
0.00034807
0.000382124
0.000345591
0.000379639
0.00034807
0.00034807
0.000345591
0.000340032
0.000303497
0.000337547
0.000337547
0.000305976
0.000305975
0.000340033
0.000303497
0.000337546
0.000337546
0.000305976
0.000305976
0.000337547
0.000305976
0.000305976
0.000340032
0.000303497
0.000337547
0.000305976
0.000305976
0.000303497
0.000297937
0.000261389
0.000295451
0.000295451
0.000263869
0.000263869
0.000297936
0.000261387
0.000295451
0.000295451
0.00026387
0.000263871
0.000295451
0.000263869
0.000263869
0.000297937
0.000261389
0.000295451
0.00026387
0.00026387
0.000261388
0.000255824
0.000219278
0.000253341
0.00025334
0.000221751
0.000221751
0.000255823
0.000219279
0.000253341
0.000253342
0.00022175
0.00022175
0.000253341
0.000221751
0.000221751
0.000255825
0.000219278
0.000253341
0.00022175
0.000221751
0.000219279
0.000213713
0.000177188
0.000211231
0.000211231
0.000179671
0.000179671
0.000213714
0.000177188
0.00021123
0.00021123
0.000179671
0.000179671
0.000211231
0.000179671
0.000179671
0.000213713
0.000177188
0.000211231
0.000179671
0.000179671
0.000177188
0.000171597
0.000135075
0.000169126
0.000169126
0.000137545
0.000137545
0.000171597
0.000135075
0.000169126
0.000169126
0.000137545
0.000137545
0.000169126
0.000137545
0.000137545
0.000171597
0.000135074
0.000169126
0.000137544
0.000137545
0.000135075
0.000129487
9.29652e-05
0.000127023
0.000127023
9.54266e-05
9.54271e-05
0.000129487
9.2966e-05
0.000127023
0.000127023
9.54261e-05
9.54258e-05
0.000127023
9.54266e-05
9.5426e-05
0.000129487
9.29643e-05
0.000127023
9.54255e-05
9.54257e-05
9.29645e-05
8.73299e-05
5.08872e-05
8.48959e-05
8.48963e-05
5.33547e-05
5.33553e-05
8.73298e-05
5.08881e-05
8.48953e-05
8.48947e-05
5.33529e-05
5.33524e-05
8.48953e-05
5.33541e-05
5.33521e-05
8.73293e-05
5.08847e-05
8.48948e-05
5.33515e-05
5.33508e-05
5.08844e-05
4.52551e-05
1.26885e-05
4.29541e-05
4.29542e-05
1.48985e-05
1.48977e-05
4.52555e-05
1.26883e-05
4.29522e-05
4.29508e-05
1.48964e-05
1.48929e-05
4.29501e-05
1.48951e-05
1.4891e-05
4.52521e-05
1.26839e-05
4.29488e-05
1.48931e-05
1.48925e-05
1.26827e-05
9.03741e-06
9.48978e-06
9.49006e-06
9.03855e-06
9.48813e-06
9.48564e-06
9.27614e-06
9.27395e-06
9.27363e-06
9.4847e-06
9.03454e-06
9.48538e-06
0.000492797
0.000508555
0.000508558
0.000492798
0.000508556
0.000492797
0.000492798
0.000492798
0.000505959
0.000505959
0.000474386
0.000474385
0.000474386
0.000474385
0.000492848
0.000508524
0.000505933
0.000495399
0.000508513
0.000492828
0.000495408
0.000492797
0.000492848
0.000505933
0.000495399
0.000508513
0.000495408
0.000492828
0.000508561
0.000508561
0.00049292
0.000492793
0.000492794
0.000450701
0.000466457
0.00046646
0.000450701
0.000466459
0.0004507
0.0004507
0.000466457
0.00046646
0.000450701
0.000463861
0.000463861
0.000463861
0.00043229
0.00043229
0.00043229
0.00043229
0.000450751
0.000466426
0.000463834
0.000453302
0.000466414
0.000450731
0.000453311
0.000466458
0.0004507
0.000450751
0.000463834
0.000466426
0.000453302
0.000466414
0.00045331
0.000450731
0.000466462
0.000466462
0.000450823
0.000450697
0.000450697
0.000408607
0.000424362
0.000424365
0.000408608
0.000424364
0.000408607
0.000408607
0.000424362
0.000424365
0.000408608
0.000421767
0.000421767
0.000421767
0.000390197
0.000390197
0.000390197
0.000390197
0.000408657
0.000424332
0.00042174
0.000411208
0.000424319
0.000408638
0.000411217
0.000424364
0.000408607
0.000408657
0.00042174
0.000424331
0.000411208
0.000424319
0.000411217
0.000408637
0.000424368
0.000424368
0.000408729
0.000408603
0.000408603
0.000366515
0.00038227
0.000382273
0.000366516
0.000382271
0.000366515
0.000366515
0.00038227
0.000382273
0.000366516
0.000379674
0.000379674
0.000379674
0.000348105
0.000348105
0.000348105
0.000348105
0.000366566
0.000382239
0.000379648
0.000369116
0.000382227
0.000366546
0.000369125
0.000382271
0.000366514
0.000366566
0.000379647
0.000382239
0.000369116
0.000382227
0.000369124
0.000366546
0.000382276
0.000382276
0.000366637
0.000366511
0.000366511
0.000324424
0.000340178
0.000340181
0.000324424
0.00034018
0.000324425
0.000324422
0.000340178
0.000340181
0.000324423
0.000337582
0.000337582
0.000337582
0.00030601
0.00030601
0.00030601
0.00030601
0.000324474
0.000340147
0.000337556
0.000327024
0.000340135
0.000324455
0.000327032
0.00034018
0.000324422
0.000324473
0.000337555
0.000340147
0.000327023
0.000340135
0.000327032
0.000324453
0.000340184
0.000340184
0.000324545
0.00032442
0.000324419
0.000282327
0.000298085
0.000298087
0.000282323
0.000298086
0.00028232
0.000282327
0.000298086
0.000298086
0.000282324
0.000295485
0.000295486
0.000295485
0.000263903
0.000263901
0.000263902
0.000263901
0.000282374
0.000298053
0.000295459
0.000284924
0.00029804
0.000282354
0.000284932
0.000298087
0.000282324
0.000282375
0.000295459
0.000298053
0.000284925
0.00029804
0.000284932
0.000282356
0.000298091
0.000298091
0.000282445
0.00028232
0.00028232
0.000240217
0.000255971
0.00025597
0.000240214
0.000255976
0.000240205
0.000240218
0.000255972
0.000255974
0.000240215
0.000253374
0.000253375
0.000253374
0.000221792
0.000221792
0.000221792
0.000221792
0.000240267
0.000255932
0.000253349
0.000242808
0.000255922
0.000240254
0.000242816
0.000255978
0.000240203
0.000240267
0.000253349
0.000255934
0.000242809
0.000255923
0.000242816
0.000240254
0.000255975
0.000255976
0.00024033
0.000240211
0.000240211
0.000198099
0.000213853
0.000213842
0.000198103
0.000213856
0.000198093
0.000198097
0.000213853
0.000213841
0.000198102
0.000211272
0.000211272
0.000211272
0.000179685
0.000179685
0.000179685
0.000179685
0.00019814
0.00021382
0.000211242
0.000200719
0.000213816
0.000198137
0.000200727
0.000213855
0.000198096
0.00019814
0.000211242
0.000213819
0.000200718
0.000213816
0.000200727
0.000198136
0.000213852
0.000213852
0.000198238
0.000198106
0.000198103
0.000156046
0.000171779
0.000171774
0.000155993
0.000171798
0.000155952
0.000156046
0.000171779
0.000171774
0.000155993
0.000169158
0.000169158
0.000169158
0.000137567
0.000137567
0.000137567
0.000137567
0.000156074
0.000171724
0.000169127
0.000158592
0.000171701
0.000156063
0.000158595
0.000171798
0.000155951
0.000156074
0.000169127
0.000171723
0.000158592
0.000171701
0.000158595
0.000156063
0.000171768
0.000171768
0.000156125
0.000156009
0.000156009
0.000113904
0.000129633
0.000129657
0.000113864
0.000129706
0.000113779
0.000113904
0.000129636
0.000129657
0.000113863
0.000127048
0.000127047
0.000127047
9.54373e-05
9.54365e-05
9.54364e-05
9.54365e-05
0.000113948
0.000129583
0.000127025
0.000116496
0.000129603
0.000113935
0.000116485
0.000129706
0.00011378
0.000113947
0.000127025
0.000129585
0.000116495
0.000129603
0.000116485
0.000113935
0.000129612
0.000129612
0.000114021
0.000113887
0.000113885
7.17183e-05
8.74864e-05
8.7511e-05
7.17189e-05
8.76412e-05
7.15011e-05
7.17167e-05
8.74858e-05
8.75101e-05
7.17175e-05
8.4938e-05
8.49375e-05
8.49376e-05
5.35941e-05
5.3595e-05
5.35921e-05
5.35923e-05
7.17776e-05
8.74205e-05
8.49128e-05
7.43787e-05
8.74612e-05
7.17881e-05
7.43854e-05
8.76362e-05
7.15046e-05
7.17765e-05
8.49119e-05
8.74194e-05
7.43771e-05
8.74606e-05
7.43844e-05
7.17858e-05
8.74485e-05
8.74488e-05
7.19012e-05
7.17464e-05
7.17465e-05
2.87119e-05
4.48754e-05
4.50267e-05
2.8026e-05
4.53015e-05
2.73816e-05
2.86985e-05
4.48672e-05
4.50207e-05
2.80184e-05
4.3504e-05
4.35007e-05
4.35006e-05
1.6355e-05
1.63542e-05
1.63514e-05
1.6351e-05
2.93453e-05
4.48852e-05
4.32116e-05
3.28559e-05
4.51533e-05
2.85759e-05
3.32516e-05
4.52865e-05
2.73891e-05
2.93454e-05
4.32089e-05
4.48833e-05
3.28531e-05
4.51532e-05
3.32491e-05
2.85777e-05
4.48134e-05
4.48128e-05
3.0301e-05
2.82424e-05
2.824e-05
5.35078e-06
6.30907e-06
6.33965e-06
9.39937e-08
3.36558e-06
-3.86986e-06
5.36861e-06
6.2896e-06
6.32569e-06
9.90503e-08
2.68778e-06
9.69995e-06
9.69818e-06
2.9845e-06
9.9866e-06
2.72431e-06
2.72368e-06
4.7425e-06
6.66401e-06
9.0667e-06
3.08602e-06
8.08104e-06
4.32969e-06
2.82685e-06
3.33099e-06
-3.86456e-06
4.74764e-06
9.06592e-06
6.66001e-06
3.08478e-06
8.08083e-06
2.82718e-06
4.33854e-06
3.13227e-06
3.12878e-06
2.97222e-06
2.95192e-06
2.96246e-06
0.000513848
0.000513878
0.000513846
0.000513844
0.000513844
0.000513846
0.000513878
0.000513848
0.000508556
0.000492797
0.000492797
0.000508561
0.00049292
0.000492794
0.000492794
0.000471748
0.000487507
0.000471748
0.000487507
0.00048736
0.000471745
0.000471745
0.000487511
0.000487511
0.000492797
0.000508555
0.000508558
0.000492798
0.000492848
0.000508525
0.000505933
0.000495399
0.000508513
0.000492828
0.000495408
0.000492848
0.000508524
0.000505933
0.000495399
0.000508513
0.000492828
0.000495408
0.000487508
0.000471749
0.000487505
0.000471748
0.000487508
0.000471749
0.000487505
0.000471748
0.000487462
0.000484874
0.000471779
0.000474358
0.000487475
0.000484883
0.000471799
0.000487462
0.000484874
0.000471779
0.000474359
0.000487474
0.000484883
0.000471799
0.00050856
0.00050856
0.00049292
0.000492793
0.000492793
0.000508557
0.000492797
0.000471748
0.000487507
0.00048736
0.000471745
0.000471745
0.00048751
0.00048751
0.000471748
0.000487507
0.000492849
0.000495399
0.000492828
0.000495408
0.000492798
0.000492799
0.000492849
0.000495399
0.000495408
0.000492829
0.000487509
0.000471749
0.000487506
0.000471748
0.000487463
0.000484874
0.000471779
0.000474359
0.000487475
0.000484883
0.000471799
0.000487509
0.000471749
0.000487506
0.000471748
0.000487463
0.000484875
0.000474359
0.000471779
0.000484883
0.000487475
0.000471799
0.000492797
0.000508555
0.000508558
0.000492798
0.000492848
0.000505933
0.000508524
0.000495399
0.000508513
0.000495408
0.000492828
0.000492797
0.000508555
0.000508558
0.000492798
0.000487462
0.000484874
0.000471779
0.000474358
0.000487474
0.000484883
0.000471799
0.000487508
0.000471749
0.000487505
0.000471748
0.000487462
0.000484875
0.000474358
0.000471779
0.000484883
0.000487475
0.000471799
0.000487508
0.000471749
0.000487505
0.000471748
0.00049292
0.000492795
0.000492794
0.000492797
0.000471748
0.000487507
0.00048736
0.000471745
0.000471744
0.000487511
0.000487511
0.000471748
0.000487507
0.000492848
0.000505933
0.000508525
0.000495399
0.000508512
0.000495408
0.000492828
0.000492798
0.000508558
0.000492798
0.000492797
0.000508555
0.000508558
0.000492798
0.000487462
0.000484875
0.000474359
0.000471779
0.000484883
0.000487475
0.000471799
0.000487462
0.000484874
0.000474359
0.000471779
0.000484883
0.000487475
0.000471799
0.000487508
0.000471749
0.000487505
0.000471749
0.000487508
0.000471749
0.000487505
0.000471749
0.000508556
0.000492797
0.000508556
0.000492797
0.00048736
0.000471744
0.000471745
0.000487511
0.000487511
0.000471748
0.000487507
0.000471748
0.000487507
0.000466458
0.000450701
0.000466458
0.000450701
0.000466462
0.000466462
0.000450823
0.000450697
0.000450697
0.000429653
0.000445411
0.000429653
0.000445411
0.000445264
0.00042965
0.00042965
0.000445415
0.000445415
0.000450701
0.000466457
0.00046646
0.000450701
0.000450751
0.000466426
0.000463834
0.000453302
0.000466414
0.000450731
0.00045331
0.000450751
0.000466426
0.000463834
0.000453302
0.000466414
0.000450731
0.000453311
0.000445412
0.000429654
0.000445409
0.000429653
0.000445412
0.000429654
0.000445409
0.000429653
0.000445366
0.000442778
0.000429684
0.000432263
0.000445379
0.000442787
0.000429704
0.000445366
0.000442778
0.000429684
0.000432264
0.000445378
0.000442787
0.000429704
0.000466462
0.000466462
0.000450823
0.000450697
0.000450697
0.000466459
0.0004507
0.000429653
0.000445411
0.000445264
0.00042965
0.00042965
0.000445414
0.000445414
0.000429653
0.000445411
0.000450751
0.000466426
0.000463834
0.000453302
0.000466414
0.000450731
0.00045331
0.0004507
0.000466457
0.00046646
0.000450701
0.000450751
0.000463834
0.000466426
0.000453302
0.000466414
0.00045331
0.000450731
0.000445412
0.000429654
0.000445409
0.000429653
0.000445366
0.000442778
0.000429684
0.000432263
0.000445378
0.000442787
0.000429704
0.000445412
0.000429654
0.000445409
0.000429653
0.000445366
0.000442778
0.000432263
0.000429684
0.000442787
0.000445378
0.000429704
0.000450701
0.000466457
0.00046646
0.000450701
0.000450751
0.000463834
0.000466426
0.000453302
0.000466414
0.000453311
0.000450731
0.000450701
0.000466457
0.00046646
0.000450701
0.000445366
0.000442778
0.000429684
0.000432263
0.000445378
0.000442787
0.000429704
0.000445412
0.000429654
0.000445409
0.000429653
0.000445366
0.000442778
0.000432264
0.000429684
0.000442787
0.000445378
0.000429704
0.000445412
0.000429654
0.000445409
0.000429653
0.000466462
0.000466462
0.000450823
0.000450697
0.000450697
0.000466458
0.000450701
0.000429653
0.000445411
0.000445264
0.00042965
0.000429649
0.000445414
0.000445415
0.000429653
0.000445411
0.000450751
0.000463834
0.000466426
0.000453302
0.000466414
0.00045331
0.000450731
0.000450701
0.000466457
0.00046646
0.000450701
0.000450701
0.000466457
0.00046646
0.000450701
0.000445366
0.000442778
0.000432263
0.000429684
0.000442787
0.000445378
0.000429704
0.000445366
0.000442778
0.000432263
0.000429684
0.000442787
0.000445378
0.000429704
0.000445412
0.000429654
0.000445409
0.000429654
0.000445412
0.000429654
0.000445409
0.000429654
0.000466458
0.000450701
0.000466459
0.000450701
0.000445264
0.00042965
0.00042965
0.000445415
0.000445415
0.000429653
0.000445411
0.000429653
0.000445411
0.000424364
0.000408607
0.000424364
0.000408607
0.000424368
0.000424368
0.000408729
0.000408603
0.000408603
0.000387561
0.000403317
0.000387561
0.000403317
0.00040317
0.000387557
0.000387557
0.000403321
0.000403321
0.000408607
0.000424363
0.000424365
0.000408607
0.000408657
0.000424332
0.00042174
0.000411208
0.000424319
0.000408638
0.000411217
0.000408657
0.000424332
0.00042174
0.000411208
0.000424319
0.000408637
0.000411217
0.000403319
0.000387562
0.000403316
0.000387561
0.000403319
0.000387562
0.000403316
0.000387561
0.000403273
0.000400685
0.000387592
0.00039017
0.000403285
0.000400693
0.000387611
0.000403273
0.000400685
0.000387592
0.000390171
0.000403285
0.000400694
0.000387611
0.000424368
0.000424368
0.000408729
0.000408603
0.000408603
0.000424364
0.000408606
0.000387561
0.000403317
0.00040317
0.000387557
0.000387558
0.000403321
0.000403321
0.000387561
0.000403318
0.000408658
0.000424331
0.00042174
0.000411208
0.000424319
0.000408638
0.000411217
0.000408607
0.000424362
0.000424365
0.000408608
0.000408657
0.00042174
0.000424331
0.000411208
0.000424319
0.000411217
0.000408638
0.000403319
0.000387561
0.000403316
0.00038756
0.000403273
0.000400685
0.000387591
0.00039017
0.000403285
0.000400693
0.000387611
0.000403319
0.000387561
0.000403316
0.00038756
0.000403273
0.000400685
0.00039017
0.000387591
0.000400693
0.000403285
0.000387611
0.000408607
0.000424363
0.000424365
0.000408608
0.000408658
0.00042174
0.000424331
0.000411208
0.000424319
0.000411217
0.000408637
0.000408607
0.000424362
0.000424365
0.000408608
0.000403273
0.000400685
0.000387592
0.00039017
0.000403285
0.000400694
0.000387611
0.000403319
0.000387562
0.000403316
0.000387561
0.000403273
0.000400685
0.000390171
0.000387592
0.000400694
0.000403285
0.000387612
0.000403319
0.000387562
0.000403316
0.000387561
0.000424367
0.000424367
0.000408729
0.000408603
0.000408603
0.000424364
0.000408607
0.00038756
0.000403318
0.00040317
0.000387557
0.000387557
0.000403321
0.000403321
0.00038756
0.000403317
0.000408658
0.00042174
0.000424331
0.000411208
0.000424319
0.000411217
0.000408637
0.000408607
0.000424362
0.000424365
0.000408608
0.000408607
0.000424362
0.000424365
0.000408608
0.000403273
0.000400685
0.00039017
0.000387591
0.000400693
0.000403285
0.000387611
0.000403273
0.000400685
0.00039017
0.000387592
0.000400693
0.000403285
0.000387611
0.000403319
0.000387561
0.000403316
0.000387561
0.000403318
0.000387562
0.000403316
0.000387561
0.000424364
0.000408607
0.000424364
0.000408607
0.00040317
0.000387557
0.000387557
0.000403321
0.000403321
0.000387561
0.000403317
0.000387561
0.000403317
0.000382271
0.000366515
0.000382271
0.000366515
0.000382275
0.000382275
0.000366637
0.000366511
0.000366511
0.000345469
0.000361226
0.000345469
0.000361225
0.000361078
0.000345466
0.000345465
0.00036123
0.000361229
0.000366515
0.00038227
0.000382273
0.000366516
0.000366566
0.000382239
0.000379648
0.000369116
0.000382227
0.000366546
0.000369124
0.000366566
0.000382239
0.000379648
0.000369116
0.000382227
0.000366546
0.000369125
0.000361228
0.00034547
0.000361224
0.000345469
0.000361228
0.00034547
0.000361225
0.000345469
0.000361181
0.000358593
0.0003455
0.000348078
0.000361193
0.000358602
0.00034552
0.000361181
0.000358593
0.0003455
0.000348079
0.000361194
0.000358602
0.00034552
0.000382275
0.000382275
0.000366638
0.000366512
0.000366512
0.000382272
0.000366515
0.000345469
0.000361226
0.000361078
0.000345466
0.000345466
0.00036123
0.00036123
0.000345469
0.000361227
0.000366565
0.000382239
0.000379647
0.000369116
0.000382226
0.000366545
0.000369124
0.000366515
0.00038227
0.000382273
0.000366516
0.000366565
0.000379647
0.000382239
0.000369116
0.000382227
0.000369124
0.000366546
0.000361227
0.00034547
0.000361224
0.000345469
0.000361181
0.000358593
0.0003455
0.000348078
0.000361193
0.000358601
0.000345519
0.000361227
0.00034547
0.000361224
0.000345469
0.000361181
0.000358593
0.000348078
0.0003455
0.000358601
0.000361193
0.000345519
0.000366515
0.00038227
0.000382273
0.000366516
0.000366566
0.000379648
0.000382239
0.000369116
0.000382227
0.000369125
0.000366546
0.000366515
0.00038227
0.000382273
0.000366516
0.000361181
0.000358593
0.0003455
0.000348079
0.000361194
0.000358602
0.00034552
0.000361228
0.00034547
0.000361225
0.000345469
0.000361181
0.000358593
0.000348079
0.0003455
0.000358602
0.000361193
0.00034552
0.000361228
0.00034547
0.000361224
0.000345469
0.000382275
0.000382275
0.000366637
0.000366511
0.000366511
0.000382271
0.000366515
0.000345469
0.000361225
0.000361079
0.000345465
0.000345465
0.000361229
0.000361229
0.000345469
0.000361225
0.000366566
0.000379647
0.000382239
0.000369116
0.000382227
0.000369124
0.000366546
0.000366515
0.00038227
0.000382273
0.000366516
0.000366515
0.00038227
0.000382273
0.000366516
0.000361181
0.000358593
0.000348078
0.0003455
0.000358601
0.000361193
0.000345519
0.000361181
0.000358593
0.000348078
0.0003455
0.000358602
0.000361193
0.00034552
0.000361227
0.00034547
0.000361224
0.000345469
0.000361227
0.00034547
0.000361224
0.000345469
0.000382272
0.000366515
0.000382272
0.000366515
0.000361078
0.000345466
0.000345466
0.00036123
0.00036123
0.000345469
0.000361226
0.000345469
0.000361226
0.00034018
0.000324423
0.00034018
0.000324422
0.000340184
0.000340183
0.000324545
0.000324419
0.000324419
0.000303377
0.000319134
0.000303376
0.000319133
0.000318986
0.000303374
0.000303373
0.000319137
0.000319137
0.000324424
0.000340178
0.000340181
0.000324426
0.000324474
0.000340147
0.000337555
0.000327024
0.000340135
0.000324454
0.000327032
0.000324474
0.000340147
0.000337556
0.000327024
0.000340135
0.000324455
0.000327032
0.000319136
0.000303378
0.000319133
0.000303376
0.000319136
0.000303378
0.000319135
0.000303376
0.000319089
0.000316501
0.000303407
0.000305984
0.000319101
0.000316509
0.000303426
0.000319089
0.000316501
0.000303407
0.000305984
0.000319103
0.000316509
0.000303426
0.000340184
0.000340184
0.000324546
0.000324421
0.000324421
0.00034018
0.000324425
0.000303377
0.000319136
0.000318986
0.000303374
0.000303374
0.000319139
0.000319139
0.000303377
0.000319136
0.000324473
0.000340147
0.000337555
0.000327023
0.000340134
0.000324453
0.000327031
0.000324422
0.000340178
0.000340181
0.000324423
0.000324473
0.000337555
0.000340147
0.000327023
0.000340134
0.000327031
0.000324453
0.000319135
0.000303377
0.000319131
0.000303376
0.000319088
0.0003165
0.000303407
0.000305984
0.000319101
0.000316508
0.000303426
0.000319135
0.000303377
0.000319131
0.000303376
0.000319088
0.0003165
0.000305984
0.000303407
0.000316508
0.0003191
0.000303426
0.000324424
0.000340178
0.000340181
0.000324426
0.000324474
0.000337556
0.000340147
0.000327024
0.000340135
0.000327032
0.000324454
0.000324424
0.000340178
0.000340181
0.000324424
0.000319089
0.000316501
0.000303408
0.000305984
0.000319103
0.000316509
0.000303426
0.000319136
0.000303378
0.000319135
0.000303376
0.000319089
0.000316501
0.000305984
0.000303407
0.000316509
0.000319102
0.000303426
0.000319136
0.000303378
0.000319133
0.000303376
0.000340183
0.000340184
0.000324545
0.000324419
0.000324419
0.00034018
0.000324422
0.000303375
0.000319132
0.000318986
0.000303372
0.000303373
0.000319136
0.000319136
0.000303376
0.000319132
0.000324474
0.000337555
0.000340147
0.000327024
0.000340135
0.000327032
0.000324454
0.000324424
0.000340178
0.000340181
0.000324423
0.000324424
0.000340178
0.000340181
0.000324424
0.000319088
0.0003165
0.000305984
0.000303407
0.000316509
0.0003191
0.000303426
0.000319088
0.000316501
0.000305984
0.000303407
0.000316509
0.000319102
0.000303426
0.000319135
0.000303377
0.000319131
0.000303376
0.000319135
0.000303378
0.000319133
0.000303376
0.00034018
0.000324423
0.00034018
0.000324423
0.000318986
0.000303374
0.000303374
0.000319138
0.000319138
0.000303377
0.000319134
0.000303377
0.000319134
0.000298087
0.000282322
0.000298087
0.000282323
0.000298091
0.00029809
0.000282445
0.00028232
0.000282321
0.000261259
0.000277033
0.00026126
0.000277035
0.000276883
0.00026126
0.000261262
0.000277036
0.000277038
0.000282327
0.000298085
0.000298087
0.000282321
0.000282374
0.000298053
0.000295459
0.000284924
0.00029804
0.000282356
0.000284932
0.000282374
0.000298053
0.000295459
0.000284924
0.00029804
0.000282354
0.000284932
0.000277033
0.000261263
0.000277031
0.000261267
0.000277033
0.000261262
0.00027703
0.000261267
0.000276985
0.000274398
0.000261301
0.000263877
0.000276998
0.000274406
0.000261317
0.000276985
0.000274398
0.0002613
0.000263877
0.000276997
0.000274406
0.000261317
0.00029809
0.00029809
0.000282444
0.000282318
0.000282319
0.000298087
0.00028232
0.000261258
0.000277031
0.000276882
0.00026126
0.00026126
0.000277034
0.000277034
0.000261258
0.000277032
0.000282375
0.000298053
0.000295459
0.000284925
0.000298039
0.000282356
0.000284932
0.000282327
0.000298085
0.000298086
0.000282325
0.000282375
0.00029546
0.000298053
0.000284925
0.000298039
0.000284933
0.000282357
0.000277035
0.000261265
0.000277033
0.000261271
0.000276986
0.000274399
0.000261303
0.000263878
0.000276998
0.000274407
0.00026132
0.000277035
0.000261266
0.000277034
0.000261271
0.000276986
0.000274399
0.000263878
0.000261303
0.000274407
0.000276999
0.00026132
0.000282327
0.000298085
0.000298087
0.000282321
0.000282374
0.000295459
0.000298053
0.000284924
0.00029804
0.000284932
0.000282355
0.000282327
0.000298085
0.000298087
0.000282322
0.000276984
0.000274398
0.0002613
0.000263876
0.000276997
0.000274406
0.000261317
0.000277033
0.000261263
0.00027703
0.000261267
0.000276984
0.000274398
0.000263877
0.000261301
0.000274406
0.000276998
0.000261317
0.000277033
0.000261263
0.000277031
0.000261267
0.00029809
0.000298091
0.000282446
0.000282322
0.000282322
0.000298087
0.000282324
0.000261261
0.000277036
0.000276884
0.000261263
0.000261262
0.000277038
0.000277038
0.00026126
0.000277035
0.000282375
0.000295459
0.000298054
0.000284924
0.000298039
0.000284932
0.000282356
0.000282328
0.000298085
0.000298087
0.000282325
0.000282328
0.000298086
0.000298086
0.000282323
0.000276985
0.000274399
0.000263877
0.000261302
0.000274407
0.000276999
0.000261318
0.000276985
0.000274398
0.000263877
0.000261301
0.000274406
0.000276998
0.000261318
0.000277034
0.000261265
0.000277033
0.000261268
0.000277034
0.000261263
0.000277031
0.000261268
0.000298087
0.000282322
0.000298088
0.000282322
0.000276883
0.00026126
0.00026126
0.000277036
0.000277036
0.000261258
0.000277033
0.000261259
0.000277033
0.000255976
0.000240205
0.000255977
0.000240205
0.000255976
0.000255977
0.00024033
0.000240211
0.000240211
0.000219168
0.000234913
0.000219167
0.000234913
0.000234761
0.000219173
0.000219173
0.000234908
0.000234908
0.000240217
0.00025597
0.00025597
0.000240215
0.000240267
0.000255933
0.000253349
0.000242809
0.000255923
0.000240254
0.000242816
0.000240267
0.000255932
0.000253349
0.000242808
0.000255922
0.000240254
0.000242816
0.000234903
0.000219172
0.000234902
0.000219185
0.000234903
0.000219172
0.000234903
0.000219185
0.000234859
0.000232278
0.000219207
0.000221759
0.000234864
0.000232287
0.000219217
0.000234859
0.000232278
0.000219207
0.000221759
0.000234864
0.000232287
0.000219217
0.000255975
0.000255975
0.000240331
0.000240211
0.000240211
0.000255976
0.000240204
0.000219168
0.000234914
0.000234761
0.000219174
0.000219174
0.000234908
0.000234908
0.000219167
0.000234913
0.000240267
0.000255934
0.00025335
0.000242809
0.000255924
0.000240255
0.000242817
0.000240218
0.000255972
0.000255974
0.000240215
0.000240267
0.00025335
0.000255935
0.000242809
0.000255924
0.000242817
0.000240255
0.000234903
0.000219172
0.000234903
0.000219184
0.000234858
0.000232278
0.000219206
0.000221758
0.000234864
0.000232287
0.000219217
0.000234903
0.000219171
0.000234902
0.000219184
0.000234858
0.000232278
0.000221758
0.000219205
0.000232287
0.000234864
0.000219217
0.000240217
0.00025597
0.00025597
0.000240215
0.000240267
0.000253349
0.000255932
0.000242808
0.000255922
0.000242816
0.000240254
0.000240217
0.00025597
0.00025597
0.000240214
0.000234858
0.000232278
0.000219207
0.000221759
0.000234864
0.000232287
0.000219218
0.000234903
0.000219172
0.000234902
0.000219185
0.000234858
0.000232278
0.000221759
0.000219207
0.000232287
0.000234864
0.000219218
0.000234903
0.000219172
0.000234902
0.000219185
0.000255977
0.000255977
0.00024033
0.000240212
0.000240211
0.000255977
0.000240204
0.000219166
0.000234912
0.000234762
0.000219173
0.000219173
0.000234908
0.000234908
0.000219167
0.000234913
0.000240267
0.000253349
0.000255933
0.000242808
0.000255923
0.000242816
0.000240254
0.000240217
0.000255972
0.000255971
0.000240214
0.000240218
0.000255971
0.000255971
0.000240215
0.000234859
0.000232278
0.000221758
0.000219206
0.000232287
0.000234864
0.000219217
0.000234858
0.000232278
0.000221759
0.000219207
0.000232287
0.000234864
0.000219217
0.000234903
0.000219172
0.000234902
0.000219185
0.000234903
0.000219172
0.000234902
0.000219185
0.000255976
0.000240204
0.000255976
0.000240205
0.000234761
0.000219174
0.000219174
0.000234908
0.000234908
0.000219168
0.000234913
0.000219168
0.000234914
0.000213856
0.000198095
0.000213855
0.000198092
0.000213851
0.000213851
0.000198238
0.000198104
0.000198104
0.000177014
0.000192841
0.000177014
0.000192841
0.000192673
0.000177037
0.000177036
0.000192834
0.000192834
0.000198098
0.000213854
0.000213842
0.000198103
0.00019814
0.00021382
0.000211242
0.000200719
0.000213816
0.000198137
0.000200727
0.00019814
0.00021382
0.000211242
0.000200719
0.000213816
0.000198137
0.000200727
0.000192851
0.000177033
0.000192831
0.000177015
0.000192851
0.000177033
0.000192831
0.000177015
0.000192801
0.000190198
0.000177081
0.00017967
0.000192797
0.000190207
0.000177099
0.0001928
0.000190198
0.000177081
0.00017967
0.000192796
0.000190207
0.000177098
0.000213852
0.000213852
0.000198238
0.000198105
0.000198104
0.000213856
0.000198097
0.000177015
0.000192841
0.000192673
0.000177039
0.000177039
0.000192835
0.000192834
0.000177015
0.000192842
0.00019814
0.000213819
0.000211242
0.000200718
0.000213815
0.000198138
0.000200727
0.000198098
0.000213853
0.000213841
0.000198103
0.00019814
0.000211242
0.000213818
0.000200718
0.000213816
0.000200727
0.000198138
0.000192851
0.000177032
0.000192831
0.000177015
0.0001928
0.000190198
0.00017708
0.00017967
0.000192798
0.000190207
0.000177098
0.000192851
0.000177033
0.000192831
0.000177015
0.0001928
0.000190198
0.00017967
0.000177081
0.000190207
0.000192796
0.000177098
0.000198098
0.000213854
0.000213842
0.000198103
0.00019814
0.000211242
0.00021382
0.000200719
0.000213816
0.000200727
0.000198137
0.000198098
0.000213854
0.000213842
0.000198102
0.000192801