/*--------------------------------*- C++ -*----------------------------------*\
| =========                 |                                                 |
| \\      /  F ield         | OpenFOAM: The Open Source CFD Toolbox           |
|  \\    /   O peration     | Version:  2206                                  |
|   \\  /    A nd           | Website:  www.openfoam.com                      |
|    \\/     M anipulation  |                                                 |
\*---------------------------------------------------------------------------*/
FoamFile
{
    version     2.0;
    format      ascii;
    arch        "LSB;label=32;scalar=64";
    class       volScalarField;
    location    "20";
    object      nut;
}
// * * * * * * * * * * * * * * * * * * * * * * * * * * * * * * * * * * * * * //

dimensions      [0 2 -1 0 0 0 0];

internalField   nonuniform List<scalar> 
28688
(
0.000233977
0.000233117
0.000233117
0.000233432
0.000232552
0.00022783
0.000227829
0.000223884
0.000230515
0.000220286
0.000220283
0.000209174
0.00022755
0.00021115
0.000211145
0.000193937
0.000225574
0.000206213
0.000206207
0.000183856
0.000226145
0.000208554
0.000208548
0.000187842
0.000226302
0.000209058
0.000209052
0.000188721
0.00022631
0.000209082
0.000209077
0.000188763
0.00022631
0.000209087
0.000209082
0.000188768
0.00022631
0.000209088
0.000209083
0.000188766
0.00022631
0.000209089
0.000209084
0.000188766
0.00022631
0.000209089
0.000209084
0.000188766
0.000234258
0.000234447
0.000234448
0.000234258
0.000234448
0.000234448
0.000234274
0.000234274
0.000234274
0.000234274
0.000234447
0.000234447
0.000234258
0.000234447
0.000234447
0.000234258
0.000233432
0.00022618
0.000233117
0.000233115
0.000229352
0.000229347
0.000233432
0.000226182
0.000233115
0.000233115
0.00022935
0.000229346
0.000233117
0.000229354
0.000229351
0.000233432
0.000226179
0.000233115
0.000229354
0.000229349
0.000226179
0.000223884
0.00021215
0.000227827
0.000227822
0.00022223
0.000222225
0.000223885
0.000212154
0.000227825
0.00022782
0.00022223
0.000222222
0.000227826
0.000222237
0.000222229
0.000223883
0.000212147
0.000227825
0.000222234
0.000222229
0.000212149
0.000209176
0.000197016
0.000220278
0.000220273
0.000213921
0.000213915
0.000209177
0.000197021
0.000220279
0.000220269
0.000213924
0.000213911
0.000220276
0.000213931
0.000213918
0.000209172
0.000197012
0.000220278
0.000213927
0.000213923
0.000197013
0.00019394
0.00018461
0.000211137
0.000211132
0.000206073
0.000206067
0.000193944
0.000184616
0.000211142
0.000211127
0.00020608
0.000206061
0.000211135
0.000206086
0.000206071
0.000193936
0.000184606
0.000211141
0.000206081
0.00020608
0.000184606
0.000183862
0.000187791
0.0002062
0.000206193
0.000208163
0.000208159
0.000183865
0.000187795
0.000206206
0.000206188
0.000208171
0.000208153
0.000206197
0.000208176
0.000208161
0.000183857
0.000187786
0.000206206
0.00020817
0.000208171
0.000187785
0.000187848
0.000188849
0.000208543
0.000208539
0.000209012
0.000209009
0.000187851
0.000188853
0.000208551
0.000208533
0.000209021
0.000209002
0.00020854
0.000209024
0.00020901
0.000187843
0.000188843
0.000208551
0.000209018
0.000209021
0.000188848
0.000188723
0.000188911
0.000209047
0.000209043
0.000209069
0.000209066
0.000188726
0.000188914
0.000209055
0.000209036
0.000209078
0.000209059
0.000209045
0.000209081
0.000209068
0.000188717
0.000188905
0.000209056
0.000209076
0.000209079
0.00018891
0.000188767
0.000188914
0.00020907
0.000209067
0.000209074
0.000209072
0.000188769
0.000188916
0.000209079
0.00020906
0.000209083
0.000209065
0.000209069
0.000209086
0.000209073
0.000188761
0.000188907
0.00020908
0.000209081
0.000209084
0.000188912
0.000188772
0.000188913
0.000209076
0.000209074
0.000209076
0.000209074
0.000188773
0.000188915
0.000209085
0.000209067
0.000209086
0.000209067
0.000209075
0.000209088
0.000209076
0.000188765
0.000188906
0.000209086
0.000209083
0.000209087
0.000188911
0.00018877
0.000188914
0.000209077
0.000209075
0.000209076
0.000209074
0.000188772
0.000188916
0.000209087
0.000209068
0.000209086
0.000209067
0.000209076
0.000209089
0.000209076
0.000188764
0.000188907
0.000209088
0.000209084
0.000209087
0.000188911
0.000188771
0.000188915
0.000209077
0.000209075
0.000209076
0.000209074
0.000188773
0.000188916
0.000209086
0.000209068
0.000209086
0.000209067
0.000209076
0.000209089
0.000209076
0.000188765
0.000188907
0.000209087
0.000209084
0.000209087
0.000188912
0.000188772
0.000188918
0.000209077
0.000209074
0.000209078
0.000188773
0.000209086
0.000209068
0.000209087
0.000209069
0.000209076
0.000209077
0.000188765
0.000188911
0.000209087
0.000209085
0.000209088
0.000188915
0.00023473
0.000234746
0.000234729
0.000234729
0.000235114
0.000234797
0.000234701
0.000234727
0.000235114
0.000234797
0.000234727
0.000234701
0.000234861
0.000233566
0.000233566
0.000104459
3.87462e-05
0.000129283
3.98207e-05
2.16835e-05
2.28272e-05
0.00010445
3.87422e-05
0.00012928
3.98172e-05
0.000233977
0.000233977
0.000233977
0.000232934
0.000232934
0.000232934
0.000232934
0.00020604
9.36372e-05
0.000233971
0.000231995
0.000222714
8.72612e-05
0.000233613
2.16824e-05
2.28263e-05
0.000206032
0.000233971
9.36384e-05
0.000231995
0.000222722
0.000233613
8.72648e-05
4.77918e-05
4.77793e-05
0.000231333
4.40406e-05
4.40315e-05
7.25171e-05
4.24393e-05
8.14022e-05
4.37606e-05
2.47778e-05
2.54615e-05
7.25018e-05
4.24358e-05
8.14007e-05
4.37568e-05
0.000232552
0.000232552
0.000232552
0.00023103
0.000231031
0.00023103
0.00023103
0.000167501
7.93795e-05
0.000232092
0.000226131
0.0001802
7.46519e-05
0.000231399
2.47762e-05
2.54598e-05
0.000167489
0.000232091
7.93743e-05
0.000226129
0.000180199
0.000231398
7.46546e-05
3.91719e-05
3.91611e-05
0.000219579
3.6621e-05
3.66105e-05
5.59981e-05
4.55543e-05
6.13508e-05
4.64029e-05
2.60181e-05
2.61116e-05
5.59937e-05
4.55517e-05
6.13532e-05
4.63999e-05
0.000230515
0.000230514
0.000230515
0.000228532
0.000228532
0.000228531
0.000228532
0.000138227
6.74409e-05
0.000228604
0.000218414
0.000148363
6.34596e-05
0.000227612
2.6016e-05
2.61095e-05
0.00013822
0.000228603
6.74344e-05
0.000218411
0.000148355
0.00022761
6.34622e-05
3.32732e-05
3.32646e-05
0.000204563
3.19436e-05
3.19348e-05
4.68523e-05
4.75213e-05
4.96941e-05
4.79853e-05
2.60557e-05
2.59212e-05
4.68531e-05
4.75182e-05
4.96916e-05
4.79822e-05
0.00022755
0.000227549
0.000227549
0.000225627
0.000225628
0.000225626
0.000225626
0.000117058
5.81572e-05
0.000223473
0.000208573
0.000124548
5.53189e-05
0.00022179
2.60535e-05
2.59189e-05
0.000117051
0.00022347
5.81502e-05
0.000208568
0.000124541
0.000221787
5.53118e-05
3.0491e-05
3.04831e-05
0.000188913
3.03845e-05
3.03767e-05
4.80776e-05
4.84952e-05
4.6687e-05
4.87384e-05
2.58307e-05
2.58392e-05
4.80759e-05
4.84917e-05
4.66887e-05
4.87351e-05
0.000225575
0.000225572
0.000225573
0.00022603
0.00022603
0.000226028
0.000226029
0.000115308
5.52363e-05
0.000219553
0.000206823
0.000113301
5.72748e-05
0.00021967
2.58283e-05
2.58365e-05
0.000115306
0.000219551
5.52387e-05
0.000206817
0.000113298
0.000219668
5.72761e-05
3.21206e-05
3.21128e-05
0.000185846
3.42231e-05
3.42157e-05
4.90346e-05
4.88902e-05
4.89315e-05
4.89001e-05
2.58616e-05
2.58628e-05
4.90397e-05
4.88871e-05
4.89358e-05
4.88968e-05
0.000226146
0.000226144
0.000226145
0.000226288
0.000226289
0.000226287
0.000226289
0.000117165
5.93935e-05
0.000220287
0.000208809
0.000116862
5.96912e-05
0.000220391
2.58588e-05
2.58602e-05
0.000117168
0.000220285
5.93928e-05
0.000208803
0.000116863
0.000220389
5.96925e-05
3.56874e-05
3.5681e-05
0.000188641
3.58555e-05
3.58491e-05
4.90705e-05
4.89017e-05
4.90569e-05
4.89009e-05
2.58634e-05
2.58633e-05
4.9077e-05
4.88985e-05
4.90639e-05
4.88976e-05
0.000226303
0.000226301
0.000226302
0.00022631
0.000226309
0.000226307
0.000226309
0.000117283
5.97642e-05
0.000220503
0.000209073
0.000117242
5.9789e-05
0.00022051
2.58608e-05
2.58606e-05
0.000117286
0.000220502
5.97674e-05
0.000209068
0.000117245
0.000220509
5.97913e-05
3.59069e-05
3.59004e-05
0.000188906
3.5911e-05
3.59045e-05
4.90747e-05
4.89016e-05
4.90652e-05
4.89008e-05
2.58635e-05
2.58633e-05
4.90818e-05
4.88983e-05
4.9073e-05
4.88975e-05
0.00022631
0.000226308
0.000226309
0.000226311
0.000226311
0.000226308
0.00022631
0.000117297
5.97767e-05
0.000220512
0.000209084
0.000117267
5.97954e-05
0.000220513
2.58608e-05
2.58606e-05
0.0001173
0.000220511
5.978e-05
0.000209079
0.00011727
0.000220512
5.9798e-05
3.59093e-05
3.59028e-05
0.000188906
3.59126e-05
3.59061e-05
4.90752e-05
4.89015e-05
4.90664e-05
4.89008e-05
2.58635e-05
2.58633e-05
4.90824e-05
4.88982e-05
4.90744e-05
4.88974e-05
0.000226311
0.000226309
0.00022631
0.00022631
0.000226311
0.000226309
0.00022631
0.000117299
5.97784e-05
0.000220514
0.000209088
0.000117271
5.97959e-05
0.000220514
2.58608e-05
2.58606e-05
0.000117303
0.000220512
5.97819e-05
0.000209083
0.000117275
0.000220513
5.97986e-05
3.59099e-05
3.59034e-05
0.000188912
3.59129e-05
3.59064e-05
4.90752e-05
4.89016e-05
4.90664e-05
4.89006e-05
2.58635e-05
2.58633e-05
4.90824e-05
4.88983e-05
4.90745e-05
4.88974e-05
0.000226311
0.000226309
0.00022631
0.00022631
0.000226311
0.000226309
0.00022631
0.000117298
5.97785e-05
0.000220514
0.000209089
0.000117271
5.9796e-05
0.000220514
2.58608e-05
2.58606e-05
0.000117302
0.000220512
5.9782e-05
0.000209084
0.000117275
0.000220513
5.97986e-05
3.59099e-05
3.59035e-05
0.000188912
3.59129e-05
3.59064e-05
4.90752e-05
4.89016e-05
4.90664e-05
4.8901e-05
2.58635e-05
2.58633e-05
4.90824e-05
4.88981e-05
4.90745e-05
4.88973e-05
0.000226311
0.000226309
0.00022631
0.00022631
0.000226311
0.000226309
0.00022631
0.000117299
5.97785e-05
0.000220514
0.000209089
0.00011727
5.9796e-05
0.000220514
2.58608e-05
2.58606e-05
0.000117303
0.000220512
5.97819e-05
0.000209084
0.000117273
0.000220513
5.97986e-05
3.59099e-05
3.59034e-05
0.000188912
3.59129e-05
3.59064e-05
4.90752e-05
4.89018e-05
4.90664e-05
4.89011e-05
2.58635e-05
2.58633e-05
4.90824e-05
4.88981e-05
4.90745e-05
4.88973e-05
0.000226311
0.000226309
0.00022631
0.000226311
0.000226313
0.000226309
0.000226311
0.000117298
5.97785e-05
0.000220514
0.000209089
0.00011727
5.9796e-05
0.000220514
2.58608e-05
2.58606e-05
0.000117302
0.000220512
5.97819e-05
0.000209084
0.000117274
0.000220513
5.97986e-05
3.59099e-05
3.59035e-05
0.000188912
3.59129e-05
3.59064e-05
0.000234861
0.000233564
0.000233566
2.32575e-05
0.000214159
2.32564e-05
0.000214162
0.000234442
5.135e-05
5.13316e-05
0.00022999
0.000229991
0.000235114
0.000234797
0.000234701
0.000234727
0.000235114
0.000234797
0.000234701
0.000234727
0.000234477
4.02625e-05
0.000218814
0.000147665
0.000234477
4.0262e-05
0.000218814
0.000147672
0.000233894
0.000234476
0.000100145
0.000234269
0.000233359
0.000234596
0.000228464
0.000233894
0.000234476
0.000100133
0.000234269
0.000233359
0.000234596
0.000228463
0.000234861
0.000233565
0.000233566
2.32572e-05
0.000214167
0.000234442
5.13418e-05
5.13371e-05
0.000229989
0.000229991
2.32571e-05
0.000214169
0.000235114
0.000234797
0.000234701
0.000234727
0.000235114
0.000234797
0.000234727
0.000234701
0.000234477
4.02593e-05
0.000218815
0.000147642
0.000233894
0.000234476
0.000100122
0.000234269
0.000233359
0.000234596
0.00022846
0.000234477
4.02588e-05
0.000218816
0.000147657
0.000233894
0.000234476
0.000234269
0.000100131
0.000234596
0.000233359
0.000228463
0.00023473
0.000234746
0.000234729
0.000234729
0.00023473
0.000234746
0.000234729
0.000234729
0.00023473
0.000234746
0.000234729
0.000234729
0.000234591
0.000234574
0.000234253
0.000234253
0.000234592
0.000234592
0.000234254
0.000234591
0.000234574
0.000234253
0.000234253
0.000234592
0.000234592
0.000234254
0.000234591
0.000234574
0.000234253
0.000234253
0.000234592
0.000234592
0.000234254
0.000234591
0.000234574
0.000234253
0.000234253
0.000234592
0.000234592
0.000234254
0.000235114
0.000234797
0.000234727
0.000234701
0.000233894
0.000234476
0.000100126
0.000234269
0.000233359
0.000234596
0.000228461
0.000234477
4.026e-05
0.000218818
0.000147657
0.000233894
0.000234476
0.000234269
0.000100138
0.000234596
0.000233359
0.000228463
0.000234477
4.02596e-05
0.000218816
0.000147664
0.000234861
0.000233566
0.000233566
2.32564e-05
0.000214163
0.000234442
5.13353e-05
5.13391e-05
0.000229991
0.000229993
2.32568e-05
0.000214171
0.000235114
0.000234797
0.000234727
0.000234701
0.000233894
0.000234476
0.000234269
0.000100133
0.000234596
0.00023336
0.000228462
0.000233894
0.000234476
0.000234269
0.000100123
0.000234596
0.000233359
0.000228461
0.000234477
4.02592e-05
0.000218818
0.000147643
0.000234477
4.0259e-05
0.000218814
0.000147629
0.000234442
5.13419e-05
5.13299e-05
0.000229992
0.000229992
2.32569e-05
0.000214169
2.32564e-05
0.000214164
2.16838e-05
2.28282e-05
2.16825e-05
2.28267e-05
4.77921e-05
4.77807e-05
0.000231334
4.40471e-05
4.40312e-05
2.44777e-05
2.33083e-05
2.44761e-05
2.3307e-05
0.000229678
4.01407e-05
4.01252e-05
4.31283e-05
4.31153e-05
0.000104473
3.87452e-05
0.00012927
3.98188e-05
0.000206044
9.36477e-05
0.000233971
0.000231994
0.000222708
8.72685e-05
0.000233613
0.000206046
9.36326e-05
0.000233971
0.00023199
0.000222705
8.72537e-05
0.000233613
9.85605e-05
4.19604e-05
4.0381e-05
8.53696e-05
9.8554e-05
4.19589e-05
4.03799e-05
8.53711e-05
0.00020019
0.000230748
8.09165e-05
0.000232674
8.56639e-05
0.000233183
0.000185468
0.00020019
0.000230744
8.09073e-05
0.000232674
8.56485e-05
0.000233183
0.00018547
4.77839e-05
4.77888e-05
0.000231334
4.40358e-05
4.40416e-05
2.16835e-05
2.28282e-05
2.44769e-05
2.33075e-05
0.000229678
4.01303e-05
4.01317e-05
4.31184e-05
4.31233e-05
2.44779e-05
2.33085e-05
0.000206033
9.36271e-05
0.000233971
0.000231991
0.000222707
8.72482e-05
0.000233613
0.000104453
3.87419e-05
0.000129299
3.98164e-05
0.000206034
0.000233971
9.363e-05
0.00023199
0.000222712
0.000233613
8.72488e-05
9.85591e-05
4.19566e-05
4.03775e-05
8.53615e-05
0.00020019
0.000230745
8.09019e-05
0.000232674
8.5648e-05
0.000233183
0.000185462
9.85597e-05
4.19557e-05
4.03769e-05
8.53605e-05
0.000200189
0.000230743
0.000232673
8.0898e-05
0.000233182
8.56456e-05
0.000185459
0.000104459
3.87428e-05
0.000129289
3.98194e-05
0.00020604
0.000233971
9.36403e-05
0.000231993
0.000222718
0.000233613
8.72619e-05
0.000104457
3.87432e-05
0.000129309
3.98178e-05
0.000200193
0.00023075
8.0912e-05
0.000232674
8.5662e-05
0.000233183
0.000185467
9.85596e-05
4.19589e-05
4.03787e-05
8.53652e-05
0.000200192
0.000230747
0.000232674
8.09153e-05
0.000233183
8.56603e-05
0.000185467
9.85649e-05
4.19578e-05
4.03789e-05
8.53663e-05
4.77804e-05
4.7789e-05
0.000231333
4.40314e-05
4.40466e-05
2.16829e-05
2.28273e-05
2.44755e-05
2.33062e-05
0.000229678
4.01245e-05
4.01383e-05
4.31156e-05
4.31243e-05
2.44768e-05
2.33075e-05
0.00020603
0.000233971
9.36268e-05
0.000231991
0.000222717
0.000233613
8.72506e-05
0.000104437
3.87423e-05
0.000129317
3.9818e-05
0.000104433
3.87417e-05
0.000129303
3.98169e-05
0.000200192
0.00023075
0.000232674
8.09152e-05
0.000233183
8.56564e-05
0.000185459
0.000200193
0.000230745
0.000232674
8.09062e-05
0.000233183
8.56477e-05
0.000185458
9.85752e-05
4.19574e-05
4.03785e-05
8.53592e-05
9.85745e-05
4.19568e-05
4.03771e-05
8.53589e-05
2.16833e-05
2.28273e-05
2.16824e-05
2.28267e-05
0.000229678
4.01381e-05
4.01263e-05
4.31296e-05
4.31146e-05
2.4477e-05
2.33077e-05
2.44761e-05
2.33071e-05
2.47786e-05
2.54626e-05
2.47768e-05
2.54608e-05
3.91738e-05
3.91606e-05
0.000219581
3.66252e-05
3.66114e-05
2.59526e-05
2.56239e-05
2.59511e-05
2.56221e-05
0.000216807
3.38566e-05
3.38404e-05
3.57732e-05
3.57593e-05
7.25189e-05
4.24382e-05
8.14048e-05
4.37594e-05
0.000167501
7.93807e-05
0.000232091
0.000226126
0.000180196
7.46538e-05
0.000231398
0.000167503
7.93657e-05
0.000232091
0.000226121
0.0001802
7.46483e-05
0.000231398
6.95333e-05
4.52256e-05
4.41629e-05
6.34171e-05
6.95364e-05
4.52252e-05
4.41615e-05
6.34195e-05
0.000162787
0.000224227
6.87552e-05
0.000229603
7.31147e-05
0.00023056
0.000152069
0.000162792
0.000224221
6.8755e-05
0.000229603
7.30971e-05
0.00023056
0.000152072
3.91644e-05
3.91717e-05
0.000219583
3.66152e-05
3.66255e-05
2.47787e-05
2.54626e-05
2.59521e-05
2.56231e-05
0.000216808
3.38446e-05
3.38529e-05
3.57626e-05
3.57693e-05
2.59529e-05
2.56239e-05
0.000167494
7.93636e-05
0.000232091
0.000226125
0.000180196
7.4644e-05
0.000231398
7.25e-05
4.24348e-05
8.13996e-05
4.37558e-05
0.00016749
0.00023209
7.93648e-05
0.000226119
0.000180194
0.000231397
7.4636e-05
6.95433e-05
4.52226e-05
4.41596e-05
6.3409e-05
0.000162786
0.000224225
6.87487e-05
0.000229603
7.30978e-05
0.00023056
0.000152069
6.95424e-05
4.52212e-05
4.41577e-05
6.3407e-05
0.000162786
0.000224219
0.000229602
6.87416e-05
0.000230558
7.30963e-05
0.000152065
7.25115e-05
4.24376e-05
8.14054e-05
4.37592e-05
0.000167498
0.000232091
7.93744e-05
0.000226125
0.000180198
0.000231398
7.46544e-05
7.25146e-05
4.24371e-05
8.13995e-05
4.37578e-05
0.000162792
0.000224231
6.87562e-05
0.000229605
7.31123e-05
0.00023056
0.000152071
6.95387e-05
4.52248e-05
4.41611e-05
6.34167e-05
0.000162789
0.000224225
0.000229603
6.87603e-05
0.00023056
7.31028e-05
0.000152068
6.95365e-05
4.52234e-05
4.41599e-05
6.34149e-05
3.91615e-05
3.91729e-05
0.000219579
3.66159e-05
3.66223e-05
2.47779e-05
2.54612e-05
2.595e-05
2.56211e-05
0.000216805
3.38441e-05
3.3851e-05
3.57584e-05
3.57699e-05
2.59517e-05
2.56227e-05
0.000167493
0.000232091
7.93645e-05
0.000226124
0.000180201
0.000231398
7.46462e-05
7.24999e-05
4.24366e-05
8.14004e-05
4.37579e-05
7.25059e-05
4.24354e-05
8.1402e-05
4.37567e-05
0.000162789
0.00022423
0.000229603
6.87597e-05
0.00023056
7.31047e-05
0.000152067
0.000162791
0.000224226
0.000229603
6.87527e-05
0.000230559
7.30948e-05
0.000152069
6.95435e-05
4.52236e-05
4.41599e-05
6.34074e-05
6.95443e-05
4.52223e-05
4.41585e-05
6.34082e-05
2.47779e-05
2.5461e-05
2.47771e-05
2.54603e-05
0.000216806
3.385e-05
3.38403e-05
3.57671e-05
3.57582e-05
2.59516e-05
2.56226e-05
2.59508e-05
2.56218e-05
2.60186e-05
2.61122e-05
2.60169e-05
2.61105e-05
3.32738e-05
3.32664e-05
0.000204566
3.19423e-05
3.1936e-05
2.60896e-05
2.61201e-05
2.60876e-05
2.61182e-05
0.000201573
3.07753e-05
3.07623e-05
3.16554e-05
3.16529e-05
5.60004e-05
4.55536e-05
6.13534e-05
4.64027e-05
0.000138226
6.74409e-05
0.000228603
0.000218405
0.00014836
6.34585e-05
0.000227611
0.000138229
6.74299e-05
0.000228603
0.0002184
0.000148364
6.34586e-05
0.000227611
5.47842e-05
4.73214e-05
4.66458e-05
5.1243e-05
5.47859e-05
4.73215e-05
4.6645e-05
5.1245e-05
0.000135368
0.000216375
5.92957e-05
0.000225143
6.23542e-05
0.000226523
0.000127702
0.000135371
0.00021637
5.92848e-05
0.000225142
6.23485e-05
0.000226522
0.000127705
3.32685e-05
3.32712e-05
0.000204571
3.19382e-05
3.19394e-05
2.60189e-05
2.61125e-05
2.60888e-05
2.61194e-05
0.000201575
3.07651e-05
3.07736e-05
3.16546e-05
3.16516e-05
2.60896e-05
2.61203e-05
0.00013822
6.74304e-05
0.000228603
0.000218407
0.000148356
6.34516e-05
0.00022761
5.59925e-05
4.55496e-05
6.13524e-05
4.63985e-05
0.000138218
0.000228601
6.74263e-05
0.000218396
0.000148354
0.000227609
6.34458e-05
5.47843e-05
4.73184e-05
4.66428e-05
5.12379e-05
0.000135365
0.000216378
5.92846e-05
0.000225142
6.23435e-05
0.000226522
0.000127697
5.47832e-05
4.7317e-05
4.66409e-05
5.12364e-05
0.000135363
0.000216366
0.00022514
5.92836e-05
0.00022652
6.23405e-05
0.000127694
5.59981e-05
4.55533e-05
6.13508e-05
4.64023e-05
0.000138224
0.000228603
6.74348e-05
0.000218404
0.000148361
0.000227611
6.34628e-05
5.59968e-05
4.55517e-05
6.13492e-05
4.64007e-05
0.00013537
0.000216385
5.92956e-05
0.000225145
6.23544e-05
0.000226524
0.000127703
5.47835e-05
4.73211e-05
4.66448e-05
5.12429e-05
0.000135368
0.000216373
0.000225143
5.92885e-05
0.000226522
6.23527e-05
0.0001277
5.47824e-05
4.73193e-05
4.6643e-05
5.12416e-05
3.32625e-05
3.32753e-05
0.000204562
3.19314e-05
3.19441e-05
2.60177e-05
2.61112e-05
2.60865e-05
2.61172e-05
0.000201568
3.07651e-05
3.07711e-05
3.16442e-05
3.16607e-05
2.60884e-05
2.61191e-05
0.000138222
0.000228602
6.74274e-05
0.000218406
0.000148357
0.00022761
6.34561e-05
5.5993e-05
4.55516e-05
6.13527e-05
4.64004e-05
5.59939e-05
4.55507e-05
6.13537e-05
4.63997e-05
0.000135365
0.000216382
0.000225142
5.92876e-05
0.000226523
6.23526e-05
0.000127697
0.000135366
0.000216377
0.000225142
5.92825e-05
0.000226521
6.23458e-05
0.000127699
5.47836e-05
4.7319e-05
4.66427e-05
5.12368e-05
5.47844e-05
4.73185e-05
4.6642e-05
5.12378e-05
2.60176e-05
2.61111e-05
2.60168e-05
2.61102e-05
0.00020157
3.07704e-05
3.0762e-05
3.16598e-05
3.16512e-05
2.60882e-05
2.61189e-05
2.60873e-05
2.6118e-05
2.60567e-05
2.59221e-05
2.60544e-05
2.592e-05
3.04917e-05
3.04841e-05
0.000188916
3.0386e-05
3.03772e-05
2.58335e-05
2.58852e-05
2.58311e-05
2.58827e-05
0.000186258
3.1443e-05
3.14339e-05
3.05161e-05
3.05076e-05
4.6854e-05
4.75207e-05
4.96957e-05
4.79853e-05
0.000117056
5.81566e-05
0.000223471
0.000208559
0.000124546
5.53184e-05
0.000221788
0.000117059
5.81465e-05
0.00022347
0.000208553
0.000124549
5.53093e-05
0.000221787
4.60818e-05
4.83939e-05
4.80983e-05
4.62186e-05
4.60834e-05
4.83937e-05
4.80977e-05
4.62192e-05
0.000114892
0.000206796
5.51098e-05
0.000219754
5.47794e-05
0.000220479
0.000113131
0.000114894
0.00020679
5.51055e-05
0.000219753
5.47714e-05
0.000220478
0.000113132
3.04858e-05
3.049e-05
0.000188922
3.03791e-05
3.03852e-05
2.60566e-05
2.59221e-05
2.58324e-05
2.5884e-05
0.00018626
3.14365e-05
3.14407e-05
3.05093e-05
3.05129e-05
2.58331e-05
2.58849e-05
0.000117051
5.81454e-05
0.000223471
0.000208565
0.000124541
5.5307e-05
0.000221786
4.68518e-05
4.75163e-05
4.96901e-05
4.79805e-05
0.000117049
0.000223468
5.81448e-05
0.000208548
0.000124539
0.000221784
5.53075e-05
4.60791e-05
4.83906e-05
4.8095e-05
4.62118e-05
0.000114886
0.000206802
5.51026e-05
0.000219752
5.4769e-05
0.000220478
0.000113124
4.60781e-05
4.83887e-05
4.80931e-05
4.62119e-05
0.000114884
0.000206784
0.00021975
5.50981e-05
0.000220475
5.47706e-05
0.000113123
4.68522e-05
4.75205e-05
4.96938e-05
4.79849e-05
0.000117054
0.000223471
5.815e-05
0.000208556
0.000124545
0.000221787
5.53122e-05
4.6851e-05
4.75185e-05
4.96925e-05
4.79829e-05
0.000114892
0.00020681
5.51089e-05
0.000219755
5.4782e-05
0.000220481
0.000113129
4.60816e-05
4.83932e-05
4.80975e-05
4.62168e-05
0.00011489
0.000206793
0.000219753
5.51081e-05
0.000220478
5.47742e-05
0.000113128
4.60805e-05
4.83911e-05
4.80952e-05
4.62167e-05
3.04817e-05
3.04919e-05
0.000188912
3.03775e-05
3.03854e-05
2.60553e-05
2.59208e-05
2.58299e-05
2.58817e-05
0.000186253
3.14335e-05
3.14426e-05
3.05053e-05
3.05155e-05
2.5832e-05
2.58836e-05
0.000117053
0.00022347
5.81437e-05
0.000208563
0.000124542
0.000221786
5.53069e-05
4.68521e-05
4.75182e-05
4.96904e-05
4.79827e-05
4.68531e-05
4.75177e-05
4.96914e-05
4.79822e-05
0.000114886
0.000206805
0.000219752
5.51083e-05
0.000220478
5.47741e-05
0.000113126
0.000114887
0.000206801
0.000219753
5.51028e-05
0.000220478
5.47688e-05
0.000113127
4.60785e-05
4.83908e-05
4.8095e-05
4.62123e-05
4.60793e-05
4.83905e-05
4.80945e-05
4.6212e-05
2.60552e-05
2.59207e-05
2.60542e-05
2.59197e-05
0.000186254
3.14416e-05
3.14338e-05
3.05145e-05
3.05069e-05
2.58318e-05
2.58834e-05
2.58308e-05
2.58825e-05
2.58319e-05
2.58404e-05
2.58294e-05
2.5838e-05
3.21227e-05
3.21139e-05
0.00018585
3.42242e-05
3.42149e-05
2.586e-05
2.58492e-05
2.58577e-05
2.58468e-05
0.000186023
3.55625e-05
3.55549e-05
3.47012e-05
3.4693e-05
4.80779e-05
4.84947e-05
4.66886e-05
4.87384e-05
0.000115309
5.52407e-05
0.000219551
0.000206811
0.000113304
5.72787e-05
0.000219669
0.000115309
5.52365e-05
0.00021955
0.000206805
0.000113304
5.72739e-05
0.000219668
4.83325e-05
4.88766e-05
4.87951e-05
4.88345e-05
4.83329e-05
4.88765e-05
4.87948e-05
4.88345e-05
0.000115597
0.000207556
5.91863e-05
0.000220123
5.7977e-05
0.000219903
0.000116713
0.000115597
0.000207551
5.91831e-05
0.000220122
5.79722e-05
0.000219902
0.000116713
3.2116e-05
3.21188e-05
0.000185855
3.42177e-05
3.42238e-05
2.58315e-05
2.58397e-05
2.58589e-05
2.58482e-05
0.000186026
3.55569e-05
3.55573e-05
3.46945e-05
3.46995e-05
2.58593e-05
2.58491e-05
0.000115303
5.52323e-05
0.00021955
0.000206818
0.000113299
5.72688e-05
0.000219667
4.80756e-05
4.84899e-05
4.66898e-05
4.8733e-05
0.000115302
0.000219547
5.52262e-05
0.0002068
0.000113297
0.000219665
5.72639e-05
4.83365e-05
4.88732e-05
4.87919e-05
4.88409e-05
0.000115594
0.000207563
5.91778e-05
0.000220122
5.79693e-05
0.000219902
0.000116713
4.83365e-05
4.88703e-05
4.87895e-05
4.88401e-05
0.000115593
0.000207545
0.00022012
5.91723e-05
0.0002199
5.79684e-05
0.000116711
4.80763e-05
4.84945e-05
4.66862e-05
4.87378e-05
0.000115306
0.000219551
5.5239e-05
0.000206808
0.000113303
0.000219669
5.72756e-05
4.80761e-05
4.8492e-05
4.66862e-05
4.87355e-05
0.000115596
0.000207569
5.91834e-05
0.000220125
5.79785e-05
0.000219904
0.000116712
4.83316e-05
4.88752e-05
4.87943e-05
4.88337e-05
0.000115595
0.000207553
0.000220123
5.91835e-05
0.000219903
5.79733e-05
0.000116711
4.83314e-05
4.88735e-05
4.87919e-05
4.88333e-05
3.21115e-05
3.21221e-05
0.000185845
3.4216e-05
3.42233e-05
2.58303e-05
2.58388e-05
2.58561e-05
2.58459e-05
0.000186017
3.55489e-05
3.55617e-05
3.4691e-05
3.47001e-05
2.58586e-05
2.58478e-05
0.000115307
0.00021955
5.52333e-05
0.000206818
0.0001133
0.000219668
5.7271e-05
4.80762e-05
4.84917e-05
4.66903e-05
4.87352e-05
4.80761e-05
4.84914e-05
4.66899e-05
4.8735e-05
0.000115596
0.000207564
0.000220123
5.91836e-05
0.000219903
5.79732e-05
0.000116714
0.000115596
0.000207563
0.000220122
5.91801e-05
0.000219902
5.79689e-05
0.000116715
4.83372e-05
4.88733e-05
4.87916e-05
4.88408e-05
4.8337e-05
4.88731e-05
4.87914e-05
4.88409e-05
2.58302e-05
2.58387e-05
2.58292e-05
2.58377e-05
0.000186019
3.55612e-05
3.55544e-05
3.46993e-05
3.46925e-05
2.58584e-05
2.58477e-05
2.58575e-05
2.58467e-05
2.58629e-05
2.58644e-05
2.58603e-05
2.58619e-05
3.56889e-05
3.56829e-05
0.000188642
3.58559e-05
3.58501e-05
2.58648e-05
2.58648e-05
2.58622e-05
2.58622e-05
0.000188549
3.59098e-05
3.59042e-05
3.58831e-05
3.58778e-05
4.90348e-05
4.88902e-05
4.89326e-05
4.89003e-05
0.000117165
5.93965e-05
0.000220287
0.000208797
0.000116865
5.96947e-05
0.00022039
0.000117165
5.93932e-05
0.000220286
0.000208794
0.000116865
5.96918e-05
0.000220389
4.9046e-05
4.8901e-05
4.89014e-05
4.90635e-05
4.90463e-05
4.89013e-05
4.89016e-05
4.90638e-05
0.000117177
0.000208939
5.97828e-05
0.000220486
5.97422e-05
0.00022045
0.000117258
0.000117178
0.000208936
5.97801e-05
0.000220484
5.97393e-05
0.000220449
0.000117259
3.56816e-05
3.56817e-05
0.000188647
3.58503e-05
3.58502e-05
2.58621e-05
2.58634e-05
2.58632e-05
2.58632e-05
0.000188552
3.59036e-05
3.58986e-05
3.58771e-05
3.58759e-05
2.58638e-05
2.58639e-05
0.000117165
5.939e-05
0.000220286
0.000208805
0.000116865
5.96876e-05
0.000220389
4.90386e-05
4.88842e-05
4.8936e-05
4.8894e-05
0.000117164
0.000220283
5.93834e-05
0.000208787
0.000116863
0.000220387
5.96798e-05
4.9053e-05
4.88978e-05
4.88982e-05
4.90696e-05
0.000117179
0.000208948
5.97757e-05
0.000220485
5.97353e-05
0.00022045
0.00011726
4.90516e-05
4.8895e-05
4.88954e-05
4.90681e-05
0.000117176
0.000208929
0.000220482
5.97669e-05
0.000220447
5.97262e-05
0.000117258
4.90341e-05
4.88891e-05
4.89318e-05
4.8899e-05
0.000117163
0.000220286
5.93936e-05
0.000208794
0.000116864
0.000220389
5.96922e-05
4.90335e-05
4.88871e-05
4.89313e-05
4.88972e-05
0.000117176
0.00020895
5.97783e-05
0.000220487
5.97377e-05
0.000220452
0.000117258
4.90456e-05
4.89e-05
4.89004e-05
4.90631e-05
0.000117176
0.000208937
0.000220485
5.97805e-05
0.00022045
5.97397e-05
0.000117257
4.9045e-05
4.88982e-05
4.88985e-05
4.90625e-05
3.56727e-05
3.56884e-05
0.000188637
3.58413e-05
3.58558e-05
2.58613e-05
2.58628e-05
2.58606e-05
2.58607e-05
0.000188543
3.58915e-05
3.59092e-05
3.58673e-05
3.58828e-05
2.58631e-05
2.58631e-05
0.000117168
0.000220286
5.93903e-05
0.000208805
0.000116867
0.00022039
5.96891e-05
4.90393e-05
4.88869e-05
4.89366e-05
4.8897e-05
4.90395e-05
4.88867e-05
4.89367e-05
4.88968e-05
0.000117179
0.000208945
0.000220485
5.97808e-05
0.00022045
5.97401e-05
0.00011726
0.000117181
0.000208948
0.000220486
5.97775e-05
0.00022045
5.97365e-05
0.000117262
4.90524e-05
4.88979e-05
4.88983e-05
4.90689e-05
4.90526e-05
4.88978e-05
4.88981e-05
4.90691e-05
2.58611e-05
2.58626e-05
2.58601e-05
2.58616e-05
0.000188547
3.59092e-05
3.59026e-05
3.58827e-05
3.58761e-05
2.5863e-05
2.5863e-05
2.5862e-05
2.5862e-05
2.5865e-05
2.58648e-05
2.58624e-05
2.58623e-05
3.59079e-05
3.59024e-05
0.000188906
3.59117e-05
3.5906e-05
2.58648e-05
2.5865e-05
2.58623e-05
2.58625e-05
0.000188768
3.59127e-05
3.59072e-05
3.59092e-05
3.5904e-05
4.90708e-05
4.89018e-05
4.90588e-05
4.89011e-05
0.000117283
5.97712e-05
0.000220502
0.000209061
0.000117243
5.97935e-05
0.000220508
0.000117284
5.97683e-05
0.000220501
0.000209058
0.000117243
5.97906e-05
0.000220507
4.90643e-05
4.89008e-05
4.89015e-05
4.90736e-05
4.90647e-05
4.8901e-05
4.89016e-05
4.9074e-05
0.00011726
0.000209067
5.97982e-05
0.000220511
5.97802e-05
0.00022051
0.000117291
0.00011726
0.000209064
5.97951e-05
0.00022051
5.97772e-05
0.000220509
0.000117292
3.59017e-05
3.58978e-05
0.00018891
3.59056e-05
3.59024e-05
2.58641e-05
2.58638e-05
2.58633e-05
2.58635e-05
0.000188771
3.59067e-05
3.59034e-05
3.59033e-05
3.58997e-05
2.58638e-05
2.58641e-05
0.000117285
5.97642e-05
0.000220502
0.00020907
0.000117245
5.97861e-05
0.000220507
4.90754e-05
4.88955e-05
4.9064e-05
4.88948e-05
0.000117283
0.000220499
5.97545e-05
0.000209051
0.000117243
0.000220505
5.97775e-05
4.90718e-05
4.88975e-05
4.88982e-05
4.90805e-05
0.000117262
0.000209076
5.97906e-05
0.00022051
5.9773e-05
0.00022051
0.000117293
4.90701e-05
4.88946e-05
4.88953e-05
4.90788e-05
0.00011726
0.000209057
0.000220507
5.97819e-05
0.000220507
5.97633e-05
0.000117291
4.907e-05
4.89005e-05
4.9058e-05
4.88998e-05
0.000117282
0.000220502
5.97687e-05
0.00020906
0.000117242
0.000220508
5.9791e-05
4.90695e-05
4.88987e-05
4.90574e-05
4.8898e-05
0.000117261
0.000209078
5.97936e-05
0.000220512
5.9775e-05
0.000220512
0.000117292
4.90639e-05
4.88996e-05
4.89003e-05
4.90734e-05
0.000117259
0.000209066
0.00022051
5.97955e-05
0.00022051
5.97775e-05
0.00011729
4.90633e-05
4.88979e-05
4.88985e-05
4.90728e-05
3.58898e-05
3.59074e-05
0.0001889
3.58943e-05
3.59111e-05
2.58634e-05
2.58632e-05
2.58606e-05
2.58609e-05
0.000188761
3.58953e-05
3.59122e-05
3.58915e-05