/*--------------------------------*- C++ -*----------------------------------*\
| =========                 |                                                 |
| \\      /  F ield         | OpenFOAM: The Open Source CFD Toolbox           |
|  \\    /   O peration     | Version:  2206                                  |
|   \\  /    A nd           | Website:  www.openfoam.com                      |
|    \\/     M anipulation  |                                                 |
\*---------------------------------------------------------------------------*/
FoamFile
{
    version     2.0;
    format      ascii;
    arch        "LSB;label=32;scalar=64";
    class       volScalarField;
    location    "40";
    object      epsilon;
}
// * * * * * * * * * * * * * * * * * * * * * * * * * * * * * * * * * * * * * //

dimensions      [0 2 -3 0 0 0 0];

internalField   nonuniform List<scalar> 
28621
(
2.46861e-07
2.31391e-07
2.39461e-07
2.39465e-07
2.46866e-07
2.46858e-07
2.46864e-07
2.39467e-07
2.39465e-07
2.46863e-07
2.39462e-07
2.39469e-07
2.39468e-07
2.46867e-07
2.39464e-07
2.83102e-07
2.83096e-07
2.46856e-07
2.81433e-07
2.81426e-07
2.66534e-07
4.45228e-07
4.42384e-07
2.67475e-07
4.05352e-07
3.99421e-07
2.66534e-07
4.45249e-07
4.42387e-07
2.67475e-07
2.31391e-07
2.31394e-07
2.31393e-07
2.51853e-07
2.78983e-07
2.33784e-07
2.39477e-07
2.78988e-07
2.33799e-07
2.51939e-07
4.05368e-07
3.99436e-07
2.51854e-07
2.33786e-07
2.78987e-07
2.39481e-07
2.33801e-07
2.78991e-07
2.51941e-07
2.83105e-07
2.83099e-07
2.46906e-07
2.81479e-07
2.81473e-07
4.05299e-07
3.99283e-07
4.05359e-07
3.99337e-07
2.46863e-07
2.81434e-07
2.81427e-07
2.83102e-07
2.83096e-07
3.99284e-07
4.05299e-07
3.99339e-07
4.05358e-07
4.05291e-07
3.99359e-07
4.05359e-07
3.99421e-07
2.83105e-07
2.83097e-07
2.46902e-07
2.81478e-07
2.81469e-07
2.66537e-07
4.45233e-07
4.42378e-07
2.67476e-07
2.51852e-07
2.78987e-07
2.33785e-07
2.39483e-07
2.7899e-07
2.33799e-07
2.51939e-07
2.51858e-07
2.78989e-07
2.33784e-07
2.39481e-07
2.78991e-07
2.33799e-07
2.5194e-07
2.831e-07
2.83099e-07
2.46904e-07
2.81475e-07
2.81475e-07
4.05298e-07
3.99367e-07
2.51852e-07
2.78988e-07
2.33784e-07
2.39479e-07
2.78991e-07
2.33799e-07
2.51939e-07
2.66539e-07
4.4527e-07
4.42415e-07
2.67477e-07
2.5186e-07
2.33787e-07
2.78994e-07
2.39485e-07
2.33802e-07
2.78996e-07
2.51941e-07
2.66544e-07
4.45228e-07
4.42383e-07
2.67477e-07
2.51862e-07
2.33786e-07
2.78989e-07
2.39484e-07
2.33802e-07
2.78992e-07
2.51941e-07
2.66547e-07
4.45247e-07
4.42406e-07
2.67479e-07
2.83105e-07
2.83105e-07
2.46908e-07
2.81479e-07
2.8148e-07
4.05308e-07
3.99377e-07
2.51861e-07
2.33786e-07
2.78989e-07
2.3948e-07
2.33801e-07
2.78993e-07
2.51942e-07
2.66545e-07
4.45249e-07
4.42405e-07
2.67478e-07
2.66546e-07
4.45252e-07
4.42398e-07
2.67479e-07
4.05305e-07
3.99377e-07
4.05365e-07
3.99433e-07
2.67203e-07
3.7203e-07
3.71928e-07
3.7787e-07
3.77742e-07
2.65606e-07
2.77892e-07
2.62805e-07
4.56208e-07
2.81434e-07
4.49673e-07
2.78505e-07
2.62553e-07
2.77886e-07
2.628e-07
4.56186e-07
2.81427e-07
4.49637e-07
2.78501e-07
2.62547e-07
2.65608e-07
3.77872e-07
3.77744e-07
3.72033e-07
3.71931e-07
2.67205e-07
2.78505e-07
4.49671e-07
2.83103e-07
2.62551e-07
4.56209e-07
2.77893e-07
2.62808e-07
2.78501e-07
4.49635e-07
2.83097e-07
2.62545e-07
4.56187e-07
2.77887e-07
2.62803e-07
3.86204e-07
3.7234e-07
2.66832e-07
2.67495e-07
3.80202e-07
2.67918e-07
3.78203e-07
4.14318e-07
4.42321e-07
2.76539e-07
2.74991e-07
4.23582e-07
4.2363e-07
2.75027e-07
4.4527e-07
2.76563e-07
4.14403e-07
3.78143e-07
2.66506e-07
3.8017e-07
2.67896e-07
3.7229e-07
2.66801e-07
3.8617e-07
3.99345e-07
4.05395e-07
3.86199e-07
2.6683e-07
3.72335e-07
2.67495e-07
2.67916e-07
3.80197e-07
3.78197e-07
4.14298e-07
4.42325e-07
2.7653e-07
2.74979e-07
4.23566e-07
4.23609e-07
2.75015e-07
4.45289e-07
2.76552e-07
4.14379e-07
3.78138e-07
2.66506e-07
2.67895e-07
3.80166e-07
2.66799e-07
3.72285e-07
3.86166e-07
3.9936e-07
4.05411e-07
2.67229e-07
3.72141e-07
3.72038e-07
3.77923e-07
3.77795e-07
2.65658e-07
2.77902e-07
2.62809e-07
4.56215e-07
2.81443e-07
2.78509e-07
2.62562e-07
4.49691e-07
2.77896e-07
2.62804e-07
4.56193e-07
2.81436e-07
2.78505e-07
2.62557e-07
4.49656e-07
2.65617e-07
3.7788e-07
3.77752e-07
2.67208e-07
3.72049e-07
3.71946e-07
2.78531e-07
4.49772e-07
2.83128e-07
2.626e-07
2.62835e-07
4.56264e-07
2.77949e-07
2.78527e-07
4.49737e-07
2.83122e-07
2.62595e-07
2.6283e-07
4.56243e-07
2.77943e-07
3.99285e-07
4.05301e-07
3.99339e-07
4.0536e-07
2.65606e-07
3.7787e-07
3.77742e-07
2.67204e-07
3.7203e-07
3.71928e-07
2.78504e-07
2.62552e-07
4.49673e-07
2.83103e-07
2.77895e-07
4.56208e-07
2.62807e-07
2.785e-07
2.62547e-07
4.49638e-07
2.83096e-07
2.77888e-07
4.56187e-07
2.62802e-07
2.67205e-07
3.72034e-07
3.71932e-07
2.65609e-07
3.77872e-07
3.77744e-07
2.77893e-07
4.56207e-07
2.62806e-07
2.81434e-07
2.78506e-07
4.49672e-07
2.62553e-07
2.77886e-07
4.56185e-07
2.62801e-07
2.81427e-07
2.78501e-07
4.49636e-07
2.62548e-07
4.053e-07
3.99284e-07
4.05359e-07
3.99338e-07
3.99286e-07
4.05335e-07
3.99349e-07
4.05402e-07
2.67227e-07
3.72128e-07
3.72042e-07
3.77919e-07
3.77796e-07
2.65655e-07
2.77902e-07
2.62808e-07
2.81443e-07
4.5622e-07
4.49698e-07
2.62561e-07
2.78509e-07
2.77894e-07
2.62802e-07
2.81435e-07
4.56197e-07
4.49658e-07
2.62556e-07
2.78504e-07
2.78531e-07
4.49778e-07
2.83127e-07
2.62598e-07
4.56269e-07
2.77948e-07
2.62833e-07
2.78525e-07
4.49734e-07
2.8312e-07
2.62593e-07
4.56244e-07
2.77939e-07
2.62828e-07
2.65615e-07
3.77879e-07
3.77753e-07
3.72043e-07
3.71947e-07
2.67208e-07
3.86201e-07
3.72339e-07
2.66831e-07
2.67496e-07
3.80201e-07
2.67916e-07
3.78198e-07
4.14303e-07
4.42314e-07
2.7653e-07
2.7498e-07
4.23569e-07
4.23614e-07
2.75016e-07
4.45275e-07
2.76553e-07
4.14387e-07
3.78139e-07
2.66507e-07
3.80168e-07
2.67895e-07
3.72287e-07
2.66799e-07
3.86168e-07
2.67227e-07
3.72046e-07
3.72124e-07
3.77801e-07
3.77913e-07
2.65656e-07
2.77896e-07
2.62803e-07
2.81438e-07
4.56196e-07
4.4966e-07
2.62557e-07
2.78504e-07
2.77899e-07
2.62804e-07
2.81438e-07
4.56218e-07
2.62558e-07
4.49693e-07
2.78506e-07
2.78526e-07
4.4974e-07
2.83123e-07
2.62595e-07
4.56245e-07
2.62829e-07
2.77943e-07
2.78528e-07
4.49773e-07
2.83122e-07
2.62596e-07
2.6283e-07
4.56266e-07
2.77946e-07
2.65615e-07
3.77759e-07
3.77871e-07
3.71955e-07
3.72032e-07
2.67207e-07
3.9929e-07
4.05344e-07
3.86209e-07
3.72342e-07
2.66834e-07
2.67497e-07
3.80204e-07
2.67919e-07
3.78207e-07
4.14318e-07
4.42351e-07
2.76543e-07
2.74992e-07
4.23586e-07
4.23633e-07
2.75029e-07
4.45312e-07
2.76566e-07
4.14402e-07
3.78147e-07
2.66508e-07
3.80172e-07
2.67898e-07
3.72291e-07
2.66802e-07
3.86175e-07
3.86195e-07
2.66831e-07
3.72341e-07
2.67496e-07
2.67915e-07
3.80199e-07
3.78195e-07
4.14288e-07
4.42314e-07
2.76527e-07
2.74978e-07
4.23556e-07
4.23602e-07
2.75015e-07
4.45269e-07
2.76551e-07
4.14372e-07
3.78135e-07
2.66507e-07
2.67894e-07
3.80168e-07
2.66799e-07
3.72287e-07
3.86162e-07
3.86205e-07
3.72346e-07
2.66835e-07
2.67498e-07
3.80205e-07
2.67919e-07
3.78204e-07
4.14306e-07
4.42339e-07
2.7654e-07
2.74991e-07
4.23573e-07
4.23619e-07
2.75027e-07
4.45288e-07
2.76563e-07
4.14389e-07
3.78144e-07
2.66508e-07
3.80173e-07
2.67898e-07
3.72292e-07
2.66802e-07
3.86171e-07
2.6723e-07
3.72053e-07
3.7213e-07
3.77807e-07
3.77919e-07
2.6566e-07
2.77898e-07
2.62807e-07
2.81441e-07
4.56198e-07
4.49663e-07
2.6256e-07
2.78507e-07
2.77903e-07
2.62808e-07
2.81443e-07
4.56218e-07
2.62562e-07
4.49694e-07
2.7851e-07
2.78529e-07
4.49744e-07
2.83127e-07
2.62599e-07
4.56248e-07
2.62833e-07
2.77945e-07
2.78532e-07
4.49775e-07
2.83127e-07
2.626e-07
2.62834e-07
4.56268e-07
2.7795e-07
2.65618e-07
3.77762e-07
3.77873e-07
3.71961e-07
3.72037e-07
2.6721e-07
3.993e-07
4.05353e-07
3.86201e-07
2.66834e-07
3.72344e-07
2.67497e-07
2.67919e-07
3.80202e-07
3.78201e-07
4.1431e-07
4.42337e-07
2.7654e-07
2.74991e-07
4.23578e-07
4.23625e-07
2.75028e-07
4.4529e-07
2.76563e-07
4.14394e-07
3.78141e-07
2.66508e-07
2.67897e-07
3.80171e-07
2.66802e-07
3.7229e-07
3.86167e-07
3.86198e-07
2.66832e-07
3.7234e-07
2.67498e-07
2.67917e-07
3.802e-07
3.78196e-07
4.1429e-07
4.42329e-07
2.76531e-07
2.7498e-07
4.23566e-07
4.23612e-07
2.75017e-07
4.45293e-07
2.76554e-07
4.14374e-07
3.78137e-07
2.66509e-07
2.67896e-07
3.80168e-07
2.668e-07
3.72287e-07
3.86165e-07
3.99301e-07
4.0535e-07
3.99357e-07
4.0541e-07
2.61661e-07
2.52737e-07
2.52741e-07
2.46858e-07
2.61808e-07
2.52698e-07
2.52702e-07
2.28265e-07
2.28264e-07
2.31401e-07
2.28273e-07
2.28272e-07
2.26472e-07
2.26466e-07
2.61671e-07
2.52742e-07
2.52745e-07
2.46868e-07
2.61812e-07
2.52709e-07
2.52713e-07
2.61806e-07
2.46864e-07
2.52698e-07
2.52701e-07
2.61663e-07
2.5274e-07
2.52743e-07
2.6167e-07
2.52741e-07
2.52744e-07
2.46867e-07
2.52708e-07
2.52712e-07
2.61811e-07
2.61669e-07
2.52744e-07
2.52738e-07
2.46865e-07
2.52706e-07
2.52711e-07
2.6181e-07
2.61672e-07
2.52748e-07
2.52742e-07
2.46869e-07
2.5271e-07
2.52715e-07
2.61814e-07
2.61807e-07
2.46865e-07
2.52696e-07
2.52699e-07
2.61662e-07
2.5274e-07
2.52744e-07
2.28265e-07
2.28264e-07
2.314e-07
2.28273e-07
2.28272e-07
2.26472e-07
2.26466e-07
2.28266e-07
2.28265e-07
2.31404e-07
2.28274e-07
2.28273e-07
2.26473e-07
2.26466e-07
2.28266e-07
2.28265e-07
2.31403e-07
2.28274e-07
2.28273e-07
2.26473e-07
2.26466e-07
2.4539e-07
2.53522e-07
2.4374e-07
2.51968e-07
2.53659e-07
2.43725e-07
2.45418e-07
2.49994e-07
2.56692e-07
2.78952e-07
2.59609e-07
2.56674e-07
2.59411e-07
2.5001e-07
2.50038e-07
2.59455e-07
2.79008e-07
2.56716e-07
2.56719e-07
2.59638e-07
2.50051e-07
2.45356e-07
2.51812e-07
2.53628e-07
2.43689e-07
2.53476e-07
2.43688e-07
2.45365e-07
2.45393e-07
2.43742e-07
2.53525e-07
2.5197e-07
2.43727e-07
2.53662e-07
2.45421e-07
2.49998e-07
2.56696e-07
2.78957e-07
2.59615e-07
2.56678e-07
2.59417e-07
2.50014e-07
2.50042e-07
2.59461e-07
2.79012e-07
2.5672e-07
2.56723e-07
2.59644e-07
2.50056e-07
2.4536e-07
2.51814e-07
2.43691e-07
2.53631e-07
2.4369e-07
2.5348e-07
2.45368e-07
2.61836e-07
2.46893e-07
2.52757e-07
2.5276e-07
2.5277e-07
2.52774e-07
2.61727e-07
2.61661e-07
2.46859e-07
2.52738e-07
2.52742e-07
2.61807e-07
2.52698e-07
2.52701e-07
2.61833e-07
2.46891e-07
2.52753e-07
2.52758e-07
2.61723e-07
2.52768e-07
2.52772e-07
2.45391e-07
2.53522e-07
2.43737e-07
2.51967e-07
2.5366e-07
2.43724e-07
2.45418e-07
2.49998e-07
2.56696e-07
2.78956e-07
2.59614e-07
2.59416e-07
2.56678e-07
2.50014e-07
2.50041e-07
2.5946e-07
2.7901e-07
2.56718e-07
2.59643e-07
2.56722e-07
2.50054e-07
2.45358e-07
2.51812e-07
2.5363e-07
2.43689e-07
2.53478e-07
2.43688e-07
2.45367e-07
2.45389e-07
2.5352e-07
2.43742e-07
2.51969e-07
2.53658e-07
2.43724e-07
2.45414e-07
2.49995e-07
2.56695e-07
2.78957e-07
2.59611e-07
2.59412e-07
2.56677e-07
2.50012e-07
2.50039e-07
2.59456e-07
2.79013e-07
2.56718e-07
2.59639e-07
2.50052e-07
2.56722e-07
2.45356e-07
2.51812e-07
2.53628e-07
2.4369e-07
2.53475e-07
2.43687e-07
2.45364e-07
2.61833e-07
2.4689e-07
2.52758e-07
2.52753e-07
2.52766e-07
2.52772e-07
2.61724e-07
2.4539e-07
2.53521e-07
2.43738e-07
2.51968e-07
2.53659e-07
2.43724e-07
2.45417e-07
2.49994e-07
2.56693e-07
2.78956e-07
2.5961e-07
2.59412e-07
2.56676e-07
2.50011e-07
2.50038e-07
2.59455e-07
2.79012e-07
2.56717e-07
2.59639e-07
2.5672e-07
2.50052e-07
2.45357e-07
2.51812e-07
2.53628e-07
2.43689e-07
2.53476e-07
2.43688e-07
2.45365e-07
2.45392e-07
2.43745e-07
2.53524e-07
2.51971e-07
2.43726e-07
2.53661e-07
2.45418e-07
2.5e-07
2.56699e-07
2.78962e-07
2.59616e-07
2.59418e-07
2.56681e-07
2.50016e-07
2.50043e-07
2.59462e-07
2.79018e-07
2.56722e-07
2.59645e-07
2.50056e-07
2.56726e-07
2.45359e-07
2.51814e-07
2.43692e-07
2.53631e-07
2.43689e-07
2.53479e-07
2.45368e-07
2.45392e-07
2.43747e-07
2.53526e-07
2.51972e-07
2.43727e-07
2.53662e-07
2.45419e-07
2.49999e-07
2.56697e-07
2.78958e-07
2.59615e-07
2.56679e-07
2.59417e-07
2.50015e-07
2.50042e-07
2.5946e-07
2.79013e-07
2.5672e-07
2.56724e-07
2.59644e-07
2.50055e-07
2.45359e-07
2.51815e-07
2.43692e-07
2.53631e-07
2.43689e-07
2.53479e-07
2.45367e-07
2.61837e-07
2.46894e-07
2.52762e-07
2.52757e-07
2.5277e-07
2.52776e-07
2.61729e-07
2.45391e-07
2.43748e-07
2.53523e-07
2.51972e-07
2.43727e-07
2.5366e-07
2.45417e-07
2.49995e-07
2.56695e-07
2.78957e-07
2.59611e-07
2.56677e-07
2.59413e-07
2.50012e-07
2.50039e-07
2.59457e-07
2.79014e-07
2.56718e-07
2.56722e-07
2.5964e-07
2.50053e-07
2.45357e-07
2.51815e-07
2.43692e-07
2.53629e-07
2.43689e-07
2.53477e-07
2.45366e-07
2.31401e-07
2.39477e-07
2.39481e-07
2.46882e-07
2.31387e-07
2.39455e-07
2.39459e-07
2.46861e-07
2.31387e-07
2.39455e-07
2.39459e-07
2.46861e-07
2.31387e-07
2.39455e-07
2.39459e-07
2.46861e-07
2.31387e-07
2.39455e-07
2.39459e-07
2.46861e-07
2.31387e-07
2.39455e-07
2.39459e-07
2.46861e-07
2.31387e-07
2.39455e-07
2.3946e-07
2.46861e-07
2.31387e-07
2.39455e-07
2.3946e-07
2.46862e-07
2.31387e-07
2.39455e-07
2.39459e-07
2.46861e-07
2.31387e-07
2.39455e-07
2.39459e-07
2.46861e-07
2.31387e-07
2.39455e-07
2.3946e-07
2.46861e-07
2.31387e-07
2.39455e-07
2.39459e-07
2.46861e-07
2.31387e-07
2.39455e-07
2.3946e-07
2.46861e-07
2.31387e-07
2.39455e-07
2.39459e-07
2.46861e-07
2.31387e-07
2.39455e-07
2.3946e-07
2.46861e-07
2.31387e-07
2.39455e-07
2.3946e-07
2.46861e-07
2.31387e-07
2.39455e-07
2.3946e-07
2.46909e-07
2.46854e-07
2.39483e-07
2.39481e-07
2.39461e-07
2.3946e-07
2.4691e-07
2.46853e-07
2.39479e-07
2.39485e-07
2.39457e-07
2.39464e-07
2.39483e-07
2.39456e-07
2.39463e-07
2.46914e-07
2.46857e-07
2.39476e-07
2.3946e-07
2.39458e-07
2.46857e-07
2.46861e-07
2.46854e-07
2.39462e-07
2.3946e-07
2.39461e-07
2.3946e-07
2.4686e-07
2.46853e-07
2.39457e-07
2.39464e-07
2.39457e-07
2.39464e-07
2.39463e-07
2.39456e-07
2.39462e-07
2.46864e-07
2.46857e-07
2.39458e-07
2.3946e-07
2.39458e-07
2.46857e-07
2.46861e-07
2.46854e-07
2.39462e-07
2.3946e-07
2.39461e-07
2.3946e-07
2.4686e-07
2.46853e-07
2.39457e-07
2.39464e-07
2.39457e-07
2.39464e-07
2.39463e-07
2.39456e-07
2.39462e-07
2.46864e-07
2.46857e-07
2.39459e-07
2.3946e-07
2.39458e-07
2.46857e-07
2.46861e-07
2.46854e-07
2.39461e-07
2.3946e-07
2.39461e-07
2.3946e-07
2.4686e-07
2.46853e-07
2.39457e-07
2.39464e-07
2.39457e-07
2.39464e-07
2.39463e-07
2.39456e-07
2.39462e-07
2.46864e-07
2.46857e-07
2.39458e-07
2.3946e-07
2.39458e-07
2.46857e-07
2.46861e-07
2.46854e-07
2.39462e-07
2.3946e-07
2.39461e-07
2.3946e-07
2.4686e-07
2.46853e-07
2.39457e-07
2.39464e-07
2.39457e-07
2.39464e-07
2.39463e-07
2.39456e-07
2.39462e-07
2.46864e-07
2.46857e-07
2.39459e-07
2.3946e-07
2.39458e-07
2.46857e-07
2.46861e-07
2.46854e-07
2.39462e-07
2.3946e-07
2.39461e-07
2.3946e-07
2.4686e-07
2.46853e-07
2.39457e-07
2.39464e-07
2.39457e-07
2.39464e-07
2.39463e-07
2.39456e-07
2.39462e-07
2.46864e-07
2.46857e-07
2.39458e-07
2.3946e-07
2.39458e-07
2.46857e-07
2.46861e-07
2.46854e-07
2.39462e-07
2.3946e-07
2.39461e-07
2.3946e-07
2.4686e-07
2.46853e-07
2.39457e-07
2.39464e-07
2.39457e-07
2.39464e-07
2.39463e-07
2.39456e-07
2.39462e-07
2.46864e-07
2.46857e-07
2.39459e-07
2.3946e-07
2.39458e-07
2.46857e-07
2.46861e-07
2.46854e-07
2.39461e-07
2.3946e-07
2.39461e-07
2.3946e-07
2.4686e-07
2.46853e-07
2.39457e-07
2.39464e-07
2.39457e-07
2.39464e-07
2.39463e-07
2.39456e-07
2.39462e-07
2.46864e-07
2.46857e-07
2.39459e-07
2.3946e-07
2.39458e-07
2.46857e-07
2.46861e-07
2.46854e-07
2.39462e-07
2.3946e-07
2.39461e-07
2.3946e-07
2.4686e-07
2.46853e-07
2.39457e-07
2.39464e-07
2.39457e-07
2.39464e-07
2.39463e-07
2.39456e-07
2.39462e-07
2.46864e-07
2.46857e-07
2.39458e-07
2.3946e-07
2.39458e-07
2.46857e-07
2.46861e-07
2.46854e-07
2.39462e-07
2.3946e-07
2.39461e-07
2.3946e-07
2.4686e-07
2.46852e-07
2.39457e-07
2.39464e-07
2.39457e-07
2.39464e-07
2.39463e-07
2.39456e-07
2.39462e-07
2.46864e-07
2.46857e-07
2.39459e-07
2.3946e-07
2.39458e-07
2.46857e-07
2.46861e-07
2.46854e-07
2.39462e-07
2.3946e-07
2.39461e-07
2.3946e-07
2.4686e-07
2.46853e-07
2.39457e-07
2.39464e-07
2.39457e-07
2.39464e-07
2.39463e-07
2.39456e-07
2.39462e-07
2.46864e-07
2.46857e-07
2.39459e-07
2.3946e-07
2.39458e-07
2.46857e-07
2.46861e-07
2.46854e-07
2.39461e-07
2.3946e-07
2.39461e-07
2.3946e-07
2.4686e-07
2.46853e-07
2.39457e-07
2.39464e-07
2.39457e-07
2.39464e-07
2.39463e-07
2.39456e-07
2.39462e-07
2.46864e-07
2.46857e-07
2.39459e-07
2.3946e-07
2.39458e-07
2.46857e-07
2.46861e-07
2.46854e-07
2.39462e-07
2.3946e-07
2.39461e-07
2.3946e-07
2.4686e-07
2.46853e-07
2.39457e-07
2.39464e-07
2.39457e-07
2.39464e-07
2.39463e-07
2.39456e-07
2.39462e-07
2.46864e-07
2.46857e-07
2.39458e-07
2.3946e-07
2.39458e-07
2.46857e-07
2.46861e-07
2.46854e-07
2.39462e-07
2.3946e-07
2.39461e-07
2.3946e-07
2.4686e-07
2.46853e-07
2.39457e-07
2.39464e-07
2.39457e-07
2.39464e-07
2.39463e-07
2.39456e-07
2.39462e-07
2.46864e-07
2.46857e-07
2.39459e-07
2.3946e-07
2.39458e-07
2.46857e-07
2.46861e-07
2.46854e-07
2.39461e-07
2.3946e-07
2.39461e-07
2.3946e-07
2.4686e-07
2.46853e-07
2.39457e-07
2.39464e-07
2.39457e-07
2.39464e-07
2.39463e-07
2.39456e-07
2.39462e-07
2.46864e-07
2.46857e-07
2.39458e-07
2.3946e-07
2.39458e-07
2.46857e-07
2.46861e-07
2.46854e-07
2.39462e-07
2.3946e-07
2.39461e-07
2.3946e-07
2.4686e-07
2.46853e-07
2.39457e-07
2.39464e-07
2.39457e-07
2.39464e-07
2.39463e-07
2.39456e-07
2.39462e-07
2.46864e-07
2.46857e-07
2.39459e-07
2.3946e-07
2.39458e-07
2.46857e-07
2.46861e-07
2.46857e-07
2.39461e-07
2.3946e-07
2.39463e-07
2.39461e-07
2.4686e-07
2.46855e-07
2.39457e-07
2.39464e-07
2.39458e-07
2.39465e-07
2.39464e-07
2.39457e-07
2.39464e-07
2.46864e-07
2.4686e-07
2.39459e-07
2.39461e-07
2.3946e-07
2.66498e-07
4.45291e-07
4.4231e-07
2.67511e-07
4.0542e-07
3.99335e-07
2.66498e-07
4.45312e-07
4.42314e-07
2.67511e-07
2.31402e-07
2.31404e-07
2.31406e-07
2.31388e-07
2.31387e-07
2.3139e-07
2.31389e-07
2.51799e-07
2.79024e-07
2.33802e-07
2.39462e-07
2.78945e-07
2.33785e-07
2.52002e-07
4.05436e-07
3.99349e-07
2.51801e-07
2.33804e-07
2.79028e-07
2.39466e-07
2.33787e-07
2.7895e-07
2.52003e-07
2.83118e-07
2.83112e-07
2.46859e-07
2.81434e-07
2.81427e-07
2.66495e-07
4.45223e-07
2.67473e-07
4.42304e-07
4.05346e-07
3.99328e-07
2.66495e-07
4.45244e-07
2.67473e-07
4.42308e-07
2.31387e-07
2.3139e-07
2.31389e-07
2.31388e-07
2.31387e-07
2.3139e-07
2.31389e-07
2.51794e-07
2.7898e-07
2.33778e-07
2.39456e-07
2.51935e-07
2.78942e-07
2.33778e-07
4.05362e-07
3.99342e-07
2.51796e-07
2.3378e-07
2.78984e-07
2.3946e-07
2.51936e-07
2.3378e-07
2.78946e-07
2.83102e-07
2.83096e-07
2.46856e-07
2.81433e-07
2.81426e-07
2.66495e-07
4.45223e-07
2.67473e-07
4.42304e-07
4.05346e-07
3.99328e-07
2.66495e-07
4.45244e-07
2.67473e-07
4.42308e-07
2.31387e-07
2.3139e-07
2.31389e-07
2.31388e-07
2.31387e-07
2.31389e-07
2.31389e-07
2.51794e-07
2.7898e-07
2.33778e-07
2.39456e-07
2.51935e-07
2.78941e-07
2.33778e-07
4.05362e-07
3.99342e-07
2.51796e-07
2.3378e-07
2.78984e-07
2.3946e-07
2.51936e-07
2.3378e-07
2.78946e-07
2.83102e-07
2.83096e-07
2.46856e-07
2.81433e-07
2.81426e-07
2.66495e-07
4.45223e-07
2.67473e-07
4.42304e-07
4.05346e-07
3.99328e-07
2.66495e-07
4.45244e-07
2.67473e-07
4.42308e-07
2.31387e-07
2.3139e-07
2.31389e-07
2.31388e-07
2.31387e-07
2.3139e-07
2.31389e-07
2.51794e-07
2.7898e-07
2.33778e-07
2.39456e-07
2.51935e-07
2.78941e-07
2.33778e-07
4.05362e-07
3.99342e-07
2.51796e-07
2.3378e-07
2.78984e-07
2.3946e-07
2.51936e-07
2.3378e-07
2.78946e-07
2.83102e-07
2.83096e-07
2.46856e-07
2.81433e-07
2.81426e-07
2.66495e-07
4.45223e-07
2.67473e-07
4.42304e-07
4.05345e-07
3.99328e-07
2.66495e-07
4.45243e-07
2.67473e-07
4.42308e-07
2.31387e-07
2.3139e-07
2.31389e-07
2.31388e-07
2.31387e-07
2.3139e-07
2.31389e-07
2.51794e-07
2.7898e-07
2.33778e-07
2.39456e-07
2.51935e-07
2.78941e-07
2.33778e-07
4.05362e-07
3.99342e-07
2.51796e-07
2.3378e-07
2.78984e-07
2.3946e-07
2.51936e-07
2.3378e-07
2.78946e-07
2.83102e-07
2.83096e-07
2.46856e-07
2.81433e-07
2.81426e-07
2.66495e-07
4.45223e-07
2.67473e-07
4.42304e-07
4.05346e-07
3.99328e-07
2.66495e-07
4.45243e-07
2.67473e-07
4.42308e-07
2.31387e-07
2.3139e-07
2.31389e-07
2.31388e-07
2.31387e-07
2.3139e-07
2.31389e-07
2.51794e-07
2.7898e-07
2.33778e-07
2.39456e-07
2.51935e-07
2.78941e-07
2.33778e-07
4.05362e-07
3.99342e-07
2.51796e-07
2.3378e-07
2.78984e-07
2.3946e-07
2.51936e-07
2.3378e-07
2.78946e-07
2.83102e-07
2.83096e-07
2.46856e-07
2.81433e-07
2.81426e-07
2.66495e-07
4.45223e-07
2.67473e-07
4.42304e-07
4.05346e-07
3.99328e-07
2.66495e-07
4.45243e-07
2.67473e-07
4.42307e-07
2.31387e-07
2.3139e-07
2.31389e-07
2.31388e-07
2.31387e-07
2.31389e-07
2.31389e-07
2.51794e-07
2.7898e-07
2.33778e-07
2.39456e-07
2.51935e-07
2.78941e-07
2.33778e-07
4.05362e-07
3.99342e-07
2.51796e-07
2.33781e-07
2.78984e-07
2.3946e-07
2.51937e-07
2.3378e-07
2.78946e-07
2.83102e-07
2.83096e-07
2.46856e-07
2.81433e-07
2.81426e-07
2.66495e-07
4.45223e-07
2.67473e-07
4.42304e-07
4.05345e-07
3.99326e-07
2.66495e-07
4.45244e-07
2.67473e-07
4.42308e-07
2.31387e-07
2.3139e-07
2.31389e-07
2.31388e-07
2.31387e-07
2.3139e-07
2.31389e-07
2.51794e-07
2.7898e-07
2.33778e-07
2.39456e-07
2.51935e-07
2.78942e-07
2.33778e-07
4.05363e-07
3.99343e-07
2.51796e-07
2.3378e-07
2.78984e-07
2.3946e-07
2.51936e-07
2.3378e-07
2.78946e-07
2.83102e-07
2.83096e-07
2.46856e-07
2.81433e-07
2.81426e-07
2.66495e-07
4.45223e-07
2.67473e-07
4.42304e-07
4.05345e-07
3.99327e-07
2.66495e-07
4.45243e-07
2.67473e-07
4.42308e-07
2.31387e-07
2.3139e-07
2.31389e-07
2.31388e-07
2.31387e-07
2.31389e-07
2.31389e-07
2.51794e-07
2.7898e-07
2.33778e-07
2.39456e-07
2.51935e-07
2.78941e-07
2.33778e-07
4.05362e-07
3.99342e-07
2.51796e-07
2.3378e-07
2.78984e-07
2.3946e-07
2.51936e-07
2.3378e-07
2.78946e-07
2.83102e-07
2.83096e-07
2.46856e-07
2.81433e-07
2.81426e-07
2.66495e-07
4.45223e-07
2.67473e-07
4.42304e-07
4.05345e-07
3.99327e-07
2.66495e-07
4.45243e-07
2.67473e-07
4.42307e-07
2.31387e-07
2.3139e-07
2.31389e-07
2.31388e-07
2.31387e-07
2.3139e-07
2.31389e-07
2.51794e-07
2.7898e-07
2.33778e-07
2.39456e-07
2.51935e-07
2.78942e-07
2.33778e-07
4.05362e-07
3.99342e-07
2.51796e-07
2.3378e-07
2.78984e-07
2.3946e-07
2.51936e-07
2.3378e-07
2.78946e-07
2.83102e-07
2.83096e-07
2.46856e-07
2.81433e-07
2.81426e-07
2.66495e-07
4.45223e-07
2.67473e-07
4.42304e-07
4.05345e-07
3.99326e-07
2.66495e-07
4.45243e-07
2.67473e-07
4.42307e-07
2.31387e-07
2.3139e-07
2.31389e-07
2.31388e-07
2.31387e-07
2.31389e-07
2.31389e-07
2.51794e-07
2.7898e-07
2.33778e-07
2.39456e-07
2.51935e-07
2.78941e-07
2.33778e-07
4.05362e-07
3.99342e-07
2.51796e-07
2.33781e-07
2.78984e-07
2.3946e-07
2.51936e-07
2.3378e-07
2.78946e-07
2.83102e-07
2.83096e-07
2.46856e-07
2.81433e-07
2.81426e-07
2.66495e-07
4.45223e-07
2.67473e-07
4.42304e-07
4.05345e-07
3.99327e-07
2.66495e-07
4.45243e-07
2.67473e-07
4.42308e-07
2.31387e-07
2.3139e-07
2.31389e-07
2.31388e-07
2.31387e-07
2.3139e-07
2.31389e-07
2.51794e-07
2.7898e-07
2.33778e-07
2.39456e-07
2.51935e-07
2.78941e-07
2.33778e-07
4.05362e-07
3.99342e-07
2.51796e-07
2.3378e-07
2.78984e-07
2.3946e-07
2.51936e-07
2.3378e-07
2.78946e-07
2.83102e-07
2.83096e-07
2.46856e-07
2.81433e-07
2.81426e-07
2.66495e-07
4.45223e-07
2.67473e-07
4.42304e-07
4.05345e-07
3.99326e-07
2.66495e-07
4.45243e-07
2.67473e-07
4.42307e-07
2.31387e-07
2.3139e-07
2.31389e-07
2.31388e-07
2.31387e-07
2.31389e-07
2.31389e-07
2.51794e-07
2.7898e-07
2.33778e-07
2.39456e-07
2.51935e-07
2.78941e-07
2.33778e-07
4.05362e-07
3.99342e-07
2.51796e-07
2.33781e-07
2.78984e-07
2.3946e-07
2.51936e-07
2.3378e-07
2.78946e-07
2.83102e-07
2.83096e-07
2.46856e-07
2.81433e-07
2.81426e-07
2.66495e-07
4.45223e-07
2.67473e-07
4.42305e-07
4.05345e-07
3.99326e-07
2.66495e-07
4.45243e-07
2.67473e-07
4.42307e-07
2.31387e-07
2.31389e-07
2.31389e-07
2.31388e-07
2.31387e-07
2.3139e-07
2.31389e-07
2.51794e-07
2.7898e-07
2.33778e-07
2.39456e-07
2.51935e-07
2.78942e-07
2.33778e-07
4.05362e-07
3.99342e-07
2.51796e-07
2.3378e-07
2.78984e-07
2.3946e-07
2.51936e-07
2.3378e-07
2.78946e-07
2.83102e-07
2.83096e-07
2.46856e-07
2.81433e-07
2.81426e-07
2.66495e-07
4.45223e-07
2.67473e-07
4.42304e-07
4.05345e-07
3.99327e-07
2.66495e-07
4.45243e-07
2.67473e-07
4.42307e-07
2.31387e-07
2.3139e-07
2.31389e-07
2.31388e-07
2.31387e-07
2.3139e-07
2.31389e-07
2.51794e-07
2.7898e-07
2.33778e-07
2.39456e-07
2.51935e-07
2.78941e-07
2.33778e-07
4.05362e-07
3.99342e-07
2.51796e-07
2.33781e-07
2.78984e-07
2.3946e-07
2.51936e-07
2.3378e-07
2.78946e-07
2.83102e-07
2.83096e-07
2.46856e-07
2.81433e-07
2.81426e-07
2.66495e-07
4.45223e-07
2.67473e-07
4.42304e-07
4.05344e-07
3.99326e-07
2.66495e-07
4.45243e-07
2.67473e-07
4.42307e-07
2.31387e-07
2.3139e-07
2.31389e-07
2.31388e-07
2.31387e-07
2.3139e-07
2.31389e-07
2.51794e-07
2.7898e-07
2.33778e-07
2.39456e-07
2.51935e-07
2.78942e-07
2.33778e-07
4.05362e-07
3.99343e-07
2.51796e-07
2.3378e-07
2.78984e-07
2.3946e-07
2.51936e-07
2.3378e-07
2.78946e-07
2.83102e-07
2.83096e-07
2.46856e-07
2.81433e-07
2.81426e-07
2.66495e-07
4.45223e-07
2.67473e-07
4.42304e-07
4.05345e-07
3.99326e-07
2.66495e-07
4.45244e-07
2.67473e-07
4.42308e-07
2.31387e-07
2.3139e-07
2.31389e-07
2.31389e-07
2.31388e-07
2.31391e-07
2.3139e-07
2.51794e-07
2.7898e-07
2.33778e-07
2.39456e-07
2.51935e-07
2.78942e-07
2.33778e-07
4.05362e-07
3.99342e-07
2.51796e-07
2.33781e-07
2.78984e-07
2.3946e-07
2.51936e-07
2.3378e-07
2.78946e-07
4.05358e-07
3.99275e-07
4.05426e-07
3.99338e-07
2.83143e-07
2.83135e-07
2.4686e-07
2.81436e-07
2.81428e-07
3.99269e-07
4.05287e-07
3.99331e-07
4.05356e-07
2.46864e-07
2.81433e-07
2.81425e-07
2.83103e-07
2.83096e-07
2.66498e-07
4.45294e-07
4.42303e-07
2.67515e-07
2.51798e-07
2.79027e-07
2.338e-07
2.39468e-07
2.78949e-07
2.33785e-07
2.51993e-07
2.51799e-07
2.79028e-07
2.338e-07
2.39467e-07
2.7895e-07
2.33785e-07
2.51999e-07
2.67473e-07
4.42304e-07
4.45226e-07
2.66496e-07
2.67474e-07
4.42296e-07
4.4523e-07
2.66496e-07
2.51936e-07
2.39463e-07
2.78945e-07
2.33779e-07
2.78986e-07
2.33781e-07
2.51795e-07
2.51937e-07
2.39462e-07
2.78946e-07
2.33779e-07
2.78987e-07
2.3378e-07
2.51796e-07
2.8314e-07
2.83139e-07
2.46858e-07
2.81431e-07
2.81431e-07
4.05367e-07
3.99277e-07
3.99328e-07
4.05348e-07
2.46862e-07
2.81427e-07
2.81427e-07
2.83099e-07
2.83097e-07
3.99271e-07
4.05293e-07
2.51799e-07
2.79028e-07
2.33799e-07
2.39463e-07
2.78949e-07
2.33785e-07
2.51993e-07
2.665e-07
4.45332e-07
4.4234e-07
2.67516e-07
2.51801e-07
2.33802e-07
2.79034e-07
2.39471e-07
2.33787e-07
2.78955e-07
2.52001e-07
2.67473e-07
4.42307e-07
4.45247e-07
2.66496e-07
2.51936e-07
2.39459e-07
2.78945e-07
2.33779e-07
2.78987e-07
2.3378e-07
2.51796e-07
2.67475e-07
4.42334e-07
4.45268e-07
2.66497e-07
2.51939e-07
2.39466e-07
2.33781e-07
2.78951e-07
2.33782e-07
2.78993e-07
2.51798e-07
2.665e-07
4.45294e-07
4.42304e-07
2.67526e-07
2.51802e-07
2.33811e-07
2.79016e-07
2.39468e-07
2.33788e-07
2.78949e-07
2.52025e-07
2.66502e-07
4.45234e-07
4.42325e-07
2.67535e-07
2.51936e-07
2.39458e-07
2.78942e-07
2.33778e-07
2.78982e-07
2.3378e-07
2.51797e-07
2.67475e-07
4.42297e-07
4.45224e-07
2.66498e-07
2.51939e-07
2.39464e-07
2.3378e-07
2.78947e-07
2.33782e-07
2.78987e-07
2.51798e-07
2.67476e-07
4.42323e-07
4.45243e-07
2.66499e-07
2.83145e-07
2.83145e-07
2.46863e-07
2.81435e-07
2.81437e-07
4.05378e-07
3.99289e-07
3.99343e-07
4.05365e-07
2.46866e-07
2.81432e-07
2.81433e-07
2.83103e-07
2.83103e-07
3.99283e-07
4.05304e-07
2.51802e-07
2.33809e-07
2.79017e-07
2.39463e-07
2.33788e-07
2.78949e-07
2.52019e-07
2.66501e-07
4.45315e-07
4.42327e-07
2.67528e-07
2.66502e-07
4.45308e-07
4.42316e-07
2.67536e-07
2.51938e-07
2.39462e-07
2.33781e-07
2.78946e-07
2.33782e-07
2.78986e-07
2.51799e-07
2.51939e-07
2.3946e-07
2.3378e-07
2.78947e-07
2.33782e-07
2.78988e-07
2.51798e-07
2.67476e-07
4.42321e-07
4.45247e-07
2.66499e-07
2.67476e-07
4.42313e-07
4.45249e-07
2.66499e-07
4.0532e-07
3.99284e-07
4.05392e-07
3.9934e-07
2.46864e-07
2.81434e-07
2.81427e-07
2.83103e-07
2.83097e-07
3.99285e-07
4.053e-07
3.9934e-07
4.05361e-07
4.05285e-07
3.99268e-07
4.05353e-07
3.99331e-07
2.83102e-07
2.83094e-07
2.46855e-07
2.81432e-07
2.81425e-07
3.99268e-07
4.05284e-07
3.99331e-07
4.05352e-07
2.46862e-07
2.81432e-07
2.81424e-07
2.83101e-07
2.83094e-07
2.66495e-07
4.45228e-07
2.67473e-07
4.42297e-07
2.51794e-07
2.78984e-07
2.33779e-07
2.39462e-07
2.51936e-07
2.78945e-07
2.33779e-07
2.51795e-07
2.78986e-07
2.33779e-07
2.3946e-07
2.51936e-07
2.78946e-07
2.33778e-07
2.67472e-07
4.42303e-07
4.45223e-07
2.66496e-07
2.67472e-07
4.42296e-07
4.45228e-07
2.66496e-07
2.51934e-07
2.39462e-07
2.78945e-07
2.33779e-07
2.78984e-07
2.33779e-07
2.51795e-07
2.51935e-07
2.39461e-07
2.78946e-07
2.33778e-07
2.78986e-07
2.33779e-07
2.51796e-07
2.83098e-07
2.83096e-07
2.46853e-07
2.81427e-07
2.81427e-07
4.05291e-07
3.9927e-07
3.99328e-07
4.05345e-07
2.4686e-07
2.81427e-07
2.81427e-07
2.83097e-07
2.83096e-07
3.99271e-07
4.0529e-07
2.51794e-07
2.78985e-07
2.33779e-07
2.39457e-07
2.51936e-07
2.78945e-07
2.33779e-07
2.66496e-07
4.45265e-07
2.67475e-07
4.42334e-07
2.51797e-07
2.33781e-07
2.78991e-07
2.39464e-07
2.51938e-07
2.33781e-07
2.78951e-07
2.67472e-07
4.42307e-07
4.45244e-07
2.66496e-07
2.51935e-07
2.39457e-07
2.78944e-07
2.33779e-07
2.78985e-07
2.33779e-07
2.51795e-07
2.67474e-07
4.42334e-07
4.45265e-07
2.66497e-07
2.51937e-07
2.39465e-07
2.33781e-07
2.78951e-07
2.33781e-07
2.78992e-07
2.51798e-07
2.66497e-07
4.45221e-07
2.67475e-07
4.42298e-07
2.51797e-07
2.3378e-07
2.78986e-07
2.39463e-07
2.51938e-07
2.3378e-07
2.78947e-07
2.66498e-07
4.45243e-07
2.67476e-07
4.42323e-07
2.51934e-07
2.39456e-07
2.78942e-07
2.33778e-07
2.78981e-07
2.33778e-07
2.51797e-07
2.67474e-07
4.42298e-07
4.45223e-07
2.66498e-07
2.51937e-07
2.39463e-07
2.3378e-07
2.78947e-07
2.33781e-07
2.78986e-07
2.51798e-07
2.67475e-07
4.42323e-07
4.45242e-07
2.66499e-07
2.83102e-07
2.83102e-07
2.46858e-07
2.81432e-07
2.81432e-07
4.05303e-07
3.99281e-07
3.99343e-07
4.05362e-07
2.46865e-07
2.81432e-07
2.81433e-07
2.83102e-07
2.83101e-07
3.99283e-07
4.05301e-07
2.51797e-07
2.3378e-07
2.78987e-07
2.39459e-07
2.51938e-07
2.3378e-07
2.78947e-07
2.66498e-07
4.45244e-07
2.67476e-07
4.4232e-07
2.66498e-07
4.45248e-07
2.67476e-07
4.42313e-07
2.51936e-07
2.39461e-07
2.33781e-07
2.78946e-07
2.33781e-07
2.78985e-07
2.51799e-07
2.51937e-07
2.39459e-07
2.3378e-07
2.78947e-07
2.3378e-07
2.78987e-07
2.51798e-07
2.67475e-07
4.4232e-07
4.45243e-07
2.66499e-07
2.67475e-07
4.42313e-07
4.45248e-07
2.66499e-07
4.053e-07
3.99283e-07
4.05359e-07
3.99338e-07
2.46863e-07
2.81433e-07
2.81426e-07
2.83103e-07
2.83096e-07
3.99284e-07
4.05299e-07
3.99339e-07
4.05359e-07