/*--------------------------------*- C++ -*----------------------------------*\
| =========                 |                                                 |
| \\      /  F ield         | OpenFOAM: The Open Source CFD Toolbox           |
|  \\    /   O peration     | Version:  2206                                  |
|   \\  /    A nd           | Website:  www.openfoam.com                      |
|    \\/     M anipulation  |                                                 |
\*---------------------------------------------------------------------------*/
FoamFile
{
    version     2.0;
    format      ascii;
    arch        "LSB;label=32;scalar=64";
    class       volScalarField;
    location    "2.5";
    object      k;
}
// * * * * * * * * * * * * * * * * * * * * * * * * * * * * * * * * * * * * * //

dimensions      [0 2 -2 0 0 0 0];

internalField   nonuniform List<scalar> 
171728
(
3.83281e-05
3.62148e-05
3.64064e-05
3.64067e-05
3.83284e-05
3.82718e-05
3.83282e-05
3.64068e-05
3.64069e-05
3.83289e-05
3.64066e-05
3.64069e-05
3.6407e-05
3.83292e-05
3.64068e-05
3.58518e-05
3.58512e-05
3.8272e-05
3.55055e-05
3.55051e-05
3.57092e-05
3.1115e-05
3.09227e-05
3.59965e-05
2.54347e-05
2.52748e-05
3.5709e-05
3.11146e-05
3.0922e-05
3.59965e-05
3.62147e-05
3.62148e-05
3.62147e-05
3.75466e-05
3.73153e-05
3.62237e-05
3.64071e-05
3.70646e-05
3.62242e-05
3.75715e-05
2.54342e-05
2.52742e-05
3.75469e-05
3.62237e-05
3.73156e-05
3.64074e-05
3.62242e-05
3.70646e-05
3.75717e-05
3.58518e-05
3.58511e-05
3.82733e-05
3.55083e-05
3.5508e-05
2.54349e-05
2.52725e-05
2.54346e-05
2.52722e-05
3.83284e-05
3.55052e-05
3.5505e-05
3.58519e-05
3.58513e-05
2.52725e-05
2.54347e-05
2.52722e-05
2.54344e-05
2.54352e-05
2.52752e-05
2.54346e-05
2.52745e-05
3.58518e-05
3.5851e-05
3.82726e-05
3.55079e-05
3.55074e-05
3.57092e-05
3.1115e-05
3.09224e-05
3.59965e-05
3.7546e-05
3.73158e-05
3.62237e-05
3.64074e-05
3.70648e-05
3.62242e-05
3.7571e-05
3.75461e-05
3.73158e-05
3.62237e-05
3.6407e-05
3.70651e-05
3.62242e-05
3.7571e-05
3.58512e-05
3.58515e-05
3.8273e-05
3.55079e-05
3.55079e-05
2.5435e-05
2.52751e-05
3.7546e-05
3.73155e-05
3.62237e-05
3.64073e-05
3.70644e-05
3.62242e-05
3.75709e-05
3.5709e-05
3.11146e-05
3.0922e-05
3.59965e-05
3.7546e-05
3.62237e-05
3.73159e-05
3.64075e-05
3.62242e-05
3.70649e-05
3.7571e-05
3.57096e-05
3.11145e-05
3.09224e-05
3.59965e-05
3.75467e-05
3.62237e-05
3.73164e-05
3.64075e-05
3.62243e-05
3.70656e-05
3.75717e-05
3.57096e-05
3.11144e-05
3.09223e-05
3.59966e-05
3.58513e-05
3.58517e-05
3.8273e-05
3.55076e-05
3.55076e-05
2.54348e-05
2.52749e-05
3.75471e-05
3.62237e-05
3.73161e-05
3.64071e-05
3.62243e-05
3.70653e-05
3.75718e-05
3.57096e-05
3.11144e-05
3.09223e-05
3.59966e-05
3.57098e-05
3.11144e-05
3.09221e-05
3.59966e-05
2.54342e-05
2.52746e-05
2.54338e-05
2.52743e-05
3.5301e-05
2.43677e-05
2.43669e-05
2.44329e-05
2.44318e-05
3.51997e-05
3.68743e-05
3.91838e-05
3.07556e-05
3.55053e-05
3.04091e-05
3.72035e-05
3.91211e-05
3.68729e-05
3.91809e-05
3.07542e-05
3.55049e-05
3.04074e-05
3.72026e-05
3.91174e-05
3.51997e-05
2.44329e-05
2.44318e-05
2.43676e-05
2.43668e-05
3.5301e-05
3.72036e-05
3.04092e-05
3.5852e-05
3.91214e-05
3.07556e-05
3.68746e-05
3.91843e-05
3.72027e-05
3.04074e-05
3.58512e-05
3.91178e-05
3.07541e-05
3.68731e-05
3.91813e-05
2.85443e-05
2.91828e-05
3.56389e-05
3.59966e-05
2.9287e-05
3.59189e-05
2.84155e-05
2.38057e-05
3.09206e-05
3.52909e-05
3.50625e-05
2.4019e-05
2.40192e-05
3.50654e-05
3.11151e-05
3.52911e-05
2.3808e-05
2.84131e-05
3.57069e-05
2.92868e-05
3.59187e-05
2.91804e-05
3.56366e-05
2.85441e-05
2.52726e-05
2.54349e-05
2.85446e-05
3.56389e-05
2.91827e-05
3.59967e-05
3.5919e-05
2.9287e-05
2.84157e-05
2.3806e-05
3.09199e-05
3.52911e-05
3.50629e-05
2.40196e-05
2.40198e-05
3.50658e-05
3.11147e-05
3.52912e-05
2.38083e-05
2.84134e-05
3.57068e-05
3.59188e-05
2.92868e-05
3.56366e-05
2.91804e-05
2.85445e-05
2.5272e-05
2.54343e-05
3.53005e-05
2.43707e-05
2.43696e-05
2.44327e-05
2.44316e-05
3.52025e-05
3.68747e-05
3.9185e-05
3.07552e-05
3.55055e-05
3.72039e-05
3.91217e-05
3.0409e-05
3.68732e-05
3.9182e-05
3.07538e-05
3.55051e-05
3.72029e-05
3.91183e-05
3.04073e-05
3.51995e-05
2.44326e-05
2.44315e-05
3.52998e-05
2.43677e-05
2.43667e-05
3.72038e-05
3.04112e-05
3.5852e-05
3.91242e-05
3.91844e-05
3.07553e-05
3.68767e-05
3.72028e-05
3.04096e-05
3.58512e-05
3.91205e-05
3.91812e-05
3.07539e-05
3.68752e-05
2.52725e-05
2.54348e-05
2.52722e-05
2.54345e-05
3.51997e-05
2.44329e-05
2.44318e-05
3.53008e-05
2.43675e-05
2.43666e-05
3.72037e-05
3.91216e-05
3.04091e-05
3.58518e-05
3.68745e-05
3.07554e-05
3.91846e-05
3.72028e-05
3.91183e-05
3.04074e-05
3.58511e-05
3.68732e-05
3.0754e-05
3.91817e-05
3.53002e-05
2.43674e-05
2.43664e-05
3.51996e-05
2.44328e-05
2.44317e-05
3.68746e-05
3.07556e-05
3.91839e-05
3.55055e-05
3.72035e-05
3.04092e-05
3.91216e-05
3.68732e-05
3.07542e-05
3.91812e-05
3.55051e-05
3.72026e-05
3.04075e-05
3.9118e-05
2.54345e-05
2.52726e-05
2.54341e-05
2.52722e-05
2.5273e-05
2.54352e-05
2.52724e-05
2.54348e-05
3.53009e-05
2.43697e-05
2.4369e-05
2.44329e-05
2.44316e-05
3.52023e-05
3.68743e-05
3.91831e-05
3.55054e-05
3.07556e-05
3.04092e-05
3.9121e-05
3.72031e-05
3.6873e-05
3.91802e-05
3.55051e-05
3.0754e-05
3.04073e-05
3.91174e-05
3.72022e-05
3.72032e-05
3.04114e-05
3.58519e-05
3.91225e-05
3.07556e-05
3.68755e-05
3.91829e-05
3.72022e-05
3.04094e-05
3.58511e-05
3.91189e-05
3.0754e-05
3.68741e-05
3.91801e-05
3.51997e-05
2.44329e-05
2.44316e-05
2.43676e-05
2.43668e-05
3.53009e-05
2.85445e-05
2.91828e-05
3.56391e-05
3.59966e-05
2.9287e-05
3.59189e-05
2.84157e-05
2.38059e-05
3.09203e-05
3.52912e-05
3.50631e-05
2.40193e-05
2.40195e-05
3.50661e-05
3.1115e-05
3.52913e-05
2.38081e-05
2.84133e-05
3.57069e-05
2.92868e-05
3.59188e-05
2.91804e-05
3.56366e-05
2.85444e-05
3.53008e-05
2.43694e-05
2.43703e-05
2.4432e-05
2.44329e-05
3.52024e-05
3.68731e-05
3.91813e-05
3.55054e-05
3.07541e-05
3.04075e-05
3.91189e-05
3.72023e-05
3.68741e-05
3.91824e-05
3.55055e-05
3.07552e-05
3.91197e-05
3.0409e-05
3.72029e-05
3.72023e-05
3.04097e-05
3.58513e-05
3.91208e-05
3.07542e-05
3.91812e-05
3.68746e-05
3.72028e-05
3.04112e-05
3.58516e-05
3.91216e-05
3.91818e-05
3.07553e-05
3.68755e-05
3.51995e-05
2.44319e-05
2.44327e-05
2.4367e-05
2.43679e-05
3.53005e-05
2.52729e-05
2.54352e-05
2.85442e-05
2.91827e-05
3.56389e-05
3.59968e-05
2.9287e-05
3.59191e-05
2.84153e-05
2.38057e-05
3.09199e-05
3.5291e-05
3.50626e-05
2.40191e-05
2.40192e-05
3.50655e-05
3.11147e-05
3.52912e-05
2.38078e-05
2.8413e-05
3.57068e-05
2.92869e-05
3.59188e-05
2.91804e-05
3.56365e-05
2.85441e-05
2.85444e-05
3.56393e-05
2.91827e-05
3.59967e-05
3.59189e-05
2.92867e-05
2.84158e-05
2.38061e-05
3.09202e-05
3.52909e-05
3.50631e-05
2.40194e-05
2.40195e-05
3.5066e-05
3.11145e-05
3.52911e-05
2.38084e-05
2.84133e-05
3.5707e-05
3.59187e-05
2.92866e-05
3.56367e-05
2.91802e-05
2.85443e-05
2.8544e-05
2.91827e-05
3.56393e-05
3.59968e-05
2.92867e-05
3.59189e-05
2.84154e-05
2.38057e-05
3.09201e-05
3.52909e-05
3.50624e-05
2.40188e-05
2.4019e-05
3.50658e-05
3.11145e-05
3.5291e-05
2.3808e-05
2.8413e-05
3.57071e-05
2.92865e-05
3.59188e-05
2.91802e-05
3.56366e-05
2.85439e-05
3.53012e-05
2.43691e-05
2.437e-05
2.44316e-05
2.44328e-05
3.52025e-05
3.68734e-05
3.91819e-05
3.55052e-05
3.07541e-05
3.04073e-05
3.91192e-05
3.72027e-05
3.68744e-05
3.91829e-05
3.55053e-05
3.07555e-05
3.91202e-05
3.04092e-05
3.72034e-05
3.72027e-05
3.04094e-05
3.58513e-05
3.91207e-05
3.07541e-05
3.91816e-05
3.68747e-05
3.72033e-05
3.04114e-05
3.58518e-05
3.91218e-05
3.91823e-05
3.07556e-05
3.68758e-05
3.51998e-05
2.44315e-05
2.44328e-05
2.43668e-05
2.43675e-05
3.53008e-05
2.52726e-05
2.54349e-05
2.85441e-05
3.56392e-05
2.91826e-05
3.59967e-05
3.59189e-05
2.92867e-05
2.84155e-05
2.38058e-05
3.09201e-05
3.52908e-05
3.50626e-05
2.40191e-05
2.40194e-05
3.50655e-05
3.11145e-05
3.5291e-05
2.38083e-05
2.8413e-05
3.57071e-05
3.59188e-05
2.92865e-05
3.56368e-05
2.91802e-05
2.85439e-05
2.85443e-05
3.56396e-05
2.91827e-05
3.59967e-05
3.59189e-05
2.92867e-05
2.84157e-05
2.38058e-05
3.09199e-05
3.52911e-05
3.50631e-05
2.40188e-05
2.40192e-05
3.50664e-05
3.11145e-05
3.52912e-05
2.38083e-05
2.84132e-05
3.57071e-05
3.59188e-05
2.92865e-05
3.56368e-05
2.91802e-05
2.85441e-05
2.52724e-05
2.54344e-05
2.52721e-05
2.54341e-05
3.76839e-05
3.82981e-05
3.82984e-05
3.82719e-05
3.78453e-05
3.8324e-05
3.83238e-05
3.62012e-05
3.62012e-05
3.62153e-05
3.62017e-05
3.62017e-05
3.61994e-05
3.61989e-05
3.76841e-05
3.82991e-05
3.82997e-05
3.8272e-05
3.78464e-05
3.8324e-05
3.83242e-05
3.78461e-05
3.8329e-05
3.83243e-05
3.83244e-05
3.76842e-05
3.82993e-05
3.82993e-05
3.76837e-05
3.82981e-05
3.8298e-05
3.82713e-05
3.83235e-05
3.83233e-05
3.7845e-05
3.76837e-05
3.82987e-05
3.8298e-05
3.82716e-05
3.8323e-05
3.83239e-05
3.78451e-05
3.7684e-05
3.82995e-05
3.82984e-05
3.8272e-05
3.83236e-05
3.83245e-05
3.78457e-05
3.78458e-05
3.83295e-05
3.83238e-05
3.83239e-05
3.7684e-05
3.8299e-05
3.82994e-05
3.62012e-05
3.62012e-05
3.62153e-05
3.62017e-05
3.62017e-05
3.61994e-05
3.61989e-05
3.62012e-05
3.62012e-05
3.62154e-05
3.62017e-05
3.62017e-05
3.61994e-05
3.61989e-05
3.62011e-05
3.62012e-05
3.62153e-05
3.62017e-05
3.62017e-05
3.61994e-05
3.61989e-05
3.65764e-05
3.76203e-05
3.66444e-05
3.75713e-05
3.76364e-05
3.65439e-05
3.66857e-05
3.68788e-05
3.7416e-05
3.70627e-05
3.78257e-05
3.74848e-05
3.78306e-05
3.67445e-05
3.67445e-05
3.78323e-05
3.73153e-05
3.74858e-05
3.74156e-05
3.78255e-05
3.688e-05
3.66843e-05
3.75447e-05
3.76366e-05
3.65438e-05
3.76184e-05
3.66429e-05
3.65763e-05
3.65764e-05
3.66445e-05
3.76205e-05
3.75714e-05
3.65439e-05
3.76368e-05
3.66857e-05
3.68789e-05
3.74165e-05
3.70628e-05
3.78261e-05
3.7485e-05
3.78307e-05
3.67447e-05
3.67446e-05
3.78324e-05
3.73155e-05
3.74859e-05
3.74159e-05
3.78258e-05
3.68801e-05
3.66843e-05
3.75449e-05
3.65438e-05
3.76371e-05
3.66429e-05
3.76187e-05
3.65764e-05
3.78457e-05
3.83291e-05
3.83242e-05
3.83242e-05
3.82985e-05
3.82991e-05
3.76854e-05
3.76842e-05
3.82722e-05
3.82982e-05
3.82985e-05
3.78454e-05
3.83242e-05
3.83241e-05
3.78448e-05
3.83278e-05
3.83231e-05
3.83232e-05
3.76843e-05
3.82975e-05
3.82979e-05
3.65763e-05
3.762e-05
3.66441e-05
3.7571e-05
3.76364e-05
3.65438e-05
3.66856e-05
3.68791e-05
3.74168e-05
3.70631e-05
3.7826e-05
3.78309e-05
3.74855e-05
3.67448e-05
3.67448e-05
3.78326e-05
3.73158e-05
3.74864e-05
3.7826e-05
3.74165e-05
3.68803e-05
3.66842e-05
3.75443e-05
3.76365e-05
3.65436e-05
3.76183e-05
3.66427e-05
3.65762e-05
3.65763e-05
3.762e-05
3.66442e-05
3.75709e-05
3.76361e-05
3.65438e-05
3.66856e-05
3.68791e-05
3.74159e-05
3.70631e-05
3.7826e-05
3.78309e-05
3.7485e-05
3.67446e-05
3.67447e-05
3.78327e-05
3.73158e-05
3.74861e-05
3.78259e-05
3.68803e-05
3.7416e-05
3.66842e-05
3.75443e-05
3.76363e-05
3.65436e-05
3.76181e-05
3.66428e-05
3.65762e-05
3.78447e-05
3.83292e-05
3.8324e-05
3.83232e-05
3.82972e-05
3.82986e-05
3.76847e-05
3.65764e-05
3.76198e-05
3.66441e-05
3.75712e-05
3.76363e-05
3.65438e-05
3.66855e-05
3.68788e-05
3.74156e-05
3.70626e-05
3.78256e-05
3.78305e-05
3.74843e-05
3.67445e-05
3.67447e-05
3.78323e-05
3.73155e-05
3.74852e-05
3.78256e-05
3.74157e-05
3.688e-05
3.66841e-05
3.75444e-05
3.76362e-05
3.65436e-05
3.76181e-05
3.66428e-05
3.65762e-05
3.65764e-05
3.66441e-05
3.762e-05
3.75712e-05
3.65438e-05
3.76367e-05
3.66855e-05
3.68792e-05
3.74161e-05
3.70632e-05
3.78263e-05
3.78311e-05
3.74851e-05
3.67447e-05
3.67449e-05
3.78329e-05
3.7316e-05
3.74859e-05
3.78263e-05
3.68803e-05
3.74161e-05
3.66842e-05
3.75443e-05
3.65437e-05
3.76365e-05
3.66428e-05
3.76183e-05
3.65763e-05
3.65765e-05
3.66444e-05
3.76209e-05
3.75716e-05
3.65439e-05
3.76371e-05
3.66859e-05
3.68792e-05
3.74172e-05
3.70632e-05
3.78269e-05
3.74857e-05
3.7831e-05
3.6745e-05
3.6745e-05
3.78334e-05
3.73162e-05
3.74872e-05
3.74169e-05
3.78266e-05
3.68805e-05
3.66843e-05
3.75447e-05
3.65438e-05
3.76373e-05
3.66429e-05
3.76186e-05
3.65764e-05
3.78449e-05
3.83282e-05
3.83241e-05
3.83233e-05
3.82973e-05
3.82986e-05
3.76847e-05
3.65764e-05
3.66446e-05
3.76209e-05
3.75714e-05
3.6544e-05
3.76365e-05
3.66859e-05
3.6879e-05
3.74165e-05
3.7063e-05
3.78264e-05
3.74847e-05
3.78308e-05
3.67449e-05
3.67447e-05
3.7833e-05
3.73158e-05
3.74861e-05
3.74157e-05
3.78259e-05
3.68804e-05
3.66844e-05
3.75449e-05
3.65439e-05
3.76371e-05
3.66429e-05
3.76186e-05
3.65764e-05
3.62154e-05
3.64069e-05
3.64073e-05
3.8328e-05
3.62147e-05
3.64064e-05
3.64068e-05
3.83286e-05
3.62147e-05
3.64064e-05
3.64066e-05
3.83282e-05
3.62147e-05
3.64065e-05
3.64068e-05
3.83287e-05
3.62147e-05
3.64067e-05
3.64067e-05
3.83284e-05
3.62147e-05
3.64065e-05
3.64068e-05
3.83284e-05
3.62148e-05
3.64066e-05
3.64069e-05
3.83283e-05
3.62147e-05
3.64065e-05
3.64066e-05
3.83292e-05
3.62148e-05
3.64066e-05
3.64068e-05
3.83281e-05
3.62147e-05
3.64063e-05
3.64068e-05
3.83276e-05
3.62147e-05
3.64066e-05
3.64069e-05
3.83279e-05
3.62147e-05
3.64064e-05
3.64068e-05
3.83284e-05
3.62147e-05
3.64067e-05
3.6407e-05
3.83289e-05
3.62148e-05
3.64064e-05
3.64068e-05
3.83286e-05
3.62148e-05
3.64066e-05
3.64069e-05
3.8328e-05
3.62147e-05
3.64064e-05
3.64067e-05
3.83279e-05
3.62147e-05
3.64066e-05
3.64069e-05
3.83292e-05
3.82709e-05
3.64073e-05
3.64074e-05
3.64069e-05
3.64069e-05
3.83297e-05
3.8271e-05
3.64071e-05
3.64073e-05
3.64064e-05
3.64069e-05
3.64071e-05
3.64066e-05
3.6407e-05
3.83297e-05
3.82717e-05
3.64069e-05
3.64066e-05
3.64065e-05
3.82714e-05
3.83277e-05
3.82713e-05
3.64068e-05
3.64067e-05
3.64069e-05
3.64067e-05
3.83286e-05
3.82713e-05
3.64066e-05
3.64068e-05
3.64068e-05
3.64067e-05
3.64068e-05
3.64069e-05
3.6407e-05
3.83291e-05
3.82723e-05
3.64066e-05
3.64067e-05
3.6407e-05
3.82713e-05
3.8329e-05
3.82712e-05
3.64066e-05
3.64067e-05
3.64068e-05
3.64069e-05
3.83288e-05
3.82706e-05
3.64066e-05
3.64067e-05
3.64068e-05
3.64068e-05
3.64069e-05
3.64068e-05
3.6407e-05
3.83296e-05
3.82721e-05
3.64069e-05
3.64067e-05
3.64068e-05
3.82714e-05
3.8329e-05
3.82716e-05
3.64067e-05
3.64068e-05
3.64069e-05
3.64069e-05
3.83279e-05
3.82715e-05
3.64066e-05
3.64067e-05
3.64066e-05
3.64068e-05
3.64069e-05
3.64069e-05
3.6407e-05
3.83294e-05
3.82725e-05
3.64066e-05
3.64066e-05
3.6407e-05
3.82715e-05
3.83286e-05
3.82715e-05
3.64069e-05
3.6407e-05
3.6407e-05
3.64069e-05
3.83284e-05
3.82713e-05
3.64066e-05
3.64067e-05
3.64069e-05
3.64068e-05
3.64071e-05
3.64067e-05
3.64071e-05
3.833e-05
3.82726e-05
3.64068e-05
3.64068e-05
3.64066e-05
3.82717e-05
3.83288e-05
3.82711e-05
3.64069e-05
3.6407e-05
3.64069e-05
3.64068e-05
3.83284e-05
3.82715e-05
3.64066e-05
3.64068e-05
3.64067e-05
3.64068e-05
3.64068e-05
3.64069e-05
3.64068e-05
3.83297e-05
3.82724e-05
3.64068e-05
3.64067e-05
3.6407e-05
3.82714e-05
3.8328e-05
3.82716e-05
3.64069e-05
3.64069e-05
3.64068e-05
3.64069e-05
3.83289e-05
3.82716e-05
3.64067e-05
3.64068e-05
3.64068e-05
3.64069e-05
3.64068e-05
3.64067e-05
3.64071e-05
3.83293e-05
3.82725e-05
3.64068e-05
3.64066e-05
3.64066e-05
3.82722e-05
3.83293e-05
3.82715e-05
3.64066e-05
3.64067e-05
3.64068e-05
3.64066e-05
3.8329e-05
3.82712e-05
3.64068e-05
3.64068e-05
3.64068e-05
3.64068e-05
3.64069e-05
3.64066e-05
3.64069e-05
3.833e-05
3.82723e-05
3.64068e-05
3.64066e-05
3.64066e-05
3.82715e-05
3.83285e-05
3.82704e-05
3.64069e-05
3.64069e-05
3.64068e-05
3.64068e-05
3.8328e-05
3.82706e-05
3.64066e-05
3.6407e-05
3.64065e-05
3.64067e-05
3.64069e-05
3.64066e-05
3.6407e-05
3.83292e-05
3.82716e-05
3.64067e-05
3.64066e-05
3.64065e-05
3.82711e-05
3.83278e-05
3.82713e-05
3.64068e-05
3.64068e-05
3.64069e-05
3.64067e-05
3.83282e-05
3.82709e-05
3.64066e-05
3.64067e-05
3.64065e-05
3.64068e-05
3.6407e-05
3.64068e-05
3.6407e-05
3.83286e-05
3.82717e-05
3.64068e-05
3.64067e-05
3.64069e-05
3.82709e-05
3.83284e-05
3.8272e-05
3.64068e-05
3.6407e-05
3.64068e-05
3.64069e-05
3.83279e-05
3.82716e-05
3.64065e-05
3.64068e-05
3.64066e-05
3.64068e-05
3.64069e-05
3.64068e-05
3.6407e-05
3.8329e-05
3.82723e-05
3.64068e-05
3.64067e-05
3.64069e-05
3.82719e-05
3.83295e-05
3.82722e-05
3.64066e-05
3.64067e-05
3.6407e-05
3.64068e-05
3.83293e-05
3.82722e-05
3.64068e-05
3.64068e-05
3.64066e-05
3.64068e-05
3.64071e-05
3.64067e-05
3.64071e-05
3.83294e-05
3.82729e-05
3.64068e-05
3.64068e-05
3.64068e-05
3.82723e-05
3.83292e-05
3.82715e-05
3.64069e-05
3.64069e-05
3.6407e-05
3.64069e-05
3.83289e-05
3.82714e-05
3.64065e-05
3.64067e-05
3.64068e-05
3.64067e-05
3.64071e-05
3.64068e-05
3.64071e-05
3.833e-05
3.82724e-05
3.64068e-05
3.64067e-05
3.64069e-05
3.8272e-05
3.83288e-05
3.82712e-05
3.64068e-05
3.64068e-05
3.64067e-05
3.64067e-05
3.8329e-05
3.82709e-05
3.64067e-05
3.64068e-05
3.64067e-05
3.64067e-05
3.64069e-05
3.64066e-05
3.6407e-05
3.83294e-05
3.82719e-05
3.64069e-05
3.64067e-05
3.64066e-05
3.82714e-05
3.83276e-05
3.82705e-05
3.64069e-05
3.64068e-05
3.64068e-05
3.64068e-05
3.83284e-05
3.82706e-05
3.64067e-05
3.64068e-05
3.64068e-05
3.64067e-05
3.64068e-05
3.64068e-05
3.6407e-05
3.83289e-05
3.82714e-05
3.64068e-05
3.64067e-05
3.64068e-05
3.82709e-05
3.8328e-05
3.82716e-05
3.64068e-05
3.64068e-05
3.64068e-05
3.64066e-05
3.83284e-05
3.82713e-05
3.64065e-05
3.64067e-05
3.64068e-05
3.64067e-05
3.64068e-05
3.64069e-05
3.64069e-05
3.83288e-05
3.82721e-05
3.64068e-05
3.64066e-05
3.64069e-05
3.82713e-05
3.83287e-05
3.82713e-05
3.64068e-05
3.6407e-05
3.64069e-05
3.6407e-05
3.83283e-05
3.82712e-05
3.64065e-05
3.64068e-05
3.64066e-05
3.64069e-05
3.64069e-05
3.64067e-05
3.64068e-05
3.83292e-05
3.82721e-05
3.64068e-05
3.64066e-05
3.6407e-05
3.57066e-05
3.11168e-05
3.09205e-05
3.59989e-05
2.54365e-05
2.52725e-05
3.57066e-05
3.11164e-05
3.09198e-05
3.5999e-05
3.62154e-05
3.62154e-05
3.62149e-05
3.62147e-05
3.62148e-05
3.62147e-05
3.62148e-05
3.75441e-05
3.73169e-05
3.62243e-05
3.64067e-05
3.70624e-05
3.62237e-05
3.75728e-05
2.54362e-05
2.5272e-05
3.75441e-05
3.62243e-05
3.73171e-05
3.64066e-05
3.62237e-05
3.70624e-05
3.75726e-05
3.58516e-05
3.58509e-05
3.82716e-05
3.55053e-05
3.55049e-05
3.57068e-05
3.11148e-05
3.59966e-05
3.09205e-05
2.54349e-05
2.52725e-05
3.57068e-05
3.11145e-05
3.59966e-05
3.09198e-05
3.62147e-05
3.62148e-05
3.62147e-05
3.62148e-05
3.62148e-05
3.62147e-05
3.62148e-05
3.7544e-05
3.73151e-05
3.62236e-05
3.64069e-05
3.75713e-05
3.70623e-05
3.62237e-05
2.54342e-05
2.5272e-05
3.75443e-05
3.62237e-05
3.73155e-05
3.64066e-05
3.75717e-05
3.62236e-05
3.70626e-05
3.58517e-05
3.5851e-05
3.82714e-05
3.55052e-05
3.55048e-05
3.57067e-05
3.11149e-05
3.59965e-05
3.09205e-05
2.54348e-05
2.52726e-05
3.57065e-05
3.11145e-05
3.59966e-05
3.09197e-05
3.62147e-05
3.62147e-05
3.62148e-05
3.62148e-05
3.62148e-05
3.62147e-05
3.62148e-05
3.75442e-05
3.73152e-05
3.62236e-05
3.64067e-05
3.75711e-05
3.70625e-05
3.62237e-05
2.54344e-05
2.5272e-05
3.75445e-05
3.62236e-05
3.73155e-05
3.64066e-05
3.75715e-05
3.62236e-05
3.70625e-05
3.58517e-05
3.5851e-05
3.82717e-05
3.55056e-05
3.55051e-05
3.57064e-05
3.1115e-05
3.59965e-05
3.09204e-05
2.54351e-05
2.52726e-05
3.57066e-05
3.11146e-05
3.59966e-05
3.09198e-05
3.62147e-05
3.62147e-05
3.62147e-05
3.62147e-05
3.62147e-05
3.62147e-05
3.62148e-05
3.75436e-05
3.7315e-05
3.62236e-05
3.64068e-05
3.75706e-05
3.7062e-05
3.62236e-05
2.54344e-05
2.52721e-05
3.75443e-05
3.62237e-05
3.73154e-05
3.64067e-05
3.75711e-05
3.62237e-05
3.70626e-05
3.58517e-05
3.5851e-05
3.82715e-05
3.55051e-05
3.55047e-05
3.57071e-05
3.11148e-05
3.59966e-05
3.09205e-05
2.54345e-05
2.52725e-05
3.57066e-05
3.11145e-05
3.59966e-05
3.09197e-05
3.62147e-05
3.62147e-05
3.62148e-05
3.62148e-05
3.62148e-05
3.62147e-05
3.62148e-05
3.75449e-05
3.73157e-05
3.62237e-05
3.64068e-05
3.7572e-05
3.7063e-05
3.62237e-05
2.54344e-05
2.5272e-05
3.75445e-05
3.62236e-05
3.73155e-05
3.64066e-05
3.75717e-05
3.62236e-05
3.70625e-05
3.58518e-05
3.58512e-05
3.82714e-05
3.55056e-05
3.55052e-05
3.57067e-05
3.11149e-05
3.59965e-05
3.09205e-05
2.54349e-05
2.52726e-05
3.5707e-05
3.11144e-05
3.59966e-05
3.09198e-05
3.62147e-05
3.62147e-05
3.62148e-05
3.62148e-05
3.62147e-05
3.62147e-05
3.62148e-05
3.75442e-05
3.73151e-05
3.62236e-05
3.64066e-05
3.7571e-05
3.70623e-05
3.62236e-05
2.54339e-05
2.52719e-05
3.75449e-05
3.62237e-05
3.73158e-05
3.64068e-05
3.75718e-05
3.62237e-05
3.7063e-05
3.58517e-05
3.5851e-05
3.82718e-05
3.55053e-05
3.5505e-05
3.57068e-05
3.11147e-05
3.59967e-05
3.09205e-05
2.54346e-05
2.52723e-05
3.57066e-05
3.11145e-05
3.59967e-05
3.09198e-05
3.62147e-05
3.62148e-05
3.62147e-05
3.62148e-05
3.62148e-05
3.62147e-05
3.62148e-05
3.75448e-05
3.73156e-05
3.62236e-05
3.64066e-05
3.75722e-05
3.7063e-05
3.62236e-05
2.54343e-05
2.52719e-05
3.75448e-05
3.62237e-05
3.73155e-05
3.64068e-05
3.75721e-05
3.62237e-05
3.70629e-05
3.58518e-05
3.58512e-05
3.82725e-05
3.55056e-05
3.55052e-05
3.57066e-05
3.11149e-05
3.59965e-05
3.09205e-05
2.54348e-05
2.52726e-05
3.57067e-05
3.11144e-05
3.59966e-05
3.09198e-05
3.62147e-05
3.62147e-05
3.62148e-05
3.62148e-05
3.62147e-05
3.62147e-05
3.62148e-05
3.75443e-05
3.73152e-05
3.62236e-05
3.64068e-05
3.7571e-05
3.70626e-05
3.62237e-05
2.5434e-05
2.52719e-05
3.75445e-05
3.62236e-05
3.73157e-05
3.64068e-05
3.75714e-05
3.62237e-05
3.70628e-05
3.58518e-05
3.58511e-05
3.82717e-05
3.55054e-05
3.55051e-05
3.57065e-05
3.11149e-05
3.59965e-05
3.09205e-05
2.54352e-05
2.52728e-05
3.57065e-05
3.11146e-05
3.59965e-05
3.09198e-05
3.62148e-05
3.62148e-05
3.62148e-05
3.62148e-05
3.62148e-05
3.62147e-05
3.62148e-05
3.75437e-05
3.73148e-05
3.62237e-05
3.64066e-05
3.75706e-05
3.70622e-05
3.62236e-05
2.54345e-05
2.52721e-05
3.75441e-05
3.62237e-05
3.73151e-05
3.64068e-05
3.75709e-05
3.62237e-05
3.70625e-05
3.58516e-05
3.5851e-05
3.82716e-05
3.55052e-05
3.55048e-05
3.57061e-05
3.11152e-05
3.59964e-05
3.09204e-05
2.54354e-05
2.52728e-05
3.57063e-05
3.11148e-05
3.59964e-05
3.09198e-05
3.62147e-05
3.62147e-05
3.62148e-05
3.62147e-05
3.62147e-05
3.62148e-05
3.62148e-05
3.75432e-05
3.73148e-05
3.62236e-05
3.64065e-05
3.75704e-05
3.70617e-05
3.62236e-05
2.54346e-05
2.52721e-05
3.75436e-05
3.62237e-05
3.73152e-05
3.64067e-05
3.75708e-05
3.62237e-05
3.70621e-05
3.58516e-05
3.58509e-05
3.82709e-05
3.55048e-05
3.55044e-05
3.57066e-05
3.11149e-05
3.59966e-05
3.09205e-05
2.54351e-05
2.52726e-05
3.57065e-05
3.11147e-05
3.59965e-05
3.09198e-05
3.62148e-05
3.62148e-05
3.62148e-05
3.62147e-05
3.62147e-05
3.62147e-05
3.62148e-05
3.75438e-05
3.73152e-05
3.62236e-05
3.64069e-05
3.75715e-05
3.70622e-05
3.62236e-05
2.54346e-05
2.5272e-05
3.75441e-05
3.62237e-05
3.73151e-05
3.64066e-05
3.75715e-05
3.62237e-05
3.70625e-05
3.58517e-05
3.58511e-05
3.82715e-05
3.5505e-05
3.55046e-05
3.57071e-05
3.11147e-05
3.59968e-05
3.09205e-05
2.54345e-05
2.52724e-05
3.57071e-05
3.11144e-05
3.59967e-05
3.09199e-05
3.62147e-05
3.62147e-05
3.62148e-05
3.62147e-05
3.62147e-05
3.62147e-05
3.62147e-05
3.75449e-05
3.73157e-05
3.62236e-05
3.64066e-05
3.75719e-05
3.70631e-05
3.62236e-05
2.5434e-05
2.52719e-05
3.75449e-05
3.62236e-05
3.73158e-05
3.64071e-05
3.75719e-05
3.62237e-05
3.70631e-05
3.5852e-05
3.58512e-05
3.8272e-05
3.55054e-05
3.55051e-05
3.57073e-05
3.11147e-05
3.59967e-05
3.09206e-05
2.54343e-05
2.52725e-05
3.57072e-05
3.11143e-05
3.59967e-05
3.09199e-05
3.62147e-05
3.62147e-05
3.62147e-05
3.62148e-05
3.62148e-05
3.62147e-05
3.62148e-05
3.75451e-05
3.73156e-05
3.62237e-05
3.64069e-05
3.7572e-05
3.70634e-05
3.62237e-05
2.54336e-05
2.52718e-05
3.75453e-05
3.62237e-05
3.73161e-05
3.64067e-05
3.75725e-05
3.62236e-05
3.70635e-05
3.5852e-05
3.58513e-05
3.82721e-05
3.55057e-05
3.55054e-05
3.57067e-05
3.11149e-05
3.59965e-05
3.09205e-05
2.54348e-05
2.52727e-05
3.57069e-05
3.11145e-05
3.59965e-05
3.09199e-05
3.62147e-05
3.62148e-05
3.62148e-05
3.62148e-05
3.62147e-05
3.62148e-05
3.62148e-05
3.75445e-05
3.73154e-05
3.62236e-05
3.64067e-05
3.75716e-05
3.70628e-05
3.62237e-05
2.54341e-05
2.5272e-05
3.75448e-05
3.62237e-05
3.73156e-05
3.64067e-05
3.75718e-05
3.62237e-05
3.70631e-05
3.58518e-05
3.58511e-05
3.82714e-05
3.55058e-05
3.55055e-05
3.57064e-05
3.1115e-05
3.59964e-05
3.09205e-05
2.54353e-05
2.52728e-05
3.57064e-05
3.11147e-05
3.59964e-05
3.09199e-05
3.62148e-05
3.62148e-05
3.62148e-05
3.62148e-05
3.62148e-05
3.62147e-05
3.62148e-05
3.75437e-05
3.73149e-05
3.62237e-05
3.64066e-05
3.75707e-05
3.70619e-05
3.62237e-05
2.54347e-05
2.52721e-05
3.75441e-05
3.62237e-05
3.73151e-05
3.64067e-05
3.75713e-05
3.62237e-05
3.70623e-05
3.58516e-05
3.58509e-05
3.8271e-05
3.55051e-05
3.55047e-05
3.57062e-05
3.1115e-05
3.59966e-05
3.09203e-05
2.54351e-05
2.52726e-05
3.57063e-05
3.11146e-05
3.59965e-05
3.09197e-05
3.62147e-05
3.62147e-05
3.62148e-05
3.62148e-05
3.62147e-05
3.62147e-05
3.62148e-05
3.75436e-05
3.73151e-05
3.62236e-05
3.64067e-05
3.7571e-05
3.70622e-05
3.62236e-05
2.54346e-05
2.5272e-05
3.75437e-05
3.62236e-05
3.73151e-05
3.64066e-05
3.75708e-05
3.62237e-05
3.70622e-05
3.58517e-05
3.58509e-05
3.82715e-05
3.55052e-05
3.55048e-05
3.57068e-05
3.11149e-05
3.59966e-05
3.09205e-05
2.54349e-05
2.52725e-05
3.57066e-05
3.11146e-05
3.59966e-05
3.09198e-05
3.62147e-05
3.62147e-05
3.62147e-05
3.62147e-05
3.62148e-05
3.62147e-05
3.62147e-05
3.75446e-05
3.73154e-05
3.62237e-05
3.64069e-05
3.75718e-05
3.70629e-05
3.62237e-05
2.54344e-05
2.5272e-05
3.75445e-05
3.62237e-05
3.73155e-05
3.64068e-05
3.75719e-05
3.62237e-05
3.70627e-05
2.5437e-05
2.5273e-05
2.54363e-05
2.52724e-05
3.58542e-05
3.58534e-05
3.82711e-05
3.55054e-05
3.55049e-05
2.52729e-05
2.54354e-05
2.52723e-05
2.54347e-05
3.83282e-05
3.55055e-05
3.5505e-05
3.58518e-05
3.5851e-05
3.57066e-05
3.11168e-05
3.09203e-05
3.5999e-05
3.75439e-05
3.73174e-05
3.62243e-05
3.6407e-05
3.70629e-05
3.62237e-05
3.75725e-05
3.75439e-05
3.73176e-05
3.62243e-05
3.64069e-05
3.70631e-05
3.62237e-05
3.75725e-05
3.59965e-05
3.09204e-05
3.11149e-05
3.57063e-05
3.59965e-05
3.09202e-05
3.1115e-05
3.57063e-05
3.7571e-05
3.64068e-05
3.70629e-05
3.62236e-05
3.73155e-05
3.62237e-05
3.75438e-05
3.7571e-05
3.64069e-05
3.70629e-05
3.62237e-05
3.73157e-05
3.62237e-05
3.75437e-05
3.58537e-05
3.5854e-05
3.8271e-05
3.55053e-05
3.55053e-05
2.54369e-05
2.52729e-05
2.52725e-05
2.54351e-05
3.83274e-05
3.55052e-05
3.55052e-05
3.58512e-05
3.58515e-05
2.52729e-05
2.54354e-05
3.75442e-05
3.73173e-05
3.62243e-05
3.64065e-05
3.70625e-05
3.62236e-05
3.75728e-05
3.57066e-05
3.11164e-05
3.09198e-05
3.59991e-05
3.7544e-05
3.62243e-05
3.73177e-05
3.64071e-05
3.62237e-05
3.7063e-05
3.75729e-05
3.59965e-05
3.09197e-05
3.11146e-05
3.57064e-05
3.75711e-05
3.64066e-05
3.70625e-05
3.62236e-05
3.73153e-05
3.62236e-05
3.7544e-05
3.59966e-05
3.09198e-05
3.11145e-05
3.57064e-05
3.75712e-05
3.6407e-05
3.62237e-05
3.70631e-05
3.62237e-05
3.73159e-05
3.7544e-05
3.57066e-05
3.11164e-05
3.09201e-05
3.5999e-05
3.75441e-05
3.62243e-05
3.73154e-05
3.64069e-05
3.62237e-05
3.7063e-05
3.7573e-05
3.57066e-05
3.11145e-05
3.09201e-05
3.59992e-05
3.7571e-05
3.64067e-05
3.70624e-05
3.62236e-05
3.7315e-05
3.62237e-05
3.75439e-05
3.59965e-05
3.09201e-05
3.11146e-05
3.57064e-05
3.75711e-05
3.64066e-05
3.62237e-05
3.70627e-05
3.62237e-05
3.73156e-05
3.75437e-05
3.59966e-05
3.09201e-05
3.11146e-05
3.57064e-05
3.58537e-05
3.5854e-05
3.82719e-05
3.55051e-05
3.55051e-05
2.54369e-05
2.52727e-05
2.5272e-05
2.54343e-05
3.83296e-05
3.55052e-05
3.55052e-05
3.58512e-05
3.58516e-05
2.52726e-05
2.54352e-05
3.75441e-05
3.62244e-05
3.73151e-05
3.64069e-05
3.62237e-05
3.70625e-05
3.75727e-05
3.57064e-05
3.11163e-05
3.092e-05
3.59991e-05
3.57065e-05
3.11146e-05
3.09199e-05
3.59991e-05
3.75711e-05
3.64066e-05
3.62237e-05
3.70625e-05
3.62236e-05
3.73153e-05
3.75439e-05
3.75711e-05
3.64067e-05
3.62236e-05
3.70624e-05
3.62237e-05
3.73153e-05
3.75439e-05
3.59965e-05
3.09199e-05
3.11145e-05
3.57063e-05
3.59966e-05
3.09198e-05
3.11146e-05
3.57063e-05
2.54352e-05
2.52726e-05
2.54349e-05
2.52723e-05
3.83286e-05
3.55053e-05
3.55048e-05
3.58516e-05
3.58509e-05
2.52726e-05
2.54352e-05
2.52723e-05
2.5435e-05
2.54353e-05
2.52729e-05
2.54346e-05
2.52723e-05
3.58518e-05
3.58509e-05
3.82715e-05
3.55054e-05
3.5505e-05
2.52729e-05
2.54352e-05
2.52723e-05
2.54346e-05
3.83285e-05
3.55055e-05
3.5505e-05
3.58517e-05
3.5851e-05
3.57068e-05
3.11149e-05
3.59966e-05
3.09202e-05
3.75442e-05
3.73158e-05
3.62236e-05
3.6407e-05
3.75717e-05
3.7063e-05
3.62236e-05
3.7544e-05
3.73158e-05
3.62236e-05
3.64067e-05
3.75716e-05
3.70631e-05
3.62236e-05
3.59966e-05
3.09205e-05
3.11149e-05
3.57067e-05
3.59966e-05
3.09203e-05
3.1115e-05
3.57067e-05
3.75712e-05
3.64069e-05
3.70631e-05
3.62237e-05
3.73157e-05
3.62236e-05
3.75441e-05
3.75712e-05
3.64066e-05
3.70632e-05
3.62236e-05
3.7316e-05
3.62236e-05
3.75441e-05
3.58512e-05
3.58515e-05
3.8271e-05
3.55052e-05
3.55052e-05
2.54354e-05
2.52729e-05
2.52725e-05
2.54347e-05
3.83283e-05
3.55053e-05
3.55054e-05
3.58513e-05
3.58515e-05
2.52729e-05
2.5435e-05
3.75443e-05
3.73155e-05
3.62236e-05
3.64065e-05
3.75716e-05
3.70626e-05
3.62236e-05
3.57068e-05
3.11145e-05
3.59966e-05
3.09199e-05
3.75443e-05
3.62237e-05
3.73161e-05
3.64072e-05
3.75716e-05
3.62237e-05
3.70632e-05
3.59966e-05
3.09198e-05
3.11146e-05
3.57065e-05
3.75711e-05
3.64066e-05
3.70627e-05
3.62237e-05
3.73155e-05
3.62236e-05
3.75441e-05
3.59966e-05
3.09198e-05
3.11146e-05
3.57065e-05
3.75711e-05
3.64071e-05
3.62236e-05
3.70631e-05
3.62237e-05
3.73159e-05
3.7544e-05
3.57065e-05
3.11146e-05
3.59966e-05
3.09201e-05
3.75439e-05
3.62237e-05
3.73158e-05
3.6407e-05
3.75715e-05
3.62237e-05
3.70629e-05
3.57065e-05
3.11145e-05
3.59966e-05
3.09201e-05
3.75716e-05
3.64069e-05
3.70626e-05
3.62237e-05
3.73154e-05
3.62237e-05
3.75443e-05
3.59966e-05
3.09202e-05
3.11144e-05
3.57069e-05
3.75716e-05
3.64066e-05
3.62237e-05
3.70632e-05
3.62236e-05
3.73161e-05
3.75443e-05
3.59966e-05
3.09201e-05
3.11144e-05
3.57069e-05
3.58513e-05
3.58516e-05
3.82717e-05
3.55053e-05
3.55053e-05
2.54351e-05
2.52725e-05
2.5272e-05
2.54343e-05
3.83284e-05
3.55052e-05
3.55054e-05
3.58512e-05
3.58516e-05
2.52726e-05
2.54349e-05
3.75442e-05
3.62236e-05
3.73156e-05
3.64069e-05
3.75717e-05
3.62237e-05
3.70625e-05
3.57066e-05
3.11144e-05
3.59967e-05
3.09199e-05
3.57066e-05
3.11146e-05
3.59967e-05
3.09198e-05
3.75718e-05
3.64069e-05
3.62237e-05
3.70628e-05
3.62237e-05
3.73155e-05
3.75446e-05
3.75717e-05
3.6407e-05
3.62237e-05
3.70629e-05
3.62237e-05
3.73158e-05
3.75445e-05
3.59967e-05
3.092e-05
3.11143e-05
3.57068e-05
3.59967e-05
3.09198e-05
3.11145e-05
3.57069e-05
2.54351e-05
2.52725e-05
2.54348e-05
2.52722e-05
3.83286e-05
3.55056e-05