/*--------------------------------*- C++ -*----------------------------------*\
| =========                 |                                                 |
| \\      /  F ield         | OpenFOAM: The Open Source CFD Toolbox           |
|  \\    /   O peration     | Version:  2206                                  |
|   \\  /    A nd           | Website:  www.openfoam.com                      |
|    \\/     M anipulation  |                                                 |
\*---------------------------------------------------------------------------*/
FoamFile
{
    version     2.0;
    format      ascii;
    arch        "LSB;label=32;scalar=64";
    class       volScalarField;
    location    "2.5";
    object      p;
}
// * * * * * * * * * * * * * * * * * * * * * * * * * * * * * * * * * * * * * //

dimensions      [0 2 -2 0 0 0 0];

internalField   nonuniform List<scalar> 
171728
(
0.00393447
0.00393454
0.00393454
0.00393747
0.0038854
0.00388529
0.00388529
0.00388769
0.00384349
0.00384346
0.00384346
0.00384588
0.00380172
0.0038017
0.0038017
0.00380412
0.00375995
0.00375993
0.00375993
0.00376235
0.00371818
0.00371816
0.00371816
0.00372058
0.00367642
0.0036764
0.0036764
0.00367882
0.00363465
0.00363463
0.00363463
0.00363705
0.00359288
0.00359286
0.00359286
0.00359528
0.00355111
0.00355109
0.00355109
0.00355351
0.00350935
0.00350933
0.00350933
0.00351175
0.00346758
0.00346756
0.00346756
0.00346998
0.00342581
0.00342579
0.00342579
0.00342821
0.00338405
0.00338402
0.00338402
0.00338644
0.00334228
0.00334226
0.00334226
0.00334468
0.00330051
0.00330049
0.00330049
0.00330291
0.00325874
0.00325872
0.00325872
0.00326114
0.00321698
0.00321695
0.00321695
0.00321937
0.00317521
0.00317519
0.00317519
0.00317761
0.00313344
0.00313342
0.00313342
0.00313584
0.00309167
0.00309165
0.00309165
0.00309407
0.00304991
0.00304989
0.00304989
0.00305231
0.00300814
0.00300812
0.00300812
0.00301054
0.00296637
0.00296635
0.00296635
0.00296877
0.0029246
0.00292458
0.00292458
0.002927
0.00288284
0.00288282
0.00288282
0.00288524
0.00284107
0.00284105
0.00284105
0.00284347
0.0027993
0.00279928
0.00279928
0.0028017
0.00275754
0.00275752
0.00275752
0.00275994
0.00271577
0.00271575
0.00271575
0.00271817
0.002674
0.00267398
0.00267398
0.0026764
0.00263223
0.00263221
0.00263221
0.00263463
0.00259047
0.00259045
0.00259045
0.00259287
0.0025487
0.00254868
0.00254868
0.0025511
0.00250693
0.00250691
0.00250691
0.00250933
0.00246517
0.00246515
0.00246515
0.00246757
0.0024234
0.00242338
0.00242338
0.0024258
0.00238163
0.00238161
0.00238161
0.00238403
0.00233986
0.00233984
0.00233984
0.00234226
0.0022981
0.00229808
0.00229808
0.0023005
0.00225633
0.00225631
0.00225631
0.00225873
0.00221456
0.00221454
0.00221454
0.00221696
0.0021728
0.00217278
0.00217278
0.0021752
0.00213103
0.00213101
0.00213101
0.00213343
0.00208926
0.00208924
0.00208924
0.00209166
0.00204749
0.00204747
0.00204747
0.00204989
0.00200573
0.00200571
0.00200571
0.00200813
0.00196396
0.00196394
0.00196394
0.00196636
0.00192219
0.00192217
0.00192217
0.00192459
0.00188043
0.00188041
0.00188041
0.00188283
0.00183866
0.00183864
0.00183864
0.00184106
0.00179689
0.00179687
0.00179687
0.00179929
0.00175513
0.0017551
0.0017551
0.00175752
0.00171336
0.00171334
0.00171334
0.00171576
0.00167159
0.00167157
0.00167157
0.00167399
0.00162982
0.0016298
0.0016298
0.00163222
0.00158806
0.00158804
0.00158804
0.00159046
0.00154629
0.00154627
0.00154627
0.00154869
0.00150452
0.0015045
0.0015045
0.00150692
0.00146276
0.00146274
0.00146274
0.00146515
0.00142099
0.00142097
0.00142097
0.00142339
0.00137922
0.0013792
0.0013792
0.00138162
0.00133745
0.00133743
0.00133743
0.00133985
0.00129569
0.00129566
0.00129566
0.00129808
0.00125392
0.0012539
0.0012539
0.00125632
0.00121215
0.00121213
0.00121213
0.00121455
0.00117039
0.00117037
0.00117037
0.00117279
0.00112862
0.0011286
0.0011286
0.00113102
0.00108685
0.00108683
0.00108683
0.00108925
0.00104508
0.00104506
0.00104506
0.00104748
0.00100332
0.0010033
0.0010033
0.00100572
0.000961551
0.00096153
0.00096153
0.00096395
0.000919785
0.000919764
0.000919764
0.000922184
0.000878018
0.000877997
0.000877997
0.000880417
0.000836251
0.00083623
0.00083623
0.00083865
0.000794483
0.000794462
0.000794462
0.000796882
0.000752715
0.000752694
0.000752694
0.000755114
0.000710948
0.000710927
0.000710927
0.000713346
0.000669181
0.00066916
0.00066916
0.00067158
0.000627415
0.000627394
0.000627394
0.000629814
0.000585648
0.000585627
0.000585627
0.000588047
0.00054388
0.000543859
0.000543859
0.000546279
0.000502113
0.000502092
0.000502092
0.000504512
0.000460346
0.000460325
0.000460325
0.000462745
0.000418579
0.000418558
0.000418558
0.000420978
0.000376812
0.000376791
0.000376791
0.000379211
0.000335045
0.000335024
0.000335024
0.000337443
0.000293278
0.000293257
0.000293256
0.000295676
0.000251511
0.00025149
0.00025149
0.00025391
0.000209744
0.000209723
0.000209723
0.000212143
0.000167976
0.000167955
0.000167955
0.000170375
0.000126208
0.000126188
0.000126188
0.000128608
8.4455e-05
8.4426e-05
8.44249e-05
8.68403e-05
4.32935e-05
4.27865e-05
4.27842e-05
4.50876e-05
1.04642e-05
1.0699e-05
1.06963e-05
1.03471e-05
0.00394695
0.00394723
0.00394723
0.00394695
0.00394723
0.00394723
0.00394815
0.00394814
0.00394815
0.00394814
0.00394723
0.00394722
0.00394695
0.00394723
0.00394723
0.00394695
0.00393747
0.00389329
0.00393454
0.00393454
0.0038958
0.0038958
0.00393747
0.00389329
0.00393454
0.00393454
0.0038958
0.0038958
0.00393454
0.0038958
0.00389579
0.00393747
0.00389328
0.00393454
0.0038958
0.00389579
0.00389328
0.00388769
0.0038515
0.00388529
0.00388529
0.00385391
0.00385391
0.00388769
0.0038515
0.00388529
0.00388529
0.00385391
0.00385391
0.00388529
0.00385391
0.00385391
0.00388769
0.0038515
0.00388529
0.00385391
0.00385391
0.0038515
0.00384588
0.00380973
0.00384347
0.00384347
0.00381214
0.00381214
0.00384588
0.00380973
0.00384346
0.00384346
0.00381214
0.00381214
0.00384346
0.00381214
0.00381214
0.00384588
0.00380973
0.00384346
0.00381214
0.00381214
0.00380973
0.00380412
0.00376796
0.0038017
0.0038017
0.00377037
0.00377037
0.00380412
0.00376797
0.0038017
0.0038017
0.00377037
0.00377037
0.0038017
0.00377037
0.00377037
0.00380412
0.00376796
0.0038017
0.00377037
0.00377037
0.00376796
0.00376235
0.0037262
0.00375993
0.00375993
0.0037286
0.0037286
0.00376235
0.0037262
0.00375993
0.00375993
0.0037286
0.0037286
0.00375993
0.0037286
0.0037286
0.00376235
0.0037262
0.00375993
0.0037286
0.0037286
0.0037262
0.00372058
0.00368443
0.00371816
0.00371816
0.00368684
0.00368684
0.00372058
0.00368443
0.00371816
0.00371816
0.00368684
0.00368684
0.00371816
0.00368684
0.00368684
0.00372058
0.00368443
0.00371816
0.00368684
0.00368684
0.00368443
0.00367882
0.00364266
0.0036764
0.0036764
0.00364507
0.00364507
0.00367881
0.00364266
0.0036764
0.0036764
0.00364507
0.00364507
0.0036764
0.00364507
0.00364507
0.00367882
0.00364266
0.0036764
0.00364507
0.00364507
0.00364266
0.00363705
0.0036009
0.00363463
0.00363463
0.0036033
0.0036033
0.00363705
0.0036009
0.00363463
0.00363463
0.0036033
0.0036033
0.00363463
0.0036033
0.0036033
0.00363705
0.0036009
0.00363463
0.0036033
0.0036033
0.0036009
0.00359528
0.00355913
0.00359286
0.00359286
0.00356154
0.00356154
0.00359528
0.00355913
0.00359286
0.00359286
0.00356154
0.00356153
0.00359286
0.00356153
0.00356153
0.00359528
0.00355913
0.00359286
0.00356153
0.00356153
0.00355913
0.00355351
0.00351736
0.00355109
0.00355109
0.00351977
0.00351977
0.00355351
0.00351736
0.00355109
0.00355109
0.00351977
0.00351977
0.00355109
0.00351977
0.00351977
0.00355351
0.00351736
0.00355109
0.00351977
0.00351977
0.00351736
0.00351175
0.00347559
0.00350933
0.00350933
0.003478
0.003478
0.00351175
0.00347559
0.00350933
0.00350933
0.003478
0.003478
0.00350933
0.003478
0.003478
0.00351175
0.00347559
0.00350933
0.003478
0.003478
0.00347559
0.00346998
0.00343383
0.00346756
0.00346756
0.00343623
0.00343623
0.00346998
0.00343383
0.00346756
0.00346756
0.00343623
0.00343623
0.00346756
0.00343623
0.00343623
0.00346998
0.00343383
0.00346756
0.00343623
0.00343623
0.00343383
0.00342821
0.00339206
0.00342579
0.00342579
0.00339447
0.00339447
0.00342821
0.00339206
0.00342579
0.00342579
0.00339447
0.00339447
0.00342579
0.00339447
0.00339447
0.00342821
0.00339206
0.00342579
0.00339447
0.00339447
0.00339206
0.00338644
0.00335029
0.00338402
0.00338402
0.0033527
0.0033527
0.00338644
0.00335029
0.00338402
0.00338402
0.0033527
0.0033527
0.00338402
0.0033527
0.0033527
0.00338644
0.00335029
0.00338402
0.0033527
0.0033527
0.00335029
0.00334468
0.00330853
0.00334226
0.00334226
0.00331093
0.00331093
0.00334468
0.00330853
0.00334226
0.00334226
0.00331093
0.00331093
0.00334226
0.00331093
0.00331093
0.00334468
0.00330853
0.00334226
0.00331093
0.00331093
0.00330853
0.00330291
0.00326676
0.00330049
0.00330049
0.00326917
0.00326916
0.00330291
0.00326676
0.00330049
0.00330049
0.00326917
0.00326917
0.00330049
0.00326916
0.00326917
0.00330291
0.00326676
0.00330049
0.00326917
0.00326917
0.00326676
0.00326114
0.00322499
0.00325872
0.00325872
0.0032274
0.0032274
0.00326114
0.00322499
0.00325872
0.00325872
0.0032274
0.0032274
0.00325872
0.0032274
0.0032274
0.00326114
0.00322499
0.00325872
0.0032274
0.0032274
0.00322499
0.00321937
0.00318322
0.00321695
0.00321695
0.00318563
0.00318563
0.00321937
0.00318322
0.00321695
0.00321695
0.00318563
0.00318563
0.00321695
0.00318563
0.00318563
0.00321937
0.00318322
0.00321695
0.00318563
0.00318563
0.00318322
0.00317761
0.00314145
0.00317519
0.00317519
0.00314386
0.00314386
0.00317761
0.00314145
0.00317519
0.00317519
0.00314386
0.00314386
0.00317519
0.00314386
0.00314386
0.00317761
0.00314145
0.00317519
0.00314386
0.00314386
0.00314145
0.00313584
0.00309969
0.00313342
0.00313342
0.00310209
0.00310209
0.00313584
0.00309969
0.00313342
0.00313342
0.00310209
0.00310209
0.00313342
0.00310209
0.00310209
0.00313584
0.00309969
0.00313342
0.00310209
0.00310209
0.00309969
0.00309407
0.00305792
0.00309165
0.00309165
0.00306033
0.00306033
0.00309407
0.00305792
0.00309165
0.00309165
0.00306033
0.00306033
0.00309165
0.00306033
0.00306033
0.00309407
0.00305792
0.00309165
0.00306033
0.00306033
0.00305792
0.00305231
0.00301615
0.00304989
0.00304989
0.00301856
0.00301856
0.00305231
0.00301615
0.00304989
0.00304989
0.00301856
0.00301856
0.00304989
0.00301856
0.00301856
0.00305231
0.00301615
0.00304989
0.00301856
0.00301856
0.00301615
0.00301054
0.00297439
0.00300812
0.00300812
0.00297679
0.00297679
0.00301054
0.00297439
0.00300812
0.00300812
0.00297679
0.00297679
0.00300812
0.00297679
0.00297679
0.00301054
0.00297439
0.00300812
0.00297679
0.00297679
0.00297439
0.00296877
0.00293262
0.00296635
0.00296635
0.00293503
0.00293503
0.00296877
0.00293262
0.00296635
0.00296635
0.00293503
0.00293503
0.00296635
0.00293503
0.00293503
0.00296877
0.00293262
0.00296635
0.00293503
0.00293503
0.00293262
0.002927
0.00289085
0.00292458
0.00292458
0.00289326
0.00289326
0.002927
0.00289085
0.00292458
0.00292458
0.00289326
0.00289326
0.00292458
0.00289326
0.00289326
0.002927
0.00289085
0.00292458
0.00289326
0.00289326
0.00289085
0.00288523
0.00284908
0.00288282
0.00288282
0.00285149
0.00285149
0.00288523
0.00284908
0.00288282
0.00288282
0.00285149
0.00285149
0.00288282
0.00285149
0.00285149
0.00288524
0.00284908
0.00288282
0.00285149
0.00285149
0.00284908
0.00284347
0.00280732
0.00284105
0.00284105
0.00280972
0.00280972
0.00284347
0.00280732
0.00284105
0.00284105
0.00280972
0.00280972
0.00284105
0.00280972
0.00280972
0.00284347
0.00280732
0.00284105
0.00280972
0.00280972
0.00280732
0.0028017
0.00276555
0.00279928
0.00279928
0.00276796
0.00276796
0.0028017
0.00276555
0.00279928
0.00279928
0.00276796
0.00276796
0.00279928
0.00276796
0.00276796
0.0028017
0.00276555
0.00279928
0.00276796
0.00276796
0.00276555
0.00275994
0.00272378
0.00275752
0.00275752
0.00272619
0.00272619
0.00275994
0.00272378
0.00275752
0.00275752
0.00272619
0.00272619
0.00275752
0.00272619
0.00272619
0.00275994
0.00272378
0.00275752
0.00272619
0.00272619
0.00272378
0.00271817
0.00268202
0.00271575
0.00271575
0.00268442
0.00268442
0.00271817
0.00268202
0.00271575
0.00271575
0.00268442
0.00268442
0.00271575
0.00268442
0.00268442
0.00271817
0.00268202
0.00271575
0.00268442
0.00268442
0.00268202
0.0026764
0.00264025
0.00267398
0.00267398
0.00264265
0.00264265
0.0026764
0.00264025
0.00267398
0.00267398
0.00264265
0.00264265
0.00267398
0.00264265
0.00264265
0.0026764
0.00264025
0.00267398
0.00264265
0.00264265
0.00264025
0.00263463
0.00259848
0.00263221
0.00263221
0.00260089
0.00260089
0.00263463
0.00259848
0.00263221
0.00263221
0.00260089
0.00260089
0.00263221
0.00260089
0.00260089
0.00263463
0.00259848
0.00263221
0.00260089
0.00260089
0.00259848
0.00259287
0.00255671
0.00259045
0.00259045
0.00255912
0.00255912
0.00259287
0.00255671
0.00259045
0.00259045
0.00255912
0.00255912
0.00259045
0.00255912
0.00255912
0.00259287
0.00255671
0.00259045
0.00255912
0.00255912
0.00255671
0.0025511
0.00251495
0.00254868
0.00254868
0.00251736
0.00251736
0.0025511
0.00251495
0.00254868
0.00254868
0.00251736
0.00251736
0.00254868
0.00251736
0.00251736
0.0025511
0.00251495
0.00254868
0.00251736
0.00251736
0.00251495
0.00250933
0.00247318
0.00250691
0.00250691
0.00247559
0.00247559
0.00250933
0.00247318
0.00250691
0.00250691
0.00247559
0.00247559
0.00250691
0.00247559
0.00247559
0.00250933
0.00247318
0.00250691
0.00247559
0.00247559
0.00247318
0.00246757
0.00243141
0.00246515
0.00246515
0.00243382
0.00243382
0.00246757
0.00243141
0.00246515
0.00246515
0.00243382
0.00243382
0.00246515
0.00243382
0.00243382
0.00246757
0.00243141
0.00246515
0.00243382
0.00243382
0.00243141
0.0024258
0.00238965
0.00242338
0.00242338
0.00239205
0.00239205
0.0024258
0.00238965
0.00242338
0.00242338
0.00239205
0.00239205
0.00242338
0.00239205
0.00239205
0.0024258
0.00238965
0.00242338
0.00239205
0.00239205
0.00238965
0.00238403
0.00234788
0.00238161
0.00238161
0.00235029
0.00235029
0.00238403
0.00234788
0.00238161
0.00238161
0.00235029
0.00235029
0.00238161
0.00235029
0.00235029
0.00238403
0.00234788
0.00238161
0.00235029
0.00235029
0.00234788
0.00234226
0.00230611
0.00233984
0.00233984
0.00230852
0.00230852
0.00234226
0.00230611
0.00233984
0.00233984
0.00230852
0.00230852
0.00233984
0.00230852
0.00230852
0.00234226
0.00230611
0.00233984
0.00230852
0.00230852
0.00230611
0.0023005
0.00226435
0.00229808
0.00229808
0.00226675
0.00226675
0.0023005
0.00226435
0.00229808
0.00229808
0.00226675
0.00226675
0.00229808
0.00226675
0.00226675
0.0023005
0.00226435
0.00229808
0.00226675
0.00226675
0.00226434
0.00225873
0.00222258
0.00225631
0.00225631
0.00222499
0.00222499
0.00225873
0.00222258
0.00225631
0.00225631
0.00222498
0.00222499
0.00225631
0.00222499
0.00222499
0.00225873
0.00222258
0.00225631
0.00222499
0.00222499
0.00222258
0.00221696
0.00218081
0.00221454
0.00221454
0.00218322
0.00218322
0.00221696
0.00218081
0.00221454
0.00221454
0.00218322
0.00218322
0.00221454
0.00218322
0.00218322
0.00221696
0.00218081
0.00221454
0.00218322
0.00218322
0.00218081
0.0021752
0.00213904
0.00217278
0.00217278
0.00214145
0.00214145
0.0021752
0.00213904
0.00217278
0.00217278
0.00214145
0.00214145
0.00217278
0.00214145
0.00214145
0.0021752
0.00213904
0.00217278
0.00214145
0.00214145
0.00213904
0.00213343
0.00209728
0.00213101
0.00213101
0.00209968
0.00209968
0.00213343
0.00209728
0.00213101
0.00213101
0.00209968
0.00209968
0.00213101
0.00209968
0.00209968
0.00213343
0.00209728
0.00213101
0.00209968
0.00209968
0.00209728
0.00209166
0.00205551
0.00208924
0.00208924
0.00205792
0.00205792
0.00209166
0.00205551
0.00208924
0.00208924
0.00205792
0.00205792
0.00208924
0.00205792
0.00205792
0.00209166
0.00205551
0.00208924
0.00205792
0.00205792
0.00205551
0.00204989
0.00201374
0.00204747
0.00204747
0.00201615
0.00201615
0.00204989
0.00201374
0.00204747
0.00204747
0.00201615
0.00201615
0.00204747
0.00201615
0.00201615
0.00204989
0.00201374
0.00204747
0.00201615
0.00201615
0.00201374
0.00200813
0.00197198
0.00200571
0.00200571
0.00197438
0.00197438
0.00200813
0.00197198
0.00200571
0.00200571
0.00197438
0.00197438
0.00200571
0.00197438
0.00197438
0.00200813
0.00197198
0.00200571
0.00197438
0.00197438
0.00197198
0.00196636
0.00193021
0.00196394
0.00196394
0.00193261
0.00193261
0.00196636
0.00193021
0.00196394
0.00196394
0.00193261
0.00193262
0.00196394
0.00193261
0.00193262
0.00196636
0.00193021
0.00196394
0.00193262
0.00193262
0.00193021
0.00192459
0.00188844
0.00192217
0.00192217
0.00189085
0.00189085
0.00192459
0.00188844
0.00192217
0.00192217
0.00189085
0.00189085
0.00192217
0.00189085
0.00189085
0.00192459
0.00188844
0.00192217
0.00189085
0.00189085
0.00188844
0.00188282
0.00184667
0.00188041
0.00188041
0.00184908
0.00184908
0.00188282
0.00184667
0.00188041
0.00188041
0.00184908
0.00184908
0.00188041
0.00184908
0.00184908
0.00188282
0.00184667
0.00188041
0.00184908
0.00184908
0.00184667
0.00184106
0.00180491
0.00183864
0.00183864
0.00180731
0.00180731
0.00184106
0.00180491
0.00183864
0.00183864
0.00180731
0.00180731
0.00183864
0.00180731
0.00180731
0.00184106
0.00180491
0.00183864
0.00180731
0.00180731
0.00180491
0.00179929
0.00176314
0.00179687
0.00179687
0.00176555
0.00176555
0.00179929
0.00176314
0.00179687
0.00179687
0.00176555
0.00176555
0.00179687
0.00176555
0.00176555
0.00179929
0.00176314
0.00179687
0.00176555
0.00176555
0.00176314
0.00175752
0.00172137
0.0017551
0.0017551
0.00172378
0.00172378
0.00175752
0.00172137
0.0017551
0.0017551
0.00172378
0.00172378
0.0017551
0.00172378
0.00172378
0.00175752
0.00172137
0.0017551
0.00172378
0.00172378
0.00172137
0.00171576
0.00167961
0.00171334
0.00171334
0.00168201
0.00168201
0.00171576
0.00167961
0.00171334
0.00171334
0.00168201
0.00168201
0.00171334
0.00168201
0.00168201
0.00171576
0.00167961
0.00171334
0.00168201
0.00168201
0.00167961
0.00167399
0.00163784
0.00167157
0.00167157
0.00164025
0.00164025
0.00167399
0.00163784
0.00167157
0.00167157
0.00164025
0.00164025
0.00167157
0.00164025
0.00164025
0.00167399
0.00163784
0.00167157
0.00164025
0.00164025
0.00163784
0.00163222
0.00159607
0.0016298
0.0016298
0.00159848
0.00159848
0.00163222
0.00159607
0.0016298
0.0016298
0.00159848
0.00159848
0.0016298
0.00159848
0.00159848
0.00163222
0.00159607
0.0016298
0.00159848
0.00159848
0.00159607
0.00159046
0.0015543
0.00158804
0.00158804
0.00155671
0.00155671
0.00159046
0.0015543
0.00158804
0.00158804
0.00155671
0.00155671
0.00158804
0.00155671
0.00155671
0.00159046
0.0015543
0.00158804
0.00155671
0.00155671
0.0015543
0.00154869
0.00151254
0.00154627
0.00154627
0.00151494
0.00151494
0.00154869
0.00151254
0.00154627
0.00154627
0.00151494
0.00151494
0.00154627
0.00151494
0.00151494
0.00154869
0.00151254
0.00154627
0.00151494
0.00151494
0.00151254
0.00150692
0.00147077
0.0015045
0.0015045
0.00147318
0.00147318
0.00150692
0.00147077
0.0015045
0.0015045
0.00147318
0.00147318
0.0015045
0.00147318
0.00147318
0.00150692
0.00147077
0.0015045
0.00147318
0.00147318
0.00147077
0.00146515
0.001429
0.00146274
0.00146274
0.00143141
0.00143141
0.00146515
0.001429
0.00146274
0.00146274
0.00143141
0.00143141
0.00146274
0.00143141
0.00143141
0.00146515
0.001429
0.00146274
0.00143141
0.00143141
0.001429
0.00142339
0.00138724
0.00142097
0.00142097
0.00138964
0.00138964
0.00142339
0.00138724
0.00142097
0.00142097
0.00138964
0.00138964
0.00142097
0.00138964
0.00138964
0.00142339
0.00138724
0.00142097
0.00138964
0.00138964
0.00138724
0.00138162
0.00134547
0.0013792
0.0013792
0.00134788
0.00134787
0.00138162
0.00134547
0.0013792
0.0013792
0.00134787
0.00134787
0.0013792
0.00134788
0.00134788
0.00138162
0.00134547
0.0013792
0.00134788
0.00134787
0.00134547
0.00133985
0.0013037
0.00133743
0.00133743
0.00130611
0.00130611
0.00133985
0.0013037
0.00133743
0.00133743
0.00130611
0.00130611
0.00133743
0.00130611
0.00130611
0.00133985
0.0013037
0.00133743
0.00130611
0.00130611
0.0013037
0.00129808
0.00126193
0.00129566
0.00129566
0.00126434
0.00126434
0.00129808
0.00126193
0.00129566
0.00129566
0.00126434
0.00126434
0.00129566
0.00126434
0.00126434
0.00129808
0.00126193
0.00129566
0.00126434
0.00126434
0.00126193
0.00125632
0.00122017
0.0012539
0.0012539
0.00122257
0.00122257
0.00125632
0.00122017
0.0012539
0.0012539
0.00122257
0.00122257
0.0012539
0.00122257
0.00122257
0.00125632
0.00122017
0.0012539
0.00122257
0.00122257
0.00122017
0.00121455
0.0011784
0.00121213
0.00121213
0.00118081
0.00118081
0.00121455
0.0011784
0.00121213
0.00121213
0.00118081
0.00118081
0.00121213
0.00118081
0.00118081
0.00121455
0.0011784
0.00121213
0.00118081
0.00118081
0.0011784
0.00117279
0.00113663
0.00117037
0.00117037
0.00113904
0.00113904
0.00117279
0.00113663
0.00117037
0.00117037
0.00113904
0.00113904
0.00117037
0.00113904
0.00113904
0.00117279
0.00113663
0.00117037
0.00113904
0.00113904
0.00113663
0.00113102
0.00109487
0.0011286
0.0011286
0.00109727
0.00109727
0.00113102
0.00109487
0.0011286
0.0011286
0.00109727
0.00109727
0.0011286
0.00109727
0.00109727
0.00113102
0.00109487
0.0011286
0.00109727
0.00109727
0.00109487
0.00108925
0.0010531
0.00108683
0.00108683
0.0010555
0.0010555
0.00108925
0.0010531
0.00108683
0.00108683
0.0010555
0.0010555
0.00108683
0.0010555
0.0010555
0.00108925
0.0010531
0.00108683
0.0010555
0.0010555
0.0010531
0.00104748
0.00101133
0.00104506
0.00104506
0.00101374
0.00101374
0.00104748
0.00101133
0.00104506
0.00104506
0.00101374
0.00101374
0.00104506
0.00101374
0.00101374
0.00104748
0.00101133
0.00104506
0.00101374
0.00101374
0.00101133
0.00100572
0.000969565
0.0010033
0.0010033
0.000971972
0.000971971
0.00100572
0.000969565
0.0010033
0.0010033
0.000971971
0.000971972
0.0010033
0.000971972
0.000971972
0.00100572
0.000969565
0.0010033
0.000971972
0.000971972
0.000969565
0.00096395
0.000927799
0.00096153
0.00096153
0.000930205
0.000930205
0.00096395
0.000927799
0.00096153
0.00096153
0.000930205
0.000930205
0.00096153
0.000930205
0.000930206
0.00096395
0.000927799
0.00096153
0.000930205
0.000930205
0.000927799
0.000922184
0.000886032
0.000919764
0.000919764
0.000888439
0.000888439
0.000922183
0.000886032
0.000919764
0.000919764
0.000888439
0.000888439
0.000919764
0.000888439
0.000888439
0.000922183
0.000886032
0.000919764
0.000888439
0.000888439
0.000886032
0.000880417
0.000844265
0.000877997
0.000877997
0.000846672
0.000846671
0.000880417
0.000844265
0.000877997
0.000877997
0.000846672
0.000846672
0.000877997
0.000846672
0.000846672
0.000880417
0.000844265
0.000877997
0.000846672
0.000846672
0.000844265
0.000838649
0.000802497
0.00083623
0.00083623
0.000804904
0.000804904
0.000838649
0.000802497
0.00083623
0.00083623
0.000804904
0.000804904
0.00083623
0.000804904
0.000804904
0.000838649
0.000802497
0.00083623
0.000804904
0.000804904
0.000802497
0.000796882
0.000760729
0.000794462
0.000794462
0.000763136
0.000763136
0.000796882
0.000760729
0.000794462
0.000794462
0.000763136
0.000763136
0.000794462
0.000763136
0.000763136
0.000796882
0.000760729
0.000794462
0.000763136
0.000763136
0.000760729
0.000755114
0.000718961
0.000752694
0.000752694
0.000721368
0.000721368
0.000755113
0.000718962
0.000752694
0.000752694
0.000721368
0.000721368
0.000752694
0.000721368
0.000721369
0.000755114
0.000718961
0.000752694
0.000721368
0.000721368
0.000718961
0.000713346
0.000677195
0.000710927
0.000710927
0.000679602
0.000679602
0.000713346
0.000677195
0.000710927
0.000710927
0.000679602
0.000679602
0.000710927
0.000679602
0.000679602
0.000713346
0.000677195
0.000710927
0.000679602
0.000679602
0.000677195
0.00067158
0.000635429
0.00066916
0.00066916
0.000637836
0.000637836
0.00067158
0.000635429
0.00066916
0.00066916
0.000637836
0.000637836
0.000669161
0.000637836
0.000637836
0.00067158
0.000635429
0.00066916
0.000637836
0.000637836
0.000635429
0.000629814
0.000593662
0.000627394
0.000627394
0.000596069
0.000596069
0.000629814
0.000593662
0.000627394
0.000627394
0.000596069
0.000596069
0.000627395
0.000596069
0.000596069
0.000629814
0.000593662
0.000627394
0.000596069
0.000596069
0.000593662
0.000588047
0.000551894
0.000585627
0.000585627
0.000554301
0.000554301
0.000588047
0.000551894
0.000585627
0.000585627
0.000554301
0.000554301
0.000585628
0.000554301
0.000554301
0.000588047
0.000551894
0.000585627
0.000554301
0.000554301
0.000551894
0.000546279
0.000510126
0.000543859
0.000543859
0.000512534
0.000512533
0.000546279
0.000510127
0.000543859
0.000543859
0.000512533
0.000512533
0.000543859
0.000512534
0.000512534
0.000546279
0.000510126
0.000543859
0.000512534
0.000512533
0.000510127
0.000504511
0.00046836
0.000502092
0.000502092
0.000470767
0.000470766
0.000504511
0.00046836
0.000502092
0.000502092
0.000470766
0.000470766
0.000502092
0.000470767
0.000470767
0.000504511
0.000468359
0.000502092
0.000470766
0.000470767
0.00046836
0.000462744
0.000426593
0.000460325
0.000460325
0.000429
0.000429
0.000462744
0.000426593
0.000460325
0.000460325
0.000429
0.000429
0.000460325
0.000429
0.000429
0.000462744
0.000426593
0.000460325
0.000429
0.000429
0.000426593
0.000420978
0.000384826
0.000418558
0.000418558
0.000387233
0.000387232
0.000420978
0.000384826
0.000418558
0.000418558
0.000387232
0.000387233
0.000418558
0.000387233
0.000387233
0.000420978
0.000384826
0.000418558
0.000387233
0.000387232
0.000384826
0.000379211
0.000343059
0.000376791
0.000376791
0.000345465
0.000345465
0.00037921
0.000343059
0.000376791
0.000376791
0.000345465
0.000345465
0.000376791
0.000345465
0.000345466
0.000379211
0.000343058
0.000376791
0.000345465
0.000345465
0.000343058
0.000337443
0.000301291
0.000335024
0.000335024
0.000303698
0.000303698
0.000337443
0.000301292
0.000335024
0.000335024
0.000303698
0.000303698
0.000335024
0.000303698
0.000303699
0.000337443
0.000301291
0.000335023
0.000303698
0.000303698
0.000301291
0.000295676
0.000259525
0.000293257
0.000293257
0.000261932
0.000261931
0.000295676
0.000259525
0.000293256
0.000293256
0.000261931
0.000261931
0.000293257
0.000261932
0.000261932
0.000295676
0.000259524
0.000293256
0.000261931
0.000261931
0.000259525
0.00025391
0.000217758
0.00025149
0.00025149
0.000220164
0.000220164
0.000253909
0.000217758
0.00025149
0.00025149
0.000220164
0.000220164
0.00025149
0.000220164
0.000220165
0.00025391
0.000217757
0.00025149
0.000220165
0.000220164
0.000217758
0.000212142
0.00017599
0.000209723
0.000209723
0.000178397
0.000178397
0.000212142
0.000175991
0.000209723
0.000209723
0.000178397
0.000178397
0.000209723
0.000178397
0.000178397
0.000212142
0.00017599
0.000209723
0.000178397
0.000178397
0.00017599
0.000170375
0.000134223
0.000167955
0.000167955
0.00013663
0.00013663
0.000170375
0.000134223
0.000167955
0.000167955
0.00013663
0.00013663
0.000167956
0.00013663
0.00013663
0.000170375
0.000134223
0.000167955
0.00013663
0.00013663
0.000134223
0.000128608
9.24566e-05
0.000126188
0.000126188
9.48656e-05
9.48658e-05
0.000128608
9.24571e-05
0.000126188
0.000126188
9.48651e-05
9.48651e-05
0.000126189
9.48657e-05
9.4865e-05
0.000128608
9.24558e-05
0.000126188
9.48649e-05
9.48648e-05
9.24559e-05
8.68415e-05
5.07054e-05
8.44262e-05
8.44259e-05
5.31459e-05
5.31471e-05
8.68408e-05
5.07072e-05
8.44257e-05
8.44253e-05
5.31439e-05
5.31438e-05
8.44256e-05
5.31454e-05
5.31432e-05
8.68409e-05
5.07035e-05
8.44255e-05
5.31432e-05
5.3142e-05
5.07026e-05
4.50911e-05
1.33098e-05
4.27883e-05
4.27887e-05
1.51614e-05
1.51617e-05
4.50919e-05
1.33104e-05
4.27859e-05
4.27852e-05
1.51593e-05
1.51558e-05
4.2784e-05
1.51584e-05
1.51537e-05
4.50888e-05
1.33053e-05
4.27829e-05
1.51561e-05
1.51547e-05
1.33034e-05
1.03519e-05
1.06998e-05
1.07004e-05
1.0353e-05
1.06982e-05
1.06954e-05
1.04647e-05
1.04622e-05
1.04617e-05
1.06947e-05
1.03487e-05
1.06948e-05
0.00395555
0.0039651
0.00395998
0.00395998
0.00398182
0.00396897
0.00399701
0.00396311
0.00398182
0.00396897
0.00396311
0.00399701
0.00397341
0.00400081
0.00400081
0.00391257
0.00392435
0.0039364
0.00391096
0.00390045
0.00391259
0.00391255
0.00392433
0.00393639
0.00391096
0.00393447
0.00393447
0.00393447
0.00389595
0.00389595
0.00389595
0.00389595
0.00391247
0.00393383
0.00393469
0.00391842
0.00393662
0.00391249
0.0039192
0.00390057
0.0039126
0.00391247
0.00393469
0.00393384
0.00391842
0.00393661
0.0039192
0.00391249
0.00393657
0.00393656
0.0039137
0.00391186
0.00391187
0.00387217
0.00388759
0.00388766
0.00387214
0.00388759
0.00387213
0.00387217
0.00388757
0.00388766
0.00387213
0.0038854
0.00388539
0.00388539
0.00385394
0.00385394
0.00385394
0.00385394
0.00387225
0.00388765
0.00388535
0.00387481
0.00388768
0.00387218
0.00387486
0.00388759
0.00387212
0.00387225
0.00388535
0.00388765
0.00387481
0.00388768
0.00387486
0.00387218
0.00388762
0.00388762
0.00387239
0.00387213
0.00387213
0.00383044
0.00384606
0.00384606
0.00383043
0.00384606
0.00383043
0.00383044
0.00384606
0.00384606
0.00383043
0.00384349
0.00384349
0.00384349
0.00381216
0.00381216
0.00381216
0.00381216
0.00383051
0.00384603
0.00384348
0.00383302
0.003846
0.00383047
0.00383303
0.00384606
0.00383043
0.00383051
0.00384348
0.00384603
0.00383302
0.003846
0.00383303
0.00383047
0.00384606
0.00384606
0.00383061
0.00383043
0.00383043
0.00378868
0.0038043
0.0038043
0.00378867
0.00380431
0.00378867
0.00378868
0.0038043
0.0038043
0.00378867
0.00380172
0.00380172
0.00380172
0.00377039
0.00377039
0.00377039
0.00377039
0.00378874
0.00380427
0.0038017
0.00379126
0.00380424
0.0037887
0.00379126
0.00380431
0.00378867
0.00378874
0.0038017
0.00380427
0.00379126
0.00380424
0.00379126
0.0037887
0.0038043
0.0038043
0.00378885
0.00378867
0.00378867
0.00374691
0.00376254
0.00376253
0.0037469
0.00376254
0.0037469
0.00374691
0.00376254
0.00376253
0.0037469
0.00375995
0.00375995
0.00375995
0.00372863
0.00372863
0.00372863
0.00372863
0.00374697
0.0037625
0.00375994
0.00374949
0.00376247
0.00374694
0.00374949
0.00376254
0.0037469
0.00374697
0.00375994
0.0037625
0.00374949
0.00376247
0.00374949
0.00374694
0.00376254
0.00376254
0.00374708
0.0037469
0.0037469
0.00370514
0.00372077
0.00372076
0.00370514
0.00372079
0.00370511
0.00370514
0.00372077
0.00372076
0.00370514
0.00371818
0.00371818
0.00371818
0.00368686
0.00368686
0.00368686
0.00368686
0.00370521
0.00372074
0.00371817
0.00370772
0.0037207
0.00370517
0.00370773
0.00372077
0.00370513
0.00370521
0.00371817
0.00372074
0.00370772
0.0037207
0.00370773
0.00370517