/*--------------------------------*- C++ -*----------------------------------*\
| =========                 |                                                 |
| \\      /  F ield         | OpenFOAM: The Open Source CFD Toolbox           |
|  \\    /   O peration     | Version:  2206                                  |
|   \\  /    A nd           | Website:  www.openfoam.com                      |
|    \\/     M anipulation  |                                                 |
\*---------------------------------------------------------------------------*/
FoamFile
{
    version     2.0;
    format      ascii;
    arch        "LSB;label=32;scalar=64";
    class       volScalarField;
    location    "2.5";
    object      Ux;
}
// * * * * * * * * * * * * * * * * * * * * * * * * * * * * * * * * * * * * * //

dimensions      [0 1 -1 0 0 0 0];

internalField   nonuniform List<scalar> 
171728
(
8.80898e-05
-0.000134986
8.44807e-05
-0.000201831
8.28152e-06
-7.5267e-06
4.44661e-06
-3.75895e-05
4.33943e-07
-5.83212e-07
4.3729e-07
-3.17213e-05
-1.10491e-07
-1.33093e-07
2.14487e-07
-3.15011e-05
-1.45604e-07
-1.04511e-07
2.03416e-07
-3.14883e-05
-1.48534e-07
-1.03694e-07
2.0372e-07
-3.14895e-05
-1.44811e-07
-1.03513e-07
2.03806e-07
-3.14886e-05
-1.43794e-07
-1.04049e-07
2.04085e-07
-3.14891e-05
-1.45285e-07
-1.03996e-07
2.0368e-07
-3.14893e-05
-1.44778e-07
-1.01585e-07
2.02814e-07
-3.14886e-05
-1.41522e-07
-9.99761e-08
2.01962e-07
-3.14874e-05
-1.46335e-07
-1.03602e-07
2.02642e-07
-3.1487e-05
-1.44646e-07
-1.12442e-07
2.02752e-07
-3.14896e-05
-1.44954e-07
-1.11322e-07
2.03819e-07
-3.14876e-05
-1.47029e-07
-1.05551e-07
2.043e-07
-3.14906e-05
-1.4788e-07
-1.03743e-07
2.02888e-07
-3.14913e-05
-1.4659e-07
-1.04656e-07
2.03262e-07
-3.14905e-05
-1.46347e-07
-1.0167e-07
2.02213e-07
-3.14899e-05
-1.43825e-07
-1.00691e-07
2.01998e-07
-3.14898e-05
-1.37775e-07
-9.86143e-08
2.03428e-07
-3.14888e-05
-1.36085e-07
-1.08813e-07
2.04251e-07
-3.14898e-05
-1.45178e-07
-1.0295e-07
2.03386e-07
-3.1488e-05
-1.45348e-07
-1.05289e-07
2.04361e-07
-3.14909e-05
-1.45712e-07
-1.04558e-07
2.03798e-07
-3.14898e-05
-1.45556e-07
-1.03677e-07
2.03052e-07
-3.14899e-05
-1.46431e-07
-1.0315e-07
2.02532e-07
-3.14899e-05
-1.4637e-07
-1.01859e-07
2.01537e-07
-3.14881e-05
-1.46239e-07
-1.03406e-07
2.03245e-07
-3.14885e-05
-1.45669e-07
-1.03232e-07
2.02781e-07
-3.14881e-05
-1.45659e-07
-1.05362e-07
2.04667e-07
-3.14897e-05
-1.45663e-07
-1.05306e-07
2.04746e-07
-3.14896e-05
-1.45453e-07
-1.05052e-07
2.04717e-07
-3.14913e-05
-1.45818e-07
-1.03077e-07
2.02907e-07
-3.14897e-05
-1.4647e-07
-1.01934e-07
2.00889e-07
-3.14897e-05
-1.46183e-07
-1.01767e-07
2.01483e-07
-3.1489e-05
-1.46328e-07
-1.01383e-07
2.00994e-07
-3.14869e-05
-1.45909e-07
-1.04536e-07
2.03756e-07
-3.14907e-05
-1.45899e-07
-1.03578e-07
2.02961e-07
-3.14896e-05
-1.45825e-07
-1.06186e-07
2.05336e-07
-3.14909e-05
-1.45876e-07
-1.03173e-07
2.01679e-07
-3.14855e-05
-1.36442e-07
-1.04079e-07
2.03584e-07
-3.14894e-05
-1.48366e-07
-1.02081e-07
2.01506e-07
-3.14902e-05
-1.46615e-07
-1.01929e-07
2.01598e-07
-3.14902e-05
-1.46354e-07
-1.02596e-07
2.01881e-07
-3.14889e-05
-1.4582e-07
-1.03113e-07
2.01415e-07
-3.14884e-05
-1.45157e-07
-1.05413e-07
2.04088e-07
-3.14904e-05
-1.4528e-07
-1.04302e-07
2.02614e-07
-3.14905e-05
-1.45493e-07
-1.04797e-07
2.03677e-07
-3.14914e-05
-1.45688e-07
-1.041e-07
2.03037e-07
-3.14904e-05
-1.46196e-07
-1.02499e-07
2.018e-07
-3.14889e-05
-1.46348e-07
-1.02902e-07
2.01604e-07
-3.14901e-05
-1.4641e-07
-1.0301e-07
2.01787e-07
-3.14883e-05
-1.45435e-07
-1.04048e-07
2.03217e-07
-3.1489e-05
-1.44251e-07
-1.03448e-07
2.02819e-07
-3.14881e-05
-1.42933e-07
-1.05796e-07
2.04315e-07
-3.14901e-05
-1.44933e-07
-1.05124e-07
2.03848e-07
-3.14917e-05
-1.44895e-07
-1.04909e-07
2.03198e-07
-3.14933e-05
-1.45409e-07
-1.03493e-07
2.02147e-07
-3.14934e-05
-1.45667e-07
-1.02536e-07
2.01507e-07
-3.14894e-05
-1.44328e-07
-1.0453e-07
2.03299e-07
-3.14925e-05
-1.45018e-07
-1.03675e-07
2.02352e-07
-3.14906e-05
-1.44373e-07
-1.06235e-07
2.04571e-07
-3.14931e-05
-1.44513e-07
-1.0591e-07
2.04812e-07
-3.14932e-05
-1.44252e-07
-1.04861e-07
2.03159e-07
-3.14939e-05
-1.45187e-07
-1.05178e-07
2.03973e-07
-3.14924e-05
-1.45256e-07
-1.03393e-07
2.02274e-07
-3.14925e-05
-1.44944e-07
-1.03329e-07
2.02529e-07
-3.14923e-05
-1.45067e-07
-1.02112e-07
2.01904e-07
-3.149e-05
-1.44515e-07
-1.05345e-07
2.05063e-07
-3.14941e-05
-1.43955e-07
-1.05299e-07
2.13383e-07
-3.1497e-05
-1.43889e-07
-1.05281e-07
2.07118e-07
-3.14959e-05
-1.445e-07
-1.0507e-07
2.03959e-07
-3.14936e-05
-1.44956e-07
-1.03385e-07
2.02402e-07
-3.14918e-05
-1.45104e-07
-1.03855e-07
2.03221e-07
-3.14919e-05
-1.45709e-07
-1.021e-07
2.0107e-07
-3.14897e-05
-1.45032e-07
-1.04483e-07
2.02855e-07
-3.14913e-05
-1.44756e-07
-1.03588e-07
2.03148e-07
-3.14909e-05
-1.44542e-07
-1.0692e-07
2.04977e-07
-3.14928e-05
-1.44587e-07
-1.05962e-07
2.03953e-07
-3.14923e-05
-1.4481e-07
-1.05945e-07
2.04626e-07
-3.1494e-05
-1.45205e-07
-1.03584e-07
2.0212e-07
-3.14918e-05
-1.4536e-07
-1.03326e-07
2.01611e-07
-3.1492e-05
-1.45513e-07
-1.03852e-07
2.02476e-07
-3.14917e-05
-1.4531e-07
-1.03297e-07
2.01892e-07
-3.14897e-05
-1.4476e-07
-1.0501e-07
2.03211e-07
-3.14922e-05
-1.44602e-07
-1.05218e-07
2.04195e-07
-3.14927e-05
-1.44536e-07
-1.06411e-07
2.05181e-07
-3.14926e-05
-1.45034e-07
-1.04947e-07
2.0384e-07
-3.14926e-05
-1.45046e-07
-1.04571e-07
2.03182e-07
-3.14923e-05
-1.45338e-07
-1.02654e-07
2.01196e-07
-3.14918e-05
-1.45835e-07
-1.02733e-07
2.01565e-07
-3.14909e-05
-1.49249e-07
-1.04303e-07
1.98657e-07
-3.14847e-05
-2.79844e-07
-1.92495e-08
1.14248e-07
-3.14024e-05
-4.93511e-06
3.37591e-06
-1.53846e-06
-2.69194e-05
-4.77171e-05
4.47288e-05
-3.62819e-05
5.01447e-05
0.000129126
0.00012418
-0.000124153
-0.000129107
0.000158113
0.00015808
9.47362e-05
-9.47144e-05
9.47085e-05
-9.4695e-05
-0.000158088
-0.000158064
0.000129111
0.000124136
-0.000124114
-0.000129099
0.000201883
-2.2845e-05
8.45313e-05
-8.44799e-05
8.69362e-06
-8.68614e-06
-0.000201858
2.28804e-05
0.000135031
0.000134958
1.48944e-05
1.4875e-05
-0.000134935
-1.48382e-05
-1.48421e-05
0.000201841
-2.28372e-05
-8.44492e-05
8.70248e-06
-8.68771e-06
2.28673e-05
3.76177e-05
-3.18194e-05
4.44998e-06
-4.43119e-06
6.82327e-07
-6.73326e-07
-3.75865e-05
3.18268e-05
7.56234e-06
7.56599e-06
1.04232e-06
1.04024e-06
-7.55109e-06
-1.03461e-06
-1.03377e-06
3.76023e-05
-3.18095e-05
-4.43187e-06
6.71773e-07
-6.75149e-07
3.18134e-05
3.17389e-05
-3.21613e-05
4.38494e-07
-4.40721e-07
2.33085e-07
-2.32999e-07
-3.17419e-05
3.21625e-05
5.89088e-07
5.90379e-07
1.60516e-07
1.65552e-07
-5.85407e-07
-1.68324e-07
-1.71786e-07
3.17153e-05
-3.21393e-05
-4.28226e-07
2.2735e-07
-2.26017e-07
3.21452e-05
3.15106e-05
-3.21809e-05
2.18204e-07
-2.18809e-07
2.06928e-07
-2.11541e-07
-3.15129e-05
3.21799e-05
1.283e-07
1.30256e-07
1.04811e-07
1.08521e-07
-1.3505e-07
-1.05933e-07
-1.09121e-07
3.1491e-05
-3.21572e-05
-2.12613e-07
2.03578e-07
-2.0287e-07
3.21623e-05
3.14961e-05
-3.21848e-05
2.04163e-07
-2.13489e-07
2.02991e-07
-2.15005e-07
-3.15022e-05
3.2181e-05
1.04918e-07
1.07929e-07
1.01967e-07
1.07511e-07
-1.08858e-07
-1.02949e-07
-1.09343e-07
3.14782e-05
-3.2159e-05
-2.04042e-07
2.02847e-07
-2.03716e-07
3.2164e-05
3.14955e-05
-3.21818e-05
2.03253e-07
-2.22609e-07
2.05211e-07
-2.0869e-07
-3.15058e-05
3.2184e-05
1.0434e-07
1.08463e-07
1.02588e-07
1.07652e-07
-1.0879e-07
-1.02506e-07
-1.07701e-07
3.14788e-05
-3.21592e-05
-2.03964e-07
2.02319e-07
-2.03147e-07
3.21649e-05
3.15e-05
-3.21818e-05
2.10711e-07
-2.07992e-07
2.10926e-07
-2.06642e-07
-3.14991e-05
3.21845e-05
1.04396e-07
1.08378e-07
1.03044e-07
1.09219e-07
-1.07169e-07
-1.03449e-07
-1.07591e-07
3.14786e-05
-3.21579e-05
-2.02431e-07
2.03961e-07
-2.03163e-07
3.21643e-05
3.15002e-05
-3.2183e-05
2.08764e-07
-2.06248e-07
2.08363e-07
-2.0717e-07
-3.15006e-05
3.21843e-05
1.05253e-07
1.07985e-07
1.04111e-07
1.08748e-07
-1.06744e-07
-1.03897e-07
-1.07109e-07
3.14811e-05
-3.2159e-05
-2.02139e-07
2.03367e-07
-2.0205e-07
3.21657e-05
3.14999e-05
-3.21835e-05
2.07534e-07
-2.07286e-07
2.08934e-07
-2.07144e-07
-3.15e-05
3.21882e-05
1.04581e-07
1.07174e-07
1.02761e-07
1.07439e-07
-1.0695e-07
-1.01972e-07
-1.06631e-07
3.14803e-05
-3.21601e-05
-2.02949e-07
2.02735e-07
-2.02077e-07
3.21671e-05
3.14998e-05
-3.21787e-05
2.09989e-07
-2.07298e-07
2.22532e-07
-2.07201e-07
-3.14974e-05
3.21953e-05
1.04616e-07
1.07111e-07
1.01474e-07
1.0689e-07
-1.04456e-07
-1.00012e-07
-1.05007e-07
3.14799e-05
-3.21603e-05
-1.99677e-07
2.01762e-07
-2.0063e-07
3.21669e-05
3.15024e-05
-3.21828e-05
2.11323e-07
-2.07083e-07
2.07725e-07
-2.09491e-07
-3.14959e-05
3.2194e-05
1.01602e-07
1.06696e-07
1.01235e-07
1.06846e-07
-1.03889e-07
-1.01344e-07
-1.0501e-07
3.14793e-05
-3.21601e-05
-1.99027e-07
2.01053e-07
-2.00773e-07
3.21668e-05
3.14979e-05
-3.21821e-05
2.067e-07
-2.10232e-07
2.08207e-07
-2.10284e-07
-3.14962e-05
3.21903e-05
1.03488e-07
1.06002e-07
1.01757e-07
1.07403e-07
-1.04607e-07
-1.1192e-07
-1.07658e-07
3.14775e-05
-3.21594e-05
-2.00154e-07
2.02947e-07
-2.02142e-07
3.21653e-05
3.14984e-05
-3.21836e-05
2.06607e-07
-2.09385e-07
2.06649e-07
-2.06726e-07
-3.15018e-05
3.21835e-05
1.01945e-07
1.06072e-07
1.01431e-07
1.06915e-07
-1.0658e-07
-1.11115e-07
-1.0644e-07
3.14788e-05
-3.21595e-05
-2.00572e-07
2.02406e-07
-2.00678e-07
3.21649e-05
3.14982e-05
-3.21779e-05
2.07748e-07
-2.0718e-07
2.06763e-07
-2.10555e-07
-3.15046e-05
3.2185e-05
1.02569e-07
1.06705e-07
1.03386e-07
1.09151e-07
-1.07361e-07
-1.04819e-07
-1.08448e-07
3.14781e-05
-3.21585e-05
-2.02128e-07
2.03932e-07
-2.03574e-07
3.21644e-05
3.15002e-05
-3.21828e-05
2.05714e-07
-2.12077e-07
2.03596e-07
-2.20003e-07
-3.15061e-05
3.21838e-05
1.05197e-07
1.08e-07
1.02325e-07
1.07808e-07
-1.09279e-07
-1.03427e-07
-1.08739e-07
3.14807e-05
-3.21598e-05
-2.04615e-07
2.03133e-07
-2.03803e-07
3.21654e-05
3.14965e-05
-3.21807e-05
2.03641e-07
-2.11131e-07
2.06565e-07
-2.09592e-07
-3.15027e-05
3.21865e-05
1.04441e-07
1.06818e-07
1.02844e-07
1.07454e-07
-1.08282e-07
-1.03789e-07
-1.07601e-07
3.14802e-05
-3.21603e-05
-2.0325e-07
2.02915e-07
-2.03217e-07
3.21664e-05
3.14984e-05
-3.21819e-05
2.05355e-07
-2.07591e-07
2.06329e-07
-2.06212e-07
-3.15018e-05
3.21871e-05
1.03816e-07
1.07107e-07
1.02278e-07
1.06734e-07
-1.07008e-07
-1.02605e-07
-1.06396e-07
3.14805e-05
-3.21611e-05
-2.02354e-07
2.01745e-07
-2.01636e-07
3.21669e-05
3.14979e-05
-3.21854e-05
2.03931e-07
-2.07374e-07
2.08117e-07
-2.14649e-07
-3.15002e-05
3.21866e-05
1.03224e-07
1.06619e-07
1.00638e-07
1.07397e-07
-1.05615e-07
-1.00853e-07
-1.06914e-07
3.14799e-05
-3.21606e-05
-2.00735e-07
2.02427e-07
-2.01114e-07
3.21678e-05
3.14994e-05
-3.21879e-05
2.11569e-07
-2.13839e-07
2.12209e-07
-2.02237e-07
-3.15075e-05
3.21963e-05
9.94985e-08
1.05349e-07
1.01513e-07
1.06499e-07
-1.06459e-07
-1.00651e-07
-1.12537e-07
3.14807e-05
-3.21606e-05
-1.99875e-07
2.03502e-07
-1.99762e-07
3.21653e-05
3.15019e-05
-3.21904e-05
2.12999e-07
-1.87901e-07
2.11893e-07
-2.05494e-07
-3.14868e-05
3.21846e-05
1.04427e-07
1.06024e-07
1.08102e-07
1.08931e-07
-1.12353e-07
-1.03498e-07
-1.06399e-07
3.14797e-05
-3.21594e-05
-1.98843e-07
2.03514e-07
-2.00972e-07
3.21673e-05
3.15059e-05
-3.2188e-05
2.20451e-07
-1.99589e-07
2.07863e-07
-2.05198e-07
-3.14992e-05
3.21867e-05
1.09222e-07
1.07983e-07
1.03992e-07
1.07138e-07
-1.06008e-07
-1.03904e-07
-1.05742e-07
3.1481e-05
-3.21595e-05
-2.01189e-07
2.02269e-07
-2.01443e-07
3.21659e-05
3.15054e-05
-3.21878e-05
2.0767e-07
-2.0655e-07
2.08949e-07
-2.09597e-07
-3.14992e-05
3.21848e-05
1.05901e-07
1.07364e-07
1.05997e-07
1.09833e-07
-1.04472e-07
-1.05571e-07
-1.07988e-07
3.14787e-05
-3.2159e-05
-2.00153e-07
2.04781e-07
-2.0352e-07
3.21664e-05
3.15085e-05
-3.21888e-05
2.07275e-07
-2.08422e-07
2.07341e-07
-2.08176e-07
-3.15037e-05
3.21858e-05
1.06008e-07
1.08127e-07
1.03201e-07
1.07909e-07
-1.07946e-07
-1.03575e-07
-1.07091e-07
3.14823e-05
-3.21601e-05
-2.02963e-07
2.03216e-07
-2.02306e-07
3.21671e-05
3.15062e-05
-3.21896e-05
2.0708e-07
-2.07956e-07
2.07588e-07
-2.08448e-07
-3.15019e-05
3.21857e-05
1.05474e-07
1.07225e-07
1.04376e-07
1.08224e-07
-1.06092e-07
-1.04456e-07
-1.06307e-07
3.14804e-05
-3.21605e-05
-2.01951e-07
2.03424e-07
-2.01936e-07
3.21675e-05
3.15083e-05
-3.21913e-05
2.06992e-07
-2.07724e-07
2.05533e-07
-2.06636e-07
-3.15037e-05
3.2188e-05
1.05557e-07
1.07419e-07
1.02084e-07
1.0661e-07
-1.05834e-07
-1.02685e-07
-1.05739e-07
3.14818e-05
-3.21624e-05
-2.01398e-07
2.01739e-07
-2.01237e-07
3.21686e-05
3.15061e-05
-3.219e-05
2.05962e-07
-2.07051e-07
2.05359e-07
-2.05968e-07
-3.15018e-05
3.21869e-05
1.04117e-07
1.05644e-07
1.01279e-07
1.05373e-07
-1.06309e-07
-1.01324e-07
-1.05148e-07
3.14803e-05
-3.21615e-05
-2.02177e-07
2.00663e-07
-2.00964e-07
3.21673e-05
3.1504e-05
-3.21898e-05
2.04837e-07
-2.05943e-07
2.0697e-07
-2.07753e-07
-3.14995e-05
3.21866e-05
1.02578e-07
1.05033e-07
1.02764e-07
1.06781e-07
-1.03033e-07
-1.03302e-07
-1.0532e-07
3.14782e-05
-3.21612e-05
-1.9928e-07
2.02617e-07
-2.01382e-07
3.21681e-05
3.15062e-05
-3.21887e-05
2.07257e-07
-2.07684e-07
2.05829e-07
-2.05818e-07
-3.15017e-05
3.21861e-05
1.04873e-07
1.06483e-07
1.02092e-07
1.0577e-07
-1.05835e-07
-1.01507e-07
-1.04352e-07
3.148e-05
-3.21605e-05
-2.01731e-07
2.01058e-07
-2.00255e-07
3.21672e-05
3.1505e-05
-3.21876e-05
2.05659e-07
-2.06821e-07
2.08702e-07
-2.09553e-07
-3.14998e-05
3.21845e-05
1.03993e-07
1.06258e-07
1.05088e-07
1.08971e-07
-1.05962e-07
-1.05041e-07
-1.07399e-07
3.14785e-05
-3.21589e-05
-2.01819e-07
2.04251e-07
-2.02904e-07
3.2166e-05
3.15072e-05
-3.21886e-05
2.08499e-07
-2.09181e-07
2.07614e-07
-2.06079e-07
-3.15027e-05
3.21849e-05
1.06785e-07
1.08385e-07
1.03725e-07
1.07739e-07
-1.07499e-07
-1.03407e-07
-1.0636e-07
3.14812e-05
-3.216e-05
-2.02969e-07
2.02876e-07
-2.02301e-07
3.21667e-05
3.15071e-05
-3.21879e-05
2.08297e-07
-2.13847e-07
2.09426e-07
-2.07007e-07
-3.15034e-05
3.2185e-05
1.06683e-07
1.08667e-07
1.05614e-07
1.09906e-07
-1.07943e-07
-1.04654e-07
-1.07428e-07
3.14802e-05
-3.21599e-05
-2.03814e-07
2.04627e-07
-2.03043e-07
3.21674e-05
3.15083e-05
-3.21897e-05
2.08089e-07
-2.11242e-07
2.08076e-07
-2.0887e-07
-3.15056e-05
3.2188e-05
1.06396e-07
1.08464e-07
1.04191e-07
1.07744e-07
-1.07605e-07
-1.0334e-07
-1.05964e-07
3.14824e-05
-3.21616e-05
-2.03113e-07
2.02856e-07
-2.02046e-07
3.21679e-05
3.15078e-05
-3.2191e-05
2.06515e-07
-2.07941e-07
2.05021e-07
-2.06494e-07
-3.15028e-05
3.21889e-05
1.04763e-07
1.0706e-07
1.00877e-07
1.0514e-07
-1.0501e-07
-1.01775e-07
-1.04757e-07
3.14807e-05
-3.21622e-05
-2.01073e-07
2.00813e-07
-2.00887e-07
3.21687e-05
3.15053e-05
-3.21905e-05
2.04651e-07
-2.06098e-07
2.06252e-07
-2.07414e-07
-3.15012e-05
3.21883e-05
1.0287e-07
1.04681e-07
1.02314e-07
1.05967e-07
-1.0369e-07
-1.02765e-07
-1.05487e-07
3.14795e-05
-3.21621e-05
-1.99214e-07
2.01434e-07
-2.016e-07
3.21679e-05
3.15058e-05
-3.21903e-05
2.05967e-07
-2.06721e-07
2.05009e-07
-2.06018e-07
-3.15015e-05
3.21879e-05
1.03665e-07
1.05177e-07
1.00995e-07
1.04837e-07
-1.03525e-07
-1.00951e-07
-1.04124e-07
3.14794e-05
-3.21611e-05
-1.99893e-07
2.00531e-07
-2.00126e-07
3.21671e-05
3.15042e-05
-3.21881e-05
2.04415e-07
-2.05841e-07
2.07815e-07
-2.09582e-07
-3.14996e-05
3.21859e-05
1.0248e-07
1.04367e-07
1.04069e-07
1.08687e-07
-1.034e-07
-1.05219e-07
-1.08754e-07
3.14776e-05
-3.21588e-05
-1.9929e-07
2.04246e-07
-2.04283e-07
3.21648e-05
3.15055e-05
-3.2188e-05
2.06675e-07
-2.08656e-07
2.07528e-07
-2.08987e-07
-3.15019e-05
3.21854e-05
1.04448e-07
1.06472e-07
1.03916e-07
1.08323e-07
-1.07144e-07
-1.03742e-07
-1.07378e-07
3.14808e-05
-3.21589e-05
-2.03339e-07
2.03224e-07
-2.0319e-07
3.2165e-05
3.1506e-05
-3.2189e-05
2.07056e-07
-2.08105e-07
2.07786e-07
-2.09397e-07
-3.15018e-05
3.21864e-05
1.05219e-07
1.06853e-07
1.041e-07
1.08564e-07
-1.06121e-07
-1.04476e-07
-1.07675e-07
3.14797e-05
-3.21598e-05
-2.01929e-07
2.0378e-07
-2.03291e-07
3.2166e-05
3.15076e-05
-3.21889e-05
2.08258e-07
-2.105e-07
2.05793e-07
-2.10949e-07
-3.15034e-05
3.21883e-05
1.06603e-07
1.08802e-07
1.06092e-07
1.08895e-07
-1.08705e-07
-1.03579e-07
-1.09942e-07
3.14814e-05
-3.21615e-05
-2.04308e-07
2.0231e-07
-2.02005e-07
3.21706e-05
3.15046e-05
-3.21779e-05
2.05284e-07
-2.05205e-07
2.06617e-07
-2.04026e-07
-3.15007e-05
3.21871e-05
1.07105e-07
1.079e-07
1.08853e-07
1.08592e-07
-1.14909e-07
-9.9996e-08
-1.12485e-07
3.14794e-05
-3.21614e-05
-1.97588e-07
2.01621e-07
-1.98491e-07
3.21707e-05
3.15159e-05
-3.21881e-05
2.15599e-07
-2.10664e-07
2.03195e-07
-2.12103e-07
-3.15082e-05
3.21835e-05
1.14983e-07
1.08094e-07
1.01792e-07
1.06585e-07
-1.09049e-07
-1.02564e-07
-1.06891e-07
3.14819e-05
-3.21621e-05
-2.02413e-07
2.01695e-07
-2.01997e-07
3.21679e-05
3.15012e-05
-3.21873e-05
2.01033e-07
-2.20495e-07
2.05088e-07
-2.08509e-07
-3.15101e-05
3.21874e-05
1.0293e-07
1.05362e-07
1.01999e-07
1.06398e-07
-1.06672e-07
-1.02048e-07
-1.06141e-07
3.14795e-05
-3.21617e-05
-2.0202e-07
2.0174e-07
-2.01871e-07
3.21672e-05
3.15017e-05
-3.21865e-05
2.03733e-07
-2.06981e-07
2.06323e-07
-2.07694e-07
-3.15023e-05
3.21875e-05
1.02808e-07
1.05422e-07
1.02653e-07
1.07089e-07
-1.04491e-07
-1.03091e-07
-1.06243e-07
3.14796e-05
-3.21609e-05
-2.00449e-07
2.0246e-07
-2.02184e-07
3.21668e-05
3.15017e-05
-3.21852e-05
2.04869e-07
-2.06286e-07
2.06222e-07
-2.06707e-07
-3.15015e-05
3.21873e-05
1.03864e-07
1.05719e-07
1.02714e-07
1.06479e-07
-1.05005e-07
-1.0245e-07
-1.0529e-07
3.14793e-05
-3.21603e-05
-2.00786e-07
2.02097e-07
-2.01301e-07
3.21668e-05
3.15016e-05
-3.21839e-05
2.04819e-07
-2.06523e-07
2.09245e-07
-2.08985e-07
-3.15008e-05
3.21862e-05
1.0406e-07
1.06199e-07
1.06081e-07
1.09289e-07
-1.0583e-07
-1.04921e-07
-1.07244e-07
3.14789e-05
-3.21592e-05
-2.01495e-07
2.04802e-07
-2.02857e-07
3.21665e-05
3.15047e-05
-3.21846e-05
2.07263e-07
-2.08254e-07
2.07862e-07
-2.08346e-07
-3.15036e-05
3.21866e-05
1.06437e-07
1.08046e-07
1.05e-07
1.08607e-07
-1.08312e-07
-1.04844e-07
-1.07956e-07
3.14815e-05
-3.21595e-05
-2.03718e-07
2.04103e-07
-2.03168e-07
3.21661e-05
3.15035e-05
-3.21856e-05
2.05973e-07
-2.07178e-07
2.07632e-07
-2.08191e-07
-3.15026e-05
3.21874e-05
1.05157e-07
1.06782e-07
1.04317e-07
1.08179e-07
-1.06798e-07
-1.04187e-07
-1.0738e-07
3.14807e-05
-3.21604e-05
-2.0249e-07
2.03827e-07
-2.03221e-07
3.21668e-05
3.15042e-05
-3.21863e-05
2.06894e-07
-2.08101e-07
2.07385e-07
-2.08074e-07
-3.15035e-05
3.21879e-05
1.06138e-07
1.0796e-07
1.0409e-07
1.08261e-07
-1.0695e-07
-1.03839e-07
-1.06598e-07
3.14817e-05
-3.21612e-05
-2.02724e-07
2.03593e-07
-2.02222e-07
3.21677e-05
3.1504e-05
-3.21873e-05
2.06461e-07
-2.07561e-07
2.06297e-07
-2.06722e-07
-3.15036e-05
3.2189e-05
1.05378e-07
1.07295e-07
1.02563e-07
1.06741e-07
-1.06777e-07
-1.01781e-07
-1.04546e-07
3.14814e-05
-3.21624e-05
-2.02494e-07
2.02543e-07
-2.00717e-07
3.21691e-05
3.15022e-05
-3.21873e-05
2.0511e-07
-2.06215e-07
2.05348e-07
-2.06628e-07
-3.15018e-05
3.21886e-05
1.0381e-07
1.05854e-07
1.02114e-07
1.0642e-07
-1.05668e-07
-1.02792e-07
-1.06515e-07
3.14796e-05
-3.21616e-05
-2.01729e-07
2.02314e-07
-2.02249e-07
3.21675e-05
3.15016e-05
-3.21872e-05
2.05006e-07
-2.06336e-07
2.04321e-07
-2.05985e-07
-3.15015e-05
3.21885e-05
1.03997e-07
1.05486e-07
1.01072e-07
1.05299e-07
-1.04947e-07
-1.02132e-07
-1.05202e-07
3.14797e-05
-3.21615e-05
-2.01149e-07
2.01315e-07
-2.01309e-07
3.21673e-05
3.15008e-05
-3.21853e-05
2.05289e-07
-2.06585e-07
2.06842e-07
-2.07216e-07
-3.15006e-05
3.21874e-05
1.04621e-07
1.05927e-07
1.03697e-07
1.07479e-07
-1.04347e-07
-1.03129e-07
-1.0544e-07
3.14786e-05
-3.21604e-05
-2.00386e-07
2.02937e-07
-2.01477e-07
3.21674e-05
3.15031e-05
-3.21833e-05
2.07075e-07
-2.07185e-07
2.09636e-07
-2.07498e-07
-3.15023e-05
3.21868e-05
1.06232e-07
1.0741e-07
1.05912e-07
1.08626e-07
-1.0594e-07
-1.03626e-07
-1.05434e-07
3.14803e-05
-3.21596e-05
-2.01929e-07
2.04148e-07
-2.01615e-07
3.21669e-05
3.15038e-05
-3.21821e-05
2.08064e-07
-2.0482e-07
2.11556e-07
-1.92675e-07
-3.15016e-05
3.21908e-05
1.06108e-07
1.07042e-07
1.06078e-07
1.08617e-07
-1.05736e-07
-1.04512e-07
-1.06839e-07
3.14796e-05
-3.21591e-05
-2.01608e-07
2.04563e-07
-2.02905e-07
3.21664e-05
3.15057e-05
-3.21847e-05
2.10219e-07
-2.01974e-07
2.08413e-07
-2.07201e-07
-3.14994e-05
3.21874e-05
1.07502e-07
1.08349e-07
1.04638e-07
1.0835e-07
-1.07034e-07
-1.04536e-07
-1.08136e-07
3.14812e-05
-3.21599e-05
-2.0284e-07
2.04448e-07
-2.02325e-07
3.21668e-05
3.15038e-05
-3.21867e-05
2.07731e-07
-2.07433e-07
2.07267e-07
-2.06523e-07
-3.15035e-05
3.21874e-05
1.06616e-07
1.07856e-07
1.03801e-07
1.05372e-07
-1.08875e-07
-1.04436e-07
-1.14906e-07
3.14815e-05
-3.21622e-05
-2.01578e-07
2.03197e-07
-2.0079e-07
3.21649e-05
3.15038e-05
-3.2187e-05
2.07292e-07
-2.06507e-07
2.07203e-07
-2.06664e-07
-3.15038e-05
3.21876e-05
1.0538e-07
1.04811e-07
1.03295e-07
1.04818e-07
-1.14499e-07
-1.04923e-07
-1.16229e-07
3.14802e-05
-3.21626e-05
-1.99648e-07
2.03624e-07
-2.01752e-07
3.21646e-05
3.15023e-05
-3.21872e-05
2.05505e-07
-2.05581e-07
2.05523e-07
-2.04725e-07
-3.15032e-05
3.21879e-05
1.03668e-07
1.0355e-07
1.00965e-07
1.02209e-07
-1.13025e-07
-1.02025e-07
-1.12565e-07
3.14795e-05
-3.21629e-05
-1.98224e-07
2.0145e-07
-1.98628e-07
3.21659e-05
3.14995e-05
-3.21852e-05
2.04545e-07
-2.04423e-07
2.07736e-07
-2.06918e-07
-3.15003e-05
3.21857e-05
1.02264e-07
1.02035e-07
1.03965e-07
1.05457e-07
-1.12151e-07
-1.04519e-07
-1.15199e-07
3.14767e-05
-3.21609e-05
-1.97307e-07
2.03903e-07
-2.00476e-07
3.21633e-05
3.15035e-05
-3.21856e-05
2.06985e-07
-2.06371e-07
2.07116e-07
-2.05833e-07
-3.15039e-05
3.21862e-05
1.05135e-07
1.0503e-07
1.02609e-07
1.04272e-07
-1.14625e-07
-1.03447e-07
-1.14668e-07
3.14799e-05
-3.21616e-05
-1.99473e-07
2.03017e-07
-1.9985e-07
3.21643e-05
3.15008e-05
-3.21847e-05
2.05481e-07
-2.05302e-07
2.07722e-07
-2.0692e-07
-3.15012e-05
3.21854e-05
1.03521e-07
1.03828e-07
1.04101e-07
1.05515e-07
-1.14908e-07
-1.04707e-07
-1.15754e-07
3.1477e-05
-3.21607e-05
-1.9962e-07
2.03709e-07
-2.00881e-07
3.21632e-05
3.15027e-05
-3.21848e-05
2.07678e-07
-2.07635e-07
2.08809e-07
-2.07762e-07
-3.15034e-05
3.21854e-05
1.05843e-07
1.05721e-07
1.05192e-07
1.06359e-07
-1.16984e-07
-1.06181e-07
-1.16989e-07
3.14796e-05
-3.21604e-05
-2.01747e-07
2.04858e-07
-2.02102e-07
3.21631e-05
3.15034e-05
-3.21849e-05
2.07659e-07
-2.07541e-07
2.08738e-07
-2.0765e-07
-3.15038e-05
3.21859e-05
1.05936e-07
1.05746e-07
1.04946e-07
1.06014e-07
-1.15846e-07
-1.05781e-07
-1.16534e-07
3.148e-05
-3.21613e-05
-2.00805e-07
2.04709e-07
-2.01711e-07
3.21637e-05
3.15042e-05
-3.21872e-05
2.06929e-07
-2.06342e-07
2.06933e-07
-2.06528e-07
-3.15045e-05
3.21876e-05
1.05264e-07
1.04677e-07
1.03316e-07
1.04872e-07
-1.15169e-07
-1.04554e-07
-1.15771e-07
3.14805e-05
-3.21624e-05
-1.99676e-07
2.03693e-07
-2.01164e-07
3.21645e-05
3.15028e-05
-3.21874e-05
2.07745e-07
-2.07098e-07
2.05434e-07
-2.04979e-07
-3.15032e-05
3.21879e-05
1.05601e-07
1.05074e-07
1.01517e-07
1.03506e-07
-1.16123e-07
-1.02864e-07
-1.14558e-07
3.14793e-05
-3.21629e-05
-2.01312e-07
2.02271e-07
-1.99854e-07
3.21654e-05
3.15014e-05
-3.21864e-05
2.05188e-07
-2.04885e-07
2.07443e-07
-2.06522e-07
-3.15022e-05
3.2187e-05
1.03052e-07
1.02878e-07
1.03614e-07
1.04978e-07
-1.14059e-07
-1.03212e-07
-1.13847e-07
3.14789e-05
-3.21626e-05
-1.99153e-07
2.03451e-07
-1.99494e-07
3.21658e-05
3.15023e-05
-3.21866e-05
2.06373e-07
-2.05417e-07
2.05953e-07
-2.05506e-07
-3.15028e-05
3.21867e-05
1.04046e-07
1.03608e-07
1.01606e-07
1.03279e-07
-1.14144e-07
-1.02743e-07
-1.13788e-07
3.14791e-05
-3.2162e-05
-1.99281e-07
2.02518e-07
-1.99761e-07
3.21641e-05
3.15008e-05
-3.21855e-05
2.05698e-07
-2.04902e-07
2.06591e-07
-2.07448e-07
-3.15012e-05
3.2185e-05
1.03456e-07
1.03117e-07
1.02798e-07
1.06465e-07
-1.12196e-07
-1.05539e-07
-1.17851e-07
3.14772e-05
-3.2159e-05
-1.97478e-07
2.05445e-07
-2.03056e-07
3.21619e-05
3.15014e-05
-3.21847e-05
2.06309e-07
-2.06482e-07
2.07737e-07
-2.06822e-07
-3.15027e-05
3.2185e-05
1.04489e-07
1.06328e-07
1.03547e-07
1.09435e-07
-1.17754e-07
-1.04041e-07
-1.18801e-07
3.14814e-05
-3.21532e-05
-2.02828e-07
2.1125e-07
-2.0729e-07
3.21568e-05
3.15016e-05
-3.21847e-05
2.07295e-07
-2.06659e-07
2.07985e-07
-2.07762e-07
-3.15018e-05
3.2185e-05
1.05329e-07
1.09422e-07
1.03302e-07
1.07969e-07
-1.2123e-07
-1.05278e-07
-1.18997e-07
3.14842e-05
-3.21563e-05
-2.09496e-07
2.09826e-07
-2.07772e-07
3.21585e-05
3.15032e-05
-3.21854e-05
2.07744e-07
-2.0751e-07
2.08499e-07
-2.08489e-07
-3.1504e-05
3.21849e-05
1.05561e-07
1.07438e-07
1.04109e-07
1.06826e-07
-1.1765e-07
-1.05428e-07
-1.16203e-07
3.14828e-05
-3.21599e-05
-2.03419e-07
2.06108e-07
-2.01544e-07
3.21638e-05
3.15031e-05
-3.21867e-05
2.06635e-07
-2.06885e-07
2.07121e-07
-2.0626e-07
-3.15047e-05
3.21873e-05
1.04372e-07
1.05728e-07
1.03018e-07
1.04856e-07
-1.16905e-07
-1.03977e-07
-1.15569e-07
3.14811e-05
-3.21622e-05
-2.01201e-07
2.03425e-07
-2.00864e-07
3.21646e-05
3.15019e-05
-3.21869e-05
2.06507e-07
-2.05336e-07
2.06497e-07
-2.05306e-07
-3.15019e-05
3.21873e-05
1.04118e-07
1.03242e-07
1.02562e-07
1.04122e-07
-1.14125e-07
-1.03258e-07
-1.14207e-07
3.14783e-05
-3.21626e-05
-1.99786e-07
2.02274e-07
-1.993e-07
3.21655e-05
3.1502e-05
-3.21865e-05
2.06128e-07
-2.06427e-07
2.05391e-07
-2.05741e-07
-3.15024e-05
3.21863e-05
1.03773e-07
1.04374e-07
1.01704e-07
1.03194e-07
-1.14317e-07
-1.03486e-07
-1.13651e-07
3.14783e-05
-3.21612e-05
-1.99411e-07
2.03057e-07
-1.9964e-07
3.21645e-05
3.14991e-05
-3.21857e-05
2.04096e-07
-2.04232e-07
2.06763e-07
-2.06024e-07
-3.15011e-05
3.21861e-05
1.01885e-07
1.02514e-07
1.0276e-07
1.04281e-07
-1.11617e-07
-1.04321e-07
-1.14269e-07
3.14772e-05
-3.2161e-05
-1.97022e-07
2.03176e-07
-1.99611e-07
3.21643e-05
3.15014e-05
-3.21848e-05
2.06397e-07
-2.06049e-07
2.07374e-07
-2.06816e-07
-3.15019e-05
3.21853e-05
1.04414e-07
1.03545e-07
1.03153e-07
1.04635e-07
-1.1598e-07
-1.03629e-07
-1.14661e-07
3.14785e-05
-3.21605e-05
-2.01045e-07
2.03459e-07
-2.00431e-07
3.21628e-05
3.1501e-05
-3.21844e-05
2.06483e-07
-2.06199e-07
2.08399e-07
-2.07474e-07
-3.15015e-05
3.21848e-05
1.04357e-07
1.04534e-07
1.04802e-07
1.05724e-07
-1.14001e-07
-1.05443e-07
-1.1628e-07
3.14776e-05
-3.21598e-05
-1.99073e-07
2.04455e-07
-2.01712e-07
3.21625e-05
3.15031e-05
-3.21849e-05
2.08095e-07
-2.07941e-07
2.08141e-07
-2.07163e-07
-3.15031e-05
3.21852e-05
1.06536e-07
1.06468e-07
1.0451e-07
1.06254e-07
-1.17037e-07
-1.05568e-07
-1.16151e-07
3.14791e-05
-3.21601e-05
-2.01921e-07
2.04458e-07
-2.01386e-07
3.21632e-05
3.15019e-05
-3.21859e-05
2.0614e-07
-2.06889e-07
2.07625e-07
-2.08036e-07
-3.1503e-05
3.21857e-05
1.04402e-07
1.0469e-07
1.04047e-07
1.05699e-07
-1.16201e-07
-1.05495e-07
-1.16324e-07
3.14793e-05
-3.21607e-05
-2.01095e-07
2.05182e-07
-2.02525e-07
3.2163e-05
3.1503e-05
-3.21864e-05
2.08049e-07
-2.07616e-07
2.06983e-07
-2.0636e-07
-3.15045e-05
3.21872e-05
1.0593e-07
1.05457e-07
1.02929e-07
1.04574e-07
-1.1659e-07
-1.03889e-07
-1.14976e-07
3.14806e-05
-3.21621e-05
-2.01754e-07
2.03288e-07
-2.0072e-07
3.21644e-05
3.15016e-05
-3.21863e-05
2.05946e-07
-2.05122e-07
2.0625e-07
-2.06207e-07
-3.1502e-05
3.21865e-05
1.04192e-07
1.03497e-07
1.02452e-07
1.04283e-07
-1.13745e-07
-1.03625e-07
-1.14257e-07
3.14786e-05
-3.21615e-05
-1.98889e-07
2.03386e-07
-2.00491e-07
3.2164e-05
3.15014e-05
-3.21872e-05
2.05168e-07
-2.04271e-07
2.05943e-07
-2.05102e-07
-3.15024e-05
3.21876e-05
1.03363e-07
1.02174e-07
1.01969e-07
1.03335e-07
-1.14495e-07
-1.02937e-07
-1.14534e-07
3.14785e-05
-3.21628e-05
-1.99546e-07
2.02313e-07
-2.00176e-07
3.21653e-05
3.15006e-05
-3.21863e-05
2.05723e-07
-2.0557e-07
2.05688e-07
-2.05446e-07
-3.15013e-05
3.21862e-05
1.03564e-07
1.03337e-07
1.0166e-07
1.04129e-07
-1.13499e-07
-1.02773e-07
-1.14064e-07
3.14776e-05
-3.21613e-05
-1.98604e-07
2.02372e-07
-1.99006e-07
3.21635e-05
3.14997e-05
-3.21849e-05
2.05041e-07
-2.04839e-07
2.07134e-07
-2.07144e-07
-3.1501e-05
3.21847e-05
1.0344e-07
1.03289e-07
1.02659e-07
1.04815e-07
-1.14323e-07
-1.04836e-07
-1.15666e-07
3.1477e-05
-3.21599e-05
-1.99752e-07
2.04224e-07
-2.019e-07
3.21617e-05
3.15016e-05
-3.21843e-05
2.07118e-07
-2.06292e-07
2.08362e-07
-2.07961e-07
-3.15024e-05
3.21842e-05
1.05318e-07
1.047e-07
1.04207e-07
1.06564e-07
-1.15366e-07
-1.05551e-07
-1.16646e-07
3.14782e-05
-3.21593e-05
-2.00049e-07
2.04909e-07
-2.01633e-07
3.21626e-05
3.15026e-05
-3.21851e-05
2.07403e-07
-2.07041e-07
2.0795e-07
-2.0707e-07
-3.15032e-05
3.2185e-05
1.05764e-07
1.05626e-07
1.04162e-07
1.06028e-07
-1.16993e-07
-1.04865e-07
-1.16368e-07
3.14792e-05
-3.21601e-05
-2.01903e-07
2.03968e-07
-2.00804e-07
3.21625e-05
3.15025e-05
-3.2186e-05
2.07589e-07
-2.08e-07
2.07131e-07
-2.0799e-07
-3.15035e-05
3.21854e-05
1.0609e-07
1.06132e-07
1.03203e-07
1.05811e-07
-1.16673e-07
-1.05726e-07
-1.15461e-07
3.14789e-05
-3.21604e-05
-2.02189e-07
2.04951e-07
-2.01231e-07
3.21638e-05
3.15024e-05
-3.21868e-05
2.0724e-07
-2.06335e-07
2.07412e-07
-2.06511e-07
-3.1504e-05
3.2187e-05
1.05365e-07
1.04268e-07
1.03221e-07
1.05154e-07
-1.15721e-07
-1.04705e-07
-1.15514e-07
3.14798e-05
-3.21622e-05
-2.00981e-07
2.03375e-07
-2.01831e-07
3.21649e-05
3.15026e-05
-3.21856e-05
2.06792e-07
-2.06267e-07
2.06972e-07
-2.06372e-07
-3.15029e-05
3.21866e-05
1.04746e-07
1.04703e-07
1.02011e-07
1.03777e-07
-1.14514e-07
-1.0344e-07
-1.14451e-07
3.14785e-05
-3.21615e-05
-1.99914e-07
2.0331e-07
-2.0042e-07
3.21644e-05
3.15014e-05
-3.21873e-05
2.03092e-07
-2.04799e-07
2.04996e-07
-2.06092e-07
-3.15023e-05
3.21868e-05
1.02366e-07
1.02766e-07
1.02347e-07
1.03942e-07
-1.13877e-07
-1.04304e-07
-1.13801e-07
3.14774e-05
-3.21623e-05
-1.99123e-07
2.02961e-07
-2.00416e-07
3.21641e-05
3.15014e-05
-3.21843e-05
2.05362e-07
-2.05634e-07
2.03501e-07
-2.06612e-07
-3.15015e-05
3.21871e-05
1.03512e-07
1.0424e-07
1.0343e-07
1.0571e-07
-1.1253e-07
-1.04018e-07
-1.07727e-07
3.14767e-05
-3.21625e-05
-1.99922e-07
2.00818e-07
-1.99573e-07
3.21663e-05
3.14966e-05
-3.22261e-05
2.0206e-07
-2.02609e-07
1.65459e-07
-1.68629e-07
-3.1499e-05
3.22329e-05
1.05123e-07
1.06551e-07
7.03107e-08
7.82088e-08
-1.087e-07
-8.18542e-08
-7.52634e-08
3.14741e-05
-3.22129e-05
-1.98821e-07
1.58835e-07
-1.70764e-07
3.2199e-05
3.14116e-05
-3.24184e-05
1.10627e-07
-1.21685e-07
-1.08796e-06
1.06778e-06
-3.14094e-05
3.23816e-05
1.36687e-08
9.81397e-09
-1.77173e-06
-1.77456e-06
-2.04766e-08
1.74776e-06
1.75702e-06
3.13942e-05