/*--------------------------------*- C++ -*----------------------------------*\
| =========                 |                                                 |
| \\      /  F ield         | OpenFOAM: The Open Source CFD Toolbox           |
|  \\    /   O peration     | Version:  2206                                  |
|   \\  /    A nd           | Website:  www.openfoam.com                      |
|    \\/     M anipulation  |                                                 |
\*---------------------------------------------------------------------------*/
FoamFile
{
    version     2.0;
    format      ascii;
    arch        "LSB;label=32;scalar=64";
    class       volScalarField;
    location    "24.5";
    object      Uy;
}
// * * * * * * * * * * * * * * * * * * * * * * * * * * * * * * * * * * * * * //

dimensions      [0 1 -1 0 0 0 0];

internalField   nonuniform List<scalar> 
171728
(
0.000108006
0.000119155
-0.000190045
-0.000239337
9.47883e-05
9.74671e-05
-0.000159981
-0.000200481
9.48162e-05
9.19783e-05
-0.000154425
-0.000199994
9.17614e-05
8.59294e-05
-0.000146318
-0.000194245
8.07865e-05
7.42462e-05
-0.000130607
-0.000177091
3.9959e-05
3.33442e-05
-5.4399e-05
-9.28802e-05
9.20157e-06
9.33028e-06
-1.25484e-05
-5.33492e-05
3.5954e-07
1.48547e-06
-1.55283e-06
-4.37396e-05
-6.15837e-07
7.23669e-07
-4.88573e-07
-4.30125e-05
-6.67746e-07
6.924e-07
-4.53586e-07
-4.29871e-05
-6.65003e-07
6.93271e-07
-4.54838e-07
-4.29876e-05
-6.72322e-07
6.91683e-07
-4.55566e-07
-4.29884e-05
-6.73538e-07
6.89445e-07
-4.55036e-07
-4.29882e-05
-6.73373e-07
6.88835e-07
-4.54402e-07
-4.29872e-05
-6.7146e-07
6.95064e-07
-4.54074e-07
-4.29861e-05
-6.70275e-07
6.97643e-07
-4.53733e-07
-4.29855e-05
-6.71814e-07
6.93734e-07
-4.53737e-07
-4.29859e-05
-6.69207e-07
6.96382e-07
-4.54027e-07
-4.29868e-05
-6.61009e-07
7.08649e-07
-4.52451e-07
-4.29853e-05
-6.63657e-07
6.84016e-07
-4.52718e-07
-4.29862e-05
-6.66762e-07
6.96385e-07
-4.54668e-07
-4.29876e-05
-6.73043e-07
6.91213e-07
-4.55154e-07
-4.29876e-05
-6.72807e-07
6.90169e-07
-4.5498e-07
-4.29873e-05
-6.7338e-07
6.89794e-07
-4.54734e-07
-4.29869e-05
-6.73803e-07
6.89269e-07
-4.54698e-07
-4.29872e-05
-6.73106e-07
6.89812e-07
-4.55701e-07
-4.29878e-05
-6.72551e-07
6.9063e-07
-4.55548e-07
-4.2988e-05
-6.71294e-07
6.90802e-07
-4.56734e-07
-4.29889e-05
-6.71492e-07
6.90946e-07
-4.56025e-07
-4.29886e-05
-6.72106e-07
6.90763e-07
-4.55882e-07
-4.29881e-05
-6.72067e-07
6.914e-07
-4.55272e-07
-4.29881e-05
-6.73241e-07
6.89834e-07
-4.54442e-07
-4.29871e-05
-6.72267e-07
6.89996e-07
-4.54727e-07
-4.29872e-05
-6.7233e-07
6.89769e-07
-4.54736e-07
-4.29876e-05
-6.71768e-07
6.90098e-07
-4.55856e-07
-4.29884e-05
-6.71549e-07
6.90522e-07
-4.559e-07
-4.29886e-05
-6.71405e-07
6.90223e-07
-4.56268e-07
-4.29887e-05
-6.71982e-07
6.90181e-07
-4.55354e-07
-4.29883e-05
-6.72566e-07
6.89383e-07
-4.55276e-07
-4.29881e-05
-6.72319e-07
6.89864e-07
-4.5538e-07
-4.29896e-05
-6.6746e-07
6.87866e-07
-4.53731e-07
-4.29875e-05
-6.69949e-07
7.0087e-07
-4.53777e-07
-4.29865e-05
-6.7057e-07
6.91505e-07
-4.53538e-07
-4.29867e-05
-6.70555e-07
6.92156e-07
-4.54525e-07
-4.29882e-05
-6.71658e-07
6.92239e-07
-4.53795e-07
-4.29879e-05
-6.7268e-07
6.91736e-07
-4.54001e-07
-4.29882e-05
-6.73308e-07
6.91281e-07
-4.52914e-07
-4.29876e-05
-6.7348e-07
6.90679e-07
-4.52555e-07
-4.29869e-05
-6.73517e-07
6.9122e-07
-4.52821e-07
-4.2987e-05
-6.73276e-07
6.91253e-07
-4.53002e-07
-4.29871e-05
-6.72217e-07
6.92048e-07
-4.5421e-07
-4.29881e-05
-6.72447e-07
6.91664e-07
-4.53653e-07
-4.29876e-05
-6.72541e-07
6.91826e-07
-4.54594e-07
-4.29887e-05
-6.74299e-07
6.8797e-07
-4.54466e-07
-4.29892e-05
-6.75648e-07
6.80929e-07
-4.53801e-07
-4.29888e-05
-6.74915e-07
6.89607e-07
-4.52848e-07
-4.29878e-05
-6.75724e-07
6.88647e-07
-4.50662e-07
-4.29855e-05
-6.74941e-07
6.89204e-07
-4.51049e-07
-4.29853e-05
-6.74776e-07
6.88758e-07
-4.50908e-07
-4.29853e-05
-6.74411e-07
6.89797e-07
-4.51552e-07
-4.29857e-05
-6.74818e-07
6.89196e-07
-4.51141e-07
-4.29854e-05
-6.74701e-07
6.8864e-07
-4.50236e-07
-4.29846e-05
-6.75267e-07
6.88394e-07
-4.49811e-07
-4.29844e-05
-6.76127e-07
6.87961e-07
-4.49087e-07
-4.29834e-05
-6.75119e-07
6.88566e-07
-4.49992e-07
-4.29841e-05
-6.75255e-07
6.88243e-07
-4.49697e-07
-4.29842e-05
-6.74666e-07
6.8912e-07
-4.51383e-07
-4.29851e-05
-6.7404e-07
6.89786e-07
-4.51014e-07
-4.29848e-05
-6.72796e-07
6.90272e-07
-4.46642e-07
-4.29816e-05
-6.71532e-07
6.91403e-07
-4.36718e-07
-4.2975e-05
-6.73546e-07
6.90142e-07
-4.46293e-07
-4.29789e-05
-6.7508e-07
6.89025e-07
-4.48386e-07
-4.29829e-05
-6.7551e-07
6.87832e-07
-4.49414e-07
-4.29833e-05
-6.74951e-07
6.88853e-07
-4.5035e-07
-4.29847e-05
-6.74968e-07
6.88674e-07
-4.50465e-07
-4.29849e-05
-6.74446e-07
6.89147e-07
-4.51332e-07
-4.29851e-05
-6.74537e-07
6.89444e-07
-4.50916e-07
-4.29852e-05
-6.75205e-07
6.88431e-07
-4.49436e-07
-4.29842e-05
-6.75376e-07
6.88217e-07
-4.49804e-07
-4.29841e-05
-6.75767e-07
6.88342e-07
-4.49136e-07
-4.29835e-05
-6.75589e-07
6.8832e-07
-4.49817e-07
-4.29839e-05
-6.75182e-07
6.8855e-07
-4.50095e-07
-4.29844e-05
-6.74513e-07
6.89129e-07
-4.50957e-07
-4.2985e-05
-6.74748e-07
6.88926e-07
-4.51125e-07
-4.29851e-05
-6.74836e-07
6.89164e-07
-4.51002e-07
-4.29852e-05
-6.75411e-07
6.88177e-07
-4.50255e-07
-4.29845e-05
-6.76258e-07
6.87483e-07
-4.48631e-07
-4.29839e-05
-6.81286e-07
6.82414e-07
-4.43702e-07
-4.29815e-05
-6.91634e-07
6.74641e-07
-4.43447e-07
-4.29438e-05
-7.03706e-07
6.99413e-07
-5.26071e-07
-4.26617e-05
-6.54021e-07
9.89673e-07
-8.7735e-07
-4.24585e-05
-2.89772e-07
1.57895e-06
-1.8184e-06
-4.0982e-05
-2.14072e-07
2.85687e-06
-3.33406e-06
-3.87048e-05
-5.57346e-06
3.28304e-06
-2.35612e-06
-2.6317e-05
-4.18647e-05
-3.44141e-05
4.15719e-05
4.7857e-05
0.000135182
0.000152918
0.0001529
0.00013515
0.000124232
-0.00012425
9.06522e-05
9.065e-05
-9.06989e-05
-9.06969e-05
0.000124229
-0.000124245
-0.000135202
-0.000152949
-0.000152932
-0.000135175
0.00023934
0.000111892
0.000189947
0.000189987
0.000146784
0.000146782
0.000239289
0.00011186
0.000119175
-0.000119236
8.8615e-05
-8.86359e-05
-0.00011924
8.86163e-05
-8.86304e-05
-0.000239383
-0.000111986
-0.000190074
-0.000146719
-0.000146745
-0.000111988
0.00020035
0.000106246
0.000160035
0.000160032
0.000153763
0.000153761
0.000200317
0.000106238
9.74609e-05
-9.74726e-05
9.23982e-05
-9.23992e-05
-9.74667e-05
9.24051e-05
-9.239e-05
-0.00020049
-0.000106305
-0.000160007
-0.000153717
-0.000153734
-0.000106312
0.000199884
0.000100256
0.000154478
0.000154474
0.000151736
0.000151721
0.000199866
0.000100247
9.19771e-05
-9.19725e-05
9.01512e-05
-9.01307e-05
-9.19653e-05
9.01449e-05
-9.01371e-05
-0.000200001
-0.0001003
-0.000154449
-0.000151677
-0.000151687
-0.000100328
0.000194131
9.01421e-05
0.00014637
0.000146356
0.000145114
0.000145107
0.000194114
9.01361e-05
8.59424e-05
-8.59284e-05
8.46745e-05
-8.46289e-05
-8.59306e-05
8.46697e-05
-8.46491e-05
-0.000194236
-9.01833e-05
-0.000146321
-0.00014505
-0.000145052
-9.0204e-05
0.000176997
1.22997e-05
0.000130681
0.000130657
7.00676e-05
7.00815e-05
0.000176975
1.2279e-05
7.42585e-05
-7.42125e-05
4.07553e-05
-4.07976e-05
-7.42179e-05
4.075e-05
-4.07841e-05
-0.000177084
-1.22864e-05
-0.0001306
-7.00644e-05
-7.00513e-05
-1.22462e-05
9.28674e-05
-3.1604e-05
5.43891e-05
5.44072e-05
1.96329e-05
1.9651e-05
9.28423e-05
-3.16008e-05
3.33377e-05
-3.33904e-05
1.40681e-05
-1.41016e-05
-3.33775e-05
1.40665e-05
-1.40991e-05
-9.2917e-05
3.16176e-05
-5.43964e-05
-1.96331e-05
-1.964e-05
3.16086e-05
5.33103e-05
-4.375e-05
1.2554e-05
1.25704e-05
2.63474e-06
2.64549e-06
5.33006e-05
-4.37546e-05
9.33784e-06
-9.36341e-06
2.27194e-06
-2.28731e-06
-9.36245e-06
2.26519e-06
-2.28568e-06
-5.33561e-05
4.37875e-05
-1.25505e-05
-2.61627e-06
-2.61514e-06
4.37751e-05
4.37145e-05
-4.48253e-05
1.56761e-06
1.57797e-06
5.59499e-07
5.64243e-07
4.3704e-05
-4.48251e-05
1.49049e-06
-1.50731e-06
7.71836e-07
-7.89219e-07
-1.50563e-06
7.69405e-07
-7.86227e-07
-4.3744e-05
4.4857e-05
-1.54869e-06
-5.39315e-07
-5.37156e-07
4.48451e-05
4.29838e-05
-4.48644e-05
5.06173e-07
5.14319e-07
4.74809e-07
4.76654e-07
4.2977e-05
-4.48645e-05
7.27859e-07
-7.437e-07
6.97234e-07
-7.10617e-07
-7.4111e-07
6.93895e-07
-7.08733e-07
-4.30174e-05
4.49001e-05
-4.83747e-07
-4.51558e-07
-4.50007e-07
4.48866e-05
4.29614e-05
-4.48497e-05
4.75706e-07
4.84147e-07
4.86227e-07
4.77676e-07
4.29538e-05
-4.48627e-05
6.98409e-07
-7.09396e-07
7.03597e-07
-7.09179e-07
-7.08075e-07
6.94053e-07
-7.07333e-07
-4.29905e-05
4.48996e-05
-4.50085e-07
-4.51314e-07
-4.49766e-07
4.48867e-05
4.29764e-05
-4.48653e-05
4.84661e-07
4.85384e-07
4.72638e-07
4.75246e-07
4.29556e-05
-4.48644e-05
7.03533e-07
-7.09694e-07
6.93852e-07
-7.10595e-07
-7.08025e-07
6.92603e-07
-7.08142e-07
-4.29917e-05
4.48981e-05
-4.507e-07
-4.52226e-07
-4.50681e-07
4.48856e-05
4.29582e-05
-4.48658e-05
4.74282e-07
4.82583e-07
4.69363e-07
4.83642e-07
4.29536e-05
-4.48662e-05
6.95465e-07
-7.11238e-07
6.92924e-07
-7.11567e-07
-7.08879e-07
6.90506e-07
-7.08008e-07
-4.29925e-05
4.48974e-05
-4.51798e-07
-4.52112e-07
-4.5294e-07
4.48854e-05
4.29588e-05
-4.48666e-05
4.72534e-07
4.88577e-07
4.67543e-07
4.86474e-07
4.29516e-05
-4.48683e-05
6.95748e-07
-7.12005e-07
6.93295e-07
-7.11921e-07
-7.08092e-07
6.89037e-07
-7.06577e-07
-4.29932e-05
4.48974e-05
-4.54159e-07
-4.51338e-07
-4.53739e-07
4.48866e-05
4.29616e-05
-4.4865e-05
4.72602e-07
4.85684e-07
4.70964e-07
4.80641e-07
4.29505e-05
-4.48637e-05
6.98087e-07
-7.12056e-07
6.95963e-07
-7.11411e-07
-7.06785e-07
6.93334e-07
-7.05519e-07
-4.29932e-05
4.48979e-05
-4.5387e-07
-4.51094e-07
-4.50716e-07
4.4888e-05
4.29653e-05
-4.4866e-05
4.75516e-07
4.81787e-07
4.72052e-07
4.90636e-07
4.29578e-05
-4.48479e-05
6.96187e-07
-7.11463e-07
6.94935e-07
-7.10508e-07
-7.05742e-07
7.01864e-07
-7.04564e-07
-4.29928e-05
4.48989e-05
-4.50584e-07
-4.50678e-07
-4.48722e-07
4.48887e-05
4.29636e-05
-4.48662e-05
4.75742e-07
4.84259e-07
4.68903e-07
4.76789e-07
4.29693e-05
-4.48687e-05
6.95442e-07
-7.10618e-07
6.94021e-07
-7.10057e-07
-7.05213e-07
6.93155e-07
-7.05497e-07
-4.29919e-05
4.48993e-05
-4.49377e-07
-4.50464e-07
-4.48396e-07
4.48881e-05
4.29625e-05
-4.48638e-05
4.75526e-07
4.77237e-07
4.70967e-07
4.75954e-07
4.29521e-05
-4.48675e-05
6.94853e-07
-7.10369e-07
6.95827e-07
-7.0981e-07
-7.06305e-07
6.94598e-07
-7.06072e-07
-4.29914e-05
4.48994e-05
-4.49361e-07
-4.5099e-07
-4.49213e-07
4.48877e-05
4.29638e-05
-4.48519e-05
4.77003e-07
4.789e-07
4.81136e-07
4.88174e-07
4.29552e-05
-4.48499e-05
6.9749e-07
-7.09784e-07
7.02854e-07
-7.0776e-07
-7.06301e-07
7.04697e-07
-7.03931e-07
-4.29917e-05
4.49011e-05
-4.49886e-07
-4.49629e-07
-4.48442e-07
4.48893e-05
4.298e-05
-4.48522e-05
4.91946e-07
4.94024e-07
4.77115e-07
4.83947e-07
4.29739e-05
-4.48611e-05
7.07054e-07
-7.07634e-07
7.0275e-07
-7.08087e-07
-7.04064e-07
6.94472e-07
-7.04859e-07
-4.29904e-05
4.49001e-05
-4.50471e-07
-4.49253e-07
-4.5678e-07
4.48882e-05
4.29716e-05
-4.48553e-05
4.7674e-07
4.74165e-07
4.87456e-07
4.84897e-07
4.29467e-05
-4.48636e-05
6.9975e-07
-7.09093e-07
6.94336e-07
-7.09972e-07
-7.06393e-07
6.94976e-07
-7.07514e-07
-4.29913e-05
4.48985e-05
-4.58895e-07
-4.51081e-07
-4.526e-07
4.48861e-05
4.29663e-05
-4.48582e-05
4.84561e-07
4.78011e-07
4.73579e-07
4.77581e-07
4.29544e-05
-4.48655e-05
6.95014e-07
-7.10326e-07
6.9379e-07
-7.1099e-07
-7.0787e-07
6.9096e-07
-7.07109e-07
-4.29921e-05
4.48977e-05
-4.52491e-07
-4.52002e-07
-4.52048e-07
4.48862e-05
4.29594e-05
-4.48606e-05
4.71114e-07
4.77697e-07
4.72718e-07
4.77212e-07
4.29549e-05
-4.48664e-05
6.93391e-07
-7.11501e-07
6.92008e-07
-7.10918e-07
-7.07951e-07
6.90617e-07
-7.0758e-07
-4.29928e-05
4.48981e-05
-4.52062e-07
-4.51781e-07
-4.5069e-07
4.48863e-05
4.29581e-05
-4.48615e-05
4.69869e-07
4.7719e-07
4.72496e-07
4.77332e-07
4.29531e-05
-4.48659e-05
6.91922e-07
-7.11048e-07
6.90505e-07
-7.10397e-07
-7.07998e-07
6.90284e-07
-7.07114e-07
-4.29922e-05
4.48985e-05
-4.5065e-07
-4.51344e-07
-4.4875e-07
4.48869e-05
4.29576e-05
-4.48621e-05
4.69859e-07
4.76846e-07
4.72076e-07
4.77091e-07
4.29532e-05
-4.48661e-05
6.91111e-07
-7.10852e-07
6.89536e-07
-7.10595e-07
-7.07808e-07
6.89917e-07
-7.0725e-07
-4.29918e-05
4.48984e-05
-4.50743e-07
-4.51568e-07
-4.5086e-07
4.48865e-05
4.29568e-05
-4.48618e-05
4.69215e-07
4.76625e-07
4.7265e-07
4.778e-07
4.29531e-05
-4.48654e-05
6.89971e-07
-7.10807e-07
6.8947e-07
-7.11063e-07
-7.0766e-07
6.90239e-07
-7.07658e-07
-4.29919e-05
4.48977e-05
-4.51662e-07
-4.52369e-07
-4.51966e-07
4.4886e-05
4.29576e-05
-4.48613e-05
4.70274e-07
4.77504e-07
4.73058e-07
4.78327e-07
4.2954e-05
-4.48647e-05
6.90393e-07
-7.11428e-07
6.89887e-07
-7.11186e-07
-7.0838e-07
6.90995e-07
-7.07719e-07
-4.29927e-05
4.48976e-05
-4.5306e-07
-4.52376e-07
-4.52436e-07
4.48857e-05
4.29582e-05
-4.48592e-05
4.70774e-07
4.77978e-07
4.74986e-07
4.7938e-07
4.29547e-05
-4.48642e-05
6.9085e-07
-7.11385e-07
6.91007e-07
-7.11368e-07
-7.08232e-07
6.91053e-07
-7.08393e-07
-4.29928e-05
4.48972e-05
-4.53191e-07
-4.53409e-07
-4.53618e-07
4.48849e-05
4.29602e-05
-4.48591e-05
4.72544e-07
4.79169e-07
4.75104e-07
4.79221e-07
4.29553e-05
-4.48643e-05
6.91942e-07
-7.11785e-07
6.91097e-07
-7.10838e-07
-7.09062e-07
6.91395e-07
-7.08244e-07
-4.29933e-05
4.48977e-05
-4.54535e-07
-4.52997e-07
-4.53591e-07
4.48849e-05
4.29601e-05
-4.48602e-05
4.72303e-07
4.78684e-07
4.74265e-07
4.78944e-07
4.29549e-05
-4.48645e-05
6.91747e-07
-7.1102e-07
6.90477e-07
-7.11389e-07
-7.08737e-07
6.90907e-07
-7.07822e-07
-4.29925e-05
4.48971e-05
-4.54143e-07
-4.53064e-07
-4.5303e-07
4.48855e-05
4.2959e-05
-4.48596e-05
4.71528e-07
4.7845e-07
4.74455e-07
4.7823e-07
4.29547e-05
-4.48645e-05
6.91033e-07
-7.11415e-07
6.90633e-07
-7.10648e-07
-7.08049e-07
6.89812e-07
-7.07842e-07
-4.29932e-05
4.48982e-05
-4.53355e-07
-4.52401e-07
-4.52958e-07
4.48856e-05
4.29597e-05
-4.48614e-05
4.71732e-07
4.78402e-07
4.72756e-07
4.77664e-07
4.29538e-05
-4.48659e-05
6.9141e-07
-7.10855e-07
6.89465e-07
-7.10091e-07
-7.08386e-07
6.89378e-07
-7.07043e-07
-4.29921e-05
4.48987e-05
-4.53459e-07
-4.51644e-07
-4.52076e-07
4.48864e-05
4.29577e-05
-4.48599e-05
4.70066e-07
4.77255e-07
4.73823e-07
4.78538e-07
4.29516e-05
-4.48645e-05
6.90138e-07
-7.10271e-07
6.90443e-07
-7.10421e-07
-7.07608e-07
6.90353e-07
-7.07065e-07
-4.29915e-05
4.48984e-05
-4.52512e-07
-4.52078e-07
-4.5229e-07
4.48863e-05
4.29594e-05
-4.48602e-05
4.71289e-07
4.78347e-07
4.73811e-07
4.78684e-07
4.29518e-05
-4.4865e-05
6.91338e-07
-7.10727e-07
6.90212e-07
-7.10127e-07
-7.07575e-07
6.90159e-07
-7.07215e-07
-4.2992e-05
4.48985e-05
-4.52505e-07
-4.52033e-07
-4.52549e-07
4.48861e-05
4.29591e-05
-4.48598e-05
4.71113e-07
4.78318e-07
4.74499e-07
4.79797e-07
4.29512e-05
-4.48641e-05
6.90934e-07
-7.10548e-07
6.90789e-07
-7.11179e-07
-7.0799e-07
6.90341e-07
-7.07998e-07
-4.29918e-05
4.48974e-05
-4.52784e-07
-4.53157e-07
-4.53485e-07
4.48852e-05
4.29597e-05
-4.486e-05
4.71968e-07
4.79466e-07
4.74619e-07
4.7987e-07
4.29521e-05
-4.48642e-05
6.9165e-07
-7.11552e-07
6.90665e-07
-7.11036e-07
-7.08727e-07
6.90948e-07
-7.0815e-07
-4.2993e-05
4.48975e-05
-4.53761e-07
-4.5322e-07
-4.5376e-07
4.4885e-05
4.29598e-05
-4.48598e-05
4.7225e-07
4.79754e-07
4.74902e-07
4.80371e-07
4.2952e-05
-4.48636e-05
6.91641e-07
-7.11441e-07
6.90997e-07
-7.11282e-07
-7.08689e-07
6.90555e-07
-7.08256e-07
-4.29928e-05
4.48971e-05
-4.53858e-07
-4.53567e-07
-4.53958e-07
4.48849e-05
4.29604e-05
-4.48608e-05
4.72542e-07
4.79884e-07
4.74181e-07
4.80115e-07
4.29522e-05
-4.48641e-05
6.91788e-07
-7.11627e-07
6.90695e-07
-7.11023e-07
-7.08884e-07
6.90997e-07
-7.08054e-07
-4.29931e-05
4.48975e-05
-4.5412e-07
-4.53088e-07
-4.53606e-07
4.48852e-05
4.296e-05
-4.48615e-05
4.71836e-07
4.79395e-07
4.73182e-07
4.78894e-07
4.29518e-05
-4.48649e-05
6.91107e-07
-7.10928e-07
6.9025e-07
-7.10365e-07
-7.08172e-07
6.89704e-07
-7.07587e-07
-4.29926e-05
4.48982e-05
-4.53146e-07
-4.52292e-07
-4.53015e-07
4.48857e-05
4.29606e-05
-4.48633e-05
4.71572e-07
4.78842e-07
4.72595e-07
4.80317e-07
4.29512e-05
-4.4864e-05
6.90713e-07
-7.10643e-07
6.89661e-07
-7.11433e-07
-7.08325e-07
6.91209e-07
-7.08467e-07
-4.2992e-05
4.4897e-05
-4.53397e-07
-4.52987e-07
-4.56243e-07
4.4884e-05
4.29586e-05
-4.48701e-05
4.71321e-07
4.81344e-07
4.7268e-07
4.83359e-07
4.29529e-05
-4.48613e-05
6.89303e-07
-7.1153e-07
6.91299e-07
-7.09978e-07
-7.09292e-07
6.86307e-07
-7.07694e-07
-4.29933e-05
4.48989e-05
-4.58099e-07
-4.51833e-07
-4.56617e-07
4.48857e-05
4.29605e-05
-4.48689e-05
4.81322e-07
4.77729e-07
4.67346e-07
4.90651e-07
4.29515e-05
-4.48543e-05
6.93565e-07
-7.09675e-07
6.88724e-07
-7.09624e-07
-7.07253e-07
6.98515e-07
-7.05752e-07
-4.29915e-05
4.48993e-05
-4.53523e-07
-4.51575e-07
-4.51981e-07
4.48877e-05
4.29627e-05
-4.48628e-05
4.75912e-07
4.93354e-07
4.70851e-07
4.78505e-07
4.29668e-05
-4.48653e-05
6.92313e-07
-7.10511e-07
6.92963e-07
-7.10583e-07
-7.0629e-07
6.9222e-07
-7.06067e-07
-4.29916e-05
4.48985e-05
-4.52202e-07
-4.51714e-07
-4.52211e-07
4.4887e-05
4.29658e-05
-4.48615e-05
4.75346e-07
4.78974e-07
4.70799e-07
4.78819e-07
4.29505e-05
-4.48656e-05
6.93246e-07
-7.10892e-07
6.93326e-07
-7.11541e-07
-7.07089e-07
6.92897e-07
-7.07926e-07
-4.29921e-05
4.48976e-05
-4.52068e-07
-4.52795e-07
-4.53955e-07
4.48855e-05
4.29673e-05
-4.48619e-05
4.77043e-07
4.78797e-07
4.70484e-07
4.78096e-07
4.29509e-05
-4.48661e-05
6.94786e-07
-7.12083e-07
6.9332e-07
-7.11375e-07
-7.08569e-07
6.92589e-07
-7.07824e-07
-4.29929e-05
4.48977e-05
-4.53417e-07
-4.52894e-07
-4.53869e-07
4.48856e-05
4.29662e-05
-4.48633e-05
4.75454e-07
4.78413e-07
4.69409e-07
4.77321e-07
4.29505e-05
-4.48666e-05
6.93929e-07
-7.11713e-07
6.92751e-07
-7.11347e-07
-7.08369e-07
6.9201e-07
-7.08031e-07
-4.29926e-05
4.48978e-05
-4.52704e-07
-4.52818e-07
-4.54197e-07
4.48854e-05
4.29648e-05
-4.4865e-05
4.74367e-07
4.77847e-07
4.67958e-07
4.76383e-07
4.29499e-05
-4.48674e-05
6.93342e-07
-7.11751e-07
6.92017e-07
-7.10747e-07
-7.08668e-07
6.92011e-07
-7.07573e-07
-4.29926e-05
4.48984e-05
-4.52888e-07
-4.5206e-07
-4.53704e-07
4.48859e-05
4.29632e-05
-4.48654e-05
4.72952e-07
4.766e-07
4.67451e-07
4.75619e-07
4.29489e-05
-4.4868e-05
6.92696e-07
-7.10931e-07
6.91636e-07
-7.10624e-07
-7.07821e-07
6.90855e-07
-7.0692e-07
-4.29918e-05
4.48986e-05
-4.51745e-07
-4.51308e-07
-4.52531e-07
4.48867e-05
4.29628e-05
-4.48656e-05
4.72681e-07
4.76184e-07
4.6758e-07
4.75723e-07
4.29486e-05
-4.48677e-05
6.92417e-07
-7.11087e-07
6.91616e-07
-7.1098e-07
-7.07506e-07
6.91821e-07
-7.07019e-07
-4.29918e-05
4.48983e-05
-4.51193e-07
-4.51662e-07
-4.52586e-07
4.48865e-05
4.29627e-05
-4.48653e-05
4.72792e-07
4.76229e-07
4.67627e-07
4.75769e-07
4.29488e-05
-4.48675e-05
6.92393e-07
-7.11261e-07
6.91696e-07
-7.10905e-07
-7.07559e-07
6.91379e-07
-7.06955e-07
-4.2992e-05
4.48983e-05
-4.51464e-07
-4.5162e-07
-4.52222e-07
4.48866e-05
4.29631e-05
-4.48642e-05
4.73075e-07
4.76561e-07
4.69005e-07
4.76976e-07
4.29491e-05
-4.48666e-05
6.92726e-07
-7.11363e-07
6.92711e-07
-7.11454e-07
-7.07611e-07
6.92291e-07
-7.07649e-07
-4.29921e-05
4.48977e-05
-4.51519e-07
-4.52582e-07
-4.53266e-07
4.48856e-05
4.29641e-05
-4.48641e-05
4.74405e-07
4.77647e-07
4.69024e-07
4.76995e-07
4.29499e-05
-4.48666e-05
6.93549e-07
-7.1193e-07
6.92639e-07
-7.1142e-07
-7.08242e-07
6.92065e-07
-7.07498e-07
-4.29927e-05
4.48976e-05
-4.53157e-07
-4.52435e-07
-4.52617e-07
4.4886e-05
4.2964e-05
-4.48641e-05
4.73991e-07
4.77329e-07
4.6891e-07
4.76769e-07
4.29496e-05
-4.48665e-05
6.93217e-07
-7.11664e-07
6.92726e-07
-7.11607e-07
-7.07907e-07
6.92388e-07
-7.08111e-07
-4.29925e-05
4.48975e-05
-4.52344e-07
-4.52594e-07
-4.53944e-07
4.48851e-05
4.29641e-05
-4.48654e-05
4.74153e-07
4.77499e-07
4.67685e-07
4.75385e-07
4.29497e-05
-4.48685e-05
6.93471e-07
-7.12267e-07
6.91443e-07
-7.12142e-07
-7.09118e-07
6.90187e-07
-7.0925e-07
-4.29928e-05
4.48969e-05
-4.5466e-07
-4.53111e-07
-4.54783e-07
4.48838e-05
4.29621e-05
-4.48668e-05
4.72158e-07
4.73844e-07
4.65198e-07
4.61545e-07
4.29458e-05
-4.48865e-05
6.9167e-07
-7.1236e-07
6.90048e-07
-7.11939e-07
-7.09847e-07
6.80078e-07
-7.09671e-07
-4.29929e-05
4.48975e-05
-4.54727e-07
-4.51993e-07
-4.53966e-07
4.48842e-05
4.29611e-05
-4.48658e-05
4.70419e-07
4.64397e-07
4.66615e-07
4.75089e-07
4.29277e-05
-4.48691e-05
6.9085e-07
-7.12288e-07
6.90891e-07
-7.11518e-07
-7.09971e-07
6.90621e-07
-7.08237e-07
-4.29925e-05
4.48979e-05
-4.54304e-07
-4.51243e-07
-4.54356e-07
4.48854e-05
4.29627e-05
-4.48656e-05
4.71687e-07
4.75195e-07
4.65895e-07
4.78174e-07
4.29471e-05
-4.48688e-05
6.91877e-07
-7.11748e-07
6.91576e-07
-7.11482e-07
-7.08174e-07
6.89497e-07
-7.0553e-07
-4.29923e-05
4.48981e-05
-4.5647e-07
-4.49073e-07
-4.61977e-07
4.48879e-05
4.29629e-05
-4.48642e-05
4.71337e-07
4.78188e-07
4.66522e-07
4.7927e-07
4.29475e-05
-4.48689e-05
6.92558e-07
-7.11937e-07
6.92754e-07
-7.12405e-07
-7.05513e-07
6.89451e-07
-7.04434e-07
-4.29924e-05
4.4897e-05
-4.64222e-07
-4.48951e-07
-4.63568e-07
4.48884e-05
4.29643e-05
-4.4864e-05
4.71892e-07
4.80387e-07
4.66693e-07
4.80086e-07
4.29477e-05
-4.48689e-05
6.9374e-07
-7.1289e-07
6.9328e-07
-7.12735e-07
-7.04952e-07
6.89218e-07
-7.04192e-07
-4.29935e-05
4.48968e-05
-4.65234e-07
-4.48941e-07
-4.64215e-07
4.48883e-05
4.29645e-05
-4.48635e-05
4.71876e-07
4.80602e-07
4.67013e-07
4.80903e-07
4.29475e-05
-4.48681e-05
6.94072e-07
-7.13053e-07
6.93585e-07
-7.12997e-07
-7.04753e-07
6.89917e-07
-7.04385e-07
-4.29937e-05
4.48964e-05
-4.6572e-07
-4.49379e-07
-4.65024e-07
4.48879e-05
4.2965e-05
-4.48636e-05
4.72397e-07
4.81821e-07
4.66779e-07
4.81433e-07
4.29485e-05
-4.4868e-05
6.94544e-07
-7.13492e-07
6.93549e-07
-7.13523e-07
-7.04909e-07
6.89865e-07
-7.04146e-07
-4.29941e-05
4.4896e-05
-4.66561e-07
-4.4948e-07
-4.65003e-07
4.48882e-05
4.29647e-05
-4.48635e-05
4.71791e-07
4.81731e-07
4.66552e-07
4.80739e-07
4.29483e-05
-4.48689e-05
6.94167e-07
-7.13758e-07
6.93709e-07
-7.12661e-07
-7.04484e-07
6.89019e-07
-7.03359e-07
-4.29944e-05
4.48969e-05
-4.66135e-07
-4.48373e-07
-4.64033e-07
4.48889e-05
4.2965e-05
-4.48641e-05
4.71746e-07
4.81261e-07
4.66133e-07
4.80625e-07
4.29475e-05
-4.48689e-05
6.94586e-07
-7.1294e-07
6.93352e-07
-7.1246e-07
-7.03898e-07
6.88984e-07
-7.03378e-07
-4.29934e-05
4.48972e-05
-4.65504e-07
-4.48173e-07
-4.63994e-07
4.4889e-05
4.29641e-05
-4.48652e-05
4.7106e-07
4.80826e-07
4.64764e-07
4.79281e-07
4.29473e-05
-4.48699e-05
6.93931e-07
-7.12606e-07
6.92372e-07
-7.11783e-07
-7.03668e-07
6.88242e-07
-7.02312e-07
-4.29931e-05
4.48981e-05
-4.64998e-07
-4.46931e-07
-4.62622e-07
4.48901e-05
4.29632e-05
-4.48642e-05
4.70131e-07
4.79961e-07
4.65882e-07
4.80389e-07
4.29466e-05
-4.4869e-05
6.93312e-07
-7.12251e-07
6.93104e-07
-7.12355e-07
-7.02887e-07
6.88916e-07
-7.02882e-07
-4.29924e-05
4.48972e-05
-4.64043e-07
-4.47827e-07
-4.63427e-07
4.48896e-05
4.29643e-05
-4.48643e-05
4.71252e-07
4.8105e-07
4.65817e-07
4.80241e-07
4.29475e-05
-4.48693e-05
6.94366e-07
-7.12798e-07
6.92989e-07
-7.12322e-07
-7.03656e-07
6.88626e-07
-7.03052e-07
-4.29933e-05
4.48974e-05
-4.65145e-07
-4.47768e-07
-4.63699e-07
4.48893e-05
4.29641e-05
-4.48635e-05
4.7112e-07
4.80792e-07
4.66622e-07
4.81065e-07
4.2947e-05
-4.48683e-05
6.94106e-07
-7.12635e-07
6.93449e-07
-7.13192e-07
-7.03494e-07
6.89319e-07
-7.03512e-07
-4.2993e-05
4.48962e-05
-4.6498e-07
-4.48996e-07
-4.64755e-07
4.48886e-05
4.2965e-05
-4.48629e-05
4.72114e-07
4.81908e-07
4.67055e-07
4.81663e-07
4.29481e-05
-4.48677e-05
6.94743e-07
-7.13748e-07
6.93753e-07
-7.12995e-07
-7.04191e-07
6.90055e-07
-7.03674e-07
-4.29944e-05
4.48964e-05
-4.66369e-07
-4.49183e-07
-4.65202e-07
4.48885e-05
4.29653e-05
-4.48619e-05
4.72475e-07
4.82319e-07
4.67603e-07
4.82075e-07
4.29484e-05
-4.48671e-05
6.95092e-07
-7.13123e-07
6.94683e-07
-7.10663e-07
-7.03936e-07
6.90188e-07
-7.01592e-07
-4.29937e-05
4.48987e-05
-4.65842e-07
-4.4678e-07
-4.63237e-07
4.48904e-05
4.29658e-05
-4.48612e-05
4.72913e-07
4.82771e-07
4.68158e-07
4.82572e-07
4.29486e-05
-4.48666e-05
6.9605e-07
-7.0983e-07
6.95986e-07
-7.05668e-07
-7.01123e-07
6.91971e-07
-6.96958e-07
-4.29899e-05
4.49058e-05
-4.62118e-07
-4.34915e-07
-4.54387e-07
4.48964e-05
4.29663e-05
-4.48628e-05
4.73212e-07
4.82916e-07
4.66608e-07
4.81618e-07
4.29488e-05
-4.48673e-05
6.97115e-07
-7.05487e-07
6.94598e-07
-7.07643e-07
-6.96477e-07
6.90788e-07
-6.97147e-07
-4.2983e-05
4.4902e-05
-4.51982e-07
-4.42409e-07
-4.57525e-07
4.48957e-05
4.29649e-05
-4.48638e-05
4.71676e-07
4.81835e-07
4.65991e-07
4.80781e-07
4.29484e-05
-4.48685e-05
6.9533e-07
-7.0909e-07
6.93165e-07
-7.11041e-07
-6.99179e-07
6.899e-07
-7.01464e-07
-4.29889e-05
4.48982e-05
-4.60192e-07
-4.47588e-07
-4.64972e-07
4.48906e-05
4.29643e-05
-4.48644e-05
4.71019e-07
4.81013e-07
4.65364e-07
4.79848e-07
4.29476e-05
-4.48696e-05
6.94065e-07
-7.11869e-07
6.92626e-07
-7.11804e-07
-7.02396e-07
6.88075e-07
-7.02229e-07
-4.29922e-05
4.48977e-05
-4.61717e-07
-4.46504e-07
-4.63395e-07
4.48899e-05
4.29639e-05
-4.48638e-05
4.70736e-07
4.80425e-07
4.66072e-07
4.80603e-07
4.29467e-05
-4.48686e-05
6.93856e-07
-7.12265e-07
6.93017e-07
-7.12671e-07
-7.02875e-07
6.89388e-07
-7.03205e-07
-4.29924e-05
4.48967e-05
-4.64315e-07
-4.48219e-07
-4.64349e-07
4.48888e-05
4.29645e-05
-4.48635e-05
4.71699e-07
4.81293e-07
4.66465e-07
4.80872e-07
4.29477e-05
-4.48685e-05
6.94351e-07
-7.13179e-07
6.93156e-07
-7.12654e-07
-7.03814e-07
6.88914e-07
-7.03465e-07
-4.29935e-05
4.48967e-05
-4.659e-07
-4.48375e-07
-4.64945e-07
4.48885e-05
4.29646e-05
-4.48632e-05
4.71698e-07
4.81482e-07
4.66835e-07
4.81296e-07
4.29477e-05
-4.48682e-05
6.94256e-07
-7.13e-07
6.93425e-07
-7.13517e-07
-7.04174e-07
6.89302e-07
-7.03661e-07
-4.29935e-05
4.48958e-05
-4.66626e-07
-4.4914e-07
-4.65463e-07
4.48881e-05
4.29651e-05
-4.4863e-05
4.7225e-07
4.8193e-07
4.67022e-07
4.81933e-07
4.2948e-05
-4.48675e-05
6.94658e-07
-7.14067e-07
6.93515e-07
-7.1341e-07
-7.04217e-07
6.89849e-07
-7.0365e-07
-4.29945e-05
4.48959e-05
-4.66877e-07
-4.49251e-07
-4.65625e-07
4.4888e-05
4.29651e-05
-4.48638e-05
4.72231e-07
4.82297e-07
4.66109e-07
4.80483e-07
4.29486e-05
-4.4869e-05
6.94634e-07
-7.1344e-07
6.93028e-07
-7.12205e-07
-7.04118e-07
6.89078e-07
-7.02978e-07
-4.29941e-05
4.48974e-05
-4.66973e-07
-4.47695e-07
-4.64457e-07
4.48889e-05
4.29642e-05
-4.48639e-05
4.71226e-07
4.80835e-07
4.66022e-07
4.80311e-07
4.2947e-05
-4.48692e-05
6.94082e-07
-7.12481e-07
6.92947e-07
-7.12282e-07
-7.03364e-07
6.8868e-07
-7.02747e-07
-4.29926e-05
4.48972e-05
-4.65486e-07
-4.47855e-07
-4.64252e-07
4.48891e-05
4.29642e-05
-4.48644e-05
4.71128e-07
4.80709e-07
4.65414e-07
4.80139e-07
4.29469e-05
-4.48689e-05
6.93904e-07
-7.1263e-07
6.92563e-07
-7.12014e-07
-7.03313e-07
6.88815e-07
-7.02183e-07
-4.2993e-05
4.48976e-05
-4.65679e-07
-4.47065e-07
-4.63465e-07
4.48897e-05
4.29638e-05
-4.48644e-05
4.7068e-07
4.80629e-07
4.65548e-07
4.79995e-07
4.29472e-05
-4.48692e-05
6.93725e-07
-7.12362e-07
6.9247e-07
-7.12211e-07
-7.02758e-07
6.88716e-07
-7.02511e-07
-4.29925e-05
4.48973e-05
-4.64868e-07
-4.47792e-07
-4.64121e-07
4.48893e-05
4.29638e-05
-4.48635e-05
4.70922e-07
4.80609e-07
4.66058e-07
4.80537e-07
4.29469e-05
-4.48687e-05
6.93669e-07
-7.12692e-07
6.93109e-07
-7.12321e-07
-7.03197e-07
6.88639e-07
-7.0294e-07
-4.29928e-05
4.4897e-05
-4.65683e-07
-4.47909e-07
-4.64384e-07
4.48889e-05
4.29646e-05
-4.48632e-05
4.7138e-07
4.81241e-07
4.66829e-07
4.81292e-07
4.29476e-05
-4.48682e-05
6.94259e-07
-7.12927e-07
6.93552e-07
-7.12917e-07
-7.03688e-07
6.89505e-07
-7.03542e-07
-4.29932e-05
4.48964e-05
-4.66129e-07
-4.48758e-07
-4.65443e-07
4.48882e-05
4.2965e-05
-4.48634e-05
4.7224e-07
4.81929e-07
4.66879e-07
4.81261e-07
4.29479e-05
-4.48681e-05
6.94735e-07
-7.13704e-07
6.93297e-07
-7.12761e-07
-7.04173e-07
6.89363e-07
-7.03556e-07
-4.29938e-05
4.48962e-05
-4.67054e-07
-4.49043e-07
-4.6561e-07
4.48881e-05
4.29646e-05
-4.48636e-05
4.72113e-07
4.81842e-07
4.66753e-07
4.81385e-07
4.29479e-05
-4.4868e-05
6.94355e-07
-7.13966e-07
6.93221e-07
-7.12527e-07
-7.04163e-07
6.89679e-07
-7.03894e-07
-4.29939e-05
4.48961e-05
-4.67071e-07
-4.49129e-07
-4.65876e-07
4.48879e-05
4.29645e-05
-4.4864e-05
4.71979e-07
4.81759e-07
4.66329e-07
4.80735e-07
4.2948e-05
-4.48688e-05
6.94288e-07
-7.14433e-07
6.92887e-07
-7.11097e-07
-7.04254e-07
6.88616e-07
-7.03271e-07
-4.29938e-05
4.48964e-05
-4.67113e-07
-4.48566e-07
-4.65136e-07
4.48886e-05
4.2964e-05
-4.48644e-05
4.71302e-07
4.80938e-07
4.66155e-07
4.80575e-07
4.29473e-05
-4.48691e-05
6.93709e-07
-7.14888e-07
6.92994e-07
-7.1033e-07
-7.03699e-07
6.8916e-07
-7.03185e-07
-4.29925e-05
4.48955e-05
-4.66432e-07
-4.48245e-07
-4.64778e-07
4.48891e-05
4.29636e-05
-4.48625e-05
4.70049e-07
4.79688e-07
4.69779e-07
4.83964e-07
4.29468e-05
-4.48674e-05
6.92738e-07
-7.13986e-07
6.96127e-07
-7.14045e-07
-7.02293e-07
6.92036e-07
-7.06614e-07
-4.29918e-05
4.48937e-05
-4.64737e-07
-4.5222e-07
-4.68719e-07
4.48872e-05
4.29609e-05
-4.48416e-05
4.64658e-07
4.74012e-07
4.75926e-07
4.90533e-07
4.2944e-05
-4.48459e-05
6.87844e-07
-7.09232e-07
7.0216e-07
-7.20538e-07
-6.97551e-07
6.98372e-07
-7.12892e-07
-4.2989e-05
4.48728e-05
-4.59458e-07
-4.58425e-07
-4.75003e-07
4.48663e-05
4.29228e-05
-4.46776e-05
4.6494e-07
4.73572e-07
4.26495e-07
4.41857e-07
4.29059e-05
-4.46827e-05
6.79667e-07
-7.00115e-07
6.74506e-07
-6.93841e-07
-6.89653e-07
6.70418e-07
-6.85342e-07
-4.29507e-05
4.47075e-05
-4.59226e-07
-4.10255e-07
-4.25783e-07
4.47017e-05
4.26398e-05
-4.41989e-05
5.4796e-07
5.55331e-07
1.84603e-07
1.99538e-07
4.26231e-05
-4.42034e-05
7.04187e-07
-7.23227e-07
5.45739e-07
-5.65551e-07
-7.13672e-07
5.42138e-07
-5.57964e-07
-4.26673e-05
4.4229e-05
-5.42013e-07
-1.68264e-07
-1.81756e-07
4.42226e-05
4.24391e-05
-4.33634e-05
8.98929e-07
9.05442e-07
-5.75735e-07
-5.65353e-07
4.24199e-05
-4.33678e-05
9.9391e-07
-1.01205e-06
-4.17657e-08
2.30133e-08
-1.00156e-06
-4.30794e-08
2.78594e-08
-4.24645e-05
4.33972e-05
-8.91256e-07
5.9472e-07
5.90116e-07
4.33869e-05
4.09624e-05
-4.19023e-05
1.83617e-06
1.85001e-06
-1.7812e-06
-1.76905e-06
4.09441e-05
-4.19052e-05
1.58233e-06
-1.5986e-06
-1.12893e-06
1.11694e-06
-1.58818e-06
-1.12211e-06
1.11431e-06
-4.09854e-05
4.19318e-05
-1.82527e-06
1.80608e-06
1.80369e-06
4.19309e-05
3.86937e-05
-3.53285e-05
3.35577e-06
3.37663e-06
-6.6998e-06
-6.69177e-06
3.86865e-05
-3.53391e-05
2.8518e-06
-2.86106e-06
-4.97678e-06
4.98307e-06
-2.85274e-06
-4.96171e-06
4.98657e-06
-3.87123e-05
3.53596e-05