/*--------------------------------*- C++ -*----------------------------------*\
| =========                 |                                                 |
| \\      /  F ield         | OpenFOAM: The Open Source CFD Toolbox           |
|  \\    /   O peration     | Version:  2206                                  |
|   \\  /    A nd           | Website:  www.openfoam.com                      |
|    \\/     M anipulation  |                                                 |
\*---------------------------------------------------------------------------*/
FoamFile
{
    version     2.0;
    format      ascii;
    arch        "LSB;label=32;scalar=64";
    class       volVectorField;
    location    "4";
    object      U;
}
// * * * * * * * * * * * * * * * * * * * * * * * * * * * * * * * * * * * * * //

dimensions      [0 1 -1 0 0 0 0];

internalField   nonuniform List<vector> 
28621
(
(0.000336316 0.000336768 -7.92238e-05)
(-0.000158232 -0.000158169 8.31774e-05)
(-0.00012657 8.20083e-05 2.30692e-05)
(8.18185e-05 -0.000126353 2.31673e-05)
(0.000335969 0.000336346 -7.85588e-05)
(-0.000263589 -0.000264352 -7.83978e-05)
(-0.000336138 -0.00033583 -7.99474e-05)
(8.20191e-05 0.000126808 2.52483e-05)
(-8.17501e-05 0.000127034 2.55601e-05)
(0.000335868 -0.000335905 -7.99085e-05)
(0.000126447 8.17465e-05 2.33345e-05)
(0.000126676 -8.14709e-05 2.55814e-05)
(-0.000126164 -8.12026e-05 2.55912e-05)
(-0.000335856 0.000335962 -7.96387e-05)
(-8.1014e-05 -0.000126152 2.34692e-05)
(-0.000309459 -2.39101e-06 1.16918e-05)
(-2.04551e-06 -0.000310061 1.1745e-05)
(-0.000263429 -0.000264242 -7.90253e-05)
(0.000107962 -4.00116e-05 1.25624e-05)
(-4.00575e-05 0.000108441 1.25303e-05)
(-5.189e-06 0.000176313 6.51777e-06)
(-7.90725e-05 -0.000659026 1.5443e-05)
(-6.79595e-05 0.000631631 1.73604e-05)
(1.2415e-06 -0.00023748 5.62312e-06)
(0.00014208 -8.95323e-05 1.44258e-05)
(-3.30809e-05 0.000107511 1.54142e-05)
(0.000176591 -5.64504e-06 6.08835e-06)
(-0.000659276 -7.9367e-05 1.56295e-05)
(0.000631736 -6.73405e-05 1.75544e-05)
(-0.00023752 7.05976e-07 5.11313e-06)
(0.00015812 -0.000157952 8.31689e-05)
(-0.000158188 0.00015827 8.2901e-05)
(0.000158151 0.000158223 8.24012e-05)
(7.68079e-05 2.06872e-05 -9.55065e-06)
(-0.000136672 -0.000141246 5.07066e-06)
(-8.22608e-05 -3.22622e-05 4.48295e-05)
(-0.000126992 8.23299e-05 2.2815e-05)
(7.12802e-05 9.73155e-05 6.05806e-06)
(-8.28025e-05 -3.23399e-05 4.46282e-05)
(-5.52777e-05 -2.82972e-05 -1.02675e-05)
(-8.96514e-05 0.000141898 1.42406e-05)
(0.000107629 -3.29566e-05 1.57389e-05)
(2.15225e-05 7.67163e-05 -9.56033e-06)
(-3.2293e-05 -8.21977e-05 4.47698e-05)
(-0.000140911 -0.000136423 4.76446e-06)
(8.17546e-05 -0.000126648 2.31573e-05)
(-3.22216e-05 -8.27186e-05 4.45671e-05)
(9.75939e-05 7.13762e-05 5.7422e-06)
(-2.76792e-05 -5.50448e-05 -1.01309e-05)
(-0.000310017 -2.80166e-06 1.18678e-05)
(-2.105e-06 -0.000310524 1.18423e-05)
(-0.000263605 -0.000264408 -7.78412e-05)
(0.000108476 -3.94602e-05 1.29652e-05)
(-3.93849e-05 0.000108982 1.31375e-05)
(8.98687e-05 0.000140879 1.52388e-05)
(-0.000107873 -3.24175e-05 1.4992e-05)
(0.000141664 8.97709e-05 1.57112e-05)
(-3.31e-05 -0.000107417 1.49586e-05)
(0.000335918 0.00033631 -7.89769e-05)
(0.000107496 -4.01526e-05 1.24374e-05)
(-4.01224e-05 0.00010804 1.248e-05)
(-0.000309326 -2.3907e-06 1.19779e-05)
(-1.79771e-06 -0.000309966 1.20174e-05)
(-0.000108471 -3.20016e-05 1.42303e-05)
(8.96588e-05 0.000141256 1.46524e-05)
(-3.26094e-05 -0.000108005 1.39135e-05)
(0.000141999 8.9589e-05 1.46703e-05)
(-0.000141297 -8.96206e-05 1.44228e-05)
(3.23237e-05 0.000108161 1.57622e-05)
(-8.96864e-05 -0.000141964 1.4763e-05)
(0.000107808 3.29154e-05 1.5992e-05)
(2.27273e-06 0.000309236 1.17075e-05)
(0.000309879 1.75213e-06 1.15125e-05)
(0.000264508 0.000264036 -8.00166e-05)
(3.99168e-05 -0.0001078 1.27015e-05)
(-0.000108146 3.97462e-05 1.25629e-05)
(5.67036e-06 0.00017636 6.5631e-06)
(7.93436e-05 -0.000659116 1.53691e-05)
(6.72237e-05 0.00063153 1.69089e-05)
(-6.72786e-07 -0.000237527 5.6291e-06)
(2.13371e-05 -7.66295e-05 -1.08272e-05)
(-0.000140573 0.000136353 4.75169e-06)
(-3.25754e-05 8.24338e-05 4.47702e-05)
(8.19781e-05 0.000126901 2.58418e-05)
(9.74788e-05 -7.12026e-05 5.52405e-06)
(-3.23383e-05 8.24454e-05 4.46754e-05)
(-2.72518e-05 5.51536e-05 -1.1214e-05)
(-2.03186e-05 -7.6562e-05 -1.06162e-05)
(0.000141043 0.000136355 4.99582e-06)
(3.24531e-05 8.25793e-05 4.50018e-05)
(-8.19585e-05 0.000127254 2.54124e-05)
(-9.70166e-05 -7.10434e-05 5.62752e-06)
(3.2452e-05 8.26231e-05 4.46777e-05)
(2.80401e-05 5.51513e-05 -1.10496e-05)
(-2.01091e-06 0.000309993 1.18767e-05)
(-0.00030948 1.99403e-06 1.21496e-05)
(-0.000264243 0.000264722 -7.97995e-05)
(-3.96858e-05 -0.000108564 1.2798e-05)
(0.000108193 3.97997e-05 1.31468e-05)
(8.94357e-05 -0.000141421 1.36853e-05)
(-0.000107554 3.26468e-05 1.48005e-05)
(-7.66537e-05 2.04035e-05 -1.10957e-05)
(0.000136424 -0.000141021 4.58247e-06)
(8.23791e-05 -3.23064e-05 4.48164e-05)
(0.000126369 8.16851e-05 2.29866e-05)
(-7.09586e-05 9.68623e-05 5.45552e-06)
(8.22138e-05 -3.26196e-05 4.48418e-05)
(5.52002e-05 -2.79535e-05 -1.14901e-05)
(0.000176632 5.1339e-06 6.17269e-06)
(-0.000659366 7.91942e-05 1.53909e-05)
(0.000631731 6.74404e-05 1.75859e-05)
(-0.000237606 -1.14388e-06 5.16174e-06)
(-7.66052e-05 -2.11497e-05 -1.10692e-05)
(8.2256e-05 3.24112e-05 4.50258e-05)
(0.000136147 0.000140728 4.69934e-06)
(0.000126455 -8.14932e-05 2.54187e-05)
(8.20478e-05 3.24964e-05 4.48691e-05)
(-7.11531e-05 -9.70768e-05 5.64517e-06)
(5.5059e-05 2.73794e-05 -1.145e-05)
(-0.000175973 -5.6337e-06 7.20677e-06)
(0.000658645 -7.88434e-05 1.49814e-05)
(-0.000630965 -6.76735e-05 1.67576e-05)
(0.000237178 5.75558e-07 6.18336e-06)
(7.6675e-05 -2.10306e-05 -9.29575e-06)
(-8.18889e-05 3.25483e-05 4.4821e-05)
(-0.000136637 0.00014038 5.58296e-06)
(-0.000126929 -8.1929e-05 2.50628e-05)
(-8.25039e-05 3.24964e-05 4.43294e-05)
(7.1147e-05 -9.73854e-05 6.75758e-06)
(-5.51857e-05 2.70311e-05 -1.00664e-05)
(-0.00017606 5.30985e-06 7.29233e-06)
(0.000658156 7.89901e-05 1.49203e-05)
(-0.000630905 6.78141e-05 1.59522e-05)
(0.000237199 -1.46207e-06 6.25412e-06)
(0.000309861 -2.05923e-06 1.14739e-05)
(1.9818e-06 -0.00030929 1.1576e-05)
(0.000264577 -0.000263948 -7.95615e-05)
(-0.00010847 -3.98492e-05 1.2679e-05)
(4.00073e-05 0.000108011 1.28686e-05)
(-0.000141328 8.95989e-05 1.40028e-05)
(3.21651e-05 -0.00010815 1.56467e-05)
(-2.01756e-05 7.66408e-05 -9.23076e-06)
(3.23547e-05 -8.21668e-05 4.47619e-05)
(0.000140906 -0.000136609 5.28701e-06)
(-8.17732e-05 -0.000127068 2.30552e-05)
(3.22221e-05 -8.29467e-05 4.41987e-05)
(-9.67446e-05 7.14077e-05 6.50842e-06)
(2.77025e-05 -5.51053e-05 -9.85015e-06)
(-5.11735e-06 -0.000175806 6.97685e-06)
(-7.89281e-05 0.000658769 1.50808e-05)
(-6.79621e-05 -0.000631222 1.7309e-05)
(1.02101e-06 0.000237273 6.05022e-06)
(5.83508e-06 -0.00017578 6.99323e-06)
(7.93064e-05 0.000658338 1.45421e-05)
(6.76306e-05 -0.000630481 1.63356e-05)
(-9.11032e-07 0.000237226 6.16669e-06)
(8.91379e-05 0.000141573 1.35327e-05)
(-0.000107451 -3.26101e-05 1.36726e-05)
(0.000142419 8.90126e-05 1.31646e-05)
(-3.29893e-05 -0.000107092 1.41581e-05)
(2.37884e-06 1.63142e-06 1.32899e-05)
(0.000166999 -0.000290756 1.64509e-05)
(-0.000291095 0.000167275 1.64155e-05)
(-0.000248951 0.000441107 1.5926e-05)
(0.000441391 -0.000248922 1.59816e-05)
(1.79043e-05 1.805e-05 1.4053e-05)
(-0.000209049 0.000100627 6.20184e-06)
(2.78071e-05 -0.000111138 -2.46338e-06)
(2.90358e-05 -8.20405e-05 1.65537e-05)
(0.000107862 -4.00671e-05 1.24281e-05)
(-2.90766e-06 4.88383e-06 1.76954e-05)
(0.000430067 -0.000204889 4.6345e-06)
(-0.000191439 -1.35575e-05 -1.99964e-06)
(0.000101195 -0.000208962 6.05543e-06)
(-0.000110983 2.76879e-05 -2.89794e-06)
(-8.17406e-05 2.95553e-05 1.68026e-05)
(-4.01693e-05 0.000108265 1.2393e-05)
(4.67405e-06 -3.18852e-06 1.7792e-05)
(-0.000204372 0.000429404 4.51511e-06)
(-1.31763e-05 -0.000191543 -2.52651e-06)
(1.78339e-05 1.79525e-05 1.38356e-05)
(-0.000248846 0.000441003 1.63614e-05)
(0.000441282 -0.00024884 1.65383e-05)
(0.000166853 -0.000290772 1.64904e-05)
(-0.000291072 0.000167038 1.65257e-05)
(2.34016e-06 1.66202e-06 1.30408e-05)
(0.000430264 -0.000204813 5.06113e-06)
(-2.70176e-06 5.06558e-06 1.76169e-05)
(-0.000309388 -2.36503e-06 1.18435e-05)
(-0.000191393 -1.3856e-05 -1.60031e-06)
(2.89356e-05 -8.18005e-05 1.63818e-05)
(-0.000209108 0.000100504 6.48042e-06)
(2.79415e-05 -0.000111127 -2.12321e-06)
(-0.000204129 0.000429492 4.95606e-06)
(4.81603e-06 -2.89262e-06 1.76647e-05)
(-1.8805e-06 -0.000309988 1.19042e-05)
(-1.34097e-05 -0.000191518 -2.05911e-06)
(-8.14934e-05 2.94529e-05 1.65125e-05)
(0.000101081 -0.000209023 6.35781e-06)
(-0.000110731 2.76946e-05 -2.4964e-06)
(1.15135e-06 0.000134479 1.73682e-05)
(-4.91243e-06 -0.000134559 1.82104e-05)
(-8.05179e-05 0.000156299 7.42324e-06)
(1.28214e-06 -0.000237458 5.36506e-06)
(-1.33986e-06 0.00014602 1.66407e-05)
(4.84097e-05 -0.000223129 6.03155e-06)
(-5.38073e-05 -0.000123628 1.87362e-05)
(-7.3175e-05 -4.59011e-05 1.49704e-05)
(-6.79482e-05 0.000631345 1.70917e-05)
(9.75438e-06 -0.000259711 1.11408e-05)
(-6.828e-05 0.000214872 1.23106e-05)
(-1.77377e-05 8.80562e-05 1.36639e-05)
(-1.76525e-05 8.80396e-05 1.44258e-05)
(-6.81956e-05 0.000214843 1.23353e-05)
(-7.90184e-05 -0.000659167 1.57562e-05)
(9.76158e-06 -0.000259631 1.10413e-05)
(-7.31497e-05 -4.57149e-05 1.53026e-05)
(-5.36989e-05 -0.000124043 1.82729e-05)
(-5.30439e-06 0.000176182 6.82624e-06)
(-1.26656e-06 0.00014636 1.57417e-05)
(4.84279e-05 -0.000223287 6.32898e-06)
(-4.7747e-06 -0.000134993 1.7521e-05)
(-8.05355e-05 0.000156183 7.58723e-06)
(1.16539e-06 0.000134542 1.6413e-05)
(-3.28994e-05 0.000107611 1.50394e-05)
(0.000141974 -8.97292e-05 1.46765e-05)
(0.000133818 1.4731e-06 1.816e-05)
(0.000156427 -8.08433e-05 6.8824e-06)
(-0.000134183 -4.1672e-06 1.90495e-05)
(-0.000237387 6.68293e-07 4.83821e-06)
(-0.000223171 4.76752e-05 5.47772e-06)
(0.000145586 -9.07775e-07 1.7501e-05)
(-0.000123457 -5.28698e-05 1.96353e-05)
(-4.60328e-05 -7.24725e-05 1.59642e-05)
(0.000631366 -6.74146e-05 1.74158e-05)
(-0.000259586 9.40791e-06 1.07767e-05)
(0.000214788 -6.81327e-05 1.20475e-05)
(8.77337e-05 -1.76547e-05 1.45904e-05)
(8.76222e-05 -1.74359e-05 1.53371e-05)
(0.000214855 -6.80335e-05 1.19193e-05)
(-0.000659362 -7.92239e-05 1.60067e-05)
(-0.000259467 9.40828e-06 1.07674e-05)
(-4.59314e-05 -7.23694e-05 1.62907e-05)
(-0.000123861 -5.28936e-05 1.91216e-05)
(0.000176274 -5.63114e-06 6.28195e-06)
(-0.000223294 4.77078e-05 5.81071e-06)
(0.000145731 -1.00688e-06 1.65199e-05)
(0.000156161 -8.0714e-05 7.0535e-06)
(-0.000134664 -4.09638e-06 1.85268e-05)
(0.000133939 1.30845e-06 1.71019e-05)
(0.000107761 -3.27184e-05 1.53104e-05)
(-8.97912e-05 0.000141739 1.45818e-05)
(2.20332e-06 1.37336e-06 1.37204e-05)
(0.000168227 -0.000291296 1.42588e-05)
(-0.000291262 0.000168164 1.43483e-05)
(-0.000249343 0.000441051 1.28529e-05)
(0.000441536 -0.000249486 1.28539e-05)
(1.88109e-05 1.87792e-05 1.46255e-05)
(-0.000209658 0.000100295 7.81211e-06)
(2.78415e-05 -0.000111472 -1.35117e-06)
(2.77477e-05 -8.18268e-05 1.51504e-05)
(0.000107787 -3.98523e-05 1.26461e-05)
(0.000429901 -0.000205282 5.92475e-06)
(-0.00019168 -1.42647e-05 -2.04795e-07)
(-2.47292e-06 5.24354e-06 1.55056e-05)
(0.000100738 -0.000209519 7.7673e-06)
(-0.000110886 2.7561e-05 -1.69705e-06)
(-8.12069e-05 2.82332e-05 1.51198e-05)
(-3.97918e-05 0.000108331 1.27478e-05)
(-0.000204407 0.000429153 5.83585e-06)
(-1.39813e-05 -0.000191628 -5.3926e-07)
(5.2396e-06 -2.76009e-06 1.57269e-05)
(1.79448e-05 1.79963e-05 1.43819e-05)
(-0.000249917 0.000441313 1.42065e-05)
(0.000441744 -0.000250076 1.40769e-05)
(1.6634e-06 8.30094e-07 1.3545e-05)
(0.000167268 -0.000291065 1.34897e-05)
(-0.000291163 0.000167349 1.35396e-05)
(0.000430437 -0.000204677 6.47807e-06)
(-1.84007e-06 5.16931e-06 1.62079e-05)
(-0.000309504 -2.43454e-06 1.17929e-05)
(-0.000191835 -1.39497e-05 -1.04526e-07)
(2.8022e-05 -0.000111017 -1.05057e-06)
(2.81457e-05 -8.18377e-05 1.43678e-05)
(-0.000209015 0.000100706 7.97791e-06)
(-0.00020388 0.000429708 6.37594e-06)
(5.25035e-06 -2.16664e-06 1.64264e-05)
(-1.79555e-06 -0.000309929 1.17763e-05)
(-1.35784e-05 -0.00019184 -3.96897e-07)
(-0.000110577 2.77774e-05 -1.49763e-06)
(-8.1334e-05 2.87157e-05 1.44719e-05)
(0.000101246 -0.000208965 7.90471e-06)
(-0.000107888 -3.24843e-05 1.52678e-05)
(8.97153e-05 0.000141136 1.46985e-05)
(-3.30865e-05 -0.00010757 1.54271e-05)
(0.000141863 8.96659e-05 1.49471e-05)
(1.76213e-05 1.77385e-05 1.40311e-05)
(-0.000249033 0.000441145 1.62561e-05)
(0.000441473 -0.000249048 1.62445e-05)
(2.30136e-06 1.49275e-06 1.34512e-05)
(0.000166742 -0.000290798 1.62326e-05)
(-0.000291073 0.000166982 1.6165e-05)
(0.000429931 -0.000205269 5.38767e-06)
(-0.000191748 -1.44971e-05 -1.00945e-06)
(-2.88645e-06 5.24998e-06 1.64069e-05)
(-0.000309785 -2.67769e-06 1.19459e-05)
(-0.000209813 0.000100038 7.00712e-06)
(2.82689e-05 -8.16588e-05 1.62209e-05)
(2.78013e-05 -0.000111578 -1.79228e-06)
(-0.000204384 0.000429084 5.31297e-06)
(-1.41639e-05 -0.000191712 -1.35859e-06)
(5.14129e-06 -3.11064e-06 1.64422e-05)
(-2.02227e-06 -0.00031042 1.19599e-05)
(0.000100559 -0.00020969 6.93212e-06)
(-8.11688e-05 2.86786e-05 1.6221e-05)
(-0.000110952 2.74409e-05 -2.11388e-06)
(1.87424e-06 9.86162e-07 1.3445e-05)
(0.000166711 -0.000290819 1.49527e-05)
(-0.000290951 0.000166828 1.48391e-05)
(1.75295e-05 1.76219e-05 1.40753e-05)
(-0.00024954 0.000441296 1.57367e-05)
(0.000441718 -0.000249677 1.56362e-05)
(-0.000209548 0.000100151 6.53028e-06)
(2.8916e-05 -8.16325e-05 1.6536e-05)
(2.79764e-05 -0.000111281 -1.96229e-06)
(0.000107807 -4.01514e-05 1.25292e-05)
(0.000430245 -0.000204906 5.26844e-06)
(-2.75453e-06 5.19913e-06 1.74273e-05)
(-0.000191609 -1.43556e-05 -1.46024e-06)
(0.000100718 -0.000209457 6.43876e-06)
(-8.12513e-05 2.9387e-05 1.66094e-05)
(-0.00011072 2.76286e-05 -2.30634e-06)
(-4.01723e-05 0.000108306 1.25162e-05)
(-0.000204104 0.000429421 5.18122e-06)
(4.97041e-06 -2.94314e-06 1.74729e-05)
(-1.39362e-05 -0.000191674 -1.84979e-06)
(8.93351e-05 0.000141544 1.46138e-05)
(-0.00010814 -3.22596e-05 1.50566e-05)
(0.000142324 8.92028e-05 1.43201e-05)
(-3.29452e-05 -0.000107662 1.48241e-05)
(3.21592e-05 0.000108187 1.54813e-05)
(-0.000141353 -8.96229e-05 1.48925e-05)
(0.000107795 3.26562e-05 1.58163e-05)
(-8.97723e-05 -0.000141986 1.52454e-05)
(-1.53969e-06 -2.28396e-06 1.3047e-05)
(0.000290558 -0.000166642 1.60132e-05)
(-0.000167344 0.000291207 1.62598e-05)
(-0.000440988 0.000249043 1.5785e-05)
(0.000248705 -0.000441083 1.59188e-05)
(-1.80864e-05 -1.7889e-05 1.3863e-05)
(-0.000100527 0.00020917 6.31925e-06)
(0.000111521 -2.78527e-05 -2.68713e-06)
(3.99697e-05 -0.000107982 1.27162e-05)
(8.1679e-05 -2.89437e-05 1.61453e-05)
(-5.39193e-06 2.92648e-06 1.76091e-05)
(1.39958e-05 0.000191415 -1.90387e-06)
(0.00020503 -0.000430109 4.83009e-06)
(0.000209274 -0.000101318 6.0736e-06)
(-2.73599e-05 0.000110893 -3.09859e-06)
(-0.000108323 3.97672e-05 1.25673e-05)
(-2.95506e-05 8.14116e-05 1.61839e-05)
(3.14674e-06 -4.98292e-06 1.76392e-05)
(0.000191759 1.32056e-05 -2.27343e-06)
(-0.000429177 0.00020422 4.5347e-06)
(0.000205173 -0.000430105 4.79475e-06)
(-5.31619e-06 3.02119e-06 1.75596e-05)
(2.40911e-06 0.000309299 1.17191e-05)
(1.38925e-05 0.000191517 -2.02052e-06)
(8.17936e-05 -2.88379e-05 1.6203e-05)
(-0.000100479 0.000209108 6.32094e-06)
(0.000111718 -2.78646e-05 -2.87666e-06)
(-0.000429147 0.000204274 4.5756e-06)
(3.16675e-06 -4.73889e-06 1.76768e-05)
(0.000309985 1.82723e-06 1.1491e-05)
(0.000191951 1.31218e-05 -2.17007e-06)
(-2.94341e-05 8.15182e-05 1.62236e-05)
(0.000209202 -0.000101286 6.24512e-06)
(-2.73024e-05 0.000110875 -3.07391e-06)
(-1.80047e-05 -1.78717e-05 1.38666e-05)
(-0.000440948 0.000248893 1.57078e-05)
(0.000248704 -0.000441184 1.58379e-05)
(0.000290684 -0.000166815 1.62699e-05)
(-0.000167235 0.000291093 1.6376e-05)
(-1.61589e-06 -2.45357e-06 1.30691e-05)
(-1.46143e-06 0.00013421 1.73579e-05)
(3.69646e-06 -0.000134663 1.81717e-05)
(8.08317e-05 0.000156173 7.32113e-06)
(-5.79604e-07 -0.000237508 5.38762e-06)
(8.7512e-07 0.000145955 1.66291e-05)
(-4.77177e-05 -0.000223264 5.96617e-06)
(5.2531e-05 -0.000123807 1.89208e-05)
(7.23183e-05 -4.6141e-05 1.53816e-05)
(6.72386e-05 0.000631354 1.67969e-05)
(-9.54225e-06 -0.000259676 1.0887e-05)
(6.80889e-05 0.000214805 1.20945e-05)
(1.7678e-05 8.7832e-05 1.41142e-05)
(1.75276e-05 8.786e-05 1.46862e-05)
(6.8227e-05 0.000214694 1.22417e-05)
(7.91398e-05 -0.000659234 1.54994e-05)
(-9.5943e-06 -0.000259649 1.09745e-05)
(7.20329e-05 -4.61767e-05 1.56061e-05)
(5.27329e-05 -0.000124024 1.8368e-05)
(5.58986e-06 0.000176199 6.83286e-06)
(9.06957e-07 0.000146289 1.57352e-05)
(-4.78022e-05 -0.000223341 6.09225e-06)
(3.8143e-06 -0.000135081 1.75072e-05)
(8.07417e-05 0.000156161 7.40716e-06)
(-1.38835e-06 0.000134331 1.66127e-05)
(2.41568e-06 -1.83112e-06 1.33352e-05)
(-0.000291064 -0.000167432 1.60669e-05)
(0.000167618 0.000291166 1.60006e-05)
(0.00044139 0.000248918 1.50874e-05)
(-0.000248847 -0.000441045 1.49072e-05)
(1.82611e-05 -1.83469e-05 1.40876e-05)
(0.000101007 0.000209117 6.633e-06)
(-0.00011105 -2.7458e-05 -2.3867e-06)
(-3.97811e-05 -0.000108463 1.28321e-05)
(-8.15666e-05 -2.92576e-05 1.57481e-05)
(5.10351e-06 3.09018e-06 1.69281e-05)
(-1.37497e-05 0.000191601 -1.54701e-06)
(-0.000204584 -0.000429472 5.0821e-06)
(-0.000209501 -0.000100782 6.61976e-06)
(2.7397e-05 0.000110782 -2.12277e-06)
(0.000108113 3.96602e-05 1.3091e-05)
(2.85279e-05 8.1899e-05 1.56064e-05)
(-0.000191877 1.33059e-05 -1.23572e-06)
(-2.60516e-06 -5.06301e-06 1.68034e-05)
(0.000429587 0.000204589 4.99759e-06)
(-0.000204324 -0.000429581 5.19938e-06)
(5.09e-06 2.88439e-06 1.7249e-05)
(-1.82186e-06 0.000309901 1.18413e-05)
(-1.35393e-05 0.000191786 -1.68216e-06)
(-8.15915e-05 -2.93316e-05 1.57381e-05)
(-0.000110895 -2.74148e-05 -2.47603e-06)
(0.000101272 0.000208974 6.57541e-06)
(0.000429913 0.000204515 5.18134e-06)
(-2.59742e-06 -5.1762e-06 1.70978e-05)
(-0.00030937 1.91698e-06 1.20982e-05)
(-0.000191781 1.35339e-05 -1.28309e-06)
(2.75455e-05 0.000110858 -2.13137e-06)
(2.86023e-05 8.1879e-05 1.56195e-05)
(-0.000209158 -0.000100806 6.68633e-06)
(1.80218e-05 -1.8172e-05 1.39406e-05)
(0.000441372 0.00024912 1.52853e-05)
(-0.000248962 -0.000440942 1.5113e-05)
(-0.000291117 -0.000167162 1.54857e-05)
(0.000167399 0.000291172 1.52947e-05)
(2.13248e-06 -1.72458e-06 1.32299e-05)
(-0.000107491 3.25865e-05 1.42751e-05)
(8.95813e-05 -0.000141375 1.39444e-05)
(0.000134166 -1.47053e-06 1.79264e-05)
(-0.000134203 4.54532e-06 1.89846e-05)
(0.000156471 8.04515e-05 7.19284e-06)
(-0.000237351 -1.1074e-06 4.93568e-06)
(0.00014579 1.07304e-06 1.74863e-05)
(-0.000223129 -4.81013e-05 5.72029e-06)
(-0.000123459 5.32554e-05 1.92428e-05)
(-4.5984e-05 7.27468e-05 1.56487e-05)
(0.000631363 6.74565e-05 1.72165e-05)
(-0.000259807 -9.69007e-06 1.09052e-05)
(0.000214861 6.80766e-05 1.22386e-05)
(8.78499e-05 1.76324e-05 1.40006e-05)
(8.79298e-05 1.76404e-05 1.48464e-05)
(0.000214861 6.79805e-05 1.23575e-05)
(-0.000659419 7.91098e-05 1.5759e-05)
(-0.000259645 -9.65414e-06 1.09226e-05)
(-4.585e-05 7.26369e-05 1.56575e-05)
(-0.000123748 5.33647e-05 1.90578e-05)
(0.000176239 5.20444e-06 6.36637e-06)
(0.000145793 1.00172e-06 1.64801e-05)
(-0.000223429 -4.82064e-05 5.90525e-06)
(-0.000134604 4.5867e-06 1.85871e-05)
(0.000156193 8.04228e-05 7.28432e-06)
(0.000134076 -1.43459e-06 1.69927e-05)
(-0.000134598 1.29292e-06 1.61963e-05)
(-0.000156007 -8.0799e-05 7.71534e-06)
(0.000135484 -3.93816e-06 1.72647e-05)
(0.00023783 6.44137e-07 6.11351e-06)
(0.000223408 4.78794e-05 6.50574e-06)
(-0.000146461 -1.0132e-06 1.51967e-05)
(0.000124253 -5.28324e-05 1.81541e-05)
(4.62712e-05 -7.21552e-05 1.45045e-05)
(-0.000630993 -6.74981e-05 1.63638e-05)
(0.000259492 9.61042e-06 1.1055e-05)
(-0.000214737 -6.82794e-05 1.2169e-05)
(-8.78615e-05 -1.73575e-05 1.36941e-05)
(-8.79473e-05 -1.76149e-05 1.39099e-05)
(-0.000214513 -6.82831e-05 1.23114e-05)
(0.000658721 -7.89665e-05 1.51884e-05)
(0.000259605 9.54581e-06 1.10325e-05)
(4.61551e-05 -7.24225e-05 1.50459e-05)
(0.000124344 -5.2498e-05 1.71399e-05)
(-0.000176446 -5.79377e-06 7.40926e-06)
(0.000223021 4.77858e-05 6.58297e-06)
(-0.000147063 -6.97492e-07 1.49803e-05)
(-0.000156346 -8.09485e-05 7.87254e-06)
(0.000135445 -3.69406e-06 1.60721e-05)
(-0.000134983 1.55483e-06 1.58992e-05)
(-0.000134987 -9.62999e-07 1.59753e-05)
(0.000135442 4.70231e-06 1.69579e-05)
(-0.0001562 8.06919e-05 8.04742e-06)
(0.000237763 -1.27996e-06 6.22194e-06)
(-0.000146649 1.37223e-06 1.50918e-05)
(0.000223282 -4.85349e-05 6.71775e-06)
(0.000124114 5.35112e-05 1.76287e-05)
(4.59047e-05 7.31151e-05 1.39577e-05)
(-0.000631113 6.79508e-05 1.55979e-05)
(0.00025929 -1.01082e-05 1.11788e-05)
(-0.000215287 6.81646e-05 1.21855e-05)
(-8.84448e-05 1.81805e-05 1.35774e-05)
(-8.82372e-05 1.77763e-05 1.35411e-05)
(-0.000214814 6.85653e-05 1.23882e-05)
(0.000658463 7.88124e-05 1.45242e-05)
(0.000259598 -9.93845e-06 1.11296e-05)
(4.60988e-05 7.26127e-05 1.43121e-05)
(0.000124283 5.38282e-05 1.68258e-05)
(-0.000176462 5.16803e-06 7.46713e-06)
(-0.000147245 1.60822e-06 1.49352e-05)
(0.000222894 -4.87161e-05 6.71636e-06)
(0.000135429 4.94579e-06 1.58963e-05)
(-0.000156617 8.04771e-05 8.03002e-06)
(-0.000135319 -5.84214e-07 1.58856e-05)
(-1.78821e-06 2.39361e-06 1.32204e-05)
(-0.000167473 -0.000291347 1.64272e-05)
(0.000290893 0.000167163 1.63616e-05)
(0.000248595 0.000441087 1.57038e-05)
(-0.000440908 -0.000248949 1.53157e-05)
(-1.84146e-05 1.81346e-05 1.40238e-05)
(0.00020902 0.000100991 6.42983e-06)
(-2.76236e-05 -0.000111214 -2.76983e-06)
(-0.000108474 -3.99449e-05 1.2582e-05)
(-2.95954e-05 -8.13738e-05 1.58881e-05)
(3.05121e-06 5.0001e-06 1.75036e-05)
(0.000191574 -1.36826e-05 -1.91643e-06)
(-0.000429551 -0.000204592 4.79029e-06)
(-0.000100736 -0.000209294 6.88013e-06)
(0.000110937 2.76998e-05 -2.39139e-06)
(3.98015e-05 0.000108046 1.27085e-05)
(8.15238e-05 2.85868e-05 1.58442e-05)
(1.36415e-05 -0.000191448 -1.51641e-06)
(-5.26654e-06 -2.57696e-06 1.72785e-05)
(0.000204586 0.000429813 5.27118e-06)
(-0.000429528 -0.000204368 4.85312e-06)
(3.10306e-06 4.74611e-06 1.77137e-05)
(0.000309845 -2.0862e-06 1.15038e-05)
(0.000191879 -1.3451e-05 -2.09122e-06)
(-2.96464e-05 -8.17631e-05 1.60877e-05)
(-2.75472e-05 -0.000111106 -2.86106e-06)
(0.00020903 0.000101254 6.26013e-06)
(0.000204655 0.000430204 5.25894e-06)
(-5.33715e-06 -2.7512e-06 1.78178e-05)
(2.05274e-06 -0.000309301 1.1529e-05)
(1.3894e-05 -0.000191418 -1.68519e-06)
(0.000111275 2.79141e-05 -2.5847e-06)
(8.15786e-05 2.86949e-05 1.58357e-05)
(-0.000100565 -0.000208916 6.74046e-06)
(-1.82862e-05 1.78331e-05 1.40594e-05)
(0.000248962 0.00044136 1.54846e-05)
(-0.00044104 -0.000249046 1.53107e-05)
(-0.000167372 -0.000291339 1.62436e-05)
(0.000290612 0.000166964 1.59019e-05)
(-1.70626e-06 2.09091e-06 1.31673e-05)
(3.23033e-05 -0.000107943 1.50795e-05)
(-0.000141411 8.95943e-05 1.44372e-05)
(9.59786e-07 -0.00013458 1.59713e-05)
(-8.03626e-05 -0.000155955 7.74585e-06)
(-4.96597e-06 0.000135261 1.76353e-05)
(1.1735e-06 0.000237788 5.846e-06)
(4.82073e-05 0.000223416 6.30382e-06)
(-1.35715e-06 -0.000146395 1.4998e-05)
(-5.37119e-05 0.000123938 1.82924e-05)
(-7.25397e-05 4.6075e-05 1.46838e-05)
(-6.78473e-05 -0.000631071 1.68824e-05)
(9.65088e-06 0.000259523 1.11006e-05)
(-6.81674e-05 -0.000214739 1.24702e-05)
(-1.77601e-05 -8.80648e-05 1.35685e-05)
(-1.78952e-05 -8.79934e-05 1.40582e-05)
(-6.82457e-05 -0.00021466 1.2426e-05)
(-7.91548e-05 0.000658971 1.5484e-05)
(9.60941e-06 0.000259651 1.10456e-05)
(-7.27983e-05 4.58538e-05 1.562e-05)
(-5.30982e-05 0.000124374 1.70288e-05)
(-5.43e-06 -0.00017635 7.34404e-06)
(4.81081e-05 0.000223086 6.56756e-06)
(-8.93696e-07 -0.000146991 1.45637e-05)
(-8.06069e-05 -0.000156237 7.96871e-06)
(-4.35301e-06 0.000135439 1.61597e-05)
(1.1776e-06 -0.000134999 1.53219e-05)
(-1.39665e-06 -0.000134577 1.52884e-05)
(8.0977e-05 -0.000155606 7.93234e-06)
(3.50462e-06 0.00013547 1.76875e-05)
(-6.21449e-07 0.000237887 6.01939e-06)
(-4.77611e-05 0.000223638 6.83346e-06)
(7.9328e-07 -0.000146216 1.49605e-05)
(5.23225e-05 0.000124623 1.81068e-05)
(7.2346e-05 4.63145e-05 1.32543e-05)
(6.76294e-05 -0.000630909 1.55472e-05)
(-9.88159e-06 0.000259192 1.11554e-05)
(6.81134e-05 -0.000214807 1.23787e-05)
(1.81129e-05 -8.84646e-05 1.2666e-05)
(1.76599e-05 -8.80343e-05 1.26666e-05)
(6.85363e-05 -0.000214146 1.244e-05)
(7.9307e-05 0.000658808 1.42348e-05)
(-9.57159e-06 0.000259783 1.10579e-05)
(7.20016e-05 4.65738e-05 1.45312e-05)
(5.29216e-05 0.000124504 1.65032e-05)
(5.47746e-06 -0.000176446 7.47157e-06)
(-4.8073e-05 0.000222913 6.87991e-06)
(1.28494e-06 -0.000147142 1.46566e-05)
(8.06622e-05 -0.000156435 8.294e-06)
(4.12466e-06 0.000135489 1.60537e-05)
(-8.16564e-07 -0.000135338 1.51626e-05)
(-0.000108121 -3.21442e-05 1.3256e-05)
(8.94745e-05 0.000141336 1.28423e-05)
(-3.26537e-05 -0.000107765 1.3237e-05)
(0.000142099 8.93938e-05 1.25373e-05)
(-8.30748e-05 -8.30318e-05 -9.2437e-06)
(-7.4617e-05 0.000304252 -3.04991e-05)
(0.000304072 -7.3841e-05 -3.07125e-05)
(-0.000263456 -0.000264292 -7.93251e-05)
(0.00022521 0.000225174 -1.18407e-05)
(1.54487e-05 -0.000113751 -2.82313e-05)
(-0.00011331 1.55706e-05 -2.84676e-05)
(0.000140637 -6.64266e-05 2.58036e-05)
(-6.6673e-05 0.000141076 2.55736e-05)
(-0.000158646 -0.000157849 8.33133e-05)
(0.000140477 -6.65285e-05 2.60503e-05)
(-6.68335e-05 0.000140959 2.57308e-05)
(6.78454e-05 6.81932e-05 1.82579e-05)
(6.79867e-05 6.82918e-05 1.81177e-05)
(-8.36506e-05 -8.34951e-05 -6.8695e-06)
(-7.47145e-05 0.000303714 -2.9418e-05)
(0.000303558 -7.42744e-05 -2.96569e-05)
(-0.000263198 -0.000263909 -7.76821e-05)
(0.000225308 0.00022512 -1.02662e-05)
(1.55188e-05 -0.000113368 -2.61882e-05)
(-0.000113081 1.58258e-05 -2.64071e-05)
(0.00022515 0.000224917 -1.08564e-05)
(0.00033577 0.000336153 -7.86849e-05)
(1.52988e-05 -0.0001138 -2.71856e-05)
(-0.000113421 1.55649e-05 -2.74396e-05)
(-8.37661e-05 -8.36849e-05 -8.06635e-06)
(-7.48498e-05 0.000303545 -2.97116e-05)
(0.000303514 -7.43812e-05 -2.99876e-05)
(8.33028e-05 8.31978e-05 -8.98696e-06)
(-0.000303519 7.49461e-05 -3.0767e-05)
(7.44546e-05 -0.000303641 -3.12112e-05)
(0.00026484 0.000263795 -7.97844e-05)
(0.000114335 -1.52747e-05 -2.81586e-05)
(-1.52194e-05 0.00011359 -2.8583e-05)
(-0.000224782 -0.00022506 -1.18402e-05)
(-8.3431e-05 8.32215e-05 -8.18968e-06)
(0.000303206 7.47895e-05 -3.044e-05)
(-7.52117e-05 -0.000303883 -3.06067e-05)
(-0.000263941 0.000264318 -7.94893e-05)
(1.52217e-05 0.0001136 -2.76714e-05)
(-0.000113715 -1.55577e-05 -2.76404e-05)
(0.000224693 -0.000225057 -1.1262e-05)
(8.31196e-05 -8.33421e-05 -8.52485e-06)
(7.45138e-05 0.000303362 -3.04781e-05)
(-0.000303788 -7.4894e-05 -3.09782e-05)
(0.000264467 -0.00026387 -7.94402e-05)
(0.000113858 1.53498e-05 -2.82588e-05)
(-1.54431e-05 -0.000113634 -2.78513e-05)
(-0.000225085 0.000224934 -1.15124e-05)
(0.000225362 0.000225215 -1.14224e-05)
(0.000336222 0.000336632 -7.91184e-05)
(1.55018e-05 -0.000113742 -2.7884e-05)
(-0.000113248 1.5654e-05 -2.80877e-05)
(-8.31824e-05 -8.31428e-05 -8.82545e-06)
(-7.4624e-05 0.000304076 -3.02566e-05)
(0.000303962 -7.3992e-05 -3.05024e-05)
(-0.000141058 -6.64641e-05 2.56175e-05)
(6.63769e-05 0.000141122 2.53324e-05)
(0.000158017 -0.000158129 8.31626e-05)
(-0.000141155 -6.6532e-05 2.57629e-05)
(6.62739e-05 0.000140991 2.54091e-05)
(-6.83921e-05 6.82727e-05 1.8213e-05)
(-6.82551e-05 6.83899e-05 1.80647e-05)
(-6.67491e-05 -0.000140689 2.57387e-05)
(0.000140814 6.65498e-05 2.5367e-05)
(-0.000158554 0.000158161 8.31788e-05)
(-6.70422e-05 -0.000140859 2.59769e-05)
(0.000140612 6.65156e-05 2.55269e-05)
(6.78005e-05 -6.80903e-05 1.83045e-05)
(6.79752e-05 -6.79199e-05 1.81627e-05)
(6.65392e-05 -0.000140564 2.52196e-05)
(-0.000140915 6.66375e-05 2.52378e-05)
(0.000158037 0.000158073 8.23023e-05)
(6.63835e-05 -0.000140834 2.53179e-05)
(-0.00014116 6.64934e-05 2.5388e-05)
(-6.84146e-05 -6.81701e-05 1.81618e-05)
(-6.82778e-05 -6.79168e-05 1.8029e-05)
(0.000359442 7.69728e-05 -3.3311e-05)
(8.15111e-05 3.75311e-05 -1.0736e-05)
(-0.000216175 -9.68663e-07 -3.06777e-05)
(-5.49304e-05 -2.8218e-05 -1.03721e-05)
(-3.90406e-05 -8.0884e-05 -1.18527e-05)
(0.000332128 1.49947e-05 -2.83983e-05)
(-0.000242935 -2.48423e-05 -3.52915e-05)
(-0.000298905 -1.06838e-05 -3.00806e-05)
(0.000294607 0.000211454 -3.68422e-06)
(7.13309e-05 9.73798e-05 6.08506e-06)
(-6.48938e-05 -0.000220475 -7.79767e-06)
(-0.000344363 1.11865e-05 -4.80995e-06)
(0.000103643 0.000155196 -6.48403e-06)
(0.000353691 0.000111209 -2.86107e-05)
(0.00035362 0.000111297 -2.89375e-05)
(0.000103591 0.000155132 -6.52699e-06)
(-0.000136568 -0.000141166 5.06159e-06)
(-0.000344641 1.14124e-05 -5.02366e-06)
(0.000294647 0.000211629 -3.97565e-06)
(-6.48347e-05 -0.000220364 -7.83518e-06)
(-0.000299415 -1.04521e-05 -3.0372e-05)
(-0.000242316 -2.49677e-05 -3.48968e-05)
(7.67598e-05 2.04663e-05 -9.28319e-06)
(-3.92111e-05 -8.10185e-05 -1.17657e-05)
(0.000332063 1.49771e-05 -2.81496e-05)
(8.15467e-05 3.74433e-05 -1.05559e-05)
(-0.000215506 -1.16192e-06 -3.02096e-05)
(0.00035946 7.69569e-05 -3.30088e-05)
(7.73331e-05 0.000359562 -3.34526e-05)
(-3.09046e-07 -0.000216355 -3.03738e-05)
(3.83266e-05 8.1492e-05 -1.09372e-05)
(-2.74524e-05 -5.48912e-05 -1.04438e-05)
(1.54929e-05 0.000332023 -2.82529e-05)
(-8.02806e-05 -3.88992e-05 -1.21391e-05)
(-2.41544e-05 -0.000242906 -3.52944e-05)
(-1.00236e-05 -0.000298819 -3.02546e-05)
(0.00021183 0.000294731 -4.00601e-06)
(9.75475e-05 7.15967e-05 5.86928e-06)
(-0.000220111 -6.46962e-05 -7.98199e-06)
(1.17458e-05 -0.000343993 -5.13534e-06)
(0.000155651 0.00010377 -6.58437e-06)
(0.000111469 0.000353757 -2.87779e-05)
(0.000111686 0.000353664 -2.92301e-05)
(0.000155684 0.000103551 -6.77366e-06)
(-0.000140653 -0.000136418 4.67313e-06)
(1.19859e-05 -0.000344293 -5.36221e-06)
(0.000212209 0.00029487 -4.388e-06)
(-0.000219809 -6.46778e-05 -8.18738e-06)
(-9.7598e-06 -0.00029944 -3.05727e-05)
(-2.43423e-05 -0.000242156 -3.48476e-05)
(2.12791e-05 7.67964e-05 -9.06027e-06)
(1.54253e-05 0.000332088 -2.78154e-05)
(-8.05643e-05 -3.89543e-05 -1.18578e-05)
(-5.12906e-07 -0.000215486 -2.98616e-05)
(3.81594e-05 8.17242e-05 -1.05577e-05)