/*--------------------------------*- C++ -*----------------------------------*\
| =========                 |                                                 |
| \\      /  F ield         | OpenFOAM: The Open Source CFD Toolbox           |
|  \\    /   O peration     | Version:  2206                                  |
|   \\  /    A nd           | Website:  www.openfoam.com                      |
|    \\/     M anipulation  |                                                 |
\*---------------------------------------------------------------------------*/
FoamFile
{
    version     2.0;
    format      ascii;
    arch        "LSB;label=32;scalar=64";
    class       volScalarField;
    location    "60";
    object      epsilon;
}
// * * * * * * * * * * * * * * * * * * * * * * * * * * * * * * * * * * * * * //

dimensions      [0 2 -3 0 0 0 0];

internalField   nonuniform List<scalar> 
28907
(
1.67293e-07
1.66701e-07
1.667e-07
1.67292e-07
1.667e-07
1.66701e-07
1.66699e-07
1.66701e-07
1.67293e-07
1.66701e-07
1.667e-07
1.67293e-07
1.67298e-07
1.67291e-07
1.65579e-07
1.65578e-07
1.65579e-07
1.65579e-07
2.52583e-07
2.5369e-07
2.52631e-07
2.53743e-07
1.67307e-07
1.72374e-07
1.72372e-07
1.72679e-07
1.72677e-07
1.66368e-07
2.77916e-07
2.77881e-07
1.66116e-07
1.66369e-07
2.77908e-07
2.77879e-07
1.66116e-07
1.63998e-07
1.66705e-07
1.74479e-07
1.65593e-07
1.74442e-07
1.65597e-07
1.63942e-07
1.63999e-07
1.66704e-07
1.74481e-07
1.65593e-07
1.74445e-07
1.65597e-07
1.63943e-07
2.52627e-07
2.53733e-07
1.67306e-07
1.72373e-07
1.72371e-07
1.72679e-07
1.72676e-07
2.52585e-07
2.53695e-07
1.66368e-07
2.77922e-07
2.77897e-07
1.66115e-07
1.63998e-07
1.66704e-07
1.74482e-07
1.65593e-07
1.74446e-07
1.65597e-07
1.63942e-07
1.66369e-07
2.77939e-07
2.77908e-07
1.66116e-07
1.64e-07
1.66705e-07
1.65593e-07
1.74484e-07
1.65598e-07
1.74447e-07
1.63943e-07
1.63999e-07
1.66704e-07
1.74478e-07
1.65593e-07
1.74442e-07
1.65597e-07
1.63942e-07
1.6637e-07
2.7791e-07
2.77881e-07
1.66117e-07
1.64e-07
1.65594e-07
1.7448e-07
1.65598e-07
1.63943e-07
1.66371e-07
2.77927e-07
1.66117e-07
2.5264e-07
2.53747e-07
1.67308e-07
1.72376e-07
1.72374e-07
1.72681e-07
2.52593e-07
1.65593e-07
1.7448e-07
1.63942e-07
1.65593e-07
1.74482e-07
1.63942e-07
2.77927e-07
1.66116e-07
2.77924e-07
1.66116e-07
1.72374e-07
1.72373e-07
2.52593e-07
2.52638e-07
2.53677e-07
2.52583e-07
2.53728e-07
2.52631e-07
1.7267e-07
1.72668e-07
1.67292e-07
1.72373e-07
1.72371e-07
2.52584e-07
2.53678e-07
2.52631e-07
2.53729e-07
1.67297e-07
1.72373e-07
1.72371e-07
1.7267e-07
1.72669e-07
2.53679e-07
2.5259e-07
2.5373e-07
2.52638e-07
1.61119e-07
2.35481e-07
2.354e-07
1.61426e-07
2.34438e-07
2.34367e-07
1.73276e-07
1.67298e-07
1.72672e-07
2.84079e-07
2.8507e-07
1.6736e-07
1.73176e-07
1.73268e-07
1.67294e-07
1.7267e-07
2.8406e-07
2.85055e-07
1.67356e-07
1.73168e-07
1.7318e-07
2.85083e-07
1.67367e-07
1.72378e-07
1.73285e-07
2.84085e-07
1.67303e-07
1.73171e-07
2.85069e-07
1.67363e-07
1.72376e-07
1.73277e-07
2.84069e-07
1.67299e-07
1.61419e-07
2.34432e-07
2.34362e-07
2.35467e-07
2.35388e-07
1.61117e-07
2.37963e-07
2.3537e-07
1.65462e-07
1.66119e-07
2.39572e-07
2.33778e-07
1.65195e-07
2.66525e-07
2.77872e-07
1.68016e-07
1.68247e-07
2.6505e-07
2.65057e-07
1.68253e-07
2.77922e-07
2.66536e-07
1.6802e-07
2.39564e-07
1.66363e-07
2.33774e-07
1.65192e-07
2.35363e-07
1.65457e-07
2.3796e-07
2.37962e-07
2.3537e-07
1.65462e-07
1.6612e-07
2.39573e-07
2.33777e-07
1.65195e-07
2.66515e-07
2.77869e-07
1.68009e-07
1.6824e-07
2.6504e-07
2.65047e-07
1.68247e-07
2.77914e-07
2.66526e-07
1.68013e-07
2.39564e-07
1.66363e-07
2.33773e-07
1.65192e-07
2.35363e-07
1.65456e-07
2.37959e-07
2.53723e-07
2.52632e-07
1.61119e-07
2.35409e-07
2.35475e-07
1.61426e-07
2.34375e-07
2.34433e-07
1.73269e-07
1.67294e-07
1.72672e-07
2.84062e-07
1.67356e-07
2.85059e-07
1.73168e-07
1.73275e-07
1.67297e-07
1.72669e-07
2.8408e-07
2.85073e-07
1.67359e-07
1.73175e-07
1.73172e-07
2.85071e-07
1.67363e-07
1.72377e-07
1.67299e-07
1.73278e-07
2.84068e-07
1.73179e-07
2.85085e-07
1.67366e-07
1.72375e-07
1.73284e-07
2.84087e-07
1.67302e-07
1.61419e-07
2.34371e-07
2.34429e-07
2.35398e-07
2.35464e-07
1.61117e-07
2.53684e-07
2.52591e-07
2.37962e-07
1.65462e-07
2.3537e-07
1.66119e-07
2.39573e-07
1.65195e-07
2.33777e-07
2.6651e-07
2.77885e-07
1.68009e-07
1.68241e-07
2.65035e-07
2.65043e-07
1.68248e-07
2.7793e-07
2.66525e-07
1.68013e-07
2.39562e-07
1.66362e-07
1.65191e-07
2.33772e-07
1.65456e-07
2.35361e-07
2.37958e-07
2.37968e-07
2.35373e-07
1.65463e-07
1.6612e-07
2.39578e-07
2.33781e-07
1.65196e-07
2.66526e-07
2.77899e-07
1.68017e-07
1.68249e-07
2.65051e-07
2.65057e-07
1.68255e-07
2.77944e-07
2.66537e-07
1.68021e-07
2.39568e-07
1.66363e-07
2.33775e-07
1.65193e-07
2.35364e-07
1.65457e-07
2.37963e-07
2.37959e-07
1.65461e-07
2.35371e-07
1.6612e-07
2.39569e-07
1.65194e-07
2.33778e-07
2.66504e-07
2.77869e-07
1.68007e-07
1.68239e-07
2.65028e-07
2.65035e-07
1.68246e-07
2.77916e-07
2.66516e-07
1.68011e-07
2.3956e-07
1.66363e-07
1.65191e-07
2.33774e-07
1.65455e-07
2.35362e-07
2.37955e-07
2.37964e-07
2.35374e-07
1.65463e-07
1.6612e-07
2.39575e-07
2.33781e-07
1.65196e-07
2.66516e-07
2.77882e-07
1.68015e-07
1.68247e-07
2.65042e-07
2.65048e-07
1.68254e-07
2.66528e-07
1.68019e-07
2.39565e-07
1.66363e-07
2.33777e-07
1.65192e-07
2.35365e-07
1.65457e-07
2.37961e-07
2.53737e-07
2.52645e-07
1.61121e-07
2.34378e-07
2.34438e-07
1.73269e-07
1.67295e-07
1.72674e-07
2.84063e-07
1.67357e-07
2.85059e-07
1.73169e-07
1.73276e-07
1.67298e-07
1.72672e-07
2.84081e-07
2.85072e-07
1.6736e-07
1.73177e-07
1.73173e-07
1.67365e-07
1.72379e-07
1.673e-07
2.84069e-07
1.7318e-07
1.72378e-07
2.84087e-07
1.67303e-07
1.61421e-07
2.34374e-07
2.34432e-07
2.35401e-07
2.35467e-07
1.61119e-07
2.53691e-07
2.52599e-07
2.66518e-07
2.77883e-07
1.68015e-07
1.68246e-07
2.65043e-07
2.3956e-07
1.66362e-07
1.65191e-07
2.33774e-07
1.65455e-07
2.35362e-07
2.37956e-07
2.66506e-07
2.77886e-07
1.68008e-07
1.6824e-07
2.6503e-07
2.3956e-07
1.66362e-07
1.65191e-07
2.33772e-07
1.65455e-07
2.35361e-07
2.37955e-07
1.73276e-07
1.67298e-07
1.72672e-07
2.8408e-07
1.6736e-07
2.85071e-07
1.73176e-07
1.73269e-07
1.67294e-07
1.72672e-07
2.84058e-07
1.67356e-07
2.85055e-07
1.73168e-07
1.6142e-07
2.34436e-07
2.34368e-07
2.3547e-07
2.35393e-07
1.61118e-07
2.53688e-07
2.53737e-07
2.52583e-07
2.53678e-07
2.5263e-07
2.53729e-07
1.61417e-07
2.3443e-07
2.34362e-07
2.35465e-07
2.35387e-07
1.61115e-07
1.73175e-07
1.67358e-07
2.85067e-07
1.72374e-07
1.73275e-07
2.84079e-07
1.67298e-07
1.73166e-07
1.67354e-07
2.85052e-07
1.72371e-07
1.73267e-07
2.84059e-07
1.67293e-07
1.61115e-07
2.35464e-07
2.35386e-07
1.61417e-07
2.34429e-07
2.3436e-07
1.73274e-07
2.84079e-07
1.72671e-07
1.67298e-07
2.85068e-07
1.73175e-07
1.67359e-07
1.73266e-07
2.84059e-07
1.72669e-07
1.67293e-07
2.85054e-07
1.73166e-07
1.67354e-07
2.53678e-07
2.52584e-07
2.53729e-07
2.52632e-07
1.61116e-07
2.35466e-07
2.35389e-07
1.61417e-07
2.34431e-07
2.34363e-07
1.73274e-07
1.67297e-07
1.72671e-07
2.8408e-07
2.85069e-07
1.67358e-07
1.73175e-07
1.73266e-07
1.67292e-07
1.72669e-07
2.8406e-07
2.85055e-07
1.67353e-07
1.73167e-07
1.73175e-07
2.85068e-07
1.67358e-07
1.72374e-07
1.73275e-07
2.8408e-07
1.67298e-07
1.73166e-07
2.85054e-07
1.67353e-07
1.72372e-07
1.73267e-07
2.8406e-07
1.67294e-07
1.61418e-07
2.34432e-07
2.34364e-07
2.35467e-07
2.35389e-07
1.61116e-07
1.68387e-07
1.673e-07
1.67327e-07
1.67326e-07
1.67345e-07
1.67344e-07
1.68349e-07
1.68386e-07
1.67299e-07
1.67326e-07
1.67326e-07
1.67344e-07
1.67344e-07
1.68349e-07
1.68387e-07
1.673e-07
1.67327e-07
1.67327e-07
1.67344e-07
1.67345e-07
1.6835e-07
1.68387e-07
1.673e-07
1.67327e-07
1.67326e-07
1.67345e-07
1.67344e-07
1.68349e-07
1.68347e-07
1.67342e-07
1.67341e-07
1.67293e-07
1.68385e-07
1.67327e-07
1.67326e-07
1.68384e-07
1.67297e-07
1.67326e-07
1.67325e-07
1.67342e-07
1.67341e-07
1.68348e-07
1.65582e-07
1.64697e-07
1.64697e-07
1.64699e-07
1.64699e-07
1.6407e-07
1.64068e-07
1.65581e-07
1.64697e-07
1.64696e-07
1.64699e-07
1.64699e-07
1.6407e-07
1.64068e-07
1.64697e-07
1.64697e-07
1.647e-07
1.6407e-07
1.64068e-07
1.64697e-07
1.64697e-07
1.647e-07
1.6407e-07
1.64068e-07
1.68353e-07
1.67299e-07
1.67352e-07
1.67352e-07
1.68396e-07
1.67333e-07
1.67332e-07
1.65081e-07
1.63834e-07
1.64976e-07
1.63947e-07
1.65099e-07
1.63779e-07
1.64962e-07
1.65856e-07
1.6742e-07
1.74436e-07
1.65096e-07
1.67433e-07
1.65144e-07
1.65845e-07
1.65849e-07
1.65151e-07
1.67439e-07
1.74484e-07
1.67425e-07
1.65866e-07
1.65101e-07
1.6509e-07
1.63992e-07
1.63774e-07
1.64957e-07
1.63828e-07
1.64969e-07
1.65078e-07
1.65081e-07
1.63834e-07
1.64977e-07
1.63948e-07
1.65098e-07
1.63779e-07
1.64963e-07
1.65855e-07
1.67419e-07
1.74438e-07
1.65094e-07
1.65142e-07
1.67432e-07
1.65843e-07
1.65848e-07
1.6515e-07
1.67438e-07
1.74485e-07
1.65864e-07
1.65099e-07
1.67424e-07
1.65089e-07
1.63992e-07
1.63774e-07
1.64957e-07
1.63827e-07
1.64969e-07
1.65077e-07
1.68353e-07
1.67298e-07
1.67351e-07
1.67352e-07
1.67331e-07
1.68396e-07
1.67332e-07
1.6508e-07
1.63833e-07
1.64976e-07
1.63947e-07
1.65098e-07
1.63778e-07
1.64962e-07
1.65855e-07
1.67419e-07
1.74439e-07
1.65094e-07
1.67432e-07
1.65142e-07
1.65843e-07
1.65848e-07
1.6515e-07
1.67439e-07
1.74486e-07
1.67424e-07
1.65864e-07
1.65099e-07
1.65089e-07
1.63991e-07
1.63773e-07
1.64956e-07
1.63827e-07
1.64969e-07
1.65077e-07
1.65081e-07
1.64977e-07
1.63835e-07
1.63948e-07
1.65099e-07
1.64963e-07
1.6378e-07
1.65856e-07
1.6742e-07
1.74441e-07
1.65096e-07
1.65145e-07
1.67433e-07
1.65845e-07
1.65849e-07
1.65152e-07
1.6744e-07
1.74488e-07
1.65866e-07
1.65102e-07
1.67425e-07
1.65089e-07
1.63992e-07
1.64957e-07
1.63774e-07
1.64969e-07
1.63828e-07
1.65078e-07
1.65081e-07
1.63834e-07
1.64977e-07
1.63947e-07
1.65098e-07
1.63779e-07
1.64963e-07
1.65855e-07
1.67419e-07
1.74435e-07
1.65093e-07
1.67432e-07
1.65142e-07
1.65844e-07
1.65848e-07
1.65149e-07
1.67439e-07
1.74483e-07
1.65865e-07
1.67424e-07
1.65099e-07
1.65089e-07
1.63992e-07
1.63774e-07
1.64957e-07
1.63827e-07
1.64969e-07
1.65078e-07
1.65082e-07
1.64978e-07
1.63835e-07
1.63949e-07
1.651e-07
1.64964e-07
1.6378e-07
1.65857e-07
1.6742e-07
1.74437e-07
1.65096e-07
1.65144e-07
1.67433e-07
1.65845e-07
1.6585e-07
1.65152e-07
1.65866e-07
1.65101e-07
1.6509e-07
1.63993e-07
1.64958e-07
1.63775e-07
1.64969e-07
1.63828e-07
1.65078e-07
1.68354e-07
1.67299e-07
1.67353e-07
1.67332e-07
1.67332e-07
1.65856e-07
1.6742e-07
1.74437e-07
1.65096e-07
1.67432e-07
1.65144e-07
1.65845e-07
1.65089e-07
1.63991e-07
1.64956e-07
1.63774e-07
1.64969e-07
1.63827e-07
1.65078e-07
1.65855e-07
1.67419e-07
1.74439e-07
1.65094e-07
1.65142e-07
1.67431e-07
1.65843e-07
1.65088e-07
1.63992e-07
1.64957e-07
1.63773e-07
1.64969e-07
1.63826e-07
1.65077e-07
1.68384e-07
1.67298e-07
1.67326e-07
1.67325e-07
1.68348e-07
1.67342e-07
1.67341e-07
1.68348e-07
1.67293e-07
1.67342e-07
1.67341e-07
1.68385e-07
1.67327e-07
1.67326e-07
1.65578e-07
1.66698e-07
1.667e-07
1.67298e-07
1.65577e-07
1.66698e-07
1.66699e-07
1.67297e-07
1.65577e-07
1.66698e-07
1.66699e-07
1.67297e-07
1.65577e-07
1.66698e-07
1.66699e-07
1.67297e-07
1.65577e-07
1.66698e-07
1.66699e-07
1.67297e-07
1.65577e-07
1.66698e-07
1.66699e-07
1.67297e-07
1.65577e-07
1.66698e-07
1.66699e-07
1.67297e-07
1.65577e-07
1.66698e-07
1.66699e-07
1.67297e-07
1.65577e-07
1.66698e-07
1.66699e-07
1.67297e-07
1.65577e-07
1.66698e-07
1.66699e-07
1.67297e-07
1.65577e-07
1.66698e-07
1.66699e-07
1.67297e-07
1.65577e-07
1.66698e-07
1.66699e-07
1.67297e-07
1.65577e-07
1.66698e-07
1.66699e-07
1.67297e-07
1.65577e-07
1.66698e-07
1.66699e-07
1.67297e-07
1.65577e-07
1.66698e-07
1.66699e-07
1.67297e-07
1.65577e-07
1.66698e-07
1.66699e-07
1.67297e-07
1.65577e-07
1.66698e-07
1.667e-07
1.67298e-07
1.667e-07
1.66699e-07
1.66699e-07
1.66698e-07
1.67297e-07
1.67291e-07
1.66699e-07
1.667e-07
1.66698e-07
1.66699e-07
1.667e-07
1.66698e-07
1.66699e-07
1.67298e-07
1.67293e-07
1.66699e-07
1.66699e-07
1.66699e-07
1.67293e-07
1.67297e-07
1.67291e-07
1.66699e-07
1.66699e-07
1.66699e-07
1.66698e-07
1.67297e-07
1.67291e-07
1.66698e-07
1.667e-07
1.66698e-07
1.66699e-07
1.667e-07
1.66698e-07
1.66699e-07
1.67298e-07
1.67293e-07
1.66699e-07
1.66699e-07
1.66699e-07
1.67293e-07
1.67297e-07
1.67291e-07
1.66699e-07
1.66699e-07
1.66699e-07
1.66698e-07
1.67297e-07
1.67291e-07
1.66698e-07
1.667e-07
1.66698e-07
1.66699e-07
1.667e-07
1.66698e-07
1.66699e-07
1.67298e-07
1.67293e-07
1.66699e-07
1.66699e-07
1.66699e-07
1.67293e-07
1.67297e-07
1.67291e-07
1.66699e-07
1.66699e-07
1.66699e-07
1.66698e-07
1.67297e-07
1.67291e-07
1.66698e-07
1.667e-07
1.66698e-07
1.66699e-07
1.667e-07
1.66698e-07
1.66699e-07
1.67298e-07
1.67293e-07
1.66699e-07
1.66699e-07
1.66699e-07
1.67293e-07
1.67297e-07
1.67291e-07
1.66699e-07
1.66699e-07
1.66699e-07
1.66698e-07
1.67297e-07
1.67291e-07
1.66698e-07
1.667e-07
1.66698e-07
1.66699e-07
1.667e-07
1.66698e-07
1.66699e-07
1.67298e-07
1.67293e-07
1.66699e-07
1.66699e-07
1.66699e-07
1.67293e-07
1.67297e-07
1.67291e-07
1.66699e-07
1.66699e-07
1.66699e-07
1.66698e-07
1.67297e-07
1.67291e-07
1.66698e-07
1.667e-07
1.66698e-07
1.66699e-07
1.667e-07
1.66698e-07
1.66699e-07
1.67298e-07
1.67293e-07
1.66699e-07
1.66699e-07
1.66699e-07
1.67293e-07
1.67297e-07
1.67291e-07
1.66699e-07
1.66698e-07
1.66699e-07
1.66698e-07
1.67297e-07
1.67291e-07
1.66698e-07
1.667e-07
1.66698e-07
1.66699e-07
1.667e-07
1.66698e-07
1.66699e-07
1.67298e-07
1.67293e-07
1.66699e-07
1.66699e-07
1.66699e-07
1.67293e-07
1.67297e-07
1.67291e-07
1.66699e-07
1.66699e-07
1.66699e-07
1.66698e-07
1.67297e-07
1.67291e-07
1.66698e-07
1.667e-07
1.66698e-07
1.66699e-07
1.667e-07
1.66698e-07
1.66699e-07
1.67298e-07
1.67293e-07
1.66699e-07
1.66699e-07
1.66699e-07
1.67293e-07
1.67297e-07
1.67291e-07
1.66699e-07
1.66698e-07
1.66699e-07
1.66698e-07
1.67297e-07
1.67291e-07
1.66698e-07
1.667e-07
1.66698e-07
1.66699e-07
1.667e-07
1.66698e-07
1.66699e-07
1.67298e-07
1.67293e-07
1.66699e-07
1.66699e-07
1.66699e-07
1.67293e-07
1.67297e-07
1.67291e-07
1.66699e-07
1.66699e-07
1.66699e-07
1.66698e-07
1.67297e-07
1.67291e-07
1.66698e-07
1.667e-07
1.66698e-07
1.66699e-07
1.667e-07
1.66698e-07
1.66699e-07
1.67298e-07
1.67293e-07
1.66699e-07
1.66699e-07
1.66699e-07
1.67293e-07
1.67297e-07
1.67291e-07
1.66699e-07
1.66698e-07
1.66699e-07
1.66698e-07
1.67297e-07
1.67291e-07
1.66698e-07
1.667e-07
1.66698e-07
1.66699e-07
1.667e-07
1.66698e-07
1.66699e-07
1.67298e-07
1.67293e-07
1.66699e-07
1.66699e-07
1.66699e-07
1.67293e-07
1.67297e-07
1.67291e-07
1.66699e-07
1.66699e-07
1.66699e-07
1.66698e-07
1.67297e-07
1.67291e-07
1.66698e-07
1.667e-07
1.66698e-07
1.66699e-07
1.667e-07
1.66698e-07
1.66699e-07
1.67298e-07
1.67293e-07
1.66699e-07
1.66699e-07
1.66699e-07
1.67293e-07
1.67297e-07
1.67291e-07
1.66699e-07
1.66698e-07
1.66699e-07
1.66698e-07
1.67297e-07
1.67291e-07
1.66698e-07
1.667e-07
1.66698e-07
1.66699e-07
1.667e-07
1.66698e-07
1.66699e-07
1.67298e-07
1.67293e-07
1.66699e-07
1.66699e-07
1.66699e-07
1.67293e-07
1.67297e-07
1.67291e-07
1.66699e-07
1.66699e-07
1.66699e-07
1.66698e-07
1.67297e-07
1.67291e-07
1.66698e-07
1.667e-07
1.66698e-07
1.66699e-07
1.667e-07
1.66698e-07
1.66699e-07
1.67298e-07
1.67293e-07
1.66699e-07
1.66699e-07
1.66699e-07
1.67293e-07
1.67297e-07
1.67292e-07
1.66699e-07
1.66699e-07
1.66699e-07
1.66698e-07
1.67297e-07
1.67291e-07
1.66698e-07
1.667e-07
1.66698e-07
1.66699e-07
1.667e-07
1.66698e-07
1.66699e-07
1.67298e-07
1.67293e-07
1.66699e-07
1.66699e-07
1.66699e-07
1.67293e-07
1.67297e-07
1.67292e-07
1.66699e-07
1.66699e-07
1.66699e-07
1.66698e-07
1.67297e-07
1.67291e-07
1.66698e-07
1.667e-07
1.66698e-07
1.667e-07
1.667e-07
1.66698e-07
1.667e-07
1.67298e-07
1.67293e-07
1.66699e-07
1.667e-07
1.66699e-07
1.67293e-07
1.67297e-07
1.66699e-07
1.66699e-07
1.67297e-07
1.66699e-07
1.667e-07
1.66714e-07
1.66701e-07
1.67298e-07
1.67321e-07
1.667e-07
1.66715e-07
1.66115e-07
2.77869e-07
1.66361e-07
2.77916e-07
2.5372e-07
2.52626e-07
1.66114e-07
2.77882e-07
1.6636e-07
2.77922e-07
1.65577e-07
1.65578e-07
1.65578e-07
1.65577e-07
1.65577e-07
1.65578e-07
1.65578e-07
1.63941e-07
1.74433e-07
1.65592e-07
1.66698e-07
1.74477e-07
1.65592e-07
1.6399e-07
2.53734e-07
2.52639e-07
1.63941e-07
1.65592e-07
1.74435e-07
1.66699e-07
1.65592e-07
1.7448e-07
1.63989e-07
1.72671e-07
1.7267e-07
1.67292e-07
1.72374e-07
1.72372e-07
1.66115e-07
2.77869e-07
1.6636e-07
2.77915e-07
2.5372e-07
2.52626e-07
1.66114e-07
2.77882e-07
1.6636e-07
2.77921e-07
1.65577e-07
1.65578e-07
1.65578e-07
1.65577e-07
1.65577e-07
1.65578e-07
1.65578e-07
1.63941e-07
1.74433e-07
1.65592e-07
1.66698e-07
1.63989e-07
1.74478e-07
1.65592e-07
2.53733e-07
2.52639e-07
1.63941e-07
1.65592e-07
1.74435e-07
1.66699e-07
1.63989e-07
1.65592e-07
1.7448e-07
1.7267e-07
1.7267e-07
1.67292e-07
1.72374e-07
1.72372e-07
1.66115e-07
2.77869e-07
1.6636e-07
2.77915e-07
2.5372e-07
2.52626e-07
1.66114e-07
2.77882e-07
1.6636e-07
2.77921e-07
1.65577e-07
1.65578e-07
1.65578e-07
1.65577e-07
1.65577e-07
1.65578e-07
1.65578e-07
1.63941e-07
1.74433e-07
1.65592e-07
1.66698e-07
1.63989e-07
1.74478e-07
1.65592e-07
2.53733e-07
2.52639e-07
1.63941e-07
1.65592e-07
1.74435e-07
1.66699e-07
1.63989e-07
1.65592e-07
1.7448e-07
1.7267e-07
1.7267e-07
1.67292e-07
1.72374e-07
1.72372e-07
1.66115e-07
2.77869e-07
1.6636e-07
2.77915e-07
2.5372e-07
2.52626e-07
1.66114e-07
2.77881e-07
1.6636e-07
2.77921e-07
1.65577e-07
1.65578e-07
1.65578e-07
1.65577e-07
1.65577e-07
1.65578e-07
1.65578e-07
1.63941e-07
1.74433e-07
1.65592e-07
1.66698e-07
1.63989e-07
1.74477e-07
1.65592e-07
2.53734e-07
2.52639e-07
1.63941e-07
1.65592e-07
1.74435e-07
1.66699e-07
1.63989e-07
1.65592e-07
1.7448e-07
1.7267e-07
1.7267e-07
1.67292e-07
1.72374e-07
1.72372e-07
1.66115e-07
2.77869e-07
1.6636e-07
2.77915e-07
2.5372e-07
2.52626e-07
1.66114e-07
2.77882e-07
1.6636e-07
2.77921e-07
1.65577e-07
1.65578e-07
1.65578e-07
1.65577e-07
1.65577e-07
1.65578e-07
1.65578e-07
1.63941e-07
1.74432e-07
1.65592e-07
1.66698e-07
1.63989e-07
1.74478e-07
1.65592e-07
2.53734e-07
2.52639e-07
1.63941e-07
1.65592e-07
1.74435e-07
1.66699e-07
1.63989e-07
1.65592e-07
1.7448e-07
1.7267e-07
1.7267e-07
1.67292e-07
1.72374e-07
1.72372e-07
1.66115e-07
2.77868e-07
1.6636e-07
2.77915e-07
2.5372e-07
2.52626e-07
1.66114e-07
2.77881e-07
1.6636e-07
2.77921e-07
1.65577e-07
1.65578e-07
1.65578e-07
1.65577e-07
1.65577e-07
1.65578e-07
1.65578e-07
1.63941e-07
1.74433e-07
1.65592e-07
1.66698e-07
1.63989e-07
1.74478e-07
1.65592e-07
2.53734e-07
2.52639e-07
1.63941e-07
1.65592e-07
1.74435e-07
1.66699e-07
1.63989e-07
1.65592e-07
1.7448e-07
1.7267e-07
1.7267e-07
1.67292e-07
1.72374e-07
1.72372e-07
1.66115e-07
2.77869e-07
1.6636e-07
2.77915e-07
2.5372e-07
2.52626e-07
1.66114e-07
2.77882e-07
1.6636e-07
2.77921e-07
1.65577e-07
1.65578e-07
1.65578e-07
1.65577e-07
1.65577e-07
1.65578e-07
1.65578e-07
1.63941e-07
1.74433e-07
1.65592e-07
1.66698e-07
1.63989e-07
1.74477e-07
1.65592e-07
2.53733e-07
2.52639e-07
1.63941e-07
1.65592e-07
1.74435e-07
1.66699e-07
1.63989e-07
1.65592e-07
1.7448e-07
1.7267e-07
1.7267e-07
1.67292e-07
1.72374e-07
1.72372e-07
1.66115e-07
2.77868e-07
1.6636e-07
2.77915e-07
2.5372e-07
2.52626e-07
1.66114e-07
2.77881e-07
1.6636e-07
2.77921e-07
1.65577e-07
1.65578e-07
1.65578e-07
1.65577e-07
1.65577e-07
1.65578e-07
1.65578e-07
1.63941e-07
1.74433e-07
1.65592e-07
1.66698e-07
1.63989e-07
1.74478e-07
1.65592e-07
2.53734e-07
2.52639e-07
1.63941e-07
1.65592e-07
1.74435e-07
1.66699e-07
1.63989e-07
1.65592e-07
1.7448e-07
1.7267e-07
1.7267e-07
1.67292e-07
1.72374e-07
1.72372e-07
1.66115e-07
2.77868e-07
1.6636e-07
2.77915e-07
2.5372e-07
2.52626e-07
1.66114e-07
2.77882e-07
1.6636e-07
2.77921e-07
1.65577e-07
1.65578e-07
1.65578e-07
1.65577e-07
1.65577e-07
1.65578e-07
1.65578e-07
1.63941e-07
1.74432e-07
1.65592e-07
1.66698e-07
1.63989e-07
1.74478e-07
1.65592e-07
2.53734e-07
2.52639e-07
1.63941e-07
1.65592e-07
1.74435e-07
1.66699e-07
1.63989e-07
1.65592e-07
1.7448e-07
1.7267e-07
1.7267e-07
1.67292e-07
1.72374e-07
1.72372e-07
1.66115e-07
2.77869e-07
1.6636e-07
2.77915e-07
2.5372e-07
2.52626e-07
1.66114e-07
2.77882e-07
1.6636e-07
2.77921e-07
1.65577e-07
1.65578e-07
1.65578e-07
1.65577e-07
1.65577e-07
1.65578e-07
1.65578e-07
1.63941e-07
1.74432e-07
1.65591e-07
1.66698e-07
1.63989e-07
1.74477e-07
1.65591e-07
2.53733e-07
2.52639e-07
1.63941e-07
1.65592e-07
1.74435e-07
1.66699e-07
1.63989e-07
1.65592e-07
1.7448e-07
1.7267e-07
1.7267e-07
1.67292e-07
1.72374e-07
1.72372e-07
1.66115e-07
2.77867e-07
1.6636e-07
2.77913e-07
2.53722e-07
2.52628e-07
1.66114e-07
2.77882e-07
1.6636e-07
2.77921e-07
1.65577e-07
1.65578e-07
1.65578e-07
1.65577e-07
1.65577e-07
1.65578e-07
1.65578e-07
1.63941e-07
1.74433e-07
1.65592e-07
1.66698e-07
1.63989e-07
1.74478e-07
1.65592e-07
2.53733e-07
2.52639e-07
1.63941e-07
1.65592e-07
1.74435e-07
1.66699e-07
1.63989e-07
1.65592e-07
1.7448e-07
1.7267e-07
1.7267e-07
1.67292e-07
1.72374e-07
1.72372e-07
1.66115e-07
2.77866e-07
1.66361e-07
2.77913e-07
2.53723e-07
2.52629e-07
1.66114e-07
2.77882e-07
1.6636e-07
2.77921e-07
1.65577e-07
1.65578e-07
1.65578e-07
1.65577e-07
1.65577e-07
1.65578e-07
1.65578e-07
1.63941e-07
1.74433e-07
1.65592e-07
1.66698e-07
1.63989e-07
1.74478e-07
1.65592e-07
2.53734e-07
2.52639e-07
1.63941e-07
1.65592e-07
1.74435e-07
1.66699e-07
1.63989e-07
1.65592e-07
1.7448e-07
1.7267e-07
1.7267e-07
1.67292e-07
1.72374e-07
1.72372e-07
1.66115e-07
2.77866e-07
1.66361e-07
2.77913e-07
2.53723e-07
2.52629e-07
1.66114e-07
2.77881e-07
1.6636e-07
2.77921e-07
1.65577e-07
1.65578e-07
1.65578e-07
1.65577e-07
1.65577e-07
1.65578e-07
1.65578e-07
1.63941e-07
1.74433e-07
1.65592e-07
1.66698e-07
1.63989e-07
1.74478e-07
1.65592e-07
2.53734e-07
2.52639e-07
1.63941e-07
1.65592e-07
1.74435e-07
1.66699e-07
1.63989e-07
1.65592e-07
1.7448e-07
1.7267e-07
1.7267e-07
1.67292e-07
1.72374e-07
1.72372e-07
1.66115e-07
2.77866e-07
1.66361e-07
2.77913e-07
2.53723e-07
2.52629e-07
1.66114e-07
2.77881e-07
1.6636e-07
2.77921e-07
1.65577e-07
1.65578e-07
1.65578e-07
1.65577e-07
1.65577e-07
1.65578e-07
1.65578e-07
1.63941e-07
1.74433e-07
1.65592e-07
1.66698e-07
1.63989e-07
1.74478e-07
1.65592e-07
2.53734e-07
2.52639e-07
1.63941e-07
1.65592e-07
1.74435e-07
1.66699e-07
1.63989e-07
1.65592e-07
1.7448e-07
1.7267e-07
1.7267e-07
1.67292e-07
1.72374e-07
1.72372e-07
1.66115e-07
2.77866e-07
1.66361e-07
2.77913e-07
2.53723e-07
2.52629e-07
1.66114e-07
2.77882e-07
1.6636e-07
2.77921e-07
1.65577e-07
1.65578e-07
1.65578e-07
1.65577e-07
1.65577e-07
1.65578e-07
1.65578e-07
1.63941e-07
1.74433e-07
1.65592e-07
1.66698e-07
1.63989e-07
1.74478e-07
1.65592e-07
2.53734e-07
2.52639e-07
1.63941e-07
1.65592e-07
1.74435e-07
1.66699e-07
1.63989e-07
1.65592e-07
1.7448e-07
1.7267e-07
1.7267e-07
1.67292e-07
1.72374e-07
1.72372e-07
1.66115e-07
2.77866e-07
1.66361e-07
2.77913e-07
2.53723e-07
2.52629e-07
1.66114e-07
2.77882e-07
1.6636e-07
2.77922e-07
1.65577e-07
1.65578e-07
1.65578e-07
1.65577e-07
1.65577e-07
1.65578e-07
1.65578e-07
1.63941e-07
1.74433e-07
1.65591e-07
1.66698e-07
1.63989e-07
1.74477e-07
1.65591e-07
2.53734e-07
2.52639e-07
1.63941e-07
1.65592e-07
1.74435e-07
1.66699e-07
1.63989e-07
1.65592e-07
1.7448e-07
1.7267e-07
1.7267e-07
1.67292e-07
1.72374e-07
1.72372e-07
1.66116e-07
2.77866e-07
1.66361e-07
2.77915e-07
2.53723e-07
2.52631e-07
1.66115e-07
2.77882e-07
1.6636e-07
2.77923e-07
1.65577e-07
1.65578e-07
1.65579e-07
1.65588e-07
1.63945e-07
1.74432e-07
1.65592e-07
1.667e-07
1.63989e-07
1.74479e-07
1.65594e-07
2.53734e-07
2.52641e-07
1.63945e-07
1.65593e-07
1.74435e-07
1.66701e-07
1.63989e-07
1.65594e-07
1.74481e-07
1.72671e-07
1.7267e-07
1.67304e-07
1.72383e-07
1.72382e-07
1.66115e-07
2.77866e-07
2.77908e-07
1.66361e-07
1.63941e-07
1.74434e-07
1.65592e-07
1.66699e-07
1.65592e-07
1.63989e-07
1.74479e-07
1.63941e-07
1.74436e-07
1.65592e-07
1.66699e-07
1.7448e-07
1.65592e-07
1.6399e-07
1.6636e-07
2.77915e-07
1.66115e-07
2.77869e-07
1.6636e-07
2.77908e-07
2.77866e-07
1.66115e-07
1.63988e-07
1.66699e-07
1.74478e-07
1.65592e-07
1.65592e-07
1.63941e-07
1.74434e-07
1.63989e-07
1.66699e-07
1.7448e-07
1.65592e-07
1.74436e-07
1.65592e-07
1.63942e-07
1.72671e-07
1.72668e-07
1.67292e-07
1.72373e-07
1.72371e-07
2.53681e-07
2.52584e-07
2.52626e-07
2.5372e-07
1.67297e-07
1.72373e-07
1.7237e-07
1.7267e-07
1.72667e-07
2.52584e-07
2.53681e-07
1.6394e-07
1.74437e-07
1.65592e-07
1.66699e-07
1.65591e-07
1.63989e-07
1.74481e-07
1.66115e-07
2.77896e-07
2.77938e-07
1.66361e-07
1.63941e-07
1.65593e-07
1.74439e-07
1.667e-07
1.65592e-07
1.74483e-07
1.6399e-07
1.6636e-07
2.77921e-07
1.66115e-07
2.77882e-07
1.63988e-07
1.66699e-07
1.74481e-07
1.65591e-07
1.65592e-07
1.63941e-07
1.74437e-07
1.6636e-07
2.77938e-07
2.77895e-07
1.66115e-07
1.63989e-07
1.667e-07
1.65592e-07
1.74483e-07
1.65592e-07
1.74439e-07
1.63942e-07
1.66115e-07
2.77867e-07
2.7791e-07
1.66362e-07
1.63942e-07
1.65593e-07
1.74435e-07
1.667e-07
1.65592e-07
1.7448e-07
1.6399e-07
1.66116e-07
2.7788e-07
2.77926e-07
1.66362e-07
1.63988e-07
1.66699e-07
1.74478e-07
1.65592e-07
1.74433e-07
1.65592e-07
1.63942e-07
1.66361e-07
2.77909e-07
2.77866e-07
1.66116e-07
1.63989e-07
1.667e-07
1.65592e-07
1.7448e-07
1.65592e-07
1.74435e-07
1.63943e-07
1.66361e-07
2.77926e-07
2.7788e-07
1.66117e-07
1.72673e-07
1.72671e-07
1.67293e-07
1.72375e-07
1.72374e-07
2.5369e-07
2.52592e-07
2.52639e-07
2.53733e-07
1.67298e-07
1.72375e-07
1.72374e-07
1.72672e-07
1.72671e-07
2.52592e-07
2.53688e-07
1.63942e-07
1.65592e-07
1.74437e-07
1.66699e-07
1.65592e-07
1.74482e-07
1.6399e-07
1.66115e-07
2.77883e-07
2.77927e-07
1.66361e-07
1.66116e-07
2.77884e-07
2.77924e-07
1.66362e-07
1.63989e-07
1.667e-07
1.65592e-07
1.7448e-07
1.65592e-07
1.74435e-07
1.63942e-07
1.63989e-07
1.66699e-07
1.65592e-07
1.74482e-07
1.65592e-07
1.74438e-07
1.63942e-07
1.66361e-07
2.77927e-07
2.77883e-07
1.66116e-07
1.66361e-07
2.77924e-07
2.77884e-07
1.66116e-07
2.53686e-07
2.52592e-07
2.53734e-07
2.52638e-07
1.67298e-07
1.72374e-07
1.72373e-07
1.72671e-07
1.7267e-07
2.52593e-07
2.53685e-07
2.52638e-07
2.53734e-07
2.53678e-07
2.52584e-07
2.53729e-07
2.52632e-07
1.72671e-07
1.72669e-07
1.67292e-07
1.72374e-07
1.72372e-07
2.52584e-07
2.53678e-07
2.52632e-07
2.5373e-07
1.67297e-07
1.72374e-07
1.72372e-07
1.72671e-07
1.72669e-07
1.66115e-07
2.77866e-07
1.66361e-07
2.77909e-07
1.63941e-07
1.74433e-07
1.65592e-07
1.66699e-07
1.63989e-07
1.74479e-07
1.65592e-07
1.63941e-07
1.74436e-07
1.65592e-07
1.66699e-07
1.63989e-07
1.7448e-07
1.65592e-07
1.6636e-07
2.77915e-07
2.77869e-07
1.66115e-07
1.6636e-07
2.77909e-07
2.77867e-07
1.66115e-07
1.63988e-07
1.66699e-07
1.74478e-07
1.65592e-07
1.74434e-07
1.65592e-07
1.63941e-07
1.63989e-07
1.66699e-07
1.7448e-07
1.65592e-07
1.74436e-07
1.65592e-07
1.63942e-07
1.7267e-07
1.72668e-07
1.67292e-07
1.72373e-07
1.72371e-07
2.53681e-07
2.52584e-07
2.52626e-07
2.5372e-07
1.67297e-07
1.72373e-07
1.7237e-07
1.7267e-07
1.72668e-07
2.52584e-07
2.53681e-07
1.6394e-07
1.74437e-07
1.65592e-07
1.66698e-07
1.63988e-07
1.74481e-07
1.65591e-07
1.66115e-07
2.77895e-07
1.66361e-07
2.77938e-07
1.63941e-07
1.65592e-07
1.74439e-07
1.667e-07
1.63989e-07
1.65592e-07
1.74483e-07
1.6636e-07
2.77921e-07
2.77882e-07
1.66115e-07
1.63988e-07
1.66699e-07
1.74481e-07
1.65591e-07
1.74437e-07
1.65592e-07
1.63941e-07
1.6636e-07
2.77938e-07
2.77896e-07
1.66115e-07
1.63989e-07
1.667e-07
1.65592e-07
1.74483e-07
1.65592e-07
1.74439e-07
1.63942e-07
1.66115e-07
2.77866e-07
1.66361e-07
2.7791e-07
1.63942e-07
1.65592e-07
1.74435e-07
1.667e-07
1.6399e-07
1.65592e-07
1.7448e-07
1.66116e-07
2.7788e-07
1.66362e-07
2.77927e-07
1.63989e-07
1.66699e-07
1.74477e-07
1.65592e-07
1.74433e-07
1.65592e-07
1.63942e-07
1.66361e-07
2.77909e-07
2.77867e-07
1.66116e-07
1.6399e-07
1.667e-07
1.65592e-07
1.7448e-07
1.65592e-07
1.74435e-07
1.63943e-07
1.66361e-07
2.77926e-07
2.7788e-07
1.66117e-07
1.72672e-07
1.72671e-07
1.67293e-07
1.72375e-07
1.72374e-07
2.53688e-07
2.52592e-07
2.52639e-07
2.53734e-07
1.67298e-07
1.72375e-07
1.72374e-07
1.72672e-07
1.72671e-07
2.52592e-07
2.53688e-07
1.63942e-07
1.65592e-07
1.74437e-07
1.66699e-07
1.6399e-07
1.65592e-07
1.74482e-07
1.66115e-07
2.77882e-07
1.66361e-07
2.77926e-07
1.66116e-07
2.77884e-07
1.66362e-07
2.77925e-07
1.63989e-07
1.667e-07
1.65592e-07
1.7448e-07
1.65592e-07
1.74435e-07
1.63942e-07
1.63989e-07
1.66699e-07
1.65592e-07
1.74482e-07
1.65592e-07
1.74438e-07
1.63942e-07
1.66361e-07
2.77926e-07
2.77882e-07
1.66116e-07
1.66361e-07
2.77924e-07
2.77885e-07
1.66116e-07
2.53685e-07
2.52593e-07
2.53734e-07
2.52638e-07
1.67298e-07
1.72374e-07
1.72373e-07
1.72671e-07
1.7267e-07
2.52593e-07
2.53686e-07
2.52638e-07
2.53734e-07
2.53678e-07
2.52584e-07
2.5373e-07
2.52632e-07
1.72671e-07
1.72669e-07
1.67292e-07
1.72374e-07
1.72371e-07
2.52584e-07
2.53678e-07
2.52631e-07
2.53729e-07
1.67297e-07
1.72374e-07
1.72371e-07
1.72671e-07
1.72669e-07
1.66115e-07
2.77867e-07
1.66361e-07
2.77909e-07
1.63941e-07
1.74434e-07
1.65592e-07
1.66699e-07
1.63989e-07
1.74479e-07
1.65592e-07
1.63941e-07
1.74436e-07
1.65592e-07
1.66699e-07
1.63989e-07
1.7448e-07
1.65592e-07
1.6636e-07
2.77915e-07
2.77869e-07
1.66115e-07
1.6636e-07
2.77908e-07
2.77867e-07
1.66115e-07
1.63988e-07
1.66699e-07
1.74478e-07
1.65592e-07
1.74434e-07
1.65592e-07
1.63941e-07
1.63989e-07
1.66699e-07
1.7448e-07
1.65592e-07
1.74436e-07
1.65592e-07
1.63942e-07
1.72671e-07
1.72668e-07
1.67292e-07
1.72373e-07
1.72371e-07
2.53681e-07
2.52584e-07
2.52626e-07
2.5372e-07
1.67297e-07
1.72373e-07
1.7237e-07
1.7267e-07
1.72668e-07
2.52584e-07
2.53681e-07
1.6394e-07
1.74437e-07
1.65591e-07
1.66698e-07
1.63988e-07
1.74481e-07
1.65591e-07
1.66115e-07
2.77896e-07
1.66361e-07
2.77938e-07
1.63941e-07
1.65592e-07
1.74439e-07
1.667e-07
1.63989e-07
1.65592e-07
1.74483e-07
1.6636e-07
2.77921e-07
2.77882e-07
1.66115e-07
1.63988e-07
1.66699e-07
1.74481e-07
1.65591e-07
1.74437e-07
1.65592e-07
1.63941e-07
1.6636e-07
2.77938e-07
2.77896e-07
1.66115e-07
1.63989e-07
1.667e-07
1.65592e-07
1.74483e-07
1.65592e-07
1.74439e-07
1.63942e-07
1.66115e-07
2.77866e-07
1.66361e-07
2.7791e-07
1.63942e-07
1.65592e-07
1.74435e-07
1.667e-07
1.6399e-07
1.65592e-07
1.7448e-07
1.66116e-07
2.7788e-07
1.66362e-07
2.77926e-07
1.63988e-07
1.66699e-07
1.74478e-07
1.65592e-07
1.74433e-07
1.65592e-07
1.63942e-07
1.66361e-07
2.77909e-07
2.77866e-07
1.66116e-07
1.6399e-07
1.667e-07
1.65592e-07
1.7448e-07
1.65592e-07
1.74435e-07
1.63943e-07
1.66361e-07
2.77926e-07
2.7788e-07