/*--------------------------------*- C++ -*----------------------------------*\
| =========                 |                                                 |
| \\      /  F ield         | OpenFOAM: The Open Source CFD Toolbox           |
|  \\    /   O peration     | Version:  2206                                  |
|   \\  /    A nd           | Website:  www.openfoam.com                      |
|    \\/     M anipulation  |                                                 |
\*---------------------------------------------------------------------------*/
FoamFile
{
    version     2.0;
    format      ascii;
    arch        "LSB;label=32;scalar=64";
    class       volScalarField;
    location    "60";
    object      k;
}
// * * * * * * * * * * * * * * * * * * * * * * * * * * * * * * * * * * * * * //

dimensions      [0 2 -2 0 0 0 0];

internalField   nonuniform List<scalar> 
28907
(
1.73131e-05
1.83721e-05
1.83721e-05
1.73133e-05
1.83725e-05
1.83718e-05
1.83728e-05
1.8372e-05
1.73131e-05
1.83723e-05
1.83725e-05
1.73131e-05
1.73135e-05
1.7313e-05
1.9622e-05
1.96221e-05
1.96218e-05
1.96219e-05
3.70316e-06
3.71121e-06
3.70348e-06
3.71154e-06
1.7314e-05
1.00864e-05
1.00864e-05
1.01047e-05
1.01047e-05
1.17968e-05
6.44295e-06
6.44001e-06
1.17911e-05
1.17969e-05
6.44285e-06
6.43996e-06
1.17912e-05
1.49747e-05
1.83723e-05
1.23909e-05
1.90359e-05
1.2405e-05
1.9036e-05
1.49728e-05
1.49748e-05
1.83722e-05
1.23909e-05
1.90359e-05
1.2405e-05
1.9036e-05
1.49729e-05
3.70357e-06
3.71159e-06
1.73141e-05
1.00866e-05
1.00865e-05
1.01048e-05
1.01047e-05
3.70323e-06
3.71128e-06
1.17967e-05
6.44274e-06
6.43985e-06
1.1791e-05
1.49745e-05
1.83726e-05
1.23909e-05
1.90358e-05
1.2405e-05
1.90359e-05
1.49727e-05
1.17967e-05
6.44279e-06
6.43987e-06
1.1791e-05
1.49746e-05
1.83719e-05
1.90357e-05
1.23907e-05
1.90358e-05
1.24047e-05
1.49727e-05
1.49748e-05
1.83729e-05
1.23911e-05
1.9036e-05
1.24052e-05
1.90361e-05
1.49729e-05
1.1797e-05
6.44279e-06
6.4399e-06
1.17912e-05
1.49748e-05
1.90358e-05
1.23909e-05
1.90359e-05
1.49729e-05
1.1797e-05
6.44283e-06
1.17912e-05
3.70347e-06
3.71148e-06
1.73139e-05
1.00863e-05
1.00863e-05
1.01045e-05
3.70319e-06
1.90358e-05
1.23909e-05
1.49727e-05
1.90358e-05
1.2391e-05
1.49728e-05
6.44284e-06
1.17911e-05
6.44272e-06
1.17911e-05
1.00863e-05
1.00865e-05
3.70317e-06
3.70354e-06
3.71105e-06
3.70316e-06
3.7114e-06
3.70348e-06
1.01043e-05
1.01043e-05
1.7313e-05
1.00864e-05
1.00864e-05
3.70317e-06
3.71106e-06
3.70349e-06
3.71142e-06
1.73135e-05
1.00864e-05
1.00864e-05
1.01043e-05
1.01043e-05
3.71108e-06
3.70326e-06
3.71143e-06
3.70355e-06
9.32042e-06
3.27353e-06
3.27248e-06
9.32943e-06
3.26653e-06
3.26558e-06
1.2216e-05
1.40698e-05
1.01044e-05
6.36623e-06
6.37551e-06
1.40743e-05
1.22066e-05
1.22136e-05
1.40689e-05
1.01044e-05
6.36459e-06
6.37393e-06
1.40734e-05
1.22042e-05
1.22068e-05
6.37568e-06
1.40746e-05
1.00866e-05
1.22165e-05
6.36635e-06
1.40702e-05
1.22044e-05
6.37412e-06
1.40737e-05
1.00866e-05
1.22141e-05
6.36474e-06
1.40693e-05
9.32912e-06
3.26648e-06
3.26553e-06
3.2734e-06
3.27238e-06
9.3203e-06
4.72073e-06
5.04618e-06
1.12847e-05
1.17913e-05
4.73595e-06
5.02981e-06
1.12769e-05
3.43663e-06
6.43984e-06
9.62867e-06
9.64993e-06
3.42763e-06
3.42768e-06
9.65018e-06
6.44307e-06
3.43673e-06
9.62888e-06
4.73583e-06
1.17966e-05
5.02975e-06
1.12767e-05
5.0461e-06
1.12845e-05
4.72069e-06
4.72082e-06
5.04618e-06
1.1285e-05
1.17914e-05
4.73605e-06
5.02979e-06
1.12771e-05
3.43661e-06
6.4398e-06
9.62914e-06
9.6504e-06
3.42761e-06
3.42766e-06
9.65067e-06
6.44296e-06
3.43672e-06
9.62935e-06
4.73594e-06
1.17967e-05
5.02973e-06
1.12769e-05
5.04609e-06
1.12848e-05
4.72078e-06
3.71149e-06
3.70363e-06
9.3205e-06
3.27265e-06
3.27342e-06
9.32947e-06
3.26573e-06
3.26646e-06
1.22138e-05
1.40691e-05
1.01046e-05
6.36478e-06
1.40735e-05
6.37415e-06
1.22044e-05
1.22161e-05
1.407e-05
1.01044e-05
6.36611e-06
6.37542e-06
1.40744e-05
1.22067e-05
1.22046e-05
6.37431e-06
1.40738e-05
1.00868e-05
1.40694e-05
1.22143e-05
6.36489e-06
1.22069e-05
6.37559e-06
1.40747e-05
1.00866e-05
1.22165e-05
6.36623e-06
1.40703e-05
9.32923e-06
3.26568e-06
3.26641e-06
3.27256e-06
3.27333e-06
9.32043e-06
3.71118e-06
3.70329e-06
4.7208e-06
1.12848e-05
5.04612e-06
1.17912e-05
4.73604e-06
1.1277e-05
5.02973e-06
3.43661e-06
6.43972e-06
9.62904e-06
9.6503e-06
3.4276e-06
3.42767e-06
9.65056e-06
6.44284e-06
3.43674e-06
9.62925e-06
4.73589e-06
1.17965e-05
1.12768e-05
5.02965e-06
1.12846e-05
5.046e-06
4.72075e-06
4.7207e-06
5.04616e-06
1.12846e-05
1.17912e-05
4.73594e-06
5.02978e-06
1.12768e-05
3.43659e-06
6.43974e-06
9.62858e-06
9.64984e-06
3.42759e-06
3.42764e-06
9.65008e-06
6.44288e-06
3.4367e-06
9.62877e-06
4.7358e-06
1.17965e-05
5.0297e-06
1.12766e-05
5.04605e-06
1.12844e-05
4.72065e-06
4.72082e-06
1.1285e-05
5.04616e-06
1.17914e-05
4.73606e-06
1.12771e-05
5.02975e-06
3.43661e-06
6.43971e-06
9.62911e-06
9.65037e-06
3.4276e-06
3.42765e-06
9.65064e-06
6.44288e-06
3.43672e-06
9.62932e-06
4.73593e-06
1.17966e-05
1.12769e-05
5.02969e-06
1.12847e-05
5.04604e-06
4.72078e-06
4.72073e-06
5.0462e-06
1.12847e-05
1.17914e-05
4.73596e-06
5.0298e-06
1.12769e-05
3.43659e-06
6.43971e-06
9.6286e-06
9.64986e-06
3.42759e-06
3.42765e-06
9.65013e-06
3.4367e-06
9.6288e-06
4.73583e-06
1.17966e-05
5.02973e-06
1.12767e-05
5.04607e-06
1.12845e-05
4.72069e-06
3.71139e-06
3.70352e-06
9.32049e-06
3.26566e-06
3.26646e-06
1.22137e-05
1.40689e-05
1.01042e-05
6.36466e-06
1.40734e-05
6.37402e-06
1.22043e-05
1.2216e-05
1.40698e-05
1.01043e-05
6.36619e-06
6.37547e-06
1.40743e-05
1.22066e-05
1.22045e-05
1.40737e-05
1.00865e-05
1.40692e-05
6.36478e-06
1.22068e-05
1.00865e-05
6.36629e-06
1.40701e-05
9.32923e-06
3.26559e-06
3.26641e-06
3.27248e-06
3.27332e-06
9.32043e-06
3.71112e-06
3.70325e-06
3.43663e-06
6.43973e-06
9.62863e-06
9.64987e-06
3.42762e-06
4.73578e-06
1.17964e-05
1.12766e-05
5.02968e-06
1.12844e-05
5.04601e-06
4.72064e-06
3.43662e-06
6.43968e-06
9.62903e-06
9.65029e-06
3.42761e-06
4.73591e-06
1.17965e-05
1.12768e-05
5.02966e-06
1.12846e-05
5.046e-06
4.72076e-06
1.2216e-05
1.40698e-05
1.01043e-05
6.36612e-06
1.40743e-05
6.3754e-06
1.22066e-05
1.22137e-05
1.4069e-05
1.01044e-05
6.36468e-06
1.40735e-05
6.37405e-06
1.22043e-05
9.32922e-06
3.26645e-06
3.26561e-06
3.27336e-06
3.27246e-06
9.32043e-06
3.71108e-06
3.71148e-06
3.70316e-06
3.71106e-06
3.70348e-06
3.71142e-06
9.32899e-06
3.26647e-06
3.26552e-06
3.27338e-06
3.27238e-06
9.32024e-06
1.22065e-05
1.40742e-05
6.37545e-06
1.00864e-05
1.2216e-05
6.36624e-06
1.40699e-05
1.22041e-05
1.40732e-05
6.37387e-06
1.00864e-05
1.22136e-05
6.36459e-06
1.4069e-05
9.32025e-06
3.27337e-06
3.27236e-06
9.32904e-06
3.26646e-06
3.26552e-06
1.22159e-05
6.36624e-06
1.01043e-05
1.40698e-05
6.37549e-06
1.22066e-05
1.40742e-05
1.22136e-05
6.36459e-06
1.01043e-05
1.40689e-05
6.37391e-06
1.22042e-05
1.40733e-05
3.71107e-06
3.70317e-06
3.71142e-06
3.70349e-06
9.32025e-06
3.27339e-06
3.27239e-06
9.32904e-06
3.26648e-06
3.26554e-06
1.22159e-05
1.40698e-05
1.01043e-05
6.36624e-06
6.3755e-06
1.40742e-05
1.22066e-05
1.22136e-05
1.40689e-05
1.01043e-05
6.36459e-06
6.37392e-06
1.40733e-05
1.22042e-05
1.22065e-05
6.37548e-06
1.40742e-05
1.00864e-05
1.2216e-05
6.36627e-06
1.40699e-05
1.22042e-05
6.37391e-06
1.40733e-05
1.00864e-05
1.22137e-05
6.36462e-06
1.4069e-05
9.32908e-06
3.26649e-06
3.26555e-06
3.2734e-06
3.27239e-06
9.32032e-06
1.47201e-05
1.73137e-05
1.62399e-05
1.6239e-05
1.62414e-05
1.62404e-05
1.4717e-05
1.47203e-05
1.73138e-05
1.62391e-05
1.62401e-05
1.62405e-05
1.62415e-05
1.47172e-05
1.47202e-05
1.73137e-05
1.6239e-05
1.624e-05
1.62404e-05
1.62414e-05
1.47171e-05
1.47202e-05
1.73137e-05
1.62399e-05
1.6239e-05
1.62413e-05
1.62404e-05
1.47171e-05
1.47168e-05
1.62412e-05
1.62402e-05
1.73131e-05
1.47201e-05
1.624e-05
1.6239e-05
1.472e-05
1.73135e-05
1.62399e-05
1.62389e-05
1.62412e-05
1.62403e-05
1.4717e-05
1.9622e-05
2.00502e-05
2.00503e-05
2.00501e-05
2.00502e-05
2.03788e-05
2.03789e-05
1.96221e-05
2.00502e-05
2.00504e-05
2.00501e-05
2.00503e-05
2.03788e-05
2.03789e-05
2.005e-05
2.00502e-05
2.00499e-05
2.03787e-05
2.03788e-05
2.00501e-05
2.00502e-05
2.005e-05
2.03787e-05
2.03789e-05
1.47172e-05
1.73135e-05
1.62417e-05
1.62407e-05
1.47208e-05
1.62403e-05
1.62393e-05
1.66943e-05
1.4602e-05
1.69411e-05
1.49731e-05
1.66954e-05
1.45997e-05
1.69407e-05
1.61046e-05
1.53266e-05
1.24047e-05
1.37611e-05
1.53295e-05
1.37663e-05
1.61034e-05
1.61037e-05
1.37666e-05
1.53298e-05
1.23912e-05
1.53269e-05
1.61052e-05
1.37615e-05
1.66949e-05
1.49745e-05
1.45994e-05
1.69402e-05
1.46018e-05
1.69409e-05
1.66943e-05
1.66943e-05
1.46021e-05
1.69412e-05
1.49733e-05
1.66954e-05
1.45998e-05
1.69407e-05
1.61045e-05
1.53263e-05
1.24047e-05
1.37612e-05
1.37663e-05
1.53292e-05
1.61033e-05
1.61036e-05
1.37666e-05
1.53295e-05
1.23912e-05
1.61051e-05
1.37615e-05
1.53266e-05
1.66949e-05
1.49746e-05
1.45995e-05
1.69403e-05
1.46018e-05
1.69409e-05
1.66943e-05
1.47174e-05
1.73137e-05
1.62409e-05
1.62419e-05
1.62395e-05
1.47209e-05
1.62405e-05
1.66942e-05
1.4602e-05
1.69409e-05
1.4973e-05
1.66953e-05
1.45997e-05
1.69405e-05
1.61046e-05
1.53263e-05
1.24047e-05
1.37611e-05
1.53292e-05
1.37663e-05
1.61033e-05
1.61036e-05
1.37666e-05
1.53295e-05
1.23912e-05
1.53266e-05
1.61051e-05
1.37615e-05
1.66948e-05
1.49743e-05
1.45993e-05
1.69401e-05
1.46018e-05
1.69407e-05
1.66942e-05
1.6694e-05
1.6941e-05
1.46018e-05
1.4973e-05
1.66951e-05
1.69405e-05
1.45995e-05
1.61042e-05
1.5326e-05
1.24045e-05
1.37609e-05
1.3766e-05
1.5329e-05
1.6103e-05
1.61033e-05
1.37663e-05
1.53292e-05
1.2391e-05
1.61048e-05
1.37612e-05
1.53263e-05
1.66946e-05
1.49743e-05
1.69401e-05
1.45991e-05
1.69406e-05
1.46015e-05
1.6694e-05
1.66945e-05
1.46022e-05
1.69412e-05
1.49732e-05
1.66956e-05
1.45999e-05
1.69408e-05
1.61049e-05
1.53269e-05
1.24049e-05
1.37614e-05
1.53298e-05
1.37665e-05
1.61037e-05
1.6104e-05
1.37669e-05
1.53301e-05
1.23914e-05
1.61055e-05
1.53272e-05
1.37618e-05
1.66951e-05
1.49746e-05
1.45996e-05
1.69404e-05
1.4602e-05
1.6941e-05
1.66945e-05
1.66943e-05
1.69412e-05
1.4602e-05
1.49733e-05
1.66954e-05
1.69407e-05
1.45997e-05
1.61046e-05
1.53265e-05
1.24046e-05
1.3761e-05
1.37662e-05
1.53295e-05
1.61034e-05
1.61036e-05
1.37665e-05
1.61051e-05
1.37614e-05
1.66949e-05
1.49746e-05
1.69403e-05
1.45994e-05
1.69409e-05
1.46017e-05
1.66943e-05
1.47172e-05
1.73135e-05
1.62407e-05
1.62394e-05
1.62403e-05
1.61046e-05
1.53266e-05
1.24047e-05
1.37611e-05
1.53295e-05
1.37662e-05
1.61034e-05
1.66947e-05
1.49743e-05
1.69401e-05
1.45993e-05
1.69407e-05
1.46016e-05
1.66942e-05
1.61045e-05
1.53263e-05
1.24047e-05
1.37612e-05
1.37663e-05
1.53293e-05
1.61033e-05
1.66947e-05
1.49744e-05
1.69402e-05
1.45994e-05
1.69408e-05
1.46017e-05
1.66942e-05
1.472e-05
1.73136e-05
1.62399e-05
1.62389e-05
1.4717e-05
1.62412e-05
1.62402e-05
1.47169e-05
1.73132e-05
1.62412e-05
1.62402e-05
1.47201e-05
1.624e-05
1.6239e-05
1.9622e-05
1.83728e-05
1.83724e-05
1.73135e-05
1.9622e-05
1.83727e-05
1.83724e-05
1.73134e-05
1.9622e-05
1.83727e-05
1.83724e-05
1.73134e-05
1.9622e-05
1.83727e-05
1.83724e-05
1.73134e-05
1.9622e-05
1.83727e-05
1.83724e-05
1.73134e-05
1.9622e-05
1.83727e-05
1.83724e-05
1.73134e-05
1.9622e-05
1.83727e-05
1.83724e-05
1.73134e-05
1.9622e-05
1.83727e-05
1.83724e-05
1.73134e-05
1.9622e-05
1.83727e-05
1.83724e-05
1.73134e-05
1.9622e-05
1.83727e-05
1.83724e-05
1.73134e-05
1.9622e-05
1.83727e-05
1.83724e-05
1.73134e-05
1.9622e-05
1.83727e-05
1.83724e-05
1.73134e-05
1.9622e-05
1.83727e-05
1.83724e-05
1.73134e-05
1.9622e-05
1.83727e-05
1.83724e-05
1.73134e-05
1.9622e-05
1.83727e-05
1.83724e-05
1.73134e-05
1.9622e-05
1.83727e-05
1.83724e-05
1.73134e-05
1.9622e-05
1.83727e-05
1.83724e-05
1.73135e-05
1.83721e-05
1.8372e-05
1.83721e-05
1.8372e-05
1.73137e-05
1.73132e-05
1.83725e-05
1.83717e-05
1.83725e-05
1.83717e-05
1.8372e-05
1.83728e-05
1.83719e-05
1.73135e-05
1.7313e-05
1.83725e-05
1.83724e-05
1.83724e-05
1.73131e-05
1.73135e-05
1.73131e-05
1.83721e-05
1.8372e-05
1.8372e-05
1.8372e-05
1.73137e-05
1.73132e-05
1.83725e-05
1.83717e-05
1.83725e-05
1.83717e-05
1.8372e-05
1.83728e-05
1.83719e-05
1.73134e-05
1.7313e-05
1.83725e-05
1.83724e-05
1.83724e-05
1.73131e-05
1.73136e-05
1.73131e-05
1.83721e-05
1.8372e-05
1.83721e-05
1.8372e-05
1.73137e-05
1.73132e-05
1.83725e-05
1.83717e-05
1.83725e-05
1.83717e-05
1.8372e-05
1.83728e-05
1.83719e-05
1.73134e-05
1.7313e-05
1.83724e-05
1.83724e-05
1.83724e-05
1.73131e-05
1.73136e-05
1.73131e-05
1.83721e-05
1.8372e-05
1.83721e-05
1.8372e-05
1.73137e-05
1.73132e-05
1.83725e-05
1.83717e-05
1.83725e-05
1.83717e-05
1.8372e-05
1.83728e-05
1.83719e-05
1.73134e-05
1.7313e-05
1.83724e-05
1.83724e-05
1.83724e-05
1.73131e-05
1.73136e-05
1.73131e-05
1.83721e-05
1.8372e-05
1.8372e-05
1.8372e-05
1.73137e-05
1.73132e-05
1.83726e-05
1.83717e-05
1.83725e-05
1.83717e-05
1.8372e-05
1.83728e-05
1.83719e-05
1.73134e-05
1.7313e-05
1.83724e-05
1.83724e-05
1.83724e-05
1.73131e-05
1.73136e-05
1.73131e-05
1.83721e-05
1.8372e-05
1.83721e-05
1.8372e-05
1.73137e-05
1.73132e-05
1.83726e-05
1.83717e-05
1.83725e-05
1.83717e-05
1.8372e-05
1.83728e-05
1.83719e-05
1.73134e-05
1.7313e-05
1.83724e-05
1.83724e-05
1.83724e-05
1.73131e-05
1.73136e-05
1.73131e-05
1.83721e-05
1.8372e-05
1.8372e-05
1.8372e-05
1.73137e-05
1.73132e-05
1.83726e-05
1.83717e-05
1.83725e-05
1.83717e-05
1.8372e-05
1.83728e-05
1.83719e-05
1.73134e-05
1.7313e-05
1.83724e-05
1.83724e-05
1.83724e-05
1.73131e-05
1.73136e-05
1.73131e-05
1.83721e-05
1.8372e-05
1.8372e-05
1.8372e-05
1.73137e-05
1.73132e-05
1.83726e-05
1.83717e-05
1.83725e-05
1.83717e-05
1.8372e-05
1.83728e-05
1.83719e-05
1.73134e-05
1.7313e-05
1.83725e-05
1.83724e-05
1.83724e-05
1.73131e-05
1.73136e-05
1.73131e-05
1.83721e-05
1.8372e-05
1.8372e-05
1.8372e-05
1.73137e-05
1.73132e-05
1.83726e-05
1.83717e-05
1.83725e-05
1.83717e-05
1.8372e-05
1.83728e-05
1.83719e-05
1.73135e-05
1.7313e-05
1.83725e-05
1.83724e-05
1.83724e-05
1.73131e-05
1.73136e-05
1.73131e-05
1.83721e-05
1.8372e-05
1.83721e-05
1.8372e-05
1.73137e-05
1.73132e-05
1.83726e-05
1.83717e-05
1.83725e-05
1.83717e-05
1.8372e-05
1.83728e-05
1.8372e-05
1.73135e-05
1.7313e-05
1.83725e-05
1.83724e-05
1.83724e-05
1.73131e-05
1.73136e-05
1.73131e-05
1.83721e-05
1.8372e-05
1.83721e-05
1.8372e-05
1.73137e-05
1.73132e-05
1.83725e-05
1.83717e-05
1.83725e-05
1.83717e-05
1.8372e-05
1.83728e-05
1.83719e-05
1.73135e-05
1.7313e-05
1.83725e-05
1.83724e-05
1.83724e-05
1.73131e-05
1.73135e-05
1.7313e-05
1.83721e-05
1.8372e-05
1.83721e-05
1.8372e-05
1.73137e-05
1.73132e-05
1.83725e-05
1.83717e-05
1.83725e-05
1.83717e-05
1.8372e-05
1.83728e-05
1.83719e-05
1.73135e-05
1.7313e-05
1.83725e-05
1.83724e-05
1.83724e-05
1.73131e-05
1.73135e-05
1.73131e-05
1.83721e-05
1.8372e-05
1.83721e-05
1.8372e-05
1.73137e-05
1.73132e-05
1.83725e-05
1.83717e-05
1.83725e-05
1.83717e-05
1.8372e-05
1.83728e-05
1.83719e-05
1.73135e-05
1.7313e-05
1.83725e-05
1.83724e-05
1.83724e-05
1.73131e-05
1.73135e-05
1.73131e-05
1.83721e-05
1.8372e-05
1.83721e-05
1.8372e-05
1.73137e-05
1.73132e-05
1.83725e-05
1.83717e-05
1.83725e-05
1.83717e-05
1.8372e-05
1.83728e-05
1.83719e-05
1.73135e-05
1.7313e-05
1.83725e-05
1.83724e-05
1.83724e-05
1.73131e-05
1.73135e-05
1.73131e-05
1.83721e-05
1.8372e-05
1.83721e-05
1.8372e-05
1.73137e-05
1.73132e-05
1.83725e-05
1.83717e-05
1.83725e-05
1.83717e-05
1.8372e-05
1.83728e-05
1.83719e-05
1.73135e-05
1.7313e-05
1.83725e-05
1.83724e-05
1.83724e-05
1.73131e-05
1.73135e-05
1.7313e-05
1.83721e-05
1.8372e-05
1.83721e-05
1.8372e-05
1.73137e-05
1.73132e-05
1.83725e-05
1.83717e-05
1.83725e-05
1.83717e-05
1.8372e-05
1.83728e-05
1.8372e-05
1.73135e-05
1.7313e-05
1.83725e-05
1.83724e-05
1.83724e-05
1.73131e-05
1.73135e-05
1.83721e-05
1.8372e-05
1.73137e-05
1.83725e-05
1.83717e-05
1.83722e-05
1.8372e-05
1.73135e-05
1.73145e-05
1.83725e-05
1.8373e-05
1.1791e-05
6.4398e-06
1.17965e-05
6.44295e-06
3.71147e-06
3.70356e-06
1.17909e-05
6.43967e-06
1.17963e-05
6.44273e-06
1.96221e-05
1.96218e-05
1.9622e-05
1.9622e-05
1.96221e-05
1.96219e-05
1.9622e-05
1.49728e-05
1.24048e-05
1.9036e-05
1.83728e-05
1.23911e-05
1.9036e-05
1.49744e-05
3.71136e-06
3.70346e-06
1.49726e-05
1.90357e-05
1.24046e-05
1.83724e-05
1.90357e-05
1.23909e-05
1.49741e-05
1.01042e-05
1.01043e-05
1.7313e-05
1.00863e-05
1.00864e-05
1.1791e-05
6.43979e-06
1.17964e-05
6.44294e-06
3.71146e-06
3.70356e-06
1.17909e-05
6.43967e-06
1.17963e-05
6.44273e-06
1.96221e-05
1.96219e-05
1.9622e-05
1.96221e-05
1.96221e-05
1.96219e-05
1.9622e-05
1.49728e-05
1.24047e-05
1.9036e-05
1.83728e-05
1.49743e-05
1.23911e-05
1.9036e-05
3.71135e-06
3.70345e-06
1.49726e-05
1.90357e-05
1.24046e-05
1.83724e-05
1.49741e-05
1.90357e-05
1.23909e-05
1.01042e-05
1.01043e-05
1.7313e-05
1.00863e-05
1.00864e-05
1.17911e-05
6.43979e-06
1.17964e-05
6.44294e-06
3.71146e-06
3.70357e-06
1.17909e-05
6.43967e-06
1.17963e-05
6.44272e-06
1.96221e-05
1.96219e-05
1.9622e-05
1.96221e-05
1.96221e-05
1.96219e-05
1.9622e-05
1.49728e-05
1.24047e-05
1.9036e-05
1.83728e-05
1.49743e-05
1.23911e-05
1.9036e-05
3.71135e-06
3.70345e-06
1.49726e-05
1.90357e-05
1.24046e-05
1.83724e-05
1.49741e-05
1.90357e-05
1.23909e-05
1.01042e-05
1.01043e-05
1.7313e-05
1.00863e-05
1.00864e-05
1.17911e-05
6.43979e-06
1.17964e-05
6.44294e-06
3.71146e-06
3.70356e-06
1.17909e-05
6.43966e-06
1.17963e-05
6.44272e-06
1.96221e-05
1.96219e-05
1.9622e-05
1.96221e-05
1.96221e-05
1.96219e-05
1.9622e-05
1.49728e-05
1.24047e-05
1.9036e-05
1.83728e-05
1.49743e-05
1.23911e-05
1.9036e-05
3.71135e-06
3.70346e-06
1.49726e-05
1.90357e-05
1.24046e-05
1.83724e-05
1.49741e-05
1.90357e-05
1.23909e-05
1.01042e-05
1.01043e-05
1.7313e-05
1.00863e-05
1.00864e-05
1.1791e-05
6.43979e-06
1.17964e-05
6.44294e-06
3.71146e-06
3.70357e-06
1.17909e-05
6.43967e-06
1.17963e-05
6.44272e-06
1.96221e-05
1.96219e-05
1.9622e-05
1.96221e-05
1.96221e-05
1.96219e-05
1.9622e-05
1.49728e-05
1.24047e-05
1.9036e-05
1.83728e-05
1.49743e-05
1.23911e-05
1.9036e-05
3.71135e-06
3.70345e-06
1.49726e-05
1.90357e-05
1.24046e-05
1.83724e-05
1.49741e-05
1.90357e-05
1.23909e-05
1.01042e-05
1.01043e-05
1.7313e-05
1.00863e-05
1.00864e-05
1.1791e-05
6.43979e-06
1.17964e-05
6.44294e-06
3.71146e-06
3.70357e-06
1.17909e-05
6.43966e-06
1.17963e-05
6.44272e-06
1.96221e-05
1.96219e-05
1.9622e-05
1.96221e-05
1.96221e-05
1.96219e-05
1.9622e-05
1.49728e-05
1.24047e-05
1.9036e-05
1.83728e-05
1.49743e-05
1.23911e-05
1.9036e-05
3.71135e-06
3.70346e-06
1.49726e-05
1.90357e-05
1.24046e-05
1.83724e-05
1.49741e-05
1.90357e-05
1.23909e-05
1.01041e-05
1.01043e-05
1.7313e-05
1.00863e-05
1.00864e-05
1.1791e-05
6.43979e-06
1.17964e-05
6.44294e-06
3.71146e-06
3.70356e-06
1.17909e-05
6.43967e-06
1.17963e-05
6.44272e-06
1.96221e-05
1.96219e-05
1.9622e-05
1.96221e-05
1.96221e-05
1.96219e-05
1.9622e-05
1.49728e-05
1.24047e-05
1.9036e-05
1.83728e-05
1.49743e-05
1.23911e-05
1.9036e-05
3.71135e-06
3.70345e-06
1.49726e-05
1.90357e-05
1.24046e-05
1.83724e-05
1.49741e-05
1.90357e-05
1.23909e-05
1.01042e-05
1.01043e-05
1.7313e-05
1.00863e-05
1.00864e-05
1.1791e-05
6.43979e-06
1.17964e-05
6.44294e-06
3.71146e-06
3.70357e-06
1.17909e-05
6.43966e-06
1.17963e-05
6.44272e-06
1.96221e-05
1.96219e-05
1.9622e-05
1.96221e-05
1.96221e-05
1.96219e-05
1.9622e-05
1.49728e-05
1.24047e-05
1.9036e-05
1.83728e-05
1.49743e-05
1.23911e-05
1.9036e-05
3.71135e-06
3.70346e-06
1.49726e-05
1.90357e-05
1.24046e-05
1.83724e-05
1.49741e-05
1.90357e-05
1.23909e-05
1.01042e-05
1.01043e-05
1.7313e-05
1.00863e-05
1.00864e-05
1.1791e-05
6.43979e-06
1.17964e-05
6.44294e-06
3.71146e-06
3.70357e-06
1.17909e-05
6.43967e-06
1.17963e-05
6.44272e-06
1.96221e-05
1.96219e-05
1.9622e-05
1.96221e-05
1.96221e-05
1.96219e-05
1.9622e-05
1.49728e-05
1.24047e-05
1.9036e-05
1.83728e-05
1.49743e-05
1.23911e-05
1.9036e-05
3.71136e-06
3.70346e-06
1.49726e-05
1.90357e-05
1.24046e-05
1.83724e-05
1.49741e-05
1.90357e-05
1.23909e-05
1.01042e-05
1.01043e-05
1.7313e-05
1.00863e-05
1.00864e-05
1.17911e-05
6.43979e-06
1.17964e-05
6.44293e-06
3.71146e-06
3.70356e-06
1.17909e-05
6.43967e-06
1.17963e-05
6.44273e-06
1.96221e-05
1.96219e-05
1.9622e-05
1.96221e-05
1.96221e-05
1.96219e-05
1.9622e-05
1.49728e-05
1.24047e-05
1.9036e-05
1.83727e-05
1.49743e-05
1.23911e-05
1.9036e-05
3.71135e-06
3.70345e-06
1.49726e-05
1.90357e-05
1.24046e-05
1.83724e-05
1.49741e-05
1.90357e-05
1.23909e-05
1.01042e-05
1.01043e-05
1.7313e-05
1.00863e-05
1.00864e-05
1.17911e-05
6.43979e-06
1.17964e-05
6.44296e-06
3.71145e-06
3.70355e-06
1.17909e-05
6.43964e-06
1.17963e-05
6.4427e-06
1.96221e-05
1.96219e-05
1.9622e-05
1.96221e-05
1.96221e-05
1.96219e-05
1.9622e-05
1.49728e-05
1.24047e-05
1.9036e-05
1.83728e-05
1.49743e-05
1.23911e-05
1.9036e-05
3.71135e-06
3.70345e-06
1.49726e-05
1.90357e-05
1.24046e-05
1.83724e-05
1.49741e-05
1.90357e-05
1.23909e-05
1.01041e-05
1.01043e-05
1.7313e-05
1.00863e-05
1.00864e-05
1.17911e-05
6.43982e-06
1.17964e-05
6.44297e-06
3.71144e-06
3.70354e-06
1.17909e-05
6.43963e-06
1.17963e-05
6.44268e-06
1.96221e-05
1.96219e-05
1.9622e-05
1.96221e-05
1.96221e-05
1.96219e-05
1.9622e-05
1.49728e-05
1.24047e-05
1.9036e-05
1.83728e-05
1.49743e-05
1.23911e-05
1.9036e-05
3.71136e-06
3.70346e-06
1.49726e-05
1.90357e-05
1.24046e-05
1.83724e-05
1.49741e-05
1.90357e-05
1.23909e-05
1.01042e-05
1.01043e-05
1.7313e-05
1.00863e-05
1.00864e-05
1.17911e-05
6.43982e-06
1.17964e-05
6.44297e-06
3.71144e-06
3.70354e-06
1.17909e-05
6.43962e-06
1.17963e-05
6.44268e-06
1.96221e-05
1.96219e-05
1.9622e-05
1.96221e-05
1.96221e-05
1.96219e-05
1.9622e-05
1.49728e-05
1.24047e-05
1.9036e-05
1.83728e-05
1.49743e-05
1.23911e-05
1.9036e-05
3.71135e-06
3.70346e-06
1.49726e-05
1.90357e-05
1.24046e-05
1.83724e-05
1.49741e-05
1.90357e-05
1.23909e-05
1.01042e-05
1.01043e-05
1.7313e-05
1.00863e-05
1.00864e-05
1.17911e-05
6.43982e-06
1.17964e-05
6.44297e-06
3.71144e-06
3.70354e-06
1.17909e-05
6.43962e-06
1.17963e-05
6.44268e-06
1.96221e-05
1.96219e-05
1.9622e-05
1.96221e-05
1.96221e-05
1.96219e-05
1.9622e-05
1.49728e-05
1.24047e-05
1.9036e-05
1.83728e-05
1.49743e-05
1.23911e-05
1.9036e-05
3.71135e-06
3.70346e-06
1.49726e-05
1.90357e-05
1.24046e-05
1.83724e-05
1.49741e-05
1.90357e-05
1.23909e-05
1.01042e-05
1.01043e-05
1.7313e-05
1.00863e-05
1.00864e-05
1.17911e-05
6.43982e-06
1.17964e-05
6.44297e-06
3.71144e-06
3.70354e-06
1.17909e-05
6.43963e-06
1.17963e-05
6.44268e-06
1.96221e-05
1.96219e-05
1.9622e-05
1.96221e-05
1.96221e-05
1.96219e-05
1.9622e-05
1.49728e-05
1.24047e-05
1.9036e-05
1.83728e-05
1.49743e-05
1.23911e-05
1.9036e-05
3.71135e-06
3.70346e-06
1.49726e-05
1.90357e-05
1.24046e-05
1.83724e-05
1.49741e-05
1.90357e-05
1.23909e-05
1.01042e-05
1.01043e-05
1.7313e-05
1.00863e-05
1.00864e-05
1.17911e-05
6.43982e-06
1.17964e-05
6.44297e-06
3.71144e-06
3.70354e-06
1.17909e-05
6.43963e-06
1.17963e-05
6.44269e-06
1.96221e-05
1.96219e-05
1.9622e-05
1.9622e-05
1.96221e-05
1.96219e-05
1.9622e-05
1.49728e-05
1.24047e-05
1.9036e-05
1.83728e-05
1.49743e-05
1.23911e-05
1.9036e-05
3.71135e-06
3.70346e-06
1.49726e-05
1.90357e-05
1.24046e-05
1.83724e-05
1.49741e-05
1.90357e-05
1.23909e-05
1.01042e-05
1.01043e-05
1.7313e-05
1.00863e-05
1.00864e-05
1.17911e-05
6.43982e-06
1.17964e-05
6.443e-06
3.71143e-06
3.70356e-06
1.1791e-05
6.43963e-06
1.17963e-05
6.44271e-06
1.96221e-05
1.96219e-05
1.9622e-05
1.96219e-05
1.4973e-05
1.24047e-05
1.9036e-05
1.83728e-05
1.49743e-05
1.23912e-05
1.9036e-05
3.71135e-06
3.70347e-06
1.49728e-05
1.90357e-05
1.24046e-05
1.83725e-05
1.49741e-05
1.90357e-05
1.2391e-05
1.01042e-05
1.01043e-05
1.73136e-05
1.00867e-05
1.00868e-05
1.17911e-05
6.43976e-06
6.44285e-06
1.17965e-05
1.49727e-05
1.24045e-05
1.90359e-05
1.83721e-05
1.90359e-05
1.49743e-05
1.23909e-05
1.49728e-05
1.24046e-05
1.90359e-05
1.8372e-05
1.23909e-05
1.90359e-05
1.49744e-05
1.17964e-05
6.44293e-06
1.17911e-05
6.4398e-06
1.17965e-05
6.44284e-06
6.43976e-06
1.17912e-05
1.49742e-05
1.83721e-05
1.23909e-05
1.90359e-05
1.90359e-05
1.49728e-05
1.24046e-05
1.49743e-05
1.83721e-05
1.23909e-05
1.90359e-05
1.24046e-05
1.90359e-05
1.49729e-05
1.01045e-05
1.01044e-05
1.73133e-05
1.00866e-05
1.00864e-05
3.71115e-06
3.70322e-06
3.70356e-06
3.71146e-06
1.73137e-05
1.00866e-05
1.00864e-05
1.01045e-05
1.01043e-05
3.70322e-06
3.71114e-06
1.49726e-05
1.24046e-05
1.90358e-05
1.83725e-05
1.90358e-05
1.49741e-05
1.23909e-05
1.17909e-05
6.43969e-06
6.44277e-06
1.17963e-05
1.49726e-05
1.90356e-05
1.24044e-05
1.83717e-05
1.90356e-05
1.23907e-05
1.49741e-05
1.17963e-05
6.44272e-06
1.1791e-05
6.43968e-06
1.4974e-05
1.83726e-05
1.23909e-05
1.90358e-05
1.90358e-05
1.49726e-05
1.24046e-05
1.17963e-05
6.44276e-06
6.43968e-06
1.1791e-05
1.4974e-05
1.83717e-05
1.90356e-05
1.23906e-05
1.90356e-05
1.24043e-05
1.49726e-05
1.17912e-05
6.43968e-06
6.44278e-06
1.17966e-05
1.49728e-05
1.90358e-05
1.24045e-05
1.8372e-05
1.90358e-05
1.23908e-05
1.49744e-05
1.17912e-05
6.43968e-06
6.44283e-06
1.17966e-05
1.49743e-05
1.83728e-05
1.23911e-05
1.9036e-05
1.24048e-05
1.9036e-05
1.49729e-05
1.17965e-05
6.44278e-06
6.43968e-06
1.17912e-05
1.49743e-05
1.8372e-05
1.90358e-05
1.23908e-05
1.90358e-05
1.24045e-05
1.49729e-05
1.17965e-05
6.44282e-06
6.43968e-06
1.17912e-05
1.01042e-05
1.01043e-05
1.7313e-05
1.00862e-05
1.00863e-05
3.71111e-06
3.70318e-06
3.70345e-06
3.71135e-06
1.73135e-05
1.00862e-05
1.00863e-05
1.01041e-05
1.01042e-05
3.70318e-06
3.7111e-06
1.49727e-05
1.90357e-05
1.24046e-05
1.83725e-05
1.90357e-05
1.23909e-05
1.49743e-05
1.1791e-05
6.43972e-06
6.44281e-06
1.17964e-05
1.17911e-05
6.43965e-06
6.44272e-06
1.17965e-05
1.49741e-05
1.83724e-05
1.90357e-05
1.23909e-05
1.90357e-05
1.24046e-05
1.49727e-05
1.49742e-05
1.83725e-05
1.90357e-05
1.23909e-05
1.90357e-05
1.24046e-05
1.49728e-05
1.17964e-05
6.4428e-06
6.43969e-06
1.17911e-05
1.17964e-05
6.44271e-06
6.43966e-06
1.17911e-05
3.71105e-06
3.70316e-06
3.71145e-06
3.70353e-06
1.73135e-05
1.00863e-05
1.00865e-05
1.01042e-05
1.01043e-05
3.70316e-06
3.71105e-06
3.70353e-06
3.71145e-06
3.71107e-06
3.70317e-06
3.71142e-06
3.70349e-06
1.01043e-05
1.01043e-05
1.73131e-05
1.00864e-05
1.00864e-05
3.70317e-06
3.71107e-06
3.70349e-06
3.71142e-06
1.73136e-05
1.00864e-05
1.00864e-05
1.01043e-05
1.01043e-05
1.17911e-05
6.43976e-06
1.17965e-05
6.44285e-06
1.49727e-05
1.24046e-05
1.90359e-05
1.83721e-05
1.49743e-05
1.23909e-05
1.90359e-05
1.49728e-05
1.24046e-05
1.90359e-05
1.8372e-05
1.49744e-05
1.23909e-05
1.90359e-05
1.17964e-05
6.44294e-06
6.4398e-06
1.17911e-05
1.17965e-05
6.44285e-06
6.43977e-06
1.17912e-05
1.49742e-05
1.83721e-05
1.23909e-05
1.90359e-05
1.24046e-05
1.90359e-05
1.49728e-05
1.49743e-05
1.83721e-05
1.23909e-05
1.90359e-05
1.24046e-05
1.90359e-05
1.49729e-05
1.01045e-05
1.01044e-05
1.73133e-05
1.00866e-05
1.00864e-05
3.71114e-06
3.70322e-06
3.70357e-06
3.71146e-06
1.73137e-05
1.00866e-05
1.00864e-05
1.01045e-05
1.01043e-05
3.70322e-06
3.71115e-06
1.49726e-05
1.24046e-05
1.90358e-05
1.83726e-05
1.49741e-05
1.23909e-05
1.90358e-05
1.17909e-05
6.43967e-06
1.17963e-05
6.44277e-06
1.49726e-05
1.90356e-05
1.24043e-05
1.83717e-05
1.49741e-05
1.90356e-05
1.23907e-05
1.17963e-05
6.44272e-06
6.43968e-06
1.1791e-05
1.4974e-05
1.83726e-05
1.23909e-05
1.90358e-05
1.24046e-05
1.90358e-05
1.49726e-05
1.17963e-05
6.44277e-06
6.43968e-06
1.1791e-05
1.49741e-05
1.83717e-05
1.90356e-05
1.23906e-05
1.90356e-05
1.24043e-05
1.49726e-05
1.17912e-05
6.43967e-06
1.17966e-05
6.44278e-06
1.49728e-05
1.90358e-05
1.24045e-05
1.8372e-05
1.49743e-05
1.90358e-05
1.23908e-05
1.17912e-05
6.43967e-06
1.17965e-05
6.44283e-06
1.49743e-05
1.83728e-05
1.23911e-05
1.9036e-05
1.24048e-05
1.9036e-05
1.49729e-05
1.17965e-05
6.44277e-06
6.43968e-06
1.17912e-05
1.49743e-05
1.8372e-05
1.90358e-05
1.23908e-05
1.90358e-05
1.24045e-05
1.49729e-05
1.17965e-05
6.44282e-06
6.43968e-06
1.17912e-05
1.01041e-05
1.01042e-05
1.7313e-05
1.00862e-05
1.00863e-05
3.7111e-06
3.70318e-06
3.70345e-06
3.71136e-06
1.73135e-05
1.00862e-05
1.00863e-05
1.01041e-05
1.01042e-05
3.70318e-06
3.71109e-06
1.49727e-05
1.90357e-05
1.24046e-05
1.83725e-05
1.49742e-05
1.90357e-05
1.23909e-05
1.1791e-05
6.43968e-06
1.17964e-05
6.4428e-06
1.17911e-05
6.43965e-06
1.17965e-05
6.44272e-06
1.49741e-05
1.83724e-05
1.90357e-05
1.23909e-05
1.90357e-05
1.24046e-05
1.49727e-05
1.49742e-05
1.83725e-05
1.90357e-05
1.23909e-05
1.90357e-05
1.24046e-05
1.49728e-05
1.17964e-05
6.44279e-06
6.43968e-06
1.17911e-05
1.17964e-05
6.44271e-06
6.43966e-06
1.17911e-05
3.71104e-06
3.70316e-06
3.71144e-06
3.70353e-06
1.73135e-05
1.00863e-05
1.00865e-05
1.01042e-05
1.01043e-05
3.70316e-06
3.71105e-06
3.70353e-06
3.71145e-06
3.71107e-06
3.70317e-06
3.71142e-06
3.70349e-06
1.01043e-05
1.01043e-05
1.73131e-05
1.00864e-05
1.00864e-05
3.70317e-06
3.71107e-06
3.70349e-06
3.71142e-06
1.73136e-05
1.00864e-05
1.00864e-05
1.01043e-05
1.01043e-05
1.17911e-05
6.43977e-06
1.17965e-05
6.44286e-06
1.49727e-05
1.24046e-05
1.90359e-05
1.83721e-05
1.49743e-05
1.23909e-05
1.90359e-05
1.49728e-05
1.24046e-05
1.90359e-05
1.8372e-05
1.49744e-05
1.23909e-05
1.90359e-05
1.17964e-05
6.44293e-06
6.4398e-06
1.17911e-05
1.17965e-05
6.44285e-06
6.43977e-06
1.17912e-05
1.49742e-05
1.83721e-05
1.23909e-05
1.90359e-05
1.24046e-05
1.90359e-05
1.49728e-05
1.49743e-05
1.83721e-05
1.23909e-05
1.90359e-05
1.24046e-05
1.90359e-05
1.49729e-05
1.01045e-05
1.01044e-05
1.73133e-05
1.00866e-05
1.00864e-05
3.71114e-06
3.70322e-06
3.70357e-06
3.71146e-06
1.73137e-05
1.00866e-05
1.00864e-05
1.01045e-05
1.01043e-05
3.70322e-06
3.71114e-06
1.49726e-05
1.24046e-05
1.90358e-05
1.83725e-05
1.49741e-05
1.23909e-05
1.90358e-05
1.17909e-05
6.43968e-06
1.17963e-05
6.44278e-06
1.49726e-05
1.90356e-05
1.24043e-05
1.83717e-05
1.49741e-05
1.90356e-05
1.23907e-05
1.17963e-05
6.44272e-06
6.43967e-06
1.1791e-05
1.4974e-05
1.83726e-05
1.23909e-05
1.90358e-05
1.24046e-05
1.90358e-05
1.49726e-05
1.17963e-05
6.44277e-06
6.43968e-06
1.1791e-05
1.4974e-05
1.83717e-05
1.90356e-05
1.23906e-05
1.90356e-05
1.24043e-05
1.49726e-05
1.17912e-05
6.43966e-06
1.17966e-05
6.44278e-06
1.49728e-05
1.90358e-05
1.24045e-05
1.8372e-05
1.49743e-05
1.90358e-05
1.23908e-05
1.17912e-05
6.43967e-06
1.17965e-05
6.44283e-06
1.49743e-05
1.83728e-05
1.23911e-05
1.9036e-05
1.24048e-05
1.9036e-05
1.49729e-05
1.17965e-05
6.44277e-06
6.43968e-06
1.17912e-05
1.49743e-05
1.8372e-05
1.90358e-05
1.23908e-05
1.90358e-05
1.24045e-05
1.49729e-05
1.17965e-05