/*--------------------------------*- C++ -*----------------------------------*\
| =========                 |                                                 |
| \\      /  F ield         | OpenFOAM: The Open Source CFD Toolbox           |
|  \\    /   O peration     | Version:  2206                                  |
|   \\  /    A nd           | Website:  www.openfoam.com                      |
|    \\/     M anipulation  |                                                 |
\*---------------------------------------------------------------------------*/
FoamFile
{
    version     2.0;
    format      ascii;
    arch        "LSB;label=32;scalar=64";
    class       surfaceScalarField;
    location    "28.5";
    object      phi;
}
// * * * * * * * * * * * * * * * * * * * * * * * * * * * * * * * * * * * * * //

dimensions      [0 3 -1 0 0 0 0];

oriented        oriented;

internalField   nonuniform List<scalar> 
83348
(
1.49223e-09
1.64538e-09
-0.00108618
-1.58974e-09
-1.55621e-09
0.00108618
-0.00108615
-1.20471e-06
-1.63293e-09
2.86917e-09
0.00108615
-2.55328e-07
1.20734e-06
2.54209e-07
8.91114e-07
-2.53725e-07
-8.9076e-07
2.50658e-07
-0.00108581
-1.19931e-06
-1.63116e-09
2.83038e-09
0.00108581
-2.52561e-07
1.20193e-06
2.5145e-07
8.90954e-07
-2.56343e-07
-8.90625e-07
2.53334e-07
-0.000266875
1.23299e-06
1.19943e-06
-2.3035e-07
-2.3564e-07
0.000264908
1.55387e-09
1.73338e-09
-0.00108618
-1.64456e-09
-1.59548e-09
0.00108618
-0.00108615
-1.20469e-06
-1.72762e-09
2.83073e-09
0.00108615
-2.55304e-07
1.20735e-06
2.54227e-07
8.91131e-07
-2.53672e-07
-8.90733e-07
2.50707e-07
-0.00108581
-1.19929e-06
-1.71639e-09
2.78992e-09
0.00108581
-2.52534e-07
1.20194e-06
2.51471e-07
8.90961e-07
-2.56287e-07
-8.9061e-07
2.53384e-07
-0.000266875
1.23297e-06
1.19941e-06
-2.3033e-07
-2.35611e-07
0.000264908
1.67134e-09
1.82791e-09
-0.00108618
-1.68469e-09
-1.64028e-09
0.00108618
-0.00108615
-1.20465e-06
-1.83849e-09
2.75039e-09
0.00108615
-2.55269e-07
1.20739e-06
2.54264e-07
8.91176e-07
-2.53621e-07
-8.907e-07
2.50765e-07
-0.00108581
-1.19926e-06
-1.80644e-09
2.74361e-09
0.00108581
-2.52503e-07
1.20197e-06
2.51508e-07
8.91009e-07
-2.56245e-07
-8.90572e-07
2.53438e-07
-0.000266874
1.23293e-06
1.19939e-06
-2.30297e-07
-2.35572e-07
0.000264908
1.86985e-09
2.0095e-09
-0.00108617
-1.73932e-09
-1.72486e-09
0.00108617
-0.00108615
-1.20461e-06
-2.10968e-09
2.6323e-09
0.00108615
-2.55229e-07
1.20745e-06
2.54335e-07
8.91259e-07
-2.53575e-07
-8.90648e-07
2.50855e-07
-0.00108581
-1.19921e-06
-2.01016e-09
2.64992e-09
0.0010858
-2.52455e-07
1.20204e-06
2.51577e-07
8.91091e-07
-2.5618e-07
-8.9052e-07
2.53531e-07
-0.000266874
1.23289e-06
1.19933e-06
-2.30244e-07
-2.35531e-07
0.000264908
2.28998e-09
2.38195e-09
-0.00108617
-1.85535e-09
-1.88367e-09
0.00108617
-0.00108615
-1.20461e-06
-2.3054e-09
2.5325e-09
0.00108614
-2.55221e-07
1.20751e-06
2.54396e-07
8.91336e-07
-2.53547e-07
-8.90633e-07
2.5094e-07
-0.0010858
-1.19915e-06
-2.40764e-09
2.43571e-09
0.0010858
-2.52403e-07
1.20216e-06
2.51684e-07
8.9123e-07
-2.56121e-07
-8.90451e-07
2.53655e-07
-0.000266873
1.23286e-06
1.19927e-06
-2.30202e-07
-2.35508e-07
0.000264907
2.28997e-11
6.9637e-11
-0.00108617
-8.14619e-10
-8.8454e-10
0.00108617
-0.00108614
-1.20498e-06
-5.43027e-10
3.36395e-09
0.00108615
-2.55648e-07
1.20706e-06
2.53896e-07
8.90707e-07
-2.54131e-07
-8.91186e-07
2.50245e-07
-0.0010858
-1.1997e-06
-1.14816e-10
3.51252e-09
0.0010858
-2.53011e-07
1.20159e-06
2.51075e-07
8.90425e-07
-2.5699e-07
-8.91229e-07
2.5274e-07
-0.000266873
1.23342e-06
1.19977e-06
-2.30754e-07
-2.3615e-07
0.000264907
1.48286e-09
1.75833e-09
-0.00108618
-1.72195e-09
-1.56056e-09
0.00108618
-0.00108615
-1.20477e-06
-1.34566e-09
2.91433e-09
0.00108615
-2.55414e-07
1.2074e-06
2.54272e-07
8.91086e-07
-2.54046e-07
-8.90959e-07
2.50551e-07
-0.00108581
-1.1993e-06
-1.69307e-09
2.66258e-09
0.00108581
-2.52547e-07
1.20204e-06
2.51583e-07
8.90998e-07
-2.56507e-07
-8.90728e-07
2.53346e-07
-0.000266875
1.23295e-06
1.19947e-06
-2.30418e-07
-2.35626e-07
0.000264908
1.60091e-09
1.76591e-09
-0.00108618
-1.66691e-09
-1.6214e-09
0.00108618
-0.00108615
-1.20468e-06
-1.79126e-09
2.74838e-09
0.00108615
-2.55311e-07
1.20742e-06
2.54305e-07
8.91192e-07
-2.53755e-07
-8.90792e-07
2.50751e-07
-0.00108581
-1.19931e-06
-1.7444e-09
2.75302e-09
0.00108581
-2.52564e-07
1.202e-06
2.51528e-07
8.91012e-07
-2.56385e-07
-8.90673e-07
2.53408e-07
-0.000266875
1.23299e-06
1.19943e-06
-2.30343e-07
-2.3564e-07
0.000264908
1.51484e-09
1.66792e-09
-0.00108618
-1.60384e-09
-1.57678e-09
0.00108618
-0.00108615
-1.20472e-06
-1.68215e-09
2.82843e-09
0.00108615
-2.55358e-07
1.20739e-06
2.54267e-07
8.91166e-07
-2.53787e-07
-8.90824e-07
2.50721e-07
-0.00108581
-1.19933e-06
-1.65297e-09
2.81564e-09
0.00108581
-2.52594e-07
1.20198e-06
2.51504e-07
8.90992e-07
-2.56412e-07
-8.90702e-07
2.53389e-07
-0.000266875
1.23301e-06
1.19945e-06
-2.30374e-07
-2.35666e-07
0.000264908
1.50485e-09
1.64827e-09
-0.00108618
-1.62061e-09
-1.59078e-09
0.00108618
-0.00108615
-1.20473e-06
-1.67375e-09
2.83759e-09
0.00108615
-2.55363e-07
1.20739e-06
2.54265e-07
8.91166e-07
-2.53787e-07
-8.90823e-07
2.50721e-07
-0.00108581
-1.19933e-06
-1.64171e-09
2.8022e-09
0.00108581
-2.52593e-07
1.20198e-06
2.51507e-07
8.90991e-07
-2.56415e-07
-8.90705e-07
2.53388e-07
-0.000266875
1.23302e-06
1.19944e-06
-2.3037e-07
-2.35667e-07
0.000264908
1.43711e-09
-8.60319e-09
-0.00108617
-1.61552e-09
-1.56265e-09
0.00108618
-0.00108615
-1.20473e-06
-1.6877e-09
2.8283e-09
0.00108615
-2.55315e-07
1.2074e-06
2.54249e-07
8.91168e-07
-2.53785e-07
-8.90821e-07
2.50722e-07
-0.00108581
-1.19933e-06
-1.64966e-09
2.80922e-09
0.00108581
-2.52594e-07
1.20198e-06
2.51506e-07
8.90992e-07
-2.56416e-07
-8.90706e-07
2.53388e-07
-0.000266875
1.23301e-06
1.19945e-06
-2.30371e-07
-2.35665e-07
0.000264908
1.47366e-09
1.6931e-09
-0.00108618
-1.62975e-09
-1.55242e-09
0.00108618
-0.00108615
-1.20477e-06
-1.64711e-09
2.92165e-09
0.00108615
-2.52644e-07
1.20736e-06
2.51452e-07
8.91171e-07
-2.53764e-07
-8.90824e-07
2.50702e-07
-0.00108581
-1.19933e-06
-1.66953e-09
2.81503e-09
0.00108581
-2.52593e-07
1.20198e-06
2.51508e-07
8.90994e-07
-2.56416e-07
-8.90705e-07
2.5339e-07
-0.000266875
1.23301e-06
1.19945e-06
-2.30376e-07
-2.3566e-07
0.000264908
1.47378e-09
1.65952e-09
-0.00108618
-1.59938e-09
-1.55603e-09
0.00108618
-0.00108615
-1.20473e-06
-1.6514e-09
2.85157e-09
0.00108615
-2.52605e-07
1.20739e-06
2.51486e-07
8.91158e-07
-2.53758e-07
-8.90826e-07
2.50695e-07
-0.00108581
-1.19933e-06
-1.65697e-09
2.82091e-09
0.00108581
-2.52592e-07
1.20198e-06
2.51504e-07
8.90988e-07
-2.56416e-07
-8.90706e-07
2.53383e-07
-0.000266875
1.23301e-06
1.19945e-06
-2.30376e-07
-2.35662e-07
0.000264908
1.48542e-09
1.65126e-09
-0.00108618
-1.59216e-09
-1.56634e-09
0.00108618
-0.00108615
-1.20473e-06
-1.65929e-09
2.84859e-09
0.00108615
-2.5261e-07
1.2074e-06
2.51491e-07
8.91163e-07
-2.53764e-07
-8.90829e-07
2.50701e-07
-0.00108581
-1.19933e-06
-1.65809e-09
2.82386e-09
0.00108581
-2.52596e-07
1.20198e-06
2.51507e-07
8.90992e-07
-2.5642e-07
-8.90708e-07
2.53389e-07
-0.000266875
1.23301e-06
1.19946e-06
-2.3038e-07
-2.35667e-07
0.000264908
1.48018e-09
1.63638e-09
-0.00108618
-1.58135e-09
-1.56366e-09
0.00108618
-0.00108615
-1.20473e-06
-1.65198e-09
2.84988e-09
0.00108615
-2.5261e-07
1.2074e-06
2.51486e-07
8.91159e-07
-2.53762e-07
-8.90829e-07
2.50695e-07
-0.00108581
-1.19933e-06
-1.65081e-09
2.82283e-09
0.00108581
-2.52595e-07
1.20198e-06
2.51505e-07
8.90988e-07
-2.56418e-07
-8.90708e-07
2.53384e-07
-0.000266875
1.23302e-06
1.19946e-06
-2.30378e-07
-2.35666e-07
0.000264908
1.48555e-09
1.63795e-09
-0.00108618
-1.58116e-09
-1.56717e-09
0.00108618
-0.00108615
-1.20473e-06
-1.65721e-09
2.84778e-09
0.00108615
-2.52607e-07
1.2074e-06
2.51484e-07
8.91155e-07
-2.53756e-07
-8.90823e-07
2.50689e-07
-0.00108581
-1.19933e-06
-1.65475e-09
2.82384e-09
0.00108581
-2.52592e-07
1.20197e-06
2.51502e-07
8.90985e-07
-2.56411e-07
-8.90704e-07
2.53378e-07
-0.000266875
1.23301e-06
1.19945e-06
-2.30375e-07
-2.35663e-07
0.000264908
1.50068e-09
1.6389e-09
-0.00108618
-1.58532e-09
-1.57587e-09
0.00108618
-0.00108615
-1.20472e-06
-1.65834e-09
2.84585e-09
0.00108615
-2.52599e-07
1.20739e-06
2.51478e-07
8.91144e-07
-2.53742e-07
-8.90811e-07
2.50676e-07
-0.00108581
-1.19933e-06
-1.65349e-09
2.82259e-09
0.00108581
-2.52585e-07
1.20197e-06
2.51496e-07
8.90972e-07
-2.56398e-07
-8.90692e-07
2.53365e-07
-0.000266875
1.23301e-06
1.19945e-06
-2.30369e-07
-2.35657e-07
0.000264908
1.50675e-09
1.6389e-09
-0.00108618
-1.58273e-09
-1.57325e-09
-0.00108615
-1.20471e-06
-1.66165e-09
2.84406e-09
-2.52574e-07
1.20737e-06
2.51451e-07
8.91111e-07
-2.53705e-07
-8.90778e-07
2.50646e-07
-0.00108581
-1.19931e-06
-1.65989e-09
2.82334e-09
-2.52559e-07
1.20195e-06
2.51469e-07
8.90939e-07
-2.5636e-07
-8.90658e-07
2.53336e-07
-0.000266875
1.23299e-06
1.19943e-06
-2.30353e-07
-2.3564e-07
0.000264908
-1.24357e-06
-1.20471e-06
0.000266891
-0.000264914
2.30443e-07
2.40787e-07
0.00108536
-1.44672e-09
-0.00108536
3.02708e-09
-1.24098e-06
2.59508e-07
-2.6073e-07
-8.9341e-07
2.47818e-07
-2.51003e-07
8.93662e-07
1.24637e-06
0.00108581
-1.43971e-09
-0.00108581
2.99632e-09
-1.24377e-06
2.59581e-07
-2.60793e-07
-8.99078e-07
2.53338e-07
-2.56528e-07
8.99318e-07
-1.20735e-06
0.000266914
-0.000264932
2.33201e-07
2.38051e-07
0.00108643
-1.65191e-09
-0.00108643
2.81813e-09
-1.2021e-06
2.54249e-07
-2.55357e-07
-8.93481e-07
2.53409e-07
-2.56485e-07
8.93897e-07
1.24097e-06
0.00108548
-1.45054e-09
-0.00108548
3.01088e-09
-1.23839e-06
2.59563e-07
-2.60789e-07
-8.93488e-07
2.53308e-07
-2.56447e-07
8.93726e-07
-1.64895e-09
2.84934e-09
-1.2047e-06
2.54212e-07
-2.55326e-07
-8.90771e-07
2.50652e-07
8.91105e-07
-2.53738e-07
1.23556e-06
0.00108527
-1.46108e-09
-0.00108527
3.0154e-09
-1.23299e-06
2.5403e-07
-2.55233e-07
-8.9079e-07
2.50529e-07
-2.53687e-07
8.91018e-07
-1.20193e-06
0.00026687
-0.000264895
2.3062e-07
2.38012e-07
-1.62676e-09
-0.00108581
2.83051e-09
-1.19931e-06
2.51448e-07
-2.52566e-07
-8.90588e-07
2.53304e-07
8.90999e-07
-2.56375e-07
1.20204e-06
0.00108633
-1.60894e-09
-0.00108633
2.85024e-09
-1.19943e-06
2.51498e-07
-2.52628e-07
-8.90879e-07
2.53395e-07
-2.5647e-07
8.91254e-07
-0.000264908
2.32941e-07
2.38245e-07
1.24097e-06
1.20209e-06
-2.27846e-07
-2.38156e-07
0.000264914
-1.24359e-06
-1.20472e-06
0.00026689
-0.000264913
2.3046e-07
2.40814e-07
3.02248e-09
0.00108536
-2.60724e-07
1.24357e-06
2.5951e-07
8.93679e-07
-2.50988e-07
-8.93386e-07
2.47835e-07
-1.24378e-06
-1.46198e-09
3.03728e-09
0.0010858
-2.60803e-07
1.24904e-06
2.62307e-07
8.9933e-07
-2.56519e-07
-8.99064e-07
2.5335e-07
0.00108536
-1.54359e-09
-0.00108536
2.9708e-09
-1.24096e-06
2.59529e-07
-2.607e-07
-8.93379e-07
2.47867e-07
-2.50944e-07
8.93678e-07
1.24638e-06
0.00108581
-1.53529e-09
-0.0010858
2.99212e-09
-1.24643e-06
2.59593e-07
-2.6351e-07
-8.99043e-07
2.53393e-07
-2.56469e-07
8.9934e-07
-2.30587e-07
-2.3543e-07
0.000264932
-1.20735e-06
0.000266914
-0.000264932
2.33224e-07
2.38071e-07
2.81587e-09
0.00108643
-2.55352e-07
1.20471e-06
2.5425e-07
8.93905e-07
-2.56477e-07
-8.93469e-07
2.53416e-07
-1.23839e-06
-1.4713e-09
3.01283e-09
0.00108548
-2.60784e-07
1.24097e-06
2.59564e-07
8.93738e-07
-2.56433e-07
-8.93473e-07
2.5332e-07
0.00108643
-1.76953e-09
-0.00108643
2.77341e-09
-1.20208e-06
2.54267e-07
-2.5533e-07
-8.93445e-07
2.53466e-07
-2.56423e-07
8.93919e-07
1.24098e-06
0.00108548
-1.55431e-09
-0.00108548
2.96128e-09
-1.23837e-06
2.59584e-07
-2.60759e-07
-8.93455e-07
2.53357e-07
-2.56388e-07
8.93744e-07
-1.46826e-09
3.00788e-09
0.00108527
-2.55228e-07
1.23557e-06
2.54033e-07
8.91029e-07
-2.53669e-07
2.50541e-07
-8.90776e-07
-1.72859e-09
-0.00108615
2.83562e-09
-1.20469e-06
2.54222e-07
-2.55307e-07
-8.90732e-07
2.50701e-07
8.91132e-07
-2.5368e-07
1.23558e-06
0.00108527
-1.56353e-09
-0.00108527
2.95462e-09
-1.23297e-06
2.54053e-07
-2.55201e-07
-8.90749e-07
2.5058e-07
-2.53622e-07
8.91046e-07
-2.2801e-07
-2.35404e-07
0.000264895
-1.20194e-06
0.000266869
-0.000264895
2.30641e-07
2.38039e-07
-1.63305e-09
2.85027e-09
0.00108633
-2.52624e-07
1.20204e-06
2.51501e-07
8.91266e-07
-2.56459e-07
2.53406e-07
-8.90864e-07
-1.74209e-09
-0.00108581
2.78001e-09
-1.19929e-06
2.51469e-07
-2.52536e-07
-8.90555e-07
2.5336e-07
8.9102e-07
-2.56313e-07
1.20204e-06
0.00108633
-1.72759e-09
-0.00108633
2.8071e-09
-1.19941e-06
2.5152e-07
-2.526e-07
-8.90843e-07
2.53453e-07
-2.56406e-07
8.91277e-07
-0.000264908
2.32958e-07
2.38272e-07
1.24095e-06
1.20208e-06
-2.27832e-07
-2.38127e-07
0.000264913
-1.24362e-06
-1.20476e-06
0.00026689
-0.000264913
2.30507e-07
2.40849e-07
2.97549e-09
0.00108536
-2.60696e-07
1.24359e-06
2.59534e-07
8.93676e-07
-2.50944e-07
-8.93379e-07
2.47871e-07
-1.24376e-06
-1.54224e-09
2.9924e-09
0.0010858
-2.60777e-07
1.24905e-06
2.62329e-07
8.99334e-07
-2.56464e-07
-8.99049e-07
2.53398e-07
0.00108536
-1.69084e-09
-0.00108536
2.89284e-09
-1.24093e-06
2.59564e-07
-2.60668e-07
-8.93332e-07
2.47934e-07
-2.50888e-07
8.93743e-07
1.24908e-06
0.0010858
-1.67925e-09
-0.0010858
2.94518e-09
-1.2464e-06
2.62365e-07
-2.63478e-07
-8.99018e-07
2.53455e-07
-2.56423e-07
8.99383e-07
-2.30561e-07
-2.35408e-07
0.000264932
-1.20739e-06
0.000266917
-0.000264932
2.333e-07
2.38114e-07
2.78e-09
0.00108643
-2.55328e-07
1.20472e-06
2.54269e-07
8.93912e-07
-2.5642e-07
-8.93454e-07
2.53468e-07
-1.23836e-06
-1.53638e-09
2.97379e-09
0.00108548
-2.60756e-07
1.24099e-06
2.59587e-07
8.93736e-07
-2.56389e-07
-8.93466e-07
2.53358e-07
0.00108643
-1.89717e-09
-0.00108643
2.7119e-09
-1.20205e-06
2.54305e-07
-2.55295e-07
-8.93416e-07
2.53522e-07
-2.56374e-07
8.93963e-07
1.24101e-06
0.00108548
-1.71106e-09
-0.00108548
2.88965e-09
-1.23834e-06
2.59618e-07
-2.60727e-07
-8.93408e-07
2.53426e-07
-2.56331e-07
8.9381e-07
-1.56099e-09
2.95217e-09
0.00108527
-2.55197e-07
1.23558e-06
2.54056e-07
8.91047e-07
-2.53615e-07
2.50586e-07
-8.90749e-07
-1.86558e-09
-0.00108615
2.75476e-09
-1.20466e-06
2.54262e-07
-2.55273e-07
-8.90703e-07
2.50765e-07
8.91171e-07
-2.53625e-07
1.23561e-06
0.00108527
-1.67401e-09
-0.00108527
2.88578e-09
-1.23294e-06
2.54091e-07
-2.55168e-07
-8.90723e-07
2.50627e-07
-2.53578e-07
8.9108e-07
-2.27991e-07
-2.35376e-07
0.000264895
-1.20198e-06
0.000266869
-0.000264895
2.30689e-07
2.38073e-07
-1.72074e-09
2.81472e-09
0.00108633
-2.52597e-07
1.20205e-06
2.51522e-07
8.91273e-07
-2.56402e-07
2.53457e-07
-8.90847e-07
-1.86347e-09
-0.00108581
2.70685e-09
-1.19926e-06
2.51508e-07
-2.52501e-07
-8.90526e-07
2.53415e-07
8.91063e-07
-2.56265e-07
1.20207e-06
0.00108633
-1.85871e-09
-0.00108633
2.7566e-09
-1.19938e-06
2.51551e-07
-2.52571e-07
-8.90814e-07
2.5351e-07
-2.56358e-07
8.91321e-07
-0.000264908
2.32995e-07
2.38311e-07
1.24093e-06
1.20205e-06
-2.27789e-07
-2.38096e-07
0.000264913
-1.24367e-06
-1.20481e-06
0.00026689
-0.000264913
2.30558e-07
2.40905e-07
2.93239e-09
0.00108536
-2.6067e-07
1.24361e-06
2.59564e-07
8.93745e-07
-2.50888e-07
-8.93318e-07
2.47937e-07
-1.2464e-06
-1.67047e-09
2.95458e-09
0.0010858
-2.63481e-07
1.24908e-06
2.62359e-07
8.99393e-07
-2.56409e-07
-8.99003e-07
2.53461e-07
0.00108536
-1.92735e-09
-0.00108536
2.78867e-09
-1.24089e-06
2.59625e-07
-2.6063e-07
-8.93293e-07
2.48011e-07
-2.50844e-07
8.938e-07
1.2491e-06
0.0010858
-1.87049e-09
-0.0010858
2.90531e-09
-1.24639e-06
2.62394e-07
-2.63462e-07
-8.98966e-07
2.53513e-07
-2.56375e-07
8.99442e-07
-2.30557e-07
-2.35372e-07
0.000264932
-1.20741e-06
0.000266916
-0.000264931
2.3334e-07
2.38146e-07
2.74947e-09
0.00108643
-2.55298e-07
1.20475e-06
2.54303e-07
8.9396e-07
-2.56377e-07
-8.93415e-07
2.53521e-07
-1.23834e-06
-1.66551e-09
2.93206e-09
0.00108548
-2.60731e-07
1.24101e-06
2.59617e-07
8.93808e-07
-2.5633e-07
-8.93402e-07
2.53429e-07
0.00108642
-2.15197e-09
-0.00108642
2.59874e-09
-1.20202e-06
2.54364e-07
-2.5526e-07
-8.93361e-07
2.53607e-07
-2.56322e-07
8.94037e-07
1.24107e-06
0.00108548
-1.93871e-09
-0.00108548
2.78995e-09
-1.2383e-06
2.5968e-07
-2.60691e-07
-8.93371e-07
2.535e-07
-2.56288e-07
8.93864e-07
-1.63566e-09
2.90185e-09
0.00108527
-2.55161e-07
1.23561e-06
2.541e-07
8.9108e-07
-2.53583e-07
2.5063e-07
-8.90726e-07
-2.00896e-09
-0.00108615
2.71465e-09
-1.20464e-06
2.54293e-07
-2.55251e-07
-8.9067e-07
2.50809e-07
8.91225e-07
-2.53601e-07
1.23566e-06
0.00108527
-1.88939e-09
-0.00108527
2.77784e-09
-1.2329e-06
2.54149e-07
-2.55126e-07
-8.9068e-07
2.50705e-07
-2.5354e-07
8.9115e-07
-2.27945e-07
-2.35346e-07
0.000264895
-1.20202e-06
0.000266869
-0.000264895
2.30735e-07
2.38131e-07
-1.82176e-09
2.79305e-09
0.00108633
-2.52575e-07
1.20207e-06
2.51551e-07
8.91324e-07
-2.56356e-07
2.53515e-07
-8.90807e-07
-2.12071e-09
-0.00108581
2.60795e-09
-1.19923e-06
2.51564e-07
-2.52469e-07
-8.90469e-07
2.535e-07
8.91138e-07
-2.56213e-07
1.20212e-06
0.00108632
-2.12303e-09
-0.00108632
2.64875e-09
-1.19935e-06
2.51611e-07
-2.52535e-07
-8.90756e-07
2.53595e-07
-2.56303e-07
8.91395e-07
-0.000264908
2.33052e-07
2.38367e-07
1.24088e-06
1.202e-06
-2.27742e-07
-2.38048e-07
0.000264913
-1.24369e-06
-1.20484e-06
0.000266889
-0.000264912
2.306e-07
2.40928e-07
2.83788e-09
0.00108536
-2.60618e-07
1.24368e-06
2.59637e-07
8.93817e-07
-2.5083e-07
-8.93281e-07
2.4803e-07
-1.24636e-06
-1.90887e-09
2.81154e-09
0.0010858
-2.63435e-07
1.24915e-06
2.6244e-07
8.99464e-07
-2.56367e-07
-8.98961e-07
2.53543e-07
0.00108535
-2.0345e-09
-0.00108535
2.77673e-09
-1.24092e-06
2.59651e-07
-2.60651e-07
-8.93292e-07
2.48068e-07
-2.50838e-07
8.93851e-07
1.24912e-06
0.0010858
-1.82565e-09
-0.0010858
2.91465e-09
-1.2464e-06
2.62421e-07
-2.63471e-07
-8.98996e-07
2.53521e-07
-2.56404e-07
8.99444e-07
-2.30521e-07
-2.35335e-07
0.000264931
-1.2074e-06
0.000266916
-0.000264931
2.33347e-07
2.38177e-07
2.6287e-09
0.00108642
-2.55246e-07
1.20482e-06
2.54378e-07
8.94039e-07
-2.56315e-07
-8.93366e-07
2.53613e-07
-1.23829e-06
-1.83827e-09
2.82627e-09
0.00108547
-2.60676e-07
1.24108e-06
2.59693e-07
8.93873e-07
-2.56276e-07
-8.9337e-07
2.53513e-07
0.00108642
-2.22226e-09
-0.00108642
2.54997e-09
-1.20202e-06
2.54406e-07
-2.55267e-07
-8.93377e-07
2.5365e-07
-2.56329e-07
8.94071e-07
1.24109e-06
0.00108547
-2.01983e-09
-0.00108547
2.75278e-09
-1.23832e-06
2.59716e-07
-2.60701e-07
-8.93377e-07
2.5355e-07
-2.56288e-07
8.93907e-07
-1.88513e-09
2.7976e-09
0.00108527
-2.55117e-07
1.23567e-06
2.54163e-07
8.91172e-07
-2.53509e-07
2.50734e-07
-8.90663e-07
-1.966e-09
-0.00108615
2.77869e-09
-1.20466e-06
2.54292e-07
-2.55281e-07
-8.90675e-07
2.50839e-07
8.9124e-07
-2.53607e-07
1.23565e-06
0.00108527
-1.94143e-09
-0.00108527
2.82599e-09
-1.23294e-06
2.54149e-07
-2.55162e-07
-8.90677e-07
2.50759e-07
-2.53528e-07
8.91188e-07
-2.27905e-07
-2.35295e-07
0.000264895
-1.20205e-06
0.000266868
-0.000264894
2.30769e-07
2.38162e-07
-2.01428e-09
2.6612e-09
0.00108632
-2.52519e-07
1.20214e-06
2.51628e-07
8.914e-07
-2.56297e-07
2.53602e-07
-8.90759e-07
-2.21037e-09
-0.0010858
2.58735e-09
-1.19924e-06
2.51599e-07
-2.5248e-07
-8.90478e-07
2.5355e-07
8.91179e-07
-2.56211e-07
1.20215e-06
0.00108632
-2.18797e-09
-0.00108632
2.59604e-09
-1.19936e-06
2.51654e-07
-2.52537e-07
-8.90774e-07
2.53632e-07
-2.56311e-07
8.91424e-07
-0.000264907
2.33088e-07
2.38373e-07
1.24082e-06
1.20193e-06
-2.27685e-07
-2.38006e-07
0.000264912
-1.24327e-06
-1.20445e-06
0.000266889
-0.000264912
2.30135e-07
2.40443e-07
2.63756e-09
0.00108535
-2.60575e-07
1.2438e-06
2.59737e-07
8.93966e-07
-2.50768e-07
-8.93206e-07
2.4816e-07
-1.24634e-06
-2.15004e-09
2.65801e-09
0.0010858
-2.63398e-07
1.24922e-06
2.62527e-07
8.99554e-07
-2.56351e-07
-8.98941e-07
2.5363e-07
0.00108535
-4.58003e-10
-0.00108535
3.80128e-09
-1.24125e-06
2.59178e-07
-2.61054e-07
-8.93732e-07
2.4747e-07
-2.51328e-07
8.93319e-07
1.24901e-06
0.0010858
-8.05688e-10
-0.0010858
3.02704e-09
-1.24645e-06
2.6227e-07
-2.63572e-07
-8.99312e-07
2.53128e-07
-2.56692e-07
8.99052e-07
-2.3052e-07
-2.3532e-07
0.000264931
-1.20725e-06
0.000266915
-0.00026493
2.33115e-07
2.38012e-07
2.37279e-09
0.00108642
-2.55185e-07
1.20496e-06
2.54496e-07
8.94172e-07
-2.56264e-07
-8.93305e-07
2.53732e-07
-1.23823e-06
-2.21785e-09
2.5924e-09
0.00108547
-2.60624e-07
1.24121e-06
2.59803e-07
8.94012e-07
-2.56222e-07
-8.93303e-07
2.53635e-07
0.00108642
-4.69785e-10
-0.00108642
3.35653e-09
-1.20233e-06
2.53961e-07
-2.55641e-07
-8.93845e-07
2.53021e-07
-2.56844e-07
8.93509e-07
1.2407e-06
0.00108547
-3.20675e-10
-0.00108547
3.5961e-09
-1.23863e-06
2.59262e-07
-2.61084e-07
-8.9384e-07
2.52933e-07
-2.56794e-07
8.93353e-07
-2.23952e-09
2.64625e-09
0.00108527
-2.55099e-07
1.23577e-06
2.54243e-07
8.91292e-07
-2.5346e-07
2.5084e-07
-8.90612e-07
-1.35791e-09
-0.00108614
3.02909e-09
-1.20476e-06
2.54108e-07
-2.55411e-07
-8.9087e-07
2.5058e-07
8.9098e-07
-2.53794e-07
1.23526e-06
0.00108527
-8.09088e-10
-0.00108527
3.76863e-09
-1.23325e-06
2.53693e-07
-2.55548e-07
-8.90966e-07
2.50336e-07
-2.53861e-07
8.90816e-07
-2.27855e-07
-2.35247e-07
0.000264894
-1.20166e-06
0.000266868
-0.000264894
2.30297e-07
2.37686e-07
-2.39083e-09
2.39629e-09
0.00108632
-2.52458e-07
1.20227e-06
2.51745e-07
8.91534e-07
-2.56248e-07
2.53722e-07
-8.90701e-07
-5.4197e-10
-0.0010858
3.46549e-09
-1.19956e-06
2.51145e-07
-2.52865e-07
-8.90937e-07
2.5293e-07
8.90623e-07
-2.56713e-07
1.20185e-06
0.00108632
-4.1888e-10
-0.00108632
3.25598e-09
-1.19959e-06
2.51269e-07
-2.52857e-07
-8.91245e-07
2.53001e-07
-2.56825e-07
8.90857e-07
-0.000264907
2.3272e-07
2.37898e-07
1.24139e-06
1.20248e-06
-2.28319e-07
-2.38653e-07
0.000264912
-1.24364e-06
-1.20475e-06
0.000266891
-0.000264913
2.3043e-07
2.40804e-07
3.78279e-09
0.00108536
-2.61197e-07
1.24321e-06
2.59117e-07
8.93173e-07
-2.51625e-07
-8.93969e-07
2.47259e-07
-1.24668e-06
-1.10011e-10
3.4157e-09
0.0010858
-2.63794e-07
1.2488e-06
2.62061e-07
8.98844e-07
-2.5707e-07
-8.996e-07
2.52797e-07
0.00108536
-1.1306e-09
-0.00108536
2.86678e-09
-1.24104e-06
2.59591e-07
-2.60799e-07
-8.93662e-07
2.4769e-07
-2.51359e-07
8.93599e-07
1.24892e-06
0.0010858
-8.97154e-10
-0.0010858
3.43794e-09
-1.24671e-06
2.62177e-07
-2.63835e-07
-8.99347e-07
2.5314e-07
-2.56962e-07
8.99234e-07
-2.30944e-07
-2.35685e-07
0.00026493
-1.20728e-06
0.000266917
-0.000264932
2.33117e-07
2.37859e-07
3.44299e-09
0.00108642
-2.55792e-07
1.20438e-06
2.53886e-07
8.93371e-07
-2.57138e-07
-8.94082e-07
2.52815e-07
-1.23878e-06
6.28812e-11
3.67102e-09
0.00108547
-2.61233e-07
1.24063e-06
2.59192e-07
8.93214e-07
-2.57084e-07
-8.94076e-07
2.52726e-07
0.00108643
-1.47363e-09
-0.00108643
2.83304e-09
-1.20219e-06
2.54298e-07
-2.55458e-07
-8.93696e-07
2.53306e-07
-2.56803e-07
8.93864e-07
1.24102e-06
0.00108548
-1.22915e-09
-0.00108548
2.98609e-09
-1.23847e-06
2.59625e-07
-2.60876e-07
-8.93716e-07
2.53191e-07
-2.56782e-07
8.93685e-07
-1.63507e-10
3.8121e-09
0.00108527
-2.55726e-07
1.23518e-06
2.53608e-07
8.90578e-07
-2.54171e-07
2.50054e-07
-8.91258e-07
-8.67568e-10
-0.00108615
3.13802e-09
-1.20491e-06
2.54127e-07
-2.55583e-07
-8.9113e-07
2.50349e-07
8.90941e-07
-2.5426e-07
1.23564e-06
0.00108527
-9.30077e-10
-0.00108527
2.86377e-09
-1.23304e-06
2.54129e-07
-2.55288e-07
-8.91127e-07
2.50294e-07
-2.54137e-07
8.90879e-07
-2.28491e-07
-2.35886e-07
0.000264894
-1.20198e-06
0.00026687
-0.000264895
2.3062e-07
2.38015e-07
-4.87972e-11
3.42e-09
0.00108632
-2.53019e-07
1.20173e-06
2.5117e-07
8.9072e-07
-2.57131e-07
2.52786e-07
-8.91486e-07
-1.39055e-09
-0.00108581
2.77427e-09
-1.19939e-06
2.51511e-07
-2.52654e-07
-8.90812e-07
2.53192e-07
8.90956e-07
-2.56699e-07
1.20202e-06
0.00108633
-1.42924e-09
-0.00108633
2.96451e-09
-1.19957e-06
2.51507e-07
-2.5277e-07
-8.91088e-07
2.53298e-07
-2.56784e-07
8.91227e-07
-0.000264908
2.32868e-07
2.38275e-07
1.24095e-06
1.2021e-06
-2.27877e-07
-2.38151e-07
0.000264914
-1.24365e-06
-1.20479e-06
0.000266891
-0.000264914
2.30524e-07
2.40863e-07
2.76893e-09
0.00108536
-2.60694e-07
1.24369e-06
2.59656e-07
8.93714e-07
-2.51182e-07
-8.9351e-07
2.47836e-07
-1.24657e-06
-1.32194e-09
3.18809e-09
0.0010858
-2.6367e-07
1.24905e-06
2.6233e-07
8.99342e-07
-2.56744e-07
-8.99202e-07
2.53319e-07
0.00108536
-1.62054e-09
-0.00108536
2.89335e-09
-1.24096e-06
2.59608e-07
-2.60707e-07
-8.93428e-07
2.47929e-07
-2.51033e-07
8.93754e-07
1.24914e-06
0.0010858
-1.6336e-09
-0.0010858
2.90772e-09
-1.24641e-06
2.62437e-07
-2.63492e-07
-8.99104e-07
2.53438e-07
-2.56548e-07
8.99394e-07
-2.30719e-07
-2.35592e-07
0.000264932
-1.20744e-06
0.000266917
-0.000264932
2.3333e-07
2.38154e-07
2.72469e-09
0.00108643
-2.55355e-07
1.20481e-06
2.54368e-07
8.93958e-07
-2.56634e-07
-8.93563e-07
2.53436e-07
-1.23838e-06
-1.55526e-09
2.87393e-09
0.00108548
-2.60773e-07
1.24108e-06
2.59692e-07
8.93792e-07
-2.566e-07
-8.93572e-07
2.53335e-07
0.00108643
-1.84721e-09
-0.00108643
2.72346e-09
-1.20208e-06
2.54345e-07
-2.55341e-07
-8.93496e-07
2.53508e-07
-2.56502e-07
8.9398e-07
1.24105e-06
0.00108548
-1.65173e-09
-0.00108548
2.89557e-09
-1.23837e-06
2.59661e-07
-2.60769e-07
-8.93499e-07
2.5341e-07
-2.56463e-07
8.93817e-07
-1.32842e-09
2.76079e-09
0.00108527
-2.55183e-07
1.23569e-06
2.54191e-07
8.91026e-07
-2.53936e-07
2.50471e-07
-8.90953e-07
-1.82441e-09
-0.00108615
2.71933e-09
-1.20467e-06
2.5433e-07
-2.55287e-07
-8.90788e-07
2.50759e-07
8.91199e-07
-2.53758e-07
1.23564e-06
0.00108527
-1.61575e-09
-0.00108527
2.89841e-09
-1.23297e-06
2.54128e-07
-2.55211e-07
-8.908e-07
2.50626e-07
-2.53707e-07
8.91115e-07
-2.28019e-07
-2.35414e-07
0.000264895
-1.20201e-06
0.00026687
-0.000264895
2.307e-07
2.38087e-07
-1.74278e-09
2.83065e-09
0.00108633
-2.5266e-07
1.2021e-06
2.51589e-07
8.91325e-07
-2.56609e-07
2.53431e-07
-8.90952e-07
-1.8056e-09
-0.00108581
2.70638e-09
-1.19929e-06
2.5155e-07
-2.52541e-07
-8.90609e-07
2.53401e-07
8.91079e-07
-2.56397e-07
1.20212e-06
0.00108633
-1.79683e-09
-0.00108633
2.76715e-09
-1.19941e-06
2.51593e-07
-2.52614e-07
-8.90896e-07
2.53494e-07
-2.56487e-07
8.91336e-07
-0.000264908
2.33019e-07
2.38318e-07
1.24097e-06
1.2021e-06
-2.27852e-07
-2.38152e-07
0.000264914
-1.24362e-06
-1.20476e-06
0.000266891
-0.000264914
2.30493e-07
2.40826e-07
2.94829e-09
0.00108536
-2.60731e-07
1.24364e-06
2.59586e-07
8.93748e-07
-2.51044e-07
-8.93432e-07
2.47921e-07
-1.24643e-06
-1.59851e-09
2.92433e-09
0.0010858
-2.6351e-07
1.24913e-06
2.62415e-07
8.99387e-07
-2.56553e-07
-8.9911e-07
2.53428e-07
0.00108536
-1.50643e-09
-0.00108536
3.00322e-09
-1.241e-06
2.59565e-07
-2.60758e-07
-8.93468e-07
2.47903e-07
-2.51072e-07
8.93722e-07
1.2491e-06
0.0010858
-1.49974e-09
-0.0010858
2.99265e-09
-1.24646e-06
2.62379e-07
-2.63553e-07
-8.99132e-07
2.53402e-07
-2.56579e-07
8.99366e-07
-2.30599e-07
-2.35401e-07
0.000264932
-1.2074e-06
0.000266917
-0.000264932
2.33283e-07
2.38101e-07
2.75639e-09
0.00108643
-2.55361e-07
1.20478e-06
2.54326e-07
8.93963e-07
-2.56515e-07
-8.93513e-07
2.53492e-07
-1.23839e-06
-1.59696e-09
2.93933e-09
0.00108548
-2.6079e-07
1.24103e-06
2.5964e-07
8.93804e-07
-2.56473e-07
-8.93513e-07
2.53397e-07
0.00108643
-1.70082e-09
-0.00108643
2.79204e-09
-1.20212e-06
2.54308e-07
-2.55386e-07
-8.93536e-07
2.53471e-07
-2.56536e-07
8.93943e-07
1.24102e-06
0.00108548
-1.50876e-09
-0.00108548
2.9838e-09
-1.23841e-06
2.59621e-07
-2.60816e-07
-8.93542e-07
2.53373e-07
-2.565e-07
8.9378e-07
-1.58856e-09
2.94517e-09
0.00108527
-2.55235e-07
1.23562e-06
2.54106e-07
8.91104e-07
-2.5371e-07
2.50617e-07
-8.90809e-07
-1.703e-09
-0.00108615
2.81926e-09
-1.20472e-06
2.5427e-07
-2.55354e-07
-8.90818e-07
2.50725e-07
8.9117e-07
-2.53784e-07
1.23561e-06
0.00108527
-1.51337e-09
-0.00108527
2.99942e-09
-1.23301e-06
2.54087e-07
-2.55261e-07
-8.90838e-07
2.50594e-07
-2.53735e-07
8.9108e-07
-2.28005e-07
-2.35402e-07
0.000264895
-1.20198e-06
0.00026687
-0.000264895
2.30662e-07
2.38053e-07
-1.74827e-09
2.79173e-09
0.00108633
-2.52631e-07
1.2021e-06
2.51576e-07
8.91323e-07
-2.56498e-07
2.53481e-07
-8.9091e-07
-1.67708e-09
-0.00108581
2.80574e-09
-1.19933e-06
2.51507e-07
-2.52592e-07
-8.90648e-07
2.5337e-07
8.91049e-07
-2.5643e-07
1.20208e-06
0.00108633
-1.65767e-09
-0.00108633
2.82635e-09
-1.19945e-06
2.51558e-07
-2.52654e-07
-8.90936e-07
2.53459e-07
-2.56523e-07
8.91301e-07
-0.000264908
2.32982e-07
2.38284e-07
1.241e-06
1.20212e-06
-2.27882e-07
-2.38179e-07
0.000264914
-1.24362e-06
-1.20476e-06
0.000266891
-0.000264914
2.305e-07
2.40825e-07
3.00964e-09
0.00108536
-2.6076e-07
1.24361e-06
2.59562e-07
8.93725e-07
-2.51077e-07
-8.93464e-07
2.47905e-07
-1.24647e-06
-1.49101e-09
3.00062e-09
0.0010858
-2.63558e-07
1.24909e-06
2.62374e-07
8.99364e-07
-2.56579e-07
-8.99134e-07
2.53401e-07
0.00108536
-1.50109e-09
-0.00108536
2.99316e-09
-1.241e-06
2.59568e-07
-2.60755e-07
-8.93467e-07
2.47918e-07
-2.51074e-07
8.93729e-07
1.2491e-06
0.0010858
-1.4638e-09
-0.0010858
3.02147e-09
-1.24647e-06
2.62377e-07
-2.63561e-07
-8.99136e-07
2.53392e-07
-2.56584e-07
8.99359e-07
-2.30637e-07
-2.35446e-07
0.000264932
-1.20739e-06
0.000266917
-0.000264932
2.33276e-07
2.38098e-07
2.79958e-09
0.00108643
-2.55388e-07
1.20476e-06
2.54306e-07
8.93937e-07
-2.5654e-07
-8.93541e-07
2.53465e-07
-1.23841e-06
-1.49546e-09
2.99648e-09
0.00108548
-2.60818e-07
1.24101e-06
2.59617e-07
8.93778e-07
-2.56502e-07
-8.93545e-07
2.53372e-07
0.00108643
-1.68347e-09
-0.00108643
2.7861e-09
-1.20212e-06
2.54311e-07
-2.55386e-07
-8.93537e-07
2.53464e-07
-2.56537e-07
8.93937e-07
1.24101e-06
0.00108548
-1.48717e-09
-0.00108548
2.99244e-09
-1.23841e-06
2.59618e-07
-2.60819e-07
-8.93546e-07
2.5337e-07
-2.56504e-07
8.93776e-07
-1.50342e-09
3.00013e-09
0.00108527
-2.55263e-07
1.23561e-06
2.54085e-07
8.91077e-07
-2.53738e-07
2.50592e-07
-8.90842e-07
-1.67978e-09
-0.00108615
2.83745e-09
-1.20473e-06
2.54265e-07
-2.55363e-07
-8.90823e-07
2.50722e-07
8.91166e-07
-2.53788e-07
1.2356e-06
0.00108527
-1.47144e-09
-0.00108527
2.99958e-09
-1.23302e-06
2.54082e-07
-2.55265e-07
-8.90846e-07
2.50587e-07
-2.53742e-07
8.91072e-07
-2.28034e-07
-2.35429e-07
0.000264895
-1.20198e-06
0.00026687
-0.000264895
2.30662e-07
2.38052e-07
-1.65568e-09
2.83238e-09
0.00108633
-2.52656e-07
1.20208e-06
2.51555e-07
8.91301e-07
-2.56524e-07
2.53459e-07
-8.90938e-07
-1.65909e-09
-0.00108581
2.80612e-09
-1.19933e-06
2.51508e-07
-2.52593e-07
-8.90655e-07
2.53368e-07
8.91046e-07
-2.56438e-07
1.20209e-06
0.00108633
-1.61393e-09
-0.00108633
2.83233e-09
-1.19945e-06
2.51562e-07
-2.52653e-07
-8.90937e-07
2.5346e-07
-2.56526e-07
8.91303e-07
-0.000264908
2.32984e-07
2.38282e-07
1.24099e-06