/*--------------------------------*- C++ -*----------------------------------*\
| =========                 |                                                 |
| \\      /  F ield         | OpenFOAM: The Open Source CFD Toolbox           |
|  \\    /   O peration     | Version:  2206                                  |
|   \\  /    A nd           | Website:  www.openfoam.com                      |
|    \\/     M anipulation  |                                                 |
\*---------------------------------------------------------------------------*/
FoamFile
{
    version     2.0;
    format      ascii;
    arch        "LSB;label=32;scalar=64";
    class       volScalarField;
    location    "7";
    object      k;
}
// * * * * * * * * * * * * * * * * * * * * * * * * * * * * * * * * * * * * * //

dimensions      [0 2 -2 0 0 0 0];

internalField   nonuniform List<scalar> 
28673
(
3.40584e-05
3.40353e-05
3.40719e-05
3.40554e-05
3.4058e-05
3.40338e-05
3.40621e-05
3.40469e-05
3.40479e-05
3.40229e-05
3.40609e-05
3.40468e-05
3.40468e-05
3.40229e-05
3.40609e-05
3.40468e-05
3.40468e-05
3.40229e-05
3.40609e-05
3.40468e-05
3.40468e-05
3.40229e-05
3.40609e-05
3.40468e-05
3.40468e-05
3.40229e-05
3.40609e-05
3.40468e-05
3.40468e-05
3.40229e-05
3.40609e-05
3.40468e-05
3.40468e-05
3.40229e-05
3.40609e-05
3.40468e-05
3.40468e-05
3.40229e-05
3.40609e-05
3.40468e-05
3.40468e-05
3.40229e-05
3.40609e-05
3.40469e-05
3.40468e-05
3.4023e-05
3.40615e-05
3.40514e-05
3.40514e-05
3.40277e-05
3.40585e-05
3.40353e-05
3.40584e-05
3.4036e-05
3.40584e-05
3.40584e-05
3.40581e-05
3.40575e-05
3.40355e-05
3.40338e-05
3.40583e-05
3.40582e-05
3.40584e-05
3.40576e-05
3.40579e-05
3.40351e-05
3.40584e-05
3.40584e-05
3.4058e-05
3.40345e-05
3.40357e-05
3.40242e-05
3.40574e-05
3.40552e-05
3.40485e-05
3.40473e-05
3.40322e-05
3.40233e-05
3.40581e-05
3.4058e-05
3.40504e-05
3.40504e-05
3.40571e-05
3.40474e-05
3.40481e-05
3.40349e-05
3.4025e-05
3.40571e-05
3.40501e-05
3.40482e-05
3.40234e-05
3.40235e-05
3.40233e-05
3.40474e-05
3.4047e-05
3.40468e-05
3.40468e-05
3.40236e-05
3.40233e-05
3.40482e-05
3.40482e-05
3.40468e-05
3.40467e-05
3.40473e-05
3.40469e-05
3.40468e-05
3.40237e-05
3.40233e-05
3.40473e-05
3.40468e-05
3.40468e-05
3.40233e-05
3.40236e-05
3.40233e-05
3.4047e-05
3.4047e-05
3.40468e-05
3.40468e-05
3.40236e-05
3.40233e-05
3.40469e-05
3.40469e-05
3.40468e-05
3.40468e-05
3.4047e-05
3.40469e-05
3.40468e-05
3.40236e-05
3.40233e-05
3.4047e-05
3.40469e-05
3.40468e-05
3.40233e-05
3.40236e-05
3.40233e-05
3.4047e-05
3.4047e-05
3.40468e-05
3.40468e-05
3.40236e-05
3.40233e-05
3.4047e-05
3.40469e-05
3.40468e-05
3.40468e-05
3.4047e-05
3.40469e-05
3.40468e-05
3.40236e-05
3.40233e-05
3.4047e-05
3.40469e-05
3.40468e-05
3.40233e-05
3.40236e-05
3.40233e-05
3.4047e-05
3.4047e-05
3.40468e-05
3.40468e-05
3.40236e-05
3.40233e-05
3.4047e-05
3.40469e-05
3.40468e-05
3.40468e-05
3.4047e-05
3.40469e-05
3.40468e-05
3.40236e-05
3.40233e-05
3.4047e-05
3.40469e-05
3.40468e-05
3.40233e-05
3.40236e-05
3.40233e-05
3.4047e-05
3.4047e-05
3.40468e-05
3.40468e-05
3.40236e-05
3.40233e-05
3.4047e-05
3.40469e-05
3.40468e-05
3.40468e-05
3.4047e-05
3.40469e-05
3.40468e-05
3.40236e-05
3.40233e-05
3.4047e-05
3.40469e-05
3.40468e-05
3.40233e-05
3.40236e-05
3.40233e-05
3.4047e-05
3.4047e-05
3.40468e-05
3.40468e-05
3.40236e-05
3.40233e-05
3.4047e-05
3.40469e-05
3.40468e-05
3.40468e-05
3.4047e-05
3.40469e-05
3.40468e-05
3.40236e-05
3.40233e-05
3.4047e-05
3.40469e-05
3.40468e-05
3.40233e-05
3.40236e-05
3.40233e-05
3.4047e-05
3.4047e-05
3.40468e-05
3.40468e-05
3.40236e-05
3.40233e-05
3.4047e-05
3.40469e-05
3.40468e-05
3.40468e-05
3.4047e-05
3.40469e-05
3.40468e-05
3.40236e-05
3.40233e-05
3.4047e-05
3.40469e-05
3.40468e-05
3.40233e-05
3.40236e-05
3.40233e-05
3.4047e-05
3.4047e-05
3.40468e-05
3.40468e-05
3.40236e-05
3.40233e-05
3.4047e-05
3.40469e-05
3.40468e-05
3.40468e-05
3.4047e-05
3.40469e-05
3.40468e-05
3.40236e-05
3.40233e-05
3.4047e-05
3.40469e-05
3.40468e-05
3.40233e-05
3.40236e-05
3.40233e-05
3.4047e-05
3.4047e-05
3.40468e-05
3.40469e-05
3.40236e-05
3.40233e-05
3.4047e-05
3.40469e-05
3.40469e-05
3.40468e-05
3.4047e-05
3.40469e-05
3.40469e-05
3.40236e-05
3.40233e-05
3.4047e-05
3.40469e-05
3.40469e-05
3.40233e-05
3.40236e-05
3.40252e-05
3.4047e-05
3.4047e-05
3.40489e-05
3.40489e-05
3.40236e-05
3.40251e-05
3.4047e-05
3.4047e-05
3.40489e-05
3.40489e-05
3.4047e-05
3.40489e-05
3.40489e-05
3.40236e-05
3.40251e-05
3.4047e-05
3.40489e-05
3.40489e-05
3.40249e-05
3.40281e-05
3.40514e-05
3.40514e-05
3.4028e-05
3.40514e-05
3.40514e-05
3.40614e-05
3.40614e-05
3.40614e-05
3.40514e-05
3.4028e-05
3.40514e-05
3.44659e-05
5.36201e-05
3.44659e-05
5.36194e-05
7.56912e-05
7.56837e-05
3.4466e-05
5.36212e-05
3.40726e-05
3.40723e-05
3.40723e-05
3.40719e-05
3.40722e-05
3.40718e-05
3.38968e-05
3.43348e-05
3.40694e-05
3.40585e-05
3.38969e-05
3.43348e-05
3.40694e-05
7.56928e-05
3.38966e-05
3.40692e-05
3.40586e-05
3.38968e-05
3.40692e-05
3.43346e-05
3.49799e-05
3.498e-05
3.40351e-05
3.49825e-05
3.49825e-05
3.44637e-05
5.36212e-05
3.44666e-05
5.36417e-05
7.57045e-05
7.57696e-05
3.44666e-05
5.36231e-05
3.44672e-05
5.36234e-05
3.40708e-05
3.40719e-05
3.40709e-05
3.40642e-05
3.40622e-05
3.40644e-05
3.40624e-05
3.38913e-05
3.43347e-05
3.40678e-05
3.40516e-05
3.38963e-05
3.43278e-05
3.40648e-05
7.56887e-05
7.56911e-05
3.38914e-05
3.4068e-05
3.43355e-05
3.4057e-05
3.38962e-05
3.40655e-05
3.43334e-05
3.49854e-05
3.49854e-05
3.40296e-05
3.49836e-05
3.49836e-05
3.44551e-05
5.36679e-05
3.44555e-05
5.36665e-05
7.57756e-05
7.57753e-05
3.44554e-05
5.36698e-05
3.44573e-05
5.36692e-05
3.40613e-05
3.40623e-05
3.40614e-05
3.40609e-05
3.40609e-05
3.40609e-05
3.40609e-05
3.38838e-05
3.43235e-05
3.40581e-05
3.4047e-05
3.38836e-05
3.43229e-05
3.40579e-05
7.57775e-05
7.57768e-05
3.38836e-05
3.40582e-05
3.4325e-05
3.40472e-05
3.38835e-05
3.4058e-05
3.43232e-05
3.49715e-05
3.49716e-05
3.40233e-05
3.49711e-05
3.49712e-05
3.44552e-05
5.36681e-05
3.44556e-05
5.36665e-05
7.57757e-05
7.57753e-05
3.44556e-05
5.36701e-05
3.44559e-05
5.36684e-05
3.40611e-05
3.4061e-05
3.40611e-05
3.40609e-05
3.40609e-05
3.40609e-05
3.40609e-05
3.38838e-05
3.43236e-05
3.40578e-05
3.4047e-05
3.38836e-05
3.4323e-05
3.40579e-05
7.57772e-05
7.57751e-05
3.38836e-05
3.40578e-05
3.43237e-05
3.4047e-05
3.38835e-05
3.40579e-05
3.43231e-05
3.49715e-05
3.49716e-05
3.40233e-05
3.49713e-05
3.49714e-05
3.44552e-05
5.3668e-05
3.44556e-05
5.36665e-05
7.57757e-05
7.57753e-05
3.44556e-05
5.36702e-05
3.44559e-05
5.36684e-05
3.4061e-05
3.4061e-05
3.4061e-05
3.40609e-05
3.40609e-05
3.40609e-05
3.40609e-05
3.38837e-05
3.43236e-05
3.40578e-05
3.4047e-05
3.38836e-05
3.4323e-05
3.40579e-05
7.57771e-05
7.57751e-05
3.38836e-05
3.40577e-05
3.43237e-05
3.4047e-05
3.38835e-05
3.40579e-05
3.43231e-05
3.49716e-05
3.49716e-05
3.40233e-05
3.49713e-05
3.49714e-05
3.44552e-05
5.3668e-05
3.44556e-05
5.36665e-05
7.57757e-05
7.57753e-05
3.44556e-05
5.36702e-05
3.44559e-05
5.36685e-05
3.4061e-05
3.4061e-05
3.4061e-05
3.40609e-05
3.40609e-05
3.40609e-05
3.40609e-05
3.38838e-05
3.43236e-05
3.40578e-05
3.4047e-05
3.38836e-05
3.4323e-05
3.40579e-05
7.57771e-05
7.57751e-05
3.38836e-05
3.40578e-05
3.43237e-05
3.4047e-05
3.38835e-05
3.40579e-05
3.43231e-05
3.49716e-05
3.49716e-05
3.40233e-05
3.49713e-05
3.49714e-05
3.44552e-05
5.3668e-05
3.44556e-05
5.36665e-05
7.57757e-05
7.57753e-05
3.44556e-05
5.36702e-05
3.44559e-05
5.36685e-05
3.4061e-05
3.4061e-05
3.4061e-05
3.40609e-05
3.40609e-05
3.40609e-05
3.40609e-05
3.38838e-05
3.43236e-05
3.40578e-05
3.4047e-05
3.38836e-05
3.4323e-05
3.40579e-05
7.57771e-05
7.57751e-05
3.38836e-05
3.40577e-05
3.43237e-05
3.4047e-05
3.38835e-05
3.40579e-05
3.43231e-05
3.49716e-05
3.49716e-05
3.40233e-05
3.49713e-05
3.49714e-05
3.44552e-05
5.3668e-05
3.44556e-05
5.36665e-05
7.57757e-05
7.57753e-05
3.44556e-05
5.36702e-05
3.44559e-05
5.36684e-05
3.4061e-05
3.4061e-05
3.4061e-05
3.40609e-05
3.40609e-05
3.40609e-05
3.40609e-05
3.38838e-05
3.43236e-05
3.40578e-05
3.4047e-05
3.38836e-05
3.4323e-05
3.40579e-05
7.57771e-05
7.57751e-05
3.38837e-05
3.40578e-05
3.43237e-05
3.4047e-05
3.38835e-05
3.40579e-05
3.43231e-05
3.49716e-05
3.49716e-05
3.40233e-05
3.49713e-05
3.49714e-05
3.44552e-05
5.3668e-05
3.44556e-05
5.36665e-05
7.57757e-05
7.57753e-05
3.44556e-05
5.36702e-05
3.44559e-05
5.36685e-05
3.4061e-05
3.4061e-05
3.4061e-05
3.40609e-05
3.40609e-05
3.40609e-05
3.40609e-05
3.38838e-05
3.43236e-05
3.40578e-05
3.4047e-05
3.38836e-05
3.4323e-05
3.40579e-05
7.57771e-05
7.57751e-05
3.38837e-05
3.40578e-05
3.43237e-05
3.4047e-05
3.38836e-05
3.40579e-05
3.43231e-05
3.49716e-05
3.49716e-05
3.40233e-05
3.49713e-05
3.49714e-05
3.44552e-05
5.3668e-05
3.44556e-05
5.36665e-05
7.57757e-05
7.57754e-05
3.44556e-05
5.367e-05
3.44559e-05
5.36681e-05
3.4061e-05
3.4061e-05
3.4061e-05
3.40609e-05
3.40609e-05
3.40609e-05
3.40609e-05
3.38838e-05
3.43236e-05
3.40578e-05
3.4047e-05
3.38836e-05
3.4323e-05
3.40579e-05
7.57771e-05
7.57751e-05
3.38837e-05
3.40578e-05
3.43237e-05
3.4047e-05
3.38836e-05
3.40579e-05
3.43231e-05
3.49716e-05
3.49716e-05
3.40233e-05
3.49713e-05
3.49714e-05
3.4455e-05
5.3668e-05
3.44556e-05
5.36693e-05
7.57758e-05
7.5778e-05
3.44555e-05
5.36697e-05
3.44559e-05
5.36712e-05
3.4061e-05
3.4061e-05
3.4061e-05
3.40609e-05
3.40609e-05
3.40609e-05
3.40609e-05
3.38837e-05
3.43233e-05
3.40578e-05
3.4047e-05
3.38836e-05
3.43227e-05
3.40579e-05
7.5777e-05
7.57787e-05
3.38837e-05
3.40578e-05
3.43234e-05
3.4047e-05
3.38836e-05
3.40579e-05
3.4323e-05
3.49715e-05
3.49715e-05
3.40233e-05
3.49715e-05
3.49716e-05
3.4456e-05
5.36483e-05
3.44581e-05
5.36623e-05
7.57345e-05
7.57442e-05
3.44566e-05
5.36505e-05
3.44584e-05
5.36645e-05
3.4061e-05
3.4061e-05
3.4061e-05
3.40611e-05
3.40611e-05
3.40611e-05
3.40611e-05
3.3884e-05
3.43305e-05
3.40578e-05
3.40471e-05
3.38835e-05
3.43241e-05
3.40579e-05
7.5737e-05
7.57468e-05
3.3884e-05
3.40578e-05
3.43308e-05
3.40471e-05
3.38835e-05
3.40579e-05
3.43241e-05
3.49773e-05
3.49773e-05
3.40234e-05
3.499e-05
3.49898e-05
3.38467e-05
5.2556e-05
3.44666e-05
4.16253e-05
7.01427e-05
3.95207e-05
3.38466e-05
5.2561e-05
3.44665e-05
4.16269e-05
3.40625e-05
3.40622e-05
3.40622e-05
3.40611e-05
3.40624e-05
3.40623e-05
3.40623e-05
3.38832e-05
3.43471e-05
3.40589e-05
3.40538e-05
3.38903e-05
3.4833e-05
3.40605e-05
7.01453e-05
3.95205e-05
3.38832e-05
3.40589e-05
3.43469e-05
3.40538e-05
3.38903e-05
3.40605e-05
3.48327e-05
3.51015e-05
3.51013e-05
3.40338e-05
3.46935e-05
3.46934e-05
5.36195e-05
3.43343e-05
7.56926e-05
3.49804e-05
3.49784e-05
7.56862e-05
3.4334e-05
5.36189e-05
7.56956e-05
7.56891e-05
7.56933e-05
3.49795e-05
3.40371e-05
3.49822e-05
3.49781e-05
7.5685e-05
7.56872e-05
7.56858e-05
7.56925e-05
3.40368e-05
3.49851e-05
3.49823e-05
3.49839e-05
3.49802e-05
3.44658e-05
5.36196e-05
3.44658e-05
5.36192e-05
3.38967e-05
3.43343e-05
3.40692e-05
3.40584e-05
3.38969e-05
3.43339e-05
3.40692e-05
3.38967e-05
3.43355e-05
3.40693e-05
3.40584e-05
3.38969e-05
3.4335e-05
3.40693e-05
3.44669e-05
5.362e-05
5.36194e-05
3.44664e-05
3.44668e-05
5.36223e-05
5.36192e-05
3.44663e-05
3.38971e-05
3.40583e-05
3.43343e-05
3.40688e-05
3.43351e-05
3.4069e-05
3.38966e-05
3.38972e-05
3.40581e-05
3.43347e-05
3.40688e-05
3.43361e-05
3.40691e-05
3.38966e-05
3.49825e-05
3.49811e-05
3.40353e-05
3.49843e-05
3.4983e-05
7.56859e-05
7.5681e-05
7.56876e-05
7.56826e-05
3.4035e-05
3.49855e-05
3.49843e-05
3.49856e-05
3.49846e-05
7.56854e-05
7.5681e-05
3.38971e-05
3.40584e-05
3.43341e-05
3.40692e-05
3.44659e-05
5.36203e-05
3.38968e-05
3.40583e-05
3.40692e-05
3.4334e-05
3.44669e-05
5.36219e-05
5.36212e-05
3.44669e-05
3.38976e-05
3.40584e-05
3.43346e-05
3.4069e-05
3.43353e-05
3.40691e-05
3.38974e-05
3.44668e-05
5.36206e-05
5.36203e-05
3.44666e-05
3.38972e-05
3.40583e-05
3.4069e-05
3.43346e-05
3.40691e-05
3.43353e-05
3.38971e-05
3.44659e-05
5.3619e-05
3.44658e-05
5.36188e-05
3.38967e-05
3.40692e-05
3.43344e-05
3.40584e-05
3.38969e-05
3.40692e-05
3.43339e-05
3.44658e-05
5.36212e-05
3.44657e-05
5.3621e-05
3.38971e-05
3.40583e-05
3.43344e-05
3.40688e-05
3.4336e-05
3.40692e-05
3.38965e-05
3.44669e-05
5.36221e-05
5.36188e-05
3.44663e-05
3.38971e-05
3.40582e-05
3.40687e-05
3.43343e-05
3.4069e-05
3.43351e-05
3.38966e-05
3.44668e-05
5.36218e-05
5.36209e-05
3.44662e-05
3.40352e-05
3.49793e-05
3.49806e-05
7.56924e-05
7.56879e-05
7.56927e-05
3.40353e-05
3.49836e-05
3.49847e-05
3.49818e-05
3.49825e-05
7.56849e-05
7.56915e-05
3.38966e-05
3.40692e-05
3.43345e-05
3.40584e-05
3.38968e-05
3.40692e-05
3.43341e-05
3.44653e-05
3.44654e-05
5.36202e-05
3.44653e-05
5.3622e-05
3.44653e-05
5.36218e-05
3.38969e-05
3.40586e-05
3.40688e-05
3.4335e-05
3.40691e-05
3.43358e-05
3.38964e-05
3.3897e-05
3.40583e-05
3.40687e-05
3.43344e-05
3.4069e-05
3.43353e-05
3.38965e-05
3.44665e-05
5.36202e-05
5.36202e-05
3.4466e-05
3.44664e-05
5.36227e-05
5.36218e-05
3.4466e-05
7.56973e-05
7.56909e-05
7.56985e-05
7.56921e-05
3.4035e-05
3.49851e-05
3.49852e-05
3.49841e-05
3.49841e-05
7.56868e-05
7.5689e-05
7.5688e-05
7.56902e-05
7.5685e-05
7.57313e-05
7.56853e-05
7.56895e-05
3.49858e-05
3.49836e-05
3.40331e-05
3.49838e-05
3.49858e-05
7.57743e-05
7.57549e-05
7.57708e-05
7.57029e-05
3.40302e-05
3.49716e-05
3.4977e-05
3.49816e-05
3.49863e-05
3.44638e-05
5.36296e-05
3.4467e-05
5.36634e-05
3.38914e-05
3.43352e-05
3.40679e-05
3.4055e-05
3.38964e-05
3.43313e-05
3.40652e-05
3.38914e-05
3.43352e-05
3.40678e-05
3.40515e-05
3.38964e-05
3.43279e-05
3.40648e-05
3.44626e-05
5.36668e-05
5.36567e-05
3.44552e-05
3.44627e-05
5.3668e-05
5.36679e-05
3.44552e-05
3.38883e-05
3.40511e-05
3.43232e-05
3.40591e-05
3.43303e-05
3.40615e-05
3.38838e-05
3.38883e-05
3.40488e-05
3.43233e-05
3.4059e-05
3.43269e-05
3.40612e-05
3.38839e-05
3.49858e-05
3.49849e-05
3.40252e-05
3.49765e-05
3.49761e-05
7.57006e-05
7.57656e-05
7.57745e-05
7.57744e-05
3.40238e-05
3.49708e-05
3.49695e-05
3.49747e-05
3.49748e-05
7.57715e-05
7.57714e-05
3.38962e-05
3.43357e-05
3.40688e-05
3.40572e-05
3.38974e-05
3.43343e-05
3.40679e-05
3.44664e-05
5.36206e-05
3.44674e-05
5.36224e-05
3.38962e-05
3.40688e-05
3.43358e-05
3.40572e-05
3.38975e-05
3.40679e-05
3.43341e-05
3.44665e-05
5.36642e-05
5.36292e-05
3.44582e-05
3.38948e-05
3.40543e-05
3.43263e-05
3.40614e-05
3.43345e-05
3.40651e-05
3.38858e-05
3.44663e-05
5.36643e-05
5.36282e-05
3.44581e-05
3.38947e-05
3.40544e-05
3.40614e-05
3.43262e-05
3.40651e-05
3.43344e-05
3.38858e-05
3.44638e-05
5.36295e-05
3.4467e-05
5.36628e-05
3.38914e-05
3.40679e-05
3.43351e-05
3.40543e-05
3.38964e-05
3.40651e-05
3.43311e-05
3.44638e-05
5.36218e-05
3.44669e-05
5.36426e-05
3.38882e-05
3.40488e-05
3.43229e-05
3.4059e-05
3.4327e-05
3.40612e-05
3.38837e-05
3.44627e-05
5.36676e-05
5.36675e-05
3.44553e-05
3.38883e-05
3.40505e-05
3.40591e-05
3.43232e-05
3.40614e-05
3.43301e-05
3.38839e-05
3.44626e-05
5.36689e-05
5.36578e-05
3.44552e-05
3.4985e-05
3.49859e-05
3.40338e-05
3.49847e-05
3.49856e-05
7.56844e-05
7.56883e-05
7.57692e-05
7.57051e-05
3.40321e-05
3.4976e-05
3.4976e-05
3.49852e-05
3.49855e-05
7.5769e-05
7.57004e-05
3.38914e-05
3.40679e-05
3.43352e-05
3.40543e-05
3.38963e-05
3.40651e-05
3.43313e-05
3.44636e-05
5.36202e-05
3.44668e-05
5.36221e-05
3.44636e-05
5.36227e-05
3.44668e-05
5.36434e-05
3.38883e-05
3.40537e-05
3.40594e-05
3.43253e-05
3.40617e-05
3.43331e-05
3.38837e-05
3.38883e-05
3.40505e-05
3.40591e-05
3.43234e-05
3.40614e-05
3.43303e-05
3.38838e-05
3.44629e-05
5.36644e-05
5.36285e-05
3.44551e-05
3.44629e-05
5.36697e-05
5.36587e-05
3.44551e-05
7.56868e-05
7.57346e-05
7.5688e-05
7.57358e-05
3.40267e-05
3.49717e-05
3.49717e-05
3.49815e-05
3.49816e-05
7.57761e-05
7.57576e-05
7.57773e-05
7.57589e-05
7.5773e-05
7.57739e-05
7.57758e-05
7.57767e-05
3.49717e-05
3.49747e-05
3.40232e-05
3.49712e-05
3.49711e-05
7.57732e-05
7.57721e-05
7.57758e-05
7.57748e-05
3.40236e-05
3.49711e-05
3.49711e-05
3.49718e-05
3.49717e-05
3.44551e-05
5.3668e-05
3.44557e-05
5.36678e-05
3.38838e-05
3.4324e-05
3.40582e-05
3.4047e-05
3.38841e-05
3.4323e-05
3.40579e-05
3.38838e-05
3.43243e-05
3.40582e-05
3.40469e-05
3.38841e-05
3.43233e-05
3.40579e-05
3.4456e-05
5.3667e-05
5.36659e-05
3.44552e-05
3.44559e-05
5.36676e-05
5.36676e-05
3.44552e-05
3.38841e-05
3.40468e-05
3.4323e-05
3.40577e-05
3.43241e-05
3.40577e-05
3.38839e-05
3.38841e-05
3.40468e-05
3.43233e-05
3.40577e-05
3.43244e-05
3.40577e-05
3.38838e-05
3.49715e-05
3.497e-05
3.40232e-05
3.4971e-05
3.49689e-05
7.57701e-05
7.57716e-05
7.57746e-05
7.57749e-05
3.40235e-05
3.49711e-05
3.49694e-05
3.49717e-05
3.49698e-05
7.57712e-05
7.577e-05
3.38839e-05
3.43258e-05
3.40592e-05
3.40473e-05
3.38848e-05
3.43233e-05
3.40583e-05
3.44551e-05
5.36694e-05
3.44572e-05
5.36694e-05
3.38839e-05
3.40592e-05
3.43258e-05
3.40473e-05
3.38847e-05
3.40583e-05
3.43231e-05
3.44561e-05
5.3669e-05
5.3669e-05
3.44556e-05
3.38843e-05
3.40468e-05
3.43233e-05
3.40577e-05
3.43243e-05
3.40578e-05
3.3884e-05
3.44558e-05
5.36689e-05
5.36694e-05
3.44553e-05
3.38842e-05
3.40468e-05
3.40577e-05
3.4323e-05
3.40577e-05
3.43242e-05
3.38839e-05
3.44551e-05
5.36676e-05
3.44558e-05
5.36673e-05
3.38838e-05
3.40582e-05
3.4324e-05
3.4047e-05
3.38841e-05
3.40579e-05
3.4323e-05
3.4455e-05
5.36689e-05
3.44557e-05
5.36685e-05
3.38841e-05
3.40469e-05
3.4323e-05
3.40578e-05
3.4324e-05
3.40579e-05
3.38837e-05
3.44559e-05
5.36672e-05
5.36669e-05
3.44552e-05
3.38841e-05
3.40468e-05
3.40577e-05
3.4323e-05
3.40577e-05
3.43241e-05
3.38838e-05
3.44559e-05
5.36682e-05
5.36683e-05
3.44551e-05
3.49745e-05
3.49743e-05
3.40232e-05
3.49701e-05
3.49711e-05
7.57746e-05
7.57757e-05
7.57757e-05
7.57752e-05
3.40235e-05
3.497e-05
3.49712e-05
3.49707e-05
3.49716e-05
7.57749e-05
7.57738e-05
3.38837e-05
3.40582e-05
3.43242e-05
3.4047e-05
3.3884e-05
3.40579e-05
3.43231e-05
3.44546e-05
5.3669e-05
3.44556e-05
5.36691e-05
3.44545e-05
5.36697e-05
3.44555e-05
5.36693e-05
3.3884e-05
3.40469e-05
3.40578e-05
3.43231e-05
3.40578e-05
3.43242e-05
3.38835e-05
3.3884e-05
3.40468e-05
3.40577e-05
3.43231e-05
3.40577e-05
3.43242e-05
3.38837e-05
3.44555e-05
5.36685e-05
5.36691e-05
3.44547e-05
3.44555e-05
5.3669e-05
5.36692e-05
3.44546e-05
7.57748e-05
7.57757e-05
7.5776e-05
7.57769e-05
3.40236e-05
3.49713e-05
3.49713e-05
3.49717e-05
3.49718e-05
7.57749e-05
7.57738e-05
7.57761e-05
7.5775e-05
7.5772e-05
7.57742e-05
7.57745e-05
7.57767e-05
3.49717e-05
3.49718e-05
3.40232e-05
3.49711e-05
3.49712e-05
7.57732e-05
7.57722e-05
7.57757e-05
7.57747e-05
3.40236e-05
3.4971e-05
3.49712e-05
3.49717e-05
3.49718e-05
3.44551e-05
5.36677e-05
3.4456e-05
5.36677e-05
3.38838e-05
3.43241e-05
3.40579e-05
3.4047e-05
3.38842e-05
3.4323e-05
3.40579e-05
3.38838e-05
3.43243e-05
3.40579e-05
3.40469e-05
3.38841e-05
3.43233e-05
3.40579e-05
3.4456e-05
5.36668e-05
5.36658e-05
3.44552e-05
3.44559e-05
5.36677e-05
5.36674e-05
3.44551e-05
3.38842e-05
3.40469e-05
3.4323e-05
3.40577e-05
3.43241e-05
3.40578e-05
3.38839e-05
3.38841e-05
3.40469e-05
3.43233e-05
3.40577e-05
3.43244e-05
3.40577e-05
3.38838e-05
3.49717e-05
3.49703e-05
3.40232e-05
3.4971e-05
3.49695e-05
7.57698e-05
7.57716e-05
7.57746e-05
7.57749e-05
3.40235e-05
3.49711e-05
3.49692e-05
3.49717e-05
3.49702e-05
7.57712e-05
7.577e-05
3.3884e-05
3.43243e-05
3.40579e-05
3.40469e-05
3.38843e-05
3.43233e-05
3.40579e-05
3.44553e-05
5.36689e-05
3.4456e-05
5.36687e-05
3.38839e-05
3.40579e-05
3.43242e-05
3.40469e-05
3.38842e-05
3.40579e-05
3.4323e-05
3.44564e-05
5.3669e-05
5.36678e-05
3.44556e-05
3.38843e-05
3.40469e-05
3.43233e-05
3.40577e-05
3.43243e-05
3.40578e-05
3.3884e-05
3.4456e-05
5.36689e-05
5.3668e-05
3.44553e-05
3.38841e-05
3.40469e-05
3.40577e-05
3.4323e-05
3.40578e-05
3.43242e-05
3.38839e-05
3.44551e-05
5.36672e-05
3.4456e-05
5.36671e-05
3.38838e-05
3.4058e-05
3.43241e-05
3.4047e-05
3.38841e-05
3.40579e-05
3.4323e-05
3.4455e-05
5.36682e-05
3.44559e-05
5.36682e-05
3.38841e-05
3.4047e-05
3.4323e-05
3.40578e-05
3.43241e-05
3.40579e-05
3.38836e-05
3.44559e-05
5.36672e-05
5.36665e-05
3.44551e-05
3.38841e-05
3.40469e-05
3.40577e-05
3.4323e-05
3.40578e-05
3.43241e-05
3.38838e-05
3.44558e-05
5.36682e-05
5.36676e-05
3.44551e-05
3.49707e-05
3.49717e-05
3.40232e-05
3.49701e-05
3.49712e-05
7.57737e-05
7.57757e-05
7.57756e-05
7.57741e-05
3.40235e-05
3.497e-05
3.49712e-05
3.49708e-05
3.49717e-05
7.57748e-05
7.57737e-05
3.38837e-05
3.4058e-05
3.43242e-05
3.4047e-05
3.3884e-05
3.40579e-05
3.43231e-05
3.44546e-05
5.36685e-05
3.44556e-05
5.36686e-05
3.44545e-05
5.3669e-05
3.44555e-05
5.3669e-05
3.3884e-05
3.4047e-05
3.40578e-05
3.43231e-05
3.40579e-05
3.43242e-05
3.38835e-05
3.3884e-05
3.40469e-05
3.40577e-05
3.43231e-05
3.40578e-05
3.43242e-05
3.38837e-05
3.44555e-05
5.36685e-05
5.36682e-05
3.44547e-05
3.44554e-05
5.3669e-05
5.36684e-05
3.44546e-05
7.57739e-05
7.5776e-05
7.57751e-05
7.57771e-05
3.40236e-05
3.49714e-05
3.49714e-05
3.49719e-05
3.4972e-05
7.57749e-05
7.5774e-05
7.57761e-05
7.57752e-05
7.5772e-05
7.57742e-05
7.57745e-05
7.57766e-05
3.49716e-05
3.49719e-05
3.40232e-05
3.49711e-05
3.49713e-05
7.57732e-05
7.57722e-05
7.57757e-05
7.57747e-05
3.40236e-05
3.49711e-05
3.49711e-05
3.49717e-05
3.49719e-05
3.44551e-05
5.36677e-05
3.4456e-05
5.36677e-05
3.38838e-05
3.43241e-05
3.40579e-05
3.40469e-05
3.38842e-05
3.4323e-05
3.40579e-05
3.38838e-05
3.43243e-05
3.40579e-05
3.40469e-05
3.38841e-05
3.43233e-05
3.40579e-05
3.4456e-05
5.36669e-05
5.36658e-05
3.44552e-05
3.44559e-05
5.36677e-05
5.36673e-05
3.44551e-05
3.38842e-05
3.40469e-05
3.4323e-05
3.40578e-05
3.43241e-05
3.40578e-05
3.38839e-05
3.38841e-05
3.40469e-05
3.43233e-05
3.40577e-05
3.43244e-05
3.40578e-05
3.38838e-05
3.49717e-05
3.497e-05
3.40232e-05
3.4971e-05
3.49695e-05
7.57698e-05
7.57716e-05
7.57746e-05
7.57749e-05
3.40235e-05
3.49711e-05
3.49692e-05
3.49717e-05
3.49703e-05
7.57712e-05
7.577e-05
3.3884e-05
3.43243e-05
3.40579e-05
3.4047e-05
3.38843e-05
3.43233e-05
3.40579e-05
3.44553e-05
5.3669e-05
3.44561e-05
5.36687e-05
3.38839e-05
3.40579e-05
3.43242e-05
3.40469e-05
3.38842e-05
3.40579e-05
3.4323e-05
3.44564e-05
5.3669e-05
5.36678e-05
3.44556e-05
3.38843e-05
3.40469e-05
3.43233e-05
3.40578e-05
3.43243e-05
3.40578e-05
3.3884e-05
3.4456e-05
5.36689e-05
5.36682e-05
3.44553e-05
3.38842e-05
3.40469e-05
3.40577e-05
3.4323e-05
3.40578e-05
3.43242e-05
3.38839e-05
3.44551e-05
5.36673e-05
3.44559e-05
5.36671e-05
3.38838e-05
3.40579e-05
3.43241e-05
3.40469e-05
3.38841e-05
3.40579e-05
3.4323e-05
3.4455e-05
5.36682e-05
3.44559e-05
5.36682e-05
3.38841e-05
3.4047e-05
3.4323e-05
3.40578e-05
3.43241e-05
3.40579e-05
3.38836e-05
3.44559e-05
5.36673e-05
5.36665e-05
3.44551e-05
3.38841e-05
3.40469e-05
3.40578e-05
3.4323e-05
3.40578e-05
3.43241e-05
3.38838e-05
3.44558e-05
5.36682e-05
5.36677e-05
3.44551e-05
3.49706e-05
3.49717e-05
3.40232e-05
3.49701e-05
3.49712e-05
7.57737e-05
7.57757e-05
7.57756e-05
7.57741e-05
3.40235e-05
3.497e-05
3.49712e-05
3.49708e-05
3.49717e-05
7.57747e-05
7.57736e-05
3.38837e-05
3.40579e-05
3.43242e-05
3.4047e-05
3.3884e-05
3.40579e-05
3.43231e-05
3.44546e-05
5.36685e-05
3.44555e-05
5.36686e-05
3.44545e-05
5.3669e-05
3.44555e-05
5.3669e-05
3.3884e-05
3.4047e-05
3.40578e-05
3.43231e-05
3.40579e-05
3.43242e-05
3.38835e-05
3.3884e-05
3.40469e-05
3.40577e-05
3.43231e-05
3.40578e-05
3.43242e-05
3.38837e-05
3.44555e-05
5.36685e-05
5.36682e-05
3.44546e-05
3.44554e-05
5.36691e-05
5.36685e-05
3.44546e-05
7.57739e-05
7.57759e-05
7.5775e-05
7.57771e-05
3.40236e-05
3.49714e-05
3.49714e-05
3.49719e-05
3.4972e-05
7.57749e-05
7.57739e-05
7.57761e-05
7.57752e-05
7.5772e-05
7.57742e-05
7.57745e-05
7.57766e-05
3.49717e-05
3.49717e-05
3.40232e-05
3.49711e-05
3.49712e-05
7.57732e-05
7.57722e-05
7.57757e-05
7.57746e-05
3.40236e-05
3.49712e-05
3.49712e-05
3.49718e-05
3.49718e-05
3.44551e-05
5.36677e-05
3.4456e-05
5.36677e-05
3.38838e-05
3.43241e-05
3.40579e-05
3.40469e-05
3.38842e-05
3.4323e-05
3.40579e-05
3.38838e-05
3.43243e-05
3.40579e-05
3.40469e-05
3.38841e-05
3.43233e-05
3.40579e-05
3.4456e-05
5.36668e-05
5.36658e-05
3.44552e-05
3.44559e-05
5.36677e-05
5.36673e-05
3.44551e-05
3.38842e-05
3.40469e-05
3.4323e-05
3.40578e-05
3.43241e-05
3.40578e-05
3.38839e-05
3.38841e-05
3.40469e-05
3.43233e-05
3.40577e-05
3.43244e-05
3.40578e-05
3.38838e-05
3.49717e-05
3.497e-05
3.40232e-05
3.4971e-05
3.49695e-05
7.57698e-05
7.57717e-05
7.57746e-05
7.57749e-05
3.40235e-05
3.49711e-05
3.49692e-05
3.49717e-05
3.49703e-05
7.57712e-05
7.577e-05
3.3884e-05
3.43243e-05
3.40579e-05
3.4047e-05
3.38843e-05
3.43233e-05
3.40579e-05
3.44553e-05
5.3669e-05
3.44561e-05
5.36687e-05
3.38839e-05
3.40579e-05
3.43242e-05
3.40469e-05
3.38842e-05
3.40579e-05
3.4323e-05
3.44564e-05
5.3669e-05
5.36678e-05
3.44556e-05
3.38843e-05
3.40469e-05
3.43233e-05
3.40578e-05
3.43243e-05
3.40578e-05
3.3884e-05
3.4456e-05
5.36689e-05
5.36682e-05
3.44553e-05
3.38842e-05
3.40469e-05
3.40577e-05
3.4323e-05
3.40578e-05
3.43242e-05
3.38839e-05
3.44551e-05
5.36673e-05
3.4456e-05
5.36671e-05
3.38838e-05
3.40579e-05
3.43241e-05
3.4047e-05
3.38841e-05
3.40579e-05
3.4323e-05
3.4455e-05
5.36683e-05
3.44559e-05
5.36683e-05
3.38841e-05
3.4047e-05
3.4323e-05
3.40578e-05
3.43241e-05
3.40579e-05
3.38836e-05
3.44559e-05
5.36673e-05
5.36665e-05
3.44551e-05
3.38841e-05
3.40469e-05
3.40578e-05
3.4323e-05
3.40578e-05
3.43241e-05
3.38838e-05
3.44558e-05
5.36682e-05
5.36677e-05
3.44551e-05
3.49706e-05
3.49717e-05
3.40232e-05
3.49701e-05
3.49712e-05
7.57737e-05
7.57757e-05
7.57756e-05
7.57741e-05
3.40235e-05
3.497e-05
3.49712e-05
3.49708e-05
3.49717e-05
7.57748e-05
7.57736e-05
3.38837e-05
3.40579e-05
3.43242e-05
3.4047e-05
3.3884e-05
3.40579e-05
3.43231e-05
3.44546e-05
5.36685e-05
3.44555e-05
5.36686e-05
3.44545e-05
5.36691e-05
3.44555e-05
5.36691e-05
3.3884e-05
3.4047e-05
3.40578e-05
3.43231e-05
3.40579e-05
3.43242e-05
3.38835e-05
3.3884e-05
3.40469e-05
3.40577e-05
3.43231e-05
3.40578e-05
3.43242e-05
3.38837e-05
3.44555e-05
5.36685e-05
5.36683e-05
3.44547e-05
3.44554e-05
5.3669e-05
5.36685e-05
3.44546e-05
7.57739e-05
7.5776e-05
7.57751e-05
7.57771e-05
3.40236e-05
3.49714e-05
3.49714e-05
3.49719e-05
3.4972e-05
7.57749e-05
7.5774e-05
7.57761e-05
7.57752e-05
7.5772e-05
7.57742e-05
7.57746e-05
7.57766e-05
3.49718e-05
3.49718e-05
3.40232e-05
3.49713e-05
3.49713e-05
7.57732e-05
7.57722e-05
7.57757e-05
7.57747e-05
3.40236e-05
3.4971e-05
3.49711e-05
3.49719e-05
3.49719e-05
3.44551e-05
5.36677e-05
3.4456e-05
5.36677e-05
3.38838e-05
3.43241e-05
3.40579e-05
3.40469e-05
3.38842e-05
3.4323e-05
3.40579e-05
3.38838e-05
3.43243e-05
3.40579e-05
3.40469e-05
3.38841e-05
3.43233e-05
3.40579e-05
3.4456e-05
5.36669e-05
5.36658e-05
3.44552e-05
3.44559e-05
5.36677e-05
5.36673e-05
3.44551e-05
3.38842e-05
3.40469e-05
3.4323e-05
3.40578e-05
3.43241e-05
3.40578e-05
3.38839e-05
3.38841e-05
3.40469e-05
3.43233e-05
3.40577e-05
3.43244e-05
3.40578e-05
3.38838e-05
3.49717e-05
3.497e-05
3.40232e-05
3.4971e-05
3.49695e-05
7.57698e-05
7.57716e-05
7.57746e-05
7.57749e-05
3.40235e-05
3.49711e-05
3.49692e-05
3.49717e-05
3.49703e-05
7.57712e-05
7.577e-05
3.3884e-05
3.43243e-05
3.40579e-05
3.4047e-05
3.38843e-05
3.43233e-05
3.40579e-05
3.44553e-05
5.3669e-05
3.44561e-05
5.36687e-05
3.38839e-05
3.40579e-05
3.43242e-05
3.40469e-05
3.38842e-05
3.40579e-05
3.4323e-05
3.44564e-05
5.3669e-05
5.36678e-05
3.44556e-05
3.38843e-05
3.40469e-05
3.43233e-05
3.40578e-05
3.43243e-05
3.40578e-05
3.3884e-05
3.4456e-05
5.36689e-05
5.36682e-05
3.44553e-05
3.38841e-05
3.40469e-05
3.40577e-05
3.4323e-05
3.40578e-05
3.43242e-05
3.38839e-05
3.44551e-05
5.36673e-05
3.4456e-05
5.36671e-05
3.38838e-05
3.40579e-05
3.43241e-05
3.4047e-05
3.38841e-05
3.40579e-05
3.4323e-05
3.4455e-05
5.36682e-05
3.44559e-05
5.36682e-05
3.38841e-05
3.4047e-05
3.4323e-05
3.40578e-05
3.43241e-05
3.40579e-05
3.38836e-05
3.44559e-05
5.36673e-05
5.36665e-05
3.44551e-05
3.38841e-05
3.40469e-05
3.40578e-05
3.4323e-05
3.40578e-05
3.43241e-05
3.38838e-05
3.44558e-05
5.36682e-05
5.36676e-05
3.44551e-05
3.49706e-05
3.49717e-05
3.40232e-05
3.49701e-05
3.49712e-05
7.57737e-05
7.57757e-05
7.57756e-05
7.57741e-05
3.40235e-05
3.497e-05
3.49712e-05
3.49708e-05
3.49717e-05
7.57748e-05
7.57736e-05
3.38837e-05
3.40579e-05
3.43242e-05
3.4047e-05
3.3884e-05
3.40579e-05
3.43231e-05
3.44547e-05
5.36685e-05
3.44554e-05
5.36686e-05
3.44546e-05
5.36691e-05
3.44555e-05
5.3669e-05
3.3884e-05
3.4047e-05
3.40578e-05
3.43231e-05
3.40579e-05
3.43242e-05
3.38835e-05
3.3884e-05
3.40469e-05
3.40577e-05
3.43231e-05
3.40578e-05
3.43242e-05
3.38837e-05
3.44555e-05
5.36685e-05
5.36683e-05
3.44548e-05
3.44555e-05
5.3669e-05
5.36685e-05
3.44546e-05
7.57739e-05
7.57759e-05
7.57751e-05
7.57771e-05
3.40236e-05
3.49714e-05
3.49714e-05
3.49719e-05
3.4972e-05
7.57749e-05
7.5774e-05
7.57761e-05
7.57752e-05
7.57721e-05
7.57742e-05
7.57746e-05
7.57766e-05
3.49716e-05
3.49717e-05
3.40232e-05
3.49711e-05
3.49712e-05
7.57732e-05
7.57722e-05
7.57757e-05
7.57747e-05
3.40236e-05
3.49711e-05
3.49711e-05
3.49717e-05
3.49718e-05
3.44551e-05
5.36677e-05
3.4456e-05
5.36677e-05
3.38838e-05
3.43241e-05
3.40579e-05
3.40469e-05
3.38842e-05
3.4323e-05
3.40579e-05
3.38838e-05
3.43243e-05
3.40579e-05
3.40469e-05
3.38841e-05
3.43233e-05
3.40579e-05
3.4456e-05
5.36668e-05
5.36658e-05
3.44552e-05
3.44559e-05
5.36677e-05
5.36673e-05
3.44551e-05
3.38842e-05
3.40469e-05
3.4323e-05
3.40578e-05
3.43241e-05
3.40578e-05
3.38839e-05
3.38841e-05
3.40469e-05
3.43233e-05
3.40577e-05
3.43244e-05
3.40578e-05
3.38838e-05
3.49716e-05
3.497e-05
3.40232e-05
3.4971e-05
3.49695e-05
7.57698e-05
7.57717e-05
7.57746e-05
7.57749e-05
3.40235e-05
3.49711e-05
3.49692e-05
3.49717e-05
3.49703e-05
7.57712e-05
7.577e-05
3.3884e-05
3.43243e-05
3.40579e-05
3.4047e-05
3.38843e-05
3.43233e-05
3.40579e-05
3.44553e-05
5.3669e-05
3.4456e-05
5.36687e-05
3.38839e-05
3.40579e-05
3.43242e-05
3.40469e-05
3.38842e-05
3.40579e-05
3.4323e-05
3.44564e-05
5.3669e-05
5.36678e-05
3.44556e-05
3.38843e-05
3.40469e-05
3.43233e-05
3.40578e-05
3.43243e-05
3.40578e-05
3.3884e-05
3.4456e-05
5.36689e-05
5.36682e-05
3.44553e-05
3.38841e-05
3.40469e-05
3.40577e-05
3.4323e-05
3.40578e-05
3.43242e-05
3.38839e-05
3.44551e-05
5.36673e-05
3.4456e-05
5.36671e-05
3.38838e-05
3.40579e-05
3.43241e-05
3.4047e-05
3.38841e-05
3.40579e-05
3.4323e-05
3.4455e-05
5.36683e-05
3.44559e-05
5.36683e-05
3.38841e-05
3.4047e-05
3.4323e-05
3.40578e-05
3.43241e-05
3.40579e-05
3.38836e-05
3.44559e-05
5.36672e-05
5.36665e-05
3.44551e-05
3.38841e-05