/*--------------------------------*- C++ -*----------------------------------*\
| =========                 |                                                 |
| \\      /  F ield         | OpenFOAM: The Open Source CFD Toolbox           |
|  \\    /   O peration     | Version:  2206                                  |
|   \\  /    A nd           | Website:  www.openfoam.com                      |
|    \\/     M anipulation  |                                                 |
\*---------------------------------------------------------------------------*/
FoamFile
{
    version     2.0;
    format      ascii;
    arch        "LSB;label=32;scalar=64";
    class       volScalarField;
    location    "27.5";
    object      p;
}
// * * * * * * * * * * * * * * * * * * * * * * * * * * * * * * * * * * * * * //

dimensions      [0 2 -2 0 0 0 0];

internalField   nonuniform List<scalar> 
171728
(
0.00401863
0.00401897
0.00401897
0.00402202
0.00396327
0.0039637
0.0039637
0.00396669
0.00391252
0.0039125
0.0039125
0.00391527
0.00386012
0.00386011
0.00386011
0.00386289
0.00380886
0.00380877
0.00380877
0.00381147
0.00376033
0.00376014
0.00376014
0.00376253
0.00371648
0.0037164
0.0037164
0.00371892
0.00367406
0.00367401
0.00367401
0.00367652
0.0036318
0.00363176
0.00363176
0.00363425
0.00358957
0.00358954
0.00358954
0.00359203
0.00354735
0.00354731
0.00354731
0.0035498
0.00350512
0.00350508
0.00350508
0.00350758
0.00346289
0.00346286
0.00346286
0.00346535
0.00342067
0.00342063
0.00342063
0.00342313
0.00337845
0.00337841
0.00337841
0.0033809
0.00333622
0.00333619
0.00333619
0.00333868
0.003294
0.00329397
0.00329397
0.00329646
0.00325178
0.00325175
0.00325175
0.00325424
0.00320956
0.00320952
0.00320952
0.00321202
0.00316734
0.0031673
0.0031673
0.00316979
0.00312511
0.00312508
0.00312508
0.00312757
0.00308289
0.00308285
0.00308285
0.00308535
0.00304066
0.00304063
0.00304063
0.00304312
0.00299844
0.00299841
0.00299841
0.0030009
0.00295622
0.00295619
0.00295619
0.00295868
0.002914
0.00291397
0.00291397
0.00291646
0.00287178
0.00287175
0.00287175
0.00287424
0.00282956
0.00282953
0.00282953
0.00283202
0.00278734
0.00278731
0.00278731
0.0027898
0.00274512
0.00274509
0.00274509
0.00274758
0.0027029
0.00270287
0.00270287
0.00270536
0.00266069
0.00266065
0.00266065
0.00266314
0.00261847
0.00261843
0.00261843
0.00262092
0.00257625
0.00257621
0.00257621
0.0025787
0.00253402
0.00253399
0.00253399
0.00253648
0.0024918
0.00249176
0.00249176
0.00249426
0.00244958
0.00244954
0.00244954
0.00245203
0.00240735
0.00240732
0.00240732
0.00240981
0.00236512
0.00236509
0.00236509
0.00236758
0.0023229
0.00232286
0.00232286
0.00232536
0.00228068
0.00228064
0.00228064
0.00228313
0.00223846
0.00223842
0.00223842
0.00224091
0.00219623
0.0021962
0.0021962
0.00219869
0.00215401
0.00215398
0.00215398
0.00215647
0.0021118
0.00211176
0.00211176
0.00211425
0.00206958
0.00206954
0.00206954
0.00207204
0.00202736
0.00202733
0.00202733
0.00202982
0.00198514
0.00198511
0.00198511
0.0019876
0.00194292
0.00194289
0.00194289
0.00194538
0.00190071
0.00190067
0.00190067
0.00190316
0.00185849
0.00185845
0.00185845
0.00186095
0.00181627
0.00181624
0.00181624
0.00181873
0.00177405
0.00177402
0.00177402
0.00177651
0.00173184
0.0017318
0.0017318
0.0017343
0.00168962
0.00168959
0.00168959
0.00169208
0.00164741
0.00164737
0.00164737
0.00164986
0.00160519
0.00160516
0.00160516
0.00160765
0.00156298
0.00156294
0.00156294
0.00156543
0.00152076
0.00152073
0.00152073
0.00152322
0.00147854
0.00147851
0.00147851
0.001481
0.00143633
0.00143629
0.00143629
0.00143878
0.00139411
0.00139407
0.00139407
0.00139656
0.00135189
0.00135185
0.00135185
0.00135434
0.00130967
0.00130963
0.00130963
0.00131212
0.00126744
0.00126741
0.00126741
0.0012699
0.00122522
0.00122519
0.00122519
0.00122768
0.001183
0.00118297
0.00118297
0.00118546
0.00114078
0.00114075
0.00114075
0.00114324
0.00109856
0.00109852
0.00109852
0.00110102
0.00105634
0.0010563
0.0010563
0.00105879
0.00101411
0.00101408
0.00101408
0.00101657
0.000971892
0.000971857
0.000971857
0.000974349
0.000929669
0.000929634
0.000929634
0.000932126
0.000887446
0.000887411
0.000887411
0.000889904
0.000845224
0.000845189
0.000845189
0.000847682
0.000803004
0.000802969
0.000802969
0.000805461
0.000760785
0.00076075
0.00076075
0.000763242
0.000718566
0.00071853
0.00071853
0.000721023
0.000676346
0.000676311
0.000676311
0.000678803
0.000634126
0.000634091
0.000634091
0.000636583
0.000591906
0.000591871
0.000591871
0.000594363
0.000549687
0.000549652
0.000549652
0.000552144
0.000507468
0.000507432
0.000507432
0.000509924
0.000465248
0.000465213
0.000465213
0.000467705
0.000423028
0.000422992
0.000422992
0.000425485
0.000380807
0.000380772
0.000380772
0.000383264
0.000338587
0.000338552
0.000338551
0.000341044
0.000296366
0.000296332
0.000296332
0.000298823
0.000254143
0.00025411
0.00025411
0.0002566
0.000211925
0.000211881
0.000211881
0.000214371
0.000169695
0.000169669
0.000169669
0.000172145
0.000127466
0.00012744
0.00012744
0.000129911
8.52386e-05
8.51932e-05
8.51918e-05
8.76309e-05
4.36826e-05
4.31305e-05
4.31275e-05
4.54347e-05
9.34016e-06
9.55786e-06
9.55556e-06
9.1034e-06
0.00403205
0.00403227
0.00403227
0.00403205
0.00403227
0.00403227
0.00403303
0.00403303
0.00403304
0.00403304
0.00403227
0.00403227
0.00403205
0.00403228
0.00403228
0.00403205
0.00402202
0.00397327
0.00401896
0.00401897
0.00397554
0.00397554
0.00402202
0.00397327
0.00401897
0.00401897
0.00397553
0.00397554
0.00401897
0.00397553
0.00397554
0.00402202
0.00397327
0.00401897
0.00397553
0.00397553
0.00397327
0.00396669
0.00392218
0.0039637
0.0039637
0.00392561
0.00392561
0.00396669
0.00392218
0.0039637
0.0039637
0.00392561
0.00392561
0.0039637
0.00392561
0.00392561
0.00396669
0.00392218
0.00396369
0.00392561
0.00392561
0.00392218
0.00391527
0.00386977
0.0039125
0.0039125
0.00387313
0.00387313
0.00391527
0.00386977
0.0039125
0.0039125
0.00387313
0.00387313
0.0039125
0.00387313
0.00387313
0.00391527
0.00386977
0.0039125
0.00387313
0.00387313
0.00386977
0.0038629
0.00381823
0.00386011
0.00386011
0.00382155
0.00382155
0.0038629
0.00381823
0.00386011
0.00386011
0.00382154
0.00382155
0.00386011
0.00382155
0.00382155
0.00386289
0.00381823
0.00386011
0.00382154
0.00382154
0.00381823
0.00381148
0.00376871
0.00380877
0.00380877
0.00377186
0.00377186
0.00381148
0.00376871
0.00380877
0.00380877
0.00377186
0.00377186
0.00380877
0.00377186
0.00377186
0.00381147
0.00376871
0.00380877
0.00377186
0.00377186
0.00376871
0.00376253
0.00372452
0.00376014
0.00376014
0.00372706
0.00372706
0.00376253
0.00372452
0.00376014
0.00376014
0.00372706
0.00372706
0.00376014
0.00372706
0.00372706
0.00376253
0.00372452
0.00376014
0.00372706
0.00372706
0.00372452
0.00371892
0.0036821
0.0037164
0.0037164
0.00368459
0.00368459
0.00371892
0.00368211
0.0037164
0.0037164
0.00368459
0.00368459
0.0037164
0.00368459
0.00368459
0.00371892
0.00368211
0.0037164
0.00368459
0.00368459
0.0036821
0.00367652
0.00363983
0.00367401
0.00367401
0.00364232
0.00364232
0.00367652
0.00363983
0.00367401
0.00367401
0.00364232
0.00364232
0.00367401
0.00364232
0.00364232
0.00367652
0.00363983
0.00367401
0.00364232
0.00364232
0.00363983
0.00363425
0.00359761
0.00363176
0.00363176
0.00360009
0.00360009
0.00363425
0.00359761
0.00363176
0.00363176
0.00360009
0.00360009
0.00363176
0.00360009
0.00360009
0.00363425
0.0035976
0.00363176
0.00360009
0.00360009
0.00359761
0.00359203
0.00355538
0.00358954
0.00358954
0.00355787
0.00355787
0.00359203
0.00355538
0.00358954
0.00358954
0.00355787
0.00355787
0.00358954
0.00355787
0.00355787
0.00359203
0.00355538
0.00358954
0.00355787
0.00355787
0.00355538
0.0035498
0.00351315
0.00354731
0.00354731
0.00351564
0.00351564
0.0035498
0.00351316
0.00354731
0.00354731
0.00351564
0.00351564
0.00354731
0.00351564
0.00351564
0.0035498
0.00351315
0.00354731
0.00351564
0.00351564
0.00351315
0.00350758
0.00347093
0.00350508
0.00350508
0.00347342
0.00347342
0.00350758
0.00347093
0.00350508
0.00350508
0.00347342
0.00347342
0.00350508
0.00347342
0.00347342
0.00350758
0.00347093
0.00350508
0.00347342
0.00347342
0.00347093
0.00346535
0.0034287
0.00346286
0.00346286
0.00343119
0.00343119
0.00346535
0.00342871
0.00346286
0.00346286
0.00343119
0.00343119
0.00346286
0.00343119
0.00343119
0.00346535
0.0034287
0.00346286
0.00343119
0.00343119
0.0034287
0.00342313
0.00338648
0.00342063
0.00342063
0.00338897
0.00338897
0.00342313
0.00338648
0.00342063
0.00342063
0.00338897
0.00338897
0.00342064
0.00338897
0.00338897
0.00342313
0.00338648
0.00342064
0.00338897
0.00338897
0.00338648
0.0033809
0.00334426
0.00337841
0.00337841
0.00334674
0.00334674
0.0033809
0.00334426
0.00337841
0.00337841
0.00334674
0.00334675
0.00337841
0.00334675
0.00334675
0.0033809
0.00334426
0.00337841
0.00334675
0.00334675
0.00334426
0.00333868
0.00330204
0.00333619
0.00333619
0.00330452
0.00330452
0.00333868
0.00330204
0.00333619
0.00333619
0.00330452
0.00330452
0.00333619
0.00330452
0.00330452
0.00333868
0.00330204
0.00333619
0.00330452
0.00330452
0.00330204
0.00329646
0.00325982
0.00329397
0.00329397
0.0032623
0.0032623
0.00329646
0.00325982
0.00329397
0.00329397
0.0032623
0.0032623
0.00329397
0.0032623
0.0032623
0.00329646
0.00325982
0.00329397
0.0032623
0.0032623
0.00325982
0.00325424
0.00321759
0.00325175
0.00325175
0.00322008
0.00322008
0.00325424
0.00321759
0.00325175
0.00325175
0.00322008
0.00322008
0.00325175
0.00322008
0.00322008
0.00325424
0.00321759
0.00325175
0.00322008
0.00322008
0.00321759
0.00321202
0.00317537
0.00320952
0.00320952
0.00317786
0.00317786
0.00321202
0.00317537
0.00320952
0.00320952
0.00317786
0.00317786
0.00320952
0.00317786
0.00317786
0.00321202
0.00317537
0.00320952
0.00317786
0.00317786
0.00317537
0.00316979
0.00313315
0.0031673
0.0031673
0.00313563
0.00313563
0.00316979
0.00313315
0.0031673
0.0031673
0.00313563
0.00313563
0.0031673
0.00313563
0.00313563
0.00316979
0.00313315
0.0031673
0.00313563
0.00313563
0.00313315
0.00312757
0.00309092
0.00312508
0.00312508
0.00309341
0.00309341
0.00312757
0.00309092
0.00312508
0.00312508
0.00309341
0.00309341
0.00312508
0.00309341
0.00309341
0.00312757
0.00309092
0.00312508
0.00309341
0.00309341
0.00309092
0.00308535
0.0030487
0.00308285
0.00308285
0.00305119
0.00305119
0.00308535
0.0030487
0.00308285
0.00308285
0.00305119
0.00305119
0.00308285
0.00305119
0.00305119
0.00308535
0.0030487
0.00308285
0.00305119
0.00305119
0.0030487
0.00304312
0.00300648
0.00304063
0.00304063
0.00300896
0.00300896
0.00304312
0.00300648
0.00304063
0.00304063
0.00300896
0.00300896
0.00304063
0.00300896
0.00300896
0.00304312
0.00300647
0.00304063
0.00300896
0.00300896
0.00300647
0.0030009
0.00296426
0.00299841
0.00299841
0.00296674
0.00296674
0.0030009
0.00296426
0.00299841
0.00299841
0.00296674
0.00296674
0.00299841
0.00296674
0.00296674
0.0030009
0.00296426
0.00299841
0.00296674
0.00296674
0.00296426
0.00295868
0.00292204
0.00295619
0.00295619
0.00292452
0.00292452
0.00295868
0.00292204
0.00295619
0.00295619
0.00292452
0.00292452
0.00295619
0.00292452
0.00292452
0.00295868
0.00292204
0.00295619
0.00292452
0.00292452
0.00292204
0.00291646
0.00287982
0.00291397
0.00291397
0.0028823
0.0028823
0.00291646
0.00287982
0.00291397
0.00291397
0.0028823
0.0028823
0.00291397
0.0028823
0.0028823
0.00291646
0.00287982
0.00291397
0.0028823
0.0028823
0.00287982
0.00287424
0.0028376
0.00287175
0.00287175
0.00284008
0.00284008
0.00287424
0.0028376
0.00287175
0.00287175
0.00284008
0.00284008
0.00287175
0.00284008
0.00284008
0.00287424
0.0028376
0.00287175
0.00284008
0.00284008
0.0028376
0.00283202
0.00279538
0.00282953
0.00282953
0.00279786
0.00279786
0.00283202
0.00279538
0.00282953
0.00282953
0.00279786
0.00279786
0.00282953
0.00279786
0.00279786
0.00283202
0.00279538
0.00282953
0.00279786
0.00279786
0.00279538
0.0027898
0.00275316
0.00278731
0.00278731
0.00275564
0.00275564
0.0027898
0.00275316
0.00278731
0.00278731
0.00275564
0.00275564
0.00278731
0.00275564
0.00275564
0.0027898
0.00275316
0.00278731
0.00275564
0.00275564
0.00275316
0.00274758
0.00271094
0.00274509
0.00274509
0.00271342
0.00271342
0.00274758
0.00271094
0.00274509
0.00274509
0.00271342
0.00271342
0.00274509
0.00271342
0.00271342
0.00274758
0.00271094
0.00274509
0.00271342
0.00271342
0.00271094
0.00270536
0.00266872
0.00270287
0.00270287
0.0026712
0.0026712
0.00270536
0.00266872
0.00270287
0.00270287
0.0026712
0.0026712
0.00270287
0.0026712
0.0026712
0.00270536
0.00266872
0.00270287
0.0026712
0.0026712
0.00266872
0.00266314
0.0026265
0.00266065
0.00266065
0.00262899
0.00262899
0.00266314
0.0026265
0.00266065
0.00266065
0.00262899
0.00262899
0.00266065
0.00262899
0.00262899
0.00266314
0.0026265
0.00266065
0.00262899
0.00262899
0.0026265
0.00262092
0.00258428
0.00261843
0.00261843
0.00258677
0.00258677
0.00262092
0.00258428
0.00261843
0.00261843
0.00258677
0.00258677
0.00261843
0.00258677
0.00258677
0.00262092
0.00258428
0.00261843
0.00258677
0.00258677
0.00258428
0.0025787
0.00254206
0.00257621
0.00257621
0.00254454
0.00254454
0.0025787
0.00254206
0.00257621
0.00257621
0.00254454
0.00254454
0.00257621
0.00254454
0.00254454
0.0025787
0.00254206
0.00257621
0.00254454
0.00254454
0.00254206
0.00253648
0.00249983
0.00253399
0.00253399
0.00250232
0.00250232
0.00253648
0.00249983
0.00253399
0.00253399
0.00250232
0.00250232
0.00253399
0.00250232
0.00250232
0.00253648
0.00249983
0.00253399
0.00250232
0.00250232
0.00249983
0.00249426
0.00245761
0.00249176
0.00249176
0.0024601
0.0024601
0.00249426
0.00245761
0.00249176
0.00249176
0.0024601
0.0024601
0.00249176
0.0024601
0.0024601
0.00249426
0.00245761
0.00249176
0.0024601
0.0024601
0.00245761
0.00245203
0.00241539
0.00244954
0.00244954
0.00241787
0.00241787
0.00245203
0.00241539
0.00244954
0.00244954
0.00241787
0.00241787
0.00244954
0.00241787
0.00241787
0.00245203
0.00241539
0.00244954
0.00241787
0.00241787
0.00241539
0.00240981
0.00237316
0.00240732
0.00240732
0.00237565
0.00237565
0.00240981
0.00237316
0.00240732
0.00240732
0.00237565
0.00237565
0.00240732
0.00237565
0.00237565
0.00240981
0.00237316
0.00240732
0.00237565
0.00237565
0.00237316
0.00236758
0.00233093
0.00236509
0.00236509
0.00233342
0.00233342
0.00236758
0.00233093
0.00236509
0.00236509
0.00233342
0.00233342
0.00236509
0.00233342
0.00233342
0.00236758
0.00233093
0.00236509
0.00233342
0.00233342
0.00233093
0.00232536
0.00228871
0.00232286
0.00232286
0.0022912
0.0022912
0.00232536
0.00228871
0.00232286
0.00232286
0.0022912
0.0022912
0.00232286
0.0022912
0.0022912
0.00232536
0.00228871
0.00232287
0.0022912
0.0022912
0.00228871
0.00228313
0.00224649
0.00228064
0.00228064
0.00224898
0.00224898
0.00228313
0.00224649
0.00228064
0.00228064
0.00224897
0.00224898
0.00228064
0.00224898
0.00224898
0.00228313
0.00224649
0.00228064
0.00224898
0.00224898
0.00224649
0.00224091
0.00220427
0.00223842
0.00223842
0.00220675
0.00220675
0.00224091
0.00220427
0.00223842
0.00223842
0.00220675
0.00220675
0.00223842
0.00220675
0.00220675
0.00224091
0.00220427
0.00223842
0.00220675
0.00220675
0.00220427
0.00219869
0.00216205
0.0021962
0.0021962
0.00216453
0.00216453
0.00219869
0.00216205
0.0021962
0.0021962
0.00216453
0.00216453
0.0021962
0.00216453
0.00216453
0.00219869
0.00216205
0.0021962
0.00216453
0.00216453
0.00216205
0.00215647
0.00211983
0.00215398
0.00215398
0.00212232
0.00212232
0.00215647
0.00211983
0.00215398
0.00215398
0.00212232
0.00212232
0.00215398
0.00212232
0.00212232
0.00215647
0.00211983
0.00215398
0.00212232
0.00212232
0.00211983
0.00211425
0.00207761
0.00211176
0.00211176
0.0020801
0.0020801
0.00211425
0.00207761
0.00211176
0.00211176
0.0020801
0.0020801
0.00211176
0.0020801
0.0020801
0.00211425
0.00207761
0.00211176
0.0020801
0.0020801
0.00207761
0.00207204
0.00203539
0.00206954
0.00206954
0.00203788
0.00203788
0.00207203
0.00203539
0.00206954
0.00206954
0.00203788
0.00203788
0.00206954
0.00203788
0.00203788
0.00207204
0.00203539
0.00206954
0.00203788
0.00203788
0.00203539
0.00202982
0.00199318
0.00202733
0.00202733
0.00199566
0.00199566
0.00202982
0.00199318
0.00202733
0.00202733
0.00199566
0.00199566
0.00202733
0.00199566
0.00199566
0.00202982
0.00199318
0.00202733
0.00199566
0.00199566
0.00199318
0.0019876
0.00195096
0.00198511
0.00198511
0.00195344
0.00195344
0.0019876
0.00195096
0.00198511
0.00198511
0.00195344
0.00195344
0.00198511
0.00195344
0.00195344
0.0019876
0.00195096
0.00198511
0.00195344
0.00195344
0.00195096
0.00194538
0.00190874
0.00194289
0.00194289
0.00191123
0.00191123
0.00194538
0.00190874
0.00194289
0.00194289
0.00191123
0.00191123
0.00194289
0.00191123
0.00191123
0.00194538
0.00190874
0.00194289
0.00191123
0.00191123
0.00190874
0.00190316
0.00186652
0.00190067
0.00190067
0.00186901
0.00186901
0.00190316
0.00186652
0.00190067
0.00190067
0.00186901
0.00186901
0.00190067
0.00186901
0.00186901
0.00190316
0.00186652
0.00190067
0.00186901
0.00186901
0.00186652
0.00186095
0.0018243
0.00185845
0.00185845
0.00182679
0.00182679
0.00186095
0.0018243
0.00185845
0.00185845
0.00182679
0.00182679
0.00185845
0.00182679
0.00182679
0.00186095
0.0018243
0.00185845
0.00182679
0.00182679
0.0018243
0.00181873
0.00178209
0.00181624
0.00181624
0.00178457
0.00178457
0.00181873
0.00178209
0.00181624
0.00181624
0.00178457
0.00178457
0.00181624
0.00178457
0.00178457
0.00181873
0.00178209
0.00181624
0.00178457
0.00178457
0.00178209
0.00177651
0.00173987
0.00177402
0.00177402
0.00174236
0.00174236
0.00177651
0.00173987
0.00177402
0.00177402
0.00174236
0.00174236
0.00177402
0.00174236
0.00174236
0.00177651
0.00173987
0.00177402
0.00174236
0.00174236
0.00173987
0.0017343
0.00169766
0.0017318
0.0017318
0.00170014
0.00170014
0.00173429
0.00169766
0.0017318
0.0017318
0.00170014
0.00170014
0.0017318
0.00170014
0.00170014
0.0017343
0.00169766
0.0017318
0.00170014
0.00170014
0.00169766
0.00169208
0.00165544
0.00168959
0.00168959
0.00165793
0.00165793
0.00169208
0.00165544
0.00168959
0.00168959
0.00165793
0.00165793
0.00168959
0.00165793
0.00165793
0.00169208
0.00165544
0.00168959
0.00165793
0.00165793
0.00165544
0.00164986
0.00161323
0.00164737
0.00164737
0.00161571
0.00161571
0.00164986
0.00161323
0.00164737
0.00164737
0.00161571
0.00161571
0.00164737
0.00161571
0.00161571
0.00164986
0.00161323
0.00164737
0.00161571
0.00161571
0.00161323
0.00160765
0.00157101
0.00160516
0.00160516
0.0015735
0.0015735
0.00160765
0.00157101
0.00160516
0.00160516
0.0015735
0.0015735
0.00160516
0.0015735
0.0015735
0.00160765
0.00157101
0.00160516
0.0015735
0.0015735
0.00157101
0.00156543
0.0015288
0.00156294
0.00156294
0.00153128
0.00153128
0.00156543
0.0015288
0.00156294
0.00156294
0.00153128
0.00153128
0.00156294
0.00153128
0.00153128
0.00156543
0.00152879
0.00156294
0.00153128
0.00153128
0.0015288
0.00152322
0.00148658
0.00152073
0.00152073
0.00148906
0.00148906
0.00152322
0.00148658
0.00152073
0.00152073
0.00148906
0.00148906
0.00152073
0.00148906
0.00148906
0.00152322
0.00148658
0.00152073
0.00148906
0.00148906
0.00148658
0.001481
0.00144436
0.00147851
0.00147851
0.00144685
0.00144685
0.001481
0.00144436
0.00147851
0.00147851
0.00144685
0.00144685
0.00147851
0.00144685
0.00144685
0.001481
0.00144436
0.00147851
0.00144685
0.00144685
0.00144436
0.00143878
0.00140214
0.00143629
0.00143629
0.00140463
0.00140463
0.00143878
0.00140214
0.00143629
0.00143629
0.00140463
0.00140463
0.00143629
0.00140463
0.00140463
0.00143878
0.00140214
0.00143629
0.00140463
0.00140463
0.00140214
0.00139656
0.00135992
0.00139407
0.00139407
0.00136241
0.00136241
0.00139656
0.00135992
0.00139407
0.00139407
0.00136241
0.00136241
0.00139407
0.00136241
0.00136241
0.00139656
0.00135992
0.00139407
0.00136241
0.00136241
0.00135992
0.00135434
0.0013177
0.00135185
0.00135185
0.00132019
0.00132019
0.00135434
0.0013177
0.00135185
0.00135185
0.00132019
0.00132019
0.00135185
0.00132019
0.00132019
0.00135434
0.0013177
0.00135185
0.00132019
0.00132019
0.0013177
0.00131212
0.00127548
0.00130963
0.00130963
0.00127796
0.00127796
0.00131212
0.00127548
0.00130963
0.00130963
0.00127796
0.00127796
0.00130963
0.00127796
0.00127796
0.00131212
0.00127548
0.00130963
0.00127796
0.00127796
0.00127548
0.0012699
0.00123326
0.00126741
0.00126741
0.00123574
0.00123574
0.0012699
0.00123326
0.00126741
0.00126741
0.00123574
0.00123574
0.00126741
0.00123574
0.00123574
0.0012699
0.00123326
0.00126741
0.00123574
0.00123574
0.00123326
0.00122768
0.00119104
0.00122519
0.00122519
0.00119352
0.00119352
0.00122768
0.00119104
0.00122519
0.00122519
0.00119352
0.00119352
0.00122519
0.00119352
0.00119352
0.00122768
0.00119104
0.00122519
0.00119352
0.00119352
0.00119104
0.00118546
0.00114881
0.00118297
0.00118297
0.0011513
0.0011513
0.00118546
0.00114881
0.00118297
0.00118297
0.0011513
0.0011513
0.00118297
0.0011513
0.0011513
0.00118546
0.00114881
0.00118297
0.0011513
0.0011513
0.00114881
0.00114324
0.00110659
0.00114075
0.00114075
0.00110908
0.00110908
0.00114324
0.00110659
0.00114074
0.00114075
0.00110908
0.00110908
0.00114075
0.00110908
0.00110908
0.00114324
0.00110659
0.00114075
0.00110908
0.00110908
0.00110659
0.00110102
0.00106437
0.00109852
0.00109852
0.00106686
0.00106686
0.00110102
0.00106437
0.00109852
0.00109852
0.00106686
0.00106686
0.00109852
0.00106686
0.00106686
0.00110102
0.00106437
0.00109852
0.00106686
0.00106686
0.00106437
0.00105879
0.00102215
0.0010563
0.0010563
0.00102463
0.00102463
0.00105879
0.00102215
0.0010563
0.0010563
0.00102463
0.00102464
0.0010563
0.00102463
0.00102464
0.00105879
0.00102215
0.0010563
0.00102464
0.00102464
0.00102215
0.00101657
0.000979926
0.00101408
0.00101408
0.000982412
0.000982412
0.00101657
0.000979927
0.00101408
0.00101408
0.000982412
0.000982412
0.00101408
0.000982412
0.000982413
0.00101657
0.000979927
0.00101408
0.000982413
0.000982412
0.000979927
0.000974349
0.000937704
0.000971857
0.000971857
0.000940189
0.000940189
0.000974349
0.000937704
0.000971856
0.000971857
0.000940189
0.000940189
0.000971857
0.000940189
0.00094019
0.000974349
0.000937704
0.000971857
0.00094019
0.00094019
0.000937704
0.000932126
0.000895481
0.000929634
0.000929634
0.000897967
0.000897967
0.000932126
0.000895481
0.000929634
0.000929634
0.000897967
0.000897967
0.000929634
0.000897967
0.000897967
0.000932126
0.000895481
0.000929634
0.000897967
0.000897967
0.000895481
0.000889903
0.000853259
0.000887411
0.000887411
0.000855745
0.000855745
0.000889903
0.000853259
0.000887411
0.000887411
0.000855744
0.000855745
0.000887411
0.000855745
0.000855745
0.000889903
0.000853259
0.000887411
0.000855745
0.000855745
0.000853259
0.000847681
0.000811038
0.000845189
0.000845189
0.000813524
0.000813524
0.000847681
0.000811038
0.000845189
0.000845189
0.000813524
0.000813524
0.000845189
0.000813524
0.000813524
0.000847681
0.000811038
0.000845189
0.000813524
0.000813524
0.000811038
0.000805461
0.000768819
0.000802969
0.000802969
0.000771305
0.000771305
0.000805461
0.000768819
0.000802969
0.000802969
0.000771304
0.000771305
0.000802969
0.000771305
0.000771305
0.000805461
0.000768819
0.000802969
0.000771305
0.000771305
0.000768819
0.000763242
0.0007266
0.00076075
0.00076075
0.000729085
0.000729085
0.000763242
0.0007266
0.00076075
0.00076075
0.000729085
0.000729085
0.00076075
0.000729085
0.000729086
0.000763242
0.0007266
0.00076075
0.000729085
0.000729085
0.0007266
0.000721023
0.00068438
0.000718531
0.00071853
0.000686866
0.000686866
0.000721023
0.00068438
0.00071853
0.00071853
0.000686866
0.000686866
0.000718531
0.000686866
0.000686866
0.000721023
0.00068438
0.00071853
0.000686866
0.000686866
0.00068438
0.000678803
0.000642161
0.000676311
0.000676311
0.000644646
0.000644646
0.000678803
0.000642161
0.000676311
0.000676311
0.000644646
0.000644646
0.000676311
0.000644646
0.000644646
0.000678803
0.00064216
0.000676311
0.000644646
0.000644646
0.000642161
0.000636583
0.00059994
0.000634091
0.000634091
0.000602426
0.000602426
0.000636583
0.000599941
0.000634091
0.000634091
0.000602426
0.000602426
0.000634091
0.000602426
0.000602426
0.000636583
0.00059994
0.000634091
0.000602426
0.000602426
0.00059994
0.000594363
0.000557721
0.000591871
0.000591871
0.000560207
0.000560207
0.000594363
0.000557721
0.000591871
0.000591871
0.000560207
0.000560207
0.000591871
0.000560207
0.000560207
0.000594363
0.000557721
0.000591871
0.000560207
0.000560207
0.000557721
0.000552144
0.000515502
0.000549652
0.000549652
0.000517987
0.000517987
0.000552144
0.000515502
0.000549652
0.000549652
0.000517987
0.000517987
0.000549652
0.000517987
0.000517987
0.000552144
0.000515501
0.000549652
0.000517987
0.000517987
0.000515501
0.000509925
0.000473282
0.000507432
0.000507432
0.000475768
0.000475768
0.000509924
0.000473282
0.000507432
0.000507432
0.000475768
0.000475768
0.000507432
0.000475768
0.000475768
0.000509924
0.000473282
0.000507432
0.000475768
0.000475768
0.000473282
0.000467705
0.000431062
0.000465213
0.000465213
0.000433548
0.000433548
0.000467705
0.000431062
0.000465213
0.000465213
0.000433547
0.000433548
0.000465213
0.000433548
0.000433548
0.000467705
0.000431062
0.000465213
0.000433548
0.000433547
0.000431062
0.000425485
0.000388842
0.000422993
0.000422992
0.000391327
0.000391327
0.000425485
0.000388842
0.000422992
0.000422992
0.000391327
0.000391327
0.000422993
0.000391327
0.000391327
0.000425485
0.000388841
0.000422992
0.000391327
0.000391327
0.000388841
0.000383264
0.000346621
0.000380772
0.000380772
0.000349107
0.000349107
0.000383264
0.000346621
0.000380772
0.000380772
0.000349106
0.000349107
0.000380772
0.000349107
0.000349107
0.000383264
0.000346621
0.000380772
0.000349107
0.000349106
0.000346621
0.000341044
0.0003044
0.000338552
0.000338552
0.000306886
0.000306886
0.000341044
0.000304401
0.000338551
0.000338551
0.000306886
0.000306886
0.000338552
0.000306886
0.000306886
0.000341044
0.0003044
0.000338551
0.000306886
0.000306886
0.0003044
0.000298823
0.000262179
0.000296332
0.000296332
0.000264666
0.000264666
0.000298823
0.00026218
0.000296332
0.000296332
0.000264666
0.000264666
0.000296332
0.000264666
0.000264666
0.000298823
0.000262179
0.000296332
0.000264666
0.000264666
0.000262179
0.0002566
0.000219955
0.00025411
0.00025411
0.000222433
0.000222433
0.0002566
0.000219955
0.00025411
0.00025411
0.000222433
0.000222433
0.00025411
0.000222433
0.000222433
0.0002566
0.000219955
0.00025411
0.000222433
0.000222433
0.000219955
0.000214371
0.000177749
0.000211881
0.000211881
0.000180241
0.000180241
0.000214371
0.000177749
0.000211881
0.000211881
0.000180241
0.000180241
0.000211881
0.000180241
0.000180241
0.000214371
0.000177749
0.000211881
0.000180241
0.000180241
0.000177749
0.000172145
0.000135517
0.000169669
0.000169669
0.000137989
0.000137989
0.000172145
0.000135517
0.000169668
0.000169669
0.000137989
0.000137989
0.000169669
0.000137989
0.000137989
0.000172146
0.000135516
0.000169669
0.000137989
0.000137989
0.000135517
0.000129911
9.32899e-05
0.00012744
0.00012744
9.57553e-05
9.57557e-05
0.000129911
9.32907e-05
0.00012744
0.00012744
9.57547e-05
9.57546e-05
0.00012744
9.57552e-05
9.57547e-05
0.000129911
9.32891e-05
0.00012744
9.57544e-05
9.57545e-05
9.32893e-05
8.76319e-05
5.10935e-05
8.5193e-05
8.51933e-05
5.35638e-05
5.35644e-05
8.76319e-05
5.10945e-05
8.51922e-05
8.51918e-05
5.3562e-05
5.35615e-05
8.51925e-05
5.35632e-05
5.35612e-05
8.76315e-05
5.10911e-05
8.51919e-05
5.35607e-05
5.35599e-05
5.10908e-05
4.54383e-05
1.27707e-05
4.31322e-05
4.31323e-05
1.49874e-05
1.49866e-05
4.54387e-05
1.27705e-05
4.31303e-05
4.3129e-05
1.49853e-05
1.49817e-05
4.31283e-05
1.49841e-05
1.49799e-05
4.54352e-05
1.27662e-05
4.3127e-05
1.4982e-05
1.49814e-05
1.2765e-05
9.10736e-06
9.5591e-06
9.55936e-06
9.10847e-06
9.55745e-06
9.55493e-06
9.34008e-06
9.33789e-06
9.33758e-06
9.55403e-06
9.10447e-06
9.55469e-06
0.00404042
0.00405018
0.00404498
0.00404498
0.00406736
0.00405414
0.00408274
0.00404819
0.00406736
0.00405415
0.00404819
0.00408274
0.00405871
0.00408648
0.00408648
0.00399578
0.00401492
0.00402412
0.00398784
0.00398863
0.00399137
0.00399576
0.0040149
0.00402411
0.00398782
0.00401863
0.00401864
0.00401864
0.00397522
0.00397522
0.00397522
0.00397522
0.00399328
0.00401911
0.00401904
0.0040021
0.00402213
0.00399218
0.00400299
0.00398873
0.00399136
0.00399329
0.00401904
0.00401912
0.00400211
0.00402213
0.00400299
0.00399218
0.00402498
0.00402497
0.00399651
0.00399181
0.00399181
0.0039491
0.00396844
0.00396979
0.00394759
0.00396734
0.00394718
0.0039491
0.00396844
0.00396979
0.00394758
0.00396327
0.00396327
0.00396327
0.00392569
0.00392569
0.00392569
0.00392569
0.0039477
0.0039685
0.00396328
0.00395141
0.00396729
0.00394823
0.00395114
0.00396734
0.00394717
0.0039477
0.00396327
0.0039685
0.00395141
0.00396729
0.00395114
0.00394822
0.00396954
0.00396953
0.00394795
0.00394853
0.00394853
0.00389683
0.00391581
0.00391684
0.00389577
0.00391547
0.00389549
0.00389683
0.00391581
0.00391684
0.00389577
0.00391252
0.00391252
0.00391252
0.0038731
0.0038731
0.0038731
0.0038731
0.00389596
0.00391616
0.0039124
0.00389936
0.00391557
0.00389629
0.00389927
0.00391547
0.00389548
0.00389596
0.00391239
0.00391616
0.00389936
0.00391556
0.00389927
0.00389629
0.00391644
0.00391644
0.00389597
0.00389635
0.00389635
0.00384429
0.00386313
0.00386395
0.00384347
0.00386292
0.00384329
0.00384429
0.00386313
0.00386395
0.00384346
0.00386012
0.00386012
0.00386012
0.00382155
0.00382155
0.00382155
0.00382155
0.00384379
0.0038635
0.00386008
0.00384723
0.00386318
0.00384394
0.0038472
0.00386292
0.00384329
0.00384379
0.00386008
0.0038635
0.00384723
0.00386318
0.0038472
0.00384394
0.00386358
0.00386358
0.00384391
0.00384385
0.00384385
0.00379312
0.00381147
0.00381201
0.00379231
0.00381135
0.00379219
0.00379312
0.00381146
0.00381201
0.00379231
0.00380886
0.00380886
0.00380886
0.00377202
0.00377202
0.00377202
0.00377202
0.00379285
0.00381179
0.0038088
0.00379617
0.00381164
0.0037928
0.00379622
0.00381134
0.00379219
0.00379285
0.0038088
0.00381179
0.00379617
0.00381163
0.00379622
0.00379279
0.00381182
0.00381182
0.003793
0.00379263
0.00379263
0.00374515
0.00376191
0.00376219
0.0037452
0.00376161
0.00374505
0.00374516
0.00376191
0.0037622
0.00374522
0.00376033
0.00376032
0.00376032
0.00372717
0.00372717
0.00372717
0.00372717
0.00374563
0.0037623
0.00376022
0.00374883
0.00376236
0.00374558
0.0037489
0.00376161
0.00374507
0.00374563
0.00376022
0.0037623
0.00374883