/*--------------------------------*- C++ -*----------------------------------*\
| =========                 |                                                 |
| \\      /  F ield         | OpenFOAM: The Open Source CFD Toolbox           |
|  \\    /   O peration     | Version:  2206                                  |
|   \\  /    A nd           | Website:  www.openfoam.com                      |
|    \\/     M anipulation  |                                                 |
\*---------------------------------------------------------------------------*/
FoamFile
{
    version     2.0;
    format      ascii;
    arch        "LSB;label=32;scalar=64";
    class       volScalarField;
    location    "4";
    object      epsilon;
}
// * * * * * * * * * * * * * * * * * * * * * * * * * * * * * * * * * * * * * //

dimensions      [0 2 -3 0 0 0 0];

internalField   nonuniform List<scalar> 
28688
(
4.94458e-07
4.96049e-07
4.9605e-07
4.98601e-07
4.84143e-07
4.85109e-07
4.85109e-07
4.86366e-07
4.84069e-07
4.84878e-07
4.84878e-07
4.85907e-07
4.8407e-07
4.84878e-07
4.84878e-07
4.85906e-07
4.8407e-07
4.84878e-07
4.84878e-07
4.85906e-07
4.8407e-07
4.84878e-07
4.84878e-07
4.85906e-07
4.8407e-07
4.84878e-07
4.84878e-07
4.85906e-07
4.8407e-07
4.84878e-07
4.84878e-07
4.85906e-07
4.8407e-07
4.84878e-07
4.84878e-07
4.85906e-07
4.8407e-07
4.84878e-07
4.84878e-07
4.85906e-07
4.8407e-07
4.84878e-07
4.84878e-07
4.85906e-07
4.8407e-07
4.84878e-07
4.84878e-07
4.85906e-07
5.05163e-07
5.04342e-07
5.0434e-07
5.05163e-07
5.04341e-07
5.0434e-07
5.07889e-07
5.07888e-07
5.07888e-07
5.07888e-07
5.04342e-07
5.04342e-07
5.05163e-07
5.04342e-07
5.04341e-07
5.05163e-07
4.98601e-07
4.86723e-07
4.96051e-07
4.96057e-07
4.85626e-07
4.85628e-07
4.98601e-07
4.86723e-07
4.96055e-07
4.96057e-07
4.85627e-07
4.85628e-07
4.96052e-07
4.85625e-07
4.85626e-07
4.98601e-07
4.86723e-07
4.96055e-07
4.85626e-07
4.85627e-07
4.86726e-07
4.8637e-07
4.85897e-07
4.85113e-07
4.85113e-07
4.8488e-07
4.84881e-07
4.8637e-07
4.85896e-07
4.85113e-07
4.85114e-07
4.8488e-07
4.84881e-07
4.85113e-07
4.8488e-07
4.84881e-07
4.8637e-07
4.85897e-07
4.85113e-07
4.8488e-07
4.8488e-07
4.859e-07
4.85914e-07
4.85894e-07
4.84883e-07
4.84883e-07
4.84879e-07
4.84879e-07
4.85913e-07
4.85893e-07
4.84882e-07
4.84883e-07
4.84878e-07
4.84879e-07
4.84883e-07
4.8488e-07
4.84879e-07
4.85913e-07
4.85894e-07
4.84882e-07
4.84879e-07
4.84878e-07
4.85896e-07
4.85913e-07
4.85894e-07
4.84882e-07
4.84883e-07
4.84879e-07
4.84879e-07
4.85912e-07
4.85893e-07
4.84882e-07
4.84883e-07
4.84879e-07
4.8488e-07
4.84882e-07
4.84879e-07
4.84879e-07
4.85913e-07
4.85894e-07
4.84882e-07
4.84879e-07
4.84879e-07
4.85896e-07
4.85913e-07
4.85894e-07
4.84882e-07
4.84883e-07
4.84879e-07
4.84879e-07
4.85911e-07
4.85893e-07
4.84882e-07
4.84883e-07
4.84879e-07
4.8488e-07
4.84882e-07
4.84879e-07
4.84879e-07
4.85912e-07
4.85894e-07
4.84882e-07
4.84879e-07
4.84879e-07
4.85896e-07
4.85913e-07
4.85894e-07
4.84882e-07
4.84883e-07
4.84879e-07
4.84879e-07
4.85912e-07
4.85893e-07
4.84882e-07
4.84883e-07
4.84879e-07
4.84879e-07
4.84882e-07
4.84879e-07
4.84879e-07
4.85912e-07
4.85894e-07
4.84882e-07
4.84879e-07
4.84879e-07
4.85896e-07
4.85913e-07
4.85894e-07
4.84882e-07
4.84882e-07
4.84879e-07
4.84879e-07
4.85912e-07
4.85893e-07
4.84882e-07
4.84883e-07
4.84879e-07
4.8488e-07
4.84882e-07
4.84879e-07
4.84879e-07
4.85912e-07
4.85893e-07
4.84882e-07
4.84879e-07
4.84879e-07
4.85896e-07
4.85913e-07
4.85894e-07
4.84882e-07
4.84882e-07
4.84879e-07
4.84879e-07
4.85912e-07
4.85893e-07
4.84882e-07
4.84883e-07
4.84879e-07
4.8488e-07
4.84882e-07
4.84879e-07
4.84879e-07
4.85912e-07
4.85894e-07
4.84882e-07
4.84879e-07
4.84879e-07
4.85896e-07
4.85912e-07
4.85894e-07
4.84882e-07
4.84883e-07
4.84879e-07
4.84879e-07
4.85912e-07
4.85893e-07
4.84882e-07
4.84883e-07
4.84879e-07
4.8488e-07
4.84882e-07
4.84879e-07
4.84879e-07
4.85912e-07
4.85894e-07
4.84882e-07
4.84879e-07
4.84879e-07
4.85896e-07
4.85912e-07
4.85894e-07
4.84882e-07
4.84883e-07
4.84879e-07
4.84879e-07
4.85912e-07
4.85893e-07
4.84882e-07
4.84883e-07
4.84879e-07
4.8488e-07
4.84882e-07
4.84879e-07
4.84879e-07
4.85912e-07
4.85894e-07
4.84882e-07
4.84879e-07
4.84879e-07
4.85896e-07
4.85912e-07
4.85894e-07
4.84882e-07
4.84882e-07
4.84879e-07
4.84879e-07
4.85912e-07
4.85893e-07
4.84882e-07
4.84883e-07
4.84879e-07
4.8488e-07
4.84882e-07
4.84879e-07
4.84879e-07
4.85912e-07
4.85894e-07
4.84882e-07
4.84879e-07
4.84879e-07
4.85896e-07
4.85912e-07
4.85896e-07
4.84882e-07
4.84882e-07
4.84885e-07
4.85912e-07
4.84882e-07
4.84883e-07
4.84885e-07
4.84885e-07
4.84883e-07
4.84885e-07
4.85912e-07
4.85896e-07
4.84882e-07
4.84886e-07
4.84885e-07
4.859e-07
5.35432e-07
5.35404e-07
5.35417e-07
5.35417e-07
5.34577e-07
5.35394e-07
5.3364e-07
5.35403e-07
5.34577e-07
5.35394e-07
5.35403e-07
5.3364e-07
5.35126e-07
5.35984e-07
5.35985e-07
1.02722e-06
3.88474e-06
9.45343e-07
4.52537e-06
1.25711e-05
1.54226e-05
1.02734e-06
3.885e-06
9.45361e-07
4.52572e-06
4.94457e-07
4.94458e-07
4.94458e-07
4.84383e-07
4.84383e-07
4.84383e-07
4.84383e-07
5.41482e-07
1.2072e-06
4.94504e-07
4.89765e-07
5.25026e-07
1.06807e-06
4.87925e-07
1.25727e-05
1.54242e-05
5.41481e-07
4.94505e-07
1.20717e-06
4.89765e-07
5.25024e-07
4.87926e-07
1.06806e-06
2.49672e-06
2.49737e-06
4.89851e-07
2.05911e-06
2.0595e-06
9.59772e-07
4.94362e-06
9.6889e-07
4.95486e-06
1.59818e-05
1.59966e-05
9.59892e-07
4.94424e-06
9.68998e-07
4.95549e-06
4.84147e-07
4.84147e-07
4.84146e-07
4.84069e-07
4.84069e-07
4.84069e-07
4.84069e-07
5.32708e-07
8.63889e-07
4.84259e-07
4.84943e-07
5.35048e-07
8.46053e-07
4.842e-07
1.59838e-05
1.59988e-05
5.32715e-07
4.84259e-07
8.63854e-07
4.84943e-07
5.35048e-07
4.84199e-07
8.46091e-07
1.4611e-06
1.46138e-06
4.85935e-07
1.43415e-06
1.4344e-06
9.58418e-07
4.95487e-06
9.58662e-07
4.95461e-06
1.59964e-05
1.59947e-05
9.58353e-07
4.95548e-06
9.58608e-07
4.95519e-06
4.84073e-07
4.84073e-07
4.84073e-07
4.84071e-07
4.8407e-07
4.8407e-07
4.8407e-07
5.32355e-07
8.44472e-07
4.84178e-07
4.84882e-07
5.32413e-07
8.44207e-07
4.84183e-07
1.5999e-05
1.59974e-05
5.32356e-07
4.84178e-07
8.44478e-07
4.84882e-07
5.32417e-07
4.84183e-07
8.44202e-07
1.43214e-06
1.4324e-06
4.85897e-07
1.43186e-06
1.43211e-06
9.58405e-07
4.95487e-06
9.58543e-07
4.95464e-06
1.59962e-05
1.59946e-05
9.58313e-07
4.95549e-06
9.58442e-07
4.95524e-06
4.84074e-07
4.84074e-07
4.84074e-07
4.84071e-07
4.8407e-07
4.8407e-07
4.8407e-07
5.32352e-07
8.44384e-07
4.84179e-07
4.84882e-07
5.32393e-07
8.44185e-07
4.84183e-07
1.59986e-05
1.59972e-05
5.32348e-07
4.84179e-07
8.44339e-07
4.84882e-07
5.32383e-07
4.84183e-07
8.44157e-07
1.43203e-06
1.43228e-06
4.85897e-07
1.43184e-06
1.4321e-06
9.58403e-07
4.95485e-06
9.5854e-07
4.95461e-06
1.5996e-05
1.59945e-05
9.58312e-07
4.9555e-06
9.58438e-07
4.95521e-06
4.84074e-07
4.84074e-07
4.84073e-07
4.8407e-07
4.8407e-07
4.8407e-07
4.8407e-07
5.32352e-07
8.44381e-07
4.84179e-07
4.84882e-07
5.3239e-07
8.44184e-07
4.84183e-07
1.59986e-05
1.59971e-05
5.32348e-07
4.84179e-07
8.44331e-07
4.84882e-07
5.32385e-07
4.84183e-07
8.44155e-07
1.43203e-06
1.43228e-06
4.85897e-07
1.43184e-06
1.4321e-06
9.58404e-07
4.95484e-06
9.5854e-07
4.95457e-06
1.59967e-05
1.59952e-05
9.58312e-07
4.95549e-06
9.58437e-07
4.95522e-06
4.84073e-07
4.84074e-07
4.84073e-07
4.84071e-07
4.8407e-07
4.8407e-07
4.8407e-07
5.32351e-07
8.4438e-07
4.84179e-07
4.84882e-07
5.32389e-07
8.44183e-07
4.84183e-07
1.59986e-05
1.59971e-05
5.32349e-07
4.84178e-07
8.44331e-07
4.84882e-07
5.32385e-07
4.84183e-07
8.44155e-07
1.43203e-06
1.43228e-06
4.85897e-07
1.43184e-06
1.4321e-06
9.58402e-07
4.95485e-06
9.5854e-07
4.95456e-06
1.59965e-05
1.59949e-05
9.58312e-07
4.95549e-06
9.58437e-07
4.95522e-06
4.84073e-07
4.84073e-07
4.84073e-07
4.8407e-07
4.8407e-07
4.8407e-07
4.8407e-07
5.32352e-07
8.4438e-07
4.84179e-07
4.84882e-07
5.32389e-07
8.44183e-07
4.84183e-07
1.59986e-05
1.59972e-05
5.32349e-07
4.84179e-07
8.44331e-07
4.84882e-07
5.32385e-07
4.84183e-07
8.44155e-07
1.43203e-06
1.43228e-06
4.85897e-07
1.43184e-06
1.4321e-06
9.58403e-07
4.95485e-06
9.5854e-07
4.95456e-06
1.59965e-05
1.5995e-05
9.58312e-07
4.95549e-06
9.58437e-07
4.95522e-06
4.84073e-07
4.84073e-07
4.84073e-07
4.8407e-07
4.8407e-07
4.8407e-07
4.8407e-07
5.32352e-07
8.4438e-07
4.84179e-07
4.84882e-07
5.32389e-07
8.44183e-07
4.84183e-07
1.59986e-05
1.59972e-05
5.32349e-07
4.84179e-07
8.44331e-07
4.84882e-07
5.32385e-07
4.84183e-07
8.44155e-07
1.43203e-06
1.43228e-06
4.85897e-07
1.43184e-06
1.4321e-06
9.58403e-07
4.95485e-06
9.5854e-07
4.95456e-06
1.59965e-05
1.5995e-05
9.58312e-07
4.95549e-06
9.58437e-07
4.95522e-06
4.84073e-07
4.84073e-07
4.84073e-07
4.8407e-07
4.8407e-07
4.8407e-07
4.8407e-07
5.32352e-07
8.4438e-07
4.84179e-07
4.84882e-07
5.32389e-07
8.44183e-07
4.84183e-07
1.59986e-05
1.59972e-05
5.3235e-07
4.84179e-07
8.44331e-07
4.84882e-07
5.32386e-07
4.84183e-07
8.44155e-07
1.43203e-06
1.43228e-06
4.85897e-07
1.43184e-06
1.4321e-06
9.58404e-07
4.9548e-06
9.5854e-07
4.95451e-06
1.59965e-05
1.5995e-05
9.58312e-07
4.95544e-06
9.58437e-07
4.95516e-06
4.84073e-07
4.84073e-07
4.84073e-07
4.8407e-07
4.8407e-07
4.8407e-07
4.8407e-07
5.32352e-07
8.4438e-07
4.84179e-07
4.84882e-07
5.3239e-07
8.44183e-07
4.84183e-07
1.59986e-05
1.59972e-05
5.32349e-07
4.84179e-07
8.44331e-07
4.84882e-07
5.32385e-07
4.84183e-07
8.44155e-07
1.43203e-06
1.43228e-06
4.85897e-07
1.43184e-06
1.4321e-06
9.58405e-07
4.95479e-06
9.5854e-07
4.9545e-06
1.59965e-05
1.59949e-05
9.58312e-07
4.95544e-06
9.58437e-07
4.95517e-06
4.84073e-07
4.84074e-07
4.84073e-07
4.8407e-07
4.8407e-07
4.8407e-07
4.8407e-07
5.32353e-07
8.4438e-07
4.84179e-07
4.84882e-07
5.3239e-07
8.44183e-07
4.84183e-07
1.59986e-05
1.59972e-05
5.32349e-07
4.84179e-07
8.44331e-07
4.84882e-07
5.32386e-07
4.84183e-07
8.44155e-07
1.43203e-06
1.43228e-06
4.85897e-07
1.43184e-06
1.4321e-06
9.58403e-07
4.95478e-06
9.5854e-07
4.95449e-06
1.59964e-05
1.59949e-05
9.58313e-07
4.95543e-06
9.58438e-07
4.95517e-06
4.84073e-07
4.84073e-07
4.84073e-07
4.84078e-07
4.84083e-07
4.84076e-07
4.84076e-07
5.32352e-07
8.44381e-07
4.84179e-07
4.8488e-07
5.32389e-07
8.44184e-07
4.84183e-07
1.59986e-05
1.59971e-05
5.32348e-07
4.84179e-07
8.44331e-07
4.84882e-07
5.32385e-07
4.84183e-07
8.44156e-07
1.43203e-06
1.43228e-06
4.85897e-07
1.43185e-06
1.4321e-06
5.35125e-07
5.35988e-07
5.35986e-07
1.09039e-05
5.81318e-07
1.09052e-05
5.81311e-07
5.28325e-07
2.44629e-06
2.44722e-06
5.40823e-07
5.40819e-07
5.34577e-07
5.35393e-07
5.3364e-07
5.35403e-07
5.34577e-07
5.35394e-07
5.3364e-07
5.35403e-07
5.30385e-07
3.46995e-06
5.68194e-07
8.22948e-07
5.30385e-07
3.46998e-06
5.68193e-07
8.22967e-07
5.29562e-07
5.28455e-07
1.18245e-06
5.07833e-07
5.32661e-07
5.28437e-07
5.19149e-07
5.29562e-07
5.28455e-07
1.1826e-06
5.07833e-07
5.3266e-07
5.28437e-07
5.19152e-07
5.35125e-07
5.35987e-07
5.35986e-07
1.09041e-05
5.81296e-07
5.28325e-07
2.44683e-06
2.44683e-06
5.40823e-07
5.40819e-07
1.09048e-05
5.81291e-07
5.34577e-07
5.35393e-07
5.3364e-07
5.35403e-07
5.34577e-07
5.35394e-07
5.35403e-07
5.3364e-07
5.30385e-07
3.4703e-06
5.68191e-07
8.23081e-07
5.29562e-07
5.28455e-07
1.18271e-06
5.07833e-07
5.3266e-07
5.28437e-07
5.19157e-07
5.30385e-07
3.47039e-06
5.6819e-07
8.22991e-07
5.29562e-07
5.28455e-07
5.07833e-07
1.18267e-06
5.28437e-07
5.3266e-07
5.19151e-07
5.35432e-07
5.35405e-07
5.35417e-07
5.35417e-07
5.35432e-07
5.35405e-07
5.35417e-07
5.35417e-07
5.35432e-07
5.35405e-07
5.35417e-07
5.35417e-07
5.2847e-07
5.28423e-07
5.07883e-07
5.07883e-07
5.28462e-07
5.28462e-07
5.07945e-07
5.2847e-07
5.28422e-07
5.07883e-07
5.07883e-07
5.28462e-07
5.28462e-07
5.07945e-07
5.2847e-07
5.28422e-07
5.07883e-07
5.07883e-07
5.28462e-07
5.28462e-07
5.07945e-07
5.2847e-07
5.28422e-07
5.07883e-07
5.07883e-07
5.28462e-07
5.28462e-07
5.07945e-07
5.34577e-07
5.35394e-07
5.35403e-07
5.3364e-07
5.29562e-07
5.28454e-07
1.18264e-06
5.07834e-07
5.3266e-07
5.28438e-07
5.19155e-07
5.30385e-07
3.47018e-06
5.68185e-07
8.2301e-07
5.29562e-07
5.28455e-07
5.07833e-07
1.18253e-06
5.28437e-07
5.32659e-07
5.19151e-07
5.30385e-07
3.47031e-06
5.6819e-07
8.22937e-07
5.35125e-07
5.35985e-07
5.35984e-07
1.09054e-05
5.81307e-07
5.28326e-07
2.44709e-06
2.44679e-06
5.40819e-07
5.40816e-07
1.09053e-05
5.81286e-07
5.34577e-07
5.35394e-07
5.35403e-07
5.3364e-07
5.29562e-07
5.28454e-07
5.07834e-07
1.1826e-06
5.28438e-07
5.32659e-07
5.19153e-07
5.29562e-07
5.28455e-07
5.07833e-07
1.18272e-06
5.28437e-07
5.3266e-07
5.19156e-07
5.30385e-07
3.47034e-06
5.68184e-07
8.22956e-07
5.30385e-07
3.47036e-06
5.68195e-07
8.23062e-07
5.28323e-07
2.44665e-06
2.44734e-06
5.40817e-07
5.40818e-07
1.09051e-05
5.8129e-07
1.09053e-05
5.81304e-07
1.25708e-05
1.54213e-05
1.25724e-05
1.54237e-05
2.49667e-06
2.49738e-06
4.89852e-07
2.05888e-06
2.05965e-06
1.5952e-05
1.56648e-05
1.59545e-05
1.56671e-05
4.88918e-07
1.49514e-06
1.49555e-06
1.84741e-06
1.84803e-06
1.02722e-06
3.88466e-06
9.45374e-07
4.52543e-06
5.41467e-07
1.20708e-06
4.94504e-07
4.89767e-07
5.2504e-07
1.06801e-06
4.87925e-07
5.41473e-07
1.20723e-06
4.94504e-07
4.89772e-07
5.25039e-07
1.06826e-06
4.87925e-07
1.02174e-06
4.92372e-06
4.68514e-06
9.76591e-07
1.02181e-06
4.92392e-06
4.6852e-06
9.76651e-07
5.41781e-07
4.86912e-07
8.80357e-07
4.84509e-07
1.00658e-06
4.8536e-07
5.36773e-07
5.41791e-07
4.86915e-07
8.8051e-07
4.84509e-07
1.00673e-06
4.85359e-07
5.36781e-07
2.49702e-06
2.49695e-06
4.89851e-07
2.05951e-06
2.05904e-06
1.25716e-05
1.5422e-05
1.5953e-05
1.56665e-05
4.88917e-07
1.49547e-06
1.49527e-06
1.84795e-06
1.84759e-06
1.59524e-05
1.56655e-05
5.41489e-07
1.20733e-06
4.94504e-07
4.8977e-07
5.25046e-07
1.06826e-06
4.87926e-07
1.02726e-06
3.88525e-06
9.45217e-07
4.52611e-06
5.41481e-07
4.94504e-07
1.2073e-06
4.89772e-07
5.25035e-07
4.87925e-07
1.06826e-06
1.02189e-06
4.9243e-06
4.68541e-06
9.76661e-07
5.418e-07
4.86914e-07
8.80503e-07
4.84509e-07
1.00675e-06
4.8536e-07
5.36782e-07
1.02183e-06
4.92461e-06
4.68588e-06
9.76668e-07
5.41793e-07
4.86916e-07
4.84509e-07
8.80543e-07
4.8536e-07
1.00673e-06
5.36788e-07
1.02728e-06
3.88487e-06
9.45285e-07
4.52552e-06
5.41474e-07
4.94504e-07
1.20714e-06
4.89767e-07
5.25019e-07
4.87925e-07
1.06815e-06
1.02723e-06
3.88512e-06
9.45149e-07
4.52586e-06
5.41787e-07
4.86908e-07
8.80361e-07
4.8451e-07
1.0066e-06
4.85358e-07
5.36784e-07
1.02185e-06
4.92399e-06
4.68508e-06
9.76669e-07
5.41778e-07
4.86913e-07
4.84509e-07
8.80391e-07
4.85359e-07
1.00654e-06
5.36776e-07
1.02175e-06
4.92418e-06
4.68556e-06
9.76674e-07
2.49722e-06
2.49693e-06
4.89852e-07
2.05959e-06
2.05886e-06
1.25724e-05
1.54229e-05
1.59549e-05
1.56682e-05
4.88917e-07
1.49558e-06
1.49536e-06
1.84796e-06
1.84749e-06
1.59537e-05
1.56664e-05
5.4149e-07
4.94504e-07
1.20732e-06
4.8977e-07
5.25036e-07
4.87925e-07
1.06825e-06
1.02728e-06
3.88515e-06
9.45254e-07
4.52589e-06
1.02736e-06
3.8851e-06
9.45341e-07
4.52577e-06
5.41787e-07
4.86908e-07
4.8451e-07
8.80389e-07
4.85358e-07
1.00662e-06
5.3678e-07
5.41796e-07
4.86914e-07
4.84509e-07
8.80519e-07
4.85359e-07
1.00673e-06
5.36788e-07
1.02174e-06
4.92437e-06
4.68563e-06
9.76691e-07
1.02181e-06
4.92445e-06
4.68554e-06
9.76734e-07
1.25719e-05
1.5423e-05
1.25725e-05
1.54237e-05
4.88914e-07
1.49511e-06
1.49542e-06
1.84735e-06
1.84804e-06
1.59531e-05
1.5666e-05
1.59544e-05
1.56671e-05
1.59794e-05
1.59956e-05
1.5982e-05
1.59982e-05
1.46087e-06
1.4613e-06
4.85934e-07
1.43401e-06
1.43433e-06
1.59945e-05
1.5994e-05
1.59971e-05
1.59966e-05
4.85939e-07
1.43209e-06
1.43234e-06
1.43303e-06
1.43338e-06
9.59788e-07
4.94364e-06
9.68863e-07
4.95514e-06
5.32705e-07
8.63803e-07
4.84262e-07
4.84946e-07
5.35036e-07
8.46057e-07
4.84201e-07
5.32708e-07
8.63894e-07
4.84263e-07
4.84946e-07
5.35043e-07
8.46152e-07
4.842e-07
9.59483e-07
4.95474e-06
4.95473e-06
9.58581e-07
9.5949e-07
4.95486e-06
4.95503e-06
9.58591e-07
5.32631e-07
4.84892e-07
8.44353e-07
4.84178e-07
8.45488e-07
4.8418e-07
5.32388e-07
5.32633e-07
4.84892e-07
8.44387e-07
4.84178e-07
8.4558e-07
4.8418e-07
5.32389e-07
1.46118e-06
1.46097e-06
4.85933e-07
1.43428e-06
1.4339e-06
1.59798e-05
1.59959e-05
1.59962e-05
1.59947e-05
4.85938e-07
1.43228e-06
1.43213e-06
1.4333e-06
1.43319e-06
1.59943e-05
1.59945e-05
5.32715e-07
8.63959e-07
4.84263e-07
4.84946e-07
5.35046e-07
8.46189e-07
4.84201e-07
9.59895e-07
4.94434e-06
9.68932e-07
4.95584e-06
5.32717e-07
4.84263e-07
8.63949e-07
4.84947e-07
5.35049e-07
4.842e-07
8.46197e-07
9.59506e-07
4.95534e-06
4.95534e-06
9.58567e-07
5.32639e-07
4.84892e-07
8.44414e-07
4.84178e-07
8.45611e-07
4.8418e-07
5.32391e-07
9.5951e-07
4.9556e-06
4.95574e-06
9.58579e-07
5.32645e-07
4.84893e-07
4.84178e-07
8.44485e-07
4.8418e-07
8.45677e-07
5.32396e-07
9.59828e-07
4.94369e-06
9.68871e-07
4.95515e-06
5.3271e-07
4.84263e-07
8.63833e-07
4.84946e-07
5.35037e-07
4.84201e-07
8.46132e-07
9.59811e-07
4.94393e-06
9.68889e-07
4.95542e-06
5.32629e-07
4.84893e-07
8.44336e-07
4.84178e-07
8.45525e-07
4.84184e-07
5.32388e-07
9.59447e-07
4.9549e-06
4.95505e-06
9.58576e-07
5.32632e-07
4.84892e-07
4.84178e-07
8.44357e-07
4.8418e-07
8.4556e-07
5.32389e-07
9.59501e-07
4.95519e-06
4.95532e-06
9.58601e-07
1.46135e-06
1.46085e-06
4.85934e-07
1.43435e-06
1.43399e-06
1.59806e-05
1.59975e-05
1.59985e-05
1.59971e-05
4.85938e-07
1.43254e-06
1.43209e-06
1.4336e-06
1.43312e-06
1.59961e-05
1.59959e-05
5.32713e-07
4.84263e-07
8.63899e-07
4.84946e-07
5.35042e-07
4.84201e-07
8.46176e-07
9.59889e-07
4.944e-06
9.6893e-07
4.9555e-06
9.59822e-07
4.94409e-06
9.68925e-07
4.95565e-06
5.32636e-07
4.84894e-07
4.84178e-07
8.44334e-07
4.84183e-07
8.45514e-07
5.32392e-07
5.32634e-07
4.84892e-07
4.84178e-07
8.44416e-07
4.8418e-07
8.45599e-07
5.32391e-07
9.59504e-07
4.95519e-06
4.95539e-06
9.58577e-07
9.5952e-07
4.95538e-06
4.95555e-06
9.58589e-07
1.59808e-05
1.59975e-05
1.5982e-05
1.59986e-05
4.85941e-07
1.4321e-06
1.43237e-06
1.43318e-06
1.4334e-06
1.59963e-05
1.59959e-05
1.59973e-05
1.5997e-05
1.59927e-05
1.59937e-05
1.59957e-05
1.59962e-05
1.43214e-06
1.43233e-06
4.85893e-07
1.43201e-06
1.43216e-06
1.5994e-05
1.59929e-05
1.59969e-05
1.59951e-05
4.8591e-07
1.43204e-06
1.43216e-06
1.4322e-06
1.43215e-06
9.58434e-07
4.95457e-06
9.58626e-07
4.95466e-06
5.32354e-07
8.4445e-07
4.84182e-07
4.84882e-07
5.32411e-07
8.44238e-07
4.84182e-07
5.32357e-07
8.44449e-07
4.84182e-07
4.84882e-07
5.32414e-07
8.44238e-07
4.84182e-07
9.58478e-07
4.95456e-06
4.95431e-06
9.58393e-07
9.58495e-07
4.95472e-06
4.95441e-06
9.58407e-07
5.32386e-07
4.8488e-07
8.44217e-07
4.84179e-07
8.44357e-07
4.8418e-07
5.32352e-07
5.32389e-07
4.8488e-07
8.44218e-07
4.84179e-07
8.44338e-07
4.8418e-07
5.32356e-07
1.43228e-06
1.43221e-06
4.85892e-07
1.43213e-06
1.43205e-06
1.59925e-05
1.59939e-05
1.59958e-05
1.59931e-05
4.85909e-07
1.43211e-06
1.432e-06
1.43213e-06
1.43225e-06
1.5994e-05
1.59932e-05
5.32352e-07
8.44479e-07
4.84182e-07
4.84882e-07
5.32415e-07
8.44283e-07
4.84182e-07
9.58408e-07
4.95532e-06
9.58579e-07
4.95538e-06
5.32359e-07
4.84182e-07
8.44578e-07
4.84883e-07
5.32418e-07
4.84182e-07
8.44359e-07
9.58367e-07
4.95521e-06
4.95491e-06
9.58324e-07
5.32382e-07
4.8488e-07
8.44284e-07
4.84179e-07
8.44406e-07
4.8418e-07
5.32346e-07
9.58424e-07
4.95543e-06
4.95513e-06
9.58365e-07
5.3239e-07
4.84881e-07
4.84179e-07
8.44346e-07
4.8418e-07
8.44482e-07
5.32356e-07
9.5844e-07
4.95464e-06
9.58616e-07
4.95469e-06
5.32355e-07
4.84182e-07
8.44415e-07
4.84882e-07
5.32411e-07
4.84182e-07
8.44195e-07
9.58442e-07
4.95489e-06
9.58636e-07
4.95502e-06
5.32385e-07
4.84882e-07
8.44196e-07
4.8418e-07
8.44329e-07
4.84183e-07
5.32356e-07
9.58502e-07
4.95475e-06
4.95447e-06
9.58423e-07
5.32385e-07
4.8488e-07
4.84179e-07
8.44175e-07
4.8418e-07
8.44297e-07
5.32354e-07
9.58503e-07
4.95506e-06
4.95477e-06
9.58418e-07
1.43261e-06
1.43209e-06
4.85893e-07
1.43248e-06
1.43193e-06
1.59948e-05
1.59956e-05
1.59977e-05
1.59956e-05
4.8591e-07
1.4324e-06
1.43193e-06
1.43261e-06
1.43193e-06
1.5996e-05
1.59945e-05
5.32352e-07
4.84182e-07
8.44473e-07
4.84882e-07
5.32413e-07
4.84182e-07
8.44259e-07
9.584e-07
4.95494e-06
9.58577e-07
4.95507e-06
9.58393e-07
4.95508e-06
9.58589e-07
4.95519e-06
5.32384e-07
4.84882e-07
4.8418e-07
8.44172e-07
4.84183e-07
8.44298e-07
5.32347e-07
5.32381e-07
4.8488e-07
4.84178e-07
8.44242e-07
4.8418e-07
8.44364e-07
5.32344e-07
9.58412e-07
4.95514e-06
4.95485e-06
9.58343e-07
9.58406e-07
4.95525e-06
4.95496e-06
9.58338e-07
1.59949e-05
1.59956e-05
1.59958e-05
1.59963e-05
4.85914e-07
1.4319e-06
1.43216e-06
1.43186e-06
1.43211e-06
1.59961e-05
1.59947e-05
1.5997e-05
1.59955e-05
1.59923e-05
1.59935e-05
1.59958e-05
1.59963e-05
1.43215e-06
1.43216e-06
4.85893e-07
1.43197e-06
1.43213e-06
1.59942e-05
1.59923e-05
1.59969e-05
1.5995e-05
4.8591e-07
1.43187e-06
1.43216e-06
1.43189e-06
1.43214e-06
9.58416e-07
4.95446e-06
9.58475e-07
4.9546e-06
5.32353e-07
8.44352e-07
4.84182e-07
4.84882e-07
5.32384e-07
8.44216e-07
4.84182e-07
5.32354e-07
8.44326e-07
4.84182e-07
4.84883e-07
5.3239e-07
8.44212e-07
4.84182e-07
9.58469e-07
4.95458e-06
4.95433e-06
9.58389e-07
9.58485e-07
4.95472e-06
4.95441e-06
9.58403e-07
5.32389e-07
4.8488e-07
8.44168e-07
4.84179e-07
8.44313e-07
4.84181e-07
5.32351e-07
5.32389e-07
4.84881e-07
8.44214e-07
4.84178e-07
8.44323e-07
4.8418e-07
5.32357e-07
1.43212e-06
1.43218e-06
4.85892e-07
1.4321e-06
1.43197e-06
1.59923e-05
1.59935e-05
1.59958e-05
1.59929e-05
4.85909e-07
1.43211e-06
1.43202e-06
1.43211e-06
1.43212e-06
1.5994e-05
1.59928e-05
5.32343e-07
8.44394e-07
4.84182e-07
4.84882e-07
5.32379e-07
8.44256e-07
4.84182e-07
9.58364e-07
4.95516e-06
9.5839e-07
4.95533e-06
5.32354e-07
4.84182e-07
8.44474e-07
4.84883e-07
5.3239e-07
4.84182e-07
8.44338e-07
9.58336e-07
4.95523e-06
4.95495e-06
9.58318e-07
5.32377e-07
4.8488e-07
8.44235e-07
4.84179e-07
8.44359e-07
4.8418e-07
5.32346e-07
9.58392e-07
4.95543e-06
4.95511e-06
9.58357e-07
5.32387e-07
4.84881e-07
4.84179e-07
8.4434e-07
4.8418e-07
8.44466e-07
5.32356e-07
9.58413e-07
4.95446e-06
9.58488e-07
4.95464e-06
5.32351e-07
4.84182e-07
8.44282e-07
4.84882e-07
5.32388e-07
4.84182e-07
8.44168e-07
9.58412e-07
4.95479e-06
9.58485e-07
4.95496e-06
5.32383e-07
4.84882e-07
8.44191e-07
4.8418e-07
8.44313e-07
4.84183e-07
5.32353e-07
9.58478e-07
4.95474e-06
4.95444e-06
9.58413e-07
5.32383e-07
4.84881e-07
4.84178e-07
8.44173e-07
4.8418e-07
8.44282e-07
5.32353e-07
9.58479e-07
4.95506e-06
4.95481e-06
9.58411e-07
1.43259e-06
1.43193e-06
4.85893e-07
1.43242e-06
1.43189e-06
1.59949e-05
1.59953e-05
1.59977e-05
1.59954e-05
4.8591e-07
1.43237e-06
1.43191e-06
1.4325e-06
1.43189e-06
1.59959e-05
1.59942e-05
5.32346e-07
4.84182e-07
8.44351e-07
4.84882e-07
5.32378e-07
4.84182e-07
8.44234e-07
9.58351e-07
4.95485e-06
9.58365e-07
4.95501e-06
9.58343e-07
4.95496e-06
9.58363e-07
4.95515e-06
5.32382e-07
4.84882e-07
4.84179e-07
8.44159e-07
4.84182e-07
8.44265e-07
5.3235e-07
5.32379e-07
4.8488e-07
4.84179e-07
8.44239e-07
4.8418e-07
8.44349e-07
5.32347e-07
9.58379e-07
4.95513e-06
4.95484e-06
9.58347e-07
9.58371e-07
4.95524e-06
4.95499e-06
9.58338e-07
1.59951e-05
1.59955e-05
1.5996e-05
1.59964e-05
4.85914e-07
1.4319e-06
1.43216e-06
1.43185e-06
1.4321e-06
1.59961e-05
1.59944e-05
1.5997e-05
1.59953e-05
1.59931e-05
1.59937e-05
1.59958e-05
1.59962e-05
1.43187e-06
1.43216e-06
4.85893e-07
1.43183e-06
1.43213e-06
1.59943e-05
1.59926e-05
1.59969e-05
1.5995e-05
4.8591e-07
1.43186e-06
1.43216e-06
1.43184e-06
1.43213e-06
9.58404e-07
4.95442e-06
9.58469e-07
4.9546e-06
5.32353e-07
8.44281e-07
4.84182e-07
4.84882e-07
5.32382e-07
8.44155e-07
4.84182e-07
5.32352e-07
8.44323e-07
4.84182e-07
4.84882e-07
5.32389e-07
8.44211e-07
4.84182e-07
9.58467e-07
4.95464e-06
4.95433e-06
9.58389e-07
9.58471e-07
4.95472e-06
4.95442e-06
9.58401e-07
5.32389e-07
4.84881e-07
8.44143e-07
4.84179e-07
8.44261e-07
4.8418e-07
5.3235e-07
5.32387e-07
4.84881e-07
8.44214e-07
4.84179e-07
8.44322e-07
4.8418e-07
5.32355e-07
1.43211e-06
1.43218e-06
4.85892e-07
1.43209e-06
1.43197e-06
1.59924e-05
1.59935e-05
1.59964e-05
1.59936e-05
4.85909e-07
1.43211e-06
1.43202e-06
1.43209e-06
1.43212e-06
1.5994e-05
1.59927e-05
5.32343e-07
8.44354e-07
4.84182e-07
4.84882e-07
5.32378e-07
8.44258e-07
4.84182e-07
9.58363e-07
4.95515e-06
9.58383e-07
4.95532e-06
5.32354e-07
4.84182e-07
8.4447e-07
4.84883e-07
5.32388e-07
4.84182e-07
8.44337e-07
9.58335e-07
4.95522e-06
4.95493e-06
9.58317e-07
5.32378e-07
4.8488e-07
8.44265e-07
4.84179e-07
8.44362e-07
4.8418e-07
5.32345e-07
9.58392e-07
4.95542e-06
4.9551e-06
9.58357e-07
5.32388e-07
4.84881e-07
4.84179e-07
8.4434e-07
4.8418e-07
8.44465e-07
5.32356e-07
9.58411e-07
4.95445e-06
9.5848e-07
4.95463e-06
5.32351e-07
4.84182e-07
8.44281e-07
4.84882e-07
5.32387e-07
4.84182e-07
8.44167e-07
9.58411e-07
4.95476e-06
9.58479e-07
4.95496e-06
5.32383e-07
4.84882e-07
8.4419e-07
4.8418e-07
8.44312e-07
4.84182e-07
5.32352e-07
9.58477e-07
4.95473e-06
4.95443e-06
9.58407e-07
5.32383e-07
4.84881e-07
4.84179e-07
8.44172e-07
4.8418e-07
8.44281e-07
5.32353e-07
9.58479e-07
4.95506e-06
4.95481e-06
9.5841e-07
1.43257e-06
1.43191e-06
4.85893e-07
1.43242e-06
1.43189e-06
1.59949e-05
1.59953e-05
1.59977e-05
1.59954e-05
4.8591e-07
1.43237e-06
1.43191e-06
1.4325e-06
1.43189e-06
1.59959e-05
1.59941e-05
5.32345e-07
4.84182e-07
8.44349e-07
4.84882e-07
5.3238e-07
4.84182e-07
8.44233e-07
9.58353e-07
4.95484e-06
9.58372e-07
4.95501e-06
9.58344e-07
4.95495e-06
9.58364e-07
4.95514e-06
5.32381e-07
4.84882e-07
4.84179e-07
8.44159e-07
4.84182e-07
8.44265e-07
5.3235e-07
5.32379e-07
4.8488e-07
4.84179e-07
8.44238e-07
4.8418e-07
8.44348e-07
5.32347e-07
9.58379e-07
4.95513e-06
4.95484e-06
9.58346e-07
9.58372e-07
4.95524e-06
4.95499e-06
9.58337e-07
1.59951e-05
1.59955e-05
1.5996e-05
1.59964e-05
4.85914e-07
1.4319e-06
1.43216e-06
1.43185e-06
1.4321e-06
1.59961e-05
1.59944e-05
1.5997e-05
1.59952e-05
1.59928e-05
1.59934e-05
1.59958e-05
1.59962e-05
1.43186e-06
1.43216e-06
4.85893e-07
1.43185e-06
1.43213e-06
1.5994e-05
1.59924e-05
1.59969e-05
1.5995e-05
4.8591e-07
1.43186e-06
1.43216e-06
1.43185e-06
1.43213e-06
9.58404e-07
4.95443e-06
9.58469e-07
4.95461e-06
5.32353e-07
8.44263e-07
4.84182e-07
4.84882e-07
5.32381e-07
8.44145e-07
4.84182e-07
5.32353e-07
8.44324e-07
4.84182e-07
4.84882e-07
5.32388e-07
8.44213e-07
4.84182e-07
9.58468e-07
4.95465e-06
4.95428e-06
9.5839e-07
9.58472e-07
4.95472e-06
4.95443e-06
9.58403e-07
5.32389e-07
4.84881e-07
8.4414e-07
4.84179e-07
8.44253e-07
4.84181e-07
5.32351e-07
5.32388e-07
4.84881e-07
8.44215e-07
4.84179e-07
8.44324e-07
4.8418e-07
5.32355e-07
1.43212e-06
1.43218e-06
4.85892e-07
1.43214e-06
1.43197e-06
1.59923e-05
1.59935e-05
1.59963e-05
1.59937e-05
4.85909e-07
1.43213e-06
1.43202e-06
1.43214e-06
1.43212e-06
1.5994e-05
1.59927e-05
5.32344e-07
8.44379e-07
4.84182e-07
4.84882e-07
5.32377e-07
8.44273e-07
4.84182e-07
9.58363e-07
4.95514e-06
9.58383e-07
4.95532e-06
5.32354e-07
4.84182e-07
8.44469e-07
4.84883e-07
5.32388e-07
4.84182e-07
8.44337e-07
9.58335e-07
4.95522e-06
4.95493e-06
9.58316e-07
5.32378e-07
4.8488e-07
8.44268e-07
4.84178e-07
8.44374e-07
4.8418e-07
5.32345e-07
9.58392e-07
4.95542e-06
4.9551e-06
9.58357e-07
5.32388e-07
4.84881e-07
4.84178e-07
8.4434e-07
4.8418e-07
8.44465e-07
5.32355e-07
9.58413e-07
4.95445e-06
9.58473e-07
4.95463e-06
5.32351e-07
4.84182e-07
8.44281e-07
4.84882e-07
5.32387e-07
4.84182e-07
8.44167e-07
9.58411e-07
4.95476e-06
9.58478e-07
4.95496e-06
5.32384e-07
4.84882e-07
8.4419e-07
4.8418e-07
8.44312e-07
4.84182e-07
5.32353e-07
9.58479e-07
4.95473e-06
4.95443e-06
9.58408e-07
5.32383e-07
4.84881e-07
4.84179e-07
8.44172e-07
4.8418e-07
8.44281e-07
5.32353e-07
9.58479e-07
4.95506e-06
4.95481e-06
9.58409e-07
1.43257e-06
1.43191e-06
4.85893e-07
1.43242e-06
1.43189e-06
1.59949e-05
1.59953e-05
1.59977e-05
1.59954e-05
4.8591e-07
1.43237e-06
1.43191e-06
1.4325e-06
1.43189e-06
1.59959e-05
1.59942e-05
5.32345e-07
4.84182e-07
8.44348e-07
4.84882e-07
5.3238e-07
4.84182e-07
8.44233e-07
9.58353e-07
4.95484e-06
9.5837e-07
4.95501e-06
9.58341e-07
4.95495e-06
9.58363e-07
4.95514e-06
5.32382e-07
4.84882e-07
4.8418e-07
8.44159e-07
4.84182e-07
8.44265e-07
5.32349e-07
5.32378e-07
4.8488e-07
4.84179e-07
8.44238e-07
4.8418e-07
8.44348e-07
5.32346e-07
9.58379e-07
4.95513e-06
4.95484e-06
9.58345e-07
9.58368e-07
4.95524e-06
4.95499e-06
9.58334e-07
1.59951e-05
1.59955e-05
1.59961e-05
1.59964e-05
4.85914e-07
1.4319e-06
1.43216e-06
1.43184e-06
1.4321e-06
1.59961e-05
1.59943e-05
1.5997e-05
1.59953e-05
1.5993e-05
1.59934e-05
1.59958e-05
1.59963e-05
1.43186e-06
1.43216e-06
4.85893e-07
1.43183e-06
1.43213e-06
1.59942e-05
1.59924e-05
1.59969e-05
1.5995e-05
4.8591e-07
1.43188e-06
1.43216e-06
1.43183e-06
1.43213e-06
9.58405e-07
4.95443e-06
9.58471e-07
4.95459e-06
5.32353e-07
8.4426e-07
4.84182e-07
4.84882e-07
5.32382e-07
8.44143e-07
4.84182e-07
5.32353e-07
8.44324e-07
4.84182e-07
4.84882e-07
5.32389e-07
8.4421e-07
4.84182e-07
9.58467e-07
4.95466e-06
4.95428e-06
9.58389e-07
9.58472e-07
4.95472e-06
4.95441e-06
9.58403e-07
5.32389e-07
4.84881e-07
8.44143e-07
4.84179e-07
8.44253e-07
4.8418e-07
5.32351e-07
5.32388e-07
4.84881e-07
8.44213e-07
4.84179e-07
8.44321e-07
4.8418e-07
5.32355e-07
1.43213e-06
1.43218e-06
4.85892e-07
1.43209e-06
1.43198e-06
1.59923e-05
1.59935e-05
1.59961e-05
1.59932e-05
4.85909e-07
1.4321e-06
1.43202e-06
1.43209e-06
1.43212e-06
1.5994e-05
1.59927e-05
5.32344e-07
8.44381e-07
4.84182e-07
4.84882e-07
5.32377e-07
8.44273e-07
4.84182e-07
9.58363e-07
4.95514e-06
9.58383e-07
4.95532e-06
5.32354e-07
4.84182e-07
8.44469e-07
4.84883e-07
5.32388e-07
4.84182e-07
8.44337e-07
9.58335e-07
4.95522e-06
4.95493e-06
9.58317e-07
5.32378e-07
4.8488e-07
8.44268e-07
4.84179e-07
8.44374e-07
4.8418e-07
5.32345e-07
9.58391e-07
4.95542e-06
4.9551e-06
9.58357e-07
5.32388e-07
4.84881e-07
4.84178e-07
8.4434e-07
4.8418e-07
8.44465e-07
5.32356e-07
9.58413e-07
4.95445e-06
9.58474e-07
4.95463e-06
5.32351e-07
4.84182e-07
8.44281e-07
4.84882e-07
5.32386e-07
4.84182e-07
8.44167e-07
9.58412e-07
4.95476e-06
9.58477e-07
4.95496e-06
5.32384e-07
4.84882e-07
8.4419e-07
4.84179e-07
8.44312e-07
4.84182e-07
5.32353e-07
9.5848e-07
4.95473e-06
4.95443e-06
9.58408e-07
5.32383e-07
4.84881e-07
4.84179e-07
8.44172e-07
4.8418e-07
8.44281e-07
5.32353e-07
9.58479e-07
4.95506e-06
4.95481e-06
9.58412e-07
1.43257e-06
1.43191e-06
4.85893e-07
1.43242e-06
1.43189e-06
1.59949e-05
1.59953e-05
1.59977e-05
1.59954e-05
4.8591e-07
1.43238e-06
1.43191e-06
1.4325e-06
1.43189e-06
1.59959e-05
1.59942e-05
5.32345e-07