/*--------------------------------*- C++ -*----------------------------------*\
| =========                 |                                                 |
| \\      /  F ield         | OpenFOAM: The Open Source CFD Toolbox           |
|  \\    /   O peration     | Version:  2206                                  |
|   \\  /    A nd           | Website:  www.openfoam.com                      |
|    \\/     M anipulation  |                                                 |
\*---------------------------------------------------------------------------*/
FoamFile
{
    version     2.0;
    format      ascii;
    arch        "LSB;label=32;scalar=64";
    class       volScalarField;
    location    "4";
    object      epsilon;
}
// * * * * * * * * * * * * * * * * * * * * * * * * * * * * * * * * * * * * * //

dimensions      [0 2 -3 0 0 0 0];

internalField   nonuniform List<scalar> 
28515
(
5.76564e-07
6.23568e-07
6.23578e-07
6.71462e-07
4.84699e-07
4.90198e-07
4.90195e-07
5.24804e-07
4.84531e-07
4.89924e-07
4.89928e-07
5.24111e-07
4.84531e-07
4.8992e-07
4.89923e-07
5.24097e-07
4.84531e-07
4.89922e-07
4.89922e-07
5.24099e-07
4.84532e-07
4.89919e-07
4.89918e-07
5.241e-07
4.84531e-07
4.89917e-07
4.89917e-07
5.2408e-07
4.84531e-07
4.89915e-07
4.89919e-07
5.24095e-07
4.84531e-07
4.89916e-07
4.8992e-07
5.24096e-07
4.84532e-07
4.89915e-07
4.89922e-07
5.24109e-07
4.84532e-07
4.89915e-07
4.8992e-07
5.24092e-07
4.84531e-07
4.89914e-07
4.89916e-07
5.24085e-07
7.26553e-07
7.6599e-07
7.66e-07
7.2659e-07
7.65916e-07
7.66005e-07
7.09822e-07
7.09784e-07
7.09822e-07
7.09884e-07
7.65946e-07
7.65976e-07
7.26611e-07
7.65982e-07
7.65933e-07
7.26554e-07
6.71466e-07
5.25434e-07
6.23581e-07
6.23553e-07
4.90426e-07
4.90418e-07
6.71447e-07
5.25427e-07
6.23566e-07
6.23567e-07
4.90419e-07
4.90426e-07
6.2358e-07
4.90417e-07
4.90422e-07
6.71475e-07
5.25447e-07
6.23571e-07
4.90422e-07
4.9042e-07
5.2544e-07
5.2479e-07
5.24488e-07
4.90197e-07
4.90201e-07
4.89926e-07
4.89919e-07
5.24779e-07
5.24478e-07
4.90198e-07
4.90205e-07
4.89915e-07
4.89926e-07
4.90199e-07
4.89921e-07
4.89922e-07
5.24803e-07
5.24496e-07
4.90196e-07
4.89923e-07
4.89925e-07
5.24477e-07
5.24122e-07
5.2446e-07
4.89931e-07
4.89932e-07
4.8992e-07
4.89922e-07
5.24105e-07
5.24449e-07
4.89925e-07
4.89931e-07
4.8992e-07
4.89925e-07
4.89934e-07
4.8992e-07
4.89922e-07
5.24134e-07
5.2447e-07
4.89929e-07
4.89924e-07
4.89921e-07
5.24463e-07
5.24106e-07
5.24463e-07
4.8992e-07
4.89923e-07
4.89921e-07
4.89922e-07
5.24076e-07
5.24457e-07
4.89918e-07
4.89922e-07
4.8992e-07
4.89925e-07
4.89925e-07
4.89921e-07
4.89922e-07
5.24107e-07
5.24477e-07
4.89919e-07
4.89924e-07
4.89921e-07
5.24468e-07
5.2411e-07
5.24453e-07
4.89921e-07
4.89919e-07
4.8992e-07
4.89919e-07
5.24094e-07
5.24448e-07
4.89917e-07
4.89923e-07
4.89916e-07
4.89924e-07
4.89925e-07
4.89916e-07
4.89924e-07
5.24123e-07
5.24476e-07
4.89922e-07
4.89918e-07
4.89918e-07
5.24466e-07
5.24092e-07
5.2444e-07
4.89924e-07
4.89919e-07
4.89917e-07
4.89918e-07
5.24087e-07
5.24434e-07
4.89916e-07
4.89927e-07
4.89917e-07
4.89921e-07
4.89924e-07
4.89917e-07
4.89923e-07
5.24108e-07
5.24462e-07
4.8992e-07
4.89916e-07
4.89917e-07
5.24451e-07
5.24083e-07
5.24457e-07
4.8992e-07
4.89917e-07
4.89924e-07
4.89916e-07
5.24074e-07
5.24455e-07
4.89916e-07
4.89925e-07
4.89914e-07
4.89922e-07
4.89925e-07
4.89918e-07
4.89923e-07
5.24099e-07
5.2447e-07
4.89917e-07
4.89921e-07
4.89921e-07
5.24453e-07
5.24097e-07
5.24472e-07
4.89921e-07
4.89917e-07
4.89925e-07
4.8992e-07
5.24098e-07
5.24466e-07
4.89916e-07
4.89926e-07
4.89917e-07
4.89922e-07
4.89922e-07
4.89919e-07
4.89924e-07
5.24102e-07
5.24481e-07
4.8992e-07
4.89922e-07
4.89922e-07
5.24462e-07
5.24116e-07
5.24468e-07
4.89919e-07
4.89918e-07
4.89926e-07
4.89917e-07
5.24107e-07
5.24468e-07
4.89918e-07
4.89927e-07
4.89916e-07
4.89923e-07
4.89927e-07
4.89919e-07
4.89924e-07
5.24112e-07
5.24491e-07
4.89921e-07
4.89923e-07
4.89922e-07
5.2447e-07
5.24104e-07
5.24456e-07
4.89926e-07
4.89918e-07
4.89925e-07
4.89923e-07
5.24108e-07
5.24455e-07
4.89918e-07
4.89926e-07
4.89916e-07
4.89923e-07
4.89924e-07
4.89921e-07
4.89923e-07
5.2413e-07
5.24476e-07
4.89919e-07
4.89917e-07
4.89923e-07
5.24459e-07
5.24092e-07
5.24447e-07
4.89924e-07
4.8992e-07
4.89924e-07
4.8992e-07
5.24099e-07
5.24443e-07
4.89918e-07
4.89925e-07
4.89915e-07
4.89924e-07
4.89925e-07
4.89921e-07
4.89922e-07
5.24109e-07
5.24469e-07
4.89921e-07
4.89919e-07
4.89919e-07
5.24445e-07
5.24084e-07
4.89917e-07
4.89919e-07
5.24087e-07
4.89921e-07
4.89927e-07
4.89922e-07
5.24101e-07
4.89919e-07
2.5723e-06
2.9901e-06
2.60708e-06
2.60707e-06
1.10364e-05
4.48481e-06
7.33549e-06
2.67774e-06
1.10362e-05
4.48526e-06
2.67773e-06
7.3355e-06
6.15979e-06
6.44506e-06
6.44578e-06
8.2144e-07
2.39961e-06
7.81049e-07
2.25632e-06
3.66184e-06
3.11776e-06
8.21518e-07
2.39976e-06
7.81061e-07
2.2564e-06
5.76582e-07
5.766e-07
5.7657e-07
4.85175e-07
4.85174e-07
4.85175e-07
4.85175e-07
5.60395e-07
7.71794e-07
5.5248e-07
5.08547e-07
5.75184e-07
8.31058e-07
4.97634e-07
3.66203e-06
3.11782e-06
5.60405e-07
5.52504e-07
7.71827e-07
5.08564e-07
5.75194e-07
4.97635e-07
8.31088e-07
1.06462e-06
1.06476e-06
5.3746e-07
1.0032e-06
1.00322e-06
8.01053e-07
2.28012e-06
7.62456e-07
2.25158e-06
3.14114e-06
3.09144e-06
8.01049e-07
2.28028e-06
7.62475e-07
2.25169e-06
4.84699e-07
4.84699e-07
4.84699e-07
4.84535e-07
4.84535e-07
4.84535e-07
4.84535e-07
5.5491e-07
7.44172e-07
4.85073e-07
4.89932e-07
5.45456e-07
8.05922e-07
4.84875e-07
3.14123e-06
3.09156e-06
5.54915e-07
4.85073e-07
7.44204e-07
4.89937e-07
5.45465e-07
4.84875e-07
8.05955e-07
9.52379e-07
9.52431e-07
5.24562e-07
9.85722e-07
9.85736e-07
7.99577e-07
2.27816e-06
7.62136e-07
2.25113e-06
3.13116e-06
3.09101e-06
7.99596e-07
2.2783e-06
7.62149e-07
2.25122e-06
4.84532e-07
4.84532e-07
4.84532e-07
4.84531e-07
4.84532e-07
4.84532e-07
4.84532e-07
5.5459e-07
7.43872e-07
4.84866e-07
4.8992e-07
5.45398e-07
8.04251e-07
4.84863e-07
3.13129e-06
3.09113e-06
5.54602e-07
4.84867e-07
7.43899e-07
4.8992e-07
5.45403e-07
4.84863e-07
8.04304e-07
9.52721e-07
9.52793e-07
5.24469e-07
9.84387e-07
9.84404e-07
7.99333e-07
2.27797e-06
7.62137e-07
2.25106e-06
3.13077e-06
3.09104e-06
7.99347e-07
2.27813e-06
7.62147e-07
2.25117e-06
4.84532e-07
4.84531e-07
4.84532e-07
4.84531e-07
4.84531e-07
4.84531e-07
4.84531e-07
5.54558e-07
7.43898e-07
4.84863e-07
4.89918e-07
5.45397e-07
8.04082e-07
4.84863e-07
3.13087e-06
3.09117e-06
5.54569e-07
4.84863e-07
7.4393e-07
4.89923e-07
5.45406e-07
4.84863e-07
8.04111e-07
9.52818e-07
9.52882e-07
5.24466e-07
9.84308e-07
9.8432e-07
7.99317e-07
2.27793e-06
7.62132e-07
2.25105e-06
3.1307e-06
3.09104e-06
7.99343e-07
2.27809e-06
7.62153e-07
2.25115e-06
4.84531e-07
4.84531e-07
4.84531e-07
4.84531e-07
4.84531e-07
4.84531e-07
4.84531e-07
5.54559e-07
7.43897e-07
4.84863e-07
4.8992e-07
5.45408e-07
8.04028e-07
4.84863e-07
3.13079e-06
3.09116e-06
5.5457e-07
4.84863e-07
7.43926e-07
4.89924e-07
5.45414e-07
4.84864e-07
8.04065e-07
9.52836e-07
9.52906e-07
5.24468e-07
9.84193e-07
9.84218e-07
7.99351e-07
2.27797e-06
7.62122e-07
2.25107e-06
3.13076e-06
3.09106e-06
7.9942e-07
2.27814e-06
7.62135e-07
2.25116e-06
4.84531e-07
4.84532e-07
4.84532e-07
4.84531e-07
4.84531e-07
4.84531e-07
4.84532e-07
5.54552e-07
7.43898e-07
4.84863e-07
4.89919e-07
5.45397e-07
8.04042e-07
4.84863e-07
3.13089e-06
3.09118e-06
5.5456e-07
4.84864e-07
7.43916e-07
4.89923e-07
5.454e-07
4.84864e-07
8.04099e-07
9.52846e-07
9.52913e-07
5.24455e-07
9.8421e-07
9.84224e-07
7.99439e-07
2.27799e-06
7.62151e-07
2.25105e-06
3.13084e-06
3.09108e-06
7.99468e-07
2.27814e-06
7.62169e-07
2.25115e-06
4.84531e-07
4.84531e-07
4.84532e-07
4.84531e-07
4.8453e-07
4.84531e-07
4.84531e-07
5.54548e-07
7.43893e-07
4.84863e-07
4.89915e-07
5.45386e-07
8.0409e-07
4.84863e-07
3.13092e-06
3.09118e-06
5.54557e-07
4.84863e-07
7.43923e-07
4.89917e-07
5.45397e-07
4.84863e-07
8.04117e-07
9.52816e-07
9.52885e-07
5.24451e-07
9.84317e-07
9.84333e-07
7.99349e-07
2.27797e-06
7.62144e-07
2.25105e-06
3.13074e-06
3.09106e-06
7.99417e-07
2.27813e-06
7.62155e-07
2.25115e-06
4.8453e-07
4.84531e-07
4.84531e-07
4.84531e-07
4.84531e-07
4.84531e-07
4.84531e-07
5.54555e-07
7.43911e-07
4.84863e-07
4.89919e-07
5.45401e-07
8.04035e-07
4.84863e-07
3.13087e-06
3.09118e-06
5.5457e-07
4.84863e-07
7.43932e-07
4.89922e-07
5.45407e-07
4.84863e-07
8.04094e-07
9.52849e-07
9.52918e-07
5.24461e-07
9.84231e-07
9.84248e-07
7.99233e-07
2.27793e-06
7.62133e-07
2.25108e-06
3.13067e-06
3.09107e-06
7.99271e-07
2.27809e-06
7.62156e-07
2.25117e-06
4.84531e-07
4.84531e-07
4.84531e-07
4.84531e-07
4.84531e-07
4.84531e-07
4.84531e-07
5.54561e-07
7.43909e-07
4.84862e-07
4.8992e-07
5.45412e-07
8.04026e-07
4.84863e-07
3.13074e-06
3.09116e-06
5.54568e-07
4.84863e-07
7.43944e-07
4.89924e-07
5.45423e-07
4.84863e-07
8.04041e-07
9.52878e-07
9.52935e-07
5.24474e-07
9.84221e-07
9.8425e-07
7.99292e-07
2.27794e-06
7.62117e-07
2.25107e-06
3.13067e-06
3.09104e-06
7.99313e-07
2.2781e-06
7.62131e-07
2.25117e-06
4.8453e-07
4.84532e-07
4.84531e-07
4.84531e-07
4.84532e-07
4.84531e-07
4.84532e-07
5.54563e-07
7.4391e-07
4.84863e-07
4.89917e-07
5.45413e-07
8.04003e-07
4.84863e-07
3.13079e-06
3.09116e-06
5.54574e-07
4.84863e-07
7.43926e-07
4.89919e-07
5.45415e-07
4.84863e-07
8.04065e-07
9.52857e-07
9.5293e-07
5.24478e-07
9.84129e-07
9.84131e-07
7.99273e-07
2.27793e-06
7.62131e-07
2.25107e-06
3.13077e-06
3.09106e-06
7.99288e-07
2.27809e-06
7.62154e-07
2.25117e-06
4.84531e-07
4.84532e-07
4.84532e-07
4.84532e-07
4.84532e-07
4.84532e-07
4.84532e-07
5.54545e-07
7.43896e-07
4.84863e-07
4.89918e-07
5.45397e-07
8.04055e-07
4.84863e-07
3.13085e-06
3.09118e-06
5.54554e-07
4.84863e-07
7.43926e-07
4.8992e-07
5.4541e-07
4.84864e-07
8.04063e-07
9.5282e-07
9.52903e-07
5.24458e-07
9.84185e-07
9.84211e-07
7.99456e-07
2.27799e-06
7.62127e-07
2.25105e-06
3.13085e-06
3.09106e-06
2.27816e-06
7.62146e-07
4.84531e-07
4.84532e-07
4.84532e-07
5.54545e-07
7.43896e-07
4.84863e-07
4.89917e-07
5.45385e-07
8.04112e-07
4.84863e-07
3.13093e-06
5.54555e-07
4.84864e-07
7.43925e-07
5.45394e-07
4.84864e-07
9.52846e-07
9.52906e-07
5.24449e-07
9.84336e-07
9.84373e-07
6.15975e-06
6.44293e-06
6.44512e-06
5.5562e-06
3.42967e-06
5.55552e-06
3.43007e-06
2.59584e-06
1.83744e-06
1.8378e-06
3.61652e-06
3.61691e-06
1.10395e-05
4.48756e-06
7.3361e-06
2.67789e-06
1.10376e-05
4.48456e-06
7.3398e-06
2.67784e-06
4.20923e-06
2.87753e-06
3.33866e-06
9.30989e-07
4.20904e-06
2.87796e-06
3.3371e-06
9.30981e-07
3.16167e-06
2.07962e-06
9.54299e-07
6.96265e-07
3.95136e-06
1.13657e-06
6.68846e-07
3.16153e-06
2.07896e-06
9.54352e-07
6.96247e-07
3.95081e-06
1.13654e-06
6.68834e-07
6.1536e-06
6.44718e-06
6.44427e-06
5.5571e-06
3.42968e-06
2.59521e-06
1.838e-06
1.83786e-06
3.61672e-06
3.61597e-06
5.55801e-06
3.42944e-06
1.10379e-05
4.488e-06
7.33829e-06
2.67792e-06
1.10372e-05
4.48471e-06
2.67785e-06
7.33859e-06
4.20842e-06
2.8752e-06
3.33883e-06
9.30989e-07
3.16071e-06
2.07969e-06
9.54127e-07
6.96221e-07
3.95182e-06
1.13655e-06
6.68832e-07
4.2084e-06
2.87847e-06
3.33811e-06
9.31039e-07
3.16124e-06
2.0788e-06
6.96244e-07
9.54466e-07
1.13649e-06
3.95092e-06
6.68858e-07
2.57228e-06
2.98919e-06
2.60706e-06
2.60703e-06
2.5723e-06
2.98924e-06
2.60705e-06
2.60701e-06
2.57228e-06
2.98992e-06
2.60702e-06
2.60704e-06
8.93482e-07
1.41101e-06
5.91903e-07
5.91891e-07
9.94739e-07
9.94736e-07
5.53746e-07
8.93464e-07
1.41076e-06
5.91907e-07
5.91905e-07
9.94747e-07
9.94725e-07
5.53745e-07
8.93471e-07
1.41064e-06
5.91905e-07
5.91905e-07
9.9473e-07
9.94688e-07
5.53746e-07
8.93461e-07
1.41101e-06
5.91916e-07
5.91909e-07
9.94721e-07
9.94711e-07
5.53746e-07
1.10331e-05
4.48743e-06
2.67775e-06
7.33839e-06
3.16157e-06
2.07891e-06
9.54357e-07
6.96249e-07
3.94983e-06
1.13645e-06
6.68885e-07
4.20869e-06
2.87766e-06
3.33703e-06
9.31098e-07
3.16095e-06
2.07964e-06
6.96275e-07
9.54251e-07
1.13648e-06
3.95153e-06
6.68918e-07
4.20865e-06
2.87589e-06
3.33891e-06
9.31152e-07
6.15319e-06
6.44641e-06
6.44472e-06
5.55952e-06
3.43056e-06
2.59498e-06
1.83823e-06
1.83805e-06
3.61705e-06
3.61635e-06
5.56036e-06
3.43009e-06
1.10344e-05
4.48721e-06
2.67775e-06
7.33906e-06
3.16141e-06
2.07883e-06
6.96252e-07
9.54466e-07
1.13641e-06
3.95006e-06
6.68901e-07
3.1612e-06
2.07964e-06
6.96261e-07
9.54242e-07
1.13648e-06
3.95097e-06
6.68904e-07
4.20896e-06
2.87822e-06
3.33763e-06
9.31134e-07
4.20898e-06
2.87553e-06
3.33763e-06
9.31095e-07
2.59609e-06
1.8378e-06
1.83822e-06
3.61696e-06
3.61629e-06
5.55802e-06
3.43061e-06
5.55868e-06
3.42937e-06
3.6619e-06
3.11758e-06
3.66192e-06
3.11777e-06
1.06459e-06
1.0647e-06
5.37453e-07
1.0033e-06
1.00331e-06
3.09502e-06
3.18002e-06
3.09514e-06
3.1801e-06
5.30741e-07
9.88912e-07
9.88903e-07
9.54544e-07
9.54603e-07
8.21457e-07
2.39969e-06
7.81046e-07
2.25632e-06
5.60387e-07
7.71768e-07
5.52465e-07
5.08559e-07
5.75187e-07
8.31104e-07
4.9764e-07
5.6039e-07
7.71821e-07
5.52454e-07
5.08549e-07
5.75184e-07
8.3116e-07
4.97637e-07
7.64101e-07
2.25258e-06
2.2887e-06
8.04713e-07
7.64103e-07
2.2526e-06
2.28874e-06
8.04713e-07
5.46069e-07
4.92337e-07
8.10105e-07
4.85337e-07
7.46537e-07
4.87736e-07
5.55618e-07
5.4607e-07
4.92336e-07
8.10176e-07
4.85336e-07
7.4657e-07
4.87738e-07
5.55618e-07
1.06478e-06
1.06464e-06
5.37451e-07
1.00325e-06
1.00323e-06
3.66169e-06
3.11764e-06
3.09508e-06
3.18007e-06
5.30744e-07
9.88909e-07
9.88909e-07
9.54588e-07
9.54495e-07
3.095e-06
3.18006e-06
5.60407e-07
7.71802e-07
5.5247e-07
5.08551e-07
5.7519e-07
8.31165e-07
4.97636e-07
8.21531e-07
2.39988e-06
7.81076e-07
2.25644e-06
5.60409e-07
5.5248e-07
7.71853e-07
5.08559e-07
5.75196e-07
4.97639e-07
8.31213e-07
7.64127e-07
2.25268e-06
2.28884e-06
8.04756e-07
5.4608e-07
4.92331e-07
8.10155e-07
4.85336e-07
7.46573e-07
4.87736e-07
5.55631e-07
7.64135e-07
2.25276e-06
2.28892e-06
8.04753e-07
5.46085e-07
4.9234e-07
4.85337e-07
8.10227e-07
4.87738e-07
7.46609e-07
5.55632e-07
8.21426e-07
2.39969e-06
7.81047e-07
2.25636e-06
5.60399e-07
5.52482e-07
7.7179e-07
5.08567e-07
5.75195e-07
4.97642e-07
8.31094e-07
8.21452e-07
2.39964e-06
7.81057e-07
2.25639e-06
5.46069e-07
4.92331e-07
8.10112e-07
4.85335e-07
7.4651e-07
4.87738e-07
5.55617e-07
7.64096e-07
2.25261e-06
2.28875e-06
8.04712e-07
5.46075e-07
4.92338e-07
4.85336e-07
8.10153e-07
4.87738e-07
7.46545e-07
5.55621e-07
7.64104e-07
2.25267e-06
2.28881e-06
8.04738e-07
1.06483e-06
1.06465e-06
5.37466e-07
1.0033e-06
1.00326e-06
3.66181e-06
3.11768e-06
3.09518e-06
3.18021e-06
5.30751e-07
9.8897e-07
9.88956e-07
9.54647e-07
9.54539e-07
3.09508e-06
3.18014e-06
5.60408e-07
5.52489e-07
7.71823e-07
5.08557e-07
5.75199e-07
4.97635e-07
8.31132e-07
8.21454e-07
2.39977e-06
7.81066e-07
2.25642e-06
8.21471e-07
2.39974e-06
7.81058e-07
2.25638e-06
5.46079e-07
4.92336e-07
4.85337e-07
8.10139e-07
4.87738e-07
7.46538e-07
5.55625e-07
5.46081e-07
4.92334e-07
4.85336e-07
8.10181e-07
4.87738e-07
7.46569e-07
5.55628e-07
7.64114e-07
2.25272e-06
2.28882e-06
8.04724e-07
7.64116e-07
2.25269e-06
2.28885e-06
8.04755e-07
3.6619e-06
3.11776e-06
3.662e-06
3.11785e-06
5.30759e-07
9.88927e-07
9.88908e-07
9.54534e-07
9.54585e-07
3.09505e-06
3.18017e-06
3.09513e-06
3.18013e-06
3.14108e-06
3.09138e-06
3.14119e-06
3.09151e-06
9.52356e-07
9.52426e-07
5.24563e-07
9.85702e-07
9.85711e-07
3.09094e-06
3.13271e-06
3.09106e-06
3.13284e-06
5.24201e-07
9.84688e-07
9.8471e-07
9.52497e-07
9.52572e-07
8.01046e-07
2.28018e-06
7.62453e-07
2.25161e-06
5.54902e-07
7.44188e-07
4.85073e-07
4.89938e-07
5.45457e-07
8.05964e-07
4.84875e-07
5.54901e-07
7.44229e-07
4.85073e-07
4.89935e-07
5.45456e-07
8.06042e-07
4.84875e-07
7.62162e-07
2.25125e-06
2.27854e-06
7.99929e-07
7.62157e-07
2.25125e-06
2.2786e-06
7.99906e-07
5.45401e-07
4.89977e-07
8.04727e-07
4.84861e-07
7.43913e-07
4.8489e-07
5.54676e-07
5.45398e-07
4.89975e-07
8.04788e-07
4.84861e-07
7.43955e-07
4.8489e-07
5.54673e-07
9.5243e-07
9.52331e-07
5.24551e-07
9.85711e-07
9.85624e-07
3.14106e-06
3.09139e-06
3.09099e-06
3.13277e-06
5.24202e-07
9.84691e-07
9.84637e-07
9.52576e-07
9.5245e-07
3.09093e-06
3.13272e-06
5.54913e-07
7.44225e-07
4.85073e-07
4.89935e-07
5.45467e-07
8.06026e-07
4.84875e-07
8.01033e-07
2.28036e-06
7.62475e-07
2.25179e-06
5.54912e-07
4.85074e-07
7.44272e-07
4.89938e-07
5.45469e-07
4.84875e-07
8.06082e-07
7.62175e-07
2.25134e-06
2.2787e-06
7.99938e-07
5.45406e-07
4.89969e-07
8.0479e-07
4.8486e-07
7.43958e-07
4.8489e-07
5.54687e-07
7.62174e-07
2.25144e-06
2.27879e-06
7.99928e-07
5.45407e-07
4.8998e-07
4.84861e-07
8.04824e-07
4.8489e-07
7.43994e-07
5.54686e-07
8.01097e-07
2.28015e-06
7.62458e-07
2.25159e-06
5.54908e-07
4.85073e-07
7.44209e-07
4.89943e-07
5.45461e-07
4.84875e-07
8.0601e-07
8.01075e-07
2.28024e-06
7.62464e-07
2.25171e-06
5.45406e-07
4.89969e-07
8.04699e-07
4.84861e-07
7.43887e-07
4.8489e-07
5.54674e-07
7.62176e-07
2.25126e-06
2.27856e-06
7.99908e-07
5.45406e-07
4.89973e-07
4.84861e-07
8.04763e-07
4.8489e-07
7.43936e-07
5.54674e-07
7.62173e-07
2.25136e-06
2.27866e-06
7.99909e-07
9.52496e-07
9.52374e-07
5.24573e-07
9.85776e-07
9.85678e-07
3.14112e-06
3.09147e-06
3.09111e-06
3.13288e-06
5.24215e-07
9.84745e-07
9.84708e-07
9.52641e-07
9.52491e-07
3.091e-06
3.13281e-06
5.54915e-07
4.85073e-07
7.44231e-07
4.89939e-07
5.45466e-07
4.84876e-07
8.06064e-07
8.01075e-07
2.28024e-06
7.62468e-07
2.2517e-06
8.01074e-07
2.2803e-06
7.62473e-07
2.25172e-06
5.45412e-07
4.89976e-07
4.84861e-07
8.04748e-07
4.8489e-07
7.43918e-07
5.54687e-07
5.45409e-07
4.89972e-07
4.84862e-07
8.04819e-07
4.8489e-07
7.43968e-07
5.54685e-07
7.62183e-07
2.25135e-06
2.27866e-06
7.99928e-07
7.62179e-07
2.25137e-06
2.27873e-06
7.99921e-07
3.14117e-06
3.09146e-06
3.14125e-06
3.09153e-06
5.24215e-07
9.84728e-07
9.84752e-07
9.52518e-07
9.52587e-07
3.091e-06
3.13283e-06
3.09106e-06
3.13289e-06
3.13109e-06
3.09096e-06
3.13122e-06
3.09107e-06
9.52697e-07
9.52773e-07
5.24468e-07
9.84406e-07
9.84441e-07
3.09097e-06
3.13069e-06
3.0911e-06
3.1308e-06
5.24098e-07
9.84195e-07
9.8422e-07
9.5282e-07
9.52902e-07
7.99563e-07
2.2782e-06
7.62129e-07
2.25111e-06
5.54593e-07
7.43891e-07
4.84866e-07
4.89919e-07
5.45398e-07
8.04292e-07
4.84862e-07
5.5459e-07
7.4393e-07
4.84867e-07
4.89924e-07
5.45393e-07
8.04349e-07
4.84863e-07
7.62145e-07
2.25108e-06
2.27801e-06
7.99376e-07
7.62142e-07
2.25107e-06
2.27806e-06
7.99397e-07
5.45402e-07
4.89923e-07
8.04094e-07
4.84863e-07
7.43923e-07
4.84863e-07
5.54561e-07
5.45401e-07
4.89925e-07
8.04214e-07
4.84863e-07
7.43952e-07
4.84863e-07
5.54563e-07
9.52768e-07
9.52668e-07
5.24457e-07
9.84372e-07
9.84343e-07
3.13106e-06
3.09096e-06
3.09104e-06
3.13084e-06
5.24084e-07
9.8425e-07
9.8422e-07
9.52863e-07
9.52767e-07
3.09099e-06
3.13075e-06
5.54603e-07
7.43934e-07
4.84866e-07
4.89917e-07
5.45402e-07
8.0436e-07
4.84862e-07
7.9958e-07
2.2784e-06
7.62148e-07
2.25132e-06
5.54602e-07
4.84866e-07
7.43967e-07
4.89924e-07
5.45403e-07
4.84863e-07
8.04411e-07
7.62159e-07
2.25118e-06
2.27815e-06
7.99372e-07
5.45409e-07
4.89919e-07
8.04155e-07
4.84863e-07
7.43964e-07
4.84863e-07
5.5457e-07
7.62157e-07
2.25128e-06
2.27825e-06
7.99385e-07
5.4541e-07
4.89924e-07
4.84863e-07
8.04247e-07
4.84863e-07
7.44e-07
5.54572e-07
7.99506e-07
2.27816e-06
7.62131e-07
2.25114e-06
5.5459e-07
4.84867e-07
7.43914e-07
4.89926e-07
5.454e-07
4.84863e-07
8.0431e-07
7.99502e-07
2.27826e-06
7.62134e-07
2.25124e-06
5.45393e-07
4.89919e-07
8.04123e-07
4.84863e-07
7.43887e-07
4.84863e-07
5.54566e-07
7.62133e-07
2.25109e-06
2.27805e-06
7.99427e-07
5.45394e-07
4.89923e-07
4.84863e-07
8.04162e-07
4.84864e-07
7.43926e-07
5.54569e-07
7.62133e-07
2.25119e-06
2.27813e-06
7.99446e-07
9.52826e-07
9.52702e-07
5.24479e-07
9.8447e-07
9.8443e-07
3.13117e-06
3.09103e-06
3.09117e-06
3.13091e-06
5.24111e-07
9.84318e-07
9.84287e-07
9.52945e-07
9.52814e-07
3.09105e-06
3.13082e-06
5.54599e-07
4.84867e-07
7.43945e-07
4.89922e-07
5.45403e-07
4.84863e-07
8.04365e-07
7.99555e-07
2.27827e-06
7.62144e-07
2.25125e-06
7.99539e-07
2.27831e-06
7.62143e-07
2.25124e-06
5.45402e-07
4.89925e-07
4.84864e-07
8.04163e-07
4.84864e-07
7.43919e-07
5.54576e-07
5.45398e-07
4.89924e-07
4.84864e-07
8.04205e-07
4.84864e-07
7.43957e-07
5.54575e-07
7.62149e-07
2.25119e-06
2.27815e-06
7.9944e-07
7.62142e-07
2.25119e-06
2.27819e-06
7.99448e-07
3.13115e-06
3.09103e-06
3.13122e-06
3.09108e-06
5.24098e-07
9.8425e-07
9.84249e-07
9.528e-07
9.52871e-07
3.09107e-06
3.13085e-06
3.09114e-06
3.13091e-06
3.13066e-06
3.09097e-06
3.13079e-06
3.09109e-06
9.52811e-07
9.5289e-07
5.24466e-07
9.84187e-07
9.84228e-07
3.09096e-06
3.1306e-06
3.09109e-06
3.13072e-06
5.24103e-07
9.84145e-07
9.84167e-07
9.52835e-07
9.52923e-07
7.99345e-07
2.27802e-06
7.62137e-07
2.25105e-06
5.54559e-07
7.43919e-07
4.84863e-07
4.89918e-07
5.45402e-07
8.04093e-07
4.84863e-07
5.54558e-07
7.43965e-07
4.84863e-07
4.89922e-07
5.45401e-07
8.04157e-07
4.84863e-07
7.62143e-07
2.25106e-06
2.27794e-06
7.99282e-07
7.62143e-07
2.25106e-06
2.278e-06
7.99295e-07
5.45409e-07
4.89923e-07
8.04056e-07
4.84863e-07
7.43933e-07
4.84863e-07
5.54555e-07
5.45407e-07
4.89923e-07
8.04116e-07
4.84863e-07
7.43972e-07
4.84863e-07
5.54555e-07
9.52888e-07
9.52783e-07
5.24453e-07
9.84221e-07
9.84186e-07
3.13072e-06
3.09096e-06
3.09104e-06
3.1307e-06
5.24085e-07
9.84164e-07
9.84083e-07
9.52911e-07
9.52811e-07
3.09096e-06
3.13061e-06
5.54565e-07
7.43957e-07
4.84863e-07
4.89921e-07
5.45404e-07
8.04157e-07
4.84863e-07
7.9936e-07
2.27822e-06
7.62149e-07
2.25126e-06
5.54567e-07
4.84863e-07
7.44003e-07
4.89922e-07
5.45407e-07
4.84863e-07
8.04205e-07
7.62154e-07
2.25117e-06
2.2781e-06
7.99318e-07
5.45411e-07
4.89919e-07
8.04114e-07
4.84863e-07
7.43972e-07
4.84863e-07
5.54567e-07
7.62158e-07
2.25126e-06
2.2782e-06
7.99329e-07
5.45414e-07
4.89923e-07
4.84863e-07
8.04171e-07
4.84863e-07
7.44014e-07
5.54569e-07
7.99409e-07
2.278e-06
7.62145e-07
2.25105e-06
5.5456e-07
4.84863e-07
7.43934e-07
4.89924e-07
5.454e-07
4.84863e-07
8.04166e-07
7.99417e-07
2.27812e-06
7.62149e-07
2.25117e-06
5.45409e-07
4.89918e-07
8.0402e-07
4.84863e-07
7.4391e-07
4.84863e-07
5.54559e-07
7.62153e-07
2.25106e-06
2.27795e-06
7.99316e-07
5.45411e-07
4.8992e-07
4.84863e-07
8.04075e-07
4.84863e-07
7.43957e-07
5.5456e-07
7.62156e-07
2.25117e-06
2.27806e-06
7.99327e-07
9.52957e-07
9.52828e-07
5.24474e-07
9.843e-07
9.84248e-07
3.13078e-06
3.09103e-06
3.09117e-06
3.13081e-06
5.24112e-07
9.84261e-07
9.84168e-07
9.52983e-07
9.52851e-07
3.09104e-06
3.13068e-06
5.54569e-07
4.84863e-07
7.43965e-07
4.89921e-07
5.45406e-07
4.84863e-07
8.04217e-07
7.99404e-07
2.2781e-06
7.62157e-07
2.25117e-06
7.9942e-07
2.27817e-06
7.62158e-07
2.25117e-06
5.45414e-07
4.89924e-07
4.84864e-07
8.0405e-07
4.84863e-07
7.43934e-07
5.54565e-07
5.45414e-07
4.89923e-07
4.84863e-07
8.04117e-07
4.84863e-07
7.43988e-07
5.54565e-07
7.6216e-07
2.25118e-06
2.27807e-06
7.99324e-07
7.62162e-07
2.25118e-06
2.27812e-06
7.99343e-07
3.13086e-06
3.09105e-06
3.13093e-06
3.09111e-06
5.24103e-07
9.84177e-07
9.84188e-07
9.52867e-07
9.52937e-07
3.09104e-06
3.13072e-06
3.09113e-06
3.13077e-06
3.13061e-06
3.09095e-06
3.13074e-06
3.09108e-06
9.52824e-07
9.52903e-07
5.24464e-07
9.84135e-07
9.8416e-07
3.09098e-06
3.13063e-06
3.0911e-06
3.13075e-06
5.24104e-07
9.84177e-07
9.84187e-07
9.52814e-07
9.52897e-07
7.9932e-07
2.278e-06
7.62133e-07
2.25106e-06
5.54556e-07
7.43926e-07
4.84863e-07
4.8992e-07
5.45404e-07
8.04053e-07
4.84863e-07
5.54556e-07
7.43968e-07
4.84863e-07
4.89921e-07
5.45403e-07
8.04122e-07
4.84863e-07
7.62134e-07
2.25107e-06
2.27794e-06
7.99269e-07
7.62132e-07
2.25106e-06
2.278e-06
7.99282e-07
5.45403e-07
4.89924e-07
8.04069e-07
4.84863e-07
7.43917e-07
4.84863e-07
5.54546e-07
5.45402e-07
4.89922e-07
8.04131e-07
4.84863e-07
7.4397e-07
4.84863e-07
5.54547e-07
9.52902e-07
9.52781e-07
5.24451e-07
9.84165e-07
9.84077e-07
3.13064e-06
3.09096e-06
3.09106e-06
3.13071e-06
5.24086e-07
9.84201e-07
9.84114e-07
9.52901e-07
9.52782e-07
3.09096e-06
3.13065e-06
5.54566e-07
7.43965e-07
4.84863e-07
4.89916e-07
5.45411e-07
8.04113e-07
4.84863e-07
7.99337e-07
2.27819e-06
7.62155e-07
2.25126e-06
5.54567e-07
4.84863e-07
7.44012e-07
4.89922e-07
5.45415e-07
4.84863e-07
8.0416e-07
7.62147e-07
2.25116e-06
2.2781e-06
7.99287e-07
5.45407e-07
4.89918e-07
8.04133e-07
4.84863e-07
7.43959e-07
4.84863e-07
5.54555e-07
7.62147e-07
2.25127e-06
2.27819e-06
7.99279e-07
5.45409e-07
4.89922e-07
4.84864e-07
8.04176e-07
4.84863e-07
7.44007e-07
5.54556e-07
7.99335e-07
2.27796e-06
7.62142e-07
2.25105e-06
5.5456e-07
4.84863e-07
7.43939e-07
4.89923e-07
5.45408e-07
4.84863e-07
8.0408e-07
7.99341e-07
2.27808e-06
7.62142e-07
2.25117e-06
5.45405e-07
4.89916e-07
8.04041e-07
4.84863e-07
7.439e-07
4.84863e-07
5.54552e-07
7.6214e-07
2.25106e-06
2.27795e-06
7.9929e-07
5.45406e-07
4.8992e-07
4.84863e-07
8.04087e-07
4.84863e-07
7.43945e-07
5.54552e-07
7.62141e-07
2.25117e-06
2.27808e-06
7.99298e-07
9.5298e-07
9.52831e-07
5.24477e-07
9.84223e-07
9.84145e-07
3.1307e-06
3.09103e-06
3.09118e-06
3.13081e-06
5.24114e-07
9.84264e-07
9.84151e-07
9.52968e-07
9.52824e-07
3.09105e-06
3.13071e-06
5.5457e-07
4.84863e-07
7.43971e-07
4.8992e-07
5.45412e-07
4.84863e-07
8.04145e-07
7.99351e-07
2.27807e-06
7.62152e-07
2.25116e-06
7.99372e-07
2.27814e-06
7.62152e-07
2.25118e-06
5.45412e-07
4.89922e-07
4.84864e-07
8.04066e-07
4.84864e-07
7.43927e-07
5.5456e-07
5.45412e-07
4.89918e-07
4.84863e-07
8.0415e-07
4.84863e-07
7.4398e-07
5.54562e-07
7.62149e-07
2.25118e-06
2.27806e-06
7.99289e-07
7.62152e-07
2.25118e-06
2.27813e-06
7.99324e-07
3.13074e-06
3.09106e-06
3.13081e-06
3.09113e-06
5.24103e-07
9.84204e-07
9.84224e-07
9.52849e-07
9.52922e-07
3.09106e-06
3.13071e-06
3.09112e-06
3.13079e-06
3.13071e-06
3.091e-06
3.13085e-06
3.09112e-06
9.5281e-07
9.52883e-07
5.2445e-07
9.84274e-07
9.84288e-07
3.09099e-06
3.13074e-06
3.0911e-06
3.13087e-06
5.2409e-07
9.84285e-07
9.84297e-07
9.52823e-07
9.52897e-07
7.99378e-07
2.27803e-06
7.62124e-07
2.25105e-06
5.54546e-07
7.43911e-07
4.84864e-07
4.8992e-07
5.45387e-07
8.04111e-07
4.84863e-07
5.54549e-07
7.43966e-07
4.84863e-07
4.89921e-07
5.45388e-07
8.04172e-07
4.84863e-07
7.62131e-07
2.25105e-06
2.278e-06
7.99449e-07
7.62134e-07
2.25105e-06
2.27803e-06
7.99438e-07
5.4538e-07
4.89922e-07
8.04118e-07
4.84863e-07
7.43915e-07
4.84863e-07
5.54547e-07
5.45382e-07
4.89921e-07
8.04168e-07
4.84863e-07
7.43964e-07
4.84863e-07
5.54545e-07
9.52896e-07
9.52781e-07
5.24441e-07
9.8424e-07
9.84131e-07
3.13066e-06
3.09098e-06
3.09108e-06
3.13081e-06
5.24075e-07
9.84272e-07
9.84206e-07
9.52889e-07
9.52768e-07
3.091e-06
3.13072e-06
5.54557e-07
7.43955e-07
4.84863e-07
4.89915e-07
5.45388e-07
8.04187e-07
4.84863e-07
7.99422e-07
2.27823e-06
7.62133e-07
2.25125e-06
5.5456e-07
4.84864e-07
7.43997e-07
4.89921e-07
5.45389e-07
4.84863e-07
8.0423e-07
7.62156e-07
2.25114e-06
2.27815e-06
7.99487e-07
5.45388e-07
4.89916e-07
8.04176e-07
4.84863e-07
7.4396e-07
4.84863e-07
5.54556e-07
7.62158e-07
2.25124e-06
2.27822e-06
7.99476e-07
5.45391e-07
4.89921e-07
4.84863e-07
8.04221e-07
4.84863e-07
7.44002e-07
5.54557e-07
7.9934e-07
2.27796e-06
7.62133e-07
2.25107e-06
5.54553e-07
4.84863e-07
7.43944e-07
4.89922e-07
5.45399e-07
4.84863e-07
8.04091e-07
7.99335e-07
2.27807e-06
7.62135e-07
2.25117e-06
5.45388e-07
4.89915e-07
8.04079e-07
4.84863e-07
7.43889e-07
4.84863e-07
5.54547e-07
7.62131e-07
2.25107e-06
2.27799e-06
7.99399e-07
5.4539e-07
4.8992e-07
4.84863e-07
8.04087e-07
4.84863e-07
7.43934e-07
5.54546e-07
7.62132e-07
2.25117e-06
2.27809e-06
7.99395e-07
9.52956e-07
9.528e-07
5.2446e-07
9.84324e-07
9.84217e-07
3.13079e-06
3.09105e-06
3.09117e-06
3.13093e-06
5.24098e-07
9.84341e-07
9.84268e-07
9.52955e-07
9.52808e-07
3.09106e-06
3.13082e-06
5.5456e-07
4.84863e-07
7.43977e-07
4.89919e-07
5.45402e-07
4.84864e-07
8.04155e-07
7.99371e-07
2.27808e-06
7.62142e-07
2.25116e-06
7.99379e-07
2.27813e-06
7.62145e-07
2.25117e-06
5.45395e-07
4.8992e-07
4.84863e-07
8.04116e-07
4.84864e-07
7.43919e-07
5.54559e-07
5.45394e-07
4.89917e-07
4.84863e-07
8.04151e-07
4.84863e-07
7.43967e-07
5.54558e-07
7.62146e-07
2.25116e-06
2.2781e-06
7.9944e-07
7.62147e-07
2.25116e-06
2.27815e-06
7.99449e-07
3.13074e-06
3.09106e-06
3.13082e-06
3.09112e-06
5.24094e-07
9.84228e-07
9.84237e-07
9.5283e-07
9.52896e-07
3.09108e-06
3.13077e-06
3.09114e-06
3.13085e-06
3.13074e-06
3.09098e-06
3.13085e-06
3.09111e-06
9.52823e-07
9.52903e-07
5.24452e-07
9.84288e-07
9.84297e-07
3.09097e-06
3.13066e-06
3.0911e-06
3.13078e-06
5.24091e-07
9.84218e-07
9.84228e-07
9.52851e-07
9.5293e-07
7.99422e-07
2.27804e-06
7.62145e-07
2.25105e-06
5.54545e-07
7.4392e-07
4.84863e-07
4.89921e-07
5.4539e-07
8.04108e-07
4.84863e-07
5.54543e-07
7.43962e-07
4.84863e-07
4.89922e-07
5.45387e-07
8.04158e-07
4.84863e-07
7.62151e-07
2.25106e-06
2.27798e-06
7.99361e-07
7.62147e-07
2.25104e-06
2.27804e-06
7.99391e-07
5.45397e-07
4.89921e-07
8.0408e-07
4.84863e-07
7.43931e-07
4.84863e-07
5.54552e-07
5.45394e-07
4.89922e-07
8.0415e-07
4.84862e-07
7.43967e-07
4.84863e-07
5.54554e-07
9.52896e-07
9.52782e-07
5.24436e-07
9.84287e-07
9.84275e-07
3.13075e-06
3.09101e-06
3.09106e-06
3.13079e-06
5.24072e-07
9.84251e-07
9.84223e-07
9.52907e-07
9.52818e-07
3.09098e-06
3.13069e-06
5.54558e-07
7.43962e-07
4.84863e-07
4.89917e-07
5.45398e-07
8.0416e-07
4.84863e-07
7.99456e-07
2.27823e-06
7.62166e-07
2.25124e-06
5.54558e-07
4.84863e-07
7.44001e-07
4.89924e-07
5.45399e-07
4.84863e-07
8.04199e-07
7.62167e-07
2.25115e-06
2.27813e-06
7.99367e-07
5.45406e-07
4.89916e-07
8.04135e-07
4.84863e-07
7.43973e-07
4.84863e-07
5.54561e-07
7.62165e-07
2.25125e-06
2.27822e-06
7.99373e-07
5.45406e-07
4.89928e-07
4.84863e-07
8.04197e-07
4.84863e-07
7.44001e-07
5.54562e-07
7.99442e-07
2.27801e-06
7.6214e-07
2.25107e-06
5.54549e-07
4.84864e-07
7.43926e-07
4.89923e-07
5.45388e-07
4.84863e-07
8.04141e-07
7.99436e-07
2.27812e-06
7.6214e-07
2.25117e-06
5.45395e-07
4.89915e-07
8.04082e-07
4.84863e-07
7.43909e-07
4.84863e-07
5.54557e-07
7.62153e-07
2.25106e-06
2.27801e-06
7.99412e-07
5.45396e-07
4.89919e-07
4.84863e-07
8.04121e-07
4.84863e-07
7.43943e-07
5.54557e-07
7.62152e-07
2.25117e-06
2.27811e-06
7.9941e-07
9.52966e-07
9.52824e-07
5.24458e-07
9.84318e-07
9.84313e-07
3.13081e-06
3.09107e-06
3.09119e-06
3.13089e-06
5.24095e-07
9.84312e-07
9.84281e-07
9.52966e-07
9.52849e-07
3.09106e-06
3.13078e-06
5.54555e-07
4.84863e-07
7.43961e-07
4.89913e-07
5.45397e-07
4.84863e-07
8.04196e-07
7.99437e-07
2.27811e-06
7.62157e-07
2.25117e-06
7.9944e-07
2.27816e-06