/*--------------------------------*- C++ -*----------------------------------*\
| =========                 |                                                 |
| \\      /  F ield         | OpenFOAM: The Open Source CFD Toolbox           |
|  \\    /   O peration     | Version:  2206                                  |
|   \\  /    A nd           | Website:  www.openfoam.com                      |
|    \\/     M anipulation  |                                                 |
\*---------------------------------------------------------------------------*/
FoamFile
{
    version     2.0;
    format      ascii;
    arch        "LSB;label=32;scalar=64";
    class       volVectorField;
    location    "4";
    object      U;
}
// * * * * * * * * * * * * * * * * * * * * * * * * * * * * * * * * * * * * * //

dimensions      [0 1 -1 0 0 0 0];

internalField   nonuniform List<vector> 
28688
(
(0.000111293 0.000111191 0.100307)
(-0.000196673 0.000123555 0.100393)
(0.000123624 -0.00019666 0.100393)
(-0.000236914 -0.000236914 0.100397)
(1.82493e-05 1.82098e-05 0.100596)
(-1.8252e-05 1.11423e-05 0.100613)
(1.1186e-05 -1.82654e-05 0.100613)
(-4.93937e-05 -4.94187e-05 0.10062)
(1.13122e-06 1.12618e-06 0.100612)
(-1.34087e-06 8.87983e-07 0.100614)
(8.95893e-07 -1.34357e-06 0.100614)
(-3.23746e-05 -3.23998e-05 0.100614)
(-1.22978e-07 -1.24463e-07 0.100613)
(-2.11339e-07 3.02185e-07 0.100613)
(3.01993e-07 -2.06973e-07 0.100613)
(-3.16988e-05 -3.1714e-05 0.100614)
(-2.0529e-07 -2.01677e-07 0.100613)
(-1.4807e-07 2.82483e-07 0.100613)
(2.75448e-07 -1.48664e-07 0.100613)
(-3.16709e-05 -3.16845e-05 0.100614)
(-2.10992e-07 -2.04726e-07 0.100613)
(-1.43959e-07 2.86852e-07 0.100613)
(2.72573e-07 -1.43857e-07 0.100613)
(-3.16689e-05 -3.16819e-05 0.100614)
(-2.08392e-07 -2.05911e-07 0.100613)
(-1.41551e-07 2.75227e-07 0.100613)
(2.72149e-07 -1.42885e-07 0.100613)
(-3.16672e-05 -3.16814e-05 0.100614)
(-2.06695e-07 -2.06705e-07 0.100613)
(-1.42741e-07 2.74542e-07 0.100613)
(2.73158e-07 -1.43835e-07 0.100613)
(-3.16672e-05 -3.16827e-05 0.100614)
(-2.0814e-07 -2.07536e-07 0.100613)
(-1.43141e-07 2.73952e-07 0.100613)
(2.72875e-07 -1.44169e-07 0.100613)
(-3.16678e-05 -3.16839e-05 0.100614)
(-2.07519e-07 -2.05792e-07 0.100613)
(-1.41781e-07 2.74447e-07 0.100613)
(2.73045e-07 -1.43311e-07 0.100613)
(-3.16666e-05 -3.16826e-05 0.100614)
(-2.03562e-07 -2.01394e-07 0.100613)
(-1.39192e-07 2.73518e-07 0.100613)
(2.71364e-07 -1.4101e-07 0.100613)
(-3.16651e-05 -3.16814e-05 0.100614)
(-2.09767e-07 -2.12544e-07 0.100613)
(-1.38601e-07 2.67063e-07 0.100613)
(2.70098e-07 -1.418e-07 0.100613)
(-3.1664e-05 -3.16808e-05 0.100614)
(0.000138994 0.000138986 0.100289)
(0.000125771 0.000155371 0.100229)
(-0.000125758 0.000155351 0.100229)
(-0.000138996 0.00013896 0.100289)
(0.000155384 0.00012573 0.100229)
(0.00015537 -0.000125742 0.100229)
(9.05057e-05 9.04691e-05 0.100145)
(-9.0495e-05 9.04637e-05 0.100145)
(9.04879e-05 -9.04996e-05 0.100145)
(-9.04859e-05 -9.04964e-05 0.100145)
(-0.000155376 0.000125721 0.100229)
(-0.000155376 -0.000125739 0.100229)
(0.000138978 -0.000139002 0.100289)
(0.000125733 -0.000155391 0.100229)
(-0.000125728 -0.000155373 0.100229)
(-0.00013899 -0.000138971 0.100289)
(0.000236932 0.000236936 0.100397)
(-4.70687e-06 -4.81297e-06 0.100622)
(0.00012368 0.000196533 0.100393)
(-0.000123626 0.000196581 0.100393)
(2.20082e-05 3.57128e-05 0.100609)
(-2.19924e-05 3.57214e-05 0.100609)
(-0.00023692 0.000236877 0.100397)
(4.73527e-06 -4.81276e-06 0.100622)
(0.000196725 0.000123571 0.100393)
(0.000196647 -0.000123624 0.100393)
(3.58133e-05 2.19609e-05 0.100609)
(3.57958e-05 -2.20141e-05 0.100609)
(-0.00019662 -0.00012362 0.100393)
(-3.57401e-05 2.19636e-05 0.100609)
(-3.57377e-05 -2.20083e-05 0.100609)
(0.000236904 -0.000236959 0.100397)
(-4.67628e-06 4.72943e-06 0.100622)
(-0.000123596 -0.000196691 0.100393)
(2.20233e-05 -3.5761e-05 0.100609)
(-2.20022e-05 -3.57701e-05 0.100609)
(4.72697e-06 4.72114e-06 0.100622)
(4.94255e-05 4.93425e-05 0.10062)
(-3.14314e-05 -3.14197e-05 0.100614)
(1.11891e-05 1.82445e-05 0.100613)
(-1.11719e-05 1.82602e-05 0.100613)
(1.57472e-06 2.52393e-06 0.100614)
(-1.5671e-06 2.52852e-06 0.100614)
(-4.93916e-05 4.93425e-05 0.10062)
(3.1444e-05 -3.14275e-05 0.100614)
(1.82979e-05 1.11526e-05 0.100613)
(1.82966e-05 -1.11938e-05 0.100613)
(2.53869e-06 1.56033e-06 0.100614)
(2.54015e-06 -1.56683e-06 0.100614)
(-1.8283e-05 -1.11819e-05 0.100613)
(-2.5305e-06 1.55728e-06 0.100614)
(-2.53412e-06 -1.57594e-06 0.100614)
(4.94213e-05 -4.9418e-05 0.10062)
(-3.14213e-05 3.14483e-05 0.100615)
(-1.11652e-05 -1.82704e-05 0.100613)
(1.56131e-06 -2.52683e-06 0.100614)
(-1.56479e-06 -2.52923e-06 0.100614)
(3.14269e-05 3.14415e-05 0.100614)
(3.2395e-05 3.23681e-05 0.100614)
(-3.24839e-05 -3.24647e-05 0.100614)
(9.0073e-07 1.33858e-06 0.100614)
(-9.00861e-07 1.34448e-06 0.100614)
(3.42591e-07 2.87753e-07 0.100613)
(-3.42802e-07 2.96414e-07 0.100613)
(-3.23927e-05 3.23637e-05 0.100614)
(3.24845e-05 -3.2464e-05 0.100614)
(1.34959e-06 8.85768e-07 0.100614)
(1.35043e-06 -8.95965e-07 0.100614)
(2.85359e-07 3.34886e-07 0.100613)
(2.91561e-07 -3.42194e-07 0.100613)
(-1.34176e-06 -8.92422e-07 0.100614)
(-2.89402e-07 3.36303e-07 0.100613)
(-2.94952e-07 -3.39915e-07 0.100613)
(3.23711e-05 -3.24006e-05 0.100614)
(-3.24604e-05 3.24917e-05 0.100614)
(-8.8725e-07 -1.34165e-06 0.100614)
(3.34458e-07 -2.8453e-07 0.100613)
(-3.33573e-07 -2.90458e-07 0.100613)
(3.24665e-05 3.24845e-05 0.100614)
(3.17069e-05 3.16889e-05 0.100614)
(-3.25302e-05 -3.25064e-05 0.100614)
(3.07265e-07 2.08392e-07 0.100613)
(-3.08501e-07 2.17723e-07 0.100613)
(2.80343e-07 1.56844e-07 0.100613)
(-2.8591e-07 1.62054e-07 0.100613)
(-3.17096e-05 3.16864e-05 0.100614)
(3.25292e-05 -3.2502e-05 0.100614)
(2.06508e-07 3.0231e-07 0.100613)
(2.10931e-07 -3.07625e-07 0.100613)
(1.49563e-07 2.78593e-07 0.100613)
(1.55499e-07 -2.8025e-07 0.100613)
(-2.15508e-07 -3.05389e-07 0.100613)
(-1.50502e-07 2.81383e-07 0.100613)
(-1.56401e-07 -2.789e-07 0.100613)
(3.16885e-05 -3.17194e-05 0.100614)
(-3.25056e-05 3.25371e-05 0.100614)
(-3.00353e-07 -2.10992e-07 0.100613)
(2.75225e-07 -1.49414e-07 0.100613)
(-2.75752e-07 -1.49745e-07 0.100613)
(3.25107e-05 3.25302e-05 0.100614)
(3.1677e-05 3.1663e-05 0.100614)
(-3.25353e-05 -3.25093e-05 0.100614)
(2.77112e-07 1.5325e-07 0.100613)
(-2.86117e-07 1.60442e-07 0.100613)
(2.75027e-07 1.53503e-07 0.100613)
(-2.86622e-07 1.61579e-07 0.100613)
(-3.16828e-05 3.16664e-05 0.100614)
(3.25312e-05 -3.24968e-05 0.100614)
(1.48251e-07 2.7738e-07 0.100613)
(1.52479e-07 -2.79977e-07 0.100613)
(1.43667e-07 2.76861e-07 0.100613)
(1.51091e-07 -2.77623e-07 0.100613)
(-1.53358e-07 -2.77251e-07 0.100613)
(-1.44127e-07 2.84717e-07 0.100613)
(-1.51226e-07 -2.75072e-07 0.100613)
(3.16594e-05 -3.16902e-05 0.100614)
(-3.2509e-05 3.25411e-05 0.100614)
(-2.75035e-07 -1.4674e-07 0.100613)
(2.73106e-07 -1.43488e-07 0.100613)
(-2.73846e-07 -1.43114e-07 0.100613)
(3.25139e-05 3.25344e-05 0.100614)
(3.16742e-05 3.16612e-05 0.100614)
(-3.25346e-05 -3.25085e-05 0.100614)
(2.74536e-07 1.52269e-07 0.100613)
(-2.91676e-07 1.67213e-07 0.100613)
(2.75592e-07 1.50836e-07 0.100613)
(-2.80435e-07 1.53658e-07 0.100613)
(-3.16839e-05 3.16777e-05 0.100614)
(3.25343e-05 -3.25066e-05 0.100614)
(1.43962e-07 2.76838e-07 0.100613)
(1.48322e-07 -2.76211e-07 0.100613)
(1.41911e-07 2.75738e-07 0.100613)
(1.4886e-07 -2.75446e-07 0.100613)
(-1.50067e-07 -2.73995e-07 0.100613)
(-1.41902e-07 2.77294e-07 0.100613)
(-1.492e-07 -2.7454e-07 0.100613)
(3.16577e-05 -3.16878e-05 0.100614)
(-3.25099e-05 3.25426e-05 0.100614)
(-2.72868e-07 -1.41868e-07 0.100613)
(2.71503e-07 -1.41332e-07 0.100613)
(-2.71793e-07 -1.41776e-07 0.100613)
(3.25153e-05 3.25347e-05 0.100614)
(3.16772e-05 3.16622e-05 0.100614)
(-3.25332e-05 -3.25023e-05 0.100614)
(2.81285e-07 1.52193e-07 0.100613)
(-2.7832e-07 1.52356e-07 0.100613)
(2.82987e-07 1.5218e-07 0.100613)
(-2.76125e-07 1.52049e-07 0.100613)
(-3.1677e-05 3.16595e-05 0.100614)
(3.25362e-05 -3.25107e-05 0.100614)
(1.43682e-07 2.78242e-07 0.100613)
(1.48304e-07 -2.75343e-07 0.100613)
(1.42466e-07 2.77863e-07 0.100613)
(1.49142e-07 -2.74674e-07 0.100613)
(-1.47948e-07 -2.74648e-07 0.100613)
(-1.41295e-07 2.74467e-07 0.100613)
(-1.4806e-07 -2.75612e-07 0.100613)
(3.16562e-05 -3.16858e-05 0.100614)
(-3.25098e-05 3.25428e-05 0.100614)
(-2.71539e-07 -1.41556e-07 0.100613)
(2.71676e-07 -1.41526e-07 0.100613)
(-2.71019e-07 -1.42129e-07 0.100613)
(3.25156e-05 3.25336e-05 0.100614)
(3.16763e-05 3.16585e-05 0.100614)
(-3.25333e-05 -3.25103e-05 0.100614)
(2.78787e-07 1.51137e-07 0.100613)
(-2.77316e-07 1.51294e-07 0.100613)
(2.79547e-07 1.49776e-07 0.100613)
(-2.78803e-07 1.51089e-07 0.100613)
(-3.16763e-05 3.16565e-05 0.100614)
(3.25347e-05 -3.25109e-05 0.100614)
(1.44106e-07 2.74823e-07 0.100613)
(1.49353e-07 -2.75964e-07 0.100613)
(1.43765e-07 2.74165e-07 0.100613)
(1.50386e-07 -2.77255e-07 0.100613)
(-1.47769e-07 -2.75698e-07 0.100613)
(-1.43492e-07 2.75175e-07 0.100613)
(-1.491e-07 -2.77449e-07 0.100613)
(3.1657e-05 -3.16864e-05 0.100614)
(-3.25089e-05 3.25411e-05 0.100614)
(-2.7096e-07 -1.42347e-07 0.100613)
(2.72847e-07 -1.42469e-07 0.100613)
(-2.71956e-07 -1.43826e-07 0.100613)
(3.25154e-05 3.25326e-05 0.100614)
(3.1677e-05 3.16562e-05 0.100614)
(-3.25338e-05 -3.25107e-05 0.100614)
(2.79463e-07 1.49307e-07 0.100613)
(-2.782e-07 1.50163e-07 0.100613)
(2.80255e-07 1.49061e-07 0.100613)
(-2.77821e-07 1.4965e-07 0.100613)
(-3.16774e-05 3.16563e-05 0.100614)
(3.25388e-05 -3.25112e-05 0.100614)
(1.45908e-07 2.75201e-07 0.100613)
(1.48986e-07 -2.76926e-07 0.100613)
(1.43747e-07 2.75078e-07 0.100613)
(1.49489e-07 -2.75764e-07 0.100613)
(-1.47562e-07 -2.76374e-07 0.100613)
(-1.41342e-07 2.74906e-07 0.100613)
(-1.47664e-07 -2.76322e-07 0.100613)
(3.16578e-05 -3.16879e-05 0.100614)
(-3.25103e-05 3.25428e-05 0.100614)
(-2.7093e-07 -1.42876e-07 0.100613)
(2.71699e-07 -1.40768e-07 0.100613)
(-2.71001e-07 -1.42488e-07 0.100613)
(3.25164e-05 3.25337e-05 0.100614)
(3.16777e-05 3.16589e-05 0.100614)
(-3.25301e-05 -3.249e-05 0.100614)
(2.80604e-07 1.50062e-07 0.100613)
(-2.78608e-07 1.52585e-07 0.100613)
(2.94521e-07 1.67284e-07 0.100613)
(-2.77783e-07 1.49372e-07 0.100613)
(-3.16747e-05 3.16561e-05 0.100614)
(3.2545e-05 -3.25112e-05 0.100614)
(1.44852e-07 2.76203e-07 0.100613)
(1.48852e-07 -2.75944e-07 0.100613)
(1.42153e-07 2.84404e-07 0.100613)
(1.48571e-07 -2.73612e-07 0.100613)
(-1.47082e-07 -2.75253e-07 0.100613)
(-1.39926e-07 2.74951e-07 0.100613)
(-1.46338e-07 -2.75059e-07 0.100613)
(3.16569e-05 -3.16865e-05 0.100614)
(-3.25103e-05 3.25438e-05 0.100614)
(-2.70033e-07 -1.41482e-07 0.100613)
(2.71193e-07 -1.40411e-07 0.100613)
(-2.69506e-07 -1.4135e-07 0.100613)
(3.25173e-05 3.25345e-05 0.100614)
(3.16811e-05 3.16788e-05 0.100614)
(-3.25318e-05 -3.25113e-05 0.100614)
(2.85519e-07 1.54207e-07 0.100613)
(-2.76904e-07 1.52509e-07 0.100613)
(2.79567e-07 1.45817e-07 0.100613)
(-2.78069e-07 1.43247e-07 0.100613)
(-3.16734e-05 3.16549e-05 0.100614)
(3.25456e-05 -3.25151e-05 0.100614)
(1.42374e-07 2.7919e-07 0.100613)
(1.4768e-07 -2.73534e-07 0.100613)
(1.414e-07 2.71804e-07 0.100613)
(1.47837e-07 -2.7479e-07 0.100613)
(-1.4452e-07 -2.73643e-07 0.100613)
(-1.40413e-07 2.71042e-07 0.100613)
(-1.45321e-07 -2.7591e-07 0.100613)
(3.16561e-05 -3.16851e-05 0.100614)
(-3.25101e-05 3.25423e-05 0.100614)
(-2.67959e-07 -1.40006e-07 0.100613)
(2.70408e-07 -1.39712e-07 0.100613)
(-2.68884e-07 -1.41758e-07 0.100613)
(3.25169e-05 3.2533e-05 0.100614)
(3.16749e-05 3.16509e-05 0.100614)
(-3.25473e-05 -3.25236e-05 0.100614)
(2.78065e-07 1.43233e-07 0.100613)
(-2.75064e-07 1.45373e-07 0.100613)
(2.62519e-07 1.19637e-07 0.100613)
(-3.16706e-05 3.16486e-05 0.100614)
(1.42467e-07 2.70202e-07 0.100613)
(1.45004e-07 -2.73942e-07 0.100613)
(1.15091e-07 2.55835e-07 0.100613)
(1.2198e-07 -2.59041e-07 0.100613)
(-1.43816e-07 -2.74792e-07 0.100613)
(-1.22029e-07 -2.58212e-07 0.100613)
(3.16543e-05 -3.16844e-05 0.100614)
(-3.25253e-05 3.25565e-05 0.100614)
(-2.67433e-07 -1.39907e-07 0.100613)
(2.54123e-07 -1.15426e-07 0.100613)
(-2.52889e-07 -1.16715e-07 0.100613)
(3.25306e-05 3.25493e-05 0.100614)
(-4.51651e-07 -4.53243e-07 0.0999971)
(1.7542e-05 1.75363e-05 0.100002)
(-4.08128e-07 1.41321e-05 0.0999989)
(1.41379e-05 -4.08975e-07 0.0999989)
(-4.83044e-05 5.81182e-06 0.100008)
(-1.75027e-05 1.66335e-05 0.0999992)
(-0.000128589 6.08517e-05 0.100056)
(-1.37533e-05 -5.18907e-07 0.0999948)
(5.8054e-06 -4.82908e-05 0.100008)
(1.66393e-05 -1.75033e-05 0.0999992)
(-5.18047e-07 -1.37534e-05 0.0999948)
(6.08642e-05 -0.000128518 0.100056)
(-2.21071e-05 -2.21111e-05 0.100003)
(-0.000135503 -8.18049e-05 0.100053)
(-8.18115e-05 -0.000135484 0.100053)
(-4.02249e-05 1.82155e-05 0.10065)
(0.000153361 0.000400969 0.0994553)
(1.69388e-06 0.000317364 0.100535)
(-5.49296e-05 0.000153808 0.0993138)
(-0.000309813 0.000822218 0.0977406)
(-9.64242e-05 0.000160021 0.0962164)
(1.80244e-05 -4.03236e-05 0.10065)
(0.000401547 0.000152267 0.0994561)
(0.000318086 1.54937e-06 0.100535)
(0.000154078 -5.4985e-05 0.099314)
(-0.000111261 0.000111193 0.100307)
(0.000111259 -0.000111264 0.100307)
(-0.000111234 -0.000111276 0.100307)
(3.22026e-05 3.21462e-05 0.10058)
(-3.21764e-05 3.21515e-05 0.10058)
(3.22009e-05 -3.21868e-05 0.10058)
(-3.21826e-05 -3.21966e-05 0.10058)
(-0.000148904 -1.87244e-06 0.100672)
(-0.000396905 0.000241125 0.100539)
(-0.000179965 3.74908e-05 0.100342)
(-9.86595e-05 6.13016e-05 0.100542)
(-0.000365776 1.48581e-05 0.10049)
(-4.40781e-07 9.18284e-05 0.100622)
(-0.000110709 2.62588e-05 0.100498)
(0.000821059 -0.000307992 0.0977398)
(0.000159778 -9.58182e-05 0.0962165)
(-1.8591e-06 -0.000148814 0.100672)
(3.75443e-05 -0.000179939 0.100342)
(0.00024125 -0.000396908 0.100539)
(6.13645e-05 -9.86522e-05 0.100542)
(1.48527e-05 -0.000365653 0.10049)
(2.63154e-05 -0.000110694 0.100498)
(9.19304e-05 -4.62624e-07 0.100622)
(-0.000382379 -0.00015223 0.10037)
(-0.000152364 -0.000382677 0.10037)
(-6.20771e-05 -6.21279e-05 0.100616)
(0.00010689 -1.28171e-06 0.100506)
(-1.37325e-06 0.000106843 0.100506)
(-2.39385e-07 -2.39223e-06 0.100493)
(-7.13048e-06 1.93174e-05 0.0992399)
(-3.59366e-06 5.03122e-06 0.100511)
(-8.18439e-07 -2.64888e-06 0.0992314)
(-1.11846e-05 4.83801e-06 0.0959138)
(-1.45413e-06 -1.60887e-06 0.0959127)
(-2.38496e-06 -2.57196e-07 0.100493)
(1.94307e-05 -7.08669e-06 0.09924)
(5.0531e-06 -3.57191e-06 0.100511)
(-2.65397e-06 -8.48364e-07 0.0992313)
(-1.82287e-05 1.82106e-05 0.100596)
(1.82527e-05 -1.8235e-05 0.100596)
(-1.82402e-05 -1.82421e-05 0.100596)
(2.42126e-06 2.41043e-06 0.100611)
(-2.415e-06 2.40632e-06 0.100611)
(2.4239e-06 -2.42271e-06 0.100611)
(-2.41613e-06 -2.42171e-06 0.100611)
(2.14707e-06 3.43517e-07 0.100606)
(-1.45446e-05 1.30695e-05 0.100542)
(-2.18122e-05 6.43064e-06 0.100603)
(-9.47175e-06 5.7054e-06 0.100614)
(-2.71257e-05 8.73324e-07 0.100614)
(2.49701e-06 3.33361e-07 0.100526)
(-1.10293e-05 3.30821e-06 0.100609)
(4.93562e-06 -1.12776e-05 0.0959135)
(-1.57477e-06 -1.43487e-06 0.0959126)
(3.56687e-07 2.1552e-06 0.100606)
(6.46759e-06 -2.17973e-05 0.100603)
(1.32254e-05 -1.45368e-05 0.100543)
(5.72678e-06 -9.45418e-06 0.100614)
(9.20063e-07 -2.7031e-05 0.100614)
(3.33279e-06 -1.10276e-05 0.100609)
(3.38053e-07 2.51169e-06 0.100526)
(3.35231e-06 -3.58111e-06 0.100381)
(-3.57239e-06 3.57112e-06 0.100381)
(2.72978e-05 2.73229e-05 0.100617)
(6.9421e-07 7.89331e-07 0.100354)
(7.95349e-07 6.70055e-07 0.100354)
(5.3776e-09 -3.82496e-06 0.100488)
(6.12427e-07 3.3467e-06 0.0992267)
(2.77561e-08 4.20576e-06 0.100488)
(-4.46474e-07 -3.41265e-06 0.0992266)
(-1.06713e-06 7.36123e-07 0.0959094)
(6.30504e-07 -8.67429e-07 0.0959092)
(-3.84646e-06 -3.161e-09 0.100488)
(3.35605e-06 5.8698e-07 0.0992266)
(4.22659e-06 2.85767e-08 0.100488)
(-3.42768e-06 -4.49558e-07 0.0992265)
(-1.13195e-06 1.12553e-06 0.100612)
(1.1365e-06 -1.13473e-06 0.100612)
(-1.13411e-06 -1.13657e-06 0.100612)
(-3.665e-08 -3.77211e-08 0.100613)
(4.13783e-08 -3.40982e-08 0.100613)
(-3.42886e-08 3.49603e-08 0.100613)
(3.89849e-08 3.05215e-08 0.100613)
(7.61288e-06 -2.36328e-08 0.100602)
(-6.94216e-06 2.30096e-06 0.100519)
(-1.41119e-06 3.01133e-07 0.100613)
(-7.43649e-07 5.60427e-07 0.100614)
(-8.91103e-06 9.01953e-08 0.100602)
(5.94381e-06 -1.97712e-06 0.100519)
(-7.68642e-07 9.18264e-08 0.100613)
(6.98843e-07 -1.04868e-06 0.0959087)
(-8.30377e-07 6.07922e-07 0.0959087)
(-1.22947e-08 7.61016e-06 0.100602)
(3.08457e-07 -1.41451e-06 0.100613)
(2.32178e-06 -6.95156e-06 0.100519)
(5.61407e-07 -7.42327e-07 0.100614)
(9.18332e-08 -8.9104e-06 0.100602)
(9.93341e-08 -7.65841e-07 0.100613)
(-1.99e-06 5.96094e-06 0.100519)
(-2.0816e-06 -2.57422e-06 0.100346)
(-2.56246e-06 -2.07599e-06 0.100346)
(3.2291e-05 3.23112e-05 0.100614)
(1.69816e-06 2.12381e-06 0.100346)
(2.12463e-06 1.69065e-06 0.100346)
(-7.65956e-09 -3.9285e-06 0.100488)
(4.88601e-07 3.44909e-06 0.0992259)
(6.03632e-09 3.90256e-06 0.100487)
(-4.97465e-07 -3.3886e-06 0.0992263)
(-8.06601e-07 8.47112e-07 0.0959086)
(7.28793e-07 -8.39599e-07 0.0959089)
(-3.94886e-06 -8.47026e-09 0.100488)
(3.4576e-06 4.81127e-07 0.0992258)
(3.92095e-06 1.08289e-08 0.100487)
(-3.40012e-06 -4.93641e-07 0.0992262)
(1.27505e-07 -1.198e-07 0.100613)
(-1.20202e-07 1.22848e-07 0.100613)
(1.25551e-07 1.18409e-07 0.100613)
(-1.99802e-07 -1.96662e-07 0.100613)
(1.97053e-07 -1.94633e-07 0.100613)
(-1.97961e-07 1.99344e-07 0.100613)
(1.97131e-07 1.98607e-07 0.100613)
(7.90336e-06 -3.80201e-08 0.100602)
(-6.34669e-06 2.04265e-06 0.100518)
(-2.42073e-07 -6.98945e-08 0.100613)
(-1.70769e-07 2.87875e-07 0.100613)
(-8.03004e-06 3.93544e-08 0.100602)
(6.15212e-06 -2.06311e-06 0.100518)
(-2.04258e-07 -7.92776e-08 0.100613)
(8.13132e-07 -7.87318e-07 0.0959079)
(-8.00211e-07 7.05008e-07 0.0959085)
(-3.21756e-08 7.90684e-06 0.100602)
(-7.03571e-08 -2.4151e-07 0.100613)
(2.05621e-06 -6.35907e-06 0.100518)
(2.85778e-07 -1.68394e-07 0.100613)
(3.40763e-08 -8.03244e-06 0.100602)
(-8.08305e-08 -2.02089e-07 0.100613)
(-2.07822e-06 6.16479e-06 0.100518)
(-1.81209e-06 -2.29834e-06 0.100345)
(-2.29178e-06 -1.80937e-06 0.100345)
(3.25029e-05 3.25219e-05 0.100614)
(1.77597e-06 2.22332e-06 0.100345)
(2.21645e-06 1.77319e-06 0.100345)
(-1.64094e-08 -3.93304e-06 0.100488)
(4.72316e-07 3.46157e-06 0.0992259)
(-1.08163e-09 3.88775e-06 0.100487)
(-5.10964e-07 -3.40283e-06 0.0992263)
(-8.19189e-07 8.7748e-07 0.0959085)
(5.79218e-07 -6.93953e-07 0.0959089)
(-3.95567e-06 -7.63139e-09 0.100488)
(3.45241e-06 4.69525e-07 0.0992258)
(3.9054e-06 1.07446e-08 0.100487)
(-3.39491e-06 -4.95862e-07 0.0992262)
(2.00605e-07 -1.97511e-07 0.100613)
(-2.03385e-07 2.04653e-07 0.100613)
(2.01652e-07 2.03804e-07 0.100613)
(-2.10933e-07 -2.03936e-07 0.100613)
(2.02511e-07 -1.98423e-07 0.100613)
(-2.07653e-07 2.09683e-07 0.100613)
(2.05099e-07 2.09548e-07 0.100613)
(7.9201e-06 -3.42196e-08 0.100602)
(-6.31217e-06 2.0342e-06 0.100518)
(-1.76866e-07 -7.96243e-08 0.100613)
(-1.45652e-07 2.85105e-07 0.100613)
(-7.98409e-06 4.09062e-08 0.100602)
(6.16698e-06 -2.06047e-06 0.100518)
(-1.74207e-07 -7.841e-08 0.100613)
(8.22e-07 -7.70724e-07 0.0959079)
(-7.97994e-07 7.11084e-07 0.0959085)
(-3.25546e-08 7.92364e-06 0.100602)
(-8.54513e-08 -1.75924e-07 0.100613)
(2.04149e-06 -6.32748e-06 0.100518)
(2.72495e-07 -1.44258e-07 0.100613)
(3.14259e-08 -7.98616e-06 0.100602)
(-8.59959e-08 -1.68853e-07 0.100613)
(-2.08314e-06 6.17602e-06 0.100518)
(-1.80178e-06 -2.2797e-06 0.100345)
(-2.27646e-06 -1.7965e-06 0.100345)
(3.25141e-05 3.25344e-05 0.100614)
(1.77963e-06 2.23132e-06 0.100345)
(2.22288e-06 1.77819e-06 0.100345)
(-2.00836e-08 -3.93442e-06 0.100488)
(4.8279e-07 3.47568e-06 0.0992259)
(-7.48312e-09 3.88692e-06 0.100487)
(-5.16614e-07 -3.41201e-06 0.0992263)
(-8.31338e-07 8.60413e-07 0.0959084)
(5.95518e-07 -7.15271e-07 0.0959091)
(-3.95724e-06 -7.21558e-09 0.100488)
(3.45069e-06 4.70396e-07 0.0992258)
(3.90357e-06 1.11468e-08 0.100487)
(-3.39681e-06 -4.94817e-07 0.0992262)
(2.02853e-07 -1.98257e-07 0.100613)
(-2.07959e-07 2.1006e-07 0.100613)
(2.05574e-07 2.10276e-07 0.100613)
(-2.09833e-07 -2.04589e-07 0.100613)
(2.0626e-07 -2.04924e-07 0.100613)
(-2.08129e-07 2.10368e-07 0.100613)
(2.06788e-07 2.1015e-07 0.100613)
(7.92178e-06 -3.40326e-08 0.100602)
(-6.30748e-06 2.03794e-06 0.100518)
(-1.73062e-07 -7.63681e-08 0.100613)
(-1.42881e-07 2.87467e-07 0.100613)
(-7.98049e-06 4.3214e-08 0.100602)
(6.16992e-06 -2.05951e-06 0.100518)
(-1.71506e-07 -7.61097e-08 0.100613)
(8.21433e-07 -7.70418e-07 0.0959079)
(-7.97789e-07 7.11617e-07 0.0959085)
(-3.24234e-08 7.92521e-06 0.100602)
(-8.56646e-08 -1.69914e-07 0.100613)
(2.04016e-06 -6.32467e-06 0.100518)
(2.71453e-07 -1.41893e-07 0.100613)
(3.15089e-08 -7.98278e-06 0.100602)
(-8.62347e-08 -1.65409e-07 0.100613)
(-2.08331e-06 6.17791e-06 0.100518)
(-1.79964e-06 -2.27673e-06 0.100345)
(-2.27447e-06 -1.79366e-06 0.100345)
(3.25163e-05 3.25362e-05 0.100614)
(1.78126e-06 2.23199e-06 0.100345)
(2.22354e-06 1.77936e-06 0.100345)
(1.20042e-09 -3.93321e-06 0.100488)
(5.01541e-07 3.47298e-06 0.0992259)
(5.71112e-09 3.88484e-06 0.100487)
(-4.88437e-07 -3.40934e-06 0.0992263)
(-7.92441e-07 8.48693e-07 0.0959085)
(7.31499e-07 -8.30274e-07 0.0959089)
(-3.9556e-06 -5.35153e-09 0.100488)
(3.44987e-06 4.71868e-07 0.0992258)
(3.90202e-06 1.20657e-08 0.100487)
(-3.39723e-06 -4.91791e-07 0.0992262)
(2.07908e-07 -2.05881e-07 0.100613)
(-2.07981e-07 2.10626e-07 0.100613)
(2.06848e-07 2.09443e-07 0.100613)
(-2.05592e-07 -2.02552e-07 0.100613)
(2.0949e-07 -2.06407e-07 0.100613)
(-2.06999e-07 2.10169e-07 0.100613)
(2.07186e-07 2.08455e-07 0.100613)
(7.92178e-06 -3.74829e-08 0.100602)
(-6.30918e-06 2.03011e-06 0.100518)
(-1.69089e-07 -8.19028e-08 0.100613)
(-1.41342e-07 2.75093e-07 0.100613)
(-7.97939e-06 4.00195e-08 0.100602)
(6.16553e-06 -2.06705e-06 0.100518)
(-1.67474e-07 -8.27439e-08 0.100613)
(8.21584e-07 -7.69596e-07 0.0959079)
(-7.96802e-07 7.12594e-07 0.0959085)
(-3.22122e-08 7.92555e-06 0.100602)
(-8.52422e-08 -1.68778e-07 0.100613)
(2.04023e-06 -6.32361e-06 0.100518)
(2.7137e-07 -1.41226e-07 0.100613)
(3.17911e-08 -7.9811e-06 0.100602)
(-8.52431e-08 -1.64408e-07 0.100613)
(-2.0827e-06 6.17679e-06 0.100518)
(-1.79919e-06 -2.27915e-06 0.100345)
(-2.27529e-06 -1.79407e-06 0.100345)
(3.25173e-05 3.25357e-05 0.100614)
(1.78026e-06 2.23015e-06 0.100345)
(2.22371e-06 1.77752e-06 0.100345)
(-5.71011e-09 -3.93517e-06 0.100488)
(4.68566e-07 3.46566e-06 0.0992259)
(6.94785e-09 3.88734e-06 0.100487)
(-5.10778e-07 -3.41794e-06 0.0992263)
(-7.8839e-07 8.54021e-07 0.0959085)
(7.30991e-07 -8.32852e-07 0.0959088)
(-3.95578e-06 -7.3441e-09 0.100488)
(3.45054e-06 4.71703e-07 0.0992258)
(3.90517e-06 1.21899e-08 0.100487)
(-3.39615e-06 -4.95797e-07 0.0992262)
(2.09384e-07 -2.06933e-07 0.100613)
(-2.0707e-07 2.09925e-07 0.100613)
(2.07268e-07 2.0819e-07 0.100613)
(-2.07993e-07 -2.06536e-07 0.100613)
(2.08803e-07 -2.07602e-07 0.100613)
(-2.06622e-07 2.0855e-07 0.100613)
(2.07048e-07 2.07505e-07 0.100613)
(7.92111e-06 -3.85357e-08 0.100602)
(-6.31154e-06 2.0286e-06 0.100518)
(-1.69195e-07 -8.31697e-08 0.100613)
(-1.43105e-07 2.74793e-07 0.100613)
(-7.98067e-06 3.85125e-08 0.100602)
(6.16507e-06 -2.06852e-06 0.100518)
(-1.68597e-07 -8.38739e-08 0.100613)
(8.22389e-07 -7.69503e-07 0.0959079)
(-7.97767e-07 7.11468e-07 0.0959085)
(-3.23808e-08 7.92536e-06 0.100602)
(-8.44985e-08 -1.69327e-07 0.100613)
(2.04049e-06 -6.32564e-06 0.100518)
(2.7231e-07 -1.4264e-07 0.100613)
(3.21649e-08 -7.98351e-06 0.100602)
(-8.50099e-08 -1.66394e-07 0.100613)
(-2.08258e-06 6.1767e-06 0.100518)
(-1.80015e-06 -2.28023e-06 0.100345)
(-2.2754e-06 -1.79567e-06 0.100345)
(3.25174e-05 3.25347e-05 0.100614)
(1.78024e-06 2.23092e-06 0.100345)
(2.22476e-06 1.77681e-06 0.100345)
(-6.72756e-09 -3.93588e-06 0.100488)
(4.84126e-07 3.46691e-06 0.0992259)
(5.26728e-09 3.88476e-06 0.100487)
(-5.06496e-07 -3.40548e-06 0.0992263)
(-7.88824e-07 8.52719e-07 0.0959085)
(7.29915e-07 -8.38011e-07 0.0959088)
(-3.9563e-06 -8.07906e-09 0.100488)
(3.44966e-06 4.68227e-07 0.0992258)
(3.90427e-06 1.01692e-08 0.100487)
(-3.38861e-06 -4.94541e-07 0.0992262)
(2.0902e-07 -2.0773e-07 0.100613)
(-2.07008e-07 2.0893e-07 0.100613)
(2.07211e-07 2.07524e-07 0.100613)
(-2.08246e-07 -2.06282e-07 0.100613)
(2.09892e-07 -2.07078e-07 0.100613)
(-2.07201e-07 2.09798e-07 0.100613)
(2.07328e-07 2.08004e-07 0.100613)
(7.92172e-06 -3.87392e-08 0.100602)
(-6.3112e-06 2.0281e-06 0.100518)
(-1.69065e-07 -8.39101e-08 0.100613)
(-1.43104e-07 2.74438e-07 0.100613)
(-7.98069e-06 3.74128e-08 0.100602)
(6.16597e-06 -2.06892e-06 0.100518)
(-1.69115e-07 -8.42409e-08 0.100613)
(8.21734e-07 -7.70075e-07 0.0959079)
(-7.97384e-07 7.11849e-07 0.0959085)
(-3.29929e-08 7.92793e-06 0.100602)
(-8.46942e-08 -1.69538e-07 0.100613)
(2.04036e-06 -6.32579e-06 0.100518)
(2.71689e-07 -1.42448e-07 0.100613)
(3.36088e-08 -7.98618e-06 0.100602)
(-8.50842e-08 -1.66043e-07 0.100613)
(-2.08252e-06 6.17757e-06 0.100518)
(-1.80004e-06 -2.28067e-06 0.100345)
(-2.2759e-06 -1.79598e-06 0.100345)
(3.25176e-05 3.25347e-05 0.100614)
(1.78102e-06 2.23004e-06 0.100345)
(2.22412e-06 1.77783e-06 0.100345)
(1.69293e-09 -3.93378e-06 0.100488)
(4.9359e-07 3.4575e-06 0.0992259)
(8.37822e-09 3.88593e-06 0.100487)
(-5.28808e-07 -3.40957e-06 0.0992263)
(-7.88162e-07 8.56589e-07 0.0959085)
(7.29991e-07 -8.37081e-07 0.0959089)
(-3.95587e-06 -5.78337e-09 0.100488)
(3.44134e-06 4.68848e-07 0.0992258)
(3.90414e-06 1.1607e-08 0.100487)
(-3.38501e-06 -4.87266e-07 0.0992263)
(2.09775e-07 -2.05352e-07 0.100613)
(-2.07036e-07 2.10096e-07 0.100613)
(2.07592e-07 2.08453e-07 0.100613)
(-2.04627e-07 -2.00254e-07 0.100613)
(2.12283e-07 -2.02069e-07 0.100613)
(-2.06952e-07 2.11078e-07 0.100613)
(2.07928e-07 2.0875e-07 0.100613)
(7.92275e-06 -3.79561e-08 0.100602)
(-6.30991e-06 2.02885e-06 0.100518)
(-1.67898e-07 -8.33384e-08 0.100613)
(-1.41052e-07 2.75637e-07 0.100613)
(-7.97955e-06 3.82414e-08 0.100602)
(6.16601e-06 -2.06727e-06 0.100518)
(-1.65543e-07 -8.33408e-08 0.100613)
(8.21839e-07 -7.69926e-07 0.0959079)
(-7.96789e-07 7.12479e-07 0.0959085)
(-3.31557e-08 7.92903e-06 0.100602)
(-8.45372e-08 -1.68904e-07 0.100613)
(2.0405e-06 -6.32443e-06 0.100518)
(2.70951e-07 -1.4029e-07 0.100613)
(3.34386e-08 -7.984e-06 0.100602)
(-8.47158e-08 -1.63332e-07 0.100613)
(-2.0818e-06 6.17793e-06 0.100518)
(-1.79936e-06 -2.28006e-06 0.100345)
(-2.27488e-06 -1.79539e-06 0.100345)
(3.25183e-05 3.25355e-05 0.100614)
(1.78105e-06 2.22969e-06 0.100345)
(2.22379e-06 1.77724e-06 0.100345)
(-5.31728e-09 -3.93374e-06 0.100488)
(5.64948e-07 3.49358e-06 0.099226)
(2.29582e-08 3.88888e-06 0.100487)
(-5.10929e-07 -3.41415e-06 0.0992263)
(-7.84763e-07 8.58286e-07 0.0959085)
(7.30839e-07 -8.37534e-07 0.0959089)
(-3.9544e-06 -6.55929e-09 0.100488)
(3.44116e-06 4.73462e-07 0.0992258)
(3.904e-06 1.3697e-08 0.100487)
(-3.38397e-06 -4.91523e-07 0.0992263)
(2.12137e-07 -2.02766e-07 0.100613)
(-2.06903e-07 2.11142e-07 0.100613)
(2.08243e-07 2.08802e-07 0.100613)
(-2.09105e-07 -2.09551e-07 0.100613)
(2.1307e-07 -2.05941e-07 0.100613)
(-2.08338e-07 2.10386e-07 0.100613)
(2.09265e-07 2.07991e-07 0.100613)
(7.92249e-06 -3.91527e-08 0.100602)
(-6.30992e-06 2.02976e-06 0.100518)
(-1.64767e-07 -8.32489e-08 0.100613)
(-1.39516e-07 2.72819e-07 0.100613)
(-7.97902e-06 3.83599e-08 0.100602)
(6.16569e-06 -2.06876e-06 0.100518)
(-1.63904e-07 -8.44032e-08 0.100613)
(8.22401e-07 -7.69306e-07 0.0959079)
(-7.97227e-07 7.11988e-07 0.0959085)
(-3.31634e-08 7.92882e-06 0.100602)
(-8.41186e-08 -1.66495e-07 0.100613)
(2.04121e-06 -6.32492e-06 0.100518)
(2.70041e-07 -1.3932e-07 0.100613)
(3.38502e-08 -7.98403e-06 0.100602)
(-8.47848e-08 -1.62161e-07 0.100613)
(-2.08188e-06 6.1777e-06 0.100518)
(-1.79997e-06 -2.28006e-06 0.100345)
(-2.27437e-06 -1.79562e-06 0.100345)
(3.25195e-05 3.2536e-05 0.100614)
(1.7808e-06 2.23016e-06 0.100345)
(2.2248e-06 1.7767e-06 0.100345)
(-2.37785e-09 -3.93939e-06 0.100488)
(4.81822e-07 3.47715e-06 0.099226)
(9.37062e-09 3.88411e-06 0.100487)
(-5.00257e-07 -3.47976e-06 0.0992263)
(-8.41857e-07 9.67367e-07 0.0959087)
(7.77273e-07 -9.21257e-07 0.0959082)
(-3.95861e-06 -1.02447e-08 0.100488)
(3.45637e-06 4.59263e-07 0.0992258)
(3.90399e-06 1.09327e-08 0.100487)
(-3.44544e-06 -4.88646e-07 0.0992262)
(2.15282e-07 -2.07956e-07 0.100613)
(-2.09743e-07 2.11694e-07 0.100613)
(2.10687e-07 2.09009e-07 0.100613)
(-2.23302e-07 -2.2542e-07 0.100613)
(2.40653e-07 -2.23585e-07 0.100613)
(-2.2306e-07 2.25885e-07 0.100613)
(2.24209e-07 2.21918e-07 0.100613)
(7.93459e-06 -4.53144e-08 0.100602)
(-6.31673e-06 2.03477e-06 0.100518)
(-1.62452e-07 -8.75564e-08 0.100613)
(-1.3417e-07 2.60617e-07 0.100613)
(-7.98018e-06 3.49569e-08 0.100602)
(6.15664e-06 -2.0648e-06 0.100518)
(-1.56794e-07 -9.15038e-08 0.100613)
(8.49835e-07 -7.83499e-07 0.0959079)
(-9.55088e-07 7.97962e-07 0.0959081)
(-3.42892e-08 7.94048e-06 0.100602)
(-8.51704e-08 -1.65774e-07 0.100613)
(2.04367e-06 -6.32638e-06 0.100518)
(2.66553e-07 -1.34909e-07 0.100613)
(3.34997e-08 -7.98589e-06 0.100602)
(-8.6523e-08 -1.56308e-07 0.100613)
(-2.09325e-06 6.18474e-06 0.100518)
(-1.79288e-06 -2.28509e-06 0.100345)
(-2.27867e-06 -1.78927e-06 0.100345)
(3.2521e-05 3.25371e-05 0.100614)
(1.75969e-06 2.24019e-06 0.100345)
(2.23595e-06 1.75523e-06 0.100345)
(2.21138e-05 2.21024e-05 0.100003)
(8.17936e-05 0.000135488 0.100053)
(0.000135549 8.18012e-05 0.100053)
(0.000411 0.00106603 0.0978855)
(0.000115428 0.000203851 0.100126)
(0.00106509 0.000408368 0.0978857)
(0.000204001 0.000115447 0.100126)
(0.000100176 0.000100137 0.100042)
(0.000126579 0.000536353 0.100285)
(0.000535221 0.000126243 0.100285)
(0.00011721 0.000179689 0.1001)
(0.000179826 0.000117226 0.1001)
(5.80812e-06 4.82776e-05 0.100008)
(1.66432e-05 1.74998e-05 0.0999992)
(6.08563e-05 0.000128525 0.100056)
(-5.18067e-07 1.37512e-05 0.0999948)
(-5.82097e-06 4.82881e-05 0.100008)
(-1.66389e-05 1.74966e-05 0.0999992)
(-6.08245e-05 0.000128513 0.100056)
(5.1819e-07 1.37508e-05 0.0999948)
(4.54554e-06 0.000156303 0.100054)
(0.000328154 0.000335933 0.0993674)
(9.79362e-05 0.000166515 0.100058)
(2.71881e-06 0.000346005 0.100418)
(-4.5846e-06 0.000156317 0.100054)
(-0.000327603 0.000336663 0.0993677)