/*--------------------------------*- C++ -*----------------------------------*\
| =========                 |                                                 |
| \\      /  F ield         | OpenFOAM: The Open Source CFD Toolbox           |
|  \\    /   O peration     | Version:  2206                                  |
|   \\  /    A nd           | Website:  www.openfoam.com                      |
|    \\/     M anipulation  |                                                 |
\*---------------------------------------------------------------------------*/
FoamFile
{
    version     2.0;
    format      ascii;
    arch        "LSB;label=32;scalar=64";
    class       volScalarField;
    location    "22.5";
    object      k;
}
// * * * * * * * * * * * * * * * * * * * * * * * * * * * * * * * * * * * * * //

dimensions      [0 2 -2 0 0 0 0];

internalField   nonuniform List<scalar> 
28448
(
2.81503e-05
2.77832e-05
2.77829e-05
2.73395e-05
2.81503e-05
2.77833e-05
2.77829e-05
2.73396e-05
2.81503e-05
2.77832e-05
2.77829e-05
2.73399e-05
2.81502e-05
2.77832e-05
2.77828e-05
2.734e-05
2.81497e-05
2.77825e-05
2.77817e-05
2.73381e-05
2.81436e-05
2.77754e-05
2.77745e-05
2.73304e-05
2.81419e-05
2.77739e-05
2.77738e-05
2.73297e-05
2.81419e-05
2.77739e-05
2.77738e-05
2.73296e-05
2.81419e-05
2.77739e-05
2.77738e-05
2.73297e-05
2.81419e-05
2.7774e-05
2.77739e-05
2.73297e-05
2.81419e-05
2.7774e-05
2.77739e-05
2.73297e-05
2.81419e-05
2.7774e-05
2.77739e-05
2.73297e-05
2.81419e-05
2.7774e-05
2.77739e-05
2.73297e-05
2.81419e-05
2.7774e-05
2.77738e-05
2.73297e-05
2.81419e-05
2.7774e-05
2.77738e-05
2.73297e-05
2.81419e-05
2.7774e-05
2.77738e-05
2.73297e-05
2.81419e-05
2.7774e-05
2.77738e-05
2.73297e-05
2.81423e-05
2.77742e-05
2.73427e-05
2.77829e-05
2.77829e-05
2.73427e-05
2.77831e-05
2.77826e-05
2.77833e-05
2.77828e-05
2.73423e-05
2.77829e-05
2.7783e-05
2.73426e-05
2.73398e-05
2.73426e-05
2.77829e-05
2.77829e-05
2.77828e-05
2.77828e-05
2.73398e-05
2.73427e-05
2.77831e-05
2.77828e-05
2.77831e-05
2.77827e-05
2.77831e-05
2.77834e-05
2.7783e-05
2.73395e-05
2.73424e-05
2.77833e-05
2.7783e-05
2.77832e-05
2.73427e-05
2.73398e-05
2.73428e-05
2.7783e-05
2.77829e-05
2.7783e-05
2.77829e-05
2.73399e-05
2.73428e-05
2.77832e-05
2.77828e-05
2.77832e-05
2.77828e-05
2.77831e-05
2.77832e-05
2.77831e-05
2.73396e-05
2.73425e-05
2.77833e-05
2.77829e-05
2.77833e-05
2.73429e-05
2.734e-05
2.73431e-05
2.77832e-05
2.77831e-05
2.77831e-05
2.77831e-05
2.734e-05
2.73431e-05
2.77834e-05
2.77829e-05
2.77834e-05
2.77826e-05
2.77832e-05
2.77833e-05
2.77829e-05
2.73397e-05
2.73427e-05
2.77834e-05
2.77829e-05
2.77831e-05
2.7343e-05
2.73403e-05
2.73427e-05
2.77831e-05
2.77831e-05
2.77827e-05
2.77826e-05
2.73403e-05
2.73425e-05
2.77835e-05
2.77826e-05
2.7783e-05
2.77821e-05
2.77829e-05
2.77829e-05
2.77824e-05
2.73399e-05
2.73417e-05
2.77831e-05
2.77824e-05
2.77826e-05
2.7342e-05
2.73395e-05
2.73363e-05
2.77824e-05
2.77823e-05
2.77772e-05
2.77771e-05
2.73394e-05
2.73362e-05
2.77827e-05
2.77815e-05
2.77774e-05
2.77753e-05
2.77817e-05
2.77771e-05
2.77755e-05
2.73382e-05
2.73341e-05
2.77818e-05
2.77756e-05
2.77757e-05
2.73344e-05
2.73321e-05
2.73326e-05
2.77755e-05
2.77754e-05
2.77737e-05
2.77736e-05
2.7332e-05
2.73326e-05
2.77756e-05
2.77742e-05
2.77739e-05
2.77734e-05
2.77744e-05
2.77739e-05
2.77737e-05
2.73305e-05
2.73324e-05
2.77746e-05
2.77738e-05
2.77738e-05
2.73327e-05
2.73298e-05
2.73327e-05
2.77738e-05
2.77737e-05
2.77737e-05
2.77737e-05
2.73298e-05
2.73327e-05
2.7774e-05
2.77735e-05
2.77739e-05
2.77735e-05
2.77738e-05
2.7774e-05
2.77737e-05
2.73297e-05
2.73324e-05
2.7774e-05
2.77739e-05
2.77739e-05
2.73327e-05
2.73299e-05
2.73327e-05
2.77738e-05
2.77738e-05
2.77737e-05
2.77737e-05
2.73298e-05
2.73327e-05
2.7774e-05
2.77736e-05
2.77739e-05
2.77735e-05
2.77738e-05
2.7774e-05
2.77737e-05
2.73296e-05
2.73325e-05
2.7774e-05
2.77739e-05
2.77739e-05
2.73328e-05
2.73299e-05
2.73327e-05
2.77738e-05
2.77738e-05
2.77737e-05
2.77737e-05
2.73299e-05
2.73327e-05
2.7774e-05
2.77736e-05
2.77739e-05
2.77735e-05
2.77738e-05
2.7774e-05
2.77737e-05
2.73297e-05
2.73325e-05
2.7774e-05
2.77739e-05
2.77739e-05
2.73328e-05
2.73299e-05
2.73327e-05
2.77738e-05
2.77738e-05
2.77737e-05
2.77737e-05
2.73299e-05
2.73327e-05
2.7774e-05
2.77736e-05
2.77739e-05
2.77735e-05
2.77738e-05
2.7774e-05
2.77737e-05
2.73297e-05
2.73325e-05
2.7774e-05
2.77739e-05
2.77739e-05
2.73328e-05
2.73299e-05
2.73327e-05
2.77738e-05
2.77738e-05
2.77737e-05
2.77737e-05
2.73299e-05
2.73327e-05
2.7774e-05
2.77736e-05
2.77739e-05
2.77735e-05
2.77738e-05
2.7774e-05
2.77737e-05
2.73296e-05
2.73325e-05
2.7774e-05
2.77739e-05
2.77739e-05
2.73328e-05
2.73299e-05
2.73327e-05
2.77738e-05
2.77738e-05
2.77737e-05
2.77737e-05
2.73299e-05
2.73327e-05
2.7774e-05
2.77736e-05
2.77739e-05
2.77735e-05
2.77738e-05
2.7774e-05
2.77737e-05
2.73296e-05
2.73325e-05
2.7774e-05
2.77739e-05
2.77739e-05
2.73328e-05
2.73299e-05
2.73327e-05
2.77738e-05
2.77738e-05
2.77737e-05
2.77737e-05
2.73299e-05
2.73327e-05
2.7774e-05
2.77736e-05
2.77739e-05
2.77735e-05
2.77738e-05
2.7774e-05
2.77737e-05
2.73296e-05
2.73325e-05
2.7774e-05
2.77739e-05
2.77739e-05
2.73328e-05
2.73299e-05
2.73327e-05
2.77738e-05
2.77738e-05
2.77737e-05
2.77737e-05
2.73299e-05
2.73327e-05
2.7774e-05
2.77736e-05
2.77739e-05
2.77735e-05
2.77738e-05
2.7774e-05
2.77737e-05
2.73296e-05
2.73325e-05
2.7774e-05
2.77739e-05
2.77739e-05
2.73328e-05
2.73299e-05
2.73327e-05
2.77738e-05
2.77738e-05
2.77737e-05
2.77737e-05
2.73299e-05
2.73327e-05
2.7774e-05
2.77736e-05
2.77739e-05
2.77735e-05
2.77738e-05
2.7774e-05
2.77737e-05
2.73297e-05
2.73325e-05
2.7774e-05
2.77739e-05
2.77739e-05
2.73328e-05
2.73299e-05
2.73327e-05
2.77738e-05
2.77738e-05
2.77737e-05
2.77737e-05
2.73299e-05
2.73327e-05
2.7774e-05
2.77736e-05
2.77739e-05
2.77735e-05
2.77738e-05
2.7774e-05
2.77737e-05
2.73296e-05
2.73325e-05
2.7774e-05
2.77739e-05
2.77739e-05
2.73328e-05
2.73299e-05
2.73328e-05
2.77738e-05
2.77738e-05
2.77739e-05
2.73299e-05
2.7774e-05
2.77736e-05
2.77739e-05
2.77735e-05
2.77738e-05
2.77739e-05
2.73296e-05
2.73325e-05
2.7774e-05
2.77739e-05
2.77741e-05
2.7333e-05
2.73304e-05
2.77741e-05
2.77736e-05
2.73297e-05
2.81503e-05
2.81504e-05
2.81503e-05
2.81503e-05
2.94702e-05
6.90541e-05
2.9471e-05
6.90509e-05
8.22363e-05
8.22308e-05
2.94715e-05
6.90555e-05
2.94722e-05
6.90521e-05
2.81504e-05
2.81505e-05
2.81505e-05
2.81503e-05
2.81503e-05
2.81504e-05
2.81504e-05
2.65131e-05
2.90728e-05
2.8008e-05
2.77835e-05
2.65129e-05
2.90704e-05
2.80082e-05
8.22298e-05
8.22252e-05
2.65132e-05
2.80079e-05
2.90729e-05
2.7783e-05
2.65128e-05
2.8008e-05
2.90705e-05
3.33952e-05
3.33961e-05
2.73426e-05
3.3395e-05
3.33959e-05
2.94714e-05
6.90514e-05
2.94731e-05
6.90488e-05
8.22277e-05
8.22255e-05
2.94724e-05
6.90529e-05
2.94739e-05
6.90501e-05
2.81503e-05
2.81504e-05
2.81505e-05
2.81504e-05
2.81502e-05
2.81502e-05
2.81504e-05
2.65135e-05
2.90748e-05
2.80081e-05
2.77833e-05
2.65133e-05
2.90721e-05
2.80081e-05
8.22232e-05
8.22211e-05
2.65135e-05
2.80079e-05
2.90745e-05
2.7783e-05
2.65132e-05
2.8008e-05
2.90718e-05
3.33997e-05
3.34007e-05
2.73428e-05
3.34001e-05
3.34011e-05
2.9473e-05
6.90503e-05
2.94742e-05
6.9048e-05
8.22251e-05
8.22242e-05
2.94743e-05
6.90516e-05
2.94753e-05
6.90492e-05
2.81504e-05
2.81502e-05
2.81504e-05
2.81502e-05
2.81503e-05
2.815e-05
2.81501e-05
2.65144e-05
2.9076e-05
2.8008e-05
2.77834e-05
2.65139e-05
2.90729e-05
2.8008e-05
8.22216e-05
8.22207e-05
2.65143e-05
2.80079e-05
2.90753e-05
2.77829e-05
2.65139e-05
2.80079e-05
2.90725e-05
3.34042e-05
3.34052e-05
2.7343e-05
3.34037e-05
3.34047e-05
2.94739e-05
6.90501e-05
2.94758e-05
6.90482e-05
8.22258e-05
8.2226e-05
2.9475e-05
6.90514e-05
2.94767e-05
6.90494e-05
2.81503e-05
2.815e-05
2.81501e-05
2.815e-05
2.81499e-05
2.81496e-05
2.81497e-05
2.65147e-05
2.90766e-05
2.80079e-05
2.77832e-05
2.65149e-05
2.90734e-05
2.80079e-05
8.22229e-05
8.22235e-05
2.65143e-05
2.80077e-05
2.90761e-05
2.77828e-05
2.65144e-05
2.80077e-05
2.90731e-05
3.34063e-05
3.34073e-05
2.7343e-05
3.34043e-05
3.34053e-05
2.94716e-05
6.90536e-05
2.94748e-05
6.90557e-05
8.22298e-05
8.22292e-05
2.9472e-05
6.90549e-05
2.94754e-05
6.90568e-05
2.81496e-05
2.81491e-05
2.81491e-05
2.81453e-05
2.81451e-05
2.81437e-05
2.81437e-05
2.65099e-05
2.9076e-05
2.80071e-05
2.77816e-05
2.65131e-05
2.90711e-05
2.80058e-05
8.22265e-05
8.22251e-05
2.65092e-05
2.80066e-05
2.90752e-05
2.77799e-05
2.65127e-05
2.8005e-05
2.90698e-05
3.34049e-05
3.34059e-05
2.73388e-05
3.34014e-05
3.34025e-05
2.9464e-05
6.90616e-05
2.94687e-05
6.90596e-05
8.22288e-05
8.22276e-05
2.94646e-05
6.9063e-05
2.94686e-05
6.90609e-05
2.81436e-05
2.81427e-05
2.81427e-05
2.81419e-05
2.8142e-05
2.81419e-05
2.81419e-05
2.65027e-05
2.90696e-05
2.80003e-05
2.77746e-05
2.6503e-05
2.9064e-05
2.79997e-05
8.22251e-05
8.22237e-05
2.65024e-05
2.79999e-05
2.90681e-05
2.77741e-05
2.65027e-05
2.79995e-05
2.90634e-05
3.33976e-05
3.33986e-05
2.73328e-05
3.33941e-05
3.33951e-05
2.9462e-05
6.90613e-05
2.94642e-05
6.90591e-05
8.22281e-05
8.22273e-05
2.9463e-05
6.90627e-05
2.94649e-05
6.90604e-05
2.81421e-05
2.8142e-05
2.8142e-05
2.81419e-05
2.8142e-05
2.81419e-05
2.81419e-05
2.65025e-05
2.90658e-05
2.79993e-05
2.7774e-05
2.65025e-05
2.90622e-05
2.79994e-05
8.22246e-05
8.22235e-05
2.65022e-05
2.79992e-05
2.90657e-05
2.77739e-05
2.65021e-05
2.79993e-05
2.90625e-05
3.33949e-05
3.33959e-05
2.73328e-05
3.33932e-05
3.33942e-05
2.94619e-05
6.90611e-05
2.94638e-05
6.9059e-05
8.2228e-05
8.22273e-05
2.94629e-05
6.90625e-05
2.94646e-05
6.90603e-05
2.81421e-05
2.8142e-05
2.8142e-05
2.81419e-05
2.8142e-05
2.81419e-05
2.81419e-05
2.65022e-05
2.90654e-05
2.79993e-05
2.7774e-05
2.65023e-05
2.90621e-05
2.79994e-05
8.22245e-05
8.22235e-05
2.65021e-05
2.79992e-05
2.90655e-05
2.77739e-05
2.65021e-05
2.79993e-05
2.90624e-05
3.33948e-05
3.33957e-05
2.73328e-05
3.33931e-05
3.33941e-05
2.94619e-05
6.90611e-05
2.94638e-05
6.9059e-05
8.2228e-05
8.22273e-05
2.94629e-05
6.90625e-05
2.94646e-05
6.90603e-05
2.81421e-05
2.8142e-05
2.8142e-05
2.81419e-05
2.8142e-05
2.81419e-05
2.81419e-05
2.65025e-05
2.90654e-05
2.79993e-05
2.77741e-05
2.65024e-05
2.90621e-05
2.79994e-05
8.22245e-05
8.22235e-05
2.65023e-05
2.79992e-05
2.90655e-05
2.7774e-05
2.65022e-05
2.79993e-05
2.90624e-05
3.33948e-05
3.33957e-05
2.73328e-05
3.33931e-05
3.33941e-05
2.94619e-05
6.90611e-05
2.94638e-05
6.9059e-05
8.2228e-05
8.22273e-05
2.94629e-05
6.90625e-05
2.94646e-05
6.90603e-05
2.81421e-05
2.8142e-05
2.8142e-05
2.81419e-05
2.8142e-05
2.81419e-05
2.81419e-05
2.65022e-05
2.90654e-05
2.79993e-05
2.77741e-05
2.65023e-05
2.90621e-05
2.79994e-05
8.22245e-05
8.22235e-05
2.65022e-05
2.79992e-05
2.90655e-05
2.7774e-05
2.65022e-05
2.79993e-05
2.90624e-05
3.33948e-05
3.33957e-05
2.73328e-05
3.33932e-05
3.33941e-05
2.94619e-05
6.90611e-05
2.94638e-05
6.9059e-05
8.2228e-05
8.22273e-05
2.94629e-05
6.90625e-05
2.94646e-05
6.90603e-05
2.81421e-05
2.8142e-05
2.8142e-05
2.81419e-05
2.8142e-05
2.81419e-05
2.81419e-05
2.65022e-05
2.90654e-05
2.79993e-05
2.77741e-05
2.65024e-05
2.90621e-05
2.79994e-05
8.22245e-05
8.22235e-05
2.65022e-05
2.79992e-05
2.90655e-05
2.7774e-05
2.65022e-05
2.79993e-05
2.90624e-05
3.33948e-05
3.33957e-05
2.73328e-05
3.33932e-05
3.33941e-05
2.94619e-05
6.90611e-05
2.94638e-05
6.9059e-05
8.2228e-05
8.22273e-05
2.94629e-05
6.90625e-05
2.94646e-05
6.90603e-05
2.81421e-05
2.8142e-05
2.8142e-05
2.81419e-05
2.8142e-05
2.81419e-05
2.81419e-05
2.65025e-05
2.90654e-05
2.79993e-05
2.77741e-05
2.65024e-05
2.90621e-05
2.79994e-05
8.22245e-05
8.22235e-05
2.65021e-05
2.79992e-05
2.90655e-05
2.7774e-05
2.65021e-05
2.79993e-05
2.90624e-05
3.33948e-05
3.33957e-05
2.73328e-05
3.33931e-05
3.33941e-05
2.94619e-05
6.90611e-05
2.94638e-05
6.9059e-05
8.2228e-05
8.22273e-05
2.94629e-05
6.90625e-05
2.94646e-05
6.90603e-05
2.81421e-05
2.8142e-05
2.8142e-05
2.81419e-05
2.8142e-05
2.81419e-05
2.81419e-05
2.65022e-05
2.90654e-05
2.79993e-05
2.77741e-05
2.65023e-05
2.90621e-05
2.79994e-05
8.22245e-05
8.22235e-05
2.65019e-05
2.79992e-05
2.90655e-05
2.7774e-05
2.65019e-05
2.79993e-05
2.90624e-05
3.33948e-05
3.33957e-05
2.73328e-05
3.33931e-05
3.33941e-05
2.94619e-05
6.90611e-05
2.94638e-05
6.9059e-05
8.2228e-05
8.22273e-05
2.94629e-05
6.90625e-05
2.94646e-05
6.90603e-05
2.81421e-05
2.8142e-05
2.8142e-05
2.81419e-05
2.8142e-05
2.81419e-05
2.81419e-05
2.65025e-05
2.90654e-05
2.79993e-05
2.77741e-05
2.65024e-05
2.90621e-05
2.79994e-05
8.22245e-05
8.22235e-05
2.65018e-05
2.79992e-05
2.90655e-05
2.7774e-05
2.65018e-05
2.79993e-05
2.90624e-05
3.33948e-05
3.33957e-05
2.73328e-05
3.33931e-05
3.33941e-05
2.94619e-05
6.90611e-05
2.94638e-05
6.9059e-05
8.2228e-05
8.22273e-05
2.94629e-05
6.90625e-05
2.94646e-05
6.90603e-05
2.81421e-05
2.8142e-05
2.8142e-05
2.81419e-05
2.8142e-05
2.81419e-05
2.81419e-05
2.65022e-05
2.90654e-05
2.79993e-05
2.77741e-05
2.65023e-05
2.90621e-05
2.79994e-05
8.22245e-05
8.22235e-05
2.65017e-05
2.79992e-05
2.90655e-05
2.7774e-05
2.65017e-05
2.79993e-05
2.90624e-05
3.33948e-05
3.33957e-05
2.73328e-05
3.33932e-05
3.33941e-05
2.94619e-05
6.90611e-05
2.94638e-05
6.9059e-05
8.2228e-05
8.22273e-05
2.94629e-05
6.90625e-05
2.94646e-05
6.90603e-05
2.81421e-05
2.8142e-05
2.8142e-05
2.81419e-05
2.8142e-05
2.81419e-05
2.81419e-05
2.65025e-05
2.90654e-05
2.79993e-05
2.77741e-05
2.65024e-05
2.90621e-05
2.79994e-05
8.22245e-05
8.22235e-05
2.65018e-05
2.79992e-05
2.90655e-05
2.7774e-05
2.65017e-05
2.79993e-05
2.90624e-05
3.33948e-05
3.33957e-05
2.73328e-05
3.33932e-05
3.33941e-05
2.94619e-05
6.90611e-05
2.94638e-05
6.9059e-05
8.2228e-05
8.22273e-05
2.94629e-05
6.90625e-05
2.94646e-05
6.90603e-05
2.81421e-05
2.8142e-05
2.8142e-05
2.8142e-05
2.81424e-05
2.81419e-05
2.81421e-05
2.65025e-05
2.90654e-05
2.79993e-05
2.7774e-05
2.65024e-05
2.90621e-05
2.79994e-05
8.22245e-05
8.22235e-05
2.65017e-05
2.79992e-05
2.90655e-05
2.7774e-05
2.65017e-05
2.79993e-05
2.90624e-05
3.33948e-05
3.33957e-05
2.73328e-05
3.33932e-05
3.33941e-05
6.90625e-05
2.94646e-05
2.81422e-05
8.22245e-05
2.90658e-05
8.22369e-05
8.22364e-05
3.33922e-05
3.33926e-05
6.90526e-05
2.94687e-05
6.90554e-05
2.9469e-05
2.90693e-05
2.80081e-05
2.65132e-05
2.90701e-05
2.80081e-05
2.65133e-05
8.22368e-05
3.3393e-05
3.33878e-05
8.22328e-05
6.90538e-05
2.947e-05
2.90702e-05
2.80082e-05
2.65144e-05
2.94704e-05
6.90519e-05
6.90574e-05
2.94698e-05
2.65134e-05
2.77826e-05
2.80079e-05
2.90694e-05
2.80079e-05
2.9072e-05
2.65134e-05
2.65132e-05
2.90691e-05
2.8008e-05
2.8008e-05
2.65129e-05
2.94703e-05
6.90526e-05
2.94694e-05
2.65132e-05
2.77829e-05
2.8008e-05
2.90694e-05
2.8008e-05
2.90718e-05
2.65131e-05
2.94701e-05
6.90539e-05
6.90591e-05
2.94692e-05
8.22295e-05
8.22357e-05
2.73374e-05
3.33906e-05
3.33929e-05
3.33902e-05
3.33936e-05
8.22335e-05
8.22392e-05
2.65129e-05
2.7783e-05
2.80079e-05
2.90695e-05
2.80079e-05
2.90719e-05
2.65128e-05
2.65131e-05
2.77831e-05
2.8008e-05
2.907e-05
2.8008e-05
2.90724e-05
2.65131e-05
2.94702e-05
6.90543e-05
6.90596e-05
2.94693e-05
2.94702e-05
6.90559e-05
6.90612e-05
2.94695e-05
2.73377e-05
3.33931e-05
3.3394e-05
3.33934e-05
3.33945e-05
8.22335e-05
8.22392e-05
8.22332e-05
8.2239e-05
8.22365e-05
8.22309e-05
8.22359e-05
8.22303e-05
3.33941e-05
3.33946e-05
2.73426e-05
3.33941e-05
3.33946e-05
8.22275e-05
8.22311e-05
8.2227e-05
8.22305e-05
2.73398e-05
3.33963e-05
3.33968e-05
3.33961e-05
3.33966e-05
2.94706e-05
6.90568e-05
2.94716e-05
6.90539e-05
2.65134e-05
2.9073e-05
2.80081e-05
2.77829e-05
2.65135e-05
2.90705e-05
2.80081e-05
2.65136e-05
2.90739e-05
2.80081e-05
2.77828e-05
2.65137e-05
2.90714e-05
2.8008e-05
2.94727e-05
6.90496e-05
6.90523e-05
2.94711e-05
2.9473e-05
6.90527e-05
6.90553e-05
2.94714e-05
2.65139e-05
2.77829e-05
2.90714e-05
2.8008e-05
2.90741e-05
2.8008e-05
2.65138e-05
2.65141e-05
2.77828e-05
2.90723e-05
2.8008e-05
2.90751e-05
2.8008e-05
2.6514e-05
3.33954e-05
3.33905e-05
2.73427e-05
3.33956e-05
3.33905e-05
8.22332e-05
8.22273e-05
8.22275e-05
8.22309e-05
2.73398e-05
3.33976e-05
3.33922e-05
3.33977e-05
3.33926e-05
8.22237e-05
8.22279e-05
2.65147e-05
2.90741e-05
2.80082e-05
2.77831e-05
2.65148e-05
2.90714e-05
2.80082e-05
2.94708e-05
6.90534e-05
2.94721e-05
6.90506e-05
2.65139e-05
2.80081e-05
2.90733e-05
2.77828e-05
2.6514e-05
2.80081e-05
2.90704e-05
2.94737e-05
6.90509e-05
6.90537e-05
2.94721e-05
2.65151e-05
2.77831e-05
2.90723e-05
2.80081e-05
2.90752e-05
2.80081e-05
2.65149e-05
2.94729e-05
6.90495e-05
6.90522e-05
2.94712e-05
2.65144e-05
2.77828e-05
2.80081e-05
2.90712e-05
2.80081e-05
2.90743e-05
2.65142e-05
2.94706e-05
6.90542e-05
2.94719e-05
6.90511e-05
2.65137e-05
2.80082e-05
2.90731e-05
2.77831e-05
2.65137e-05
2.80082e-05
2.90705e-05
2.94705e-05
6.90552e-05
2.94718e-05
6.90525e-05
2.65136e-05
2.77834e-05
2.90713e-05
2.80081e-05
2.90742e-05
2.80082e-05
2.65133e-05
2.94729e-05
6.905e-05
6.90527e-05
2.9471e-05
2.65143e-05
2.7783e-05
2.80081e-05
2.90713e-05
2.80082e-05
2.90741e-05
2.65139e-05
2.94729e-05
6.90515e-05
6.90539e-05
2.94712e-05
3.33929e-05
3.33949e-05
2.73423e-05
3.33924e-05
3.33948e-05
8.22332e-05
8.22287e-05
8.22225e-05
8.22259e-05
2.73395e-05
3.33947e-05
3.33973e-05
3.33946e-05
3.33968e-05
8.22263e-05
8.22292e-05
2.65137e-05
2.80082e-05
2.90737e-05
2.77832e-05
2.65137e-05
2.80082e-05
2.9071e-05
2.94705e-05
6.90556e-05
2.94719e-05
6.90529e-05
2.94705e-05
6.90573e-05
2.94718e-05
6.90546e-05
2.65137e-05
2.7783e-05
2.80079e-05
2.90713e-05
2.8008e-05
2.90741e-05
2.65132e-05
2.65142e-05
2.77832e-05
2.80081e-05
2.90718e-05
2.80081e-05
2.90747e-05
2.65138e-05
2.94728e-05
6.90519e-05
6.90544e-05
2.94709e-05
2.94726e-05
6.90536e-05
6.9056e-05
2.94709e-05
8.22332e-05
8.22288e-05
8.2233e-05
8.22285e-05
2.73398e-05
3.33974e-05
3.33984e-05
3.3397e-05
3.33979e-05
8.22264e-05
8.22292e-05
8.22261e-05
8.2229e-05
8.22281e-05
8.22255e-05
8.22276e-05
8.22249e-05
3.33985e-05
3.33989e-05
2.73427e-05
3.33991e-05
3.33995e-05
8.22244e-05
8.22264e-05
8.22239e-05
8.22258e-05
2.73399e-05
3.34016e-05
3.3402e-05
3.34013e-05
3.34017e-05
2.94717e-05
6.90541e-05
2.94737e-05
6.90518e-05
2.65142e-05
2.9075e-05
2.8008e-05
2.7783e-05
2.65144e-05
2.9072e-05
2.8008e-05
2.65144e-05
2.90759e-05
2.8008e-05
2.77829e-05
2.65145e-05
2.9073e-05
2.80079e-05
2.94737e-05
6.90483e-05
6.90504e-05
2.94721e-05
2.9474e-05
6.90512e-05
6.90534e-05
2.94724e-05
2.65148e-05
2.7783e-05
2.90724e-05
2.80079e-05
2.90755e-05
2.80079e-05
2.65145e-05
2.65148e-05
2.77829e-05
2.90734e-05
2.80079e-05
2.90765e-05
2.80079e-05
2.65146e-05
3.33998e-05
3.33948e-05
2.73427e-05
3.34002e-05
3.33956e-05
8.22246e-05
8.22216e-05
8.22244e-05
8.22263e-05
2.73399e-05
3.34027e-05
3.33982e-05
3.34025e-05
3.33982e-05
8.22206e-05
8.22228e-05
2.65149e-05
2.90761e-05
2.80082e-05
2.77832e-05
2.65152e-05
2.90729e-05
2.80082e-05
2.94717e-05
6.90513e-05
2.94732e-05
6.90489e-05
2.65146e-05
2.80081e-05
2.9075e-05
2.77828e-05
2.65148e-05
2.8008e-05
2.90719e-05
2.94746e-05
6.90495e-05
6.90518e-05
2.94733e-05
2.65154e-05
2.77832e-05
2.90733e-05
2.80081e-05
2.90767e-05
2.80082e-05
2.65152e-05
2.94739e-05
6.90486e-05
6.90507e-05
2.94727e-05
2.6515e-05
2.77828e-05
2.8008e-05
2.90724e-05
2.8008e-05
2.90757e-05
2.65149e-05
2.94714e-05
6.90517e-05
2.94733e-05
6.90492e-05
2.6514e-05
2.80081e-05
2.90748e-05
2.77831e-05
2.65142e-05
2.80081e-05
2.90718e-05
2.94715e-05
6.9053e-05
2.94734e-05
6.90508e-05
2.65139e-05
2.77833e-05
2.90726e-05
2.8008e-05
2.90758e-05
2.80081e-05
2.65139e-05
2.94738e-05
6.90487e-05
6.9051e-05
2.94723e-05
2.65145e-05
2.77831e-05
2.8008e-05
2.90722e-05
2.8008e-05
2.90753e-05
2.65144e-05
2.94739e-05
6.90504e-05
6.90524e-05
2.94723e-05
3.33972e-05
3.33995e-05
2.73425e-05
3.33976e-05
3.34e-05
8.22271e-05
8.22249e-05
8.22205e-05
8.22224e-05
2.73397e-05
3.33997e-05
3.34022e-05
3.34e-05
3.34021e-05
8.22243e-05
8.22259e-05
2.6514e-05
2.80081e-05
2.90754e-05
2.77833e-05
2.65141e-05
2.8008e-05
2.90724e-05
2.94713e-05
6.90534e-05
2.94732e-05
6.90512e-05
2.94714e-05
6.90551e-05
2.94729e-05
6.90529e-05
2.65139e-05
2.7783e-05
2.80079e-05
2.90721e-05
2.8008e-05
2.90753e-05
2.65139e-05
2.65145e-05
2.77833e-05
2.8008e-05
2.90727e-05
2.8008e-05
2.90759e-05
2.65144e-05
2.94737e-05
6.90508e-05
6.90528e-05
2.94722e-05
2.94736e-05
6.90526e-05
6.90545e-05
2.94724e-05
8.22272e-05
8.22249e-05
8.22269e-05
8.22247e-05
2.734e-05
3.34022e-05
3.34032e-05
3.34022e-05
3.34032e-05
8.22244e-05
8.22259e-05
8.22241e-05
8.22257e-05
8.22255e-05
8.22242e-05
8.2225e-05
8.22236e-05
3.34036e-05
3.3404e-05
2.73429e-05
3.34035e-05
3.34039e-05
8.22248e-05
8.22255e-05
8.22243e-05
8.2225e-05
2.73401e-05
3.34047e-05
3.34051e-05
3.34053e-05
3.34057e-05
2.94733e-05
6.90529e-05
2.94747e-05
6.9051e-05
2.65151e-05
2.90759e-05
2.8008e-05
2.77832e-05
2.65151e-05
2.90728e-05
2.8008e-05
2.65151e-05
2.90768e-05
2.8008e-05
2.77831e-05
2.65152e-05
2.90737e-05
2.8008e-05
2.94754e-05
6.9048e-05
6.90497e-05
2.94737e-05
2.94757e-05
6.90509e-05
6.90527e-05
2.9474e-05
2.65157e-05
2.77832e-05
2.90732e-05
2.8008e-05
2.90762e-05
2.8008e-05
2.65154e-05
2.65155e-05
2.77831e-05
2.90741e-05
2.8008e-05
2.90772e-05
2.8008e-05
2.65154e-05
3.34048e-05
3.34005e-05
2.73429e-05
3.34046e-05
3.33999e-05
8.2222e-05
8.22204e-05
8.22248e-05
8.22255e-05
2.73401e-05
3.34058e-05
3.34009e-05
3.34065e-05
3.3402e-05
8.22211e-05
8.2222e-05
2.65158e-05
2.9077e-05
2.80083e-05
2.77834e-05
2.65158e-05
2.90736e-05
2.80083e-05
2.94737e-05
6.90504e-05
2.9475e-05
6.90484e-05
2.65155e-05
2.8008e-05
2.90761e-05
2.77828e-05
2.65155e-05
2.8008e-05
2.90728e-05
2.94765e-05
6.90492e-05
6.90511e-05
2.9475e-05
2.65164e-05
2.77834e-05
2.90741e-05
2.80082e-05
2.90773e-05
2.80082e-05
2.65161e-05
2.94758e-05
6.90485e-05
6.90503e-05
2.94743e-05
2.65159e-05
2.77827e-05
2.80079e-05
2.90731e-05
2.80079e-05
2.90765e-05
2.65158e-05
2.94731e-05
6.90506e-05
2.94747e-05
6.90484e-05
2.6515e-05
2.8008e-05
2.90756e-05
2.77832e-05
2.6515e-05
2.8008e-05
2.90725e-05
2.94731e-05
6.90521e-05
2.94747e-05
6.90502e-05
2.65148e-05
2.77833e-05
2.90732e-05
2.8008e-05
2.90765e-05
2.8008e-05
2.65149e-05
2.94755e-05
6.90484e-05
6.90503e-05
2.94737e-05
2.65156e-05
2.7783e-05
2.8008e-05
2.9073e-05
2.8008e-05
2.90761e-05
2.65152e-05
2.94754e-05
6.90502e-05
6.9052e-05
2.94736e-05
3.34019e-05
3.34041e-05
2.73426e-05
3.34011e-05
3.34037e-05
8.22255e-05
8.22245e-05
8.22214e-05
8.22224e-05
2.73398e-05
3.3402e-05
3.34046e-05
3.34032e-05
3.34055e-05
8.22253e-05
8.22259e-05
2.6515e-05
2.8008e-05
2.90762e-05
2.77834e-05
2.6515e-05
2.8008e-05
2.90731e-05
2.94731e-05
6.90525e-05
2.94746e-05
6.90506e-05
2.94733e-05
6.90542e-05
2.94746e-05
6.90524e-05
2.65148e-05
2.77829e-05
2.80078e-05
2.90729e-05
2.80078e-05
2.9076e-05
2.65144e-05
2.65156e-05
2.77832e-05
2.80079e-05
2.90736e-05
2.80079e-05
2.90767e-05
2.65152e-05
2.94754e-05
6.90506e-05
6.90524e-05
2.94736e-05
2.94754e-05
6.90524e-05
6.90541e-05
2.94738e-05
8.22256e-05
8.22245e-05
8.22253e-05
8.22243e-05
2.73402e-05
3.34046e-05
3.34057e-05
3.34055e-05
3.34065e-05
8.22253e-05
8.2226e-05
8.22251e-05
8.22257e-05
8.22263e-05
8.22261e-05
8.22257e-05
8.22256e-05
3.34064e-05
3.34068e-05
2.73431e-05
3.3405e-05
3.34054e-05
8.22288e-05
8.2228e-05
8.22284e-05
8.22276e-05
2.73403e-05
3.34043e-05
3.34046e-05
3.34064e-05
3.34067e-05
2.94742e-05
6.90526e-05
2.94763e-05
6.90511e-05
2.65151e-05
2.90767e-05
2.8008e-05
2.77831e-05
2.65157e-05
2.90735e-05
2.80079e-05
2.65154e-05
2.90776e-05
2.8008e-05
2.7783e-05
2.65159e-05
2.90743e-05
2.80079e-05
2.9476e-05
6.90506e-05
6.90503e-05
2.94731e-05
2.94763e-05
6.90532e-05
6.90531e-05
2.94734e-05
2.6515e-05
2.77829e-05
2.90733e-05
2.80077e-05
2.90769e-05
2.80078e-05
2.65141e-05
2.65152e-05
2.77828e-05
2.90741e-05
2.80077e-05
2.90777e-05
2.80078e-05
2.65142e-05
3.34076e-05
3.34029e-05
2.73431e-05
3.34061e-05
3.34011e-05
8.22228e-05
8.22224e-05
8.22287e-05
8.22279e-05
2.73402e-05
3.34053e-05
3.34002e-05
3.34075e-05
3.34027e-05
8.22254e-05
8.22247e-05
2.65151e-05
2.90778e-05
2.80082e-05
2.77834e-05
2.6516e-05
2.90744e-05
2.80081e-05
2.94741e-05
6.90505e-05
2.94763e-05
6.90495e-05
2.65149e-05
2.80079e-05
2.90768e-05
2.77825e-05
2.65158e-05
2.80079e-05
2.90732e-05
2.94767e-05
6.90517e-05
6.90515e-05
2.94739e-05
2.6515e-05
2.77832e-05
2.90742e-05
2.80077e-05
2.9078e-05
2.80079e-05
2.65144e-05
2.94758e-05
6.90529e-05
6.9052e-05
2.94731e-05
2.65147e-05
2.77824e-05
2.80075e-05
2.90725e-05
2.80077e-05
2.90767e-05
2.65138e-05
2.94735e-05
6.90503e-05
2.94759e-05
6.90483e-05
2.65143e-05
2.80079e-05
2.90765e-05
2.77828e-05
2.65151e-05
2.80079e-05
2.90731e-05
2.94733e-05
6.9052e-05
2.94758e-05
6.90511e-05
2.65146e-05
2.77831e-05
2.90729e-05
2.80076e-05
2.9077e-05
2.80078e-05
2.65135e-05
2.94754e-05
6.90503e-05
6.90503e-05
2.94725e-05
2.65142e-05
2.77827e-05
2.80075e-05
2.90724e-05
2.80077e-05
2.90764e-05
2.65134e-05
2.94752e-05
6.90545e-05
6.90534e-05
2.94722e-05
3.34037e-05
3.34061e-05
2.73426e-05
3.34016e-05
3.34042e-05
8.22269e-05
8.22274e-05
8.22254e-05
8.22258e-05
2.73397e-05
3.34008e-05
3.34035e-05
3.34032e-05
3.34056e-05
8.22292e-05
8.22293e-05
2.65143e-05
2.80079e-05
2.90771e-05
2.7783e-05
2.65151e-05
2.80078e-05
2.90737e-05
2.94733e-05
6.90524e-05
2.94758e-05
6.90514e-05
2.94735e-05
6.90542e-05
2.94758e-05
6.90532e-05
2.65142e-05
2.77827e-05
2.80073e-05
2.90724e-05
2.80076e-05
2.90764e-05
2.6513e-05
2.65141e-05
2.77828e-05
2.80074e-05
2.9073e-05
2.80076e-05
2.9077e-05
2.65133e-05
2.94752e-05
6.90549e-05
6.90538e-05
2.94721e-05
2.94751e-05
6.90567e-05
6.90556e-05
2.94723e-05
8.22269e-05
8.22274e-05
8.22267e-05
8.22272e-05
2.73401e-05
3.34036e-05
3.34046e-05
3.34057e-05
3.34066e-05
8.22292e-05
8.22293e-05
8.2229e-05
8.22291e-05
8.22303e-05
8.22293e-05
8.22298e-05
8.22287e-05
3.34056e-05
3.3406e-05
2.73407e-05
3.34033e-05
3.34036e-05
8.22284e-05
8.22303e-05
8.22278e-05
8.22296e-05
2.73366e-05
3.33997e-05
3.34001e-05
3.34042e-05
3.34046e-05
2.94718e-05
6.90558e-05
2.94753e-05
6.90581e-05
2.65126e-05
2.90765e-05
2.80074e-05
2.77816e-05
2.6514e-05
2.90719e-05
2.80067e-05
2.65127e-05
2.90773e-05
2.80074e-05
2.77815e-05
2.6514e-05
2.90726e-05
2.80067e-05
2.94733e-05
6.90594e-05
6.90587e-05
2.94679e-05
2.94734e-05
6.9062e-05
6.90612e-05
2.94681e-05
2.65115e-05
2.77796e-05
2.9068e-05
2.80027e-05
2.90746e-05
2.80049e-05
2.65057e-05
2.65116e-05
2.77795e-05
2.90688e-05
2.80027e-05
2.90754e-05
2.80048e-05
2.65058e-05
3.34067e-05
3.34019e-05
2.73406e-05
3.34042e-05
3.33992e-05
8.22271e-05
8.22255e-05
8.22283e-05
8.22302e-05
2.73365e-05
3.34007e-05
3.33959e-05
3.34052e-05
3.34005e-05
8.22244e-05
8.22266e-05
2.6512e-05
2.90776e-05
2.80074e-05
2.77818e-05
2.65142e-05
2.90727e-05
2.80064e-05
2.94709e-05
6.90559e-05
2.94748e-05
6.90579e-05
2.65109e-05
2.80069e-05
2.90758e-05
2.77796e-05
2.65136e-05
2.80054e-05
2.90699e-05
2.94732e-05
6.90607e-05
6.90602e-05
2.94679e-05
2.65105e-05
2.77797e-05
2.90689e-05
2.80023e-05
2.90756e-05
2.80043e-05
2.65049e-05
2.94719e-05
6.90596e-05
6.90605e-05
2.94666e-05
2.65091e-05
2.77772e-05
2.80014e-05
2.90658e-05
2.80032e-05
2.90726e-05
2.65039e-05
2.94701e-05
6.90532e-05
2.94744e-05
6.90555e-05
2.65095e-05
2.80068e-05
2.90754e-05
2.77797e-05
2.6513e-05
2.80051e-05
2.90697e-05
2.94697e-05
6.90575e-05
2.94741e-05
6.90597e-05
2.65081e-05
2.77793e-05
2.90672e-05
2.80017e-05
2.90739e-05
2.80035e-05
2.65035e-05
2.94713e-05
6.90594e-05
6.90589e-05
2.94659e-05
2.65076e-05
2.77774e-05
2.80012e-05
2.90657e-05
2.80029e-05
2.90721e-05
2.65033e-05
2.9471e-05
6.90614e-05
6.90621e-05
2.94656e-05
3.34022e-05
3.34047e-05
2.73385e-05
3.33987e-05
3.34014e-05
8.22303e-05
8.22287e-05
8.22242e-05
8.22263e-05
2.73341e-05
3.33941e-05
3.33969e-05
3.33996e-05
3.3402e-05
8.22278e-05
8.22296e-05
2.65094e-05
2.80067e-05
2.9076e-05
2.77799e-05
2.65129e-05
2.80049e-05
2.90703e-05
2.94697e-05
6.90579e-05
2.94741e-05
6.90602e-05
2.94698e-05
6.90597e-05
2.9474e-05
6.9062e-05
2.65075e-05
2.77775e-05
2.8001e-05
2.90658e-05
2.80027e-05
2.90722e-05
2.65032e-05
2.65074e-05
2.77775e-05
2.8001e-05
2.90663e-05
2.80027e-05
2.90728e-05
2.65032e-05
2.9471e-05
6.90619e-05
6.90627e-05
2.94657e-05
2.94708e-05
6.90637e-05
6.90645e-05
2.94657e-05
8.22303e-05
8.22288e-05
8.22301e-05
8.22285e-05
2.73343e-05
3.3397e-05
3.3398e-05
3.3402e-05
3.3403e-05
8.22279e-05
8.22297e-05
8.22276e-05
8.22294e-05
8.22294e-05
8.22277e-05
8.22287e-05
8.22271e-05
3.33999e-05
3.34004e-05
2.73332e-05
3.33953e-05
3.33958e-05
8.22274e-05
8.22288e-05
8.22269e-05
8.22282e-05
2.73301e-05
3.33936e-05
3.33941e-05
3.33961e-05
3.33966e-05
2.94644e-05
6.9064e-05
2.94692e-05
6.90623e-05
2.65027e-05
2.90704e-05
2.80011e-05
2.77745e-05
2.65045e-05
2.90645e-05
2.80001e-05
2.65028e-05
2.90713e-05
2.8001e-05
2.77744e-05
2.65046e-05
2.90654e-05
2.80001e-05
2.94656e-05
6.90593e-05
6.90613e-05
2.94624e-05
2.9466e-05
6.9062e-05
6.9064e-05
2.94628e-05
2.65029e-05
2.77738e-05
2.90631e-05
2.79993e-05
2.90674e-05
2.79994e-05
2.65024e-05
2.6503e-05
2.77738e-05
2.90639e-05
2.79993e-05
2.90683e-05
2.79994e-05
2.65026e-05
3.34012e-05
3.33967e-05
2.73331e-05
3.33962e-05
3.33911e-05
8.22257e-05
8.22237e-05
8.22273e-05
8.22287e-05
2.733e-05
3.33946e-05
3.33892e-05
3.33972e-05
3.33922e-05
8.22235e-05
8.22251e-05
2.6503e-05
2.90714e-05
2.80008e-05
2.77747e-05
2.65042e-05
2.90654e-05
2.79999e-05
2.94638e-05
6.90615e-05
2.94677e-05
6.90595e-05
2.65027e-05
2.80002e-05
2.90687e-05
2.77737e-05
2.65035e-05
2.79996e-05
2.90634e-05
2.94661e-05
6.90606e-05
6.90627e-05
2.94633e-05
2.65033e-05
2.7774e-05
2.9064e-05
2.79993e-05
2.90685e-05
2.79994e-05
2.65028e-05
2.94654e-05
6.90592e-05
6.90613e-05
2.94627e-05
2.6503e-05
2.77734e-05
2.79992e-05
2.90625e-05
2.79992e-05
2.90667e-05
2.65026e-05
2.94632e-05
6.90615e-05
2.94672e-05
6.90597e-05
2.65025e-05
2.80001e-05
2.90683e-05
2.7774e-05
2.65032e-05
2.79996e-05
2.90634e-05
2.9463e-05
6.90631e-05
2.94669e-05
6.90612e-05
2.65032e-05
2.77741e-05
2.90626e-05
2.79993e-05
2.90671e-05
2.79994e-05
2.65026e-05
2.94651e-05
6.90594e-05
6.90615e-05
2.94623e-05
2.65028e-05
2.77737e-05
2.79993e-05
2.90626e-05
2.79993e-05
2.90665e-05
2.65024e-05
2.94649e-05
6.9061e-05
6.90629e-05
2.94621e-05
3.33948e-05
3.33974e-05
2.73325e-05
3.33909e-05
3.33941e-05
8.22289e-05
8.22274e-05
8.22235e-05
8.22251e-05
2.73296e-05
3.33901e-05
3.33933e-05
3.33923e-05
3.33953e-05
8.22273e-05
8.22285e-05
2.65025e-05
2.8e-05
2.90689e-05
2.77742e-05
2.65032e-05
2.79995e-05
2.9064e-05
2.94631e-05
6.90636e-05
2.9467e-05
6.90617e-05
2.94633e-05