/*--------------------------------*- C++ -*----------------------------------*\
| =========                 |                                                 |
| \\      /  F ield         | OpenFOAM: The Open Source CFD Toolbox           |
|  \\    /   O peration     | Version:  2206                                  |
|   \\  /    A nd           | Website:  www.openfoam.com                      |
|    \\/     M anipulation  |                                                 |
\*---------------------------------------------------------------------------*/
FoamFile
{
    version     2.0;
    format      ascii;
    arch        "LSB;label=32;scalar=64";
    class       volScalarField;
    location    "22.5";
    object      nut;
}
// * * * * * * * * * * * * * * * * * * * * * * * * * * * * * * * * * * * * * //

dimensions      [0 2 -1 0 0 0 0];

internalField   nonuniform List<scalar> 
28448
(
0.000224388
0.000204009
0.000204
0.000181372
0.000224388
0.000204009
0.000203998
0.00018137
0.000224388
0.000204006
0.000203997
0.000181368
0.000224387
0.000204006
0.000203997
0.000181367
0.000224383
0.000203997
0.000203984
0.000181342
0.000224357
0.000203952
0.000203945
0.000181289
0.000224366
0.000203955
0.000203949
0.0001813
0.000224367
0.000203956
0.000203949
0.000181294
0.000224367
0.000203956
0.00020395
0.000181297
0.000224367
0.000203957
0.00020395
0.000181297
0.000224367
0.000203957
0.00020395
0.000181296
0.000224367
0.000203957
0.00020395
0.000181296
0.000224367
0.000203957
0.00020395
0.000181296
0.000224367
0.000203957
0.00020395
0.000181296
0.000224367
0.000203957
0.00020395
0.000181296
0.000224367
0.000203957
0.00020395
0.000181296
0.000224367
0.000203957
0.00020395
0.000181296
0.000224369
0.000203951
0.000181536
0.000203994
0.000203991
0.00018154
0.000204004
0.000203983
0.000204009
0.000203992
0.000181526
0.000204
0.000204003
0.00018153
0.000181378
0.00018153
0.000203994
0.000203991
0.000203994
0.000203991
0.000181382
0.000181534
0.000204004
0.000203984
0.000204004
0.000203983
0.000203993
0.00020401
0.000203992
0.00018137
0.000181523
0.000204004
0.000203999
0.000204003
0.000181527
0.000181374
0.000181528
0.000203993
0.00020399
0.000203993
0.00020399
0.000181378
0.000181533
0.000204004
0.000203983
0.000204004
0.000203982
0.000203992
0.000204006
0.000203992
0.000181367
0.000181521
0.000204003
0.000203997
0.000204002
0.000181526
0.000181373
0.000181528
0.000203994
0.000203991
0.000203994
0.000203991
0.000181377
0.000181532
0.000204005
0.000203982
0.000204005
0.000203979
0.000203992
0.000204006
0.000203989
0.000181365
0.00018152
0.000204003
0.000203997
0.000204
0.000181525
0.000181373
0.000181522
0.000203992
0.00020399
0.000203988
0.000203985
0.000181377
0.000181524
0.000204005
0.000203979
0.000204
0.000203974
0.000203988
0.000204001
0.000203983
0.000181364
0.000181507
0.000203999
0.000203991
0.000203993
0.00018151
0.000181362
0.000181461
0.000203984
0.000203981
0.000203944
0.000203941
0.000181365
0.000181465
0.000203995
0.000203967
0.000203954
0.000203927
0.000203975
0.000203957
0.000203936
0.000181343
0.000181447
0.000203986
0.000203946
0.000203947
0.000181451
0.000181296
0.000181461
0.000203938
0.000203935
0.00020394
0.000203937
0.000181299
0.000181465
0.000203949
0.000203927
0.000203951
0.00020393
0.000203936
0.000203955
0.000203939
0.000181289
0.000181453
0.000203947
0.000203949
0.00020395
0.000181458
0.000181306
0.000181455
0.000203941
0.000203938
0.000203941
0.000203938
0.000181309
0.000181459
0.000203952
0.000203931
0.000203952
0.00020393
0.00020394
0.000203956
0.00020394
0.000181297
0.000181446
0.000203951
0.000203949
0.000203951
0.000181451
0.000181299
0.000181457
0.000203942
0.000203938
0.000203942
0.000203939
0.000181302
0.000181461
0.000203952
0.000203931
0.000203953
0.000203931
0.000203941
0.000203957
0.000203941
0.000181291
0.000181451
0.000203951
0.00020395
0.000203952
0.000181455
0.000181302
0.000181454
0.000203943
0.00020394
0.000203942
0.000203939
0.000181306
0.000181458
0.000203953
0.000203932
0.000203953
0.000203931
0.000203941
0.000203957
0.000203941
0.000181295
0.000181448
0.000203952
0.00020395
0.000203952
0.000181453
0.000181299
0.000181456
0.000203943
0.00020394
0.000203942
0.000203939
0.000181302
0.00018146
0.000203953
0.000203932
0.000203953
0.000203931
0.000203941
0.000203957
0.000203941
0.000181293
0.000181449
0.000203952
0.00020395
0.000203952
0.000181453
0.0001813
0.000181457
0.000203942
0.000203939
0.000203942
0.000203939
0.000181303
0.000181461
0.000203953
0.000203932
0.000203953
0.000203931
0.000203941
0.000203957
0.000203941
0.000181293
0.00018145
0.000203952
0.00020395
0.000203952
0.000181453
0.000181301
0.000181457
0.000203943
0.00020394
0.000203942
0.000203939
0.000181304
0.000181461
0.000203953
0.000203932
0.000203953
0.000203931
0.000203941
0.000203957
0.000203941
0.000181294
0.00018145
0.000203952
0.00020395
0.000203952
0.000181454
0.000181301
0.000181457
0.000203943
0.00020394
0.000203942
0.000203939
0.000181305
0.000181461
0.000203953
0.000203932
0.000203953
0.000203931
0.000203941
0.000203957
0.000203941
0.000181294
0.00018145
0.000203952
0.00020395
0.000203952
0.000181454
0.000181301
0.000181457
0.000203943
0.00020394
0.000203942
0.000203939
0.000181304
0.000181461
0.000203953
0.000203932
0.000203953
0.000203931
0.000203941
0.000203957
0.000203941
0.000181294
0.00018145
0.000203952
0.00020395
0.000203952
0.000181454
0.000181301
0.000181457
0.000203943
0.00020394
0.000203942
0.000203939
0.000181305
0.000181461
0.000203953
0.000203932
0.000203953
0.000203931
0.000203941
0.000203957
0.000203941
0.000181294
0.00018145
0.000203952
0.00020395
0.000203951
0.000181454
0.000181301
0.000181457
0.000203943
0.00020394
0.000203942
0.000203939
0.000181305
0.000181461
0.000203953
0.000203932
0.000203953
0.000203931
0.000203941
0.000203957
0.000203941
0.000181294
0.00018145
0.000203952
0.00020395
0.000203951
0.000181454
0.000181301
0.000181457
0.000203943
0.000203939
0.000203943
0.000181305
0.000203953
0.000203932
0.000203953
0.000203931
0.000203941
0.000203942
0.000181294
0.00018145
0.000203952
0.000203949
0.000203953
0.000181457
0.000181305
0.000203953
0.000203932
0.000181294
0.000224388
0.000224388
0.000224385
0.000224387
4.60886e-05
4.92126e-05
4.60791e-05
4.92115e-05
2.56726e-05
2.56717e-05
4.60966e-05
4.92083e-05
4.60881e-05
4.92071e-05
0.000224388
0.000224386
0.000224387
0.000224388
0.000224389
0.000224385
0.000224386
0.000109258
5.62302e-05
0.000217167
0.00020401
0.000109232
5.62473e-05
0.000217167
2.56695e-05
2.56688e-05
0.000109253
0.000217163
5.62318e-05
0.000204
0.000109224
0.000217162
5.62484e-05
3.53642e-05
3.5358e-05
0.000181528
3.53687e-05
3.53625e-05
4.60903e-05
4.92117e-05
4.60819e-05
4.92107e-05
2.56713e-05
2.56709e-05
4.6097e-05
4.92074e-05
4.60892e-05
4.92064e-05
0.000224387
0.000224385
0.000224388
0.000224388
0.000224386
0.000224384
0.000224388
0.000109256
5.62331e-05
0.000217166
0.000204007
0.00010923
5.62503e-05
0.000217164
2.56685e-05
2.56682e-05
0.000109251
0.000217162
5.62348e-05
0.000203998
0.000109223
0.000217161
5.62511e-05
3.53711e-05
3.53652e-05
0.000181527
3.53771e-05
3.53711e-05
4.60954e-05
4.92113e-05
4.60852e-05
4.92105e-05
2.56709e-05
2.56707e-05
4.61031e-05
4.92069e-05
4.60935e-05
4.92061e-05
0.000224389
0.000224384
0.000224388
0.000224387
0.00022439
0.000224383
0.000224386
0.00010926
5.62355e-05
0.000217163
0.000204007
0.000109231
5.62522e-05
0.000217163
2.56682e-05
2.56681e-05
0.000109254
0.00021716
5.62368e-05
0.000203995
0.000109225
0.00021716
5.62534e-05
3.53788e-05
3.53729e-05
0.000181525
3.53834e-05
3.53774e-05
4.60985e-05
4.92112e-05
4.60903e-05
4.92105e-05
2.5671e-05
2.5671e-05
4.61054e-05
4.92068e-05
4.60984e-05
4.92061e-05
0.000224388
0.000224383
0.000224386
0.000224385
0.000224385
0.000224381
0.000224383
0.000109262
5.62377e-05
0.000217165
0.000204004
0.000109237
5.62541e-05
0.000217165
2.56684e-05
2.56685e-05
0.000109254
0.000217162
5.62398e-05
0.000203995
0.000109228
0.000217161
5.62547e-05
3.53828e-05
3.53768e-05
0.000181523
3.53848e-05
3.53787e-05
4.60824e-05
4.92124e-05
4.6084e-05
4.92131e-05
2.56716e-05
2.56715e-05
4.6087e-05
4.9208e-05
4.60899e-05
4.92087e-05
0.000224383
0.000224376
0.000224377
0.000224358
0.000224357
0.000224355
0.000224356
0.000109221
5.62306e-05
0.000217157
0.000203988
0.000109219
5.62372e-05
0.000217143
2.5669e-05
2.56688e-05
0.000109212
0.000217151
5.62284e-05
0.000203968
0.00010921
0.000217135
5.62339e-05
3.5377e-05
3.5371e-05
0.000181477
3.53756e-05
3.53697e-05
4.60621e-05
4.92153e-05
4.60591e-05
4.92146e-05
2.56714e-05
2.56712e-05
4.60684e-05
4.92109e-05
4.60651e-05
4.92102e-05
0.000224358
0.000224358
0.000224359
0.000224365
0.000224366
0.000224364
0.000224365
0.000109184
5.62046e-05
0.000217124
0.000203952
0.000109154
5.62155e-05
0.000217127
2.56688e-05
2.56686e-05
0.000109178
0.000217122
5.62044e-05
0.000203947
0.000109147
0.000217125
5.62168e-05
3.53648e-05
3.53589e-05
0.000181457
3.53652e-05
3.53592e-05
4.60589e-05
4.92151e-05
4.60513e-05
4.92144e-05
2.56713e-05
2.56712e-05
4.6066e-05
4.92108e-05
4.6059e-05
4.921e-05
0.000224367
0.000224365
0.000224366
0.000224367
0.000224367
0.000224364
0.000224366
0.000109186
5.61963e-05
0.00021713
0.000203956
0.000109159
5.62119e-05
0.00021713
2.56687e-05
2.56685e-05
0.000109178
0.000217128
5.61996e-05
0.000203949
0.000109151
0.000217128
5.62149e-05
3.53615e-05
3.53556e-05
0.000181453
3.53641e-05
3.53581e-05
4.60588e-05
4.92151e-05
4.60508e-05
4.92144e-05
2.56713e-05
2.56712e-05
4.60659e-05
4.92108e-05
4.60586e-05
4.921e-05
0.000224367
0.000224365
0.000224366
0.000224367
0.000224367
0.000224365
0.000224366
0.000109183
5.61957e-05
0.00021713
0.000203957
0.000109157
5.62117e-05
0.000217131
2.56687e-05
2.56685e-05
0.000109178
0.000217128
5.61993e-05
0.00020395
0.000109152
0.000217129
5.62149e-05
3.53615e-05
3.53555e-05
0.000181453
3.53641e-05
3.53581e-05
4.60588e-05
4.92151e-05
4.60508e-05
4.92144e-05
2.56713e-05
2.56712e-05
4.60659e-05
4.92108e-05
4.60586e-05
4.921e-05
0.000224368
0.000224365
0.000224366
0.000224367
0.000224367
0.000224365
0.000224366
0.000109185
5.61957e-05
0.000217131
0.000203957
0.000109158
5.62117e-05
0.000217131
2.56687e-05
2.56685e-05
0.00010918
0.000217129
5.61993e-05
0.00020395
0.000109153
0.000217129
5.62149e-05
3.53615e-05
3.53555e-05
0.000181453
3.53641e-05
3.53581e-05
4.60588e-05
4.92151e-05
4.60508e-05
4.92144e-05
2.56713e-05
2.56712e-05
4.60659e-05
4.92108e-05
4.60586e-05
4.921e-05
0.000224368
0.000224365
0.000224366
0.000224367
0.000224367
0.000224365
0.000224366
0.000109184
5.61957e-05
0.000217131
0.000203957
0.000109157
5.62117e-05
0.000217131
2.56687e-05
2.56685e-05
0.000109177
0.000217129
5.61993e-05
0.00020395
0.000109151
0.000217129
5.62148e-05
3.53615e-05
3.53555e-05
0.000181454
3.53641e-05
3.53581e-05
4.60588e-05
4.92151e-05
4.60508e-05
4.92144e-05
2.56713e-05
2.56712e-05
4.60659e-05
4.92108e-05
4.60586e-05
4.921e-05
0.000224368
0.000224365
0.000224366
0.000224367
0.000224367
0.000224364
0.000224366
0.000109183
5.61957e-05
0.000217131
0.000203957
0.000109158
5.62117e-05
0.000217131
2.56687e-05
2.56685e-05
0.000109175
0.000217129
5.61993e-05
0.00020395
0.000109149
0.000217129
5.62148e-05
3.53615e-05
3.53555e-05
0.000181454
3.53641e-05
3.53581e-05
4.60588e-05
4.92151e-05
4.60508e-05
4.92144e-05
2.56713e-05
2.56712e-05
4.60659e-05
4.92108e-05
4.60586e-05
4.921e-05
0.000224368
0.000224365
0.000224366
0.000224367
0.000224367
0.000224364
0.000224366
0.000109186
5.61956e-05
0.000217131
0.000203957
0.000109158
5.62117e-05
0.000217131
2.56687e-05
2.56685e-05
0.000109174
0.000217129
5.61993e-05
0.00020395
0.000109148
0.000217129
5.62148e-05
3.53615e-05
3.53555e-05
0.000181454
3.53641e-05
3.53581e-05
4.60588e-05
4.92151e-05
4.60508e-05
4.92144e-05
2.56713e-05
2.56712e-05
4.60659e-05
4.92108e-05
4.60586e-05
4.921e-05
0.000224368
0.000224365
0.000224366
0.000224367
0.000224367
0.000224364
0.000224366
0.000109183
5.61956e-05
0.000217131
0.000203957
0.000109158
5.62117e-05
0.000217131
2.56687e-05
2.56685e-05
0.000109173
0.000217128
5.61993e-05
0.00020395
0.000109146
0.000217129
5.62148e-05
3.53615e-05
3.53555e-05
0.000181454
3.53641e-05
3.53581e-05
4.60588e-05
4.92151e-05
4.60508e-05
4.92144e-05
2.56713e-05
2.56712e-05
4.60659e-05
4.92108e-05
4.60586e-05
4.921e-05
0.000224368
0.000224365
0.000224366
0.000224367
0.000224367
0.000224364
0.000224366
0.000109185
5.61957e-05
0.000217131
0.000203957
0.000109158
5.62117e-05
0.000217131
2.56687e-05
2.56685e-05
0.000109173
0.000217128
5.61993e-05
0.00020395
0.000109146
0.000217129
5.62148e-05
3.53614e-05
3.53554e-05
0.000181454
3.53641e-05
3.53581e-05
4.60588e-05
4.92151e-05
4.60508e-05
4.92144e-05
2.56713e-05
2.56712e-05
4.60659e-05
4.92108e-05
4.60586e-05
4.921e-05
0.000224368
0.000224365
0.000224366
0.000224367
0.000224367
0.000224364
0.000224366
0.000109183
5.61957e-05
0.000217131
0.000203957
0.000109157
5.62117e-05
0.000217131
2.56687e-05
2.56685e-05
0.000109172
0.000217128
5.61993e-05
0.00020395
0.000109146
0.000217129
5.62148e-05
3.53615e-05
3.53554e-05
0.000181454
3.53641e-05
3.53581e-05
4.60588e-05
4.92151e-05
4.60508e-05
4.92144e-05
2.56713e-05
2.56712e-05
4.60659e-05
4.92108e-05
4.60586e-05
4.921e-05
0.000224368
0.000224365
0.000224366
0.000224367
0.000224367
0.000224364
0.000224366
0.000109186
5.61957e-05
0.000217131
0.000203957
0.000109158
5.62118e-05
0.000217131
2.56687e-05
2.56685e-05
0.000109173
0.000217128
5.61993e-05
0.00020395
0.000109146
0.000217129
5.62148e-05
3.53615e-05
3.53554e-05
0.000181454
3.53641e-05
3.5358e-05
4.60588e-05
4.92151e-05
4.60508e-05
4.92144e-05
2.56713e-05
2.56712e-05
4.60659e-05
4.92108e-05
4.60586e-05
4.921e-05
0.000224368
0.000224365
0.000224366
0.000224367
0.00022437
0.000224365
0.000224367
0.000109186
5.61957e-05
0.000217131
0.000203957
0.000109158
5.62118e-05
0.000217131
2.56687e-05
2.56685e-05
0.000109173
0.000217128
5.61993e-05
0.00020395
0.000109146
0.000217129
5.62148e-05
3.53615e-05
3.53555e-05
0.000181453
3.53641e-05
3.53581e-05
4.92108e-05
4.60586e-05
0.000224366
2.56687e-05
5.62003e-05
2.56738e-05
2.56718e-05
3.53672e-05
3.53601e-05
4.92121e-05
4.60865e-05
4.92119e-05
4.60873e-05
5.62505e-05
0.000217166
0.000109262
5.62479e-05
0.000217165
0.000109263
2.56727e-05
3.5363e-05
3.53597e-05
2.56733e-05
4.92077e-05
4.60948e-05
5.62408e-05
0.000217166
0.000109269
4.60845e-05
4.92048e-05
4.92068e-05
4.60921e-05
0.000109237
0.000203983
0.000217162
5.62341e-05
0.000217162
5.6218e-05
0.000109262
0.000109235
5.62458e-05
0.000217167
0.000217167
0.000109259
4.60779e-05
4.92103e-05
4.60861e-05
0.000109235
0.000203992
0.000217165
5.62465e-05
0.000217165
5.62313e-05
0.000109259
4.60776e-05
4.92083e-05
4.92102e-05
4.60859e-05
2.56695e-05
2.56704e-05
0.000181349
3.53532e-05
3.53662e-05
3.53469e-05
3.53641e-05
2.56721e-05
2.5673e-05
0.000109227
0.000204001
0.000217163
5.6247e-05
0.000217164
5.62319e-05
0.000109252
0.000109235
0.000204003
0.000217164
5.62431e-05
0.000217164
5.62277e-05
0.00010926
4.60769e-05
4.92081e-05
4.921e-05
4.60852e-05
4.60836e-05
4.9208e-05
4.92098e-05
4.60912e-05
0.000181355
3.53665e-05
3.53602e-05
3.53634e-05
3.53577e-05
2.56719e-05
2.56728e-05
2.56709e-05
2.56718e-05
2.56737e-05
2.56728e-05
2.56717e-05
2.56709e-05
3.53648e-05
3.53577e-05
0.00018153
3.53685e-05
3.53615e-05
2.56723e-05
2.56729e-05
2.56703e-05
2.56709e-05
0.000181375
3.53719e-05
3.53647e-05
3.53668e-05
3.53597e-05
4.60893e-05
4.92124e-05
4.6081e-05
4.92114e-05
0.000109262
5.6237e-05
0.000217166
0.000203994
0.000109237
5.6252e-05
0.000217166
0.000109263
5.6234e-05
0.000217165
0.000203991
0.000109238
5.62494e-05
0.000217165
4.60823e-05
4.92111e-05
4.9212e-05
4.60898e-05
4.6083e-05
4.92109e-05
4.92118e-05
4.60904e-05
0.000109238
0.000203994
5.62534e-05
0.000217166
5.62385e-05
0.000217166
0.000109262
0.000109239
0.000203991
5.62507e-05
0.000217165
5.62355e-05
0.000217165
0.000109263
3.53609e-05
3.53574e-05
0.000181534
3.53645e-05
3.53612e-05
2.56733e-05
2.56724e-05
2.56712e-05
2.56718e-05
0.000181378
3.53668e-05
3.53627e-05
3.53625e-05
3.53584e-05
2.56718e-05
2.56725e-05
0.000109269
5.62265e-05
0.000217166
0.000204005
0.000109245
5.62423e-05
0.000217166
4.60932e-05
4.92054e-05
4.60865e-05
4.92044e-05
0.000109263
0.000217162
5.62198e-05
0.000203984
0.000109239
0.000217162
5.62356e-05
4.60907e-05
4.92067e-05
4.92076e-05
4.60966e-05
0.000109245
0.000204005
5.62437e-05
0.000217165
5.62279e-05
0.000217165
0.000109267
4.60872e-05
4.9204e-05
4.92049e-05
4.60932e-05
0.000109239
0.000203984
0.000217162
5.62371e-05
0.000217162
5.62212e-05
0.000109263
4.60879e-05
4.92109e-05
4.60799e-05
4.92098e-05
0.000109262
0.000217165
5.62328e-05
0.000203993
0.000109236
0.000217165
5.6248e-05
4.60879e-05
4.92088e-05
4.60796e-05
4.92079e-05
0.000109234
0.00020401
5.62488e-05
0.000217167
5.62331e-05
0.000217167
0.000109257
4.60814e-05
4.92094e-05
4.92103e-05
4.60884e-05
0.000109239
0.000203993
0.000217165
5.62495e-05
0.000217166
5.62343e-05
0.00010926
4.60815e-05
4.92075e-05
4.92084e-05
4.60889e-05
3.53507e-05
3.53641e-05
0.000181523
3.53542e-05
3.53685e-05
2.56721e-05
2.56714e-05
2.56684e-05
2.56689e-05
0.000181367
3.53572e-05
3.53727e-05
3.53517e-05
3.5367e-05
2.5671e-05
2.56714e-05
0.000109262
0.000217164
5.62292e-05
0.000204004
0.000109237
0.000217164
5.62446e-05
4.6087e-05
4.92086e-05
4.60789e-05
4.92076e-05
4.60922e-05
4.92084e-05
4.60855e-05
4.92075e-05
0.000109229
0.000204
0.000217162
5.62499e-05
0.000217163
5.62348e-05
0.000109251
0.000109238
0.000204004
0.000217164
5.62461e-05
0.000217164
5.62307e-05
0.00010926
4.60803e-05
4.92072e-05
4.92081e-05
4.60874e-05
4.60862e-05
4.92071e-05
4.9208e-05
4.60922e-05
2.56719e-05
2.56712e-05
2.56709e-05
2.56702e-05
0.000181373
3.53726e-05
3.53666e-05
3.5367e-05
3.53609e-05
2.56708e-05
2.56712e-05
2.56698e-05
2.56702e-05
2.56724e-05
2.5672e-05
2.56704e-05
2.567e-05
3.53707e-05
3.53634e-05
0.000181529
3.53766e-05
3.53693e-05
2.56718e-05
2.56721e-05
2.56699e-05
2.56702e-05
0.000181373
3.53809e-05
3.53734e-05
3.53754e-05
3.5368e-05
4.60908e-05
4.92114e-05
4.60837e-05
4.92106e-05
0.000109263
5.62398e-05
0.000217163
0.000203993
0.000109239
5.62547e-05
0.000217163
0.000109264
5.62368e-05
0.000217163
0.00020399
0.00010924
5.6252e-05
0.000217162
4.60839e-05
4.92106e-05
4.92113e-05
4.60923e-05
4.60843e-05
4.92104e-05
4.92112e-05
4.60928e-05
0.000109239
0.000203994
5.62556e-05
0.000217163
5.62411e-05
0.000217163
0.000109263
0.00010924
0.00020399
5.62529e-05
0.000217162
5.62381e-05
0.000217162
0.000109264
3.53653e-05
3.5361e-05
0.000181533
3.5371e-05
3.5368e-05
2.5672e-05
2.56715e-05
2.56708e-05
2.56711e-05
0.000181377
3.53751e-05
3.53724e-05
3.53697e-05
3.53667e-05
2.56714e-05
2.56717e-05
0.000109264
5.62293e-05
0.000217164
0.000204004
0.000109243
5.6245e-05
0.000217164
4.60948e-05
4.92046e-05
4.60874e-05
4.92038e-05
0.000109263
0.00021716
5.62228e-05
0.000203983
0.000109239
0.000217159
5.62388e-05
4.60915e-05
4.92062e-05
4.9207e-05
4.60998e-05
0.000109241
0.000204004
5.6246e-05
0.000217164
5.62307e-05
0.000217165
0.000109266
4.60896e-05
4.92037e-05
4.92044e-05
4.60981e-05
0.000109239
0.000203983
0.000217159
5.62401e-05
0.000217159
5.62245e-05
0.000109264
4.60894e-05
4.921e-05
4.60817e-05
4.92091e-05
0.000109259
0.000217163
5.62358e-05
0.000203992
0.000109235
0.000217162
5.62508e-05
4.60899e-05
4.9208e-05
4.60823e-05
4.92072e-05
0.000109232
0.000204006
5.62514e-05
0.000217163
5.62361e-05
0.000217164
0.000109258
4.60832e-05
4.92089e-05
4.92097e-05
4.60922e-05
0.000109236
0.000203992
0.000217162
5.62517e-05
0.000217162
5.6237e-05
0.00010926
4.60837e-05
4.92071e-05
4.92078e-05
4.60924e-05
3.53555e-05
3.53715e-05
0.000181521
3.5362e-05
3.53773e-05
2.56711e-05
2.56708e-05
2.56681e-05
2.56684e-05
0.000181366
3.53656e-05
3.53809e-05
3.53601e-05
3.53759e-05
2.56707e-05
2.56709e-05
0.000109259
0.000217161
5.62322e-05
0.000204003
0.000109235
0.000217161
5.62474e-05
4.60884e-05
4.92078e-05
4.60806e-05
4.9207e-05
4.60938e-05
4.92077e-05
4.60864e-05
4.92069e-05
0.000109226
0.000203997
0.00021716
5.62521e-05
0.000217161
5.62374e-05
0.000109252
0.000109236
0.000204003
0.000217161
5.62483e-05
0.000217161
5.62334e-05
0.000109261
4.60822e-05
4.92069e-05
4.92076e-05
4.60913e-05
4.60886e-05
4.92068e-05
4.92075e-05
4.60971e-05
2.56709e-05
2.56706e-05
2.56699e-05
2.56696e-05
0.000181371
3.53807e-05
3.53747e-05
3.53757e-05
3.53697e-05
2.56705e-05
2.56707e-05
2.56695e-05
2.56697e-05
2.5672e-05
2.56718e-05
2.567e-05
2.56698e-05
3.53794e-05
3.53719e-05
0.000181527
3.53841e-05
3.53766e-05
2.56719e-05
2.5672e-05
2.56699e-05
2.567e-05
0.000181372
3.53863e-05
3.53788e-05
3.53824e-05
3.53749e-05
4.60958e-05
4.9211e-05
4.60868e-05
4.92103e-05
0.000109266
5.6242e-05
0.000217163
0.000203994
0.00010924
5.62567e-05
0.000217163
0.000109265
5.62388e-05
0.000217162
0.000203991
0.00010924
5.62538e-05
0.000217162
4.60894e-05
4.92105e-05
4.92111e-05
4.60979e-05
4.60898e-05
4.92103e-05
4.92109e-05
4.60982e-05
0.000109243
0.000203995
5.62582e-05
0.000217164
5.62432e-05
0.000217164
0.000109267
0.000109241
0.000203992
5.62553e-05
0.000217164
5.62399e-05
0.000217163
0.000109267
3.53736e-05
3.53704e-05
0.000181531
3.53783e-05
3.53752e-05
2.56716e-05
2.56713e-05
2.56708e-05
2.56709e-05
0.000181376
3.53805e-05
3.53771e-05
3.53766e-05
3.5373e-05
2.56714e-05
2.56716e-05
0.000109269
5.62315e-05
0.000217164
0.000204005
0.000109243
5.62469e-05
0.000217165
4.61013e-05
4.92043e-05
4.6093e-05
4.92036e-05
0.000109268
0.000217158
5.62257e-05
0.000203981
0.000109241
0.000217159
5.62414e-05
4.60979e-05
4.92061e-05
4.92067e-05
4.61054e-05
0.000109247
0.000204005
5.62485e-05
0.000217168
5.62326e-05
0.000217167
0.000109271
4.6096e-05
4.92036e-05
4.92043e-05
4.61032e-05
0.000109243
0.000203979
0.000217161
5.62427e-05
0.00021716
5.62271e-05
0.00010927
4.6095e-05
4.92096e-05
4.60862e-05
4.92088e-05
0.000109264
0.000217161
5.62379e-05
0.000203991
0.000109238
0.000217161
5.62531e-05
4.60951e-05
4.92077e-05
4.60863e-05
4.9207e-05
0.000109237
0.000204006
5.62534e-05
0.000217165
5.62379e-05
0.000217164
0.000109264
4.6089e-05
4.92088e-05
4.92095e-05
4.60968e-05
0.000109241
0.000203989
0.000217164
5.62548e-05
0.000217163
5.62394e-05
0.000109265
4.6089e-05
4.9207e-05
4.92077e-05
4.60966e-05
3.53634e-05
3.53792e-05
0.000181519
3.53681e-05
3.53836e-05
2.56709e-05
2.56707e-05
2.56682e-05
2.56684e-05
0.000181364
3.53696e-05
3.53853e-05
3.53656e-05
3.53817e-05
2.56708e-05
2.56709e-05
0.000109264
0.000217159
5.62344e-05
0.000204002
0.000109238
0.00021716
5.62497e-05
4.60942e-05
4.92075e-05
4.60852e-05
4.92068e-05
4.61001e-05
4.92074e-05
4.60919e-05
4.92067e-05
0.00010923
0.000203995
0.000217161
5.6255e-05
0.000217161
5.62398e-05
0.000109255
0.000109242
0.000204
0.000217162
5.62514e-05
0.000217162
5.62359e-05
0.000109266
4.60879e-05
4.92068e-05
4.92074e-05
4.60958e-05
4.60948e-05
4.92067e-05
4.92073e-05
4.61018e-05
2.56707e-05
2.56705e-05
2.56697e-05
2.56695e-05
0.00018137
3.53851e-05
3.53791e-05
3.53815e-05
3.53755e-05
2.56706e-05
2.56707e-05
2.56696e-05
2.56697e-05
2.56721e-05
2.56721e-05
2.56701e-05
2.56701e-05
3.53844e-05
3.53768e-05
0.000181528
3.53874e-05
3.53798e-05
2.56725e-05
2.56724e-05
2.56706e-05
2.56704e-05
0.000181372
3.53849e-05
3.53772e-05
3.53848e-05
3.53771e-05
4.60989e-05
4.92109e-05
4.60918e-05
4.92103e-05
0.000109266
5.62448e-05
0.000217164
0.000203992
0.000109242
5.62593e-05
0.000217165
0.000109268
5.62415e-05
0.000217165
0.000203989
0.000109244
5.62564e-05
0.000217165
4.60916e-05
4.92113e-05
4.92113e-05
4.60947e-05
4.60921e-05
4.92111e-05
4.92111e-05
4.60953e-05
0.000109238
0.00020399
5.62553e-05
0.000217163
5.62451e-05
0.000217164
0.000109256
0.000109239
0.000203987
5.62525e-05
0.000217163
5.62419e-05
0.000217165
0.000109257
3.53785e-05
3.53746e-05
0.000181531
3.53815e-05
3.53778e-05
2.56717e-05
2.56716e-05
2.56714e-05
2.56713e-05
0.000181375
3.53789e-05
3.53749e-05
3.53789e-05
3.53746e-05
2.56721e-05
2.5672e-05
0.000109264
5.62342e-05
0.000217167
0.000204004
0.000109243
5.62496e-05
0.000217165
4.61029e-05
4.92043e-05
4.60974e-05
4.9204e-05
0.000109263
0.000217161
5.62283e-05
0.000203979
0.000109242
0.000217161
5.6242e-05
4.60989e-05
4.92069e-05
4.92069e-05
4.61003e-05
0.000109236
0.000204002
5.62455e-05
0.000217161
5.62346e-05
0.000217164
0.000109256
4.60961e-05
4.92051e-05
4.92048e-05
4.60958e-05
0.000109234
0.000203977
0.000217157
5.62342e-05
0.00021716
5.6226e-05
0.000109251
4.60967e-05
4.92095e-05
4.60903e-05
4.92088e-05
0.000109259
0.000217164
5.6241e-05
0.000203988
0.000109238
0.000217164
5.62543e-05
4.6096e-05
4.92077e-05
4.609e-05
4.92073e-05
0.000109234
0.000204003
5.62493e-05
0.000217162
5.62391e-05
0.000217165
0.000109249
4.60889e-05
4.92094e-05
4.92095e-05
4.60887e-05
0.000109231
0.000203986
0.00021716
5.62464e-05
0.000217163
5.62389e-05
0.000109248
4.60882e-05
4.92085e-05
4.92082e-05
4.60879e-05
3.5367e-05
3.53832e-05
0.000181517
3.53692e-05
3.53849e-05
2.56711e-05
2.56711e-05
2.56688e-05
2.56689e-05
0.000181361
3.53652e-05
3.53811e-05
3.53654e-05
3.53817e-05
2.56714e-05
2.56714e-05
0.000109259
0.000217162
5.62375e-05
0.000203999
0.000109238
0.000217162
5.62509e-05
4.60954e-05
4.92074e-05
4.60891e-05
4.92071e-05
4.61011e-05
4.92073e-05
4.60959e-05
4.9207e-05
0.000109226
0.000203994
0.000217158
5.62471e-05
0.000217161
5.62395e-05
0.000109241
0.00010923
0.000203997
0.000217158
5.6243e-05
0.000217161
5.62354e-05
0.000109247
4.60876e-05
4.92083e-05
4.92079e-05
4.60876e-05
4.6094e-05
4.92082e-05
4.92078e-05
4.60929e-05
2.56709e-05
2.5671e-05
2.56699e-05
2.567e-05
0.000181367
3.53809e-05
3.53749e-05
3.53815e-05
3.53755e-05
2.56712e-05
2.56712e-05
2.56702e-05
2.56703e-05
2.56727e-05
2.56726e-05
2.56708e-05
2.56706e-05
3.53812e-05
3.53736e-05
0.000181499
3.53803e-05
3.53728e-05
2.56724e-05
2.56727e-05
2.56705e-05
2.56708e-05
0.000181329
3.53739e-05
3.53666e-05
3.53764e-05
3.5369e-05
4.60831e-05
4.9212e-05
4.60858e-05
4.92128e-05
0.000109241
5.6239e-05
0.00021716
0.000203976
0.000109226
5.6244e-05
0.000217153
0.000109242
5.62359e-05
0.00021716
0.000203973
0.000109227
5.62412e-05
0.000217152
4.60718e-05
4.92145e-05
4.92142e-05
4.60697e-05
4.60725e-05
4.92142e-05
4.92139e-05
4.60703e-05
0.000109206
0.000203958
5.623e-05
0.000217126
5.62264e-05
0.000217136
0.000109194
0.000109206
0.000203954
5.62272e-05
0.000217125
5.62233e-05
0.000217134
0.000109194
3.53753e-05
3.53708e-05
0.000181501
3.53743e-05
3.53707e-05
2.56724e-05
2.56721e-05
2.56714e-05
2.56717e-05
0.000181331
3.53681e-05
3.53648e-05
3.53705e-05
3.53666e-05
2.56719e-05
2.56723e-05
0.000109236
5.62283e-05
0.000217157
0.000203986
0.000109226
5.62341e-05
0.000217147
4.60824e-05
4.92062e-05
4.60862e-05
4.92069e-05
0.000109228
0.000217151
5.62163e-05
0.000203949
0.000109221
0.000217136
5.62209e-05
4.60771e-05
4.92101e-05
4.92099e-05
4.60746e-05
0.000109198
0.000203967
5.62202e-05
0.000217123
5.62158e-05
0.00021713
0.000109189
4.60729e-05
4.92076e-05
4.92078e-05
4.60714e-05
0.000109188
0.000203935
0.000217119
5.62087e-05
0.000217124
5.62026e-05
0.000109184
4.60753e-05
4.92105e-05
4.60782e-05
4.92112e-05
0.000109219
0.000217153
5.62291e-05
0.000203957
0.000109217
0.000217136
5.62331e-05
4.60745e-05
4.92096e-05
4.60774e-05
4.92103e-05
0.000109183
0.000203969
5.62234e-05
0.000217125
5.62189e-05
0.00021713
0.000109182
4.60653e-05
4.92127e-05
4.92125e-05
4.6065e-05
0.000109179
0.000203944
0.000217122
5.62211e-05
0.000217126
5.62154e-05
0.00010918
4.60645e-05
4.9211e-05
4.92112e-05
4.60644e-05
3.53609e-05
3.53774e-05
0.000181472
3.53599e-05
3.5376e-05
2.56716e-05
2.56713e-05
2.56686e-05
2.5669e-05
0.0001813
3.53529e-05
3.53691e-05
3.53553e-05
3.53718e-05
2.56712e-05
2.56715e-05
0.000109218
0.00021715
5.62255e-05
0.000203968
0.000109217
0.000217134
5.62297e-05
4.60745e-05
4.92093e-05
4.60772e-05
4.92101e-05
4.60797e-05
4.92092e-05
4.60832e-05
4.921e-05
0.000109172
0.000203954
0.000217121
5.62218e-05
0.000217125
5.62163e-05
0.000109176
0.000109178
0.000203954
0.00021712
5.62177e-05
0.000217124
5.62119e-05
0.000109181
4.60644e-05
4.92107e-05
4.9211e-05
4.60645e-05
4.60706e-05
4.92107e-05
4.92109e-05
4.607e-05
2.56714e-05
2.56712e-05
2.56704e-05
2.56702e-05
0.000181306
3.53688e-05
3.53629e-05
3.53714e-05
3.53656e-05
2.5671e-05
2.56713e-05
2.567e-05
2.56703e-05
2.56726e-05
2.56723e-05
2.56706e-05
2.56704e-05
3.53695e-05
3.53622e-05
0.000181454
3.53678e-05
3.53605e-05
2.56723e-05
2.56725e-05
2.56703e-05
2.56705e-05
0.000181301
3.53658e-05
3.53584e-05
3.53646e-05
3.53572e-05
4.60629e-05
4.92149e-05
4.60609e-05
4.92143e-05
0.000109181
5.62131e-05
0.000217123
0.000203938
0.00010916
5.62213e-05
0.000217124
0.000109182
5.621e-05
0.000217122
0.000203935
0.000109161
5.62186e-05
0.000217124
4.60543e-05
4.92144e-05
4.92152e-05
4.60595e-05
4.60551e-05
4.92142e-05
4.92149e-05
4.60603e-05
0.000109157
0.000203938
5.62184e-05
0.000217129
5.62063e-05
0.000217126
0.000109184
0.000109158
0.000203935
5.62157e-05
0.000217129
5.62033e-05
0.000217126
0.000109185
3.5364e-05
3.53606e-05
0.000181458
3.53617e-05
3.53579e-05
2.56721e-05
2.56718e-05
2.56712e-05
2.56714e-05
0.000181305
3.53598e-05
3.53556e-05
3.53585e-05
3.53542e-05
2.56718e-05
2.56721e-05
0.000109183
5.62025e-05
0.000217122
0.000203948
0.000109158
5.62116e-05
0.000217124
4.60663e-05
4.92082e-05
4.60635e-05
4.92075e-05
0.000109183
0.00021712
5.61921e-05
0.000203928
0.000109156
0.000217122
5.62036e-05
4.60616e-05
4.92101e-05
4.92108e-05
4.60665e-05
0.00010916
0.000203949
5.62088e-05
0.000217128
5.61958e-05
0.000217126
0.000109186
4.60596e-05
4.92074e-05
4.92082e-05
4.60648e-05
0.000109159
0.000203929
0.000217126
5.6202e-05
0.000217124
5.61883e-05
0.000109185
4.60604e-05
4.92134e-05
4.60565e-05
4.92128e-05
0.000109182
0.000217123
5.62051e-05
0.000203937
0.000109156
0.000217126
5.62161e-05
4.60599e-05
4.92116e-05
4.60559e-05
4.92109e-05
0.000109162
0.000203954
5.62127e-05
0.00021713
5.61999e-05
0.000217129
0.000109186
4.6053e-05
4.92127e-05
4.92134e-05
4.6059e-05
0.000109158
0.000203938
0.000217129
5.62147e-05
0.000217128
5.62015e-05
0.000109184
4.60526e-05
4.92108e-05
4.92115e-05
4.60586e-05
3.53485e-05
3.53653e-05
0.000181451
3.53488e-05
3.53654e-05
2.56714e-05
2.56711e-05
2.56685e-05
2.56688e-05
0.000181298
3.53479e-05
3.53645e-05
3.53454e-05
3.53626e-05
2.56711e-05
2.56713e-05
0.000109183
0.000217122
5.62017e-05
0.000203948
0.000109157
0.000217125