/*--------------------------------*- C++ -*----------------------------------*\
| =========                 |                                                 |
| \\      /  F ield         | OpenFOAM: The Open Source CFD Toolbox           |
|  \\    /   O peration     | Version:  2206                                  |
|   \\  /    A nd           | Website:  www.openfoam.com                      |
|    \\/     M anipulation  |                                                 |
\*---------------------------------------------------------------------------*/
FoamFile
{
    version     2.0;
    format      ascii;
    arch        "LSB;label=32;scalar=64";
    class       volScalarField;
    location    "35.5";
    object      epsilon;
}
// * * * * * * * * * * * * * * * * * * * * * * * * * * * * * * * * * * * * * //

dimensions      [0 2 -3 0 0 0 0];

internalField   nonuniform List<scalar> 
28897
(
2.50383e-07
2.79499e-07
2.79507e-07
3.14189e-07
2.50385e-07
2.79502e-07
2.79511e-07
3.14196e-07
2.50386e-07
2.79506e-07
2.79514e-07
3.14204e-07
2.50388e-07
2.7951e-07
2.79518e-07
3.14213e-07
2.50385e-07
2.79514e-07
2.79521e-07
3.14221e-07
2.50384e-07
2.79515e-07
2.79523e-07
3.14229e-07
2.50381e-07
2.79518e-07
2.79525e-07
3.14234e-07
2.50375e-07
2.79513e-07
2.79516e-07
3.14229e-07
2.50299e-07
2.79429e-07
2.79429e-07
3.14139e-07
2.50275e-07
2.79395e-07
2.79405e-07
3.14086e-07
2.50275e-07
2.79395e-07
2.79405e-07
3.14101e-07
2.50275e-07
2.79394e-07
2.79405e-07
3.14095e-07
2.50275e-07
2.79394e-07
2.79405e-07
3.14096e-07
2.50275e-07
2.79394e-07
2.79405e-07
3.14095e-07
2.50275e-07
2.79394e-07
2.79405e-07
3.14098e-07
2.50275e-07
2.79394e-07
2.79405e-07
3.14098e-07
2.50275e-07
2.79394e-07
2.79405e-07
3.14096e-07
2.50276e-07
2.79396e-07
2.79407e-07
3.14096e-07
3.13904e-07
2.79519e-07
2.79525e-07
3.13895e-07
2.79503e-07
2.79533e-07
2.79498e-07
2.79524e-07
3.13913e-07
2.79507e-07
2.79506e-07
3.13914e-07
3.14182e-07
3.13912e-07
2.7952e-07
2.79527e-07
2.79521e-07
2.79529e-07
3.14175e-07
3.13905e-07
2.79505e-07
2.79534e-07
2.79505e-07
2.79536e-07
2.79527e-07
2.79501e-07
2.79526e-07
3.1419e-07
3.13921e-07
2.79508e-07
2.7951e-07
2.79509e-07
3.13922e-07
3.1419e-07
3.1392e-07
2.79524e-07
2.79532e-07
2.79525e-07
2.79533e-07
3.14184e-07
3.13912e-07
2.79508e-07
2.79538e-07
2.79509e-07
2.79539e-07
2.79529e-07
2.79505e-07
2.79529e-07
3.14197e-07
3.13929e-07
2.79512e-07
2.79514e-07
2.79512e-07
3.1393e-07
3.14197e-07
3.13928e-07
2.79528e-07
2.79536e-07
2.79529e-07
2.79537e-07
3.14191e-07
3.1392e-07
2.79512e-07
2.79542e-07
2.79513e-07
2.79543e-07
2.79532e-07
2.79509e-07
2.79533e-07
3.14206e-07
3.13937e-07
2.79515e-07
2.79518e-07
2.79516e-07
3.13938e-07
3.14206e-07
3.13937e-07
2.79532e-07
2.7954e-07
2.79533e-07
2.79542e-07
3.14198e-07
3.13928e-07
2.79516e-07
2.79546e-07
2.79516e-07
2.79547e-07
2.79537e-07
2.79513e-07
2.79538e-07
3.14214e-07
3.13946e-07
2.79519e-07
2.79521e-07
2.7952e-07
3.13947e-07
3.14215e-07
3.13945e-07
2.79535e-07
2.79545e-07
2.79535e-07
2.79545e-07
3.14206e-07
3.13936e-07
2.79519e-07
2.7955e-07
2.79519e-07
2.79549e-07
2.79541e-07
2.79515e-07
2.79541e-07
3.14222e-07
3.13953e-07
2.79523e-07
2.79523e-07
2.79522e-07
3.13954e-07
3.14222e-07
3.13951e-07
2.79538e-07
2.79547e-07
2.79536e-07
2.79545e-07
3.14215e-07
3.13943e-07
2.79522e-07
2.7955e-07
2.7952e-07
2.79549e-07
2.79543e-07
2.79517e-07
2.79541e-07
3.1423e-07
3.13959e-07
2.79524e-07
2.79525e-07
2.79523e-07
3.1396e-07
3.14228e-07
3.13949e-07
2.79539e-07
2.79547e-07
2.79536e-07
2.79545e-07
3.14221e-07
3.13943e-07
2.79523e-07
2.79552e-07
2.7952e-07
2.79549e-07
2.79543e-07
2.79518e-07
2.79541e-07
3.14235e-07
3.13957e-07
2.79525e-07
2.79524e-07
2.79523e-07
3.13959e-07
3.14222e-07
3.13868e-07
2.7953e-07
2.7954e-07
2.79462e-07
2.79477e-07
3.14219e-07
3.13878e-07
2.79513e-07
2.79543e-07
2.79446e-07
2.79476e-07
2.79535e-07
2.79453e-07
2.7947e-07
3.1423e-07
3.13876e-07
2.79517e-07
2.7945e-07
2.7945e-07
3.1388e-07
3.14129e-07
3.138e-07
2.79442e-07
2.79455e-07
2.79417e-07
2.79426e-07
3.1414e-07
3.13792e-07
2.79426e-07
2.79456e-07
2.79401e-07
2.79431e-07
2.79449e-07
2.79396e-07
2.79423e-07
3.14137e-07
3.13809e-07
2.79429e-07
2.79405e-07
2.79405e-07
3.13811e-07
3.14078e-07
3.13817e-07
2.79418e-07
2.79427e-07
2.79417e-07
2.79425e-07
3.14068e-07
3.13808e-07
2.79402e-07
2.79432e-07
2.79401e-07
2.79432e-07
2.79423e-07
2.79395e-07
2.79423e-07
3.14086e-07
3.13826e-07
2.79406e-07
2.79406e-07
2.79405e-07
3.13828e-07
3.14093e-07
3.13811e-07
2.79418e-07
2.79426e-07
2.79417e-07
2.79424e-07
3.14086e-07
3.13802e-07
2.79403e-07
2.79433e-07
2.79401e-07
2.7943e-07
2.79424e-07
2.79394e-07
2.79421e-07
3.14101e-07
3.13819e-07
2.79406e-07
2.79405e-07
2.79404e-07
3.13821e-07
3.14088e-07
3.13813e-07
2.79419e-07
2.79425e-07
2.79417e-07
2.79423e-07
3.14079e-07
3.13804e-07
2.79403e-07
2.79432e-07
2.79401e-07
2.7943e-07
2.79423e-07
2.79394e-07
2.79421e-07
3.14095e-07
3.1382e-07
2.79405e-07
2.79405e-07
2.79404e-07
3.13822e-07
3.14088e-07
3.13814e-07
2.79418e-07
2.79425e-07
2.79416e-07
2.79424e-07
3.1408e-07
3.13805e-07
2.79403e-07
2.79432e-07
2.79402e-07
2.7943e-07
2.79423e-07
2.79394e-07
2.79421e-07
3.14096e-07
3.13821e-07
2.79405e-07
2.79405e-07
2.79404e-07
3.13822e-07
3.14089e-07
3.13815e-07
2.79418e-07
2.79425e-07
2.79416e-07
2.79424e-07
3.14081e-07
3.13804e-07
2.79404e-07
2.79432e-07
2.79402e-07
2.7943e-07
2.79423e-07
2.79394e-07
2.79421e-07
3.14096e-07
3.13822e-07
2.79406e-07
2.79405e-07
2.79404e-07
3.13825e-07
3.14091e-07
3.13812e-07
2.79418e-07
2.79425e-07
2.79417e-07
2.79424e-07
3.14081e-07
3.13802e-07
2.79403e-07
2.79432e-07
2.79401e-07
2.7943e-07
2.79423e-07
2.79394e-07
2.79421e-07
3.14098e-07
3.1382e-07
2.79405e-07
2.79405e-07
2.79404e-07
3.13823e-07
3.14089e-07
3.13813e-07
2.79419e-07
2.79426e-07
2.79417e-07
2.79424e-07
3.14079e-07
3.13803e-07
2.79403e-07
2.79432e-07
2.79401e-07
2.7943e-07
2.79423e-07
2.79394e-07
2.79421e-07
3.14096e-07
3.1382e-07
2.79406e-07
2.79405e-07
2.79404e-07
3.13822e-07
3.14088e-07
3.13814e-07
2.79419e-07
2.79425e-07
2.79417e-07
2.79424e-07
3.14079e-07
3.13805e-07
2.79403e-07
2.79432e-07
2.79401e-07
2.7943e-07
2.79423e-07
2.79394e-07
2.79421e-07
3.14095e-07
3.13821e-07
2.79405e-07
2.79406e-07
2.79404e-07
3.13822e-07
3.14089e-07
2.79419e-07
2.79425e-07
3.1408e-07
2.79403e-07
2.79432e-07
2.79423e-07
3.14096e-07
2.79406e-07
2.50383e-07
2.50385e-07
2.50389e-07
2.50387e-07
1.81403e-06
8.86589e-06
1.81457e-06
8.86541e-06
2.11746e-05
2.1174e-05
1.81395e-06
8.86809e-06
1.81443e-06
8.86762e-06
2.50388e-07
2.50391e-07
2.50389e-07
2.50385e-07
2.50387e-07
2.50391e-07
2.50389e-07
5.39136e-07
1.45371e-06
2.60521e-07
2.795e-07
5.39298e-07
1.45289e-06
2.60524e-07
2.11744e-05
2.11738e-05
5.39149e-07
2.60524e-07
1.45372e-06
2.7951e-07
5.39311e-07
2.60525e-07
1.45294e-06
3.24726e-06
3.24852e-06
3.13918e-07
3.24683e-06
3.24804e-06
1.81416e-06
8.86566e-06
1.81473e-06
8.86527e-06
2.11727e-05
2.11726e-05
1.81409e-06
8.86782e-06
1.8146e-06
8.86744e-06
2.50388e-07
2.50391e-07
2.50389e-07
2.50386e-07
2.50386e-07
2.50389e-07
2.50387e-07
5.39163e-07
1.45387e-06
2.60524e-07
2.79505e-07
5.39329e-07
1.45303e-06
2.60526e-07
2.11729e-05
2.11729e-05
5.39183e-07
2.60524e-07
1.45386e-06
2.79513e-07
5.39346e-07
2.60526e-07
1.45305e-06
3.24761e-06
3.24876e-06
3.13925e-07
3.24712e-06
3.24827e-06
1.81423e-06
8.86562e-06
1.81481e-06
8.86523e-06
2.1172e-05
2.11721e-05
1.81415e-06
8.86775e-06
1.81468e-06
8.86738e-06
2.50388e-07
2.50391e-07
2.5039e-07
2.50388e-07
2.50388e-07
2.50391e-07
2.50389e-07
5.39186e-07
1.45398e-06
2.60526e-07
2.79509e-07
5.39352e-07
1.45312e-06
2.60528e-07
2.11724e-05
2.11725e-05
5.3921e-07
2.60526e-07
1.45394e-06
2.79517e-07
5.39376e-07
2.60528e-07
1.45311e-06
3.24784e-06
3.24893e-06
3.13933e-07
3.24732e-06
3.24837e-06
1.81425e-06
8.86558e-06
1.81485e-06
8.86521e-06
2.1172e-05
2.11722e-05
1.81416e-06
8.86771e-06
1.81471e-06
8.86739e-06
2.5039e-07
2.50393e-07
2.50392e-07
2.50386e-07
2.50388e-07
2.5039e-07
2.5039e-07
5.39211e-07
1.45403e-06
2.60528e-07
2.79513e-07
5.39376e-07
1.45315e-06
2.6053e-07
2.11723e-05
2.11725e-05
5.39228e-07
2.60528e-07
1.45397e-06
2.79521e-07
5.39398e-07
2.60529e-07
1.45313e-06
3.248e-06
3.24896e-06
3.13942e-07
3.24747e-06
3.2484e-06
1.81423e-06
8.86561e-06
1.81484e-06
8.86527e-06
2.11722e-05
2.11726e-05
1.81414e-06
8.86778e-06
1.8147e-06
8.86747e-06
2.50387e-07
2.50389e-07
2.50389e-07
2.50384e-07
2.50385e-07
2.50387e-07
2.50386e-07
5.39234e-07
1.45405e-06
2.60529e-07
2.79516e-07
5.39401e-07
1.45318e-06
2.6053e-07
2.11726e-05
2.1173e-05
5.39236e-07
2.60528e-07
1.45399e-06
2.79523e-07
5.39408e-07
2.6053e-07
1.45315e-06
3.24811e-06
3.24902e-06
3.1395e-07
3.24755e-06
3.24848e-06
1.81422e-06
8.86571e-06
1.81481e-06
8.8654e-06
2.11727e-05
2.11731e-05
1.81414e-06
8.86788e-06
1.81467e-06
8.86759e-06
2.50385e-07
2.50387e-07
2.50386e-07
2.50382e-07
2.50383e-07
2.50385e-07
2.50384e-07
5.39247e-07
1.45407e-06
2.60528e-07
2.79518e-07
5.39418e-07
1.45318e-06
2.60529e-07
2.11732e-05
2.11737e-05
5.39246e-07
2.60528e-07
1.45399e-06
2.79526e-07
5.39417e-07
2.6053e-07
1.45315e-06
3.24815e-06
3.24907e-06
3.13957e-07
3.24755e-06
3.24848e-06
1.81427e-06
8.86597e-06
1.81481e-06
8.86576e-06
2.11735e-05
2.11738e-05
1.81419e-06
8.86814e-06
1.81468e-06
8.86796e-06
2.50385e-07
2.50385e-07
2.50383e-07
2.50379e-07
2.50382e-07
2.50383e-07
2.50381e-07
5.39247e-07
1.45407e-06
2.60528e-07
2.7952e-07
5.39422e-07
1.45321e-06
2.60528e-07
2.11739e-05
2.11739e-05
5.39254e-07
2.60529e-07
1.45402e-06
2.79527e-07
5.39425e-07
2.6053e-07
1.45321e-06
3.24812e-06
3.24907e-06
3.13961e-07
3.2476e-06
3.24856e-06
1.81433e-06
8.86623e-06
1.81501e-06
8.86582e-06
2.11727e-05
2.11726e-05
1.81425e-06
8.8684e-06
1.81487e-06
8.86803e-06
2.50379e-07
2.50379e-07
2.50378e-07
2.50319e-07
2.50323e-07
2.50322e-07
2.5032e-07
5.39212e-07
1.45416e-06
2.60522e-07
2.79502e-07
5.3942e-07
1.45326e-06
2.60512e-07
2.1173e-05
2.11729e-05
5.39201e-07
2.60521e-07
1.45411e-06
2.795e-07
5.39419e-07
2.60509e-07
1.45321e-06
3.24827e-06
3.2492e-06
3.13935e-07
3.24764e-06
3.24858e-06
1.81409e-06
8.86605e-06
1.81477e-06
8.8656e-06
2.11721e-05
2.11722e-05
1.814e-06
8.86823e-06
1.81463e-06
8.86783e-06
2.50303e-07
2.50303e-07
2.50301e-07
2.50276e-07
2.50277e-07
2.5028e-07
2.50279e-07
5.39082e-07
1.45403e-06
2.60444e-07
2.79413e-07
5.39294e-07
1.45307e-06
2.60431e-07
2.11723e-05
2.11725e-05
5.3908e-07
2.60441e-07
1.45393e-06
2.79417e-07
5.39287e-07
2.60431e-07
1.45303e-06
3.24808e-06
3.24901e-06
3.13827e-07
3.24741e-06
3.24836e-06
1.814e-06
8.86591e-06
1.81463e-06
8.8655e-06
2.11719e-05
2.11722e-05
1.81392e-06
8.86811e-06
1.81449e-06
8.86775e-06
2.50278e-07
2.50282e-07
2.5028e-07
2.50275e-07
2.50277e-07
2.5028e-07
2.50279e-07
5.39045e-07
1.45388e-06
2.60416e-07
2.79396e-07
5.39226e-07
1.45297e-06
2.60418e-07
2.11722e-05
2.11724e-05
5.39052e-07
2.60418e-07
1.45382e-06
2.79407e-07
5.39231e-07
2.6042e-07
1.45296e-06
3.24791e-06
3.24886e-06
3.1382e-07
3.2473e-06
3.24826e-06
1.81399e-06
8.86595e-06
1.8146e-06
8.86557e-06
2.11724e-05
2.11725e-05
1.81391e-06
8.86811e-06
1.81447e-06
8.86763e-06
2.50278e-07
2.50281e-07
2.5028e-07
2.50275e-07
2.50276e-07
2.5028e-07
2.50278e-07
5.39042e-07
1.45385e-06
2.60416e-07
2.79396e-07
5.39218e-07
1.45296e-06
2.60417e-07
2.11722e-05
2.11724e-05
5.39051e-07
2.60419e-07
1.4538e-06
2.79407e-07
5.39228e-07
2.6042e-07
1.45295e-06
3.24788e-06
3.24883e-06
3.13823e-07
3.24729e-06
3.24825e-06
1.81399e-06
8.86596e-06
1.8146e-06
8.86568e-06
2.11724e-05
2.11727e-05
1.81391e-06
8.86798e-06
1.81447e-06
8.86761e-06
2.50278e-07
2.50281e-07
2.50279e-07
2.50275e-07
2.50276e-07
2.5028e-07
2.50278e-07
5.39041e-07
1.45385e-06
2.60415e-07
2.79395e-07
5.39216e-07
1.45296e-06
2.60417e-07
2.11722e-05
2.11724e-05
5.39055e-07
2.60418e-07
1.4538e-06
2.79407e-07
5.3923e-07
2.60419e-07
1.45295e-06
3.24787e-06
3.24883e-06
3.13822e-07
3.24729e-06
3.24825e-06
1.81399e-06
8.86608e-06
1.8146e-06
8.86578e-06
2.11725e-05
2.11727e-05
1.81391e-06
8.86794e-06
1.81447e-06
8.86757e-06
2.50278e-07
2.50281e-07
2.50279e-07
2.50275e-07
2.50276e-07
2.5028e-07
2.50278e-07
5.39042e-07
1.45385e-06
2.60415e-07
2.79395e-07
5.39218e-07
1.45296e-06
2.60417e-07
2.11722e-05
2.11724e-05
5.39063e-07
2.60418e-07
1.4538e-06
2.79407e-07
5.3924e-07
2.6042e-07
1.45295e-06
3.24787e-06
3.24883e-06
3.13823e-07
3.24729e-06
3.24825e-06
1.81399e-06
8.86616e-06
1.8146e-06
8.86585e-06
2.11725e-05
2.11727e-05
1.81391e-06
8.86791e-06
1.81447e-06
8.86754e-06
2.50277e-07
2.50281e-07
2.50279e-07
2.50275e-07
2.50276e-07
2.5028e-07
2.50278e-07
5.39042e-07
1.45385e-06
2.60415e-07
2.79395e-07
5.39217e-07
1.45296e-06
2.60417e-07
2.11722e-05
2.11724e-05
5.39066e-07
2.60418e-07
1.4538e-06
2.79407e-07
5.39245e-07
2.6042e-07
1.45295e-06
3.24787e-06
3.24883e-06
3.13821e-07
3.24729e-06
3.24825e-06
1.81399e-06
8.86621e-06
1.8146e-06
8.86589e-06
2.11725e-05
2.11727e-05
1.81391e-06
8.86789e-06
1.81447e-06
8.86753e-06
2.50277e-07
2.50281e-07
2.50279e-07
2.50275e-07
2.50276e-07
2.5028e-07
2.50278e-07
5.39041e-07
1.45385e-06
2.60415e-07
2.79395e-07
5.39217e-07
1.45296e-06
2.60417e-07
2.11722e-05
2.11724e-05
5.39066e-07
2.60418e-07
1.4538e-06
2.79407e-07
5.39246e-07
2.60419e-07
1.45295e-06
3.24787e-06
3.24883e-06
3.1382e-07
3.24729e-06
3.24825e-06
1.81399e-06
8.86625e-06
1.8146e-06
8.86592e-06
2.11725e-05
2.11727e-05
1.81391e-06
8.86788e-06
1.81447e-06
8.86752e-06
2.50278e-07
2.50281e-07
2.50279e-07
2.50275e-07
2.50276e-07
2.5028e-07
2.50278e-07
5.39041e-07
1.45385e-06
2.60416e-07
2.79395e-07
5.39217e-07
1.45296e-06
2.60417e-07
2.11722e-05
2.11724e-05
5.39066e-07
2.60418e-07
1.4538e-06
2.79407e-07
5.39246e-07
2.60419e-07
1.45295e-06
3.24787e-06
3.24883e-06
3.13822e-07
3.24729e-06
3.24825e-06
1.81399e-06
8.86628e-06
1.8146e-06
8.86594e-06
2.11725e-05
2.11727e-05
1.81391e-06
8.86787e-06
1.81447e-06
8.86751e-06
2.50277e-07
2.50281e-07
2.50279e-07
2.50275e-07
2.50276e-07
2.5028e-07
2.50278e-07
5.3904e-07
1.45385e-06
2.60415e-07
2.79395e-07
5.39216e-07
1.45296e-06
2.60417e-07
2.11722e-05
2.11724e-05
5.39067e-07
2.60418e-07
1.4538e-06
2.79407e-07
5.39246e-07
2.60419e-07
1.45295e-06
3.24787e-06
3.24883e-06
3.13823e-07
3.24729e-06
3.24825e-06
8.86629e-06
1.8146e-06
2.11725e-05
8.86787e-06
1.81447e-06
2.50278e-07
2.50282e-07
2.5028e-07
1.45385e-06
2.60417e-07
5.39216e-07
2.11723e-05
2.6042e-07
1.4538e-06
5.39246e-07
3.24787e-06
3.24883e-06
2.11728e-05
2.11735e-05
2.11756e-05
2.11763e-05
3.14166e-07
3.24698e-06
3.24787e-06
3.24739e-06
3.24835e-06
1.81441e-06
8.86558e-06
8.8661e-06
1.81393e-06
1.81444e-06
8.86689e-06
8.86738e-06
1.81396e-06
5.39286e-07
2.79518e-07
1.45289e-06
2.60524e-07
1.45368e-06
2.60524e-07
5.39118e-07
5.3929e-07
2.79525e-07
1.45299e-06
2.60526e-07
1.45375e-06
2.60526e-07
5.39122e-07
2.11752e-05
3.24749e-06
3.24642e-06
2.11727e-05
1.81428e-06
8.86779e-06
8.86829e-06
1.81385e-06
5.39312e-07
2.79502e-07
1.45303e-06
2.60525e-07
1.45379e-06
2.60525e-07
5.39148e-07
1.81427e-06
8.86696e-06
8.86748e-06
1.81383e-06
5.393e-07
2.79532e-07
2.60527e-07
1.45315e-06
2.60527e-07
1.45395e-06
5.39134e-07
1.45279e-06
2.60521e-07
2.60522e-07
5.39119e-07
8.86647e-06
1.81392e-06
2.79524e-07
2.60524e-07
1.45282e-06
2.60524e-07
5.39124e-07
8.86707e-06
1.81391e-06
2.11747e-05
2.11755e-05
3.14174e-07
3.24763e-06
3.24693e-06
3.2482e-06
3.24743e-06
2.1175e-05
2.11757e-05
5.39297e-07
2.79506e-07
2.60524e-07
1.45285e-06
2.60524e-07
1.4536e-06
5.39131e-07
5.39317e-07
2.79506e-07
2.60524e-07
1.45304e-06
2.60524e-07
1.45381e-06
5.39146e-07
1.81427e-06
8.86718e-06
8.86768e-06
1.81384e-06
1.81427e-06
8.86785e-06
8.86835e-06
1.81383e-06
3.14176e-07
3.24662e-06
3.24792e-06
3.24841e-06
2.11755e-05
2.11757e-05
2.11764e-05
2.11726e-05
2.11719e-05
2.11751e-05
2.11746e-05
3.2477e-06
3.24844e-06
3.13908e-07
3.24727e-06
3.24798e-06
2.11714e-05
2.11718e-05
2.1174e-05
2.11743e-05
3.14185e-07
3.24739e-06
3.24809e-06
3.24794e-06
3.24855e-06
1.81406e-06
8.8672e-06
1.81458e-06
8.86673e-06
5.39135e-07
1.4538e-06
2.60526e-07
2.79521e-07
5.39302e-07
1.45298e-06
2.60526e-07
5.39139e-07
1.45385e-06
2.60528e-07
2.79527e-07
5.39306e-07
1.45308e-06
2.60528e-07
1.81465e-06
8.8653e-06
8.86575e-06
1.81411e-06
1.81468e-06
8.86661e-06
8.86704e-06
1.81414e-06
5.39319e-07
2.79521e-07
1.45305e-06
2.60525e-07
1.45388e-06
2.60525e-07
5.39153e-07
5.39323e-07
2.79528e-07
1.45314e-06
2.60527e-07
1.45393e-06
2.60527e-07
5.39157e-07
3.24806e-06
3.24714e-06
3.13899e-07
3.24763e-06
3.24673e-06
2.11726e-05
2.11717e-05
2.1173e-05
2.11736e-05
3.14176e-07
3.24777e-06
3.24693e-06
3.2482e-06
3.24741e-06
2.11709e-05
2.11715e-05
5.39166e-07
1.4539e-06
2.60527e-07
2.79505e-07
5.39328e-07
1.45312e-06
2.60527e-07
1.81394e-06
8.86728e-06
1.81441e-06
8.86678e-06
5.39151e-07
2.6053e-07
1.45406e-06
2.79535e-07
5.39316e-07
2.6053e-07
1.45324e-06
1.81452e-06
8.8675e-06
8.86793e-06
1.81403e-06
5.39346e-07
2.79505e-07
1.45318e-06
2.60525e-07
1.45398e-06
2.60525e-07
5.39183e-07
1.8145e-06
8.86667e-06
8.86712e-06
1.81401e-06
5.39334e-07
2.79535e-07
2.60529e-07
1.4533e-06
2.60529e-07
1.45414e-06
5.39169e-07
1.81404e-06
8.86679e-06
1.81455e-06
8.8663e-06
5.39142e-07
2.60527e-07
1.45369e-06
2.79527e-07
5.39306e-07
2.60527e-07
1.45291e-06
1.81403e-06
8.86737e-06
1.81454e-06
8.86689e-06
5.39318e-07
2.795e-07
1.45297e-06
2.60524e-07
1.45379e-06
2.60524e-07
5.39151e-07
1.81466e-06
8.86619e-06
8.86664e-06
1.81411e-06
5.39323e-07
2.79526e-07
2.60526e-07
1.45297e-06
2.60526e-07
1.45377e-06
5.39157e-07
1.81465e-06
8.86675e-06
8.8672e-06
1.81411e-06
3.24832e-06
3.2475e-06
3.13916e-07
3.24787e-06
3.24705e-06
2.11745e-05
2.11739e-05
2.11732e-05
2.11736e-05
3.14193e-07
3.24803e-06
3.24717e-06
3.24854e-06
3.24762e-06
2.11732e-05
2.11736e-05
5.39164e-07
2.60527e-07
1.45391e-06
2.79508e-07
5.39333e-07
2.60527e-07
1.45312e-06
1.81394e-06
8.86748e-06
1.81441e-06
8.86701e-06
1.81394e-06
8.86816e-06
1.81442e-06
8.86768e-06
5.39332e-07
2.7951e-07
2.60524e-07
1.453e-06
2.60525e-07
1.45379e-06
5.39166e-07
5.39351e-07
2.79509e-07
2.60526e-07
1.45319e-06
2.60526e-07
1.45399e-06
5.39181e-07
1.81451e-06
8.86689e-06
8.86732e-06
1.81402e-06
1.81451e-06
8.86756e-06
8.868e-06
1.81402e-06
2.1175e-05
2.11742e-05
2.11752e-05
2.11746e-05
3.14195e-07
3.24699e-06
3.24816e-06
3.24742e-06
3.24861e-06
2.11734e-05
2.11738e-05
2.11739e-05
2.11743e-05
2.11713e-05
2.1171e-05
2.11737e-05
2.11736e-05
3.24802e-06
3.24866e-06
3.13915e-07
3.24739e-06
3.24818e-06
2.11707e-05
2.11709e-05
2.11734e-05
2.11734e-05
3.14193e-07
3.24735e-06
3.24825e-06
3.24801e-06
3.24875e-06
1.81419e-06
8.86694e-06
1.81475e-06
8.86655e-06
5.3917e-07
1.45394e-06
2.60528e-07
2.79524e-07
5.39337e-07
1.4531e-06
2.60528e-07
5.39174e-07
1.45399e-06
2.6053e-07
2.79532e-07
5.39341e-07
1.45319e-06
2.6053e-07
1.81477e-06
8.86525e-06
8.86564e-06
1.8142e-06
1.8148e-06
8.86652e-06
8.86689e-06
1.81423e-06
5.39354e-07
2.79524e-07
1.45313e-06
2.60527e-07
1.45399e-06
2.60527e-07
5.39186e-07
5.39358e-07
2.79532e-07
1.45323e-06
2.60529e-07
1.45404e-06
2.60529e-07
5.3919e-07
3.24834e-06
3.24758e-06
3.1391e-07
3.24789e-06
3.24706e-06
2.11708e-05
2.11705e-05
2.11722e-05
2.11724e-05
3.14188e-07
3.24798e-06
3.24715e-06
3.24845e-06
3.24771e-06
2.11702e-05
2.11704e-05
5.392e-07
1.45404e-06
2.60526e-07
2.79508e-07
5.39363e-07
1.45323e-06
2.60527e-07
1.81407e-06
8.86703e-06
1.81457e-06
8.86663e-06
5.39186e-07
2.60531e-07
1.4542e-06
2.79538e-07
5.39351e-07
2.60531e-07
1.45335e-06
1.81464e-06
8.86741e-06
8.86778e-06
1.81412e-06
5.3938e-07
2.79508e-07
1.45327e-06
2.60526e-07
1.45409e-06
2.60526e-07
5.39216e-07
1.81462e-06
8.86662e-06
8.867e-06
1.81411e-06
5.39368e-07
2.79538e-07
2.6053e-07
1.45339e-06
2.6053e-07
1.45425e-06
5.39202e-07
1.81415e-06
8.86655e-06
1.81472e-06
8.86613e-06
5.39171e-07
2.60528e-07
1.45383e-06
2.79529e-07
5.39338e-07
2.60528e-07
1.45302e-06
1.81414e-06
8.86708e-06
1.81472e-06
8.86666e-06
5.39344e-07
2.79505e-07
1.45308e-06
2.60526e-07
1.45392e-06
2.60526e-07
5.39174e-07
1.81475e-06
8.86613e-06
8.86651e-06
1.81416e-06
5.39351e-07
2.79529e-07
2.60527e-07
1.45305e-06
2.60527e-07
1.45387e-06
5.39181e-07
1.81474e-06
8.86661e-06
8.86699e-06
1.81416e-06
3.24869e-06
3.24774e-06
3.13923e-07
3.24814e-06
3.24728e-06
2.1173e-05
2.11728e-05
2.11726e-05
2.11728e-05
3.142e-07
3.24821e-06
3.24735e-06
3.24879e-06
3.24784e-06
2.11727e-05
2.11727e-05
5.39198e-07
2.60528e-07
1.45405e-06
2.79512e-07
5.39368e-07
2.60528e-07
1.45324e-06
1.81408e-06
8.86721e-06
1.81458e-06
8.86683e-06
1.81407e-06
8.86789e-06
1.81458e-06
8.8675e-06
5.39365e-07
2.79513e-07
2.60526e-07
1.45309e-06
2.60526e-07
1.4539e-06
5.39197e-07
5.39385e-07
2.79512e-07
2.60527e-07
1.45328e-06
2.60527e-07
1.4541e-06
5.39213e-07
1.81463e-06
8.8668e-06
8.86717e-06
1.81411e-06
1.81463e-06
8.86748e-06
8.86784e-06
1.81411e-06
2.11731e-05
2.11729e-05
2.11737e-05
2.11735e-05
3.14202e-07
3.24723e-06
3.24834e-06
3.24769e-06
3.24883e-06
2.11727e-05
2.11728e-05
2.11733e-05
2.11734e-05
2.11706e-05
2.11706e-05
2.11732e-05
2.11733e-05
3.24797e-06
3.2488e-06
3.13923e-07
3.24734e-06
3.24827e-06
2.11705e-05
2.11705e-05
2.11733e-05
2.11731e-05
3.14201e-07
3.24735e-06
3.24828e-06
3.24797e-06
3.24881e-06
1.81425e-06
8.86686e-06
1.81483e-06
8.86649e-06
5.392e-07
1.45401e-06
2.6053e-07
2.79528e-07
5.39369e-07
1.45315e-06
2.6053e-07
5.39204e-07
1.45408e-06
2.60531e-07
2.79536e-07
5.39373e-07
1.45326e-06
2.60531e-07
1.81483e-06
8.86521e-06
8.8656e-06
1.81424e-06
1.81485e-06
8.86648e-06
8.86684e-06
1.81427e-06
5.39383e-07
2.79529e-07
1.45316e-06
2.60529e-07
1.45403e-06
2.60529e-07
5.39212e-07
5.39386e-07
2.79537e-07
1.45328e-06
2.60531e-07
1.4541e-06
2.60531e-07
5.39215e-07
3.24853e-06
3.24778e-06
3.13916e-07
3.24803e-06
3.2472e-06
2.11701e-05
2.117e-05
2.11721e-05
2.11721e-05
3.14194e-07
3.24805e-06
3.24724e-06
3.24858e-06
3.24783e-06
2.11699e-05
2.117e-05
5.39231e-07
1.45412e-06
2.60529e-07
2.79512e-07
5.39395e-07
1.45329e-06
2.60529e-07
1.81413e-06
8.86699e-06
1.81466e-06
8.8666e-06
5.39217e-07
2.60533e-07
1.45428e-06
2.79542e-07
5.39384e-07
2.60533e-07
1.45342e-06
1.81469e-06
8.86737e-06
8.86773e-06
1.81416e-06
5.39409e-07
2.79513e-07
1.4533e-06
2.60528e-07
1.45414e-06
2.60528e-07
5.39243e-07
1.81468e-06
8.86659e-06
8.86697e-06
1.81415e-06
5.39398e-07
2.79543e-07
2.60532e-07
1.45344e-06
2.60532e-07
1.45431e-06
5.39229e-07
1.81418e-06
8.8665e-06
1.81476e-06
8.86612e-06
5.39193e-07
2.6053e-07
1.45389e-06
2.79532e-07
5.39361e-07
2.6053e-07
1.45306e-06
1.81418e-06
8.86695e-06
1.81476e-06
8.86658e-06
5.39367e-07
2.79509e-07
1.45314e-06
2.60528e-07
1.454e-06
2.60528e-07
5.39198e-07
1.81478e-06
8.8661e-06
8.86649e-06
1.81421e-06
5.39374e-07
2.79533e-07
2.60529e-07
1.45307e-06
2.60529e-07
1.45391e-06
5.39206e-07
1.81478e-06
8.86658e-06
8.86693e-06
1.81421e-06
3.24884e-06
3.2479e-06
3.13931e-07
3.24824e-06
3.24738e-06
2.11726e-05
2.11726e-05
2.11724e-05
2.11725e-05
3.14208e-07
3.24827e-06
3.24739e-06
3.24887e-06
3.24792e-06
2.11726e-05
2.11725e-05
5.39228e-07
2.6053e-07
1.45413e-06
2.79515e-07
5.394e-07
2.6053e-07
1.4533e-06
1.81413e-06
8.86715e-06
1.81466e-06
8.86678e-06
1.81413e-06
8.86782e-06
1.81466e-06
8.86745e-06
5.39392e-07
2.79517e-07
2.60528e-07
1.45312e-06
2.60528e-07
1.45395e-06
5.39221e-07
5.39414e-07
2.79516e-07
2.60529e-07
1.45331e-06
2.60529e-07
1.45415e-06
5.39239e-07
1.81468e-06
8.86677e-06
8.86712e-06
1.81415e-06
1.81469e-06
8.86744e-06
8.86779e-06
1.81415e-06
2.11726e-05
2.11727e-05
2.11732e-05
2.11733e-05
3.1421e-07
3.2474e-06
3.24838e-06
3.24789e-06
3.24891e-06
2.11728e-05
2.11726e-05
2.11733e-05
2.11732e-05
2.11705e-05
2.11706e-05
2.11731e-05
2.11734e-05
3.24799e-06
3.24882e-06
3.13931e-07
3.24738e-06
3.2483e-06
2.11708e-05
2.11706e-05
2.11736e-05
2.11733e-05
3.14209e-07
3.24742e-06
3.24834e-06
3.24802e-06
3.24885e-06
1.81427e-06
8.86683e-06
1.81487e-06
8.86649e-06
5.39222e-07
1.45404e-06
2.60532e-07
2.79532e-07
5.39394e-07
1.45317e-06
2.60532e-07
5.39225e-07
1.45411e-06
2.60533e-07
2.7954e-07
5.39397e-07
1.45329e-06
2.60533e-07
1.81484e-06
8.86523e-06
8.86559e-06
1.81424e-06
1.81487e-06
8.86652e-06
8.86685e-06
1.81427e-06
5.39404e-07
2.79532e-07
1.45318e-06
2.6053e-07
1.45405e-06
2.6053e-07
5.39229e-07
5.39407e-07
2.79541e-07
1.45329e-06
2.60533e-07
1.45412e-06
2.60533e-07
5.39232e-07
3.24859e-06
3.24787e-06
3.13923e-07
3.24807e-06
3.24728e-06
2.11699e-05
2.11699e-05
2.11723e-05
2.11722e-05
3.14202e-07
3.2481e-06
3.24732e-06
3.24861e-06
3.24791e-06
2.11701e-05
2.11699e-05
5.39252e-07
1.45415e-06
2.60531e-07
2.79516e-07
5.39421e-07
1.45331e-06
2.60531e-07
1.81415e-06
8.86697e-06
1.81469e-06
8.86659e-06
5.39238e-07
2.60535e-07
1.45432e-06
2.79546e-07
5.39409e-07
2.60535e-07
1.45345e-06
1.8147e-06
8.86742e-06
8.86774e-06
1.81416e-06
5.39429e-07
2.79516e-07
1.45332e-06
2.6053e-07
1.45416e-06
2.6053e-07
5.39257e-07
1.81469e-06
8.86661e-06
8.86697e-06
1.81414e-06
5.39417e-07
2.79546e-07
2.60534e-07
1.45345e-06
2.60534e-07
1.45433e-06
5.39243e-07
1.81424e-06
8.86648e-06
1.81481e-06
8.8661e-06
5.3922e-07
2.60531e-07
1.45392e-06
2.79537e-07
5.39386e-07
2.60531e-07
1.4531e-06
1.81424e-06
8.86694e-06
1.81481e-06
8.86661e-06
5.39393e-07
2.79513e-07
1.45317e-06
2.60529e-07
1.45403e-06
2.6053e-07
5.39223e-07
1.81484e-06
8.86612e-06
8.86648e-06
1.81426e-06
5.394e-07
2.79537e-07
2.60531e-07
1.45312e-06
2.60531e-07
1.45395e-06
5.39231e-07
1.81484e-06
8.86665e-06
8.86697e-06
1.81426e-06
3.2489e-06
3.24793e-06
3.1394e-07
3.2483e-06
3.24741e-06
2.11726e-05
2.11727e-05
2.11727e-05
2.11725e-05
3.14217e-07
3.24833e-06
3.24744e-06
3.24893e-06
3.24795e-06
2.11729e-05
2.11727e-05
5.39247e-07
2.60532e-07
1.45416e-06
2.79519e-07
5.39424e-07
2.60532e-07
1.45332e-06
1.81415e-06
8.86712e-06
1.81469e-06
8.86678e-06
1.81415e-06
8.86779e-06
1.8147e-06
8.86745e-06
5.39408e-07
2.79521e-07
2.60528e-07
1.45314e-06
2.60529e-07
1.45397e-06
5.39232e-07
5.39431e-07
2.7952e-07
2.60531e-07
1.45333e-06
2.60531e-07
1.45417e-06
5.39252e-07
1.81468e-06
8.86682e-06
8.86714e-06
1.81414e-06
1.8147e-06
8.86749e-06
8.86781e-06
1.81414e-06
2.11727e-05
2.11729e-05
2.11732e-05
2.11734e-05
3.14219e-07
3.24751e-06
3.24844e-06
3.24802e-06
3.24895e-06
2.11731e-05
2.11728e-05
2.11736e-05
2.11734e-05
2.11708e-05
2.11711e-05
2.11735e-05
2.11739e-05
3.24806e-06
3.24889e-06
3.1394e-07
3.24746e-06
3.24838e-06
2.11713e-05
2.11711e-05
2.11741e-05
2.11738e-05
3.14217e-07
3.24749e-06
3.24841e-06
3.2481e-06
3.24893e-06
1.81426e-06
8.86688e-06
1.81486e-06
8.86656e-06
5.39234e-07
1.45406e-06
2.60532e-07
2.79536e-07
5.39409e-07
1.45319e-06
2.60532e-07
5.39237e-07
1.45413e-06
2.60535e-07
2.79545e-07
5.39412e-07
1.4533e-06
2.60535e-07
1.81483e-06
8.86534e-06
8.86566e-06
1.81422e-06
1.81485e-06
8.86661e-06
8.86692e-06
1.81424e-06
5.39414e-07
2.79535e-07
1.4532e-06
2.60531e-07
1.45407e-06
2.60531e-07
5.39237e-07
5.39418e-07
2.79544e-07
1.45331e-06
2.60531e-07
1.45414e-06
2.60533e-07
5.3924e-07
3.24864e-06
3.24795e-06
3.13931e-07
3.24814e-06
3.24736e-06
2.11701e-05
2.11704e-05
2.11728e-05
2.11726e-05
3.14209e-07
3.24816e-06
3.24739e-06
3.24868e-06
3.24799e-06
2.11707e-05
2.11704e-05
5.39261e-07
1.45417e-06
2.60532e-07
2.79519e-07
5.39433e-07
1.45333e-06
2.60532e-07
1.81413e-06
8.86699e-06
1.81467e-06
8.86665e-06
5.39247e-07
2.60536e-07
1.45434e-06
2.7955e-07
5.39421e-07
2.60536e-07
1.45346e-06
1.81468e-06
8.86753e-06
8.86783e-06
1.81413e-06
5.39438e-07
2.79519e-07
1.45333e-06
2.60531e-07
1.45417e-06
2.60531e-07
5.39265e-07
1.81467e-06
8.86671e-06
8.86704e-06
1.81412e-06
5.39427e-07
2.79549e-07
2.60532e-07
1.45347e-06
2.60534e-07
1.45435e-06
5.39252e-07
1.81427e-06
8.86651e-06
1.81486e-06
8.86616e-06
5.39242e-07
2.60533e-07
1.45397e-06
2.79541e-07
5.39411e-07
2.60533e-07
1.45315e-06
1.81427e-06
8.86702e-06
1.81486e-06
8.8667e-06
5.39414e-07
2.79516e-07
1.45318e-06
2.60528e-07
1.45405e-06
2.6053e-07
5.39242e-07
1.81487e-06
8.86621e-06
8.86655e-06
1.81428e-06
5.39422e-07
2.79541e-07
2.60531e-07
1.45316e-06
2.60532e-07
1.45399e-06
5.39251e-07
1.81487e-06
8.86677e-06
8.86707e-06
1.81428e-06
3.24896e-06
3.24799e-06
3.13948e-07
3.24837e-06
3.24748e-06
2.11729e-05
2.11731e-05
2.11732e-05
2.1173e-05
3.14225e-07
3.24839e-06
3.2475e-06
3.249e-06
3.24803e-06
2.11734e-05
2.11731e-05
5.39256e-07
2.60533e-07
1.45418e-06
2.79523e-07
5.39435e-07
2.60533e-07
1.45334e-06
1.81412e-06
8.86718e-06
1.81467e-06
8.86686e-06
1.81413e-06
8.86785e-06
1.81468e-06
8.86753e-06
5.39416e-07
2.79523e-07
2.60529e-07
1.45315e-06
2.60529e-07
1.45398e-06
5.39241e-07
5.39441e-07
2.79522e-07
2.60529e-07
1.45334e-06
2.60531e-07
1.45419e-06
5.39261e-07
1.81466e-06
8.86692e-06
8.86722e-06
1.81411e-06
1.81467e-06
8.86759e-06
8.8679e-06
1.81412e-06
2.1173e-05
2.11733e-05
2.11735e-05
2.11738e-05
3.14227e-07
3.24757e-06
3.2485e-06
3.2481e-06
3.24902e-06
2.11735e-05
2.11733e-05
2.1174e-05
2.11738e-05
2.11713e-05
2.11717e-05
2.1174e-05
2.11745e-05
3.24811e-06
3.24895e-06
3.13947e-07
3.24747e-06
3.24839e-06
2.11721e-05
2.11718e-05
2.11748e-05
2.11744e-05
3.14225e-07
3.24746e-06
3.24838e-06
3.24808e-06
3.24892e-06
1.81425e-06
8.86697e-06
1.81483e-06
8.86664e-06
5.3924e-07
1.45407e-06
2.6053e-07
2.79538e-07
5.39417e-07
1.45319e-06
2.6053e-07
5.39244e-07
1.45414e-06
2.60532e-07
2.79547e-07
5.39421e-07
1.4533e-06
2.60532e-07
1.81482e-06
8.86556e-06
8.8658e-06
1.81421e-06
1.81485e-06
8.86674e-06
8.86701e-06
1.81424e-06
5.3942e-07
2.79536e-07
1.45321e-06
2.60527e-07
1.45407e-06
2.60527e-07
5.39238e-07
5.39423e-07
2.79545e-07
1.4533e-06
2.60529e-07
1.45414e-06
2.6053e-07
5.39241e-07
3.24871e-06
3.24802e-06
3.13939e-07
3.24816e-06
3.2474e-06
2.11707e-05
2.1171e-05
2.11736e-05
2.11731e-05
3.14217e-07
3.24812e-06
3.24736e-06
3.24869e-06
3.248e-06
2.11715e-05
2.1171e-05
5.39269e-07
1.45418e-06
2.60531e-07
2.79522e-07
5.39442e-07
1.45333e-06
2.6053e-07
1.81412e-06
8.8671e-06
1.81465e-06
8.86677e-06
5.39256e-07
2.60533e-07
1.45435e-06
2.7955e-07
5.39431e-07
2.60533e-07
1.45347e-06
1.81468e-06
8.86775e-06
8.86796e-06
1.81413e-06
5.39445e-07
2.7952e-07
1.45335e-06
2.60526e-07
1.45418e-06
2.60527e-07
5.39267e-07
1.81467e-06
8.86693e-06
8.86717e-06
1.81412e-06
5.39434e-07
2.79549e-07
2.6053e-07
1.45348e-06
2.60531e-07
1.45435e-06
5.39253e-07
1.81427e-06
8.8666e-06
1.81487e-06
8.86624e-06
5.39255e-07
2.60532e-07
1.45401e-06
2.79543e-07
5.39429e-07
2.60532e-07
1.45317e-06
1.81427e-06
8.86714e-06
1.81486e-06
8.86683e-06
5.39427e-07
2.79517e-07
1.45318e-06
2.60527e-07
1.45405e-06
2.60528e-07
5.39248e-07