/*--------------------------------*- C++ -*----------------------------------*\
| =========                 |                                                 |
| \\      /  F ield         | OpenFOAM: The Open Source CFD Toolbox           |
|  \\    /   O peration     | Version:  2206                                  |
|   \\  /    A nd           | Website:  www.openfoam.com                      |
|    \\/     M anipulation  |                                                 |
\*---------------------------------------------------------------------------*/
FoamFile
{
    version     2.0;
    format      ascii;
    arch        "LSB;label=32;scalar=64";
    class       surfaceScalarField;
    location    "35.5";
    object      phi;
}
// * * * * * * * * * * * * * * * * * * * * * * * * * * * * * * * * * * * * * //

dimensions      [0 3 -1 0 0 0 0];

oriented        oriented;

internalField   nonuniform List<scalar> 
83348
(
1.72513e-09
1.91716e-09
-0.00109321
-1.8567e-09
-1.81825e-09
0.00109321
-0.00109272
-1.21599e-06
-1.91152e-09
3.43577e-09
0.00109272
-2.638e-07
1.21899e-06
2.62446e-07
9.05176e-07
-2.65973e-07
-9.04632e-07
2.62273e-07
-0.00109238
-1.21055e-06
-1.90445e-09
3.39061e-09
0.00109238
-2.6102e-07
1.21354e-06
2.59675e-07
9.05012e-07
-2.68594e-07
-9.04498e-07
2.64959e-07
-0.000268348
1.24442e-06
1.21068e-06
-2.36192e-07
-2.41516e-07
0.00026637
1.78019e-09
1.98839e-09
-0.00109321
-1.89217e-09
-1.84087e-09
0.00109321
-0.00109272
-1.21596e-06
-1.97369e-09
3.41144e-09
0.00109272
-2.63778e-07
1.21899e-06
2.62456e-07
9.05184e-07
-2.65932e-07
-9.04613e-07
2.62303e-07
-0.00109238
-1.21054e-06
-1.97579e-09
3.36918e-09
0.00109238
-2.61002e-07
1.21354e-06
2.59685e-07
9.05022e-07
-2.68557e-07
-9.0448e-07
2.64986e-07
-0.000268348
1.24441e-06
1.21066e-06
-2.36175e-07
-2.41496e-07
0.00026637
1.83515e-09
2.04187e-09
-0.00109321
-1.9091e-09
-1.86242e-09
0.00109321
-0.00109272
-1.21595e-06
-2.04845e-09
3.38677e-09
0.00109272
-2.63766e-07
1.219e-06
2.62467e-07
9.05209e-07
-2.65905e-07
-9.04596e-07
2.62338e-07
-0.00109237
-1.21052e-06
-2.03005e-09
3.34534e-09
0.00109237
-2.60987e-07
1.21356e-06
2.597e-07
9.05035e-07
-2.68527e-07
-9.0447e-07
2.65022e-07
-0.000268348
1.24439e-06
1.21065e-06
-2.36161e-07
-2.41477e-07
0.00026637
1.95678e-09
2.14652e-09
-0.0010932
-1.95572e-09
-1.91373e-09
0.0010932
-0.00109272
-1.21593e-06
-2.1568e-09
3.33088e-09
0.00109272
-2.63752e-07
1.21902e-06
2.62487e-07
9.05241e-07
-2.65871e-07
-9.04575e-07
2.62383e-07
-0.00109237
-1.2105e-06
-2.12961e-09
3.27689e-09
0.00109237
-2.60969e-07
1.21359e-06
2.59729e-07
9.05071e-07
-2.68497e-07
-9.04451e-07
2.65065e-07
-0.000268347
1.24437e-06
1.21063e-06
-2.36142e-07
-2.4146e-07
0.00026637
2.14647e-09
2.36351e-09
-0.0010932
-2.07251e-09
-2.00852e-09
0.0010932
-0.00109272
-1.21592e-06
-2.21302e-09
3.3133e-09
0.00109272
-2.63743e-07
1.21904e-06
2.62513e-07
9.05281e-07
-2.65863e-07
-9.04555e-07
2.62409e-07
-0.00109237
-1.21048e-06
-2.33649e-09
3.22712e-09
0.00109237
-2.60949e-07
1.21361e-06
2.59762e-07
9.0514e-07
-2.68458e-07
-9.04394e-07
2.65128e-07
-0.000268347
1.24434e-06
1.21061e-06
-2.36121e-07
-2.41426e-07
0.00026637
2.00719e-09
2.18169e-09
-0.0010932
-2.00076e-09
-1.96818e-09
0.0010932
-0.00109272
-1.21593e-06
-2.10921e-09
3.40505e-09
0.00109272
-2.63759e-07
1.21902e-06
2.6251e-07
9.05291e-07
-2.65874e-07
-9.04553e-07
2.62425e-07
-0.00109237
-1.21052e-06
-2.18828e-09
3.34821e-09
0.00109237
-2.60986e-07
1.21358e-06
2.5974e-07
9.05118e-07
-2.68489e-07
-9.04432e-07
2.6512e-07
-0.000268347
1.24439e-06
1.21064e-06
-2.36121e-07
-2.41447e-07
0.000266369
1.3498e-09
1.35258e-09
-0.0010932
-1.45616e-09
-1.60556e-09
0.0010932
-0.00109271
-1.21593e-06
-2.12688e-09
3.38359e-09
0.00109271
-2.63789e-07
1.21902e-06
2.62474e-07
9.05249e-07
-2.65918e-07
-9.04587e-07
2.62372e-07
-0.00109237
-1.21063e-06
-1.43482e-09
3.76521e-09
0.00109237
-2.61143e-07
1.21343e-06
2.59548e-07
9.04886e-07
-2.68695e-07
-9.04613e-07
2.64857e-07
-0.000268346
1.24449e-06
1.21069e-06
-2.36172e-07
-2.41556e-07
0.000266369
8.69926e-10
1.20644e-09
-0.00109321
-1.5682e-09
-1.40341e-09
0.00109321
-0.00109272
-1.2163e-06
-6.41782e-10
3.904e-09
0.00109272
-2.6418e-07
1.21877e-06
2.62195e-07
9.04802e-07
-2.66596e-07
-9.05174e-07
2.6181e-07
-0.00109237
-1.21079e-06
-1.13075e-09
3.57179e-09
0.00109238
-2.61278e-07
1.21344e-06
2.5957e-07
9.04758e-07
-2.69101e-07
-9.04942e-07
2.64652e-07
-0.000268347
1.24465e-06
1.21096e-06
-2.36594e-07
-2.41852e-07
0.00026637
2.00943e-09
2.26818e-09
-0.00109321
-2.08242e-09
-1.96933e-09
0.00109321
-0.00109272
-1.21591e-06
-2.16765e-09
3.25241e-09
0.00109272
-2.63732e-07
1.21911e-06
2.62598e-07
9.05281e-07
-2.66001e-07
-9.04647e-07
2.62382e-07
-0.00109238
-1.21048e-06
-2.21657e-09
3.17553e-09
0.00109238
-2.60948e-07
1.21367e-06
2.59824e-07
9.05126e-07
-2.68597e-07
-9.04494e-07
2.6508e-07
-0.000268348
1.24435e-06
1.21062e-06
-2.36134e-07
-2.41439e-07
0.000266371
1.82465e-09
1.99506e-09
-0.00109321
-1.92329e-09
-1.89793e-09
0.00109321
-0.00109272
-1.21597e-06
-2.07502e-09
3.33951e-09
0.00109272
-2.63801e-07
1.21905e-06
2.62518e-07
9.05254e-07
-2.65986e-07
-9.04657e-07
2.62366e-07
-0.00109238
-1.21055e-06
-1.9971e-09
3.33427e-09
0.00109238
-2.61034e-07
1.2136e-06
2.59738e-07
9.05071e-07
-2.68634e-07
-9.04547e-07
2.65032e-07
-0.000268348
1.24444e-06
1.21067e-06
-2.36185e-07
-2.41526e-07
0.00026637
1.69108e-09
-8.39461e-09
-0.0010932
-1.88316e-09
-1.82887e-09
0.00109321
-0.00109272
-1.216e-06
-1.98872e-09
3.39033e-09
0.00109272
-2.63782e-07
1.21903e-06
2.6248e-07
9.05233e-07
-2.66012e-07
-9.04684e-07
2.62345e-07
-0.00109238
-1.21057e-06
-1.94092e-09
3.37543e-09
0.00109238
-2.61051e-07
1.21358e-06
2.59726e-07
9.05056e-07
-2.68653e-07
-9.04568e-07
2.65019e-07
-0.000268348
1.24445e-06
1.21069e-06
-2.36207e-07
-2.41538e-07
0.00026637
1.72351e-09
1.97697e-09
-0.00109321
-1.90026e-09
-1.81775e-09
0.00109321
-0.00109272
-1.21604e-06
-1.92929e-09
3.49008e-09
0.00109272
-2.611e-07
1.219e-06
2.59667e-07
9.0523e-07
-2.65993e-07
-9.04689e-07
2.62317e-07
-0.00109238
-1.21057e-06
-1.95055e-09
3.38631e-09
0.00109238
-2.61052e-07
1.21358e-06
2.59722e-07
9.05054e-07
-2.68652e-07
-9.04568e-07
2.65015e-07
-0.000268348
1.24444e-06
1.2107e-06
-2.36214e-07
-2.41532e-07
0.00026637
1.72962e-09
1.95149e-09
-0.00109321
-1.87545e-09
-1.82301e-09
0.00109321
-0.00109272
-1.216e-06
-1.94842e-09
3.41802e-09
0.00109272
-2.61063e-07
1.21903e-06
2.59705e-07
9.05222e-07
-2.65987e-07
-9.0469e-07
2.62318e-07
-0.00109238
-1.21057e-06
-1.95668e-09
3.38678e-09
0.00109238
-2.61051e-07
1.21358e-06
2.59724e-07
9.05054e-07
-2.68652e-07
-9.04567e-07
2.65017e-07
-0.000268348
1.24444e-06
1.2107e-06
-2.36214e-07
-2.41533e-07
0.00026637
1.73702e-09
1.93819e-09
-0.00109321
-1.86571e-09
-1.83156e-09
0.00109321
-0.00109272
-1.216e-06
-1.94526e-09
3.4193e-09
0.00109272
-2.61067e-07
1.21903e-06
2.59703e-07
9.05221e-07
-2.65989e-07
-9.04693e-07
2.62317e-07
-0.00109238
-1.21057e-06
-1.94901e-09
3.39018e-09
0.00109238
-2.61052e-07
1.21358e-06
2.59723e-07
9.05052e-07
-2.68653e-07
-9.04569e-07
2.65014e-07
-0.000268348
1.24444e-06
1.2107e-06
-2.36215e-07
-2.41535e-07
0.00026637
1.74003e-09
1.93177e-09
-0.00109321
-1.86028e-09
-1.8342e-09
0.00109321
-0.00109272
-1.216e-06
-1.94248e-09
3.41765e-09
0.00109272
-2.61067e-07
1.21903e-06
2.59701e-07
9.05218e-07
-2.65988e-07
-9.04692e-07
2.62313e-07
-0.00109238
-1.21057e-06
-1.94376e-09
3.38709e-09
0.00109238
-2.61051e-07
1.21358e-06
2.59722e-07
9.0505e-07
-2.68652e-07
-9.0457e-07
2.65011e-07
-0.000268348
1.24444e-06
1.2107e-06
-2.36215e-07
-2.41536e-07
0.00026637
1.73693e-09
1.92182e-09
-0.00109321
-1.85218e-09
-1.83122e-09
0.00109321
-0.00109272
-1.216e-06
-1.94018e-09
3.42014e-09
0.00109272
-2.61066e-07
1.21903e-06
2.59698e-07
9.05215e-07
-2.65983e-07
-9.04688e-07
2.62307e-07
-0.00109238
-1.21057e-06
-1.94093e-09
3.39227e-09
0.00109238
-2.6105e-07
1.21358e-06
2.59719e-07
9.05046e-07
-2.68648e-07
-9.04566e-07
2.65005e-07
-0.000268348
1.24444e-06
1.2107e-06
-2.36213e-07
-2.41534e-07
0.00026637
1.72983e-09
1.9115e-09
-0.00109321
-1.84585e-09
-1.82695e-09
0.00109321
-0.00109272
-1.21599e-06
-1.93459e-09
3.42317e-09
0.00109272
-2.61061e-07
1.21903e-06
2.5969e-07
9.05202e-07
-2.65972e-07
-9.04678e-07
2.62293e-07
-0.00109238
-1.21057e-06
-1.93593e-09
3.39359e-09
0.00109238
-2.61044e-07
1.21357e-06
2.59712e-07
9.05031e-07
-2.68636e-07
-9.04556e-07
2.64992e-07
-0.000268348
1.24444e-06
1.21069e-06
-2.36209e-07
-2.41531e-07
0.00026637
1.7379e-09
1.91695e-09
-0.00109321
-1.84737e-09
-1.82975e-09
-0.00109272
-1.21598e-06
-1.93599e-09
3.41614e-09
-2.61037e-07
1.21902e-06
2.59668e-07
9.0517e-07
-2.65943e-07
-9.0465e-07
2.62264e-07
-0.00109238
-1.21055e-06
-1.93631e-09
3.39039e-09
-2.61019e-07
1.21356e-06
2.5969e-07
9.05e-07
-2.68606e-07
-9.04528e-07
2.64963e-07
-0.000268348
1.24444e-06
1.21069e-06
-2.36203e-07
-2.41523e-07
0.00026637
-1.2554e-06
-1.21633e-06
0.000268364
-0.000266376
2.36619e-07
2.47031e-07
0.00109192
-1.68957e-09
-0.00109192
3.63617e-09
-1.25246e-06
2.6775e-07
-2.69233e-07
-9.0729e-07
2.59411e-07
-2.63247e-07
9.07734e-07
1.25824e-06
0.00109238
-1.66772e-09
-0.00109238
3.59679e-09
-1.25528e-06
2.67829e-07
-2.69304e-07
-9.12999e-07
2.64956e-07
-2.68801e-07
9.13412e-07
-1.219e-06
0.000268388
-0.000266394
2.39413e-07
2.44286e-07
0.001093
-1.92799e-09
-0.001093
3.38204e-09
-1.21336e-06
2.62484e-07
-2.63824e-07
-9.07363e-07
2.65041e-07
-2.68743e-07
9.07979e-07
1.25279e-06
0.00109204
-1.69365e-09
-0.00109204
3.60935e-09
-1.24986e-06
2.67808e-07
-2.69294e-07
-9.07377e-07
2.64928e-07
-2.68709e-07
9.07796e-07
-1.92854e-09
3.42176e-09
-1.21599e-06
2.62448e-07
-2.63802e-07
-9.04642e-07
2.62267e-07
9.05172e-07
-2.65981e-07
1.24735e-06
0.00109184
-1.70267e-09
-0.00109184
3.62083e-09
-1.24443e-06
2.62254e-07
-2.63711e-07
-9.04667e-07
2.62132e-07
-2.65943e-07
9.05074e-07
-1.21354e-06
0.000268343
-0.000266357
2.3681e-07
2.44235e-07
-1.90462e-09
-0.00109238
3.39466e-09
-1.21056e-06
2.59672e-07
-2.61022e-07
-9.04457e-07
2.6493e-07
9.05057e-07
-2.68624e-07
1.21364e-06
0.0010929
-1.88061e-09
-0.0010929
3.42059e-09
-1.21068e-06
2.59722e-07
-2.61088e-07
-9.04753e-07
2.65027e-07
-2.68727e-07
9.05318e-07
-0.00026637
2.39136e-07
2.44476e-07
1.25246e-06
1.21336e-06
-2.33679e-07
-2.44043e-07
0.000266376
-1.25541e-06
-1.21634e-06
0.000268364
-0.000266376
2.36634e-07
2.47048e-07
3.62719e-09
0.00109192
-2.69231e-07
1.2554e-06
2.67753e-07
9.07747e-07
-2.63239e-07
-9.07269e-07
2.5942e-07
-1.25529e-06
-1.6864e-09
3.63256e-09
0.00109237
-2.69309e-07
1.26091e-06
2.70568e-07
9.1342e-07
-2.68794e-07
-9.12989e-07
2.64963e-07
0.00109192
-1.76113e-09
-0.00109192
3.60061e-09
-1.25244e-06
2.67763e-07
-2.69213e-07
-9.07271e-07
2.59443e-07
-2.63203e-07
9.07738e-07
1.25822e-06
0.00109238
-1.74517e-09
-0.00109237
3.60454e-09
-1.25795e-06
2.67835e-07
-2.72033e-07
-9.12966e-07
2.64992e-07
-2.68756e-07
9.13433e-07
-2.36439e-07
-2.41299e-07
0.000266394
-1.21899e-06
0.000268388
-0.000266394
2.39421e-07
2.44289e-07
3.3813e-09
0.001093
-2.63823e-07
1.21633e-06
2.62485e-07
9.07984e-07
-2.68737e-07
-9.07355e-07
2.65045e-07
-1.24985e-06
-1.71104e-09
3.6086e-09
0.00109204
-2.69292e-07
1.25279e-06
2.67811e-07
9.07809e-07
-2.68699e-07
-9.07362e-07
2.64937e-07
0.001093
-2.01821e-09
-0.001093
3.3582e-09
-1.21335e-06
2.62492e-07
-2.63808e-07
-9.07331e-07
2.65075e-07
-2.68698e-07
9.07997e-07
1.2528e-06
0.00109204
-1.7802e-09
-0.00109204
3.57861e-09
-1.24984e-06
2.67823e-07
-2.69272e-07
-9.07352e-07
2.64964e-07
-2.68662e-07
9.07806e-07
-1.70136e-09
3.61206e-09
0.00109184
-2.6371e-07
1.24735e-06
2.62258e-07
9.05081e-07
-2.65933e-07
2.62141e-07
-9.04655e-07
-1.97513e-09
-0.00109272
3.41327e-09
-1.21597e-06
2.62454e-07
-2.63782e-07
-9.04611e-07
2.62302e-07
9.05187e-07
-2.65936e-07
1.24736e-06
0.00109184
-1.76214e-09
-0.00109184
3.57551e-09
-1.24441e-06
2.62271e-07
-2.63687e-07
-9.04637e-07
2.62165e-07
-2.65896e-07
9.05087e-07
-2.33843e-07
-2.41273e-07
0.000266357
-1.21354e-06
0.000268343
-0.000266357
2.36827e-07
2.44252e-07
-1.89899e-09
3.4232e-09
0.0010929
-2.61088e-07
1.21364e-06
2.59723e-07
9.05328e-07
-2.68718e-07
2.65036e-07
-9.04742e-07
-1.99253e-09
-0.00109238
3.36135e-09
-1.21054e-06
2.59685e-07
-2.61002e-07
-9.04425e-07
2.64965e-07
9.05076e-07
-2.68579e-07
1.21365e-06
0.0010929
-1.97808e-09
-0.0010929
3.39588e-09
-1.21066e-06
2.59734e-07
-2.61069e-07
-9.0472e-07
2.65064e-07
-2.68681e-07
9.05339e-07
-0.00026637
2.39148e-07
2.44493e-07
1.25244e-06
1.21334e-06
-2.33662e-07
-2.44023e-07
0.000266376
-1.25543e-06
-1.21636e-06
0.000268364
-0.000266376
2.36662e-07
2.47063e-07
3.60095e-09
0.00109192
-2.6921e-07
1.25541e-06
2.67766e-07
9.07741e-07
-2.63205e-07
-9.07268e-07
2.59445e-07
-1.25526e-06
-1.75834e-09
3.60201e-09
0.00109237
-2.69287e-07
1.26091e-06
2.7058e-07
9.13432e-07
-2.68754e-07
-9.12967e-07
2.64993e-07
0.00109192
-1.83101e-09
-0.00109192
3.56547e-09
-1.25242e-06
2.67777e-07
-2.69199e-07
-9.07257e-07
2.59482e-07
-2.63171e-07
9.07759e-07
1.26093e-06
0.00109237
-1.79519e-09
-0.00109237
3.58946e-09
-1.25793e-06
2.70593e-07
-2.72019e-07
-9.12961e-07
2.65017e-07
-2.68735e-07
9.13442e-07
-2.3641e-07
-2.41276e-07
0.000266394
-1.219e-06
0.00026839
-0.000266394
2.39471e-07
2.4431e-07
3.35939e-09
0.001093
-2.63807e-07
1.21634e-06
2.62493e-07
9.07994e-07
-2.68699e-07
-9.07337e-07
2.65073e-07
-1.24984e-06
-1.76886e-09
3.5876e-09
0.00109204
-2.69271e-07
1.2528e-06
2.67824e-07
9.07803e-07
-2.68662e-07
-9.07357e-07
2.64962e-07
0.001093
-2.07557e-09
-0.001093
3.32292e-09
-1.21333e-06
2.62508e-07
-2.63793e-07
-9.07322e-07
2.65104e-07
-2.68675e-07
9.08011e-07
1.25281e-06
0.00109204
-1.83347e-09
-0.00109204
3.55344e-09
-1.24982e-06
2.67836e-07
-2.6926e-07
-9.07343e-07
2.64994e-07
-2.68639e-07
9.07822e-07
-1.76504e-09
3.57421e-09
0.00109184
-2.63686e-07
1.24736e-06
2.62271e-07
9.05087e-07
-2.65892e-07
2.62168e-07
-9.04638e-07
-2.02777e-09
-0.00109272
3.39642e-09
-1.21595e-06
2.62465e-07
-2.63768e-07
-9.04604e-07
2.62325e-07
9.05199e-07
-2.65917e-07
1.24737e-06
0.00109184
-1.81987e-09
-0.00109184
3.55683e-09
-1.2444e-06
2.62281e-07
-2.63677e-07
-9.04626e-07
2.62193e-07
-2.6587e-07
9.05104e-07
-2.33825e-07
-2.41254e-07
0.000266357
-1.21356e-06
0.000268342
-0.000266357
2.36846e-07
2.44268e-07
-1.97899e-09
3.399e-09
0.0010929
-2.61067e-07
1.21365e-06
2.59736e-07
9.0534e-07
-2.68679e-07
2.65065e-07
-9.04721e-07
-2.04824e-09
-0.00109237
3.34244e-09
-1.21053e-06
2.59697e-07
-2.60992e-07
-9.04417e-07
2.64993e-07
9.05089e-07
-2.68556e-07
1.21366e-06
0.0010929
-2.0351e-09
-0.0010929
3.36887e-09
-1.21065e-06
2.59749e-07
-2.61055e-07
-9.04711e-07
2.65093e-07
-2.68658e-07
9.05353e-07
-0.00026637
2.39162e-07
2.44509e-07
1.25242e-06
1.21332e-06
-2.33636e-07
-2.44007e-07
0.000266375
-1.25545e-06
-1.21637e-06
0.000268363
-0.000266375
2.36675e-07
2.47089e-07
3.56621e-09
0.00109192
-2.69196e-07
1.25543e-06
2.67781e-07
9.07759e-07
-2.63168e-07
-9.07251e-07
2.59485e-07
-1.25793e-06
-1.80674e-09
3.57701e-09
0.00109237
-2.72015e-07
1.26093e-06
2.70599e-07
9.13445e-07
-2.68728e-07
-9.12959e-07
2.65025e-07
0.00109192
-1.91267e-09
-0.00109192
3.51408e-09
-1.25241e-06
2.67798e-07
-2.6918e-07
-9.07251e-07
2.5951e-07
-2.63154e-07
9.07778e-07
1.26094e-06
0.00109237
-1.85329e-09
-0.00109237
3.5681e-09
-1.25792e-06
2.7061e-07
-2.72008e-07
-9.12956e-07
2.65048e-07
-2.6871e-07
9.13454e-07
-2.36432e-07
-2.41255e-07
0.000266394
-1.21901e-06
0.00026839
-0.000266394
2.39493e-07
2.44327e-07
3.3241e-09
0.001093
-2.6379e-07
1.21636e-06
2.62511e-07
9.08008e-07
-2.6867e-07
-9.07326e-07
2.65109e-07
-1.24982e-06
-1.81336e-09
3.55973e-09
0.00109204
-2.69257e-07
1.25281e-06
2.67838e-07
9.07819e-07
-2.68632e-07
-9.07343e-07
2.64997e-07
0.001093
-2.1728e-09
-0.001093
3.27966e-09
-1.21332e-06
2.62526e-07
-2.63779e-07
-9.07312e-07
2.65144e-07
-2.6864e-07
9.0803e-07
1.25283e-06
0.00109204
-1.91948e-09
-0.00109204
3.50981e-09
-1.24981e-06
2.67854e-07
-2.69244e-07
-9.07336e-07
2.65023e-07
-2.68617e-07
9.07841e-07
-1.83524e-09
3.54756e-09
0.00109184
-2.63672e-07
1.24737e-06
2.62286e-07
9.05113e-07
-2.6586e-07
2.62204e-07
-9.04618e-07
-2.10203e-09
-0.00109272
3.37604e-09
-1.21594e-06
2.62476e-07
-2.63761e-07
-9.04583e-07
2.62365e-07
9.05225e-07
-2.65884e-07
1.24738e-06
0.00109184
-1.91015e-09
-0.00109184
3.5196e-09
-1.24438e-06
2.62295e-07
-2.63662e-07
-9.04603e-07
2.62229e-07
-2.65839e-07
9.05131e-07
-2.33806e-07
-2.41237e-07
0.000266357
-1.21357e-06
0.000268342
-0.000266357
2.3686e-07
2.44291e-07
-2.02985e-09
3.36679e-09
0.0010929
-2.61051e-07
1.21366e-06
2.59753e-07
9.05354e-07
-2.68649e-07
2.65102e-07
-9.0471e-07
-2.1377e-09
-0.00109237
3.2949e-09
-1.21051e-06
2.59714e-07
-2.60977e-07
-9.04407e-07
2.65032e-07
9.05107e-07
-2.68522e-07
1.21368e-06
0.0010929
-2.12244e-09
-0.0010929
3.32813e-09
-1.21064e-06
2.59765e-07
-2.61041e-07
-9.04702e-07
2.6513e-07
-2.68625e-07
9.0537e-07
-0.00026637
2.39182e-07
2.44531e-07
1.2524e-06
1.2133e-06
-2.33621e-07
-2.43984e-07
0.000266375
-1.25546e-06
-1.21639e-06
0.000268363
-0.000266375
2.36708e-07
2.47115e-07
3.49892e-09
0.00109192
-2.69176e-07
1.25546e-06
2.67808e-07
9.07812e-07
-2.63141e-07
-9.07223e-07
2.59533e-07
-1.25791e-06
-1.90795e-09
3.53578e-09
0.00109237
-2.71998e-07
1.26095e-06
2.70619e-07
9.13476e-07
-2.68699e-07
-9.12945e-07
2.65067e-07
0.00109192
-2.00702e-09
-0.00109192
3.50935e-09
-1.2524e-06
2.67814e-07
-2.69182e-07
-9.07198e-07
2.59558e-07
-2.63126e-07
9.07846e-07
1.26094e-06
0.00109237
-1.92147e-09
-0.00109237
3.61093e-09
-1.25792e-06
2.70613e-07
-2.72007e-07
-9.12917e-07
2.65095e-07
-2.6868e-07
9.13512e-07
-2.36411e-07
-2.4124e-07
0.000266394
-1.21903e-06
0.00026839
-0.000266394
2.39521e-07
2.44341e-07
3.26922e-09
0.001093
-2.63772e-07
1.21639e-06
2.62539e-07
9.08045e-07
-2.68638e-07
-9.07307e-07
2.65152e-07
-1.2498e-06
-1.94155e-09
3.49544e-09
0.00109204
-2.69239e-07
1.25284e-06
2.67865e-07
9.07871e-07
-2.68603e-07
-9.07315e-07
2.65045e-07
0.001093
-2.27138e-09
-0.001093
3.28649e-09
-1.21331e-06
2.62547e-07
-2.63774e-07
-9.07274e-07
2.65184e-07
-2.68621e-07
9.0809e-07
1.25284e-06
0.00109204
-2.03038e-09
-0.00109204
3.50975e-09
-1.24981e-06
2.67869e-07
-2.69246e-07
-9.0728e-07
2.65075e-07
-2.68582e-07
9.07912e-07
-1.93513e-09
3.49865e-09
0.00109184
-2.63659e-07
1.2474e-06
2.62309e-07
9.05145e-07
-2.65833e-07
2.6224e-07
-9.04597e-07
-2.07818e-09
-0.00109272
3.36624e-09
-1.21592e-06
2.62494e-07
-2.63751e-07
-9.04578e-07
2.62387e-07
9.05248e-07
-2.65873e-07
1.24741e-06
0.00109184
-1.915e-09
-0.00109184
3.49942e-09
-1.24437e-06
2.62324e-07
-2.63655e-07
-9.04599e-07
2.62248e-07
-2.65837e-07
9.05156e-07
-2.33788e-07
-2.41216e-07
0.000266357
-1.21359e-06
0.000268342
-0.000266357
2.36898e-07
2.44317e-07
-2.12883e-09
3.32054e-09
0.0010929
-2.61036e-07
1.21369e-06
2.59775e-07
9.05389e-07
-2.6862e-07
2.65144e-07
-9.04693e-07
-2.22599e-09
-0.00109237
3.28278e-09
-1.2105e-06
2.59737e-07
-2.60969e-07
-9.04369e-07
2.65072e-07
9.05168e-07
-2.68504e-07
1.21369e-06
0.00109289
-2.23086e-09
-0.0010929
3.34847e-09
-1.21063e-06
2.5978e-07
-2.61042e-07
-9.04662e-07
2.65176e-07
-2.68603e-07
9.05433e-07
-0.00026637
2.39207e-07
2.44565e-07
1.25238e-06
1.21329e-06
-2.33597e-07
-2.4396e-07
0.000266375
-1.25545e-06
-1.21639e-06
0.000268363
-0.000266375
2.36733e-07
2.47131e-07
3.44486e-09
0.00109192
-2.69157e-07
1.25548e-06
2.67843e-07
9.0787e-07
-2.63107e-07
-9.07172e-07
2.5959e-07
-1.25791e-06
-2.0603e-09
3.55164e-09
0.00109237
-2.72003e-07
1.26096e-06
2.70631e-07
9.13536e-07
-2.68665e-07
-9.12893e-07
2.65115e-07
0.00109192
-1.88985e-09
-0.00109192
3.63712e-09
-1.2524e-06
2.67815e-07
-2.69186e-07
-9.07201e-07
2.59576e-07
-2.63136e-07
9.07855e-07
1.26098e-06
0.00109237
-1.87633e-09
-0.00109237
3.56388e-09
-1.25789e-06
2.70646e-07
-2.71989e-07
-9.12896e-07
2.65119e-07
-2.68671e-07
9.13541e-07
-2.36392e-07
-2.41238e-07
0.000266393
-1.21905e-06
0.000268389
-0.000266393
2.39556e-07
2.4439e-07
3.2192e-09
0.001093
-2.63751e-07
1.21641e-06
2.62574e-07
9.08112e-07
-2.68599e-07
-9.07251e-07
2.65216e-07
-1.24978e-06
-2.13912e-09
3.45246e-09
0.00109204
-2.69222e-07
1.25287e-06
2.67898e-07
9.07931e-07
-2.68561e-07
-9.0726e-07
2.65105e-07
0.00109299
-2.09682e-09
-0.00109299
3.35556e-09
-1.2133e-06
2.62554e-07
-2.63775e-07
-9.07276e-07
2.65192e-07
-2.68634e-07
9.08093e-07
1.25284e-06
0.00109204
-1.86698e-09
-0.00109204
3.5927e-09
-1.2498e-06
2.67881e-07
-2.69242e-07
-9.07293e-07
2.6508e-07
-2.68601e-07
9.07909e-07
-2.05785e-09
3.4262e-09
0.00109184
-2.63627e-07
1.24743e-06
2.62354e-07
9.05194e-07
-2.65815e-07
2.62288e-07
-9.0457e-07
-2.16546e-09
-0.00109272
3.34419e-09
-1.2159e-06
2.62526e-07
-2.63733e-07
-9.04534e-07
2.62436e-07
9.05314e-07
-2.65848e-07
1.24741e-06
0.00109183
-1.90775e-09
-0.00109183
3.58515e-09
-1.24436e-06
2.62345e-07
-2.63644e-07
-9.0457e-07
2.62284e-07
-2.65829e-07
9.05204e-07
-2.33761e-07
-2.41194e-07
0.000266357
-1.21358e-06
0.000268341
-0.000266356
2.36913e-07
2.44343e-07
-2.35673e-09
3.28592e-09
0.00109289
-2.61021e-07
1.21371e-06
2.59806e-07
9.05459e-07
-2.68576e-07
2.6521e-07
-9.04634e-07
-2.0957e-09
-0.00109237
3.39475e-09
-1.2105e-06
2.59738e-07
-2.60976e-07
-9.04364e-07
2.65086e-07
9.05179e-07
-2.68511e-07
1.2137e-06
0.00109289
-2.06636e-09
-0.00109289
3.38022e-09
-1.21062e-06
2.59799e-07
-2.61031e-07
-9.0466e-07
2.65188e-07
-2.6861e-07
9.0544e-07
-0.000266369
2.39244e-07
2.44592e-07
1.25243e-06
1.21332e-06
-2.33614e-07
-2.43987e-07
0.000266374
-1.25548e-06
-1.21644e-06
0.000268362
-0.000266374
2.36746e-07
2.47126e-07
3.58388e-09
0.00109192
-2.69199e-07
1.25544e-06
2.67814e-07
9.07853e-07
-2.63138e-07
-9.07209e-07
2.5959e-07
-1.25791e-06
-1.86399e-09
3.58544e-09
0.00109237
-2.72008e-07
1.26096e-06
2.70648e-07
9.13506e-07
-2.68704e-07
-9.1293e-07
2.65098e-07
0.00109192
-2.00509e-09
-0.00109192
3.67798e-09
-1.25238e-06
2.67807e-07
-2.69203e-07
-9.07185e-07
2.59588e-07
-2.63143e-07
9.07885e-07
1.26109e-06
0.00109237
-2.14834e-09
-0.00109237
3.27332e-09
-1.25782e-06
2.7073e-07
-2.71938e-07
-9.12876e-07
2.65184e-07
-2.68643e-07
9.13592e-07
-2.36393e-07
-2.41215e-07
0.000266393
-1.21915e-06
0.000268389
-0.000266393
2.39612e-07
2.44467e-07
3.30656e-09
0.00109299
-2.63783e-07
1.21639e-06
2.62559e-07
9.08083e-07
-2.68637e-07
-9.07296e-07
2.652e-07
-1.24982e-06
-1.96987e-09
3.54632e-09
0.00109204
-2.69251e-07
1.25284e-06
2.67883e-07
9.07904e-07
-2.686e-07
-9.07307e-07
2.65092e-07
0.00109299
-2.08513e-09
-0.00109299
3.27212e-09
-1.21326e-06
2.62567e-07
-2.63771e-07
-9.07279e-07
2.65179e-07
-2.68655e-07
9.08099e-07
1.25289e-06
0.00109204
-1.90231e-09
-0.00109204
3.53893e-09
-1.24976e-06
2.67885e-07
-2.69246e-07
-9.07289e-07
2.65073e-07
-2.68616e-07
9.07922e-07
-1.9521e-09
3.58882e-09
0.00109183
-2.63663e-07
1.24739e-06
2.6232e-07
9.052e-07
-2.65828e-07
2.62302e-07
-9.04576e-07
-2.52988e-09
-0.00109271
3.12439e-09
-1.21585e-06
2.62591e-07
-2.63703e-07
-9.04497e-07
2.62509e-07
9.05392e-07
-2.65817e-07
1.24745e-06
0.00109183
-2.16837e-09
-0.00109183
3.57825e-09
-1.24434e-06
2.62342e-07
-2.63662e-07
-9.04532e-07
2.62322e-07
-2.6582e-07
9.05272e-07
-2.33784e-07
-2.41209e-07
0.000266356
-1.21363e-06
0.000268341
-0.000266356
2.36915e-07
2.44345e-07
-2.17164e-09
3.3497e-09
0.00109289
-2.61043e-07
1.2137e-06
2.59799e-07
9.05428e-07
-2.68614e-07
2.65191e-07
-9.04678e-07
-2.14768e-09
-0.00109237
3.37402e-09
-1.21047e-06
2.5974e-07
-2.60982e-07
-9.04359e-07
2.65085e-07
9.05192e-07
-2.68522e-07
1.21378e-06
0.00109289
-2.07378e-09
-0.00109289
3.2238e-09
-1.21056e-06
2.59829e-07
-2.61017e-07
-9.04662e-07
2.65184e-07
-2.68626e-07
9.0545e-07
-0.000266369
2.39284e-07
2.44587e-07
1.25254e-06
1.21342e-06
-2.33714e-07
-2.441e-07
0.000266374
-1.25516e-06
-1.21609e-06
0.000268363
-0.000266375
2.36268e-07
2.46673e-07
4.10103e-09
0.00109192
-2.69368e-07
1.25528e-06
2.67611e-07
9.07643e-07
-2.63336e-07
-9.07374e-07
2.59348e-07
-1.25788e-06
-1.59612e-09
3.46264e-09
0.00109237
-2.7202e-07
1.26099e-06
2.70629e-07
9.13387e-07
-2.68786e-07
-9.13024e-07
2.64982e-07
0.00109192
-3.88986e-10
-0.00109192
4.05263e-09
-1.25281e-06
2.67491e-07
-2.69628e-07
-9.07878e-07
2.58943e-07
-2.63892e-07
9.07302e-07
1.2606e-06
0.00109237
-2.51258e-10
-0.00109237
4.22662e-09
-1.25832e-06
2.70245e-07
-2.72441e-07
-9.1358e-07
2.64406e-07
-2.6947e-07
9.12963e-07
-2.36402e-07
-2.41195e-07
0.000266393
-1.21868e-06
0.00026839
-0.000266393
2.39035e-07
2.43857e-07
3.64976e-09
0.00109299
-2.6393e-07
1.21625e-06
2.62376e-07
9.07844e-07
-2.68855e-07
-9.07484e-07
2.64926e-07
-1.24992e-06
-1.20561e-09
3.92463e-09
0.00109204
-2.69406e-07
1.25269e-06
2.67693e-07
9.07674e-07
-2.6881e-07
-9.07488e-07
2.6483e-07
0.001093
-6.99354e-10
-0.001093
3.83899e-09
-1.21372e-06
2.62226e-07
-2.64214e-07
-9.07935e-07
2.64559e-07
-2.69376e-07
9.07559e-07
1.25254e-06
0.00109204
-4.21234e-10
-0.00109204
4.06623e-09
-1.25021e-06
2.67548e-07
-2.69685e-07
-9.07956e-07
2.64443e-07
-2.69345e-07
9.07369e-07
-1.63988e-09
4.0132e-09
0.00109183
-2.63815e-07
1.24725e-06
2.6214e-07
9.05092e-07
-2.65947e-07
2.62158e-07
-9.0466e-07
-4.59482e-10
-0.00109272
4.01235e-09
-1.21635e-06
2.62101e-07
-2.64222e-07
-9.05211e-07
2.61744e-07
9.04703e-07
-2.66589e-07
1.24709e-06
0.00109184
-2.90249e-10
-0.00109183
4.08886e-09
-1.2448e-06
2.61974e-07
-2.64133e-07
-9.05251e-07
2.61622e-07
-2.66555e-07
9.04603e-07
-2.33891e-07
-2.41316e-07
0.000266356
-1.21329e-06
0.000268342
-0.000266356
2.36453e-07
2.43875e-07
-1.35263e-09
3.55748e-09
0.00109289
-2.61156e-07
1.21362e-06
2.59661e-07
9.05195e-07
-2.68822e-07
2.64927e-07
-9.04862e-07
-6.44732e-10
-0.00109237
3.83924e-09
-1.21091e-06
2.59414e-07
-2.6141e-07
-9.05034e-07
2.64449e-07
9.04633e-07
-2.69257e-07
1.21337e-06
0.0010929
-6.39436e-10
-0.00109289
3.92413e-09
-1.21104e-06
2.59454e-07
-2.6147e-07
-9.05333e-07
2.64536e-07
-2.69378e-07
9.04896e-07
-0.000266369
2.38741e-07
2.44109e-07
1.25268e-06
1.2136e-06
-2.34035e-07
-2.44376e-07
0.000266375
-1.25555e-06
-1.21646e-06
0.000268364
-0.000266376
2.36754e-07
2.47166e-07
3.7215e-09
0.00109192
-2.69479e-07
1.25532e-06
2.67665e-07
9.0747e-07
-2.63778e-07
-9.07746e-07
2.5911e-07
-1.25832e-06
-6.24753e-10
4.21714e-09
0.00109237
-2.72444e-07
1.26065e-06
2.70291e-07
9.13122e-07
-2.69384e-07
-9.13469e-07
2.64561e-07
0.00109192
-1.93891e-09
-0.00109192
3.32292e-09
-1.25238e-06
2.67922e-07
-2.69151e-07
-9.07322e-07
2.59534e-07
-2.6331e-07
9.0784e-07
1.26099e-06
0.00109237
-1.85264e-09
-0.00109237
3.61915e-09
-1.25797e-06
2.70668e-07
-2.72073e-07
-9.13031e-07
2.6504e-07
-2.68852e-07
9.13496e-07
-2.36892e-07
-2.41762e-07
0.000266394
-1.21909e-06
0.00026839
-0.000266394
2.39542e-07
2.44353e-07
3.61318e-09
0.001093
-2.64089e-07
1.21622e-06
2.62373e-07
9.07739e-07
-2.69235e-07
-9.07787e-07
2.64744e-07
-1.25009e-06
-9.37958e-10
3.82029e-09
0.00109204
-2.69551e-07
1.25269e-06
2.67706e-07
9.07546e-07
-2.69212e-07
-9.07815e-07
2.64622e-07
0.001093
-2.2777e-09
-0.001093
3.20978e-09
-1.21331e-06
2.62633e-07
-2.63773e-07
-9.07359e-07
2.6515e-07
-2.68761e-07
9.08094e-07
1.25292e-06
0.00109204
-2.01819e-09
-0.00109204
3.39893e-09
-1.24979e-06
2.67963e-07
-2.6923e-07
-9.07382e-07
2.65042e-07
-2.68733e-07
9.07912e-07
-6.36067e-10
3.72916e-09
0.00109184
-2.63964e-07
1.24727e-06
2.62169e-07
9.04724e-07
-2.66517e-07
2.61726e-07
-9.05186e-07
-1.99395e-09
-0.00109272
3.33202e-09
-1.21595e-06
2.62571e-07
-2.63782e-07
-9.04715e-07
2.62315e-07
9.05236e-07
-2.66095e-07
1.2475e-06
0.00109184
-1.84435e-09
-0.00109184
3.32548e-09
-1.24434e-06
2.62433e-07
-2.63618e-07
-9.04721e-07
2.62192e-07
-2.66032e-07
9.05156e-07
-2.34186e-07
-2.41615e-07
0.000266357
-1.21368e-06
0.000268343
-0.000266357
2.36943e-07
2.44359e-07
-1.1862e-09
3.75597e-09
0.0010929
-2.61379e-07
1.21348e-06
2.59572e-07
9.0509e-07
-2.69224e-07
2.64737e-07
-9.05175e-07
-2.19658e-09
-0.00109238
3.15666e-09
-1.21049e-06
2.59833e-07
-2.60954e-07
-9.04467e-07
2.65036e-07
9.05169e-07
-2.68657e-07
1.21375e-06
0.0010929
-2.22244e-09
-0.0010929
3.30941e-09
-1.21065e-06
2.59849e-07
-2.6106e-07
-9.04749e-07
2.65146e-07
-2.68743e-07
9.0544e-07
-0.000266371
2.39236e-07
2.44615e-07
1.25238e-06
1.2133e-06
-2.33619e-07
-2.43964e-07
0.000266376
-1.25547e-06
-1.21641e-06
0.000268364
-0.000266376
2.36705e-07
2.4709e-07
3.37225e-09
0.00109192
-2.69153e-07
1.25554e-06
2.67906e-07
9.0786e-07
-2.63264e-07
-9.0728e-07
2.59565e-07
-1.25791e-06
-1.96834e-09
3.49429e-09
0.00109237
-2.71998e-07
1.26103e-06
2.70718e-07
9.13516e-07
-2.68793e-07
-9.12993e-07
2.65076e-07
0.00109192
-1.86958e-09
-0.00109192
3.54585e-09
-1.25244e-06
2.67829e-07
-2.69229e-07
-9.07307e-07
2.59548e-07
-2.63271e-07
9.07829e-07
1.261e-06
0.00109237
-1.84155e-09
-0.00109237
3.50822e-09
-1.25792e-06
2.70678e-07
-2.72017e-07
-9.13015e-07
2.65039e-07
-2.68805e-07
9.13482e-07
-2.36401e-07
-2.41241e-07
0.000266394
-1.21906e-06
0.00026839
-0.000266394
2.39512e-07
2.44367e-07
3.2083e-09
0.001093
-2.63763e-07
1.21646e-06
2.62628e-07
9.08097e-07
-2.68724e-07
-9.07338e-07
2.65166e-07
-1.24979e-06
-2.04533e-09
3.41192e-09
0.00109204
-2.69225e-07
1.25291e-06
2.67954e-07
9.07922e-07
-2.6869e-07
-9.07354e-07
2.65064e-07
0.001093
-2.0809e-09
-0.001093
3.29122e-09
-1.21335e-06
2.62565e-07
-2.63824e-07
-9.07375e-07
2.65124e-07
-2.68746e-07
9.08048e-07
1.25285e-06
0.00109204
-1.85661e-09
-0.00109204
3.53067e-09
-1.24985e-06
2.67882e-07
-2.69294e-07
-9.07393e-07
2.65023e-07
-2.68715e-07
9.07874e-07
-1.95714e-09
3.37823e-09
0.00109184
-2.63628e-07
1.24748e-06
2.62409e-07
9.05195e-07
-2.65953e-07
2.62247e-07
-9.04658e-07
-2.13544e-09
-0.00109272
3.30619e-09
-1.21595e-06
2.62535e-07
-2.6378e-07
-9.0464e-07
2.62383e-07
9.05267e-07
-2.65969e-07
1.24741e-06
0.00109184
-1.85586e-09
-0.00109184
3.55623e-09
-1.24442e-06
2.62322e-07
-2.63717e-07
-9.04669e-07
2.62233e-07
-2.65939e-07
9.05164e-07
-2.33767e-07
-2.41205e-07
0.000266357
-1.21361e-06
0.000268343
-0.000266357
2.36877e-07
2.44296e-07
-2.23935e-09
3.27862e-09
0.0010929
-2.61036e-07
1.21376e-06
2.59856e-07
9.05446e-07
-2.68706e-07
2.65163e-07
-9.04727e-07
-2.05903e-09
-0.00109238
3.30879e-09
-1.21054e-06
2.59752e-07
-2.61018e-07
-9.0448e-07
2.65023e-07
9.05135e-07
-2.68641e-07
1.21372e-06
0.0010929
-2.00344e-09
-0.0010929
3.33398e-09
-1.21066e-06
2.59809e-07
-2.61078e-07
-9.0477e-07
2.6512e-07
-2.68738e-07
9.05397e-07
-0.00026637
2.39208e-07
2.44531e-07
1.25245e-06
1.21336e-06
-2.3368e-07
-2.44043e-07