/*--------------------------------*- C++ -*----------------------------------*\
| =========                 |                                                 |
| \\      /  F ield         | OpenFOAM: The Open Source CFD Toolbox           |
|  \\    /   O peration     | Version:  2206                                  |
|   \\  /    A nd           | Website:  www.openfoam.com                      |
|    \\/     M anipulation  |                                                 |
\*---------------------------------------------------------------------------*/
FoamFile
{
    version     2.0;
    format      ascii;
    arch        "LSB;label=32;scalar=64";
    class       surfaceScalarField;
    location    "35.5";
    object      phi;
}
// * * * * * * * * * * * * * * * * * * * * * * * * * * * * * * * * * * * * * //

dimensions      [0 3 -1 0 0 0 0];

oriented        oriented;

internalField   nonuniform List<scalar> 
83378
(
-0.00109272
-1.21598e-06
-1.91494e-09
3.41571e-09
0.00109272
-2.61029e-07
1.219e-06
2.59664e-07
9.05166e-07
-2.65947e-07
-9.04651e-07
2.62254e-07
1.24441e-06
1.21069e-06
-2.362e-07
-2.4151e-07
0.00026637
1.83446e-09
1.9223e-09
-0.00109321
-1.84902e-09
-1.89417e-09
0.00109321
-0.00109272
-1.21596e-06
-1.99162e-09
3.36817e-09
0.00109272
-2.61009e-07
1.21901e-06
2.59676e-07
9.05193e-07
-2.65907e-07
-9.04609e-07
2.62283e-07
-0.00109238
-1.21055e-06
-2.0066e-09
3.42241e-09
0.00109238
-2.61011e-07
1.21354e-06
2.5968e-07
9.05025e-07
-2.68571e-07
-9.04482e-07
2.64981e-07
-0.000268348
1.2444e-06
1.21067e-06
-2.36184e-07
-2.41497e-07
0.00026637
1.89744e-09
1.96502e-09
-0.00109321
-1.86429e-09
-1.92619e-09
0.00109321
-0.00109272
-1.21594e-06
-2.08161e-09
3.32193e-09
0.00109272
-2.60993e-07
1.21902e-06
2.5969e-07
9.0521e-07
-2.65872e-07
-9.04592e-07
2.62319e-07
-0.00109237
-1.21053e-06
-2.06135e-09
3.3961e-09
0.00109237
-2.60997e-07
1.21355e-06
2.59692e-07
9.05031e-07
-2.68545e-07
-9.04473e-07
2.65002e-07
-0.000268348
1.24439e-06
1.21066e-06
-2.36169e-07
-2.41487e-07
0.00026637
1.99884e-09
2.07304e-09
-0.00109321
-1.9126e-09
-1.98744e-09
0.00109321
-0.00109272
-1.21591e-06
-2.22186e-09
3.24661e-09
0.00109272
-2.60966e-07
1.21903e-06
2.59698e-07
9.05197e-07
-2.65812e-07
-9.04553e-07
2.62321e-07
-0.00109237
-1.21051e-06
-2.1583e-09
3.33717e-09
0.00109237
-2.60974e-07
1.21356e-06
2.59697e-07
9.05015e-07
-2.68485e-07
-9.04439e-07
2.65007e-07
-0.000268347
1.24437e-06
1.21063e-06
-2.36137e-07
-2.41459e-07
0.00026637
2.14901e-09
2.23872e-09
-0.00109321
-2.01235e-09
-2.07916e-09
0.00109321
-0.00109272
-1.21584e-06
-2.40152e-09
3.1053e-09
0.00109272
-2.60919e-07
1.21903e-06
2.59739e-07
9.04963e-07
-2.65376e-07
-9.04265e-07
2.61839e-07
-0.00109237
-1.21044e-06
-2.33919e-09
3.18714e-09
0.00109237
-2.60891e-07
1.21356e-06
2.59734e-07
9.04787e-07
-2.68028e-07
-9.04139e-07
2.64543e-07
-0.000268347
1.24429e-06
1.21057e-06
-2.3605e-07
-2.41361e-07
0.00026637
2.23601e-09
2.4973e-09
-0.00109321
-2.20783e-09
-2.14505e-09
0.00109321
-0.00109272
-1.21551e-06
-2.3604e-09
3.09679e-09
0.00109272
-2.60596e-07
1.21868e-06
2.59324e-07
9.03847e-07
-2.63733e-07
-9.03177e-07
2.60351e-07
-0.00109237
-1.21008e-06
-2.53506e-09
2.98715e-09
0.00109237
-2.60538e-07
1.21325e-06
2.59351e-07
9.03703e-07
-2.66357e-07
-9.03026e-07
2.63071e-07
-0.000268347
1.24394e-06
1.21022e-06
-2.35332e-07
-2.40644e-07
0.000266369
1.06194e-09
1.33541e-09
-0.00109321
-1.63913e-09
-1.46549e-09
0.00109321
-0.00109271
-1.21565e-06
-1.03869e-09
3.57463e-09
0.00109271
-2.60233e-07
1.21869e-06
2.58821e-07
9.05637e-07
-2.6535e-07
-9.04894e-07
2.61541e-07
-0.00109237
-1.21023e-06
-1.3923e-09
3.31152e-09
0.00109237
-2.60133e-07
1.21326e-06
2.58899e-07
9.0548e-07
-2.67941e-07
-9.04756e-07
2.64302e-07
-0.000268347
1.24405e-06
1.21037e-06
-2.35678e-07
-2.40956e-07
0.000266369
-2.03024e-09
-1.57249e-09
-0.00109321
-4.9198e-10
-2.56006e-10
0.00109321
-0.00109272
-1.21507e-06
1.8128e-09
4.73584e-09
0.00109272
-2.59385e-07
1.21714e-06
2.56738e-07
9.01344e-07
-2.61233e-07
-9.02448e-07
2.55533e-07
-0.00109237
-1.20949e-06
1.67708e-09
4.53255e-09
0.00109237
-2.59182e-07
1.21175e-06
2.56779e-07
9.01237e-07
-2.63751e-07
-9.02202e-07
2.58274e-07
-0.000268348
1.24349e-06
1.2098e-06
-2.33918e-07
-2.39194e-07
0.000266368
-3.34079e-09
-3.74952e-09
-0.00109321
4.24175e-10
-8.85044e-11
0.00109322
-0.00109272
-1.21403e-06
3.11991e-09
5.33759e-09
0.00109272
-2.57926e-07
1.21629e-06
2.55492e-07
8.9919e-07
-2.57713e-07
-8.99984e-07
2.51939e-07
-0.00109238
-1.20883e-06
3.52056e-09
5.94873e-09
0.00109238
-2.58143e-07
1.21066e-06
2.55274e-07
8.98915e-07
-2.60491e-07
-8.99951e-07
2.54516e-07
-0.000268351
1.24254e-06
1.20874e-06
-2.32028e-07
-2.37402e-07
0.000266369
-8.47681e-09
-8.28489e-09
-0.00109321
9.75153e-10
1.03401e-09
0.00109322
-0.00109272
-1.21233e-06
8.34477e-09
8.66344e-09
0.00109272
-2.54942e-07
1.21337e-06
2.51325e-07
8.92784e-07
-2.49392e-07
-8.95166e-07
2.41903e-07
-0.00109238
-1.20687e-06
8.27967e-09
8.56805e-09
0.00109237
-2.54883e-07
1.20795e-06
2.51391e-07
8.92597e-07
-2.52042e-07
-8.9499e-07
2.44621e-07
-0.000268354
1.24076e-06
1.20702e-06
-2.28028e-07
-2.33336e-07
0.000266367
-1.75598e-09
-1.4929e-09
-0.00109321
-4.29047e-09
-9.31383e-09
0.00109323
-0.00109273
-1.20669e-06
6.71617e-09
4.51923e-09
0.00109273
-2.46924e-07
1.20778e-06
2.45969e-07
8.82018e-07
-2.35192e-07
-8.85773e-07
2.24199e-07
-0.00109239
-1.19854e-06
1.50232e-09
9.60247e-09
0.0010924
-2.46832e-07
1.19965e-06
2.43249e-07
8.79148e-07
-2.35123e-07
-8.82883e-07
2.26917e-07
-0.000268364
1.23778e-06
1.20136e-06
-2.16305e-07
-2.21554e-07
0.000266363
8.29315e-07
8.36383e-07
-0.00109307
-7.12362e-07
-7.02158e-07
0.00109282
-0.001093
-1.10625e-06
-8.30543e-07
-3.63953e-07
0.00109331
-1.57444e-07
1.36331e-06
3.31813e-07
1.02063e-06
-1.19323e-07
-7.68054e-07
3.16322e-07
-0.00109267
-1.09801e-06
-8.4129e-07
-3.74919e-07
0.001093
-1.57304e-07
1.358e-06
3.34692e-07
1.01767e-06
-1.24752e-07
-7.65165e-07
3.19059e-07
-0.00026844
1.14005e-06
1.09819e-06
-1.23521e-07
-1.26054e-07
0.000266452
5.00669e-06
5.00001e-06
-0.00107907
-1.06651e-05
-1.05673e-05
0.000261932
0.000265354
0.000264422
0.000264422
4.0613e-06
6.35764e-06
6.65811e-06
4.06508e-06
6.3584e-06
6.66149e-06
-0.000270335
5.16295e-06
-4.99736e-06
5.75272e-06
-3.27703e-06
0.000267694
-0.000270312
-4.99958e-06
5.16821e-06
-3.28495e-06
5.74975e-06
0.000267678
-0.000268909
-5.15991e-06
-5.17102e-06
5.76993e-06
5.758e-06
0.000267712
1.25823e-06
0.00109237
-1.25527e-06
2.67835e-07
-2.69299e-07
2.6493e-07
-2.6881e-07
-1.21901e-06
0.000268393
-0.000266397
2.39424e-07
2.41715e-07
-1.21597e-06
2.59664e-07
-2.61032e-07
2.62249e-07
-2.65953e-07
-1.25275e-06
-1.21634e-06
0.000268364
-0.000266376
2.36619e-07
2.44469e-07
3.58124e-09
0.00109193
-2.66508e-07
2.65025e-07
9.0506e-07
-2.65933e-07
-9.04625e-07
2.62141e-07
-1.25527e-06
-1.64475e-09
3.60357e-09
0.00109237
-2.69297e-07
1.25823e-06
2.67835e-07
9.10675e-07
-2.68804e-07
-9.10279e-07
2.64937e-07
0.00109193
-1.82673e-09
-0.00109193
3.59553e-09
-1.24979e-06
2.65025e-07
-2.66502e-07
-9.04575e-07
2.62174e-07
-2.65892e-07
9.05095e-07
1.25823e-06
0.00109237
-1.69654e-09
-0.00109237
3.5652e-09
-1.25525e-06
2.67844e-07
-2.69282e-07
-9.1024e-07
2.64959e-07
-2.68772e-07
9.107e-07
-2.36409e-07
-2.38727e-07
0.000266397
-1.21901e-06
0.000268393
-0.000266397
2.39431e-07
2.41723e-07
0.00109299
-1.91082e-09
-0.00109299
3.38668e-09
-1.21336e-06
2.62484e-07
-2.63832e-07
-9.07358e-07
2.65047e-07
-2.68727e-07
9.07978e-07
1.25279e-06
0.00109204
-1.70537e-09
-0.00109204
3.60922e-09
-1.24985e-06
2.67808e-07
-2.69292e-07
-9.07358e-07
2.64937e-07
-2.68694e-07
9.07808e-07
-1.73052e-09
3.57871e-09
0.00109184
-2.63694e-07
1.24736e-06
2.62275e-07
9.05067e-07
-2.65946e-07
2.62129e-07
-9.04678e-07
-1.96969e-09
-0.00109272
3.37875e-09
-1.21596e-06
2.59673e-07
-2.61014e-07
-9.04612e-07
2.62278e-07
9.05191e-07
-2.65916e-07
1.24736e-06
0.00109184
-1.76678e-09
-0.00109184
3.57857e-09
-1.24441e-06
2.62279e-07
-2.63685e-07
-9.04638e-07
2.62154e-07
-2.65912e-07
9.05094e-07
-1.21354e-06
0.000268343
-0.000266357
2.36814e-07
2.4424e-07
-1.76469e-09
3.40375e-09
0.00109289
-2.61099e-07
1.21363e-06
2.59715e-07
9.05284e-07
-2.68757e-07
2.64995e-07
-9.04765e-07
-1.986e-09
-0.00109238
3.42946e-09
-1.21055e-06
2.59675e-07
-2.61018e-07
-9.04435e-07
2.6495e-07
9.05075e-07
-2.68605e-07
1.21364e-06
0.00109289
-1.79732e-09
-0.00109289
3.38525e-09
-1.21068e-06
2.59723e-07
-2.61087e-07
-9.0473e-07
2.65021e-07
-2.68723e-07
9.05305e-07
-0.00026637
2.39139e-07
2.44491e-07
1.24978e-06
1.21335e-06
-2.33651e-07
-2.41463e-07
0.000266376
-1.25274e-06
-1.21633e-06
0.000268364
-0.000266376
2.36623e-07
2.44476e-07
3.58606e-09
0.00109193
-2.66493e-07
1.25275e-06
2.65031e-07
9.05088e-07
-2.65885e-07
-9.04583e-07
2.62179e-07
-1.25525e-06
-1.72407e-09
3.55264e-09
0.00109237
-2.69276e-07
1.25823e-06
2.67848e-07
9.10702e-07
-2.68763e-07
-9.10237e-07
2.64966e-07
0.00109193
-1.85679e-09
-0.00109193
3.60328e-09
-1.24977e-06
2.65028e-07
-2.66484e-07
-9.04569e-07
2.62192e-07
-2.65865e-07
9.05096e-07
1.25824e-06
0.00109237
-1.73216e-09
-0.00109237
3.54683e-09
-1.25524e-06
2.67854e-07
-2.69266e-07
-9.10231e-07
2.6498e-07
-2.68748e-07
9.10704e-07
-2.36392e-07
-2.38709e-07
0.000266397
-1.21901e-06
0.000268393
-0.000266397
2.39445e-07
2.41741e-07
3.37689e-09
0.00109299
-2.63824e-07
1.21634e-06
2.62485e-07
9.07983e-07
-2.68721e-07
-9.07347e-07
2.65052e-07
-1.24985e-06
-1.72874e-09
3.61411e-09
0.00109204
-2.69286e-07
1.25279e-06
2.67812e-07
9.07807e-07
-2.68682e-07
-9.07351e-07
2.64944e-07
0.00109299
-1.94046e-09
-0.00109299
3.37841e-09
-1.21334e-06
2.62487e-07
-2.63815e-07
-9.07344e-07
2.65066e-07
-2.68696e-07
9.07979e-07
1.2528e-06
0.00109204
-1.73568e-09
-0.00109204
3.60098e-09
-1.24984e-06
2.67818e-07
-2.69274e-07
-9.07358e-07
2.64957e-07
-2.68662e-07
9.07797e-07
-1.80185e-09
3.56855e-09
0.00109184
-2.63679e-07
1.24737e-06
2.62282e-07
9.05097e-07
-2.65903e-07
2.62162e-07
-9.04634e-07
-2.01376e-09
-0.00109272
3.36383e-09
-1.21595e-06
2.59681e-07
-2.60999e-07
-9.04601e-07
2.62302e-07
9.05199e-07
-2.65888e-07
1.24737e-06
0.00109184
-1.80337e-09
-0.00109184
3.58463e-09
-1.2444e-06
2.62284e-07
-2.63673e-07
-9.04628e-07
2.62174e-07
-2.65886e-07
9.05099e-07
-2.33836e-07
-2.41264e-07
0.000266357
-1.21354e-06
0.000268342
-0.000266357
2.36825e-07
2.44253e-07
-1.81747e-09
3.36807e-09
0.00109289
-2.6108e-07
1.21364e-06
2.59727e-07
9.05307e-07
-2.68714e-07
2.65027e-07
-9.04728e-07
-2.02242e-09
-0.00109237
3.41831e-09
-1.21054e-06
2.59683e-07
-2.61002e-07
-9.04424e-07
2.64973e-07
9.05079e-07
-2.68572e-07
1.21364e-06
0.00109289
-1.80726e-09
-0.00109289
3.37669e-09
-1.21067e-06
2.59731e-07
-2.61071e-07
-9.04727e-07
2.65033e-07
-2.68701e-07
9.05303e-07
-0.00026637
2.39152e-07
2.445e-07
1.24976e-06
1.21333e-06
-2.33634e-07
-2.41444e-07
0.000266376
-1.25274e-06
-1.21633e-06
0.000268363
-0.000266375
2.36629e-07
2.44479e-07
3.57487e-09
0.00109193
-2.66478e-07
1.25275e-06
2.65037e-07
9.05096e-07
-2.65861e-07
-9.04574e-07
2.62199e-07
-1.25523e-06
-1.80478e-09
3.50325e-09
0.00109237
-2.69259e-07
1.25825e-06
2.67864e-07
9.10715e-07
-2.68733e-07
-9.10223e-07
2.64997e-07
0.00109193
-1.81887e-09
-0.00109193
3.63278e-09
-1.24976e-06
2.65024e-07
-2.66476e-07
-9.0455e-07
2.62202e-07
-2.65825e-07
9.05084e-07
1.25824e-06
0.00109237
-1.70478e-09
-0.00109237
3.5674e-09
-1.25522e-06
2.67856e-07
-2.69253e-07
-9.10215e-07
2.6499e-07
-2.68708e-07
9.10691e-07
-2.36375e-07
-2.38687e-07
0.000266397
-1.21901e-06
0.000268393
-0.000266397
2.39455e-07
2.41746e-07
3.35772e-09
0.00109299
-2.63809e-07
1.21634e-06
2.62493e-07
9.07985e-07
-2.68698e-07
-9.07341e-07
2.6507e-07
-1.24983e-06
-1.76866e-09
3.59761e-09
0.00109204
-2.6927e-07
1.2528e-06
2.67823e-07
9.07803e-07
-2.68659e-07
-9.07355e-07
2.64963e-07
0.00109299
-1.9111e-09
-0.00109299
3.39394e-09
-1.21332e-06
2.62487e-07
-2.63799e-07
-9.07328e-07
2.65074e-07
-2.68661e-07
9.07968e-07
1.2528e-06
0.00109204
-1.71976e-09
-0.00109204
3.61285e-09
-1.24982e-06
2.67818e-07
-2.6926e-07
-9.07334e-07
2.6497e-07
-2.68623e-07
9.07792e-07
-1.8733e-09
3.55747e-09
0.00109184
-2.63668e-07
1.24737e-06
2.62289e-07
9.05106e-07
-2.65876e-07
2.62186e-07
-9.04623e-07
-1.99007e-09
-0.00109272
3.39121e-09
-1.21593e-06
2.59682e-07
-2.60987e-07
-9.04584e-07
2.62309e-07
9.05187e-07
-2.65851e-07
1.24737e-06
0.00109184
-1.77568e-09
-0.00109184
3.61587e-09
-1.24439e-06
2.6228e-07
-2.63665e-07
-9.04612e-07
2.62188e-07
-2.65844e-07
9.05087e-07
-2.33822e-07
-2.41248e-07
0.000266357
-1.21355e-06
0.000268342
-0.000266357
2.36833e-07
2.44256e-07
-1.86e-09
3.34245e-09
0.00109289
-2.61065e-07
1.21365e-06
2.59738e-07
9.05309e-07
-2.68695e-07
2.65043e-07
-9.04724e-07
-1.98188e-09
-0.00109237
3.43787e-09
-1.21052e-06
2.59685e-07
-2.60988e-07
-9.04413e-07
2.64979e-07
9.05063e-07
-2.68541e-07
1.21365e-06
0.00109289
-1.75525e-09
-0.00109289
3.39128e-09
-1.21065e-06
2.59732e-07
-2.61058e-07
-9.04716e-07
2.65039e-07
-2.68668e-07
9.05287e-07
-0.00026637
2.39161e-07
2.44503e-07
1.24974e-06
1.2133e-06
-2.33604e-07
-2.41415e-07
0.000266375
-1.25273e-06
-1.21633e-06
0.000268363
-0.000266375
2.36616e-07
2.44464e-07
3.51058e-09
0.00109193
-2.66455e-07
1.25276e-06
2.65043e-07
9.05075e-07
-2.658e-07
-9.04539e-07
2.62201e-07
-1.2552e-06
-1.93321e-09
3.41597e-09
0.00109237
-2.69231e-07
1.25826e-06
2.67874e-07
9.10699e-07
-2.68672e-07
-9.10186e-07
2.64998e-07
0.00109193
-1.67403e-09
-0.00109193
3.7124e-09
-1.24971e-06
2.65026e-07
-2.66441e-07
-9.04388e-07
2.61949e-07
-2.65595e-07
9.04943e-07
1.25822e-06
0.00109237
-1.53655e-09
-0.00109237
3.68371e-09
-1.25518e-06
2.67848e-07
-2.69225e-07
-9.10055e-07
2.64724e-07
-2.6848e-07
9.1054e-07
-2.36345e-07
-2.38661e-07
0.000266396
-1.21899e-06
0.000268392
-0.000266396
2.39426e-07
2.4172e-07
3.2792e-09
0.00109299
-2.63783e-07
1.21635e-06
2.62504e-07
9.07973e-07
-2.68635e-07
-9.07302e-07
2.65076e-07
-1.24981e-06
-1.86027e-09
3.53478e-09
0.00109204
-2.69248e-07
1.25281e-06
2.67829e-07
9.0779e-07
-2.68598e-07
-9.07316e-07
2.64967e-07
0.00109299
-1.80595e-09
-0.00109299
3.47077e-09
-1.21327e-06
2.62502e-07
-2.63762e-07
-9.07172e-07
2.64822e-07
-2.68427e-07
9.0782e-07
1.2528e-06
0.00109204
-1.63496e-09
-0.00109204
3.66274e-09
-1.24977e-06
2.67831e-07
-2.69221e-07
-9.07172e-07
2.64718e-07
-2.68396e-07
9.07658e-07
-2.00378e-09
3.48945e-09
0.00109184
-2.63645e-07
1.24738e-06
2.62298e-07
9.05095e-07
-2.65809e-07
2.62197e-07
-9.04582e-07
-1.82432e-09
-0.00109272
3.5158e-09
-1.2159e-06
2.59672e-07
-2.60962e-07
-9.04425e-07
2.62047e-07
9.05036e-07
-2.6562e-07
1.24736e-06
0.00109184
-1.62628e-09
-0.00109184
3.6887e-09
-1.24433e-06
2.6229e-07
-2.63625e-07
-9.04446e-07
2.61934e-07
-2.6561e-07
9.0494e-07
-2.33795e-07
-2.41221e-07
0.000266357
-1.21354e-06
0.000268345
-0.000266357
2.36806e-07
2.41684e-07
-1.96652e-09
3.25975e-09
0.00109289
-2.61038e-07
1.21366e-06
2.5975e-07
9.05294e-07
-2.68636e-07
2.65045e-07
-9.04688e-07
-1.898e-09
-0.00109237
3.5123e-09
-1.21048e-06
2.59653e-07
-2.60963e-07
-9.0424e-07
2.64736e-07
9.04929e-07
-2.68295e-07
1.21363e-06
0.00109289
-1.67222e-09
-0.00109289
3.48073e-09
-1.2106e-06
2.59736e-07
-2.61023e-07
-9.04527e-07
2.64802e-07
-2.68422e-07
9.0517e-07
-0.00026637
2.39143e-07
2.44496e-07
1.24967e-06
1.21322e-06
-2.33509e-07
-2.41319e-07
0.000266375
-1.25253e-06
-1.21611e-06
0.000268363
-0.000266375
2.36088e-07
2.43954e-07
3.37327e-09
0.00109193
-2.66409e-07
1.25275e-06
2.65069e-07
9.0485e-07
-2.65353e-07
-9.04241e-07
2.61724e-07
-1.25514e-06
-2.12872e-09
3.27303e-09
0.00109237
-2.69184e-07
1.25826e-06
2.67912e-07
9.10471e-07
-2.68232e-07
-9.0989e-07
2.64522e-07
0.00109193
-1.76918e-09
-0.00109193
3.65607e-09
-1.24943e-06
2.64867e-07
-2.66223e-07
-9.03376e-07
2.60383e-07
-2.63969e-07
9.03987e-07
1.25801e-06
0.00109237
-1.54408e-09
-0.00109237
3.72855e-09
-1.25491e-06
2.67674e-07
-2.69025e-07
-9.09048e-07
2.63152e-07
-2.6687e-07
9.09586e-07
-2.36257e-07
-2.38576e-07
0.000266396
-1.21879e-06
0.000268392
-0.000266396
2.38915e-07
2.41206e-07
3.14273e-09
0.00109299
-2.63725e-07
1.21634e-06
2.62534e-07
9.07732e-07
-2.68183e-07
-9.07013e-07
2.64605e-07
-1.24973e-06
-2.06797e-09
3.36754e-09
0.00109204
-2.69186e-07
1.25281e-06
2.67869e-07
9.07573e-07
-2.68143e-07
-9.07006e-07
2.64507e-07
0.00109298
-1.90926e-09
-0.00109299
3.48728e-09
-1.21299e-06
2.62319e-07
-2.63549e-07
-9.06157e-07
2.63271e-07
-2.66797e-07
9.06873e-07
1.25257e-06
0.00109204
-1.72402e-09
-0.00109204
3.68195e-09
-1.2495e-06
2.6765e-07
-2.69017e-07
-9.06148e-07
2.63163e-07
-2.66769e-07
9.06701e-07
-2.12838e-09
3.35742e-09
0.00109184
-2.63595e-07
1.24738e-06
2.62327e-07
9.04848e-07
-2.65368e-07
2.61712e-07
-9.04298e-07
-1.80166e-09
-0.00109272
3.53549e-09
-1.21561e-06
2.59504e-07
-2.60755e-07
-9.03433e-07
2.60471e-07
9.04072e-07
-2.64016e-07
1.24715e-06
0.00109184
-1.67911e-09
-0.00109184
3.65091e-09
-1.24405e-06
2.62123e-07
-2.63412e-07
-9.03445e-07
2.60365e-07
-2.63995e-07
9.03982e-07
-2.33693e-07
-2.38554e-07
0.000266357
-1.21334e-06
0.000268345
-0.000266356
2.36307e-07
2.41155e-07
-2.15037e-09
3.14487e-09
0.00109289
-2.60995e-07
1.21365e-06
2.59771e-07
9.05079e-07
-2.68176e-07
2.6458e-07
-9.04377e-07
-1.97713e-09
-0.00109237
3.48431e-09
-1.21019e-06
2.59497e-07
-2.60744e-07
-9.03244e-07
2.63167e-07
9.0396e-07
-2.66686e-07
1.21343e-06
0.00109289
-1.76114e-09
-0.00109289
3.4879e-09
-1.21032e-06
2.59568e-07
-2.60812e-07
-9.03543e-07
2.63235e-07
-2.66803e-07
9.042e-07
-0.000266369
2.38621e-07
2.43975e-07
1.24931e-06
1.21288e-06
-2.32801e-07
-2.40593e-07
0.000266374
-1.25266e-06
-1.21618e-06
0.000268362
-0.000266374
2.36297e-07
2.4422e-07
3.19452e-09
0.00109193
-2.66065e-07
1.25244e-06
2.64688e-07
9.0376e-07
-2.63698e-07
-9.03131e-07
2.60237e-07
-1.2548e-06
-2.11684e-09
3.29885e-09
0.00109237
-2.68869e-07
1.2579e-06
2.67492e-07
9.09368e-07
-2.66586e-07
-9.08786e-07
2.6303e-07
0.00109193
-2.87666e-09
-0.00109193
3.32701e-09
-1.24945e-06
2.64477e-07
-2.65722e-07
-9.04177e-07
2.61909e-07
-2.65029e-07
9.05353e-07
1.25816e-06
0.00109237
-2.81944e-09
-0.00109237
3.42029e-09
-1.25493e-06
2.67271e-07
-2.68545e-07
-9.09793e-07
2.64715e-07
-2.67903e-07
9.11008e-07
-2.35533e-07
-2.37856e-07
0.000266396
-1.21895e-06
0.000268392
-0.000266395
2.39187e-07
2.4147e-07
3.04506e-09
0.00109299
-2.63408e-07
1.21601e-06
2.62135e-07
9.06651e-07
-2.66503e-07
-9.05884e-07
2.63139e-07
-1.24938e-06
-2.37558e-09
3.20739e-09
0.00109204
-2.68853e-07
1.25248e-06
2.67477e-07
9.06491e-07
-2.6646e-07
-9.05875e-07
2.63046e-07
0.00109298
-2.97352e-09
-0.00109298
3.35467e-09
-1.21308e-06
2.61845e-07
-2.63117e-07
-9.06912e-07
2.64827e-07
-2.67813e-07
9.08261e-07
1.25264e-06
0.00109204
-2.67981e-09
-0.00109204
3.53938e-09
-1.24957e-06
2.67206e-07
-2.68553e-07
-9.06937e-07
2.64685e-07
-2.67812e-07
9.08067e-07
-2.18068e-09
3.22173e-09
0.00109184
-2.63263e-07
1.24705e-06
2.61935e-07
9.0376e-07
-2.63719e-07
2.60217e-07
-9.03186e-07
-3.04e-09
-0.00109271
3.19912e-09
-1.21563e-06
2.59109e-07
-2.6027e-07
-9.04184e-07
2.6203e-07
9.05488e-07
-2.65053e-07
1.24729e-06
0.00109183
-2.80797e-09
-0.00109183
3.32372e-09
-1.24409e-06
2.61726e-07
-2.62923e-07
-9.04228e-07
2.619e-07
-2.65041e-07
9.05357e-07
-2.32962e-07
-2.37844e-07
0.000266356
-1.21344e-06
0.000268344
-0.000266356
2.36556e-07
2.41376e-07
-2.26704e-09
3.09343e-09
0.00109289
-2.60666e-07
1.21332e-06
2.59375e-07
9.03977e-07
-2.66524e-07
2.63093e-07
-9.03282e-07
-2.9985e-09
-0.00109237
3.23516e-09
-1.21023e-06
2.59094e-07
-2.60245e-07
-9.04039e-07
2.64704e-07
9.05315e-07
-2.67728e-07
1.21353e-06
0.00109289
-2.96991e-09
-0.00109289
3.27049e-09
-1.21039e-06
2.59134e-07
-2.60352e-07
-9.04304e-07
2.648e-07
-2.67831e-07
9.05606e-07
-0.000266369
2.38853e-07
2.44239e-07
1.24942e-06
1.21307e-06
-2.33174e-07
-2.40913e-07
0.000266374
-1.2516e-06
-1.21499e-06
0.000268364
-0.000266373
2.33889e-07
2.41948e-07
3.41128e-09
0.00109193
-2.65639e-07
1.2525e-06
2.64262e-07
9.05543e-07
-2.65308e-07
-9.04872e-07
2.61468e-07
-1.25495e-06
-8.25226e-10
3.81353e-09
0.00109236
-2.68507e-07
1.25791e-06
2.66983e-07
9.11155e-07
-2.68198e-07
-9.10499e-07
2.64238e-07
0.00109193
-2.22729e-09
-0.00109193
3.44483e-09
-1.24854e-06
2.63288e-07
-2.64868e-07
-9.02566e-07
2.57112e-07
-2.61739e-07
9.02425e-07
1.25686e-06
0.00109237
-2.01646e-09
-0.00109237
4.15029e-09
-1.25429e-06
2.65878e-07
-2.67921e-07
-9.08295e-07
2.59848e-07
-2.647e-07
9.07978e-07
-2.3587e-07
-2.38193e-07
0.000266395
-1.21764e-06
0.000268393
-0.000266394
2.36649e-07
2.38935e-07
3.50558e-09
0.00109298
-2.63066e-07
1.216e-06
2.61622e-07
9.08456e-07
-2.68092e-07
-9.076e-07
2.64364e-07
-1.24956e-06
-1.11297e-09
3.59855e-09
0.00109204
-2.68484e-07
1.25248e-06
2.66992e-07
9.08263e-07
-2.68066e-07
-9.07635e-07
2.64255e-07
0.00109298
-3.23715e-09
-0.00109298
3.8086e-09
-1.21228e-06
2.60558e-07
-2.62351e-07
-9.0508e-07
2.60345e-07
-2.64233e-07
9.05551e-07
1.25162e-06
0.00109204
-3.24018e-09
-0.00109204
3.55546e-09
-1.24862e-06
2.66077e-07
-2.67632e-07
-9.05045e-07
2.60274e-07
-2.64156e-07
9.05445e-07
-9.85612e-10
3.44138e-09
0.00109183
-2.62841e-07
1.24712e-06
2.61505e-07
9.05544e-07
-2.6532e-07
2.61446e-07
-9.04909e-07
-2.21059e-09
-0.00109271
3.87548e-09
-1.21499e-06
2.57712e-07
-2.59645e-07
-9.0268e-07
2.57166e-07
9.02457e-07
-2.61855e-07
1.2461e-06
0.00109183
-2.15196e-09
-0.00109183
3.71079e-09
-1.2433e-06
2.60433e-07
-2.62165e-07
-9.02639e-07
2.57105e-07
-2.61755e-07
9.02428e-07
-2.33308e-07
-2.38212e-07
0.000266356
-1.21249e-06
0.000268346
-0.000266355
2.3439e-07
2.39119e-07
-1.25384e-09
3.50787e-09
0.00109289
-2.60285e-07
1.21334e-06
2.58898e-07
9.05818e-07
-2.68097e-07
2.64362e-07
-9.04972e-07
-2.92449e-09
-0.00109237
3.05354e-09
-1.20922e-06
2.58009e-07
-2.59285e-07
-9.02291e-07
2.60061e-07
9.02518e-07
-2.64269e-07
1.21231e-06
0.00109289
-2.49321e-09
-0.00109289
3.87962e-09
-1.20963e-06
2.5781e-07
-2.59629e-07
-9.02674e-07
2.60027e-07
-2.64498e-07
9.02689e-07
-0.000266368
2.36417e-07
2.41815e-07
1.24877e-06
1.2125e-06
-2.31402e-07
-2.3903e-07
0.000266373
-1.25133e-06
-1.21512e-06
0.000268366
-0.000266374
2.33268e-07
2.40897e-07
4.85655e-09
0.00109193
-2.6476e-07
1.25091e-06
2.62128e-07
9.01242e-07
-2.61226e-07
-9.02413e-07
2.5537e-07
-1.25436e-06
2.00188e-09
4.96104e-09
0.00109237
-2.67654e-07
1.25637e-06
2.64914e-07
9.0686e-07
-2.64078e-07
-9.08077e-07
2.58199e-07
0.00109193
-5.30695e-09
-0.00109193
2.53664e-09
-1.2481e-06
2.62643e-07
-2.63653e-07
-9.00517e-07
2.55038e-07
-2.58497e-07
9.0142e-07
1.25706e-06
0.00109237
-5.30878e-09
-0.00109237
1.8175e-09
-1.25333e-06
2.65689e-07
-2.6619e-07
-9.06158e-07
2.57852e-07
-2.61325e-07
9.0704e-07
-2.34135e-07
-2.36457e-07
0.000266394
-1.21782e-06
0.000268396
-0.000266395
2.36112e-07
2.38411e-07
4.989e-09
0.00109298
-2.62269e-07
1.21436e-06
2.59407e-07
9.04263e-07
-2.63722e-07
-9.04968e-07
2.58482e-07
-1.24888e-06
1.63043e-09
4.98751e-09
0.00109204
-2.67582e-07
1.25091e-06
2.64852e-07
9.04109e-07
-2.637e-07
-9.04957e-07
2.58376e-07
0.00109299
-4.70635e-09
-0.00109299
1.7771e-09
-1.21147e-06
2.60292e-07
-2.60809e-07
-9.03534e-07
2.57636e-07
-2.61563e-07
9.04042e-07
1.25144e-06
0.00109204
-4.3515e-09
-0.00109204
2.45609e-09
-1.24812e-06
2.65442e-07
-2.66449e-07
-9.03564e-07
2.57521e-07
-2.61563e-07
9.03863e-07
2.03161e-09
4.9565e-09
0.00109184
-2.62034e-07
1.24548e-06
2.5932e-07
9.01261e-07
-2.61206e-07
2.55366e-07
-9.02446e-07
-5.60891e-09
-0.00109272
1.7075e-09
-1.21405e-06
2.57502e-07
-2.57934e-07
-9.00531e-07
2.55175e-07
9.0153e-07
-2.58481e-07
1.24607e-06
0.00109184
-5.27107e-09
-0.00109184
2.30191e-09
-1.24262e-06
2.59994e-07
-2.60747e-07
-9.00581e-07
2.55003e-07
-2.58515e-07
9.01409e-07
-2.31331e-07
-2.36307e-07
0.000266355
-1.21208e-06
0.000268348
-0.000266356
2.33184e-07
2.38168e-07
1.9308e-09
4.92286e-09
0.00109289
-2.59476e-07
1.21172e-06
2.56721e-07
9.0149e-07
-2.63971e-07
2.58258e-07
-9.02515e-07
-5.01548e-09
-0.00109237
2.53919e-09
-1.20894e-06
2.57154e-07
-2.58253e-07
-9.0045e-07
2.57679e-07
9.01294e-07
-2.61331e-07
1.21241e-06
0.00109289
-5.0762e-09
-0.00109289
1.75571e-09
-1.20881e-06
2.57504e-07
-2.58076e-07
-9.00734e-07
2.57821e-07
-2.61373e-07
9.01575e-07
-0.000266369
2.35768e-07
2.41061e-07
1.248e-06
1.21138e-06
-2.29473e-07
-2.37484e-07
0.000266374
-1.25005e-06
-1.21363e-06
0.00026837
-0.000266373
2.29647e-07
2.37517e-07
5.98022e-09
0.00109193
-2.63573e-07
1.2499e-06
2.60724e-07
8.99071e-07
-2.57702e-07
-8.99986e-07
2.51822e-07
-1.2533e-06
3.38528e-09
5.45321e-09
0.00109237
-2.66174e-07
1.25554e-06
2.63688e-07
9.04687e-07
-2.6057e-07
-9.05623e-07
2.54612e-07
0.00109194
-9.19404e-09
-0.00109193
-2.18036e-10
-1.24534e-06
2.60018e-07
-2.59469e-07
-8.94838e-07
2.47677e-07
-2.49714e-07
8.97174e-07
1.25551e-06
0.00109237
-9.06213e-09
-0.00109237
-1.50939e-10
-1.25085e-06
2.628e-07
-2.62276e-07
-9.00483e-07
2.50455e-07
-2.52596e-07
9.02786e-07
-2.32226e-07
-2.34527e-07
0.000266395
-1.21628e-06
0.000268399
-0.000266394
2.32444e-07
2.34736e-07
5.28182e-09
0.00109299
-2.6071e-07
1.21365e-06
2.58352e-07
9.0177e-07
-2.60779e-07
-9.02953e-07
2.54471e-07
-1.24801e-06
4.01159e-09
5.90082e-09
0.00109204
-2.66324e-07
1.25001e-06
2.63555e-07
9.01586e-07
-2.60754e-07
-9.02986e-07
2.54375e-07
0.00109299
-9.33087e-09
-0.00109299
-4.51015e-10
-1.20891e-06
2.57466e-07
-2.56786e-07
-8.97591e-07
2.50559e-07
-2.52526e-07
9.00066e-07
1.25011e-06
0.00109205
-9.1166e-09
-0.00109204
-2.21902e-10
-1.2454e-06
2.6282e-07
-2.62234e-07
-8.97619e-07
2.50458e-07
-2.52511e-07
8.999e-07
3.33025e-09
5.77958e-09
0.00109184
-2.60672e-07
1.2446e-06
2.58054e-07
8.99074e-07
-2.57727e-07
2.51791e-07
-9.00031e-07
-9.31495e-09
-0.00109272
-3.37932e-10
-1.21156e-06
2.54618e-07
-2.54022e-07
-8.94854e-07
2.47771e-07
8.97273e-07
-2.49737e-07
1.24466e-06
0.00109184
-9.17272e-09
-0.00109184
-1.89149e-10
-1.23999e-06
2.57252e-07
-2.56672e-07
-8.9488e-07
2.47668e-07
-2.49724e-07
8.97185e-07
-2.29925e-07
-2.34655e-07
0.000266356
-1.21087e-06
0.000268348
-0.000266355
2.29894e-07
2.37278e-07
3.50322e-09
5.27643e-09
0.00109289
-2.57994e-07
1.21094e-06
2.55559e-07
8.99245e-07
-2.60588e-07
2.54606e-07
-9.0018e-07
-9.36357e-09
-0.00109238
-4.2075e-10
-1.2061e-06
2.54685e-07
-2.53973e-07
-8.94689e-07
2.50469e-07
8.97074e-07
-2.52424e-07
1.21094e-06
0.0010929
-9.28688e-09
-0.00109289
-4.07784e-10
-1.20623e-06
2.54707e-07
-2.54035e-07
-8.94976e-07
2.5053e-07
-2.5253e-07
8.97412e-07
-0.000266368
2.32175e-07
2.37514e-07
1.2461e-06
1.2097e-06
-2.25501e-07
-2.3327e-07
0.000266372
-1.24857e-06
-1.21216e-06
0.000268377
-0.000266371
2.24837e-07
2.30227e-07
8.74107e-09
0.00109193
-2.60377e-07
1.24714e-06
2.56731e-07
8.92679e-07
-2.49354e-07
-8.9516e-07
2.41809e-07
-1.25162e-06
8.56999e-09
8.84571e-09
0.00109237
-2.63201e-07
1.25261e-06
2.59506e-07
8.98292e-07
-2.52226e-07
-9.00786e-07
2.44598e-07
0.00109193
-1.51771e-08
-0.00109192
-1.11096e-08
-1.24223e-06
2.56581e-07
-2.51522e-07
-8.85603e-07
2.35642e-07
-2.35834e-07
8.89657e-07
1.25403e-06
0.00109239
-2.57879e-08
-0.00109238
-5.6112e-09
-1.24506e-06
2.56607e-07
-2.54339e-07
-8.85859e-07
2.32974e-07
-2.33269e-07
8.89886e-07
-2.28268e-07
-2.30572e-07
0.000266394
-1.2148e-06
0.000268401
-0.00026639
2.2512e-07
2.32518e-07
8.58825e-09
0.00109298
-2.57729e-07
1.21339e-06
2.56904e-07
8.95596e-07
-2.52152e-07
-8.97872e-07
2.44704e-07
-1.24617e-06
8.4295e-09
8.78798e-09
0.00109204
-2.63156e-07
1.24719e-06
2.59519e-07
8.9543e-07
-2.52131e-07
-8.97895e-07
2.44619e-07
0.001093
-1.54979e-08
-0.00109299
-5.83347e-09
-1.20587e-06
2.53993e-07
-2.51629e-07
-8.88319e-07
2.35814e-07
-2.35892e-07
8.92559e-07
1.24324e-06
0.00109206
-1.52433e-08
-0.00109204
-1.10556e-08
-1.23695e-06
2.56612e-07
-2.54312e-07
-8.85706e-07
2.35719e-07
-2.35887e-07
8.89757e-07
8.47729e-09
8.7787e-09
0.00109184
-2.5759e-07
1.24175e-06
2.53957e-07
8.92694e-07
-2.49358e-07
2.4181e-07
-8.95182e-07
-2.07087e-08
-0.00109272
-5.78574e-09
-1.20581e-06
2.48447e-07
-2.46085e-07
-8.85633e-07
2.35721e-07
8.92442e-07
-2.3315e-07
1.24322e-06
0.00109185
-2.0543e-08
-0.00109184
-5.71057e-09
-1.23424e-06
2.53837e-07
-2.48741e-07
-8.85649e-07
2.35626e-07
-2.33138e-07
8.89671e-07
-2.25656e-07
-2.33078e-07
0.000266354
-1.20671e-06
0.000268351
-0.000266356
2.25089e-07
2.29933e-07
8.37011e-09
8.62858e-09
0.00109289
-2.54966e-07
1.20802e-06
2.51399e-07
8.92929e-07
-2.52151e-07
2.44677e-07
-8.95274e-07
-1.54638e-08
-0.00109238
-1.12562e-08
-1.20034e-06
2.48478e-07
-2.46048e-07
-8.82738e-07
2.3573e-07
8.86889e-07
-2.35798e-07
1.20675e-06
0.0010929
-1.53953e-08
-0.0010929
-1.11116e-08
-1.19513e-06
2.48485e-07
-2.43372e-07
-8.80329e-07
2.33062e-07
-2.33178e-07
8.87172e-07
-0.000266372
2.24872e-07
2.32735e-07
1.24045e-06
1.20139e-06
-2.18844e-07
-2.21523e-07
0.000266376
-1.29433e-06
-1.25787e-06
0.000268454
-0.000266401
2.46894e-07
2.52327e-07
1.4972e-08
0.00109193
-2.52319e-07
1.24426e-06
2.48641e-07
8.81899e-07
-2.35184e-07
-8.85752e-07
2.24128e-07
-1.24592e-06
1.21015e-08
9.90382e-09
0.00109238
-2.55138e-07
1.24702e-06
2.51409e-07
8.84909e-07
-2.32583e-07
-8.86073e-07
2.26876e-07
0.00109221
-3.42956e-07
-0.00109203
-1.64577e-07
-1.19791e-06
2.75121e-07
-2.11421e-07
-8.25115e-07
2.46367e-07
-1.7557e-07
9.19224e-07
1.29975e-06
0.00109265
-3.42983e-07
-0.00109247
-1.58997e-07
-1.20346e-06
2.75085e-07
-2.11538e-07
-8.33511e-07
2.49127e-07
-1.75674e-07
9.27576e-07
-2.19078e-07
-2.23913e-07
0.000266392
-1.25786e-06
0.000268478
-0.000266422
2.49731e-07
2.52013e-07
9.68459e-09
0.001093
-2.49661e-07
1.20243e-06
2.43253e-07
8.82157e-07
-2.35218e-07
-8.85826e-07
2.27015e-07
-1.23516e-06
1.64685e-09
9.76164e-09
0.00109206
-2.52307e-07
1.23892e-06
2.48637e-07
8.82035e-07
-2.32475e-07
-8.85882e-07
2.24181e-07
0.00109326
-3.49204e-07
-0.00109309
-1.58974e-07
-1.15884e-06
2.72452e-07
-2.06047e-07
-8.3049e-07
2.49346e-07
-1.75535e-07
9.24904e-07
1.29164e-06
0.00109233
-3.48463e-07
-0.00109215
-1.6448e-07
-1.19533e-06
2.75137e-07
-2.08727e-07
-8.27872e-07
2.49202e-07
-1.78243e-07
9.22042e-07
6.82592e-09
9.75745e-09
0.00109184
-2.52269e-07
1.23888e-06
2.48634e-07
8.81969e-07
-2.32434e-07
2.24115e-07
-8.83117e-07
-3.436e-07
-0.00109282
-1.642e-07
-1.16147e-06
2.69637e-07
-2.03329e-07
-8.27876e-07
2.46456e-07
9.22059e-07
-1.75566e-07
1.29161e-06
0.00109211
-3.43024e-07
-0.00109194
-1.64558e-07
-1.19258e-06
2.75097e-07
-2.05928e-07
-8.27822e-07
2.49119e-07