/*--------------------------------*- C++ -*----------------------------------*\
| =========                 |                                                 |
| \\      /  F ield         | OpenFOAM: The Open Source CFD Toolbox           |
|  \\    /   O peration     | Version:  2206                                  |
|   \\  /    A nd           | Website:  www.openfoam.com                      |
|    \\/     M anipulation  |                                                 |
\*---------------------------------------------------------------------------*/
FoamFile
{
    version     2.0;
    format      ascii;
    arch        "LSB;label=32;scalar=64";
    class       volScalarField;
    location    "25";
    object      k;
}
// * * * * * * * * * * * * * * * * * * * * * * * * * * * * * * * * * * * * * //

dimensions      [0 2 -2 0 0 0 0];

internalField   nonuniform List<scalar> 
28687
(
2.73436e-05
2.68973e-05
2.68972e-05
2.63826e-05
2.73435e-05
2.68974e-05
2.68971e-05
2.63847e-05
2.73434e-05
2.68974e-05
2.6897e-05
2.63848e-05
2.73434e-05
2.68974e-05
2.68971e-05
2.6385e-05
2.73432e-05
2.68974e-05
2.6897e-05
2.63853e-05
2.73425e-05
2.68957e-05
2.68961e-05
2.63835e-05
2.73365e-05
2.6889e-05
2.68892e-05
2.63764e-05
2.73354e-05
2.68884e-05
2.68883e-05
2.63753e-05
2.73355e-05
2.68885e-05
2.68884e-05
2.63753e-05
2.73355e-05
2.68885e-05
2.68884e-05
2.63754e-05
2.73355e-05
2.68885e-05
2.68884e-05
2.63753e-05
2.73355e-05
2.68885e-05
2.68884e-05
2.63753e-05
2.73355e-05
2.68885e-05
2.68884e-05
2.63753e-05
2.73355e-05
2.68885e-05
2.68884e-05
2.63753e-05
2.73355e-05
2.68885e-05
2.68884e-05
2.63753e-05
2.73355e-05
2.68885e-05
2.68884e-05
2.63753e-05
2.73355e-05
2.68885e-05
2.68884e-05
2.63753e-05
2.73355e-05
2.68885e-05
2.68884e-05
2.63753e-05
2.68969e-05
2.63882e-05
2.68973e-05
2.63825e-05
2.63882e-05
2.6897e-05
2.68969e-05
2.68969e-05
2.68969e-05
2.6385e-05
2.63882e-05
2.68973e-05
2.68967e-05
2.68972e-05
2.68966e-05
2.6897e-05
2.68974e-05
2.68969e-05
2.63822e-05
2.63879e-05
2.68973e-05
2.68971e-05
2.68973e-05
2.63882e-05
2.6385e-05
2.63883e-05
2.6897e-05
2.6897e-05
2.6897e-05
2.6897e-05
2.6385e-05
2.63884e-05
2.68973e-05
2.68967e-05
2.68972e-05
2.68967e-05
2.6897e-05
2.68975e-05
2.6897e-05
2.63847e-05
2.6388e-05
2.68974e-05
2.6897e-05
2.68972e-05
2.63883e-05
2.63851e-05
2.63885e-05
2.68971e-05
2.68972e-05
2.6897e-05
2.68972e-05
2.63852e-05
2.63886e-05
2.68973e-05
2.68968e-05
2.68973e-05
2.68967e-05
2.68971e-05
2.68974e-05
2.6897e-05
2.63848e-05
2.63882e-05
2.68973e-05
2.68971e-05
2.68973e-05
2.63884e-05
2.63853e-05
2.63887e-05
2.68972e-05
2.68974e-05
2.68972e-05
2.68973e-05
2.63854e-05
2.63889e-05
2.68974e-05
2.68968e-05
2.68973e-05
2.68968e-05
2.68971e-05
2.68974e-05
2.68971e-05
2.6385e-05
2.63884e-05
2.68975e-05
2.68971e-05
2.68975e-05
2.63887e-05
2.63855e-05
2.63877e-05
2.68971e-05
2.68973e-05
2.68965e-05
2.68963e-05
2.63856e-05
2.63871e-05
2.68972e-05
2.68967e-05
2.68967e-05
2.68962e-05
2.68971e-05
2.68967e-05
2.68966e-05
2.63852e-05
2.63875e-05
2.68974e-05
2.68966e-05
2.68968e-05
2.63877e-05
2.63839e-05
2.6381e-05
2.68959e-05
2.68951e-05
2.68903e-05
2.68895e-05
2.63829e-05
2.63799e-05
2.68962e-05
2.68957e-05
2.68906e-05
2.68901e-05
2.68959e-05
2.689e-05
2.68903e-05
2.63837e-05
2.63807e-05
2.68962e-05
2.68906e-05
2.68906e-05
2.63809e-05
2.63768e-05
2.63787e-05
2.68891e-05
2.68887e-05
2.68881e-05
2.68881e-05
2.63761e-05
2.63787e-05
2.68894e-05
2.68888e-05
2.68884e-05
2.68878e-05
2.68891e-05
2.68884e-05
2.68881e-05
2.63765e-05
2.63784e-05
2.68894e-05
2.68883e-05
2.68884e-05
2.63788e-05
2.63755e-05
2.63788e-05
2.68882e-05
2.68882e-05
2.68881e-05
2.68881e-05
2.63755e-05
2.63787e-05
2.68885e-05
2.68879e-05
2.68884e-05
2.68879e-05
2.68883e-05
2.68885e-05
2.68882e-05
2.63752e-05
2.63785e-05
2.68886e-05
2.68884e-05
2.68885e-05
2.63788e-05
2.63755e-05
2.63788e-05
2.68883e-05
2.68882e-05
2.68882e-05
2.68881e-05
2.63755e-05
2.63788e-05
2.68885e-05
2.6888e-05
2.68885e-05
2.68879e-05
2.68883e-05
2.68885e-05
2.68882e-05
2.63752e-05
2.63785e-05
2.68886e-05
2.68884e-05
2.68885e-05
2.63789e-05
2.63756e-05
2.63787e-05
2.68883e-05
2.68882e-05
2.68882e-05
2.68881e-05
2.63756e-05
2.63787e-05
2.68886e-05
2.6888e-05
2.68884e-05
2.68879e-05
2.68883e-05
2.68885e-05
2.68882e-05
2.63753e-05
2.63785e-05
2.68886e-05
2.68884e-05
2.68885e-05
2.63788e-05
2.63755e-05
2.63787e-05
2.68883e-05
2.68882e-05
2.68882e-05
2.68881e-05
2.63755e-05
2.63787e-05
2.68885e-05
2.6888e-05
2.68884e-05
2.68879e-05
2.68883e-05
2.68885e-05
2.68882e-05
2.63753e-05
2.63785e-05
2.68886e-05
2.68884e-05
2.68885e-05
2.63788e-05
2.63755e-05
2.63788e-05
2.68883e-05
2.68882e-05
2.68881e-05
2.68881e-05
2.63755e-05
2.63788e-05
2.68886e-05
2.6888e-05
2.68885e-05
2.68879e-05
2.68883e-05
2.68885e-05
2.68882e-05
2.63752e-05
2.63785e-05
2.68886e-05
2.68884e-05
2.68885e-05
2.63788e-05
2.63755e-05
2.63787e-05
2.68882e-05
2.68882e-05
2.68881e-05
2.68881e-05
2.63755e-05
2.63787e-05
2.68886e-05
2.6888e-05
2.68885e-05
2.68879e-05
2.68883e-05
2.68885e-05
2.68882e-05
2.63752e-05
2.63785e-05
2.68886e-05
2.68884e-05
2.68885e-05
2.63788e-05
2.63755e-05
2.63787e-05
2.68882e-05
2.68882e-05
2.68881e-05
2.68881e-05
2.63755e-05
2.63787e-05
2.68886e-05
2.6888e-05
2.68885e-05
2.68879e-05
2.68883e-05
2.68885e-05
2.68882e-05
2.63752e-05
2.63785e-05
2.68886e-05
2.68884e-05
2.68885e-05
2.63788e-05
2.63755e-05
2.63787e-05
2.68882e-05
2.68882e-05
2.68881e-05
2.68881e-05
2.63755e-05
2.63788e-05
2.68886e-05
2.6888e-05
2.68885e-05
2.68879e-05
2.68883e-05
2.68885e-05
2.68882e-05
2.63752e-05
2.63785e-05
2.68886e-05
2.68884e-05
2.68885e-05
2.63788e-05
2.63755e-05
2.63787e-05
2.68882e-05
2.68882e-05
2.68881e-05
2.68881e-05
2.63755e-05
2.63787e-05
2.68886e-05
2.6888e-05
2.68885e-05
2.68879e-05
2.68883e-05
2.68885e-05
2.68882e-05
2.63752e-05
2.63785e-05
2.68886e-05
2.68884e-05
2.68885e-05
2.63788e-05
2.63755e-05
2.63787e-05
2.68882e-05
2.68882e-05
2.68881e-05
2.68881e-05
2.63755e-05
2.63787e-05
2.68886e-05
2.6888e-05
2.68885e-05
2.68879e-05
2.68883e-05
2.68885e-05
2.68882e-05
2.63752e-05
2.63785e-05
2.68886e-05
2.68884e-05
2.68885e-05
2.63788e-05
2.63755e-05
2.68882e-05
2.68882e-05
2.63755e-05
2.68885e-05
2.6888e-05
2.68883e-05
2.63752e-05
2.68885e-05
2.89604e-05
6.95945e-05
2.89614e-05
6.959e-05
8.09504e-05
8.09456e-05
2.89616e-05
6.95966e-05
2.89623e-05
6.95917e-05
2.73438e-05
2.73435e-05
2.73436e-05
2.73435e-05
2.73437e-05
2.73435e-05
2.73435e-05
2.55016e-05
2.85497e-05
2.71633e-05
2.68975e-05
2.55017e-05
2.85469e-05
2.71633e-05
8.09492e-05
8.09439e-05
2.55019e-05
2.71632e-05
2.8549e-05
2.68972e-05
2.55019e-05
2.71632e-05
2.85464e-05
3.37562e-05
3.37575e-05
2.63883e-05
3.37551e-05
3.37565e-05
2.89628e-05
6.959e-05
2.89642e-05
6.95874e-05
8.09426e-05
8.09408e-05
2.89637e-05
6.95918e-05
2.89651e-05
6.95888e-05
2.73437e-05
2.73435e-05
2.73435e-05
2.73434e-05
2.73436e-05
2.73434e-05
2.73434e-05
2.55021e-05
2.85519e-05
2.71632e-05
2.68975e-05
2.55018e-05
2.85487e-05
2.71633e-05
8.09404e-05
8.09375e-05
2.55023e-05
2.71631e-05
2.85512e-05
2.68971e-05
2.55021e-05
2.71631e-05
2.85482e-05
3.37578e-05
3.37591e-05
2.63882e-05
3.3757e-05
3.37583e-05
2.89637e-05
6.95885e-05
2.89656e-05
6.95861e-05
8.09403e-05
8.09397e-05
2.89643e-05
6.95902e-05
2.89659e-05
6.95877e-05
2.73436e-05
2.73433e-05
2.73434e-05
2.73434e-05
2.73435e-05
2.73432e-05
2.73433e-05
2.55025e-05
2.85532e-05
2.71632e-05
2.68975e-05
2.55023e-05
2.85497e-05
2.71632e-05
8.09369e-05
8.09357e-05
2.55024e-05
2.7163e-05
2.85525e-05
2.68971e-05
2.55024e-05
2.7163e-05
2.85493e-05
3.37613e-05
3.37627e-05
2.63884e-05
3.37611e-05
3.37626e-05
2.8965e-05
6.9588e-05
2.89666e-05
6.9586e-05
8.09403e-05
8.09405e-05
2.89659e-05
6.95897e-05
2.89672e-05
6.95876e-05
2.73436e-05
2.73434e-05
2.73435e-05
2.73433e-05
2.73435e-05
2.73432e-05
2.73434e-05
2.55029e-05
2.85538e-05
2.71632e-05
2.68975e-05
2.55027e-05
2.85502e-05
2.71634e-05
8.09367e-05
8.09363e-05
2.55031e-05
2.7163e-05
2.85532e-05
2.68972e-05
2.55029e-05
2.71631e-05
2.85499e-05
3.37652e-05
3.37666e-05
2.63886e-05
3.37642e-05
3.37657e-05
2.8965e-05
6.95882e-05
2.89676e-05
6.95871e-05
8.09431e-05
8.09437e-05
2.89659e-05
6.95901e-05
2.89682e-05
6.95888e-05
2.73435e-05
2.73431e-05
2.73434e-05
2.73429e-05
2.73429e-05
2.73428e-05
2.73429e-05
2.5503e-05
2.85543e-05
2.71632e-05
2.68973e-05
2.55034e-05
2.85505e-05
2.71631e-05
8.09385e-05
8.09391e-05
2.55032e-05
2.71629e-05
2.85538e-05
2.6897e-05
2.55036e-05
2.71629e-05
2.85503e-05
3.37667e-05
3.37681e-05
2.63886e-05
3.37644e-05
3.37659e-05
2.89618e-05
6.95929e-05
2.89659e-05
6.95931e-05
8.09436e-05
8.09407e-05
2.89628e-05
6.95945e-05
2.89666e-05
6.95946e-05
2.73423e-05
2.73424e-05
2.73425e-05
2.73377e-05
2.73373e-05
2.73376e-05
2.73376e-05
2.54987e-05
2.85529e-05
2.7162e-05
2.68937e-05
2.55014e-05
2.85467e-05
2.71605e-05
8.09407e-05
8.09388e-05
2.54991e-05
2.71621e-05
2.8553e-05
2.68947e-05
2.55016e-05
2.71608e-05
2.85476e-05
3.37656e-05
3.37669e-05
2.6385e-05
3.37623e-05
3.37637e-05
2.89556e-05
6.95961e-05
2.89595e-05
6.95939e-05
8.09401e-05
8.094e-05
2.89566e-05
6.95979e-05
2.89602e-05
6.95956e-05
2.73363e-05
2.73365e-05
2.73365e-05
2.73354e-05
2.73356e-05
2.73355e-05
2.73355e-05
2.54914e-05
2.85459e-05
2.71556e-05
2.68887e-05
2.54923e-05
2.85408e-05
2.71551e-05
8.09384e-05
8.09373e-05
2.54921e-05
2.71557e-05
2.85467e-05
2.68887e-05
2.54924e-05
2.71551e-05
2.85415e-05
3.37599e-05
3.37612e-05
2.6379e-05
3.37561e-05
3.37574e-05
2.89542e-05
6.95955e-05
2.89565e-05
6.95935e-05
8.09411e-05
8.09409e-05
2.89553e-05
6.95975e-05
2.89573e-05
6.95952e-05
2.73357e-05
2.73356e-05
2.73356e-05
2.73355e-05
2.73356e-05
2.73355e-05
2.73355e-05
2.54914e-05
2.85438e-05
2.71548e-05
2.68885e-05
2.54912e-05
2.85399e-05
2.71549e-05
8.09379e-05
8.09371e-05
2.54917e-05
2.71547e-05
2.8544e-05
2.68884e-05
2.54919e-05
2.71548e-05
2.85403e-05
3.37567e-05
3.37581e-05
2.63788e-05
3.37547e-05
3.37561e-05
2.89541e-05
6.95956e-05
2.89562e-05
6.95933e-05
8.09411e-05
8.09402e-05
2.89552e-05
6.95975e-05
2.89571e-05
6.95959e-05
2.73357e-05
2.73356e-05
2.73356e-05
2.73355e-05
2.73356e-05
2.73355e-05
2.73355e-05
2.54915e-05
2.85436e-05
2.71548e-05
2.68886e-05
2.54915e-05
2.85399e-05
2.71549e-05
8.09379e-05
8.09371e-05
2.54916e-05
2.71547e-05
2.85437e-05
2.68885e-05
2.54916e-05
2.71548e-05
2.85402e-05
3.37565e-05
3.37579e-05
2.63788e-05
3.37547e-05
3.37561e-05
2.89541e-05
6.95947e-05
2.89562e-05
6.95922e-05
8.09409e-05
8.09404e-05
2.89552e-05
6.95985e-05
2.89571e-05
6.95968e-05
2.73357e-05
2.73356e-05
2.73356e-05
2.73355e-05
2.73356e-05
2.73355e-05
2.73355e-05
2.54911e-05
2.85436e-05
2.71548e-05
2.68886e-05
2.54915e-05
2.85398e-05
2.71549e-05
8.09379e-05
8.09371e-05
2.54914e-05
2.71547e-05
2.85437e-05
2.68885e-05
2.54918e-05
2.71548e-05
2.85402e-05
3.37565e-05
3.37579e-05
2.63788e-05
3.37547e-05
3.37561e-05
2.89541e-05
6.95939e-05
2.89562e-05
6.95916e-05
8.0941e-05
8.09405e-05
2.89552e-05
6.95992e-05
2.89571e-05
6.95973e-05
2.73357e-05
2.73356e-05
2.73356e-05
2.73355e-05
2.73356e-05
2.73355e-05
2.73355e-05
2.54913e-05
2.85436e-05
2.71548e-05
2.68886e-05
2.54911e-05
2.85399e-05
2.71549e-05
8.09379e-05
8.09371e-05
2.54917e-05
2.71547e-05
2.85437e-05
2.68885e-05
2.54915e-05
2.71548e-05
2.85402e-05
3.37565e-05
3.37579e-05
2.63789e-05
3.37547e-05
3.37561e-05
2.89541e-05
6.95935e-05
2.89562e-05
6.95912e-05
8.09412e-05
8.09407e-05
2.89552e-05
6.95995e-05
2.89571e-05
6.95975e-05
2.73357e-05
2.73356e-05
2.73356e-05
2.73355e-05
2.73356e-05
2.73355e-05
2.73355e-05
2.54913e-05
2.85436e-05
2.71548e-05
2.68886e-05
2.54914e-05
2.85399e-05
2.71549e-05
8.09379e-05
8.09371e-05
2.54916e-05
2.71547e-05
2.85437e-05
2.68885e-05
2.54917e-05
2.71548e-05
2.85402e-05
3.37565e-05
3.37579e-05
2.63788e-05
3.37547e-05
3.37561e-05
2.89541e-05
6.95932e-05
2.89562e-05
6.9591e-05
8.09413e-05
8.09409e-05
2.89552e-05
6.95997e-05
2.89571e-05
6.95977e-05
2.73357e-05
2.73356e-05
2.73356e-05
2.73355e-05
2.73356e-05
2.73355e-05
2.73355e-05
2.54914e-05
2.85436e-05
2.71548e-05
2.68886e-05
2.54913e-05
2.85399e-05
2.71549e-05
8.09379e-05
8.09371e-05
2.54917e-05
2.71547e-05
2.85437e-05
2.68885e-05
2.54916e-05
2.71548e-05
2.85402e-05
3.37565e-05
3.37579e-05
2.63788e-05
3.37547e-05
3.37561e-05
2.89541e-05
6.95931e-05
2.89562e-05
6.95909e-05
8.09414e-05
8.09409e-05
2.89552e-05
6.95997e-05
2.89571e-05
6.95977e-05
2.73357e-05
2.73356e-05
2.73356e-05
2.73355e-05
2.73356e-05
2.73355e-05
2.73355e-05
2.54915e-05
2.85436e-05
2.71548e-05
2.68886e-05
2.54915e-05
2.85399e-05
2.71549e-05
8.09379e-05
8.09371e-05
2.54918e-05
2.71547e-05
2.85437e-05
2.68885e-05
2.54918e-05
2.71548e-05
2.85402e-05
3.37565e-05
3.37579e-05
2.63788e-05
3.37547e-05
3.37561e-05
2.89541e-05
6.9593e-05
2.89562e-05
6.95908e-05
8.09415e-05
8.09409e-05
2.89552e-05
6.95998e-05
2.89571e-05
6.95978e-05
2.73357e-05
2.73356e-05
2.73356e-05
2.73355e-05
2.73356e-05
2.73355e-05
2.73355e-05
2.54911e-05
2.85436e-05
2.71548e-05
2.68886e-05
2.54915e-05
2.85399e-05
2.71549e-05
8.09379e-05
8.09371e-05
2.54916e-05
2.71547e-05
2.85437e-05
2.68885e-05
2.54918e-05
2.71548e-05
2.85402e-05
3.37565e-05
3.37579e-05
2.63788e-05
3.37547e-05
3.37561e-05
2.89541e-05
6.9593e-05
2.89562e-05
6.95908e-05
8.09415e-05
8.09409e-05
2.89552e-05
6.95998e-05
2.89571e-05
6.95978e-05
2.73357e-05
2.73356e-05
2.73356e-05
2.73355e-05
2.73356e-05
2.73355e-05
2.73355e-05
2.54913e-05
2.85436e-05
2.71548e-05
2.68886e-05
2.54912e-05
2.85399e-05
2.71549e-05
8.09379e-05
8.09371e-05
2.54917e-05
2.71547e-05
2.85437e-05
2.68885e-05
2.54916e-05
2.71548e-05
2.85402e-05
3.37565e-05
3.37579e-05
2.63788e-05
3.37547e-05
3.37561e-05
2.89541e-05
6.9593e-05
2.89562e-05
6.95908e-05
8.09415e-05
8.09409e-05
2.89552e-05
6.95998e-05
2.89571e-05
6.95978e-05
2.73357e-05
2.73356e-05
2.73356e-05
2.73355e-05
2.73356e-05
2.73355e-05
2.73355e-05
2.54911e-05
2.85436e-05
2.71548e-05
2.68886e-05
2.54914e-05
2.85399e-05
2.71549e-05
8.09379e-05
8.09371e-05
2.54918e-05
2.71547e-05
2.85437e-05
2.68885e-05
2.54918e-05
2.71548e-05
2.85402e-05
3.37565e-05
3.37579e-05
2.63788e-05
3.37547e-05
3.37561e-05
2.89542e-05
6.9593e-05
2.89562e-05
6.95921e-05
8.09415e-05
8.09409e-05
2.89553e-05
6.95998e-05
2.89571e-05
6.95992e-05
2.73356e-05
2.73355e-05
2.73356e-05
2.54913e-05
2.85436e-05
2.71548e-05
2.68885e-05
2.54912e-05
2.85399e-05
2.71549e-05
8.09379e-05
8.09372e-05
2.54919e-05
2.71547e-05
2.85437e-05
2.68885e-05
2.54917e-05
2.71549e-05
2.85403e-05
3.37565e-05
3.37579e-05
2.6379e-05
3.37547e-05
3.37576e-05
6.95943e-05
2.8547e-05
8.0951e-05
3.37549e-05
3.37474e-05
8.09471e-05
2.85455e-05
6.95909e-05
8.09531e-05
8.09481e-05
8.09525e-05
8.09478e-05
3.37568e-05
3.37579e-05
2.63882e-05
3.37552e-05
3.37566e-05
8.09439e-05
8.09478e-05
8.09434e-05
8.09473e-05
2.6385e-05
3.37557e-05
3.37569e-05
3.37569e-05
3.37583e-05
2.89608e-05
6.95955e-05
2.89618e-05
6.9592e-05
2.55013e-05
2.85491e-05
2.71632e-05
2.6897e-05
2.55015e-05
2.85465e-05
2.71632e-05
2.55015e-05
2.85512e-05
2.71633e-05
2.68969e-05
2.55017e-05
2.85484e-05
2.71633e-05
2.89632e-05
6.95883e-05
6.95913e-05
2.89618e-05
2.89635e-05
6.95905e-05
6.95934e-05
2.89622e-05
2.55018e-05
2.68969e-05
2.85475e-05
2.71632e-05
2.85506e-05
2.71632e-05
2.55017e-05
2.55019e-05
2.68969e-05
2.85494e-05
2.71633e-05
2.85525e-05
2.71633e-05
2.55019e-05
3.37571e-05
3.37501e-05
2.63882e-05
3.37565e-05
3.37502e-05
8.09474e-05
8.09421e-05
8.09425e-05
8.09456e-05
2.6385e-05
3.37583e-05
3.37528e-05
3.37587e-05
3.37529e-05
8.09389e-05
8.09426e-05
2.55018e-05
2.85507e-05
2.71632e-05
2.68973e-05
2.55019e-05
2.85477e-05
2.71632e-05
2.89611e-05
6.95942e-05
2.89618e-05
6.95892e-05
2.55016e-05
2.71631e-05
2.85492e-05
2.68967e-05
2.55017e-05
2.71631e-05
2.85463e-05
2.89641e-05
6.95899e-05
6.95931e-05
2.89629e-05
2.55022e-05
2.68972e-05
2.85487e-05
2.71632e-05
2.8552e-05
2.71632e-05
2.55021e-05
2.89636e-05
6.95875e-05
6.95907e-05
2.89624e-05
2.5502e-05
2.68967e-05
2.71631e-05
2.85474e-05
2.71631e-05
2.85506e-05
2.55019e-05
2.89607e-05
6.95923e-05
2.89617e-05
6.95887e-05
2.55014e-05
2.71632e-05
2.8549e-05
2.6897e-05
2.55016e-05
2.71632e-05
2.85464e-05
2.89605e-05
6.95962e-05
2.89615e-05
6.95916e-05
2.55022e-05
2.68975e-05
2.85479e-05
2.71632e-05
2.85511e-05
2.71633e-05
2.55018e-05
2.89634e-05
6.95872e-05
6.95902e-05
2.89621e-05
2.55019e-05
2.6897e-05
2.71632e-05
2.85474e-05
2.71632e-05
2.85504e-05
2.55017e-05
2.89633e-05
6.95898e-05
6.95929e-05
2.89619e-05
3.37525e-05
3.37561e-05
2.63879e-05
3.37509e-05
3.3755e-05
8.0953e-05
8.0948e-05
8.09399e-05
8.09442e-05
2.63847e-05
3.3753e-05
3.37555e-05
3.37533e-05
3.37568e-05
8.09437e-05
8.09477e-05
2.55019e-05
2.71632e-05
2.85499e-05
2.68973e-05
2.55019e-05
2.71632e-05
2.85473e-05
2.89613e-05
6.95966e-05
2.8962e-05
6.9592e-05
2.89614e-05
6.95986e-05
2.89622e-05
6.95941e-05
2.55025e-05
2.68972e-05
2.71631e-05
2.85475e-05
2.71631e-05
2.85504e-05
2.55021e-05
2.55023e-05
2.68973e-05
2.71632e-05
2.85483e-05
2.71632e-05
2.85514e-05
2.55022e-05
2.89638e-05
6.95902e-05
6.95933e-05
2.89626e-05
2.89639e-05
6.95922e-05
6.95954e-05
2.89628e-05
8.0953e-05
8.0948e-05
8.09526e-05
8.09476e-05
2.6385e-05
3.37557e-05
3.3757e-05
3.37569e-05
3.37582e-05
8.09437e-05
8.09477e-05
8.09433e-05
8.09473e-05
8.09442e-05
8.09417e-05
8.09434e-05
8.0941e-05
3.37576e-05
3.37588e-05
2.63882e-05
3.3757e-05
3.37581e-05
8.09404e-05
8.09423e-05
8.09399e-05
8.09413e-05
2.6385e-05
3.3759e-05
3.37603e-05
3.37591e-05
3.37603e-05
2.89632e-05
6.95921e-05
2.89648e-05
6.95896e-05
2.55021e-05
2.85515e-05
2.71633e-05
2.6897e-05
2.55022e-05
2.85483e-05
2.71632e-05
2.55024e-05
2.85534e-05
2.71633e-05
2.6897e-05
2.55024e-05
2.85501e-05
2.71632e-05
2.89654e-05
6.95866e-05
6.9589e-05
2.89634e-05
2.89657e-05
6.9589e-05
6.95913e-05
2.89637e-05
2.55025e-05
2.6897e-05
2.85489e-05
2.71632e-05
2.85523e-05
2.71632e-05
2.55025e-05
2.55028e-05
2.6897e-05
2.85506e-05
2.71632e-05
2.8554e-05
2.71632e-05
2.55027e-05
3.37604e-05
3.37554e-05
2.63883e-05
3.37599e-05
3.3755e-05
8.09396e-05
8.0937e-05
8.09399e-05
8.09415e-05
2.63851e-05
3.3762e-05
3.37568e-05
3.37622e-05
3.37574e-05
8.09361e-05
8.0938e-05
2.55028e-05
2.85529e-05
2.71633e-05
2.68973e-05
2.55027e-05
2.85495e-05
2.71632e-05
2.89633e-05
6.95892e-05
2.89648e-05
6.95865e-05
2.55026e-05
2.71631e-05
2.85516e-05
2.68967e-05
2.55025e-05
2.7163e-05
2.85482e-05
2.89659e-05
6.95881e-05
6.95906e-05
2.8964e-05
2.55033e-05
2.68973e-05
2.85501e-05
2.71632e-05
2.85537e-05
2.71632e-05
2.5503e-05
2.89655e-05
6.95857e-05
6.95883e-05
2.89635e-05
2.55031e-05
2.68967e-05
2.7163e-05
2.85488e-05
2.7163e-05
2.85524e-05
2.55027e-05
2.8963e-05
6.9589e-05
2.89647e-05
6.95864e-05
2.55023e-05
2.71632e-05
2.85514e-05
2.6897e-05
2.55022e-05
2.71631e-05
2.85482e-05
2.89629e-05
6.95913e-05
2.89645e-05
6.95887e-05
2.55027e-05
2.68975e-05
2.85493e-05
2.71632e-05
2.85529e-05
2.71633e-05
2.55023e-05
2.89656e-05
6.95858e-05
6.95882e-05
2.89635e-05
2.55029e-05
2.6897e-05
2.7163e-05
2.85489e-05
2.71631e-05
2.85522e-05
2.55026e-05
2.89654e-05
6.95879e-05
6.95903e-05
2.89633e-05
3.37554e-05
3.37574e-05
2.63879e-05
3.37546e-05
3.37567e-05
8.0944e-05
8.09415e-05
8.09362e-05
8.09383e-05
2.63847e-05
3.37562e-05
3.37588e-05
3.37568e-05
3.37588e-05
8.09402e-05
8.09421e-05
2.55028e-05
2.71632e-05
2.85523e-05
2.68974e-05
2.55027e-05
2.71632e-05
2.85491e-05
2.89634e-05
6.95917e-05
2.8965e-05
6.95891e-05
2.89636e-05
6.95938e-05
2.89651e-05
6.95911e-05
2.55028e-05
2.68971e-05
2.7163e-05
2.85488e-05
2.71631e-05
2.85521e-05
2.55024e-05
2.55034e-05
2.68973e-05
2.71631e-05
2.85498e-05
2.71631e-05
2.85531e-05
2.5503e-05
2.89656e-05
6.95884e-05
6.95907e-05
2.89636e-05
2.89658e-05
6.95904e-05
6.95928e-05
2.89638e-05
8.0944e-05
8.09415e-05
8.09437e-05
8.09411e-05
2.63851e-05
3.37589e-05
3.37603e-05
3.37591e-05
3.37604e-05
8.09402e-05
8.09421e-05
8.09398e-05
8.09418e-05
8.09412e-05
8.09398e-05
8.09405e-05
8.09393e-05
3.37613e-05
3.37626e-05
2.63884e-05
3.37613e-05
3.37626e-05
8.09398e-05
8.09408e-05
8.09394e-05
8.09401e-05
2.63852e-05
3.37632e-05
3.37646e-05
3.37635e-05
3.37649e-05
2.89641e-05
6.95908e-05
2.89662e-05
6.95888e-05
2.55029e-05
2.85529e-05
2.71632e-05
2.68971e-05
2.5503e-05
2.85495e-05
2.71632e-05
2.55031e-05
2.85546e-05
2.71633e-05
2.68972e-05
2.55032e-05
2.8551e-05
2.71633e-05
2.89662e-05
6.9586e-05
6.95879e-05
2.89643e-05
2.89666e-05
6.95888e-05
6.95906e-05
2.89647e-05
2.55034e-05
2.6897e-05
2.85498e-05
2.71632e-05
2.85534e-05
2.71632e-05
2.55031e-05
2.55036e-05
2.68972e-05
2.85513e-05
2.71633e-05
2.85549e-05
2.71633e-05
2.55034e-05
3.37643e-05
3.37592e-05
2.63885e-05
3.3764e-05
3.37584e-05
8.09372e-05
8.09359e-05
8.09394e-05
8.09407e-05
2.63853e-05
3.37656e-05
3.37597e-05
3.37663e-05
3.37608e-05
8.09361e-05
8.09371e-05
2.55031e-05
2.85543e-05
2.71633e-05
2.68973e-05
2.55033e-05
2.85507e-05
2.71633e-05
2.89639e-05
6.95876e-05
2.89657e-05
6.95853e-05
2.55029e-05
2.7163e-05
2.8553e-05
2.68968e-05
2.5503e-05
2.7163e-05
2.85494e-05
2.89666e-05
6.95875e-05
6.95896e-05
2.89651e-05
2.55035e-05
2.68973e-05
2.8551e-05
2.71631e-05
2.85548e-05
2.71632e-05
2.55034e-05
2.89662e-05
6.95852e-05
6.95873e-05
2.89646e-05
2.55033e-05
2.68967e-05
2.71628e-05
2.85498e-05
2.71629e-05
2.85535e-05
2.55032e-05
2.89638e-05
6.95877e-05
2.89659e-05
6.95854e-05
2.55027e-05
2.71631e-05
2.85528e-05
2.68971e-05
2.55029e-05
2.71631e-05
2.85494e-05
2.89636e-05
6.95897e-05
2.89657e-05
6.95875e-05
2.5503e-05
2.68975e-05
2.855e-05
2.71632e-05
2.85537e-05
2.71632e-05
2.55027e-05
2.89663e-05
6.95853e-05
6.95874e-05
2.89644e-05
2.55032e-05
2.6897e-05
2.71631e-05
2.85497e-05
2.71631e-05
2.85532e-05
2.5503e-05
2.89661e-05
6.95873e-05
6.95893e-05
2.89642e-05
3.37587e-05
3.3761e-05
2.63881e-05
3.37585e-05
3.3761e-05
8.09411e-05
8.09397e-05
8.09357e-05
8.0937e-05
2.63849e-05
3.37604e-05
3.37629e-05
3.3761e-05
3.37632e-05
8.09396e-05
8.09406e-05
2.5503e-05
2.71631e-05
2.85537e-05
2.68973e-05
2.55032e-05
2.7163e-05
2.85503e-05
2.89639e-05
6.95901e-05
2.89657e-05
6.95879e-05
2.89642e-05
6.95921e-05
2.8966e-05
6.959e-05
2.55028e-05
2.68971e-05
2.7163e-05
2.85496e-05
2.7163e-05
2.85531e-05
2.55028e-05
2.55035e-05
2.68973e-05
2.7163e-05
2.85507e-05
2.7163e-05
2.85542e-05
2.55034e-05
2.89662e-05
6.95877e-05
6.95897e-05
2.89646e-05
2.89664e-05
6.95898e-05
6.95918e-05
2.89649e-05
8.0941e-05
8.09397e-05
8.09407e-05
8.09393e-05
2.63852e-05
3.3763e-05
3.37644e-05
3.37633e-05
3.37647e-05
8.09397e-05
8.09406e-05
8.09393e-05
8.09403e-05
8.09409e-05
8.09404e-05
8.09402e-05
8.094e-05
3.37652e-05
3.37667e-05
2.63886e-05
3.37644e-05
3.37658e-05
8.09413e-05
8.09416e-05
8.09409e-05
8.0941e-05
2.63854e-05
3.3765e-05
3.37665e-05
3.37663e-05
3.37678e-05
2.89654e-05
6.95907e-05
2.89672e-05
6.95889e-05
2.55038e-05
2.85537e-05
2.71634e-05
2.68972e-05
2.55036e-05
2.85502e-05
2.71634e-05
2.5504e-05
2.85552e-05
2.71635e-05
2.68974e-05
2.55039e-05
2.85516e-05
2.71635e-05
2.89674e-05
6.95861e-05
6.95879e-05
2.89654e-05
2.89678e-05
6.95892e-05
6.95908e-05
2.89659e-05
2.55043e-05
2.68972e-05
2.85505e-05
2.71632e-05
2.85541e-05
2.71633e-05
2.5504e-05
2.55046e-05
2.68974e-05
2.85518e-05
2.71632e-05
2.85555e-05
2.71634e-05
2.55043e-05
3.37676e-05
3.3762e-05
2.63888e-05
3.37666e-05
3.37606e-05
8.09376e-05
8.09369e-05
8.0942e-05
8.09417e-05
2.63856e-05
3.37663e-05
3.37608e-05
3.37683e-05
3.37627e-05
8.09382e-05
8.09384e-05
2.55041e-05
2.85551e-05
2.71632e-05
2.68974e-05
2.5504e-05
2.85514e-05
2.71631e-05
2.89654e-05
6.95872e-05
2.8967e-05
6.95852e-05
2.55039e-05
2.7163e-05
2.85539e-05
2.68968e-05
2.55038e-05
2.7163e-05
2.85501e-05
2.89681e-05
6.95878e-05
6.95897e-05
2.89663e-05
2.55046e-05
2.68974e-05
2.85517e-05
2.7163e-05
2.85555e-05
2.71631e-05
2.55043e-05
2.89677e-05
6.95854e-05
6.95873e-05
2.89659e-05
2.55044e-05
2.68968e-05
2.7163e-05
2.85504e-05
2.7163e-05
2.85542e-05
2.55041e-05
2.8965e-05
6.95873e-05
2.89669e-05
6.95855e-05
2.55036e-05
2.71633e-05
2.85535e-05
2.68971e-05
2.55035e-05
2.71633e-05
2.855e-05
2.8965e-05
6.95891e-05
2.89668e-05
6.95873e-05
2.55034e-05
2.68974e-05
2.85505e-05
2.71632e-05
2.85543e-05
2.71633e-05
2.55034e-05
2.89674e-05
6.9586e-05
6.95875e-05
2.89655e-05
2.55041e-05
2.68971e-05
2.71633e-05
2.85503e-05
2.71633e-05
2.85539e-05
2.55037e-05
2.89674e-05
6.95874e-05
6.95892e-05
2.89654e-05
3.37627e-05
3.3765e-05
2.63883e-05
3.37616e-05
3.37642e-05
8.09408e-05
8.09402e-05
8.09372e-05
8.09378e-05
2.63851e-05
3.37622e-05
3.37648e-05
3.37637e-05
3.37661e-05
8.09411e-05
8.09415e-05
2.5504e-05
2.71632e-05
2.85545e-05
2.68975e-05
2.55039e-05
2.71632e-05
2.8551e-05
2.89654e-05
6.95896e-05
2.8967e-05
6.95877e-05
2.89657e-05
6.95916e-05
2.89672e-05
6.95898e-05
2.55035e-05
2.68971e-05
2.7163e-05
2.85503e-05
2.71631e-05
2.85538e-05
2.55036e-05
2.55045e-05
2.68975e-05
2.71631e-05
2.85513e-05
2.71631e-05
2.85548e-05
2.55041e-05
2.89676e-05
6.95879e-05
6.95897e-05
2.89659e-05
2.89679e-05
6.95899e-05
6.95917e-05
2.89661e-05
8.09408e-05
8.09403e-05
8.09404e-05
8.09399e-05
2.63854e-05
3.37649e-05
3.37663e-05
3.37661e-05
3.37676e-05
8.09412e-05
8.09415e-05
8.09407e-05
8.09411e-05
8.09428e-05
8.09434e-05
8.09421e-05
8.09428e-05
3.37666e-05
3.37682e-05
2.63886e-05
3.37646e-05
3.37661e-05
8.09442e-05
8.09448e-05
8.09437e-05
8.0944e-05
2.63853e-05
3.37639e-05
3.37655e-05
3.3766e-05
3.37676e-05
2.89654e-05
6.95914e-05
2.89682e-05
6.95914e-05
2.55029e-05
2.85543e-05
2.71631e-05
2.6897e-05
2.5504e-05
2.85505e-05
2.7163e-05
2.55032e-05
2.85556e-05
2.71632e-05
2.68971e-05
2.55042e-05
2.85516e-05
2.7163e-05
2.89671e-05
6.95901e-05
6.95895e-05
2.8964e-05
2.89675e-05
6.95946e-05
6.95939e-05
2.89643e-05
2.55027e-05
2.68967e-05
2.85499e-05
2.71626e-05
2.85543e-05
2.71628e-05
2.55018e-05
2.5503e-05
2.68968e-05
2.85505e-05
2.71626e-05
2.85553e-05
2.71629e-05
2.55019e-05
3.37678e-05
3.37627e-05
2.63886e-05
3.37657e-05
3.37606e-05
8.094e-05
8.09399e-05
8.09434e-05
8.09446e-05
2.63851e-05
3.37648e-05
3.376e-05
3.37673e-05
3.37625e-05
8.09397e-05
8.09412e-05
2.55031e-05
2.85557e-05
2.7163e-05
2.68971e-05
2.55042e-05
2.85517e-05
2.7163e-05
2.89655e-05
6.95875e-05
2.8968e-05
6.95864e-05
2.55029e-05
2.71631e-05
2.85545e-05
2.68966e-05
2.55039e-05
2.7163e-05
2.85505e-05
2.89678e-05
6.95916e-05
6.95914e-05
2.8965e-05
2.5503e-05
2.68969e-05
2.85511e-05
2.71626e-05
2.85556e-05
2.71629e-05
2.55021e-05
2.89674e-05
6.95892e-05
6.95889e-05
2.89645e-05
2.55028e-05
2.68964e-05
2.71626e-05
2.85498e-05
2.71629e-05
2.85544e-05
2.55019e-05
2.89651e-05
6.95885e-05
2.89678e-05
6.95883e-05
2.55028e-05
2.71633e-05
2.85541e-05
2.68971e-05
2.55036e-05
2.71632e-05
2.85503e-05
2.8965e-05
6.95894e-05
2.89677e-05
6.95884e-05
2.55029e-05
2.68971e-05
2.85496e-05
2.71627e-05
2.85544e-05
2.7163e-05
2.55017e-05
2.89672e-05
6.95914e-05
6.95911e-05
2.89641e-05
2.55027e-05
2.68969e-05
2.71627e-05
2.85497e-05
2.7163e-05
2.85541e-05
2.55018e-05
2.89671e-05
6.95913e-05
6.95908e-05
2.89639e-05
3.3764e-05
3.37665e-05
2.63883e-05
3.37617e-05
3.37644e-05
8.09426e-05
8.09431e-05
8.094e-05
8.09409e-05
2.6385e-05
3.37611e-05
3.37639e-05
3.37635e-05
3.3766e-05
8.09439e-05
8.09445e-05
2.55031e-05
2.7163e-05
2.85551e-05
2.68973e-05
2.5504e-05
2.7163e-05
2.85512e-05
2.89656e-05
6.95898e-05
2.89681e-05
6.95889e-05
2.89658e-05
6.95919e-05
2.89683e-05
6.95909e-05
2.55031e-05
2.68969e-05
2.71626e-05
2.85498e-05
2.71628e-05
2.8554e-05
2.55019e-05
2.5503e-05
2.68971e-05
2.71626e-05
2.85506e-05
2.71628e-05
2.85549e-05
2.55022e-05
2.89675e-05
6.95917e-05
6.95913e-05
2.89646e-05
2.89676e-05
6.95938e-05
6.95933e-05
2.89647e-05
8.09426e-05
8.09431e-05
8.09422e-05
8.09427e-05
2.63853e-05
3.37639e-05
3.37653e-05
3.3766e-05
3.37674e-05
8.09439e-05
8.09446e-05
8.09436e-05
8.09442e-05
8.09448e-05
8.0943e-05
8.09442e-05
8.09425e-05
3.37654e-05
3.3767e-05
2.63851e-05
3.37623e-05
3.37639e-05
8.0942e-05
8.09436e-05
8.09414e-05
8.09429e-05
2.63804e-05
3.37588e-05
3.37605e-05
3.37632e-05
3.37649e-05
2.89621e-05
6.9597e-05
2.89664e-05
6.95959e-05
2.54987e-05
2.85534e-05
2.71621e-05
2.68943e-05
2.55015e-05
2.85477e-05
2.71606e-05
2.54985e-05
2.85538e-05
2.71619e-05
2.6893e-05
2.55016e-05
2.85476e-05
2.71603e-05
2.89634e-05
6.95941e-05
6.95954e-05
2.89582e-05
2.89636e-05
6.95958e-05
6.9598e-05
2.89584e-05
2.54972e-05
2.68922e-05
2.8544e-05
2.71568e-05
2.85507e-05
2.71586e-05
2.54925e-05
2.54969e-05
2.6891e-05
2.85444e-05
2.71566e-05
2.85507e-05
2.71583e-05
2.54925e-05
3.37661e-05
3.37615e-05
2.63835e-05
3.37621e-05
3.37573e-05
8.09407e-05
8.09387e-05
8.09392e-05
8.09416e-05
2.63788e-05
3.37582e-05
3.37531e-05
3.3763e-05
3.37584e-05
8.09378e-05
8.09397e-05
2.54991e-05
2.85548e-05
2.71622e-05
2.68948e-05
2.55019e-05
2.85489e-05
2.71608e-05
2.89624e-05
6.9592e-05
2.89664e-05
6.95923e-05
2.5499e-05
2.71621e-05
2.85536e-05
2.68942e-05
2.55017e-05
2.71606e-05
2.85477e-05
2.89641e-05
6.95957e-05
6.9597e-05
2.89591e-05
2.54976e-05
2.68925e-05
2.85452e-05
2.71569e-05
2.8552e-05
2.71587e-05
2.54929e-05
2.89637e-05
6.95935e-05
6.95948e-05
2.89587e-05
2.54974e-05
2.6892e-05
2.71568e-05
2.8544e-05
2.71586e-05
2.85509e-05
2.54927e-05
2.89621e-05
6.95941e-05
2.89663e-05
6.95938e-05
2.54988e-05
2.71621e-05
2.85532e-05
2.68943e-05
2.55015e-05
2.71606e-05
2.85476e-05
2.89619e-05
6.95939e-05
2.89661e-05
6.95944e-05
2.54973e-05
2.68916e-05
2.85429e-05
2.71567e-05
2.85497e-05
2.71584e-05
2.54927e-05
2.89636e-05
6.95943e-05
6.9596e-05
2.89585e-05
2.54973e-05
2.68922e-05
2.71568e-05
2.85439e-05
2.71586e-05
2.85505e-05
2.54925e-05
2.89635e-05
6.95956e-05
6.95967e-05
2.89583e-05
3.37628e-05
3.37654e-05
2.63848e-05
3.37595e-05
3.37623e-05
8.09446e-05
8.09428e-05
8.09377e-05
8.09397e-05
2.63802e-05
3.3756e-05
3.37588e-05
3.37608e-05
3.37632e-05
8.09417e-05
8.09434e-05
2.54992e-05
2.71621e-05
2.85541e-05
2.68946e-05
2.55019e-05
2.71607e-05
2.85484e-05
2.89625e-05
6.95943e-05
2.89665e-05
6.95949e-05
2.89626e-05
6.95964e-05
2.89666e-05
6.95969e-05
2.54976e-05
2.68924e-05
2.71569e-05
2.85439e-05
2.71586e-05
2.85505e-05
2.54929e-05
2.54976e-05
2.68925e-05
2.71569e-05
2.85448e-05
2.71587e-05
2.85514e-05
2.5493e-05
2.89638e-05
6.9596e-05
6.95971e-05
2.89589e-05
2.89639e-05
6.95981e-05
6.95992e-05
2.8959e-05
8.09447e-05
8.09428e-05
8.09443e-05
8.09424e-05
2.63804e-05
3.37589e-05
3.37603e-05
3.37633e-05
3.37647e-05
8.09417e-05
8.09434e-05
8.09413e-05
8.09431e-05
8.09427e-05
8.09418e-05
8.0942e-05
8.09409e-05
3.37596e-05
3.37613e-05
2.6379e-05
3.37559e-05
3.37577e-05
8.09416e-05
8.09427e-05
8.09408e-05