/*--------------------------------*- C++ -*----------------------------------*\
| =========                 |                                                 |
| \\      /  F ield         | OpenFOAM: The Open Source CFD Toolbox           |
|  \\    /   O peration     | Version:  2206                                  |
|   \\  /    A nd           | Website:  www.openfoam.com                      |
|    \\/     M anipulation  |                                                 |
\*---------------------------------------------------------------------------*/
FoamFile
{
    version     2.0;
    format      ascii;
    arch        "LSB;label=32;scalar=64";
    class       volScalarField;
    location    "22";
    object      nut;
}
// * * * * * * * * * * * * * * * * * * * * * * * * * * * * * * * * * * * * * //

dimensions      [0 2 -1 0 0 0 0];

internalField   nonuniform List<scalar> 
28897
(
0.000224792
0.000205037
0.000205028
0.00018283
0.000224791
0.000205036
0.000205027
0.000182828
0.00022479
0.000205034
0.000205025
0.000182827
0.00022479
0.000205032
0.000205025
0.000182826
0.000224776
0.000205019
0.000205005
0.000182795
0.000224765
0.000204978
0.000204972
0.000182749
0.000224771
0.000204982
0.000204976
0.000182756
0.000224771
0.000204983
0.000204977
0.000182751
0.000224771
0.000204983
0.000204977
0.000182753
0.000224771
0.000204983
0.000204977
0.000182754
0.000224771
0.000204983
0.000204977
0.000182753
0.000224771
0.000204983
0.000204977
0.000182753
0.000224771
0.000204984
0.000204977
0.000182753
0.000224771
0.000204984
0.000204977
0.000182753
0.000224771
0.000204984
0.000204977
0.000182753
0.000224771
0.000204984
0.000204977
0.000182753
0.000224771
0.000204984
0.000204977
0.000182753
0.000224772
0.000204984
0.000204977
0.000182753
0.000182989
0.00020502
0.000205019
0.000182994
0.000205033
0.000205011
0.000205037
0.00020502
0.000182982
0.000205028
0.000205031
0.000182986
0.000182834
0.000182986
0.000205021
0.00020502
0.000205021
0.000205019
0.000182838
0.00018299
0.000205034
0.000205012
0.000205033
0.000205011
0.000205022
0.000205037
0.000205021
0.000182828
0.000182979
0.000205032
0.000205027
0.000205031
0.000182984
0.000182832
0.000182984
0.00020502
0.000205019
0.000205018
0.000205018
0.000182836
0.000182989
0.000205031
0.000205011
0.00020503
0.00020501
0.000205021
0.000205034
0.000205021
0.000182825
0.000182977
0.000205031
0.000205025
0.00020503
0.000182982
0.00018283
0.000182984
0.000205016
0.000205019
0.000205017
0.000205018
0.000182834
0.000182989
0.000205028
0.000205008
0.00020503
0.000205007
0.000205022
0.000205032
0.00020502
0.000182823
0.000182977
0.000205029
0.000205025
0.000205027
0.000182982
0.00018283
0.000182964
0.000205018
0.000205016
0.000205009
0.000205008
0.000182835
0.000182975
0.00020503
0.000205007
0.000205021
0.000204999
0.00020502
0.000205026
0.00020501
0.000182823
0.000182957
0.000205027
0.000205017
0.00020502
0.000182963
0.000182799
0.000182908
0.000204996
0.000204999
0.000204963
0.000204963
0.000182813
0.000182916
0.000205008
0.000204987
0.000204975
0.000204953
0.000204998
0.000204981
0.000204964
0.000182793
0.000182901
0.000205007
0.000204972
0.000204974
0.000182906
0.000182755
0.000182915
0.000204965
0.000204963
0.000204968
0.000204965
0.000182757
0.000182919
0.000204977
0.000204955
0.00020498
0.000204958
0.000204965
0.000204982
0.000204967
0.000182748
0.000182908
0.000204975
0.000204976
0.000204978
0.000182912
0.00018276
0.000182908
0.000204968
0.000204966
0.000204968
0.000204966
0.000182765
0.000182913
0.000204981
0.000204959
0.00020498
0.000204958
0.000204968
0.000204983
0.000204968
0.000182754
0.000182901
0.000204979
0.000204977
0.000204979
0.000182906
0.000182755
0.000182913
0.000204969
0.000204966
0.000204969
0.000204966
0.000182759
0.000182917
0.000204981
0.000204959
0.000204981
0.000204959
0.000204968
0.000204984
0.000204968
0.000182749
0.000182905
0.00020498
0.000204978
0.00020498
0.00018291
0.000182758
0.000182911
0.000204969
0.000204967
0.000204969
0.000204966
0.000182763
0.000182914
0.000204981
0.00020496
0.000204981
0.000204959
0.000204969
0.000204984
0.000204968
0.000182751
0.000182904
0.00020498
0.000204978
0.00020498
0.00018291
0.000182758
0.00018291
0.000204969
0.000204967
0.000204969
0.000204967
0.00018276
0.000182913
0.000204982
0.00020496
0.000204981
0.000204959
0.000204969
0.000204984
0.000204968
0.000182751
0.000182903
0.00020498
0.000204978
0.000204979
0.000182909
0.000182757
0.00018291
0.00020497
0.000204967
0.000204969
0.000204967
0.000182759
0.000182914
0.000204981
0.00020496
0.000204981
0.000204959
0.000204969
0.000204984
0.000204968
0.00018275
0.000182904
0.00020498
0.000204977
0.000204979
0.000182909
0.000182756
0.00018291
0.000204969
0.000204967
0.000204969
0.000204967
0.00018276
0.000182914
0.000204981
0.000204959
0.00020498
0.000204959
0.000204969
0.000204984
0.000204968
0.00018275
0.000182904
0.00020498
0.000204977
0.000204979
0.000182909
0.000182757
0.000182911
0.000204969
0.000204967
0.000204969
0.000204967
0.00018276
0.000182915
0.000204981
0.00020496
0.00020498
0.000204959
0.000204969
0.000204984
0.000204968
0.00018275
0.000182904
0.00020498
0.000204977
0.000204979
0.000182909
0.000182757
0.000182911
0.00020497
0.000204967
0.00020497
0.000204967
0.000182761
0.000182915
0.00020498
0.000204959
0.00020498
0.000204959
0.000204969
0.000204984
0.000204968
0.000182751
0.000182904
0.00020498
0.000204977
0.000204979
0.000182909
0.000182757
0.000182911
0.00020497
0.000204967
0.00020497
0.000204967
0.000182761
0.000182915
0.000204981
0.00020496
0.00020498
0.000204959
0.000204969
0.000204984
0.000204968
0.00018275
0.000182904
0.00020498
0.000204977
0.000204979
0.000182909
0.000182757
0.000182911
0.00020497
0.000204967
0.00020497
0.000204967
0.000182761
0.000182915
0.00020498
0.000204959
0.00020498
0.000204959
0.000204969
0.000204984
0.000204968
0.00018275
0.000182904
0.00020498
0.000204977
0.000204979
0.000182909
0.000182757
0.000182911
0.00020497
0.000204967
0.00020497
0.000204967
0.000182761
0.000182915
0.000204981
0.00020496
0.00020498
0.000204959
0.000204969
0.000204984
0.000204968
0.000182751
0.000182905
0.00020498
0.000204977
0.000204979
0.000182909
0.000182757
0.000204971
0.000204968
0.000182761
0.000204981
0.00020496
0.000204969
0.000182751
0.00020498
0.000224792
0.000224792
0.000224789
0.000224791
4.66309e-05
4.91594e-05
4.66214e-05
4.91583e-05
2.57127e-05
2.57118e-05
4.66369e-05
4.91579e-05
4.66291e-05
4.91568e-05
0.000224793
0.00022479
0.000224791
0.000224791
0.000224792
0.000224789
0.00022479
0.000110789
5.68805e-05
0.000217859
0.000205038
0.000110761
5.68979e-05
0.00021786
2.57093e-05
2.57085e-05
0.000110789
0.000217856
5.68818e-05
0.000205028
0.000110763
0.000217857
5.68986e-05
3.54407e-05
3.54309e-05
0.000182985
3.54456e-05
3.54358e-05
4.66331e-05
4.91586e-05
4.66238e-05
4.91577e-05
2.57113e-05
2.5711e-05
4.66389e-05
4.91571e-05
4.66297e-05
4.91562e-05
0.000224792
0.000224789
0.000224792
0.00022479
0.000224792
0.000224788
0.000224792
0.000110792
5.68834e-05
0.000217859
0.000205034
0.000110764
5.69009e-05
0.00021786
2.57082e-05
2.57079e-05
0.000110787
0.000217856
5.68847e-05
0.000205026
0.00011076
0.000217854
5.6901e-05
3.54467e-05
3.5439e-05
0.000182983
3.54521e-05
3.5445e-05
4.66386e-05
4.91583e-05
4.66286e-05
4.91575e-05
2.57109e-05
2.57108e-05
4.66454e-05
4.91568e-05
4.66359e-05
4.9156e-05
0.000224792
0.000224788
0.000224792
0.00022479
0.000224791
0.000224788
0.00022479
0.000110796
5.68857e-05
0.000217858
0.000205032
0.000110767
5.69027e-05
0.000217856
2.57079e-05
2.57078e-05
0.00011079
0.000217853
5.68865e-05
0.000205024
0.000110762
0.000217852
5.69034e-05
3.54535e-05
3.54466e-05
0.000182982
3.54581e-05
3.54511e-05
4.66382e-05
4.91584e-05
4.66317e-05
4.9158e-05
2.57111e-05
2.57112e-05
4.66451e-05
4.91568e-05
4.66393e-05
4.91565e-05
0.000224791
0.000224788
0.00022479
0.000224786
0.000224787
0.000224783
0.000224785
0.00011079
5.6888e-05
0.000217856
0.000205031
0.000110767
5.69043e-05
0.000217855
2.57082e-05
2.57083e-05
0.000110791
0.000217854
5.68899e-05
0.000205023
0.000110766
0.000217853
5.69039e-05
3.54573e-05
3.54503e-05
0.000182979
3.54594e-05
3.54516e-05
4.66141e-05
4.91608e-05
4.66157e-05
4.91613e-05
2.57118e-05
2.57116e-05
4.66204e-05
4.91593e-05
4.6623e-05
4.91598e-05
0.00022478
0.000224774
0.000224776
0.000224762
0.000224763
0.000224759
0.000224761
0.000110747
5.68783e-05
0.000217843
0.000205003
0.000110745
5.68842e-05
0.000217829
2.57088e-05
2.57085e-05
0.000110736
0.000217837
5.6875e-05
0.000204988
0.000110744
0.000217821
5.68798e-05
3.54505e-05
3.54431e-05
0.000182925
3.5449e-05
3.54412e-05
4.66011e-05
4.91625e-05
4.65952e-05
4.91616e-05
2.57116e-05
2.57114e-05
4.66082e-05
4.9161e-05
4.66028e-05
4.91602e-05
0.000224766
0.000224763
0.000224765
0.000224771
0.000224771
0.000224769
0.00022477
0.000110711
5.68515e-05
0.000217818
0.00020498
0.00011068
5.68636e-05
0.000217821
2.57085e-05
2.57083e-05
0.000110714
0.000217816
5.68516e-05
0.000204975
0.000110683
0.000217819
5.68648e-05
3.54374e-05
3.54304e-05
0.000182914
3.54378e-05
3.54314e-05
4.66001e-05
4.91623e-05
4.65921e-05
4.91615e-05
2.57115e-05
2.57113e-05
4.66072e-05
4.91608e-05
4.65999e-05
4.91601e-05
0.000224772
0.000224769
0.000224771
0.000224771
0.000224771
0.000224769
0.00022477
0.000110712
5.68448e-05
0.000217822
0.000204983
0.000110685
5.68609e-05
0.000217822
2.57085e-05
2.57083e-05
0.000110715
0.000217821
5.68479e-05
0.000204977
0.000110687
0.000217821
5.68634e-05
3.54341e-05
3.5428e-05
0.000182908
3.54368e-05
3.54307e-05
4.66001e-05
4.91623e-05
4.65919e-05
4.91615e-05
2.57115e-05
2.57113e-05
4.66072e-05
4.91608e-05
4.65998e-05
4.916e-05
0.000224771
0.000224769
0.00022477
0.000224771
0.000224771
0.000224769
0.00022477
0.00011071
5.68444e-05
0.000217823
0.000204984
0.000110683
5.68608e-05
0.000217824
2.57085e-05
2.57083e-05
0.000110714
0.000217821
5.68478e-05
0.000204978
0.000110687
0.000217822
5.68634e-05
3.5434e-05
3.5428e-05
0.000182909
3.54368e-05
3.54307e-05
4.66e-05
4.91623e-05
4.65919e-05
4.91615e-05
2.57115e-05
2.57113e-05
4.66072e-05
4.91608e-05
4.65998e-05
4.916e-05
0.000224772
0.000224769
0.000224771
0.000224771
0.000224771
0.000224769
0.00022477
0.000110711
5.68444e-05
0.000217823
0.000204983
0.000110684
5.68608e-05
0.000217823
2.57085e-05
2.57083e-05
0.000110714
0.000217821
5.68478e-05
0.000204978
0.000110686
0.000217822
5.68634e-05
3.5434e-05
3.5428e-05
0.000182907
3.54368e-05
3.54307e-05
4.66001e-05
4.91623e-05
4.65919e-05
4.91615e-05
2.57115e-05
2.57114e-05
4.66072e-05
4.91608e-05
4.65998e-05
4.916e-05
0.000224772
0.000224769
0.000224771
0.000224771
0.000224771
0.000224769
0.00022477
0.000110712
5.68444e-05
0.000217823
0.000204984
0.000110684
5.68608e-05
0.000217824
2.57085e-05
2.57083e-05
0.000110715
0.000217821
5.68478e-05
0.000204978
0.000110687
0.000217822
5.68636e-05
3.54341e-05
3.5428e-05
0.000182909
3.54368e-05
3.54307e-05
4.66001e-05
4.91628e-05
4.6592e-05
4.91624e-05
2.57111e-05
2.5711e-05
4.66072e-05
4.91604e-05
4.65998e-05
4.91595e-05
0.000224772
0.000224769
0.00022477
0.000224771
0.000224771
0.000224769
0.00022477
0.000110711
5.68444e-05
0.000217823
0.000204984
0.000110684
5.68608e-05
0.000217824
2.57085e-05
2.57083e-05
0.000110715
0.000217821
5.68478e-05
0.000204978
0.000110687
0.000217822
5.68637e-05
3.54341e-05
3.5428e-05
0.000182909
3.54368e-05
3.54307e-05
4.66001e-05
4.91635e-05
4.6592e-05
4.91628e-05
2.5711e-05
2.57108e-05
4.66072e-05
4.91599e-05
4.65998e-05
4.91591e-05
0.000224772
0.000224769
0.000224771
0.000224771
0.000224771
0.000224769
0.00022477
0.00011071
5.68444e-05
0.000217823
0.000204984
0.000110684
5.68608e-05
0.000217824
2.57085e-05
2.57083e-05
0.000110713
0.000217821
5.68479e-05
0.000204977
0.000110686
0.000217822
5.68637e-05
3.54341e-05
3.5428e-05
0.000182909
3.54368e-05
3.54307e-05
4.66001e-05
4.91636e-05
4.6592e-05
4.9163e-05
2.57109e-05
2.57108e-05
4.66072e-05
4.91598e-05
4.65998e-05
4.9159e-05
0.000224772
0.000224769
0.000224771
0.000224771
0.000224771
0.000224769
0.00022477
0.000110712
5.68444e-05
0.000217823
0.000204984
0.000110684
5.68608e-05
0.000217824
2.57085e-05
2.57083e-05
0.000110712
0.000217821
5.68479e-05
0.000204977
0.000110684
0.000217822
5.68637e-05
3.5434e-05
3.5428e-05
0.000182909
3.54368e-05
3.54307e-05
4.66001e-05
4.91637e-05
4.65919e-05
4.9163e-05
2.57109e-05
2.57108e-05
4.66072e-05
4.91598e-05
4.65998e-05
4.9159e-05
0.000224772
0.000224769
0.000224771
0.000224771
0.000224771
0.000224769
0.00022477
0.00011071
5.68444e-05
0.000217823
0.000204984
0.000110684
5.68608e-05
0.000217823
2.57085e-05
2.57083e-05
0.000110711
0.000217821
5.68479e-05
0.000204977
0.000110683
0.000217822
5.68637e-05
3.5434e-05
3.5428e-05
0.000182909
3.54368e-05
3.54307e-05
4.66001e-05
4.91638e-05
4.65919e-05
4.91631e-05
2.57109e-05
2.57108e-05
4.66072e-05
4.91598e-05
4.65998e-05
4.9159e-05
0.000224772
0.000224769
0.000224771
0.000224771
0.000224771
0.000224769
0.00022477
0.000110711
5.68444e-05
0.000217823
0.000204984
0.000110684
5.68608e-05
0.000217824
2.57085e-05
2.57083e-05
0.000110711
0.000217821
5.6848e-05
0.000204977
0.000110683
0.000217822
5.68638e-05
3.5434e-05
3.5428e-05
0.000182909
3.54368e-05
3.54307e-05
4.66001e-05
4.91638e-05
4.6592e-05
4.91631e-05
2.57109e-05
2.57108e-05
4.66072e-05
4.91598e-05
4.65998e-05
4.9159e-05
0.000224772
0.000224769
0.000224771
0.000224771
0.000224772
0.000224769
0.00022477
0.00011071
5.68444e-05
0.000217823
0.000204984
0.000110683
5.68608e-05
0.000217824
2.57085e-05
2.57083e-05
0.000110711
0.000217822
5.6848e-05
0.000204977
0.000110683
0.000217822
5.68638e-05
3.5434e-05
3.5428e-05
0.000182909
3.54368e-05
3.54307e-05
4.66001e-05
4.91638e-05
4.6592e-05
4.91631e-05
2.57109e-05
2.57108e-05
4.66072e-05
4.91598e-05
4.65998e-05
4.9159e-05
0.000224772
0.000224769
0.000224771
0.000224771
0.000224771
0.000224769
0.00022477
0.00011071
5.68444e-05
0.000217823
0.000204984
0.000110684
5.68608e-05
0.000217824
2.57085e-05
2.57083e-05
0.000110711
0.000217822
5.6848e-05
0.000204978
0.000110683
0.000217822
5.68638e-05
3.5434e-05
3.5428e-05
0.000182909
3.54368e-05
3.54307e-05
4.91638e-05
4.6592e-05
2.57109e-05
4.91598e-05
4.65999e-05
0.000224772
0.000224769
0.000224771
5.68445e-05
0.000217824
0.000110684
2.57085e-05
0.000217822
5.6848e-05
0.000110682
3.54341e-05
3.5428e-05
2.57121e-05
2.57131e-05
2.57109e-05
2.57118e-05
0.000182816
3.54342e-05
3.54335e-05
3.54282e-05
3.54303e-05
4.66206e-05
4.91587e-05
4.91607e-05
4.6629e-05
4.66214e-05
4.91606e-05
4.91624e-05
4.66297e-05
0.000110764
0.00020502
5.68936e-05
0.000217857
5.68775e-05
0.000217857
0.000110789
0.000110766
0.000205019
5.68981e-05
0.000217856
5.68828e-05
0.000217856
0.000110791
2.57127e-05
3.54345e-05
3.54331e-05
2.5713e-05
4.66285e-05
4.91573e-05
4.91592e-05
4.66361e-05
0.000110766
0.000205033
5.68952e-05
0.000217858
5.688e-05
0.000217858
0.000110791
4.6627e-05
4.91534e-05
4.91553e-05
4.66346e-05
0.000110765
0.000205011
0.000217854
5.68844e-05
0.000217854
5.68682e-05
0.00011079
5.68965e-05
0.000217859
0.000217859
0.000110788
4.91587e-05
4.66255e-05
0.00020502
0.000217858
5.68842e-05
0.000217858
0.000110788
4.91564e-05
4.66251e-05
2.57092e-05
2.57102e-05
0.00018281
3.54264e-05
3.54391e-05
3.54198e-05
3.54359e-05
2.57118e-05
2.57127e-05
0.000110766
0.000205029
0.000217856
5.68971e-05
0.000217856
5.6882e-05
0.00011079
0.000110766
0.000205031
0.000217857
5.68944e-05
0.000217857
5.68789e-05
0.000110791
4.66276e-05
4.91566e-05
4.91584e-05
4.66352e-05
4.66282e-05
4.91565e-05
4.91583e-05
4.66359e-05
0.000182814
3.54428e-05
3.54331e-05
3.54299e-05
2.57118e-05
2.57106e-05
2.57116e-05
2.57122e-05
2.57114e-05
2.57109e-05
2.57102e-05
3.54314e-05
3.54317e-05
0.000182986
3.54348e-05
3.54366e-05
2.5711e-05
2.57115e-05
2.57098e-05
2.57102e-05
0.000182833
3.54395e-05
3.54417e-05
3.54327e-05
3.54355e-05
4.66314e-05
4.91611e-05
4.66234e-05
4.91602e-05
0.00011079
5.68791e-05
0.000217857
0.000205021
0.000110766
5.6895e-05
0.000217857
0.000110792
5.68844e-05
0.000217857
0.00020502
0.000110768
5.68995e-05
0.000217857
4.66243e-05
4.91579e-05
4.91588e-05
4.66317e-05
4.66247e-05
4.91598e-05
4.91607e-05
4.66316e-05
0.000110766
0.000205021
5.68967e-05
0.000217857
5.68806e-05
0.000217858
0.00011079
0.000110768
0.00020502
5.69008e-05
0.000217857
5.68858e-05
0.000217857
0.000110792
3.54325e-05
3.54306e-05
0.00018299
3.54367e-05
3.54339e-05
2.5713e-05
2.57121e-05
2.57113e-05
2.57118e-05
0.000182836
3.54404e-05
3.54361e-05
3.54349e-05
3.54311e-05
2.57115e-05
2.57122e-05
0.000110793
5.68813e-05
0.000217859
0.000205034
0.000110768
5.68967e-05
0.000217858
4.6635e-05
4.91539e-05
4.66288e-05
4.91529e-05
0.000110791
0.000217855
5.68699e-05
0.000205012
0.000110767
0.000217855
5.68858e-05
4.66307e-05
4.91565e-05
4.91573e-05
4.66368e-05
0.000110769
0.000205034
5.68983e-05
0.000217859
5.68829e-05
0.000217859
0.000110791
4.66288e-05
4.91525e-05
4.91535e-05
4.66349e-05
0.000110766
0.000205012
0.000217854
5.68875e-05
0.000217855
5.68713e-05
0.00011079
4.66294e-05
4.91593e-05
4.66197e-05
4.91582e-05
0.000110789
0.000217858
5.68724e-05
0.000205021
0.000110764
0.000217858
5.68924e-05
4.66291e-05
4.91569e-05
4.66194e-05
4.9156e-05
0.000110765
0.000205037
5.68994e-05
0.000217859
5.68834e-05
0.00021786
0.000110791
4.66235e-05
4.91578e-05
4.91588e-05
4.66327e-05
0.000110766
0.000205021
0.000217858
5.68978e-05
0.000217858
5.68797e-05
0.000110791
4.66232e-05
4.91556e-05
4.91565e-05
4.66325e-05
3.54236e-05
3.54371e-05
0.000182979
3.5427e-05
3.54418e-05
2.57118e-05
2.57111e-05
2.57081e-05
2.57086e-05
0.000182826
3.5431e-05
3.54465e-05
3.54247e-05
3.54404e-05
2.57107e-05
2.57112e-05
0.000110792
0.000217858
5.68804e-05
0.000205032
0.000110768
0.000217857
5.6896e-05
4.66355e-05
4.91571e-05
4.66293e-05
4.91561e-05
4.66366e-05
4.9157e-05
4.663e-05
4.9156e-05
0.000110765
0.000205028
0.000217856
5.69e-05
0.000217857
5.68849e-05
0.000110787
0.000110766
0.000205032
0.000217857
5.68974e-05
0.000217858
5.68819e-05
0.00011079
4.66292e-05
4.91557e-05
4.91566e-05
4.66352e-05
4.66302e-05
4.91556e-05
4.91565e-05
4.66363e-05
2.57117e-05
2.57109e-05
2.57106e-05
2.57099e-05
0.000182832
3.54486e-05
3.54404e-05
3.54438e-05
3.54343e-05
2.57105e-05
2.5711e-05
2.57095e-05
2.571e-05
2.57111e-05
2.57107e-05
2.57099e-05
2.57096e-05
3.54384e-05
3.54406e-05
0.000182985
3.54447e-05
3.54464e-05
2.57107e-05
2.5711e-05
2.57095e-05
2.57097e-05
0.000182831
3.54478e-05
3.545e-05
3.54427e-05
3.54452e-05
4.66332e-05
4.91604e-05
4.6625e-05
4.91596e-05
0.000110791
5.68822e-05
0.000217855
0.000205019
0.000110766
5.68981e-05
0.000217854
0.000110792
5.6887e-05
0.000217854
0.000205019
0.000110768
5.69018e-05
0.000217854
4.6627e-05
4.91576e-05
4.91583e-05
4.6636e-05
4.66272e-05
4.91594e-05
4.91602e-05
4.66364e-05
0.000110767
0.000205019
5.6899e-05
0.000217854
5.68835e-05
0.000217854
0.000110791
0.000110768
0.000205019
5.69026e-05
0.000217853
5.68879e-05
0.000217853
0.000110793
3.54391e-05
3.54349e-05
0.000182989
3.54453e-05
3.54422e-05
2.57117e-05
2.57112e-05
2.57108e-05
2.57111e-05
0.000182835
3.54494e-05
3.54462e-05
3.5444e-05
3.54407e-05
2.57111e-05
2.57114e-05
0.000110791
5.68844e-05
0.000217856
0.000205031
0.000110766
5.68994e-05
0.000217856
4.66372e-05
4.91531e-05
4.66291e-05
4.91523e-05
0.000110791
0.000217852
5.6873e-05
0.00020501
0.000110766
0.000217852
5.68892e-05
4.66337e-05
4.91561e-05
4.91568e-05
4.66425e-05
0.000110768
0.000205031
5.69003e-05
0.000217855
5.68854e-05
0.000217856
0.000110793
4.66321e-05
4.91522e-05
4.91529e-05
4.66409e-05
0.000110767
0.000205011
0.000217851
5.68904e-05
0.000217851
5.68746e-05
0.000110792
4.66356e-05
4.91584e-05
4.66267e-05
4.91576e-05
0.000110794
0.000217859
5.68846e-05
0.000205021
0.000110768
0.000217859
5.69016e-05
4.66354e-05
4.91562e-05
4.66264e-05
4.91554e-05
0.000110768
0.000205034
5.69018e-05
0.000217859
5.68865e-05
0.000217859
0.000110793
4.66294e-05
4.91574e-05
4.91582e-05
4.66381e-05
0.00011077
0.000205021
0.000217859
5.69043e-05
0.000217859
5.68881e-05
0.000110795
4.66292e-05
4.91553e-05
4.9156e-05
4.66379e-05
3.54294e-05
3.54453e-05
0.000182977
3.54359e-05
3.54512e-05
2.57108e-05
2.57105e-05
2.57078e-05
2.57081e-05
0.000182825
3.54393e-05
3.54547e-05
3.54339e-05
3.54497e-05
2.57104e-05
2.57106e-05
0.000110791
0.000217855
5.68833e-05
0.000205031
0.000110766
0.000217854
5.68986e-05
4.66374e-05
4.91563e-05
4.66294e-05
4.91555e-05
4.66385e-05
4.91562e-05
4.66304e-05
4.91554e-05
0.000110763
0.000205025
0.000217853
5.69018e-05
0.000217854
5.68871e-05
0.000110789
0.000110767
0.000205031
0.000217854
5.68994e-05
0.000217854
5.68844e-05
0.000110792
4.66322e-05
4.91554e-05
4.91561e-05
4.6641e-05
4.66332e-05
4.91553e-05
4.9156e-05
4.66421e-05
2.57106e-05
2.57103e-05
2.57096e-05
2.57093e-05
0.00018283
3.54554e-05
3.54485e-05
3.54506e-05
3.54435e-05
2.57102e-05
2.57104e-05
2.57092e-05
2.57094e-05
2.57109e-05
2.57107e-05
2.57096e-05
2.57095e-05
3.54456e-05
3.54485e-05
0.000182983
3.54502e-05
3.54527e-05
2.57108e-05
2.5711e-05
2.57096e-05
2.57097e-05
0.00018283
3.54517e-05
3.54543e-05
3.54477e-05
3.54509e-05
4.66392e-05
4.916e-05
4.66304e-05
4.91593e-05
0.000110791
5.68845e-05
0.000217853
0.000205016
0.000110767
5.69005e-05
0.000217853
0.000110795
5.68889e-05
0.000217853
0.000205019
0.00011077
5.69044e-05
0.000217854
4.66323e-05
4.91575e-05
4.91582e-05
4.66397e-05
4.66329e-05
4.91593e-05
4.91599e-05
4.66403e-05
0.000110767
0.000205016
5.69022e-05
0.000217855
5.68861e-05
0.000217854
0.000110791
0.000110771
0.000205019
5.69063e-05
0.000217856
5.68909e-05
0.000217855
0.000110792
3.54479e-05
3.54441e-05
0.000182988
3.54526e-05
3.5449e-05
2.57113e-05
2.5711e-05
2.57109e-05
2.5711e-05
0.000182834
3.54547e-05
3.54509e-05
3.54508e-05
3.54467e-05
2.57111e-05
2.57113e-05
0.000110794
5.68864e-05
0.000217853
0.000205028
0.00011077
5.69019e-05
0.000217853
4.66439e-05
4.91528e-05
4.66356e-05
4.91521e-05
0.000110795
0.000217851
5.68758e-05
0.000205008
0.000110769
0.000217851
5.68918e-05
4.66398e-05
4.9156e-05
4.91566e-05
4.66466e-05
0.00011077
0.000205029
5.69036e-05
0.000217855
5.68881e-05
0.000217854
0.000110793
4.66383e-05
4.91521e-05
4.91528e-05
4.6645e-05
0.00011077
0.000205007
0.000217852
5.68932e-05
0.000217851
5.68773e-05
0.000110791
4.664e-05
4.9158e-05
4.66318e-05
4.91573e-05
0.000110798
0.000217856
5.68906e-05
0.000205022
0.000110773
0.000217855
5.69063e-05
4.66399e-05
4.91559e-05
4.66317e-05
4.91553e-05
0.000110772
0.000205032
5.6904e-05
0.000217856
5.68883e-05
0.000217855
0.000110794
4.66336e-05
4.91573e-05
4.91579e-05
4.66409e-05
0.000110773
0.000205021
0.000217854
5.69074e-05
0.000217854
5.68925e-05
0.000110792
4.66334e-05
4.91554e-05
4.91559e-05
4.66405e-05
3.54371e-05
3.5453e-05
0.000182976
3.54418e-05
3.54574e-05
2.57106e-05
2.57104e-05
2.57079e-05
2.57081e-05
0.000182823
3.54432e-05
3.5459e-05
3.54392e-05
3.54554e-05
2.57105e-05
2.57106e-05
0.000110795
0.000217853
5.68854e-05
0.000205028
0.000110768
0.000217853
5.6901e-05
4.66439e-05
4.9156e-05
4.66357e-05
4.91553e-05
4.66451e-05
4.91559e-05
4.66366e-05
4.91552e-05
0.000110767
0.000205024
0.000217853
5.69053e-05
0.000217852
5.68899e-05
0.000110793
0.000110772
0.000205027
0.000217855
5.69027e-05
0.000217854
5.68871e-05
0.000110796
4.66385e-05
4.91553e-05
4.91559e-05
4.66455e-05
4.66395e-05
4.91552e-05
4.91558e-05
4.66465e-05
2.57104e-05
2.57102e-05
2.57094e-05
2.57092e-05
0.000182829
3.54596e-05
3.54527e-05
3.54561e-05
3.54491e-05
2.57103e-05
2.57104e-05
2.57094e-05
2.57095e-05
2.57111e-05
2.57112e-05
2.57099e-05
2.571e-05
3.5449e-05
3.54523e-05
0.000182981
3.54506e-05
3.54531e-05
2.57115e-05
2.57116e-05
2.57103e-05
2.57103e-05
0.000182825
3.54461e-05
3.54487e-05
3.54466e-05
3.54497e-05
4.66388e-05
4.91599e-05
4.66335e-05
4.91594e-05
0.000110787
5.68875e-05
0.000217855
0.000205017
0.000110763
5.69005e-05
0.000217854
0.000110788
5.68926e-05
0.000217855
0.000205015
0.000110764
5.69061e-05
0.000217854
4.66296e-05
4.91595e-05
4.91589e-05
4.66278e-05
4.66303e-05
4.91607e-05
4.91602e-05
4.66285e-05
0.000110757
0.000205015
5.68906e-05
0.000217848
5.68838e-05
0.000217853
0.000110773
0.000110759
0.000205013
5.68975e-05
0.000217848
5.68907e-05
0.000217852
0.000110775
3.54527e-05
3.54484e-05
0.000182987
3.54546e-05
3.54513e-05
2.57114e-05
2.57114e-05
2.57116e-05
2.57115e-05
0.000182832
3.54507e-05
3.54476e-05
3.54513e-05
3.54478e-05
2.57118e-05
2.57117e-05
0.000110788
5.68895e-05
0.000217856
0.000205028
0.000110766
5.69019e-05
0.000217856
4.66435e-05
4.91529e-05
4.6639e-05
4.91526e-05
0.000110786
0.000217852
5.68784e-05
0.000205006
0.000110763
0.000217852
5.68913e-05
4.66372e-05
4.9158e-05
4.91574e-05
4.66345e-05
0.000110759
0.000205026
5.68921e-05
0.000217849
5.68859e-05
0.000217854
0.000110774
4.66356e-05
4.9154e-05
4.91535e-05
4.6633e-05
0.000110757
0.000205004
0.000217846
5.68814e-05
0.00021785
5.68745e-05
0.000110773
4.664e-05
4.91579e-05
4.66341e-05
4.91573e-05
0.000110787
0.000217854
5.68932e-05
0.000205018
0.000110765
0.000217854
5.69062e-05
4.66395e-05
4.9156e-05
4.66336e-05
4.91557e-05
0.000110761
0.000205029
5.68978e-05
0.000217851
5.68887e-05
0.000217854
0.000110776
4.66321e-05
4.91582e-05
4.91581e-05
4.66316e-05
0.000110759
0.000205015
0.000217849
5.68975e-05
0.000217853
5.68905e-05
0.000110775
4.66316e-05
4.91569e-05
4.91565e-05
4.66311e-05
3.54404e-05
3.54568e-05
0.000182972
3.54419e-05
3.54579e-05
2.57108e-05
2.57109e-05
2.57086e-05
2.57087e-05
0.000182818
3.54373e-05
3.54534e-05
3.54378e-05
3.54543e-05
2.57112e-05
2.57112e-05
0.000110789
0.000217856
5.68885e-05
0.000205027
0.000110768
0.000217856
5.69011e-05
4.66444e-05
4.91559e-05
4.66396e-05
4.91557e-05
4.6645e-05
4.91558e-05
4.66403e-05
4.91556e-05
0.000110762
0.000205021
0.000217848
5.68943e-05
0.000217852
5.68881e-05
0.000110776
0.000110759
0.000205025
0.000217849
5.68913e-05
0.000217854
5.68849e-05
0.000110775
4.66366e-05
4.91572e-05
4.91566e-05
4.66339e-05
4.6637e-05
4.91571e-05
4.91565e-05
4.66344e-05
2.57105e-05
2.57106e-05
2.57096e-05
2.57098e-05
0.000182824
3.54548e-05
3.54471e-05
3.54559e-05
3.5448e-05
2.5711e-05
2.57109e-05
2.571e-05
2.571e-05
2.57117e-05
2.57114e-05
2.57104e-05
2.57102e-05
3.54418e-05
3.54449e-05
0.000182926
3.54402e-05
3.54426e-05
2.57113e-05
2.57116e-05
2.57101e-05
2.57103e-05
0.000182758
3.54324e-05
3.54357e-05
3.54359e-05
3.54384e-05
4.66147e-05
4.9162e-05
4.66177e-05
4.91631e-05
0.000110734
5.68722e-05
0.000217837
0.000204978
0.000110741
5.68763e-05
0.000217821
0.000110736
5.68798e-05
0.000217837
0.000204982
0.000110743
5.6883e-05
0.000217822
4.66041e-05
4.91618e-05
4.91622e-05
4.66047e-05
4.66048e-05
4.91636e-05
4.9164e-05
4.66054e-05
0.000110694
0.000204968
5.68652e-05
0.000217814
5.68579e-05
0.000217815
0.000110707
0.000110696
0.00020497
5.68709e-05
0.000217814
5.68652e-05
0.000217816
0.000110709
3.54469e-05
3.54434e-05
0.000182944
3.54457e-05
3.54428e-05
2.57121e-05
2.57118e-05
2.57115e-05
2.57118e-05
0.000182774
3.54385e-05
3.54357e-05
3.54416e-05
3.54386e-05
2.57117e-05
2.5712e-05
0.000110734
5.68742e-05
0.000217838
0.00020499
0.000110742
5.68777e-05
0.000217822
4.6619e-05
4.91552e-05
4.66229e-05
4.9156e-05
0.000110734
0.000217834
5.68629e-05
0.000204969
0.000110741
0.000217818
5.6867e-05
4.66112e-05
4.91602e-05
4.91607e-05
4.66115e-05
0.000110695
0.00020498
5.68667e-05
0.000217814
5.68599e-05
0.000217816
0.000110709
4.66098e-05
4.91564e-05
4.91569e-05
4.661e-05
0.000110694
0.000204958
0.000217811
5.68559e-05
0.000217812
5.68485e-05
0.000110707
4.66174e-05
4.91593e-05
4.66209e-05
4.91603e-05
0.000110746
0.000217841
5.68797e-05
0.00020498
0.000110745
0.000217826
5.68831e-05
4.66168e-05
4.9158e-05
4.66203e-05
4.9159e-05
0.000110708
0.000204989
5.68703e-05
0.000217817
5.68654e-05
0.000217821
0.000110709
4.6607e-05
4.91615e-05
4.91615e-05
4.66064e-05
0.000110706
0.000204969
0.000217815
5.68704e-05
0.000217818
5.6865e-05
0.000110707
4.66064e-05
4.91597e-05
4.91599e-05
4.66059e-05
3.54329e-05
3.54496e-05
0.000182918
3.54314e-05
3.54475e-05
2.57113e-05
2.57111e-05
2.57084e-05
2.57087e-05
0.000182751
3.54241e-05
3.54403e-05
3.54268e-05
3.5443e-05
2.5711e-05
2.57112e-05
0.000110735
0.000217837
5.68733e-05
0.000204989
0.000110742
0.000217821
5.68769e-05
4.66197e-05
4.91583e-05
4.66237e-05
4.91591e-05
4.66203e-05
4.91582e-05
4.66241e-05
4.9159e-05
0.000110697
0.000204977
0.000217813
5.68687e-05
0.000217815
5.68622e-05
0.00011071
0.000110694
0.000204979
0.000217814
5.68659e-05
0.000217815
5.68589e-05
0.00011071
4.66105e-05
4.91595e-05
4.91599e-05
4.66107e-05
4.66109e-05
4.91594e-05
4.91598e-05
4.66113e-05
2.57112e-05
2.5711e-05
2.57102e-05
2.57099e-05
0.000182757
3.54416e-05
3.54342e-05
3.54447e-05
3.54369e-05
2.57108e-05
2.57111e-05
2.57098e-05
2.57101e-05
2.57115e-05
2.57112e-05
2.57102e-05
2.571e-05
3.54284e-05
3.54323e-05
0.000182915
3.54291e-05
3.54329e-05
2.57112e-05
2.57114e-05
2.571e-05
2.57102e-05
0.000182763
3.54287e-05
3.54323e-05
3.5426e-05
3.54303e-05
4.66019e-05
4.91642e-05
4.65972e-05
4.91635e-05
0.00011071
5.68488e-05
0.000217817
0.000204967
0.000110683
5.68611e-05
0.000217819
0.000110712
5.6855e-05
0.000217817
0.000204964
0.000110685
5.6866e-05
0.000217819
4.65939e-05
4.91616e-05
4.91623e-05
4.66003e-05
4.65947e-05
4.91634e-05
4.91641e-05
4.6601e-05
0.000110686
0.000204967
5.68599e-05
0.000217821
5.68458e-05
0.000217821
0.000110711
0.000110688
0.000204965
5.68645e-05
0.000217821
5.68514e-05
0.000217821
0.000110713
3.54344e-05
3.54315e-05
0.000182917
3.54337e-05
3.54295e-05
2.57119e-05
2.57116e-05
2.57113e-05
2.57116e-05
0.000182765
3.54324e-05
3.54281e-05
3.54307e-05
3.5426e-05
2.57116e-05
2.57118e-05
0.000110712
5.6851e-05
0.000217818
0.000204979
0.000110685
5.68629e-05
0.00021782
4.66067e-05
4.9157e-05
4.66026e-05
4.91563e-05
0.000110711
0.000217814
5.68395e-05
0.000204957
0.000110684
0.000217817
5.68519e-05
4.66017e-05
4.91601e-05
4.91608e-05
4.66074e-05
0.000110688
0.00020498
5.68618e-05
0.000217822
5.68483e-05
0.000217822
0.000110713
4.66002e-05
4.91562e-05
4.91569e-05
4.66058e-05
0.000110687
0.000204958
0.000217819
5.68507e-05
0.000217819
5.68365e-05
0.000110712
4.66016e-05
4.91622e-05
4.65978e-05
4.91615e-05
0.000110709
0.000217817
5.68542e-05
0.000204966
0.000110682
0.00021782
5.68653e-05
4.66012e-05
4.91604e-05
4.65973e-05
4.91597e-05
0.000110689
0.000204982
5.68614e-05
0.000217822
5.6848e-05
0.000217823
0.000110712
4.65942e-05
4.91614e-05
4.91621e-05