/*--------------------------------*- C++ -*----------------------------------*\
| =========                 |                                                 |
| \\      /  F ield         | OpenFOAM: The Open Source CFD Toolbox           |
|  \\    /   O peration     | Version:  2206                                  |
|   \\  /    A nd           | Website:  www.openfoam.com                      |
|    \\/     M anipulation  |                                                 |
\*---------------------------------------------------------------------------*/
FoamFile
{
    version     2.0;
    format      ascii;
    arch        "LSB;label=32;scalar=64";
    class       volScalarField;
    location    "4.5";
    object      epsilon;
}
// * * * * * * * * * * * * * * * * * * * * * * * * * * * * * * * * * * * * * //

dimensions      [0 2 -3 0 0 0 0];

internalField   nonuniform List<scalar> 
28897
(
4.78091e-07
4.79201e-07
4.79179e-07
4.80657e-07
4.77815e-07
4.78944e-07
4.78917e-07
4.80395e-07
4.77803e-07
4.78905e-07
4.78906e-07
4.80391e-07
4.77804e-07
4.78906e-07
4.78906e-07
4.80391e-07
4.77804e-07
4.78906e-07
4.78906e-07
4.80391e-07
4.77803e-07
4.78906e-07
4.78906e-07
4.80391e-07
4.77804e-07
4.78906e-07
4.78906e-07
4.80391e-07
4.77804e-07
4.78906e-07
4.78906e-07
4.80391e-07
4.77804e-07
4.78906e-07
4.78906e-07
4.80391e-07
4.77804e-07
4.78906e-07
4.78906e-07
4.80391e-07
4.77804e-07
4.78906e-07
4.78906e-07
4.80391e-07
4.77804e-07
4.78906e-07
4.78906e-07
4.80391e-07
4.77804e-07
4.78906e-07
4.78906e-07
4.80391e-07
4.77804e-07
4.78906e-07
4.78906e-07
4.80391e-07
4.77804e-07
4.78906e-07
4.78906e-07
4.80391e-07
4.77804e-07
4.78906e-07
4.78906e-07
4.80391e-07
4.77804e-07
4.78906e-07
4.78906e-07
4.80391e-07
4.77809e-07
4.78911e-07
4.78911e-07
4.80392e-07
4.80637e-07
4.79197e-07
4.79198e-07
4.80656e-07
4.79197e-07
4.79198e-07
4.79207e-07
4.79198e-07
4.80637e-07
4.79195e-07
4.79197e-07
4.8064e-07
4.80659e-07
4.80383e-07
4.79184e-07
4.79186e-07
4.7895e-07
4.78954e-07
4.8068e-07
4.80416e-07
4.79183e-07
4.79185e-07
4.78949e-07
4.7895e-07
4.79185e-07
4.79012e-07
4.78951e-07
4.80659e-07
4.80383e-07
4.79184e-07
4.78949e-07
4.78949e-07
4.80385e-07
4.80401e-07
4.8037e-07
4.78921e-07
4.78923e-07
4.78906e-07
4.78906e-07
4.80424e-07
4.80368e-07
4.78921e-07
4.78922e-07
4.78906e-07
4.78907e-07
4.78922e-07
4.78905e-07
4.78906e-07
4.804e-07
4.8037e-07
4.78921e-07
4.78906e-07
4.78906e-07
4.80372e-07
4.80394e-07
4.8037e-07
4.7891e-07
4.7891e-07
4.78907e-07
4.78907e-07
4.80393e-07
4.80369e-07
4.7891e-07
4.78911e-07
4.78907e-07
4.78908e-07
4.78911e-07
4.78907e-07
4.78907e-07
4.80394e-07
4.8037e-07
4.7891e-07
4.78907e-07
4.78907e-07
4.80372e-07
4.80394e-07
4.8037e-07
4.7891e-07
4.7891e-07
4.78907e-07
4.78907e-07
4.80393e-07
4.80369e-07
4.7891e-07
4.78911e-07
4.78907e-07
4.78908e-07
4.78911e-07
4.78907e-07
4.78907e-07
4.80394e-07
4.8037e-07
4.7891e-07
4.78907e-07
4.78907e-07
4.80372e-07
4.80394e-07
4.8037e-07
4.7891e-07
4.7891e-07
4.78907e-07
4.78907e-07
4.80393e-07
4.80369e-07
4.7891e-07
4.78911e-07
4.78907e-07
4.78908e-07
4.78911e-07
4.78907e-07
4.78907e-07
4.80394e-07
4.8037e-07
4.7891e-07
4.78907e-07
4.78907e-07
4.80372e-07
4.80394e-07
4.8037e-07
4.7891e-07
4.7891e-07
4.78907e-07
4.78907e-07
4.80393e-07
4.80369e-07
4.7891e-07
4.78911e-07
4.78907e-07
4.78908e-07
4.78911e-07
4.78907e-07
4.78907e-07
4.80394e-07
4.8037e-07
4.7891e-07
4.78907e-07
4.78907e-07
4.80372e-07
4.80394e-07
4.8037e-07
4.7891e-07
4.7891e-07
4.78907e-07
4.78907e-07
4.80393e-07
4.80369e-07
4.7891e-07
4.78911e-07
4.78907e-07
4.78908e-07
4.78911e-07
4.78907e-07
4.78907e-07
4.80394e-07
4.8037e-07
4.7891e-07
4.78907e-07
4.78907e-07
4.80372e-07
4.80394e-07
4.8037e-07
4.7891e-07
4.7891e-07
4.78907e-07
4.78907e-07
4.80393e-07
4.80369e-07
4.7891e-07
4.78911e-07
4.78907e-07
4.78908e-07
4.78911e-07
4.78907e-07
4.78907e-07
4.80394e-07
4.8037e-07
4.7891e-07
4.78907e-07
4.78907e-07
4.80372e-07
4.80394e-07
4.8037e-07
4.7891e-07
4.7891e-07
4.78907e-07
4.78907e-07
4.80393e-07
4.80369e-07
4.7891e-07
4.78911e-07
4.78907e-07
4.78908e-07
4.78911e-07
4.78907e-07
4.78907e-07
4.80394e-07
4.8037e-07
4.7891e-07
4.78907e-07
4.78907e-07
4.80372e-07
4.80394e-07
4.8037e-07
4.7891e-07
4.78911e-07
4.78907e-07
4.78907e-07
4.80393e-07
4.80369e-07
4.7891e-07
4.78911e-07
4.78907e-07
4.78908e-07
4.78911e-07
4.78907e-07
4.78907e-07
4.80393e-07
4.8037e-07
4.7891e-07
4.78907e-07
4.78907e-07
4.80372e-07
4.80394e-07
4.8037e-07
4.7891e-07
4.7891e-07
4.78907e-07
4.78907e-07
4.80393e-07
4.80369e-07
4.7891e-07
4.78911e-07
4.78907e-07
4.78908e-07
4.78911e-07
4.78907e-07
4.78907e-07
4.80394e-07
4.8037e-07
4.7891e-07
4.78907e-07
4.78907e-07
4.80372e-07
4.80394e-07
4.8037e-07
4.7891e-07
4.78911e-07
4.78907e-07
4.78907e-07
4.80393e-07
4.80369e-07
4.7891e-07
4.78911e-07
4.78907e-07
4.78908e-07
4.78911e-07
4.78907e-07
4.78907e-07
4.80394e-07
4.8037e-07
4.7891e-07
4.78907e-07
4.78907e-07
4.80372e-07
4.80394e-07
4.8037e-07
4.78911e-07
4.78911e-07
4.78907e-07
4.78907e-07
4.80393e-07
4.80369e-07
4.7891e-07
4.78911e-07
4.78907e-07
4.78908e-07
4.78911e-07
4.78907e-07
4.78907e-07
4.80394e-07
4.8037e-07
4.7891e-07
4.78907e-07
4.78907e-07
4.80372e-07
4.80394e-07
4.8037e-07
4.78911e-07
4.78911e-07
4.78907e-07
4.78907e-07
4.80393e-07
4.80369e-07
4.7891e-07
4.78911e-07
4.78907e-07
4.78908e-07
4.78911e-07
4.78907e-07
4.78907e-07
4.80394e-07
4.8037e-07
4.7891e-07
4.78907e-07
4.78907e-07
4.80372e-07
4.80394e-07
4.8037e-07
4.78911e-07
4.7891e-07
4.78907e-07
4.78907e-07
4.80393e-07
4.80369e-07
4.7891e-07
4.78911e-07
4.78907e-07
4.78908e-07
4.78911e-07
4.78907e-07
4.78907e-07
4.80394e-07
4.8037e-07
4.7891e-07
4.78907e-07
4.78907e-07
4.80372e-07
4.80394e-07
4.8037e-07
4.78911e-07
4.7891e-07
4.78907e-07
4.78907e-07
4.80393e-07
4.80369e-07
4.7891e-07
4.78911e-07
4.78907e-07
4.78908e-07
4.78911e-07
4.78907e-07
4.78907e-07
4.80394e-07
4.8037e-07
4.7891e-07
4.78907e-07
4.78907e-07
4.80372e-07
4.80394e-07
4.8037e-07
4.78911e-07
4.78911e-07
4.78907e-07
4.78907e-07
4.80393e-07
4.80369e-07
4.7891e-07
4.78911e-07
4.78907e-07
4.78908e-07
4.78911e-07
4.78908e-07
4.78907e-07
4.80394e-07
4.8037e-07
4.7891e-07
4.78908e-07
4.78907e-07
4.80372e-07
4.80394e-07
4.78912e-07
4.78912e-07
4.80393e-07
4.78911e-07
4.78913e-07
4.78912e-07
4.80394e-07
4.78911e-07
4.78108e-07
4.7811e-07
4.78109e-07
4.78109e-07
9.96923e-07
5.12148e-06
9.9634e-07
5.12641e-06
1.69134e-05
1.69172e-05
9.96872e-07
5.12213e-06
9.96228e-07
5.12706e-06
4.78096e-07
4.78095e-07
4.78095e-07
4.7785e-07
4.77854e-07
4.7785e-07
4.7785e-07
5.34774e-07
8.71574e-07
4.78251e-07
4.79183e-07
5.34794e-07
8.71528e-07
4.78204e-07
1.69185e-05
1.69489e-05
5.34793e-07
4.78248e-07
8.71659e-07
4.79129e-07
5.34793e-07
4.78195e-07
8.71979e-07
1.51244e-06
1.51289e-06
4.80542e-07
1.51335e-06
1.51463e-06
9.98012e-07
5.13015e-06
9.98167e-07
5.1299e-06
1.69654e-05
1.69645e-05
9.97921e-07
5.13077e-06
9.98063e-07
5.13053e-06
4.77821e-07
4.7782e-07
4.77819e-07
4.77804e-07
4.77803e-07
4.77803e-07
4.77803e-07
5.34883e-07
8.7293e-07
4.77977e-07
4.7892e-07
5.34926e-07
8.72776e-07
4.7797e-07
1.69686e-05
1.69672e-05
5.34879e-07
4.77974e-07
8.72929e-07
4.78912e-07
5.34924e-07
4.77969e-07
8.72744e-07
1.51647e-06
1.51675e-06
4.80377e-07
1.51628e-06
1.51655e-06
9.98011e-07
5.13009e-06
9.98158e-07
5.12991e-06
1.69658e-05
1.69645e-05
9.97918e-07
5.13072e-06
9.9805e-07
5.13054e-06
4.77808e-07
4.77808e-07
4.77808e-07
4.77805e-07
4.77804e-07
4.77804e-07
4.77804e-07
5.34881e-07
8.72982e-07
4.77963e-07
4.7891e-07
5.34922e-07
8.72772e-07
4.77967e-07
1.69682e-05
1.69671e-05
5.34877e-07
4.77963e-07
8.7293e-07
4.7891e-07
5.34919e-07
4.77967e-07
8.72741e-07
1.51646e-06
1.51674e-06
4.80375e-07
1.51627e-06
1.51655e-06
9.98011e-07
5.13008e-06
9.98158e-07
5.1299e-06
1.69657e-05
1.69645e-05
9.97918e-07
5.13072e-06
9.98049e-07
5.13054e-06
4.77808e-07
4.77807e-07
4.77807e-07
4.77805e-07
4.77804e-07
4.77804e-07
4.77804e-07
5.34882e-07
8.72982e-07
4.77963e-07
4.7891e-07
5.34922e-07
8.72772e-07
4.77967e-07
1.69682e-05
1.69671e-05
5.34877e-07
4.77963e-07
8.7293e-07
4.7891e-07
5.34919e-07
4.77967e-07
8.72741e-07
1.51646e-06
1.51674e-06
4.80376e-07
1.51627e-06
1.51655e-06
9.98011e-07
5.13008e-06
9.98158e-07
5.12991e-06
1.69657e-05
1.69645e-05
9.97918e-07
5.13072e-06
9.9805e-07
5.13054e-06
4.77808e-07
4.77807e-07
4.77807e-07
4.77804e-07
4.77804e-07
4.77804e-07
4.77804e-07
5.34881e-07
8.72982e-07
4.77963e-07
4.7891e-07
5.34922e-07
8.72772e-07
4.77967e-07
1.69682e-05
1.69671e-05
5.34877e-07
4.77963e-07
8.7293e-07
4.7891e-07
5.34919e-07
4.77967e-07
8.72742e-07
1.51646e-06
1.51674e-06
4.80376e-07
1.51627e-06
1.51655e-06
9.98011e-07
5.13008e-06
9.98158e-07
5.12991e-06
1.69657e-05
1.69645e-05
9.97918e-07
5.13072e-06
9.9805e-07
5.13054e-06
4.77807e-07
4.77807e-07
4.77807e-07
4.77805e-07
4.77804e-07
4.77804e-07
4.77804e-07
5.34882e-07
8.72982e-07
4.77963e-07
4.7891e-07
5.34922e-07
8.72772e-07
4.77967e-07
1.69682e-05
1.69671e-05
5.34877e-07
4.77963e-07
8.7293e-07
4.7891e-07
5.34918e-07
4.77967e-07
8.72741e-07
1.51646e-06
1.51674e-06
4.80376e-07
1.51627e-06
1.51655e-06
9.98011e-07
5.13008e-06
9.98158e-07
5.1299e-06
1.69657e-05
1.69645e-05
9.97918e-07
5.13072e-06
9.9805e-07
5.13054e-06
4.77808e-07
4.77807e-07
4.77807e-07
4.77804e-07
4.77804e-07
4.77804e-07
4.77804e-07
5.34881e-07
8.72982e-07
4.77963e-07
4.7891e-07
5.34921e-07
8.72772e-07
4.77967e-07
1.69682e-05
1.69671e-05
5.34878e-07
4.77963e-07
8.7293e-07
4.7891e-07
5.34919e-07
4.77967e-07
8.72741e-07
1.51646e-06
1.51674e-06
4.80376e-07
1.51627e-06
1.51655e-06
9.98011e-07
5.13008e-06
9.98158e-07
5.1299e-06
1.69657e-05
1.69645e-05
9.97918e-07
5.13072e-06
9.9805e-07
5.13054e-06
4.77807e-07
4.77808e-07
4.77807e-07
4.77805e-07
4.77804e-07
4.77804e-07
4.77804e-07
5.34881e-07
8.72982e-07
4.77963e-07
4.7891e-07
5.34922e-07
8.72772e-07
4.77967e-07
1.69682e-05
1.69671e-05
5.34877e-07
4.77963e-07
8.7293e-07
4.7891e-07
5.34919e-07
4.77967e-07
8.72742e-07
1.51646e-06
1.51674e-06
4.80376e-07
1.51627e-06
1.51655e-06
9.98011e-07
5.13008e-06
9.98158e-07
5.1299e-06
1.69657e-05
1.69645e-05
9.97918e-07
5.13072e-06
9.98049e-07
5.13054e-06
4.77808e-07
4.77807e-07
4.77807e-07
4.77805e-07
4.77804e-07
4.77804e-07
4.77804e-07
5.34881e-07
8.72982e-07
4.77963e-07
4.7891e-07
5.34922e-07
8.72772e-07
4.77967e-07
1.69682e-05
1.69671e-05
5.34877e-07
4.77963e-07
8.7293e-07
4.7891e-07
5.34919e-07
4.77967e-07
8.72741e-07
1.51646e-06
1.51674e-06
4.80375e-07
1.51627e-06
1.51655e-06
9.98011e-07
5.13008e-06
9.98158e-07
5.12991e-06
1.69657e-05
1.69646e-05
9.97918e-07
5.13072e-06
9.98049e-07
5.13054e-06
4.77808e-07
4.77807e-07
4.77807e-07
4.77804e-07
4.77804e-07
4.77804e-07
4.77804e-07
5.34881e-07
8.72982e-07
4.77963e-07
4.7891e-07
5.34922e-07
8.72771e-07
4.77967e-07
1.69682e-05
1.69671e-05
5.34877e-07
4.77963e-07
8.72932e-07
4.7891e-07
5.34919e-07
4.77967e-07
8.72741e-07
1.51646e-06
1.51674e-06
4.80376e-07
1.51627e-06
1.51655e-06
9.98011e-07
5.1301e-06
9.98157e-07
5.12987e-06
1.69662e-05
1.6965e-05
9.97918e-07
5.13073e-06
9.98049e-07
5.13052e-06
4.77808e-07
4.77807e-07
4.77807e-07
4.77805e-07
4.77804e-07
4.77804e-07
4.77804e-07
5.34881e-07
8.72982e-07
4.77963e-07
4.7891e-07
5.34921e-07
8.72772e-07
4.77967e-07
1.69682e-05
1.69671e-05
5.34878e-07
4.77963e-07
8.72932e-07
4.7891e-07
5.34919e-07
4.77967e-07
8.72741e-07
1.51646e-06
1.51674e-06
4.80375e-07
1.51627e-06
1.51655e-06
9.98011e-07
5.13002e-06
9.98158e-07
5.12982e-06
1.69661e-05
1.69646e-05
9.97916e-07
5.13077e-06
9.98048e-07
5.13057e-06
4.77808e-07
4.77807e-07
4.77807e-07
4.77804e-07
4.77804e-07
4.77804e-07
4.77804e-07
5.34881e-07
8.72982e-07
4.77963e-07
4.7891e-07
5.34922e-07
8.72771e-07
4.77967e-07
1.69682e-05
1.69671e-05
5.34878e-07
4.77963e-07
8.72932e-07
4.7891e-07
5.34921e-07
4.77967e-07
8.72741e-07
1.51646e-06
1.51674e-06
4.80376e-07
1.51627e-06
1.51655e-06
9.98011e-07
5.13003e-06
9.98158e-07
5.12981e-06
1.69663e-05
1.6965e-05
9.97917e-07
5.13078e-06
9.98048e-07
5.13057e-06
4.77807e-07
4.77807e-07
4.77807e-07
4.77805e-07
4.77804e-07
4.77804e-07
4.77804e-07
5.34881e-07
8.72982e-07
4.77963e-07
4.78909e-07
5.34922e-07
8.72771e-07
4.77967e-07
1.69682e-05
1.69671e-05
5.34876e-07
4.77963e-07
8.72931e-07
4.7891e-07
5.3492e-07
4.77967e-07
8.72741e-07
1.51646e-06
1.51674e-06
4.80376e-07
1.51627e-06
1.51655e-06
9.98011e-07
5.13003e-06
9.98158e-07
5.12981e-06
1.69664e-05
1.69652e-05
9.97917e-07
5.13078e-06
9.98048e-07
5.13057e-06
4.77807e-07
4.77808e-07
4.77808e-07
4.77805e-07
4.77804e-07
4.77804e-07
4.77804e-07
5.34881e-07
8.72982e-07
4.77963e-07
4.78909e-07
5.34922e-07
8.72772e-07
4.77967e-07
1.69682e-05
1.69671e-05
5.34879e-07
4.77963e-07
8.72931e-07
4.7891e-07
5.34924e-07
4.77967e-07
8.72741e-07
1.51646e-06
1.51674e-06
4.80376e-07
1.51627e-06
1.51655e-06
9.98011e-07
5.13003e-06
9.98158e-07
5.12981e-06
1.69664e-05
1.69652e-05
9.97917e-07
5.13078e-06
9.98048e-07
5.13057e-06
4.77807e-07
4.77807e-07
4.77808e-07
4.77805e-07
4.77804e-07
4.77804e-07
4.77804e-07
5.34882e-07
8.72982e-07
4.77963e-07
4.78909e-07
5.34922e-07
8.72772e-07
4.77967e-07
1.69682e-05
1.69671e-05
5.34879e-07
4.77963e-07
8.72931e-07
4.7891e-07
5.34923e-07
4.77967e-07
8.72741e-07
1.51646e-06
1.51674e-06
4.80376e-07
1.51627e-06
1.51655e-06
9.98011e-07
5.13003e-06
9.98158e-07
5.12981e-06
1.69664e-05
1.69652e-05
9.97917e-07
5.13078e-06
9.98048e-07
5.13057e-06
4.77807e-07
4.77807e-07
4.77807e-07
4.77805e-07
4.77804e-07
4.77804e-07
4.77804e-07
5.34881e-07
8.72982e-07
4.77963e-07
4.78909e-07
5.34921e-07
8.72772e-07
4.77967e-07
1.69682e-05
1.69671e-05
5.34879e-07
4.77963e-07
8.72932e-07
4.7891e-07
5.34924e-07
4.77967e-07
8.72741e-07
1.51646e-06
1.51674e-06
4.80376e-07
1.51627e-06
1.51655e-06
9.98011e-07
5.13003e-06
9.98158e-07
5.12981e-06
1.69664e-05
1.69652e-05
9.97917e-07
5.13078e-06
9.98048e-07
5.13057e-06
4.77807e-07
4.77807e-07
4.77807e-07
4.77806e-07
4.77804e-07
4.77804e-07
4.77804e-07
5.34881e-07
8.72982e-07
4.77963e-07
4.78909e-07
5.34922e-07
8.72772e-07
4.77967e-07
1.69682e-05
1.69671e-05
5.34879e-07
4.77963e-07
8.72931e-07
4.7891e-07
5.34924e-07
4.77967e-07
8.72741e-07
1.51646e-06
1.51674e-06
4.80375e-07
1.51627e-06
1.51655e-06
5.13003e-06
9.98158e-07
1.69664e-05
5.13078e-06
9.98049e-07
4.77809e-07
4.77809e-07
4.77809e-07
8.72982e-07
4.77968e-07
5.34921e-07
1.69682e-05
4.77969e-07
8.72932e-07
5.34924e-07
1.51647e-06
1.51674e-06
1.69143e-05
1.69152e-05
1.69168e-05
1.69177e-05
4.80656e-07
1.51254e-06
1.5127e-06
1.51261e-06
1.51261e-06
9.96283e-07
5.12128e-06
5.1212e-06
9.96143e-07
9.96283e-07
5.12125e-06
5.1211e-06
9.96156e-07
5.34806e-07
4.79202e-07
8.71466e-07
4.78266e-07
8.71758e-07
4.78271e-07
5.34751e-07
5.34805e-07
4.79203e-07
8.71452e-07
4.78266e-07
8.71718e-07
4.78271e-07
5.34752e-07
1.69134e-05
1.51244e-06
1.51235e-06
1.69132e-05
9.96164e-07
5.12192e-06
5.12184e-06
9.96077e-07
5.34797e-07
4.79201e-07
8.71497e-07
4.78266e-07
8.7176e-07
4.78271e-07
5.34745e-07
9.96204e-07
5.1221e-06
5.12198e-06
9.96121e-07
5.34805e-07
4.79203e-07
4.78266e-07
8.71599e-07
4.78271e-07
8.71881e-07
5.34754e-07
8.71367e-07
4.78266e-07
4.78271e-07
5.34753e-07
5.12117e-06
9.96099e-07
4.79202e-07
4.78266e-07
8.71352e-07
4.78271e-07
5.34753e-07
5.12157e-06
9.961e-07
1.69175e-05
1.69192e-05
4.80656e-07
1.51294e-06
1.51245e-06
1.51302e-06
1.51236e-06
1.69158e-05
1.69167e-05
5.348e-07
4.792e-07
4.78265e-07
8.71422e-07
4.7827e-07
8.71669e-07
5.3475e-07
5.34802e-07
4.79202e-07
4.78266e-07
8.715e-07
4.78271e-07
8.71755e-07
5.34747e-07
9.96193e-07
5.12177e-06
5.12163e-06
9.9611e-07
9.96186e-07
5.1219e-06
5.12175e-06
9.96099e-07
4.8066e-07
1.51228e-06
1.51271e-06
1.51259e-06
1.69153e-05
1.69168e-05
1.69179e-05
1.69146e-05
1.6945e-05
1.69171e-05
1.69482e-05
1.51285e-06
1.51273e-06
4.80543e-07
1.51441e-06
1.51468e-06
1.6964e-05
1.6956e-05
1.69665e-05
1.69584e-05
4.80517e-07
1.5165e-06
1.51661e-06
1.51598e-06
1.51595e-06
9.96927e-07
5.12137e-06
9.96262e-07
5.12585e-06
5.34799e-07
8.71666e-07
4.78252e-07
4.79133e-07
5.34789e-07
8.72016e-07
4.782e-07
5.34801e-07
8.7161e-07
4.78252e-07
4.7914e-07
5.34792e-07
8.71876e-07
4.782e-07
9.97684e-07
5.12997e-06
5.1285e-06
9.98005e-07
9.97696e-07
5.12995e-06
5.12795e-06
9.98014e-07
5.34879e-07
4.79023e-07
8.72786e-07
4.78008e-07
8.72589e-07
4.78084e-07
5.34882e-07
5.34881e-07
4.79031e-07
8.72738e-07
4.78008e-07
8.7239e-07
4.78084e-07
5.34885e-07
1.51248e-06
1.51258e-06
4.80633e-07
1.51281e-06
1.51271e-06
1.69131e-05
1.69161e-05
1.69631e-05
1.69275e-05
4.80633e-07
1.51618e-06
1.51601e-06
1.5136e-06
1.51361e-06
1.69617e-05
1.69258e-05
5.34798e-07
8.71674e-07
4.78252e-07
4.79133e-07
5.34784e-07
8.72053e-07
4.78199e-07
9.96888e-07
5.12223e-06
9.96175e-07
5.12737e-06
5.34803e-07
4.78252e-07
8.71798e-07
4.79134e-07
5.34794e-07
4.782e-07
8.72153e-07
9.97603e-07
5.13059e-06
5.12915e-06
9.97935e-07
5.34879e-07
4.79022e-07
8.72807e-07
4.78008e-07
8.72619e-07
4.78084e-07
5.34883e-07
9.97622e-07
5.13082e-06
5.12941e-06
9.97964e-07
5.34884e-07
4.79024e-07
4.78008e-07
8.72921e-07
4.78084e-07
8.72723e-07
5.34888e-07
9.96486e-07
5.12118e-06
9.96181e-07
5.12186e-06
5.34775e-07
4.78253e-07
8.715e-07
4.79136e-07
5.34791e-07
4.78203e-07
8.71683e-07
9.9649e-07
5.12161e-06
9.96184e-07
5.12402e-06
5.34846e-07
4.79118e-07
8.72555e-07
4.78014e-07
8.7192e-07
4.78092e-07
5.34875e-07
9.97199e-07
5.12971e-06
5.12357e-06
9.97973e-07
5.34848e-07
4.79025e-07
4.7801e-07
8.72708e-07
4.78088e-07
8.72211e-07
5.34875e-07
9.97202e-07
5.13039e-06
5.12682e-06
9.97973e-07
1.5132e-06
1.51249e-06
4.80543e-07
1.51486e-06
1.51441e-06
1.6916e-05
1.69473e-05
1.69677e-05
1.69595e-05
4.80517e-07
1.51689e-06
1.51635e-06
1.51638e-06
1.51572e-06
1.69654e-05
1.69574e-05
5.34794e-07
4.78252e-07
8.71675e-07
4.79133e-07
5.3479e-07
4.782e-07
8.72045e-07
9.96875e-07
5.12195e-06
9.96163e-07
5.12709e-06
9.96875e-07
5.12204e-06
9.96158e-07
5.12708e-06
5.34873e-07
4.7902e-07
4.78008e-07
8.72732e-07
4.78081e-07
8.72541e-07
5.3488e-07
5.34877e-07
4.79023e-07
4.78008e-07
8.72813e-07
4.78084e-07
8.72617e-07
5.34881e-07
9.97608e-07
5.13052e-06
5.12907e-06
9.97954e-07
9.97616e-07
5.13062e-06
5.12912e-06
9.97951e-07
1.69153e-05
1.69291e-05
1.69169e-05
1.69478e-05
4.80515e-07
1.51631e-06
1.51663e-06
1.5148e-06
1.51597e-06
1.69655e-05
1.69454e-05
1.69666e-05
1.69583e-05
1.69625e-05
1.69637e-05
1.69653e-05
1.69662e-05
1.51672e-06
1.51662e-06
4.8037e-07
1.51651e-06
1.51659e-06
1.69639e-05
1.69626e-05
1.69666e-05
1.6965e-05
4.80392e-07
1.5165e-06
1.51659e-06
1.51668e-06
1.51659e-06
9.98014e-07
5.12974e-06
9.98095e-07
5.12983e-06
5.3488e-07
8.72954e-07
4.77978e-07
4.78913e-07
5.34922e-07
8.72809e-07
4.77969e-07
5.34881e-07
8.72899e-07
4.77978e-07
4.78913e-07
5.34925e-07
8.72795e-07
4.77969e-07
9.98089e-07
5.12982e-06
5.12963e-06
9.97998e-07
9.98093e-07
5.1299e-06
5.12959e-06
9.98009e-07
5.34918e-07
4.78906e-07
8.728e-07
4.77963e-07
8.72953e-07
4.77963e-07
5.34884e-07
5.34917e-07
4.78906e-07
8.72795e-07
4.77963e-07
8.72919e-07
4.77963e-07
5.34884e-07
1.51664e-06
1.51658e-06
4.8037e-07
1.51655e-06
1.51648e-06
1.69625e-05
1.69631e-05
1.6965e-05
1.69627e-05
4.80391e-07
1.51652e-06
1.51646e-06
1.51655e-06
1.51661e-06
1.69634e-05
1.69618e-05
5.34872e-07
8.72955e-07
4.77978e-07
4.78913e-07
5.34922e-07
8.72827e-07
4.77969e-07
9.97962e-07
5.13056e-06
9.98002e-07
5.13069e-06
5.34881e-07
4.77978e-07
8.73081e-07
4.78914e-07
5.34927e-07
4.77969e-07
8.72935e-07
9.9796e-07
5.13046e-06
5.13026e-06
9.97918e-07
5.34908e-07
4.78906e-07
8.72817e-07
4.77963e-07
8.72951e-07
4.77963e-07
5.34877e-07
9.98006e-07
5.13072e-06
5.13045e-06
9.97958e-07
5.34918e-07
4.78907e-07
4.77963e-07
8.72933e-07
4.77963e-07
8.73079e-07
5.34885e-07
9.98025e-07
5.12994e-06
9.98117e-07
5.12998e-06
5.34883e-07
4.77979e-07
8.7287e-07
4.78913e-07
5.34922e-07
4.77969e-07
8.72755e-07
9.98024e-07
5.13027e-06
9.98114e-07
5.13032e-06
5.34918e-07
4.78909e-07
8.72777e-07
4.77963e-07
8.7292e-07
4.77966e-07
5.3488e-07
9.98102e-07
5.13002e-06
5.12975e-06
9.9802e-07
5.34917e-07
4.78906e-07
4.77963e-07
8.72757e-07
4.77963e-07
8.72885e-07
5.3488e-07
9.98103e-07
5.13039e-06
5.13012e-06
9.9802e-07
1.51709e-06
1.51635e-06
4.80369e-07
1.51692e-06
1.51632e-06
1.69641e-05
1.69651e-05
1.69669e-05
1.69655e-05
4.80392e-07
1.51683e-06
1.51633e-06
1.51704e-06
1.51633e-06
1.69656e-05
1.69641e-05
5.34876e-07
4.77978e-07
8.72952e-07
4.78913e-07
5.34925e-07
4.77969e-07
8.72823e-07
9.97954e-07
5.13025e-06
9.97991e-07
5.13038e-06
9.97944e-07
5.13035e-06
9.9799e-07
5.13052e-06
5.34914e-07
4.78909e-07
4.77963e-07
8.72744e-07
4.77966e-07
8.72869e-07
5.34878e-07
5.34914e-07
4.78906e-07
4.77962e-07
8.72825e-07
4.77962e-07
8.72954e-07
5.34876e-07
9.97996e-07
5.13043e-06
5.13015e-06
9.97948e-07
9.97988e-07
5.13056e-06
5.13029e-06
9.97935e-07
1.69647e-05
1.69653e-05
1.69654e-05
1.69663e-05
4.80399e-07
1.51632e-06
1.5166e-06
1.51628e-06
1.51655e-06
1.69657e-05
1.69643e-05
1.69667e-05
1.69653e-05
1.69632e-05
1.69635e-05
1.69657e-05
1.69661e-05
1.5167e-06
1.51659e-06
4.80372e-07
1.5165e-06
1.51658e-06
1.69639e-05
1.69622e-05
1.69666e-05
1.69645e-05
4.80394e-07
1.51651e-06
1.51659e-06
1.51666e-06
1.51658e-06
9.98013e-07
5.12971e-06
9.98087e-07
5.1298e-06
5.34879e-07
8.72955e-07
4.77967e-07
4.7891e-07
5.34918e-07
8.72807e-07
4.77967e-07
5.34881e-07
8.7292e-07
4.77968e-07
4.7891e-07
5.34922e-07
8.72793e-07
4.77967e-07
9.98089e-07
5.12982e-06
5.12963e-06
9.97999e-07
9.98092e-07
5.12991e-06
5.12958e-06
9.98009e-07
5.34919e-07
4.78908e-07
8.728e-07
4.77963e-07
8.72952e-07
4.77965e-07
5.34884e-07
5.34919e-07
4.78908e-07
8.72795e-07
4.77963e-07
8.72917e-07
4.77964e-07
5.34884e-07
1.51653e-06
1.51666e-06
4.80371e-07
1.51652e-06
1.51645e-06
1.69621e-05
1.6963e-05
1.6965e-05
1.69628e-05
4.80393e-07
1.51652e-06
1.51647e-06
1.51652e-06
1.51662e-06
1.69634e-05
1.69619e-05
5.34873e-07
8.72954e-07
4.77967e-07
4.7891e-07
5.34915e-07
8.72826e-07
4.77967e-07
9.97961e-07
5.13057e-06
9.97997e-07
5.13067e-06
5.34881e-07
4.77968e-07
8.73081e-07
4.78911e-07
5.34923e-07
4.77967e-07
8.72934e-07
9.97958e-07
5.13046e-06
5.13027e-06
9.97917e-07
5.34911e-07
4.78908e-07
8.72816e-07
4.77963e-07
8.72951e-07
4.77964e-07
5.34877e-07
9.98006e-07
5.13074e-06
5.13044e-06
9.97958e-07
5.3492e-07
4.78909e-07
4.77964e-07
8.72934e-07
4.77964e-07
8.73079e-07
5.34885e-07
9.98022e-07
5.12978e-06
9.98097e-07
5.12994e-06
5.34881e-07
4.77967e-07
8.72883e-07
4.7891e-07
5.3492e-07
4.77967e-07
8.72751e-07
9.98021e-07
5.13012e-06
9.98098e-07
5.13028e-06
5.34917e-07
4.7891e-07
8.72777e-07
4.77964e-07
8.72917e-07
4.77967e-07
5.34881e-07
9.98101e-07
5.13002e-06
5.12971e-06
9.98018e-07
5.34917e-07
4.78908e-07
4.77963e-07
8.72756e-07
4.77964e-07
8.72881e-07
5.34881e-07
9.981e-07
5.13038e-06
5.13006e-06
9.98018e-07
1.51702e-06
1.51633e-06
4.80372e-07
1.51693e-06
1.51632e-06
1.69648e-05
1.6965e-05
1.69669e-05
1.69654e-05
4.80394e-07
1.51683e-06
1.51633e-06
1.51704e-06
1.51632e-06
1.69656e-05
1.69635e-05
5.34875e-07
4.77967e-07
8.72954e-07
4.7891e-07
5.34918e-07
4.77967e-07
8.72821e-07
9.97952e-07
5.1302e-06
9.97985e-07
5.13034e-06
9.97939e-07
5.13039e-06
9.97976e-07
5.13049e-06
5.34915e-07
4.7891e-07
4.77964e-07
8.72745e-07
4.77967e-07
8.72867e-07
5.34878e-07
5.34916e-07
4.78908e-07
4.77963e-07
8.72825e-07
4.77964e-07
8.72953e-07
5.34876e-07
9.97994e-07
5.13045e-06
5.13012e-06
9.97947e-07
9.97986e-07
5.13058e-06
5.13027e-06
9.97935e-07
1.69649e-05
1.69652e-05
1.69659e-05
1.69662e-05
4.80399e-07
1.51632e-06
1.51659e-06
1.51627e-06
1.51655e-06
1.69657e-05
1.69638e-05
1.69668e-05
1.69648e-05
1.69625e-05
1.69634e-05
1.69658e-05
1.69661e-05
1.51671e-06
1.51659e-06
4.80372e-07
1.51649e-06
1.51658e-06
1.69639e-05
1.69622e-05
1.69666e-05
1.69645e-05
4.80395e-07
1.51651e-06
1.51659e-06
1.51666e-06
1.51658e-06
9.98013e-07
5.12968e-06
9.98088e-07
5.12979e-06
5.34879e-07
8.72955e-07
4.77967e-07
4.7891e-07
5.34917e-07
8.72807e-07
4.77967e-07
5.34882e-07
8.7292e-07
4.77967e-07
4.7891e-07
5.34921e-07
8.72792e-07
4.77967e-07
9.98089e-07
5.12982e-06
5.12963e-06
9.97999e-07
9.98092e-07
5.12991e-06
5.12957e-06
9.9801e-07
5.34919e-07
4.78908e-07
8.728e-07
4.77964e-07
8.72952e-07
4.77965e-07
5.34884e-07
5.34919e-07
4.78908e-07
8.72795e-07
4.77963e-07
8.72917e-07
4.77964e-07
5.34884e-07
1.51652e-06
1.51666e-06
4.80371e-07
1.51652e-06
1.51645e-06
1.69619e-05
1.6963e-05
1.6965e-05
1.69627e-05
4.80393e-07
1.51652e-06
1.51647e-06
1.51653e-06
1.51662e-06
1.69634e-05
1.69619e-05
5.34873e-07
8.72954e-07
4.77967e-07
4.7891e-07
5.34914e-07
8.72826e-07
4.77967e-07
9.97961e-07
5.13055e-06
9.97997e-07
5.13067e-06
5.34881e-07
4.77967e-07
8.73082e-07
4.78911e-07
5.34922e-07
4.77967e-07
8.72934e-07
9.97958e-07
5.13046e-06
5.13027e-06
9.97917e-07
5.34912e-07
4.78908e-07
8.72816e-07
4.77963e-07
8.72951e-07
4.77965e-07
5.34877e-07
9.98006e-07
5.13074e-06
5.13044e-06
9.97958e-07
5.3492e-07
4.78909e-07
4.77963e-07
8.72934e-07
4.77964e-07
8.73079e-07
5.34885e-07
9.98021e-07
5.12978e-06
9.98096e-07
5.12994e-06
5.34882e-07
4.77967e-07
8.72882e-07
4.7891e-07
5.34919e-07
4.77967e-07
8.72751e-07
9.98021e-07
5.13011e-06
9.98097e-07
5.13028e-06
5.34918e-07
4.78909e-07
8.72777e-07
4.77964e-07
8.72917e-07
4.77967e-07
5.3488e-07
9.98099e-07
5.13002e-06
5.12971e-06
9.98017e-07
5.34918e-07
4.78909e-07
4.77963e-07
8.72756e-07
4.77964e-07
8.72881e-07
5.34881e-07
9.981e-07
5.13038e-06
5.13007e-06
9.98019e-07
1.51702e-06
1.51633e-06
4.80373e-07
1.51693e-06
1.51632e-06
1.69647e-05
1.6965e-05
1.69669e-05
1.69654e-05
4.80395e-07
1.51683e-06
1.51633e-06
1.51704e-06
1.51632e-06
1.69656e-05
1.69636e-05
5.34875e-07
4.77967e-07
8.72953e-07
4.7891e-07
5.34918e-07
4.77966e-07
8.72821e-07
9.97952e-07
5.1302e-06
9.97984e-07
5.13033e-06
9.97939e-07
5.13031e-06
9.97976e-07
5.13047e-06
5.34914e-07
4.7891e-07
4.77964e-07
8.72745e-07
4.77967e-07
8.72867e-07
5.34879e-07
5.34916e-07
4.78908e-07
4.77963e-07
8.72825e-07
4.77964e-07
8.72953e-07
5.34876e-07
9.97995e-07
5.13045e-06
5.13012e-06
9.97947e-07
9.97986e-07
5.13058e-06
5.13026e-06
9.97935e-07
1.69649e-05
1.69652e-05
1.6966e-05
1.69662e-05
4.80399e-07
1.51632e-06
1.5166e-06
1.51627e-06
1.51655e-06
1.69657e-05
1.69637e-05
1.69668e-05
1.69647e-05
1.69625e-05
1.69634e-05
1.69657e-05
1.69661e-05
1.51671e-06
1.51659e-06
4.80372e-07
1.51649e-06
1.51658e-06
1.69639e-05
1.69622e-05
1.69666e-05
1.69645e-05
4.80394e-07
1.51651e-06
1.51659e-06
1.51666e-06
1.51658e-06
9.98014e-07
5.12967e-06
9.98089e-07
5.12979e-06
5.34879e-07
8.72955e-07
4.77967e-07
4.7891e-07
5.34918e-07
8.72807e-07
4.77967e-07
5.34882e-07
8.7292e-07
4.77967e-07
4.7891e-07
5.34921e-07
8.72793e-07
4.77967e-07
9.98089e-07
5.12982e-06
5.12963e-06
9.97999e-07
9.98093e-07
5.12991e-06
5.12957e-06
9.9801e-07
5.34919e-07
4.78908e-07
8.728e-07
4.77964e-07
8.72952e-07
4.77965e-07
5.34884e-07
5.3492e-07
4.78908e-07
8.72795e-07
4.77963e-07
8.72917e-07
4.77964e-07
5.34884e-07
1.51653e-06
1.51666e-06
4.80371e-07
1.51652e-06
1.51645e-06
1.69619e-05
1.6963e-05
1.6965e-05
1.69627e-05
4.80393e-07
1.51652e-06
1.51647e-06
1.51653e-06
1.51662e-06
1.69634e-05
1.69619e-05
5.34873e-07
8.72954e-07
4.77967e-07
4.7891e-07
5.34914e-07
8.72825e-07
4.77967e-07
9.97961e-07
5.13055e-06
9.97997e-07
5.13067e-06
5.34881e-07
4.77967e-07
8.73082e-07
4.78911e-07
5.34923e-07
4.77966e-07
8.72934e-07
9.97958e-07
5.13046e-06
5.13027e-06
9.97917e-07
5.34912e-07
4.78908e-07
8.72816e-07
4.77963e-07
8.72951e-07
4.77964e-07
5.34877e-07
9.98006e-07
5.13074e-06
5.13044e-06
9.97958e-07
5.3492e-07
4.78909e-07
4.77963e-07
8.72934e-07
4.77964e-07
8.73079e-07
5.34885e-07
9.98022e-07
5.12977e-06
9.98094e-07
5.12994e-06
5.34882e-07
4.77966e-07
8.72882e-07
4.7891e-07
5.3492e-07
4.77966e-07
8.72751e-07
9.98021e-07
5.13011e-06
9.98097e-07
5.13028e-06
5.34918e-07
4.78909e-07
8.72777e-07
4.77964e-07
8.72917e-07
4.77967e-07
5.34881e-07
9.981e-07
5.13002e-06
5.12971e-06
9.98019e-07
5.34918e-07
4.78909e-07
4.77963e-07
8.72756e-07
4.77964e-07
8.72881e-07
5.34881e-07
9.981e-07
5.13038e-06
5.13007e-06
9.98019e-07
1.51702e-06
1.51633e-06
4.80372e-07
1.51693e-06
1.51632e-06
1.69647e-05
1.6965e-05
1.69669e-05
1.69654e-05
4.80394e-07
1.51683e-06
1.51633e-06
1.51704e-06
1.51632e-06
1.69656e-05
1.69636e-05
5.34876e-07
4.77967e-07
8.72953e-07
4.7891e-07
5.34917e-07
4.77966e-07
8.72821e-07
9.97952e-07
5.1302e-06
9.97985e-07
5.13033e-06
9.9794e-07
5.13031e-06
9.97977e-07
5.13047e-06
5.34914e-07
4.7891e-07
4.77964e-07
8.72745e-07
4.77967e-07
8.72867e-07
5.34879e-07
5.34917e-07
4.78908e-07
4.77963e-07
8.72826e-07
4.77964e-07
8.72953e-07
5.34877e-07
9.97995e-07
5.13045e-06
5.13012e-06
9.97947e-07
9.97987e-07
5.13058e-06
5.13026e-06
9.97936e-07
1.69649e-05
1.69652e-05
1.6966e-05
1.69662e-05
4.80399e-07
1.51632e-06
1.5166e-06
1.51627e-06
1.51655e-06
1.69657e-05
1.69637e-05
1.69668e-05
1.69648e-05
1.69625e-05
1.69634e-05
1.69657e-05
1.69661e-05
1.51671e-06
1.51659e-06
4.80372e-07
1.51649e-06
1.51658e-06
1.69639e-05
1.69622e-05
1.69666e-05
1.69645e-05
4.80394e-07
1.51651e-06
1.51659e-06
1.51666e-06
1.51658e-06
9.98015e-07
5.12967e-06
9.98089e-07
5.12979e-06
5.34879e-07
8.72955e-07
4.77967e-07
4.7891e-07
5.34918e-07
8.72807e-07
4.77967e-07
5.34882e-07
8.7292e-07
4.77967e-07
4.7891e-07
5.34921e-07
8.72793e-07
4.77967e-07
9.98089e-07
5.12982e-06
5.12963e-06
9.97999e-07
9.98094e-07
5.12991e-06
5.12957e-06
9.9801e-07
5.34919e-07
4.78908e-07
8.728e-07
4.77963e-07
8.72952e-07
4.77965e-07
5.34884e-07
5.3492e-07
4.78909e-07
8.72795e-07
4.77963e-07
8.72917e-07
4.77964e-07
5.34884e-07
1.51653e-06
1.51666e-06
4.80371e-07
1.51652e-06
1.51645e-06
1.69619e-05
1.6963e-05
1.6965e-05
1.69627e-05
4.80394e-07
1.51652e-06
1.51647e-06
1.51653e-06
1.51662e-06
1.69634e-05
1.69619e-05
5.34873e-07
8.72954e-07
4.77967e-07
4.7891e-07
5.34914e-07
8.72826e-07
4.77966e-07
9.97961e-07
5.13055e-06
9.97997e-07
5.13067e-06
5.34881e-07
4.77967e-07
8.73082e-07
4.78911e-07
5.34923e-07
4.77966e-07
8.72934e-07
9.97958e-07
5.13046e-06
5.13027e-06
9.97917e-07
5.34912e-07
4.78908e-07
8.72816e-07
4.77963e-07
8.72951e-07
4.77964e-07
5.34877e-07
9.98006e-07
5.13074e-06
5.13044e-06
9.97958e-07
5.3492e-07
4.78909e-07
4.77963e-07
8.72934e-07
4.77964e-07
8.73079e-07
5.34885e-07
9.98022e-07
5.12977e-06
9.98097e-07
5.12994e-06
5.34882e-07
4.77966e-07
8.72882e-07
4.7891e-07
5.3492e-07
4.77966e-07
8.72751e-07
9.98021e-07
5.13011e-06
9.98098e-07
5.13028e-06
5.34918e-07
4.7891e-07
8.72777e-07
4.77964e-07
8.72917e-07
4.77967e-07
5.3488e-07
9.98099e-07
5.13002e-06