/*--------------------------------*- C++ -*----------------------------------*\
| =========                 |                                                 |
| \\      /  F ield         | OpenFOAM: The Open Source CFD Toolbox           |
|  \\    /   O peration     | Version:  2206                                  |
|   \\  /    A nd           | Website:  www.openfoam.com                      |
|    \\/     M anipulation  |                                                 |
\*---------------------------------------------------------------------------*/
FoamFile
{
    version     2.0;
    format      ascii;
    arch        "LSB;label=32;scalar=64";
    class       volScalarField;
    location    "10";
    object      nut;
}
// * * * * * * * * * * * * * * * * * * * * * * * * * * * * * * * * * * * * * //

dimensions      [0 2 -1 0 0 0 0];

internalField   nonuniform List<scalar> 
28448
(
0.000231899
0.000227426
0.000227423
0.000220666
0.000231897
0.000227422
0.000227418
0.000220658
0.000231873
0.00022738
0.000227379
0.000220574
0.000231888
0.000227389
0.000227387
0.000220596
0.000231888
0.000227389
0.000227387
0.000220594
0.000231889
0.000227389
0.000227388
0.000220593
0.000231889
0.000227389
0.000227388
0.000220593
0.000231889
0.000227389
0.000227388
0.000220593
0.000231888
0.000227389
0.000227388
0.000220593
0.000231888
0.000227389
0.000227388
0.000220593
0.000231888
0.000227389
0.000227388
0.000220593
0.000231889
0.000227389
0.000227388
0.000220593
0.000231888
0.000227389
0.000227388
0.000220593
0.000231889
0.000227389
0.000227388
0.000220593
0.000231888
0.000227389
0.000227388
0.000220593
0.000231889
0.000227389
0.000227388
0.000220593
0.000231888
0.000227389
0.000227387
0.000220593
0.000231891
0.00022739
0.000220734
0.000227422
0.000227421
0.000220735
0.000227424
0.000227418
0.000227427
0.000227421
0.000220727
0.000227423
0.000227423
0.000220729
0.000220673
0.000220725
0.000227422
0.000227421
0.000227421
0.000227421
0.000220675
0.000220725
0.000227424
0.000227419
0.000227424
0.000227416
0.000227421
0.000227424
0.000227419
0.000220667
0.000220719
0.000227423
0.00022742
0.000227421
0.000220722
0.000220665
0.000220665
0.00022742
0.000227419
0.000227385
0.000227384
0.000220664
0.000220668
0.000227422
0.000227414
0.000227386
0.000227373
0.000227416
0.000227386
0.000227376
0.000220658
0.000220639
0.000227418
0.000227378
0.000227378
0.000220639
0.000220575
0.00022066
0.000227377
0.000227376
0.000227384
0.000227383
0.000220577
0.000220662
0.000227379
0.000227374
0.000227386
0.000227382
0.000227377
0.000227387
0.000227384
0.000220574
0.000220658
0.000227379
0.000227387
0.000227386
0.000220659
0.000220602
0.000220654
0.000227385
0.000227385
0.000227385
0.000227385
0.000220603
0.000220656
0.000227387
0.000227382
0.000227387
0.000227382
0.000227385
0.000227389
0.000227385
0.000220598
0.000220653
0.000227387
0.000227387
0.000227387
0.000220655
0.000220595
0.000220656
0.000227386
0.000227385
0.000227385
0.000227385
0.000220597
0.000220658
0.000227388
0.000227383
0.000227388
0.000227382
0.000227385
0.00022739
0.000227385
0.000220594
0.000220653
0.000227388
0.000227388
0.000227387
0.000220655
0.000220596
0.000220657
0.000227386
0.000227385
0.000227385
0.000227385
0.000220598
0.000220658
0.000227388
0.000227383
0.000227387
0.000227382
0.000227385
0.00022739
0.000227385
0.000220594
0.000220654
0.000227388
0.000227388
0.000227387
0.000220655
0.000220596
0.000220657
0.000227386
0.000227385
0.000227385
0.000227385
0.000220598
0.000220658
0.000227388
0.000227383
0.000227387
0.000227382
0.000227385
0.00022739
0.000227385
0.000220594
0.000220654
0.000227388
0.000227388
0.000227387
0.000220655
0.000220596
0.000220657
0.000227386
0.000227385
0.000227385
0.000227385
0.000220598
0.000220658
0.000227388
0.000227383
0.000227387
0.000227382
0.000227385
0.00022739
0.000227385
0.000220594
0.000220654
0.000227388
0.000227388
0.000227387
0.000220655
0.000220596
0.000220657
0.000227386
0.000227385
0.000227385
0.000227385
0.000220598
0.000220658
0.000227388
0.000227383
0.000227387
0.000227382
0.000227385
0.00022739
0.000227385
0.000220594
0.000220654
0.000227388
0.000227388
0.000227387
0.000220655
0.000220596
0.000220657
0.000227386
0.000227385
0.000227385
0.000227385
0.000220598
0.000220658
0.000227388
0.000227383
0.000227387
0.000227382
0.000227385
0.00022739
0.000227385
0.000220594
0.000220654
0.000227388
0.000227388
0.000227387
0.000220655
0.000220596
0.000220657
0.000227386
0.000227385
0.000227385
0.000227385
0.000220598
0.000220658
0.000227388
0.000227383
0.000227387
0.000227382
0.000227385
0.00022739
0.000227385
0.000220594
0.000220654
0.000227388
0.000227388
0.000227387
0.000220655
0.000220596
0.000220657
0.000227386
0.000227385
0.000227385
0.000227385
0.000220598
0.000220658
0.000227388
0.000227383
0.000227387
0.000227382
0.000227385
0.00022739
0.000227385
0.000220594
0.000220654
0.000227388
0.000227388
0.000227387
0.000220655
0.000220596
0.000220657
0.000227386
0.000227385
0.000227385
0.000227385
0.000220598
0.000220658
0.000227388
0.000227383
0.000227387
0.000227382
0.000227385
0.00022739
0.000227385
0.000220594
0.000220654
0.000227388
0.000227388
0.000227387
0.000220655
0.000220596
0.000220657
0.000227386
0.000227385
0.000227385
0.000227385
0.000220598
0.000220658
0.000227388
0.000227383
0.000227387
0.000227382
0.000227385
0.00022739
0.000227385
0.000220594
0.000220654
0.000227388
0.000227388
0.000227387
0.000220655
0.000220596
0.000220657
0.000227386
0.000227385
0.000227385
0.000227385
0.000220598
0.000220658
0.000227388
0.000227383
0.000227387
0.000227382
0.000227385
0.00022739
0.000227385
0.000220594
0.000220654
0.000227388
0.000227388
0.000227387
0.000220655
0.000220596
0.000220657
0.000227386
0.000227385
0.000227385
0.000227385
0.000220598
0.000220658
0.000227388
0.000227383
0.000227387
0.000227382
0.000227385
0.00022739
0.000227385
0.000220594
0.000220654
0.000227388
0.000227388
0.000227387
0.000220655
0.000220596
0.000220656
0.000227386
0.000227385
0.000227387
0.000220598
0.000227388
0.000227383
0.000227388
0.000227382
0.000227385
0.000227386
0.000220594
0.000220654
0.000227388
0.000227387
0.000227388
0.00022066
0.00022061
0.000227389
0.000227383
0.000220594
0.000231899
0.000231899
0.000231898
0.000231898
7.4543e-05
4.54485e-05
7.45256e-05
4.54475e-05
2.56908e-05
2.56896e-05
7.4555e-05
4.54447e-05
7.45395e-05
4.54435e-05
0.000231899
0.000231898
0.000231898
0.000231898
0.000231898
0.000231897
0.000231897
0.000166455
8.84939e-05
0.000230845
0.000227426
0.000166426
8.85259e-05
0.000230844
2.56879e-05
2.5687e-05
0.000166449
0.000230844
8.84978e-05
0.00022742
0.000166419
0.000230844
8.85258e-05
4.73922e-05
4.73828e-05
0.000220726
4.74023e-05
4.73927e-05
7.45396e-05
4.54479e-05
7.45346e-05
4.54477e-05
2.56889e-05
2.56889e-05
7.45468e-05
4.54439e-05
7.45466e-05
4.54437e-05
0.000231897
0.000231895
0.000231894
0.000231871
0.000231872
0.000231873
0.000231873
0.000166425
8.85064e-05
0.000230842
0.000227419
0.000166426
8.85191e-05
0.000230836
2.5687e-05
2.56887e-05
0.000166418
0.00023084
8.85033e-05
0.00022741
0.000166417
0.000230832
8.84992e-05
4.74023e-05
4.73929e-05
0.000220702
4.73914e-05
4.73819e-05
7.44301e-05
4.54623e-05
7.44522e-05
4.54631e-05
2.56969e-05
2.5697e-05
7.44394e-05
4.54585e-05
7.44547e-05
4.54592e-05
0.000231874
0.000231878
0.000231878
0.000231887
0.000231887
0.000231888
0.000231888
0.000166286
8.8419e-05
0.000230817
0.000227381
0.000166267
8.84096e-05
0.000230821
2.56953e-05
2.56949e-05
0.00016628
0.000230816
8.83966e-05
0.000227383
0.000166258
0.000230822
8.84085e-05
4.73277e-05
4.73181e-05
0.000220653
4.73275e-05
4.73178e-05
7.44274e-05
4.54636e-05
7.44141e-05
4.54627e-05
2.56973e-05
2.5697e-05
7.44372e-05
4.54597e-05
7.44253e-05
4.54589e-05
0.000231888
0.000231889
0.000231888
0.000231888
0.000231889
0.000231888
0.000231888
0.000166287
8.83789e-05
0.000230827
0.000227389
0.00016626
8.84026e-05
0.000230828
2.56951e-05
2.56948e-05
0.000166282
0.000230827
8.83843e-05
0.000227388
0.000166253
0.000230827
8.84069e-05
4.73227e-05
4.73132e-05
0.000220653
4.73278e-05
4.73182e-05
7.44274e-05
4.54635e-05
7.44143e-05
4.54627e-05
2.56973e-05
2.5697e-05
7.44372e-05
4.54596e-05
7.44255e-05
4.54589e-05
0.000231889
0.000231888
0.000231888
0.000231889
0.000231889
0.000231888
0.000231888
0.000166287
8.83789e-05
0.000230827
0.00022739
0.00016626
8.84027e-05
0.000230827
2.56951e-05
2.56947e-05
0.000166282
0.000230827
8.83844e-05
0.000227388
0.000166253
0.000230827
8.84069e-05
4.73228e-05
4.73134e-05
0.000220654
4.73279e-05
4.73183e-05
7.44274e-05
4.54635e-05
7.44143e-05
4.54627e-05
2.56973e-05
2.5697e-05
7.44373e-05
4.54596e-05
7.44255e-05
4.54588e-05
0.000231889
0.000231888
0.000231888
0.000231889
0.000231889
0.000231888
0.000231888
0.000166287
8.83789e-05
0.000230827
0.00022739
0.00016626
8.84027e-05
0.000230827
2.56951e-05
2.56947e-05
0.000166282
0.000230827
8.83844e-05
0.000227388
0.000166253
0.000230827
8.84069e-05
4.73228e-05
4.73134e-05
0.000220654
4.73278e-05
4.73183e-05
7.44274e-05
4.54635e-05
7.44143e-05
4.54627e-05
2.56973e-05
2.5697e-05
7.44372e-05
4.54596e-05
7.44255e-05
4.54588e-05
0.000231889
0.000231888
0.000231888
0.000231889
0.000231889
0.000231888
0.000231888
0.000166287
8.83789e-05
0.000230827
0.00022739
0.00016626
8.84027e-05
0.000230828
2.56951e-05
2.56947e-05
0.000166281
0.000230827
8.83843e-05
0.000227388
0.000166253
0.000230827
8.84069e-05
4.73228e-05
4.73134e-05
0.000220654
4.73279e-05
4.73183e-05
7.44274e-05
4.54635e-05
7.44143e-05
4.54627e-05
2.56973e-05
2.5697e-05
7.44372e-05
4.54596e-05
7.44255e-05
4.54588e-05
0.000231889
0.000231888
0.000231888
0.000231889
0.000231889
0.000231888
0.000231888
0.000166287
8.83789e-05
0.000230827
0.00022739
0.00016626
8.84027e-05
0.000230827
2.56951e-05
2.56947e-05
0.000166282
0.000230827
8.83843e-05
0.000227388
0.000166255
0.000230827
8.84068e-05
4.73228e-05
4.73134e-05
0.000220654
4.73279e-05
4.73183e-05
7.44274e-05
4.54635e-05
7.44143e-05
4.54627e-05
2.56973e-05
2.5697e-05
7.44372e-05
4.54596e-05
7.44255e-05
4.54588e-05
0.000231889
0.000231888
0.000231888
0.000231889
0.000231889
0.000231888
0.000231888
0.000166287
8.83789e-05
0.000230827
0.00022739
0.00016626
8.84027e-05
0.000230828
2.56951e-05
2.56947e-05
0.000166282
0.000230827
8.83843e-05
0.000227388
0.000166255
0.000230827
8.84068e-05
4.73228e-05
4.73134e-05
0.000220654
4.73279e-05
4.73183e-05
7.44274e-05
4.54635e-05
7.44143e-05
4.54627e-05
2.56973e-05
2.5697e-05
7.44372e-05
4.54596e-05
7.44255e-05
4.54588e-05
0.000231889
0.000231888
0.000231888
0.000231888
0.000231889
0.000231888
0.000231888
0.000166287
8.83789e-05
0.000230827
0.00022739
0.00016626
8.84027e-05
0.000230827
2.56951e-05
2.56947e-05
0.000166279
0.000230827
8.83843e-05
0.000227388
0.000166253
0.000230827
8.84068e-05
4.73228e-05
4.73133e-05
0.000220654
4.73279e-05
4.73183e-05
7.44274e-05
4.54635e-05
7.44143e-05
4.54627e-05
2.56973e-05
2.5697e-05
7.44372e-05
4.54596e-05
7.44255e-05
4.54588e-05
0.000231889
0.000231888
0.000231888
0.000231889
0.000231889
0.000231888
0.000231888
0.000166287
8.83789e-05
0.000230827
0.00022739
0.00016626
8.84027e-05
0.000230828
2.56951e-05
2.56947e-05
0.000166276
0.000230827
8.83843e-05
0.000227388
0.00016625
0.000230827
8.84068e-05
4.73228e-05
4.73133e-05
0.000220654
4.73279e-05
4.73183e-05
7.44274e-05
4.54635e-05
7.44143e-05
4.54627e-05
2.56973e-05
2.5697e-05
7.44372e-05
4.54596e-05
7.44255e-05
4.54588e-05
0.000231889
0.000231888
0.000231888
0.000231888
0.000231889
0.000231888
0.000231888
0.000166287
8.83789e-05
0.000230827
0.00022739
0.00016626
8.84027e-05
0.000230827
2.56951e-05
2.56947e-05
0.000166274
0.000230827
8.83843e-05
0.000227388
0.000166247
0.000230827
8.84068e-05
4.73228e-05
4.73133e-05
0.000220654
4.73279e-05
4.73183e-05
7.44274e-05
4.54635e-05
7.44143e-05
4.54627e-05
2.56973e-05
2.5697e-05
7.44372e-05
4.54596e-05
7.44255e-05
4.54588e-05
0.000231889
0.000231888
0.000231888
0.000231889
0.000231889
0.000231888
0.000231888
0.000166287
8.83789e-05
0.000230827
0.00022739
0.00016626
8.84027e-05
0.000230828
2.56951e-05
2.56947e-05
0.000166275
0.000230827
8.83843e-05
0.000227388
0.000166248
0.000230827
8.84068e-05
4.73228e-05
4.73133e-05
0.000220654
4.73279e-05
4.73182e-05
7.44274e-05
4.54635e-05
7.44143e-05
4.54627e-05
2.56973e-05
2.5697e-05
7.44372e-05
4.54596e-05
7.44255e-05
4.54588e-05
0.000231889
0.000231888
0.000231888
0.000231889
0.000231889
0.000231888
0.000231888
0.000166287
8.83789e-05
0.000230827
0.00022739
0.00016626
8.84027e-05
0.000230827
2.56951e-05
2.56947e-05
0.000166275
0.000230827
8.83842e-05
0.000227388
0.000166248
0.000230827
8.84068e-05
4.73229e-05
4.73133e-05
0.000220654
4.73279e-05
4.73182e-05
7.44274e-05
4.54635e-05
7.44143e-05
4.54627e-05
2.56973e-05
2.5697e-05
7.44373e-05
4.54596e-05
7.44255e-05
4.54588e-05
0.000231889
0.000231888
0.000231888
0.000231889
0.000231889
0.000231888
0.000231888
0.000166287
8.83789e-05
0.000230827
0.00022739
0.00016626
8.84027e-05
0.000230827
2.56951e-05
2.56947e-05
0.000166275
0.000230827
8.83843e-05
0.000227388
0.000166248
0.000230827
8.84068e-05
4.73229e-05
4.73133e-05
0.000220654
4.73279e-05
4.73182e-05
7.44274e-05
4.54635e-05
7.44143e-05
4.54627e-05
2.56973e-05
2.5697e-05
7.44372e-05
4.54596e-05
7.44255e-05
4.54588e-05
0.000231889
0.000231888
0.000231888
0.000231889
0.000231889
0.000231888
0.000231888
0.000166287
8.83789e-05
0.000230827
0.00022739
0.00016626
8.84026e-05
0.000230828
2.56951e-05
2.56947e-05
0.000166275
0.000230827
8.83842e-05
0.000227388
0.000166248
0.000230827
8.84068e-05
4.73228e-05
4.73133e-05
0.000220654
4.73278e-05
4.73182e-05
7.44274e-05
4.54635e-05
7.44143e-05
4.54627e-05
2.56973e-05
2.5697e-05
7.44372e-05
4.54596e-05
7.44255e-05
4.54588e-05
0.000231889
0.000231888
0.000231888
0.000231889
0.000231891
0.000231888
0.000231889
0.000166287
8.83789e-05
0.000230827
0.000227389
0.00016626
8.84027e-05
0.000230827
2.56951e-05
2.56947e-05
0.000166275
0.000230827
8.83842e-05
0.000227388
0.000166248
0.000230827
8.84068e-05
4.73227e-05
4.73132e-05
0.000220654
4.73278e-05
4.73181e-05
4.54596e-05
7.44254e-05
0.00023189
2.56951e-05
8.83885e-05
2.56917e-05
2.56902e-05
4.73944e-05
4.73835e-05
4.5448e-05
7.45369e-05
4.54477e-05
7.45374e-05
8.85148e-05
0.000230845
0.000166436
8.85096e-05
0.000230845
0.000166436
2.56909e-05
4.73848e-05
4.73828e-05
2.56913e-05
4.54441e-05
7.45492e-05
8.85016e-05
0.000230846
0.000166471
7.4518e-05
4.54427e-05
4.54436e-05
7.45415e-05
0.000166396
0.000227418
0.000230844
8.84971e-05
0.000230844
8.84407e-05
0.000166454
0.000166394
8.8512e-05
0.000230845
0.000230845
0.00016645
7.45089e-05
4.54467e-05
7.4535e-05
0.000166394
0.000227421
0.000230845
8.85162e-05
0.000230845
8.84622e-05
0.000166452
7.45085e-05
4.54453e-05
4.54461e-05
7.45345e-05
2.56879e-05
2.56898e-05
0.000220678
4.73731e-05
4.7394e-05
4.73618e-05
4.73844e-05
2.56903e-05
2.56918e-05
0.000166385
0.000227424
0.000230845
8.85172e-05
0.000230845
8.84636e-05
0.000166443
0.000166395
0.000227423
0.000230844
8.85093e-05
0.000230845
8.84549e-05
0.000166452
7.45071e-05
4.5445e-05
4.54459e-05
7.45336e-05
7.45166e-05
4.54446e-05
4.54455e-05
7.45402e-05
0.000220678
4.73942e-05
4.73846e-05
4.73846e-05
4.73754e-05
2.56901e-05
2.56917e-05
2.56893e-05
2.56909e-05
2.56916e-05
2.56904e-05
2.569e-05
2.56888e-05
4.7394e-05
4.7383e-05
0.000220729
4.74021e-05
4.73911e-05
2.56897e-05
2.56903e-05
2.56882e-05
2.56888e-05
0.00022067
4.74095e-05
4.73982e-05
4.74026e-05
4.73914e-05
7.45417e-05
4.54478e-05
7.45296e-05
4.54473e-05
0.000166459
8.85024e-05
0.000230845
0.000227422
0.000166422
8.85282e-05
0.000230845
0.000166458
8.84969e-05
0.000230845
0.000227421
0.000166421
8.85232e-05
0.000230845
7.45364e-05
4.54473e-05
4.54475e-05
7.45469e-05
7.4535e-05
4.54471e-05
4.54473e-05
7.45453e-05
0.000166439
0.000227423
8.8534e-05
0.000230844
8.85137e-05
0.000230845
0.000166459
0.000166439
0.000227422
8.85287e-05
0.000230844
8.85081e-05
0.000230845
0.000166459
4.73845e-05
4.73825e-05
0.00022073
4.73921e-05
4.73911e-05
2.56912e-05
2.569e-05
2.56888e-05
2.56896e-05
0.000220671
4.73996e-05
4.73974e-05
4.73929e-05
4.739e-05
2.56893e-05
2.569e-05
0.000166469
8.84873e-05
0.000230846
0.000227424
0.000166452
8.85142e-05
0.000230846
7.45478e-05
4.54428e-05
7.45368e-05
4.54424e-05
0.000166459
0.000230844
8.84817e-05
0.000227418
0.000166437
0.000230844
8.85052e-05
7.45497e-05
4.54433e-05
4.54436e-05
7.45579e-05
0.000166445
0.000227425
8.85193e-05
0.000230845
8.84978e-05
0.000230846
0.000166463
7.45424e-05
4.54424e-05
4.54425e-05
7.45506e-05
0.00016644
0.000227418
0.000230843
8.85073e-05
0.000230844
8.84882e-05
0.000166458
7.45402e-05
4.54469e-05
7.45285e-05
4.54463e-05
0.000166455
0.000230845
8.85022e-05
0.000227421
0.000166434
0.000230845
8.85249e-05
7.45398e-05
4.54453e-05
7.45279e-05
4.54449e-05
0.000166436
0.000227426
8.85299e-05
0.000230844
8.85095e-05
0.000230845
0.000166455
7.4533e-05
4.54461e-05
4.54464e-05
7.45423e-05
0.000166436
0.00022742
0.000230843
8.85273e-05
0.000230844
8.85093e-05
0.000166452
7.45324e-05
4.54449e-05
4.54449e-05
7.45415e-05
4.73726e-05
4.73946e-05
0.000220721
4.73805e-05
4.7402e-05
2.56902e-05
2.56894e-05
2.56866e-05
2.5687e-05
0.000220663
4.73858e-05
4.74079e-05
4.73789e-05
4.7402e-05
2.5689e-05
2.56894e-05
0.000166455
0.000230844
8.84951e-05
0.000227423
0.000166435
0.000230844
8.85181e-05
7.45388e-05
4.54451e-05
7.45268e-05
4.54447e-05
7.45461e-05
4.54446e-05
7.45354e-05
4.54443e-05
0.000166429
0.00022742
0.000230843
8.85282e-05
0.000230844
8.85103e-05
0.000166448
0.000166436
0.000227422
0.000230842
8.85204e-05
0.000230844
8.85022e-05
0.000166452
7.45313e-05
4.54446e-05
4.54447e-05
7.45406e-05
7.45405e-05
4.54443e-05
4.54443e-05
7.45481e-05
2.569e-05
2.56892e-05
2.56892e-05
2.56884e-05
0.000220667
4.7408e-05
4.73985e-05
4.74022e-05
4.73927e-05
2.56888e-05
2.56892e-05
2.5688e-05
2.56884e-05
2.56897e-05
2.56898e-05
2.56882e-05
2.56883e-05
4.74098e-05
4.73983e-05
0.000220715
4.74085e-05
4.73969e-05
2.5696e-05
2.56903e-05
2.56945e-05
2.56888e-05
0.00022065
4.73671e-05
4.73558e-05
4.74014e-05
4.73896e-05
7.45393e-05
4.54471e-05
7.45381e-05
4.54473e-05
0.00016645
8.8518e-05
0.000230843
0.000227417
0.000166438
8.85261e-05
0.000230841
0.000166451
8.85123e-05
0.000230843
0.000227416
0.000166438
8.85209e-05
0.000230841
7.45219e-05
4.54579e-05
4.54484e-05
7.44831e-05
7.45223e-05
4.54568e-05
4.54477e-05
7.44844e-05
0.000166416
0.000227407
8.84685e-05
0.000230815
8.84999e-05
0.000230833
0.000166361
0.000166417
0.000227406
8.84635e-05
0.000230814
8.84944e-05
0.000230832
0.000166361
4.73997e-05
4.73954e-05
0.000220717
4.73985e-05
4.73973e-05
2.56894e-05
2.56895e-05
2.56953e-05
2.56894e-05
0.000220653
4.73577e-05
4.73603e-05
4.73907e-05
4.73859e-05
2.56955e-05
2.56901e-05
0.000166449
8.85015e-05
0.000230844
0.000227419
0.000166438
8.85109e-05
0.00023084
7.45276e-05
4.54425e-05
7.45427e-05
4.54445e-05
0.000166432
0.000230841
8.84865e-05
0.000227405
0.000166431
0.000230834
8.84784e-05
7.45288e-05
4.54541e-05
4.54445e-05
7.44819e-05
0.000166412
0.000227409
8.84526e-05
0.000230813
8.8483e-05
0.00023083
0.000166345
7.45045e-05
4.54569e-05
4.54486e-05
7.44577e-05
0.000166383
0.000227383
0.000230812
8.84077e-05
0.000230817
8.84438e-05
0.000166315
7.45171e-05
4.54462e-05
7.45324e-05
4.54464e-05
0.000166422
0.000230841
8.85077e-05
0.000227407
0.000166426
0.000230833
8.84979e-05
7.45161e-05
4.54449e-05
7.45315e-05
4.54468e-05
0.000166373
0.000227407
8.84575e-05
0.000230814
8.84904e-05
0.00023082
0.000166308
7.44911e-05
4.54557e-05
4.54469e-05
7.44444e-05
0.000166368
0.000227385
0.000230812
8.84265e-05
0.000230815
8.84638e-05
0.000166303
7.44899e-05
4.54594e-05
4.5451e-05
7.4443e-05
4.73817e-05
4.74054e-05
0.000220698
4.73704e-05
4.73922e-05
2.5689e-05
2.56907e-05
2.56949e-05
2.56916e-05
0.000220616
4.73168e-05
4.73368e-05
4.73523e-05
4.73746e-05
2.5697e-05
2.56936e-05
0.000166422
0.00023084
8.85006e-05
0.000227409
0.000166426
0.000230832
8.8491e-05
7.4515e-05
4.54447e-05
7.45303e-05
4.54466e-05
7.45215e-05
4.54443e-05
7.45396e-05
4.54463e-05
0.000166362
0.000227387
0.000230812
8.84274e-05
0.000230814
8.84653e-05
0.000166299
0.000166368
0.000227387
0.000230811
8.84197e-05
0.000230814
8.84567e-05
0.000166303
7.44885e-05
4.54592e-05
4.54509e-05
7.4442e-05
7.44966e-05
4.54589e-05
4.54506e-05
7.44489e-05
2.56888e-05
2.56907e-05
2.56881e-05
2.56899e-05
0.000220618
4.73375e-05
4.73277e-05
4.7374e-05
4.73644e-05
2.56968e-05
2.56936e-05
2.5696e-05
2.56928e-05
2.56976e-05
2.56981e-05
2.56961e-05
2.56965e-05
4.73511e-05
4.73398e-05
0.000220643
4.73289e-05
4.73179e-05
2.5698e-05
2.56981e-05
2.56964e-05
2.56966e-05
0.000220588
4.73286e-05
4.73176e-05
4.73264e-05
4.73154e-05
7.44308e-05
4.54612e-05
7.44559e-05
4.54627e-05
0.000166288
8.84329e-05
0.000230813
0.000227378
0.000166306
8.84156e-05
0.000230817
0.000166289
8.84275e-05
0.000230813
0.000227377
0.000166306
8.84107e-05
0.000230817
7.44199e-05
4.5463e-05
4.54631e-05
7.44274e-05
7.44205e-05
4.54625e-05
4.54627e-05
7.4428e-05
0.000166266
0.000227381
8.84094e-05
0.000230826
8.8396e-05
0.000230822
0.000166286
0.000166267
0.00022738
8.84042e-05
0.000230826
8.83904e-05
0.000230822
0.000166287
4.73414e-05
4.73424e-05
0.000220644
4.73192e-05
4.73174e-05
2.56974e-05
2.56977e-05
2.5697e-05
2.5697e-05
0.00022059
4.73188e-05
4.73148e-05
4.73165e-05
4.73123e-05
2.56976e-05
2.56978e-05
0.000166289
8.84164e-05
0.000230813
0.00022738
0.000166296
8.84e-05
0.000230817
7.4435e-05
4.54581e-05
7.44394e-05
4.54576e-05
0.000166286
0.000230816
8.83793e-05
0.000227378
0.000166276
0.000230821
8.83865e-05
7.44314e-05
4.54591e-05
4.54593e-05
7.4437e-05
0.000166268
0.000227383
8.83939e-05
0.000230826
8.83787e-05
0.000230822
0.000166289
7.44279e-05
4.54574e-05
4.54576e-05
7.44344e-05
0.000166266
0.000227381
0.000230826
8.83848e-05
0.000230824
8.83673e-05
0.000166287
7.4427e-05
4.54603e-05
7.44274e-05
4.54618e-05
0.000166285
0.000230817
8.84e-05
0.000227381
0.000166271
0.000230822
8.84073e-05
7.44265e-05
4.54605e-05
7.44263e-05
4.54601e-05
0.000166265
0.000227385
8.84028e-05
0.000230827
8.83881e-05
0.000230825
0.000166285
7.44185e-05
4.54616e-05
4.54618e-05
7.44269e-05
0.000166265
0.000227383
0.000230827
8.84053e-05
0.000230826
8.83892e-05
0.000166286
7.4418e-05
4.54599e-05
4.54601e-05
7.44265e-05
4.7307e-05
4.73294e-05
0.000220651
4.73029e-05
4.73271e-05
2.56972e-05
2.56971e-05
2.56948e-05
2.56949e-05
0.000220596
4.73042e-05
4.73273e-05
4.72995e-05
4.73251e-05
2.5697e-05
2.56971e-05
0.000166286
0.000230816
8.83929e-05
0.000227383
0.000166271
0.000230821
8.84004e-05
7.44254e-05
4.54602e-05
7.44251e-05
4.54598e-05
7.44333e-05
4.54599e-05
7.44331e-05
4.54595e-05
0.000166257
0.000227386
0.000230827
8.84067e-05
0.000230825
8.83907e-05
0.00016628
0.000166266
0.000227385
0.000230827
8.83985e-05
0.000230825
8.83821e-05
0.000166287
7.44167e-05
4.54597e-05
4.54598e-05
7.44255e-05
7.44264e-05
4.54593e-05
4.54595e-05
7.44333e-05
2.56971e-05
2.56969e-05
2.56963e-05
2.56961e-05
0.000220597
4.73276e-05
4.7318e-05
4.73254e-05
4.73159e-05
2.56969e-05
2.56969e-05
2.56961e-05
2.56961e-05
2.5698e-05
2.56979e-05
2.56964e-05
2.56964e-05
4.7327e-05
4.73159e-05
0.000220659
4.73291e-05
4.73181e-05
2.56979e-05
2.56979e-05
2.56964e-05
2.56964e-05
0.000220599
4.7329e-05
4.73182e-05
4.73273e-05
4.73163e-05
7.44279e-05
4.54625e-05
7.44198e-05
4.54625e-05
0.000166288
8.83922e-05
0.000230827
0.000227385
0.000166265
8.84089e-05
0.000230827
0.000166289
8.83867e-05
0.000230827
0.000227385
0.000166266
8.84039e-05
0.000230827
7.44193e-05
4.54629e-05
4.54628e-05
7.44275e-05
7.44198e-05
4.54624e-05
4.54625e-05
7.4428e-05
0.000166267
0.000227386
8.8409e-05
0.000230827
8.83924e-05
0.000230828
0.000166287
0.000166268
0.000227385
8.84038e-05
0.000230827
8.83868e-05
0.000230828
0.000166288
4.73167e-05
4.73109e-05
0.00022066
4.73192e-05
4.73155e-05
2.56977e-05
2.56976e-05
2.5697e-05
2.5697e-05
0.0002206
4.73191e-05
4.73163e-05
4.73172e-05
4.73118e-05
2.56976e-05
2.56977e-05
0.000166291
8.83752e-05
0.000230827
0.000227387
0.000166268
8.83936e-05
0.000230827
7.44344e-05
4.54575e-05
7.44278e-05
4.54573e-05
0.000166289
0.000230827
8.83665e-05
0.000227382
0.000166267
0.000230827
8.83848e-05
7.44307e-05
4.5459e-05
4.54589e-05
7.44372e-05
0.00016627
0.000227388
8.83937e-05
0.000230827
8.83755e-05
0.000230828
0.000166289
7.44278e-05
4.54573e-05
4.54574e-05
7.44345e-05
0.000166268
0.000227383
0.000230826
8.83847e-05
0.000230827
8.83665e-05
0.000166287
7.44268e-05
4.54616e-05
7.44187e-05
4.54615e-05
0.000166288
0.000230827
8.83883e-05
0.000227385
0.000166266
0.000230827
8.84056e-05
7.44264e-05
4.54599e-05
7.44183e-05
4.54599e-05
0.000166267
0.000227389
8.84026e-05
0.000230827
8.83845e-05
0.000230827
0.000166285
7.44186e-05
4.54614e-05
4.54616e-05
7.4427e-05
0.000166267
0.000227386
0.000230827
8.84053e-05
0.000230827
8.83884e-05
0.000166286
7.44182e-05
4.54599e-05
4.54599e-05
7.44265e-05
4.73007e-05
4.73255e-05
0.000220653
4.73042e-05
4.73276e-05
2.5697e-05
2.5697e-05
2.56948e-05
2.56948e-05
0.000220595
4.73042e-05
4.73276e-05
4.73005e-05
4.73256e-05
2.5697e-05
2.5697e-05
0.000166289
0.000230827
8.83812e-05
0.000227387
0.000166267
0.000230827
8.83987e-05
7.44255e-05
4.54597e-05
7.44171e-05
4.54596e-05
7.44333e-05
4.54593e-05
7.44267e-05
4.54593e-05
0.00016626
0.000227387
0.000230827
8.84068e-05
0.000230827
8.839e-05
0.000166279
0.000166268
0.000227388
0.000230827
8.83985e-05
0.000230827
8.83813e-05
0.000166287
7.44172e-05
4.54596e-05
4.54596e-05
7.44263e-05
7.44267e-05
4.54593e-05
4.54593e-05
7.44336e-05
2.56969e-05
2.56968e-05
2.56961e-05
2.5696e-05
0.000220593
4.73277e-05
4.73182e-05
4.73258e-05
4.73163e-05
2.56968e-05
2.56968e-05
2.5696e-05
2.5696e-05
2.56979e-05
2.56979e-05
2.56964e-05
2.56964e-05
4.73273e-05
4.73163e-05
0.000220657
4.73292e-05
4.73182e-05
2.56979e-05
2.56979e-05
2.56964e-05
2.56964e-05
0.0002206
4.73291e-05
4.73181e-05
4.73274e-05
4.73163e-05
7.44279e-05
4.54625e-05
7.44198e-05
4.54624e-05
0.000166287
8.83921e-05
0.000230827
0.000227386
0.000166266
8.8409e-05
0.000230827
0.000166288
8.83866e-05
0.000230827
0.000227385
0.000166266
8.84039e-05
0.000230827
7.44193e-05
4.54629e-05
4.54627e-05
7.44276e-05
7.44198e-05
4.54624e-05
4.54625e-05
7.4428e-05
0.000166266
0.000227386
8.8409e-05
0.000230827
8.83925e-05
0.000230827
0.000166287
0.000166267
0.000227386
8.84038e-05
0.000230827
8.83868e-05
0.000230827
0.000166288
4.7317e-05
4.73122e-05
0.000220659
4.73192e-05
4.73158e-05
2.56977e-05
2.56976e-05
2.5697e-05
2.5697e-05
0.000220601
4.73191e-05
4.73158e-05
4.73172e-05
4.73116e-05
2.56976e-05
2.56977e-05
0.00016629
8.83751e-05
0.000230827
0.000227388
0.000166269
8.83936e-05
0.000230827
7.44345e-05
4.54574e-05
7.44279e-05
4.54573e-05
0.000166288
0.000230826
8.83664e-05
0.000227383
0.000166266
0.000230826
8.83848e-05
7.44307e-05
4.54589e-05
4.54589e-05
7.44372e-05
0.00016627
0.000227388
8.83937e-05
0.000230827
8.83755e-05
0.000230828
0.00016629
7.44279e-05
4.54573e-05
4.54574e-05
7.44346e-05
0.000166267
0.000227383
0.000230826
8.83847e-05
0.000230827
8.83665e-05
0.000166287
7.44268e-05
4.54615e-05
7.44188e-05
4.54614e-05
0.000166287
0.000230827
8.83883e-05
0.000227385
0.000166265
0.000230827
8.84056e-05
7.44265e-05
4.54599e-05
7.44183e-05
4.54599e-05
0.000166267
0.00022739
8.84026e-05
0.000230827
8.83845e-05
0.000230828
0.000166285
7.44186e-05
4.54614e-05
4.54615e-05
7.4427e-05
0.000166267
0.000227386
0.000230827
8.84054e-05
0.000230827
8.83884e-05
0.000166286
7.44183e-05
4.54599e-05
4.54599e-05
7.44266e-05
4.73007e-05
4.73257e-05
0.000220654
4.73042e-05
4.73277e-05
2.5697e-05
2.5697e-05
2.56948e-05
2.56948e-05
0.000220597
4.73042e-05
4.73276e-05
4.73005e-05
4.73257e-05
2.5697e-05
2.5697e-05
0.000166288
0.000230827
8.83812e-05
0.000227388
0.000166266
0.000230827
8.83987e-05
7.44263e-05
4.54597e-05
7.44181e-05
4.54596e-05
7.4434e-05
4.54593e-05
7.4427e-05
4.54593e-05
0.00016626
0.000227388
0.000230827
8.84068e-05
0.000230827
8.839e-05
0.00016628
0.000166268
0.000227388
0.000230827
8.83985e-05
0.000230827
8.83814e-05
0.000166288
7.44179e-05
4.54597e-05
4.54597e-05
7.44266e-05
7.44277e-05
4.54593e-05
4.54593e-05
7.44346e-05
2.56968e-05
2.56968e-05
2.5696e-05
2.5696e-05
0.000220595
4.73277e-05
4.73182e-05
4.73258e-05
4.73164e-05
2.56968e-05
2.56968e-05
2.5696e-05
2.5696e-05
2.56979e-05
2.56979e-05
2.56964e-05
2.56963e-05
4.73274e-05
4.73162e-05
0.000220656
4.73293e-05
4.73182e-05
2.56979e-05
2.56979e-05
2.56964e-05
2.56964e-05
0.000220599
4.73292e-05
4.73181e-05
4.73275e-05
4.73163e-05
7.44279e-05
4.54625e-05
7.44198e-05
4.54624e-05
0.000166287
8.83921e-05
0.000230827
0.000227386
0.000166267
8.8409e-05
0.000230827
0.000166288
8.83866e-05
0.000230827
0.000227385
0.000166267
8.84039e-05
0.000230827
7.44193e-05
4.54629e-05
4.54627e-05
7.44276e-05
7.44197e-05
4.54624e-05
4.54625e-05
7.4428e-05
0.000166266
0.000227386
8.8409e-05
0.000230827
8.83925e-05
0.000230827
0.000166288
0.000166267
0.000227385
8.84038e-05
0.000230827
8.83868e-05
0.000230827
0.000166288
4.7317e-05
4.73119e-05
0.000220658
4.73192e-05
4.7316e-05
2.56977e-05
2.56976e-05
2.5697e-05
2.5697e-05
0.0002206
4.73191e-05
4.73157e-05
4.73173e-05
4.73118e-05
2.56976e-05
2.56977e-05
0.00016629
8.83751e-05
0.000230827
0.000227388
0.000166269
8.83936e-05
0.000230827
7.44345e-05
4.54574e-05
7.44279e-05
4.54573e-05
0.000166288
0.000230827
8.83664e-05
0.000227383
0.000166267
0.000230827
8.83847e-05
7.44307e-05
4.54589e-05
4.54589e-05
7.44372e-05
0.000166269
0.000227388
8.83937e-05
0.000230827
8.83755e-05
0.000230828
0.00016629
7.44279e-05
4.54573e-05
4.54574e-05
7.44346e-05
0.000166267
0.000227383
0.000230826
8.83847e-05
0.000230827
8.83665e-05
0.000166287
7.44269e-05
4.54615e-05
7.44188e-05
4.54614e-05
0.000166287
0.000230827
8.83883e-05
0.000227385
0.000166266
0.000230827
8.84055e-05
7.44266e-05
4.54599e-05
7.44184e-05
4.54599e-05
0.000166267
0.00022739
8.84026e-05
0.000230827
8.83846e-05
0.000230827
0.000166285
7.44187e-05
4.54614e-05
4.54615e-05
7.44271e-05
0.000166267
0.000227386
0.000230827
8.84054e-05
0.000230827
8.83884e-05
0.000166286
7.44183e-05
4.54599e-05
4.54599e-05
7.44267e-05
4.73007e-05
4.73257e-05
0.000220654
4.73042e-05
4.73276e-05
2.5697e-05
2.5697e-05
2.56948e-05
2.56948e-05
0.000220596
4.73043e-05
4.73276e-05
4.73005e-05
4.73257e-05
2.5697e-05
2.5697e-05
0.000166289
0.000230827