/*--------------------------------*- C++ -*----------------------------------*\
| =========                 |                                                 |
| \\      /  F ield         | OpenFOAM: The Open Source CFD Toolbox           |
|  \\    /   O peration     | Version:  2206                                  |
|   \\  /    A nd           | Website:  www.openfoam.com                      |
|    \\/     M anipulation  |                                                 |
\*---------------------------------------------------------------------------*/
FoamFile
{
    version     2.0;
    format      ascii;
    arch        "LSB;label=32;scalar=64";
    class       surfaceScalarField;
    location    "10";
    object      phi;
}
// * * * * * * * * * * * * * * * * * * * * * * * * * * * * * * * * * * * * * //

dimensions      [0 3 -1 0 0 0 0];

oriented        oriented;

internalField   nonuniform List<scalar> 
82026
(
1.19144e-09
1.28774e-09
-0.00106587
-1.04384e-09
-1.00575e-09
0.00106587
-0.00106652
-1.16901e-06
-1.33991e-09
1.35835e-09
0.00106652
-2.22934e-07
1.1708e-06
2.22456e-07
8.43372e-07
-2.07995e-07
-8.43133e-07
2.07025e-07
-0.00106619
-1.16366e-06
-1.46329e-09
1.24823e-09
0.00106619
-2.22869e-07
1.16549e-06
2.22516e-07
8.43205e-07
-2.10556e-07
-8.42983e-07
2.09736e-07
-0.000262279
1.19674e-06
1.16378e-06
-2.10888e-07
-2.16061e-07
0.000260346
1.50408e-09
1.18856e-09
-0.00106587
-9.98583e-10
-1.34045e-09
0.00106587
-0.00106652
-1.16885e-06
-9.48489e-10
8.55531e-10
0.00106652
-2.22735e-07
1.17094e-06
2.22637e-07
8.43136e-07
-2.07984e-07
-8.43293e-07
2.06992e-07
-0.00106619
-1.16379e-06
-2.81877e-10
1.60985e-09
0.00106619
-2.23054e-07
1.16531e-06
2.22233e-07
8.42757e-07
-2.10864e-07
-8.43385e-07
2.09244e-07
-0.000262279
1.19693e-06
1.16392e-06
-2.11029e-07
-2.16241e-07
0.000260345
1.42967e-10
3.17514e-10
-0.00106587
-5.71137e-10
-4.94225e-10
0.00106587
-0.00106652
-1.16926e-06
-4.03099e-10
1.83758e-09
0.00106652
-2.23282e-07
1.17066e-06
2.22265e-07
8.43183e-07
-2.08733e-07
-8.43474e-07
2.06537e-07
-0.00106619
-1.16388e-06
-6.16406e-10
1.61677e-09
0.00106619
-2.2316e-07
1.16538e-06
2.22354e-07
8.43043e-07
-2.11154e-07
-8.43307e-07
2.09341e-07
-0.000262279
1.19695e-06
1.164e-06
-2.11167e-07
-2.16332e-07
0.000260346
7.27749e-10
8.36064e-10
-0.00106587
-8.16955e-10
-7.72566e-10
0.00106588
-0.00106652
-1.16913e-06
-8.74376e-10
1.54259e-09
0.00106652
-2.23093e-07
1.17076e-06
2.22398e-07
8.43272e-07
-2.08319e-07
-8.43364e-07
2.06828e-07
-0.00106619
-1.16381e-06
-9.84918e-10
1.49774e-09
0.00106619
-2.23076e-07
1.16543e-06
2.22411e-07
8.43122e-07
-2.10923e-07
-8.4322e-07
2.09502e-07
-0.00026228
1.19687e-06
1.16393e-06
-2.11069e-07
-2.16225e-07
0.000260346
7.93384e-10
8.73186e-10
-0.00106587
-8.45216e-10
-8.1717e-10
0.00106587
-0.00106652
-1.16912e-06
-8.98356e-10
1.49971e-09
0.00106652
-2.23077e-07
1.17077e-06
2.22411e-07
8.43277e-07
-2.08312e-07
-8.43357e-07
2.06833e-07
-0.00106619
-1.16382e-06
-1.07833e-09
1.52756e-09
0.00106619
-2.23082e-07
1.16543e-06
2.22401e-07
8.43165e-07
-2.10884e-07
-8.43163e-07
2.09532e-07
-0.00026228
1.19685e-06
1.16393e-06
-2.11071e-07
-2.16206e-07
0.000260346
8.13795e-10
8.6946e-10
-0.00106587
-8.46543e-10
-8.47242e-10
0.00106587
-0.00106652
-1.16912e-06
-8.8751e-10
1.47898e-09
0.00106652
-2.23077e-07
1.17077e-06
2.22413e-07
8.43273e-07
-2.08316e-07
-8.43362e-07
2.06831e-07
-0.00106619
-1.16381e-06
-9.59553e-10
1.5059e-09
0.00106619
-2.23078e-07
1.16544e-06
2.22411e-07
8.43115e-07
-2.10922e-07
-8.43218e-07
2.09498e-07
-0.00026228
1.19687e-06
1.16393e-06
-2.11069e-07
-2.16225e-07
0.000260346
8.25301e-10
8.63983e-10
-0.00106587
-8.44892e-10
-8.65562e-10
0.00106587
-0.00106652
-1.16911e-06
-8.84892e-10
1.46145e-09
0.00106652
-2.23074e-07
1.17077e-06
2.22416e-07
8.43274e-07
-2.08316e-07
-8.43361e-07
2.06831e-07
-0.00106619
-1.1638e-06
-9.13683e-10
1.47628e-09
0.00106619
-2.23071e-07
1.16544e-06
2.22418e-07
8.43107e-07
-2.10937e-07
-8.43236e-07
2.09489e-07
-0.00026228
1.19688e-06
1.16392e-06
-2.11061e-07
-2.16236e-07
0.000260346
8.2374e-10
8.58875e-10
-0.00106587
-8.42021e-10
-8.66574e-10
0.00106587
-0.00106652
-1.16911e-06
-8.82865e-10
1.45818e-09
0.00106652
-2.23073e-07
1.17077e-06
2.22417e-07
8.43273e-07
-2.08318e-07
-8.43363e-07
2.06829e-07
-0.00106619
-1.1638e-06
-9.06657e-10
1.47345e-09
0.00106619
-2.2307e-07
1.16544e-06
2.22419e-07
8.43105e-07
-2.1094e-07
-8.43237e-07
2.09486e-07
-0.00026228
1.19688e-06
1.16392e-06
-2.11061e-07
-2.16237e-07
0.000260346
8.28641e-10
8.66324e-10
-0.00106587
-8.47467e-10
-8.69773e-10
0.00106587
-0.00106652
-1.16911e-06
-8.80805e-10
1.45853e-09
0.00106652
-2.23073e-07
1.17077e-06
2.22417e-07
8.43273e-07
-2.08318e-07
-8.43363e-07
2.0683e-07
-0.00106619
-1.1638e-06
-9.10403e-10
1.47011e-09
0.00106619
-2.23068e-07
1.16545e-06
2.22421e-07
8.43107e-07
-2.10939e-07
-8.43236e-07
2.09487e-07
-0.00026228
1.19688e-06
1.16392e-06
-2.1106e-07
-2.16236e-07
0.000260346
8.33079e-10
8.70091e-10
-0.00106587
-8.49659e-10
-8.73491e-10
0.00106587
-0.00106652
-1.16911e-06
-8.84598e-10
1.45428e-09
0.00106652
-2.23072e-07
1.17078e-06
2.22418e-07
8.43273e-07
-2.08318e-07
-8.43363e-07
2.0683e-07
-0.00106619
-1.1638e-06
-9.09277e-10
1.47009e-09
0.00106619
-2.23068e-07
1.16545e-06
2.22421e-07
8.43106e-07
-2.10939e-07
-8.43236e-07
2.09487e-07
-0.00026228
1.19688e-06
1.16392e-06
-2.11061e-07
-2.16236e-07
0.000260346
8.37026e-10
8.71973e-10
-0.00106587
-8.49231e-10
-8.74693e-10
0.00106587
-0.00106652
-1.16911e-06
-8.93899e-10
1.45145e-09
0.00106652
-2.2307e-07
1.17078e-06
2.2242e-07
8.43276e-07
-2.08316e-07
-8.4336e-07
2.06832e-07
-0.00106619
-1.1638e-06
-9.14693e-10
1.47005e-09
0.00106619
-2.23066e-07
1.16545e-06
2.22422e-07
8.43107e-07
-2.10938e-07
-8.43235e-07
2.09488e-07
-0.00026228
1.19688e-06
1.16392e-06
-2.11059e-07
-2.16234e-07
0.000260346
8.40276e-10
8.78674e-10
-0.00106587
-8.53277e-10
-8.74749e-10
0.00106587
-0.00106652
-1.16911e-06
-8.95488e-10
1.45117e-09
0.00106652
-2.23071e-07
1.17078e-06
2.2242e-07
8.43277e-07
-2.08315e-07
-8.43359e-07
2.06833e-07
-0.00106619
-1.1638e-06
-9.23838e-10
1.46379e-09
0.00106619
-2.23065e-07
1.16545e-06
2.22424e-07
8.43109e-07
-2.10936e-07
-8.43233e-07
2.0949e-07
-0.00026228
1.19688e-06
1.16392e-06
-2.11058e-07
-2.16234e-07
0.000260346
8.38098e-10
8.76859e-10
-0.00106587
-8.52988e-10
-8.74827e-10
0.00106587
-0.00106652
-1.16911e-06
-8.87875e-10
1.45294e-09
0.00106652
-2.23071e-07
1.17078e-06
2.22419e-07
8.43275e-07
-2.08316e-07
-8.43361e-07
2.06832e-07
-0.00106619
-1.1638e-06
-9.16624e-10
1.46643e-09
0.00106619
-2.23066e-07
1.16545e-06
2.22423e-07
8.43108e-07
-2.10937e-07
-8.43234e-07
2.09489e-07
-0.00026228
1.19688e-06
1.16392e-06
-2.11059e-07
-2.16235e-07
0.000260346
8.383e-10
8.71379e-10
-0.00106587
-8.49218e-10
-8.75971e-10
0.00106587
-0.00106652
-1.16911e-06
-8.88088e-10
1.45305e-09
0.00106652
-2.23072e-07
1.17078e-06
2.22418e-07
8.43274e-07
-2.08317e-07
-8.43362e-07
2.06831e-07
-0.00106619
-1.1638e-06
-9.11006e-10
1.4698e-09
0.00106619
-2.23067e-07
1.16545e-06
2.22421e-07
8.43106e-07
-2.10939e-07
-8.43236e-07
2.09487e-07
-0.00026228
1.19688e-06
1.16392e-06
-2.1106e-07
-2.16236e-07
0.000260346
8.26962e-10
8.60059e-10
-0.00106587
-8.41104e-10
-8.6953e-10
0.00106587
-0.00106652
-1.16911e-06
-8.85106e-10
1.45821e-09
0.00106652
-2.23073e-07
1.17078e-06
2.22418e-07
8.43274e-07
-2.08318e-07
-8.43362e-07
2.06831e-07
-0.00106619
-1.1638e-06
-9.07147e-10
1.47553e-09
0.00106619
-2.23069e-07
1.16544e-06
2.2242e-07
8.43106e-07
-2.10939e-07
-8.43236e-07
2.09487e-07
-0.00026228
1.19688e-06
1.16392e-06
-2.1106e-07
-2.16236e-07
0.000260346
8.32079e-10
8.53321e-10
-0.00106587
-8.35981e-10
-8.73166e-10
0.00106587
-0.00106652
-1.16911e-06
-8.81801e-10
1.45622e-09
0.00106652
-2.23071e-07
1.17077e-06
2.22414e-07
8.43269e-07
-2.08319e-07
-8.43363e-07
2.06824e-07
-0.00106619
-1.1638e-06
-9.01547e-10
1.4794e-09
0.00106619
-2.23071e-07
1.16544e-06
2.22419e-07
8.43104e-07
-2.10943e-07
-8.43238e-07
2.09487e-07
-0.00026228
1.19689e-06
1.16392e-06
-2.11062e-07
-2.1624e-07
0.000260346
8.77476e-10
8.4384e-10
-0.00106587
-8.20802e-10
-9.07704e-10
0.00106587
-0.00106652
-1.16909e-06
-9.42155e-10
1.41318e-09
0.00106652
-2.23047e-07
1.17077e-06
2.22408e-07
8.43268e-07
-2.08289e-07
-8.43339e-07
2.06814e-07
-0.00106619
-1.1638e-06
-9.15437e-10
1.49847e-09
0.00106619
-2.23062e-07
1.16543e-06
2.22409e-07
8.43099e-07
-2.10917e-07
-8.43219e-07
2.09476e-07
-0.00026228
1.19688e-06
1.16391e-06
-2.11051e-07
-2.16236e-07
0.000260346
1.02666e-09
-0.00106587
-1.06267e-09
-0.00106619
-1.16376e-06
-1.17494e-09
-2.23012e-07
1.16543e-06
2.22408e-07
-2.10793e-07
2.09527e-07
-1.20378e-06
-1.16816e-06
0.000262295
-0.000260351
2.10229e-07
2.17882e-07
0.00106576
-1.11007e-09
1.41033e-09
-1.20204e-06
2.27725e-07
-2.28289e-07
-8.43145e-07
2.06832e-07
-2.08064e-07
8.43235e-07
1.20914e-06
0.00106619
-1.02019e-09
1.3854e-09
-1.20739e-06
2.30485e-07
-2.31035e-07
-8.48664e-07
2.09573e-07
-2.10859e-07
8.48717e-07
-1.17077e-06
0.000262324
-0.000260372
2.12943e-07
2.15239e-07
0.00106679
-1.20213e-09
1.4115e-09
-1.16645e-06
2.25169e-07
-2.25718e-07
-8.45855e-07
2.09635e-07
-2.10822e-07
8.46022e-07
1.20386e-06
0.00106587
-1.15894e-09
-0.00106587
1.31035e-09
-1.20208e-06
2.30508e-07
-2.30992e-07
-8.4581e-07
2.09638e-07
-2.10712e-07
8.45946e-07
-1.2376e-09
1.41047e-09
-1.16903e-06
2.22417e-07
-2.22961e-07
-8.43174e-07
2.06937e-07
8.4333e-07
-2.08092e-07
1.19856e-06
0.00106567
-1.20101e-09
-0.00106567
1.31513e-09
-1.19677e-06
2.25059e-07
-2.25515e-07
-8.43156e-07
2.06913e-07
-2.07982e-07
8.43298e-07
-1.16548e-06
0.000262274
-0.000260333
2.1045e-07
2.17744e-07
-1.3357e-09
-0.00106619
1.31344e-09
-1.1637e-06
2.22472e-07
-2.22923e-07
-8.42978e-07
2.09643e-07
8.43248e-07
-2.10659e-07
1.16558e-06
0.00106669
-1.17678e-09
-0.00106669
1.28698e-09
-1.16381e-06
2.22516e-07
-2.22986e-07
-8.43269e-07
2.09687e-07
-2.10744e-07
8.43455e-07
-0.000260346
2.12753e-07
2.17954e-07
1.20202e-06
1.16643e-06
-2.08462e-07
-2.16075e-07
0.000260351
-1.20395e-06
-1.1684e-06
0.000262294
-0.000260351
2.10493e-07
2.18095e-07
1.35839e-09
0.00106576
-2.2826e-07
1.2038e-06
2.27769e-07
8.43284e-07
-2.07973e-07
-8.43117e-07
2.06924e-07
-1.20737e-06
-1.12339e-09
1.33873e-09
0.00106618
-2.31007e-07
1.20916e-06
2.30528e-07
8.48775e-07
-2.10765e-07
-8.48627e-07
2.09673e-07
0.00106575
-1.82852e-09
-0.00106575
1.10688e-09
-1.20194e-06
2.27958e-07
-2.28155e-07
-8.43024e-07
2.07177e-07
-2.07814e-07
8.43469e-07
1.2093e-06
0.00106618
-1.7611e-09
-0.00106618
1.14615e-09
-1.2073e-06
2.30703e-07
-2.30914e-07
-8.48541e-07
2.09923e-07
-2.10605e-07
8.48954e-07
-2.11147e-07
-2.13411e-07
0.000260372
-1.171e-06
0.000262323
-0.000260371
2.13207e-07
2.15428e-07
1.36806e-09
0.00106679
-2.25688e-07
1.16819e-06
2.25214e-07
8.46067e-07
-2.10737e-07
-8.45819e-07
2.09721e-07
-1.20205e-06
-1.31025e-09
1.25191e-09
0.00106586
-2.30939e-07
1.20387e-06
2.3055e-07
8.45966e-07
-2.10629e-07
-8.45761e-07
2.09713e-07
0.00106678
-1.62068e-09
-0.00106678
8.12727e-10
-1.1663e-06
2.25457e-07
-2.25534e-07
-8.45797e-07
2.09916e-07
-2.10625e-07
8.46178e-07
1.20387e-06
0.00106586
-1.34475e-09
-0.00106586
1.51562e-09
-1.20201e-06
2.30548e-07
-2.30897e-07
-8.45717e-07
2.09797e-07
-2.10515e-07
8.45964e-07
-1.35056e-09
1.24764e-09
0.00106566
-2.25464e-07
1.19857e-06
2.25101e-07
8.43317e-07
-2.07896e-07
2.06992e-07
-8.43107e-07
-1.53662e-09
-0.00106652
8.17186e-10
-1.16888e-06
2.22693e-07
-2.22783e-07
-8.43105e-07
2.0716e-07
8.43428e-07
-2.07914e-07
1.19858e-06
0.00106566
-1.31011e-09
-0.00106566
1.48816e-09
-1.1967e-06
2.25112e-07
-2.25408e-07
-8.43085e-07
2.07046e-07
-2.07805e-07
8.43289e-07
-2.08572e-07
-2.1585e-07
0.000260333
-1.16555e-06
0.000262273
-0.000260332
2.10574e-07
2.17811e-07
-1.3169e-09
1.22151e-09
0.00106669
-2.22933e-07
1.16559e-06
2.22562e-07
8.43468e-07
-2.1066e-07
2.09761e-07
-8.43223e-07
-1.1989e-09
-0.00106619
1.19636e-09
-1.16358e-06
2.22574e-07
-2.22775e-07
-8.42948e-07
2.09735e-07
8.43191e-07
-2.10518e-07
1.16564e-06
0.00106669
-1.07471e-09
-0.00106669
1.20866e-09
-1.1637e-06
2.22614e-07
-2.22839e-07
-8.43231e-07
2.09783e-07
-2.10598e-07
8.43405e-07
-0.000260345
2.12869e-07
2.18031e-07
1.20194e-06
1.16627e-06
-2.08244e-07
-2.15917e-07
0.00026035
-1.20361e-06
-1.16799e-06
0.000262295
-0.000260351
2.09939e-07
2.17594e-07
1.30797e-09
0.00106575
-2.28132e-07
1.20385e-06
2.2786e-07
8.43291e-07
-2.07771e-07
-8.43033e-07
2.07088e-07
-1.20732e-06
-1.49816e-09
1.38202e-09
0.00106618
-2.30904e-07
1.20917e-06
2.30589e-07
8.48794e-07
-2.10557e-07
-8.48535e-07
2.09847e-07
0.00106576
6.32301e-11
-0.00106575
1.92229e-09
-1.20234e-06
2.27459e-07
-2.2873e-07
-8.43577e-07
2.06161e-07
-2.08918e-07
8.43013e-07
1.20897e-06
0.00106618
1.17177e-10
-0.00106618
1.90698e-09
-1.20769e-06
2.30219e-07
-2.31478e-07
-8.49081e-07
2.08913e-07
-2.11703e-07
8.48507e-07
-2.10925e-07
-2.13292e-07
0.000260371
-1.17059e-06
0.000262323
-0.000260371
2.12651e-07
2.14949e-07
8.71797e-10
0.00106678
-2.25492e-07
1.16832e-06
2.25381e-07
8.45968e-07
-2.10614e-07
-8.45836e-07
2.09801e-07
-1.20225e-06
-5.79456e-10
2.09377e-09
0.00106586
-2.31198e-07
1.20361e-06
2.3019e-07
8.45622e-07
-2.10853e-07
-8.46064e-07
2.09314e-07
0.00106679
6.28621e-12
-0.00106679
1.93289e-09
-1.16674e-06
2.24901e-07
-2.26149e-07
-8.46297e-07
2.08966e-07
-2.11686e-07
8.45799e-07
1.20372e-06
0.00106587
-1.82946e-10
-0.00106586
1.70016e-09
-1.20232e-06
2.30324e-07
-2.31329e-07
-8.46141e-07
2.09138e-07
-2.11444e-07
8.45756e-07
-4.96123e-10
2.01892e-09
0.00106566
-2.25712e-07
1.19832e-06
2.24754e-07
8.42927e-07
-2.08158e-07
2.06549e-07
-8.43452e-07
-5.31774e-11
-0.00106652
1.93781e-09
-1.16933e-06
2.22141e-07
-2.23403e-07
-8.43559e-07
2.06264e-07
8.43117e-07
-2.08955e-07
1.19842e-06
0.00106567
-2.16547e-10
-0.00106566
1.7223e-09
-1.19702e-06
2.24876e-07
-2.25852e-07
-8.43485e-07
2.06406e-07
-2.08723e-07
8.43111e-07
-2.08698e-07
-2.16036e-07
0.000260332
-1.16535e-06
0.000262274
-0.000260333
2.10236e-07
2.17524e-07
-1.51922e-10
1.63305e-09
0.00106669
-2.23131e-07
1.1654e-06
2.22266e-07
8.43018e-07
-2.10971e-07
2.09267e-07
-8.43622e-07
-3.33828e-10
-0.00106619
1.70571e-09
-1.16393e-06
2.22294e-07
-2.23246e-07
-8.43319e-07
2.0913e-07
8.43057e-07
-2.11412e-07
1.16544e-06
0.00106669
-1.47389e-10
-0.00106669
1.69265e-09
-1.16406e-06
2.22335e-07
-2.23313e-07
-8.43613e-07
2.09177e-07
-2.11493e-07
8.43262e-07
-0.000260346
2.12535e-07
2.17735e-07
1.20227e-06
1.16669e-06
-2.0879e-07
-2.16391e-07
0.000260351
-1.20376e-06
-1.16814e-06
0.000262295
-0.000260351
2.10173e-07
2.17833e-07
1.77394e-09
0.00106576
-2.28603e-07
1.20367e-06
2.27582e-07
8.43089e-07
-2.08735e-07
-8.4346e-07
2.06403e-07
-1.20761e-06
-5.32881e-11
1.73857e-09
0.00106619
-2.31347e-07
1.20904e-06
2.30343e-07
8.48577e-07
-2.11522e-07
-8.48969e-07
2.09155e-07
0.00106576
-6.88107e-10
-0.00106576
1.55815e-09
-1.20215e-06
2.27705e-07
-2.28424e-07
-8.43354e-07
2.06714e-07
-2.08311e-07
8.43167e-07
1.20912e-06
0.00106619
-5.90747e-10
-0.00106619
1.53353e-09
-1.2075e-06
2.30462e-07
-2.31172e-07
-8.48875e-07
2.09455e-07
-2.11108e-07
8.48648e-07
-2.11473e-07
-2.13721e-07
0.000260372
-1.17075e-06
0.000262324
-0.000260372
2.12887e-07
2.15185e-07
1.84254e-09
0.00106679
-2.26044e-07
1.16804e-06
2.25011e-07
8.45894e-07
-2.11479e-07
-8.46147e-07
2.09228e-07
-1.20226e-06
-4.11316e-10
1.5577e-09
0.00106587
-2.31222e-07
1.20377e-06
2.304e-07
8.45783e-07
-2.11231e-07
-8.46101e-07
2.09311e-07
0.00106679
-8.0128e-10
-0.00106679
1.58064e-09
-1.16657e-06
2.25142e-07
-2.25861e-07
-8.46065e-07
2.09521e-07
-2.11064e-07
8.45952e-07
1.20382e-06
0.00106587
-7.18455e-10
-0.00106587
1.46291e-09
-1.20218e-06
2.30456e-07
-2.31136e-07
-8.46034e-07
2.09451e-07
-2.1102e-07
8.45844e-07
-4.6594e-10
1.55866e-09
0.00106567
-2.25747e-07
1.19848e-06
2.24955e-07
8.43141e-07
-2.08498e-07
2.06588e-07
-8.4344e-07
-8.44223e-10
-0.00106652
1.57523e-09
-1.16914e-06
2.22389e-07
-2.23104e-07
-8.43377e-07
2.06815e-07
8.4326e-07
-2.08337e-07
1.19853e-06
0.00106567
-7.64245e-10
-0.00106567
1.45958e-09
-1.19688e-06
2.25012e-07
-2.25658e-07
-8.4338e-07
2.06722e-07
-2.08295e-07
8.43196e-07
-2.08848e-07
-2.1612e-07
0.000260333
-1.16543e-06
0.000262275
-0.000260333
2.10358e-07
2.17665e-07
-4.5668e-10
1.5846e-09
0.00106669
-2.23226e-07
1.16548e-06
2.22401e-07
8.43307e-07
-2.11258e-07
2.09368e-07
-8.43548e-07
-9.58281e-10
-0.00106619
1.50685e-09
-1.16382e-06
2.2241e-07
-2.23078e-07
-8.43193e-07
2.09464e-07
8.4316e-07
-2.10961e-07
1.16553e-06
0.00106669
-7.82629e-10
-0.00106669
1.47638e-09
-1.16394e-06
2.22455e-07
-2.23143e-07
-8.43486e-07
2.09505e-07
-2.11048e-07
8.43362e-07
-0.000260346
2.12663e-07
2.17878e-07
1.20214e-06
1.16655e-06
-2.086e-07
-2.16207e-07
0.000260351
-1.20377e-06
-1.16816e-06
0.000262295
-0.000260351
2.10197e-07
2.17847e-07
1.53762e-09
0.00106576
-2.28415e-07
1.20376e-06
2.27712e-07
8.4318e-07
-2.08293e-07
-8.43343e-07
2.06729e-07
-1.20749e-06
-6.55124e-10
1.51856e-09
0.00106619
-2.31165e-07
1.20912e-06
2.30468e-07
8.48668e-07
-2.11084e-07
-8.48856e-07
2.0948e-07
0.00106576
-8.11483e-10
-0.00106576
1.52466e-09
-1.20213e-06
2.27716e-07
-2.28408e-07
-8.4332e-07
2.06745e-07
-2.08268e-07
8.43194e-07
1.20913e-06
0.00106619
-7.19274e-10
-0.00106619
1.51147e-09
-1.20749e-06
2.30472e-07
-2.31159e-07
-8.48839e-07
2.09488e-07
-2.11063e-07
8.48679e-07
-2.11286e-07
-2.13549e-07
0.000260372
-1.17077e-06
0.000262324
-0.000260372
2.12912e-07
2.15194e-07
1.55278e-09
0.00106679
-2.25849e-07
1.16815e-06
2.25151e-07
8.45966e-07
-2.11053e-07
-8.46047e-07
2.09533e-07
-1.20218e-06
-7.50858e-10
1.46424e-09
0.00106587
-2.31134e-07
1.20383e-06
2.3046e-07
8.45857e-07
-2.11013e-07
-8.46021e-07
2.09462e-07
0.00106679
-8.83492e-10
-0.00106679
1.51032e-09
-1.16654e-06
2.25163e-07
-2.25833e-07
-8.46044e-07
2.09542e-07
-2.11033e-07
8.45969e-07
1.20384e-06
0.00106587
-7.6649e-10
-0.00106587
1.44485e-09
-1.20216e-06
2.30468e-07
-2.31121e-07
-8.46012e-07
2.09463e-07
-2.11001e-07
8.45858e-07
-7.94636e-10
1.44847e-09
0.00106567
-2.25656e-07
1.19853e-06
2.25016e-07
8.4321e-07
-2.08282e-07
2.06736e-07
-8.43365e-07
-9.05883e-10
-0.00106652
1.5018e-09
-1.16912e-06
2.22412e-07
-2.23075e-07
-8.4336e-07
2.06828e-07
8.43272e-07
-2.08315e-07
1.19854e-06
0.00106567
-7.96033e-10
-0.00106567
1.44061e-09
-1.19686e-06
2.25023e-07
-2.25644e-07
-8.43365e-07
2.0673e-07
-2.08281e-07
8.43206e-07
-2.08755e-07
-2.16014e-07
0.000260333
-1.16543e-06
0.000262275
-0.000260333
2.1036e-07
2.17688e-07
-8.21644e-10
1.46656e-09
0.00106669
-2.23141e-07
1.16554e-06
2.22459e-07
8.4338e-07
-2.11033e-07
2.09523e-07
-8.43467e-07
-1.0845e-09
-0.00106619
1.51482e-09
-1.16381e-06
2.22406e-07
-2.23075e-07
-8.43129e-07
2.09505e-07
8.43218e-07
-2.10911e-07
1.16553e-06
0.00106669
-8.88738e-10
-0.00106669
1.50092e-09
-1.16393e-06
2.2245e-07
-2.23141e-07
-8.43438e-07
2.09538e-07
-2.11011e-07
8.43405e-07
-0.000260346
2.12662e-07
2.17897e-07
1.20213e-06
1.16654e-06
-2.08584e-07
-2.16198e-07
0.000260351
-1.20377e-06
-1.16816e-06
0.000262295
-0.000260351
2.10199e-07
2.17846e-07
1.52372e-09
0.00106576
-2.28408e-07
1.20377e-06
2.27717e-07
8.43194e-07
-2.08274e-07
-8.43325e-07
2.06743e-07
-1.20749e-06
-7.24089e-10
1.51131e-09
0.00106619
-2.3116e-07
1.20913e-06
2.30472e-07
8.48684e-07
-2.11064e-07
-8.48835e-07
2.09495e-07
0.00106576
-8.3071e-10
-0.00106576
1.52607e-09
-1.20213e-06
2.27716e-07
-2.28409e-07
-8.43317e-07
2.06748e-07
-2.08265e-07
8.43197e-07
1.20912e-06
0.00106619
-7.33791e-10
-0.00106619
1.51888e-09
-1.20749e-06
2.30469e-07
-2.31161e-07
-8.48837e-07
2.0949e-07
-2.11062e-07
8.4868e-07
-2.11267e-07
-2.13543e-07
0.000260372
-1.17077e-06
0.000262324
-0.000260372
2.12913e-07
2.1519e-07
1.51255e-09
0.00106679
-2.25835e-07
1.16816e-06
2.25163e-07
8.45973e-07
-2.11042e-07
-8.46036e-07
2.09541e-07
-1.20216e-06
-7.65632e-10
1.45396e-09
0.00106587
-2.31122e-07
1.20384e-06
2.30469e-07
8.45862e-07
-2.11006e-07
-8.46012e-07
2.09466e-07
0.00106679
-8.80069e-10
-0.00106679
1.48981e-09
-1.16654e-06
2.25166e-07
-2.25831e-07
-8.46046e-07
2.09541e-07
-2.11035e-07
8.45968e-07
1.20383e-06
0.00106587
-7.81493e-10
-0.00106587
1.48841e-09
-1.20218e-06
2.30457e-07
-2.31133e-07
-8.4601e-07
2.09466e-07
-2.11002e-07
8.45864e-07
-7.96236e-10
1.43369e-09
0.00106567
-2.25644e-07
1.19855e-06
2.25026e-07
8.43213e-07
-2.08278e-07
2.06739e-07
-8.43359e-07
-8.9009e-10
-0.00106652
1.48784e-09
-1.16912e-06
2.22412e-07
-2.23075e-07
-8.43365e-07
2.06825e-07
8.43268e-07
-2.08319e-07
1.19853e-06
0.00106567
-7.99259e-10
-0.00106567
1.47057e-09
-1.19686e-06
2.25017e-07
-2.2565e-07
-8.43366e-07
2.06729e-07
-2.08284e-07
8.43207e-07
-2.08755e-07
-2.15994e-07
0.000260333
-1.16544e-06
0.000262275
-0.000260333
2.10366e-07
2.1767e-07
-9.18864e-10
1.50267e-09
0.00106669
-2.23146e-07
1.16553e-06
2.2245e-07
8.43421e-07
-2.10998e-07
2.09555e-07
-8.43423e-07
-1.00637e-09
-0.00106619
1.52271e-09
-1.16381e-06
2.22409e-07
-2.2308e-07
-8.43165e-07
2.09483e-07
8.43183e-07
-2.10939e-07
1.16553e-06
0.00106669
-8.43859e-10
-0.00106669
1.48721e-09
-1.16394e-06
2.22449e-07
-2.23148e-07
-8.43447e-07
2.09525e-07
-2.11018e-07
8.43388e-07
-0.000260346
2.12665e-07
2.17886e-07
1.20213e-06
1.16654e-06
-2.08583e-07
-2.162e-07
0.000260351
-1.20377e-06
-1.16817e-06
0.000262295
-0.000260351
2.10202e-07
2.17846e-07
1.52442e-09
0.00106576
-2.2841e-07
1.20377e-06
2.27717e-07
8.43197e-07
-2.08272e-07
-8.43323e-07
2.06746e-07
-1.20749e-06
-7.42865e-10
1.51603e-09
0.00106619
-2.31162e-07
1.20912e-06
2.30471e-07
8.48687e-07
-2.11063e-07
-8.48834e-07
2.09498e-07
0.00106576
-8.49431e-10
-0.00106576
1.52739e-09
-1.20213e-06
2.27716e-07
-2.28409e-07
-8.43315e-07
2.06751e-07
-2.08263e-07
8.43201e-07
1.20912e-06
0.00106619
-7.56448e-10
-0.00106619
1.5176e-09
-1.20749e-06
2.30471e-07
-2.31161e-07
-8.48834e-07
2.09494e-07
-2.11058e-07
8.48685e-07
-2.11268e-07
-2.13547e-07
0.000260372
-1.17077e-06
0.000262324
-0.000260372
2.12917e-07
2.15191e-07
1.48923e-09
0.00106679
-2.25833e-07
1.16816e-06
2.25166e-07
8.45972e-07
-2.11043e-07
-8.46039e-07
2.09541e-07
-1.20218e-06
-7.91505e-10
1.50425e-09
0.00106587
-2.31138e-07
1.20382e-06
2.30455e-07
8.45869e-07
-2.11004e-07
-8.46008e-07
2.09471e-07
0.00106679
-8.79198e-10
-0.00106679
1.46949e-09
-1.16653e-06
2.2517e-07
-2.25828e-07
-8.46047e-07
2.09541e-07
-2.11035e-07
8.45968e-07
1.20382e-06
0.00106587
-7.99967e-10
-0.00106587
1.52555e-09
-1.20219e-06
2.30447e-07
-2.31144e-07
-8.46005e-07
2.09471e-07
-2.10997e-07
8.45868e-07
-8.19993e-10
1.47558e-09
0.00106567
-2.25657e-07
1.19853e-06
2.25015e-07
8.43217e-07
-2.0828e-07
2.06741e-07
-8.43359e-07
-8.91357e-10
-0.00106652
1.46334e-09
-1.16911e-06
2.22417e-07
-2.23071e-07
-8.43364e-07
2.06826e-07
8.43269e-07
-2.08318e-07
1.19852e-06
0.00106567
-8.24204e-10
-0.00106567
1.51315e-09
-1.19688e-06
2.25005e-07
-2.25662e-07
-8.4336e-07
2.06736e-07
-2.08278e-07
8.43214e-07
-2.0875e-07
-2.16016e-07
0.000260333
-1.16545e-06
0.000262275
-0.000260333
2.10373e-07
2.17659e-07
-8.12464e-10
1.47036e-09
0.00106669
-2.23147e-07
1.16554e-06
2.22456e-07
8.43372e-07
-2.11027e-07
2.09523e-07
-8.43459e-07
-9.28269e-10
-0.00106619
1.47697e-09
-1.1638e-06
2.22419e-07
-2.23068e-07
-8.43189e-07
2.09462e-07
8.43154e-07
-2.10956e-07
1.16554e-06
0.00106669
-7.41965e-10
-0.00106669
1.45203e-09
-1.16392e-06
2.22462e-07
-2.23135e-07
-8.43488e-07
2.09501e-07
-2.11045e-07
8.43355e-07
-0.000260346
2.12675e-07
2.17873e-07
1.20213e-06
1.16653e-06
-2.0858e-07
-2.16201e-07
0.000260351
-1.20377e-06
-1.16817e-06
0.000262295
-0.000260351
2.10201e-07
2.17844e-07
1.52818e-09
0.00106576
-2.2841e-07
1.20377e-06
2.27716e-07
8.43199e-07
-2.08271e-07
-8.43322e-07
2.06747e-07
-1.20749e-06
-7.57087e-10
1.51655e-09
0.00106619
-2.31162e-07
1.20912e-06
2.30471e-07
8.4869e-07
-2.1106e-07
-8.48832e-07
2.095e-07
0.00106576
-8.47022e-10
-0.00106576
1.53292e-09
-1.20214e-06
2.27715e-07
-2.28411e-07
-8.43316e-07
2.06749e-07
-2.08265e-07
8.43199e-07
1.20912e-06
0.00106619
-7.53082e-10
-0.00106619
1.52075e-09
-1.20749e-06
2.30469e-07
-2.31162e-07
-8.48836e-07
2.09493e-07
-2.1106e-07
8.48683e-07
-2.11265e-07
-2.13546e-07
0.000260372
-1.17077e-06
0.000262324
-0.000260372
2.12916e-07
2.1519e-07
1.47561e-09
0.00106679
-2.25831e-07
1.16817e-06
2.25168e-07
8.45971e-07
-2.11045e-07
-8.4604e-07
2.09539e-07
-1.20219e-06
-7.99412e-10
1.53598e-09
0.00106587
-2.31147e-07
1.20382e-06
2.30446e-07
8.45871e-07
-2.11001e-07
-8.46006e-07
2.09474e-07
0.00106679
-8.68834e-10
-0.00106679
1.46784e-09
-1.16653e-06
2.2517e-07
-2.25828e-07
-8.4605e-07
2.09538e-07
-2.11039e-07
8.45965e-07
1.20381e-06
0.00106587
-7.9315e-10
-0.00106587
1.53748e-09
-1.2022e-06
2.30442e-07
-2.31149e-07
-8.46007e-07
2.0947e-07
-2.10998e-07
8.45867e-07
-8.30804e-10
1.51119e-09
0.00106567
-2.25668e-07
1.19852e-06
2.25005e-07
8.43221e-07
-2.08275e-07
2.06746e-07
-8.43354e-07
-8.85933e-10
-0.00106652
1.4608e-09
-1.16911e-06
2.22417e-07
-2.23071e-07
-8.43367e-07
2.06824e-07
8.43267e-07
-2.08321e-07
1.19852e-06
0.00106567
-8.24408e-10
-0.00106567
1.525e-09
-1.19688e-06
2.25001e-07
-2.25668e-07
-8.4336e-07
2.06736e-07
-2.08278e-07
8.43214e-07
-2.08744e-07
-2.16027e-07
0.000260333
-1.16544e-06
0.000262275
-0.000260333
2.10372e-07
2.17656e-07
-7.74161e-10
1.44556e-09
0.00106669
-2.23137e-07
1.16554e-06
2.22464e-07
8.43367e-07
-2.1104e-07
2.09516e-07
-8.43471e-07
-9.14215e-10
-0.00106619
1.47611e-09
-1.1638e-06
2.2242e-07
-2.23068e-07
-8.43193e-07
2.09458e-07
8.43153e-07
-2.10962e-07
1.16554e-06
0.00106669
-7.38584e-10
-0.00106669
1.44924e-09
-1.16392e-06
2.22463e-07
-2.23134e-07
-8.43487e-07
2.09499e-07
-2.11049e-07
8.43355e-07
-0.000260346
2.12674e-07
2.17871e-07
1.20214e-06
1.16653e-06
-2.08581e-07
-2.16202e-07
0.000260351
-1.20377e-06
-1.16817e-06
0.000262295
-0.000260351
2.10202e-07
2.17844e-07
1.53109e-09
0.00106576
-2.28411e-07
1.20377e-06
2.27715e-07
8.43198e-07
-2.08272e-07
-8.43323e-07
2.06747e-07
-1.20749e-06
-7.57921e-10
1.51825e-09
0.00106619
-2.31164e-07
1.20912e-06
2.3047e-07
8.48689e-07
-2.11061e-07
-8.48833e-07
2.095e-07
0.00106576
-8.48861e-10
-0.00106576
1.53218e-09
-1.20214e-06
2.27715e-07
-2.28411e-07
-8.43316e-07
2.0675e-07
-2.08264e-07
8.432e-07
1.20912e-06
0.00106619
-7.56749e-10
-0.00106619
1.52281e-09
-1.20749e-06
2.30468e-07
-2.31164e-07
-8.48835e-07
2.09494e-07
-2.11059e-07
8.48685e-07
-2.11265e-07
-2.13548e-07
0.000260372
-1.17077e-06
0.000262324
-0.000260372
2.12916e-07
2.15189e-07
1.4736e-09
0.00106679
-2.2583e-07
1.16817e-06
2.25169e-07
8.45969e-07
-2.11047e-07
-8.46043e-07
2.09538e-07
-1.2022e-06
-7.98405e-10
1.54347e-09
0.00106587
-2.31151e-07
1.20381e-06
2.30443e-07
8.45871e-07
-2.11001e-07
-8.46007e-07
2.09474e-07
0.00106679
-8.72759e-10
-0.00106679
1.46753e-09
-1.16653e-06
2.2517e-07
-2.25828e-07
-8.46049e-07
2.09539e-07
-2.11038e-07
8.45966e-07
1.20381e-06
0.00106587
-8.01419e-10
-0.00106587
1.53622e-09
-1.2022e-06
2.30443e-07
-2.31148e-07
-8.46005e-07
2.09473e-07
-2.10996e-07
8.45869e-07
-8.3381e-10
1.51736e-09
0.00106567
-2.2567e-07
1.19852e-06
2.25003e-07
8.43222e-07
-2.08274e-07
2.06746e-07
-8.43354e-07
-8.83941e-10
-0.00106652
1.45901e-09
-1.16911e-06
2.22417e-07
-2.23071e-07
-8.43367e-07
2.06824e-07
8.43267e-07
-2.08321e-07
1.19852e-06
0.00106567
-8.25751e-10
-0.00106567
1.52341e-09
-1.19688e-06
2.25002e-07
-2.25668e-07
-8.4336e-07
2.06737e-07
-2.08277e-07
8.43215e-07
-2.08745e-07
-2.16029e-07
0.000260333
-1.16545e-06
0.000262275
-0.000260333
2.10375e-07
2.17657e-07
-7.56989e-10
1.44137e-09
0.00106669
-2.23135e-07
1.16554e-06
2.22466e-07
8.43363e-07
-2.11043e-07
2.09511e-07
-8.43471e-07
-9.17945e-10
-0.00106619
1.47015e-09
-1.1638e-06
2.22423e-07
-2.23065e-07
-8.43192e-07
2.09458e-07
8.43153e-07
-2.10962e-07
1.16554e-06
0.00106669
-7.5092e-10
-0.00106669
1.44747e-09
-1.16392e-06
2.22465e-07
-2.23133e-07
-8.43479e-07
2.09501e-07
-2.11046e-07
8.43357e-07
-0.000260346
2.12675e-07
2.17872e-07
1.20213e-06
1.16653e-06
-2.0858e-07
-2.16202e-07
0.000260351
-1.20377e-06
-1.16817e-06
0.000262295
-0.000260351
2.10204e-07
2.17846e-07
1.52887e-09
0.00106576
-2.28411e-07
1.20377e-06
2.27716e-07
8.432e-07
-2.08271e-07
-8.43322e-07
2.06748e-07
-1.20749e-06
-7.5992e-10
1.52094e-09
0.00106619
-2.31164e-07
1.20912e-06
2.3047e-07
8.4869e-07
-2.1106e-07
-8.48832e-07
2.09501e-07
0.00106576
-8.56836e-10
-0.00106576
1.5269e-09
-1.20213e-06
2.27716e-07
-2.28409e-07
-8.43314e-07
2.06752e-07
-2.08262e-07
8.43202e-07
1.20912e-06
0.00106619
-7.62559e-10
-0.00106619
1.52133e-09
-1.20749e-06
2.3047e-07
-2.31162e-07
-8.48834e-07
2.09494e-07
-2.11058e-07
8.48685e-07
-2.11265e-07
-2.13548e-07
0.000260372
-1.17078e-06
0.000262324
-0.000260372
2.12917e-07
2.15191e-07
1.47209e-09
0.00106679
-2.2583e-07
1.16817e-06
2.2517e-07
8.45971e-07
-2.11046e-07
-8.46041e-07
2.09539e-07
-1.20219e-06
-8.05197e-10
1.54208e-09
0.00106587
-2.3115e-07
1.20381e-06
2.30445e-07
8.45873e-07
-2.10999e-07
-8.46005e-07
2.09476e-07
0.00106679
-8.80323e-10
-0.00106679
1.46159e-09
-1.16653e-06
2.25172e-07
-2.25826e-07
-8.46048e-07
2.0954e-07
-2.11036e-07
8.45967e-07
1.20381e-06
0.00106587
-8.04837e-10
-0.00106587
1.53584e-09
-1.20219e-06
2.30444e-07
-2.31147e-07
-8.46005e-07
2.09473e-07
-2.10995e-07
8.45869e-07
-8.33203e-10
1.51779e-09
0.00106567
-2.2567e-07
1.19852e-06
2.25003e-07
8.43222e-07
-2.08273e-07
2.06747e-07
-8.43354e-07
-8.84968e-10
-0.00106652
1.45645e-09
-1.16911e-06
2.22418e-07
-2.2307e-07
-8.43366e-07
2.06824e-07
8.43267e-07
-2.0832e-07
1.19852e-06
0.00106567
-8.24953e-10
-0.00106567
1.52477e-09
-1.19688e-06
2.25002e-07
-2.25668e-07
-8.4336e-07
2.06737e-07
-2.08276e-07
8.43214e-07
-2.08742e-07
-2.16028e-07
0.000260333
-1.16545e-06
0.000262275
-0.000260333
2.10374e-07
2.17657e-07
-7.54225e-10
1.44193e-09
0.00106669
-2.23134e-07
1.16554e-06
2.22466e-07
8.43364e-07
-2.11043e-07
2.09511e-07
-8.43475e-07
-9.17449e-10
-0.00106619
1.47028e-09
-1.1638e-06
2.22422e-07
-2.23065e-07
-8.43191e-07
2.09459e-07
8.43153e-07
-2.10961e-07
1.16554e-06
0.00106669
-7.48661e-10
-0.00106669
1.44983e-09
-1.16392e-06
2.22464e-07
-2.23133e-07
-8.43478e-07
2.095e-07
-2.11047e-07
8.43356e-07
-0.000260346
2.12675e-07
2.17871e-07
1.20213e-06
1.16653e-06
-2.08579e-07
-2.162e-07
0.000260351
-1.20377e-06
-1.16817e-06
0.000262295
-0.000260351
2.10204e-07
2.17846e-07
1.52584e-09
0.00106576
-2.2841e-07
1.20377e-06
2.27717e-07
8.432e-07
-2.0827e-07
-8.43321e-07
2.06749e-07