/*--------------------------------*- C++ -*----------------------------------*\
| =========                 |                                                 |
| \\      /  F ield         | OpenFOAM: The Open Source CFD Toolbox           |
|  \\    /   O peration     | Version:  2206                                  |
|   \\  /    A nd           | Website:  www.openfoam.com                      |
|    \\/     M anipulation  |                                                 |
\*---------------------------------------------------------------------------*/
FoamFile
{
    version     2.0;
    format      ascii;
    arch        "LSB;label=32;scalar=64";
    class       surfaceScalarField;
    location    "6.5";
    object      phi;
}
// * * * * * * * * * * * * * * * * * * * * * * * * * * * * * * * * * * * * * //

dimensions      [0 3 -1 0 0 0 0];

oriented        oriented;

internalField   nonuniform List<scalar> 
82717
(
1.06788e-09
1.06874e-09
-8.64384e-10
-8.61501e-10
0.00106186
-0.00106255
-1.1598e-06
-1.24738e-09
7.84549e-10
0.00106255
-2.1476e-07
1.16146e-06
2.14557e-07
8.31187e-07
-1.9602e-07
-8.30927e-07
1.95493e-07
-1.15453e-06
-1.08509e-09
1.00374e-09
0.00106221
-2.14795e-07
1.15609e-06
2.14447e-07
8.30985e-07
-1.98735e-07
-8.30836e-07
1.98044e-07
1.18748e-06
1.15464e-06
-2.058e-07
-2.10962e-07
0.000259389
1.79117e-11
2.01469e-10
-0.00106186
-5.20707e-10
-3.77848e-10
0.00106186
-0.00106254
-1.16009e-06
2.15896e-11
1.60014e-09
0.00106255
-2.1524e-07
1.16125e-06
2.1417e-07
8.30788e-07
-1.96847e-07
-8.31472e-07
1.94757e-07
-0.00106221
-1.15473e-06
-1.68257e-10
1.38872e-09
0.00106221
-2.15094e-07
1.15591e-06
2.14138e-07
8.30621e-07
-1.9917e-07
-8.31275e-07
1.97443e-07
-0.000261314
1.18767e-06
1.15485e-06
-2.06082e-07
-2.1122e-07
0.000259389
4.5085e-10
4.88344e-10
-0.00106187
-5.56341e-10
-5.57803e-10
0.00106187
-0.00106255
-1.15999e-06
-5.41232e-10
1.21424e-09
0.00106255
-2.15019e-07
1.16134e-06
2.1437e-07
8.31006e-07
-1.96446e-07
-8.31223e-07
1.95181e-07
-0.00106221
-1.15469e-06
-4.95264e-10
1.23787e-09
0.00106221
-2.1501e-07
1.15602e-06
2.14343e-07
8.30827e-07
-1.99078e-07
-8.31107e-07
1.97805e-07
-0.000261315
1.18765e-06
1.1548e-06
-2.05993e-07
-2.11157e-07
0.000259389
5.86936e-10
6.72838e-10
-0.00106187
-6.65766e-10
-6.30048e-10
0.00106187
-0.00106255
-1.16e-06
-6.4347e-10
1.23749e-09
0.00106255
-2.15035e-07
1.16134e-06
2.14372e-07
8.31045e-07
-1.96391e-07
-8.31179e-07
1.95226e-07
-0.00106221
-1.15465e-06
-6.6667e-10
1.1707e-09
0.00106221
-2.14966e-07
1.15605e-06
2.14377e-07
8.30869e-07
-1.99008e-07
-8.31059e-07
1.97854e-07
-0.000261315
1.18761e-06
1.15477e-06
-2.05946e-07
-2.11105e-07
0.000259389
5.96506e-10
6.7349e-10
-0.00106187
-6.59394e-10
-6.43658e-10
0.00106187
-0.00106255
-1.15995e-06
-6.71728e-10
1.1917e-09
0.00106255
-2.14971e-07
1.16135e-06
2.14366e-07
8.31041e-07
-1.96391e-07
-8.31181e-07
1.95221e-07
-0.00106221
-1.15465e-06
-6.71883e-10
1.16991e-09
0.00106221
-2.14965e-07
1.15605e-06
2.14376e-07
8.3087e-07
-1.99005e-07
-8.31056e-07
1.97856e-07
-0.000261315
1.18761e-06
1.15476e-06
-2.05944e-07
-2.11104e-07
0.000259389
5.82348e-10
6.81474e-10
-0.00106187
-6.59361e-10
-6.27662e-10
0.00106187
-0.00106255
-1.15995e-06
-6.80583e-10
1.2107e-09
0.00106255
-2.14977e-07
1.16135e-06
2.14363e-07
8.31046e-07
-1.96391e-07
-8.31178e-07
1.95223e-07
-0.00106221
-1.15465e-06
-6.94866e-10
1.1673e-09
0.00106221
-2.14963e-07
1.15605e-06
2.14379e-07
8.30875e-07
-1.99002e-07
-8.31053e-07
1.9786e-07
-0.000261315
1.1876e-06
1.15476e-06
-2.05943e-07
-2.11101e-07
0.000259389
4.5106e-10
6.74671e-10
-0.00106187
-6.34181e-10
-5.55622e-10
0.00106187
-0.00106255
-1.16e-06
-6.68736e-10
1.31626e-09
0.00106255
-2.15038e-07
1.1613e-06
2.14309e-07
8.31056e-07
-1.9639e-07
-8.31174e-07
1.9523e-07
-0.00106221
-1.15465e-06
-7.26654e-10
1.16799e-09
0.00106221
-2.14963e-07
1.15605e-06
2.14381e-07
8.3088e-07
-1.98997e-07
-8.31048e-07
1.97866e-07
-0.000261315
1.1876e-06
1.15476e-06
-2.05941e-07
-2.11096e-07
0.000259389
5.49041e-10
6.18832e-10
-0.00106187
-6.00322e-10
-5.94839e-10
0.00106187
-0.00106255
-1.15993e-06
-7.38971e-10
1.11925e-09
0.00106255
-2.14922e-07
1.16139e-06
2.14442e-07
8.3105e-07
-1.9637e-07
-8.31167e-07
1.95239e-07
-0.00106221
-1.15465e-06
-7.28408e-10
1.17575e-09
0.00106221
-2.14965e-07
1.15605e-06
2.14378e-07
8.3088e-07
-1.98996e-07
-8.31047e-07
1.97866e-07
-0.000261315
1.1876e-06
1.15476e-06
-2.05941e-07
-2.11098e-07
0.000259389
5.06863e-10
5.7559e-10
-0.00106186
-6.33623e-10
-6.65027e-10
0.00106186
-0.00106255
-1.15994e-06
-6.82351e-10
1.18695e-09
0.00106255
-2.17667e-07
1.16138e-06
2.17057e-07
8.31046e-07
-1.96422e-07
-8.3118e-07
1.95244e-07
-0.00106221
-1.15465e-06
-6.9075e-10
1.17301e-09
0.00106221
-2.14964e-07
1.15605e-06
2.14377e-07
8.30874e-07
-1.99e-07
-8.31051e-07
1.9786e-07
-0.000261315
1.1876e-06
1.15476e-06
-2.05939e-07
-2.11101e-07
0.000259389
6.44383e-10
6.60231e-10
-0.00106186
-6.49533e-10
-6.57203e-10
0.00106186
-0.00106255
-1.15994e-06
-6.70531e-10
1.17363e-09
0.00106255
-2.17686e-07
1.16135e-06
2.17094e-07
8.31041e-07
-1.96421e-07
-8.31183e-07
1.95242e-07
-0.00106221
-1.15465e-06
-6.71156e-10
1.17233e-09
0.00106221
-2.14966e-07
1.15605e-06
2.14376e-07
8.30871e-07
-1.99004e-07
-8.31055e-07
1.97857e-07
-0.000261315
1.18761e-06
1.15476e-06
-2.05942e-07
-2.11104e-07
0.000259389
6.394e-10
6.6114e-10
-0.00106186
-6.55877e-10
-6.56458e-10
0.00106186
-0.00106255
-1.15994e-06
-6.8029e-10
1.17458e-09
0.00106255
-2.17684e-07
1.16135e-06
2.17093e-07
8.31042e-07
-1.96418e-07
-8.31181e-07
1.95243e-07
-0.00106221
-1.15465e-06
-6.68863e-10
1.17244e-09
0.00106221
-2.14965e-07
1.15605e-06
2.14375e-07
8.30869e-07
-1.99005e-07
-8.31057e-07
1.97855e-07
-0.000261315
1.18761e-06
1.15476e-06
-2.05943e-07
-2.11104e-07
0.000259389
6.3456e-10
6.64607e-10
-0.00106186
-6.57982e-10
-6.53616e-10
0.00106186
-0.00106255
-1.15994e-06
-6.70316e-10
1.1807e-09
0.00106255
-2.17686e-07
1.16135e-06
2.17091e-07
8.3104e-07
-1.9642e-07
-8.31183e-07
1.95241e-07
-0.00106221
-1.15465e-06
-6.62154e-10
1.17307e-09
0.00106221
-2.14966e-07
1.15605e-06
2.14376e-07
8.30868e-07
-1.99007e-07
-8.31058e-07
1.97854e-07
-0.000261315
1.18761e-06
1.15476e-06
-2.05943e-07
-2.11106e-07
0.000259389
6.35767e-10
6.70068e-10
-0.00106186
-6.60833e-10
-6.54274e-10
0.00106186
-0.00106255
-1.15994e-06
-6.77734e-10
1.17484e-09
0.00106255
-2.17684e-07
1.16135e-06
2.17094e-07
8.31043e-07
-1.96419e-07
-8.31181e-07
1.95244e-07
-0.00106221
-1.15465e-06
-6.70805e-10
1.16663e-09
0.00106221
-2.14964e-07
1.15605e-06
2.14377e-07
8.3087e-07
-1.99005e-07
-8.31057e-07
1.97856e-07
-0.000261315
1.18761e-06
1.15476e-06
-2.05943e-07
-2.11105e-07
0.000259389
6.42681e-10
6.75221e-10
-0.00106186
-6.62613e-10
-6.57176e-10
0.00106186
-0.00106255
-1.15994e-06
-6.82323e-10
1.17475e-09
0.00106255
-2.17683e-07
1.16135e-06
2.17094e-07
8.31043e-07
-1.96417e-07
-8.3118e-07
1.95244e-07
-0.00106221
-1.15465e-06
-6.73022e-10
1.16811e-09
0.00106221
-2.14963e-07
1.15605e-06
2.14378e-07
8.3087e-07
-1.99004e-07
-8.31055e-07
1.97856e-07
-0.000261315
1.18761e-06
1.15476e-06
-2.05941e-07
-2.11103e-07
0.000259389
6.45204e-10
6.76503e-10
-0.00106186
-6.63714e-10
-6.58858e-10
0.00106186
-0.00106255
-1.15994e-06
-6.87245e-10
1.17061e-09
0.00106255
-2.17682e-07
1.16135e-06
2.17096e-07
8.31045e-07
-1.96416e-07
-8.31178e-07
1.95246e-07
-0.00106221
-1.15465e-06
-6.77435e-10
1.16432e-09
0.00106221
-2.14962e-07
1.15605e-06
2.1438e-07
8.30872e-07
-1.99003e-07
-8.31054e-07
1.97858e-07
-0.000261315
1.18761e-06
1.15476e-06
-2.05942e-07
-2.11103e-07
0.000259389
6.53986e-10
6.86755e-10
-0.00106186
-6.69976e-10
-6.62921e-10
0.00106186
-0.00106255
-1.15994e-06
-6.89252e-10
1.16834e-09
0.00106255
-2.17681e-07
1.16135e-06
2.17096e-07
8.31045e-07
-1.96415e-07
-8.31178e-07
1.95245e-07
-0.00106221
-1.15465e-06
-6.82647e-10
1.16012e-09
0.00106221
-2.14961e-07
1.15606e-06
2.1438e-07
8.30872e-07
-1.99002e-07
-8.31053e-07
1.97858e-07
-0.000261315
1.1876e-06
1.15476e-06
-2.0594e-07
-2.11101e-07
0.000259389
6.42544e-10
6.86135e-10
-0.00106186
-6.77745e-10
-6.60079e-10
0.00106186
-0.00106255
-1.15994e-06
-6.79778e-10
1.17507e-09
0.00106255
-2.17682e-07
1.16135e-06
2.17095e-07
8.31043e-07
-1.96417e-07
-8.31179e-07
1.95245e-07
-0.00106221
-1.15465e-06
-6.82361e-10
1.15733e-09
0.00106221
-2.14962e-07
1.15605e-06
2.14382e-07
8.30871e-07
-1.99006e-07
-8.31053e-07
1.97862e-07
-0.000261315
1.18761e-06
1.15476e-06
-2.05943e-07
-2.11102e-07
0.000259389
8.02904e-10
8.6375e-10
-0.00106186
-7.74271e-10
-7.34823e-10
0.00106186
-0.00106255
-1.1599e-06
-7.33444e-10
1.15521e-09
0.00106255
-2.17645e-07
1.16135e-06
2.17089e-07
8.31039e-07
-1.96364e-07
-8.31137e-07
1.95229e-07
-0.00106221
-1.15461e-06
-8.48097e-10
1.08049e-09
0.00106221
-2.14911e-07
1.15607e-06
2.14407e-07
8.30896e-07
-1.98933e-07
-8.30986e-07
1.97889e-07
-0.000261315
1.18756e-06
1.15473e-06
-2.05913e-07
-2.11058e-07
0.000259389
1.19959e-06
0.00106221
-1.19805e-06
2.22471e-07
-2.22845e-07
-8.36401e-07
1.98082e-07
-1.98836e-07
8.36583e-07
-1.16142e-06
0.000261358
-0.000259417
2.07666e-07
2.12418e-07
-1.15983e-06
2.14479e-07
-2.14813e-07
1.95376e-07
-1.9615e-07
1.19271e-06
1.15725e-06
-2.03321e-07
-2.08432e-07
0.000259394
-1.19421e-06
-1.15871e-06
0.000261332
-0.000259394
2.04836e-07
2.0998e-07
1.11904e-09
0.00106178
-2.22802e-07
1.19425e-06
2.22413e-07
8.31086e-07
-1.96089e-07
-8.30912e-07
1.95361e-07
-1.19801e-06
-1.21289e-09
-4.46348e-09
0.00106221
-2.2279e-07
1.19965e-06
2.2256e-07
8.36605e-07
-1.98698e-07
-8.36394e-07
1.98213e-07
0.00106178
-6.4491e-10
-0.00106178
9.62817e-10
-1.19272e-06
2.22342e-07
-2.22793e-07
-8.31129e-07
1.95216e-07
-1.96061e-07
8.30775e-07
1.19941e-06
0.00106221
5.11675e-11
-0.00106221
1.63867e-09
-1.19824e-06
2.22117e-07
-2.23161e-07
-8.36801e-07
1.97473e-07
-1.99251e-07
8.36185e-07
-2.05981e-07
-2.1077e-07
0.000259417
-1.16121e-06
0.000261358
-0.000259417
2.07334e-07
2.12156e-07
1.01196e-09
0.00106281
-2.17517e-07
1.1588e-06
2.17151e-07
8.33842e-07
-1.98822e-07
-8.33627e-07
1.9811e-07
-1.19276e-06
-1.02791e-09
1.0474e-09
0.00106189
-2.22835e-07
1.19431e-06
2.22452e-07
8.33751e-07
-1.98783e-07
-8.33583e-07
1.98045e-07
0.00106281
-8.52269e-10
-0.00106281
1.16618e-09
-1.1573e-06
2.17038e-07
-2.17553e-07
-8.33793e-07
1.97986e-07
-1.98761e-07
8.33567e-07
1.19423e-06
0.00106189
-7.10438e-10
-0.00106189
1.15541e-09
-1.1928e-06
2.22341e-07
-2.22858e-07
-8.33765e-07
1.9792e-07
-1.98729e-07
8.33465e-07
-1.03217e-09
1.06955e-09
0.00106169
-2.17387e-07
1.18903e-06
2.17019e-07
8.31109e-07
-1.96069e-07
1.95328e-07
-8.30946e-07
-3.53612e-10
-0.00106254
1.6676e-09
-1.16006e-06
2.14113e-07
-2.15149e-07
-8.31273e-07
1.94877e-07
8.30767e-07
-1.96451e-07
1.18897e-06
0.00106169
-6.3675e-10
-0.00106169
9.79157e-10
-1.1875e-06
2.16933e-07
-2.17389e-07
-8.31148e-07
1.95193e-07
-1.96023e-07
8.30811e-07
-2.03489e-07
-2.10757e-07
0.000259376
-1.15601e-06
0.000261309
-0.000259376
2.05013e-07
2.12277e-07
-1.046e-09
9.95675e-10
0.00106272
-2.14849e-07
1.15619e-06
2.14499e-07
8.28634e-07
-1.9615e-07
1.95425e-07
-8.28437e-07
-7.95233e-10
-0.00106221
1.11044e-09
-1.15456e-06
2.14339e-07
-2.14817e-07
-8.30966e-07
1.97899e-07
8.30754e-07
-1.98693e-07
1.1561e-06
0.00106272
-8.06531e-10
-0.00106272
1.14984e-09
-1.15469e-06
2.14381e-07
-2.14882e-07
-8.28607e-07
1.95308e-07
-1.96082e-07
8.2836e-07
-0.000259389
2.07304e-07
2.12499e-07
1.19289e-06
1.15747e-06
-2.03606e-07
-2.08683e-07
0.000259394
-1.19415e-06
-1.16132e-06
0.00026133
-0.000259394
2.07296e-07
2.12457e-07
1.33403e-09
0.00106178
-2.23078e-07
1.1941e-06
2.22131e-07
8.30697e-07
-1.96553e-07
-8.31392e-07
1.94746e-07
-1.1983e-06
1.53e-10
1.59484e-09
0.00106221
-2.23276e-07
1.19942e-06
2.22152e-07
8.3628e-07
-1.99599e-07
-8.36811e-07
1.9741e-07
0.00106178
-3.43248e-10
-0.00106178
1.37114e-09
-1.19291e-06
2.22272e-07
-2.23071e-07
-8.33829e-07
1.95068e-07
-1.99195e-07
8.30917e-07
1.19952e-06
0.00106221
-4.04873e-10
-0.00106221
1.26953e-09
-1.19821e-06
2.22354e-07
-2.23067e-07
-8.36678e-07
1.97829e-07
-1.99192e-07
8.36385e-07
-2.06379e-07
-2.11131e-07
0.000259417
-1.16133e-06
0.000261358
-0.000259417
2.07511e-07
2.12283e-07
1.45529e-09
0.00106281
-2.17835e-07
1.15861e-06
2.16872e-07
8.33479e-07
-1.99262e-07
-8.34066e-07
1.97509e-07
-1.19296e-06
-9.12773e-11
1.43472e-09
0.00106189
-2.23135e-07
1.19414e-06
2.2214e-07
8.3338e-07
-1.99215e-07
-8.34029e-07
1.97452e-07
0.0010628
-3.6741e-10
-0.0010628
1.30203e-09
-1.16006e-06
2.19735e-07
-2.20509e-07
-8.33925e-07
1.97802e-07
-1.99269e-07
8.33655e-07
1.19422e-06
0.00106189
-3.11992e-10
-0.00106189
1.33504e-09
-1.19296e-06
2.22309e-07
-2.23099e-07
-8.33878e-07
1.97746e-07
-1.99222e-07
8.33572e-07
-2.67538e-11
1.32423e-09
0.00106169
-2.17672e-07
1.18887e-06
2.16723e-07
8.30737e-07
-1.96516e-07
1.9472e-07
-8.31402e-07
-4.48457e-10
-0.00106255
1.22046e-09
-1.16001e-06
2.14353e-07
-2.15038e-07
-8.31237e-07
1.95141e-07
8.30985e-07
-1.96497e-07
1.18893e-06
0.00106169
-3.1207e-10
-0.00106169
1.36175e-09
-1.18768e-06
2.16874e-07
-2.17655e-07
-8.3124e-07
1.95026e-07
-1.96509e-07
8.30931e-07
-2.03762e-07
-2.11026e-07
0.000259376
-1.156e-06
0.00026131
-0.000259377
2.04962e-07
2.1222e-07
-1.61518e-10
1.42907e-09
0.00106272
-2.15161e-07
1.15601e-06
2.14181e-07
8.28273e-07
-1.9658e-07
1.94828e-07
-8.28872e-07
-3.77384e-10
-0.00106221
1.2848e-09
-1.15472e-06
2.14306e-07
-2.15058e-07
-8.31083e-07
1.9772e-07
8.30854e-07
-1.99193e-07
1.1561e-06
0.00106272
-3.48717e-10
-0.00106272
1.29774e-09
-1.15483e-06
2.14359e-07
-2.15115e-07
-8.28732e-07
1.95121e-07
-1.96589e-07
8.28452e-07
-0.000259389
2.07261e-07
2.12425e-07
1.19287e-06
1.16003e-06
-2.06027e-07
-2.11191e-07
0.000259394
-1.19422e-06
-1.16138e-06
0.00026133
-0.000259394
2.07361e-07
2.12534e-07
1.29465e-09
0.00106178
-2.23021e-07
1.19418e-06
2.22314e-07
8.33558e-07
-1.96449e-07
-8.31195e-07
1.97784e-07
-1.19819e-06
-4.69922e-10
1.26306e-09
0.00106221
-2.23045e-07
1.19954e-06
2.22373e-07
8.36405e-07
-1.99161e-07
-8.36657e-07
1.97852e-07
0.00106178
-5.93713e-10
-0.00106178
1.1815e-09
-1.19283e-06
2.22352e-07
-2.22971e-07
-8.33777e-07
1.97838e-07
-1.99042e-07
8.33598e-07
1.19954e-06
0.00106221
-4.42985e-10
-0.00106221
1.32468e-09
-1.19819e-06
2.22357e-07
-2.23061e-07
-8.36663e-07
1.97848e-07
-1.99173e-07
8.36402e-07
-2.0619e-07
-2.10967e-07
0.000259417
-1.16132e-06
0.000261359
-0.000259417
2.07491e-07
2.12325e-07
1.25023e-09
0.0010628
-2.20459e-07
1.16135e-06
2.19775e-07
8.33682e-07
-1.99174e-07
-8.33903e-07
1.97866e-07
-1.19293e-06
-4.43809e-10
1.287e-09
0.00106189
-2.23052e-07
1.19424e-06
2.22346e-07
8.33596e-07
-1.99125e-07
-8.33854e-07
1.97809e-07
0.0010628
-6.74425e-10
-0.0010628
1.18585e-09
-1.15999e-06
2.19802e-07
-2.20419e-07
-8.33848e-07
1.97923e-07
-1.99098e-07
8.33727e-07
1.19427e-06
0.00106189
-6.0651e-10
-0.00106189
1.21203e-09
-1.19289e-06
2.22376e-07
-2.2301e-07
-8.33808e-07
1.97863e-07
-1.99054e-07
8.33637e-07
-4.40067e-10
1.30278e-09
0.00106169
-2.17609e-07
1.18896e-06
2.16908e-07
8.30956e-07
-1.96413e-07
1.95091e-07
-8.31216e-07
-6.39849e-10
-0.00106255
1.26951e-09
-1.16001e-06
2.14342e-07
-2.15051e-07
-8.31182e-07
1.95225e-07
8.31045e-07
-1.96392e-07
1.18899e-06
0.00106169
-6.01444e-10
-0.00106169
1.19568e-09
-1.18761e-06
2.16948e-07
-2.17559e-07
-8.31172e-07
1.95141e-07
-1.96338e-07
8.30992e-07
-2.0368e-07
-2.10948e-07
0.000259377
-1.15605e-06
0.00026131
-0.000259377
2.05026e-07
2.12288e-07
-4.79144e-10
1.25235e-09
0.00106272
-2.15068e-07
1.15612e-06
2.14393e-07
8.28479e-07
-1.96493e-07
1.95187e-07
-8.28708e-07
-6.68609e-10
-0.00106221
1.16685e-09
-1.15466e-06
2.14371e-07
-2.14971e-07
-8.31012e-07
1.97835e-07
8.3092e-07
-1.99022e-07
1.15615e-06
0.00106272
-6.66018e-10
-0.00106272
1.17476e-09
-1.15477e-06
2.14427e-07
-2.15023e-07
-8.28657e-07
1.95241e-07
-1.96414e-07
8.2852e-07
-0.000259389
2.07329e-07
2.12498e-07
1.19282e-06
1.15999e-06
-2.0598e-07
-2.11134e-07
0.000259394
-1.19422e-06
-1.16138e-06
0.00026133
-0.000259394
2.07363e-07
2.12532e-07
1.17961e-09
0.00106178
-2.22964e-07
1.19422e-06
2.22358e-07
8.33595e-07
-1.99041e-07
-8.3378e-07
1.97833e-07
-1.19818e-06
-5.44942e-10
1.26989e-09
0.00106221
-2.23038e-07
1.19955e-06
2.22389e-07
8.36428e-07
-1.99136e-07
-8.36644e-07
1.97892e-07
0.00106178
-6.35054e-10
-0.00106178
1.20665e-09
-1.19283e-06
2.22346e-07
-2.22971e-07
-8.33759e-07
1.97841e-07
-1.99029e-07
8.33606e-07
1.19955e-06
0.00106221
-6.14309e-10
-0.00106221
1.22527e-09
-1.19817e-06
2.22425e-07
-2.23016e-07
-8.33985e-07
1.95233e-07
-1.96438e-07
8.33815e-07
-2.06211e-07
-2.10935e-07
0.000259418
-1.16135e-06
0.000261356
-0.000259415
2.1006e-07
2.09833e-07
1.18999e-09
0.0010628
-2.20416e-07
1.16138e-06
2.19806e-07
8.33726e-07
-1.99096e-07
-8.3385e-07
1.97922e-07
-1.19289e-06
-6.17071e-10
1.21402e-09
0.00106189
-2.23006e-07
1.19427e-06
2.22381e-07
8.33637e-07
-1.99052e-07
-8.33805e-07
1.97861e-07
0.0010628
-6.87565e-10
-0.0010628
1.17764e-09
-1.15999e-06
2.19804e-07
-2.20414e-07
-8.33842e-07
1.97927e-07
-1.99093e-07
8.33731e-07
1.19427e-06
0.00106189
-6.27789e-10
-0.00106189
1.20367e-09
-1.19289e-06
2.22378e-07
-2.23006e-07
-8.33802e-07
1.97867e-07
-1.99048e-07
8.33642e-07
-6.02076e-10
1.199e-09
0.00106169
-2.17559e-07
1.18899e-06
2.16946e-07
8.30995e-07
-1.96344e-07
1.95138e-07
-8.31171e-07
-6.74699e-10
-0.00106255
1.19188e-09
-1.15996e-06
2.14363e-07
-2.14977e-07
-8.3118e-07
1.95223e-07
8.31041e-07
-1.96388e-07
1.18899e-06
0.00106169
-6.20407e-10
-0.00106169
1.2013e-09
-1.18761e-06
2.16948e-07
-2.17556e-07
-8.31166e-07
1.95144e-07
-1.96333e-07
8.30996e-07
-2.03633e-07
-2.10899e-07
0.000259377
-1.15605e-06
0.00026131
-0.000259377
2.05028e-07
2.12291e-07
-6.68736e-10
1.18657e-09
0.00106272
-2.15024e-07
1.15615e-06
2.14424e-07
8.28522e-07
-1.9642e-07
1.95239e-07
-8.28657e-07
-6.86437e-10
-0.00106221
1.15923e-09
-1.15465e-06
2.14373e-07
-2.14968e-07
-8.31006e-07
1.97839e-07
8.30924e-07
-1.99017e-07
1.15616e-06
0.00106272
-6.84124e-10
-0.00106272
1.1666e-09
-1.15476e-06
2.14429e-07
-2.1502e-07
-8.28651e-07
1.95245e-07
-1.96408e-07
8.28524e-07
-0.000259389
2.07331e-07
2.12498e-07
1.19282e-06
1.15999e-06
-2.05979e-07
-2.11136e-07
0.000259394
-1.19422e-06
-1.16138e-06
0.00026133
-0.000259394
2.07363e-07
2.12536e-07
1.20451e-09
0.00106178
-2.22966e-07
1.19422e-06
2.22352e-07
8.33599e-07
-1.9903e-07
-8.33778e-07
1.97836e-07
-1.19815e-06
-6.12731e-10
1.22503e-09
0.00106221
-2.23043e-07
1.19955e-06
2.22428e-07
8.33813e-07
-1.96439e-07
-8.33984e-07
1.95226e-07
0.00106178
-6.34578e-10
-0.00106178
1.20232e-09
-1.19282e-06
2.2235e-07
-2.22969e-07
-8.33759e-07
1.97845e-07
-1.99023e-07
8.33606e-07
1.19954e-06
0.00106221
-6.13611e-10
-0.00106221
1.21235e-09
-1.19814e-06
2.19712e-07
-2.20334e-07
-8.33984e-07
1.9521e-07
-1.96405e-07
8.33813e-07
-2.08649e-07
-2.08429e-07
0.000259415
-1.16135e-06
0.000261356
-0.000259412
2.07555e-07
2.09832e-07
1.18251e-09
0.0010628
-2.20411e-07
1.16138e-06
2.19807e-07
8.33727e-07
-1.99093e-07
-8.33847e-07
1.97923e-07
-1.19289e-06
-6.23253e-10
1.21175e-09
0.00106189
-2.23004e-07
1.19427e-06
2.22382e-07
8.33639e-07
-1.9905e-07
-8.33802e-07
1.97862e-07
0.0010628
-6.92664e-10
-0.0010628
1.18065e-09
-1.15999e-06
2.19805e-07
-2.20414e-07
-8.3384e-07
1.97929e-07
-1.99091e-07
8.33733e-07
1.19428e-06
0.00106189
-6.30169e-10
-0.00106189
1.18987e-09
-1.19288e-06
2.22382e-07
-2.23003e-07
-8.33801e-07
1.97868e-07
-1.99047e-07
8.33642e-07
-6.12649e-10
1.21016e-09
0.00106169
-2.17559e-07
1.18899e-06
2.16945e-07
8.30996e-07
-1.96342e-07
1.9514e-07
-8.31168e-07
-6.84047e-10
-0.00106255
1.19678e-09
-1.15995e-06
2.14362e-07
-2.14979e-07
-8.31178e-07
1.95225e-07
8.31045e-07
-1.96387e-07
1.189e-06
0.00106169
-6.28857e-10
-0.00106169
1.18564e-09
-1.1876e-06
2.16952e-07
-2.17553e-07
-8.31165e-07
1.95147e-07
-1.96331e-07
8.30998e-07
-2.03632e-07
-2.10897e-07
0.000259377
-1.15605e-06
0.00026131
-0.000259377
2.0503e-07
2.12294e-07
-6.7414e-10
1.18147e-09
0.00106272
-2.15022e-07
1.15615e-06
2.14425e-07
8.28524e-07
-1.96417e-07
1.9524e-07
-8.28654e-07
-7.01457e-10
-0.00106221
1.15763e-09
-1.15465e-06
2.14375e-07
-2.14967e-07
-8.31004e-07
1.97842e-07
8.30927e-07
-1.99015e-07
1.15616e-06
0.00106272
-7.00379e-10
-0.00106272
1.15851e-09
-1.15476e-06
2.14432e-07
-2.15017e-07
-8.28648e-07
1.95249e-07
-1.96405e-07
8.28528e-07
-0.000259389
2.07333e-07
2.12502e-07
1.19282e-06
1.15999e-06
-2.05975e-07
-2.11133e-07
0.000259394
-1.19422e-06
-1.16135e-06
0.00026133
-0.000259394
2.0732e-07
2.12543e-07
1.19059e-09
0.00106178
-2.22965e-07
1.19422e-06
2.22359e-07
8.33595e-07
-1.99033e-07
-8.33782e-07
1.97831e-07
-1.19814e-06
-5.91322e-10
1.21896e-09
0.00106221
-2.20334e-07
1.19954e-06
2.19714e-07
8.3381e-07
-1.96415e-07
-8.33989e-07
1.95204e-07
0.00106178
-5.20884e-10
-0.00106178
1.22552e-09
-1.19283e-06
2.22344e-07
-2.22978e-07
-8.33793e-07
1.97793e-07
-1.99063e-07
8.3357e-07
1.19954e-06
0.00106221
-5.02144e-10
-0.00106221
1.22907e-09
-1.19815e-06
2.19698e-07
-2.20355e-07
-8.3402e-07
1.95169e-07
-1.96458e-07
8.33782e-07
-2.06154e-07
-2.08427e-07
0.000259412
-1.16132e-06
0.000261356
-0.000259412
2.07499e-07
2.09834e-07
1.19447e-09
0.0010628
-2.20413e-07
1.16137e-06
2.19807e-07
8.3373e-07
-1.99091e-07
-8.33845e-07
1.97925e-07
-1.19288e-06
-6.24688e-10
1.19139e-09
0.00106189
-2.22999e-07
1.19428e-06
2.22387e-07
8.33639e-07
-1.9905e-07
-8.33803e-07
1.97863e-07
0.0010628
-6.9512e-10
-0.0010628
1.2491e-09
-1.16001e-06
2.19782e-07
-2.20438e-07
-8.33836e-07
1.97933e-07
-1.99089e-07
8.33741e-07
1.19429e-06
0.00106189
-6.29176e-10
-0.00106189
1.1535e-09
-1.19288e-06
2.22389e-07
-2.22998e-07
-8.33801e-07
1.9787e-07
-1.99047e-07
8.33644e-07
-6.20037e-10
1.18743e-09
0.00106169
-2.17555e-07
1.189e-06
2.1695e-07
8.30999e-07
-1.9634e-07
1.95143e-07
-8.31167e-07
-6.85383e-10
-0.00106255
1.27505e-09
-1.15999e-06
2.14326e-07
-2.15013e-07
-8.31174e-07
1.9523e-07
8.31054e-07
-1.96387e-07
1.18901e-06
0.00106169
-6.32969e-10
-0.00106169
1.14802e-09
-1.1876e-06
2.1696e-07
-2.17547e-07
-8.31165e-07
1.95149e-07
-1.9633e-07
8.31e-07
-2.03631e-07
-2.10894e-07
0.000259377
-1.15605e-06
0.00026131
-0.000259377
2.05031e-07
2.123e-07
-6.95913e-10
1.17217e-09
0.00106272
-2.1502e-07
1.15616e-06
2.14429e-07
8.28529e-07
-1.96414e-07
1.95245e-07
-8.28651e-07
-7.36307e-10
-0.00106221
1.15887e-09
-1.15465e-06
2.14377e-07
-2.14966e-07
-8.30998e-07
1.97849e-07
8.30934e-07
-1.99009e-07
1.15616e-06
0.00106272
-7.29736e-10
-0.00106272
1.14833e-09
-1.15476e-06
2.14435e-07
-2.15015e-07
-8.28645e-07
1.95253e-07
-1.96401e-07
8.28533e-07
-0.000259389
2.07335e-07
2.12508e-07
1.19283e-06
1.16003e-06
-2.06033e-07
-2.1113e-07
0.000259394
-1.19423e-06
-1.15874e-06
0.000261328
-0.000259395
2.07336e-07
2.12503e-07
1.22315e-09
0.00106178
-2.22977e-07
1.19422e-06
2.22351e-07
8.33548e-07
-1.99098e-07
-8.33831e-07
1.97757e-07
-1.19816e-06
-4.00539e-10
1.26641e-09
0.00106221
-2.20378e-07
1.19953e-06
2.19683e-07
8.3376e-07
-1.96491e-07
-8.34044e-07
1.95138e-07
0.00106178
-5.73495e-10
-0.00106178
1.25451e-09
-1.19283e-06
2.22346e-07
-2.22972e-07
-8.33764e-07
1.95159e-07
-1.99022e-07
8.3097e-07
1.19957e-06
0.00106221
-5.49032e-10
-0.00106221
1.16079e-09
-1.19816e-06
2.22436e-07
-2.23019e-07
-8.36645e-07
1.97903e-07
-1.99129e-07
8.36429e-07
-2.0622e-07
-2.08435e-07
0.000259412
-1.16134e-06
0.000261359
-0.000259415
2.07548e-07
2.09847e-07
1.2762e-09
0.0010628
-2.20447e-07
1.16133e-06
2.19772e-07
8.33739e-07
-1.99089e-07
-8.3384e-07
1.97931e-07
-1.19288e-06
-6.27137e-10
1.15602e-09
0.00106189
-2.22994e-07
1.19429e-06
2.22394e-07
8.33641e-07
-1.99049e-07
-8.33802e-07
1.97865e-07
0.00106281
-6.42863e-10
-0.0010628
1.2598e-09
-1.16001e-06
2.1709e-07
-2.20438e-07
-8.33833e-07
1.97937e-07
-1.99083e-07
8.33741e-07
1.19428e-06
0.00106189
-6.20612e-10
-0.00106189
1.1491e-09
-1.19288e-06
2.22388e-07
-2.22997e-07
-8.33802e-07
1.97867e-07
-1.99048e-07
8.33641e-07
-6.20833e-10
1.15577e-09
0.00106169
-2.17549e-07
1.189e-06
2.16956e-07
8.30999e-07
-1.9634e-07
1.95143e-07
-8.31168e-07
-7.21874e-10
-0.00106255
1.19229e-09
-1.15998e-06
2.14379e-07
-2.14995e-07
-8.31166e-07
1.95241e-07
8.31053e-07
-1.9637e-07
1.189e-06
0.00106169
-6.41509e-10
-0.00106169
1.17369e-09
-1.1876e-06
2.16958e-07
-2.17547e-07
-8.31165e-07
1.95144e-07
-1.96333e-07
8.30998e-07
-2.0363e-07
-2.10889e-07
0.000259377
-1.15605e-06
0.00026131
-0.000259377
2.05029e-07
2.12299e-07
-7.01558e-10
1.16421e-09
0.00106272
-2.15018e-07
1.15616e-06
2.1443e-07
8.2853e-07
-1.96413e-07
1.95246e-07
-8.2865e-07
-7.46088e-10
-0.00106221
1.16456e-09
-1.15465e-06
2.14375e-07
-2.14968e-07
-8.30997e-07
1.97849e-07
8.30934e-07
-1.99008e-07
1.15616e-06
0.00106272
-6.30977e-10
-0.00106272
1.13046e-09
-1.15476e-06
2.14431e-07
-2.15017e-07
-8.28656e-07
1.95238e-07
-1.96413e-07
8.28518e-07
-0.000259389
2.07334e-07
2.12505e-07
1.19284e-06
1.15739e-06
-2.06008e-07
-2.11105e-07
0.000259395
-1.19683e-06
-1.15877e-06
0.000261333
-0.000259395
2.04841e-07
2.12505e-07
1.2996e-09
0.00106178
-2.20297e-07
1.19422e-06
2.19636e-07
8.30945e-07
-1.96367e-07
-8.31158e-07
1.95099e-07
-1.19812e-06
-6.58216e-10
1.07815e-09
0.00106221
-2.22948e-07
1.1996e-06
2.22489e-07
8.36471e-07
-1.99042e-07
-8.36598e-07
1.97962e-07
0.00106178
-5.21883e-10
-0.00106178
1.25455e-09
-1.19284e-06
2.22355e-07
-2.22967e-07
-8.31155e-07
1.92479e-07
-1.96374e-07
8.30955e-07
1.19955e-06
0.00106221
-5.56002e-10
-0.00106221
1.18914e-09
-1.19816e-06
2.22381e-07
-2.23037e-07
-8.39301e-07
1.97894e-07
-1.99123e-07
8.39089e-07
-2.0612e-07
-2.08395e-07
0.000259415
-1.16134e-06
0.000261356
-0.000259415
2.07582e-07
2.12321e-07
1.23964e-09
0.00106281
-2.17744e-07
1.15873e-06
2.17072e-07
8.33733e-07
-1.99089e-07
-8.33843e-07
1.97929e-07
-1.19288e-06
-6.10935e-10
1.17106e-09
0.00106189
-2.22996e-07
1.19428e-06
2.2239e-07
8.33638e-07
-1.99051e-07
-8.33804e-07
1.97861e-07
0.00106282
-1.14562e-08
-0.00106281
1.18799e-09
-1.15737e-06
2.17145e-07
-2.17705e-07
-8.3383e-07
1.97948e-07
-1.99081e-07
8.33748e-07
1.19428e-06
0.00106189
-6.1234e-10
-0.00106189
1.17095e-09
-1.19288e-06
2.22384e-07
-2.22999e-07
-8.33801e-07
1.97867e-07
-1.99048e-07
8.33642e-07
-6.45563e-10
1.20111e-09
0.00106169
-2.1755e-07
1.189e-06
2.16953e-07
8.30999e-07
-1.96341e-07
1.95141e-07
-8.31166e-07
-7.02492e-10
-0.00106255
1.18452e-09
-1.15995e-06
2.17036e-07
-2.17676e-07
-8.31183e-07
1.9524e-07
8.31043e-07
-1.96421e-07
1.189e-06
0.00106169
-6.5922e-10
-0.00106169
1.19655e-09
-1.1876e-06
2.16953e-07
-2.1755e-07
-8.31159e-07
1.95151e-07
-1.96325e-07
8.31003e-07
-2.03632e-07
-2.10891e-07
0.000259377
-1.15605e-06
0.00026131
-0.000259377
2.05029e-07
2.12296e-07
-6.05225e-10
1.1432e-09
0.00106272
-2.15019e-07
1.15616e-06
2.14429e-07
8.28516e-07
-1.96425e-07
1.95232e-07
-8.28662e-07
-7.17127e-10
-0.00106221
1.16526e-09
-1.15465e-06
2.14374e-07
-2.14967e-07
-8.30999e-07
1.97846e-07
8.3093e-07
-1.99009e-07
1.15616e-06
0.00106272
-6.78134e-10
-0.00106272
1.14029e-09
-1.15476e-06
2.14436e-07
-2.15012e-07
-8.2865e-07
1.95245e-07
-1.96408e-07
8.28525e-07
-0.000259389
2.07337e-07
2.12503e-07
1.19543e-06
1.15739e-06
-2.03492e-07
-2.11052e-07
0.000259395
-1.19682e-06
-1.15877e-06
0.00026133
-0.000259395
2.04881e-07
2.14982e-07
1.26245e-09
0.00106178
-2.22938e-07
1.19682e-06
2.22336e-07
8.30928e-07
-1.93693e-07
-8.31193e-07
1.92463e-07
-1.19815e-06
-6.61135e-10
1.15779e-09
0.00106221
-2.23018e-07
1.19957e-06
2.22404e-07
8.39136e-07
-1.99061e-07
-8.39263e-07
1.9794e-07
0.00106177
-6.24987e-10
-0.00106177
1.21844e-09
-1.19543e-06
2.22333e-07
-2.2295e-07
-8.33735e-07
1.9249e-07
-1.93686e-07
8.3358e-07
1.19956e-06
0.00106221
-6.17333e-10
-0.00106221
1.19261e-09
-1.19815e-06
2.22398e-07
-2.23016e-07
-8.39279e-07
1.97913e-07
-1.99091e-07
8.39116e-07
-2.06119e-07
-2.08437e-07
0.000259412
-1.16135e-06
0.000261353
-0.000259412
2.07561e-07
2.12328e-07
1.21473e-09
0.00106282
-2.17704e-07
1.15875e-06
2.17114e-07
8.33732e-07
-1.99082e-07
-8.33838e-07
1.97929e-07
-1.19288e-06
-6.13503e-10
1.18236e-09
0.00106189
-2.22998e-07
1.19428e-06
2.22387e-07
8.33639e-07
-1.9905e-07
-8.33802e-07
1.97862e-07
0.00106282
-6.67915e-10
-0.00106282
1.16898e-09
-1.15737e-06
2.17116e-07
-2.17719e-07
-8.33846e-07
1.97924e-07
-1.99093e-07
8.33725e-07
1.19428e-06
0.00106189
-6.26969e-10
-0.00106189
1.19994e-09
-1.19288e-06
2.22379e-07
-2.23004e-07
-8.338e-07
1.97867e-07
-1.99047e-07
8.33642e-07
-6.4028e-10
1.20016e-09
0.00106169
-2.17554e-07
1.18899e-06
2.16948e-07
8.31002e-07
-1.96336e-07
1.95145e-07
-8.31162e-07
-6.74728e-10
-0.00106255
1.17077e-09
-1.15994e-06
2.17084e-07
-2.1769e-07
-8.31181e-07
1.95242e-07
8.3104e-07
-1.96416e-07
1.189e-06
0.00106169
-6.33926e-10
-0.00106169
1.19999e-09
-1.18761e-06
2.1695e-07
-2.17555e-07
-8.31164e-07
1.95147e-07
-1.9633e-07
8.30999e-07
-2.0363e-07
-2.10893e-07
0.000259377
-1.15605e-06
0.00026131
-0.000259377
2.05029e-07
2.12292e-07
-6.68198e-10
1.15963e-09
0.00106272
-2.15016e-07
1.15616e-06
2.1443e-07
8.28524e-07
-1.96418e-07
1.95239e-07
-8.28654e-07
-6.94842e-10
-0.00106221
1.1619e-09
-1.15465e-06
2.14373e-07
-2.14968e-07
-8.31004e-07
1.97841e-07
8.30926e-07
-1.99014e-07
1.15616e-06
0.00106272
-6.69725e-10
-0.00106272
1.15225e-09
-1.15476e-06
2.14432e-07
-2.15017e-07
-8.28653e-07
1.95243e-07
-1.9641e-07
8.28523e-07
-0.000259389
2.07334e-07
2.125e-07
1.19543e-06
1.15738e-06
-2.03496e-07
-2.13578e-07
0.000259395
-1.19682e-06
-1.15877e-06
0.00026133
-0.000259395
2.04885e-07
2.1498e-07
1.22089e-09
0.00106177
-2.22953e-07
1.19682e-06
2.22336e-07
8.33581e-07
-1.93697e-07
-8.33747e-07
1.92491e-07
-1.19816e-06
-6.24239e-10
1.20637e-09
0.00106221
-2.2302e-07
1.19956e-06
2.22401e-07
8.3911e-07
-1.99092e-07
-8.3927e-07
1.97899e-07
0.00106177
-6.30602e-10
-0.00106177
1.21808e-09
-1.19543e-06
2.22331e-07
-2.22958e-07
-8.33738e-07
1.92499e-07
-1.93692e-07
8.33587e-07
1.19956e-06
0.00106221
-6.27669e-10
-0.00106221
1.2096e-09
-1.19816e-06
2.22396e-07
-2.23022e-07
-8.39273e-07
1.97904e-07
-1.9909e-07
8.39111e-07
-2.0615e-07
-2.10929e-07
0.000259412
-1.16135e-06
0.000261353
-0.000259412
2.07558e-07
2.12329e-07
1.17299e-09
0.00106282
-2.17717e-07
1.15877e-06
2.17122e-07
8.33724e-07
-1.99096e-07
-8.33849e-07
1.9792e-07
-1.19289e-06
-6.22265e-10
1.21262e-09
0.00106189
-2.23004e-07
1.19427e-06
2.22381e-07
8.33639e-07
-1.99049e-07
-8.33802e-07
1.97862e-07
0.00106282
-6.8517e-10
-0.00106282
1.159e-09
-1.15737e-06
2.17121e-07
-2.17715e-07