/*--------------------------------*- C++ -*----------------------------------*\
| =========                 |                                                 |
| \\      /  F ield         | OpenFOAM: The Open Source CFD Toolbox           |
|  \\    /   O peration     | Version:  2206                                  |
|   \\  /    A nd           | Website:  www.openfoam.com                      |
|    \\/     M anipulation  |                                                 |
\*---------------------------------------------------------------------------*/
FoamFile
{
    version     2.0;
    format      ascii;
    arch        "LSB;label=32;scalar=64";
    class       volScalarField;
    location    "22";
    object      epsilon;
}
// * * * * * * * * * * * * * * * * * * * * * * * * * * * * * * * * * * * * * //

dimensions      [0 2 -3 0 0 0 0];

internalField   nonuniform List<scalar> 
28673
(
3.4326e-07
3.7322e-07
3.21009e-07
3.43262e-07
3.43271e-07
3.73237e-07
3.21009e-07
3.43266e-07
3.43274e-07
3.73245e-07
3.21007e-07
3.43268e-07
3.43275e-07
3.73253e-07
3.21004e-07
3.43266e-07
3.43275e-07
3.73257e-07
3.20942e-07
3.43171e-07
3.43219e-07
3.7321e-07
3.20849e-07
3.43121e-07
3.43132e-07
3.73108e-07
3.20845e-07
3.43121e-07
3.43129e-07
3.73125e-07
3.20845e-07
3.43118e-07
3.43127e-07
3.73119e-07
3.20845e-07
3.43116e-07
3.43125e-07
3.73122e-07
3.20845e-07
3.43112e-07
3.4312e-07
3.73114e-07
3.20848e-07
3.43122e-07
3.43131e-07
3.7308e-07
3.20304e-07
3.3952e-07
3.39522e-07
3.67747e-07
3.43282e-07
3.72978e-07
3.4326e-07
3.73006e-07
3.43277e-07
3.43282e-07
3.43277e-07
3.43281e-07
3.73222e-07
3.72991e-07
3.43266e-07
3.43289e-07
3.4328e-07
3.43262e-07
3.43279e-07
3.73004e-07
3.43267e-07
3.4327e-07
3.43266e-07
3.73001e-07
3.73244e-07
3.73007e-07
3.43281e-07
3.43285e-07
3.43281e-07
3.43285e-07
3.7323e-07
3.72998e-07
3.43269e-07
3.43293e-07
3.43269e-07
3.43292e-07
3.43283e-07
3.43266e-07
3.43282e-07
3.73243e-07
3.7301e-07
3.4327e-07
3.43274e-07
3.43269e-07
3.73008e-07
3.73246e-07
3.73014e-07
3.43285e-07
3.43289e-07
3.43285e-07
3.43289e-07
3.73238e-07
3.73006e-07
3.43273e-07
3.43296e-07
3.43271e-07
3.43295e-07
3.43286e-07
3.43268e-07
3.43285e-07
3.73249e-07
3.73018e-07
3.43273e-07
3.43276e-07
3.43272e-07
3.73017e-07
3.73254e-07
3.73018e-07
3.43288e-07
3.43291e-07
3.43286e-07
3.43289e-07
3.73245e-07
3.73008e-07
3.43274e-07
3.43298e-07
3.43271e-07
3.43293e-07
3.43288e-07
3.43268e-07
3.43285e-07
3.73257e-07
3.73021e-07
3.43275e-07
3.43276e-07
3.43272e-07
3.73021e-07
3.73257e-07
3.72999e-07
3.43286e-07
3.43287e-07
3.4325e-07
3.43226e-07
3.73247e-07
3.72951e-07
3.43271e-07
3.43294e-07
3.43255e-07
3.4328e-07
3.43285e-07
3.43205e-07
3.43243e-07
3.7326e-07
3.73011e-07
3.43272e-07
3.43254e-07
3.4323e-07
3.72989e-07
3.73227e-07
3.72879e-07
3.43214e-07
3.43193e-07
3.43146e-07
3.43144e-07
3.73172e-07
3.72859e-07
3.43225e-07
3.43252e-07
3.4314e-07
3.43165e-07
3.43206e-07
3.43123e-07
3.43145e-07
3.7324e-07
3.72891e-07
3.43194e-07
3.43141e-07
3.43132e-07
3.72875e-07
3.73111e-07
3.72878e-07
3.43142e-07
3.43145e-07
3.43139e-07
3.43143e-07
3.73099e-07
3.72875e-07
3.43132e-07
3.43156e-07
3.43126e-07
3.43151e-07
3.43144e-07
3.43121e-07
3.43142e-07
3.7312e-07
3.72887e-07
3.43131e-07
3.43129e-07
3.43129e-07
3.72888e-07
3.73118e-07
3.72883e-07
3.43141e-07
3.43145e-07
3.43137e-07
3.43141e-07
3.73115e-07
3.72869e-07
3.43129e-07
3.43153e-07
3.43125e-07
3.43149e-07
3.43144e-07
3.43119e-07
3.4314e-07
3.73126e-07
3.7289e-07
3.43131e-07
3.43128e-07
3.43127e-07
3.72885e-07
3.73119e-07
3.72878e-07
3.43138e-07
3.43142e-07
3.43134e-07
3.43138e-07
3.73106e-07
3.72873e-07
3.43126e-07
3.4315e-07
3.43122e-07
3.43146e-07
3.43141e-07
3.43117e-07
3.43137e-07
3.73126e-07
3.72885e-07
3.43128e-07
3.43126e-07
3.43124e-07
3.72887e-07
3.73118e-07
3.7287e-07
3.43136e-07
3.4314e-07
3.43129e-07
3.43132e-07
3.7311e-07
3.72866e-07
3.43123e-07
3.43148e-07
3.43116e-07
3.4314e-07
3.43139e-07
3.4311e-07
3.43131e-07
3.73124e-07
3.72879e-07
3.43126e-07
3.43119e-07
3.43118e-07
3.72879e-07
3.73109e-07
3.72842e-07
3.43131e-07
3.43134e-07
3.43091e-07
3.43094e-07
3.73105e-07
3.72835e-07
3.43118e-07
3.43142e-07
3.43077e-07
3.43101e-07
3.43133e-07
3.43073e-07
3.43094e-07
3.73116e-07
3.7285e-07
3.4312e-07
3.43081e-07
3.43078e-07
3.72848e-07
3.73077e-07
3.70625e-07
3.43142e-07
3.43144e-07
3.40918e-07
3.40919e-07
3.73071e-07
3.7062e-07
3.43128e-07
3.43152e-07
3.40908e-07
3.40922e-07
3.43146e-07
3.40905e-07
3.40919e-07
3.73084e-07
3.70628e-07
3.43129e-07
3.40908e-07
3.40907e-07
3.70624e-07
3.67749e-07
3.39529e-07
3.3953e-07
3.67746e-07
3.39522e-07
3.39532e-07
3.20304e-07
3.20304e-07
3.20304e-07
3.3953e-07
3.67752e-07
3.39522e-07
1.68921e-06
8.69321e-06
1.68961e-06
8.69225e-06
2.38182e-05
2.38158e-05
1.68899e-06
8.69359e-06
3.21011e-07
3.2101e-07
3.21009e-07
3.2101e-07
3.21011e-07
3.21008e-07
5.80144e-07
1.34822e-06
3.28078e-07
3.43263e-07
5.80278e-07
1.34759e-06
3.28078e-07
2.38186e-05
5.80178e-07
3.28079e-07
3.43271e-07
5.80311e-07
3.28079e-07
1.34746e-06
2.82317e-06
2.82383e-06
3.72997e-07
2.8229e-06
2.82355e-06
1.68931e-06
8.69234e-06
1.6898e-06
8.69181e-06
2.38144e-05
2.38134e-05
1.68918e-06
8.69375e-06
1.68959e-06
8.69321e-06
3.2101e-07
3.21013e-07
3.21008e-07
3.2101e-07
3.21008e-07
3.21011e-07
3.21007e-07
5.80172e-07
1.34833e-06
3.28077e-07
3.43266e-07
5.80301e-07
1.34767e-06
3.2808e-07
2.38163e-05
2.38146e-05
5.80205e-07
3.28078e-07
1.34822e-06
3.43274e-07
5.80335e-07
3.28081e-07
1.3476e-06
2.82355e-06
2.82418e-06
3.73004e-07
2.82313e-06
2.82378e-06
1.68932e-06
8.69206e-06
1.68983e-06
8.69163e-06
2.38133e-05
2.38129e-05
1.68918e-06
8.69345e-06
1.68965e-06
8.693e-06
3.2101e-07
3.21011e-07
3.2101e-07
3.21007e-07
3.21008e-07
3.21009e-07
3.21008e-07
5.80193e-07
1.34837e-06
3.28079e-07
3.4327e-07
5.80326e-07
1.34769e-06
3.28082e-07
2.38141e-05
2.38133e-05
5.80225e-07
3.2808e-07
1.34829e-06
3.43277e-07
5.8036e-07
3.28083e-07
1.34765e-06
2.82372e-06
2.82435e-06
3.73013e-07
2.82329e-06
2.82393e-06
1.68931e-06
8.69198e-06
1.68981e-06
8.69159e-06
2.38136e-05
2.38138e-05
1.68916e-06
8.69337e-06
1.68963e-06
8.69296e-06
3.21008e-07
3.21008e-07
3.21007e-07
3.21005e-07
3.21003e-07
3.21006e-07
3.21003e-07
5.80199e-07
1.34837e-06
3.28078e-07
3.43269e-07
5.80339e-07
1.3477e-06
3.28077e-07
2.38137e-05
2.38135e-05
5.80231e-07
3.28079e-07
1.3483e-06
3.43277e-07
5.80371e-07
3.28079e-07
1.34765e-06
2.82381e-06
2.82445e-06
3.73018e-07
2.82333e-06
2.82397e-06
1.68955e-06
8.69238e-06
1.68985e-06
8.6927e-06
2.38152e-05
2.38151e-05
1.68925e-06
8.69358e-06
1.6896e-06
8.69361e-06
3.21002e-07
3.21005e-07
3.21001e-07
3.20979e-07
3.20948e-07
3.20984e-07
3.20958e-07
5.80217e-07
1.34853e-06
3.28073e-07
3.43259e-07
5.80343e-07
1.34793e-06
3.28069e-07
2.3815e-05
2.38154e-05
5.80252e-07
3.28074e-07
1.34832e-06
3.43274e-07
5.80377e-07
3.28072e-07
1.34774e-06
2.82387e-06
2.8245e-06
3.73018e-07
2.82353e-06
2.82418e-06
1.68955e-06
8.69413e-06
1.69019e-06
8.69383e-06
2.38151e-05
2.38145e-05
1.68949e-06
8.69526e-06
1.69003e-06
8.6952e-06
3.2091e-07
3.2095e-07
3.20919e-07
3.20859e-07
3.2085e-07
3.20862e-07
3.20852e-07
5.80121e-07
1.34856e-06
3.27989e-07
3.43148e-07
5.80311e-07
1.34778e-06
3.27962e-07
2.38159e-05
2.38151e-05
5.80159e-07
3.28002e-07
1.3485e-06
3.43187e-07
5.80352e-07
3.27973e-07
1.34779e-06
2.82397e-06
2.82461e-06
3.72917e-07
2.82329e-06
2.82393e-06
1.68941e-06
8.69414e-06
1.68994e-06
8.69376e-06
2.38148e-05
2.38144e-05
1.68928e-06
8.69561e-06
1.68978e-06
8.6952e-06
3.20849e-07
3.20854e-07
3.20851e-07
3.20845e-07
3.20847e-07
3.20849e-07
3.20848e-07
5.8008e-07
1.34839e-06
3.27925e-07
3.43123e-07
5.80224e-07
1.34768e-06
3.27926e-07
2.38153e-05
2.38148e-05
5.80111e-07
3.27927e-07
1.34834e-06
3.43132e-07
5.80259e-07
3.27928e-07
1.34765e-06
2.8236e-06
2.82423e-06
3.72879e-07
2.82309e-06
2.82373e-06
1.68946e-06
8.69409e-06
1.68996e-06
8.69437e-06
2.38147e-05
2.38159e-05
1.68932e-06
8.69554e-06
1.68976e-06
8.69579e-06
3.20849e-07
3.20852e-07
3.2085e-07
3.20845e-07
3.20846e-07
3.20849e-07
3.20847e-07
5.80081e-07
1.34825e-06
3.27924e-07
3.43122e-07
5.8022e-07
1.3475e-06
3.27926e-07
2.38152e-05
2.38163e-05
5.80103e-07
3.27927e-07
1.34818e-06
3.43131e-07
5.80246e-07
3.27928e-07
1.34746e-06
2.82346e-06
2.82409e-06
3.7289e-07
2.82289e-06
2.82353e-06
1.68953e-06
8.6948e-06
1.69004e-06
8.69602e-06
2.38117e-05
2.38164e-05
1.68938e-06
8.69625e-06
1.68984e-06
8.69746e-06
3.20848e-07
3.20851e-07
3.20849e-07
3.20845e-07
3.20846e-07
3.20849e-07
3.20847e-07
5.80069e-07
1.34758e-06
3.27923e-07
3.43119e-07
5.80206e-07
1.34672e-06
3.27925e-07
2.3813e-05
2.38178e-05
5.80085e-07
3.27925e-07
1.3475e-06
3.43128e-07
5.80223e-07
3.27927e-07
1.34667e-06
2.82348e-06
2.82412e-06
3.72882e-07
2.82371e-06
2.82434e-06
1.69053e-06
8.69391e-06
1.69122e-06
8.69736e-06
2.38068e-05
2.38149e-05
1.69038e-06
8.69529e-06
1.69102e-06
8.69879e-06
3.20848e-07
3.20851e-07
3.20849e-07
3.20845e-07
3.20845e-07
3.20848e-07
3.20847e-07
5.80122e-07
1.34746e-06
3.27923e-07
3.43116e-07
5.80253e-07
1.34635e-06
3.27925e-07
2.38089e-05
2.38171e-05
5.80134e-07
3.27925e-07
1.34743e-06
3.43125e-07
5.80266e-07
3.27926e-07
1.3464e-06
2.82429e-06
2.8249e-06
3.7288e-07
2.82554e-06
2.82615e-06
1.69108e-06
8.69176e-06
1.69155e-06
8.69803e-06
2.37905e-05
2.38006e-05
1.69092e-06
8.69326e-06
1.69133e-06
8.69956e-06
3.20847e-07
3.2085e-07
3.20849e-07
3.20838e-07
3.20839e-07
3.20841e-07
3.2084e-07
5.80139e-07
1.34761e-06
3.27921e-07
3.43105e-07
5.80283e-07
1.34715e-06
3.27923e-07
2.37932e-05
2.38029e-05
5.80155e-07
3.27923e-07
1.34776e-06
3.43114e-07
5.80297e-07
3.27926e-07
1.34733e-06
2.82769e-06
2.82825e-06
3.72875e-07
2.83331e-06
2.83388e-06
1.68866e-06
8.68405e-06
1.69224e-06
8.69141e-06
2.37482e-05
2.37471e-05
1.68868e-06
8.68565e-06
1.69209e-06
8.69282e-06
3.2085e-07
3.20852e-07
3.20851e-07
3.20704e-07
3.20705e-07
3.20706e-07
3.20705e-07
5.79144e-07
1.35004e-06
3.27882e-07
3.42865e-07
5.80231e-07
1.34557e-06
3.27939e-07
2.37504e-05
2.37489e-05
5.79155e-07
3.27884e-07
1.35019e-06
3.42872e-07
5.80248e-07
3.27941e-07
1.34565e-06
2.83551e-06
2.83607e-06
3.72499e-07
2.8482e-06
2.84858e-06
1.25172e-06
7.68595e-06
1.66675e-06
3.46353e-06
1.9105e-05
7.54516e-06
1.25174e-06
7.68806e-06
1.66687e-06
3.46413e-06
3.16505e-07
3.175e-07
3.17499e-07
3.21918e-07
3.16538e-07
3.17841e-07
3.1784e-07
5.4983e-07
1.28589e-06
3.26658e-07
3.36937e-07
5.68904e-07
1.28041e-06
3.24553e-07
1.91058e-05
7.5451e-06
5.49845e-07
3.26659e-07
1.28587e-06
3.36938e-07
5.6891e-07
3.24554e-07
1.28035e-06
2.81907e-06
2.81982e-06
3.6114e-07
2.45273e-06
2.45283e-06
8.69306e-06
1.34756e-06
2.38184e-05
2.82316e-06
2.82253e-06
2.38156e-05
1.34751e-06
8.69264e-06
2.38185e-05
2.38159e-05
2.3819e-05
2.82316e-06
3.73001e-07
2.82284e-06
2.82332e-06
2.38139e-05
2.38158e-05
2.38164e-05
2.38188e-05
3.73242e-07
2.82295e-06
2.82351e-06
2.82331e-06
2.82383e-06
1.68922e-06
8.69333e-06
1.68962e-06
8.69278e-06
5.80142e-07
1.34803e-06
3.28077e-07
3.43277e-07
5.80277e-07
1.34746e-06
3.28077e-07
5.80143e-07
1.34823e-06
3.28079e-07
3.43282e-07
5.80278e-07
1.34763e-06
3.28079e-07
1.68973e-06
8.692e-06
8.6925e-06
1.68928e-06
1.68974e-06
8.69255e-06
8.69304e-06
1.68929e-06
5.80288e-07
3.43276e-07
1.34751e-06
3.28076e-07
1.34811e-06
3.28076e-07
5.80156e-07
5.80289e-07
3.43281e-07
1.34768e-06
3.28078e-07
1.3483e-06
3.28078e-07
5.80157e-07
2.82373e-06
2.82317e-06
3.7299e-07
2.82348e-06
2.82289e-06
2.38157e-05
2.38132e-05
2.38143e-05
2.38158e-05
3.73228e-07
2.82363e-06
2.82307e-06
2.82398e-06
2.82347e-06
2.38116e-05
2.38134e-05
5.80148e-07
3.43266e-07
1.34773e-06
3.28078e-07
1.689e-06
8.69357e-06
5.80143e-07
3.43289e-07
3.28081e-07
1.34777e-06
1.68947e-06
8.69339e-06
8.6939e-06
1.68911e-06
5.8029e-07
3.43266e-07
1.34778e-06
3.28078e-07
1.34838e-06
3.28078e-07
5.80162e-07
1.68947e-06
8.6933e-06
8.69387e-06
1.68911e-06
5.80287e-07
3.43289e-07
3.2808e-07
1.34784e-06
3.2808e-07
1.34847e-06
5.80157e-07
1.68924e-06
8.69294e-06
1.68964e-06
8.69238e-06
5.80148e-07
3.28078e-07
1.3481e-06
3.4328e-07
5.80281e-07
3.28078e-07
1.34752e-06
1.68923e-06
8.69432e-06
1.68964e-06
8.69335e-06
5.80289e-07
3.43262e-07
1.34764e-06
3.28076e-07
1.34828e-06
3.28076e-07
5.80158e-07
1.68975e-06
8.69215e-06
8.69267e-06
1.68931e-06
5.80292e-07
3.43279e-07
3.28077e-07
1.34758e-06
3.28077e-07
1.34819e-06
5.80163e-07
1.68975e-06
8.69309e-06
8.6936e-06
1.68931e-06
3.72996e-07
2.82332e-06
2.82274e-06
2.38185e-05
2.38162e-05
2.38188e-05
3.73238e-07
2.82365e-06
2.82296e-06
2.82396e-06
2.82326e-06
2.38159e-05
2.38183e-05
5.80181e-07
3.28079e-07
1.34824e-06
3.43267e-07
5.80314e-07
3.28079e-07
1.34765e-06
1.68946e-06
1.68994e-06
8.69358e-06
1.68946e-06
8.6949e-06
1.68994e-06
8.69393e-06
5.80323e-07
3.4327e-07
3.28078e-07
1.34755e-06
3.28078e-07
1.34813e-06
5.80192e-07
5.80325e-07
3.43266e-07
3.28078e-07
1.34771e-06
3.28078e-07
1.34832e-06
5.80195e-07
1.69003e-06
8.69332e-06
8.69385e-06
1.68953e-06
1.69003e-06
8.69367e-06
8.69417e-06
1.68953e-06
2.38197e-05
2.38172e-05
2.38205e-05
2.3818e-05
3.73237e-07
2.82304e-06
2.82369e-06
2.8234e-06
2.82404e-06
2.38151e-05
2.38171e-05
2.38159e-05
2.38179e-05
2.38141e-05
2.38128e-05
2.38165e-05
2.38149e-05
2.82341e-06
2.82399e-06
3.73007e-07
2.82304e-06
2.82361e-06
2.38122e-05
2.38132e-05
2.3814e-05
2.38152e-05
3.73245e-07
2.82313e-06
2.8237e-06
2.8235e-06
2.82408e-06
1.68932e-06
8.69282e-06
1.6898e-06
8.69238e-06
5.80171e-07
1.34816e-06
3.2808e-07
3.43281e-07
5.80303e-07
1.34755e-06
3.2808e-07
5.80172e-07
1.34834e-06
3.28081e-07
3.43285e-07
5.80304e-07
1.34771e-06
3.28081e-07
1.68981e-06
8.69169e-06
8.69209e-06
1.68932e-06
1.68982e-06
8.69227e-06
8.69266e-06
1.68933e-06
5.80317e-07
3.4328e-07
1.34757e-06
3.28079e-07
1.34819e-06
3.28079e-07
5.80184e-07
5.80319e-07
3.43285e-07
1.34772e-06
3.2808e-07
1.34836e-06
3.2808e-07
5.80186e-07
2.82411e-06
2.82363e-06
3.72995e-07
2.82374e-06
2.8232e-06
2.3812e-05
2.38107e-05
2.3813e-05
2.38138e-05
3.73234e-07
2.82382e-06
2.82328e-06
2.82421e-06
2.82375e-06
2.38102e-05
2.38112e-05
5.80179e-07
1.34842e-06
3.28081e-07
3.43269e-07
5.80305e-07
1.34781e-06
3.28081e-07
1.68917e-06
8.69359e-06
1.68957e-06
8.69308e-06
5.80173e-07
3.28082e-07
1.34854e-06
3.43293e-07
5.80302e-07
3.28082e-07
1.3479e-06
1.68963e-06
8.69307e-06
8.69351e-06
1.6892e-06
5.80323e-07
3.43269e-07
1.34783e-06
3.28079e-07
1.34845e-06
3.28079e-07
5.80194e-07
1.68962e-06
8.69293e-06
8.69339e-06
1.68919e-06
5.80319e-07
3.43292e-07
3.28081e-07
1.34793e-06
3.28081e-07
1.34859e-06
5.80188e-07
1.68934e-06
8.69246e-06
1.68981e-06
8.69198e-06
5.80178e-07
3.2808e-07
1.34824e-06
3.43283e-07
5.80307e-07
3.2808e-07
1.34762e-06
1.68934e-06
8.69336e-06
1.68981e-06
8.6929e-06
5.80317e-07
3.43266e-07
1.34768e-06
3.28079e-07
1.34835e-06
3.28079e-07
5.80184e-07
1.68984e-06
8.69187e-06
8.6923e-06
1.68935e-06
5.80322e-07
3.43282e-07
3.28079e-07
1.34763e-06
3.28079e-07
1.34827e-06
5.80191e-07
1.68984e-06
8.69277e-06
8.69318e-06
1.68935e-06
2.82424e-06
2.82343e-06
3.73008e-07
2.82385e-06
2.82307e-06
2.3816e-05
2.38144e-05
2.38137e-05
2.3815e-05
3.73246e-07
2.82397e-06
2.82316e-06
2.82441e-06
2.82353e-06
2.38135e-05
2.38146e-05
5.8021e-07
3.28082e-07
1.34837e-06
3.4327e-07
5.8034e-07
3.28082e-07
1.34775e-06
1.68957e-06
8.69358e-06
1.69009e-06
8.6931e-06
1.68956e-06
8.69394e-06
1.69009e-06
8.69348e-06
5.80351e-07
3.43274e-07
3.2808e-07
1.34763e-06
3.28081e-07
1.34826e-06
5.80218e-07
5.80355e-07
3.43269e-07
3.2808e-07
1.34777e-06
3.2808e-07
1.3484e-06
5.80224e-07
1.69012e-06
8.69295e-06
8.69338e-06
1.68957e-06
1.69011e-06
8.69336e-06
8.69377e-06
1.68957e-06
2.38154e-05
2.38141e-05
2.38162e-05
2.38149e-05
3.73243e-07
2.82322e-06
2.82387e-06
2.8236e-06
2.82424e-06
2.38134e-05
2.38144e-05
2.38142e-05
2.38152e-05
2.38126e-05
2.38119e-05
2.38144e-05
2.38135e-05
2.82359e-06
2.82416e-06
3.73011e-07
2.82321e-06
2.82378e-06
2.38121e-05
2.38125e-05
2.38134e-05
2.3814e-05
3.7325e-07
2.82324e-06
2.82383e-06
2.82365e-06
2.82424e-06
1.68932e-06
8.69257e-06
1.68982e-06
8.69221e-06
5.80195e-07
1.34821e-06
3.28082e-07
3.43285e-07
5.8033e-07
1.34758e-06
3.28082e-07
5.80195e-07
1.34837e-06
3.28083e-07
3.43289e-07
5.80331e-07
1.34773e-06
3.28083e-07
1.68981e-06
8.69159e-06
8.69194e-06
1.68931e-06
1.68982e-06
8.69221e-06
8.69253e-06
1.68932e-06
5.8034e-07
3.43284e-07
1.34759e-06
3.28079e-07
1.34822e-06
3.28081e-07
5.80201e-07
5.8034e-07
3.43288e-07
1.34773e-06
3.28079e-07
1.34838e-06
3.28081e-07
5.80202e-07
2.82429e-06
2.82383e-06
3.73004e-07
2.82388e-06
2.82333e-06
2.38109e-05
2.38101e-05
2.38132e-05
2.38135e-05
3.73243e-07
2.82391e-06
2.82336e-06
2.82433e-06
2.82386e-06
2.38104e-05
2.38109e-05
5.80204e-07
1.34847e-06
3.28083e-07
3.43273e-07
5.80337e-07
1.34784e-06
3.28083e-07
1.68918e-06
8.69325e-06
1.68963e-06
8.69284e-06
5.80197e-07
3.28085e-07
1.34861e-06
3.43296e-07
5.80332e-07
3.28085e-07
1.34794e-06
1.68962e-06
8.69296e-06
8.69333e-06
1.68918e-06
5.80346e-07
3.43271e-07
1.34784e-06
3.28081e-07
1.34847e-06
3.28081e-07
5.80212e-07
1.68962e-06
8.69279e-06
8.69318e-06
1.68918e-06
5.80341e-07
3.43295e-07
3.28083e-07
1.34795e-06
3.28084e-07
1.34863e-06
5.80205e-07
1.68934e-06
8.69221e-06
1.68984e-06
8.69181e-06
5.80201e-07
3.28083e-07
1.34828e-06
3.43286e-07
5.80334e-07
3.28083e-07
1.34764e-06
1.68934e-06
8.69307e-06
1.68983e-06
8.6927e-06
5.80337e-07
3.4327e-07
1.34769e-06
3.2808e-07
1.34836e-06
3.28081e-07
5.80199e-07
1.68984e-06
8.69182e-06
8.69217e-06
1.68934e-06
5.80344e-07
3.43285e-07
3.2808e-07
1.34765e-06
3.28081e-07
1.34829e-06
5.80207e-07
1.68983e-06
8.69266e-06
8.69301e-06
1.68933e-06
2.82453e-06
2.82362e-06
3.73015e-07
2.82406e-06
2.82324e-06
2.38138e-05
2.3813e-05
2.38132e-05
2.38139e-05
3.73254e-07
2.82411e-06
2.8233e-06
2.82461e-06
2.8237e-06
2.38129e-05
2.38135e-05
5.80233e-07
3.28083e-07
1.34842e-06
3.43273e-07
5.80367e-07
3.28083e-07
1.34778e-06
1.68957e-06
8.69325e-06
1.69012e-06
8.69286e-06
1.68957e-06
8.69366e-06
1.69012e-06
8.6933e-06
5.80369e-07
3.43277e-07
3.28081e-07
1.34765e-06
3.28082e-07
1.34829e-06
5.80231e-07
5.80376e-07
3.43272e-07
3.28081e-07
1.34778e-06
3.28082e-07
1.34843e-06
5.8024e-07
1.69012e-06
8.6928e-06
8.69317e-06
1.68956e-06
1.69012e-06
8.69326e-06
8.69361e-06
1.68956e-06
2.38139e-05
2.38132e-05
2.38147e-05
2.3814e-05
3.73252e-07
2.82332e-06
2.82397e-06
2.82375e-06
2.82438e-06
2.38133e-05
2.38137e-05
2.38141e-05
2.38145e-05
2.38127e-05
2.38124e-05
2.3814e-05
2.38137e-05
2.82369e-06
2.82428e-06
3.73018e-07
2.82324e-06
2.82388e-06
2.38136e-05
2.38132e-05
2.38143e-05
2.38143e-05
3.73256e-07
2.82324e-06
2.82384e-06
2.82365e-06
2.82431e-06
1.68932e-06
8.69253e-06
1.68981e-06
8.69232e-06
5.80199e-07
1.34823e-06
3.28079e-07
3.43288e-07
5.80345e-07
1.34759e-06
3.28077e-07
5.802e-07
1.34838e-06
3.28078e-07
3.43291e-07
5.80345e-07
1.34774e-06
3.28077e-07
1.68979e-06
8.69185e-06
8.69194e-06
1.6893e-06
1.68981e-06
8.69291e-06
8.69276e-06
1.68931e-06
5.8034e-07
3.43287e-07
1.34763e-06
3.28074e-07
1.34823e-06
3.28074e-07
5.80198e-07
5.80341e-07
3.43289e-07
1.34783e-06
3.28074e-07
1.34839e-06
3.28074e-07
5.80199e-07
2.82435e-06
2.82388e-06
3.73008e-07
2.82386e-06
2.82332e-06
2.38112e-05
2.38111e-05
2.38148e-05
2.38147e-05
3.73246e-07
2.82397e-06
2.82344e-06
2.82431e-06
2.82384e-06
2.38121e-05
2.3812e-05
5.80214e-07
1.34848e-06
3.28079e-07
3.43274e-07
5.80353e-07
1.34785e-06
3.28078e-07
1.68917e-06
8.69314e-06
1.68961e-06
8.69279e-06
5.80208e-07
3.28082e-07
1.34863e-06
3.43298e-07
5.80348e-07
3.28081e-07
1.34795e-06
1.6896e-06
8.69309e-06
8.69332e-06
1.68916e-06
5.80352e-07
3.43271e-07
1.34786e-06
3.28074e-07
1.34848e-06
3.28075e-07
5.80207e-07
1.68961e-06
8.69286e-06
8.69314e-06
1.68916e-06
5.80349e-07
3.43295e-07
3.28077e-07
1.34795e-06
3.28077e-07
1.34863e-06
5.80203e-07
1.68934e-06
8.69217e-06
1.68982e-06
8.69194e-06
5.80204e-07
3.28079e-07
1.34829e-06
3.43288e-07
5.80348e-07
3.28077e-07
1.34765e-06
1.68934e-06
8.69298e-06
1.68982e-06
8.69266e-06
5.80339e-07
3.43268e-07
1.34779e-06
3.28074e-07
1.34838e-06
3.28075e-07
5.80199e-07
1.68983e-06
8.69253e-06
8.69241e-06
1.68933e-06
5.80343e-07
3.43286e-07
3.28074e-07
1.34768e-06
3.28074e-07
1.34829e-06
5.80202e-07
1.68982e-06
8.69291e-06
8.69301e-06
1.68933e-06
2.82464e-06
2.82374e-06
3.73022e-07
2.82414e-06
2.82334e-06
2.38136e-05
2.38132e-05
2.38141e-05
2.38142e-05
3.73259e-07
2.8241e-06
2.82329e-06
2.82466e-06
2.82377e-06
2.38141e-05
2.38139e-05
5.80237e-07
3.2808e-07
1.34843e-06
3.43275e-07
5.80381e-07
3.28078e-07
1.34778e-06
1.68956e-06
8.69311e-06
1.6901e-06
8.69277e-06
1.68956e-06
8.69359e-06
1.6901e-06
8.69328e-06
5.80372e-07
3.43276e-07
3.28075e-07
1.34766e-06
3.28076e-07
1.34829e-06
5.80232e-07
5.80376e-07
3.43273e-07
3.28075e-07
1.34782e-06
3.28075e-07
1.34843e-06
5.80236e-07
1.6901e-06
8.69275e-06
8.69308e-06
1.68956e-06
1.6901e-06
8.69353e-06
8.69362e-06
1.68956e-06
2.38139e-05
2.38136e-05
2.38147e-05
2.38144e-05
3.73257e-07
2.82333e-06
2.82397e-06
2.82375e-06
2.82438e-06
2.38148e-05
2.38144e-05
2.38155e-05
2.38152e-05
2.38144e-05
2.38142e-05
2.38152e-05
2.38157e-05
2.82374e-06
2.8243e-06
3.73017e-07
2.82345e-06
2.82405e-06
2.38139e-05
2.38147e-05
2.38158e-05
2.38163e-05
3.73254e-07
2.82345e-06
2.82421e-06
2.82393e-06
2.82458e-06
1.68955e-06
8.69344e-06
1.68984e-06
8.69393e-06
5.80216e-07
1.3483e-06
3.28073e-07
3.43283e-07
5.80345e-07
1.34777e-06
3.2807e-07
5.80216e-07
1.34853e-06
3.28073e-07
3.4328e-07
5.80345e-07
1.34797e-06
3.28069e-07
1.69014e-06
8.69365e-06
8.6933e-06
1.68969e-06
1.69014e-06
8.69454e-06
8.69448e-06
1.6897e-06
5.8036e-07
3.43274e-07
1.34781e-06
3.28035e-07
1.34845e-06
3.28061e-07
5.80187e-07
5.80359e-07
3.4326e-07
1.34794e-06
3.28029e-07
1.34865e-06
3.28059e-07
5.80185e-07
2.8245e-06
2.82404e-06
3.73002e-07
2.82415e-06
2.82362e-06
2.38128e-05
2.38124e-05
2.38149e-05
2.38156e-05
3.73233e-07
2.82401e-06
2.82348e-06
2.82462e-06
2.82417e-06
2.38121e-05
2.3813e-05
5.80216e-07
1.3485e-06
3.28074e-07
3.4327e-07
5.80346e-07
1.34795e-06
3.28073e-07
1.68924e-06
8.69329e-06
1.68959e-06
8.69337e-06
5.80213e-07
3.28076e-07
1.34865e-06
3.43293e-07
5.80344e-07
3.28075e-07
1.34805e-06
1.68979e-06
8.69462e-06
8.69415e-06
1.68953e-06
5.80363e-07
3.43266e-07
1.34808e-06
3.28061e-07
1.34864e-06
3.28069e-07
5.80224e-07
1.68978e-06
8.69442e-06
8.69393e-06
1.68953e-06
5.80361e-07
3.4329e-07
3.28063e-07
1.34818e-06
3.28072e-07
1.34878e-06
5.80219e-07
1.68956e-06
8.69309e-06
1.68986e-06
8.69351e-06
5.8022e-07
3.28073e-07
1.34836e-06
3.43281e-07
5.80347e-07
3.2807e-07
1.34782e-06
1.68956e-06
8.69337e-06
1.68985e-06
8.69372e-06
5.80359e-07
3.43239e-07
1.3479e-06
3.28027e-07
1.34863e-06
3.28057e-07
5.80187e-07
1.69016e-06
8.69416e-06
8.69412e-06
1.68972e-06
5.80362e-07
3.43271e-07
3.28032e-07
1.34786e-06
3.2806e-07
1.34851e-06
5.80191e-07
1.69016e-06
8.69475e-06
8.69434e-06
1.68971e-06
2.82462e-06
2.82375e-06
3.73024e-07
2.82422e-06
2.82342e-06
2.3815e-05
2.38152e-05
2.38155e-05
2.38161e-05
3.7326e-07
2.82439e-06
2.82355e-06
2.82483e-06
2.82394e-06
2.38151e-05
2.38158e-05
5.80256e-07
3.28074e-07
1.3485e-06
3.43268e-07
5.80382e-07
3.28071e-07
1.34796e-06
1.6898e-06
8.69312e-06
1.69014e-06
8.69329e-06
1.6898e-06
8.69399e-06
1.69015e-06
8.69433e-06
5.80396e-07
3.43268e-07
3.28041e-07
1.34784e-06
3.28064e-07
1.34843e-06
5.80227e-07
5.80399e-07
3.43258e-07
3.28036e-07
1.348e-06
3.28062e-07
1.34865e-06
5.8023e-07
1.69045e-06
8.69446e-06
8.69385e-06
1.68996e-06
1.69045e-06
8.69534e-06
8.69494e-06
1.68996e-06
2.38155e-05
2.38154e-05
2.38163e-05
2.38162e-05
3.73253e-07
2.82354e-06
2.82419e-06
2.82403e-06
2.82467e-06
2.38152e-05
2.38159e-05
2.3816e-05
2.38167e-05
2.38144e-05
2.38136e-05
2.38162e-05
2.38154e-05
2.82385e-06
2.82465e-06
3.72933e-07
2.82321e-06
2.82402e-06
2.38135e-05
2.38141e-05
2.38151e-05
2.38158e-05
3.73155e-07
2.82305e-06
2.82376e-06
2.82359e-06
2.82439e-06
1.68956e-06
8.69489e-06
1.69018e-06
8.69456e-06
5.80119e-07
1.34843e-06
3.27997e-07
3.43185e-07
5.80313e-07
1.3477e-06
3.27967e-07
5.80119e-07
1.34856e-06
3.27991e-07
3.43169e-07
5.80313e-07
1.34782e-06
3.27963e-07
1.69002e-06
8.69377e-06
8.69414e-06
1.68945e-06
1.69003e-06
8.6945e-06
8.69486e-06
1.68946e-06
5.80252e-07
3.4316e-07
1.34762e-06
3.2793e-07
1.34832e-06
3.27943e-07
5.80088e-07
5.80252e-07
3.43152e-07
1.34775e-06
3.2793e-07
1.34845e-06
3.2794e-07
5.80088e-07
2.8244e-06
2.82395e-06
3.72884e-07
2.82375e-06
2.8232e-06
2.38127e-05
2.38118e-05
2.38144e-05
2.3815e-05
3.73112e-07
2.82365e-06
2.82308e-06
2.82417e-06
2.82369e-06
2.38117e-05
2.38124e-05
5.8016e-07
1.34873e-06
3.28033e-07
3.4319e-07
5.80355e-07
1.34803e-06
3.27997e-07
1.6895e-06
8.69508e-06
1.69002e-06
8.69509e-06
5.80157e-07
3.28036e-07
1.34888e-06
3.43217e-07
5.80351e-07
3.27999e-07
1.34813e-06
1.6899e-06
8.69522e-06
8.69556e-06
1.68934e-06
5.80286e-07
3.43161e-07
1.34792e-06
3.27942e-07
1.34863e-06
3.27964e-07
5.80109e-07
1.68991e-06
8.69509e-06
8.69546e-06
1.68935e-06
5.80282e-07
3.43187e-07
3.27945e-07
1.34802e-06
3.27967e-07
1.34879e-06
5.80106e-07
1.68958e-06
8.69454e-06
1.6902e-06
8.69418e-06
5.80126e-07
3.27995e-07
1.3485e-06
3.43179e-07
5.80315e-07
3.27966e-07
1.34776e-06
1.68958e-06
8.69516e-06
1.6902e-06
8.69493e-06
5.80252e-07
3.43131e-07
1.34771e-06
3.27928e-07
1.34843e-06
3.2794e-07
5.80089e-07
1.69005e-06
8.69412e-06
8.69451e-06
1.68948e-06
5.80256e-07
3.43157e-07
3.2793e-07
1.34768e-06
3.27942e-07
1.34839e-06
5.80093e-07
1.69004e-06
8.69488e-06
8.69524e-06
1.68947e-06
2.82492e-06
2.82399e-06
3.72954e-07
2.82424e-06
2.8234e-06
2.38155e-05
2.38147e-05
2.38148e-05
2.38157e-05
3.73174e-07
2.82398e-06
2.82318e-06
2.8247e-06
2.82378e-06
2.38146e-05
2.38152e-05
5.80163e-07
3.27998e-07
1.34864e-06
3.43166e-07
5.80355e-07
3.27969e-07
1.3479e-06
1.68983e-06
8.69502e-06
1.6905e-06
8.69501e-06
1.68982e-06
8.69575e-06
1.6905e-06
8.69552e-06
5.80289e-07
3.43159e-07
3.27933e-07
1.3477e-06
3.27947e-07
1.34841e-06
5.80125e-07
5.80292e-07
3.43144e-07
3.27932e-07
1.34782e-06
3.27944e-07
1.34853e-06
5.80128e-07
1.69034e-06
8.69503e-06
8.69535e-06
1.68972e-06
1.69034e-06
8.69547e-06
8.69583e-06
1.6897e-06
2.38156e-05
2.38148e-05
2.38164e-05
2.38157e-05
3.73141e-07
2.82314e-06
2.82378e-06
2.82369e-06
2.82432e-06
2.38147e-05
2.38153e-05
2.38155e-05
2.38161e-05
2.3814e-05
2.38135e-05
2.38156e-05
2.38151e-05
2.82347e-06
2.82418e-06
3.7287e-07
2.823e-06
2.82367e-06
2.38137e-05
2.38139e-05
2.38153e-05
2.38156e-05
3.7311e-07
2.82296e-06
2.82363e-06
2.82343e-06
2.8241e-06
1.68942e-06
8.6948e-06
1.68994e-06
8.69449e-06
5.80079e-07
1.34825e-06
3.27928e-07
3.43141e-07
5.80227e-07
1.34759e-06
3.27927e-07
5.8008e-07
1.3484e-06
3.27929e-07
3.43145e-07
5.80227e-07
1.34773e-06
3.27928e-07
1.68991e-06
8.69389e-06
8.69405e-06
1.68941e-06
1.68992e-06
8.69463e-06
8.69478e-06
1.68942e-06
5.80221e-07
3.43139e-07
1.34755e-06
3.27926e-07
1.34821e-06
3.27926e-07
5.80079e-07
5.80222e-07
3.43143e-07
1.34769e-06
3.27926e-07
1.34836e-06
3.27926e-07
5.8008e-07
2.8241e-06
2.8236e-06
3.72869e-07
2.82363e-06
2.82306e-06
2.38123e-05
2.38117e-05
2.38147e-05
2.38149e-05
3.7311e-07
2.8236e-06
2.82303e-06
2.82407e-06
2.82358e-06
2.38119e-05
2.38123e-05
5.8009e-07
1.34853e-06
3.27932e-07
3.43129e-07
5.80241e-07
1.34786e-06
3.27929e-07
1.68928e-06
8.69542e-06
1.68977e-06
8.69506e-06
5.80087e-07
3.27935e-07
1.34868e-06
3.43153e-07
5.8024e-07
3.27932e-07
1.34796e-06
1.68972e-06
8.69532e-06
8.6955e-06
1.68927e-06
5.80228e-07
3.43126e-07
1.34782e-06
3.27926e-07
1.34848e-06
3.27926e-07
5.80088e-07
1.68973e-06
8.69516e-06
8.69536e-06
1.68927e-06
5.80226e-07
3.43151e-07
3.27929e-07
1.34791e-06
3.27929e-07
1.34862e-06
5.80084e-07
1.68944e-06
8.69445e-06
1.68996e-06
8.69411e-06
5.80084e-07
3.27929e-07
1.34832e-06
3.43144e-07
5.8023e-07
3.27928e-07
1.34765e-06
1.68943e-06
8.69518e-06
1.68995e-06
8.69487e-06
5.80221e-07
3.43123e-07
1.34765e-06
3.27925e-07
1.34834e-06
3.27926e-07
5.80081e-07
1.68994e-06
8.69424e-06
8.69443e-06
1.68944e-06
5.80225e-07
3.43142e-07
3.27927e-07
1.34761e-06
3.27927e-07
1.34828e-06
5.80085e-07
1.68993e-06
8.69499e-06
8.69515e-06
1.68944e-06
2.82447e-06
2.82359e-06
3.72876e-07
2.82388e-06
2.82309e-06
2.38151e-05
2.38145e-05
2.3815e-05
2.38154e-05
3.73116e-07
2.82382e-06
2.82303e-06
2.82438e-06
2.82351e-06
2.38148e-05
2.3815e-05
5.80117e-07
3.2793e-07
1.34846e-06
3.4313e-07
5.80264e-07
3.2793e-07
1.34778e-06
1.68963e-06
8.69534e-06
1.69016e-06
8.69502e-06
1.68966e-06
8.69577e-06
1.69024e-06
8.69545e-06
5.80252e-07
3.43131e-07
3.27927e-07
1.34761e-06
3.27928e-07
1.34827e-06
5.80109e-07
5.80258e-07
3.43128e-07
3.27928e-07
1.34775e-06
3.27928e-07
1.34842e-06
5.80118e-07
1.6901e-06
8.69514e-06
8.6953e-06
1.68953e-06
1.69022e-06
8.69558e-06
8.69573e-06
1.68967e-06
2.38152e-05
2.38147e-05
2.3816e-05
2.38155e-05
3.73121e-07
2.82305e-06
2.82369e-06
2.82353e-06
2.82416e-06
2.3815e-05
2.38152e-05
2.38158e-05
2.3816e-05
2.38139e-05
2.3815e-05
2.38155e-05
2.38166e-05
2.82332e-06
2.82399e-06
3.72883e-07
2.8228e-06
2.82346e-06
2.38159e-05
2.38137e-05
2.38175e-05
2.38153e-05
3.73122e-07
2.82316e-06
2.82382e-06
2.82301e-06
2.82368e-06
1.68947e-06
8.69476e-06
1.68996e-06
8.69511e-06
5.8008e-07
1.34811e-06
3.27928e-07
3.43141e-07
5.80222e-07
1.3474e-06
3.27928e-07
5.80081e-07
1.34826e-06
3.27929e-07
3.43145e-07
5.80223e-07
1.34755e-06
3.27928e-07
1.69004e-06
8.6952e-06
8.69418e-06
1.68954e-06
1.69004e-06
8.69594e-06
8.69492e-06
1.68954e-06
5.80218e-07
3.43139e-07
1.34704e-06
3.27925e-07
1.34782e-06
3.27926e-07
5.80079e-07
5.80219e-07
3.43142e-07
1.34719e-06
3.27925e-07
1.34798e-06
3.27926e-07
5.8008e-07
2.82397e-06
2.82348e-06
3.72876e-07
2.82343e-06
2.82285e-06
2.38123e-05
2.38133e-05
2.38169e-05
2.38146e-05
3.73114e-07
2.82377e-06
2.82289e-06
2.82367e-06
2.82314e-06
2.38148e-05
2.38123e-05
5.8009e-07
1.34837e-06
3.2793e-07
3.43129e-07
5.80227e-07
1.34767e-06
3.2793e-07
1.68932e-06
8.69533e-06
1.68975e-06
8.69565e-06
5.80085e-07
3.27933e-07
1.34851e-06
3.43153e-07
5.80225e-07
3.27933e-07
1.34776e-06
1.68984e-06
8.69664e-06
8.69561e-06
1.68939e-06
5.80225e-07
3.43127e-07
1.34731e-06
3.27926e-07
1.34808e-06
3.27927e-07
5.80089e-07
1.68984e-06
8.69648e-06
8.69547e-06
1.68939e-06
5.80222e-07
3.43151e-07
3.27929e-07
1.3474e-06
3.2793e-07
1.34823e-06
5.80085e-07
1.68949e-06
8.69441e-06
1.68997e-06
8.69473e-06
5.80086e-07
3.27929e-07
1.34818e-06
3.43144e-07
5.80225e-07
3.27929e-07
1.34747e-06
1.68949e-06
8.69513e-06
1.68997e-06
8.69548e-06
5.80218e-07