/*--------------------------------*- C++ -*----------------------------------*\
| =========                 |                                                 |
| \\      /  F ield         | OpenFOAM: The Open Source CFD Toolbox           |
|  \\    /   O peration     | Version:  2206                                  |
|   \\  /    A nd           | Website:  www.openfoam.com                      |
|    \\/     M anipulation  |                                                 |
\*---------------------------------------------------------------------------*/
FoamFile
{
    version     2.0;
    format      ascii;
    arch        "LSB;label=32;scalar=64";
    class       surfaceScalarField;
    location    "22";
    object      phi;
}
// * * * * * * * * * * * * * * * * * * * * * * * * * * * * * * * * * * * * * //

dimensions      [0 3 -1 0 0 0 0];

oriented        oriented;

internalField   nonuniform List<scalar> 
83378
(
-0.00107964
-1.19355e-06
-1.40462e-09
2.33843e-09
0.00107964
-2.43912e-07
1.19586e-06
2.42978e-07
8.76697e-07
-2.40498e-07
-8.76519e-07
2.38024e-07
1.22166e-06
1.1883e-06
-2.24488e-07
-2.2974e-07
0.000263424
1.51145e-09
1.4489e-09
-0.00107933
-1.33704e-09
-1.46503e-09
0.00107933
-0.00107964
-1.19351e-06
-1.60147e-09
2.2331e-09
0.00107964
-2.43856e-07
1.19589e-06
2.43029e-07
8.76753e-07
-2.4041e-07
-8.76458e-07
2.38101e-07
-0.0010793
-1.18817e-06
-1.57629e-09
2.36352e-09
0.0010793
-2.43885e-07
1.19047e-06
2.42997e-07
8.76578e-07
-2.43065e-07
-8.76337e-07
2.4077e-07
-0.00026538
1.22164e-06
1.18827e-06
-2.24452e-07
-2.29709e-07
0.000263424
1.77024e-09
1.68082e-09
-0.00107933
-1.45991e-09
-1.56907e-09
0.00107933
-0.00107963
-1.19346e-06
-1.86365e-09
2.08693e-09
0.00107963
-2.43799e-07
1.19597e-06
2.4311e-07
8.76838e-07
-2.40319e-07
-8.76394e-07
2.38226e-07
-0.0010793
-1.18813e-06
-1.80696e-09
2.25704e-09
0.0010793
-2.43824e-07
1.19052e-06
2.43073e-07
8.76642e-07
-2.42987e-07
-8.7629e-07
2.40871e-07
-0.00026538
1.22159e-06
1.18822e-06
-2.2439e-07
-2.29646e-07
0.000263424
1.93763e-09
1.84711e-09
-0.00107933
-1.5981e-09
-1.60783e-09
0.00107933
-0.00107963
-1.19337e-06
-2.20765e-09
1.85337e-09
0.00107963
-2.4371e-07
1.19613e-06
2.4328e-07
8.76969e-07
-2.40256e-07
-8.76347e-07
2.38375e-07
-0.00107929
-1.1881e-06
-1.90551e-09
2.19273e-09
0.00107929
-2.43802e-07
1.19055e-06
2.43111e-07
8.76673e-07
-2.42971e-07
-8.76297e-07
2.40916e-07
-0.000265379
1.22157e-06
1.18824e-06
-2.24414e-07
-2.2964e-07
0.000263423
-1.54122e-10
9.71106e-10
-0.00107933
-1.23243e-09
-6.2753e-10
0.00107933
-0.00107963
-1.19395e-06
1.07774e-10
3.13085e-09
0.00107963
-2.44414e-07
1.19555e-06
2.426e-07
8.76168e-07
-2.41182e-07
-8.77089e-07
2.37381e-07
-0.00107929
-1.18814e-06
-6.48654e-10
2.22226e-09
0.00107929
-2.43861e-07
1.19046e-06
2.42954e-07
8.76198e-07
-2.43341e-07
-8.76717e-07
2.40451e-07
-0.000265379
1.22193e-06
1.18866e-06
-2.24868e-07
-2.30048e-07
0.000263423
1.27362e-09
8.5204e-10
-0.00107933
-1.03705e-09
-1.38561e-09
0.00107934
-0.00107964
-1.19356e-06
-1.45642e-09
2.16714e-09
0.00107964
-2.43909e-07
1.19594e-06
2.43083e-07
8.76781e-07
-2.40678e-07
-8.7659e-07
2.38026e-07
-0.0010793
-1.18839e-06
-1.06873e-09
2.69989e-09
0.0010793
-2.44107e-07
1.19041e-06
2.42928e-07
8.76505e-07
-2.43559e-07
-8.76578e-07
2.40513e-07
-0.00026538
1.22172e-06
1.18832e-06
-2.24527e-07
-2.29815e-07
0.000263424
1.4931e-09
1.52728e-09
-0.00107934
-1.39907e-09
-1.47299e-09
0.00107934
-0.00107964
-1.19354e-06
-1.58882e-09
2.19303e-09
0.00107964
-2.43896e-07
1.19591e-06
2.43024e-07
8.76706e-07
-2.40478e-07
-8.76499e-07
2.37982e-07
-0.0010793
-1.18816e-06
-1.59571e-09
2.21267e-09
0.0010793
-2.43844e-07
1.19052e-06
2.43045e-07
8.7653e-07
-2.4312e-07
-8.76384e-07
2.40663e-07
-0.00026538
1.22165e-06
1.18828e-06
-2.24458e-07
-2.29718e-07
0.000263424
1.07037e-09
1.16643e-09
-0.00107934
-1.25479e-09
-1.2686e-09
0.00107934
-0.00107964
-1.19333e-06
-1.1941e-09
2.02861e-09
0.00107964
-2.43684e-07
1.19572e-06
2.42836e-07
8.75646e-07
-2.38845e-07
-8.75674e-07
2.35832e-07
-0.0010793
-1.18797e-06
-1.2067e-09
2.03771e-09
0.0010793
-2.43649e-07
1.19034e-06
2.42814e-07
8.75476e-07
-2.41483e-07
-8.75541e-07
2.38508e-07
-0.00026538
1.22145e-06
1.18809e-06
-2.24131e-07
-2.29381e-07
0.000263424
-7.48649e-12
8.71365e-11
-0.00107933
-1.51371e-09
-1.50865e-09
0.00107934
-0.00107964
-1.19213e-06
-1.15413e-10
2.35504e-09
0.00107964
-2.41411e-07
1.19396e-06
2.39552e-07
8.73631e-07
-2.35158e-07
-8.73574e-07
2.32525e-07
-0.0010793
-1.18677e-06
-1.44109e-10
2.36727e-09
0.0010793
-2.41386e-07
1.18857e-06
2.39534e-07
8.73463e-07
-2.37798e-07
-8.73448e-07
2.35212e-07
-0.000265382
1.22025e-06
1.18689e-06
-2.21599e-07
-2.26852e-07
0.000263423
-7.75469e-09
-7.65872e-09
-0.00107933
2.05704e-09
2.09078e-09
0.00107934
-0.00107964
-1.19206e-06
7.65027e-09
7.00699e-09
0.00107963
-2.41915e-07
1.19275e-06
2.3901e-07
8.71027e-07
-2.34624e-07
-8.74286e-07
2.28043e-07
-0.0010793
-1.18669e-06
7.62402e-09
6.99646e-09
0.0010793
-2.41917e-07
1.18736e-06
2.3902e-07
8.70852e-07
-2.37273e-07
-8.74092e-07
2.30718e-07
-0.000265383
1.22016e-06
1.18681e-06
-2.20747e-07
-2.25993e-07
0.000263423
1.13487e-09
1.32474e-09
-0.00107933
-4.28463e-09
-9.28127e-09
0.00107934
-0.00107964
-1.1888e-06
3.86296e-09
6.67842e-10
0.00107964
-2.36461e-07
1.19045e-06
2.37887e-07
8.6539e-07
-2.24712e-07
-8.68047e-07
2.16564e-07
-0.00107931
-1.18075e-06
-1.33349e-09
5.71786e-09
0.00107932
-2.3639e-07
1.18241e-06
2.35173e-07
8.6254e-07
-2.24663e-07
-8.65184e-07
2.19261e-07
-0.000265393
1.21954e-06
1.18351e-06
-2.11339e-07
-2.16551e-07
0.000263418
8.19292e-07
8.2628e-07
-0.00107919
-7.03429e-07
-6.93358e-07
0.00107894
-0.00107991
-1.09433e-06
-8.20471e-07
-3.62494e-07
0.00108021
-1.5551e-07
1.34858e-06
3.29382e-07
1.0102e-06
-1.1862e-07
-7.59941e-07
3.15679e-07
-0.00107958
-1.08618e-06
-8.31096e-07
-3.73327e-07
0.00107991
-1.55363e-07
1.34334e-06
3.32234e-07
1.00727e-06
-1.2403e-07
-7.57065e-07
3.18383e-07
-0.00026547
1.12773e-06
1.08634e-06
-1.22954e-07
-1.25471e-07
0.000263504
4.94188e-06
4.93526e-06
-0.0010653
-1.05342e-05
-1.04376e-05
0.000258587
0.000261966
0.000261048
0.000261048
4.00697e-06
6.28315e-06
6.57733e-06
4.01069e-06
6.2839e-06
6.58066e-06
-0.000267087
5.10667e-06
-4.93264e-06
5.7004e-06
-3.24209e-06
0.000264455
-0.000267064
-4.93484e-06
5.11188e-06
-3.24996e-06
5.69745e-06
0.000264439
-0.000265907
-5.1037e-06
-5.11468e-06
5.7203e-06
5.70848e-06
0.000264696
1.23466e-06
0.00107929
-1.23239e-06
2.51091e-07
-2.52095e-07
2.40689e-07
-2.43317e-07
-1.19586e-06
0.000265425
-0.000263451
2.27001e-07
2.29282e-07
-1.19355e-06
2.42976e-07
-2.43911e-07
2.38005e-07
-2.40515e-07
-1.22923e-06
-1.19324e-06
0.000265396
-0.00026343
2.2427e-07
2.31997e-07
2.49308e-09
0.00107886
-2.49326e-07
2.48298e-07
8.76606e-07
-2.40475e-07
-8.76482e-07
2.37919e-07
-1.2324e-06
-1.20601e-09
2.4583e-09
0.00107929
-2.52096e-07
1.23466e-06
2.51093e-07
8.82164e-07
-2.43299e-07
-8.82074e-07
2.40708e-07
0.00107886
-1.46682e-09
-0.00107886
2.49111e-09
-1.22697e-06
2.48311e-07
-2.49308e-07
-8.76425e-07
2.37999e-07
-2.40387e-07
8.76662e-07
1.23469e-06
0.00107929
-1.36566e-09
-0.00107929
2.34366e-09
-1.23237e-06
2.51137e-07
-2.52049e-07
-8.82024e-07
2.40774e-07
-2.43223e-07
8.82205e-07
-2.24701e-07
-2.27001e-07
0.000263451
-1.19589e-06
0.000265425
-0.00026345
2.27038e-07
2.29319e-07
0.0010799
-1.40021e-09
-0.0010799
2.27281e-09
-1.19092e-06
2.45789e-07
-2.46661e-07
-8.79208e-07
2.40802e-07
-2.43229e-07
8.79463e-07
1.2293e-06
0.00107897
-1.25236e-09
-0.00107897
2.47095e-09
-1.22703e-06
2.51082e-07
-2.52072e-07
-8.79195e-07
2.40716e-07
-2.4319e-07
8.79326e-07
-1.30696e-09
2.47639e-09
0.00107877
-2.46543e-07
1.22392e-06
2.45572e-07
8.76622e-07
-2.40485e-07
2.37911e-07
-8.76532e-07
-1.57643e-09
-0.00107964
2.23557e-09
-1.19352e-06
2.43018e-07
-2.43868e-07
-8.76467e-07
2.38091e-07
8.76739e-07
-2.40421e-07
1.22393e-06
0.00107877
-1.42887e-09
-0.00107877
2.45518e-09
-1.22165e-06
2.4559e-07
-2.4652e-07
-8.7648e-07
2.37982e-07
-2.40402e-07
8.76661e-07
-1.19047e-06
0.000265375
-0.000263411
2.24435e-07
2.31806e-07
-1.23824e-09
2.31656e-09
0.00107981
-2.43972e-07
1.19057e-06
2.43029e-07
8.76792e-07
-2.43289e-07
2.4072e-07
-8.76646e-07
-1.51917e-09
-0.0010793
2.37856e-09
-1.18818e-06
2.4299e-07
-2.439e-07
-8.76303e-07
2.4073e-07
8.76618e-07
-2.43109e-07
1.19058e-06
0.00107981
-1.3399e-09
-0.00107981
2.2479e-09
-1.18828e-06
2.43054e-07
-2.43942e-07
-8.76594e-07
2.40787e-07
-2.4321e-07
8.76835e-07
-0.000263424
2.26769e-07
2.32033e-07
1.22696e-06
1.19091e-06
-2.21941e-07
-2.29678e-07
0.00026343
-1.22928e-06
-1.19328e-06
0.000265396
-0.000263429
2.2433e-07
2.32057e-07
2.46008e-09
0.00107886
-2.49296e-07
1.22924e-06
2.48329e-07
8.76672e-07
-2.40372e-07
-8.76417e-07
2.38014e-07
-1.23236e-06
-1.39295e-09
2.33894e-09
0.00107929
-2.52038e-07
1.23469e-06
2.51147e-07
8.82218e-07
-2.43212e-07
-8.82014e-07
2.40783e-07
0.00107886
-1.66694e-09
-0.00107886
2.40866e-09
-1.22693e-06
2.48381e-07
-2.49245e-07
-8.76376e-07
2.38091e-07
-2.40316e-07
8.7673e-07
1.23474e-06
0.00107929
-1.60694e-09
-0.00107929
2.2295e-09
-1.23231e-06
2.51196e-07
-2.51987e-07
-8.81966e-07
2.40868e-07
-2.43142e-07
8.82275e-07
-2.24655e-07
-2.26955e-07
0.00026345
-1.19594e-06
0.000265424
-0.00026345
2.27107e-07
2.29391e-07
2.24949e-09
0.0010799
-2.46649e-07
1.19325e-06
2.458e-07
8.79474e-07
-2.43211e-07
-8.79193e-07
2.40825e-07
-1.22702e-06
-1.31504e-09
2.46198e-09
0.00107897
-2.5206e-07
1.2293e-06
2.51084e-07
8.79341e-07
-2.43166e-07
-8.79173e-07
2.40731e-07
0.0010799
-1.55803e-09
-0.0010799
2.20558e-09
-1.19089e-06
2.45853e-07
-2.46608e-07
-8.79172e-07
2.40884e-07
-2.43161e-07
8.79509e-07
1.22933e-06
0.00107897
-1.37975e-09
-0.00107897
2.4136e-09
-1.227e-06
2.51134e-07
-2.5203e-07
-8.79163e-07
2.40788e-07
-2.43129e-07
8.79361e-07
-1.50103e-09
2.41914e-09
0.00107877
-2.46508e-07
1.22394e-06
2.45609e-07
8.76681e-07
-2.40385e-07
2.38005e-07
-8.76468e-07
-1.80938e-09
-0.00107964
2.11519e-09
-1.19347e-06
2.43078e-07
-2.43807e-07
-8.7641e-07
2.38187e-07
8.76809e-07
-2.40341e-07
1.22398e-06
0.00107876
-1.62361e-09
-0.00107877
2.3736e-09
-1.22161e-06
2.45662e-07
-2.4646e-07
-8.76435e-07
2.38076e-07
-2.40329e-07
8.76728e-07
-2.22137e-07
-2.2948e-07
0.000263411
-1.1905e-06
0.000265375
-0.000263411
2.24487e-07
2.31852e-07
-1.41116e-09
2.20684e-09
0.00107981
-2.43929e-07
1.19059e-06
2.43073e-07
8.76857e-07
-2.43192e-07
2.40811e-07
-8.76576e-07
-1.66901e-09
-0.0010793
2.30797e-09
-1.18814e-06
2.43045e-07
-2.43851e-07
-8.76269e-07
2.40808e-07
8.76663e-07
-2.43046e-07
1.19063e-06
0.00107981
-1.5357e-09
-0.00107981
2.17176e-09
-1.18824e-06
2.43127e-07
-2.4388e-07
-8.76555e-07
2.40879e-07
-2.4314e-07
8.76893e-07
-0.000263424
2.26838e-07
2.32102e-07
1.22691e-06
1.19086e-06
-2.21879e-07
-2.29625e-07
0.000263429
-1.2293e-06
-1.19328e-06
0.000265395
-0.000263429
2.24356e-07
2.32126e-07
2.32712e-09
0.00107886
-2.49235e-07
1.2293e-06
2.48391e-07
8.76738e-07
-2.40287e-07
-8.76355e-07
2.38115e-07
-1.2323e-06
-1.66616e-09
2.20573e-09
0.00107929
-2.51981e-07
1.23477e-06
2.51227e-07
8.82304e-07
-2.43121e-07
-8.81948e-07
2.40907e-07
0.00107885
-1.61044e-09
-0.00107886
2.37346e-09
-1.2269e-06
2.48393e-07
-2.49238e-07
-8.76372e-07
2.38107e-07
-2.40297e-07
8.76717e-07
1.23477e-06
0.00107929
-1.74366e-09
-0.00107929
2.20532e-09
-1.23232e-06
2.51234e-07
-2.52004e-07
-8.81949e-07
2.40929e-07
-2.43128e-07
8.82318e-07
-2.246e-07
-2.26896e-07
0.00026345
-1.19597e-06
0.000265424
-0.00026345
2.27147e-07
2.29425e-07
2.14287e-09
0.0010799
-2.46585e-07
1.1933e-06
2.45867e-07
8.79544e-07
-2.4314e-07
-8.79143e-07
2.40912e-07
-1.22697e-06
-1.51506e-09
2.36831e-09
0.00107897
-2.51995e-07
1.22936e-06
2.51163e-07
8.79403e-07
-2.43093e-07
-8.79135e-07
2.40831e-07
0.0010799
-1.6917e-09
-0.0010799
2.25887e-09
-1.19086e-06
2.45855e-07
-2.46589e-07
-8.79117e-07
2.40952e-07
-2.43109e-07
8.7958e-07
1.22938e-06
0.00107897
-1.55473e-09
-0.00107897
2.34657e-09
-1.22694e-06
2.51195e-07
-2.51963e-07
-8.79083e-07
2.40897e-07
-2.43037e-07
8.7946e-07
-1.74751e-09
2.29441e-09
0.00107876
-2.46447e-07
1.22399e-06
2.4567e-07
8.76743e-07
-2.40304e-07
2.38098e-07
-8.7641e-07
-1.91351e-09
-0.00107963
2.06369e-09
-1.19348e-06
2.43122e-07
-2.43819e-07
-8.76398e-07
2.3824e-07
8.76846e-07
-2.40333e-07
1.22397e-06
0.00107876
-1.5637e-09
-0.00107876
2.38338e-09
-1.22159e-06
2.45658e-07
-2.46458e-07
-8.76436e-07
2.38084e-07
-2.40319e-07
8.76711e-07
-2.22087e-07
-2.29429e-07
0.000263411
-1.19056e-06
0.000265374
-0.000263411
2.24582e-07
2.31931e-07
-1.67206e-09
2.09942e-09
0.00107981
-2.43868e-07
1.19064e-06
2.43132e-07
8.76913e-07
-2.43113e-07
2.40903e-07
-8.76526e-07
-1.72386e-09
-0.00107929
2.21421e-09
-1.18809e-06
2.43105e-07
-2.43799e-07
-8.76226e-07
2.40878e-07
8.76701e-07
-2.42984e-07
1.1906e-06
0.0010798
-1.57952e-09
-0.0010798
2.28508e-09
-1.18825e-06
2.43095e-07
-2.43902e-07
-8.76525e-07
2.4091e-07
-2.43108e-07
8.76907e-07
-0.000263424
2.26842e-07
2.32133e-07
1.22687e-06
1.19089e-06
-2.21907e-07
-2.29571e-07
0.000263429
-1.22933e-06
-1.1931e-06
0.000265394
-0.000263428
2.24114e-07
2.32145e-07
2.14765e-09
0.00107885
-2.49203e-07
1.22939e-06
2.48499e-07
8.76792e-07
-2.40289e-07
-8.76374e-07
2.38178e-07
-1.23222e-06
-2.05233e-09
1.99703e-09
0.00107929
-2.51898e-07
1.23493e-06
2.5139e-07
8.82444e-07
-2.43047e-07
-8.81893e-07
2.41069e-07
0.00107885
-6.15172e-10
-0.00107885
2.21048e-09
-1.22685e-06
2.48328e-07
-2.49265e-07
-8.76583e-07
2.37799e-07
-2.40505e-07
8.76422e-07
1.23433e-06
0.00107929
-1.40068e-10
-0.00107929
3.44174e-09
-1.23269e-06
2.50681e-07
-2.52491e-07
-8.82297e-07
2.40325e-07
-2.43602e-07
8.81865e-07
-2.24519e-07
-2.26823e-07
0.00026345
-1.19555e-06
0.000265423
-0.000263449
2.26639e-07
2.28914e-07
2.15859e-09
0.0010799
-2.46621e-07
1.1933e-06
2.45873e-07
8.79606e-07
-2.43092e-07
-8.79104e-07
2.41014e-07
-1.22698e-06
-1.56609e-09
2.3938e-09
0.00107897
-2.52007e-07
1.22934e-06
2.51148e-07
8.79422e-07
-2.43062e-07
-8.79107e-07
2.40868e-07
0.0010799
-1.90091e-09
-0.0010799
2.7619e-09
-1.19097e-06
2.45632e-07
-2.46738e-07
-8.79019e-07
2.40993e-07
-2.4307e-07
8.79664e-07
1.22944e-06
0.00107896
-2.06601e-09
-0.00107896
2.16492e-09
-1.22686e-06
2.5125e-07
-2.51892e-07
-8.78944e-07
2.41028e-07
-2.42918e-07
8.79593e-07
-1.91172e-09
2.12286e-09
0.00107876
-2.46428e-07
1.22408e-06
2.4577e-07
8.7681e-07
-2.40302e-07
2.38179e-07
-8.76425e-07
-2.87459e-10
-0.00107963
3.21453e-09
-1.19383e-06
2.42581e-07
-2.44292e-07
-8.76749e-07
2.37638e-07
8.76394e-07
-2.40808e-07
1.22386e-06
0.00107876
-5.81007e-10
-0.00107876
2.52602e-09
-1.22165e-06
2.45479e-07
-2.46577e-07
-8.76645e-07
2.37776e-07
-2.40538e-07
8.76425e-07
-2.22024e-07
-2.29401e-07
0.000263411
-1.19072e-06
0.000265376
-0.00026341
2.24726e-07
2.29433e-07
-1.96101e-09
2.05101e-09
0.0010798
-2.43883e-07
1.1907e-06
2.43197e-07
8.77014e-07
-2.43084e-07
2.41013e-07
-8.76508e-07
-1.53812e-09
-0.00107929
1.77731e-09
-1.18794e-06
2.43203e-07
-2.43676e-07
-8.76308e-07
2.40816e-07
8.76572e-07
-2.4302e-07
1.1904e-06
0.0010798
-1.00723e-09
-0.0010798
2.9602e-09
-1.18839e-06
2.42843e-07
-2.44094e-07
-8.76667e-07
2.40667e-07
-2.43266e-07
8.76691e-07
-0.000263423
2.26601e-07
2.31945e-07
1.22707e-06
1.19129e-06
-2.2236e-07
-2.29761e-07
0.000263428
-1.22911e-06
-1.19326e-06
0.000265396
-0.000263429
2.2422e-07
2.31765e-07
2.67645e-09
0.00107885
-2.49531e-07
1.22911e-06
2.48104e-07
8.76101e-07
-2.40978e-07
-8.76994e-07
2.37359e-07
-1.2328e-06
1.92254e-10
3.34202e-09
0.00107929
-2.52608e-07
1.23434e-06
2.50709e-07
8.81647e-07
-2.43976e-07
-8.82634e-07
2.40071e-07
0.00107886
-8.86538e-10
-0.00107886
2.86208e-09
-1.22724e-06
2.48221e-07
-2.49564e-07
-8.76743e-07
2.37705e-07
-2.40943e-07
8.7656e-07
1.23473e-06
0.00107929
-9.32256e-10
-0.00107929
2.28918e-09
-1.23244e-06
2.51192e-07
-2.52128e-07
-8.82302e-07
2.40574e-07
-2.43654e-07
8.82141e-07
-2.252e-07
-2.27505e-07
0.000263449
-1.19592e-06
0.000265425
-0.00026345
2.2702e-07
2.29305e-07
3.21086e-09
0.0010799
-2.47113e-07
1.19284e-06
2.45313e-07
8.79318e-07
-2.43343e-07
-8.79306e-07
2.40673e-07
-1.22713e-06
-1.13065e-09
2.75209e-09
0.00107896
-2.52182e-07
1.22913e-06
2.50908e-07
8.79216e-07
-2.432e-07
-8.79238e-07
2.40645e-07
0.0010799
-3.66003e-10
-0.0010799
2.34533e-09
-1.19106e-06
2.45814e-07
-2.46838e-07
-8.79746e-07
2.40274e-07
-2.43961e-07
8.79133e-07
1.22917e-06
0.00107897
1.00227e-12
-0.00107897
2.8803e-09
-1.22731e-06
2.50908e-07
-2.52434e-07
-8.79739e-07
2.4014e-07
-2.43971e-07
8.78985e-07
1.27928e-10
2.93899e-09
0.00107876
-2.46881e-07
1.22365e-06
2.45249e-07
8.76137e-07
-2.40974e-07
2.37385e-07
-8.77027e-07
-1.15186e-09
-0.00107964
2.20795e-09
-1.1936e-06
2.43072e-07
-2.43947e-07
-8.76749e-07
2.37891e-07
8.76675e-07
-2.40859e-07
1.2239e-06
0.00107877
-8.65503e-10
-0.00107877
2.69547e-09
-1.22182e-06
2.45567e-07
-2.46716e-07
-8.76799e-07
2.37681e-07
-2.40955e-07
8.76555e-07
-2.22045e-07
-2.2702e-07
0.00026341
-1.19026e-06
0.000265377
-0.000263411
2.24103e-07
2.29029e-07
-1.16936e-10
3.24979e-09
0.0010798
-2.44399e-07
1.19021e-06
2.42616e-07
8.76377e-07
-2.43706e-07
2.40259e-07
-8.77059e-07
-5.96091e-10
-0.00107929
2.95812e-09
-1.18853e-06
2.42714e-07
-2.4432e-07
-8.76674e-07
2.40264e-07
8.76444e-07
-2.43802e-07
1.19059e-06
0.00107981
-6.47987e-10
-0.00107981
2.29997e-09
-1.18843e-06
2.43058e-07
-2.44121e-07
-8.76947e-07
2.40466e-07
-2.43778e-07
8.7669e-07
-0.000263424
2.26697e-07
2.31937e-07
1.22712e-06
1.19093e-06
-2.21998e-07
-2.29891e-07
0.00026343
-1.22928e-06
-1.19328e-06
0.000265396
-0.00026343
2.24277e-07
2.32024e-07
2.65769e-09
0.00107886
-2.4945e-07
1.22922e-06
2.48314e-07
8.76671e-07
-2.40707e-07
-8.76581e-07
2.37891e-07
-1.2324e-06
-1.22355e-09
2.23938e-09
0.00107929
-2.52085e-07
1.23475e-06
2.51208e-07
8.82241e-07
-2.43484e-07
-8.82149e-07
2.40699e-07
0.00107886
-1.32403e-09
-0.00107886
2.53848e-09
-1.22698e-06
2.48353e-07
-2.49336e-07
-8.76485e-07
2.37956e-07
-2.40483e-07
8.76659e-07
1.2347e-06
0.00107929
-1.17115e-09
-0.00107929
2.47243e-09
-1.23239e-06
2.51147e-07
-2.52097e-07
-8.82091e-07
2.40712e-07
-2.43337e-07
8.82196e-07
-2.24726e-07
-2.27016e-07
0.000263451
-1.1959e-06
0.000265425
-0.000263451
2.27032e-07
2.29318e-07
2.14157e-09
0.0010799
-2.46673e-07
1.19334e-06
2.45914e-07
8.79335e-07
-2.43774e-07
-8.79544e-07
2.40502e-07
-1.22716e-06
-5.82387e-10
2.63708e-09
0.00107897
-2.52241e-07
1.22931e-06
2.51082e-07
8.79186e-07
-2.43765e-07
-8.79539e-07
2.40385e-07
0.0010799
-1.28428e-09
-0.0010799
2.31285e-09
-1.19093e-06
2.45832e-07
-2.46679e-07
-8.79259e-07
2.40771e-07
-2.43327e-07
8.79473e-07
1.22934e-06
0.00107897
-1.15673e-09
-0.00107897
2.48703e-09
-1.22702e-06
2.51138e-07
-2.52069e-07
-8.79239e-07
2.40689e-07
-2.43283e-07
8.7934e-07
-1.28291e-09
2.51244e-09
0.00107877
-2.46596e-07
1.22397e-06
2.4565e-07
8.76675e-07
-2.40727e-07
2.37869e-07
-8.76635e-07
-1.38573e-09
-0.00107964
2.36006e-09
-1.19355e-06
2.43027e-07
-2.43919e-07
-8.76532e-07
2.38036e-07
8.76734e-07
-2.40532e-07
1.22396e-06
0.00107877
-1.27975e-09
-0.00107877
2.52406e-09
-1.22167e-06
2.45625e-07
-2.46549e-07
-8.76545e-07
2.37937e-07
-2.40501e-07
8.76656e-07
-2.22429e-07
-2.27151e-07
0.000263411
-1.19053e-06
0.000265378
-0.000263412
2.24472e-07
2.29286e-07
-1.05372e-09
2.10348e-09
0.00107981
-2.43983e-07
1.19066e-06
2.4315e-07
8.76812e-07
-2.43561e-07
2.40648e-07
-8.76787e-07
-1.37915e-09
-0.0010793
2.40101e-09
-1.18817e-06
2.43023e-07
-2.43896e-07
-8.76383e-07
2.40688e-07
8.76602e-07
-2.43212e-07
1.19062e-06
0.00107981
-1.17615e-09
-0.00107981
2.2961e-09
-1.18829e-06
2.43097e-07
-2.43958e-07
-8.76666e-07
2.40736e-07
-2.43318e-07
8.76822e-07
-0.000263424
2.26781e-07
2.32039e-07
1.22696e-06
1.19093e-06
-2.21952e-07
-2.29671e-07
0.00026343
-1.22919e-06
-1.19317e-06
0.000265396
-0.00026343
2.24067e-07
2.3182e-07
2.34343e-09
0.00107886
-2.49307e-07
1.22928e-06
2.48353e-07
8.76619e-07
-2.40432e-07
-8.7646e-07
2.37896e-07
-1.23238e-06
-1.38412e-09
2.30659e-09
0.00107929
-2.52077e-07
1.23471e-06
2.51143e-07
8.82169e-07
-2.4328e-07
-8.82056e-07
2.40659e-07
0.00107886
-1.10992e-09
-0.00107886
2.75846e-09
-1.22684e-06
2.48249e-07
-2.49167e-07
-8.75998e-07
2.36828e-07
-2.39597e-07
8.76109e-07
1.23461e-06
0.00107929
-9.92669e-10
-0.00107929
2.75863e-09
-1.23226e-06
2.51033e-07
-2.51943e-07
-8.81594e-07
2.39594e-07
-2.42439e-07
8.81653e-07
-2.24678e-07
-2.26976e-07
0.000263451
-1.19581e-06
0.000265425
-0.00026345
2.26835e-07
2.29118e-07
2.1718e-09
0.0010799
-2.46669e-07
1.19327e-06
2.45817e-07
8.79453e-07
-2.43251e-07
-8.7921e-07
2.40732e-07
-1.22702e-06
-1.41254e-09
2.33939e-09
0.00107897
-2.52059e-07
1.22933e-06
2.51122e-07
8.79318e-07
-2.43202e-07
-8.79193e-07
2.4065e-07
0.0010799
-1.16866e-09
-0.0010799
2.6328e-09
-1.19081e-06
2.45702e-07
-2.46543e-07
-8.78754e-07
2.39665e-07
-2.42403e-07
8.78936e-07
1.22923e-06
0.00107897
-1.03656e-09
-0.00107897
2.77396e-09
-1.2269e-06
2.51007e-07
-2.51933e-07
-8.78734e-07
2.39586e-07
-2.42364e-07
8.788e-07
-1.48979e-09
2.33428e-09
0.00107877
-2.46528e-07
1.22396e-06
2.45622e-07
8.7663e-07
-2.40444e-07
2.37885e-07
-8.76509e-07
-1.18338e-09
-0.00107964
2.62739e-09
-1.19341e-06
2.42919e-07
-2.43758e-07
-8.76044e-07
2.36913e-07
8.76188e-07
-2.39644e-07
1.22387e-06
0.00107877
-1.05477e-09
-0.00107877
2.76375e-09
-1.22153e-06
2.45516e-07
-2.46392e-07
-8.76058e-07
2.36811e-07
-2.39613e-07
8.76103e-07
-2.22113e-07
-2.26947e-07
0.000263412
-1.19043e-06
0.000265378
-0.000263411
2.24261e-07
2.29069e-07
-1.4071e-09
2.14707e-09
0.00107981
-2.43946e-07
1.19061e-06
2.43085e-07
8.76802e-07
-2.43255e-07
2.4069e-07
-8.76625e-07
-1.20659e-09
-0.0010793
2.63406e-09
-1.18804e-06
2.42898e-07
-2.43753e-07
-8.75869e-07
2.39572e-07
8.76069e-07
-2.42301e-07
1.19051e-06
0.00107981
-1.03315e-09
-0.00107981
2.62285e-09
-1.18817e-06
2.42969e-07
-2.43821e-07
-8.76163e-07
2.39625e-07
-2.42412e-07
8.76291e-07
-0.000263424
2.26569e-07
2.31843e-07
1.22675e-06
1.19073e-06
-2.21624e-07
-2.29339e-07
0.00026343
-1.22808e-06
-1.19206e-06
0.000265398
-0.000263429
2.21826e-07
2.29582e-07
2.15551e-09
0.00107886
-2.49093e-07
1.2291e-06
2.48166e-07
8.75557e-07
-2.38805e-07
-8.75632e-07
2.35737e-07
-1.23218e-06
-1.00541e-09
2.1505e-09
0.00107929
-2.51868e-07
1.23452e-06
2.5095e-07
8.81111e-07
-2.41643e-07
-8.81216e-07
2.38514e-07
0.00107886
-1.89393e-09
-0.00107886
2.88477e-09
-1.22577e-06
2.46379e-07
-2.47653e-07
-8.73021e-07
2.32335e-07
-2.34601e-07
8.73431e-07
1.2335e-06
0.00107929
-1.78044e-09
-0.00107929
2.90504e-09
-1.23119e-06
2.49159e-07
-2.50428e-07
-8.78617e-07
2.35101e-07
-2.37443e-07
8.78975e-07
-2.24341e-07
-2.26641e-07
0.00026345
-1.1947e-06
0.000265427
-0.00026345
2.24592e-07
2.26876e-07
2.03824e-09
0.0010799
-2.4647e-07
1.19308e-06
2.45618e-07
8.78391e-07
-2.41611e-07
-8.78381e-07
2.38586e-07
-1.22682e-06
-1.04904e-09
2.17943e-09
0.00107897
-2.51862e-07
1.22914e-06
2.50922e-07
8.78253e-07
-2.4157e-07
-8.78355e-07
2.38506e-07
0.0010799
-1.962e-09
-0.0010799
2.77572e-09
-1.18974e-06
2.43829e-07
-2.45029e-07
-8.75798e-07
2.35174e-07
-2.37385e-07
8.76254e-07
1.22812e-06
0.00107897
-1.81036e-09
-0.00107897
2.9148e-09
-1.22583e-06
2.49131e-07
-2.50422e-07
-8.75777e-07
2.35075e-07
-2.37346e-07
8.76131e-07
-1.0742e-09
2.15054e-09
0.00107877
-2.46317e-07
1.22378e-06
2.45434e-07
8.75565e-07
-2.38817e-07
2.35731e-07
-8.75677e-07
-1.95581e-09
-0.00107964
2.76951e-09
-1.19234e-06
2.41042e-07
-2.42241e-07
-8.73069e-07
2.3242e-07
8.73504e-07
-2.34645e-07
1.22276e-06
0.00107877
-1.82408e-09
-0.00107877
2.902e-09
-1.22046e-06
2.4364e-07
-2.44881e-07
-8.73079e-07
2.32315e-07
-2.34618e-07
8.73429e-07
-2.21791e-07
-2.26622e-07
0.000263411
-1.18932e-06
0.000265379
-0.000263411
2.22022e-07
2.2683e-07
-1.04602e-09
2.02178e-09
0.00107981
-2.43748e-07
1.19042e-06
2.42887e-07
8.75751e-07
-2.41614e-07
2.38544e-07
-8.75792e-07
-1.98478e-09
-0.0010793
2.77434e-09
-1.18697e-06
2.41016e-07
-2.42209e-07
-8.72885e-07
2.35076e-07
8.73384e-07
-2.373e-07
1.1894e-06
0.00107981
-1.83455e-09
-0.00107981
2.77542e-09
-1.1871e-06
2.4109e-07
-2.42307e-07
-8.73189e-07
2.35134e-07
-2.37409e-07
8.73617e-07
-0.000263424
2.24324e-07
2.29601e-07
1.22556e-06
1.18954e-06
-2.19093e-07
-2.26809e-07
0.000263429
-1.22875e-06
-1.19273e-06
0.000265399
-0.000263429
2.21821e-07
2.29572e-07
2.47841e-09
0.00107886
-2.46823e-07
1.22734e-06
2.4489e-07
8.73551e-07
-2.35127e-07
-8.73549e-07
2.32441e-07
-1.23098e-06
5.37432e-11
2.48097e-09
0.00107929
-2.49597e-07
1.23276e-06
2.47674e-07
8.79101e-07
-2.37945e-07
-8.79113e-07
2.35182e-07
0.00107886
-6.22877e-09
-0.00107886
-3.49981e-10
-1.22531e-06
2.47246e-07
-2.46464e-07
-8.75894e-07
2.34386e-07
-2.36098e-07
8.76889e-07
1.23417e-06
0.00107929
-6.16205e-09
-0.00107929
-3.22817e-10
-1.23073e-06
2.50021e-07
-2.49236e-07
-8.81474e-07
2.37151e-07
-2.38922e-07
8.82436e-07
-2.21804e-07
-2.24112e-07
0.000263449
-1.19537e-06
0.000265428
-0.000263449
2.24593e-07
2.26863e-07
2.36145e-09
0.0010799
-2.442e-07
1.19132e-06
2.4234e-07
8.76384e-07
-2.37913e-07
-8.76284e-07
2.35242e-07
-1.22563e-06
1.26565e-11
2.50476e-09
0.00107897
-2.49598e-07
1.22738e-06
2.47648e-07
8.76239e-07
-2.37833e-07
-8.76284e-07
2.35183e-07
0.0010799
-6.33886e-09
-0.0010799
-4.59378e-10
-1.18929e-06
2.44696e-07
-2.43847e-07
-8.78652e-07
2.3722e-07
-2.3889e-07
8.79718e-07
1.2288e-06
0.00107897
-6.16461e-09
-0.00107897
-3.22466e-10
-1.22537e-06
2.50009e-07
-2.49233e-07
-8.78637e-07
2.37129e-07
-2.38846e-07
8.79585e-07
-1.43876e-13
2.4653e-09
0.00107877
-2.44049e-07
1.22202e-06
2.42158e-07
8.73561e-07
-2.35122e-07
2.32404e-07
-8.73578e-07
-6.31542e-09
-0.00107963
-4.50886e-10
-1.19189e-06
2.41906e-07
-2.41056e-07
-8.75946e-07
2.34462e-07
8.76974e-07
-2.36129e-07
1.22343e-06
0.00107877
-6.19493e-09
-0.00107876
-3.31163e-10
-1.22001e-06
2.44504e-07
-2.43696e-07
-8.75929e-07
2.3436e-07
-2.36097e-07
8.76883e-07
-2.19261e-07
-2.24091e-07
0.00026341
-1.18999e-06
0.000265378
-0.00026341
2.22027e-07
2.29358e-07
1.0089e-11
2.355e-09
0.00107981
-2.41475e-07
1.18866e-06
2.39607e-07
8.73744e-07
-2.37916e-07
2.35215e-07
-8.73691e-07
-6.3337e-09
-0.00107929
-4.59591e-10
-1.18652e-06
2.41921e-07
-2.41063e-07
-8.75741e-07
2.3714e-07
8.76777e-07
-2.38784e-07
1.19007e-06
0.00107981
-6.28733e-09
-0.00107981
-4.35406e-10
-1.18664e-06
2.41963e-07
-2.41117e-07
-8.76054e-07
2.37191e-07
-2.38881e-07
8.77104e-07
-0.000263423
2.24317e-07
2.2959e-07
1.22547e-06
1.18946e-06
-2.18245e-07
-2.25957e-07
0.000263428
-1.22821e-06
-1.19222e-06
0.000265406
-0.000263426
2.17411e-07
2.22706e-07
7.10776e-09
0.00107886
-2.4732e-07
1.22612e-06
2.4435e-07
8.70949e-07
-2.34593e-07
-8.74255e-07
2.27956e-07
-1.2309e-06
7.7896e-09
7.12636e-09
0.00107929
-2.50093e-07
1.23155e-06
2.47126e-07
8.76492e-07
-2.37408e-07
-8.79812e-07
2.30722e-07
0.00107886
-1.33015e-08
-0.00107885
-9.88614e-09
-1.22296e-06
2.44455e-07
-2.39193e-07
-8.67665e-07
2.24467e-07
-2.23433e-07
8.70651e-07
1.23362e-06
0.00107931
-2.38713e-08
-0.0010793
-4.40363e-09
-1.22573e-06
2.4449e-07
-2.41975e-07
-8.6791e-07
2.21816e-07
-2.2088e-07
8.7088e-07
-2.20969e-07
-2.23256e-07
0.000263449
-1.19482e-06
0.00026543
-0.000263444
2.17665e-07
2.25004e-07
6.98554e-09
0.0010799
-2.44709e-07
1.19276e-06
2.44517e-07
8.73767e-07
-2.37376e-07
-8.76993e-07
2.3079e-07
-1.22553e-06
7.75528e-09
7.13138e-09
0.00107897
-2.50086e-07
1.22618e-06
2.4711e-07
8.73652e-07
-2.37335e-07
-8.76971e-07
2.30717e-07
0.00107991
-1.35429e-08
-0.0010799
-4.56519e-09
-1.18698e-06
2.41888e-07
-2.39305e-07
-8.70396e-07
2.24583e-07
-2.23513e-07
8.73482e-07
1.22296e-06
0.00107898
-1.33336e-08
-0.00107897
-9.87051e-09
-1.21773e-06
2.44496e-07
-2.41948e-07
-8.6776e-07
2.24517e-07
-2.23499e-07
8.70747e-07
7.74392e-09
7.07061e-09
0.00107876
-2.44546e-07
1.22081e-06
2.41611e-07
8.70963e-07
-2.34584e-07
2.27947e-07
-8.74276e-07
-1.87848e-08
-0.00107964
-4.53837e-09
-1.18692e-06
2.36383e-07
-2.33803e-07
-8.67693e-07
2.24509e-07
8.73373e-07
-2.20779e-07
1.22293e-06
0.00107877
-1.86803e-08
-0.00107877
-4.49907e-09
-1.21505e-06
2.41737e-07
-2.36428e-07
-8.67687e-07
2.24436e-07
-2.2074e-07
8.70662e-07
-2.18425e-07
-2.25759e-07
0.00026341
-1.18681e-06
0.00026538
-0.000263411
2.17626e-07
2.22446e-07
7.66869e-09
7.01142e-09
0.00107981
-2.41974e-07
1.18745e-06
2.3906e-07
8.71162e-07
-2.37363e-07
2.30773e-07
-8.74396e-07
-1.35189e-08
-0.0010793
-9.9556e-09
-1.18155e-06
2.36405e-07
-2.33783e-07
-8.64831e-07
2.24518e-07
8.67881e-07
-2.23403e-07
1.18687e-06
0.00107981
-1.34574e-08
-0.00107981
-9.8862e-09
-1.17637e-06
2.36425e-07
-2.31117e-07
-8.62454e-07
2.21873e-07
-2.20803e-07
8.68152e-07
-0.000263426
2.1743e-07
2.25204e-07
1.22219e-06
1.18355e-06
-2.13862e-07
-2.16539e-07
0.000263431
-1.27818e-06
-1.24213e-06
0.000265483
-0.000263454
2.4297e-07
2.48329e-07
1.0924e-08
0.00107886
-2.41802e-07
1.22653e-06
2.40555e-07
8.65291e-07
-2.2469e-07
-8.68015e-07
2.16541e-07
-1.22758e-06
9.09416e-09
5.89127e-09
0.0010793
-2.44585e-07
1.22927e-06
2.43306e-07
8.68249e-07
-2.22094e-07
-8.68336e-07
2.1926e-07
0.00107913
-3.39435e-07
-0.00107895
-1.62286e-07
-1.18312e-06
2.69531e-07
-2.05357e-07
-8.14179e-07
2.42681e-07
-1.71407e-07
9.07428e-07
1.28352e-06
0.00107956
-3.39456e-07
-0.00107939
-1.56795e-07
-1.1886e-06
2.69493e-07
-2.05477e-07
-8.22497e-07
2.45414e-07
-1.71492e-07
9.15687e-07
-2.14099e-07
-2.18896e-07
0.000263447
-1.24211e-06
0.000265507
-0.000263475
2.45767e-07
2.47993e-07
5.75316e-09
0.00107992
-2.39177e-07
1.18518e-06
2.3521e-07
8.655e-07
-2.24753e-07
-8.68126e-07
2.1935e-07
-1.21694e-06
-1.19905e-09
5.78649e-09
0.00107898
-2.41784e-07
1.22126e-06
2.40549e-07
8.65416e-07
-2.22023e-07
-8.68143e-07
2.16572e-07
0.00108017
-3.45553e-07
-0.00108
-1.56718e-07
-1.14449e-06
2.6688e-07
-2.00052e-07
-8.19514e-07
2.45629e-07
-1.71389e-07
9.13037e-07
1.27551e-06
0.00107925
-3.44871e-07
-0.00107907
-1.62203e-07
-1.18057e-06
2.6955e-07
-2.02687e-07
-8.16901e-07
2.45522e-07
-1.74068e-07
9.10229e-07
3.94964e-09
5.7665e-09
0.00107877
-2.4175e-07
1.22121e-06
2.40533e-07
8.65343e-07
-2.21969e-07
2.16513e-07
-8.654e-07
-3.40024e-07
-0.00107973
-1.61869e-07
-1.1471e-06
2.64089e-07
-1.97356e-07
-8.16927e-07
2.42717e-07
9.10216e-07
-1.71395e-07
1.27548e-06
0.00107903
-3.39526e-07
-0.00107886
-1.62286e-07
-1.17786e-06
2.69512e-07
-1.99911e-07
-8.16846e-07
2.45425e-07
-1.7408e-07
9.10141e-07
-2.11503e-07
-2.16337e-07
0.00026341
-1.23678e-06