/*--------------------------------*- C++ -*----------------------------------*\
| =========                 |                                                 |
| \\      /  F ield         | OpenFOAM: The Open Source CFD Toolbox           |
|  \\    /   O peration     | Version:  2206                                  |
|   \\  /    A nd           | Website:  www.openfoam.com                      |
|    \\/     M anipulation  |                                                 |
\*---------------------------------------------------------------------------*/
FoamFile
{
    version     2.0;
    format      ascii;
    arch        "LSB;label=32;scalar=64";
    class       volVectorField;
    location    "22";
    object      U;
}
// * * * * * * * * * * * * * * * * * * * * * * * * * * * * * * * * * * * * * //

dimensions      [0 1 -1 0 0 0 0];

internalField   nonuniform List<vector> 
28673
(
(-4.24498e-07 6.46346e-07 0.1025)
(-4.18807e-05 -4.18921e-05 0.102444)
(-6.31353e-07 -6.43681e-07 0.102537)
(-4.06122e-07 6.35162e-07 0.1025)
(6.46007e-07 -4.02527e-07 0.1025)
(-4.18705e-05 -4.1884e-05 0.102444)
(-6.45509e-07 -6.5586e-07 0.102537)
(-3.71968e-07 6.1116e-07 0.1025)
(6.33242e-07 -3.76507e-07 0.1025)
(-4.18515e-05 -4.18646e-05 0.102444)
(-6.60443e-07 -6.60372e-07 0.102537)
(-3.26335e-07 5.68951e-07 0.1025)
(6.32051e-07 -3.70759e-07 0.1025)
(-4.18676e-05 -4.18689e-05 0.102444)
(-6.11335e-07 -5.4005e-07 0.102537)
(-5.56335e-07 7.40034e-07 0.102499)
(6.64417e-07 -5.17291e-07 0.102499)
(-4.20212e-05 -4.20027e-05 0.102444)
(-5.88914e-07 -6.27491e-07 0.102537)
(-4.26506e-07 6.24505e-07 0.1025)
(6.71476e-07 -4.43742e-07 0.1025)
(-4.18989e-05 -4.19255e-05 0.102444)
(-6.4198e-07 -6.48033e-07 0.102537)
(-4.10803e-07 6.3212e-07 0.1025)
(6.30576e-07 -4.05264e-07 0.1025)
(-4.18777e-05 -4.18923e-05 0.102444)
(-6.40318e-07 -6.40703e-07 0.102538)
(-4.67805e-07 6.48809e-07 0.1025)
(6.49485e-07 -4.64315e-07 0.1025)
(-4.17667e-05 -4.17774e-05 0.102444)
(-7.19866e-07 -7.18026e-07 0.102539)
(-7.19167e-07 8.31894e-07 0.1025)
(8.33119e-07 -7.15489e-07 0.1025)
(-4.10313e-05 -4.10449e-05 0.102445)
(-1.98772e-07 -1.95896e-07 0.102541)
(-1.68558e-06 1.49116e-06 0.1025)
(1.49051e-06 -1.682e-06 0.1025)
(-4.07499e-05 -4.07617e-05 0.102444)
(-3.88942e-07 -3.77187e-07 0.102543)
(-3.12548e-06 2.58008e-06 0.102498)
(2.5743e-06 -3.11255e-06 0.102498)
(-3.84214e-05 -3.84279e-05 0.102444)
(-5.72495e-06 -5.67199e-06 0.10254)
(-2.40152e-06 3.17228e-06 0.102493)
(3.1362e-06 -2.38419e-06 0.102493)
(-2.66876e-05 -2.66647e-05 0.102444)
(-4.23201e-05 -4.21892e-05 0.102469)
(4.13127e-05 -3.44344e-05 0.102438)
(-3.45184e-05 4.12945e-05 0.102438)
(4.82631e-05 4.83016e-05 0.102396)
(-6.70175e-07 4.47881e-07 0.1025)
(4.36808e-05 -4.36557e-05 0.102447)
(-4.23125e-07 6.47115e-07 0.1025)
(-4.36763e-05 -4.36616e-05 0.102447)
(6.68551e-07 4.39148e-07 0.1025)
(-6.6951e-07 4.48813e-07 0.1025)
(6.67177e-07 4.21276e-07 0.1025)
(-6.56446e-07 4.34362e-07 0.1025)
(-4.18846e-05 4.1857e-05 0.102445)
(4.36902e-05 -4.36651e-05 0.102447)
(4.21701e-07 6.41247e-07 0.1025)
(4.38865e-07 -6.64942e-07 0.1025)
(-4.45439e-07 -6.60572e-07 0.1025)
(-4.08909e-07 6.35068e-07 0.1025)
(-4.33501e-07 -6.56808e-07 0.1025)
(-4.36518e-05 4.36899e-05 0.102447)
(-6.442e-07 -4.3659e-07 0.1025)
(6.47878e-07 -4.08469e-07 0.1025)
(-6.37301e-07 -4.26627e-07 0.1025)
(4.36586e-05 4.3679e-05 0.102447)
(4.18817e-05 4.18564e-05 0.102444)
(-4.36978e-05 -4.36818e-05 0.102447)
(6.62614e-07 4.18075e-07 0.1025)
(-6.56583e-07 4.31218e-07 0.1025)
(6.58288e-07 4.00236e-07 0.1025)
(-6.40819e-07 4.0768e-07 0.1025)
(-4.18688e-05 4.18411e-05 0.102444)
(4.37123e-05 -4.36865e-05 0.102447)
(4.17097e-07 6.39058e-07 0.1025)
(4.32739e-07 -6.64242e-07 0.1025)
(4.07069e-07 6.35732e-07 0.1025)
(4.27241e-07 -6.60076e-07 0.1025)
(-4.25435e-07 -6.51521e-07 0.1025)
(-3.82767e-07 6.18926e-07 0.1025)
(-4.12573e-07 -6.47681e-07 0.1025)
(4.18608e-05 -4.18899e-05 0.102444)
(-4.36692e-05 4.37062e-05 0.102447)
(-6.31518e-07 -4.18026e-07 0.1025)
(6.41526e-07 -3.93221e-07 0.1025)
(-6.28403e-07 -4.0639e-07 0.1025)
(4.36833e-05 4.37034e-05 0.102447)
(4.18646e-05 4.18365e-05 0.102444)
(-4.37168e-05 -4.36889e-05 0.102447)
(6.44179e-07 3.8687e-07 0.1025)
(-6.34134e-07 3.96669e-07 0.1025)
(6.60139e-07 4.12451e-07 0.102499)
(-6.30305e-07 3.92175e-07 0.102499)
(-4.18505e-05 4.18239e-05 0.102444)
(4.37244e-05 -4.37006e-05 0.102447)
(3.92293e-07 6.25249e-07 0.1025)
(4.12112e-07 -6.53493e-07 0.1025)
(4.00696e-07 6.46675e-07 0.1025)
(4.18582e-07 -6.59729e-07 0.1025)
(-3.95102e-07 -6.33905e-07 0.1025)
(-3.69754e-07 6.0595e-07 0.1025)
(-4.24877e-07 -6.54933e-07 0.102499)
(4.18442e-05 -4.18712e-05 0.102444)
(-4.37029e-05 4.37359e-05 0.102447)
(-6.14759e-07 -3.87625e-07 0.1025)
(6.37862e-07 -3.96482e-07 0.1025)
(-6.45789e-07 -4.09953e-07 0.1025)
(4.36771e-05 4.37082e-05 0.102446)
(4.18537e-05 4.1853e-05 0.102444)
(-4.37347e-05 -4.3619e-05 0.102446)
(6.17919e-07 3.63067e-07 0.102499)
(-5.93971e-07 3.47052e-07 0.102499)
(6.65475e-07 5.10087e-07 0.102499)
(-7.90423e-07 5.41198e-07 0.102499)
(-4.18271e-05 4.17976e-05 0.102444)
(4.3559e-05 -4.35383e-05 0.102446)
(3.79545e-07 6.24402e-07 0.1025)
(4.15485e-07 -6.63235e-07 0.102499)
(3.78077e-07 7.05751e-07 0.102499)
(3.67053e-07 -6.41219e-07 0.102499)
(-3.70021e-07 -6.0554e-07 0.102499)
(-5.19954e-07 7.60145e-07 0.102499)
(-5.18364e-07 -6.96811e-07 0.102499)
(4.1828e-05 -4.18682e-05 0.102444)
(-4.37644e-05 4.37559e-05 0.102446)
(-5.99737e-07 -3.52672e-07 0.1025)
(5.92744e-07 -4.19584e-07 0.102499)
(-7.25799e-07 -4.75806e-07 0.102499)
(4.36074e-05 4.36612e-05 0.102446)
(4.19158e-05 4.2006e-05 0.102444)
(-4.36188e-05 -4.36676e-05 0.102447)
(7.1745e-07 5.86891e-07 0.102499)
(-7.68907e-07 5.76097e-07 0.102499)
(7.00191e-07 4.72214e-07 0.1025)
(-6.48669e-07 4.79332e-07 0.1025)
(-4.20639e-05 4.20333e-05 0.102444)
(4.37031e-05 -4.36764e-05 0.102447)
(4.76001e-07 7.69072e-07 0.102499)
(4.71275e-07 -7.27392e-07 0.102499)
(5.16893e-07 6.45488e-07 0.1025)
(5.45852e-07 -7.05109e-07 0.1025)
(-5.8624e-07 -7.3848e-07 0.102499)
(-4.53618e-07 6.27972e-07 0.1025)
(-4.87024e-07 -6.72997e-07 0.1025)
(4.18311e-05 -4.19178e-05 0.102444)
(-4.35577e-05 4.36283e-05 0.102447)
(-7.61816e-07 -5.51933e-07 0.102499)
(7.09602e-07 -4.88634e-07 0.1025)
(-6.40308e-07 -4.89181e-07 0.1025)
(4.36549e-05 4.36641e-05 0.102447)
(4.19593e-05 4.1875e-05 0.102444)
(-4.36982e-05 -4.36768e-05 0.102447)
(6.75981e-07 4.41349e-07 0.1025)
(-6.44393e-07 4.53361e-07 0.1025)
(6.6741e-07 4.32604e-07 0.1025)
(-6.66884e-07 4.51143e-07 0.1025)
(-4.18945e-05 4.18702e-05 0.102444)
(4.37021e-05 -4.36753e-05 0.102447)
(4.72457e-07 6.19077e-07 0.1025)
(4.95973e-07 -6.73148e-07 0.1025)
(4.29941e-07 6.39934e-07 0.1025)
(4.45142e-07 -6.60302e-07 0.1025)
(-4.49654e-07 -6.5312e-07 0.1025)
(-4.25185e-07 6.44947e-07 0.1025)
(-4.45617e-07 -6.5997e-07 0.1025)
(4.19653e-05 -4.19607e-05 0.102444)
(-4.36779e-05 4.37066e-05 0.102447)
(-6.1729e-07 -4.53382e-07 0.1025)
(6.42046e-07 -4.18287e-07 0.1025)
(-6.37196e-07 -4.40304e-07 0.1025)
(4.36758e-05 4.3694e-05 0.102447)
(4.18847e-05 4.18664e-05 0.102444)
(-4.36381e-05 -4.3612e-05 0.102447)
(6.52995e-07 4.24592e-07 0.1025)
(-6.54356e-07 4.35814e-07 0.1025)
(6.56766e-07 4.1704e-07 0.1025)
(-6.60397e-07 4.3199e-07 0.1025)
(-4.18818e-05 4.18551e-05 0.102445)
(4.36415e-05 -4.36163e-05 0.102447)
(4.13633e-07 6.32161e-07 0.1025)
(4.27352e-07 -6.53053e-07 0.1025)
(4.07209e-07 6.40073e-07 0.1025)
(4.23442e-07 -6.5837e-07 0.1025)
(-4.31197e-07 -6.4599e-07 0.1025)
(-4.0749e-07 6.36387e-07 0.1025)
(-4.31787e-07 -6.50994e-07 0.1025)
(4.18583e-05 -4.18945e-05 0.102444)
(-4.36137e-05 4.36411e-05 0.102447)
(-6.26798e-07 -4.24056e-07 0.1025)
(6.36255e-07 -4.02155e-07 0.1025)
(-6.35999e-07 -4.19135e-07 0.1025)
(4.36109e-05 4.36353e-05 0.102447)
(4.17707e-05 4.17551e-05 0.102444)
(-4.29847e-05 -4.29577e-05 0.102447)
(6.68866e-07 4.84807e-07 0.1025)
(-6.71896e-07 4.91375e-07 0.1025)
(5.61332e-07 2.28415e-07 0.1025)
(-5.66583e-07 2.4322e-07 0.1025)
(-4.17677e-05 4.17399e-05 0.102444)
(4.29871e-05 -4.2961e-05 0.102447)
(4.69152e-07 6.53638e-07 0.1025)
(4.82901e-07 -6.71503e-07 0.1025)
(2.16834e-07 5.45564e-07 0.1025)
(2.36447e-07 -5.64546e-07 0.1025)
(-4.9109e-07 -6.61721e-07 0.1025)
(-2.18819e-07 5.41951e-07 0.1025)
(-2.45043e-07 -5.57321e-07 0.1025)
(4.17485e-05 -4.17832e-05 0.102444)
(-4.29589e-05 4.29875e-05 0.102447)
(-6.48039e-07 -4.79033e-07 0.1025)
(5.42474e-07 -2.13934e-07 0.1025)
(-5.42719e-07 -2.2831e-07 0.1025)
(4.2955e-05 4.29806e-05 0.102447)
(4.1037e-05 4.10206e-05 0.102445)
(-4.30389e-05 -4.30143e-05 0.102448)
(8.51031e-07 7.35417e-07 0.1025)
(-8.53741e-07 7.4062e-07 0.1025)
(-2.0527e-08 -4.7016e-07 0.1025)
(1.47551e-08 -4.57558e-07 0.1025)
(-4.10346e-05 4.10042e-05 0.102445)
(4.30405e-05 -4.30194e-05 0.102448)
(7.20301e-07 8.35796e-07 0.1025)
(7.32774e-07 -8.53907e-07 0.1025)
(-4.82785e-07 -3.5864e-08 0.1025)
(-4.62034e-07 1.8045e-08 0.1025)
(-7.40198e-07 -8.42681e-07 0.1025)
(4.80549e-07 -3.76511e-08 0.1025)
(4.60875e-07 2.21281e-08 0.1025)
(4.10139e-05 -4.10497e-05 0.102445)
(-4.30188e-05 4.3047e-05 0.102448)
(-8.30223e-07 -7.29071e-07 0.1025)
(-3.85956e-08 4.83881e-07 0.1025)
(3.77585e-08 4.79453e-07 0.1025)
(4.30139e-05 4.30361e-05 0.102448)
(4.07542e-05 4.07423e-05 0.102444)
(-4.08655e-05 -4.08347e-05 0.102448)
(1.50775e-06 1.70478e-06 0.1025)
(-1.51181e-06 1.70893e-06 0.1025)
(-1.01866e-06 -1.76139e-06 0.102501)
(1.00911e-06 -1.75163e-06 0.102501)
(-4.07523e-05 4.07258e-05 0.102444)
(4.08686e-05 -4.08338e-05 0.102448)
(1.68887e-06 1.49534e-06 0.1025)
(1.70172e-06 -1.50942e-06 0.1025)
(-1.789e-06 -1.02969e-06 0.102501)
(-1.7646e-06 1.02005e-06 0.102501)
(-1.70149e-06 -1.49808e-06 0.1025)
(1.77746e-06 -1.0274e-06 0.102501)
(1.76272e-06 1.01827e-06 0.102501)
(4.07377e-05 -4.07656e-05 0.102444)
(-4.0843e-05 4.08697e-05 0.102448)
(-1.48989e-06 -1.68712e-06 0.1025)
(-1.03555e-06 1.78762e-06 0.102501)
(1.02604e-06 1.78145e-06 0.102501)
(4.0831e-05 4.0862e-05 0.102448)
(3.84205e-05 3.84202e-05 0.102444)
(-3.49461e-05 -3.48906e-05 0.102448)
(2.58595e-06 3.13367e-06 0.102498)
(-2.59335e-06 3.14905e-06 0.102498)
(-4.98284e-06 -6.6512e-06 0.102504)
(4.96063e-06 -6.6451e-06 0.102504)
(-3.84218e-05 3.84126e-05 0.102444)
(3.49094e-05 -3.49005e-05 0.102448)
(3.11616e-06 2.57733e-06 0.102498)
(3.13068e-06 -2.58443e-06 0.102498)
(-6.6973e-06 -4.967e-06 0.102504)
(-6.68352e-06 4.97234e-06 0.102504)
(-3.13784e-06 -2.57784e-06 0.102498)
(6.66589e-06 -4.95148e-06 0.102504)
(6.67086e-06 4.9769e-06 0.102504)
(3.84143e-05 -3.8432e-05 0.102444)
(-3.49236e-05 3.49208e-05 0.102448)
(-2.57079e-06 -3.12217e-06 0.102498)
(-4.97865e-06 6.67338e-06 0.102504)
(4.96914e-06 6.67406e-06 0.102504)
(3.48979e-05 3.4924e-05 0.102448)
(2.66343e-05 2.67046e-05 0.102444)
(-4.3528e-05 -4.33482e-05 0.102413)
(3.12793e-06 2.43028e-06 0.102493)
(-3.15624e-06 2.44163e-06 0.102493)
(-3.59196e-05 -5.58099e-05 0.102477)
(3.59148e-05 -5.58444e-05 0.102477)
(-2.66853e-05 2.67031e-05 0.102444)
(4.3518e-05 -4.33615e-05 0.102414)
(2.33947e-06 3.1566e-06 0.102493)
(2.36027e-06 -3.13026e-06 0.102493)
(-5.60055e-05 -3.58169e-05 0.102477)
(-5.5951e-05 3.59183e-05 0.102477)
(-2.3822e-06 -3.12246e-06 0.102493)
(5.59844e-05 -3.58297e-05 0.102477)
(5.59404e-05 3.59304e-05 0.102477)
(2.66507e-05 -2.66814e-05 0.102444)
(-4.34667e-05 4.35115e-05 0.102414)
(-3.13887e-06 -2.3831e-06 0.102493)
(-3.58963e-05 5.59596e-05 0.102477)
(3.59089e-05 5.59981e-05 0.102477)
(4.34681e-05 4.35145e-05 0.102414)
(-4.8319e-05 -4.81317e-05 0.102396)
(-3.45459e-05 -4.11262e-05 0.102438)
(3.45362e-05 -4.11549e-05 0.102438)
(4.83058e-05 -4.81359e-05 0.102396)
(-4.13317e-05 -3.44272e-05 0.102438)
(-4.12774e-05 3.45354e-05 0.102438)
(4.23132e-05 -4.21898e-05 0.102469)
(-4.22902e-05 4.2324e-05 0.102469)
(4.23128e-05 4.2337e-05 0.102469)
(4.12775e-05 3.45507e-05 0.102438)
(-4.82558e-05 4.82989e-05 0.102396)
(3.45346e-05 4.13309e-05 0.102438)
(6.0955e-08 -8.87545e-06 0.100685)
(7.34699e-07 6.53087e-06 0.0942779)
(-5.40589e-08 8.62208e-06 0.100676)
(-1.08907e-06 -6.44105e-06 0.0942913)
(-1.81868e-06 2.56015e-06 0.0827072)
(1.76342e-06 -2.53415e-06 0.0827211)
(-8.91552e-06 4.28217e-08 0.100685)
(-6.42045e-06 -1.08742e-06 0.0942909)
(6.31739e-07 -6.23254e-07 0.102537)
(6.37256e-07 6.16112e-07 0.102537)
(-6.27847e-07 -6.39332e-07 0.102537)
(6.4492e-07 -6.35342e-07 0.102537)
(-6.21029e-07 6.34924e-07 0.102537)
(6.4559e-07 6.22944e-07 0.102537)
(1.43561e-05 4.86507e-08 0.102139)
(-1.39e-05 3.99809e-06 0.100977)
(-5.33425e-07 -1.74315e-07 0.102527)
(-4.20806e-07 6.41833e-07 0.1025)
(-1.44536e-05 -6.01801e-08 0.102135)
(1.33391e-05 -4.3312e-06 0.10099)
(-5.30153e-07 -1.7743e-07 0.102527)
(-2.39137e-06 1.67625e-06 0.0827215)
(5.37612e-08 1.43366e-05 0.102139)
(-1.70581e-07 -5.30068e-07 0.102527)
(6.49409e-07 -4.19386e-07 0.1025)
(-5.67949e-08 -1.44423e-05 0.102135)
(-1.70152e-07 -5.32312e-07 0.102527)
(-4.34185e-06 1.33766e-05 0.10099)
(-4.32295e-06 -5.28986e-06 0.0988322)
(-5.27797e-06 -4.31725e-06 0.0988316)
(4.36525e-05 4.36739e-05 0.102447)
(4.10096e-06 5.11968e-06 0.098846)
(5.11932e-06 4.09152e-06 0.0988453)
(5.55208e-08 -8.8977e-06 0.100685)
(7.32844e-07 6.47403e-06 0.0942783)
(-4.87047e-08 8.5857e-06 0.100676)
(-1.08148e-06 -6.49122e-06 0.0942917)
(-1.77485e-06 2.49844e-06 0.0827075)
(1.77748e-06 -2.59935e-06 0.0827218)
(-8.94948e-06 4.17185e-08 0.100685)
(6.47954e-06 7.00725e-07 0.0942779)
(8.65693e-06 -4.50052e-08 0.100676)
(-6.45979e-06 -1.07109e-06 0.0942913)
(6.46459e-07 -6.36852e-07 0.102537)
(-6.25164e-07 6.3848e-07 0.102537)
(6.49861e-07 6.26441e-07 0.102537)
(-6.39898e-07 -6.52006e-07 0.102537)
(6.57947e-07 -6.4898e-07 0.102537)
(-6.30828e-07 6.44832e-07 0.102537)
(6.57515e-07 6.35577e-07 0.102537)
(1.43998e-05 4.55809e-08 0.102139)
(-1.38547e-05 3.96307e-06 0.100977)
(-5.07714e-07 -1.83116e-07 0.102527)
(-4.06508e-07 6.36788e-07 0.1025)
(-1.44026e-05 -6.44346e-08 0.102135)
(1.338e-05 -4.3585e-06 0.10099)
(-5.05932e-07 -1.83681e-07 0.102526)
(2.41077e-06 -1.7323e-06 0.0827047)
(-2.45511e-06 1.70895e-06 0.0827218)
(5.41161e-08 1.43831e-05 0.102139)
(-1.68871e-07 -5.05823e-07 0.102526)
(4.00949e-06 -1.39154e-05 0.100977)
(6.41432e-07 -3.9908e-07 0.1025)
(-5.40656e-08 -1.43909e-05 0.102135)
(-1.70496e-07 -5.0607e-07 0.102526)
(-4.37919e-06 1.3426e-05 0.10099)
(-4.33433e-06 -5.28708e-06 0.0988323)
(-5.27337e-06 -4.33022e-06 0.0988317)
(4.36671e-05 4.36873e-05 0.102447)
(4.08308e-06 5.1293e-06 0.098846)
(5.12702e-06 4.07325e-06 0.0988453)
(4.9805e-08 -8.95092e-06 0.100685)
(7.35255e-07 6.44329e-06 0.0942787)
(-5.59053e-08 8.54412e-06 0.100676)
(-1.06987e-06 -6.50655e-06 0.0942922)
(-1.79584e-06 2.4706e-06 0.0827087)
(1.84421e-06 -2.64219e-06 0.0827233)
(-8.99924e-06 3.96873e-08 0.100684)
(6.44747e-06 7.09245e-07 0.0942783)
(8.61467e-06 -4.86604e-08 0.100676)
(-6.49293e-06 -1.05776e-06 0.0942918)
(6.56788e-07 -6.48355e-07 0.102537)
(-6.38132e-07 6.51309e-07 0.102537)
(6.60767e-07 6.39502e-07 0.102537)
(-6.55426e-07 -6.53868e-07 0.102537)
(6.62234e-07 -6.56172e-07 0.102537)
(-6.51307e-07 6.56962e-07 0.102537)
(6.58668e-07 6.45415e-07 0.102537)
(1.44358e-05 4.00675e-08 0.102139)
(-1.38096e-05 3.9275e-06 0.100977)
(-4.70878e-07 -1.88081e-07 0.102526)
(-3.90208e-07 6.32172e-07 0.1025)
(-1.43581e-05 -6.86092e-08 0.102135)
(1.34304e-05 -4.43883e-06 0.10099)
(-4.77374e-07 -1.90745e-07 0.102526)
(2.35536e-06 -1.69711e-06 0.0827054)
(-2.50208e-06 1.69591e-06 0.082723)
(4.53902e-08 1.44189e-05 0.102139)
(-1.76942e-07 -4.7208e-07 0.102526)
(3.97873e-06 -1.38685e-05 0.100977)
(6.21605e-07 -3.68941e-07 0.1025)
(-5.82119e-08 -1.43495e-05 0.102135)
(-1.80486e-07 -4.68133e-07 0.102526)
(-4.43082e-06 1.3468e-05 0.100989)
(-4.32553e-06 -5.27505e-06 0.0988323)
(-5.26172e-06 -4.31989e-06 0.0988317)
(4.36999e-05 4.37233e-05 0.102447)
(4.08609e-06 5.16236e-06 0.098846)
(5.15867e-06 4.07976e-06 0.0988452)
(1.01943e-09 -8.95805e-06 0.100685)
(7.4438e-07 6.41932e-06 0.0942795)
(-7.44751e-08 8.48526e-06 0.100676)
(-1.11354e-06 -6.50617e-06 0.094293)
(-1.70816e-06 2.46284e-06 0.0827103)
(1.82254e-06 -2.72059e-06 0.0827257)
(-9.05089e-06 3.97683e-08 0.100684)
(6.39331e-06 7.3245e-07 0.0942789)
(8.57132e-06 -5.00295e-08 0.100676)
(-6.50634e-06 -1.05607e-06 0.0942925)
(6.70206e-07 -6.6469e-07 0.102537)
(-6.49148e-07 6.61488e-07 0.102537)
(6.63733e-07 6.53554e-07 0.102537)
(-6.6839e-07 -5.89606e-07 0.102537)
(5.4947e-07 -5.50887e-07 0.102537)
(-6.86135e-07 6.49403e-07 0.102537)
(5.92455e-07 6.17253e-07 0.102537)
(1.44557e-05 5.04658e-08 0.102138)
(-1.37688e-05 3.88156e-06 0.100977)
(-4.49642e-07 -1.92711e-07 0.102526)
(-3.4608e-07 6.10365e-07 0.102499)
(-1.43283e-05 -6.2772e-08 0.102135)
(1.3474e-05 -4.44783e-06 0.10099)
(-4.38632e-07 -1.86096e-07 0.102526)
(2.30017e-06 -1.69824e-06 0.082707)
(-2.46781e-06 1.71651e-06 0.0827245)
(2.16682e-08 1.44518e-05 0.102139)
(-1.87813e-07 -4.60002e-07 0.102526)
(3.89802e-06 -1.38359e-05 0.100977)
(5.88848e-07 -3.2452e-07 0.102499)
(-7.33516e-08 -1.43189e-05 0.102135)
(-1.94834e-07 -4.14982e-07 0.102526)
(-4.4243e-06 1.35059e-05 0.100989)
(-4.32145e-06 -5.25206e-06 0.0988323)
(-5.25464e-06 -4.30663e-06 0.0988317)
(4.37646e-05 4.38055e-05 0.102446)
(4.15506e-06 5.23709e-06 0.0988461)
(5.21358e-06 4.16087e-06 0.0988453)
(4.64276e-08 -8.57675e-06 0.100685)
(7.40464e-07 6.56496e-06 0.0942803)
(-6.48078e-08 8.61611e-06 0.100676)
(-9.85367e-07 -5.88472e-06 0.0942932)
(-2.10479e-06 2.75956e-06 0.0827106)
(1.70228e-06 -2.2846e-06 0.0827227)
(-8.82152e-06 9.53793e-08 0.100684)
(6.33722e-06 8.24842e-07 0.0942796)
(8.53735e-06 -8.58387e-09 0.100676)
(-6.26176e-06 -1.00677e-06 0.0942933)
(5.21284e-07 -5.20465e-07 0.102537)
(-6.33065e-07 6.01224e-07 0.102537)
(5.46091e-07 5.58549e-07 0.102537)
(-5.57235e-07 -5.94721e-07 0.102537)
(6.19198e-07 -6.09067e-07 0.102537)
(-5.34914e-07 5.64319e-07 0.102537)
(6.0652e-07 5.73102e-07 0.102537)
(1.39156e-05 7.7722e-08 0.102138)
(-1.40874e-05 4.1917e-06 0.100976)
(-6.80539e-07 -1.16557e-07 0.102526)
(-5.35604e-07 6.85358e-07 0.1025)
(-1.45568e-05 1.17034e-08 0.102135)
(1.30216e-05 -4.1198e-06 0.10099)
(-6.99634e-07 -1.42048e-07 0.102526)
(2.32421e-06 -1.79333e-06 0.0827094)
(-2.18004e-06 1.45795e-06 0.0827258)
(2.31574e-08 1.39269e-05 0.102138)
(-2.13245e-07 -6.42393e-07 0.102526)
(3.8245e-06 -1.39291e-05 0.100977)
(7.21756e-07 -5.57573e-07 0.102499)
(-1.07588e-07 -1.45109e-05 0.102135)
(-1.72113e-07 -7.03462e-07 0.102526)
(-4.22047e-06 1.31371e-05 0.100989)
(-4.42276e-06 -5.39463e-06 0.0988324)
(-5.4066e-06 -4.40106e-06 0.0988318)
(4.35166e-05 4.35534e-05 0.102446)
(3.93799e-06 5.04983e-06 0.0988459)
(5.03935e-06 3.93511e-06 0.0988451)
(5.55673e-08 -8.79746e-06 0.100685)
(8.01143e-07 6.83984e-06 0.0942785)
(-4.9004e-08 8.78587e-06 0.100676)
(-1.04766e-06 -6.29839e-06 0.0942913)
(-1.73214e-06 2.64273e-06 0.0827074)
(1.78864e-06 -2.50666e-06 0.0827212)
(-8.78344e-06 5.59247e-09 0.100685)
(7.0778e-06 7.3179e-07 0.0942788)
(8.95107e-06 -1.15673e-07 0.100676)
(-6.14361e-06 -1.03663e-06 0.0942913)
(6.42658e-07 -6.30925e-07 0.102537)
(-5.69686e-07 5.957e-07 0.102537)
(6.3782e-07 6.02794e-07 0.102537)
(-6.17263e-07 -6.27347e-07 0.102537)
(6.29744e-07 -6.20258e-07 0.102537)
(-6.11772e-07 6.21687e-07 0.102537)
(6.33301e-07 6.0996e-07 0.102537)
(1.42942e-05 3.88044e-08 0.102139)
(-1.40221e-05 4.07773e-06 0.100977)
(-5.67988e-07 -1.85857e-07 0.102527)
(-4.21862e-07 6.34158e-07 0.1025)
(-1.46253e-05 -8.71848e-08 0.102135)
(1.32915e-05 -4.3002e-06 0.10099)
(-5.5175e-07 -1.80219e-07 0.102527)
(2.62648e-06 -1.74778e-06 0.0827057)
(-2.33327e-06 1.71608e-06 0.0827218)
(7.91598e-08 1.42683e-05 0.102139)
(-1.31273e-07 -5.85831e-07 0.102527)
(4.31143e-06 -1.41648e-05 0.100977)
(6.50276e-07 -4.23924e-07 0.1025)
(-6.79935e-09 -1.46431e-05 0.102135)
(-1.43696e-07 -5.65113e-07 0.102527)
(-4.25115e-06 1.32957e-05 0.10099)
(-4.34784e-06 -5.27162e-06 0.098832)
(-5.24506e-06 -4.35579e-06 0.0988314)
(4.36924e-05 4.37025e-05 0.102447)
(4.07915e-06 5.1456e-06 0.0988459)
(5.15397e-06 4.06108e-06 0.0988451)
(1.26855e-07 -8.81688e-06 0.100685)
(7.72009e-07 6.49878e-06 0.0942777)
(-7.74724e-08 8.59979e-06 0.100676)
(-1.13647e-06 -6.00517e-06 0.0942923)
(-1.82243e-06 2.54038e-06 0.0827072)
(1.8316e-06 -2.46817e-06 0.0827214)
(-8.8746e-06 1.22986e-07 0.100685)
(6.49767e-06 7.58916e-07 0.0942774)
(8.67095e-06 -6.77161e-08 0.100676)
(-5.99578e-06 -1.11678e-06 0.094292)
(6.49879e-07 -6.40802e-07 0.102537)
(-6.36992e-07 6.45422e-07 0.102537)
(6.54534e-07 6.32619e-07 0.102537)
(-5.78427e-07 -5.79221e-07 0.102537)
(5.8145e-07 -5.74484e-07 0.102537)
(-5.73172e-07 5.79914e-07 0.102537)
(5.84928e-07 5.68115e-07 0.102537)
(1.42454e-05 7.80014e-08 0.102139)
(-1.38397e-05 3.99099e-06 0.100977)
(-5.07997e-07 -1.89106e-07 0.102527)
(-4.27816e-07 6.48876e-07 0.1025)
(-1.44319e-05 -6.59477e-08 0.102135)
(1.3067e-05 -4.296e-06 0.100991)
(-5.66711e-07 -1.49637e-07 0.102526)
(2.43193e-06 -1.74899e-06 0.0827045)
(-2.35123e-06 1.77492e-06 0.0827218)
(7.22805e-08 1.42369e-05 0.102139)
(-1.83756e-07 -5.05967e-07 0.102527)
(4.01964e-06 -1.38933e-05 0.100977)
(6.47259e-07 -4.21679e-07 0.1025)
(-6.02704e-08 -1.44333e-05 0.102135)
(-1.46466e-07 -5.68338e-07 0.102526)
(-4.3336e-06 1.31187e-05 0.10099)
(-4.30442e-06 -5.32527e-06 0.0988321)
(-5.31149e-06 -4.30015e-06 0.0988315)
(4.3653e-05 4.36758e-05 0.102447)
(3.96175e-06 5.31419e-06 0.0988462)
(5.30963e-06 3.95478e-06 0.0988455)
(2.37673e-06 -7.9799e-06 0.100686)
(1.11492e-06 3.4965e-06 0.0942673)
(-8.48616e-07 8.44627e-06 0.100676)
(-2.72238e-06 4.98873e-07 0.0943216)
(-2.56082e-06 1.66644e-06 0.0827048)
(3.70797e-06 2.45102e-07 0.0827296)
(-8.03524e-06 2.3838e-06 0.100686)
(3.47463e-06 1.10417e-06 0.0942669)
(8.50522e-06 -8.40786e-07 0.100676)
(5.1679e-07 -2.707e-06 0.0943213)
(6.43909e-07 -6.36301e-07 0.102538)
(-6.35017e-07 6.42415e-07 0.102538)
(6.47969e-07 6.30532e-07 0.102538)
(-5.11438e-07 -5.12328e-07 0.102536)
(5.12572e-07 -5.07948e-07 0.102536)
(-5.06148e-07 5.12594e-07 0.102536)
(5.17579e-07 5.01879e-07 0.102536)
(1.32535e-05 6.41009e-07 0.102139)
(-1.21284e-05 3.72464e-06 0.100974)
(-4.44527e-07 -2.41172e-07 0.102527)
(-3.40401e-07 5.96922e-07 0.1025)
(-1.40454e-05 -2.79189e-07 0.102135)
(9.42423e-06 -3.49898e-06 0.100996)
(-6.48558e-07 -5.06879e-08 0.102526)
(1.55744e-06 -2.4999e-06 0.0827022)
(3.6087e-07 3.65847e-06 0.0827299)
(6.28751e-07 1.32475e-05 0.102139)
(-2.39927e-07 -4.4102e-07 0.102527)
(3.7591e-06 -1.21725e-05 0.100974)
(5.97347e-07 -3.34929e-07 0.1025)
(-2.7114e-07 -1.40455e-05 0.102135)
(-4.948e-08 -6.49133e-07 0.102526)
(-3.53687e-06 9.47487e-06 0.100996)
(-3.34962e-06 -5.9474e-06 0.0988317)
(-5.93941e-06 -3.34395e-06 0.0988311)
(4.34595e-05 4.34835e-05 0.102447)
(1.00672e-06 5.0247e-06 0.0988468)
(5.02544e-06 9.99686e-07 0.0988461)
(4.99702e-06 -9.19854e-06 0.100694)
(1.04804e-05 -4.7228e-06 0.0941882)
(-5.83409e-06 5.15483e-06 0.100673)
(-1.0052e-05 1.81901e-06 0.0944189)
(-5.09793e-06 -6.22732e-06 0.0826707)
(2.39982e-06 6.8706e-06 0.0827806)
(-9.22006e-06 5.00384e-06 0.100694)
(-4.75156e-06 1.04776e-05 0.0941878)
(5.1863e-06 -5.84138e-06 0.100673)
(1.90596e-06 -1.00473e-05 0.0944187)
(7.21812e-07 -7.14447e-07 0.102539)
(-7.14124e-07 7.21234e-07 0.102539)
(7.24164e-07 7.1068e-07 0.102539)
(-7.08112e-07 -7.03902e-07 0.102535)
(7.06275e-07 -7.03462e-07 0.102535)
(-7.00419e-07 7.07681e-07 0.102535)
(7.03047e-07 7.02865e-07 0.102535)
(1.35752e-05 8.62502e-07 0.10214)
(-7.73756e-06 9.38311e-08 0.100961)
(-3.86495e-07 -3.4552e-07 0.102528)
(4.0929e-09 4.04424e-07 0.1025)
(-1.1869e-05 -1.28029e-06 0.102136)
(8.70175e-06 2.72715e-06 0.101018)
(-6.21186e-07 1.16094e-08 0.102525)
(-6.29534e-06 -5.02391e-06 0.0826682)
(6.93516e-06 2.35057e-06 0.0827807)
(8.59586e-07 1.3565e-05 0.10214)
(-3.44407e-07 -3.84131e-07 0.102528)
(1.1184e-07 -7.77202e-06 0.100961)
(4.03938e-07 9.60873e-09 0.1025)
(-1.27634e-06 -1.18704e-05 0.102136)
(1.25964e-08 -6.21135e-07 0.102525)
(2.69575e-06 8.7496e-06 0.101018)
(2.74687e-06 1.62985e-06 0.0988186)
(1.58704e-06 2.73819e-06 0.098818)
(4.27915e-05 4.28172e-05 0.102447)
(7.98647e-07 -6.52704e-06 0.0988843)
(-6.48566e-06 8.18327e-07 0.0988835)
(4.44697e-06 -7.31903e-06 0.100705)
(1.04441e-06 7.2717e-07 0.0940613)
(-4.42548e-06 1.1898e-05 0.100657)
(-7.62154e-06 8.28478e-06 0.0945667)
(-1.70547e-06 -9.09078e-06 0.0826143)
(-3.4307e-06 1.69943e-05 0.0828139)
(-7.34162e-06 4.45901e-06 0.100705)
(6.81828e-07 1.03668e-06 0.0940609)
(1.19165e-05 -4.42498e-06 0.100657)
(8.35518e-06 -7.63162e-06 0.0945664)
(1.97648e-07 -1.93127e-07 0.102541)
(-1.93477e-07 1.9893e-07 0.102541)
(1.93705e-07 1.96331e-07 0.102541)
(-6.30943e-07 -6.18612e-07 0.102533)
(6.24542e-07 -6.16836e-07 0.102533)
(-6.20681e-07 6.2783e-07 0.102533)
(6.23103e-07 6.28429e-07 0.102533)
(1.01047e-05 9.53687e-07 0.102142)
(-6.19935e-06 -1.6728e-06 0.100927)
(-8.17187e-07 -2.35661e-07 0.10253)
(1.10909e-06 -4.72504e-07 0.1025)
(-1.28969e-05 -8.86034e-07 0.102132)
(1.15134e-06 5.70576e-06 0.101045)
(-2.7538e-07 8.21849e-08 0.102523)
(-9.1313e-06 -1.66918e-06 0.0826123)
(1.70232e-05 -3.45433e-06 0.0828137)
(9.46698e-07 1.01088e-05 0.102142)
(-2.36139e-07 -8.15417e-07 0.10253)
(-1.64592e-06 -6.23331e-06 0.100927)
(-4.76416e-07 1.11036e-06 0.1025)
(-8.80674e-07 -1.29075e-05 0.102132)
(7.93242e-08 -2.7142e-07 0.102523)
(5.68734e-06 1.17694e-06 0.101044)
(3.6966e-06 9.09975e-06 0.0987501)
(9.08119e-06 3.69579e-06 0.0987496)
(4.16462e-05 4.16713e-05 0.102448)
(-6.2431e-06 -1.36713e-05 0.0989549)
(-1.36617e-05 -6.23318e-06 0.098954)
(7.20157e-06 -2.54802e-06 0.100746)
(5.09926e-06 -2.08055e-05 0.0938413)
(-5.63587e-06 3.59102e-06 0.100635)
(-4.03544e-06 2.46599e-05 0.0948602)
(1.38893e-05 -3.52891e-05 0.0826026)
(-2.05548e-05 4.89267e-05 0.0828248)
(-2.5177e-06 7.22083e-06 0.100746)
(-2.09626e-05 5.11253e-06 0.0938409)
(3.57058e-06 -5.6552e-06 0.100635)
(2.48337e-05 -4.05277e-06 0.0948601)
(3.85792e-07 -3.75833e-07 0.102543)
(-3.83425e-07 3.88555e-07 0.102543)
(3.83759e-07 3.91292e-07 0.102543)
(-2.63548e-06 -2.59587e-06 0.102527)
(2.61604e-06 -2.59209e-06 0.102527)
(-2.61607e-06 2.63002e-06 0.102527)
(2.61178e-06 2.63528e-06 0.102527)
(8.5786e-06 1.04262e-06 0.102147)
(4.12822e-06 -6.7815e-06 0.100905)
(-6.12763e-07 -4.98563e-07 0.102532)
(3.14209e-06 -2.27233e-06 0.102503)
(-9.05221e-06 -8.79854e-07 0.102129)
(-8.63143e-06 8.81097e-06 0.101074)
(1.04167e-07 2.03022e-07 0.102521)
(-3.52769e-05 1.39207e-05 0.0826013)
(4.89609e-05 -2.06089e-05 0.0828241)
(1.02849e-06 8.58514e-06 0.102147)
(-4.99419e-07 -6.03849e-07 0.102532)
(-6.77741e-06 4.0936e-06 0.100905)
(-2.28592e-06 3.16238e-06 0.102503)
(-8.85139e-07 -9.05805e-06 0.102129)
(1.90838e-07 1.13299e-07 0.102521)
(8.78653e-06 -8.60573e-06 0.101074)
(1.5647e-05 2.68984e-05 0.09865)
(2.6881e-05 1.56529e-05 0.0986496)
(3.88433e-05 3.88731e-05 0.102449)
(-2.14185e-05 -3.59456e-05 0.0990969)
(-3.5931e-05 -2.13936e-05 0.099096)
(4.33273e-06 -4.16156e-06 0.100861)
(-1.56616e-06 -4.22869e-05 0.0934085)
(-7.07664e-06 -4.79444e-06 0.100567)
(1.12976e-05 4.89001e-05 0.0954358)
(4.21066e-05 -8.60067e-05 0.082616)
(-6.34475e-05 0.00011875 0.0828286)
(-4.15169e-06 4.33383e-06 0.100861)
(-4.26302e-05 -1.50682e-06 0.0934081)
(-4.85068e-06 -7.09844e-06 0.100567)
(4.90938e-05 1.12229e-05 0.0954356)
(5.70451e-06 -5.66337e-06 0.10254)
(-5.69553e-06 5.72093e-06 0.10254)
(5.69197e-06 5.73073e-06 0.10254)
(-2.85523e-05 -2.84439e-05 0.102472)
(2.85467e-05 -2.84503e-05 0.102472)
(-2.85274e-05 2.85631e-05 0.102472)
(2.85431e-05 2.85724e-05 0.102472)
(2.36779e-05 -3.87464e-07 0.102149)
(2.01151e-05 -1.19209e-05 0.100894)
(5.00001e-06 -2.18855e-06 0.102532)
(1.8705e-05 -1.24678e-05 0.102501)
(-4.13963e-07 -1.05287e-06 0.10213)
(-5.7441e-06 1.41235e-06 0.101092)
(1.25378e-05 -2.23247e-06 0.102506)
(-8.59434e-05 4.21237e-05 0.0826149)
(0.000118443 -6.32867e-05 0.0828279)
(-4.10968e-07 2.36517e-05 0.102149)
(-2.21932e-06 4.99345e-06 0.102532)
(-1.19553e-05 2.00965e-05 0.100894)
(-1.25161e-05 1.87057e-05 0.102501)
(-1.07305e-06 -4.23976e-07 0.10213)
(-2.27246e-06 1.24948e-05 0.102506)
(1.32165e-06 -5.71964e-06 0.101092)
(3.86225e-05 5.4382e-05 0.0984502)
(5.42528e-05 3.863e-05 0.0984499)
(3.26839e-05 3.278e-05 0.102444)
(-4.30841e-05 -5.84962e-05 0.0993788)
(-5.85154e-05 -4.29251e-05 0.0993777)
(-1.61572e-05 -0.000138704 0.10119)
(-0.000127594 -0.000171921 0.0929975)
(-2.51009e-05 -8.36053e-05 0.100447)
(-0.000249961 -0.00013316 0.0971013)
(0.000265052 -0.000414553 0.0833318)
(0.000160445 -0.000349265 0.0906734)
(-0.000138892 -1.61738e-05 0.10119)
(-0.000172737 -0.000126921 0.0929966)
(-8.43581e-05 -2.5093e-05 0.100447)
(-0.000133318 -0.000249919 0.0971004)
(-9.53786e-06 -9.44307e-06 0.102405)
(-1.2993e-05 -3.63565e-05 0.102472)
(-3.64944e-05 -1.29e-05 0.102472)
(-4.25251e-05 -4.23751e-05 0.102391)
(-1.11693e-05 -1.10758e-05 0.102471)
(-1.04549e-05 -3.88908e-05 0.102402)
(-3.90387e-05 -1.03656e-05 0.102402)
(0.000121704 3.76922e-06 0.102018)
(0.000115664 -6.53766e-05 0.101043)
(6.00235e-05 -1.67416e-05 0.102461)
(5.51892e-05 -4.53392e-05 0.102363)
(7.84997e-05 -1.31624e-05 0.102129)
(7.74264e-05 -5.41364e-05 0.101166)
(5.74458e-05 -1.22809e-05 0.102388)
(-0.000414602 0.000264867 0.0833312)
(-0.000349172 0.000160162 0.0906728)
(3.74001e-06 0.000121599 0.102018)
(-1.6807e-05 5.99859e-05 0.102461)
(-6.55651e-05 0.000115635 0.101043)
(-4.54626e-05 5.51676e-05 0.102363)
(-1.31421e-05 7.84638e-05 0.102129)
(-1.23464e-05 5.74176e-05 0.102388)
(-5.42615e-05 7.72112e-05 0.101165)
(0.000242028 9.74813e-05 0.0984454)
(9.74158e-05 0.000242213 0.0984456)
(5.79317e-05 5.79444e-05 0.102317)
(3.06828e-05 -7.35677e-05 0.101107)
(-7.36963e-05 3.0804e-05 0.101108)
(1.09615e-06 -6.4413e-06 0.0942911)
(4.33952e-06 -1.33559e-05 0.10099)
(1.73336e-06 -2.50184e-06 0.0827212)
(5.08016e-06 -4.04831e-06 0.0988458)
(3.97731e-06 -5.03226e-06 0.0988477)
(2.38854e-06 -1.67508e-06 0.082723)
(1.33173e-05 -4.31129e-06 0.10099)
(6.38484e-06 -1.08166e-06 0.0942917)
(1.84999e-06 2.6082e-06 0.0827083)
(-1.72597e-06 -2.5144e-06 0.0827221)
(-2.49174e-06 -1.7425e-06 0.0827205)
(5.2852e-06 4.31978e-06 0.0988326)
(-4.36741e-05 -4.36529e-05 0.102447)
(-5.11257e-06 -4.09816e-06 0.098846)
(-4.09686e-06 -5.12694e-06 0.0988453)