/*--------------------------------*- C++ -*----------------------------------*\
| =========                 |                                                 |
| \\      /  F ield         | OpenFOAM: The Open Source CFD Toolbox           |
|  \\    /   O peration     | Version:  2206                                  |
|   \\  /    A nd           | Website:  www.openfoam.com                      |
|    \\/     M anipulation  |                                                 |
\*---------------------------------------------------------------------------*/
FoamFile
{
    version     2.0;
    format      ascii;
    arch        "LSB;label=32;scalar=64";
    class       volScalarField;
    location    "23";
    object      p;
}
// * * * * * * * * * * * * * * * * * * * * * * * * * * * * * * * * * * * * * //

dimensions      [0 2 -2 0 0 0 0];

internalField   nonuniform List<scalar> 
171728
(
0.00411396
0.00411428
0.00411428
0.00411734
0.00405861
0.00405901
0.00405901
0.00406199
0.00400783
0.00400782
0.00400782
0.00401056
0.00395554
0.00395548
0.00395548
0.00395821
0.00390519
0.00390501
0.00390501
0.00390742
0.00385994
0.00385986
0.00385986
0.00386242
0.0038164
0.00381635
0.00381636
0.00381892
0.00377302
0.00377299
0.00377299
0.00377554
0.00372968
0.00372965
0.00372965
0.0037322
0.00368634
0.00368631
0.00368631
0.00368886
0.00364299
0.00364296
0.00364296
0.00364551
0.00359965
0.00359962
0.00359962
0.00360217
0.0035563
0.00355627
0.00355627
0.00355882
0.00351296
0.00351293
0.00351292
0.00351548
0.00346961
0.00346958
0.00346958
0.00347213
0.00342627
0.00342623
0.00342623
0.00342878
0.00338292
0.00338289
0.00338289
0.00338544
0.00333958
0.00333954
0.00333954
0.0033421
0.00329623
0.0032962
0.0032962
0.00329875
0.00325289
0.00325285
0.00325286
0.00325541
0.00320954
0.00320951
0.00320951
0.00321206
0.0031662
0.00316617
0.00316617
0.00316872
0.00312285
0.00312282
0.00312282
0.00312537
0.00307951
0.00307948
0.00307948
0.00308203
0.00303617
0.00303613
0.00303613
0.00303869
0.00299282
0.00299279
0.00299279
0.00299534
0.00294947
0.00294944
0.00294944
0.00295199
0.00290611
0.00290608
0.00290608
0.00290863
0.00286276
0.00286272
0.00286272
0.00286528
0.0028194
0.00281937
0.00281937
0.00282192
0.00277604
0.00277601
0.00277601
0.00277856
0.00273268
0.00273265
0.00273265
0.0027352
0.00268932
0.00268929
0.00268929
0.00269184
0.00264596
0.00264593
0.00264593
0.00264848
0.0026026
0.00260256
0.00260256
0.00260512
0.00255923
0.0025592
0.0025592
0.00256175
0.00251587
0.00251584
0.00251584
0.00251839
0.00247251
0.00247248
0.00247248
0.00247503
0.00242915
0.00242911
0.00242911
0.00243167
0.00238579
0.00238575
0.00238575
0.00238831
0.00234243
0.00234239
0.00234239
0.00234495
0.00229907
0.00229903
0.00229903
0.00230159
0.00225571
0.00225567
0.00225567
0.00225823
0.00221235
0.00221231
0.00221231
0.00221487
0.00216899
0.00216895
0.00216895
0.00217151
0.00212563
0.00212559
0.00212559
0.00212815
0.00208227
0.00208223
0.00208223
0.00208479
0.00203891
0.00203887
0.00203887
0.00204143
0.00199555
0.00199551
0.00199551
0.00199807
0.00195219
0.00195216
0.00195216
0.00195471
0.00190884
0.0019088
0.0019088
0.00191136
0.00186548
0.00186545
0.00186545
0.001868
0.00182214
0.0018221
0.0018221
0.00182465
0.00177879
0.00177875
0.00177875
0.00178131
0.00173544
0.00173541
0.00173541
0.00173796
0.00169209
0.00169206
0.00169206
0.00169461
0.00164875
0.00164872
0.00164872
0.00165127
0.0016054
0.00160537
0.00160537
0.00160792
0.00156206
0.00156202
0.00156202
0.00156458
0.00151871
0.00151868
0.00151868
0.00152123
0.00147537
0.00147533
0.00147533
0.00147789
0.00143202
0.00143199
0.00143199
0.00143454
0.00138868
0.00138865
0.00138865
0.0013912
0.00134533
0.0013453
0.0013453
0.00134785
0.00130199
0.00130196
0.00130196
0.00130451
0.00125865
0.00125861
0.00125861
0.00126117
0.0012153
0.00121527
0.00121527
0.00121782
0.00117196
0.00117193
0.00117193
0.00117448
0.00112861
0.00112858
0.00112858
0.00113113
0.00108527
0.00108523
0.00108523
0.00108779
0.00104191
0.00104188
0.00104188
0.00104444
0.000998562
0.000998529
0.000998529
0.00100108
0.000955208
0.000955175
0.000955175
0.000957728
0.000911853
0.00091182
0.00091182
0.000914373
0.000868498
0.000868465
0.000868465
0.000871018
0.000825142
0.00082511
0.000825109
0.000827662
0.000781786
0.000781753
0.000781753
0.000784306
0.000738429
0.000738397
0.000738397
0.000740949
0.000695073
0.00069504
0.00069504
0.000697593
0.000651715
0.000651683
0.000651683
0.000654236
0.000608358
0.000608325
0.000608325
0.000610878
0.000565
0.000564967
0.000564967
0.00056752
0.000521641
0.000521609
0.000521609
0.000524161
0.000478282
0.00047825
0.00047825
0.000480802
0.000434923
0.000434891
0.000434891
0.000437443
0.000391564
0.000391532
0.000391532
0.000394084
0.000348206
0.000348173
0.000348173
0.000350726
0.000304848
0.000304816
0.000304816
0.000307368
0.000261492
0.00026146
0.00026146
0.000264012
0.000218132
0.000218102
0.000218102
0.00022065
0.000174778
0.000174736
0.000174736
0.000177282
0.000131401
0.000131372
0.000131372
0.0001339
8.80556e-05
8.80179e-05
8.80163e-05
9.05234e-05
4.53563e-05
4.48047e-05
4.48017e-05
4.71746e-05
9.93604e-06
1.02103e-05
1.02082e-05
9.77005e-06
0.00412737
0.00412759
0.00412759
0.00412737
0.00412759
0.00412759
0.00412835
0.00412835
0.00412835
0.00412835
0.00412759
0.00412759
0.00412737
0.00412759
0.00412759
0.00412737
0.00411734
0.00406858
0.00411428
0.00411428
0.00407086
0.00407086
0.00411734
0.00406858
0.00411428
0.00411428
0.00407085
0.00407086
0.00411428
0.00407085
0.00407086
0.00411734
0.00406858
0.00411429
0.00407085
0.00407085
0.00406858
0.00406199
0.00401752
0.00405902
0.00405902
0.00402094
0.00402094
0.004062
0.00401752
0.00405901
0.00405901
0.00402094
0.00402094
0.00405901
0.00402094
0.00402094
0.00406199
0.00401752
0.00405901
0.00402094
0.00402094
0.00401752
0.00401056
0.00396513
0.00400782
0.00400782
0.00396849
0.00396849
0.00401056
0.00396513
0.00400782
0.00400782
0.00396849
0.00396849
0.00400782
0.00396849
0.00396849
0.00401056
0.00396513
0.00400782
0.00396849
0.00396849
0.00396513
0.00395821
0.00391388
0.00395548
0.00395549
0.00391718
0.00391718
0.00395821
0.00391388
0.00395548
0.00395548
0.00391718
0.00391718
0.00395548
0.00391718
0.00391718
0.00395821
0.00391388
0.00395548
0.00391718
0.00391718
0.00391388
0.00390743
0.00386818
0.003905
0.003905
0.00387081
0.00387081
0.00390743
0.00386819
0.003905
0.003905
0.00387081
0.00387081
0.00390501
0.00387081
0.00387081
0.00390743
0.00386819
0.00390501
0.00387081
0.00387081
0.00386818
0.00386243
0.00382466
0.00385986
0.00385986
0.00382721
0.00382721
0.00386243
0.00382466
0.00385986
0.00385986
0.00382721
0.00382721
0.00385986
0.00382721
0.00382721
0.00386243
0.00382466
0.00385986
0.00382721
0.00382721
0.00382466
0.00381892
0.00378128
0.00381636
0.00381635
0.00378383
0.00378383
0.00381892
0.00378128
0.00381636
0.00381636
0.00378383
0.00378383
0.00381636
0.00378383
0.00378383
0.00381892
0.00378128
0.00381636
0.00378383
0.00378383
0.00378128
0.00377554
0.00373794
0.00377299
0.00377299
0.00374048
0.00374048
0.00377554
0.00373794
0.00377299
0.00377299
0.00374048
0.00374048
0.00377299
0.00374048
0.00374048
0.00377554
0.00373794
0.00377299
0.00374048
0.00374048
0.00373794
0.0037322
0.0036946
0.00372965
0.00372965
0.00369714
0.00369714
0.0037322
0.0036946
0.00372965
0.00372965
0.00369714
0.00369714
0.00372965
0.00369714
0.00369714
0.0037322
0.0036946
0.00372965
0.00369714
0.00369714
0.0036946
0.00368886
0.00365125
0.00368631
0.00368631
0.0036538
0.0036538
0.00368886
0.00365125
0.00368631
0.00368631
0.0036538
0.0036538
0.00368631
0.0036538
0.0036538
0.00368886
0.00365125
0.00368631
0.0036538
0.0036538
0.00365125
0.00364551
0.00360791
0.00364296
0.00364296
0.00361045
0.00361045
0.00364551
0.00360791
0.00364296
0.00364296
0.00361045
0.00361045
0.00364296
0.00361045
0.00361045
0.00364551
0.00360791
0.00364296
0.00361045
0.00361045
0.00360791
0.00360217
0.00356456
0.00359962
0.00359962
0.00356711
0.00356711
0.00360217
0.00356456
0.00359962
0.00359962
0.00356711
0.00356711
0.00359962
0.00356711
0.00356711
0.00360217
0.00356456
0.00359962
0.00356711
0.00356711
0.00356456
0.00355882
0.00352122
0.00355627
0.00355627
0.00352376
0.00352376
0.00355882
0.00352122
0.00355627
0.00355627
0.00352376
0.00352376
0.00355627
0.00352376
0.00352376
0.00355882
0.00352122
0.00355627
0.00352376
0.00352376
0.00352122
0.00351548
0.00347787
0.00351292
0.00351293
0.00348042
0.00348042
0.00351548
0.00347787
0.00351292
0.00351292
0.00348042
0.00348042
0.00351292
0.00348042
0.00348042
0.00351548
0.00347787
0.00351292
0.00348042
0.00348042
0.00347787
0.00347213
0.00343452
0.00346958
0.00346958
0.00343707
0.00343707
0.00347213
0.00343452
0.00346958
0.00346958
0.00343707
0.00343707
0.00346958
0.00343707
0.00343707
0.00347213
0.00343452
0.00346958
0.00343707
0.00343707
0.00343452
0.00342878
0.00339118
0.00342623
0.00342623
0.00339372
0.00339372
0.00342878
0.00339118
0.00342623
0.00342623
0.00339372
0.00339372
0.00342623
0.00339372
0.00339372
0.00342878
0.00339118
0.00342623
0.00339372
0.00339372
0.00339118
0.00338544
0.00334783
0.00338289
0.00338289
0.00335038
0.00335038
0.00338544
0.00334783
0.00338289
0.00338289
0.00335038
0.00335038
0.00338289
0.00335038
0.00335038
0.00338544
0.00334783
0.00338289
0.00335038
0.00335038
0.00334783
0.0033421
0.00330449
0.00333954
0.00333954
0.00330704
0.00330704
0.0033421
0.00330449
0.00333954
0.00333954
0.00330704
0.00330704
0.00333954
0.00330704
0.00330704
0.0033421
0.00330449
0.00333954
0.00330704
0.00330704
0.00330449
0.00329875
0.00326114
0.0032962
0.0032962
0.00326369
0.00326369
0.00329875
0.00326114
0.0032962
0.0032962
0.00326369
0.00326369
0.0032962
0.00326369
0.00326369
0.00329875
0.00326115
0.0032962
0.00326369
0.00326369
0.00326115
0.00325541
0.0032178
0.00325285
0.00325285
0.00322035
0.00322035
0.0032554
0.0032178
0.00325285
0.00325286
0.00322035
0.00322035
0.00325286
0.00322035
0.00322035
0.00325541
0.0032178
0.00325286
0.00322035
0.00322035
0.0032178
0.00321206
0.00317446
0.00320951
0.00320951
0.003177
0.003177
0.00321206
0.00317446
0.00320951
0.00320951
0.003177
0.003177
0.00320951
0.003177
0.003177
0.00321206
0.00317446
0.00320951
0.003177
0.003177
0.00317446
0.00316872
0.00313111
0.00316617
0.00316617
0.00313366
0.00313366
0.00316872
0.00313111
0.00316617
0.00316617
0.00313366
0.00313366
0.00316617
0.00313366
0.00313366
0.00316872
0.00313111
0.00316617
0.00313366
0.00313366
0.00313111
0.00312537
0.00308777
0.00312282
0.00312282
0.00309031
0.00309031
0.00312537
0.00308777
0.00312282
0.00312282
0.00309031
0.00309031
0.00312282
0.00309031
0.00309031
0.00312537
0.00308777
0.00312282
0.00309031
0.00309031
0.00308777
0.00308203
0.00304443
0.00307948
0.00307948
0.00304697
0.00304697
0.00308203
0.00304443
0.00307948
0.00307948
0.00304697
0.00304697
0.00307948
0.00304697
0.00304697
0.00308203
0.00304443
0.00307948
0.00304697
0.00304697
0.00304443
0.00303869
0.00300108
0.00303613
0.00303613
0.00300362
0.00300362
0.00303869
0.00300108
0.00303613
0.00303613
0.00300362
0.00300362
0.00303613
0.00300362
0.00300362
0.00303869
0.00300108
0.00303613
0.00300362
0.00300362
0.00300108
0.00299534
0.00295773
0.00299279
0.00299279
0.00296027
0.00296027
0.00299534
0.00295773
0.00299279
0.00299279
0.00296027
0.00296027
0.00299279
0.00296027
0.00296027
0.00299534
0.00295773
0.00299279
0.00296027
0.00296027
0.00295773
0.00295199
0.00291437
0.00294944
0.00294944
0.00291692
0.00291692
0.00295199
0.00291437
0.00294944
0.00294944
0.00291692
0.00291692
0.00294944
0.00291692
0.00291692
0.00295199
0.00291437
0.00294944
0.00291692
0.00291692
0.00291437
0.00290863
0.00287102
0.00290608
0.00290608
0.00287356
0.00287356
0.00290863
0.00287102
0.00290608
0.00290608
0.00287356
0.00287356
0.00290608
0.00287356
0.00287356
0.00290863
0.00287102
0.00290608
0.00287356
0.00287356
0.00287102
0.00286528
0.00282766
0.00286272
0.00286272
0.00283021
0.00283021
0.00286528
0.00282766
0.00286272
0.00286272
0.00283021
0.00283021
0.00286272
0.00283021
0.00283021
0.00286528
0.00282766
0.00286272
0.00283021
0.00283021
0.00282766
0.00282192
0.0027843
0.00281937
0.00281937
0.00278685
0.00278685
0.00282192
0.0027843
0.00281937
0.00281937
0.00278685
0.00278685
0.00281937
0.00278685
0.00278685
0.00282192
0.0027843
0.00281937
0.00278685
0.00278685
0.0027843
0.00277856
0.00274094
0.00277601
0.00277601
0.00274349
0.00274349
0.00277856
0.00274094
0.00277601
0.00277601
0.00274349
0.00274349
0.00277601
0.00274349
0.00274349
0.00277856
0.00274094
0.00277601
0.00274349
0.00274349
0.00274094
0.0027352
0.00269758
0.00273265
0.00273265
0.00270013
0.00270013
0.0027352
0.00269758
0.00273265
0.00273265
0.00270013
0.00270013
0.00273265
0.00270013
0.00270013
0.0027352
0.00269758
0.00273265
0.00270013
0.00270013
0.00269758
0.00269184
0.00265422
0.00268929
0.00268929
0.00265677
0.00265677
0.00269184
0.00265422
0.00268929
0.00268929
0.00265677
0.00265677
0.00268929
0.00265677
0.00265677
0.00269184
0.00265422
0.00268929
0.00265677
0.00265677
0.00265422
0.00264848
0.00261086
0.00264593
0.00264593
0.0026134
0.0026134
0.00264848
0.00261086
0.00264593
0.00264593
0.0026134
0.0026134
0.00264593
0.0026134
0.0026134
0.00264848
0.00261086
0.00264593
0.0026134
0.0026134
0.00261086
0.00260512
0.00256749
0.00260256
0.00260256
0.00257004
0.00257004
0.00260511
0.00256749
0.00260256
0.00260256
0.00257004
0.00257004
0.00260256
0.00257004
0.00257004
0.00260512
0.00256749
0.00260256
0.00257004
0.00257004
0.00256749
0.00256175
0.00252413
0.0025592
0.0025592
0.00252668
0.00252668
0.00256175
0.00252413
0.0025592
0.0025592
0.00252668
0.00252668
0.0025592
0.00252668
0.00252668
0.00256175
0.00252413
0.0025592
0.00252668
0.00252668
0.00252413
0.00251839
0.00248077
0.00251584
0.00251584
0.00248332
0.00248332
0.00251839
0.00248077
0.00251584
0.00251584
0.00248332
0.00248332
0.00251584
0.00248332
0.00248332
0.00251839
0.00248077
0.00251584
0.00248332
0.00248332
0.00248077
0.00247503
0.00243741
0.00247248
0.00247248
0.00243996
0.00243995
0.00247503
0.00243741
0.00247248
0.00247248
0.00243995
0.00243996
0.00247248
0.00243996
0.00243996
0.00247503
0.00243741
0.00247248
0.00243996
0.00243996
0.00243741
0.00243167
0.00239405
0.00242911
0.00242911
0.00239659
0.00239659
0.00243167
0.00239405
0.00242911
0.00242911
0.00239659
0.00239659
0.00242912
0.00239659
0.00239659
0.00243167
0.00239405
0.00242912
0.00239659
0.00239659
0.00239405
0.00238831
0.00235069
0.00238575
0.00238575
0.00235323
0.00235323
0.00238831
0.00235069
0.00238575
0.00238575
0.00235323
0.00235323
0.00238575
0.00235323
0.00235323
0.00238831
0.00235069
0.00238575
0.00235323
0.00235323
0.00235069
0.00234495
0.00230733
0.00234239
0.00234239
0.00230987
0.00230988
0.00234495
0.00230733
0.00234239
0.00234239
0.00230987
0.00230987
0.00234239
0.00230987
0.00230987
0.00234495
0.00230733
0.00234239
0.00230987
0.00230987
0.00230733
0.00230159
0.00226397
0.00229903
0.00229903
0.00226651
0.00226651
0.00230159
0.00226397
0.00229903
0.00229903
0.00226651
0.00226651
0.00229903
0.00226651
0.00226651
0.00230159
0.00226397
0.00229903
0.00226651
0.00226651
0.00226397
0.00225823
0.00222061
0.00225567
0.00225567
0.00222315
0.00222315
0.00225823
0.00222061
0.00225567
0.00225567
0.00222315
0.00222315
0.00225567
0.00222315
0.00222315
0.00225823
0.00222061
0.00225567
0.00222315
0.00222315
0.00222061
0.00221487
0.00217725
0.00221231
0.00221231
0.00217979
0.00217979
0.00221487
0.00217725
0.00221231
0.00221231
0.00217979
0.00217979
0.00221231
0.00217979
0.00217979
0.00221487
0.00217725
0.00221231
0.00217979
0.00217979
0.00217725
0.00217151
0.00213389
0.00216895
0.00216895
0.00213643
0.00213643
0.00217151
0.00213389
0.00216895
0.00216895
0.00213643
0.00213643
0.00216895
0.00213643
0.00213643
0.00217151
0.00213389
0.00216895
0.00213643
0.00213643
0.00213389
0.00212815
0.00209053
0.00212559
0.00212559
0.00209307
0.00209307
0.00212815
0.00209053
0.00212559
0.00212559
0.00209307
0.00209307
0.00212559
0.00209307
0.00209307
0.00212815
0.00209053
0.00212559
0.00209307
0.00209307
0.00209053
0.00208479
0.00204717
0.00208223
0.00208223
0.00204971
0.00204971
0.00208479
0.00204717
0.00208223
0.00208223
0.00204971
0.00204971
0.00208223
0.00204971
0.00204971
0.00208479
0.00204717
0.00208223
0.00204971
0.00204971
0.00204717
0.00204143
0.00200381
0.00203887
0.00203887
0.00200635
0.00200635
0.00204143
0.00200381
0.00203887
0.00203887
0.00200635
0.00200635
0.00203887
0.00200635
0.00200635
0.00204143
0.00200381
0.00203887
0.00200635
0.00200635
0.00200381
0.00199807
0.00196045
0.00199551
0.00199551
0.001963
0.001963
0.00199807
0.00196045
0.00199551
0.00199551
0.001963
0.001963
0.00199551
0.001963
0.001963
0.00199807
0.00196045
0.00199551
0.001963
0.001963
0.00196045
0.00195471
0.0019171
0.00195216
0.00195216
0.00191964
0.00191964
0.00195471
0.0019171
0.00195216
0.00195216
0.00191964
0.00191964
0.00195216
0.00191964
0.00191964
0.00195471
0.0019171
0.00195216
0.00191964
0.00191964
0.0019171
0.00191136
0.00187374
0.0019088
0.0019088
0.00187629
0.00187629
0.00191136
0.00187374
0.0019088
0.0019088
0.00187629
0.00187629
0.0019088
0.00187629
0.00187629
0.00191136
0.00187374
0.0019088
0.00187629
0.00187629
0.00187374
0.001868
0.00183039
0.00186545
0.00186545
0.00183294
0.00183294
0.001868
0.00183039
0.00186545
0.00186545
0.00183294
0.00183294
0.00186545
0.00183294
0.00183294
0.001868
0.00183039
0.00186545
0.00183294
0.00183294
0.00183039
0.00182465
0.00178705
0.0018221
0.0018221
0.00178959
0.00178959
0.00182465
0.00178705
0.0018221
0.0018221
0.00178959
0.00178959
0.0018221
0.00178959
0.00178959
0.00182465
0.00178705
0.0018221
0.00178959
0.00178959
0.00178705
0.00178131
0.0017437
0.00177875
0.00177875
0.00174624
0.00174624
0.00178131
0.0017437
0.00177875
0.00177875
0.00174624
0.00174624
0.00177875
0.00174624
0.00174624
0.00178131
0.0017437
0.00177875
0.00174624
0.00174624
0.0017437
0.00173796
0.00170035
0.00173541
0.00173541
0.0017029
0.0017029
0.00173796
0.00170035
0.00173541
0.00173541
0.0017029
0.0017029
0.00173541
0.0017029
0.0017029
0.00173796
0.00170035
0.00173541
0.0017029
0.0017029
0.00170035
0.00169461
0.00165701
0.00169206
0.00169206
0.00165955
0.00165955
0.00169461
0.00165701
0.00169206
0.00169206
0.00165955
0.00165955
0.00169206
0.00165955
0.00165955
0.00169461
0.00165701
0.00169206
0.00165955
0.00165955
0.00165701
0.00165127
0.00161366
0.00164872
0.00164872
0.00161621
0.00161621
0.00165127
0.00161366
0.00164872
0.00164872
0.00161621
0.00161621
0.00164872
0.00161621
0.00161621
0.00165127
0.00161366
0.00164872
0.00161621
0.00161621
0.00161366
0.00160792
0.00157031
0.00160537
0.00160537
0.00157286
0.00157286
0.00160792
0.00157031
0.00160537
0.00160537
0.00157286
0.00157286
0.00160537
0.00157286
0.00157286
0.00160792
0.00157031
0.00160537
0.00157286
0.00157286
0.00157031
0.00156458
0.00152697
0.00156202
0.00156202
0.00152952
0.00152951
0.00156458
0.00152697
0.00156202
0.00156202
0.00152951
0.00152952
0.00156202
0.00152952
0.00152952
0.00156458
0.00152697
0.00156202
0.00152952
0.00152952
0.00152697
0.00152123
0.00148362
0.00151868
0.00151868
0.00148617
0.00148617
0.00152123
0.00148362
0.00151868
0.00151868
0.00148617
0.00148617
0.00151868
0.00148617
0.00148617
0.00152123
0.00148362
0.00151868
0.00148617
0.00148617
0.00148362
0.00147789
0.00144028
0.00147533
0.00147533
0.00144283
0.00144283
0.00147789
0.00144028
0.00147533
0.00147533
0.00144283
0.00144283
0.00147533
0.00144283
0.00144283
0.00147789
0.00144028
0.00147533
0.00144283
0.00144283
0.00144028
0.00143454
0.00139694
0.00143199
0.00143199
0.00139948
0.00139948
0.00143454
0.00139694
0.00143199
0.00143199
0.00139948
0.00139948
0.00143199
0.00139948
0.00139948
0.00143454
0.00139694
0.00143199
0.00139948
0.00139948
0.00139694
0.0013912
0.00135359
0.00138865
0.00138865
0.00135614
0.00135614
0.0013912
0.00135359
0.00138865
0.00138865
0.00135614
0.00135614
0.00138865
0.00135614
0.00135614
0.0013912
0.00135359
0.00138865
0.00135614
0.00135614
0.00135359
0.00134785
0.00131025
0.0013453
0.0013453
0.00131279
0.00131279
0.00134785
0.00131025
0.0013453
0.0013453
0.00131279
0.00131279
0.0013453
0.00131279
0.00131279
0.00134785
0.00131025
0.0013453
0.00131279
0.00131279
0.00131025
0.00130451
0.0012669
0.00130196
0.00130196
0.00126945
0.00126945
0.00130451
0.0012669
0.00130196
0.00130196
0.00126945
0.00126945
0.00130196
0.00126945
0.00126945
0.00130451
0.0012669
0.00130196
0.00126945
0.00126945
0.0012669
0.00126117
0.00122356
0.00125861
0.00125861
0.00122611
0.00122611
0.00126117
0.00122356
0.00125861
0.00125861
0.00122611
0.00122611
0.00125862
0.00122611
0.00122611
0.00126117
0.00122356
0.00125861
0.00122611
0.00122611
0.00122356
0.00121782
0.00118022
0.00121527
0.00121527
0.00118276
0.00118276
0.00121782
0.00118022
0.00121527
0.00121527
0.00118276
0.00118276
0.00121527
0.00118276
0.00118276
0.00121782
0.00118022
0.00121527
0.00118276
0.00118276
0.00118022
0.00117448
0.00113687
0.00117193
0.00117193
0.00113942
0.00113942
0.00117448
0.00113687
0.00117193
0.00117193
0.00113942
0.00113942
0.00117193
0.00113942
0.00113942
0.00117448
0.00113687
0.00117193
0.00113942
0.00113942
0.00113687
0.00113113
0.00109352
0.00112858
0.00112858
0.00109607
0.00109607
0.00113113
0.00109352
0.00112858
0.00112858
0.00109607
0.00109607
0.00112858
0.00109607
0.00109607
0.00113113
0.00109352
0.00112858
0.00109607
0.00109607
0.00109352
0.00108779
0.00105017
0.00108523
0.00108523
0.00105272
0.00105272
0.00108779
0.00105017
0.00108523
0.00108523
0.00105272
0.00105272
0.00108523
0.00105272
0.00105272
0.00108779
0.00105017
0.00108523
0.00105272
0.00105272
0.00105017
0.00104443
0.00100682
0.00104188
0.00104188
0.00100937
0.00100937
0.00104443
0.00100682
0.00104188
0.00104188
0.00100937
0.00100937
0.00104188
0.00100937
0.00100937
0.00104443
0.00100682
0.00104188
0.00100937
0.00100937
0.00100682
0.00100108
0.000963467
0.000998529
0.000998529
0.000966014
0.000966014
0.00100108
0.000963468
0.000998529
0.000998529
0.000966014
0.000966014
0.00099853
0.000966014
0.000966014
0.00100108
0.000963467
0.000998529
0.000966014
0.000966014
0.000963467
0.000957727
0.000920113
0.000955175
0.000955175
0.000922659
0.000922659
0.000957727
0.000920113
0.000955175
0.000955175
0.000922659
0.000922659
0.000955175
0.000922659
0.000922659
0.000957728
0.000920113
0.000955175
0.000922659
0.000922659
0.000920113
0.000914373
0.000876757
0.00091182
0.00091182
0.000879304
0.000879304
0.000914372
0.000876758
0.00091182
0.00091182
0.000879304
0.000879304
0.000911821
0.000879304
0.000879304
0.000914373
0.000876757
0.00091182
0.000879304
0.000879304
0.000876757
0.000871017
0.000833402
0.000868465
0.000868465
0.000835949
0.000835948
0.000871017
0.000833402
0.000868465
0.000868465
0.000835948
0.000835948
0.000868465
0.000835949
0.000835949
0.000871017
0.000833402
0.000868465
0.000835948
0.000835948
0.000833402
0.000827662
0.000790046
0.00082511
0.000825109
0.000792592
0.000792592
0.000827662
0.000790046
0.000825109
0.000825109
0.000792592
0.000792592
0.00082511
0.000792592
0.000792593
0.000827662
0.000790046
0.000825109
0.000792592
0.000792592
0.000790046
0.000784306
0.00074669
0.000781753
0.000781753
0.000749236
0.000749236
0.000784306
0.00074669
0.000781753
0.000781753
0.000749236
0.000749236
0.000781754
0.000749236
0.000749236
0.000784306
0.000746689
0.000781753
0.000749236
0.000749236
0.000746689
0.000740949
0.000703333
0.000738397
0.000738397
0.000705879
0.000705879
0.000740949
0.000703333
0.000738397
0.000738397
0.000705879
0.000705879
0.000738397
0.000705879
0.00070588
0.000740949
0.000703333
0.000738397
0.000705879
0.000705879
0.000703333
0.000697593
0.000659976
0.00069504
0.00069504
0.000662522
0.000662522
0.000697592
0.000659976
0.00069504
0.00069504
0.000662522
0.000662522
0.00069504
0.000662522
0.000662523
0.000697592
0.000659976
0.00069504
0.000662522
0.000662522
0.000659976
0.000654235
0.000616618
0.000651683
0.000651683
0.000619165
0.000619165
0.000654235
0.000616618
0.000651683
0.000651683
0.000619165
0.000619165
0.000651683
0.000619165
0.000619165
0.000654235
0.000616618
0.000651683
0.000619165
0.000619165
0.000616618
0.000610878
0.00057326
0.000608325
0.000608325
0.000575807
0.000575807
0.000610878
0.00057326
0.000608325
0.000608325
0.000575807
0.000575807
0.000608326
0.000575807
0.000575807
0.000610878
0.00057326
0.000608325
0.000575807
0.000575807
0.00057326
0.00056752
0.000529902
0.000564967
0.000564967
0.000532448
0.000532448
0.00056752
0.000529902
0.000564967
0.000564967
0.000532448
0.000532448
0.000564968
0.000532448
0.000532449
0.00056752
0.000529902
0.000564967
0.000532448
0.000532448
0.000529902
0.000524161
0.000486543
0.000521609
0.000521609
0.00048909
0.00048909
0.000524161
0.000486543
0.000521609
0.000521609
0.00048909
0.00048909
0.000521609
0.00048909
0.00048909
0.000524161
0.000486543
0.000521609
0.00048909
0.00048909
0.000486543
0.000480802
0.000443184
0.00047825
0.00047825
0.000445731
0.00044573
0.000480802
0.000443184
0.00047825
0.00047825
0.00044573
0.000445731
0.00047825
0.000445731
0.000445731
0.000480802
0.000443184
0.00047825
0.000445731
0.000445731
0.000443184
0.000437443
0.000399825
0.000434891
0.000434891
0.000402371
0.000402371
0.000437443
0.000399825
0.000434891
0.000434891
0.000402371
0.000402371
0.000434891
0.000402371
0.000402372
0.000437443
0.000399825
0.000434891
0.000402371
0.000402371
0.000399825
0.000394084
0.000356466
0.000391532
0.000391532
0.000359013
0.000359013
0.000394084
0.000356466
0.000391532
0.000391532
0.000359013
0.000359013
0.000391532
0.000359013
0.000359013
0.000394084
0.000356466
0.000391532
0.000359013
0.000359013
0.000356466
0.000350726
0.000313108
0.000348173
0.000348173
0.000315655
0.000315655
0.000350725
0.000313109
0.000348173
0.000348173
0.000315655
0.000315655
0.000348173
0.000315655
0.000315655
0.000350726
0.000313108
0.000348173
0.000315655
0.000315655
0.000313108
0.000307368
0.000269752
0.000304816
0.000304816
0.000272298
0.000272298
0.000307368
0.000269752
0.000304816
0.000304816
0.000272298
0.000272298
0.000304816
0.000272298
0.000272299
0.000307368
0.000269752
0.000304816
0.000272298
0.000272298
0.000269752
0.000264012
0.000226394
0.00026146
0.00026146
0.000228942
0.000228942
0.000264011
0.000226395
0.00026146
0.00026146
0.000228942
0.000228942
0.00026146
0.000228942
0.000228942
0.000264012
0.000226394
0.00026146
0.000228942
0.000228942
0.000226394
0.00022065
0.000183034
0.000218102
0.000218101
0.000185568
0.000185568
0.000220649
0.000183034
0.000218102
0.000218102
0.000185568
0.000185568
0.000218102
0.000185568
0.000185568
0.00022065
0.000183033
0.000218102
0.000185568
0.000185568
0.000183034
0.000177282
0.00013969
0.000174736
0.000174736
0.000142242
0.000142242
0.000177282
0.00013969
0.000174736
0.000174736
0.000142242
0.000142242
0.000174736
0.000142242
0.000142242
0.000177282
0.00013969
0.000174736
0.000142242
0.000142242
0.00013969
0.0001339
9.63192e-05
0.000131372
0.000131373
9.88579e-05
9.88587e-05
0.0001339
9.63201e-05
0.000131372
0.000131372
9.88578e-05
9.88575e-05
0.000131372
9.88581e-05
9.88578e-05
0.0001339
9.63186e-05
0.000131373
9.88574e-05
9.88574e-05
9.63188e-05
9.05243e-05
5.29899e-05
8.80172e-05
8.80181e-05
5.55303e-05
5.55308e-05
9.05245e-05
5.29909e-05
8.80167e-05
8.80161e-05
5.55283e-05
5.55279e-05
8.80171e-05
5.55292e-05
5.55275e-05
9.05238e-05
5.29873e-05
8.80164e-05
5.55267e-05
5.55262e-05
5.29871e-05
4.71783e-05
1.35556e-05
4.48066e-05
4.48067e-05
1.58094e-05
1.58087e-05
4.71787e-05
1.35554e-05
4.48044e-05
4.48031e-05
1.58073e-05
1.58036e-05
4.48023e-05
1.58061e-05
1.58019e-05
4.7175e-05
1.35511e-05
4.48013e-05
1.5804e-05
1.58034e-05
1.35499e-05
9.77406e-06
1.02117e-05
1.0212e-05
9.77508e-06
1.02101e-05
1.02077e-05
9.93591e-06
9.93388e-06
9.93348e-06
1.02068e-05
9.77116e-06
1.02073e-05
0.00413574
0.0041455
0.0041403
0.0041403
0.00416267
0.00414946
0.00417806
0.00414351
0.00416267
0.00414946
0.00414351
0.00417806
0.00415403
0.00418179
0.0041818
0.00409109
0.00411023
0.00411943
0.00408315
0.00408394
0.00408668
0.00409107
0.00411021
0.00411942
0.00408313
0.00411396
0.00411396
0.00411396
0.00407053
0.00407053
0.00407053
0.00407053
0.0040886
0.00411442
0.00411435
0.00409742
0.00411745
0.0040875
0.00409831
0.00408404
0.00408668
0.0040886
0.00411436
0.00411444
0.00409743
0.00411744
0.00409831
0.0040875
0.0041203
0.00412028
0.00409182
0.00408712
0.00408712
0.00404438
0.00406378
0.00406511
0.00404282
0.00406267
0.00404239
0.00404438
0.00406377
0.00406511
0.00404281
0.00405861
0.0040586
0.0040586
0.00402101
0.00402101
0.00402101
0.00402101
0.00404299
0.00406382
0.00405859
0.00404675
0.00406262
0.00404348
0.00404647
0.00406267
0.00404238
0.00404299
0.00405859
0.00406382
0.00404675
0.00406262
0.00404647
0.00404348
0.00406487
0.00406487
0.00404327
0.00404375
0.00404375
0.00399197
0.00401121
0.00401225
0.00399091
0.00401085
0.00399064
0.00399197
0.00401121
0.00401225
0.00399091
0.00400783
0.00400783
0.00400783
0.00396845
0.00396845
0.00396845
0.00396845
0.00399119
0.00401154
0.00400771
0.00399462
0.00401092
0.00399146
0.00399456
0.00401085
0.00399064
0.00399119
0.00400771
0.00401154
0.00399462
0.00401092
0.00399456
0.00399146
0.00401184
0.00401184
0.00399128
0.00399148
0.00399148
0.00393966
0.00395828
0.00395907
0.00393877
0.00395806
0.00393865
0.00393966
0.00395828
0.00395908
0.00393877
0.00395554
0.00395554
0.00395554
0.00391735
0.00391735
0.00391735
0.00391735
0.00393912
0.00395868
0.00395548
0.00394248
0.00395843
0.00393923
0.00394253
0.00395806
0.00393865
0.00393912
0.00395548
0.00395868
0.00394248
0.00395843
0.00394253
0.00393923
0.0039587
0.0039587
0.00393917
0.00393922
0.00393922
0.00388944
0.00390667
0.00390732
0.0038893
0.00390628
0.00388907
0.00388944
0.00390667
0.00390732
0.0038893
0.00390519
0.00390519
0.00390519
0.00387093
0.00387093
0.00387093
0.00387093
0.00388986
0.00390721
0.00390509
0.00389324
0.00390728
0.0038898
0.00389334
0.00390628
0.00388906
0.00388986
0.00390509
0.00390721
0.00389324
0.00390728
0.00389334
0.0038898
0.00390672
0.00390672
0.00389026
0.00388934
0.00388934
0.00384612
0.00386215
0.0038622
0.00384606
0.00386219
0.00384609
0.00384612
0.00386215
0.0038622
0.00384606
0.00385994
0.00385994
0.00385994
0.00382726
0.00382726
0.00382726
0.00382726
0.00384624
0.00386233
0.00385988
0.00384896
0.00386234
0.00384619
0.00384897
0.00386216
0.0038461
0.00384624
0.00385988