/*--------------------------------*- C++ -*----------------------------------*\
| =========                 |                                                 |
| \\      /  F ield         | OpenFOAM: The Open Source CFD Toolbox           |
|  \\    /   O peration     | Version:  2206                                  |
|   \\  /    A nd           | Website:  www.openfoam.com                      |
|    \\/     M anipulation  |                                                 |
\*---------------------------------------------------------------------------*/
FoamFile
{
    version     2.0;
    format      ascii;
    arch        "LSB;label=32;scalar=64";
    class       volScalarField;
    location    "37";
    object      epsilon;
}
// * * * * * * * * * * * * * * * * * * * * * * * * * * * * * * * * * * * * * //

dimensions      [0 2 -3 0 0 0 0];

internalField   nonuniform List<scalar> 
28335
(
2.4407e-07
2.73559e-07
2.73571e-07
3.08465e-07
2.44072e-07
2.73563e-07
2.73574e-07
3.08477e-07
2.44073e-07
2.73566e-07
2.73578e-07
3.08484e-07
2.44075e-07
2.7357e-07
2.73582e-07
3.08493e-07
2.44073e-07
2.73574e-07
2.73585e-07
3.08501e-07
2.44071e-07
2.73576e-07
2.73587e-07
3.08508e-07
2.44069e-07
2.73578e-07
2.73589e-07
3.08513e-07
2.44065e-07
2.73573e-07
2.73584e-07
3.08511e-07
2.43997e-07
2.73491e-07
2.73503e-07
3.08431e-07
2.43967e-07
2.7346e-07
2.73472e-07
3.08367e-07
2.43967e-07
2.7346e-07
2.73472e-07
3.08383e-07
2.43966e-07
2.7346e-07
2.73471e-07
3.08376e-07
2.43966e-07
2.7346e-07
2.73471e-07
3.08377e-07
2.43966e-07
2.7346e-07
2.73471e-07
3.08379e-07
2.43966e-07
2.7346e-07
2.73471e-07
3.0838e-07
2.43966e-07
2.7346e-07
2.73471e-07
3.08377e-07
2.43966e-07
2.7346e-07
2.73471e-07
3.08375e-07
3.08183e-07
2.73583e-07
2.73589e-07
3.08171e-07
2.73566e-07
2.73595e-07
2.73559e-07
2.73586e-07
3.0819e-07
2.73571e-07
2.73569e-07
3.08189e-07
3.08463e-07
3.08192e-07
2.73585e-07
2.73592e-07
2.73586e-07
2.73592e-07
3.08453e-07
3.08182e-07
2.73569e-07
2.73598e-07
2.73569e-07
2.73599e-07
2.73589e-07
2.73562e-07
2.73589e-07
3.08471e-07
3.08198e-07
2.73572e-07
2.73574e-07
2.73572e-07
3.08198e-07
3.08472e-07
3.082e-07
2.73589e-07
2.73595e-07
2.7359e-07
2.73596e-07
3.08462e-07
3.08189e-07
2.73572e-07
2.73602e-07
2.73573e-07
2.73602e-07
2.73592e-07
2.73566e-07
2.73593e-07
3.08478e-07
3.08206e-07
2.73575e-07
2.73578e-07
2.73575e-07
3.08207e-07
3.0848e-07
3.08208e-07
2.73593e-07
2.73599e-07
2.73594e-07
2.736e-07
3.08469e-07
3.08197e-07
2.73576e-07
2.73605e-07
2.73577e-07
2.73606e-07
2.73596e-07
2.7357e-07
2.73597e-07
3.08485e-07
3.08214e-07
2.73578e-07
2.73582e-07
2.7358e-07
3.08215e-07
3.08488e-07
3.08216e-07
2.73597e-07
2.73603e-07
2.73598e-07
2.73604e-07
3.08478e-07
3.08205e-07
2.7358e-07
2.73609e-07
2.73581e-07
2.73611e-07
2.736e-07
2.73574e-07
2.73601e-07
3.08494e-07
3.08222e-07
2.73583e-07
2.73585e-07
2.73583e-07
3.08223e-07
3.08496e-07
3.08223e-07
2.73601e-07
2.73607e-07
2.73601e-07
2.73607e-07
3.08486e-07
3.08213e-07
2.73584e-07
2.73613e-07
2.73584e-07
2.73613e-07
2.73604e-07
2.73576e-07
2.73603e-07
3.08501e-07
3.08229e-07
2.73586e-07
2.73587e-07
2.73586e-07
3.0823e-07
3.08503e-07
3.08229e-07
2.73603e-07
2.73609e-07
2.73601e-07
2.73608e-07
3.08493e-07
3.08218e-07
2.73586e-07
2.73615e-07
2.73585e-07
2.73614e-07
2.73605e-07
2.73578e-07
2.73604e-07
3.08509e-07
3.08235e-07
2.73587e-07
2.73589e-07
2.73586e-07
3.08235e-07
3.08508e-07
3.08229e-07
2.73603e-07
2.7361e-07
2.73602e-07
2.73608e-07
3.08498e-07
3.08219e-07
2.73587e-07
2.73616e-07
2.73585e-07
2.73614e-07
2.73606e-07
2.73578e-07
2.73605e-07
3.08514e-07
3.08236e-07
2.73589e-07
2.73589e-07
2.73587e-07
3.08236e-07
3.08505e-07
3.08161e-07
2.73597e-07
2.73604e-07
2.73538e-07
2.73544e-07
3.08496e-07
3.08151e-07
2.73581e-07
2.7361e-07
2.73522e-07
2.73551e-07
2.73601e-07
2.73514e-07
2.73542e-07
3.08512e-07
3.08167e-07
2.73583e-07
2.73526e-07
2.73524e-07
3.08169e-07
3.08425e-07
3.08083e-07
2.73517e-07
2.73523e-07
2.73486e-07
2.73492e-07
3.08415e-07
3.08072e-07
2.735e-07
2.73529e-07
2.7347e-07
2.73498e-07
2.7352e-07
2.73461e-07
2.7349e-07
3.08431e-07
3.08089e-07
2.73502e-07
2.73473e-07
2.73471e-07
3.0809e-07
3.08361e-07
3.08098e-07
2.73486e-07
2.73493e-07
2.73485e-07
2.73492e-07
3.08351e-07
3.08087e-07
2.7347e-07
2.73499e-07
2.73469e-07
2.73498e-07
2.7349e-07
2.73461e-07
2.73489e-07
3.08367e-07
3.08104e-07
2.73472e-07
2.73473e-07
2.73471e-07
3.08106e-07
3.08377e-07
3.08091e-07
2.73486e-07
2.73493e-07
2.73484e-07
2.7349e-07
3.08367e-07
3.08081e-07
2.7347e-07
2.73499e-07
2.73468e-07
2.73497e-07
2.7349e-07
2.7346e-07
2.73488e-07
3.08383e-07
3.08097e-07
2.73472e-07
2.73471e-07
2.7347e-07
3.081e-07
3.0837e-07
3.08093e-07
2.73485e-07
2.73492e-07
2.73484e-07
2.7349e-07
3.0836e-07
3.08082e-07
2.73469e-07
2.73498e-07
2.73468e-07
2.73497e-07
2.73489e-07
2.7346e-07
2.73488e-07
3.08376e-07
3.08099e-07
2.73471e-07
2.73471e-07
2.7347e-07
3.08101e-07
3.08372e-07
3.08095e-07
2.73486e-07
2.73492e-07
2.73484e-07
2.7349e-07
3.08361e-07
3.08084e-07
2.73469e-07
2.73498e-07
2.73468e-07
2.73497e-07
2.73489e-07
2.7346e-07
2.73488e-07
3.08378e-07
3.081e-07
2.73471e-07
2.73471e-07
2.7347e-07
3.08103e-07
3.08373e-07
3.08094e-07
2.73486e-07
2.73492e-07
2.73484e-07
2.7349e-07
3.08363e-07
3.08083e-07
2.7347e-07
2.73499e-07
2.73468e-07
2.73497e-07
2.7349e-07
2.7346e-07
2.73488e-07
3.08379e-07
3.081e-07
2.73472e-07
2.73471e-07
2.7347e-07
3.08102e-07
3.08374e-07
3.08092e-07
2.73485e-07
2.73492e-07
2.73484e-07
2.7349e-07
3.08363e-07
3.08081e-07
2.73469e-07
2.73498e-07
2.73468e-07
2.73497e-07
2.73489e-07
2.7346e-07
2.73488e-07
3.08379e-07
3.08098e-07
2.73471e-07
2.73471e-07
2.7347e-07
3.08099e-07
3.08371e-07
3.08092e-07
2.73486e-07
2.73492e-07
2.73484e-07
2.7349e-07
3.08361e-07
3.08081e-07
2.7347e-07
2.73498e-07
2.73468e-07
2.73496e-07
2.7349e-07
2.7346e-07
2.73488e-07
3.08377e-07
3.08098e-07
2.73471e-07
2.73471e-07
2.73469e-07
3.08099e-07
3.08371e-07
2.73485e-07
2.73492e-07
3.08361e-07
2.73469e-07
2.73498e-07
2.73489e-07
3.08377e-07
2.73471e-07
1.82832e-06
8.85047e-06
2.09564e-05
1.82825e-06
8.85204e-06
2.4407e-07
2.44072e-07
2.44075e-07
2.44073e-07
5.35282e-07
2.73558e-07
1.46706e-06
2.54341e-07
2.09559e-05
5.3531e-07
2.7357e-07
2.54344e-07
1.46706e-06
3.08182e-07
3.30085e-06
3.30189e-06
1.82855e-06
8.85058e-06
1.82909e-06
8.85015e-06
2.09548e-05
2.09546e-05
1.82848e-06
8.85216e-06
1.82897e-06
8.8517e-06
2.44073e-07
2.44077e-07
2.44075e-07
2.44072e-07
2.44072e-07
2.44076e-07
2.44074e-07
5.35319e-07
1.46809e-06
2.54341e-07
2.73562e-07
5.35485e-07
1.46725e-06
2.54343e-07
2.09547e-05
2.09545e-05
5.35346e-07
2.54343e-07
1.46805e-06
2.73574e-07
5.35517e-07
2.54346e-07
1.46724e-06
3.30162e-06
3.30263e-06
3.0819e-07
3.30114e-06
3.30214e-06
1.82867e-06
8.85038e-06
1.82924e-06
8.85004e-06
2.09539e-05
2.09539e-05
1.8286e-06
8.85192e-06
1.82912e-06
8.85155e-06
2.44072e-07
2.44076e-07
2.44074e-07
2.44073e-07
2.44071e-07
2.44075e-07
2.44073e-07
5.35352e-07
1.46822e-06
2.54342e-07
2.73565e-07
5.3552e-07
1.46735e-06
2.54345e-07
2.09538e-05
2.09538e-05
5.3538e-07
2.54345e-07
1.46818e-06
2.73577e-07
5.35553e-07
2.54347e-07
1.46735e-06
3.30188e-06
3.30287e-06
3.08205e-07
3.30136e-06
3.30236e-06
1.82873e-06
8.85039e-06
1.82932e-06
8.85007e-06
2.09535e-05
2.09537e-05
1.82866e-06
8.85189e-06
1.8292e-06
8.85154e-06
2.44073e-07
2.44077e-07
2.44075e-07
2.44075e-07
2.44073e-07
2.44077e-07
2.44075e-07
5.35379e-07
1.46829e-06
2.54344e-07
2.73569e-07
5.3555e-07
1.46741e-06
2.54347e-07
2.09533e-05
2.09535e-05
5.35407e-07
2.54347e-07
1.46826e-06
2.73581e-07
5.35582e-07
2.54349e-07
1.46741e-06
3.30202e-06
3.30301e-06
3.08212e-07
3.30144e-06
3.30245e-06
1.82876e-06
8.8504e-06
1.82936e-06
8.85008e-06
2.09535e-05
2.09539e-05
1.82868e-06
8.85191e-06
1.82923e-06
8.85158e-06
2.44076e-07
2.4408e-07
2.44078e-07
2.44074e-07
2.44075e-07
2.44079e-07
2.44077e-07
5.35399e-07
1.46833e-06
2.54346e-07
2.73573e-07
5.35572e-07
1.46744e-06
2.54348e-07
2.09533e-05
2.09536e-05
5.35425e-07
2.54349e-07
1.46829e-06
2.73585e-07
5.35604e-07
2.54351e-07
1.46743e-06
3.30204e-06
3.30304e-06
3.08219e-07
3.30145e-06
3.30247e-06
1.82874e-06
8.85045e-06
1.82936e-06
8.85014e-06
2.09538e-05
2.09543e-05
1.82865e-06
8.85198e-06
1.82922e-06
8.85167e-06
2.44074e-07
2.44079e-07
2.44076e-07
2.44072e-07
2.44071e-07
2.44075e-07
2.44073e-07
5.35407e-07
1.46835e-06
2.54347e-07
2.73576e-07
5.35585e-07
1.46745e-06
2.54348e-07
2.09536e-05
2.09541e-05
5.35432e-07
2.5435e-07
1.4683e-06
2.73588e-07
5.35614e-07
2.54351e-07
1.46744e-06
3.30207e-06
3.30308e-06
3.08227e-07
3.3015e-06
3.30251e-06
1.82872e-06
8.85053e-06
1.82933e-06
8.85023e-06
2.09543e-05
2.09548e-05
1.82864e-06
8.85196e-06
1.82919e-06
8.8516e-06
2.44071e-07
2.44075e-07
2.44073e-07
2.44069e-07
2.44068e-07
2.44071e-07
2.44069e-07
5.35414e-07
1.46836e-06
2.54346e-07
2.73578e-07
5.3559e-07
1.46745e-06
2.54346e-07
2.09541e-05
2.09547e-05
5.3544e-07
2.54348e-07
1.46831e-06
2.73589e-07
5.3562e-07
2.54349e-07
1.46744e-06
3.3021e-06
3.30311e-06
3.08234e-07
3.30149e-06
3.30251e-06
1.82875e-06
8.85075e-06
1.82932e-06
8.85056e-06
2.09547e-05
2.09548e-05
1.82868e-06
8.8521e-06
1.82919e-06
8.85186e-06
2.44068e-07
2.44073e-07
2.4407e-07
2.44067e-07
2.44066e-07
2.44071e-07
2.44069e-07
5.3542e-07
1.46837e-06
2.54345e-07
2.7358e-07
5.35596e-07
1.4675e-06
2.54346e-07
2.09548e-05
2.09549e-05
5.35444e-07
2.54347e-07
1.46832e-06
2.73591e-07
5.35626e-07
2.54348e-07
1.46749e-06
3.30209e-06
3.30309e-06
3.08238e-07
3.30156e-06
3.30257e-06
1.82884e-06
8.85099e-06
1.8295e-06
8.85062e-06
2.09539e-05
2.09539e-05
1.82876e-06
8.85228e-06
1.82937e-06
8.85187e-06
2.44064e-07
2.44069e-07
2.44066e-07
2.44017e-07
2.44017e-07
2.44021e-07
2.44019e-07
5.35378e-07
1.46846e-06
2.54341e-07
2.73561e-07
5.35594e-07
1.46752e-06
2.54333e-07
2.0954e-05
2.09539e-05
5.35405e-07
2.54343e-07
1.46841e-06
2.73572e-07
5.35624e-07
2.54335e-07
1.46751e-06
3.30224e-06
3.30324e-06
3.08217e-07
3.30162e-06
3.30262e-06
1.82859e-06
8.8508e-06
1.82929e-06
8.85039e-06
2.09533e-05
2.09535e-05
1.82852e-06
8.85206e-06
1.82916e-06
8.85162e-06
2.43997e-07
2.44e-07
2.43998e-07
2.43968e-07
2.43969e-07
2.43973e-07
2.43971e-07
5.35253e-07
1.46831e-06
2.54269e-07
2.73477e-07
5.35469e-07
1.46734e-06
2.54255e-07
2.09533e-05
2.09534e-05
5.35279e-07
2.54271e-07
1.46826e-06
2.73489e-07
5.35498e-07
2.54258e-07
1.46733e-06
3.30208e-06
3.30308e-06
3.08113e-07
3.30141e-06
3.30242e-06
1.8285e-06
8.85065e-06
1.82913e-06
8.8503e-06
2.09532e-05
2.09534e-05
1.82842e-06
8.85189e-06
1.829e-06
8.85152e-06
2.4397e-07
2.43973e-07
2.43972e-07
2.43967e-07
2.43968e-07
2.43972e-07
2.4397e-07
5.35217e-07
1.46818e-06
2.54239e-07
2.73462e-07
5.35403e-07
1.46726e-06
2.54241e-07
2.09531e-05
2.09534e-05
5.35242e-07
2.54242e-07
1.46813e-06
2.73473e-07
5.35432e-07
2.54243e-07
1.46725e-06
3.30192e-06
3.30292e-06
3.08097e-07
3.30131e-06
3.30232e-06
1.82848e-06
8.85062e-06
1.8291e-06
8.85028e-06
2.09532e-05
2.09534e-05
1.82841e-06
8.85186e-06
1.82897e-06
8.8515e-06
2.43969e-07
2.43973e-07
2.43971e-07
2.43967e-07
2.43968e-07
2.43972e-07
2.4397e-07
5.35215e-07
1.46815e-06
2.5424e-07
2.73461e-07
5.35396e-07
1.46725e-06
2.54241e-07
2.09531e-05
2.09534e-05
5.35241e-07
2.54242e-07
1.46811e-06
2.73473e-07
5.35425e-07
2.54243e-07
1.46724e-06
3.30189e-06
3.30289e-06
3.08104e-07
3.3013e-06
3.30231e-06
1.82848e-06
8.85061e-06
1.82909e-06
8.85028e-06
2.09532e-05
2.09535e-05
1.82841e-06
8.85185e-06
1.82897e-06
8.85149e-06
2.43969e-07
2.43973e-07
2.43971e-07
2.43967e-07
2.43968e-07
2.43972e-07
2.4397e-07
5.35213e-07
1.46815e-06
2.54239e-07
2.73461e-07
5.35393e-07
1.46725e-06
2.5424e-07
2.09531e-05
2.09534e-05
5.35244e-07
2.54241e-07
1.46811e-06
2.73473e-07
5.35425e-07
2.54242e-07
1.46724e-06
3.30189e-06
3.30289e-06
3.08101e-07
3.3013e-06
3.3023e-06
1.82848e-06
8.85061e-06
1.82909e-06
8.85028e-06
2.09532e-05
2.09535e-05
1.82841e-06
8.85184e-06
1.82897e-06
8.85149e-06
2.43969e-07
2.43973e-07
2.43971e-07
2.43966e-07
2.43968e-07
2.43972e-07
2.4397e-07
5.35213e-07
1.46815e-06
2.54239e-07
2.73461e-07
5.35393e-07
1.46725e-06
2.5424e-07
2.09531e-05
2.09534e-05
5.35252e-07
2.54241e-07
1.46811e-06
2.73473e-07
5.35433e-07
2.54242e-07
1.46724e-06
3.30189e-06
3.30289e-06
3.08101e-07
3.3013e-06
3.3023e-06
1.82848e-06
8.85061e-06
1.82909e-06
8.85028e-06
2.09532e-05
2.09535e-05
1.82841e-06
8.85184e-06
1.82897e-06
8.85149e-06
2.43969e-07
2.43973e-07
2.43971e-07
2.43967e-07
2.43968e-07
2.43972e-07
2.4397e-07
5.35213e-07
1.46815e-06
2.54239e-07
2.73461e-07
5.35393e-07
1.46725e-06
2.5424e-07
2.09531e-05
2.09534e-05
5.35256e-07
2.54241e-07
1.46811e-06
2.73473e-07
5.35439e-07
2.54243e-07
1.46724e-06
3.30189e-06
3.30289e-06
3.08099e-07
3.30129e-06
3.3023e-06
1.82848e-06
8.85061e-06
1.82909e-06
8.85028e-06
2.09532e-05
2.09535e-05
1.82841e-06
8.85184e-06
1.82897e-06
8.85148e-06
2.43969e-07
2.43973e-07
2.43971e-07
2.43967e-07
2.43968e-07
2.43972e-07
2.4397e-07
5.35212e-07
1.46815e-06
2.54239e-07
2.73461e-07
5.35393e-07
1.46725e-06
2.5424e-07
2.09531e-05
2.09534e-05
5.35256e-07
2.54241e-07
1.46811e-06
2.73473e-07
5.3544e-07
2.54243e-07
1.46724e-06
3.30189e-06
3.30289e-06
3.08102e-07
3.30129e-06
3.3023e-06
1.82848e-06
8.85061e-06
1.82909e-06
8.85028e-06
2.09532e-05
2.09535e-05
1.82841e-06
8.85184e-06
1.82897e-06
8.85148e-06
2.43969e-07
2.43973e-07
2.43971e-07
2.43967e-07
2.43968e-07
2.43972e-07
2.4397e-07
5.35213e-07
1.46815e-06
2.54239e-07
2.73461e-07
5.35392e-07
1.46725e-06
2.5424e-07
2.09531e-05
2.09534e-05
5.35255e-07
2.54242e-07
1.46811e-06
2.73473e-07
5.35439e-07
2.54243e-07
1.46724e-06
3.30189e-06
3.30289e-06
3.08104e-07
3.30129e-06
3.3023e-06
1.82848e-06
8.85061e-06
1.82909e-06
8.85028e-06
2.09532e-05
2.09535e-05
1.82841e-06
8.85184e-06
1.82897e-06
8.85148e-06
2.43969e-07
2.43972e-07
2.4397e-07
5.35215e-07
1.46815e-06
2.54239e-07
2.73461e-07
5.35393e-07
1.46725e-06
2.5424e-07
2.09531e-05
2.09531e-05
5.35253e-07
2.54241e-07
1.46811e-06
2.73473e-07
5.35437e-07
2.54243e-07
1.46724e-06
3.30189e-06
3.30289e-06
3.08102e-07
3.3015e-06
3.3025e-06
2.09556e-05
2.09566e-05
3.08175e-07
3.3008e-06
3.30177e-06
2.09544e-05
2.09551e-05
2.09555e-05
2.09561e-05
3.08457e-07
3.30088e-06
3.30186e-06
3.30135e-06
3.30233e-06
1.82835e-06
8.85146e-06
5.35277e-07
2.73582e-07
1.46701e-06
2.54342e-07
5.35283e-07
2.73589e-07
1.46722e-06
2.54344e-07
1.82896e-06
8.85029e-06
8.85076e-06
1.82846e-06
1.82899e-06
8.85127e-06
8.85175e-06
1.82848e-06
5.35466e-07
2.73582e-07
1.46711e-06
2.54341e-07
1.46789e-06
2.54341e-07
5.35296e-07
5.35472e-07
2.73589e-07
1.46733e-06
2.54343e-07
1.46812e-06
2.54343e-07
5.35302e-07
3.08165e-07
3.30171e-06
3.30039e-06
2.09535e-05
2.09553e-05
2.09559e-05
3.08447e-07
3.30188e-06
3.30069e-06
3.30231e-06
3.30111e-06
2.09526e-05
2.09532e-05
5.3531e-07
2.73566e-07
1.46733e-06
2.54345e-07
1.82823e-06
8.8514e-06
5.35295e-07
2.73595e-07
2.54348e-07
1.46737e-06
1.82884e-06
8.85185e-06
8.85235e-06
1.82839e-06
5.35494e-07
2.73566e-07
1.46744e-06
2.54344e-07
1.46821e-06
2.54344e-07
5.35329e-07
1.82882e-06
8.8512e-06
8.85171e-06
1.82837e-06
5.35481e-07
2.73595e-07
2.54347e-07
1.46749e-06
2.54347e-07
1.4683e-06
5.35314e-07
1.82836e-06
8.85093e-06
5.35288e-07
2.73586e-07
2.54344e-07
1.46707e-06
1.82836e-06
8.85149e-06
5.35469e-07
2.73558e-07
1.46717e-06
2.54341e-07
1.46798e-06
2.54341e-07
5.35301e-07
1.829e-06
8.85075e-06
8.85125e-06
1.8285e-06
5.35474e-07
2.73586e-07
2.54343e-07
1.46718e-06
2.54343e-07
1.46796e-06
5.35307e-07
1.829e-06
8.85131e-06
8.85178e-06
1.82849e-06
3.08182e-07
3.30142e-06
3.30086e-06
2.09563e-05
2.09551e-05
2.09557e-05
3.08463e-07
3.30197e-06
3.30095e-06
3.30219e-06
3.30142e-06
2.09552e-05
2.09559e-05
5.35313e-07
2.73569e-07
2.54344e-07
1.46726e-06
1.82823e-06
8.85163e-06
1.82824e-06
8.85234e-06
5.35501e-07
2.7357e-07
2.54343e-07
1.46716e-06
2.54343e-07
1.46794e-06
5.35329e-07
5.35505e-07
2.73569e-07
2.54343e-07
1.46737e-06
2.54343e-07
1.46816e-06
5.35333e-07
1.82882e-06
8.85144e-06
8.85192e-06
1.82836e-06
1.82884e-06
8.85214e-06
8.85262e-06
1.82838e-06
2.09565e-05
2.0957e-05
3.08465e-07
3.301e-06
3.30201e-06
3.30144e-06
3.30246e-06
2.09554e-05
2.0956e-05
2.09559e-05
2.09566e-05
2.09541e-05
2.09537e-05
2.09551e-05
2.09547e-05
3.30145e-06
3.30243e-06
3.08191e-07
3.301e-06
3.30198e-06
2.09532e-05
2.09534e-05
2.09542e-05
2.09544e-05
3.08471e-07
3.30111e-06
3.3021e-06
3.30157e-06
3.30256e-06
1.82858e-06
8.85157e-06
1.82911e-06
8.85111e-06
5.35315e-07
1.46799e-06
2.54343e-07
2.73585e-07
5.35485e-07
1.46719e-06
2.54343e-07
5.35321e-07
1.46821e-06
2.54345e-07
2.73592e-07
5.35491e-07
1.46741e-06
2.54345e-07
1.82917e-06
8.85006e-06
8.85046e-06
1.82862e-06
1.8292e-06
8.85101e-06
8.85142e-06
1.82865e-06
5.35503e-07
2.73585e-07
1.46725e-06
2.54342e-07
1.46806e-06
2.54342e-07
5.35333e-07
5.35509e-07
2.73592e-07
1.46748e-06
2.54344e-07
1.46829e-06
2.54344e-07
5.35339e-07
3.30248e-06
3.30137e-06
3.08181e-07
3.30213e-06
3.30088e-06
2.09522e-05
2.09519e-05
2.09542e-05
2.09544e-05
3.08461e-07
3.30239e-06
3.30102e-06
3.30276e-06
3.30154e-06
2.09514e-05
2.09516e-05
5.35347e-07
1.4683e-06
2.54346e-07
2.73569e-07
5.35513e-07
1.46751e-06
2.54346e-07
1.82846e-06
8.85152e-06
1.82894e-06
8.85106e-06
5.35333e-07
2.54349e-07
1.46841e-06
2.73598e-07
5.35501e-07
2.54349e-07
1.46757e-06
1.82905e-06
8.85159e-06
8.85202e-06
1.82855e-06
5.35531e-07
2.73569e-07
1.46757e-06
2.54345e-07
1.46837e-06
2.54345e-07
5.35365e-07
1.82903e-06
8.85098e-06
8.8514e-06
1.82853e-06
5.35519e-07
2.73598e-07
2.54348e-07
1.46764e-06
2.54348e-07
1.46849e-06
5.35351e-07
1.82859e-06
8.85107e-06
1.82913e-06
8.85059e-06
5.35325e-07
2.54345e-07
1.46806e-06
2.73589e-07
5.35494e-07
2.54345e-07
1.46726e-06
1.82859e-06
8.8516e-06
1.82912e-06
8.85115e-06
5.35506e-07
2.73562e-07
1.46731e-06
2.54342e-07
1.46815e-06
2.54343e-07
5.35336e-07
1.82921e-06
8.85049e-06
8.85093e-06
1.82866e-06
5.35511e-07
2.73589e-07
2.54344e-07
1.46732e-06
2.54344e-07
1.46813e-06
5.35343e-07
1.82921e-06
8.85105e-06
8.85146e-06
1.82865e-06
3.30271e-06
3.30152e-06
3.08198e-07
3.30227e-06
3.30107e-06
2.09548e-05
2.09544e-05
2.09541e-05
2.09543e-05
3.08477e-07
3.30236e-06
3.30119e-06
3.30293e-06
3.30164e-06
2.0954e-05
2.09542e-05
5.35352e-07
2.54345e-07
1.46826e-06
2.73572e-07
5.35525e-07
2.54345e-07
1.46745e-06
1.82846e-06
8.85174e-06
1.82895e-06
8.85129e-06
1.82847e-06
8.85243e-06
1.82896e-06
8.85198e-06
5.35538e-07
2.73574e-07
2.54345e-07
1.4673e-06
2.54345e-07
1.46811e-06
5.35364e-07
5.35543e-07
2.73571e-07
2.54344e-07
1.46751e-06
2.54344e-07
1.46833e-06
5.3537e-07
1.82903e-06
8.85118e-06
8.8516e-06
1.82853e-06
1.82904e-06
8.85189e-06
8.85229e-06
1.82854e-06
2.0955e-05
2.09546e-05
2.09555e-05
2.09551e-05
3.0847e-07
3.30126e-06
3.30226e-06
3.30172e-06
3.30272e-06
2.09541e-05
2.09543e-05
2.09547e-05
2.09549e-05
2.0953e-05
2.0953e-05
2.0954e-05
2.0954e-05
3.30168e-06
3.30267e-06
3.08197e-07
3.30123e-06
3.3022e-06
2.09529e-05
2.09528e-05
2.09539e-05
2.09538e-05
3.08477e-07
3.30131e-06
3.30228e-06
3.30179e-06
3.30277e-06
1.8287e-06
8.85134e-06
1.82926e-06
8.85097e-06
5.3535e-07
1.46812e-06
2.54345e-07
2.73589e-07
5.35521e-07
1.46731e-06
2.54345e-07
5.35355e-07
1.46836e-06
2.54346e-07
2.73595e-07
5.35527e-07
1.46753e-06
2.54346e-07
1.82928e-06
8.85006e-06
8.85038e-06
1.82871e-06
1.82931e-06
8.85096e-06
8.85131e-06
1.82873e-06
5.35538e-07
2.73589e-07
1.46735e-06
2.54344e-07
1.46817e-06
2.54344e-07
5.35365e-07
5.35543e-07
2.73595e-07
1.46756e-06
2.54346e-07
1.46841e-06
2.54345e-07
5.3537e-07
3.30298e-06
3.30167e-06
3.08187e-07
3.30247e-06
3.30111e-06
2.09513e-05
2.09512e-05
2.09538e-05
2.09537e-05
3.08467e-07
3.30246e-06
3.30118e-06
3.30303e-06
3.30176e-06
2.0951e-05
2.0951e-05
5.35382e-07
1.46843e-06
2.54347e-07
2.73572e-07
5.35549e-07
1.46762e-06
2.54348e-07
1.82858e-06
8.85133e-06
1.82909e-06
8.85096e-06
5.35367e-07
2.5435e-07
1.46855e-06
2.73602e-07
5.35537e-07
2.5435e-07
1.46768e-06
1.82916e-06
8.85154e-06
8.8519e-06
1.82864e-06
5.35565e-07
2.73573e-07
1.46766e-06
2.54346e-07
1.46848e-06
2.54346e-07
5.35397e-07
1.82914e-06
8.85096e-06
8.85132e-06
1.82862e-06
5.35553e-07
2.73602e-07
2.54349e-07
1.46771e-06
2.54349e-07
1.46859e-06
5.35383e-07
1.82871e-06
8.85084e-06
1.82927e-06
8.85044e-06
5.3536e-07
2.54346e-07
1.46819e-06
2.73592e-07
5.35529e-07
2.54346e-07
1.46737e-06
1.8287e-06
8.85137e-06
1.82927e-06
8.851e-06
5.35538e-07
2.73565e-07
1.46739e-06
2.54344e-07
1.46825e-06
2.54344e-07
5.35367e-07
1.82932e-06
8.85043e-06
8.8508e-06
1.82874e-06
5.35545e-07
2.73592e-07
2.54346e-07
1.4674e-06
2.54345e-07
1.46824e-06
5.35374e-07
1.82932e-06
8.851e-06
8.85134e-06
1.82874e-06
3.303e-06
3.30176e-06
3.08204e-07
3.30237e-06
3.30129e-06
2.09537e-05
2.09537e-05
2.09536e-05
2.09537e-05
3.08483e-07
3.30234e-06
3.30136e-06
3.30299e-06
3.30185e-06
2.09536e-05
2.09535e-05
5.35387e-07
2.54347e-07
1.46839e-06
2.73575e-07
5.35562e-07
2.54347e-07
1.46756e-06
1.82858e-06
8.85151e-06
1.8291e-06
8.85114e-06
1.82859e-06
8.85221e-06
1.82911e-06
8.85185e-06
5.35571e-07
2.73577e-07
2.54347e-07
1.46739e-06
2.54347e-07
1.46821e-06
5.35395e-07
5.35578e-07
2.73575e-07
2.54346e-07
1.4676e-06
2.54346e-07
1.46843e-06
5.35402e-07
1.82914e-06
8.85113e-06
8.85148e-06
1.82861e-06
1.82915e-06
8.85185e-06
8.85219e-06
1.82862e-06
2.09539e-05
2.09539e-05
2.09544e-05
2.09544e-05
3.08484e-07
3.30142e-06
3.30242e-06
3.30193e-06
3.30292e-06
2.09538e-05
2.09537e-05
2.09543e-05
2.09542e-05
2.09527e-05
2.09528e-05
2.09537e-05
2.09538e-05
3.30186e-06
3.30283e-06
3.08205e-07
3.30135e-06
3.30232e-06
2.09529e-05
2.09527e-05
2.09539e-05
2.09537e-05
3.08485e-07
3.30135e-06
3.30233e-06
3.30189e-06
3.30286e-06
1.82876e-06
8.8513e-06
1.82934e-06
8.85096e-06
5.35378e-07
1.46821e-06
2.54347e-07
2.73593e-07
5.35552e-07
1.46737e-06
2.54347e-07
5.35383e-07
1.46843e-06
2.54348e-07
2.73599e-07
5.35558e-07
1.46758e-06
2.54348e-07
1.82934e-06
8.85007e-06
8.85041e-06
1.82875e-06
1.82936e-06
8.85097e-06
8.8513e-06
1.82877e-06
5.35565e-07
2.73594e-07
1.46739e-06
2.54346e-07
1.46823e-06
2.54346e-07
5.3539e-07
5.3557e-07
2.73599e-07
1.46759e-06
2.54348e-07
1.46845e-06
2.54347e-07
5.35394e-07
3.30301e-06
3.30181e-06
3.08194e-07
3.30243e-06
3.30122e-06
2.09509e-05
2.0951e-05
2.09537e-05
2.09535e-05
3.08475e-07
3.30243e-06
3.30126e-06
3.30298e-06
3.30185e-06
2.0951e-05
2.09508e-05
5.3541e-07
1.46851e-06
2.54349e-07
2.73576e-07
5.3558e-07
1.46768e-06
2.54349e-07
1.82865e-06
8.85133e-06
1.82917e-06
8.85096e-06
5.35396e-07
2.54352e-07
1.46862e-06
2.73605e-07
5.35568e-07
2.54352e-07
1.46773e-06
1.82921e-06
8.85155e-06
8.8519e-06
1.82868e-06
5.35593e-07
2.73577e-07
1.4677e-06
2.54348e-07
1.46853e-06
2.54348e-07
5.35422e-07
1.8292e-06
8.85096e-06
8.85132e-06
1.82866e-06
5.3558e-07
2.73606e-07
2.54351e-07
1.46774e-06
2.54351e-07
1.46863e-06
5.35407e-07
1.82877e-06
8.85079e-06
1.82935e-06
8.85043e-06
5.35387e-07
2.54348e-07
1.46827e-06
2.73596e-07
5.35559e-07
2.54348e-07
1.46743e-06
1.82876e-06
8.85134e-06
1.82935e-06
8.851e-06
5.35565e-07
2.73569e-07
1.46743e-06
2.54346e-07
1.46831e-06
2.54346e-07
5.3539e-07
1.82937e-06
8.85044e-06
8.8508e-06
1.82878e-06
5.35571e-07
2.73596e-07
2.54348e-07
1.46744e-06
2.54347e-07
1.46829e-06
5.35399e-07
1.82937e-06
8.85101e-06
8.85134e-06
1.82878e-06
3.30295e-06
3.30192e-06
3.08211e-07
3.30231e-06
3.3014e-06
2.09534e-05
2.09535e-05
2.09535e-05
2.09534e-05
3.08491e-07
3.30231e-06
3.30141e-06
3.30294e-06
3.30194e-06
2.09536e-05
2.09534e-05
5.35416e-07
2.54348e-07
1.46847e-06
2.73578e-07
5.35592e-07
2.54348e-07
1.46762e-06
1.82864e-06
8.85147e-06
1.82917e-06
8.85113e-06
1.82864e-06
8.85219e-06
1.82918e-06
8.85185e-06
5.35597e-07
2.73581e-07
2.54349e-07
1.46742e-06
2.54349e-07
1.46827e-06
5.35418e-07
5.35605e-07
2.73579e-07
2.54348e-07
1.46763e-06
2.54348e-07
1.46849e-06
5.35428e-07
1.82919e-06
8.85113e-06
8.85147e-06
1.82865e-06
1.8292e-06
8.85186e-06
8.85219e-06
1.82866e-06
2.09536e-05
2.09537e-05
2.09541e-05
2.09542e-05
3.08492e-07
3.30145e-06
3.30246e-06
3.30199e-06
3.30299e-06
2.09537e-05
2.09536e-05
2.09543e-05
2.09541e-05
2.09527e-05
2.0953e-05
2.09538e-05
2.0954e-05
3.30189e-06
3.30287e-06
3.08213e-07
3.30137e-06
3.30235e-06
2.09531e-05
2.09529e-05
2.09542e-05
2.09539e-05
3.08493e-07
3.30139e-06
3.30237e-06
3.30191e-06
3.30289e-06
1.82878e-06
8.85132e-06
1.82938e-06
8.85099e-06
5.354e-07
1.46824e-06
2.54349e-07
2.73597e-07
5.35576e-07
1.46739e-06
2.54349e-07
5.35403e-07
1.46846e-06
2.5435e-07
2.73603e-07
5.35581e-07
1.4676e-06
2.5435e-07
1.82936e-06
8.85011e-06
8.85043e-06
1.82876e-06
1.82938e-06
8.85104e-06
8.85134e-06
1.82878e-06
5.35585e-07
2.73598e-07
1.4674e-06
2.54349e-07
1.46825e-06
2.54348e-07
5.35406e-07
5.35589e-07
2.73604e-07
1.46761e-06
2.5435e-07
1.46846e-06
2.5435e-07
5.3541e-07
3.30298e-06
3.30189e-06
3.08203e-07
3.30244e-06
3.30129e-06
2.09509e-05
2.09511e-05
2.0954e-05
2.09538e-05
3.08483e-07
3.30246e-06
3.30132e-06
3.303e-06
3.30192e-06
2.09513e-05
2.0951e-05
5.3543e-07
1.46854e-06
2.54351e-07
2.7358e-07
5.35604e-07
1.46771e-06
2.54351e-07
1.82866e-06
8.85133e-06
1.82921e-06
8.85097e-06
5.35415e-07
2.54354e-07
1.46865e-06
2.7361e-07
5.35592e-07
2.54354e-07
1.46775e-06
1.82922e-06
8.85162e-06
8.85194e-06
1.82867e-06
5.35611e-07
2.73581e-07
1.46771e-06
2.5435e-07
1.46855e-06
2.5435e-07
5.35435e-07
1.82921e-06
8.85099e-06
8.85134e-06
1.82866e-06
5.35599e-07
2.7361e-07
2.54354e-07
1.46776e-06
2.54353e-07
1.46865e-06
5.35421e-07
1.82879e-06
8.85081e-06
1.82939e-06
8.85046e-06
5.35408e-07
2.5435e-07
1.4683e-06
2.736e-07
5.35583e-07
2.5435e-07
1.46745e-06
1.82879e-06
8.85135e-06
1.82938e-06
8.85103e-06
5.35583e-07
2.73573e-07
1.46745e-06
2.54347e-07
1.46833e-06
2.54348e-07
5.35405e-07
1.82939e-06
8.85051e-06
8.85084e-06
1.82879e-06
5.35591e-07
2.73601e-07
2.5435e-07
1.46745e-06
2.5435e-07
1.46831e-06
5.35414e-07
1.82939e-06
8.85107e-06
8.85138e-06
1.82879e-06
3.30295e-06
3.30195e-06
3.08219e-07
3.30233e-06
3.30142e-06
2.09535e-05
2.09537e-05
2.09538e-05
2.09535e-05
3.08499e-07
3.30236e-06
3.30145e-06
3.30297e-06
3.30197e-06
2.09539e-05
2.09536e-05
5.35435e-07
2.54351e-07
1.4685e-06
2.73583e-07
5.35616e-07
2.54351e-07
1.46764e-06
1.82865e-06
8.85148e-06
1.8292e-06
8.85116e-06
1.82866e-06
8.8522e-06
1.82921e-06
8.85187e-06
5.35613e-07
2.73585e-07
2.5435e-07
1.46744e-06
2.54351e-07
1.46828e-06
5.3543e-07
5.35623e-07
2.73583e-07
2.5435e-07
1.46765e-06
2.5435e-07
1.46851e-06
5.3544e-07
1.8292e-06
8.8512e-06
8.85151e-06
1.82864e-06
1.82922e-06
8.85189e-06
8.85222e-06
1.82865e-06
2.09536e-05
2.09538e-05
2.09542e-05
2.09544e-05
3.08499e-07
3.30148e-06
3.30249e-06
3.30201e-06
3.30301e-06
2.0954e-05
2.09537e-05
2.09546e-05
2.09543e-05
2.09531e-05
2.09534e-05
2.09541e-05
2.09544e-05
3.30194e-06
3.30292e-06
3.08221e-07
3.30142e-06
3.3024e-06
2.09536e-05
2.09533e-05
2.09547e-05
2.09543e-05
3.08501e-07
3.30144e-06
3.30242e-06
3.30196e-06
3.30295e-06
1.82876e-06
8.85139e-06
1.82937e-06
8.85108e-06
5.3541e-07
1.46825e-06
2.54351e-07
2.73601e-07
5.35591e-07
1.46741e-06
2.54351e-07
5.35414e-07
1.46847e-06
2.54352e-07
2.73607e-07
5.35595e-07
1.46761e-06
2.54352e-07
1.82934e-06
8.85019e-06
8.85049e-06
1.82873e-06
1.82936e-06
8.85114e-06
8.85144e-06
1.82875e-06
5.35595e-07
2.736e-07
1.46741e-06
2.54349e-07
1.46826e-06
2.5435e-07
5.35414e-07
5.35599e-07
2.73607e-07
1.46762e-06
2.5435e-07
1.46848e-06
2.54351e-07
5.35418e-07
3.30302e-06
3.30195e-06
3.08211e-07
3.30248e-06
3.30135e-06
2.09512e-05
2.09516e-05
2.09545e-05
2.09542e-05
3.08491e-07
3.3025e-06
3.30137e-06
3.30304e-06
3.30198e-06
2.09518e-05
2.09515e-05
5.35438e-07
1.46856e-06
2.54352e-07
2.73584e-07
5.35615e-07
1.46772e-06
2.54353e-07
1.82864e-06
8.85137e-06
1.8292e-06
8.85103e-06
5.35424e-07
2.54356e-07
1.46866e-06
2.73614e-07
5.35603e-07
2.54356e-07
1.46777e-06
1.8292e-06
8.85161e-06
8.85204e-06
1.82864e-06
5.35618e-07
2.73584e-07
1.46771e-06
2.54351e-07
1.46857e-06
2.54351e-07
5.35442e-07
1.82919e-06
8.8511e-06
8.85141e-06
1.82863e-06
5.35607e-07
2.73613e-07
2.54354e-07
1.46777e-06
2.54355e-07
1.46867e-06
5.35429e-07
1.82877e-06
8.85089e-06
1.82938e-06
8.85055e-06
5.35417e-07
2.54352e-07
1.46831e-06
2.73604e-07
5.35596e-07
2.54352e-07
1.46746e-06
1.82877e-06
8.85142e-06
1.82938e-06
8.85111e-06
5.35591e-07
2.73576e-07
1.46746e-06
2.54347e-07
1.46835e-06
2.54348e-07
5.3541e-07
1.82937e-06
8.85062e-06
8.85094e-06
1.82876e-06
5.35599e-07
2.73603e-07
2.5435e-07
1.46746e-06
2.54351e-07
1.46832e-06
5.35421e-07
1.82937e-06
8.85117e-06
8.85147e-06
1.82876e-06
3.30299e-06
3.302e-06
3.08228e-07
3.30238e-06
3.30147e-06
2.09538e-05
2.09541e-05
2.09543e-05
2.0954e-05
3.08507e-07
3.3024e-06
3.30149e-06
3.30302e-06
3.30202e-06
2.09544e-05
2.09541e-05
5.35442e-07
2.54353e-07
1.46851e-06
2.73586e-07
5.35626e-07
2.54353e-07
1.46765e-06
1.82863e-06
8.85155e-06
1.82919e-06
8.85124e-06
1.82864e-06
8.85223e-06
1.8292e-06
8.8519e-06
5.3562e-07
2.73587e-07
2.54349e-07
1.46744e-06
2.54351e-07
1.4683e-06
5.35436e-07
5.35629e-07
2.73586e-07
2.5435e-07
1.46765e-06
2.54351e-07
1.46851e-06
5.35446e-07
1.82918e-06
8.85131e-06
8.8516e-06
1.82862e-06
1.82919e-06
8.85194e-06
8.85225e-06
1.82862e-06
2.09539e-05
2.09543e-05
2.09545e-05
2.09548e-05
3.08507e-07
3.30152e-06
3.30253e-06
3.30206e-06
3.30306e-06
2.09545e-05
2.09542e-05
2.0955e-05
2.09547e-05
2.09536e-05
2.0954e-05
2.09546e-05
2.0955e-05
3.30197e-06
3.30296e-06
3.08228e-07
3.30141e-06
3.3024e-06
2.09543e-05
2.09539e-05
2.09553e-05
2.09549e-05
3.08507e-07
3.3014e-06
3.30238e-06
3.30194e-06
3.30293e-06
1.82875e-06
8.85149e-06
1.82934e-06
8.85119e-06
5.35416e-07
1.46826e-06
2.5435e-07
2.73603e-07
5.35598e-07
1.4674e-06
2.5435e-07
5.35422e-07
1.46848e-06
2.54351e-07
2.73609e-07
5.35603e-07
1.46761e-06
2.54351e-07
1.82933e-06
8.85037e-06
8.8506e-06
1.82871e-06
1.82935e-06
8.85132e-06
8.85156e-06
1.82874e-06
5.356e-07
2.73601e-07
1.46741e-06
2.54346e-07
1.46825e-06
2.54347e-07
5.35414e-07
5.35606e-07
2.73608e-07
1.46761e-06
2.54348e-07
1.46847e-06
2.54349e-07
5.3542e-07
3.30305e-06
3.30199e-06
3.08217e-07
3.30247e-06
3.30134e-06
2.09518e-05
2.09522e-05
2.09549e-05
2.09548e-05
3.08497e-07
3.30251e-06
3.30133e-06
3.30301e-06
3.30195e-06
2.09525e-05
2.09522e-05
5.35446e-07
1.46861e-06
2.54351e-07
2.73586e-07
5.35623e-07
1.46774e-06
2.5435e-07
1.82863e-06
8.85147e-06
1.82917e-06
8.85115e-06
5.35433e-07
2.54354e-07
1.46867e-06
2.73615e-07
5.35612e-07
2.54354e-07
1.46777e-06
1.8292e-06
8.8517e-06
8.85198e-06
1.82864e-06
5.35626e-07
2.73585e-07
1.46777e-06