/*--------------------------------*- C++ -*----------------------------------*\
| =========                 |                                                 |
| \\      /  F ield         | OpenFOAM: The Open Source CFD Toolbox           |
|  \\    /   O peration     | Version:  2206                                  |
|   \\  /    A nd           | Website:  www.openfoam.com                      |
|    \\/     M anipulation  |                                                 |
\*---------------------------------------------------------------------------*/
FoamFile
{
    version     2.0;
    format      ascii;
    arch        "LSB;label=32;scalar=64";
    class       volScalarField;
    location    "37";
    object      k;
}
// * * * * * * * * * * * * * * * * * * * * * * * * * * * * * * * * * * * * * //

dimensions      [0 2 -2 0 0 0 0];

internalField   nonuniform List<scalar> 
28335
(
2.38862e-05
2.31328e-05
2.31326e-05
2.24335e-05
2.38862e-05
2.31329e-05
2.31327e-05
2.2437e-05
2.38863e-05
2.31329e-05
2.31328e-05
2.24376e-05
2.38864e-05
2.3133e-05
2.31328e-05
2.2438e-05
2.38863e-05
2.31332e-05
2.3133e-05
2.24382e-05
2.38862e-05
2.31333e-05
2.3133e-05
2.24385e-05
2.3886e-05
2.31331e-05
2.31329e-05
2.24386e-05
2.38854e-05
2.31322e-05
2.3132e-05
2.24369e-05
2.38807e-05
2.31268e-05
2.31267e-05
2.24318e-05
2.38796e-05
2.31257e-05
2.31255e-05
2.24301e-05
2.38796e-05
2.31258e-05
2.31256e-05
2.24302e-05
2.38796e-05
2.31258e-05
2.31256e-05
2.24302e-05
2.38796e-05
2.31258e-05
2.31256e-05
2.24302e-05
2.38796e-05
2.31258e-05
2.31256e-05
2.24302e-05
2.38796e-05
2.31258e-05
2.31256e-05
2.24302e-05
2.38796e-05
2.31258e-05
2.31256e-05
2.24302e-05
2.38796e-05
2.31258e-05
2.31256e-05
2.24302e-05
2.24392e-05
2.31322e-05
2.31321e-05
2.24388e-05
2.31327e-05
2.31318e-05
2.31327e-05
2.31321e-05
2.24398e-05
2.31326e-05
2.31327e-05
2.24373e-05
2.24359e-05
2.24417e-05
2.31324e-05
2.31322e-05
2.31324e-05
2.31322e-05
2.24355e-05
2.24418e-05
2.31329e-05
2.31319e-05
2.31329e-05
2.31319e-05
2.31322e-05
2.31329e-05
2.31323e-05
2.24364e-05
2.24412e-05
2.31328e-05
2.31327e-05
2.31328e-05
2.24409e-05
2.24377e-05
2.2442e-05
2.31325e-05
2.31323e-05
2.31325e-05
2.31323e-05
2.24377e-05
2.2442e-05
2.3133e-05
2.3132e-05
2.3133e-05
2.3132e-05
2.31324e-05
2.31329e-05
2.31324e-05
2.24373e-05
2.24416e-05
2.31329e-05
2.31328e-05
2.31329e-05
2.24418e-05
2.2438e-05
2.24422e-05
2.31327e-05
2.31325e-05
2.31327e-05
2.31325e-05
2.2438e-05
2.24422e-05
2.31331e-05
2.31321e-05
2.31331e-05
2.31321e-05
2.31325e-05
2.3133e-05
2.31326e-05
2.24376e-05
2.24418e-05
2.3133e-05
2.31328e-05
2.31331e-05
2.24421e-05
2.24383e-05
2.24425e-05
2.31328e-05
2.31326e-05
2.31328e-05
2.31326e-05
2.24382e-05
2.24424e-05
2.31332e-05
2.31323e-05
2.31332e-05
2.31323e-05
2.31327e-05
2.31332e-05
2.31327e-05
2.24378e-05
2.2442e-05
2.31332e-05
2.3133e-05
2.31332e-05
2.24423e-05
2.24385e-05
2.24427e-05
2.31329e-05
2.31328e-05
2.31329e-05
2.31328e-05
2.24384e-05
2.24426e-05
2.31334e-05
2.31324e-05
2.31334e-05
2.31324e-05
2.31329e-05
2.31333e-05
2.31329e-05
2.2438e-05
2.24422e-05
2.31333e-05
2.31331e-05
2.31333e-05
2.24426e-05
2.24387e-05
2.24429e-05
2.3133e-05
2.31328e-05
2.31329e-05
2.31328e-05
2.24387e-05
2.24428e-05
2.31335e-05
2.31325e-05
2.31335e-05
2.31324e-05
2.3133e-05
2.31331e-05
2.31328e-05
2.24383e-05
2.24424e-05
2.31334e-05
2.31329e-05
2.31334e-05
2.24427e-05
2.24389e-05
2.24418e-05
2.31328e-05
2.31327e-05
2.31322e-05
2.31321e-05
2.24388e-05
2.24418e-05
2.31334e-05
2.31323e-05
2.31328e-05
2.31316e-05
2.31327e-05
2.31326e-05
2.31322e-05
2.24384e-05
2.24414e-05
2.31333e-05
2.31324e-05
2.31326e-05
2.24417e-05
2.24374e-05
2.24369e-05
2.31317e-05
2.31315e-05
2.31274e-05
2.31272e-05
2.24374e-05
2.24369e-05
2.31322e-05
2.31312e-05
2.31279e-05
2.31269e-05
2.31316e-05
2.3128e-05
2.31274e-05
2.2437e-05
2.24364e-05
2.31321e-05
2.31278e-05
2.31278e-05
2.24367e-05
2.24322e-05
2.24344e-05
2.31263e-05
2.31262e-05
2.31252e-05
2.3125e-05
2.24322e-05
2.24343e-05
2.31268e-05
2.31258e-05
2.31257e-05
2.31247e-05
2.31263e-05
2.31257e-05
2.31252e-05
2.24318e-05
2.24339e-05
2.31268e-05
2.31256e-05
2.31256e-05
2.24343e-05
2.24303e-05
2.24345e-05
2.31253e-05
2.31251e-05
2.31252e-05
2.31251e-05
2.24303e-05
2.24345e-05
2.31258e-05
2.31248e-05
2.31257e-05
2.31247e-05
2.31253e-05
2.31258e-05
2.31252e-05
2.24299e-05
2.24341e-05
2.31257e-05
2.31256e-05
2.31257e-05
2.24343e-05
2.24305e-05
2.24344e-05
2.31253e-05
2.31252e-05
2.31253e-05
2.31251e-05
2.24305e-05
2.24344e-05
2.31258e-05
2.31248e-05
2.31257e-05
2.31248e-05
2.31253e-05
2.31258e-05
2.31253e-05
2.24301e-05
2.2434e-05
2.31258e-05
2.31256e-05
2.31257e-05
2.24343e-05
2.24305e-05
2.24344e-05
2.31253e-05
2.31252e-05
2.31253e-05
2.31251e-05
2.24304e-05
2.24344e-05
2.31258e-05
2.31248e-05
2.31257e-05
2.31247e-05
2.31254e-05
2.31258e-05
2.31253e-05
2.243e-05
2.2434e-05
2.31258e-05
2.31256e-05
2.31257e-05
2.24343e-05
2.24304e-05
2.24344e-05
2.31253e-05
2.31252e-05
2.31253e-05
2.31251e-05
2.24304e-05
2.24344e-05
2.31258e-05
2.31248e-05
2.31257e-05
2.31248e-05
2.31254e-05
2.31258e-05
2.31253e-05
2.243e-05
2.2434e-05
2.31258e-05
2.31256e-05
2.31257e-05
2.24343e-05
2.24305e-05
2.24344e-05
2.31253e-05
2.31252e-05
2.31253e-05
2.31251e-05
2.24304e-05
2.24344e-05
2.31258e-05
2.31248e-05
2.31257e-05
2.31248e-05
2.31254e-05
2.31258e-05
2.31253e-05
2.243e-05
2.2434e-05
2.31258e-05
2.31256e-05
2.31257e-05
2.24343e-05
2.24304e-05
2.24344e-05
2.31253e-05
2.31252e-05
2.31253e-05
2.31251e-05
2.24304e-05
2.24344e-05
2.31258e-05
2.31248e-05
2.31257e-05
2.31248e-05
2.31254e-05
2.31258e-05
2.31253e-05
2.243e-05
2.2434e-05
2.31258e-05
2.31256e-05
2.31257e-05
2.24343e-05
2.24304e-05
2.24344e-05
2.31253e-05
2.31252e-05
2.31253e-05
2.31251e-05
2.24304e-05
2.24344e-05
2.31258e-05
2.31248e-05
2.31257e-05
2.31248e-05
2.31254e-05
2.31258e-05
2.31253e-05
2.243e-05
2.2434e-05
2.31258e-05
2.31256e-05
2.31257e-05
2.24344e-05
2.24304e-05
2.31253e-05
2.31252e-05
2.24304e-05
2.31258e-05
2.31248e-05
2.31253e-05
2.243e-05
2.31258e-05
2.80831e-05
6.97297e-05
7.57457e-05
2.80849e-05
6.97331e-05
2.38862e-05
2.38864e-05
2.38862e-05
2.38863e-05
2.16981e-05
2.31328e-05
2.75728e-05
2.35299e-05
7.57409e-05
2.16986e-05
2.31326e-05
2.35298e-05
2.75739e-05
2.24358e-05
3.72338e-05
3.72378e-05
2.80863e-05
6.97303e-05
2.80882e-05
6.9728e-05
7.57419e-05
7.57415e-05
2.8088e-05
6.97337e-05
2.80897e-05
6.97313e-05
2.38864e-05
2.38862e-05
2.38863e-05
2.38862e-05
2.38863e-05
2.38861e-05
2.38862e-05
2.16989e-05
2.75804e-05
2.35298e-05
2.31329e-05
2.1699e-05
2.75756e-05
2.35299e-05
7.5738e-05
7.57376e-05
2.16994e-05
2.35297e-05
2.75812e-05
2.31327e-05
2.16995e-05
2.35298e-05
2.75766e-05
3.72391e-05
3.72429e-05
2.2439e-05
3.72379e-05
3.72418e-05
2.80885e-05
6.97292e-05
2.80907e-05
6.97274e-05
7.57397e-05
7.57398e-05
2.80903e-05
6.97325e-05
2.80922e-05
6.97305e-05
2.38863e-05
2.38861e-05
2.38863e-05
2.38863e-05
2.38862e-05
2.3886e-05
2.38862e-05
2.16997e-05
2.75826e-05
2.35298e-05
2.3133e-05
2.16998e-05
2.75774e-05
2.35299e-05
7.57358e-05
7.57359e-05
2.17002e-05
2.35298e-05
2.75834e-05
2.31328e-05
2.17002e-05
2.35298e-05
2.75785e-05
3.72427e-05
3.72466e-05
2.24417e-05
3.72411e-05
3.7245e-05
2.80901e-05
6.97292e-05
2.80926e-05
6.97275e-05
7.57387e-05
7.57392e-05
2.80919e-05
6.97323e-05
2.80941e-05
6.97305e-05
2.38863e-05
2.38861e-05
2.38863e-05
2.38864e-05
2.38863e-05
2.38861e-05
2.38863e-05
2.17003e-05
2.7584e-05
2.35298e-05
2.31331e-05
2.17004e-05
2.75787e-05
2.35299e-05
7.57346e-05
7.57351e-05
2.17008e-05
2.35298e-05
2.75849e-05
2.31329e-05
2.17009e-05
2.35299e-05
2.75798e-05
3.72448e-05
3.72487e-05
2.24419e-05
3.72424e-05
3.72465e-05
2.80912e-05
6.97293e-05
2.80939e-05
6.97276e-05
7.57387e-05
7.57396e-05
2.80928e-05
6.97324e-05
2.80952e-05
6.97307e-05
2.38864e-05
2.38862e-05
2.38864e-05
2.38864e-05
2.38863e-05
2.38862e-05
2.38864e-05
2.17008e-05
2.75849e-05
2.35299e-05
2.31332e-05
2.1701e-05
2.75794e-05
2.353e-05
7.57345e-05
7.57353e-05
2.17013e-05
2.35298e-05
2.75857e-05
2.3133e-05
2.17014e-05
2.35299e-05
2.75804e-05
3.72454e-05
3.72494e-05
2.24422e-05
3.7243e-05
3.72471e-05
2.80915e-05
6.97296e-05
2.80944e-05
6.97279e-05
7.57395e-05
7.57406e-05
2.8093e-05
6.97328e-05
2.80956e-05
6.97312e-05
2.38865e-05
2.38863e-05
2.38865e-05
2.38862e-05
2.38865e-05
2.38862e-05
2.38864e-05
2.17012e-05
2.75855e-05
2.353e-05
2.31333e-05
2.17014e-05
2.758e-05
2.353e-05
7.57353e-05
7.57364e-05
2.17015e-05
2.35299e-05
2.75862e-05
2.31331e-05
2.17018e-05
2.353e-05
2.75809e-05
3.72463e-05
3.72504e-05
2.24425e-05
3.72441e-05
3.72482e-05
2.80916e-05
6.973e-05
2.80945e-05
6.97284e-05
7.57407e-05
7.5742e-05
2.80932e-05
6.97329e-05
2.80958e-05
6.9731e-05
2.38864e-05
2.38861e-05
2.38863e-05
2.38861e-05
2.38861e-05
2.38859e-05
2.38861e-05
2.17014e-05
2.75859e-05
2.35299e-05
2.31333e-05
2.17017e-05
2.75801e-05
2.35299e-05
7.57366e-05
7.57379e-05
2.17019e-05
2.35299e-05
2.75865e-05
2.3133e-05
2.17021e-05
2.35298e-05
2.7581e-05
3.72471e-05
3.72512e-05
2.24427e-05
3.72444e-05
3.72485e-05
2.80905e-05
6.97311e-05
2.8094e-05
6.97301e-05
7.5742e-05
7.57423e-05
2.80922e-05
6.97336e-05
2.80954e-05
6.97324e-05
2.38861e-05
2.38858e-05
2.3886e-05
2.38857e-05
2.38857e-05
2.38855e-05
2.38857e-05
2.17007e-05
2.75858e-05
2.35297e-05
2.3133e-05
2.17017e-05
2.75798e-05
2.35297e-05
7.57381e-05
7.57384e-05
2.1701e-05
2.35297e-05
2.75864e-05
2.31328e-05
2.1702e-05
2.35296e-05
2.75808e-05
3.72467e-05
3.72508e-05
2.24425e-05
3.72442e-05
3.72483e-05
2.80883e-05
6.97324e-05
2.80926e-05
6.97305e-05
7.574e-05
7.574e-05
2.809e-05
6.97346e-05
2.8094e-05
6.97325e-05
2.38854e-05
2.38852e-05
2.38854e-05
2.38818e-05
2.38817e-05
2.38816e-05
2.38816e-05
2.16966e-05
2.75848e-05
2.3529e-05
2.31311e-05
2.16992e-05
2.75778e-05
2.35281e-05
7.57363e-05
7.57361e-05
2.16969e-05
2.35289e-05
2.75855e-05
2.31309e-05
2.16996e-05
2.3528e-05
2.75787e-05
3.72468e-05
3.72508e-05
2.24396e-05
3.72436e-05
3.72476e-05
2.80846e-05
6.97314e-05
2.80888e-05
6.97292e-05
7.57386e-05
7.57391e-05
2.80863e-05
6.97334e-05
2.80902e-05
6.97311e-05
2.38807e-05
2.38806e-05
2.38807e-05
2.38796e-05
2.38797e-05
2.38796e-05
2.38797e-05
2.16922e-05
2.75809e-05
2.3524e-05
2.31263e-05
2.16929e-05
2.7574e-05
2.35235e-05
7.57345e-05
7.57349e-05
2.16925e-05
2.35239e-05
2.75817e-05
2.31261e-05
2.16932e-05
2.35234e-05
2.7575e-05
3.72445e-05
3.72485e-05
2.2435e-05
3.72409e-05
3.72449e-05
2.80833e-05
6.97306e-05
2.80866e-05
6.97288e-05
7.57383e-05
7.5739e-05
2.80851e-05
6.97326e-05
2.80881e-05
6.97306e-05
2.38798e-05
2.38796e-05
2.38797e-05
2.38796e-05
2.38797e-05
2.38796e-05
2.38797e-05
2.1692e-05
2.75787e-05
2.35229e-05
2.31258e-05
2.16924e-05
2.75727e-05
2.3523e-05
7.57342e-05
7.57347e-05
2.16923e-05
2.35229e-05
2.75795e-05
2.31256e-05
2.16927e-05
2.35229e-05
2.75738e-05
3.72425e-05
3.72465e-05
2.24343e-05
3.72396e-05
3.72437e-05
2.80831e-05
6.97304e-05
2.80861e-05
6.97287e-05
7.57383e-05
7.5739e-05
2.80849e-05
6.97324e-05
2.80876e-05
6.97305e-05
2.38798e-05
2.38796e-05
2.38798e-05
2.38796e-05
2.38797e-05
2.38796e-05
2.38797e-05
2.16919e-05
2.75783e-05
2.35229e-05
2.31258e-05
2.16923e-05
2.75725e-05
2.3523e-05
7.57341e-05
7.57347e-05
2.16922e-05
2.35229e-05
2.75791e-05
2.31257e-05
2.16926e-05
2.3523e-05
2.75736e-05
3.72421e-05
3.72461e-05
2.24343e-05
3.72394e-05
3.72435e-05
2.80831e-05
6.97304e-05
2.80861e-05
6.97287e-05
7.57383e-05
7.5739e-05
2.80848e-05
6.97323e-05
2.80876e-05
6.97305e-05
2.38798e-05
2.38796e-05
2.38798e-05
2.38796e-05
2.38797e-05
2.38796e-05
2.38797e-05
2.16919e-05
2.75783e-05
2.3523e-05
2.31259e-05
2.16923e-05
2.75725e-05
2.3523e-05
7.57341e-05
7.57347e-05
2.16923e-05
2.35229e-05
2.75791e-05
2.31257e-05
2.16926e-05
2.3523e-05
2.75736e-05
3.7242e-05
3.72461e-05
2.24344e-05
3.72394e-05
3.72435e-05
2.80831e-05
6.97304e-05
2.80861e-05
6.97287e-05
7.57384e-05
7.5739e-05
2.80848e-05
6.97323e-05
2.80876e-05
6.97304e-05
2.38798e-05
2.38796e-05
2.38798e-05
2.38796e-05
2.38797e-05
2.38796e-05
2.38797e-05
2.16919e-05
2.75783e-05
2.3523e-05
2.31259e-05
2.16922e-05
2.75725e-05
2.3523e-05
7.57341e-05
7.57347e-05
2.16923e-05
2.35229e-05
2.75791e-05
2.31257e-05
2.16926e-05
2.3523e-05
2.75736e-05
3.7242e-05
3.72461e-05
2.24343e-05
3.72394e-05
3.72435e-05
2.80831e-05
6.97304e-05
2.80861e-05
6.97287e-05
7.57384e-05
7.5739e-05
2.80848e-05
6.97323e-05
2.80876e-05
6.97304e-05
2.38798e-05
2.38796e-05
2.38798e-05
2.38796e-05
2.38797e-05
2.38796e-05
2.38797e-05
2.16919e-05
2.75783e-05
2.3523e-05
2.31259e-05
2.16922e-05
2.75725e-05
2.3523e-05
7.57341e-05
7.57347e-05
2.16922e-05
2.35229e-05
2.75791e-05
2.31257e-05
2.16926e-05
2.3523e-05
2.75736e-05
3.7242e-05
3.72461e-05
2.24344e-05
3.72394e-05
3.72435e-05
2.80831e-05
6.97304e-05
2.80861e-05
6.97287e-05
7.57384e-05
7.57391e-05
2.80848e-05
6.97323e-05
2.80876e-05
6.97304e-05
2.38798e-05
2.38796e-05
2.38798e-05
2.38796e-05
2.38797e-05
2.38796e-05
2.38797e-05
2.16918e-05
2.75782e-05
2.3523e-05
2.31259e-05
2.16922e-05
2.75725e-05
2.3523e-05
7.57341e-05
7.57347e-05
2.16921e-05
2.35229e-05
2.75791e-05
2.31257e-05
2.16925e-05
2.3523e-05
2.75736e-05
3.7242e-05
3.72461e-05
2.24343e-05
3.72394e-05
3.72435e-05
2.80831e-05
6.97304e-05
2.80861e-05
6.97287e-05
7.57384e-05
7.57391e-05
2.80848e-05
6.97323e-05
2.80876e-05
6.97304e-05
2.38798e-05
2.38796e-05
2.38798e-05
2.38796e-05
2.38797e-05
2.38796e-05
2.38797e-05
2.16919e-05
2.75782e-05
2.3523e-05
2.31259e-05
2.16922e-05
2.75725e-05
2.3523e-05
7.57341e-05
7.57347e-05
2.1692e-05
2.35229e-05
2.75791e-05
2.31257e-05
2.16924e-05
2.35229e-05
2.75736e-05
3.7242e-05
3.72461e-05
2.24343e-05
3.72394e-05
3.72435e-05
2.80831e-05
6.97304e-05
2.80861e-05
6.97287e-05
7.57384e-05
7.57391e-05
2.80848e-05
6.97323e-05
2.80876e-05
6.97304e-05
2.38798e-05
2.38796e-05
2.38797e-05
2.16921e-05
2.75782e-05
2.3523e-05
2.31258e-05
2.16923e-05
2.75725e-05
2.35231e-05
7.57341e-05
7.57341e-05
2.16921e-05
2.35229e-05
2.75791e-05
2.31257e-05
2.16923e-05
2.3523e-05
2.75736e-05
3.7242e-05
3.72461e-05
2.24344e-05
3.72409e-05
3.7245e-05
7.57462e-05
7.5745e-05
2.24358e-05
3.7233e-05
3.72363e-05
7.57435e-05
7.57451e-05
7.57423e-05
7.57439e-05
2.24322e-05
3.7235e-05
3.72383e-05
3.72358e-05
3.72391e-05
2.80837e-05
6.97337e-05
2.16983e-05
2.31323e-05
2.75741e-05
2.35299e-05
2.16985e-05
2.31321e-05
2.75757e-05
2.35299e-05
2.80866e-05
6.97287e-05
6.97312e-05
2.80849e-05
2.80871e-05
6.97327e-05
6.97352e-05
2.80854e-05
2.1699e-05
2.31322e-05
2.75756e-05
2.35299e-05
2.758e-05
2.35299e-05
2.16988e-05
2.16992e-05
2.31321e-05
2.75772e-05
2.35298e-05
2.75816e-05
2.35298e-05
2.16989e-05
2.24358e-05
3.72378e-05
3.72283e-05
7.57414e-05
7.5743e-05
7.57445e-05
2.24322e-05
3.72398e-05
3.72308e-05
3.72407e-05
3.72317e-05
7.57392e-05
7.57408e-05
2.16989e-05
2.31327e-05
2.75754e-05
2.35299e-05
2.80844e-05
6.97279e-05
2.16987e-05
2.31318e-05
2.35297e-05
2.7574e-05
2.80881e-05
6.97321e-05
6.97347e-05
2.80866e-05
2.16996e-05
2.31327e-05
2.75769e-05
2.35299e-05
2.75812e-05
2.35299e-05
2.16994e-05
2.80876e-05
6.97269e-05
6.97295e-05
2.80862e-05
2.16994e-05
2.31318e-05
2.35296e-05
2.75757e-05
2.35297e-05
2.75802e-05
2.16991e-05
2.80835e-05
6.97304e-05
2.16983e-05
2.31323e-05
2.35299e-05
2.7574e-05
2.80834e-05
6.97311e-05
2.16989e-05
2.31327e-05
2.75744e-05
2.35298e-05
2.7579e-05
2.35299e-05
2.16986e-05
2.80869e-05
6.97294e-05
6.97321e-05
2.80852e-05
2.1699e-05
2.31322e-05
2.35298e-05
2.75755e-05
2.35298e-05
2.75799e-05
2.16988e-05
2.80869e-05
6.97301e-05
6.97326e-05
2.80852e-05
2.24355e-05
3.72308e-05
3.72331e-05
7.57458e-05
7.5739e-05
7.57402e-05
2.2432e-05
3.7238e-05
3.7235e-05
3.7235e-05
3.72359e-05
7.57431e-05
7.57447e-05
2.16989e-05
2.31328e-05
2.35299e-05
2.75754e-05
2.80847e-05
6.97314e-05
2.80848e-05
6.97344e-05
2.16993e-05
2.31326e-05
2.35297e-05
2.75754e-05
2.35298e-05
2.75798e-05
2.1699e-05
2.16996e-05
2.31327e-05
2.35299e-05
2.75769e-05
2.35299e-05
2.75813e-05
2.16993e-05
2.80879e-05
6.97304e-05
6.97329e-05
2.80864e-05
2.8088e-05
6.97334e-05
6.97359e-05
2.80865e-05
7.57458e-05
7.57452e-05
2.24321e-05
3.7236e-05
3.72399e-05
3.72367e-05
3.72407e-05
7.57431e-05
7.57447e-05
7.57425e-05
7.57441e-05
7.57426e-05
7.57416e-05
7.57414e-05
7.57404e-05
3.72376e-05
3.72409e-05
2.24417e-05
3.72369e-05
3.72402e-05
7.57405e-05
7.5741e-05
7.57393e-05
7.57398e-05
2.24379e-05
3.72388e-05
3.72421e-05
3.72396e-05
3.72429e-05
2.80868e-05
6.97343e-05
2.80887e-05
6.97319e-05
2.16992e-05
2.75814e-05
2.35299e-05
2.31324e-05
2.16995e-05
2.75769e-05
2.35299e-05
2.16993e-05
2.75831e-05
2.35299e-05
2.31322e-05
2.16996e-05
2.75786e-05
2.35299e-05
2.80896e-05
6.97275e-05
6.97296e-05
2.80875e-05
2.80901e-05
6.97314e-05
6.97335e-05
2.8088e-05
2.16999e-05
2.31324e-05
2.7578e-05
2.35299e-05
2.75827e-05
2.35299e-05
2.16996e-05
2.17e-05
2.31322e-05
2.75798e-05
2.35299e-05
2.75844e-05
2.35299e-05
2.16997e-05
3.72428e-05
3.72338e-05
2.24416e-05
3.72435e-05
3.72326e-05
7.57385e-05
7.57376e-05
7.57405e-05
7.57409e-05
2.24378e-05
3.7247e-05
3.72342e-05
3.72468e-05
3.72355e-05
7.57365e-05
7.5737e-05
2.16998e-05
2.75826e-05
2.35299e-05
2.31329e-05
2.17001e-05
2.75781e-05
2.35299e-05
2.80876e-05
6.97286e-05
2.80892e-05
6.97261e-05
2.16995e-05
2.35297e-05
2.75819e-05
2.31319e-05
2.16998e-05
2.35297e-05
2.75772e-05
2.80911e-05
6.97308e-05
6.9733e-05
2.80892e-05
2.17005e-05
2.31329e-05
2.75792e-05
2.35299e-05
2.75838e-05
2.35299e-05
2.17002e-05
2.80906e-05
6.97257e-05
6.97279e-05
2.80888e-05
2.17002e-05
2.31319e-05
2.35297e-05
2.75782e-05
2.35297e-05
2.75832e-05
2.16999e-05
2.80866e-05
6.97311e-05
2.80885e-05
6.97286e-05
2.16991e-05
2.35299e-05
2.75813e-05
2.31322e-05
2.16995e-05
2.35299e-05
2.75768e-05
2.80865e-05
6.97316e-05
2.80885e-05
6.97293e-05
2.16997e-05
2.31329e-05
2.75766e-05
2.35299e-05
2.75816e-05
2.35299e-05
2.16993e-05
2.80899e-05
6.97281e-05
6.97304e-05
2.80878e-05
2.16999e-05
2.31322e-05
2.35298e-05
2.75778e-05
2.35299e-05
2.75825e-05
2.16995e-05
2.80898e-05
6.97287e-05
6.97309e-05
2.80877e-05
3.72419e-05
3.72377e-05
2.24414e-05
3.7241e-05
3.7237e-05
7.57422e-05
7.57412e-05
7.57365e-05
7.5737e-05
2.24375e-05
3.72413e-05
3.72388e-05
3.72437e-05
3.72397e-05
7.57401e-05
7.57406e-05
2.16997e-05
2.35299e-05
2.75827e-05
2.31328e-05
2.17e-05
2.35299e-05
2.75781e-05
2.80878e-05
6.9732e-05
2.80895e-05
6.97296e-05
2.80879e-05
6.97349e-05
2.80896e-05
6.97326e-05
2.17001e-05
2.31327e-05
2.35298e-05
2.75776e-05
2.35298e-05
2.75823e-05
2.16998e-05
2.17004e-05
2.31327e-05
2.35299e-05
2.75792e-05
2.35299e-05
2.75839e-05
2.17001e-05
2.80908e-05
6.97291e-05
6.97312e-05
2.8089e-05
2.80909e-05
6.97321e-05
6.97342e-05
2.8089e-05
7.57422e-05
7.57413e-05
7.57416e-05
7.57407e-05
2.24354e-05
3.72397e-05
3.72436e-05
3.72407e-05
3.72445e-05
7.57402e-05
7.57406e-05
7.57396e-05
7.574e-05
7.574e-05
7.574e-05
7.57388e-05
7.57387e-05
3.72414e-05
3.72447e-05
2.24418e-05
3.72405e-05
3.72436e-05
7.57397e-05
7.57395e-05
7.57384e-05
7.57383e-05
2.24379e-05
3.72418e-05
3.72448e-05
3.72431e-05
3.72462e-05
2.8089e-05
6.97331e-05
2.80912e-05
6.97312e-05
2.16999e-05
2.75837e-05
2.353e-05
2.31325e-05
2.17003e-05
2.75789e-05
2.353e-05
2.17001e-05
2.75856e-05
2.353e-05
2.31323e-05
2.17004e-05
2.75807e-05
2.353e-05
2.80917e-05
6.97275e-05
6.97292e-05
2.80894e-05
2.80922e-05
6.97311e-05
6.97329e-05
2.80899e-05
2.17006e-05
2.31325e-05
2.75797e-05
2.35299e-05
2.75846e-05
2.35299e-05
2.17003e-05
2.17008e-05
2.31323e-05
2.75813e-05
2.35299e-05
2.75864e-05
2.35299e-05
2.17004e-05
3.72498e-05
3.7237e-05
2.24418e-05
3.72481e-05
3.72354e-05
7.57361e-05
7.57359e-05
7.57394e-05
7.57393e-05
2.24379e-05
3.72479e-05
3.72364e-05
3.72504e-05
3.72382e-05
7.57355e-05
7.57355e-05
2.17006e-05
2.75848e-05
2.353e-05
2.3133e-05
2.17009e-05
2.75801e-05
2.353e-05
2.80898e-05
6.97276e-05
2.80918e-05
6.97256e-05
2.17003e-05
2.35298e-05
2.75842e-05
2.3132e-05
2.17006e-05
2.35298e-05
2.7579e-05
2.80932e-05
6.97305e-05
6.97324e-05
2.80911e-05
2.17013e-05
2.31329e-05
2.75808e-05
2.35299e-05
2.75857e-05
2.35299e-05
2.17009e-05
2.80928e-05
6.97256e-05
6.97275e-05
2.80907e-05
2.1701e-05
2.3132e-05
2.35297e-05
2.75796e-05
2.35297e-05
2.7585e-05
2.17006e-05
2.80888e-05
6.97299e-05
2.8091e-05
6.97278e-05
2.16999e-05
2.35299e-05
2.75836e-05
2.31324e-05
2.17002e-05
2.35299e-05
2.75787e-05
2.80887e-05
6.97304e-05
2.8091e-05
6.97285e-05
2.17004e-05
2.3133e-05
2.75781e-05
2.35298e-05
2.75834e-05
2.35299e-05
2.17e-05
2.8092e-05
6.97277e-05
6.97297e-05
2.80896e-05
2.17006e-05
2.31324e-05
2.35299e-05
2.75794e-05
2.35299e-05
2.75844e-05
2.17002e-05
2.80919e-05
6.97285e-05
6.97303e-05
2.80896e-05
3.72437e-05
3.72414e-05
2.24414e-05
3.7241e-05
3.72404e-05
7.57396e-05
7.57395e-05
7.57353e-05
7.57354e-05
2.24375e-05
3.72405e-05
3.72415e-05
3.72434e-05
3.72429e-05
7.57392e-05
7.57391e-05
2.17004e-05
2.353e-05
2.75849e-05
2.31329e-05
2.17008e-05
2.353e-05
2.75801e-05
2.809e-05
6.97308e-05
2.8092e-05
6.97288e-05
2.809e-05
6.97338e-05
2.80921e-05
6.97319e-05
2.17009e-05
2.31328e-05
2.35298e-05
2.75792e-05
2.35298e-05
2.75842e-05
2.17005e-05
2.17011e-05
2.31329e-05
2.35299e-05
2.75808e-05
2.35299e-05
2.75858e-05
2.17008e-05
2.80929e-05
6.97288e-05
6.97306e-05
2.80908e-05
2.8093e-05
6.97319e-05
6.97336e-05
2.80909e-05
7.57396e-05
7.57396e-05
7.5739e-05
7.57389e-05
2.24378e-05
3.7242e-05
3.7246e-05
3.72436e-05
3.72475e-05
7.57393e-05
7.57391e-05
7.57386e-05
7.57385e-05
7.57393e-05
7.57396e-05
7.5738e-05
7.57383e-05
3.72442e-05
3.72472e-05
2.24421e-05
3.72424e-05
3.72454e-05
7.57397e-05
7.57392e-05
7.57384e-05
7.5738e-05
2.24382e-05
3.72427e-05
3.72458e-05
3.72447e-05
3.72477e-05
2.80906e-05
6.97329e-05
2.8093e-05
6.97311e-05
2.17006e-05
2.75853e-05
2.353e-05
2.31327e-05
2.1701e-05
2.75803e-05
2.353e-05
2.17007e-05
2.75869e-05
2.353e-05
2.31325e-05
2.17011e-05
2.75817e-05
2.35299e-05
2.80933e-05
6.97276e-05
6.97293e-05
2.80907e-05
2.80937e-05
6.97311e-05
6.97329e-05
2.80912e-05
2.17013e-05
2.31327e-05
2.75806e-05
2.353e-05
2.75858e-05
2.353e-05
2.17009e-05
2.17014e-05
2.31325e-05
2.75821e-05
2.35299e-05
2.75873e-05
2.35299e-05
2.1701e-05
3.72501e-05
3.72391e-05
2.2442e-05
3.72477e-05
3.72371e-05
7.57352e-05
7.57354e-05
7.57393e-05
7.57389e-05
2.24381e-05
3.72477e-05
3.72378e-05
3.72499e-05
3.72398e-05
7.57354e-05
7.57351e-05
2.17012e-05
2.75864e-05
2.353e-05
2.31331e-05
2.17016e-05
2.75814e-05
2.353e-05
2.80914e-05
6.97275e-05
2.80936e-05
6.97256e-05
2.17009e-05
2.35298e-05
2.75855e-05
2.31321e-05
2.17013e-05
2.35298e-05
2.758e-05
2.80947e-05
6.97305e-05
6.97324e-05
2.80924e-05
2.17019e-05
2.31331e-05
2.75817e-05
2.353e-05
2.75869e-05
2.353e-05
2.17015e-05
2.80943e-05
6.97256e-05
6.97275e-05
2.8092e-05
2.17016e-05
2.31321e-05
2.35297e-05
2.75804e-05
2.35297e-05
2.75859e-05
2.17012e-05
2.80904e-05
6.97297e-05
2.80928e-05
6.97277e-05
2.17005e-05
2.35299e-05
2.75851e-05
2.31325e-05
2.17009e-05
2.35299e-05
2.75799e-05
2.80903e-05
6.97302e-05
2.80928e-05
6.97285e-05
2.1701e-05
2.3133e-05
2.75791e-05
2.35299e-05
2.75845e-05
2.35299e-05
2.17006e-05
2.80935e-05
6.97278e-05
6.97297e-05
2.80909e-05
2.17012e-05
2.31325e-05
2.35299e-05
2.75803e-05
2.35299e-05
2.75855e-05
2.17008e-05
2.80935e-05
6.97285e-05
6.97303e-05
2.80909e-05
3.7243e-05
3.72439e-05
2.24416e-05
3.72403e-05
3.72421e-05
7.57388e-05
7.57391e-05
7.57351e-05
7.57348e-05
2.24377e-05
3.72406e-05
3.72425e-05
3.72429e-05
3.72444e-05
7.57392e-05
7.57388e-05
2.1701e-05
2.353e-05
2.75864e-05
2.3133e-05
2.17014e-05
2.353e-05
2.75813e-05
2.80915e-05
6.97306e-05
2.80937e-05
6.97288e-05
2.80916e-05
6.97337e-05
2.80938e-05
6.97319e-05
2.17015e-05
2.31328e-05
2.35298e-05
2.75801e-05
2.35298e-05
2.75853e-05
2.17011e-05
2.17017e-05
2.3133e-05
2.35299e-05
2.75816e-05
2.35299e-05
2.75869e-05
2.17013e-05
2.80944e-05
6.97288e-05
6.97306e-05
2.80921e-05
2.80945e-05
6.97319e-05
6.97337e-05
2.80921e-05
7.57389e-05
7.57391e-05
7.57383e-05
7.57385e-05
2.2438e-05
3.72427e-05
3.72467e-05
3.72447e-05
3.72487e-05
7.57392e-05
7.57388e-05
7.57386e-05
7.57382e-05
7.57394e-05
7.57399e-05
7.57381e-05
7.57387e-05
3.72449e-05
3.72481e-05
2.24424e-05
3.72431e-05
3.72463e-05
7.57404e-05
7.57397e-05
7.57391e-05
7.57385e-05
2.24384e-05
3.72437e-05
3.72469e-05
3.72454e-05
3.72486e-05
2.80916e-05
6.9733e-05
2.80943e-05
6.97313e-05
2.17012e-05
2.75862e-05
2.35301e-05
2.31328e-05
2.17016e-05
2.75809e-05
2.35301e-05
2.17013e-05
2.75877e-05
2.35301e-05
2.31326e-05
2.17017e-05
2.75824e-05
2.35301e-05
2.80942e-05
6.97278e-05
6.97295e-05
2.80914e-05
2.80946e-05
6.97315e-05
6.97331e-05
2.80918e-05
2.17019e-05
2.31328e-05
2.75812e-05
2.35301e-05
2.75865e-05
2.35301e-05
2.17014e-05
2.1702e-05
2.31326e-05
2.75827e-05
2.35301e-05
2.7588e-05
2.35301e-05
2.17015e-05
3.725e-05
3.72405e-05
2.24423e-05
3.72481e-05
3.72384e-05
7.57351e-05
7.57356e-05
7.574e-05
7.57394e-05
2.24383e-05
3.72487e-05
3.72391e-05
3.72505e-05
3.72411e-05
7.57361e-05
7.57355e-05
2.17018e-05
2.75872e-05
2.35301e-05
2.31332e-05
2.17022e-05
2.75821e-05
2.35301e-05
2.80923e-05
6.97276e-05
2.80948e-05
6.97257e-05
2.17015e-05
2.35299e-05
2.75863e-05
2.31323e-05
2.17019e-05
2.35299e-05
2.75807e-05
2.80955e-05
6.97309e-05
6.97326e-05
2.80929e-05
2.17024e-05
2.31332e-05
2.75824e-05
2.353e-05
2.75876e-05
2.353e-05
2.1702e-05
2.80951e-05
6.97258e-05
6.97276e-05
2.80925e-05
2.17021e-05
2.31323e-05
2.35299e-05
2.7581e-05
2.35299e-05
2.75866e-05
2.17017e-05
2.80913e-05
6.97298e-05
2.8094e-05
6.97279e-05
2.17011e-05
2.353e-05
2.75858e-05
2.31327e-05
2.17015e-05
2.353e-05
2.75806e-05
2.80914e-05
6.97303e-05
2.8094e-05
6.97286e-05
2.17015e-05
2.31332e-05
2.75797e-05
2.353e-05
2.75852e-05
2.353e-05
2.17011e-05
2.80944e-05
6.97282e-05
6.97299e-05
2.80916e-05
2.17017e-05
2.31327e-05
2.353e-05
2.75809e-05
2.353e-05
2.75861e-05
2.17013e-05
2.80944e-05
6.97288e-05
6.97305e-05
2.80916e-05
3.72432e-05
3.72448e-05
2.24419e-05
3.72411e-05
3.72429e-05
7.57389e-05
7.57395e-05
7.57357e-05
7.57351e-05
2.24379e-05
3.72417e-05
3.72435e-05
3.72438e-05
3.72452e-05
7.57399e-05
7.57393e-05
2.17015e-05
2.353e-05
2.75872e-05
2.31332e-05
2.1702e-05
2.353e-05
2.75819e-05
2.80924e-05
6.97306e-05
2.80949e-05
6.97289e-05
2.80925e-05
6.97337e-05
2.8095e-05
6.9732e-05
2.17019e-05
2.3133e-05
2.35299e-05
2.75807e-05
2.35299e-05
2.7586e-05
2.17014e-05
2.17021e-05
2.31332e-05
2.353e-05
2.75822e-05
2.353e-05
2.75875e-05
2.17016e-05
2.80952e-05
6.97291e-05
6.97308e-05
2.80925e-05
2.80953e-05
6.97321e-05
6.97338e-05
2.80926e-05
7.57389e-05
7.57394e-05
7.57383e-05
7.57389e-05
2.24383e-05
3.72436e-05
3.72477e-05
3.72454e-05
3.72494e-05
7.57399e-05
7.57392e-05
7.57393e-05
7.57386e-05
7.57402e-05
7.57409e-05
7.57389e-05
7.57397e-05
3.7246e-05
3.72492e-05
2.24426e-05
3.72443e-05
3.72474e-05
7.57415e-05
7.57408e-05
7.57403e-05
7.57396e-05
2.24387e-05
3.72447e-05
3.72479e-05
3.72466e-05
3.72497e-05
2.80919e-05
6.97333e-05
2.80948e-05
6.97317e-05
2.17016e-05
2.75867e-05
2.35302e-05
2.31329e-05
2.17021e-05
2.75815e-05
2.35302e-05
2.17017e-05
2.75883e-05
2.35302e-05
2.31328e-05
2.17022e-05
2.75829e-05
2.35302e-05
2.80945e-05
6.97282e-05
6.97298e-05
2.80916e-05
2.80949e-05
6.9732e-05
6.97336e-05
2.8092e-05
2.17023e-05
2.31329e-05
2.75816e-05
2.35302e-05
2.7587e-05
2.35302e-05
2.17018e-05
2.17024e-05
2.31328e-05
2.75831e-05
2.35301e-05
2.75885e-05
2.35302e-05
2.17019e-05
3.72511e-05
3.72418e-05
2.24425e-05
3.72492e-05
3.72397e-05
7.5736e-05
7.57368e-05
7.57412e-05
7.57404e-05
2.24386e-05
3.72495e-05
3.72401e-05
3.72515e-05
3.72423e-05
7.57374e-05
7.57367e-05
2.17021e-05
2.75878e-05
2.35301e-05
2.31334e-05
2.17026e-05
2.75826e-05
2.35301e-05
2.80926e-05
6.97278e-05
2.80952e-05
6.9726e-05
2.17019e-05
2.353e-05
2.75869e-05
2.31324e-05
2.17023e-05
2.353e-05
2.75813e-05
2.80957e-05
6.97311e-05
6.97331e-05
2.80931e-05
2.17028e-05
2.31334e-05
2.75827e-05
2.35301e-05
2.75881e-05
2.35301e-05
2.17023e-05
2.80953e-05
6.97263e-05
6.9728e-05
2.80927e-05
2.17025e-05
2.31324e-05
2.35299e-05
2.75814e-05
2.353e-05
2.75871e-05
2.17021e-05
2.80917e-05
6.97302e-05
2.80945e-05
6.97284e-05
2.17014e-05
2.35301e-05
2.75864e-05
2.31329e-05
2.17019e-05
2.35301e-05
2.75811e-05
2.80917e-05
6.97307e-05
2.80946e-05
6.97291e-05
2.17018e-05
2.31333e-05
2.75801e-05
2.35299e-05
2.75858e-05
2.35299e-05
2.17013e-05
2.80946e-05
6.97287e-05
6.97304e-05
2.80917e-05
2.17021e-05
2.31329e-05
2.353e-05
2.75812e-05
2.35301e-05
2.75866e-05
2.17016e-05
2.80947e-05
6.97294e-05
6.97309e-05
2.80918e-05
3.72444e-05
3.72459e-05
2.24421e-05
3.72422e-05
3.72441e-05
7.57397e-05
7.57405e-05
7.5737e-05
7.57363e-05
2.24382e-05
3.72426e-05
3.72445e-05
3.72448e-05
3.72464e-05
7.57411e-05
7.57403e-05
2.17017e-05
2.35301e-05
2.75877e-05
2.31333e-05
2.17023e-05
2.35301e-05
2.75823e-05
2.80926e-05
6.9731e-05
2.80953e-05
6.97294e-05
2.80927e-05
6.97339e-05
2.80954e-05
6.97322e-05
2.17022e-05
2.31331e-05
2.35299e-05
2.75811e-05
2.35299e-05
2.75864e-05
2.17017e-05
2.17024e-05
2.31333e-05
2.35301e-05
2.75824e-05
2.35301e-05
2.75879e-05
2.17019e-05
2.80954e-05
6.97297e-05
6.97313e-05
2.80927e-05
2.80954e-05
6.97323e-05
6.9734e-05
2.80927e-05
7.57397e-05
7.57405e-05
7.5739e-05
7.57398e-05
2.24385e-05
3.72445e-05
3.72486e-05
3.72464e-05
3.72505e-05
7.5741e-05
7.57403e-05
7.57404e-05
7.57397e-05
7.57413e-05
7.57423e-05
7.57401e-05
7.57411e-05
3.72469e-05
3.72501e-05
2.24428e-05
3.72447e-05
3.72478e-05
7.57431e-05
7.57422e-05
7.57419e-05
7.5741e-05
2.24389e-05
3.72443e-05
3.72475e-05
3.72467e-05
3.72499e-05
2.80921e-05
6.97339e-05
2.8095e-05
6.97323e-05
2.17018e-05
2.75871e-05
2.35302e-05
2.3133e-05
2.17024e-05
2.75816e-05
2.35302e-05
2.1702e-05
2.75886e-05
2.35301e-05
2.31328e-05
2.17026e-05
2.75831e-05
2.353e-05
2.80945e-05
6.97291e-05
6.97303e-05
2.80912e-05
2.8095e-05
6.9733e-05
6.97342e-05
2.80918e-05
2.17024e-05
2.3133e-05
2.75815e-05
2.35299e-05
2.7587e-05
2.353e-05
2.17015e-05
2.17026e-05
2.31328e-05
2.75829e-05
2.35298e-05
2.75886e-05
2.35298e-05
2.17017e-05
3.72518e-05
3.72426e-05
2.24427e-05
3.72494e-05
3.72399e-05
7.57373e-05
7.57383e-05
7.57426e-05
7.57418e-05
2.24388e-05
3.7249e-05
3.72396e-05
3.72516e-05
3.72424e-05
7.57391e-05
7.57383e-05
2.17024e-05
2.75885e-05
2.35302e-05
2.31335e-05
2.17029e-05
2.75829e-05
2.35302e-05
2.80928e-05
6.97283e-05
2.80954e-05
6.97266e-05
2.17022e-05
2.35299e-05
2.75872e-05
2.31325e-05
2.17027e-05
2.35298e-05
2.75815e-05
2.80959e-05
6.97316e-05
6.9733e-05
2.80929e-05
2.1703e-05
2.31335e-05
2.75829e-05
2.35301e-05
2.75886e-05
2.35302e-05
2.17021e-05
2.80955e-05