/*--------------------------------*- C++ -*----------------------------------*\
| =========                 |                                                 |
| \\      /  F ield         | OpenFOAM: The Open Source CFD Toolbox           |
|  \\    /   O peration     | Version:  2206                                  |
|   \\  /    A nd           | Website:  www.openfoam.com                      |
|    \\/     M anipulation  |                                                 |
\*---------------------------------------------------------------------------*/
FoamFile
{
    version     2.0;
    format      ascii;
    arch        "LSB;label=32;scalar=64";
    class       volScalarField;
    location    "19.5";
    object      nut;
}
// * * * * * * * * * * * * * * * * * * * * * * * * * * * * * * * * * * * * * //

dimensions      [0 2 -1 0 0 0 0];

internalField   nonuniform List<scalar> 
28688
(
0.000233976
0.000233118
0.000233118
0.000233433
0.000232554
0.000227839
0.000227838
0.000223892
0.000230555
0.00022036
0.000220358
0.000209182
0.000227473
0.000210938
0.000210934
0.000193773
0.000226003
0.000207472
0.000207467
0.000185655
0.000226556
0.000209718
0.000209713
0.000189659
0.000226671
0.000210089
0.000210084
0.000190286
0.000226674
0.000210105
0.0002101
0.000190308
0.000226675
0.000210109
0.000210104
0.000190315
0.000226675
0.00021011
0.000210105
0.000190313
0.000226675
0.00021011
0.000210105
0.000190313
0.000226675
0.00021011
0.000210105
0.000190313
0.000234258
0.000234447
0.000234448
0.000234258
0.000234448
0.000234448
0.000234275
0.000234275
0.000234275
0.000234275
0.000234447
0.000234447
0.000234258
0.000234447
0.000234447
0.000234258
0.000233433
0.000226177
0.000233118
0.000233116
0.000229362
0.000229358
0.000233433
0.000226178
0.000233116
0.000233115
0.00022936
0.000229356
0.000233117
0.000229365
0.000229362
0.000233433
0.000226175
0.000233116
0.000229364
0.000229359
0.000226175
0.000223893
0.000212163
0.000227836
0.000227831
0.000222238
0.000222232
0.000223894
0.000212167
0.000227834
0.000227829
0.000222238
0.000222229
0.000227835
0.000222245
0.000222237
0.000223892
0.00021216
0.000227834
0.000222242
0.000222237
0.000212161
0.000209184
0.000196884
0.000220353
0.000220348
0.000213699
0.000213694
0.000209185
0.000196889
0.000220354
0.000220344
0.000213703
0.000213689
0.000220351
0.00021371
0.000213697
0.00020918
0.000196881
0.000220353
0.000213706
0.000213702
0.000196881
0.000193776
0.000186044
0.000210925
0.00021092
0.000207052
0.000207046
0.00019378
0.000186049
0.000210931
0.000210915
0.000207058
0.00020704
0.000210923
0.000207065
0.000207049
0.000193773
0.000186039
0.000210929
0.000207059
0.000207058
0.000186039
0.000185661
0.000189657
0.00020746
0.000207453
0.000209399
0.000209394
0.000185664
0.000189662
0.000207466
0.000207448
0.000209406
0.000209389
0.000207457
0.00020941
0.000209396
0.000185656
0.000189652
0.000207466
0.000209405
0.000209406
0.000189651
0.000189664
0.000190415
0.000209709
0.000209706
0.000210056
0.000210053
0.000189668
0.000190419
0.000209717
0.0002097
0.000210064
0.000210046
0.000209707
0.000210067
0.000210054
0.000189659
0.000190409
0.000209717
0.000210062
0.000210065
0.000190415
0.000190288
0.000190453
0.000210078
0.000210075
0.000210092
0.000210089
0.000190292
0.000190456
0.000210087
0.000210069
0.000210101
0.000210083
0.000210077
0.000210104
0.000210091
0.000190283
0.000190447
0.000210088
0.000210099
0.000210102
0.000190452
0.000190313
0.000190458
0.000210093
0.000210091
0.000210097
0.000210095
0.000190315
0.00019046
0.000210102
0.000210084
0.000210106
0.000210088
0.000210092
0.000210108
0.000210096
0.000190306
0.000190451
0.000210103
0.000210104
0.000210107
0.000190457
0.000190319
0.000190457
0.000210098
0.000210097
0.000210098
0.000210097
0.00019032
0.000190459
0.000210108
0.00021009
0.000210108
0.00021009
0.000210098
0.00021011
0.000210098
0.000190312
0.00019045
0.000210109
0.000210106
0.000210108
0.000190455
0.000190317
0.000190458
0.000210098
0.000210097
0.000210098
0.000210097
0.000190318
0.00019046
0.000210108
0.00021009
0.000210108
0.00021009
0.000210098
0.000210111
0.000210098
0.00019031
0.000190451
0.000210109
0.000210106
0.000210109
0.000190456
0.000190317
0.000190459
0.000210099
0.000210097
0.000210099
0.000210096
0.000190319
0.00019046
0.000210108
0.00021009
0.000210108
0.00021009
0.000210098
0.000210111
0.000210098
0.000190311
0.000190451
0.000210109
0.000210106
0.000210109
0.000190456
0.000190318
0.000190462
0.000210099
0.000210096
0.0002101
0.000190319
0.000210108
0.00021009
0.000210109
0.000210091
0.000210098
0.000210099
0.000190311
0.000190455
0.000210109
0.000210106
0.00021011
0.000190459
0.00023473
0.000234746
0.000234729
0.000234729
0.000235114
0.000234797
0.000234701
0.000234726
0.000235114
0.000234797
0.000234726
0.000234701
0.000234861
0.000233566
0.000233566
0.000104504
3.87461e-05
0.000129313
3.98188e-05
2.16835e-05
2.28266e-05
0.000104495
3.87421e-05
0.000129309
3.98152e-05
0.000233976
0.000233976
0.000233976
0.000232942
0.000232942
0.000232942
0.000232942
0.000206066
9.3636e-05
0.000233972
0.000231992
0.000222729
8.72682e-05
0.000233611
2.16824e-05
2.28257e-05
0.000206059
0.000233972
9.36373e-05
0.000231992
0.000222737
0.000233611
8.72717e-05
4.77909e-05
4.77784e-05
0.000231332
4.40635e-05
4.40544e-05
7.23758e-05
4.24357e-05
8.15151e-05
4.37629e-05
2.47777e-05
2.54609e-05
7.23609e-05
4.24322e-05
8.15131e-05
4.37591e-05
0.000232554
0.000232554
0.000232554
0.000231043
0.000231043
0.000231042
0.000231042
0.000167354
7.93455e-05
0.000232098
0.000226111
0.000180294
7.46506e-05
0.000231393
2.47761e-05
2.54592e-05
0.000167343
0.000232098
7.93404e-05
0.00022611
0.000180293
0.000231392
7.46528e-05
3.91161e-05
3.91056e-05
0.000219555
3.66179e-05
3.66076e-05
5.6193e-05
4.55597e-05
6.11893e-05
4.63955e-05
2.60183e-05
2.61141e-05
5.61919e-05
4.55571e-05
6.1193e-05
4.63925e-05
0.000230555
0.000230554
0.000230555
0.000228435
0.000228435
0.000228434
0.000228434
0.000138386
6.74405e-05
0.000228638
0.000218489
0.000148214
6.34884e-05
0.000227663
2.60162e-05
2.6112e-05
0.000138381
0.000228637
6.74311e-05
0.000218486
0.000148209
0.000227662
6.34919e-05
3.32543e-05
3.32454e-05
0.000204612
3.2005e-05
3.19961e-05
4.69057e-05
4.75238e-05
4.94757e-05
4.7963e-05
2.60502e-05
2.59259e-05
4.69053e-05
4.75207e-05
4.94736e-05
4.79599e-05
0.000227474
0.000227472
0.000227472
0.000225962
0.000225963
0.000225961
0.000225962
0.000117125
5.80598e-05
0.000223335
0.000208654
0.000124299
5.5541e-05
0.000221797
2.60479e-05
2.59235e-05
0.000117118
0.000223332
5.80525e-05
0.000208649
0.000124292
0.000221794
5.55323e-05
3.04793e-05
3.04717e-05
0.000188943
3.0556e-05
3.05482e-05
4.90086e-05
4.84898e-05
4.78676e-05
4.87053e-05
2.58675e-05
2.58811e-05
4.90126e-05
4.84863e-05
4.78683e-05
4.8702e-05
0.000226003
0.000226001
0.000226002
0.000226465
0.000226465
0.000226463
0.000226463
0.000117446
5.62458e-05
0.000220256
0.000208196
0.000115587
5.87149e-05
0.000220445
2.58652e-05
2.58783e-05
0.000117445
0.000220254
5.62464e-05
0.00020819
0.000115584
0.000220443
5.87133e-05
3.29871e-05
3.29796e-05
0.000187875
3.48135e-05
3.48061e-05
4.97527e-05
4.8815e-05
4.96829e-05
4.88195e-05
2.58979e-05
2.58984e-05
4.97588e-05
4.88118e-05
4.96873e-05
4.88163e-05
0.000226558
0.000226556
0.000226557
0.000226662
0.000226662
0.000226661
0.000226662
0.000118979
6.03579e-05
0.000221
0.000209917
0.000118762
6.05632e-05
0.000221078
2.58951e-05
2.58957e-05
0.000118982
0.000220998
6.03571e-05
0.000209912
0.000118764
0.000221077
6.05651e-05
3.59385e-05
3.5932e-05
0.000190266
3.60491e-05
3.60424e-05
4.97764e-05
4.88204e-05
4.97634e-05
4.88195e-05
2.58988e-05
2.58987e-05
4.97831e-05
4.88172e-05
4.97705e-05
4.88162e-05
0.000226671
0.000226669
0.00022667
0.000226675
0.000226674
0.000226672
0.000226674
0.000119063
6.05946e-05
0.000221157
0.000210099
0.000119025
6.06185e-05
0.000221161
2.58962e-05
2.5896e-05
0.000119066
0.000221156
6.05977e-05
0.000210094
0.000119028
0.00022116
6.06208e-05
3.6079e-05
3.60725e-05
0.000190455
3.60832e-05
3.60766e-05
4.97798e-05
4.88202e-05
4.97703e-05
4.88194e-05
2.58988e-05
2.58987e-05
4.9787e-05
4.88169e-05
4.97782e-05
4.88161e-05
0.000226674
0.000226673
0.000226674
0.000226675
0.000226675
0.000226673
0.000226674
0.000119075
6.06049e-05
0.000221162
0.000210106
0.000119044
6.06235e-05
0.000221164
2.58962e-05
2.5896e-05
0.000119079
0.000221161
6.06082e-05
0.000210102
0.000119048
0.000221162
6.06261e-05
3.60812e-05
3.60747e-05
0.000190451
3.60846e-05
3.60779e-05
4.97801e-05
4.88202e-05
4.97711e-05
4.88194e-05
2.58988e-05
2.58987e-05
4.97874e-05
4.88169e-05
4.97793e-05
4.88161e-05
0.000226675
0.000226673
0.000226675
0.000226675
0.000226675
0.000226673
0.000226674
0.000119076
6.06061e-05
0.000221163
0.00021011
0.000119047
6.06238e-05
0.000221163
2.58962e-05
2.5896e-05
0.00011908
0.000221162
6.06096e-05
0.000210105
0.000119051
0.000221162
6.06265e-05
3.60816e-05
3.60751e-05
0.000190455
3.60847e-05
3.60781e-05
4.97801e-05
4.88202e-05
4.97712e-05
4.88193e-05
2.58988e-05
2.58987e-05
4.97874e-05
4.8817e-05
4.97793e-05
4.88161e-05
0.000226675
0.000226674
0.000226675
0.000226675
0.000226675
0.000226673
0.000226674
0.000119075
6.06061e-05
0.000221163
0.000210111
0.000119048
6.06239e-05
0.000221164
2.58962e-05
2.5896e-05
0.000119079
0.000221162
6.06096e-05
0.000210106
0.000119052
0.000221162
6.06265e-05
3.60817e-05
3.60751e-05
0.000190456
3.60847e-05
3.60781e-05
4.97801e-05
4.88203e-05
4.97712e-05
4.88196e-05
2.58988e-05
2.58987e-05
4.97874e-05
4.88168e-05
4.97793e-05
4.8816e-05
0.000226675
0.000226674
0.000226675
0.000226675
0.000226675
0.000226673
0.000226674
0.000119075
6.06061e-05
0.000221163
0.000210111
0.000119047
6.06239e-05
0.000221164
2.58962e-05
2.5896e-05
0.00011908
0.000221162
6.06096e-05
0.000210106
0.00011905
0.000221162
6.06265e-05
3.60816e-05
3.60751e-05
0.000190455
3.60847e-05
3.60781e-05
4.97801e-05
4.88204e-05
4.97712e-05
4.88197e-05
2.58988e-05
2.58987e-05
4.97874e-05
4.88167e-05
4.97793e-05
4.88159e-05
0.000226675
0.000226674
0.000226675
0.000226676
0.000226678
0.000226674
0.000226675
0.000119075
6.06061e-05
0.000221163
0.000210111
0.000119047
6.06239e-05
0.000221164
2.58962e-05
2.5896e-05
0.000119079
0.000221162
6.06096e-05
0.000210106
0.000119051
0.000221162
6.06265e-05
3.60817e-05
3.60751e-05
0.000190455
3.60847e-05
3.60781e-05
0.000234861
0.000233564
0.000233566
2.32575e-05
0.000214159
2.32564e-05
0.000214162
0.000234443
5.13523e-05
5.13339e-05
0.00022999
0.000229991
0.000235114
0.000234797
0.000234701
0.000234726
0.000235114
0.000234797
0.000234701
0.000234726
0.000234477
4.02626e-05
0.000218814
0.000147674
0.000234477
4.02621e-05
0.000218814
0.000147681
0.000233894
0.000234476
0.000100145
0.000234269
0.000233359
0.000234596
0.000228461
0.000233894
0.000234476
0.000100132
0.000234269
0.000233359
0.000234596
0.00022846
0.000234861
0.000233565
0.000233566
2.32572e-05
0.000214167
0.000234442
5.13442e-05
5.13395e-05
0.000229989
0.000229991
2.32571e-05
0.000214169
0.000235114
0.000234797
0.000234701
0.000234726
0.000235114
0.000234797
0.000234726
0.000234701
0.000234477
4.02594e-05
0.000218815
0.000147651
0.000233894
0.000234476
0.000100121
0.000234269
0.000233359
0.000234596
0.000228458
0.000234477
4.02589e-05
0.000218816
0.000147666
0.000233894
0.000234476
0.000234269
0.00010013
0.000234596
0.000233359
0.00022846
0.00023473
0.000234746
0.000234729
0.000234729
0.00023473
0.000234746
0.000234729
0.000234729
0.00023473
0.000234746
0.000234729
0.000234729
0.000234591
0.000234574
0.000234254
0.000234254
0.000234592
0.000234592
0.000234254
0.000234591
0.000234574
0.000234254
0.000234254
0.000234592
0.000234592
0.000234254
0.000234591
0.000234574
0.000234254
0.000234254
0.000234592
0.000234592
0.000234254
0.000234591
0.000234574
0.000234254
0.000234254
0.000234592
0.000234592
0.000234254
0.000235114
0.000234797
0.000234726
0.000234701
0.000233894
0.000234476
0.000100126
0.000234269
0.000233359
0.000234596
0.000228459
0.000234477
4.02601e-05
0.000218818
0.000147666
0.000233894
0.000234476
0.000234269
0.000100138
0.000234596
0.00023336
0.00022846
0.000234477
4.02596e-05
0.000218816
0.000147673
0.000234861
0.000233566
0.000233566
2.32564e-05
0.000214163
0.000234443
5.13377e-05
5.13414e-05
0.000229991
0.000229993
2.32568e-05
0.000214171
0.000235114
0.000234797
0.000234726
0.000234701
0.000233894
0.000234476
0.000234269
0.000100133
0.000234596
0.00023336
0.000228459
0.000233894
0.000234476
0.000234269
0.000100122
0.000234596
0.000233359
0.000228458
0.000234477
4.02592e-05
0.000218818
0.000147652
0.000234477
4.0259e-05
0.000218814
0.000147639
0.000234443
5.13443e-05
5.13323e-05
0.000229992
0.000229992
2.32569e-05
0.000214169
2.32564e-05
0.000214164
2.16839e-05
2.28276e-05
2.16826e-05
2.28261e-05
4.77912e-05
4.77797e-05
0.000231332
4.407e-05
4.4054e-05
2.44768e-05
2.33088e-05
2.44751e-05
2.33074e-05
0.000229681
4.01342e-05
4.01189e-05
4.30918e-05
4.30791e-05
0.000104518
3.87451e-05
0.000129299
3.98169e-05
0.00020607
9.36464e-05
0.000233972
0.000231991
0.000222723
8.72755e-05
0.000233611
0.000206073
9.36315e-05
0.000233972
0.000231987
0.00022272
8.72606e-05
0.000233611
9.86364e-05
4.19583e-05
4.038e-05
8.53582e-05
9.863e-05
4.19568e-05
4.03789e-05
8.53599e-05
0.000200246
0.000230746
8.09207e-05
0.000232679
8.56415e-05
0.000233181
0.000185441
0.000200246
0.000230742
8.09113e-05
0.000232679
8.56262e-05
0.00023318
0.000185444
4.7783e-05
4.7788e-05
0.000231333
4.40589e-05
4.40644e-05
2.16835e-05
2.28276e-05
2.44759e-05
2.3308e-05
0.000229681
4.01241e-05
4.01265e-05
4.30819e-05
4.30873e-05
2.44769e-05
2.3309e-05
0.00020606
9.36259e-05
0.000233972
0.000231988
0.000222722
8.72552e-05
0.000233611
0.000104498
3.87418e-05
0.000129328
3.98145e-05
0.000206061
0.000233972
9.36288e-05
0.000231987
0.000222727
0.000233611
8.72558e-05
9.86346e-05
4.19545e-05
4.03765e-05
8.53504e-05
0.000200246
0.000230743
8.09062e-05
0.000232679
8.56257e-05
0.000233181
0.000185435
9.86353e-05
4.19535e-05
4.03759e-05
8.53495e-05
0.000200245
0.000230741
0.000232678
8.09022e-05
0.00023318
8.56233e-05
0.000185432
0.000104504
3.87427e-05
0.000129318
3.98174e-05
0.000206066
0.000233972
9.36392e-05
0.00023199
0.000222733
0.000233611
8.72687e-05
0.000104502
3.87431e-05
0.000129338
3.98158e-05
0.000200248
0.000230748
8.09163e-05
0.000232679
8.56396e-05
0.000233181
0.00018544
9.86355e-05
4.19567e-05
4.03777e-05
8.53539e-05
0.000200248
0.000230746
0.000232679
8.09193e-05
0.000233181
8.56381e-05
0.00018544
9.86408e-05
4.19556e-05
4.03779e-05
8.5355e-05
4.77795e-05
4.77881e-05
0.000231331
4.40543e-05
4.40695e-05
2.16829e-05
2.28267e-05
2.44745e-05
2.33067e-05
0.000229681
4.01182e-05
4.01318e-05
4.30792e-05
4.30879e-05
2.44759e-05
2.3308e-05
0.000206056
0.000233972
9.36257e-05
0.000231988
0.000222732
0.000233611
8.72576e-05
0.000104482
3.87422e-05
0.000129346
3.9816e-05
0.000104478
3.87416e-05
0.000129332
3.9815e-05
0.000200248
0.000230748
0.000232679
8.0919e-05
0.000233181
8.56341e-05
0.000185433
0.000200249
0.000230744
0.000232679
8.09103e-05
0.000233181
8.56255e-05
0.000185432
9.86508e-05
4.19553e-05
4.03775e-05
8.53482e-05
9.86502e-05
4.19546e-05
4.03761e-05
8.53479e-05
2.16833e-05
2.28267e-05
2.16824e-05
2.28261e-05
0.000229681
4.01315e-05
4.012e-05
4.30932e-05
4.30784e-05
2.4476e-05
2.33082e-05
2.44751e-05
2.33075e-05
2.47785e-05
2.5462e-05
2.47767e-05
2.54602e-05
3.91184e-05
3.91049e-05
0.000219557
3.66238e-05
3.6608e-05
2.59534e-05
2.56225e-05
2.59519e-05
2.56207e-05
0.000216787
3.38795e-05
3.38615e-05
3.57286e-05
3.57165e-05
7.23776e-05
4.24345e-05
8.15177e-05
4.37617e-05
0.000167355
7.93466e-05
0.000232098
0.000226107
0.00018029
7.46522e-05
0.000231392
0.000167356
7.93317e-05
0.000232098
0.000226102
0.000180294
7.46464e-05
0.000231391
6.95057e-05
4.52306e-05
4.41596e-05
6.34315e-05
6.95089e-05
4.52302e-05
4.41581e-05
6.34339e-05
0.000162726
0.000224195
6.88464e-05
0.000229599
7.30605e-05
0.000230543
0.000152155
0.000162731
0.00022419
6.88454e-05
0.000229599
7.30432e-05
0.000230543
0.000152158
3.91088e-05
3.91165e-05
0.000219559
3.66124e-05
3.66242e-05
2.47786e-05
2.5462e-05
2.59529e-05
2.56216e-05
0.000216788
3.38656e-05
3.38774e-05
3.572e-05
3.57219e-05
2.59538e-05
2.56225e-05
0.000167348
7.93294e-05
0.000232098
0.000226106
0.000180289
7.46423e-05
0.000231391
7.23591e-05
4.24312e-05
8.15121e-05
4.37581e-05
0.000167344
0.000232097
7.93307e-05
0.0002261
0.000180287
0.000231391
7.46345e-05
6.95152e-05
4.52276e-05
4.41562e-05
6.34228e-05
0.000162724
0.000224194
6.88392e-05
0.000229598
7.30438e-05
0.000230543
0.000152152
6.95146e-05
4.52261e-05
4.41543e-05
6.34207e-05
0.000162724
0.000224187
0.000229597
6.88329e-05
0.000230541
7.3042e-05
0.000152146
7.23703e-05
4.2434e-05
8.15183e-05
4.37615e-05
0.000167351
0.000232098
7.93404e-05
0.000226106
0.000180292
0.000231392
7.46525e-05
7.23733e-05
4.24335e-05
8.15123e-05
4.37601e-05
0.00016273
0.0002242
6.88475e-05
0.0002296
7.3058e-05
0.000230543
0.000152157
6.95112e-05
4.52298e-05
4.41577e-05
6.34311e-05
0.000162728
0.000224194
0.000229599
6.88506e-05
0.000230543
7.30489e-05
0.000152153
6.95091e-05
4.52284e-05
4.41566e-05
6.34293e-05
3.91059e-05
3.91169e-05
0.000219554
3.66144e-05
3.66195e-05
2.47779e-05
2.54606e-05
2.59508e-05
2.56196e-05
0.000216784
3.38682e-05
3.38728e-05
3.57116e-05
3.57261e-05
2.59526e-05
2.56213e-05
0.000167346
0.000232098
7.93305e-05
0.000226104
0.000180294
0.000231391
7.46442e-05
7.2359e-05
4.2433e-05
8.1513e-05
4.37603e-05
7.23651e-05
4.24318e-05
8.15145e-05
4.3759e-05
0.000162727
0.000224198
0.000229599
6.88503e-05
0.000230543
7.30508e-05
0.000152148
0.000162729
0.000224194
0.000229598
6.88431e-05
0.000230542
7.30409e-05
0.00015215
6.95156e-05
4.52285e-05
4.41566e-05
6.34211e-05
6.95164e-05
4.52272e-05
4.41552e-05
6.3422e-05
2.47778e-05
2.54604e-05
2.4777e-05
2.54597e-05
0.000216785
3.38711e-05
3.38615e-05
3.57243e-05
3.57152e-05
2.59524e-05
2.56211e-05
2.59516e-05
2.56204e-05
2.60188e-05
2.61147e-05
2.60171e-05
2.6113e-05
3.32569e-05
3.32471e-05
0.000204614
3.20034e-05
3.19971e-05
2.60878e-05
2.61228e-05
2.60858e-05
2.6121e-05
0.000201633
3.0711e-05
3.06992e-05
3.17025e-05
3.16944e-05
5.61952e-05
4.5559e-05
6.11917e-05
4.63953e-05
0.000138385
6.74401e-05
0.000228637
0.000218481
0.000148212
6.34873e-05
0.000227663
0.000138388
6.74258e-05
0.000228637
0.000218475
0.000148215
6.34885e-05
0.000227662
5.50884e-05
4.73292e-05
4.66438e-05
5.08742e-05
5.50901e-05
4.73293e-05
4.66431e-05
5.08764e-05
0.000135732
0.000216318
5.91587e-05
0.000225024
6.24919e-05
0.000226508
0.000127273
0.000135734
0.000216312
5.91499e-05
0.000225023
6.24865e-05
0.000226507
0.000127276
3.32495e-05
3.32562e-05
0.000204619
3.19996e-05
3.19997e-05
2.60191e-05
2.6115e-05
2.60869e-05
2.61221e-05
0.000201635
3.07016e-05
3.07096e-05
3.16969e-05
3.16992e-05
2.60878e-05
2.6123e-05
0.00013838
6.74276e-05
0.000228637
0.000218483
0.000148209
6.34811e-05
0.000227662
5.61908e-05
4.5555e-05
6.11919e-05
4.63911e-05
0.000138378
0.000228635
6.74259e-05
0.000218472
0.000148208
0.000227661
6.34744e-05
5.50919e-05
4.73262e-05
4.66408e-05
5.08718e-05
0.000135729
0.00021632
5.91484e-05
0.000225022
6.24813e-05
0.000226507
0.000127268
5.50908e-05
4.73247e-05
4.66389e-05
5.08704e-05
0.000135728
0.000216308
0.000225021
5.91467e-05
0.000226505
6.24779e-05
0.000127265
5.61928e-05
4.55587e-05
6.11892e-05
4.63949e-05
0.000138383
0.000228637
6.74305e-05
0.000218479
0.000148212
0.000227662
6.34929e-05
5.61915e-05
4.55571e-05
6.11875e-05
4.63933e-05
0.000135734
0.000216327
5.91587e-05
0.000225025
6.24918e-05
0.000226509
0.000127274
5.50877e-05
4.73289e-05
4.66428e-05
5.08745e-05
0.000135732
0.000216315
0.000225023
5.91535e-05
0.000226507
6.24909e-05
0.000127271
5.50865e-05
4.7327e-05
4.6641e-05
5.08731e-05
3.32458e-05
3.32564e-05
0.000204611
3.19921e-05
3.20055e-05
2.60179e-05
2.61138e-05
2.60847e-05
2.61199e-05
0.000201629
3.07011e-05
3.07077e-05
3.16911e-05
3.17029e-05
2.60865e-05
2.61218e-05
0.000138383
0.000228636
6.74229e-05
0.000218482
0.000148211
0.000227662
6.34862e-05
5.61914e-05
4.5557e-05
6.11922e-05
4.6393e-05
5.61922e-05
4.5556e-05
6.11933e-05
4.63923e-05
0.00013573
0.000216324
0.000225023
5.91526e-05
0.000226508
6.24907e-05
0.000127267
0.000135731
0.000216319
0.000225022
5.91474e-05
0.000226506
6.24839e-05
0.00012727
5.50913e-05
4.73268e-05
4.66407e-05
5.08708e-05
5.5092e-05
4.73262e-05
4.66401e-05
5.08719e-05
2.60178e-05
2.61136e-05
2.6017e-05
2.61127e-05
0.00020163
3.07068e-05
3.06986e-05
3.17021e-05
3.16934e-05
2.60864e-05
2.61216e-05
2.60855e-05
2.61207e-05
2.60511e-05
2.59268e-05
2.60489e-05
2.59246e-05
3.04808e-05
3.04727e-05
0.000188946
3.05573e-05
3.05484e-05
2.58684e-05
2.58985e-05
2.5866e-05
2.5896e-05
0.000186663
3.20641e-05
3.20545e-05
3.08318e-05
3.0823e-05
4.69073e-05
4.75232e-05
4.94773e-05
4.7963e-05
0.000117125
5.80591e-05
0.000223333
0.00020864
0.000124297
5.55389e-05
0.000221795
0.000117127
5.80489e-05
0.000223332
0.000208635
0.000124299
5.55299e-05
0.000221794
4.63233e-05
4.83889e-05
4.80741e-05
4.73776e-05
4.63247e-05
4.83887e-05
4.80735e-05
4.73782e-05
0.000115403
0.000207343
5.59403e-05
0.000220284
5.52953e-05
0.000220749
0.000115196
0.000115404
0.000207337
5.5936e-05
0.000220283
5.52886e-05
0.000220748
0.000115197
3.04742e-05
3.04805e-05
0.000188952
3.05506e-05
3.05573e-05
2.60511e-05
2.59267e-05
2.58673e-05
2.58973e-05
0.000186665
3.20577e-05
3.20606e-05
3.08248e-05
3.08274e-05
2.5868e-05
2.58982e-05
0.000117118
5.80471e-05
0.000223333
0.000208646
0.000124292
5.55274e-05
0.000221793
4.6904e-05
4.75188e-05
4.94722e-05
4.79582e-05
0.000117116
0.00022333
5.80473e-05
0.00020863
0.00012429
0.000221791
5.55296e-05
4.63216e-05
4.83855e-05
4.80708e-05
4.73695e-05
0.000115398
0.000207349
5.59326e-05
0.000220282
5.5286e-05
0.000220748
0.000115188
4.63209e-05
4.83837e-05
4.80689e-05
4.73696e-05
0.000115396
0.000207331
0.00022028
5.59282e-05
0.000220745
5.52848e-05
0.000115187
4.69055e-05
4.7523e-05
4.94754e-05
4.79626e-05
0.000117122
0.000223332
5.80524e-05
0.000208638
0.000124296
0.000221794
5.55329e-05
4.69043e-05
4.7521e-05
4.94742e-05
4.79606e-05
0.000115403
0.000207356
5.5939e-05
0.000220285
5.52964e-05
0.00022075
0.000115194
4.63227e-05
4.83882e-05
4.80733e-05
4.73758e-05
0.000115402
0.00020734
0.000220283
5.59386e-05
0.000220748
5.52916e-05
0.000115193
4.63219e-05
4.8386e-05
4.80711e-05
4.73758e-05
3.04716e-05
3.04804e-05
0.000188942
3.05496e-05
3.05569e-05
2.60498e-05
2.59255e-05
2.58648e-05
2.5895e-05
0.000186659
3.20534e-05
3.2064e-05
3.08198e-05
3.0831e-05
2.58669e-05
2.58969e-05
0.00011712
0.000223332
5.80462e-05
0.000208645
0.000124293
0.000221793
5.55277e-05
4.69044e-05
4.75207e-05
4.94724e-05
4.79604e-05
4.69053e-05
4.75201e-05
4.94734e-05
4.79599e-05
0.000115398
0.000207351
0.000220283
5.59388e-05
0.000220748
5.52916e-05
0.00011519
0.000115399
0.000207348
0.000220283
5.59331e-05
0.000220748
5.52861e-05
0.000115191
4.63213e-05
4.83857e-05
4.80708e-05
4.73701e-05
4.63218e-05
4.83854e-05
4.80704e-05
4.73697e-05
2.60496e-05
2.59253e-05
2.60487e-05
2.59244e-05
0.00018666
3.20631e-05
3.20551e-05
3.083e-05
3.08224e-05
2.58667e-05
2.58967e-05
2.58657e-05
2.58958e-05
2.58687e-05
2.58821e-05
2.58662e-05
2.58798e-05
3.299e-05
3.29816e-05
0.000187878
3.48145e-05
3.48053e-05
2.58972e-05
2.58896e-05
2.58949e-05
2.58872e-05
0.000188053
3.58552e-05
3.58482e-05
3.52088e-05
3.52008e-05
4.90088e-05
4.84893e-05
4.78692e-05
4.87052e-05
0.000117447
5.62495e-05
0.000220255
0.000208184
0.00011559
5.87162e-05
0.000220445
0.000117447
5.62451e-05
0.000220253
0.000208179
0.00011559
5.87113e-05
0.000220443
4.92564e-05
4.8806e-05
4.87497e-05
4.96144e-05
4.92566e-05
4.8806e-05
4.87494e-05
4.96145e-05
0.000117753
0.000208899
6.01981e-05
0.000220869
5.92723e-05
0.000220679
0.00011866
0.000117753
0.000208894
6.01953e-05
0.000220868
5.92677e-05
0.000220678
0.00011866
3.29833e-05
3.29848e-05
0.000187882
3.48081e-05
3.4815e-05
2.58684e-05
2.58815e-05
2.58961e-05
2.58886e-05
0.000188056
3.58494e-05
3.58493e-05
3.52021e-05
3.5206e-05
2.58965e-05
2.58893e-05
0.000117443
5.62414e-05
0.000220253
0.000208191
0.000115584
5.87068e-05
0.000220443
4.90122e-05
4.84846e-05
4.78694e-05
4.86997e-05
0.000117442
0.000220251
5.62366e-05
0.000208174
0.000115583
0.000220441
5.87037e-05
4.9261e-05
4.88027e-05
4.87465e-05
4.96203e-05
0.000117751
0.000208906
6.01903e-05
0.000220868
5.92645e-05
0.000220679
0.00011866
4.92607e-05
4.87998e-05
4.87439e-05
4.96195e-05
0.000117749
0.000208889
0.000220866
6.0184e-05
0.000220676
5.92628e-05
0.000118658
4.90074e-05
4.84892e-05
4.78669e-05
4.87044e-05
0.000117444
0.000220254
5.62475e-05
0.000208181
0.000115589
0.000220444
5.87127e-05
4.90072e-05
4.84866e-05
4.78669e-05
4.87023e-05
0.000117751
0.000208912
6.01954e-05
0.00022087
5.92734e-05
0.00022068
0.000118659
4.92554e-05
4.88046e-05
4.87487e-05
4.96137e-05
0.000117751
0.000208896
0.000220869
6.01957e-05
0.000220679
5.92686e-05
0.000118658
4.92552e-05
4.8803e-05
4.87465e-05
4.96132e-05
3.29767e-05
3.2989e-05
0.000187873
3.48069e-05
3.48137e-05
2.58672e-05
2.58807e-05
2.58933e-05
2.58861e-05
0.000188048
3.58405e-05
3.58547e-05
3.51971e-05
3.52077e-05
2.58958e-05
2.58882e-05
0.000117446
0.000220253
5.6242e-05
0.000208191
0.000115586
0.000220444
5.87082e-05
4.90129e-05
4.84863e-05
4.787e-05
4.87021e-05
4.90128e-05
4.8486e-05
4.78696e-05
4.87018e-05
0.000117752
0.000208906
0.000220869
6.01957e-05
0.000220679
5.92686e-05
0.000118661
0.000117753
0.000208906
0.000220868
6.01924e-05
0.000220678
5.92644e-05
0.000118663
4.92613e-05
4.88027e-05
4.87462e-05
4.96202e-05
4.92613e-05
4.88025e-05
4.8746e-05
4.96203e-05
2.5867e-05
2.58805e-05
2.5866e-05
2.58795e-05
0.000188049
3.58541e-05
3.58474e-05
3.52069e-05
3.52001e-05
2.58956e-05
2.5888e-05
2.58947e-05
2.58871e-05
2.58992e-05
2.58999e-05
2.58967e-05
2.58974e-05
3.59396e-05
3.59339e-05
0.000190267
3.60494e-05
3.60437e-05
2.59001e-05
2.59002e-05
2.58976e-05
2.58977e-05
0.000190165
3.60823e-05
3.60766e-05
3.60696e-05
3.60643e-05
4.9753e-05
4.8815e-05
4.9684e-05
4.88197e-05
0.000118979
6.03605e-05
0.000221
0.000209905
0.000118765
6.05672e-05
0.000221077
0.000118979
6.03574e-05
0.000220999
0.000209901
0.000118765
6.05644e-05
0.000221076
4.97548e-05
4.88197e-05
4.88202e-05
4.97704e-05
4.97551e-05
4.88199e-05
4.88204e-05
4.97707e-05
0.000118979
0.000210006
6.06137e-05
0.000221146
6.05849e-05
0.000221122
0.000119044
0.000118979
0.000210003
6.06109e-05
0.000221145
6.05822e-05
0.000221121
0.000119045
3.59323e-05
3.59326e-05
0.000190272
3.60436e-05
3.60429e-05
2.58983e-05
2.5899e-05
2.58986e-05
2.58987e-05
0.000190168
3.60761e-05
3.60722e-05
3.60633e-05
3.60596e-05
2.58992e-05
2.58994e-05
0.00011898
6.03545e-05
0.000220999
0.000209912
0.000118765
6.05601e-05
0.000221076
4.97575e-05
4.88089e-05
4.96874e-05
4.88135e-05
0.000118978
0.000220997
6.03475e-05
0.000209895
0.000118763
0.000221074
6.05516e-05
4.97622e-05
4.88164e-05
4.8817e-05
4.97766e-05
0.00011898
0.000210014
6.06064e-05
0.000221145
6.05778e-05
0.000221121
0.000119046
4.97608e-05
4.88137e-05
4.88142e-05
4.9775e-05
0.000118978
0.000209997
0.000221143
6.05976e-05
0.000221119
6.05677e-05
0.000119043
4.97523e-05
4.88138e-05
4.96833e-05
4.88185e-05
0.000118977
0.000220999
6.03578e-05
0.000209902
0.000118764
0.000221077
6.05648e-05
4.97517e-05
4.88119e-05
4.96827e-05
4.88167e-05
0.000118978
0.000210017
6.06093e-05
0.000221148
6.05795e-05
0.000221123
0.000119044
4.97543e-05
4.88186e-05
4.88192e-05
4.97699e-05
0.000118978
0.000210004
0.000221146
6.06113e-05
0.000221121
6.05826e-05
0.000119042
4.97537e-05
4.88169e-05
4.88173e-05
4.97693e-05
3.59233e-05
3.59393e-05
0.000190262
3.60342e-05
3.60492e-05
2.58976e-05
2.58983e-05
2.5896e-05
2.58961e-05
0.000190159
3.60645e-05
3.60818e-05
3.60516e-05
3.60692e-05
2.58985e-05
2.58986e-05
0.000118983
0.000220999
6.03545e-05
0.000209913
0.000118767
0.000221077
6.05617e-05
4.97582e-05
4.88117e-05
4.9688e-05
4.88164e-05
4.97585e-05
4.88115e-05
4.96882e-05
4.88163e-05
0.000118981
0.000210011
0.000221146
6.06117e-05
0.000221122
6.05831e-05
0.000119046
0.000118982
0.000210015
0.000221146
6.06082e-05
0.000221122
6.05793e-05
0.000119048
4.97615e-05
4.88166e-05
4.88171e-05
4.97758e-05
4.97618e-05
4.88165e-05
4.88169e-05
4.9776e-05
2.58974e-05
2.58981e-05
2.58964e-05
2.58972e-05
0.000190163
3.60817e-05
3.60751e-05
3.60691e-05
3.60624e-05
2.58983e-05
2.58984e-05
2.58974e-05
2.58975e-05
2.59004e-05
2.59002e-05
2.58978e-05
2.58976e-05
3.60801e-05
3.60746e-05
0.000190455
3.60839e-05
3.60781e-05
2.59001e-05
2.59004e-05
2.58976e-05
2.58978e-05
0.000190317
3.60848e-05
3.60791e-05
3.60814e-05
3.6076e-05
4.97768e-05
4.88204e-05
4.97653e-05
4.88197e-05
0.000119063
6.06017e-05
0.000221157
0.000210088
0.000119026
6.0623e-05
0.00022116
0.000119063
6.05987e-05
0.000221156
0.000210085
0.000119026
6.062e-05
0.000221158
4.977e-05
4.88195e-05
4.88201e-05
4.97789e-05
4.97704e-05
4.88196e-05
4.88202e-05
4.97794e-05
0.000119039
0.000210091
6.06267e-05
0.000221161
6.06093e-05
0.000221161
0.000119069
0.00011904
0.000210088
6.06236e-05
0.00022116
6.06061e-05
0.00022116
0.00011907
3.60739e-05
3.60703e-05
0.000190459
3.60777e-05
3.60746e-05
2.58995e-05
2.58992e-05
2.58987e-05
2.58989e-05
0.000190319
3.60787e-05
3.60754e-05
3.60754e-05
3.60718e-05
2.58992e-05
2.58995e-05
0.000119065
6.05945e-05
0.000221157
0.000210096
0.000119028
6.06155e-05
0.000221159
4.97814e-05
4.88142e-05
4.97706e-05
4.88134e-05
0.000119063
0.000221154
6.05847e-05
0.000210078
0.000119026
0.000221156
6.06067e-05
4.97776e-05
4.88161e-05
4.88168e-05
4.9786e-05
0.000119042
0.000210099
6.0619e-05
0.000221161
6.06019e-05
0.00022116
0.000119072
4.9776e-05
4.88133e-05
4.8814e-05
4.97843e-05
0.000119039
0.000210081
0.000221158
6.06101e-05
0.000221157
6.0592e-05
0.000119069
4.9776e-05
4.88192e-05
4.97646e-05
4.88184e-05
0.000119061
0.000221156
6.05991e-05
0.000210086
0.000119025
0.000221159
6.06204e-05
4.97755e-05
4.88173e-05
4.9764e-05
4.88167e-05
0.00011904
0.000210101
6.06221e-05
0.000221162
6.0604e-05
0.000221162
0.000119071
4.97696e-05
4.88183e-05
4.8819e-05
4.97787e-05
0.000119038
0.00021009
0.000221161
6.0624e-05
0.00022116
6.06065e-05
0.000119068
4.97691e-05
4.88165e-05
4.88172e-05
4.97782e-05
3.60619e-05
3.60796e-05
0.000190449
3.60663e-05
3.60833e-05
2.58987e-05
2.58985e-05
2.5896e-05
2.58962e-05
0.000190311