/*--------------------------------*- C++ -*----------------------------------*\
| =========                 |                                                 |
| \\      /  F ield         | OpenFOAM: The Open Source CFD Toolbox           |
|  \\    /   O peration     | Version:  2206                                  |
|   \\  /    A nd           | Website:  www.openfoam.com                      |
|    \\/     M anipulation  |                                                 |
\*---------------------------------------------------------------------------*/
FoamFile
{
    version     2.0;
    format      ascii;
    arch        "LSB;label=32;scalar=64";
    class       volScalarField;
    location    "14";
    object      nut;
}
// * * * * * * * * * * * * * * * * * * * * * * * * * * * * * * * * * * * * * //

dimensions      [0 2 -1 0 0 0 0];

internalField   nonuniform List<scalar> 
28448
(
0.000230108
0.000220903
0.000220897
0.000208169
0.000230107
0.000220902
0.000220894
0.000208165
0.000230105
0.000220896
0.000220888
0.00020815
0.000230081
0.000220848
0.000220845
0.000208072
0.000230094
0.000220855
0.000220851
0.000208087
0.000230094
0.000220855
0.000220852
0.000208083
0.000230094
0.000220855
0.000220852
0.000208082
0.000230094
0.000220856
0.000220852
0.000208083
0.000230094
0.000220855
0.000220852
0.000208083
0.000230094
0.000220856
0.000220852
0.000208083
0.000230094
0.000220856
0.000220852
0.000208083
0.000230094
0.000220856
0.000220852
0.000208083
0.000230094
0.000220856
0.000220852
0.000208083
0.000230094
0.000220856
0.000220852
0.000208083
0.000230094
0.000220856
0.000220852
0.000208083
0.000230094
0.000220856
0.000220852
0.000208083
0.000230094
0.000220856
0.000220852
0.000208083
0.000230096
0.000220854
0.000208275
0.000220895
0.000220893
0.000208277
0.000220899
0.000220888
0.000220903
0.000220893
0.000208267
0.000220898
0.000220898
0.000208269
0.000208175
0.000208267
0.000220895
0.000220893
0.000220895
0.000220893
0.000208177
0.000208271
0.000220899
0.000220889
0.000220899
0.000220888
0.000220894
0.000220903
0.000220894
0.000208168
0.000208262
0.000220899
0.000220894
0.000220898
0.000208266
0.000208169
0.000208264
0.000220894
0.000220893
0.000220891
0.00022089
0.000208172
0.000208265
0.000220899
0.000220887
0.000220897
0.000220884
0.000220892
0.000220898
0.000220889
0.000208163
0.000208254
0.000220896
0.000220892
0.000220894
0.000208259
0.000208164
0.000208194
0.000220889
0.000220888
0.000220849
0.000220848
0.000208165
0.000208196
0.000220894
0.000220879
0.000220854
0.000220836
0.000220884
0.000220854
0.000220841
0.000208151
0.000208175
0.000220888
0.000220845
0.000220845
0.000208179
0.000208078
0.00020819
0.000220843
0.000220841
0.000220847
0.000220845
0.00020808
0.000208192
0.000220847
0.000220837
0.000220851
0.000220842
0.000220841
0.000220854
0.000220847
0.000208072
0.000208186
0.000220846
0.000220851
0.000220851
0.000208189
0.000208093
0.000208183
0.000220848
0.000220847
0.000220848
0.000220847
0.000208095
0.000208185
0.000220853
0.000220843
0.000220853
0.000220842
0.000220848
0.000220855
0.000220847
0.000208087
0.000208179
0.000220852
0.000220852
0.000220852
0.000208182
0.000208084
0.000208187
0.000220849
0.000220847
0.000220848
0.000220847
0.000208087
0.000208189
0.000220853
0.000220843
0.000220853
0.000220842
0.000220848
0.000220856
0.000220848
0.000208082
0.000208181
0.000220853
0.000220853
0.000220852
0.000208183
0.000208088
0.000208187
0.000220849
0.000220848
0.000220848
0.000220847
0.00020809
0.000208189
0.000220853
0.000220843
0.000220853
0.000220843
0.000220848
0.000220856
0.000220848
0.000208083
0.000208182
0.000220853
0.000220853
0.000220852
0.000208183
0.000208088
0.000208186
0.000220849
0.000220848
0.000220848
0.000220847
0.00020809
0.000208189
0.000220853
0.000220843
0.000220853
0.000220843
0.000220848
0.000220856
0.000220848
0.000208084
0.000208182
0.000220853
0.000220853
0.000220852
0.000208184
0.000208088
0.000208186
0.000220849
0.000220848
0.000220848
0.000220847
0.00020809
0.000208188
0.000220853
0.000220843
0.000220853
0.000220842
0.000220848
0.000220856
0.000220848
0.000208084
0.000208182
0.000220853
0.000220853
0.000220852
0.000208184
0.000208088
0.000208186
0.000220849
0.000220848
0.000220848
0.000220847
0.00020809
0.000208189
0.000220853
0.000220843
0.000220853
0.000220842
0.000220848
0.000220856
0.000220848
0.000208084
0.000208182
0.000220853
0.000220853
0.000220852
0.000208184
0.000208088
0.000208186
0.000220849
0.000220848
0.000220848
0.000220847
0.00020809
0.000208188
0.000220853
0.000220843
0.000220853
0.000220842
0.000220848
0.000220856
0.000220848
0.000208084
0.000208182
0.000220853
0.000220853
0.000220852
0.000208183
0.000208088
0.000208186
0.000220849
0.000220848
0.000220848
0.000220847
0.00020809
0.000208189
0.000220853
0.000220843
0.000220853
0.000220842
0.000220848
0.000220856
0.000220848
0.000208084
0.000208181
0.000220853
0.000220853
0.000220852
0.000208183
0.000208088
0.000208186
0.000220849
0.000220848
0.000220848
0.000220847
0.00020809
0.000208188
0.000220853
0.000220843
0.000220853
0.000220842
0.000220848
0.000220856
0.000220848
0.000208083
0.000208182
0.000220853
0.000220853
0.000220852
0.000208184
0.000208088
0.000208186
0.000220849
0.000220848
0.000220848
0.000220847
0.00020809
0.000208189
0.000220853
0.000220843
0.000220853
0.000220842
0.000220848
0.000220856
0.000220848
0.000208084
0.000208182
0.000220853
0.000220853
0.000220852
0.000208184
0.000208088
0.000208186
0.000220849
0.000220848
0.000220848
0.000220847
0.00020809
0.000208188
0.000220853
0.000220843
0.000220853
0.000220842
0.000220848
0.000220856
0.000220848
0.000208084
0.000208181
0.000220853
0.000220853
0.000220852
0.000208183
0.000208088
0.000208186
0.000220849
0.000220848
0.000220848
0.000220847
0.00020809
0.000208188
0.000220853
0.000220843
0.000220853
0.000220842
0.000220848
0.000220856
0.000220848
0.000208083
0.000208182
0.000220853
0.000220853
0.000220852
0.000208184
0.000208088
0.000208186
0.000220849
0.000220848
0.00022085
0.00020809
0.000220853
0.000220843
0.000220853
0.000220843
0.000220848
0.000220849
0.000208084
0.000208181
0.000220853
0.000220852
0.000220854
0.000208188
0.000208094
0.000220854
0.000220843
0.000208084
0.000230108
0.000230108
0.000230107
0.000230107
6.07476e-05
4.73599e-05
6.07301e-05
4.73588e-05
2.60966e-05
2.60954e-05
6.07579e-05
4.73558e-05
6.07406e-05
4.73547e-05
0.000230108
0.000230107
0.000230107
0.000230108
0.000230108
0.000230106
0.000230107
0.000142962
7.31917e-05
0.000227506
0.000220903
0.000142935
7.3207e-05
0.000227507
2.60935e-05
2.60925e-05
0.000142955
0.000227504
7.31841e-05
0.000220895
0.000142927
0.000227502
7.32068e-05
4.00933e-05
4.00855e-05
0.000208269
4.01017e-05
4.00938e-05
6.07568e-05
4.7359e-05
6.07431e-05
4.73582e-05
2.60948e-05
2.60944e-05
6.07664e-05
4.7355e-05
6.07545e-05
4.7354e-05
0.000230108
0.000230106
0.000230107
0.000230106
0.000230107
0.000230104
0.000230104
0.000142976
7.31939e-05
0.000227506
0.0002209
0.000142948
7.32191e-05
0.000227505
2.60922e-05
2.60918e-05
0.000142971
0.000227503
7.31969e-05
0.000220894
0.000142939
0.000227503
7.32201e-05
4.01048e-05
4.0097e-05
0.000208265
4.01118e-05
4.01039e-05
6.07426e-05
4.7359e-05
6.07455e-05
4.73598e-05
2.60946e-05
2.60954e-05
6.07476e-05
4.73548e-05
6.0754e-05
4.73557e-05
0.000230105
0.0002301
0.000230101
0.00023008
0.00023008
0.000230081
0.000230081
0.000142931
7.31968e-05
0.0002275
0.000220889
0.000142938
7.3202e-05
0.00022749
2.60929e-05
2.60945e-05
0.000142921
0.000227497
7.31911e-05
0.000220873
0.000142927
0.000227484
7.31879e-05
4.01029e-05
4.0095e-05
0.000208223
4.00951e-05
4.00872e-05
6.06825e-05
4.73697e-05
6.06876e-05
4.7369e-05
2.60982e-05
2.6098e-05
6.06908e-05
4.73656e-05
6.06913e-05
4.73649e-05
0.000230082
0.000230085
0.000230085
0.000230092
0.000230093
0.000230093
0.000230093
0.000142845
7.31359e-05
0.000227472
0.000220849
0.000142819
7.31422e-05
0.000227476
2.60958e-05
2.60955e-05
0.000142839
0.000227471
7.3128e-05
0.000220849
0.00014281
0.000227476
7.31422e-05
4.00639e-05
4.00559e-05
0.000208186
4.00656e-05
4.00575e-05
6.06803e-05
4.73695e-05
6.06692e-05
4.73687e-05
2.60981e-05
2.60979e-05
6.0689e-05
4.73654e-05
6.06789e-05
4.73646e-05
0.000230094
0.000230094
0.000230094
0.000230094
0.000230094
0.000230093
0.000230093
0.000142846
7.31163e-05
0.00022748
0.000220855
0.000142818
7.3137e-05
0.00022748
2.60957e-05
2.60954e-05
0.000142841
0.00022748
7.31206e-05
0.000220852
0.00014281
0.000227479
7.31406e-05
4.00614e-05
4.00536e-05
0.000208183
4.00655e-05
4.00575e-05
6.06803e-05
4.73694e-05
6.06691e-05
4.73687e-05
2.60981e-05
2.60979e-05
6.0689e-05
4.73653e-05
6.06789e-05
4.73646e-05
0.000230094
0.000230093
0.000230094
0.000230094
0.000230094
0.000230093
0.000230094
0.000142846
7.31161e-05
0.00022748
0.000220856
0.000142817
7.31371e-05
0.000227481
2.60957e-05
2.60954e-05
0.00014284
0.00022748
7.31205e-05
0.000220853
0.00014281
0.00022748
7.31406e-05
4.00615e-05
4.00537e-05
0.000208186
4.00655e-05
4.00576e-05
6.06804e-05
4.73694e-05
6.06691e-05
4.73687e-05
2.60981e-05
2.60979e-05
6.0689e-05
4.73653e-05
6.0679e-05
4.73646e-05
0.000230094
0.000230093
0.000230094
0.000230094
0.000230094
0.000230093
0.000230094
0.000142846
7.31161e-05
0.00022748
0.000220856
0.000142817
7.31371e-05
0.000227481
2.60957e-05
2.60954e-05
0.000142839
0.00022748
7.31205e-05
0.000220853
0.00014281
0.00022748
7.31406e-05
4.00615e-05
4.00536e-05
0.000208185
4.00655e-05
4.00575e-05
6.06804e-05
4.73694e-05
6.06691e-05
4.73687e-05
2.60981e-05
2.60979e-05
6.0689e-05
4.73653e-05
6.0679e-05
4.73646e-05
0.000230094
0.000230094
0.000230094
0.000230094
0.000230094
0.000230093
0.000230094
0.000142846
7.31161e-05
0.000227481
0.000220856
0.000142817
7.31371e-05
0.000227481
2.60957e-05
2.60954e-05
0.00014284
0.00022748
7.31204e-05
0.000220853
0.000142811
0.00022748
7.31405e-05
4.00615e-05
4.00536e-05
0.000208185
4.00655e-05
4.00575e-05
6.06803e-05
4.73694e-05
6.06691e-05
4.73687e-05
2.60981e-05
2.60979e-05
6.0689e-05
4.73653e-05
6.06789e-05
4.73646e-05
0.000230094
0.000230094
0.000230094
0.000230094
0.000230094
0.000230093
0.000230094
0.000142846
7.31161e-05
0.00022748
0.000220856
0.000142817
7.31371e-05
0.00022748
2.60957e-05
2.60954e-05
0.00014284
0.00022748
7.31204e-05
0.000220853
0.000142812
0.00022748
7.31405e-05
4.00615e-05
4.00536e-05
0.000208185
4.00655e-05
4.00575e-05
6.06804e-05
4.73694e-05
6.06691e-05
4.73687e-05
2.60981e-05
2.60979e-05
6.0689e-05
4.73653e-05
6.06789e-05
4.73646e-05
0.000230094
0.000230093
0.000230094
0.000230094
0.000230094
0.000230093
0.000230094
0.000142846
7.31161e-05
0.000227481
0.000220856
0.000142817
7.31371e-05
0.000227481
2.60957e-05
2.60954e-05
0.000142837
0.00022748
7.31204e-05
0.000220853
0.00014281
0.00022748
7.31405e-05
4.00616e-05
4.00536e-05
0.000208185
4.00655e-05
4.00575e-05
6.06803e-05
4.73694e-05
6.06691e-05
4.73687e-05
2.60981e-05
2.60979e-05
6.0689e-05
4.73653e-05
6.06789e-05
4.73646e-05
0.000230094
0.000230093
0.000230094
0.000230094
0.000230094
0.000230093
0.000230094
0.000142846
7.31161e-05
0.000227481
0.000220856
0.000142817
7.31371e-05
0.000227481
2.60957e-05
2.60954e-05
0.000142835
0.00022748
7.31204e-05
0.000220853
0.000142807
0.00022748
7.31405e-05
4.00615e-05
4.00536e-05
0.000208185
4.00655e-05
4.00575e-05
6.06804e-05
4.73694e-05
6.06691e-05
4.73687e-05
2.60981e-05
2.60979e-05
6.0689e-05
4.73653e-05
6.06789e-05
4.73646e-05
0.000230094
0.000230093
0.000230094
0.000230094
0.000230094
0.000230093
0.000230094
0.000142846
7.31161e-05
0.000227481
0.000220856
0.000142817
7.31371e-05
0.000227481
2.60957e-05
2.60954e-05
0.000142833
0.00022748
7.31204e-05
0.000220853
0.000142806
0.00022748
7.31405e-05
4.00615e-05
4.00536e-05
0.000208185
4.00655e-05
4.00575e-05
6.06804e-05
4.73694e-05
6.06691e-05
4.73687e-05
2.60981e-05
2.60979e-05
6.0689e-05
4.73653e-05
6.06789e-05
4.73646e-05
0.000230094
0.000230093
0.000230094
0.000230094
0.000230094
0.000230093
0.000230094
0.000142846
7.31161e-05
0.000227481
0.000220856
0.000142817
7.31371e-05
0.000227481
2.60957e-05
2.60954e-05
0.000142833
0.00022748
7.31204e-05
0.000220853
0.000142804
0.00022748
7.31405e-05
4.00615e-05
4.00536e-05
0.000208185
4.00655e-05
4.00575e-05
6.06804e-05
4.73694e-05
6.06691e-05
4.73687e-05
2.60981e-05
2.60979e-05
6.0689e-05
4.73653e-05
6.06789e-05
4.73646e-05
0.000230094
0.000230093
0.000230094
0.000230094
0.000230094
0.000230093
0.000230094
0.000142846
7.31161e-05
0.000227481
0.000220856
0.000142817
7.31371e-05
0.000227481
2.60957e-05
2.60954e-05
0.000142833
0.00022748
7.31204e-05
0.000220853
0.000142804
0.00022748
7.31405e-05
4.00616e-05
4.00536e-05
0.000208185
4.00655e-05
4.00575e-05
6.06804e-05
4.73694e-05
6.06691e-05
4.73687e-05
2.60981e-05
2.60979e-05
6.0689e-05
4.73653e-05
6.06789e-05
4.73646e-05
0.000230094
0.000230093
0.000230094
0.000230094
0.000230094
0.000230093
0.000230094
0.000142846
7.31161e-05
0.00022748
0.000220856
0.000142817
7.31371e-05
0.000227481
2.60957e-05
2.60954e-05
0.000142833
0.00022748
7.31204e-05
0.000220852
0.000142804
0.00022748
7.31405e-05
4.00615e-05
4.00536e-05
0.000208185
4.00655e-05
4.00575e-05
6.06803e-05
4.73694e-05
6.06691e-05
4.73687e-05
2.60981e-05
2.60979e-05
6.0689e-05
4.73653e-05
6.06789e-05
4.73646e-05
0.000230094
0.000230093
0.000230094
0.000230094
0.000230094
0.000230093
0.000230094
0.000142846
7.31161e-05
0.000227481
0.000220856
0.000142818
7.31371e-05
0.000227481
2.60957e-05
2.60954e-05
0.000142833
0.000227479
7.31204e-05
0.000220853
0.000142805
0.00022748
7.31405e-05
4.00615e-05
4.00536e-05
0.000208185
4.00655e-05
4.00574e-05
6.06803e-05
4.73694e-05
6.06691e-05
4.73687e-05
2.60981e-05
2.60979e-05
6.0689e-05
4.73653e-05
6.06789e-05
4.73646e-05
0.000230094
0.000230093
0.000230094
0.000230094
0.000230097
0.000230093
0.000230094
0.000142846
7.31161e-05
0.000227481
0.000220856
0.000142817
7.31371e-05
0.000227481
2.60957e-05
2.60954e-05
0.000142833
0.000227479
7.31204e-05
0.000220852
0.000142804
0.00022748
7.31405e-05
4.00615e-05
4.00535e-05
0.000208185
4.00655e-05
4.00575e-05
4.73653e-05
6.06789e-05
0.000230095
2.60957e-05
7.3123e-05
2.60977e-05
2.6096e-05
4.00951e-05
4.00857e-05
4.73593e-05
6.07378e-05
4.7359e-05
6.07383e-05
7.3216e-05
0.000227506
0.000142974
7.32127e-05
0.000227505
0.000142975
2.60968e-05
4.00873e-05
4.00862e-05
2.60973e-05
4.73552e-05
6.0747e-05
7.32044e-05
0.000227506
0.000142984
6.07211e-05
4.73534e-05
4.73546e-05
6.07465e-05
0.000142944
0.000220888
0.000227504
7.31928e-05
0.000227504
7.31702e-05
0.000142969
0.000142943
7.32145e-05
0.000227506
0.000227507
0.000142965
6.07133e-05
4.73577e-05
6.07408e-05
0.000142942
0.000220893
0.000227505
7.32047e-05
0.000227505
7.31887e-05
0.000142966
6.07128e-05
4.73563e-05
4.73574e-05
6.07404e-05
2.60935e-05
2.60953e-05
0.000208168
4.00779e-05
4.00955e-05
4.00664e-05
4.00845e-05
2.6096e-05
2.60977e-05
0.000142934
0.000220898
0.000227505
7.32056e-05
0.000227505
7.319e-05
0.000142958
0.000142943
0.000220898
0.000227505
7.32e-05
0.000227505
7.31832e-05
0.000142966
6.07118e-05
4.73561e-05
4.73572e-05
6.07396e-05
6.07199e-05
4.73558e-05
4.73568e-05
6.07454e-05
0.000208172
4.00955e-05
4.00875e-05
4.00844e-05
4.00767e-05
2.60958e-05
2.60975e-05
2.60949e-05
2.60966e-05
2.60976e-05
2.60964e-05
2.60958e-05
2.60947e-05
4.00939e-05
4.00845e-05
0.000208269
4.01011e-05
4.00917e-05
2.60957e-05
2.60964e-05
2.6094e-05
2.60947e-05
0.00020817
4.01072e-05
4.00979e-05
4.01004e-05
4.00909e-05
6.07475e-05
4.73593e-05
6.0733e-05
4.73587e-05
0.000142968
7.31968e-05
0.000227506
0.000220895
0.00014295
7.32092e-05
0.000227506
0.000142969
7.31932e-05
0.000227505
0.000220893
0.00014295
7.32051e-05
0.000227505
6.07412e-05
4.73584e-05
4.7359e-05
6.07529e-05
6.0741e-05
4.73582e-05
4.73589e-05
6.07527e-05
0.000142943
0.000220895
7.32162e-05
0.000227506
7.31939e-05
0.000227506
0.00014297
0.000142944
0.000220894
7.32119e-05
0.000227505
7.31891e-05
0.000227506
0.000142971
4.00865e-05
4.0085e-05
0.000208272
4.00934e-05
4.00914e-05
2.60972e-05
2.6096e-05
2.60948e-05
2.60954e-05
0.000208173
4.00994e-05
4.00972e-05
4.00927e-05
4.00905e-05
2.60952e-05
2.60961e-05
0.00014298
7.3184e-05
0.000227506
0.000220899
0.000142962
7.31961e-05
0.000227506
6.07536e-05
4.73537e-05
6.07417e-05
4.7353e-05
0.000142968
0.000227504
7.31741e-05
0.000220889
0.000142946
0.000227504
7.3192e-05
6.07527e-05
4.73543e-05
4.73549e-05
6.07633e-05
0.000142954
0.000220899
7.32038e-05
0.000227506
7.31795e-05
0.000227506
0.000142982
6.07482e-05
4.73526e-05
4.73532e-05
6.07588e-05
0.000142948
0.000220889
0.000227504
7.31984e-05
0.000227504
7.31758e-05
0.000142978
6.07472e-05
4.73581e-05
6.07347e-05
4.73575e-05
0.000142964
0.000227506
7.31867e-05
0.000220894
0.000142942
0.000227505
7.3206e-05
6.0747e-05
4.73565e-05
6.07343e-05
4.73559e-05
0.000142942
0.000220903
7.32126e-05
0.000227506
7.31899e-05
0.000227506
0.000142973
6.07404e-05
4.73571e-05
4.73577e-05
6.07521e-05
0.000142944
0.000220894
0.000227505
7.32146e-05
0.000227505
7.31916e-05
0.000142974
6.07401e-05
4.73555e-05
4.73561e-05
6.07517e-05
4.00767e-05
4.00946e-05
0.000208264
4.00839e-05
4.01018e-05
2.60959e-05
2.60951e-05
2.6092e-05
2.60926e-05
0.000208165
4.00894e-05
4.01075e-05
4.00823e-05
4.01007e-05
2.60946e-05
2.60951e-05
0.000142964
0.000227505
7.31818e-05
0.000220899
0.000142942
0.000227505
7.32009e-05
6.0746e-05
4.73563e-05
6.07333e-05
4.73557e-05
6.07524e-05
4.7356e-05
6.07406e-05
4.73553e-05
0.000142934
0.000220894
0.000227502
7.32153e-05
0.000227502
7.31925e-05
0.000142965
0.000142944
0.000220899
0.000227504
7.32094e-05
0.000227505
7.31862e-05
0.000142975
6.0739e-05
4.73552e-05
4.73558e-05
6.07508e-05
6.07469e-05
4.73549e-05
4.73555e-05
6.07575e-05
2.60958e-05
2.60949e-05
2.60949e-05
2.6094e-05
0.00020817
4.01075e-05
4.00996e-05
4.01007e-05
4.00928e-05
2.60944e-05
2.60949e-05
2.60935e-05
2.6094e-05
2.60957e-05
2.60953e-05
2.6094e-05
2.60936e-05
4.01065e-05
4.00971e-05
0.000208266
4.01126e-05
4.01032e-05
2.60953e-05
2.60955e-05
2.60936e-05
2.60937e-05
0.000208168
4.01156e-05
4.0106e-05
4.01113e-05
4.01018e-05
6.07564e-05
4.73584e-05
6.07458e-05
4.73579e-05
0.000142981
7.32021e-05
0.000227504
0.000220894
0.000142951
7.32231e-05
0.000227504
0.000142981
7.31974e-05
0.000227504
0.000220892
0.000142951
7.32189e-05
0.000227504
6.07494e-05
4.73581e-05
4.73584e-05
6.07578e-05
6.07488e-05
4.73579e-05
4.73582e-05
6.07573e-05
0.000142958
0.000220893
7.3225e-05
0.000227504
7.32078e-05
0.000227504
0.000142978
0.00014296
0.000220891
7.32207e-05
0.000227504
7.32031e-05
0.000227505
0.000142979
4.00987e-05
4.00961e-05
0.000208268
4.01047e-05
4.01021e-05
2.60954e-05
2.60949e-05
2.60943e-05
2.60945e-05
0.000208169
4.01076e-05
4.01051e-05
4.01033e-05
4.01002e-05
2.60949e-05
2.60951e-05
0.000142985
7.31885e-05
0.000227507
0.000220899
0.000142962
7.32108e-05
0.000227506
6.0762e-05
4.73529e-05
6.07531e-05
4.73525e-05
0.000142983
0.000227504
7.31823e-05
0.000220886
0.000142958
0.000227504
7.32029e-05
6.07599e-05
4.73539e-05
4.73543e-05
6.07659e-05
0.000142958
0.000220898
7.32125e-05
0.000227505
7.31943e-05
0.000227506
0.000142977
6.07556e-05
4.73529e-05
4.73528e-05
6.07594e-05
0.000142955
0.000220886
0.000227501
7.31985e-05
0.000227503
7.31857e-05
0.000142972
6.07545e-05
4.73573e-05
6.0745e-05
4.73568e-05
0.000142977
0.000227505
7.31996e-05
0.000220891
0.000142955
0.000227505
7.32195e-05
6.07541e-05
4.73557e-05
6.07446e-05
4.73553e-05
0.000142954
0.000220899
7.32197e-05
0.000227503
7.32025e-05
0.000227505
0.000142971
6.0747e-05
4.73566e-05
4.73571e-05
6.07514e-05
0.000142951
0.000220891
0.000227502
7.32151e-05
0.000227504
7.32034e-05
0.000142967
6.07464e-05
4.73557e-05
4.73556e-05
6.07505e-05
4.00873e-05
4.01062e-05
0.00020826
4.00935e-05
4.01118e-05
2.60947e-05
2.60943e-05
2.60923e-05
2.60921e-05
0.000208161
4.00918e-05
4.01102e-05
4.0091e-05
4.01103e-05
2.60947e-05
2.60945e-05
0.000142978
0.000227504
7.31942e-05
0.000220896
0.000142955
0.000227504
7.32142e-05
6.07533e-05
4.73555e-05
6.07435e-05
4.7355e-05
6.07602e-05
4.73551e-05
6.07517e-05
4.73547e-05
0.000142943
0.000220894
0.000227501
7.3216e-05
0.000227503
7.32042e-05
0.000142961
0.000142951
0.000220896
0.000227501
7.32099e-05
0.000227503
7.31979e-05
0.000142967
6.07454e-05
4.73554e-05
4.73553e-05
6.07497e-05
6.07537e-05
4.73551e-05
4.7355e-05
6.07565e-05
2.60945e-05
2.60942e-05
2.60936e-05
2.60933e-05
0.000208167
4.01101e-05
4.01021e-05
4.01103e-05
4.01024e-05
2.60945e-05
2.60943e-05
2.60936e-05
2.60935e-05
2.60956e-05
2.60964e-05
2.60939e-05
2.60947e-05
4.01125e-05
4.01027e-05
0.000208247
4.01065e-05
4.00968e-05
2.6099e-05
2.60975e-05
2.60972e-05
2.60958e-05
0.000208132
4.00858e-05
4.00764e-05
4.00994e-05
4.00897e-05
6.07432e-05
4.73582e-05
6.07483e-05
4.73592e-05
0.00014296
7.32072e-05
0.000227502
0.000220884
0.000142949
7.32094e-05
0.000227498
0.000142961
7.32025e-05
0.000227502
0.000220882
0.00014295
7.32054e-05
0.000227498
6.07257e-05
4.73679e-05
4.7362e-05
6.07059e-05
6.07264e-05
4.73671e-05
4.73613e-05
6.07066e-05
0.000142922
0.000220868
7.31721e-05
0.000227471
7.31845e-05
0.000227484
0.000142879
0.000142923
0.000220867
7.31683e-05
0.00022747
7.31801e-05
0.000227483
0.00014288
4.01043e-05
4.0101e-05
0.000208249
4.00984e-05
4.00964e-05
2.60953e-05
2.60961e-05
2.60979e-05
2.60965e-05
0.000208134
4.00777e-05
4.00747e-05
4.00912e-05
4.00879e-05
2.60985e-05
2.60972e-05
0.000142956
7.31932e-05
0.000227502
0.000220889
0.000142949
7.31965e-05
0.000227496
6.07348e-05
4.73536e-05
6.07485e-05
4.73571e-05
0.00014294
0.000227498
7.3176e-05
0.000220863
0.000142941
0.000227486
7.31708e-05
6.07311e-05
4.73637e-05
4.7358e-05
6.07081e-05
0.000142912
0.000220872
7.31595e-05
0.000227469
7.31704e-05
0.000227479
0.000142869
6.0718e-05
4.73632e-05
4.73607e-05
6.06972e-05
0.00014289
0.000220844
0.000227468
7.31356e-05
0.000227472
7.31431e-05
0.000142855
6.07245e-05
4.7357e-05
6.07387e-05
4.7358e-05
0.000142927
0.000227498
7.31935e-05
0.000220868
0.000142937
0.000227484
7.31868e-05
6.07234e-05
4.73562e-05
6.07377e-05
4.73599e-05
0.00014288
0.00022087
7.31644e-05
0.000227471
7.31754e-05
0.000227474
0.000142851
6.07069e-05
4.73658e-05
4.73603e-05
6.06888e-05
0.000142875
0.000220849
0.000227469
7.31519e-05
0.000227471
7.31598e-05
0.000142848
6.07057e-05
4.73659e-05
4.73634e-05
6.06879e-05
4.00853e-05
4.01045e-05
0.000208219
4.00763e-05
4.00953e-05
2.60951e-05
2.60969e-05
2.60956e-05
2.60955e-05
0.000208095
4.00519e-05
4.00702e-05
4.00679e-05
4.00875e-05
2.6098e-05
2.60979e-05
0.000142927
0.000227497
7.3188e-05
0.000220872
0.000142936
0.000227482
7.31815e-05
6.07226e-05
4.7356e-05
6.07367e-05
4.73597e-05
6.07293e-05
4.73557e-05
6.07448e-05
4.73594e-05
0.000142868
0.000220854
0.000227468
7.31526e-05
0.00022747
7.3161e-05
0.000142843
0.000142874
0.000220853
0.000227468
7.31466e-05
0.00022747
7.31544e-05
0.000142848
6.07047e-05
4.73657e-05
4.73632e-05
6.06871e-05
6.07121e-05
4.73654e-05
4.7363e-05
6.0693e-05
2.6095e-05
2.60968e-05
2.60941e-05
2.60959e-05
0.0002081
4.00703e-05
4.00622e-05
4.00872e-05
4.00794e-05
2.60978e-05
2.60977e-05
2.60969e-05
2.60969e-05
2.60992e-05
2.6099e-05
2.60974e-05
2.60972e-05
4.00776e-05
4.00682e-05
0.000208179
4.00673e-05
4.0058e-05
2.60989e-05
2.60991e-05
2.60972e-05
2.60974e-05
0.000208084
4.00667e-05
4.00574e-05
4.00645e-05
4.00551e-05
6.06834e-05
4.7369e-05
6.06901e-05
4.73686e-05
0.000142845
7.31466e-05
0.000227469
0.000220843
0.000142836
7.31482e-05
0.000227472
0.000142846
7.31424e-05
0.000227469
0.000220841
0.000142837
7.31444e-05
0.000227472
6.06734e-05
4.73688e-05
4.73693e-05
6.06804e-05
6.06741e-05
4.73685e-05
4.73688e-05
6.06811e-05
0.000142822
0.000220845
7.31436e-05
0.000227479
7.31298e-05
0.000227476
0.000142845
0.000142823
0.000220843
7.31396e-05
0.000227479
7.31254e-05
0.000227476
0.000142847
4.00699e-05
4.00678e-05
0.000208181
4.00592e-05
4.00568e-05
2.60988e-05
2.60986e-05
2.60979e-05
2.60981e-05
0.000208086
4.00586e-05
4.00548e-05
4.00562e-05
4.00526e-05
2.60985e-05
2.60988e-05
0.000142847
7.31331e-05
0.000227469
0.000220847
0.000142831
7.31354e-05
0.000227472
6.06876e-05
4.73635e-05
6.06852e-05
4.73629e-05
0.000142846
0.00022747
7.31129e-05
0.000220839
0.000142823
0.000227474
7.31242e-05
6.0683e-05
4.73647e-05
4.73652e-05
6.0689e-05
0.000142824
0.000220849
7.31309e-05
0.000227479
7.31158e-05
0.000227476
0.000142848
6.06801e-05
4.73628e-05
4.73632e-05
6.06866e-05
0.000142823
0.000220841
0.000227478
7.31224e-05
0.000227477
7.31057e-05
0.000142847
6.06805e-05
4.73679e-05
6.06764e-05
4.73675e-05
0.000142845
0.000227472
7.31306e-05
0.000220844
0.000142822
0.000227476
7.31414e-05
6.06801e-05
4.73662e-05
6.06757e-05
4.73657e-05
0.000142823
0.000220852
7.31376e-05
0.00022748
7.31228e-05
0.000227479
0.000142844
6.0672e-05
4.73673e-05
4.73678e-05
6.06799e-05
0.000142823
0.000220846
0.00022748
7.31396e-05
0.000227479
7.31239e-05
0.000142845
6.06716e-05
4.73656e-05
4.7366e-05
6.06795e-05
4.00461e-05
4.00649e-05
0.000208181
4.00455e-05
4.00655e-05
2.60981e-05
2.60979e-05
2.60954e-05
2.60957e-05
0.000208086
4.00457e-05
4.00655e-05
4.00421e-05
4.00629e-05
2.60979e-05
2.6098e-05
0.000142845
0.000227471
7.31251e-05
0.000220849
0.000142822
0.000227475
7.31361e-05
6.06793e-05
4.73659e-05
6.06748e-05
4.73655e-05
6.06863e-05
4.73657e-05
6.06824e-05
4.73652e-05
0.000142815
0.000220851
0.00022748
7.31406e-05
0.000227479
7.31249e-05
0.000142838
0.000142823
0.00022085
0.000227479
7.31343e-05
0.000227478
7.31184e-05
0.000142846
6.06707e-05
4.73654e-05
4.73657e-05
6.06793e-05
6.0679e-05
4.73651e-05
4.73655e-05
6.06858e-05
2.60979e-05
2.60977e-05
2.60971e-05
2.60968e-05
0.00020809
4.00654e-05
4.00575e-05
4.00628e-05
4.00549e-05
2.60977e-05
2.60979e-05
2.60968e-05
2.6097e-05
2.60991e-05
2.60989e-05
2.60973e-05
2.60971e-05
4.00643e-05
4.00549e-05
0.000208189
4.00668e-05
4.00575e-05
2.60989e-05
2.6099e-05
2.60971e-05
2.60973e-05
0.000208088
4.00669e-05
4.00576e-05
4.00644e-05
4.0055e-05
6.0681e-05
4.73687e-05
6.06728e-05
4.73684e-05
0.000142846
7.31269e-05
0.00022748
0.000220848
0.000142823
7.31431e-05
0.00022748
0.000142848
7.31225e-05
0.00022748
0.000220847
0.000142824
7.31391e-05
0.00022748
6.06722e-05
4.73687e-05
4.7369e-05
6.06803e-05
6.06728e-05
4.73684e-05
4.73687e-05
6.06809e-05
0.000142823
0.000220849
7.3143e-05
0.00022748
7.31267e-05
0.000227481
0.000142845
0.000142824
0.000220847
7.31389e-05
0.00022748
7.31222e-05
0.000227481
0.000142847
4.00561e-05
4.00516e-05
0.000208191
4.00587e-05
4.00552e-05
2.60987e-05
2.60985e-05
2.60979e-05
2.60981e-05
0.00020809
4.00588e-05
4.00555e-05
4.00562e-05
4.0052e-05
2.60985e-05
2.60987e-05
0.000142849
7.3113e-05
0.00022748
0.000220853
0.000142825
7.31304e-05
0.00022748
6.06866e-05
4.73631e-05
6.06796e-05
4.73627e-05
0.000142847
0.000227479
7.31047e-05
0.000220843
0.000142824
0.000227479
7.31224e-05
6.0682e-05
4.73646e-05
4.73649e-05
6.06889e-05
0.000142826
0.000220853
7.31304e-05
0.00022748
7.31128e-05
0.000227481
0.000142848
6.06797e-05
4.73627e-05
4.73631e-05
6.06867e-05
0.000142824
0.000220843
0.000227478
7.31222e-05
0.000227479
7.31047e-05
0.000142846
6.06799e-05
4.73676e-05
6.06717e-05
4.73672e-05
0.000142845
0.00022748
7.31229e-05
0.000220848
0.000142823
0.00022748
7.31395e-05
6.06795e-05
4.73659e-05
6.06713e-05
4.73656e-05
0.000142824
0.000220855
7.3137e-05
0.00022748
7.31195e-05
0.00022748
0.000142844
6.06718e-05
4.73672e-05
4.73675e-05
6.06799e-05
0.000142823
0.000220848
0.00022748
7.31394e-05
0.00022748
7.31228e-05
0.000142845
6.06713e-05
4.73656e-05
4.73658e-05
6.06795e-05
4.00424e-05
4.0063e-05
0.00020818
4.00459e-05
4.00656e-05
2.6098e-05
2.60978e-05
2.60954e-05
2.60957e-05
0.000208081
4.00459e-05
4.00656e-05
4.00424e-05
4.0063e-05
2.60978e-05
2.6098e-05
0.000142847
0.00022748
7.31174e-05
0.000220852
0.000142823
0.00022748
7.31343e-05
6.06795e-05
4.73657e-05
6.06711e-05
4.73653e-05
6.06862e-05
4.73654e-05
6.06789e-05
4.73651e-05
0.000142817
0.000220852
0.000227479
7.31405e-05
0.000227479
7.3124e-05
0.000142838
0.000142825
0.000220852
0.000227479
7.31342e-05
0.00022748
7.31174e-05
0.000142846
6.06711e-05
4.73653e-05
4.73656e-05
6.06795e-05
6.06795e-05
4.7365e-05
4.73653e-05
6.06866e-05
2.60978e-05
2.60977e-05
2.6097e-05
2.60968e-05
0.000208084
4.00655e-05
4.00576e-05
4.00628e-05
4.0055e-05
2.60977e-05
2.60978e-05
2.60968e-05
2.6097e-05
2.6099e-05
2.60989e-05
2.60973e-05
2.60971e-05
4.00645e-05
4.00551e-05
0.000208185
4.00669e-05
4.00576e-05
2.60989e-05
2.6099e-05
2.60971e-05
2.60973e-05
0.000208088
4.00669e-05
4.00576e-05
4.00645e-05
4.00551e-05
6.0681e-05
4.73687e-05
6.06728e-05
4.73684e-05
0.000142846
7.31266e-05
0.00022748
0.000220849
0.000142823
7.31431e-05
0.00022748
0.000142847
7.31221e-05
0.00022748
0.000220847
0.000142824
7.3139e-05
0.00022748
6.06722e-05
4.73687e-05
4.7369e-05
6.06803e-05
6.06728e-05
4.73684e-05
4.73687e-05
6.06809e-05
0.000142823
0.000220849
7.3143e-05
0.00022748
7.31267e-05
0.000227481
0.000142846
0.000142824
0.000220848
7.31389e-05
0.00022748
7.31222e-05
0.00022748
0.000142847
4.00562e-05
4.00523e-05
0.000208187
4.00588e-05
4.00554e-05
2.60987e-05
2.60985e-05
2.60979e-05
2.60981e-05
0.00020809
4.00588e-05
4.00553e-05
4.00562e-05
4.00521e-05
2.60985e-05
2.60987e-05
0.000142848
7.31126e-05
0.00022748
0.000220853
0.000142825
7.31304e-05
0.00022748
6.06867e-05
4.73631e-05
6.06797e-05
4.73627e-05
0.000142847
0.000227479
7.31046e-05
0.000220843
0.000142823
0.000227479
7.31223e-05
6.06821e-05
4.73646e-05
4.73649e-05
6.0689e-05
0.000142825
0.000220853
7.31304e-05
0.000227481
7.31128e-05
0.000227481
0.000142848
6.06798e-05
4.73627e-05
4.73631e-05
6.06867e-05
0.000142824
0.000220843
0.000227479
7.31222e-05
0.000227479
7.31047e-05
0.000142847
6.06799e-05
4.73675e-05
6.06717e-05
4.73672e-05
0.000142845
0.00022748
7.31228e-05
0.000220848
0.000142822
0.00022748
7.31395e-05
6.06795e-05
4.73658e-05
6.06713e-05
4.73656e-05
0.000142824
0.000220856
7.3137e-05
0.000227481
7.31196e-05
0.000227481
0.000142844
6.06718e-05
4.73672e-05
4.73675e-05
6.068e-05
0.000142824
0.000220848
0.00022748
7.31394e-05
0.000227481
7.31228e-05
0.000142845
6.06714e-05
4.73656e-05
4.73658e-05
6.06795e-05
4.00425e-05
4.00631e-05
0.000208181
4.00459e-05
4.00656e-05
2.6098e-05
2.60978e-05
2.60954e-05
2.60957e-05
0.000208083
4.00459e-05
4.00656e-05
4.00425e-05
4.0063e-05
2.60978e-05
2.6098e-05
0.000142847
0.00022748
7.31173e-05
0.000220853
0.000142823