/*--------------------------------*- C++ -*----------------------------------*\
| =========                 |                                                 |
| \\      /  F ield         | OpenFOAM: The Open Source CFD Toolbox           |
|  \\    /   O peration     | Version:  2206                                  |
|   \\  /    A nd           | Website:  www.openfoam.com                      |
|    \\/     M anipulation  |                                                 |
\*---------------------------------------------------------------------------*/
FoamFile
{
    version     2.0;
    format      ascii;
    arch        "LSB;label=32;scalar=64";
    class       volScalarField;
    location    "28";
    object      k;
}
// * * * * * * * * * * * * * * * * * * * * * * * * * * * * * * * * * * * * * //

dimensions      [0 2 -2 0 0 0 0];

internalField   nonuniform List<scalar> 
28688
(
3.58938e-05
3.58912e-05
3.58913e-05
3.59956e-05
3.39318e-05
3.38898e-05
3.38898e-05
3.39623e-05
3.21559e-05
3.20058e-05
3.20058e-05
3.19515e-05
3.05224e-05
3.02225e-05
3.02224e-05
2.99914e-05
2.90711e-05
2.85852e-05
2.85851e-05
2.81376e-05
2.75273e-05
2.68786e-05
2.68784e-05
2.63582e-05
2.65805e-05
2.58909e-05
2.58908e-05
2.51689e-05
2.64172e-05
2.58493e-05
2.58492e-05
2.52334e-05
2.64093e-05
2.58685e-05
2.58684e-05
2.52828e-05
2.64096e-05
2.58706e-05
2.58705e-05
2.52873e-05
2.64097e-05
2.5871e-05
2.58709e-05
2.52878e-05
2.64097e-05
2.58712e-05
2.58711e-05
2.52879e-05
3.63069e-05
3.62909e-05
3.62909e-05
3.63069e-05
3.62909e-05
3.62909e-05
3.64228e-05
3.64228e-05
3.64228e-05
3.64228e-05
3.62909e-05
3.62909e-05
3.63069e-05
3.62909e-05
3.62909e-05
3.63069e-05
3.59956e-05
3.42683e-05
3.58913e-05
3.58913e-05
3.43759e-05
3.43759e-05
3.59956e-05
3.42683e-05
3.58912e-05
3.58913e-05
3.43759e-05
3.43759e-05
3.58913e-05
3.4376e-05
3.43759e-05
3.59956e-05
3.42683e-05
3.58913e-05
3.4376e-05
3.43759e-05
3.42683e-05
3.39623e-05
3.22615e-05
3.38898e-05
3.38897e-05
3.24652e-05
3.24651e-05
3.39623e-05
3.22616e-05
3.38898e-05
3.38897e-05
3.24652e-05
3.2465e-05
3.38898e-05
3.24653e-05
3.24651e-05
3.39623e-05
3.22615e-05
3.38898e-05
3.24653e-05
3.24652e-05
3.22615e-05
3.19515e-05
3.02999e-05
3.20057e-05
3.20056e-05
3.06676e-05
3.06674e-05
3.19515e-05
3.03001e-05
3.20057e-05
3.20055e-05
3.06677e-05
3.06673e-05
3.20056e-05
3.06678e-05
3.06675e-05
3.19515e-05
3.02999e-05
3.20057e-05
3.06678e-05
3.06676e-05
3.02998e-05
2.99914e-05
2.84242e-05
3.02222e-05
3.0222e-05
2.89718e-05
2.89716e-05
2.99915e-05
2.84244e-05
3.02223e-05
3.02219e-05
2.8972e-05
2.89715e-05
3.02221e-05
2.89722e-05
2.89717e-05
2.99913e-05
2.84241e-05
3.02223e-05
2.89721e-05
2.89719e-05
2.84241e-05
2.81377e-05
2.66447e-05
2.85848e-05
2.85846e-05
2.73189e-05
2.73187e-05
2.81378e-05
2.66449e-05
2.8585e-05
2.85845e-05
2.73192e-05
2.73185e-05
2.85847e-05
2.73195e-05
2.73188e-05
2.81376e-05
2.66445e-05
2.8585e-05
2.73194e-05
2.73192e-05
2.66445e-05
2.63583e-05
2.52301e-05
2.6878e-05
2.68777e-05
2.59965e-05
2.59962e-05
2.63584e-05
2.52302e-05
2.68783e-05
2.68776e-05
2.59968e-05
2.59961e-05
2.68779e-05
2.59971e-05
2.59964e-05
2.63582e-05
2.52299e-05
2.68783e-05
2.59969e-05
2.59968e-05
2.52298e-05
2.51692e-05
2.52277e-05
2.58905e-05
2.58902e-05
2.58421e-05
2.5842e-05
2.51693e-05
2.52278e-05
2.58908e-05
2.58901e-05
2.58424e-05
2.58418e-05
2.58904e-05
2.58426e-05
2.58421e-05
2.51691e-05
2.52275e-05
2.58908e-05
2.58424e-05
2.58424e-05
2.52274e-05
2.52337e-05
2.52857e-05
2.58491e-05
2.5849e-05
2.58664e-05
2.58663e-05
2.52338e-05
2.52857e-05
2.58494e-05
2.58488e-05
2.58667e-05
2.5866e-05
2.5849e-05
2.58668e-05
2.58664e-05
2.52335e-05
2.52854e-05
2.58494e-05
2.58667e-05
2.58668e-05
2.52857e-05
2.52829e-05
2.52909e-05
2.58682e-05
2.58681e-05
2.587e-05
2.58699e-05
2.52829e-05
2.52909e-05
2.58686e-05
2.58679e-05
2.58703e-05
2.58697e-05
2.58682e-05
2.58704e-05
2.587e-05
2.52826e-05
2.52906e-05
2.58686e-05
2.58703e-05
2.58704e-05
2.5291e-05
2.52874e-05
2.52917e-05
2.58702e-05
2.58702e-05
2.58705e-05
2.58705e-05
2.52874e-05
2.52916e-05
2.58706e-05
2.58699e-05
2.58709e-05
2.58702e-05
2.58703e-05
2.58709e-05
2.58706e-05
2.52872e-05
2.52914e-05
2.58707e-05
2.58708e-05
2.5871e-05
2.52917e-05
2.52881e-05
2.52918e-05
2.58707e-05
2.58706e-05
2.58708e-05
2.58707e-05
2.5288e-05
2.52917e-05
2.58711e-05
2.58704e-05
2.58712e-05
2.58705e-05
2.58707e-05
2.58712e-05
2.58709e-05
2.52877e-05
2.52915e-05
2.58711e-05
2.5871e-05
2.58712e-05
2.52919e-05
2.52882e-05
2.5292e-05
2.5871e-05
2.58709e-05
2.58711e-05
2.52881e-05
2.58714e-05
2.58707e-05
2.58715e-05
2.58708e-05
2.5871e-05
2.58712e-05
2.52878e-05
2.52917e-05
2.58714e-05
2.58713e-05
2.58715e-05
2.52921e-05
3.73773e-05
3.73765e-05
3.7377e-05
3.7377e-05
3.73701e-05
3.73777e-05
3.73043e-05
3.73768e-05
3.73701e-05
3.73777e-05
3.73768e-05
3.73043e-05
3.73742e-05
3.72959e-05
3.72959e-05
3.58822e-05
4.08826e-05
3.66026e-05
4.51348e-05
5.5115e-05
6.48773e-05
3.58824e-05
4.08818e-05
3.66029e-05
4.51345e-05
3.58938e-05
3.58938e-05
3.58938e-05
3.43996e-05
3.43996e-05
3.43996e-05
3.43996e-05
3.52765e-05
3.56328e-05
3.58933e-05
3.53774e-05
3.60473e-05
3.42431e-05
3.53824e-05
5.51171e-05
6.48807e-05
3.52765e-05
3.58933e-05
3.56325e-05
3.53774e-05
3.60473e-05
3.53824e-05
3.4244e-05
3.659e-05
3.65905e-05
3.52791e-05
3.40649e-05
3.40642e-05
3.39757e-05
5.13689e-05
3.46735e-05
5.46066e-05
7.65651e-05
8.08491e-05
3.39777e-05
5.137e-05
3.46737e-05
5.4607e-05
3.39318e-05
3.39318e-05
3.39318e-05
3.25803e-05
3.25802e-05
3.25802e-05
3.25802e-05
3.30568e-05
3.24682e-05
3.39309e-05
3.34105e-05
3.38945e-05
3.15813e-05
3.34698e-05
7.6567e-05
8.08524e-05
3.30568e-05
3.39309e-05
3.24668e-05
3.34105e-05
3.38943e-05
3.34698e-05
3.15839e-05
3.17154e-05
3.17145e-05
3.32637e-05
3.09222e-05
3.09207e-05
3.22585e-05
5.91817e-05
3.29122e-05
6.1422e-05
8.44109e-05
8.50633e-05
3.22617e-05
5.91839e-05
3.29095e-05
6.14237e-05
3.21559e-05
3.21559e-05
3.21559e-05
3.09294e-05
3.09294e-05
3.09294e-05
3.09294e-05
3.079e-05
3.05024e-05
3.21358e-05
3.15568e-05
3.16344e-05
2.98915e-05
3.17143e-05
8.4413e-05
8.50658e-05
3.07899e-05
3.21358e-05
3.05018e-05
3.15568e-05
3.16339e-05
3.17143e-05
2.98937e-05
3.02068e-05
3.02058e-05
3.12723e-05
3.00057e-05
3.00043e-05
3.07609e-05
6.43699e-05
3.13448e-05
6.57099e-05
8.46316e-05
8.38915e-05
3.07644e-05
6.43717e-05
3.13419e-05
6.57132e-05
3.05224e-05
3.05224e-05
3.05224e-05
2.94167e-05
2.94166e-05
2.94166e-05
2.94166e-05
2.86035e-05
2.91512e-05
3.04607e-05
2.97865e-05
2.94107e-05
2.86697e-05
3.00545e-05
8.46328e-05
8.3893e-05
2.86035e-05
3.04607e-05
2.91501e-05
2.97864e-05
2.94101e-05
3.00544e-05
2.86714e-05
2.99447e-05
2.99436e-05
2.93383e-05
3.00332e-05
3.00322e-05
2.95073e-05
6.73233e-05
2.99708e-05
6.80223e-05
8.22662e-05
8.12053e-05
2.95086e-05
6.73259e-05
2.99697e-05
6.80258e-05
2.90712e-05
2.90711e-05
2.90712e-05
2.79151e-05
2.79151e-05
2.7915e-05
2.7915e-05
2.65748e-05
2.8106e-05
2.89346e-05
2.81891e-05
2.73048e-05
2.77913e-05
2.8559e-05
8.22666e-05
8.1206e-05
2.65746e-05
2.89345e-05
2.81044e-05
2.8189e-05
2.73044e-05
2.85589e-05
2.77927e-05
3.04487e-05
3.04482e-05
2.75436e-05
3.07819e-05
3.07811e-05
2.82349e-05
6.86981e-05
2.89542e-05
6.88423e-05
7.95379e-05
7.91741e-05
2.82361e-05
6.87013e-05
2.89512e-05
6.88456e-05
2.75274e-05
2.75273e-05
2.75274e-05
2.6713e-05
2.6713e-05
2.67129e-05
2.6713e-05
2.46144e-05
2.72793e-05
2.73262e-05
2.64909e-05
2.53865e-05
2.68556e-05
2.69587e-05
7.9538e-05
7.91742e-05
2.46142e-05
2.73261e-05
2.72762e-05
2.64907e-05
2.53859e-05
2.69585e-05
2.68565e-05
3.14684e-05
3.14683e-05
2.57412e-05
3.1708e-05
3.17081e-05
2.82379e-05
6.94102e-05
2.80815e-05
6.97061e-05
7.92594e-05
7.9368e-05
2.824e-05
6.94134e-05
2.80799e-05
6.97085e-05
2.65806e-05
2.65805e-05
2.65805e-05
2.64291e-05
2.64291e-05
2.6429e-05
2.6429e-05
2.41752e-05
2.69586e-05
2.63232e-05
2.58494e-05
2.41469e-05
2.74721e-05
2.62472e-05
7.9258e-05
7.93644e-05
2.41754e-05
2.63232e-05
2.69585e-05
2.58493e-05
2.41467e-05
2.62471e-05
2.74729e-05
3.2954e-05
3.29544e-05
2.51538e-05
3.37313e-05
3.37327e-05
2.84775e-05
6.98859e-05
2.84522e-05
6.98974e-05
7.94376e-05
7.94425e-05
2.84788e-05
6.9889e-05
2.84516e-05
6.99004e-05
2.64173e-05
2.64172e-05
2.64173e-05
2.64094e-05
2.64094e-05
2.64093e-05
2.64094e-05
2.43549e-05
2.79726e-05
2.61831e-05
2.58583e-05
2.43241e-05
2.80358e-05
2.61811e-05
7.94344e-05
7.94385e-05
2.43552e-05
2.6183e-05
2.79714e-05
2.58582e-05
2.43241e-05
2.6181e-05
2.8036e-05
3.4293e-05
3.42949e-05
2.52722e-05
3.43596e-05
3.43614e-05
2.84869e-05
6.99018e-05
2.84877e-05
6.99e-05
7.94444e-05
7.94442e-05
2.8488e-05
6.99049e-05
2.84886e-05
6.9903e-05
2.64094e-05
2.64093e-05
2.64094e-05
2.64095e-05
2.64095e-05
2.64094e-05
2.64095e-05
2.43704e-05
2.80591e-05
2.61812e-05
2.58697e-05
2.43687e-05
2.80572e-05
2.61815e-05
7.94408e-05
7.94402e-05
2.43706e-05
2.61811e-05
2.80594e-05
2.58695e-05
2.43689e-05
2.61815e-05
2.80577e-05
3.43825e-05
3.43844e-05
2.52897e-05
3.43812e-05
3.43831e-05
2.84885e-05
6.99015e-05
2.84905e-05
6.98988e-05
7.94445e-05
7.94443e-05
2.84897e-05
6.99046e-05
2.84914e-05
6.99022e-05
2.64097e-05
2.64096e-05
2.64097e-05
2.64097e-05
2.64097e-05
2.64096e-05
2.64097e-05
2.43725e-05
2.80632e-05
2.61818e-05
2.58709e-05
2.43721e-05
2.80594e-05
2.6182e-05
7.94409e-05
7.94403e-05
2.43727e-05
2.61818e-05
2.80634e-05
2.58707e-05
2.43723e-05
2.61819e-05
2.80599e-05
3.4384e-05
3.43859e-05
2.52915e-05
3.43821e-05
3.43841e-05
2.84888e-05
6.99009e-05
2.84912e-05
6.98991e-05
7.94446e-05
7.94443e-05
2.84901e-05
6.9904e-05
2.84922e-05
6.99018e-05
2.64099e-05
2.64098e-05
2.64098e-05
2.64097e-05
2.64098e-05
2.64097e-05
2.64098e-05
2.43734e-05
2.80639e-05
2.61821e-05
2.58711e-05
2.43735e-05
2.80597e-05
2.61822e-05
7.94409e-05
7.94403e-05
2.43737e-05
2.61821e-05
2.80642e-05
2.5871e-05
2.43737e-05
2.61822e-05
2.80602e-05
3.43844e-05
3.43863e-05
2.52918e-05
3.43823e-05
3.43843e-05
2.84888e-05
6.99012e-05
2.84912e-05
6.98993e-05
7.94446e-05
7.94444e-05
2.84901e-05
6.99037e-05
2.84922e-05
6.99016e-05
2.64099e-05
2.64098e-05
2.64099e-05
2.64099e-05
2.64102e-05
2.64099e-05
2.64099e-05
2.43731e-05
2.8064e-05
2.61822e-05
2.58712e-05
2.43733e-05
2.80597e-05
2.61823e-05
7.94409e-05
7.94403e-05
2.43736e-05
2.61821e-05
2.80643e-05
2.58712e-05
2.43737e-05
2.61822e-05
2.80602e-05
3.43845e-05
3.43864e-05
2.52919e-05
3.43824e-05
3.43843e-05
3.73742e-05
3.72959e-05
3.72959e-05
5.3112e-05
3.71932e-05
5.31139e-05
3.71932e-05
3.70929e-05
3.72447e-05
3.72451e-05
3.71762e-05
3.71762e-05
3.73701e-05
3.73777e-05
3.73043e-05
3.73768e-05
3.73701e-05
3.73777e-05
3.73043e-05
3.73768e-05
3.71732e-05
3.94122e-05
3.7168e-05
3.67255e-05
3.71732e-05
3.9412e-05
3.7168e-05
3.67257e-05
3.70958e-05
3.71022e-05
3.60297e-05
3.64209e-05
3.71636e-05
3.71109e-05
3.63057e-05
3.70958e-05
3.71022e-05
3.60301e-05
3.64209e-05
3.71636e-05
3.71109e-05
3.63057e-05
3.73742e-05
3.72959e-05
3.72959e-05
5.31121e-05
3.71933e-05
3.70929e-05
3.72455e-05
3.72445e-05
3.71762e-05
3.71762e-05
5.31137e-05
3.71933e-05
3.73701e-05
3.73777e-05
3.73043e-05
3.73768e-05
3.73701e-05
3.73777e-05
3.73768e-05
3.73043e-05
3.71732e-05
3.94125e-05
3.7168e-05
3.67258e-05
3.70958e-05
3.71022e-05
3.60298e-05
3.64209e-05
3.71636e-05
3.71109e-05
3.63057e-05
3.71732e-05
3.94128e-05
3.7168e-05
3.67255e-05
3.70958e-05
3.71022e-05
3.64209e-05
3.60298e-05
3.71109e-05
3.71636e-05
3.63057e-05
3.73772e-05
3.73765e-05
3.7377e-05
3.7377e-05
3.73772e-05
3.73765e-05
3.7377e-05
3.7377e-05
3.73772e-05
3.73765e-05
3.7377e-05
3.7377e-05
3.71134e-05
3.71099e-05
3.64239e-05
3.64239e-05
3.71125e-05
3.71125e-05
3.6426e-05
3.71134e-05
3.71099e-05
3.64239e-05
3.64239e-05
3.71125e-05
3.71125e-05
3.6426e-05
3.71134e-05
3.71099e-05
3.64239e-05
3.64239e-05
3.71125e-05
3.71125e-05
3.6426e-05
3.71134e-05
3.71099e-05
3.64239e-05
3.64239e-05
3.71125e-05
3.71125e-05
3.6426e-05
3.73701e-05
3.73777e-05
3.73768e-05
3.73043e-05
3.70958e-05
3.71022e-05
3.60296e-05
3.64209e-05
3.71636e-05
3.71109e-05
3.63057e-05
3.71732e-05
3.94122e-05
3.7168e-05
3.67257e-05
3.70958e-05
3.71022e-05
3.64209e-05
3.60301e-05
3.71109e-05
3.71636e-05
3.63057e-05
3.71732e-05
3.94128e-05
3.7168e-05
3.67255e-05
3.73742e-05
3.72959e-05
3.72959e-05
5.31143e-05
3.71933e-05
3.70929e-05
3.72451e-05
3.72453e-05
3.71762e-05
3.71762e-05
5.31145e-05
3.71933e-05
3.73701e-05
3.73777e-05
3.73768e-05
3.73043e-05
3.70958e-05
3.71022e-05
3.64209e-05
3.60301e-05
3.71109e-05
3.71636e-05
3.63057e-05
3.70958e-05
3.71022e-05
3.64209e-05
3.60301e-05
3.71109e-05
3.71636e-05
3.63057e-05
3.71732e-05
3.94127e-05
3.7168e-05
3.67255e-05
3.71732e-05
3.94127e-05
3.7168e-05
3.67258e-05
3.70929e-05
3.7245e-05
3.72457e-05
3.71762e-05
3.71762e-05
5.31142e-05
3.71933e-05
5.31142e-05
3.71932e-05
5.5115e-05
6.4877e-05
5.51168e-05
6.48799e-05
3.65902e-05
3.65911e-05
3.52791e-05
3.40648e-05
3.40638e-05
7.47143e-05
6.76904e-05
7.47181e-05
6.76944e-05
3.49729e-05
3.2042e-05
3.20403e-05
3.3463e-05
3.34633e-05
3.5882e-05
4.08819e-05
3.66029e-05
4.51332e-05
3.52764e-05
3.56329e-05
3.58933e-05
3.53773e-05
3.60473e-05
3.42436e-05
3.53824e-05
3.52764e-05
3.56324e-05
3.58933e-05
3.53773e-05
3.60473e-05
3.42444e-05
3.53824e-05
3.56299e-05
5.02008e-05
4.64668e-05
3.48992e-05
3.56304e-05
5.01997e-05
4.64663e-05
3.48996e-05
3.49984e-05
3.48719e-05
3.27385e-05
3.44011e-05
3.3857e-05
3.48847e-05
3.41814e-05
3.49984e-05
3.48719e-05
3.27396e-05
3.44011e-05
3.38559e-05
3.48847e-05
3.41815e-05
3.65903e-05
3.6591e-05
3.52791e-05
3.40649e-05
3.40634e-05
5.51161e-05
6.4879e-05
7.47151e-05
6.76928e-05
3.49729e-05
3.20414e-05
3.20396e-05
3.34625e-05
3.34638e-05
7.47165e-05
6.76926e-05
3.52765e-05
3.56327e-05
3.58933e-05
3.53773e-05
3.60473e-05
3.42436e-05
3.53824e-05
3.58821e-05
4.08831e-05
3.66025e-05
4.51357e-05
3.52764e-05
3.58933e-05
3.56329e-05
3.53773e-05
3.60473e-05
3.53824e-05
3.42435e-05
3.563e-05
5.02006e-05
4.64665e-05
3.48998e-05
3.49984e-05
3.48719e-05
3.27385e-05
3.44011e-05
3.38563e-05
3.48847e-05
3.41816e-05
3.56299e-05
5.02023e-05
4.64684e-05
3.48994e-05
3.49984e-05
3.48719e-05
3.44011e-05
3.27381e-05
3.48847e-05
3.38566e-05
3.41815e-05
3.58822e-05
4.08807e-05
3.66028e-05
4.51349e-05
3.52764e-05
3.58933e-05
3.56325e-05
3.53773e-05
3.60473e-05
3.53824e-05
3.42444e-05
3.58822e-05
4.08834e-05
3.66024e-05
4.5135e-05
3.49985e-05
3.4872e-05
3.27376e-05
3.44011e-05
3.38567e-05
3.48847e-05
3.41816e-05
3.56302e-05
5.02e-05
4.64644e-05
3.48996e-05
3.49984e-05
3.48719e-05
3.44011e-05
3.27396e-05
3.48847e-05
3.38558e-05
3.41815e-05
3.56298e-05
5.02011e-05
4.64685e-05
3.48995e-05
3.65905e-05
3.65901e-05
3.52791e-05
3.4064e-05
3.40644e-05
5.51171e-05
6.48788e-05
7.47188e-05
6.76942e-05
3.49729e-05
3.20402e-05
3.20421e-05
3.34628e-05
3.34628e-05
7.47167e-05
6.76942e-05
3.52765e-05
3.58933e-05
3.56325e-05
3.53773e-05
3.60473e-05
3.53824e-05
3.42442e-05
3.58826e-05
4.08827e-05
3.66025e-05
4.51355e-05
3.58829e-05
4.08818e-05
3.66028e-05
4.51345e-05
3.49983e-05
3.4872e-05
3.44011e-05
3.27394e-05
3.48847e-05
3.3856e-05
3.41815e-05
3.49984e-05
3.48719e-05
3.44011e-05
3.27394e-05
3.48847e-05
3.38556e-05
3.41816e-05
3.56293e-05
5.0202e-05
4.64682e-05
3.48996e-05
3.56295e-05
5.02015e-05
4.64662e-05
3.48999e-05
5.51167e-05
6.48787e-05
5.51168e-05
6.48793e-05
3.49729e-05
3.20418e-05
3.20406e-05
3.34622e-05
3.34624e-05
7.47157e-05
6.76935e-05
7.47173e-05
6.7695e-05
7.65626e-05
8.0848e-05
7.65668e-05
8.08522e-05
3.17153e-05
3.17151e-05
3.32638e-05
3.09204e-05
3.092e-05
8.39947e-05
8.18655e-05
8.39985e-05
8.1869e-05
3.29553e-05
3.03024e-05
3.03028e-05
3.0746e-05
3.0744e-05
3.39762e-05
5.13686e-05
3.46737e-05
5.46065e-05
3.30565e-05
3.24683e-05
3.39309e-05
3.34104e-05
3.38944e-05
3.15821e-05
3.34698e-05
3.30567e-05
3.24667e-05
3.39309e-05
3.34103e-05
3.38945e-05
3.1584e-05
3.34698e-05
3.37727e-05
5.83481e-05
5.56135e-05
3.30897e-05
3.37729e-05
5.83483e-05
5.56127e-05
3.30902e-05
3.27681e-05
3.2935e-05
3.06529e-05
3.25687e-05
3.13863e-05
3.30147e-05
3.19191e-05
3.27682e-05
3.29349e-05
3.06542e-05
3.25687e-05
3.13839e-05
3.30147e-05
3.19193e-05
3.17147e-05
3.17158e-05
3.32638e-05
3.0921e-05
3.0917e-05
7.65646e-05
8.08496e-05
8.39957e-05
8.18674e-05
3.29553e-05
3.03036e-05
3.02991e-05
3.07442e-05
3.07469e-05
8.39964e-05
8.18672e-05
3.30569e-05
3.24673e-05
3.39309e-05
3.34104e-05
3.38944e-05
3.15829e-05
3.34698e-05
3.39772e-05
5.13711e-05
3.46735e-05
5.46095e-05
3.30567e-05
3.39309e-05
3.24681e-05
3.34103e-05
3.38943e-05
3.34698e-05
3.15815e-05
3.37712e-05
5.83489e-05
5.56151e-05
3.30927e-05
3.27679e-05
3.2935e-05
3.0653e-05
3.25687e-05
3.13844e-05
3.30147e-05
3.19195e-05
3.37711e-05
5.83513e-05
5.56155e-05
3.30922e-05
3.27678e-05
3.29349e-05
3.25687e-05
3.06522e-05
3.30147e-05
3.13861e-05
3.19193e-05
3.39766e-05
5.13679e-05
3.46736e-05
5.46063e-05
3.30566e-05
3.39309e-05
3.2467e-05
3.34104e-05
3.38944e-05
3.34698e-05
3.15843e-05
3.39759e-05
5.13705e-05
3.46736e-05
5.46078e-05
3.27682e-05
3.29351e-05
3.0652e-05
3.25687e-05
3.13859e-05
3.30147e-05
3.19193e-05
3.37723e-05
5.83483e-05
5.56123e-05
3.30903e-05
3.2768e-05
3.29349e-05
3.25687e-05
3.06545e-05
3.30147e-05
3.13843e-05
3.19191e-05
3.37722e-05
5.83501e-05
5.56147e-05
3.309e-05
3.17152e-05
3.17149e-05
3.32637e-05
3.09183e-05
3.09209e-05
7.6566e-05
8.08499e-05
8.39988e-05
8.187e-05
3.29553e-05
3.03007e-05
3.03037e-05
3.07458e-05
3.07458e-05
8.39964e-05
8.18683e-05
3.30569e-05
3.39309e-05
3.24663e-05
3.34104e-05
3.38944e-05
3.34698e-05
3.15838e-05
3.39773e-05
5.13706e-05
3.46735e-05
5.46087e-05
3.39772e-05
5.13692e-05
3.46737e-05
5.46079e-05
3.27678e-05
3.2935e-05
3.25687e-05
3.06541e-05
3.30147e-05
3.13842e-05
3.19194e-05
3.27679e-05
3.2935e-05
3.25687e-05
3.0654e-05
3.30147e-05
3.13838e-05
3.19196e-05
3.37709e-05
5.83503e-05
5.56148e-05
3.30924e-05
3.37714e-05
5.83499e-05
5.56141e-05
3.30928e-05
7.65658e-05
8.08499e-05
7.65676e-05
8.08514e-05
3.29553e-05
3.03046e-05
3.03031e-05
3.07448e-05
3.07439e-05
8.39966e-05
8.18683e-05
8.39978e-05
8.18698e-05
8.441e-05
8.50631e-05
8.44122e-05
8.50652e-05
3.02081e-05
3.02059e-05
3.12723e-05
3.00043e-05
3.00043e-05
8.4827e-05
8.50772e-05
8.4829e-05
8.50787e-05
3.09634e-05
2.99363e-05
2.99339e-05
2.99536e-05
2.99536e-05
3.2259e-05
5.91812e-05
3.29124e-05
6.14226e-05
3.07897e-05
3.05034e-05
3.21358e-05
3.15566e-05
3.16342e-05
2.98922e-05
3.17142e-05
3.079e-05
3.05014e-05
3.21358e-05
3.15565e-05
3.16344e-05
2.98934e-05
3.17142e-05
3.20906e-05
6.38631e-05
6.20818e-05
3.15011e-05
3.20908e-05
6.38645e-05
6.20812e-05
3.15016e-05
3.05062e-05
3.11126e-05
2.9256e-05
3.08782e-05
2.97615e-05
3.1297e-05
2.96908e-05
3.05063e-05
3.11125e-05
2.92569e-05
3.08782e-05
2.97601e-05
3.12969e-05
2.96911e-05
3.02063e-05
3.02071e-05
3.12724e-05
3.00049e-05
3.00025e-05
8.44107e-05
8.50639e-05
8.48269e-05
8.50774e-05
3.09634e-05
2.99346e-05
2.99348e-05
2.9954e-05
2.99516e-05
8.48276e-05
8.50777e-05
3.07901e-05
3.05021e-05
3.21358e-05
3.15567e-05
3.1634e-05
2.98922e-05
3.17142e-05
3.22612e-05
5.91839e-05
3.29094e-05
6.14256e-05
3.07899e-05
3.21358e-05
3.05026e-05
3.15564e-05
3.16339e-05
3.17142e-05
2.98916e-05
3.20881e-05
6.38657e-05
6.20837e-05
3.15037e-05
3.0506e-05
3.11127e-05
2.92567e-05
3.08782e-05
2.97606e-05
3.1297e-05
2.96911e-05
3.20879e-05
6.38671e-05
6.20839e-05
3.15033e-05
3.05058e-05
3.11124e-05
3.08781e-05
2.92553e-05
3.12969e-05
2.97609e-05
2.96909e-05
3.2259e-05
5.9181e-05
3.29124e-05
6.14228e-05
3.07897e-05
3.21358e-05
3.05017e-05
3.15566e-05
3.16343e-05
3.17142e-05
2.98936e-05
3.22586e-05
5.9183e-05
3.29121e-05
6.14242e-05
3.05064e-05
3.11129e-05
2.92553e-05
3.08783e-05
2.97607e-05
3.1297e-05
2.9691e-05
3.20908e-05
6.38648e-05
6.20811e-05
3.15015e-05
3.05062e-05
3.11126e-05
3.08782e-05
2.9257e-05
3.12969e-05
2.97603e-05
2.96908e-05
3.20905e-05
6.38658e-05
6.20828e-05
3.15011e-05
3.02066e-05
3.02074e-05
3.12723e-05
3.00034e-05
3.00059e-05
8.44116e-05
8.5064e-05
8.48289e-05
8.50793e-05
3.09634e-05
2.99354e-05
2.99356e-05
2.99521e-05
2.99546e-05
8.48273e-05
8.5078e-05
3.07902e-05
3.21358e-05
3.05012e-05
3.15567e-05
3.16341e-05
3.17142e-05
2.98931e-05
3.22614e-05
5.91831e-05
3.29092e-05
6.14244e-05
3.22618e-05
5.91829e-05
3.29097e-05
6.14243e-05
3.05058e-05
3.11128e-05
3.08782e-05
2.92571e-05
3.12969e-05
2.97603e-05
2.9691e-05
3.0506e-05
3.11127e-05
3.08782e-05
2.92566e-05
3.12969e-05
2.97598e-05
2.96912e-05
3.20877e-05
6.3866e-05
6.20829e-05
3.15034e-05
3.20881e-05
6.38663e-05
6.2083e-05
3.15038e-05
8.44118e-05
8.50642e-05
8.44129e-05
8.5065e-05
3.09634e-05
2.99353e-05
2.99341e-05
2.99546e-05
2.99534e-05
8.48275e-05
8.50782e-05
8.48279e-05
8.50788e-05
8.46319e-05
8.38924e-05
8.46318e-05
8.38932e-05
2.99458e-05
2.99435e-05
2.93384e-05
3.00323e-05
3.00323e-05
8.25972e-05
8.35723e-05
8.25976e-05
8.35722e-05
2.90382e-05
3.03184e-05
3.03169e-05
3.01042e-05
3.01032e-05
3.07613e-05
6.43692e-05
3.1345e-05
6.57115e-05
2.86032e-05
2.91516e-05
3.04607e-05
2.97862e-05
2.94105e-05
2.86706e-05
3.00544e-05
2.86035e-05
2.915e-05
3.04607e-05
2.9786e-05
2.94107e-05
2.86714e-05
3.00543e-05
3.0654e-05
6.70532e-05
6.60996e-05
3.00947e-05
3.06543e-05
6.70546e-05
6.60997e-05
3.00951e-05
2.83475e-05
2.93689e-05
2.81894e-05
2.9298e-05
2.85955e-05
2.96672e-05
2.75596e-05
2.83477e-05
2.93687e-05
2.81889e-05
2.92979e-05
2.85963e-05
2.96671e-05
2.75598e-05
2.99441e-05
2.99449e-05
2.93385e-05
3.00326e-05
3.00304e-05
8.46318e-05
8.38923e-05
8.25964e-05
8.35723e-05
2.90382e-05
3.03176e-05
3.03159e-05
3.01037e-05
3.01043e-05
8.25974e-05
8.35723e-05
2.86036e-05
2.915e-05
3.04607e-05
2.97863e-05
2.94103e-05
2.86711e-05
3.00543e-05
3.07639e-05
6.43718e-05
3.13416e-05
6.57135e-05
2.86033e-05
3.04606e-05
2.91514e-05
2.97859e-05
2.941e-05
3.00543e-05
2.86699e-05
3.06525e-05
6.70565e-05
6.6102e-05
3.00957e-05
2.83476e-05
2.9369e-05
2.81885e-05
2.92979e-05
2.8596e-05
2.96672e-05
2.75596e-05
3.06522e-05
6.70563e-05
6.61016e-05
3.00953e-05
2.83473e-05
2.93686e-05
2.92979e-05
2.81896e-05
2.96671e-05
2.85949e-05
2.75593e-05
3.07613e-05
6.43693e-05
3.1345e-05
6.57118e-05
2.86032e-05
3.04607e-05
2.915e-05
2.97861e-05
2.94104e-05
3.00544e-05
2.86714e-05
3.07609e-05
6.43704e-05
3.13446e-05
6.57124e-05
2.83477e-05
2.93692e-05
2.81894e-05
2.92981e-05
2.85947e-05
2.96672e-05
2.75598e-05
3.06543e-05
6.7055e-05
6.60999e-05
3.0095e-05
2.83475e-05
2.93688e-05
2.9298e-05
2.81887e-05
2.96671e-05
2.85963e-05
2.75595e-05
3.06539e-05
6.70551e-05
6.61005e-05
3.00946e-05
2.99451e-05
2.99451e-05
2.93383e-05
3.00315e-05
3.00334e-05
8.46322e-05
8.3892e-05
8.25976e-05
8.35728e-05
2.90381e-05
3.03168e-05
3.03185e-05
3.01047e-05
3.01043e-05
8.25969e-05
8.35729e-05
2.86037e-05
3.04606e-05
2.91496e-05
2.97863e-05
2.94103e-05
3.00544e-05
2.86711e-05
3.07641e-05
6.43706e-05
3.13415e-05
6.57127e-05
3.07644e-05
6.4371e-05
3.13419e-05
6.57134e-05
2.83474e-05
2.93691e-05
2.9298e-05
2.81888e-05
2.96671e-05
2.85963e-05
2.75595e-05
2.83476e-05
2.9369e-05
2.92979e-05
2.81885e-05
2.96671e-05
2.8596e-05
2.75596e-05
3.06522e-05
6.70555e-05
6.61008e-05
3.00954e-05
3.06526e-05
6.70564e-05
6.61016e-05
3.00958e-05
8.46324e-05
8.38922e-05
8.46326e-05
8.38921e-05
2.90381e-05
3.0318e-05
3.0317e-05
3.01042e-05
3.01033e-05
8.2597e-05
8.35731e-05
8.25966e-05
8.35729e-05
8.22667e-05
8.12061e-05
8.2266e-05
8.12059e-05
3.04483e-05
3.04485e-05
2.75437e-05
3.07817e-05
3.07806e-05
7.97915e-05
8.08158e-05
7.97909e-05
8.08145e-05
2.72641e-05
3.13196e-05
3.13188e-05
3.09361e-05
3.09356e-05
2.95076e-05
6.73239e-05
2.99712e-05
6.80241e-05
2.65746e-05
2.81046e-05
2.89346e-05
2.81886e-05
2.73046e-05
2.77927e-05
2.85589e-05
2.65748e-05
2.81046e-05
2.89345e-05
2.81884e-05
2.73048e-05
2.7793e-05
2.85589e-05
2.93827e-05
6.86279e-05
6.82103e-05
2.91319e-05
2.93829e-05
6.86296e-05
6.82116e-05
2.91321e-05
2.63427e-05
2.77661e-05
2.74385e-05
2.77386e-05
2.77474e-05
2.81585e-05
2.5654e-05
2.63429e-05
2.77659e-05
2.74383e-05
2.77386e-05
2.77477e-05
2.81585e-05
2.56542e-05
3.04482e-05
3.04474e-05
2.75439e-05
3.07814e-05
3.0777e-05
8.22665e-05
8.1206e-05
7.97905e-05
8.08148e-05
2.72641e-05
3.13187e-05
3.13174e-05
3.09358e-05
3.09367e-05
7.97914e-05
8.08151e-05
2.65747e-05
2.81051e-05
2.89346e-05
2.81889e-05
2.73045e-05
2.77925e-05
2.85589e-05
2.95082e-05
6.73256e-05
2.99693e-05
6.80249e-05
2.65744e-05
2.89345e-05
2.81063e-05
2.81883e-05
2.73043e-05
2.85588e-05
2.77915e-05
2.93812e-05
6.86313e-05
6.82133e-05
2.91329e-05
2.63426e-05
2.77664e-05
2.74386e-05
2.77386e-05
2.77472e-05
2.81585e-05
2.5654e-05
2.93809e-05
6.86299e-05
6.82124e-05
2.91326e-05
2.63424e-05
2.77657e-05
2.77385e-05
2.74399e-05
2.81584e-05
2.77467e-05
2.56537e-05
2.95075e-05
6.73243e-05
2.99711e-05
6.80242e-05
2.65745e-05
2.89346e-05
2.81043e-05
2.81886e-05
2.73046e-05
2.85589e-05
2.77927e-05
2.95071e-05
6.73243e-05
2.99707e-05
6.8024e-05
2.63429e-05
2.77666e-05
2.74395e-05
2.77388e-05
2.77464e-05
2.81585e-05
2.56542e-05
2.93828e-05
6.86297e-05
6.82118e-05
2.9132e-05
2.63427e-05
2.7766e-05
2.77386e-05
2.74378e-05
2.81585e-05
2.77473e-05
2.56539e-05
2.93825e-05
6.86291e-05
6.82114e-05
2.91316e-05
3.04484e-05
3.04492e-05
2.75436e-05
3.07799e-05
3.07822e-05
8.22669e-05
8.12058e-05
7.97912e-05
8.08149e-05
2.72639e-05
3.13197e-05
3.13198e-05
3.09376e-05
3.09364e-05
7.97913e-05
8.08156e-05
2.65748e-05
2.89345e-05
2.81042e-05
2.81889e-05
2.73046e-05
2.85589e-05
2.77926e-05
2.95083e-05
6.73247e-05
2.99694e-05
6.80244e-05
2.95086e-05
6.73257e-05
2.99697e-05
6.80257e-05
2.63425e-05
2.77665e-05
2.77386e-05
2.74379e-05
2.81584e-05
2.77473e-05
2.56538e-05
2.63427e-05
2.77663e-05
2.77386e-05
2.74378e-05
2.81585e-05
2.77473e-05
2.5654e-05
2.93809e-05
6.86296e-05
6.82118e-05
2.91326e-05
2.93812e-05
6.86311e-05
6.82131e-05
2.91329e-05
8.2267e-05
8.12059e-05
8.22666e-05
8.12051e-05
2.72639e-05
3.13194e-05
3.13192e-05
3.09362e-05
3.09358e-05
7.97914e-05
8.08156e-05
7.97905e-05
8.08148e-05
7.95386e-05
7.91748e-05
7.95375e-05
7.91741e-05
3.14682e-05
3.14681e-05
2.57414e-05
3.17077e-05
3.17079e-05
7.91978e-05
7.91541e-05
7.91981e-05
7.91532e-05
2.5531e-05
3.26267e-05
3.26265e-05
3.18095e-05
3.18101e-05
2.82352e-05
6.86998e-05
2.89544e-05
6.88442e-05
2.46143e-05
2.72768e-05
2.73261e-05
2.64902e-05
2.53864e-05
2.68566e-05
2.69585e-05
2.46145e-05
2.72766e-05
2.73261e-05
2.64899e-05
2.53866e-05
2.68569e-05
2.69584e-05
2.81184e-05
6.92762e-05
6.89224e-05
2.80583e-05
2.81186e-05
6.92782e-05
6.89244e-05
2.80585e-05
2.44263e-05
2.61925e-05
2.68582e-05
2.64564e-05
2.68353e-05
2.66652e-05
2.41596e-05
2.44264e-05
2.61922e-05
2.68586e-05
2.64563e-05
2.68356e-05
2.66651e-05
2.41597e-05
3.14681e-05
3.14686e-05
2.57416e-05
3.17076e-05
3.17065e-05
7.95382e-05
7.91743e-05
7.91971e-05
7.91534e-05
2.55311e-05
3.26271e-05
3.26236e-05
3.181e-05
3.1809e-05
7.91945e-05
7.91533e-05
2.46143e-05
2.72778e-05
2.73261e-05
2.64905e-05
2.5386e-05
2.68564e-05
2.69584e-05
2.82358e-05
6.87003e-05
2.89508e-05
6.88441e-05
2.46141e-05
2.73259e-05
2.72798e-05
2.64898e-05
2.53858e-05
2.69583e-05
2.6856e-05
2.81181e-05
6.92791e-05
6.89256e-05
2.80582e-05
2.44262e-05
2.61928e-05
2.6858e-05
2.64563e-05
2.68352e-05
2.66652e-05
2.41594e-05
2.81179e-05
6.92778e-05
6.89247e-05
2.8058e-05
2.4426e-05
2.6192e-05
2.64562e-05
2.68575e-05
2.6665e-05
2.68352e-05
2.41592e-05
2.82351e-05
6.87002e-05
2.89543e-05
6.88442e-05
2.46142e-05
2.73261e-05
2.72761e-05
2.64901e-05
2.53863e-05
2.69585e-05
2.68563e-05
2.82347e-05
6.86991e-05
2.89539e-05
6.88433e-05
2.44264e-05
2.6193e-05
2.68568e-05
2.64565e-05
2.68347e-05
2.66652e-05
2.41595e-05
2.81184e-05
6.9278e-05
6.89249e-05
2.80583e-05
2.44262e-05
2.61924e-05
2.64563e-05
2.6858e-05
2.66652e-05
2.68351e-05
2.41595e-05
2.81181e-05
6.92769e-05
6.89233e-05
2.80581e-05
3.14702e-05
3.14687e-05
2.57412e-05
3.17085e-05
3.17084e-05
7.95385e-05
7.91748e-05
7.91944e-05
7.91532e-05
2.55308e-05
3.26262e-05
3.26274e-05
3.18111e-05
3.18104e-05
7.91977e-05
7.9154e-05
2.46144e-05
2.73261e-05
2.72761e-05
2.64905e-05
2.53861e-05
2.69585e-05
2.68564e-05
2.82358e-05
6.86996e-05
2.89507e-05
6.88437e-05
2.82361e-05
6.87012e-05
2.89511e-05
6.88456e-05
2.44261e-05
2.61928e-05
2.64563e-05
2.68581e-05
2.66651e-05
2.68352e-05
2.41593e-05
2.44262e-05
2.61928e-05
2.64563e-05
2.68581e-05
2.66652e-05
2.68352e-05
2.41595e-05
2.81179e-05
6.92773e-05
6.89238e-05
2.80581e-05
2.81181e-05
6.92792e-05
6.89256e-05
2.80582e-05
7.95386e-05
7.91748e-05
7.95377e-05
7.91739e-05
2.55308e-05
3.26271e-05
3.26276e-05
3.181e-05
3.181e-05
7.91977e-05
7.9154e-05
7.9197e-05
7.91532e-05
7.92601e-05
7.93683e-05
7.92592e-05
7.93686e-05
3.29536e-05
3.29543e-05
2.51539e-05
3.37309e-05
3.37319e-05
7.94306e-05
7.93979e-05
7.94305e-05
7.93971e-05
2.51571e-05
3.42299e-05
3.42324e-05
3.39293e-05
3.39311e-05
2.8238e-05
6.94124e-05
2.8082e-05
6.97083e-05
2.41751e-05
2.6959e-05
2.63232e-05
2.58489e-05
2.4147e-05
2.7473e-05
2.62471e-05
2.41752e-05
2.69596e-05
2.63232e-05
2.58487e-05
2.4147e-05
2.74736e-05
2.6247e-05
2.83155e-05
6.98659e-05
6.97759e-05
2.84193e-05
2.83156e-05
6.98685e-05
6.97783e-05
2.84194e-05
2.42146e-05
2.5841e-05
2.78996e-05
2.619e-05
2.76567e-05
2.6208e-05
2.43036e-05
2.42146e-05
2.58408e-05
2.79007e-05
2.619e-05
2.76575e-05
2.62079e-05
2.43036e-05
3.29544e-05
3.29535e-05
2.5154e-05
3.37319e-05
3.37281e-05
7.92582e-05
7.93646e-05
7.94303e-05
7.93977e-05
2.51571e-05
3.42314e-05
3.42265e-05
3.39303e-05
3.39281e-05
7.94268e-05
7.93954e-05
2.41752e-05
2.69595e-05
2.63232e-05
2.58492e-05
2.41467e-05
2.74731e-05
2.6247e-05
2.82397e-05
6.94126e-05
2.808e-05
6.97051e-05
2.41751e-05
2.6323e-05
2.69597e-05
2.58485e-05
2.41466e-05
2.62469e-05
2.74727e-05
2.83156e-05
6.98685e-05
6.9779e-05
2.84196e-05
2.42146e-05
2.58412e-05
2.79008e-05
2.619e-05
2.76578e-05
2.62079e-05
2.43037e-05
2.83154e-05
6.98643e-05
6.97756e-05
2.84194e-05
2.42145e-05
2.58406e-05
2.61899e-05
2.79002e-05
2.62078e-05
2.76584e-05
2.43036e-05
2.82379e-05
6.94128e-05
2.80817e-05
6.97055e-05
2.4175e-05
2.63232e-05
2.69589e-05
2.58489e-05
2.41469e-05
2.62471e-05
2.74727e-05
2.82378e-05
6.9411e-05
2.80815e-05
6.97066e-05
2.42144e-05
2.58414e-05
2.78997e-05
2.61901e-05
2.76575e-05
2.6208e-05
2.43036e-05
2.83155e-05
6.98651e-05
6.97761e-05
2.84194e-05
2.42145e-05
2.58409e-05
2.619e-05
2.78996e-05
2.62079e-05
2.76565e-05
2.43035e-05
2.83153e-05
6.98666e-05
6.97765e-05
2.84192e-05
3.29558e-05
3.29542e-05
2.51537e-05
3.37308e-05
3.37316e-05
7.92601e-05
7.93684e-05
7.94264e-05
7.93952e-05
2.51569e-05
3.42283e-05