/*--------------------------------*- C++ -*----------------------------------*\
| =========                 |                                                 |
| \\      /  F ield         | OpenFOAM: The Open Source CFD Toolbox           |
|  \\    /   O peration     | Version:  2206                                  |
|   \\  /    A nd           | Website:  www.openfoam.com                      |
|    \\/     M anipulation  |                                                 |
\*---------------------------------------------------------------------------*/
FoamFile
{
    version     2.0;
    format      ascii;
    arch        "LSB;label=32;scalar=64";
    class       volVectorField;
    location    "28";
    object      U;
}
// * * * * * * * * * * * * * * * * * * * * * * * * * * * * * * * * * * * * * //

dimensions      [0 1 -1 0 0 0 0];

internalField   nonuniform List<vector> 
28688
(
(0.00010782 0.000107754 0.100299)
(-0.000190228 0.00011937 0.100385)
(0.000119442 -0.000190221 0.100385)
(-0.000239404 -0.000239423 0.100397)
(9.42562e-05 9.42086e-05 0.10086)
(-0.000159236 9.70028e-05 0.100941)
(9.70119e-05 -0.000159234 0.100942)
(-0.000200835 -0.000200886 0.100968)
(9.56673e-05 9.56533e-05 0.101372)
(-0.000156326 9.39812e-05 0.101448)
(9.39713e-05 -0.000156336 0.101448)
(-0.000201291 -0.000201342 0.101471)
(9.51941e-05 9.51841e-05 0.101892)
(-0.000156103 9.28761e-05 0.101957)
(9.28858e-05 -0.000156108 0.101957)
(-0.000196268 -0.000196311 0.101965)
(8.70872e-05 8.70808e-05 0.102392)
(-0.000143128 8.37057e-05 0.102445)
(8.37139e-05 -0.000143132 0.102445)
(-0.000184525 -0.000184571 0.102433)
(6.6323e-05 6.63158e-05 0.102845)
(-0.000101419 5.59884e-05 0.102881)
(5.59909e-05 -0.000101432 0.102881)
(-0.000147968 -0.000147997 0.102848)
(3.06438e-05 3.06202e-05 0.103066)
(-4.17957e-05 2.71525e-05 0.103046)
(2.71676e-05 -4.17939e-05 0.103046)
(-8.09846e-05 -8.09954e-05 0.102984)
(6.41253e-06 6.40295e-06 0.10313)
(-9.2013e-06 7.0456e-06 0.103072)
(7.05171e-06 -9.20568e-06 0.103072)
(-5.17278e-05 -5.17495e-05 0.102984)
(-2.17254e-08 -1.84471e-08 0.103138)
(-1.23898e-06 1.29725e-06 0.103072)
(1.29583e-06 -1.24271e-06 0.103072)
(-4.49215e-05 -4.49377e-05 0.102979)
(-7.01522e-07 -6.94935e-07 0.103139)
(-5.14214e-07 7.78354e-07 0.103072)
(7.76162e-07 -5.18059e-07 0.103072)
(-4.44442e-05 -4.44607e-05 0.102978)
(-7.35721e-07 -7.27066e-07 0.103139)
(-4.93548e-07 7.58277e-07 0.103072)
(7.55236e-07 -4.97044e-07 0.103072)
(-4.44281e-05 -4.44448e-05 0.102978)
(-7.41575e-07 -7.35933e-07 0.103139)
(-4.96622e-07 7.56625e-07 0.103072)
(7.54517e-07 -4.97907e-07 0.103072)
(-4.44249e-05 -4.44417e-05 0.102978)
(0.000135129 0.000135119 0.100282)
(0.000124235 0.000152895 0.100229)
(-0.000124227 0.000152876 0.100229)
(-0.000135125 0.000135087 0.100282)
(0.000152924 0.000124186 0.100229)
(0.000152896 -0.000124204 0.100229)
(9.08911e-05 9.08392e-05 0.10015)
(-9.08813e-05 9.08366e-05 0.10015)
(9.0865e-05 -9.08852e-05 0.10015)
(-9.08626e-05 -9.08835e-05 0.10015)
(-0.000152919 0.000124183 0.100229)
(-0.000152906 -0.000124199 0.100229)
(0.000135118 -0.000135138 0.100282)
(0.000124187 -0.000152925 0.100229)
(-0.000124184 -0.000152908 0.100229)
(-0.000135127 -0.000135112 0.100282)
(0.000239447 0.000239426 0.100397)
(0.000111891 0.000111763 0.100892)
(0.000119492 0.000190121 0.100385)
(-0.000119443 0.000190162 0.100385)
(8.92969e-05 0.000147463 0.100823)
(-8.92582e-05 0.000147459 0.100823)
(-0.000239457 0.000239375 0.100397)
(-0.00011185 0.000111731 0.100892)
(0.000190265 0.000119389 0.100385)
(0.000190203 -0.00011945 0.100385)
(0.000147436 8.92655e-05 0.100823)
(0.000147468 -8.92859e-05 0.100823)
(-0.000190184 -0.000119454 0.100385)
(-0.000147405 8.9267e-05 0.100823)
(-0.000147426 -8.92799e-05 0.100823)
(0.000239378 -0.000239469 0.100397)
(0.000111843 -0.000111856 0.100892)
(-0.000119422 -0.00019025 0.100385)
(8.92741e-05 -0.0001474 0.100823)
(-8.92533e-05 -0.000147425 0.100823)
(-0.000111841 -0.000111859 0.100892)
(0.000200922 0.000200754 0.100968)
(0.00010662 0.000106539 0.101395)
(9.7018e-05 0.000159291 0.100941)
(-9.69904e-05 0.000159288 0.100941)
(9.48582e-05 0.000157803 0.10132)
(-9.48605e-05 0.000157803 0.10132)
(-0.000200884 0.000200721 0.100968)
(-0.00010661 0.000106532 0.101395)
(0.000159269 9.69961e-05 0.100941)
(0.000159286 -9.70086e-05 0.100942)
(0.000157759 9.4863e-05 0.10132)
(0.000157798 -9.48656e-05 0.10132)
(-0.000159265 -9.70034e-05 0.100941)
(-0.000157756 9.48719e-05 0.10132)
(-0.000157775 -9.48542e-05 0.10132)
(0.000200832 -0.000200894 0.100968)
(0.000106584 -0.000106597 0.101395)
(-9.69938e-05 -0.00015926 0.100942)
(9.48588e-05 -0.000157757 0.10132)
(-9.48653e-05 -0.000157777 0.10132)
(-0.000106599 -0.000106605 0.101395)
(0.000201358 0.000201233 0.101471)
(9.7391e-05 9.73334e-05 0.101895)
(9.39625e-05 0.000156385 0.101448)
(-9.39676e-05 0.000156382 0.101448)
(9.03888e-05 0.000152875 0.101833)
(-9.03785e-05 0.000152866 0.101833)
(-0.00020135 0.000201215 0.101471)
(-9.73758e-05 9.73254e-05 0.101895)
(0.000156335 9.39761e-05 0.101448)
(0.000156376 -9.39708e-05 0.101448)
(0.000152814 9.03913e-05 0.101833)
(0.000152848 -9.03776e-05 0.101833)
(-0.000156358 -9.39648e-05 0.101448)
(-0.00015281 9.03814e-05 0.101833)
(-0.00015285 -9.03799e-05 0.101833)
(0.000201276 -0.000201348 0.101471)
(9.73477e-05 -9.7381e-05 0.101895)
(-9.39785e-05 -0.000156358 0.101448)
(9.03895e-05 -0.000152814 0.101833)
(-9.03817e-05 -0.000152823 0.101833)
(-9.74073e-05 -9.74078e-05 0.101895)
(0.000196299 0.000196195 0.101965)
(8.66927e-05 8.6643e-05 0.102368)
(9.28819e-05 0.000156164 0.101957)
(-9.28711e-05 0.000156156 0.101957)
(8.28368e-05 0.000142392 0.102326)
(-8.28301e-05 0.000142382 0.102326)
(-0.000196283 0.000196181 0.101965)
(-8.66786e-05 8.66427e-05 0.102368)
(0.000156112 9.28838e-05 0.101957)
(0.000156139 -9.28687e-05 0.101957)
(0.00014234 8.28322e-05 0.102326)
(0.000142368 -8.28229e-05 0.102326)
(-0.000156139 -9.28722e-05 0.101957)
(-0.000142334 8.28225e-05 0.102326)
(-0.000142378 -8.28247e-05 0.102326)
(0.000196205 -0.000196304 0.101965)
(8.66419e-05 -8.66892e-05 0.102368)
(-9.28731e-05 -0.000156114 0.101957)
(8.28354e-05 -0.00014234 0.102326)
(-8.28173e-05 -0.00014234 0.102326)
(-8.67124e-05 -8.67203e-05 0.102368)
(0.000184543 0.000184455 0.102433)
(6.31301e-05 6.31152e-05 0.102804)
(8.37181e-05 0.000143182 0.102445)
(-8.37144e-05 0.000143186 0.102445)
(6.7704e-05 0.000121022 0.102791)
(-6.76983e-05 0.000121004 0.102791)
(-0.000184536 0.000184446 0.102433)
(-6.31456e-05 6.31166e-05 0.102804)
(0.000143138 8.37094e-05 0.102445)
(0.000143164 -8.37025e-05 0.102445)
(0.000120925 6.7719e-05 0.102791)
(0.000120972 -6.76892e-05 0.102791)
(-0.000143169 -8.37084e-05 0.102445)
(-0.000120937 6.77053e-05 0.102791)
(-0.000120991 -6.76844e-05 0.102791)
(0.000184454 -0.000184557 0.102433)
(6.31072e-05 -6.31624e-05 0.102804)
(-8.36981e-05 -0.000143131 0.102445)
(6.7716e-05 -0.000120939 0.102791)
(-6.76949e-05 -0.000120928 0.102791)
(-6.31834e-05 -6.31911e-05 0.102804)
(0.000147965 0.000147928 0.102848)
(-5.11848e-06 -5.10015e-06 0.102984)
(5.60097e-05 0.000101498 0.102881)
(-5.60169e-05 0.000101493 0.102881)
(3.30244e-05 5.36667e-05 0.103025)
(-3.30314e-05 5.36786e-05 0.103025)
(-0.000148016 0.000147958 0.102848)
(5.10448e-06 -5.11766e-06 0.102984)
(0.000101418 5.60044e-05 0.102881)
(0.000101461 -5.60086e-05 0.102881)
(5.36821e-05 3.29762e-05 0.103025)
(5.36965e-05 -3.3029e-05 0.103025)
(-0.000101476 -5.5992e-05 0.102881)
(-5.36783e-05 3.29748e-05 0.103025)
(-5.3682e-05 -3.30164e-05 0.103025)
(0.000147934 -0.00014801 0.102848)
(-5.07642e-06 5.13346e-06 0.102984)
(-5.59753e-05 -0.000101405 0.102881)
(3.29877e-05 -5.36732e-05 0.103025)
(-3.29818e-05 -5.36699e-05 0.103025)
(5.09915e-06 5.12945e-06 0.102984)
(8.09992e-05 8.0964e-05 0.102984)
(-3.70414e-05 -3.70292e-05 0.10299)
(2.72089e-05 4.17833e-05 0.103046)
(-2.72067e-05 4.17942e-05 0.103046)
(1.07904e-05 1.45315e-05 0.10307)
(-1.07835e-05 1.45475e-05 0.10307)
(-8.10091e-05 8.09406e-05 0.102984)
(3.70477e-05 -3.70329e-05 0.10299)
(4.18082e-05 2.71558e-05 0.103046)
(4.18129e-05 -2.72041e-05 0.103046)
(1.45328e-05 1.07515e-05 0.10307)
(1.45467e-05 -1.07804e-05 0.10307)
(-4.17954e-05 -2.71937e-05 0.103046)
(-1.45239e-05 1.07449e-05 0.10307)
(-1.45407e-05 -1.07804e-05 0.10307)
(8.09856e-05 -8.10058e-05 0.102984)
(-3.70259e-05 3.70537e-05 0.10299)
(-2.71639e-05 -4.17934e-05 0.103046)
(1.07527e-05 -1.45215e-05 0.10307)
(-1.07526e-05 -1.45278e-05 0.10307)
(3.70291e-05 3.70412e-05 0.10299)
(5.17414e-05 5.17109e-05 0.102984)
(-4.5774e-05 -4.57538e-05 0.102983)
(7.08518e-06 9.21509e-06 0.103072)
(-7.08053e-06 9.23285e-06 0.103072)
(1.86883e-06 2.00715e-06 0.103072)
(-1.86954e-06 2.01943e-06 0.103072)
(-5.1735e-05 5.1702e-05 0.102984)
(4.57772e-05 -4.57489e-05 0.102983)
(9.21385e-06 7.05244e-06 0.103072)
(9.22629e-06 -7.07946e-06 0.103072)
(1.99329e-06 1.84409e-06 0.103073)
(2.01114e-06 -1.86654e-06 0.103072)
(-9.2256e-06 -7.07829e-06 0.103072)
(-1.98881e-06 1.84103e-06 0.103073)
(-2.01518e-06 -1.86478e-06 0.103072)
(5.17136e-05 -5.17544e-05 0.102984)
(-4.575e-05 4.57826e-05 0.102983)
(-7.0521e-06 -9.20561e-06 0.103072)
(1.83909e-06 -1.99058e-06 0.103072)
(-1.84122e-06 -1.98945e-06 0.103072)
(4.57499e-05 4.57686e-05 0.102983)
(4.49252e-05 4.49038e-05 0.102979)
(-4.64807e-05 -4.64545e-05 0.102982)
(1.32374e-06 1.25857e-06 0.103072)
(-1.32424e-06 1.27148e-06 0.103072)
(8.34341e-07 5.72456e-07 0.103072)
(-8.33085e-07 5.77156e-07 0.103072)
(-4.49222e-05 4.48983e-05 0.102979)
(4.64846e-05 -4.6454e-05 0.102982)
(1.24545e-06 1.3015e-06 0.103072)
(1.26196e-06 -1.32235e-06 0.103072)
(5.50556e-07 8.12524e-07 0.103072)
(5.73165e-07 -8.29552e-07 0.103072)
(-1.26337e-06 -1.31907e-06 0.103072)
(-5.47424e-07 8.08855e-07 0.103072)
(-5.72649e-07 -8.26879e-07 0.103072)
(4.49073e-05 -4.4942e-05 0.102979)
(-4.6453e-05 4.64889e-05 0.102982)
(-1.29579e-06 -1.23764e-06 0.103072)
(8.04946e-07 -5.4871e-07 0.103072)
(-8.03468e-07 -5.46287e-07 0.103072)
(4.6457e-05 4.64756e-05 0.102982)
(4.44498e-05 4.4434e-05 0.102978)
(-4.65e-05 -4.64618e-05 0.102982)
(8.0569e-07 5.41711e-07 0.103072)
(-8.01134e-07 5.4991e-07 0.103072)
(7.92399e-07 5.32155e-07 0.103072)
(-7.81576e-07 5.25525e-07 0.103072)
(-4.44469e-05 4.44246e-05 0.102978)
(4.65123e-05 -4.64754e-05 0.102982)
(5.20933e-07 7.85434e-07 0.103072)
(5.40407e-07 -7.99722e-07 0.103072)
(4.98285e-07 7.70517e-07 0.103072)
(5.20835e-07 -7.7718e-07 0.103072)
(-5.38317e-07 -7.96298e-07 0.103072)
(-4.93071e-07 7.5966e-07 0.103072)
(-5.19039e-07 -7.75837e-07 0.103072)
(4.44334e-05 -4.44656e-05 0.102978)
(-4.64751e-05 4.65134e-05 0.102982)
(-7.73193e-07 -5.12352e-07 0.103072)
(7.54429e-07 -4.93981e-07 0.103072)
(-7.52669e-07 -4.92722e-07 0.103072)
(4.64799e-05 4.64984e-05 0.102982)
(4.44367e-05 4.44327e-05 0.102978)
(-4.64995e-05 -4.64769e-05 0.102982)
(7.91853e-07 5.29982e-07 0.103072)
(-7.79855e-07 5.30959e-07 0.103072)
(7.80933e-07 5.1694e-07 0.103072)
(-7.83135e-07 5.21747e-07 0.103072)
(-4.44301e-05 4.44102e-05 0.102978)
(4.65067e-05 -4.64736e-05 0.102982)
(5.01378e-07 7.69913e-07 0.103072)
(5.21159e-07 -7.77682e-07 0.103072)
(4.96915e-07 7.58715e-07 0.103072)
(5.20217e-07 -7.78085e-07 0.103072)
(-5.18504e-07 -7.75514e-07 0.103072)
(-4.94213e-07 7.57474e-07 0.103072)
(-5.19264e-07 -7.75668e-07 0.103072)
(4.4418e-05 -4.44482e-05 0.102978)
(-4.64727e-05 4.65091e-05 0.102982)
(-7.5218e-07 -4.9257e-07 0.103072)
(7.53406e-07 -4.94648e-07 0.103072)
(-7.51662e-07 -4.93139e-07 0.103072)
(4.6477e-05 4.64953e-05 0.102982)
(4.443e-05 4.44096e-05 0.102978)
(-4.64894e-05 -4.64662e-05 0.102982)
(7.81406e-07 5.19048e-07 0.103072)
(-7.82898e-07 5.27919e-07 0.103072)
(7.78855e-07 5.12907e-07 0.103072)
(-4.44272e-05 4.44031e-05 0.102978)
(5.00468e-07 7.60811e-07 0.103072)
(5.20355e-07 -7.79494e-07 0.103072)
(4.94998e-07 7.57829e-07 0.103072)
(5.18509e-07 -7.79076e-07 0.103072)
(-5.18699e-07 -7.75384e-07 0.103072)
(-5.19725e-07 -7.75169e-07 0.103072)
(4.44141e-05 -4.44463e-05 0.102978)
(-4.64621e-05 4.64971e-05 0.102982)
(-7.51614e-07 -4.93019e-07 0.103072)
(7.52889e-07 -4.93753e-07 0.103072)
(-7.51293e-07 -4.94543e-07 0.103072)
(4.64649e-05 4.64839e-05 0.102982)
(-3.41774e-07 -3.44454e-07 0.0999988)
(1.68319e-05 1.68265e-05 0.100003)
(-4.54318e-07 1.39215e-05 0.1)
(1.39292e-05 -4.56878e-07 0.1)
(-4.66978e-05 5.72442e-06 0.100008)
(-1.53056e-05 1.56046e-05 0.0999999)
(-0.000127989 6.04378e-05 0.100057)
(-1.30962e-05 -8.61414e-07 0.0999958)
(5.71835e-06 -4.66826e-05 0.100008)
(1.56079e-05 -1.53061e-05 0.0999999)
(-8.59529e-07 -1.30951e-05 0.0999958)
(6.04501e-05 -0.000127919 0.100057)
(-1.87669e-05 -1.87703e-05 0.100003)
(-0.000135063 -8.10362e-05 0.100054)
(-8.10443e-05 -0.000135043 0.100054)
(-3.48221e-05 0.000137019 0.100719)
(0.000177168 0.000387491 0.0994242)
(2.35926e-06 0.00030475 0.10052)
(-8.39945e-05 0.000245355 0.0991343)
(-0.00030308 0.000836847 0.0977846)
(-0.000130058 0.000305634 0.0957065)
(0.000136753 -3.49695e-05 0.100719)
(0.000388107 0.00017613 0.099425)
(0.000305499 2.22169e-06 0.100521)
(0.000245479 -8.38821e-05 0.0991347)
(-0.000107804 0.000107756 0.100299)
(0.000107791 -0.000107802 0.100299)
(-0.000107783 -0.00010781 0.100299)
(9.19034e-05 9.18337e-05 0.10074)
(-9.18583e-05 9.1851e-05 0.10074)
(9.18877e-05 -9.1902e-05 0.10074)
(-9.18667e-05 -9.1912e-05 0.10074)
(-0.00028125 6.40901e-06 0.100752)
(-0.000397794 0.000229123 0.100531)
(-0.000175316 3.73641e-05 0.100332)
(-0.000153045 9.43215e-05 0.100558)
(-0.000358662 1.56342e-05 0.10048)
(-0.000150425 0.000199045 0.100733)
(-0.000152492 3.32886e-05 0.100497)
(0.000835816 -0.000301209 0.0977831)
(0.000305638 -0.000129661 0.0957074)
(6.35906e-06 -0.000281159 0.100752)
(3.73999e-05 -0.000175294 0.100332)
(0.000229216 -0.000397773 0.100531)
(9.42811e-05 -0.000153035 0.100558)
(1.56315e-05 -0.000358539 0.10048)
(3.33374e-05 -0.000152469 0.100498)
(0.000199085 -0.000150423 0.100733)
(-0.000371849 -0.000141103 0.100372)
(-0.000141304 -0.000372096 0.100373)
(-0.000112247 -0.000112323 0.100655)
(9.87378e-06 -7.97402e-05 0.100578)
(-8.00006e-05 9.88955e-06 0.100578)
(-1.64474e-05 0.000199594 0.100859)
(-5.52303e-05 0.000287369 0.0983301)
(-2.03747e-05 0.000208065 0.100783)
(-4.4943e-05 0.000273102 0.0979314)
(-0.00014954 0.000312195 0.0926363)
(-0.000138804 0.000274635 0.0909865)
(0.00019952 -1.66072e-05 0.100859)
(0.000287615 -5.51161e-05 0.0983305)
(0.000208104 -2.05093e-05 0.100784)
(0.000273234 -4.48706e-05 0.0979316)
(-9.42101e-05 9.42261e-05 0.10086)
(9.42672e-05 -9.42608e-05 0.10086)
(-9.42447e-05 -9.42592e-05 0.10086)
(9.7063e-05 9.70454e-05 0.101238)
(-9.70356e-05 9.70613e-05 0.101238)
(9.70738e-05 -9.70723e-05 0.101238)
(-9.70668e-05 -9.70669e-05 0.101238)
(-0.000264549 1.32824e-05 0.101151)
(-0.00021732 0.000213949 0.100826)
(-0.000164619 3.10555e-05 0.100897)
(-0.000159734 9.72501e-05 0.101064)
(-0.000297575 1.41465e-05 0.100979)
(-0.000185817 0.000198428 0.100936)
(-0.000168159 3.23797e-05 0.101019)
(0.000312163 -0.00014926 0.0926348)
(0.000274708 -0.000138629 0.0909878)
(1.33542e-05 -0.000264528 0.101151)
(3.11326e-05 -0.000164618 0.100897)
(0.000214022 -0.000217388 0.100827)
(9.72491e-05 -0.000159735 0.101064)
(1.42386e-05 -0.000297534 0.100979)
(3.24493e-05 -0.000168159 0.101019)
(0.000198392 -0.000185764 0.100936)
(-8.31306e-05 -9.58724e-05 0.100453)
(-9.59718e-05 -8.3148e-05 0.100453)
(-0.000113103 -0.000113101 0.101144)
(-8.81753e-05 -8.38626e-05 0.100415)
(-8.39996e-05 -8.82295e-05 0.100415)
(-9.61206e-06 0.000214378 0.100947)
(-2.23727e-05 0.000280392 0.0971489)
(-1.12343e-05 0.000227555 0.100911)
(-1.27093e-05 0.000257986 0.0966951)
(-0.000118052 0.000225935 0.0884025)
(-9.68993e-05 0.000187296 0.0870491)
(0.000214311 -9.7241e-06 0.100946)
(0.000280536 -2.22815e-05 0.0971491)
(0.000227609 -1.13504e-05 0.100912)
(0.000258087 -1.26385e-05 0.0966953)
(-9.56401e-05 9.567e-05 0.101372)
(9.56788e-05 -9.56762e-05 0.101372)
(-9.56701e-05 -9.56724e-05 0.101372)
(9.43157e-05 9.43067e-05 0.101762)
(-9.42947e-05 9.43296e-05 0.101762)
(9.43401e-05 -9.43218e-05 0.101762)
(-9.43225e-05 -9.43233e-05 0.101762)
(-0.000253355 1.21344e-05 0.101577)
(-0.000219229 0.000189833 0.101038)
(-0.000168078 3.28048e-05 0.101407)
(-0.000154434 9.25419e-05 0.101577)
(-0.000288358 1.21889e-05 0.101416)
(-0.000186158 0.000170311 0.101111)
(-0.000166178 3.25682e-05 0.101537)
(0.000225752 -0.000117791 0.0884002)
(0.000187379 -9.68185e-05 0.08705)
(1.21838e-05 -0.000253341 0.101577)
(3.28461e-05 -0.00016809 0.101407)
(0.000189853 -0.000219275 0.101039)
(9.25398e-05 -0.00015444 0.101577)
(1.22429e-05 -0.000288357 0.101416)
(3.26054e-05 -0.000166176 0.101537)
(0.000170275 -0.000186112 0.10111)
(-0.00011478 -9.00451e-05 0.1002)
(-9.01466e-05 -0.000114853 0.1002)
(-0.000102935 -0.00010294 0.101646)
(-0.000113113 -7.4148e-05 0.100067)
(-7.42318e-05 -0.000113189 0.100067)
(-6.52659e-06 0.000211239 0.100938)
(5.34395e-06 0.000255839 0.0958698)
(-8.14232e-06 0.000235171 0.100941)
(1.05041e-05 0.000232255 0.0954073)
(-7.41554e-05 0.000146753 0.0849956)
(-6.40494e-05 0.000122974 0.083946)
(0.000211183 -6.62861e-06 0.100937)
(0.000255922 5.36234e-06 0.0958699)
(0.000235238 -8.21985e-06 0.100942)
(0.000232345 1.06345e-05 0.0954075)
(-9.51743e-05 9.52095e-05 0.101892)
(9.52206e-05 -9.51984e-05 0.101892)
(-9.52016e-05 -9.52036e-05 0.101892)
(8.92228e-05 8.92144e-05 0.102271)
(-8.92097e-05 8.92421e-05 0.102271)
(8.92546e-05 -8.92248e-05 0.102271)
(-8.92321e-05 -8.92321e-05 0.102271)
(-0.000241622 1.09837e-05 0.101974)
(-0.000215656 0.00016148 0.101157)
(-0.00016878 3.23399e-05 0.101923)
(-0.000152396 9.03956e-05 0.10208)
(-0.000280581 1.114e-05 0.101826)
(-0.00018004 0.000143081 0.101197)
(-0.000166555 3.23108e-05 0.10205)
(0.000146621 -7.39855e-05 0.0849928)
(0.000123027 -6.40053e-05 0.083947)
(1.1023e-05 -0.000241617 0.101974)
(3.23606e-05 -0.000168779 0.101923)
(0.000161528 -0.00021571 0.101158)
(9.04101e-05 -0.0001524 0.10208)
(1.11771e-05 -0.000280591 0.101826)
(3.23278e-05 -0.000166542 0.10205)
(0.000143036 -0.000179997 0.101196)
(-0.000131591 -7.81247e-05 0.09974)
(-7.81805e-05 -0.000131655 0.0997396)
(-9.61483e-05 -9.61505e-05 0.102131)
(-0.000125598 -6.1617e-05 0.0995496)
(-6.16812e-05 -0.000125667 0.0995489)
(-5.98095e-06 0.000195694 0.10084)
(1.57221e-05 0.00021959 0.0945795)
(-6.72411e-06 0.000228089 0.100874)
(1.98865e-05 0.00020368 0.094141)
(-4.8096e-05 9.21179e-05 0.082392)
(-3.96389e-05 8.08568e-05 0.081562)
(0.000195626 -6.06573e-06 0.100839)
(0.000219626 1.57527e-05 0.094579)
(0.000228192 -6.77329e-06 0.100874)
(0.000203763 1.99897e-05 0.0941414)
(-8.70761e-05 8.71115e-05 0.102392)
(8.71197e-05 -8.70898e-05 0.102392)
(-8.70984e-05 -8.70973e-05 0.102392)
(7.54125e-05 7.54239e-05 0.102749)
(-7.54083e-05 7.54536e-05 0.102749)
(7.54561e-05 -7.54157e-05 0.102749)
(-7.5437e-05 -7.54249e-05 0.102749)
(-0.000220722 9.49914e-06 0.102331)
(-0.000202454 0.000135255 0.101184)
(-0.000152469 2.93876e-05 0.102422)
(-0.000143539 8.405e-05 0.102563)
(-0.000262142 1.00086e-05 0.102198)
(-0.000167427 0.0001177 0.101198)
(-0.000153586 2.90815e-05 0.102542)
(9.19369e-05 -4.79311e-05 0.0823893)
(8.08389e-05 -3.95279e-05 0.0815631)
(9.53875e-06 -0.000220715 0.102331)
(2.93945e-05 -0.000152461 0.102422)
(0.000135305 -0.000202524 0.101185)
(8.40603e-05 -0.000143538 0.102563)
(1.00326e-05 -0.000262162 0.102198)
(2.90815e-05 -0.00015357 0.102542)
(0.000117651 -0.000167381 0.101197)
(-0.000134157 -6.84751e-05 0.0991406)
(-6.85145e-05 -0.000134209 0.09914)
(-8.52459e-05 -8.52498e-05 0.102594)
(-0.000127557 -4.83687e-05 0.0989189)
(-4.84165e-05 -0.000127616 0.098918)
(-1.14427e-05 0.00010536 0.100641)
(1.16977e-05 0.000157074 0.0933476)
(-1.69025e-05 0.000194676 0.100712)
(-1.32988e-05 8.24082e-05 0.0930107)
(2.39305e-05 3.0527e-05 0.0804971)
(2.16141e-05 -1.04214e-06 0.08033)
(0.000105319 -1.15068e-05 0.100641)
(0.000157037 1.17034e-05 0.0933467)
(0.000194751 -1.69447e-05 0.100713)
(8.24326e-05 -1.32234e-05 0.0930113)
(-6.63217e-05 6.63357e-05 0.102845)
(6.63396e-05 -6.63366e-05 0.102845)
(-6.63396e-05 -6.63404e-05 0.102845)
(3.88866e-05 3.88677e-05 0.103031)
(-3.88797e-05 3.88639e-05 0.103031)
(3.88847e-05 -3.88899e-05 0.103031)
(-3.88845e-05 -3.88959e-05 0.103031)
(-0.000110293 3.32053e-06 0.102572)
(-0.000155623 9.06077e-05 0.101132)
(-0.000117126 2.13635e-05 0.102867)
(-8.27061e-05 4.62865e-05 0.102948)
(-0.000213612 3.62379e-06 0.102511)
(-7.30509e-05 4.15397e-05 0.101092)
(-9.53616e-05 1.80875e-05 0.102942)
(3.03356e-05 2.41089e-05 0.0804947)
(-1.02131e-06 2.16936e-05 0.080331)
(3.34012e-06 -0.000110274 0.102572)
(2.13726e-05 -0.000117117 0.102867)
(9.06323e-05 -0.000155703 0.101133)
(4.62936e-05 -8.27391e-05 0.102948)
(3.64806e-06 -0.000213621 0.102511)
(1.8087e-05 -9.53484e-05 0.102942)
(4.15094e-05 -7.29481e-05 0.101091)
(-0.000104852 -3.19223e-05 0.0984788)
(-3.19418e-05 -0.000104878 0.098478)
(-2.40175e-05 -2.39585e-05 0.102937)
(-4.35721e-05 2.60738e-06 0.0983047)
(2.60668e-06 -4.36055e-05 0.0983036)
(-8.03758e-07 -8.36361e-06 0.100493)
(-2.10678e-05 3.45915e-05 0.0927533)
(-1.88453e-06 2.57199e-05 0.100511)
(-1.28803e-05 3.16137e-06 0.092754)
(-7.08541e-06 -4.7042e-06 0.0803539)
(-3.67766e-06 -7.07824e-06 0.0804106)
(-8.43458e-06 -8.31003e-07 0.100492)
(3.45575e-05 -2.11201e-05 0.0927524)
(2.58097e-05 -1.90999e-06 0.100511)
(3.18871e-06 -1.2946e-05 0.0927547)
(-3.06321e-05 3.06178e-05 0.103066)
(3.06386e-05 -3.06439e-05 0.103066)
(-3.06391e-05 -3.06486e-05 0.103066)
(1.053e-05 1.05185e-05 0.103123)
(-1.05238e-05 1.05163e-05 0.103123)
(1.05276e-05 -1.05291e-05 0.103123)
(-1.05306e-05 -1.05362e-05 0.103123)
(-4.02391e-07 2.21767e-06 0.102549)
(-4.35258e-05 1.278e-05 0.100955)
(-4.4287e-05 1.08948e-05 0.103067)
(-3.10336e-05 2.12385e-05 0.103059)
(-5.26633e-05 2.89031e-06 0.102559)
(1.85724e-06 -1.52638e-06 0.100926)
(-3.23217e-05 8.44274e-06 0.103087)
(-4.78803e-06 -7.00126e-06 0.0803512)
(-6.91078e-06 -3.71946e-06 0.0804116)
(2.24772e-06 -3.95783e-07 0.102549)
(1.09178e-05 -4.42861e-05 0.103067)
(1.28412e-05 -4.35425e-05 0.100956)
(2.12512e-05 -3.10295e-05 0.103059)
(2.91077e-06 -5.26753e-05 0.102559)
(8.46332e-06 -3.23187e-05 0.103087)
(-1.54002e-06 1.95337e-06 0.100925)
(-1.42416e-05 3.43759e-06 0.0980772)
(3.46174e-06 -1.42419e-05 0.0980764)
(2.40802e-05 2.40836e-05 0.102993)
(5.91998e-07 1.0905e-05 0.0980294)
(1.09227e-05 5.70701e-07 0.0980283)
(-2.1303e-07 -9.68817e-06 0.100467)
(-1.52435e-06 7.7043e-06 0.0927356)
(-6.35783e-07 8.88811e-06 0.100456)
(-1.83606e-06 -6.61159e-06 0.0927571)
(-3.47601e-06 2.10205e-06 0.0804085)
(1.50148e-06 -3.07289e-06 0.0804307)
(-9.75978e-06 -2.10574e-07 0.100466)
(7.68066e-06 -1.57455e-06 0.0927348)
(8.96237e-06 -6.19222e-07 0.100456)
(-6.56609e-06 -1.81071e-06 0.0927578)
(-6.40872e-06 6.40256e-06 0.10313)
(6.41042e-06 -6.41171e-06 0.10313)
(-6.41446e-06 -6.41888e-06 0.10313)
(6.19617e-07 6.21933e-07 0.103138)
(-6.22324e-07 6.20961e-07 0.103138)
(6.24607e-07 -6.22082e-07 0.103138)
(-6.281e-07 -6.27421e-07 0.103138)
(1.39894e-05 2.13317e-07 0.102528)
(-1.81497e-05 5.23722e-06 0.100863)
(-9.58265e-06 2.39848e-06 0.103113)
(-5.59941e-06 4.47129e-06 0.103073)
(-1.97118e-05 3.71932e-07 0.102525)
(1.33828e-05 -4.43346e-06 0.100878)
(-5.89782e-06 1.32653e-06 0.103116)
(1.98832e-06 -3.39395e-06 0.0804055)
(-2.93824e-06 1.43628e-06 0.0804314)
(2.24684e-07 1.40016e-05 0.102528)
(2.40517e-06 -9.58422e-06 0.103113)
(5.2988e-06 -1.81982e-05 0.100863)
(4.47369e-06 -5.6034e-06 0.103073)
(3.73744e-07 -1.97256e-05 0.102525)
(1.33052e-06 -5.89545e-06 0.103116)
(-4.46427e-06 1.34243e-05 0.100877)
(-5.57251e-06 -5.00731e-06 0.0979565)
(-4.99104e-06 -5.56785e-06 0.0979558)
(4.3478e-05 4.34943e-05 0.102986)
(3.85478e-06 5.51269e-06 0.0979697)
(5.51063e-06 3.84675e-06 0.0979686)
(4.67675e-08 -9.62025e-06 0.100464)
(6.30764e-07 6.89708e-06 0.0927368)
(-1.46389e-07 9.31162e-06 0.10045)
(-1.14664e-06 -6.69241e-06 0.0927573)
(-2.04342e-06 2.88337e-06 0.08041)
(1.93935e-06 -2.85789e-06 0.0804308)
(-9.69122e-06 4.03106e-08 0.100463)
(6.85763e-06 5.92819e-07 0.092736)
(9.38334e-06 -1.31171e-07 0.10045)
(-6.65492e-06 -1.11158e-06 0.092758)
(1.94871e-08 -1.93557e-08 0.103138)
(-1.63073e-08 1.96101e-08 0.103138)
(1.34699e-08 1.50687e-08 0.103138)
(-6.57413e-07 -6.50504e-07 0.103139)
(6.56168e-07 -6.5302e-07 0.103139)
(-6.51005e-07 6.56668e-07 0.103139)
(6.50574e-07 6.53181e-07 0.103139)
(1.5553e-05 8.64406e-08 0.102525)
(-1.54475e-05 4.32002e-06 0.100853)
(-1.41444e-06 2.68545e-08 0.103118)
(-8.36933e-07 1.01521e-06 0.103072)
(-1.60538e-05 -1.13172e-07 0.102519)
(1.44923e-05 -4.75489e-06 0.100875)
(-1.00424e-06 -9.02453e-08 0.103118)
(2.7594e-06 -1.96505e-06 0.080407)
(-2.73601e-06 1.87541e-06 0.0804315)
(9.65443e-08 1.55617e-05 0.102525)
(2.57991e-08 -1.41358e-06 0.103118)
(4.36108e-06 -1.5505e-05 0.100853)
(1.01165e-06 -8.37914e-07 0.103072)
(-1.16332e-07 -1.60701e-05 0.102519)
(-9.19086e-08 -9.99254e-07 0.103118)
(-4.80102e-06 1.4545e-05 0.100874)
(-4.68305e-06 -5.68712e-06 0.0979442)
(-5.67285e-06 -4.67694e-06 0.0979435)
(4.63364e-05 4.63562e-05 0.102983)
(4.27181e-06 5.49154e-06 0.0979659)
(5.48512e-06 4.26442e-06 0.0979648)
(7.38546e-08 -9.61316e-06 0.100464)
(6.96688e-07 6.89834e-06 0.0927368)
(-8.75107e-08 9.29951e-06 0.100449)
(-1.11365e-06 -6.67713e-06 0.0927574)
(-1.98049e-06 2.88638e-06 0.0804101)
(1.95201e-06 -2.84825e-06 0.0804308)
(-9.68437e-06 6.17367e-08 0.100463)
(6.85846e-06 6.59029e-07 0.092736)
(9.37234e-06 -7.31319e-08 0.10045)
(-6.6292e-06 -1.08245e-06 0.0927582)
(7.0166e-07 -6.98571e-07 0.103139)
(-6.96232e-07 7.02033e-07 0.103139)
(6.96017e-07 6.98717e-07 0.103139)
(-7.34706e-07 -7.24469e-07 0.103139)
(7.37363e-07 -7.30113e-07 0.103139)
(-7.30953e-07 7.38323e-07 0.103139)
(7.31346e-07 7.34581e-07 0.103139)
(1.56287e-05 9.40203e-08 0.102525)
(-1.52331e-05 4.30039e-06 0.100852)
(-6.57982e-07 -1.84269e-07 0.103118)
(-4.99928e-07 7.6703e-07 0.103072)
(-1.57836e-05 -1.06714e-07 0.102518)
(1.4556e-05 -4.74157e-06 0.100875)
(-6.37495e-07 -1.88518e-07 0.103118)
(2.76911e-06 -1.90816e-06 0.0804071)
(-2.72701e-06 1.88711e-06 0.0804316)
(1.02673e-07 1.56398e-05 0.102524)
(-1.87136e-07 -6.5653e-07 0.103118)
(4.3395e-06 -1.52886e-05 0.100852)
(7.61903e-07 -5.00698e-07 0.103072)
(-1.11817e-07 -1.57983e-05 0.102518)
(-1.91545e-07 -6.31909e-07 0.103118)
(-4.78739e-06 1.46083e-05 0.100874)
(-4.62568e-06 -5.65043e-06 0.0979439)
(-5.63755e-06 -4.61894e-06 0.0979431)
(4.64784e-05 4.64971e-05 0.102982)
(4.2835e-06 5.49866e-06 0.0979658)
(5.49187e-06 4.27644e-06 0.0979647)
(7.08229e-08 -9.60603e-06 0.100464)
(7.87237e-07 6.93956e-06 0.0927371)
(-7.30512e-08 9.30903e-06 0.100449)
(-1.14177e-06 -6.68586e-06 0.0927574)
(-1.97587e-06 2.88516e-06 0.0804101)
(1.95158e-06 -2.84521e-06 0.0804308)
(-9.67839e-06 6.09499e-08 0.100463)
(6.86344e-06 6.6522e-07 0.092736)
(9.37821e-06 -6.98073e-08 0.10045)
(-6.62572e-06 -1.08163e-06 0.0927582)
(7.39547e-07 -7.32923e-07 0.103139)
(-7.32575e-07 7.39858e-07 0.103139)
(7.32876e-07 7.35831e-07 0.103139)
(-7.41268e-07 -7.3509e-07 0.103139)
(7.39491e-07 -7.33889e-07 0.103139)
(-7.33931e-07 7.40248e-07 0.103139)
(7.33932e-07 7.3616e-07 0.103139)
(1.56249e-05 9.50734e-08 0.102525)
(-1.52306e-05 4.31143e-06 0.100852)
(-6.29482e-07 -1.9109e-07 0.103118)
(-4.93003e-07 7.58705e-07 0.103072)
(-1.57781e-05 -1.04266e-07 0.102518)
(1.45516e-05 -4.73758e-06 0.100875)
(-6.2732e-07 -1.90918e-07 0.103118)
(2.76581e-06 -1.90238e-06 0.0804071)
(-2.72398e-06 1.8864e-06 0.0804316)
(1.03074e-07 1.56358e-05 0.102524)
(-1.94181e-07 -6.27885e-07 0.103118)
(4.35057e-06 -1.52859e-05 0.100852)
(7.53875e-07 -4.9388e-07 0.103072)
(-1.10357e-07 -1.5793e-05 0.102518)
(-1.94062e-07 -6.21995e-07 0.103118)
(-4.78231e-06 1.46043e-05 0.100874)
(-4.62528e-06 -5.65254e-06 0.0979439)
(-5.63958e-06 -4.61859e-06 0.0979431)
(4.64789e-05 4.64973e-05 0.102982)
(4.28119e-06 5.49743e-06 0.0979658)
(5.49071e-06 4.27383e-06 0.0979648)
(6.70864e-08 -9.60843e-06 0.100464)
(7.03294e-07 6.92168e-06 0.0927371)
(-8.88271e-08 9.3062e-06 0.100449)
(-1.12811e-06 -6.68522e-06 0.0927574)
(-1.97569e-06 2.88322e-06 0.0804101)
(1.946e-06 -2.84159e-06 0.0804309)
(-9.67818e-06 5.85792e-08 0.100463)
(6.86629e-06 6.5699e-07 0.092736)
(9.38017e-06 -7.39387e-08 0.10045)
(-6.62546e-06 -1.08677e-06 0.0927582)
(7.40233e-07 -7.3365e-07 0.103139)
(-7.34093e-07 7.39641e-07 0.103139)
(7.33727e-07 7.35403e-07 0.103139)
(-7.40865e-07 -7.36476e-07 0.103139)
(7.45688e-07 -7.25994e-07 0.103139)
(-7.33547e-07 7.40343e-07 0.103139)
(7.34928e-07 7.33097e-07 0.103139)
(1.56222e-05 9.45063e-08 0.102525)
(-1.52305e-05 4.30994e-06 0.100852)
(-6.317e-07 -1.91559e-07 0.103118)
(-4.95996e-07 7.56685e-07 0.103072)
(-1.57775e-05 -1.04648e-07 0.102518)
(1.4551e-05 -4.73766e-06 0.100875)
(-6.3072e-07 -1.91614e-07 0.103118)
(2.76662e-06 -1.90466e-06 0.0804071)
(-2.72579e-06 1.88774e-06 0.0804316)
(1.0309e-07 1.56331e-05 0.102524)
(-1.94059e-07 -6.28781e-07 0.103118)
(4.35069e-06 -1.52857e-05 0.100852)
(7.53089e-07 -4.94426e-07 0.103072)
(-1.09809e-07 -1.57926e-05 0.102518)
(-1.94066e-07 -6.22657e-07 0.103118)
(-4.78089e-06 1.46039e-05 0.100874)
(-4.62735e-06 -5.65292e-06 0.0979439)
(-5.63933e-06 -4.62121e-06 0.0979431)
(4.64736e-05 4.64921e-05 0.102982)
(4.28299e-06 5.49737e-06 0.0979658)
(5.49134e-06 4.27493e-06 0.0979648)
(1.87718e-05 1.87611e-05 0.100003)
(8.10225e-05 0.00013504 0.100054)
(0.0001351 8.10336e-05 0.100054)
(0.000413899 0.00104239 0.0978728)
(0.000115163 0.000204353 0.100125)
(0.00104148 0.000411276 0.0978727)
(0.000204502 0.000115191 0.100125)
(0.000102343 0.000102306 0.100042)
(0.00011766 0.000514046 0.10027)
(0.000512911 0.000117282 0.10027)
(0.000117302 0.000180251 0.100097)
(0.00018039 0.000117323 0.100097)
(5.72223e-06 4.66671e-05 0.100008)
(1.56119e-05 1.53037e-05 0.0999999)
(6.04388e-05 0.000127926 0.100057)
(-8.58243e-07 1.30889e-05 0.0999958)
(-5.73317e-06 4.66757e-05 0.100008)
(-1.56096e-05 1.52985e-05 0.0999999)
(-6.04115e-05 0.000127914 0.100057)
(8.58779e-07 1.30896e-05 0.0999958)
(4.58908e-06 0.000154572 0.100054)
(0.000326571 0.000315966 0.0993476)
(9.8356e-05 0.000167666 0.100056)
(7.34104e-06 0.000328105 0.100415)
(-4.62883e-06 0.000154587 0.100054)
(-0.000326037 0.000316678 0.0993474)
(-9.82925e-05 0.000167627 0.100056)