/*--------------------------------*- C++ -*----------------------------------*\
| =========                 |                                                 |
| \\      /  F ield         | OpenFOAM: The Open Source CFD Toolbox           |
|  \\    /   O peration     | Version:  2206                                  |
|   \\  /    A nd           | Website:  www.openfoam.com                      |
|    \\/     M anipulation  |                                                 |
\*---------------------------------------------------------------------------*/
FoamFile
{
    version     2.0;
    format      ascii;
    arch        "LSB;label=32;scalar=64";
    class       volScalarField;
    location    "1.5";
    object      Uy;
}
// * * * * * * * * * * * * * * * * * * * * * * * * * * * * * * * * * * * * * //

dimensions      [0 1 -1 0 0 0 0];

internalField   nonuniform List<scalar> 
171728
(
6.28854e-05
5.3736e-05
-8.80948e-05
-0.000158126
5.06842e-06
2.45488e-06
-4.23938e-06
-3.55916e-05
2.32218e-07
2.72633e-07
-3.44771e-07
-3.25576e-05
-7.56367e-08
1.46812e-07
-8.45269e-08
-3.24367e-05
-9.15448e-08
1.48406e-07
-7.15512e-08
-3.24267e-05
-9.15095e-08
1.55478e-07
-7.25269e-08
-3.24279e-05
-9.22343e-08
1.4425e-07
-7.16256e-08
-3.24293e-05
-9.28972e-08
1.42059e-07
-7.20701e-08
-3.24302e-05
-9.38025e-08
1.41287e-07
-7.16592e-08
-3.24308e-05
-9.2141e-08
1.41288e-07
-7.00438e-08
-3.24308e-05
-8.83105e-08
1.4172e-07
-6.90322e-08
-3.24292e-05
-9.47533e-08
1.4199e-07
-7.08178e-08
-3.24288e-05
-9.59271e-08
1.39733e-07
-7.08734e-08
-3.24311e-05
-9.55624e-08
1.40227e-07
-7.16659e-08
-3.24285e-05
-9.42616e-08
1.46646e-07
-7.35593e-08
-3.24316e-05
-9.29532e-08
1.4574e-07
-7.22119e-08
-3.24319e-05
-9.41233e-08
1.42652e-07
-7.17723e-08
-3.24324e-05
-9.20563e-08
1.42857e-07
-6.93133e-08
-3.24307e-05
-8.29281e-08
1.55143e-07
-6.79431e-08
-3.24291e-05
-8.54594e-08
1.28976e-07
-6.75655e-08
-3.24288e-05
-8.91167e-08
1.41985e-07
-7.17489e-08
-3.24324e-05
-9.38241e-08
1.41121e-07
-7.0823e-08
-3.243e-05
-9.4029e-08
1.41439e-07
-7.31157e-08
-3.24344e-05
-9.43864e-08
1.40693e-07
-7.23155e-08
-3.24331e-05
-9.41568e-08
1.39716e-07
-7.12634e-08
-3.24334e-05
-9.50029e-08
1.39733e-07
-7.11307e-08
-3.24336e-05
-9.49223e-08
1.38852e-07
-7.05302e-08
-3.24301e-05
-9.48241e-08
1.39955e-07
-7.13861e-08
-3.24326e-05
-9.40819e-08
1.40312e-07
-7.19115e-08
-3.24312e-05
-9.42232e-08
1.41204e-07
-7.29919e-08
-3.24329e-05
-9.4107e-08
1.42394e-07
-7.35564e-08
-3.24334e-05
-9.41477e-08
1.41907e-07
-7.30426e-08
-3.2435e-05
-9.44536e-08
1.39771e-07
-7.10693e-08
-3.24333e-05
-9.49848e-08
1.39044e-07
-7.12171e-08
-3.2433e-05
-9.49228e-08
1.38703e-07
-6.96518e-08
-3.24315e-05
-9.47566e-08
1.38158e-07
-6.96569e-08
-3.24287e-05
-9.46087e-08
1.40048e-07
-7.16395e-08
-3.24324e-05
-9.45034e-08
1.4017e-07
-7.16211e-08
-3.24317e-05
-9.43889e-08
1.42845e-07
-7.52361e-08
-3.24348e-05
-9.498e-08
1.40655e-07
-7.2954e-08
-3.24374e-05
-8.76905e-08
1.41813e-07
-7.27582e-08
-3.2436e-05
-9.32381e-08
1.49863e-07
-6.95508e-08
-3.24319e-05
-9.376e-08
1.39935e-07
-6.94138e-08
-3.24316e-05
-9.46209e-08
1.38986e-07
-7.01753e-08
-3.24313e-05
-9.42017e-08
1.39891e-07
-7.1004e-08
-3.24313e-05
-9.40775e-08
1.41621e-07
-7.28757e-08
-3.24337e-05
-9.42415e-08
1.40026e-07
-7.13172e-08
-3.24334e-05
-9.42128e-08
1.41311e-07
-7.2609e-08
-3.24346e-05
-9.44886e-08
1.39803e-07
-7.07629e-08
-3.24341e-05
-9.49625e-08
1.38928e-07
-7.00335e-08
-3.24327e-05
-9.50004e-08
1.38861e-07
-7.03382e-08
-3.24331e-05
-9.49146e-08
1.39526e-07
-7.08906e-08
-3.24314e-05
-9.47047e-08
1.40293e-07
-7.21116e-08
-3.24333e-05
-9.59564e-08
1.36653e-07
-7.19201e-08
-3.24328e-05
-9.63809e-08
1.34442e-07
-7.34985e-08
-3.24353e-05
-9.54874e-08
1.39408e-07
-7.14595e-08
-3.24347e-05
-9.56306e-08
1.39484e-07
-6.94287e-08
-3.24316e-05
-9.6339e-08
1.38364e-07
-6.78839e-08
-3.2431e-05
-9.61226e-08
1.37873e-07
-6.75845e-08
-3.24276e-05
-9.5335e-08
1.39445e-07
-6.87773e-08
-3.24302e-05
-9.58794e-08
1.39204e-07
-6.87206e-08
-3.2429e-05
-9.52546e-08
1.41568e-07
-7.13854e-08
-3.2431e-05
-9.55629e-08
1.41321e-07
-7.00922e-08
-3.24307e-05
-9.52922e-08
1.39441e-07
-6.91485e-08
-3.24312e-05
-9.59344e-08
1.40162e-07
-6.92018e-08
-3.24311e-05
-9.5714e-08
1.38771e-07
-6.81534e-08
-3.24311e-05
-9.5788e-08
1.38439e-07
-6.8066e-08
-3.24305e-05
-9.54324e-08
1.39087e-07
-6.74254e-08
-3.24262e-05
-9.36181e-08
1.413e-07
-6.60215e-08
-3.24276e-05
-9.21702e-08
1.43536e-07
-5.9574e-08
-3.24205e-05
-9.34648e-08
1.42799e-07
-6.69483e-08
-3.24262e-05
-9.51831e-08
1.39799e-07
-6.88401e-08
-3.24311e-05
-9.56246e-08
1.38694e-07
-6.78496e-08
-3.24298e-05
-9.60344e-08
1.39947e-07
-6.87073e-08
-3.24303e-05
-9.63699e-08
1.36943e-07
-6.63582e-08
-3.24271e-05
-9.58255e-08
1.39462e-07
-6.92304e-08
-3.24296e-05
-9.55763e-08
1.39554e-07
-6.87883e-08
-3.24281e-05
-9.55549e-08
1.41666e-07
-7.14338e-08
-3.24303e-05
-9.56096e-08
1.40349e-07
-7.01466e-08
-3.24303e-05
-9.59005e-08
1.40642e-07
-7.03806e-08
-3.24315e-05
-9.6006e-08
1.38174e-07
-6.82154e-08
-3.24296e-05
-9.61965e-08
1.38319e-07
-6.81725e-08
-3.24296e-05
-9.61438e-08
1.38784e-07
-6.85633e-08
-3.24299e-05
-9.59325e-08
1.38628e-07
-6.8138e-08
-3.24272e-05
-9.55568e-08
1.39628e-07
-6.95176e-08
-3.24288e-05
-9.55555e-08
1.4044e-07
-6.98121e-08
-3.24302e-05
-9.54412e-08
1.4134e-07
-7.07202e-08
-3.24301e-05
-9.58684e-08
1.39838e-07
-6.95805e-08
-3.24306e-05
-9.58084e-08
1.39081e-07
-6.83862e-08
-3.24306e-05
-9.61475e-08
1.37267e-07
-6.70372e-08
-3.24293e-05
-9.56195e-08
1.38146e-07
-6.76034e-08
-3.24291e-05
-9.87746e-08
1.36227e-07
-6.93019e-08
-3.24251e-05
-2.34946e-07
5.26444e-08
3.7229e-08
-3.23388e-05
-4.81181e-06
-1.95002e-06
3.72474e-06
-2.9419e-05
-4.32677e-05
-3.38965e-05
3.93951e-05
5.37188e-05
9.24805e-05
0.000118167
0.000118151
9.24515e-05
8.90607e-05
-8.91135e-05
7.9957e-05
7.99537e-05
-8.00392e-05
-8.00433e-05
8.90507e-05
-8.91132e-05
-9.25338e-05
-0.000118236
-0.000118235
-9.25187e-05
0.000158081
-2.82043e-05
8.79929e-05
8.80156e-05
8.71372e-06
8.71159e-06
0.00015801
-2.81921e-05
5.37459e-05
-5.38043e-05
4.98046e-06
-5.02276e-06
-5.38134e-05
4.97761e-06
-5.01679e-06
-0.000158164
2.82126e-05
-8.81252e-05
-8.73322e-06
-8.74018e-06
2.81853e-05
3.55484e-05
-3.27407e-05
4.2332e-06
4.23712e-06
5.78514e-07
5.79572e-07
3.55564e-05
-3.27437e-05
2.46814e-06
-2.49516e-06
4.09393e-07
-4.09573e-07
-2.48291e-06
4.10356e-07
-4.20288e-07
-3.55744e-05
3.27738e-05
-4.23819e-06
-5.78517e-07
-5.80991e-07
3.27668e-05
3.25287e-05
-3.29022e-05
3.41736e-07
3.46823e-07
1.04927e-07
1.1318e-07
3.25254e-05
-3.29011e-05
2.69863e-07
-2.78981e-07
1.54106e-07
-1.57403e-07
-2.71522e-07
1.55208e-07
-1.56451e-07
-3.25582e-05
3.2933e-05
-3.42374e-07
-1.03498e-07
-1.10995e-07
3.29249e-05
3.24122e-05
-3.29106e-05
8.5953e-08
9.0503e-08
7.63218e-08
7.81258e-08
3.24096e-05
-3.29035e-05
1.47261e-07
-1.48672e-07
1.42702e-07
-1.41973e-07
-1.47712e-07
1.45917e-07
-1.40343e-07
-3.24434e-05
3.29421e-05
-8.76851e-08
-7.06448e-08
-7.11029e-08
3.2935e-05
3.2406e-05
-3.29101e-05
7.49041e-08
8.19384e-08
7.70162e-08
8.39671e-08
3.24108e-05
-3.28954e-05
1.42495e-07
-1.4202e-07
1.42697e-07
-1.41766e-07
-1.40703e-07
1.52101e-07
-1.39373e-07
-3.24345e-05
3.29437e-05
-7.09884e-08
-6.98598e-08
-7.05323e-08
3.2937e-05
3.24081e-05
-3.29095e-05
7.77057e-08
9.17338e-08
7.57732e-08
7.68822e-08
3.24223e-05
-3.29086e-05
1.44941e-07
-1.41907e-07
1.4251e-07
-1.39887e-07
-1.39849e-07
1.44744e-07
-1.39565e-07
-3.24356e-05
3.29462e-05
-7.02915e-08
-6.93692e-08
-6.98105e-08
3.29378e-05
3.24095e-05
-3.29061e-05
7.78586e-08
7.75441e-08
7.71586e-08
7.63971e-08
3.24067e-05
-3.29095e-05
1.46431e-07
-1.41314e-07
1.44911e-07
-1.41184e-07
-1.39966e-07
1.4337e-07
-1.41399e-07
-3.24358e-05
3.29439e-05
-7.02965e-08
-7.08318e-08
-7.07793e-08
3.29365e-05
3.2408e-05
-3.29127e-05
7.8777e-08
7.53928e-08
7.37029e-08
7.44629e-08
3.24064e-05
-3.2913e-05
1.44146e-07
-1.41209e-07
1.40886e-07
-1.41355e-07
-1.41375e-07
1.41727e-07
-1.41464e-07
-3.24371e-05
3.29462e-05
-7.13159e-08
-7.01187e-08
-7.05354e-08
3.29374e-05
3.24048e-05
-3.29134e-05
7.30345e-08
7.34984e-08
7.3397e-08
7.3316e-08
3.24048e-05
-3.2913e-05
1.42241e-07
-1.41631e-07
1.41457e-07
-1.40105e-07
-1.4244e-07
1.41514e-07
-1.39991e-07
-3.24365e-05
3.29477e-05
-7.11708e-08
-6.84499e-08
-6.96647e-08
3.2939e-05
3.24067e-05
-3.28919e-05
7.48037e-08
7.53018e-08
8.6276e-08
7.51753e-08
3.2406e-05
-3.29121e-05
1.43067e-07
-1.39412e-07
1.48972e-07
-1.37947e-07
-1.3875e-07
1.42218e-07
-1.3844e-07
-3.24366e-05
3.29483e-05
-6.82894e-08
-6.74849e-08
-6.83795e-08
3.29395e-05
3.24205e-05
-3.29135e-05
7.67736e-08
7.6524e-08
7.18526e-08
7.08543e-08
3.24053e-05
-3.29129e-05
1.45258e-07
-1.38395e-07
1.39861e-07
-1.39522e-07
-1.38078e-07
1.4128e-07
-1.39875e-07
-3.24359e-05
3.29465e-05
-6.81335e-08
-6.81426e-08
-6.89182e-08
3.29382e-05
3.2402e-05
-3.29125e-05
7.18714e-08
7.48027e-08
7.09669e-08
8.01276e-08
3.24027e-05
-3.29146e-05
1.40191e-07
-1.41343e-07
1.39495e-07
-1.41832e-07
-1.39973e-07
1.41049e-07
-1.41363e-07
-3.24348e-05
3.29446e-05
-6.96318e-08
-6.99547e-08
-7.18475e-08
3.29364e-05
3.24024e-05
-3.29136e-05
7.04196e-08
8.27904e-08
7.14899e-08
8.32496e-08
3.24021e-05
-3.29138e-05
1.40635e-07
-1.41757e-07
1.39607e-07
-1.42452e-07
-1.40538e-07
1.40214e-07
-1.40558e-07
-3.24365e-05
3.29441e-05
-7.15926e-08
-6.9645e-08
-7.09987e-08
3.29373e-05
3.24061e-05
-3.29133e-05
7.24295e-08
8.25005e-08
7.35469e-08
7.7287e-08
3.24014e-05
-3.2909e-05
1.44982e-07
-1.42298e-07
1.43452e-07
-1.43272e-07
-1.41964e-07
1.44689e-07
-1.4229e-07
-3.24356e-05
3.2944e-05
-7.27547e-08
-7.12233e-08
-7.21022e-08
3.29367e-05
3.24122e-05
-3.29155e-05
7.94955e-08
7.84811e-08
7.63012e-08
8.40985e-08
3.24096e-05
-3.28962e-05
1.4315e-07
-1.43143e-07
1.4187e-07
-1.41744e-07
-1.42196e-07
1.50994e-07
-1.40377e-07
-3.2438e-05
3.29463e-05
-7.22323e-08
-7.07031e-08
-7.10874e-08
3.29379e-05
3.24113e-05
-3.29168e-05
7.61384e-08
7.70008e-08
7.34407e-08
7.4129e-08
3.24154e-05
-3.29187e-05
1.42795e-07
-1.41815e-07
1.4057e-07
-1.41241e-07
-1.40041e-07
1.43409e-07
-1.40529e-07
-3.24377e-05
3.29471e-05
-7.04936e-08
-7.01975e-08
-7.03544e-08
3.29392e-05
3.24109e-05
-3.29174e-05
7.67495e-08
7.41548e-08
7.20044e-08
7.36466e-08
3.2406e-05
-3.29167e-05
1.41844e-07
-1.41357e-07
1.41399e-07
-1.39364e-07
-1.40275e-07
1.41684e-07
-1.38866e-07
-3.24385e-05
3.29488e-05
-7.02775e-08
-6.83586e-08
-6.88894e-08
3.29404e-05
3.2411e-05
-3.29035e-05
7.66007e-08
7.51811e-08
8.01644e-08
8.59184e-08
3.24091e-05
-3.2894e-05
1.43362e-07
-1.39601e-07
1.48331e-07
-1.37007e-07
-1.38188e-07
1.53184e-07
-1.36426e-07
-3.24371e-05
3.29503e-05
-6.85191e-08
-6.73131e-08
-6.8129e-08
3.29424e-05
3.24331e-05
-3.2909e-05
9.2766e-08
8.74567e-08
7.01123e-08
7.59392e-08
3.24332e-05
-3.29152e-05
1.52278e-07
-1.36086e-07
1.46528e-07
-1.37567e-07
-1.35521e-07
1.39545e-07
-1.37441e-07
-3.24353e-05
3.29501e-05
-6.82567e-08
-6.61565e-08
-7.71226e-08
3.29419e-05
3.24226e-05
-3.29138e-05
7.67361e-08
6.84593e-08
8.98348e-08
7.39907e-08
3.23913e-05
-3.29151e-05
1.46149e-07
-1.37157e-07
1.39957e-07
-1.39002e-07
-1.38189e-07
1.4198e-07
-1.42078e-07
-3.2435e-05
3.29486e-05
-7.77093e-08
-6.88493e-08
-7.21484e-08
3.29383e-05
3.24105e-05
-3.29096e-05
8.85812e-08
6.15498e-08
7.42556e-08
7.28861e-08
3.2403e-05
-3.29144e-05
1.45265e-07
-1.40062e-07
1.41001e-07
-1.40775e-07
-1.41604e-07
1.39746e-07
-1.40191e-07
-3.24362e-05
3.29461e-05
-7.14324e-08
-6.84302e-08
-6.94739e-08
3.29378e-05
3.2404e-05
-3.291e-05
7.39321e-08
7.42022e-08
7.53636e-08
7.59291e-08
3.24033e-05
-3.29134e-05
1.42261e-07
-1.42485e-07
1.40845e-07
-1.43667e-07
-1.4116e-07
1.42499e-07
-1.43288e-07
-3.24363e-05
3.29447e-05
-7.05088e-08
-7.21828e-08
-7.25466e-08
3.29374e-05
3.24064e-05
-3.29133e-05
7.3477e-08
7.44308e-08
7.28954e-08
7.36483e-08
3.24076e-05
-3.29159e-05
1.4155e-07
-1.43226e-07
1.39008e-07
-1.41812e-07
-1.43315e-07
1.4074e-07
-1.41474e-07
-3.24404e-05
3.29474e-05
-7.26768e-08
-7.02689e-08
-6.9781e-08
3.29393e-05
3.24045e-05
-3.29125e-05
7.33179e-08
7.34171e-08
7.44673e-08
7.44235e-08
3.24059e-05
-3.29158e-05
1.40847e-07
-1.42366e-07
1.40044e-07
-1.42341e-07
-1.42424e-07
1.40977e-07
-1.41244e-07
-3.24388e-05
3.29469e-05
-7.13257e-08
-7.0795e-08
-7.09543e-08
3.29401e-05
3.24071e-05
-3.2915e-05
7.26409e-08
7.31997e-08
7.21264e-08
7.2717e-08
3.24072e-05
-3.29177e-05
1.4041e-07
-1.4165e-07
1.3795e-07
-1.4105e-07
-1.40948e-07
1.39797e-07
-1.41386e-07
-3.24408e-05
3.29492e-05
-7.06316e-08
-6.96451e-08
-7.0995e-08
3.29407e-05
3.24055e-05
-3.29147e-05
7.22166e-08
7.21215e-08
7.08079e-08
7.13574e-08
3.24066e-05
-3.29174e-05
1.40178e-07
-1.4166e-07
1.3717e-07
-1.39733e-07
-1.41883e-07
1.38008e-07
-1.39375e-07
-3.24394e-05
3.29489e-05
-7.11252e-08
-6.77305e-08
-6.85449e-08
3.29407e-05
3.24023e-05
-3.2913e-05
7.0387e-08
7.12236e-08
7.3411e-08
7.36074e-08
3.24035e-05
-3.29161e-05
1.3844e-07
-1.40561e-07
1.40064e-07
-1.42386e-07
-1.39587e-07
1.40995e-07
-1.415e-07
-3.24364e-05
3.29473e-05
-6.88428e-08
-7.03218e-08
-7.07067e-08
3.29401e-05
3.24051e-05
-3.29106e-05
7.27635e-08
7.29921e-08
7.22324e-08
7.24872e-08
3.24058e-05
-3.29142e-05
1.40679e-07
-1.41772e-07
1.38266e-07
-1.40605e-07
-1.41267e-07
1.3956e-07
-1.40935e-07
-3.24393e-05
3.29457e-05
-7.10372e-08
-6.90652e-08
-7.03054e-08
3.29377e-05
3.24025e-05
-3.29107e-05
7.17472e-08
7.28481e-08
7.53537e-08
7.54715e-08
3.24039e-05
-3.29135e-05
1.39521e-07
-1.41982e-07
1.41437e-07
-1.43916e-07
-1.42384e-07
1.42396e-07
-1.42961e-07
-3.24365e-05
3.2945e-05
-7.17999e-08
-7.19988e-08
-7.24535e-08
3.29375e-05
3.24054e-05
-3.29107e-05
7.38099e-08
7.42201e-08
7.45907e-08
7.45624e-08
3.24064e-05
-3.29134e-05
1.41547e-07
-1.43086e-07
1.40848e-07
-1.42873e-07
-1.43183e-07
1.4137e-07
-1.4282e-07
-3.24394e-05
3.29456e-05
-7.27937e-08
-7.10055e-08
-7.19279e-08
3.29382e-05
3.24053e-05
-3.29115e-05
7.42947e-08
7.5799e-08
7.5345e-08
7.57857e-08
3.24054e-05
-3.29158e-05
1.41853e-07
-1.43717e-07
1.41487e-07
-1.44061e-07
-1.44014e-07
1.41895e-07
-1.43326e-07
-3.24392e-05
3.29459e-05
-7.34036e-08
-7.17724e-08
-7.29079e-08
3.29385e-05
3.24061e-05
-3.29139e-05
7.31774e-08
7.43235e-08
7.36182e-08
7.38288e-08
3.24053e-05
-3.29155e-05
1.40944e-07
-1.42953e-07
1.39749e-07
-1.41812e-07
-1.43057e-07
1.402e-07
-1.40649e-07
-3.24406e-05
3.29486e-05
-7.26532e-08
-6.95567e-08
-6.97267e-08
3.29411e-05
3.24068e-05
-3.2914e-05
7.20083e-08
7.32209e-08
7.07925e-08
7.13516e-08
3.24044e-05
-3.29152e-05
1.39633e-07
-1.41651e-07
1.36911e-07
-1.39722e-07
-1.41126e-07
1.38069e-07
-1.39596e-07
-3.24404e-05
3.29483e-05
-7.04891e-08
-6.833e-08
-6.89593e-08
3.29396e-05
3.24043e-05
-3.29151e-05
7.18327e-08
7.21752e-08
7.18517e-08
7.19586e-08
3.2403e-05
-3.29164e-05
1.39312e-07
-1.4109e-07
1.382e-07
-1.40357e-07
-1.40306e-07
1.38742e-07
-1.3977e-07
-3.24385e-05
3.29493e-05
-7.01433e-08
-6.85339e-08
-6.87593e-08
3.29414e-05
3.24046e-05
-3.29127e-05
7.15361e-08
7.18532e-08
7.0943e-08
7.1195e-08
3.24023e-05
-3.29138e-05
1.39753e-07
-1.40693e-07
1.37156e-07
-1.39468e-07
-1.39398e-07
1.38174e-07
-1.39157e-07
-3.24386e-05
3.29469e-05
-6.84817e-08
-6.77359e-08
-6.87381e-08
3.29386e-05
3.24022e-05
-3.29122e-05
7.07283e-08
7.14103e-08
7.34644e-08
7.43822e-08
3.23997e-05
-3.29121e-05
1.384e-07
-1.40181e-07
1.39832e-07
-1.43186e-07
-1.3871e-07
1.41996e-07
-1.44101e-07
-3.24358e-05
3.2946e-05
-6.83428e-08
-7.21371e-08
-7.35452e-08
3.29369e-05
3.2403e-05
-3.29112e-05
7.18742e-08
7.25604e-08
7.39281e-08
7.42241e-08
3.24025e-05
-3.2912e-05
1.40139e-07
-1.42077e-07
1.40142e-07
-1.42414e-07
-1.42161e-07
1.40853e-07
-1.42589e-07
-3.24375e-05
3.29451e-05
-7.10983e-08
-7.03673e-08
-7.19643e-08
3.29366e-05
3.24041e-05
-3.2911e-05
7.32589e-08
7.35022e-08
7.45417e-08
7.53849e-08
3.24019e-05
-3.29121e-05
1.41158e-07
-1.42317e-07
1.40745e-07
-1.43867e-07
-1.41343e-07
1.42608e-07
-1.43723e-07
-3.24379e-05
3.2945e-05
-7.07988e-08
-7.21896e-08
-7.32972e-08
3.29372e-05
3.2406e-05
-3.29143e-05
7.51086e-08
7.57633e-08
7.37768e-08
7.53112e-08
3.2405e-05
-3.29134e-05
1.42721e-07
-1.44982e-07
1.38677e-07
-1.42824e-07
-1.44443e-07
1.41818e-07
-1.43467e-07
-3.24407e-05
3.29461e-05
-7.38126e-08
-7.11937e-08
-7.58338e-08
3.29356e-05
3.24032e-05
-3.29185e-05
7.14842e-08
7.48502e-08
7.77451e-08
7.38329e-08
3.2408e-05
-3.29187e-05
1.38306e-07
-1.42562e-07
1.42242e-07
-1.42023e-07
-1.44262e-07
1.37796e-07
-1.44102e-07
-3.24402e-05
3.29472e-05
-8.06099e-08
-7.20588e-08
-7.68341e-08
3.29369e-05
3.24098e-05
-3.29209e-05
8.5685e-08
7.5616e-08
7.049e-08
8.34867e-08
3.24012e-05
-3.29058e-05
1.42167e-07
-1.41198e-07
1.38845e-07
-1.39843e-07
-1.43028e-07
1.48409e-07
-1.39353e-07
-3.24408e-05
3.29501e-05
-7.31109e-08
-6.89575e-08
-7.02903e-08
3.29426e-05
3.24093e-05
-3.29176e-05
7.44837e-08
8.65171e-08
7.14875e-08
7.42514e-08
3.2425e-05
-3.2914e-05
1.40129e-07
-1.39759e-07
1.39849e-07
-1.4049e-07
-1.37608e-07
1.4232e-07
-1.3954e-07
-3.24384e-05
3.2948e-05
-6.84555e-08
-6.90331e-08
-6.96939e-08
3.29397e-05
3.24096e-05
-3.29185e-05
7.31472e-08
7.30107e-08
7.06065e-08
7.29162e-08
3.24051e-05
-3.29163e-05
1.39564e-07
-1.40138e-07
1.39224e-07
-1.41243e-07
-1.3857e-07
1.40201e-07
-1.40555e-07
-3.24382e-05
3.2948e-05
-6.83614e-08
-6.943e-08
-7.01138e-08
3.29399e-05
3.24086e-05
-3.29161e-05
7.2862e-08
7.2189e-08
7.05843e-08
7.28959e-08
3.24034e-05
-3.29145e-05
1.39398e-07
-1.40751e-07
1.38908e-07
-1.41236e-07
-1.40276e-07
1.39999e-07
-1.41129e-07
-3.24377e-05
3.29459e-05
-6.97291e-08
-6.96144e-08
-7.05295e-08
3.29381e-05
3.24074e-05
-3.29153e-05
7.30931e-08
7.30043e-08
7.3355e-08
7.52339e-08
3.24029e-05
-3.29138e-05
1.39562e-07
-1.41787e-07
1.4168e-07
-1.43609e-07
-1.41972e-07
1.42583e-07
-1.43483e-07
-3.24371e-05
3.29448e-05
-7.11704e-08
-7.23726e-08
-7.31644e-08
3.29374e-05
3.24102e-05
-3.29173e-05
7.49741e-08
7.44415e-08
7.11534e-08
7.35656e-08
3.24052e-05
-3.2915e-05
1.41472e-07
-1.43447e-07
1.39451e-07
-1.42035e-07
-1.43713e-07
1.41033e-07
-1.42966e-07
-3.24397e-05
3.29464e-05
-7.29339e-08
-7.14048e-08
-7.2848e-08
3.29375e-05
3.24092e-05
-3.29174e-05
7.38943e-08
7.30537e-08
7.21845e-08
7.45138e-08
3.24045e-05
-3.29153e-05
1.4038e-07
-1.42038e-07
1.40381e-07
-1.42929e-07
-1.41679e-07
1.41499e-07
-1.42893e-07
-3.24388e-05
3.29467e-05
-7.04902e-08
-7.16072e-08
-7.28375e-08
3.29382e-05
3.2411e-05
-3.29194e-05
7.49806e-08
7.45811e-08
7.16087e-08
7.40379e-08
3.24062e-05
-3.29176e-05
1.41248e-07
-1.43345e-07
1.39995e-07
-1.42231e-07
-1.42981e-07
1.40853e-07
-1.41423e-07
-3.24403e-05
3.29486e-05
-7.19703e-08
-7.06936e-08
-7.17204e-08
3.29414e-05
3.24109e-05
-3.29201e-05
7.36926e-08
7.31222e-08
7.02478e-08
7.28902e-08
3.24058e-05
-3.29178e-05
1.40406e-07
-1.41845e-07
1.38862e-07
-1.412e-07
-1.41589e-07
1.40034e-07
-1.41125e-07
-3.24406e-05
3.29491e-05
-7.05338e-08
-6.93482e-08
-7.11091e-08
3.2941e-05
3.24093e-05
-3.292e-05
7.29174e-08
7.23264e-08
6.98894e-08
7.22711e-08
3.24042e-05
-3.29169e-05
1.39635e-07
-1.41043e-07
1.38005e-07
-1.41132e-07
-1.40866e-07
1.39628e-07
-1.41748e-07
-3.2439e-05
3.29485e-05
-6.98142e-08
-7.00777e-08
-7.17511e-08
3.2939e-05
3.24092e-05
-3.29185e-05
7.30885e-08
7.17948e-08
6.97622e-08
7.21244e-08
3.24043e-05
-3.29162e-05
1.39698e-07
-1.41268e-07
1.37786e-07
-1.41024e-07
-1.40106e-07
1.39234e-07
-1.4057e-07
-3.24388e-05
3.29473e-05
-6.88681e-08
-6.9655e-08
-7.0036e-08
3.2939e-05
3.24082e-05
-3.29165e-05
7.40277e-08
7.27188e-08
7.19208e-08
7.41576e-08
3.24033e-05
-3.2915e-05
1.40309e-07
-1.41869e-07
1.39924e-07
-1.42674e-07
-1.40519e-07
1.40742e-07
-1.42087e-07
-3.24378e-05
3.29454e-05
-6.97604e-08
-7.10355e-08
-7.17572e-08
3.2938e-05
3.2409e-05
-3.29177e-05
7.45063e-08
7.36353e-08
7.0513e-08
7.27354e-08
3.24043e-05
-3.29174e-05
1.40924e-07
-1.42844e-07
1.39354e-07
-1.43079e-07
-1.43036e-07
1.38796e-07
-1.43072e-07
-3.24389e-05
3.29454e-05
-7.23802e-08
-7.06956e-08
-7.21379e-08
3.29369e-05
3.24074e-05
-3.2918e-05
7.25166e-08
7.10653e-08
6.90705e-08
5.91753e-08
3.24003e-05
-3.29393e-05
1.3933e-07
-1.43153e-07
1.38518e-07
-1.44013e-07
-1.44145e-07
1.29351e-07
-1.46097e-07
-3.24384e-05
3.29448e-05
-7.2856e-08
-7.19459e-08
-7.4355e-08
3.29355e-05
3.24081e-05
-3.29188e-05
7.30646e-08
6.88977e-08
7.04268e-08
7.3891e-08
3.23861e-05
-3.29169e-05
1.39867e-07
-1.44607e-07
1.38886e-07
-1.43559e-07
-1.45853e-07
1.39869e-07
-1.43568e-07
-3.24399e-05
3.29463e-05
-7.42436e-08
-7.10395e-08
-7.39319e-08
3.2938e-05
3.24095e-05
-3.29181e-05
7.41122e-08
7.40723e-08
7.13839e-08
7.51705e-08
3.24048e-05
-3.29168e-05
1.40425e-07
-1.43131e-07
1.40113e-07
-1.42601e-07
-1.42079e-07
1.39945e-07
-1.40265e-07
-3.24407e-05
3.29475e-05
-7.40786e-08
-6.88568e-08
-8.09939e-08
3.29404e-05
3.24108e-05
-3.29203e-05
7.34942e-08
7.45786e-08
7.00113e-08
7.44518e-08
3.24047e-05
-3.29183e-05
1.40957e-07
-1.42624e-07
1.38653e-07
-1.4177e-07
-1.39523e-07
1.39134e-07
-1.39368e-07
-3.24399e-05
3.29494e-05
-8.06258e-08
-6.77736e-08
-8.06241e-08
3.29424e-05
3.24093e-05
-3.29189e-05
7.20162e-08
7.37638e-08
6.82273e-08
7.2525e-08
3.24043e-05
-3.29171e-05
1.39038e-07
-1.41474e-07
1.37561e-07
-1.40271e-07
-1.38014e-07
1.37704e-07
-1.37105e-07
-3.24392e-05
3.2948e-05
-7.91736e-08
-6.58106e-08
-7.81941e-08
3.29424e-05
3.24065e-05
-3.29159e-05
7.10474e-08
7.29241e-08
7.1846e-08
7.60694e-08
3.24016e-05
-3.2915e-05
1.37983e-07
-1.40505e-07
1.40678e-07
-1.42778e-07
-1.37411e-07
1.40409e-07
-1.39468e-07
-3.24362e-05
3.29456e-05
-7.91836e-08
-6.82064e-08
-8.07825e-08
3.29402e-05
3.24101e-05
-3.29166e-05
7.33991e-08
7.51768e-08
6.95763e-08
7.43618e-08
3.24042e-05
-3.2916e-05
1.40576e-07
-1.42286e-07
1.388e-07
-1.41296e-07
-1.39796e-07
1.39102e-07
-1.39515e-07
-3.24394e-05
3.29464e-05
-8.11353e-08
-6.71696e-08
-8.11634e-08
3.29404e-05
3.2407e-05
-3.29156e-05
7.27237e-08
7.49289e-08
7.16773e-08
7.614e-08
3.24016e-05
-3.29138e-05
1.39612e-07
-1.42018e-07
1.4043e-07
-1.43335e-07
-1.39661e-07
1.40883e-07
-1.41281e-07
-3.24367e-05
3.29449e-05
-8.12638e-08
-6.91524e-08
-8.2683e-08
3.29386e-05
3.24092e-05
-3.29161e-05
7.4515e-08
7.6281e-08
7.24107e-08
7.62729e-08
3.24045e-05
-3.29154e-05
1.41697e-07
-1.44268e-07
1.4124e-07
-1.43463e-07
-1.42219e-07
1.41153e-07
-1.40848e-07
-3.24388e-05
3.29459e-05
-8.36881e-08
-6.93103e-08
-8.20039e-08
3.29403e-05
3.24097e-05
-3.29166e-05
7.41164e-08
7.61379e-08
7.18176e-08
7.58333e-08
3.24042e-05
-3.29155e-05
1.41127e-07
-1.43953e-07
1.40616e-07
-1.42927e-07
-1.41061e-07
1.40644e-07
-1.40343e-07
-3.24392e-05
3.29463e-05
-8.21393e-08
-6.8983e-08
-8.18756e-08
3.29401e-05
3.24107e-05
-3.29197e-05
7.36552e-08
7.48704e-08
7.10611e-08
7.5173e-08
3.24049e-05
-3.29184e-05
1.40521e-07
-1.4219e-07
1.39886e-07
-1.42334e-07
-1.39188e-07
1.40004e-07
-1.40282e-07
-3.244e-05
3.29493e-05
-8.09174e-08
-6.79995e-08
-8.15569e-08
3.2943e-05
3.24108e-05
-3.29184e-05
7.40481e-08
7.54568e-08
6.91224e-08
7.36662e-08
3.24047e-05
-3.29168e-05
1.41539e-07
-1.43198e-07
1.37841e-07
-1.40679e-07
-1.40424e-07
1.38701e-07
-1.39129e-07
-3.244e-05
3.2948e-05
-8.15819e-08
-6.69812e-08
-8.08015e-08
3.29419e-05
3.24085e-05
-3.29188e-05
7.19723e-08
7.35365e-08
7.10907e-08
7.50021e-08
3.24042e-05
-3.29174e-05
1.39165e-07
-1.41123e-07
1.40095e-07
-1.41905e-07
-1.38863e-07
1.39582e-07
-1.38718e-07
-3.24382e-05
3.29484e-05
-8.03154e-08
-6.69267e-08
-8.01599e-08
3.29424e-05
3.24095e-05
-3.29167e-05
7.21878e-08
7.38371e-08
6.95746e-08
7.36389e-08
3.24037e-05
-3.29154e-05
1.39444e-07
-1.40809e-07
1.38937e-07
-1.40709e-07
-1.39053e-07
1.38747e-07
-1.3714e-07
-3.24385e-05
3.29463e-05
-8.08447e-08
-6.58697e-08
-7.82236e-08
3.29408e-05
3.24081e-05
-3.29144e-05
7.33121e-08
7.41537e-08
7.13111e-08
7.6286e-08
3.24012e-05
-3.2913e-05
1.40731e-07
-1.41023e-07
1.40332e-07
-1.40446e-07
-1.37101e-07
1.41861e-07
-1.38867e-07
-3.24364e-05
3.29477e-05
-7.87044e-08
-6.70957e-08
-8.09071e-08
3.29417e-05
3.24096e-05
-3.29139e-05
7.49947e-08
7.58411e-08
7.3002e-08
7.69569e-08
3.24047e-05
-3.29129e-05
1.42585e-07
-1.38872e-07
1.4297e-07
-1.35008e-07
-1.37419e-07
1.42735e-07
-1.33971e-07
-3.24348e-05
3.29551e-05
-7.86628e-08
-5.42669e-08
-7.1107e-08
3.29471e-05
3.24101e-05
-3.29133e-05
7.56072e-08
7.73351e-08
7.23174e-08
7.73465e-08
3.24044e-05
-3.29118e-05
1.43857e-07
-1.35661e-07
1.42701e-07
-1.3921e-07
-1.34666e-07
1.43664e-07
-1.36025e-07
-3.2427e-05
3.29479e-05
-7.19306e-08
-6.4196e-08
-7.70214e-08
3.2944e-05
3.24109e-05
-3.29164e-05
7.64507e-08
7.77021e-08
7.12723e-08
7.65584e-08
3.24055e-05
-3.29143e-05
1.43929e-07
-1.40591e-07
1.40792e-07
-1.4241e-07
-1.37123e-07
1.41728e-07
-1.39674e-07
-3.24358e-05
3.29462e-05
-7.88094e-08
-6.7871e-08
-8.31807e-08
3.29401e-05
3.24099e-05
-3.29183e-05
7.35771e-08
7.58626e-08
7.03034e-08
7.42659e-08
3.24049e-05
-3.29171e-05
1.40743e-07
-1.41732e-07
1.396e-07
-1.41368e-07
-1.4014e-07
1.39364e-07
-1.39283e-07
-3.24389e-05
3.29484e-05
-8.03528e-08
-6.69007e-08
-8.23028e-08
3.29418e-05
3.24089e-05
-3.29181e-05
7.25648e-08
7.36264e-08
7.00333e-08
7.48453e-08
3.24031e-05
-3.29169e-05
1.40135e-07
-1.41301e-07
1.38946e-07
-1.41537e-07
-1.38971e-07
1.39024e-07
-1.38665e-07
-3.24376e-05
3.29475e-05
-7.85374e-08
-6.70747e-08
-8.03602e-08
3.29416e-05
3.24087e-05
-3.29189e-05
7.27757e-08
7.50119e-08
6.79366e-08
7.29983e-08
3.24032e-05
-3.29161e-05
1.40268e-07
-1.42846e-07
1.36793e-07
-1.40546e-07
-1.39952e-07
1.38301e-07
-1.37433e-07
-3.24382e-05
3.2947e-05
-8.13048e-08
-6.62527e-08
-7.85669e-08
3.29417e-05
3.24055e-05
-3.29162e-05
7.11313e-08
7.3134e-08
7.05559e-08
7.44728e-08
3.24006e-05
-3.29144e-05
1.38517e-07
-1.40079e-07
1.39376e-07
-1.4209e-07
-1.36826e-07
1.39662e-07
-1.39732e-07
-3.24362e-05
3.29456e-05
-7.84019e-08
-6.83968e-08
-8.14998e-08
3.29399e-05
3.24079e-05
-3.29151e-05
7.35898e-08
7.45133e-08
7.07457e-08
7.54498e-08
3.24028e-05
-3.29138e-05
1.40572e-07
-1.42625e-07
1.39896e-07
-1.42693e-07
-1.40845e-07
1.3992e-07
-1.38979e-07
-3.24373e-05
3.29444e-05
-8.22607e-08
-6.69814e-08
-8.02412e-08
3.29381e-05
3.2407e-05
-3.29144e-05
7.31613e-08
7.50588e-08
7.26101e-08
7.64393e-08
3.24017e-05
-3.29138e-05
1.40224e-07
-1.42225e-07
1.41086e-07
-1.43498e-07
-1.39884e-07
1.41237e-07
-1.41222e-07
-3.24365e-05
3.29443e-05
-8.1579e-08
-6.96973e-08
-8.27772e-08
3.29385e-05
3.2409e-05
-3.29165e-05
7.52029e-08
7.70184e-08
7.09235e-08
7.5943e-08
3.24034e-05
-3.29141e-05
1.42175e-07
-1.44482e-07
1.39598e-07
-1.42857e-07
-1.41813e-07
1.40781e-07
-1.40807e-07
-3.24383e-05
3.29451e-05
-8.33557e-08
-6.94291e-08
-8.24873e-08
3.29392e-05
3.24082e-05
-3.29172e-05
7.34948e-08
7.50655e-08
7.16973e-08
7.59362e-08
3.24038e-05
-3.29149e-05
1.40386e-07
-1.43132e-07
1.40437e-07
-1.4368e-07
-1.40504e-07
1.4154e-07
-1.41402e-07
-3.24381e-05
3.2946e-05
-8.24159e-08
-6.93323e-08
-8.25901e-08
3.29396e-05
3.241e-05
-3.29187e-05
7.46793e-08
7.61493e-08
6.9952e-08
7.43477e-08
3.2405e-05
-3.29171e-05
1.42045e-07
-1.43669e-07
1.38664e-07
-1.41232e-07
-1.41318e-07
1.38643e-07
-1.38766e-07
-3.24398e-05
3.29479e-05
-8.29232e-08
-6.70067e-08
-8.01887e-08
3.29418e-05
3.24085e-05
-3.29178e-05
7.2882e-08
7.33434e-08
6.95943e-08
7.34823e-08
3.24032e-05
-3.29161e-05
1.39355e-07
-1.40925e-07
1.38372e-07
-1.40953e-07
-1.3821e-07
1.38974e-07
-1.39272e-07
-3.24377e-05
3.29471e-05
-7.98824e-08
-6.7112e-08
-8.04818e-08
3.29409e-05
3.2408e-05
-3.29184e-05
7.26358e-08
7.33616e-08
6.95691e-08
7.36697e-08
3.24029e-05
-3.29167e-05
1.39894e-07
-1.40991e-07
1.38359e-07
-1.41095e-07
-1.39216e-07
1.38802e-07
-1.3914e-07
-3.24375e-05
3.29476e-05
-8.07523e-08
-6.70083e-08
-8.05802e-08
3.29406e-05
3.24076e-05
-3.29174e-05
7.23401e-08
7.3706e-08
6.92848e-08
7.44241e-08
3.24025e-05
-3.29151e-05
1.3966e-07
-1.41796e-07
1.37827e-07
-1.4083e-07
-1.37989e-07
1.38435e-07
-1.3815e-07
-3.24375e-05
3.29457e-05
-7.96742e-08
-6.63375e-08
-8.01638e-08
3.294e-05
3.24065e-05
-3.29144e-05
7.28662e-08
7.42492e-08
7.08032e-08
7.54157e-08
3.24014e-05
-3.29132e-05
1.39657e-07
-1.41453e-07
1.40048e-07
-1.427e-07
-1.39687e-07
1.40396e-07
-1.40543e-07
-3.24363e-05
3.29436e-05
-8.08121e-08
-6.87964e-08
-8.17923e-08
3.29375e-05
3.24076e-05
-3.29153e-05
7.44451e-08
7.56388e-08
7.16264e-08
7.6343e-08
3.24018e-05
-3.29138e-05
1.41547e-07
-1.42414e-07
1.40666e-07
-1.43238e-07
-1.40142e-07
1.4084e-07
-1.41383e-07
-3.24368e-05
3.29443e-05
-8.21289e-08
-6.86483e-08
-8.32535e-08
3.29388e-05
3.24088e-05
-3.29164e-05
7.45703e-08
7.60368e-08
7.20622e-08
7.66456e-08
3.24031e-05
-3.29139e-05
1.41602e-07
-1.4368e-07
1.40591e-07
-1.41589e-07
-1.41257e-07
1.40709e-07
-1.40715e-07
-3.24374e-05
3.29411e-05
-8.28513e-08
-6.89349e-08
-8.26765e-08
3.29391e-05
3.24095e-05
-3.29169e-05
7.47807e-08
7.62756e-08
7.09766e-08
7.54514e-08
3.24043e-05
-3.29141e-05
1.41387e-07
-1.45553e-07
1.39621e-07
-1.41971e-07
-1.41728e-07
1.41119e-07
-1.40373e-07
-3.24389e-05
3.29419e-05
-8.28273e-08
-6.92043e-08
-8.13702e-08
3.294e-05
3.24092e-05
-3.29186e-05
7.43895e-08
7.43918e-08
7.06768e-08
7.5097e-08
3.24043e-05
-3.29174e-05
1.41707e-07
-1.43926e-07
1.39405e-07
-1.40439e-07
-1.41028e-07
1.3931e-07
-1.40402e-07
-3.24386e-05
3.29451e-05
-8.2284e-08
-6.81015e-08
-8.14179e-08
3.29428e-05
3.24094e-05
-3.29176e-05
7.2849e-08
7.45568e-08
6.85246e-08
7.36884e-08
3.24037e-05
-3.29162e-05
1.39841e-07
-1.4336e-07
1.37582e-07
-1.40555e-07
-1.38423e-07
1.38903e-07
-1.39185e-07
-3.24385e-05
3.29423e-05
-8.06028e-08
-6.64875e-08
-8.06383e-08
3.29416e-05
3.24071e-05
-3.29167e-05
7.15444e-08
7.33108e-08
7.02812e-08
7.39474e-08
3.24021e-05
-3.29151e-05
1.37788e-07
-1.39923e-07
1.38439e-07
-1.41128e-07
-1.37878e-07
1.39029e-07
-1.39074e-07
-3.24363e-05
3.29439e-05
-7.92905e-08
-6.82886e-08
-7.99417e-08
3.29399e-05
3.24082e-05
-3.29157e-05
7.25907e-08
7.4173e-08
7.03605e-08
7.34302e-08
3.24018e-05
-3.29148e-05
1.40688e-07
-1.41227e-07
1.35555e-07
-1.39214e-07
-1.3903e-07
1.38274e-07
-1.37303e-07
-3.24343e-05
3.29482e-05
-7.84097e-08
-6.83825e-08
-7.13569e-08
3.29399e-05
3.24032e-05
-3.29585e-05
7.46467e-08
7.5133e-08
3.80678e-08
4.46528e-08
3.23982e-05
-3.29581e-05
1.39312e-07
-1.38149e-07
9.85535e-08
-9.84287e-08
-1.3625e-07
9.82058e-08
-1.01456e-07
-3.2433e-05
3.29889e-05
-7.38301e-08
-3.19165e-08
-3.42889e-08
3.29859e-05
3.23311e-05
-3.37953e-05
-2.57835e-08
-2.32905e-08
-1.56533e-06
-1.56038e-06
3.23238e-05
-3.37968e-05
4.19765e-08
-4.43939e-08
-9.21525e-07
9.34961e-07
-3.63e-08
-9.02374e-07
9.35713e-07
-3.23466e-05
3.38208e-05