/*--------------------------------*- C++ -*----------------------------------*\
| =========                 |                                                 |
| \\      /  F ield         | OpenFOAM: The Open Source CFD Toolbox           |
|  \\    /   O peration     | Version:  2206                                  |
|   \\  /    A nd           | Website:  www.openfoam.com                      |
|    \\/     M anipulation  |                                                 |
\*---------------------------------------------------------------------------*/
FoamFile
{
    version     2.0;
    format      ascii;
    arch        "LSB;label=32;scalar=64";
    class       volScalarField;
    location    "39.5";
    object      p;
}
// * * * * * * * * * * * * * * * * * * * * * * * * * * * * * * * * * * * * * //

dimensions      [0 2 -2 0 0 0 0];

internalField   nonuniform List<scalar> 
28448
(
0.00115629
0.00115625
0.00115625
0.00115861
0.00111641
0.00111636
0.00111636
0.00111873
0.00107652
0.00107648
0.00107648
0.00107885
0.00103664
0.0010366
0.0010366
0.00103897
0.000996764
0.000996722
0.000996722
0.000999089
0.000956884
0.000956842
0.000956843
0.00095921
0.000917005
0.000916963
0.000916964
0.000919331
0.000877122
0.000877081
0.00087708
0.000879448
0.000837234
0.000837192
0.000837191
0.000839558
0.00079735
0.000797307
0.000797308
0.000799675
0.00075747
0.000757428
0.000757428
0.000759795
0.000717589
0.000717547
0.000717547
0.000719914
0.000677706
0.000677665
0.000677664
0.000680032
0.000637823
0.000637781
0.000637781
0.000640149
0.00059794
0.000597898
0.000597898
0.000600265
0.000558058
0.000558016
0.000558016
0.000560383
0.000518177
0.000518135
0.000518135
0.000520502
0.000478299
0.000478257
0.00116386
0.00116622
0.00116622
0.00116386
0.00116622
0.00116622
0.00116622
0.00116622
0.00116386
0.00116622
0.00116622
0.00116386
0.00115862
0.00112398
0.00115625
0.00115625
0.00112633
0.00112633
0.00115862
0.00112398
0.00115625
0.00115625
0.00112633
0.00112633
0.00115625
0.00112633
0.00112634
0.00115861
0.00112398
0.00115625
0.00112633
0.00112633
0.00112398
0.00111873
0.00108409
0.00111636
0.00111636
0.00108645
0.00108645
0.00111873
0.00108409
0.00111636
0.00111636
0.00108645
0.00108645
0.00111636
0.00108645
0.00108645
0.00111873
0.00108409
0.00111636
0.00108645
0.00108645
0.00108409
0.00107885
0.00104421
0.00107648
0.00107648
0.00104657
0.00104657
0.00107885
0.00104421
0.00107648
0.00107648
0.00104657
0.00104657
0.00107648
0.00104657
0.00104657
0.00107885
0.00104421
0.00107648
0.00104657
0.00104657
0.00104421
0.00103897
0.00100433
0.0010366
0.0010366
0.00100669
0.00100669
0.00103897
0.00100433
0.0010366
0.0010366
0.00100669
0.00100669
0.0010366
0.00100669
0.00100669
0.00103897
0.00100433
0.0010366
0.00100669
0.00100669
0.00100433
0.000999088
0.000964454
0.000996722
0.000996722
0.000966812
0.000966812
0.000999089
0.000964454
0.000996721
0.000996722
0.000966812
0.000966812
0.000996722
0.000966812
0.000966813
0.000999088
0.000964454
0.000996722
0.000966813
0.000966813
0.000964454
0.000959209
0.000924574
0.000956842
0.000956842
0.000926933
0.000926933
0.000959209
0.000924575
0.000956842
0.000956843
0.000926933
0.000926933
0.000956843
0.000926933
0.000926933
0.00095921
0.000924575
0.000956843
0.000926933
0.000926933
0.000924575
0.00091933
0.000884693
0.000916963
0.000916963
0.000887052
0.000887052
0.00091933
0.000884693
0.000916963
0.000916963
0.000887052
0.000887052
0.000916964
0.000887052
0.000887052
0.000919331
0.000884693
0.000916964
0.000887052
0.000887052
0.000884693
0.000879448
0.000844805
0.000877081
0.000877081
0.000847165
0.000847164
0.000879448
0.000844805
0.00087708
0.00087708
0.000847164
0.000847164
0.000877081
0.000847164
0.000847164
0.000879448
0.000844804
0.00087708
0.000847164
0.000847164
0.000844804
0.000839559
0.000804919
0.000837192
0.000837192
0.000807278
0.000807278
0.000839559
0.000804919
0.000837192
0.000837192
0.000807278
0.000807278
0.000837192
0.000807278
0.000807278
0.000839558
0.000804919
0.000837191
0.000807278
0.000807278
0.000804919
0.000799674
0.000765039
0.000797308
0.000797307
0.000767398
0.000767398
0.000799674
0.000765039
0.000797307
0.000797308
0.000767398
0.000767398
0.000797308
0.000767398
0.000767398
0.000799675
0.00076504
0.000797308
0.000767398
0.000767398
0.000765039
0.000759795
0.000725159
0.000757428
0.000757428
0.000727517
0.000727517
0.000759795
0.000725159
0.000757428
0.000757428
0.000727517
0.000727517
0.000757428
0.000727517
0.000727518
0.000759795
0.000725159
0.000757428
0.000727517
0.000727517
0.000725159
0.000719914
0.000685276
0.000717547
0.000717547
0.000687635
0.000687635
0.000719914
0.000685277
0.000717547
0.000717547
0.000687635
0.000687635
0.000717547
0.000687635
0.000687635
0.000719914
0.000685276
0.000717547
0.000687635
0.000687635
0.000685277
0.000680031
0.000645393
0.000677664
0.000677664
0.000647752
0.000647752
0.000680032
0.000645394
0.000677664
0.000677664
0.000647752
0.000647752
0.000677665
0.000647752
0.000647752
0.000680031
0.000645393
0.000677665
0.000647752
0.000647752
0.000645394
0.000640148
0.00060551
0.000637781
0.000637781
0.000607869
0.000607869
0.000640148
0.00060551
0.000637781
0.000637781
0.000607869
0.000607869
0.000637782
0.000607869
0.000607869
0.000640148
0.00060551
0.000637781
0.000607869
0.000607869
0.00060551
0.000600265
0.000565628
0.000597898
0.000597898
0.000567986
0.000567986
0.000600265
0.000565628
0.000597898
0.000597898
0.000567986
0.000567986
0.000597898
0.000567986
0.000567987
0.000600265
0.000565627
0.000597898
0.000567986
0.000567986
0.000565628
0.000560383
0.000525747
0.000558016
0.000558016
0.000528105
0.000528105
0.000560383
0.000525747
0.000558016
0.000558016
0.000528105
0.000528105
0.000558016
0.000528105
0.000528105
0.000560383
0.000525747
0.000558016
0.000528105
0.000528105
0.000525747
0.000520502
0.000485868
0.000518135
0.000518135
0.000488226
0.000520502
0.000518135
0.000518135
0.000488226
0.000488226
0.000518136
0.000488226
0.000520502
0.000485868
0.000518135
0.000488226
0.000488226
0.000485868
0.000480623
0.000478256
0.000478257
0.000480623
0.00116626
0.00116626
0.00116626
0.00116626
0.00114382
0.00115874
0.00115875
0.00114382
0.00115874
0.00114382
0.00114382
0.00115874
0.00115875
0.00114382
0.00115629
0.00115629
0.00115629
0.00112638
0.00112638
0.00112638
0.00112638
0.00114386
0.00115871
0.00115626
0.00114628
0.0011587
0.00114385
0.00114629
0.00115874
0.00114382
0.00114386
0.00115626
0.00115871
0.00114628
0.0011587
0.00114629
0.00114385
0.00115875
0.00115875
0.00114392
0.00114381
0.00114381
0.00110393
0.00111886
0.00111886
0.00110393
0.00111886
0.00110393
0.00110393
0.00111886
0.00111886
0.00110393
0.00111641
0.00111641
0.00111641
0.00108649
0.00108649
0.00108649
0.00108649
0.00110398
0.00111883
0.00111637
0.00110639
0.00111882
0.00110397
0.0011064
0.00111886
0.00110393
0.00110398
0.00111637
0.00111883
0.00110639
0.00111882
0.0011064
0.00110397
0.00111886
0.00111886
0.00110404
0.00110393
0.00110393
0.00106405
0.00107898
0.00107898
0.00106405
0.00107898
0.00106405
0.00106405
0.00107898
0.00107898
0.00106405
0.00107652
0.00107652
0.00107652
0.00104661
0.00104661
0.00104661
0.00104661
0.0010641
0.00107894
0.00107649
0.00106651
0.00107894
0.00106408
0.00106652
0.00107898
0.00106405
0.0010641
0.00107649
0.00107894
0.00106651
0.00107894
0.00106652
0.00106408
0.00107898
0.00107898
0.00106415
0.00106405
0.00106405
0.00102417
0.0010391
0.0010391
0.00102417
0.0010391
0.00102417
0.00102417
0.0010391
0.0010391
0.00102417
0.00103664
0.00103664
0.00103664
0.00100673
0.00100673
0.00100673
0.00100673
0.00102422
0.00103906
0.00103661
0.00102663
0.00103906
0.00102421
0.00102664
0.0010391
0.00102417
0.00102422
0.00103661
0.00103906
0.00102663
0.00103906
0.00102664
0.0010242
0.0010391
0.0010391
0.00102427
0.00102417
0.00102417
0.000984292
0.000999216
0.00099922
0.000984293
0.000999218
0.000984292
0.000984292
0.000999216
0.00099922
0.000984293
0.000996764
0.000996764
0.000996763
0.000966854
0.000966854
0.000966854
0.000966854
0.00098434
0.000999184
0.000996732
0.000986752
0.000999177
0.000984325
0.000986762
0.000999218
0.000984292
0.000984342
0.000996731
0.000999184
0.000986752
0.000999177
0.000986762
0.000984326
0.000999222
0.000999222
0.000984394
0.000984289
0.000984289
0.000944413
0.000959337
0.000959341
0.000944414
0.000959339
0.000944414
0.000944413
0.000959337
0.000959341
0.000944415
0.000956884
0.000956885
0.000956885
0.000926975
0.000926975
0.000926975
0.000926975
0.000944461
0.000959304
0.000956852
0.000946873
0.000959298
0.000944446
0.000946883
0.000959339
0.000944413
0.000944462
0.000956853
0.000959305
0.000946873
0.000959299
0.000946883
0.000944446
0.000959343
0.000959344
0.000944514
0.00094441
0.000944411
0.000904535
0.000919458
0.000919462
0.000904536
0.00091946
0.000904535
0.000904534
0.000919458
0.000919463
0.000904536
0.000917005
0.000917005
0.000917005
0.000887093
0.000887093
0.000887094
0.000887094
0.000904582
0.000919425
0.000916973
0.000906993
0.000919419
0.000904567
0.000907003
0.000919461
0.000904535
0.000904582
0.000916973
0.000919426
0.000906994
0.00091942
0.000907003
0.000904567
0.000919465
0.000919465
0.000904635
0.000904532
0.000904532
0.000864652
0.000879578
0.000879581
0.000864652
0.000879579
0.000864651
0.000864651
0.000879578
0.000879582
0.000864652
0.000877122
0.000877122
0.000877122
0.000847206
0.000847206
0.000847206
0.000847205
0.000864698
0.000879545
0.00087709
0.000867109
0.000879538
0.000864683
0.000867119
0.000879579
0.000864649
0.000864697
0.00087709
0.000879544
0.000867108
0.000879537
0.000867118
0.000864682
0.000879583
0.000879583
0.00086475
0.000864647
0.000864646
0.000824759
0.000839687
0.000839691
0.000824761
0.000839688
0.000824759
0.000824759
0.000839687
0.000839691
0.000824761
0.000837234
0.000837233
0.000837233
0.00080732
0.00080732
0.00080732
0.00080732
0.000824807
0.000839654
0.000837202
0.00082722
0.000839647
0.000824792
0.00082723
0.000839688
0.000824759
0.000824807
0.000837201
0.000839653
0.00082722
0.000839646
0.000827229
0.000824792
0.000839692
0.000839692
0.00082486
0.000824756
0.000824756
0.000784878
0.000799802
0.000799806
0.000784879
0.000799804
0.000784878
0.000784878
0.000799802
0.000799806
0.00078488
0.000797349
0.00079735
0.00079735
0.00076744
0.00076744
0.00076744
0.00076744
0.000784926
0.000799769
0.000797318
0.000787338
0.000799763
0.000784911
0.000787348
0.000799804
0.000784878
0.000784926
0.000797318
0.00079977
0.000787338
0.000799763
0.000787348
0.000784911
0.000799808
0.000799808
0.000784979
0.000784875
0.000784876
0.000744999
0.000759923
0.000759927
0.000745
0.000759924
0.000744999
0.000744999
0.000759923
0.000759927
0.000745
0.00075747
0.00075747
0.00075747
0.000727559
0.000727559
0.000727559
0.000727559
0.000745046
0.00075989
0.000757438
0.000747458
0.000759884
0.000745031
0.000747468
0.000759925
0.000744999
0.000745047
0.000757438
0.00075989
0.000747458
0.000759884
0.000747468
0.000745031
0.000759929
0.000759929
0.000745099
0.000744996
0.000744996
0.000705117
0.000720042
0.000720046
0.000705118
0.000720044
0.000705117
0.000705117
0.000720042
0.000720046
0.000705118
0.000717589
0.000717589
0.000717589
0.000687677
0.000687677
0.000687677
0.000687677
0.000705165
0.000720009
0.000717557
0.000707576
0.000720003
0.00070515
0.000707586
0.000720044
0.000705117
0.000705165
0.000717557
0.000720009
0.000707576
0.000720002
0.000707586
0.00070515
0.000720048
0.000720048
0.000705218
0.000705114
0.000705114
0.000665234
0.00068016
0.000680164
0.000665235
0.000680161
0.000665234
0.000665234
0.00068016
0.000680164
0.000665235
0.000677706
0.000677706
0.000677706
0.000647794
0.000647794
0.000647794
0.000647794
0.000665282
0.000680127
0.000677675
0.000667694
0.00068012
0.000665267
0.000667704
0.000680161
0.000665234
0.000665282
0.000677674
0.000680127
0.000667694
0.00068012
0.000667704
0.000665267
0.000680165
0.000680165
0.000665335
0.000665231
0.000665231
0.000625351
0.000640277
0.00064028
0.000625352
0.000640278
0.000625351
0.000625351
0.000640276
0.00064028
0.000625352
0.000637823
0.000637823
0.000637823
0.000607911
0.000607911
0.000607911
0.000607911
0.000625399
0.000640244
0.000637791
0.000627811
0.000640237
0.000625384
0.000627821
0.000640278
0.000625351
0.000625399
0.000637791
0.000640244
0.00062781
0.000640237
0.00062782
0.000625383
0.000640282
0.000640282
0.000625452
0.000625348
0.000625348
0.000585468
0.000600393
0.000600397
0.000585469
0.000600395
0.000585468
0.000585468
0.000600393
0.000600397
0.000585469
0.00059794
0.00059794
0.00059794
0.000568028
0.000568028
0.000568028
0.000568028
0.000585516
0.00060036
0.000597908
0.000587928
0.000600354
0.000585501
0.000587938
0.000600395
0.000585468
0.000585516
0.000597908
0.00060036
0.000587927
0.000600354
0.000587937
0.0005855
0.000600399
0.000600399
0.000585569
0.000585465
0.000585465
0.000545586
0.000560511
0.000560515
0.000545587
0.000560512
0.000545586
0.000545586
0.000560511
0.000560515
0.000545587
0.000558058
0.000558058
0.000558058
0.000528147
0.000528147
0.000528147
0.000528147
0.000545634
0.000560478
0.000558026
0.000548046
0.000560471
0.000545619
0.000548055
0.000560512
0.000545586
0.000545634
0.000558026
0.000560478
0.000548046
0.000560471
0.000548055
0.000545619
0.000560516
0.000560517
0.000545687
0.000545583
0.000545583
0.000505706
0.00052063
0.000520634
0.000505707
0.000520632
0.000505706
0.000505706
0.00052063
0.000520634
0.000505707
0.000518177
0.000518177
0.000518177
0.000488268
0.000488268
0.000488268
0.000488268
0.000505754
0.000520597
0.000518145
0.000508166
0.000520591
0.000505739
0.000508175
0.000520632
0.000505706
0.000505754
0.000518145
0.000520597
0.000508166
0.000520591
0.000508175
0.000505739
0.000520636
0.000520636
0.000505807
0.000505703
0.000505703
0.000480752
0.000480756
0.000478299
0.000480753
0.000480718
0.00116376
0.00116376
0.00116376
0.00116376
0.00116376
0.00116376
0.00116376
0.00116376
0.00116379
0.00116623
0.00116381
0.00116379
0.00116623
0.00116381
0.00116376
0.00116376
0.00116376
0.00116376
0.00116376
0.00116376
0.00116379
0.00116623
0.00116381
0.00117869
0.00116376
0.00117869
0.00116376
0.00117865
0.00117619
0.00116623
0.00116379
0.0011762
0.00117865
0.00116381
0.00117865
0.00116379
0.00116623
0.0011762
0.00116381
0.00117869
0.00116376
0.00116376
0.00117865
0.00117619
0.00116623
0.00116379
0.0011762
0.00117865
0.00116381
0.00117869
0.00116376
0.00117869
0.00116376
0.00116376
0.00117869
0.00117856
0.00116376
0.00116376
0.00117869
0.00117869
0.00116376
0.00117869
0.00117865
0.00117619
0.00116623
0.00116379
0.0011762
0.00117865
0.00116381
0.00117865
0.00117619
0.00116623
0.00116379
0.0011762
0.00117865
0.00116381
0.00117869
0.00116376
0.00117869
0.00116376
0.00117869
0.00116376
0.00117869
0.00116376
0.00117856
0.00116376
0.00116376
0.00117869
0.00117869
0.00116376
0.00117869
0.00116376
0.00117869
0.00115874
0.00114382
0.00115874
0.00114382
0.00115875
0.00115875
0.00114392
0.00114381
0.00114381
0.00112388
0.0011388
0.00112388
0.0011388
0.00113867
0.00112387
0.00112387
0.00113881
0.00113881
0.00114382
0.00115874
0.00115875
0.00114382
0.00114386
0.00115871
0.00115626
0.00114628
0.0011587
0.00114385
0.00114629
0.00114386
0.00115871
0.00115626
0.00114628
0.0011587
0.00114385
0.00114629
0.0011388
0.00112388
0.0011388
0.00112388
0.0011388
0.00112388
0.0011388
0.00112388
0.00113876
0.00113631
0.00112391
0.00112634
0.00113877
0.00113632
0.00112392
0.00113876
0.00113631
0.00112391
0.00112634
0.00113877
0.00113632
0.00112392
0.00115875
0.00115875
0.00114392
0.00114381
0.00114381
0.00115874
0.00114382
0.00112388
0.0011388
0.00113867
0.00112387
0.00112387
0.00113881
0.00113881
0.00112388
0.0011388
0.00114386
0.00115871
0.00115626
0.00114628
0.0011587
0.00114385
0.00114629
0.00114382
0.00115874
0.00115875
0.00114382
0.00114386
0.00115626
0.00115871
0.00114628
0.0011587
0.00114629
0.00114385
0.0011388
0.00112388
0.0011388
0.00112388
0.00113876
0.00113631
0.00112391
0.00112634
0.00113877
0.00113632
0.00112392
0.0011388
0.00112388
0.0011388
0.00112388
0.00113876
0.00113631
0.00112634
0.00112391
0.00113632
0.00113877
0.00112392
0.00114382
0.00115874
0.00115875
0.00114382
0.00114386
0.00115626
0.00115871
0.00114628
0.0011587
0.00114629
0.00114385
0.00114382
0.00115874
0.00115875
0.00114382
0.00113876
0.00113631
0.00112391
0.00112634
0.00113877
0.00113632
0.00112392
0.0011388
0.00112388
0.0011388
0.00112388
0.00113876
0.00113631
0.00112634
0.00112391
0.00113632
0.00113877
0.00112392
0.0011388
0.00112388
0.0011388
0.00112388
0.00115875
0.00115875
0.00114392
0.00114381
0.00114381
0.00115874
0.00114382
0.00112388
0.0011388
0.00113867
0.00112387
0.00112387
0.00113881
0.00113881
0.00112388
0.0011388
0.00114386
0.00115626
0.00115871
0.00114628
0.0011587
0.00114629
0.00114385
0.00114382
0.00115874
0.00115875
0.00114382
0.00114382
0.00115874
0.00115875
0.00114382
0.00113876
0.00113631
0.00112634
0.00112391
0.00113632
0.00113877
0.00112392
0.00113876
0.00113631
0.00112634
0.00112391
0.00113632
0.00113877
0.00112392
0.0011388
0.00112388
0.0011388
0.00112388
0.0011388
0.00112388
0.0011388
0.00112388
0.00115874
0.00114382
0.00115874
0.00114382
0.00113867
0.00112387
0.00112387
0.00113881
0.00113881
0.00112388
0.0011388
0.00112388
0.0011388
0.00111886
0.00110393
0.00111886
0.00110393
0.00111886
0.00111886
0.00110403
0.00110393
0.00110393
0.00108399
0.00109892
0.00108399
0.00109892
0.00109879
0.00108399
0.00108399
0.00109892
0.00109892
0.00110393
0.00111886
0.00111886
0.00110393
0.00110398
0.00111883
0.00111637
0.00110639
0.00111882
0.00110397
0.0011064
0.00110398
0.00111883
0.00111637
0.00110639
0.00111882
0.00110397
0.0011064
0.00109892
0.00108399
0.00109892
0.00108399
0.00109892
0.00108399
0.00109892
0.00108399
0.00109888
0.00109642
0.00108403
0.00108646
0.00109888
0.00109643
0.00108404
0.00109888
0.00109642
0.00108403
0.00108646
0.00109888
0.00109643
0.00108404
0.00111886
0.00111886
0.00110403
0.00110393
0.00110393
0.00111886
0.00110393
0.00108399
0.00109892
0.00109879
0.00108399
0.00108399
0.00109892
0.00109892
0.00108399
0.00109892
0.00110398
0.00111883
0.00111637
0.00110639
0.00111882
0.00110397
0.0011064
0.00110393
0.00111886
0.00111886
0.00110393
0.00110398
0.00111637
0.00111883
0.00110639
0.00111882
0.0011064
0.00110397
0.00109892
0.00108399
0.00109892
0.00108399
0.00109888
0.00109642
0.00108403
0.00108646
0.00109888
0.00109643
0.00108404
0.00109892
0.00108399
0.00109892
0.00108399
0.00109888
0.00109642
0.00108646
0.00108403
0.00109643
0.00109888
0.00108404
0.00110393
0.00111886
0.00111886
0.00110393
0.00110398
0.00111637
0.00111883
0.00110639
0.00111882
0.0011064
0.00110397
0.00110393
0.00111886
0.00111886
0.00110393
0.00109888
0.00109642
0.00108403
0.00108646
0.00109888
0.00109643
0.00108404
0.00109892
0.00108399
0.00109892
0.00108399
0.00109888
0.00109642
0.00108646
0.00108403
0.00109643
0.00109888
0.00108404
0.00109892
0.00108399
0.00109892
0.00108399
0.00111886
0.00111886
0.00110403
0.00110393
0.00110393
0.00111886
0.00110393
0.00108399
0.00109892
0.00109879
0.00108399
0.00108399
0.00109892
0.00109892
0.00108399
0.00109892
0.00110398
0.00111637
0.00111883
0.00110639
0.00111882
0.0011064
0.00110397
0.00110393
0.00111886
0.00111886
0.00110393
0.00110393
0.00111886
0.00111886
0.00110393
0.00109888
0.00109642
0.00108646
0.00108403
0.00109643
0.00109888
0.00108404
0.00109888
0.00109642
0.00108646
0.00108403
0.00109643
0.00109889
0.00108404
0.00109892
0.00108399
0.00109892
0.00108399
0.00109892
0.00108399
0.00109892
0.00108399
0.00111886
0.00110393
0.00111886
0.00110393
0.00109879
0.00108399
0.00108399
0.00109892
0.00109892
0.00108399
0.00109892
0.00108399
0.00109892
0.00107898
0.00106405
0.00107898
0.00106405
0.00107898
0.00107898
0.00106415
0.00106405
0.00106405
0.00104411
0.00105904
0.00104411
0.00105904
0.00105891
0.00104411
0.00104411
0.00105904
0.00105904
0.00106405
0.00107898
0.00107898
0.00106405
0.0010641
0.00107894
0.00107649
0.00106651
0.00107894
0.00106409
0.00106652
0.0010641
0.00107894
0.00107649
0.00106651
0.00107894
0.00106408
0.00106652
0.00105904
0.00104411
0.00105904
0.00104411
0.00105904
0.00104411
0.00105904
0.00104411
0.001059
0.00105654
0.00104414
0.00104658
0.001059
0.00105655
0.00104416
0.001059
0.00105654
0.00104414
0.00104658
0.001059
0.00105655
0.00104416
0.00107898
0.00107898
0.00106415
0.00106405
0.00106405
0.00107898
0.00106405
0.00104411
0.00105904
0.00105891
0.00104411
0.00104411
0.00105904
0.00105904
0.00104411
0.00105904
0.0010641
0.00107894
0.00107649
0.00106651
0.00107894
0.00106409
0.00106652
0.00106405
0.00107898
0.00107898
0.00106405
0.0010641
0.00107649
0.00107894
0.00106651
0.00107894
0.00106652
0.00106408
0.00105904
0.00104411
0.00105904
0.00104411
0.001059
0.00105654
0.00104414
0.00104658
0.001059
0.00105655
0.00104416
0.00105904
0.00104411
0.00105904
0.00104411
0.001059
0.00105654
0.00104658
0.00104414
0.00105655
0.001059
0.00104416
0.00106405
0.00107898
0.00107898
0.00106405
0.0010641
0.00107649
0.00107894
0.00106651
0.00107894
0.00106652
0.00106408
0.00106405
0.00107898
0.00107898
0.00106405
0.001059
0.00105654
0.00104414
0.00104658
0.001059
0.00105655
0.00104416
0.00105904
0.00104411
0.00105904
0.00104411
0.001059
0.00105654
0.00104658
0.00104414
0.00105655
0.001059
0.00104416
0.00105904
0.00104411
0.00105904
0.00104411
0.00107898
0.00107898
0.00106415
0.00106405
0.00106405
0.00107898
0.00106405
0.00104411
0.00105904
0.00105891
0.00104411
0.00104411
0.00105904
0.00105904
0.00104411
0.00105904
0.0010641
0.00107649
0.00107894
0.00106651
0.00107894
0.00106652
0.00106408
0.00106405
0.00107898
0.00107898
0.00106405
0.00106405
0.00107898
0.00107898
0.00106405
0.001059
0.00105654
0.00104658
0.00104414
0.00105655
0.001059
0.00104416
0.001059
0.00105654
0.00104658
0.00104414
0.00105655
0.001059
0.00104416
0.00105904
0.00104411
0.00105904
0.00104411
0.00105904
0.00104411
0.00105904
0.00104411
0.00107898
0.00106405
0.00107898
0.00106405
0.00105891
0.00104411
0.00104411
0.00105904
0.00105904
0.00104411
0.00105904
0.00104411
0.00105904
0.0010391
0.00102417
0.0010391
0.00102417
0.0010391
0.0010391
0.00102427
0.00102417
0.00102417
0.00100423
0.00101916
0.00100423
0.00101916
0.00101903
0.00100423
0.00100423
0.00101916
0.00101916
0.00102417
0.0010391
0.0010391
0.00102417
0.00102422
0.00103906
0.00103661
0.00102663
0.00103906
0.0010242
0.00102664
0.00102422
0.00103906
0.00103661
0.00102663
0.00103906
0.0010242
0.00102664
0.00101916
0.00100423
0.00101916
0.00100423
0.00101916
0.00100423
0.00101916
0.00100423
0.00101912
0.00101666
0.00100426
0.0010067
0.00101912
0.00101667
0.00100428
0.00101912
0.00101666
0.00100426
0.0010067
0.00101912
0.00101667
0.00100428
0.0010391
0.0010391
0.00102427
0.00102417
0.00102417
0.0010391
0.00102417
0.00100423
0.00101916
0.00101903
0.00100423
0.00100423
0.00101916
0.00101916
0.00100423
0.00101916
0.00102422
0.00103906
0.00103661
0.00102663
0.00103906
0.0010242
0.00102664
0.00102417
0.0010391
0.0010391
0.00102417
0.00102422
0.00103661
0.00103906
0.00102663
0.00103906
0.00102664
0.0010242
0.00101916
0.00100423
0.00101916
0.00100423
0.00101912
0.00101666
0.00100426
0.0010067
0.00101912
0.00101667
0.00100428
0.00101916
0.00100423
0.00101916
0.00100423
0.00101912
0.00101666
0.0010067
0.00100426
0.00101667
0.00101912
0.00100428
0.00102417
0.0010391
0.0010391
0.00102417
0.00102422
0.00103661
0.00103906
0.00102663
0.00103906
0.00102664
0.0010242
0.00102417
0.0010391
0.0010391
0.00102417
0.00101912
0.00101666
0.00100427
0.0010067
0.00101912
0.00101667
0.00100428
0.00101916
0.00100423
0.00101916
0.00100423
0.00101912
0.00101666
0.0010067
0.00100426
0.00101667
0.00101912
0.00100428
0.00101916
0.00100423
0.00101916
0.00100423
0.0010391
0.0010391
0.00102427
0.00102417
0.00102417
0.0010391
0.00102417
0.00100423
0.00101916
0.00101903
0.00100423
0.00100423
0.00101916
0.00101916
0.00100423
0.00101916
0.00102422
0.00103661
0.00103906
0.00102663
0.00103906
0.00102664
0.0010242
0.00102417
0.0010391
0.0010391
0.00102417
0.00102417
0.0010391
0.0010391
0.00102417
0.00101912
0.00101666
0.0010067
0.00100426
0.00101667
0.00101912
0.00100428
0.00101912
0.00101666
0.0010067
0.00100426
0.00101667
0.00101912
0.00100428
0.00101916
0.00100423
0.00101916
0.00100423
0.00101916
0.00100423
0.00101916
0.00100423
0.0010391
0.00102417
0.0010391
0.00102417
0.00101903
0.00100423
0.00100423
0.00101916
0.00101916
0.00100423
0.00101916
0.00100423
0.00101916
0.000999218
0.000984292
0.000999218
0.000984292
0.000999222
0.000999222
0.000984393
0.000984289
0.000984289
0.000964352
0.000979278
0.000964353
0.000979278
0.000979149
0.000964349
0.000964349
0.000979282
0.000979282
0.000984292
0.000999217
0.00099922
0.000984293
0.00098434
0.000999184
0.000996732
0.000986752
0.000999177
0.000984325
0.000986762
0.00098434
0.000999184
0.000996732
0.000986752
0.000999177
0.000984325
0.000986762
0.00097928
0.000964354
0.000979277
0.000964352
0.000979281
0.000964354
0.000979277
0.000964352
0.000979237
0.000976782
0.000964385
0.000966822
0.000979244
0.000976792
0.0009644
0.000979237
0.000976782
0.000964385
0.000966822
0.000979244
0.000976792
0.0009644
0.000999222
0.000999222
0.000984393
0.000984289
0.000984289
0.000999218
0.000984292
0.000964353
0.000979278
0.000979149
0.000964349
0.00096435
0.000979282
0.000979282
0.000964353
0.000979279
0.00098434
0.000999183
0.000996731
0.000986751
0.000999177
0.000984325
0.000986762
0.000984292
0.000999216
0.00099922
0.000984294
0.00098434
0.000996732
0.000999183
0.000986752
0.000999177
0.000986762
0.000984325
0.000979281
0.000964354
0.000979277
0.000964353
0.000979237
0.000976782
0.000964385
0.000966822
0.000979244
0.000976792
0.000964401
0.000979281
0.000964354
0.000979277
0.000964353
0.000979237
0.000976782
0.000966822
0.000964386
0.000976792
0.000979244
0.000964401
0.000984293
0.000999217
0.000999221
0.000984294
0.00098434
0.000996732
0.000999184
0.000986752
0.000999177
0.000986762
0.000984325
0.000984293
0.000999217
0.000999221
0.000984294
0.000979237
0.000976782
0.000964386
0.000966822
0.000979244
0.000976792
0.000964401
0.000979281
0.000964354
0.000979277
0.000964353
0.000979237
0.000976782
0.000966822
0.000964386
0.000976792
0.000979244
0.000964401
0.000979281
0.000964354
0.000979277
0.000964353
0.000999222
0.000999222
0.000984394
0.00098429
0.00098429
0.000999218
0.000984294
0.000964353
0.000979279
0.000979149
0.00096435
0.00096435
0.000979282
0.000979283
0.000964354
0.000979279
0.000984341
0.000996731
0.000999183
0.000986752
0.000999176
0.000986762
0.000984325
0.000984294
0.000999217
0.000999222
0.000984295
0.000984293
0.000999216
0.00099922
0.000984294
0.000979239
0.000976782
0.000966823
0.000964386
0.000976792
0.000979245
0.000964402
0.000979238
0.000976782
0.000966823
0.000964387
0.000976792
0.000979244
0.000964403
0.000979282
0.000964355
0.000979278
0.000964355
0.000979282
0.000964356
0.000979278
0.000964356
0.000999218
0.000984293
0.000999218
0.000984293
0.000979149
0.00096435
0.000964351
0.000979282
0.000979283
0.000964353
0.000979278
0.000964354
0.000979279
0.000959338
0.000944413
0.000959339
0.000944414
0.000959342
0.000959343
0.000944514
0.00094441
0.00094441
0.000924473
0.000939399
0.000924474
0.000939399
0.000939269
0.00092447
0.00092447
0.000939403
0.000939403
0.000944413
0.000959337
0.000959341
0.000944415
0.000944461
0.000959304
0.000956852
0.000946872
0.000959297
0.000944446
0.000946882
0.000944461
0.000959304
0.000956852
0.000946872
0.000959297
0.000944446
0.000946882
0.000939401
0.000924474
0.000939398
0.000924473
0.000939401
0.000924475
0.000939398
0.000924473
0.000939358
0.000936903
0.000924506
0.000926943
0.000939365
0.000936913
0.000924521
0.000939358
0.000936903
0.000924506
0.000926943
0.000939365
0.000936913
0.000924521
0.000959343
0.000959343
0.000944514
0.00094441
0.000944411
0.000959339
0.000944413
0.000924474
0.000939399
0.000939269
0.000924471
0.000924471
0.000939403
0.000939403
0.000924474
0.0009394
0.000944461
0.000959304
0.000956852
0.000946872
0.000959298
0.000944446
0.000946882
0.000944413
0.000959338
0.000959341
0.000944415
0.000944461
0.000956852
0.000959305
0.000946873
0.000959298
0.000946883
0.000944446
0.000939402
0.000924475
0.000939398
0.000924474
0.000939358
0.000936903
0.000924506
0.000926943
0.000939365
0.000936913
0.000924522
0.000939402
0.000924475
0.000939398
0.000924474
0.000939358
0.000936903
0.000926943
0.000924507
0.000936913
0.000939365
0.000924522
0.000944413
0.000959337
0.000959341
0.000944415
0.000944461
0.000956852
0.000959305
0.000946873
0.000959298
0.000946883
0.000944446
0.000944413
0.000959338
0.000959341
0.000944415
0.000939358
0.000936903
0.000924507
0.000926943
0.000939365
0.000936913
0.000924522
0.000939401
0.000924475
0.000939398
0.000924475
0.000939358
0.000936903
0.000926943
0.000924507
0.000936913
0.000939365
0.000924522
0.000939401
0.000924475
0.000939398
0.000924475
0.000959343
0.000959344
0.000944514
0.00094441
0.000944411
0.00095934
0.000944414
0.000924474
0.000939399
0.00093927
0.000924472
0.000924472
0.000939403
0.000939404
0.000924475
0.0009394
0.000944462
0.000956853
0.000959306
0.000946873
0.0009593
0.000946883
0.000944446
0.000944414
0.000959338
0.000959343
0.000944415
0.000944413
0.000959339
0.000959344
0.000944415
0.000939359
0.000936903
0.000926943
0.000924507
0.000936913
0.000939365
0.000924522
0.000939359
0.000936903
0.000926943
0.000924507
0.000936913
0.000939365
0.000924523
0.000939402
0.000924476
0.000939398
0.000924475
0.000939402
0.000924476
0.000939398
0.000924475
0.000959339
0.000944414
0.00095934
0.000944414
0.00093927
0.000924471
0.000924471
0.000939403
0.000939404
0.000924475
0.000939399
0.000924475
0.000939399
0.000919459
0.000904535
0.00091946
0.000904535
0.000919464
0.000919464
0.000904635
0.000904531
0.000904531
0.000884594
0.00089952
0.000884594
0.000899521
0.00089939
0.000884591
0.000884591
0.000899524
0.000899525
0.000904535
0.000919458
0.000919462
0.000904536
0.000904582
0.000919425
0.000916973
0.000906993
0.000919419
0.000904567
0.000907003
0.000904582
0.000919425
0.000916973
0.000906993
0.000919419
0.000904567
0.000907003
0.000899522
0.000884595
0.000899519
0.000884593
0.000899522
0.000884595
0.000899519
0.000884593
0.000899479
0.000897023
0.000884626
0.000887062
0.000899486
0.000897033
0.000884641
0.000899479
0.000897023
0.000884626
0.000887062
0.000899486
0.000897033
0.000884641