/*--------------------------------*- C++ -*----------------------------------*\
| =========                 |                                                 |
| \\      /  F ield         | OpenFOAM: The Open Source CFD Toolbox           |
|  \\    /   O peration     | Version:  2206                                  |
|   \\  /    A nd           | Website:  www.openfoam.com                      |
|    \\/     M anipulation  |                                                 |
\*---------------------------------------------------------------------------*/
FoamFile
{
    version     2.0;
    format      ascii;
    arch        "LSB;label=32;scalar=64";
    class       volScalarField;
    location    "16.5";
    object      nut;
}
// * * * * * * * * * * * * * * * * * * * * * * * * * * * * * * * * * * * * * //

dimensions      [0 2 -1 0 0 0 0];

internalField   nonuniform List<scalar> 
28687
(
0.000228694
0.000216176
0.000216172
0.000199975
0.000228693
0.000216175
0.00021617
0.000199973
0.000228692
0.000216174
0.000216168
0.000199972
0.000228688
0.000216161
0.000216161
0.000199957
0.000228668
0.00021612
0.000216115
0.000199882
0.000228677
0.000216126
0.000216121
0.000199896
0.000228677
0.000216126
0.000216122
0.000199889
0.000228677
0.000216127
0.000216122
0.000199891
0.000228677
0.000216126
0.000216122
0.000199892
0.000228678
0.000216126
0.000216122
0.000199892
0.000228678
0.000216126
0.000216122
0.000199892
0.000228678
0.000216126
0.000216122
0.000199892
0.000228678
0.000216126
0.000216122
0.000199891
0.000228678
0.000216126
0.000216122
0.000199891
0.000228678
0.000216126
0.000216122
0.000199891
0.000228678
0.000216126
0.000216122
0.000199891
0.000228678
0.000216126
0.000216122
0.000199891
0.000228678
0.000216126
0.000216122
0.000199891
0.000216165
0.000200106
0.000216177
0.000199977
0.000200099
0.000216167
0.000216165
0.000216166
0.000216164
0.000199984
0.000200099
0.000216173
0.00021616
0.000216173
0.000216159
0.000216166
0.000216176
0.000216165
0.000199971
0.000200093
0.000216174
0.000216171
0.000216173
0.000200095
0.000199979
0.000200096
0.000216164
0.000216164
0.000216164
0.000216164
0.000199979
0.000200098
0.00021617
0.000216157
0.00021617
0.000216156
0.000216163
0.000216174
0.000216162
0.000199973
0.00020009
0.000216171
0.000216168
0.000216171
0.000200094
0.000199976
0.000200088
0.000216162
0.000216165
0.000216159
0.000216157
0.000199978
0.000200083
0.000216168
0.000216154
0.000216166
0.000216153
0.000216162
0.000216169
0.000216159
0.000199971
0.000200082
0.00021617
0.000216164
0.000216167
0.000200086
0.000199964
0.000200016
0.000216155
0.000216148
0.000216113
0.000216109
0.000199951
0.000200012
0.000216162
0.000216149
0.00021612
0.000216106
0.000216155
0.00021612
0.000216113
0.000199959
0.00020001
0.000216163
0.000216118
0.000216121
0.000200013
0.000199888
0.000200021
0.00021611
0.000216111
0.000216115
0.000216116
0.000199892
0.000200022
0.000216118
0.000216104
0.000216122
0.000216108
0.000216111
0.000216126
0.000216115
0.000199882
0.000200014
0.000216119
0.000216121
0.000216123
0.000200019
0.000199901
0.000200012
0.000216116
0.000216117
0.000216115
0.000216116
0.000199901
0.000200015
0.000216123
0.000216109
0.000216123
0.000216109
0.000216116
0.000216126
0.000216116
0.000199895
0.000200006
0.000216124
0.000216122
0.000216124
0.00020001
0.000199893
0.000200016
0.000216116
0.000216117
0.000216116
0.000216116
0.000199897
0.000200017
0.000216123
0.00021611
0.000216123
0.00021611
0.000216116
0.000216127
0.000216116
0.000199887
0.00020001
0.000216124
0.000216123
0.000216124
0.000200014
0.000199895
0.000200015
0.000216116
0.000216115
0.000216116
0.000216115
0.000199897
0.000200019
0.000216124
0.00021611
0.000216123
0.00021611
0.000216117
0.000216127
0.000216116
0.000199889
0.00020001
0.000216125
0.000216123
0.000216124
0.000200014
0.000199895
0.000200015
0.000216117
0.000216115
0.000216116
0.000216115
0.000199898
0.000200019
0.000216124
0.00021611
0.000216123
0.00021611
0.000216117
0.000216127
0.000216116
0.00019989
0.00020001
0.000216125
0.000216123
0.000216124
0.000200014
0.000199895
0.000200016
0.000216117
0.000216116
0.000216117
0.000216116
0.000199898
0.000200019
0.000216124
0.00021611
0.000216124
0.00021611
0.000216117
0.000216127
0.000216116
0.00019989
0.00020001
0.000216125
0.000216123
0.000216124
0.000200014
0.000199896
0.000200016
0.000216117
0.000216116
0.000216117
0.000216116
0.000199898
0.000200018
0.000216124
0.00021611
0.000216124
0.00021611
0.000216117
0.000216127
0.000216116
0.00019989
0.00020001
0.000216125
0.000216123
0.000216124
0.000200014
0.000199895
0.000200015
0.000216117
0.000216116
0.000216117
0.000216116
0.000199898
0.000200018
0.000216125
0.00021611
0.000216124
0.00021611
0.000216117
0.000216127
0.000216116
0.000199891
0.00020001
0.000216123
0.000216123
0.000216123
0.000200014
0.000199895
0.000200015
0.000216117
0.000216116
0.000216116
0.000216116
0.000199897
0.000200018
0.000216125
0.00021611
0.000216124
0.00021611
0.000216117
0.000216127
0.000216116
0.000199891
0.00020001
0.000216124
0.000216123
0.000216123
0.000200014
0.000199895
0.000200016
0.000216117
0.000216116
0.000216116
0.000216116
0.000199897
0.000200018
0.000216125
0.00021611
0.000216124
0.00021611
0.000216117
0.000216127
0.000216116
0.00019989
0.00020001
0.000216124
0.000216123
0.000216123
0.000200013
0.000199895
0.000200015
0.000216117
0.000216116
0.000216116
0.000216116
0.000199898
0.000200018
0.000216125
0.00021611
0.000216124
0.00021611
0.000216117
0.000216127
0.000216116
0.00019989
0.00020001
0.000216124
0.000216123
0.000216123
0.000200013
0.000199895
0.000200015
0.000216117
0.000216116
0.000216116
0.000216116
0.000199898
0.000200018
0.000216125
0.00021611
0.000216124
0.00021611
0.000216117
0.000216127
0.000216116
0.000199891
0.00020001
0.000216124
0.000216123
0.000216123
0.000200013
0.000199895
0.000200015
0.000216117
0.000216116
0.000216116
0.000216116
0.000199898
0.000200018
0.000216125
0.00021611
0.000216124
0.00021611
0.000216117
0.000216127
0.000216116
0.00019989
0.00020001
0.000216124
0.000216123
0.000216123
0.000200014
0.000199895
0.000216117
0.000216116
0.000199898
0.000216124
0.00021611
0.000216116
0.00019989
0.000216123
5.49448e-05
4.81636e-05
5.49354e-05
4.81623e-05
2.60664e-05
2.60653e-05
5.4948e-05
4.81599e-05
5.49361e-05
4.81584e-05
0.000228696
0.000228693
0.000228693
0.000228694
0.000228695
0.000228692
0.000228693
0.000131101
6.66017e-05
0.00022485
0.000216178
0.000131079
6.66215e-05
0.00022485
2.60643e-05
2.60632e-05
0.000131104
0.000224848
6.66047e-05
0.000216172
0.000131081
0.000224848
6.6621e-05
3.76965e-05
3.76894e-05
0.000200098
3.77084e-05
3.77013e-05
5.49571e-05
4.81625e-05
5.4943e-05
4.81616e-05
2.60646e-05
2.60642e-05
5.49639e-05
4.81587e-05
5.49507e-05
4.81577e-05
0.000228695
0.000228692
0.000228693
0.000228691
0.000228694
0.000228691
0.000228692
0.000131099
6.66006e-05
0.00022485
0.000216175
0.000131071
6.66225e-05
0.000224847
2.60623e-05
2.60617e-05
0.000131101
0.000224849
6.66005e-05
0.000216168
0.000131073
0.000224846
6.66201e-05
3.77124e-05
3.77053e-05
0.000200094
3.77197e-05
3.77125e-05
5.4963e-05
4.8162e-05
5.49519e-05
4.81612e-05
2.60643e-05
2.60642e-05
5.49703e-05
4.81582e-05
5.49601e-05
4.81574e-05
0.000228694
0.000228691
0.000228692
0.000228691
0.000228691
0.00022869
0.00022869
0.000131105
6.66084e-05
0.000224848
0.000216173
0.000131077
6.66288e-05
0.000224849
2.60617e-05
2.60615e-05
0.000131108
0.000224846
6.66076e-05
0.000216167
0.00013108
0.000224846
6.66285e-05
3.77214e-05
3.77144e-05
0.000200092
3.7727e-05
3.77199e-05
5.49385e-05
4.81629e-05
5.49451e-05
4.81651e-05
2.60654e-05
2.6066e-05
5.49457e-05
4.81592e-05
5.49536e-05
4.81612e-05
0.000228687
0.000228687
0.000228688
0.000228665
0.000228665
0.000228665
0.000228665
0.000131069
6.65933e-05
0.000224842
0.000216142
0.000131065
6.65937e-05
0.000224829
2.60625e-05
2.60631e-05
0.000131073
0.000224841
6.66025e-05
0.00021615
0.000131068
0.000224831
6.66043e-05
3.77189e-05
3.77118e-05
0.000200056
3.7715e-05
3.77077e-05
5.49044e-05
4.81699e-05
5.49004e-05
4.81691e-05
2.60662e-05
2.6066e-05
5.4912e-05
4.81661e-05
5.49069e-05
4.81653e-05
0.000228669
0.000228668
0.000228668
0.000228677
0.000228678
0.000228676
0.000228677
0.000130994
6.65482e-05
0.000224811
0.000216123
0.000130967
6.65634e-05
0.000224815
2.60638e-05
2.60635e-05
0.000130998
0.00022481
6.65558e-05
0.000216118
0.00013097
0.000224814
6.65676e-05
3.76924e-05
3.76853e-05
0.000200015
3.76919e-05
3.76846e-05
5.4903e-05
4.81697e-05
5.4893e-05
4.8169e-05
2.60661e-05
2.6066e-05
5.49108e-05
4.8166e-05
5.49018e-05
4.81652e-05
0.000228678
0.000228677
0.000228677
0.000228677
0.000228678
0.000228676
0.000228677
0.000130995
6.65428e-05
0.00022482
0.000216126
0.000130967
6.65622e-05
0.00022482
2.60637e-05
2.60635e-05
0.000130999
0.000224819
6.65466e-05
0.000216122
0.00013097
0.000224819
6.6565e-05
3.76878e-05
3.76806e-05
0.000200014
3.76914e-05
3.76841e-05
5.4903e-05
4.81699e-05
5.48929e-05
4.81692e-05
2.60661e-05
2.60657e-05
5.49108e-05
4.8166e-05
5.49017e-05
4.81652e-05
0.000228678
0.000228677
0.000228677
0.000228678
0.000228678
0.000228677
0.000228677
0.000130995
6.65428e-05
0.00022482
0.000216127
0.000130967
6.65622e-05
0.000224821
2.60637e-05
2.60635e-05
0.000130999
0.000224819
6.65464e-05
0.000216123
0.00013097
0.00022482
6.65649e-05
3.76879e-05
3.76807e-05
0.000200015
3.76915e-05
3.76842e-05
5.49029e-05
4.81696e-05
5.48929e-05
4.81686e-05
2.60661e-05
2.60661e-05
5.49109e-05
4.8166e-05
5.49018e-05
4.81652e-05
0.000228678
0.000228677
0.000228678
0.000228678
0.000228678
0.000228677
0.000228677
0.000130995
6.65427e-05
0.00022482
0.000216127
0.000130966
6.65622e-05
0.000224821
2.60637e-05
2.60635e-05
0.000130999
0.000224819
6.65464e-05
0.000216123
0.00013097
0.00022482
6.65649e-05
3.76879e-05
3.76807e-05
0.000200013
3.76915e-05
3.76842e-05
5.49029e-05
4.81694e-05
5.48928e-05
4.81683e-05
2.60664e-05
2.60664e-05
5.4911e-05
4.81662e-05
5.49019e-05
4.81656e-05
0.000228678
0.000228677
0.000228678
0.000228678
0.000228678
0.000228677
0.000228677
0.000130995
6.65427e-05
0.00022482
0.000216127
0.000130967
6.65622e-05
0.000224821
2.60637e-05
2.60635e-05
0.000130999
0.000224819
6.65464e-05
0.000216123
0.00013097
0.00022482
6.65649e-05
3.76879e-05
3.76807e-05
0.000200013
3.76915e-05
3.76842e-05
5.49029e-05
4.81689e-05
5.48928e-05
4.81681e-05
2.60666e-05
2.60664e-05
5.4911e-05
4.81665e-05
5.49019e-05
4.81658e-05
0.000228678
0.000228677
0.000228678
0.000228678
0.000228678
0.000228677
0.000228677
0.000130995
6.65428e-05
0.00022482
0.000216127
0.000130967
6.65622e-05
0.000224821
2.60637e-05
2.60635e-05
0.000130999
0.000224819
6.65464e-05
0.000216123
0.00013097
0.00022482
6.65649e-05
3.76879e-05
3.76807e-05
0.000200013
3.76915e-05
3.76842e-05
5.49029e-05
4.81687e-05
5.48928e-05
4.81679e-05
2.60666e-05
2.60664e-05
5.4911e-05
4.81667e-05
5.49019e-05
4.8166e-05
0.000228678
0.000228677
0.000228678
0.000228678
0.000228678
0.000228677
0.000228677
0.000130995
6.65428e-05
0.00022482
0.000216127
0.000130967
6.65622e-05
0.000224821
2.60637e-05
2.60635e-05
0.000130999
0.000224819
6.65464e-05
0.000216123
0.00013097
0.00022482
6.65649e-05
3.76879e-05
3.76807e-05
0.000200013
3.76915e-05
3.76842e-05
5.49029e-05
4.81686e-05
5.48929e-05
4.81678e-05
2.60666e-05
2.60664e-05
5.4911e-05
4.81667e-05
5.49019e-05
4.8166e-05
0.000228678
0.000228677
0.000228677
0.000228678
0.000228678
0.000228677
0.000228677
0.000130995
6.65427e-05
0.00022482
0.000216127
0.000130967
6.65622e-05
0.000224821
2.60637e-05
2.60635e-05
0.000130999
0.000224819
6.65464e-05
0.000216123
0.00013097
0.00022482
6.65649e-05
3.76879e-05
3.76807e-05
0.000200013
3.76915e-05
3.76842e-05
5.49029e-05
4.81686e-05
5.48929e-05
4.81678e-05
2.60666e-05
2.60664e-05
5.4911e-05
4.81668e-05
5.49019e-05
4.8166e-05
0.000228678
0.000228677
0.000228677
0.000228678
0.000228678
0.000228677
0.000228677
0.000130995
6.65427e-05
0.00022482
0.000216127
0.000130966
6.65622e-05
0.000224821
2.60637e-05
2.60635e-05
0.000130999
0.000224819
6.65464e-05
0.000216123
0.00013097
0.00022482
6.65649e-05
3.76879e-05
3.76807e-05
0.000200013
3.76915e-05
3.76842e-05
5.49029e-05
4.81686e-05
5.48929e-05
4.81678e-05
2.60666e-05
2.60664e-05
5.4911e-05
4.81668e-05
5.49019e-05
4.8166e-05
0.000228678
0.000228677
0.000228677
0.000228678
0.000228678
0.000228677
0.000228677
0.000130995
6.65427e-05
0.00022482
0.000216127
0.000130967
6.65622e-05
0.000224821
2.60637e-05
2.60635e-05
0.000130999
0.000224819
6.65464e-05
0.000216123
0.00013097
0.00022482
6.65649e-05
3.76879e-05
3.76807e-05
0.000200013
3.76915e-05
3.76842e-05
5.49029e-05
4.81686e-05
5.48929e-05
4.81678e-05
2.60666e-05
2.60664e-05
5.4911e-05
4.81668e-05
5.49019e-05
4.8166e-05
0.000228678
0.000228677
0.000228677
0.000228678
0.000228678
0.000228677
0.000228677
0.000130995
6.65427e-05
0.00022482
0.000216127
0.000130967
6.65622e-05
0.000224821
2.60637e-05
2.60635e-05
0.000130999
0.000224819
6.65464e-05
0.000216123
0.00013097
0.00022482
6.65649e-05
3.76879e-05
3.76807e-05
0.000200013
3.76915e-05
3.76842e-05
5.49029e-05
4.81686e-05
5.48929e-05
4.81678e-05
2.60666e-05
2.60664e-05
5.49109e-05
4.81668e-05
5.49019e-05
4.8166e-05
0.000228678
0.000228677
0.000228677
0.000228678
0.000228678
0.000228677
0.000228677
0.000130995
6.65427e-05
0.00022482
0.000216127
0.000130966
6.65622e-05
0.000224821
2.60637e-05
2.60635e-05
0.000130999
0.000224819
6.65464e-05
0.000216123
0.00013097
0.00022482
6.65649e-05
3.76879e-05
3.76807e-05
0.000200013
3.76915e-05
3.76842e-05
5.49029e-05
4.81686e-05
5.48929e-05
4.81678e-05
2.60666e-05
2.60664e-05
5.4911e-05
4.81668e-05
5.49019e-05
4.8166e-05
0.000228678
0.000228677
0.000228677
0.000228678
0.000228678
0.000228677
0.000228677
0.000130995
6.65427e-05
0.00022482
0.000216127
0.000130967
6.65622e-05
0.000224821
2.60637e-05
2.60635e-05
0.000130998
0.000224819
6.65464e-05
0.000216123
0.00013097
0.00022482
6.65649e-05
3.76879e-05
3.76807e-05
0.000200013
3.76915e-05
3.76841e-05
5.4903e-05
4.81686e-05
5.48929e-05
4.8168e-05
2.60666e-05
2.60664e-05
5.49071e-05
4.81668e-05
5.49019e-05
4.81663e-05
0.000228678
0.000228677
0.000228677
0.000130995
6.65428e-05
0.00022482
0.000216126
0.000130967
6.65622e-05
0.000224821
2.60637e-05
2.60635e-05
0.000131001
0.000224819
6.65464e-05
0.000216123
0.00013097
0.00022482
6.65661e-05
3.76879e-05
3.76807e-05
0.000200017
3.76915e-05
3.76795e-05
4.81619e-05
6.66227e-05
2.60664e-05
3.76998e-05
3.77e-05
2.60669e-05
6.66207e-05
4.81607e-05
2.60681e-05
2.60671e-05
2.60659e-05
2.60648e-05
3.76986e-05
3.76907e-05
0.0002001
3.77105e-05
3.77022e-05
2.60661e-05
2.6067e-05
2.60638e-05
2.60648e-05
0.000199981
3.77166e-05
3.77085e-05
3.77096e-05
3.77016e-05
5.49454e-05
4.81623e-05
5.49358e-05
4.81615e-05
0.000131101
6.66074e-05
0.000224849
0.000216167
0.000131078
6.66246e-05
0.000224849
0.000131102
6.66068e-05
0.00022485
0.000216165
0.000131079
6.66227e-05
0.00022485
5.4938e-05
4.81618e-05
4.81626e-05
5.49512e-05
5.49386e-05
4.81612e-05
4.81619e-05
5.49518e-05
0.000131078
0.000216167
6.66236e-05
0.000224849
6.66085e-05
0.000224849
0.000131101
0.000131079
0.000216165
6.66208e-05
0.00022485
6.6606e-05
0.00022485
0.000131103
3.76993e-05
3.76986e-05
0.0002001
3.77068e-05
3.77052e-05
2.60669e-05
2.60658e-05
2.60646e-05
2.60653e-05
0.00019998
3.77124e-05
3.77101e-05
3.77059e-05
3.77037e-05
2.6065e-05
2.60659e-05
0.000131103
6.65942e-05
0.000224849
0.000216173
0.000131081
6.66129e-05
0.000224849
5.49463e-05
4.81575e-05
5.49336e-05
4.8156e-05
0.0001311
0.000224847
6.65866e-05
0.000216159
0.000131078
0.000224847
6.66057e-05
5.49441e-05
4.8158e-05
4.81588e-05
5.49578e-05
0.000131081
0.000216173
6.66115e-05
0.000224849
6.65961e-05
0.00022485
0.000131103
5.49423e-05
4.81556e-05
4.81564e-05
5.49561e-05
0.000131078
0.00021616
0.000224847
6.66048e-05
0.000224847
6.65889e-05
0.000131101
5.49445e-05
4.81612e-05
5.4935e-05
4.81603e-05
0.000131099
0.000224849
6.66039e-05
0.000216166
0.000131077
0.000224849
6.66207e-05
5.49406e-05
4.81605e-05
5.49333e-05
4.81591e-05
0.000131079
0.000216178
6.66199e-05
0.00022485
6.66044e-05
0.000224851
0.000131099
5.49377e-05
4.81599e-05
4.81607e-05
5.49509e-05
0.000131077
0.000216166
0.000224849
6.66193e-05
0.000224849
6.66046e-05
0.0001311
5.49352e-05
4.81587e-05
4.81594e-05
5.49502e-05
3.76797e-05
3.76966e-05
0.000200094
3.76926e-05
3.77085e-05
2.60667e-05
2.60657e-05
2.60622e-05
2.60632e-05
0.000199975
3.76982e-05
3.77146e-05
3.76912e-05
3.77076e-05
2.60647e-05
2.60657e-05
0.000131106
0.000224849
6.66e-05
0.000216174
0.000131083
0.000224849
6.66172e-05
5.4947e-05
4.81603e-05
5.49345e-05
4.81589e-05
5.49475e-05
4.816e-05
5.49353e-05
4.81586e-05
0.000131081
0.000216172
0.000224849
6.66193e-05
0.000224849
6.66051e-05
0.000131101
0.000131083
0.000216174
0.000224849
6.66164e-05
0.00022485
6.66011e-05
0.000131105
5.49431e-05
4.81585e-05
4.81592e-05
5.49569e-05
5.49434e-05
4.81582e-05
4.81589e-05
5.49573e-05
2.60666e-05
2.60655e-05
2.60656e-05
2.60646e-05
0.000199978
3.77146e-05
3.77074e-05
3.77075e-05
3.77005e-05
2.60645e-05
2.60655e-05
2.60636e-05
2.60646e-05
2.60661e-05
2.60656e-05
2.60639e-05
2.60634e-05
3.77153e-05
3.77075e-05
0.000200097
3.77216e-05
3.77137e-05
2.60654e-05
2.60657e-05
2.60631e-05
2.60635e-05
0.000199977
3.7726e-05
3.77182e-05
3.77203e-05
3.77126e-05
5.49579e-05
4.81615e-05
5.4946e-05
4.81609e-05
0.000131102
6.66071e-05
0.000224848
0.000216164
0.000131078
6.66242e-05
0.000224848
0.000131105
6.66048e-05
0.000224848
0.000216164
0.00013108
6.66235e-05
0.000224848
5.49505e-05
4.81613e-05
4.81619e-05
5.49611e-05
5.49513e-05
4.81607e-05
4.81612e-05
5.49619e-05
0.00013108
0.000216164
6.66291e-05
0.000224848
6.66091e-05
0.000224848
0.000131106
0.000131082
0.000216165
6.6628e-05
0.000224848
6.66087e-05
0.000224848
0.000131109
3.77111e-05
3.77084e-05
0.000200098
3.77171e-05
3.77147e-05
2.60652e-05
2.60647e-05
2.60641e-05
2.60644e-05
0.000199979
3.77209e-05
3.77183e-05
3.77158e-05
3.77128e-05
2.60646e-05
2.60649e-05
0.000131104
6.65943e-05
0.000224848
0.00021617
0.000131081
6.66118e-05
0.000224847
5.49623e-05
4.8156e-05
5.49513e-05
4.81553e-05
0.000131102
0.000224844
6.65875e-05
0.000216156
0.000131078
0.000224844
6.66052e-05
5.49584e-05
4.81575e-05
4.81581e-05
5.49682e-05
0.000131082
0.00021617
6.66168e-05
0.000224846
6.65961e-05
0.000224846
0.000131109
5.49567e-05
4.8155e-05
4.81557e-05
5.49664e-05
0.00013108
0.000216157
0.000224844
6.66098e-05
0.000224843
6.65893e-05
0.000131106
5.49566e-05
4.81603e-05
5.49449e-05
4.81596e-05
0.0001311
0.000224846
6.6603e-05
0.000216162
0.000131077
0.000224846
6.662e-05
5.49563e-05
4.8159e-05
5.49444e-05
4.81584e-05
0.000131077
0.000216175
6.6627e-05
0.000224847
6.66071e-05
0.000224847
0.000131103
5.49499e-05
4.81594e-05
4.816e-05
5.49604e-05
0.000131079
0.000216162
0.000224846
6.66247e-05
0.000224845
6.6605e-05
0.000131105
5.49496e-05
4.81581e-05
4.81587e-05
5.49601e-05
3.76963e-05
3.77134e-05
0.00020009
3.77029e-05
3.77197e-05
2.60648e-05
2.60642e-05
2.60615e-05
2.60619e-05
0.000199971
3.77072e-05
3.77242e-05
3.77009e-05
3.77184e-05
2.6064e-05
2.60644e-05
0.000131106
0.000224847
6.65999e-05
0.000216171
0.000131082
0.000224846
6.6617e-05
5.49629e-05
4.81588e-05
5.4952e-05
4.81581e-05
5.49635e-05
4.81585e-05
5.49525e-05
4.81579e-05
0.000131079
0.000216168
0.000224846
6.6625e-05
0.000224846
6.66054e-05
0.000131106
0.000131084
0.000216171
0.000224846
6.66213e-05
0.000224846
6.66017e-05
0.00013111
5.49573e-05
4.81578e-05
4.81585e-05
5.49671e-05
5.49579e-05
4.81576e-05
4.81582e-05
5.49676e-05
2.60646e-05
2.60641e-05
2.60637e-05
2.60631e-05
0.000199975
3.77241e-05
3.77169e-05
3.77183e-05
3.77112e-05
2.60638e-05
2.60642e-05
2.60629e-05
2.60633e-05
2.60656e-05
2.60653e-05
2.60633e-05
2.60631e-05
3.77242e-05
3.77167e-05
0.000200093
3.77289e-05
3.77213e-05
2.60658e-05
2.60656e-05
2.60635e-05
2.60633e-05
0.000199973
3.77267e-05
3.77191e-05
3.77268e-05
3.77194e-05
5.49637e-05
4.81611e-05
5.4955e-05
4.81607e-05
0.000131109
6.66139e-05
0.000224848
0.000216161
0.000131085
6.66327e-05
0.000224848
0.000131112
6.66128e-05
0.000224848
0.000216164
0.000131087
6.66298e-05
0.000224849
5.49554e-05
4.81617e-05
4.81616e-05
5.4959e-05
5.4956e-05
4.81622e-05
4.81613e-05
5.49597e-05
0.00013108
0.00021616
6.66288e-05
0.000224846
6.66167e-05
0.000224847
0.000131097
0.000131082
0.000216162
6.66184e-05
0.000224846
6.66123e-05
0.000224848
0.000131098
3.77192e-05
3.7716e-05
0.000200095
3.77225e-05
3.77203e-05
2.60648e-05
2.60647e-05
2.60648e-05
2.60646e-05
0.000199974
3.77155e-05
3.77147e-05
3.7719e-05
3.77166e-05
2.60655e-05
2.60651e-05
0.00013111
6.66011e-05
0.000224846
0.000216167
0.000131088
6.66202e-05
0.000224846
5.49685e-05
4.81555e-05
5.49605e-05
4.8155e-05
0.000131108
0.000224844
6.65941e-05
0.000216154
0.000131085
0.000224845
6.66133e-05
5.49639e-05
4.8158e-05
4.81579e-05
5.49666e-05
0.000131082
0.000216167
6.66161e-05
0.000224845
6.66037e-05
0.000224846
0.000131099
5.49619e-05
4.81555e-05
4.81555e-05
5.49649e-05
0.000131079
0.000216154
0.000224844
6.66093e-05
0.000224846
6.65967e-05
0.000131097
5.49621e-05
4.81599e-05
5.49534e-05
4.81595e-05
0.000131104
0.000224849
6.66098e-05
0.000216161
0.000131083
0.000224849
6.66281e-05
5.49617e-05
4.81585e-05
5.49531e-05
4.8158e-05
0.000131078
0.000216171
6.66184e-05
0.000224847
6.66112e-05
0.000224849
0.000131096
5.49546e-05
4.81612e-05
4.81603e-05
5.49587e-05
0.000131077
0.000216161
0.000224846
6.66243e-05
0.000224849
6.66124e-05
0.000131095
5.49541e-05
4.81585e-05
4.81584e-05
5.49583e-05
3.77047e-05
3.77224e-05
0.000200087
3.77099e-05
3.77272e-05
2.60642e-05
2.6064e-05
2.6062e-05
2.60618e-05
0.000199967
3.77077e-05
3.7725e-05
3.77071e-05
3.77251e-05
2.60644e-05
2.60642e-05
0.000131111
0.000224847
6.66061e-05
0.000216169
0.000131089
0.000224847
6.66246e-05
5.4969e-05
4.81582e-05
5.49611e-05
4.81577e-05
5.49695e-05
4.8158e-05
5.49617e-05
4.81575e-05
0.000131081
0.000216166
0.000224845
6.66247e-05
0.000224846
6.6613e-05
0.000131099
0.000131083
0.000216169
0.000224846
6.66205e-05
0.000224848
6.66086e-05
0.000131102
5.49626e-05
4.81582e-05
4.81582e-05
5.49657e-05
5.4963e-05
4.8158e-05
4.81579e-05
5.4966e-05
2.6064e-05
2.60638e-05
2.60631e-05
2.60629e-05
0.000199973
3.77247e-05
3.77176e-05
3.77249e-05
3.77179e-05
2.60643e-05
2.60641e-05
2.60633e-05
2.60631e-05
2.60662e-05
2.6067e-05
2.6064e-05
2.60648e-05
3.77218e-05
3.77143e-05
0.000200059
3.77169e-05
3.77091e-05
2.60675e-05
2.60675e-05
2.60652e-05
2.60653e-05
0.000199918
3.77006e-05
3.7693e-05
3.77112e-05
3.77035e-05
5.4939e-05
4.81638e-05
5.49481e-05
4.81675e-05
0.000131068
6.66086e-05
0.000224842
0.000216144
0.000131066
6.66084e-05
0.000224831
0.000131067
6.65962e-05
0.000224841
0.000216128
0.000131067
6.65927e-05
0.000224826
5.49237e-05
4.81692e-05
4.81677e-05
5.49139e-05
5.4924e-05
4.81689e-05
4.81691e-05
5.49142e-05
0.00013102
0.000216124
6.65831e-05
0.00022481
6.6585e-05
0.000224814
0.000130999
0.000131018
0.000216115
6.65717e-05
0.000224808
6.65695e-05
0.000224812
0.000130999
3.77099e-05
3.77084e-05
0.000200037
3.77035e-05
3.77006e-05
2.60662e-05
2.60667e-05
2.6066e-05
2.60662e-05
0.000199898
3.76866e-05
3.7685e-05
3.7697e-05
3.76947e-05
2.60668e-05
2.60671e-05
0.000131072
6.65953e-05
0.000224841
0.000216151
0.000131069
6.65958e-05
0.000224831
5.49443e-05
4.81564e-05
5.49544e-05
4.81586e-05
0.00013107
0.00022484
6.65886e-05
0.000216138
0.000131066
0.000224829
6.65892e-05
5.49316e-05
4.81653e-05
4.81638e-05
5.49194e-05
0.000131024
0.000216131
6.65704e-05
0.000224809
6.65719e-05
0.000224815
0.000131001
5.49301e-05
4.8163e-05
4.81613e-05
5.49181e-05
0.000131022
0.000216118
0.000224808
6.65635e-05
0.000224813
6.65652e-05
0.000130999
5.49386e-05
4.81628e-05
5.49473e-05
4.81663e-05
0.000131068
0.000224842
6.66045e-05
0.000216144
0.000131065
0.00022483
6.6604e-05
5.49381e-05
4.81592e-05
5.49468e-05
4.81616e-05
0.000131023
0.000216128
6.65708e-05
0.00022481
6.657e-05
0.000224813
0.000131001
5.49236e-05
4.81678e-05
4.8168e-05
5.49139e-05
0.000131022
0.000216124
0.000224809
6.65783e-05
0.000224814
6.65806e-05
0.000130999
5.49231e-05
4.8166e-05
4.81642e-05
5.49133e-05
3.7702e-05
3.77201e-05
0.000200053
3.76975e-05
3.77151e-05
2.60649e-05
2.60657e-05
2.60636e-05
2.60637e-05
0.000199912
3.7682e-05
3.76988e-05
3.76913e-05
3.77094e-05
2.60661e-05
2.60661e-05
0.000131075
0.000224842
6.66004e-05
0.000216151
0.000131071
0.000224831
6.66001e-05
5.49452e-05
4.8159e-05
5.49552e-05
4.81614e-05
5.49456e-05
4.81588e-05
5.49555e-05
4.81611e-05
0.000131026
0.000216129
0.000224809
6.65785e-05
0.000224814
6.65812e-05
0.000131004
0.000131027
0.000216131
0.000224809
6.65746e-05
0.000224814
6.65767e-05
0.000131004
5.4931e-05
4.81658e-05
4.8164e-05
5.4919e-05
5.49313e-05
4.81656e-05
4.81637e-05
5.49192e-05
2.60647e-05
2.60655e-05
2.60637e-05
2.60646e-05
0.000199916
3.7699e-05
3.76917e-05
3.77092e-05
3.77021e-05
2.60659e-05
2.6066e-05
2.6065e-05
2.6065e-05
2.60676e-05
2.60674e-05
2.60654e-05
2.60652e-05
3.7695e-05
3.76874e-05
0.000200015
3.76937e-05
3.76862e-05
2.60674e-05
2.60676e-05
2.60651e-05
2.60653e-05
0.000199898
3.76932e-05
3.76856e-05
3.76909e-05
3.76835e-05
5.49051e-05
4.81693e-05
5.49024e-05
4.81688e-05
0.000130994
6.65625e-05
0.000224811
0.000216112
0.000130969
6.65719e-05
0.000224815
0.000130995
6.65529e-05
0.000224811
0.000216113
0.00013097
6.65657e-05
0.000224815
5.4896e-05
4.8169e-05
4.81695e-05
5.49031e-05
5.48967e-05
4.81687e-05
4.81692e-05
5.49038e-05
0.00013097
0.000216113
6.65695e-05
0.000224819
6.65547e-05
0.000224818
0.000130995
0.000130972
0.000216115
6.65647e-05
0.000224819
6.6549e-05
0.000224818
0.000130997
3.76832e-05
3.76807e-05
0.00020002
3.76851e-05
3.76817e-05
2.6067e-05
2.60667e-05
2.6066e-05
2.60662e-05
0.000199902
3.76851e-05
3.76819e-05
3.76825e-05
3.76786e-05
2.60667e-05
2.60669e-05
0.000130997
6.65491e-05
0.000224811
0.000216119
0.000130972
6.65592e-05
0.000224814
5.49102e-05
4.81636e-05
5.49077e-05
4.8163e-05
0.000130995
0.000224809
6.65421e-05
0.000216106
0.00013097
0.000224813
6.65519e-05
5.49047e-05
4.81652e-05
4.81657e-05
5.49109e-05
0.000130974
0.000216121
6.65568e-05
0.000224819
6.65413e-05
0.000224817
0.000130998
5.49029e-05
4.81629e-05
4.81634e-05
5.4909e-05
0.000130972
0.000216107
0.000224817
6.65494e-05
0.000224816
6.65339e-05
0.000130996
5.49042e-05
4.81682e-05
5.49019e-05
4.81676e-05
0.000130993
0.000224811
6.6558e-05
0.000216112
0.000130969
0.000224815
6.65674e-05
5.49037e-05
4.81665e-05
5.49014e-05
4.8166e-05
0.000130971
0.000216126
6.65623e-05
0.00022482
6.65461e-05
0.000224819
0.000130994
5.48957e-05
4.81675e-05
4.81681e-05
5.49028e-05
0.00013097
0.000216114
0.000224819
6.65649e-05
0.000224818
6.65503e-05
0.000130994
5.48952e-05
4.81659e-05
4.81664e-05
5.49024e-05
3.76762e-05
3.76931e-05
0.000200008
3.76734e-05
3.7692e-05
2.60663e-05
2.6066e-05
2.60635e-05
2.60638e-05
0.000199892
3.76731e-05
3.76915e-05
3.76699e-05
3.76891e-05
2.6066e-05
2.60662e-05
0.000131
0.000224811
6.65541e-05
0.00021612
0.000130974
0.000224815
6.65637e-05
5.4911e-05
4.81663e-05
5.49085e-05
4.81658e-05
5.49114e-05
4.8166e-05
5.49088e-05
4.81655e-05
0.000130974
0.00021612
0.000224819
6.65653e-05
0.000224818
6.65508e-05
0.000130997
0.000130976
0.000216122
0.000224819
6.65613e-05
0.000224818
6.65464e-05
0.000131001
5.49036e-05
4.81656e-05
4.81661e-05
5.49098e-05
5.4904e-05
4.81654e-05
4.81659e-05
5.49102e-05
2.60661e-05
2.60658e-05
2.60652e-05
2.60649e-05
0.000199898
3.76914e-05
3.76841e-05
3.7689e-05
3.76817e-05
2.60658e-05
2.6066e-05
2.60649e-05
2.60651e-05
2.60676e-05
2.60673e-05
2.60653e-05
2.60651e-05
3.76906e-05
3.76831e-05
0.000200016
3.76932e-05
3.76856e-05
2.60674e-05
2.60675e-05
2.60651e-05
2.60653e-05
0.000199895
3.76933e-05
3.76856e-05
3.76907e-05
3.76831e-05
5.49037e-05
4.81691e-05
5.4896e-05
4.81686e-05
0.000130995
6.65531e-05
0.00022482
0.000216116
0.000130972
6.65691e-05
0.00022482
0.000130997
6.65484e-05
0.00022482
0.000216116
0.000130973
6.65639e-05
0.00022482
5.48952e-05
4.81691e-05
4.81694e-05
5.4903e-05
5.48958e-05
4.81685e-05
4.81691e-05
5.49036e-05
0.000130971
0.000216116
6.65691e-05
0.00022482
6.65529e-05
0.00022482
0.000130995
0.000130972
0.000216117
6.65622e-05
0.000224819
6.65463e-05
0.00022482
0.000130996
3.76826e-05
3.76788e-05
0.000200016
3.76841e-05
3.76821e-05
2.60669e-05
2.60666e-05
2.60659e-05
2.60663e-05
0.000199895
3.76822e-05
3.76821e-05
3.76803e-05
3.76789e-05
2.60666e-05
2.60669e-05
0.000130999
6.65397e-05
0.00022482
0.000216123
0.000130975
6.65564e-05
0.00022482
5.49089e-05
4.81633e-05
5.49021e-05
4.81628e-05
0.000130996
0.000224818
6.65323e-05
0.000216109
0.000130972
0.000224818
6.65491e-05
5.4904e-05
4.81652e-05
4.81657e-05
5.49108e-05
0.000130975
0.000216123
6.65564e-05
0.00022482
6.65396e-05
0.00022482
0.000130998
5.49021e-05
4.81628e-05
4.81633e-05
5.49089e-05
0.000130973
0.00021611
0.000224817
6.6549e-05
0.000224818
6.65321e-05
0.000130996
5.49027e-05
4.8168e-05
5.48949e-05
4.81675e-05
0.000130994
0.00022482
6.65487e-05
0.000216116
0.000130971
0.00022482
6.65646e-05
5.49023e-05
4.81663e-05
5.48945e-05
4.81658e-05
0.000130972
0.000216126
6.65622e-05
0.00022482
6.65455e-05
0.00022482
0.000130994
5.48948e-05
4.81675e-05
4.8168e-05
5.49027e-05
0.000130971
0.000216116
0.000224819
6.65645e-05
0.00022482
6.65485e-05
0.000130994
5.48944e-05
4.81658e-05
4.81663e-05
5.49023e-05
3.76698e-05
3.76888e-05
0.00020001
3.76732e-05
3.76915e-05
2.60662e-05
2.6066e-05
2.60635e-05
2.60637e-05
0.000199889
3.76732e-05
3.76915e-05
3.76699e-05
3.76889e-05
2.6066e-05
2.60662e-05
0.000131001
0.00022482
6.65449e-05
0.000216124
0.000130977
0.00022482
6.6561e-05
5.49097e-05
4.81661e-05
5.49029e-05
4.81656e-05
5.49101e-05
4.81658e-05
5.49033e-05
4.81653e-05
0.000130976
0.000216122
0.000224819
6.65649e-05
0.000224819
6.65491e-05
0.000130997
0.000130978
0.000216124
0.00022482
6.65609e-05
0.00022482
6.65447e-05
0.000131001
5.49028e-05
4.81656e-05
4.8166e-05
5.49097e-05
5.49033e-05
4.81653e-05
4.81658e-05
5.49101e-05
2.6066e-05
2.60658e-05
2.60651e-05
2.60649e-05
0.000199894
3.76914e-05
3.76842e-05
3.76888e-05
3.76816e-05
2.60658e-05
2.6066e-05
2.60649e-05
2.60651e-05
2.60676e-05
2.60671e-05
2.60653e-05
2.60651e-05
3.76905e-05
3.76831e-05
0.000200016
3.76925e-05
3.76856e-05
2.60671e-05
2.60673e-05
2.60651e-05
2.60653e-05
0.000199897
3.76924e-05
3.76856e-05
3.76898e-05
3.76832e-05
5.49036e-05