/*--------------------------------*- C++ -*----------------------------------*\
| =========                 |                                                 |
| \\      /  F ield         | OpenFOAM: The Open Source CFD Toolbox           |
|  \\    /   O peration     | Version:  2206                                  |
|   \\  /    A nd           | Website:  www.openfoam.com                      |
|    \\/     M anipulation  |                                                 |
\*---------------------------------------------------------------------------*/
FoamFile
{
    version     2.0;
    format      ascii;
    arch        "LSB;label=32;scalar=64";
    class       volVectorField;
    location    "16.5";
    object      U;
}
// * * * * * * * * * * * * * * * * * * * * * * * * * * * * * * * * * * * * * //

dimensions      [0 1 -1 0 0 0 0];

internalField   nonuniform List<vector> 
28687
(
(-5.26296e-07 -5.29641e-07 0.101962)
(-3.4944e-07 5.42788e-07 0.101945)
(5.48165e-07 -3.45238e-07 0.101945)
(-3.93231e-05 -3.93411e-05 0.101917)
(-5.47387e-07 -5.49947e-07 0.101962)
(-3.12257e-07 5.19494e-07 0.101945)
(5.27765e-07 -3.11203e-07 0.101945)
(-3.93001e-05 -3.93174e-05 0.101917)
(-5.65917e-07 -5.53477e-07 0.101962)
(-2.46043e-07 4.78255e-07 0.101944)
(4.87778e-07 -2.57561e-07 0.101944)
(-3.92987e-05 -3.93079e-05 0.101917)
(-4.53096e-07 -4.38398e-07 0.101962)
(-4.6305e-07 6.15962e-07 0.101944)
(6.29211e-07 -4.7338e-07 0.101944)
(-3.94779e-05 -3.94807e-05 0.101916)
(-5.1242e-07 -5.13201e-07 0.101962)
(-3.65991e-07 5.50065e-07 0.101945)
(5.46641e-07 -3.68705e-07 0.101945)
(-3.93552e-05 -3.93764e-05 0.101917)
(-5.24246e-07 -5.18736e-07 0.101962)
(-3.51385e-07 5.55166e-07 0.101945)
(5.48647e-07 -3.51963e-07 0.101945)
(-3.93457e-05 -3.93617e-05 0.101917)
(-5.22091e-07 -5.09939e-07 0.101962)
(-3.51248e-07 5.68177e-07 0.101945)
(5.49471e-07 -3.5002e-07 0.101945)
(-3.93464e-05 -3.93597e-05 0.101917)
(-5.16218e-07 -5.13477e-07 0.101962)
(-3.47947e-07 5.41537e-07 0.101945)
(5.49789e-07 -3.48786e-07 0.101945)
(-3.93461e-05 -3.93592e-05 0.101917)
(-5.1281e-07 -5.16397e-07 0.101962)
(-3.54424e-07 5.5409e-07 0.101945)
(5.4944e-07 -3.50041e-07 0.101945)
(-3.93442e-05 -3.936e-05 0.101917)
(-5.22216e-07 -5.22799e-07 0.101962)
(-3.51121e-07 5.49567e-07 0.101945)
(5.48825e-07 -3.50775e-07 0.101945)
(-3.93447e-05 -3.93605e-05 0.101917)
(-5.24054e-07 -5.22337e-07 0.101962)
(-3.50029e-07 5.49037e-07 0.101945)
(5.4813e-07 -3.51108e-07 0.101945)
(-3.93439e-05 -3.93603e-05 0.101917)
(-5.24842e-07 -5.21941e-07 0.101962)
(-3.5081e-07 5.49714e-07 0.101945)
(5.48625e-07 -3.52223e-07 0.101945)
(-3.93447e-05 -3.93611e-05 0.101917)
(-5.24546e-07 -5.21561e-07 0.101962)
(-3.50655e-07 5.49742e-07 0.101945)
(5.48868e-07 -3.52612e-07 0.101945)
(-3.93455e-05 -3.93615e-05 0.101917)
(-5.24188e-07 -5.20971e-07 0.101962)
(-3.51053e-07 5.50219e-07 0.101945)
(5.49193e-07 -3.52954e-07 0.101945)
(-3.93458e-05 -3.93617e-05 0.101917)
(-5.24381e-07 -5.2085e-07 0.101962)
(-3.50973e-07 5.50126e-07 0.101945)
(5.48792e-07 -3.52586e-07 0.101945)
(-3.93462e-05 -3.93622e-05 0.101917)
(-5.25048e-07 -5.21495e-07 0.101962)
(-3.50734e-07 5.49794e-07 0.101945)
(5.48947e-07 -3.52438e-07 0.101945)
(-3.9345e-05 -3.93602e-05 0.101917)
(-5.24599e-07 -5.20966e-07 0.101962)
(-3.49317e-07 5.48868e-07 0.101945)
(5.48436e-07 -3.52376e-07 0.101945)
(-3.93434e-05 -3.93582e-05 0.101917)
(-5.27583e-07 -5.22987e-07 0.101962)
(-3.47416e-07 5.47714e-07 0.101945)
(5.47271e-07 -3.49656e-07 0.101945)
(-3.93332e-05 -3.93465e-05 0.101917)
(-5.66329e-07 3.68704e-07 0.101945)
(4.08877e-05 -4.08622e-05 0.101918)
(-3.52455e-07 5.48063e-07 0.101945)
(3.9332e-05 3.93088e-05 0.101917)
(-4.09025e-05 -4.08841e-05 0.101918)
(5.66542e-07 3.55805e-07 0.101945)
(-5.61276e-07 3.67833e-07 0.101945)
(5.5392e-07 3.27369e-07 0.101945)
(-5.4248e-07 3.37591e-07 0.101945)
(-3.93333e-05 3.9304e-05 0.101917)
(4.0909e-05 -4.08911e-05 0.101918)
(3.47243e-07 5.50636e-07 0.101945)
(3.5964e-07 -5.64787e-07 0.101945)
(3.21438e-07 5.34996e-07 0.101945)
(3.36081e-07 -5.50675e-07 0.101945)
(-3.56996e-07 -5.62571e-07 0.101945)
(-3.23805e-07 5.25831e-07 0.101945)
(-3.34776e-07 -5.50446e-07 0.101945)
(3.93115e-05 -3.93449e-05 0.101917)
(-4.08798e-05 4.09113e-05 0.101918)
(-5.43945e-07 -3.45293e-07 0.101945)
(5.34265e-07 -3.18818e-07 0.101945)
(-5.31311e-07 -3.23786e-07 0.101945)
(4.08834e-05 4.08997e-05 0.101918)
(3.93087e-05 3.92885e-05 0.101917)
(-4.09228e-05 -4.0898e-05 0.101918)
(5.47755e-07 3.24547e-07 0.101945)
(-5.36721e-07 3.30774e-07 0.101945)
(5.47714e-07 3.24347e-07 0.101944)
(-5.12091e-07 2.82424e-07 0.101944)
(-3.93127e-05 3.92803e-05 0.101917)
(4.09509e-05 -4.09181e-05 0.101918)
(3.14047e-07 5.33528e-07 0.101945)
(3.25563e-07 -5.4393e-07 0.101945)
(3.11808e-07 5.40096e-07 0.101945)
(3.27059e-07 -5.48338e-07 0.101944)
(-3.24435e-07 -5.42539e-07 0.101945)
(-2.84581e-07 4.99081e-07 0.101945)
(-3.28431e-07 -5.44529e-07 0.101944)
(3.92871e-05 -3.93218e-05 0.101917)
(-4.08982e-05 4.09308e-05 0.101918)
(-5.24964e-07 -3.11899e-07 0.101945)
(5.32027e-07 -3.10945e-07 0.101945)
(-5.3331e-07 -3.11152e-07 0.101945)
(4.08997e-05 4.09239e-05 0.101918)
(3.93005e-05 3.92925e-05 0.101917)
(-4.08294e-05 -4.07918e-05 0.101918)
(5.00856e-07 2.78733e-07 0.101944)
(-4.95813e-07 2.65858e-07 0.101944)
(6.09398e-07 4.51844e-07 0.101944)
(-6.79351e-07 4.92984e-07 0.101944)
(-3.92601e-05 3.92344e-05 0.101917)
(4.07716e-05 -4.07066e-05 0.101918)
(2.5711e-07 4.97891e-07 0.101944)
(2.71783e-07 -5.03317e-07 0.101944)
(4.18952e-07 6.26529e-07 0.101944)
(4.41149e-07 -6.29303e-07 0.101944)
(-2.73975e-07 -4.9781e-07 0.101944)
(-4.47153e-07 6.67551e-07 0.101944)
(-4.48773e-07 -6.11123e-07 0.101944)
(3.92832e-05 -3.93164e-05 0.101917)
(-4.07961e-05 4.083e-05 0.101918)
(-4.90393e-07 -2.53218e-07 0.101944)
(6.12617e-07 -4.2334e-07 0.101944)
(-6.19254e-07 -4.18978e-07 0.101944)
(4.07941e-05 4.08283e-05 0.101918)
(3.94711e-05 3.94706e-05 0.101917)
(-4.08766e-05 -4.08655e-05 0.101918)
(6.34552e-07 4.95698e-07 0.101944)
(-6.37024e-07 4.76121e-07 0.101944)
(5.76061e-07 3.93051e-07 0.101945)
(-5.64358e-07 3.94339e-07 0.101945)
(-3.94934e-05 3.94885e-05 0.101917)
(4.08954e-05 -4.08737e-05 0.101918)
(4.72906e-07 6.39527e-07 0.101944)
(4.89018e-07 -6.45469e-07 0.101944)
(3.88234e-07 5.55987e-07 0.101945)
(4.01107e-07 -5.6907e-07 0.101945)
(-4.90345e-07 -6.32955e-07 0.101944)
(-3.7924e-07 5.47421e-07 0.101945)
(-3.96458e-07 -5.72123e-07 0.101945)
(3.94609e-05 -3.94922e-05 0.101916)
(-4.08608e-05 4.08939e-05 0.101918)
(-6.32283e-07 -4.68468e-07 0.101944)
(5.52362e-07 -3.84257e-07 0.101945)
(-5.50509e-07 -3.85888e-07 0.101945)
(4.08671e-05 4.08798e-05 0.101918)
(3.93698e-05 3.93473e-05 0.101917)
(-4.09016e-05 -4.08821e-05 0.101918)
(5.66316e-07 3.82084e-07 0.101945)
(-5.64788e-07 3.83252e-07 0.101945)
(5.63083e-07 3.63381e-07 0.101945)
(-5.66534e-07 3.69797e-07 0.101945)
(-3.93612e-05 3.93384e-05 0.101917)
(4.09091e-05 -4.08827e-05 0.101918)
(3.72664e-07 5.49869e-07 0.101945)
(3.82249e-07 -5.62963e-07 0.101945)
(3.53429e-07 5.51935e-07 0.101945)
(3.67874e-07 -5.62607e-07 0.101945)
(-3.77486e-07 -5.64551e-07 0.101945)
(-3.51528e-07 5.52841e-07 0.101945)
(-3.65877e-07 -5.62126e-07 0.101945)
(3.93449e-05 -3.93786e-05 0.101917)
(-4.08795e-05 4.09133e-05 0.101918)
(-5.43732e-07 -3.66784e-07 0.101945)
(5.46877e-07 -3.50484e-07 0.101945)
(-5.46316e-07 -3.51191e-07 0.101945)
(4.08837e-05 4.09014e-05 0.101918)
(3.9353e-05 3.93368e-05 0.101917)
(-4.09043e-05 -4.08683e-05 0.101918)
(5.61662e-07 3.71209e-07 0.101945)
(-5.66743e-07 3.70298e-07 0.101945)
(5.65811e-07 3.73767e-07 0.101945)
(-5.737e-07 3.8142e-07 0.101945)
(-3.93518e-05 3.93319e-05 0.101917)
(4.09076e-05 -4.08647e-05 0.101918)
(3.55331e-07 5.54431e-07 0.101945)
(3.67508e-07 -5.63461e-07 0.101945)
(3.50934e-07 5.61158e-07 0.101945)
(3.6725e-07 -5.61296e-07 0.101945)
(-3.64289e-07 -5.61053e-07 0.101945)
(-3.50923e-07 5.63971e-07 0.101945)
(-3.65902e-07 -5.59601e-07 0.101945)
(3.93341e-05 -3.93655e-05 0.101917)
(-4.08796e-05 4.09154e-05 0.101918)
(-5.46542e-07 -3.49005e-07 0.101945)
(5.48195e-07 -3.47778e-07 0.101945)
(-5.47293e-07 -3.48635e-07 0.101945)
(4.08834e-05 4.09043e-05 0.101918)
(3.93541e-05 3.93556e-05 0.101917)
(-4.09061e-05 -4.08704e-05 0.101918)
(5.68052e-07 3.85777e-07 0.101945)
(-5.7459e-07 3.86523e-07 0.101945)
(5.68964e-07 3.69199e-07 0.101945)
(-5.6258e-07 3.73436e-07 0.101945)
(-3.93574e-05 3.93511e-05 0.101917)
(4.09141e-05 -4.08777e-05 0.101918)
(3.53515e-07 5.65578e-07 0.101945)
(3.67463e-07 -5.61714e-07 0.101945)
(3.51368e-07 5.60519e-07 0.101945)
(3.66609e-07 -5.60735e-07 0.101945)
(-3.65666e-07 -5.58544e-07 0.101945)
(-3.49234e-07 5.518e-07 0.101945)
(-3.70732e-07 -5.59493e-07 0.101945)
(3.93347e-05 -3.93645e-05 0.101917)
(-4.08799e-05 4.09156e-05 0.101918)
(-5.46617e-07 -3.48667e-07 0.101945)
(5.48508e-07 -3.46225e-07 0.101945)
(-5.45443e-07 -3.55799e-07 0.101945)
(4.08828e-05 4.09045e-05 0.101918)
(3.93566e-05 3.9345e-05 0.101917)
(-4.09121e-05 -4.08735e-05 0.101918)
(5.68268e-07 3.68534e-07 0.101945)
(-5.53415e-07 3.6577e-07 0.101945)
(5.69077e-07 3.76417e-07 0.101945)
(-5.66937e-07 3.75644e-07 0.101945)
(-3.93394e-05 3.93214e-05 0.101917)
(4.09017e-05 -4.08818e-05 0.101918)
(3.55232e-07 5.57278e-07 0.101945)
(3.66551e-07 -5.61976e-07 0.101945)
(3.56027e-07 5.50627e-07 0.101945)
(3.66406e-07 -5.6189e-07 0.101945)
(-3.6939e-07 -5.59663e-07 0.101945)
(-3.53241e-07 5.53646e-07 0.101945)
(-3.63455e-07 -5.61165e-07 0.101945)
(3.9334e-05 -3.93641e-05 0.101917)
(-4.08801e-05 4.09146e-05 0.101918)
(-5.44696e-07 -3.55842e-07 0.101945)
(5.48494e-07 -3.46953e-07 0.101945)
(-5.45191e-07 -3.50222e-07 0.101945)
(4.08848e-05 4.09033e-05 0.101918)
(3.93524e-05 3.93384e-05 0.101917)
(-4.09099e-05 -4.08766e-05 0.101918)
(5.73135e-07 3.7729e-07 0.101945)
(-5.64102e-07 3.63741e-07 0.101945)
(5.63648e-07 3.64196e-07 0.101945)
(-5.6749e-07 3.69308e-07 0.101945)
(-3.93559e-05 3.93283e-05 0.101917)
(4.09119e-05 -4.08809e-05 0.101918)
(3.57646e-07 5.52033e-07 0.101945)
(3.66654e-07 -5.62765e-07 0.101945)
(3.50415e-07 5.50939e-07 0.101945)
(3.65887e-07 -5.63177e-07 0.101945)
(-3.61965e-07 -5.60401e-07 0.101945)
(-3.51891e-07 5.49921e-07 0.101945)
(-3.63989e-07 -5.61132e-07 0.101945)
(3.93332e-05 -3.93644e-05 0.101917)
(-4.08801e-05 4.09136e-05 0.101918)
(-5.45225e-07 -3.4847e-07 0.101945)
(5.47784e-07 -3.48031e-07 0.101945)
(-5.46236e-07 -3.50135e-07 0.101945)
(4.0884e-05 4.09028e-05 0.101918)
(3.93562e-05 3.93312e-05 0.101917)
(-4.09092e-05 -4.08788e-05 0.101918)
(5.63802e-07 3.62295e-07 0.101945)
(-5.66673e-07 3.66292e-07 0.101945)
(5.64757e-07 3.64607e-07 0.101945)
(-5.68052e-07 3.66724e-07 0.101945)
(-3.93488e-05 3.93308e-05 0.101917)
(4.09088e-05 -4.08835e-05 0.101918)
(3.52499e-07 5.51142e-07 0.101945)
(3.65896e-07 -5.64342e-07 0.101945)
(3.49441e-07 5.49532e-07 0.101945)
(3.65483e-07 -5.63677e-07 0.101945)
(-3.62603e-07 -5.61093e-07 0.101945)
(-3.49112e-07 5.49374e-07 0.101945)
(-3.63394e-07 -5.61708e-07 0.101945)
(3.93331e-05 -3.93653e-05 0.101917)
(-4.08805e-05 4.09134e-05 0.101918)
(-5.46047e-07 -3.48624e-07 0.101945)
(5.47293e-07 -3.48562e-07 0.101945)
(-5.46448e-07 -3.49164e-07 0.101945)
(4.0885e-05 4.09028e-05 0.101918)
(3.93573e-05 3.9331e-05 0.101917)
(-4.09092e-05 -4.08792e-05 0.101918)
(5.64833e-07 3.62327e-07 0.101945)
(-5.67874e-07 3.65681e-07 0.101945)
(5.64463e-07 3.64663e-07 0.101945)
(-5.68939e-07 3.67528e-07 0.101945)
(-3.93507e-05 3.93281e-05 0.101917)
(4.09072e-05 -4.08832e-05 0.101918)
(3.52857e-07 5.50195e-07 0.101945)
(3.65412e-07 -5.64306e-07 0.101945)
(3.49544e-07 5.48795e-07 0.101945)
(3.65653e-07 -5.64086e-07 0.101945)
(-3.62269e-07 -5.61338e-07 0.101945)
(-3.49856e-07 5.49654e-07 0.101945)
(-3.64331e-07 -5.62095e-07 0.101945)
(3.93327e-05 -3.93654e-05 0.101917)
(-4.08802e-05 4.09127e-05 0.101918)
(-5.46168e-07 -3.47701e-07 0.101945)
(5.47293e-07 -3.49244e-07 0.101945)
(-5.46572e-07 -3.48229e-07 0.101945)
(4.08843e-05 4.09023e-05 0.101918)
(3.93575e-05 3.93304e-05 0.101917)
(-4.09087e-05 -4.08782e-05 0.101918)
(5.64946e-07 3.62694e-07 0.101945)
(-5.69346e-07 3.67041e-07 0.101945)
(5.65445e-07 3.65376e-07 0.101945)
(-5.69076e-07 3.67954e-07 0.101945)
(-3.93522e-05 3.93288e-05 0.101917)
(4.09071e-05 -4.08823e-05 0.101918)
(3.53233e-07 5.4961e-07 0.101945)
(3.66116e-07 -5.65144e-07 0.101945)
(3.50495e-07 5.4918e-07 0.101945)
(3.66191e-07 -5.64305e-07 0.101945)
(-3.63274e-07 -5.61831e-07 0.101945)
(-3.49948e-07 5.49997e-07 0.101945)
(-3.64509e-07 -5.62673e-07 0.101945)
(3.93332e-05 -3.93662e-05 0.101917)
(-4.08799e-05 4.09125e-05 0.101918)
(-5.46577e-07 -3.48908e-07 0.101945)
(5.47586e-07 -3.49817e-07 0.101945)
(-5.47156e-07 -3.50812e-07 0.101945)
(4.08834e-05 4.09016e-05 0.101918)
(3.93582e-05 3.93315e-05 0.101917)
(-4.09082e-05 -4.08766e-05 0.101918)
(5.65902e-07 3.63217e-07 0.101945)
(-5.69113e-07 3.67188e-07 0.101945)
(5.66666e-07 3.66521e-07 0.101945)
(-5.69112e-07 3.68513e-07 0.101945)
(-3.93521e-05 3.93294e-05 0.101917)
(4.09071e-05 -4.0882e-05 0.101918)
(3.53939e-07 5.50055e-07 0.101945)
(3.666e-07 -5.65242e-07 0.101945)
(3.506e-07 5.49871e-07 0.101945)
(3.66683e-07 -5.6442e-07 0.101945)
(-3.63131e-07 -5.62059e-07 0.101945)
(-3.50211e-07 5.50321e-07 0.101945)
(-3.6454e-07 -5.62717e-07 0.101945)
(3.93334e-05 -3.93663e-05 0.101917)
(-4.08795e-05 4.09124e-05 0.101918)
(-5.46729e-07 -3.49929e-07 0.101945)
(5.48053e-07 -3.5022e-07 0.101945)
(-5.47275e-07 -3.51409e-07 0.101945)
(4.08832e-05 4.09015e-05 0.101918)
(3.93585e-05 3.93331e-05 0.101917)
(-4.09084e-05 -4.08769e-05 0.101918)
(5.66831e-07 3.64354e-07 0.101945)
(-5.69331e-07 3.67835e-07 0.101945)
(5.66505e-07 3.66845e-07 0.101945)
(-5.69226e-07 3.68786e-07 0.101945)
(-3.93523e-05 3.93298e-05 0.101917)
(4.0907e-05 -4.08818e-05 0.101918)
(3.54034e-07 5.50633e-07 0.101945)
(3.6691e-07 -5.65229e-07 0.101945)
(3.50625e-07 5.49931e-07 0.101945)
(3.66721e-07 -5.64398e-07 0.101945)
(-3.63468e-07 -5.62411e-07 0.101945)
(-3.50498e-07 5.50441e-07 0.101945)
(-3.64854e-07 -5.62883e-07 0.101945)
(3.93338e-05 -3.93665e-05 0.101917)
(-4.08796e-05 4.09126e-05 0.101918)
(-5.472e-07 -3.50743e-07 0.101945)
(5.48075e-07 -3.50383e-07 0.101945)
(-5.47735e-07 -3.52021e-07 0.101945)
(4.08828e-05 4.09013e-05 0.101918)
(3.93587e-05 3.93332e-05 0.101917)
(-4.09076e-05 -4.0876e-05 0.101918)
(5.66519e-07 3.64396e-07 0.101945)
(-5.69167e-07 3.67808e-07 0.101945)
(5.66078e-07 3.66333e-07 0.101945)
(-5.68466e-07 3.68146e-07 0.101945)
(-3.93525e-05 3.93301e-05 0.101917)
(4.09068e-05 -4.08814e-05 0.101918)
(3.5386e-07 5.50481e-07 0.101945)
(3.6648e-07 -5.64783e-07 0.101945)
(3.49963e-07 5.49514e-07 0.101945)
(3.65963e-07 -5.63828e-07 0.101945)
(-3.63239e-07 -5.62269e-07 0.101945)
(-3.49432e-07 5.49908e-07 0.101945)
(-3.63749e-07 -5.62282e-07 0.101945)
(3.9334e-05 -3.93666e-05 0.101917)
(-4.08789e-05 4.09118e-05 0.101918)
(-5.47115e-07 -3.50784e-07 0.101945)
(5.47469e-07 -3.49588e-07 0.101945)
(-5.47124e-07 -3.51309e-07 0.101945)
(4.08827e-05 4.09004e-05 0.101918)
(3.93568e-05 3.93313e-05 0.101917)
(-4.09052e-05 -4.08734e-05 0.101918)
(5.66224e-07 3.63953e-07 0.101945)
(-5.69441e-07 3.67561e-07 0.101945)
(5.65416e-07 3.6544e-07 0.101945)
(-5.68549e-07 3.67696e-07 0.101945)
(-3.93503e-05 3.93279e-05 0.101917)
(4.09065e-05 -4.08808e-05 0.101918)
(3.53351e-07 5.50229e-07 0.101945)
(3.66381e-07 -5.65004e-07 0.101945)
(3.49157e-07 5.49029e-07 0.101945)
(3.65102e-07 -5.63368e-07 0.101945)
(-3.62904e-07 -5.61762e-07 0.101945)
(-3.50186e-07 5.50549e-07 0.101945)
(-3.6378e-07 -5.62197e-07 0.101945)
(3.93323e-05 -3.9365e-05 0.101917)
(-4.08765e-05 4.09093e-05 0.101918)
(-5.46991e-07 -3.50265e-07 0.101945)
(5.46972e-07 -3.48667e-07 0.101945)
(-5.46824e-07 -3.50301e-07 0.101945)
(4.08812e-05 4.08981e-05 0.101918)
(3.93545e-05 3.93292e-05 0.101917)
(-4.09039e-05 -4.08715e-05 0.101918)
(5.66041e-07 3.64209e-07 0.101945)
(-5.68913e-07 3.66978e-07 0.101945)
(5.63279e-07 3.63008e-07 0.101945)
(-5.66959e-07 3.64907e-07 0.101945)
(-3.93483e-05 3.93258e-05 0.101917)
(4.09025e-05 -4.08779e-05 0.101918)
(3.5343e-07 5.50269e-07 0.101945)
(3.66316e-07 -5.64527e-07 0.101945)
(3.46153e-07 5.47471e-07 0.101945)
(3.62329e-07 -5.61513e-07 0.101945)
(-3.62593e-07 -5.61545e-07 0.101945)
(-3.47262e-07 5.48524e-07 0.101945)
(-3.6128e-07 -5.59416e-07 0.101945)
(3.93297e-05 -3.93624e-05 0.101917)
(-4.08748e-05 4.09075e-05 0.101918)
(-5.47001e-07 -3.50505e-07 0.101945)
(5.44918e-07 -3.46286e-07 0.101945)
(-5.45541e-07 -3.47528e-07 0.101945)
(4.08767e-05 4.08967e-05 0.101918)
(3.93438e-05 3.93191e-05 0.101917)
(5.64353e-07 3.61525e-07 0.101945)
(-5.69105e-07 3.64072e-07 0.101945)
(-3.9343e-05 3.93192e-05 0.101917)
(3.50184e-07 5.49559e-07 0.101945)
(3.63466e-07 -5.63611e-07 0.101945)
(-3.60432e-07 -5.5965e-07 0.101945)
(3.93193e-05 -3.93523e-05 0.101917)
(-5.46786e-07 -3.47275e-07 0.101945)
(3.98475e-08 -7.92129e-06 0.100774)
(7.15565e-07 5.97502e-06 0.0958023)
(-2.29212e-08 7.71792e-06 0.100769)
(-1.02871e-06 -6.07236e-06 0.0958101)
(-1.58952e-06 2.11145e-06 0.0855496)
(1.55637e-06 -2.21325e-06 0.0855581)
(-7.96515e-06 2.37754e-08 0.100774)
(5.92546e-06 6.67238e-07 0.0958015)
(7.77096e-06 -1.77138e-08 0.100769)
(-6.01666e-06 -9.8991e-07 0.0958105)
(5.41951e-07 -5.19743e-07 0.101962)
(-5.24242e-07 5.29006e-07 0.101962)
(5.27368e-07 5.20695e-07 0.101962)
(-5.40548e-07 -5.45809e-07 0.101962)
(5.60941e-07 -5.44013e-07 0.101962)
(-5.3989e-07 5.45347e-07 0.101962)
(5.44006e-07 5.36271e-07 0.101962)
(1.29731e-05 6.58494e-10 0.101728)
(-1.22468e-05 3.5889e-06 0.10098)
(-4.32933e-07 -1.60236e-07 0.101958)
(-3.42603e-07 5.39094e-07 0.101945)
(-1.29889e-05 -1.92657e-08 0.101726)
(1.18277e-05 -3.86821e-06 0.100987)
(-4.235e-07 -1.63186e-07 0.101958)
(2.04186e-06 -1.54911e-06 0.0855473)
(-2.09636e-06 1.50087e-06 0.0855578)
(1.68797e-08 1.29819e-05 0.101728)
(-1.56173e-07 -4.26836e-07 0.101958)
(3.62295e-06 -1.23031e-05 0.10098)
(5.43502e-07 -3.36571e-07 0.101945)
(-1.86321e-08 -1.29995e-05 0.101726)
(-1.57254e-07 -4.13948e-07 0.101958)
(-3.8775e-06 1.18531e-05 0.100987)
(-3.91184e-06 -4.72982e-06 0.0995337)
(-4.71662e-06 -3.90826e-06 0.0995333)
(4.08723e-05 4.08879e-05 0.101918)
(3.73396e-06 4.56978e-06 0.0995411)
(4.56371e-06 3.72476e-06 0.0995406)
(3.61135e-08 -7.98383e-06 0.100774)
(7.44273e-07 5.92769e-06 0.0958028)
(-2.89827e-08 7.65464e-06 0.100769)
(-9.86679e-07 -6.1148e-06 0.0958107)
(-1.56549e-06 2.006e-06 0.0855509)
(1.64273e-06 -2.30561e-06 0.0855597)
(-8.02484e-06 1.35681e-08 0.100773)
(5.88066e-06 6.95165e-07 0.095802)
(7.70715e-06 -2.31947e-08 0.100769)
(-6.05985e-06 -9.46425e-07 0.0958111)
(5.58544e-07 -5.4121e-07 0.101962)
(-5.44671e-07 5.4981e-07 0.101962)
(5.47157e-07 5.42801e-07 0.101962)
(-5.58434e-07 -5.5428e-07 0.101962)
(5.60414e-07 -5.58203e-07 0.101962)
(-5.54369e-07 5.58998e-07 0.101962)
(5.52647e-07 5.55223e-07 0.101962)
(1.30227e-05 -6.87825e-09 0.101728)
(-1.21691e-05 3.51519e-06 0.10098)
(-3.85021e-07 -1.69832e-07 0.101958)
(-3.1322e-07 5.28533e-07 0.101945)
(-1.29084e-05 -2.88275e-08 0.101726)
(1.19063e-05 -3.97023e-06 0.100987)
(-3.80741e-07 -1.74106e-07 0.101958)
(1.89846e-06 -1.46287e-06 0.0855482)
(-2.14877e-06 1.49515e-06 0.0855593)
(8.95783e-09 1.30325e-05 0.101728)
(-1.68266e-07 -3.80272e-07 0.101958)
(3.54486e-06 -1.22108e-05 0.10098)
(5.21241e-07 -3.03963e-07 0.101945)
(-2.70502e-08 -1.2918e-05 0.101726)
(-1.69653e-07 -3.71791e-07 0.101958)
(-3.94641e-06 1.1923e-05 0.100987)
(-3.92266e-06 -4.70602e-06 0.0995337)
(-4.6931e-06 -3.91718e-06 0.0995332)
(4.09007e-05 4.09198e-05 0.101918)
(3.71373e-06 4.60753e-06 0.099541)
(4.60029e-06 3.70769e-06 0.0995405)
(-5.20751e-08 -8.01013e-06 0.100774)
(7.58458e-07 5.87965e-06 0.0958036)
(-4.1071e-08 7.58275e-06 0.100769)
(-9.94226e-07 -6.11139e-06 0.0958115)
(-1.48248e-06 1.99378e-06 0.0855529)
(1.68365e-06 -2.47222e-06 0.0855631)
(-8.08442e-06 -1.75522e-08 0.100773)
(5.82955e-06 7.21948e-07 0.0958029)
(7.6417e-06 -2.88673e-08 0.100769)
(-6.06971e-06 -9.19944e-07 0.0958119)
(5.65996e-07 -5.62071e-07 0.101962)
(-5.577e-07 5.62386e-07 0.101962)
(5.52382e-07 5.62365e-07 0.101962)
(-5.05801e-07 -4.80102e-07 0.101962)
(4.34562e-07 -4.24975e-07 0.101962)
(-4.92908e-07 4.97708e-07 0.101962)
(4.82639e-07 5.01764e-07 0.101962)
(1.30776e-05 7.74368e-09 0.101728)
(-1.21201e-05 3.44831e-06 0.10098)
(-3.36217e-07 -1.74062e-07 0.101958)
(-2.79078e-07 5.51178e-07 0.101944)
(-1.28735e-05 -2.03693e-08 0.101726)
(1.19943e-05 -3.98273e-06 0.100987)
(-3.37429e-07 -1.58017e-07 0.101958)
(1.89468e-06 -1.52798e-06 0.0855504)
(-2.25635e-06 1.67538e-06 0.0855615)
(-5.29029e-09 1.30981e-05 0.101728)
(-1.7491e-07 -3.32559e-07 0.101958)
(3.50142e-06 -1.21714e-05 0.10098)
(4.75449e-07 -2.3774e-07 0.101944)
(-3.35153e-08 -1.2883e-05 0.101726)
(-1.85421e-07 -3.04763e-07 0.101958)
(-4.01899e-06 1.20135e-05 0.100986)
(-3.92835e-06 -4.68219e-06 0.0995336)
(-4.67859e-06 -3.91564e-06 0.0995332)
(4.09881e-05 4.10189e-05 0.101918)
(3.82011e-06 4.71369e-06 0.099541)
(4.69159e-06 3.82161e-06 0.0995405)
(6.92078e-08 -7.62826e-06 0.100774)
(7.40758e-07 6.22576e-06 0.0958045)
(-4.65222e-08 7.81682e-06 0.100769)
(-9.3378e-07 -5.18049e-06 0.0958115)
(-2.06233e-06 2.70683e-06 0.0855531)
(1.4529e-06 -1.80474e-06 0.0855588)
(-7.67008e-06 2.1499e-08 0.100773)
(6.1696e-06 7.08044e-07 0.0958037)
(7.85281e-06 2.98785e-08 0.100769)
(-5.14599e-06 -9.08497e-07 0.0958119)
(4.24146e-07 -4.27302e-07 0.101962)
(-4.45485e-07 4.50382e-07 0.101962)
(4.39494e-07 4.49764e-07 0.101962)
(-4.96205e-07 -4.9797e-07 0.101962)
(5.15414e-07 -5.14115e-07 0.101962)
(-4.94291e-07 4.97758e-07 0.101962)
(4.95787e-07 4.92817e-07 0.101962)
(1.24743e-05 1.65258e-08 0.101728)
(-1.25383e-05 3.87434e-06 0.10098)
(-5.83427e-07 -9.94159e-08 0.101958)
(-4.35703e-07 5.66985e-07 0.101945)
(-1.32151e-05 6.13717e-08 0.101726)
(1.14998e-05 -3.59126e-06 0.100987)
(-5.85766e-07 -1.33444e-07 0.101958)
(2.35436e-06 -1.83171e-06 0.0855527)
(-1.53786e-06 1.24105e-06 0.0855603)
(4.13596e-08 1.24832e-05 0.101728)
(-1.27164e-07 -5.80343e-07 0.101958)
(3.73439e-06 -1.24778e-05 0.10098)
(6.01684e-07 -4.53995e-07 0.101945)
(-4.37682e-09 -1.32103e-05 0.101726)
(-1.23191e-07 -5.88294e-07 0.101958)
(-3.50937e-06 1.14834e-05 0.100986)
(-4.03271e-06 -4.87212e-06 0.0995334)
(-4.86747e-06 -4.02199e-06 0.099533)
(4.0774e-05 4.07938e-05 0.101918)
(3.73389e-06 4.51355e-06 0.0995408)
(4.50357e-06 3.72559e-06 0.0995403)
(2.63151e-08 -7.87429e-06 0.100774)
(7.6582e-07 6.24062e-06 0.0958025)
(-1.78636e-08 7.80257e-06 0.100769)
(-9.89633e-07 -5.90769e-06 0.0958099)
(-1.54566e-06 2.15954e-06 0.0855492)
(1.51529e-06 -2.09028e-06 0.0855579)
(-7.92326e-06 1.55767e-08 0.100774)
(6.1966e-06 7.15712e-07 0.0958018)
(7.86506e-06 -3.10958e-08 0.100769)
(-5.8559e-06 -9.50571e-07 0.0958103)
(5.23505e-07 -5.20097e-07 0.101962)
(-5.10079e-07 5.12949e-07 0.101962)
(5.10884e-07 5.08701e-07 0.101962)
(-5.24323e-07 -5.19743e-07 0.101962)
(5.24235e-07 -5.21158e-07 0.101962)
(-5.20282e-07 5.2419e-07 0.101962)
(5.19479e-07 5.21444e-07 0.101962)
(1.28898e-05 3.74432e-09 0.101728)
(-1.2326e-05 3.6353e-06 0.10098)
(-4.77441e-07 -1.60515e-07 0.101958)
(-3.56034e-07 5.5034e-07 0.101945)
(-1.31183e-05 -3.19774e-08 0.101726)
(1.1775e-05 -3.82447e-06 0.100987)
(-4.56559e-07 -1.58338e-07 0.101958)
(2.13486e-06 -1.52728e-06 0.0855475)
(-2.01653e-06 1.48517e-06 0.0855576)
(1.60452e-08 1.28958e-05 0.101728)
(-1.51111e-07 -4.81313e-07 0.101958)
(3.71114e-06 -1.23931e-05 0.10098)
(5.44486e-07 -3.56397e-07 0.101945)
(-1.73693e-08 -1.31372e-05 0.101726)
(-1.54562e-07 -4.5435e-07 0.101958)
(-3.84921e-06 1.18056e-05 0.100987)
(-3.90489e-06 -4.71327e-06 0.0995337)
(-4.69969e-06 -3.90155e-06 0.0995333)
(4.08844e-05 4.08991e-05 0.101918)
(3.72926e-06 4.59242e-06 0.0995411)
(4.58681e-06 3.72092e-06 0.0995406)
(2.05196e-08 -7.89654e-06 0.100774)
(7.49892e-07 6.08026e-06 0.0958022)
(-3.3154e-08 7.71631e-06 0.100769)
(-9.82393e-07 -5.92815e-06 0.0958099)
(-1.56742e-06 2.07182e-06 0.0855487)
(1.48958e-06 -2.07369e-06 0.085558)
(-7.94944e-06 1.78937e-08 0.100774)
(6.04003e-06 7.1173e-07 0.0958015)
(7.76583e-06 -2.16673e-08 0.100769)
(-5.89319e-06 -9.44692e-07 0.0958102)
(5.23252e-07 -5.19053e-07 0.101962)
(-5.2027e-07 5.24836e-07 0.101962)
(5.19695e-07 5.22045e-07 0.101962)
(-5.23128e-07 -5.12064e-07 0.101962)
(5.2079e-07 -5.1096e-07 0.101962)
(-5.19435e-07 5.26791e-07 0.101962)
(5.19151e-07 5.238e-07 0.101962)
(1.29093e-05 1.23793e-08 0.101728)
(-1.22621e-05 3.59337e-06 0.10098)
(-4.41156e-07 -1.52753e-07 0.101958)
(-3.49906e-07 5.5668e-07 0.101945)
(-1.30222e-05 -1.43613e-08 0.101726)
(1.17917e-05 -3.82116e-06 0.100987)
(-4.3865e-07 -1.51439e-07 0.101958)
(2.03646e-06 -1.53969e-06 0.0855473)
(-2.03144e-06 1.46754e-06 0.0855577)
(1.56456e-08 1.29205e-05 0.101728)
(-1.56155e-07 -4.39953e-07 0.101958)
(3.6213e-06 -1.23029e-05 0.10098)
(5.47598e-07 -3.48058e-07 0.101945)
(-2.13009e-08 -1.3031e-05 0.101726)
(-1.56259e-07 -4.32414e-07 0.101958)
(-3.85823e-06 1.18278e-05 0.100987)
(-3.91539e-06 -4.71872e-06 0.0995337)
(-4.7092e-06 -3.90886e-06 0.0995333)
(4.0885e-05 4.09046e-05 0.101918)
(3.73504e-06 4.58986e-06 0.0995411)
(4.5798e-06 3.72936e-06 0.0995406)
(3.40878e-08 -7.89202e-06 0.100774)
(8.04844e-07 6.10383e-06 0.0958022)
(-2.87884e-08 7.71951e-06 0.100769)
(-8.57724e-07 -5.88781e-06 0.09581)
(-1.68393e-06 2.19623e-06 0.0855494)
(1.4737e-06 -2.08917e-06 0.0855574)
(-7.94982e-06 2.18779e-08 0.100774)
(6.0446e-06 7.22581e-07 0.0958015)
(7.76343e-06 -1.83283e-08 0.100769)
(-5.90309e-06 -9.40418e-07 0.0958102)
(5.20184e-07 -5.08745e-07 0.101962)
(-5.19251e-07 5.27077e-07 0.101962)
(5.20246e-07 5.23327e-07 0.101962)
(-5.1698e-07 -5.09814e-07 0.101962)
(5.2677e-07 -5.1422e-07 0.101962)
(-5.17846e-07 5.28398e-07 0.101962)
(5.26643e-07 5.16923e-07 0.101962)
(1.29098e-05 1.57996e-08 0.101728)
(-1.22581e-05 3.60687e-06 0.10098)
(-4.41169e-07 -1.45344e-07 0.101958)
(-3.50822e-07 5.66165e-07 0.101945)
(-1.30211e-05 -8.69834e-09 0.101726)
(1.1795e-05 -3.81021e-06 0.100987)
(-4.39948e-07 -1.45244e-07 0.101958)
(2.03823e-06 -1.54042e-06 0.0855473)
(-2.03047e-06 1.46831e-06 0.0855577)
(1.61802e-08 1.29209e-05 0.101728)
(-1.55711e-07 -4.37354e-07 0.101958)
(3.62388e-06 -1.23015e-05 0.10098)
(5.481e-07 -3.46221e-07 0.101945)
(-2.09557e-08 -1.30301e-05 0.101726)
(-1.55601e-07 -4.31171e-07 0.101958)
(-3.85691e-06 1.18287e-05 0.100987)
(-3.91477e-06 -4.7173e-06 0.0995337)
(-4.70995e-06 -3.90714e-06 0.0995333)
(4.08841e-05 4.09057e-05 0.101918)
(3.73515e-06 4.5907e-06 0.0995411)
(4.58011e-06 3.72983e-06 0.0995406)
(3.84936e-08 -7.89819e-06 0.100774)
(7.56113e-07 6.06226e-06 0.0958022)
(-2.65498e-08 7.71743e-06 0.100769)
(-9.51189e-07 -5.91374e-06 0.0958101)
(-1.5579e-06 2.13728e-06 0.0855494)
(1.64744e-06 -2.18485e-06 0.0855573)
(-7.94866e-06 1.94749e-08 0.100774)
(6.05662e-06 7.26612e-07 0.0958016)
(7.76334e-06 -1.80782e-08 0.100769)
(-5.91993e-06 -9.5126e-07 0.0958101)
(5.3022e-07 -5.20348e-07 0.101962)
(-5.17286e-07 5.27856e-07 0.101962)
(5.27812e-07 5.15471e-07 0.101962)
(-5.1236e-07 -5.13853e-07 0.101962)
(5.29652e-07 -5.23011e-07 0.101962)
(-5.17482e-07 5.25495e-07 0.101962)
(5.22114e-07 5.1885e-07 0.101962)
(1.29081e-05 5.47242e-09 0.101728)
(-1.22615e-05 3.58502e-06 0.10098)
(-4.39584e-07 -1.55253e-07 0.101958)
(-3.47529e-07 5.37073e-07 0.101945)
(-1.30216e-05 -1.6031e-08 0.101726)
(1.17881e-05 -3.83942e-06 0.100987)
(-4.37096e-07 -1.59126e-07 0.101958)
(2.03836e-06 -1.54059e-06 0.0855473)
(-2.03072e-06 1.46722e-06 0.0855577)
(1.61143e-08 1.29194e-05 0.101728)
(-1.55699e-07 -4.39172e-07 0.101958)
(3.62397e-06 -1.23013e-05 0.10098)
(5.48576e-07 -3.45715e-07 0.101945)
(-2.04603e-08 -1.30303e-05 0.101726)
(-1.56032e-07 -4.3348e-07 0.101958)
(-3.8566e-06 1.18284e-05 0.100987)
(-3.91362e-06 -4.7193e-06 0.0995337)
(-4.70961e-06 -3.90737e-06 0.0995333)
(4.08848e-05 4.09046e-05 0.101918)
(3.73622e-06 4.58821e-06 0.0995411)
(4.58064e-06 3.72918e-06 0.0995406)
(3.83355e-08 -7.90143e-06 0.100774)
(8.24531e-07 6.09582e-06 0.095802)
(-2.10383e-08 7.71976e-06 0.100769)
(-9.49391e-07 -5.87426e-06 0.0958103)
(-1.55403e-06 1.9638e-06 0.0855495)
(1.51944e-06 -2.22117e-06 0.0855574)
(-7.94896e-06 1.54879e-08 0.100774)
(6.08454e-06 7.28085e-07 0.0958018)
(7.76354e-06 -2.20839e-08 0.100769)
(-5.93411e-06 -9.60333e-07 0.0958099)
(5.24536e-07 -5.19482e-07 0.101962)
(-5.18261e-07 5.24717e-07 0.101962)
(5.21072e-07 5.19161e-07 0.101962)
(-5.21196e-07 -5.20061e-07 0.101962)
(5.24427e-07 -5.19165e-07 0.101962)
(-5.19851e-07 5.24292e-07 0.101962)
(5.20613e-07 5.19191e-07 0.101962)
(1.29092e-05 9.60007e-09 0.101728)
(-1.22628e-05 3.60105e-06 0.10098)
(-4.40268e-07 -1.54948e-07 0.101958)
(-3.51166e-07 5.50337e-07 0.101945)
(-1.30216e-05 -1.48005e-08 0.101726)
(1.17909e-05 -3.82238e-06 0.100987)
(-4.39897e-07 -1.54302e-07 0.101958)
(2.03795e-06 -1.54195e-06 0.0855473)
(-2.03107e-06 1.46635e-06 0.0855577)
(1.56895e-08 1.29193e-05 0.101728)
(-1.56269e-07 -4.38754e-07 0.101958)
(3.62397e-06 -1.23014e-05 0.10098)
(5.47908e-07 -3.47159e-07 0.101945)
(-2.11159e-08 -1.30312e-05 0.101726)
(-1.56681e-07 -4.32191e-07 0.101958)
(-3.85698e-06 1.18282e-05 0.100987)
(-3.91325e-06 -4.72045e-06 0.0995337)
(-4.71009e-06 -3.90762e-06 0.0995333)
(4.08855e-05 4.09044e-05 0.101918)
(3.73627e-06 4.58782e-06 0.0995411)
(4.57993e-06 3.72975e-06 0.0995406)
(2.62509e-08 -7.90268e-06 0.100774)
(7.52634e-07 6.04392e-06 0.0958019)
(-3.45765e-08 7.71789e-06 0.100769)
(-9.74048e-07 -5.88587e-06 0.0958102)
(-1.60279e-06 2.11743e-06 0.0855496)
(1.5243e-06 -2.14438e-06 0.0855577)
(-7.94892e-06 1.41906e-08 0.100774)
(6.08586e-06 7.25629e-07 0.0958018)
(7.76413e-06 -2.3481e-08 0.100769)
(-5.92876e-06 -9.57383e-07 0.0958101)
(5.24021e-07 -5.2074e-07 0.101962)
(-5.19929e-07 5.23802e-07 0.101962)
(5.2025e-07 5.20049e-07 0.101962)
(-5.24374e-07 -5.21351e-07 0.101962)
(5.24159e-07 -5.23014e-07 0.101962)
(-5.20523e-07 5.23474e-07 0.101962)
(5.20027e-07 5.21154e-07 0.101962)
(1.29095e-05 8.50661e-09 0.101728)
(-1.22636e-05 3.59418e-06 0.10098)
(-4.3878e-07 -1.55814e-07 0.101958)
(-3.49931e-07 5.49184e-07 0.101945)
(-1.30215e-05 -1.59848e-08 0.101726)
(1.17908e-05 -3.82436e-06 0.100987)
(-4.36355e-07 -1.55362e-07 0.101958)
(2.03743e-06 -1.5424e-06 0.0855473)
(-2.03164e-06 1.4657e-06 0.0855577)