/*--------------------------------*- C++ -*----------------------------------*\
| =========                 |                                                 |
| \\      /  F ield         | OpenFOAM: The Open Source CFD Toolbox           |
|  \\    /   O peration     | Version:  2206                                  |
|   \\  /    A nd           | Website:  www.openfoam.com                      |
|    \\/     M anipulation  |                                                 |
\*---------------------------------------------------------------------------*/
FoamFile
{
    version     2.0;
    format      ascii;
    arch        "LSB;label=32;scalar=64";
    class       volScalarField;
    location    "20.5";
    object      nut;
}
// * * * * * * * * * * * * * * * * * * * * * * * * * * * * * * * * * * * * * //

dimensions      [0 2 -1 0 0 0 0];

internalField   nonuniform List<scalar> 
28335
(
0.000225956
0.000208115
0.000208109
0.000187312
0.000225956
0.000208112
0.000208106
0.000187311
0.000225957
0.000208112
0.000208106
0.000187311
0.000225954
0.000208108
0.000208101
0.000187301
0.000225927
0.000208062
0.000208055
0.00018723
0.000225937
0.000208064
0.000208058
0.000187242
0.000225938
0.000208064
0.000208058
0.000187233
0.000225938
0.000208065
0.000208059
0.000187238
0.000225938
0.000208065
0.000208059
0.000187236
0.000225938
0.000208065
0.000208059
0.000187235
0.000225938
0.000208065
0.000208059
0.000187236
0.000225938
0.000208065
0.000208059
0.000187236
0.000225938
0.000208065
0.000208059
0.000187236
0.000225938
0.000208065
0.000208059
0.000187236
0.000225938
0.000208065
0.000208059
0.000187236
0.000225938
0.000208065
0.000208059
0.000187236
0.000225938
0.000208065
0.000208059
0.000187236
0.000187464
0.000208103
0.0002081
0.000187468
0.000208112
0.000208093
0.000208116
0.000208101
0.000187457
0.000208109
0.000208111
0.00018746
0.000187319
0.000187462
0.000208103
0.0002081
0.000208103
0.000208099
0.000187322
0.000187465
0.000208112
0.000208093
0.000208111
0.000208093
0.000208101
0.000208112
0.0002081
0.000187312
0.000187455
0.000208111
0.000208106
0.00020811
0.000187458
0.000187316
0.000187461
0.000208104
0.000208099
0.000208103
0.000208099
0.000187319
0.000187464
0.000208111
0.000208094
0.000208112
0.000208094
0.0002081
0.000208112
0.000208101
0.00018731
0.000187454
0.000208109
0.000208107
0.00020811
0.000187458
0.000187316
0.000187457
0.000208103
0.000208102
0.0002081
0.000208099
0.000187318
0.00018746
0.000208114
0.000208093
0.00020811
0.00020809
0.000208102
0.000208111
0.000208099
0.00018731
0.000187449
0.000208112
0.000208104
0.000208108
0.000187454
0.000187309
0.000187394
0.000208097
0.000208095
0.000208056
0.000208053
0.000187312
0.000187398
0.000208106
0.000208087
0.000208066
0.000208046
0.000208095
0.00020807
0.000208055
0.000187302
0.000187388
0.000208104
0.000208064
0.000208064
0.000187391
0.000187237
0.000187391
0.000208049
0.000208046
0.00020805
0.000208047
0.00018724
0.000187394
0.000208058
0.000208039
0.00020806
0.00020804
0.000208047
0.000208063
0.000208048
0.00018723
0.000187384
0.000208057
0.000208057
0.000208058
0.000187389
0.000187246
0.000187385
0.000208051
0.000208049
0.000208051
0.000208049
0.000187249
0.000187388
0.000208061
0.000208041
0.000208061
0.000208042
0.00020805
0.000208064
0.00020805
0.000187239
0.000187378
0.000208059
0.000208058
0.000208059
0.000187382
0.000187239
0.000187388
0.000208052
0.000208049
0.000208052
0.000208049
0.000187241
0.000187392
0.000208061
0.000208042
0.000208062
0.000208042
0.00020805
0.000208065
0.000208051
0.000187232
0.000187381
0.00020806
0.000208059
0.00020806
0.000187386
0.000187243
0.000187385
0.000208053
0.00020805
0.000208052
0.00020805
0.000187246
0.000187389
0.000208062
0.000208043
0.000208061
0.000208042
0.000208051
0.000208065
0.000208051
0.000187236
0.000187379
0.000208061
0.000208059
0.00020806
0.000187383
0.000187241
0.000187386
0.000208053
0.00020805
0.000208052
0.00020805
0.000187244
0.000187389
0.000208062
0.000208043
0.000208061
0.000208042
0.000208051
0.000208065
0.000208051
0.000187234
0.000187379
0.000208061
0.000208059
0.00020806
0.000187383
0.000187241
0.000187386
0.000208053
0.00020805
0.000208052
0.00020805
0.000187244
0.00018739
0.000208062
0.000208043
0.000208061
0.000208042
0.000208051
0.000208065
0.000208051
0.000187234
0.000187379
0.000208061
0.000208059
0.00020806
0.000187383
0.000187241
0.000187386
0.000208053
0.00020805
0.000208052
0.00020805
0.000187244
0.000187389
0.000208062
0.000208043
0.000208061
0.000208042
0.000208051
0.000208065
0.000208051
0.000187234
0.000187379
0.000208061
0.000208059
0.00020806
0.000187384
0.000187241
0.000187386
0.000208052
0.00020805
0.000208052
0.00020805
0.000187244
0.000187389
0.000208062
0.000208043
0.000208061
0.000208042
0.000208051
0.000208065
0.000208051
0.000187234
0.000187379
0.000208061
0.000208059
0.00020806
0.000187384
0.000187241
0.000187386
0.000208053
0.00020805
0.000208052
0.00020805
0.000187244
0.000187389
0.000208062
0.000208043
0.000208061
0.000208042
0.000208051
0.000208065
0.000208051
0.000187234
0.000187379
0.000208061
0.000208059
0.00020806
0.000187384
0.000187241
0.000187386
0.000208053
0.00020805
0.000208052
0.00020805
0.000187244
0.000187389
0.000208062
0.000208043
0.000208061
0.000208042
0.000208051
0.000208065
0.000208051
0.000187234
0.000187379
0.000208061
0.000208059
0.00020806
0.000187384
0.000187241
0.000187386
0.000208053
0.00020805
0.000208052
0.00020805
0.000187244
0.000187389
0.000208062
0.000208043
0.000208061
0.000208042
0.000208051
0.000208065
0.000208051
0.000187234
0.000187379
0.000208061
0.000208059
0.00020806
0.000187384
0.000187241
0.000187386
0.000208053
0.00020805
0.000208052
0.00020805
0.000187244
0.00018739
0.000208062
0.000208043
0.000208061
0.000208042
0.000208051
0.000208065
0.000208051
0.000187234
0.000187379
0.000208061
0.000208059
0.00020806
0.000187384
0.000187241
0.000208053
0.00020805
0.000187244
0.000208062
0.000208042
0.000208051
0.000187234
0.00020806
4.84403e-05
4.89726e-05
2.58277e-05
4.84477e-05
4.89685e-05
0.000225957
0.000225958
0.000225956
0.000225957
0.00011566
0.000208116
5.90476e-05
0.000219888
2.58252e-05
0.00011566
0.00020811
0.000219886
5.90505e-05
0.000187465
3.57669e-05
3.57602e-05
4.84419e-05
4.89727e-05
4.84335e-05
4.89717e-05
2.58267e-05
2.58261e-05
4.84457e-05
4.89687e-05
4.84383e-05
4.89676e-05
0.000225956
0.000225954
0.000225955
0.000225956
0.000225955
0.000225953
0.000225955
0.000115657
5.90319e-05
0.000219887
0.000208113
0.000115631
5.90503e-05
0.000219885
2.58243e-05
2.58237e-05
0.000115656
0.000219886
5.90354e-05
0.000208107
0.000115629
0.000219883
5.90529e-05
3.57674e-05
3.57611e-05
0.000187459
3.57745e-05
3.57682e-05
4.84466e-05
4.89721e-05
4.84355e-05
4.89712e-05
2.58259e-05
2.58256e-05
4.84533e-05
4.8968e-05
4.84424e-05
4.89671e-05
0.000225955
0.000225953
0.000225955
0.000225957
0.000225955
0.000225953
0.000225956
0.000115659
5.90345e-05
0.000219884
0.000208112
0.00011563
5.90521e-05
0.000219885
2.58235e-05
2.58232e-05
0.000115658
0.000219882
5.90371e-05
0.000208106
0.000115628
0.000219883
5.9054e-05
3.5778e-05
3.57717e-05
0.000187458
3.57837e-05
3.57774e-05
4.84509e-05
4.89719e-05
4.84417e-05
4.89711e-05
2.58258e-05
2.58257e-05
4.8458e-05
4.89678e-05
4.84495e-05
4.8967e-05
0.000225958
0.000225954
0.000225957
0.000225955
0.000225956
0.000225953
0.000225955
0.000115663
5.90367e-05
0.000219886
0.000208112
0.000115635
5.90551e-05
0.000219886
2.58234e-05
2.58233e-05
0.000115662
0.000219885
5.90396e-05
0.000208105
0.000115633
0.000219885
5.90576e-05
3.57844e-05
3.57781e-05
0.000187459
3.57886e-05
3.57822e-05
4.84359e-05
4.89727e-05
4.84377e-05
4.89735e-05
2.58264e-05
2.58266e-05
4.84428e-05
4.89686e-05
4.84456e-05
4.89694e-05
0.000225954
0.000225952
0.000225953
0.000225929
0.000225929
0.000225926
0.000225928
0.000115642
5.90335e-05
0.000219883
0.000208102
0.000115629
5.90409e-05
0.000219878
2.5824e-05
2.58241e-05
0.000115642
0.000219881
5.90368e-05
0.000208096
0.000115627
0.000219876
5.90437e-05
3.57827e-05
3.57763e-05
0.000187435
3.57815e-05
3.5775e-05
4.84102e-05
4.89768e-05
4.84083e-05
4.89762e-05
2.58267e-05
2.58265e-05
4.84171e-05
4.89727e-05
4.84152e-05
4.89721e-05
0.000225928
0.000225926
0.000225927
0.000225935
0.000225936
0.000225934
0.000225935
0.000115573
5.90028e-05
0.000219846
0.00020806
0.000115554
5.90125e-05
0.000219847
2.58243e-05
2.5824e-05
0.000115573
0.000219845
5.90062e-05
0.000208054
0.000115551
0.000219846
5.90154e-05
3.57689e-05
3.57625e-05
0.000187382
3.57659e-05
3.57594e-05
4.84067e-05
4.89767e-05
4.83985e-05
4.8976e-05
2.58265e-05
2.58264e-05
4.8414e-05
4.89728e-05
4.84065e-05
4.89719e-05
0.000225938
0.000225935
0.000225936
0.000225938
0.000225938
0.000225936
0.000225937
0.000115576
5.89913e-05
0.000219854
0.000208065
0.000115547
5.90079e-05
0.000219854
2.58241e-05
2.58239e-05
0.000115576
0.000219852
5.8995e-05
0.000208059
0.000115547
0.000219853
5.90111e-05
3.57609e-05
3.57544e-05
0.000187387
3.57636e-05
3.57571e-05
4.84066e-05
4.89767e-05
4.8398e-05
4.89759e-05
2.58267e-05
2.58266e-05
4.84139e-05
4.89725e-05
4.84061e-05
4.89717e-05
0.000225938
0.000225936
0.000225937
0.000225938
0.000225938
0.000225936
0.000225937
0.000115576
5.89906e-05
0.000219854
0.000208065
0.000115548
5.90077e-05
0.000219854
2.58241e-05
2.58239e-05
0.000115575
0.000219852
5.89943e-05
0.000208059
0.000115547
0.000219853
5.90109e-05
3.57606e-05
3.57542e-05
0.000187382
3.57636e-05
3.57571e-05
4.84066e-05
4.89767e-05
4.8398e-05
4.89759e-05
2.58267e-05
2.58266e-05
4.8414e-05
4.89725e-05
4.84061e-05
4.89717e-05
0.000225938
0.000225936
0.000225937
0.000225938
0.000225938
0.000225936
0.000225937
0.000115575
5.89906e-05
0.000219854
0.000208065
0.000115548
5.90077e-05
0.000219855
2.58241e-05
2.58239e-05
0.000115575
0.000219853
5.89943e-05
0.000208059
0.000115547
0.000219853
5.90109e-05
3.57607e-05
3.57543e-05
0.000187384
3.57636e-05
3.57571e-05
4.84066e-05
4.89767e-05
4.8398e-05
4.89759e-05
2.58267e-05
2.58266e-05
4.8414e-05
4.89724e-05
4.84061e-05
4.89716e-05
0.000225938
0.000225936
0.000225937
0.000225938
0.000225938
0.000225936
0.000225937
0.000115576
5.89906e-05
0.000219854
0.000208065
0.000115547
5.90077e-05
0.000219854
2.58241e-05
2.58239e-05
0.000115575
0.000219853
5.89943e-05
0.000208059
0.000115546
0.000219853
5.90109e-05
3.57606e-05
3.57543e-05
0.000187386
3.57636e-05
3.57571e-05
4.84066e-05
4.89767e-05
4.8398e-05
4.89759e-05
2.58267e-05
2.58266e-05
4.8414e-05
4.89724e-05
4.84061e-05
4.89716e-05
0.000225938
0.000225936
0.000225937
0.000225938
0.000225938
0.000225936
0.000225937
0.000115576
5.89906e-05
0.000219854
0.000208065
0.000115548
5.90077e-05
0.000219855
2.58241e-05
2.58239e-05
0.000115575
0.000219853
5.89943e-05
0.000208059
0.000115546
0.000219853
5.90109e-05
3.57606e-05
3.57543e-05
0.000187385
3.57636e-05
3.57571e-05
4.84066e-05
4.89767e-05
4.8398e-05
4.89759e-05
2.58267e-05
2.58266e-05
4.84139e-05
4.89724e-05
4.84061e-05
4.89716e-05
0.000225938
0.000225936
0.000225937
0.000225938
0.000225938
0.000225936
0.000225937
0.000115575
5.89906e-05
0.000219854
0.000208065
0.000115548
5.90077e-05
0.000219854
2.58241e-05
2.58239e-05
0.000115574
0.000219853
5.89943e-05
0.000208059
0.000115546
0.000219853
5.90109e-05
3.57606e-05
3.57543e-05
0.000187385
3.57636e-05
3.57571e-05
4.84066e-05
4.89767e-05
4.8398e-05
4.89759e-05
2.58267e-05
2.58266e-05
4.84139e-05
4.89724e-05
4.84061e-05
4.89716e-05
0.000225938
0.000225936
0.000225937
0.000225938
0.000225938
0.000225936
0.000225937
0.000115576
5.89906e-05
0.000219854
0.000208065
0.000115547
5.90077e-05
0.000219854
2.58241e-05
2.58239e-05
0.000115573
0.000219853
5.89943e-05
0.000208059
0.000115546
0.000219853
5.90109e-05
3.57606e-05
3.57543e-05
0.000187385
3.57636e-05
3.57571e-05
4.84066e-05
4.89767e-05
4.8398e-05
4.89759e-05
2.58267e-05
2.58266e-05
4.84139e-05
4.89724e-05
4.84061e-05
4.89716e-05
0.000225938
0.000225936
0.000225937
0.000225938
0.000225938
0.000225936
0.000225937
0.000115576
5.89906e-05
0.000219854
0.000208065
0.000115548
5.90077e-05
0.000219855
2.58241e-05
2.58239e-05
0.000115571
0.000219853
5.89943e-05
0.000208059
0.000115544
0.000219853
5.90109e-05
3.57606e-05
3.57543e-05
0.000187384
3.57636e-05
3.57571e-05
4.84066e-05
4.89767e-05
4.8398e-05
4.89759e-05
2.58267e-05
2.58266e-05
4.84139e-05
4.89724e-05
4.84061e-05
4.89716e-05
0.000225938
0.000225936
0.000225937
0.000225938
0.000225938
0.000225936
0.000225937
0.000115576
5.89906e-05
0.000219854
0.000208065
0.000115548
5.90077e-05
0.000219854
2.58241e-05
2.58239e-05
0.000115569
0.000219853
5.89943e-05
0.000208059
0.000115542
0.000219853
5.90109e-05
3.57606e-05
3.57543e-05
0.000187384
3.57636e-05
3.57571e-05
4.84066e-05
4.89767e-05
4.8398e-05
4.89759e-05
2.58267e-05
2.58266e-05
4.84139e-05
4.89724e-05
4.84061e-05
4.89716e-05
0.000225938
0.000225936
0.000225937
0.000225938
0.000225938
0.000225936
0.000225937
0.000115576
5.89906e-05
0.000219854
0.000208065
0.000115548
5.90078e-05
0.000219855
2.58241e-05
2.58239e-05
0.000115568
0.000219852
5.89943e-05
0.000208059
0.00011554
0.000219853
5.90108e-05
3.57606e-05
3.57543e-05
0.000187384
3.57636e-05
3.57571e-05
4.84066e-05
4.89767e-05
4.8398e-05
4.89759e-05
2.58267e-05
2.58266e-05
4.84139e-05
4.89724e-05
4.84061e-05
4.89716e-05
0.000225938
0.000225936
0.000225937
0.000225938
0.000225938
0.000225936
0.000225937
0.000115576
5.89906e-05
0.000219854
0.000208065
0.000115548
5.90078e-05
0.000219854
2.58241e-05
2.58239e-05
0.000115568
0.000219852
5.89942e-05
0.000208059
0.00011554
0.000219853
5.90108e-05
3.57606e-05
3.57543e-05
0.000187384
3.57636e-05
3.57571e-05
4.84066e-05
4.89767e-05
4.8398e-05
4.89759e-05
2.58267e-05
2.58266e-05
4.8414e-05
4.89724e-05
4.84061e-05
4.89716e-05
0.000225938
0.000225936
0.000225937
0.000115577
5.89906e-05
0.000219854
0.000208065
0.000115548
5.90078e-05
0.000219855
2.58241e-05
2.58239e-05
0.00011557
0.000219852
5.89943e-05
0.00020806
0.000115539
0.000219853
5.90116e-05
3.57607e-05
3.57543e-05
0.000187387
3.57616e-05
3.57544e-05
2.58289e-05
2.5827e-05
0.00018747
3.57673e-05
3.57602e-05
2.58279e-05
2.58289e-05
2.5826e-05
2.5827e-05
0.000187322
3.57707e-05
3.57632e-05
3.57654e-05
3.57581e-05
4.84411e-05
4.89722e-05
0.000115662
0.000208104
5.90533e-05
0.000219888
0.000115663
0.000208101
5.90504e-05
0.000219887
4.84338e-05
4.89721e-05
4.89731e-05
4.8442e-05
4.84345e-05
4.89717e-05
4.89727e-05
4.84424e-05
0.000115637
0.000208103
5.90546e-05
0.000219887
5.9039e-05
0.000219887
0.000115661
0.000115638
0.000208101
5.90517e-05
0.000219887
5.90358e-05
0.000219887
0.000115663
0.000187473
3.57638e-05
3.57615e-05
2.58284e-05
2.58267e-05
2.58276e-05
0.000187325
3.57657e-05
3.57607e-05
3.57614e-05
3.57579e-05
2.58275e-05
2.58285e-05
0.000115663
0.000208113
5.90448e-05
0.000219888
4.84461e-05
4.89656e-05
0.000115663
0.000208094
0.000219884
5.90367e-05
4.84415e-05
4.8968e-05
4.8969e-05
4.84467e-05
0.000115639
0.000208113
5.90461e-05
0.000219887
5.90306e-05
0.000219887
0.000115662
4.84399e-05
4.89651e-05
4.89661e-05
4.84454e-05
0.000115638
0.000208094
0.000219884
5.90379e-05
0.000219884
5.90215e-05
0.000115661
4.84401e-05
4.89707e-05
0.000115661
0.000208102
0.000219887
5.905e-05
4.84398e-05
4.8969e-05
0.000115635
0.000208116
5.90487e-05
0.000219888
5.90325e-05
0.000219888
0.000115658
4.84335e-05
4.89702e-05
4.89712e-05
4.84418e-05
0.000115636
0.000208102
0.000219887
5.90512e-05
0.000219887
5.90355e-05
0.00011566
4.84332e-05
4.89685e-05
4.89695e-05
4.84415e-05
0.000187463
3.57545e-05
3.57665e-05
2.58278e-05
2.58243e-05
2.58252e-05
0.000187315
3.57537e-05
3.57695e-05
3.57509e-05
3.57644e-05
2.58268e-05
2.58277e-05
0.000115663
0.000208112
0.000219887
5.90471e-05
4.84469e-05
4.89687e-05
4.84471e-05
4.89686e-05
0.000115635
0.00020811
0.000219886
5.90517e-05
0.000219886
5.9036e-05
0.000115658
0.000115637
0.000208112
0.000219887
5.90482e-05
0.000219887
5.90324e-05
0.000115662
4.84406e-05
4.89682e-05
4.89692e-05
4.84467e-05
4.84409e-05
4.89682e-05
4.89691e-05
4.8447e-05
2.58276e-05
2.58267e-05
0.000187317
3.57693e-05
3.57628e-05
3.57647e-05
3.57581e-05
2.58266e-05
2.58276e-05
2.58256e-05
2.58266e-05
2.5828e-05
2.58274e-05
2.58261e-05
2.58255e-05
3.57695e-05
3.57619e-05
0.000187464
3.57765e-05
3.57689e-05
2.5827e-05
2.58275e-05
2.58251e-05
2.58256e-05
0.000187318
3.57816e-05
3.57739e-05
3.57754e-05
3.57677e-05
4.84417e-05
4.89722e-05
4.84352e-05
4.89713e-05
0.000115661
5.90404e-05
0.000219887
0.000208103
0.000115638
5.90559e-05
0.000219887
0.000115662
5.90371e-05
0.000219887
0.0002081
0.000115639
5.90531e-05
0.000219887
4.84349e-05
4.89714e-05
4.89722e-05
4.84433e-05
4.84348e-05
4.8971e-05
4.89718e-05
4.84439e-05
0.000115637
0.000208103
5.90564e-05
0.000219887
5.90416e-05
0.000219887
0.000115661
0.000115638
0.0002081
5.90537e-05
0.000219887
5.90384e-05
0.000219887
0.000115662
3.57642e-05
3.57593e-05
0.000187467
3.57706e-05
3.57677e-05
2.58276e-05
2.58269e-05
2.58258e-05
2.58262e-05
0.00018732
3.57756e-05
3.57732e-05
3.57695e-05
3.57668e-05
2.58266e-05
2.58271e-05
0.000115661
5.90319e-05
0.000219886
0.000208112
0.000115639
5.90474e-05
0.000219886
4.84448e-05
4.89656e-05
4.84387e-05
4.89647e-05
0.000115661
0.000219884
5.90227e-05
0.000208093
0.000115638
0.000219884
5.90395e-05
4.844e-05
4.89673e-05
4.89681e-05
4.8449e-05
0.000115638
0.000208112
5.9048e-05
0.000219886
5.90331e-05
0.000219886
0.000115662
4.84391e-05
4.89644e-05
4.89653e-05
4.84482e-05
0.000115637
0.000208094
0.000219884
5.90408e-05
0.000219884
5.90245e-05
0.000115661
4.84418e-05
4.89707e-05
4.84348e-05
4.89698e-05
0.00011566
0.000219886
5.90368e-05
0.000208101
0.000115637
0.000219886
5.90525e-05
4.84417e-05
4.8969e-05
4.84345e-05
4.89681e-05
0.000115633
0.000208113
5.90514e-05
0.000219884
5.90353e-05
0.000219885
0.000115657
4.84349e-05
4.89695e-05
4.89703e-05
4.84435e-05
0.000115637
0.000208101
0.000219885
5.90531e-05
0.000219885
5.9038e-05
0.00011566
4.84348e-05
4.89678e-05
4.89686e-05
4.84434e-05
3.57515e-05
3.57683e-05
0.000187457
3.57595e-05
3.57752e-05
2.58268e-05
2.58262e-05
2.58233e-05
2.58238e-05
0.000187311
3.5765e-05
3.57804e-05
3.57581e-05
3.57741e-05
2.58259e-05
2.58263e-05
0.00011566
0.000219886
5.90336e-05
0.000208111
0.000115637
0.000219886
5.90495e-05
4.84457e-05
4.89687e-05
4.84398e-05
4.89678e-05
4.84463e-05
4.89686e-05
4.84402e-05
4.89677e-05
0.000115632
0.000208107
0.000219882
5.90535e-05
0.000219883
5.90384e-05
0.000115656
0.000115635
0.000208111
0.000219885
5.90499e-05
0.000219886
5.90347e-05
0.00011566
4.84397e-05
4.89675e-05
4.89683e-05
4.84487e-05
4.84402e-05
4.89674e-05
4.89682e-05
4.84492e-05
2.58267e-05
2.58261e-05
2.58257e-05
2.58251e-05
0.000187314
3.57797e-05
3.57735e-05
3.57733e-05
3.57671e-05
2.58257e-05
2.58262e-05
2.58247e-05
2.58252e-05
2.58272e-05
2.58269e-05
2.58253e-05
2.5825e-05
3.57802e-05
3.57725e-05
0.000187461
3.57855e-05
3.57778e-05
2.58269e-05
2.58271e-05
2.5825e-05
2.58252e-05
0.000187315
3.57885e-05
3.57808e-05
3.57839e-05
3.57762e-05
4.84477e-05
4.89715e-05
4.84378e-05
4.89708e-05
0.000115663
5.90419e-05
0.000219886
0.000208104
0.000115638
5.90569e-05
0.000219886
0.000115664
5.90389e-05
0.000219884
0.000208099
0.000115639
5.90543e-05
0.000219884
4.84404e-05
4.89711e-05
4.89718e-05
4.84497e-05
4.84415e-05
4.89707e-05
4.89714e-05
4.84508e-05
0.000115639
0.000208104
5.90588e-05
0.000219887
5.90427e-05
0.000219886
0.000115665
0.00011564
0.0002081
5.90561e-05
0.000219885
5.90398e-05
0.000219884
0.000115666
3.57741e-05
3.57712e-05
0.000187464
3.57794e-05
3.57765e-05
2.58268e-05
2.58264e-05
2.58256e-05
2.58258e-05
0.000187318
3.57823e-05
3.57792e-05
3.57777e-05
3.57744e-05
2.58264e-05
2.58266e-05
0.000115664
5.90335e-05
0.000219886
0.000208111
0.000115639
5.90486e-05
0.000219885
4.84524e-05
4.8965e-05
4.84431e-05
4.89643e-05
0.000115663
0.000219881
5.90256e-05
0.000208094
0.000115639
0.000219881
5.90417e-05
4.8448e-05
4.8967e-05
4.89677e-05
4.84567e-05
0.000115641
0.000208112
5.90505e-05
0.000219888
5.90345e-05
0.000219887
0.000115666
4.8447e-05
4.89642e-05
4.89649e-05
4.84556e-05
0.00011564
0.000208094
0.000219883
5.90432e-05
0.000219882
5.90266e-05
0.000115665
4.84468e-05
4.89701e-05
4.84372e-05
4.89693e-05
0.000115662
0.000219884
5.90385e-05
0.0002081
0.000115637
0.000219884
5.90538e-05
4.84467e-05
4.89683e-05
4.84371e-05
4.89676e-05
0.000115635
0.000208112
5.90535e-05
0.000219886
5.90371e-05
0.000219885
0.000115661
4.84405e-05
4.89692e-05
4.89699e-05
4.84498e-05
0.000115638
0.000208101
0.000219885
5.90555e-05
0.000219884
5.90393e-05
0.000115663
4.84404e-05
4.89675e-05
4.89681e-05
4.84497e-05
3.5763e-05
3.5779e-05
0.000187455
3.57686e-05
3.57843e-05
2.5826e-05
2.58257e-05
2.58232e-05
2.58234e-05
0.000187309
3.57713e-05
3.57872e-05
3.57663e-05
3.57826e-05
2.58257e-05
2.58259e-05
0.000115661
0.000219882
5.9035e-05
0.000208109
0.000115636
0.000219882
5.90503e-05
4.84528e-05
4.8968e-05
4.84433e-05
4.89673e-05
4.84532e-05
4.89679e-05
4.84438e-05
4.89672e-05
0.000115634
0.000208106
0.000219884
5.90556e-05
0.000219883
5.90396e-05
0.000115661
0.000115637
0.00020811
0.000219883
5.9052e-05
0.000219881
5.90357e-05
0.000115663
4.84472e-05
4.89672e-05
4.89679e-05
4.8456e-05
4.84476e-05
4.89671e-05
4.89678e-05
4.84563e-05
2.58259e-05
2.58255e-05
2.58249e-05
2.58246e-05
0.000187312
3.57867e-05
3.57804e-05
3.5782e-05
3.57758e-05
2.58255e-05
2.58257e-05
2.58246e-05
2.58248e-05
2.58271e-05
2.5827e-05
2.58252e-05
2.58251e-05
3.57866e-05
3.57789e-05
0.000187462
3.57904e-05
3.57828e-05
2.58274e-05
2.58273e-05
2.58255e-05
2.58254e-05
0.000187316
3.57888e-05
3.57811e-05
3.57882e-05
3.57805e-05
4.84521e-05
4.89713e-05
4.84443e-05
4.89707e-05
0.000115666
5.90447e-05
0.000219887
0.000208103
0.000115642
5.90608e-05
0.000219887
0.000115668
5.90417e-05
0.000219886
0.000208101
0.000115643
5.9058e-05
0.000219887
4.84439e-05
4.89716e-05
4.89717e-05
4.84486e-05
4.84451e-05
4.89712e-05
4.89713e-05
4.84498e-05
0.000115637
0.000208102
5.90583e-05
0.000219885
5.90464e-05
0.000219887
0.000115656
0.000115639
0.000208101
5.90556e-05
0.000219885
5.90433e-05
0.000219887
0.000115658
3.57803e-05
3.57767e-05
0.000187465
3.57841e-05
3.57809e-05
2.58267e-05
2.58265e-05
2.58262e-05
2.5826e-05
0.000187318
3.57824e-05
3.57793e-05
3.57818e-05
3.57782e-05
2.58269e-05
2.58269e-05
0.000115666
5.90365e-05
0.000219888
0.000208114
0.000115644
5.90525e-05
0.000219888
4.84569e-05
4.89648e-05
4.84499e-05
4.89642e-05
0.000115666
0.000219883
5.90281e-05
0.000208093
0.000115643
0.000219883
5.90447e-05
4.84517e-05
4.89675e-05
4.89677e-05
4.84557e-05
0.000115638
0.000208113
5.905e-05
0.000219885
5.90381e-05
0.000219887
0.000115657
4.84507e-05
4.89647e-05
4.89648e-05
4.84547e-05
0.000115638
0.000208092
0.000219882
5.90421e-05
0.000219883
5.90293e-05
0.000115657
4.84511e-05
4.89699e-05
4.84433e-05
4.89692e-05
0.000115665
0.000219886
5.90413e-05
0.000208102
0.000115641
0.000219886
5.90575e-05
4.84509e-05
4.89681e-05
4.84432e-05
4.89675e-05
0.000115639
0.000208112
5.90528e-05
0.000219885
5.90399e-05
0.000219886
0.000115659
4.84442e-05
4.89697e-05
4.89699e-05
4.84491e-05
0.000115638
0.000208101
0.000219885
5.90551e-05
0.000219886
5.90428e-05
0.000115656
4.84439e-05
4.89679e-05
4.89681e-05
4.84486e-05
3.57687e-05
3.57853e-05
0.000187455
3.57729e-05
3.57891e-05
2.5826e-05
2.58258e-05
2.58237e-05
2.58236e-05
0.000187309
3.57711e-05
3.57875e-05
3.577e-05
3.57869e-05
2.58263e-05
2.58261e-05
0.000115664
0.000219886
5.90376e-05
0.000208112
0.00011564
0.000219887
5.90539e-05
4.84575e-05
4.89678e-05
4.84502e-05
4.89672e-05
4.84575e-05
4.89677e-05
4.84504e-05
4.89671e-05
0.000115636
0.000208105
0.000219884
5.90555e-05
0.000219885
5.90431e-05
0.000115657
0.000115636
0.00020811
0.000219885
5.90515e-05
0.000219887
5.90391e-05
0.000115656
4.84512e-05
4.89677e-05
4.89678e-05
4.84555e-05
4.84511e-05
4.89676e-05
4.89677e-05
4.84553e-05
2.58258e-05
2.58256e-05
2.58248e-05
2.58247e-05
0.000187313
3.5787e-05
3.57806e-05
3.57863e-05
3.57799e-05
2.58261e-05
2.58259e-05
2.58251e-05
2.5825e-05
2.58277e-05
2.58278e-05
2.58258e-05
2.58259e-05
3.57849e-05
3.57772e-05
0.000187438
3.57832e-05
3.57755e-05
2.58278e-05
2.5828e-05
2.58259e-05
2.58261e-05
0.000187278
3.57757e-05
3.5768e-05
3.5779e-05
3.57713e-05
4.84369e-05
4.8972e-05
4.84404e-05
4.8973e-05
0.000115641
5.90413e-05
0.000219883
0.00020809
0.000115626
5.90461e-05
0.000219877
0.000115643
5.90384e-05
0.000219883
0.000208087
0.000115628
5.90434e-05
0.000219877
4.84242e-05
4.89759e-05
4.89749e-05
4.84201e-05
4.84251e-05
4.89756e-05
4.89745e-05
4.84208e-05
0.000115606
0.000208072
5.90291e-05
0.000219849
5.90272e-05
0.000219861
0.000115591
0.000115608
0.000208069
5.90262e-05
0.000219849
5.90241e-05
0.000219861
0.000115592
3.57784e-05
3.57749e-05
0.000187441
3.57767e-05
3.57737e-05
2.58273e-05
2.58273e-05
2.58266e-05
2.58268e-05
0.000187281
3.57692e-05
3.57659e-05
3.57725e-05
3.57691e-05
2.58273e-05
2.58276e-05
0.000115643
5.90331e-05
0.000219882
0.000208099
0.000115628
5.90378e-05
0.000219876
4.84416e-05
4.89656e-05
4.84461e-05
4.89664e-05
0.000115643
0.00021988
5.90243e-05
0.00020808
0.000115627
0.000219874
5.903e-05
4.84317e-05
4.89718e-05
4.89708e-05
4.84264e-05
0.000115608
0.000208082
5.90207e-05
0.000219848
5.90189e-05
0.00021986
0.000115591
4.84305e-05
4.89691e-05
4.8968e-05
4.8425e-05
0.000115607
0.000208063
0.000219846
5.90128e-05
0.000219858
5.90101e-05
0.000115591
4.84362e-05
4.89706e-05
4.84397e-05
4.89715e-05
0.000115641
0.000219883
5.9038e-05
0.000208088
0.000115627
0.000219877
5.9043e-05
4.84357e-05
4.89688e-05
4.84392e-05
4.89697e-05
0.000115607
0.000208086
5.90238e-05
0.000219851
5.90212e-05
0.000219862
0.000115592
4.84243e-05
4.89741e-05
4.8973e-05
4.84201e-05
0.000115606
0.000208071
0.000219849
5.90258e-05
0.000219861
5.90238e-05
0.00011559
4.84238e-05
4.89724e-05
4.89713e-05
4.84195e-05
3.57666e-05
3.57836e-05
0.000187431
3.57655e-05
3.5782e-05
2.58266e-05
2.58267e-05
2.58241e-05
2.58244e-05
0.000187271
3.5758e-05
3.57745e-05
3.57606e-05
3.57777e-05
2.58267e-05
2.58269e-05
0.000115641
0.000219882
5.90342e-05
0.000208097
0.000115626
0.000219876
5.90393e-05
4.84425e-05
4.89685e-05
4.84467e-05
4.89695e-05
4.84423e-05
4.89684e-05
4.84465e-05
4.89693e-05
0.000115606
0.000208081
0.000219849
5.90265e-05
0.000219861
5.90245e-05
0.000115591
0.000115605
0.00020808
0.000219848
5.90221e-05
0.00021986
5.90199e-05
0.000115589
4.84311e-05
4.89721e-05
4.8971e-05
4.84258e-05
4.84309e-05
4.8972e-05
4.89709e-05
4.84256e-05
2.58264e-05
2.58265e-05
2.58254e-05
2.58255e-05
0.000187275
3.57741e-05
3.57677e-05
3.57773e-05
3.57708e-05
2.58265e-05
2.58267e-05
2.58255e-05
2.58257e-05
2.5828e-05
2.58277e-05
2.58261e-05
2.58258e-05
3.57709e-05
3.57632e-05
0.000187384
3.57672e-05
3.57595e-05
2.58276e-05
2.58279e-05
2.58257e-05
2.5826e-05
0.00018724
3.57652e-05
3.57575e-05
3.57638e-05
3.57561e-05
4.84109e-05
4.89763e-05
4.84102e-05
4.89759e-05
0.000115572
5.90107e-05
0.000219846
0.000208048
0.000115554
5.90181e-05
0.000219847
0.000115573
5.90075e-05
0.000219845
0.000208045
0.000115555
5.90151e-05
0.000219846
4.84019e-05
4.8976e-05
4.89767e-05
4.84073e-05
4.84026e-05
4.89758e-05
4.89764e-05
4.8408e-05
0.000115548
0.000208048
5.90146e-05
0.000219852
5.90022e-05
0.000219849
0.000115575
0.00011555
0.000208045
5.90116e-05
0.000219852
5.89988e-05
0.000219849
0.000115576
3.57648e-05
3.57614e-05
0.000187387
3.57607e-05
3.57573e-05
2.58276e-05
2.58272e-05
2.58264e-05
2.58266e-05
0.000187243
3.57587e-05
3.57548e-05
3.57573e-05
3.57534e-05
2.58272e-05
2.58275e-05
0.000115574
5.90024e-05
0.000219845
0.000208057
0.000115555
5.90097e-05
0.000219846
4.84156e-05
4.89699e-05
4.84153e-05
4.89694e-05
0.000115573
0.000219842
5.89934e-05
0.000208038
0.000115554
0.000219843
5.90015e-05
4.84097e-05
4.89721e-05
4.89726e-05
4.84145e-05
0.000115551
0.000208058
5.90065e-05
0.000219852
5.89938e-05
0.000219849
0.000115577
4.84082e-05
4.89692e-05
4.897e-05
4.84129e-05
0.000115549
0.000208038
0.000219849
5.89978e-05
0.000219846
5.89846e-05
0.000115576
4.84101e-05
4.89749e-05
4.84094e-05
4.89744e-05
0.000115571
0.000219845
5.90072e-05
0.000208046
0.000115554
0.000219846
5.90148e-05
4.84096e-05
4.89731e-05
4.84089e-05
4.89727e-05
0.000115549
0.000208061
5.90088e-05
0.000219853
5.89957e-05
0.000219851
0.000115574
4.84017e-05
4.89743e-05
4.8975e-05
4.84071e-05
0.000115548
0.000208047
0.000219852
5.90113e-05
0.000219849
5.89986e-05
0.000115574
4.84012e-05
4.89725e-05
4.89732e-05
4.84067e-05
3.57531e-05
3.57696e-05
0.000187377
3.57494e-05
3.5766e-05
2.58268e-05
2.58266e-05
2.58239e-05
2.58242e-05
0.000187233
3.57471e-05
3.5764e-05
3.57453e-05
3.57626e-05
2.58265e-05
2.58267e-05
0.000115571
0.000219845
5.90033e-05
0.000208056
0.000115552
0.000219846
5.9011e-05
4.84164e-05
4.89729e-05
4.8416e-05
4.89724e-05
4.84161e-05
4.89727e-05
4.84157e-05
4.89723e-05
0.000115549
0.000208055
0.000219851
5.90119e-05
0.000219849
5.89993e-05
0.000115575
0.000115547
0.000208056
0.000219851
5.90075e-05
0.000219848
5.89947e-05
0.000115574
4.84087e-05
4.89723e-05
4.89729e-05
4.84136e-05
4.84085e-05
4.89721e-05
4.89728e-05
4.84134e-05
2.58266e-05
2.58264e-05
2.58257e-05
2.58254e-05
0.000187239
3.5764e-05
3.57575e-05
3.57625e-05
3.57561e-05
2.58263e-05
2.58266e-05
2.58253e-05
2.58256e-05
2.58278e-05
2.58276e-05
2.58259e-05
2.58257e-05
3.57626e-05
3.57548e-05
0.000187389
3.57649e-05
3.57572e-05
2.58276e-05
2.58278e-05
2.58257e-05
2.58259e-05
0.000187243
3.57648e-05
3.57572e-05
3.57624e-05
3.57546e-05
4.84074e-05
4.89763e-05
4.84006e-05
4.89757e-05
0.000115576
5.89996e-05
0.000219853
0.000208052
0.000115551
5.90137e-05
0.000219854
0.000115578
5.89962e-05
0.000219853
0.000208049
0.000115552
5.90107e-05
0.000219853
4.83996e-05
4.89759e-05
4.89765e-05
4.84067e-05
4.84003e-05
4.89756e-05
4.89762e-05
4.84074e-05
0.000115551
0.000208052
5.90135e-05
0.000219853
5.89991e-05
0.000219854
0.000115575
0.000115553
0.000208049
5.90106e-05
0.000219853
5.89958e-05
0.000219854
0.000115577
3.57561e-05
3.57517e-05
0.000187393
3.57585e-05
3.57546e-05
2.58274e-05
2.58272e-05
2.58266e-05
2.58266e-05
0.000187246
3.57575e-05
3.57546e-05
3.57559e-05
3.57516e-05
2.58272e-05
2.58274e-05
0.000115578
5.89904e-05
0.000219853
0.000208061
0.000115553
5.9005e-05
0.000219853
4.84124e-05
4.89698e-05
4.84063e-05
4.89692e-05
0.000115577
0.00021985
5.89819e-05
0.000208042
0.000115552
0.00021985
5.89969e-05
4.84076e-05