/*--------------------------------*- C++ -*----------------------------------*\
| =========                 |                                                 |
| \\      /  F ield         | OpenFOAM: The Open Source CFD Toolbox           |
|  \\    /   O peration     | Version:  2206                                  |
|   \\  /    A nd           | Website:  www.openfoam.com                      |
|    \\/     M anipulation  |                                                 |
\*---------------------------------------------------------------------------*/
FoamFile
{
    version     2.0;
    format      ascii;
    arch        "LSB;label=32;scalar=64";
    class       volScalarField;
    location    "32";
    object      p;
}
// * * * * * * * * * * * * * * * * * * * * * * * * * * * * * * * * * * * * * //

dimensions      [0 2 -2 0 0 0 0];

internalField   nonuniform List<scalar> 
171728
(
0.00393564
0.00393597
0.00393597
0.00393902
0.00388028
0.0038807
0.0038807
0.00388369
0.00382953
0.0038295
0.0038295
0.00383226
0.00377711
0.00377714
0.00377714
0.00377993
0.00372579
0.00372579
0.00372579
0.00372855
0.00367597
0.00367584
0.00367584
0.00367849
0.00362916
0.00362903
0.00362902
0.00363142
0.00358648
0.0035864
0.0035864
0.00358887
0.00354504
0.003545
0.003545
0.00354745
0.00350378
0.00350373
0.00350373
0.00350617
0.00346255
0.00346252
0.00346252
0.00346496
0.00342134
0.0034213
0.0034213
0.00342374
0.00338013
0.00338009
0.00338009
0.00338253
0.00333891
0.00333887
0.00333887
0.00334131
0.0032977
0.00329766
0.00329766
0.0033001
0.00325648
0.00325645
0.00325645
0.00325888
0.00321527
0.00321523
0.00321523
0.00321767
0.00317406
0.00317402
0.00317402
0.00317646
0.00313284
0.0031328
0.0031328
0.00313524
0.00309162
0.00309159
0.00309159
0.00309403
0.00305041
0.00305037
0.00305037
0.00305281
0.0030092
0.00300916
0.00300916
0.0030116
0.00296798
0.00296795
0.00296795
0.00297038
0.00292677
0.00292673
0.00292673
0.00292917
0.00288555
0.00288551
0.00288551
0.00288795
0.00284434
0.0028443
0.0028443
0.00284674
0.00280313
0.00280309
0.00280309
0.00280553
0.00276192
0.00276188
0.00276188
0.00276432
0.00272071
0.00272067
0.00272067
0.00272311
0.0026795
0.00267946
0.00267946
0.0026819
0.00263829
0.00263825
0.00263825
0.00264069
0.00259708
0.00259704
0.00259704
0.00259948
0.00255586
0.00255583
0.00255583
0.00255826
0.00251465
0.00251461
0.00251461
0.00251705
0.00247343
0.00247339
0.00247339
0.00247583
0.00243221
0.00243217
0.00243217
0.00243461
0.00239099
0.00239095
0.00239095
0.00239339
0.00234977
0.00234973
0.00234973
0.00235217
0.00230854
0.00230851
0.00230851
0.00231095
0.00226732
0.00226728
0.00226728
0.00226972
0.00222609
0.00222606
0.00222606
0.0022285
0.00218487
0.00218483
0.00218483
0.00218727
0.00214364
0.0021436
0.0021436
0.00214604
0.00210241
0.00210237
0.00210237
0.00210481
0.00206118
0.00206114
0.00206114
0.00206358
0.00201995
0.00201991
0.00201991
0.00202235
0.00197872
0.00197868
0.00197868
0.00198112
0.00193749
0.00193745
0.00193745
0.00193989
0.00189627
0.00189623
0.00189623
0.00189867
0.00185504
0.001855
0.001855
0.00185744
0.00181382
0.00181378
0.00181378
0.00181622
0.00177259
0.00177255
0.00177255
0.00177499
0.00173137
0.00173133
0.00173133
0.00173377
0.00169014
0.0016901
0.0016901
0.00169254
0.00164892
0.00164888
0.00164888
0.00165132
0.00160769
0.00160766
0.00160766
0.0016101
0.00156647
0.00156643
0.00156643
0.00156887
0.00152525
0.00152521
0.00152521
0.00152765
0.00148402
0.00148398
0.00148398
0.00148642
0.0014428
0.00144276
0.00144276
0.0014452
0.00140157
0.00140153
0.00140153
0.00140397
0.00136035
0.00136031
0.00136031
0.00136275
0.00131912
0.00131908
0.00131908
0.00132152
0.0012779
0.00127786
0.00127786
0.0012803
0.00123667
0.00123664
0.00123664
0.00123907
0.00119545
0.00119541
0.00119541
0.00119785
0.00115423
0.00115419
0.00115419
0.00115663
0.00111301
0.00111297
0.00111297
0.00111541
0.0010718
0.00107176
0.00107176
0.0010742
0.00103058
0.00103055
0.00103055
0.00103298
0.000989374
0.000989336
0.000989336
0.000991774
0.000948164
0.000948126
0.000948126
0.000950564
0.000906955
0.000906917
0.000906917
0.000909356
0.000865746
0.000865708
0.000865708
0.000868146
0.000824536
0.000824498
0.000824498
0.000826937
0.000783327
0.000783289
0.000783289
0.000785727
0.000742117
0.00074208
0.00074208
0.000744518
0.000700906
0.000700869
0.000700869
0.000703307
0.000659695
0.000659657
0.000659657
0.000662096
0.000618484
0.000618446
0.000618446
0.000620885
0.000577272
0.000577234
0.000577234
0.000579673
0.000536059
0.000536021
0.000536021
0.000538459
0.000494846
0.000494808
0.000494808
0.000497247
0.000453634
0.000453596
0.000453596
0.000456035
0.000412422
0.000412384
0.000412384
0.000414823
0.00037121
0.000371172
0.000371172
0.000373611
0.000329998
0.000329961
0.00032996
0.000332399
0.000288784
0.000288748
0.000288748
0.000291185
0.000247572
0.000247528
0.000247528
0.000249965
0.000206358
0.000206328
0.000206328
0.000208757
0.00016514
0.000165102
0.000165102
0.00016753
0.000123915
0.000123879
0.000123878
0.000126287
8.26953e-05
8.26485e-05
8.26472e-05
8.50284e-05
4.21576e-05
4.1605e-05
4.1602e-05
4.38492e-05
8.79847e-06
8.96852e-06
8.96588e-06
8.51116e-06
0.00394905
0.00394927
0.00394927
0.00394905
0.00394927
0.00394927
0.00395003
0.00395003
0.00395004
0.00395004
0.00394927
0.00394927
0.00394905
0.00394927
0.00394927
0.00394905
0.00393902
0.00389026
0.00393596
0.00393597
0.00389254
0.00389254
0.00393902
0.00389026
0.00393597
0.00393597
0.00389254
0.00389254
0.00393597
0.00389253
0.00389254
0.00393902
0.00389026
0.00393597
0.00389254
0.00389253
0.00389026
0.00388369
0.00383919
0.0038807
0.0038807
0.00384263
0.00384263
0.00388369
0.00383919
0.0038807
0.0038807
0.00384262
0.00384263
0.0038807
0.00384263
0.00384263
0.00388369
0.00383919
0.0038807
0.00384262
0.00384263
0.00383919
0.00383226
0.00378681
0.0038295
0.0038295
0.00379016
0.00379016
0.00383226
0.00378681
0.0038295
0.0038295
0.00379016
0.00379016
0.0038295
0.00379016
0.00379016
0.00383226
0.00378681
0.0038295
0.00379016
0.00379016
0.00378681
0.00377994
0.00373526
0.00377714
0.00377714
0.00373851
0.00373851
0.00377993
0.00373526
0.00377714
0.00377714
0.00373851
0.00373851
0.00377714
0.00373851
0.00373851
0.00377994
0.00373526
0.00377714
0.00373851
0.00373851
0.00373526
0.00372855
0.00368501
0.00372579
0.00372579
0.0036882
0.0036882
0.00372855
0.00368501
0.00372579
0.00372579
0.0036882
0.0036882
0.00372579
0.0036882
0.0036882
0.00372855
0.00368501
0.00372579
0.0036882
0.0036882
0.00368501
0.00367849
0.00363734
0.00367584
0.00367584
0.0036403
0.0036403
0.00367849
0.00363734
0.00367584
0.00367584
0.0036403
0.0036403
0.00367584
0.00364031
0.00364031
0.00367849
0.00363734
0.00367584
0.00364031
0.00364031
0.00363734
0.00363141
0.00359435
0.00362901
0.00362902
0.00359682
0.00359682
0.00363142
0.00359435
0.00362902
0.00362902
0.00359682
0.00359682
0.00362903
0.00359682
0.00359681
0.00363142
0.00359435
0.00362903
0.00359682
0.00359681
0.00359435
0.00358887
0.00355289
0.0035864
0.0035864
0.00355533
0.00355533
0.00358888
0.0035529
0.0035864
0.0035864
0.00355533
0.00355533
0.0035864
0.00355533
0.00355533
0.00358887
0.00355289
0.0035864
0.00355533
0.00355533
0.00355289
0.00354745
0.00351161
0.003545
0.003545
0.00351404
0.00351404
0.00354745
0.00351161
0.003545
0.003545
0.00351404
0.00351404
0.003545
0.00351404
0.00351404
0.00354745
0.00351161
0.003545
0.00351404
0.00351404
0.00351161
0.00350617
0.00347039
0.00350373
0.00350373
0.00347282
0.00347282
0.00350617
0.00347039
0.00350373
0.00350373
0.00347282
0.00347282
0.00350373
0.00347282
0.00347282
0.00350617
0.00347039
0.00350373
0.00347282
0.00347282
0.00347039
0.00346495
0.00342917
0.00346252
0.00346252
0.00343161
0.00343161
0.00346495
0.00342917
0.00346252
0.00346252
0.00343161
0.00343161
0.00346252
0.00343161
0.00343161
0.00346495
0.00342917
0.00346252
0.00343161
0.00343161
0.00342918
0.00342374
0.00338796
0.0034213
0.0034213
0.00339039
0.00339039
0.00342374
0.00338796
0.0034213
0.0034213
0.00339039
0.00339039
0.0034213
0.00339039
0.00339039
0.00342374
0.00338796
0.0034213
0.00339039
0.00339039
0.00338796
0.00338253
0.00334675
0.00338009
0.00338009
0.00334918
0.00334918
0.00338253
0.00334675
0.00338009
0.00338009
0.00334918
0.00334918
0.00338009
0.00334918
0.00334918
0.00338253
0.00334675
0.00338009
0.00334918
0.00334918
0.00334675
0.00334131
0.00330553
0.00333887
0.00333887
0.00330796
0.00330796
0.00334131
0.00330553
0.00333887
0.00333887
0.00330796
0.00330796
0.00333887
0.00330796
0.00330796
0.00334131
0.00330553
0.00333887
0.00330796
0.00330796
0.00330553
0.0033001
0.00326432
0.00329766
0.00329766
0.00326675
0.00326675
0.0033001
0.00326432
0.00329766
0.00329766
0.00326675
0.00326675
0.00329766
0.00326675
0.00326675
0.0033001
0.00326432
0.00329766
0.00326675
0.00326675
0.00326432
0.00325888
0.0032231
0.00325645
0.00325645
0.00322553
0.00322553
0.00325888
0.0032231
0.00325645
0.00325645
0.00322553
0.00322553
0.00325645
0.00322553
0.00322553
0.00325888
0.0032231
0.00325645
0.00322553
0.00322553
0.0032231
0.00321767
0.00318189
0.00321523
0.00321523
0.00318432
0.00318432
0.00321767
0.00318189
0.00321523
0.00321523
0.00318432
0.00318432
0.00321523
0.00318432
0.00318432
0.00321767
0.00318189
0.00321523
0.00318432
0.00318432
0.00318189
0.00317646
0.00314068
0.00317402
0.00317402
0.00314311
0.00314311
0.00317646
0.00314068
0.00317402
0.00317402
0.00314311
0.00314311
0.00317402
0.00314311
0.00314311
0.00317646
0.00314067
0.00317402
0.00314311
0.00314311
0.00314067
0.00313524
0.00309946
0.0031328
0.0031328
0.00310189
0.00310189
0.00313524
0.00309946
0.0031328
0.0031328
0.00310189
0.00310189
0.0031328
0.00310189
0.00310189
0.00313524
0.00309946
0.0031328
0.00310189
0.00310189
0.00309946
0.00309403
0.00305825
0.00309159
0.00309159
0.00306068
0.00306068
0.00309402
0.00305825
0.00309159
0.00309159
0.00306068
0.00306068
0.00309159
0.00306068
0.00306068
0.00309403
0.00305825
0.00309159
0.00306068
0.00306068
0.00305825
0.00305281
0.00301703
0.00305037
0.00305037
0.00301946
0.00301946
0.00305281
0.00301703
0.00305037
0.00305037
0.00301946
0.00301946
0.00305037
0.00301946
0.00301946
0.00305281
0.00301703
0.00305037
0.00301946
0.00301946
0.00301703
0.0030116
0.00297582
0.00300916
0.00300916
0.00297825
0.00297825
0.0030116
0.00297582
0.00300916
0.00300916
0.00297825
0.00297825
0.00300916
0.00297825
0.00297825
0.0030116
0.00297582
0.00300916
0.00297825
0.00297825
0.00297582
0.00297038
0.0029346
0.00296795
0.00296795
0.00293703
0.00293703
0.00297038
0.0029346
0.00296794
0.00296795
0.00293703
0.00293703
0.00296795
0.00293703
0.00293703
0.00297038
0.0029346
0.00296795
0.00293703
0.00293703
0.0029346
0.00292917
0.00289339
0.00292673
0.00292673
0.00289582
0.00289582
0.00292917
0.00289339
0.00292673
0.00292673
0.00289582
0.00289582
0.00292673
0.00289582
0.00289582
0.00292917
0.00289339
0.00292673
0.00289582
0.00289582
0.00289339
0.00288795
0.00285217
0.00288551
0.00288551
0.0028546
0.0028546
0.00288795
0.00285217
0.00288551
0.00288551
0.0028546
0.0028546
0.00288551
0.0028546
0.0028546
0.00288795
0.00285217
0.00288551
0.0028546
0.0028546
0.00285217
0.00284674
0.00281096
0.0028443
0.0028443
0.00281339
0.00281339
0.00284674
0.00281096
0.0028443
0.0028443
0.00281339
0.00281339
0.0028443
0.00281339
0.00281339
0.00284674
0.00281096
0.0028443
0.00281339
0.00281339
0.00281096
0.00280553
0.00276975
0.00280309
0.00280309
0.00277218
0.00277218
0.00280553
0.00276975
0.00280309
0.00280309
0.00277218
0.00277218
0.00280309
0.00277218
0.00277218
0.00280553
0.00276975
0.00280309
0.00277218
0.00277218
0.00276975
0.00276432
0.00272854
0.00276188
0.00276188
0.00273097
0.00273097
0.00276432
0.00272854
0.00276188
0.00276188
0.00273097
0.00273097
0.00276188
0.00273097
0.00273097
0.00276432
0.00272854
0.00276188
0.00273097
0.00273097
0.00272854
0.00272311
0.00268733
0.00272067
0.00272067
0.00268976
0.00268976
0.00272311
0.00268733
0.00272067
0.00272067
0.00268976
0.00268976
0.00272067
0.00268976
0.00268976
0.00272311
0.00268733
0.00272067
0.00268976
0.00268976
0.00268733
0.0026819
0.00264612
0.00267946
0.00267946
0.00264855
0.00264855
0.0026819
0.00264612
0.00267946
0.00267946
0.00264855
0.00264855
0.00267946
0.00264855
0.00264855
0.0026819
0.00264612
0.00267946
0.00264855
0.00264855
0.00264612
0.00264069
0.00260491
0.00263825
0.00263825
0.00260734
0.00260734
0.00264069
0.00260491
0.00263825
0.00263825
0.00260734
0.00260734
0.00263825
0.00260734
0.00260734
0.00264069
0.00260491
0.00263825
0.00260734
0.00260734
0.00260491
0.00259948
0.0025637
0.00259704
0.00259704
0.00256613
0.00256613
0.00259948
0.0025637
0.00259704
0.00259704
0.00256613
0.00256613
0.00259704
0.00256613
0.00256613
0.00259948
0.0025637
0.00259704
0.00256613
0.00256613
0.0025637
0.00255826
0.00252248
0.00255583
0.00255583
0.00252492
0.00252492
0.00255826
0.00252248
0.00255583
0.00255583
0.00252492
0.00252492
0.00255583
0.00252492
0.00252492
0.00255826
0.00252248
0.00255583
0.00252492
0.00252492
0.00252248
0.00251705
0.00248127
0.00251461
0.00251461
0.0024837
0.0024837
0.00251705
0.00248127
0.00251461
0.00251461
0.0024837
0.0024837
0.00251461
0.0024837
0.0024837
0.00251705
0.00248127
0.00251461
0.0024837
0.0024837
0.00248127
0.00247583
0.00244005
0.00247339
0.00247339
0.00244248
0.00244248
0.00247583
0.00244005
0.00247339
0.00247339
0.00244248
0.00244248
0.00247339
0.00244248
0.00244248
0.00247583
0.00244005
0.00247339
0.00244248
0.00244248
0.00244005
0.00243461
0.00239883
0.00243217
0.00243217
0.00240126
0.00240126
0.00243461
0.00239883
0.00243217
0.00243217
0.00240126
0.00240126
0.00243217
0.00240126
0.00240126
0.00243461
0.00239883
0.00243217
0.00240126
0.00240126
0.00239883
0.00239339
0.0023576
0.00239095
0.00239095
0.00236004
0.00236004
0.00239339
0.0023576
0.00239095
0.00239095
0.00236003
0.00236004
0.00239095
0.00236004
0.00236004
0.00239339
0.0023576
0.00239095
0.00236004
0.00236004
0.0023576
0.00235217
0.00231638
0.00234973
0.00234973
0.00231881
0.00231881
0.00235217
0.00231638
0.00234973
0.00234973
0.00231881
0.00231881
0.00234973
0.00231881
0.00231881
0.00235217
0.00231638
0.00234973
0.00231881
0.00231881
0.00231638
0.00231094
0.00227516
0.00230851
0.00230851
0.00227759
0.00227759
0.00231094
0.00227516
0.00230851
0.00230851
0.00227759
0.00227759
0.00230851
0.00227759
0.00227759
0.00231095
0.00227516
0.00230851
0.00227759
0.00227759
0.00227516
0.00226972
0.00223393
0.00226728
0.00226728
0.00223636
0.00223636
0.00226972
0.00223393
0.00226728
0.00226728
0.00223636
0.00223636
0.00226728
0.00223636
0.00223636
0.00226972
0.00223393
0.00226728
0.00223636
0.00223636
0.00223393
0.0022285
0.0021927
0.00222606
0.00222606
0.00219514
0.00219514
0.0022285
0.0021927
0.00222606
0.00222606
0.00219514
0.00219514
0.00222606
0.00219514
0.00219514
0.0022285
0.0021927
0.00222606
0.00219514
0.00219514
0.0021927
0.00218727
0.00215147
0.00218483
0.00218483
0.00215391
0.0021539
0.00218727
0.00215147
0.00218483
0.00218483
0.00215391
0.00215391
0.00218483
0.00215391
0.00215391
0.00218727
0.00215147
0.00218483
0.00215391
0.00215391
0.00215147
0.00214604
0.00211024
0.0021436
0.0021436
0.00211268
0.00211268
0.00214604
0.00211024
0.0021436
0.0021436
0.00211268
0.00211268
0.0021436
0.00211268
0.00211268
0.00214604
0.00211024
0.0021436
0.00211268
0.00211268
0.00211024
0.00210481
0.00206901
0.00210237
0.00210237
0.00207145
0.00207145
0.00210481
0.00206901
0.00210237
0.00210237
0.00207145
0.00207145
0.00210237
0.00207145
0.00207145
0.00210481
0.00206901
0.00210237
0.00207145
0.00207145
0.00206901
0.00206358
0.00202779
0.00206114
0.00206114
0.00203022
0.00203022
0.00206358
0.00202779
0.00206114
0.00206114
0.00203022
0.00203022
0.00206114
0.00203022
0.00203022
0.00206358
0.00202779
0.00206114
0.00203022
0.00203022
0.00202779
0.00202235
0.00198656
0.00201991
0.00201991
0.00198899
0.00198899
0.00202235
0.00198656
0.00201991
0.00201991
0.00198899
0.00198899
0.00201991
0.00198899
0.00198899
0.00202235
0.00198656
0.00201991
0.00198899
0.00198899
0.00198656
0.00198112
0.00194533
0.00197868
0.00197868
0.00194776
0.00194776
0.00198112
0.00194533
0.00197868
0.00197868
0.00194776
0.00194776
0.00197868
0.00194776
0.00194776
0.00198112
0.00194533
0.00197868
0.00194776
0.00194776
0.00194533
0.00193989
0.0019041
0.00193746
0.00193746
0.00190653
0.00190653
0.00193989
0.0019041
0.00193746
0.00193746
0.00190653
0.00190653
0.00193745
0.00190653
0.00190653
0.00193989
0.0019041
0.00193745
0.00190653
0.00190653
0.0019041
0.00189867
0.00186288
0.00189623
0.00189623
0.00186531
0.00186531
0.00189867
0.00186288
0.00189623
0.00189623
0.00186531
0.00186531
0.00189623
0.00186531
0.00186531
0.00189867
0.00186288
0.00189623
0.00186531
0.00186531
0.00186288
0.00185744
0.00182165
0.001855
0.001855
0.00182408
0.00182408
0.00185744
0.00182165
0.001855
0.001855
0.00182408
0.00182408
0.001855
0.00182408
0.00182408
0.00185744
0.00182165
0.001855
0.00182408
0.00182408
0.00182165
0.00181622
0.00178043
0.00181378
0.00181378
0.00178286
0.00178286
0.00181622
0.00178043
0.00181378
0.00181378
0.00178286
0.00178286
0.00181378
0.00178286
0.00178286
0.00181622
0.00178043
0.00181378
0.00178286
0.00178286
0.00178043
0.00177499
0.0017392
0.00177255
0.00177255
0.00174163
0.00174163
0.00177499
0.0017392
0.00177255
0.00177255
0.00174163
0.00174163
0.00177255
0.00174163
0.00174163
0.00177499
0.0017392
0.00177255
0.00174163
0.00174163
0.0017392
0.00173377
0.00169798
0.00173133
0.00173133
0.00170041
0.00170041
0.00173377
0.00169798
0.00173133
0.00173133
0.00170041
0.00170041
0.00173133
0.00170041
0.00170041
0.00173377
0.00169798
0.00173133
0.00170041
0.00170041
0.00169798
0.00169254
0.00165675
0.0016901
0.0016901
0.00165919
0.00165919
0.00169254
0.00165675
0.0016901
0.0016901
0.00165919
0.00165919
0.0016901
0.00165919
0.00165919
0.00169254
0.00165675
0.0016901
0.00165919
0.00165919
0.00165675
0.00165132
0.00161553
0.00164888
0.00164888
0.00161796
0.00161796
0.00165132
0.00161553
0.00164888
0.00164888
0.00161796
0.00161796
0.00164888
0.00161796
0.00161796
0.00165132
0.00161553
0.00164888
0.00161796
0.00161796
0.00161553
0.0016101
0.00157431
0.00160766
0.00160766
0.00157674
0.00157674
0.0016101
0.00157431
0.00160766
0.00160766
0.00157674
0.00157674
0.00160766
0.00157674
0.00157674
0.0016101
0.00157431
0.00160766
0.00157674
0.00157674
0.00157431
0.00156887
0.00153308
0.00156643
0.00156643
0.00153552
0.00153551
0.00156887
0.00153308
0.00156643
0.00156643
0.00153551
0.00153551
0.00156643
0.00153551
0.00153552
0.00156887
0.00153308
0.00156643
0.00153551
0.00153551
0.00153308
0.00152765
0.00149186
0.00152521
0.00152521
0.00149429
0.00149429
0.00152765
0.00149186
0.00152521
0.00152521
0.00149429
0.00149429
0.00152521
0.00149429
0.00149429
0.00152765
0.00149186
0.00152521
0.00149429
0.00149429
0.00149186
0.00148642
0.00145063
0.00148398
0.00148398
0.00145307
0.00145307
0.00148642
0.00145063
0.00148398
0.00148398
0.00145307
0.00145307
0.00148398
0.00145307
0.00145307
0.00148642
0.00145063
0.00148398
0.00145307
0.00145307
0.00145063
0.0014452
0.00140941
0.00144276
0.00144276
0.00141184
0.00141184
0.0014452
0.00140941
0.00144276
0.00144276
0.00141184
0.00141184
0.00144276
0.00141184
0.00141184
0.0014452
0.00140941
0.00144276
0.00141184
0.00141184
0.00140941
0.00140397
0.00136818
0.00140153
0.00140153
0.00137061
0.00137061
0.00140397
0.00136818
0.00140153
0.00140153
0.00137061
0.00137061
0.00140153
0.00137061
0.00137061
0.00140397
0.00136818
0.00140153
0.00137061
0.00137061
0.00136818
0.00136275
0.00132696
0.00136031
0.00136031
0.00132939
0.00132939
0.00136275
0.00132696
0.00136031
0.00136031
0.00132939
0.00132939
0.00136031
0.00132939
0.00132939
0.00136275
0.00132696
0.00136031
0.00132939
0.00132939
0.00132696
0.00132152
0.00128573
0.00131908
0.00131908
0.00128816
0.00128816
0.00132152
0.00128573
0.00131908
0.00131908
0.00128816
0.00128816
0.00131908
0.00128816
0.00128816
0.00132152
0.00128573
0.00131908
0.00128816
0.00128816
0.00128573
0.0012803
0.00124451
0.00127786
0.00127786
0.00124694
0.00124694
0.0012803
0.00124451
0.00127786
0.00127786
0.00124694
0.00124694
0.00127786
0.00124694
0.00124694
0.0012803
0.00124451
0.00127786
0.00124694
0.00124694
0.00124451
0.00123907
0.00120329
0.00123664
0.00123664
0.00120572
0.00120572
0.00123907
0.00120329
0.00123664
0.00123664
0.00120572
0.00120572
0.00123664
0.00120572
0.00120572
0.00123907
0.00120329
0.00123664
0.00120572
0.00120572
0.00120329
0.00119785
0.00116206
0.00119541
0.00119541
0.0011645
0.0011645
0.00119785
0.00116206
0.00119541
0.00119541
0.0011645
0.0011645
0.00119541
0.0011645
0.0011645
0.00119785
0.00116206
0.00119541
0.0011645
0.0011645
0.00116206
0.00115663
0.00112085
0.00115419
0.00115419
0.00112328
0.00112328
0.00115663
0.00112085
0.00115419
0.00115419
0.00112328
0.00112328
0.00115419
0.00112328
0.00112328
0.00115663
0.00112085
0.00115419
0.00112328
0.00112328
0.00112085
0.00111541
0.00107963
0.00111297
0.00111297
0.00108206
0.00108206
0.00111541
0.00107963
0.00111297
0.00111297
0.00108206
0.00108206
0.00111297
0.00108206
0.00108206
0.00111541
0.00107963
0.00111297
0.00108206
0.00108206
0.00107963
0.0010742
0.00103842
0.00107176
0.00107176
0.00104085
0.00104085
0.0010742
0.00103842
0.00107176
0.00107176
0.00104085
0.00104085
0.00107176
0.00104085
0.00104085
0.0010742
0.00103842
0.00107176
0.00104085
0.00104085
0.00103842
0.00103298
0.000997207
0.00103055
0.00103055
0.000999638
0.000999638
0.00103298
0.000997207
0.00103055
0.00103055
0.000999638
0.000999639
0.00103055
0.000999638
0.000999639
0.00103298
0.000997208
0.00103055
0.000999639
0.000999639
0.000997208
0.000991774
0.000955997
0.000989336
0.000989336
0.000958428
0.000958428
0.000991774
0.000955997
0.000989336
0.000989336
0.000958428
0.000958428
0.000989336
0.000958428
0.000958429
0.000991774
0.000955997
0.000989336
0.000958428
0.000958428
0.000955997
0.000950564
0.000914789
0.000948126
0.000948126
0.00091722
0.00091722
0.000950564
0.000914789
0.000948126
0.000948126
0.000917219
0.00091722
0.000948126
0.00091722
0.00091722
0.000950564
0.000914789
0.000948126
0.00091722
0.00091722
0.000914789
0.000909355
0.000873579
0.000906917
0.000906917
0.00087601
0.00087601
0.000909356
0.000873579
0.000906917
0.000906917
0.00087601
0.00087601
0.000906918
0.00087601
0.00087601
0.000909356
0.000873579
0.000906917
0.00087601
0.00087601
0.000873579
0.000868146
0.00083237
0.000865708
0.000865708
0.000834801
0.000834801
0.000868146
0.00083237
0.000865708
0.000865708
0.000834801
0.000834801
0.000865708
0.000834801
0.000834801
0.000868146
0.00083237
0.000865708
0.000834801
0.000834801
0.00083237
0.000826937
0.00079116
0.000824498
0.000824498
0.000793592
0.000793591
0.000826937
0.000791161
0.000824498
0.000824498
0.000793591
0.000793591
0.000824499
0.000793591
0.000793592
0.000826936
0.00079116
0.000824498
0.000793591
0.000793591
0.00079116
0.000785727
0.000749951
0.000783289
0.000783289
0.000752382
0.000752382
0.000785727
0.000749951
0.000783289
0.000783289
0.000752382
0.000752382
0.000783289
0.000752382
0.000752382
0.000785727
0.000749951
0.000783289
0.000752382
0.000752382
0.000749951
0.000744518
0.00070874
0.00074208
0.00074208
0.000711172
0.000711171
0.000744518
0.000708741
0.000742079
0.00074208
0.000711171
0.000711172
0.00074208
0.000711171
0.000711172
0.000744518
0.00070874
0.000742079
0.000711172
0.000711171
0.00070874
0.000703307
0.000667529
0.000700869
0.000700869
0.00066996
0.00066996
0.000703307
0.000667529
0.000700869
0.000700869
0.00066996
0.00066996
0.000700869
0.00066996
0.00066996
0.000703307
0.000667529
0.000700869
0.00066996
0.00066996
0.000667529
0.000662096
0.000626318
0.000659657
0.000659657
0.000628749
0.000628749
0.000662096
0.000626318
0.000659657
0.000659657
0.000628749
0.000628749
0.000659658
0.000628749
0.000628749
0.000662096
0.000626318
0.000659657
0.000628749
0.000628749
0.000626318
0.000620884
0.000585106
0.000618446
0.000618446
0.000587537
0.000587537
0.000620885
0.000585106
0.000618446
0.000618446
0.000587537
0.000587537
0.000618447
0.000587537
0.000587538
0.000620885
0.000585106
0.000618446
0.000587537
0.000587537
0.000585106
0.000579673
0.000543893
0.000577234
0.000577234
0.000546325
0.000546324
0.000579672
0.000543893
0.000577234
0.000577234
0.000546324
0.000546325
0.000577234
0.000546324
0.000546324
0.000579672
0.000543893
0.000577234
0.000546324
0.000546324
0.000543893
0.00053846
0.000502681
0.000536021
0.000536021
0.000505112
0.000505111
0.000538459
0.00050268
0.000536021
0.000536021
0.000505112
0.000505112
0.000536021
0.000505111
0.000505112
0.00053846
0.00050268
0.000536021
0.000505112
0.000505111
0.00050268
0.000497247
0.000461468
0.000494809
0.000494808
0.000463899
0.000463899
0.000497247
0.000461468
0.000494808
0.000494809
0.000463899
0.000463899
0.000494808
0.000463899
0.000463899
0.000497247
0.000461468
0.000494808
0.000463899
0.000463899
0.000461468
0.000456035
0.000420256
0.000453596
0.000453596
0.000422687
0.000422687
0.000456035
0.000420256
0.000453596
0.000453596
0.000422687
0.000422687
0.000453597
0.000422687
0.000422688
0.000456035
0.000420256
0.000453596
0.000422687
0.000422687
0.000420256
0.000414822
0.000379044
0.000412384
0.000412384
0.000381475
0.000381475
0.000414823
0.000379044
0.000412384
0.000412384
0.000381475
0.000381475
0.000412385
0.000381475
0.000381475
0.000414823
0.000379044
0.000412384
0.000381475
0.000381475
0.000379044
0.000373611
0.000337832
0.000371172
0.000371172
0.000340263
0.000340263
0.00037361
0.000337832
0.000371172
0.000371172
0.000340263
0.000340263
0.000371172
0.000340263
0.000340263
0.000373611
0.000337832
0.000371172
0.000340263
0.000340263
0.000337832
0.000332398
0.00029662
0.00032996
0.00032996
0.000299051
0.000299051
0.000332398
0.00029662
0.00032996
0.00032996
0.000299051
0.000299051
0.000329961
0.000299051
0.000299051
0.000332398
0.000296619
0.000329961
0.000299051
0.000299051
0.000296619
0.000291185
0.000255404
0.000288748
0.000288748
0.00025783
0.00025783
0.000291185
0.000255404
0.000288748
0.000288748
0.00025783
0.00025783
0.000288748
0.00025783
0.00025783
0.000291185
0.000255404
0.000288748
0.00025783
0.00025783
0.000255404
0.000249965
0.000214203
0.000247528
0.000247528
0.000216639
0.000216639
0.000249965
0.000214204
0.000247528
0.000247528
0.000216639
0.000216639
0.000247528
0.000216639
0.000216639
0.000249965
0.000214203
0.000247528
0.000216639
0.000216639
0.000214203
0.000208757
0.000172981
0.000206328
0.000206328
0.000175401
0.000175401
0.000208756
0.000172981
0.000206328
0.000206328
0.000175401
0.000175401
0.000206328
0.000175401
0.000175401
0.000208757
0.000172981
0.000206328
0.000175401
0.000175401
0.000172981
0.00016753
0.000131771
0.000165102
0.000165102
0.00013419
0.00013419
0.00016753
0.000131771
0.000165102
0.000165102
0.000134189
0.00013419
0.000165102
0.000134189
0.00013419
0.00016753
0.00013177
0.000165102
0.000134189
0.000134189
0.00013177
0.000126288
9.05508e-05
0.000123879
0.000123879
9.297e-05
9.29703e-05
0.000126287
9.05514e-05
0.000123878
0.000123879
9.29699e-05
9.29694e-05
0.000123879
9.29701e-05
9.29695e-05
0.000126287
9.055e-05
0.000123878
9.29692e-05
9.29692e-05
9.055e-05
8.50296e-05
4.93632e-05
8.26486e-05
8.26488e-05
5.1784e-05
5.17845e-05
8.50294e-05
4.93641e-05
8.2648e-05
8.26473e-05
5.17821e-05
5.17815e-05
8.26478e-05
5.17831e-05
5.17813e-05
8.50289e-05
4.93605e-05
8.26472e-05
5.17806e-05
5.17799e-05
4.93602e-05
4.38531e-05
1.20565e-05
4.1607e-05
4.1607e-05
1.42328e-05
1.4232e-05
4.38533e-05
1.20561e-05
4.16049e-05
4.16034e-05
1.42309e-05
1.4227e-05
4.16028e-05
1.42296e-05
1.42253e-05
4.38496e-05
1.20516e-05
4.16014e-05
1.42272e-05
1.42266e-05
1.20504e-05
8.51552e-06
8.96951e-06
8.96965e-06
8.51656e-06
8.9681e-06
8.96508e-06
8.79829e-06
8.79603e-06
8.79566e-06
8.96429e-06
8.51215e-06
8.96489e-06
0.00395742
0.00396718
0.00396198
0.00396198
0.00398436
0.00397114
0.00399974
0.00396519
0.00398436
0.00397115
0.00396519
0.00399974
0.00397571
0.00400348
0.00400348
0.00391278
0.00393192
0.00394112
0.00390485
0.00390562
0.00390836
0.00391276
0.0039319
0.00394111
0.00390483
0.00393564
0.00393564
0.00393564
0.00389223
0.00389223
0.00389223
0.00389223
0.00391028
0.00393611
0.00393604
0.0039191
0.00393913
0.00390918
0.00391998
0.00390572
0.00390836
0.00391029
0.00393604
0.00393612
0.0039191
0.00393913
0.00391998
0.00390918
0.00394198
0.00394197
0.0039135
0.00390881
0.00390881
0.00386612
0.00388543
0.00388679
0.00386464
0.00388434
0.00386422
0.00386612
0.00388543
0.00388679
0.00386463
0.00388028
0.00388027
0.00388027
0.0038427
0.0038427
0.0038427
0.0038427
0.00386471
0.0038855
0.00388028
0.00386841
0.00388429
0.00386525
0.00386814
0.00388433
0.00386421
0.00386472
0.00388028
0.0038855
0.0038684
0.00388429
0.00386814
0.00386525
0.00388653
0.00388653
0.00386495
0.00386557
0.00386557
0.0038139
0.00383275
0.00383379
0.00381286
0.00383241
0.00381256
0.0038139
0.00383275
0.00383379
0.00381286
0.00382953
0.00382953
0.00382953
0.00379015
0.00379015
0.00379015
0.00379015
0.00381299
0.00383312
0.0038294
0.00381636
0.00383254
0.00381335
0.00381626
0.00383241
0.00381256
0.00381299
0.0038294
0.00383312
0.00381636
0.00383254
0.00381626
0.00381335
0.00383338
0.00383338
0.00381298
0.00381342
0.00381342
0.00376136
0.00378006
0.00378089
0.00376055
0.00377985
0.00376038
0.00376136
0.00378006
0.0037809
0.00376055
0.00377711
0.00377711
0.00377711
0.00373852
0.00373852
0.00373852
0.00373852
0.00376085
0.00378045
0.00377709
0.0037642
0.00378014
0.00376102
0.00376416
0.00377985
0.00376038
0.00376085
0.00377709
0.00378045
0.0037642
0.00378014
0.00376416
0.00376102
0.0037805
0.0037805
0.00376089
0.00376094
0.00376094
0.00371018
0.0037285
0.00372913
0.00370957
0.00372836
0.00370943
0.00371018
0.0037285
0.00372913
0.00370957
0.00372579
0.00372579
0.00372579
0.00368824
0.00368824
0.00368824
0.00368824
0.00370987
0.00372885
0.00372577
0.00371316
0.0037287
0.00370998
0.00371313
0.00372836
0.00370943
0.00370987
0.00372577
0.00372885
0.00371316
0.0037287
0.00371313
0.00370998
0.00372885
0.00372885
0.00370997
0.00370987
0.00370987
0.00366061
0.00367831
0.00367878
0.00365993
0.00367823
0.00365979
0.00366061
0.00367831
0.00367879
0.00365993
0.00367597
0.00367597
0.00367597
0.00364045
0.00364045
0.00364045
0.00364045
0.00366049
0.00367863
0.00367588
0.00366372
0.0036786
0.00366038
0.00366377
0.00367822
0.0036598
0.0036605
0.00367588
0.00367864
0.00366373