/*--------------------------------*- C++ -*----------------------------------*\
| =========                 |                                                 |
| \\      /  F ield         | OpenFOAM: The Open Source CFD Toolbox           |
|  \\    /   O peration     | Version:  2206                                  |
|   \\  /    A nd           | Website:  www.openfoam.com                      |
|    \\/     M anipulation  |                                                 |
\*---------------------------------------------------------------------------*/
FoamFile
{
    version     2.0;
    format      ascii;
    arch        "LSB;label=32;scalar=64";
    class       volScalarField;
    location    "32";
    object      Ux;
}
// * * * * * * * * * * * * * * * * * * * * * * * * * * * * * * * * * * * * * //

dimensions      [0 1 -1 0 0 0 0];

internalField   nonuniform List<scalar> 
171728
(
0.000107991
-0.000190196
0.000119346
-0.00023946
9.42241e-05
-0.000158727
9.66633e-05
-0.000200835
9.49843e-05
-0.000154983
9.29309e-05
-0.000201273
9.31523e-05
-0.00015043
8.91392e-05
-0.000197797
9.21271e-05
-0.000147763
8.67598e-05
-0.000192074
8.28727e-05
-0.000137564
8.01256e-05
-0.000178291
5.63774e-05
-8.4013e-05
4.65779e-05
-0.000130087
2.67691e-05
-3.6956e-05
2.47687e-05
-7.78149e-05
5.73701e-06
-8.54846e-06
6.60892e-06
-5.26937e-05
-1.18446e-07
-1.2606e-06
1.35473e-06
-4.65209e-05
-7.72553e-07
-5.60862e-07
8.53403e-07
-4.60646e-05
-8.1412e-07
-5.43449e-07
8.31355e-07
-4.60498e-05
-8.13517e-07
-5.52006e-07
8.32147e-07
-4.60515e-05
-8.13474e-07
-5.50158e-07
8.31718e-07
-4.60524e-05
-8.16118e-07
-5.44434e-07
8.31409e-07
-4.60521e-05
-8.16977e-07
-5.44426e-07
8.3101e-07
-4.60518e-05
-8.16179e-07
-5.44515e-07
8.3099e-07
-4.60511e-05
-8.1632e-07
-5.43494e-07
8.30966e-07
-4.6051e-05
-8.1364e-07
-5.44946e-07
8.31435e-07
-4.60512e-05
-8.07162e-07
-5.42448e-07
8.32324e-07
-4.60523e-05
-8.0317e-07
-5.48882e-07
8.33202e-07
-4.6051e-05
-8.12074e-07
-5.45574e-07
8.32645e-07
-4.60518e-05
-8.13477e-07
-5.43872e-07
8.3222e-07
-4.60511e-05
-8.14314e-07
-5.43444e-07
8.31632e-07
-4.6051e-05
-8.15192e-07
-5.42477e-07
8.31061e-07
-4.60513e-05
-8.16151e-07
-5.41865e-07
8.30984e-07
-4.60514e-05
-8.16374e-07
-5.42061e-07
8.31211e-07
-4.60515e-05
-8.15938e-07
-5.42536e-07
8.31732e-07
-4.60522e-05
-8.15195e-07
-5.42652e-07
8.32018e-07
-4.60524e-05
-8.14723e-07
-5.43258e-07
8.32226e-07
-4.60531e-05
-8.15141e-07
-5.43184e-07
8.3207e-07
-4.60528e-05
-8.15281e-07
-5.42504e-07
8.32004e-07
-4.60521e-05
-8.15761e-07
-5.42023e-07
8.31438e-07
-4.60522e-05
-8.1618e-07
-5.41738e-07
8.31243e-07
-4.60516e-05
-8.15694e-07
-5.4159e-07
8.31357e-07
-4.60516e-05
-8.15488e-07
-5.41854e-07
8.3181e-07
-4.60522e-05
-8.15169e-07
-5.42595e-07
8.32293e-07
-4.60527e-05
-8.14999e-07
-5.42698e-07
8.3242e-07
-4.60529e-05
-8.15031e-07
-5.43076e-07
8.32405e-07
-4.60529e-05
-8.15585e-07
-5.41125e-07
8.3037e-07
-4.60493e-05
-8.10969e-07
-5.39897e-07
8.31128e-07
-4.60501e-05
-8.18784e-07
-5.41618e-07
8.31047e-07
-4.60525e-05
-8.16106e-07
-5.41956e-07
8.30694e-07
-4.6052e-05
-8.14803e-07
-5.43321e-07
8.31463e-07
-4.6053e-05
-8.13741e-07
-5.43594e-07
8.31016e-07
-4.60527e-05
-8.12504e-07
-5.4433e-07
8.31713e-07
-4.60532e-05
-8.12838e-07
-5.43838e-07
8.31218e-07
-4.60529e-05
-8.13402e-07
-5.44144e-07
8.3108e-07
-4.60531e-05
-8.13734e-07
-5.42911e-07
8.3067e-07
-4.60523e-05
-8.13931e-07
-5.43291e-07
8.31065e-07
-4.60524e-05
-8.14145e-07
-5.43319e-07
8.3105e-07
-4.60528e-05
-8.13499e-07
-5.43549e-07
8.31352e-07
-4.60531e-05
-8.12565e-07
-5.44454e-07
8.31885e-07
-4.60535e-05
-8.11818e-07
-5.43968e-07
8.32155e-07
-4.60528e-05
-8.10772e-07
-5.44552e-07
8.32232e-07
-4.60529e-05
-8.13227e-07
-5.4403e-07
8.31154e-07
-4.60533e-05
-8.1284e-07
-5.45478e-07
8.31431e-07
-4.6055e-05
-8.1286e-07
-5.45261e-07
8.31795e-07
-4.60555e-05
-8.12536e-07
-5.45699e-07
8.32177e-07
-4.60553e-05
-8.11643e-07
-5.46271e-07
8.32725e-07
-4.60557e-05
-8.11441e-07
-5.46535e-07
8.32834e-07
-4.6056e-05
-8.11118e-07
-5.47252e-07
8.33373e-07
-4.60563e-05
-8.11309e-07
-5.46382e-07
8.33048e-07
-4.60558e-05
-8.11367e-07
-5.4602e-07
8.32665e-07
-4.60554e-05
-8.12499e-07
-5.45269e-07
8.32035e-07
-4.6055e-05
-8.12601e-07
-5.45282e-07
8.32209e-07
-4.60546e-05
-8.11926e-07
-5.45656e-07
8.32523e-07
-4.60556e-05
-8.11681e-07
-5.45847e-07
8.32646e-07
-4.60555e-05
-8.10933e-07
-5.46751e-07
8.34696e-07
-4.60574e-05
-8.10416e-07
-5.46408e-07
8.39804e-07
-4.60608e-05
-8.10449e-07
-5.46507e-07
8.36467e-07
-4.60594e-05
-8.11722e-07
-5.45535e-07
8.32813e-07
-4.60554e-05
-8.12334e-07
-5.45816e-07
8.323e-07
-4.60552e-05
-8.12429e-07
-5.45033e-07
8.31938e-07
-4.60551e-05
-8.12239e-07
-5.45627e-07
8.32558e-07
-4.60556e-05
-8.11524e-07
-5.46226e-07
8.3296e-07
-4.60566e-05
-8.11349e-07
-5.46316e-07
8.33298e-07
-4.60569e-05
-8.10901e-07
-5.46846e-07
8.34106e-07
-4.60569e-05
-8.1138e-07
-5.46719e-07
8.33176e-07
-4.6057e-05
-8.1195e-07
-5.45769e-07
8.32666e-07
-4.60564e-05
-8.1218e-07
-5.45623e-07
8.32764e-07
-4.60562e-05
-8.12551e-07
-5.45488e-07
8.3238e-07
-4.60558e-05
-8.11995e-07
-5.45358e-07
8.32608e-07
-4.60561e-05
-8.11468e-07
-5.46127e-07
8.32931e-07
-4.60567e-05
-8.11164e-07
-5.46317e-07
8.3269e-07
-4.60569e-05
-8.13489e-07
-5.43215e-07
8.30201e-07
-4.60562e-05
-8.21663e-07
-5.33422e-07
8.20651e-07
-4.60467e-05
-8.33345e-07
-5.28935e-07
8.03418e-07
-4.59836e-05
-8.57705e-07
-5.8778e-07
8.63158e-07
-4.57462e-05
-6.42026e-07
-8.53504e-07
9.88069e-07
-4.5621e-05
-6.49712e-07
-1.18913e-06
1.23814e-06
-4.49273e-05
-4.45543e-07
-2.04519e-06
1.85961e-06
-4.35503e-05
-3.73527e-07
-3.69181e-06
3.18577e-06
-4.03905e-05
-5.79542e-06
-2.45669e-06
3.52062e-06
-2.66861e-05
-4.11046e-05
4.21079e-05
-3.39214e-05
4.6188e-05
0.000135048
0.000124232
-0.000124224
-0.000135045
0.00015287
0.000152842
9.07715e-05
-9.07615e-05
9.07462e-05
-9.07438e-05
-0.000152866
-0.000152852
0.000135038
0.000124184
-0.000124181
-0.000135047
0.000239503
0.00011163
0.000119396
-0.000119347
8.91436e-05
-8.91051e-05
-0.000239513
-0.000111589
0.000190232
0.00019017
0.000147186
0.00014722
-0.000190152
-0.000147157
-0.000147177
0.000239434
0.000111582
-0.000119326
8.9119e-05
-8.90987e-05
-0.00011158
0.000200922
0.000106173
9.667e-05
-9.66428e-05
9.4012e-05
-9.40112e-05
-0.000200884
-0.00010616
0.00015876
0.000158778
0.000156202
0.000156243
-0.000158756
-0.0001562
-0.000156221
0.000200831
0.000106135
-9.66447e-05
9.4014e-05
-9.40195e-05
-0.000106152
0.000201341
9.8045e-05
9.2923e-05
-9.29282e-05
9.17811e-05
-9.17702e-05
-0.00020133
-9.80309e-05
0.000154991
0.000155033
0.000153919
0.000153951
-0.000155015
-0.000153915
-0.000153952
0.000201256
9.80035e-05
-9.29383e-05
9.17862e-05
-9.17756e-05
-9.8061e-05
0.000197827
8.92367e-05
8.91335e-05
-8.91186e-05
8.84136e-05
-8.8403e-05
-0.000197812
-8.92163e-05
0.000150437
0.000150468
0.000150226
0.000150257
-0.000150469
-0.000150221
-0.000150262
0.000197734
8.91889e-05
-8.91234e-05
8.84178e-05
-8.84009e-05
-8.92589e-05
0.000192094
7.74165e-05
8.67452e-05
-8.6734e-05
8.02022e-05
-8.01992e-05
-0.000192084
-7.74079e-05
0.000147768
0.0001478
0.000138019
0.000138044
-0.000147806
-0.00013801
-0.000138054
0.000192007
7.73856e-05
-8.67365e-05
8.0203e-05
-8.0184e-05
-7.74577e-05
0.000178297
4.23447e-05
8.01011e-05
-8.0087e-05
5.5945e-05
-5.59486e-05
-0.000178298
-4.23874e-05
0.000137573
0.000137594
0.000101552
0.000101598
-0.000137601
-0.000101554
-0.000101613
0.000178215
4.2323e-05
-8.01021e-05
5.59102e-05
-5.5888e-05
-4.23444e-05
0.00013011
-1.27884e-05
4.66107e-05
-4.66219e-05
2.99088e-05
-2.99047e-05
-0.000130124
1.27776e-05
8.40456e-05
8.40799e-05
4.686e-05
4.68719e-05
-8.40659e-05
-4.68522e-05
-4.68561e-05
0.00013007
-1.2752e-05
-4.65588e-05
2.98601e-05
-2.98557e-05
1.27676e-05
7.7837e-05
-3.97585e-05
2.48133e-05
-2.48098e-05
9.96552e-06
-9.96395e-06
-7.78396e-05
3.97657e-05
3.69717e-05
3.6975e-05
1.32975e-05
1.33128e-05
-3.69598e-05
-1.32867e-05
-1.3309e-05
7.78195e-05
-3.97431e-05
-2.47662e-05
9.92852e-06
-9.92907e-06
3.97449e-05
5.27071e-05
-4.76138e-05
6.64514e-06
-6.64218e-06
1.89687e-06
-1.89609e-06
-5.26988e-05
4.7617e-05
8.5618e-06
8.57446e-06
1.97465e-06
1.99497e-06
-8.5767e-06
-1.96879e-06
-1.9981e-06
5.26782e-05
-4.75876e-05
-6.61038e-06
1.86404e-06
-1.86487e-06
4.75877e-05
4.65241e-05
-4.82784e-05
1.38656e-06
-1.38189e-06
9.23778e-07
-9.11201e-07
-4.65228e-05
4.82896e-05
1.26857e-06
1.28658e-06
5.98718e-07
6.23898e-07
-1.28845e-06
-5.92967e-07
-6.22199e-07
4.65072e-05
-4.82534e-05
-1.35372e-06
8.82867e-07
-8.79912e-07
4.82575e-05
4.60726e-05
-4.83042e-05
8.93379e-07
-8.7986e-07
8.61783e-07
-8.62115e-07
-4.60674e-05
4.83127e-05
5.68723e-07
5.90412e-07
5.44713e-07
5.70604e-07
-5.88996e-07
-5.40634e-07
-5.69243e-07
4.60538e-05
-4.82776e-05
-8.50095e-07
8.30816e-07
-8.28597e-07
4.82811e-05
4.60544e-05
-4.83048e-05
8.61347e-07
-8.61422e-07
8.59337e-07
-8.6197e-07
-4.60536e-05
4.83077e-05
5.4833e-07
5.7019e-07
5.44111e-07
5.70889e-07
-5.6957e-07
-5.48523e-07
-5.71603e-07
4.60384e-05
-4.82762e-05
-8.28546e-07
8.31227e-07
-8.28211e-07
4.82791e-05
4.60542e-05
-4.83049e-05
8.59805e-07
-8.60982e-07
8.58881e-07
-8.60091e-07
-4.60586e-05
4.83052e-05
5.47403e-07
5.70575e-07
5.43689e-07
5.70377e-07
-5.72449e-07
-5.49388e-07
-5.72981e-07
4.60396e-05
-4.82766e-05
-8.2868e-07
8.30734e-07
-8.28549e-07
4.82781e-05
4.60539e-05
-4.83009e-05
8.60961e-07
-8.60643e-07
8.58073e-07
-8.63268e-07
-4.60605e-05
4.83084e-05
5.47565e-07
5.70149e-07
5.44671e-07
5.70658e-07
-5.73034e-07
-5.43484e-07
-5.71876e-07
4.6039e-05
-4.82765e-05
-8.29357e-07
8.30537e-07
-8.29222e-07
4.82786e-05
4.60561e-05
-4.83028e-05
8.56683e-07
-8.64982e-07
8.54377e-07
-8.72411e-07
-4.60594e-05
4.83049e-05
5.48235e-07
5.70435e-07
5.4461e-07
5.70596e-07
-5.71922e-07
-5.43792e-07
-5.71452e-07
4.60392e-05
-4.82767e-05
-8.29927e-07
8.30158e-07
-8.29569e-07
4.82788e-05
4.60543e-05
-4.83011e-05
8.53598e-07
-8.69306e-07
8.56025e-07
-8.63564e-07
-4.60588e-05
4.83056e-05
5.48029e-07
5.70282e-07
5.45013e-07
5.70481e-07
-5.71374e-07
-5.43068e-07
-5.70445e-07
4.60391e-05
-4.82767e-05
-8.29887e-07
8.30031e-07
-8.29047e-07
4.82795e-05
4.60552e-05
-4.83022e-05
8.555e-07
-8.63467e-07
8.55401e-07
-8.61594e-07
-4.60564e-05
4.83089e-05
5.48649e-07
5.70249e-07
5.44825e-07
5.70467e-07
-5.70539e-07
-5.42463e-07
-5.69814e-07
4.60391e-05
-4.82767e-05
-8.2933e-07
8.30049e-07
-8.28477e-07
4.82801e-05
4.60551e-05
-4.83041e-05
8.53687e-07
-8.61711e-07
8.57266e-07
-8.66816e-07
-4.60536e-05
4.83077e-05
5.48158e-07
5.70155e-07
5.4437e-07
5.70613e-07
-5.70044e-07
-5.43058e-07
-5.6998e-07
4.60394e-05
-4.82769e-05
-8.2869e-07
8.30224e-07
-8.27864e-07
4.82804e-05
4.60569e-05
-4.83043e-05
8.59791e-07
-8.6858e-07
8.60669e-07
-8.57646e-07
-4.60586e-05
4.83118e-05
5.48029e-07
5.70577e-07
5.45921e-07
5.70772e-07
-5.71644e-07
-5.43157e-07
-5.75573e-07
4.60397e-05
-4.82764e-05
-8.2823e-07
8.31067e-07
-8.26832e-07
4.82781e-05
4.60598e-05
-4.83082e-05
8.60881e-07
-8.47766e-07
8.63456e-07
-8.61472e-07
-4.60421e-05
4.83e-05
5.50341e-07
5.70459e-07
5.52471e-07
5.71739e-07
-5.75867e-07
-5.47121e-07
-5.69774e-07
4.60397e-05
-4.82756e-05
-8.26928e-07
8.32208e-07
-8.27115e-07
4.82796e-05
4.60569e-05
-4.83058e-05
8.65381e-07
-8.61185e-07
8.57822e-07
-8.60883e-07
-4.60596e-05
4.83104e-05
5.55025e-07
5.7187e-07
5.47578e-07
5.71781e-07
-5.6998e-07
-5.44234e-07
-5.70878e-07
4.60399e-05
-4.82752e-05
-8.28136e-07
8.3186e-07
-8.28666e-07
4.82784e-05
4.60606e-05
-4.83049e-05
8.58223e-07
-8.63125e-07
8.59271e-07
-8.63906e-07
-4.60508e-05
4.83067e-05
5.50206e-07
5.71248e-07
5.46301e-07
5.71481e-07
-5.70848e-07
-5.42769e-07
-5.70535e-07
4.60401e-05
-4.82754e-05
-8.29314e-07
8.3129e-07
-8.29061e-07
4.82793e-05
4.60616e-05
-4.83054e-05
8.5938e-07
-8.64395e-07
8.59526e-07
-8.64266e-07
-4.60535e-05
4.83061e-05
5.49806e-07
5.71301e-07
5.45194e-07
5.71098e-07
-5.70893e-07
-5.42437e-07
-5.7051e-07
4.60399e-05
-4.82756e-05
-8.29614e-07
8.30852e-07
-8.28717e-07
4.82793e-05
4.60611e-05
-4.83058e-05
8.59688e-07
-8.64585e-07
8.5973e-07
-8.64561e-07
-4.60539e-05
4.83061e-05
5.48831e-07
5.70752e-07
5.44554e-07
5.7052e-07
-5.70486e-07
-5.41442e-07
-5.69462e-07
4.60396e-05
-4.82762e-05
-8.29245e-07
8.30308e-07
-8.28684e-07
4.82792e-05
4.60608e-05
-4.83068e-05
8.59768e-07
-8.64713e-07
8.59405e-07
-8.64978e-07
-4.60538e-05
4.83063e-05
5.4818e-07
5.70109e-07
5.43407e-07
5.69947e-07
-5.69408e-07
-5.40657e-07
-5.68858e-07
4.60389e-05
-4.82766e-05
-8.29084e-07
8.30069e-07
-8.28518e-07
4.82792e-05
4.60598e-05
-4.83073e-05
8.59539e-07
-8.65221e-07
8.58876e-07
-8.64665e-07
-4.60537e-05
4.83066e-05
5.47054e-07
5.69568e-07
5.43052e-07
5.69768e-07
-5.68967e-07
-5.40539e-07
-5.68381e-07
4.60386e-05
-4.82767e-05
-8.2914e-07
8.30073e-07
-8.28642e-07
4.8279e-05
4.60593e-05
-4.83064e-05
8.59341e-07
-8.65243e-07
8.59837e-07
-8.64887e-07
-4.60535e-05
4.8306e-05
5.47148e-07
5.69724e-07
5.43791e-07
5.70373e-07
-5.6869e-07
-5.41084e-07
-5.68973e-07
4.60386e-05
-4.82759e-05
-8.2927e-07
8.30714e-07
-8.29165e-07
4.82783e-05
4.60602e-05
-4.83058e-05
8.60219e-07
-8.65872e-07
8.60842e-07
-8.64838e-07
-4.60542e-05
4.83053e-05
5.47709e-07
5.70261e-07
5.44049e-07
5.70653e-07
-5.69159e-07
-5.41424e-07
-5.68972e-07
4.60393e-05
-4.82756e-05
-8.29653e-07
8.3098e-07
-8.29193e-07
4.82782e-05
4.60608e-05
-4.83055e-05
8.61516e-07
-8.66219e-07
8.61718e-07
-8.64117e-07
-4.60549e-05
4.83058e-05
5.48062e-07
5.70606e-07
5.44593e-07
5.71503e-07
-5.69449e-07
-5.41854e-07
-5.69867e-07
4.60396e-05
-4.82752e-05
-8.29872e-07
8.31432e-07
-8.29736e-07
4.82773e-05
4.60611e-05
-4.8306e-05
8.62035e-07
-8.67179e-07
8.61418e-07
-8.62949e-07
-4.6055e-05
4.8305e-05
5.48409e-07
5.71167e-07
5.44059e-07
5.70919e-07
-5.70078e-07
-5.41967e-07
-5.69724e-07
4.604e-05
-4.82759e-05
-8.30234e-07
8.30954e-07
-8.29713e-07
4.82776e-05
4.60605e-05
-4.83062e-05
8.61531e-07
-8.69498e-07
8.61037e-07
-8.64428e-07
-4.6056e-05
4.83065e-05
5.47932e-07
5.70889e-07
5.43848e-07
5.70907e-07
-5.69765e-07
-5.41409e-07
-5.68881e-07
4.60394e-05
-4.82754e-05
-8.30075e-07
8.31246e-07
-8.28966e-07
4.82783e-05
4.60603e-05
-4.83064e-05
8.61511e-07
-8.66666e-07
8.61258e-07
-8.66444e-07
-4.60549e-05
4.83075e-05
5.47601e-07
5.70543e-07
5.4358e-07
5.70399e-07
-5.69101e-07
-5.41017e-07
-5.68906e-07
4.60396e-05
-4.82761e-05
-8.29478e-07
8.30719e-07
-8.2909e-07
4.82781e-05
4.606e-05
-4.83072e-05
8.61089e-07
-8.66553e-07
8.6029e-07
-8.66434e-07
-4.60535e-05
4.83085e-05
5.4723e-07
5.70051e-07
5.42537e-07
5.69507e-07
-5.68891e-07
-5.40269e-07
-5.68139e-07
4.6039e-05
-4.82767e-05
-8.29303e-07
8.3023e-07
-8.28602e-07
4.82789e-05
4.60594e-05
-4.83064e-05
8.60919e-07
-8.66804e-07
8.6117e-07
-8.6695e-07
-4.60526e-05
4.83081e-05
5.46555e-07
5.69505e-07
5.43386e-07
5.70229e-07
-5.68482e-07
-5.40389e-07
-5.68229e-07
4.60385e-05
-4.82762e-05
-8.29104e-07
8.3054e-07
-8.2846e-07
4.82789e-05
4.60602e-05
-4.83069e-05
8.61446e-07
-8.66931e-07
8.60728e-07
-8.67098e-07
-4.60529e-05
4.83081e-05
5.47226e-07
5.70013e-07
5.4315e-07
5.70035e-07
-5.68523e-07
-5.40535e-07
-5.68474e-07
4.60391e-05
-4.82764e-05
-8.2892e-07
8.30629e-07
-8.28993e-07
4.82784e-05
4.60598e-05
-4.83058e-05
8.61374e-07
-8.67226e-07
8.61234e-07
-8.6761e-07
-4.6053e-05
4.83079e-05
5.474e-07
5.70241e-07
5.43987e-07
5.70808e-07
-5.69e-07
-5.41007e-07
-5.69186e-07
4.60391e-05
-4.82754e-05
-8.29611e-07
8.31405e-07
-8.29564e-07
4.82778e-05
4.60606e-05
-4.8306e-05
8.61649e-07
-8.67743e-07
8.61154e-07
-8.68272e-07
-4.60533e-05
4.8307e-05
5.47787e-07
5.70688e-07
5.44193e-07
5.70947e-07
-5.69626e-07
-5.4166e-07
-5.69406e-07
4.60399e-05
-4.82754e-05
-8.30114e-07
8.31454e-07
-8.29835e-07
4.82775e-05
4.60605e-05
-4.83056e-05
8.61797e-07
-8.67876e-07
8.61203e-07
-8.68463e-07
-4.60538e-05
4.83074e-05
5.47954e-07
5.70884e-07
5.44447e-07
5.71151e-07
-5.69724e-07
-5.41545e-07
-5.69691e-07
4.60399e-05
-4.82752e-05
-8.30169e-07
8.31689e-07
-8.30225e-07
4.82772e-05
4.60604e-05
-4.83067e-05
8.61817e-07
-8.67943e-07
8.59188e-07
-8.68869e-07
-4.60535e-05
4.83089e-05
5.48002e-07
5.71077e-07
5.45245e-07
5.71162e-07
-5.7012e-07
-5.40962e-07
-5.71472e-07
4.60399e-05
-4.82771e-05
-8.30319e-07
8.30147e-07
-8.28521e-07
4.82807e-05
4.60575e-05
-4.82999e-05
8.59456e-07
-8.65758e-07
8.59177e-07
-8.65588e-07
-4.60512e-05
4.831e-05
5.49612e-07
5.7096e-07
5.50295e-07
5.71407e-07
-5.73547e-07
-5.37604e-07
-5.74346e-07
4.60381e-05
-4.82777e-05
-8.2652e-07
8.29498e-07
-8.24685e-07
4.82814e-05
4.60644e-05
-4.83106e-05
8.64781e-07
-8.66255e-07
8.54765e-07
-8.70909e-07
-4.60538e-05
4.83032e-05
5.54953e-07
5.71522e-07
5.42939e-07
5.70561e-07
-5.7183e-07
-5.41518e-07
-5.69162e-07
4.60381e-05
-4.82773e-05
-8.26897e-07
8.30759e-07
-8.28702e-07
4.82785e-05
4.60518e-05
-4.8307e-05
8.55663e-07
-8.72813e-07
8.57719e-07
-8.62601e-07
-4.60604e-05
4.83088e-05
5.45167e-07
5.70022e-07
5.43156e-07
5.69941e-07
-5.69413e-07
-5.39797e-07
-5.68476e-07
4.60382e-05
-4.82783e-05
-8.28889e-07
8.29788e-07
-8.28509e-07
4.8279e-05
4.60549e-05
-4.83056e-05
8.58262e-07
-8.63438e-07
8.59475e-07
-8.63823e-07
-4.60525e-05
4.83081e-05
5.46692e-07
5.70079e-07
5.44565e-07
5.70835e-07
-5.68932e-07
-5.4228e-07
-5.69477e-07
4.60375e-05
-4.82774e-05
-8.29117e-07
8.30891e-07
-8.29722e-07
4.82778e-05
4.60562e-05
-4.8305e-05
8.58993e-07
-8.63448e-07
8.59475e-07
-8.63165e-07
-4.60533e-05
4.83087e-05
5.47887e-07
5.70925e-07
5.44768e-07
5.71063e-07
-5.69774e-07
-5.42326e-07
-5.68943e-07
4.60383e-05
-4.82772e-05
-8.2996e-07
8.31079e-07
-8.29355e-07
4.82782e-05
4.60569e-05
-4.83038e-05
8.59633e-07
-8.63151e-07
8.60448e-07
-8.63205e-07
-4.60529e-05
4.83086e-05
5.48677e-07
5.71237e-07
5.45937e-07
5.72111e-07
-5.69487e-07
-5.42975e-07
-5.69579e-07
4.60385e-05
-4.82763e-05
-8.29595e-07
8.31828e-07
-8.29847e-07
4.82776e-05
4.60579e-05
-4.83039e-05
8.60144e-07
-8.63401e-07
8.5996e-07
-8.62747e-07
-4.60529e-05
4.83089e-05
5.49545e-07
5.721e-07
5.45788e-07
5.71678e-07
-5.69845e-07
-5.42812e-07
-5.6917e-07
4.60393e-05
-4.82767e-05
-8.29971e-07
8.31331e-07
-8.29477e-07
4.8278e-05
4.60576e-05
-4.83044e-05
8.59477e-07
-8.6279e-07
8.58826e-07
-8.62808e-07
-4.60523e-05
4.83093e-05
5.49063e-07
5.71486e-07
5.45365e-07
5.71392e-07
-5.69532e-07
-5.42777e-07
-5.69347e-07
4.60387e-05
-4.82769e-05
-8.29843e-07
8.31266e-07
-8.30012e-07
4.82777e-05
4.60572e-05
-4.83042e-05
8.58359e-07
-8.63109e-07
8.5818e-07
-8.62512e-07
-4.60522e-05
4.83093e-05
5.48972e-07
5.71119e-07
5.45364e-07
5.70696e-07
-5.6958e-07
-5.42261e-07
-5.68329e-07
4.60385e-05
-4.82776e-05
-8.30303e-07
8.30764e-07
-8.29525e-07
4.82783e-05
4.60573e-05
-4.83046e-05
8.57822e-07
-8.62308e-07
8.57691e-07
-8.62121e-07
-4.60517e-05
4.83102e-05
5.48756e-07
5.70539e-07
5.45086e-07
5.70718e-07
-5.68307e-07
-5.41641e-07
-5.67921e-07
4.60378e-05
-4.82773e-05
-8.29581e-07
8.31014e-07
-8.29344e-07
4.82785e-05
4.6057e-05
-4.83047e-05
8.57407e-07
-8.62589e-07
8.5754e-07
-8.62473e-07
-4.60514e-05
4.83093e-05
5.48611e-07
5.70682e-07
5.44949e-07
5.70774e-07
-5.68368e-07
-5.42323e-07
-5.68382e-07
4.60382e-05
-4.82772e-05
-8.29724e-07
8.31063e-07
-8.29679e-07
4.8278e-05
4.60568e-05
-4.83043e-05
8.57286e-07
-8.62487e-07
8.57895e-07
-8.62418e-07
-4.60518e-05
4.83096e-05
5.48362e-07
5.70665e-07
5.45247e-07
5.7094e-07
-5.68628e-07
-5.42177e-07
-5.6858e-07
4.60382e-05
-4.8277e-05
-8.29958e-07
8.31205e-07
-8.29827e-07
4.82779e-05
4.60575e-05
-4.83032e-05
8.57875e-07
-8.62729e-07
8.58745e-07
-8.63007e-07
-4.60519e-05
4.83088e-05
5.49058e-07
5.71042e-07
5.46457e-07
5.7192e-07
-5.69069e-07
-5.43287e-07
-5.69307e-07
4.60385e-05
-4.82763e-05
-8.30402e-07
8.3177e-07
-8.30413e-07
4.82772e-05
4.60583e-05
-4.83023e-05
8.58705e-07
-8.631e-07
8.59591e-07
-8.61726e-07
-4.60526e-05
4.83089e-05
5.50062e-07
5.7188e-07
5.4683e-07
5.71824e-07
-5.69641e-07
-5.42848e-07
-5.68592e-07
4.6039e-05
-4.8276e-05
-8.30769e-07
8.32068e-07
-8.30148e-07
4.82775e-05
4.60588e-05
-4.83004e-05
8.60023e-07
-8.60945e-07
8.61976e-07
-8.53441e-07
-4.60513e-05
4.83114e-05
5.50699e-07
5.71711e-07
5.48005e-07
5.72239e-07
-5.68706e-07
-5.43008e-07
-5.68518e-07
4.6039e-05
-4.82757e-05
-8.30262e-07
8.32225e-07
-8.30096e-07
4.82778e-05
4.60603e-05
-4.83036e-05
8.61621e-07
-8.53554e-07
8.58956e-07
-8.62576e-07
-4.6049e-05
4.83101e-05
5.51459e-07
5.72032e-07
5.46387e-07
5.71089e-07
-5.6906e-07
-5.43537e-07
-5.6882e-07
4.60393e-05
-4.82768e-05
-8.30342e-07
8.31336e-07
-8.29628e-07
4.82777e-05
4.60577e-05
-4.83048e-05
8.58054e-07
-8.61411e-07
8.582e-07
-8.61454e-07
-4.60511e-05
4.83094e-05
5.49289e-07
5.70333e-07
5.4471e-07
5.69011e-07
-5.70509e-07
-5.43854e-07
-5.74423e-07
4.60382e-05
-4.82782e-05
-8.29313e-07
8.31178e-07
-8.27752e-07
4.82759e-05
4.60567e-05
-4.83054e-05
8.58082e-07
-8.6164e-07
8.58005e-07
-8.61477e-07
-4.60518e-05
4.83088e-05
5.48021e-07
5.684e-07
5.43936e-07
5.68105e-07
-5.76381e-07
-5.44633e-07
-5.74647e-07
4.60371e-05
-4.82789e-05
-8.27776e-07
8.31681e-07
-8.27931e-07
4.82753e-05
4.60562e-05
-4.83053e-05
8.57823e-07
-8.61219e-07
8.58123e-07
-8.6112e-07
-4.60522e-05
4.83093e-05
5.47341e-07
5.67833e-07
5.43842e-07
5.68115e-07
-5.76069e-07
-5.44244e-07
-5.74579e-07
4.60365e-05
-4.82786e-05
-8.28088e-07
8.31911e-07
-8.2803e-07
4.82756e-05
4.60563e-05
-4.83047e-05
8.5804e-07
-8.61597e-07
8.58633e-07
-8.61971e-07
-4.60521e-05
4.83081e-05
5.47487e-07
5.68098e-07
5.44651e-07
5.68907e-07
-5.76157e-07
-5.45294e-07
-5.75077e-07
4.60369e-05
-4.82779e-05
-8.28323e-07
8.32579e-07
-8.28707e-07
4.82751e-05
4.6057e-05
-4.83045e-05
8.5848e-07
-8.62085e-07
8.58796e-07
-8.61918e-07
-4.60531e-05
4.83083e-05
5.4825e-07
5.68766e-07
5.44941e-07
5.691e-07
-5.7657e-07
-5.45209e-07
-5.75263e-07
4.60375e-05
-4.82779e-05
-8.28918e-07
8.32722e-07
-8.29131e-07
4.8275e-05
4.60571e-05
-4.83042e-05
8.58535e-07
-8.62293e-07
8.58932e-07
-8.62936e-07
-4.6053e-05
4.83072e-05
5.48336e-07
5.6893e-07
5.45419e-07
5.69661e-07
-5.76917e-07
-5.46249e-07
-5.76056e-07
4.60375e-05
-4.82774e-05
-8.29439e-07
8.33112e-07
-8.29642e-07
4.82745e-05
4.60574e-05
-4.83044e-05
8.58679e-07
-8.63086e-07
8.58727e-07
-8.62515e-07
-4.6054e-05
4.8308e-05
5.48781e-07
5.69665e-07
5.45263e-07
5.6981e-07
-5.7754e-07
-5.4561e-07
-5.75583e-07
4.60381e-05
-4.82771e-05
-8.29775e-07
8.33195e-07
-8.29364e-07
4.82749e-05
4.60571e-05
-4.83042e-05
8.58543e-07
-8.62467e-07
8.5895e-07
-8.62073e-07
-4.6053e-05
4.83085e-05
5.48356e-07
5.6938e-07
5.45308e-07
5.69296e-07
-5.76818e-07
-5.44907e-07
-5.75041e-07
4.60381e-05
-4.82779e-05
-8.29349e-07
8.32577e-07
-8.29185e-07
4.82754e-05
4.60573e-05
-4.8305e-05
8.58627e-07
-8.62306e-07
8.58232e-07
-8.61917e-07
-4.60527e-05
4.83087e-05
5.48085e-07
5.69096e-07
5.44918e-07
5.6865e-07
-5.7658e-07
-5.44474e-07
-5.74659e-07
4.60374e-05
-4.82784e-05
-8.29428e-07
8.32101e-07
-8.2918e-07
4.82756e-05
4.60564e-05
-4.83057e-05
8.57718e-07
-8.61881e-07
8.57761e-07
-8.61595e-07
-4.60523e-05
4.8309e-05
5.46512e-07
5.68046e-07
5.44219e-07
5.68086e-07
-5.75733e-07
-5.44031e-07
-5.73848e-07
4.60368e-05
-4.82785e-05
-8.29208e-07
8.31975e-07
-8.28957e-07
4.82763e-05
4.60559e-05
-4.83049e-05
8.57651e-07
-8.61863e-07
8.58366e-07
-8.62006e-07
-4.60522e-05
4.83084e-05
5.46561e-07
5.68081e-07
5.45184e-07
5.68804e-07
-5.75539e-07
-5.44701e-07
-5.7473e-07
4.6037e-05
-4.82779e-05
-8.29231e-07
8.32577e-07
-8.29933e-07
4.82752e-05
4.60566e-05
-4.8305e-05
8.58117e-07
-8.62095e-07
8.58265e-07
-8.61886e-07
-4.60526e-05
4.83085e-05
5.47195e-07
5.68474e-07
5.45033e-07
5.6856e-07
-5.76073e-07
-5.44511e-07
-5.74358e-07
4.60375e-05
-4.82781e-05
-8.30058e-07
8.32191e-07
-8.29848e-07
4.82754e-05
4.60562e-05
-4.83041e-05
8.58124e-07
-8.62171e-07
8.58757e-07
-8.62471e-07
-4.60524e-05
4.83076e-05
5.47317e-07
5.68739e-07
5.45756e-07
5.70403e-07
-5.76247e-07
-5.45462e-07
-5.76192e-07
4.60375e-05
-4.8275e-05
-8.30231e-07
8.34014e-07
-8.31498e-07
4.82729e-05
4.60567e-05
-4.83042e-05
8.585e-07
-8.62762e-07
8.58832e-07
-8.62769e-07
-4.60528e-05
4.83073e-05
5.47796e-07
5.7069e-07
5.45666e-07
5.72997e-07
-5.78344e-07
-5.45621e-07
-5.78678e-07
4.60397e-05
-4.82703e-05
-8.32519e-07
8.38461e-07
-8.36057e-07
4.82679e-05
4.60565e-05
-4.83042e-05
8.58586e-07
-8.62708e-07
8.58747e-07
-8.6244e-07
-4.60528e-05
4.8308e-05
5.47708e-07
5.73143e-07
5.45663e-07
5.71629e-07
-5.80704e-07
-5.45286e-07
-5.77707e-07
4.6043e-05
-4.82741e-05
-8.36942e-07
8.38115e-07
-8.35269e-07
4.82707e-05
4.60569e-05
-4.83046e-05
8.586e-07
-8.62675e-07
8.58521e-07
-8.62109e-07
-4.60528e-05
4.83082e-05
5.47843e-07
5.70592e-07
5.45307e-07
5.69191e-07
-5.78167e-07
-5.44995e-07
-5.74844e-07
4.60406e-05
-4.82775e-05
-8.34252e-07
8.33071e-07
-8.30622e-07
4.82751e-05
4.60565e-05
-4.83055e-05
8.58007e-07
-8.61981e-07
8.57941e-07
-8.61871e-07
-4.60525e-05
4.83088e-05
5.47063e-07
5.68647e-07
5.44722e-07
5.684e-07
-5.76073e-07
-5.4431e-07
-5.74179e-07
4.60377e-05
-4.82782e-05
-8.30415e-07
8.32384e-07
-8.30036e-07
4.82755e-05
4.60559e-05
-4.83056e-05
8.57697e-07
-8.62335e-07
8.57843e-07
-8.6204e-07
-4.60525e-05
4.83083e-05
5.46813e-07
5.68291e-07
5.44651e-07
5.68323e-07
-5.75868e-07
-5.44518e-07
-5.74171e-07
4.6037e-05
-4.82784e-05
-8.30127e-07
8.31885e-07
-8.29809e-07
4.82754e-05
4.60558e-05
-4.83054e-05
8.57655e-07
-8.61749e-07
8.5811e-07
-8.61432e-07
-4.60524e-05
4.83093e-05
5.46729e-07
5.67967e-07
5.44681e-07
5.682e-07
-5.75338e-07
-5.43915e-07
-5.73682e-07
4.60368e-05
-4.82782e-05
-8.30045e-07
8.32283e-07
-8.30149e-07
4.82752e-05
4.60561e-05
-4.83047e-05
8.57972e-07
-8.62017e-07
8.58634e-07
-8.62262e-07
-4.60521e-05
4.83079e-05
5.46963e-07
5.68207e-07
5.45598e-07
5.69148e-07
-5.755e-07
-5.45244e-07
-5.74842e-07
4.60372e-05
-4.82773e-05
-8.30629e-07
8.32903e-07
-8.3102e-07
4.8274e-05
4.60568e-05
-4.83048e-05
8.58408e-07
-8.62279e-07
8.58581e-07
-8.62224e-07
-4.6053e-05
4.83082e-05
5.477e-07
5.68897e-07
5.45667e-07
5.6908e-07
-5.76358e-07
-5.45232e-07
-5.75099e-07
4.60379e-05
-4.82774e-05
-8.31233e-07
8.32938e-07
-8.31498e-07
4.82737e-05
4.60567e-05
-4.83042e-05
8.58447e-07
-8.62392e-07
8.59002e-07
-8.62516e-07
-4.60528e-05
4.83078e-05
5.47907e-07
5.69109e-07
5.46244e-07
5.70002e-07
-5.76613e-07
-5.45703e-07
-5.75043e-07
4.60379e-05
-4.82761e-05
-8.31726e-07
8.34012e-07
-8.31567e-07
4.82737e-05
4.60572e-05
-4.83045e-05
8.58772e-07
-8.62858e-07
8.58779e-07
-8.62896e-07
-4.60533e-05
4.83075e-05
5.48328e-07
5.69889e-07
5.46002e-07
5.69659e-07
-5.76538e-07
-5.45852e-07
-5.75434e-07
4.6039e-05
-4.8277e-05
-8.31784e-07
8.33356e-07
-8.31895e-07
4.82735e-05
4.60568e-05
-4.83051e-05
8.58344e-07
-8.62855e-07
8.58338e-07
-8.62033e-07
-4.60534e-05
4.83084e-05
5.47839e-07
5.69187e-07
5.45214e-07
5.6878e-07
-5.76752e-07
-5.44872e-07
-5.74583e-07
4.6038e-05
-4.82777e-05
-8.31978e-07
8.32614e-07
-8.31343e-07
4.82741e-05
4.60563e-05
-4.83053e-05
8.58105e-07
-8.62028e-07
8.58194e-07
-8.6182e-07
-4.60524e-05
4.83087e-05
5.47212e-07
5.68491e-07
5.45011e-07
5.68709e-07
-5.75963e-07
-5.4462e-07
-5.74428e-07
4.60374e-05
-4.82777e-05
-8.31374e-07
8.32671e-07
-8.31073e-07
4.82744e-05
4.60561e-05
-4.83055e-05
8.57883e-07
-8.62088e-07
8.57974e-07
-8.61835e-07
-4.60523e-05
4.83086e-05
5.47047e-07
5.68511e-07
5.44646e-07
5.68311e-07
-5.75605e-07
-5.44197e-07
-5.73799e-07
4.60374e-05
-4.8278e-05
-8.31068e-07
8.32377e-07
-8.30582e-07
4.82749e-05
4.60559e-05
-4.83054e-05
8.57663e-07
-8.62015e-07
8.58144e-07
-8.6177e-07
-4.60523e-05
4.83086e-05
5.4666e-07
5.68057e-07
5.44953e-07
5.68502e-07
-5.75339e-07
-5.44566e-07
-5.74114e-07
4.60371e-05
-4.82779e-05
-8.30758e-07
8.32478e-07
-8.30743e-07
4.82745e-05
4.60561e-05
-4.83046e-05
8.58125e-07
-8.61765e-07
8.58683e-07
-8.61903e-07
-4.60523e-05
4.83087e-05
5.47251e-07
5.68407e-07
5.4545e-07
5.68876e-07
-5.75524e-07
-5.44769e-07
-5.74561e-07
4.60374e-05
-4.82774e-05
-8.30898e-07
8.32847e-07
-8.31129e-07
4.8274e-05
4.60568e-05
-4.83043e-05
8.58489e-07
-8.62274e-07
8.59215e-07
-8.62841e-07
-4.60526e-05
4.83077e-05
5.47649e-07
5.68784e-07
5.46357e-07
5.69708e-07
-5.76144e-07
-5.46e-07
-5.7541e-07
4.60378e-05
-4.8277e-05
-8.31278e-07
8.33277e-07
-8.31612e-07
4.82736e-05
4.60571e-05
-4.83039e-05
8.5818e-07
-8.62232e-07
8.60778e-07
-8.64637e-07
-4.60533e-05
4.83071e-05
5.47607e-07
5.68635e-07
5.48311e-07
5.7178e-07
-5.76005e-07
-5.48012e-07
-5.77388e-07
4.60381e-05
-4.82763e-05
-8.30918e-07
8.34849e-07
-8.33304e-07
4.82731e-05
4.60562e-05
-4.82975e-05
8.55196e-07
-8.59497e-07
8.67396e-07
-8.713e-07
-4.60526e-05
4.83008e-05
5.44358e-07
5.65565e-07
5.56209e-07
5.79568e-07
-5.72822e-07
-5.55783e-07
-5.85515e-07
4.60374e-05
-4.82704e-05
-8.281e-07
8.41111e-07
-8.39976e-07
4.82668e-05
4.6047e-05
-4.82674e-05
8.45663e-07
-8.49579e-07
8.74456e-07
-8.78197e-07
-4.60432e-05
4.82714e-05
5.35057e-07
5.56079e-07
5.64701e-07
5.88096e-07
-5.63481e-07
-5.63898e-07
-5.95544e-07
4.60268e-05
-4.82412e-05
-8.18601e-07
8.48255e-07
-8.46988e-07
4.82374e-05
4.59844e-05
-4.80065e-05
8.28462e-07
-8.32465e-07
8.59063e-07
-8.63389e-07
-4.59805e-05
4.80094e-05
5.30686e-07
5.51148e-07
5.32443e-07
5.56428e-07
-5.60207e-07
-5.32607e-07
-5.6443e-07
4.59639e-05
-4.79796e-05
-8.01452e-07
8.32983e-07
-8.3192e-07
4.7976e-05
4.57484e-05
-4.80266e-05
8.88252e-07
-8.92252e-07
7.14308e-07
-7.19028e-07
-4.57442e-05
4.80301e-05
5.89797e-07
6.09591e-07
3.15515e-07
3.39389e-07
-6.19612e-07
-3.14371e-07
-3.43503e-07
4.57272e-05
-4.80002e-05
-8.61271e-07
6.87814e-07
-6.87502e-07
4.79963e-05
4.56219e-05
-4.72453e-05
1.0132e-06
-1.01771e-06
5.4594e-07
-5.52122e-07
-4.56171e-05
4.72474e-05
8.55527e-07
8.75554e-07
4.52766e-08
7.31226e-08
-8.8426e-07
-4.53614e-08
-7.60972e-08
4.56027e-05
-4.7219e-05
-9.87033e-07
5.2018e-07
-5.1974e-07
4.72136e-05
4.49296e-05
-4.62204e-05
1.26149e-06
-1.26582e-06
3.26726e-09
-1.11549e-08
-4.49262e-05
4.62232e-05
1.19214e-06
1.21041e-06
-6.11661e-07
-5.82142e-07
-1.21646e-06
6.1191e-07
5.86396e-07
4.49093e-05
-4.61955e-05
-1.23618e-06
-2.01042e-08
2.06859e-08
4.61911e-05
4.35528e-05
-4.38569e-05
1.88038e-06
-1.88489e-06
-1.25428e-06
1.24315e-06
-4.35509e-05
4.38636e-05
2.0487e-06
2.07249e-06
-2.0276e-06
-1.99545e-06
-2.07182e-06
2.01845e-06
1.99435e-06
4.35378e-05
-4.38348e-05
-1.85587e-06
-1.27524e-06
1.26981e-06
4.38199e-05
4.0382e-05
-3.60591e-05
3.20535e-06
-3.21351e-06
-5.16224e-06
5.13954e-06
-4.03837e-05
3.60258e-05
3.68164e-06
3.70299e-06
-6.77956e-06
-6.75597e-06
-3.7102e-06
6.75494e-06
6.74453e-06
4.03776e-05
-3.60345e-05
-3.18535e-06
-5.16481e-06