/*--------------------------------*- C++ -*----------------------------------*\
| =========                 |                                                 |
| \\      /  F ield         | OpenFOAM: The Open Source CFD Toolbox           |
|  \\    /   O peration     | Version:  2206                                  |
|   \\  /    A nd           | Website:  www.openfoam.com                      |
|    \\/     M anipulation  |                                                 |
\*---------------------------------------------------------------------------*/
FoamFile
{
    version     2.0;
    format      ascii;
    arch        "LSB;label=32;scalar=64";
    class       volScalarField;
    location    "32";
    object      Uy;
}
// * * * * * * * * * * * * * * * * * * * * * * * * * * * * * * * * * * * * * //

dimensions      [0 1 -1 0 0 0 0];

internalField   nonuniform List<scalar> 
171728
(
0.000107924
0.000119274
-0.000190188
-0.000239479
9.41763e-05
9.66556e-05
-0.000158726
-0.000200887
9.49729e-05
9.29403e-05
-0.000154992
-0.000201324
9.31422e-05
8.91255e-05
-0.000150435
-0.000197841
9.21271e-05
8.67459e-05
-0.000147768
-0.00019212
8.28811e-05
8.01087e-05
-0.000137567
-0.000178335
5.63882e-05
4.65661e-05
-8.4055e-05
-0.00013009
2.67453e-05
2.47568e-05
-3.69551e-05
-7.78362e-05
5.72785e-06
6.60375e-06
-8.55436e-06
-5.27156e-05
-1.12681e-07
1.35654e-06
-1.26478e-06
-4.65371e-05
-7.6288e-07
8.56507e-07
-5.64868e-07
-4.60814e-05
-8.07862e-07
8.33946e-07
-5.44728e-07
-4.60665e-05
-8.09982e-07
8.32405e-07
-5.45724e-07
-4.60672e-05
-8.09903e-07
8.31976e-07
-5.45158e-07
-4.60669e-05
-8.07537e-07
8.37897e-07
-5.45527e-07
-4.60662e-05
-8.05496e-07
8.41481e-07
-5.45491e-07
-4.60657e-05
-8.07208e-07
8.37433e-07
-5.45131e-07
-4.60663e-05
-8.05934e-07
8.38937e-07
-5.44161e-07
-4.60657e-05
-7.98116e-07
8.51707e-07
-5.42705e-07
-4.60643e-05
-8.00472e-07
8.26847e-07
-5.42423e-07
-4.6065e-05
-8.03816e-07
8.38996e-07
-5.44967e-07
-4.60665e-05
-8.09117e-07
8.3484e-07
-5.46178e-07
-4.60674e-05
-8.08723e-07
8.34032e-07
-5.46788e-07
-4.60676e-05
-8.09013e-07
8.33466e-07
-5.46515e-07
-4.60675e-05
-8.09189e-07
8.32905e-07
-5.45885e-07
-4.60671e-05
-8.0972e-07
8.32853e-07
-5.45908e-07
-4.60669e-05
-8.09939e-07
8.32463e-07
-5.46064e-07
-4.6067e-05
-8.09321e-07
8.33069e-07
-5.46605e-07
-4.60677e-05
-8.08345e-07
8.33506e-07
-5.46657e-07
-4.60678e-05
-8.07462e-07
8.34304e-07
-5.47198e-07
-4.60685e-05
-8.07888e-07
8.34851e-07
-5.47021e-07
-4.60682e-05
-8.0813e-07
8.3364e-07
-5.46419e-07
-4.60675e-05
-8.08493e-07
8.32983e-07
-5.45762e-07
-4.60676e-05
-8.08897e-07
8.3275e-07
-5.45452e-07
-4.6067e-05
-8.08332e-07
8.32724e-07
-5.45351e-07
-4.6067e-05
-8.08251e-07
8.32553e-07
-5.46034e-07
-4.60676e-05
-8.07881e-07
8.331e-07
-5.46634e-07
-4.60681e-05
-8.07674e-07
8.32991e-07
-5.46799e-07
-4.60682e-05
-8.07688e-07
8.3343e-07
-5.47325e-07
-4.60686e-05
-8.07924e-07
8.3271e-07
-5.46331e-07
-4.60694e-05
-8.03176e-07
8.31319e-07
-5.45573e-07
-4.60684e-05
-8.06363e-07
8.42591e-07
-5.43479e-07
-4.60655e-05
-8.07128e-07
8.33957e-07
-5.43461e-07
-4.60658e-05
-8.07948e-07
8.34688e-07
-5.44298e-07
-4.60675e-05
-8.08027e-07
8.35044e-07
-5.4414e-07
-4.60675e-05
-8.07462e-07
8.35532e-07
-5.448e-07
-4.60681e-05
-8.08377e-07
8.34947e-07
-5.44406e-07
-4.60679e-05
-8.09194e-07
8.35093e-07
-5.4428e-07
-4.60679e-05
-8.09795e-07
8.34152e-07
-5.43347e-07
-4.60668e-05
-8.09974e-07
8.34494e-07
-5.43328e-07
-4.60666e-05
-8.10108e-07
8.3428e-07
-5.43557e-07
-4.60667e-05
-8.09566e-07
8.3458e-07
-5.43856e-07
-4.6067e-05
-8.09037e-07
8.34699e-07
-5.44853e-07
-4.60676e-05
-8.10128e-07
8.31605e-07
-5.4464e-07
-4.60676e-05
-8.10984e-07
8.25903e-07
-5.45823e-07
-4.60697e-05
-8.10809e-07
8.33391e-07
-5.43989e-07
-4.60679e-05
-8.11863e-07
8.32479e-07
-5.41616e-07
-4.60652e-05
-8.12294e-07
8.31399e-07
-5.41014e-07
-4.60645e-05
-8.12178e-07
8.31736e-07
-5.40963e-07
-4.60642e-05
-8.11421e-07
8.31964e-07
-5.41509e-07
-4.60645e-05
-8.11249e-07
8.32042e-07
-5.41352e-07
-4.60646e-05
-8.10907e-07
8.32783e-07
-5.41887e-07
-4.60649e-05
-8.11185e-07
8.32035e-07
-5.41272e-07
-4.60645e-05
-8.11132e-07
8.31865e-07
-5.40761e-07
-4.6064e-05
-8.12054e-07
8.31274e-07
-5.3984e-07
-4.60634e-05
-8.12193e-07
8.31425e-07
-5.39961e-07
-4.6063e-05
-8.116e-07
8.31579e-07
-5.40225e-07
-4.60636e-05
-8.11145e-07
8.32111e-07
-5.40654e-07
-4.60632e-05
-8.09376e-07
8.3367e-07
-5.37575e-07
-4.60611e-05
-8.0759e-07
8.34664e-07
-5.2786e-07
-4.60549e-05
-8.08775e-07
8.34136e-07
-5.38092e-07
-4.60593e-05
-8.11241e-07
8.31838e-07
-5.39975e-07
-4.60627e-05
-8.11929e-07
8.32009e-07
-5.40024e-07
-4.60633e-05
-8.12196e-07
8.31047e-07
-5.39935e-07
-4.60632e-05
-8.1213e-07
8.31507e-07
-5.40211e-07
-4.60634e-05
-8.11443e-07
8.31579e-07
-5.40748e-07
-4.60641e-05
-8.11382e-07
8.31777e-07
-5.41117e-07
-4.60646e-05
-8.10894e-07
8.32339e-07
-5.41608e-07
-4.60644e-05
-8.11116e-07
8.32418e-07
-5.40797e-07
-4.60643e-05
-8.11675e-07
8.315e-07
-5.40092e-07
-4.60636e-05
-8.11897e-07
8.31674e-07
-5.39994e-07
-4.60635e-05
-8.12257e-07
8.31485e-07
-5.39908e-07
-4.60631e-05
-8.11894e-07
8.31269e-07
-5.40357e-07
-4.60637e-05
-8.11522e-07
8.31866e-07
-5.40658e-07
-4.60641e-05
-8.11358e-07
8.31743e-07
-5.40987e-07
-4.60646e-05
-8.1365e-07
8.28821e-07
-5.38068e-07
-4.60641e-05
-8.21492e-07
8.19082e-07
-5.28609e-07
-4.60549e-05
-8.32716e-07
8.02315e-07
-5.24107e-07
-4.59926e-05
-8.5665e-07
8.62085e-07
-5.82275e-07
-4.57567e-05
-6.40283e-07
9.87772e-07
-8.49226e-07
-4.56305e-05
-6.47152e-07
1.23754e-06
-1.18419e-06
-4.49384e-05
-4.4056e-07
1.85905e-06
-2.046e-06
-4.35626e-05
-3.6078e-07
3.19434e-06
-3.67597e-06
-4.03919e-05
-5.73999e-06
3.55623e-06
-2.44065e-06
-2.66618e-05
-4.09775e-05
-3.38376e-05
4.20883e-05
4.62321e-05
0.000135038
0.000152842
0.000152823
0.000135006
0.000124184
-0.000124201
9.07199e-05
9.07173e-05
-9.07659e-05
-9.0764e-05
0.00012418
-0.000124197
-0.000135058
-0.000152872
-0.000152854
-0.000135031
0.000239482
0.000111502
0.000190088
0.000190129
0.000147211
0.000147207
0.000239431
0.000111471
0.000119293
-0.000119354
8.91141e-05
-8.91357e-05
-0.000119358
8.91158e-05
-8.91296e-05
-0.000239524
-0.000111596
-0.000190218
-0.000147148
-0.000147174
-0.000111598
0.000200754
0.00010609
0.000158782
0.000158779
0.000156249
0.000156249
0.000200722
0.000106085
9.66491e-05
-9.66617e-05
9.40153e-05
-9.40179e-05
-9.66569e-05
9.40243e-05
-9.40085e-05
-0.000200895
-0.000106149
-0.000158751
-0.000156201
-0.000156221
-0.000106157
0.000201213
9.79876e-05
0.000155042
0.000155038
0.000153977
0.000153967
0.000201197
9.79807e-05
9.29366e-05
-9.29319e-05
9.17843e-05
-9.17681e-05
-9.29254e-05
9.17773e-05
-9.1773e-05
-0.000201331
-9.80333e-05
-0.000155014
-0.000153919
-0.000153928
-9.80614e-05
0.000197723
8.91882e-05
0.000150494
0.000150482
0.000150282
0.000150278
0.000197709
8.91927e-05
8.91351e-05
-8.91165e-05
8.84127e-05
-8.8394e-05
-8.91222e-05
8.84073e-05
-8.84032e-05
-0.000197831
-8.92292e-05
-0.00015044
-0.000150224
-0.000150225
-8.92624e-05
0.000192008
7.73843e-05
0.000147827
0.00014782
0.000138063
0.000138073
0.000192001
7.73947e-05
8.67502e-05
-8.67226e-05
8.01934e-05
-8.01823e-05
-8.67351e-05
8.01941e-05
-8.01954e-05
-0.000192104
-7.74158e-05
-0.000147765
-0.000138016
-0.000138011
-7.746e-05
0.000178221
4.23189e-05
0.000137614
0.000137624
0.00010164
0.000101626
0.000178219
4.23717e-05
8.01063e-05
-8.00672e-05
5.59345e-05
-5.59406e-05
-8.0097e-05
5.59128e-05
-5.59138e-05
-0.000178318
-4.23514e-05
-0.00013756
-0.000101564
-0.000101535
-4.23469e-05
0.000130082
-1.27687e-05
8.40551e-05
8.40934e-05
4.68478e-05
4.68557e-05
0.000130071
-1.27833e-05
4.65965e-05
-4.66164e-05
2.98506e-05
-2.99012e-05
-4.6599e-05
2.98491e-05
-2.98914e-05
-0.000130128
1.28078e-05
-8.39984e-05
-4.68472e-05
-4.68491e-05
1.27965e-05
7.77949e-05
-3.97552e-05
3.69473e-05
3.69615e-05
1.32942e-05
1.33138e-05
7.77772e-05
-3.97504e-05
2.47578e-05
-2.48057e-05
9.92545e-06
-9.96059e-06
-2.47973e-05
9.92143e-06
-9.95942e-06
-7.78369e-05
3.97712e-05
-3.69583e-05
-1.32866e-05
-1.32903e-05
3.97576e-05
5.26692e-05
-4.75909e-05
8.56305e-06
8.58402e-06
1.99167e-06
2.00316e-06
5.26662e-05
-4.75874e-05
6.61061e-06
-6.64063e-06
1.87122e-06
-1.89369e-06
-6.63927e-06
1.86651e-06
-1.89138e-06
-5.27207e-05
4.76207e-05
-8.55308e-06
-1.97157e-06
-1.9694e-06
4.76067e-05
4.65055e-05
-4.824e-05
1.28652e-06
1.29909e-06
6.34682e-07
6.29147e-07
4.64987e-05
-4.82542e-05
1.36355e-06
-1.38231e-06
8.9909e-07
-9.086e-07
-1.37974e-06
8.87144e-07
-9.05999e-07
-4.65425e-05
4.82903e-05
-1.25942e-06
-5.95138e-07
-5.91954e-07
4.82762e-05
4.60688e-05
-4.82807e-05
5.99989e-07
6.01802e-07
5.67242e-07
5.73457e-07
4.60451e-05
-4.82794e-05
8.69104e-07
-8.78136e-07
8.37643e-07
-8.5753e-07
-8.76071e-07
8.34932e-07
-8.55003e-07
-4.60866e-05
4.83143e-05
-5.59066e-07
-5.41451e-07
-5.39205e-07
4.82997e-05
4.60344e-05
-4.82808e-05
5.68849e-07
5.79314e-07
5.64911e-07
5.81524e-07
4.60285e-05
-4.82799e-05
8.38591e-07
-8.58e-07
8.36416e-07
-8.59669e-07
-8.54992e-07
8.33162e-07
-8.54619e-07
-4.60715e-05
4.83113e-05
-5.39983e-07
-5.42502e-07
-5.4223e-07
4.82988e-05
4.60354e-05
-4.82807e-05
5.67033e-07
5.86325e-07
5.62777e-07
5.83743e-07
4.60277e-05
-4.82815e-05
8.38854e-07
-8.60023e-07
8.36325e-07
-8.59743e-07
-8.54636e-07
8.31654e-07
-8.5339e-07
-4.60743e-05
4.83109e-05
-5.43529e-07
-5.41966e-07
-5.43787e-07
4.8299e-05
4.60385e-05
-4.8278e-05
5.6844e-07
5.82878e-07
5.66839e-07
5.78409e-07
4.6027e-05
-4.82775e-05
8.41398e-07
-8.6005e-07
8.39486e-07
-8.59509e-07
-8.53668e-07
8.35733e-07
-8.52752e-07
-4.60743e-05
4.83112e-05
-5.4387e-07
-5.42278e-07
-5.41094e-07
4.82998e-05
4.60428e-05
-4.8278e-05
5.71096e-07
5.79151e-07
5.68599e-07
5.88153e-07
4.60337e-05
-4.82615e-05
8.39825e-07
-8.59631e-07
8.39186e-07
-8.58812e-07
-8.53017e-07
8.45053e-07
-8.52196e-07
-4.60742e-05
4.83119e-05
-5.40947e-07
-5.42295e-07
-5.39334e-07
4.83005e-05
4.60421e-05
-4.82779e-05
5.72267e-07
5.82142e-07
5.66468e-07
5.74581e-07
4.60455e-05
-4.82813e-05
8.39926e-07
-8.58924e-07
8.38208e-07
-8.58508e-07
-8.52491e-07
8.36746e-07
-8.53072e-07
-4.60735e-05
4.83122e-05
-5.3961e-07
-5.42029e-07
-5.39024e-07
4.82998e-05
4.60408e-05
-4.82773e-05
5.72011e-07
5.74807e-07
5.66492e-07
5.72702e-07
4.60286e-05
-4.82817e-05
8.38772e-07
-8.58697e-07
8.38494e-07
-8.57569e-07
-8.53536e-07
8.37235e-07
-8.52451e-07
-4.60731e-05
4.83133e-05
-5.39502e-07
-5.41321e-07
-5.38246e-07
4.83007e-05
4.60405e-05
-4.82656e-05
5.71801e-07
5.74216e-07
5.76426e-07
5.84125e-07
4.60298e-05
-4.82647e-05
8.40091e-07
-8.57285e-07
8.45786e-07
-8.55092e-07
-8.52261e-07
8.47362e-07
-8.50171e-07
-4.60724e-05
4.83153e-05
-5.38479e-07
-5.39687e-07
-5.37279e-07
4.83026e-05
4.60569e-05
-4.82653e-05
5.85882e-07
5.89629e-07
5.72639e-07
5.79627e-07
4.60485e-05
-4.82761e-05
8.50035e-07
-8.55065e-07
8.46161e-07
-8.55296e-07
-8.50335e-07
8.37158e-07
-8.51086e-07
-4.60709e-05
4.83145e-05
-5.39282e-07
-5.39161e-07
-5.45461e-07
4.83013e-05
4.60491e-05
-4.82697e-05
5.71365e-07
5.69644e-07
5.81857e-07
5.8169e-07
4.60212e-05
-4.8279e-05
8.43272e-07
-8.56085e-07
8.37285e-07
-8.57459e-07
-8.52174e-07
8.36882e-07
-8.53529e-07
-4.60714e-05
4.83126e-05
-5.47105e-07
-5.40941e-07
-5.41545e-07
4.82995e-05
4.60426e-05
-4.82712e-05
5.80078e-07
5.75454e-07
5.69937e-07
5.75121e-07
4.60292e-05
-4.82797e-05
8.38046e-07
-8.58098e-07
8.37373e-07
-8.59055e-07
-8.53962e-07
8.34052e-07
-8.54004e-07
-4.60727e-05
4.8311e-05
-5.41454e-07
-5.42856e-07
-5.41877e-07
4.82985e-05
4.60378e-05
-4.82732e-05
5.66474e-07
5.76215e-07
5.69339e-07
5.76195e-07
4.60302e-05
-4.82789e-05
8.37087e-07
-8.59571e-07
8.35542e-07
-8.59273e-07
-8.54758e-07
8.34117e-07
-8.55023e-07
-4.60741e-05
4.8311e-05
-5.41834e-07
-5.43313e-07
-5.4113e-07
4.82981e-05
4.60365e-05
-4.82738e-05
5.66649e-07
5.7602e-07
5.6901e-07
5.76369e-07
4.60301e-05
-4.82785e-05
8.35848e-07
-8.59523e-07
8.34389e-07
-8.58978e-07
-8.5543e-07
8.33724e-07
-8.54877e-07
-4.60739e-05
4.83111e-05
-5.41148e-07
-5.43469e-07
-5.39672e-07
4.82983e-05
4.6036e-05
-4.82742e-05
5.66355e-07
5.75631e-07
5.68831e-07
5.7647e-07
4.60301e-05
-4.82786e-05
8.34751e-07
-8.59111e-07
8.33527e-07
-8.5842e-07
-8.55149e-07
8.3323e-07
-8.54364e-07
-4.60737e-05
4.83117e-05
-5.41187e-07
-5.42847e-07
-5.41128e-07
4.82986e-05
4.60357e-05
-4.82746e-05
5.66098e-07
5.75886e-07
5.68437e-07
5.76486e-07
4.60301e-05
-4.82782e-05
8.3411e-07
-8.58523e-07
8.32667e-07
-8.58346e-07
-8.54576e-07
8.33101e-07
-8.54174e-07
-4.60731e-05
4.83119e-05
-5.41649e-07
-5.4269e-07
-5.41524e-07
4.82989e-05
4.60352e-05
-4.82755e-05
5.65766e-07
5.75745e-07
5.67737e-07
5.76305e-07
4.60305e-05
-4.82786e-05
8.33188e-07
-8.58622e-07
8.31712e-07
-8.58362e-07
-8.54611e-07
8.32529e-07
-8.53954e-07
-4.60729e-05
4.8312e-05
-5.42185e-07
-5.4263e-07
-5.41795e-07
4.82988e-05
4.60344e-05
-4.82747e-05
5.6545e-07
5.75829e-07
5.68581e-07
5.76818e-07
4.60303e-05
-4.8278e-05
8.32497e-07
-8.58774e-07
8.32183e-07
-8.58892e-07
-8.54442e-07
8.32913e-07
-8.54558e-07
-4.6073e-05
4.83113e-05
-5.42508e-07
-5.43375e-07
-5.42745e-07
4.82981e-05
4.60353e-05
-4.82736e-05
5.66052e-07
5.76348e-07
5.69331e-07
5.77261e-07
4.60309e-05
-4.82774e-05
8.32942e-07
-8.59189e-07
8.32868e-07
-8.58752e-07
-8.54919e-07
8.33568e-07
-8.54495e-07
-4.60736e-05
4.83113e-05
-5.43269e-07
-5.43253e-07
-5.42847e-07
4.82981e-05
4.60367e-05
-4.8272e-05
5.67438e-07
5.76962e-07
5.70866e-07
5.78241e-07
4.60315e-05
-4.82767e-05
8.33965e-07
-8.59001e-07
8.33853e-07
-8.59041e-07
-8.55049e-07
8.3364e-07
-8.55114e-07
-4.60736e-05
4.83108e-05
-5.43539e-07
-5.44193e-07
-5.4391e-07
4.82973e-05
4.6038e-05
-4.82721e-05
5.68524e-07
5.77806e-07
5.7069e-07
5.77809e-07
4.6032e-05
-4.82765e-05
8.34658e-07
-8.59127e-07
8.33702e-07
-8.58581e-07
-8.55449e-07
8.33164e-07
-8.54989e-07
-4.6074e-05
4.83114e-05
-5.4432e-07
-5.43886e-07
-5.43807e-07
4.82975e-05
4.60376e-05
-4.8273e-05
5.67927e-07
5.77759e-07
5.70031e-07
5.7773e-07
4.60313e-05
-4.82776e-05
8.34248e-07
-8.59089e-07
8.3306e-07
-8.58787e-07
-8.55223e-07
8.32932e-07
-8.54338e-07
-4.60735e-05
4.83111e-05
-5.43961e-07
-5.43677e-07
-5.43134e-07
4.82982e-05
4.6037e-05
-4.82724e-05
5.67737e-07
5.77143e-07
5.70199e-07
5.77899e-07
4.60293e-05
-4.82772e-05
8.33949e-07
-8.58864e-07
8.33404e-07
-8.58287e-07
-8.54759e-07
8.3321e-07
-8.54463e-07
-4.60736e-05
4.83118e-05
-5.43297e-07
-5.43263e-07
-5.43205e-07
4.82981e-05
4.60372e-05
-4.8274e-05
5.6718e-07
5.77123e-07
5.68899e-07
5.77227e-07
4.60285e-05
-4.82781e-05
8.33773e-07
-8.58396e-07
8.32446e-07
-8.57793e-07
-8.54614e-07
8.32675e-07
-8.53936e-07
-4.60729e-05
4.83124e-05
-5.42937e-07
-5.42736e-07
-5.42627e-07
4.82988e-05
4.60363e-05
-4.82728e-05
5.66756e-07
5.76845e-07
5.69874e-07
5.78074e-07
4.60276e-05
-4.82778e-05
8.33493e-07
-8.58185e-07
8.33422e-07
-8.58107e-07
-8.54397e-07
8.32908e-07
-8.53872e-07
-4.60725e-05
4.8312e-05
-5.42503e-07
-5.42839e-07
-5.4253e-07
4.82988e-05
4.60376e-05
-4.82735e-05
5.67429e-07
5.77416e-07
5.69557e-07
5.78048e-07
4.60279e-05
-4.82781e-05
8.34094e-07
-8.58224e-07
8.33009e-07
-8.58055e-07
-8.54206e-07
8.32638e-07
-8.543e-07
-4.60729e-05
4.83121e-05
-5.42332e-07
-5.43079e-07
-5.43007e-07
4.82983e-05
4.60375e-05
-4.82733e-05
5.67438e-07
5.77736e-07
5.70006e-07
5.78777e-07
4.60276e-05
-4.82772e-05
8.33869e-07
-8.58614e-07
8.33442e-07
-8.58745e-07
-8.54927e-07
8.32947e-07
-8.54829e-07
-4.6073e-05
4.83112e-05
-5.43127e-07
-5.43978e-07
-5.4381e-07
4.82977e-05
4.60384e-05
-4.82737e-05
5.67948e-07
5.78339e-07
5.70216e-07
5.79016e-07
4.60283e-05
-4.82772e-05
8.34129e-07
-8.58931e-07
8.33563e-07
-8.58804e-07
-8.55261e-07
8.33286e-07
-8.54825e-07
-4.60737e-05
4.83112e-05
-5.43726e-07
-5.44048e-07
-5.43973e-07
4.82976e-05
4.6039e-05
-4.82739e-05
5.68421e-07
5.78668e-07
5.7015e-07
5.7932e-07
4.60282e-05
-4.82769e-05
8.34255e-07
-8.59086e-07
8.33771e-07
-8.59134e-07
-8.55249e-07
8.33262e-07
-8.55215e-07
-4.60738e-05
4.83108e-05
-5.4381e-07
-5.44553e-07
-5.44443e-07
4.82973e-05
4.60395e-05
-4.82764e-05
5.68972e-07
5.7894e-07
5.68608e-07
5.80113e-07
4.60285e-05
-4.82765e-05
8.34161e-07
-8.59343e-07
8.32605e-07
-8.58921e-07
-8.55652e-07
8.33804e-07
-8.55285e-07
-4.60741e-05
4.8311e-05
-5.44392e-07
-5.43887e-07
-5.46559e-07
4.82963e-05
4.60369e-05
-4.82821e-05
5.68201e-07
5.80732e-07
5.69451e-07
5.82921e-07
4.60294e-05
-4.82732e-05
8.32556e-07
-8.58957e-07
8.34656e-07
-8.58096e-07
-8.5605e-07
8.29698e-07
-8.55369e-07
-4.60739e-05
4.83121e-05
-5.48025e-07
-5.4359e-07
-5.48118e-07
4.82971e-05
4.60394e-05
-4.82819e-05
5.77776e-07
5.76947e-07
5.63109e-07
5.88092e-07
4.60292e-05
-4.8268e-05
8.36645e-07
-8.58045e-07
8.31538e-07
-8.57517e-07
-8.54611e-07
8.40468e-07
-8.52046e-07
-4.60732e-05
4.83129e-05
-5.44751e-07
-5.41882e-07
-5.41806e-07
4.83007e-05
4.60405e-05
-4.82757e-05
5.71007e-07
5.89571e-07
5.65918e-07
5.74855e-07
4.60419e-05
-4.82797e-05
8.34613e-07
-8.57916e-07
8.35631e-07
-8.57688e-07
-8.52021e-07
8.3404e-07
-8.52096e-07
-4.60724e-05
4.8313e-05
-5.41095e-07
-5.41328e-07
-5.41587e-07
4.83005e-05
4.60442e-05
-4.82755e-05
5.70443e-07
5.75881e-07
5.65728e-07
5.75571e-07
4.60255e-05
-4.82798e-05
8.36032e-07
-8.58127e-07
8.3566e-07
-8.58722e-07
-8.53138e-07
8.35134e-07
-8.54278e-07
-4.60723e-05
4.8312e-05
-5.41389e-07
-5.42744e-07
-5.43633e-07
4.82984e-05
4.60444e-05
-4.82755e-05
5.70646e-07
5.75231e-07
5.6517e-07
5.74962e-07
4.6026e-05
-4.82803e-05
8.36354e-07
-8.59183e-07
8.35752e-07
-8.58847e-07
-8.54647e-07
8.35145e-07
-8.54365e-07
-4.60732e-05
4.83119e-05
-5.4267e-07
-5.4283e-07
-5.43745e-07
4.82985e-05
4.60445e-05
-4.82743e-05
5.71015e-07
5.74975e-07
5.66445e-07
5.75304e-07
4.60257e-05
-4.82799e-05
8.37008e-07
-8.59377e-07
8.36935e-07
-8.59492e-07
-8.54907e-07
8.35518e-07
-8.54911e-07
-4.60734e-05
4.83111e-05
-5.4265e-07
-5.43699e-07
-5.44772e-07
4.82977e-05
4.60454e-05
-4.82753e-05
5.71604e-07
5.75576e-07
5.65632e-07
5.74361e-07
4.60261e-05
-4.82804e-05
8.37648e-07
-8.59719e-07
8.36399e-07
-8.59023e-07
-8.55161e-07
8.35283e-07
-8.54653e-07
-4.60741e-05
4.83116e-05
-5.42983e-07
-5.43214e-07
-5.44323e-07
4.8298e-05
4.60444e-05
-4.82765e-05
5.70599e-07
5.7446e-07
5.64551e-07
5.7409e-07
4.60252e-05
-4.82805e-05
8.37111e-07
-8.59355e-07
8.35884e-07
-8.59132e-07
-8.55082e-07
8.35095e-07
-8.54805e-07
-4.60735e-05
4.83116e-05
-5.42658e-07
-5.43229e-07
-5.44363e-07
4.82979e-05
4.6043e-05
-4.82777e-05
5.69444e-07
5.74163e-07
5.63353e-07
5.73139e-07
4.60252e-05
-4.82814e-05
8.36568e-07
-8.59276e-07
8.35429e-07
-8.58502e-07
-8.5503e-07
8.34679e-07
-8.53894e-07
-4.60734e-05
4.83123e-05
-5.4265e-07
-5.42309e-07
-5.4319e-07
4.82989e-05
4.60419e-05
-4.82782e-05
5.68406e-07
5.73173e-07
5.62923e-07
5.72814e-07
4.60241e-05
-4.82816e-05
8.36089e-07
-8.58755e-07
8.35032e-07
-8.58645e-07
-8.54045e-07
8.34304e-07
-8.53596e-07
-4.60727e-05
4.83122e-05
-5.41524e-07
-5.41898e-07
-5.42485e-07
4.82993e-05
4.60414e-05
-4.82782e-05
5.68181e-07
5.73069e-07
5.63012e-07
5.72747e-07
4.60242e-05
-4.82816e-05
8.35822e-07
-8.59077e-07
8.3497e-07
-8.58761e-07
-8.53944e-07
8.34555e-07
-8.53688e-07
-4.60729e-05
4.83121e-05
-5.41471e-07
-5.42073e-07
-5.42571e-07
4.82992e-05
4.60415e-05
-4.82779e-05
5.68213e-07
5.73051e-07
5.63234e-07
5.73056e-07
4.60241e-05
-4.82811e-05
8.35743e-07
-8.59068e-07
8.35289e-07
-8.58827e-07
-8.54061e-07
8.34571e-07
-8.53917e-07
-4.6073e-05
4.83119e-05
-5.41937e-07
-5.42113e-07
-5.42499e-07
4.82989e-05
4.60419e-05
-4.82771e-05
5.68726e-07
5.73519e-07
5.64232e-07
5.73923e-07
4.60246e-05
-4.82805e-05
8.36285e-07
-8.59271e-07
8.35798e-07
-8.59361e-07
-8.54479e-07
8.35073e-07
-8.54567e-07
-4.60732e-05
4.83112e-05
-5.42392e-07
-5.4318e-07
-5.43714e-07
4.82981e-05
4.60423e-05
-4.82779e-05
5.69429e-07
5.74124e-07
5.63129e-07
5.7216e-07
4.60249e-05
-4.82826e-05
8.36512e-07
-8.59754e-07
8.34948e-07
-8.59421e-07
-8.55005e-07
8.3299e-07
-8.5501e-07
-4.60737e-05
4.83112e-05
-5.43344e-07
-5.42773e-07
-5.43406e-07
4.82978e-05
4.60411e-05
-4.82782e-05
5.68011e-07
5.70856e-07
5.61886e-07
5.60162e-07
4.60211e-05
-4.8298e-05
8.35649e-07
-8.59876e-07
8.34502e-07
-8.60178e-07
-8.55751e-07
8.24742e-07
-8.57102e-07
-4.60735e-05
4.83105e-05
-5.43672e-07
-5.43698e-07
-5.4562e-07
4.82957e-05
4.6041e-05
-4.82781e-05
5.67195e-07
5.62802e-07
5.62664e-07
5.73534e-07
4.60056e-05
-4.82818e-05
8.35222e-07
-8.60617e-07
8.34616e-07
-8.59798e-07
-8.57603e-07
8.34415e-07
-8.55541e-07
-4.60742e-05
4.83111e-05
-5.46114e-07
-5.42658e-07
-5.45612e-07
4.82972e-05
4.60416e-05
-4.82778e-05
5.67765e-07
5.72717e-07
5.61782e-07
5.7529e-07
4.60233e-05
-4.82826e-05
8.35607e-07
-8.59969e-07
8.35267e-07
-8.59705e-07
-8.55053e-07
8.32638e-07
-8.52265e-07
-4.60737e-05
4.83113e-05
-5.47005e-07
-5.40055e-07
-5.52208e-07
4.83003e-05
4.6042e-05
-4.82776e-05
5.66808e-07
5.76217e-07
5.60975e-07
5.76344e-07
4.6023e-05
-4.8283e-05
8.36238e-07
-8.60089e-07
8.35637e-07
-8.59846e-07
-8.52121e-07
8.31994e-07
-8.50849e-07
-4.60738e-05
4.83113e-05
-5.54354e-07
-5.39116e-07
-5.53351e-07
4.8301e-05
4.60421e-05
-4.82775e-05
5.66212e-07
5.76359e-07
5.60829e-07
5.76483e-07
4.60225e-05
-4.82832e-05
8.36489e-07
-8.602e-07
8.35815e-07
-8.59952e-07
-8.51097e-07
8.31539e-07
-8.50308e-07
-4.60738e-05
4.83113e-05
-5.54686e-07
-5.38793e-07
-5.53705e-07
4.83015e-05
4.60424e-05
-4.82766e-05
5.66282e-07
5.77038e-07
5.61607e-07
5.77513e-07
4.60225e-05
-4.82828e-05
8.36825e-07
-8.60464e-07
8.36522e-07
-8.60658e-07
-8.50692e-07
8.32126e-07
-8.50375e-07
-4.60739e-05
4.83104e-05
-5.55171e-07
-5.39495e-07
-5.5445e-07
4.83011e-05
4.60432e-05
-4.82764e-05
5.66887e-07
5.77866e-07
5.61739e-07
5.77687e-07
4.60228e-05
-4.82829e-05
8.37428e-07
-8.61027e-07
8.36785e-07
-8.60651e-07
-8.50781e-07
8.3193e-07
-8.50317e-07
-4.60747e-05
4.83104e-05
-5.55809e-07
-5.39349e-07
-5.54618e-07
4.83011e-05
4.60434e-05
-4.8276e-05
5.67038e-07
5.78124e-07
5.62183e-07
5.78681e-07
4.60228e-05
-4.82818e-05
8.37647e-07
-8.60993e-07
8.37142e-07
-8.61013e-07
-8.50741e-07
8.32854e-07
-8.50515e-07
-4.60747e-05
4.831e-05
-5.56011e-07
-5.39759e-07
-5.55218e-07
4.83007e-05
4.60437e-05
-4.82765e-05
5.67393e-07
5.79107e-07
5.61716e-07
5.78529e-07
4.60238e-05
-4.82823e-05
8.37959e-07
-8.61517e-07
8.36846e-07
-8.61199e-07
-8.50907e-07
8.32378e-07
-8.50237e-07
-4.60752e-05
4.83098e-05
-5.56562e-07
-5.39498e-07
-5.54922e-07
4.8301e-05
4.60432e-05
-4.82761e-05
5.6697e-07
5.78625e-07
5.61638e-07
5.78177e-07
4.60231e-05
-4.82827e-05
8.37791e-07
-8.6128e-07
8.37117e-07
-8.60446e-07
-8.50438e-07
8.31875e-07
-8.49777e-07
-4.60751e-05
4.83107e-05
-5.55997e-07
-5.38686e-07
-5.54296e-07
4.83015e-05
4.60435e-05
-4.8277e-05
5.6692e-07
5.7852e-07
5.60968e-07
5.77639e-07
4.60228e-05
-4.82831e-05
8.38052e-07
-8.60787e-07
8.36483e-07
-8.60096e-07
-8.50212e-07
8.31587e-07
-8.49427e-07
-4.60743e-05
4.83111e-05
-5.5546e-07
-5.38148e-07
-5.53859e-07
4.83019e-05
4.60425e-05
-4.82775e-05
5.65882e-07
5.77519e-07
5.60378e-07
5.7706e-07
4.60223e-05
-4.82834e-05
8.37358e-07
-8.60216e-07
8.3594e-07
-8.59878e-07
-8.49504e-07
8.31304e-07
-8.4881e-07
-4.60737e-05
4.83114e-05
-5.5475e-07
-5.37756e-07
-5.53414e-07
4.83026e-05
4.60423e-05
-4.82766e-05
5.65914e-07
5.77617e-07
5.61177e-07
5.77842e-07
4.60222e-05
-4.82828e-05
8.37207e-07
-8.60274e-07
8.36547e-07
-8.60218e-07
-8.49274e-07
8.31724e-07
-8.49341e-07
-4.60737e-05
4.83109e-05
-5.54692e-07
-5.38342e-07
-5.54209e-07
4.8302e-05
4.6043e-05
-4.82763e-05
5.66477e-07
5.78061e-07
5.61311e-07
5.7794e-07
4.60226e-05
-4.82827e-05
8.37667e-07
-8.60463e-07
8.36631e-07
-8.59951e-07
-8.4965e-07
8.31863e-07
-8.49052e-07
-4.60741e-05
4.83111e-05
-5.55082e-07
-5.38305e-07
-5.54221e-07
4.8302e-05
4.60432e-05
-4.82747e-05
5.66889e-07
5.78532e-07
5.62574e-07
5.79331e-07
4.60226e-05
-4.82811e-05
8.37985e-07
-8.60341e-07
8.37934e-07
-8.5894e-07
-8.49356e-07
8.33216e-07
-8.4788e-07
-4.60738e-05
4.83118e-05
-5.55115e-07
-5.37386e-07
-5.53536e-07
4.83029e-05
4.60444e-05
-4.82736e-05
5.68132e-07
5.79913e-07
5.63492e-07
5.80384e-07
4.60239e-05
-4.82801e-05
8.39408e-07
-8.58143e-07
8.39318e-07
-8.53898e-07
-8.47444e-07
8.34831e-07
-8.43774e-07
-4.60714e-05
4.8319e-05
-5.52604e-07
-5.26145e-07
-5.45412e-07
4.83085e-05
4.60452e-05
-4.82743e-05
5.68836e-07
5.80712e-07
5.63068e-07
5.80181e-07
4.60244e-05
-4.82806e-05
8.40569e-07
-8.53662e-07
8.3882e-07
-8.56051e-07
-8.4323e-07
8.34408e-07
-8.44255e-07
-4.60644e-05
4.83149e-05
-5.42676e-07
-5.34305e-07
-5.49053e-07
4.83073e-05
4.60448e-05
-4.82757e-05
5.68225e-07
5.80164e-07
5.61761e-07
5.78512e-07
4.60242e-05
-4.82825e-05
8.39643e-07
-8.57666e-07
8.37136e-07
-8.59457e-07
-8.4626e-07
8.325e-07
-8.4844e-07
-4.60707e-05
4.83115e-05
-5.51755e-07
-5.38031e-07
-5.55112e-07
4.83027e-05
4.60435e-05
-4.82769e-05
5.66618e-07
5.78401e-07
5.60866e-07
5.77755e-07
4.60226e-05
-4.82827e-05
8.37788e-07
-8.59855e-07
8.36105e-07
-8.59901e-07
-8.4877e-07
8.31819e-07
-8.48835e-07
-4.60735e-05
4.8311e-05
-5.53055e-07
-5.38507e-07
-5.55027e-07
4.83022e-05
4.60427e-05
-4.82771e-05
5.662e-07
5.78074e-07
5.60734e-07
5.77479e-07
4.60227e-05
-4.82831e-05
8.372e-07
-8.60471e-07
8.35865e-07
-8.6004e-07
-8.49477e-07
8.31651e-07
-8.48914e-07
-4.6074e-05
4.83111e-05
-5.54685e-07
-5.37844e-07
-5.53949e-07
4.83021e-05
4.60425e-05
-4.8277e-05
5.65993e-07
5.77605e-07
5.60568e-07
5.77255e-07
4.60221e-05
-4.82834e-05
8.36975e-07
-8.60223e-07
8.35943e-07
-8.60116e-07
-8.49274e-07
8.31075e-07
-8.48957e-07
-4.60737e-05
4.8311e-05
-5.55413e-07
-5.37986e-07
-5.54222e-07
4.83021e-05
4.60427e-05
-4.82762e-05
5.66064e-07
5.77754e-07
5.61528e-07
5.78058e-07
4.60221e-05
-4.82828e-05
8.37195e-07
-8.60591e-07
8.3653e-07
-8.6064e-07
-8.49588e-07
8.31792e-07
-8.49451e-07
-4.6074e-05
4.83104e-05
-5.55759e-07
-5.38733e-07
-5.55101e-07
4.83013e-05
4.60434e-05
-4.82763e-05
5.66908e-07
5.78407e-07
5.6158e-07
5.78308e-07
4.60226e-05
-4.82825e-05
8.37669e-07
-8.60894e-07
8.36453e-07
-8.60579e-07
-8.49852e-07
8.31807e-07
-8.49898e-07
-4.60745e-05
4.83104e-05
-5.56401e-07
-5.38849e-07
-5.55728e-07
4.83008e-05
4.60433e-05
-4.82758e-05
5.66964e-07
5.78636e-07
5.62075e-07
5.78767e-07
4.60229e-05
-4.82821e-05
8.37653e-07
-8.61142e-07
8.36782e-07
-8.61383e-07
-8.5038e-07
8.3229e-07
-8.49816e-07
-4.60745e-05
4.83094e-05
-5.57163e-07
-5.39548e-07
-5.55735e-07
4.83008e-05
4.60438e-05
-4.82758e-05
5.67501e-07
5.79299e-07
5.62077e-07
5.79013e-07
4.60233e-05
-4.82816e-05
8.37981e-07
-8.61696e-07
8.36855e-07
-8.60707e-07
-8.50148e-07
8.327e-07
-8.49764e-07
-4.60754e-05
4.83102e-05
-5.5695e-07
-5.39114e-07
-5.55666e-07
4.83009e-05
4.60436e-05
-4.82765e-05
5.67146e-07
5.78921e-07
5.61245e-07
5.77799e-07
4.60235e-05
-4.8283e-05
8.37834e-07
-8.60767e-07
8.364e-07
-8.59946e-07
-8.49979e-07
8.31743e-07
-8.49068e-07
-4.60744e-05
4.83111e-05
-5.5659e-07
-5.37942e-07
-5.5451e-07
4.83017e-05
4.6043e-05
-4.82767e-05
5.665e-07
5.77957e-07
5.61054e-07
5.77689e-07
4.60223e-05
-4.82831e-05
8.37484e-07
-8.60319e-07
8.36193e-07
-8.60075e-07
-8.49421e-07
8.31597e-07
-8.49057e-07
-4.60737e-05
4.83109e-05
-5.5581e-07
-5.38107e-07
-5.54597e-07
4.83017e-05
4.60427e-05
-4.82769e-05
5.66274e-07
5.78061e-07
5.60683e-07
5.77534e-07
4.60223e-05
-4.82829e-05
8.37262e-07
-8.60476e-07
8.36008e-07
-8.59769e-07
-8.49228e-07
8.3158e-07
-8.48562e-07
-4.60739e-05
4.83113e-05
-5.55604e-07
-5.37687e-07
-5.54018e-07
4.83022e-05
4.60425e-05
-4.82769e-05
5.65945e-07
5.7772e-07
5.60988e-07
5.77552e-07
4.60224e-05
-4.82831e-05
8.37011e-07
-8.60343e-07
8.36069e-07
-8.59994e-07
-8.48996e-07
8.31441e-07
-8.49036e-07
-4.60736e-05
4.83109e-05
-5.55441e-07
-5.3826e-07
-5.54685e-07
4.83017e-05
4.60427e-05
-4.82763e-05
5.66447e-07
5.78003e-07
5.61344e-07
5.78089e-07
4.60222e-05
-4.82824e-05
8.37346e-07
-8.60773e-07
8.36512e-07
-8.59905e-07
-8.4949e-07
8.31821e-07
-8.49438e-07
-4.6074e-05
4.83107e-05
-5.55947e-07
-5.38488e-07
-5.55099e-07
4.83013e-05
4.60432e-05
-4.82761e-05
5.66763e-07
5.78451e-07
5.62252e-07
5.78927e-07
4.6023e-05
-4.82822e-05
8.37626e-07
-8.61217e-07
8.3698e-07
-8.60331e-07
-8.49865e-07
8.32558e-07
-8.50211e-07
-4.60742e-05
4.83099e-05
-5.56524e-07
-5.39653e-07
-5.56362e-07
4.83007e-05
4.60434e-05
-4.82757e-05
5.66829e-07
5.78394e-07
5.64286e-07
5.8095e-07
4.60232e-05
-4.82816e-05
8.37223e-07
-8.61753e-07
8.3848e-07
-8.614e-07
-8.49837e-07
8.34068e-07
-8.52017e-07
-4.60748e-05
4.83087e-05
-5.56839e-07
-5.41942e-07
-5.58512e-07
4.83e-05
4.60425e-05
-4.82695e-05
5.63639e-07
5.75313e-07
5.72021e-07
5.88649e-07
4.60225e-05
-4.82752e-05
8.34182e-07
-8.60102e-07
8.45086e-07
-8.67193e-07
-8.47006e-07
8.40847e-07
-8.58782e-07
-4.60737e-05
4.83014e-05
-5.5377e-07
-5.49695e-07
-5.66498e-07
4.82937e-05
4.60331e-05
-4.82395e-05
5.54537e-07
5.65704e-07
5.80084e-07
5.96953e-07
4.60129e-05
-4.82454e-05
8.24591e-07
-8.50485e-07
8.52228e-07
-8.74638e-07
-8.37526e-07
8.47878e-07
-8.66059e-07
-4.60638e-05
4.82717e-05
-5.44411e-07
-5.58332e-07
-5.74966e-07
4.82638e-05
4.597e-05
-4.79786e-05
5.50533e-07
5.60617e-07
5.48673e-07
5.64991e-07
4.59503e-05
-4.79839e-05
8.07528e-07
-8.32924e-07
8.37285e-07
-8.60107e-07
-8.20255e-07
8.3299e-07
-8.5096e-07
-4.60007e-05
4.80102e-05
-5.39654e-07
-5.27229e-07
-5.42624e-07
4.80024e-05
4.57336e-05
-4.79979e-05
6.0898e-07
6.19456e-07
3.30184e-07
3.46999e-07
4.57137e-05
-4.80044e-05
8.67284e-07
-8.9206e-07
6.91686e-07
-7.16267e-07
-8.79403e-07
6.87557e-07
-7.06586e-07
-4.57635e-05
4.80299e-05
-5.99584e-07
-3.09607e-07
-3.22561e-07
4.80222e-05
4.56086e-05
-4.72155e-05
8.74496e-07
8.84286e-07
6.66572e-08
8.03076e-08
4.55888e-05
-4.72213e-05
9.93111e-07
-1.01602e-06
5.25398e-07
-5.49078e-07
-1.00468e-06
5.21548e-07
-5.40231e-07
-4.56369e-05
4.72497e-05
-8.64487e-07
-4.06487e-08
-5.384e-08
4.72405e-05
4.4917e-05
-4.61919e-05
1.21028e-06
1.21958e-06
-5.8824e-07
-5.76923e-07
4.48969e-05
-4.61971e-05
1.24187e-06
-1.26477e-06
-1.6592e-08
-7.53767e-09
-1.25337e-06
-1.78982e-08
-6.87586e-10
-4.49425e-05
4.62254e-05
-1.19903e-06
6.16259e-07
6.10402e-07
4.62159e-05
4.35429e-05
-4.38288e-05
2.06894e-06
2.08224e-06
-1.993e-06
-1.98085e-06
4.35219e-05
-4.38323e-05
1.86169e-06
-1.88449e-06
-1.26919e-06
1.25522e-06
-1.87171e-06
-1.26372e-06
1.25217e-06
-4.35667e-05
4.38603e-05
-2.05119e-06
2.02541e-06
2.02036e-06
4.3856e-05
4.03832e-05
-3.59982e-05
3.70529e-06
3.72526e-06
-6.73694e-06
-6.72883e-06
4.03721e-05
-3.60128e-05
3.18896e-06
-3.20264e-06
-5.15174e-06
5.15489e-06
-3.19438e-06
-5.13424e-06
5.15875e-06
-4.03995e-05