/*--------------------------------*- C++ -*----------------------------------*\
| =========                 |                                                 |
| \\      /  F ield         | OpenFOAM: The Open Source CFD Toolbox           |
|  \\    /   O peration     | Version:  2206                                  |
|   \\  /    A nd           | Website:  www.openfoam.com                      |
|    \\/     M anipulation  |                                                 |
\*---------------------------------------------------------------------------*/
FoamFile
{
    version     2.0;
    format      ascii;
    arch        "LSB;label=32;scalar=64";
    class       volScalarField;
    location    "21";
    object      p;
}
// * * * * * * * * * * * * * * * * * * * * * * * * * * * * * * * * * * * * * //

dimensions      [0 2 -2 0 0 0 0];

internalField   nonuniform List<scalar> 
28673
(
0.000528207
0.000530788
0.000484349
0.000484318
0.000484317
0.000486898
0.000440464
0.000440433
0.000440433
0.000443013
0.000396581
0.000396552
0.00039655
0.000399131
0.000352694
0.000352663
0.000352664
0.000355244
0.000308799
0.000308768
0.000308768
0.000311348
0.000264913
0.000264882
0.000264882
0.000267462
0.000221025
0.000220997
0.000220997
0.000223574
0.000177133
0.000177087
0.000177087
0.000179662
0.000133243
0.000133234
0.000133233
0.000135788
8.93492e-05
8.93059e-05
8.93047e-05
9.18396e-05
4.6131e-05
4.55652e-05
4.55623e-05
4.79582e-05
1.02113e-05
1.05123e-05
1.05105e-05
1.00852e-05
0.00053918
0.000536605
0.00053918
0.000492715
0.000528207
0.000528207
0.000495289
0.000495289
0.000530787
0.000492715
0.000495289
0.000495289
0.000528207
0.000495289
0.000495289
0.000492715
0.000528207
0.000495289
0.000495289
0.000492715
0.000486898
0.000448829
0.000484318
0.000484318
0.000451404
0.000451404
0.000486898
0.00044883
0.000484317
0.000484317
0.000451404
0.000451404
0.000484318
0.000451404
0.000451404
0.000486898
0.000448829
0.000484317
0.000451404
0.000451404
0.00044883
0.000443013
0.000404947
0.000440433
0.000440433
0.000407521
0.000407522
0.000443013
0.000404948
0.000440433
0.000440432
0.00040752
0.00040752
0.000440433
0.000407522
0.000407521
0.000443013
0.000404947
0.000440433
0.00040752
0.000407521
0.000404948
0.000399131
0.000361062
0.000396551
0.000396552
0.000363636
0.000363636
0.000399131
0.000361061
0.000396551
0.00039655
0.000363636
0.000363636
0.000396552
0.000363636
0.000363636
0.00039913
0.000361062
0.000396551
0.000363636
0.000363636
0.000361062
0.000355244
0.000317165
0.000352663
0.000352663
0.000319741
0.00031974
0.000355242
0.000317165
0.000352663
0.000352664
0.000319741
0.000319742
0.000352663
0.00031974
0.000319741
0.000355245
0.000317165
0.000352663
0.000319741
0.00031974
0.000317165
0.000311348
0.000273278
0.000308768
0.000308768
0.000275853
0.000275853
0.000311348
0.000273279
0.000308768
0.000308768
0.000275853
0.000275853
0.000308768
0.000275853
0.000275853
0.000311348
0.000273278
0.000308768
0.000275853
0.000275853
0.000273278
0.000267462
0.000229393
0.000264882
0.000264882
0.000231968
0.000231968
0.000267462
0.000229393
0.000264882
0.000264882
0.000231968
0.000231968
0.000264882
0.000231968
0.000231968
0.000267462
0.000229392
0.000264882
0.000231968
0.000231968
0.000229393
0.000223574
0.000185497
0.000220997
0.000220997
0.000188068
0.000188067
0.000223574
0.000185498
0.000220997
0.000220997
0.000188067
0.000188067
0.000220997
0.000188067
0.000188067
0.000223574
0.000185497
0.000220997
0.000188067
0.000188067
0.000185497
0.000179662
0.000141629
0.000177088
0.000177087
0.00014421
0.00014421
0.000179662
0.000141629
0.000177087
0.000177087
0.00014421
0.000144209
0.000177087
0.00014421
0.000144209
0.000179662
0.000141628
0.000177087
0.000144209
0.000144209
0.000141628
0.000135789
9.77346e-05
0.000133234
0.000133234
0.000100285
0.000100286
0.000135788
9.77355e-05
0.000133234
0.000133233
0.000100284
0.000100284
0.000133233
0.000100284
0.000100284
0.000135787
9.77342e-05
0.000133234
0.000100284
0.000100284
9.77343e-05
9.18408e-05
5.3877e-05
8.93063e-05
8.93065e-05
5.64265e-05
5.64271e-05
9.18408e-05
5.38782e-05
8.93052e-05
8.93046e-05
5.64247e-05
5.64242e-05
8.93052e-05
5.64257e-05
5.6424e-05
9.18403e-05
5.38748e-05
8.93049e-05
5.64232e-05
5.64224e-05
5.38743e-05
4.79619e-05
1.39217e-05
4.55671e-05
4.55672e-05
1.61855e-05
1.61847e-05
4.79623e-05
1.39213e-05
4.55654e-05
4.55642e-05
1.61836e-05
1.61799e-05
4.55635e-05
1.61821e-05
1.61781e-05
4.79588e-05
1.39173e-05
4.55616e-05
1.61803e-05
1.61796e-05
1.39159e-05
1.00892e-05
1.05138e-05
1.0514e-05
1.009e-05
1.05123e-05
1.051e-05
1.0211e-05
1.02092e-05
1.02087e-05
1.05088e-05
1.00865e-05
1.05095e-05
0.000514518
0.000530949
0.000530951
0.000514518
0.00053095
0.000514518
0.000514518
0.000514519
0.000528238
0.000528238
0.000495321
0.000495321
0.000495321
0.000495321
0.000514573
0.000530917
0.000528215
0.000517234
0.000530902
0.000514549
0.000517242
0.000514518
0.000514573
0.000528215
0.000517235
0.000530902
0.000517242
0.000514549
0.000530954
0.000530955
0.000514659
0.000514514
0.000514514
0.000470631
0.00048706
0.000487061
0.000470631
0.000487061
0.00047063
0.000470631
0.000487059
0.000487061
0.000470631
0.000484349
0.000484349
0.000484349
0.000451435
0.000451435
0.000451435
0.000451435
0.000470685
0.000487029
0.000484326
0.000473346
0.000487012
0.000470661
0.000473354
0.000487061
0.000470631
0.000470685
0.000484325
0.000487028
0.000473346
0.000487012
0.000473354
0.000470661
0.000487064
0.000487064
0.000470772
0.000470627
0.000470627
0.000426748
0.000443175
0.000443177
0.000426747
0.000443176
0.000426748
0.000426747
0.000443175
0.000443176
0.000426747
0.000440464
0.000440464
0.000440464
0.000407552
0.000407552
0.000407552
0.000407552
0.000426802
0.000443143
0.000440441
0.000429462
0.000443127
0.000426778
0.00042947
0.000443176
0.000426746
0.000426801
0.00044044
0.000443143
0.000429462
0.000443127
0.00042947
0.000426777
0.00044318
0.00044318
0.000426888
0.000426743
0.000426743
0.000382867
0.000399292
0.000399295
0.000382868
0.000399295
0.00038287
0.000382866
0.000399292
0.000399294
0.000382866
0.000396582
0.000396581
0.000396581
0.000363668
0.000363667
0.000363668
0.000363667
0.00038292
0.000399263
0.000396559
0.00038558
0.000399245
0.000382899
0.000385588
0.000399294
0.000382864
0.00038292
0.000396558
0.000399261
0.00038558
0.000399245
0.000385587
0.000382896
0.000399297
0.000399297
0.000383006
0.000382864
0.000382864
0.000338976
0.000355408
0.000355413
0.000338973
0.000355406
0.00033897
0.00033898
0.00035541
0.000355413
0.000338975
0.000352693
0.000352695
0.000352694
0.000319772
0.000319772
0.000319773
0.000319772
0.000339025
0.000355376
0.00035267
0.000341688
0.000355359
0.000339003
0.000341696
0.000355413
0.000338975
0.000339027
0.000352671
0.000355379
0.00034169
0.00035536
0.000341697
0.000339007
0.000355414
0.000355414
0.000339112
0.000338969
0.000338969
0.000295081
0.00031151
0.000311511
0.000295081
0.000311511
0.00029508
0.00029508
0.00031151
0.000311512
0.000295081
0.000308799
0.000308799
0.000308799
0.000275884
0.000275884
0.000275884
0.000275884
0.000295135
0.000311479
0.000308776
0.000297796
0.000311462
0.000295112
0.000297804
0.000311511
0.000295079
0.000295134
0.000308776
0.000311479
0.000297796
0.000311461
0.000297803
0.000295111
0.000311514
0.000311514
0.000295221
0.000295077
0.000295077
0.000251197
0.000267624
0.000267626
0.000251195
0.000267625
0.000251195
0.000251196
0.000267623
0.000267625
0.000251195
0.000264913
0.000264913
0.000264913
0.000231996
0.000231996
0.000231996
0.000231996
0.00025125
0.000267593
0.00026489
0.000253911
0.000267576
0.000251227
0.000253918
0.000267625
0.000251194
0.00025125
0.00026489
0.000267592
0.00025391
0.000267576
0.000253918
0.000251226
0.000267629
0.000267628
0.000251336
0.000251192
0.000251192
0.000207309
0.000223737
0.000223735
0.000207303
0.000223739
0.000207296
0.000207309
0.000223737
0.000223735
0.000207303
0.000221025
0.000221025
0.000221025
0.000188098
0.000188098
0.000188098
0.000188098
0.000207363
0.0002237
0.000221004
0.000210023
0.000223686
0.000207349
0.000210028
0.00022374
0.000207295
0.000207363
0.000221004
0.0002237
0.000210023
0.000223685
0.000210028
0.000207349
0.00022374
0.00022374
0.000207447
0.000207301
0.000207301
0.000163449
0.000179818
0.000179816
0.000163434
0.000179838
0.000163417
0.000163447
0.000179818
0.000179815
0.000163434
0.000177133
0.000177133
0.000177133
0.000144211
0.000144211
0.000144211
0.000144211
0.000163474
0.000179765
0.000177099
0.000166116
0.000179772
0.000163474
0.000166125
0.000179838
0.000163415
0.000163474
0.000177099
0.000179764
0.000166115
0.000179772
0.000166125
0.000163472
0.00017982
0.000179821
0.000163556
0.00016344
0.00016344
0.000119549
0.000135984
0.00013602
0.000119505
0.000136045
0.000119415
0.000119548
0.000135984
0.000136018
0.000119493
0.000133243
0.000133243
0.000133243
0.000100299
0.000100298
0.000100298
0.000100298
0.000119608
0.000135945
0.000133233
0.000122251
0.000135937
0.000119582
0.000122232
0.000136043
0.00011941
0.000119607
0.000133232
0.000135944
0.00012225
0.000135937
0.000122232
0.000119569
0.000135972
0.000135972
0.000119677
0.000119525
0.000119525
7.56125e-05
9.1973e-05
9.20664e-05
7.55475e-05
9.21564e-05
7.53688e-05
7.56105e-05
9.19722e-05
9.20649e-05
7.55459e-05
8.93489e-05
8.93482e-05
8.93482e-05
5.66634e-05
5.66642e-05
5.66614e-05
5.66614e-05
7.56654e-05
9.19313e-05
8.93283e-05
7.83503e-05
9.20035e-05
7.56619e-05
7.83538e-05
9.21513e-05
7.53721e-05
7.56643e-05
8.93274e-05
9.19295e-05
7.83484e-05
9.20028e-05
7.83528e-05
7.56594e-05
9.19557e-05
9.19577e-05
7.57759e-05
7.56142e-05
7.56136e-05
3.07645e-05
4.76054e-05
4.77748e-05
3.0027e-05
4.80439e-05
2.94221e-05
3.07507e-05
4.75968e-05
4.77683e-05
3.00203e-05
4.61313e-05
4.61281e-05
4.61278e-05
1.7683e-05
1.76821e-05
1.76795e-05
1.76791e-05
3.14164e-05
4.76045e-05
4.58373e-05
3.50313e-05
4.78803e-05
3.05996e-05
3.54299e-05
4.80277e-05
2.94298e-05
3.14166e-05
4.58344e-05
4.76028e-05
3.50285e-05
4.78801e-05
3.54273e-05
3.06015e-05
4.75294e-05
4.75284e-05
3.23633e-05
3.02794e-05
3.02764e-05
6.19423e-06
7.42246e-06
7.30895e-06
3.07925e-07
4.50828e-06
-2.84659e-06
6.21187e-06
7.40422e-06
7.29524e-06
3.12125e-07
2.98171e-06
1.05901e-05
1.05884e-05
3.38592e-06
1.08581e-05
3.06549e-06
3.06502e-06
5.29743e-06
7.55243e-06
9.97837e-06
3.55245e-06
9.04878e-06
4.58566e-06
3.2059e-06
4.47413e-06
-2.84057e-06
5.30276e-06
9.97794e-06
7.54799e-06
3.55201e-06
9.04902e-06
3.20645e-06
4.59509e-06
4.00288e-06
4.00047e-06
3.5682e-06
3.7562e-06
3.77036e-06
0.000536464
0.000536494
0.000536463
0.000536461
0.000536461
0.000536463
0.000536495
0.000536465
0.000530949
0.000514518
0.000514518
0.000530955
0.00051466
0.000514514
0.000514515
0.000492574
0.000509005
0.000492573
0.000509005
0.000508842
0.00049257
0.00049257
0.000509008
0.000509008
0.000514518
0.000530949
0.00053095
0.000514518
0.000514573
0.000530918
0.000528215
0.000517235
0.000530902
0.000514549
0.000517242
0.000514573
0.000530917
0.000528215
0.000517234
0.000530902
0.000514549
0.000517242
0.000509005
0.000492574
0.000509003
0.000492575
0.000509005
0.000492575
0.000509003
0.000492575
0.000508956
0.000506262
0.000492605
0.000495297
0.000508972
0.00050627
0.000492628
0.000508956
0.000506261
0.000492605
0.000495297
0.000508972
0.00050627
0.000492628
0.000530953
0.000530953
0.000514659
0.000514514
0.000514514
0.000530951
0.000514518
0.000492574
0.000509005
0.000508842
0.000492571
0.000492571
0.000509008
0.000509008
0.000492574
0.000509005
0.000514574
0.000517235
0.000514549
0.000517242
0.000514518
0.000514519
0.000514573
0.000517235
0.000517243
0.00051455
0.000509005
0.000492574
0.000509003
0.000492574
0.000508956
0.000506262
0.000492604
0.000495297
0.000508972
0.00050627
0.000492628
0.000509005
0.000492574
0.000509004
0.000492574
0.000508956
0.000506262
0.000495297
0.000492604
0.00050627
0.000508972
0.000492628
0.000514518
0.000530949
0.000530951
0.000514519
0.000514573
0.000528215
0.000530918
0.000517235
0.000530902
0.000517242
0.000514549
0.000514518
0.000530949
0.000530951
0.000514518
0.000508956
0.000506261
0.000492605
0.000495297
0.000508972
0.00050627
0.000492628
0.000509005
0.000492575
0.000509003
0.000492574
0.000508956
0.000506262
0.000495297
0.000492604
0.00050627
0.000508972
0.000492628
0.000509005
0.000492574
0.000509003
0.000492574
0.00051466
0.000514516
0.000514515
0.000514518
0.000492573
0.000509005
0.000508842
0.00049257
0.00049257
0.000509008
0.000509008
0.000492574
0.000509005
0.000514573
0.000528215
0.000530918
0.000517234
0.000530902
0.000517242
0.000514549
0.000514519
0.000530951
0.000514519
0.000514519
0.000530949
0.000530951
0.000514518
0.000508956
0.000506262
0.000495297
0.000492604
0.00050627
0.000508972
0.000492628
0.000508956
0.000506262
0.000495297
0.000492604
0.00050627
0.000508972
0.000492629
0.000509005
0.000492574
0.000509003
0.000492575
0.000509005
0.000492574
0.000509003
0.000492575
0.000530949
0.000514518
0.00053095
0.000514518
0.000508842
0.00049257
0.00049257
0.000509008
0.000509008
0.000492574
0.000509005
0.000492574
0.000509005
0.000487061
0.00047063
0.00048706
0.000470631
0.000487064
0.000487064
0.000470772
0.000470627
0.000470627
0.000448689
0.000465117
0.000448688
0.000465118
0.000464955
0.000448685
0.000448684
0.000465121
0.000465121
0.000470631
0.00048706
0.000487061
0.000470631
0.000470685
0.000487029
0.000484325
0.000473346
0.000487012
0.000470661
0.000473354
0.000470685
0.000487029
0.000484326
0.000473346
0.000487012
0.000470661
0.000473354
0.000465118
0.000448689
0.000465116
0.000448689
0.000465118
0.000448689
0.000465116
0.000448689
0.000465069
0.000462375
0.000448719
0.000451412
0.000465085
0.000462383
0.000448743
0.000465069
0.000462375
0.000448719
0.000451412
0.000465085
0.000462383
0.000448743
0.000487065
0.000487064
0.000470772
0.000470627
0.000470627
0.000487062
0.00047063
0.000448688
0.000465118
0.000464955
0.000448685
0.000448685
0.000465121
0.000465121
0.000448688
0.000465118
0.000470685
0.000487028
0.000484325
0.000473346
0.000487012
0.000470662
0.000473354
0.000470631
0.000487059
0.000487061
0.000470631
0.000470685
0.000484325
0.000487028
0.000473346
0.000487012
0.000473354
0.000470662
0.000465118
0.000448689
0.000465116
0.000448688
0.000465069
0.000462375
0.000448719
0.000451412
0.000465085
0.000462383
0.000448743
0.000465118
0.000448688
0.000465117
0.000448688
0.000465069
0.000462375
0.000451412
0.000448719
0.000462383
0.000465085
0.000448743
0.000470631
0.00048706
0.000487061
0.000470631
0.000470685
0.000484326
0.000487028
0.000473346
0.000487012
0.000473354
0.000470661
0.000470631
0.000487059
0.000487061
0.000470631
0.000465069
0.000462375
0.000448719
0.000451412
0.000465085
0.000462383
0.000448743
0.000465118
0.000448689
0.000465116
0.000448689
0.000465069
0.000462375
0.000451412
0.000448719
0.000462383
0.000465085
0.000448743
0.000465118
0.00044869
0.000465116
0.000448689
0.000487064
0.000487064
0.000470772
0.000470627
0.000470627
0.000487061
0.000470631
0.000448687
0.000465118
0.000464955
0.000448684
0.000448684
0.000465121
0.000465121
0.000448688
0.000465118
0.000470685
0.000484325
0.000487028
0.000473346
0.000487012
0.000473354
0.000470661
0.000470631
0.000487059
0.000487061
0.000470631
0.000470631
0.000487059
0.000487061
0.000470631
0.000465069
0.000462375
0.000451412
0.000448719
0.000462383
0.000465085
0.000448743
0.000465069
0.000462375
0.000451412
0.000448719
0.000462383
0.000465085
0.000448743
0.000465118
0.000448689
0.000465116
0.000448689
0.000465118
0.000448689
0.000465116
0.000448689
0.000487061
0.000470631
0.000487061
0.000470631
0.000464955
0.000448685
0.000448685
0.000465121
0.000465121
0.000448689
0.000465117
0.000448689
0.000465117
0.000443176
0.000426746
0.000443176
0.000426746
0.00044318
0.000443179
0.000426888
0.000426743
0.000426743
0.000404806
0.000421235
0.000404806
0.000421234
0.000421071
0.000404803
0.000404803
0.000421238
0.000421237
0.000426748
0.000443174
0.000443177
0.000426749
0.000426801
0.000443144
0.000440441
0.000429462
0.000443127
0.000426778
0.00042947
0.000426801
0.000443143
0.000440441
0.000429462
0.000443127
0.000426778
0.00042947
0.000421235
0.000404807
0.000421234
0.000404807
0.000421235
0.000404807
0.000421234
0.000404807
0.000421186
0.000418491
0.000404837
0.000407529
0.000421202
0.000418499
0.000404861
0.000421186
0.000418491
0.000404838
0.000407529
0.000421203
0.000418499
0.000404861
0.000443179
0.000443179
0.000426889
0.000426744
0.000426745
0.000443176
0.000426748
0.000404806
0.000421236
0.000421072
0.000404803
0.000404803
0.000421239
0.000421239
0.000404806
0.000421236
0.000426801
0.000443143
0.000440441
0.000429462
0.000443127
0.000426777
0.00042947
0.000426747
0.000443174
0.000443176
0.000426747
0.000426801
0.000440441
0.000443143
0.000429462
0.000443127
0.000429469
0.000426777
0.000421235
0.000404807
0.000421233
0.000404806
0.000421185
0.000418491
0.000404837
0.000407528
0.000421202
0.000418499
0.00040486
0.000421235
0.000404807
0.000421232
0.000404806
0.000421185
0.000418491
0.000407528
0.000404837
0.000418499
0.000421201
0.00040486
0.000426748
0.000443174
0.000443177
0.000426749
0.000426802
0.000440441
0.000443144
0.000429462
0.000443127
0.00042947
0.000426778
0.000426748
0.000443175
0.000443177
0.000426747
0.000421186
0.000418492
0.000404838
0.000407529
0.000421203
0.000418499
0.000404861
0.000421235
0.000404807
0.000421234
0.000404807
0.000421186
0.000418491
0.000407529
0.000404837
0.000418499
0.000421203
0.000404861
0.000421235
0.000404807
0.000421234
0.000404807
0.000443179
0.000443179
0.000426887
0.000426743
0.000426743
0.000443176
0.000426746
0.000404806
0.000421234
0.000421071
0.000404803
0.000404803
0.000421237
0.000421237
0.000404807
0.000421234
0.000426801
0.000440441
0.000443144
0.000429462
0.000443127
0.00042947
0.000426777
0.000426748
0.000443174
0.000443176
0.000426747
0.000426748
0.000443175
0.000443176
0.000426747
0.000421185
0.000418491
0.000407528
0.000404837
0.000418499
0.000421202
0.00040486
0.000421185
0.000418491
0.000407528
0.000404837
0.000418499
0.000421202
0.000404861
0.000421235
0.000404807
0.000421232
0.000404807
0.000421235
0.000404807
0.000421234
0.000404807
0.000443176
0.000426747
0.000443176
0.000426746
0.000421071
0.000404803
0.000404803
0.000421238
0.000421238
0.000404806
0.000421235
0.000404806
0.000421235
0.000399293
0.000382867
0.000399294
0.000382865
0.000399297
0.000399297
0.000383006
0.000382863
0.000382862
0.000360925
0.000377357
0.000360926
0.000377353
0.000377189
0.000360923
0.000360923
0.00037736
0.000377357
0.000382867
0.000399294
0.000399295
0.000382871
0.00038292
0.000399261
0.000396559
0.00038558
0.000399245
0.000382897
0.000385588
0.00038292
0.000399263
0.000396559
0.00038558
0.000399245
0.000382899
0.000385588
0.000377355
0.000360925
0.000377355
0.000360926
0.000377355
0.000360923
0.000377356
0.000360926
0.000377305
0.000374608
0.000360955
0.000363643
0.000377322
0.000374616
0.000360977
0.000377305
0.000374608
0.000360954
0.000363643
0.000377324
0.000374616
0.000360976
0.000399298
0.000399298
0.000383007
0.000382867
0.000382867
0.000399295
0.00038287
0.000360921
0.000377357
0.000377189
0.00036092
0.00036092
0.000377361
0.000377361
0.000360921
0.000377358
0.000382919
0.000399261
0.000396558
0.00038558
0.000399244
0.000382897
0.000385587
0.000382866
0.000399292
0.000399294
0.000382865
0.000382919
0.000396558
0.000399261
0.00038558
0.000399244
0.000385587
0.000382896
0.000377353
0.000360926
0.000377353
0.000360925
0.000377303
0.000374608
0.000360955
0.000363644
0.000377321
0.000374616
0.000360977
0.000377353
0.000360927
0.000377352
0.000360925
0.000377303
0.000374608
0.000363644
0.000360956
0.000374616
0.00037732
0.000360977
0.000382867
0.000399294
0.000399295
0.000382871
0.00038292
0.000396559
0.000399262
0.00038558
0.000399245
0.000385588
0.000382898
0.000382867
0.000399292
0.000399295
0.000382868
0.000377305
0.000374608
0.000360954
0.000363643
0.000377323
0.000374616
0.000360976
0.000377355
0.000360923
0.000377356
0.000360926
0.000377304
0.000374608
0.000363643
0.000360955
0.000374616
0.000377322
0.000360977
0.000377355
0.000360925
0.000377355
0.000360926
0.000399297
0.000399298
0.000383005
0.000382861
0.000382861
0.000399294
0.000382864
0.000360926
0.000377353
0.000377189
0.000360924
0.000360924
0.000377355
0.000377356
0.000360927
0.000377353
0.00038292
0.000396558
0.000399261
0.00038558
0.000399245
0.000385588
0.000382898
0.000382866
0.000399293
0.000399294
0.000382866
0.000382867
0.000399292
0.000399294
0.000382868
0.000377304
0.000374608
0.000363644
0.000360955
0.000374616
0.000377321
0.000360977
0.000377304
0.000374608
0.000363644
0.000360955
0.000374616
0.000377323
0.000360977
0.000377354
0.000360926
0.000377352
0.000360927
0.000377354
0.000360925
0.000377355
0.000360927
0.000399294
0.000382867
0.000399293
0.000382867
0.000377189
0.000360922
0.000360923
0.00037736
0.00037736
0.000360925
0.000377357
0.000360925
0.000377357
0.000355409
0.000338971
0.000355412
0.000338974
0.000355415
0.000355417
0.000339113
0.000338969
0.000338972
0.000317024
0.000333457
0.000317024
0.000333458
0.000333295
0.000317021
0.000317021
0.000333462
0.000333463
0.000338975
0.000355405
0.000355412
0.000338972
0.000339026
0.000355378
0.00035267
0.000341689
0.000355359
0.000339005
0.000341696
0.000339025
0.000355376
0.00035267
0.000341688
0.000355359
0.000339003
0.000341696
0.00033346
0.000317025
0.000333456
0.000317025
0.00033346
0.000317025
0.000333455
0.000317025
0.000333408
0.000330715
0.000317055
0.000319748
0.000333426
0.000330722
0.000317078
0.000333408
0.000330714
0.000317055
0.000319748
0.000333425
0.000330722
0.000317078
0.000355411
0.000355411
0.000339111
0.000338968
0.000338968
0.000355406
0.00033897
0.000317024
0.000333456
0.000333293
0.000317021
0.000317021
0.00033346
0.00033346
0.000317024
0.000333457
0.000339029
0.000355378
0.000352671
0.00034169
0.00035536
0.000339007
0.000341697
0.00033898
0.000355411
0.000355412
0.000338977
0.000339029
0.000352671
0.000355379
0.00034169
0.000355361
0.000341698
0.000339008
0.000333465
0.000317025
0.000333458
0.000317026
0.00033341
0.000330715
0.000317056
0.000319749
0.000333428
0.000330723
0.000317078
0.000333465
0.000317025
0.000333459
0.000317026
0.000333411
0.000330716
0.000319749
0.000317057
0.000330723
0.000333429
0.000317078
0.000338975
0.000355405
0.000355412
0.000338972
0.000339026
0.00035267
0.000355377
0.000341689
0.000355359
0.000341696
0.000339004
0.000338975
0.000355408
0.000355412
0.000338972
0.000333407
0.000330714
0.000317055
0.000319748
0.000333425
0.000330722
0.000317078
0.00033346
0.000317025
0.000333455
0.000317025
0.000333407
0.000330714
0.000319748
0.000317055
0.000330722
0.000333426
0.000317078
0.00033346
0.000317025
0.000333456
0.000317025
0.000355417
0.000355417
0.000339114
0.000338973
0.000338972
0.000355413
0.000338974
0.000317024
0.000333459
0.000333296
0.000317021
0.000317021
0.000333464
0.000333463
0.000317023
0.000333458
0.000339027
0.000352671
0.000355378
0.000341689
0.000355359
0.000341697
0.000339004
0.000338977
0.000355411
0.000355413
0.000338976
0.000338977
0.000355408
0.000355413
0.000338973
0.000333408
0.000330716
0.000319748
0.000317056
0.000330722
0.000333429
0.000317078
0.000333408
0.000330714
0.000319748
0.000317055
0.000330722
0.000333426
0.000317078
0.000333461
0.000317025
0.000333458
0.000317025
0.00033346
0.000317025
0.000333456
0.000317025
0.000355409
0.000338971
0.000355409
0.000338971
0.000333294
0.00031702
0.00031702
0.000333461
0.000333461
0.000317024
0.000333456
0.000317024
0.000333456
0.000311511
0.00029508
0.000311511
0.00029508
0.000311514
0.000311514
0.000295221
0.000295077
0.000295076
0.000273138
0.000289567
0.000273137
0.000289567
0.000289404
0.000273134
0.000273134
0.000289571
0.000289571
0.000295081
0.00031151
0.000311511
0.000295081
0.000295134
0.000311479
0.000308776
0.000297796
0.000311462
0.000295111
0.000297804
0.000295135
0.000311479
0.000308776
0.000297796
0.000311462
0.000295111
0.000297804
0.000289568
0.000273138
0.000289566
0.000273139
0.000289568
0.000273139
0.000289567
0.000273139
0.000289518
0.000286824
0.000273169
0.000275861
0.000289535
0.000286832
0.000273192
0.000289519
0.000286825
0.000273169
0.000275861
0.000289535
0.000286832
0.000273192
0.000311514
0.000311514
0.000295222
0.000295077
0.000295077
0.000311511
0.00029508
0.000273138
0.000289568
0.000289404
0.000273135
0.000273135
0.000289571
0.000289571
0.000273138
0.000289568
0.000295134
0.000311479
0.000308776
0.000297796
0.000311461
0.000295111
0.000297803
0.00029508
0.000311509
0.000311512
0.00029508
0.000295134
0.000308776
0.000311479
0.000297795
0.000311461
0.000297803
0.000295111
0.000289568
0.000273138
0.000289566
0.000273138
0.000289518
0.000286824
0.000273169
0.00027586
0.000289535
0.000286832
0.000273192
0.000289567
0.000273138
0.000289566
0.000273138
0.000289518
0.000286824
0.00027586
0.000273168
0.000286832
0.000289534
0.000273191
0.000295081
0.00031151
0.000311511
0.000295082
0.000295135
0.000308776
0.000311478
0.000297796
0.000311461
0.000297804
0.000295111
0.000295081
0.000311509
0.000311511
0.000295081
0.000289519
0.000286825
0.000273169
0.000275861
0.000289535
0.000286832
0.000273192
0.000289568
0.000273139
0.000289567
0.000273139
0.000289518
0.000286825
0.000275861
0.000273169
0.000286832
0.000289535
0.000273192
0.000289568
0.000273139
0.000289566
0.000273139
0.000311514
0.000311514
0.00029522
0.000295076
0.000295076
0.00031151
0.00029508
0.000273137
0.000289567
0.000289404
0.000273134
0.000273134
0.00028957
0.000289571
0.000273137
0.000289567
0.000295135
0.000308776
0.000311479
0.000297796
0.000311461
0.000297804
0.000295111
0.000295081
0.000311509
0.000311511
0.000295081
0.000295081
0.00031151
0.000311511
0.000295081
0.000289518
0.000286824
0.00027586
0.000273168
0.000286832
0.000289535
0.000273192
0.000289518
0.000286824
0.000275861
0.000273169
0.000286832
0.000289535
0.000273192
0.000289568
0.000273138
0.000289566
0.000273139
0.000289568
0.000273138
0.000289566
0.000273139
0.00031151
0.00029508
0.000311511
0.00029508
0.000289404
0.000273134
0.000273134
0.000289571
0.000289571
0.000273138
0.000289567
0.000273138
0.000289567
0.000267625
0.000251195
0.000267625
0.000251194
0.000267628
0.000267628
0.000251336
0.000251192
0.000251192
0.000229249
0.000245682
0.000229249
0.000245682
0.000245519
0.000229247
0.000229247
0.000245685
0.000245685
0.000251197
0.000267624
0.000267626
0.000251196
0.00025125
0.000267593
0.00026489
0.000253911
0.000267576
0.000251226
0.000253918
0.00025125
0.000267593
0.00026489
0.000253911
0.000267576
0.000251227
0.000253918
0.000245682
0.00022925
0.00024568
0.000229253
0.000245682
0.00022925
0.000245681
0.000229253
0.000245632
0.00024294
0.000229285
0.000231974
0.000245649
0.000242947
0.000229306
0.000245632
0.00024294
0.000229285
0.000231974
0.000245649
0.000242947
0.000229306
0.000267629
0.000267628
0.000251336
0.000251192
0.000251192
0.000267625
0.000251195
0.000229249
0.000245682
0.000245519
0.000229248
0.000229248
0.000245685
0.000245685
0.000229249
0.000245682
0.000251249
0.000267592
0.000264889
0.00025391
0.000267575
0.000251226
0.000253918
0.000251196
0.000267623
0.000267625
0.000251195
0.000251249
0.000264889
0.000267592
0.00025391
0.000267575
0.000253918
0.000251226
0.000245682
0.00022925
0.00024568
0.000229253
0.000245632
0.00024294
0.000229285
0.000231974
0.000245648
0.000242947
0.000229306
0.000245682
0.00022925
0.00024568
0.000229253
0.000245632
0.00024294
0.000231974
0.000229285
0.000242947
0.000245648
0.000229306
0.000251197
0.000267624
0.000267626
0.000251196
0.00025125
0.00026489
0.000267593
0.000253911
0.000267576
0.000253918
0.000251227
0.000251197
0.000267624
0.000267626
0.000251196
0.000245632
0.00024294
0.000229285
0.000231974
0.000245649
0.000242947
0.000229306
0.000245682
0.00022925
0.000245681
0.000229253
0.000245632
0.00024294
0.000231974
0.000229285
0.000242947
0.000245649
0.000229307
0.000245682
0.00022925
0.000245681
0.000229253
0.000267628
0.000267628
0.000251336
0.000251192
0.000251192
0.000267625
0.000251195
0.000229248
0.000245682
0.000245519
0.000229248
0.000229247
0.000245685
0.000245685
0.000229249
0.000245682
0.00025125
0.00026489
0.000267593
0.000253911
0.000267575
0.000253918
0.000251226
0.000251196
0.000267623
0.000267625
0.000251195
0.000251197
0.000267624
0.000267625
0.000251195
0.000245632
0.00024294
0.000231974
0.000229285
0.000242947
0.000245649
0.000229306
0.000245632
0.00024294
0.000231974
0.000229285
0.000242947
0.000245649
0.000229306
0.000245682
0.00022925
0.00024568
0.000229253
0.000245682
0.00022925
0.00024568
0.000229253
0.000267625
0.000251195
0.000267625
0.000251195
0.000245519
0.000229248
0.000229248
0.000245685
0.000245685
0.000229249
0.000245682
0.000229249
0.000245682
0.000223739
0.000207296
0.000223739
0.000207296
0.00022374
0.00022374
0.000207447
0.000207301
0.000207301
0.000185351
0.0002018
0.000185351
0.000201798
0.000201622
0.000185367
0.000185366
0.000201789
0.00020179
0.000207309
0.000223737
0.000223735
0.000207303
0.000207363
0.0002237
0.000221004
0.000210023
0.000223686
0.000207349
0.000210028
0.000207363
0.0002237
0.000221004
0.000210023
0.000223686
0.000207349
0.000210028
0.000201783
0.00018537
0.000201787
0.000185376
0.000201783
0.000185369
0.000201786
0.000185376
0.000201732
0.000199048
0.000185426
0.000188073
0.000201737
0.000199055
0.000185426
0.000201732
0.000199048
0.000185425
0.000188073
0.000201737
0.000199055
0.000185426
0.00022374
0.00022374
0.000207447
0.000207301
0.000207301
0.00022374
0.000207296
0.000185351
0.000201796
0.000201622
0.000185366
0.000185367
0.00020179
0.00020179
0.00018535
0.000201797
0.000207363
0.0002237
0.000221004
0.000210023
0.000223685
0.000207349
0.000210028
0.000207309
0.000223737
0.000223735
0.000207302
0.000207363
0.000221004
0.0002237
0.000210023
0.000223686
0.000210028
0.000207349
0.000201783
0.00018537
0.000201786
0.000185376
0.000201732
0.000199048
0.000185425
0.000188072
0.000201736
0.000199055
0.000185426
0.000201783
0.000185369
0.000201786
0.000185376
0.000201732
0.000199048
0.000188072
0.000185424
0.000199055
0.000201737
0.000185425
0.000207309
0.000223737
0.000223735
0.000207303
0.000207363
0.000221004
0.0002237
0.000210023
0.000223686
0.000210028
0.000207349
0.000207309
0.000223737