/*--------------------------------*- C++ -*----------------------------------*\
| =========                 |                                                 |
| \\      /  F ield         | OpenFOAM: The Open Source CFD Toolbox           |
|  \\    /   O peration     | Version:  2206                                  |
|   \\  /    A nd           | Website:  www.openfoam.com                      |
|    \\/     M anipulation  |                                                 |
\*---------------------------------------------------------------------------*/
FoamFile
{
    version     2.0;
    format      ascii;
    arch        "LSB;label=32;scalar=64";
    class       surfaceScalarField;
    location    "0.5";
    object      phi;
}
// * * * * * * * * * * * * * * * * * * * * * * * * * * * * * * * * * * * * * //

dimensions      [0 3 -1 0 0 0 0];

oriented        oriented;

internalField   nonuniform List<scalar> 
83612
(
4.09567e-07
4.08866e-07
-4.99108e-06
-4.09704e-07
-4.12116e-07
4.99447e-06
-4.29276e-06
1.46291e-05
-4.01214e-07
9.79817e-07
4.29781e-06
1.32339e-05
-1.50382e-05
-1.2553e-05
-1.72951e-05
1.59063e-05
1.68015e-05
-1.62681e-05
-4.29632e-06
1.46311e-05
-4.06031e-07
9.771e-07
4.29836e-06
1.32331e-05
-1.50377e-05
-1.25495e-05
-1.72894e-05
1.59037e-05
1.67983e-05
-1.62627e-05
1.17104e-07
-1.46173e-05
-1.46304e-05
1.37482e-05
1.37745e-05
1.60792e-06
4.17672e-07
4.03395e-07
-5.01244e-06
-4.08859e-07
-4.16554e-07
5.01679e-06
-4.31662e-06
1.46264e-05
-4.07736e-07
9.80614e-07
4.32154e-06
1.32301e-05
-1.50339e-05
-1.25483e-05
-1.72889e-05
1.59024e-05
1.6797e-05
-1.62626e-05
-4.31183e-06
1.46278e-05
-4.16429e-07
9.82701e-07
4.31498e-06
1.32308e-05
-1.5033e-05
-1.25445e-05
-1.72866e-05
1.59006e-05
1.67962e-05
-1.62608e-05
1.24992e-07
-1.46168e-05
-1.46304e-05
1.37477e-05
1.37742e-05
1.60022e-06
4.08862e-07
4.17396e-07
-5.02872e-06
-4.13948e-07
-4.14814e-07
5.03123e-06
-4.32925e-06
1.4628e-05
-4.22007e-07
9.75454e-07
4.32846e-06
1.32331e-05
-1.50286e-05
-1.25418e-05
-1.72867e-05
1.59041e-05
1.67991e-05
-1.62599e-05
-4.33025e-06
1.46252e-05
-4.12556e-07
9.8057e-07
4.33278e-06
1.32275e-05
-1.50309e-05
-1.25428e-05
-1.72834e-05
1.58979e-05
1.67931e-05
-1.6257e-05
1.28312e-07
-1.46154e-05
-1.4629e-05
1.37464e-05
1.37727e-05
1.59684e-06
4.09213e-07
4.22733e-07
-5.02264e-06
-4.15438e-07
-4.14209e-07
5.02035e-06
-4.32678e-06
1.46274e-05
-4.20465e-07
9.79421e-07
4.32717e-06
1.32331e-05
-1.50316e-05
-1.25442e-05
-1.72879e-05
1.5905e-05
1.68002e-05
-1.62613e-05
-4.32762e-06
1.46313e-05
-4.2416e-07
9.73985e-07
4.32314e-06
1.32348e-05
-1.50314e-05
-1.25411e-05
-1.72843e-05
1.59039e-05
1.67991e-05
-1.62575e-05
1.27784e-07
-1.46174e-05
-1.46308e-05
1.3748e-05
1.3774e-05
1.59845e-06
4.1997e-07
4.11777e-07
-5.00609e-06
-4.10959e-07
-4.16195e-07
5.00149e-06
-4.312e-06
1.46316e-05
-4.19337e-07
9.74691e-07
4.30751e-06
1.32382e-05
-1.50337e-05
-1.25459e-05
-1.72903e-05
1.59084e-05
1.68036e-05
-1.62627e-05
-4.31013e-06
1.46302e-05
-4.23737e-07
9.80208e-07
4.30764e-06
1.32356e-05
-1.50326e-05
-1.25429e-05
-1.72882e-05
1.59043e-05
1.68015e-05
-1.62618e-05
1.20995e-07
-1.4621e-05
-1.46342e-05
1.37496e-05
1.37762e-05
1.60835e-06
4.11184e-07
4.14749e-07
-4.99552e-06
-4.11753e-07
-4.14837e-07
4.99617e-06
-4.29965e-06
1.4631e-05
-4.2035e-07
9.74841e-07
4.29733e-06
1.3238e-05
-1.5035e-05
-1.25475e-05
-1.72903e-05
1.59099e-05
1.68047e-05
-1.6263e-05
-4.29748e-06
1.46329e-05
-4.14132e-07
9.76217e-07
4.29393e-06
1.32364e-05
-1.5037e-05
-1.25482e-05
-1.72884e-05
1.5906e-05
1.68012e-05
-1.62615e-05
1.16101e-07
-1.46215e-05
-1.46346e-05
1.37501e-05
1.37769e-05
1.61294e-06
4.1524e-07
4.06197e-07
-5.00166e-06
-4.09844e-07
-4.1687e-07
5.00694e-06
-4.30617e-06
1.46287e-05
-4.08453e-07
9.76411e-07
4.30891e-06
1.32335e-05
-1.50363e-05
-1.25497e-05
-1.72901e-05
1.59062e-05
1.68001e-05
-1.62633e-05
-4.30497e-06
1.46267e-05
-4.06348e-07
9.83733e-07
4.31143e-06
1.32281e-05
-1.50351e-05
-1.25471e-05
-1.72878e-05
1.58991e-05
1.67943e-05
-1.6262e-05
1.22258e-07
-1.46167e-05
-1.46298e-05
1.37475e-05
1.37744e-05
1.60233e-06
4.12797e-07
4.14017e-07
-5.01234e-06
-4.1243e-07
-4.14966e-07
5.01292e-06
-4.31816e-06
1.463e-05
-4.12789e-07
9.76944e-07
4.31976e-06
1.32337e-05
-1.50343e-05
-1.25472e-05
-1.72901e-05
1.59053e-05
1.67995e-05
-1.62627e-05
-4.31896e-06
1.46311e-05
-4.18486e-07
9.76921e-07
4.31779e-06
1.32331e-05
-1.50336e-05
-1.2544e-05
-1.72858e-05
1.59027e-05
1.67979e-05
-1.62588e-05
1.26387e-07
-1.46185e-05
-1.46319e-05
1.37486e-05
1.37749e-05
1.60059e-06
4.13425e-07
4.14904e-07
-5.01072e-06
-4.12459e-07
-4.13639e-07
5.00849e-06
-4.31605e-06
1.46295e-05
-4.17872e-07
9.78416e-07
4.31296e-06
1.32355e-05
-1.50323e-05
-1.25456e-05
-1.72895e-05
1.59063e-05
1.68013e-05
-1.62626e-05
-4.31568e-06
1.46302e-05
-4.21792e-07
9.77148e-07
4.313e-06
1.32345e-05
-1.50321e-05
-1.25427e-05
-1.72862e-05
1.5904e-05
1.6799e-05
-1.62594e-05
1.23156e-07
-1.46195e-05
-1.46332e-05
1.37498e-05
1.37756e-05
1.6041e-06
4.30344e-07
4.32193e-07
-5.01431e-06
-4.3029e-07
-4.3331e-07
5.01537e-06
-4.31627e-06
1.46324e-05
-4.41276e-07
9.6856e-07
4.31936e-06
1.32397e-05
-1.50285e-05
-1.25406e-05
-1.72871e-05
1.59095e-05
1.68032e-05
-1.6259e-05
-4.31152e-06
1.46329e-05
-4.3533e-07
9.7038e-07
4.31522e-06
1.32383e-05
-1.50308e-05
-1.25418e-05
-1.72858e-05
1.59066e-05
1.68e-05
-1.62581e-05
1.21446e-07
-1.46227e-05
-1.46359e-05
1.37518e-05
1.37794e-05
1.60598e-06
-8.31664e-08
-6.63352e-08
-5.295e-06
-1.5903e-07
-1.53724e-07
5.75726e-06
-4.23488e-06
1.47409e-05
6.73845e-08
1.24728e-06
2.98041e-06
1.3381e-05
-1.50731e-05
-1.24959e-05
-1.73322e-05
1.60245e-05
1.68921e-05
-1.61975e-05
-4.2229e-06
1.47481e-05
7.46605e-08
1.18535e-06
2.97693e-06
1.33859e-05
-1.50641e-05
-1.24865e-05
-1.73229e-05
1.60225e-05
1.68947e-05
-1.61918e-05
9.53878e-08
-1.47252e-05
-1.47533e-05
1.38312e-05
1.38526e-05
1.6993e-06
3.12049e-06
3.11944e-06
1.25698e-05
2.76143e-05
2.7608e-05
9.28184e-06
7.82027e-06
8.55638e-06
8.55629e-06
5.03895e-06
-2.93498e-05
-2.98108e-05
5.03822e-06
-2.9352e-05
-2.98114e-05
-1.29121e-05
1.93402e-06
-3.1207e-06
8.93963e-06
-8.41558e-06
1.35747e-05
-1.29109e-05
-3.11938e-06
1.93279e-06
-8.41453e-06
8.93795e-06
1.3574e-05
-1.77854e-06
-1.93764e-06
-1.93877e-06
3.38914e-06
3.39319e-06
-1.12737e-06
1.50219e-05
1.50349e-05
-1.21781e-07
-1.60631e-06
-1.41523e-05
-1.41763e-05
4.30255e-06
-4.11328e-07
-4.30567e-06
9.78577e-07
1.46194e-05
-1.25452e-05
1.32345e-05
1.67989e-05
-1.62631e-05
1.59031e-05
-1.72899e-05
-1.50234e-05
4.30091e-06
-4.15776e-07
-4.30183e-06
9.7622e-07
1.46212e-05
-1.2535e-05
1.32235e-05
1.68057e-05
-1.62697e-05
1.59119e-05
-1.72937e-05
1.50377e-05
-1.20432e-07
-1.60692e-06
-1.41774e-05
-1.41563e-05
4.29824e-06
-4.1334e-07
-4.30183e-06
9.77473e-07
1.46322e-05
-1.25348e-05
1.32221e-05
1.68066e-05
-1.62693e-05
1.59122e-05
-1.72947e-05
-1.50239e-05
4.30324e-06
-4.18707e-07
-4.30349e-06
9.75599e-07
1.46221e-05
-1.25327e-05
1.32227e-05
1.6802e-05
-1.62654e-05
1.59086e-05
-1.729e-05
-4.06949e-07
-4.29238e-06
9.76056e-07
1.46311e-05
-1.2552e-05
1.32376e-05
1.68047e-05
-1.62676e-05
-1.72947e-05
1.59091e-05
-1.5025e-05
4.29881e-06
-4.10844e-07
-4.29739e-06
9.83387e-07
1.4619e-05
-1.25479e-05
1.32345e-05
1.67997e-05
-1.62659e-05
1.59033e-05
-1.72916e-05
1.50385e-05
-1.18969e-07
-1.6093e-06
-1.41779e-05
-1.41562e-05
-4.07251e-07
-4.29584e-06
9.75261e-07
1.46324e-05
-1.25498e-05
1.32347e-05
1.67992e-05
-1.62626e-05
-1.72894e-05
1.59054e-05
-1.50399e-05
4.29631e-06
-4.01692e-07
-4.29398e-06
9.83419e-07
1.46321e-05
-1.254e-05
1.32203e-05
1.68038e-05
-1.62735e-05
1.59101e-05
-1.72971e-05
-1.61137e-06
-1.41568e-05
-1.41796e-05
-1.46185e-05
-1.46312e-05
1.37484e-05
1.3775e-05
1.60449e-06
1.50205e-05
1.50368e-05
-1.2643e-07
-1.59976e-06
-1.41549e-05
-1.41762e-05
9.78887e-07
4.30372e-06
1.32338e-05
-1.50217e-05
-1.25469e-05
-1.72906e-05
1.59025e-05
1.67983e-05
-1.62645e-05
1.46188e-05
-4.12711e-07
9.80593e-07
4.3047e-06
1.32209e-05
-1.50228e-05
-1.25351e-05
-1.7295e-05
1.59094e-05
1.68036e-05
-1.62715e-05
4.31993e-06
-4.17697e-07
-4.31638e-06
9.80434e-07
1.46169e-05
-1.2544e-05
1.3232e-05
1.67958e-05
-1.62605e-05
1.59006e-05
-1.72866e-05
-1.5021e-05
4.32324e-06
-4.12152e-07
-4.31794e-06
9.81929e-07
1.46166e-05
-1.25335e-05
1.3217e-05
1.68001e-05
-1.62687e-05
1.59065e-05
-1.72921e-05
1.37709e-05
1.37524e-05
1.60414e-06
1.50346e-05
-1.29432e-07
-1.59519e-06
-1.4176e-05
-1.41549e-05
9.79115e-07
4.29911e-06
1.32208e-05
-1.50357e-05
-1.25375e-05
-1.72957e-05
1.59111e-05
1.68056e-05
-1.6271e-05
1.46209e-05
-4.15994e-07
9.77902e-07
4.3052e-06
1.3221e-05
-1.50236e-05
-1.25333e-05
-1.72908e-05
1.59074e-05
1.68009e-05
-1.62664e-05
4.31498e-06
-4.02762e-07
-4.31057e-06
9.79568e-07
1.46294e-05
-1.25377e-05
1.32167e-05
1.68008e-05
-1.62687e-05
1.59086e-05
-1.72936e-05
-1.50248e-05
4.31671e-06
-4.04377e-07
-4.31347e-06
9.81375e-07
1.46182e-05
-1.25357e-05
1.32156e-05
1.67962e-05
-1.62647e-05
1.59036e-05
-1.72887e-05
-4.04947e-07
9.84821e-07
4.30454e-06
1.32312e-05
-1.50251e-05
-1.25489e-05
-1.72923e-05
1.59007e-05
-1.6266e-05
1.67973e-05
-4.03854e-07
-4.31163e-06
9.81525e-07
1.4626e-05
-1.25497e-05
1.32299e-05
1.67974e-05
-1.6264e-05
-1.72903e-05
1.59025e-05
-1.50225e-05
4.32036e-06
-4.07671e-07
-4.31702e-06
9.82423e-07
1.4616e-05
-1.25458e-05
1.32292e-05
1.67934e-05
-1.62603e-05
1.58985e-05
-1.72865e-05
1.37721e-05
1.37533e-05
1.60756e-06
1.50329e-05
-1.24833e-07
-1.60129e-06
-1.41734e-05
-1.41582e-05
-4.02324e-07
9.85146e-07
4.30109e-06
1.32186e-05
-1.50386e-05
-1.2539e-05
-1.72968e-05
1.59085e-05
-1.62732e-05
1.68025e-05
-4.13637e-07
-4.30871e-06
9.81068e-07
1.46284e-05
-1.25451e-05
1.32308e-05
1.6796e-05
-1.62612e-05
-1.72877e-05
1.59011e-05
-1.50349e-05
4.31621e-06
-4.12031e-07
-4.3136e-06
9.81429e-07
1.46298e-05
-1.25343e-05
1.32175e-05
1.68013e-05
-1.62677e-05
1.59078e-05
-1.72915e-05
-1.60145e-06
-1.4153e-05
-1.41779e-05
-1.4616e-05
-1.46288e-05
1.37465e-05
1.37737e-05
1.59817e-06
1.50199e-05
1.50306e-05
-1.30076e-07
-1.5946e-06
-1.41502e-05
-1.41756e-05
9.80583e-07
4.32393e-06
1.32316e-05
-1.50199e-05
-1.25436e-05
-1.72863e-05
1.59e-05
1.67956e-05
-1.62603e-05
1.46168e-05
-4.11355e-07
9.80743e-07
4.32876e-06
1.32166e-05
-1.50205e-05
-1.2533e-05
-1.72917e-05
1.5906e-05
1.67991e-05
-1.62683e-05
4.33223e-06
-4.13742e-07
-4.33191e-06
9.8103e-07
1.46155e-05
-1.25443e-05
1.32295e-05
1.67941e-05
-1.62577e-05
1.58993e-05
-1.72842e-05
-1.50206e-05
4.33518e-06
-4.13051e-07
-4.33443e-06
9.78177e-07
1.46168e-05
-1.25322e-05
1.32163e-05
1.67996e-05
-1.62639e-05
1.59067e-05
-1.72885e-05
1.37693e-05
1.37508e-05
1.5936e-06
1.50295e-05
-1.31992e-07
-1.59224e-06
-1.41712e-05
-1.41547e-05
9.78321e-07
4.31921e-06
1.32164e-05
-1.50362e-05
-1.25372e-05
-1.72921e-05
1.59081e-05
1.68001e-05
-1.62672e-05
1.46179e-05
-3.97319e-07
9.82727e-07
4.32154e-06
1.32143e-05
-1.50253e-05
-1.25366e-05
-1.72897e-05
1.59015e-05
1.67935e-05
-1.62658e-05
4.33156e-06
-4.11432e-07
-4.32987e-06
9.75379e-07
1.46292e-05
-1.25316e-05
1.32162e-05
1.67992e-05
-1.62651e-05
1.59069e-05
-1.72899e-05
-1.50203e-05
4.33799e-06
-4.0682e-07
-4.33317e-06
9.8345e-07
1.4615e-05
-1.25312e-05
1.32123e-05
1.67926e-05
-1.62631e-05
1.59e-05
-1.72867e-05
-4.08481e-07
9.82335e-07
4.32386e-06
1.32295e-05
-1.50226e-05
-1.25458e-05
-1.72866e-05
1.58987e-05
-1.62606e-05
1.67932e-05
-4.17732e-07
-4.32772e-06
9.76065e-07
1.46272e-05
-1.25429e-05
1.32316e-05
1.67983e-05
-1.62603e-05
-1.72874e-05
1.59033e-05
-1.50189e-05
4.33418e-06
-4.14687e-07
-4.33154e-06
9.83578e-07
1.46148e-05
-1.25417e-05
1.32281e-05
1.6793e-05
-1.62587e-05
1.58972e-05
-1.72852e-05
1.377e-05
1.37516e-05
1.5992e-06
1.50312e-05
-1.31815e-07
-1.59169e-06
-1.41729e-05
-1.4155e-05
-4.11731e-07
9.80178e-07
4.31893e-06
1.32182e-05
-1.50354e-05
-1.25349e-05
-1.72916e-05
1.59088e-05
-1.6268e-05
1.68014e-05
-4.10519e-07
-4.32458e-06
9.8268e-07
1.46244e-05
-1.25439e-05
1.32267e-05
1.67925e-05
-1.62584e-05
-1.72856e-05
1.58977e-05
-1.50335e-05
4.33075e-06
-4.05172e-07
-4.32768e-06
9.80049e-07
1.46283e-05
-1.25334e-05
1.32147e-05
1.67982e-05
-1.62663e-05
1.59052e-05
-1.72913e-05
-1.5974e-06
-1.4152e-05
-1.41747e-05
-1.46151e-05
-1.46288e-05
1.37472e-05
1.3773e-05
1.59362e-06
1.50221e-05
1.5031e-05
-1.27808e-07
-1.59756e-06
-1.41498e-05
-1.41779e-05
9.80597e-07
4.33447e-06
1.32286e-05
-1.50211e-05
-1.25458e-05
-1.72845e-05
1.58987e-05
1.67932e-05
-1.62582e-05
1.46178e-05
-4.08892e-07
9.76899e-07
4.33449e-06
1.32163e-05
-1.50214e-05
-1.25333e-05
-1.72889e-05
1.59068e-05
1.67991e-05
-1.62637e-05
4.33093e-06
-4.07218e-07
-4.33326e-06
9.76337e-07
1.46178e-05
-1.25455e-05
1.32305e-05
1.67939e-05
-1.62577e-05
1.59006e-05
-1.72843e-05
-1.50216e-05
4.3346e-06
-4.08336e-07
-4.33499e-06
9.7831e-07
1.46174e-05
-1.25334e-05
1.32162e-05
1.67984e-05
-1.62649e-05
1.59069e-05
-1.72886e-05
1.37701e-05
1.37509e-05
1.59278e-06
1.50308e-05
-1.30371e-07
-1.59333e-06
-1.41725e-05
-1.41562e-05
9.76184e-07
4.33391e-06
1.32173e-05
-1.50299e-05
-1.25306e-05
-1.72896e-05
1.59074e-05
1.68005e-05
-1.6265e-05
1.4616e-05
-4.11152e-07
9.81018e-07
4.3412e-06
1.32136e-05
-1.50196e-05
-1.25301e-05
-1.7286e-05
1.59009e-05
1.67939e-05
-1.62618e-05
4.32638e-06
-4.25648e-07
-4.32983e-06
9.76696e-07
1.46312e-05
-1.25301e-05
1.32207e-05
1.68045e-05
-1.62646e-05
1.5911e-05
-1.72894e-05
-1.50208e-05
4.33399e-06
-4.21271e-07
-4.33904e-06
9.73352e-07
1.46202e-05
-1.25292e-05
1.32191e-05
1.67993e-05
-1.62597e-05
1.59076e-05
-1.72836e-05
-4.1454e-07
9.82379e-07
4.33426e-06
1.32287e-05
-1.50189e-05
-1.25418e-05
-1.72846e-05
1.58977e-05
-1.62583e-05
1.67939e-05
-4.20064e-07
-4.32724e-06
9.79018e-07
1.46281e-05
-1.25438e-05
1.32335e-05
1.68e-05
-1.62619e-05
-1.72886e-05
1.59049e-05
-1.50214e-05
4.33417e-06
-4.11806e-07
-4.33488e-06
9.79043e-07
1.46165e-05
-1.2544e-05
1.32296e-05
1.67947e-05
-1.62577e-05
1.58997e-05
-1.7284e-05
1.37682e-05
1.37502e-05
1.59097e-06
1.50316e-05
-1.27659e-07
-1.59736e-06
-1.41725e-05
-1.41548e-05
-4.07384e-07
9.79571e-07
4.33197e-06
1.32157e-05
-1.50328e-05
-1.2533e-05
-1.72906e-05
1.59055e-05
-1.62659e-05
1.67987e-05
-4.21761e-07
-4.33158e-06
9.73706e-07
1.46306e-05
-1.25413e-05
1.32337e-05
1.67974e-05
-1.62563e-05
-1.72839e-05
1.59034e-05
-1.50319e-05
4.33151e-06
-4.18647e-07
-4.33299e-06
9.7886e-07
1.46299e-05
-1.25308e-05
1.32184e-05
1.68013e-05
-1.62648e-05
1.5908e-05
-1.72886e-05
-1.59747e-06
-1.41507e-05
-1.41773e-05
-1.46179e-05
-1.4631e-05
1.37481e-05
1.37744e-05
1.59862e-06
1.50209e-05
1.50349e-05
-1.23369e-07
-1.60343e-06
-1.4153e-05
-1.41759e-05
9.75976e-07
4.32908e-06
1.32315e-05
-1.5022e-05
-1.25448e-05
-1.72846e-05
1.59009e-05
1.67943e-05
-1.62582e-05
1.46171e-05
-4.11405e-07
9.77442e-07
4.33446e-06
1.32167e-05
-1.50214e-05
-1.25324e-05
-1.7288e-05
1.59073e-05
1.67995e-05
-1.62647e-05
4.31796e-06
-4.21567e-07
-4.32284e-06
9.76789e-07
1.46199e-05
-1.25435e-05
1.32357e-05
1.67993e-05
-1.62588e-05
1.59037e-05
-1.72858e-05
-1.50211e-05
4.32026e-06
-4.19761e-07
-4.32642e-06
9.70313e-07
1.46215e-05
-1.25312e-05
1.32226e-05
1.68048e-05
-1.62641e-05
1.59122e-05
-1.7289e-05
1.37702e-05
1.37507e-05
1.5933e-06
1.50329e-05
-1.25654e-07
-1.60013e-06
-1.41735e-05
-1.41547e-05
9.76333e-07
4.32344e-06
1.32212e-05
-1.50325e-05
-1.25313e-05
-1.72901e-05
1.59113e-05
1.68047e-05
-1.6265e-05
1.46207e-05
-4.17547e-07
9.72842e-07
4.32835e-06
1.32199e-05
-1.50227e-05
-1.25309e-05
-1.72846e-05
1.59084e-05
1.68003e-05
-1.62606e-05
4.31363e-06
-4.12922e-07
-4.31716e-06
9.73286e-07
1.46323e-05
-1.25348e-05
1.32216e-05
1.68045e-05
-1.62657e-05
1.59118e-05
-1.72917e-05
-1.50252e-05
4.31789e-06
-4.04239e-07
-4.32068e-06
9.7528e-07
1.46202e-05
-1.2535e-05
1.32187e-05
1.67986e-05
-1.62636e-05
1.59065e-05
-1.72884e-05
-4.12321e-07
9.76622e-07
4.33261e-06
1.32305e-05
-1.50221e-05
-1.25439e-05
-1.72838e-05
1.59008e-05
-1.62573e-05
1.67956e-05
-4.20512e-07
-4.31769e-06
9.72788e-07
1.46316e-05
-1.25454e-05
1.3238e-05
1.68031e-05
-1.62607e-05
-1.72886e-05
1.59083e-05
-1.5023e-05
4.31776e-06
-4.16174e-07
-4.32261e-06
9.72554e-07
1.462e-05
-1.2544e-05
1.32351e-05
1.67989e-05
-1.62576e-05
1.59045e-05
-1.72853e-05
1.37719e-05
1.37523e-05
1.60011e-06
1.50317e-05
-1.22191e-07
-1.60427e-06
-1.41717e-05
-1.41588e-05
-4.2297e-07
9.75937e-07
4.32908e-06
1.322e-05
-1.50318e-05
-1.25297e-05
-1.72884e-05
1.59097e-05
-1.62644e-05
1.68032e-05
-4.25957e-07
-4.31334e-06
9.77748e-07
1.46307e-05
-1.25418e-05
1.32367e-05
1.68013e-05
-1.62607e-05
-1.72883e-05
1.59052e-05
-1.50329e-05
4.31451e-06
-4.26584e-07
-4.31899e-06
9.69405e-07
1.46336e-05
-1.25301e-05
1.32247e-05
1.68077e-05
-1.62652e-05
1.59143e-05
-1.72905e-05
-1.60651e-06
-1.41505e-05
-1.41779e-05
-1.4619e-05
-1.46317e-05
1.37482e-05
1.37751e-05
1.60396e-06
1.50234e-05
1.5035e-05
-1.22254e-07
-1.60497e-06
-1.41529e-05
-1.41783e-05
9.77205e-07
4.313e-06
1.32357e-05
-1.50213e-05
-1.2544e-05
-1.72865e-05
1.5904e-05
1.68004e-05
-1.62595e-05
1.46212e-05
-4.16445e-07
9.7168e-07
4.31487e-06
1.32229e-05
-1.50226e-05
-1.25332e-05
-1.72907e-05
1.59128e-05
1.68056e-05
-1.62657e-05
4.30568e-06
-4.10312e-07
-4.307e-06
9.77557e-07
1.46195e-05
-1.25471e-05
1.32344e-05
1.67974e-05
-1.62614e-05
1.5903e-05
-1.72884e-05
-1.50251e-05
4.30759e-06
-4.08674e-07
-4.30826e-06
9.74013e-07
1.46204e-05
-1.25364e-05
1.32209e-05
1.68031e-05
-1.62667e-05
1.59107e-05
-1.72916e-05
1.37729e-05
1.37528e-05
1.60149e-06
1.50338e-05
-1.24115e-07
-1.60244e-06
-1.41739e-05
-1.41584e-05
9.73603e-07
4.3099e-06
1.32215e-05
-1.50348e-05
-1.25346e-05
-1.72923e-05
1.59117e-05
1.68051e-05
-1.62664e-05
1.46199e-05
-4.03462e-07
9.76417e-07
4.31578e-06
1.32181e-05
-1.50256e-05
-1.2535e-05
-1.72887e-05
1.5906e-05
1.67987e-05
-1.62642e-05
4.30149e-06
-4.15935e-07
-4.3041e-06
9.76141e-07
1.46325e-05
-1.25349e-05
1.32222e-05
1.68058e-05
-1.62679e-05
1.59126e-05
-1.7293e-05
-1.50243e-05
4.30653e-06
-4.16626e-07
-4.31097e-06
9.73493e-07
1.46232e-05
-1.25333e-05
1.32223e-05
1.68017e-05
-1.62633e-05
1.59089e-05
-1.72877e-05
-4.15162e-07
9.72184e-07
4.31326e-06
1.32361e-05
-1.50237e-05
-1.25451e-05
-1.72865e-05
1.5905e-05
-1.62591e-05
1.67998e-05
-4.21749e-07
-4.30155e-06
9.75404e-07
1.46307e-05
-1.25463e-05
1.32379e-05
1.68047e-05
-1.62635e-05
-1.72909e-05
1.59095e-05
-1.50245e-05
4.30226e-06
-4.17924e-07
-4.30542e-06
9.75407e-07
1.46218e-05
-1.25461e-05
1.32376e-05
1.68012e-05
-1.62615e-05
1.59055e-05
-1.72883e-05
1.37714e-05
1.37523e-05
1.60419e-06
1.50361e-05
-1.20168e-07
-1.60777e-06
-1.41753e-05
-1.41572e-05
-4.26074e-07
9.69432e-07
4.3095e-06
1.32258e-05
-1.50344e-05
-1.25316e-05
-1.72909e-05
1.59154e-05
-1.62658e-05
1.68089e-05
-4.17981e-07
-4.30159e-06
9.75176e-07
1.4633e-05
-1.25465e-05
1.32371e-05
1.68014e-05
-1.62601e-05
-1.72883e-05
1.59066e-05
-1.50388e-05
4.29737e-06
-4.13914e-07
-4.30042e-06
9.74138e-07
1.46348e-05
-1.25372e-05
1.32246e-05
1.68077e-05
-1.62688e-05
1.59144e-05
-1.72939e-05
-1.61327e-06
-1.41554e-05
-1.41785e-05
-1.46187e-05
-1.46314e-05
1.37481e-05
1.37755e-05
1.6043e-06
1.5021e-05
1.50361e-05
-1.24685e-07
-1.60275e-06
-1.41539e-05
-1.41757e-05
9.77774e-07
4.30592e-06
1.32341e-05
-1.50231e-05
-1.25466e-05
-1.7288e-05
1.59022e-05
1.67972e-05
-1.62613e-05
1.4621e-05
-4.08948e-07
9.73918e-07
4.3075e-06
1.32212e-05
-1.5024e-05
-1.25353e-05
-1.72923e-05
1.59101e-05
1.68023e-05
-1.62679e-05
4.31081e-06
-4.19166e-07
-4.31e-06
9.7886e-07
1.46183e-05
-1.25442e-05
1.32341e-05
1.6798e-05
-1.62607e-05
1.59024e-05
-1.72873e-05
-1.50221e-05
4.31278e-06
-4.18089e-07
-4.31131e-06
9.76394e-07
1.46199e-05
-1.25325e-05
1.32214e-05
1.6803e-05
-1.62677e-05
1.591e-05
-1.72918e-05
1.3772e-05
1.37537e-05
1.60225e-06
1.50363e-05
-1.25557e-07
-1.60043e-06
-1.4177e-05
-1.41554e-05
9.76277e-07
4.30027e-06
1.3222e-05
-1.50358e-05
-1.25358e-05
-1.7293e-05
1.59127e-05
1.68061e-05
-1.62679e-05
1.46227e-05
-4.14609e-07
9.7533e-07
4.30326e-06
1.32224e-05
-1.50243e-05
-1.25338e-05
-1.72892e-05
1.59086e-05
1.68015e-05
-1.62655e-05
4.30756e-06
-4.06764e-07
-4.30527e-06
9.74933e-07
1.4631e-05
-1.25364e-05
1.32188e-05
1.68028e-05
-1.62679e-05
1.59106e-05
-1.72932e-05
-1.50241e-05
4.31046e-06
-4.0566e-07
-4.30549e-06
9.85174e-07
1.46177e-05
-1.25349e-05
1.32158e-05
1.6796e-05
-1.62671e-05
1.59027e-05
-1.72905e-05
-4.15164e-07
9.78413e-07
4.29897e-06
1.32371e-05
-1.50245e-05
-1.25465e-05
-1.72897e-05
1.5905e-05
-1.62635e-05
1.68007e-05
-4.09341e-07
-4.30294e-06
9.74155e-07
1.46299e-05
-1.25492e-05
1.32345e-05
1.68011e-05
-1.62637e-05
-1.72916e-05
1.59072e-05
-1.50248e-05
4.3111e-06
-4.06212e-07
-4.30449e-06
9.86047e-07
1.46168e-05
-1.25482e-05
1.32304e-05
1.67947e-05
-1.62637e-05
1.58987e-05
-1.72903e-05
1.37726e-05
1.37543e-05
1.60857e-06
1.50359e-05
-1.24315e-07
-1.60177e-06
-1.41763e-05
-1.41576e-05
-4.09515e-07
9.76482e-07
4.2949e-06
1.32238e-05
-1.50392e-05
-1.25381e-05
-1.72953e-05
1.59138e-05
-1.62708e-05
1.68066e-05
-4.02888e-07
-4.29821e-06
9.8293e-07
1.46277e-05
-1.25483e-05
1.32292e-05
1.67948e-05
-1.62637e-05
-1.72909e-05
1.59003e-05
-1.50378e-05
4.3079e-06
-4.02667e-07
-4.3014e-06
9.8154e-07
1.46298e-05
-1.25381e-05
1.32173e-05
1.68007e-05
-1.62703e-05
1.59077e-05
-1.72946e-05
-1.60504e-06
-1.41556e-05
-1.41797e-05
-1.4618e-05
-1.46308e-05
1.37478e-05
1.37749e-05
1.60134e-06
1.50213e-05
1.5034e-05
-1.25555e-07
-1.60065e-06
-1.41525e-05
-1.41765e-05
9.7882e-07
4.31359e-06
1.32337e-05
-1.50212e-05
-1.25454e-05
-1.72884e-05
1.59019e-05
1.6797e-05
-1.6262e-05
1.46189e-05
-4.16185e-07
9.77386e-07
4.3162e-06
1.32206e-05
-1.50222e-05
-1.25337e-05
-1.72923e-05
1.59098e-05
1.68024e-05
-1.62682e-05
4.32147e-06
-4.1508e-07
-4.32327e-06
9.77488e-07
1.46188e-05
-1.25446e-05
1.3233e-05
1.67962e-05
-1.62591e-05
1.59017e-05
-1.72853e-05
-1.50203e-05
4.32553e-06
-4.18318e-07
-4.32535e-06
9.78004e-07
1.46181e-05
-1.25314e-05
1.32185e-05
1.68011e-05
-1.62652e-05
1.59085e-05
-1.72891e-05
1.37707e-05
1.37521e-05
1.59925e-06
1.5034e-05
-1.28911e-07
-1.59605e-06
-1.41752e-05
-1.41542e-05
9.75043e-07
4.3105e-06
1.32191e-05
-1.50357e-05
-1.25367e-05
-1.72934e-05
1.59102e-05
1.68023e-05
-1.62682e-05
1.46167e-05
-4.05083e-07
9.84924e-07
4.31782e-06
1.32146e-05
-1.50239e-05
-1.25352e-05
-1.729e-05
1.59019e-05
1.67949e-05
-1.62663e-05
4.31822e-06
-4.14944e-07
-4.32003e-06
9.75653e-07
1.46322e-05
-1.25338e-05
1.32201e-05
1.68032e-05
-1.62661e-05
1.59104e-05
-1.72908e-05
-1.50215e-05
4.32596e-06
-4.1647e-07
-4.32804e-06
9.76406e-07
1.46199e-05
-1.25306e-05
1.32178e-05
1.67977e-05
-1.62612e-05
1.59054e-05
-1.72854e-05
-4.0683e-07
9.85022e-07
4.31576e-06
1.32298e-05
-1.50236e-05
-1.25469e-05
-1.72892e-05
1.58988e-05
-1.6263e-05
1.67945e-05
-4.11335e-07
-4.31677e-06
9.77306e-07
1.46292e-05
-1.25473e-05
1.32327e-05
1.67994e-05
-1.62627e-05
-1.729e-05
1.59053e-05
-1.50214e-05
4.32633e-06
-4.12129e-07
-4.32513e-06
9.78637e-07
1.46173e-05
-1.2544e-05
1.32301e-05
1.67941e-05
-1.62587e-05
1.59e-05
-1.72853e-05
1.37693e-05
1.37514e-05
1.59832e-06
1.50325e-05
-1.2719e-07
-1.59824e-06
-1.41731e-05
-1.41555e-05
-4.05143e-07
9.81087e-07
4.31279e-06
1.32174e-05
-1.50362e-05
-1.25365e-05
-1.72936e-05
1.59076e-05
-1.62697e-05
1.68004e-05
-4.19148e-07
-4.32031e-06
9.76495e-07
1.46305e-05
-1.2543e-05
1.32326e-05
1.67971e-05
-1.62581e-05
-1.72856e-05
1.5903e-05
-1.50331e-05
4.3229e-06
-4.18952e-07
-4.32275e-06
9.78027e-07
1.46308e-05
-1.25318e-05
1.32188e-05
1.6802e-05
-1.62656e-05
1.59093e-05
-1.72896e-05
-1.59964e-06
-1.41515e-05
-1.4177e-05
-1.46177e-05
-1.46309e-05
1.37481e-05
1.37746e-05
1.60045e-06
1.50212e-05
1.50339e-05
-1.24671e-07
-1.60193e-06
-1.41522e-05
-1.41763e-05
9.79051e-07
4.32115e-06
1.32324e-05
-1.50213e-05
-1.25451e-05
-1.72864e-05
1.59009e-05
1.67962e-05
-1.62604e-05
1.46187e-05
-4.16522e-07
9.76065e-07
4.32456e-06
1.32196e-05
-1.50211e-05
-1.2532e-05
-1.72893e-05
1.59093e-05
1.68015e-05
-1.62652e-05
4.32041e-06
-4.12297e-07
-4.32075e-06
9.7937e-07
1.46181e-05
-1.2545e-05
1.32324e-05
1.67968e-05
-1.62618e-05
1.59018e-05
-1.7288e-05
-1.5023e-05
4.32292e-06
-4.12108e-07
-4.32269e-06
9.75735e-07
1.46192e-05
-1.25349e-05
1.32196e-05
1.68027e-05
-1.62667e-05
1.59098e-05
-1.72907e-05
1.37718e-05
1.37516e-05
1.59637e-06
1.50321e-05
-1.26767e-07
-1.59879e-06
-1.4173e-05
-1.41565e-05
9.77496e-07
4.31767e-06
1.32199e-05
-1.5034e-05
-1.25344e-05
-1.72918e-05
1.59099e-05
1.68036e-05
-1.62672e-05
1.46205e-05
-4.13093e-07
9.75677e-07
4.32325e-06
1.32188e-05
-1.50224e-05
-1.2532e-05
-1.72866e-05
1.5906e-05
1.6798e-05
-1.62623e-05
4.31641e-06
-4.12613e-07
-4.31697e-06
9.78353e-07
1.46313e-05
-1.25344e-05
1.32197e-05
1.68035e-05
-1.62684e-05
1.59101e-05
-1.72931e-05
-1.50235e-05
4.3233e-06
-4.10059e-07
-4.32199e-06
9.76697e-07
1.46189e-05
-1.25338e-05
1.32173e-05
1.67981e-05
-1.62633e-05
1.59055e-05
-1.72872e-05
-4.13294e-07
9.77131e-07
4.32378e-06
1.32316e-05
-1.50212e-05
-1.25438e-05
-1.72849e-05
1.59012e-05
-1.62585e-05
1.67958e-05
-4.19787e-07
-4.31706e-06
9.77448e-07
1.46289e-05
-1.25461e-05
1.32357e-05
1.68018e-05
-1.62622e-05
-1.72894e-05
1.59068e-05
-1.50232e-05
4.32174e-06
-4.154e-07
-4.32251e-06
9.75182e-07
1.46192e-05
-1.25448e-05
1.32332e-05
1.67972e-05
-1.62583e-05
1.59029e-05
-1.72853e-05
1.3772e-05
1.37529e-05
1.59946e-06
1.50314e-05
-1.25544e-07
-1.60029e-06
-1.41721e-05
-1.4157e-05
-4.19584e-07
9.76375e-07
4.31991e-06
1.32202e-05
-1.50334e-05
-1.25322e-05
-1.72893e-05
1.59107e-05
-1.62652e-05
1.68035e-05
-4.2142e-07
-4.31529e-06
9.78068e-07
1.46286e-05
-1.25431e-05
1.32332e-05
1.67981e-05
-1.62592e-05
-1.72862e-05
1.59029e-05
-1.50348e-05
4.31798e-06
-4.20522e-07
-4.31865e-06
9.73805e-07
1.46329e-05
-1.25328e-05
1.3222e-05
1.68045e-05
-1.62655e-05
1.59117e-05
-1.72905e-05
-1.60373e-06
-1.41528e-05
-1.41783e-05
-1.46183e-05
-1.46314e-05
1.37485e-05
1.37746e-05
1.60195e-06
1.50202e-05
1.50323e-05
-1.24105e-07
-1.60055e-06
-1.41514e-05
-1.41763e-05
9.78014e-07
4.31817e-06
1.32332e-05
-1.50214e-05
-1.25452e-05
-1.72867e-05
1.59023e-05
1.67977e-05
-1.62604e-05
1.46202e-05
-4.11694e-07
9.75725e-07
4.32119e-06
1.32196e-05
-1.50231e-05
-1.25346e-05
-1.72906e-05
1.59099e-05
1.68028e-05
-1.62665e-05
4.31972e-06
-4.17647e-07
-4.31742e-06
9.77411e-07
1.46179e-05
-1.25439e-05
1.32328e-05
1.6797e-05
-1.62605e-05
1.59018e-05
-1.72871e-05
-1.50198e-05
4.32269e-06
-4.18946e-07
-4.32115e-06
9.70706e-07
1.4619e-05
-1.2532e-05
1.32204e-05
1.6802e-05
-1.6264e-05
1.59102e-05
-1.7289e-05
1.3771e-05
1.37523e-05
1.59968e-06
1.50293e-05
-1.27518e-07
-1.59739e-06
-1.417e-05
-1.41542e-05
9.77157e-07
4.31434e-06
1.32206e-05
-1.50335e-05
-1.25336e-05
-1.72924e-05
1.59105e-05
1.68042e-05
-1.62675e-05
1.46207e-05
-4.12468e-07
9.74691e-07
4.32148e-06
1.32187e-05
-1.50238e-05
-1.25331e-05
-1.72865e-05
1.59067e-05
1.67993e-05
-1.62625e-05
4.31416e-06
-4.23634e-07
-4.3129e-06
9.75375e-07
1.46316e-05
-1.25318e-05
1.32212e-05
1.68056e-05
-1.62674e-05
1.59118e-05
-1.72918e-05
-1.5022e-05
4.31899e-06
-4.18832e-07
-4.31804e-06
9.71611e-07
1.4621e-05
-1.25316e-05
1.32203e-05
1.68007e-05
-1.62627e-05
1.59082e-05
-1.72875e-05
-4.15051e-07
9.74055e-07
4.32131e-06
1.32336e-05
-1.50237e-05
-1.25454e-05
-1.72851e-05
1.59032e-05
-1.62581e-05
1.67975e-05
-4.27731e-07
-4.31406e-06
9.74827e-07
1.46298e-05
-1.25429e-05
1.32357e-05
1.68013e-05
-1.62615e-05
-1.72889e-05
1.59065e-05
-1.50219e-05
4.31952e-06
-4.22736e-07
-4.31822e-06
9.71243e-07
1.46207e-05
-1.25423e-05
1.3235e-05
1.67976e-05
-1.62576e-05
1.59035e-05
-1.72847e-05
1.3771e-05
1.37523e-05
1.60206e-06
1.50317e-05
-1.2105e-07
-1.60495e-06
-1.4172e-05
-1.41557e-05
-4.21985e-07
9.72868e-07
4.31755e-06
1.32227e-05
-1.50348e-05
-1.25326e-05
-1.72907e-05
1.59123e-05
-1.62658e-05
1.68052e-05
-4.26703e-07
-4.31077e-06
9.75596e-07
1.46313e-05
-1.25429e-05
1.32361e-05
1.68e-05
-1.62605e-05
-1.72876e-05
1.59056e-05
-1.50338e-05
4.31237e-06
-4.26931e-07
-4.3132e-06
9.69048e-07
1.4634e-05
-1.25312e-05
1.32236e-05
1.68065e-05
-1.62646e-05
1.59141e-05
-1.729e-05
-1.60677e-06
-1.41512e-05
-1.41762e-05
-1.462e-05
-1.46332e-05
1.37502e-05
1.37767e-05
1.60218e-06
1.5e-05
1.50105e-05
-9.95345e-08
-1.60908e-06
-1.4139e-05
-1.41629e-05
9.7243e-07
4.32691e-06
1.32352e-05
-1.50187e-05
-1.25421e-05
-1.72853e-05
1.59028e-05
1.6798e-05
-1.62591e-05
1.46219e-05
-4.29353e-07
9.64301e-07
4.32759e-06
1.32237e-05
-1.5019e-05
-1.25303e-05
-1.72885e-05
1.59125e-05
1.68036e-05
-1.62637e-05
4.25847e-06
-4.40924e-07
-4.33751e-06
9.51212e-07
1.46304e-05
-1.25327e-05
1.3253e-05
1.68073e-05
-1.6243e-05
1.59222e-05
-1.72686e-05
-1.50002e-05
4.2597e-06
-4.48419e-07
-4.34005e-06
9.42512e-07
1.4635e-05
-1.25205e-05
1.32426e-05
1.6814e-05
-1.62465e-05
1.59324e-05
-1.72705e-05
1.37734e-05
1.37544e-05
1.59897e-06
1.50096e-05
-9.74875e-08
-1.61032e-06
-1.41598e-05
-1.41422e-05
9.69768e-07
4.31929e-06
1.32238e-05
-1.50318e-05
-1.25315e-05
-1.72903e-05
1.5913e-05
1.68064e-05
-1.62654e-05
1.46231e-05
-4.26847e-07
9.67095e-07
4.32372e-06
1.32225e-05
-1.50208e-05
-1.25305e-05
-1.72869e-05
1.59092e-05
1.68009e-05
-1.62625e-05
4.23485e-06
-4.4156e-07
-4.32832e-06
9.44444e-07
1.46472e-05
-1.25199e-05
1.32425e-05
1.68166e-05
-1.62468e-05
1.59331e-05
-1.72717e-05
-1.50011e-05
4.25085e-06
-4.27711e-07
-4.33611e-06
9.40689e-07
1.46336e-05
-1.25207e-05
1.32387e-05
1.68086e-05
-1.62446e-05
1.59264e-05
-1.72687e-05
-4.34437e-07
9.67122e-07
4.32349e-06
1.32379e-05
-1.50194e-05
-1.2541e-05
-1.72841e-05
1.59058e-05
-1.62576e-05
1.6799e-05
-4.51704e-07
-4.32969e-06
9.47101e-07
1.46466e-05
-1.25326e-05
1.32597e-05
1.68157e-05
-1.62416e-05
-1.72704e-05
1.59315e-05
-1.50025e-05
4.25903e-06
-4.39516e-07
-4.34012e-06
9.44594e-07
1.46338e-05
-1.25332e-05
1.32553e-05
1.68087e-05
-1.62414e-05
1.59244e-05
-1.7269e-05
1.37739e-05
1.37545e-05
1.60659e-06
1.5009e-05
-9.81282e-08
-1.6106e-06
-1.41593e-05
-1.41421e-05
-4.33264e-07
9.64265e-07
4.31566e-06
1.32257e-05
-1.50333e-05
-1.25313e-05
-1.72896e-05
1.59153e-05
-1.62638e-05
1.68068e-05
-4.418e-07
-4.3234e-06
9.42241e-07
1.46473e-05
-1.25302e-05
1.3257e-05
1.68125e-05
-1.62386e-05
-1.72657e-05
1.59267e-05
-1.50116e-05
4.22415e-06
-4.43979e-07
-4.32647e-06
9.35106e-07
1.46517e-05
-1.25188e-05
1.32464e-05
1.68198e-05
-1.62442e-05
1.59368e-05
-1.7269e-05
-1.61549e-06
-1.41395e-05
-1.41637e-05
-1.47227e-05
-1.47482e-05
1.38266e-05
1.38504e-05
1.69445e-06
1.8099e-05
1.81032e-05
1.77659e-06
-3.83439e-06
-1.70605e-05
-1.70839e-05
1.25108e-06