/*--------------------------------*- C++ -*----------------------------------*\
| =========                 |                                                 |
| \\      /  F ield         | OpenFOAM: The Open Source CFD Toolbox           |
|  \\    /   O peration     | Version:  2206                                  |
|   \\  /    A nd           | Website:  www.openfoam.com                      |
|    \\/     M anipulation  |                                                 |
\*---------------------------------------------------------------------------*/
FoamFile
{
    version     2.0;
    format      ascii;
    arch        "LSB;label=32;scalar=64";
    class       volVectorField;
    location    "0.5";
    object      U;
}
// * * * * * * * * * * * * * * * * * * * * * * * * * * * * * * * * * * * * * //

dimensions      [0 1 -1 0 0 0 0];

internalField   nonuniform List<vector> 
28673
(
(-2.88107e-08 5.33207e-08 0.100269)
(-3.51917e-05 -3.52051e-05 0.10027)
(-3.3529e-08 -3.42642e-08 0.100269)
(-2.90723e-08 5.42478e-08 0.100269)
(5.45918e-08 -2.88048e-08 0.100269)
(-3.5189e-05 -3.52059e-05 0.10027)
(-3.32397e-08 -3.39535e-08 0.100269)
(-2.93407e-08 5.43663e-08 0.100269)
(5.51819e-08 -2.92069e-08 0.100269)
(-3.51883e-05 -3.52045e-05 0.10027)
(-3.32713e-08 -3.37129e-08 0.100269)
(-3.06944e-08 5.62964e-08 0.100269)
(5.56481e-08 -2.94657e-08 0.100269)
(-3.51883e-05 -3.52057e-05 0.10027)
(-3.3526e-08 -3.405e-08 0.100269)
(-3.00106e-08 5.53485e-08 0.100269)
(5.55235e-08 -2.95398e-08 0.100269)
(-3.51893e-05 -3.52063e-05 0.10027)
(-3.33073e-08 -3.40423e-08 0.100269)
(-3.06981e-08 5.58705e-08 0.100269)
(5.66875e-08 -3.04659e-08 0.100269)
(-3.51886e-05 -3.52047e-05 0.10027)
(-3.33236e-08 -3.37449e-08 0.100269)
(-2.95377e-08 5.49555e-08 0.100269)
(5.51921e-08 -2.90691e-08 0.100269)
(-3.51917e-05 -3.52085e-05 0.10027)
(-3.38283e-08 -3.40036e-08 0.100269)
(-2.86412e-08 5.39134e-08 0.100269)
(5.34782e-08 -2.78211e-08 0.100269)
(-3.51895e-05 -3.52064e-05 0.10027)
(-3.43091e-08 -3.43588e-08 0.100269)
(-2.9297e-08 5.39469e-08 0.100269)
(5.38978e-08 -2.90062e-08 0.100269)
(-3.51888e-05 -3.52059e-05 0.10027)
(-4.23968e-08 -3.96091e-08 0.100269)
(-2.81789e-08 5.06576e-08 0.100269)
(4.97314e-08 -2.78374e-08 0.100269)
(-3.51842e-05 -3.52012e-05 0.10027)
(-2.01482e-07 -1.98154e-07 0.100269)
(1.05167e-07 -3.43057e-08 0.100269)
(-4.01154e-08 1.11464e-07 0.100269)
(-3.51088e-05 -3.51209e-05 0.10027)
(-4.8017e-06 -4.75266e-06 0.100264)
(3.51876e-06 -1.89345e-06 0.100269)
(-1.91736e-06 3.52444e-06 0.100269)
(-3.35485e-05 -3.35456e-05 0.10027)
(-3.84831e-05 -3.83953e-05 0.100167)
(3.86795e-05 -3.18828e-05 0.100185)
(-3.19525e-05 3.86795e-05 0.100185)
(6.2808e-05 6.2835e-05 0.100194)
(-5.33494e-08 3.02724e-08 0.100269)
(3.54331e-05 -3.53978e-05 0.10027)
(-3.04678e-08 5.51307e-08 0.100269)
(-3.54297e-05 -3.54041e-05 0.10027)
(5.52274e-08 3.0771e-08 0.100269)
(-5.44416e-08 3.13809e-08 0.100269)
(5.50263e-08 2.83348e-08 0.100269)
(-5.42027e-08 3.05919e-08 0.100269)
(-3.52075e-05 3.51714e-05 0.10027)
(3.5431e-05 -3.53969e-05 0.10027)
(2.97398e-08 5.24181e-08 0.100269)
(2.96064e-08 -5.47518e-08 0.100269)
(-3.47624e-08 -5.37819e-08 0.100269)
(-2.93568e-08 5.44134e-08 0.100269)
(-3.49515e-08 -5.42965e-08 0.100269)
(-3.5396e-05 3.54426e-05 0.10027)
(-5.16172e-08 -3.44556e-08 0.100269)
(5.45643e-08 -2.88133e-08 0.100269)
(-5.24681e-08 -3.52665e-08 0.100269)
(3.54103e-05 3.54303e-05 0.10027)
(3.52033e-05 3.51784e-05 0.10027)
(-3.54275e-05 -3.54019e-05 0.10027)
(5.50356e-08 3.01908e-08 0.100269)
(-5.42889e-08 3.06635e-08 0.100269)
(5.61789e-08 2.85838e-08 0.100269)
(-5.45243e-08 3.10568e-08 0.100269)
(-3.52053e-05 3.51702e-05 0.10027)
(3.54295e-05 -3.53957e-05 0.10027)
(2.9841e-08 5.49645e-08 0.100269)
(3.02179e-08 -5.53282e-08 0.100269)
(3.01243e-08 5.36148e-08 0.100269)
(3.04846e-08 -5.56315e-08 0.100269)
(-3.50704e-08 -5.46936e-08 0.100269)
(-2.92693e-08 5.43255e-08 0.100269)
(-3.51966e-08 -5.50458e-08 0.100269)
(3.51715e-05 -3.52163e-05 0.10027)
(-3.53952e-05 3.54409e-05 0.10027)
(-5.26087e-08 -3.52556e-08 0.100269)
(5.52447e-08 -2.90356e-08 0.100269)
(-5.32834e-08 -3.59691e-08 0.100269)
(3.54091e-05 3.54297e-05 0.10027)
(3.52019e-05 3.51773e-05 0.10027)
(-3.5427e-05 -3.54024e-05 0.10027)
(5.60587e-08 3.12703e-08 0.100269)
(-5.47635e-08 3.08816e-08 0.100269)
(5.75826e-08 2.98572e-08 0.100269)
(-5.69579e-08 3.2634e-08 0.100269)
(-3.52042e-05 3.51688e-05 0.10027)
(3.54283e-05 -3.5394e-05 0.10027)
(3.03953e-08 5.59409e-08 0.100269)
(3.09013e-08 -5.61949e-08 0.100269)
(3.07797e-08 5.48989e-08 0.100269)
(3.14652e-08 -5.64464e-08 0.100269)
(-3.52528e-08 -5.48754e-08 0.100269)
(-3.09509e-08 5.68767e-08 0.100269)
(-3.64622e-08 -5.59705e-08 0.100269)
(3.51706e-05 -3.52157e-05 0.10027)
(-3.53949e-05 3.54406e-05 0.10027)
(-5.31941e-08 -3.57877e-08 0.100269)
(5.60693e-08 -2.95752e-08 0.100269)
(-5.43235e-08 -3.6629e-08 0.100269)
(3.54077e-05 3.54269e-05 0.10027)
(3.52031e-05 3.51781e-05 0.10027)
(-3.54283e-05 -3.54034e-05 0.10027)
(5.7103e-08 3.20547e-08 0.100269)
(-5.68853e-08 3.24561e-08 0.100269)
(5.50358e-08 2.87312e-08 0.100269)
(-5.53615e-08 3.18874e-08 0.100269)
(-3.52044e-05 3.517e-05 0.10027)
(3.54308e-05 -3.53963e-05 0.10027)
(3.09e-08 5.69095e-08 0.100269)
(3.1143e-08 -5.63864e-08 0.100269)
(2.99368e-08 5.25238e-08 0.100269)
(3.01215e-08 -5.39606e-08 0.100269)
(-3.71381e-08 -5.65018e-08 0.100269)
(-3.02609e-08 5.52709e-08 0.100269)
(-3.61403e-08 -5.51162e-08 0.100269)
(3.51722e-05 -3.52169e-05 0.10027)
(-3.53945e-05 3.54363e-05 0.10027)
(-5.47772e-08 -3.72107e-08 0.100269)
(5.45807e-08 -2.91669e-08 0.100269)
(-5.31686e-08 -3.62184e-08 0.100269)
(3.54099e-05 3.54297e-05 0.10027)
(3.52039e-05 3.51787e-05 0.10027)
(-3.54274e-05 -3.54019e-05 0.10027)
(5.63065e-08 3.1736e-08 0.100269)
(-5.5639e-08 3.1081e-08 0.100269)
(5.72412e-08 2.90714e-08 0.100269)
(-5.56287e-08 3.14445e-08 0.100269)
(-3.52052e-05 3.51709e-05 0.10027)
(3.54294e-05 -3.5395e-05 0.10027)
(3.0536e-08 5.62028e-08 0.100269)
(2.97659e-08 -5.71437e-08 0.100269)
(3.04553e-08 5.45343e-08 0.100269)
(3.07372e-08 -5.52102e-08 0.100269)
(-3.56926e-08 -5.52412e-08 0.100269)
(-3.01902e-08 5.5524e-08 0.100269)
(-3.61181e-08 -5.57891e-08 0.100269)
(3.51719e-05 -3.52133e-05 0.10027)
(-3.5393e-05 3.54349e-05 0.10027)
(-5.34944e-08 -3.64012e-08 0.100269)
(5.60039e-08 -3.00328e-08 0.100269)
(-5.41118e-08 -3.66884e-08 0.100269)
(3.54082e-05 3.54287e-05 0.10027)
(3.52029e-05 3.51781e-05 0.10027)
(-3.54311e-05 -3.54058e-05 0.10027)
(5.71215e-08 3.18061e-08 0.100269)
(-5.63486e-08 3.19987e-08 0.100269)
(5.60915e-08 2.91407e-08 0.100269)
(-5.53091e-08 3.16187e-08 0.100269)
(-3.52044e-05 3.51706e-05 0.10027)
(3.5432e-05 -3.53988e-05 0.10027)
(3.11633e-08 5.70601e-08 0.100269)
(3.12506e-08 -5.84137e-08 0.100269)
(3.0116e-08 5.34813e-08 0.100269)
(3.05646e-08 -5.43964e-08 0.100269)
(-3.72775e-08 -5.673e-08 0.100269)
(-2.95714e-08 5.52981e-08 0.100269)
(-3.51088e-08 -5.49812e-08 0.100269)
(3.51719e-05 -3.52128e-05 0.10027)
(-3.53976e-05 3.54381e-05 0.10027)
(-5.50936e-08 -3.799e-08 0.100269)
(5.50853e-08 -2.89968e-08 0.100269)
(-5.32876e-08 -3.55343e-08 0.100269)
(3.54117e-05 3.5432e-05 0.10027)
(3.52057e-05 3.51808e-05 0.10027)
(-3.54328e-05 -3.5408e-05 0.10027)
(5.53091e-08 3.09571e-08 0.100269)
(-5.50768e-08 3.15227e-08 0.100269)
(5.46159e-08 2.79037e-08 0.100269)
(-5.40674e-08 3.01276e-08 0.100269)
(-3.52075e-05 3.51726e-05 0.10027)
(3.54332e-05 -3.53989e-05 0.10027)
(2.98899e-08 5.54143e-08 0.100269)
(3.06684e-08 -5.6854e-08 0.100269)
(2.842e-08 5.21563e-08 0.100269)
(2.88428e-08 -5.27338e-08 0.100269)
(-3.50577e-08 -5.44596e-08 0.100269)
(-2.89494e-08 5.39562e-08 0.100269)
(-3.36552e-08 -5.31518e-08 0.100269)
(3.51734e-05 -3.52161e-05 0.10027)
(-3.53979e-05 3.54385e-05 0.10027)
(-5.2698e-08 -3.53227e-08 0.100269)
(5.31086e-08 -2.78148e-08 0.100269)
(-5.1538e-08 -3.35825e-08 0.100269)
(3.54135e-05 3.54332e-05 0.10027)
(3.52057e-05 3.51806e-05 0.10027)
(-3.54297e-05 -3.54049e-05 0.10027)
(5.39774e-08 2.96122e-08 0.100269)
(-5.44035e-08 2.99786e-08 0.100269)
(5.44088e-08 2.8336e-08 0.100269)
(-5.41738e-08 3.03522e-08 0.100269)
(-3.52061e-05 3.51709e-05 0.10027)
(3.54314e-05 -3.53973e-05 0.10027)
(2.79026e-08 5.39982e-08 0.100269)
(2.88992e-08 -5.41696e-08 0.100269)
(2.89771e-08 5.21607e-08 0.100269)
(2.95512e-08 -5.4124e-08 0.100269)
(-3.41338e-08 -5.35721e-08 0.100269)
(-2.97855e-08 5.40622e-08 0.100269)
(-3.44649e-08 -5.41202e-08 0.100269)
(3.51719e-05 -3.52147e-05 0.10027)
(-3.53968e-05 3.54397e-05 0.10027)
(-5.21202e-08 -3.40099e-08 0.100269)
(5.35462e-08 -2.87271e-08 0.100269)
(-5.27857e-08 -3.39797e-08 0.100269)
(3.54109e-05 3.54306e-05 0.10027)
(3.52045e-05 3.51796e-05 0.10027)
(-3.54288e-05 -3.54028e-05 0.10027)
(5.43674e-08 3.08921e-08 0.100269)
(-5.43594e-08 3.04876e-08 0.100269)
(5.29957e-08 2.8922e-08 0.100269)
(-5.41822e-08 3.03295e-08 0.100269)
(-3.52054e-05 3.51709e-05 0.10027)
(3.54317e-05 -3.53973e-05 0.10027)
(2.93086e-08 5.473e-08 0.100269)
(2.97412e-08 -5.45129e-08 0.100269)
(2.92271e-08 5.12686e-08 0.100269)
(3.00979e-08 -5.37107e-08 0.100269)
(-3.43267e-08 -5.43159e-08 0.100269)
(-2.93251e-08 5.34038e-08 0.100269)
(-3.01997e-08 -5.2039e-08 0.100269)
(3.51715e-05 -3.52135e-05 0.10027)
(-3.53978e-05 3.54433e-05 0.10027)
(-5.31289e-08 -3.38289e-08 0.100269)
(5.3135e-08 -2.89584e-08 0.100269)
(-5.19832e-08 -2.96319e-08 0.100269)
(3.54119e-05 3.54318e-05 0.10027)
(3.52012e-05 3.51779e-05 0.10027)
(-3.54738e-05 -3.54455e-05 0.10027)
(5.04896e-08 3.0048e-08 0.100269)
(-5.12535e-08 2.85406e-08 0.100269)
(9.43912e-09 -2.52265e-08 0.100269)
(-1.06864e-08 -1.85209e-08 0.100269)
(-3.52011e-05 3.51678e-05 0.10027)
(3.54895e-05 -3.54351e-05 0.10027)
(2.99231e-08 5.44886e-08 0.100269)
(2.76366e-08 -5.05355e-08 0.100269)
(-3.14801e-08 8.40696e-09 0.100269)
(-2.89122e-08 -9.23959e-09 0.100269)
(-3.05924e-08 -4.99443e-08 0.100269)
(1.99025e-08 1.17903e-08 0.100269)
(2.35707e-08 -1.24333e-08 0.100269)
(3.51684e-05 -3.52133e-05 0.10027)
(-3.54508e-05 3.5486e-05 0.10027)
(-5.01117e-08 -2.9427e-08 0.100269)
(7.91914e-09 3.02201e-08 0.100269)
(-1.76764e-08 2.32022e-08 0.100269)
(3.54377e-05 3.54773e-05 0.10027)
(3.51191e-05 3.51111e-05 0.10027)
(-3.64137e-05 -3.63631e-05 0.10027)
(-4.62399e-08 -1.00644e-07 0.100269)
(3.75363e-08 -9.8507e-08 0.100269)
(-8.86482e-07 -1.48711e-06 0.100269)
(8.62109e-07 -1.47863e-06 0.100269)
(-3.51297e-05 3.5105e-05 0.10027)
(3.63687e-05 -3.63586e-05 0.10027)
(-1.10545e-07 -4.34621e-08 0.100269)
(-1.09922e-07 3.99561e-08 0.100269)
(-1.50237e-06 -8.57119e-07 0.100269)
(-1.49999e-06 8.75464e-07 0.100269)
(1.04461e-07 4.83962e-08 0.100269)
(1.47853e-06 -8.39912e-07 0.100269)
(1.48555e-06 8.73874e-07 0.100269)
(3.51019e-05 -3.51273e-05 0.10027)
(-3.63956e-05 3.63885e-05 0.10027)
(4.29823e-08 1.07063e-07 0.100269)
(-8.58675e-07 1.4832e-06 0.100269)
(8.51648e-07 1.48418e-06 0.100269)
(3.63629e-05 3.63849e-05 0.10027)
(3.35036e-05 3.35444e-05 0.10027)
(-5.5043e-05 -5.49322e-05 0.100222)
(-1.9549e-06 -3.50962e-06 0.100269)
(1.91927e-06 -3.50059e-06 0.100269)
(-3.51081e-05 -5.68887e-05 0.100234)
(3.51005e-05 -5.69313e-05 0.100234)
(-3.35571e-05 3.35547e-05 0.10027)
(5.50314e-05 -5.49369e-05 0.100222)
(-3.54598e-06 -1.90839e-06 0.100269)
(-3.53306e-06 1.94377e-06 0.100269)
(-5.70496e-05 -3.50284e-05 0.100234)
(-5.70015e-05 3.51022e-05 0.100234)
(3.51305e-06 1.94243e-06 0.100269)
(5.70227e-05 -3.50267e-05 0.100234)
(5.69892e-05 3.51064e-05 0.100234)
(3.35013e-05 -3.35754e-05 0.10027)
(-5.5008e-05 5.50209e-05 0.100222)
(1.9142e-06 3.53698e-06 0.100269)
(-3.50928e-05 5.70036e-05 0.100234)
(3.50872e-05 5.70447e-05 0.100234)
(5.50084e-05 5.50201e-05 0.100222)
(-6.28589e-05 -6.27279e-05 0.100194)
(-3.1969e-05 -3.85592e-05 0.100185)
(3.19549e-05 -3.8573e-05 0.100185)
(6.28365e-05 -6.27126e-05 0.100194)
(-3.87011e-05 -3.1883e-05 0.100185)
(-3.86661e-05 3.19493e-05 0.100185)
(3.84779e-05 -3.84011e-05 0.100167)
(-3.84708e-05 3.84811e-05 0.100167)
(3.84678e-05 3.84884e-05 0.100167)
(3.8661e-05 3.19517e-05 0.100185)
(-6.28137e-05 6.28367e-05 0.100194)
(3.19434e-05 3.87056e-05 0.100185)
(7.95535e-09 -2.03852e-06 0.100266)
(1.90298e-07 1.87864e-06 0.100094)
(-9.87719e-09 2.03012e-06 0.100266)
(-2.02959e-07 -1.87156e-06 0.100094)
(-2.83862e-07 3.50943e-07 0.0996711)
(2.78428e-07 -3.48575e-07 0.0996711)
(-2.04232e-06 4.14248e-09 0.100266)
(-1.87612e-06 -2.01972e-07 0.100094)
(3.40912e-08 -3.2956e-08 0.100269)
(3.93193e-08 3.14984e-08 0.100269)
(-3.34785e-08 -3.39702e-08 0.100269)
(3.47652e-08 -3.22927e-08 0.100269)
(-3.42225e-08 3.39932e-08 0.100269)
(3.93694e-08 3.13713e-08 0.100269)
(4.25209e-06 -2.3419e-08 0.100269)
(-2.75446e-06 1.42832e-06 0.100267)
(-3.12767e-08 -1.18459e-08 0.100269)
(-2.99342e-08 5.43836e-08 0.100269)
(-4.26785e-06 2.2422e-08 0.100269)
(2.73145e-06 -1.43453e-06 0.100267)
(-3.21274e-08 -1.20153e-08 0.100269)
(-3.0644e-07 2.82414e-07 0.0996711)
(-1.71562e-08 4.24425e-06 0.100269)
(-1.20912e-08 -2.67292e-08 0.100269)
(5.34411e-08 -2.75494e-08 0.100269)
(1.59848e-08 -4.25852e-06 0.100269)
(-1.15492e-08 -2.85815e-08 0.100269)
(-1.4306e-06 2.72593e-06 0.100267)
(-6.64305e-07 -1.3573e-06 0.100261)
(-1.35126e-06 -6.64357e-07 0.100261)
(3.54108e-05 3.54308e-05 0.10027)
(6.5969e-07 1.35113e-06 0.100261)
(1.34173e-06 6.54268e-07 0.100261)
(7.29068e-09 -2.03787e-06 0.100266)
(1.98428e-07 1.87731e-06 0.100094)
(-7.59897e-09 2.03513e-06 0.100266)
(-2.01543e-07 -1.87258e-06 0.100094)
(-2.82796e-07 3.47278e-07 0.0996711)
(2.783e-07 -3.48154e-07 0.0996711)
(-2.0472e-06 6.39071e-09 0.100266)
(1.87055e-06 1.91072e-07 0.100094)
(2.04243e-06 -6.37684e-09 0.100266)
(-1.87208e-06 -1.99463e-07 0.100094)
(3.4738e-08 -3.21395e-08 0.100269)
(-3.40903e-08 3.37744e-08 0.100269)
(3.95375e-08 3.09699e-08 0.100269)
(-3.29797e-08 -3.37602e-08 0.100269)
(3.44543e-08 -3.18643e-08 0.100269)
(-3.37806e-08 3.38275e-08 0.100269)
(3.92294e-08 3.08791e-08 0.100269)
(4.25087e-06 -2.26057e-08 0.100269)
(-2.7536e-06 1.429e-06 0.100267)
(-3.14931e-08 -1.20061e-08 0.100269)
(-2.9176e-08 5.42569e-08 0.100269)
(-4.26455e-06 2.22403e-08 0.100269)
(2.73092e-06 -1.43569e-06 0.100267)
(-3.16189e-08 -1.22134e-08 0.100269)
(3.0866e-07 -2.83608e-07 0.099671)
(-3.11417e-07 2.78237e-07 0.099671)
(-1.62951e-08 4.24439e-06 0.100269)
(-1.17005e-08 -2.89811e-08 0.100269)
(1.4352e-06 -2.76423e-06 0.100267)
(5.48308e-08 -2.90383e-08 0.100269)
(1.87485e-08 -4.2564e-06 0.100269)
(-1.20509e-08 -3.02956e-08 0.100269)
(-1.43889e-06 2.74146e-06 0.100267)
(-6.61824e-07 -1.35869e-06 0.100261)
(-1.35101e-06 -6.58607e-07 0.100261)
(3.5409e-05 3.54301e-05 0.10027)
(6.58998e-07 1.35006e-06 0.100261)
(1.34252e-06 6.55205e-07 0.100261)
(7.88653e-09 -2.04073e-06 0.100266)
(1.98549e-07 1.87703e-06 0.100094)
(-8.62784e-09 2.03427e-06 0.100266)
(-2.02499e-07 -1.87245e-06 0.100094)
(-2.82102e-07 3.47153e-07 0.0996711)
(2.79087e-07 -3.48358e-07 0.0996711)
(-2.04909e-06 6.44377e-09 0.100266)
(1.87024e-06 1.90511e-07 0.100094)
(2.04062e-06 -6.53178e-09 0.100266)
(-1.87199e-06 -2.00679e-07 0.100094)
(3.45632e-08 -3.19366e-08 0.100269)
(-3.3935e-08 3.3821e-08 0.100269)
(3.93624e-08 3.08056e-08 0.100269)
(-3.29594e-08 -3.33136e-08 0.100269)
(3.42213e-08 -3.16791e-08 0.100269)
(-3.36465e-08 3.36698e-08 0.100269)
(3.87596e-08 3.08222e-08 0.100269)
(4.25177e-06 -2.21818e-08 0.100269)
(-2.75322e-06 1.42942e-06 0.100267)
(-3.2251e-08 -1.19489e-08 0.100269)
(-3.03666e-08 5.56717e-08 0.100269)
(-4.2641e-06 2.27875e-08 0.100269)
(2.73145e-06 -1.43519e-06 0.100267)
(-3.33492e-08 -1.20954e-08 0.100269)
(3.08653e-07 -2.82722e-07 0.099671)
(-3.10764e-07 2.79564e-07 0.099671)
(-1.57733e-08 4.2458e-06 0.100269)
(-1.16565e-08 -2.97542e-08 0.100269)
(1.43515e-06 -2.76374e-06 0.100267)
(5.54236e-08 -2.91695e-08 0.100269)
(1.85044e-08 -4.2561e-06 0.100269)
(-1.19621e-08 -3.08667e-08 0.100269)
(-1.43819e-06 2.74198e-06 0.100267)
(-6.61921e-07 -1.35899e-06 0.100261)
(-1.35072e-06 -6.58079e-07 0.100261)
(3.54083e-05 3.54279e-05 0.10027)
(6.60181e-07 1.35152e-06 0.100261)
(1.34389e-06 6.5583e-07 0.100261)
(7.90082e-09 -2.03885e-06 0.100266)
(1.97767e-07 1.87754e-06 0.100094)
(-8.11748e-09 2.0329e-06 0.100266)
(-2.03525e-07 -1.87198e-06 0.100094)
(-2.83783e-07 3.46153e-07 0.0996711)
(2.78354e-07 -3.48266e-07 0.0996711)
(-2.04722e-06 5.49997e-09 0.100266)
(1.87058e-06 1.91869e-07 0.100094)
(2.04092e-06 -6.85068e-09 0.100266)
(-1.8721e-06 -1.99833e-07 0.100094)
(3.41025e-08 -3.15404e-08 0.100269)
(-3.348e-08 3.35299e-08 0.100269)
(3.89614e-08 3.06596e-08 0.100269)
(-3.31122e-08 -3.34247e-08 0.100269)
(3.4357e-08 -3.19279e-08 0.100269)
(-3.36326e-08 3.34342e-08 0.100269)
(3.89355e-08 3.08493e-08 0.100269)
(4.25033e-06 -2.35801e-08 0.100269)
(-2.75368e-06 1.42924e-06 0.100267)
(-3.45754e-08 -1.16678e-08 0.100269)
(-3.1027e-08 5.65105e-08 0.100269)
(-4.26482e-06 2.21993e-08 0.100269)
(2.73065e-06 -1.4359e-06 0.100267)
(-3.42637e-08 -1.2092e-08 0.100269)
(3.08922e-07 -2.83326e-07 0.099671)
(-3.09657e-07 2.79645e-07 0.099671)
(-1.56651e-08 4.24341e-06 0.100269)
(-1.16789e-08 -3.05096e-08 0.100269)
(1.43542e-06 -2.76391e-06 0.100267)
(5.52374e-08 -2.94924e-08 0.100269)
(1.95717e-08 -4.25664e-06 0.100269)
(-1.22812e-08 -3.10607e-08 0.100269)
(-1.43763e-06 2.73992e-06 0.100267)
(-6.61477e-07 -1.35879e-06 0.100261)
(-1.35077e-06 -6.581e-07 0.100261)
(3.54098e-05 3.54287e-05 0.10027)
(6.58975e-07 1.35064e-06 0.100261)
(1.34305e-06 6.54773e-07 0.100261)
(8.46276e-09 -2.03805e-06 0.100266)
(1.97716e-07 1.87716e-06 0.100094)
(-8.11739e-09 2.03546e-06 0.100266)
(-2.02108e-07 -1.87256e-06 0.100094)
(-2.8374e-07 3.46606e-07 0.0996711)
(2.77337e-07 -3.49112e-07 0.0996711)
(-2.04814e-06 6.59763e-09 0.100266)
(1.87067e-06 1.90386e-07 0.100094)
(2.04259e-06 -7.11838e-09 0.100266)
(-1.87217e-06 -2.00666e-07 0.100094)
(3.42903e-08 -3.18777e-08 0.100269)
(-3.37439e-08 3.33036e-08 0.100269)
(3.91968e-08 3.06342e-08 0.100269)
(-3.31117e-08 -3.3853e-08 0.100269)
(3.4565e-08 -3.20732e-08 0.100269)
(-3.40293e-08 3.39844e-08 0.100269)
(3.92638e-08 3.08672e-08 0.100269)
(4.25184e-06 -2.20667e-08 0.100269)
(-2.75423e-06 1.42836e-06 0.100267)
(-3.29812e-08 -1.19256e-08 0.100269)
(-2.97787e-08 5.51506e-08 0.100269)
(-4.26537e-06 2.20146e-08 0.100269)
(2.73213e-06 -1.43578e-06 0.100267)
(-3.2764e-08 -1.21234e-08 0.100269)
(3.09784e-07 -2.82826e-07 0.099671)
(-3.11374e-07 2.78444e-07 0.099671)
(-1.53408e-08 4.24541e-06 0.100269)
(-1.15934e-08 -2.98757e-08 0.100269)
(1.43486e-06 -2.76487e-06 0.100267)
(5.4988e-08 -2.90832e-08 0.100269)
(1.95519e-08 -4.25693e-06 0.100269)
(-1.20589e-08 -3.04921e-08 0.100269)
(-1.43807e-06 2.74219e-06 0.100267)
(-6.62406e-07 -1.35886e-06 0.100261)
(-1.35044e-06 -6.57697e-07 0.100261)
(3.54101e-05 3.54302e-05 0.10027)
(6.60447e-07 1.35101e-06 0.100261)
(1.34334e-06 6.56047e-07 0.100261)
(7.08466e-09 -2.03995e-06 0.100266)
(1.97088e-07 1.87604e-06 0.100094)
(-8.40124e-09 2.03269e-06 0.100266)
(-2.03911e-07 -1.87288e-06 0.100094)
(-2.82163e-07 3.4589e-07 0.0996711)
(2.78925e-07 -3.48242e-07 0.0996711)
(-2.04774e-06 6.01885e-09 0.100266)
(1.86933e-06 1.89383e-07 0.100094)
(2.03886e-06 -6.6375e-09 0.100266)
(-1.87238e-06 -2.01399e-07 0.100094)
(3.45314e-08 -3.19545e-08 0.100269)
(-3.39859e-08 3.36866e-08 0.100269)
(3.95304e-08 3.0735e-08 0.100269)
(-3.29024e-08 -3.33419e-08 0.100269)
(3.43015e-08 -3.14795e-08 0.100269)
(-3.35413e-08 3.36428e-08 0.100269)
(3.88792e-08 3.07831e-08 0.100269)
(4.25088e-06 -2.23097e-08 0.100269)
(-2.75249e-06 1.42845e-06 0.100267)
(-3.37138e-08 -1.1986e-08 0.100269)
(-3.08812e-08 5.65049e-08 0.100269)
(-4.26407e-06 2.2529e-08 0.100269)
(2.73149e-06 -1.43645e-06 0.100267)
(-3.35056e-08 -1.20931e-08 0.100269)
(3.08087e-07 -2.82946e-07 0.099671)
(-3.10995e-07 2.78549e-07 0.099671)
(-1.62816e-08 4.24381e-06 0.100269)
(-1.15718e-08 -3.09735e-08 0.100269)
(1.43474e-06 -2.76239e-06 0.100267)
(5.68522e-08 -3.02855e-08 0.100269)
(1.86368e-08 -4.25558e-06 0.100269)
(-1.19314e-08 -3.16609e-08 0.100269)
(-1.43896e-06 2.74115e-06 0.100267)
(-6.60674e-07 -1.35799e-06 0.100261)
(-1.34958e-06 -6.56864e-07 0.100261)
(3.54103e-05 3.54303e-05 0.10027)
(6.60032e-07 1.35117e-06 0.100261)
(1.34337e-06 6.55044e-07 0.100261)
(7.81045e-09 -2.03827e-06 0.100266)
(1.98937e-07 1.87817e-06 0.100094)
(-8.08434e-09 2.0359e-06 0.100266)
(-2.01557e-07 -1.87203e-06 0.100094)
(-2.82248e-07 3.47746e-07 0.0996711)
(2.78989e-07 -3.48153e-07 0.0996711)
(-2.04714e-06 5.76997e-09 0.100266)
(1.87114e-06 1.91329e-07 0.100094)
(2.04275e-06 -6.46542e-09 0.100266)
(-1.87179e-06 -1.99826e-07 0.100094)
(3.45665e-08 -3.17365e-08 0.100269)
(-3.40149e-08 3.38239e-08 0.100269)
(3.91214e-08 3.07379e-08 0.100269)
(-3.37694e-08 -3.39227e-08 0.100269)
(3.44984e-08 -3.21811e-08 0.100269)
(-3.42088e-08 3.39425e-08 0.100269)
(3.89851e-08 3.14667e-08 0.100269)
(4.25132e-06 -2.29442e-08 0.100269)
(-2.75406e-06 1.42912e-06 0.100267)
(-3.1998e-08 -1.16263e-08 0.100269)
(-2.90814e-08 5.40482e-08 0.100269)
(-4.26449e-06 2.22045e-08 0.100269)
(2.73051e-06 -1.43559e-06 0.100267)
(-3.1731e-08 -1.18781e-08 0.100269)
(3.09755e-07 -2.82224e-07 0.099671)
(-3.10278e-07 2.80279e-07 0.099671)
(-1.60095e-08 4.24931e-06 0.100269)
(-1.1518e-08 -2.91645e-08 0.100269)
(1.43491e-06 -2.76442e-06 0.100267)
(5.34974e-08 -2.83254e-08 0.100269)
(1.90396e-08 -4.25889e-06 0.100269)
(-1.19396e-08 -2.93827e-08 0.100269)
(-1.43783e-06 2.74062e-06 0.100267)
(-6.61961e-07 -1.35963e-06 0.100261)
(-1.35152e-06 -6.5863e-07 0.100261)
(3.5414e-05 3.54344e-05 0.10027)
(6.58497e-07 1.35079e-06 0.100261)
(1.34341e-06 6.54814e-07 0.100261)
(8.11912e-09 -2.04056e-06 0.100266)
(1.99147e-07 1.87776e-06 0.100094)
(-7.30792e-09 2.03572e-06 0.100266)
(-2.01987e-07 -1.87287e-06 0.100094)
(-2.83068e-07 3.46704e-07 0.0996711)
(2.78032e-07 -3.48611e-07 0.0996711)
(-2.04903e-06 6.24868e-09 0.100266)
(1.87144e-06 1.91339e-07 0.100094)
(2.04204e-06 -5.89214e-09 0.100266)
(-1.87246e-06 -1.99375e-07 0.100094)
(3.44827e-08 -3.20177e-08 0.100269)
(-3.41551e-08 3.39912e-08 0.100269)
(3.9349e-08 3.15871e-08 0.100269)
(-3.38725e-08 -3.39243e-08 0.100269)
(3.46238e-08 -3.25579e-08 0.100269)
(-3.4686e-08 3.43129e-08 0.100269)
(3.87093e-08 3.17107e-08 0.100269)
(4.2536e-06 -2.22262e-08 0.100269)
(-2.754e-06 1.42818e-06 0.100267)
(-3.12335e-08 -1.15603e-08 0.100269)
(-2.94388e-08 5.43617e-08 0.100269)
(-4.26424e-06 2.26054e-08 0.100269)
(2.73273e-06 -1.43688e-06 0.100267)
(-3.11398e-08 -1.20422e-08 0.100269)
(3.09348e-07 -2.83237e-07 0.099671)
(-3.10754e-07 2.78771e-07 0.099671)
(-1.54184e-08 4.25049e-06 0.100269)
(-1.15885e-08 -2.72874e-08 0.100269)
(1.43422e-06 -2.76495e-06 0.100267)
(5.35566e-08 -2.81237e-08 0.100269)
(1.98307e-08 -4.25912e-06 0.100269)
(-1.22622e-08 -2.77003e-08 0.100269)
(-1.43918e-06 2.74289e-06 0.100267)
(-6.62031e-07 -1.35935e-06 0.100261)
(-1.35136e-06 -6.5818e-07 0.100261)
(3.54118e-05 3.54312e-05 0.10027)
(6.59861e-07 1.3516e-06 0.100261)
(1.34379e-06 6.55866e-07 0.100261)
(7.53678e-09 -2.03885e-06 0.100266)
(1.97476e-07 1.87799e-06 0.100094)
(-8.314e-09 2.03361e-06 0.100266)
(-2.03073e-07 -1.8722e-06 0.100094)
(-2.83295e-07 3.47525e-07 0.0996711)
(2.78353e-07 -3.4779e-07 0.0996711)
(-2.04819e-06 6.38606e-09 0.100266)
(1.87118e-06 1.90837e-07 0.100094)
(2.04136e-06 -6.36118e-09 0.100266)
(-1.87215e-06 -2.00415e-07 0.100094)
(3.46618e-08 -3.28929e-08 0.100269)
(-3.47039e-08 3.44006e-08 0.100269)
(3.88222e-08 3.23053e-08 0.100269)
(-3.73323e-08 -3.67616e-08 0.100269)
(3.6459e-08 -3.52251e-08 0.100269)
(-3.64542e-08 3.71187e-08 0.100269)
(3.63882e-08 3.61405e-08 0.100269)
(4.25316e-06 -2.24395e-08 0.100269)
(-2.75331e-06 1.4289e-06 0.100267)
(-3.14214e-08 -1.17305e-08 0.100269)
(-2.9015e-08 5.41063e-08 0.100269)
(-4.26421e-06 2.25202e-08 0.100269)
(2.7314e-06 -1.43549e-06 0.100267)
(-2.9732e-08 -1.22098e-08 0.100269)
(3.09918e-07 -2.83336e-07 0.099671)
(-3.09647e-07 2.7936e-07 0.099671)
(-1.63193e-08 4.24907e-06 0.100269)
(-1.18428e-08 -2.83844e-08 0.100269)
(1.43467e-06 -2.76396e-06 0.100267)
(5.38545e-08 -2.87109e-08 0.100269)
(1.90956e-08 -4.2589e-06 0.100269)
(-1.22166e-08 -2.87535e-08 0.100269)
(-1.43854e-06 2.74159e-06 0.100267)
(-6.60635e-07 -1.35915e-06 0.100261)
(-1.35206e-06 -6.57239e-07 0.100261)
(3.54129e-05 3.5433e-05 0.10027)
(6.59758e-07 1.35106e-06 0.100261)
(1.34277e-06 6.56113e-07 0.100261)
(3.9086e-09 -2.04827e-06 0.100266)
(1.95832e-07 1.87839e-06 0.100094)
(-9.39362e-09 2.03101e-06 0.100266)
(-2.06291e-07 -1.87144e-06 0.100094)
(-2.82233e-07 3.46803e-07 0.0996711)
(2.78783e-07 -3.49019e-07 0.0996711)
(-2.05782e-06 8.25703e-09 0.100266)
(1.85359e-06 1.8779e-07 0.100094)
(2.03626e-06 -6.33793e-09 0.100266)
(-1.85219e-06 -1.97347e-07 0.100094)
(3.89716e-08 -3.67943e-08 0.100269)
(-3.97351e-08 4.00186e-08 0.100269)
(3.83993e-08 3.77245e-08 0.100269)
(-1.07678e-07 -1.05245e-07 0.100269)
(1.03207e-07 -9.9619e-08 0.100269)
(-1.06511e-07 1.04924e-07 0.100269)
(1.07484e-07 1.11065e-07 0.100269)
(4.26939e-06 -2.22075e-08 0.100269)
(-2.75235e-06 1.42677e-06 0.100267)
(-2.46881e-08 -1.38526e-08 0.100269)
(-2.51039e-08 4.51892e-08 0.100269)
(-4.26086e-06 2.26681e-08 0.100269)
(2.7413e-06 -1.43966e-06 0.100267)
(-1.50652e-08 -1.79732e-08 0.100269)
(3.08959e-07 -2.81923e-07 0.099671)
(-3.11185e-07 2.80633e-07 0.0996711)
(-1.81591e-08 4.26568e-06 0.100269)
(-1.49771e-08 -2.2369e-08 0.100269)
(1.43172e-06 -2.76657e-06 0.100267)
(4.31409e-08 -2.22834e-08 0.100269)
(1.76337e-08 -4.25475e-06 0.100269)
(-2.01291e-08 -1.38781e-08 0.100269)
(-1.43352e-06 2.75664e-06 0.100267)
(-6.59888e-07 -1.35794e-06 0.100261)
(-1.35102e-06 -6.55334e-07 0.100261)
(3.54218e-05 3.54419e-05 0.10027)
(6.64732e-07 1.35631e-06 0.100261)
(1.34697e-06 6.62858e-07 0.100261)
(-1.93772e-08 -2.26098e-06 0.100267)
(1.86023e-07 1.87154e-06 0.100094)
(-2.03839e-08 1.97488e-06 0.100266)
(-2.29311e-07 -1.8805e-06 0.100095)
(-2.72808e-07 3.33725e-07 0.0996709)
(4.24711e-07 -4.69984e-07 0.0996714)
(-2.26373e-06 -1.23974e-08 0.100267)
(1.84326e-06 1.87057e-07 0.100094)
(1.96767e-06 -1.01256e-08 0.100266)
(-1.89004e-06 -2.14036e-07 0.100095)
(1.97373e-07 -1.97749e-07 0.100269)
(-2.03491e-07 2.01675e-07 0.100269)
(2.00801e-07 2.0455e-07 0.100269)
(-2.20884e-06 -2.17468e-06 0.100267)
(2.18729e-06 -2.17259e-06 0.100267)
(-2.19327e-06 2.20131e-06 0.100267)
(2.18607e-06 2.20913e-06 0.100267)
(4.76605e-06 -4.22029e-08 0.10027)
(-2.66385e-06 1.40348e-06 0.100267)
(1.62631e-07 -5.48515e-08 0.100269)
(2.90452e-07 -1.51587e-07 0.100269)
(-4.11637e-06 1.02049e-08 0.100269)
(3.07205e-06 -1.5453e-06 0.100268)
(4.19544e-07 -1.17703e-07 0.100269)
(3.15008e-07 -2.69656e-07 0.0996712)
(-3.3725e-07 3.07701e-07 0.0996715)
(-4.09061e-08 4.76941e-06 0.10027)
(-6.21487e-08 1.7176e-07 0.100269)
(1.40456e-06 -2.67745e-06 0.100267)
(-1.56851e-07 2.91875e-07 0.100269)
(2.10774e-09 -4.1061e-06 0.100269)
(-1.28825e-07 4.21505e-07 0.100269)
(-1.55646e-06 3.08554e-06 0.100268)
(-6.19644e-07 -1.32665e-06 0.100262)
(-1.34199e-06 -6.06839e-07 0.100262)
(3.56271e-05 3.56663e-05 0.10027)
(8.22842e-07 1.44198e-06 0.100262)
(1.43091e-06 8.26625e-07 0.100262)
(-1.05271e-06 -1.00956e-05 0.100277)
(-2.11254e-07 1.6936e-06 0.100098)
(-1.97601e-07 1.80249e-07 0.100269)
(-1.6517e-06 -3.95721e-06 0.100111)
(5.9347e-08 6.65078e-08 0.099675)
(1.00284e-06 -1.33346e-06 0.0996894)
(-1.01168e-05 -1.04258e-06 0.100277)
(1.62668e-06 -2.99298e-07 0.100098)
(2.00407e-07 -2.02931e-07 0.100269)
(-4.09783e-06 -1.92237e-06 0.100111)
(4.77482e-06 -4.74518e-06 0.100264)
(-4.77692e-06 4.79098e-06 0.100264)
(4.76751e-06 4.79966e-06 0.100264)
(-3.05557e-05 -3.04845e-05 0.100208)
(3.05548e-05 -3.04888e-05 0.100208)
(-3.0548e-05 3.05543e-05 0.100208)
(3.05531e-05 3.05632e-05 0.100208)
(2.09199e-05 -1.40809e-06 0.100274)
(6.08883e-07 6.4618e-07 0.100271)
(4.57858e-06 -1.38425e-06 0.100266)
(9.19989e-06 -4.92005e-06 0.100266)
(8.97581e-07 -2.32792e-07 0.100272)
(1.42131e-05 -5.84187e-06 0.10028)
(1.05868e-05 -3.09648e-06 0.100261)
(4.6654e-08 1.20273e-07 0.0996751)
(-1.5667e-06 1.11003e-06 0.0996891)
(-1.41136e-06 2.08883e-05 0.100274)
(-1.40788e-06 4.54037e-06 0.100266)
(6.39687e-07 6.01586e-07 0.100271)
(-4.94229e-06 9.19035e-06 0.100266)
(-2.6081e-07 9.00504e-07 0.100272)
(-3.11518e-06 1.05317e-05 0.100261)
(-5.8417e-06 1.42422e-05 0.10028)
(9.19194e-07 -6.10469e-07 0.100266)
(-6.38265e-07 9.34188e-07 0.100266)
(4.11413e-05 4.12321e-05 0.10027)
(6.01925e-06 4.87619e-06 0.100278)
(4.70735e-06 6.15166e-06 0.100278)
(-2.66123e-06 -8.27247e-05 0.100025)
(-0.000246306 -0.000497625 0.0999993)
(-3.52784e-05 -0.000121278 0.100231)
(-5.27854e-05 -7.52472e-05 0.10003)
(0.000313066 -0.000604745 0.0996534)
(5.32854e-05 -9.25676e-05 0.100012)
(-8.28302e-05 -2.73519e-06 0.100025)
(-0.000498198 -0.000245562 0.0999994)
(-0.000122098 -3.53185e-05 0.100231)
(-7.54058e-05 -5.26947e-05 0.100029)
(-3.17235e-06 -3.14559e-06 0.100121)
(-1.05656e-05 -3.19104e-05 0.100168)
(-3.20052e-05 -1.05138e-05 0.100168)
(-2.86467e-05 -2.85798e-05 0.100102)
(-9.95197e-06 -9.89694e-06 0.100169)
(-3.75173e-06 -2.39556e-05 0.100111)
(-2.40175e-05 -3.73028e-06 0.100111)
(7.45793e-05 -5.54186e-06 0.10005)
(0.000188469 -9.91388e-05 0.100223)
(6.18299e-05 -1.65965e-05 0.100167)
(4.17692e-05 -3.22966e-05 0.100084)
(0.000105659 -2.00637e-05 0.100205)
(7.07166e-05 -5.27478e-05 0.100035)
(3.37875e-05 -4.45992e-06 0.100096)
(-0.00060509 0.000312769 0.0996534)
(-9.25883e-05 5.32739e-05 0.100011)
(-5.52013e-06 7.45309e-05 0.10005)
(-1.66235e-05 6.18245e-05 0.100167)
(-9.93602e-05 0.00018843 0.100223)
(-3.23501e-05 4.17625e-05 0.100084)
(-2.00327e-05 0.000105621 0.100205)
(-4.47488e-06 3.37868e-05 0.100096)
(-5.28005e-05 7.05996e-05 0.100035)
(0.000245854 1.71979e-05 0.100279)
(1.71264e-05 0.000246134 0.100279)
(4.48065e-05 4.48267e-05 0.100072)
(6.94556e-05 6.287e-05 0.100021)
(6.28184e-05 6.93973e-05 0.100021)
(1.91059e-07 -1.85707e-06 0.100094)
(1.42849e-06 -2.74052e-06 0.100267)
(2.8443e-07 -3.43659e-07 0.0996711)
(1.35246e-06 -6.61628e-07 0.100261)
(6.25562e-07 -1.38211e-06 0.100261)
(2.92378e-07 -3.02953e-07 0.0996711)
(2.7158e-06 -1.4257e-06 0.100267)
(1.83365e-06 -1.5379e-07 0.100094)
(2.74852e-07 3.31805e-07 0.0996712)
(-2.85852e-07 -3.29099e-07 0.0996711)
(-3.41207e-07 -2.85345e-07 0.0996711)