/*--------------------------------*- C++ -*----------------------------------*\
| =========                 |                                                 |
| \\      /  F ield         | OpenFOAM: The Open Source CFD Toolbox           |
|  \\    /   O peration     | Version:  2206                                  |
|   \\  /    A nd           | Website:  www.openfoam.com                      |
|    \\/     M anipulation  |                                                 |
\*---------------------------------------------------------------------------*/
FoamFile
{
    version     2.0;
    format      ascii;
    arch        "LSB;label=32;scalar=64";
    class       surfaceScalarField;
    location    "26";
    object      phi;
}
// * * * * * * * * * * * * * * * * * * * * * * * * * * * * * * * * * * * * * //

dimensions      [0 3 -1 0 0 0 0];

oriented        oriented;

internalField   nonuniform List<scalar> 
83378
(
-0.00108369
-1.20052e-06
-1.53545e-09
2.65163e-09
0.00108369
-2.49369e-07
1.20304e-06
2.4831e-07
8.85762e-07
-2.48883e-07
-8.85494e-07
2.4603e-07
1.22873e-06
1.19525e-06
-2.28169e-07
-2.33438e-07
0.000264353
1.51795e-09
1.55409e-09
-0.00108359
-1.465e-09
-1.55065e-09
0.00108359
-0.00108369
-1.20049e-06
-1.65946e-09
2.57523e-09
0.00108369
-2.4933e-07
1.20305e-06
2.48336e-07
8.85792e-07
-2.4881e-07
-8.85447e-07
2.46088e-07
-0.00108335
-1.19512e-06
-1.63139e-09
2.6689e-09
0.00108335
-2.49346e-07
1.19762e-06
2.48326e-07
8.85618e-07
-2.51474e-07
-8.85326e-07
2.48761e-07
-0.000266315
1.22872e-06
1.19523e-06
-2.2814e-07
-2.33417e-07
0.000264353
1.62937e-09
1.67411e-09
-0.00108359
-1.51466e-09
-1.59343e-09
0.00108359
-0.00108369
-1.20046e-06
-1.74799e-09
2.54959e-09
0.00108369
-2.49295e-07
1.20308e-06
2.48379e-07
8.85837e-07
-2.48766e-07
-8.85415e-07
2.46146e-07
-0.00108335
-1.1951e-06
-1.76518e-09
2.61153e-09
0.00108335
-2.49312e-07
1.19765e-06
2.48363e-07
8.85669e-07
-2.51414e-07
-8.85291e-07
2.48834e-07
-0.000266315
1.22868e-06
1.1952e-06
-2.28105e-07
-2.33378e-07
0.000264352
1.8261e-09
1.97516e-09
-0.00108359
-1.67719e-09
-1.66882e-09
0.00108358
-0.00108369
-1.20041e-06
-1.84548e-09
2.5222e-09
0.00108369
-2.49257e-07
1.20313e-06
2.48428e-07
8.85904e-07
-2.48704e-07
-8.85367e-07
2.46225e-07
-0.00108335
-1.19505e-06
-2.00129e-09
2.4604e-09
0.00108335
-2.4926e-07
1.19771e-06
2.48436e-07
8.85733e-07
-2.51366e-07
-8.8525e-07
2.48911e-07
-0.000266314
1.22863e-06
1.19516e-06
-2.2806e-07
-2.33332e-07
0.000264352
2.19551e-09
2.32912e-09
-0.00108358
-1.90993e-09
-1.77359e-09
0.00108358
-0.00108369
-1.20031e-06
-2.18732e-09
2.35475e-09
0.00108369
-2.49178e-07
1.20327e-06
2.4853e-07
8.86062e-07
-2.4863e-07
-8.85274e-07
2.46352e-07
-0.00108335
-1.19503e-06
-2.31186e-09
2.27156e-09
0.00108335
-2.4919e-07
1.19779e-06
2.48528e-07
8.8585e-07
-2.51323e-07
-8.85207e-07
2.49023e-07
-0.000266314
1.22854e-06
1.1951e-06
-2.28011e-07
-2.33249e-07
0.000264351
-7.24141e-11
6.03222e-10
-0.00108358
-1.08899e-09
-7.76791e-10
0.00108358
-0.00108369
-1.20086e-06
-2.39054e-10
3.0848e-09
0.00108369
-2.49766e-07
1.2028e-06
2.48045e-07
8.85216e-07
-2.49556e-07
-8.86087e-07
2.45393e-07
-0.00108335
-1.1953e-06
-4.01903e-10
2.87361e-09
0.00108335
-2.49535e-07
1.1974e-06
2.48066e-07
8.85121e-07
-2.51962e-07
-8.85826e-07
2.48181e-07
-0.000266313
1.22908e-06
1.19566e-06
-2.28667e-07
-2.33885e-07
0.000264351
1.69061e-09
1.33787e-09
-0.00108359
-1.35626e-09
-1.70234e-09
0.00108359
-0.00108369
-1.20035e-06
-1.84615e-09
2.1777e-09
0.00108369
-2.49182e-07
1.20306e-06
2.48369e-07
8.8532e-07
-2.48087e-07
-8.85003e-07
2.45011e-07
-0.00108335
-1.19511e-06
-1.5584e-09
2.59715e-09
0.00108335
-2.49314e-07
1.19756e-06
2.48274e-07
8.8506e-07
-2.50889e-07
-8.84972e-07
2.47575e-07
-0.000266315
1.22859e-06
1.19507e-06
-2.27935e-07
-2.33251e-07
0.000264353
1.34731e-09
1.45076e-09
-0.00108359
-1.73575e-09
-1.76005e-09
0.00108359
-0.00108369
-1.19967e-06
-1.4665e-09
2.30638e-09
0.0010837
-2.48244e-07
1.20208e-06
2.46823e-07
8.83087e-07
-2.44721e-07
-8.83002e-07
2.41807e-07
-0.00108335
-1.19427e-06
-1.50193e-09
2.28523e-09
0.00108335
-2.48183e-07
1.19669e-06
2.46824e-07
8.82917e-07
-2.47361e-07
-8.82882e-07
2.44497e-07
-0.000266316
1.22789e-06
1.19441e-06
-2.26522e-07
-2.31802e-07
0.000264352
-2.59571e-09
-2.49348e-09
-0.00108359
-4.2387e-11
-3.3782e-11
0.00108359
-0.00108369
-1.19992e-06
2.48193e-09
4.1292e-09
0.00108369
-2.47952e-07
1.20183e-06
2.46522e-07
8.85366e-07
-2.4696e-07
-8.86414e-07
2.42321e-07
-0.00108335
-1.19454e-06
2.4602e-09
4.12682e-09
0.00108335
-2.47914e-07
1.19642e-06
2.46507e-07
8.85181e-07
-2.49595e-07
-8.86267e-07
2.44998e-07
-0.000266316
1.22814e-06
1.19466e-06
-2.26575e-07
-2.31846e-07
0.000264352
-6.76039e-09
-6.66017e-09
-0.00108358
6.72524e-10
7.16118e-10
0.0010836
-0.0010837
-1.19768e-06
6.65899e-09
6.10166e-09
0.00108369
-2.44026e-07
1.19893e-06
2.41673e-07
8.78262e-07
-2.37355e-07
-8.80288e-07
2.31969e-07
-0.00108336
-1.1923e-06
6.63044e-09
6.10196e-09
0.00108335
-2.4403e-07
1.19353e-06
2.41693e-07
8.78082e-07
-2.40038e-07
-8.80103e-07
2.3466e-07
-0.00026632
1.22589e-06
1.19241e-06
-2.21391e-07
-2.26657e-07
0.00026435
-1.04942e-09
-8.79606e-10
-0.00108358
-3.23832e-09
-8.23957e-09
0.0010836
-0.0010837
-1.19332e-06
5.95071e-09
2.56455e-09
0.0010837
-2.38275e-07
1.1949e-06
2.38646e-07
8.7089e-07
-2.28007e-07
-8.74301e-07
2.18295e-07
-0.00108337
-1.18525e-06
8.71243e-10
7.56243e-09
0.00108337
-2.3821e-07
1.18683e-06
2.35932e-07
8.68042e-07
-2.27951e-07
-8.71431e-07
2.21007e-07
-0.00026633
1.22417e-06
1.18803e-06
-2.11277e-07
-2.16488e-07
0.000264345
8.21805e-07
8.28774e-07
-0.00108344
-7.05327e-07
-6.95222e-07
0.00108319
-0.00108397
-1.09736e-06
-8.22979e-07
-3.6206e-07
0.00108427
-1.55267e-07
1.35269e-06
3.29314e-07
1.01364e-06
-1.18112e-07
-7.62569e-07
3.15016e-07
-0.00108364
-1.08919e-06
-8.33645e-07
-3.72938e-07
0.00108397
-1.55123e-07
1.34742e-06
3.32164e-07
1.0107e-06
-1.23521e-07
-7.5968e-07
3.17735e-07
-0.000266406
1.13089e-06
1.08935e-06
-1.22052e-07
-1.24573e-07
0.000264432
4.96158e-06
4.95493e-06
-0.00106951
-1.05738e-05
-1.04769e-05
0.000259611
0.000263004
0.000262081
0.000262081
4.02343e-06
6.30581e-06
6.60162e-06
4.02716e-06
6.30655e-06
6.60497e-06
-0.000268095
5.12398e-06
-4.95231e-06
5.71736e-06
-3.25291e-06
0.000265459
-0.000268072
-4.95451e-06
5.1292e-06
-3.2608e-06
5.71441e-06
0.000265443
-0.000266852
-5.121e-06
-5.13201e-06
5.73657e-06
5.72472e-06
0.000265644
1.24197e-06
0.00108335
-1.2395e-06
2.56447e-07
-2.57571e-07
2.48703e-07
-2.51708e-07
-1.20304e-06
0.00026636
-0.000264379
2.3089e-07
2.33177e-07
-1.20051e-06
2.48313e-07
-2.49362e-07
2.4602e-07
-2.48889e-07
-1.23652e-06
-1.2004e-06
0.000266331
-0.000264358
2.28133e-07
2.35898e-07
2.80042e-09
0.00108291
-2.54796e-07
2.53646e-07
8.85664e-07
-2.48856e-07
-8.85463e-07
2.45925e-07
-1.2395e-06
-1.32053e-09
2.79436e-09
0.00108335
-2.57578e-07
1.24197e-06
2.56445e-07
8.91241e-07
-2.51703e-07
-8.91075e-07
2.48714e-07
0.00108291
-1.55136e-09
-0.00108291
2.80721e-09
-1.23406e-06
2.53653e-07
-2.54786e-07
-8.85403e-07
2.45991e-07
-2.48785e-07
8.85714e-07
1.24198e-06
0.00108335
-1.42098e-09
-0.00108335
2.72032e-09
-1.23948e-06
2.56471e-07
-2.57544e-07
-8.9103e-07
2.48766e-07
-2.51639e-07
8.91273e-07
-2.28382e-07
-2.30685e-07
0.000264379
-1.20305e-06
0.00026636
-0.000264379
2.30914e-07
2.33199e-07
0.00108396
-1.54553e-09
-0.00108396
2.59469e-09
-1.19789e-06
2.51121e-07
-2.52135e-07
-8.88186e-07
2.48818e-07
-2.51624e-07
8.88545e-07
1.23658e-06
0.00108302
-1.38721e-09
-0.00108302
2.8058e-09
-1.23412e-06
2.56425e-07
-2.57562e-07
-8.88183e-07
2.48723e-07
-2.51587e-07
8.88391e-07
-1.41312e-09
2.78948e-09
0.00108282
-2.52003e-07
1.23119e-06
2.50915e-07
8.85678e-07
-2.48866e-07
2.45917e-07
-8.85513e-07
-1.6461e-09
-0.00108369
2.58187e-09
-1.20049e-06
2.48336e-07
-2.49334e-07
-8.85448e-07
2.46081e-07
8.85794e-07
-2.48822e-07
1.2312e-06
0.00108282
-1.50878e-09
-0.00108282
2.77597e-09
-1.22872e-06
2.50926e-07
-2.51991e-07
-8.85465e-07
2.45974e-07
-2.48804e-07
8.85715e-07
-1.19762e-06
0.00026631
-0.00026434
2.28308e-07
2.35694e-07
-1.37743e-09
2.62854e-09
0.00108387
-2.49426e-07
1.19772e-06
2.48366e-07
8.85863e-07
-2.51673e-07
2.48744e-07
-8.85616e-07
-1.63408e-09
-0.00108335
2.67822e-09
-1.19513e-06
2.48321e-07
-2.49354e-07
-8.85279e-07
2.48732e-07
8.85678e-07
-2.5151e-07
1.19773e-06
0.00108386
-1.45095e-09
-0.00108387
2.57566e-09
-1.19524e-06
2.48383e-07
-2.49407e-07
-8.85576e-07
2.48797e-07
-2.51615e-07
8.85894e-07
-0.000264353
2.30642e-07
2.35932e-07
1.23405e-06
1.19788e-06
-2.25622e-07
-2.33385e-07
0.000264358
-1.23655e-06
-1.20042e-06
0.000266331
-0.000264358
2.28162e-07
2.35932e-07
2.80708e-09
0.00108291
-2.54779e-07
1.23653e-06
2.53659e-07
8.85687e-07
-2.48783e-07
-8.85421e-07
2.45987e-07
-1.23947e-06
-1.43355e-09
2.70807e-09
0.00108335
-2.57538e-07
1.24199e-06
2.56473e-07
8.91268e-07
-2.51631e-07
-8.9103e-07
2.48768e-07
0.00108291
-1.6762e-09
-0.00108291
2.74849e-09
-1.23403e-06
2.53688e-07
-2.54752e-07
-8.85379e-07
2.4605e-07
-2.48734e-07
8.85754e-07
1.24202e-06
0.00108335
-1.52744e-09
-0.00108335
2.65742e-09
-1.23945e-06
2.56513e-07
-2.57506e-07
-8.91005e-07
2.4882e-07
-2.51591e-07
8.91308e-07
-2.2835e-07
-2.30652e-07
0.000264379
-1.20308e-06
0.000266359
-0.000264379
2.30955e-07
2.3324e-07
2.58865e-09
0.00108396
-2.52126e-07
1.2004e-06
2.51125e-07
8.88547e-07
-2.51615e-07
-8.88176e-07
2.48829e-07
-1.23411e-06
-1.41492e-09
2.80268e-09
0.00108302
-2.57551e-07
1.23658e-06
2.5643e-07
8.88394e-07
-2.5157e-07
-8.88172e-07
2.48734e-07
0.00108396
-1.65323e-09
-0.00108396
2.54198e-09
-1.19786e-06
2.51154e-07
-2.52103e-07
-8.88174e-07
2.4887e-07
-2.51577e-07
8.88562e-07
1.2366e-06
0.00108302
-1.48158e-09
-0.00108302
2.75366e-09
-1.2341e-06
2.56453e-07
-2.57533e-07
-8.88168e-07
2.48768e-07
-2.51547e-07
8.88413e-07
-1.51865e-09
2.77594e-09
0.00108282
-2.51984e-07
1.2312e-06
2.50929e-07
8.8571e-07
-2.48794e-07
2.45981e-07
-8.85465e-07
-1.76334e-09
-0.00108369
2.52976e-09
-1.20046e-06
2.48375e-07
-2.493e-07
-8.8542e-07
2.46139e-07
8.85832e-07
-2.48771e-07
1.23123e-06
0.00108282
-1.63745e-09
-0.00108282
2.71195e-09
-1.22869e-06
2.50966e-07
-2.51955e-07
-8.8544e-07
2.46039e-07
-2.48748e-07
8.85752e-07
-2.25819e-07
-2.33189e-07
0.00026434
-1.19763e-06
0.00026631
-0.000264339
2.28334e-07
2.35726e-07
-1.44084e-09
2.56707e-09
0.00108386
-2.49398e-07
1.19773e-06
2.48388e-07
8.85885e-07
-2.51608e-07
2.48799e-07
-8.85577e-07
-1.75945e-09
-0.00108335
2.63543e-09
-1.19511e-06
2.48349e-07
-2.49327e-07
-8.85259e-07
2.48793e-07
8.85707e-07
-2.51456e-07
1.19776e-06
0.00108386
-1.59643e-09
-0.00108386
2.50713e-09
-1.19521e-06
2.48423e-07
-2.4937e-07
-8.85536e-07
2.48862e-07
-2.51559e-07
8.85947e-07
-0.000264352
2.30679e-07
2.35972e-07
1.23403e-06
1.19785e-06
-2.2559e-07
-2.33353e-07
0.000264358
-1.23659e-06
-1.20047e-06
0.00026633
-0.000264357
2.28224e-07
2.3599e-07
2.75219e-09
0.00108291
-2.54748e-07
1.23655e-06
2.53693e-07
8.85751e-07
-2.48732e-07
-8.85375e-07
2.4605e-07
-1.23945e-06
-1.52248e-09
2.67741e-09
0.00108335
-2.57502e-07
1.24201e-06
2.56516e-07
8.91314e-07
-2.51585e-07
-8.90999e-07
2.4883e-07
0.00108291
-1.94999e-09
-0.00108291
2.62917e-09
-1.23399e-06
2.53745e-07
-2.54709e-07
-8.85315e-07
2.46137e-07
-2.48667e-07
8.85825e-07
1.24208e-06
0.00108335
-1.79007e-09
-0.00108335
2.55257e-09
-1.2394e-06
2.56578e-07
-2.57459e-07
-8.90939e-07
2.48928e-07
-2.51512e-07
8.91394e-07
-2.28314e-07
-2.3062e-07
0.000264379
-1.20315e-06
0.000266359
-0.000264378
2.31021e-07
2.33309e-07
2.53592e-09
0.00108396
-2.5209e-07
1.20043e-06
2.51171e-07
8.88583e-07
-2.51567e-07
-8.88154e-07
2.48884e-07
-1.23408e-06
-1.55883e-09
2.73403e-09
0.00108302
-2.57514e-07
1.23661e-06
2.56472e-07
8.88448e-07
-2.51517e-07
-8.88135e-07
2.48801e-07
0.00108396
-1.88119e-09
-0.00108396
2.44468e-09
-1.19782e-06
2.51212e-07
-2.52053e-07
-8.88118e-07
2.48942e-07
-2.51524e-07
8.88632e-07
1.23664e-06
0.00108302
-1.6696e-09
-0.00108302
2.68081e-09
-1.23406e-06
2.56504e-07
-2.57484e-07
-8.88117e-07
2.48845e-07
-2.51481e-07
8.88471e-07
-1.61887e-09
2.71908e-09
0.00108282
-2.51948e-07
1.23123e-06
2.50969e-07
8.85755e-07
-2.48741e-07
2.46042e-07
-8.8543e-07
-2.01037e-09
-0.00108369
2.41071e-09
-1.20042e-06
2.48442e-07
-2.49251e-07
-8.85357e-07
2.46246e-07
8.85916e-07
-2.48693e-07
1.23127e-06
0.00108282
-1.8946e-09
-0.00108282
2.59931e-09
-1.22865e-06
2.51018e-07
-2.51913e-07
-8.85384e-07
2.46118e-07
-2.4869e-07
8.85817e-07
-2.2579e-07
-2.33156e-07
0.000264339
-1.19767e-06
0.000266309
-0.000264339
2.28393e-07
2.3578e-07
-1.57367e-09
2.51873e-09
0.00108386
-2.49365e-07
1.19776e-06
2.48426e-07
8.85947e-07
-2.51551e-07
2.48865e-07
-8.85525e-07
-1.97495e-09
-0.00108335
2.55684e-09
-1.19507e-06
2.484e-07
-2.49283e-07
-8.85206e-07
2.48866e-07
8.85768e-07
-2.51391e-07
1.19781e-06
0.00108386
-1.85783e-09
-0.00108386
2.40179e-09
-1.19517e-06
2.48477e-07
-2.49328e-07
-8.85493e-07
2.48938e-07
-2.51504e-07
8.86e-07
-0.000264352
2.30733e-07
2.36026e-07
1.23397e-06
1.19781e-06
-2.25544e-07
-2.33295e-07
0.000264357
-1.23665e-06
-1.20045e-06
0.00026633
-0.000264357
2.28225e-07
2.3606e-07
2.58494e-09
0.00108291
-2.54687e-07
1.23663e-06
2.5378e-07
8.85822e-07
-2.48669e-07
-8.85331e-07
2.46144e-07
-1.2394e-06
-1.63928e-09
2.67327e-09
0.00108335
-2.57466e-07
1.24207e-06
2.56562e-07
8.91383e-07
-2.51524e-07
-8.90948e-07
2.48907e-07
0.00108291
-2.00687e-09
-0.00108291
2.52618e-09
-1.23397e-06
2.53819e-07
-2.5469e-07
-8.85344e-07
2.46172e-07
-2.48678e-07
8.85847e-07
1.24219e-06
0.00108334
-2.09081e-09
-0.00108334
2.3978e-09
-1.23935e-06
2.56681e-07
-2.57418e-07
-8.90901e-07
2.49034e-07
-2.51469e-07
8.91497e-07
-2.28255e-07
-2.30556e-07
0.000264378
-1.20326e-06
0.000266359
-0.000264378
2.31142e-07
2.3342e-07
2.43392e-09
0.00108396
-2.52044e-07
1.20049e-06
2.5123e-07
8.88672e-07
-2.5149e-07
-8.88087e-07
2.48999e-07
-1.23404e-06
-1.84437e-09
2.62056e-09
0.00108302
-2.57472e-07
1.23666e-06
2.56528e-07
8.88508e-07
-2.51456e-07
-8.88088e-07
2.48886e-07
0.00108396
-1.94953e-09
-0.00108396
2.50706e-09
-1.19786e-06
2.51204e-07
-2.52088e-07
-8.88092e-07
2.49026e-07
-2.51489e-07
8.88684e-07
1.23662e-06
0.00108302
-1.64463e-09
-0.00108302
2.73415e-09
-1.23407e-06
2.56492e-07
-2.57505e-07
-8.88101e-07
2.48878e-07
-2.51472e-07
8.88495e-07
-1.80426e-09
2.57862e-09
0.00108282
-2.51897e-07
1.23131e-06
2.51051e-07
8.85832e-07
-2.48682e-07
2.4614e-07
-8.85386e-07
-2.2733e-09
-0.00108369
2.23313e-09
-1.20036e-06
2.48552e-07
-2.49205e-07
-8.85327e-07
2.46342e-07
8.8601e-07
-2.48658e-07
1.23133e-06
0.00108282
-1.95399e-09
-0.00108282
2.50814e-09
-1.22865e-06
2.51084e-07
-2.51909e-07
-8.85406e-07
2.46167e-07
-2.48697e-07
8.85853e-07
-2.25735e-07
-2.33111e-07
0.000264339
-1.1977e-06
0.000266311
-0.000264339
2.28436e-07
2.33242e-07
-1.81644e-09
2.42672e-09
0.00108386
-2.49314e-07
1.19783e-06
2.48505e-07
8.86027e-07
-2.51489e-07
2.48971e-07
-8.85486e-07
-1.97224e-09
-0.00108335
2.5342e-09
-1.19506e-06
2.48399e-07
-2.49281e-07
-8.85223e-07
2.48891e-07
8.85783e-07
-2.51403e-07
1.19783e-06
0.00108386
-2.01679e-09
-0.00108386
2.4136e-09
-1.1952e-06
2.48508e-07
-2.49354e-07
-8.85483e-07
2.49015e-07
-2.51486e-07
8.86069e-07
-0.000264351
2.30756e-07
2.36081e-07
1.23388e-06
1.19779e-06
-2.25525e-07
-2.33229e-07
0.000264357
-1.23641e-06
-1.20005e-06
0.000266329
-0.000264356
2.27715e-07
2.35773e-07
2.20639e-09
0.00108291
-2.54586e-07
1.23677e-06
2.53935e-07
8.85958e-07
-2.48619e-07
-8.85272e-07
2.46269e-07
-1.2393e-06
-2.02201e-09
2.53377e-09
0.00108334
-2.57395e-07
1.24219e-06
2.56657e-07
8.91553e-07
-2.51437e-07
-8.90844e-07
2.4905e-07
0.00108291
1.19077e-11
-0.00108291
2.97808e-09
-1.23412e-06
2.53471e-07
-2.54952e-07
-8.85851e-07
2.45449e-07
-2.49229e-07
8.85211e-07
1.2416e-06
0.00108334
1.46814e-10
-0.00108334
3.79768e-09
-1.2399e-06
2.56015e-07
-2.58063e-07
-8.91534e-07
2.48136e-07
-2.52243e-07
8.90745e-07
-2.28137e-07
-2.30451e-07
0.000264378
-1.20267e-06
0.000266358
-0.000264377
2.30434e-07
2.32715e-07
2.33552e-09
0.00108396
-2.52035e-07
1.20057e-06
2.51304e-07
8.88782e-07
-2.51413e-07
-8.88032e-07
2.49114e-07
-1.23405e-06
-2.04089e-09
2.51227e-09
0.00108302
-2.57475e-07
1.23671e-06
2.56589e-07
8.88583e-07
-2.51429e-07
-8.88071e-07
2.48972e-07
0.00108395
-1.22437e-09
-0.00108395
3.49587e-09
-1.19817e-06
2.50719e-07
-2.52479e-07
-8.88219e-07
2.48734e-07
-2.51671e-07
8.88449e-07
1.23647e-06
0.00108302
-1.32161e-09
-0.00108302
3.03227e-09
-1.23415e-06
2.56303e-07
-2.57618e-07
-8.88157e-07
2.48703e-07
-2.51541e-07
8.88343e-07
-2.16255e-09
2.20913e-09
0.00108282
-2.51801e-07
1.23147e-06
2.51205e-07
8.85976e-07
-2.48617e-07
2.4627e-07
-8.85316e-07
4.63922e-11
-0.00108369
3.55908e-09
-1.2009e-06
2.47888e-07
-2.49841e-07
-8.85961e-07
2.45446e-07
8.85255e-07
-2.4943e-07
1.23093e-06
0.00108282
3.14231e-11
-0.00108281
3.2678e-09
-1.22895e-06
2.50611e-07
-2.52284e-07
-8.85904e-07
2.45457e-07
-2.49243e-07
8.85227e-07
-2.25708e-07
-2.3058e-07
0.000264338
-1.19765e-06
0.000266311
-0.000264338
2.28323e-07
2.33009e-07
-2.34598e-09
2.25214e-09
0.00108386
-2.4926e-07
1.19795e-06
2.48614e-07
8.86209e-07
-2.51391e-07
2.49134e-07
-8.85378e-07
-8.55692e-10
-0.00108335
2.53836e-09
-1.19505e-06
2.48283e-07
-2.49328e-07
-8.85544e-07
2.48488e-07
8.85359e-07
-2.51677e-07
1.19738e-06
0.00108386
-3.492e-10
-0.00108386
3.58093e-09
-1.19555e-06
2.47983e-07
-2.49784e-07
-8.85923e-07
2.48357e-07
-2.51975e-07
8.85492e-07
-0.000264351
2.30228e-07
2.35588e-07
1.2343e-06
1.19834e-06
-2.26168e-07
-2.33685e-07
0.000264356
-1.23639e-06
-1.20043e-06
0.000266331
-0.000264358
2.28061e-07
2.35649e-07
3.16702e-09
0.00108291
-2.55101e-07
1.23627e-06
2.53366e-07
8.85101e-07
-2.49516e-07
-8.86047e-07
2.45224e-07
-1.23985e-06
-3.17628e-11
3.26532e-09
0.00108335
-2.5798e-07
1.24172e-06
2.56173e-07
8.90702e-07
-2.52368e-07
-8.91658e-07
2.48081e-07
0.00108291
-1.07977e-09
-0.00108291
3.30808e-09
-1.23418e-06
2.53542e-07
-2.54881e-07
-8.85329e-07
2.45296e-07
-2.48684e-07
8.85383e-07
1.24201e-06
0.00108335
-1.03554e-09
-0.00108335
2.74449e-09
-1.23941e-06
2.56505e-07
-2.5746e-07
-8.90925e-07
2.48112e-07
-2.51468e-07
8.90962e-07
-2.28852e-07
-2.3116e-07
0.000264378
-1.20306e-06
0.00026636
-0.000264379
2.30837e-07
2.33133e-07
3.42645e-09
0.00108396
-2.52672e-07
1.19998e-06
2.50626e-07
8.8814e-07
-2.51937e-07
-8.88508e-07
2.48402e-07
-1.23441e-06
-5.60879e-10
3.33304e-09
0.00108302
-2.57886e-07
1.23626e-06
2.56063e-07
8.87997e-07
-2.51878e-07
-8.88483e-07
2.48298e-07
0.00108396
-5.14417e-10
-0.00108396
2.68654e-09
-1.19784e-06
2.51167e-07
-2.52082e-07
-8.8835e-07
2.47876e-07
-2.51765e-07
8.8799e-07
1.23648e-06
0.00108302
-1.65523e-10
-0.00108302
3.25858e-09
-1.23422e-06
2.56297e-07
-2.57697e-07
-8.8835e-07
2.47756e-07
-2.51766e-07
8.87832e-07
3.84591e-11
3.29043e-09
0.00108282
-2.5241e-07
1.23088e-06
2.50561e-07
8.85133e-07
-2.49489e-07
2.45259e-07
-8.86076e-07
-1.29563e-09
-0.00108369
2.66386e-09
-1.20043e-06
2.48361e-07
-2.49257e-07
-8.85345e-07
2.45437e-07
8.8549e-07
-2.48652e-07
1.23116e-06
0.00108282
-1.04929e-09
-0.00108282
3.11921e-09
-1.22874e-06
2.50892e-07
-2.52005e-07
-8.85394e-07
2.45267e-07
-2.48708e-07
8.85369e-07
-2.25998e-07
-2.3098e-07
0.000264338
-1.19743e-06
0.000266312
-0.000264339
2.27977e-07
2.32925e-07
-8.44719e-11
3.35347e-09
0.00108386
-2.49894e-07
1.19736e-06
2.4796e-07
8.85355e-07
-2.52248e-07
2.48127e-07
-8.86132e-07
-7.95816e-10
-0.00108335
3.36446e-09
-1.19532e-06
2.48073e-07
-2.49579e-07
-8.85274e-07
2.47893e-07
8.85263e-07
-2.51552e-07
1.19774e-06
0.00108387
-8.10242e-10
-0.00108386
2.65313e-09
-1.19521e-06
2.48395e-07
-2.49378e-07
-8.85549e-07
2.48056e-07
-2.51552e-07
8.85515e-07
-0.000264353
2.30548e-07
2.358e-07
1.23399e-06
1.19769e-06
-2.25401e-07
-2.33297e-07
0.000264358
-1.23599e-06
-1.19985e-06
0.000266332
-0.000264358
2.26913e-07
2.34708e-07
2.61688e-09
0.00108291
-2.54716e-07
1.23649e-06
2.53636e-07
8.85213e-07
-2.48083e-07
-8.84985e-07
2.44895e-07
-1.23932e-06
-1.59243e-09
2.25955e-09
0.00108335
-2.57381e-07
1.24201e-06
2.56516e-07
8.9079e-07
-2.50911e-07
-8.90583e-07
2.47682e-07
0.00108291
-1.3606e-09
-0.00108291
3.1598e-09
-1.23343e-06
2.52957e-07
-2.54129e-07
-8.83284e-07
2.42119e-07
-2.45125e-07
8.83488e-07
1.24142e-06
0.00108335
-1.19744e-09
-0.00108335
3.15356e-09
-1.23888e-06
2.55744e-07
-2.56912e-07
-8.88912e-07
2.44883e-07
-2.47996e-07
8.89051e-07
-2.28159e-07
-2.30452e-07
0.000264379
-1.20249e-06
0.000266361
-0.000264378
2.29685e-07
2.31975e-07
2.09367e-09
0.00108396
-2.51927e-07
1.20046e-06
2.51223e-07
8.87929e-07
-2.51119e-07
-8.8792e-07
2.47568e-07
-1.23402e-06
-1.11187e-09
2.55336e-09
0.00108302
-2.57473e-07
1.23658e-06
2.5644e-07
8.87773e-07
-2.51097e-07
-8.87916e-07
2.47467e-07
0.00108396
-1.39216e-09
-0.00108396
2.97055e-09
-1.19727e-06
2.50419e-07
-2.51476e-07
-8.86054e-07
2.4497e-07
-2.47956e-07
8.86341e-07
1.23604e-06
0.00108302
-1.24572e-09
-0.00108302
3.14246e-09
-1.23348e-06
2.55741e-07
-2.56878e-07
-8.8603e-07
2.44882e-07
-2.47924e-07
8.86191e-07
-1.69155e-09
2.48484e-09
0.00108282
-2.51857e-07
1.2312e-06
2.50959e-07
8.85211e-07
-2.48105e-07
2.44876e-07
-8.85043e-07
-1.42083e-09
-0.00108369
3.01798e-09
-1.1999e-06
2.47606e-07
-2.48705e-07
-8.83338e-07
2.42206e-07
8.83574e-07
-2.45173e-07
1.23065e-06
0.00108282
-1.29128e-09
-0.00108282
3.16419e-09
-1.22811e-06
2.50217e-07
-2.51344e-07
-8.83347e-07
2.42102e-07
-2.4515e-07
8.83491e-07
-2.25789e-07
-2.30528e-07
0.00026434
-1.19711e-06
0.000266313
-0.000264339
2.27128e-07
2.31942e-07
-1.48738e-09
2.0697e-09
0.00108387
-2.49227e-07
1.19778e-06
2.48459e-07
8.85369e-07
-2.50949e-07
2.47668e-07
-8.85191e-07
-1.44843e-09
-0.00108335
3.00249e-09
-1.19448e-06
2.47617e-07
-2.48667e-07
-8.8317e-07
2.44866e-07
8.83439e-07
-2.47845e-07
1.19718e-06
0.00108387
-1.25669e-09
-0.00108387
2.95702e-09
-1.19462e-06
2.47681e-07
-2.48747e-07
-8.83467e-07
2.44927e-07
-2.47961e-07
8.83678e-07
-0.000264352
2.29427e-07
2.34717e-07
1.23321e-06
1.19706e-06
-2.24011e-07
-2.31748e-07
0.000264357
-1.23607e-06
-1.19992e-06
0.000266332
-0.000264357
2.26749e-07
2.34536e-07
2.43533e-09
0.00108291
-2.53667e-07
1.23558e-06
2.52176e-07
8.83001e-07
-2.44681e-07
-8.82973e-07
2.41715e-07
-1.23866e-06
-1.25011e-09
2.44348e-09
0.00108335
-2.56454e-07
1.24101e-06
2.54961e-07
8.88569e-07
-2.4754e-07
-8.88573e-07
2.44487e-07
0.00108291
-3.81462e-09
-0.00108291
1.9705e-09
-1.23314e-06
2.52175e-07
-2.52568e-07
-8.85562e-07
2.44683e-07
-2.46853e-07
8.86949e-07
1.24151e-06
0.00108335
-3.71497e-09
-0.00108335
1.99606e-09
-1.23859e-06
2.54967e-07
-2.55353e-07
-8.91164e-07
2.47452e-07
-2.49697e-07
8.92505e-07
-2.26743e-07
-2.2905e-07
0.000264378
-1.20258e-06
0.000266361
-0.000264378
2.29532e-07
2.31814e-07
2.28475e-09
0.00108396
-2.51029e-07
1.19943e-06
2.49627e-07
8.85858e-07
-2.47493e-07
-8.85707e-07
2.4458e-07
-1.23327e-06
-1.33702e-09
2.43884e-09
0.00108303
-2.56431e-07
1.23562e-06
2.54949e-07
8.85726e-07
-2.4745e-07
-8.85688e-07
2.44478e-07
0.00108396
-3.91415e-09
-0.00108396
1.84248e-09
-1.197e-06
2.49622e-07
-2.49935e-07
-8.88301e-07
2.47546e-07
-2.49657e-07
8.89798e-07
1.23612e-06
0.00108302
-3.75e-09
-0.00108302
2.00039e-09
-1.23321e-06
2.54939e-07
-2.55342e-07
-8.88305e-07
2.47451e-07
-2.49625e-07
8.89648e-07
-1.34262e-09
2.43503e-09
0.00108282
-2.50884e-07
1.23024e-06
2.49434e-07
8.83012e-07
-2.44695e-07
2.41704e-07
-8.83009e-07
-3.90218e-09
-0.00108369
1.83707e-09
-1.1996e-06
2.46835e-07
-2.47142e-07
-8.85603e-07
2.4477e-07
8.87035e-07
-2.46891e-07
1.23073e-06
0.00108282
-3.76709e-09
-0.00108282
1.98273e-09
-1.22782e-06
2.49434e-07
-2.49784e-07
-8.85601e-07
2.44657e-07
-2.46859e-07
8.86934e-07
-2.24165e-07
-2.29017e-07
0.000264339
-1.19718e-06
0.000266314
-0.000264339
2.26954e-07
2.31772e-07
-1.30486e-09
2.27252e-09
0.00108387
-2.48295e-07
1.19676e-06
2.46887e-07
8.83198e-07
-2.47503e-07
2.44531e-07
-8.83125e-07
-3.93253e-09
-0.00108335
1.83049e-09
-1.19421e-06
2.46812e-07
-2.47101e-07
-8.85415e-07
2.47428e-07
8.86905e-07
-2.49547e-07
1.19726e-06
0.00108386
-3.80498e-09
-0.00108386
1.84544e-09
-1.19434e-06
2.46882e-07
-2.47201e-07
-8.85717e-07
2.47501e-07
-2.49659e-07
8.87155e-07
-0.000264352
2.29255e-07
2.34557e-07
1.23346e-06
1.19732e-06
-2.2407e-07
-2.31804e-07
0.000264357
-1.23406e-06
-1.19791e-06
0.000266336
-0.000264356
2.22061e-07
2.29842e-07
4.25592e-09
0.00108291
-2.5338e-07
1.23531e-06
2.51871e-07
8.85268e-07
-2.4693e-07
-8.86378e-07
2.42228e-07
-1.23891e-06
2.64319e-09
4.27272e-09
0.00108335
-2.56159e-07
1.24076e-06
2.54656e-07
8.9084e-07
-2.49769e-07
-8.91967e-07
2.45005e-07
0.00108292
-7.92277e-09
-0.00108291
4.28139e-10
-1.23039e-06
2.4886e-07
-2.49076e-07
-8.78793e-07
2.35141e-07
-2.36692e-07
8.80892e-07
1.23951e-06
0.00108335
-7.88122e-09
-0.00108335
4.69767e-10
-1.23584e-06
2.51645e-07
-2.5186e-07
-8.8439e-07
2.37922e-07
-2.39526e-07
8.86459e-07
-2.26793e-07
-2.29096e-07
0.000264378
-1.20057e-06
0.000266365
-0.000264377
2.24838e-07
2.27121e-07
4.1372e-09
0.00108396
-2.50751e-07
1.19916e-06
2.49315e-07
8.88133e-07
-2.49725e-07
-8.89134e-07
2.45076e-07
-1.23353e-06
2.599e-09
4.29066e-09
0.00108302
-2.56151e-07
1.23536e-06
2.5464e-07
8.87984e-07
-2.49686e-07
-8.89122e-07
2.44983e-07
0.00108396
-8.08138e-09
-0.00108396
3.18033e-10
-1.19425e-06
2.46302e-07
-2.46445e-07
-8.81525e-07
2.37997e-07
-2.39478e-07
8.83728e-07
1.23411e-06
0.00108303
-7.89394e-09
-0.00108302
4.59487e-10
-1.23046e-06
2.51624e-07
-2.51849e-07
-8.81532e-07
2.37914e-07
-2.39466e-07
8.83587e-07
2.59776e-09
4.24926e-09
0.00108282
-2.50591e-07
1.22998e-06
2.49133e-07
8.85265e-07
-2.46929e-07
2.4221e-07
-8.86404e-07
-8.06287e-09
-0.00108369
3.24764e-10
-1.19685e-06
2.43506e-07
-2.43652e-07
-8.78806e-07
2.3523e-07
8.80964e-07
-2.36718e-07
1.22873e-06
0.00108282
-7.92147e-09
-0.00108282
4.5155e-10
-1.22507e-06
2.46113e-07
-2.463e-07
-8.78819e-07
2.35132e-07
-2.36693e-07
8.80889e-07
-2.24236e-07
-2.2907e-07
0.000264339
-1.19516e-06
0.000266315
-0.000264337
2.22261e-07
2.29617e-07
2.57507e-09
4.13482e-09
0.00108386
-2.4801e-07
1.1965e-06
2.46579e-07
8.85487e-07
-2.49731e-07
2.45054e-07
-8.86532e-07
-8.09529e-09
-0.00108335
3.11206e-10
-1.19146e-06
2.43518e-07
-2.43645e-07
-8.78616e-07
2.37909e-07
8.80795e-07
-2.39375e-07
1.19525e-06
0.00108387
-8.04818e-09
-0.00108387
3.35534e-10
-1.19158e-06
2.43562e-07
-2.43703e-07
-8.78917e-07
2.3797e-07
-2.39468e-07
8.81101e-07
-0.00026435
2.24563e-07
2.29861e-07
1.23122e-06
1.19508e-06
-2.18888e-07
-2.26618e-07
0.000264355
-1.23415e-06
-1.19803e-06
0.000266343
-0.000264354
2.19255e-07
2.24579e-07
6.22152e-09
0.00108291
-2.49454e-07
1.23243e-06
2.47033e-07
8.78183e-07
-2.3736e-07
-8.80263e-07
2.31891e-07
-1.23666e-06
6.83926e-09
6.24296e-09
0.00108335
-2.52229e-07
1.23789e-06
2.49824e-07
8.8376e-07
-2.40199e-07
-8.8585e-07
2.34674e-07
0.00108291
-1.41206e-08
-0.0010829
-1.04584e-08
-1.229e-06
2.48067e-07
-2.44063e-07
-8.73495e-07
2.29039e-07
-2.29202e-07
8.77322e-07
1.23958e-06
0.00108337
-2.45721e-08
-0.00108335
-5.17509e-09
-1.23177e-06
2.48109e-07
-2.46847e-07
-8.7374e-07
2.26405e-07
-2.26645e-07
8.77532e-07
-2.21607e-07
-2.23908e-07
0.000264376
-1.20064e-06
0.000266367
-0.000264373
2.19519e-07
2.26878e-07
6.09109e-09
0.00108395
-2.46828e-07
1.19896e-06
2.47206e-07
8.81031e-07
-2.40128e-07
-8.83005e-07
2.34734e-07
-1.23128e-06
6.76989e-09
6.2463e-09
0.00108302
-2.52228e-07
1.23249e-06
2.49801e-07
8.80892e-07
-2.40095e-07
-8.82993e-07
2.34654e-07
0.00108397
-1.43627e-08
-0.00108396
-5.33242e-09
-1.19289e-06
2.45503e-07
-2.44168e-07
-8.7622e-07
2.29205e-07
-2.2929e-07
8.8018e-07
1.22889e-06
0.00108304
-1.41608e-08
-0.00108302
-1.0434e-08
-1.22373e-06
2.48106e-07
-2.46831e-07
-8.73602e-07
2.29105e-07
-2.2927e-07
8.77386e-07
6.78372e-09
6.20542e-09
0.00108282
-2.4667e-07
1.22711e-06
2.44291e-07
8.78185e-07
-2.37357e-07
2.31881e-07
-8.80281e-07
-1.95128e-08
-0.00108369
-5.29789e-09
-1.19283e-06
2.39985e-07
-2.38657e-07
-8.73534e-07
2.2912e-07
8.80076e-07
-2.26543e-07
1.22886e-06
0.00108283
-1.94114e-08
-0.00108282
-5.22685e-09
-1.22105e-06
2.45342e-07
-2.41295e-07
-8.7352e-07
2.29026e-07
-2.26518e-07
8.77321e-07
-2.19061e-07
-2.26423e-07
0.000264337
-1.19261e-06
0.000266317
-0.000264339
2.19487e-07
2.24308e-07
6.6997e-09
6.11207e-09
0.00108386
-2.44079e-07
1.19363e-06
2.41737e-07
8.78405e-07
-2.40138e-07
2.34723e-07
-8.80394e-07
-1.4339e-08
-0.00108336
-1.0568e-08
-1.18742e-06
2.39994e-07
-2.38638e-07
-8.7066e-07
2.29104e-07
8.74543e-07
-2.29192e-07
1.19267e-06
0.00108387
-1.43131e-08
-0.00108387
-1.05068e-08
-1.18223e-06
2.40025e-07
-2.35958e-07
-8.6827e-07
2.26465e-07
-2.26579e-07
8.74838e-07
-0.000264354
2.19292e-07
2.27078e-07
1.22684e-06
1.18806e-06
-2.13799e-07
-2.1647e-07
0.000264358
-1.283e-06
-1.24683e-06
0.000266419
-0.000264383
2.44008e-07
2.49397e-07
1.27995e-08
0.00108291
-2.43637e-07
1.23111e-06
2.41308e-07
8.70792e-07
-2.27987e-07
-8.74257e-07
2.18264e-07
-1.23224e-06
1.12071e-08
7.77196e-09
0.00108336
-2.46422e-07
1.23386e-06
2.44076e-07
8.73787e-07
-2.2539e-07
-8.74582e-07
2.20988e-07
0.00108319
-3.40202e-07
-0.00108301
-1.62864e-07
-1.188e-06
2.71417e-07
-2.08414e-07
-8.18394e-07
2.44192e-07
-1.73699e-07
9.11746e-07
1.28837e-06
0.00108362
-3.40225e-07
-0.00108345
-1.57357e-07
-1.1935e-06
2.71382e-07
-2.08529e-07
-8.26731e-07
2.46921e-07
-1.73787e-07
9.20028e-07
-2.14014e-07
-2.18831e-07
0.000264374
-1.24681e-06
0.000266443
-0.000264404
2.46818e-07
2.49066e-07
7.59148e-09
0.00108398
-2.40989e-07
1.18961e-06
2.35959e-07
8.71023e-07
-2.28045e-07
-8.74375e-07
2.21103e-07
-1.22158e-06
9.96663e-10
7.66072e-09
0.00108304
-2.4363e-07
1.22581e-06
2.41313e-07
8.70927e-07
-2.25315e-07
-8.74407e-07
2.183e-07
0.00108423
-3.46307e-07
-0.00108405
-1.57307e-07
-1.14923e-06
2.68764e-07
-2.03085e-07
-8.23735e-07
2.47124e-07
-1.73682e-07
9.17359e-07
1.28033e-06
0.00108331
-3.45615e-07
-0.00108312
-1.62793e-07
-1.18544e-06
2.71443e-07
-2.05739e-07
-8.21123e-07
2.47013e-07
-1.76361e-07
9.14538e-07
6.03766e-09
7.64031e-09
0.00108282
-2.43579e-07
1.22578e-06
2.41308e-07
8.70873e-07
-2.25255e-07
2.18243e-07
-8.7164e-07
-3.40765e-07
-0.00108379
-1.62475e-07
-1.15184e-06
2.65965e-07
-2.00386e-07
-8.21144e-07
2.44233e-07
9.14544e-07
-1.73706e-07
1.2803e-06
0.00108309
-3.40236e-07
-0.00108292
-1.62873e-07
-1.18272e-06
2.71398e-07
-2.02943e-07
-8.21079e-07
2.46927e-07
-1.7638e-07