/*--------------------------------*- C++ -*----------------------------------*\
| =========                 |                                                 |
| \\      /  F ield         | OpenFOAM: The Open Source CFD Toolbox           |
|  \\    /   O peration     | Version:  2206                                  |
|   \\  /    A nd           | Website:  www.openfoam.com                      |
|    \\/     M anipulation  |                                                 |
\*---------------------------------------------------------------------------*/
FoamFile
{
    version     2.0;
    format      ascii;
    arch        "LSB;label=32;scalar=64";
    class       volScalarField;
    location    "18.5";
    object      nut;
}
// * * * * * * * * * * * * * * * * * * * * * * * * * * * * * * * * * * * * * //

dimensions      [0 2 -1 0 0 0 0];

internalField   nonuniform List<scalar> 
28897
(
0.000227396
0.000212195
0.000212187
0.000193536
0.000227396
0.000212194
0.000212184
0.000193534
0.000227395
0.000212191
0.000212185
0.000193533
0.000227389
0.000212185
0.000212176
0.000193517
0.000227369
0.000212137
0.000212131
0.000193446
0.000227378
0.000212141
0.000212136
0.000193458
0.000227378
0.000212141
0.000212137
0.000193451
0.000227378
0.000212142
0.000212137
0.000193453
0.000227378
0.000212142
0.000212137
0.000193454
0.000227378
0.000212142
0.000212137
0.000193453
0.000227378
0.000212142
0.000212137
0.000193453
0.000227378
0.000212142
0.000212137
0.000193453
0.000227378
0.000212142
0.000212137
0.000193453
0.000227378
0.000212142
0.000212137
0.000193453
0.000227378
0.000212142
0.000212137
0.000193453
0.000227378
0.000212142
0.000212137
0.000193453
0.000227378
0.000212142
0.000212137
0.000193453
0.000227379
0.000212143
0.000212137
0.000193453
0.000193674
0.000212181
0.00021218
0.000193681
0.000212191
0.000212173
0.000212195
0.000212181
0.000193668
0.000212187
0.000212189
0.000193673
0.000193539
0.000193671
0.000212182
0.000212181
0.000212182
0.00021218
0.000193544
0.000193675
0.000212192
0.000212174
0.000212191
0.000212174
0.000212182
0.000212195
0.000212182
0.000193534
0.000193665
0.00021219
0.000212185
0.000212189
0.00019367
0.000193537
0.00019367
0.000212179
0.00021218
0.000212178
0.00021218
0.000193541
0.000193675
0.000212189
0.000212173
0.000212188
0.000212171
0.000212182
0.000212192
0.000212182
0.000193531
0.000193664
0.000212188
0.000212185
0.000212187
0.000193669
0.000193536
0.000193662
0.000212178
0.000212179
0.000212175
0.000212175
0.000193541
0.000193668
0.000212188
0.000212171
0.000212185
0.000212167
0.000212181
0.000212188
0.000212177
0.00019353
0.000193655
0.000212187
0.000212181
0.000212183
0.000193662
0.000193521
0.000193591
0.00021217
0.00021217
0.000212127
0.00021213
0.000193531
0.000193605
0.000212179
0.000212162
0.000212136
0.000212118
0.000212171
0.000212144
0.000212129
0.000193515
0.000193585
0.000212178
0.000212133
0.000212135
0.00019359
0.000193451
0.000193596
0.000212125
0.000212125
0.000212129
0.000212127
0.000193458
0.000193599
0.000212135
0.000212117
0.000212139
0.000212121
0.000212126
0.00021214
0.000212129
0.000193445
0.00019359
0.000212133
0.000212136
0.000212137
0.000193595
0.000193462
0.000193588
0.00021213
0.000212128
0.00021213
0.000212128
0.000193465
0.000193593
0.00021214
0.000212122
0.000212139
0.000212122
0.00021213
0.000212141
0.000212129
0.000193456
0.000193582
0.000212138
0.000212137
0.000212138
0.000193586
0.000193454
0.000193592
0.00021213
0.000212129
0.00021213
0.000212129
0.000193458
0.000193596
0.00021214
0.000212122
0.00021214
0.000212122
0.00021213
0.000212142
0.00021213
0.000193449
0.000193586
0.000212139
0.000212137
0.000212138
0.00019359
0.000193458
0.000193591
0.000212131
0.000212129
0.00021213
0.000212129
0.000193462
0.000193594
0.00021214
0.000212123
0.00021214
0.000212122
0.00021213
0.000212142
0.00021213
0.000193452
0.000193585
0.000212139
0.000212138
0.000212139
0.00019359
0.000193457
0.00019359
0.000212131
0.000212129
0.00021213
0.000212129
0.00019346
0.000193594
0.00021214
0.000212123
0.00021214
0.000212122
0.00021213
0.000212142
0.00021213
0.000193452
0.000193584
0.000212139
0.000212138
0.000212139
0.00019359
0.000193456
0.00019359
0.000212131
0.000212129
0.000212131
0.000212129
0.000193459
0.000193593
0.00021214
0.000212123
0.00021214
0.000212122
0.00021213
0.000212142
0.00021213
0.000193451
0.000193584
0.000212139
0.000212137
0.000212138
0.000193589
0.000193456
0.00019359
0.000212131
0.000212129
0.00021213
0.000212129
0.000193459
0.000193593
0.00021214
0.000212123
0.00021214
0.000212122
0.00021213
0.000212142
0.00021213
0.000193451
0.000193584
0.000212139
0.000212137
0.000212138
0.000193589
0.000193456
0.00019359
0.000212131
0.000212129
0.000212131
0.000212129
0.000193459
0.000193594
0.00021214
0.000212123
0.000212139
0.000212122
0.00021213
0.000212143
0.00021213
0.000193451
0.000193584
0.000212139
0.000212137
0.000212138
0.000193589
0.000193456
0.00019359
0.000212131
0.000212129
0.000212131
0.000212129
0.000193459
0.000193593
0.00021214
0.000212123
0.000212139
0.000212122
0.00021213
0.000212143
0.00021213
0.000193451
0.000193584
0.000212139
0.000212137
0.000212138
0.000193589
0.000193456
0.00019359
0.000212131
0.000212129
0.000212131
0.000212129
0.000193459
0.000193594
0.00021214
0.000212123
0.000212139
0.000212122
0.00021213
0.000212143
0.00021213
0.000193451
0.000193584
0.000212139
0.000212137
0.000212138
0.000193589
0.000193457
0.000193591
0.000212132
0.000212129
0.000212131
0.000212129
0.00019346
0.000193594
0.000212139
0.000212123
0.000212139
0.000212122
0.00021213
0.000212143
0.00021213
0.00019345
0.000193584
0.000212139
0.000212137
0.000212138
0.000193589
0.000193457
0.000193591
0.000212132
0.000212129
0.000212131
0.000212129
0.00019346
0.000193594
0.00021214
0.000212123
0.000212139
0.000212122
0.00021213
0.000212143
0.00021213
0.00019345
0.000193585
0.000212139
0.000212137
0.000212138
0.000193589
0.000193457
0.000193591
0.000212132
0.000212129
0.000212131
0.000212129
0.00019346
0.000193594
0.00021214
0.000212123
0.000212139
0.000212122
0.00021213
0.000212142
0.00021213
0.000193451
0.000193584
0.000212139
0.000212137
0.000212138
0.000193589
0.000193457
0.000212132
0.00021213
0.00019346
0.00021214
0.000212123
0.000212131
0.00019345
0.000212139
0.000227396
0.000227396
0.000227394
0.000227395
5.1346e-05
4.86297e-05
5.13371e-05
4.86286e-05
2.59654e-05
2.59645e-05
5.13506e-05
4.86281e-05
5.13409e-05
4.8627e-05
0.000227397
0.000227395
0.000227396
0.000227396
0.000227397
0.000227394
0.000227395
0.000122898
6.24393e-05
0.000222464
0.000212196
0.00012287
6.24588e-05
0.000222465
2.59621e-05
2.59612e-05
0.000122892
0.000222461
6.24399e-05
0.000212187
0.000122865
0.000222462
6.24579e-05
3.65128e-05
3.65026e-05
0.000193672
3.65194e-05
3.6511e-05
5.13546e-05
4.8629e-05
5.13422e-05
4.8628e-05
2.59639e-05
2.59635e-05
5.13616e-05
4.86273e-05
5.13498e-05
4.86264e-05
0.000227397
0.000227394
0.000227396
0.000227395
0.000227396
0.000227393
0.000227395
0.0001229
6.24413e-05
0.000222464
0.000212192
0.000122872
6.24594e-05
0.000222462
2.59608e-05
2.59605e-05
0.000122893
0.000222461
6.24404e-05
0.000212184
0.000122864
0.000222459
6.2459e-05
3.65222e-05
3.65143e-05
0.00019367
3.65282e-05
3.65204e-05
5.13584e-05
4.86287e-05
5.13486e-05
4.86279e-05
2.59636e-05
2.59634e-05
5.13658e-05
4.8627e-05
5.13569e-05
4.86263e-05
0.000227396
0.000227393
0.000227395
0.000227393
0.000227394
0.000227391
0.000227393
0.000122898
6.24437e-05
0.000222461
0.00021219
0.000122873
6.24637e-05
0.000222461
2.59607e-05
2.59606e-05
0.0001229
0.000222459
6.24458e-05
0.000212184
0.000122871
0.000222459
6.24648e-05
3.65288e-05
3.65213e-05
0.000193669
3.65335e-05
3.65257e-05
5.13345e-05
4.86302e-05
5.13395e-05
4.8632e-05
2.59642e-05
2.59646e-05
5.13414e-05
4.86284e-05
5.13476e-05
4.86304e-05
0.000227391
0.000227388
0.000227389
0.000227367
0.000227369
0.000227365
0.000227367
0.000122871
6.24418e-05
0.000222455
0.000212177
0.000122859
6.24485e-05
0.000222447
2.59616e-05
2.59618e-05
0.000122861
0.000222453
6.24378e-05
0.000212163
0.000122859
0.00022244
6.24408e-05
3.6526e-05
3.65169e-05
0.000193629
3.65232e-05
3.65142e-05
5.1309e-05
4.86352e-05
5.1304e-05
4.86343e-05
2.5965e-05
2.59648e-05
5.13165e-05
4.86334e-05
5.13118e-05
4.86326e-05
0.000227371
0.000227368
0.000227369
0.000227377
0.000227378
0.000227376
0.000227377
0.000122798
6.24038e-05
0.000222424
0.000212137
0.000122773
6.24131e-05
0.000222426
2.5962e-05
2.59618e-05
0.000122801
0.000222422
6.24004e-05
0.000212133
0.000122772
0.000222425
6.24127e-05
3.6506e-05
3.64964e-05
0.000193592
3.65037e-05
3.64966e-05
5.13075e-05
4.8635e-05
5.12983e-05
4.86341e-05
2.59649e-05
2.59647e-05
5.13152e-05
4.86333e-05
5.13068e-05
4.86325e-05
0.000227379
0.000227377
0.000227378
0.000227378
0.000227378
0.000227377
0.000227377
0.0001228
6.23901e-05
0.00022243
0.000212141
0.000122771
6.24078e-05
0.000222431
2.59619e-05
2.59617e-05
0.000122803
0.000222429
6.23931e-05
0.000212137
0.000122774
0.00022243
6.24104e-05
3.64994e-05
3.64927e-05
0.00019359
3.65026e-05
3.64958e-05
5.13075e-05
4.86349e-05
5.12982e-05
4.86341e-05
2.59649e-05
2.59647e-05
5.13152e-05
4.86332e-05
5.13067e-05
4.86325e-05
0.000227378
0.000227377
0.000227378
0.000227378
0.000227378
0.000227377
0.000227378
0.0001228
6.23894e-05
0.000222431
0.000212142
0.000122771
6.24077e-05
0.000222431
2.59619e-05
2.59617e-05
0.000122803
0.00022243
6.23929e-05
0.000212137
0.000122774
0.00022243
6.24104e-05
3.64994e-05
3.64927e-05
0.000193591
3.65026e-05
3.64958e-05
5.13075e-05
4.86349e-05
5.12982e-05
4.86341e-05
2.59649e-05
2.59647e-05
5.13152e-05
4.86332e-05
5.13067e-05
4.86325e-05
0.000227379
0.000227377
0.000227378
0.000227378
0.000227378
0.000227377
0.000227378
0.0001228
6.23894e-05
0.000222431
0.000212142
0.000122771
6.24077e-05
0.000222431
2.59619e-05
2.59617e-05
0.000122803
0.00022243
6.23929e-05
0.000212137
0.000122774
0.00022243
6.24103e-05
3.64994e-05
3.64927e-05
0.000193589
3.65026e-05
3.64958e-05
5.13075e-05
4.86349e-05
5.12982e-05
4.86341e-05
2.59649e-05
2.59647e-05
5.13152e-05
4.86332e-05
5.13067e-05
4.86325e-05
0.000227379
0.000227377
0.000227378
0.000227378
0.000227378
0.000227377
0.000227378
0.0001228
6.23894e-05
0.000222431
0.000212142
0.000122771
6.24077e-05
0.000222431
2.59619e-05
2.59617e-05
0.000122803
0.00022243
6.23929e-05
0.000212138
0.000122774
0.00022243
6.24103e-05
3.64994e-05
3.64927e-05
0.00019359
3.65026e-05
3.64958e-05
5.13075e-05
4.86349e-05
5.12982e-05
4.86341e-05
2.59649e-05
2.59647e-05
5.13152e-05
4.86332e-05
5.13067e-05
4.86325e-05
0.000227379
0.000227377
0.000227378
0.000227378
0.000227378
0.000227377
0.000227378
0.0001228
6.23894e-05
0.000222431
0.000212142
0.000122771
6.24077e-05
0.000222432
2.59619e-05
2.59617e-05
0.000122803
0.00022243
6.23929e-05
0.000212137
0.000122774
0.00022243
6.24105e-05
3.64994e-05
3.64927e-05
0.00019359
3.65026e-05
3.64958e-05
5.13075e-05
4.86354e-05
5.12982e-05
4.86349e-05
2.59645e-05
2.59643e-05
5.13152e-05
4.86329e-05
5.13067e-05
4.86319e-05
0.000227379
0.000227377
0.000227378
0.000227378
0.000227378
0.000227377
0.000227378
0.0001228
6.23894e-05
0.000222431
0.000212142
0.000122771
6.24077e-05
0.000222431
2.59619e-05
2.59617e-05
0.000122803
0.00022243
6.2393e-05
0.000212137
0.000122774
0.00022243
6.24106e-05
3.64994e-05
3.64927e-05
0.00019359
3.65026e-05
3.64958e-05
5.13075e-05
4.8636e-05
5.12982e-05
4.86354e-05
2.59644e-05
2.59642e-05
5.13152e-05
4.86323e-05
5.13067e-05
4.86315e-05
0.000227379
0.000227377
0.000227378
0.000227378
0.000227378
0.000227377
0.000227378
0.0001228
6.23894e-05
0.000222431
0.000212143
0.000122771
6.24077e-05
0.000222432
2.59619e-05
2.59617e-05
0.000122802
0.00022243
6.2393e-05
0.000212137
0.000122773
0.00022243
6.24106e-05
3.64994e-05
3.64927e-05
0.00019359
3.65026e-05
3.64958e-05
5.13075e-05
4.86362e-05
5.12982e-05
4.86355e-05
2.59643e-05
2.59642e-05
5.13152e-05
4.86323e-05
5.13067e-05
4.86315e-05
0.000227379
0.000227377
0.000227378
0.000227378
0.000227378
0.000227377
0.000227378
0.0001228
6.23894e-05
0.000222431
0.000212143
0.000122771
6.24077e-05
0.000222431
2.59619e-05
2.59617e-05
0.000122801
0.00022243
6.2393e-05
0.000212137
0.000122772
0.00022243
6.24106e-05
3.64994e-05
3.64927e-05
0.00019359
3.65026e-05
3.64958e-05
5.13075e-05
4.86362e-05
5.12982e-05
4.86355e-05
2.59643e-05
2.59642e-05
5.13152e-05
4.86322e-05
5.13067e-05
4.86315e-05
0.000227379
0.000227377
0.000227378
0.000227378
0.000227378
0.000227377
0.000227378
0.0001228
6.23894e-05
0.000222431
0.000212143
0.000122771
6.24077e-05
0.000222431
2.59619e-05
2.59617e-05
0.0001228
0.00022243
6.23931e-05
0.000212137
0.000122771
0.00022243
6.24107e-05
3.64994e-05
3.64927e-05
0.00019359
3.65026e-05
3.64958e-05
5.13075e-05
4.86363e-05
5.12982e-05
4.86356e-05
2.59643e-05
2.59642e-05
5.13152e-05
4.86322e-05
5.13067e-05
4.86315e-05
0.000227379
0.000227377
0.000227378
0.000227378
0.000227379
0.000227377
0.000227378
0.0001228
6.23894e-05
0.000222431
0.000212143
0.000122771
6.24077e-05
0.000222432
2.59619e-05
2.59617e-05
0.0001228
0.00022243
6.23931e-05
0.000212137
0.000122771
0.00022243
6.24107e-05
3.64994e-05
3.64927e-05
0.00019359
3.65026e-05
3.64958e-05
5.13075e-05
4.86363e-05
5.12982e-05
4.86356e-05
2.59643e-05
2.59642e-05
5.13152e-05
4.86323e-05
5.13067e-05
4.86315e-05
0.000227379
0.000227377
0.000227378
0.000227378
0.000227379
0.000227377
0.000227378
0.0001228
6.23894e-05
0.000222431
0.000212143
0.000122771
6.24077e-05
0.000222431
2.59619e-05
2.59617e-05
0.0001228
0.00022243
6.23931e-05
0.000212137
0.000122771
0.00022243
6.24107e-05
3.64994e-05
3.64927e-05
0.00019359
3.65026e-05
3.64958e-05
5.13075e-05
4.86363e-05
5.12982e-05
4.86356e-05
2.59643e-05
2.59642e-05
5.13152e-05
4.86323e-05
5.13068e-05
4.86315e-05
0.000227379
0.000227377
0.000227378
0.000227378
0.000227378
0.000227377
0.000227378
0.0001228
6.23894e-05
0.000222431
0.000212143
0.000122771
6.24077e-05
0.000222431
2.59619e-05
2.59617e-05
0.0001228
0.00022243
6.23931e-05
0.000212137
0.000122771
0.00022243
6.24107e-05
3.64994e-05
3.64927e-05
0.00019359
3.65026e-05
3.64958e-05
4.86363e-05
5.12982e-05
2.59643e-05
4.86323e-05
5.13068e-05
0.000227379
0.000227377
0.000227378
6.23895e-05
0.000222432
0.000122771
2.59619e-05
0.000222431
6.23932e-05
0.000122771
3.64994e-05
3.64927e-05
2.59648e-05
2.5966e-05
2.59637e-05
2.59647e-05
0.000193531
3.6503e-05
3.65049e-05
3.64912e-05
3.6496e-05
5.13364e-05
4.86291e-05
4.86307e-05
5.13468e-05
5.1337e-05
4.86307e-05
4.86323e-05
5.13463e-05
0.000122871
0.000212181
6.24527e-05
0.000222461
6.24356e-05
0.000222462
0.000122894
0.000122873
0.00021218
6.24574e-05
0.000222461
6.24415e-05
0.000222461
0.000122896
2.59655e-05
3.65032e-05
3.64967e-05
2.59658e-05
5.13449e-05
4.86274e-05
4.86291e-05
5.13501e-05
0.000122873
0.000212191
6.24545e-05
0.000222462
6.24382e-05
0.000222463
0.000122895
5.13429e-05
4.86239e-05
4.86256e-05
5.1347e-05
0.000122872
0.000212173
0.00022246
6.24423e-05
0.00022246
6.24252e-05
0.000122894
6.24573e-05
0.000222464
0.000222463
0.000122897
4.86288e-05
5.1347e-05
0.000212181
0.000222463
6.24507e-05
0.000222463
0.000122896
4.86266e-05
5.13466e-05
2.5962e-05
2.59632e-05
0.000193525
3.64933e-05
3.65105e-05
3.64843e-05
3.65028e-05
2.59646e-05
2.59656e-05
0.000122873
0.000212188
0.000222461
6.2457e-05
0.000222461
6.24409e-05
0.000122894
0.000122873
0.000212189
0.000222462
6.24535e-05
0.000222462
6.24371e-05
0.000122896
5.13436e-05
4.86269e-05
4.86285e-05
5.13476e-05
5.13446e-05
4.86267e-05
4.86283e-05
5.13492e-05
0.00019353
3.65151e-05
3.65038e-05
3.64962e-05
2.59645e-05
2.59634e-05
2.59645e-05
2.59649e-05
2.59641e-05
2.59637e-05
2.59629e-05
3.65035e-05
3.65045e-05
0.000193673
3.65116e-05
3.65123e-05
2.59635e-05
2.59642e-05
2.59624e-05
2.59629e-05
0.000193539
3.65162e-05
3.65177e-05
3.65101e-05
3.65114e-05
5.1345e-05
4.86311e-05
5.13379e-05
4.86303e-05
0.000122894
6.2437e-05
0.000222462
0.000212182
0.000122871
6.24544e-05
0.000222462
0.000122896
6.24425e-05
0.000222462
0.000212181
0.000122873
6.24582e-05
0.000222462
5.13393e-05
4.86283e-05
4.86291e-05
5.13501e-05
5.13386e-05
4.863e-05
4.86307e-05
5.13503e-05
0.000122871
0.000212182
6.24546e-05
0.000222462
6.24384e-05
0.000222462
0.000122894
0.000122872
0.000212181
6.24579e-05
0.000222462
6.2443e-05
0.000222462
0.000122896
3.65021e-05
3.64968e-05
0.000193677
3.65105e-05
3.65079e-05
2.59659e-05
2.59648e-05
2.59639e-05
2.59646e-05
0.000193542
3.65169e-05
3.6514e-05
3.65097e-05
3.65074e-05
2.59641e-05
2.59649e-05
0.000122895
6.24394e-05
0.000222463
0.000212191
0.000122872
6.24556e-05
0.000222463
5.13485e-05
4.86244e-05
5.13399e-05
4.86235e-05
0.000122894
0.00022246
6.24265e-05
0.000212174
0.000122871
0.00022246
6.24442e-05
5.13455e-05
4.86266e-05
4.86274e-05
5.13567e-05
0.000122873
0.000212192
6.24555e-05
0.000222463
6.24403e-05
0.000222464
0.000122896
5.13436e-05
4.86231e-05
4.86239e-05
5.13549e-05
0.000122871
0.000212174
0.00022246
6.24452e-05
0.00022246
6.24284e-05
0.000122895
5.13506e-05
4.86294e-05
5.13405e-05
4.86284e-05
0.000122899
0.000222463
6.24372e-05
0.000212182
0.000122873
0.000222463
6.24569e-05
5.13503e-05
4.8627e-05
5.13401e-05
4.86262e-05
0.000122875
0.000212195
6.24596e-05
0.000222465
6.24431e-05
0.000222465
0.000122899
5.13441e-05
4.86281e-05
4.86289e-05
5.1354e-05
0.000122876
0.000212182
0.000222464
6.24607e-05
0.000222464
6.24425e-05
0.000122901
5.13438e-05
4.86259e-05
4.86266e-05
5.13537e-05
3.64932e-05
3.65099e-05
0.000193667
3.65023e-05
3.65178e-05
2.59646e-05
2.59638e-05
2.59607e-05
2.59614e-05
0.000193533
3.65073e-05
3.65231e-05
3.65006e-05
3.65167e-05
2.59633e-05
2.59639e-05
0.000122895
0.000222462
6.24382e-05
0.00021219
0.000122871
0.000222462
6.24547e-05
5.1349e-05
4.86273e-05
5.13404e-05
4.86264e-05
5.13501e-05
4.86271e-05
5.13418e-05
4.86262e-05
0.000122869
0.000212187
0.000222461
6.24577e-05
0.000222462
6.24427e-05
0.000122892
0.000122871
0.00021219
0.000222462
6.24547e-05
0.000222462
6.24391e-05
0.000122896
5.1344e-05
4.86261e-05
4.86269e-05
5.13552e-05
5.13448e-05
4.86259e-05
4.86267e-05
5.13562e-05
2.59644e-05
2.59637e-05
2.59634e-05
2.59627e-05
0.000193538
3.65242e-05
3.65163e-05
3.6518e-05
3.65099e-05
2.59631e-05
2.59637e-05
2.59621e-05
2.59627e-05
2.59637e-05
2.59633e-05
2.59625e-05
2.59622e-05
3.65143e-05
3.65165e-05
0.000193671
3.65201e-05
3.6522e-05
2.59633e-05
2.59635e-05
2.59621e-05
2.59623e-05
0.000193537
3.65232e-05
3.65253e-05
3.6518e-05
3.65206e-05
5.13551e-05
4.86304e-05
5.13444e-05
4.86297e-05
0.000122897
6.24385e-05
0.00022246
0.000212179
0.000122872
6.24557e-05
0.000222459
0.000122898
6.24429e-05
0.000222459
0.00021218
0.000122873
6.24593e-05
0.000222459
5.13481e-05
4.86279e-05
4.86286e-05
5.13575e-05
5.13486e-05
4.86295e-05
4.86302e-05
5.13581e-05
0.000122873
0.000212179
6.24588e-05
0.00022246
6.24403e-05
0.000222458
0.000122896
0.000122875
0.00021218
6.24628e-05
0.00022246
6.2445e-05
0.000222459
0.0001229
3.65157e-05
3.65124e-05
0.000193675
3.65218e-05
3.65182e-05
2.59643e-05
2.59638e-05
2.59634e-05
2.59637e-05
0.000193541
3.65258e-05
3.6522e-05
3.65203e-05
3.65163e-05
2.59636e-05
2.5964e-05
0.000122898
6.24402e-05
0.00022246
0.000212188
0.000122874
6.24568e-05
0.00022246
5.13598e-05
4.86236e-05
5.13499e-05
4.86229e-05
0.000122897
0.000222457
6.24292e-05
0.000212172
0.000122872
0.000222457
6.24464e-05
5.13561e-05
4.86263e-05
4.86269e-05
5.13649e-05
0.000122876
0.000212188
6.246e-05
0.00022246
6.24422e-05
0.000222459
0.0001229
5.13543e-05
4.86228e-05
4.86234e-05
5.1363e-05
0.000122874
0.000212171
0.000222458
6.24489e-05
0.000222457
6.24308e-05
0.0001229
5.13568e-05
4.86285e-05
5.13473e-05
4.86278e-05
0.000122903
0.000222462
6.24461e-05
0.000212182
0.000122879
0.000222462
6.24636e-05
5.13566e-05
4.86263e-05
5.13471e-05
4.86257e-05
0.000122877
0.000212192
6.24612e-05
0.000222461
6.24436e-05
0.000222461
0.0001229
5.135e-05
4.86276e-05
4.86283e-05
5.1359e-05
0.00012288
0.000212182
0.000222461
6.24659e-05
0.000222462
6.24488e-05
0.000122902
5.13498e-05
4.86256e-05
4.86262e-05
5.13588e-05
3.65052e-05
3.65217e-05
0.000193664
3.65112e-05
3.65273e-05
2.59634e-05
2.5963e-05
2.59604e-05
2.59607e-05
0.000193531
3.65143e-05
3.65307e-05
3.6509e-05
3.65258e-05
2.5963e-05
2.59632e-05
0.000122897
0.00022246
6.24392e-05
0.000212188
0.000122872
0.000222459
6.2456e-05
5.136e-05
4.86266e-05
5.13501e-05
4.86259e-05
5.13611e-05
4.86264e-05
5.1351e-05
4.86257e-05
0.00012287
0.000212184
0.000222458
6.24624e-05
0.000222458
6.24446e-05
0.000122898
0.000122873
0.000212188
0.00022246
6.24591e-05
0.000222459
6.24411e-05
0.000122901
5.13544e-05
4.86257e-05
4.86263e-05
5.13634e-05
5.13554e-05
4.86255e-05
4.86261e-05
5.13644e-05
2.59632e-05
2.59629e-05
2.59623e-05
2.59619e-05
0.000193537
3.65315e-05
3.65238e-05
3.65266e-05
3.65189e-05
2.59628e-05
2.5963e-05
2.59619e-05
2.59621e-05
2.59636e-05
2.59634e-05
2.59623e-05
2.59622e-05
3.65207e-05
3.65236e-05
0.00019367
3.65251e-05
3.65273e-05
2.5964e-05
2.59638e-05
2.59628e-05
2.59625e-05
0.000193535
3.65216e-05
3.65236e-05
3.65219e-05
3.65248e-05
5.13589e-05
4.863e-05
5.13511e-05
4.86294e-05
0.000122896
6.24434e-05
0.00022246
0.000212178
0.000122871
6.24611e-05
0.00022246
0.000122896
6.24485e-05
0.00022246
0.000212178
0.000122873
6.24655e-05
0.00022246
5.13509e-05
4.86288e-05
4.86286e-05
5.13529e-05
5.13514e-05
4.86298e-05
4.86299e-05
5.13536e-05
0.000122868
0.000212178
6.24551e-05
0.000222457
6.24447e-05
0.00022246
0.000122887
0.000122868
0.000212177
6.24621e-05
0.000222457
6.24505e-05
0.00022246
0.000122889
3.6524e-05
3.65197e-05
0.000193675
3.65284e-05
3.65245e-05
2.59639e-05
2.59636e-05
2.59639e-05
2.59637e-05
0.000193539
3.65269e-05
3.65239e-05
3.65261e-05
3.6522e-05
2.5964e-05
2.5964e-05
0.000122898
6.24453e-05
0.000222461
0.000212188
0.000122873
6.24622e-05
0.000222461
5.13639e-05
4.86233e-05
5.13569e-05
4.86228e-05
0.000122896
0.000222458
6.24333e-05
0.000212171
0.000122872
0.000222459
6.24508e-05
5.13592e-05
4.86272e-05
4.86269e-05
5.13602e-05
0.000122872
0.000212187
6.24563e-05
0.000222458
6.24466e-05
0.000222461
0.000122888
5.13573e-05
4.86236e-05
4.86234e-05
5.13585e-05
0.000122868
0.00021217
0.000222456
6.24447e-05
0.000222458
6.24342e-05
0.000122886
5.13597e-05
4.86281e-05
5.1352e-05
4.86275e-05
0.000122897
0.00022246
6.24509e-05
0.000212181
0.000122874
0.00022246
6.24669e-05
5.13592e-05
4.86262e-05
5.13517e-05
4.86257e-05
0.000122873
0.00021219
6.24623e-05
0.000222459
6.24481e-05
0.00022246
0.00012289
5.13522e-05
4.86277e-05
4.8628e-05
5.13565e-05
0.000122869
0.00021218
0.000222458
6.24625e-05
0.000222459
6.24513e-05
0.000122888
5.13517e-05
4.86263e-05
4.86263e-05
5.13559e-05
3.65117e-05
3.65287e-05
0.000193662
3.6516e-05
3.65326e-05
2.59632e-05
2.59631e-05
2.59612e-05
2.5961e-05
0.000193528
3.65121e-05
3.6529e-05
3.65126e-05
3.65299e-05
2.59637e-05
2.59634e-05
0.000122901
0.000222461
6.24442e-05
0.000212187
0.000122877
0.000222461
6.24614e-05
5.13647e-05
4.86262e-05
5.13574e-05
4.86257e-05
5.13656e-05
4.8626e-05
5.13582e-05
4.86255e-05
0.000122876
0.000212183
0.000222457
6.2459e-05
0.000222459
6.24493e-05
0.000122891
0.000122872
0.000212186
0.000222458
6.24555e-05
0.00022246
6.24455e-05
0.00012289
5.13582e-05
4.86265e-05
4.86263e-05
5.13595e-05
5.13587e-05
4.86263e-05
4.86261e-05
5.13601e-05
2.5963e-05
2.59628e-05
2.59621e-05
2.5962e-05
0.000193535
3.65312e-05
3.6522e-05
3.65312e-05
3.6523e-05
2.59633e-05
2.59631e-05
2.59626e-05
2.59623e-05
2.59644e-05
2.59646e-05
2.59632e-05
2.59635e-05
3.65164e-05
3.65191e-05
0.000193629
3.65134e-05
3.65157e-05
2.59647e-05
2.59649e-05
2.59635e-05
2.59637e-05
0.000193475
3.65015e-05
3.65033e-05
3.65082e-05
3.65108e-05
5.13352e-05
4.86306e-05
5.1342e-05
4.86327e-05
0.000122858
6.2435e-05
0.000222453
0.000212155
0.000122856
6.2437e-05
0.000222439
0.00012286
6.24436e-05
0.000222453
0.000212159
0.000122858
6.24451e-05
0.00022244
5.13216e-05
4.86343e-05
4.86339e-05
5.13162e-05
5.13222e-05
4.8636e-05
4.86349e-05
5.13169e-05
0.000122812
0.000212137
6.24173e-05
0.000222421
6.24152e-05
0.000222425
0.0001228
0.000122814
0.000212142
6.24244e-05
0.000222421
6.2424e-05
0.000222426
0.000122802
3.65227e-05
3.65194e-05
0.000193647
3.65199e-05
3.65172e-05
2.59645e-05
2.59648e-05
2.59648e-05
2.59649e-05
0.000193497
3.65107e-05
3.65074e-05
3.65151e-05
3.6512e-05
2.59651e-05
2.59652e-05
0.000122859
6.24369e-05
0.000222454
0.000212165
0.000122858
6.2438e-05
0.00022244
5.13397e-05
4.86247e-05
5.13478e-05
4.86267e-05
0.000122858
0.000222451
6.24246e-05
0.000212147
0.000122855
0.000222437
6.24265e-05
5.13291e-05
4.86326e-05
4.86322e-05
5.13228e-05
0.000122813
0.000212146
6.24185e-05
0.000222421
6.24169e-05
0.000222426
0.000122801
5.13274e-05
4.86292e-05
4.86287e-05
5.13214e-05
0.000122812
0.000212128
0.000222418
6.24068e-05
0.000222423
6.24046e-05
0.0001228
5.13401e-05
4.86285e-05
5.1346e-05
4.86294e-05
0.000122869
0.000222454
6.24438e-05
0.000212158
0.000122858
0.000222443
6.24459e-05
5.13395e-05
4.86271e-05
5.13454e-05
4.86287e-05
0.000122831
0.000212158
6.24268e-05
0.000222426
6.24269e-05
0.000222432
0.000122811
5.13268e-05
4.86335e-05
4.86313e-05
5.13202e-05
0.000122828
0.000212139
0.000222423
6.24247e-05
0.00022243
6.24247e-05
0.000122808
5.13262e-05
4.86322e-05
4.86307e-05
5.13196e-05
3.65069e-05
3.65244e-05
0.000193623
3.6504e-05
3.65211e-05
2.5964e-05
2.59643e-05
2.59618e-05
2.59621e-05
0.00019347
3.64924e-05
3.65085e-05
3.64986e-05
3.65161e-05
2.59644e-05
2.59646e-05
0.00012286
0.000222453
6.2436e-05
0.000212163
0.000122858
0.000222439
6.24372e-05
5.13406e-05
4.86274e-05
5.13488e-05
4.86297e-05
5.13412e-05
4.86272e-05
5.13492e-05
4.86294e-05
0.000122816
0.000212143
0.000222421
6.2421e-05
0.000222425
6.24198e-05
0.000122804
0.000122812
0.000212145
0.000222421
6.24176e-05
0.000222425
6.24159e-05
0.000122802
5.13282e-05
4.86321e-05
4.86317e-05
5.13221e-05
5.13286e-05
4.86319e-05
4.86314e-05
5.13227e-05
2.59637e-05
2.59641e-05
2.59629e-05
2.59632e-05
0.000193476
3.65123e-05
3.65018e-05
3.65183e-05
3.65093e-05
2.59642e-05
2.59644e-05
2.59632e-05
2.59634e-05
2.59649e-05
2.59646e-05
2.59637e-05
2.59634e-05
3.64969e-05
3.64986e-05
0.000193592
3.64944e-05
3.64982e-05
2.59645e-05
2.59648e-05
2.59634e-05
2.59636e-05
0.000193461
3.64939e-05
3.64975e-05
3.64909e-05
3.64954e-05
5.13097e-05
4.86365e-05
5.13064e-05
4.86359e-05
0.000122798
6.23979e-05
0.000222422
0.000212127
0.000122772
6.24087e-05
0.000222425
0.0001228
6.24054e-05
0.000222422
0.000212125
0.000122774
6.24141e-05
0.000222425
5.1301e-05
4.86342e-05
4.86348e-05
5.13077e-05
5.13017e-05
4.86358e-05
4.86364e-05
5.13084e-05
0.000122774
0.000212128
6.24064e-05
0.000222429
6.23916e-05
0.000222428
0.000122799
0.000122776
0.000212126
6.24112e-05
0.000222429
6.23977e-05
0.000222428
0.000122802
3.6505e-05
3.65025e-05
0.000193594
3.64997e-05
3.64965e-05
2.59653e-05
2.5965e-05
2.59647e-05
2.5965e-05
0.000193461
3.6498e-05
3.64935e-05
3.64963e-05
3.64924e-05
2.59649e-05
2.59652e-05
0.0001228
6.23999e-05
0.000222423
0.000212136
0.000122774
6.24103e-05
0.000222426
5.13147e-05
4.86298e-05
5.1312e-05
4.86292e-05
0.000122799
0.00022242
6.23873e-05
0.000212119
0.000122772
0.000222423
6.23983e-05
5.13093e-05
4.86325e-05
4.86331e-05
5.13153e-05
0.000122777
0.000212137
6.24083e-05
0.00022243
6.2394e-05
0.000222429
0.000122802
5.13076e-05
4.86291e-05
4.86297e-05
5.13135e-05
0.000122775
0.00021212
0.000222428
6.23961e-05
0.000222426
6.23812e-05
0.0001228
5.13098e-05
4.86344e-05
5.13087e-05
4.86341e-05
0.000122797
0.000222423
6.24052e-05
0.000212127
0.000122774
0.000222426
6.24138e-05
5.13093e-05
4.86328e-05
5.13081e-05
4.86323e-05
0.000122774
0.000212139
6.24087e-05
0.00022243
6.23953e-05
0.00022243
0.000122798
5.13013e-05
4.8634e-05
4.86346e-05
5.13076e-05
0.000122773
0.000212128
0.00022243
6.24108e-05
0.000222428
6.23971e-05
0.000122798
5.13009e-05
4.86322e-05
4.86328e-05
5.13072e-05
3.64873e-05
3.65036e-05
0.000193586
3.64859e-05
3.65034e-05
2.59646e-05
2.59643e-05
2.59617e-05
2.5962e-05
0.000193455
3.64852e-05
3.65027e-05
3.64823e-05
3.65005e-05
2.59643e-05
2.59645e-05
0.000122801
0.000222422
6.23988e-05
0.000212135
0.000122774
0.000222426
6.24094e-05
5.13154e-05
4.86326e-05
5.13127e-05
4.86321e-05
5.13162e-05
4.86324e-05
5.13132e-05
4.86319e-05
0.000122778
0.000212135
0.000222429
6.24107e-05
0.000222429
6.23966e-05
0.000122802
0.000122777
0.000212136
0.00022243
6.24073e-05
0.000222428
6.23929e-05
0.000122802
5.13082e-05
4.8632e-05
4.86325e-05
5.13142e-05
5.13088e-05
4.86318e-05
4.86324e-05
5.13149e-05
2.59644e-05
2.59641e-05
2.59634e-05
2.59632e-05
0.000193461
3.65027e-05
3.64959e-05
3.65006e-05
3.64937e-05
2.59641e-05
2.59643e-05
2.59631e-05
2.59634e-05
2.59648e-05
2.59645e-05
2.59636e-05
2.59634e-05
3.64908e-05
3.6495e-05
0.000193593
3.6494e-05
3.64974e-05
2.59645e-05
2.59648e-05
2.59634e-05
2.59636e-05
0.000193457
3.6494e-05
3.64974e-05
3.64908e-05
3.64949e-05
5.13083e-05
4.86363e-05
5.13008e-05
4.86357e-05
0.0001228
6.23901e-05
0.00022243
0.00021213
0.000122775
6.24061e-05
0.00022243
0.000122802
6.23957e-05
0.00022243
0.000212128
0.000122778
6.24107e-05
0.00022243
5.13e-05
4.86341e-05
4.86347e-05
5.13075e-05
5.13008e-05
4.86357e-05
4.86362e-05
5.13082e-05
0.000122775
0.00021213
6.2406e-05
0.00022243
6.23899e-05
0.00022243
0.000122799
0.000122777
0.000212129
6.24105e-05
0.000222429
6.23954e-05
0.00022243
0.000122801
3.64953e-05
3.64903e-05
0.000193598
3.64977e-05
3.64934e-05
2.59652e-05
2.59649e-05
2.59647e-05
2.59649e-05
0.000193463
3.64978e-05
3.64934e-05
3.64951e-05
3.64903e-05
2.59649e-05
2.59652e-05
0.000122802
6.23926e-05
0.000222431
0.00021214
0.000122778
6.24079e-05
0.000222431
5.13133e-05
4.86296e-05
5.13068e-05
4.8629e-05
0.000122801
0.000222428
6.23797e-05
0.000212122
0.000122776
0.000222428
6.23958e-05
5.13086e-05
4.86325e-05
4.8633e-05
5.13152e-05
0.000122778
0.00021214
6.24078e-05
0.000222431
6.23925e-05
0.000222431
0.000122801
5.13067e-05
4.8629e-05
4.86296e-05
5.13133e-05
0.000122776
0.000212122
0.000222428
6.23956e-05
0.000222428
6.23795e-05
0.0001228
5.13073e-05
4.86345e-05
5.12999e-05
4.86339e-05
0.000122799
0.00022243
6.2395e-05
0.00021213
0.000122774
0.00022243
6.24102e-05
5.13069e-05
4.86327e-05
5.12995e-05
4.86322e-05
0.000122777
0.000212141
6.24077e-05
0.00022243
6.23917e-05
0.00022243
0.000122798
5.12998e-05
4.86339e-05
4.86344e-05
5.13073e-05
0.000122775
0.00021213
0.00022243
6.24101e-05