/*--------------------------------*- C++ -*----------------------------------*\
| =========                 |                                                 |
| \\      /  F ield         | OpenFOAM: The Open Source CFD Toolbox           |
|  \\    /   O peration     | Version:  2206                                  |
|   \\  /    A nd           | Website:  www.openfoam.com                      |
|    \\/     M anipulation  |                                                 |
\*---------------------------------------------------------------------------*/
FoamFile
{
    version     2.0;
    format      ascii;
    arch        "LSB;label=32;scalar=64";
    class       volVectorField;
    location    "18.5";
    object      U;
}
// * * * * * * * * * * * * * * * * * * * * * * * * * * * * * * * * * * * * * //

dimensions      [0 1 -1 0 0 0 0];

internalField   nonuniform List<vector> 
28897
(
(-5.74865e-07 -5.68115e-07 0.102174)
(-3.671e-07 5.83049e-07 0.10215)
(5.75053e-07 -3.64066e-07 0.10215)
(-4.02852e-05 -4.02965e-05 0.102113)
(-5.86934e-07 -5.814e-07 0.102174)
(-3.39419e-07 5.68463e-07 0.10215)
(5.51421e-07 -3.26835e-07 0.10215)
(-4.02643e-05 -4.0276e-05 0.102113)
(-6.02949e-07 -6.03272e-07 0.102174)
(-3.01885e-07 5.45555e-07 0.10215)
(5.10313e-07 -2.66694e-07 0.10215)
(-4.02403e-05 -4.0266e-05 0.102113)
(-4.69262e-07 -4.74777e-07 0.102174)
(-4.95922e-07 6.65088e-07 0.10215)
(6.65464e-07 -5.09661e-07 0.10215)
(-4.04366e-05 -4.04971e-05 0.102113)
(-5.65544e-07 -5.54824e-07 0.102174)
(-3.99117e-07 5.82639e-07 0.10215)
(5.73227e-07 -3.86647e-07 0.10215)
(-4.03184e-05 -4.03184e-05 0.102113)
(-5.66549e-07 -5.60779e-07 0.102174)
(-3.77618e-07 5.82142e-07 0.10215)
(5.81294e-07 -3.79036e-07 0.10215)
(-4.0308e-05 -4.03215e-05 0.102113)
(-5.64715e-07 -5.6062e-07 0.102174)
(-3.76621e-07 5.83717e-07 0.10215)
(5.82778e-07 -3.78757e-07 0.10215)
(-4.0307e-05 -4.03222e-05 0.102113)
(-5.64745e-07 -5.60946e-07 0.102174)
(-3.76791e-07 5.83717e-07 0.10215)
(5.82789e-07 -3.78809e-07 0.10215)
(-4.03066e-05 -4.03224e-05 0.102113)
(-5.64835e-07 -5.61183e-07 0.102174)
(-3.76168e-07 5.83576e-07 0.10215)
(5.8262e-07 -3.78595e-07 0.10215)
(-4.0306e-05 -4.03221e-05 0.102113)
(-5.64199e-07 -5.60342e-07 0.102174)
(-3.7567e-07 5.84086e-07 0.10215)
(5.81646e-07 -3.79298e-07 0.10215)
(-4.03027e-05 -4.03241e-05 0.102113)
(-5.58886e-07 -5.55055e-07 0.102174)
(-3.7497e-07 5.82726e-07 0.10215)
(5.82413e-07 -3.79009e-07 0.10215)
(-4.03052e-05 -4.03237e-05 0.102113)
(-5.66618e-07 -5.58032e-07 0.102174)
(-3.76497e-07 5.9522e-07 0.10215)
(5.8268e-07 -3.77781e-07 0.10215)
(-4.03076e-05 -4.0321e-05 0.102113)
(-5.63419e-07 -5.58299e-07 0.102174)
(-3.77664e-07 5.86006e-07 0.10215)
(5.83256e-07 -3.78453e-07 0.10215)
(-4.03082e-05 -4.03222e-05 0.102113)
(-5.63173e-07 -5.59881e-07 0.102174)
(-3.76997e-07 5.85899e-07 0.10215)
(5.82974e-07 -3.77734e-07 0.10215)
(-4.03075e-05 -4.03223e-05 0.102113)
(-5.63204e-07 -5.60974e-07 0.102174)
(-3.77263e-07 5.85418e-07 0.10215)
(5.82131e-07 -3.77709e-07 0.10215)
(-4.0306e-05 -4.03214e-05 0.102113)
(-5.63327e-07 -5.61244e-07 0.102174)
(-3.75779e-07 5.84264e-07 0.10215)
(5.81495e-07 -3.76157e-07 0.10215)
(-4.03055e-05 -4.03211e-05 0.102113)
(-5.63202e-07 -5.61242e-07 0.102174)
(-3.7635e-07 5.84416e-07 0.10215)
(5.81768e-07 -3.76566e-07 0.10215)
(-4.03025e-05 -4.03181e-05 0.102113)
(-5.6475e-07 -5.625e-07 0.102174)
(-3.726e-07 5.83422e-07 0.10215)
(5.80719e-07 -3.72829e-07 0.10215)
(-4.02902e-05 -4.03054e-05 0.102113)
(-4.19409e-05 -4.1907e-05 0.102115)
(5.99025e-07 3.86464e-07 0.10215)
(-6.04301e-07 3.90753e-07 0.10215)
(4.19363e-05 -4.1913e-05 0.102115)
(3.67282e-07 5.827e-07 0.10215)
(3.8463e-07 -5.97548e-07 0.10215)
(-3.73195e-07 5.84566e-07 0.10215)
(-3.86711e-07 -5.95025e-07 0.10215)
(-4.19104e-05 4.19445e-05 0.102115)
(5.79685e-07 -3.68272e-07 0.10215)
(-5.80775e-07 -3.68176e-07 0.10215)
(4.19133e-05 4.1936e-05 0.102115)
(4.02932e-05 4.02703e-05 0.102113)
(-4.1965e-05 -4.19313e-05 0.102115)
(5.93327e-07 3.77275e-07 0.10215)
(-6.10617e-07 3.85344e-07 0.10215)
(5.85368e-07 3.61985e-07 0.10215)
(-5.95694e-07 3.6681e-07 0.10215)
(-4.0296e-05 4.02685e-05 0.102113)
(4.19551e-05 -4.19326e-05 0.102115)
(3.63838e-07 5.78203e-07 0.10215)
(3.77914e-07 -5.92655e-07 0.10215)
(3.42183e-07 5.70101e-07 0.10215)
(3.60096e-07 -5.84284e-07 0.10215)
(-3.7944e-07 -5.8849e-07 0.10215)
(-3.54643e-07 5.74891e-07 0.10215)
(-3.67273e-07 -5.8155e-07 0.10215)
(4.02701e-05 -4.03029e-05 0.102113)
(-4.19346e-05 4.19685e-05 0.102115)
(-5.76784e-07 -3.61566e-07 0.10215)
(5.67079e-07 -3.43037e-07 0.10215)
(-5.67933e-07 -3.41755e-07 0.10215)
(4.19354e-05 4.19609e-05 0.102115)
(4.0275e-05 4.0251e-05 0.102113)
(-4.19784e-05 -4.195e-05 0.102114)
(5.69798e-07 3.39964e-07 0.10215)
(-5.90332e-07 3.5395e-07 0.10215)
(5.71079e-07 3.31336e-07 0.10215)
(-5.94294e-07 3.54275e-07 0.10215)
(-4.02735e-05 4.02453e-05 0.102113)
(4.19887e-05 -4.19559e-05 0.102114)
(3.27716e-07 5.53918e-07 0.10215)
(3.40953e-07 -5.6791e-07 0.10215)
(3.15497e-07 5.49691e-07 0.10215)
(3.32498e-07 -5.66494e-07 0.10215)
(-3.46211e-07 -5.67974e-07 0.10215)
(-3.47867e-07 5.77238e-07 0.10215)
(-3.4667e-07 -5.75361e-07 0.10215)
(4.02513e-05 -4.02842e-05 0.102113)
(-4.19496e-05 4.19853e-05 0.102114)
(-5.52299e-07 -3.24277e-07 0.10215)
(5.50484e-07 -3.14488e-07 0.10215)
(-5.49903e-07 -3.159e-07 0.10215)
(4.19584e-05 4.19653e-05 0.102114)
(4.02527e-05 4.02231e-05 0.102113)
(-4.18183e-05 -4.18015e-05 0.102114)
(5.29962e-07 2.77978e-07 0.10215)
(-5.6394e-07 3.09695e-07 0.10215)
(7.07849e-07 4.97973e-07 0.102149)
(-6.16909e-07 4.73102e-07 0.102149)
(-4.02586e-05 4.02386e-05 0.102113)
(4.19549e-05 -4.1895e-05 0.102114)
(2.70158e-07 5.07632e-07 0.10215)
(2.83784e-07 -5.25445e-07 0.10215)
(4.94234e-07 6.6798e-07 0.102149)
(5.07961e-07 -6.89478e-07 0.102149)
(-2.90776e-07 -5.31281e-07 0.10215)
(-4.15134e-07 6.16098e-07 0.102149)
(-4.65063e-07 -7.04869e-07 0.102149)
(4.02278e-05 -4.02587e-05 0.102113)
(-4.17964e-05 4.18322e-05 0.102114)
(-5.04797e-07 -2.66015e-07 0.10215)
(6.74871e-07 -4.89331e-07 0.102149)
(-6.51635e-07 -5.00753e-07 0.102149)
(4.18435e-05 4.18036e-05 0.102114)
(4.04821e-05 4.04452e-05 0.102113)
(-4.19591e-05 -4.19189e-05 0.102115)
(6.9316e-07 5.18195e-07 0.10215)
(-6.76324e-07 5.25857e-07 0.10215)
(5.90636e-07 4.20275e-07 0.10215)
(-6.32973e-07 4.32872e-07 0.10215)
(-4.03824e-05 4.03834e-05 0.102113)
(4.1915e-05 -4.19038e-05 0.102115)
(5.13872e-07 6.6191e-07 0.10215)
(5.27249e-07 -6.8141e-07 0.10215)
(3.96343e-07 5.83123e-07 0.10215)
(4.1432e-07 -5.95397e-07 0.10215)
(-5.15216e-07 -6.97087e-07 0.10215)
(-4.26141e-07 6.00984e-07 0.10215)
(-4.29446e-07 -5.84213e-07 0.10215)
(4.0453e-05 -4.04821e-05 0.102113)
(-4.19261e-05 4.1959e-05 0.102115)
(-6.56936e-07 -5.13628e-07 0.10215)
(5.76398e-07 -3.98781e-07 0.10215)
(-5.85949e-07 -3.96078e-07 0.10215)
(4.19163e-05 4.19568e-05 0.102115)
(4.0317e-05 4.02985e-05 0.102113)
(-4.19632e-05 -4.19281e-05 0.102115)
(5.87903e-07 4.02438e-07 0.10215)
(-6.12945e-07 4.1043e-07 0.10215)
(5.97722e-07 3.94462e-07 0.10215)
(-6.04594e-07 3.96435e-07 0.10215)
(-4.03394e-05 4.0302e-05 0.102113)
(4.19625e-05 -4.19347e-05 0.102115)
(3.85764e-07 5.80223e-07 0.10215)
(3.99453e-07 -5.92355e-07 0.10215)
(3.74629e-07 5.83228e-07 0.10215)
(3.91836e-07 -5.97228e-07 0.10215)
(-4.10006e-07 -5.82809e-07 0.10215)
(-3.76916e-07 5.80662e-07 0.10215)
(-3.93408e-07 -5.93641e-07 0.10215)
(4.02946e-05 -4.03297e-05 0.102113)
(-4.19325e-05 4.19664e-05 0.102115)
(-5.81012e-07 -3.82464e-07 0.10215)
(5.78881e-07 -3.76095e-07 0.10215)
(-5.81301e-07 -3.76219e-07 0.10215)
(4.19348e-05 4.19561e-05 0.102115)
(4.03173e-05 4.02949e-05 0.102113)
(-4.19613e-05 -4.19285e-05 0.102115)
(6.00067e-07 3.92085e-07 0.10215)
(-6.06337e-07 3.96597e-07 0.10215)
(6.01448e-07 3.93786e-07 0.10215)
(-6.06295e-07 3.96536e-07 0.10215)
(-4.03114e-05 4.02864e-05 0.102113)
(4.19617e-05 -4.19335e-05 0.102115)
(3.79356e-07 5.84991e-07 0.10215)
(3.92766e-07 -5.9921e-07 0.10215)
(3.75604e-07 5.84256e-07 0.10215)
(3.92626e-07 -5.99016e-07 0.10215)
(-3.934e-07 -5.96564e-07 0.10215)
(-3.75653e-07 5.83956e-07 0.10215)
(-3.90996e-07 -5.96961e-07 0.10215)
(4.0294e-05 -4.03267e-05 0.102113)
(-4.19313e-05 4.1966e-05 0.102115)
(-5.82851e-07 -3.77095e-07 0.10215)
(5.81564e-07 -3.75948e-07 0.10215)
(-5.81192e-07 -3.76508e-07 0.10215)
(4.19359e-05 4.1955e-05 0.102115)
(4.03188e-05 4.0295e-05 0.102113)
(-4.19615e-05 -4.19295e-05 0.102115)
(6.02005e-07 3.91319e-07 0.10215)
(-6.06797e-07 3.9663e-07 0.10215)
(6.01307e-07 3.92949e-07 0.10215)
(-6.05859e-07 3.95894e-07 0.10215)
(-4.03125e-05 4.02878e-05 0.102113)
(4.19622e-05 -4.19337e-05 0.102115)
(3.79814e-07 5.84947e-07 0.10215)
(3.93256e-07 -5.99813e-07 0.10215)
(3.75248e-07 5.83472e-07 0.10215)
(3.9215e-07 -5.98844e-07 0.10215)
(-3.91646e-07 -5.97911e-07 0.10215)
(-3.75072e-07 5.83703e-07 0.10215)
(-3.90435e-07 -5.97027e-07 0.10215)
(4.02949e-05 -4.0327e-05 0.102113)
(-4.19313e-05 4.19662e-05 0.102115)
(-5.82054e-07 -3.77016e-07 0.10215)
(5.81597e-07 -3.75534e-07 0.10215)
(-5.80677e-07 -3.76548e-07 0.10215)
(4.19364e-05 4.19549e-05 0.102115)
(4.03183e-05 4.02944e-05 0.102113)
(-4.19612e-05 -4.19302e-05 0.102115)
(6.02009e-07 3.90927e-07 0.10215)
(-6.06535e-07 3.96385e-07 0.10215)
(6.01041e-07 3.92538e-07 0.10215)
(-6.06553e-07 3.9642e-07 0.10215)
(-4.03119e-05 4.0287e-05 0.102113)
(4.19618e-05 -4.19338e-05 0.102115)
(3.79646e-07 5.84444e-07 0.10215)
(3.93012e-07 -5.99826e-07 0.10215)
(3.75409e-07 5.83431e-07 0.10215)
(3.92446e-07 -5.9913e-07 0.10215)
(-3.91795e-07 -5.98284e-07 0.10215)
(-3.75172e-07 5.83776e-07 0.10215)
(-3.90247e-07 -5.96836e-07 0.10215)
(4.02949e-05 -4.03268e-05 0.102113)
(-4.19309e-05 4.19658e-05 0.102115)
(-5.81909e-07 -3.77501e-07 0.10215)
(5.81847e-07 -3.75548e-07 0.10215)
(-5.80439e-07 -3.76409e-07 0.10215)
(4.19364e-05 4.1955e-05 0.102115)
(4.03182e-05 4.02948e-05 0.102113)
(-4.19615e-05 -4.19318e-05 0.102115)
(6.02199e-07 3.91148e-07 0.10215)
(-6.06051e-07 3.96022e-07 0.10215)
(5.99282e-07 3.91392e-07 0.10215)
(-6.06744e-07 3.97245e-07 0.10215)
(-4.03118e-05 4.02874e-05 0.102113)
(4.19637e-05 -4.1933e-05 0.102115)
(3.79502e-07 5.83984e-07 0.10215)
(3.92928e-07 -5.99753e-07 0.10215)
(3.76876e-07 5.82747e-07 0.10215)
(3.92875e-07 -5.99238e-07 0.10215)
(-3.91182e-07 -5.9777e-07 0.10215)
(-3.74734e-07 5.84602e-07 0.10215)
(-3.92723e-07 -5.97612e-07 0.10215)
(4.02949e-05 -4.03269e-05 0.102113)
(-4.19326e-05 4.19656e-05 0.102115)
(-5.8118e-07 -3.77004e-07 0.10215)
(5.80646e-07 -3.75621e-07 0.10215)
(-5.79187e-07 -3.79427e-07 0.10215)
(4.19398e-05 4.19533e-05 0.102115)
(4.03161e-05 4.02933e-05 0.102113)
(-4.19526e-05 -4.19372e-05 0.102115)
(6.00546e-07 3.91448e-07 0.10215)
(-6.04863e-07 3.99751e-07 0.10215)
(6.00084e-07 3.93719e-07 0.10215)
(-6.04606e-07 4.01251e-07 0.10215)
(-4.03097e-05 4.02893e-05 0.102113)
(4.19625e-05 -4.19294e-05 0.102115)
(3.82368e-07 5.83354e-07 0.10215)
(3.94289e-07 -6.00417e-07 0.10215)
(3.83078e-07 5.85639e-07 0.10215)
(3.94491e-07 -5.99359e-07 0.10215)
(-3.97006e-07 -5.99694e-07 0.10215)
(-3.72646e-07 5.81311e-07 0.10215)
(-3.97624e-07 -5.98889e-07 0.10215)
(4.02938e-05 -4.03275e-05 0.102113)
(-4.19317e-05 4.19654e-05 0.102115)
(-5.78451e-07 -3.83134e-07 0.10215)
(5.80877e-07 -3.76994e-07 0.10215)
(-5.76674e-07 -3.824e-07 0.10215)
(4.19388e-05 4.19529e-05 0.102115)
(4.03239e-05 4.02969e-05 0.102113)
(-4.19635e-05 -4.19362e-05 0.102115)
(6.05985e-07 4.01905e-07 0.10215)
(-6.06227e-07 3.97175e-07 0.10215)
(5.96384e-07 3.87253e-07 0.10215)
(-6.10907e-07 4.10293e-07 0.10215)
(-4.03137e-05 4.02879e-05 0.102113)
(4.1957e-05 -4.19222e-05 0.102115)
(3.88254e-07 5.87781e-07 0.10215)
(3.95066e-07 -5.99607e-07 0.10215)
(3.75688e-07 5.82246e-07 0.10215)
(3.93325e-07 -5.98426e-07 0.10215)
(-3.95188e-07 -5.9854e-07 0.10215)
(-3.76299e-07 5.92692e-07 0.10215)
(-3.91787e-07 -5.954e-07 0.10215)
(4.02948e-05 -4.03276e-05 0.102113)
(-4.19317e-05 4.19666e-05 0.102115)
(-5.79677e-07 -3.79424e-07 0.10215)
(5.81725e-07 -3.75212e-07 0.10215)
(-5.80752e-07 -3.75653e-07 0.10215)
(4.19358e-05 4.19567e-05 0.102115)
(4.03117e-05 4.02993e-05 0.102113)
(-4.19592e-05 -4.19306e-05 0.102115)
(5.98077e-07 3.9704e-07 0.10215)
(-6.13575e-07 4.11487e-07 0.10215)
(5.99622e-07 3.90527e-07 0.10215)
(-6.03167e-07 3.97422e-07 0.10215)
(-4.03198e-05 4.03044e-05 0.102113)
(4.19604e-05 -4.19335e-05 0.102115)
(3.78668e-07 5.86138e-07 0.10215)
(3.94046e-07 -5.99728e-07 0.10215)
(3.76306e-07 5.86124e-07 0.10215)
(3.94146e-07 -5.99657e-07 0.10215)
(-3.93334e-07 -5.96378e-07 0.10215)
(-3.75949e-07 5.8643e-07 0.10215)
(-3.92829e-07 -5.9664e-07 0.10215)
(4.02947e-05 -4.03267e-05 0.102113)
(-4.19311e-05 4.19656e-05 0.102115)
(-5.81973e-07 -3.76551e-07 0.10215)
(5.8218e-07 -3.76255e-07 0.10215)
(-5.81835e-07 -3.77043e-07 0.10215)
(4.19349e-05 4.19551e-05 0.102115)
(4.03152e-05 4.03019e-05 0.102113)
(-4.1958e-05 -4.19306e-05 0.102115)
(6.02014e-07 3.97479e-07 0.10215)
(-6.04263e-07 3.98988e-07 0.10215)
(6.0174e-07 3.90557e-07 0.10215)
(-6.02198e-07 3.95905e-07 0.10215)
(-4.03133e-05 4.02876e-05 0.102113)
(4.19623e-05 -4.19348e-05 0.102115)
(3.80767e-07 5.87873e-07 0.10215)
(3.94909e-07 -6.00522e-07 0.10215)
(3.77193e-07 5.86424e-07 0.10215)
(3.93718e-07 -5.99558e-07 0.10215)
(-3.9342e-07 -5.97912e-07 0.10215)
(-3.75453e-07 5.85633e-07 0.10215)
(-3.91507e-07 -5.9715e-07 0.10215)
(4.02954e-05 -4.03276e-05 0.102113)
(-4.19313e-05 4.19659e-05 0.102115)
(-5.82704e-07 -3.77349e-07 0.10215)
(5.82283e-07 -3.75968e-07 0.10215)
(-5.8116e-07 -3.76931e-07 0.10215)
(4.19358e-05 4.19551e-05 0.102115)
(4.03161e-05 4.03017e-05 0.102113)
(-4.19578e-05 -4.19325e-05 0.102115)
(6.01262e-07 3.95307e-07 0.10215)
(-6.03937e-07 3.97927e-07 0.10215)
(6.00371e-07 3.88571e-07 0.10215)
(-6.02885e-07 3.95797e-07 0.10215)
(-4.03122e-05 4.02876e-05 0.102113)
(4.19615e-05 -4.19346e-05 0.102115)
(3.80825e-07 5.87224e-07 0.10215)
(3.94396e-07 -6.00436e-07 0.10215)
(3.76864e-07 5.85265e-07 0.10215)
(3.93273e-07 -5.99495e-07 0.10215)
(-3.92233e-07 -5.98074e-07 0.10215)
(-3.75843e-07 5.85544e-07 0.10215)
(-3.90928e-07 -5.97223e-07 0.10215)
(4.02952e-05 -4.03273e-05 0.102113)
(-4.19311e-05 4.19653e-05 0.102115)
(-5.82079e-07 -3.76972e-07 0.10215)
(5.82062e-07 -3.76098e-07 0.10215)
(-5.80839e-07 -3.77355e-07 0.10215)
(4.19355e-05 4.19542e-05 0.102115)
(4.03146e-05 4.02981e-05 0.102113)
(-4.19586e-05 -4.19346e-05 0.102115)
(6.00183e-07 3.9402e-07 0.10215)
(-6.03993e-07 3.96867e-07 0.10215)
(6.00132e-07 3.88164e-07 0.10215)
(-6.02773e-07 3.9548e-07 0.10215)
(-4.03111e-05 4.02859e-05 0.102113)
(4.19634e-05 -4.19363e-05 0.102115)
(3.81097e-07 5.86316e-07 0.10215)
(3.94166e-07 -6.00657e-07 0.10215)
(3.77603e-07 5.85264e-07 0.10215)
(3.93154e-07 -5.99329e-07 0.10215)
(-3.92197e-07 -5.98443e-07 0.10215)
(-3.75822e-07 5.85202e-07 0.10215)
(-3.90783e-07 -5.97217e-07 0.10215)
(4.02937e-05 -4.03262e-05 0.102113)
(-4.19328e-05 4.19671e-05 0.102115)
(-5.81878e-07 -3.77267e-07 0.10215)
(5.81927e-07 -3.75973e-07 0.10215)
(-5.80809e-07 -3.77677e-07 0.10215)
(4.19373e-05 4.19557e-05 0.102115)
(4.03151e-05 4.02974e-05 0.102113)
(-4.1956e-05 -4.19322e-05 0.102115)
(5.99391e-07 3.92699e-07 0.10215)
(-6.02899e-07 3.95268e-07 0.10215)
(5.99378e-07 3.87379e-07 0.10215)
(-6.02217e-07 3.94508e-07 0.10215)
(-4.03106e-05 4.02854e-05 0.102113)
(4.19605e-05 -4.19336e-05 0.102115)
(3.80324e-07 5.85569e-07 0.10215)
(3.92871e-07 -5.99626e-07 0.10215)
(3.76934e-07 5.84447e-07 0.10215)
(3.92628e-07 -5.98911e-07 0.10215)
(-3.90429e-07 -5.97287e-07 0.10215)
(-3.75125e-07 5.84775e-07 0.10215)
(-3.89951e-07 -5.96646e-07 0.10215)
(4.02933e-05 -4.03257e-05 0.102113)
(-4.19297e-05 4.19641e-05 0.102115)
(-5.80768e-07 -3.754e-07 0.10215)
(5.81725e-07 -3.75118e-07 0.10215)
(-5.80042e-07 -3.76846e-07 0.10215)
(4.19347e-05 4.19531e-05 0.102115)
(4.03118e-05 4.02939e-05 0.102113)
(-4.19495e-05 -4.19252e-05 0.102115)
(5.99186e-07 3.92847e-07 0.10215)
(-6.02961e-07 3.95331e-07 0.10215)
(5.98335e-07 3.85337e-07 0.10215)
(-6.01398e-07 3.92423e-07 0.10215)
(-4.03076e-05 4.02823e-05 0.102113)
(4.19536e-05 -4.19267e-05 0.102115)
(3.80638e-07 5.85356e-07 0.10215)
(3.93364e-07 -5.99831e-07 0.10215)
(3.74352e-07 5.83554e-07 0.10215)
(3.90755e-07 -5.98441e-07 0.10215)
(-3.90882e-07 -5.975e-07 0.10215)
(-3.73372e-07 5.83911e-07 0.10215)
(-3.88349e-07 -5.95959e-07 0.10215)
(4.02904e-05 -4.03228e-05 0.102113)
(-4.19227e-05 4.1957e-05 0.102115)
(-5.80943e-07 -3.75632e-07 0.10215)
(5.80953e-07 -3.73293e-07 0.10215)
(-5.79651e-07 -3.74649e-07 0.10215)
(4.19274e-05 4.19461e-05 0.102115)
(4.02983e-05 4.02811e-05 0.102113)
(5.98082e-07 3.89116e-07 0.10215)
(-6.01921e-07 3.9133e-07 0.10215)
(-4.02946e-05 4.02693e-05 0.102113)
(3.76185e-07 5.8452e-07 0.10215)
(3.89307e-07 -5.98896e-07 0.10215)
(-3.87261e-07 -5.96587e-07 0.10215)
(4.02775e-05 -4.03099e-05 0.102113)
(-5.80428e-07 -3.7179e-07 0.10215)
(-5.72512e-07 -5.64533e-07 0.102174)
(5.64894e-07 -5.66764e-07 0.102174)
(-5.66109e-07 5.68664e-07 0.102174)
(5.61967e-07 5.6852e-07 0.102174)
(3.03175e-08 -8.32965e-06 0.100756)
(7.23286e-07 6.12672e-06 0.0952387)
(-3.81207e-08 8.05429e-06 0.100749)
(-1.03974e-06 -6.21463e-06 0.0952492)
(-1.69226e-06 2.27334e-06 0.0844176)
(1.62433e-06 -2.33363e-06 0.0844279)
(-8.37816e-06 2.82182e-08 0.100755)
(6.16915e-06 7.0893e-07 0.0952387)
(8.10667e-06 -1.95011e-08 0.10075)
(-6.24773e-06 -1.01709e-06 0.0952492)
(5.65776e-07 -5.70312e-07 0.102174)
(-5.69127e-07 5.71351e-07 0.102174)
(5.64002e-07 5.71038e-07 0.102174)
(-5.90897e-07 -5.80868e-07 0.102174)
(5.77915e-07 -5.80172e-07 0.102174)
(-5.83321e-07 5.86305e-07 0.102174)
(5.78544e-07 5.86906e-07 0.102174)
(1.35289e-05 2.82408e-08 0.101884)
(-1.28855e-05 3.74453e-06 0.100993)
(-4.54106e-07 -1.59955e-07 0.102168)
(-3.6101e-07 5.76823e-07 0.10215)
(-1.35172e-05 -2.63487e-08 0.101882)
(1.24387e-05 -4.04351e-06 0.101001)
(-4.46781e-07 -1.61758e-07 0.102168)
(2.1645e-06 -1.62045e-06 0.084415)
(-2.26972e-06 1.57571e-06 0.0844282)
(2.93755e-08 1.35438e-05 0.101884)
(-1.66958e-07 -4.47972e-07 0.102168)
(3.77406e-06 -1.29197e-05 0.100993)
(5.73437e-07 -3.58597e-07 0.10215)
(-3.72055e-08 -1.35224e-05 0.101882)
(-1.69652e-07 -4.39745e-07 0.102168)
(-4.09712e-06 1.24906e-05 0.101001)
(-4.08414e-06 -4.96543e-06 0.0992953)
(-4.95835e-06 -4.09056e-06 0.0992948)
(4.19208e-05 4.19463e-05 0.102115)
(3.8844e-06 4.81212e-06 0.0993048)
(4.79848e-06 3.87648e-06 0.0993042)
(1.93398e-08 -8.37237e-06 0.100755)
(7.41118e-07 6.07478e-06 0.0952393)
(-4.58252e-08 8.0043e-06 0.100749)
(-1.00743e-06 -6.23964e-06 0.0952499)
(-1.6292e-06 2.1714e-06 0.0844185)
(1.6244e-06 -2.4051e-06 0.0844293)
(-8.42386e-06 1.45622e-08 0.100755)
(6.11561e-06 7.26485e-07 0.0952392)
(8.05678e-06 -2.9472e-08 0.10075)
(-6.27227e-06 -9.90365e-07 0.0952498)
(5.83294e-07 -5.84452e-07 0.102174)
(-5.81546e-07 5.84746e-07 0.102174)
(5.79284e-07 5.8437e-07 0.102174)
(-5.95842e-07 -5.9074e-07 0.102174)
(5.93114e-07 -5.94164e-07 0.102174)
(-5.89242e-07 5.93417e-07 0.102174)
(5.90097e-07 5.93576e-07 0.102174)
(1.35734e-05 1.93722e-08 0.101884)
(-1.28255e-05 3.69421e-06 0.100992)
(-4.16852e-07 -1.71108e-07 0.102168)
(-3.23785e-07 5.53943e-07 0.10215)
(-1.34715e-05 -3.35452e-08 0.101882)
(1.24967e-05 -4.10674e-06 0.101001)
(-4.05148e-07 -1.7189e-07 0.102167)
(2.06245e-06 -1.57947e-06 0.0844162)
(-2.31611e-06 1.64287e-06 0.0844295)
(2.36509e-08 1.35866e-05 0.101884)
(-1.74049e-07 -4.06139e-07 0.102168)
(3.70597e-06 -1.28542e-05 0.100993)
(5.62267e-07 -3.39602e-07 0.10215)
(-4.37924e-08 -1.34723e-05 0.101882)
(-1.78648e-07 -4.10792e-07 0.102167)
(-4.15424e-06 1.25465e-05 0.101001)
(-4.08173e-06 -4.93557e-06 0.0992952)
(-4.92556e-06 -4.07507e-06 0.0992948)
(4.19635e-05 4.19861e-05 0.102114)
(3.85476e-06 4.8696e-06 0.0993047)
(4.8504e-06 3.87302e-06 0.0993041)
(1.41743e-08 -8.43912e-06 0.100755)
(7.71265e-07 6.07919e-06 0.0952401)
(-4.3629e-08 7.96655e-06 0.100749)
(-9.89548e-07 -6.28525e-06 0.0952506)
(-1.6487e-06 2.1518e-06 0.0844206)
(1.7534e-06 -2.44393e-06 0.0844311)
(-8.48554e-06 -8.35225e-09 0.100755)
(6.1233e-06 7.43953e-07 0.09524)
(8.01955e-06 -3.9623e-08 0.100749)
(-6.31988e-06 -9.83872e-07 0.0952505)
(5.96785e-07 -5.98034e-07 0.102174)
(-5.97662e-07 6.03209e-07 0.102174)
(5.99609e-07 6.01501e-07 0.102174)
(-4.9238e-07 -5.05126e-07 0.102174)
(5.73965e-07 -5.51017e-07 0.102174)
(-4.92994e-07 4.99835e-07 0.102174)
(5.28753e-07 4.90853e-07 0.102174)
(1.36178e-05 2.13157e-09 0.101884)
(-1.27824e-05 3.62242e-06 0.100992)
(-3.79515e-07 -1.75543e-07 0.102167)
(-2.60567e-07 5.13032e-07 0.10215)
(-1.34341e-05 -4.57647e-08 0.101881)
(1.25563e-05 -4.1199e-06 0.101001)
(-3.45462e-07 -1.87933e-07 0.102167)
(2.12035e-06 -1.59155e-06 0.0844181)
(-2.44868e-06 1.7601e-06 0.084432)
(2.07341e-08 1.36514e-05 0.101883)
(-1.79744e-07 -3.54275e-07 0.102167)
(3.69221e-06 -1.28276e-05 0.100992)
(5.40412e-07 -2.96759e-07 0.10215)
(-4.43897e-08 -1.34502e-05 0.101881)
(-1.82193e-07 -3.69938e-07 0.102167)
(-4.22705e-06 1.26336e-05 0.101001)
(-4.10081e-06 -4.91702e-06 0.0992952)
(-4.90082e-06 -4.09774e-06 0.0992947)
(4.20403e-05 4.20517e-05 0.102114)
(3.99399e-06 4.92578e-06 0.0993047)
(4.93446e-06 4.00543e-06 0.0993042)
(1.21703e-08 -7.99658e-06 0.100755)
(7.74058e-07 6.54883e-06 0.0952407)
(2.07521e-08 8.25234e-06 0.100749)
(-9.55432e-07 -5.39511e-06 0.0952502)
(-1.75375e-06 2.45924e-06 0.0844235)
(1.33955e-06 -1.87071e-06 0.0844312)
(-8.04919e-06 5.49653e-09 0.100755)
(6.5962e-06 7.45743e-07 0.0952407)
(8.30963e-06 1.37445e-09 0.100749)
(-5.43677e-06 -9.29587e-07 0.0952502)
(5.1139e-07 -4.98688e-07 0.102174)
(-4.66584e-07 4.7211e-07 0.102174)
(4.83562e-07 4.66281e-07 0.102174)
(-5.54219e-07 -5.39836e-07 0.102174)
(5.13477e-07 -5.24975e-07 0.102174)
(-5.45935e-07 5.47513e-07 0.102174)
(5.29269e-07 5.49321e-07 0.102174)
(1.30234e-05 4.36451e-08 0.101884)
(-1.29841e-05 3.70882e-06 0.100992)
(-6.13594e-07 -1.51677e-07 0.102167)
(-5.05291e-07 6.64057e-07 0.10215)
(-1.37237e-05 -5.52323e-08 0.101881)
(1.20602e-05 -3.69904e-06 0.101001)
(-6.41596e-07 -1.25547e-07 0.102167)
(2.5735e-06 -1.90756e-06 0.0844193)
(-1.83133e-06 1.43312e-06 0.0844295)
(5.25893e-08 1.30564e-05 0.101884)
(-1.23423e-07 -6.38076e-07 0.102167)
(3.98459e-06 -1.32141e-05 0.100992)
(6.26204e-07 -4.71661e-07 0.10215)
(-8.00562e-09 -1.38895e-05 0.101881)
(-1.32129e-07 -6.20045e-07 0.102167)
(-3.743e-06 1.2124e-05 0.101001)
(-4.2353e-06 -5.17246e-06 0.0992952)
(-5.08799e-06 -4.22782e-06 0.0992946)
(4.18224e-05 4.18613e-05 0.102114)
(3.78386e-06 4.8091e-06 0.0993045)
(4.76829e-06 3.85497e-06 0.0993039)
(1.8296e-08 -8.26476e-06 0.100756)
(7.62074e-07 6.37247e-06 0.0952387)
(-6.82402e-08 8.17032e-06 0.10075)
(-1.01394e-06 -6.05294e-06 0.0952488)
(-1.72985e-06 2.40577e-06 0.0844181)
(1.61746e-06 -2.25947e-06 0.0844278)
(-8.31881e-06 2.26175e-08 0.100755)
(6.4026e-06 7.46556e-07 0.0952386)
(8.21761e-06 -3.57886e-08 0.10075)
(-6.09067e-06 -9.95812e-07 0.0952488)
(5.36923e-07 -5.46423e-07 0.102174)
(-5.59487e-07 5.60625e-07 0.102174)
(5.45431e-07 5.61149e-07 0.102174)
(-5.68484e-07 -5.59676e-07 0.102174)
(5.60716e-07 -5.62727e-07 0.102174)
(-5.62742e-07 5.6461e-07 0.102174)
(5.57777e-07 5.63391e-07 0.102174)
(1.34257e-05 3.26125e-08 0.101884)
(-1.30551e-05 3.9179e-06 0.100993)
(-5.24605e-07 -1.44963e-07 0.102168)
(-3.84266e-07 5.77586e-07 0.10215)
(-1.37117e-05 -5.87437e-09 0.101882)
(1.23582e-05 -3.99557e-06 0.101002)
(-4.98224e-07 -1.54102e-07 0.102168)
(2.25364e-06 -1.5927e-06 0.084415)
(-2.17527e-06 1.57019e-06 0.0844277)
(2.8016e-08 1.34542e-05 0.101884)
(-1.64508e-07 -4.97562e-07 0.102168)
(3.85375e-06 -1.30284e-05 0.100993)
(5.74049e-07 -3.78318e-07 0.10215)
(-3.87958e-08 -1.36666e-05 0.101882)
(-1.6615e-07 -4.82977e-07 0.102168)
(-4.05239e-06 1.24218e-05 0.101001)
(-4.07454e-06 -4.91202e-06 0.0992951)
(-4.93435e-06 -4.08178e-06 0.0992947)
(4.19324e-05 4.19577e-05 0.102115)
(3.88167e-06 4.82915e-06 0.0993047)
(4.811e-06 3.8727e-06 0.0993041)
(2.8074e-08 -8.2887e-06 0.100756)
(7.51812e-07 6.23672e-06 0.0952384)
(-4.47981e-08 8.08352e-06 0.10075)
(-1.01101e-06 -6.07651e-06 0.0952488)
(-1.67963e-06 2.28996e-06 0.0844176)
(1.61421e-06 -2.28559e-06 0.0844278)
(-8.33915e-06 2.17631e-08 0.100755)
(6.27544e-06 7.36536e-07 0.0952384)
(8.13556e-06 -3.0341e-08 0.10075)
(-6.11126e-06 -9.92684e-07 0.0952487)
(5.61175e-07 -5.63348e-07 0.102174)
(-5.61846e-07 5.63893e-07 0.102174)
(5.57517e-07 5.62347e-07 0.102174)
(-5.65685e-07 -5.59024e-07 0.102174)
(5.62669e-07 -5.62902e-07 0.102174)
(-5.60071e-07 5.6298e-07 0.102174)
(5.58985e-07 5.61735e-07 0.102174)
(1.34589e-05 2.36286e-08 0.101884)
(-1.29159e-05 3.7533e-06 0.100993)
(-4.7758e-07 -1.60891e-07 0.102168)
(-3.76381e-07 5.83468e-07 0.10215)
(-1.35835e-05 -3.17866e-08 0.101882)
(1.23976e-05 -4.02226e-06 0.101002)
(-4.73977e-07 -1.61252e-07 0.102168)
(2.18931e-06 -1.61531e-06 0.0844149)
(-2.18536e-06 1.55402e-06 0.0844277)
(3.05731e-08 1.34688e-05 0.101884)
(-1.64596e-07 -4.70611e-07 0.102168)
(3.78602e-06 -1.29556e-05 0.100993)
(5.81274e-07 -3.76548e-07 0.10215)
(-3.78664e-08 -1.35892e-05 0.101882)
(-1.64268e-07 -4.71053e-07 0.102168)
(-4.05707e-06 1.24383e-05 0.101001)
(-4.09374e-06 -4.95202e-06 0.0992953)
(-4.94198e-06 -4.08818e-06 0.0992948)
(4.19333e-05 4.19529e-05 0.102115)
(3.88113e-06 4.81723e-06 0.0993047)
(4.80959e-06 3.87524e-06 0.0993041)
(2.87519e-08 -8.28812e-06 0.100756)
(7.55758e-07 6.2414e-06 0.0952385)
(-4.32952e-08 8.08239e-06 0.10075)
(-1.01193e-06 -6.07906e-06 0.0952488)
(-1.68287e-06 2.28912e-06 0.0844176)
(1.61238e-06 -2.28668e-06 0.0844278)
(-8.33889e-06 2.12818e-08 0.100755)
(6.27875e-06 7.38717e-07 0.0952384)
(8.13458e-06 -3.03686e-08 0.10075)
(-6.11093e-06 -9.93842e-07 0.0952487)
(5.62348e-07 -5.63258e-07 0.102174)
(-5.60021e-07 5.62935e-07 0.102174)
(5.58524e-07 5.61393e-07 0.102174)
(-5.65699e-07 -5.59468e-07 0.102174)
(5.63079e-07 -5.6336e-07 0.102174)
(-5.6009e-07 5.62915e-07 0.102174)
(5.59293e-07 5.61541e-07 0.102174)
(1.34593e-05 2.38253e-08 0.101884)
(-1.29136e-05 3.75757e-06 0.100993)
(-4.74327e-07 -1.61116e-07 0.102168)
(-3.75208e-07 5.83763e-07 0.10215)
(-1.35818e-05 -3.19636e-08 0.101882)
(1.23979e-05 -4.02009e-06 0.101002)
(-4.7182e-07 -1.61393e-07 0.102168)
(2.18968e-06 -1.61717e-06 0.0844149)
(-2.18516e-06 1.55364e-06 0.0844277)
(3.11743e-08 1.34691e-05 0.101884)
(-1.6341e-07 -4.69485e-07 0.102168)
(3.78889e-06 -1.29552e-05 0.100993)
(5.81966e-07 -3.75894e-07 0.10215)
(-3.68241e-08 -1.35889e-05 0.101882)
(-1.63422e-07 -4.70199e-07 0.102168)
(-4.05531e-06 1.2439e-05 0.101001)
(-4.09253e-06 -4.95279e-06 0.0992953)
(-4.94149e-06 -4.087e-06 0.0992948)
(4.19341e-05 4.1953e-05 0.102115)
(3.88166e-06 4.81714e-06 0.0993047)
(4.80996e-06 3.87554e-06 0.0993041)
(2.91354e-08 -8.2884e-06 0.100756)
(7.57973e-07 6.2463e-06 0.0952385)
(-4.29691e-08 8.08192e-06 0.10075)
(-1.01475e-06 -6.08581e-06 0.0952487)
(-1.68668e-06 2.29417e-06 0.0844176)
(1.61624e-06 -2.29309e-06 0.0844278)
(-8.33903e-06 2.07714e-08 0.100755)
(6.27964e-06 7.4184e-07 0.0952384)
(8.13464e-06 -3.07645e-08 0.10075)
(-6.1127e-06 -9.969e-07 0.0952487)
(5.62295e-07 -5.63323e-07 0.102174)
(-5.60075e-07 5.62762e-07 0.102174)
(5.5839e-07 5.60956e-07 0.102174)
(-5.65731e-07 -5.59551e-07 0.102174)
(5.62857e-07 -5.63056e-07 0.102174)
(-5.59819e-07 5.62846e-07 0.102174)
(5.59503e-07 5.61784e-07 0.102174)
(1.34591e-05 2.38207e-08 0.101884)
(-1.29136e-05 3.75738e-06 0.100993)
(-4.74334e-07 -1.61238e-07 0.102168)
(-3.75723e-07 5.84045e-07 0.10215)
(-1.35815e-05 -3.20167e-08 0.101882)
(1.23976e-05 -4.02011e-06 0.101002)
(-4.72274e-07 -1.61399e-07 0.102168)
(2.18963e-06 -1.6171e-06 0.0844149)
(-2.18508e-06 1.55367e-06 0.0844277)
(3.16163e-08 1.34683e-05 0.101884)
(-1.63316e-07 -4.69523e-07 0.102168)
(3.78893e-06 -1.29561e-05 0.100993)
(5.82213e-07 -3.76276e-07 0.10215)
(-3.63599e-08 -1.35894e-05 0.101882)
(-1.63309e-07 -4.70633e-07 0.102168)
(-4.05472e-06 1.24401e-05 0.101001)
(-4.09222e-06 -4.95285e-06 0.0992953)
(-4.94138e-06 -4.08722e-06 0.0992948)
(4.1934e-05 4.19526e-05 0.102115)
(3.88191e-06 4.81712e-06 0.0993047)
(4.81002e-06 3.87562e-06 0.0993041)
(2.77028e-08 -8.28802e-06 0.100756)
(7.60395e-07 6.25702e-06 0.0952386)
(-4.31304e-08 8.08098e-06 0.10075)
(-1.01795e-06 -6.09931e-06 0.0952486)
(-1.68389e-06 2.29393e-06 0.0844176)
(1.61681e-06 -2.29369e-06 0.0844278)
(-8.33927e-06 2.0649e-08 0.100755)
(6.28235e-06 7.448e-07 0.0952385)
(8.13498e-06 -3.12155e-08 0.10075)
(-6.1146e-06 -1.00152e-06 0.0952486)
(5.62704e-07 -5.63367e-07 0.102174)
(-5.59988e-07 5.63039e-07 0.102174)
(5.58809e-07 5.61462e-07 0.102174)
(-5.65781e-07 -5.59828e-07 0.102174)
(5.62886e-07 -5.61259e-07 0.102174)
(-5.58972e-07 5.62113e-07 0.102174)
(5.584e-07 5.59761e-07 0.102174)
(1.34598e-05 2.37894e-08 0.101884)
(-1.29132e-05 3.75756e-06 0.100993)
(-4.73728e-07 -1.61097e-07 0.102168)
(-3.75017e-07 5.84114e-07 0.10215)
(-1.35815e-05 -3.19487e-08 0.101882)
(1.23981e-05 -4.01978e-06 0.101002)
(-4.71289e-07 -1.61219e-07 0.102168)
(2.18951e-06 -1.61763e-06 0.0844149)
(-2.18515e-06 1.5534e-06 0.0844277)
(3.13901e-08 1.34689e-05 0.101884)
(-1.63259e-07 -4.6907e-07 0.102168)
(3.78844e-06 -1.2958e-05 0.100993)
(5.81463e-07 -3.75231e-07 0.10215)
(-3.61499e-08 -1.35893e-05 0.101882)
(-1.63141e-07 -4.70026e-07 0.102168)
(-4.05355e-06 1.24416e-05 0.101001)
(-4.0919e-06 -4.95256e-06 0.0992953)
(-4.94094e-06 -4.08686e-06 0.0992948)
(4.19349e-05 4.19527e-05 0.102115)
(3.88197e-06 4.81676e-06 0.0993047)
(4.81013e-06 3.8754e-06 0.0993041)
(1.44766e-08 -8.28809e-06 0.100756)
(7.58942e-07 6.27602e-06 0.0952388)
(-5.00999e-08 8.07996e-06 0.10075)
(-1.08847e-06 -6.15013e-06 0.0952484)
(-1.68972e-06 2.30598e-06 0.0844176)
(1.59967e-06 -2.21914e-06 0.0844277)
(-8.33941e-06 2.12477e-08 0.100755)
(6.28479e-06 7.48094e-07 0.0952387)
(8.13511e-06 -3.15765e-08 0.10075)
(-6.11584e-06 -1.00473e-06 0.0952484)
(5.62431e-07 -5.59026e-07 0.102174)
(-5.58199e-07 5.616e-07 0.102174)
(5.55472e-07 5.56282e-07 0.102174)
(-5.62784e-07 -5.56846e-07 0.102174)
(5.63755e-07 -5.57724e-07 0.102174)
(-5.57186e-07 5.60895e-07 0.102174)
(5.5574e-07 5.53811e-07 0.102174)
(1.34592e-05 2.32996e-08 0.101884)
(-1.29126e-05 3.75742e-06 0.100993)
(-4.75509e-07 -1.61071e-07 0.102168)
(-3.74476e-07 5.84518e-07 0.10215)
(-1.35812e-05 -3.21056e-08 0.101882)