/*--------------------------------*- C++ -*----------------------------------*\
| =========                 |                                                 |
| \\      /  F ield         | OpenFOAM: The Open Source CFD Toolbox           |
|  \\    /   O peration     | Version:  2206                                  |
|   \\  /    A nd           | Website:  www.openfoam.com                      |
|    \\/     M anipulation  |                                                 |
\*---------------------------------------------------------------------------*/
FoamFile
{
    version     2.0;
    format      ascii;
    arch        "LSB;label=32;scalar=64";
    class       volScalarField;
    location    "4";
    object      nut;
}
// * * * * * * * * * * * * * * * * * * * * * * * * * * * * * * * * * * * * * //

dimensions      [0 2 -1 0 0 0 0];

internalField   nonuniform List<scalar> 
171728
(
0.000238122
0.000233946
0.000234738
0.000234737
0.000238119
0.000237822
0.000238115
0.00023474
0.000234739
0.000238122
0.000234738
0.000234739
0.000234742
0.000238122
0.000234738
0.000109566
0.000109552
0.000237824
0.00010415
0.000104147
0.000132825
3.13526e-05
3.12288e-05
0.00014131
1.30062e-05
1.29511e-05
0.00013281
3.13491e-05
3.1225e-05
0.000141307
0.000233946
0.000233946
0.000233946
0.000215191
0.000155024
0.000234015
0.00023474
0.000141306
0.000234018
0.000219133
1.3005e-05
1.29498e-05
0.000215188
0.000234015
0.000155021
0.000234744
0.000234018
0.000141297
0.000219132
0.000109559
0.000109547
0.000237846
0.000104204
0.000104203
1.30061e-05
1.29501e-05
1.30055e-05
1.29496e-05
0.000238122
0.000104142
0.000104141
0.000109566
0.000109552
1.29501e-05
1.30061e-05
1.29496e-05
1.30055e-05
1.30069e-05
1.29517e-05
1.30058e-05
1.29505e-05
0.000109567
0.000109553
0.000237847
0.000104189
0.000104184
0.000132826
3.13518e-05
3.12277e-05
0.000141311
0.000215183
0.000155023
0.000234015
0.000234742
0.000141297
0.000234018
0.000219133
0.000215184
0.000155013
0.000234015
0.000234739
0.000141288
0.000234018
0.000219133
0.000109554
0.00010957
0.000237852
0.000104195
0.000104201
1.30069e-05
1.29517e-05
0.000215178
0.000155011
0.000234015
0.000234743
0.000141279
0.000234018
0.00021913
0.00013281
3.13479e-05
3.12238e-05
0.000141307
0.000215177
0.000234015
0.000155006
0.000234745
0.000234018
0.000141276
0.00021913
0.000132847
3.13511e-05
3.12274e-05
0.000141309
0.00021519
0.000234015
0.000155018
0.000234745
0.000234018
0.000141309
0.000219134
0.000132846
3.13495e-05
3.12258e-05
0.000141309
0.000109547
0.000109567
0.000237844
0.000104182
0.000104187
1.30062e-05
1.2951e-05
0.00021519
0.000234015
0.00015501
0.000234743
0.000234018
0.0001413
0.000219132
0.000132844
3.13493e-05
3.12255e-05
0.000141308
0.000132849
3.13488e-05
3.12249e-05
0.000141307
1.30059e-05
1.29509e-05
1.30054e-05
1.29503e-05
9.04248e-05
1.1296e-05
1.12947e-05
1.12994e-05
1.1298e-05
9.1116e-05
0.000141615
0.000206821
2.98845e-05
0.000104147
2.96552e-05
0.000151748
0.000202349
0.000141567
0.000206805
2.98755e-05
0.000104142
2.9646e-05
0.000151708
0.000202332
9.11148e-05
1.12994e-05
1.1298e-05
1.1296e-05
1.12946e-05
9.04265e-05
0.000151749
2.96553e-05
0.000109566
0.00020235
2.98845e-05
0.000141619
0.000206823
0.000151709
2.96461e-05
0.000109553
0.000202334
2.98755e-05
0.000141572
0.000206808
2.15312e-05
2.45042e-05
0.000126518
0.000141315
2.45661e-05
0.000133762
2.14664e-05
1.05512e-05
3.12272e-05
0.000101793
9.7965e-05
1.06084e-05
1.06085e-05
9.80005e-05
3.13527e-05
0.000101796
1.05519e-05
2.14652e-05
0.000132787
2.4566e-05
0.000133759
2.45029e-05
0.00012648
2.15312e-05
1.29503e-05
1.30063e-05
2.1532e-05
0.000126512
2.45036e-05
0.000141311
0.000133765
2.45655e-05
2.14671e-05
1.05518e-05
3.12234e-05
0.000101804
9.79777e-05
1.06091e-05
1.06091e-05
9.80142e-05
3.13492e-05
0.000101807
1.05524e-05
2.14659e-05
0.000132776
0.000133761
2.45654e-05
0.000126477
2.45023e-05
2.15319e-05
1.29491e-05
1.30051e-05
9.04173e-05
1.12971e-05
1.12956e-05
1.12994e-05
1.12979e-05
9.11629e-05
0.000141622
0.00020682
2.98842e-05
0.00010415
0.000151743
0.000202352
2.96551e-05
0.000141574
0.000206805
2.98752e-05
0.000104149
0.000151704
0.000202338
2.9646e-05
9.11155e-05
1.12993e-05
1.12979e-05
9.03984e-05
1.1296e-05
1.12946e-05
0.000151754
2.96568e-05
0.000109568
0.000202424
0.000206831
2.98844e-05
0.000141691
0.000151715
2.96477e-05
0.000109555
0.000202409
0.000206816
2.98754e-05
0.000141643
1.29501e-05
1.30061e-05
1.29496e-05
1.30055e-05
9.1112e-05
1.12994e-05
1.1298e-05
9.04217e-05
1.12959e-05
1.12945e-05
0.000151743
0.000202347
2.96551e-05
0.000109562
0.000141611
2.98844e-05
0.000206822
0.000151704
0.000202332
2.9646e-05
0.000109548
0.000141564
2.98754e-05
0.000206805
9.04069e-05
1.12959e-05
1.12945e-05
9.11103e-05
1.12994e-05
1.12979e-05
0.000141613
2.98845e-05
0.000206822
0.000104147
0.000151747
2.96552e-05
0.000202348
0.000141566
2.98755e-05
0.000206806
0.000104145
0.000151708
2.96461e-05
0.000202332
1.3006e-05
1.29502e-05
1.30054e-05
1.29496e-05
1.2951e-05
1.30069e-05
1.29498e-05
1.30058e-05
9.04269e-05
1.12966e-05
1.12951e-05
1.12994e-05
1.12978e-05
9.11524e-05
0.000141614
0.000206821
0.000104149
2.98847e-05
2.96555e-05
0.000202349
0.000151746
0.000141567
0.000206805
0.000104145
2.98745e-05
2.96452e-05
0.000202332
0.000151707
0.00015175
2.9657e-05
0.000109571
0.000202413
2.98847e-05
0.000141664
0.000206827
0.000151711
2.96465e-05
0.000109557
0.000202396
2.98744e-05
0.000141617
0.000206812
9.11156e-05
1.12994e-05
1.12978e-05
1.12959e-05
1.12945e-05
9.04268e-05
2.15321e-05
2.45042e-05
0.000126526
0.000141315
2.4566e-05
0.000133768
2.14672e-05
1.05516e-05
3.12262e-05
0.000101806
9.79827e-05
1.06089e-05
1.06089e-05
9.80233e-05
3.13518e-05
0.000101809
1.05523e-05
2.14661e-05
0.000132788
2.45659e-05
0.000133764
2.45029e-05
0.000126484
2.1532e-05
9.04299e-05
1.12957e-05
1.12969e-05
1.12983e-05
1.12995e-05
9.11582e-05
0.000141573
0.000206806
0.000104153
2.98759e-05
2.96466e-05
0.000202338
0.000151708
0.00014162
0.000206825
0.000104161
2.98841e-05
0.000202355
2.9655e-05
0.000151747
0.000151715
2.96482e-05
0.00010956
0.000202404
2.9876e-05
0.000206817
0.000141628
0.000151754
2.96564e-05
0.000109574
0.000202421
0.000206833
2.98841e-05
0.000141674
9.11184e-05
1.12982e-05
1.12995e-05
1.12949e-05
1.12962e-05
9.04223e-05
1.2951e-05
1.30069e-05
2.15306e-05
2.45036e-05
0.000126506
0.000141311
2.45655e-05
0.000133758
2.14657e-05
1.0551e-05
3.12222e-05
0.00010179
9.79623e-05
1.06083e-05
1.06083e-05
9.79987e-05
3.1348e-05
0.000101792
1.05516e-05
2.14646e-05
0.000132775
2.45655e-05
0.000133755
2.45023e-05
0.000126468
2.15306e-05
2.15324e-05
0.000126542
2.45038e-05
0.000141317
0.00013377
2.45655e-05
2.14677e-05
1.05521e-05
3.12258e-05
0.000101806
9.79885e-05
1.06093e-05
1.06093e-05
9.80267e-05
3.13512e-05
0.00010181
1.05528e-05
2.14664e-05
0.000132794
0.000133763
2.45654e-05
0.000126491
2.45024e-05
2.15323e-05
2.15311e-05
2.45038e-05
0.000126533
0.000141317
2.45656e-05
0.000133763
2.14664e-05
1.05514e-05
3.12242e-05
0.00010179
9.79634e-05
1.06085e-05
1.06086e-05
9.80107e-05
3.13496e-05
0.000101794
1.05521e-05
2.14651e-05
0.000132793
2.45654e-05
0.000133755
2.45025e-05
0.000126481
2.1531e-05
9.04303e-05
1.1295e-05
1.12966e-05
1.12976e-05
1.12993e-05
9.11547e-05
0.00014157
0.000206802
0.00010414
2.98746e-05
2.96452e-05
0.000202331
0.000151706
0.000141618
0.000206823
0.00010415
2.98846e-05
0.000202349
2.96555e-05
0.000151747
0.000151712
2.96467e-05
0.000109551
0.000202396
2.98746e-05
0.000206808
0.00014162
0.000151752
2.9657e-05
0.000109569
0.000202413
0.000206827
2.98847e-05
0.00014167
9.11158e-05
1.12976e-05
1.12993e-05
1.12943e-05
1.12959e-05
9.04214e-05
1.29503e-05
1.30062e-05
2.15311e-05
0.00012653
2.45035e-05
0.000141315
0.000133763
2.45653e-05
2.14663e-05
1.05515e-05
3.12239e-05
0.00010179
9.79695e-05
1.06087e-05
1.06088e-05
9.80045e-05
3.13494e-05
0.000101795
1.05522e-05
2.14651e-05
0.000132793
0.000133757
2.45651e-05
0.000126487
2.45022e-05
2.15309e-05
2.15321e-05
0.000126551
2.45037e-05
0.000141316
0.000133768
2.45654e-05
2.14675e-05
1.05518e-05
3.12233e-05
0.000101803
9.79853e-05
1.06089e-05
1.0609e-05
9.80343e-05
3.13489e-05
0.000101809
1.05525e-05
2.14662e-05
0.000132793
0.000133759
2.45652e-05
0.00012649
2.45023e-05
2.1532e-05
1.29501e-05
1.3006e-05
1.29496e-05
1.30054e-05
0.000207812
0.000234323
0.000234322
0.000237825
0.00021494
0.000232401
0.000232401
0.000233801
0.000233801
0.000233949
0.000233804
0.000233804
0.000233781
0.000233778
0.000207814
0.000234323
0.000234322
0.000237823
0.00021494
0.0002324
0.0002324
0.00021494
0.000238123
0.0002324
0.000232398
0.000207809
0.000234326
0.000234322
0.00020781
0.00023432
0.000234319
0.00023782
0.000232398
0.000232397
0.000214939
0.000207814
0.000234323
0.000234324
0.000237828
0.000232402
0.000232401
0.000214941
0.000207811
0.000234323
0.000234325
0.000237822
0.000232399
0.000232397
0.000214941
0.000214942
0.000238123
0.0002324
0.0002324
0.000207812
0.000234324
0.000234326
0.000233801
0.000233801
0.000233948
0.000233804
0.000233804
0.000233781
0.000233778
0.000233801
0.000233801
0.000233949
0.000233804
0.000233804
0.000233781
0.000233778
0.000233801
0.000233801
0.000233949
0.000233804
0.000233804
0.000233781
0.000233778
0.000233603
0.000212394
0.000233339
0.000219141
0.000216425
0.000233869
0.000232984
0.0002302
0.000222191
0.000141258
0.000202907
0.000217397
0.00019729
0.000231592
0.000231594
0.000197351
0.00015503
0.000217438
0.000222195
0.000202914
0.000230222
0.000232969
0.000215143
0.000216418
0.000233867
0.000212343
0.000233326
0.000233602
0.000233603
0.00023334
0.000212389
0.000219139
0.000233869
0.000216422
0.000232983
0.000230198
0.000222192
0.000141252
0.0002029
0.000217395
0.00019728
0.000231591
0.000231593
0.000197338
0.000155025
0.000217434
0.000222194
0.000202906
0.000230219
0.000232969
0.000215142
0.000233866
0.000216416
0.000233326
0.00021234
0.000233601
0.000214947
0.000238126
0.000232434
0.000232431
0.000234327
0.000234327
0.000207869
0.000207809
0.000237827
0.000234323
0.000234321
0.000214939
0.000232401
0.000232398
0.000214944
0.000238126
0.000232433
0.000232429
0.000207858
0.000234326
0.000234326
0.000233603
0.000212385
0.000233338
0.000219138
0.000216421
0.000233868
0.000232983
0.000230198
0.000222192
0.000141252
0.000202899
0.000197277
0.000217396
0.000231592
0.000231594
0.000197337
0.000155028
0.000217435
0.000202906
0.000222196
0.000230219
0.000232969
0.00021514
0.000216416
0.000233866
0.000212338
0.000233325
0.000233601
0.000233602
0.000212387
0.000233337
0.000219139
0.000216422
0.000233868
0.000232982
0.000230197
0.000222182
0.000141241
0.000202903
0.000197282
0.000217385
0.00023159
0.000231593
0.000197343
0.000155019
0.000217424
0.000202909
0.000230219
0.000222188
0.000232968
0.00021514
0.000216416
0.000233866
0.000212338
0.000233325
0.0002336
0.000214949
0.000238135
0.000232434
0.000232435
0.000234332
0.000234333
0.000207864
0.000233602
0.000212381
0.000233337
0.000219136
0.00021642
0.000233868
0.000232982
0.000230196
0.000222182
0.000141235
0.000202901
0.000197279
0.000217383
0.00023159
0.000231592
0.000197338
0.000155015
0.000217421
0.000202907
0.000222185
0.000230218
0.000232967
0.000215136
0.000216414
0.000233865
0.000212335
0.000233324
0.0002336
0.000233602
0.000233337
0.000212378
0.000219136
0.000233867
0.000216417
0.000232981
0.000230195
0.00022218
0.000141232
0.000202894
0.000197269
0.000217381
0.000231589
0.000231591
0.000197329
0.000155011
0.000217421
0.0002029
0.000230217
0.000222183
0.000232967
0.000215135
0.000233865
0.000216412
0.000233324
0.000212331
0.0002336
0.000233603
0.00023334
0.00021239
0.000219141
0.000233869
0.000216422
0.000232984
0.000230199
0.00022219
0.000141254
0.000202898
0.000217397
0.000197277
0.000231591
0.000231594
0.000197342
0.000155026
0.000217439
0.000222195
0.000202906
0.000230221
0.000232969
0.000215143
0.000233867
0.000216415
0.000233326
0.000212338
0.000233602
0.000214942
0.000238117
0.000232429
0.00023243
0.000234321
0.000234321
0.000207859
0.000233603
0.00023334
0.000212394
0.00021914
0.000233869
0.000216423
0.000232985
0.000230198
0.000222184
0.000141244
0.000202902
0.000217387
0.000197284
0.000231591
0.000231593
0.00019735
0.000155016
0.000217429
0.000222187
0.00020291
0.000230221
0.000232969
0.000215143
0.000233867
0.000216415
0.000233326
0.00021234
0.000233601
0.000233949
0.000234741
0.000234743
0.000238117
0.000233946
0.000234736
0.000234739
0.000238125
0.000233946
0.000234738
0.000234738
0.000238118
0.000233946
0.000234736
0.000234739
0.000238125
0.000233946
0.000234738
0.000234739
0.000238122
0.000233946
0.000234737
0.000234739
0.000238122
0.000233946
0.000234738
0.000234738
0.000238123
0.000233946
0.000234738
0.000234736
0.000238126
0.000233946
0.000234736
0.000234739
0.000238121
0.000233946
0.000234737
0.00023474
0.000238116
0.000233946
0.000234737
0.000234739
0.000238121
0.000233946
0.000234738
0.00023474
0.000238118
0.000233946
0.000234738
0.00023474
0.000238124
0.000233946
0.000234738
0.00023474
0.000238123
0.000233946
0.000234737
0.000234738
0.000238121
0.000233946
0.000234737
0.000234737
0.000238121
0.000233946
0.000234737
0.000234739
0.000238134
0.000237822
0.000234742
0.000234742
0.000234738
0.00023474
0.000238139
0.00023782
0.00023474
0.000234741
0.000234736
0.000234738
0.000234742
0.000234739
0.000234741
0.000238134
0.000237826
0.000234739
0.000234738
0.000234736
0.000237824
0.000238121
0.000237822
0.000234739
0.000234739
0.000234739
0.000234736
0.00023812
0.000237825
0.000234737
0.000234736
0.00023474
0.000234738
0.000234739
0.00023474
0.000234741
0.000238127
0.000237827
0.000234737
0.000234738
0.000234739
0.000237823
0.000238121
0.000237822
0.000234737
0.000234738
0.000234737
0.000234739
0.000238122
0.000237818
0.000234737
0.000234738
0.000234739
0.000234738
0.000234741
0.000234738
0.000234741
0.000238122
0.000237827
0.000234739
0.000234739
0.000234737
0.000237824
0.00023812
0.000237822
0.000234738
0.000234738
0.000234739
0.000234738
0.000238119
0.00023782
0.000234737
0.000234735
0.000234737
0.000234739
0.00023474
0.000234741
0.000234741
0.000238128
0.000237828
0.000234737
0.000234739
0.000234739
0.000237824
0.000238118
0.000237823
0.00023474
0.000234742
0.000234739
0.000234739
0.000238117
0.00023782
0.000234737
0.000234737
0.00023474
0.000234738
0.000234741
0.000234739
0.000234742
0.000238128
0.000237828
0.000234738
0.00023474
0.000234736
0.000237823
0.000238122
0.000237821
0.000234739
0.00023474
0.000234739
0.000234738
0.000238121
0.000237825
0.000234737
0.000234736
0.000234739
0.000234739
0.000234739
0.00023474
0.00023474
0.000238129
0.000237828
0.000234738
0.000234738
0.000234739
0.000237824
0.000238118
0.000237823
0.00023474
0.00023474
0.000234737
0.00023474
0.000238122
0.000237821
0.000234737
0.000234739
0.000234739
0.000234739
0.00023474
0.000234739
0.000234742
0.000238124
0.000237828
0.000234738
0.000234738
0.000234736
0.000237826
0.000238125
0.000237823
0.000234738
0.000234738
0.000234738
0.000234738
0.000238122
0.00023782
0.000234738
0.000234739
0.000234739
0.000234738
0.00023474
0.000234738
0.00023474
0.000238128
0.000237828
0.000234737
0.000234738
0.000234737
0.000237824
0.000238117
0.000237818
0.00023474
0.000234739
0.000234738
0.000234738
0.000238117
0.000237822
0.000234737
0.00023474
0.000234736
0.000234738
0.000234739
0.000234737
0.000234741
0.000238122
0.000237822
0.000234738
0.000234738
0.000234736
0.000237823
0.000238115
0.000237823
0.000234738
0.000234738
0.000234739
0.000234736
0.000238119
0.000237823
0.000234737
0.000234738
0.000234737
0.000234739
0.000234741
0.000234739
0.00023474
0.000238116
0.000237824
0.000234738
0.000234739
0.000234738
0.000237823
0.000238121
0.000237825
0.00023474
0.000234741
0.000234738
0.00023474
0.000238116
0.000237822
0.000234735
0.000234739
0.000234738
0.000234738
0.00023474
0.000234739
0.000234742
0.000238122
0.000237825
0.000234738
0.000234739
0.000234738
0.000237823
0.000238123
0.000237826
0.000234738
0.000234737
0.00023474
0.000234738
0.000238123
0.000237827
0.000234738
0.000234738
0.000234738
0.000234737
0.000234744
0.000234739
0.000234741
0.000238119
0.00023783
0.000234738
0.000234739
0.000234739
0.000237826
0.000238124
0.000237823
0.000234741
0.00023474
0.000234739
0.00023474
0.00023812
0.000237821
0.000234736
0.000234736
0.000234739
0.000234738
0.000234741
0.000234738
0.000234742
0.00023813
0.000237825
0.000234739
0.000234739
0.000234739
0.000237824
0.000238122
0.000237823
0.000234739
0.000234739
0.000234737
0.000234738
0.000238121
0.000237823
0.000234737
0.000234738
0.000234737
0.000234736
0.00023474
0.000234738
0.00023474
0.000238119
0.000237827
0.000234739
0.000234739
0.000234737
0.000237823
0.000238117
0.00023782
0.00023474
0.000234739
0.000234737
0.000234739
0.00023812
0.000237818
0.000234736
0.000234738
0.000234739
0.000234737
0.00023474
0.000234738
0.000234741
0.000238122
0.000237824
0.000234737
0.000234739
0.000234738
0.00023782
0.000238119
0.000237824
0.000234739
0.000234739
0.000234738
0.000234738
0.000238118
0.00023782
0.000234736
0.000234738
0.000234738
0.000234738
0.000234739
0.00023474
0.000234739
0.000238122
0.000237827
0.000234738
0.000234738
0.000234738
0.000237823
0.000238122
0.00023782
0.00023474
0.00023474
0.000234739
0.00023474
0.000238117
0.000237825
0.000234735
0.000234739
0.000234737
0.000234739
0.000234739
0.000234737
0.000234738
0.000238123
0.000237825
0.000234737
0.000234738
0.00023474
0.000132768
3.13541e-05
3.12271e-05
0.00014136
1.30068e-05
1.29502e-05
0.000132765
3.13506e-05
3.12234e-05
0.000141356
0.000233949
0.000233949
0.000233947
0.000233946
0.000233946
0.000233946
0.000233946
0.000215133
0.000155076
0.000234018
0.000234738
0.000141245
0.000234015
0.00021918
1.30057e-05
1.29491e-05
0.000215129
0.000234018
0.000155073
0.000234739
0.000234015
0.000141233
0.000219178
0.000109569
0.000109555
0.000237823
0.000104145
0.000104138
0.000132783
3.13525e-05
0.000141303
3.12271e-05
1.30062e-05
1.29502e-05
0.000132777
3.1349e-05
0.000141301
3.12234e-05
0.000233946
0.000233946
0.000233946
0.000233946
0.000233946
0.000233946
0.000233946
0.000215134
0.000155022
0.000234015
0.000234741
0.00021913
0.000141246
0.000234015
1.3005e-05
1.29491e-05
0.000215133
0.000234015
0.000155018
0.000234739
0.000219128
0.000234015
0.000141243
0.000109566
0.000109553
0.000237821
0.000104143
0.00010414
0.000132774
3.13525e-05
0.000141307
3.12271e-05
1.30062e-05
1.29502e-05
0.000132761
3.1349e-05
0.000141302
3.12233e-05
0.000233946
0.000233946
0.000233946
0.000233946
0.000233946
0.000233946
0.000233946
0.000215134
0.000155024
0.000234015
0.000234737
0.000219132
0.000141247
0.000234015
1.3005e-05
1.29491e-05
0.000215132
0.000234015
0.00015502
0.000234738
0.000219131
0.000234015
0.000141241
0.000109568
0.000109556
0.000237823
0.000104152
0.000104148
0.000132758
3.13526e-05
0.000141306
3.1227e-05
1.30062e-05
1.29502e-05
0.000132766
3.13491e-05
0.000141304
3.12233e-05
0.000233946
0.000233946
0.000233946
0.000233946
0.000233946
0.000233946
0.000233946
0.000215126
0.000155022
0.000234015
0.000234738
0.000219129
0.000141239
0.000234015
1.30051e-05
1.29491e-05
0.000215129
0.000234015
0.000155019
0.000234739
0.00021913
0.000234015
0.000141238
0.000109567
0.000109553
0.000237824
0.000104139
0.000104132
0.000132792
3.13525e-05
0.000141307
3.12272e-05
1.30061e-05
1.29502e-05
0.000132763
3.1349e-05
0.000141302
3.12233e-05
0.000233946
0.000233946
0.000233946
0.000233946
0.000233946
0.000233946
0.000233946
0.000215142
0.000155026
0.000234015
0.000234738
0.000219133
0.000141259
0.000234015
1.30051e-05
1.29491e-05
0.000215132
0.000234015
0.000155018
0.000234739
0.00021913
0.000234015
0.00014124
0.000109567
0.000109555
0.000237819
0.000104153
0.000104147
0.00013277
3.13526e-05
0.000141309
3.12271e-05
1.30062e-05
1.29502e-05
0.000132783
3.13489e-05
0.000141306
3.12234e-05
0.000233946
0.000233946
0.000233946
0.000233946
0.000233946
0.000233946
0.000233946
0.000215133
0.000155022
0.000234015
0.000234737
0.000219131
0.000141242
0.000234015
1.30049e-05
1.29491e-05
0.000215137
0.000234015
0.000155021
0.000234739
0.000219131
0.000234015
0.00014125
0.000109567
0.000109553
0.000237824
0.000104142
0.000104141
0.000132781
3.13524e-05
0.000141305
3.12271e-05
1.30061e-05
1.29502e-05
0.000132763
3.13492e-05
0.000141304
3.12234e-05
0.000233946
0.000233946
0.000233946
0.000233946
0.000233946
0.000233946
0.000233946
0.000215143
0.000155025
0.000234015
0.000234738
0.000219132
0.000141263
0.000234015
1.3005e-05
1.29491e-05
0.000215137
0.000234015
0.00015502
0.000234739
0.000219132
0.000234015
0.000141247
0.000109563
0.000109551
0.000237827
0.000104156
0.000104151
0.000132772
3.13526e-05
0.000141312
3.12271e-05
1.30063e-05
1.29503e-05
0.000132772
3.13491e-05
0.000141306
3.12235e-05
0.000233946
0.000233946
0.000233946
0.000233946
0.000233946
0.000233946
0.000233946
0.000215133
0.000155024
0.000234015
0.000234738
0.000219134
0.000141244
0.000234015
1.3005e-05
1.29491e-05
0.000215131
0.000234015
0.000155019
0.00023474
0.000219132
0.000234015
0.000141242
0.000109567
0.000109554
0.000237823
0.000104145
0.000104143
0.000132765
3.13526e-05
0.000141308
3.12271e-05
1.30064e-05
1.29504e-05
0.000132755
3.13493e-05
0.000141307
3.12235e-05
0.000233946
0.000233946
0.000233946
0.000233946
0.000233946
0.000233946
0.000233946
0.000215127
0.000155022
0.000234015
0.000234737
0.00021913
0.000141239
0.000234015
1.30051e-05
1.29491e-05
0.000215126
0.000234015
0.000155019
0.000234739
0.00021913
0.000234015
0.000141236
0.000109571
0.000109559
0.000237824
0.000104143
0.000104137
0.000132749
3.13528e-05
0.000141305
3.12271e-05
1.30064e-05
1.29504e-05
0.000132751
3.13493e-05
0.000141301
3.12235e-05
0.000233946
0.000233946
0.000233946
0.000233946
0.000233946
0.000233946
0.000233946
0.000215127
0.00015502
0.000234015
0.000234735
0.000219128
0.000141236
0.000234015
1.30051e-05
1.29491e-05
0.000215126
0.000234015
0.000155017
0.00023474
0.000219128
0.000234015
0.000141232
0.000109571
0.000109557
0.00023782
0.000104133
0.000104127
0.000132772
3.13526e-05
0.000141303
3.12271e-05
1.30063e-05
1.29503e-05
0.000132764
3.13493e-05
0.000141301
3.12235e-05
0.000233946
0.000233946
0.000233946
0.000233946
0.000233946
0.000233946
0.000233946
0.000215133
0.000155023
0.000234015
0.000234741
0.000219129
0.000141247
0.000234015
1.30051e-05
1.29491e-05
0.000215132
0.000234015
0.000155018
0.000234738
0.000219128
0.000234015
0.000141239
0.000109569
0.000109554
0.000237824
0.000104136
0.000104131
0.000132794
3.13524e-05
0.000141306
3.12271e-05
1.30062e-05
1.29503e-05
0.000132788
3.13491e-05
0.000141303
3.12235e-05
0.000233946
0.000233946
0.000233946
0.000233946
0.000233946
0.000233946
0.000233946
0.000215141
0.000155026
0.000234015
0.000234736
0.000219134
0.000141259
0.000234015
1.30049e-05
1.29491e-05
0.000215135
0.000234015
0.000155021
0.000234743
0.000219132
0.000234015
0.000141248
0.000109569
0.000109555
0.000237826
0.000104147
0.000104143
0.000132804
3.13524e-05
0.000141312
3.12272e-05
1.30061e-05
1.29503e-05
0.000132795
3.1349e-05
0.000141307
3.12236e-05
0.000233946
0.000233946
0.000233946
0.000233946
0.000233946
0.000233946
0.000233946
0.000215141
0.000155027
0.000234015
0.000234739
0.000219135
0.000141261
0.000234015
1.30049e-05
1.29491e-05
0.00021514
0.000234015
0.000155022
0.00023474
0.000219134
0.000234015
0.000141258
0.000109566
0.000109552
0.000237825
0.000104155
0.000104152
0.000132775
3.13525e-05
0.000141311
3.12271e-05
1.30063e-05
1.29503e-05
0.000132775
3.13492e-05
0.000141309
3.12236e-05
0.000233946
0.000233946
0.000233946
0.000233946
0.000233946
0.000233946
0.000233946
0.000215135
0.000155024
0.000234015
0.000234738
0.000219133
0.000141249
0.000234015
1.3005e-05
1.29491e-05
0.000215134
0.000234015
0.000155022
0.000234739
0.000219133
0.000234015
0.000141244
0.00010957
0.000109555
0.000237822
0.00010416
0.000104155
0.000132764
3.13526e-05
0.000141305
3.12272e-05
1.30064e-05
1.29503e-05
0.000132754
3.13494e-05
0.000141303
3.12236e-05
0.000233946
0.000233946
0.000233946
0.000233946
0.000233946
0.000233946
0.000233946
0.000215133
0.000155021
0.000234015
0.000234736
0.00021913
0.000141237
0.000234015
1.30051e-05
1.29491e-05
0.000215133
0.000234015
0.000155017
0.000234739
0.000219129
0.000234015
0.000141233
0.000109568
0.000109554
0.000237821
0.000104137
0.000104135
0.00013275
3.13526e-05
0.000141302
3.12269e-05
1.30063e-05
1.29503e-05
0.000132748
3.13492e-05
0.000141298
3.12234e-05
0.000233946
0.000233946
0.000233946
0.000233946
0.000233946
0.000233946
0.000233946
0.000215129
0.00015502
0.000234015
0.000234737
0.000219128
0.000141245
0.000234015
1.30051e-05
1.29491e-05
0.000215126
0.000234015
0.000155016
0.000234738
0.000219127
0.000234015
0.000141232
0.000109566
0.000109551
0.000237824
0.000104144
0.000104137
0.000132778
3.13525e-05
0.000141305
3.12271e-05
1.30063e-05
1.29503e-05
0.000132763
3.13492e-05
0.000141301
3.12235e-05
0.000233946
0.000233946
0.000233946
0.000233946
0.000233946
0.000233946
0.000233946
0.000215137
0.000155024
0.000234015
0.000234741
0.000219131
0.000141255
0.000234015
1.3005e-05
1.29491e-05
0.000215132
0.000234015
0.000155018
0.000234741
0.000219128
0.000234015
0.000141245
1.30076e-05
1.29509e-05
1.30064e-05
1.29498e-05
0.000109611
0.000109597
0.000237822
0.000104145
0.000104141
1.29509e-05
1.30069e-05
1.29498e-05
1.30058e-05
0.000238121
0.000104152
0.000104146
0.000109568
0.000109553
0.000132769
3.13533e-05
3.12261e-05
0.00014136
0.000215134
0.000155076
0.000234018
0.00023474
0.000141243
0.000234015
0.00021918
0.000215134
0.000155066
0.000234018
0.000234739
0.000141232
0.000234015
0.00021918
0.000141306
3.1227e-05
3.13526e-05
0.000132755
0.000141307
3.1226e-05
3.13518e-05
0.000132754
0.000219131
0.000234739
0.000141245
0.000234015
0.000155021
0.000234015
0.00021513
0.000219131
0.000234739
0.000141232
0.000234015
0.000155013
0.000234015
0.00021513
0.000109599
0.000109615
0.000237823
0.000104148
0.000104155
1.30076e-05
1.2951e-05
1.29502e-05
1.30062e-05
0.000238116
0.000104149
0.000104155
0.000109557
0.000109572
1.2951e-05
1.3007e-05
0.000215132
0.000155065
0.000234018
0.000234736
0.000141231
0.000234015
0.000219178
0.000132764
3.13493e-05
3.12221e-05
0.000141356
0.000215131
0.000234018
0.000155059
0.000234741
0.000234015
0.000141219
0.000219178
0.000141303
3.12232e-05
3.13491e-05
0.000132754
0.000219129
0.000234736
0.000141232
0.000234015
0.00015501
0.000234015
0.000215129
0.000141303
3.12221e-05
3.13478e-05
0.000132756
0.000219128
0.000234741
0.000234015
0.000141227
0.000234015
0.000155003
0.000215129
0.000132766
3.13526e-05
3.12257e-05
0.000141359
0.000215134
0.000234018
0.000155021
0.000234739
0.000234015
0.000141239
0.000219181
0.000132769
3.13497e-05
3.12242e-05
0.00014136
0.000219131
0.000234737
0.000141246
0.000234015
0.000155022
0.000234015
0.000215131
0.000141306
3.12256e-05
3.13512e-05
0.000132759
0.000219131
0.000234738
0.000234015
0.000141236
0.000234015
0.000155018
0.000215131
0.000141307
3.12241e-05
3.13497e-05
0.000132758
0.000109593
0.000109613
0.000237824
0.000104135
0.00010414
1.30069e-05
1.29503e-05
1.29491e-05
1.3005e-05
0.000238125
0.000104141
0.000104145
0.000109546
0.000109566
1.29502e-05
1.30063e-05
0.000215129
0.000234018
0.00015501
0.000234739
0.000234015
0.00014122
0.000219179
0.000132754
3.13509e-05
3.12238e-05
0.000141358
0.000132756
3.1349e-05
3.12232e-05
0.000141359
0.000219128
0.000234737
0.000234015
0.000141238
0.000234015
0.000155017
0.000215127
0.000219129
0.000234739
0.000234015
0.000141223
0.000234015
0.000155007
0.000215127
0.000141302
3.12237e-05
3.13493e-05
0.000132746
0.000141303
3.12231e-05
3.1349e-05
0.000132745
1.30062e-05
1.29501e-05
1.30056e-05
1.29496e-05
0.000238117
0.000104143
0.000104139
0.000109568
0.000109554
1.29501e-05
1.30062e-05
1.29496e-05
1.30056e-05
1.30069e-05
1.29509e-05
1.30058e-05
1.29498e-05
0.000109569
0.000109553
0.000237823
0.000104151
0.000104146
1.29509e-05
1.30069e-05
1.29498e-05
1.30058e-05
0.000238122
0.000104153
0.000104147
0.000109567
0.000109553
0.000132781
3.13518e-05
0.000141304
3.12261e-05
0.000215139
0.000155022
0.000234015
0.00023474
0.000219131
0.000141251
0.000234015
0.000215139
0.000155012
0.000234015
0.000234736
0.00021913
0.000141237
0.000234015
0.00014131
3.12271e-05
3.13526e-05
0.000132774
0.00014131
3.12261e-05
3.13518e-05
0.000132774
0.000219133
0.00023474
0.000141247
0.000234015
0.000155022
0.000234015
0.000215136
0.000219133
0.000234735
0.000141237
0.000234015
0.000155013
0.000234015
0.000215136
0.000109556
0.000109572
0.000237825
0.000104149
0.000104153
1.3007e-05
1.2951e-05
1.29502e-05
1.30061e-05
0.000238126
0.00010415
0.00010416
0.000109555
0.000109568
1.2951e-05
1.30069e-05
0.000215136
0.00015501
0.000234015
0.000234737
0.000219129
0.000141236
0.000234015
0.000132778
3.13478e-05
0.000141302
3.12222e-05
0.000215136
0.000234015
0.000155006
0.000234742
0.000219129
0.000234015
0.00014123
0.000141307
3.12233e-05
3.13491e-05
0.000132761
0.000219131
0.000234736
0.000141232
0.000234015
0.000155011
0.000234015
0.00021513
0.000141308
3.12221e-05
3.13479e-05
0.000132762
0.000219131
0.000234742
0.000234015
0.000141224
0.000234015
0.000155005
0.00021513
0.000132767
3.13512e-05
0.000141304
3.12256e-05
0.000215134
0.000234015
0.000155018
0.000234741
0.000219131
0.000234015
0.00014124
0.000132768
3.13496e-05
0.000141304
3.12241e-05
0.000219132
0.000234741
0.000141255
0.000234015
0.000155022
0.000234015
0.00021514
0.000141307
3.12257e-05
3.13511e-05
0.000132785
0.000219133
0.000234738
0.000234015
0.000141251
0.000234015
0.000155019
0.00021514
0.000141307
3.12242e-05
3.13495e-05
0.000132785
0.000109548
0.000109567
0.000237822
0.000104142
0.00010415
1.30062e-05
1.29502e-05
1.29491e-05
1.3005e-05
0.000238117
0.000104138
0.000104151
0.000109548
0.000109567
1.29503e-05
1.30062e-05
0.000215133
0.000234015
0.000155007
0.000234739
0.000219128
0.000234015
0.000141227
0.000132765
3.13492e-05
0.0001413
3.12237e-05
0.000132765
3.13489e-05
0.0001413
3.12231e-05
0.000219131
0.00023474
0.000234015
0.000141248
0.000234015
0.000155018
0.000215137
0.000219131
0.000234741
0.000234015
0.000141238
0.000234015
0.000155008
0.000215137
0.000141305
3.12238e-05
3.13492e-05
0.000132779
0.000141305
3.12232e-05
3.13488e-05
0.000132778
1.30061e-05
1.29501e-05
1.30056e-05
1.29496e-05
0.000238117
0.000104155
0.000104152
0.000109563