/*--------------------------------*- C++ -*----------------------------------*\
| =========                 |                                                 |
| \\      /  F ield         | OpenFOAM: The Open Source CFD Toolbox           |
|  \\    /   O peration     | Version:  2206                                  |
|   \\  /    A nd           | Website:  www.openfoam.com                      |
|    \\/     M anipulation  |                                                 |
\*---------------------------------------------------------------------------*/
FoamFile
{
    version     2.0;
    format      ascii;
    arch        "LSB;label=32;scalar=64";
    class       volScalarField;
    location    "6";
    object      k;
}
// * * * * * * * * * * * * * * * * * * * * * * * * * * * * * * * * * * * * * //

dimensions      [0 2 -2 0 0 0 0];

internalField   nonuniform List<scalar> 
28673
(
3.45186e-05
3.45056e-05
3.45253e-05
3.45118e-05
3.45174e-05
3.45022e-05
3.45153e-05
3.45068e-05
3.45071e-05
3.4493e-05
3.4515e-05
3.45068e-05
3.45068e-05
3.4493e-05
3.4515e-05
3.45068e-05
3.45068e-05
3.4493e-05
3.4515e-05
3.45068e-05
3.45068e-05
3.4493e-05
3.4515e-05
3.45068e-05
3.45068e-05
3.4493e-05
3.4515e-05
3.45068e-05
3.45068e-05
3.4493e-05
3.4515e-05
3.45068e-05
3.45068e-05
3.4493e-05
3.4515e-05
3.45068e-05
3.45068e-05
3.4493e-05
3.4515e-05
3.45068e-05
3.45068e-05
3.4493e-05
3.4515e-05
3.45068e-05
3.45068e-05
3.4493e-05
3.45155e-05
3.45101e-05
3.451e-05
3.44961e-05
3.45187e-05
3.45055e-05
3.45187e-05
3.4506e-05
3.45186e-05
3.45186e-05
3.45177e-05
3.45157e-05
3.45059e-05
3.45007e-05
3.45183e-05
3.45182e-05
3.45186e-05
3.4516e-05
3.45175e-05
3.45052e-05
3.45186e-05
3.45184e-05
3.45175e-05
3.45039e-05
3.45053e-05
3.44933e-05
3.45155e-05
3.45117e-05
3.45073e-05
3.45069e-05
3.44975e-05
3.44932e-05
3.45176e-05
3.45175e-05
3.45082e-05
3.45082e-05
3.45148e-05
3.45069e-05
3.45072e-05
3.45048e-05
3.44933e-05
3.45149e-05
3.45081e-05
3.45072e-05
3.44933e-05
3.44935e-05
3.44932e-05
3.4507e-05
3.45069e-05
3.45068e-05
3.45068e-05
3.44935e-05
3.44932e-05
3.45073e-05
3.45073e-05
3.45068e-05
3.45068e-05
3.4507e-05
3.45069e-05
3.45068e-05
3.44934e-05
3.44932e-05
3.4507e-05
3.45069e-05
3.45068e-05
3.44933e-05
3.44934e-05
3.44932e-05
3.4507e-05
3.4507e-05
3.45068e-05
3.45068e-05
3.44935e-05
3.44932e-05
3.4507e-05
3.45069e-05
3.45068e-05
3.45068e-05
3.4507e-05
3.45069e-05
3.45068e-05
3.44934e-05
3.44932e-05
3.4507e-05
3.45069e-05
3.45068e-05
3.44933e-05
3.44935e-05
3.44932e-05
3.4507e-05
3.4507e-05
3.45068e-05
3.45068e-05
3.44935e-05
3.44932e-05
3.4507e-05
3.4507e-05
3.45068e-05
3.45068e-05
3.4507e-05
3.45069e-05
3.45068e-05
3.44934e-05
3.44932e-05
3.4507e-05
3.45069e-05
3.45068e-05
3.44933e-05
3.44935e-05
3.44932e-05
3.4507e-05
3.4507e-05
3.45068e-05
3.45068e-05
3.44935e-05
3.44932e-05
3.4507e-05
3.4507e-05
3.45068e-05
3.45068e-05
3.4507e-05
3.45069e-05
3.45068e-05
3.44934e-05
3.44932e-05
3.4507e-05
3.45069e-05
3.45068e-05
3.44933e-05
3.44935e-05
3.44932e-05
3.4507e-05
3.4507e-05
3.45068e-05
3.45068e-05
3.44935e-05
3.44932e-05
3.4507e-05
3.4507e-05
3.45068e-05
3.45068e-05
3.4507e-05
3.45069e-05
3.45068e-05
3.44934e-05
3.44932e-05
3.4507e-05
3.45069e-05
3.45068e-05
3.44933e-05
3.44935e-05
3.44932e-05
3.4507e-05
3.4507e-05
3.45068e-05
3.45068e-05
3.44935e-05
3.44932e-05
3.4507e-05
3.4507e-05
3.45068e-05
3.45068e-05
3.4507e-05
3.45069e-05
3.45068e-05
3.44934e-05
3.44932e-05
3.4507e-05
3.45069e-05
3.45068e-05
3.44933e-05
3.44935e-05
3.44932e-05
3.4507e-05
3.4507e-05
3.45068e-05
3.45068e-05
3.44935e-05
3.44932e-05
3.4507e-05
3.4507e-05
3.45068e-05
3.45068e-05
3.4507e-05
3.45069e-05
3.45068e-05
3.44934e-05
3.44932e-05
3.4507e-05
3.45069e-05
3.45068e-05
3.44933e-05
3.44935e-05
3.44932e-05
3.4507e-05
3.4507e-05
3.45068e-05
3.45068e-05
3.44935e-05
3.44932e-05
3.4507e-05
3.4507e-05
3.45068e-05
3.45068e-05
3.4507e-05
3.45069e-05
3.45068e-05
3.44934e-05
3.44932e-05
3.4507e-05
3.45069e-05
3.45068e-05
3.44933e-05
3.44935e-05
3.44932e-05
3.4507e-05
3.4507e-05
3.45069e-05
3.45069e-05
3.44935e-05
3.44933e-05
3.4507e-05
3.4507e-05
3.45069e-05
3.45069e-05
3.4507e-05
3.45069e-05
3.45069e-05
3.44934e-05
3.44932e-05
3.4507e-05
3.45069e-05
3.45069e-05
3.44933e-05
3.44935e-05
3.44945e-05
3.4507e-05
3.4507e-05
3.45083e-05
3.45083e-05
3.44935e-05
3.44945e-05
3.4507e-05
3.4507e-05
3.45083e-05
3.45083e-05
3.4507e-05
3.45083e-05
3.45083e-05
3.44935e-05
3.44945e-05
3.45071e-05
3.45083e-05
3.45083e-05
3.44943e-05
3.44964e-05
3.45101e-05
3.45101e-05
3.44964e-05
3.45101e-05
3.45101e-05
3.45154e-05
3.45154e-05
3.45154e-05
3.45101e-05
3.44964e-05
3.45101e-05
3.48611e-05
5.16464e-05
3.4861e-05
5.16462e-05
7.22743e-05
7.22684e-05
3.48612e-05
5.16482e-05
3.45269e-05
3.45267e-05
3.45264e-05
3.45254e-05
3.45263e-05
3.45255e-05
3.44057e-05
3.47548e-05
3.45252e-05
3.45185e-05
3.44059e-05
3.47547e-05
3.45251e-05
7.22788e-05
3.44055e-05
3.45251e-05
3.45188e-05
3.44058e-05
3.4525e-05
3.47547e-05
3.52679e-05
3.52679e-05
3.45053e-05
3.52705e-05
3.52705e-05
3.48535e-05
5.16551e-05
3.48611e-05
5.16914e-05
7.23482e-05
7.23772e-05
3.48598e-05
5.16501e-05
3.4862e-05
5.16651e-05
3.45223e-05
3.45255e-05
3.45229e-05
3.45164e-05
3.45153e-05
3.45165e-05
3.45154e-05
3.43948e-05
3.47521e-05
3.45209e-05
3.4509e-05
3.44037e-05
3.47434e-05
3.45173e-05
7.22761e-05
7.23149e-05
3.43949e-05
3.45215e-05
3.47549e-05
3.45145e-05
3.44037e-05
3.45178e-05
3.47502e-05
3.52722e-05
3.52722e-05
3.44952e-05
3.52641e-05
3.52642e-05
3.48502e-05
5.16975e-05
3.48504e-05
5.16969e-05
7.23777e-05
7.23775e-05
3.48505e-05
5.17e-05
3.48507e-05
5.16986e-05
3.45152e-05
3.45155e-05
3.45152e-05
3.45151e-05
3.4515e-05
3.4515e-05
3.4515e-05
3.43926e-05
3.47433e-05
3.45134e-05
3.4507e-05
3.43925e-05
3.47428e-05
3.45135e-05
7.23809e-05
7.23786e-05
3.43925e-05
3.45134e-05
3.47435e-05
3.4507e-05
3.43924e-05
3.45135e-05
3.4743e-05
3.52589e-05
3.5259e-05
3.44933e-05
3.52589e-05
3.52589e-05
3.48502e-05
5.16977e-05
3.48506e-05
5.16968e-05
7.23777e-05
7.23775e-05
3.48506e-05
5.16996e-05
3.48509e-05
5.16986e-05
3.45152e-05
3.45152e-05
3.45152e-05
3.4515e-05
3.4515e-05
3.4515e-05
3.4515e-05
3.43926e-05
3.47433e-05
3.45134e-05
3.4507e-05
3.43926e-05
3.47428e-05
3.45135e-05
7.23789e-05
7.2378e-05
3.43925e-05
3.45134e-05
3.47434e-05
3.4507e-05
3.43924e-05
3.45135e-05
3.4743e-05
3.52592e-05
3.52592e-05
3.44933e-05
3.5259e-05
3.5259e-05
3.48502e-05
5.16977e-05
3.48506e-05
5.16968e-05
7.23777e-05
7.23775e-05
3.48506e-05
5.16995e-05
3.48509e-05
5.16986e-05
3.45152e-05
3.45151e-05
3.45151e-05
3.4515e-05
3.4515e-05
3.4515e-05
3.4515e-05
3.43926e-05
3.47433e-05
3.45133e-05
3.4507e-05
3.43925e-05
3.47428e-05
3.45135e-05
7.23789e-05
7.2378e-05
3.43925e-05
3.45133e-05
3.47434e-05
3.4507e-05
3.43924e-05
3.45135e-05
3.4743e-05
3.52592e-05
3.52592e-05
3.44933e-05
3.5259e-05
3.5259e-05
3.48502e-05
5.16977e-05
3.48506e-05
5.16968e-05
7.23777e-05
7.23775e-05
3.48506e-05
5.16995e-05
3.48509e-05
5.16986e-05
3.45152e-05
3.45152e-05
3.45151e-05
3.4515e-05
3.4515e-05
3.4515e-05
3.4515e-05
3.43926e-05
3.47433e-05
3.45133e-05
3.4507e-05
3.43926e-05
3.47428e-05
3.45135e-05
7.23789e-05
7.2378e-05
3.43925e-05
3.45133e-05
3.47434e-05
3.4507e-05
3.43924e-05
3.45135e-05
3.4743e-05
3.52592e-05
3.52592e-05
3.44933e-05
3.5259e-05
3.5259e-05
3.48502e-05
5.16977e-05
3.48506e-05
5.16968e-05
7.23777e-05
7.23775e-05
3.48506e-05
5.16995e-05
3.48509e-05
5.16986e-05
3.45152e-05
3.45152e-05
3.45151e-05
3.4515e-05
3.4515e-05
3.4515e-05
3.4515e-05
3.43926e-05
3.47433e-05
3.45133e-05
3.4507e-05
3.43926e-05
3.47428e-05
3.45135e-05
7.23789e-05
7.2378e-05
3.43925e-05
3.45133e-05
3.47434e-05
3.4507e-05
3.43925e-05
3.45135e-05
3.4743e-05
3.52592e-05
3.52592e-05
3.44933e-05
3.5259e-05
3.5259e-05
3.48502e-05
5.16977e-05
3.48506e-05
5.16968e-05
7.23777e-05
7.23775e-05
3.48506e-05
5.16995e-05
3.48509e-05
5.16986e-05
3.45152e-05
3.45152e-05
3.45151e-05
3.4515e-05
3.4515e-05
3.4515e-05
3.4515e-05
3.43926e-05
3.47433e-05
3.45133e-05
3.4507e-05
3.43926e-05
3.47428e-05
3.45135e-05
7.23789e-05
7.2378e-05
3.43926e-05
3.45133e-05
3.47434e-05
3.4507e-05
3.43925e-05
3.45135e-05
3.4743e-05
3.52592e-05
3.52592e-05
3.44933e-05
3.5259e-05
3.5259e-05
3.48502e-05
5.16977e-05
3.48506e-05
5.16968e-05
7.23777e-05
7.23775e-05
3.48506e-05
5.16995e-05
3.48509e-05
5.16986e-05
3.45152e-05
3.45151e-05
3.45151e-05
3.4515e-05
3.4515e-05
3.4515e-05
3.4515e-05
3.43926e-05
3.47433e-05
3.45133e-05
3.4507e-05
3.43925e-05
3.47428e-05
3.45135e-05
7.23789e-05
7.2378e-05
3.43926e-05
3.45133e-05
3.47434e-05
3.4507e-05
3.43925e-05
3.45135e-05
3.4743e-05
3.52592e-05
3.52592e-05
3.44933e-05
3.5259e-05
3.5259e-05
3.48502e-05
5.16977e-05
3.48506e-05
5.16968e-05
7.23777e-05
7.23775e-05
3.48506e-05
5.16994e-05
3.48509e-05
5.16982e-05
3.45152e-05
3.45152e-05
3.45151e-05
3.4515e-05
3.4515e-05
3.4515e-05
3.4515e-05
3.43926e-05
3.47433e-05
3.45133e-05
3.4507e-05
3.43926e-05
3.47428e-05
3.45135e-05
7.23789e-05
7.2378e-05
3.43926e-05
3.45133e-05
3.47434e-05
3.4507e-05
3.43925e-05
3.45135e-05
3.4743e-05
3.52592e-05
3.52592e-05
3.44933e-05
3.5259e-05
3.5259e-05
3.485e-05
5.16977e-05
3.48506e-05
5.16986e-05
7.2378e-05
7.23794e-05
3.48505e-05
5.16993e-05
3.48509e-05
5.17003e-05
3.45152e-05
3.45152e-05
3.45151e-05
3.4515e-05
3.4515e-05
3.4515e-05
3.4515e-05
3.43926e-05
3.47433e-05
3.45133e-05
3.4507e-05
3.43926e-05
3.47424e-05
3.45135e-05
7.23789e-05
7.23803e-05
3.43926e-05
3.45133e-05
3.47433e-05
3.4507e-05
3.43925e-05
3.45135e-05
3.47426e-05
3.52591e-05
3.52592e-05
3.44933e-05
3.52589e-05
3.5259e-05
3.48498e-05
5.16812e-05
3.4852e-05
5.16915e-05
7.23522e-05
7.23594e-05
3.48502e-05
5.16831e-05
3.48522e-05
5.16934e-05
3.45152e-05
3.45152e-05
3.45152e-05
3.45152e-05
3.45152e-05
3.45152e-05
3.45152e-05
3.43929e-05
3.47471e-05
3.45134e-05
3.45071e-05
3.43924e-05
3.4742e-05
3.45135e-05
7.2355e-05
7.2362e-05
3.43928e-05
3.45134e-05
3.47473e-05
3.45071e-05
3.43924e-05
3.45135e-05
3.4742e-05
3.52623e-05
3.52623e-05
3.44933e-05
3.52691e-05
3.5269e-05
3.43298e-05
5.07181e-05
3.48682e-05
4.04999e-05
6.72288e-05
3.85287e-05
3.43297e-05
5.07225e-05
3.48681e-05
4.05011e-05
3.4516e-05
3.45158e-05
3.45158e-05
3.45155e-05
3.45159e-05
3.4516e-05
3.4516e-05
3.43897e-05
3.47627e-05
3.45141e-05
3.45114e-05
3.43979e-05
3.5128e-05
3.45151e-05
6.7231e-05
3.85285e-05
3.43897e-05
3.45141e-05
3.47625e-05
3.45114e-05
3.43979e-05
3.45151e-05
3.51278e-05
3.53675e-05
3.53673e-05
3.44996e-05
3.48937e-05
3.48935e-05
5.16457e-05
3.47543e-05
7.22757e-05
3.52683e-05
3.52668e-05
7.22705e-05
3.47541e-05
5.16455e-05
7.2279e-05
7.22743e-05
7.22781e-05
3.52675e-05
3.45073e-05
3.52703e-05
3.5266e-05
7.22745e-05
7.22717e-05
7.22711e-05
7.22759e-05
3.45071e-05
3.52722e-05
3.52701e-05
3.5272e-05
3.5268e-05
3.48609e-05
5.16458e-05
3.48609e-05
5.16468e-05
3.44056e-05
3.47542e-05
3.4525e-05
3.45186e-05
3.44059e-05
3.47539e-05
3.4525e-05
3.44056e-05
3.47554e-05
3.45251e-05
3.45184e-05
3.44058e-05
3.47549e-05
3.45251e-05
3.48619e-05
5.16486e-05
5.16462e-05
3.48611e-05
3.48618e-05
5.16651e-05
5.16471e-05
3.48611e-05
3.44056e-05
3.45184e-05
3.47538e-05
3.45239e-05
3.4755e-05
3.45247e-05
3.44049e-05
3.44056e-05
3.45178e-05
3.47531e-05
3.45238e-05
3.47557e-05
3.45247e-05
3.44049e-05
3.52702e-05
3.52694e-05
3.45052e-05
3.52721e-05
3.5271e-05
7.22704e-05
7.22678e-05
7.23133e-05
7.22684e-05
3.45049e-05
3.52719e-05
3.5271e-05
3.52729e-05
3.52721e-05
7.23101e-05
7.22677e-05
3.4406e-05
3.45186e-05
3.47541e-05
3.4525e-05
3.4861e-05
5.16468e-05
3.44058e-05
3.45186e-05
3.4525e-05
3.4754e-05
3.48621e-05
5.16491e-05
5.16482e-05
3.48619e-05
3.44065e-05
3.45186e-05
3.47544e-05
3.45246e-05
3.47551e-05
3.45249e-05
3.44062e-05
3.48618e-05
5.16474e-05
5.16469e-05
3.48616e-05
3.44063e-05
3.45185e-05
3.45246e-05
3.47544e-05
3.45249e-05
3.47551e-05
3.44061e-05
3.4861e-05
5.16455e-05
3.4861e-05
5.16466e-05
3.44056e-05
3.4525e-05
3.47543e-05
3.45185e-05
3.44058e-05
3.45249e-05
3.4754e-05
3.48609e-05
5.16474e-05
3.48609e-05
5.16481e-05
3.44057e-05
3.4518e-05
3.47528e-05
3.45239e-05
3.47556e-05
3.45248e-05
3.44049e-05
3.48619e-05
5.16646e-05
5.16471e-05
3.48611e-05
3.44056e-05
3.45183e-05
3.45239e-05
3.47537e-05
3.45246e-05
3.4755e-05
3.44049e-05
3.48617e-05
5.16499e-05
5.16481e-05
3.4861e-05
3.45054e-05
3.52676e-05
3.52686e-05
7.22771e-05
7.22746e-05
7.22788e-05
3.45056e-05
3.52715e-05
3.52725e-05
3.52699e-05
3.52704e-05
7.22703e-05
7.22748e-05
3.44055e-05
3.4525e-05
3.47544e-05
3.45186e-05
3.44058e-05
3.45249e-05
3.47541e-05
3.48606e-05
3.48605e-05
5.16466e-05
3.48605e-05
5.16481e-05
3.48605e-05
5.16488e-05
3.44056e-05
3.45187e-05
3.4524e-05
3.47547e-05
3.45247e-05
3.47557e-05
3.44048e-05
3.44056e-05
3.45183e-05
3.45239e-05
3.47538e-05
3.45246e-05
3.47551e-05
3.44048e-05
3.48616e-05
5.16468e-05
5.16466e-05
3.48609e-05
3.48615e-05
5.16506e-05
5.16488e-05
3.48608e-05
7.22808e-05
7.2276e-05
7.22819e-05
7.22772e-05
3.45051e-05
3.52722e-05
3.52722e-05
3.52719e-05
3.5272e-05
7.22765e-05
7.22735e-05
7.22777e-05
7.22746e-05
7.22842e-05
7.23656e-05
7.22712e-05
7.2316e-05
3.52724e-05
3.52722e-05
3.44987e-05
3.52642e-05
3.52729e-05
7.23757e-05
7.23726e-05
7.23785e-05
7.23471e-05
3.44962e-05
3.52588e-05
3.52596e-05
3.5262e-05
3.52713e-05
3.48535e-05
5.16823e-05
3.48613e-05
5.16978e-05
3.43948e-05
3.47539e-05
3.45213e-05
3.45115e-05
3.44039e-05
3.47458e-05
3.45175e-05
3.43948e-05
3.47523e-05
3.4521e-05
3.4509e-05
3.44039e-05
3.47436e-05
3.45172e-05
3.48526e-05
5.16963e-05
5.16959e-05
3.48501e-05
3.48526e-05
5.16973e-05
5.16972e-05
3.48501e-05
3.43936e-05
3.45087e-05
3.47428e-05
3.45137e-05
3.47451e-05
3.45149e-05
3.43926e-05
3.43936e-05
3.45074e-05
3.4743e-05
3.45137e-05
3.4744e-05
3.45147e-05
3.43927e-05
3.52704e-05
3.527e-05
3.44935e-05
3.52595e-05
3.5259e-05
7.23454e-05
7.23738e-05
7.23755e-05
7.23752e-05
3.44935e-05
3.52586e-05
3.52571e-05
3.52595e-05
3.52591e-05
7.23732e-05
7.2372e-05
3.44014e-05
3.47552e-05
3.45239e-05
3.4515e-05
3.4406e-05
3.47519e-05
3.45214e-05
3.48598e-05
5.16474e-05
3.48622e-05
5.16652e-05
3.44013e-05
3.45239e-05
3.47553e-05
3.45151e-05
3.44059e-05
3.45214e-05
3.47518e-05
3.48581e-05
5.16987e-05
5.16824e-05
3.48507e-05
3.43979e-05
3.45108e-05
3.47432e-05
3.45148e-05
3.47508e-05
3.45174e-05
3.43928e-05
3.48581e-05
5.16991e-05
5.16825e-05
3.48504e-05
3.43979e-05
3.45109e-05
3.45148e-05
3.47431e-05
3.45174e-05
3.47508e-05
3.43928e-05
3.48535e-05
5.16823e-05
3.48613e-05
5.16975e-05
3.43948e-05
3.45212e-05
3.47538e-05
3.45109e-05
3.44039e-05
3.45174e-05
3.47457e-05
3.48535e-05
5.16547e-05
3.48612e-05
5.16926e-05
3.43937e-05
3.45075e-05
3.47428e-05
3.45137e-05
3.47438e-05
3.45148e-05
3.43925e-05
3.48526e-05
5.16971e-05
5.16968e-05
3.48502e-05
3.43936e-05
3.45083e-05
3.45137e-05
3.47428e-05
3.45148e-05
3.47451e-05
3.43927e-05
3.48526e-05
5.16982e-05
5.16975e-05
3.48501e-05
3.52726e-05
3.52731e-05
3.45005e-05
3.52714e-05
3.52718e-05
7.22703e-05
7.23125e-05
7.23783e-05
7.23482e-05
3.44975e-05
3.52592e-05
3.52595e-05
3.52701e-05
3.52698e-05
7.23775e-05
7.23444e-05
3.43949e-05
3.45213e-05
3.47539e-05
3.4511e-05
3.44039e-05
3.45175e-05
3.47459e-05
3.48536e-05
5.16468e-05
3.48612e-05
5.16665e-05
3.48537e-05
5.16555e-05
3.48612e-05
5.16933e-05
3.43937e-05
3.45105e-05
3.45138e-05
3.47432e-05
3.45151e-05
3.47491e-05
3.43924e-05
3.43936e-05
3.45084e-05
3.45137e-05
3.47429e-05
3.45149e-05
3.47452e-05
3.43925e-05
3.48529e-05
5.16988e-05
5.16827e-05
3.48497e-05
3.48529e-05
5.1699e-05
5.16983e-05
3.48496e-05
7.22871e-05
7.23681e-05
7.22883e-05
7.23693e-05
3.44941e-05
3.52587e-05
3.52588e-05
3.52621e-05
3.52621e-05
7.23774e-05
7.23746e-05
7.23786e-05
7.23758e-05
7.23739e-05
7.23758e-05
7.23771e-05
7.2378e-05
3.52594e-05
3.52595e-05
3.44932e-05
3.52589e-05
3.52589e-05
7.23751e-05
7.23728e-05
7.23776e-05
7.23755e-05
3.44937e-05
3.52587e-05
3.52588e-05
3.52594e-05
3.52594e-05
3.48502e-05
5.16963e-05
3.48508e-05
5.16973e-05
3.43927e-05
3.47437e-05
3.45135e-05
3.4507e-05
3.43931e-05
3.47429e-05
3.45135e-05
3.43927e-05
3.4744e-05
3.45135e-05
3.45069e-05
3.43932e-05
3.47431e-05
3.45135e-05
3.4851e-05
5.16967e-05
5.16961e-05
3.48503e-05
3.48509e-05
5.16971e-05
5.16963e-05
3.48502e-05
3.4393e-05
3.45068e-05
3.47429e-05
3.45133e-05
3.47439e-05
3.45133e-05
3.43927e-05
3.4393e-05
3.45069e-05
3.47431e-05
3.45133e-05
3.4744e-05
3.45133e-05
3.43927e-05
3.52592e-05
3.52577e-05
3.44932e-05
3.52588e-05
3.52572e-05
7.23713e-05
7.23735e-05
7.23757e-05
7.23748e-05
3.44936e-05
3.52586e-05
3.52575e-05
3.52594e-05
3.5258e-05
7.23731e-05
7.23709e-05
3.43928e-05
3.47438e-05
3.45138e-05
3.4507e-05
3.43931e-05
3.47431e-05
3.45135e-05
3.48502e-05
5.16986e-05
3.48507e-05
5.16987e-05
3.43928e-05
3.45138e-05
3.47438e-05
3.4507e-05
3.4393e-05
3.45135e-05
3.47428e-05
3.48512e-05
5.16985e-05
5.16976e-05
3.48507e-05
3.43931e-05
3.45068e-05
3.47431e-05
3.45133e-05
3.4744e-05
3.45133e-05
3.43928e-05
3.48509e-05
5.16983e-05
5.16977e-05
3.48504e-05
3.4393e-05
3.45068e-05
3.45133e-05
3.47429e-05
3.45133e-05
3.47439e-05
3.43927e-05
3.48502e-05
5.16962e-05
3.48509e-05
5.16971e-05
3.43927e-05
3.45135e-05
3.47437e-05
3.4507e-05
3.43931e-05
3.45135e-05
3.47429e-05
3.48501e-05
5.16972e-05
3.48508e-05
5.16979e-05
3.4393e-05
3.4507e-05
3.47429e-05
3.45134e-05
3.47438e-05
3.45135e-05
3.43926e-05
3.48509e-05
5.16968e-05
5.1696e-05
3.48502e-05
3.4393e-05
3.45068e-05
3.45133e-05
3.47429e-05
3.45133e-05
3.47438e-05
3.43927e-05
3.48508e-05
5.16977e-05
5.16967e-05
3.48502e-05
3.52592e-05
3.52594e-05
3.44932e-05
3.5258e-05
3.52588e-05
7.23762e-05
7.23772e-05
7.23771e-05
7.2376e-05
3.44937e-05
3.5258e-05
3.52588e-05
3.52586e-05
3.52593e-05
7.23768e-05
7.23746e-05
3.43926e-05
3.45135e-05
3.47438e-05
3.4507e-05
3.43929e-05
3.45135e-05
3.4743e-05
3.48498e-05
5.16982e-05
3.48504e-05
5.16983e-05
3.48498e-05
5.1698e-05
3.48503e-05
5.16986e-05
3.43929e-05
3.4507e-05
3.45134e-05
3.4743e-05
3.45135e-05
3.47439e-05
3.43925e-05
3.43929e-05
3.45068e-05
3.45133e-05
3.4743e-05
3.45133e-05
3.47439e-05
3.43926e-05
3.48506e-05
5.16979e-05
5.16974e-05
3.48498e-05
3.48506e-05
5.16984e-05
5.16975e-05
3.48497e-05
7.23756e-05
7.23775e-05
7.23768e-05
7.23787e-05
3.44937e-05
3.5259e-05
3.5259e-05
3.52594e-05
3.52595e-05
7.23769e-05
7.23745e-05
7.2378e-05
7.23757e-05
7.23745e-05
7.23757e-05
7.2377e-05
7.23782e-05
3.52593e-05
3.52594e-05
3.44932e-05
3.52588e-05
3.52589e-05
7.23751e-05
7.23728e-05
7.23775e-05
7.23752e-05
3.44937e-05
3.52586e-05
3.5259e-05
3.52593e-05
3.52595e-05
3.48501e-05
5.16962e-05
3.48509e-05
5.16975e-05
3.43927e-05
3.47438e-05
3.45135e-05
3.4507e-05
3.43931e-05
3.47429e-05
3.45135e-05
3.43927e-05
3.4744e-05
3.45135e-05
3.4507e-05
3.4393e-05
3.47431e-05
3.45135e-05
3.4851e-05
5.16966e-05
5.1696e-05
3.48503e-05
3.48509e-05
5.16971e-05
5.16965e-05
3.48502e-05
3.4393e-05
3.45069e-05
3.47428e-05
3.45133e-05
3.47439e-05
3.45134e-05
3.43927e-05
3.4393e-05
3.45069e-05
3.47431e-05
3.45133e-05
3.4744e-05
3.45134e-05
3.43927e-05
3.52592e-05
3.52582e-05
3.44932e-05
3.52588e-05
3.52574e-05
7.23715e-05
7.23734e-05
7.23757e-05
7.23749e-05
3.44937e-05
3.52586e-05
3.52574e-05
3.52594e-05
3.52579e-05
7.23731e-05
7.23708e-05
3.43928e-05
3.4744e-05
3.45135e-05
3.4507e-05
3.43932e-05
3.47431e-05
3.45135e-05
3.48503e-05
5.16973e-05
3.4851e-05
5.16986e-05
3.43927e-05
3.45135e-05
3.47439e-05
3.45069e-05
3.43931e-05
3.45135e-05
3.47429e-05
3.48513e-05
5.16985e-05
5.16979e-05
3.48507e-05
3.43931e-05
3.45069e-05
3.47431e-05
3.45133e-05
3.4744e-05
3.45134e-05
3.43929e-05
3.4851e-05
5.16984e-05
5.16975e-05
3.48504e-05
3.4393e-05
3.45069e-05
3.45133e-05
3.47429e-05
3.45133e-05
3.47439e-05
3.43928e-05
3.48501e-05
5.16959e-05
3.48509e-05
5.16971e-05
3.43926e-05
3.45135e-05
3.47438e-05
3.4507e-05
3.4393e-05
3.45135e-05
3.47429e-05
3.485e-05
5.16967e-05
3.48509e-05
5.16979e-05
3.4393e-05
3.4507e-05
3.47429e-05
3.45134e-05
3.47438e-05
3.45135e-05
3.43926e-05
3.48508e-05
5.16968e-05
5.1696e-05
3.48502e-05
3.4393e-05
3.45069e-05
3.45133e-05
3.47429e-05
3.45134e-05
3.47438e-05
3.43927e-05
3.48508e-05
5.16977e-05
5.16968e-05
3.48502e-05
3.52586e-05
3.52594e-05
3.44932e-05
3.5258e-05
3.52589e-05
7.23761e-05
7.23773e-05
7.2377e-05
7.23761e-05
3.44936e-05
3.52579e-05
3.52588e-05
3.52586e-05
3.52594e-05
7.23767e-05
7.23742e-05
3.43926e-05
3.45135e-05
3.47439e-05
3.4507e-05
3.43929e-05
3.45135e-05
3.4743e-05
3.48498e-05
5.1697e-05
3.48505e-05
5.16982e-05
3.48497e-05
5.16974e-05
3.48505e-05
5.16986e-05
3.43929e-05
3.4507e-05
3.45134e-05
3.4743e-05
3.45135e-05
3.47439e-05
3.43925e-05
3.43929e-05
3.45069e-05
3.45133e-05
3.47429e-05
3.45134e-05
3.47439e-05
3.43926e-05
3.48505e-05
5.16979e-05
5.16973e-05
3.48497e-05
3.48505e-05
5.16984e-05
5.16975e-05
3.48497e-05
7.23763e-05
7.23775e-05
7.23775e-05
7.23786e-05
3.44937e-05
3.5259e-05
3.5259e-05
3.52595e-05
3.52596e-05
7.23769e-05
7.23745e-05
7.2378e-05
7.23756e-05
7.23745e-05
7.23757e-05
7.23769e-05
7.23782e-05
3.52592e-05
3.52596e-05
3.44932e-05
3.52588e-05
3.5259e-05
7.23751e-05
7.23728e-05
7.23775e-05
7.23752e-05
3.44937e-05
3.52587e-05
3.52587e-05
3.52593e-05
3.52594e-05
3.48501e-05
5.16961e-05
3.48509e-05
5.16975e-05
3.43927e-05
3.47438e-05
3.45135e-05
3.4507e-05
3.43931e-05
3.47429e-05
3.45135e-05
3.43927e-05
3.4744e-05
3.45135e-05
3.4507e-05
3.4393e-05
3.47431e-05
3.45135e-05
3.4851e-05
5.16966e-05
5.16959e-05
3.48503e-05
3.48509e-05
5.1697e-05
5.16966e-05
3.48502e-05
3.4393e-05
3.45069e-05
3.47428e-05
3.45133e-05
3.47439e-05
3.45134e-05
3.43927e-05
3.4393e-05
3.45069e-05
3.47431e-05
3.45133e-05
3.4744e-05
3.45134e-05
3.43927e-05
3.52592e-05
3.52582e-05
3.44932e-05
3.52588e-05
3.52574e-05
7.23715e-05
7.23734e-05
7.23757e-05
7.23749e-05
3.44937e-05
3.52586e-05
3.52574e-05
3.52594e-05
3.5258e-05
7.23731e-05
7.23708e-05
3.43928e-05
3.4744e-05
3.45135e-05
3.4507e-05
3.43932e-05
3.47431e-05
3.45135e-05
3.48503e-05
5.16974e-05
3.4851e-05
5.16986e-05
3.43927e-05
3.45135e-05
3.47439e-05
3.4507e-05
3.43931e-05
3.45135e-05
3.47429e-05
3.48513e-05
5.16985e-05
5.16978e-05
3.48507e-05
3.43931e-05
3.45069e-05
3.47431e-05
3.45133e-05
3.4744e-05
3.45134e-05
3.43929e-05
3.4851e-05
5.16984e-05
5.16975e-05
3.48504e-05
3.4393e-05
3.45069e-05
3.45133e-05
3.47429e-05
3.45134e-05
3.47439e-05
3.43928e-05
3.48501e-05
5.16959e-05
3.48509e-05
5.16971e-05
3.43927e-05
3.45135e-05
3.47438e-05
3.4507e-05
3.4393e-05
3.45135e-05
3.47429e-05
3.485e-05
5.16967e-05
3.48509e-05
5.16979e-05
3.4393e-05
3.4507e-05
3.47429e-05
3.45134e-05
3.47438e-05
3.45135e-05
3.43926e-05
3.48508e-05
5.16968e-05
5.16961e-05
3.48502e-05
3.4393e-05
3.45069e-05
3.45133e-05
3.47429e-05
3.45134e-05
3.47438e-05
3.43927e-05
3.48508e-05
5.16977e-05
5.16968e-05
3.48502e-05
3.52586e-05
3.52594e-05
3.44932e-05
3.5258e-05
3.52589e-05
7.23761e-05
7.23772e-05
7.2377e-05
7.23761e-05
3.44936e-05
3.52579e-05
3.52588e-05
3.52586e-05
3.52594e-05
7.23767e-05
7.23742e-05
3.43926e-05
3.45135e-05
3.47439e-05
3.4507e-05
3.43929e-05
3.45135e-05
3.4743e-05
3.48497e-05
5.1697e-05
3.48505e-05
5.16982e-05
3.48497e-05
5.16974e-05
3.48505e-05
5.16986e-05
3.43929e-05
3.4507e-05
3.45134e-05
3.4743e-05
3.45135e-05
3.47439e-05
3.43925e-05
3.43929e-05
3.45069e-05
3.45133e-05
3.47429e-05
3.45134e-05
3.47439e-05
3.43926e-05
3.48505e-05
5.16979e-05
5.16973e-05
3.48498e-05
3.48505e-05
5.16984e-05
5.16976e-05
3.48497e-05
7.23763e-05
7.23774e-05
7.23775e-05
7.23787e-05
3.44937e-05
3.5259e-05
3.5259e-05
3.52595e-05
3.52596e-05
7.23769e-05
7.23745e-05
7.2378e-05
7.23757e-05
7.23745e-05
7.23757e-05
7.23769e-05
7.23782e-05
3.52593e-05
3.52593e-05
3.44932e-05
3.52588e-05
3.52589e-05
7.23751e-05
7.23728e-05
7.23776e-05
7.23752e-05
3.44937e-05
3.52589e-05
3.52589e-05
3.52594e-05
3.52594e-05
3.48501e-05
5.16961e-05
3.48509e-05
5.16975e-05
3.43927e-05
3.47438e-05
3.45135e-05
3.4507e-05
3.43931e-05
3.47429e-05
3.45135e-05
3.43927e-05
3.4744e-05
3.45135e-05
3.4507e-05
3.4393e-05
3.47431e-05
3.45135e-05
3.4851e-05
5.16966e-05
5.1696e-05
3.48503e-05
3.48509e-05
5.1697e-05
5.16966e-05
3.48502e-05
3.4393e-05
3.45069e-05
3.47429e-05
3.45133e-05
3.47439e-05
3.45134e-05
3.43927e-05
3.4393e-05
3.45069e-05
3.47431e-05
3.45133e-05
3.4744e-05
3.45134e-05
3.43927e-05
3.52592e-05
3.52582e-05
3.44932e-05
3.52588e-05
3.52574e-05
7.23715e-05
7.23734e-05
7.23757e-05
7.23749e-05
3.44937e-05
3.52586e-05
3.52574e-05
3.52594e-05
3.5258e-05
7.23731e-05
7.23708e-05
3.43928e-05
3.4744e-05
3.45135e-05
3.4507e-05
3.43932e-05
3.47431e-05
3.45135e-05
3.48503e-05
5.16974e-05
3.4851e-05
5.16986e-05
3.43927e-05
3.45135e-05
3.47439e-05
3.4507e-05
3.43931e-05
3.45135e-05
3.47429e-05
3.48513e-05
5.16985e-05
5.16978e-05
3.48507e-05
3.43931e-05
3.45069e-05
3.47431e-05
3.45133e-05
3.4744e-05
3.45134e-05
3.43929e-05
3.4851e-05
5.16984e-05
5.16975e-05
3.48504e-05
3.4393e-05
3.45069e-05
3.45133e-05
3.47429e-05
3.45134e-05
3.47439e-05
3.43928e-05
3.48501e-05
5.16959e-05
3.48509e-05
5.16971e-05
3.43927e-05
3.45135e-05
3.47438e-05
3.4507e-05
3.4393e-05
3.45135e-05
3.47429e-05
3.485e-05
5.16967e-05
3.48509e-05
5.16979e-05
3.4393e-05
3.4507e-05
3.47429e-05
3.45134e-05
3.47438e-05
3.45135e-05
3.43926e-05
3.48508e-05
5.16968e-05
5.1696e-05
3.48502e-05
3.4393e-05
3.45069e-05
3.45133e-05
3.47429e-05
3.45134e-05
3.47438e-05
3.43927e-05
3.48508e-05
5.16977e-05
5.16969e-05
3.48502e-05
3.52586e-05
3.52594e-05
3.44932e-05
3.5258e-05
3.52589e-05
7.23761e-05
7.23773e-05
7.2377e-05
7.23761e-05
3.44936e-05
3.52579e-05
3.52588e-05
3.52586e-05
3.52594e-05
7.23767e-05
7.23742e-05
3.43926e-05
3.45135e-05
3.47439e-05
3.4507e-05
3.43929e-05
3.45135e-05
3.4743e-05
3.48498e-05
5.1697e-05
3.48505e-05
5.16982e-05
3.48497e-05
5.16974e-05
3.48505e-05
5.16986e-05
3.43929e-05
3.4507e-05
3.45134e-05
3.4743e-05
3.45135e-05
3.47439e-05
3.43925e-05
3.43929e-05
3.45069e-05
3.45133e-05
3.47429e-05
3.45134e-05
3.47439e-05
3.43926e-05
3.48505e-05
5.16979e-05
5.16973e-05
3.48498e-05
3.48505e-05
5.16984e-05
5.16976e-05
3.48497e-05
7.23763e-05
7.23775e-05
7.23775e-05
7.23787e-05
3.44937e-05
3.5259e-05
3.5259e-05
3.52595e-05
3.52596e-05
7.23769e-05
7.23745e-05
7.2378e-05
7.23757e-05
7.23745e-05
7.23758e-05
7.23769e-05
7.23782e-05
3.52595e-05
3.52595e-05
3.44932e-05
3.52589e-05
3.5259e-05
7.23752e-05
7.23728e-05
7.23776e-05
7.23752e-05
3.44937e-05
3.52586e-05
3.52588e-05
3.52594e-05
3.52595e-05
3.48501e-05
5.16961e-05
3.48509e-05
5.16975e-05
3.43927e-05
3.47438e-05
3.45135e-05
3.4507e-05
3.43931e-05
3.47429e-05
3.45135e-05
3.43927e-05
3.4744e-05
3.45135e-05
3.4507e-05
3.4393e-05
3.47431e-05
3.45135e-05
3.4851e-05
5.16966e-05
5.16959e-05
3.48503e-05
3.48509e-05
5.1697e-05
5.16966e-05
3.48502e-05
3.4393e-05
3.45069e-05
3.47428e-05
3.45133e-05
3.47439e-05
3.45134e-05
3.43927e-05
3.4393e-05
3.45069e-05
3.47431e-05
3.45133e-05
3.4744e-05
3.45134e-05
3.43927e-05
3.52592e-05
3.52582e-05
3.44932e-05
3.52587e-05
3.52574e-05
7.23715e-05
7.23734e-05
7.23757e-05
7.23749e-05
3.44937e-05
3.52586e-05
3.52574e-05
3.52594e-05
3.5258e-05
7.23731e-05
7.23708e-05
3.43928e-05
3.4744e-05
3.45135e-05
3.4507e-05
3.43932e-05
3.47431e-05
3.45135e-05
3.48503e-05
5.16974e-05
3.4851e-05
5.16986e-05
3.43927e-05
3.45135e-05
3.47439e-05
3.4507e-05
3.43931e-05
3.45134e-05
3.47429e-05
3.48513e-05
5.16985e-05
5.16979e-05
3.48507e-05
3.43931e-05
3.45069e-05
3.47431e-05
3.45133e-05
3.4744e-05
3.45134e-05
3.43929e-05
3.4851e-05
5.16984e-05
5.16975e-05
3.48504e-05
3.4393e-05
3.45069e-05
3.45133e-05
3.47429e-05
3.45134e-05
3.47439e-05
3.43928e-05
3.48501e-05
5.16959e-05
3.4851e-05
5.16971e-05
3.43927e-05
3.45135e-05
3.47438e-05
3.4507e-05
3.4393e-05
3.45135e-05
3.47429e-05
3.485e-05
5.16967e-05
3.48509e-05
5.16979e-05
3.4393e-05
3.4507e-05
3.47429e-05
3.45134e-05
3.47438e-05
3.45135e-05
3.43926e-05
3.48508e-05
5.16968e-05
5.1696e-05
3.48502e-05
3.4393e-05
3.45069e-05
3.45133e-05
3.47429e-05
3.45134e-05
3.47438e-05
3.43927e-05
3.48508e-05
5.16977e-05
5.16969e-05
3.48502e-05
3.52586e-05
3.52594e-05
3.44932e-05
3.5258e-05
3.52589e-05
7.23761e-05
7.23773e-05
7.2377e-05
7.23761e-05
3.44936e-05
3.52579e-05
3.52588e-05
3.52586e-05
3.52594e-05
7.23768e-05
7.23742e-05
3.43926e-05
3.45135e-05
3.47439e-05
3.4507e-05
3.43929e-05
3.45135e-05
3.4743e-05
3.48499e-05
5.1697e-05
3.48504e-05
5.16982e-05
3.48497e-05
5.16974e-05
3.48505e-05
5.16986e-05
3.43929e-05
3.4507e-05
3.45134e-05
3.4743e-05
3.45135e-05
3.47439e-05
3.43925e-05
3.43929e-05
3.45069e-05
3.45133e-05
3.47429e-05
3.45134e-05
3.47439e-05
3.43926e-05
3.48506e-05
5.16979e-05
5.16973e-05
3.485e-05
3.48505e-05
5.16984e-05
5.16976e-05
3.48498e-05
7.23763e-05
7.23775e-05
7.23775e-05
7.23787e-05
3.44937e-05
3.5259e-05
3.5259e-05
3.52595e-05
3.52596e-05
7.23769e-05
7.23745e-05
7.2378e-05
7.23757e-05
7.23745e-05
7.23758e-05
7.23769e-05
7.23782e-05
3.52592e-05
3.52593e-05
3.44932e-05
3.52588e-05
3.52589e-05
7.23751e-05
7.23728e-05
7.23775e-05
7.23752e-05
3.44937e-05
3.52587e-05
3.52588e-05
3.52593e-05
3.52594e-05
3.48501e-05
5.16961e-05
3.48509e-05
5.16975e-05
3.43927e-05
3.47438e-05
3.45135e-05
3.4507e-05
3.43931e-05
3.47429e-05
3.45135e-05
3.43927e-05
3.4744e-05
3.45135e-05
3.4507e-05
3.4393e-05
3.47431e-05
3.45135e-05
3.4851e-05
5.16966e-05
5.1696e-05
3.48503e-05
3.48508e-05
5.1697e-05
5.16966e-05
3.48502e-05
3.4393e-05
3.45069e-05
3.47428e-05
3.45133e-05
3.47439e-05
3.45134e-05
3.43927e-05
3.4393e-05
3.45069e-05
3.47431e-05
3.45133e-05
3.4744e-05
3.45134e-05
3.43927e-05
3.52592e-05
3.52582e-05
3.44932e-05
3.52588e-05
3.52574e-05
7.23715e-05
7.23734e-05
7.23757e-05
7.23749e-05
3.44936e-05
3.52586e-05
3.52574e-05
3.52594e-05
3.5258e-05
7.23731e-05
7.23708e-05
3.43928e-05
3.4744e-05
3.45135e-05
3.4507e-05
3.43932e-05
3.47431e-05
3.45135e-05
3.48503e-05
5.16974e-05
3.4851e-05
5.16986e-05
3.43927e-05
3.45135e-05
3.47439e-05
3.4507e-05
3.43931e-05
3.45135e-05
3.47429e-05
3.48513e-05
5.16985e-05
5.16978e-05
3.48507e-05
3.43931e-05
3.45069e-05
3.47431e-05
3.45133e-05
3.4744e-05
3.45134e-05
3.43929e-05
3.4851e-05
5.16984e-05
5.16975e-05
3.48504e-05
3.4393e-05
3.45069e-05
3.45133e-05
3.47429e-05
3.45134e-05
3.47439e-05
3.43927e-05
3.48501e-05
5.16959e-05
3.48509e-05
5.16971e-05
3.43926e-05
3.45135e-05
3.47438e-05
3.4507e-05
3.4393e-05
3.45135e-05
3.47429e-05
3.485e-05
5.16967e-05
3.48509e-05
5.16979e-05
3.4393e-05
3.4507e-05
3.47429e-05
3.45134e-05
3.47438e-05
3.45135e-05
3.43926e-05
3.48508e-05
5.16968e-05
5.1696e-05
3.48502e-05
3.4393e-05
3.45069e-05
3.45133e-05
3.47429e-05
3.45134e-05