/*--------------------------------*- C++ -*----------------------------------*\
| =========                 |                                                 |
| \\      /  F ield         | OpenFOAM: The Open Source CFD Toolbox           |
|  \\    /   O peration     | Version:  2206                                  |
|   \\  /    A nd           | Website:  www.openfoam.com                      |
|    \\/     M anipulation  |                                                 |
\*---------------------------------------------------------------------------*/
FoamFile
{
    version     2.0;
    format      ascii;
    arch        "LSB;label=32;scalar=64";
    class       surfaceScalarField;
    location    "6";
    object      phi;
}
// * * * * * * * * * * * * * * * * * * * * * * * * * * * * * * * * * * * * * //

dimensions      [0 3 -1 0 0 0 0];

oriented        oriented;

internalField   nonuniform List<scalar> 
83378
(
-0.00106198
-1.15839e-06
-1.2518e-09
7.15027e-10
0.00106198
-2.13543e-07
1.16003e-06
2.13384e-07
8.29427e-07
-1.94277e-07
-8.29127e-07
1.93861e-07
1.18606e-06
1.15325e-06
-2.05038e-07
-2.10191e-07
0.000259253
-1.1937e-10
5.07898e-10
-0.0010613
-6.32539e-10
-2.57888e-10
0.0010613
-0.00106198
-1.15865e-06
4.93454e-11
1.42389e-09
0.00106198
-2.13986e-07
1.15982e-06
2.13014e-07
8.29078e-07
-1.95097e-07
-8.29638e-07
1.93168e-07
-0.00106165
-1.1532e-06
-3.18369e-10
9.09925e-10
0.00106165
-2.1367e-07
1.15456e-06
2.13104e-07
8.28915e-07
-1.97188e-07
-8.29384e-07
1.95979e-07
-0.000261176
1.18627e-06
1.15351e-06
-2.05388e-07
-2.10501e-07
0.000259253
5.37704e-10
3.85807e-10
-0.0010613
-4.80331e-10
-6.03805e-10
0.0010613
-0.00106198
-1.15856e-06
-5.95225e-10
1.10785e-09
0.00106198
-2.13783e-07
1.15992e-06
2.13186e-07
8.29233e-07
-1.94692e-07
-8.29417e-07
1.93523e-07
-0.00106165
-1.15332e-06
-4.8761e-10
1.29077e-09
0.00106165
-2.13848e-07
1.15457e-06
2.13137e-07
8.29051e-07
-1.97362e-07
-8.29315e-07
1.96133e-07
-0.000261177
1.18622e-06
1.15339e-06
-2.05214e-07
-2.10378e-07
0.000259253
6.2233e-10
6.01874e-10
-0.0010613
-5.94326e-10
-6.50587e-10
0.0010613
-0.00106198
-1.15854e-06
-6.63951e-10
1.10145e-09
0.00106198
-2.13771e-07
1.15993e-06
2.13196e-07
8.29256e-07
-1.94663e-07
-8.2939e-07
1.93546e-07
-0.00106165
-1.15326e-06
-6.5611e-10
1.14817e-09
0.00106165
-2.13776e-07
1.15462e-06
2.13191e-07
8.29086e-07
-1.9728e-07
-8.29268e-07
1.96184e-07
-0.000261177
1.18619e-06
1.15337e-06
-2.05186e-07
-2.10342e-07
0.000259253
6.10882e-10
6.21805e-10
-0.0010613
-6.11895e-10
-6.43031e-10
0.0010613
-0.00106198
-1.15855e-06
-6.4528e-10
1.1131e-09
0.00106198
-2.13775e-07
1.15992e-06
2.13193e-07
8.29252e-07
-1.94667e-07
-8.29394e-07
1.93542e-07
-0.00106165
-1.15327e-06
-6.67093e-10
1.12965e-09
0.00106165
-2.13741e-07
1.15462e-06
2.13195e-07
8.29085e-07
-1.97278e-07
-8.29267e-07
1.96185e-07
-0.000261177
1.18619e-06
1.15338e-06
-2.05188e-07
-2.10342e-07
0.000259253
6.12948e-10
6.30801e-10
-0.0010613
-6.20697e-10
-6.45823e-10
0.0010613
-0.00106198
-1.15855e-06
-6.49009e-10
1.11148e-09
0.00106198
-2.13774e-07
1.15992e-06
2.13194e-07
8.29254e-07
-1.94666e-07
-8.29394e-07
1.93544e-07
-0.00106165
-1.15327e-06
-6.71597e-10
1.12598e-09
0.00106165
-2.13741e-07
1.15462e-06
2.13195e-07
8.29087e-07
-1.97278e-07
-8.29268e-07
1.96187e-07
-0.000261177
1.18619e-06
1.15338e-06
-2.0519e-07
-2.10341e-07
0.000259253
6.1414e-10
6.28896e-10
-0.0010613
-6.18694e-10
-6.46584e-10
0.0010613
-0.00106198
-1.15855e-06
-6.45064e-10
1.11196e-09
0.00106198
-2.13773e-07
1.15992e-06
2.13193e-07
8.29253e-07
-1.94666e-07
-8.29393e-07
1.93543e-07
-0.00106165
-1.15327e-06
-6.64018e-10
1.12827e-09
0.00106165
-2.13741e-07
1.15462e-06
2.13194e-07
8.29086e-07
-1.97278e-07
-8.29268e-07
1.96185e-07
-0.000261177
1.18619e-06
1.15338e-06
-2.0519e-07
-2.1034e-07
0.000259253
6.11517e-10
6.32046e-10
-0.0010613
-6.21019e-10
-6.44232e-10
0.0010613
-0.00106198
-1.15855e-06
-6.47036e-10
1.11034e-09
0.00106198
-2.13774e-07
1.15992e-06
2.13193e-07
8.29254e-07
-1.94666e-07
-8.29393e-07
1.93544e-07
-0.00106165
-1.15326e-06
-6.67395e-10
1.12232e-09
0.00106165
-2.13741e-07
1.15463e-06
2.13165e-07
8.29087e-07
-1.97278e-07
-8.29268e-07
1.96186e-07
-0.000261177
1.18619e-06
1.15338e-06
-2.05189e-07
-2.1034e-07
0.000259253
6.13335e-10
6.51741e-10
-0.0010613
-6.30356e-10
-6.40326e-10
0.0010613
-0.00106198
-1.15854e-06
-6.53095e-10
1.11028e-09
0.00106198
-2.13772e-07
1.15992e-06
2.13194e-07
8.29255e-07
-1.94663e-07
-8.29391e-07
1.93545e-07
-0.00106165
-1.15326e-06
-6.71399e-10
1.11504e-09
0.00106165
-2.13738e-07
1.15463e-06
2.13167e-07
8.29087e-07
-1.97276e-07
-8.29266e-07
1.96187e-07
-0.000261177
1.18619e-06
1.15337e-06
-2.05185e-07
-2.10336e-07
0.000259253
5.72279e-10
6.22799e-10
-0.0010613
-6.54308e-10
-6.52459e-10
0.0010613
-0.00106198
-1.15854e-06
-6.26122e-10
1.09788e-09
0.00106198
-2.13766e-07
1.15991e-06
2.13183e-07
8.29241e-07
-1.94655e-07
-8.29377e-07
1.93534e-07
-0.00106165
-1.15325e-06
-6.43713e-10
1.0829e-09
0.00106165
-2.13761e-07
1.15462e-06
2.13195e-07
8.29068e-07
-1.97287e-07
-8.29206e-07
1.96173e-07
-0.000261177
1.18618e-06
1.15336e-06
-2.05175e-07
-2.10328e-07
0.000259253
1.63337e-08
1.647e-08
-0.00106131
-6.13303e-09
-1.11842e-08
0.00106129
-0.00106198
-1.15791e-06
-1.11208e-08
-9.20359e-09
0.00106199
-2.13171e-07
1.1618e-06
2.17993e-07
8.33377e-07
-1.96035e-07
-8.30931e-07
1.94536e-07
-0.00106166
-1.15e-06
-1.64586e-08
-4.03354e-09
0.00106167
-2.13105e-07
1.1539e-06
2.15336e-07
8.30591e-07
-1.96001e-07
-8.28134e-07
1.97178e-07
-0.000261182
1.18816e-06
1.15272e-06
-2.01826e-07
-2.06941e-07
0.00025925
8.05617e-07
8.12401e-07
-0.00106116
-6.87686e-07
-6.77798e-07
0.00106091
-0.00106224
-1.06725e-06
-8.0675e-07
-3.62262e-07
0.00106255
-1.37388e-07
1.31481e-06
3.05407e-07
9.70107e-07
-8.96641e-08
-7.27061e-07
2.84199e-07
-0.00106192
-1.05919e-06
-8.17188e-07
-3.72912e-07
0.00106225
-1.37223e-07
1.30968e-06
3.08202e-07
9.67139e-07
-9.50511e-08
-7.24264e-07
2.86888e-07
-0.000261262
1.10007e-06
1.05935e-06
-1.14076e-07
-1.16566e-07
0.000259333
4.86639e-06
4.85987e-06
-0.00104745
-1.03633e-05
-1.02683e-05
0.000254252
0.00025758
0.000256675
0.000256676
3.94726e-06
6.17187e-06
6.46257e-06
3.95089e-06
6.17261e-06
6.46585e-06
-0.000262718
5.04204e-06
-4.85729e-06
5.6306e-06
-3.19427e-06
0.000260097
-0.000262695
-4.85945e-06
5.0472e-06
-3.20204e-06
5.62769e-06
0.000260081
-0.000261666
-5.03915e-06
-5.04996e-06
5.65523e-06
5.64364e-06
0.000260456
1.19814e-06
0.00106165
-1.19663e-06
2.21295e-07
-2.2165e-07
1.96381e-07
-1.97118e-07
-1.15996e-06
0.000261221
-0.000259279
2.06851e-07
2.09116e-07
-1.15842e-06
2.13272e-07
-2.13599e-07
1.93709e-07
-1.94413e-07
-1.19279e-06
-1.15717e-06
0.000261192
-0.000259258
2.03905e-07
2.11722e-07
1.04509e-09
0.00106122
-2.18933e-07
2.18523e-07
8.29305e-07
-1.94314e-07
-8.29121e-07
1.93667e-07
-1.19659e-06
-1.15293e-09
7.49256e-10
0.00106165
-2.21594e-07
1.1982e-06
2.21407e-07
8.34822e-07
-1.96983e-07
-8.3456e-07
1.96533e-07
0.00106122
-2.85161e-10
-0.00106122
8.84165e-10
-1.1913e-06
2.18457e-07
-2.18945e-07
-8.29448e-07
1.93313e-07
-1.94445e-07
8.28919e-07
1.19797e-06
0.00106164
-1.74343e-11
-0.00106164
1.65975e-09
-1.19684e-06
2.20949e-07
-2.22038e-07
-8.35029e-07
1.95785e-07
-1.97626e-07
8.34359e-07
-2.05218e-07
-2.075e-07
0.000259279
-1.1598e-06
0.00026122
-0.000259278
2.0658e-07
2.08845e-07
0.00106224
-1.14023e-09
-0.00106224
1.33454e-09
-1.15598e-06
2.1576e-07
-2.16464e-07
-8.31834e-07
1.96499e-07
-1.9694e-07
8.31955e-07
1.19284e-06
0.00106133
-1.30365e-09
-0.00106133
8.76383e-10
-1.19133e-06
2.21316e-07
-2.21547e-07
-8.31745e-07
1.96542e-07
-1.96817e-07
8.31909e-07
-1.05748e-09
9.90702e-10
0.00106113
-2.16176e-07
1.18758e-06
2.15844e-07
8.29322e-07
-1.94328e-07
1.9365e-07
-8.29158e-07
-8.10476e-11
-0.00106198
1.56897e-09
-1.15864e-06
2.12933e-07
-2.13981e-07
-8.29601e-07
1.93115e-07
8.28955e-07
-1.94921e-07
1.18748e-06
0.00106113
-3.09561e-10
-0.00106113
1.0503e-09
-1.18614e-06
2.15666e-07
-2.16284e-07
-8.2949e-07
1.93312e-07
-1.94456e-07
8.28948e-07
-1.15475e-06
0.000261171
-0.00025924
2.04429e-07
2.11576e-07
-9.65982e-10
8.84967e-10
0.00106215
-2.13651e-07
1.15475e-06
2.13315e-07
8.29458e-07
-1.97085e-07
1.96396e-07
-8.29279e-07
-8.66323e-10
-0.00106165
5.80003e-10
-1.15304e-06
2.13399e-07
-2.13453e-07
-8.29203e-07
1.96384e-07
8.29019e-07
-1.96929e-07
1.1546e-06
0.00106215
-4.87166e-10
-0.00106215
1.36562e-09
-1.15338e-06
2.13082e-07
-2.13812e-07
-8.29559e-07
1.96088e-07
-1.97178e-07
8.29122e-07
-0.000259252
2.06402e-07
2.11613e-07
1.19142e-06
1.15615e-06
-2.02946e-07
-2.1037e-07
0.000259258
-1.1927e-06
-1.15731e-06
0.000261193
-0.000259258
2.04028e-07
2.11593e-07
1.21321e-09
0.00106122
-2.19166e-07
1.19272e-06
2.18321e-07
8.28946e-07
-1.9497e-07
-8.29606e-07
1.92967e-07
-1.19686e-06
8.38984e-11
1.50931e-09
0.00106165
-2.22043e-07
1.19799e-06
2.21032e-07
8.34483e-07
-1.97805e-07
-8.35061e-07
1.95837e-07
0.00106122
-4.50257e-10
-0.00106122
1.33346e-09
-1.1915e-06
2.18392e-07
-2.19188e-07
-8.29387e-07
1.93412e-07
-1.94702e-07
8.29152e-07
1.19808e-06
0.00106165
-4.13682e-10
-0.00106165
1.15063e-09
-1.19678e-06
2.21195e-07
-2.21858e-07
-8.34868e-07
1.96163e-07
-1.97437e-07
8.34609e-07
-2.05562e-07
-2.07849e-07
0.000259278
-1.1599e-06
0.000261221
-0.000259279
2.06731e-07
2.09002e-07
1.53087e-09
0.00106224
-2.1676e-07
1.15712e-06
2.15624e-07
8.31739e-07
-1.97242e-07
-8.32128e-07
1.96102e-07
-1.19148e-06
-6.49261e-10
1.19223e-09
0.00106133
-2.21768e-07
1.1927e-06
2.21059e-07
8.31645e-07
-1.97102e-07
-8.32067e-07
1.96094e-07
0.00106225
-2.58398e-10
-0.00106225
1.16688e-09
-1.15601e-06
2.15898e-07
-2.16572e-07
-8.32154e-07
1.96074e-07
-1.97606e-07
8.31845e-07
1.19275e-06
0.00106133
-1.32122e-10
-0.00106133
1.34452e-09
-1.19156e-06
2.21094e-07
-2.21943e-07
-8.32111e-07
1.95997e-07
-1.9759e-07
8.31763e-07
8.45662e-11
1.33645e-09
0.00106113
-2.16525e-07
1.18743e-06
2.15549e-07
8.28995e-07
-1.94958e-07
1.92986e-07
-8.2962e-07
-5.14806e-10
-0.00106198
1.12411e-09
-1.15858e-06
2.13171e-07
-2.13808e-07
-8.29435e-07
1.93495e-07
8.29213e-07
-1.94729e-07
1.1875e-06
0.00106113
-4.09678e-10
-0.00106113
1.28477e-09
-1.18625e-06
2.15718e-07
-2.16424e-07
-8.29437e-07
1.93393e-07
-1.94716e-07
8.29157e-07
-2.02789e-07
-2.10162e-07
0.00025924
-1.15455e-06
0.000261172
-0.00025924
2.0413e-07
2.11414e-07
1.92827e-11
1.55159e-09
0.00106215
-2.14049e-07
1.15456e-06
2.12976e-07
8.29147e-07
-1.97685e-07
1.95753e-07
-8.2971e-07
-3.51616e-10
-0.00106165
1.37453e-09
-1.15336e-06
2.13089e-07
-2.13916e-07
-8.29311e-07
1.9602e-07
8.29068e-07
-1.97524e-07
1.15468e-06
0.00106215
-2.70649e-10
-0.00106215
1.13096e-09
-1.15342e-06
2.13202e-07
-2.13891e-07
-8.29565e-07
1.96127e-07
-1.97479e-07
8.29279e-07
-0.000259253
2.06488e-07
2.11645e-07
1.19147e-06
1.15599e-06
-2.02738e-07
-2.10367e-07
0.000259258
-1.19276e-06
-1.15733e-06
0.000261193
-0.000259258
2.04067e-07
2.11661e-07
1.28509e-09
0.00106122
-2.19141e-07
1.19273e-06
2.18429e-07
8.29169e-07
-1.94643e-07
-8.2937e-07
1.93445e-07
-1.19676e-06
-4.88124e-10
1.13027e-09
0.00106165
-2.21833e-07
1.19809e-06
2.21211e-07
8.34627e-07
-1.97405e-07
-8.34852e-07
1.96186e-07
0.00106122
-6.50455e-10
-0.00106122
1.19594e-09
-1.19143e-06
2.18464e-07
-2.19098e-07
-8.29334e-07
1.93484e-07
-1.94596e-07
8.29197e-07
1.1981e-06
0.00106165
-5.58957e-10
-0.00106165
1.12519e-09
-1.19675e-06
2.21218e-07
-2.21827e-07
-8.34827e-07
1.96213e-07
-1.97371e-07
8.3465e-07
-2.05405e-07
-2.07686e-07
0.000259279
-1.15993e-06
0.000261221
-0.000259279
2.06763e-07
2.09032e-07
1.1249e-09
0.00106225
-2.16537e-07
1.15732e-06
2.15922e-07
8.31875e-07
-1.9748e-07
-8.32127e-07
1.96164e-07
-1.19152e-06
-3.01142e-10
1.27676e-09
0.00106133
-2.21873e-07
1.19278e-06
2.21144e-07
8.31789e-07
-1.97443e-07
-8.32084e-07
1.96099e-07
0.00106225
-5.91954e-10
-0.00106225
1.09879e-09
-1.15597e-06
2.15935e-07
-2.16518e-07
-8.32071e-07
1.96237e-07
-1.97375e-07
8.31922e-07
1.19281e-06
0.00106133
-5.39649e-10
-0.00106133
1.17137e-09
-1.19148e-06
2.21186e-07
-2.21816e-07
-8.32024e-07
1.96179e-07
-1.97329e-07
8.31842e-07
-5.19959e-10
1.23923e-09
0.00106113
-2.16392e-07
1.18752e-06
2.1574e-07
8.29183e-07
-1.94653e-07
1.93435e-07
-8.29411e-07
-6.67463e-10
-0.00106198
1.09865e-09
-1.15855e-06
2.13194e-07
-2.13777e-07
-8.29392e-07
1.93546e-07
8.29255e-07
-1.94663e-07
1.18755e-06
0.00106113
-6.2609e-10
-0.00106113
1.16769e-09
-1.18619e-06
2.1577e-07
-2.16356e-07
-8.29381e-07
1.93466e-07
-1.94608e-07
8.29208e-07
-2.0295e-07
-2.10191e-07
0.00025924
-1.15461e-06
0.000261172
-0.00025924
2.04224e-07
2.11485e-07
-3.65117e-10
1.08813e-09
0.00106215
-2.13855e-07
1.1547e-06
2.13225e-07
8.29302e-07
-1.97421e-07
1.96166e-07
-8.29545e-07
-6.5681e-10
-0.00106165
1.15933e-09
-1.15327e-06
2.13187e-07
-2.13785e-07
-8.29223e-07
1.96163e-07
8.29136e-07
-1.97297e-07
1.15472e-06
0.00106215
-4.96929e-10
-0.00106215
1.06538e-09
-1.15337e-06
2.13246e-07
-2.13828e-07
-8.29507e-07
1.96201e-07
-1.97371e-07
8.29333e-07
-0.000259253
2.06533e-07
2.11696e-07
1.19142e-06
1.15597e-06
-2.02714e-07
-2.10313e-07
0.000259258
-1.19277e-06
-1.15733e-06
0.000261193
-0.000259258
2.04064e-07
2.11667e-07
1.18745e-09
0.00106122
-2.19089e-07
1.19277e-06
2.18469e-07
8.29188e-07
-1.94603e-07
-8.29345e-07
1.93472e-07
-1.19674e-06
-5.55308e-10
1.13203e-09
0.00106165
-2.21822e-07
1.1981e-06
2.21219e-07
8.34651e-07
-1.97376e-07
-8.34825e-07
1.96209e-07
0.00106122
-6.3621e-10
-0.00106122
1.17509e-09
-1.19142e-06
2.18469e-07
-2.19091e-07
-8.29336e-07
1.93481e-07
-1.94598e-07
8.29194e-07
1.1981e-06
0.00106165
-5.52321e-10
-0.00106165
1.14478e-09
-1.19675e-06
2.21214e-07
-2.21829e-07
-8.34826e-07
1.96212e-07
-1.97371e-07
8.34649e-07
-2.05386e-07
-2.07667e-07
0.000259279
-1.15992e-06
0.000261221
-0.000259279
2.06761e-07
2.0903e-07
1.11101e-09
0.00106225
-2.16516e-07
1.15733e-06
2.15935e-07
8.31929e-07
-1.97376e-07
-8.32065e-07
1.96236e-07
-1.19148e-06
-5.59708e-10
1.18869e-09
0.00106133
-2.21812e-07
1.19281e-06
2.21186e-07
8.31846e-07
-1.97326e-07
-8.32019e-07
1.96177e-07
0.00106225
-6.2961e-10
-0.00106225
1.11854e-09
-1.15598e-06
2.15932e-07
-2.16522e-07
-8.32061e-07
1.96243e-07
-1.97366e-07
8.3193e-07
1.19282e-06
0.00106133
-5.86832e-10
-0.00106133
1.15541e-09
-1.19147e-06
2.2119e-07
-2.2181e-07
-8.32013e-07
1.96187e-07
-1.97318e-07
8.3185e-07
-6.21759e-10
1.17086e-09
0.00106113
-2.16359e-07
1.18754e-06
2.15766e-07
8.2921e-07
-1.94613e-07
1.93464e-07
-8.29379e-07
-6.52059e-10
-0.00106198
1.1117e-09
-1.15855e-06
2.13191e-07
-2.13778e-07
-8.29393e-07
1.93544e-07
8.29253e-07
-1.94664e-07
1.18755e-06
0.00106113
-6.1694e-10
-0.00106113
1.15574e-09
-1.18619e-06
2.15772e-07
-2.16353e-07
-8.29381e-07
1.93465e-07
-1.94608e-07
8.29206e-07
-2.02878e-07
-2.10139e-07
0.00025924
-1.15463e-06
0.000261175
-0.00025924
2.04226e-07
2.08987e-07
-4.93807e-10
1.07989e-09
0.00106215
-2.13832e-07
1.15472e-06
2.1324e-07
8.29334e-07
-1.97375e-07
1.96201e-07
-8.29507e-07
-6.73074e-10
-0.00106165
1.13104e-09
-1.15326e-06
2.13163e-07
-2.13778e-07
-8.29219e-07
1.96165e-07
8.29137e-07
-1.97294e-07
1.15472e-06
0.00106215
-5.18482e-10
-0.00106215
1.08562e-09
-1.15337e-06
2.13244e-07
-2.13829e-07
-8.29501e-07
1.96204e-07
-1.97367e-07
8.29337e-07
-0.000259253
2.06531e-07
2.11698e-07
1.19142e-06
1.15598e-06
-2.02717e-07
-2.1031e-07
0.000259258
-1.19277e-06
-1.15733e-06
0.000261193
-0.000259258
2.04064e-07
2.11669e-07
1.17441e-09
0.00106122
-2.19086e-07
1.19277e-06
2.18471e-07
8.29185e-07
-1.94606e-07
-8.29348e-07
1.93468e-07
-1.19675e-06
-5.4549e-10
1.14851e-09
0.00106165
-2.21826e-07
1.1981e-06
2.21215e-07
8.34649e-07
-1.97378e-07
-8.34827e-07
1.96205e-07
0.00106122
-6.35636e-10
-0.00106122
1.16461e-09
-1.19142e-06
2.18471e-07
-2.1909e-07
-8.29337e-07
1.93481e-07
-1.94599e-07
8.29193e-07
1.1981e-06
0.00106165
-5.50327e-10
-0.00106165
1.14775e-09
-1.19675e-06
2.21215e-07
-2.21831e-07
-8.34828e-07
1.96212e-07
-1.97372e-07
8.34649e-07
-2.05389e-07
-2.07671e-07
0.000259279
-1.15993e-06
0.000261221
-0.000259279
2.06761e-07
2.0903e-07
1.12599e-09
0.00106225
-2.16519e-07
1.15733e-06
2.15932e-07
8.31932e-07
-1.97372e-07
-8.3206e-07
1.96238e-07
-1.19148e-06
-5.82095e-10
1.18243e-09
0.00106133
-2.2181e-07
1.19281e-06
2.21188e-07
8.31847e-07
-1.97322e-07
-8.32014e-07
1.96179e-07
0.00106225
-6.40554e-10
-0.00106225
1.11684e-09
-1.15598e-06
2.15932e-07
-2.16522e-07
-8.3206e-07
1.96245e-07
-1.97365e-07
8.31932e-07
1.19282e-06
0.00106133
-5.95734e-10
-0.00106133
1.15212e-09
-1.19147e-06
2.21191e-07
-2.21811e-07
-8.32013e-07
1.96188e-07
-1.97317e-07
8.3185e-07
-6.02008e-10
1.16687e-09
0.00106113
-2.16358e-07
1.18754e-06
2.15765e-07
8.29206e-07
-1.94615e-07
1.93461e-07
-8.29382e-07
-6.46133e-10
-0.00106198
1.11177e-09
-1.15855e-06
2.13192e-07
-2.1378e-07
-8.29395e-07
1.93543e-07
8.29252e-07
-1.94666e-07
1.18755e-06
0.00106113
-6.08865e-10
-0.00106113
1.15447e-09
-1.18619e-06
2.15773e-07
-2.16354e-07
-8.29384e-07
1.93464e-07
-1.9461e-07
8.29205e-07
-2.02871e-07
-2.07641e-07
0.00025924
-1.15463e-06
0.000261175
-0.00025924
2.04228e-07
2.08988e-07
-5.00486e-10
1.09892e-09
0.00106215
-2.13835e-07
1.15471e-06
2.13237e-07
8.29335e-07
-1.97374e-07
1.96201e-07
-8.29505e-07
-6.75136e-10
-0.00106165
1.12236e-09
-1.15326e-06
2.13164e-07
-2.13778e-07
-8.29221e-07
1.96166e-07
8.29137e-07
-1.97295e-07
1.15472e-06
0.00106215
-5.19622e-10
-0.00106215
1.0911e-09
-1.15338e-06
2.13243e-07
-2.13831e-07
-8.29502e-07
1.96205e-07
-1.97368e-07
8.29338e-07
-0.000259253
2.06531e-07
2.11699e-07
1.19142e-06
1.15597e-06
-2.02716e-07
-2.10308e-07
0.000259258
-1.19277e-06
-1.15733e-06
0.000261193
-0.000259258
2.04064e-07
2.11669e-07
1.16312e-09
0.00106122
-2.19084e-07
1.19277e-06
2.18475e-07
8.29186e-07
-1.94606e-07
-8.29349e-07
1.9347e-07
-1.19675e-06
-5.46e-10
1.14828e-09
0.00106165
-2.21825e-07
1.1981e-06
2.21218e-07
8.3465e-07
-1.97378e-07
-8.34827e-07
1.96207e-07
0.00106122
-6.40087e-10
-0.00106122
1.16383e-09
-1.19142e-06
2.18472e-07
-2.19089e-07
-8.29336e-07
1.93481e-07
-1.94598e-07
8.29194e-07
1.1981e-06
0.00106165
-5.56781e-10
-0.00106165
1.14564e-09
-1.19675e-06
2.21216e-07
-2.21829e-07
-8.34825e-07
1.96214e-07
-1.9737e-07
8.34652e-07
-2.05388e-07
-2.0767e-07
0.000259279
-1.15993e-06
0.000261221
-0.000259279
2.06763e-07
2.09032e-07
1.12067e-09
0.00106225
-2.16517e-07
1.15733e-06
2.15934e-07
8.31935e-07
-1.97371e-07
-8.32059e-07
1.96241e-07
-1.19148e-06
-5.89571e-10
1.18154e-09
0.00106133
-2.2181e-07
1.19281e-06
2.21189e-07
8.3185e-07
-1.97321e-07
-8.32014e-07
1.96182e-07
0.00106225
-6.40587e-10
-0.00106225
1.1179e-09
-1.15598e-06
2.15932e-07
-2.16523e-07
-8.32059e-07
1.96246e-07
-1.97364e-07
8.31933e-07
1.19282e-06
0.00106133
-5.95872e-10
-0.00106133
1.15424e-09
-1.19147e-06
2.21192e-07
-2.21808e-07
-8.32011e-07
1.96188e-07
-1.97317e-07
8.31852e-07
-6.02336e-10
1.16096e-09
0.00106113
-2.16357e-07
1.18754e-06
2.15767e-07
8.29207e-07
-1.94617e-07
1.93461e-07
-8.29384e-07
-6.52656e-10
-0.00106198
1.10964e-09
-1.15855e-06
2.13193e-07
-2.13778e-07
-8.29392e-07
1.93545e-07
8.29254e-07
-1.94664e-07
1.18755e-06
0.00106113
-6.10189e-10
-0.00106113
1.15338e-09
-1.18619e-06
2.15774e-07
-2.16352e-07
-8.29383e-07
1.93464e-07
-1.9461e-07
8.29205e-07
-2.0287e-07
-2.07641e-07
0.00025924
-1.15463e-06
0.000261175
-0.00025924
2.04229e-07
2.0899e-07
-5.07975e-10
1.09724e-09
0.00106215
-2.13835e-07
1.15471e-06
2.13237e-07
8.29337e-07
-1.97374e-07
1.96203e-07
-8.29505e-07
-6.77915e-10
-0.00106165
1.12328e-09
-1.15326e-06
2.13165e-07
-2.13776e-07
-8.29219e-07
1.96167e-07
8.29139e-07
-1.97293e-07
1.15472e-06
0.00106215
-5.20559e-10
-0.00106215
1.09182e-09
-1.15338e-06
2.13243e-07
-2.13831e-07
-8.295e-07
1.96206e-07
-1.97365e-07
8.29339e-07
-0.000259253
2.0653e-07
2.117e-07
1.19142e-06
1.15598e-06
-2.02717e-07
-2.10307e-07
0.000259258
-1.19277e-06
-1.15733e-06
0.000261193
-0.000259258
2.04063e-07
2.11668e-07
1.16725e-09
0.00106122
-2.19083e-07
1.19277e-06
2.18474e-07
8.29186e-07
-1.94606e-07
-8.29348e-07
1.93469e-07
-1.19675e-06
-5.48139e-10
1.15135e-09
0.00106165
-2.21825e-07
1.1981e-06
2.21216e-07
8.34651e-07
-1.97377e-07
-8.34826e-07
1.96207e-07
0.00106122
-6.34878e-10
-0.00106122
1.1636e-09
-1.19142e-06
2.1847e-07
-2.19091e-07
-8.29338e-07
1.9348e-07
-1.946e-07
8.29193e-07
1.1981e-06
0.00106165
-5.50063e-10
-0.00106165
1.15066e-09
-1.19675e-06
2.21213e-07
-2.21832e-07
-8.34827e-07
1.96213e-07
-1.97372e-07
8.3465e-07
-2.05387e-07
-2.07669e-07
0.000259279
-1.15992e-06
0.000261221
-0.000259279
2.06761e-07
2.09029e-07
1.12645e-09
0.00106225
-2.16519e-07
1.15733e-06
2.15932e-07
8.31934e-07
-1.9737e-07
-8.32058e-07
1.9624e-07
-1.19148e-06
-5.88043e-10
1.18246e-09
0.00106133
-2.21809e-07
1.19281e-06
2.21188e-07
8.31849e-07
-1.97322e-07
-8.32013e-07
1.96181e-07
0.00106225
-6.39264e-10
-0.00106225
1.1184e-09
-1.15598e-06
2.1593e-07
-2.16524e-07
-8.3206e-07
1.96245e-07
-1.97365e-07
8.31932e-07
1.19281e-06
0.00106133
-5.91453e-10
-0.00106133
1.16355e-09
-1.19147e-06
2.21188e-07
-2.21812e-07
-8.32013e-07
1.96187e-07
-1.97318e-07
8.31851e-07
-6.01604e-10
1.16326e-09
0.00106113
-2.16356e-07
1.18754e-06
2.15767e-07
8.29206e-07
-1.94616e-07
1.93461e-07
-8.29384e-07
-6.48138e-10
-0.00106198
1.11342e-09
-1.15855e-06
2.13191e-07
-2.1378e-07
-8.29394e-07
1.93543e-07
8.29252e-07
-1.94666e-07
1.18755e-06
0.00106113
-6.10175e-10
-0.00106113
1.15087e-09
-1.18619e-06
2.15774e-07
-2.16352e-07
-8.29384e-07
1.93464e-07
-1.9461e-07
8.29205e-07
-2.0287e-07
-2.0764e-07
0.00025924
-1.15463e-06
0.000261175
-0.00025924
2.04226e-07
2.08984e-07
-5.03567e-10
1.10173e-09
0.00106215
-2.13836e-07
1.15471e-06
2.13236e-07
8.29337e-07
-1.97373e-07
1.96203e-07
-8.29505e-07
-6.72937e-10
-0.00106165
1.12509e-09
-1.15326e-06
2.13163e-07
-2.13778e-07
-8.29222e-07
1.96165e-07
8.29137e-07
-1.97296e-07
1.15472e-06
0.00106215
-5.23194e-10
-0.00106215
1.0912e-09
-1.15338e-06
2.13243e-07
-2.13832e-07
-8.29501e-07
1.96206e-07
-1.97366e-07
8.29339e-07
-0.000259253
2.0653e-07
2.117e-07
1.19142e-06
1.15597e-06
-2.02717e-07
-2.10307e-07
0.000259258
-1.19278e-06
-1.15733e-06
0.000261193
-0.000259258
2.04066e-07
2.11672e-07
1.16073e-09
0.00106122
-2.19083e-07
1.19277e-06
2.18476e-07
8.29186e-07
-1.94606e-07
-8.29349e-07
1.9347e-07
-1.19675e-06
-5.47496e-10
1.14925e-09
0.00106165
-2.21827e-07
1.1981e-06
2.21215e-07
8.3465e-07
-1.97377e-07
-8.34826e-07
1.96207e-07
0.00106122
-6.41719e-10
-0.00106122
1.15247e-09
-1.19142e-06
2.18475e-07
-2.19085e-07
-8.29335e-07
1.93482e-07
-1.94597e-07
8.29195e-07
1.1981e-06
0.00106165
-5.66409e-10
-0.00106165
1.1478e-09
-1.19675e-06
2.21217e-07
-2.21827e-07
-8.34822e-07
1.96216e-07
-1.97368e-07
8.34653e-07
-2.05389e-07
-2.07671e-07
0.000259279
-1.15993e-06
0.000261221
-0.000259279
2.06764e-07
2.09032e-07
1.12284e-09
0.00106225
-2.16518e-07
1.15733e-06
2.15934e-07
8.31935e-07
-1.9737e-07
-8.32058e-07
1.96241e-07
-1.19147e-06
-5.91557e-10
1.16879e-09
0.00106133
-2.21808e-07
1.19281e-06
2.21189e-07
8.3185e-07
-1.97321e-07
-8.32013e-07
1.96182e-07
0.00106225
-6.54555e-10
-0.00106225
1.11125e-09
-1.15597e-06
2.15935e-07
-2.16519e-07
-8.32055e-07
1.96247e-07
-1.9736e-07
8.31935e-07
1.19282e-06
0.00106133
-6.05694e-10
-0.00106133
1.15132e-09
-1.19147e-06
2.21193e-07
-2.21807e-07
-8.32009e-07
1.96191e-07
-1.97314e-07
8.31853e-07
-6.03561e-10
1.15981e-09
0.00106113
-2.16356e-07
1.18755e-06
2.15768e-07
8.29207e-07
-1.94616e-07
1.93461e-07
-8.29383e-07
-6.57012e-10
-0.00106198
1.10551e-09
-1.15854e-06
2.13194e-07
-2.13776e-07
-8.29391e-07
1.93545e-07
8.29254e-07
-1.94662e-07
1.18755e-06
0.00106113
-6.21595e-10
-0.00106113
1.14181e-09
-1.18618e-06
2.15776e-07
-2.16349e-07
-8.2938e-07
1.93466e-07
-1.94607e-07
8.29207e-07
-2.0287e-07
-2.07642e-07
0.00025924
-1.15463e-06
0.000261175
-0.00025924
2.04233e-07
2.08993e-07
-5.07892e-10
1.10017e-09
0.00106215
-2.13836e-07
1.15471e-06
2.13236e-07
8.29338e-07
-1.97373e-07
1.96203e-07
-8.29504e-07
-6.86778e-10
-0.00106165
1.11214e-09
-1.15326e-06
2.13167e-07
-2.13743e-07
-8.29217e-07
1.96168e-07
8.29139e-07
-1.97291e-07
1.15472e-06
0.00106215
-5.51274e-10
-0.00106215
1.09002e-09
-1.15337e-06
2.13246e-07
-2.13828e-07
-8.29495e-07
1.96211e-07
-1.9736e-07
8.29343e-07
-0.000259253
2.06532e-07
2.11702e-07
1.19141e-06
1.15597e-06
-2.02714e-07
-2.10303e-07
0.000259258
-1.19277e-06
-1.15733e-06
0.000261193
-0.000259258
2.04066e-07
2.11666e-07
1.1507e-09
0.00106122
-2.19079e-07
1.19277e-06
2.18477e-07
8.29186e-07
-1.94604e-07
-8.29347e-07
1.9347e-07
-1.19674e-06
-5.66913e-10
1.14606e-09
0.00106165
-2.21823e-07
1.1981e-06
2.21219e-07
8.34653e-07
-1.97373e-07
-8.34822e-07
1.9621e-07
0.00106122
-5.98314e-10
-0.00106122
1.15997e-09
-1.19141e-06
2.1847e-07
-2.19084e-07
-8.29333e-07
1.93479e-07
-1.94596e-07
8.2919e-07
1.1981e-06
0.00106165
-5.47923e-10
-0.00106165
1.18245e-09
-1.19675e-06
2.21212e-07
-2.21826e-07
-8.34813e-07
1.96209e-07
-1.9736e-07
8.34648e-07
-2.05385e-07
-2.07667e-07
0.000259279
-1.15992e-06
0.000261221
-0.000259279
2.06756e-07
2.0903e-07
1.11848e-09
0.00106225
-2.16515e-07
1.15733e-06
2.15935e-07
8.31937e-07
-1.97364e-07
-8.32053e-07
1.96242e-07
-1.19147e-06
-6.04755e-10
1.16265e-09
0.00106133
-2.21804e-07
1.19282e-06
2.21194e-07
8.31852e-07
-1.97318e-07
-8.3201e-07
1.96184e-07
0.00106225
-6.11895e-10
-0.00106225
1.12548e-09
-1.15597e-06
2.15933e-07
-2.1652e-07
-8.32051e-07
1.96246e-07
-1.9736e-07
8.3193e-07
1.19282e-06
0.00106133
-5.7536e-10
-0.00106133
1.15359e-09
-1.19146e-06
2.21191e-07
-2.21803e-07
-8.32004e-07
1.96185e-07
-1.97311e-07
8.31846e-07
-6.16444e-10
1.15023e-09
0.00106113
-2.16354e-07
1.18755e-06
2.1577e-07
8.29209e-07
-1.94611e-07
1.93465e-07
-8.29379e-07
-6.02552e-10
-0.00106198
1.11696e-09
-1.15854e-06
2.13187e-07
-2.13775e-07
-8.29387e-07
1.93539e-07
8.29247e-07
-1.9466e-07
1.18754e-06
0.00106113
-5.34968e-10
-0.00106113
1.16908e-09
-1.18619e-06
2.15766e-07
-2.16354e-07
-8.29376e-07
1.93463e-07
-1.94604e-07
8.29203e-07
-2.02865e-07
-2.07637e-07
0.00025924
-1.15463e-06
0.000261172
-0.00025924
2.04236e-07
2.11487e-07
-5.46018e-10
1.10322e-09
0.00106215
-2.13831e-07
1.15472e-06
2.13241e-07
8.29344e-07
-1.97365e-07
1.9621e-07
-8.29496e-07
-6.4358e-10
-0.00106165
1.11329e-09
-1.15325e-06
2.13196e-07
-2.13771e-07
-8.2921e-07
1.96185e-07
8.29081e-07
-1.97288e-07
1.15472e-06
0.00106215
-5.85515e-10
-0.00106215
1.13701e-09
-1.15337e-06
2.13243e-07
-2.13824e-07
-8.29478e-07
1.9622e-07
-1.97345e-07
8.29353e-07
-0.000259253
2.0653e-07
2.11697e-07
1.19141e-06
1.15597e-06
-2.02706e-07
-2.10296e-07
0.000259258
-1.19531e-06
-1.15991e-06
0.000261195
-0.000259258
2.06405e-07
2.11585e-07
1.10401e-09
0.00106122
-2.19074e-07
1.19275e-06
2.18469e-07
8.29167e-07
-1.94604e-07
-8.29343e-07
1.93454e-07
-1.19674e-06
-5.34209e-10
1.1102e-09
0.00106165
-2.21814e-07
1.19809e-06
2.21214e-07
8.34636e-07
-1.9736e-07
-8.34807e-07
1.96192e-07
0.00106121
-5.20416e-10
-0.00106121
-4.25933e-09
-1.19368e-06
2.21167e-07
-2.18743e-07
-8.31511e-07
1.95879e-07
-1.96801e-07
8.3163e-07
1.20064e-06
0.00106166
-1.11045e-08
-0.00106165
1.0646e-09
-1.19641e-06
2.21213e-07
-2.21491e-07
-8.31747e-07
1.93271e-07
-1.94253e-07
8.31841e-07
-2.05374e-07
-2.07659e-07
0.000259279
-1.16248e-06
0.000261219
-0.000259276
2.06644e-07
2.13887e-07
1.09576e-09
0.00106224
-2.16513e-07
1.15994e-06
2.18621e-07
8.31924e-07
-1.97361e-07
-8.32042e-07
1.96234e-07
-1.19146e-06
-5.9341e-10
1.11428e-09
0.00106133
-2.21793e-07
1.19281e-06
2.21189e-07
8.31837e-07
-1.9731e-07
-8.31999e-07
1.96171e-07
0.00106225
-6.12291e-10
-0.00106225
1.05003e-09
-1.15828e-06
2.18629e-07
-2.1886e-07
-8.34199e-07
1.95994e-07
-1.96878e-07
8.34394e-07
1.19015e-06
0.00106133
-5.26299e-10
-0.00106133
-4.22056e-09
-1.18853e-06
2.21207e-07
-2.21465e-07
-8.31606e-07
1.95926e-07
-1.96848e-07
8.31735e-07
-5.68241e-10
1.09244e-09
0.00106113
-2.16348e-07
1.18754e-06
2.15766e-07
8.292e-07
-1.94602e-07
1.93459e-07
-8.29366e-07
-5.88569e-09
-0.00106199
1.03636e-09
-1.15823e-06
2.13222e-07
-2.1344e-07
-8.31554e-07
1.95931e-07
8.34316e-07
-1.94197e-07
1.19013e-06
0.00106113
-5.93692e-09
-0.00106113
9.84968e-10
-1.18589e-06
2.185e-07
-2.16016e-07
-8.31547e-07
1.95864e-07
-1.94142e-07
8.31654e-07
-2.0286e-07
-2.1012e-07
0.00025924
-1.1546e-06
0.00026117
-0.000259243
2.06596e-07
2.11368e-07
-5.8887e-10
1.08359e-09
0.00106215
-2.13819e-07
1.15471e-06
2.13238e-07
8.29348e-07
-1.97343e-07
1.96214e-07
-8.29471e-07
-6.14847e-10
-0.00106166
-4.25681e-09
-1.15294e-06
2.13231e-07
-2.13422e-07
-8.28742e-07
1.95925e-07
8.28911e-07
-1.96806e-07
1.15465e-06
0.00106215
-6.14855e-10
-0.00106216
-4.23264e-09
-1.14784e-06
2.13253e-07
-2.10796e-07
-8.26392e-07
1.93293e-07
-1.94203e-07
8.2915e-07
-0.000259258
2.06436e-07
2.14064e-07
1.19077e-06
1.15275e-06
-2.04294e-07
-2.06923e-07
0.000259263
-1.24767e-06
-1.21221e-06
0.000261275
-0.000259287
2.33218e-07
2.38502e-07
1.1739e-09
0.00106122
-2.18423e-07
1.19729e-06
2.20636e-07
8.33287e-07
-1.96006e-07
-8.30912e-07
1.94489e-07
-1.19607e-06
-5.7691e-09
-3.95795e-09
0.00106165
-2.21181e-07
1.19997e-06
2.23334e-07
8.36206e-07
-1.93427e-07
-8.31215e-07
1.97175e-07
0.00106148
-3.21124e-07
-0.00106131
-1.51648e-07
-1.15766e-06
2.50805e-07
-1.9054e-07
-7.84696e-07
2.1082e-07
-1.44501e-07
8.72928e-07
1.2529e-06
0.0010619
-3.21135e-07
-0.00106174
-1.46256e-07
-1.16305e-06
2.50769e-07
-1.90635e-07
-7.92827e-07
2.13485e-07
-1.44581e-07
8.81093e-07
-2.04516e-07
-2.09264e-07
0.000259278
-1.21216e-06
0.000261298
-0.000259307
2.35914e-07
2.38153e-07
-3.98587e-09
0.00106226
-2.15843e-07
1.15661e-06
2.15351e-07
8.33484e-07
-1.96073e-07
-8.31018e-07
1.97254e-07
-1.18561e-06
-1.63819e-08
-4.04029e-09
0.00106134
-2.18415e-07
1.1921e-06
2.2064e-07
8.33428e-07
-1.93355e-07
-8.31024e-07
1.94523e-07
0.00106249
-3.27079e-07
-0.00106233
-1.46148e-07
-1.11965e-06
2.48182e-07
-1.85323e-07
-7.89921e-07
2.13679e-07
-1.44522e-07
8.78415e-07
1.24504e-06
0.00106159
-3.26492e-07
-0.00106142
-1.51564e-07
-1.15513e-06
2.50822e-07
-1.87893e-07
-7.87322e-07
2.13545e-07
-1.47155e-07
8.75699e-07
-1.10527e-08
-4.08089e-09
0.00106113
-2.18383e-07
1.19206e-06
2.20614e-07
8.33349e-07
-1.93322e-07
1.94472e-07
-8.28351e-07
-3.21621e-07
-0.00106207
-1.51226e-07
-1.12223e-06
2.45431e-07
-1.82647e-07
-7.87383e-07
2.10867e-07
8.75682e-07
-1.44537e-07
1.24503e-06
0.00106138
-3.21183e-07
-0.00106122
-1.51653e-07
-1.15246e-06
2.50758e-07
-1.85175e-07
-7.87301e-07
2.13453e-07