/*--------------------------------*- C++ -*----------------------------------*\
| =========                 |                                                 |
| \\      /  F ield         | OpenFOAM: The Open Source CFD Toolbox           |
|  \\    /   O peration     | Version:  2206                                  |
|   \\  /    A nd           | Website:  www.openfoam.com                      |
|    \\/     M anipulation  |                                                 |
\*---------------------------------------------------------------------------*/
FoamFile
{
    version     2.0;
    format      ascii;
    arch        "LSB;label=32;scalar=64";
    class       volScalarField;
    location    "32.5";
    object      epsilon;
}
// * * * * * * * * * * * * * * * * * * * * * * * * * * * * * * * * * * * * * //

dimensions      [0 2 -3 0 0 0 0];

internalField   nonuniform List<scalar> 
28687
(
2.63796e-07
2.92034e-07
2.92045e-07
3.26262e-07
2.63794e-07
2.92037e-07
2.92044e-07
3.26277e-07
2.63795e-07
2.92041e-07
2.92048e-07
3.26285e-07
2.63797e-07
2.92045e-07
2.92052e-07
3.26293e-07
2.63797e-07
2.92048e-07
2.92056e-07
3.263e-07
2.63794e-07
2.9205e-07
2.92057e-07
3.26308e-07
2.63792e-07
2.92052e-07
2.9206e-07
3.26314e-07
2.63776e-07
2.92015e-07
2.92037e-07
3.26299e-07
2.6369e-07
2.91931e-07
2.91946e-07
3.2619e-07
2.63677e-07
2.91925e-07
2.91935e-07
3.26169e-07
2.63677e-07
2.91924e-07
2.91935e-07
3.26177e-07
2.63676e-07
2.91924e-07
2.91934e-07
3.26174e-07
2.63676e-07
2.91924e-07
2.91934e-07
3.26177e-07
2.63676e-07
2.91925e-07
2.91934e-07
3.26174e-07
2.63676e-07
2.91924e-07
2.91934e-07
3.26173e-07
2.63676e-07
2.91924e-07
2.91934e-07
3.26175e-07
2.63676e-07
2.91924e-07
2.91934e-07
3.26175e-07
2.63676e-07
2.91924e-07
2.91934e-07
3.26176e-07
2.92063e-07
3.25981e-07
2.92034e-07
3.26253e-07
3.26001e-07
2.92058e-07
2.92063e-07
2.92057e-07
2.92063e-07
3.26259e-07
3.25996e-07
2.92041e-07
2.9207e-07
2.92041e-07
2.92069e-07
2.92061e-07
2.92037e-07
2.9206e-07
3.26261e-07
3.26008e-07
2.9204e-07
2.92044e-07
2.9204e-07
3.26009e-07
3.26271e-07
3.26008e-07
2.9206e-07
2.92066e-07
2.9206e-07
2.92067e-07
3.26268e-07
3.26003e-07
2.92044e-07
2.92072e-07
2.92044e-07
2.92072e-07
2.92063e-07
2.92041e-07
2.92063e-07
3.26279e-07
3.26016e-07
2.92042e-07
2.92048e-07
2.92042e-07
3.26017e-07
3.2628e-07
3.26014e-07
2.92063e-07
2.9207e-07
2.92065e-07
2.92071e-07
3.26276e-07
3.2601e-07
2.92047e-07
2.92075e-07
2.92048e-07
2.92075e-07
2.92066e-07
2.92044e-07
2.92066e-07
3.26287e-07
3.26023e-07
2.92045e-07
2.92052e-07
2.92046e-07
3.26023e-07
3.26287e-07
3.26023e-07
2.92068e-07
2.92074e-07
2.9207e-07
2.92074e-07
3.26283e-07
3.26018e-07
2.92051e-07
2.92079e-07
2.92053e-07
2.92079e-07
2.92069e-07
2.92048e-07
2.9207e-07
3.26294e-07
3.26031e-07
2.92049e-07
2.92055e-07
2.92049e-07
3.26031e-07
3.26296e-07
3.26033e-07
2.92073e-07
2.92077e-07
2.92074e-07
2.92076e-07
3.2629e-07
3.26026e-07
2.92056e-07
2.92082e-07
2.92056e-07
2.92083e-07
2.92073e-07
2.9205e-07
2.92073e-07
3.26303e-07
3.2604e-07
2.92052e-07
2.92057e-07
2.92053e-07
3.26039e-07
3.26305e-07
3.26038e-07
2.92077e-07
2.92077e-07
2.92076e-07
2.92076e-07
3.26298e-07
3.26031e-07
2.92058e-07
2.92085e-07
2.92056e-07
2.92084e-07
2.92075e-07
2.92052e-07
2.92074e-07
3.26311e-07
3.26045e-07
2.92055e-07
2.92059e-07
2.92054e-07
3.26045e-07
3.2631e-07
3.2603e-07
2.92078e-07
2.92078e-07
2.92069e-07
2.92063e-07
3.26303e-07
3.26013e-07
2.92058e-07
2.92085e-07
2.92051e-07
2.92078e-07
2.92076e-07
2.92038e-07
2.92068e-07
3.26316e-07
3.26038e-07
2.92055e-07
2.92053e-07
2.92047e-07
3.26037e-07
3.26296e-07
3.2593e-07
2.92053e-07
2.9204e-07
2.91979e-07
2.9197e-07
3.26274e-07
3.25901e-07
2.92036e-07
2.92063e-07
2.91961e-07
2.91988e-07
2.92053e-07
2.91944e-07
2.91978e-07
3.26303e-07
3.25936e-07
2.92032e-07
2.91963e-07
2.91958e-07
3.25935e-07
3.26188e-07
3.2589e-07
2.91962e-07
2.9196e-07
2.91949e-07
2.91953e-07
3.26162e-07
3.25883e-07
2.91945e-07
2.91973e-07
2.91932e-07
2.9196e-07
2.91963e-07
2.91925e-07
2.91951e-07
3.26193e-07
3.25897e-07
2.91943e-07
2.91935e-07
2.91931e-07
3.25898e-07
3.26165e-07
3.25903e-07
2.9195e-07
2.91956e-07
2.91948e-07
2.91953e-07
3.26158e-07
3.2589e-07
2.91934e-07
2.91962e-07
2.91932e-07
2.91961e-07
2.91953e-07
2.91925e-07
2.91951e-07
3.26171e-07
3.2591e-07
2.91933e-07
2.91935e-07
2.91931e-07
3.2591e-07
3.26173e-07
3.25898e-07
2.91949e-07
2.91954e-07
2.91947e-07
2.91952e-07
3.2616e-07
3.25889e-07
2.91933e-07
2.91962e-07
2.9193e-07
2.91959e-07
2.91952e-07
2.91924e-07
2.9195e-07
3.26179e-07
3.25906e-07
2.91932e-07
2.91934e-07
2.91931e-07
3.25906e-07
3.2617e-07
3.25899e-07
2.91948e-07
2.91953e-07
2.91946e-07
2.91952e-07
3.2616e-07
3.25891e-07
2.91932e-07
2.91961e-07
2.9193e-07
2.91959e-07
2.91952e-07
2.91924e-07
2.9195e-07
3.26176e-07
3.25907e-07
2.91934e-07
2.91934e-07
2.91933e-07
3.25908e-07
3.26171e-07
3.25895e-07
2.91948e-07
2.91954e-07
2.91946e-07
2.91952e-07
3.26163e-07
3.25888e-07
2.91931e-07
2.91961e-07
2.9193e-07
2.91959e-07
2.91952e-07
2.91925e-07
2.9195e-07
3.26178e-07
3.25904e-07
2.91936e-07
2.91934e-07
2.91934e-07
3.25905e-07
3.26168e-07
3.25897e-07
2.91948e-07
2.91954e-07
2.91946e-07
2.91952e-07
3.26161e-07
3.25887e-07
2.91932e-07
2.91961e-07
2.9193e-07
2.91959e-07
2.91953e-07
2.91924e-07
2.9195e-07
3.26175e-07
3.25905e-07
2.91935e-07
2.91934e-07
2.91933e-07
3.25906e-07
3.26167e-07
3.25898e-07
2.91947e-07
2.91954e-07
2.91946e-07
2.91952e-07
3.26159e-07
3.25889e-07
2.91931e-07
2.91961e-07
2.9193e-07
2.91959e-07
2.91952e-07
2.91924e-07
2.9195e-07
3.26175e-07
3.25907e-07
2.91935e-07
2.91934e-07
2.91933e-07
3.25908e-07
3.26169e-07
3.25898e-07
2.91947e-07
2.91953e-07
2.91946e-07
2.91952e-07
3.2616e-07
3.25891e-07
2.91932e-07
2.91961e-07
2.9193e-07
2.91959e-07
2.91952e-07
2.91924e-07
2.9195e-07
3.26176e-07
3.25908e-07
2.91935e-07
2.91934e-07
2.91933e-07
3.25908e-07
3.26169e-07
3.25898e-07
2.91948e-07
2.91954e-07
2.91946e-07
2.91952e-07
3.26161e-07
3.25891e-07
2.91931e-07
2.91961e-07
2.9193e-07
2.91959e-07
2.91952e-07
2.91924e-07
2.9195e-07
3.26178e-07
3.25907e-07
2.91935e-07
2.91934e-07
2.91933e-07
3.25908e-07
3.2617e-07
2.91947e-07
2.91953e-07
3.26162e-07
2.91931e-07
2.91961e-07
2.91952e-07
3.26177e-07
2.91934e-07
1.78803e-06
8.89004e-06
1.78851e-06
8.88954e-06
2.16619e-05
2.16608e-05
1.78794e-06
8.89131e-06
1.78836e-06
8.89076e-06
2.63798e-07
2.638e-07
2.63797e-07
2.63794e-07
2.63797e-07
2.63799e-07
2.63797e-07
5.47998e-07
1.42829e-06
2.73577e-07
2.92036e-07
5.48157e-07
1.42751e-06
2.73577e-07
2.16626e-05
2.16614e-05
5.48e-07
2.73578e-07
1.42817e-06
2.92045e-07
5.48159e-07
2.73578e-07
1.42745e-06
3.14389e-06
3.14475e-06
3.26007e-07
3.14343e-06
3.14432e-06
1.7882e-06
8.88973e-06
1.78875e-06
8.88935e-06
2.16595e-05
2.16592e-05
1.78812e-06
8.89094e-06
1.7886e-06
8.8905e-06
2.63797e-07
2.63799e-07
2.63796e-07
2.63795e-07
2.63796e-07
2.63798e-07
2.63795e-07
5.48033e-07
1.42846e-06
2.73575e-07
2.9204e-07
5.48186e-07
1.42764e-06
2.73578e-07
2.16603e-05
2.16596e-05
5.48034e-07
2.73575e-07
1.42836e-06
2.92047e-07
5.48189e-07
2.73577e-07
1.4276e-06
3.14422e-06
3.14508e-06
3.26011e-07
3.14374e-06
3.14462e-06
1.78828e-06
8.88965e-06
1.78885e-06
8.88925e-06
2.16587e-05
2.16588e-05
1.78819e-06
8.89078e-06
1.78871e-06
8.89034e-06
2.63798e-07
2.638e-07
2.63797e-07
2.63797e-07
2.63797e-07
2.63799e-07
2.63797e-07
5.48062e-07
1.42853e-06
2.73577e-07
2.92044e-07
5.4822e-07
1.42769e-06
2.7358e-07
2.16592e-05
2.16589e-05
5.48063e-07
2.73577e-07
1.42846e-06
2.92051e-07
5.48222e-07
2.73579e-07
1.42767e-06
3.1444e-06
3.14526e-06
3.26018e-07
3.14384e-06
3.14471e-06
1.7883e-06
8.88957e-06
1.78889e-06
8.8892e-06
2.16588e-05
2.16589e-05
1.7882e-06
8.89067e-06
1.78874e-06
8.89028e-06
2.63799e-07
2.63801e-07
2.63799e-07
2.63798e-07
2.63798e-07
2.63799e-07
2.63796e-07
5.48082e-07
1.42857e-06
2.73579e-07
2.92048e-07
5.48243e-07
1.42773e-06
2.73582e-07
2.16589e-05
2.16587e-05
5.4808e-07
2.73578e-07
1.42849e-06
2.92055e-07
5.48244e-07
2.7358e-07
1.42769e-06
3.14443e-06
3.1453e-06
3.26027e-07
3.14389e-06
3.14477e-06
1.78828e-06
8.88955e-06
1.78888e-06
8.88921e-06
2.16592e-05
2.16596e-05
1.78818e-06
8.89069e-06
1.78872e-06
8.89033e-06
2.63798e-07
2.638e-07
2.63798e-07
2.63795e-07
2.63796e-07
2.63799e-07
2.63797e-07
5.48092e-07
1.42858e-06
2.73581e-07
2.92051e-07
5.48255e-07
1.42774e-06
2.73583e-07
2.16592e-05
2.16592e-05
5.48089e-07
2.73579e-07
1.42851e-06
2.92058e-07
5.48252e-07
2.73581e-07
1.42771e-06
3.14452e-06
3.1454e-06
3.26034e-07
3.14399e-06
3.14487e-06
1.78829e-06
8.88962e-06
1.78886e-06
8.88931e-06
2.16598e-05
2.16595e-05
1.78818e-06
8.89079e-06
1.7887e-06
8.89046e-06
2.63795e-07
2.63799e-07
2.63797e-07
2.63792e-07
2.63792e-07
2.63796e-07
2.63792e-07
5.48102e-07
1.42858e-06
2.73578e-07
2.92052e-07
5.48264e-07
1.42775e-06
2.73579e-07
2.16598e-05
2.166e-05
5.481e-07
2.7358e-07
1.42852e-06
2.9206e-07
5.48263e-07
2.73582e-07
1.42771e-06
3.14459e-06
3.14546e-06
3.26042e-07
3.144e-06
3.14488e-06
1.78838e-06
8.88986e-06
1.78888e-06
8.88974e-06
2.16595e-05
2.16597e-05
1.78828e-06
8.8911e-06
1.78872e-06
8.89091e-06
2.63792e-07
2.63795e-07
2.63792e-07
2.63786e-07
2.63784e-07
2.63789e-07
2.63786e-07
5.48108e-07
1.42866e-06
2.73577e-07
2.92051e-07
5.48271e-07
1.42786e-06
2.73577e-07
2.16607e-05
2.16603e-05
5.48107e-07
2.73579e-07
1.42855e-06
2.9206e-07
5.48269e-07
2.73579e-07
1.4278e-06
3.1446e-06
3.14547e-06
3.26045e-07
3.14411e-06
3.14499e-06
1.78838e-06
8.89026e-06
1.78907e-06
8.88993e-06
2.16592e-05
2.16589e-05
1.78828e-06
8.89143e-06
1.78892e-06
8.89102e-06
2.6377e-07
2.63779e-07
2.63777e-07
2.63706e-07
2.637e-07
2.63708e-07
2.63706e-07
5.48028e-07
1.42869e-06
2.73555e-07
2.9199e-07
5.4825e-07
1.42775e-06
2.73533e-07
2.16596e-05
2.16591e-05
5.4803e-07
2.73561e-07
1.42863e-06
2.92013e-07
5.48252e-07
2.7354e-07
1.42775e-06
3.14471e-06
3.14558e-06
3.25999e-07
3.14406e-06
3.14494e-06
1.78813e-06
8.89018e-06
1.7888e-06
8.88977e-06
2.16584e-05
2.16581e-05
1.78803e-06
8.89126e-06
1.78864e-06
8.89095e-06
2.63688e-07
2.63694e-07
2.63692e-07
2.63677e-07
2.63678e-07
2.63681e-07
2.63679e-07
5.47922e-07
1.42847e-06
2.73471e-07
2.91928e-07
5.48113e-07
1.42758e-06
2.73465e-07
2.1659e-05
2.16587e-05
5.47926e-07
2.73474e-07
1.42843e-06
2.9194e-07
5.48118e-07
2.73469e-07
1.42757e-06
3.14445e-06
3.14532e-06
3.25897e-07
3.14381e-06
3.14468e-06
1.78808e-06
8.88996e-06
1.78868e-06
8.88949e-06
2.16582e-05
2.16582e-05
1.78798e-06
8.89138e-06
1.78853e-06
8.89108e-06
2.6368e-07
2.63683e-07
2.63681e-07
2.63677e-07
2.63678e-07
2.63682e-07
2.63679e-07
5.47907e-07
1.4284e-06
2.73461e-07
2.91927e-07
5.48074e-07
1.42754e-06
2.73463e-07
2.16589e-05
2.16587e-05
5.47908e-07
2.73463e-07
1.42834e-06
2.91937e-07
5.48077e-07
2.73465e-07
1.42753e-06
3.14432e-06
3.14519e-06
3.2591e-07
3.14374e-06
3.14462e-06
1.78807e-06
8.88978e-06
1.78867e-06
8.88935e-06
2.16582e-05
2.16583e-05
1.78797e-06
8.89151e-06
1.78852e-06
8.89118e-06
2.63679e-07
2.63683e-07
2.63681e-07
2.63676e-07
2.63678e-07
2.63681e-07
2.63679e-07
5.47906e-07
1.42839e-06
2.7346e-07
2.91926e-07
5.48074e-07
1.42754e-06
2.73462e-07
2.16589e-05
2.16587e-05
5.47907e-07
2.73463e-07
1.42833e-06
2.91936e-07
5.48075e-07
2.73464e-07
1.42752e-06
3.14431e-06
3.14518e-06
3.25906e-07
3.14374e-06
3.14461e-06
1.78807e-06
8.88968e-06
1.78867e-06
8.88927e-06
2.16583e-05
2.16583e-05
1.78797e-06
8.89158e-06
1.78851e-06
8.89124e-06
2.63679e-07
2.63683e-07
2.63681e-07
2.63676e-07
2.63678e-07
2.63681e-07
2.63679e-07
5.47904e-07
1.42839e-06
2.7346e-07
2.91926e-07
5.48072e-07
1.42754e-06
2.73462e-07
2.16589e-05
2.16587e-05
5.47905e-07
2.73462e-07
1.42833e-06
2.91936e-07
5.48073e-07
2.73464e-07
1.42752e-06
3.14431e-06
3.14518e-06
3.25905e-07
3.14374e-06
3.14462e-06
1.78807e-06
8.88962e-06
1.78867e-06
8.88922e-06
2.16583e-05
2.16584e-05
1.78797e-06
8.89163e-06
1.78851e-06
8.89128e-06
2.63679e-07
2.63683e-07
2.63681e-07
2.63676e-07
2.63678e-07
2.63681e-07
2.63679e-07
5.47905e-07
1.42839e-06
2.7346e-07
2.91926e-07
5.48072e-07
1.42754e-06
2.73462e-07
2.16589e-05
2.16587e-05
5.47907e-07
2.73463e-07
1.42833e-06
2.91936e-07
5.48074e-07
2.73464e-07
1.42752e-06
3.14431e-06
3.14518e-06
3.25908e-07
3.14374e-06
3.14462e-06
1.78807e-06
8.88958e-06
1.78867e-06
8.88919e-06
2.16584e-05
2.16584e-05
1.78797e-06
8.89165e-06
1.78851e-06
8.8913e-06
2.63679e-07
2.63683e-07
2.63681e-07
2.63676e-07
2.63678e-07
2.63681e-07
2.63679e-07
5.47906e-07
1.42839e-06
2.7346e-07
2.91926e-07
5.48073e-07
1.42754e-06
2.73462e-07
2.16589e-05
2.16587e-05
5.47908e-07
2.73463e-07
1.42833e-06
2.91936e-07
5.48075e-07
2.73464e-07
1.42752e-06
3.14431e-06
3.14518e-06
3.2591e-07
3.14374e-06
3.14462e-06
1.78807e-06
8.88955e-06
1.78867e-06
8.88916e-06
2.16584e-05
2.16585e-05
1.78797e-06
8.89166e-06
1.78851e-06
8.89131e-06
2.63679e-07
2.63683e-07
2.63681e-07
2.63676e-07
2.63678e-07
2.63681e-07
2.63679e-07
5.47906e-07
1.42839e-06
2.7346e-07
2.91926e-07
5.48073e-07
1.42754e-06
2.73462e-07
2.16589e-05
2.16587e-05
5.47909e-07
2.73462e-07
1.42833e-06
2.91936e-07
5.48075e-07
2.73464e-07
1.42752e-06
3.14431e-06
3.14518e-06
3.25907e-07
3.14374e-06
3.14462e-06
1.78807e-06
8.88954e-06
1.78867e-06
8.88915e-06
2.16584e-05
2.16585e-05
1.78797e-06
8.89167e-06
1.78851e-06
8.89131e-06
2.63679e-07
2.63683e-07
2.63681e-07
2.63676e-07
2.63678e-07
2.63681e-07
2.63679e-07
5.47906e-07
1.42839e-06
2.7346e-07
2.91926e-07
5.48073e-07
1.42754e-06
2.73462e-07
2.16589e-05
2.16587e-05
5.4791e-07
2.73463e-07
1.42833e-06
2.91936e-07
5.48077e-07
2.73464e-07
1.42752e-06
3.14431e-06
3.14518e-06
3.25906e-07
3.14374e-06
3.14462e-06
1.78807e-06
8.88953e-06
1.78867e-06
8.88914e-06
2.16584e-05
2.16585e-05
1.78797e-06
8.89167e-06
1.78851e-06
8.89132e-06
2.63679e-07
2.63683e-07
2.63681e-07
2.63676e-07
2.63678e-07
2.63681e-07
2.63679e-07
5.47905e-07
1.42839e-06
2.7346e-07
2.91926e-07
5.48072e-07
1.42754e-06
2.73462e-07
2.16589e-05
2.16587e-05
5.47909e-07
2.73463e-07
1.42833e-06
2.91936e-07
5.48076e-07
2.73464e-07
1.42752e-06
3.14431e-06
3.14518e-06
3.25906e-07
3.14374e-06
3.14461e-06
1.78807e-06
8.88953e-06
1.78867e-06
8.88915e-06
2.16584e-05
2.16585e-05
1.78797e-06
8.89167e-06
1.78851e-06
8.89132e-06
2.63679e-07
2.63682e-07
2.6368e-07
5.47906e-07
1.42839e-06
2.7346e-07
2.91925e-07
5.48072e-07
1.42754e-06
2.73462e-07
2.16589e-05
2.16587e-05
5.47911e-07
2.73463e-07
1.42833e-06
2.91936e-07
5.48076e-07
2.73465e-07
1.42752e-06
3.14431e-06
3.14518e-06
3.25906e-07
3.14374e-06
3.14475e-06
8.89059e-06
1.42752e-06
2.16624e-05
3.1439e-06
3.14303e-06
2.16596e-05
1.42741e-06
8.88996e-06
2.16618e-05
2.16606e-05
2.16632e-05
2.16623e-05
3.14375e-06
3.14466e-06
3.25998e-07
3.14332e-06
3.14428e-06
2.16593e-05
2.16604e-05
2.1661e-05
2.16618e-05
3.2627e-07
3.1435e-06
3.14443e-06
3.14389e-06
3.14485e-06
1.78805e-06
8.89089e-06
1.78853e-06
8.89039e-06
5.47994e-07
1.42811e-06
2.73575e-07
2.92058e-07
5.48153e-07
1.42738e-06
2.73575e-07
5.47998e-07
1.42836e-06
2.73578e-07
2.92064e-07
5.48157e-07
1.42762e-06
2.73578e-07
1.78864e-06
8.88939e-06
8.88985e-06
1.78813e-06
1.78867e-06
8.89027e-06
8.89071e-06
1.78815e-06
5.4817e-07
2.92057e-07
1.42746e-06
2.73575e-07
1.42821e-06
2.73575e-07
5.48011e-07
5.48174e-07
2.92063e-07
1.4277e-06
2.73577e-07
1.42846e-06
2.73577e-07
5.48015e-07
3.14453e-06
3.14379e-06
3.25996e-07
3.1442e-06
3.14344e-06
2.16596e-05
2.16583e-05
2.16598e-05
2.16606e-05
3.26268e-07
3.14441e-06
3.14358e-06
3.1448e-06
3.14411e-06
2.16574e-05
2.16584e-05
5.4801e-07
1.42853e-06
2.73577e-07
2.92041e-07
5.48167e-07
1.42777e-06
2.73578e-07
1.78792e-06
8.89102e-06
1.78834e-06
8.89048e-06
5.48005e-07
2.73581e-07
1.42851e-06
2.9207e-07
5.48163e-07
2.73581e-07
1.42775e-06
1.7885e-06
8.89059e-06
8.8911e-06
1.78805e-06
5.48184e-07
2.92041e-07
1.42785e-06
2.73576e-07
1.42863e-06
2.73576e-07
5.48027e-07
1.78848e-06
8.89033e-06
8.89082e-06
1.78802e-06
5.4818e-07
2.92069e-07
2.7358e-07
1.42783e-06
2.7358e-07
1.42862e-06
5.48022e-07
1.78807e-06
8.8903e-06
1.78854e-06
8.88978e-06
5.48003e-07
2.73577e-07
1.42818e-06
2.92061e-07
5.4816e-07
2.73577e-07
1.42745e-06
1.78806e-06
8.89104e-06
1.78854e-06
8.89052e-06
5.48173e-07
2.92037e-07
1.42759e-06
2.73575e-07
1.42838e-06
2.73575e-07
5.48015e-07
1.78868e-06
8.88967e-06
8.89013e-06
1.78817e-06
5.48177e-07
2.9206e-07
2.73576e-07
1.42754e-06
2.73576e-07
1.42828e-06
5.4802e-07
1.78868e-06
8.89037e-06
8.89084e-06
1.78817e-06
3.14464e-06
3.14385e-06
3.26006e-07
3.14412e-06
3.14342e-06
2.16628e-05
2.16617e-05
2.16603e-05
2.16614e-05
3.26278e-07
3.14437e-06
3.14358e-06
3.14481e-06
3.14399e-06
2.16604e-05
2.16614e-05
5.47999e-07
2.73576e-07
1.42836e-06
2.9204e-07
5.48157e-07
2.73576e-07
1.42762e-06
1.78792e-06
8.89119e-06
1.78834e-06
8.89067e-06
1.78793e-06
8.89182e-06
1.78835e-06
8.8913e-06
5.48175e-07
2.92044e-07
2.73575e-07
1.42753e-06
2.73576e-07
1.42827e-06
5.48017e-07
5.48174e-07
2.92039e-07
2.73575e-07
1.42771e-06
2.73575e-07
1.42846e-06
5.48016e-07
1.78848e-06
8.89051e-06
8.89098e-06
1.78803e-06
1.78849e-06
8.89115e-06
8.89162e-06
1.78803e-06
2.1663e-05
2.16619e-05
2.16635e-05
2.16624e-05
3.26279e-07
3.14361e-06
3.14449e-06
3.14401e-06
3.14489e-06
2.16606e-05
2.16616e-05
2.16611e-05
2.16621e-05
2.16591e-05
2.16586e-05
2.16607e-05
2.16602e-05
3.14407e-06
3.14499e-06
3.26002e-07
3.14367e-06
3.14455e-06
2.16582e-05
2.16584e-05
2.16597e-05
2.166e-05
3.26275e-07
3.14374e-06
3.1446e-06
3.14422e-06
3.1451e-06
1.78823e-06
8.89062e-06
1.78876e-06
8.89021e-06
5.48028e-07
1.42829e-06
2.73577e-07
2.9206e-07
5.48187e-07
1.42753e-06
2.73577e-07
5.48032e-07
1.42853e-06
2.73579e-07
2.92066e-07
5.48191e-07
1.42776e-06
2.73579e-07
1.7888e-06
8.88931e-06
8.8897e-06
1.78825e-06
1.78883e-06
8.89013e-06
8.89055e-06
1.78827e-06
5.48204e-07
2.92059e-07
1.42756e-06
2.73577e-07
1.42836e-06
2.73576e-07
5.48044e-07
5.48209e-07
2.92066e-07
1.42779e-06
2.73579e-07
1.42858e-06
2.73578e-07
5.48049e-07
3.14498e-06
3.1442e-06
3.25998e-07
3.14453e-06
3.14358e-06
2.16575e-05
2.16568e-05
2.16588e-05
2.1659e-05
3.26271e-07
3.14459e-06
3.14359e-06
3.14509e-06
3.14419e-06
2.16564e-05
2.16569e-05
5.48045e-07
1.42871e-06
2.73579e-07
2.92044e-07
5.48201e-07
1.42791e-06
2.73579e-07
1.7881e-06
8.8907e-06
1.78858e-06
8.89027e-06
5.4804e-07
2.73582e-07
1.4287e-06
2.92072e-07
5.48197e-07
2.73582e-07
1.4279e-06
1.78866e-06
8.89042e-06
8.89086e-06
1.78817e-06
5.48218e-07
2.92043e-07
1.42795e-06
2.73578e-07
1.42877e-06
2.73577e-07
5.48061e-07
1.78864e-06
8.89021e-06
8.89065e-06
1.78815e-06
5.48214e-07
2.92071e-07
2.73581e-07
1.42794e-06
2.73581e-07
1.42876e-06
5.48056e-07
1.78825e-06
8.89005e-06
1.78878e-06
8.8896e-06
5.48038e-07
2.73578e-07
1.42836e-06
2.92063e-07
5.48194e-07
2.73578e-07
1.4276e-06
1.78824e-06
8.89071e-06
1.78877e-06
8.89029e-06
5.48208e-07
2.9204e-07
1.42767e-06
2.73577e-07
1.42849e-06
2.73577e-07
5.4805e-07
1.78884e-06
8.8895e-06
8.88997e-06
1.78829e-06
5.48212e-07
2.92062e-07
2.73578e-07
1.42765e-06
2.73577e-07
1.42842e-06
5.48054e-07
1.78884e-06
8.89023e-06
8.89064e-06
1.78829e-06
3.14503e-06
3.14415e-06
3.26011e-07
3.14452e-06
3.14371e-06
2.16602e-05
2.16596e-05
2.16592e-05
2.16597e-05
3.26282e-07
3.14459e-06
3.14379e-06
3.14515e-06
3.14426e-06
2.16592e-05
2.16595e-05
5.48033e-07
2.73577e-07
1.42854e-06
2.92042e-07
5.48191e-07
2.73577e-07
1.42777e-06
1.7881e-06
8.89085e-06
1.78858e-06
8.89044e-06
1.78811e-06
8.89149e-06
1.78859e-06
8.89107e-06
5.4821e-07
2.92047e-07
2.73577e-07
1.42764e-06
2.73577e-07
1.42841e-06
5.48051e-07
5.48209e-07
2.92042e-07
2.73577e-07
1.42782e-06
2.73576e-07
1.4286e-06
5.48049e-07
1.78864e-06
8.89037e-06
8.89078e-06
1.78815e-06
1.78865e-06
8.89101e-06
8.89142e-06
1.78815e-06
2.16603e-05
2.16598e-05
2.16609e-05
2.16603e-05
3.26283e-07
3.14382e-06
3.14469e-06
3.1443e-06
3.14517e-06
2.16594e-05
2.16596e-05
2.16599e-05
2.16602e-05
2.16581e-05
2.16579e-05
2.16595e-05
2.16595e-05
3.14427e-06
3.14514e-06
3.26011e-07
3.14374e-06
3.14461e-06
2.16579e-05
2.16579e-05
2.16594e-05
2.16594e-05
3.26283e-07
3.14374e-06
3.14463e-06
3.14426e-06
3.14514e-06
1.7883e-06
8.89047e-06
1.78887e-06
8.89007e-06
5.48057e-07
1.42839e-06
2.73579e-07
2.92063e-07
5.4822e-07
1.42758e-06
2.73579e-07
5.48062e-07
1.42861e-06
2.73581e-07
2.9207e-07
5.48224e-07
1.42781e-06
2.73581e-07
1.78887e-06
8.88921e-06
8.88959e-06
1.7883e-06
1.78889e-06
8.89005e-06
8.89042e-06
1.78832e-06
5.48232e-07
2.92064e-07
1.4276e-06
2.73579e-07
1.42841e-06
2.73579e-07
5.48071e-07
5.48237e-07
2.9207e-07
1.42783e-06
2.73581e-07
1.42863e-06
2.73581e-07
5.48075e-07
3.14514e-06
3.14422e-06
3.26006e-07
3.14464e-06
3.14365e-06
2.16566e-05
2.16562e-05
2.16588e-05
2.16588e-05
3.26279e-07
3.14471e-06
3.14372e-06
3.14521e-06
3.14429e-06
2.16562e-05
2.16564e-05
5.48073e-07
1.4288e-06
2.7358e-07
2.92047e-07
5.48233e-07
1.42798e-06
2.7358e-07
1.78817e-06
8.89058e-06
1.78868e-06
8.89013e-06
5.48069e-07
2.73584e-07
1.4288e-06
2.92075e-07
5.48229e-07
2.73584e-07
1.42797e-06
1.78872e-06
8.89029e-06
8.89071e-06
1.7882e-06
5.48246e-07
2.92048e-07
1.42799e-06
2.73579e-07
1.42882e-06
2.73579e-07
5.48086e-07
1.78871e-06
8.89007e-06
8.8905e-06
1.78819e-06
5.48242e-07
2.92075e-07
2.73583e-07
1.42798e-06
2.73583e-07
1.42882e-06
5.48082e-07
1.78832e-06
8.88987e-06
1.78888e-06
8.88943e-06
5.48067e-07
2.73581e-07
1.42846e-06
2.92066e-07
5.48227e-07
2.73581e-07
1.42767e-06
1.78831e-06
8.89057e-06
1.78888e-06
8.89014e-06
5.48236e-07
2.92044e-07
1.42771e-06
2.73579e-07
1.42854e-06
2.7358e-07
5.48074e-07
1.78891e-06
8.8894e-06
8.88981e-06
1.78834e-06
5.48239e-07
2.92066e-07
2.7358e-07
1.42768e-06
2.7358e-07
1.42848e-06
5.48079e-07
1.7889e-06
8.89009e-06
8.89049e-06
1.78833e-06
3.14521e-06
3.14432e-06
3.26019e-07
3.14463e-06
3.1438e-06
2.16591e-05
2.1659e-05
2.16587e-05
2.1659e-05
3.2629e-07
3.14467e-06
3.14382e-06
3.14526e-06
3.14433e-06
2.16589e-05
2.1659e-05
5.48062e-07
2.73579e-07
1.42864e-06
2.92045e-07
5.48224e-07
2.73579e-07
1.42784e-06
1.78817e-06
8.89071e-06
1.78868e-06
8.89028e-06
1.78818e-06
8.89135e-06
1.78869e-06
8.89092e-06
5.48237e-07
2.92051e-07
2.73579e-07
1.42768e-06
2.73579e-07
1.42847e-06
5.48074e-07
5.48237e-07
2.92045e-07
2.73578e-07
1.42785e-06
2.73578e-07
1.42866e-06
5.48075e-07
1.78871e-06
8.89023e-06
8.89063e-06
1.78818e-06
1.78871e-06
8.89086e-06
8.89126e-06
1.78819e-06
2.16593e-05
2.16591e-05
2.16598e-05
2.16597e-05
3.2629e-07
3.14385e-06
3.14473e-06
3.14437e-06
3.14524e-06
2.16591e-05
2.16591e-05
2.16596e-05
2.16597e-05
2.1658e-05
2.1658e-05
2.16594e-05
2.16595e-05
3.14427e-06
3.14516e-06
3.26019e-07
3.14378e-06
3.14467e-06
2.16581e-05
2.16581e-05
2.16597e-05
2.16595e-05
3.26292e-07
3.14384e-06
3.14473e-06
3.14432e-06
3.14521e-06
1.78832e-06
8.89041e-06
1.7889e-06
8.89005e-06
5.48081e-07
1.42842e-06
2.73582e-07
2.92069e-07
5.48245e-07
1.42761e-06
2.73582e-07
5.48085e-07
1.42864e-06
2.73584e-07
2.92074e-07
5.4825e-07
1.42783e-06
2.73584e-07
1.78888e-06
8.88919e-06
8.88955e-06
1.7883e-06
1.7889e-06
8.89007e-06
8.89041e-06
1.78831e-06
5.48254e-07
2.92069e-07
1.42762e-06
2.73581e-07
1.42843e-06
2.73581e-07
5.48087e-07
5.48259e-07
2.92074e-07
1.42784e-06
2.73583e-07
1.42865e-06
2.73583e-07
5.48092e-07
3.14526e-06
3.14435e-06
3.26014e-07
3.14475e-06
3.14378e-06
2.16564e-05
2.16563e-05
2.16592e-05
2.1659e-05
3.26286e-07
3.14476e-06
3.14384e-06
3.14527e-06
3.14441e-06
2.16565e-05
2.16566e-05
5.48094e-07
1.42883e-06
2.73582e-07
2.92051e-07
5.48258e-07
1.428e-06
2.73582e-07
1.78818e-06
8.89045e-06
1.78872e-06
8.89004e-06
5.4809e-07
2.73586e-07
1.42884e-06
2.92079e-07
5.48254e-07
2.73586e-07
1.428e-06
1.78873e-06
8.8903e-06
8.89067e-06
1.78819e-06
5.48265e-07
2.92052e-07
1.42801e-06
2.73581e-07
1.42884e-06
2.73581e-07
5.48099e-07
1.78871e-06
8.89005e-06
8.89043e-06
1.78817e-06
5.48261e-07
2.92079e-07
2.73585e-07
1.42801e-06
2.73585e-07
1.42885e-06
5.48094e-07
1.78834e-06
8.88979e-06
1.78892e-06
8.8894e-06
5.48088e-07
2.73583e-07
1.42849e-06
2.92069e-07
5.48251e-07
2.73583e-07
1.42769e-06
1.78833e-06
8.89044e-06
1.78891e-06
8.89007e-06
5.48254e-07
2.92048e-07
1.42773e-06
2.73581e-07
1.42857e-06
2.73581e-07
5.48087e-07
1.78892e-06
8.88943e-06
8.8898e-06
1.78833e-06
5.48259e-07
2.92069e-07
2.73582e-07
1.4277e-06
2.73582e-07
1.4285e-06
5.48093e-07
1.78891e-06
8.89009e-06
8.89044e-06
1.78832e-06
3.14529e-06
3.14435e-06
3.26027e-07
3.14472e-06
3.14386e-06
2.1659e-05
2.1659e-05
2.1659e-05
2.1659e-05
3.26298e-07
3.14477e-06
3.14391e-06
3.14534e-06
3.14439e-06
2.16592e-05
2.16591e-05
5.48082e-07
2.73581e-07
1.42867e-06
2.92049e-07
5.48248e-07
2.73581e-07
1.42787e-06
1.78818e-06
8.89059e-06
1.78871e-06
8.89022e-06
1.78819e-06
8.89122e-06
1.78872e-06
8.89085e-06
5.48252e-07
2.92055e-07
2.73579e-07
1.4277e-06
2.7358e-07
1.42849e-06
5.48084e-07
5.48254e-07
2.92049e-07
2.7358e-07
1.42788e-06
2.7358e-07
1.42868e-06
5.48086e-07
1.7887e-06
8.89023e-06
8.89058e-06
1.78817e-06
1.78871e-06
8.89086e-06
8.89121e-06
1.78818e-06
2.16592e-05
2.16592e-05
2.16597e-05
2.16597e-05
3.26298e-07
3.14394e-06
3.14483e-06
3.14443e-06
3.1453e-06
2.16593e-05
2.16593e-05
2.16599e-05
2.16598e-05
2.16582e-05
2.16583e-05
2.16597e-05
2.16599e-05
3.14437e-06
3.14527e-06
3.26028e-07
3.14389e-06
3.14479e-06
2.16587e-05
2.16585e-05
2.16602e-05
2.16599e-05
3.26301e-07
3.1439e-06
3.14482e-06
3.14442e-06
3.14532e-06
1.78831e-06
8.89044e-06
1.78889e-06
8.89012e-06
5.48093e-07
1.42843e-06
2.73584e-07
2.92074e-07
5.4826e-07
1.42763e-06
2.73584e-07
5.48098e-07
1.42865e-06
2.73585e-07
2.92077e-07
5.48265e-07
1.42784e-06
2.73585e-07
1.78887e-06
8.88925e-06
8.88958e-06
1.78827e-06
1.78889e-06
8.89017e-06
8.8905e-06
1.78829e-06
5.48266e-07
2.92074e-07
1.42763e-06
2.7358e-07
1.42844e-06
2.73582e-07
5.48099e-07
5.48272e-07
2.92076e-07
1.42783e-06
2.73581e-07
1.42866e-06
2.73582e-07
5.48104e-07
3.14528e-06
3.14446e-06
3.26022e-07
3.14476e-06
3.14388e-06
2.16568e-05
2.16569e-05
2.16597e-05
2.16596e-05
3.26294e-07
3.14475e-06
3.14389e-06
3.14529e-06
3.14449e-06
2.16572e-05
2.16571e-05
5.48105e-07
1.42886e-06
2.73584e-07
2.92056e-07
5.48269e-07
1.42802e-06
2.73584e-07
1.78816e-06
8.89045e-06
1.78869e-06
8.89008e-06
5.481e-07
2.73588e-07
1.42886e-06
2.92083e-07
5.48266e-07
2.73588e-07
1.42802e-06
1.78871e-06
8.89039e-06
8.89073e-06
1.78817e-06
5.48276e-07
2.92055e-07
1.42803e-06
2.73583e-07
1.42887e-06
2.73583e-07
5.48112e-07
1.78869e-06
8.89014e-06
8.89049e-06
1.78815e-06
5.48272e-07
2.92082e-07
2.73584e-07
1.42802e-06
2.73585e-07
1.42887e-06
5.48107e-07
1.78831e-06
8.88983e-06
1.7889e-06
8.88948e-06
5.48099e-07
2.73584e-07
1.42851e-06
2.92073e-07
5.48264e-07
2.73584e-07
1.42771e-06
1.78831e-06
8.89046e-06
1.78889e-06
8.89012e-06
5.48264e-07
2.9205e-07
1.42774e-06
2.7358e-07
1.42858e-06
2.73582e-07
5.48096e-07
1.7889e-06
8.88955e-06
8.88989e-06
1.7883e-06
5.4827e-07
2.92073e-07
2.73581e-07
1.42771e-06
2.73583e-07
1.42852e-06
5.48105e-07
1.78889e-06
8.89017e-06
8.89049e-06
1.7883e-06
3.14539e-06
3.14445e-06
3.26035e-07
3.14482e-06
3.14397e-06
2.16593e-05
2.16594e-05
2.16596e-05
2.16595e-05
3.26307e-07
3.14484e-06
3.144e-06
3.14543e-06
3.1445e-06
2.16597e-05
2.16596e-05
5.48091e-07
2.73582e-07
1.42869e-06
2.92053e-07
5.48258e-07
2.73582e-07
1.42788e-06
1.78815e-06
8.8906e-06
1.78869e-06
8.89026e-06
1.78816e-06
8.89124e-06
1.7887e-06
8.8909e-06
5.48261e-07
2.92058e-07
2.7358e-07
1.42771e-06
2.73581e-07
1.42851e-06
5.48094e-07
5.48264e-07
2.92053e-07
2.73581e-07
1.42789e-06
2.73582e-07
1.4287e-06
5.48098e-07
1.78868e-06
8.89032e-06
8.89064e-06
1.78815e-06
1.78869e-06
8.89096e-06
8.89128e-06
1.78816e-06
2.16594e-05
2.16596e-05
2.166e-05
2.16601e-05
3.26306e-07
3.14402e-06
3.1449e-06
3.14453e-06
3.14541e-06
2.16599e-05
2.16597e-05
2.16604e-05
2.16603e-05
2.16587e-05
2.1659e-05
2.16602e-05
2.16606e-05
3.14442e-06
3.14534e-06
3.26035e-07
3.14386e-06
3.1448e-06
2.16595e-05
2.16591e-05
2.1661e-05
2.16606e-05
3.26308e-07
3.14385e-06
3.1448e-06
3.14437e-06
3.14531e-06
1.78832e-06
8.89054e-06
1.78887e-06
8.89011e-06
5.48104e-07
1.42844e-06
2.73581e-07
2.92077e-07
5.48272e-07
1.42763e-06
2.73581e-07
5.48111e-07
1.42865e-06
2.73581e-07
2.92077e-07
5.48278e-07
1.42787e-06
2.73581e-07
1.78887e-06
8.88947e-06
8.88969e-06
1.78828e-06
1.78891e-06
8.89028e-06
8.89055e-06
1.78831e-06
5.48276e-07
2.92076e-07
1.42765e-06
2.73578e-07
1.42845e-06
2.73579e-07
5.48101e-07
5.48283e-07
2.92076e-07
1.42798e-06
2.73579e-07
1.42875e-06
2.7358e-07
5.48108e-07
3.14527e-06
3.14448e-06
3.26029e-07
3.14479e-06
3.14386e-06
2.16576e-05
2.16577e-05
2.16594e-05
2.16598e-05
3.26301e-07
3.14496e-06
3.14394e-06
3.14542e-06
3.14447e-06
2.16578e-05
2.16579e-05
5.48117e-07
1.42887e-06
2.73583e-07
2.92058e-07
5.48283e-07
1.42803e-06
2.73582e-07
1.78817e-06
8.89055e-06
1.78868e-06
8.89021e-06
5.48112e-07
2.73584e-07
1.42887e-06
2.92085e-07
5.48279e-07
2.73584e-07
1.42802e-06
1.78871e-06
8.89065e-06
8.89088e-06
1.78817e-06
5.48285e-07
2.92056e-07
1.42805e-06
2.73579e-07
1.42887e-06
2.73579e-07
5.48112e-07
1.7887e-06
8.8904e-06
8.89063e-06
1.78816e-06
5.48282e-07
2.92084e-07
2.73582e-07
1.42804e-06
2.73583e-07
1.42887e-06
5.48107e-07
1.78832e-06
8.88996e-06
1.78888e-06
8.8897e-06
5.48109e-07
2.73581e-07
1.42852e-06
2.92075e-07
5.48275e-07
2.73581e-07
1.42771e-06
1.78831e-06
8.89054e-06
1.78888e-06
8.89023e-06
5.48274e-07
2.92052e-07
1.42779e-06
2.73578e-07
1.42859e-06
2.73578e-07
5.48103e-07
1.7889e-06
8.88996e-06
8.89015e-06
1.78831e-06
5.48279e-07
2.92074e-07
2.73579e-07
1.42774e-06
2.7358e-07
1.42852e-06
5.48106e-07
1.7889e-06
8.89043e-06
8.89063e-06
1.7883e-06
3.14545e-06
3.14452e-06
3.26042e-07
3.14482e-06
3.14398e-06
2.16598e-05
2.16601e-05
2.16604e-05
2.16604e-05
3.26314e-07
3.14483e-06
3.14398e-06
3.14542e-06
3.14449e-06
2.16605e-05
2.16603e-05
5.48103e-07
2.7358e-07
1.4287e-06
2.92055e-07
5.4827e-07
2.73579e-07
1.42789e-06
1.78816e-06
8.89069e-06
1.78867e-06
8.89038e-06
1.78817e-06
8.89133e-06
1.78868e-06
8.89102e-06
5.48272e-07
2.92059e-07
2.73581e-07
1.42773e-06
2.73581e-07
1.42851e-06
5.48101e-07
5.48273e-07
2.92054e-07
2.73576e-07
1.42791e-06
2.73576e-07
1.4287e-06
5.48099e-07
1.78869e-06
8.89058e-06
8.89078e-06
1.78815e-06
1.7887e-06
8.89121e-06
8.89142e-06
1.78816e-06
2.166e-05
2.16602e-05
2.16605e-05
2.16608e-05
3.26314e-07
3.14401e-06
3.14489e-06
3.14452e-06
3.1454e-06
2.16607e-05
2.16604e-05
2.16613e-05
2.1661e-05
2.16595e-05
2.16598e-05
2.1661e-05
2.16609e-05
3.14441e-06
3.14536e-06
3.26037e-07
3.14398e-06
3.14491e-06
2.1659e-05
2.16596e-05
2.16601e-05
2.16607e-05
3.26308e-07