/*--------------------------------*- C++ -*----------------------------------*\
| =========                 |                                                 |
| \\      /  F ield         | OpenFOAM: The Open Source CFD Toolbox           |
|  \\    /   O peration     | Version:  2206                                  |
|   \\  /    A nd           | Website:  www.openfoam.com                      |
|    \\/     M anipulation  |                                                 |
\*---------------------------------------------------------------------------*/
FoamFile
{
    version     2.0;
    format      ascii;
    arch        "LSB;label=32;scalar=64";
    class       volVectorField;
    location    "32.5";
    object      U;
}
// * * * * * * * * * * * * * * * * * * * * * * * * * * * * * * * * * * * * * //

dimensions      [0 1 -1 0 0 0 0];

internalField   nonuniform List<vector> 
28687
(
(-8.21208e-07 -8.17649e-07 0.103573)
(-5.62174e-07 8.46168e-07 0.10348)
(8.44149e-07 -5.55757e-07 0.10348)
(-4.62378e-05 -4.62538e-05 0.103351)
(-8.2436e-07 -8.22282e-07 0.103573)
(-5.52976e-07 8.38997e-07 0.10348)
(8.40588e-07 -5.48262e-07 0.10348)
(-4.62337e-05 -4.62496e-05 0.103351)
(-8.28902e-07 -8.21719e-07 0.103573)
(-5.40188e-07 8.43258e-07 0.10348)
(8.37343e-07 -5.41578e-07 0.10348)
(-4.62278e-05 -4.62436e-05 0.103351)
(-8.36425e-07 -8.23373e-07 0.103573)
(-5.34102e-07 8.43971e-07 0.10348)
(8.27072e-07 -5.29581e-07 0.103479)
(-4.62194e-05 -4.62343e-05 0.103351)
(-8.50236e-07 -8.40289e-07 0.103573)
(-5.06198e-07 8.23895e-07 0.103479)
(8.13599e-07 -5.00994e-07 0.103479)
(-4.62109e-05 -4.62271e-05 0.10335)
(-8.51495e-07 -8.37085e-07 0.103573)
(-4.87634e-07 8.07733e-07 0.103479)
(8.16091e-07 -5.05325e-07 0.103479)
(-4.62277e-05 -4.62382e-05 0.10335)
(-7.80317e-07 -7.5139e-07 0.103573)
(-6.65056e-07 9.77333e-07 0.103479)
(9.18365e-07 -6.3989e-07 0.103479)
(-4.6304e-05 -4.63061e-05 0.10335)
(-7.71993e-07 -7.77382e-07 0.103573)
(-5.7419e-07 8.04718e-07 0.10348)
(8.48158e-07 -5.93522e-07 0.10348)
(-4.63142e-05 -4.6336e-05 0.103351)
(-8.2971e-07 -8.31075e-07 0.103573)
(-5.36519e-07 8.36456e-07 0.10348)
(8.22286e-07 -5.31182e-07 0.10348)
(-4.62241e-05 -4.62421e-05 0.103351)
(-8.25919e-07 -8.21525e-07 0.103573)
(-5.48259e-07 8.43844e-07 0.10348)
(8.39267e-07 -5.4791e-07 0.10348)
(-4.62493e-05 -4.6264e-05 0.103351)
(-8.23133e-07 -8.17962e-07 0.103573)
(-5.49286e-07 8.43688e-07 0.10348)
(8.41556e-07 -5.52247e-07 0.10348)
(-4.62516e-05 -4.62677e-05 0.103351)
(-8.23721e-07 -8.18211e-07 0.103573)
(-5.48984e-07 8.43137e-07 0.10348)
(8.41373e-07 -5.52124e-07 0.10348)
(-4.62516e-05 -4.6268e-05 0.103351)
(-8.2445e-07 -8.18507e-07 0.103573)
(-5.48366e-07 8.42442e-07 0.10348)
(8.40999e-07 -5.52054e-07 0.10348)
(-4.62517e-05 -4.62677e-05 0.103351)
(-8.24925e-07 -8.18381e-07 0.103573)
(-5.48067e-07 8.43089e-07 0.10348)
(8.4117e-07 -5.52062e-07 0.10348)
(-4.6252e-05 -4.62673e-05 0.103351)
(-8.25388e-07 -8.18662e-07 0.103573)
(-5.47841e-07 8.42593e-07 0.10348)
(8.41188e-07 -5.52262e-07 0.10348)
(-4.62522e-05 -4.62674e-05 0.103351)
(-8.24953e-07 -8.18151e-07 0.103573)
(-5.48551e-07 8.43035e-07 0.10348)
(8.41838e-07 -5.52794e-07 0.10348)
(-4.62522e-05 -4.62676e-05 0.103351)
(-8.24253e-07 -8.17424e-07 0.103573)
(-5.48522e-07 8.43323e-07 0.10348)
(8.42046e-07 -5.52821e-07 0.10348)
(-4.62503e-05 -4.62657e-05 0.103351)
(-8.23256e-07 -8.1618e-07 0.103573)
(-5.48295e-07 8.4329e-07 0.10348)
(8.41978e-07 -5.52825e-07 0.10348)
(-4.62443e-05 -4.62602e-05 0.103351)
(-8.75263e-07 5.92306e-07 0.10348)
(4.85091e-05 -4.84825e-05 0.103357)
(-5.57249e-07 8.46511e-07 0.10348)
(4.62401e-05 4.62208e-05 0.103351)
(-4.85088e-05 -4.84858e-05 0.103357)
(8.72381e-07 5.77015e-07 0.10348)
(-8.75234e-07 5.9837e-07 0.10348)
(8.69078e-07 5.65215e-07 0.10348)
(-8.68644e-07 5.86576e-07 0.10348)
(-4.62484e-05 4.62163e-05 0.103351)
(4.85103e-05 -4.84874e-05 0.103357)
(5.57363e-07 8.51019e-07 0.10348)
(5.80776e-07 -8.72768e-07 0.103479)
(5.47778e-07 8.44655e-07 0.10348)
(5.74006e-07 -8.69307e-07 0.103479)
(-5.8265e-07 -8.67357e-07 0.10348)
(-5.5319e-07 8.38726e-07 0.10348)
(-5.76677e-07 -8.63105e-07 0.103479)
(4.62252e-05 -4.62601e-05 0.103351)
(-4.84809e-05 4.85154e-05 0.103357)
(-8.4094e-07 -5.53549e-07 0.10348)
(8.39772e-07 -5.45972e-07 0.10348)
(-8.36926e-07 -5.47809e-07 0.10348)
(4.8483e-05 4.85027e-05 0.103357)
(4.62359e-05 4.62199e-05 0.103351)
(-4.8509e-05 -4.84881e-05 0.103357)
(8.71408e-07 5.71073e-07 0.10348)
(-8.68929e-07 5.85257e-07 0.10348)
(8.66018e-07 5.62077e-07 0.103479)
(-8.67137e-07 5.74772e-07 0.103479)
(-4.62408e-05 4.62075e-05 0.103351)
(4.85205e-05 -4.84889e-05 0.103357)
(5.50903e-07 8.49513e-07 0.10348)
(5.73813e-07 -8.69425e-07 0.103479)
(5.4247e-07 8.44975e-07 0.10348)
(5.67973e-07 -8.66395e-07 0.103479)
(-5.7528e-07 -8.62931e-07 0.103479)
(-5.37889e-07 8.39388e-07 0.10348)
(-5.68168e-07 -8.60623e-07 0.103479)
(4.62213e-05 -4.62559e-05 0.103351)
(-4.84854e-05 4.85202e-05 0.103357)
(-8.36782e-07 -5.46986e-07 0.10348)
(8.37307e-07 -5.39381e-07 0.10348)
(-8.34923e-07 -5.38718e-07 0.10348)
(4.84881e-05 4.85077e-05 0.103357)
(4.62332e-05 4.62177e-05 0.103351)
(-4.85209e-05 -4.84952e-05 0.103357)
(8.63126e-07 5.66233e-07 0.103479)
(-8.70387e-07 5.77369e-07 0.103479)
(8.53917e-07 5.54671e-07 0.103479)
(-8.68512e-07 5.7445e-07 0.103479)
(-4.62332e-05 4.62083e-05 0.103351)
(4.85254e-05 -4.84842e-05 0.103357)
(5.44916e-07 8.43818e-07 0.10348)
(5.69238e-07 -8.66059e-07 0.103479)
(5.29658e-07 8.37587e-07 0.10348)
(5.55485e-07 -8.567e-07 0.103479)
(-5.67046e-07 -8.58852e-07 0.103479)
(-5.28207e-07 8.41127e-07 0.10348)
(-5.56262e-07 -8.51481e-07 0.103479)
(4.62162e-05 -4.62504e-05 0.103351)
(-4.84949e-05 4.85309e-05 0.103357)
(-8.33543e-07 -5.37293e-07 0.10348)
(8.28045e-07 -5.26873e-07 0.103479)
(-8.27297e-07 -5.24769e-07 0.103479)
(4.84975e-05 4.8518e-05 0.103357)
(4.62221e-05 4.62105e-05 0.103351)
(-4.85303e-05 -4.85096e-05 0.103357)
(8.5216e-07 5.58636e-07 0.103479)
(-8.72615e-07 5.75647e-07 0.103479)
(8.53297e-07 5.34805e-07 0.103479)
(-8.45829e-07 5.35936e-07 0.103479)
(-4.62244e-05 4.62087e-05 0.103351)
(4.85467e-05 -4.85218e-05 0.103357)
(5.31952e-07 8.37319e-07 0.103479)
(5.53723e-07 -8.55805e-07 0.103479)
(5.15808e-07 8.32698e-07 0.103479)
(5.41362e-07 -8.54743e-07 0.103479)
(-5.55992e-07 -8.50074e-07 0.103479)
(-5.02788e-07 8.18303e-07 0.103479)
(-5.4032e-07 -8.50234e-07 0.103479)
(4.62059e-05 -4.6241e-05 0.103351)
(-4.8506e-05 4.85418e-05 0.103357)
(-8.26055e-07 -5.23794e-07 0.103479)
(8.26025e-07 -5.12431e-07 0.103479)
(-8.24154e-07 -5.10609e-07 0.103479)
(4.85103e-05 4.85295e-05 0.103357)
(4.62159e-05 4.61992e-05 0.10335)
(-4.8536e-05 -4.85075e-05 0.103357)
(8.39742e-07 5.28992e-07 0.103479)
(-8.51392e-07 5.4428e-07 0.103479)
(8.6832e-07 5.58248e-07 0.103479)
(-8.55145e-07 5.41449e-07 0.103479)
(-4.62056e-05 4.61806e-05 0.10335)
(4.85494e-05 -4.85176e-05 0.103357)
(5.04568e-07 8.20477e-07 0.103479)
(5.28082e-07 -8.41536e-07 0.103479)
(5.37417e-07 8.54163e-07 0.103479)
(5.62787e-07 -8.70636e-07 0.103479)
(-5.27182e-07 -8.36913e-07 0.103479)
(-5.15111e-07 8.33175e-07 0.103479)
(-5.62875e-07 -8.65629e-07 0.103479)
(4.62003e-05 -4.62335e-05 0.10335)
(-4.85095e-05 4.85464e-05 0.103357)
(-8.10887e-07 -4.95986e-07 0.103479)
(8.43775e-07 -5.33392e-07 0.103479)
(-8.43693e-07 -5.30274e-07 0.103479)
(4.8511e-05 4.8535e-05 0.103357)
(4.62272e-05 4.62173e-05 0.10335)
(-4.85342e-05 -4.84817e-05 0.103357)
(8.37272e-07 5.35806e-07 0.103479)
(-8.28138e-07 5.18231e-07 0.103479)
(8.76067e-07 6.02886e-07 0.103479)
(-9.57284e-07 6.57159e-07 0.103479)
(-4.62117e-05 4.6193e-05 0.10335)
(4.84593e-05 -4.84051e-05 0.103357)
(5.08011e-07 8.2875e-07 0.103479)
(5.31844e-07 -8.41908e-07 0.103479)
(5.53016e-07 8.84136e-07 0.103479)
(5.8416e-07 -8.85228e-07 0.103479)
(-5.33575e-07 -8.36184e-07 0.103479)
(-5.98677e-07 9.42743e-07 0.103479)
(-5.93812e-07 -8.71559e-07 0.103479)
(4.62128e-05 -4.62459e-05 0.10335)
(-4.85008e-05 4.85389e-05 0.103357)
(-8.1689e-07 -4.98841e-07 0.103479)
(8.60819e-07 -5.53142e-07 0.103479)
(-8.65557e-07 -5.46314e-07 0.103479)
(4.84976e-05 4.85314e-05 0.103357)
(4.62972e-05 4.63094e-05 0.10335)
(-4.84263e-05 -4.83987e-05 0.103357)
(9.36094e-07 6.90303e-07 0.103479)
(-9.90092e-07 7.18434e-07 0.103479)
(9.19774e-07 6.66142e-07 0.103479)
(-8.67188e-07 6.41057e-07 0.103479)
(-4.63746e-05 4.63762e-05 0.10335)
(4.84882e-05 -4.84738e-05 0.103357)
(6.40555e-07 9.41527e-07 0.103479)
(6.67199e-07 -9.41569e-07 0.103479)
(6.49521e-07 8.91032e-07 0.10348)
(6.74366e-07 -9.06621e-07 0.103479)
(-6.75689e-07 -9.28737e-07 0.103479)
(-6.21144e-07 8.37999e-07 0.10348)
(-6.73665e-07 -9.06942e-07 0.103479)
(4.62858e-05 -4.63179e-05 0.10335)
(-4.84028e-05 4.84418e-05 0.103357)
(-9.1969e-07 -6.32225e-07 0.103479)
(8.81735e-07 -6.40999e-07 0.10348)
(-8.7275e-07 -6.50354e-07 0.10348)
(4.84109e-05 4.84262e-05 0.103357)
(4.63327e-05 4.63103e-05 0.103351)
(-4.85584e-05 -4.85241e-05 0.103357)
(8.86477e-07 6.14503e-07 0.10348)
(-8.33466e-07 5.90879e-07 0.10348)
(8.51578e-07 5.63515e-07 0.10348)
(-8.51382e-07 5.69581e-07 0.10348)
(-4.62667e-05 4.62262e-05 0.103351)
(4.85476e-05 -4.85219e-05 0.103357)
(6.04302e-07 8.5294e-07 0.10348)
(6.23347e-07 -8.72396e-07 0.10348)
(5.37791e-07 8.2049e-07 0.10348)
(5.54841e-07 -8.4268e-07 0.10348)
(-6.21528e-07 -8.74839e-07 0.10348)
(-5.31429e-07 8.27007e-07 0.10348)
(-5.52665e-07 -8.42263e-07 0.10348)
(4.63087e-05 -4.63386e-05 0.103351)
(-4.85302e-05 4.85645e-05 0.103357)
(-8.37521e-07 -6.01143e-07 0.10348)
(8.16494e-07 -5.2568e-07 0.10348)
(-8.10932e-07 -5.27601e-07 0.10348)
(4.85333e-05 4.85495e-05 0.103357)
(4.6232e-05 4.62148e-05 0.103351)
(-4.85347e-05 -4.84991e-05 0.103357)
(8.5653e-07 5.64967e-07 0.10348)
(-8.57921e-07 5.66903e-07 0.10348)
(8.61725e-07 5.6993e-07 0.10348)
(-8.68601e-07 5.77127e-07 0.10348)
(-4.6239e-05 4.62132e-05 0.103351)
(4.85372e-05 -4.85055e-05 0.103357)
(5.41295e-07 8.27371e-07 0.10348)
(5.56869e-07 -8.48243e-07 0.10348)
(5.46455e-07 8.42432e-07 0.10348)
(5.70983e-07 -8.63533e-07 0.10348)
(-5.55482e-07 -8.45686e-07 0.10348)
(-5.4454e-07 8.41955e-07 0.10348)
(-5.71294e-07 -8.58297e-07 0.10348)
(4.62116e-05 -4.62471e-05 0.103351)
(-4.85043e-05 4.85397e-05 0.103357)
(-8.17516e-07 -5.28162e-07 0.10348)
(8.35847e-07 -5.41924e-07 0.10348)
(-8.33727e-07 -5.40951e-07 0.10348)
(4.85063e-05 4.85272e-05 0.103357)
(4.62566e-05 4.62348e-05 0.103351)
(-4.85291e-05 -4.84969e-05 0.103357)
(8.64652e-07 5.69413e-07 0.10348)
(-8.72145e-07 5.79969e-07 0.10348)
(8.68319e-07 5.74952e-07 0.10348)
(-8.74087e-07 5.8195e-07 0.10348)
(-4.62488e-05 4.62288e-05 0.103351)
(4.853e-05 -4.85026e-05 0.103357)
(5.51716e-07 8.44537e-07 0.10348)
(5.73622e-07 -8.66619e-07 0.10348)
(5.51287e-07 8.44939e-07 0.10348)
(5.76904e-07 -8.688e-07 0.10348)
(-5.73723e-07 -8.61164e-07 0.10348)
(-5.48207e-07 8.43811e-07 0.10348)
(-5.76625e-07 -8.64473e-07 0.10348)
(4.62363e-05 -4.62707e-05 0.103351)
(-4.84994e-05 4.85348e-05 0.103357)
(-8.36551e-07 -5.433e-07 0.10348)
(8.40337e-07 -5.48562e-07 0.10348)
(-8.38746e-07 -5.46246e-07 0.10348)
(4.85025e-05 4.85218e-05 0.103357)
(4.62612e-05 4.62365e-05 0.103351)
(-4.85285e-05 -4.84969e-05 0.103357)
(8.68929e-07 5.72734e-07 0.10348)
(-8.74477e-07 5.8188e-07 0.10348)
(8.69693e-07 5.75299e-07 0.10348)
(-8.74326e-07 5.82824e-07 0.10348)
(-4.62536e-05 4.62299e-05 0.103351)
(4.85298e-05 -4.85017e-05 0.103357)
(5.55134e-07 8.4552e-07 0.10348)
(5.77254e-07 -8.69379e-07 0.10348)
(5.5117e-07 8.44444e-07 0.10348)
(5.771e-07 -8.68875e-07 0.10348)
(-5.76817e-07 -8.64904e-07 0.10348)
(-5.47963e-07 8.43397e-07 0.10348)
(-5.76786e-07 -8.64976e-07 0.10348)
(4.62398e-05 -4.6274e-05 0.103351)
(-4.84992e-05 4.85346e-05 0.103357)
(-8.39133e-07 -5.46269e-07 0.10348)
(8.40503e-07 -5.49129e-07 0.10348)
(-8.38627e-07 -5.45337e-07 0.10348)
(4.85024e-05 4.85216e-05 0.103357)
(4.62617e-05 4.62366e-05 0.103351)
(-4.85289e-05 -4.84975e-05 0.103357)
(8.69764e-07 5.72571e-07 0.10348)
(-8.74639e-07 5.81983e-07 0.10348)
(8.69644e-07 5.74608e-07 0.10348)
(-8.74545e-07 5.82318e-07 0.10348)
(-4.62541e-05 4.62305e-05 0.103351)
(4.8529e-05 -4.85021e-05 0.103357)
(5.54541e-07 8.44634e-07 0.10348)
(5.76986e-07 -8.69139e-07 0.10348)
(5.5027e-07 8.43011e-07 0.10348)
(5.765e-07 -8.68557e-07 0.10348)
(-5.76434e-07 -8.65069e-07 0.10348)
(-5.47255e-07 8.42713e-07 0.10348)
(-5.75816e-07 -8.64662e-07 0.10348)
(4.62398e-05 -4.62741e-05 0.103351)
(-4.84993e-05 4.85347e-05 0.103357)
(-8.38894e-07 -5.46589e-07 0.10348)
(8.39948e-07 -5.48774e-07 0.10348)
(-8.38515e-07 -5.46993e-07 0.10348)
(4.85021e-05 4.85213e-05 0.103357)
(4.62609e-05 4.62357e-05 0.103351)
(-4.85292e-05 -4.8497e-05 0.103357)
(8.70055e-07 5.72341e-07 0.10348)
(-8.74868e-07 5.8192e-07 0.10348)
(8.69786e-07 5.74908e-07 0.10348)
(-8.75487e-07 5.83335e-07 0.10348)
(-4.62535e-05 4.62294e-05 0.103351)
(4.85298e-05 -4.85013e-05 0.103357)
(5.54144e-07 8.4389e-07 0.10348)
(5.76582e-07 -8.69e-07 0.10348)
(5.49807e-07 8.42832e-07 0.10348)
(5.76529e-07 -8.68625e-07 0.10348)
(-5.75753e-07 -8.64826e-07 0.10348)
(-5.46988e-07 8.43266e-07 0.10348)
(-5.75558e-07 -8.64577e-07 0.10348)
(4.62392e-05 -4.62736e-05 0.103351)
(-4.84992e-05 4.85346e-05 0.103357)
(-8.38951e-07 -5.47561e-07 0.10348)
(8.401e-07 -5.48918e-07 0.10348)
(-8.38735e-07 -5.47823e-07 0.10348)
(4.85018e-05 4.85213e-05 0.103357)
(4.626e-05 4.62355e-05 0.103351)
(-4.85299e-05 -4.84978e-05 0.103357)
(8.7019e-07 5.72508e-07 0.10348)
(-8.75808e-07 5.82695e-07 0.10348)
(8.69194e-07 5.74226e-07 0.10348)
(-8.75164e-07 5.8311e-07 0.10348)
(-4.62545e-05 4.62313e-05 0.103351)
(4.85296e-05 -4.85012e-05 0.103357)
(5.53459e-07 8.43603e-07 0.10348)
(5.76444e-07 -8.69029e-07 0.10348)
(5.49124e-07 8.41874e-07 0.10348)
(5.76022e-07 -8.68423e-07 0.10348)
(-5.75347e-07 -8.6475e-07 0.10348)
(-5.46606e-07 8.42793e-07 0.10348)
(-5.75126e-07 -8.64365e-07 0.10348)
(4.62388e-05 -4.6273e-05 0.103351)
(-4.84995e-05 4.85348e-05 0.103357)
(-8.39109e-07 -5.48182e-07 0.10348)
(8.39818e-07 -5.4863e-07 0.10348)
(-8.38689e-07 -5.47796e-07 0.10348)
(4.85014e-05 4.85213e-05 0.103357)
(4.62594e-05 4.62348e-05 0.103351)
(-4.85288e-05 -4.84972e-05 0.103357)
(8.69701e-07 5.72169e-07 0.10348)
(-8.75668e-07 5.82681e-07 0.10348)
(8.69746e-07 5.74794e-07 0.10348)
(-8.75499e-07 5.83505e-07 0.10348)
(-4.62542e-05 4.6231e-05 0.103351)
(4.85284e-05 -4.85002e-05 0.103357)
(5.53324e-07 8.42726e-07 0.10348)
(5.76482e-07 -8.6917e-07 0.10348)
(5.49682e-07 8.41959e-07 0.10348)
(5.76457e-07 -8.68972e-07 0.10348)
(-5.75134e-07 -8.64657e-07 0.10348)
(-5.47421e-07 8.43197e-07 0.10348)
(-5.75632e-07 -8.64738e-07 0.10348)
(4.62387e-05 -4.62731e-05 0.103351)
(-4.84983e-05 4.85336e-05 0.103357)
(-8.39228e-07 -5.48533e-07 0.10348)
(8.40484e-07 -5.4921e-07 0.10348)
(-8.39065e-07 -5.48611e-07 0.10348)
(4.85005e-05 4.85203e-05 0.103357)
(4.62598e-05 4.62348e-05 0.103351)
(-4.85267e-05 -4.84948e-05 0.103357)
(8.70506e-07 5.72694e-07 0.10348)
(-8.76261e-07 5.83179e-07 0.10348)
(8.70998e-07 5.75359e-07 0.10348)
(-8.74941e-07 5.83529e-07 0.10348)
(-4.62542e-05 4.62309e-05 0.103351)
(4.85273e-05 -4.84991e-05 0.103357)
(5.53923e-07 8.42972e-07 0.10348)
(5.76921e-07 -8.69614e-07 0.10348)
(5.50276e-07 8.42583e-07 0.10348)
(5.77004e-07 -8.69014e-07 0.10348)
(-5.75586e-07 -8.65166e-07 0.10348)
(-5.473e-07 8.43174e-07 0.10348)
(-5.75631e-07 -8.64793e-07 0.10348)
(4.6239e-05 -4.62734e-05 0.103351)
(-4.84966e-05 4.85322e-05 0.103357)
(-8.39659e-07 -5.49391e-07 0.10348)
(8.40891e-07 -5.49519e-07 0.10348)
(-8.39042e-07 -5.49016e-07 0.10348)
(4.84989e-05 4.85188e-05 0.103357)
(4.62587e-05 4.62342e-05 0.103351)
(-4.85221e-05 -4.84887e-05 0.103357)
(8.7168e-07 5.73647e-07 0.10348)
(-8.763e-07 5.835e-07 0.10348)
(8.71445e-07 5.76573e-07 0.10348)
(-8.74186e-07 5.84347e-07 0.10348)
(-4.62529e-05 4.62296e-05 0.103351)
(4.85242e-05 -4.84953e-05 0.103357)
(5.54223e-07 8.43818e-07 0.10348)
(5.77355e-07 -8.69444e-07 0.10348)
(5.50134e-07 8.43105e-07 0.10348)
(5.77401e-07 -8.68751e-07 0.10348)
(-5.75421e-07 -8.65077e-07 0.10348)
(-5.47643e-07 8.43396e-07 0.10348)
(-5.75935e-07 -8.65031e-07 0.10348)
(4.62376e-05 -4.62716e-05 0.103351)
(-4.84918e-05 4.85276e-05 0.103357)
(-8.39439e-07 -5.49402e-07 0.10348)
(8.40798e-07 -5.4983e-07 0.10348)
(-8.38994e-07 -5.49541e-07 0.10348)
(4.8494e-05 4.85136e-05 0.103357)
(4.62524e-05 4.62291e-05 0.103351)
(8.72118e-07 5.74168e-07 0.10348)
(-8.76272e-07 5.83644e-07 0.10348)
(-4.62485e-05 4.62257e-05 0.103351)
(5.53893e-07 8.44183e-07 0.10348)
(5.77276e-07 -8.69312e-07 0.10348)
(-5.75226e-07 -8.6544e-07 0.10348)
(4.62315e-05 -4.62654e-05 0.103351)
(-8.39457e-07 -5.49817e-07 0.10348)
(8.40382e-08 -1.00274e-05 0.100227)
(6.50892e-07 7.14661e-06 0.0916855)
(-1.07258e-07 9.68041e-06 0.100207)
(-1.18125e-06 -6.87056e-06 0.0917113)
(-2.09123e-06 3.11892e-06 0.0790781)
(2.07407e-06 -3.02249e-06 0.079104)
(-1.00999e-05 7.56964e-08 0.100226)
(7.0922e-06 6.09394e-07 0.0916843)
(9.76008e-06 -9.05731e-08 0.100208)
(-6.81224e-06 -1.14852e-06 0.0917122)
(8.28328e-07 -8.05198e-07 0.103573)
(-8.13689e-07 8.21251e-07 0.103573)
(8.1552e-07 8.12717e-07 0.103573)
(-8.2385e-07 -8.2126e-07 0.103573)
(8.3176e-07 -8.10918e-07 0.103573)
(-8.15941e-07 8.2496e-07 0.103573)
(8.1956e-07 8.16089e-07 0.103573)
(1.64703e-05 1.21609e-07 0.102773)
(-1.59873e-05 4.49325e-06 0.100689)
(-7.1908e-07 -2.07533e-07 0.103543)
(-5.6032e-07 8.43793e-07 0.10348)
(-1.66489e-05 -1.40143e-07 0.102764)
(1.52333e-05 -4.98495e-06 0.100719)
(-7.19159e-07 -2.08759e-07 0.103543)
(3.03475e-06 -2.0411e-06 0.079075)
(-2.9023e-06 2.01373e-06 0.0791049)
(1.32617e-07 1.64825e-05 0.102773)
(-2.1063e-07 -7.0632e-07 0.103543)
(4.53899e-06 -1.60536e-05 0.100689)
(8.43529e-07 -5.53759e-07 0.10348)
(-1.42735e-07 -1.66654e-05 0.102764)
(-2.11245e-07 -7.03135e-07 0.103543)
(-5.02784e-06 1.52904e-05 0.100718)
(-4.75777e-06 -5.81575e-06 0.0972328)
(-5.80151e-06 -4.75183e-06 0.0972319)
(4.84801e-05 4.84998e-05 0.103357)
(4.37537e-06 5.64421e-06 0.0972613)
(5.63961e-06 4.36743e-06 0.09726)
(8.32294e-08 -1.00426e-05 0.100227)
(6.53492e-07 7.11341e-06 0.0916856)
(-1.04515e-07 9.66123e-06 0.100207)
(-1.16329e-06 -6.88755e-06 0.0917114)
(-2.07653e-06 3.07846e-06 0.0790781)
(2.07298e-06 -3.0377e-06 0.0791042)
(-1.01142e-05 7.35523e-08 0.100226)
(7.06274e-06 6.12499e-07 0.0916844)
(9.74519e-06 -9.06647e-08 0.100208)
(-6.83313e-06 -1.12155e-06 0.0917123)
(8.32598e-07 -8.12954e-07 0.103573)
(-8.16553e-07 8.25254e-07 0.103573)
(8.20215e-07 8.1699e-07 0.103573)
(-8.2942e-07 -8.22621e-07 0.103573)
(8.28116e-07 -8.19347e-07 0.103573)
(-8.19134e-07 8.27445e-07 0.103573)
(8.2092e-07 8.22497e-07 0.103573)
(1.64921e-05 1.22086e-07 0.102773)
(-1.59783e-05 4.48187e-06 0.100689)
(-7.09535e-07 -2.11278e-07 0.103543)
(-5.48621e-07 8.40037e-07 0.10348)
(-1.66272e-05 -1.40302e-07 0.102764)
(1.52546e-05 -5.00711e-06 0.100719)
(-7.02579e-07 -2.11988e-07 0.103543)
(2.96961e-06 -2.01029e-06 0.0790749)
(-2.92559e-06 2.01142e-06 0.079105)
(1.33996e-07 1.65043e-05 0.102773)
(-2.12179e-07 -6.99813e-07 0.103543)
(4.53022e-06 -1.60328e-05 0.100689)
(8.40559e-07 -5.45335e-07 0.10348)
(-1.42754e-07 -1.6642e-05 0.102764)
(-2.12753e-07 -6.93258e-07 0.103543)
(-5.04745e-06 1.5308e-05 0.100718)
(-4.76067e-06 -5.80997e-06 0.0972329)
(-5.79557e-06 -4.75571e-06 0.097232)
(4.84845e-05 4.8504e-05 0.103357)
(4.36618e-06 5.65526e-06 0.0972614)
(5.65011e-06 4.35763e-06 0.0972601)
(8.42835e-08 -1.00572e-05 0.100227)
(6.77483e-07 7.09243e-06 0.0916857)
(-1.04575e-07 9.6451e-06 0.100207)
(-1.17699e-06 -6.90614e-06 0.0917117)
(-2.06714e-06 3.06186e-06 0.0790781)
(2.04503e-06 -3.02101e-06 0.0791045)
(-1.01291e-05 7.81141e-08 0.100226)
(7.04438e-06 6.28833e-07 0.0916846)
(9.72707e-06 -8.26105e-08 0.100208)
(-6.85763e-06 -1.13175e-06 0.0917126)
(8.26795e-07 -8.19158e-07 0.103573)
(-8.18482e-07 8.2666e-07 0.103573)
(8.20085e-07 8.22512e-07 0.103573)
(-8.37306e-07 -8.24489e-07 0.103573)
(8.29332e-07 -8.19091e-07 0.103573)
(-8.27038e-07 8.34682e-07 0.103573)
(8.25892e-07 8.30682e-07 0.103573)
(1.65146e-05 1.25783e-07 0.102773)
(-1.59484e-05 4.46628e-06 0.100688)
(-6.903e-07 -2.09843e-07 0.103543)
(-5.40963e-07 8.47464e-07 0.10348)
(-1.66018e-05 -1.40349e-07 0.102764)
(1.52757e-05 -5.02367e-06 0.100719)
(-6.88563e-07 -2.09857e-07 0.103543)
(2.95739e-06 -2.01171e-06 0.0790751)
(-2.93015e-06 2.01978e-06 0.0791052)
(1.32749e-07 1.65241e-05 0.102773)
(-2.1337e-07 -6.89174e-07 0.103543)
(4.51137e-06 -1.60169e-05 0.100689)
(8.37651e-07 -5.40198e-07 0.10348)
(-1.4303e-07 -1.66197e-05 0.102763)
(-2.13992e-07 -6.84145e-07 0.103543)
(-5.07054e-06 1.53272e-05 0.100718)
(-4.76009e-06 -5.80469e-06 0.0972329)
(-5.79186e-06 -4.75455e-06 0.097232)
(4.84923e-05 4.85123e-05 0.103357)
(4.37076e-06 5.66205e-06 0.0972614)
(5.65498e-06 4.36451e-06 0.0972601)
(8.46613e-08 -1.00796e-05 0.100227)
(6.40663e-07 7.0858e-06 0.0916861)
(-1.03061e-07 9.63794e-06 0.100207)
(-1.17434e-06 -6.93429e-06 0.091712)
(-2.13422e-06 3.09589e-06 0.0790787)
(2.0917e-06 -3.05158e-06 0.0791053)
(-1.0159e-05 7.96974e-08 0.100226)
(7.03216e-06 6.08577e-07 0.0916849)
(9.71375e-06 -8.53459e-08 0.100208)
(-6.88703e-06 -1.13917e-06 0.0917129)
(8.27683e-07 -8.19309e-07 0.103573)
(-8.26646e-07 8.32997e-07 0.103573)
(8.24076e-07 8.2954e-07 0.103573)
(-8.45147e-07 -8.37385e-07 0.103573)
(8.4691e-07 -8.42089e-07 0.103573)
(-8.36408e-07 8.43685e-07 0.103573)
(8.3595e-07 8.38288e-07 0.103573)
(1.6541e-05 1.22512e-07 0.102773)
(-1.59392e-05 4.44674e-06 0.100688)
(-6.78363e-07 -2.0832e-07 0.103543)
(-5.36763e-07 8.44691e-07 0.103479)
(-1.6591e-05 -1.38027e-07 0.102763)
(1.53018e-05 -5.03165e-06 0.100719)
(-6.80154e-07 -2.11632e-07 0.103543)
(2.94766e-06 -2.00228e-06 0.0790755)
(-2.96062e-06 2.03554e-06 0.0791057)
(1.31633e-07 1.65534e-05 0.102773)
(-2.16451e-07 -6.71226e-07 0.103543)
(4.48772e-06 -1.60001e-05 0.100689)
(8.35896e-07 -5.3642e-07 0.103479)
(-1.43526e-07 -1.66074e-05 0.102763)
(-2.16737e-07 -6.73918e-07 0.103543)
(-5.08314e-06 1.53541e-05 0.100718)
(-4.75242e-06 -5.80285e-06 0.097233)
(-5.79097e-06 -4.74567e-06 0.0972322)
(4.85023e-05 4.85224e-05 0.103357)
(4.3852e-06 5.66024e-06 0.0972616)
(5.65253e-06 4.37785e-06 0.0972603)
(8.82215e-08 -1.01053e-05 0.100227)
(6.61937e-07 7.05405e-06 0.0916864)
(-1.04016e-07 9.594e-06 0.100207)
(-1.19957e-06 -6.93507e-06 0.0917125)
(-2.02604e-06 3.01487e-06 0.0790792)
(2.0522e-06 -3.02782e-06 0.0791065)
(-1.01818e-05 7.85307e-08 0.100226)
(7.01022e-06 6.1884e-07 0.0916853)
(9.67179e-06 -8.75008e-08 0.100208)
(-6.89309e-06 -1.16636e-06 0.0917133)
(8.44242e-07 -8.37799e-07 0.103573)
(-8.39969e-07 8.4731e-07 0.103573)
(8.38899e-07 8.4355e-07 0.103573)
(-8.42011e-07 -8.32154e-07 0.103573)
(8.4691e-07 -8.41493e-07 0.103573)
(-8.3414e-07 8.4266e-07 0.103573)
(8.32408e-07 8.36795e-07 0.103573)
(1.65588e-05 1.24194e-07 0.102773)
(-1.58927e-05 4.43909e-06 0.100688)
(-6.47893e-07 -2.16853e-07 0.103543)
(-5.2388e-07 8.40669e-07 0.103479)
(-1.6543e-05 -1.45797e-07 0.102763)
(1.53061e-05 -5.06298e-06 0.100719)
(-6.55971e-07 -2.1606e-07 0.103543)
(2.93354e-06 -2.01596e-06 0.0790762)
(-2.96295e-06 2.06777e-06 0.0791067)
(1.31214e-07 1.65726e-05 0.102773)
(-2.19391e-07 -6.39896e-07 0.103543)
(4.48924e-06 -1.5971e-05 0.100689)
(8.19069e-07 -5.09873e-07 0.103479)
(-1.45238e-07 -1.65601e-05 0.102763)
(-2.21546e-07 -6.41465e-07 0.103543)
(-5.09951e-06 1.53792e-05 0.100718)
(-4.73999e-06 -5.80479e-06 0.0972331)
(-5.79359e-06 -4.73335e-06 0.0972322)
(4.85294e-05 4.85498e-05 0.103357)
(4.39542e-06 5.67716e-06 0.0972616)
(5.66923e-06 4.39051e-06 0.0972603)
(3.8475e-08 -1.00675e-05 0.100227)
(6.25363e-07 7.04287e-06 0.0916868)
(-1.16884e-07 9.55805e-06 0.100207)
(-1.24106e-06 -6.91183e-06 0.0917132)
(-1.94444e-06 2.98401e-06 0.0790798)
(2.0161e-06 -3.01702e-06 0.0791078)
(-1.01606e-05 6.36185e-08 0.100226)
(7.0072e-06 6.05258e-07 0.0916859)
(9.63237e-06 -8.12905e-08 0.100208)
(-6.89792e-06 -1.17742e-06 0.0917138)
(8.52337e-07 -8.45143e-07 0.103573)
(-8.42519e-07 8.51117e-07 0.103573)
(8.38612e-07 8.46632e-07 0.103573)
(-8.31019e-07 -7.94511e-07 0.103573)
(7.77153e-07 -7.56715e-07 0.103573)
(-8.14413e-07 8.25427e-07 0.103573)
(8.04259e-07 8.28378e-07 0.103573)
(1.65399e-05 1.43847e-07 0.102772)
(-1.58699e-05 4.42671e-06 0.100688)
(-6.55559e-07 -2.13775e-07 0.103543)
(-4.81325e-07 8.12369e-07 0.103479)
(-1.65279e-05 -1.36055e-07 0.102763)
(1.53062e-05 -5.04087e-06 0.100719)
(-6.33029e-07 -2.10244e-07 0.103543)
(2.94137e-06 -1.97961e-06 0.0790772)
(-2.96124e-06 2.10532e-06 0.0791078)
(1.28119e-07 1.65592e-05 0.102772)
(-2.21186e-07 -6.57083e-07 0.103543)
(4.46851e-06 -1.59487e-05 0.100689)
(7.8609e-07 -4.70898e-07 0.103479)
(-1.49642e-07 -1.65483e-05 0.102763)
(-2.27222e-07 -6.13124e-07 0.103543)
(-5.11795e-06 1.53918e-05 0.100718)
(-4.71874e-06 -5.7695e-06 0.0972332)
(-5.76476e-06 -4.70771e-06 0.0972323)
(4.85551e-05 4.85843e-05 0.103357)
(4.41701e-06 5.70251e-06 0.0972617)
(5.68334e-06 4.41889e-06 0.0972604)
(7.88542e-08 -9.83107e-06 0.100227)
(7.34088e-07 7.16911e-06 0.0916873)
(-1.06724e-07 9.64074e-06 0.100207)
(-9.57111e-07 -6.60432e-06 0.0917136)
(-2.30265e-06 3.22073e-06 0.0790803)
(2.0578e-06 -2.90514e-06 0.0791051)
(-9.90901e-06 8.22541e-08 0.100226)
(7.11415e-06 6.66523e-07 0.0916865)
(9.697e-06 -4.17936e-08 0.100208)
(-6.62916e-06 -1.06565e-06 0.091714)
(7.36376e-07 -7.19722e-07 0.103573)
(-7.68603e-07 7.78983e-07 0.103573)
(7.63319e-07 7.78604e-07 0.103573)
(-7.37859e-07 -7.38639e-07 0.103573)
(7.77946e-07 -7.72183e-07 0.103573)
(-7.38571e-07 7.51416e-07 0.103573)
(7.5505e-07 7.35339e-07 0.103573)
(1.6191e-05 1.71842e-07 0.102773)
(-1.60436e-05 4.61522e-06 0.100688)
(-8.10324e-07 -1.47286e-07 0.103543)
(-6.88522e-07 9.51046e-07 0.103479)
(-1.66478e-05 -8.59449e-08 0.102763)
(1.50357e-05 -4.8666e-06 0.100719)
(-8.66872e-07 -1.56716e-07 0.103543)
(3.03808e-06 -2.1639e-06 0.0790779)
(-2.81104e-06 1.98847e-06 0.0791071)
(1.48491e-07 1.62073e-05 0.102772)
(-1.93985e-07 -7.86144e-07 0.103543)
(4.54494e-06 -1.60684e-05 0.100689)
(9.36742e-07 -6.85541e-07 0.103479)
(-1.32362e-07 -1.66458e-05 0.102763)
(-1.8095e-07 -8.56022e-07 0.103543)
(-4.95642e-06 1.51152e-05 0.100718)
(-4.79163e-06 -5.86981e-06 0.0972335)
(-5.86425e-06 -4.77879e-06 0.0972326)
(4.8347e-05 4.83732e-05 0.103357)
(4.21077e-06 5.58496e-06 0.0972618)
(5.58202e-06 4.20258e-06 0.0972605)
(1.16272e-07 -9.89828e-06 0.100227)
(6.87922e-07 7.35954e-06 0.0916862)
(-8.63489e-08 9.93123e-06 0.100207)
(-1.11373e-06 -6.6929e-06 0.0917122)
(-1.96169e-06 3.15431e-06 0.0790785)
(2.24207e-06 -3.05592e-06 0.0791037)
(-9.9655e-06 5.69308e-08 0.100226)
(7.37481e-06 6.52586e-07 0.0916857)
(1.00099e-05 -1.25936e-07 0.100207)
(-6.70532e-06 -1.13172e-06 0.0917122)
(8.15684e-07 -8.10434e-07 0.103573)
(-7.7301e-07 7.85969e-07 0.103573)
(7.90862e-07 7.67966e-07 0.103573)
(-8.28921e-07 -8.30958e-07 0.103573)
(8.47243e-07 -8.38658e-07 0.103573)
(-8.30711e-07 8.41511e-07 0.103573)
(8.37253e-07 8.30577e-07 0.103573)
(1.63892e-05 9.32124e-08 0.102773)
(-1.61896e-05 4.55836e-06 0.100688)
(-7.60817e-07 -2.2445e-07 0.103543)
(-5.43044e-07 7.97523e-07 0.10348)
(-1.69022e-05 -1.66072e-07 0.102763)
(1.51425e-05 -4.96289e-06 0.100719)
(-7.1543e-07 -2.29305e-07 0.103543)
(3.03878e-06 -1.96141e-06 0.0790757)
(-2.88144e-06 2.04742e-06 0.0791053)
(1.34069e-07 1.63942e-05 0.102773)
(-1.9695e-07 -7.74429e-07 0.103543)
(4.67702e-06 -1.62635e-05 0.100689)
(8.2508e-07 -5.51589e-07 0.10348)
(-1.34641e-07 -1.69212e-05 0.102763)
(-2.07925e-07 -7.21714e-07 0.103543)
(-4.9458e-06 1.51816e-05 0.100718)
(-4.89013e-06 -5.82347e-06 0.0972328)
(-5.80265e-06 -4.89199e-06 0.0972319)
(4.85179e-05 4.85307e-05 0.103357)
(4.30627e-06 5.65075e-06 0.0972611)
(5.65231e-06 4.293e-06 0.0972598)
(9.19592e-08 -1.00259e-05 0.100227)
(7.21651e-07 7.15308e-06 0.0916849)
(-9.42076e-08 9.6953e-06 0.100207)
(-1.12134e-06 -6.78009e-06 0.0917121)
(-2.03353e-06 2.9306e-06 0.0790782)
(2.06923e-06 -3.11576e-06 0.0791038)
(-1.00982e-05 7.54885e-08 0.100226)
(7.16686e-06 6.45401e-07 0.0916851)
(9.76659e-06 -8.85592e-08 0.100208)
(-6.85419e-06 -1.14241e-06 0.0917115)
(8.38307e-07 -8.31269e-07 0.103573)
(-8.31052e-07 8.40043e-07 0.103573)
(8.34343e-07 8.31488e-07 0.103573)
(-8.28179e-07 -8.21766e-07 0.103573)
(8.25694e-07 -8.1822e-07 0.103573)
(-8.20905e-07 8.28801e-07 0.103573)
(8.21293e-07 8.21728e-07 0.103573)
(1.64913e-05 1.28312e-07 0.102773)
(-1.59866e-05 4.50096e-06 0.100688)
(-6.88902e-07 -2.13294e-07 0.103543)
(-5.39309e-07 8.39198e-07 0.10348)
(-1.66305e-05 -1.41698e-07 0.102764)
(1.52477e-05 -4.98992e-06 0.100719)
(-6.92223e-07 -2.10033e-07 0.103543)
(2.98699e-06 -2.00759e-06 0.079075)
(-2.90996e-06 2.02015e-06 0.079105)
(1.3212e-07 1.65019e-05 0.102773)
(-2.17174e-07 -6.8608e-07 0.103543)
(4.54069e-06 -1.60557e-05 0.100689)
(8.27002e-07 -5.3315e-07 0.10348)
(-1.45296e-07 -1.66503e-05 0.102764)
(-2.16486e-07 -6.82577e-07 0.103543)
(-5.04627e-06 1.52999e-05 0.100718)
(-4.76928e-06 -5.81464e-06 0.0972327)
(-5.8004e-06 -4.76446e-06 0.0972318)
(4.85168e-05 4.85367e-05 0.103357)
(4.3602e-06 5.65121e-06 0.0972612)
(5.64523e-06 4.35356e-06 0.0972599)
(8.17635e-08 -1.0026e-05 0.100227)
(6.50371e-07 7.0835e-06 0.0916848)
(-1.07698e-07 9.6799e-06 0.100207)
(-1.14749e-06 -6.80072e-06 0.0917121)
(-2.09207e-06 3.08694e-06 0.0790782)
(2.08344e-06 -3.04648e-06 0.079104)
(-1.0098e-05 7.16732e-08 0.100226)
(7.14811e-06 6.40076e-07 0.091685)
(9.75422e-06 -9.00123e-08 0.100208)
(-6.85168e-06 -1.14714e-06 0.0917117)
(8.23628e-07 -8.1935e-07 0.103573)
(-8.18768e-07 8.25896e-07 0.103573)
(8.1863e-07 8.20561e-07 0.103573)
(-8.24164e-07 -8.17096e-07 0.103573)
(8.20932e-07 -8.19447e-07 0.103573)
(-8.15887e-07 8.22055e-07 0.103573)
(8.15369e-07 8.17956e-07 0.103573)
(1.64769e-05 1.25933e-07 0.102773)
(-1.59879e-05 4.48584e-06 0.100689)
(-6.99464e-07 -2.089e-07 0.103543)
(-5.48804e-07 8.44571e-07 0.10348)
(-1.66435e-05 -1.37083e-07 0.102764)
(1.5239e-05 -4.99553e-06 0.100719)
(-6.99238e-07 -2.08502e-07 0.103543)
(2.97797e-06 -2.01151e-06 0.079075)
(-2.91416e-06 2.01898e-06 0.079105)
(1.33148e-07 1.6488e-05 0.102773)
(-2.12804e-07 -6.96761e-07 0.103543)
(4.52865e-06 -1.60479e-05 0.100689)
(8.39409e-07 -5.46761e-07 0.10348)
(-1.42695e-07 -1.66592e-05 0.102764)
(-2.12381e-07 -6.93236e-07 0.103543)
(-5.04504e-06 1.52955e-05 0.100718)