/*--------------------------------*- C++ -*----------------------------------*\
| =========                 |                                                 |
| \\      /  F ield         | OpenFOAM: The Open Source CFD Toolbox           |
|  \\    /   O peration     | Version:  2206                                  |
|   \\  /    A nd           | Website:  www.openfoam.com                      |
|    \\/     M anipulation  |                                                 |
\*---------------------------------------------------------------------------*/
FoamFile
{
    version     2.0;
    format      ascii;
    arch        "LSB;label=32;scalar=64";
    class       surfaceScalarField;
    location    "24.5";
    object      phi;
}
// * * * * * * * * * * * * * * * * * * * * * * * * * * * * * * * * * * * * * //

dimensions      [0 3 -1 0 0 0 0];

oriented        oriented;

internalField   nonuniform List<scalar> 
82026
(
1.36043e-09
1.47805e-09
-0.00108201
-1.43168e-09
-1.43166e-09
0.00108201
-0.00108219
-1.19795e-06
-1.51772e-09
2.55362e-09
0.00108219
-2.47378e-07
1.20038e-06
2.46361e-07
8.82465e-07
-2.45823e-07
-8.82188e-07
2.43146e-07
-0.00108185
-1.19256e-06
-1.58318e-09
2.51802e-09
0.00108185
-2.47357e-07
1.19499e-06
2.46384e-07
8.82312e-07
-2.48447e-07
-8.82049e-07
2.45855e-07
-0.00026597
1.22611e-06
1.19268e-06
-2.26804e-07
-2.32062e-07
0.00026401
1.49175e-09
1.63779e-09
-0.00108201
-1.51167e-09
-1.48056e-09
0.00108201
-0.00108219
-1.19792e-06
-1.67252e-09
2.50367e-09
0.00108219
-2.47343e-07
1.2004e-06
2.46389e-07
8.82492e-07
-2.4575e-07
-8.82156e-07
2.4321e-07
-0.00108185
-1.19253e-06
-1.72003e-09
2.46766e-09
0.00108185
-2.47322e-07
1.19501e-06
2.46419e-07
8.82343e-07
-2.48389e-07
-8.82023e-07
2.45917e-07
-0.00026597
1.22608e-06
1.19266e-06
-2.26776e-07
-2.32029e-07
0.00026401
1.68058e-09
1.84622e-09
-0.00108201
-1.60534e-09
-1.57175e-09
0.00108201
-0.00108219
-1.19788e-06
-1.89924e-09
2.42724e-09
0.00108219
-2.47293e-07
1.20044e-06
2.46445e-07
8.82565e-07
-2.45685e-07
-8.82097e-07
2.43295e-07
-0.00108185
-1.19249e-06
-2.00546e-09
2.32431e-09
0.00108185
-2.47267e-07
1.19507e-06
2.46486e-07
8.82412e-07
-2.48316e-07
-8.81965e-07
2.46008e-07
-0.00026597
1.22603e-06
1.19261e-06
-2.2672e-07
-2.31977e-07
0.00026401
1.67619e-09
1.79952e-09
-0.001082
-1.60629e-09
-1.59155e-09
0.001082
-0.00108219
-1.19788e-06
-1.89833e-09
2.40416e-09
0.00108219
-2.47295e-07
1.20046e-06
2.46471e-07
8.8257e-07
-2.45692e-07
-8.82121e-07
2.43317e-07
-0.00108185
-1.19248e-06
-2.21186e-09
2.22068e-09
0.00108185
-2.47259e-07
1.19513e-06
2.4656e-07
8.82499e-07
-2.48298e-07
-8.81951e-07
2.46094e-07
-0.000265969
1.22604e-06
1.19261e-06
-2.2673e-07
-2.31991e-07
0.000264009
1.11865e-09
8.40285e-10
-0.001082
-1.15789e-09
-1.45553e-09
0.001082
-0.00108219
-1.19792e-06
-6.15183e-10
2.47391e-09
0.00108219
-2.47398e-07
1.20035e-06
2.46305e-07
8.82117e-07
-2.46039e-07
-8.82499e-07
2.42873e-07
-0.00108184
-1.19285e-06
-1.81722e-10
3.16221e-09
0.00108185
-2.47721e-07
1.19468e-06
2.46023e-07
8.81859e-07
-2.4891e-07
-8.82489e-07
2.45348e-07
-0.000265969
1.22644e-06
1.193e-06
-2.27154e-07
-2.32414e-07
0.000264009
6.10703e-10
9.92343e-10
-0.00108201
-1.15519e-09
-9.51788e-10
0.00108201
-0.00108219
-1.19817e-06
-1.14176e-09
2.95113e-09
0.00108219
-2.47625e-07
1.20031e-06
2.46284e-07
8.82419e-07
-2.46258e-07
-8.82415e-07
2.42941e-07
-0.00108185
-1.19263e-06
-1.54468e-09
2.56483e-09
0.00108185
-2.47434e-07
1.19503e-06
2.46445e-07
8.82331e-07
-2.48729e-07
-8.82198e-07
2.45779e-07
-0.00026597
1.22612e-06
1.19274e-06
-2.26903e-07
-2.32117e-07
0.00026401
1.46088e-09
1.6007e-09
-0.00108201
-1.50172e-09
-1.47984e-09
0.00108201
-0.00108219
-1.19794e-06
-1.62765e-09
2.46431e-09
0.00108219
-2.4737e-07
1.20046e-06
2.46455e-07
8.82526e-07
-2.45874e-07
-8.8224e-07
2.43219e-07
-0.00108185
-1.19257e-06
-1.65097e-09
2.49232e-09
0.00108185
-2.4738e-07
1.19504e-06
2.46448e-07
8.82358e-07
-2.4852e-07
-8.82112e-07
2.45904e-07
-0.00026597
1.22611e-06
1.1927e-06
-2.26818e-07
-2.32066e-07
0.00026401
1.40609e-09
1.50249e-09
-0.00108201
-1.44773e-09
-1.46378e-09
0.00108201
-0.00108219
-1.19796e-06
-1.52161e-09
2.49806e-09
0.00108219
-2.47399e-07
1.20044e-06
2.4643e-07
8.82503e-07
-2.45904e-07
-8.82267e-07
2.4319e-07
-0.00108185
-1.19259e-06
-1.54617e-09
2.51645e-09
0.00108185
-2.47396e-07
1.19503e-06
2.46436e-07
8.82333e-07
-2.48546e-07
-8.8214e-07
2.45878e-07
-0.00026597
1.22614e-06
1.19271e-06
-2.26836e-07
-2.32094e-07
0.00026401
1.38934e-09
1.48521e-09
-0.00108201
-1.43719e-09
-1.45467e-09
0.00108201
-0.00108219
-1.19797e-06
-1.50013e-09
2.50935e-09
0.00108219
-2.47405e-07
1.20044e-06
2.46424e-07
8.82499e-07
-2.45909e-07
-8.8227e-07
2.43185e-07
-0.00108185
-1.19259e-06
-1.53207e-09
2.52338e-09
0.00108185
-2.47399e-07
1.19503e-06
2.46433e-07
8.82331e-07
-2.48551e-07
-8.82143e-07
2.45874e-07
-0.00026597
1.22614e-06
1.19272e-06
-2.26839e-07
-2.32099e-07
0.00026401
1.3868e-09
1.47935e-09
-0.00108201
-1.43276e-09
-1.45404e-09
0.00108201
-0.00108219
-1.19797e-06
-1.49856e-09
2.51027e-09
0.00108219
-2.47405e-07
1.20044e-06
2.46424e-07
8.825e-07
-2.45909e-07
-8.8227e-07
2.43185e-07
-0.00108185
-1.19259e-06
-1.52638e-09
2.52797e-09
0.00108185
-2.47399e-07
1.19503e-06
2.46433e-07
8.8233e-07
-2.48552e-07
-8.82144e-07
2.45873e-07
-0.00026597
1.22615e-06
1.19272e-06
-2.2684e-07
-2.32099e-07
0.00026401
1.3814e-09
1.47155e-09
-0.00108201
-1.4272e-09
-1.45041e-09
0.00108201
-0.00108219
-1.19797e-06
-1.49689e-09
2.51168e-09
0.00108219
-2.47405e-07
1.20044e-06
2.46424e-07
8.82499e-07
-2.45909e-07
-8.82271e-07
2.43184e-07
-0.00108185
-1.19259e-06
-1.51906e-09
2.53511e-09
0.00108185
-2.47402e-07
1.19502e-06
2.46429e-07
8.82329e-07
-2.48555e-07
-8.82145e-07
2.45871e-07
-0.00026597
1.22615e-06
1.19272e-06
-2.26841e-07
-2.32101e-07
0.00026401
1.37933e-09
1.47365e-09
-0.00108201
-1.42859e-09
-1.44733e-09
0.00108201
-0.00108219
-1.19797e-06
-1.49528e-09
2.51538e-09
0.00108219
-2.47407e-07
1.20043e-06
2.46423e-07
8.82499e-07
-2.4591e-07
-8.82271e-07
2.43185e-07
-0.00108185
-1.19259e-06
-1.52865e-09
2.5321e-09
0.00108185
-2.474e-07
1.19503e-06
2.46432e-07
8.8233e-07
-2.48553e-07
-8.82144e-07
2.45873e-07
-0.00026597
1.22615e-06
1.19272e-06
-2.2684e-07
-2.32099e-07
0.00026401
1.38377e-09
1.47873e-09
-0.00108201
-1.43279e-09
-1.45098e-09
0.00108201
-0.00108219
-1.19797e-06
-1.49482e-09
2.51363e-09
0.00108219
-2.47406e-07
1.20043e-06
2.46423e-07
8.82499e-07
-2.45911e-07
-8.82272e-07
2.43184e-07
-0.00108185
-1.19259e-06
-1.53018e-09
2.53139e-09
0.00108185
-2.47401e-07
1.19503e-06
2.46433e-07
8.82331e-07
-2.48553e-07
-8.82144e-07
2.45874e-07
-0.00026597
1.22615e-06
1.19272e-06
-2.26842e-07
-2.321e-07
0.00026401
1.38705e-09
1.48162e-09
-0.00108201
-1.43283e-09
-1.45347e-09
0.00108201
-0.00108219
-1.19797e-06
-1.50571e-09
2.50835e-09
0.00108219
-2.47406e-07
1.20044e-06
2.46429e-07
8.82501e-07
-2.45908e-07
-8.82269e-07
2.43188e-07
-0.00108185
-1.19259e-06
-1.53031e-09
2.53084e-09
0.00108185
-2.47396e-07
1.19502e-06
2.4643e-07
8.82328e-07
-2.48549e-07
-8.82141e-07
2.45869e-07
-0.00026597
1.22614e-06
1.19272e-06
-2.26838e-07
-2.32097e-07
0.00026401
1.38891e-09
1.48573e-09
-0.00108201
-1.43566e-09
-1.45262e-09
0.00108201
-0.00108219
-1.19796e-06
-1.5078e-09
2.5099e-09
0.00108219
-2.47403e-07
1.20044e-06
2.46424e-07
8.82499e-07
-2.45902e-07
-8.82265e-07
2.43183e-07
-0.00108185
-1.19259e-06
-1.5389e-09
2.52698e-09
0.00108185
-2.47397e-07
1.19502e-06
2.4643e-07
8.82328e-07
-2.48547e-07
-8.82137e-07
2.4587e-07
-0.00026597
1.22614e-06
1.19271e-06
-2.26833e-07
-2.32092e-07
0.00026401
1.38574e-09
1.48553e-09
-0.00108201
-1.43509e-09
-1.45318e-09
0.00108201
-0.00108219
-1.19796e-06
-1.50509e-09
2.50863e-09
0.00108219
-2.47399e-07
1.20043e-06
2.46421e-07
8.82493e-07
-2.45897e-07
-8.82261e-07
2.43174e-07
-0.00108185
-1.19259e-06
-1.53481e-09
2.52575e-09
0.00108185
-2.47395e-07
1.19503e-06
2.4643e-07
8.82324e-07
-2.48543e-07
-8.82135e-07
2.45866e-07
-0.00026597
1.22614e-06
1.19271e-06
-2.26835e-07
-2.32094e-07
0.00026401
1.38488e-09
1.48234e-09
-0.00108201
-1.43263e-09
-1.45461e-09
0.00108201
-0.00108219
-1.19795e-06
-1.50419e-09
2.50699e-09
0.00108219
-2.47387e-07
1.20042e-06
2.46407e-07
8.82477e-07
-2.45875e-07
-8.82246e-07
2.43152e-07
-0.00108185
-1.19258e-06
-1.52759e-09
2.52732e-09
0.00108185
-2.4739e-07
1.19502e-06
2.46423e-07
8.82309e-07
-2.48531e-07
-8.82123e-07
2.45851e-07
-0.00026597
1.22614e-06
1.19271e-06
-2.26827e-07
-2.32087e-07
0.00026401
1.46676e-09
-0.00108201
-1.45567e-09
-0.00108185
-1.19257e-06
-1.52152e-09
-2.47365e-07
1.19499e-06
2.4639e-07
-2.48487e-07
2.4582e-07
-1.23384e-06
-1.19773e-06
0.000265986
-0.000264016
2.26677e-07
2.34456e-07
0.00108141
-1.38305e-09
2.67244e-09
-1.23144e-06
2.51699e-07
-2.52792e-07
-8.82175e-07
2.43021e-07
-2.45815e-07
8.82352e-07
1.23928e-06
0.00108185
-1.26777e-09
2.65716e-09
-1.23687e-06
2.54493e-07
-2.55567e-07
-8.87787e-07
2.45795e-07
-2.48667e-07
8.87914e-07
-1.20039e-06
0.000266015
-0.000264037
2.29458e-07
2.31747e-07
0.00108246
-1.48232e-09
2.54453e-09
-1.19534e-06
2.49147e-07
-2.50165e-07
-8.84926e-07
2.45871e-07
-2.48619e-07
8.85203e-07
1.23389e-06
0.00108152
-1.32648e-09
-0.00108152
2.6815e-09
-1.23151e-06
2.54468e-07
-2.5557e-07
-8.84916e-07
2.45804e-07
-2.48571e-07
8.85064e-07
-1.50518e-09
2.53359e-09
-1.19794e-06
2.46361e-07
-2.47371e-07
-8.82205e-07
2.43118e-07
8.82445e-07
-2.45844e-07
1.22851e-06
0.00108132
-1.36357e-09
-0.00108132
2.65206e-09
-1.22612e-06
2.4897e-07
-2.50011e-07
-8.82217e-07
2.43036e-07
-2.45811e-07
8.82377e-07
-1.19498e-06
0.000265965
-0.000263997
2.26879e-07
2.34253e-07
-1.54479e-09
-0.00108185
2.54345e-09
-1.19257e-06
2.46372e-07
-2.47372e-07
-8.82023e-07
2.45808e-07
8.82349e-07
-2.485e-07
1.19508e-06
0.00108236
-1.36656e-09
-0.00108236
2.52171e-09
-1.19269e-06
2.4642e-07
-2.47439e-07
-8.82329e-07
2.45867e-07
-2.48611e-07
8.82563e-07
-0.00026401
2.29197e-07
2.34489e-07
1.23144e-06
1.19535e-06
-2.24312e-07
-2.32039e-07
0.000264016
-1.23385e-06
-1.19774e-06
0.000265986
-0.000264016
2.26705e-07
2.3449e-07
2.67023e-09
0.00108141
-2.52796e-07
1.23384e-06
2.51703e-07
8.8236e-07
-2.45804e-07
-8.82175e-07
2.43041e-07
-1.23687e-06
-1.26579e-09
2.65814e-09
0.00108185
-2.55573e-07
1.23928e-06
2.54496e-07
8.8793e-07
-2.4865e-07
-8.87775e-07
2.45818e-07
0.00108141
-1.45962e-09
-0.00108141
2.62097e-09
-1.23142e-06
2.51725e-07
-2.52763e-07
-8.82141e-07
2.43085e-07
-2.45744e-07
8.82379e-07
1.23929e-06
0.00108185
-1.33791e-09
-0.00108185
2.60367e-09
-1.23685e-06
2.54519e-07
-2.55538e-07
-8.8775e-07
2.45858e-07
-2.48595e-07
8.87938e-07
-2.27031e-07
-2.29326e-07
0.000264037
-1.2004e-06
0.000266015
-0.000264036
2.29486e-07
2.31785e-07
2.56541e-09
0.00108246
-2.50173e-07
1.19773e-06
2.49147e-07
8.85222e-07
-2.48606e-07
-8.84908e-07
2.45894e-07
-1.2315e-06
-1.36463e-09
2.65053e-09
0.00108152
-2.55553e-07
1.2339e-06
2.54481e-07
8.85078e-07
-2.48541e-07
-8.84891e-07
2.45825e-07
0.00108246
-1.60145e-09
-0.00108246
2.53227e-09
-1.19533e-06
2.49168e-07
-2.50142e-07
-8.84883e-07
2.45944e-07
-2.48539e-07
8.85235e-07
1.23391e-06
0.00108152
-1.46973e-09
-0.00108152
2.57661e-09
-1.23148e-06
2.54502e-07
-2.55526e-07
-8.84871e-07
2.45865e-07
-2.48498e-07
8.851e-07
-1.40765e-09
2.61942e-09
0.00108132
-2.49995e-07
1.22852e-06
2.4898e-07
8.82392e-07
-2.45781e-07
2.43058e-07
-8.82194e-07
-1.63993e-09
-0.00108219
2.52436e-09
-1.19793e-06
2.4638e-07
-2.47349e-07
-8.8216e-07
2.43195e-07
8.82481e-07
-2.45763e-07
1.22854e-06
0.00108132
-1.50597e-09
-0.00108132
2.55233e-09
-1.22609e-06
2.49006e-07
-2.49966e-07
-8.82183e-07
2.43096e-07
-2.4574e-07
8.824e-07
-2.24472e-07
-2.31838e-07
0.000263997
-1.195e-06
0.000265965
-0.000263997
2.26913e-07
2.34286e-07
-1.40224e-09
2.49607e-09
0.00108236
-2.47423e-07
1.19509e-06
2.46429e-07
8.82581e-07
-2.4858e-07
2.45889e-07
-8.82303e-07
-1.71272e-09
-0.00108185
2.47937e-09
-1.19254e-06
2.46402e-07
-2.47333e-07
-8.81984e-07
2.45872e-07
8.82377e-07
-2.48426e-07
1.1951e-06
0.00108236
-1.54343e-09
-0.00108236
2.45053e-09
-1.19266e-06
2.4645e-07
-2.47398e-07
-8.82279e-07
2.45931e-07
-2.48536e-07
8.82604e-07
-0.00026401
2.29228e-07
2.34525e-07
1.23142e-06
1.19532e-06
-2.24279e-07
-2.32001e-07
0.000264015
-1.23388e-06
-1.19778e-06
0.000265986
-0.000264015
2.26751e-07
2.34536e-07
2.59414e-09
0.00108141
-2.52756e-07
1.23386e-06
2.51733e-07
8.82393e-07
-2.45735e-07
-8.82134e-07
2.431e-07
-1.23684e-06
-1.39148e-09
2.58511e-09
0.00108185
-2.55532e-07
1.2393e-06
2.54526e-07
8.87951e-07
-2.48582e-07
-8.87744e-07
2.45876e-07
0.00108141
-1.56859e-09
-0.00108141
2.58168e-09
-1.23139e-06
2.51777e-07
-2.52724e-07
-8.82099e-07
2.43154e-07
-2.45691e-07
8.82431e-07
1.23932e-06
0.00108184
-1.45435e-09
-0.00108185
2.57594e-09
-1.23683e-06
2.54569e-07
-2.55501e-07
-8.87711e-07
2.45929e-07
-2.48542e-07
8.87994e-07
-2.26998e-07
-2.29286e-07
0.000264036
-1.20043e-06
0.000266015
-0.000264036
2.29533e-07
2.31822e-07
2.51752e-09
0.00108246
-2.50137e-07
1.19775e-06
2.49174e-07
8.85248e-07
-2.48531e-07
-8.84872e-07
2.45958e-07
-1.23147e-06
-1.49383e-09
2.57287e-09
0.00108152
-2.55516e-07
1.23392e-06
2.54518e-07
8.85122e-07
-2.48481e-07
-8.84852e-07
2.45889e-07
0.00108246
-1.71837e-09
-0.00108246
2.48594e-09
-1.1953e-06
2.49222e-07
-2.50101e-07
-8.84846e-07
2.46013e-07
-2.48486e-07
8.85286e-07
1.23395e-06
0.00108152
-1.63299e-09
-0.00108152
2.52282e-09
-1.23145e-06
2.54555e-07
-2.55478e-07
-8.84833e-07
2.45934e-07
-2.48442e-07
8.85146e-07
-1.52114e-09
2.54326e-09
0.00108132
-2.49954e-07
1.22855e-06
2.49021e-07
8.82419e-07
-2.45725e-07
2.43116e-07
-8.82171e-07
-1.75175e-09
-0.00108219
2.48969e-09
-1.1979e-06
2.46432e-07
-2.47308e-07
-8.82128e-07
2.43259e-07
8.82534e-07
-2.45719e-07
1.22857e-06
0.00108132
-1.68358e-09
-0.00108132
2.49402e-09
-1.22605e-06
2.49056e-07
-2.49919e-07
-8.82134e-07
2.4317e-07
-2.4568e-07
8.82462e-07
-2.2444e-07
-2.31809e-07
0.000263997
-1.19503e-06
0.000265965
-0.000263997
2.26967e-07
2.34345e-07
-1.55685e-09
2.4411e-09
0.00108236
-2.47389e-07
1.19511e-06
2.46464e-07
8.82627e-07
-2.48518e-07
2.45954e-07
-8.8226e-07
-1.89216e-09
-0.00108185
2.41704e-09
-1.19251e-06
2.46455e-07
-2.47285e-07
-8.81938e-07
2.45946e-07
8.82436e-07
-2.48365e-07
1.19513e-06
0.00108236
-1.72609e-09
-0.00108236
2.39485e-09
-1.19263e-06
2.46502e-07
-2.47351e-07
-8.82237e-07
2.46004e-07
-2.48476e-07
8.82655e-07
-0.00026401
2.29285e-07
2.3458e-07
1.23138e-06
1.19528e-06
-2.24233e-07
-2.31955e-07
0.000264015
-1.23391e-06
-1.19782e-06
0.000265985
-0.000264015
2.26829e-07
2.34598e-07
2.52627e-09
0.00108141
-2.52703e-07
1.2339e-06
2.51791e-07
8.82448e-07
-2.4567e-07
-8.82088e-07
2.4318e-07
-1.23681e-06
-1.59634e-09
2.51619e-09
0.00108184
-2.55481e-07
1.23934e-06
2.54583e-07
8.88021e-07
-2.48515e-07
-8.87688e-07
2.45959e-07
0.00108141
-1.63674e-09
-0.00108141
2.59197e-09
-1.23135e-06
2.51802e-07
-2.52692e-07
-8.82045e-07
2.43227e-07
-2.4563e-07
8.82499e-07
1.23934e-06
0.00108184
-1.53628e-09
-0.00108184
2.60506e-09
-1.23679e-06
2.54591e-07
-2.55471e-07
-8.87658e-07
2.46e-07
-2.48482e-07
8.88059e-07
-2.26954e-07
-2.29246e-07
0.000264036
-1.20046e-06
0.000266014
-0.000264036
2.296e-07
2.31883e-07
2.43788e-09
0.00108246
-2.50083e-07
1.19779e-06
2.49234e-07
8.85317e-07
-2.48463e-07
-8.84818e-07
2.46043e-07
-1.23142e-06
-1.76813e-09
2.43744e-09
0.00108152
-2.55458e-07
1.23398e-06
2.54585e-07
8.85181e-07
-2.48413e-07
-8.84807e-07
2.45977e-07
0.00108245
-1.71156e-09
-0.00108245
2.43951e-09
-1.19525e-06
2.49259e-07
-2.50061e-07
-8.8481e-07
2.46071e-07
-2.48439e-07
8.85332e-07
1.23392e-06
0.00108152
-1.63729e-09
-0.00108152
2.62213e-09
-1.23146e-06
2.54536e-07
-2.55503e-07
-8.84816e-07
2.45962e-07
-2.48428e-07
8.85168e-07
-1.81527e-09
2.40627e-09
0.00108132
-2.49903e-07
1.2286e-06
2.49083e-07
8.82494e-07
-2.45651e-07
2.43212e-07
-8.82108e-07
-1.71328e-09
-0.00108219
2.44484e-09
-1.19786e-06
2.46459e-07
-2.47281e-07
-8.82095e-07
2.43304e-07
8.8256e-07
-2.45677e-07
1.22854e-06
0.00108132
-1.64658e-09
-0.00108132
2.60924e-09
-1.22607e-06
2.49031e-07
-2.49951e-07
-8.82131e-07
2.43187e-07
-2.45677e-07
8.82467e-07
-2.24388e-07
-2.31752e-07
0.000263997
-1.19502e-06
0.000265964
-0.000263996
2.26983e-07
2.3435e-07
-1.84539e-09
2.30542e-09
0.00108236
-2.47334e-07
1.19517e-06
2.46531e-07
8.8269e-07
-2.48447e-07
2.46047e-07
-8.82212e-07
-1.82701e-09
-0.00108185
2.46369e-09
-1.19251e-06
2.46444e-07
-2.47303e-07
-8.8194e-07
2.45959e-07
8.82437e-07
-2.48365e-07
1.19511e-06
0.00108236
-1.66273e-09
-0.00108236
2.46477e-09
-1.19264e-06
2.46484e-07
-2.47377e-07
-8.82236e-07
2.46019e-07
-2.48475e-07
8.8266e-07
-0.000264009
2.29294e-07
2.34582e-07
1.23139e-06
1.19528e-06
-2.242e-07
-2.31944e-07
0.000264015
-1.23399e-06
-1.19796e-06
0.000265985
-0.000264014
2.26948e-07
2.34665e-07
2.59026e-09
0.00108141
-2.52732e-07
1.23387e-06
2.51773e-07
8.82468e-07
-2.4566e-07
-8.82076e-07
2.43208e-07
-1.23683e-06
-1.59648e-09
2.58941e-09
0.00108184
-2.55513e-07
1.23931e-06
2.54563e-07
8.88039e-07
-2.48503e-07
-8.87678e-07
2.45993e-07
0.00108141
-2.07997e-09
-0.00108141
2.47993e-09
-1.23127e-06
2.5186e-07
-2.52632e-07
-8.81923e-07
2.43341e-07
-2.45527e-07
8.82619e-07
1.23939e-06
0.00108184
-2.00209e-09
-0.00108184
2.57726e-09
-1.23673e-06
2.54624e-07
-2.5543e-07
-8.87536e-07
2.46116e-07
-2.48377e-07
8.88178e-07
-2.26922e-07
-2.29239e-07
0.000264035
-1.2006e-06
0.000266013
-0.000264035
2.29722e-07
2.31909e-07
2.44385e-09
0.00108245
-2.50092e-07
1.19779e-06
2.49242e-07
8.85311e-07
-2.48467e-07
-8.8483e-07
2.46056e-07
-1.23143e-06
-1.96781e-09
2.37429e-09
0.00108152
-2.55466e-07
1.23403e-06
2.54643e-07
8.85271e-07
-2.48392e-07
-8.84784e-07
2.46066e-07
0.00108245
-1.7742e-09
-0.00108245
2.00583e-09
-1.19511e-06
2.49367e-07
-2.49954e-07
-8.84764e-07
2.46107e-07
-2.484e-07
8.85357e-07
1.23375e-06
0.00108152
-1.0518e-09
-0.00108152
3.27716e-09
-1.23157e-06
2.54309e-07
-2.55669e-07
-8.84935e-07
2.45745e-07
-2.48574e-07
8.84986e-07
-2.00785e-09
2.3311e-09
0.00108132
-2.49907e-07
1.22866e-06
2.4915e-07
8.82575e-07
-2.45634e-07
2.43298e-07
-8.82099e-07
-1.52929e-09
-0.00108219
2.03256e-09
-1.19773e-06
2.46567e-07
-2.4718e-07
-8.82134e-07
2.4326e-07
8.82477e-07
-2.45699e-07
1.22838e-06
0.00108131
-9.46082e-10
-0.00108131
3.23494e-09
-1.22618e-06
2.48805e-07
-2.50117e-07
-8.82278e-07
2.42937e-07
-2.45843e-07
8.82245e-07
-2.24391e-07
-2.31766e-07
0.000263996
-1.19488e-06
0.000265963
-0.000263996
2.26795e-07
2.3414e-07
-2.04973e-09
2.22086e-09
0.00108236
-2.47332e-07
1.19523e-06
2.46601e-07
8.82774e-07
-2.48429e-07
2.46133e-07
-8.82198e-07
-9.75076e-10
-0.00108185
2.82651e-09
-1.1926e-06
2.46244e-07
-2.47445e-07
-8.82075e-07
2.45709e-07
8.82222e-07
-2.48527e-07
1.19496e-06
0.00108236
-8.09025e-10
-0.00108236
2.881e-09
-1.19274e-06
2.46272e-07
-2.47526e-07
-8.82384e-07
2.45758e-07
-2.48649e-07
8.82432e-07
-0.000264009
2.29084e-07
2.34373e-07
1.2315e-06
1.19533e-06
-2.24243e-07
-2.3204e-07
0.000264014
-1.23367e-06
-1.19752e-06
0.000265986
-0.000264015
2.26353e-07
2.34175e-07
3.00167e-09
0.00108141
-2.5289e-07
1.23371e-06
2.51554e-07
8.82243e-07
-2.45819e-07
-8.82221e-07
2.42959e-07
-1.23698e-06
-1.08548e-09
3.09808e-09
0.00108184
-2.55701e-07
1.2391e-06
2.54311e-07
8.87821e-07
-2.48655e-07
-8.87819e-07
2.45753e-07
0.00108141
-8.44166e-11
-0.00108141
3.04536e-09
-1.23176e-06
2.51508e-07
-2.53168e-07
-8.82726e-07
2.425e-07
-2.4654e-07
8.82e-07
1.23914e-06
0.00108185
3.03536e-11
-0.00108184
2.97748e-09
-1.23716e-06
2.54321e-07
-2.55926e-07
-8.88331e-07
2.45277e-07
-2.4938e-07
8.87563e-07
-2.26962e-07
-2.29385e-07
0.000264035
-1.20016e-06
0.000266015
-0.000264036
2.29122e-07
2.31497e-07
2.51148e-09
0.00108245
-2.50197e-07
1.19768e-06
2.49075e-07
8.84982e-07
-2.48713e-07
-8.8508e-07
2.45718e-07
-1.23184e-06
-2.45765e-10
3.62269e-09
0.00108152
-2.55959e-07
1.23354e-06
2.54076e-07
8.84687e-07
-2.48961e-07
-8.85278e-07
2.45373e-07
0.00108246
-4.57641e-10
-0.00108245
3.18284e-09
-1.19569e-06
2.48917e-07
-2.50569e-07
-8.85428e-07
2.454e-07
-2.4931e-07
8.84916e-07
1.23392e-06
0.00108152
-6.51069e-10
-0.00108152
2.53432e-09
-1.23163e-06
2.54502e-07
-2.55715e-07
-8.85287e-07
2.45499e-07
-2.49101e-07
8.84888e-07
-1.03857e-10
3.51747e-09
0.00108131
-2.50396e-07
1.22818e-06
2.48589e-07
8.81931e-07
-2.4625e-07
2.42552e-07
-8.82647e-07
-6.3097e-10
-0.00108219
3.19941e-09
-1.19831e-06
2.4611e-07
-2.4779e-07
-8.82607e-07
2.42702e-07
8.82255e-07
-2.46487e-07
1.22854e-06
0.00108132
-7.58303e-10
-0.00108132
2.56501e-09
-1.22624e-06
2.48997e-07
-2.50157e-07
-8.82565e-07
2.42754e-07
-2.46321e-07
8.82228e-07
-2.24788e-07
-2.32193e-07
0.000263996
-1.19494e-06
0.000265965
-0.000263997
2.26763e-07
2.342e-07
-3.01295e-11
3.20614e-09
0.00108236
-2.47808e-07
1.19475e-06
2.46051e-07
8.82136e-07
-2.49049e-07
2.45386e-07
-8.82745e-07
-1.14734e-09
-0.00108185
2.74311e-09
-1.19275e-06
2.46339e-07
-2.47572e-07
-8.82325e-07
2.45566e-07
8.8225e-07
-2.48975e-07
1.19505e-06
0.00108236
-9.72346e-10
-0.00108236
2.68024e-09
-1.19286e-06
2.46397e-07
-2.4763e-07
-8.82614e-07
2.45628e-07
-2.49078e-07
8.82471e-07
-0.00026401
2.29098e-07
2.34434e-07
1.23159e-06
1.19555e-06
-2.24598e-07
-2.32274e-07
0.000264015
-1.23393e-06
-1.19781e-06
0.000265986
-0.000264016
2.26754e-07
2.34547e-07
2.77792e-09
0.00108141
-2.52975e-07
1.23383e-06
2.51696e-07
8.82197e-07
-2.4634e-07
-8.82539e-07
2.42738e-07
-1.237e-06
-5.16549e-10
2.71072e-09
0.00108185
-2.55731e-07
1.23929e-06
2.54507e-07
8.87765e-07
-2.49186e-07
-8.88141e-07
2.45513e-07
0.00108141
-1.46765e-09
-0.00108141
2.54728e-09
-1.23142e-06
2.51819e-07
-2.52765e-07
-8.82203e-07
2.43105e-07
-2.45876e-07
8.82443e-07
1.23937e-06
0.00108185
-1.33637e-09
-0.00108185
2.5293e-09
-1.23684e-06
2.54614e-07
-2.55537e-07
-8.87822e-07
2.45872e-07
-2.48735e-07
8.87995e-07
-2.2733e-07
-2.29532e-07
0.000264036
-1.20047e-06
0.000266015
-0.000264037
2.29535e-07
2.31843e-07
2.93893e-09
0.00108246
-2.50402e-07
1.19767e-06
2.49085e-07
8.85129e-07
-2.4908e-07
-8.85201e-07
2.45655e-07
-1.2315e-06
-1.06132e-09
2.36727e-09
0.00108152
-2.55559e-07
1.23401e-06
2.54614e-07
8.8503e-07
-2.4889e-07
-8.85118e-07
2.45688e-07
0.00108246
-1.63434e-09
-0.00108246
2.48376e-09
-1.19534e-06
2.4925e-07
-2.5016e-07
-8.8494e-07
2.45975e-07
-2.48654e-07
8.853e-07
1.23397e-06
0.00108152
-1.41722e-09
-0.00108152
2.53291e-09
-1.23149e-06
2.54578e-07
-2.5554e-07
-8.84957e-07
2.45864e-07
-2.48635e-07
8.85131e-07
-1.16339e-09
2.39316e-09
0.00108132
-2.50012e-07
1.22862e-06
2.49102e-07
8.82362e-07
-2.46107e-07
2.42937e-07
-8.82395e-07
-1.6637e-09
-0.00108219
2.47733e-09
-1.19794e-06
2.46465e-07
-2.47365e-07
-8.82236e-07
2.43222e-07
8.82533e-07
-2.45883e-07
1.2286e-06
0.00108132
-1.4643e-09
-0.00108132
2.50604e-09
-1.22609e-06
2.4908e-07
-2.49981e-07
-8.82261e-07
2.43099e-07
-2.45871e-07
8.8244e-07
-2.24585e-07
-2.31887e-07
0.000263997
-1.19505e-06
0.000265965
-0.000263997
2.26942e-07
2.34328e-07
-1.37109e-09
2.50752e-09
0.00108236
-2.47492e-07
1.19514e-06
2.46499e-07
8.82598e-07
-2.48862e-07
2.45811e-07
-8.8245e-07
-1.7103e-09
-0.00108185
2.47742e-09
-1.19257e-06
2.46461e-07
-2.47368e-07
-8.82051e-07
2.45889e-07
8.82424e-07
-2.48539e-07
1.19515e-06
0.00108236
-1.51991e-09
-0.00108236
2.44515e-09
-1.19269e-06
2.46507e-07
-2.47434e-07
-8.82349e-07
2.45947e-07
-2.48648e-07
8.82643e-07
-0.00026401
2.29259e-07
2.34566e-07
1.23143e-06
1.19534e-06
-2.24299e-07
-2.32019e-07
0.000264016
-1.23389e-06
-1.19779e-06
0.000265986
-0.000264016
2.26729e-07
2.34504e-07
2.57144e-09
0.00108141
-2.52779e-07
1.23391e-06
2.518e-07
8.82433e-07
-2.45856e-07
-8.82206e-07
2.43112e-07
-1.23686e-06
-1.35938e-09
2.56708e-09
0.00108185
-2.55557e-07
1.23935e-06
2.54591e-07
8.87995e-07
-2.48707e-07
-8.87817e-07
2.45885e-07
0.00108141
-1.4477e-09
-0.00108141
2.63621e-09
-1.23146e-06
2.51767e-07
-2.5282e-07
-8.82218e-07
2.43102e-07
-2.45861e-07
8.82424e-07
1.23932e-06
0.00108185
-1.32796e-09
-0.00108185
2.6348e-09
-1.23689e-06
2.54558e-07
-2.55598e-07
-8.87832e-07
2.45874e-07
-2.48714e-07
8.87983e-07
-2.2702e-07
-2.29306e-07
0.000264036
-1.20044e-06
0.000266015
-0.000264036
2.29511e-07
2.31791e-07
2.47905e-09
0.00108246
-2.50165e-07
1.19781e-06
2.4924e-07
8.85288e-07
-2.48648e-07
-8.84945e-07
2.45971e-07
-1.23151e-06
-1.4054e-09
2.60203e-09
0.00108152
-2.55563e-07
1.23396e-06
2.54555e-07
8.85129e-07
-2.48629e-07
-8.84957e-07
2.45866e-07
0.00108246
-1.53124e-09
-0.00108246
2.50057e-09
-1.19536e-06
2.49219e-07
-2.5019e-07
-8.84978e-07
2.4595e-07
-2.48666e-07
8.85265e-07
1.23394e-06
0.00108152
-1.36746e-09
-0.00108152
2.66396e-09
-1.23153e-06
2.54529e-07
-2.55597e-07
-8.8497e-07
2.45855e-07
-2.48638e-07
8.85118e-07
-1.43889e-09
2.56569e-09
0.00108132
-2.50004e-07
1.22858e-06
2.49057e-07
8.82433e-07
-2.45869e-07
2.43094e-07
-8.82266e-07
-1.54095e-09
-0.00108219
2.4941e-09
-1.19796e-06
2.46432e-07
-2.47397e-07
-8.82262e-07
2.43192e-07
8.82507e-07
-2.45902e-07
1.22856e-06
0.00108132
-1.39521e-09
-0.00108132
2.63305e-09
-1.22614e-06
2.49033e-07
-2.50035e-07
-8.82279e-07
2.43085e-07
-2.4588e-07
8.82424e-07
-2.24484e-07
-2.31844e-07
0.000263997
-1.19503e-06
0.000265965
-0.000263997
2.26924e-07
2.34291e-07
-1.48589e-09
2.46789e-09
0.00108236
-2.47448e-07
1.19514e-06
2.46492e-07
8.82632e-07
-2.4865e-07
2.45938e-07
-8.82353e-07
-1.57129e-09
-0.00108185
2.51606e-09
-1.19259e-06
2.46436e-07
-2.47396e-07
-8.82087e-07
2.4586e-07
8.82393e-07
-2.48566e-07
1.19513e-06
0.00108236
-1.39077e-09
-0.00108236
2.49635e-09
-1.19271e-06
2.4648e-07
-2.47467e-07
-8.82384e-07
2.45916e-07
-2.48676e-07
8.82612e-07
-0.00026401
2.29237e-07
2.3453e-07
1.23146e-06
1.19536e-06
-2.24324e-07
-2.32057e-07
0.000264016
-1.23388e-06
-1.19779e-06
0.000265986
-0.000264016
2.26724e-07
2.345e-07
2.64217e-09
0.00108141
-2.52822e-07
1.23389e-06
2.51765e-07
8.82413e-07
-2.4587e-07
-8.82231e-07
2.43094e-07
-1.2369e-06
-1.31531e-09
2.64277e-09
0.00108185
-2.55601e-07
1.23932e-06
2.54555e-07
8.8798e-07
-2.48715e-07
-8.87835e-07
2.45872e-07
0.00108141
-1.42151e-09
-0.00108141
2.65185e-09
-1.23147e-06
2.51761e-07
-2.52827e-07
-8.82226e-07
2.43095e-07
-2.45869e-07
8.82417e-07
1.23932e-06
0.00108185
-1.30235e-09
-0.00108185
2.65079e-09
-1.2369e-06
2.54552e-07
-2.55605e-07
-8.87839e-07
2.45868e-07
-2.48721e-07
8.87976e-07
-2.27044e-07
-2.29349e-07
0.000264036
-1.20044e-06
0.000266015
-0.000264036
2.29504e-07
2.31787e-07
2.51375e-09
0.00108246
-2.50194e-07
1.19779e-06
2.49215e-07
8.85262e-07
-2.48675e-07
-8.84978e-07
2.45944e-07
-1.23153e-06
-1.36186e-09
2.67468e-09
0.00108152
-2.55596e-07
1.23393e-06
2.54529e-07
8.85118e-07
-2.48638e-07
-8.84971e-07
2.45857e-07
0.00108246
-1.50259e-09
-0.00108246
2.51515e-09
-1.19536e-06
2.49213e-07
-2.50197e-07
-8.84985e-07
2.45943e-07
-2.48674e-07
8.85259e-07
1.23393e-06
0.00108152
-1.35044e-09
-0.00108152
2.67425e-09
-1.23154e-06
2.54525e-07
-2.55601e-07
-8.84974e-07
2.45852e-07
-2.48641e-07
8.85113e-07
-1.38698e-09
2.64033e-09
0.00108132
-2.50036e-07
1.22856e-06
2.4903e-07
8.82421e-07
-2.45881e-07
2.43083e-07
-8.82281e-07
-1.5083e-09
-0.00108219
2.51038e-09
-1.19797e-06
2.46424e-07
-2.47405e-07
-8.82268e-07
2.43185e-07
8.82501e-07
-2.45909e-07
1.22856e-06
0.00108132
-1.37519e-09
-0.00108132
2.64681e-09
-1.22614e-06
2.49028e-07
-2.5004e-07
-8.82283e-07
2.43081e-07
-2.45883e-07
8.82419e-07
-2.24499e-07
-2.31872e-07
0.000263997
-1.19503e-06
0.000265965
-0.000263997
2.2692e-07
2.34288e-07
-1.37279e-09
2.50073e-09
0.00108236
-2.47467e-07
1.19513e-06
2.46478e-07
8.82607e-07
-2.48678e-07
2.45911e-07
-8.8238e-07
-1.54448e-09
-0.00108185
2.52432e-09
-1.19259e-06
2.46433e-07
-2.47399e-07
-8.82091e-07
2.45852e-07
8.82387e-07
-2.48572e-07
1.19512e-06
0.00108236
-1.36659e-09
-0.00108236
2.507e-09
-1.19272e-06
2.46476e-07
-2.47469e-07
-8.82384e-07
2.45909e-07
-2.48682e-07
8.82606e-07
-0.00026401
2.29234e-07
2.34525e-07
1.23147e-06
1.19536e-06
-2.24328e-07
-2.3206e-07
0.000264016
-1.23388e-06
-1.19778e-06
0.000265986
-0.000264016
2.26723e-07
2.34499e-07
2.6508e-09
0.00108141
-2.52825e-07
1.23388e-06
2.51762e-07
8.82409e-07
-2.45874e-07
-8.82235e-07
2.43091e-07
-1.2369e-06
-1.2984e-09
2.65222e-09
0.00108185
-2.55605e-07
1.23932e-06
2.54551e-07
8.87976e-07
-2.48719e-07
-8.87839e-07
2.45869e-07
0.00108141
-1.41846e-09
-0.00108141
2.65421e-09
-1.23147e-06
2.5176e-07
-2.52828e-07
-8.82227e-07
2.43094e-07
-2.4587e-07
8.82417e-07
1.23932e-06
0.00108185
-1.30082e-09
-0.00108185
2.65042e-09
-1.2369e-06
2.54552e-07
-2.55606e-07
-8.87839e-07
2.45867e-07
-2.48721e-07
8.87976e-07
-2.27049e-07
-2.29352e-07
0.000264036
-1.20044e-06
0.000266015
-0.000264036
2.29503e-07
2.31787e-07
2.52351e-09
0.00108246
-2.50198e-07
1.19778e-06
2.49212e-07
8.85258e-07
-2.48679e-07
-8.84982e-07
2.4594e-07
-1.23154e-06
-1.34834e-09
2.681e-09
0.00108152
-2.556e-07
1.23393e-06
2.54525e-07
8.85114e-07
-2.4864e-07
-8.84974e-07
2.45854e-07
0.00108246
-1.49714e-09
-0.00108246
2.5177e-09
-1.19536e-06
2.49212e-07
-2.50198e-07
-8.84986e-07
2.45942e-07
-2.48675e-07
8.85258e-07
1.23393e-06
0.00108152
-1.34585e-09
-0.00108152
2.67535e-09
-1.23154e-06
2.54525e-07
-2.55602e-07
-8.84975e-07
2.45851e-07
-2.48642e-07
8.85112e-07
-1.3701e-09
2.64895e-09
0.00108132
-2.50041e-07
1.22856e-06
2.49026e-07
8.82417e-07
-2.45884e-07
2.43079e-07
-8.82285e-07
-1.50583e-09
-0.00108219
2.5113e-09
-1.19797e-06
2.46424e-07
-2.47406e-07
-8.82269e-07
2.43185e-07
8.82501e-07
-2.4591e-07
1.22856e-06
0.00108132
-1.37331e-09
-0.00108132
2.64852e-09
-1.22615e-06
2.49027e-07
-2.50041e-07
-8.82284e-07
2.43081e-07
-2.45883e-07
8.82419e-07
-2.24502e-07
-2.31875e-07
0.000263997
-1.19503e-06
0.000265965
-0.000263997
2.26919e-07
2.34287e-07
-1.35351e-09
2.50834e-09
0.00108236
-2.47469e-07
1.19512e-06
2.46475e-07
8.82604e-07
-2.48683e-07
2.45906e-07
-8.82386e-07
-1.54043e-09
-0.00108185
2.52853e-09
-1.19259e-06
2.46432e-07
-2.474e-07
-8.82092e-07
2.45851e-07
8.82386e-07
-2.48573e-07
1.19512e-06
0.00108236
-1.36043e-09
-0.00108236
2.50981e-09
-1.19272e-06
2.46475e-07
-2.47471e-07
-8.82384e-07
2.45907e-07
-2.48684e-07
8.82605e-07
-0.00026401
2.29233e-07
2.34524e-07
1.23147e-06
1.19537e-06
-2.24329e-07
-2.3206e-07
0.000264016
-1.23388e-06
-1.19778e-06
0.000265986
-0.000264016
2.26722e-07
2.34498e-07
2.65322e-09
0.00108141
-2.52826e-07
1.23388e-06
2.51762e-07
8.82408e-07
-2.45875e-07
-8.82236e-07
2.4309e-07
-1.2369e-06
-1.29646e-09
2.65173e-09
0.00108185
-2.55605e-07