/*--------------------------------*- C++ -*----------------------------------*\
| =========                 |                                                 |
| \\      /  F ield         | OpenFOAM: The Open Source CFD Toolbox           |
|  \\    /   O peration     | Version:  2206                                  |
|   \\  /    A nd           | Website:  www.openfoam.com                      |
|    \\/     M anipulation  |                                                 |
\*---------------------------------------------------------------------------*/
FoamFile
{
    version     2.0;
    format      ascii;
    arch        "LSB;label=32;scalar=64";
    class       volScalarField;
    location    "17";
    object      epsilon;
}
// * * * * * * * * * * * * * * * * * * * * * * * * * * * * * * * * * * * * * //

dimensions      [0 2 -3 0 0 0 0];

internalField   nonuniform List<scalar> 
28688
(
4.95505e-07
4.9729e-07
4.97291e-07
4.9957e-07
4.45146e-07
4.53478e-07
4.5348e-07
4.63697e-07
4.0393e-07
4.18685e-07
4.18689e-07
4.39402e-07
3.67693e-07
3.86967e-07
3.86972e-07
4.15853e-07
3.56684e-07
3.73941e-07
3.73947e-07
3.98818e-07
3.55688e-07
3.72572e-07
3.72578e-07
3.96946e-07
3.55662e-07
3.72527e-07
3.72532e-07
3.9688e-07
3.55662e-07
3.72526e-07
3.72532e-07
3.96887e-07
3.55662e-07
3.72527e-07
3.72532e-07
3.96889e-07
3.55662e-07
3.72527e-07
3.72532e-07
3.96888e-07
3.55662e-07
3.72526e-07
3.72532e-07
3.96888e-07
3.55662e-07
3.72526e-07
3.72532e-07
3.96889e-07
5.06441e-07
5.056e-07
5.05598e-07
5.06441e-07
5.05599e-07
5.05598e-07
5.09627e-07
5.09627e-07
5.09627e-07
5.09627e-07
5.056e-07
5.056e-07
5.06442e-07
5.056e-07
5.05599e-07
5.06442e-07
4.99569e-07
4.67245e-07
4.97292e-07
4.97296e-07
4.63628e-07
4.63636e-07
4.9957e-07
4.67242e-07
4.97295e-07
4.97297e-07
4.63632e-07
4.63638e-07
4.97292e-07
4.63624e-07
4.63629e-07
4.99569e-07
4.67248e-07
4.97295e-07
4.63625e-07
4.63633e-07
4.67248e-07
4.63696e-07
4.41595e-07
4.53484e-07
4.53492e-07
4.27194e-07
4.27202e-07
4.63695e-07
4.41589e-07
4.53488e-07
4.53496e-07
4.27195e-07
4.27207e-07
4.53486e-07
4.27186e-07
4.27196e-07
4.63698e-07
4.416e-07
4.53488e-07
4.27191e-07
4.27197e-07
4.41598e-07
4.39398e-07
4.1802e-07
4.18694e-07
4.18702e-07
3.9389e-07
3.93896e-07
4.39397e-07
4.18011e-07
4.18695e-07
4.18707e-07
3.93885e-07
3.93902e-07
4.18697e-07
3.93877e-07
3.93892e-07
4.39405e-07
4.18025e-07
4.18696e-07
3.93882e-07
3.93886e-07
4.18024e-07
4.15849e-07
3.99105e-07
3.86982e-07
3.86988e-07
3.75339e-07
3.75344e-07
4.15845e-07
3.99097e-07
3.86976e-07
3.86995e-07
3.75332e-07
3.7535e-07
3.86985e-07
3.75326e-07
3.75342e-07
4.15855e-07
3.99111e-07
3.86977e-07
3.75332e-07
3.75332e-07
3.99109e-07
3.98814e-07
3.96771e-07
3.73955e-07
3.73959e-07
3.72665e-07
3.72668e-07
3.98809e-07
3.96764e-07
3.73947e-07
3.73966e-07
3.72656e-07
3.72675e-07
3.73958e-07
3.72653e-07
3.72668e-07
3.98821e-07
3.96778e-07
3.73947e-07
3.72659e-07
3.72656e-07
3.96775e-07
3.96944e-07
3.96673e-07
3.72586e-07
3.72589e-07
3.72538e-07
3.72542e-07
3.96937e-07
3.96666e-07
3.72577e-07
3.72596e-07
3.7253e-07
3.72549e-07
3.72588e-07
3.72527e-07
3.72541e-07
3.9695e-07
3.9668e-07
3.72577e-07
3.72532e-07
3.7253e-07
3.96677e-07
3.96878e-07
3.9669e-07
3.72541e-07
3.72544e-07
3.72539e-07
3.72543e-07
3.96873e-07
3.96684e-07
3.72533e-07
3.72552e-07
3.72531e-07
3.7255e-07
3.72544e-07
3.72527e-07
3.72542e-07
3.96885e-07
3.96697e-07
3.72532e-07
3.72532e-07
3.7253e-07
3.96693e-07
3.96887e-07
3.96688e-07
3.72541e-07
3.72544e-07
3.7254e-07
3.72542e-07
3.96882e-07
3.96683e-07
3.72533e-07
3.72552e-07
3.7253e-07
3.72549e-07
3.72544e-07
3.72527e-07
3.72542e-07
3.96894e-07
3.96695e-07
3.72532e-07
3.72532e-07
3.7253e-07
3.96693e-07
3.96888e-07
3.96687e-07
3.72543e-07
3.72544e-07
3.7254e-07
3.72542e-07
3.96884e-07
3.96682e-07
3.72533e-07
3.72552e-07
3.7253e-07
3.72549e-07
3.72544e-07
3.72527e-07
3.72541e-07
3.96895e-07
3.96694e-07
3.72532e-07
3.72532e-07
3.7253e-07
3.96692e-07
3.96886e-07
3.96686e-07
3.72542e-07
3.72544e-07
3.7254e-07
3.72542e-07
3.96882e-07
3.96682e-07
3.72532e-07
3.72551e-07
3.7253e-07
3.72549e-07
3.72544e-07
3.72526e-07
3.72541e-07
3.96893e-07
3.96694e-07
3.72532e-07
3.72532e-07
3.7253e-07
3.96692e-07
3.96885e-07
3.96687e-07
3.72542e-07
3.72544e-07
3.7254e-07
3.72542e-07
3.96882e-07
3.96682e-07
3.72533e-07
3.72551e-07
3.7253e-07
3.72549e-07
3.72544e-07
3.72526e-07
3.72541e-07
3.96893e-07
3.96694e-07
3.72532e-07
3.72532e-07
3.7253e-07
3.96692e-07
3.96885e-07
3.96687e-07
3.72542e-07
3.72545e-07
3.72543e-07
3.96882e-07
3.72533e-07
3.72551e-07
3.72533e-07
3.72552e-07
3.72544e-07
3.72544e-07
3.96893e-07
3.96694e-07
3.72532e-07
3.72536e-07
3.72533e-07
3.96692e-07
5.35679e-07
5.3561e-07
5.3567e-07
5.3567e-07
5.34574e-07
5.35513e-07
5.33635e-07
5.35668e-07
5.34574e-07
5.35513e-07
5.35668e-07
5.33634e-07
5.35264e-07
5.35987e-07
5.35987e-07
1.10992e-06
3.88245e-06
9.32789e-07
4.60525e-06
1.26082e-05
1.65935e-05
1.11001e-06
3.88268e-06
9.32842e-07
4.6056e-06
4.95506e-07
4.95506e-07
4.95506e-07
4.57044e-07
4.57043e-07
4.57044e-07
4.57044e-07
5.43692e-07
1.22015e-06
4.95511e-07
4.85571e-07
5.25104e-07
1.2103e-06
4.8242e-07
1.26098e-05
1.65955e-05
5.43707e-07
4.95512e-07
1.22012e-06
4.85572e-07
5.25086e-07
4.8242e-07
1.21029e-06
2.52144e-06
2.52214e-06
4.84213e-07
2.3747e-06
2.37509e-06
1.42885e-06
5.59693e-06
1.331e-06
6.13296e-06
2.12954e-05
2.31036e-05
1.42924e-06
5.59762e-06
1.33108e-06
6.13359e-06
4.45147e-07
4.45148e-07
4.45148e-07
4.14378e-07
4.14377e-07
4.14378e-07
4.14378e-07
5.86694e-07
1.19527e-06
4.4606e-07
4.44253e-07
5.73894e-07
1.20393e-06
4.35639e-07
2.12984e-05
2.31066e-05
5.86723e-07
4.46061e-07
1.19529e-06
4.44255e-07
5.73899e-07
4.3564e-07
1.20401e-06
2.31378e-06
2.31429e-06
4.53439e-07
2.35251e-06
2.35297e-06
1.67187e-06
6.91419e-06
1.58432e-06
7.32506e-06
2.46459e-05
2.4951e-05
1.6721e-06
6.91502e-06
1.58414e-06
7.32601e-06
4.0393e-07
4.03932e-07
4.03931e-07
3.74513e-07
3.74511e-07
3.74513e-07
3.74513e-07
6.16699e-07
1.23878e-06
4.06676e-07
4.10165e-07
6.06935e-07
1.27232e-06
3.96811e-07
2.46495e-05
2.49543e-05
6.16726e-07
4.06677e-07
1.2388e-06
4.1017e-07
6.06941e-07
3.96814e-07
1.27256e-06
2.45795e-06
2.45841e-06
4.30127e-07
2.55578e-06
2.55626e-06
1.64286e-06
7.81358e-06
1.72761e-06
8.02306e-06
2.4728e-05
2.46733e-05
1.64318e-06
7.81458e-06
1.72763e-06
8.02415e-06
3.67695e-07
3.67697e-07
3.67696e-07
3.57749e-07
3.57749e-07
3.57751e-07
3.5775e-07
5.99914e-07
1.27844e-06
3.72711e-07
3.81538e-07
6.18601e-07
1.26338e-06
3.67882e-07
2.47312e-05
2.46759e-05
5.99927e-07
3.72713e-07
1.27855e-06
3.81544e-07
6.18614e-07
3.67884e-07
1.26347e-06
2.54712e-06
2.54758e-06
4.05927e-07
2.52787e-06
2.52833e-06
1.59556e-06
8.21193e-06
1.59664e-06
8.23289e-06
2.47263e-05
2.47412e-05
1.59541e-06
8.21331e-06
1.59641e-06
8.23422e-06
3.56685e-07
3.56687e-07
3.56686e-07
3.55742e-07
3.55741e-07
3.55742e-07
3.55741e-07
5.85505e-07
1.27954e-06
3.61596e-07
3.73203e-07
5.86837e-07
1.28426e-06
3.61031e-07
2.47288e-05
2.47422e-05
5.85498e-07
3.61597e-07
1.27952e-06
3.73209e-07
5.86833e-07
3.61033e-07
1.28426e-06
2.62907e-06
2.62957e-06
3.97177e-07
2.64942e-06
2.64999e-06
1.59603e-06
8.23672e-06
1.59645e-06
8.23624e-06
2.47455e-05
2.4745e-05
1.59589e-06
8.23802e-06
1.59627e-06
8.2375e-06
3.5569e-07
3.55692e-07
3.55691e-07
3.55662e-07
3.55663e-07
3.55665e-07
3.55664e-07
5.85313e-07
1.28656e-06
3.60573e-07
3.72542e-07
5.85467e-07
1.28605e-06
3.60555e-07
2.47467e-05
2.47461e-05
5.85304e-07
3.60574e-07
1.28648e-06
3.72548e-07
5.85458e-07
3.60557e-07
1.286e-06
2.6564e-06
2.65697e-06
3.96687e-07
2.65622e-06
2.65679e-06
1.59601e-06
8.23647e-06
1.59645e-06
8.23608e-06
2.47456e-05
2.47452e-05
1.59587e-06
8.23774e-06
1.59626e-06
8.2373e-06
3.55666e-07
3.55668e-07
3.55666e-07
3.55662e-07
3.55663e-07
3.55665e-07
3.55664e-07
5.8531e-07
1.28662e-06
3.60546e-07
3.7253e-07
5.85428e-07
1.28604e-06
3.6055e-07
2.47467e-05
2.4746e-05
5.85301e-07
3.60547e-07
1.28654e-06
3.72536e-07
5.85418e-07
3.6055e-07
1.286e-06
2.6567e-06
2.65726e-06
3.96699e-07
2.65628e-06
2.65685e-06
1.59601e-06
8.23645e-06
1.59645e-06
8.23608e-06
2.47457e-05
2.47453e-05
1.59586e-06
8.23768e-06
1.59625e-06
8.23728e-06
3.55666e-07
3.55667e-07
3.55666e-07
3.55662e-07
3.55663e-07
3.55665e-07
3.55664e-07
5.85309e-07
1.28661e-06
3.60546e-07
3.72529e-07
5.85432e-07
1.28604e-06
3.60548e-07
2.47467e-05
2.4746e-05
5.85301e-07
3.60547e-07
1.28654e-06
3.72534e-07
5.85423e-07
3.60549e-07
1.286e-06
2.65671e-06
2.65727e-06
3.9669e-07
2.65628e-06
2.65685e-06
1.59601e-06
8.23644e-06
1.59645e-06
8.23607e-06
2.47457e-05
2.47452e-05
1.59586e-06
8.23768e-06
1.59625e-06
8.23728e-06
3.55666e-07
3.55667e-07
3.55666e-07
3.55662e-07
3.55663e-07
3.55665e-07
3.55664e-07
5.85309e-07
1.28661e-06
3.60546e-07
3.72529e-07
5.85432e-07
1.28604e-06
3.60548e-07
2.47467e-05
2.4746e-05
5.853e-07
3.60547e-07
1.28654e-06
3.72534e-07
5.85423e-07
3.60549e-07
1.286e-06
2.6567e-06
2.65727e-06
3.96692e-07
2.65628e-06
2.65685e-06
1.59601e-06
8.23632e-06
1.59645e-06
8.23584e-06
2.47457e-05
2.47452e-05
1.59586e-06
8.23757e-06
1.59625e-06
8.23713e-06
3.55666e-07
3.55667e-07
3.55666e-07
3.55662e-07
3.55663e-07
3.55665e-07
3.55664e-07
5.8531e-07
1.28661e-06
3.60546e-07
3.72529e-07
5.85432e-07
1.28604e-06
3.60548e-07
2.47467e-05
2.4746e-05
5.853e-07
3.60547e-07
1.28654e-06
3.72534e-07
5.85423e-07
3.60549e-07
1.286e-06
2.6567e-06
2.65727e-06
3.96692e-07
2.65628e-06
2.65685e-06
1.59601e-06
8.23619e-06
1.59645e-06
8.23585e-06
2.47457e-05
2.47452e-05
1.59586e-06
8.23749e-06
1.59625e-06
8.23707e-06
3.55666e-07
3.55667e-07
3.55666e-07
3.55662e-07
3.55663e-07
3.55665e-07
3.55664e-07
5.8531e-07
1.28661e-06
3.60546e-07
3.72528e-07
5.85432e-07
1.28604e-06
3.60548e-07
2.47467e-05
2.4746e-05
5.853e-07
3.60547e-07
1.28654e-06
3.72534e-07
5.85423e-07
3.60549e-07
1.286e-06
2.65671e-06
2.65727e-06
3.96692e-07
2.65628e-06
2.65685e-06
1.59601e-06
8.23625e-06
1.59645e-06
8.23589e-06
2.47458e-05
2.47453e-05
1.59586e-06
8.23746e-06
1.59625e-06
8.23705e-06
3.55666e-07
3.55667e-07
3.55666e-07
3.55666e-07
3.5567e-07
3.55668e-07
3.55667e-07
5.8531e-07
1.28661e-06
3.60546e-07
3.72527e-07
5.85432e-07
1.28604e-06
3.60548e-07
2.47467e-05
2.4746e-05
5.853e-07
3.60547e-07
1.28654e-06
3.72534e-07
5.85423e-07
3.60549e-07
1.286e-06
2.6567e-06
2.65727e-06
3.96692e-07
2.65628e-06
2.65685e-06
5.35264e-07
5.3599e-07
5.35988e-07
1.0916e-05
5.81346e-07
1.09173e-05
5.81338e-07
5.28199e-07
2.4315e-06
2.43242e-06
5.40833e-07
5.4083e-07
5.34574e-07
5.35513e-07
5.33635e-07
5.35668e-07
5.34574e-07
5.35513e-07
5.33634e-07
5.35668e-07
5.30398e-07
3.47219e-06
5.68207e-07
8.22342e-07
5.30397e-07
3.47221e-06
5.68206e-07
8.22306e-07
5.29522e-07
5.28385e-07
1.16683e-06
5.09583e-07
5.32664e-07
5.28327e-07
5.19231e-07
5.29522e-07
5.28386e-07
1.16697e-06
5.09583e-07
5.32664e-07
5.28326e-07
5.19233e-07
5.35264e-07
5.35989e-07
5.35988e-07
1.09162e-05
5.81325e-07
5.28199e-07
2.43196e-06
2.43212e-06
5.40834e-07
5.4083e-07
1.09168e-05
5.81319e-07
5.34574e-07
5.35513e-07
5.33635e-07
5.35668e-07
5.34574e-07
5.35513e-07
5.35668e-07
5.33635e-07
5.30398e-07
3.47253e-06
5.68204e-07
8.22471e-07
5.29522e-07
5.28386e-07
1.16709e-06
5.09583e-07
5.32663e-07
5.28327e-07
5.19239e-07
5.30398e-07
3.47262e-06
5.68202e-07
8.22376e-07
5.29522e-07
5.28386e-07
5.09583e-07
1.167e-06
5.28327e-07
5.32663e-07
5.19233e-07
5.35678e-07
5.3561e-07
5.3567e-07
5.3567e-07
5.35678e-07
5.3561e-07
5.3567e-07
5.3567e-07
5.35678e-07
5.3561e-07
5.3567e-07
5.3567e-07
5.28401e-07
5.28354e-07
5.09693e-07
5.09693e-07
5.28377e-07
5.28376e-07
5.09745e-07
5.28401e-07
5.28354e-07
5.09692e-07
5.09692e-07
5.28376e-07
5.28376e-07
5.09745e-07
5.28401e-07
5.28354e-07
5.09692e-07
5.09692e-07
5.28376e-07
5.28376e-07
5.09746e-07
5.28401e-07
5.28354e-07
5.09692e-07
5.09692e-07
5.28376e-07
5.28376e-07
5.09746e-07
5.34574e-07
5.35513e-07
5.35668e-07
5.33635e-07
5.29522e-07
5.28386e-07
1.16704e-06
5.09584e-07
5.32663e-07
5.28327e-07
5.19237e-07
5.30398e-07
3.47242e-06
5.68198e-07
8.22391e-07
5.29522e-07
5.28385e-07
5.09583e-07
1.16691e-06
5.28327e-07
5.32662e-07
5.19233e-07
5.30398e-07
3.47255e-06
5.68202e-07
8.22338e-07
5.35264e-07
5.35987e-07
5.35986e-07
1.09174e-05
5.81335e-07
5.28199e-07
2.43225e-06
2.43209e-06
5.4083e-07
5.40827e-07
1.09173e-05
5.81314e-07
5.34574e-07
5.35513e-07
5.35668e-07
5.33635e-07
5.29522e-07
5.28385e-07
5.09584e-07
1.16697e-06
5.28327e-07
5.32662e-07
5.19236e-07
5.29522e-07
5.28386e-07
5.09583e-07
1.16709e-06
5.28327e-07
5.32663e-07
5.19239e-07
5.30397e-07
3.47258e-06
5.68196e-07
8.22452e-07
5.30397e-07
3.47259e-06
5.68207e-07
8.22541e-07
5.28199e-07
2.43189e-06
2.43256e-06
5.40828e-07
5.40829e-07
1.09172e-05
5.81318e-07
1.09174e-05
5.81332e-07
1.2608e-05
1.65923e-05
1.26095e-05
1.65951e-05
2.52138e-06
2.52213e-06
4.84212e-07
2.37437e-06
2.37507e-06
2.05247e-05
1.76932e-05
2.05284e-05
1.7696e-05
4.79313e-07
2.30742e-06
2.30809e-06
2.33847e-06
2.33924e-06
1.10977e-06
3.88236e-06
9.32904e-07
4.60518e-06
5.43678e-07
1.22002e-06
4.95512e-07
4.85573e-07
5.25115e-07
1.21024e-06
4.82419e-07
5.43673e-07
1.2202e-06
4.95512e-07
4.8558e-07
5.25124e-07
1.21047e-06
4.82419e-07
1.16003e-06
5.40796e-06
4.8119e-06
1.28349e-06
1.16014e-06
5.40793e-06
4.8119e-06
1.2835e-06
5.50803e-07
4.74405e-07
1.19399e-06
4.57604e-07
1.20394e-06
4.69856e-07
5.66814e-07
5.50805e-07
4.74413e-07
1.19417e-06
4.57605e-07
1.20411e-06
4.69857e-07
5.6681e-07
2.52187e-06
2.52161e-06
4.8421e-07
2.37496e-06
2.37446e-06
1.26087e-05
1.65932e-05
2.05263e-05
1.76946e-05
4.79313e-07
2.30794e-06
2.30766e-06
2.33901e-06
2.33884e-06
2.05257e-05
1.76942e-05
5.43706e-07
1.22029e-06
4.95512e-07
4.85577e-07
5.25121e-07
1.2105e-06
4.8242e-07
1.10997e-06
3.88296e-06
9.32685e-07
4.60592e-06
5.43701e-07
4.95513e-07
1.22025e-06
4.85581e-07
5.25109e-07
4.8242e-07
1.2105e-06
1.16008e-06
5.40841e-06
4.81224e-06
1.28362e-06
5.50807e-07
4.74411e-07
1.19418e-06
4.57605e-07
1.20412e-06
4.69856e-07
5.66832e-07
1.16006e-06
5.40885e-06
4.81274e-06
1.28362e-06
5.50807e-07
4.74415e-07
4.57606e-07
1.19423e-06
4.69857e-07
1.20417e-06
5.66838e-07
1.10992e-06
3.88242e-06
9.32764e-07
4.60542e-06
5.43689e-07
4.95512e-07
1.22011e-06
4.85574e-07
5.25093e-07
4.8242e-07
1.21035e-06
1.10994e-06
3.88284e-06
9.32601e-07
4.60567e-06
5.50798e-07
4.74402e-07
1.19399e-06
4.57604e-07
1.20394e-06
4.69856e-07
5.66821e-07
1.16006e-06
5.40796e-06
4.81171e-06
1.28359e-06
5.50797e-07
4.74406e-07
4.57605e-07
1.19404e-06
4.69857e-07
1.20393e-06
5.66818e-07
1.15997e-06
5.40838e-06
4.81247e-06
1.28356e-06
2.52205e-06
2.52155e-06
4.84214e-07
2.37509e-06
2.37432e-06
1.26095e-05
1.65943e-05
2.0529e-05
1.76968e-05
4.79314e-07
2.30813e-06
2.3076e-06
2.33914e-06
2.33868e-06
2.05272e-05
1.76953e-05
5.43715e-07
4.95513e-07
1.22028e-06
4.85578e-07
5.25098e-07
4.8242e-07
1.21049e-06
1.11017e-06
3.88281e-06
9.32553e-07
4.60576e-06
1.11023e-06
3.88269e-06
9.32669e-07
4.60566e-06
5.508e-07
4.74403e-07
4.57605e-07
1.19404e-06
4.69856e-07
1.204e-06
5.66836e-07
5.50799e-07
4.7441e-07
4.57605e-07
1.19416e-06
4.69857e-07
1.20409e-06
5.66842e-07
1.15984e-06
5.40864e-06
4.81245e-06
1.28365e-06
1.15987e-06
5.40862e-06
4.8122e-06
1.28368e-06
1.26091e-05
1.65942e-05
1.26096e-05
1.65949e-05
4.79314e-07
2.30753e-06
2.30805e-06
2.33835e-06
2.33918e-06
2.05265e-05
1.76947e-05
2.05281e-05
1.7696e-05
2.12938e-05
2.31018e-05
2.12974e-05
2.31059e-05
2.31364e-06
2.31435e-06
4.53435e-07
2.35218e-06
2.35282e-06
2.44462e-05
2.35536e-05
2.44498e-05
2.3557e-05
4.50873e-07
2.43589e-06
2.4363e-06
2.38394e-06
2.3843e-06
1.42884e-06
5.59698e-06
1.33098e-06
6.13312e-06
5.86685e-07
1.19526e-06
4.46062e-07
4.44258e-07
5.73902e-07
1.20394e-06
4.35639e-07
5.86684e-07
1.19541e-06
4.46062e-07
4.44267e-07
5.73896e-07
1.20412e-06
4.35639e-07
1.47141e-06
6.7706e-06
6.3065e-06
1.56195e-06
1.47138e-06
6.77071e-06
6.30649e-06
1.56192e-06
5.9263e-07
4.35647e-07
1.23008e-06
4.16497e-07
1.21288e-06
4.26028e-07
6.0457e-07
5.92617e-07
4.35656e-07
1.23016e-06
4.16498e-07
1.21303e-06
4.26029e-07
6.04564e-07
2.31411e-06
2.31384e-06
4.53431e-07
2.3527e-06
2.35191e-06
2.12949e-05
2.31025e-05
2.44474e-05
2.35551e-05
4.50871e-07
2.43619e-06
2.43588e-06
2.38419e-06
2.38431e-06
2.44467e-05
2.35547e-05
5.86714e-07
1.19547e-06
4.46062e-07
4.44261e-07
5.73909e-07
1.20412e-06
4.3564e-07
1.42923e-06
5.59803e-06
1.33108e-06
6.13423e-06
5.86717e-07
4.46063e-07
1.19549e-06
4.4427e-07
5.73915e-07
4.3564e-07
1.2042e-06
1.47115e-06
6.77124e-06
6.30731e-06
1.56228e-06
5.92639e-07
4.35651e-07
1.23018e-06
4.16498e-07
1.21304e-06
4.26029e-07
6.04584e-07
1.47116e-06
6.77197e-06
6.30773e-06
1.56229e-06
5.92638e-07
4.3566e-07
4.16499e-07
1.23027e-06
4.2603e-07
1.21317e-06
6.04599e-07
1.42902e-06
5.59697e-06
1.33096e-06
6.13306e-06
5.86697e-07
4.46062e-07
1.1953e-06
4.4426e-07
5.739e-07
4.35639e-07
1.20404e-06
1.42889e-06
5.59756e-06
1.33106e-06
6.13364e-06
5.92619e-07
4.3564e-07
1.23e-06
4.16497e-07
1.21289e-06
4.26027e-07
6.04571e-07
1.47128e-06
6.77072e-06
6.30653e-06
1.562e-06
5.92623e-07
4.3565e-07
4.16498e-07
1.23009e-06
4.26029e-07
1.21296e-06
6.04575e-07
1.47132e-06
6.77143e-06
6.30715e-06
1.56201e-06
2.31439e-06
2.3136e-06
4.5344e-07
2.35263e-06
2.35232e-06
2.12958e-05
2.31044e-05
2.44509e-05
2.35589e-05
4.50877e-07
2.43657e-06
2.43589e-06
2.3849e-06
2.38396e-06
2.44482e-05
2.3556e-05
5.86716e-07
4.46062e-07
1.1954e-06
4.44263e-07
5.73899e-07
4.3564e-07
1.20414e-06
1.42923e-06
5.59762e-06
1.33107e-06
6.13383e-06
1.4291e-06
5.59748e-06
1.33106e-06
6.1338e-06
5.92625e-07
4.35643e-07
4.16499e-07
1.23007e-06
4.26028e-07
1.21292e-06
6.04597e-07
5.92621e-07
4.3565e-07
4.16498e-07
1.23019e-06
4.26029e-07
1.21306e-06
6.04593e-07
1.47114e-06
6.77145e-06
6.30719e-06
1.56229e-06
1.47116e-06
6.77153e-06
6.30723e-06
1.56231e-06
2.12958e-05
2.31045e-05
2.12974e-05
2.31061e-05
4.50875e-07
2.43594e-06
2.43642e-06
2.38398e-06
2.38443e-06
2.44484e-05
2.35561e-05
2.44499e-05
2.35577e-05
2.46449e-05
2.49502e-05
2.46479e-05
2.4953e-05
2.4581e-06
2.45826e-06
4.30123e-07
2.55542e-06
2.5562e-06
2.47808e-05
2.49416e-05
2.47838e-05
2.49442e-05
4.28289e-07
2.56705e-06
2.56768e-06
2.57376e-06
2.57407e-06
1.67183e-06
6.91412e-06
1.58428e-06
7.3253e-06
6.16698e-07
1.23884e-06
4.06677e-07
4.10175e-07
6.06936e-07
1.27239e-06
3.96811e-07
6.16691e-07
1.23884e-06
4.06678e-07
4.10182e-07
6.06931e-07
1.27261e-06
3.96812e-07
1.71278e-06
7.73556e-06
7.44642e-06
1.7371e-06
1.71275e-06
7.73586e-06
7.4464e-06
1.73708e-06
6.21319e-07
4.01794e-07
1.28139e-06
3.793e-07
1.28218e-06
3.87479e-07
6.21108e-07
6.21313e-07
4.01801e-07
1.28163e-06
3.79301e-07
1.28228e-06
3.8748e-07
6.21105e-07
2.4582e-06
2.45812e-06
4.30114e-07
2.55607e-06
2.55529e-06
2.46453e-05
2.49503e-05
2.47818e-05
2.49422e-05
4.28287e-07
2.56758e-06
2.56689e-06
2.57402e-06
2.5737e-06
2.47811e-05
2.49417e-05
6.16724e-07
1.2389e-06
4.06678e-07
4.10173e-07
6.06957e-07
1.27256e-06
3.96813e-07
1.67212e-06
6.91545e-06
1.58412e-06
7.32657e-06
6.1673e-07
4.06681e-07
1.23906e-06
4.10188e-07
6.06946e-07
3.96815e-07
1.2726e-06
1.7127e-06
7.73665e-06
7.44737e-06
1.73724e-06
6.21338e-07
4.0179e-07
1.28167e-06
3.79302e-07
1.28235e-06
3.8748e-07
6.2114e-07
1.71271e-06
7.73715e-06
7.44779e-06
1.73722e-06
6.21343e-07
4.01807e-07
3.79303e-07
1.28161e-06
3.87483e-07
1.28241e-06
6.21139e-07
1.6719e-06
6.91417e-06
1.58436e-06
7.32534e-06
6.16706e-07
4.06678e-07
1.23877e-06
4.10178e-07
6.06935e-07
3.96812e-07
1.27254e-06
1.67192e-06
6.91482e-06
1.58436e-06
7.326e-06
6.21319e-07
4.0178e-07
1.28133e-06
3.793e-07
1.28211e-06
3.87477e-07
6.21114e-07
1.71281e-06
7.73589e-06
7.44653e-06
1.73715e-06
6.21322e-07
4.01797e-07
3.79301e-07
1.28156e-06
3.8748e-07
1.2822e-06
6.21117e-07
1.71282e-06
7.73654e-06
7.44711e-06
1.73714e-06
2.45879e-06
2.45792e-06
4.30128e-07
2.5561e-06
2.55576e-06
2.46467e-05
2.49517e-05
2.47847e-05
2.49456e-05
4.28295e-07
2.56769e-06
2.56723e-06
2.57445e-06
2.57367e-06
2.47825e-05
2.49429e-05
6.16722e-07
4.06679e-07
1.23886e-06
4.10175e-07
6.06941e-07
3.96813e-07
1.27264e-06
1.67211e-06
6.91485e-06
1.5841e-06
7.32609e-06
1.67211e-06
6.91494e-06
1.58413e-06
7.32621e-06
6.21336e-07
4.01785e-07
3.79302e-07
1.28159e-06
3.87479e-07
1.28222e-06
6.21131e-07
6.21337e-07
4.01792e-07
3.79302e-07
1.28165e-06
3.87481e-07
1.28231e-06
6.21132e-07
1.7127e-06
7.73665e-06
7.44721e-06
1.73721e-06
1.71271e-06
7.73682e-06
7.44732e-06
1.73723e-06
2.46469e-05
2.4952e-05
2.46483e-05
2.49532e-05
4.28293e-07
2.56726e-06
2.56773e-06
2.5737e-06
2.57418e-06
2.47828e-05
2.49432e-05
2.47839e-05
2.49444e-05
2.47275e-05
2.46722e-05
2.47297e-05
2.46749e-05
2.54722e-06
2.54746e-06
4.05922e-07
2.5278e-06
2.52829e-06
2.47078e-05
2.46738e-05
2.47112e-05
2.46767e-05
4.04522e-07
2.61282e-06
2.61341e-06
2.54232e-06
2.54268e-06
1.64286e-06
7.81363e-06
1.72758e-06
8.02341e-06
5.99903e-07
1.2785e-06
3.72714e-07
3.8155e-07
6.18594e-07
1.26342e-06
3.67881e-07
5.99903e-07
1.27861e-06
3.72715e-07
3.81556e-07
6.18594e-07
1.26354e-06
3.67882e-07
1.62597e-06
8.19245e-06
8.08205e-06
1.59733e-06
1.62596e-06
8.19286e-06
8.08218e-06
1.59733e-06
5.9598e-07
3.77739e-07
1.27403e-06
3.62695e-07
1.26481e-06
3.64656e-07
5.8731e-07
5.9598e-07
3.77744e-07
1.27416e-06
3.62696e-07
1.26494e-06
3.64657e-07
5.87308e-07
2.5474e-06
2.54716e-06
4.05914e-07
2.52819e-06
2.52764e-06
2.47275e-05
2.46722e-05
2.47095e-05
2.46752e-05
4.04518e-07
2.61327e-06
2.61247e-06
2.54263e-06
2.54243e-06
2.47075e-05
2.46748e-05
5.9994e-07
1.27865e-06
3.72715e-07
3.81544e-07
6.18624e-07
1.26359e-06
3.67883e-07
1.64315e-06
7.81501e-06
1.7276e-06
8.02462e-06
5.99938e-07
3.72718e-07
1.27872e-06
3.81563e-07
6.18623e-07
3.67885e-07
1.26364e-06
1.62591e-06
8.1937e-06
8.08313e-06
1.59728e-06
5.96003e-07
3.77732e-07
1.27422e-06
3.62696e-07
1.26499e-06
3.64657e-07
5.87322e-07
1.62589e-06
8.1938e-06
8.08355e-06
1.59728e-06
5.96004e-07
3.7775e-07
3.62698e-07
1.27425e-06
3.64659e-07
1.26512e-06
5.87324e-07
1.64294e-06
7.81375e-06
1.72766e-06
8.02341e-06
5.99915e-07
3.72715e-07
1.27853e-06
3.81553e-07
6.186e-07
3.67882e-07
1.26347e-06
1.64291e-06
7.81428e-06
1.72764e-06
8.02395e-06
5.95984e-07
3.77724e-07
1.27399e-06
3.62694e-07
1.26485e-06
3.64654e-07
5.87315e-07
1.62603e-06
8.19266e-06
8.08234e-06
1.59736e-06
5.95981e-07
3.77742e-07
3.62695e-07
1.27409e-06
3.64656e-07
1.26487e-06
5.87318e-07
1.626e-06
8.19332e-06
8.08269e-06
1.59735e-06
2.5479e-06
2.54706e-06
4.05928e-07
2.52842e-06
2.52786e-06
2.47287e-05
2.46739e-05
2.47111e-05
2.46785e-05
4.04529e-07
2.61331e-06
2.61293e-06
2.54321e-06
2.54229e-06
2.47102e-05
2.46758e-05
5.99927e-07
3.72716e-07
1.27863e-06
3.81545e-07
6.18618e-07
3.67883e-07
1.26357e-06
1.64314e-06
7.81439e-06
1.72758e-06
8.02408e-06
1.64317e-06
7.81459e-06
1.72761e-06
8.02434e-06
5.95992e-07
3.77731e-07
3.62696e-07
1.2741e-06
3.64655e-07
1.26486e-06
5.87314e-07
5.95996e-07
3.77732e-07
3.62696e-07
1.2742e-06
3.64657e-07
1.26498e-06
5.87309e-07
1.62587e-06
8.19346e-06
8.08282e-06
1.59726e-06
1.6259e-06
8.19379e-06
8.0831e-06
1.59726e-06
2.4729e-05
2.46742e-05
2.47301e-05
2.46752e-05
4.04527e-07
2.61293e-06
2.61346e-06
2.54232e-06
2.54277e-06
2.47104e-05
2.46761e-05
2.47114e-05
2.46771e-05
2.47244e-05
2.47392e-05
2.47278e-05
2.47426e-05
2.62891e-06
2.62951e-06
3.97173e-07
2.64923e-06
2.6499e-06
2.47431e-05
2.47424e-05
2.47463e-05
2.47457e-05
3.97274e-07
2.65551e-06
2.65625e-06
2.65326e-06
2.65395e-06
1.59556e-06
8.21224e-06
1.59663e-06
8.23342e-06
5.85505e-07
1.27948e-06
3.61598e-07
3.73215e-07
5.86835e-07
1.28421e-06
3.61031e-07
5.85503e-07
1.27959e-06
3.61598e-07
3.73218e-07
5.86834e-07
1.28432e-06
3.61032e-07
1.59611e-06
8.23637e-06
8.23574e-06
1.59599e-06
1.59612e-06
8.23693e-06
8.23625e-06
1.596e-06
5.85591e-07
3.72843e-07
1.28578e-06
3.60628e-07
1.28561e-06
3.60755e-07
5.85356e-07
5.85589e-07
3.72846e-07
1.28592e-06
3.60629e-07
1.28573e-06
3.60756e-07
5.85354e-07
2.62943e-06
2.6291e-06
3.97166e-07
2.6498e-06
2.6494e-06
2.47252e-05
2.47387e-05
2.47448e-05
2.47442e-05
3.97268e-07
2.65614e-06
2.65579e-06
2.65389e-06
2.65381e-06
2.47424e-05
2.47418e-05
5.85503e-07
1.27967e-06
3.61598e-07
3.73206e-07
5.86839e-07
1.2844e-06
3.61032e-07
1.59543e-06
8.21325e-06
1.59641e-06
8.23415e-06
5.85508e-07
3.616e-07
1.27981e-06
3.73225e-07
5.86843e-07
3.61033e-07
1.28451e-06
1.59592e-06
8.23765e-06
8.23707e-06
1.59585e-06
5.85587e-07
3.72834e-07
1.28601e-06
3.60629e-07
1.2858e-06
3.60756e-07
5.85354e-07
1.59593e-06
8.23767e-06
8.23704e-06
1.59586e-06
5.85592e-07
3.72853e-07
3.6063e-07
1.28615e-06
3.60758e-07
1.28599e-06
5.85358e-07
1.59558e-06
8.21211e-06
1.59666e-06
8.23304e-06
5.85509e-07
3.61598e-07
1.27953e-06
3.73217e-07
5.86839e-07
3.61031e-07
1.28425e-06
1.59558e-06
8.21268e-06
1.59666e-06
8.23383e-06
5.8559e-07
3.72829e-07
1.28589e-06
3.60628e-07
1.28573e-06
3.60754e-07
5.85357e-07
1.59614e-06
8.2366e-06
8.23595e-06
1.59602e-06
5.85593e-07
3.72846e-07
3.60628e-07
1.28585e-06
3.60755e-07
1.28566e-06
5.85361e-07
1.59614e-06
8.23732e-06
8.23665e-06
1.59601e-06
2.6299e-06
2.62904e-06
3.97179e-07
2.65016e-06
2.64942e-06
2.4727e-05
2.47417e-05
2.47459e-05
2.47453e-05
3.97281e-07
2.65657e-06
2.65576e-06
2.65454e-06
2.65349e-06
2.47453e-05
2.47446e-05
5.85493e-07
3.61598e-07
1.27965e-06
3.73207e-07
5.86829e-07
3.61031e-07
1.28436e-06
1.59541e-06
8.21282e-06
1.59639e-06
8.23397e-06
1.59541e-06
8.21316e-06
1.59639e-06
8.23433e-06
5.85581e-07
3.72835e-07
3.6063e-07
1.28585e-06
3.60755e-07
1.28565e-06
5.85348e-07
5.85579e-07
3.72834e-07
3.60628e-07
1.28597e-06
3.60755e-07
1.28578e-06
5.85343e-07
1.59591e-06
8.23746e-06
8.23679e-06
1.59584e-06
1.59591e-06
8.23783e-06
8.23715e-06
1.59584e-06
2.47273e-05
2.47419e-05
2.47283e-05
2.47429e-05
3.97279e-07
2.65578e-06
2.65635e-06
2.65352e-06
2.65408e-06
2.47455e-05
2.47449e-05
2.47466e-05
2.47459e-05
2.47437e-05
2.47432e-05
2.4747e-05
2.47466e-05
2.6561e-06
2.65682e-06
3.96684e-07
2.65599e-06
2.6567e-06
2.47433e-05
2.47438e-05
2.47465e-05
2.47471e-05
3.96873e-07
2.65606e-06
2.65675e-06
2.65639e-06
2.65709e-06
1.59604e-06
8.23714e-06
1.59644e-06
8.23683e-06
5.85312e-07
1.28639e-06
3.60575e-07
3.72554e-07
5.85467e-07
1.28593e-06
3.60556e-07
5.85311e-07
1.28654e-06
3.60576e-07
3.72557e-07
5.85467e-07
1.28609e-06
3.60557e-07
1.59644e-06
8.23612e-06
8.23642e-06
1.59602e-06
1.59645e-06
8.23667e-06
8.23701e-06
1.59603e-06
5.8543e-07
3.7254e-07
1.28592e-06
3.60547e-07
1.28646e-06
3.60547e-07
5.85304e-07
5.85429e-07
3.72544e-07
1.28608e-06
3.60547e-07
1.28662e-06
3.60548e-07
5.85303e-07
2.65674e-06
2.65658e-06
3.96676e-07
2.65662e-06
2.65629e-06
2.47433e-05
2.47426e-05
2.47451e-05
2.47457e-05
3.96867e-07
2.65665e-06
2.65631e-06
2.65702e-06
2.65677e-06
2.47425e-05
2.47433e-05
5.8531e-07
1.28662e-06
3.60576e-07
3.72545e-07
5.85464e-07
1.28618e-06
3.60556e-07
1.59591e-06
8.2379e-06
1.59625e-06
8.23751e-06
5.85314e-07
3.60578e-07
1.2868e-06
3.72564e-07
5.85469e-07
3.60558e-07
1.2863e-06
1.59625e-06
8.23736e-06
8.23771e-06
1.59587e-06
5.85426e-07
3.72532e-07
1.28618e-06
3.60547e-07
1.2867e-06
3.60548e-07
5.85301e-07
1.59627e-06
8.23735e-06
8.23771e-06
1.59589e-06
5.85431e-07
3.72551e-07
3.60549e-07
1.2863e-06
3.6055e-07
1.28687e-06
5.85306e-07
1.59606e-06
8.23683e-06
1.59646e-06
8.23645e-06
5.85317e-07
3.60576e-07
1.28647e-06
3.72557e-07
5.8547e-07
3.60556e-07
1.28601e-06
1.59606e-06
8.23753e-06
1.59646e-06
8.2372e-06
5.8543e-07
3.72529e-07
1.28604e-06
3.60546e-07
1.28661e-06
3.60547e-07
5.85305e-07
1.59647e-06
8.23629e-06
8.23665e-06
1.59605e-06
5.85433e-07
3.72543e-07
3.60547e-07
1.28601e-06
3.60548e-07
1.28654e-06
5.85308e-07
1.59647e-06
8.23705e-06
8.23737e-06
1.59605e-06
2.65732e-06
2.65634e-06
3.9669e-07
2.65706e-06
2.6562e-06
2.4746e-05
2.47455e-05
2.4746e-05
2.47469e-05
3.96879e-07
2.65709e-06
2.65625e-06
2.65753e-06
2.6566e-06
2.47455e-05
2.47461e-05
5.85298e-07
3.60575e-07
1.28659e-06
3.72545e-07
5.85454e-07
3.60556e-07
1.28612e-06
1.59589e-06
8.23767e-06
1.59624e-06
8.23734e-06
1.59589e-06
8.23804e-06
1.59624e-06
8.2377e-06
5.8542e-07
3.72534e-07
3.60547e-07
1.286e-06
3.60548e-07
1.28653e-06
5.85296e-07
5.85416e-07
3.72532e-07
3.60547e-07
1.28612e-06
3.60547e-07
1.28666e-06
5.85291e-07
1.59625e-06
8.23719e-06
8.23752e-06
1.59588e-06
1.59625e-06
8.23755e-06
8.23788e-06
1.59588e-06
2.47463e-05
2.47458e-05
2.47473e-05
2.47468e-05
3.96877e-07
2.65627e-06
2.65684e-06
2.65662e-06
2.65719e-06
2.47457e-05
2.47463e-05
2.47468e-05
2.47474e-05
2.47439e-05
2.47433e-05
2.4747e-05
2.47465e-05
2.65645e-06
2.65712e-06
3.96694e-07
2.6561e-06
2.65676e-06
2.47435e-05
2.4744e-05
2.47465e-05
2.4747e-05
3.96894e-07
2.65614e-06
2.65676e-06
2.65649e-06
2.65713e-06
1.59602e-06
8.23687e-06
1.59644e-06
8.2366e-06
5.85309e-07
1.28645e-06
3.6055e-07
3.72541e-07
5.85427e-07
1.28593e-06
3.6055e-07
5.85307e-07
1.28661e-06
3.60551e-07
3.72545e-07
5.85426e-07
1.28608e-06
3.60551e-07
1.59643e-06
8.23609e-06
8.23631e-06
1.59601e-06
1.59643e-06
8.23658e-06
8.23682e-06
1.59602e-06
5.85433e-07
3.7254e-07
1.28593e-06
3.60547e-07
1.28646e-06
3.60549e-07
5.85312e-07
5.85431e-07
3.72544e-07
1.28608e-06
3.60548e-07
1.28661e-06
3.60549e-07
5.85311e-07
2.65703e-06
2.65678e-06
3.96688e-07
2.65665e-06
2.65631e-06
2.47433e-05
2.47425e-05
2.47452e-05
2.47458e-05
3.9689e-07
2.65665e-06
2.65631e-06
2.65703e-06
2.65678e-06
2.47425e-05
2.47432e-05
5.85306e-07
1.2867e-06
3.6055e-07
3.72533e-07
5.85422e-07
1.28618e-06
3.60551e-07
1.59588e-06
8.23758e-06
1.59625e-06
8.23728e-06
5.8531e-07
3.60553e-07
1.28686e-06
3.72552e-07
5.85428e-07
3.60553e-07
1.2863e-06
1.59623e-06
8.23729e-06
8.23755e-06
1.59586e-06
5.85428e-07
3.72532e-07
1.28619e-06
3.60547e-07
1.2867e-06
3.60549e-07
5.85309e-07
1.59624e-06
8.23726e-06
8.23752e-06
1.59588e-06
5.85432e-07
3.72551e-07
3.6055e-07
1.28629e-06
3.60551e-07
1.28686e-06
5.85313e-07
1.59604e-06
8.23652e-06
1.59646e-06
8.23622e-06
5.85313e-07
3.6055e-07
1.28654e-06
3.72544e-07
5.85429e-07
3.6055e-07
1.286e-06
1.59604e-06
8.23725e-06
1.59646e-06
8.23698e-06
5.85432e-07
3.7253e-07
1.28604e-06
3.60546e-07
1.2866e-06
3.60549e-07
5.85311e-07
1.59645e-06
8.2362e-06
8.23647e-06
1.59604e-06
5.85434e-07
3.72543e-07
3.60547e-07
1.286e-06
3.60549e-07
1.28654e-06
5.85315e-07
1.59645e-06
8.23696e-06
8.23719e-06
1.59604e-06
2.65755e-06
2.65663e-06
3.96701e-07
2.65709e-06
2.65626e-06
2.47461e-05
2.47454e-05
2.4746e-05
2.47468e-05
3.96902e-07
2.65709e-06
2.65626e-06
2.65755e-06
2.65663e-06
2.47454e-05