/*--------------------------------*- C++ -*----------------------------------*\
| =========                 |                                                 |
| \\      /  F ield         | OpenFOAM: The Open Source CFD Toolbox           |
|  \\    /   O peration     | Version:  2206                                  |
|   \\  /    A nd           | Website:  www.openfoam.com                      |
|    \\/     M anipulation  |                                                 |
\*---------------------------------------------------------------------------*/
FoamFile
{
    version     2.0;
    format      ascii;
    arch        "LSB;label=32;scalar=64";
    class       volScalarField;
    location    "8.5";
    object      k;
}
// * * * * * * * * * * * * * * * * * * * * * * * * * * * * * * * * * * * * * //

dimensions      [0 2 -2 0 0 0 0];

internalField   nonuniform List<scalar> 
28688
(
3.59203e-05
3.59001e-05
3.59001e-05
3.59986e-05
3.38909e-05
3.38422e-05
3.38422e-05
3.39254e-05
3.34139e-05
3.33763e-05
3.33762e-05
3.33104e-05
3.34001e-05
3.33727e-05
3.33727e-05
3.33268e-05
3.34e-05
3.33729e-05
3.33729e-05
3.33277e-05
3.34e-05
3.3373e-05
3.3373e-05
3.33276e-05
3.34e-05
3.3373e-05
3.33729e-05
3.33277e-05
3.34e-05
3.3373e-05
3.3373e-05
3.33276e-05
3.34e-05
3.3373e-05
3.3373e-05
3.33276e-05
3.34e-05
3.3373e-05
3.3373e-05
3.33276e-05
3.34e-05
3.3373e-05
3.3373e-05
3.33277e-05
3.34e-05
3.3373e-05
3.3373e-05
3.33276e-05
3.63022e-05
3.62812e-05
3.62812e-05
3.63022e-05
3.62812e-05
3.62812e-05
3.64145e-05
3.64145e-05
3.64145e-05
3.64145e-05
3.62812e-05
3.62812e-05
3.63022e-05
3.62812e-05
3.62812e-05
3.63022e-05
3.59986e-05
3.41954e-05
3.59002e-05
3.59002e-05
3.42765e-05
3.42764e-05
3.59986e-05
3.41954e-05
3.59001e-05
3.59002e-05
3.42765e-05
3.42764e-05
3.59002e-05
3.42765e-05
3.42765e-05
3.59986e-05
3.41954e-05
3.59001e-05
3.42765e-05
3.42765e-05
3.41954e-05
3.39254e-05
3.33101e-05
3.38421e-05
3.3842e-05
3.33916e-05
3.33916e-05
3.39254e-05
3.33101e-05
3.38421e-05
3.3842e-05
3.33916e-05
3.33915e-05
3.38421e-05
3.33916e-05
3.33916e-05
3.39254e-05
3.331e-05
3.38421e-05
3.33916e-05
3.33916e-05
3.33101e-05
3.33107e-05
3.33269e-05
3.33764e-05
3.33764e-05
3.33726e-05
3.33725e-05
3.33106e-05
3.33269e-05
3.33764e-05
3.33764e-05
3.33726e-05
3.33725e-05
3.33764e-05
3.33726e-05
3.33725e-05
3.33106e-05
3.33269e-05
3.33764e-05
3.33726e-05
3.33726e-05
3.33269e-05
3.33269e-05
3.33282e-05
3.33729e-05
3.33729e-05
3.3373e-05
3.3373e-05
3.33269e-05
3.33281e-05
3.33729e-05
3.33729e-05
3.3373e-05
3.33729e-05
3.33729e-05
3.33729e-05
3.3373e-05
3.33269e-05
3.33281e-05
3.33729e-05
3.33729e-05
3.3373e-05
3.33282e-05
3.33283e-05
3.33281e-05
3.33732e-05
3.33732e-05
3.33729e-05
3.33729e-05
3.33282e-05
3.33281e-05
3.33732e-05
3.33732e-05
3.33729e-05
3.33729e-05
3.33732e-05
3.3373e-05
3.33729e-05
3.33282e-05
3.33281e-05
3.33732e-05
3.3373e-05
3.33729e-05
3.33281e-05
3.33283e-05
3.33281e-05
3.33731e-05
3.33731e-05
3.33729e-05
3.33729e-05
3.33283e-05
3.33281e-05
3.33731e-05
3.3373e-05
3.3373e-05
3.33729e-05
3.33731e-05
3.3373e-05
3.33729e-05
3.33282e-05
3.33281e-05
3.33731e-05
3.3373e-05
3.3373e-05
3.33282e-05
3.33283e-05
3.33281e-05
3.33731e-05
3.33731e-05
3.33729e-05
3.33729e-05
3.33283e-05
3.33281e-05
3.33731e-05
3.33731e-05
3.3373e-05
3.33729e-05
3.33731e-05
3.3373e-05
3.33729e-05
3.33282e-05
3.33281e-05
3.33731e-05
3.3373e-05
3.3373e-05
3.33281e-05
3.33283e-05
3.33281e-05
3.33731e-05
3.33731e-05
3.33729e-05
3.33729e-05
3.33283e-05
3.33281e-05
3.33731e-05
3.33731e-05
3.3373e-05
3.33729e-05
3.33731e-05
3.3373e-05
3.33729e-05
3.33282e-05
3.33281e-05
3.33731e-05
3.3373e-05
3.3373e-05
3.33281e-05
3.33283e-05
3.33281e-05
3.33731e-05
3.33731e-05
3.33729e-05
3.33729e-05
3.33283e-05
3.33281e-05
3.33731e-05
3.33731e-05
3.3373e-05
3.33729e-05
3.33731e-05
3.3373e-05
3.33729e-05
3.33282e-05
3.33281e-05
3.33731e-05
3.3373e-05
3.3373e-05
3.33281e-05
3.33283e-05
3.33281e-05
3.33731e-05
3.33731e-05
3.33729e-05
3.33729e-05
3.33282e-05
3.33281e-05
3.33731e-05
3.33731e-05
3.3373e-05
3.33729e-05
3.33731e-05
3.3373e-05
3.33729e-05
3.33282e-05
3.33281e-05
3.33731e-05
3.3373e-05
3.3373e-05
3.33282e-05
3.33283e-05
3.33281e-05
3.33731e-05
3.33731e-05
3.33729e-05
3.33729e-05
3.33282e-05
3.33281e-05
3.33731e-05
3.33731e-05
3.3373e-05
3.33729e-05
3.33731e-05
3.3373e-05
3.33729e-05
3.33282e-05
3.33281e-05
3.33731e-05
3.3373e-05
3.3373e-05
3.33281e-05
3.33283e-05
3.33286e-05
3.33731e-05
3.33731e-05
3.33732e-05
3.33283e-05
3.33731e-05
3.33731e-05
3.33732e-05
3.33732e-05
3.33731e-05
3.33732e-05
3.33282e-05
3.33285e-05
3.33731e-05
3.33732e-05
3.33732e-05
3.33286e-05
3.73714e-05
3.73739e-05
3.73713e-05
3.73713e-05
3.73692e-05
3.73794e-05
3.73043e-05
3.73718e-05
3.73692e-05
3.73794e-05
3.73718e-05
3.73043e-05
3.73732e-05
3.72959e-05
3.72959e-05
3.58714e-05
4.08812e-05
3.66038e-05
4.51008e-05
5.51164e-05
6.48608e-05
3.58717e-05
4.08801e-05
3.6604e-05
4.51008e-05
3.59204e-05
3.59204e-05
3.59204e-05
3.4293e-05
3.42931e-05
3.42931e-05
3.42931e-05
3.52779e-05
3.56287e-05
3.59169e-05
3.53998e-05
3.60498e-05
3.42355e-05
3.53982e-05
5.51185e-05
6.48634e-05
3.52779e-05
3.59169e-05
3.56289e-05
3.53998e-05
3.60498e-05
3.53982e-05
3.42354e-05
3.6575e-05
3.65751e-05
3.52807e-05
3.39602e-05
3.39597e-05
3.38854e-05
5.13407e-05
3.46741e-05
5.4153e-05
7.66683e-05
7.91342e-05
3.38857e-05
5.1341e-05
3.46752e-05
5.41536e-05
3.38909e-05
3.38909e-05
3.38909e-05
3.344e-05
3.344e-05
3.344e-05
3.344e-05
3.32214e-05
3.22991e-05
3.38896e-05
3.35744e-05
3.38476e-05
3.22142e-05
3.3631e-05
7.66721e-05
7.91357e-05
3.32213e-05
3.38896e-05
3.22991e-05
3.35744e-05
3.38474e-05
3.3631e-05
3.22145e-05
3.14757e-05
3.14747e-05
3.344e-05
3.14913e-05
3.14901e-05
3.38512e-05
5.62529e-05
3.37788e-05
5.63901e-05
7.96334e-05
7.96455e-05
3.38512e-05
5.62546e-05
3.37782e-05
5.63923e-05
3.3414e-05
3.3414e-05
3.3414e-05
3.34002e-05
3.34002e-05
3.34002e-05
3.34002e-05
3.31116e-05
3.34281e-05
3.34059e-05
3.3373e-05
3.30826e-05
3.36559e-05
3.33971e-05
7.96371e-05
7.96463e-05
3.31116e-05
3.34059e-05
3.34281e-05
3.3373e-05
3.30826e-05
3.33971e-05
3.3656e-05
3.40642e-05
3.40639e-05
3.33228e-05
3.44926e-05
3.44926e-05
3.38751e-05
5.63979e-05
3.38741e-05
5.63944e-05
7.9645e-05
7.96424e-05
3.38749e-05
5.64004e-05
3.38739e-05
5.63972e-05
3.34002e-05
3.34002e-05
3.34002e-05
3.34e-05
3.34001e-05
3.34001e-05
3.34001e-05
3.31222e-05
3.37046e-05
3.33933e-05
3.33729e-05
3.31211e-05
3.37053e-05
3.33935e-05
7.96467e-05
7.9643e-05
3.31221e-05
3.33933e-05
3.37044e-05
3.33729e-05
3.3121e-05
3.33935e-05
3.37052e-05
3.45665e-05
3.45665e-05
3.3328e-05
3.45678e-05
3.45678e-05
3.38758e-05
5.63962e-05
3.38763e-05
5.63944e-05
7.96442e-05
7.96422e-05
3.38762e-05
5.63987e-05
3.38765e-05
5.63965e-05
3.34002e-05
3.34002e-05
3.34002e-05
3.34e-05
3.34001e-05
3.34001e-05
3.34e-05
3.31229e-05
3.37067e-05
3.33933e-05
3.33731e-05
3.31227e-05
3.37059e-05
3.33934e-05
7.9645e-05
7.96423e-05
3.3123e-05
3.33933e-05
3.37067e-05
3.33731e-05
3.31228e-05
3.33934e-05
3.37061e-05
3.4569e-05
3.45691e-05
3.33282e-05
3.45687e-05
3.45688e-05
3.38758e-05
5.63963e-05
3.38764e-05
5.63944e-05
7.96444e-05
7.96421e-05
3.38762e-05
5.63984e-05
3.38767e-05
5.63964e-05
3.34002e-05
3.34002e-05
3.34002e-05
3.34e-05
3.34001e-05
3.34001e-05
3.34e-05
3.31229e-05
3.37068e-05
3.33933e-05
3.33731e-05
3.31227e-05
3.37059e-05
3.33935e-05
7.9645e-05
7.96423e-05
3.31229e-05
3.33933e-05
3.37068e-05
3.33731e-05
3.31228e-05
3.33934e-05
3.37061e-05
3.45691e-05
3.45692e-05
3.33282e-05
3.45687e-05
3.45688e-05
3.38758e-05
5.63961e-05
3.38764e-05
5.63942e-05
7.9645e-05
7.9643e-05
3.38762e-05
5.63984e-05
3.38767e-05
5.63964e-05
3.34002e-05
3.34002e-05
3.34002e-05
3.34e-05
3.34001e-05
3.34001e-05
3.34e-05
3.31229e-05
3.37068e-05
3.33933e-05
3.33731e-05
3.31227e-05
3.37059e-05
3.33935e-05
7.9645e-05
7.96423e-05
3.31229e-05
3.33933e-05
3.37068e-05
3.33731e-05
3.31228e-05
3.33934e-05
3.37061e-05
3.45691e-05
3.45692e-05
3.33282e-05
3.45687e-05
3.45688e-05
3.38758e-05
5.63961e-05
3.38764e-05
5.63943e-05
7.96447e-05
7.96424e-05
3.38762e-05
5.63984e-05
3.38767e-05
5.63965e-05
3.34002e-05
3.34002e-05
3.34002e-05
3.34e-05
3.34001e-05
3.34001e-05
3.34e-05
3.31229e-05
3.37068e-05
3.33933e-05
3.33731e-05
3.31227e-05
3.37059e-05
3.33935e-05
7.9645e-05
7.96424e-05
3.31229e-05
3.33933e-05
3.37068e-05
3.33731e-05
3.31228e-05
3.33934e-05
3.37061e-05
3.45691e-05
3.45692e-05
3.33282e-05
3.45687e-05
3.45688e-05
3.38758e-05
5.63961e-05
3.38763e-05
5.63942e-05
7.96446e-05
7.96424e-05
3.38762e-05
5.63984e-05
3.38767e-05
5.63965e-05
3.34002e-05
3.34002e-05
3.34002e-05
3.34e-05
3.34001e-05
3.34001e-05
3.34e-05
3.31229e-05
3.37068e-05
3.33933e-05
3.33731e-05
3.31227e-05
3.37059e-05
3.33935e-05
7.9645e-05
7.96424e-05
3.31229e-05
3.33933e-05
3.37068e-05
3.33731e-05
3.31228e-05
3.33934e-05
3.37061e-05
3.45691e-05
3.45692e-05
3.33282e-05
3.45687e-05
3.45688e-05
3.38758e-05
5.63959e-05
3.38764e-05
5.63937e-05
7.96446e-05
7.96424e-05
3.38762e-05
5.63982e-05
3.38767e-05
5.63961e-05
3.34002e-05
3.34002e-05
3.34002e-05
3.34e-05
3.34001e-05
3.34001e-05
3.34e-05
3.31229e-05
3.37068e-05
3.33933e-05
3.33731e-05
3.31227e-05
3.37059e-05
3.33935e-05
7.9645e-05
7.96424e-05
3.31229e-05
3.33933e-05
3.37068e-05
3.33731e-05
3.31228e-05
3.33935e-05
3.37061e-05
3.45691e-05
3.45692e-05
3.33282e-05
3.45687e-05
3.45688e-05
3.38758e-05
5.63957e-05
3.38763e-05
5.63939e-05
7.96447e-05
7.96424e-05
3.38762e-05
5.6398e-05
3.38767e-05
5.63959e-05
3.34002e-05
3.34002e-05
3.34002e-05
3.34e-05
3.34001e-05
3.34001e-05
3.34e-05
3.31229e-05
3.37068e-05
3.33933e-05
3.33731e-05
3.31227e-05
3.37059e-05
3.33935e-05
7.9645e-05
7.96423e-05
3.31229e-05
3.33933e-05
3.37068e-05
3.33731e-05
3.31228e-05
3.33935e-05
3.37061e-05
3.45691e-05
3.45692e-05
3.33282e-05
3.45687e-05
3.45688e-05
3.38758e-05
5.63959e-05
3.38764e-05
5.6394e-05
7.96447e-05
7.96424e-05
3.38762e-05
5.63979e-05
3.38767e-05
5.63959e-05
3.34002e-05
3.34002e-05
3.34002e-05
3.34003e-05
3.34006e-05
3.34003e-05
3.34003e-05
3.31229e-05
3.37068e-05
3.33933e-05
3.3373e-05
3.31227e-05
3.37059e-05
3.33934e-05
7.9645e-05
7.96423e-05
3.31229e-05
3.33933e-05
3.37069e-05
3.33731e-05
3.31228e-05
3.33934e-05
3.37061e-05
3.45691e-05
3.45692e-05
3.33282e-05
3.45687e-05
3.45688e-05
3.73732e-05
3.72959e-05
3.72959e-05
5.31128e-05
3.71932e-05
5.31147e-05
3.71933e-05
3.70943e-05
3.72362e-05
3.7237e-05
3.71762e-05
3.71762e-05
3.73692e-05
3.73794e-05
3.73043e-05
3.73718e-05
3.73692e-05
3.73794e-05
3.73043e-05
3.73718e-05
3.71731e-05
3.94126e-05
3.7168e-05
3.67242e-05
3.71731e-05
3.94125e-05
3.7168e-05
3.67244e-05
3.70971e-05
3.70998e-05
3.60261e-05
3.64134e-05
3.71636e-05
3.71174e-05
3.63032e-05
3.70972e-05
3.70997e-05
3.6026e-05
3.64134e-05
3.71636e-05
3.71174e-05
3.63032e-05
3.73732e-05
3.72959e-05
3.72959e-05
5.3113e-05
3.71933e-05
3.70943e-05
3.72368e-05
3.72367e-05
3.71762e-05
3.71762e-05
5.31145e-05
3.71933e-05
3.73692e-05
3.73794e-05
3.73043e-05
3.73718e-05
3.73692e-05
3.73794e-05
3.73718e-05
3.73043e-05
3.71731e-05
3.9413e-05
3.7168e-05
3.67245e-05
3.70972e-05
3.70997e-05
3.6026e-05
3.64134e-05
3.71636e-05
3.71174e-05
3.63032e-05
3.71731e-05
3.94133e-05
3.7168e-05
3.67242e-05
3.70972e-05
3.70998e-05
3.64134e-05
3.60262e-05
3.71174e-05
3.71636e-05
3.63032e-05
3.73714e-05
3.73739e-05
3.73713e-05
3.73713e-05
3.73714e-05
3.73739e-05
3.73713e-05
3.73713e-05
3.73714e-05
3.73739e-05
3.73713e-05
3.73713e-05
3.71214e-05
3.71129e-05
3.64165e-05
3.64165e-05
3.71203e-05
3.71203e-05
3.64186e-05
3.71215e-05
3.71129e-05
3.64164e-05
3.64164e-05
3.71203e-05
3.71203e-05
3.64186e-05
3.71215e-05
3.71129e-05
3.64164e-05
3.64164e-05
3.71203e-05
3.71203e-05
3.64186e-05
3.71215e-05
3.71129e-05
3.64164e-05
3.64164e-05
3.71203e-05
3.71203e-05
3.64186e-05
3.73692e-05
3.73794e-05
3.73718e-05
3.73043e-05
3.70971e-05
3.70997e-05
3.60261e-05
3.64134e-05
3.71636e-05
3.71174e-05
3.63033e-05
3.71731e-05
3.94127e-05
3.71681e-05
3.67244e-05
3.70972e-05
3.70998e-05
3.64134e-05
3.6026e-05
3.71174e-05
3.71636e-05
3.63032e-05
3.71731e-05
3.94132e-05
3.71681e-05
3.67242e-05
3.73732e-05
3.72959e-05
3.72959e-05
5.31151e-05
3.71933e-05
3.70943e-05
3.72368e-05
3.72365e-05
3.71762e-05
3.71762e-05
5.31153e-05
3.71933e-05
3.73692e-05
3.73794e-05
3.73718e-05
3.73043e-05
3.70971e-05
3.70997e-05
3.64134e-05
3.60261e-05
3.71174e-05
3.71636e-05
3.63033e-05
3.70971e-05
3.70997e-05
3.64134e-05
3.6026e-05
3.71174e-05
3.71636e-05
3.63033e-05
3.71731e-05
3.94132e-05
3.7168e-05
3.67243e-05
3.71731e-05
3.94132e-05
3.7168e-05
3.67245e-05
3.70943e-05
3.72362e-05
3.72372e-05
3.71762e-05
3.71762e-05
5.31151e-05
3.71933e-05
5.3115e-05
3.71933e-05
5.51164e-05
6.48604e-05
5.51182e-05
6.48636e-05
3.65749e-05
3.65754e-05
3.52806e-05
3.39599e-05
3.39594e-05
7.49051e-05
6.76173e-05
7.49092e-05
6.76209e-05
3.4995e-05
3.19161e-05
3.1915e-05
3.34293e-05
3.34292e-05
3.58712e-05
4.08797e-05
3.66041e-05
4.50995e-05
3.52777e-05
3.5629e-05
3.59169e-05
3.53997e-05
3.60498e-05
3.42357e-05
3.53981e-05
3.52778e-05
3.56289e-05
3.59169e-05
3.53996e-05
3.60498e-05
3.42358e-05
3.53981e-05
3.56271e-05
5.0236e-05
4.64521e-05
3.492e-05
3.56276e-05
5.02349e-05
4.64514e-05
3.49205e-05
3.50154e-05
3.48331e-05
3.26164e-05
3.42988e-05
3.38694e-05
3.48315e-05
3.41383e-05
3.50154e-05
3.48331e-05
3.26165e-05
3.42987e-05
3.3869e-05
3.48316e-05
3.41384e-05
3.65752e-05
3.65747e-05
3.52806e-05
3.39599e-05
3.39592e-05
5.51176e-05
6.48622e-05
7.49065e-05
6.76195e-05
3.4995e-05
3.19156e-05
3.19156e-05
3.3429e-05
3.34295e-05
7.49066e-05
6.76196e-05
3.52778e-05
3.5629e-05
3.59169e-05
3.53997e-05
3.60498e-05
3.42355e-05
3.53981e-05
3.58714e-05
4.0881e-05
3.66036e-05
4.5102e-05
3.52778e-05
3.59169e-05
3.56289e-05
3.53997e-05
3.60498e-05
3.53981e-05
3.42356e-05
3.56272e-05
5.02365e-05
4.64513e-05
3.49202e-05
3.50154e-05
3.48331e-05
3.26159e-05
3.42988e-05
3.38688e-05
3.48315e-05
3.41384e-05
3.56271e-05
5.02373e-05
4.64536e-05
3.49199e-05
3.50154e-05
3.48331e-05
3.42988e-05
3.26163e-05
3.48316e-05
3.38689e-05
3.41382e-05
3.58714e-05
4.08788e-05
3.66039e-05
4.5101e-05
3.52778e-05
3.59169e-05
3.5629e-05
3.53997e-05
3.60498e-05
3.53981e-05
3.42359e-05
3.58714e-05
4.0881e-05
3.66036e-05
4.51015e-05
3.50154e-05
3.48331e-05
3.26159e-05
3.42988e-05
3.38687e-05
3.48315e-05
3.41384e-05
3.56274e-05
5.0235e-05
4.64497e-05
3.49204e-05
3.50154e-05
3.48331e-05
3.42988e-05
3.26166e-05
3.48315e-05
3.38688e-05
3.41383e-05
3.56269e-05
5.02365e-05
4.64535e-05
3.49203e-05
3.65748e-05
3.65753e-05
3.52806e-05
3.39594e-05
3.39589e-05
5.51186e-05
6.48633e-05
7.49089e-05
6.7622e-05
3.4995e-05
3.19156e-05
3.1916e-05
3.34288e-05
3.34299e-05
7.49081e-05
6.76199e-05
3.52778e-05
3.59169e-05
3.56291e-05
3.53997e-05
3.60498e-05
3.53981e-05
3.42355e-05
3.58719e-05
4.08805e-05
3.66036e-05
4.51019e-05
3.58721e-05
4.08798e-05
3.66039e-05
4.51007e-05
3.50153e-05
3.48331e-05
3.42988e-05
3.26163e-05
3.48315e-05
3.3869e-05
3.41383e-05
3.50154e-05
3.48331e-05
3.42988e-05
3.26161e-05
3.48315e-05
3.38688e-05
3.41384e-05
3.56265e-05
5.02374e-05
4.64533e-05
3.492e-05
3.56267e-05
5.02368e-05
4.64513e-05
3.49205e-05
5.51182e-05
6.48628e-05
5.51182e-05
6.48634e-05
3.49949e-05
3.19159e-05
3.19151e-05
3.34286e-05
3.34285e-05
7.49071e-05
6.76195e-05
7.49089e-05
6.7621e-05
7.66668e-05
7.91318e-05
7.6671e-05
7.91363e-05
3.14757e-05
3.14745e-05
3.344e-05
3.14913e-05
3.14894e-05
7.96047e-05
7.93813e-05
7.96095e-05
7.93839e-05
3.33644e-05
3.37057e-05
3.3705e-05
3.18366e-05
3.18346e-05
3.38855e-05
5.13401e-05
3.46746e-05
5.41537e-05
3.32213e-05
3.22994e-05
3.38895e-05
3.35743e-05
3.38474e-05
3.22146e-05
3.36309e-05
3.32214e-05
3.22991e-05
3.38895e-05
3.35742e-05
3.38475e-05
3.22144e-05
3.36309e-05
3.37743e-05
5.60934e-05
5.48775e-05
3.37442e-05
3.37743e-05
5.60941e-05
5.48768e-05
3.3744e-05
3.31303e-05
3.34427e-05
3.32423e-05
3.3431e-05
3.23666e-05
3.34937e-05
3.30768e-05
3.31303e-05
3.34427e-05
3.32424e-05
3.3431e-05
3.23661e-05
3.34937e-05
3.30767e-05
3.14751e-05
3.14745e-05
3.344e-05
3.14902e-05
3.149e-05
7.66701e-05
7.91329e-05
7.96083e-05
7.93824e-05
3.33644e-05
3.37052e-05
3.37046e-05
3.18351e-05
3.18355e-05
7.96056e-05
7.93833e-05
3.32214e-05
3.2299e-05
3.38896e-05
3.35743e-05
3.38475e-05
3.2214e-05
3.36309e-05
3.38856e-05
5.13432e-05
3.46748e-05
5.41561e-05
3.32213e-05
3.38895e-05
3.22989e-05
3.35742e-05
3.38474e-05
3.36309e-05
3.22142e-05
3.3774e-05
5.60946e-05
5.48782e-05
3.37441e-05
3.31303e-05
3.34427e-05
3.32421e-05
3.3431e-05
3.23658e-05
3.34937e-05
3.30767e-05
3.3774e-05
5.60959e-05
5.48794e-05
3.37442e-05
3.31302e-05
3.34426e-05
3.3431e-05
3.32421e-05
3.34937e-05
3.23666e-05
3.30766e-05
3.38856e-05
5.13398e-05
3.46746e-05
5.4153e-05
3.32214e-05
3.38896e-05
3.22991e-05
3.35743e-05
3.38474e-05
3.36309e-05
3.22146e-05
3.38851e-05
5.13423e-05
3.46744e-05
5.41546e-05
3.31304e-05
3.34427e-05
3.3242e-05
3.34311e-05
3.23662e-05
3.34936e-05
3.30767e-05
3.37738e-05
5.60939e-05
5.48767e-05
3.3744e-05
3.31303e-05
3.34427e-05
3.3431e-05
3.32425e-05
3.34936e-05
3.23664e-05
3.30767e-05
3.3774e-05
5.60948e-05
5.48779e-05
3.37441e-05
3.14748e-05
3.14749e-05
3.344e-05
3.14901e-05
3.14907e-05
7.66695e-05
7.91346e-05
7.96103e-05
7.93865e-05
3.33644e-05
3.37052e-05
3.37057e-05
3.18356e-05
3.1836e-05
7.96081e-05
7.93826e-05
3.32214e-05
3.38896e-05
3.22987e-05
3.35743e-05
3.38475e-05
3.36309e-05
3.22142e-05
3.38855e-05
5.13423e-05
3.46748e-05
5.41554e-05
3.38852e-05
5.13409e-05
3.4675e-05
5.41549e-05
3.31303e-05
3.34426e-05
3.34311e-05
3.32424e-05
3.34936e-05
3.23662e-05
3.30767e-05
3.31303e-05
3.34427e-05
3.3431e-05
3.32424e-05
3.34936e-05
3.2366e-05
3.30767e-05
3.3774e-05
5.6095e-05
5.48783e-05
3.37442e-05
3.37741e-05
5.60953e-05
5.4878e-05
3.37441e-05
7.66694e-05
7.91346e-05
7.66712e-05
7.91363e-05
3.33644e-05
3.3706e-05
3.37054e-05
3.18359e-05
3.18348e-05
7.96081e-05
7.93827e-05
7.96094e-05
7.93842e-05
7.96319e-05
7.96443e-05
7.96339e-05
7.96486e-05
3.40654e-05
3.40643e-05
3.33229e-05
3.44922e-05
3.44924e-05
7.96423e-05
7.96446e-05
7.9647e-05
7.96487e-05
3.33239e-05
3.45623e-05
3.45627e-05
3.45333e-05
3.45327e-05
3.38511e-05
5.62523e-05
3.37789e-05
5.63918e-05
3.31116e-05
3.3429e-05
3.3406e-05
3.33729e-05
3.30832e-05
3.36559e-05
3.33971e-05
3.31116e-05
3.34285e-05
3.3406e-05
3.33729e-05
3.30831e-05
3.3656e-05
3.33971e-05
3.38636e-05
5.6397e-05
5.63978e-05
3.3872e-05
3.38635e-05
5.6399e-05
5.63995e-05
3.38719e-05
3.31158e-05
3.33725e-05
3.37014e-05
3.33934e-05
3.36835e-05
3.33941e-05
3.31205e-05
3.31157e-05
3.33725e-05
3.37016e-05
3.33934e-05
3.36833e-05
3.33941e-05
3.31205e-05
3.40644e-05
3.40647e-05
3.33229e-05
3.44924e-05
3.44918e-05
7.96323e-05
7.96437e-05
7.96443e-05
7.96455e-05
3.33239e-05
3.45626e-05
3.45617e-05
3.45327e-05
3.45331e-05
7.96421e-05
7.9644e-05
3.31116e-05
3.34285e-05
3.3406e-05
3.33729e-05
3.30831e-05
3.36557e-05
3.33971e-05
3.38511e-05
5.62543e-05
3.37785e-05
5.63929e-05
3.31115e-05
3.3406e-05
3.34289e-05
3.33729e-05
3.30831e-05
3.33971e-05
3.36558e-05
3.38631e-05
5.63995e-05
5.64002e-05
3.38719e-05
3.31157e-05
3.33725e-05
3.37017e-05
3.33934e-05
3.36835e-05
3.33941e-05
3.31205e-05
3.3863e-05
5.64002e-05
5.64009e-05
3.38717e-05
3.31156e-05
3.33725e-05
3.33934e-05
3.37015e-05
3.33941e-05
3.36836e-05
3.31204e-05
3.38512e-05
5.62523e-05
3.37789e-05
5.63911e-05
3.31116e-05
3.3406e-05
3.34284e-05
3.33729e-05
3.30832e-05
3.33971e-05
3.36558e-05
3.38511e-05
5.62529e-05
3.37789e-05
5.63924e-05
3.31157e-05
3.33726e-05
3.37014e-05
3.33934e-05
3.36836e-05
3.33942e-05
3.31205e-05
3.38636e-05
5.63985e-05
5.63991e-05
3.3872e-05
3.31158e-05
3.33725e-05
3.33934e-05
3.37012e-05
3.33941e-05
3.36831e-05
3.31204e-05
3.38634e-05
5.63995e-05
5.64e-05
3.38718e-05
3.40651e-05
3.40648e-05
3.33228e-05
3.44918e-05
3.4493e-05
7.96329e-05
7.96474e-05
7.96454e-05
7.96467e-05
3.33239e-05
3.4562e-05
3.45628e-05
3.45329e-05
3.45332e-05
7.9646e-05
7.96475e-05
3.31116e-05
3.3406e-05
3.34284e-05
3.33729e-05
3.30831e-05
3.33971e-05
3.36559e-05
3.38511e-05
5.6253e-05
3.37785e-05
5.63927e-05
3.38511e-05
5.62535e-05
3.37784e-05
5.63933e-05
3.31157e-05
3.33726e-05
3.33934e-05
3.37013e-05
3.33942e-05
3.36833e-05
3.31204e-05
3.31157e-05
3.33725e-05
3.33934e-05
3.37015e-05
3.33941e-05
3.36833e-05
3.31204e-05
3.3863e-05
5.63998e-05
5.64003e-05
3.38717e-05
3.3863e-05
5.64004e-05
5.64009e-05
3.38717e-05
7.96331e-05
7.96476e-05
7.96343e-05
7.96489e-05
3.33239e-05
3.4563e-05
3.4563e-05
3.45329e-05
3.4533e-05
7.96459e-05
7.96477e-05
7.96471e-05
7.9649e-05
7.96424e-05
7.96396e-05
7.96468e-05
7.96453e-05
3.45662e-05
3.45664e-05
3.33278e-05
3.45669e-05
3.45678e-05
7.96398e-05
7.96396e-05
7.96448e-05
7.96446e-05
3.33278e-05
3.45671e-05
3.45686e-05
3.45677e-05
3.45688e-05
3.3875e-05
5.6399e-05
3.38743e-05
5.63971e-05
3.31222e-05
3.37048e-05
3.33935e-05
3.33729e-05
3.31214e-05
3.37052e-05
3.33935e-05
3.31222e-05
3.3705e-05
3.33934e-05
3.33729e-05
3.31213e-05
3.37056e-05
3.33934e-05
3.38763e-05
5.63946e-05
5.63944e-05
3.38757e-05
3.38762e-05
5.63962e-05
5.63971e-05
3.38756e-05
3.31227e-05
3.3373e-05
3.37056e-05
3.33934e-05
3.37067e-05
3.33934e-05
3.31229e-05
3.31226e-05
3.3373e-05
3.37062e-05
3.33933e-05
3.37071e-05
3.33934e-05
3.31229e-05
3.45664e-05
3.45656e-05
3.33278e-05
3.45677e-05
3.45662e-05
7.96422e-05
7.964e-05
7.96432e-05
7.96424e-05
3.33278e-05
3.45684e-05
3.45662e-05
3.45687e-05
3.45673e-05
7.96393e-05
7.964e-05
3.31222e-05
3.37049e-05
3.33935e-05
3.33729e-05
3.31214e-05
3.37054e-05
3.33935e-05
3.38748e-05
5.64002e-05
3.38739e-05
5.63981e-05
3.31221e-05
3.33934e-05
3.3705e-05
3.33729e-05
3.31213e-05
3.33934e-05
3.37054e-05
3.38762e-05
5.63972e-05
5.63973e-05
3.3876e-05
3.31227e-05
3.3373e-05
3.3706e-05
3.33934e-05
3.3707e-05
3.33934e-05
3.3123e-05
3.3876e-05
5.6397e-05
5.63981e-05
3.38756e-05
3.31225e-05
3.33729e-05
3.33933e-05
3.37059e-05
3.33934e-05
3.3707e-05
3.31229e-05
3.3875e-05
5.63985e-05
3.38743e-05
5.63964e-05
3.31221e-05
3.33935e-05
3.37046e-05
3.33729e-05
3.31213e-05
3.33934e-05
3.37052e-05
3.38749e-05
5.63995e-05
3.38741e-05
5.63975e-05
3.31227e-05
3.3373e-05
3.37058e-05
3.33933e-05
3.37069e-05
3.33935e-05
3.31228e-05
3.38762e-05
5.63952e-05
5.63964e-05
3.38756e-05
3.31226e-05
3.3373e-05
3.33933e-05
3.37059e-05
3.33934e-05
3.37068e-05
3.31229e-05
3.38761e-05
5.63966e-05
5.63975e-05
3.38755e-05
3.45659e-05
3.45664e-05
3.33277e-05
3.45667e-05
3.45676e-05
7.96459e-05
7.96446e-05
7.96431e-05
7.96431e-05
3.33277e-05
3.4567e-05
3.45684e-05
3.45677e-05
3.45686e-05
7.96436e-05
7.96446e-05
3.31222e-05
3.33935e-05
3.37048e-05
3.3373e-05
3.31213e-05
3.33934e-05
3.37054e-05
3.38748e-05
5.63998e-05
3.38738e-05
5.63979e-05
3.38748e-05
5.64004e-05
3.38738e-05
5.63984e-05
3.31226e-05
3.3373e-05
3.33933e-05
3.37059e-05
3.33935e-05
3.37068e-05
3.31228e-05
3.31226e-05
3.3373e-05
3.33934e-05
3.37061e-05
3.33934e-05
3.3707e-05
3.31229e-05
3.3876e-05
5.6397e-05
5.63979e-05
3.38757e-05
3.3876e-05
5.63975e-05
5.63984e-05
3.38758e-05
7.96459e-05
7.96447e-05
7.9647e-05
7.96458e-05
3.33281e-05
3.45686e-05
3.45687e-05
3.45688e-05
3.45688e-05
7.96438e-05
7.96447e-05
7.96448e-05
7.96458e-05
7.96392e-05
7.96408e-05
7.96443e-05
7.96446e-05
3.45679e-05
3.45693e-05
3.33282e-05
3.45677e-05
3.45686e-05
7.96411e-05
7.96401e-05
7.96447e-05
7.96437e-05
3.33283e-05
3.45683e-05
3.45687e-05
3.45686e-05
3.45693e-05
3.38757e-05
5.63962e-05
3.38766e-05
5.6396e-05
3.3123e-05
3.37069e-05
3.33935e-05
3.33731e-05
3.31233e-05
3.37057e-05
3.33935e-05
3.3123e-05
3.37076e-05
3.33934e-05
3.33731e-05
3.31233e-05
3.37063e-05
3.33934e-05
3.38767e-05
5.63949e-05
5.63944e-05
3.38758e-05
3.38767e-05
5.6396e-05
5.6396e-05
3.38757e-05
3.31233e-05
3.3373e-05
3.37059e-05
3.33933e-05
3.37071e-05
3.33933e-05
3.3123e-05
3.31233e-05
3.3373e-05
3.37063e-05
3.33933e-05
3.37076e-05
3.33933e-05
3.3123e-05
3.45691e-05
3.4567e-05
3.33282e-05
3.45683e-05
3.45663e-05
7.96394e-05
7.96391e-05
7.96433e-05
7.96422e-05
3.33283e-05
3.45684e-05
3.45664e-05
3.4569e-05
3.45673e-05
7.96393e-05
7.96392e-05
3.31231e-05
3.37074e-05
3.33935e-05
3.33732e-05
3.31234e-05
3.37063e-05
3.33935e-05
3.38758e-05
5.6397e-05
3.38766e-05
5.63967e-05
3.3123e-05
3.33934e-05
3.37073e-05
3.33731e-05
3.31233e-05
3.33934e-05
3.3706e-05
3.38771e-05
5.63968e-05
5.63965e-05
3.38763e-05
3.31235e-05
3.3373e-05
3.37063e-05
3.33933e-05
3.37075e-05
3.33934e-05
3.31232e-05
3.38767e-05
5.63966e-05
5.63968e-05
3.38758e-05
3.31233e-05
3.33729e-05
3.33933e-05
3.3706e-05
3.33933e-05
3.37074e-05
3.3123e-05
3.38757e-05
5.63953e-05
3.38766e-05
5.6395e-05
3.3123e-05
3.33935e-05
3.37072e-05
3.33731e-05
3.31233e-05
3.33934e-05
3.3706e-05
3.38757e-05
5.63966e-05
3.38765e-05
5.63963e-05
3.31232e-05
3.33731e-05
3.37059e-05
3.33933e-05
3.37073e-05
3.33934e-05
3.31228e-05
3.38767e-05
5.63949e-05
5.6395e-05
3.38757e-05
3.31233e-05
3.3373e-05
3.33933e-05
3.3706e-05
3.33933e-05
3.37073e-05
3.3123e-05
3.38766e-05
5.63963e-05
5.63963e-05
3.38757e-05
3.45678e-05
3.45691e-05
3.33282e-05
3.4567e-05
3.45685e-05
7.96436e-05
7.96436e-05
7.96431e-05
7.96424e-05
3.33283e-05
3.45672e-05
3.45686e-05
3.45679e-05
3.45692e-05
7.96432e-05
7.96437e-05
3.31231e-05
3.33935e-05
3.37074e-05
3.33732e-05
3.31233e-05
3.33935e-05
3.37062e-05
3.38759e-05
5.6397e-05
3.38767e-05
5.63967e-05
3.38759e-05
5.63975e-05
3.38767e-05
5.63972e-05
3.31233e-05
3.33731e-05
3.33933e-05
3.37061e-05
3.33934e-05
3.37074e-05
3.31228e-05
3.31234e-05
3.3373e-05
3.33933e-05
3.37062e-05
3.33933e-05
3.37075e-05
3.31231e-05
3.38767e-05
5.63966e-05
5.63967e-05
3.38759e-05
3.38768e-05
5.63971e-05
5.63972e-05
3.38759e-05
7.96438e-05
7.96439e-05
7.96448e-05
7.9645e-05
3.33283e-05
3.45688e-05
3.45688e-05
3.45694e-05
3.45694e-05
7.96434e-05
7.96439e-05
7.96446e-05
7.9645e-05
7.9641e-05
7.96411e-05
7.96442e-05
7.96445e-05
3.45691e-05
3.45694e-05
3.33282e-05
3.45686e-05
3.45686e-05
7.9641e-05
7.96411e-05
7.96447e-05
7.96437e-05
3.33284e-05
3.45686e-05
3.45687e-05
3.45693e-05
3.45693e-05
3.38758e-05
5.6396e-05
3.38767e-05
5.63961e-05
3.3123e-05
3.37072e-05
3.33935e-05
3.33731e-05
3.31233e-05
3.3706e-05
3.33934e-05
3.3123e-05
3.37076e-05
3.33934e-05
3.33731e-05
3.31233e-05
3.37064e-05
3.33934e-05
3.38768e-05
5.63948e-05
5.63944e-05
3.38758e-05
3.38768e-05
5.63961e-05
5.63961e-05
3.38758e-05
3.31233e-05
3.3373e-05
3.3706e-05
3.33933e-05
3.37073e-05
3.33934e-05
3.3123e-05
3.31233e-05
3.3373e-05
3.37063e-05
3.33933e-05
3.37077e-05
3.33934e-05
3.3123e-05
3.45691e-05
3.45672e-05
3.33282e-05
3.45684e-05
3.45662e-05
7.96395e-05
7.96391e-05
7.9644e-05
7.9643e-05
3.33283e-05
3.45684e-05
3.45665e-05
3.45691e-05
3.45671e-05
7.96394e-05
7.96392e-05
3.31232e-05
3.37076e-05
3.33935e-05
3.33731e-05
3.31235e-05
3.37064e-05
3.33935e-05
3.38759e-05
5.63967e-05
3.38767e-05
5.63967e-05
3.3123e-05
3.33934e-05
3.37074e-05
3.3373e-05
3.31233e-05
3.33934e-05
3.3706e-05
3.38771e-05
5.63968e-05
5.63965e-05
3.38763e-05
3.31235e-05
3.3373e-05
3.37063e-05
3.33933e-05
3.37076e-05
3.33934e-05
3.31232e-05
3.38767e-05
5.63966e-05
5.63967e-05
3.38758e-05
3.31233e-05
3.3373e-05
3.33933e-05
3.3706e-05
3.33933e-05
3.37074e-05
3.3123e-05
3.38758e-05
5.63949e-05
3.38767e-05
5.6395e-05
3.3123e-05
3.33935e-05
3.37072e-05
3.33731e-05
3.31233e-05
3.33934e-05
3.3706e-05
3.38757e-05
5.63963e-05
3.38766e-05
5.63963e-05
3.31232e-05
3.33731e-05
3.37059e-05
3.33933e-05
3.37073e-05
3.33934e-05
3.31228e-05
3.38767e-05
5.63949e-05
5.6395e-05
3.38757e-05
3.31233e-05
3.3373e-05
3.33933e-05
3.3706e-05
3.33934e-05
3.37073e-05
3.3123e-05
3.38766e-05
5.63963e-05
5.63963e-05
3.38757e-05
3.45679e-05
3.45692e-05
3.33282e-05
3.4567e-05
3.45686e-05
7.96431e-05
7.96435e-05
7.96431e-05
7.96424e-05
3.33283e-05
3.45672e-05
3.45686e-05
3.45678e-05
3.45692e-05
7.96432e-05
7.96434e-05
3.31231e-05
3.33935e-05
3.37075e-05
3.33731e-05
3.31234e-05
3.33934e-05
3.37062e-05
3.38759e-05
5.63966e-05
3.38767e-05
5.63967e-05
3.3876e-05
5.63972e-05
3.38768e-05
5.63971e-05
3.31233e-05
3.33731e-05
3.33933e-05
3.37061e-05
3.33934e-05
3.37074e-05
3.31228e-05
3.31234e-05
3.3373e-05
3.33933e-05
3.37062e-05
3.33934e-05
3.37075e-05
3.31231e-05
3.38767e-05
5.63966e-05
5.63967e-05
3.38759e-05
3.38768e-05
5.63971e-05
5.63972e-05
3.38759e-05
7.96434e-05
7.96437e-05
7.96446e-05
7.96449e-05
3.33283e-05
3.45688e-05
3.45688e-05
3.45694e-05
3.45695e-05
7.96434e-05
7.96437e-05
7.96446e-05
7.96449e-05
7.9641e-05
7.96413e-05
7.96442e-05
7.96445e-05
3.45692e-05
3.45693e-05
3.33282e-05
3.45685e-05
3.45686e-05
7.96412e-05
7.96413e-05
7.96447e-05
7.96437e-05
3.33284e-05
3.45685e-05
3.45687e-05
3.45691e-05
3.45693e-05
3.38758e-05
5.63961e-05
3.38767e-05
5.6396e-05
3.3123e-05
3.37073e-05
3.33935e-05
3.33731e-05
3.31233e-05
3.3706e-05
3.33934e-05
3.3123e-05
3.37076e-05
3.33934e-05
3.33731e-05
3.31233e-05
3.37064e-05
3.33934e-05
3.38768e-05
5.63948e-05
5.63942e-05
3.38758e-05
3.38767e-05
5.6396e-05
5.6396e-05
3.38757e-05
3.31233e-05
3.3373e-05
3.3706e-05
3.33933e-05
3.37073e-05
3.33934e-05
3.3123e-05
3.31233e-05
3.3373e-05
3.37063e-05
3.33933e-05
3.37077e-05
3.33933e-05
3.3123e-05
3.45691e-05
3.45673e-05
3.33282e-05
3.45685e-05
3.45662e-05
7.96395e-05
7.96392e-05
7.96437e-05
7.9643e-05
3.33283e-05
3.45685e-05
3.45664e-05
3.45692e-05
3.45671e-05
7.96394e-05
7.96392e-05
3.31232e-05
3.37076e-05
3.33935e-05
3.33731e-05
3.31235e-05
3.37063e-05
3.33935e-05
3.38759e-05
5.63966e-05
3.38767e-05
5.63967e-05
3.3123e-05
3.33934e-05
3.37074e-05
3.3373e-05
3.31233e-05
3.33934e-05
3.3706e-05
3.38771e-05
5.63968e-05
5.63965e-05
3.38763e-05
3.31235e-05
3.3373e-05
3.37063e-05
3.33933e-05
3.37076e-05
3.33934e-05
3.31232e-05
3.38767e-05
5.63966e-05
5.63967e-05
3.38758e-05
3.31233e-05
3.3373e-05
3.33933e-05
3.3706e-05
3.33933e-05
3.37074e-05
3.3123e-05
3.38758e-05
5.63949e-05
3.38767e-05
5.6395e-05
3.3123e-05
3.33935e-05
3.37072e-05
3.33731e-05
3.31233e-05
3.33934e-05
3.3706e-05
3.38757e-05
5.63963e-05
3.38766e-05
5.63963e-05
3.31233e-05
3.33731e-05
3.37059e-05
3.33933e-05
3.37073e-05
3.33934e-05
3.31228e-05
3.38767e-05
5.63949e-05
5.6395e-05
3.38757e-05
3.31233e-05
3.3373e-05
3.33933e-05
3.3706e-05
3.33934e-05
3.37073e-05
3.3123e-05
3.38766e-05
5.63963e-05
5.63963e-05
3.38757e-05
3.45679e-05
3.45692e-05
3.33282e-05
3.4567e-05
3.45685e-05
7.96432e-05
7.96435e-05
7.96431e-05
7.96424e-05
3.33283e-05
3.45671e-05
3.45686e-05
3.45678e-05
3.45692e-05
7.96432e-05
7.96434e-05
3.31231e-05
3.33935e-05
3.37075e-05
3.33731e-05
3.31234e-05
3.33934e-05