/*--------------------------------*- C++ -*----------------------------------*\
| =========                 |                                                 |
| \\      /  F ield         | OpenFOAM: The Open Source CFD Toolbox           |
|  \\    /   O peration     | Version:  2206                                  |
|   \\  /    A nd           | Website:  www.openfoam.com                      |
|    \\/     M anipulation  |                                                 |
\*---------------------------------------------------------------------------*/
FoamFile
{
    version     2.0;
    format      ascii;
    arch        "LSB;label=32;scalar=64";
    class       volScalarField;
    location    "5.5";
    object      epsilon;
}
// * * * * * * * * * * * * * * * * * * * * * * * * * * * * * * * * * * * * * //

dimensions      [0 2 -3 0 0 0 0];

internalField   nonuniform List<scalar> 
28687
(
4.65946e-07
4.67761e-07
4.67764e-07
4.70389e-07
4.65848e-07
4.676e-07
4.67674e-07
4.70351e-07
4.65645e-07
4.67481e-07
4.67483e-07
4.70147e-07
4.65643e-07
4.67482e-07
4.67482e-07
4.70151e-07
4.65643e-07
4.67481e-07
4.67482e-07
4.70151e-07
4.65643e-07
4.67481e-07
4.67482e-07
4.70151e-07
4.65643e-07
4.67481e-07
4.67482e-07
4.70151e-07
4.65643e-07
4.67481e-07
4.67482e-07
4.70151e-07
4.65643e-07
4.67481e-07
4.67482e-07
4.70151e-07
4.65643e-07
4.67481e-07
4.67482e-07
4.70151e-07
4.65643e-07
4.67481e-07
4.67482e-07
4.70151e-07
4.65643e-07
4.67481e-07
4.67482e-07
4.70151e-07
4.65643e-07
4.67481e-07
4.67482e-07
4.70151e-07
4.65643e-07
4.67481e-07
4.67482e-07
4.70151e-07
4.65643e-07
4.67481e-07
4.67482e-07
4.70151e-07
4.65643e-07
4.67481e-07
4.67482e-07
4.70151e-07
4.65643e-07
4.67481e-07
4.67482e-07
4.70151e-07
4.65643e-07
4.67481e-07
4.67482e-07
4.70151e-07
4.67765e-07
4.7036e-07
4.67763e-07
4.70385e-07
4.70338e-07
4.67763e-07
4.67763e-07
4.67736e-07
4.67689e-07
4.70397e-07
4.70265e-07
4.67763e-07
4.67765e-07
4.67736e-07
4.67738e-07
4.67764e-07
4.67697e-07
4.67736e-07
4.70386e-07
4.70339e-07
4.67763e-07
4.67737e-07
4.67736e-07
4.70338e-07
4.70355e-07
4.70119e-07
4.67676e-07
4.67597e-07
4.67493e-07
4.67485e-07
4.7027e-07
4.70112e-07
4.67675e-07
4.67678e-07
4.67492e-07
4.67494e-07
4.67676e-07
4.67484e-07
4.67493e-07
4.70356e-07
4.7012e-07
4.67675e-07
4.67492e-07
4.67492e-07
4.70119e-07
4.7015e-07
4.70117e-07
4.67488e-07
4.67486e-07
4.67483e-07
4.67483e-07
4.70146e-07
4.70116e-07
4.67487e-07
4.67489e-07
4.67482e-07
4.67484e-07
4.67488e-07
4.67483e-07
4.67483e-07
4.70151e-07
4.70118e-07
4.67487e-07
4.67483e-07
4.67482e-07
4.70121e-07
4.70151e-07
4.70117e-07
4.67487e-07
4.67486e-07
4.67483e-07
4.67483e-07
4.7015e-07
4.70116e-07
4.67486e-07
4.67488e-07
4.67482e-07
4.67484e-07
4.67487e-07
4.67482e-07
4.67483e-07
4.70152e-07
4.70117e-07
4.67486e-07
4.67483e-07
4.67482e-07
4.7012e-07
4.70151e-07
4.70117e-07
4.67486e-07
4.67486e-07
4.67483e-07
4.67483e-07
4.7015e-07
4.70115e-07
4.67486e-07
4.67488e-07
4.67482e-07
4.67484e-07
4.67486e-07
4.67482e-07
4.67483e-07
4.70151e-07
4.70117e-07
4.67485e-07
4.67483e-07
4.67482e-07
4.7012e-07
4.70151e-07
4.70117e-07
4.67486e-07
4.67486e-07
4.67483e-07
4.67483e-07
4.70149e-07
4.70116e-07
4.67486e-07
4.67488e-07
4.67482e-07
4.67484e-07
4.67486e-07
4.67482e-07
4.67483e-07
4.70151e-07
4.70117e-07
4.67486e-07
4.67483e-07
4.67482e-07
4.7012e-07
4.70151e-07
4.70117e-07
4.67486e-07
4.67486e-07
4.67483e-07
4.67483e-07
4.7015e-07
4.70116e-07
4.67486e-07
4.67488e-07
4.67482e-07
4.67484e-07
4.67486e-07
4.67482e-07
4.67483e-07
4.70151e-07
4.70118e-07
4.67486e-07
4.67483e-07
4.67482e-07
4.7012e-07
4.70151e-07
4.70117e-07
4.67486e-07
4.67487e-07
4.67483e-07
4.67483e-07
4.7015e-07
4.70115e-07
4.67486e-07
4.67488e-07
4.67482e-07
4.67484e-07
4.67486e-07
4.67482e-07
4.67483e-07
4.70152e-07
4.70118e-07
4.67486e-07
4.67483e-07
4.67482e-07
4.7012e-07
4.70151e-07
4.70117e-07
4.67486e-07
4.67486e-07
4.67483e-07
4.67483e-07
4.70149e-07
4.70116e-07
4.67486e-07
4.67488e-07
4.67482e-07
4.67484e-07
4.67486e-07
4.67482e-07
4.67483e-07
4.70152e-07
4.70117e-07
4.67486e-07
4.67483e-07
4.67482e-07
4.7012e-07
4.70151e-07
4.70117e-07
4.67486e-07
4.67486e-07
4.67483e-07
4.67483e-07
4.7015e-07
4.70116e-07
4.67485e-07
4.67488e-07
4.67482e-07
4.67484e-07
4.67486e-07
4.67482e-07
4.67483e-07
4.70151e-07
4.70118e-07
4.67486e-07
4.67483e-07
4.67482e-07
4.7012e-07
4.70151e-07
4.70117e-07
4.67486e-07
4.67487e-07
4.67483e-07
4.67483e-07
4.7015e-07
4.70116e-07
4.67485e-07
4.67488e-07
4.67482e-07
4.67484e-07
4.67486e-07
4.67482e-07
4.67483e-07
4.70151e-07
4.70118e-07
4.67486e-07
4.67483e-07
4.67482e-07
4.7012e-07
4.70151e-07
4.70117e-07
4.67486e-07
4.67486e-07
4.67483e-07
4.67483e-07
4.7015e-07
4.70116e-07
4.67485e-07
4.67488e-07
4.67482e-07
4.67484e-07
4.67486e-07
4.67482e-07
4.67483e-07
4.70152e-07
4.70117e-07
4.67486e-07
4.67483e-07
4.67482e-07
4.7012e-07
4.70151e-07
4.70117e-07
4.67486e-07
4.67486e-07
4.67483e-07
4.67483e-07
4.7015e-07
4.70116e-07
4.67485e-07
4.67488e-07
4.67482e-07
4.67484e-07
4.67486e-07
4.67482e-07
4.67483e-07
4.70151e-07
4.70117e-07
4.67486e-07
4.67483e-07
4.67483e-07
4.7012e-07
4.70151e-07
4.70117e-07
4.67486e-07
4.67486e-07
4.67483e-07
4.67483e-07
4.7015e-07
4.70116e-07
4.67485e-07
4.67488e-07
4.67482e-07
4.67484e-07
4.67486e-07
4.67482e-07
4.67483e-07
4.70151e-07
4.70118e-07
4.67486e-07
4.67483e-07
4.67483e-07
4.7012e-07
4.70151e-07
4.70117e-07
4.67486e-07
4.67486e-07
4.67483e-07
4.67483e-07
4.7015e-07
4.70116e-07
4.67485e-07
4.67488e-07
4.67482e-07
4.67484e-07
4.67486e-07
4.67482e-07
4.67483e-07
4.70151e-07
4.70117e-07
4.67486e-07
4.67483e-07
4.67482e-07
4.7012e-07
4.70151e-07
4.70117e-07
4.67486e-07
4.67487e-07
4.67483e-07
4.67483e-07
4.7015e-07
4.70116e-07
4.67485e-07
4.67488e-07
4.67482e-07
4.67484e-07
4.67486e-07
4.67482e-07
4.67483e-07
4.70151e-07
4.70117e-07
4.67486e-07
4.67483e-07
4.67482e-07
4.7012e-07
4.70151e-07
4.70117e-07
4.67486e-07
4.67487e-07
4.67483e-07
4.67483e-07
4.7015e-07
4.70116e-07
4.67485e-07
4.67488e-07
4.67482e-07
4.67484e-07
4.67486e-07
4.67482e-07
4.67483e-07
4.70151e-07
4.70118e-07
4.67486e-07
4.67483e-07
4.67482e-07
4.7012e-07
4.70151e-07
4.67485e-07
4.67485e-07
4.7015e-07
4.67484e-07
4.67486e-07
4.67485e-07
4.70151e-07
4.67484e-07
1.07059e-06
5.46504e-06
1.07078e-06
5.46509e-06
1.8692e-05
1.86905e-05
1.07052e-06
5.46585e-06
1.07065e-06
5.46584e-06
4.6595e-07
4.65944e-07
4.65944e-07
4.65916e-07
4.65913e-07
4.65914e-07
4.65914e-07
5.40452e-07
9.25076e-07
4.66243e-07
4.67758e-07
5.40523e-07
9.24877e-07
4.66241e-07
1.86966e-05
1.86942e-05
5.40448e-07
4.66241e-07
9.25205e-07
4.67762e-07
5.40519e-07
4.66239e-07
9.24874e-07
1.67139e-06
1.67171e-06
4.7036e-07
1.67149e-06
1.67181e-06
1.07213e-06
5.46859e-06
1.07139e-06
5.4733e-06
1.87325e-05
1.87372e-05
1.07209e-06
5.46936e-06
1.07125e-06
5.47402e-06
4.65838e-07
4.6585e-07
4.6585e-07
4.65655e-07
4.65653e-07
4.65655e-07
4.65654e-07
5.4057e-07
9.26018e-07
4.6614e-07
4.67536e-07
5.40554e-07
9.26071e-07
4.66048e-07
1.87136e-05
1.87383e-05
5.40568e-07
4.66145e-07
9.25529e-07
4.67586e-07
5.4055e-07
4.66052e-07
9.25913e-07
1.67302e-06
1.6733e-06
4.70164e-07
1.67483e-06
1.67514e-06
1.0723e-06
5.47365e-06
1.07248e-06
5.47358e-06
1.87378e-05
1.87373e-05
1.07221e-06
5.47442e-06
1.07236e-06
5.47429e-06
4.65648e-07
4.65648e-07
4.65648e-07
4.65645e-07
4.65643e-07
4.65643e-07
4.65643e-07
5.40597e-07
9.26338e-07
4.65944e-07
4.67484e-07
5.40654e-07
9.26101e-07
4.65946e-07
1.87398e-05
1.87395e-05
5.40592e-07
4.65944e-07
9.26286e-07
4.67485e-07
5.4065e-07
4.65947e-07
9.26069e-07
1.67513e-06
1.67545e-06
4.70116e-07
1.67492e-06
1.67524e-06
1.0723e-06
5.47366e-06
1.07247e-06
5.47356e-06
1.87379e-05
1.87376e-05
1.0722e-06
5.47444e-06
1.07235e-06
5.47426e-06
4.65647e-07
4.65647e-07
4.65647e-07
4.65643e-07
4.65643e-07
4.65643e-07
4.65643e-07
5.406e-07
9.26338e-07
4.65943e-07
4.67485e-07
5.40651e-07
9.26101e-07
4.65946e-07
1.87397e-05
1.87394e-05
5.40594e-07
4.65943e-07
9.26285e-07
4.67485e-07
5.40647e-07
4.65946e-07
9.26069e-07
1.67512e-06
1.67543e-06
4.70117e-07
1.67492e-06
1.67524e-06
1.0723e-06
5.47366e-06
1.07248e-06
5.47356e-06
1.87381e-05
1.87376e-05
1.0722e-06
5.47444e-06
1.07235e-06
5.47427e-06
4.65647e-07
4.65647e-07
4.65647e-07
4.65644e-07
4.65643e-07
4.65644e-07
4.65643e-07
5.40599e-07
9.26337e-07
4.65943e-07
4.67485e-07
5.4065e-07
9.26102e-07
4.65946e-07
1.87397e-05
1.87394e-05
5.40595e-07
4.65943e-07
9.26285e-07
4.67485e-07
5.40646e-07
4.65946e-07
9.26069e-07
1.67512e-06
1.67544e-06
4.70117e-07
1.67492e-06
1.67524e-06
1.0723e-06
5.47366e-06
1.07247e-06
5.47356e-06
1.87381e-05
1.8737e-05
1.0722e-06
5.47444e-06
1.07235e-06
5.47427e-06
4.65646e-07
4.65647e-07
4.65647e-07
4.65644e-07
4.65643e-07
4.65643e-07
4.65643e-07
5.40599e-07
9.2634e-07
4.65942e-07
4.67484e-07
5.4065e-07
9.26101e-07
4.65946e-07
1.87397e-05
1.87394e-05
5.40594e-07
4.65943e-07
9.26285e-07
4.67485e-07
5.40646e-07
4.65946e-07
9.26069e-07
1.67512e-06
1.67543e-06
4.70117e-07
1.67492e-06
1.67524e-06
1.0723e-06
5.47362e-06
1.07247e-06
5.47349e-06
1.87372e-05
1.87376e-05
1.0722e-06
5.47444e-06
1.07235e-06
5.47427e-06
4.65647e-07
4.65647e-07
4.65647e-07
4.65644e-07
4.65643e-07
4.65643e-07
4.65643e-07
5.406e-07
9.26338e-07
4.65943e-07
4.67485e-07
5.4065e-07
9.26101e-07
4.65946e-07
1.87397e-05
1.87394e-05
5.40594e-07
4.65943e-07
9.26285e-07
4.67485e-07
5.40647e-07
4.65946e-07
9.26069e-07
1.67512e-06
1.67543e-06
4.70117e-07
1.67492e-06
1.67524e-06
1.0723e-06
5.47365e-06
1.07247e-06
5.47358e-06
1.87382e-05
1.87377e-05
1.0722e-06
5.47444e-06
1.07235e-06
5.47427e-06
4.65647e-07
4.65647e-07
4.65647e-07
4.65644e-07
4.65643e-07
4.65643e-07
4.65643e-07
5.406e-07
9.26338e-07
4.65943e-07
4.67484e-07
5.4065e-07
9.26101e-07
4.65946e-07
1.87397e-05
1.87394e-05
5.40594e-07
4.65943e-07
9.26285e-07
4.67485e-07
5.40647e-07
4.65946e-07
9.26069e-07
1.67512e-06
1.67543e-06
4.70117e-07
1.67492e-06
1.67524e-06
1.0723e-06
5.4737e-06
1.07248e-06
5.47353e-06
1.8738e-05
1.87369e-05
1.0722e-06
5.47441e-06
1.07235e-06
5.47426e-06
4.65647e-07
4.65647e-07
4.65646e-07
4.65644e-07
4.65643e-07
4.65643e-07
4.65643e-07
5.40599e-07
9.26338e-07
4.65943e-07
4.67485e-07
5.4065e-07
9.26101e-07
4.65946e-07
1.87397e-05
1.87394e-05
5.40594e-07
4.65943e-07
9.26285e-07
4.67485e-07
5.40647e-07
4.65946e-07
9.26069e-07
1.67512e-06
1.67543e-06
4.70117e-07
1.67492e-06
1.67524e-06
1.0723e-06
5.4737e-06
1.07248e-06
5.47361e-06
1.87374e-05
1.87369e-05
1.0722e-06
5.47441e-06
1.07235e-06
5.47428e-06
4.65647e-07
4.65647e-07
4.65646e-07
4.65643e-07
4.65643e-07
4.65643e-07
4.65643e-07
5.40599e-07
9.26338e-07
4.65943e-07
4.67485e-07
5.4065e-07
9.26101e-07
4.65946e-07
1.87397e-05
1.87394e-05
5.40594e-07
4.65943e-07
9.26285e-07
4.67485e-07
5.40647e-07
4.65946e-07
9.26069e-07
1.67512e-06
1.67543e-06
4.70117e-07
1.67492e-06
1.67524e-06
1.0723e-06
5.47371e-06
1.07247e-06
5.47357e-06
1.87374e-05
1.87369e-05
1.0722e-06
5.47442e-06
1.07235e-06
5.47429e-06
4.65647e-07
4.65647e-07
4.65647e-07
4.65644e-07
4.65643e-07
4.65643e-07
4.65643e-07
5.40599e-07
9.26338e-07
4.65943e-07
4.67485e-07
5.4065e-07
9.26101e-07
4.65946e-07
1.87397e-05
1.87394e-05
5.40594e-07
4.65943e-07
9.26285e-07
4.67485e-07
5.40647e-07
4.65946e-07
9.26069e-07
1.67512e-06
1.67543e-06
4.70117e-07
1.67492e-06
1.67524e-06
1.0723e-06
5.4737e-06
1.07247e-06
5.47357e-06
1.87374e-05
1.87369e-05
1.0722e-06
5.47444e-06
1.07235e-06
5.47429e-06
4.65647e-07
4.65647e-07
4.65647e-07
4.65643e-07
4.65643e-07
4.65643e-07
4.65643e-07
5.40599e-07
9.26338e-07
4.65943e-07
4.67485e-07
5.4065e-07
9.26101e-07
4.65946e-07
1.87397e-05
1.87394e-05
5.40594e-07
4.65943e-07
9.26285e-07
4.67485e-07
5.40647e-07
4.65946e-07
9.26069e-07
1.67512e-06
1.67543e-06
4.70117e-07
1.67492e-06
1.67524e-06
1.0723e-06
5.47371e-06
1.07247e-06
5.47357e-06
1.87374e-05
1.87369e-05
1.0722e-06
5.47444e-06
1.07235e-06
5.47429e-06
4.65647e-07
4.65647e-07
4.65647e-07
4.65644e-07
4.65643e-07
4.65643e-07
4.65643e-07
5.40599e-07
9.26338e-07
4.65943e-07
4.67485e-07
5.40649e-07
9.26101e-07
4.65946e-07
1.87397e-05
1.87394e-05
5.40595e-07
4.65943e-07
9.26285e-07
4.67485e-07
5.40647e-07
4.65946e-07
9.26069e-07
1.67512e-06
1.67543e-06
4.70117e-07
1.67492e-06
1.67524e-06
1.0723e-06
5.47371e-06
1.07247e-06
5.47357e-06
1.87374e-05
1.87369e-05
1.0722e-06
5.47443e-06
1.07235e-06
5.47429e-06
4.65647e-07
4.65647e-07
4.65647e-07
4.65644e-07
4.65643e-07
4.65643e-07
4.65643e-07
5.406e-07
9.26338e-07
4.65943e-07
4.67485e-07
5.40649e-07
9.26101e-07
4.65946e-07
1.87397e-05
1.87394e-05
5.40596e-07
4.65943e-07
9.26285e-07
4.67485e-07
5.40646e-07
4.65946e-07
9.26069e-07
1.67512e-06
1.67543e-06
4.70117e-07
1.67492e-06
1.67524e-06
1.0723e-06
5.47371e-06
1.07247e-06
5.47357e-06
1.87374e-05
1.87369e-05
1.0722e-06
5.47443e-06
1.07235e-06
5.47429e-06
4.65647e-07
4.65647e-07
4.65647e-07
4.65644e-07
4.65644e-07
4.65643e-07
4.65643e-07
5.406e-07
9.26338e-07
4.65943e-07
4.67485e-07
5.40649e-07
9.26101e-07
4.65946e-07
1.87397e-05
1.87394e-05
5.40596e-07
4.65943e-07
9.26285e-07
4.67485e-07
5.40646e-07
4.65946e-07
9.26069e-07
1.67512e-06
1.67543e-06
4.70117e-07
1.67492e-06
1.67524e-06
1.0723e-06
5.47371e-06
1.07247e-06
5.47357e-06
1.87374e-05
1.87369e-05
1.0722e-06
5.47443e-06
1.07235e-06
5.47429e-06
4.65647e-07
4.65647e-07
4.65647e-07
4.65644e-07
4.65644e-07
4.65644e-07
4.65643e-07
5.406e-07
9.26338e-07
4.65943e-07
4.67485e-07
5.4065e-07
9.26101e-07
4.65946e-07
1.87397e-05
1.87394e-05
5.40595e-07
4.65943e-07
9.26285e-07
4.67485e-07
5.40647e-07
4.65946e-07
9.26069e-07
1.67512e-06
1.67544e-06
4.70117e-07
1.67492e-06
1.67524e-06
1.0723e-06
5.4737e-06
1.07247e-06
5.47357e-06
1.87374e-05
1.87369e-05
1.0722e-06
5.47443e-06
1.07235e-06
5.47429e-06
4.65647e-07
4.65647e-07
4.65647e-07
4.65644e-07
4.65643e-07
4.65643e-07
4.65643e-07
5.40599e-07
9.26338e-07
4.65943e-07
4.67485e-07
5.40649e-07
9.26101e-07
4.65946e-07
1.87397e-05
1.87394e-05
5.40595e-07
4.65943e-07
9.26285e-07
4.67485e-07
5.40647e-07
4.65946e-07
9.26069e-07
1.67512e-06
1.67543e-06
4.70117e-07
1.67492e-06
1.67524e-06
1.07231e-06
5.4737e-06
1.07247e-06
5.47349e-06
1.87374e-05
1.87369e-05
1.07224e-06
5.47443e-06
1.07235e-06
5.47422e-06
4.65645e-07
4.65645e-07
4.65645e-07
5.40599e-07
9.26339e-07
4.65942e-07
4.67483e-07
5.4065e-07
9.26101e-07
4.65947e-07
1.87397e-05
1.87391e-05
5.40592e-07
4.65943e-07
9.26285e-07
4.67486e-07
5.40647e-07
4.65947e-07
9.26127e-07
1.67511e-06
1.67544e-06
4.70119e-07
1.67492e-06
1.67527e-06
5.46505e-06
9.24872e-07
1.86926e-05
1.67154e-06
1.67138e-06
1.86902e-05
9.24847e-07
5.4651e-06
1.86931e-05
1.86913e-05
1.8696e-05
1.86942e-05
1.67134e-06
1.67168e-06
4.70358e-07
1.67142e-06
1.67176e-06
1.86951e-05
1.86905e-05
1.86984e-05
1.86936e-05
4.70393e-07
1.67178e-06
1.67217e-06
1.67142e-06
1.67176e-06
1.07058e-06
5.46505e-06
1.07079e-06
5.46524e-06
5.40451e-07
9.25185e-07
4.6624e-07
4.67761e-07
5.40527e-07
9.24837e-07
4.66238e-07
5.4045e-07
9.25052e-07
4.66242e-07
4.67758e-07
5.40524e-07
9.24912e-07
4.6624e-07
1.07069e-06
5.46611e-06
5.46509e-06
1.07083e-06
1.07068e-06
5.47067e-06
5.46535e-06
1.0708e-06
5.40499e-07
4.67754e-07
9.25041e-07
4.66211e-07
9.25003e-07
4.6623e-07
5.40478e-07
5.40498e-07
4.67741e-07
9.25498e-07
4.6621e-07
9.25139e-07
4.66231e-07
5.40476e-07
1.67166e-06
1.67162e-06
4.70364e-07
1.67165e-06
1.67154e-06
1.86902e-05
1.86897e-05
1.87221e-05
1.86912e-05
4.70396e-07
1.67371e-06
1.67345e-06
1.67179e-06
1.67184e-06
1.872e-05
1.86902e-05
5.40445e-07
9.25369e-07
4.6624e-07
4.67761e-07
5.40516e-07
9.24997e-07
4.66238e-07
1.07054e-06
5.46608e-06
1.0707e-06
5.46623e-06
5.40454e-07
4.6624e-07
9.2543e-07
4.67763e-07
5.40526e-07
4.66238e-07
9.25063e-07
1.07058e-06
5.46683e-06
5.46583e-06
1.07075e-06
5.40493e-07
4.67754e-07
9.25196e-07
4.66211e-07
9.25181e-07
4.6623e-07
5.40472e-07
1.0706e-06
5.46701e-06
5.46622e-06
1.07075e-06
5.40501e-07
4.67756e-07
4.66211e-07
9.25253e-07
4.6623e-07
9.25247e-07
5.40477e-07
1.0706e-06
5.4651e-06
1.0708e-06
5.46541e-06
5.40453e-07
4.66239e-07
9.25216e-07
4.67762e-07
5.40523e-07
4.66237e-07
9.24878e-07
1.0706e-06
5.46568e-06
1.0708e-06
5.46581e-06
5.40498e-07
4.67744e-07
9.25458e-07
4.66211e-07
9.25124e-07
4.66233e-07
5.40472e-07
1.07069e-06
5.47067e-06
5.46556e-06
1.07081e-06
5.40499e-07
4.67755e-07
4.66211e-07
9.25073e-07
4.6623e-07
9.25041e-07
5.40473e-07
1.07069e-06
5.4666e-06
5.4658e-06
1.07081e-06
1.67209e-06
1.6714e-06
4.70359e-07
1.67203e-06
1.67147e-06
1.8695e-05
1.86931e-05
1.86995e-05
1.86942e-05
4.70393e-07
1.67254e-06
1.67186e-06
1.67224e-06
1.67148e-06
1.86973e-05
1.86924e-05
5.40445e-07
4.66239e-07
9.25294e-07
4.67761e-07
5.40517e-07
4.66237e-07
9.24953e-07
1.07053e-06
5.46575e-06
1.07068e-06
5.46588e-06
1.07052e-06
5.46591e-06
1.07068e-06
5.46603e-06
5.40496e-07
4.67755e-07
4.66212e-07
9.25078e-07
4.66231e-07
9.25033e-07
5.40468e-07
5.40493e-07
4.67754e-07
4.66211e-07
9.25151e-07
4.6623e-07
9.25118e-07
5.40465e-07
1.07059e-06
5.46673e-06
5.46588e-06
1.07074e-06
1.07058e-06
5.46686e-06
5.46602e-06
1.07074e-06
1.86952e-05
1.86934e-05
1.86963e-05
1.86945e-05
4.70395e-07
1.67191e-06
1.67221e-06
1.67149e-06
1.67181e-06
1.86976e-05
1.86926e-05
1.86983e-05
1.86937e-05
1.87075e-05
1.87345e-05
1.87113e-05
1.87375e-05
1.67281e-06
1.67318e-06
4.70166e-07
1.67476e-06
1.67514e-06
1.87355e-05
1.87345e-05
1.87385e-05
1.87375e-05
4.70187e-07
1.6749e-06
1.67525e-06
1.67499e-06
1.67531e-06
1.07214e-06
5.47274e-06
1.07132e-06
5.47384e-06
5.40576e-07
9.2545e-07
4.66147e-07
4.67587e-07
5.40556e-07
9.25904e-07
4.66052e-07
5.40578e-07
9.26002e-07
4.66142e-07
4.67536e-07
5.40556e-07
9.26101e-07
4.66049e-07
1.07239e-06
5.47343e-06
5.47337e-06
1.0723e-06
1.0724e-06
5.4737e-06
5.47364e-06
1.0723e-06
5.40643e-07
4.67523e-07
9.26034e-07
4.65953e-07
9.26152e-07
4.65985e-07
5.40607e-07
5.40644e-07
4.67498e-07
9.26122e-07
4.65953e-07
9.2628e-07
4.65983e-07
5.40607e-07
1.67498e-06
1.67486e-06
4.70132e-07
1.67528e-06
1.67514e-06
1.87301e-05
1.87353e-05
1.87365e-05
1.87357e-05
4.7016e-07
1.67522e-06
1.67509e-06
1.67531e-06
1.67536e-06
1.8735e-05
1.8734e-05
5.40577e-07
9.25641e-07
4.66147e-07
4.67586e-07
5.4055e-07
9.26056e-07
4.66053e-07
1.07211e-06
5.46926e-06
1.07121e-06
5.47434e-06
5.40581e-07
4.66148e-07
9.2569e-07
4.67588e-07
5.40556e-07
4.66053e-07
9.26105e-07
1.07227e-06
5.47418e-06
5.47413e-06
1.0722e-06
5.4064e-07
4.67522e-07
9.26211e-07
4.65953e-07
9.26349e-07
4.65985e-07
5.40602e-07
1.07231e-06
5.47452e-06
5.4745e-06
1.07223e-06
5.40646e-07
4.67525e-07
4.65953e-07
9.26278e-07
4.65985e-07
9.26412e-07
5.40608e-07
1.07214e-06
5.47275e-06
1.07132e-06
5.47381e-06
5.40572e-07
4.66147e-07
9.25473e-07
4.67587e-07
5.40549e-07
4.66052e-07
9.25938e-07
1.07214e-06
5.46884e-06
1.07133e-06
5.47394e-06
5.40638e-07
4.67499e-07
9.26103e-07
4.65953e-07
9.26272e-07
4.65984e-07
5.40605e-07
1.07241e-06
5.47368e-06
5.47361e-06
1.07231e-06
5.4064e-07
4.67523e-07
4.65953e-07
9.26077e-07
4.65985e-07
9.26186e-07
5.40606e-07
1.07241e-06
5.47412e-06
5.47408e-06
1.07231e-06
1.67369e-06
1.6729e-06
4.70167e-07
1.67538e-06
1.67484e-06
1.87103e-05
1.87365e-05
1.87388e-05
1.87383e-05
4.70187e-07
1.67564e-06
1.67496e-06
1.6758e-06
1.67504e-06
1.87374e-05
1.87364e-05
5.40568e-07
4.66148e-07
9.25557e-07
4.67586e-07
5.40542e-07
4.66053e-07
9.26014e-07
1.0721e-06
5.46905e-06
1.0712e-06
5.47406e-06
1.0721e-06
5.46916e-06
1.0712e-06
5.47419e-06
5.40636e-07
4.67523e-07
4.65954e-07
9.26069e-07
4.65985e-07
9.26167e-07
5.406e-07
5.40635e-07
4.67523e-07
4.65953e-07
9.26154e-07
4.65985e-07
9.26265e-07
5.40599e-07
1.07229e-06
5.47421e-06
5.47419e-06
1.07222e-06
1.07229e-06
5.47435e-06
5.47431e-06
1.07222e-06
1.87105e-05
1.87367e-05
1.87107e-05
1.87378e-05
4.70185e-07
1.67496e-06
1.67528e-06
1.67502e-06
1.67535e-06
1.87376e-05
1.87367e-05
1.87387e-05
1.87378e-05
1.8735e-05
1.87354e-05
1.87381e-05
1.87386e-05
1.67492e-06
1.67526e-06
4.70115e-07
1.6749e-06
1.67525e-06
1.87355e-05
1.8734e-05
1.87385e-05
1.87372e-05
4.70152e-07
1.67489e-06
1.67524e-06
1.67491e-06
1.67525e-06
1.0723e-06
5.47353e-06
1.0724e-06
5.47372e-06
5.40595e-07
9.2621e-07
4.65948e-07
4.67486e-07
5.40652e-07
9.26047e-07
4.65946e-07
5.40596e-07
9.26287e-07
4.65947e-07
4.67486e-07
5.40653e-07
9.26119e-07
4.65946e-07
1.0724e-06
5.47347e-06
5.47336e-06
1.07229e-06
1.0724e-06
5.47371e-06
5.47352e-06
1.0723e-06
5.40642e-07
4.67483e-07
9.26038e-07
4.65943e-07
9.26213e-07
4.65943e-07
5.40604e-07
5.40644e-07
4.67483e-07
9.26119e-07
4.65942e-07
9.26284e-07
4.65942e-07
5.40604e-07
1.67527e-06
1.67529e-06
4.70116e-07
1.67524e-06
1.67513e-06
1.87343e-05
1.87349e-05
1.87367e-05
1.87358e-05
4.70152e-07
1.67525e-06
1.67509e-06
1.67531e-06
1.67533e-06
1.8735e-05
1.87337e-05
5.40587e-07
9.264e-07
4.65948e-07
4.67485e-07
5.40644e-07
9.26224e-07
4.65946e-07
1.07223e-06
5.47432e-06
1.0723e-06
5.47451e-06
5.40596e-07
4.65948e-07
9.26462e-07
4.67487e-07
5.40652e-07
4.65946e-07
9.26281e-07
1.07227e-06
5.47424e-06
5.4741e-06
1.07219e-06
5.40634e-07
4.67482e-07
9.26216e-07
4.65943e-07
9.26404e-07
4.65943e-07
5.40594e-07
1.07231e-06
5.47447e-06
5.47431e-06
1.07223e-06
5.40644e-07
4.67484e-07
4.65943e-07
9.26276e-07
4.65943e-07
9.26462e-07
5.40605e-07
1.07231e-06
5.4735e-06
1.07241e-06
5.4737e-06
5.40598e-07
4.65948e-07
9.26241e-07
4.67486e-07
5.40651e-07
4.65946e-07
9.26078e-07
1.07231e-06
5.47392e-06
1.07241e-06
5.47409e-06
5.40643e-07
4.67484e-07
9.26102e-07
4.65944e-07
9.2628e-07
4.65946e-07
5.40601e-07
1.07241e-06
5.47367e-06
5.4735e-06
1.07231e-06
5.40644e-07
4.67483e-07
4.65943e-07
9.26079e-07
4.65943e-07
9.2624e-07
5.40602e-07
1.07241e-06
5.47409e-06
5.47388e-06
1.07231e-06
1.67581e-06
1.67498e-06
4.70116e-07
1.67562e-06
1.67496e-06
1.87369e-05
1.87373e-05
1.87388e-05
1.87382e-05
4.70152e-07
1.67558e-06
1.67495e-06
1.67582e-06
1.67497e-06
1.87374e-05
1.87359e-05
5.40588e-07
4.65948e-07
9.26319e-07
4.67485e-07
5.40644e-07
4.65946e-07
9.26153e-07
1.07222e-06
5.47401e-06
1.07229e-06
5.47415e-06
1.07221e-06
5.47414e-06
1.07229e-06
5.4743e-06
5.40638e-07
4.67485e-07
4.65944e-07
9.2607e-07
4.65946e-07
9.26227e-07
5.40597e-07
5.40635e-07
4.67482e-07
4.65943e-07
9.26154e-07
4.65943e-07
9.26317e-07
5.40594e-07
1.07229e-06
5.47416e-06
5.47395e-06
1.07222e-06
1.07229e-06
5.47431e-06
5.47409e-06
1.07222e-06
1.87371e-05
1.87375e-05
1.87383e-05
1.87387e-05
4.70153e-07
1.67494e-06
1.67526e-06
1.67494e-06
1.67526e-06
1.87376e-05
1.87361e-05
1.87388e-05
1.87373e-05
1.87351e-05
1.87355e-05
1.87381e-05
1.87387e-05
1.67491e-06
1.67525e-06
4.70117e-07
1.6749e-06
1.67525e-06
1.87355e-05
1.87341e-05
1.87385e-05
1.87372e-05
4.70153e-07
1.6749e-06
1.67524e-06
1.67491e-06
1.67525e-06
1.0723e-06
5.47357e-06
1.0724e-06
5.47372e-06
5.40597e-07
9.2621e-07
4.65947e-07
4.67486e-07
5.40651e-07
9.26047e-07
4.65946e-07
5.406e-07
9.26287e-07
4.65946e-07
4.67486e-07
5.40651e-07
9.2612e-07
4.65946e-07
1.0724e-06
5.47347e-06
5.47336e-06
1.07229e-06
1.0724e-06
5.4737e-06
5.47353e-06
1.0723e-06
5.40642e-07
4.67484e-07
9.26039e-07
4.65943e-07
9.26213e-07
4.65944e-07
5.40603e-07
5.40647e-07
4.67484e-07
9.26116e-07
4.65943e-07
9.26284e-07
4.65943e-07
5.40602e-07
1.67531e-06
1.67531e-06
4.70116e-07
1.67527e-06
1.67515e-06
1.87343e-05
1.87348e-05
1.87369e-05
1.87361e-05
4.70152e-07
1.67521e-06
1.67506e-06
1.67528e-06
1.67531e-06
1.8735e-05
1.87336e-05
5.40592e-07
9.26401e-07
4.65946e-07
4.67486e-07
5.40641e-07
9.26222e-07
4.65946e-07
1.07223e-06
5.4743e-06
1.0723e-06
5.47452e-06
5.40602e-07
4.65946e-07
9.26459e-07
4.67488e-07
5.40652e-07
4.65946e-07
9.26281e-07
1.07227e-06
5.47423e-06
5.47408e-06
1.07219e-06
5.40638e-07
4.67483e-07
9.26216e-07
4.65943e-07
9.26402e-07
4.65944e-07
5.40592e-07
1.07231e-06
5.47447e-06
5.47432e-06
1.07223e-06
5.40647e-07
4.67485e-07
4.65943e-07
9.26276e-07
4.65943e-07
9.26462e-07
5.40602e-07
1.07231e-06
5.4735e-06
1.07241e-06
5.47371e-06
5.40601e-07
4.65946e-07
9.26241e-07
4.67486e-07
5.40648e-07
4.65946e-07
9.26077e-07
1.07231e-06
5.47393e-06
1.07241e-06
5.47408e-06
5.40646e-07
4.67484e-07
9.26101e-07
4.65943e-07
9.2628e-07
4.65945e-07
5.40601e-07
1.07241e-06
5.47367e-06
5.47351e-06
1.07231e-06
5.40647e-07
4.67484e-07
4.65943e-07
9.26078e-07
4.65943e-07
9.26239e-07
5.40601e-07
1.07241e-06
5.47409e-06
5.47387e-06
1.07231e-06
1.67574e-06
1.67497e-06
4.70118e-07
1.67563e-06
1.67496e-06
1.8737e-05
1.87373e-05
1.87388e-05
1.87381e-05
4.70153e-07
1.67558e-06
1.67495e-06
1.67582e-06
1.67497e-06
1.87374e-05
1.87359e-05
5.40591e-07
4.65946e-07
9.26318e-07
4.67486e-07
5.40641e-07
4.65946e-07
9.26152e-07
1.07222e-06
5.47402e-06
1.07229e-06
5.47418e-06
1.07221e-06
5.47416e-06
1.07228e-06
5.4743e-06
5.4064e-07
4.67485e-07
4.65943e-07
9.2607e-07
4.65945e-07
9.26227e-07
5.40596e-07
5.40638e-07
4.67483e-07
4.65942e-07
9.26154e-07
4.65943e-07
9.26316e-07
5.40593e-07
1.07229e-06
5.47416e-06
5.47398e-06
1.07222e-06
1.07229e-06
5.47431e-06
5.47409e-06
1.07222e-06
1.87372e-05
1.87376e-05
1.87384e-05
1.87387e-05
4.70153e-07
1.67494e-06
1.67526e-06
1.67494e-06
1.67525e-06
1.87376e-05
1.87362e-05
1.87387e-05
1.87373e-05
1.87351e-05
1.87355e-05
1.87381e-05
1.87387e-05
1.67491e-06
1.67525e-06
4.70117e-07
1.67491e-06
1.67525e-06
1.87355e-05
1.87341e-05
1.87385e-05
1.87372e-05
4.70153e-07
1.67489e-06
1.67524e-06
1.67494e-06
1.67525e-06
1.0723e-06
5.47356e-06
1.0724e-06
5.47372e-06
5.40598e-07
9.26209e-07
4.65946e-07
4.67486e-07
5.40651e-07
9.26049e-07
4.65946e-07
5.40601e-07
9.26283e-07
4.65946e-07
4.67486e-07
5.4065e-07
9.26116e-07
4.65946e-07
1.0724e-06
5.47347e-06
5.47336e-06
1.07229e-06
1.0724e-06
5.4737e-06
5.47353e-06
1.0723e-06
5.40642e-07
4.67484e-07
9.26041e-07
4.65943e-07
9.26214e-07
4.65944e-07
5.40602e-07
5.40647e-07
4.67484e-07
9.26113e-07
4.65942e-07
9.26279e-07
4.65943e-07
5.40602e-07
1.67524e-06
1.6753e-06
4.70116e-07
1.67523e-06
1.67514e-06
1.87344e-05
1.87348e-05
1.87369e-05
1.87361e-05
4.70151e-07
1.6752e-06
1.67516e-06
1.67524e-06
1.67534e-06
1.8735e-05
1.87337e-05
5.40592e-07
9.26401e-07
4.65946e-07
4.67485e-07
5.4064e-07
9.26222e-07
4.65946e-07
1.07223e-06
5.4743e-06
1.0723e-06
5.47452e-06
5.406e-07
4.65946e-07
9.26459e-07
4.67488e-07
5.40649e-07
4.65946e-07
9.2628e-07
1.07227e-06
5.47424e-06
5.47408e-06
1.07219e-06
5.40637e-07
4.67483e-07
9.26216e-07
4.65943e-07
9.26403e-07
4.65944e-07
5.40591e-07
1.0723e-06
5.47447e-06
5.47432e-06
1.07223e-06
5.40645e-07
4.67485e-07
4.65942e-07
9.26276e-07
4.65943e-07
9.26461e-07
5.40599e-07
1.07231e-06
5.4735e-06
1.07241e-06
5.47371e-06
5.40601e-07
4.65946e-07
9.26241e-07
4.67486e-07
5.40646e-07
4.65946e-07
9.26077e-07
1.07231e-06
5.47396e-06
1.07241e-06
5.47408e-06
5.40645e-07
4.67484e-07
9.26105e-07
4.65943e-07
9.26282e-07
4.65945e-07
5.40601e-07
1.07241e-06
5.47367e-06
5.47351e-06
1.07231e-06
5.40648e-07
4.67484e-07
4.65943e-07
9.26078e-07
4.65943e-07
9.26239e-07
5.40601e-07
1.07241e-06
5.47409e-06
5.47387e-06
1.07231e-06
1.67574e-06
1.67497e-06
4.70118e-07
1.67563e-06
1.67496e-06
1.8737e-05
1.87373e-05
1.87387e-05
1.87381e-05
4.70153e-07
1.67558e-06
1.67495e-06
1.67582e-06
1.67497e-06
1.87374e-05
1.87359e-05
5.40592e-07
4.65946e-07
9.26318e-07
4.67485e-07
5.40639e-07
4.65946e-07
9.26152e-07
1.07222e-06
5.47403e-06
1.07229e-06
5.47417e-06
1.07221e-06
5.47417e-06
1.07228e-06
5.4743e-06
5.40641e-07
4.67485e-07
4.65944e-07
9.2607e-07
4.65946e-07
9.26227e-07
5.40596e-07
5.40639e-07
4.67483e-07
4.65943e-07
9.26153e-07
4.65943e-07
9.26316e-07
5.40593e-07
1.07229e-06
5.47416e-06
5.47398e-06
1.07222e-06
1.07229e-06
5.47431e-06
5.47409e-06
1.07222e-06
1.87372e-05
1.87375e-05
1.87383e-05
1.87387e-05
4.70153e-07
1.67494e-06
1.67526e-06
1.67494e-06
1.67526e-06
1.87376e-05
1.87362e-05
1.87387e-05
1.87373e-05
1.87351e-05
1.87355e-05
1.87381e-05
1.87386e-05
1.6749e-06
1.67525e-06
4.70117e-07
1.67488e-06
1.67525e-06
1.87355e-05
1.87341e-05
1.87385e-05
1.87372e-05
4.70153e-07
1.67487e-06
1.67524e-06
1.67489e-06
1.67525e-06
1.0723e-06
5.47358e-06
1.0724e-06
5.47367e-06
5.40598e-07
9.2621e-07
4.65946e-07
4.67486e-07
5.40651e-07
9.26047e-07
4.65946e-07
5.40601e-07
9.26281e-07
4.65946e-07
4.67486e-07
5.40649e-07
9.26138e-07
4.65946e-07
1.0724e-06
5.47346e-06
5.47335e-06
1.07229e-06
1.0724e-06
5.47359e-06
5.47346e-06
1.0723e-06
5.40643e-07
4.67484e-07
9.26036e-07
4.65943e-07
9.26211e-07
4.65943e-07
5.40603e-07
5.40648e-07
4.67484e-07
9.26172e-07
4.65943e-07
9.26332e-07
4.65943e-07
5.40603e-07
1.67525e-06
1.67538e-06
4.70116e-07
1.67529e-06
1.6751e-06
1.87343e-05
1.87348e-05
1.87362e-05
1.87356e-05
4.70151e-07
1.67541e-06
1.67512e-06
1.67552e-06
1.6753e-06
1.8735e-05
1.87336e-05
5.40592e-07
9.26401e-07
4.65946e-07
4.67486e-07
5.40639e-07
9.26222e-07
4.65946e-07
1.07222e-06
5.4743e-06
1.07229e-06
5.47452e-06
5.406e-07
4.65946e-07
9.26459e-07
4.67488e-07
5.40647e-07
4.65946e-07
9.26281e-07
1.07227e-06
5.47424e-06
5.47408e-06
1.07219e-06
5.40637e-07
4.67483e-07
9.26216e-07
4.65942e-07
9.26403e-07
4.65943e-07
5.40591e-07
1.0723e-06
5.47447e-06
5.47432e-06
1.07223e-06
5.40646e-07
4.67485e-07
4.65943e-07
9.26276e-07
4.65943e-07
9.26462e-07
5.406e-07
1.07231e-06
5.4735e-06
1.07241e-06
5.47371e-06
5.40601e-07
4.65946e-07
9.26241e-07
4.67486e-07
5.40646e-07
4.65946e-07
9.26077e-07
1.07231e-06
5.47395e-06
1.07241e-06
5.47408e-06
5.40645e-07
4.67484e-07
9.26102e-07
4.65943e-07
9.2628e-07
4.65945e-07
5.40601e-07
1.07241e-06
5.47367e-06
5.47351e-06
1.07231e-06
5.40648e-07
4.67484e-07
4.65942e-07
9.26078e-07
4.65943e-07
9.26239e-07
5.40601e-07
1.07241e-06
5.47409e-06
5.47387e-06
1.07231e-06
1.67574e-06
1.67497e-06
4.70118e-07
1.67563e-06
1.67496e-06
1.8737e-05
1.87373e-05
1.87388e-05
1.87381e-05
4.70153e-07
1.67558e-06
1.67495e-06
1.67582e-06
1.67497e-06
1.87374e-05
1.87359e-05
5.40592e-07
4.65946e-07
9.26318e-07
4.67485e-07
5.4064e-07
4.65946e-07
9.26152e-07
1.07222e-06
5.47403e-06
1.07229e-06
5.47418e-06
1.07221e-06
5.47417e-06
1.07228e-06
5.4743e-06
5.4064e-07
4.67485e-07
4.65943e-07
9.2607e-07
4.65946e-07
9.26227e-07
5.40596e-07
5.40639e-07
4.67483e-07
4.65943e-07
9.26153e-07
4.65943e-07
9.26316e-07
5.40593e-07
1.07229e-06
5.47416e-06
5.47398e-06
1.07222e-06
1.07229e-06
5.47431e-06
5.47409e-06
1.07222e-06
1.87372e-05
1.87375e-05
1.87383e-05
1.87387e-05
4.70153e-07
1.67494e-06
1.67526e-06
1.67494e-06
1.67525e-06
1.87376e-05
1.87362e-05
1.87387e-05
1.87373e-05
1.87351e-05
1.8736e-05
1.87381e-05
1.87386e-05
1.67489e-06
1.67525e-06
4.70118e-07
1.6749e-06
1.67525e-06
1.8736e-05
1.87346e-05
1.87385e-05
1.87372e-05
4.70153e-07