/*--------------------------------*- C++ -*----------------------------------*\
| =========                 |                                                 |
| \\      /  F ield         | OpenFOAM: The Open Source CFD Toolbox           |
|  \\    /   O peration     | Version:  2206                                  |
|   \\  /    A nd           | Website:  www.openfoam.com                      |
|    \\/     M anipulation  |                                                 |
\*---------------------------------------------------------------------------*/
FoamFile
{
    version     2.0;
    format      ascii;
    arch        "LSB;label=32;scalar=64";
    class       volScalarField;
    location    "5.5";
    object      nut;
}
// * * * * * * * * * * * * * * * * * * * * * * * * * * * * * * * * * * * * * //

dimensions      [0 2 -1 0 0 0 0];

internalField   nonuniform List<scalar> 
28687
(
0.000233357
0.000232372
0.000232371
0.000230951
0.000233328
0.000232338
0.000232337
0.000230896
0.000233349
0.000232352
0.000232351
0.000230902
0.00023335
0.000232352
0.000232352
0.000230899
0.00023335
0.000232352
0.000232352
0.000230899
0.00023335
0.000232352
0.000232352
0.000230899
0.00023335
0.000232352
0.000232352
0.000230899
0.00023335
0.000232352
0.000232352
0.000230899
0.00023335
0.000232352
0.000232352
0.000230899
0.00023335
0.000232352
0.000232352
0.000230899
0.00023335
0.000232352
0.000232352
0.000230899
0.00023335
0.000232352
0.000232352
0.000230899
0.00023335
0.000232352
0.000232352
0.000230899
0.00023335
0.000232352
0.000232352
0.000230899
0.00023335
0.000232352
0.000232352
0.000230899
0.00023335
0.000232352
0.000232352
0.000230899
0.00023335
0.000232352
0.000232352
0.000230899
0.00023335
0.000232352
0.000232352
0.000230899
0.000232371
0.000230964
0.000232372
0.000230951
0.000230944
0.000232371
0.000232371
0.000232359
0.000232341
0.00023095
0.00023091
0.000232371
0.00023237
0.00023236
0.000232359
0.000232371
0.000232343
0.000232359
0.00023095
0.000230943
0.000232371
0.00023236
0.00023236
0.000230942
0.000230896
0.000230918
0.000232338
0.000232338
0.000232348
0.00023235
0.000230874
0.000230921
0.000232339
0.000232338
0.000232348
0.000232347
0.000232338
0.000232351
0.000232348
0.000230896
0.000230917
0.000232338
0.000232348
0.000232349
0.000230919
0.000230906
0.000230919
0.000232351
0.000232351
0.000232351
0.000232351
0.000230908
0.00023092
0.000232352
0.00023235
0.000232352
0.000232351
0.000232351
0.000232353
0.000232352
0.000230905
0.000230919
0.000232352
0.000232352
0.000232352
0.000230918
0.000230906
0.000230919
0.000232352
0.000232352
0.000232351
0.000232351
0.000230906
0.00023092
0.000232352
0.000232351
0.000232352
0.000232351
0.000232352
0.000232353
0.000232351
0.000230905
0.000230919
0.000232352
0.000232352
0.000232352
0.000230918
0.000230906
0.000230919
0.000232352
0.000232352
0.000232351
0.000232352
0.000230906
0.00023092
0.000232352
0.000232351
0.000232352
0.000232351
0.000232352
0.000232353
0.000232352
0.000230905
0.000230919
0.000232352
0.000232352
0.000232352
0.000230918
0.000230906
0.000230919
0.000232352
0.000232352
0.000232351
0.000232351
0.000230906
0.00023092
0.000232352
0.000232351
0.000232352
0.000232351
0.000232352
0.000232353
0.000232351
0.000230905
0.000230919
0.000232352
0.000232352
0.000232352
0.000230918
0.000230906
0.000230919
0.000232352
0.000232352
0.000232351
0.000232351
0.000230906
0.00023092
0.000232352
0.000232351
0.000232352
0.000232351
0.000232352
0.000232353
0.000232352
0.000230905
0.000230918
0.000232352
0.000232352
0.000232352
0.000230918
0.000230906
0.000230919
0.000232352
0.000232352
0.000232351
0.000232351
0.000230906
0.00023092
0.000232352
0.000232351
0.000232352
0.000232351
0.000232352
0.000232353
0.000232351
0.000230905
0.000230919
0.000232352
0.000232352
0.000232352
0.000230918
0.000230906
0.000230919
0.000232352
0.000232352
0.000232352
0.000232351
0.000230906
0.00023092
0.000232352
0.000232351
0.000232352
0.000232351
0.000232352
0.000232353
0.000232352
0.000230905
0.000230919
0.000232352
0.000232352
0.000232352
0.000230918
0.000230906
0.000230919
0.000232352
0.000232352
0.000232352
0.000232351
0.000230906
0.00023092
0.000232352
0.000232351
0.000232352
0.000232351
0.000232352
0.000232353
0.000232351
0.000230905
0.000230919
0.000232352
0.000232352
0.000232352
0.000230918
0.000230906
0.000230919
0.000232352
0.000232352
0.000232352
0.000232351
0.000230906
0.00023092
0.000232352
0.000232351
0.000232352
0.000232351
0.000232352
0.000232353
0.000232351
0.000230905
0.000230919
0.000232352
0.000232352
0.000232352
0.000230918
0.000230906
0.000230919
0.000232352
0.000232352
0.000232352
0.000232351
0.000230906
0.00023092
0.000232352
0.000232351
0.000232352
0.000232351
0.000232352
0.000232353
0.000232351
0.000230905
0.000230919
0.000232352
0.000232352
0.000232352
0.000230918
0.000230906
0.000230919
0.000232352
0.000232352
0.000232352
0.000232351
0.000230906
0.00023092
0.000232352
0.000232351
0.000232352
0.000232351
0.000232352
0.000232353
0.000232351
0.000230905
0.000230919
0.000232352
0.000232352
0.000232352
0.000230918
0.000230906
0.000230919
0.000232352
0.000232352
0.000232352
0.000232351
0.000230906
0.00023092
0.000232352
0.000232351
0.000232352
0.000232351
0.000232352
0.000232353
0.000232352
0.000230905
0.000230919
0.000232352
0.000232352
0.000232352
0.000230918
0.000230906
0.000230919
0.000232352
0.000232352
0.000232352
0.000232351
0.000230906
0.00023092
0.000232352
0.000232351
0.000232352
0.000232351
0.000232352
0.000232353
0.000232351
0.000230905
0.000230919
0.000232352
0.000232352
0.000232352
0.000230918
0.000230906
0.000230919
0.000232352
0.000232352
0.000232352
0.000232351
0.000230906
0.00023092
0.000232352
0.000232351
0.000232352
0.000232351
0.000232352
0.000232353
0.000232351
0.000230905
0.000230919
0.000232352
0.000232352
0.000232352
0.000230918
0.000230906
0.000230919
0.000232352
0.000232352
0.000232352
0.000232351
0.000230906
0.00023092
0.000232352
0.000232351
0.000232352
0.000232351
0.000232352
0.000232353
0.000232351
0.000230905
0.000230919
0.000232352
0.000232352
0.000232352
0.000230918
0.000230906
0.000232352
0.000232351
0.000230906
0.000232352
0.000232351
0.000232352
0.000230905
0.000232352
0.000103344
4.21922e-05
0.000103325
4.21923e-05
2.37944e-05
2.37936e-05
0.000103352
4.21891e-05
0.000103339
4.2189e-05
0.000233358
0.000233357
0.000233357
0.000233346
0.000233343
0.000233346
0.000233346
0.000200058
0.000118957
0.000233194
0.000232371
0.000200035
0.000118982
0.000233194
2.37936e-05
2.37925e-05
0.00020006
0.000233194
0.000118939
0.000232371
0.000200037
0.000233193
0.000118979
6.75469e-05
6.75349e-05
0.00023096
6.75533e-05
6.75409e-05
0.000103138
4.22e-05
0.00010326
4.2213e-05
2.38106e-05
2.38131e-05
0.000103142
4.21967e-05
0.000103274
4.22096e-05
0.000233327
0.000233329
0.000233329
0.000233346
0.000233346
0.000233346
0.000233346
0.000199873
0.0001188
0.000233163
0.000232343
0.00019997
0.000118748
0.000233167
2.37994e-05
2.38107e-05
0.000199874
0.000233164
0.000118884
0.000232337
0.000199972
0.000233167
0.000118776
6.7494e-05
6.74831e-05
0.000230906
6.73828e-05
6.73705e-05
0.000103115
4.22141e-05
0.000103099
4.22139e-05
2.38133e-05
2.38131e-05
0.000103125
4.22108e-05
0.000103112
4.22105e-05
0.000233349
0.000233349
0.000233349
0.00023335
0.00023335
0.00023335
0.00023335
0.000199854
0.000118717
0.000233183
0.000232353
0.000199832
0.000118744
0.000233184
2.38115e-05
2.38113e-05
0.000199856
0.000233183
0.000118724
0.000232352
0.000199834
0.000233184
0.000118749
6.73617e-05
6.7349e-05
0.000230921
6.737e-05
6.73572e-05
0.000103114
4.22141e-05
0.0001031
4.22139e-05
2.38131e-05
2.3813e-05
0.000103125
4.22109e-05
0.000103113
4.22104e-05
0.00023335
0.00023335
0.00023335
0.00023335
0.00023335
0.00023335
0.00023335
0.000199853
0.000118717
0.000233184
0.000232353
0.000199833
0.000118744
0.000233184
2.38114e-05
2.38113e-05
0.000199855
0.000233184
0.000118724
0.000232352
0.000199835
0.000233184
0.000118749
6.7363e-05
6.73504e-05
0.00023092
6.73704e-05
6.73578e-05
0.000103114
4.22141e-05
0.000103099
4.22139e-05
2.38132e-05
2.3813e-05
0.000103125
4.22109e-05
0.000103113
4.22104e-05
0.00023335
0.00023335
0.00023335
0.00023335
0.00023335
0.00023335
0.00023335
0.000199853
0.000118717
0.000233184
0.000232353
0.000199834
0.000118744
0.000233184
2.38114e-05
2.38113e-05
0.000199855
0.000233184
0.000118724
0.000232352
0.000199835
0.000233184
0.000118749
6.7363e-05
6.73506e-05
0.00023092
6.73704e-05
6.73578e-05
0.000103114
4.22141e-05
0.0001031
4.22139e-05
2.38132e-05
2.38131e-05
0.000103125
4.22109e-05
0.000103113
4.22104e-05
0.00023335
0.00023335
0.00023335
0.00023335
0.00023335
0.00023335
0.00023335
0.000199853
0.000118717
0.000233184
0.000232353
0.000199834
0.000118744
0.000233184
2.38114e-05
2.38113e-05
0.000199855
0.000233184
0.000118724
0.000232352
0.000199835
0.000233184
0.000118749
6.7363e-05
6.73504e-05
0.00023092
6.73704e-05
6.73578e-05
0.000103114
4.22144e-05
0.000103099
4.2214e-05
2.3813e-05
2.38129e-05
0.000103125
4.22109e-05
0.000103113
4.22104e-05
0.00023335
0.00023335
0.00023335
0.00023335
0.00023335
0.00023335
0.00023335
0.000199853
0.000118717
0.000233184
0.000232353
0.000199834
0.000118744
0.000233184
2.38114e-05
2.38113e-05
0.000199856
0.000233184
0.000118724
0.000232352
0.000199835
0.000233184
0.000118749
6.7363e-05
6.73505e-05
0.00023092
6.73704e-05
6.73578e-05
0.000103114
4.22141e-05
0.000103099
4.22136e-05
2.38132e-05
2.38132e-05
0.000103125
4.22109e-05
0.000103113
4.22104e-05
0.00023335
0.00023335
0.00023335
0.00023335
0.00023335
0.00023335
0.00023335
0.000199853
0.000118717
0.000233184
0.000232353
0.000199834
0.000118744
0.000233184
2.38114e-05
2.38113e-05
0.000199855
0.000233184
0.000118724
0.000232352
0.000199835
0.000233184
0.000118749
6.7363e-05
6.73504e-05
0.00023092
6.73704e-05
6.73578e-05
0.000103114
4.22139e-05
0.000103099
4.22132e-05
2.38135e-05
2.38133e-05
0.000103126
4.22111e-05
0.000103113
4.22107e-05
0.00023335
0.00023335
0.00023335
0.00023335
0.00023335
0.00023335
0.00023335
0.000199853
0.000118717
0.000233184
0.000232353
0.000199834
0.000118744
0.000233184
2.38114e-05
2.38113e-05
0.000199856
0.000233184
0.000118724
0.000232352
0.000199835
0.000233184
0.000118749
6.7363e-05
6.73505e-05
0.00023092
6.73704e-05
6.73578e-05
0.000103114
4.22136e-05
0.000103099
4.22134e-05
2.38135e-05
2.38133e-05
0.000103125
4.22111e-05
0.000103113
4.22107e-05
0.00023335
0.00023335
0.00023335
0.00023335
0.00023335
0.00023335
0.00023335
0.000199853
0.000118717
0.000233184
0.000232353
0.000199834
0.000118744
0.000233184
2.38114e-05
2.38113e-05
0.000199856
0.000233184
0.000118724
0.000232352
0.000199835
0.000233184
0.000118749
6.7363e-05
6.73505e-05
0.00023092
6.73704e-05
6.73578e-05
0.000103114
4.22136e-05
0.000103099
4.22133e-05
2.38135e-05
2.38133e-05
0.000103125
4.22111e-05
0.000103113
4.22108e-05
0.00023335
0.00023335
0.00023335
0.00023335
0.00023335
0.00023335
0.00023335
0.000199853
0.000118717
0.000233184
0.000232353
0.000199834
0.000118744
0.000233184
2.38114e-05
2.38113e-05
0.000199855
0.000233184
0.000118724
0.000232352
0.000199835
0.000233184
0.000118749
6.7363e-05
6.73505e-05
0.00023092
6.73704e-05
6.73578e-05
0.000103114
4.22136e-05
0.000103099
4.22133e-05
2.38135e-05
2.38133e-05
0.000103125
4.22112e-05
0.000103113
4.22108e-05
0.00023335
0.00023335
0.00023335
0.00023335
0.00023335
0.00023335
0.00023335
0.000199853
0.000118717
0.000233184
0.000232353
0.000199834
0.000118744
0.000233184
2.38114e-05
2.38113e-05
0.000199855
0.000233184
0.000118724
0.000232352
0.000199835
0.000233184
0.000118749
6.7363e-05
6.73504e-05
0.00023092
6.73704e-05
6.73578e-05
0.000103114
4.22136e-05
0.000103099
4.22133e-05
2.38135e-05
2.38133e-05
0.000103125
4.22112e-05
0.000103113
4.22108e-05
0.00023335
0.00023335
0.00023335
0.00023335
0.00023335
0.00023335
0.00023335
0.000199853
0.000118717
0.000233184
0.000232353
0.000199834
0.000118744
0.000233184
2.38114e-05
2.38113e-05
0.000199855
0.000233184
0.000118724
0.000232352
0.000199835
0.000233184
0.000118749
6.7363e-05
6.73505e-05
0.00023092
6.73704e-05
6.73578e-05
0.000103114
4.22136e-05
0.000103099
4.22133e-05
2.38135e-05
2.38133e-05
0.000103125
4.22112e-05
0.000103113
4.22108e-05
0.00023335
0.00023335
0.00023335
0.00023335
0.00023335
0.00023335
0.00023335
0.000199853
0.000118717
0.000233184
0.000232353
0.000199834
0.000118744
0.000233184
2.38114e-05
2.38113e-05
0.000199855
0.000233184
0.000118724
0.000232352
0.000199835
0.000233184
0.000118749
6.7363e-05
6.73504e-05
0.00023092
6.73704e-05
6.73578e-05
0.000103114
4.22136e-05
0.000103099
4.22133e-05
2.38135e-05
2.38133e-05
0.000103125
4.22112e-05
0.000103113
4.22108e-05
0.00023335
0.00023335
0.00023335
0.00023335
0.00023335
0.00023335
0.00023335
0.000199853
0.000118717
0.000233184
0.000232353
0.000199834
0.000118744
0.000233184
2.38114e-05
2.38113e-05
0.000199855
0.000233184
0.000118724
0.000232352
0.000199835
0.000233184
0.000118749
6.7363e-05
6.73504e-05
0.00023092
6.73704e-05
6.73577e-05
0.000103114
4.22136e-05
0.000103099
4.22133e-05
2.38135e-05
2.38133e-05
0.000103125
4.22112e-05
0.000103113
4.22108e-05
0.00023335
0.00023335
0.00023335
0.00023335
0.00023335
0.00023335
0.00023335
0.000199853
0.000118717
0.000233184
0.000232353
0.000199834
0.000118744
0.000233184
2.38114e-05
2.38113e-05
0.000199855
0.000233184
0.000118724
0.000232352
0.000199835
0.000233184
0.000118749
6.7363e-05
6.73503e-05
0.00023092
6.73705e-05
6.73576e-05
0.000103114
4.22136e-05
0.000103099
4.22133e-05
2.38135e-05
2.38133e-05
0.000103125
4.22112e-05
0.000103113
4.22108e-05
0.00023335
0.00023335
0.00023335
0.00023335
0.00023335
0.00023335
0.00023335
0.000199853
0.000118717
0.000233184
0.000232353
0.000199834
0.000118744
0.000233184
2.38114e-05
2.38113e-05
0.000199855
0.000233184
0.000118724
0.000232352
0.000199835
0.000233184
0.000118749
6.7363e-05
6.73504e-05
0.00023092
6.73704e-05
6.73577e-05
0.000103115
4.22136e-05
0.000103099
4.22131e-05
2.38135e-05
2.38133e-05
0.000103123
4.22112e-05
0.000103113
4.22106e-05
0.00023335
0.00023335
0.00023335
0.000199853
0.000118717
0.000233184
0.000232353
0.000199834
0.000118744
0.000233185
2.38114e-05
2.38112e-05
0.000199862
0.000233184
0.000118724
0.000232353
0.000199835
0.000233185
0.000118744
6.73633e-05
6.73503e-05
0.000230924
6.7371e-05
6.73571e-05
4.21908e-05
0.00011898
2.37946e-05
6.75425e-05
6.75448e-05
2.37949e-05
0.000118983
4.21906e-05
2.37964e-05
2.37956e-05
2.37947e-05
2.37939e-05
6.75489e-05
6.75341e-05
0.00023096
6.75564e-05
6.75417e-05
2.37967e-05
2.37952e-05
2.37952e-05
2.37936e-05
0.000230942
6.7546e-05
6.75305e-05
6.75607e-05
6.75467e-05
0.000103343
4.21909e-05
0.000103323
4.21913e-05
0.000200058
0.00011894
0.000233194
0.00023237
0.000200033
0.000118983
0.000233193
0.00020006
0.000118964
0.000233195
0.000232369
0.000200035
0.000118977
0.000233194
0.000103338
4.21944e-05
4.21923e-05
0.000103318
0.000103339
4.2204e-05
4.21914e-05
0.00010332
0.00020004
0.000232368
0.000118951
0.000233183
0.000118968
0.000233191
0.000200029
0.000200042
0.000232362
0.000118868
0.000233181
0.000118952
0.000233191
0.00020003
6.7545e-05
6.75444e-05
0.000230956
6.75515e-05
6.75526e-05
2.37949e-05
2.37946e-05
2.38059e-05
2.37937e-05
0.000230934
6.74591e-05
6.74675e-05
6.75486e-05
6.75438e-05
2.38063e-05
2.37947e-05
0.000200061
0.000118917
0.000233194
0.000232371
0.000200038
0.000118963
0.000233193
0.000103348
4.21871e-05
0.000103332
4.21875e-05
0.000200057
0.000233194
0.000118909
0.000232369
0.000200033
0.000233193
0.000118954
0.00010335
4.2191e-05
4.2189e-05
0.000103327
0.000200043
0.000232368
0.000118932
0.000233183
0.000118946
0.000233191
0.000200032
0.000103346
4.21891e-05
4.21875e-05
0.000103326
0.000200039
0.000232367
0.000233182
0.000118924
0.000233191
0.000118937
0.00020003
0.000103342
4.21906e-05
0.000103322
4.21913e-05
0.000200058
0.000233194
0.000118936
0.00023237
0.000200034
0.000233193
0.000118978
0.000103341
4.21893e-05
0.000103321
4.21896e-05
0.000200041
0.000232364
0.000118882
0.000233182
0.000118955
0.000233191
0.000200031
0.000103337
4.22037e-05
4.21916e-05
0.00010332
0.00020004
0.000232368
0.000233183
0.000118947
0.000233191
0.000118963
0.000200031
0.000103337
4.21912e-05
4.21896e-05
0.000103319
6.75162e-05
6.7546e-05
0.00023096
6.75289e-05
6.75535e-05
2.37954e-05
2.37946e-05
2.37942e-05
2.37925e-05
0.000230941
6.75137e-05
6.75427e-05
6.75263e-05
6.75582e-05
2.37958e-05
2.37942e-05
0.000200061
0.000233194
0.000118927
0.000232371
0.000200037
0.000233193
0.000118969
0.000103349
4.2189e-05
0.000103334
4.21893e-05
0.00010335
4.21886e-05
0.000103334
4.21889e-05
0.000200042
0.000232368
0.000233183
0.000118947
0.000233191
0.000118964
0.000200033
0.000200043
0.000232368
0.000233182
0.000118938
0.000233191
0.000118953
0.000200035
0.000103348
4.2191e-05
4.21893e-05
0.000103328
0.000103348
4.21906e-05
4.21889e-05
0.000103328
2.37952e-05
2.37944e-05
2.37945e-05
2.37938e-05
0.000230941
6.75405e-05
6.75285e-05
6.75578e-05
6.75452e-05
2.37957e-05
2.37941e-05
2.37948e-05
2.37934e-05
2.38012e-05
2.38134e-05
2.37998e-05
2.38118e-05
6.75035e-05
6.74885e-05
0.000230905
6.73851e-05
6.73705e-05
2.38139e-05
2.38136e-05
2.38123e-05
2.38118e-05
0.000230892
6.73705e-05
6.7356e-05
6.73723e-05
6.73592e-05
0.000103137
4.22099e-05
0.000103267
4.22132e-05
0.00019987
0.000118895
0.000233164
0.000232337
0.000199973
0.000118777
0.000233167
0.000199869
0.000118793
0.000233163
0.000232342
0.000199971
0.000118746
0.000233167
0.000103112
4.22135e-05
4.22135e-05
0.000103114
0.000103111
4.22129e-05
4.22128e-05
0.000103114
0.000199843
0.000232343
0.000118753
0.000233181
0.000118746
0.000233174
0.000199851
0.000199842
0.000232347
0.000118743
0.000233181
0.000118728
0.000233174
0.000199851
6.73956e-05
6.7401e-05
0.000230912
6.73551e-05
6.73589e-05
2.3811e-05
2.38136e-05
2.38128e-05
2.38125e-05
0.000230902
6.73572e-05
6.73584e-05
6.73549e-05
6.7351e-05
2.38135e-05
2.38131e-05
0.00019987
0.000118872
0.000233164
0.000232338
0.000199976
0.000118758
0.000233167
0.00010314
4.2194e-05
0.000103277
4.22079e-05
0.000199868
0.000233164
0.000118865
0.000232337
0.000199973
0.000233167
0.000118752
0.000103123
4.22102e-05
4.22102e-05
0.000103125
0.000199845
0.000232343
0.000118731
0.000233181
0.000118722
0.000233174
0.000199854
0.000103119
4.22086e-05
4.22086e-05
0.000103121
0.000199842
0.000232342
0.000233181
0.000118721
0.000233174
0.000118714
0.000199851
0.000103137
4.22095e-05
0.000103268
4.22127e-05
0.000199872
0.000233164
0.000118891
0.000232337
0.000199976
0.000233167
0.000118772
0.000103137
4.21961e-05
0.000103267
4.22101e-05
0.000199847
0.000232348
0.000118744
0.000233181
0.000118727
0.000233175
0.000199851
0.00010311
4.22124e-05
4.22123e-05
0.000103113
0.000199845
0.000232342
0.000233181
0.000118747
0.000233174
0.000118741
0.000199852
0.00010311
4.22108e-05
4.22107e-05
0.000103112
6.74679e-05
6.74991e-05
0.000230904
6.736e-05
6.73822e-05
2.38005e-05
2.38124e-05
2.3811e-05
2.38109e-05
0.00023089
6.73364e-05
6.73676e-05
6.73402e-05
6.737e-05
2.38129e-05
2.38125e-05
0.000199874
0.000233164
0.000118881
0.000232338
0.000199978
0.000233167
0.000118763
0.000103141
4.21961e-05
0.000103279
4.221e-05
0.000103141
4.21956e-05
0.000103279
4.22095e-05
0.000199848
0.000232343
0.00023318
0.000118749
0.000233174
0.000118744
0.000199853
0.000199847
0.000232343
0.000233181
0.000118738
0.000233174
0.000118732
0.000199855
0.000103121
4.22106e-05
4.22106e-05
0.000103123
0.000103121
4.22101e-05
4.221e-05
0.000103123
2.38004e-05
2.38123e-05
2.37993e-05
2.38115e-05
0.000230895
6.7368e-05
6.73551e-05
6.73714e-05
6.73584e-05
2.38128e-05
2.38124e-05
2.38121e-05
2.38117e-05
2.38137e-05
2.38139e-05
2.38121e-05
2.38123e-05
6.7372e-05
6.73578e-05
0.00023092
6.7371e-05
6.73565e-05
2.38139e-05
2.38133e-05
2.38123e-05
2.38117e-05
0.000230909
6.73707e-05
6.73566e-05
6.73721e-05
6.73581e-05
0.000103114
4.22124e-05
0.000103108
4.22129e-05
0.000199856
0.000118736
0.000233184
0.000232352
0.000199838
0.000118752
0.000233184
0.000199855
0.000118728
0.000233184
0.000232351
0.000199839
0.000118744
0.000233184
0.000103109
4.22137e-05
4.22134e-05
0.000103115
0.000103108
4.22129e-05
4.22124e-05
0.000103114
0.000199842
0.000232352
0.000118753
0.000233184
0.000118737
0.000233185
0.000199853
0.000199841
0.000232352
0.000118743
0.000233184
0.000118728
0.000233185
0.000199853
6.73572e-05
6.73525e-05
0.000230919
6.73567e-05
6.73562e-05
2.38131e-05
2.38134e-05
2.38126e-05
2.38125e-05
0.000230908
6.73553e-05
6.73589e-05
6.73558e-05
6.73504e-05
2.38135e-05
2.3813e-05
0.00019986
0.000118713
0.000233184
0.000232352
0.000199842
0.00011873
0.000233184
0.000103121
4.22082e-05
0.000103118
4.22086e-05
0.000199855
0.000233184
0.000118704
0.000232351
0.000199839
0.000233184
0.000118722
0.000103122
4.22104e-05
4.221e-05
0.000103127
0.000199846
0.000232352
0.000118731
0.000233184
0.000118713
0.000233185
0.000199857
0.000103118
4.22085e-05
4.22081e-05
0.000103121
0.000199841
0.000232351
0.000233184
0.000118722
0.000233185
0.000118705
0.000199852
0.000103113
4.22119e-05
0.000103107
4.22125e-05
0.000199854
0.000233184
0.000118732
0.000232352
0.000199839
0.000233184
0.000118748
0.000103112
4.22103e-05
0.000103107
4.22107e-05
0.000199842
0.000232353
0.000118745
0.000233184
0.000118728
0.000233184
0.000199853
0.000103107
4.22124e-05
4.2212e-05
0.000103113
0.000199841
0.000232352
0.000233184
0.000118747
0.000233185
0.000118733
0.000199853
0.000103106
4.22107e-05
4.22102e-05
0.000103113
6.73322e-05
6.7369e-05
0.000230919
6.73388e-05
6.73685e-05
2.38127e-05
2.38129e-05
2.3811e-05
2.38108e-05
0.000230908
6.73405e-05
6.73686e-05
6.73327e-05
6.73698e-05
2.38129e-05
2.38123e-05
0.000199859
0.000233184
0.000118723
0.000232352
0.000199842
0.000233184
0.000118739
0.000103122
4.22101e-05
0.000103119
4.22104e-05
0.000103123
4.22096e-05
0.000103119
4.221e-05
0.000199843
0.000232353
0.000233184
0.00011875
0.000233184
0.000118735
0.000199854
0.000199845
0.000232353
0.000233184
0.000118739
0.000233185
0.000118723
0.000199857
0.000103119
4.22104e-05
4.22099e-05
0.000103122
0.00010312
4.221e-05
4.22095e-05
0.000103123
2.38126e-05
2.38128e-05
2.38119e-05
2.38121e-05
0.000230909
6.73696e-05
6.73568e-05
6.73713e-05
6.73587e-05
2.38128e-05
2.38122e-05
2.38121e-05
2.38115e-05
2.38138e-05
2.38139e-05
2.38121e-05
2.38124e-05
6.73719e-05
6.73584e-05
0.000230919
6.73707e-05
6.73567e-05
2.38139e-05
2.38134e-05
2.38123e-05
2.38118e-05
0.000230908
6.7371e-05
6.73567e-05
6.73721e-05
6.73583e-05
0.000103114
4.22125e-05
0.000103108
4.2213e-05
0.000199855
0.000118736
0.000233184
0.000232352
0.000199839
0.000118752
0.000233184
0.000199853
0.000118728
0.000233184
0.000232352
0.000199839
0.000118743
0.000233184
0.000103109
4.22137e-05
4.22134e-05
0.000103115
0.000103108
4.22129e-05
4.22125e-05
0.000103114
0.000199842
0.000232352
0.000118753
0.000233184
0.000118737
0.000233184
0.000199853
0.000199839
0.000232352
0.000118744
0.000233184
0.000118728
0.000233184
0.000199853
6.73553e-05
6.73523e-05
0.00023092
6.73555e-05
6.73556e-05
2.38132e-05
2.38134e-05
2.38127e-05
2.38124e-05
0.000230908
6.73573e-05
6.73602e-05
6.73569e-05
6.73511e-05
2.38135e-05
2.38129e-05
0.000199858
0.000118713
0.000233184
0.000232352
0.000199844
0.00011873
0.000233184
0.000103121
4.2208e-05
0.000103118
4.22086e-05
0.000199853
0.000233184
0.000118705
0.000232351
0.000199839
0.000233184
0.000118722
0.000103122
4.22104e-05
4.221e-05
0.000103127
0.000199845
0.000232352
0.000118731
0.000233184
0.000118713
0.000233184
0.000199858
0.000103117
4.22085e-05
4.22081e-05
0.000103121
0.00019984
0.000232351
0.000233184
0.000118722
0.000233184
0.000118705
0.000199854
0.000103112
4.22119e-05
0.000103107
4.22125e-05
0.000199853
0.000233184
0.000118732
0.000232352
0.00019984
0.000233184
0.000118748
0.000103112
4.22103e-05
0.000103107
4.22107e-05
0.00019984
0.000232353
0.000118745
0.000233185
0.000118728
0.000233185
0.000199853
0.000103107
4.22124e-05
4.2212e-05
0.000103113
0.000199839
0.000232352
0.000233184
0.000118747
0.000233184
0.000118733
0.000199854
0.000103106
4.22107e-05
4.22102e-05
0.000103113
6.73364e-05
6.73697e-05
0.000230919
6.73385e-05
6.73685e-05
2.38128e-05
2.38129e-05
2.3811e-05
2.38108e-05
0.000230908
6.73405e-05
6.73685e-05
6.73326e-05
6.73697e-05
2.38129e-05
2.38123e-05
0.000199857
0.000233184
0.000118723
0.000232352
0.000199843
0.000233184
0.000118739
0.000103122
4.221e-05
0.000103119
4.22105e-05
0.000103123
4.22096e-05
0.00010312
4.221e-05
0.000199843
0.000232353
0.000233185
0.00011875
0.000233185
0.000118735
0.000199855
0.000199844
0.000232353
0.000233184
0.000118739
0.000233184
0.000118724
0.000199857
0.000103119
4.22104e-05
4.221e-05
0.000103122
0.000103119
4.221e-05
4.22095e-05
0.000103123
2.38126e-05
2.38128e-05
2.38119e-05
2.38121e-05
0.000230909
6.73696e-05
6.7357e-05
6.73716e-05
6.7359e-05
2.38128e-05
2.38122e-05
2.38121e-05
2.38115e-05
2.38138e-05
2.38139e-05
2.38121e-05
2.38124e-05
6.73725e-05
6.73584e-05
0.000230919
6.737e-05
6.73567e-05
2.38139e-05
2.38134e-05
2.38123e-05
2.38118e-05
0.000230908
6.73698e-05
6.73567e-05
6.73701e-05
6.73583e-05
0.000103114
4.22125e-05
0.000103108
4.2213e-05
0.000199855
0.000118737
0.000233184
0.000232352
0.000199839
0.000118752
0.000233184
0.000199853
0.000118729
0.000233184
0.000232352
0.000199839
0.000118744
0.000233184
0.000103109
4.22137e-05
4.22134e-05
0.000103115
0.000103108
4.22129e-05
4.22125e-05
0.000103114
0.000199842
0.000232352
0.000118752
0.000233184
0.000118736
0.000233184
0.000199853
0.000199839
0.000232352
0.000118744
0.000233184
0.000118729
0.000233184
0.000199853
6.73585e-05
6.7353e-05
0.00023092
6.73576e-05
6.7356e-05
2.38132e-05
2.38134e-05
2.38127e-05
2.38124e-05
0.000230909
6.73579e-05
6.73542e-05
6.73588e-05
6.73498e-05
2.38135e-05
2.38129e-05
0.000199858
0.000118713
0.000233184
0.000232352
0.000199844
0.00011873
0.000233184
0.000103122
4.2208e-05
0.000103118
4.22086e-05
0.000199854
0.000233184
0.000118705
0.000232351
0.00019984
0.000233184
0.000118722
0.000103123
4.22104e-05
4.221e-05
0.000103127
0.000199845
0.000232352
0.000118731
0.000233184
0.000118713
0.000233184
0.000199859
0.000103118
4.22085e-05
4.22081e-05
0.000103122
0.000199841
0.000232351
0.000233184
0.000118722
0.000233184
0.000118705
0.000199855
0.000103113
4.22119e-05
0.000103108
4.22125e-05
0.000199853
0.000233184
0.000118732
0.000232352
0.000199841
0.000233184
0.000118748
0.000103112
4.22103e-05
0.000103107
4.22107e-05
0.00019984
0.000232353
0.000118744
0.000233185
0.000118727
0.000233185
0.000199853
0.000103107
4.22124e-05
4.2212e-05
0.000103113
0.000199839
0.000232352
0.000233184
0.000118747
0.000233184
0.000118733
0.000199854
0.000103106
4.22107e-05
4.22102e-05
0.000103113
6.73363e-05
6.73697e-05
0.000230919
6.73386e-05
6.73685e-05
2.38128e-05
2.38129e-05
2.3811e-05
2.38108e-05
0.000230908
6.73405e-05
6.73686e-05
6.73327e-05
6.73698e-05
2.38129e-05
2.38123e-05
0.000199857
0.000233184
0.000118723
0.000232352
0.000199844
0.000233184
0.000118739
0.000103122
4.22101e-05
0.000103119
4.22105e-05
0.000103123
4.22096e-05
0.00010312
4.221e-05
0.000199842
0.000232353
0.000233184
0.00011875
0.000233184
0.000118735
0.000199855
0.000199843
0.000232353
0.000233184
0.000118739
0.000233184
0.000118723
0.000199857
0.000103119
4.22104e-05
4.221e-05
0.000103122
0.000103119
4.221e-05
4.22095e-05
0.000103123
2.38126e-05
2.38128e-05
2.38119e-05
2.38121e-05
0.000230909
6.73696e-05
6.73569e-05
6.73716e-05
6.73589e-05
2.38128e-05
2.38122e-05
2.38121e-05
2.38115e-05
2.38138e-05
2.38139e-05
2.38121e-05
2.38124e-05
6.73716e-05
6.73584e-05
0.000230919
6.73715e-05
6.73567e-05
2.38139e-05
2.38134e-05
2.38123e-05
2.38117e-05
0.000230908
6.73717e-05
6.73567e-05
6.7373e-05
6.73583e-05
0.000103113
4.22125e-05
0.000103108
4.22131e-05
0.000199855
0.000118736
0.000233184
0.000232352
0.000199839
0.000118752
0.000233184
0.000199853
0.000118729
0.000233184
0.000232352
0.000199839
0.000118742
0.000233184
0.000103109
4.22138e-05
4.22134e-05
0.000103115
0.000103107
4.22128e-05
4.22126e-05
0.000103113
0.000199842
0.000232352
0.000118753
0.000233184
0.000118737
0.000233184
0.000199853
0.000199839
0.000232352
0.000118737
0.000233184
0.000118723
0.000233184
0.000199853
6.73581e-05
6.73476e-05
0.00023092
6.73551e-05
6.73577e-05
2.38132e-05
2.38134e-05
2.38127e-05
2.38126e-05
0.000230909
6.73481e-05
6.73578e-05
6.73479e-05
6.73521e-05
2.38135e-05
2.38129e-05
0.000199858
0.000118713
0.000233184
0.000232352
0.000199844
0.00011873
0.000233184
0.000103122
4.2208e-05
0.000103119
4.22086e-05
0.000199854
0.000233184
0.000118705
0.000232351
0.00019984
0.000233184
0.000118722
0.000103123
4.22104e-05
4.221e-05
0.000103127
0.000199845
0.000232352
0.000118731
0.000233184
0.000118713
0.000233184
0.000199858
0.000103118
4.22085e-05
4.22081e-05
0.000103122
0.00019984
0.000232351
0.000233184
0.000118722
0.000233184
0.000118705
0.000199854
0.000103113
4.22119e-05
0.000103108
4.22125e-05
0.000199853
0.000233184
0.000118732
0.000232352
0.000199841
0.000233184
0.000118748
0.000103112
4.22103e-05
0.000103107
4.22107e-05
0.000199841
0.000232353
0.000118745
0.000233185
0.000118728
0.000233185
0.000199853
0.000103107
4.22124e-05
4.2212e-05
0.000103113
0.000199839
0.000232352
0.000233184
0.000118747
0.000233184
0.000118733
0.000199854
0.000103106
4.22107e-05
4.22102e-05
0.000103112
6.73363e-05
6.73697e-05
0.000230919
6.73386e-05
6.73685e-05
2.38128e-05
2.38129e-05
2.3811e-05
2.38108e-05
0.000230908
6.73404e-05
6.73686e-05
6.73326e-05
6.73698e-05
2.38129e-05
2.38123e-05
0.000199857
0.000233184
0.000118723
0.000232352
0.000199843
0.000233184
0.000118739
0.000103122
4.22101e-05
0.000103119
4.22105e-05
0.000103123
4.22096e-05
0.00010312
4.221e-05
0.000199843
0.000232353
0.000233184
0.00011875
0.000233185
0.000118735
0.000199855
0.000199843
0.000232353
0.000233184
0.000118739
0.000233184
0.000118724
0.000199857
0.000103119
4.22104e-05
4.221e-05
0.000103122
0.000103119
4.221e-05
4.22095e-05
0.000103123
2.38126e-05
2.38128e-05
2.38119e-05
2.38121e-05
0.000230909
6.73696e-05
6.73569e-05
6.73716e-05
6.7359e-05
2.38128e-05
2.38122e-05
2.38121e-05
2.38115e-05
2.38138e-05
2.38137e-05
2.38121e-05
2.38124e-05
6.73729e-05
6.73584e-05
0.000230919
6.73706e-05
6.73568e-05
2.38137e-05
2.38132e-05
2.38123e-05
2.38117e-05
0.000230908
6.73706e-05
6.73568e-05
6.73699e-05
6.73584e-05
0.000103113
4.22124e-05