/*--------------------------------*- C++ -*----------------------------------*\
| =========                 |                                                 |
| \\      /  F ield         | OpenFOAM: The Open Source CFD Toolbox           |
|  \\    /   O peration     | Version:  2206                                  |
|   \\  /    A nd           | Website:  www.openfoam.com                      |
|    \\/     M anipulation  |                                                 |
\*---------------------------------------------------------------------------*/
FoamFile
{
    version     2.0;
    format      ascii;
    arch        "LSB;label=32;scalar=64";
    class       volVectorField;
    location    "5.5";
    object      U;
}
// * * * * * * * * * * * * * * * * * * * * * * * * * * * * * * * * * * * * * //

dimensions      [0 1 -1 0 0 0 0];

internalField   nonuniform List<vector> 
28687
(
(-2.87991e-07 -2.89159e-07 0.100771)
(-1.31983e-07 2.72003e-07 0.100771)
(2.91915e-07 -1.27195e-07 0.100771)
(-3.25126e-05 -3.2527e-05 0.10077)
(-2.24016e-07 -2.22219e-07 0.100771)
(-2.32909e-07 3.48192e-07 0.100771)
(3.53875e-07 -2.27622e-07 0.100771)
(-3.26229e-05 -3.26319e-05 0.10077)
(-2.54906e-07 -2.54335e-07 0.100771)
(-1.84032e-07 3.30238e-07 0.100771)
(3.29502e-07 -1.86054e-07 0.100771)
(-3.25732e-05 -3.2589e-05 0.10077)
(-2.62396e-07 -2.5779e-07 0.100771)
(-1.76252e-07 3.29439e-07 0.100771)
(3.24112e-07 -1.77749e-07 0.100771)
(-3.25659e-05 -3.258e-05 0.10077)
(-2.61636e-07 -2.59307e-07 0.100771)
(-1.76649e-07 3.26865e-07 0.100771)
(3.24108e-07 -1.77578e-07 0.100771)
(-3.25651e-05 -3.25801e-05 0.10077)
(-2.61716e-07 -2.57668e-07 0.100771)
(-1.75487e-07 3.2784e-07 0.100771)
(3.2322e-07 -1.75573e-07 0.100771)
(-3.25642e-05 -3.25786e-05 0.10077)
(-2.59176e-07 -2.48907e-07 0.100771)
(-1.75166e-07 3.41709e-07 0.100771)
(3.23496e-07 -1.73942e-07 0.100771)
(-3.25646e-05 -3.25773e-05 0.10077)
(-2.53572e-07 -2.52498e-07 0.100771)
(-1.73236e-07 3.1429e-07 0.100771)
(3.24492e-07 -1.72997e-07 0.100771)
(-3.25645e-05 -3.25772e-05 0.10077)
(-2.50006e-07 -2.55551e-07 0.100771)
(-1.76974e-07 3.25851e-07 0.100771)
(3.24303e-07 -1.75711e-07 0.100771)
(-3.25635e-05 -3.25789e-05 0.10077)
(-2.59128e-07 -2.60389e-07 0.100771)
(-1.77271e-07 3.24346e-07 0.100771)
(3.24716e-07 -1.77299e-07 0.100771)
(-3.25649e-05 -3.25805e-05 0.10077)
(-2.60453e-07 -2.60111e-07 0.100771)
(-1.76221e-07 3.24444e-07 0.100771)
(3.24554e-07 -1.77747e-07 0.100771)
(-3.25646e-05 -3.25803e-05 0.10077)
(-2.60738e-07 -2.5984e-07 0.100771)
(-1.77109e-07 3.25119e-07 0.100771)
(3.24655e-07 -1.78416e-07 0.100771)
(-3.25649e-05 -3.2581e-05 0.10077)
(-2.61122e-07 -2.6005e-07 0.100771)
(-1.76153e-07 3.24169e-07 0.100771)
(3.23515e-07 -1.77267e-07 0.100771)
(-3.25646e-05 -3.25805e-05 0.10077)
(-2.61149e-07 -2.60287e-07 0.100771)
(-1.75803e-07 3.23968e-07 0.100771)
(3.23696e-07 -1.77369e-07 0.100771)
(-3.25642e-05 -3.25798e-05 0.10077)
(-2.61389e-07 -2.60523e-07 0.100771)
(-1.75101e-07 3.23425e-07 0.100771)
(3.23136e-07 -1.76741e-07 0.100771)
(-3.25639e-05 -3.25795e-05 0.10077)
(-2.61845e-07 -2.60665e-07 0.100771)
(-1.75184e-07 3.23377e-07 0.100771)
(3.22741e-07 -1.76372e-07 0.100771)
(-3.25635e-05 -3.25791e-05 0.10077)
(-2.62656e-07 -2.60765e-07 0.100771)
(-1.75397e-07 3.23725e-07 0.100771)
(3.22433e-07 -1.7612e-07 0.100771)
(-3.25647e-05 -3.25792e-05 0.10077)
(-2.74081e-07 -2.70517e-07 0.100771)
(-1.68823e-07 3.19532e-07 0.100771)
(3.10841e-07 -1.60366e-07 0.100771)
(-3.25499e-05 -3.25585e-05 0.10077)
(-2.99712e-07 1.41293e-07 0.100771)
(3.35762e-05 -3.35527e-05 0.10077)
(-1.42185e-07 2.89508e-07 0.100771)
(3.2522e-05 3.25016e-05 0.10077)
(-3.35152e-05 -3.3484e-05 0.10077)
(3.00122e-07 1.31449e-07 0.100771)
(-2.80157e-07 1.20745e-07 0.100771)
(3.44845e-07 2.17997e-07 0.10077)
(-3.70312e-07 2.43684e-07 0.100771)
(-3.25125e-05 3.24839e-05 0.10077)
(3.35023e-05 -3.34813e-05 0.10077)
(1.27012e-07 2.94725e-07 0.100771)
(1.32942e-07 -2.97307e-07 0.100771)
(2.04873e-07 3.52083e-07 0.100771)
(2.17442e-07 -3.54729e-07 0.10077)
(-1.34825e-07 -2.9628e-07 0.100771)
(-2.19471e-07 3.62702e-07 0.100771)
(-2.22506e-07 -3.44221e-07 0.10077)
(3.25001e-05 -3.25327e-05 0.10077)
(-3.34846e-05 3.35163e-05 0.10077)
(-2.90224e-07 -1.27187e-07 0.100771)
(3.47504e-07 -2.08773e-07 0.100771)
(-3.49689e-07 -2.09695e-07 0.100771)
(3.34865e-05 3.35134e-05 0.10077)
(3.26254e-05 3.26133e-05 0.10077)
(-3.35382e-05 -3.35222e-05 0.10077)
(3.59734e-07 2.37573e-07 0.100771)
(-3.56996e-07 2.37798e-07 0.100771)
(3.41747e-07 1.96037e-07 0.100771)
(-3.35815e-07 1.96516e-07 0.100771)
(-3.263e-05 3.25961e-05 0.10077)
(3.35526e-05 -3.35262e-05 0.10077)
(2.2595e-07 3.61899e-07 0.100771)
(2.33841e-07 -3.60677e-07 0.100771)
(1.9211e-07 3.36278e-07 0.100771)
(1.99066e-07 -3.39062e-07 0.100771)
(-2.37579e-07 -3.56226e-07 0.100771)
(-1.89672e-07 3.29427e-07 0.100771)
(-1.99553e-07 -3.39459e-07 0.100771)
(3.26088e-05 -3.264e-05 0.10077)
(-3.35204e-05 3.3551e-05 0.10077)
(-3.55348e-07 -2.28263e-07 0.100771)
(3.31797e-07 -1.91155e-07 0.100771)
(-3.31997e-07 -1.92836e-07 0.100771)
(3.35251e-05 3.35422e-05 0.10077)
(3.25818e-05 3.25663e-05 0.10077)
(-3.35547e-05 -3.35332e-05 0.10077)
(3.35546e-07 1.93107e-07 0.100771)
(-3.37744e-07 1.94591e-07 0.100771)
(3.27579e-07 1.85648e-07 0.100771)
(-3.47509e-07 2.04634e-07 0.100771)
(-3.25826e-05 3.2558e-05 0.10077)
(3.35556e-05 -3.35127e-05 0.10077)
(1.86679e-07 3.31971e-07 0.100771)
(1.92008e-07 -3.36046e-07 0.100771)
(1.76475e-07 3.26806e-07 0.100771)
(1.8441e-07 -3.29955e-07 0.100771)
(-1.92251e-07 -3.35597e-07 0.100771)
(-1.76881e-07 3.37649e-07 0.100771)
(-1.84929e-07 -3.28149e-07 0.100771)
(3.25605e-05 -3.25926e-05 0.10077)
(-3.35322e-05 3.35631e-05 0.10077)
(-3.29026e-07 -1.85477e-07 0.100771)
(3.23242e-07 -1.76599e-07 0.100771)
(-3.23477e-07 -1.76545e-07 0.100771)
(3.35367e-05 3.35559e-05 0.10077)
(3.2571e-05 3.25593e-05 0.10077)
(-3.35526e-05 -3.35343e-05 0.10077)
(3.275e-07 1.87216e-07 0.100771)
(-3.35253e-07 1.87401e-07 0.100771)
(3.30273e-07 1.81647e-07 0.100771)
(-3.33072e-07 1.85164e-07 0.100771)
(-3.25793e-05 3.25707e-05 0.10077)
(3.35588e-05 -3.3537e-05 0.10077)
(1.7848e-07 3.27661e-07 0.100771)
(1.8367e-07 -3.30021e-07 0.100771)
(1.76535e-07 3.25907e-07 0.100771)
(1.83252e-07 -3.29234e-07 0.100771)
(-1.84435e-07 -3.28327e-07 0.100771)
(-1.76669e-07 3.27209e-07 0.100771)
(-1.84076e-07 -3.2858e-07 0.100771)
(3.25528e-05 -3.25847e-05 0.10077)
(-3.35324e-05 3.35635e-05 0.10077)
(-3.23895e-07 -1.76147e-07 0.100771)
(3.22676e-07 -1.75983e-07 0.100771)
(-3.22804e-07 -1.75843e-07 0.100771)
(3.35369e-05 3.35552e-05 0.10077)
(3.25719e-05 3.25579e-05 0.10077)
(-3.35542e-05 -3.35341e-05 0.10077)
(3.29205e-07 1.8748e-07 0.100771)
(-3.32624e-07 1.84962e-07 0.100771)
(3.29361e-07 1.81007e-07 0.100771)
(-3.3057e-07 1.84756e-07 0.100771)
(-3.25741e-05 3.25516e-05 0.10077)
(3.35598e-05 -3.35364e-05 0.10077)
(1.78327e-07 3.26064e-07 0.100771)
(1.83643e-07 -3.29827e-07 0.100771)
(1.75522e-07 3.25484e-07 0.100771)
(1.83009e-07 -3.27489e-07 0.100771)
(-1.83749e-07 -3.29135e-07 0.100771)
(-1.75393e-07 3.26837e-07 0.100771)
(-1.82354e-07 -3.26364e-07 0.100771)
(3.25525e-05 -3.25841e-05 0.10077)
(-3.35331e-05 3.35651e-05 0.10077)
(-3.23455e-07 -1.75813e-07 0.100771)
(3.21826e-07 -1.74152e-07 0.100771)
(-3.20975e-07 -1.73935e-07 0.100771)
(3.35383e-05 3.3557e-05 0.10077)
(3.25709e-05 3.25572e-05 0.10077)
(-3.35562e-05 -3.3521e-05 0.10077)
(3.27016e-07 1.87645e-07 0.100771)
(-3.31572e-07 1.85294e-07 0.100771)
(3.3293e-07 1.90904e-07 0.100771)
(-3.34836e-07 1.95123e-07 0.100771)
(-3.25734e-05 3.25535e-05 0.10077)
(3.35596e-05 -3.35177e-05 0.10077)
(1.77056e-07 3.27197e-07 0.100771)
(1.82806e-07 -3.27532e-07 0.100771)
(1.73909e-07 3.33411e-07 0.100771)
(1.82637e-07 -3.2447e-07 0.100771)
(-1.83039e-07 -3.27188e-07 0.100771)
(-1.74266e-07 3.36056e-07 0.100771)
(-1.82693e-07 -3.23935e-07 0.100771)
(3.25522e-05 -3.25828e-05 0.10077)
(-3.35333e-05 3.35672e-05 0.10077)
(-3.22367e-07 -1.74134e-07 0.100771)
(3.21604e-07 -1.72007e-07 0.100771)
(-3.20499e-07 -1.72722e-07 0.100771)
(3.35388e-05 3.35592e-05 0.10077)
(3.25726e-05 3.25776e-05 0.10077)
(-3.35597e-05 -3.35258e-05 0.10077)
(3.32247e-07 2.00995e-07 0.100771)
(-3.41892e-07 2.06092e-07 0.100771)
(3.33312e-07 1.82578e-07 0.100771)
(-3.26489e-07 1.86852e-07 0.100771)
(-3.2579e-05 3.25746e-05 0.10077)
(3.35673e-05 -3.35277e-05 0.10077)
(1.76121e-07 3.36968e-07 0.100771)
(1.82954e-07 -3.25187e-07 0.100771)
(1.75562e-07 3.30967e-07 0.100771)
(1.8257e-07 -3.24483e-07 0.100771)
(-1.84566e-07 -3.25316e-07 0.100771)
(-1.72847e-07 3.21789e-07 0.100771)
(-1.88497e-07 -3.24738e-07 0.100771)
(3.25523e-05 -3.25812e-05 0.10077)
(-3.35329e-05 3.35667e-05 0.10077)
(-3.22203e-07 -1.75288e-07 0.100771)
(3.22342e-07 -1.71055e-07 0.100771)
(-3.19334e-07 -1.81695e-07 0.100771)
(3.35373e-05 3.35584e-05 0.10077)
(3.25751e-05 3.25679e-05 0.10077)
(-3.35663e-05 -3.35274e-05 0.10077)
(3.37574e-07 1.87566e-07 0.100771)
(-3.17884e-07 1.79753e-07 0.100771)
(3.31977e-07 1.91208e-07 0.100771)
(-3.33062e-07 1.943e-07 0.100771)
(-3.2558e-05 3.25407e-05 0.10077)
(3.35557e-05 -3.3533e-05 0.10077)
(1.78375e-07 3.30139e-07 0.100771)
(1.82908e-07 -3.26423e-07 0.100771)
(1.78633e-07 3.19069e-07 0.100771)
(1.83631e-07 -3.2646e-07 0.100771)
(-1.88104e-07 -3.26381e-07 0.100771)
(-1.7705e-07 3.26542e-07 0.100771)
(-1.80883e-07 -3.26743e-07 0.100771)
(3.25521e-05 -3.25813e-05 0.10077)
(-3.35325e-05 3.35653e-05 0.10077)
(-3.20069e-07 -1.82693e-07 0.100771)
(3.22935e-07 -1.72936e-07 0.100771)
(-3.19672e-07 -1.74988e-07 0.100771)
(3.3539e-05 3.35567e-05 0.10077)
(3.25738e-05 3.25578e-05 0.10077)
(-3.35616e-05 -3.35277e-05 0.10077)
(3.40603e-07 2.00165e-07 0.100771)
(-3.2403e-07 1.72767e-07 0.100771)
(3.31278e-07 1.838e-07 0.100771)
(-3.29558e-07 1.8412e-07 0.100771)
(-3.25716e-05 3.25453e-05 0.10077)
(3.35587e-05 -3.35352e-05 0.10077)
(1.83025e-07 3.27371e-07 0.100771)
(1.83297e-07 -3.27233e-07 0.100771)
(1.77266e-07 3.2528e-07 0.100771)
(1.83235e-07 -3.29094e-07 0.100771)
(-1.82057e-07 -3.27954e-07 0.100771)
(-1.77917e-07 3.24717e-07 0.100771)
(-1.83338e-07 -3.28554e-07 0.100771)
(3.25522e-05 -3.25825e-05 0.10077)
(-3.35319e-05 3.35633e-05 0.10077)
(-3.21555e-07 -1.7597e-07 0.100771)
(3.23307e-07 -1.75033e-07 0.100771)
(-3.21879e-07 -1.76687e-07 0.100771)
(3.35375e-05 3.35553e-05 0.10077)
(3.25782e-05 3.25529e-05 0.10077)
(-3.35605e-05 -3.35289e-05 0.10077)
(3.312e-07 1.81461e-07 0.100771)
(-3.31378e-07 1.84964e-07 0.100771)
(3.30967e-07 1.82799e-07 0.100771)
(-3.31078e-07 1.85132e-07 0.100771)
(-3.25734e-05 3.25511e-05 0.10077)
(3.3558e-05 -3.35351e-05 0.10077)
(1.78549e-07 3.24963e-07 0.100771)
(1.83539e-07 -3.30147e-07 0.100771)
(1.76913e-07 3.23653e-07 0.100771)
(1.83607e-07 -3.29533e-07 0.100771)
(-1.83074e-07 -3.29545e-07 0.100771)
(-1.75736e-07 3.24204e-07 0.100771)
(-1.82432e-07 -3.28282e-07 0.100771)
(3.25528e-05 -3.25843e-05 0.10077)
(-3.3532e-05 3.35629e-05 0.10077)
(-3.2288e-07 -1.7629e-07 0.100771)
(3.23013e-07 -1.75877e-07 0.100771)
(-3.21239e-07 -1.7614e-07 0.100771)
(3.35377e-05 3.35553e-05 0.10077)
(3.25795e-05 3.25525e-05 0.10077)
(-3.35601e-05 -3.35293e-05 0.10077)
(3.31579e-07 1.81865e-07 0.100771)
(-3.31984e-07 1.85161e-07 0.100771)
(3.3153e-07 1.83888e-07 0.100771)
(-3.32507e-07 1.86345e-07 0.100771)
(-3.2574e-05 3.25517e-05 0.10077)
(3.35573e-05 -3.35345e-05 0.10077)
(1.7945e-07 3.24832e-07 0.100771)
(1.83868e-07 -3.30333e-07 0.100771)
(1.77361e-07 3.24145e-07 0.100771)
(1.84203e-07 -3.29906e-07 0.100771)
(-1.82954e-07 -3.29559e-07 0.100771)
(-1.76755e-07 3.25213e-07 0.100771)
(-1.84065e-07 -3.29385e-07 0.100771)
(3.25531e-05 -3.2585e-05 0.10077)
(-3.35318e-05 3.35629e-05 0.10077)
(-3.22585e-07 -1.75626e-07 0.100771)
(3.23161e-07 -1.76496e-07 0.100771)
(-3.22086e-07 -1.75398e-07 0.100771)
(3.35375e-05 3.35546e-05 0.10077)
(3.258e-05 3.25523e-05 0.10077)
(-3.35607e-05 -3.35298e-05 0.10077)
(3.31258e-07 1.821e-07 0.100771)
(-3.3292e-07 1.85564e-07 0.100771)
(3.30425e-07 1.83096e-07 0.100771)
(-3.31413e-07 1.8526e-07 0.100771)
(-3.25748e-05 3.25523e-05 0.10077)
(3.35579e-05 -3.35352e-05 0.10077)
(1.7905e-07 3.24521e-07 0.100771)
(1.83955e-07 -3.3062e-07 0.100771)
(1.75956e-07 3.22979e-07 0.100771)
(1.82927e-07 -3.28861e-07 0.100771)
(-1.84406e-07 -3.30768e-07 0.100771)
(-1.75527e-07 3.24123e-07 0.100771)
(-1.82785e-07 -3.28837e-07 0.100771)
(3.25531e-05 -3.25849e-05 0.10077)
(-3.35325e-05 3.35633e-05 0.10077)
(-3.23775e-07 -1.77161e-07 0.100771)
(3.22068e-07 -1.75492e-07 0.100771)
(-3.21769e-07 -1.76521e-07 0.100771)
(3.35379e-05 3.35551e-05 0.10077)
(3.25793e-05 3.25515e-05 0.10077)
(-3.35611e-05 -3.35301e-05 0.10077)
(3.31022e-07 1.81794e-07 0.100771)
(-3.32034e-07 1.84773e-07 0.100771)
(3.3072e-07 1.82895e-07 0.100771)
(-3.3161e-07 1.85095e-07 0.100771)
(-3.2574e-05 3.25515e-05 0.10077)
(3.35581e-05 -3.35353e-05 0.10077)
(1.78562e-07 3.24237e-07 0.100771)
(1.82878e-07 -3.29621e-07 0.100771)
(1.76004e-07 3.23272e-07 0.100771)
(1.83027e-07 -3.29218e-07 0.100771)
(-1.82692e-07 -3.2969e-07 0.100771)
(-1.75236e-07 3.24309e-07 0.100771)
(-1.82143e-07 -3.28378e-07 0.100771)
(3.25523e-05 -3.25842e-05 0.10077)
(-3.35325e-05 3.35634e-05 0.10077)
(-3.22763e-07 -1.76704e-07 0.100771)
(3.22405e-07 -1.75227e-07 0.100771)
(-3.21276e-07 -1.75935e-07 0.100771)
(3.35381e-05 3.35556e-05 0.10077)
(3.25788e-05 3.25511e-05 0.10077)
(-3.35616e-05 -3.35305e-05 0.10077)
(3.30234e-07 1.80925e-07 0.100771)
(-3.31886e-07 1.84368e-07 0.100771)
(3.2983e-07 1.82088e-07 0.100771)
(-3.3051e-07 1.84294e-07 0.100771)
(-3.25738e-05 3.25512e-05 0.10077)
(3.3559e-05 -3.35363e-05 0.10077)
(1.77949e-07 3.2343e-07 0.100771)
(1.82914e-07 -3.29723e-07 0.100771)
(1.75266e-07 3.22476e-07 0.100771)
(1.82362e-07 -3.2832e-07 0.100771)
(-1.82451e-07 -3.29377e-07 0.100771)
(-1.74361e-07 3.2326e-07 0.100771)
(-1.81658e-07 -3.27921e-07 0.100771)
(3.25522e-05 -3.25842e-05 0.10077)
(-3.35334e-05 3.35642e-05 0.10077)
(-3.22489e-07 -1.76444e-07 0.100771)
(3.2159e-07 -1.74645e-07 0.100771)
(-3.20975e-07 -1.75518e-07 0.100771)
(3.35384e-05 3.3556e-05 0.10077)
(3.25782e-05 3.25507e-05 0.10077)
(-3.35618e-05 -3.35307e-05 0.10077)
(3.30165e-07 1.80571e-07 0.100771)
(-3.31328e-07 1.83698e-07 0.100771)
(3.29187e-07 1.81387e-07 0.100771)
(-3.30348e-07 1.83645e-07 0.100771)
(-3.2573e-05 3.25502e-05 0.10077)
(3.35586e-05 -3.3536e-05 0.10077)
(1.77601e-07 3.23532e-07 0.100771)
(1.82217e-07 -3.29282e-07 0.100771)
(1.74681e-07 3.21957e-07 0.100771)
(1.81505e-07 -3.27792e-07 0.100771)
(-1.82026e-07 -3.29428e-07 0.100771)
(-1.74245e-07 3.23009e-07 0.100771)
(-1.81275e-07 -3.27446e-07 0.100771)
(3.25514e-05 -3.25834e-05 0.10077)
(-3.35333e-05 3.35641e-05 0.10077)
(-3.22615e-07 -1.7623e-07 0.100771)
(3.21069e-07 -1.74122e-07 0.100771)
(-3.20674e-07 -1.74943e-07 0.100771)
(3.35386e-05 3.3556e-05 0.10077)
(3.25778e-05 3.25502e-05 0.10077)
(-3.35615e-05 -3.35301e-05 0.10077)
(3.29356e-07 1.80313e-07 0.100771)
(-3.31379e-07 1.83697e-07 0.100771)
(3.29653e-07 1.82682e-07 0.100771)
(-3.32126e-07 1.84723e-07 0.100771)
(-3.25729e-05 3.25501e-05 0.10077)
(3.35574e-05 -3.35354e-05 0.10077)
(1.76958e-07 3.22765e-07 0.100771)
(1.81798e-07 -3.28804e-07 0.100771)
(1.7512e-07 3.22934e-07 0.100771)
(1.8206e-07 -3.28469e-07 0.100771)
(-1.8182e-07 -3.28622e-07 0.100771)
(-1.75635e-07 3.24057e-07 0.100771)
(-1.82854e-07 -3.2793e-07 0.100771)
(3.2551e-05 -3.25831e-05 0.10077)
(-3.35333e-05 3.35637e-05 0.10077)
(-3.22037e-07 -1.75533e-07 0.100771)
(3.21357e-07 -1.7492e-07 0.100771)
(-3.22133e-07 -1.75643e-07 0.100771)
(3.35373e-05 3.35555e-05 0.10077)
(3.25781e-05 3.2551e-05 0.10077)
(-3.35614e-05 -3.35287e-05 0.10077)
(3.29425e-07 1.81434e-07 0.100771)
(-3.32143e-07 1.84409e-07 0.100771)
(3.24493e-07 1.77074e-07 0.100771)
(-3.30476e-07 1.79494e-07 0.100771)
(-3.25737e-05 3.25503e-05 0.10077)
(3.3556e-05 -3.35363e-05 0.10077)
(1.77488e-07 3.23483e-07 0.100771)
(1.81902e-07 -3.28724e-07 0.100771)
(1.68939e-07 3.19113e-07 0.100771)
(1.75948e-07 -3.24152e-07 0.100771)
(-1.82063e-07 -3.28327e-07 0.100771)
(-1.72949e-07 3.21322e-07 0.100771)
(-1.79042e-07 -3.22081e-07 0.100771)
(3.25512e-05 -3.25836e-05 0.10077)
(-3.35326e-05 3.35632e-05 0.10077)
(-3.2259e-07 -1.75258e-07 0.100771)
(3.17078e-07 -1.68859e-07 0.100771)
(-3.19287e-07 -1.68729e-07 0.100771)
(3.35356e-05 3.35568e-05 0.10077)
(3.25583e-05 3.25321e-05 0.10077)
(3.16125e-07 1.64872e-07 0.100771)
(-3.31673e-07 1.71458e-07 0.100771)
(-3.25638e-05 3.25371e-05 0.10077)
(1.60401e-07 3.11762e-07 0.100771)
(1.65944e-07 -3.17062e-07 0.100771)
(-1.71654e-07 -3.15774e-07 0.100771)
(3.25318e-05 -3.25639e-05 0.10077)
(-3.1355e-07 -1.58245e-07 0.100771)
(-8.11739e-08 -4.65759e-06 0.100559)
(4.65043e-07 3.53337e-06 0.0988464)
(1.28246e-08 4.53703e-06 0.100559)
(-4.8092e-07 -4.30414e-06 0.0988475)
(-7.35121e-07 6.26916e-07 0.0943681)
(1.28632e-06 -1.80967e-06 0.094372)
(-4.69235e-06 -5.02816e-08 0.100559)
(3.50494e-06 4.33318e-07 0.0988461)
(4.57155e-06 4.58422e-09 0.100559)
(-4.26672e-06 -4.38839e-07 0.0988475)
(3.11908e-07 -2.90691e-07 0.100771)
(-2.8696e-07 2.89708e-07 0.100771)
(2.8785e-07 2.84613e-07 0.100771)
(-2.48303e-07 -2.39404e-07 0.100771)
(2.21957e-07 -2.07278e-07 0.100771)
(-2.44064e-07 2.47163e-07 0.100771)
(2.40878e-07 2.45728e-07 0.100771)
(8.99005e-06 -3.90727e-08 0.100746)
(-7.13661e-06 2.12431e-06 0.100608)
(-1.6211e-07 -1.23924e-07 0.100771)
(-1.39763e-07 3.22183e-07 0.100771)
(-8.7241e-06 2.53813e-08 0.100746)
(7.26646e-06 -2.52067e-06 0.100608)
(-1.42631e-07 -1.11487e-07 0.100771)
(6.7069e-08 -4.04009e-07 0.0943659)
(-1.54233e-06 1.13819e-06 0.0943688)
(-5.4364e-08 9.00583e-06 0.100746)
(-1.11886e-07 -1.57093e-07 0.100771)
(2.20246e-06 -7.21212e-06 0.100608)
(2.7402e-07 -9.86094e-08 0.100771)
(2.9571e-08 -8.73278e-06 0.100746)
(-1.20993e-07 -1.1713e-07 0.100771)
(-2.56838e-06 7.29164e-06 0.100609)
(-2.3448e-06 -2.62123e-06 0.100327)
(-2.61437e-06 -2.3393e-06 0.100327)
(3.35874e-05 3.36107e-05 0.10077)
(2.00858e-06 2.77393e-06 0.100327)
(2.76251e-06 2.01041e-06 0.100327)
(3.67488e-08 -4.57866e-06 0.10056)
(3.53053e-07 4.64889e-06 0.0988469)
(4.99044e-08 4.58126e-06 0.100559)
(-6.89007e-07 -3.63907e-06 0.0988472)
(-1.28001e-06 1.71031e-06 0.0943674)
(8.50012e-07 -9.3989e-07 0.094367)
(-4.59066e-06 8.59008e-09 0.10056)
(4.61167e-06 3.3514e-07 0.0988466)
(4.60093e-06 5.60889e-08 0.100559)
(-3.60865e-06 -6.64659e-07 0.0988472)
(2.32784e-07 -2.19026e-07 0.100771)
(-2.22913e-07 2.25233e-07 0.100771)
(2.21265e-07 2.20964e-07 0.100771)
(-2.49607e-07 -2.49353e-07 0.100771)
(2.5392e-07 -2.52389e-07 0.100771)
(-2.47867e-07 2.49422e-07 0.100771)
(2.47811e-07 2.4663e-07 0.100771)
(8.63743e-06 -4.93026e-08 0.100747)
(-7.44187e-06 2.47513e-06 0.100608)
(-2.88409e-07 -8.51515e-08 0.100771)
(-2.20592e-07 3.38903e-07 0.100771)
(-9.09061e-06 6.51692e-08 0.100746)
(6.98809e-06 -2.26625e-06 0.100609)
(-2.74969e-07 -9.89682e-08 0.100771)
(2.09533e-06 -1.51848e-06 0.0943692)
(-5.96125e-07 6.66882e-07 0.094367)
(-2.58627e-08 8.64092e-06 0.100747)
(-8.70378e-08 -2.82174e-07 0.100771)
(2.54294e-06 -7.47566e-06 0.100608)
(3.46914e-07 -2.17475e-07 0.100771)
(5.33538e-08 -9.09258e-06 0.100746)
(-8.96141e-08 -2.70919e-07 0.100771)
(-2.19837e-06 6.97067e-06 0.100609)
(-1.88385e-06 -2.84278e-06 0.100326)
(-2.84307e-06 -1.87959e-06 0.100326)
(3.34962e-05 3.35147e-05 0.10077)
(2.27722e-06 2.52203e-06 0.100327)
(2.51046e-06 2.27843e-06 0.100327)
(-1.29816e-08 -4.61099e-06 0.10056)
(5.4729e-07 3.97505e-06 0.0988463)
(6.35801e-09 4.55336e-06 0.100559)
(-6.08695e-07 -3.88865e-06 0.098847)
(-8.9669e-07 9.99505e-07 0.0943663)
(8.11739e-07 -9.59815e-07 0.0943669)
(-4.63702e-06 -1.03925e-08 0.10056)
(3.94639e-06 5.19654e-07 0.098846)
(4.5752e-06 9.90989e-09 0.100559)
(-3.85826e-06 -5.78825e-07 0.098847)
(2.55872e-07 -2.53566e-07 0.100771)
(-2.53195e-07 2.54658e-07 0.100771)
(2.52221e-07 2.51828e-07 0.100771)
(-2.61868e-07 -2.57284e-07 0.100771)
(2.55077e-07 -2.51103e-07 0.100771)
(-2.59226e-07 2.60495e-07 0.100771)
(2.5781e-07 2.59794e-07 0.100771)
(8.77591e-06 -4.29263e-08 0.100747)
(-7.27019e-06 2.26738e-06 0.100608)
(-2.23877e-07 -1.00382e-07 0.100771)
(-1.79509e-07 3.32532e-07 0.100771)
(-8.85655e-06 4.12035e-08 0.100747)
(7.07149e-06 -2.32462e-06 0.100609)
(-2.1684e-07 -9.85618e-08 0.100771)
(9.76238e-07 -8.95549e-07 0.0943655)
(-9.42922e-07 8.24134e-07 0.0943665)
(-3.94064e-08 8.78218e-06 0.100747)
(-1.00949e-07 -2.25774e-07 0.100771)
(2.28458e-06 -7.29066e-06 0.100608)
(3.25101e-07 -1.78563e-07 0.100771)
(3.85795e-08 -8.86219e-06 0.100747)
(-1.02316e-07 -2.13549e-07 0.100771)
(-2.34459e-06 7.08426e-06 0.100609)
(-2.20361e-06 -2.66493e-06 0.100327)
(-2.6579e-06 -2.20023e-06 0.100327)
(3.35341e-05 3.35525e-05 0.10077)
(2.16511e-06 2.60073e-06 0.100327)
(2.59328e-06 2.16207e-06 0.100327)
(-9.96956e-09 -4.61473e-06 0.10056)
(5.43196e-07 3.96834e-06 0.0988463)
(-3.77496e-09 4.54675e-06 0.100559)
(-6.08651e-07 -3.89303e-06 0.098847)
(-9.59188e-07 1.02964e-06 0.0943665)
(8.27347e-07 -9.77308e-07 0.0943669)
(-4.63907e-06 -1.05372e-08 0.10056)
(3.93212e-06 5.16222e-07 0.098846)
(4.56715e-06 1.1768e-08 0.100559)
(-3.85821e-06 -5.78615e-07 0.098847)
(2.55113e-07 -2.52998e-07 0.100771)
(-2.59451e-07 2.60962e-07 0.100771)
(2.57572e-07 2.59852e-07 0.100771)
(-2.61677e-07 -2.59038e-07 0.100771)
(2.59476e-07 -2.59327e-07 0.100771)
(-2.5975e-07 2.60757e-07 0.100771)
(2.58448e-07 2.5975e-07 0.100771)
(8.77723e-06 -4.28591e-08 0.100747)
(-7.26013e-06 2.27273e-06 0.100608)
(-2.1348e-07 -9.51096e-08 0.100771)
(-1.75394e-07 3.27318e-07 0.100771)
(-8.84314e-06 4.65546e-08 0.100747)
(7.072e-06 -2.32939e-06 0.100609)
(-2.11818e-07 -9.87113e-08 0.100771)
(9.72366e-07 -8.98193e-07 0.0943655)
(-9.3773e-07 8.22667e-07 0.0943665)
(-3.95525e-08 8.78418e-06 0.100747)
(-1.02524e-07 -2.12432e-07 0.100771)
(2.28058e-06 -7.28157e-06 0.100608)
(3.22762e-07 -1.75349e-07 0.100771)
(3.75909e-08 -8.84829e-06 0.100747)
(-1.02952e-07 -2.07743e-07 0.100771)
(-2.34482e-06 7.08596e-06 0.100609)
(-2.19901e-06 -2.66212e-06 0.100327)
(-2.65658e-06 -2.19483e-06 0.100327)
(3.35367e-05 3.35554e-05 0.10077)
(2.16522e-06 2.60138e-06 0.100327)
(2.59309e-06 2.163e-06 0.100327)
(-8.26585e-09 -4.61481e-06 0.10056)
(5.43708e-07 3.97262e-06 0.0988463)
(5.79507e-09 4.54374e-06 0.100559)
(-6.05324e-07 -3.89293e-06 0.098847)
(-9.27801e-07 1.02603e-06 0.0943663)
(8.47151e-07 -9.87088e-07 0.0943669)
(-4.63947e-06 -1.04963e-08 0.10056)
(3.9331e-06 5.16017e-07 0.098846)
(4.56676e-06 1.177e-08 0.100559)
(-3.85879e-06 -5.77998e-07 0.098847)
(2.59847e-07 -2.59315e-07 0.100771)
(-2.59618e-07 2.61052e-07 0.100771)
(2.58172e-07 2.59421e-07 0.100771)
(-2.61542e-07 -2.58207e-07 0.100771)
(2.60302e-07 -2.58411e-07 0.100771)
(-2.59589e-07 2.61946e-07 0.100771)
(2.58826e-07 2.6088e-07 0.100771)
(8.7777e-06 -4.40189e-08 0.100747)
(-7.2613e-06 2.2664e-06 0.100608)
(-2.1255e-07 -1.00561e-07 0.100771)
(-1.75728e-07 3.27249e-07 0.100771)
(-8.84252e-06 4.40208e-08 0.100747)
(7.07087e-06 -2.3293e-06 0.100609)
(-2.10921e-07 -1.01042e-07 0.100771)
(9.73901e-07 -8.97612e-07 0.0943655)
(-9.3781e-07 8.22702e-07 0.0943665)
(-3.91971e-08 8.78503e-06 0.100747)
(-1.02297e-07 -2.1231e-07 0.100771)
(2.28082e-06 -7.28093e-06 0.100608)
(3.22373e-07 -1.74477e-07 0.100771)
(3.7995e-08 -8.84726e-06 0.100747)
(-1.02712e-07 -2.06909e-07 0.100771)
(-2.34485e-06 7.08648e-06 0.100609)
(-2.19837e-06 -2.66167e-06 0.100327)
(-2.65557e-06 -2.19441e-06 0.100327)
(3.35372e-05 3.35555e-05 0.10077)
(2.166e-06 2.60127e-06 0.100327)
(2.59347e-06 2.16394e-06 0.100327)
(-8.47452e-09 -4.6121e-06 0.10056)
(5.39162e-07 3.96253e-06 0.0988463)
(5.3142e-09 4.54608e-06 0.100559)
(-5.99308e-07 -3.88258e-06 0.098847)
(-8.93477e-07 9.7771e-07 0.0943661)
(8.20294e-07 -9.47935e-07 0.0943671)
(-4.63864e-06 -8.13207e-09 0.10056)
(3.93276e-06 5.18203e-07 0.098846)
(4.56737e-06 1.28965e-08 0.100559)
(-3.85956e-06 -5.74404e-07 0.098847)
(2.60091e-07 -2.56909e-07 0.100771)
(-2.59354e-07 2.62649e-07 0.100771)
(2.58498e-07 2.60996e-07 0.100771)
(-2.59827e-07 -2.50939e-07 0.100771)
(2.58856e-07 -2.50042e-07 0.100771)
(-2.5924e-07 2.64903e-07 0.100771)
(2.59155e-07 2.63474e-07 0.100771)
(8.77781e-06 -4.12998e-08 0.100747)
(-7.26135e-06 2.2678e-06 0.100608)
(-2.10782e-07 -9.85221e-08 0.100771)
(-1.7423e-07 3.29114e-07 0.100771)
(-8.84259e-06 4.51267e-08 0.100747)
(7.07242e-06 -2.32425e-06 0.100609)
(-2.09192e-07 -9.79477e-08 0.100771)
(9.74156e-07 -8.97398e-07 0.0943655)
(-9.37601e-07 8.23392e-07 0.0943665)
(-3.94454e-08 8.78546e-06 0.100747)
(-1.02178e-07 -2.09842e-07 0.100771)
(2.28084e-06 -7.28084e-06 0.100608)
(3.21585e-07 -1.72676e-07 0.100771)
(3.80492e-08 -8.84742e-06 0.100747)
(-1.02776e-07 -2.04434e-07 0.100771)
(-2.34432e-06 7.08712e-06 0.100609)
(-2.19889e-06 -2.66172e-06 0.100327)
(-2.65603e-06 -2.19446e-06 0.100327)
(3.35382e-05 3.35575e-05 0.10077)
(2.1649e-06 2.60191e-06 0.100327)
(2.59303e-06 2.16323e-06 0.100327)
(4.1569e-09 -4.60511e-06 0.10056)
(6.06089e-07 3.99332e-06 0.0988462)
(1.26669e-08 4.54956e-06 0.100559)
(-4.48528e-07 -3.84181e-06 0.0988471)
(-1.04886e-06 1.13506e-06 0.0943663)
(7.85428e-07 -9.2956e-07 0.0943668)
(-4.6376e-06 -3.86492e-09 0.10056)
(3.93014e-06 5.25463e-07 0.098846)
(4.56558e-06 1.69599e-08 0.100559)
(-3.86163e-06 -5.6836e-07 0.098847)
(2.57418e-07 -2.46453e-07 0.100771)
(-2.59144e-07 2.65426e-07 0.100771)
(2.59969e-07 2.62279e-07 0.100771)
(-2.53375e-07 -2.50411e-07 0.100771)
(2.64015e-07 -2.52738e-07 0.100771)
(-2.57447e-07 2.65813e-07 0.100771)
(2.67588e-07 2.56815e-07 0.100771)
(8.77884e-06 -3.76714e-08 0.100747)
(-7.25709e-06 2.28048e-06 0.100608)
(-2.11921e-07 -9.10589e-08 0.100771)
(-1.73968e-07 3.38465e-07 0.100771)
(-8.84129e-06 5.01388e-08 0.100747)
(7.07766e-06 -2.31308e-06 0.100609)
(-2.10975e-07 -9.09469e-08 0.100771)
(9.74617e-07 -8.96297e-07 0.0943655)
(-9.36761e-07 8.24416e-07 0.0943666)
(-3.81852e-08 8.78622e-06 0.100747)
(-1.01778e-07 -2.08725e-07 0.100771)
(2.28161e-06 -7.28009e-06 0.100608)
(3.22453e-07 -1.71198e-07 0.100771)
(3.87169e-08 -8.84637e-06 0.100747)
(-1.01745e-07 -2.04133e-07 0.100771)
(-2.34335e-06 7.08763e-06 0.100609)
(-2.1996e-06 -2.66167e-06 0.100327)
(-2.65722e-06 -2.1946e-06 0.100327)
(3.35371e-05 3.35581e-05 0.10077)
(2.16546e-06 2.60216e-06 0.100327)
(2.59312e-06 2.16397e-06 0.100327)
(7.16974e-09 -4.6133e-06 0.10056)
(5.56366e-07 3.97548e-06 0.0988463)
(1.68748e-08 4.54695e-06 0.100559)
(-5.81999e-07 -3.89025e-06 0.098847)
(-8.36701e-07 9.5087e-07 0.0943664)
(1.02097e-06 -1.07686e-06 0.0943667)
(-4.63797e-06 -6.41788e-09 0.10056)
(3.9343e-06 5.24888e-07 0.098846)
(4.56611e-06 1.67614e-08 0.100559)
(-3.87463e-06 -5.75811e-07 0.098847)
(2.67697e-07 -2.60987e-07 0.100771)
(-2.5673e-07 2.65314e-07 0.100771)
(2.68183e-07 2.547e-07 0.100771)
(-2.49173e-07 -2.53037e-07 0.100771)
(2.64555e-07 -2.57678e-07 0.100771)
(-2.57201e-07 2.62447e-07 0.100771)
(2.61205e-07 2.57543e-07 0.100771)
(8.77725e-06 -4.77558e-08 0.100747)
(-7.26206e-06 2.25523e-06 0.100608)
(-2.10219e-07 -1.02832e-07 0.100771)
(-1.71343e-07 3.08388e-07 0.100771)
(-8.84211e-06 4.26195e-08 0.100747)
(7.06771e-06 -2.34069e-06 0.100609)
(-2.08381e-07 -1.06855e-07 0.100771)
(9.74711e-07 -8.96456e-07 0.0943655)
(-9.3773e-07 8.23143e-07 0.0943666)
(-3.84226e-08 8.78526e-06 0.100747)
(-1.01477e-07 -2.11228e-07 0.100771)
(2.28185e-06 -7.2795e-06 0.100608)
(3.23302e-07 -1.70912e-07 0.100771)
(3.92581e-08 -8.84621e-06 0.100747)
(-1.02054e-07 -2.0731e-07 0.100771)
(-2.34382e-06 7.08768e-06 0.100609)
(-2.1978e-06 -2.66296e-06 0.100327)
(-2.65612e-06 -2.1939e-06 0.100327)
(3.35383e-05 3.35574e-05 0.10077)
(2.16664e-06 2.59999e-06 0.100327)
(2.5935e-06 2.16352e-06 0.100327)
(1.44639e-08 -4.61764e-06 0.10056)
(5.97535e-07 3.99635e-06 0.0988463)
(2.43877e-08 4.55083e-06 0.100559)
(-5.88813e-07 -3.85573e-06 0.0988471)
(-8.64761e-07 8.34549e-07 0.0943665)
(7.92564e-07 -1.01866e-06 0.0943668)
(-4.63734e-06 -9.70554e-09 0.10056)
(3.96402e-06 5.25712e-07 0.0988461)
(4.56538e-06 1.26572e-08 0.100559)
(-3.88947e-06 -5.86056e-07 0.0988469)
(2.60098e-07 -2.57607e-07 0.100771)
(-2.57776e-07 2.61357e-07 0.100771)
(2.60195e-07 2.57865e-07 0.100771)
(-2.58373e-07 -2.58934e-07 0.100771)
(2.60674e-07 -2.57929e-07 0.100771)
(-2.58915e-07 2.60563e-07 0.100771)
(2.59597e-07 2.5791e-07 0.100771)
(8.77657e-06 -4.49601e-08 0.100747)
(-7.26197e-06 2.27184e-06 0.100608)
(-2.11024e-07 -1.00233e-07 0.100771)
(-1.80592e-07 3.23831e-07 0.100771)
(-8.84234e-06 4.34753e-08 0.100747)
(7.07198e-06 -2.32476e-06 0.100609)
(-2.12875e-07 -1.01999e-07 0.100771)
(9.74626e-07 -8.96808e-07 0.0943656)
(-9.36956e-07 8.23116e-07 0.0943666)
(-3.89767e-08 8.78395e-06 0.100747)
(-1.01745e-07 -2.11125e-07 0.100771)
(2.28176e-06 -7.28073e-06 0.100608)
(3.22654e-07 -1.73531e-07 0.100771)
(3.8771e-08 -8.84736e-06 0.100747)
(-1.02482e-07 -2.06134e-07 0.100771)
(-2.34388e-06 7.086e-06 0.100609)
(-2.19861e-06 -2.66348e-06 0.100327)
(-2.65631e-06 -2.19512e-06 0.100327)
(3.35372e-05 3.35554e-05 0.10077)
(2.16531e-06 2.59974e-06 0.100327)
(2.59301e-06 2.16211e-06 0.100327)
(-7.21242e-09 -4.61527e-06 0.10056)
(5.46976e-07 3.95361e-06 0.0988463)
(9.13744e-09 4.54562e-06 0.100559)
(-5.96893e-07 -3.86427e-06 0.098847)
(-9.46018e-07 1.01973e-06 0.0943665)
(8.54682e-07 -9.95665e-07 0.094367)
(-4.63755e-06 -1.17116e-08 0.10056)
(3.96626e-06 5.27976e-07 0.0988461)
(4.56555e-06 1.16383e-08 0.100559)
(-3.88865e-06 -5.86731e-07 0.0988469)
(2.6043e-07 -2.60299e-07 0.100771)
(-2.58992e-07 2.60185e-07 0.100771)
(2.58812e-07 2.58389e-07 0.100771)
(-2.60914e-07 -2.59455e-07 0.100771)
(2.60696e-07 -2.6065e-07 0.100771)
(-2.59104e-07 2.60117e-07 0.100771)
(2.5926e-07 2.58904e-07 0.100771)
(8.778e-06 -4.52951e-08 0.100747)
(-7.26233e-06 2.26556e-06 0.100608)
(-2.11421e-07 -1.01668e-07 0.100771)
(-1.75702e-07 3.24301e-07 0.100771)
(-8.84226e-06 4.28787e-08 0.100747)
(7.07129e-06 -2.32953e-06 0.100609)
(-2.10194e-07 -1.02027e-07 0.100771)
(9.73597e-07 -8.98068e-07 0.0943656)
(-9.38187e-07 8.2201e-07 0.0943666)
(-3.92368e-08 8.78465e-06 0.100747)
(-1.0221e-07 -2.1263e-07 0.100771)
(2.2808e-06 -7.28048e-06 0.100608)
(3.22962e-07 -1.74714e-07 0.100771)
(3.84617e-08 -8.84718e-06 0.100747)
(-1.02689e-07 -2.07767e-07 0.100771)