/*--------------------------------*- C++ -*----------------------------------*\
| =========                 |                                                 |
| \\      /  F ield         | OpenFOAM: The Open Source CFD Toolbox           |
|  \\    /   O peration     | Version:  2206                                  |
|   \\  /    A nd           | Website:  www.openfoam.com                      |
|    \\/     M anipulation  |                                                 |
\*---------------------------------------------------------------------------*/
FoamFile
{
    version     2.0;
    format      ascii;
    arch        "LSB;label=32;scalar=64";
    class       volScalarField;
    location    "11";
    object      k;
}
// * * * * * * * * * * * * * * * * * * * * * * * * * * * * * * * * * * * * * //

dimensions      [0 2 -2 0 0 0 0];

internalField   nonuniform List<scalar> 
28448
(
3.2359e-05
3.22986e-05
3.22983e-05
3.22021e-05
3.23589e-05
3.22985e-05
3.2298e-05
3.22019e-05
3.23538e-05
3.22925e-05
3.22901e-05
3.21928e-05
3.23486e-05
3.22875e-05
3.22875e-05
3.21908e-05
3.23485e-05
3.22875e-05
3.22875e-05
3.21908e-05
3.23485e-05
3.22876e-05
3.22875e-05
3.21908e-05
3.23485e-05
3.22876e-05
3.22875e-05
3.21908e-05
3.23485e-05
3.22876e-05
3.22875e-05
3.21908e-05
3.23485e-05
3.22876e-05
3.22875e-05
3.21908e-05
3.23485e-05
3.22876e-05
3.22875e-05
3.21908e-05
3.23485e-05
3.22876e-05
3.22875e-05
3.21908e-05
3.23485e-05
3.22876e-05
3.22875e-05
3.21908e-05
3.23485e-05
3.22876e-05
3.22875e-05
3.21908e-05
3.23485e-05
3.22876e-05
3.22875e-05
3.21908e-05
3.23485e-05
3.22876e-05
3.22875e-05
3.21908e-05
3.23485e-05
3.22876e-05
3.22875e-05
3.21908e-05
3.23485e-05
3.22876e-05
3.22875e-05
3.21908e-05
3.23491e-05
3.2288e-05
3.22031e-05
3.22984e-05
3.22984e-05
3.22031e-05
3.22984e-05
3.22982e-05
3.22986e-05
3.22983e-05
3.2203e-05
3.22983e-05
3.22983e-05
3.22029e-05
3.22026e-05
3.2203e-05
3.22984e-05
3.22984e-05
3.22983e-05
3.22983e-05
3.22026e-05
3.2203e-05
3.22984e-05
3.22985e-05
3.22984e-05
3.22983e-05
3.22985e-05
3.22986e-05
3.22983e-05
3.22024e-05
3.22026e-05
3.22986e-05
3.22981e-05
3.22984e-05
3.22028e-05
3.22024e-05
3.22003e-05
3.22983e-05
3.22982e-05
3.22963e-05
3.22962e-05
3.22023e-05
3.22004e-05
3.22983e-05
3.22981e-05
3.22963e-05
3.2293e-05
3.22982e-05
3.22959e-05
3.22931e-05
3.2202e-05
3.21963e-05
3.22982e-05
3.2293e-05
3.22931e-05
3.21963e-05
3.21972e-05
3.21917e-05
3.2293e-05
3.2293e-05
3.22877e-05
3.22877e-05
3.21972e-05
3.21917e-05
3.2293e-05
3.22902e-05
3.22877e-05
3.22874e-05
3.22902e-05
3.22877e-05
3.22875e-05
3.2193e-05
3.21917e-05
3.22902e-05
3.22875e-05
3.22875e-05
3.21916e-05
3.21912e-05
3.21918e-05
3.22877e-05
3.22877e-05
3.22875e-05
3.22875e-05
3.21911e-05
3.21918e-05
3.22877e-05
3.22876e-05
3.22875e-05
3.22875e-05
3.22876e-05
3.22876e-05
3.22875e-05
3.21911e-05
3.21917e-05
3.22876e-05
3.22876e-05
3.22875e-05
3.21916e-05
3.21912e-05
3.21918e-05
3.22876e-05
3.22876e-05
3.22875e-05
3.22875e-05
3.21911e-05
3.21918e-05
3.22877e-05
3.22876e-05
3.22876e-05
3.22875e-05
3.22876e-05
3.22876e-05
3.22875e-05
3.21911e-05
3.21917e-05
3.22877e-05
3.22876e-05
3.22875e-05
3.21916e-05
3.21912e-05
3.21918e-05
3.22876e-05
3.22876e-05
3.22875e-05
3.22875e-05
3.21912e-05
3.21918e-05
3.22877e-05
3.22876e-05
3.22875e-05
3.22875e-05
3.22876e-05
3.22876e-05
3.22875e-05
3.21911e-05
3.21917e-05
3.22877e-05
3.22876e-05
3.22875e-05
3.21916e-05
3.21912e-05
3.21918e-05
3.22876e-05
3.22876e-05
3.22875e-05
3.22875e-05
3.21912e-05
3.21918e-05
3.22877e-05
3.22876e-05
3.22875e-05
3.22875e-05
3.22876e-05
3.22876e-05
3.22875e-05
3.21911e-05
3.21917e-05
3.22877e-05
3.22876e-05
3.22875e-05
3.21916e-05
3.21912e-05
3.21918e-05
3.22876e-05
3.22876e-05
3.22875e-05
3.22875e-05
3.21912e-05
3.21918e-05
3.22877e-05
3.22876e-05
3.22875e-05
3.22875e-05
3.22877e-05
3.22876e-05
3.22875e-05
3.21911e-05
3.21917e-05
3.22877e-05
3.22876e-05
3.22875e-05
3.21916e-05
3.21912e-05
3.21918e-05
3.22876e-05
3.22876e-05
3.22875e-05
3.22875e-05
3.21912e-05
3.21918e-05
3.22877e-05
3.22876e-05
3.22876e-05
3.22875e-05
3.22877e-05
3.22876e-05
3.22875e-05
3.21911e-05
3.21917e-05
3.22877e-05
3.22876e-05
3.22875e-05
3.21916e-05
3.21912e-05
3.21918e-05
3.22876e-05
3.22876e-05
3.22875e-05
3.22875e-05
3.21912e-05
3.21918e-05
3.22877e-05
3.22876e-05
3.22875e-05
3.22875e-05
3.22877e-05
3.22876e-05
3.22875e-05
3.21911e-05
3.21917e-05
3.22877e-05
3.22876e-05
3.22875e-05
3.21916e-05
3.21912e-05
3.21918e-05
3.22876e-05
3.22876e-05
3.22875e-05
3.22875e-05
3.21912e-05
3.21918e-05
3.22877e-05
3.22876e-05
3.22875e-05
3.22875e-05
3.22876e-05
3.22876e-05
3.22875e-05
3.21911e-05
3.21917e-05
3.22877e-05
3.22876e-05
3.22875e-05
3.21916e-05
3.21912e-05
3.21918e-05
3.22876e-05
3.22876e-05
3.22875e-05
3.22875e-05
3.21912e-05
3.21918e-05
3.22877e-05
3.22876e-05
3.22875e-05
3.22875e-05
3.22876e-05
3.22876e-05
3.22875e-05
3.21911e-05
3.21917e-05
3.22877e-05
3.22876e-05
3.22875e-05
3.21916e-05
3.21912e-05
3.21918e-05
3.22876e-05
3.22876e-05
3.22875e-05
3.22875e-05
3.21912e-05
3.21918e-05
3.22877e-05
3.22876e-05
3.22875e-05
3.22875e-05
3.22876e-05
3.22876e-05
3.22875e-05
3.21911e-05
3.21917e-05
3.22877e-05
3.22876e-05
3.22875e-05
3.21916e-05
3.21912e-05
3.21918e-05
3.22876e-05
3.22876e-05
3.22875e-05
3.22875e-05
3.21912e-05
3.21918e-05
3.22877e-05
3.22876e-05
3.22875e-05
3.22875e-05
3.22877e-05
3.22876e-05
3.22875e-05
3.21911e-05
3.21917e-05
3.22877e-05
3.22876e-05
3.22875e-05
3.21916e-05
3.21912e-05
3.21918e-05
3.22876e-05
3.22876e-05
3.22875e-05
3.22875e-05
3.21912e-05
3.21918e-05
3.22877e-05
3.22876e-05
3.22875e-05
3.22875e-05
3.22877e-05
3.22876e-05
3.22875e-05
3.21911e-05
3.21917e-05
3.22877e-05
3.22876e-05
3.22875e-05
3.21916e-05
3.21912e-05
3.21918e-05
3.22876e-05
3.22876e-05
3.22875e-05
3.22875e-05
3.21912e-05
3.21918e-05
3.22877e-05
3.22876e-05
3.22875e-05
3.22875e-05
3.22877e-05
3.22876e-05
3.22875e-05
3.21911e-05
3.21917e-05
3.22877e-05
3.22876e-05
3.22875e-05
3.21916e-05
3.21912e-05
3.21918e-05
3.22876e-05
3.22876e-05
3.22877e-05
3.21912e-05
3.22877e-05
3.22876e-05
3.22876e-05
3.22875e-05
3.22876e-05
3.22878e-05
3.21911e-05
3.21917e-05
3.22877e-05
3.22876e-05
3.22878e-05
3.2192e-05
3.21923e-05
3.22878e-05
3.22877e-05
3.21911e-05
3.2359e-05
3.2359e-05
3.2359e-05
3.2359e-05
3.29555e-05
6.02643e-05
3.29553e-05
6.02616e-05
8.33853e-05
8.33784e-05
3.29567e-05
6.02659e-05
3.29564e-05
6.0263e-05
3.2359e-05
3.23592e-05
3.23592e-05
3.2359e-05
3.23589e-05
3.23589e-05
3.23589e-05
3.18775e-05
3.27253e-05
3.23418e-05
3.22988e-05
3.1877e-05
3.27248e-05
3.2342e-05
8.33805e-05
8.33737e-05
3.18775e-05
3.23418e-05
3.2725e-05
3.22983e-05
3.1877e-05
3.23418e-05
3.27246e-05
3.39957e-05
3.39959e-05
3.2203e-05
3.39975e-05
3.39976e-05
3.29565e-05
6.02624e-05
3.29573e-05
6.02608e-05
8.33741e-05
8.33716e-05
3.29572e-05
6.02639e-05
3.29581e-05
6.02621e-05
3.23589e-05
3.23587e-05
3.23587e-05
3.23569e-05
3.23568e-05
3.2354e-05
3.2354e-05
3.18772e-05
3.2727e-05
3.23416e-05
3.22983e-05
3.18777e-05
3.27257e-05
3.23413e-05
8.3373e-05
8.33746e-05
3.1877e-05
3.23415e-05
3.27265e-05
3.22976e-05
3.18776e-05
3.23411e-05
3.27248e-05
3.40006e-05
3.40007e-05
3.22022e-05
3.39995e-05
3.39997e-05
3.2947e-05
6.02844e-05
3.29551e-05
6.02988e-05
8.3406e-05
8.34166e-05
3.29465e-05
6.02861e-05
3.29543e-05
6.03002e-05
3.23538e-05
3.23515e-05
3.23514e-05
3.23488e-05
3.23488e-05
3.23486e-05
3.23486e-05
3.18647e-05
3.27232e-05
3.23347e-05
3.229e-05
3.18678e-05
3.27162e-05
3.23329e-05
8.34171e-05
8.3416e-05
3.18646e-05
3.23339e-05
3.272e-05
3.22886e-05
3.18674e-05
3.23325e-05
3.27145e-05
3.39931e-05
3.39933e-05
3.2192e-05
3.39851e-05
3.39851e-05
3.29443e-05
6.03004e-05
3.29451e-05
6.02983e-05
8.34177e-05
8.34162e-05
3.29449e-05
6.03019e-05
3.29456e-05
6.02997e-05
3.23487e-05
3.23487e-05
3.23487e-05
3.23486e-05
3.23486e-05
3.23486e-05
3.23486e-05
3.18646e-05
3.27149e-05
3.23313e-05
3.22877e-05
3.18644e-05
3.27134e-05
3.23314e-05
8.34168e-05
8.34148e-05
3.18646e-05
3.23313e-05
3.27149e-05
3.22877e-05
3.18644e-05
3.23314e-05
3.27137e-05
3.39853e-05
3.39853e-05
3.21918e-05
3.39847e-05
3.39847e-05
3.29443e-05
6.03e-05
3.29451e-05
6.02981e-05
8.34176e-05
8.34161e-05
3.29449e-05
6.03015e-05
3.29456e-05
6.02996e-05
3.23487e-05
3.23487e-05
3.23487e-05
3.23485e-05
3.23486e-05
3.23486e-05
3.23486e-05
3.18646e-05
3.27147e-05
3.23313e-05
3.22877e-05
3.18644e-05
3.27134e-05
3.23314e-05
8.34166e-05
8.34147e-05
3.18645e-05
3.23313e-05
3.27148e-05
3.22877e-05
3.18643e-05
3.23314e-05
3.27137e-05
3.39853e-05
3.39853e-05
3.21918e-05
3.39847e-05
3.39848e-05
3.29443e-05
6.02999e-05
3.29451e-05
6.02981e-05
8.34176e-05
8.34161e-05
3.29449e-05
6.03015e-05
3.29456e-05
6.02996e-05
3.23487e-05
3.23487e-05
3.23487e-05
3.23485e-05
3.23486e-05
3.23486e-05
3.23486e-05
3.18646e-05
3.27147e-05
3.23313e-05
3.22877e-05
3.18644e-05
3.27134e-05
3.23314e-05
8.34166e-05
8.34147e-05
3.18646e-05
3.23313e-05
3.27148e-05
3.22877e-05
3.18644e-05
3.23314e-05
3.27137e-05
3.39852e-05
3.39853e-05
3.21918e-05
3.39847e-05
3.39848e-05
3.29443e-05
6.02999e-05
3.29451e-05
6.02981e-05
8.34176e-05
8.34161e-05
3.29449e-05
6.03015e-05
3.29456e-05
6.02996e-05
3.23487e-05
3.23487e-05
3.23487e-05
3.23485e-05
3.23486e-05
3.23486e-05
3.23486e-05
3.18646e-05
3.27147e-05
3.23313e-05
3.22877e-05
3.18644e-05
3.27134e-05
3.23314e-05
8.34166e-05
8.34147e-05
3.18646e-05
3.23313e-05
3.27148e-05
3.22877e-05
3.18644e-05
3.23314e-05
3.27137e-05
3.39852e-05
3.39853e-05
3.21918e-05
3.39847e-05
3.39848e-05
3.29443e-05
6.02999e-05
3.29451e-05
6.02981e-05
8.34176e-05
8.34161e-05
3.29449e-05
6.03015e-05
3.29456e-05
6.02996e-05
3.23487e-05
3.23487e-05
3.23487e-05
3.23485e-05
3.23486e-05
3.23486e-05
3.23486e-05
3.18646e-05
3.27147e-05
3.23313e-05
3.22877e-05
3.18644e-05
3.27134e-05
3.23314e-05
8.34166e-05
8.34147e-05
3.18646e-05
3.23313e-05
3.27148e-05
3.22877e-05
3.18644e-05
3.23314e-05
3.27137e-05
3.39852e-05
3.39853e-05
3.21918e-05
3.39847e-05
3.39848e-05
3.29443e-05
6.02999e-05
3.29451e-05
6.02981e-05
8.34176e-05
8.34161e-05
3.29449e-05
6.03015e-05
3.29456e-05
6.02996e-05
3.23487e-05
3.23487e-05
3.23487e-05
3.23485e-05
3.23486e-05
3.23486e-05
3.23486e-05
3.18646e-05
3.27147e-05
3.23313e-05
3.22877e-05
3.18644e-05
3.27134e-05
3.23314e-05
8.34166e-05
8.34147e-05
3.18646e-05
3.23313e-05
3.27148e-05
3.22877e-05
3.18644e-05
3.23314e-05
3.27137e-05
3.39852e-05
3.39853e-05
3.21918e-05
3.39847e-05
3.39848e-05
3.29443e-05
6.02999e-05
3.29451e-05
6.02981e-05
8.34176e-05
8.34161e-05
3.29449e-05
6.03015e-05
3.29456e-05
6.02996e-05
3.23487e-05
3.23487e-05
3.23487e-05
3.23485e-05
3.23486e-05
3.23486e-05
3.23486e-05
3.18646e-05
3.27147e-05
3.23313e-05
3.22877e-05
3.18644e-05
3.27134e-05
3.23314e-05
8.34166e-05
8.34147e-05
3.18646e-05
3.23313e-05
3.27148e-05
3.22877e-05
3.18644e-05
3.23314e-05
3.27137e-05
3.39852e-05
3.39853e-05
3.21918e-05
3.39847e-05
3.39848e-05
3.29443e-05
6.02999e-05
3.29451e-05
6.02981e-05
8.34176e-05
8.34161e-05
3.29449e-05
6.03015e-05
3.29456e-05
6.02996e-05
3.23487e-05
3.23487e-05
3.23487e-05
3.23485e-05
3.23486e-05
3.23486e-05
3.23486e-05
3.18646e-05
3.27147e-05
3.23313e-05
3.22877e-05
3.18644e-05
3.27134e-05
3.23314e-05
8.34166e-05
8.34147e-05
3.18645e-05
3.23313e-05
3.27148e-05
3.22877e-05
3.18643e-05
3.23314e-05
3.27137e-05
3.39852e-05
3.39853e-05
3.21918e-05
3.39847e-05
3.39848e-05
3.29443e-05
6.02999e-05
3.29451e-05
6.02981e-05
8.34176e-05
8.34161e-05
3.29449e-05
6.03015e-05
3.29456e-05
6.02996e-05
3.23487e-05
3.23487e-05
3.23487e-05
3.23485e-05
3.23486e-05
3.23486e-05
3.23486e-05
3.18646e-05
3.27147e-05
3.23313e-05
3.22877e-05
3.18644e-05
3.27134e-05
3.23314e-05
8.34166e-05
8.34147e-05
3.18644e-05
3.23313e-05
3.27148e-05
3.22877e-05
3.18642e-05
3.23314e-05
3.27137e-05
3.39852e-05
3.39853e-05
3.21918e-05
3.39847e-05
3.39848e-05
3.29443e-05
6.02999e-05
3.29451e-05
6.02981e-05
8.34176e-05
8.34161e-05
3.29449e-05
6.03015e-05
3.29456e-05
6.02996e-05
3.23487e-05
3.23487e-05
3.23487e-05
3.23485e-05
3.23486e-05
3.23486e-05
3.23486e-05
3.18646e-05
3.27147e-05
3.23313e-05
3.22877e-05
3.18644e-05
3.27134e-05
3.23314e-05
8.34166e-05
8.34147e-05
3.18644e-05
3.23313e-05
3.27148e-05
3.22877e-05
3.18642e-05
3.23314e-05
3.27137e-05
3.39852e-05
3.39853e-05
3.21918e-05
3.39847e-05
3.39847e-05
3.29443e-05
6.02999e-05
3.29451e-05
6.02981e-05
8.34176e-05
8.34161e-05
3.29449e-05
6.03015e-05
3.29456e-05
6.02996e-05
3.23487e-05
3.23487e-05
3.23487e-05
3.23485e-05
3.23486e-05
3.23486e-05
3.23486e-05
3.18646e-05
3.27147e-05
3.23313e-05
3.22877e-05
3.18644e-05
3.27134e-05
3.23314e-05
8.34166e-05
8.34147e-05
3.18643e-05
3.23313e-05
3.27148e-05
3.22877e-05
3.18642e-05
3.23314e-05
3.27137e-05
3.39852e-05
3.39853e-05
3.21918e-05
3.39847e-05
3.39847e-05
3.29443e-05
6.02999e-05
3.29451e-05
6.02981e-05
8.34176e-05
8.34161e-05
3.29449e-05
6.03015e-05
3.29456e-05
6.02996e-05
3.23487e-05
3.23487e-05
3.23487e-05
3.23485e-05
3.23486e-05
3.23486e-05
3.23486e-05
3.18646e-05
3.27147e-05
3.23313e-05
3.22877e-05
3.18644e-05
3.27134e-05
3.23314e-05
8.34166e-05
8.34147e-05
3.18643e-05
3.23313e-05
3.27148e-05
3.22877e-05
3.18641e-05
3.23314e-05
3.27137e-05
3.39852e-05
3.39853e-05
3.21918e-05
3.39847e-05
3.39848e-05
3.29443e-05
6.02999e-05
3.29451e-05
6.02981e-05
8.34176e-05
8.34161e-05
3.29449e-05
6.03015e-05
3.29456e-05
6.02996e-05
3.23487e-05
3.23487e-05
3.23487e-05
3.23485e-05
3.23486e-05
3.23486e-05
3.23486e-05
3.18646e-05
3.27147e-05
3.23313e-05
3.22877e-05
3.18644e-05
3.27134e-05
3.23314e-05
8.34166e-05
8.34147e-05
3.18643e-05
3.23313e-05
3.27148e-05
3.22877e-05
3.18641e-05
3.23314e-05
3.27137e-05
3.39852e-05
3.39853e-05
3.21918e-05
3.39847e-05
3.39848e-05
3.29443e-05
6.02999e-05
3.29451e-05
6.02981e-05
8.34175e-05
8.34161e-05
3.29449e-05
6.03015e-05
3.29456e-05
6.02996e-05
3.23487e-05
3.23487e-05
3.23487e-05
3.23487e-05
3.23491e-05
3.23486e-05
3.23488e-05
3.18646e-05
3.27147e-05
3.23313e-05
3.22876e-05
3.18644e-05
3.27134e-05
3.23314e-05
8.34166e-05
8.34146e-05
3.18643e-05
3.23313e-05
3.27148e-05
3.22877e-05
3.18641e-05
3.23314e-05
3.27137e-05
3.39852e-05
3.39853e-05
3.21918e-05
3.39847e-05
3.39847e-05
6.03015e-05
3.29456e-05
3.23489e-05
8.34165e-05
3.27154e-05
8.3385e-05
8.33869e-05
3.3992e-05
3.39919e-05
6.0263e-05
3.29542e-05
6.02651e-05
3.29542e-05
3.27235e-05
3.23419e-05
3.18774e-05
3.27239e-05
3.23419e-05
3.18774e-05
8.33861e-05
3.39919e-05
3.3989e-05
8.33813e-05
6.02645e-05
3.29554e-05
3.27239e-05
3.23421e-05
3.18787e-05
3.29546e-05
6.0266e-05
6.02684e-05
3.29546e-05
3.18776e-05
3.22983e-05
3.23418e-05
3.27235e-05
3.23418e-05
3.27246e-05
3.18775e-05
3.18774e-05
3.27239e-05
3.23418e-05
3.23418e-05
3.1877e-05
3.29546e-05
6.02638e-05
3.29545e-05
3.18775e-05
3.22983e-05
3.23418e-05
3.27235e-05
3.23419e-05
3.27245e-05
3.18773e-05
3.29545e-05
6.02661e-05
6.02683e-05
3.29544e-05
8.33802e-05
8.33929e-05
3.22021e-05
3.39921e-05
3.39939e-05
3.399e-05
3.39915e-05
8.33827e-05
8.33931e-05
3.18774e-05
3.22983e-05
3.23418e-05
3.27236e-05
3.23418e-05
3.27246e-05
3.1877e-05
3.18775e-05
3.22984e-05
3.23418e-05
3.27237e-05
3.23418e-05
3.27247e-05
3.18773e-05
3.29546e-05
6.02665e-05
6.02687e-05
3.29544e-05
3.29545e-05
6.02672e-05
6.02695e-05
3.29544e-05
3.22023e-05
3.3994e-05
3.39941e-05
3.39916e-05
3.39917e-05
8.33829e-05
8.33934e-05
8.33838e-05
8.33944e-05
8.33841e-05
8.33769e-05
8.3386e-05
8.33788e-05
3.39941e-05
3.39941e-05
3.22031e-05
3.39962e-05
3.39962e-05
8.33723e-05
8.33765e-05
8.33742e-05
8.33784e-05
3.22025e-05
3.39992e-05
3.39991e-05
3.39979e-05
3.39979e-05
3.29555e-05
6.02656e-05
3.29558e-05
6.02641e-05
3.18777e-05
3.27253e-05
3.23419e-05
3.22984e-05
3.18777e-05
3.27244e-05
3.23419e-05
3.18776e-05
3.27258e-05
3.23419e-05
3.22984e-05
3.18777e-05
3.27249e-05
3.23419e-05
3.29569e-05
6.02609e-05
6.02616e-05
3.29564e-05
3.2957e-05
6.02632e-05
6.02642e-05
3.29565e-05
3.18783e-05
3.22984e-05
3.27252e-05
3.23418e-05
3.27263e-05
3.23418e-05
3.1878e-05
3.18782e-05
3.22984e-05
3.27257e-05
3.23417e-05
3.27268e-05
3.23418e-05
3.18781e-05
3.39943e-05
3.39919e-05
3.22031e-05
3.39962e-05
3.39936e-05
8.33812e-05
8.33732e-05
8.33738e-05
8.33781e-05
3.22025e-05
3.39993e-05
3.39967e-05
3.39982e-05
3.3996e-05
8.33687e-05
8.33732e-05
3.18789e-05
3.27259e-05
3.23421e-05
3.22984e-05
3.18792e-05
3.27249e-05
3.23421e-05
3.29558e-05
6.02662e-05
3.2956e-05
6.02648e-05
3.18781e-05
3.23421e-05
3.27255e-05
3.22985e-05
3.18781e-05
3.2342e-05
3.27245e-05
3.2958e-05
6.02622e-05
6.02632e-05
3.29574e-05
3.18788e-05
3.22984e-05
3.27257e-05
3.23419e-05
3.27269e-05
3.2342e-05
3.18786e-05
3.2957e-05
6.02645e-05
6.02651e-05
3.29565e-05
3.18786e-05
3.22984e-05
3.23418e-05
3.27253e-05
3.23419e-05
3.27265e-05
3.18784e-05
3.29555e-05
6.02644e-05
3.2956e-05
6.02629e-05
3.18777e-05
3.23421e-05
3.27254e-05
3.22985e-05
3.18779e-05
3.2342e-05
3.27245e-05
3.29554e-05
6.02661e-05
3.29559e-05
6.02649e-05
3.18781e-05
3.22987e-05
3.27256e-05
3.23417e-05
3.27268e-05
3.23418e-05
3.18778e-05
3.29569e-05
6.02619e-05
6.02631e-05
3.29562e-05
3.18782e-05
3.22984e-05
3.23418e-05
3.27252e-05
3.23419e-05
3.27264e-05
3.18779e-05
3.29568e-05
6.02644e-05
6.0265e-05
3.29561e-05
3.39944e-05
3.39957e-05
3.22028e-05
3.39957e-05
3.39974e-05
8.33822e-05
8.33767e-05
8.3371e-05
8.33741e-05
3.22021e-05
3.39981e-05
3.39997e-05
3.39977e-05
3.39988e-05
8.33737e-05
8.33766e-05
3.18777e-05
3.2342e-05
3.27256e-05
3.22985e-05
3.18779e-05
3.2342e-05
3.27247e-05
3.29555e-05
6.02665e-05
3.2956e-05
6.02653e-05
3.29555e-05
6.02673e-05
3.29558e-05
6.0266e-05
3.1878e-05
3.22982e-05
3.23416e-05
3.27253e-05
3.23417e-05
3.27264e-05
3.18777e-05
3.18782e-05
3.22985e-05
3.23418e-05
3.27255e-05
3.23419e-05
3.27266e-05
3.18779e-05
3.29569e-05
6.02648e-05
6.02653e-05
3.29562e-05
3.29568e-05
6.02656e-05
6.02661e-05
3.29562e-05
8.33823e-05
8.33768e-05
8.33833e-05
8.33778e-05
3.22024e-05
3.39999e-05
3.4e-05
3.3999e-05
3.39991e-05
8.33739e-05
8.33768e-05
8.33749e-05
8.33778e-05
8.33723e-05
8.3371e-05
8.33742e-05
8.3373e-05
3.40006e-05
3.40005e-05
3.22027e-05
3.40005e-05
3.40003e-05
8.33876e-05
8.33717e-05
8.33902e-05
8.33737e-05
3.22019e-05
3.39992e-05
3.3999e-05
3.40011e-05
3.40009e-05
3.29566e-05
6.02634e-05
3.29578e-05
6.02632e-05
3.1878e-05
3.2727e-05
3.23417e-05
3.22981e-05
3.18784e-05
3.27255e-05
3.23415e-05
3.18781e-05
3.27275e-05
3.23417e-05
3.22981e-05
3.18786e-05
3.2726e-05
3.23415e-05
3.29575e-05
6.0271e-05
6.02613e-05
3.29549e-05
3.29576e-05
6.02711e-05
6.02636e-05
3.29548e-05
3.18778e-05
3.22976e-05
3.27238e-05
3.23398e-05
3.2727e-05
3.23411e-05
3.18757e-05
3.18779e-05
3.22976e-05
3.27241e-05
3.23397e-05
3.27274e-05
3.23411e-05
3.18757e-05
3.40008e-05
3.39986e-05
3.22026e-05
3.40004e-05
3.39983e-05
8.33691e-05
8.3368e-05
8.33895e-05
8.33725e-05
3.22018e-05
3.3999e-05
3.39965e-05
3.40011e-05
3.39992e-05
8.33845e-05
8.33695e-05
3.18781e-05
3.27276e-05
3.23419e-05
3.22981e-05
3.18785e-05
3.27259e-05
3.23417e-05
3.29561e-05
6.02649e-05
3.29576e-05
6.02661e-05
3.18776e-05
3.23417e-05
3.27271e-05
3.22977e-05
3.18783e-05
3.23413e-05
3.27248e-05
3.2958e-05
6.02726e-05
6.02628e-05
3.29547e-05
3.18779e-05
3.22977e-05
3.27241e-05
3.23394e-05
3.27275e-05
3.23411e-05
3.18744e-05
3.29569e-05
6.02907e-05
6.02687e-05
3.29531e-05
3.18772e-05
3.22963e-05
3.23372e-05
3.27205e-05
3.23402e-05
3.27261e-05
3.18719e-05
3.29556e-05
6.02623e-05
3.29574e-05
6.02619e-05
3.1877e-05
3.23416e-05
3.27269e-05
3.22977e-05
3.18778e-05
3.23412e-05
3.27247e-05
3.29554e-05
6.02646e-05
3.29572e-05
6.02658e-05
3.18767e-05
3.22976e-05
3.27229e-05
3.23376e-05
3.27272e-05
3.23403e-05
3.18705e-05
3.29564e-05
6.02702e-05
6.02624e-05
3.29519e-05
3.18766e-05
3.22964e-05
3.23368e-05
3.27202e-05
3.23399e-05
3.27259e-05
3.18701e-05
3.29562e-05
6.02909e-05
6.0268e-05
3.29515e-05
3.39993e-05
3.40007e-05
3.2202e-05
3.39979e-05
3.39995e-05
8.33738e-05
8.33758e-05
8.34095e-05
8.33819e-05
3.22006e-05
3.39939e-05
3.39947e-05
3.39986e-05
3.4e-05
8.34107e-05
8.33813e-05
3.1877e-05
3.23416e-05
3.27271e-05
3.22977e-05
3.18778e-05
3.23412e-05
3.2725e-05
3.29555e-05
6.02649e-05
3.29573e-05
6.02661e-05
3.29555e-05
6.02658e-05
3.29572e-05
6.0267e-05
3.18765e-05
3.22963e-05
3.23367e-05
3.27204e-05
3.23398e-05
3.2726e-05
3.18701e-05
3.18765e-05
3.22964e-05
3.23367e-05
3.27206e-05
3.23398e-05
3.27261e-05
3.187e-05
3.29563e-05
6.02915e-05
6.02683e-05
3.29516e-05
3.29561e-05
6.02925e-05
6.02692e-05
3.29516e-05
8.3374e-05
8.33762e-05
8.3375e-05
8.33772e-05
3.22009e-05
3.39948e-05
3.3995e-05
3.4e-05
3.40002e-05
8.34112e-05
8.3382e-05
8.34123e-05
8.33831e-05
8.34036e-05
8.34163e-05
8.34061e-05
8.34181e-05
3.39988e-05
3.39986e-05
3.2193e-05
3.39882e-05
3.39881e-05
8.34159e-05
8.34167e-05
8.34178e-05
8.34186e-05
3.21915e-05
3.39846e-05
3.39845e-05
3.39872e-05
3.39871e-05
3.29471e-05
6.02839e-05
3.29551e-05
6.03002e-05
3.18658e-05
3.27243e-05
3.23367e-05
3.22903e-05
3.18735e-05
3.27164e-05
3.23341e-05
3.18658e-05
3.27246e-05
3.23366e-05
3.22903e-05
3.18735e-05
3.27167e-05
3.23341e-05
3.2947e-05
6.02989e-05
6.02994e-05
3.29444e-05
3.29471e-05
6.03006e-05
6.03014e-05
3.29445e-05
3.18653e-05
3.22885e-05
3.27139e-05
3.23315e-05
3.27168e-05
3.23323e-05
3.18647e-05
3.18653e-05
3.22885e-05
3.27143e-05
3.23315e-05
3.27172e-05
3.23323e-05
3.18648e-05
3.39989e-05
3.3997e-05
3.2193e-05
3.39884e-05
3.39871e-05
8.34013e-05
8.34129e-05
8.34163e-05
8.34168e-05
3.21915e-05
3.39845e-05
3.39816e-05
3.39875e-05
3.39866e-05
8.34125e-05
8.34141e-05
3.18654e-05
3.27249e-05
3.23362e-05
3.22903e-05
3.18719e-05
3.27169e-05
3.23338e-05
3.29452e-05
6.03004e-05
3.29522e-05
6.03018e-05
3.18649e-05
3.23344e-05
3.27207e-05
3.22887e-05
3.18694e-05
3.23327e-05
3.27145e-05
3.29467e-05
6.03003e-05
6.03011e-05
3.2945e-05
3.18654e-05
3.22885e-05
3.27142e-05
3.23315e-05
3.27174e-05
3.23322e-05
3.18649e-05
3.29459e-05
6.0301e-05
6.03021e-05
3.29446e-05
3.18651e-05
3.22877e-05
3.23313e-05
3.27136e-05
3.23316e-05
3.27159e-05
3.18648e-05
3.29447e-05
6.0283e-05
3.29512e-05
6.0299e-05
3.18647e-05
3.23341e-05
3.272e-05
3.22887e-05
3.18678e-05
3.23326e-05
3.27146e-05
3.29446e-05
6.03001e-05
3.29509e-05
6.03015e-05
3.1865e-05
3.22885e-05
3.27137e-05
3.23314e-05
3.27169e-05
3.23318e-05
3.18644e-05
3.29456e-05
6.02995e-05
6.03007e-05
3.29443e-05
3.1865e-05
3.22877e-05
3.23313e-05
3.27136e-05
3.23316e-05
3.27158e-05
3.18647e-05
3.29455e-05
6.03011e-05
6.03016e-05
3.29442e-05
3.39928e-05
3.3993e-05
3.21918e-05
3.39831e-05
3.39848e-05
8.34171e-05
8.34173e-05
8.3415e-05
8.34166e-05
3.21911e-05
3.39824e-05
3.39845e-05
3.39836e-05
3.39854e-05
8.34168e-05
8.34174e-05
3.18647e-05
3.2334e-05
3.27203e-05
3.22887e-05
3.18677e-05
3.23325e-05
3.27148e-05
3.29447e-05
6.03005e-05
3.2951e-05
6.03019e-05
3.29448e-05
6.03015e-05
3.29506e-05
6.03028e-05
3.18649e-05
3.22878e-05
3.23313e-05
3.27138e-05
3.23316e-05
3.27158e-05
3.18644e-05
3.1865e-05
3.22878e-05
3.23313e-05
3.27139e-05
3.23315e-05
3.2716e-05
3.18647e-05
3.29456e-05
6.03014e-05
6.0302e-05
3.29443e-05
3.29456e-05
6.03023e-05
6.03029e-05
3.29444e-05
8.34174e-05
8.34174e-05
8.34185e-05
8.34184e-05
3.21912e-05
3.39847e-05
3.39848e-05
3.39857e-05
3.39857e-05
8.3417e-05
8.34176e-05
8.34179e-05
8.34186e-05
8.34161e-05
8.34154e-05
8.34179e-05
8.34172e-05
3.39854e-05
3.39853e-05
3.21917e-05
3.39846e-05
3.39845e-05
8.34152e-05
8.34156e-05
8.34171e-05
8.34175e-05
3.21911e-05
3.39845e-05
3.39846e-05
3.39854e-05
3.39854e-05
3.29444e-05
6.03008e-05
3.29456e-05
6.03004e-05
3.18647e-05
3.27154e-05
3.23315e-05
3.22876e-05
3.1865e-05
3.27136e-05
3.23314e-05
3.18648e-05
3.27158e-05
3.23315e-05
3.22876e-05
3.18651e-05
3.2714e-05
3.23314e-05
3.29455e-05
6.02983e-05
6.02984e-05
3.29443e-05
3.29456e-05
6.03003e-05
6.03006e-05
3.29444e-05
3.1865e-05
3.22875e-05
3.27135e-05
3.23313e-05
3.27152e-05
3.23313e-05
3.18647e-05
3.18651e-05
3.22875e-05
3.2714e-05
3.23313e-05
3.27157e-05
3.23313e-05
3.18647e-05
3.39854e-05
3.39825e-05
3.21917e-05
3.39845e-05
3.39813e-05
8.34133e-05
8.34122e-05
8.34161e-05
8.34163e-05
3.21911e-05
3.39845e-05
3.39817e-05
3.39854e-05
3.39824e-05
8.34122e-05
8.3413e-05
3.18649e-05
3.27159e-05
3.23315e-05
3.22877e-05
3.18652e-05
3.2714e-05
3.23314e-05
3.29445e-05
6.03014e-05
3.29456e-05
6.03008e-05
3.18648e-05
3.23314e-05
3.27153e-05
3.22876e-05
3.18651e-05
3.23314e-05
3.27135e-05
3.2946e-05
6.02998e-05
6.03001e-05
3.29449e-05
3.18652e-05
3.22875e-05
3.27139e-05
3.23313e-05
3.27157e-05
3.23313e-05
3.18649e-05
3.29456e-05
6.03007e-05
6.03011e-05
3.29445e-05
3.18651e-05
3.22875e-05
3.23313e-05
3.27135e-05
3.23314e-05
3.27153e-05
3.18648e-05
3.29443e-05
6.02998e-05
3.29455e-05
6.02991e-05
3.18647e-05
3.23314e-05
3.27152e-05
3.22876e-05
3.1865e-05
3.23314e-05
3.27136e-05
3.29442e-05
6.03012e-05
3.29454e-05
6.03008e-05
3.1865e-05
3.22877e-05
3.27134e-05
3.23313e-05
3.27152e-05
3.23314e-05
3.18644e-05
3.29455e-05
6.0299e-05
6.02995e-05
3.29443e-05
3.1865e-05
3.22876e-05
3.23313e-05
3.27135e-05
3.23314e-05
3.27152e-05
3.18647e-05
3.29454e-05
6.03007e-05
6.0301e-05
3.29442e-05
3.39835e-05
3.39854e-05
3.21916e-05
3.39826e-05
3.39845e-05
8.3417e-05
8.34165e-05
8.34147e-05
8.34156e-05
3.2191e-05
3.39825e-05
3.39845e-05
3.39836e-05
3.39854e-05
8.34164e-05
8.34168e-05
3.18647e-05
3.23314e-05
3.27155e-05
3.22876e-05
3.1865e-05
3.23314e-05
3.27138e-05
3.29443e-05
6.03016e-05
3.29455e-05
6.03012e-05
3.29444e-05
6.03024e-05
3.29454e-05
6.0302e-05
3.18649e-05
3.22877e-05
3.23313e-05
3.27137e-05
3.23314e-05
3.27153e-05
3.18644e-05
3.1865e-05
3.22876e-05
3.23313e-05
3.27138e-05
3.23314e-05
3.27154e-05
3.18647e-05
3.29455e-05
6.03011e-05
6.03014e-05
3.29442e-05
3.29455e-05
6.0302e-05
6.03022e-05
3.29444e-05
8.34172e-05
8.34167e-05
8.34182e-05
8.34177e-05
3.21911e-05
3.39847e-05
3.39848e-05
3.39855e-05
3.39856e-05
8.34166e-05
8.3417e-05
8.34176e-05
8.3418e-05
8.34155e-05
8.34152e-05
8.34174e-05
8.3417e-05
3.39854e-05
3.39854e-05
3.21917e-05
3.39845e-05
3.39846e-05
8.34152e-05
8.34155e-05
8.34171e-05
8.34174e-05
3.21911e-05
3.39845e-05
3.39845e-05
3.39854e-05
3.39854e-05
3.29444e-05
6.03005e-05
3.29456e-05
6.03003e-05
3.18647e-05
3.27152e-05
3.23314e-05
3.22876e-05
3.1865e-05
3.27135e-05
3.23314e-05
3.18648e-05
3.27157e-05
3.23314e-05
3.22876e-05
3.18651e-05
3.2714e-05
3.23314e-05
3.29456e-05
6.02982e-05
6.02983e-05
3.29443e-05
3.29456e-05
6.03003e-05
6.03005e-05
3.29444e-05
3.1865e-05
3.22876e-05
3.27135e-05
3.23313e-05
3.27152e-05
3.23314e-05
3.18647e-05
3.18651e-05
3.22876e-05
3.2714e-05
3.23313e-05
3.27157e-05
3.23313e-05
3.18647e-05
3.39854e-05
3.39829e-05
3.21917e-05
3.39846e-05
3.39818e-05
8.3413e-05
8.34122e-05
8.34161e-05
8.34163e-05
3.21911e-05
3.39845e-05
3.39816e-05
3.39855e-05
3.39828e-05
8.34122e-05
8.3413e-05
3.1865e-05
3.27157e-05
3.23314e-05
3.22877e-05
3.18652e-05
3.27139e-05
3.23314e-05
3.29445e-05
6.03011e-05
3.29456e-05
6.03007e-05
3.18648e-05
3.23314e-05
3.27153e-05
3.22876e-05
3.18651e-05
3.23314e-05
3.27135e-05
3.2946e-05
6.02998e-05
6.03e-05
3.29449e-05
3.18653e-05
3.22876e-05
3.27139e-05
3.23313e-05
3.27157e-05
3.23314e-05
3.18649e-05
3.29456e-05
6.03007e-05
6.03011e-05
3.29445e-05
3.18651e-05
3.22875e-05
3.23313e-05
3.27135e-05
3.23313e-05
3.27153e-05
3.18648e-05
3.29443e-05
6.02994e-05
3.29455e-05
6.02989e-05
3.18647e-05
3.23314e-05
3.27152e-05
3.22876e-05
3.1865e-05
3.23314e-05
3.27136e-05
3.29442e-05
6.03009e-05
3.29454e-05
6.03007e-05
3.1865e-05
3.22877e-05
3.27134e-05
3.23313e-05
3.27152e-05
3.23314e-05
3.18645e-05
3.29455e-05
6.0299e-05
6.02993e-05
3.29443e-05
3.1865e-05
3.22876e-05
3.23313e-05
3.27135e-05
3.23313e-05
3.27152e-05
3.18647e-05
3.29455e-05
6.03007e-05
6.03009e-05
3.29442e-05
3.39835e-05
3.39854e-05
3.21916e-05
3.39825e-05
3.39846e-05
8.34167e-05
8.34163e-05
8.34147e-05
8.34155e-05
3.2191e-05
3.39825e-05
3.39846e-05
3.39835e-05
3.39854e-05
8.34163e-05
8.34166e-05
3.18647e-05
3.23314e-05
3.27154e-05
3.22877e-05
3.1865e-05
3.23314e-05
3.27138e-05
3.29443e-05
6.03013e-05
3.29455e-05
6.03011e-05
3.29443e-05
6.03021e-05
3.29454e-05
6.03019e-05
3.18649e-05
3.22877e-05
3.23313e-05
3.27137e-05
3.23314e-05
3.27153e-05
3.18644e-05
3.1865e-05
3.22876e-05
3.23313e-05
3.27138e-05
3.23313e-05
3.27154e-05
3.18647e-05
3.29455e-05
6.03011e-05
6.03013e-05
3.29443e-05
3.29454e-05
6.03019e-05
6.03021e-05
3.29444e-05
8.34169e-05
8.34165e-05
8.34179e-05
8.34175e-05
3.21912e-05
3.39847e-05
3.39848e-05
3.39855e-05
3.39856e-05
8.34166e-05
8.34169e-05
8.34175e-05
8.34178e-05
8.34155e-05
8.34151e-05
8.34174e-05
8.3417e-05
3.39854e-05
3.39854e-05
3.21917e-05
3.39846e-05
3.39845e-05
8.34152e-05
8.34155e-05
8.34171e-05
8.34173e-05
3.21911e-05
3.39846e-05
3.39845e-05
3.39854e-05
3.39854e-05
3.29444e-05
6.03005e-05
3.29456e-05
6.03003e-05
3.18647e-05
3.27152e-05
3.23314e-05
3.22876e-05
3.1865e-05
3.27135e-05
3.23314e-05
3.18648e-05
3.27157e-05
3.23314e-05
3.22876e-05
3.18651e-05
3.2714e-05
3.23314e-05
3.29456e-05
6.02982e-05
6.02983e-05
3.29443e-05
3.29456e-05
6.03003e-05
6.03005e-05
3.29444e-05
3.1865e-05
3.22876e-05
3.27135e-05
3.23313e-05
3.27152e-05
3.23314e-05
3.18647e-05
3.1865e-05
3.22876e-05
3.2714e-05
3.23313e-05
3.27157e-05
3.23313e-05
3.18647e-05
3.39854e-05
3.39826e-05
3.21917e-05
3.39845e-05
3.39817e-05
8.3413e-05
8.34122e-05
8.34161e-05
8.34163e-05
3.21911e-05
3.39845e-05
3.39816e-05
3.39855e-05
3.39828e-05
8.34122e-05
8.3413e-05
3.1865e-05
3.27157e-05
3.23314e-05
3.22877e-05
3.18653e-05
3.27139e-05
3.23314e-05
3.29445e-05
6.03011e-05
3.29456e-05
6.03007e-05
3.18648e-05
3.23314e-05
3.27153e-05
3.22876e-05
3.18651e-05
3.23314e-05
3.27135e-05
3.2946e-05
6.02997e-05
6.03e-05
3.29449e-05
3.18653e-05
3.22876e-05
3.27139e-05
3.23313e-05
3.27157e-05
3.23314e-05
3.18649e-05
3.29456e-05
6.03007e-05
6.03011e-05
3.29445e-05
3.18651e-05
3.22875e-05
3.23313e-05
3.27135e-05
3.23313e-05
3.27153e-05
3.18648e-05
3.29443e-05
6.02994e-05
3.29455e-05
6.02989e-05
3.18647e-05
3.23314e-05
3.27152e-05
3.22876e-05
3.1865e-05
3.23314e-05
3.27136e-05
3.29442e-05
6.03009e-05
3.29454e-05
6.03007e-05
3.1865e-05
3.22877e-05
3.27134e-05
3.23313e-05
3.27152e-05
3.23314e-05
3.18645e-05
3.29456e-05
6.02989e-05
6.02993e-05
3.29443e-05
3.1865e-05
3.22876e-05
3.23313e-05
3.27135e-05
3.23314e-05
3.27152e-05
3.18647e-05
3.29455e-05
6.03007e-05
6.03009e-05
3.29442e-05
3.39835e-05
3.39854e-05
3.21916e-05
3.39825e-05
3.39846e-05
8.34166e-05
8.34163e-05
8.34147e-05
8.34155e-05
3.2191e-05
3.39825e-05
3.39845e-05
3.39835e-05
3.39854e-05
8.34164e-05
8.34166e-05