/*--------------------------------*- C++ -*----------------------------------*\
| =========                 |                                                 |
| \\      /  F ield         | OpenFOAM: The Open Source CFD Toolbox           |
|  \\    /   O peration     | Version:  2206                                  |
|   \\  /    A nd           | Website:  www.openfoam.com                      |
|    \\/     M anipulation  |                                                 |
\*---------------------------------------------------------------------------*/
FoamFile
{
    version     2.0;
    format      ascii;
    arch        "LSB;label=32;scalar=64";
    class       volVectorField;
    location    "11";
    object      U;
}
// * * * * * * * * * * * * * * * * * * * * * * * * * * * * * * * * * * * * * //

dimensions      [0 1 -1 0 0 0 0];

internalField   nonuniform List<vector> 
28448
(
(-4.29932e-07 -4.26072e-07 0.101368)
(-2.28158e-07 4.33669e-07 0.101363)
(4.27004e-07 -2.22909e-07 0.101363)
(-3.6294e-05 -3.63027e-05 0.101354)
(-4.44235e-07 -4.70949e-07 0.101368)
(-2.07372e-07 3.70283e-07 0.101363)
(4.46337e-07 -2.62504e-07 0.101362)
(-3.62528e-05 -3.62762e-05 0.101354)
(-3.48117e-07 -3.43163e-07 0.101368)
(-3.40813e-07 5.00051e-07 0.101363)
(4.7332e-07 -3.1927e-07 0.101363)
(-3.64113e-05 -3.64217e-05 0.101354)
(-3.99877e-07 -3.94496e-07 0.101368)
(-2.76017e-07 4.59989e-07 0.101363)
(4.5587e-07 -2.64863e-07 0.101363)
(-3.63568e-05 -3.63571e-05 0.101354)
(-4.04785e-07 -4.02513e-07 0.101368)
(-2.71877e-07 4.5304e-07 0.101363)
(4.5857e-07 -2.53559e-07 0.101363)
(-3.63555e-05 -3.63495e-05 0.101354)
(-4.05089e-07 -4.05303e-07 0.101368)
(-2.73423e-07 4.51649e-07 0.101363)
(4.54586e-07 -2.65368e-07 0.101363)
(-3.63548e-05 -3.63563e-05 0.101354)
(-4.05217e-07 -4.07094e-07 0.101368)
(-2.73458e-07 4.49953e-07 0.101363)
(4.51772e-07 -2.68844e-07 0.101363)
(-3.63515e-05 -3.63606e-05 0.101354)
(-4.04705e-07 -4.07057e-07 0.101368)
(-2.7393e-07 4.4995e-07 0.101363)
(4.51919e-07 -2.69745e-07 0.101363)
(-3.63517e-05 -3.63615e-05 0.101354)
(-4.05102e-07 -4.07179e-07 0.101368)
(-2.74164e-07 4.50011e-07 0.101363)
(4.51302e-07 -2.69222e-07 0.101363)
(-3.63514e-05 -3.63611e-05 0.101354)
(-4.05617e-07 -4.07744e-07 0.101368)
(-2.73977e-07 4.49668e-07 0.101363)
(4.51386e-07 -2.6923e-07 0.101363)
(-3.63515e-05 -3.63611e-05 0.101354)
(-4.05634e-07 -4.07899e-07 0.101368)
(-2.729e-07 4.49002e-07 0.101363)
(4.51019e-07 -2.6874e-07 0.101363)
(-3.63509e-05 -3.63603e-05 0.101354)
(-4.0599e-07 -4.07973e-07 0.101368)
(-2.72356e-07 4.487e-07 0.101363)
(4.50282e-07 -2.67771e-07 0.101363)
(-3.63503e-05 -3.63599e-05 0.101354)
(-4.05987e-07 -4.07838e-07 0.101368)
(-2.73331e-07 4.49218e-07 0.101363)
(4.50523e-07 -2.68392e-07 0.101363)
(-3.63511e-05 -3.63607e-05 0.101354)
(-4.05642e-07 -4.07965e-07 0.101368)
(-2.73283e-07 4.49227e-07 0.101363)
(4.51061e-07 -2.68955e-07 0.101363)
(-3.6351e-05 -3.63606e-05 0.101354)
(-4.04933e-07 -4.07589e-07 0.101368)
(-2.73493e-07 4.49695e-07 0.101363)
(4.51603e-07 -2.69315e-07 0.101363)
(-3.63513e-05 -3.63611e-05 0.101354)
(-4.04019e-07 -4.07335e-07 0.101368)
(-2.74608e-07 4.50007e-07 0.101363)
(4.52285e-07 -2.70012e-07 0.101363)
(-3.63511e-05 -3.63614e-05 0.101354)
(-4.03275e-07 -4.10412e-07 0.101368)
(-2.69959e-07 4.44677e-07 0.101363)
(4.53303e-07 -2.69629e-07 0.101363)
(-3.63449e-05 -3.6358e-05 0.101354)
(-4.10217e-07 -4.30365e-07 0.101368)
(4.48859e-07 -2.45355e-07 0.101363)
(-3.76504e-05 -3.76213e-05 0.101354)
(4.48987e-07 2.55189e-07 0.101363)
(-4.4816e-07 2.66297e-07 0.101363)
(3.76554e-05 -3.7624e-05 0.101354)
(2.42766e-07 4.44752e-07 0.101363)
(2.46726e-07 -4.34965e-07 0.101363)
(-2.37245e-07 4.4232e-07 0.101363)
(-2.51141e-07 -4.30484e-07 0.101363)
(-3.76331e-05 3.7668e-05 0.101354)
(4.29748e-07 -2.26843e-07 0.101363)
(-4.26396e-07 -2.42727e-07 0.101363)
(3.76353e-05 3.76612e-05 0.101354)
(3.63135e-05 3.62998e-05 0.101354)
(-3.76986e-05 -3.76866e-05 0.101354)
(4.38453e-07 2.46074e-07 0.101363)
(-4.39086e-07 2.52725e-07 0.101363)
(4.1102e-07 1.86205e-07 0.101363)
(-4.13293e-07 1.96964e-07 0.101363)
(-3.63093e-05 3.62876e-05 0.101354)
(3.77012e-05 -3.76904e-05 0.101354)
(2.33036e-07 4.36369e-07 0.101363)
(2.39149e-07 -4.32678e-07 0.101363)
(1.88848e-07 3.89133e-07 0.101363)
(1.8137e-07 -4.11127e-07 0.101363)
(-2.44766e-07 -4.28318e-07 0.101363)
(-1.80689e-07 3.87156e-07 0.101363)
(-1.88393e-07 -4.04082e-07 0.101363)
(3.62791e-05 -3.63107e-05 0.101354)
(-3.7727e-05 3.7744e-05 0.101354)
(-4.24313e-07 -2.37858e-07 0.101363)
(3.87769e-07 -1.77482e-07 0.101363)
(-3.87251e-07 -1.90852e-07 0.101363)
(3.77287e-05 3.77411e-05 0.101354)
(3.62623e-05 3.62303e-05 0.101354)
(-3.75445e-05 -3.75247e-05 0.101354)
(4.03221e-07 1.73208e-07 0.101363)
(-4.10932e-07 1.76564e-07 0.101363)
(5.2238e-07 3.72675e-07 0.101363)
(-5.25581e-07 3.80261e-07 0.101363)
(-3.62638e-05 3.62212e-05 0.101354)
(3.75455e-05 -3.75192e-05 0.101354)
(1.8895e-07 3.72094e-07 0.101363)
(2.49406e-07 -4.82409e-07 0.101362)
(3.73457e-07 5.08122e-07 0.101363)
(3.5523e-07 -5.06437e-07 0.101363)
(-2.64921e-07 -4.74535e-07 0.101362)
(-3.774e-07 5.11325e-07 0.101363)
(-3.67327e-07 -5.01926e-07 0.101363)
(3.62357e-05 -3.62866e-05 0.101354)
(-3.75556e-05 3.7583e-05 0.101354)
(-4.47702e-07 -2.74462e-07 0.101362)
(4.8786e-07 -3.49351e-07 0.101363)
(-4.8748e-07 -3.67305e-07 0.101363)
(3.75583e-05 3.75759e-05 0.101354)
(3.64576e-05 3.64441e-05 0.101354)
(-3.76448e-05 -3.76115e-05 0.101354)
(5.01353e-07 3.63497e-07 0.101363)
(-5.02329e-07 3.69333e-07 0.101363)
(4.67821e-07 2.99334e-07 0.101363)
(-4.66746e-07 3.10952e-07 0.101363)
(-3.64533e-05 3.64374e-05 0.101354)
(3.76502e-05 -3.76154e-05 0.101354)
(3.47915e-07 5.01003e-07 0.101363)
(3.35513e-07 -4.7862e-07 0.101363)
(2.84078e-07 4.67685e-07 0.101363)
(2.94838e-07 -4.56481e-07 0.101363)
(-3.41955e-07 -4.74964e-07 0.101363)
(-2.79756e-07 4.64104e-07 0.101363)
(-2.99396e-07 -4.51486e-07 0.101363)
(3.63961e-05 -3.6428e-05 0.101354)
(-3.76193e-05 3.76609e-05 0.101354)
(-4.72048e-07 -3.35272e-07 0.101363)
(4.57257e-07 -2.69483e-07 0.101363)
(-4.5406e-07 -2.868e-07 0.101363)
(3.76217e-05 3.76544e-05 0.101354)
(3.63628e-05 3.63533e-05 0.101354)
(-3.76544e-05 -3.76267e-05 0.101354)
(4.64046e-07 2.95018e-07 0.101363)
(-4.64915e-07 3.01997e-07 0.101363)
(4.6169e-07 2.80222e-07 0.101363)
(-4.62425e-07 2.91106e-07 0.101363)
(-3.6359e-05 3.63416e-05 0.101354)
(3.76564e-05 -3.76303e-05 0.101354)
(2.78929e-07 4.63927e-07 0.101363)
(2.90048e-07 -4.56151e-07 0.101363)
(2.70861e-07 4.56691e-07 0.101363)
(2.84717e-07 -4.52526e-07 0.101363)
(-2.95217e-07 -4.50382e-07 0.101363)
(-2.71141e-07 4.54279e-07 0.101363)
(-2.91306e-07 -4.47403e-07 0.101363)
(3.63417e-05 -3.63648e-05 0.101354)
(-3.76224e-05 3.76704e-05 0.101354)
(-4.5275e-07 -2.8114e-07 0.101363)
(4.56945e-07 -2.5121e-07 0.101363)
(-4.54062e-07 -2.70955e-07 0.101363)
(3.76235e-05 3.7663e-05 0.101354)
(3.63567e-05 3.63425e-05 0.101354)
(-3.76541e-05 -3.76282e-05 0.101354)
(4.60921e-07 2.84399e-07 0.101363)
(-4.62688e-07 2.90548e-07 0.101363)
(4.61805e-07 2.78483e-07 0.101363)
(-4.63325e-07 2.8973e-07 0.101363)
(-3.63552e-05 3.63306e-05 0.101354)
(3.76554e-05 -3.76309e-05 0.101354)
(2.72378e-07 4.56953e-07 0.101363)
(2.84428e-07 -4.53509e-07 0.101363)
(2.71074e-07 4.54496e-07 0.101363)
(2.82643e-07 -4.57515e-07 0.101363)
(-2.91457e-07 -4.47105e-07 0.101363)
(-2.7275e-07 4.52976e-07 0.101363)
(-2.90914e-07 -4.50959e-07 0.101363)
(3.63393e-05 -3.63572e-05 0.101354)
(-3.76256e-05 3.76641e-05 0.101354)
(-4.54782e-07 -2.6863e-07 0.101363)
(4.56374e-07 -2.59811e-07 0.101363)
(-4.54212e-07 -2.76614e-07 0.101363)
(3.76254e-05 3.76596e-05 0.101354)
(3.63574e-05 3.63415e-05 0.101354)
(-3.76541e-05 -3.76294e-05 0.101354)
(4.61094e-07 2.83125e-07 0.101363)
(-4.63605e-07 2.89506e-07 0.101363)
(4.61781e-07 2.77387e-07 0.101363)
(-4.63044e-07 2.88186e-07 0.101363)
(-3.63566e-05 3.63304e-05 0.101354)
(3.76557e-05 -3.76326e-05 0.101354)
(2.73038e-07 4.54929e-07 0.101363)
(2.82603e-07 -4.59311e-07 0.101363)
(2.71361e-07 4.52692e-07 0.101363)
(2.81085e-07 -4.61419e-07 0.101363)
(-2.90341e-07 -4.5222e-07 0.101363)
(-2.72583e-07 4.5065e-07 0.101363)
(-2.88741e-07 -4.55401e-07 0.101363)
(3.63374e-05 -3.63651e-05 0.101354)
(-3.76287e-05 3.76599e-05 0.101354)
(-4.52964e-07 -2.79842e-07 0.101363)
(4.51529e-07 -2.6681e-07 0.101363)
(-4.49353e-07 -2.85709e-07 0.101363)
(3.76295e-05 3.76544e-05 0.101354)
(3.63575e-05 3.63405e-05 0.101354)
(-3.76533e-05 -3.76292e-05 0.101354)
(4.6133e-07 2.82569e-07 0.101363)
(-4.63462e-07 2.88435e-07 0.101363)
(4.62635e-07 2.77972e-07 0.101363)
(-4.6365e-07 2.8891e-07 0.101363)
(-3.63564e-05 3.63291e-05 0.101354)
(3.76552e-05 -3.76325e-05 0.101354)
(2.73661e-07 4.53706e-07 0.101363)
(2.81566e-07 -4.62858e-07 0.101363)
(2.72709e-07 4.5285e-07 0.101363)
(2.8193e-07 -4.63124e-07 0.101363)
(-2.89038e-07 -4.56097e-07 0.101363)
(-2.73418e-07 4.50804e-07 0.101363)
(-2.88977e-07 -4.57092e-07 0.101363)
(3.6335e-05 -3.63691e-05 0.101354)
(-3.76282e-05 3.76582e-05 0.101354)
(-4.49475e-07 -2.8115e-07 0.101363)
(4.52048e-07 -2.68286e-07 0.101363)
(-4.49388e-07 -2.85614e-07 0.101363)
(3.76291e-05 3.76528e-05 0.101354)
(3.63583e-05 3.63409e-05 0.101354)
(-3.76535e-05 -3.76293e-05 0.101354)
(4.61867e-07 2.82977e-07 0.101363)
(-4.63812e-07 2.88814e-07 0.101363)
(4.62641e-07 2.78002e-07 0.101363)
(-4.63694e-07 2.88482e-07 0.101363)
(-3.63571e-05 3.63293e-05 0.101354)
(3.76549e-05 -3.76326e-05 0.101354)
(2.74575e-07 4.53712e-07 0.101363)
(2.82024e-07 -4.63976e-07 0.101363)
(2.72652e-07 4.52789e-07 0.101363)
(2.81101e-07 -4.62844e-07 0.101363)
(-2.88742e-07 -4.56806e-07 0.101363)
(-2.73497e-07 4.50383e-07 0.101363)
(-2.88553e-07 -4.56663e-07 0.101363)
(3.63354e-05 -3.63705e-05 0.101354)
(-3.7629e-05 3.76586e-05 0.101354)
(-4.49009e-07 -2.83731e-07 0.101363)
(4.51218e-07 -2.67911e-07 0.101363)
(-4.48946e-07 -2.83744e-07 0.101363)
(3.76292e-05 3.76531e-05 0.101354)
(3.63582e-05 3.63408e-05 0.101354)
(-3.76541e-05 -3.76301e-05 0.101354)
(4.61934e-07 2.82903e-07 0.101363)
(-4.64199e-07 2.88767e-07 0.101363)
(4.61934e-07 2.77172e-07 0.101363)
(-4.63519e-07 2.88125e-07 0.101363)
(-3.63574e-05 3.63292e-05 0.101354)
(3.76555e-05 -3.76329e-05 0.101354)
(2.74347e-07 4.53831e-07 0.101363)
(2.81346e-07 -4.6368e-07 0.101363)
(2.71958e-07 4.52082e-07 0.101363)
(2.80886e-07 -4.62596e-07 0.101363)
(-2.88675e-07 -4.567e-07 0.101363)
(-2.73415e-07 4.50319e-07 0.101363)
(-2.88726e-07 -4.56821e-07 0.101363)
(3.63345e-05 -3.637e-05 0.101354)
(-3.7629e-05 3.76591e-05 0.101354)
(-4.4901e-07 -2.84249e-07 0.101363)
(4.51223e-07 -2.67595e-07 0.101363)
(-4.49425e-07 -2.84029e-07 0.101363)
(3.76292e-05 3.76531e-05 0.101354)
(3.63575e-05 3.63399e-05 0.101354)
(-3.76544e-05 -3.76304e-05 0.101354)
(4.61307e-07 2.82237e-07 0.101363)
(-4.63804e-07 2.88121e-07 0.101363)
(4.61644e-07 2.76867e-07 0.101363)
(-4.62772e-07 2.87475e-07 0.101363)
(-3.63568e-05 3.63289e-05 0.101354)
(3.76559e-05 -3.76335e-05 0.101354)
(2.73733e-07 4.53084e-07 0.101363)
(2.80972e-07 -4.63466e-07 0.101363)
(2.71601e-07 4.51832e-07 0.101363)
(2.8035e-07 -4.62275e-07 0.101363)
(-2.88745e-07 -4.56784e-07 0.101363)
(-2.72378e-07 4.49576e-07 0.101363)
(-2.87536e-07 -4.56087e-07 0.101363)
(3.63346e-05 -3.63696e-05 0.101354)
(-3.76294e-05 3.76592e-05 0.101354)
(-4.49351e-07 -2.84517e-07 0.101363)
(4.50784e-07 -2.67203e-07 0.101363)
(-4.48637e-07 -2.83304e-07 0.101363)
(3.76297e-05 3.76538e-05 0.101354)
(3.63572e-05 3.63397e-05 0.101354)
(-3.76543e-05 -3.76305e-05 0.101354)
(4.61034e-07 2.81843e-07 0.101363)
(-4.63104e-07 2.87623e-07 0.101363)
(4.61657e-07 2.76565e-07 0.101363)
(-4.62514e-07 2.87056e-07 0.101363)
(-3.63562e-05 3.63282e-05 0.101354)
(3.76561e-05 -3.76339e-05 0.101354)
(2.7338e-07 4.52858e-07 0.101363)
(2.80686e-07 -4.63183e-07 0.101363)
(2.71175e-07 4.51694e-07 0.101363)
(2.79827e-07 -4.61895e-07 0.101363)
(-2.87687e-07 -4.56056e-07 0.101363)
(-2.71867e-07 4.49274e-07 0.101363)
(-2.86979e-07 -4.55668e-07 0.101363)
(3.6334e-05 -3.63693e-05 0.101354)
(-3.76297e-05 3.76595e-05 0.101354)
(-4.48547e-07 -2.83818e-07 0.101363)
(4.50514e-07 -2.66692e-07 0.101363)
(-4.48218e-07 -2.82796e-07 0.101363)
(3.76303e-05 3.76543e-05 0.101354)
(3.63573e-05 3.63395e-05 0.101354)
(-3.76545e-05 -3.76305e-05 0.101354)
(4.60659e-07 2.8125e-07 0.101363)
(-4.62776e-07 2.87093e-07 0.101363)
(4.61769e-07 2.76806e-07 0.101363)
(-4.62993e-07 2.87445e-07 0.101363)
(-3.63561e-05 3.6328e-05 0.101354)
(3.76558e-05 -3.76334e-05 0.101354)
(2.72709e-07 4.52373e-07 0.101363)
(2.79705e-07 -4.62393e-07 0.101363)
(2.71344e-07 4.5182e-07 0.101363)
(2.79846e-07 -4.61826e-07 0.101363)
(-2.86774e-07 -4.55455e-07 0.101363)
(-2.72449e-07 4.49735e-07 0.101363)
(-2.8781e-07 -4.56348e-07 0.101363)
(3.63336e-05 -3.63689e-05 0.101354)
(-3.76299e-05 3.76597e-05 0.101354)
(-4.47962e-07 -2.82933e-07 0.101363)
(4.50361e-07 -2.66665e-07 0.101363)
(-4.4894e-07 -2.83254e-07 0.101363)
(3.76296e-05 3.76534e-05 0.101354)
(3.63572e-05 3.63396e-05 0.101354)
(-3.76543e-05 -3.76302e-05 0.101354)
(4.60926e-07 2.81792e-07 0.101363)
(-4.63354e-07 2.87796e-07 0.101363)
(4.61684e-07 2.76716e-07 0.101363)
(-4.6252e-07 2.87129e-07 0.101363)
(-3.63563e-05 3.63283e-05 0.101354)
(3.76563e-05 -3.76336e-05 0.101354)
(2.72986e-07 4.52695e-07 0.101363)
(2.80262e-07 -4.62782e-07 0.101363)
(2.71469e-07 4.51879e-07 0.101363)
(2.80112e-07 -4.62104e-07 0.101363)
(-2.88076e-07 -4.56217e-07 0.101363)
(-2.72305e-07 4.4949e-07 0.101363)
(-2.87745e-07 -4.56248e-07 0.101363)
(3.63337e-05 -3.63688e-05 0.101354)
(-3.76294e-05 3.76593e-05 0.101354)
(-4.48808e-07 -2.83653e-07 0.101363)
(4.50712e-07 -2.67126e-07 0.101363)
(-4.48817e-07 -2.83435e-07 0.101363)
(3.76297e-05 3.76536e-05 0.101354)
(3.63575e-05 3.634e-05 0.101354)
(-3.76538e-05 -3.763e-05 0.101354)
(4.6102e-07 2.81681e-07 0.101363)
(-4.63199e-07 2.87678e-07 0.101363)
(4.62248e-07 2.77104e-07 0.101363)
(-4.62739e-07 2.87609e-07 0.101363)
(-3.6356e-05 3.63283e-05 0.101354)
(3.76561e-05 -3.76336e-05 0.101354)
(2.73312e-07 4.52875e-07 0.101363)
(2.80674e-07 -4.6321e-07 0.101363)
(2.72157e-07 4.52183e-07 0.101363)
(2.80972e-07 -4.62584e-07 0.101363)
(-2.87799e-07 -4.56232e-07 0.101363)
(-2.72488e-07 4.49575e-07 0.101363)
(-2.87878e-07 -4.5666e-07 0.101363)
(3.63342e-05 -3.63693e-05 0.101354)
(-3.7629e-05 3.76589e-05 0.101354)
(-4.48752e-07 -2.83952e-07 0.101363)
(4.51111e-07 -2.67351e-07 0.101363)
(-4.489e-07 -2.83971e-07 0.101363)
(3.76294e-05 3.76533e-05 0.101354)
(3.63582e-05 3.63403e-05 0.101354)
(-3.76528e-05 -3.76293e-05 0.101354)
(4.61937e-07 2.82418e-07 0.101363)
(-4.63577e-07 2.88398e-07 0.101363)
(4.63396e-07 2.78086e-07 0.101363)
(-4.63325e-07 2.89002e-07 0.101363)
(-3.63565e-05 3.63286e-05 0.101354)
(3.76543e-05 -3.76319e-05 0.101354)
(2.7409e-07 4.53383e-07 0.101363)
(2.81473e-07 -4.63666e-07 0.101363)
(2.73389e-07 4.5259e-07 0.101363)
(2.81686e-07 -4.63295e-07 0.101363)
(-2.88215e-07 -4.56819e-07 0.101363)
(-2.73728e-07 4.50171e-07 0.101363)
(-2.889e-07 -4.57666e-07 0.101363)
(3.63345e-05 -3.63696e-05 0.101354)
(-3.76282e-05 3.76581e-05 0.101354)
(-4.4897e-07 -2.84558e-07 0.101363)
(4.5203e-07 -2.68543e-07 0.101363)
(-4.49425e-07 -2.85365e-07 0.101363)
(3.76289e-05 3.76524e-05 0.101354)
(3.63584e-05 3.63396e-05 0.101354)
(-3.76504e-05 -3.76304e-05 0.101354)
(4.62407e-07 2.82325e-07 0.101363)
(-4.63939e-07 2.88769e-07 0.101363)
(4.63705e-07 2.75251e-07 0.101363)
(-4.6192e-07 2.87312e-07 0.101363)
(-3.63554e-05 3.63274e-05 0.101354)
(3.76523e-05 -3.76292e-05 0.101354)
(2.75184e-07 4.53303e-07 0.101363)
(2.82283e-07 -4.64305e-07 0.101363)
(2.73902e-07 4.50989e-07 0.101363)
(2.81495e-07 -4.62406e-07 0.101363)
(-2.88415e-07 -4.57187e-07 0.101363)
(-2.71822e-07 4.49267e-07 0.101363)
(-2.86534e-07 -4.57739e-07 0.101363)
(3.63352e-05 -3.63701e-05 0.101354)
(-3.76248e-05 3.76562e-05 0.101354)
(-4.48614e-07 -2.85398e-07 0.101363)
(4.52164e-07 -2.6655e-07 0.101363)
(-4.46994e-07 -2.84937e-07 0.101363)
(3.76299e-05 3.76508e-05 0.101354)
(3.63571e-05 3.63336e-05 0.101354)
(-3.76417e-05 -3.76297e-05 0.101354)
(4.65771e-07 2.81032e-07 0.101363)
(-4.57734e-07 2.8557e-07 0.101363)
(4.64541e-07 2.58792e-07 0.101363)
(-3.63451e-05 3.63179e-05 0.101354)
(2.75407e-07 4.50157e-07 0.101363)
(2.8139e-07 -4.63082e-07 0.101363)
(2.67956e-07 4.39244e-07 0.101363)
(2.77744e-07 -4.59333e-07 0.101363)
(-2.86802e-07 -4.59294e-07 0.101363)
(-2.70141e-07 -4.53767e-07 0.101363)
(3.63338e-05 -3.63664e-05 0.101354)
(-3.76222e-05 3.76585e-05 0.101354)
(-4.4735e-07 -2.86498e-07 0.101363)
(4.53918e-07 -2.59129e-07 0.101363)
(-4.37939e-07 -2.72202e-07 0.101363)
(3.76234e-05 3.76401e-05 0.101354)
(3.63327e-05 3.63034e-05 0.101354)
(2.60402e-07 4.34927e-07 0.101363)
(2.71148e-07 -4.55516e-07 0.101363)
(3.63135e-05 -3.63421e-05 0.101354)
(-4.24114e-07 -4.18982e-07 0.101368)
(4.2828e-07 -4.13491e-07 0.101368)
(-4.21778e-07 4.34514e-07 0.101368)
(4.34781e-07 4.23581e-07 0.101368)
(-1.35385e-08 -6.61442e-06 0.100735)
(6.88633e-07 5.06336e-06 0.0973631)
(-6.06049e-09 6.39343e-06 0.100734)
(-8.54215e-07 -5.4657e-06 0.0973667)
(-1.19617e-06 1.39395e-06 0.0893735)
(1.36086e-06 -1.86802e-06 0.0893778)
(-6.66196e-06 1.53779e-08 0.100735)
(5.02629e-06 6.69986e-07 0.0973628)
(6.42537e-06 1.67635e-08 0.100734)
(-5.44362e-06 -8.25417e-07 0.0973665)
(4.34042e-07 -4.20643e-07 0.101368)
(-4.33414e-07 4.44854e-07 0.101368)
(4.46578e-07 4.34019e-07 0.101368)
(-4.42777e-07 -4.55315e-07 0.101368)
(4.4336e-07 -4.49716e-07 0.101368)
(-4.46436e-07 4.3975e-07 0.101368)
(4.55684e-07 4.30974e-07 0.101368)
(1.13108e-05 -3.90376e-08 0.101261)
(-1.00069e-05 2.95622e-06 0.10086)
(-2.76828e-07 -1.36189e-07 0.101367)
(-2.24846e-07 4.25843e-07 0.101363)
(-1.10846e-05 3.36155e-08 0.101261)
(9.88599e-06 -3.30295e-06 0.100862)
(-2.72864e-07 -1.47425e-07 0.101367)
(1.35106e-06 -1.19804e-06 0.0893726)
(-1.89497e-06 1.36643e-06 0.0893786)
(-4.12108e-08 1.13041e-05 0.101261)
(-1.49879e-07 -2.71952e-07 0.101367)
(2.95893e-06 -1.00283e-05 0.10086)
(4.2943e-07 -2.2259e-07 0.101363)
(1.609e-08 -1.10776e-05 0.101261)
(-1.55644e-07 -2.70654e-07 0.101367)
(-3.36367e-06 9.93112e-06 0.100862)
(-3.33871e-06 -3.83544e-06 0.100058)
(-3.831e-06 -3.33154e-06 0.100058)
(3.76533e-05 3.76751e-05 0.101354)
(3.11557e-06 3.82239e-06 0.100061)
(3.81805e-06 3.11008e-06 0.10006)
(-2.56193e-08 -6.71753e-06 0.100735)
(7.70706e-07 5.11672e-06 0.0973641)
(-3.39899e-08 6.32733e-06 0.100733)
(-7.38198e-07 -5.64993e-06 0.0973676)
(-1.20264e-06 1.39886e-06 0.0893765)
(1.53898e-06 -2.22253e-06 0.0893825)
(-6.68022e-06 -2.75492e-07 0.100734)
(5.0908e-06 7.26519e-07 0.0973637)
(6.35564e-06 1.97567e-08 0.100733)
(-5.5956e-06 -7.65635e-07 0.0973674)
(4.37917e-07 -4.67842e-07 0.101368)
(-4.29565e-07 4.0866e-07 0.101368)
(4.37146e-07 4.00895e-07 0.101368)
(-3.40413e-07 -3.45279e-07 0.101368)
(3.46739e-07 -3.42169e-07 0.101368)
(-3.45148e-07 3.44447e-07 0.101368)
(3.56929e-07 3.35413e-07 0.101368)
(1.1073e-05 -1.15717e-07 0.101261)
(-9.92177e-06 2.87221e-06 0.100859)
(-2.62543e-07 -1.93254e-07 0.101367)
(-3.05542e-07 4.17226e-07 0.101362)
(-1.10015e-05 -1.42651e-08 0.10126)
(9.8452e-06 -3.49875e-06 0.100862)
(-3.71723e-07 -2.02904e-07 0.101367)
(9.49074e-07 -9.25946e-07 0.0893761)
(-1.29589e-06 9.28295e-07 0.0893829)
(-2.42033e-08 1.1018e-05 0.101261)
(-1.60079e-07 -2.9923e-07 0.101367)
(2.79393e-06 -9.89818e-06 0.100859)
(4.98833e-07 -3.49731e-07 0.101362)
(-5.89883e-09 -1.10094e-05 0.10126)
(-1.32952e-07 -4.11531e-07 0.101367)
(-3.16119e-06 9.65733e-06 0.100861)
(-3.21262e-06 -3.72036e-06 0.100058)
(-3.70221e-06 -3.21368e-06 0.100057)
(3.75483e-05 3.75562e-05 0.101354)
(3.06894e-06 3.64064e-06 0.10006)
(3.64602e-06 3.05456e-06 0.10006)
(9.9316e-09 -6.43974e-06 0.100736)
(6.65588e-07 6.22776e-06 0.0973641)
(2.22671e-08 6.62801e-06 0.100733)
(-8.7554e-07 -4.88991e-06 0.0973665)
(-1.81131e-06 2.54402e-06 0.0893761)
(1.16833e-06 -1.37328e-06 0.0893769)
(-6.5055e-06 1.09919e-07 0.100735)
(6.19275e-06 6.62317e-07 0.0973638)
(6.64643e-06 1.49025e-07 0.100733)
(-4.87763e-06 -8.21565e-07 0.0973663)
(3.53552e-07 -3.38086e-07 0.101368)
(-3.63635e-07 3.74578e-07 0.101368)
(3.77449e-07 3.64342e-07 0.101368)
(-3.95278e-07 -3.87832e-07 0.101368)
(4.00127e-07 -3.82956e-07 0.101368)
(-3.94515e-07 4.11866e-07 0.101368)
(4.08068e-07 4.00343e-07 0.101368)
(1.10403e-05 1.18685e-08 0.101261)
(-1.04086e-05 3.47504e-06 0.100859)
(-4.40088e-07 -9.36904e-08 0.101367)
(-3.07611e-07 4.81856e-07 0.101363)
(-1.15159e-05 7.90517e-08 0.10126)
(9.6292e-06 -3.00748e-06 0.100863)
(-4.00834e-07 -1.00224e-07 0.101367)
(1.99848e-06 -1.44424e-06 0.0893723)
(-1.46306e-06 1.21103e-06 0.0893761)
(-2.05083e-08 1.10524e-05 0.101261)
(-1.17369e-07 -4.26656e-07 0.101367)
(3.32542e-06 -1.03414e-05 0.10086)
(4.64259e-07 -2.93427e-07 0.101363)
(4.37825e-08 -1.14963e-05 0.101261)
(-1.2462e-07 -3.89033e-07 0.101367)
(-3.14375e-06 9.72024e-06 0.100862)
(-3.13723e-06 -3.92711e-06 0.100058)
(-3.92029e-06 -3.13397e-06 0.100058)
(3.76057e-05 3.76368e-05 0.101354)
(3.1432e-06 3.76408e-06 0.100061)
(3.74887e-06 3.1446e-06 0.100061)
(-4.05981e-10 -6.55517e-06 0.100735)
(7.09962e-07 5.33577e-06 0.0973628)
(-8.22653e-09 6.44697e-06 0.100734)
(-8.57506e-07 -5.21185e-06 0.0973661)
(-1.3254e-06 1.65128e-06 0.089373)
(1.24343e-06 -1.63084e-06 0.0893764)
(-6.5946e-06 2.32792e-09 0.100735)
(5.29996e-06 6.90678e-07 0.0973625)
(6.47795e-06 1.35996e-08 0.100734)
(-5.18504e-06 -8.25735e-07 0.0973659)
(4.05169e-07 -3.89159e-07 0.101368)
(-3.96417e-07 4.15125e-07 0.101368)
(4.10421e-07 4.02798e-07 0.101368)
(-4.05035e-07 -4.01691e-07 0.101368)
(4.09692e-07 -3.96478e-07 0.101368)
(-3.98789e-07 4.20629e-07 0.101368)
(4.11258e-07 4.07902e-07 0.101368)
(1.113e-05 -2.37283e-08 0.101261)
(-1.01037e-05 3.04602e-06 0.10086)
(-3.4726e-07 -1.2507e-07 0.101367)
(-2.72686e-07 4.57318e-07 0.101363)
(-1.12343e-05 3.61577e-08 0.101261)
(9.74961e-06 -3.17704e-06 0.100863)
(-3.41711e-07 -1.2827e-07 0.101367)
(1.54605e-06 -1.26496e-06 0.0893713)
(-1.52839e-06 1.19459e-06 0.0893761)
(-3.06244e-08 1.11441e-05 0.101261)
(-1.33123e-07 -3.33853e-07 0.101367)
(3.06248e-06 -1.01273e-05 0.10086)
(4.54999e-07 -2.59614e-07 0.101363)
(2.08585e-08 -1.12217e-05 0.101261)
(-1.33721e-07 -3.31403e-07 0.101367)
(-3.19663e-06 9.79578e-06 0.100862)
(-3.26156e-06 -3.86483e-06 0.100058)
(-3.86865e-06 -3.24826e-06 0.100058)
(3.76257e-05 3.76607e-05 0.101354)
(3.14492e-06 3.76875e-06 0.100061)
(3.75038e-06 3.1503e-06 0.100061)
(4.04824e-10 -6.55954e-06 0.100735)
(7.17123e-07 5.32792e-06 0.0973628)
(-8.6414e-09 6.43162e-06 0.100734)
(-8.56461e-07 -5.21137e-06 0.0973661)
(-1.33438e-06 1.64253e-06 0.0893729)
(1.24098e-06 -1.63367e-06 0.0893764)
(-6.59731e-06 9.38725e-12 0.100735)
(5.29502e-06 6.92997e-07 0.0973625)
(6.46903e-06 3.97404e-09 0.100734)
(-5.18387e-06 -8.26169e-07 0.0973659)
(4.09611e-07 -3.97011e-07 0.101368)
(-3.98446e-07 4.20668e-07 0.101368)
(4.11359e-07 4.08203e-07 0.101368)
(-4.05513e-07 -4.04519e-07 0.101368)
(4.09006e-07 -3.98968e-07 0.101368)
(-4.00784e-07 4.14911e-07 0.101368)
(4.12562e-07 4.04818e-07 0.101368)
(1.1132e-05 -2.66532e-08 0.101261)
(-1.0097e-05 3.03938e-06 0.10086)
(-3.38978e-07 -1.31416e-07 0.101367)
(-2.71419e-07 4.53138e-07 0.101363)
(-1.12265e-05 2.98249e-08 0.101261)
(9.75038e-06 -3.1794e-06 0.100863)
(-3.38479e-07 -1.3209e-07 0.101367)
(1.54665e-06 -1.27165e-06 0.0893713)
(-1.5301e-06 1.19226e-06 0.0893761)
(-1.12058e-08 1.1149e-05 0.101261)
(-1.32211e-07 -3.14361e-07 0.101367)
(3.08214e-06 -1.01069e-05 0.10086)
(4.58804e-07 -2.54583e-07 0.101363)
(1.29668e-08 -1.11764e-05 0.101261)
(-1.31081e-07 -3.23858e-07 0.101367)
(-3.19079e-06 9.79886e-06 0.100862)
(-3.25936e-06 -3.86435e-06 0.100058)
(-3.87903e-06 -3.23526e-06 0.100058)
(3.76243e-05 3.76647e-05 0.101354)
(3.14609e-06 3.76889e-06 0.100061)
(3.74144e-06 3.16004e-06 0.100061)
(5.83178e-10 -6.55934e-06 0.100735)
(7.17177e-07 5.32834e-06 0.0973628)
(-8.06577e-09 6.43091e-06 0.100734)
(-8.56209e-07 -5.21139e-06 0.097366)
(-1.33441e-06 1.64191e-06 0.0893729)
(1.24139e-06 -1.63291e-06 0.0893763)
(-6.59726e-06 -2.36812e-09 0.100735)
(5.29631e-06 6.91327e-07 0.0973625)
(6.46845e-06 1.59432e-09 0.100734)
(-5.1831e-06 -8.27714e-07 0.0973659)
(4.08668e-07 -3.99419e-07 0.101368)
(-4.0063e-07 4.1338e-07 0.101368)
(4.13228e-07 4.02523e-07 0.101368)
(-4.05733e-07 -4.06806e-07 0.101368)
(4.08914e-07 -4.01473e-07 0.101368)
(-4.0205e-07 4.09629e-07 0.101368)
(4.13971e-07 3.9797e-07 0.101368)
(1.11313e-05 -2.88e-08 0.101261)
(-1.00975e-05 3.03812e-06 0.10086)
(-3.3994e-07 -1.34172e-07 0.101367)
(-2.72291e-07 4.51009e-07 0.101363)
(-1.12263e-05 2.80071e-08 0.101261)
(9.74934e-06 -3.1804e-06 0.100863)
(-3.38575e-07 -1.35301e-07 0.101367)
(1.54494e-06 -1.27472e-06 0.0893713)
(-1.53149e-06 1.18932e-06 0.0893761)
(-2.68962e-08 1.11338e-05 0.101261)
(-1.31995e-07 -3.3352e-07 0.101367)
(3.0641e-06 -1.01219e-05 0.10086)
(4.52251e-07 -2.66312e-07 0.101363)
(2.426e-08 -1.12157e-05 0.101261)
(-1.34499e-07 -3.36823e-07 0.101367)
(-3.20539e-06 9.7852e-06 0.100862)
(-3.25661e-06 -3.86776e-06 0.100058)
(-3.86919e-06 -3.24443e-06 0.100058)
(3.76298e-05 3.76558e-05 0.101354)
(3.14832e-06 3.76371e-06 0.100061)
(3.75821e-06 3.14009e-06 0.100061)
(6.0947e-10 -6.56002e-06 0.100735)
(7.1762e-07 5.32761e-06 0.0973628)
(-8.13197e-09 6.43005e-06 0.100734)
(-8.5553e-07 -5.21119e-06 0.097366)
(-1.33454e-06 1.64165e-06 0.0893729)
(1.2403e-06 -1.63389e-06 0.0893764)
(-6.59742e-06 -3.16733e-09 0.100735)
(5.29577e-06 6.90548e-07 0.0973625)
(6.46758e-06 1.04915e-10 0.100734)
(-5.18319e-06 -8.28147e-07 0.0973659)
(4.08663e-07 -4.01389e-07 0.101368)
(-4.01379e-07 4.0885e-07 0.101368)
(4.14075e-07 3.9703e-07 0.101368)
(-4.05136e-07 -4.06958e-07 0.101368)
(4.08631e-07 -4.01487e-07 0.101368)
(-4.01466e-07 4.08043e-07 0.101368)
(4.14076e-07 3.9664e-07 0.101368)
(1.1132e-05 -2.99013e-08 0.101261)
(-1.00969e-05 3.03666e-06 0.10086)
(-3.39413e-07 -1.36497e-07 0.101367)
(-2.72714e-07 4.50143e-07 0.101363)
(-1.12256e-05 2.62695e-08 0.101261)
(9.74983e-06 -3.18142e-06 0.100862)
(-3.3858e-07 -1.36907e-07 0.101367)
(1.54374e-06 -1.27683e-06 0.0893713)
(-1.53197e-06 1.18799e-06 0.0893761)
(-2.96277e-08 1.11307e-05 0.101261)
(-1.35326e-07 -3.34671e-07 0.101367)
(3.05763e-06 -1.01291e-05 0.10086)
(4.51167e-07 -2.673e-07 0.101363)
(2.17304e-08 -1.12191e-05 0.101261)
(-1.35771e-07 -3.38127e-07 0.101367)
(-3.20628e-06 9.78602e-06 0.100862)
(-3.25401e-06 -3.86973e-06 0.100058)
(-3.86386e-06 -3.24925e-06 0.100058)
(3.76303e-05 3.7654e-05 0.101354)
(3.1502e-06 3.76306e-06 0.100061)
(3.7576e-06 3.14388e-06 0.100061)
(3.73503e-10 -6.56045e-06 0.100735)
(7.17491e-07 5.32761e-06 0.0973628)
(-8.28873e-09 6.43071e-06 0.100734)
(-8.56343e-07 -5.21176e-06 0.097366)
(-1.33554e-06 1.64119e-06 0.0893729)
(1.2409e-06 -1.63301e-06 0.0893764)
(-6.59738e-06 -4.00537e-09 0.100735)
(5.29627e-06 6.90855e-07 0.0973625)
(6.46873e-06 -4.43837e-10 0.100734)
(-5.18282e-06 -8.28081e-07 0.0973659)
(4.08463e-07 -4.01326e-07 0.101368)
(-4.00983e-07 4.0785e-07 0.101368)
(4.14324e-07 3.96091e-07 0.101368)
(-4.05346e-07 -4.07031e-07 0.101368)
(4.08522e-07 -4.01676e-07 0.101368)
(-4.01802e-07 4.08222e-07 0.101368)
(4.14014e-07 3.96833e-07 0.101368)
(1.11317e-05 -3.07111e-08 0.101261)
(-1.00976e-05 3.03608e-06 0.10086)
(-3.39778e-07 -1.36832e-07 0.101367)
(-2.73032e-07 4.4994e-07 0.101363)
(-1.12259e-05 2.53038e-08 0.101261)
(9.74902e-06 -3.18194e-06 0.100862)
(-3.38817e-07 -1.3713e-07 0.101367)
(1.54373e-06 -1.27769e-06 0.0893713)
(-1.53219e-06 1.18715e-06 0.0893761)
(-2.95696e-08 1.11244e-05 0.101261)
(-1.35523e-07 -3.36197e-07 0.101367)
(3.05818e-06 -1.01299e-05 0.10086)
(4.51011e-07 -2.6769e-07 0.101363)
(2.16395e-08 -1.12188e-05 0.101261)
(-1.3585e-07 -3.38741e-07 0.101367)
(-3.20572e-06 9.78531e-06 0.100862)
(-3.25372e-06 -3.87084e-06 0.100058)
(-3.86448e-06 -3.24828e-06 0.100058)
(3.76303e-05 3.76536e-05 0.101354)
(3.14937e-06 3.76199e-06 0.100061)
(3.75749e-06 3.14405e-06 0.100061)
(5.45643e-10 -6.5607e-06 0.100735)
(7.17576e-07 5.32787e-06 0.0973628)
(-8.21775e-09 6.4305e-06 0.100734)
(-8.55894e-07 -5.21157e-06 0.097366)
(-1.33484e-06 1.6417e-06 0.0893729)
(1.24078e-06 -1.63353e-06 0.0893764)
(-6.59793e-06 -3.88012e-09 0.100735)
(5.29666e-06 6.89842e-07 0.0973625)
(6.46806e-06 -8.08252e-10 0.100734)
(-5.18318e-06 -8.28753e-07 0.0973659)
(4.08222e-07 -4.01433e-07 0.101368)
(-4.01444e-07 4.0808e-07 0.101368)
(4.14239e-07 3.96375e-07 0.101368)
(-4.06061e-07 -4.07632e-07 0.101368)
(4.08488e-07 -4.02119e-07 0.101368)
(-4.02244e-07 4.0832e-07 0.101368)
(4.13984e-07 3.97018e-07 0.101368)
(1.11324e-05 -3.04807e-08 0.101261)
(-1.00979e-05 3.03607e-06 0.10086)
(-3.39752e-07 -1.36867e-07 0.101367)
(-2.72944e-07 4.4997e-07 0.101363)
(-1.12264e-05 2.52654e-08 0.101261)
(9.7498e-06 -3.18183e-06 0.100862)
(-3.38834e-07 -1.3711e-07 0.101367)
(1.54373e-06 -1.27737e-06 0.0893713)
(-1.53206e-06 1.18785e-06 0.0893761)
(-2.91277e-08 1.1124e-05 0.101261)
(-1.35797e-07 -3.35545e-07 0.101367)
(3.05873e-06 -1.01302e-05 0.10086)
(4.50629e-07 -2.67166e-07 0.101363)
(2.28677e-08 -1.12163e-05 0.101261)
(-1.35936e-07 -3.38363e-07 0.101367)
(-3.2058e-06 9.78578e-06 0.100862)
(-3.25448e-06 -3.8708e-06 0.100058)
(-3.86361e-06 -3.24843e-06 0.100058)
(3.76303e-05 3.76539e-05 0.101354)
(3.15002e-06 3.76303e-06 0.100061)
(3.75858e-06 3.14473e-06 0.100061)
(6.12988e-10 -6.55947e-06 0.100735)
(7.17768e-07 5.32758e-06 0.0973628)
(-8.05748e-09 6.43039e-06 0.100734)
(-8.5497e-07 -5.21148e-06 0.097366)
(-1.33521e-06 1.64159e-06 0.0893729)
(1.24043e-06 -1.63332e-06 0.0893764)
(-6.59693e-06 -3.73261e-09 0.100735)
(5.2964e-06 6.90763e-07 0.0973625)
(6.46829e-06 -5.53798e-10 0.100734)
(-5.183e-06 -8.27877e-07 0.0973659)
(4.08278e-07 -4.01911e-07 0.101368)
(-4.01735e-07 4.08005e-07 0.101368)
(4.14214e-07 3.96296e-07 0.101368)
(-4.06105e-07 -4.07758e-07 0.101368)
(4.09058e-07 -4.02238e-07 0.101368)
(-4.02221e-07 4.08334e-07 0.101368)
(4.14553e-07 3.97201e-07 0.101368)
(1.11314e-05 -3.0369e-08 0.101261)
(-1.00976e-05 3.03639e-06 0.10086)
(-3.3952e-07 -1.37117e-07 0.101367)
(-2.72442e-07 4.49418e-07 0.101363)
(-1.12259e-05 2.56438e-08 0.101261)
(9.74886e-06 -3.18153e-06 0.100862)
(-3.38105e-07 -1.37298e-07 0.101367)
(1.54381e-06 -1.27744e-06 0.0893713)