/*--------------------------------*- C++ -*----------------------------------*\
| =========                 |                                                 |
| \\      /  F ield         | OpenFOAM: The Open Source CFD Toolbox           |
|  \\    /   O peration     | Version:  2206                                  |
|   \\  /    A nd           | Website:  www.openfoam.com                      |
|    \\/     M anipulation  |                                                 |
\*---------------------------------------------------------------------------*/
FoamFile
{
    version     2.0;
    format      ascii;
    arch        "LSB;label=32;scalar=64";
    class       surfaceScalarField;
    location    "27.5";
    object      phi;
}
// * * * * * * * * * * * * * * * * * * * * * * * * * * * * * * * * * * * * * //

dimensions      [0 3 -1 0 0 0 0];

oriented        oriented;

internalField   nonuniform List<scalar> 
81717
(
1.51934e-09
1.6512e-09
-0.00108515
-1.56916e-09
-1.55918e-09
0.00108515
-0.00108517
-1.20303e-06
-1.67301e-09
2.75341e-09
0.00108517
-2.51294e-07
1.20565e-06
2.50211e-07
8.89025e-07
-2.51767e-07
-8.8865e-07
2.48866e-07
-0.00108483
-1.19764e-06
-1.67103e-09
2.73874e-09
0.00108483
-2.51281e-07
1.20023e-06
2.50227e-07
8.88852e-07
-2.54422e-07
-8.8853e-07
2.51554e-07
-0.000266653
1.23129e-06
1.19776e-06
-2.29474e-07
-2.34757e-07
0.000264688
1.6108e-09
1.7502e-09
-0.00108515
-1.6159e-09
-1.6032e-09
0.00108515
-0.00108517
-1.20301e-06
-1.77309e-09
2.70512e-09
0.00108517
-2.51268e-07
1.20567e-06
2.5024e-07
8.89045e-07
-2.51721e-07
-8.88639e-07
2.48921e-07
-0.00108483
-1.19762e-06
-1.76284e-09
2.68509e-09
0.00108483
-2.51253e-07
1.20025e-06
2.50259e-07
8.88868e-07
-2.54379e-07
-8.88522e-07
2.51604e-07
-0.000266653
1.23127e-06
1.19774e-06
-2.29448e-07
-2.34735e-07
0.000264688
1.76543e-09
1.89765e-09
-0.00108515
-1.69582e-09
-1.68558e-09
0.00108515
-0.00108517
-1.20299e-06
-1.90565e-09
2.67531e-09
0.00108517
-2.51236e-07
1.20569e-06
2.50274e-07
8.89097e-07
-2.5168e-07
-8.88597e-07
2.48968e-07
-0.00108483
-1.19759e-06
-1.90609e-09
2.65801e-09
0.00108483
-2.51223e-07
1.20027e-06
2.50289e-07
8.88925e-07
-2.54332e-07
-8.88476e-07
2.51657e-07
-0.000266653
1.23124e-06
1.19772e-06
-2.29419e-07
-2.34699e-07
0.000264688
1.6715e-09
1.79452e-09
-0.00108515
-1.67116e-09
-1.66482e-09
0.00108515
-0.00108517
-1.20299e-06
-1.81944e-09
2.7492e-09
0.00108517
-2.51253e-07
1.20568e-06
2.50262e-07
8.89106e-07
-2.5168e-07
-8.88593e-07
2.48986e-07
-0.00108483
-1.1976e-06
-1.81602e-09
2.73896e-09
0.00108483
-2.5124e-07
1.20026e-06
2.50278e-07
8.88933e-07
-2.54334e-07
-8.88472e-07
2.51673e-07
-0.000266652
1.23125e-06
1.19772e-06
-2.29393e-07
-2.34671e-07
0.000264687
1.38184e-09
1.50371e-09
-0.00108514
-1.45869e-09
-1.45566e-09
0.00108514
-0.00108517
-1.20299e-06
-1.5363e-09
2.8942e-09
0.00108517
-2.51299e-07
1.20565e-06
2.50186e-07
8.89026e-07
-2.51735e-07
-8.88629e-07
2.48892e-07
-0.00108483
-1.19759e-06
-1.54115e-09
2.87711e-09
0.00108483
-2.51283e-07
1.20023e-06
2.50204e-07
8.88856e-07
-2.54383e-07
-8.88506e-07
2.51586e-07
-0.000266652
1.23124e-06
1.19772e-06
-2.29369e-07
-2.34648e-07
0.000264687
5.81435e-10
6.99772e-10
-0.00108515
-1.10527e-09
-1.12248e-09
0.00108515
-0.00108517
-1.20329e-06
-7.20638e-10
3.01417e-09
0.00108517
-2.51589e-07
1.20554e-06
2.50095e-07
8.88737e-07
-2.52417e-07
-8.8915e-07
2.48439e-07
-0.00108483
-1.19791e-06
-6.92749e-10
3.03864e-09
0.00108483
-2.5159e-07
1.20011e-06
2.50094e-07
8.88566e-07
-2.55073e-07
-8.8903e-07
2.51126e-07
-0.000266652
1.23156e-06
1.19802e-06
-2.29856e-07
-2.3515e-07
0.000264688
1.66999e-09
1.73904e-09
-0.00108515
-1.61569e-09
-1.66368e-09
0.00108515
-0.00108517
-1.20297e-06
-1.80943e-09
2.56031e-09
0.00108517
-2.51226e-07
1.20577e-06
2.50357e-07
8.8909e-07
-2.51839e-07
-8.88699e-07
2.48924e-07
-0.00108483
-1.19762e-06
-1.76309e-09
2.6392e-09
0.00108483
-2.51259e-07
1.20032e-06
2.50334e-07
8.88916e-07
-2.54499e-07
-8.8858e-07
2.51608e-07
-0.000266653
1.23128e-06
1.19774e-06
-2.29452e-07
-2.3474e-07
0.000264688
1.52076e-09
1.63112e-09
-0.00108515
-1.56552e-09
-1.57836e-09
0.00108515
-0.00108517
-1.20306e-06
-1.66055e-09
2.73819e-09
0.00108517
-2.51329e-07
1.2057e-06
2.50266e-07
8.89061e-07
-2.51861e-07
-8.88732e-07
2.48896e-07
-0.00108483
-1.19767e-06
-1.65281e-09
2.73688e-09
0.00108483
-2.5132e-07
1.20027e-06
2.50277e-07
8.88883e-07
-2.54514e-07
-8.88613e-07
2.51582e-07
-0.000266653
1.23132e-06
1.19779e-06
-2.29503e-07
-2.34788e-07
0.000264688
1.49994e-09
1.60923e-09
-0.00108515
-1.55397e-09
-1.57092e-09
0.00108515
-0.00108517
-1.20306e-06
-1.62772e-09
2.74811e-09
0.00108517
-2.51337e-07
1.20569e-06
2.5026e-07
8.89052e-07
-2.51869e-07
-8.88741e-07
2.48889e-07
-0.00108483
-1.19767e-06
-1.64652e-09
2.74773e-09
0.00108483
-2.51325e-07
1.20027e-06
2.50274e-07
8.8888e-07
-2.54517e-07
-8.88617e-07
2.5158e-07
-0.000266653
1.23132e-06
1.1978e-06
-2.29512e-07
-2.3479e-07
0.000264688
1.49723e-09
1.60356e-09
-0.00108515
-1.54998e-09
-1.56789e-09
0.00108515
-0.00108517
-1.20306e-06
-1.62631e-09
2.7458e-09
0.00108517
-2.51336e-07
1.20569e-06
2.5026e-07
8.89052e-07
-2.51868e-07
-8.88741e-07
2.48889e-07
-0.00108483
-1.19767e-06
-1.64824e-09
2.75176e-09
0.00108483
-2.51327e-07
1.20027e-06
2.50272e-07
8.88881e-07
-2.54517e-07
-8.88616e-07
2.5158e-07
-0.000266653
1.23132e-06
1.1978e-06
-2.29512e-07
-2.34788e-07
0.000264688
1.49219e-09
1.59593e-09
-0.00108515
-1.54573e-09
-1.56443e-09
0.00108515
-0.00108517
-1.20306e-06
-1.62102e-09
2.74637e-09
0.00108517
-2.51337e-07
1.20569e-06
2.5026e-07
8.89051e-07
-2.51869e-07
-8.88743e-07
2.48888e-07
-0.00108483
-1.19767e-06
-1.64499e-09
2.75455e-09
0.00108483
-2.51328e-07
1.20027e-06
2.50271e-07
8.8888e-07
-2.54518e-07
-8.88617e-07
2.5158e-07
-0.000266653
1.23132e-06
1.1978e-06
-2.29513e-07
-2.34789e-07
0.000264688
1.4882e-09
1.59062e-09
-0.00108515
-1.54214e-09
-1.56229e-09
0.00108515
-0.00108517
-1.20306e-06
-1.61746e-09
2.74646e-09
0.00108517
-2.51337e-07
1.20569e-06
2.5026e-07
8.89049e-07
-2.51871e-07
-8.88743e-07
2.48888e-07
-0.00108483
-1.19767e-06
-1.64181e-09
2.75687e-09
0.00108483
-2.51329e-07
1.20027e-06
2.50271e-07
8.88879e-07
-2.54518e-07
-8.88618e-07
2.5158e-07
-0.000266653
1.23132e-06
1.1978e-06
-2.29514e-07
-2.3479e-07
0.000264688
1.4891e-09
1.59048e-09
-0.00108515
-1.54344e-09
-1.56342e-09
0.00108515
-0.00108517
-1.20306e-06
-1.61154e-09
2.7491e-09
0.00108517
-2.51336e-07
1.20569e-06
2.50256e-07
8.89049e-07
-2.51869e-07
-8.88745e-07
2.48884e-07
-0.00108483
-1.19768e-06
-1.63745e-09
2.75861e-09
0.00108483
-2.51329e-07
1.20026e-06
2.50269e-07
8.88878e-07
-2.54516e-07
-8.88617e-07
2.51579e-07
-0.000266653
1.23132e-06
1.1978e-06
-2.29514e-07
-2.34789e-07
0.000264688
1.48946e-09
1.59161e-09
-0.00108515
-1.54307e-09
-1.56214e-09
0.00108515
-0.00108517
-1.20306e-06
-1.61881e-09
2.74663e-09
0.00108517
-2.51336e-07
1.20569e-06
2.50257e-07
8.89049e-07
-2.51868e-07
-8.88741e-07
2.48886e-07
-0.00108483
-1.19767e-06
-1.64542e-09
2.75623e-09
0.00108483
-2.51326e-07
1.20026e-06
2.50268e-07
8.88877e-07
-2.54511e-07
-8.88613e-07
2.51576e-07
-0.000266653
1.23132e-06
1.1978e-06
-2.29509e-07
-2.34785e-07
0.000264688
1.49357e-09
1.59695e-09
-0.00108515
-1.54543e-09
-1.5637e-09
0.00108515
-0.00108517
-1.20306e-06
-1.62261e-09
2.74374e-09
0.00108517
-2.51334e-07
1.20569e-06
2.50258e-07
8.89047e-07
-2.51864e-07
-8.88739e-07
2.48883e-07
-0.00108483
-1.19767e-06
-1.64679e-09
2.75466e-09
0.00108483
-2.51325e-07
1.20026e-06
2.50269e-07
8.88876e-07
-2.54509e-07
-8.88611e-07
2.51575e-07
-0.000266653
1.23132e-06
1.1978e-06
-2.29509e-07
-2.34785e-07
0.000264688
1.49712e-09
1.60224e-09
-0.00108515
-1.54862e-09
-1.56645e-09
0.00108515
-0.00108517
-1.20306e-06
-1.62326e-09
2.74128e-09
0.00108517
-2.51331e-07
1.20569e-06
2.50256e-07
8.89039e-07
-2.51855e-07
-8.8873e-07
2.48875e-07
-0.00108483
-1.19767e-06
-1.64987e-09
2.75355e-09
0.00108483
-2.51321e-07
1.20026e-06
2.50264e-07
8.88869e-07
-2.54499e-07
-8.88603e-07
2.51566e-07
-0.000266653
1.23131e-06
1.1978e-06
-2.29505e-07
-2.3478e-07
0.000264688
1.49939e-09
1.60937e-09
-0.00108515
-1.54923e-09
-1.56505e-09
0.00108515
-0.00108517
-1.20305e-06
-1.62979e-09
2.73975e-09
0.00108517
-2.51316e-07
1.20568e-06
2.50243e-07
8.89019e-07
-2.5183e-07
-8.88705e-07
2.48856e-07
-0.00108483
-1.19766e-06
-1.65737e-09
2.75423e-09
0.00108483
-2.51303e-07
1.20025e-06
2.50246e-07
8.88847e-07
-2.54471e-07
-8.88576e-07
2.51542e-07
-0.000266653
1.2313e-06
1.19778e-06
-2.29491e-07
-2.34766e-07
0.000264688
-1.23918e-06
-1.20299e-06
0.000266669
-0.000264694
2.29514e-07
2.37311e-07
0.00108439
-1.50019e-09
-0.00108439
2.90624e-09
-1.23663e-06
2.55554e-07
-2.56733e-07
-8.8863e-07
2.48749e-07
-2.51759e-07
8.88924e-07
1.24463e-06
0.00108483
-1.45783e-09
-0.00108483
2.91116e-09
-1.24207e-06
2.58354e-07
-2.59514e-07
-8.94242e-07
2.51541e-07
-2.54603e-07
8.94511e-07
-1.20565e-06
0.000266698
-0.000264714
2.323e-07
2.3459e-07
0.00108544
-1.62451e-09
-0.00108544
2.74854e-09
-1.20043e-06
2.53009e-07
-2.54091e-07
-8.91378e-07
2.51607e-07
-2.54574e-07
8.91792e-07
1.23923e-06
0.0010845
-1.45257e-09
-0.0010845
2.91748e-09
-1.23669e-06
2.58329e-07
-2.59507e-07
-8.91383e-07
2.51518e-07
-2.54528e-07
8.91626e-07
-1.63123e-09
-0.00108517
2.76941e-09
-1.20304e-06
2.50205e-07
-2.51303e-07
-8.88661e-07
2.48848e-07
8.8902e-07
-2.5179e-07
1.23383e-06
0.0010843
-1.46066e-09
-0.0010843
2.91837e-09
-1.2313e-06
2.52803e-07
-2.53955e-07
-8.8868e-07
2.48738e-07
-2.51769e-07
8.88931e-07
-1.20023e-06
0.000266648
-0.000264675
2.29713e-07
2.37098e-07
-1.62722e-09
-0.00108483
2.7541e-09
-1.19765e-06
2.5022e-07
-2.5129e-07
-8.88491e-07
2.51513e-07
8.88902e-07
-2.54466e-07
1.20033e-06
0.00108535
-1.61133e-09
-0.00108535
2.76427e-09
-1.19777e-06
2.5027e-07
-2.51356e-07
-8.88766e-07
2.51602e-07
-2.54549e-07
8.89144e-07
-0.000264688
2.3203e-07
2.37331e-07
1.23662e-06
1.20042e-06
-2.26956e-07
-2.34712e-07
0.000264694
-1.23919e-06
-1.20301e-06
0.000266669
-0.000264693
2.29539e-07
2.37337e-07
2.88613e-09
0.00108439
-2.56724e-07
1.23918e-06
2.5556e-07
8.88918e-07
-2.51739e-07
-8.88625e-07
2.48764e-07
-1.24206e-06
-1.50545e-09
2.89287e-09
0.00108483
-2.59505e-07
1.24464e-06
2.5836e-07
8.94516e-07
-2.54579e-07
-8.9423e-07
2.5156e-07
0.00108439
-1.57846e-09
-0.00108439
2.86394e-09
-1.23661e-06
2.55574e-07
-2.56707e-07
-8.88616e-07
2.48793e-07
-2.51708e-07
8.8893e-07
1.24465e-06
0.00108483
-1.53111e-09
-0.00108483
2.87611e-09
-1.24205e-06
2.58374e-07
-2.59488e-07
-8.94233e-07
2.51583e-07
-2.54553e-07
8.94513e-07
-2.2969e-07
-2.31993e-07
0.000264714
-1.20566e-06
0.000266698
-0.000264714
2.32322e-07
2.34615e-07
2.73246e-09
0.00108544
-2.54082e-07
1.203e-06
2.53014e-07
8.91797e-07
-2.54553e-07
-8.91369e-07
2.51626e-07
-1.23668e-06
-1.49522e-09
2.90706e-09
0.0010845
-2.59499e-07
1.23924e-06
2.58334e-07
8.91632e-07
-2.54505e-07
-8.91372e-07
2.51537e-07
0.00108544
-1.70341e-09
-0.00108544
2.70516e-09
-1.2004e-06
2.5303e-07
-2.54064e-07
-8.91368e-07
2.51652e-07
-2.54522e-07
8.91796e-07
1.23925e-06
0.0010845
-1.51911e-09
-0.0010845
2.88322e-09
-1.23667e-06
2.5835e-07
-2.59481e-07
-8.9138e-07
2.51554e-07
-2.54488e-07
8.91626e-07
-1.50873e-09
2.89508e-09
0.0010843
-2.53945e-07
1.23384e-06
2.5281e-07
8.88938e-07
-2.51745e-07
2.48759e-07
-8.88668e-07
-1.70786e-09
-0.00108517
2.73305e-09
-1.20302e-06
2.50225e-07
-2.51277e-07
-8.88652e-07
2.48893e-07
8.89024e-07
-2.51742e-07
1.23384e-06
0.0010843
-1.53514e-09
-0.0010843
2.88676e-09
-1.23128e-06
2.5282e-07
-2.53932e-07
-8.8867e-07
2.48783e-07
-2.51718e-07
8.88935e-07
-2.27133e-07
-2.34522e-07
0.000264675
-1.20024e-06
0.000266648
-0.000264675
2.29733e-07
2.37125e-07
-1.67795e-09
2.74068e-09
0.00108535
-2.51346e-07
1.20033e-06
2.50278e-07
8.89157e-07
-2.54522e-07
2.51626e-07
-8.8875e-07
-1.70136e-09
-0.00108483
2.71446e-09
-1.19763e-06
2.5024e-07
-2.51265e-07
-8.88483e-07
2.51559e-07
8.88904e-07
-2.54415e-07
1.20034e-06
0.00108535
-1.67076e-09
-0.00108535
2.72978e-09
-1.19775e-06
2.5029e-07
-2.51331e-07
-8.88765e-07
2.5164e-07
-2.54504e-07
8.8914e-07
-0.000264688
2.32054e-07
2.37351e-07
1.2366e-06
1.2004e-06
-2.26931e-07
-2.34685e-07
0.000264693
-1.23922e-06
-1.20303e-06
0.000266668
-0.000264693
2.29574e-07
2.37374e-07
2.83721e-09
0.00108439
-2.56697e-07
1.2392e-06
2.5559e-07
8.88938e-07
-2.51697e-07
-8.88613e-07
2.48811e-07
-1.24204e-06
-1.59702e-09
2.84554e-09
0.00108483
-2.59477e-07
1.24466e-06
2.58391e-07
8.94532e-07
-2.54538e-07
-8.94222e-07
2.51608e-07
0.00108439
-1.66143e-09
-0.00108439
2.83967e-09
-1.23658e-06
2.55613e-07
-2.56677e-07
-8.88578e-07
2.48848e-07
-2.51669e-07
8.88982e-07
1.24467e-06
0.00108483
-1.6153e-09
-0.00108483
2.85695e-09
-1.24203e-06
2.58411e-07
-2.5946e-07
-8.94195e-07
2.51642e-07
-2.5451e-07
8.94562e-07
-2.29666e-07
-2.31964e-07
0.000264714
-1.20568e-06
0.000266697
-0.000264714
2.32361e-07
2.34648e-07
2.68997e-09
0.00108544
-2.54055e-07
1.20301e-06
2.53044e-07
8.91815e-07
-2.54508e-07
-8.91359e-07
2.51676e-07
-1.23666e-06
-1.59856e-09
2.85824e-09
0.0010845
-2.59472e-07
1.23925e-06
2.58363e-07
8.9166e-07
-2.54464e-07
-8.91358e-07
2.51588e-07
0.00108544
-1.79748e-09
-0.00108544
2.69401e-09
-1.20038e-06
2.53067e-07
-2.54037e-07
-8.91326e-07
2.5171e-07
-2.54476e-07
8.91847e-07
1.23927e-06
0.0010845
-1.62174e-09
-0.0010845
2.86275e-09
-1.23665e-06
2.58384e-07
-2.59456e-07
-8.91323e-07
2.5162e-07
-2.54433e-07
8.91686e-07
-1.60429e-09
2.85617e-09
0.0010843
-2.53921e-07
1.23385e-06
2.52838e-07
8.88956e-07
-2.51701e-07
2.4881e-07
-8.88658e-07
-1.78771e-09
-0.00108517
2.71971e-09
-1.203e-06
2.50262e-07
-2.5125e-07
-8.88614e-07
2.48947e-07
8.89072e-07
-2.51699e-07
1.23387e-06
0.0010843
-1.61821e-09
-0.0010843
2.85873e-09
-1.23126e-06
2.5286e-07
-2.53901e-07
-8.88632e-07
2.48841e-07
-2.51674e-07
8.88984e-07
-2.27108e-07
-2.34496e-07
0.000264675
-1.20026e-06
0.000266647
-0.000264675
2.29774e-07
2.37159e-07
-1.75168e-09
2.69924e-09
0.00108535
-2.51319e-07
1.20035e-06
2.50307e-07
8.89167e-07
-2.54487e-07
2.51668e-07
-8.8875e-07
-1.78585e-09
-0.00108483
2.69608e-09
-1.1976e-06
2.50278e-07
-2.51235e-07
-8.88445e-07
2.51615e-07
8.88953e-07
-2.54372e-07
1.20036e-06
0.00108534
-1.77849e-09
-0.00108534
2.70533e-09
-1.19773e-06
2.50325e-07
-2.51304e-07
-8.88707e-07
2.51705e-07
-2.54456e-07
8.8921e-07
-0.000264688
2.32089e-07
2.37392e-07
1.23657e-06
1.20037e-06
-2.26899e-07
-2.34653e-07
0.000264693
-1.23926e-06
-1.20308e-06
0.000266668
-0.000264693
2.29643e-07
2.37439e-07
2.7949e-09
0.00108439
-2.56665e-07
1.23923e-06
2.55623e-07
8.89002e-07
-2.5165e-07
-8.88562e-07
2.48868e-07
-1.24202e-06
-1.74461e-09
2.8145e-09
0.00108483
-2.59447e-07
1.24468e-06
2.58422e-07
8.94589e-07
-2.5449e-07
-8.94176e-07
2.51663e-07
0.00108439
-1.72673e-09
-0.00108439
2.81276e-09
-1.23654e-06
2.55653e-07
-2.5664e-07
-8.8853e-07
2.48917e-07
-2.51615e-07
8.89047e-07
1.24472e-06
0.00108483
-1.67718e-09
-0.00108483
2.82422e-09
-1.24198e-06
2.58455e-07
-2.59418e-07
-8.9415e-07
2.51707e-07
-2.5446e-07
8.94627e-07
-2.29633e-07
-2.31939e-07
0.000264714
-1.20573e-06
0.000266697
-0.000264714
2.32428e-07
2.34719e-07
2.64811e-09
0.00108544
-2.54023e-07
1.20304e-06
2.53079e-07
8.9187e-07
-2.54459e-07
-8.91312e-07
2.51729e-07
-1.23664e-06
-1.7341e-09
2.82726e-09
0.0010845
-2.59442e-07
1.23928e-06
2.58396e-07
8.91707e-07
-2.54416e-07
-8.91312e-07
2.51638e-07
0.00108544
-1.84362e-09
-0.00108544
2.65603e-09
-1.20033e-06
2.5311e-07
-2.53995e-07
-8.91284e-07
2.51771e-07
-2.54426e-07
8.91907e-07
1.23932e-06
0.0010845
-1.66916e-09
-0.0010845
2.82577e-09
-1.2366e-06
2.58431e-07
-2.59411e-07
-8.9129e-07
2.51681e-07
-2.5439e-07
8.91744e-07
-1.74668e-09
2.81242e-09
0.0010843
-2.53886e-07
1.23388e-06
2.52873e-07
8.89012e-07
-2.51655e-07
2.48864e-07
-8.88613e-07
-1.84787e-09
-0.00108517
2.68382e-09
-1.20295e-06
2.50305e-07
-2.51208e-07
-8.8857e-07
2.49014e-07
8.89136e-07
-2.51648e-07
1.23391e-06
0.0010843
-1.67413e-09
-0.0010843
2.82706e-09
-1.23121e-06
2.52904e-07
-2.53859e-07
-8.88589e-07
2.48906e-07
-2.51626e-07
8.89047e-07
-2.27077e-07
-2.34465e-07
0.000264675
-1.20031e-06
0.000266647
-0.000264674
2.29841e-07
2.37228e-07
-1.91414e-09
2.65818e-09
0.00108534
-2.5129e-07
1.20037e-06
2.50336e-07
8.8924e-07
-2.54434e-07
2.51729e-07
-8.88686e-07
-1.84973e-09
-0.00108483
2.6699e-09
-1.19756e-06
2.50321e-07
-2.51194e-07
-8.884e-07
2.5168e-07
8.89018e-07
-2.54322e-07
1.20041e-06
0.00108534
-1.84364e-09
-0.00108534
2.67274e-09
-1.19768e-06
2.50368e-07
-2.51263e-07
-8.88664e-07
2.51773e-07
-2.54403e-07
8.89273e-07
-0.000264687
2.32155e-07
2.3746e-07
1.23658e-06
1.20038e-06
-2.26872e-07
-2.34628e-07
0.000264693
-1.2394e-06
-1.20321e-06
0.000266667
-0.000264692
2.29766e-07
2.37563e-07
2.88114e-09
0.00108439
-2.56684e-07
1.23921e-06
2.55611e-07
8.89008e-07
-2.51652e-07
-8.88561e-07
2.48885e-07
-1.24202e-06
-1.64929e-09
2.88994e-09
0.00108482
-2.59464e-07
1.24467e-06
2.58412e-07
8.94596e-07
-2.54493e-07
-8.94173e-07
2.5168e-07
0.00108439
-2.11303e-09
-0.00108439
2.58101e-09
-1.23643e-06
2.55763e-07
-2.56562e-07
-8.8843e-07
2.49043e-07
-2.51535e-07
8.89187e-07
1.24485e-06
0.00108482
-2.06602e-09
-0.00108482
2.58804e-09
-1.24188e-06
2.58564e-07
-2.59341e-07
-8.94046e-07
2.51834e-07
-2.5438e-07
8.94768e-07
-2.29606e-07
-2.31908e-07
0.000264714
-1.20586e-06
0.000266696
-0.000264713
2.3255e-07
2.34843e-07
2.7302e-09
0.00108544
-2.54041e-07
1.20302e-06
2.53067e-07
8.91874e-07
-2.54463e-07
-8.91312e-07
2.51742e-07
-1.23664e-06
-1.64341e-09
2.89747e-09
0.0010845
-2.59456e-07
1.23926e-06
2.58389e-07
8.91717e-07
-2.54421e-07
-8.91311e-07
2.51656e-07
0.00108544
-2.23469e-09
-0.00108544
2.4265e-09
-1.20023e-06
2.53218e-07
-2.53918e-07
-8.91179e-07
2.51897e-07
-2.54342e-07
8.92047e-07
1.23946e-06
0.0010845
-2.06353e-09
-0.0010845
2.58475e-09
-1.2365e-06
2.58543e-07
-2.59333e-07
-8.91184e-07
2.51809e-07
-2.54307e-07
8.91888e-07
-1.64751e-09
2.89576e-09
0.0010843
-2.53904e-07
1.23386e-06
2.5286e-07
8.89017e-07
-2.5166e-07
2.48877e-07
-8.88612e-07
-2.25087e-09
-0.00108517
2.45255e-09
-1.20285e-06
2.50412e-07
-2.51133e-07
-8.8846e-07
2.49145e-07
8.89283e-07
-2.51561e-07
1.23405e-06
0.00108429
-2.07899e-09
-0.0010843
2.59182e-09
-1.2311e-06
2.53014e-07
-2.53782e-07
-8.88481e-07
2.49039e-07
-2.51539e-07
8.89194e-07
-2.27049e-07
-2.34436e-07
0.000264674
-1.20045e-06
0.000266646
-0.000264674
2.29964e-07
2.37356e-07
-1.81846e-09
2.74165e-09
0.00108534
-2.51308e-07
1.20036e-06
2.50324e-07
8.89243e-07
-2.54437e-07
2.51745e-07
-8.88688e-07
-2.26133e-09
-0.00108483
2.43243e-09
-1.19745e-06
2.50431e-07
-2.51116e-07
-8.88288e-07
2.51814e-07
8.89167e-07
-2.54234e-07
1.20055e-06
0.00108534
-2.24521e-09
-0.00108534
2.44093e-09
-1.19758e-06
2.50479e-07
-2.51186e-07
-8.88559e-07
2.51906e-07
-2.54317e-07
8.89416e-07
-0.000264687
2.32281e-07
2.37585e-07
1.23657e-06
1.20037e-06
-2.2685e-07
-2.34606e-07
0.000264692
-1.2389e-06
-1.20272e-06
0.000266668
-0.000264693
2.29105e-07
2.36896e-07
3.02506e-09
0.00108439
-2.56727e-07
1.23918e-06
2.55535e-07
8.88923e-07
-2.5171e-07
-8.88605e-07
2.48789e-07
-1.24202e-06
-1.36389e-09
3.02885e-09
0.00108482
-2.59507e-07
1.24464e-06
2.58337e-07
8.94515e-07
-2.5455e-07
-8.94214e-07
2.51587e-07
0.00108439
-9.72552e-11
-0.00108439
3.44697e-09
-1.23702e-06
2.55247e-07
-2.57184e-07
-8.89247e-07
2.48161e-07
-2.52497e-07
8.88465e-07
1.24436e-06
0.00108483
-5.71455e-11
-0.00108483
3.42763e-09
-1.24246e-06
2.58053e-07
-2.59956e-07
-8.94865e-07
2.50952e-07
-2.55342e-07
8.94049e-07
-2.29585e-07
-2.31887e-07
0.000264713
-1.20538e-06
0.000266697
-0.000264714
2.31897e-07
2.34178e-07
2.87404e-09
0.00108544
-2.54085e-07
1.203e-06
2.52992e-07
8.9179e-07
-2.54519e-07
-8.91353e-07
2.51643e-07
-1.23663e-06
-1.36182e-09
3.03367e-09
0.0010845
-2.59496e-07
1.23924e-06
2.58317e-07
8.91636e-07
-2.54478e-07
-8.9135e-07
2.51561e-07
0.00108544
-2.34015e-10
-0.00108544
3.26599e-09
-1.20081e-06
2.52709e-07
-2.54535e-07
-8.92002e-07
2.51017e-07
-2.55307e-07
8.91328e-07
1.23895e-06
0.0010845
-1.75647e-11
-0.0010845
3.46687e-09
-1.23709e-06
2.5802e-07
-2.59958e-07
-8.92007e-07
2.50921e-07
-2.55272e-07
8.91162e-07
-1.37302e-09
3.03462e-09
0.00108429
-2.53945e-07
1.23384e-06
2.52788e-07
8.8894e-07
-2.51709e-07
2.48788e-07
-8.88648e-07
-2.35467e-10
-0.00108517
3.28439e-09
-1.20342e-06
2.49913e-07
-2.5174e-07
-8.89295e-07
2.48251e-07
8.88545e-07
-2.52533e-07
1.23356e-06
0.0010843
-5.35226e-11
-0.0010843
3.44552e-09
-1.23169e-06
2.52505e-07
-2.54394e-07
-8.89304e-07
2.48147e-07
-2.52509e-07
8.88468e-07
-2.27027e-07
-2.3441e-07
0.000264674
-1.19995e-06
0.000266647
-0.000264674
2.29301e-07
2.36682e-07
-1.54183e-09
2.87973e-09
0.00108534
-2.51348e-07
1.20034e-06
2.50254e-07
8.89162e-07
-2.54488e-07
2.51656e-07
-8.88727e-07
-2.10455e-10
-0.00108483
3.29422e-09
-1.19804e-06
2.49919e-07
-2.51734e-07
-8.89128e-07
2.50911e-07
8.88424e-07
-2.55214e-07
1.20006e-06
0.00108534
-2.02779e-10
-0.00108534
3.27191e-09
-1.19815e-06
2.4998e-07
-2.51791e-07
-8.89399e-07
2.51004e-07
-2.55297e-07
8.88675e-07
-0.000264687
2.31628e-07
2.3692e-07
1.23689e-06
1.20069e-06
-2.27348e-07
-2.35107e-07
0.000264693
-1.23927e-06
-1.2031e-06
0.000266669
-0.000264694
2.29612e-07
2.37398e-07
3.19245e-09
0.00108439
-2.57036e-07
1.23906e-06
2.55427e-07
8.88645e-07
-2.5238e-07
-8.89112e-07
2.48348e-07
-1.24233e-06
-5.98566e-10
3.16048e-09
0.00108483
-2.59809e-07
1.24452e-06
2.58233e-07
8.94249e-07
-2.55216e-07
-8.94713e-07
2.51152e-07
0.00108439
-1.66778e-09
-0.00108439
2.80888e-09
-1.2366e-06
2.55674e-07
-2.56705e-07
-8.88668e-07
2.48814e-07
-2.51846e-07
8.89011e-07
1.24475e-06
0.00108483
-1.72398e-09
-0.00108483
2.69596e-09
-1.24202e-06
2.58514e-07
-2.59448e-07
-8.94254e-07
2.51659e-07
-2.54634e-07
8.94621e-07
-2.3007e-07
-2.32386e-07
0.000264714
-1.20579e-06
0.000266698
-0.000264715
2.32456e-07
2.34688e-07
3.00543e-09
0.00108544
-2.54388e-07
1.20288e-06
2.52887e-07
8.91516e-07
-2.55186e-07
-8.91858e-07
2.51208e-07
-1.23696e-06
-5.28121e-10
3.22196e-09
0.0010845
-2.59815e-07
1.23911e-06
2.58198e-07
8.91352e-07
-2.55159e-07
-8.91865e-07
2.51108e-07
0.00108544
-1.73685e-09
-0.00108544
2.59121e-09
-1.20039e-06
2.53142e-07
-2.54052e-07
-8.91433e-07
2.5166e-07
-2.54665e-07
8.91859e-07
1.23933e-06
0.0010845
-1.58837e-09
-0.0010845
2.79628e-09
-1.23667e-06
2.58453e-07
-2.59477e-07
-8.9143e-07
2.51577e-07
-2.54624e-07
8.91707e-07
-5.82436e-10
3.19335e-09
0.0010843
-2.54249e-07
1.23372e-06
2.52681e-07
8.88665e-07
-2.52386e-07
2.48344e-07
-8.89155e-07
-1.78597e-09
-0.00108517
2.54105e-09
-1.20297e-06
2.50378e-07
-2.51225e-07
-8.88716e-07
2.48905e-07
8.89086e-07
-2.51883e-07
1.23392e-06
0.0010843
-1.59833e-09
-0.0010843
2.8286e-09
-1.23128e-06
2.5292e-07
-2.5393e-07
-8.8873e-07
2.48795e-07
-2.51863e-07
8.89006e-07
-2.2753e-07
-2.3492e-07
0.000264675
-1.20033e-06
0.000266648
-0.000264675
2.29809e-07
2.37187e-07
-6.94677e-10
3.01056e-09
0.00108535
-2.51643e-07
1.20022e-06
2.50156e-07
8.88868e-07
-2.55178e-07
2.51196e-07
-8.89253e-07
-1.74169e-09
-0.00108483
2.6217e-09
-1.19762e-06
2.5035e-07
-2.51256e-07
-8.88548e-07
2.51565e-07
8.88967e-07
-2.54564e-07
1.20043e-06
0.00108535
-1.71351e-09
-0.00108535
2.62868e-09
-1.19774e-06
2.50394e-07
-2.51324e-07
-8.88819e-07
2.51654e-07
-2.54651e-07
8.8922e-07
-0.000264688
2.3212e-07
2.37414e-07
1.23661e-06
1.20039e-06
-2.26927e-07
-2.34694e-07
0.000264694
-1.23923e-06
-1.20305e-06
0.000266669
-0.000264694
2.29557e-07
2.3735e-07
2.82584e-09
0.00108439
-2.56713e-07
1.23926e-06
2.55656e-07
8.89006e-07
-2.51803e-07
-8.88654e-07
2.48833e-07
-1.24202e-06
-1.73682e-09
2.70772e-09
0.00108483
-2.59452e-07
1.24474e-06
2.58489e-07
8.94617e-07
-2.54601e-07
-8.94238e-07
2.51657e-07
0.00108439
-1.57784e-09
-0.00108439
2.8758e-09
-1.23664e-06
2.55613e-07
-2.56759e-07
-8.88683e-07
2.48811e-07
-2.51815e-07
8.88979e-07
1.24469e-06
0.00108483
-1.51688e-09
-0.00108483
2.8683e-09
-1.24208e-06
2.58417e-07
-2.59539e-07
-8.94307e-07
2.51604e-07
-2.54664e-07
8.94559e-07
-2.29604e-07
-2.31963e-07
0.000264715
-1.2057e-06
0.000266698
-0.000264714
2.32345e-07
2.34634e-07
2.61404e-09
0.00108544
-2.54058e-07
1.20309e-06
2.53123e-07
8.9186e-07
-2.54623e-07
-8.91418e-07
2.51679e-07
-1.23667e-06
-1.61889e-09
2.81638e-09
0.0010845
-2.59484e-07
1.23932e-06
2.58435e-07
8.91712e-07
-2.54575e-07
-8.91409e-07
2.51601e-07
0.00108544
-1.67408e-09
-0.00108544
2.69959e-09
-1.20044e-06
2.53073e-07
-2.54111e-07
-8.9144e-07
2.51662e-07
-2.5463e-07
8.91838e-07
1.23928e-06
0.0010845
-1.51448e-09
-0.0010845
2.88841e-09
-1.23671e-06
2.5839e-07
-2.59532e-07
-8.9144e-07
2.51576e-07
-2.54589e-07
8.91679e-07
-1.63323e-09
2.83919e-09
0.0010843
-2.53933e-07
1.23391e-06
2.52906e-07
8.89012e-07
-2.51817e-07
2.4882e-07
-8.88711e-07
-1.69236e-09
-0.00108517
2.71882e-09
-1.20305e-06
2.50271e-07
-2.51323e-07
-8.88724e-07
2.48904e-07
8.89067e-07
-2.51854e-07
1.23388e-06
0.0010843
-1.52533e-09
-0.0010843
2.89517e-09
-1.23131e-06
2.52862e-07
-2.53979e-07
-8.88739e-07
2.48799e-07
-2.51825e-07
8.88981e-07
-2.27106e-07
-2.34503e-07
0.000264675
-1.20028e-06
0.000266648
-0.000264675
2.29756e-07
2.37139e-07
-1.74868e-09
2.63938e-09
0.00108535
-2.51329e-07
1.20042e-06
2.50378e-07
8.89226e-07
-2.54603e-07
2.5168e-07
-8.88798e-07
-1.68557e-09
-0.00108483
2.71887e-09
-1.19766e-06
2.50284e-07
-2.51311e-07
-8.88553e-07
2.51569e-07
8.88946e-07
-2.54525e-07
1.20038e-06
0.00108535
-1.64461e-09
-0.00108535
2.71657e-09
-1.19778e-06
2.50331e-07
-2.51379e-07
-8.88829e-07
2.51656e-07
-2.54613e-07
8.89192e-07
-0.000264688
2.32071e-07
2.37369e-07
1.23665e-06
1.20045e-06
-2.26984e-07
-2.34743e-07
0.000264694
-1.23922e-06
-1.20304e-06
0.000266669
-0.000264694
2.29547e-07
2.37344e-07
2.88647e-09
0.00108439
-2.56767e-07
1.23922e-06
2.55607e-07
8.88961e-07
-2.51827e-07
-8.88701e-07
2.48798e-07
-1.24209e-06
-1.48805e-09
2.8784e-09
0.00108483
-2.59545e-07
1.24468e-06
2.58411e-07
8.94554e-07
-2.54667e-07
-8.94312e-07
2.51597e-07
0.00108439
-1.52941e-09
-0.00108439
2.8958e-09
-1.23665e-06
2.55606e-07
-2.56769e-07
-8.88701e-07
2.48798e-07
-2.5183e-07
8.88965e-07
1.24467e-06
0.00108483
-1.43037e-09
-0.00108483
2.89031e-09
-1.2421e-06
2.58402e-07
-2.59554e-07
-8.94326e-07
2.51582e-07
-2.54683e-07
8.94539e-07
-2.29714e-07
-2.32019e-07
0.000264714
-1.20569e-06
0.000266698
-0.000264714
2.32333e-07
2.34622e-07
2.72356e-09
0.00108544
-2.54122e-07
1.20304e-06
2.53064e-07
8.91828e-07
-2.54639e-07
-8.91451e-07
2.51653e-07
-1.23672e-06
-1.48808e-09
2.91156e-09
0.0010845
-2.59542e-07
1.23928e-06
2.58381e-07
8.91671e-07
-2.54597e-07
-8.91449e-07
2.51568e-07
0.00108544
-1.63518e-09
-0.00108544
2.73207e-09
-1.20045e-06
2.53061e-07
-2.54127e-07
-8.91454e-07
2.51653e-07
-2.54643e-07
8.91827e-07
1.23927e-06
0.0010845
-1.46358e-09
-0.0010845
2.91543e-09
-1.23672e-06
2.58379e-07
-2.59546e-07
-8.91458e-07
2.51564e-07
-2.54604e-07
8.91665e-07
-1.50278e-09
2.90091e-09
0.0010843
-2.53986e-07
1.23388e-06
2.52858e-07
8.88975e-07
-2.51834e-07
2.48791e-07
-8.88748e-07
-1.63598e-09
-0.00108517
2.74618e-09
-1.20306e-06
2.50259e-07
-2.51337e-07
-8.88739e-07
2.48892e-07
8.89053e-07
-2.51867e-07
1.23388e-06
0.0010843
-1.47199e-09
-0.0010843
2.90634e-09
-1.23132e-06
2.52859e-07
-2.53987e-07
-8.8876e-07
2.48783e-07
-2.51845e-07
8.88964e-07
-2.27161e-07
-2.34552e-07
0.000264675
-1.20027e-06
0.000266648
-0.000264675
2.29747e-07
2.3713e-07
-1.60786e-09
2.72272e-09
0.00108535
-2.51387e-07
1.20037e-06
2.50324e-07
8.89183e-07
-2.54624e-07
2.51646e-07
-8.8884e-07
-1.65546e-09
-0.00108483
2.7427e-09
-1.19767e-06
2.50276e-07
-2.51324e-07
-8.88566e-07
2.51562e-07
8.88936e-07
-2.54536e-07
1.20036e-06
0.00108535
-1.49667e-09
-0.00108535
2.72411e-09
-1.1978e-06
2.50316e-07
-2.51396e-07
-8.88859e-07
2.51629e-07
-2.54642e-07
8.89165e-07
-0.000264688
2.32058e-07
2.37363e-07
1.23665e-06
1.20045e-06
-2.26991e-07
-2.34746e-07
0.000264694
-1.23922e-06
-1.20303e-06
0.000266669
-0.000264694
2.29544e-07
2.37343e-07
2.89783e-09
0.00108439
-2.56771e-07
1.23922e-06
2.55604e-07
8.88954e-07
-2.51835e-07
-8.88709e-07
2.48793e-07
-1.2421e-06
-1.42328e-09
2.8915e-09
0.00108483
-2.59555e-07
1.24467e-06
2.58402e-07
8.94539e-07
-2.54684e-07
-8.94327e-07
2.51581e-07
0.00108439
-1.52742e-09
-0.00108439
2.89648e-09
-1.23665e-06
2.55606e-07
-2.56769e-07
-8.88701e-07
2.48797e-07
-2.51831e-07
8.88965e-07
1.24467e-06
0.00108483
-1.41828e-09
-0.00108483
2.89069e-09
-1.2421e-06
2.58403e-07
-2.59552e-07
-8.94327e-07
2.5158e-07
-2.54686e-07
8.94538e-07
-2.29724e-07
-2.32028e-07
0.000264714
-1.20569e-06
0.000266698
-0.000264714
2.32334e-07
2.34621e-07
2.74132e-09
0.00108544
-2.5413e-07
1.20303e-06
2.53058e-07
8.91823e-07
-2.54646e-07
-8.91458e-07
2.51649e-07
-1.23672e-06
-1.46007e-09
2.92579e-09
0.0010845
-2.59549e-07
1.23927e-06
2.58375e-07
8.91665e-07
-2.54604e-07
-8.91457e-07
2.51563e-07
0.00108544
-1.63018e-09
-0.00108544
2.74049e-09
-1.20045e-06
2.53058e-07
-2.5413e-07
-8.91455e-07
2.51651e-07
-2.54644e-07
8.91827e-07
1.23927e-06
0.0010845
-1.4565e-09
-0.0010845
2.91819e-09
-1.23672e-06
2.58377e-07
-2.59548e-07
-8.91458e-07
2.51563e-07
-2.54606e-07
8.91665e-07
-1.4778e-09
2.90257e-09
0.0010843
-2.53986e-07
1.23388e-06
2.5286e-07
8.88964e-07
-2.51846e-07
2.48781e-07
-8.88761e-07
-1.63397e-09
-0.00108517
2.74281e-09
-1.20306e-06
2.50262e-07
-2.51335e-07
-8.8874e-07
2.48892e-07
8.89053e-07
-2.51867e-07
1.23388e-06
0.0010843
-1.47481e-09
-0.0010843
2.89831e-09
-1.23132e-06
2.52863e-07
-2.53982e-07
-8.8876e-07
2.48782e-07
-2.51845e-07
8.88964e-07
-2.27167e-07
-2.34558e-07
0.000264675
-1.20027e-06
0.000266648
-0.000264675
2.29746e-07
2.37129e-07
-1.48427e-09
2.71997e-09
0.00108535
-2.51397e-07
1.20036e-06
2.50315e-07
8.89163e-07
-2.54645e-07
2.51627e-07
-8.88861e-07
-1.6621e-09
-0.00108483
2.74629e-09
-1.19767e-06
2.50274e-07
-2.51325e-07
-8.88564e-07
2.51563e-07
8.88938e-07
-2.54534e-07
1.20036e-06
0.00108535
-1.4859e-09
-0.00108535
2.727e-09
-1.1978e-06
2.50316e-07
-2.51398e-07
-8.88862e-07
2.51626e-07
-2.54647e-07
8.89163e-07
-0.000264688
2.32058e-07
2.37365e-07
1.23665e-06
1.20046e-06
-2.26994e-07
-2.34747e-07
0.000264694
-1.23922e-06
-1.20303e-06
0.000266669
-0.000264694
2.29543e-07
2.37342e-07
2.90003e-09
0.00108439
-2.56772e-07
1.23922e-06
2.55603e-07
8.88954e-07
-2.51836e-07
-8.88709e-07
2.48792e-07
-1.2421e-06
-1.41325e-09
2.89301e-09
0.00108483
-2.59554e-07
1.24467e-06
2.58401e-07
8.94537e-07
-2.54687e-07
-8.94328e-07
2.51577e-07
0.00108439