/*--------------------------------*- C++ -*----------------------------------*\
| =========                 |                                                 |
| \\      /  F ield         | OpenFOAM: The Open Source CFD Toolbox           |
|  \\    /   O peration     | Version:  2206                                  |
|   \\  /    A nd           | Website:  www.openfoam.com                      |
|    \\/     M anipulation  |                                                 |
\*---------------------------------------------------------------------------*/
FoamFile
{
    version     2.0;
    format      ascii;
    arch        "LSB;label=32;scalar=64";
    class       volScalarField;
    location    "5";
    object      p;
}
// * * * * * * * * * * * * * * * * * * * * * * * * * * * * * * * * * * * * * //

dimensions      [0 2 -2 0 0 0 0];

internalField   nonuniform List<scalar> 
171728
(
7.6064e-05
6.85695e-05
7.20246e-05
7.20227e-05
7.79267e-05
6.01473e-05
7.78333e-05
7.20199e-05
7.2018e-05
7.78692e-05
7.20234e-05
7.20278e-05
7.20404e-05
7.78574e-05
7.20269e-05
7.83713e-05
7.83619e-05
5.9298e-05
5.90698e-05
5.90594e-05
5.75397e-05
8.22651e-05
5.78854e-05
8.2966e-05
8.16956e-05
5.86824e-05
5.7643e-05
8.22251e-05
5.79259e-05
8.27926e-05
6.85663e-05
6.85741e-05
6.85765e-05
6.52102e-05
7.18647e-05
7.1512e-05
7.24646e-05
6.86165e-05
7.19522e-05
7.56248e-05
8.16889e-05
5.87064e-05
6.52924e-05
7.15168e-05
7.18496e-05
7.24676e-05
7.1953e-05
6.86561e-05
7.56721e-05
8.02534e-05
8.02181e-05
6.10412e-05
6.07904e-05
6.0793e-05
7.98883e-05
5.6921e-05
7.98705e-05
5.69112e-05
7.70041e-05
5.99353e-05
5.98871e-05
7.93315e-05
7.92985e-05
5.7788e-05
8.08574e-05
5.77516e-05
8.08148e-05
8.16934e-05
5.87201e-05
8.16649e-05
5.87234e-05
8.01685e-05
8.01492e-05
6.11285e-05
6.08685e-05
6.08625e-05
5.75295e-05
8.2252e-05
5.78773e-05
8.29612e-05
6.52012e-05
7.18304e-05
7.15052e-05
7.24701e-05
6.86484e-05
7.19482e-05
7.55089e-05
6.51701e-05
7.18306e-05
7.14965e-05
7.24638e-05
6.86489e-05
7.19447e-05
7.55028e-05
8.01801e-05
8.01886e-05
6.10991e-05
6.08305e-05
6.08356e-05
8.17074e-05
5.86833e-05
6.52129e-05
7.18049e-05
7.15048e-05
7.2465e-05
6.86935e-05
7.19484e-05
7.54213e-05
5.7626e-05
8.22448e-05
5.79036e-05
8.28247e-05
6.52225e-05
7.15065e-05
7.1836e-05
7.24738e-05
7.19501e-05
6.86734e-05
7.5461e-05
5.73417e-05
8.22776e-05
5.78589e-05
8.31671e-05
6.50337e-05
7.15121e-05
7.19453e-05
7.24792e-05
7.19538e-05
6.85458e-05
7.55321e-05
5.72736e-05
8.23311e-05
5.78217e-05
8.31678e-05
8.01745e-05
8.01734e-05
6.11113e-05
6.08523e-05
6.08578e-05
8.16922e-05
5.87117e-05
6.50339e-05
7.14962e-05
7.19022e-05
7.24766e-05
7.19501e-05
6.86104e-05
7.53538e-05
5.7467e-05
8.22585e-05
5.7889e-05
8.31263e-05
5.73881e-05
8.22947e-05
5.78649e-05
8.31249e-05
8.17726e-05
5.86406e-05
8.17345e-05
5.86509e-05
8.17956e-05
5.85528e-05
5.85539e-05
7.85901e-05
7.85849e-05
5.53127e-05
5.96756e-05
8.07222e-05
7.33787e-05
5.86406e-05
6.27912e-05
7.6006e-05
5.45993e-05
5.97196e-05
8.07125e-05
7.33559e-05
5.8653e-05
6.2825e-05
7.59837e-05
5.45968e-05
5.49141e-05
7.80998e-05
7.80936e-05
5.81509e-05
5.81576e-05
8.13143e-05
7.64988e-05
6.32047e-05
7.88593e-05
5.50349e-05
7.38873e-05
6.00451e-05
8.11992e-05
7.64792e-05
6.32284e-05
7.88433e-05
5.50071e-05
7.38712e-05
6.01e-05
8.11871e-05
8.06547e-05
6.00027e-05
5.79155e-05
8.33166e-05
8.04463e-05
8.33799e-05
5.99896e-05
5.90383e-05
5.74763e-05
8.141e-05
5.78915e-05
8.07858e-05
8.11885e-05
5.82738e-05
8.26815e-05
8.18263e-05
5.9448e-05
5.95439e-05
5.70357e-05
8.00573e-05
8.29898e-05
5.95488e-05
5.74215e-05
8.02576e-05
5.82333e-05
8.21156e-05
8.05509e-05
5.80835e-05
6.00532e-05
8.31709e-05
8.31572e-05
8.03625e-05
6.00558e-05
5.90606e-05
5.74774e-05
8.13414e-05
5.79035e-05
8.0712e-05
8.1102e-05
5.83642e-05
8.2623e-05
8.17251e-05
5.95156e-05
5.9598e-05
5.71636e-05
8.28094e-05
7.99656e-05
5.75932e-05
5.95966e-05
8.01627e-05
5.82629e-05
8.20985e-05
8.374e-05
6.02372e-05
6.02427e-05
8.05071e-05
8.05045e-05
5.6985e-05
6.10069e-05
8.26491e-05
7.52981e-05
6.03511e-05
7.79702e-05
5.63631e-05
6.44073e-05
6.11313e-05
8.25868e-05
7.52879e-05
6.0326e-05
7.79631e-05
5.62615e-05
6.4439e-05
5.64785e-05
8.00048e-05
8.00021e-05
8.32194e-05
5.97422e-05
5.97496e-05
7.85509e-05
6.49019e-05
8.06928e-05
5.6747e-05
8.30875e-05
7.57927e-05
6.16068e-05
7.85522e-05
6.49295e-05
8.06727e-05
5.67352e-05
8.30635e-05
7.57862e-05
6.16548e-05
5.64901e-05
8.03836e-05
5.65108e-05
8.03597e-05
5.56834e-05
7.90542e-05
7.90493e-05
8.22571e-05
5.89326e-05
5.89361e-05
7.74242e-05
5.60097e-05
6.39943e-05
7.97983e-05
6.06706e-05
7.48113e-05
8.21804e-05
7.74324e-05
5.58305e-05
6.40248e-05
7.975e-05
6.08363e-05
7.47994e-05
8.21117e-05
8.27198e-05
5.93328e-05
5.93373e-05
5.60794e-05
7.95143e-05
7.95111e-05
6.03201e-05
7.43521e-05
8.16884e-05
5.95041e-05
7.69596e-05
6.35885e-05
5.55664e-05
6.047e-05
7.4337e-05
8.16505e-05
5.94569e-05
7.69539e-05
6.36179e-05
5.54156e-05
8.13216e-05
5.73522e-05
8.12642e-05
5.73071e-05
5.82928e-05
8.21147e-05
5.82765e-05
8.20822e-05
8.3526e-05
6.03789e-05
6.03775e-05
8.03187e-05
8.03184e-05
5.71366e-05
6.1398e-05
8.25059e-05
6.04358e-05
7.51852e-05
6.45655e-05
5.64287e-05
7.7789e-05
6.1488e-05
8.24858e-05
6.04148e-05
7.51758e-05
6.45862e-05
5.63683e-05
7.77707e-05
7.82198e-05
6.50219e-05
8.05949e-05
5.68542e-05
7.56133e-05
6.18857e-05
8.29346e-05
7.82086e-05
6.50395e-05
8.05742e-05
5.68195e-05
7.56081e-05
6.19427e-05
8.29194e-05
5.66753e-05
7.98861e-05
7.98856e-05
5.99215e-05
5.99195e-05
8.30919e-05
8.06375e-05
5.99999e-05
5.79539e-05
8.33069e-05
8.04396e-05
8.33418e-05
5.99945e-05
5.89996e-05
5.74309e-05
8.13785e-05
5.78466e-05
8.07646e-05
8.11609e-05
5.82919e-05
8.26655e-05
8.17801e-05
5.94518e-05
5.95311e-05
5.70358e-05
8.00558e-05
8.30015e-05
5.95445e-05
5.74372e-05
8.0256e-05
8.35707e-05
6.0349e-05
6.0348e-05
8.03623e-05
8.03659e-05
5.71111e-05
6.14106e-05
8.25267e-05
6.03777e-05
7.52233e-05
6.45483e-05
5.63347e-05
7.78405e-05
6.14016e-05
8.25342e-05
6.03791e-05
7.52333e-05
5.63435e-05
6.45402e-05
7.78523e-05
7.8263e-05
6.50131e-05
8.06029e-05
5.67956e-05
7.56449e-05
8.29506e-05
6.18881e-05
7.82801e-05
6.49984e-05
8.06149e-05
5.68067e-05
8.29585e-05
7.56585e-05
6.18634e-05
5.66477e-05
7.99395e-05
7.99423e-05
5.98849e-05
5.98832e-05
8.31501e-05
5.82285e-05
8.21343e-05
8.05584e-05
6.00445e-05
5.80224e-05
8.31858e-05
8.03689e-05
8.31784e-05
6.0031e-05
5.90339e-05
5.74583e-05
8.13817e-05
5.78682e-05
8.07431e-05
8.11176e-05
5.83338e-05
8.26325e-05
8.17472e-05
5.94887e-05
5.95782e-05
5.71369e-05
7.99784e-05
8.28588e-05
5.9587e-05
5.75429e-05
8.01859e-05
8.07192e-05
5.77801e-05
5.99263e-05
8.35213e-05
8.34686e-05
8.05467e-05
5.99191e-05
5.89514e-05
5.7408e-05
8.14154e-05
5.78004e-05
8.07988e-05
8.12212e-05
5.82467e-05
8.27041e-05
8.18413e-05
5.9406e-05
5.94493e-05
5.67201e-05
8.30635e-05
8.01415e-05
5.73008e-05
5.94292e-05
8.03033e-05
8.07409e-05
5.99136e-05
5.77648e-05
8.36254e-05
8.0573e-05
8.34681e-05
5.9906e-05
5.8936e-05
5.73832e-05
8.14878e-05
5.77879e-05
8.08544e-05
8.12785e-05
5.82206e-05
8.27544e-05
8.19119e-05
5.93804e-05
5.94431e-05
5.67316e-05
8.01471e-05
8.30332e-05
5.94311e-05
5.72874e-05
8.03107e-05
8.35614e-05
6.03668e-05
6.0371e-05
8.03544e-05
8.03541e-05
5.71292e-05
6.14607e-05
8.25133e-05
6.0404e-05
7.52074e-05
6.45777e-05
5.63635e-05
7.78114e-05
6.13879e-05
8.25183e-05
6.0389e-05
7.52222e-05
5.6354e-05
6.45488e-05
7.78582e-05
7.82377e-05
6.50348e-05
8.05936e-05
5.68136e-05
7.56331e-05
8.29423e-05
6.19322e-05
7.82805e-05
6.50127e-05
8.05994e-05
5.68196e-05
8.29466e-05
7.56479e-05
6.1862e-05
5.66681e-05
7.99277e-05
7.99267e-05
5.99052e-05
5.99056e-05
8.31355e-05
5.82356e-05
8.21144e-05
8.06758e-05
5.78406e-05
5.99771e-05
8.34094e-05
8.33963e-05
8.05013e-05
5.99648e-05
5.89415e-05
5.73996e-05
8.13989e-05
5.7772e-05
8.07796e-05
8.11777e-05
5.82995e-05
8.26645e-05
8.17857e-05
5.945e-05
5.94622e-05
5.67908e-05
8.3046e-05
8.012e-05
5.73152e-05
5.94615e-05
8.02863e-05
8.07204e-05
5.78327e-05
5.9963e-05
8.35173e-05
8.34642e-05
8.05312e-05
5.99543e-05
5.89468e-05
5.7387e-05
8.14505e-05
5.7786e-05
8.08234e-05
8.12257e-05
5.82819e-05
8.27149e-05
8.18342e-05
5.94354e-05
5.94742e-05
5.68584e-05
8.30462e-05
8.01342e-05
5.73324e-05
5.94806e-05
8.03026e-05
5.82072e-05
8.22034e-05
5.8189e-05
8.21774e-05
6.70501e-05
7.4648e-05
7.46501e-05
5.88855e-05
7.07711e-05
6.25407e-05
6.25277e-05
6.97651e-05
6.97686e-05
6.90154e-05
7.02096e-05
7.0214e-05
7.11483e-05
7.07049e-05
6.87391e-05
7.65099e-05
7.64856e-05
6.05754e-05
7.26286e-05
6.42438e-05
6.42114e-05
7.21419e-05
7.747e-05
6.38318e-05
6.37793e-05
6.83035e-05
7.60504e-05
7.60232e-05
6.88018e-05
7.64209e-05
7.64163e-05
6.06749e-05
6.43215e-05
6.42893e-05
7.25413e-05
6.88008e-05
7.64464e-05
7.64392e-05
6.06325e-05
6.42691e-05
6.42602e-05
7.25718e-05
6.88121e-05
7.64431e-05
7.64292e-05
6.06502e-05
6.4297e-05
6.42722e-05
7.25678e-05
7.12342e-05
7.65344e-05
6.29604e-05
6.29402e-05
6.74756e-05
7.51131e-05
7.51122e-05
6.97662e-05
6.9777e-05
6.90094e-05
7.02127e-05
7.02136e-05
7.11487e-05
7.07003e-05
6.97701e-05
6.9772e-05
6.90201e-05
7.02194e-05
7.0215e-05
7.11418e-05
7.07049e-05
6.97733e-05
6.97725e-05
6.9022e-05
7.02287e-05
7.02201e-05
7.11333e-05
7.07031e-05
8.02193e-05
6.54419e-05
5.82711e-05
7.58725e-05
7.54583e-05
8.0298e-05
5.87854e-05
5.80254e-05
8.01766e-05
6.81705e-05
7.58501e-05
5.82101e-05
6.46669e-05
8.02187e-05
8.06279e-05
6.50673e-05
7.22944e-05
5.86698e-05
8.06013e-05
7.63202e-05
5.85099e-05
5.83085e-05
6.45913e-05
7.50275e-05
7.95976e-05
6.49989e-05
5.80226e-05
7.98243e-05
8.01875e-05
5.81904e-05
6.54746e-05
7.57932e-05
8.038e-05
7.54186e-05
5.87952e-05
5.80857e-05
8.01538e-05
6.81594e-05
7.59295e-05
5.82125e-05
6.4567e-05
8.01451e-05
8.06442e-05
6.52158e-05
7.22299e-05
5.86745e-05
8.05874e-05
7.61297e-05
5.85037e-05
5.82987e-05
6.45399e-05
7.93883e-05
7.50181e-05
5.82993e-05
6.50071e-05
7.98327e-05
7.3132e-05
7.83725e-05
6.4682e-05
6.46672e-05
7.69547e-05
7.69448e-05
6.92124e-05
6.78747e-05
5.97231e-05
7.55817e-05
7.55682e-05
7.16877e-05
6.34017e-05
6.33562e-05
7.29798e-05
7.82695e-05
6.47643e-05
6.47419e-05
6.92544e-05
7.68585e-05
7.68558e-05
8.01873e-05
6.5496e-05
5.84139e-05
7.58871e-05
7.54121e-05
8.01126e-05
5.88139e-05
5.8075e-05
8.01439e-05
6.82493e-05
7.58186e-05
6.48031e-05
5.82551e-05
8.01584e-05
8.05286e-05
6.5012e-05
7.22601e-05
5.87113e-05
7.63841e-05
8.05706e-05
5.86216e-05
5.83501e-05
6.47301e-05
7.49984e-05
7.95986e-05
6.50698e-05
5.80262e-05
7.97776e-05
8.01988e-05
6.54957e-05
5.84911e-05
7.59073e-05
7.53923e-05
8.0005e-05
5.88259e-05
5.80095e-05
8.01473e-05
6.81994e-05
7.58031e-05
6.47177e-05
5.82176e-05
8.0181e-05
8.05431e-05
6.50913e-05
7.22457e-05
5.86959e-05
7.62567e-05
5.85694e-05
8.05698e-05
5.83698e-05
6.47269e-05
7.49856e-05
7.96453e-05
6.50492e-05
5.79217e-05
7.97521e-05
7.30021e-05
7.82989e-05
6.47145e-05
6.47295e-05
7.68695e-05
7.68781e-05
6.92477e-05
8.01502e-05
6.55415e-05
5.85035e-05
7.58588e-05
7.53398e-05
7.99851e-05
5.88704e-05
5.81228e-05
8.01131e-05
6.82409e-05
7.58393e-05
6.47021e-05
5.82711e-05
8.01141e-05
8.05675e-05
6.51741e-05
7.22027e-05
5.87222e-05
7.61672e-05
8.05481e-05
5.85672e-05
5.84114e-05
6.47765e-05
7.49347e-05
7.96587e-05
6.50921e-05
5.79652e-05
7.97192e-05
8.01461e-05
5.84405e-05
6.55249e-05
7.58464e-05
8.00982e-05
7.53379e-05
5.88579e-05
5.81696e-05
8.01283e-05
6.82197e-05
7.59421e-05
6.46244e-05
5.82696e-05
8.00772e-05
8.06222e-05
6.51465e-05
7.22117e-05
5.87128e-05
7.61636e-05
5.85342e-05
8.057e-05
5.83821e-05
6.47482e-05
7.95422e-05
7.49596e-05
5.8091e-05
6.50778e-05
7.97524e-05
8.02867e-05
5.85204e-05
6.54404e-05
7.61049e-05
7.99506e-05
7.54761e-05
5.87445e-05
5.79323e-05
8.02635e-05
6.81104e-05
7.58734e-05
5.81769e-05
6.46711e-05
8.03486e-05
8.06198e-05
6.50353e-05
7.23837e-05
5.86398e-05
8.06608e-05
7.63555e-05
5.8532e-05
5.83071e-05
6.46939e-05
7.97936e-05
7.50479e-05
5.78246e-05
6.49824e-05
7.98138e-05
7.30021e-05
7.829e-05
6.47266e-05
6.47589e-05
7.68664e-05
7.68788e-05
6.92599e-05
8.02652e-05
5.86697e-05
6.54809e-05
7.61187e-05
7.97788e-05
7.54481e-05
5.88015e-05
5.80105e-05
8.01934e-05
6.81264e-05
7.59112e-05
5.81772e-05
6.46213e-05
8.02163e-05
8.0671e-05
6.51393e-05
7.23242e-05
5.86554e-05
8.06376e-05
7.62522e-05
5.84831e-05
5.83396e-05
6.48928e-05
8.003e-05
7.50479e-05
5.74902e-05
6.4981e-05
7.9744e-05
3.8414e-05
4.18675e-05
4.18708e-05
4.76883e-05
4.01897e-05
4.36465e-05
4.3651e-05
4.94412e-05
4.19661e-05
4.54287e-05
4.54206e-05
5.12611e-05
4.37406e-05
4.72056e-05
4.71958e-05
5.29759e-05
4.55123e-05
4.89816e-05
4.89805e-05
5.48336e-05
4.72876e-05
5.07512e-05
5.07533e-05
5.65993e-05
4.90569e-05
5.25308e-05
5.25225e-05
5.84192e-05
5.08477e-05
5.43106e-05
5.43088e-05
6.02071e-05
5.26205e-05
5.60736e-05
5.60691e-05
6.18596e-05
5.43901e-05
5.78355e-05
5.78288e-05
6.35334e-05
5.61531e-05
5.96118e-05
5.96015e-05
6.53649e-05
5.79211e-05
6.13888e-05
6.13804e-05
6.72808e-05
5.97077e-05
6.31653e-05
6.31643e-05
6.91154e-05
6.14952e-05
6.49456e-05
6.49433e-05
7.08511e-05
6.32653e-05
6.67161e-05
6.67083e-05
7.24763e-05
6.50308e-05
6.84868e-05
6.84808e-05
7.4195e-05
6.67913e-05
7.02586e-05
7.02549e-05
4.76836e-05
3.18668e-05
4.18646e-05
4.18648e-05
4.32041e-05
4.32012e-05
4.76881e-05
3.18735e-05
4.18681e-05
4.18734e-05
4.32048e-05
4.32054e-05
4.18642e-05
4.32028e-05
4.32007e-05
4.76941e-05
3.18724e-05
4.18736e-05
4.32055e-05
4.32016e-05
3.18898e-05
4.94463e-05
3.36371e-05
4.36467e-05
4.36461e-05
4.49834e-05
4.49838e-05
4.94405e-05
3.36262e-05
4.36489e-05
4.36508e-05
4.49828e-05
4.49849e-05
4.36461e-05
4.49837e-05
4.49805e-05
4.94503e-05
3.36234e-05
4.36474e-05
4.49805e-05
4.49828e-05
3.35921e-05
5.12301e-05
3.54421e-05
4.54267e-05
4.5431e-05
4.6752e-05
4.67572e-05
5.12333e-05
3.54749e-05
4.54269e-05
4.54238e-05
4.67524e-05
4.67544e-05
4.54223e-05
4.67604e-05
4.67518e-05
5.12347e-05
3.54011e-05
4.54276e-05
4.67498e-05
4.67487e-05
3.54499e-05
5.29786e-05
3.71709e-05
4.71993e-05
4.72067e-05
4.85286e-05
4.85371e-05
5.29615e-05
3.71268e-05
4.71979e-05
4.72019e-05
4.85342e-05
4.85316e-05
4.71972e-05
4.85379e-05
4.85382e-05
5.30027e-05
3.72066e-05
4.71946e-05
4.8534e-05
4.85372e-05
3.71563e-05
5.47973e-05
3.89093e-05
4.89689e-05
4.89778e-05
5.03096e-05
5.03095e-05
5.48381e-05
3.89558e-05
4.89765e-05
4.89798e-05
5.03102e-05
5.03138e-05
4.89834e-05
5.03076e-05
5.031e-05
5.478e-05
3.88873e-05
4.89808e-05
5.03134e-05
5.03089e-05
3.89299e-05
5.66106e-05
4.06839e-05
5.07488e-05
5.07545e-05
5.20831e-05
5.20897e-05
5.6574e-05
4.06438e-05
5.0753e-05
5.07572e-05
5.20788e-05
5.20897e-05
5.07513e-05
5.20875e-05
5.20897e-05
5.6634e-05
4.06471e-05
5.07503e-05
5.20783e-05
5.2086e-05
4.06332e-05
5.83707e-05
4.24554e-05
5.25194e-05
5.25341e-05
5.38676e-05
5.38665e-05
5.84137e-05
4.24261e-05
5.25242e-05
5.25304e-05
5.38656e-05
5.38606e-05
5.25257e-05
5.38673e-05
5.38879e-05
5.84e-05
4.24405e-05
5.25288e-05
5.3863e-05
5.38697e-05
4.24162e-05
6.01654e-05
4.42979e-05
5.43145e-05
5.43167e-05
5.56335e-05
5.56398e-05
6.01812e-05
4.43441e-05
5.43091e-05
5.4308e-05
5.56325e-05
5.56389e-05
5.43157e-05
5.56349e-05
5.56306e-05
6.0179e-05
4.42855e-05
5.4306e-05
5.56321e-05
5.56301e-05
4.42993e-05
6.18526e-05
4.6202e-05
5.60734e-05
5.60753e-05
5.73864e-05
5.73881e-05
6.18259e-05
4.62112e-05
5.60717e-05
5.60701e-05
5.73876e-05
5.73836e-05
5.60716e-05
5.73943e-05
5.73868e-05
6.18707e-05
4.61535e-05
5.60697e-05
5.73853e-05
5.73832e-05
4.61727e-05
6.35081e-05
4.79014e-05
5.78289e-05
5.78309e-05
5.9164e-05
5.91647e-05
6.35104e-05
4.7882e-05
5.78277e-05
5.7827e-05
5.91645e-05
5.91606e-05
5.78269e-05
5.91662e-05
5.91663e-05
6.35493e-05
4.78757e-05
5.78245e-05
5.91589e-05
5.91609e-05
4.78981e-05
6.53581e-05
4.94976e-05
5.96067e-05
5.96094e-05
6.09512e-05
6.09499e-05
6.53722e-05
4.94822e-05
5.96074e-05
5.96003e-05
6.0944e-05
6.09397e-05
5.96062e-05
6.09438e-05
6.09422e-05
6.53793e-05
4.95195e-05
5.96043e-05
6.0933e-05
6.09409e-05
4.94846e-05
6.72913e-05
5.12094e-05
6.13959e-05
6.13912e-05
6.27305e-05
6.27398e-05
6.72977e-05
5.12158e-05
6.13919e-05
6.13858e-05
6.27286e-05
6.27283e-05
6.13901e-05
6.27252e-05
6.27284e-05
6.72585e-05
5.12143e-05
6.13879e-05
6.27167e-05
6.27259e-05
5.1214e-05
6.91245e-05
5.30775e-05
6.31742e-05
6.31768e-05
6.45071e-05
6.4512e-05
6.9114e-05
5.30945e-05
6.3176e-05
6.31893e-05
6.45091e-05
6.45144e-05
6.31777e-05
6.45007e-05
6.44971e-05
6.91166e-05
5.30467e-05
6.31725e-05
6.44979e-05
6.4498e-05
5.30174e-05
7.08185e-05
5.50521e-05
6.49562e-05
6.49504e-05
6.62728e-05
6.62729e-05
7.0789e-05
5.5019e-05
6.49536e-05
6.49527e-05
6.62758e-05
6.62652e-05
6.49404e-05
6.62754e-05
6.62727e-05
7.08369e-05
5.49893e-05
6.49428e-05
6.62688e-05
6.62654e-05
5.49773e-05
7.2422e-05
5.68141e-05
6.6709e-05
6.67169e-05
6.80353e-05
6.80375e-05
7.24374e-05
5.6788e-05
6.67077e-05
6.6708e-05
6.80365e-05
6.80333e-05
6.67126e-05
6.80418e-05
6.80333e-05
7.24548e-05
5.68049e-05
6.67095e-05
6.80333e-05
6.8032e-05
5.68002e-05
7.41964e-05
5.84909e-05
6.84837e-05
6.84852e-05
6.98043e-05
6.98172e-05
7.42112e-05
5.84519e-05
6.84815e-05
6.84813e-05
6.98054e-05
6.98071e-05
6.84812e-05
6.98164e-05
6.98141e-05
7.41982e-05
5.85078e-05
6.84773e-05
6.98116e-05
6.9813e-05
5.84793e-05
7.60415e-05
6.02248e-05
7.02489e-05
7.02579e-05
7.15778e-05
7.15767e-05
7.60939e-05
6.01834e-05
7.02488e-05
7.02496e-05
7.15775e-05
7.15796e-05
7.02602e-05
7.15839e-05
7.16021e-05
7.60402e-05
6.02009e-05
7.0257e-05
7.15799e-05
7.15844e-05
2.74453e-05
5.2084e-05
2.77524e-05
5.27428e-05
5.15199e-05
2.85488e-05
2.75012e-05
5.20649e-05
2.77963e-05
5.27128e-05
3.84143e-05
3.84179e-05
3.84176e-05
3.97462e-05
3.97448e-05
3.97493e-05
3.97483e-05
3.50585e-05
4.1645e-05
4.13523e-05
4.23119e-05
3.8563e-05
4.17965e-05
4.52574e-05
5.15394e-05
2.85818e-05
3.51097e-05
4.13553e-05
4.16262e-05
4.2316e-05
4.18008e-05
3.8591e-05
4.52827e-05
4.99934e-05
5.00003e-05
3.10169e-05
3.07391e-05
3.0754e-05
2.91123e-05
5.38439e-05
5.44447e-05
2.95132e-05
5.32874e-05
3.0318e-05
2.91996e-05
5.37995e-05
5.43889e-05
2.95556e-05
4.01887e-05
4.0193e-05
4.01915e-05
4.15228e-05
4.1525e-05
4.15243e-05
4.15234e-05
3.68714e-05
4.33811e-05
4.31335e-05
4.40897e-05
4.70417e-05
4.03111e-05
4.35742e-05
5.3267e-05
3.03505e-05
3.68666e-05
4.31343e-05
4.33609e-05
4.40948e-05
4.70085e-05
4.35797e-05
4.03566e-05
5.17597e-05
5.17334e-05
3.27275e-05
3.24922e-05
3.24766e-05
3.09459e-05
5.56352e-05
5.63045e-05
3.12891e-05
5.507e-05
3.21248e-05
3.09587e-05
5.55966e-05
5.61785e-05
3.13093e-05
4.19712e-05
4.19661e-05
4.19673e-05
4.32961e-05
4.33049e-05
4.32943e-05
4.32982e-05
3.86174e-05
4.52033e-05
4.49125e-05
4.58703e-05
4.88576e-05
4.21212e-05
4.53552e-05
5.50556e-05
3.20803e-05
3.86007e-05
4.49074e-05
4.51801e-05
4.58612e-05
4.8859e-05
4.535e-05
4.20703e-05
5.35656e-05
5.35646e-05
3.45284e-05
3.42674e-05
3.42606e-05
3.27936e-05
5.73533e-05
5.7885e-05
3.31515e-05
5.68004e-05
3.39477e-05
3.27751e-05
5.73665e-05
5.80095e-05
3.31112e-05
4.37492e-05
4.37389e-05
4.37425e-05
4.50695e-05
4.50729e-05
4.50723e-05
4.50747e-05
4.0418e-05
4.69012e-05
4.66851e-05
4.76524e-05
5.05521e-05
4.38944e-05
4.71335e-05
5.68383e-05
3.39034e-05
4.04101e-05
4.66819e-05
4.69366e-05
4.76419e-05
5.0588e-05
4.71302e-05
4.38987e-05
5.52664e-05
5.5284e-05
3.63172e-05
3.60774e-05
3.60838e-05
3.41124e-05
5.92283e-05
6.0113e-05
3.47712e-05
5.86891e-05
3.55718e-05
3.43681e-05
5.9148e-05
5.97862e-05
3.4819e-05
4.55162e-05
4.55184e-05
4.55193e-05
4.68461e-05
4.68502e-05
4.685e-05
4.68509e-05
4.20919e-05
4.88636e-05
4.84663e-05
4.9424e-05
5.24634e-05
4.55272e-05
4.89052e-05
5.86142e-05
3.56331e-05
4.21606e-05
4.84721e-05
4.8706e-05
4.94262e-05
5.23892e-05
4.89135e-05
4.563e-05
5.71627e-05
5.71292e-05
3.80185e-05
3.77578e-05
3.77788e-05
3.61723e-05
6.09992e-05
6.17305e-05
3.657e-05
6.04357e-05
3.74005e-05
3.59675e-05
6.10064e-05
6.1923e-05
3.65666e-05
4.72941e-05
4.72925e-05
4.7294e-05
4.86138e-05
4.86235e-05
4.86182e-05
4.86246e-05
4.39122e-05
5.05235e-05
5.02389e-05
5.11982e-05
5.41932e-05
4.74098e-05
5.06852e-05
6.04737e-05
3.73429e-05
4.38676e-05
5.02385e-05
5.05923e-05
5.11949e-05
5.42336e-05
5.06803e-05
4.73137e-05
5.89205e-05
5.89042e-05
3.98005e-05
3.95459e-05
3.95345e-05
3.76458e-05
6.27804e-05
6.35744e-05
3.83381e-05
6.22565e-05
3.90941e-05
3.78913e-05
6.27227e-05
6.34718e-05
3.8386e-05
4.90669e-05
4.90609e-05
4.90661e-05
5.04031e-05
5.04035e-05
5.04007e-05
5.04152e-05
4.55515e-05
5.24145e-05
5.20157e-05
5.29763e-05
5.60574e-05
4.89934e-05
5.24591e-05
6.22232e-05
3.91338e-05
4.56134e-05
5.20141e-05
5.23591e-05
5.29675e-05
5.61004e-05
5.24634e-05
4.90702e-05
6.07427e-05
6.07275e-05
4.14815e-05
4.12391e-05
4.12414e-05
3.96769e-05
6.45376e-05
6.54043e-05
4.01513e-05
6.40075e-05
4.0976e-05
3.95688e-05
6.45421e-05
6.53634e-05
4.01159e-05
5.08521e-05
5.08469e-05
5.08502e-05
5.21774e-05
5.21835e-05
5.21784e-05
5.21803e-05
4.74532e-05
5.41812e-05
5.37982e-05
5.47533e-05
5.78773e-05
5.09318e-05
5.42391e-05
6.4012e-05
4.09339e-05
4.74422e-05
5.37995e-05
5.41773e-05
5.47507e-05
5.77569e-05
5.42377e-05
5.08951e-05
6.25292e-05
6.25016e-05
4.3348e-05
4.30885e-05
4.30715e-05
4.18085e-05
6.62252e-05
6.68582e-05
4.20541e-05
6.56575e-05
4.28835e-05
4.18121e-05
6.62399e-05
6.68719e-05
4.20751e-05
5.26266e-05
5.26192e-05
5.26237e-05
5.39487e-05
5.39551e-05
5.39434e-05
5.39468e-05
4.93604e-05
5.57473e-05
5.55596e-05
5.65131e-05
5.9405e-05
5.28682e-05
5.59986e-05
6.57018e-05
4.28468e-05
4.93188e-05
5.55568e-05
5.58133e-05
5.65076e-05
5.94509e-05
5.59958e-05
5.28053e-05
6.41367e-05
6.41798e-05
4.52605e-05
4.50271e-05
4.49944e-05
4.37488e-05
6.78453e-05
6.82208e-05
4.39306e-05
6.73265e-05
4.47117e-05
4.36905e-05
6.78407e-05
6.82663e-05
4.38996e-05
5.43969e-05
5.4385e-05
5.43889e-05
5.57131e-05
5.57179e-05
5.57035e-05
5.57142e-05
5.11543e-05
5.74328e-05
5.73121e-05
5.82777e-05
6.10914e-05
5.46605e-05
5.77527e-05
6.73468e-05
4.46522e-05
5.11321e-05
5.73118e-05
5.74607e-05
5.8274e-05
6.11154e-05
5.77538e-05
5.46243e-05
6.5797e-05
6.58495e-05
4.70593e-05
4.68408e-05
4.68232e-05
4.51698e-05
6.97206e-05
7.02239e-05
4.55037e-05
6.91924e-05
4.62969e-05
4.52152e-05
6.97396e-05
7.02069e-05
4.54993e-05
5.61585e-05
5.61435e-05
5.61533e-05
5.74786e-05
5.74804e-05
5.74696e-05
5.74767e-05
5.2822e-05
5.93275e-05
5.90892e-05
6.00556e-05
6.29575e-05
5.62928e-05
5.953e-05
6.91899e-05
4.63202e-05
5.2801e-05
5.9086e-05
5.93136e-05
6.00449e-05
6.29339e-05
5.95307e-05
5.6302e-05
6.76796e-05
6.76605e-05
4.86867e-05
4.84589e-05
4.84597e-05
4.65221e-05
7.17018e-05
7.25657e-05
4.71009e-05
7.11435e-05
4.79129e-05
4.64995e-05
7.1672e-05
7.25389e-05
4.70847e-05
5.79221e-05
5.79142e-05
5.79218e-05
5.92583e-05
5.92595e-05
5.92535e-05
5.92598e-05
5.44685e-05
6.13045e-05
6.0866e-05
6.18366e-05
6.48647e-05
5.78164e-05
6.13129e-05
7.10989e-05
4.79453e-05
5.43803e-05
6.08663e-05
6.12072e-05
6.18258e-05
6.49459e-05
6.13179e-05
5.79177e-05
6.96054e-05
6.95898e-05
5.0349e-05
5.01152e-05
5.01094e-05
4.82806e-05
7.35333e-05
7.43837e-05
4.88945e-05
7.2975e-05
4.9724e-05
4.82818e-05
7.35175e-05
7.4385e-05
4.88683e-05
5.97041e-05
5.97032e-05
5.97058e-05
6.10493e-05
6.105e-05
6.10431e-05
6.10368e-05
5.61826e-05
6.32596e-05
6.26499e-05
6.36093e-05
6.68017e-05
5.95818e-05
6.30932e-05
7.29832e-05
4.97121e-05
5.62104e-05
6.26464e-05
6.31521e-05
6.36059e-05
6.67678e-05
6.3089e-05
5.95482e-05
7.14416e-05
7.14244e-05
5.21036e-05
5.18666e-05
5.18398e-05
5.04291e-05
7.51792e-05
7.60597e-05
5.08368e-05
7.46281e-05
5.16455e-05
5.0382e-05
7.5209e-05
7.61004e-05
5.08523e-05
6.14892e-05
6.14917e-05
6.14817e-05
6.28237e-05
6.2827e-05
6.28186e-05
6.28184e-05
5.80678e-05
6.47876e-05
6.44293e-05
6.5391e-05
6.84118e-05
6.15844e-05
6.48766e-05
7.46813e-05
5.16179e-05
5.81278e-05
6.44258e-05
6.48025e-05
6.53886e-05
6.85463e-05
6.48749e-05
6.15306e-05
7.31532e-05
7.31644e-05
5.39991e-05
5.37312e-05
5.37295e-05
5.25727e-05
7.67762e-05
7.72281e-05
5.27599e-05
7.62599e-05
5.357e-05
5.25911e-05
7.67858e-05
7.72367e-05
5.27803e-05
6.32719e-05
6.32663e-05
6.3264e-05
6.45899e-05
6.45936e-05
6.45882e-05
6.45902e-05
6.00006e-05
6.6356e-05
6.62009e-05
6.71563e-05
7.00435e-05
6.35167e-05
6.66356e-05
7.62638e-05
5.35486e-05
5.99672e-05
6.6198e-05
6.64121e-05
6.715e-05
7.00626e-05
6.66357e-05
6.34586e-05
7.47813e-05
7.47699e-05
5.59177e-05
5.56965e-05
5.56627e-05
5.41613e-05
7.85572e-05
7.89912e-05
5.44645e-05
7.80208e-05
5.52365e-05
5.42506e-05
7.85081e-05
7.89353e-05
5.44912e-05
6.5033e-05
6.50303e-05
6.50316e-05
6.63484e-05
6.63534e-05
6.63562e-05
6.63594e-05
6.17382e-05
6.81366e-05
6.79621e-05
6.89292e-05
7.17772e-05
6.52116e-05
6.84052e-05
7.79968e-05
5.5274e-05
6.17693e-05
6.79614e-05
6.81197e-05
6.89273e-05
7.17639e-05
6.84067e-05
6.52778e-05
7.65008e-05
7.64692e-05
5.76569e-05
5.7427e-05
5.74446e-05
5.56213e-05
8.04181e-05
8.11583e-05
5.60989e-05
7.99157e-05
5.6897e-05
5.57899e-05
8.03891e-05
8.09488e-05
5.61206e-05
6.67947e-05
6.67986e-05
6.68023e-05
6.81243e-05
6.81228e-05
6.81287e-05
6.81345e-05
6.3392e-05
7.00454e-05
6.97406e-05
7.07027e-05
7.37031e-05
6.68776e-05
7.01862e-05
7.98742e-05
5.69223e-05
6.34451e-05
6.97423e-05
6.99803e-05
7.0695e-05
7.36317e-05
7.01819e-05
6.69038e-05
5.15153e-05
2.85738e-05
5.15106e-05
2.85932e-05
4.9997e-05
4.9993e-05
3.09845e-05
3.07195e-05
3.07284e-05
2.94821e-05
5.23779e-05
2.94555e-05
5.23819e-05
4.85545e-05
3.16325e-05
3.16102e-05
5.08646e-05
5.08717e-05
2.74368e-05
5.20788e-05
2.77395e-05
5.27405e-05
3.50573e-05
4.16688e-05
4.13512e-05
4.23132e-05
3.85304e-05
4.17943e-05
4.53133e-05
3.50394e-05
4.16627e-05
4.13465e-05
4.23139e-05
3.85177e-05
4.17968e-05
4.53084e-05
5.34743e-05
2.86786e-05
5.29298e-05
2.83633e-05
5.34529e-05
2.86987e-05
5.29025e-05
2.8376e-05
4.61446e-05
4.2759e-05
3.94655e-05
4.26891e-05
4.24877e-05
4.22411e-05
3.59712e-05
4.61233e-05
4.27584e-05
3.94909e-05
4.26834e-05
4.24641e-05
4.2241e-05
3.597e-05
5.00046e-05
5.00001e-05
3.098e-05
3.07009e-05
3.07296e-05
5.15127e-05
2.85876e-05
2.94827e-05
5.23651e-05
4.85506e-05
3.16258e-05
3.16366e-05
5.08601e-05
5.08676e-05
2.94896e-05
5.23779e-05
3.50824e-05
4.1631e-05
4.13603e-05
4.23137e-05
3.85642e-05
4.18019e-05
4.52805e-05
2.74787e-05
5.21093e-05
2.77768e-05
5.27402e-05
3.5069e-05
4.13582e-05
4.16919e-05
4.23202e-05
4.18061e-05
3.85547e-05
4.53277e-05
5.34689e-05
2.86445e-05
5.29315e-05
2.83598e-05
4.6155e-05
4.27596e-05
3.94198e-05
4.26924e-05
4.25119e-05
4.2247e-05
3.59585e-05
5.34775e-05
2.86475e-05
5.2936e-05
2.83448e-05
4.61475e-05
4.27614e-05
4.26905e-05
3.94247e-05
4.22475e-05
4.25003e-05
3.59479e-05
2.74761e-05
5.20699e-05
2.7787e-05
5.27202e-05
3.50636e-05
4.13431e-05
4.16768e-05
4.23127e-05
4.17988e-05
3.8549e-05
4.53167e-05
2.74702e-05
5.21086e-05
2.77742e-05
5.27206e-05
4.61372e-05
4.27583e-05
3.94607e-05
4.26863e-05
4.25032e-05
4.22431e-05
3.59789e-05
5.34454e-05
2.86869e-05
5.29319e-05
2.84221e-05
4.61243e-05
4.27578e-05
4.26868e-05
3.94809e-05
4.22427e-05
4.24641e-05
3.59785e-05
5.34351e-05
2.87049e-05
5.29043e-05
2.84195e-05
5.00198e-05
4.99985e-05
3.09982e-05
3.07278e-05
3.07637e-05
5.15142e-05
2.86292e-05
2.94576e-05
5.23804e-05
4.85512e-05
3.16072e-05
3.1626e-05
5.08654e-05
5.08449e-05
2.94896e-05
5.23539e-05
3.51089e-05
4.13667e-05
4.16395e-05
4.23155e-05
4.18026e-05
3.85906e-05
4.52842e-05
2.75953e-05
5.2062e-05
2.78299e-05
5.2617e-05
2.75908e-05
5.20845e-05
2.78248e-05
5.26033e-05
4.6107e-05
4.27607e-05
4.26888e-05
3.94647e-05
4.22454e-05
4.24648e-05
3.60037e-05
4.60962e-05
4.27587e-05
4.26875e-05
3.94878e-05
4.22449e-05
4.24445e-05
3.59993e-05
5.33494e-05
2.8695e-05
5.28933e-05
2.8481e-05
5.3342e-05
2.87116e-05
5.28791e-05
2.84822e-05
5.15208e-05
2.85913e-05
5.15202e-05
2.8621e-05
4.85424e-05
3.16453e-05
3.16464e-05
5.08483e-05
5.08558e-05
2.95066e-05
5.23563e-05
2.95031e-05
5.23519e-05
5.32758e-05
3.03319e-05
5.32565e-05
3.03539e-05
5.17544e-05
5.17472e-05
3.27416e-05
3.24819e-05
3.24954e-05
3.12403e-05
5.41791e-05
3.12363e-05
5.418e-05
5.03454e-05
3.33891e-05
3.33821e-05
5.26619e-05
5.26659e-05
2.91224e-05
5.38517e-05
5.44359e-05
2.95004e-05
3.68098e-05
4.34257e-05
4.31305e-05
4.40906e-05
4.70498e-05
4.02942e-05
4.35718e-05
3.68186e-05
4.34392e-05
4.31306e-05
4.40916e-05
4.70712e-05
4.02828e-05
4.35747e-05
5.54253e-05
3.04242e-05
5.47424e-05
3.00242e-05
5.54081e-05
3.04179e-05
5.47251e-05
3.0023e-05
4.79951e-05
4.45363e-05
4.11961e-05
4.44689e-05
4.43206e-05
4.40206e-05
3.77204e-05
4.79738e-05
4.45358e-05
4.11928e-05
4.44645e-05
4.43e-05
4.40165e-05
3.7697e-05
5.17716e-05
5.17422e-05
3.27354e-05
3.24729e-05
3.24891e-05
5.32535e-05
3.0342e-05
3.12261e-05
5.41721e-05
5.03434e-05
3.3375e-05
3.33791e-05
5.26593e-05
5.26551e-05
3.12289e-05
5.41687e-05
3.68385e-05
4.33706e-05
4.31356e-05
4.40938e-05
4.7022e-05
4.03317e-05
4.35802e-05
2.91911e-05
5.38113e-05
5.44094e-05
2.95507e-05
3.68448e-05
4.31358e-05
4.33861e-05
4.40947e-05
4.70501e-05
4.35774e-05
4.03339e-05
5.53288e-05
3.0435e-05
5.47368e-05
3.01205e-05
4.79372e-05
4.45383e-05
4.12045e-05
4.44668e-05
4.43189e-05
4.40235e-05
3.77293e-05
5.53496e-05
3.04263e-05
5.47466e-05
3.01069e-05
4.79791e-05
4.45408e-05
4.44678e-05
4.11996e-05
4.40229e-05
4.43329e-05
3.77291e-05
2.91877e-05
5.38057e-05
5.43461e-05
2.95305e-05
3.67972e-05
4.31282e-05
4.33967e-05
4.40943e-05
4.70138e-05
4.35776e-05
4.03124e-05
2.9157e-05
5.3829e-05
5.43481e-05
2.95355e-05
4.79987e-05
4.45342e-05
4.11838e-05
4.4468e-05
4.43067e-05
4.40184e-05
3.76778e-05
5.542e-05
3.04097e-05
5.4732e-05
2.99552e-05
4.79378e-05
4.45384e-05
4.44593e-05
4.11415e-05
4.4021e-05
4.43434e-05
3.77516e-05
5.54109e-05
3.03832e-05
5.47595e-05
2.99642e-05
5.17598e-05
5.17453e-05
3.27418e-05
3.24944e-05
3.25058e-05
5.32489e-05
3.03627e-05
3.12325e-05
5.41893e-05
5.0351e-05
3.33783e-05
3.33661e-05
5.26753e-05
5.2672e-05
3.12115e-05
5.41888e-05
3.68697e-05
4.3135e-05
4.33595e-05
4.40894e-05
4.70149e-05
4.35747e-05
4.03216e-05
2.92439e-05
5.37853e-05
5.42843e-05
2.95699e-05
2.92421e-05
5.37828e-05
5.42855e-05
2.95397e-05
4.79589e-05
4.45379e-05
4.44624e-05
4.11659e-05
4.40218e-05
4.43378e-05
3.7712e-05
4.79842e-05
4.45342e-05
4.447e-05
4.11498e-05
4.40182e-05
4.43186e-05
3.76727e-05
5.53506e-05
3.03876e-05
5.47538e-05
3.00245e-05
5.53609e-05
3.03796e-05
5.47396e-05
2.99908e-05
5.32728e-05
3.03499e-05
5.32423e-05
3.03354e-05
5.0364e-05
3.33467e-05
3.33382e-05
5.2679e-05
5.26715e-05
3.11994e-05