/*--------------------------------*- C++ -*----------------------------------*\
| =========                 |                                                 |
| \\      /  F ield         | OpenFOAM: The Open Source CFD Toolbox           |
|  \\    /   O peration     | Version:  2206                                  |
|   \\  /    A nd           | Website:  www.openfoam.com                      |
|    \\/     M anipulation  |                                                 |
\*---------------------------------------------------------------------------*/
FoamFile
{
    version     2.0;
    format      ascii;
    arch        "LSB;label=32;scalar=64";
    class       volScalarField;
    location    "5";
    object      Ux;
}
// * * * * * * * * * * * * * * * * * * * * * * * * * * * * * * * * * * * * * //

dimensions      [0 1 -1 0 0 0 0];

internalField   nonuniform List<scalar> 
171728
(
0.000111497
-0.000205848
0.000129187
-0.000228345
3.04792e-05
-3.29679e-05
2.05684e-05
-6.83036e-05
2.16797e-06
-2.45649e-06
1.59849e-06
-3.37352e-05
-8.92878e-08
-2.96249e-07
3.6915e-07
-3.22919e-05
-2.37755e-07
-1.71487e-07
3.10169e-07
-3.22323e-05
-2.46606e-07
-1.65833e-07
3.08005e-07
-3.22292e-05
-2.43569e-07
-1.6538e-07
3.08633e-07
-3.22287e-05
-2.42058e-07
-1.65306e-07
3.09105e-07
-3.22293e-05
-2.43564e-07
-1.66133e-07
3.09e-07
-3.22291e-05
-2.43282e-07
-1.64144e-07
3.08158e-07
-3.22278e-05
-2.39627e-07
-1.63051e-07
3.07678e-07
-3.22272e-05
-2.44925e-07
-1.64818e-07
3.06774e-07
-3.22267e-05
-2.43614e-07
-1.73966e-07
3.07783e-07
-3.22272e-05
-2.43187e-07
-1.72289e-07
3.07822e-07
-3.22295e-05
-2.46084e-07
-1.66382e-07
3.08388e-07
-3.22292e-05
-2.46437e-07
-1.66296e-07
3.09082e-07
-3.22298e-05
-2.45413e-07
-1.66598e-07
3.08621e-07
-3.22293e-05
-2.44869e-07
-1.6525e-07
3.07623e-07
-3.22291e-05
-2.42876e-07
-1.63914e-07
3.08021e-07
-3.22282e-05
-2.37025e-07
-1.623e-07
3.08983e-07
-3.22282e-05
-2.33389e-07
-1.67014e-07
3.08403e-07
-3.22267e-05
-2.43127e-07
-1.66439e-07
3.08061e-07
-3.22289e-05
-2.44131e-07
-1.66684e-07
3.09601e-07
-3.22287e-05
-2.43874e-07
-1.66678e-07
3.09104e-07
-3.223e-05
-2.44674e-07
-1.66252e-07
3.08495e-07
-3.22288e-05
-2.44653e-07
-1.65472e-07
3.07837e-07
-3.2228e-05
-2.44948e-07
-1.64314e-07
3.0685e-07
-3.22286e-05
-2.45526e-07
-1.6467e-07
3.07251e-07
-3.22266e-05
-2.44874e-07
-1.64331e-07
3.07021e-07
-3.22273e-05
-2.44806e-07
-1.66156e-07
3.08666e-07
-3.22289e-05
-2.44552e-07
-1.65689e-07
3.0829e-07
-3.22294e-05
-2.44305e-07
-1.66499e-07
3.09509e-07
-3.22294e-05
-2.44559e-07
-1.66523e-07
3.08819e-07
-3.22296e-05
-2.44675e-07
-1.64559e-07
3.07284e-07
-3.22282e-05
-2.44805e-07
-1.65675e-07
3.07416e-07
-3.22286e-05
-2.45031e-07
-1.63752e-07
3.06862e-07
-3.22267e-05
-2.44844e-07
-1.65627e-07
3.08425e-07
-3.22274e-05
-2.44906e-07
-1.65922e-07
3.08465e-07
-3.22287e-05
-2.446e-07
-1.65875e-07
3.0844e-07
-3.22285e-05
-2.43949e-07
-1.65469e-07
3.07877e-07
-3.22256e-05
-2.38679e-07
-1.64259e-07
3.07443e-07
-3.22272e-05
-2.46587e-07
-1.65058e-07
3.07493e-07
-3.2229e-05
-2.45579e-07
-1.64357e-07
3.07041e-07
-3.22271e-05
-2.44875e-07
-1.65037e-07
3.07434e-07
-3.22279e-05
-2.44761e-07
-1.64827e-07
3.06363e-07
-3.22277e-05
-2.4408e-07
-1.66285e-07
3.08182e-07
-3.22285e-05
-2.43518e-07
-1.67454e-07
3.08799e-07
-3.22293e-05
-2.43981e-07
-1.66222e-07
3.07939e-07
-3.22295e-05
-2.44089e-07
-1.66796e-07
3.08313e-07
-3.22302e-05
-2.44537e-07
-1.64598e-07
3.07113e-07
-3.22276e-05
-2.44807e-07
-1.64864e-07
3.06686e-07
-3.22273e-05
-2.44994e-07
-1.64558e-07
3.0591e-07
-3.22278e-05
-2.44361e-07
-1.65235e-07
3.07146e-07
-3.22275e-05
-2.42623e-07
-1.66061e-07
3.08572e-07
-3.22282e-05
-2.41217e-07
-1.66909e-07
3.08763e-07
-3.22288e-05
-2.43081e-07
-1.67574e-07
3.08697e-07
-3.22301e-05
-2.43627e-07
-1.6723e-07
3.08021e-07
-3.22311e-05
-2.43097e-07
-1.67462e-07
3.08288e-07
-3.2231e-05
-2.43955e-07
-1.65357e-07
3.06716e-07
-3.223e-05
-2.43778e-07
-1.66369e-07
3.07689e-07
-3.22301e-05
-2.4284e-07
-1.66387e-07
3.07967e-07
-3.22307e-05
-2.42985e-07
-1.66858e-07
3.0806e-07
-3.22308e-05
-2.42781e-07
-1.68905e-07
3.09225e-07
-3.22328e-05
-2.42732e-07
-1.68467e-07
3.09641e-07
-3.2232e-05
-2.43044e-07
-1.67497e-07
3.08243e-07
-3.22318e-05
-2.43581e-07
-1.6579e-07
3.07543e-07
-3.22304e-05
-2.43641e-07
-1.66055e-07
3.08101e-07
-3.22298e-05
-2.43671e-07
-1.65916e-07
3.07264e-07
-3.22306e-05
-2.43028e-07
-1.67271e-07
3.1025e-07
-3.22322e-05
-2.42012e-07
-1.66865e-07
3.17712e-07
-3.22368e-05
-2.42207e-07
-1.68017e-07
3.12555e-07
-3.22354e-05
-2.42084e-07
-1.68601e-07
3.10673e-07
-3.22323e-05
-2.43056e-07
-1.67311e-07
3.08491e-07
-3.22316e-05
-2.4338e-07
-1.65847e-07
3.07094e-07
-3.22304e-05
-2.43392e-07
-1.6675e-07
3.0807e-07
-3.22307e-05
-2.43657e-07
-1.65996e-07
3.07126e-07
-3.22296e-05
-2.43327e-07
-1.66831e-07
3.08351e-07
-3.22312e-05
-2.42999e-07
-1.67347e-07
3.08272e-07
-3.22323e-05
-2.42487e-07
-1.68221e-07
3.09281e-07
-3.2232e-05
-2.42713e-07
-1.67954e-07
3.09351e-07
-3.22325e-05
-2.43112e-07
-1.67322e-07
3.08716e-07
-3.22318e-05
-2.43517e-07
-1.66299e-07
3.0781e-07
-3.22307e-05
-2.4362e-07
-1.66087e-07
3.07476e-07
-3.22297e-05
-2.43605e-07
-1.65944e-07
3.07277e-07
-3.2231e-05
-2.43205e-07
-1.66739e-07
3.08345e-07
-3.22309e-05
-2.42727e-07
-1.68238e-07
3.09301e-07
-3.22316e-05
-2.42602e-07
-1.67658e-07
3.08619e-07
-3.22321e-05
-2.42832e-07
-1.67801e-07
3.09212e-07
-3.2232e-05
-2.43195e-07
-1.67898e-07
3.08493e-07
-3.22315e-05
-2.43077e-07
-1.66255e-07
3.07939e-07
-3.22301e-05
-2.44127e-07
-1.66258e-07
3.07657e-07
-3.22291e-05
-2.44628e-07
-1.6986e-07
3.06174e-07
-3.22258e-05
-3.73468e-07
-1.54951e-07
3.02147e-07
-3.20202e-05
-4.73544e-06
-9.11023e-07
1.97197e-06
-2.23985e-05
-4.31265e-05
4.342e-05
-3.40336e-05
5.14843e-05
0.000131476
0.000115277
-0.000115271
-0.00013148
0.000139856
0.000139845
8.58878e-05
-8.58818e-05
8.58718e-05
-8.58741e-05
-0.000139856
-0.00013986
0.00013146
0.00011524
-0.000115239
-0.000131473
0.000228362
2.09824e-05
0.000129248
-0.000129196
3.851e-05
-3.84961e-05
-0.00022837
-2.09541e-05
0.000205891
0.000205815
6.19391e-05
6.19092e-05
-0.000205791
-6.18787e-05
-6.18557e-05
0.000228317
2.10316e-05
-0.000129167
3.85076e-05
-3.84907e-05
-2.0978e-05
6.83315e-05
-3.08811e-05
2.05775e-05
-2.05579e-05
2.964e-06
-2.95599e-06
-6.83047e-05
3.08932e-05
3.30127e-05
3.30036e-05
4.72108e-06
4.72277e-06
-3.29956e-05
-4.71387e-06
-4.71823e-06
6.83379e-05
-3.08722e-05
-2.05434e-05
2.94812e-06
-2.94943e-06
3.08774e-05
3.37573e-05
-3.30831e-05
1.60578e-06
-1.60495e-06
4.47371e-07
-4.48494e-07
-3.37544e-05
3.30841e-05
2.4648e-06
2.46775e-06
4.35714e-07
4.41918e-07
-2.45976e-06
-4.37672e-07
-4.45008e-07
3.37334e-05
-3.30603e-05
-1.59077e-06
4.37969e-07
-4.37345e-07
3.30657e-05
3.22997e-05
-3.3178e-05
3.75265e-07
-3.77326e-07
3.1734e-07
-3.24507e-07
-3.23021e-05
3.31762e-05
2.92631e-07
2.97839e-07
1.75144e-07
1.82486e-07
-3.02503e-07
-1.75997e-07
-1.82932e-07
3.22804e-05
-3.31539e-05
-3.67673e-07
3.11872e-07
-3.12246e-07
3.31579e-05
3.22372e-05
-3.31842e-05
3.14174e-07
-3.21725e-07
3.10454e-07
-3.21012e-07
-3.22436e-05
3.31803e-05
1.72035e-07
1.76162e-07
1.64342e-07
1.71773e-07
-1.77661e-07
-1.6551e-07
-1.73392e-07
3.2219e-05
-3.31586e-05
-3.09833e-07
3.06725e-07
-3.07326e-07
3.3163e-05
3.22338e-05
-3.31819e-05
3.10719e-07
-3.25799e-07
3.13322e-07
-3.17196e-07
-3.22435e-05
3.31819e-05
1.66664e-07
1.72443e-07
1.66094e-07
1.73223e-07
-1.74066e-07
-1.64911e-07
-1.73465e-07
3.22164e-05
-3.31579e-05
-3.08127e-07
3.07877e-07
-3.076e-07
3.31631e-05
3.22388e-05
-3.31799e-05
3.18994e-07
-3.16119e-07
3.21217e-07
-3.13403e-07
-3.22388e-05
3.31841e-05
1.67772e-07
1.73062e-07
1.66073e-07
1.73358e-07
-1.72713e-07
-1.63965e-07
-1.72628e-07
3.22173e-05
-3.31582e-05
-3.08006e-07
3.07003e-07
-3.06534e-07
3.31638e-05
3.22378e-05
-3.31813e-05
3.15141e-07
-3.14424e-07
3.16263e-07
-3.15078e-07
-3.22372e-05
3.31827e-05
1.67484e-07
1.73528e-07
1.67335e-07
1.73464e-07
-1.72556e-07
-1.66051e-07
-1.72886e-07
3.22171e-05
-3.31577e-05
-3.07824e-07
3.07573e-07
-3.06543e-07
3.31637e-05
3.22377e-05
-3.31819e-05
3.15518e-07
-3.15352e-07
3.166e-07
-3.14719e-07
-3.22383e-05
3.31864e-05
1.68906e-07
1.73799e-07
1.6612e-07
1.72551e-07
-1.72709e-07
-1.65406e-07
-1.71993e-07
3.22178e-05
-3.31587e-05
-3.07193e-07
3.07303e-07
-3.06276e-07
3.3165e-05
3.22381e-05
-3.31795e-05
3.17369e-07
-3.1455e-07
3.29937e-07
-3.14594e-07
-3.22357e-05
3.31925e-05
1.6816e-07
1.72754e-07
1.65346e-07
1.72569e-07
-1.71671e-07
-1.6285e-07
-1.70439e-07
3.22169e-05
-3.3159e-05
-3.06805e-07
3.06431e-07
-3.05042e-07
3.31656e-05
3.22408e-05
-3.31816e-05
3.24184e-07
-3.14246e-07
3.14822e-07
-3.16801e-07
-3.22346e-05
3.31915e-05
1.65973e-07
1.71861e-07
1.63915e-07
1.71073e-07
-1.70388e-07
-1.6373e-07
-1.70355e-07
3.22161e-05
-3.31594e-05
-3.05905e-07
3.06025e-07
-3.04284e-07
3.31657e-05
3.2236e-05
-3.3182e-05
3.14128e-07
-3.16341e-07
3.14232e-07
-3.16196e-07
-3.22357e-05
3.31883e-05
1.6586e-07
1.71332e-07
1.63455e-07
1.71115e-07
-1.7014e-07
-1.7201e-07
-1.71684e-07
3.22156e-05
-3.31595e-05
-3.05297e-07
3.06247e-07
-3.04881e-07
3.31644e-05
3.22359e-05
-3.31824e-05
3.13786e-07
-3.16291e-07
3.13216e-07
-3.13134e-07
-3.22389e-05
3.31833e-05
1.65229e-07
1.71481e-07
1.63689e-07
1.70874e-07
-1.72503e-07
-1.72086e-07
-1.73336e-07
3.22151e-05
-3.31596e-05
-3.06237e-07
3.05645e-07
-3.05924e-07
3.31625e-05
3.22364e-05
-3.31788e-05
3.15247e-07
-3.14747e-07
3.12716e-07
-3.16302e-07
-3.22427e-05
3.31858e-05
1.65893e-07
1.71712e-07
1.65e-07
1.72329e-07
-1.7242e-07
-1.66121e-07
-1.7276e-07
3.22153e-05
-3.3159e-05
-3.06302e-07
3.07039e-07
-3.06678e-07
3.31634e-05
3.22355e-05
-3.31811e-05
3.12714e-07
-3.20274e-07
3.10822e-07
-3.32383e-07
-3.22428e-05
3.31803e-05
1.67125e-07
1.72838e-07
1.65698e-07
1.73113e-07
-1.72891e-07
-1.66504e-07
-1.73585e-07
3.22166e-05
-3.31582e-05
-3.07557e-07
3.07517e-07
-3.07692e-07
3.31624e-05
3.2235e-05
-3.31795e-05
3.1066e-07
-3.19485e-07
3.13741e-07
-3.17313e-07
-3.22444e-05
3.31849e-05
1.67301e-07
1.72762e-07
1.66246e-07
1.72277e-07
-1.73871e-07
-1.6588e-07
-1.73005e-07
3.22174e-05
-3.31588e-05
-3.08864e-07
3.06973e-07
-3.07335e-07
3.31635e-05
3.22358e-05
-3.31801e-05
3.12875e-07
-3.16505e-07
3.13992e-07
-3.1453e-07
-3.22388e-05
3.31858e-05
1.67571e-07
1.72725e-07
1.6574e-07
1.7229e-07
-1.72809e-07
-1.65597e-07
-1.72389e-07
3.22172e-05
-3.3159e-05
-3.08089e-07
3.0678e-07
-3.06351e-07
3.31642e-05
3.22356e-05
-3.31828e-05
3.10979e-07
-3.15272e-07
3.16024e-07
-3.19735e-07
-3.2238e-05
3.31863e-05
1.66663e-07
1.72123e-07
1.6334e-07
1.72443e-07
-1.7207e-07
-1.63344e-07
-1.71727e-07
3.22171e-05
-3.31598e-05
-3.0681e-07
3.06092e-07
-3.05093e-07
3.31653e-05
3.22359e-05
-3.3187e-05
3.17035e-07
-3.25378e-07
3.1744e-07
-3.10105e-07
-3.2243e-05
3.31948e-05
1.65678e-07
1.7214e-07
1.64811e-07
1.705e-07
-1.73013e-07
-1.61681e-07
-1.76933e-07
3.22167e-05
-3.31596e-05
-3.05922e-07
3.06444e-07
-3.03486e-07
3.31644e-05
3.2239e-05
-3.31933e-05
3.20707e-07
-3.01218e-07
3.15188e-07
-3.16003e-07
-3.22219e-05
3.31826e-05
1.66642e-07
1.71273e-07
1.68179e-07
1.72182e-07
-1.76321e-07
-1.66064e-07
-1.69472e-07
3.22161e-05
-3.31588e-05
-3.04087e-07
3.07155e-07
-3.03339e-07
3.31654e-05
3.22382e-05
-3.31883e-05
3.25492e-07
-3.07684e-07
3.1531e-07
-3.13401e-07
-3.2235e-05
3.31855e-05
1.72318e-07
1.72887e-07
1.66781e-07
1.72406e-07
-1.70805e-07
-1.67358e-07
-1.72528e-07
3.22164e-05
-3.31587e-05
-3.05499e-07
3.07874e-07
-3.06858e-07
3.31639e-05
3.22418e-05
-3.31867e-05
3.14357e-07
-3.14289e-07
3.15574e-07
-3.1567e-07
-3.22371e-05
3.31842e-05
1.67595e-07
1.71707e-07
1.66556e-07
1.72413e-07
-1.714e-07
-1.6534e-07
-1.71777e-07
3.22168e-05
-3.31585e-05
-3.06905e-07
3.07435e-07
-3.065e-07
3.3164e-05
3.2244e-05
-3.31857e-05
3.15849e-07
-3.1703e-07
3.16383e-07
-3.17082e-07
-3.22387e-05
3.31828e-05
1.69509e-07
1.73555e-07
1.67724e-07
1.73891e-07
-1.72662e-07
-1.66701e-07
-1.74439e-07
3.22174e-05
-3.31577e-05
-3.07911e-07
3.08134e-07
-3.07987e-07
3.31631e-05
3.22452e-05
-3.31872e-05
3.15263e-07
-3.16829e-07
3.14335e-07
-3.15516e-07
-3.22399e-05
3.31842e-05
1.68381e-07
1.73428e-07
1.65661e-07
1.72166e-07
-1.72938e-07
-1.65523e-07
-1.71831e-07
3.22182e-05
-3.3159e-05
-3.0775e-07
3.06871e-07
-3.0661e-07
3.3164e-05
3.22434e-05
-3.3187e-05
3.14773e-07
-3.16353e-07
3.14791e-07
-3.15047e-07
-3.22386e-05
3.31843e-05
1.6845e-07
1.72588e-07
1.66023e-07
1.72098e-07
-1.71739e-07
-1.64662e-07
-1.70562e-07
3.22167e-05
-3.31591e-05
-3.07397e-07
3.06506e-07
-3.05248e-07
3.31646e-05
3.22434e-05
-3.31878e-05
3.13788e-07
-3.15253e-07
3.14071e-07
-3.15115e-07
-3.2238e-05
3.31851e-05
1.67169e-07
1.71793e-07
1.65242e-07
1.71024e-07
-1.71058e-07
-1.64918e-07
-1.71935e-07
3.22163e-05
-3.31596e-05
-3.06251e-07
3.0661e-07
-3.06488e-07
3.31649e-05
3.22429e-05
-3.31887e-05
3.1348e-07
-3.14703e-07
3.12539e-07
-3.13562e-07
-3.22378e-05
3.31857e-05
1.66599e-07
1.70814e-07
1.63825e-07
1.6989e-07
-1.70737e-07
-1.63584e-07
-1.6966e-07
3.22163e-05
-3.31603e-05
-3.06495e-07
3.04969e-07
-3.04419e-07
3.31655e-05
3.22414e-05
-3.31876e-05
3.13242e-07
-3.14966e-07
3.13934e-07
-3.14669e-07
-3.22363e-05
3.31847e-05
1.65953e-07
1.70377e-07
1.65044e-07
1.71012e-07
-1.69722e-07
-1.64089e-07
-1.7002e-07
3.22148e-05
-3.31595e-05
-3.05865e-07
3.05956e-07
-3.04942e-07
3.31648e-05
3.22427e-05
-3.31874e-05
3.13754e-07
-3.1451e-07
3.13763e-07
-3.14737e-07
-3.22374e-05
3.31845e-05
1.67307e-07
1.71144e-07
1.65026e-07
1.71115e-07
-1.69831e-07
-1.64881e-07
-1.71487e-07
3.22158e-05
-3.31591e-05
-3.05386e-07
3.0615e-07
-3.06279e-07
3.31637e-05
3.22431e-05
-3.31865e-05
3.14715e-07
-3.17264e-07
3.14693e-07
-3.12707e-07
-3.22383e-05
3.31831e-05
1.67858e-07
1.72416e-07
1.66037e-07
1.7238e-07
-1.71801e-07
-1.65772e-07
-1.72495e-07
3.22165e-05
-3.31581e-05
-3.07363e-07
3.07242e-07
-3.06997e-07
3.3163e-05
3.22438e-05
-3.31868e-05
3.14791e-07
-3.21452e-07
3.15105e-07
-3.13998e-07
-3.22397e-05
3.31842e-05
1.68138e-07
1.72401e-07
1.66488e-07
1.72514e-07
-1.71482e-07
-1.65681e-07
-1.71864e-07
3.22173e-05
-3.31587e-05
-3.07106e-07
3.06978e-07
-3.06588e-07
3.31633e-05
3.22444e-05
-3.31865e-05
3.16073e-07
-3.19244e-07
3.15341e-07
-3.17652e-07
-3.22398e-05
3.31844e-05
1.69492e-07
1.74009e-07
1.66818e-07
1.7308e-07
-1.72671e-07
-1.66511e-07
-1.73467e-07
3.22173e-05
-3.3158e-05
-3.08087e-07
3.07822e-07
-3.0781e-07
3.31629e-05
3.22436e-05
-3.31876e-05
3.15429e-07
-3.17657e-07
3.14554e-07
-3.16233e-07
-3.22391e-05
3.3186e-05
1.68618e-07
1.72771e-07
1.65824e-07
1.71946e-07
-1.72252e-07
-1.64987e-07
-1.71366e-07
3.22171e-05
-3.31595e-05
-3.07815e-07
3.06947e-07
-3.0622e-07
3.31649e-05
3.22431e-05
-3.31875e-05
3.13463e-07
-3.15835e-07
3.14037e-07
-3.15911e-07
-3.22381e-05
3.31858e-05
1.6638e-07
1.70893e-07
1.65423e-07
1.71311e-07
-1.70694e-07
-1.65225e-07
-1.71906e-07
3.22164e-05
-3.31593e-05
-3.06615e-07
3.0643e-07
-3.06396e-07
3.31644e-05
3.22429e-05
-3.31883e-05
3.13659e-07
-3.16215e-07
3.13458e-07
-3.14945e-07
-3.22379e-05
3.31869e-05
1.66905e-07
1.71055e-07
1.64556e-07
1.7059e-07
-1.71426e-07
-1.63604e-07
-1.69522e-07
3.22162e-05
-3.31602e-05
-3.07091e-07
3.05778e-07
-3.0454e-07
3.31661e-05
3.22419e-05
-3.3188e-05
3.13249e-07
-3.15174e-07
3.13628e-07
-3.14793e-07
-3.22368e-05
3.31866e-05
1.66329e-07
1.70475e-07
1.64786e-07
1.70847e-07
-1.69703e-07
-1.63214e-07
-1.6947e-07
3.22153e-05
-3.316e-05
-3.05642e-07
3.05507e-07
-3.0427e-07
3.31657e-05
3.22427e-05
-3.31873e-05
3.14261e-07
-3.16612e-07
3.14454e-07
-3.16669e-07
-3.22374e-05
3.31855e-05
1.67601e-07
1.72326e-07
1.65807e-07
1.72359e-07
-1.71383e-07
-1.65754e-07
-1.72016e-07
3.22159e-05
-3.31588e-05
-3.06897e-07
3.07135e-07
-3.06625e-07
3.31638e-05
3.22429e-05
-3.31866e-05
3.14434e-07
-3.17077e-07
3.1504e-07
-3.1681e-07
-3.22381e-05
3.31849e-05
1.67763e-07
1.72578e-07
1.66606e-07
1.72464e-07
-1.72322e-07
-1.64938e-07
-1.71644e-07
3.22167e-05
-3.31587e-05
-3.07966e-07
3.07009e-07
-3.06576e-07
3.31634e-05
3.22437e-05
-3.31864e-05
3.14898e-07
-3.16689e-07
3.12829e-07
-3.19461e-07
-3.22386e-05
3.31857e-05
1.68117e-07
1.72757e-07
1.69212e-07
1.7435e-07
-1.72046e-07
-1.6661e-07
-1.75825e-07
3.22168e-05
-3.31591e-05
-3.07091e-07
3.07112e-07
-3.06463e-07
3.31667e-05
3.2242e-05
-3.31765e-05
3.14668e-07
-3.16609e-07
3.1354e-07
-3.1198e-07
-3.2238e-05
3.3187e-05
1.71791e-07
1.74656e-07
1.7239e-07
1.73019e-07
-1.7965e-07
-1.59771e-07
-1.77593e-07
3.22169e-05
-3.31599e-05
-3.04509e-07
3.04996e-07
-3.00996e-07
3.31671e-05
3.22507e-05
-3.31852e-05
3.19528e-07
-3.1518e-07
3.11194e-07
-3.19485e-07
-3.22395e-05
3.31795e-05
1.74532e-07
1.73193e-07
1.64982e-07
1.72097e-07
-1.73429e-07
-1.65625e-07
-1.72144e-07
3.22166e-05
-3.31599e-05
-3.04687e-07
3.06195e-07
-3.05807e-07
3.31642e-05
3.22408e-05
-3.31862e-05
3.10683e-07
-3.29577e-07
3.11105e-07
-3.15389e-07
-3.22467e-05
3.31858e-05
1.66655e-07
1.71853e-07
1.64311e-07
1.70462e-07
-1.72391e-07
-1.6323e-07
-1.70135e-07
3.22162e-05
-3.31614e-05
-3.07362e-07
3.04642e-07
-3.04575e-07
3.31659e-05
3.22378e-05
-3.31847e-05
3.12118e-07
-3.15381e-07
3.12593e-07
-3.14228e-07
-3.22381e-05
3.31865e-05
1.66284e-07
1.70892e-07
1.65068e-07
1.71224e-07
-1.70644e-07
-1.64158e-07
-1.7076e-07
3.22146e-05
-3.31603e-05
-3.06395e-07
3.06007e-07
-3.05764e-07
3.3165e-05
3.22385e-05
-3.31848e-05
3.12594e-07
-3.15007e-07
3.12619e-07
-3.13985e-07
-3.22377e-05
3.31868e-05
1.6677e-07
1.71584e-07
1.64896e-07
1.7074e-07
-1.70748e-07
-1.64364e-07
-1.70684e-07
3.22155e-05
-3.316e-05
-3.06621e-07
3.06116e-07
-3.05752e-07
3.31647e-05
3.22384e-05
-3.31839e-05
3.12783e-07
-3.14485e-07
3.1351e-07
-3.1467e-07
-3.22373e-05
3.31861e-05
1.67033e-07
1.71305e-07
1.66148e-07
1.7167e-07
-1.7024e-07
-1.65e-07
-1.70669e-07
3.22155e-05
-3.31595e-05
-3.05854e-07
3.06817e-07
-3.05879e-07
3.31643e-05
3.22399e-05
-3.31824e-05
3.14491e-07
-3.15791e-07
3.15705e-07
-3.16266e-07
-3.22386e-05
3.31849e-05
1.6901e-07
1.73209e-07
1.6883e-07
1.73887e-07
-1.71512e-07
-1.66719e-07
-1.72281e-07
3.22166e-05
-3.31583e-05
-3.06709e-07
3.08493e-07
-3.06725e-07
3.31635e-05
3.22412e-05
-3.31834e-05
3.14723e-07
-3.16436e-07
3.14219e-07
-3.15197e-07
-3.22396e-05
3.31857e-05
1.69414e-07
1.73909e-07
1.66784e-07
1.72306e-07
-1.73132e-07
-1.65964e-07
-1.7216e-07
3.22175e-05
-3.31591e-05
-3.08059e-07
3.07587e-07
-3.06876e-07
3.31641e-05
3.22405e-05
-3.31832e-05
3.1391e-07
-3.15613e-07
3.14231e-07
-3.15569e-07
-3.22391e-05
3.31854e-05
1.68213e-07
1.72538e-07
1.67049e-07
1.72841e-07
-1.71871e-07
-1.66363e-07
-1.72967e-07
3.22173e-05
-3.31584e-05
-3.07468e-07
3.07922e-07
-3.07779e-07
3.3163e-05
3.22405e-05
-3.31845e-05
3.14024e-07
-3.16113e-07
3.13465e-07
-3.14209e-07
-3.22393e-05
3.31867e-05
1.68506e-07
1.7337e-07
1.65962e-07
1.71476e-07
-1.72304e-07
-1.6434e-07
-1.6991e-07
3.22176e-05
-3.31603e-05
-3.0765e-07
3.06417e-07
-3.04996e-07
3.3165e-05
3.22392e-05
-3.31844e-05
3.13058e-07
-3.14754e-07
3.13328e-07
-3.1378e-07
-3.22378e-05
3.31871e-05
1.67004e-07
1.71692e-07
1.65547e-07
1.71122e-07
-1.69922e-07
-1.63802e-07
-1.69785e-07
3.22155e-05
-3.31604e-05
-3.05859e-07
3.06265e-07
-3.04644e-07
3.31656e-05
3.22388e-05
-3.31844e-05
3.12241e-07
-3.14323e-07
3.12576e-07
-3.13561e-07
-3.22371e-05
3.31869e-05
1.66401e-07
1.71209e-07
1.64682e-07
1.70139e-07
-1.70982e-07
-1.64226e-07
-1.7066e-07
3.22153e-05
-3.31601e-05
-3.06691e-07
3.05999e-07
-3.05521e-07
3.31648e-05
3.22384e-05
-3.31841e-05
3.11341e-07
-3.13859e-07
3.1266e-07
-3.13467e-07
-3.22372e-05
3.31868e-05
1.65528e-07
1.70041e-07
1.64935e-07
1.70213e-07
-1.70155e-07
-1.64292e-07
-1.70195e-07
3.22152e-05
-3.31597e-05
-3.06154e-07
3.06009e-07
-3.05406e-07
3.31647e-05
3.22391e-05
-3.31818e-05
3.13307e-07
-3.14691e-07
3.15856e-07
-3.14198e-07
-3.22375e-05
3.31855e-05
1.67439e-07
1.71841e-07
1.68315e-07
1.72901e-07
-1.70081e-07
-1.66005e-07
-1.71239e-07
3.22156e-05
-3.31586e-05
-3.05975e-07
3.07872e-07
-3.06151e-07
3.3164e-05
3.22414e-05
-3.31805e-05
3.16339e-07
-3.14469e-07
3.18194e-07
-3.00541e-07
-3.22377e-05
3.31886e-05
1.70167e-07
1.73315e-07
1.68899e-07
1.73174e-07
-1.70746e-07
-1.66033e-07
-1.71425e-07
3.22168e-05
-3.31585e-05
-3.06507e-07
3.08303e-07
-3.06092e-07
3.31643e-05
3.22425e-05
-3.31819e-05
3.17783e-07
-3.05403e-07
3.15956e-07
-3.14318e-07
-3.22347e-05
3.31855e-05
1.70209e-07
1.73054e-07
1.68341e-07
1.7318e-07
-1.7133e-07
-1.66887e-07
-1.73479e-07
3.22175e-05
-3.31578e-05
-3.0708e-07
3.08343e-07
-3.06507e-07
3.31629e-05
3.22416e-05
-3.31842e-05
3.14612e-07
-3.15218e-07
3.1357e-07
-3.13752e-07
-3.22394e-05
3.31855e-05
1.69023e-07
1.7296e-07
1.65349e-07
1.69589e-07
-1.74839e-07
-1.66224e-07
-1.79398e-07
3.22177e-05
-3.31601e-05
-3.0721e-07
3.07271e-07
-3.04772e-07
3.31619e-05
3.22392e-05
-3.31842e-05
3.13826e-07
-3.14516e-07
3.14689e-07
-3.14192e-07
-3.22391e-05
3.31853e-05
1.67882e-07
1.70158e-07
1.65969e-07
1.69481e-07
-1.80038e-07
-1.66987e-07
-1.80121e-07
3.22157e-05
-3.31604e-05
-3.05904e-07
3.08142e-07
-3.05652e-07
3.31619e-05
3.22394e-05
-3.31857e-05
3.14102e-07
-3.14573e-07
3.12798e-07
-3.13044e-07
-3.22391e-05
3.31862e-05
1.67454e-07
1.69372e-07
1.64287e-07
1.68057e-07
-1.80455e-07
-1.65796e-07
-1.78884e-07
3.22153e-05
-3.31614e-05
-3.06582e-07
3.06765e-07
-3.04641e-07
3.31626e-05
3.22376e-05
-3.31857e-05
3.12401e-07
-3.13126e-07
3.11856e-07
-3.1245e-07
-3.22379e-05
3.3186e-05
1.65544e-07
1.67525e-07
1.6308e-07
1.67198e-07
-1.78207e-07
-1.65223e-07
-1.78566e-07
3.22142e-05
-3.31611e-05
-3.04799e-07
3.06394e-07
-3.04214e-07
3.31628e-05
3.22374e-05
-3.3184e-05
3.13023e-07
-3.13926e-07
3.14484e-07
-3.14135e-07
-3.2238e-05
3.31847e-05
1.66451e-07
1.68875e-07
1.65854e-07
1.6966e-07
-1.78782e-07
-1.66355e-07
-1.78941e-07
3.22143e-05
-3.31601e-05
-3.04633e-07
3.08002e-07
-3.04791e-07
3.31613e-05
3.2239e-05
-3.31844e-05
3.1396e-07
-3.1401e-07
3.138e-07
-3.13662e-07
-3.2239e-05
3.3185e-05
1.67177e-07
1.69176e-07
1.65241e-07
1.68976e-07
-1.79346e-07
-1.66168e-07
-1.79016e-07
3.2215e-05
-3.31604e-05
-3.05381e-07
3.07413e-07
-3.04473e-07
3.31617e-05
3.2239e-05
-3.31835e-05
3.13625e-07
-3.14292e-07
3.14538e-07
-3.15498e-07
-3.22391e-05
3.31839e-05
1.67432e-07
1.69798e-07
1.66252e-07
1.70602e-07
-1.79816e-07
-1.68531e-07
-1.82024e-07
3.22152e-05
-3.31589e-05
-3.05525e-07
3.09261e-07
-3.07121e-07
3.31602e-05
3.224e-05
-3.31838e-05
3.14854e-07
-3.15337e-07
3.15044e-07
-3.15014e-07
-3.22406e-05
3.31844e-05
1.68844e-07
1.70768e-07
1.66778e-07
1.70418e-07
-1.81583e-07
-1.67717e-07
-1.804e-07
3.2217e-05
-3.31597e-05
-3.06883e-07
3.08886e-07
-3.05974e-07
3.31612e-05
3.22401e-05
-3.31835e-05
3.15015e-07
-3.15865e-07
3.14499e-07
-3.14594e-07
-3.22403e-05
3.31843e-05
1.68656e-07
1.70988e-07
1.66136e-07
1.69872e-07
-1.81367e-07
-1.67629e-07
-1.80376e-07
3.22163e-05
-3.31598e-05
-3.0734e-07
3.08625e-07
-3.05732e-07
3.31613e-05
3.22398e-05
-3.31851e-05
3.13547e-07
-3.14374e-07
3.13732e-07
-3.1364e-07
-3.224e-05
3.31857e-05
1.67013e-07
1.69473e-07
1.65169e-07
1.68914e-07
-1.80116e-07
-1.65832e-07
-1.78846e-07
3.2216e-05
-3.31607e-05
-3.05852e-07
3.07604e-07
-3.04805e-07
3.31622e-05
3.22385e-05
-3.31854e-05
3.12673e-07
-3.13528e-07
3.12142e-07
-3.12778e-07
-3.22387e-05
3.31856e-05
1.65856e-07
1.68844e-07
1.64103e-07
1.67961e-07
-1.79021e-07
-1.65698e-07
-1.78459e-07
3.22149e-05
-3.31609e-05
-3.05309e-07
3.06583e-07
-3.04239e-07
3.31624e-05
3.22377e-05
-3.31853e-05
3.13448e-07
-3.14261e-07
3.13053e-07
-3.13068e-07
-3.22383e-05
3.3186e-05
1.66387e-07
1.69068e-07
1.64674e-07
1.68402e-07
-1.78706e-07
-1.66026e-07
-1.79742e-07
3.22144e-05
-3.31616e-05
-3.05178e-07
3.07092e-07
-3.05225e-07
3.31625e-05
3.22373e-05
-3.31845e-05
3.12432e-07
-3.13427e-07
3.13911e-07
-3.13426e-07
-3.22379e-05
3.31849e-05
1.65321e-07
1.68276e-07
1.6501e-07
1.6935e-07
-1.79183e-07
-1.65715e-07
-1.7944e-07
3.22143e-05
-3.3159e-05
-3.05518e-07
3.08417e-07
-3.05742e-07
3.31605e-05
3.22382e-05
-3.31832e-05
3.13147e-07
-3.14788e-07
3.14079e-07
-3.14549e-07
-3.22387e-05
3.31841e-05
1.66127e-07
1.70946e-07
1.65472e-07
1.73421e-07
-1.81394e-07
-1.67613e-07
-1.83767e-07
3.22166e-05
-3.31517e-05
-3.08133e-07
3.1479e-07
-3.11832e-07
3.31539e-05
3.22391e-05
-3.31838e-05
3.14305e-07
-3.14577e-07
3.14611e-07
-3.14508e-07
-3.22392e-05
3.31842e-05
1.67464e-07
1.74223e-07
1.66373e-07
1.72202e-07
-1.83738e-07
-1.67313e-07
-1.83129e-07
3.22217e-05
-3.31559e-05
-3.13396e-07
3.13971e-07
-3.13143e-07
3.31564e-05
3.22393e-05
-3.31831e-05
3.14081e-07
-3.15369e-07
3.15513e-07
-3.15222e-07
-3.22396e-05
3.31836e-05
1.66747e-07
1.71321e-07
1.67475e-07
1.71234e-07
-1.82344e-07
-1.68061e-07
-1.80851e-07
3.2219e-05
-3.31584e-05
-3.11036e-07
3.09996e-07
-3.06738e-07
3.31605e-05
3.22403e-05
-3.31841e-05
3.15246e-07
-3.16146e-07
3.1394e-07
-3.14485e-07
-3.22409e-05
3.31843e-05
1.68348e-07
1.71622e-07
1.65858e-07
1.70316e-07
-1.80981e-07
-1.67509e-07
-1.80868e-07
3.22173e-05
-3.31598e-05
-3.0695e-07
3.08217e-07
-3.06161e-07
3.31606e-05
3.22389e-05
-3.3185e-05
3.13935e-07
-3.14708e-07
3.13381e-07
-3.13103e-07
-3.22394e-05
3.31858e-05
1.6716e-07
1.70043e-07
1.64846e-07
1.68122e-07
-1.80842e-07
-1.65705e-07
-1.78824e-07
3.22154e-05
-3.3161e-05
-3.06722e-07
3.07112e-07
-3.05008e-07
3.31621e-05
3.22381e-05
-3.31849e-05
3.13241e-07
-3.13208e-07
3.14145e-07
-3.13637e-07
-3.22383e-05
3.31854e-05
1.66305e-07
1.68512e-07
1.65851e-07
1.68932e-07
-1.78478e-07
-1.66077e-07
-1.79711e-07
3.22145e-05
-3.31607e-05
-3.04826e-07
3.07439e-07
-3.0546e-07
3.31617e-05
3.22384e-05
-3.31855e-05
3.12827e-07
-3.14142e-07
3.12692e-07
-3.12745e-07
-3.22386e-05
3.31859e-05
1.66087e-07
1.68619e-07
1.64088e-07
1.68098e-07
-1.79258e-07
-1.64851e-07
-1.77232e-07
3.22146e-05
-3.31612e-05
-3.05954e-07
3.06562e-07
-3.03735e-07
3.3162e-05
3.22375e-05
-3.31844e-05
3.12698e-07
-3.13186e-07
3.13339e-07
-3.13364e-07
-3.22377e-05
3.3185e-05
1.65554e-07
1.68006e-07
1.65262e-07
1.68059e-07
-1.78402e-07
-1.66984e-07
-1.80154e-07
3.22137e-05
-3.31602e-05
-3.04623e-07
3.07328e-07
-3.05966e-07
3.31612e-05
3.22383e-05
-3.31839e-05
3.1394e-07
-3.14733e-07
3.14037e-07
-3.14474e-07
-3.22386e-05
3.31842e-05
1.6685e-07
1.69265e-07
1.65564e-07
1.69465e-07
-1.79326e-07
-1.66769e-07
-1.79994e-07
3.22148e-05
-3.31596e-05
-3.05902e-07
3.08169e-07
-3.06177e-07
3.31603e-05
3.22391e-05
-3.31832e-05
3.14196e-07
-3.14634e-07
3.1568e-07
-3.15058e-07
-3.22398e-05
3.3184e-05
1.67657e-07
1.69819e-07
1.67835e-07
1.7065e-07
-1.8049e-07
-1.67776e-07
-1.80573e-07
3.2216e-05
-3.31591e-05
-3.06507e-07
3.08886e-07
-3.06187e-07
3.31601e-05
3.22401e-05
-3.31838e-05
3.15014e-07
-3.15279e-07
3.14349e-07
-3.14714e-07
-3.224e-05
3.31843e-05
1.68467e-07
1.71081e-07
1.66432e-07
1.70233e-07
-1.80887e-07
-1.67531e-07
-1.80535e-07
3.22162e-05
-3.31593e-05
-3.07245e-07
3.08501e-07
-3.06455e-07
3.31604e-05
3.22397e-05
-3.3184e-05
3.14153e-07
-3.15389e-07
3.14617e-07
-3.14789e-07
-3.224e-05
3.31846e-05
1.67642e-07
1.69899e-07
1.66559e-07
1.69547e-07
-1.80621e-07
-1.67888e-07
-1.80785e-07
3.22163e-05
-3.31598e-05
-3.07e-07
3.087e-07
-3.06545e-07
3.31608e-05
3.22392e-05
-3.31852e-05
3.14245e-07
-3.15092e-07
3.13546e-07
-3.13754e-07
-3.22393e-05
3.31856e-05
1.67296e-07
1.70258e-07
1.65438e-07
1.68996e-07
-1.80398e-07
-1.662e-07
-1.78546e-07
3.22155e-05
-3.31608e-05
-3.06889e-07
3.07448e-07
-3.04875e-07
3.31621e-05
3.22383e-05
-3.31846e-05
3.12646e-07
-3.13937e-07
3.13496e-07
-3.13187e-07
-3.22388e-05
3.31853e-05
1.65971e-07
1.68695e-07
1.64687e-07
1.68009e-07
-1.78407e-07
-1.65679e-07
-1.78112e-07
3.2215e-05
-3.31606e-05
-3.05111e-07
3.07098e-07
-3.04434e-07
3.3162e-05
3.22379e-05
-3.31849e-05
3.13123e-07
-3.13556e-07
3.13384e-07
-3.1344e-07
-3.2238e-05
3.31854e-05
1.66043e-07
1.68417e-07
1.64974e-07
1.67902e-07
-1.79197e-07
-1.65951e-07
-1.78632e-07
3.22141e-05
-3.31608e-05
-3.06018e-07
3.07226e-07
-3.05046e-07
3.31614e-05
3.22378e-05
-3.31847e-05
3.12535e-07
-3.13605e-07
3.13144e-07
-3.13233e-07
-3.22381e-05
3.31853e-05
1.65488e-07
1.68318e-07
1.64975e-07
1.68633e-07
-1.78848e-07
-1.6532e-07
-1.791e-07
3.22142e-05
-3.31606e-05
-3.04955e-07
3.0725e-07
-3.05292e-07
3.31618e-05
3.22383e-05
-3.31834e-05
3.13165e-07
-3.14496e-07
3.15019e-07
-3.1466e-07
-3.22388e-05
3.31842e-05
1.66179e-07
1.69259e-07
1.66764e-07
1.70349e-07
-1.79171e-07
-1.67716e-07
-1.79761e-07
3.22149e-05
-3.31594e-05
-3.05849e-07
3.08544e-07
-3.0574e-07
3.31605e-05
3.22399e-05
-3.31831e-05
3.14552e-07
-3.15485e-07
3.14834e-07
-3.14647e-07
-3.22401e-05
3.31841e-05
1.67429e-07
1.7056e-07
1.668e-07
1.69873e-07
-1.8072e-07
-1.67313e-07
-1.80542e-07
3.2216e-05
-3.3159e-05
-3.06675e-07
3.08618e-07
-3.05927e-07
3.31604e-05
3.22397e-05
-3.31837e-05
3.14685e-07
-3.14951e-07
3.14737e-07
-3.14679e-07
-3.22399e-05
3.31845e-05
1.67503e-07
1.70591e-07
1.66897e-07
1.70281e-07
-1.80845e-07
-1.67717e-07
-1.80711e-07
3.22156e-05
-3.31594e-05
-3.06404e-07
3.0861e-07
-3.06328e-07
3.31608e-05
3.22398e-05
-3.3184e-05
3.13885e-07
-3.15336e-07
3.14104e-07
-3.14507e-07
-3.22399e-05
3.31848e-05
1.67124e-07
1.70528e-07
1.6602e-07
1.69259e-07
-1.80323e-07
-1.67349e-07
-1.80268e-07
3.22155e-05
-3.31598e-05
-3.06112e-07
3.08579e-07
-3.05928e-07
3.31611e-05
3.22392e-05
-3.3185e-05
3.14492e-07
-3.14866e-07
3.14495e-07
-3.13307e-07
-3.22395e-05
3.31857e-05
1.67389e-07
1.69641e-07
1.66129e-07
1.68568e-07
-1.79807e-07
-1.66511e-07
-1.78581e-07
3.22149e-05
-3.31609e-05
-3.06926e-07
3.07176e-07
-3.04438e-07
3.3162e-05
3.22386e-05
-3.3185e-05
3.13258e-07
-3.14347e-07
3.12774e-07
-3.13176e-07
-3.22384e-05
3.31856e-05
1.65915e-07
1.68665e-07
1.6437e-07
1.68059e-07
-1.79477e-07
-1.6492e-07
-1.77425e-07
3.22136e-05
-3.31619e-05
-3.0566e-07
3.06608e-07
-3.04911e-07
3.31623e-05
3.22373e-05
-3.31811e-05
3.12135e-07
-3.14028e-07
3.13585e-07
-3.15772e-07
-3.2238e-05
3.31846e-05
1.65634e-07
1.68939e-07
1.67635e-07
1.71462e-07
-1.76684e-07
-1.67462e-07
-1.75505e-07
3.22125e-05
-3.31611e-05
-3.05935e-07
3.05688e-07
-3.07199e-07
3.3162e-05
3.22354e-05
-3.31759e-05
3.1037e-07
-3.11898e-07
2.56789e-07
-2.6274e-07
-3.22359e-05
3.31842e-05
1.71008e-07
1.73872e-07
1.34044e-07
1.47414e-07
-1.74809e-07
-1.45999e-07
-1.41028e-07
3.22117e-05
-3.3163e-05
-3.04329e-07
2.49028e-07
-2.59578e-07
3.31488e-05
3.20203e-05
-3.0128e-05
3.04668e-07
-3.14448e-07
-2.89287e-06
2.86906e-06
-3.20222e-05
3.00819e-05
1.51557e-07
1.54768e-07
-3.77972e-06
-3.78218e-06
-1.63027e-07
3.75316e-06
3.76115e-06
3.20075e-05
-3.01032e-05
-3.04271e-07