/*--------------------------------*- C++ -*----------------------------------*\
| =========                 |                                                 |
| \\      /  F ield         | OpenFOAM: The Open Source CFD Toolbox           |
|  \\    /   O peration     | Version:  2206                                  |
|   \\  /    A nd           | Website:  www.openfoam.com                      |
|    \\/     M anipulation  |                                                 |
\*---------------------------------------------------------------------------*/
FoamFile
{
    version     2.0;
    format      ascii;
    arch        "LSB;label=32;scalar=64";
    class       volScalarField;
    location    "24";
    object      nut;
}
// * * * * * * * * * * * * * * * * * * * * * * * * * * * * * * * * * * * * * //

dimensions      [0 2 -1 0 0 0 0];

internalField   nonuniform List<scalar> 
28687
(
0.000223133
0.000200934
0.000200928
0.000177092
0.000223133
0.000200934
0.000200927
0.00017711
0.00022313
0.000200932
0.000200923
0.000177108
0.000223131
0.000200931
0.000200923
0.000177106
0.00022313
0.000200928
0.000200921
0.000177106
0.000223114
0.000200897
0.000200899
0.000177068
0.000223105
0.000200879
0.000200872
0.000177036
0.00022311
0.000200882
0.000200875
0.000177041
0.000223111
0.000200883
0.000200876
0.000177037
0.000223111
0.000200883
0.000200876
0.00017704
0.000223111
0.000200883
0.000200876
0.00017704
0.000223111
0.000200883
0.000200876
0.000177039
0.000223111
0.000200883
0.000200876
0.000177038
0.000223111
0.000200883
0.000200876
0.000177038
0.000223111
0.000200883
0.000200876
0.000177038
0.000223111
0.000200883
0.000200876
0.000177039
0.000223111
0.000200883
0.000200876
0.000177039
0.000223111
0.000200883
0.000200876
0.000177039
0.000200915
0.000177284
0.000200934
0.000177095
0.000177277
0.000200919
0.000200915
0.000200918
0.000200915
0.00017712
0.000177278
0.000200931
0.000200908
0.00020093
0.000200907
0.000200918
0.000200935
0.000200917
0.000177087
0.000177269
0.000200932
0.000200927
0.000200932
0.000177274
0.000177115
0.000177276
0.000200918
0.000200915
0.000200917
0.000200915
0.000177116
0.000177277
0.00020093
0.000200907
0.000200929
0.000200906
0.000200917
0.000200933
0.000200916
0.000177107
0.000177267
0.000200931
0.000200924
0.000200929
0.000177272
0.000177114
0.000177273
0.000200916
0.000200916
0.000200915
0.000200915
0.000177115
0.000177276
0.000200928
0.000200905
0.000200927
0.000200904
0.000200915
0.000200931
0.000200913
0.000177106
0.000177265
0.000200929
0.000200923
0.000200928
0.000177269
0.000177111
0.000177273
0.000200916
0.000200916
0.000200914
0.000200914
0.000177114
0.000177277
0.000200927
0.000200904
0.000200924
0.000200903
0.000200914
0.00020093
0.000200915
0.000177104
0.000177265
0.000200929
0.000200922
0.000200929
0.000177271
0.000177111
0.000177249
0.000200912
0.000200912
0.000200901
0.000200893
0.000177113
0.00017724
0.000200923
0.000200901
0.000200915
0.000200892
0.000200914
0.000200914
0.000200902
0.000177103
0.000177241
0.000200927
0.000200912
0.000200916
0.000177245
0.000177076
0.000177203
0.000200887
0.000200876
0.00020086
0.00020086
0.000177064
0.000177208
0.000200901
0.000200879
0.000200873
0.00020085
0.000200887
0.000200877
0.00020086
0.000177069
0.000177195
0.000200901
0.000200871
0.000200875
0.0001772
0.000177042
0.000177209
0.000200861
0.000200863
0.000200863
0.000200864
0.000177049
0.000177211
0.000200874
0.000200852
0.000200877
0.000200855
0.000200862
0.000200882
0.000200865
0.000177034
0.000177201
0.000200877
0.000200875
0.000200879
0.000177206
0.000177046
0.000177203
0.000200864
0.000200864
0.000200865
0.000200864
0.000177048
0.000177207
0.000200877
0.000200856
0.000200878
0.000200855
0.000200865
0.000200883
0.000200865
0.000177038
0.000177196
0.00020088
0.000200876
0.00020088
0.000177201
0.000177041
0.000177207
0.000200866
0.000200864
0.000200866
0.000200863
0.000177046
0.000177211
0.000200879
0.000200856
0.000200879
0.000200856
0.000200866
0.000200883
0.000200866
0.000177034
0.0001772
0.00020088
0.000200876
0.00020088
0.000177205
0.000177045
0.000177205
0.000200867
0.000200864
0.000200867
0.000200864
0.000177047
0.000177211
0.000200879
0.000200856
0.000200879
0.000200856
0.000200867
0.000200883
0.000200866
0.000177038
0.000177198
0.000200881
0.000200877
0.000200881
0.000177203
0.000177044
0.000177204
0.000200867
0.000200864
0.000200867
0.000200864
0.000177049
0.000177208
0.00020088
0.000200856
0.000200879
0.000200856
0.000200867
0.000200883
0.000200866
0.000177037
0.000177197
0.000200881
0.000200877
0.00020088
0.000177202
0.000177043
0.000177205
0.000200868
0.000200865
0.000200867
0.000200864
0.000177047
0.000177208
0.00020088
0.000200857
0.00020088
0.000200856
0.000200866
0.000200883
0.000200866
0.000177036
0.000177197
0.000200879
0.000200877
0.000200878
0.000177202
0.000177043
0.000177205
0.000200867
0.000200865
0.000200867
0.000200864
0.000177046
0.000177208
0.00020088
0.000200856
0.00020088
0.000200856
0.000200866
0.000200883
0.000200866
0.000177035
0.000177197
0.000200878
0.000200877
0.000200878
0.000177202
0.000177043
0.000177205
0.000200867
0.000200865
0.000200867
0.000200864
0.000177046
0.000177208
0.000200881
0.000200857
0.00020088
0.000200856
0.000200866
0.000200883
0.000200866
0.000177036
0.000177197
0.000200879
0.000200877
0.000200879
0.000177202
0.000177043
0.000177205
0.000200867
0.000200865
0.000200867
0.000200864
0.000177046
0.000177208
0.000200881
0.000200856
0.00020088
0.000200856
0.000200866
0.000200883
0.000200866
0.000177035
0.000177197
0.000200879
0.000200877
0.000200879
0.000177202
0.000177043
0.000177205
0.000200867
0.000200865
0.000200867
0.000200864
0.000177046
0.000177208
0.000200881
0.000200856
0.00020088
0.000200856
0.000200866
0.000200883
0.000200866
0.000177035
0.000177197
0.000200879
0.000200877
0.000200879
0.000177202
0.000177043
0.000177204
0.000200867
0.000200865
0.000200867
0.000200864
0.000177046
0.000177208
0.000200881
0.000200857
0.00020088
0.000200856
0.000200866
0.000200883
0.000200866
0.000177036
0.000177197
0.000200879
0.000200877
0.000200879
0.000177202
0.000177043
0.000200867
0.000200865
0.000177046
0.00020088
0.000200856
0.000200866
0.000177036
0.000200879
4.4621e-05
4.9339e-05
4.46129e-05
4.93372e-05
2.55519e-05
2.55511e-05
4.46278e-05
4.93352e-05
4.46203e-05
4.93333e-05
0.000223135
0.000223131
0.000223133
0.000223133
0.000223135
0.00022313
0.000223132
0.000104937
5.44563e-05
0.000215052
0.000200935
0.000104913
5.44729e-05
0.000215052
2.55495e-05
2.55487e-05
0.00010494
0.000215049
5.44587e-05
0.000200928
0.000104916
0.000215049
5.44733e-05
3.52419e-05
3.52364e-05
0.000177277
3.52431e-05
3.52372e-05
4.46248e-05
4.93374e-05
4.46161e-05
4.93364e-05
2.55506e-05
2.55503e-05
4.46303e-05
4.93334e-05
4.4623e-05
4.93324e-05
0.000223135
0.00022313
0.000223132
0.00022313
0.000223134
0.000223129
0.000223132
0.000104936
5.44597e-05
0.000215052
0.000200934
0.000104909
5.44761e-05
0.00021505
2.55481e-05
2.55476e-05
0.000104938
0.00021505
5.44605e-05
0.000200925
0.000104912
0.000215048
5.44762e-05
3.52417e-05
3.52359e-05
0.000177274
3.52462e-05
3.52404e-05
4.46273e-05
4.93368e-05
4.46186e-05
4.9336e-05
2.55502e-05
2.55501e-05
4.46327e-05
4.93328e-05
4.46242e-05
4.9332e-05
0.000223132
0.000223127
0.00022313
0.00022313
0.000223131
0.000223129
0.000223128
0.000104935
5.44623e-05
0.000215049
0.000200932
0.000104908
5.44781e-05
0.000215048
2.55475e-05
2.55473e-05
0.000104936
0.000215047
5.44632e-05
0.000200923
0.00010491
0.000215046
5.44785e-05
3.52484e-05
3.52428e-05
0.000177271
3.52535e-05
3.52479e-05
4.46317e-05
4.93367e-05
4.46226e-05
4.9336e-05
2.555e-05
2.55501e-05
4.46379e-05
4.93327e-05
4.46294e-05
4.93319e-05
0.000223134
0.000223129
0.000223132
0.000223131
0.000223133
0.000223126
0.000223133
0.000104937
5.44642e-05
0.000215049
0.00020093
0.00010491
5.44804e-05
0.000215051
2.55475e-05
2.55475e-05
0.000104941
0.000215046
5.44652e-05
0.000200922
0.000104912
0.000215046
5.44808e-05
3.52546e-05
3.5249e-05
0.00017727
3.52583e-05
3.52527e-05
4.46292e-05
4.93368e-05
4.46246e-05
4.93367e-05
2.55506e-05
2.55506e-05
4.46357e-05
4.93329e-05
4.46317e-05
4.93327e-05
0.000223133
0.000223126
0.000223132
0.000223125
0.000223123
0.000223123
0.000223124
0.000104932
5.44645e-05
0.000215051
0.000200926
0.000104912
5.44752e-05
0.000215049
2.55479e-05
2.5548e-05
0.000104935
0.000215046
5.44671e-05
0.000200919
0.000104914
0.000215045
5.44791e-05
3.52567e-05
3.52511e-05
0.000177265
3.52573e-05
3.52517e-05
4.46082e-05
4.9339e-05
4.46083e-05
4.9339e-05
2.55505e-05
2.55504e-05
4.46143e-05
4.9335e-05
4.46152e-05
4.9335e-05
0.000223109
0.000223113
0.000223113
0.000223102
0.000223103
0.0002231
0.000223102
0.00010488
5.44463e-05
0.000215024
0.000200885
0.000104886
5.44527e-05
0.000215013
2.55481e-05
2.55478e-05
0.000104884
0.000215026
5.44524e-05
0.000200884
0.000104889
0.000215013
5.44582e-05
3.52501e-05
3.52444e-05
0.000177213
3.52487e-05
3.5243e-05
4.45982e-05
4.93402e-05
4.45926e-05
4.93393e-05
2.55503e-05
2.55499e-05
4.46048e-05
4.93359e-05
4.45996e-05
4.93351e-05
0.000223107
0.000223104
0.000223106
0.00022311
0.000223112
0.000223108
0.00022311
0.000104864
5.44292e-05
0.000215011
0.000200882
0.000104837
5.44431e-05
0.000215014
2.55478e-05
2.55476e-05
0.00010487
0.000215009
5.44336e-05
0.000200874
0.00010484
0.000215011
5.44463e-05
3.52401e-05
3.52344e-05
0.000177209
3.5241e-05
3.52353e-05
4.45971e-05
4.93397e-05
4.45897e-05
4.93387e-05
2.55502e-05
2.55503e-05
4.4604e-05
4.93358e-05
4.45972e-05
4.9335e-05
0.000223112
0.000223109
0.000223111
0.000223111
0.000223112
0.000223108
0.00022311
0.000104867
5.44272e-05
0.000215015
0.000200883
0.00010484
5.44424e-05
0.000215014
2.55478e-05
2.55476e-05
0.000104869
0.000215013
5.44306e-05
0.000200875
0.000104844
0.000215013
5.44451e-05
3.52379e-05
3.52322e-05
0.000177201
3.52403e-05
3.52346e-05
4.45971e-05
4.93394e-05
4.45895e-05
4.93384e-05
2.55505e-05
2.55506e-05
4.4604e-05
4.9336e-05
4.45971e-05
4.93355e-05
0.000223112
0.000223109
0.000223111
0.000223111
0.000223112
0.000223108
0.000223111
0.000104867
5.44271e-05
0.000215015
0.000200883
0.000104841
5.44424e-05
0.000215016
2.55478e-05
2.55476e-05
0.00010487
0.000215013
5.44304e-05
0.000200876
0.000104843
0.000215014
5.44451e-05
3.52378e-05
3.52322e-05
0.000177203
3.52403e-05
3.52346e-05
4.45971e-05
4.93389e-05
4.45895e-05
4.9338e-05
2.55507e-05
2.55506e-05
4.4604e-05
4.93364e-05
4.45971e-05
4.93358e-05
0.000223112
0.000223109
0.000223111
0.000223111
0.000223112
0.000223109
0.000223111
0.000104864
5.44271e-05
0.000215015
0.000200883
0.00010484
5.44423e-05
0.000215015
2.55478e-05
2.55476e-05
0.000104868
0.000215013
5.44304e-05
0.000200876
0.000104844
0.000215013
5.44451e-05
3.52379e-05
3.52322e-05
0.000177202
3.52403e-05
3.52346e-05
4.4597e-05
4.93386e-05
4.45895e-05
4.93378e-05
2.55507e-05
2.55506e-05
4.4604e-05
4.93366e-05
4.45971e-05
4.9336e-05
0.000223112
0.000223109
0.000223111
0.000223111
0.000223112
0.000223109
0.000223111
0.000104867
5.44271e-05
0.000215015
0.000200883
0.000104839
5.44424e-05
0.000215016
2.55478e-05
2.55476e-05
0.000104871
0.000215013
5.44304e-05
0.000200877
0.000104843
0.000215014
5.44451e-05
3.52379e-05
3.52322e-05
0.000177204
3.52403e-05
3.52346e-05
4.45971e-05
4.93384e-05
4.45895e-05
4.93376e-05
2.55507e-05
2.55507e-05
4.4604e-05
4.93368e-05
4.45971e-05
4.9336e-05
0.000223112
0.000223109
0.000223111
0.000223111
0.000223112
0.000223109
0.00022311
0.000104866
5.44271e-05
0.000215015
0.000200883
0.00010484
5.44424e-05
0.000215016
2.55478e-05
2.55476e-05
0.000104869
0.000215013
5.44304e-05
0.000200877
0.000104843
0.000215014
5.44451e-05
3.52379e-05
3.52322e-05
0.000177204
3.52403e-05
3.52346e-05
4.45971e-05
4.93384e-05
4.45895e-05
4.93376e-05
2.55508e-05
2.55507e-05
4.4604e-05
4.93368e-05
4.45971e-05
4.93361e-05
0.000223112
0.000223109
0.000223111
0.000223111
0.000223112
0.000223109
0.00022311
0.000104867
5.44271e-05
0.000215015
0.000200883
0.00010484
5.44424e-05
0.000215016
2.55478e-05
2.55476e-05
0.000104871
0.000215013
5.44304e-05
0.000200877
0.000104843
0.000215014
5.44451e-05
3.52379e-05
3.52322e-05
0.000177203
3.52403e-05
3.52346e-05
4.45971e-05
4.93383e-05
4.45895e-05
4.93375e-05
2.55508e-05
2.55507e-05
4.4604e-05
4.93368e-05
4.45971e-05
4.93361e-05
0.000223112
0.000223109
0.000223111
0.000223111
0.000223112
0.000223109
0.00022311
0.000104867
5.44271e-05
0.000215015
0.000200883
0.000104841
5.44424e-05
0.000215016
2.55478e-05
2.55476e-05
0.000104871
0.000215013
5.44304e-05
0.000200877
0.000104844
0.000215014
5.44451e-05
3.52379e-05
3.52322e-05
0.000177203
3.52403e-05
3.52346e-05
4.45971e-05
4.93383e-05
4.45895e-05
4.93375e-05
2.55508e-05
2.55507e-05
4.4604e-05
4.93368e-05
4.45971e-05
4.93361e-05
0.000223112
0.000223109
0.000223111
0.000223111
0.000223112
0.000223109
0.00022311
0.000104864
5.44271e-05
0.000215015
0.000200883
0.00010484
5.44424e-05
0.000215016
2.55478e-05
2.55476e-05
0.000104869
0.000215013
5.44304e-05
0.000200877
0.000104843
0.000215013
5.44451e-05
3.52379e-05
3.52322e-05
0.000177203
3.52403e-05
3.52346e-05
4.45971e-05
4.93383e-05
4.45895e-05
4.93375e-05
2.55508e-05
2.55507e-05
4.4604e-05
4.93369e-05
4.45971e-05
4.93361e-05
0.000223112
0.000223109
0.000223111
0.000223111
0.000223112
0.000223109
0.00022311
0.000104867
5.44271e-05
0.000215015
0.000200883
0.000104839
5.44424e-05
0.000215016
2.55478e-05
2.55476e-05
0.00010487
0.000215013
5.44304e-05
0.000200877
0.000104843
0.000215013
5.4445e-05
3.52379e-05
3.52322e-05
0.000177203
3.52403e-05
3.52346e-05
4.45971e-05
4.93383e-05
4.45895e-05
4.93375e-05
2.55508e-05
2.55507e-05
4.4604e-05
4.93369e-05
4.45971e-05
4.93361e-05
0.000223112
0.000223109
0.000223111
0.000223111
0.000223112
0.000223109
0.00022311
0.000104864
5.44271e-05
0.000215015
0.000200883
0.00010484
5.44424e-05
0.000215016
2.55478e-05
2.55476e-05
0.000104871
0.000215013
5.44304e-05
0.000200877
0.000104844
0.000215013
5.44451e-05
3.52379e-05
3.52322e-05
0.000177203
3.52403e-05
3.52346e-05
4.45975e-05
4.93383e-05
4.45895e-05
4.93379e-05
2.55508e-05
2.55507e-05
4.46044e-05
4.93369e-05
4.45971e-05
4.93366e-05
0.000223112
0.000223109
0.00022311
0.000104867
5.44271e-05
0.000215015
0.000200883
0.00010484
5.44424e-05
0.000215016
2.55478e-05
2.55476e-05
0.00010487
0.000215013
5.44304e-05
0.000200877
0.000104843
0.000215014
5.44456e-05
3.52379e-05
3.52322e-05
0.000177206
3.52403e-05
3.52364e-05
4.93375e-05
5.44741e-05
2.5552e-05
3.52391e-05
3.52335e-05
2.55524e-05
5.44711e-05
4.9336e-05
2.55536e-05
2.55528e-05
2.55512e-05
2.55504e-05
3.52436e-05
3.52372e-05
0.00017728
3.52445e-05
3.52378e-05
2.55521e-05
2.55527e-05
2.55496e-05
2.55503e-05
0.000177118
3.5245e-05
3.52383e-05
3.5242e-05
3.52354e-05
4.46217e-05
4.9338e-05
4.46136e-05
4.93368e-05
0.000104936
5.44616e-05
0.000215051
0.000200919
0.000104911
5.44766e-05
0.000215051
0.000104937
5.44609e-05
0.000215051
0.000200915
0.000104912
5.44758e-05
0.000215051
4.46151e-05
4.93367e-05
4.93377e-05
4.46231e-05
4.46158e-05
4.93363e-05
4.93373e-05
4.46238e-05
0.000104911
0.000200919
5.44781e-05
0.000215051
5.44633e-05
0.000215051
0.000104936
0.000104913
0.000200915
5.44772e-05
0.000215051
5.44625e-05
0.000215052
0.000104938
3.52366e-05
3.52315e-05
0.00017728
3.52398e-05
3.52365e-05
2.55525e-05
2.55516e-05
2.55506e-05
2.55511e-05
0.000177117
3.52417e-05
3.52396e-05
3.52379e-05
3.52345e-05
2.55511e-05
2.55517e-05
0.000104938
5.4452e-05
0.000215051
0.000200931
0.000104914
5.44672e-05
0.000215051
4.46265e-05
4.93322e-05
4.4619e-05
4.93303e-05
0.000104937
0.000215047
5.44457e-05
0.000200908
0.000104912
0.000215047
5.44612e-05
4.46225e-05
4.93327e-05
4.93338e-05
4.46296e-05
0.000104914
0.000200931
5.44685e-05
0.000215051
5.44535e-05
0.000215051
0.000104939
4.46212e-05
4.93297e-05
4.93308e-05
4.46284e-05
0.000104913
0.000200908
0.000215047
5.44628e-05
0.000215047
5.44475e-05
0.000104937
4.46209e-05
4.93365e-05
4.46128e-05
4.93353e-05
0.000104935
0.000215051
5.44585e-05
0.000200918
0.00010491
0.00021505
5.44733e-05
4.46206e-05
4.93357e-05
4.46124e-05
4.93339e-05
0.000104913
0.000200936
5.44746e-05
0.000215052
5.44593e-05
0.000215053
0.000104936
4.46149e-05
4.93348e-05
4.93358e-05
4.4623e-05
0.000104911
0.000200918
0.000215051
5.44747e-05
0.000215051
5.44601e-05
0.000104935
4.46146e-05
4.93333e-05
4.93343e-05
4.46226e-05
3.52235e-05
3.52417e-05
0.000177272
3.52277e-05
3.5243e-05
2.55521e-05
2.55513e-05
2.5548e-05
2.55487e-05
0.00017711
3.52298e-05
3.52434e-05
3.52255e-05
3.52404e-05
2.55506e-05
2.55512e-05
0.000104941
0.000215051
5.44559e-05
0.000200932
0.000104916
0.000215051
5.44708e-05
4.46272e-05
4.93354e-05
4.46197e-05
4.93336e-05
4.46275e-05
4.93354e-05
4.46201e-05
4.93336e-05
0.000104917
0.000200928
0.00021505
5.44748e-05
0.000215051
5.44604e-05
0.000104939
0.000104917
0.000200932
0.000215051
5.44722e-05
0.000215052
5.44575e-05
0.000104941
4.46219e-05
4.9333e-05
4.93341e-05
4.4629e-05
4.46222e-05
4.9333e-05
4.93341e-05
4.46294e-05
2.55519e-05
2.55511e-05
2.55509e-05
2.55501e-05
0.000177115
3.52437e-05
3.52378e-05
3.52406e-05
3.52347e-05
2.55504e-05
2.55511e-05
2.55494e-05
2.555e-05
2.55521e-05
2.55517e-05
2.55497e-05
2.55493e-05
3.52432e-05
3.52367e-05
0.000177277
3.52476e-05
3.52413e-05
2.55515e-05
2.55518e-05
2.55491e-05
2.55493e-05
0.000177115
3.52515e-05
3.52454e-05
3.52462e-05
3.52401e-05
4.46255e-05
4.93369e-05
4.46178e-05
4.9336e-05
0.000104937
5.44649e-05
0.00021505
0.000200918
0.000104913
5.44796e-05
0.00021505
0.000104939
5.44639e-05
0.000215049
0.000200915
0.000104914
5.44786e-05
0.000215049
4.46186e-05
4.93361e-05
4.9337e-05
4.46258e-05
4.46193e-05
4.93358e-05
4.93366e-05
4.46266e-05
0.000104913
0.000200918
5.44812e-05
0.00021505
5.44664e-05
0.000215051
0.000104938
0.000104914
0.000200915
5.44798e-05
0.000215048
5.44652e-05
0.000215048
0.000104939
3.524e-05
3.52376e-05
0.000177279
3.52444e-05
3.52425e-05
2.55512e-05
2.55508e-05
2.55501e-05
2.55504e-05
0.000177116
3.5248e-05
3.52453e-05
3.5243e-05
3.52404e-05
2.55506e-05
2.55509e-05
0.000104941
5.44548e-05
0.00021505
0.00020093
0.000104916
5.44699e-05
0.00021505
4.46291e-05
4.93303e-05
4.46228e-05
4.93294e-05
0.000104939
0.000215045
5.44491e-05
0.000200907
0.000104914
0.000215044
5.44642e-05
4.46245e-05
4.93321e-05
4.9333e-05
4.46308e-05
0.000104917
0.00020093
5.44714e-05
0.00021505
5.44563e-05
0.00021505
0.000104939
4.46233e-05
4.93291e-05
4.933e-05
4.46296e-05
0.000104916
0.000200907
0.000215044
5.44656e-05
0.000215044
5.44504e-05
0.000104938
4.46245e-05
4.93354e-05
4.46169e-05
4.93345e-05
0.000104938
0.000215048
5.44615e-05
0.000200917
0.000104912
0.000215048
5.44761e-05
4.46241e-05
4.93338e-05
4.46166e-05
4.93329e-05
0.000104912
0.000200934
5.44773e-05
0.000215049
5.44624e-05
0.00021505
0.000104935
4.46183e-05
4.93343e-05
4.93351e-05
4.46254e-05
0.000104914
0.000200917
0.000215047
5.44775e-05
0.000215047
5.4463e-05
0.000104937
4.46178e-05
4.93327e-05
4.93335e-05
4.46248e-05
3.52274e-05
3.52416e-05
0.000177269
3.52314e-05
3.52461e-05
2.55507e-05
2.55502e-05
2.55474e-05
2.55478e-05
0.000177107
3.52348e-05
3.525e-05
3.52292e-05
3.52447e-05
2.555e-05
2.55503e-05
0.000104943
0.000215049
5.44589e-05
0.000200931
0.000104918
0.000215048
5.44737e-05
4.46295e-05
4.93336e-05
4.46234e-05
4.93327e-05
4.463e-05
4.93336e-05
4.46238e-05
4.93327e-05
0.000104914
0.000200925
0.000215048
5.44776e-05
0.000215048
5.44632e-05
0.000104937
0.000104919
0.00020093
0.000215048
5.44751e-05
0.000215048
5.44604e-05
0.000104941
4.46237e-05
4.93324e-05
4.93333e-05
4.463e-05
4.46242e-05
4.93324e-05
4.93332e-05
4.46305e-05
2.55505e-05
2.55501e-05
2.55495e-05
2.5549e-05
0.000177112
3.52499e-05
3.52442e-05
3.52447e-05
3.5239e-05
2.55498e-05
2.55502e-05
2.55488e-05
2.55492e-05
2.55516e-05
2.55514e-05
2.55492e-05
2.5549e-05
3.52501e-05
3.52442e-05
0.000177276
3.52552e-05
3.52492e-05
2.55514e-05
2.55516e-05
2.5549e-05
2.55491e-05
0.000177113
3.5258e-05
3.52522e-05
3.52537e-05
3.52479e-05
4.46281e-05
4.93364e-05
4.46204e-05
4.93357e-05
0.000104939
5.44678e-05
0.000215048
0.000200916
0.000104914
5.44825e-05
0.000215048
0.00010494
5.44664e-05
0.000215049
0.000200916
0.000104916
5.44808e-05
0.000215049
4.46214e-05
4.93359e-05
4.93366e-05
4.46296e-05
4.46222e-05
4.93357e-05
4.93363e-05
4.46304e-05
0.000104914
0.000200915
5.44836e-05
0.000215048
5.4469e-05
0.000215048
0.00010494
0.000104916
0.000200916
5.44818e-05
0.00021505
5.44673e-05
0.00021505
0.000104941
3.52466e-05
3.52432e-05
0.000177278
3.52512e-05
3.52479e-05
2.55508e-05
2.55506e-05
2.55499e-05
2.55503e-05
0.000177115
3.52534e-05
3.525e-05
3.52495e-05
3.52458e-05
2.55507e-05
2.55508e-05
0.00010494
5.44577e-05
0.000215049
0.000200928
0.000104915
5.44726e-05
0.000215048
4.46316e-05
4.93298e-05
4.46242e-05
4.9329e-05
0.000104938
0.000215041
5.44518e-05
0.000200905
0.000104913
0.000215041
5.44669e-05
4.46277e-05
4.93319e-05
4.93326e-05
4.46356e-05
0.000104916
0.000200927
5.44737e-05
0.000215046
5.44588e-05
0.000215048
0.000104941
4.46266e-05
4.9329e-05
4.93297e-05
4.46344e-05
0.000104914
0.000200904
0.000215041
5.4468e-05
0.00021504
5.44531e-05
0.00010494
4.46268e-05
4.93349e-05
4.46192e-05
4.93342e-05
0.000104936
0.000215046
5.44643e-05
0.000200915
0.000104912
0.000215046
5.44787e-05
4.46264e-05
4.93333e-05
4.46186e-05
4.93325e-05
0.000104911
0.000200931
5.44792e-05
0.000215048
5.44644e-05
0.000215048
0.000104936
4.46209e-05
4.93341e-05
4.93348e-05
4.4629e-05
0.000104912
0.000200914
0.000215047
5.44796e-05
0.000215046
5.44654e-05
0.000104937
4.46205e-05
4.93325e-05
4.93332e-05
4.46288e-05
3.5233e-05
3.52487e-05
0.000177267
3.52385e-05
3.52537e-05
2.55502e-05
2.55499e-05
2.55473e-05
2.55475e-05
0.000177105
3.52413e-05
3.52566e-05
3.52365e-05
3.52522e-05
2.55499e-05
2.55501e-05
0.000104942
0.000215046
5.44618e-05
0.000200929
0.000104916
0.000215046
5.44764e-05
4.46319e-05
4.9333e-05
4.46245e-05
4.93323e-05
4.46325e-05
4.9333e-05
4.4625e-05
4.93322e-05
0.000104912
0.000200923
0.000215046
5.44795e-05
0.000215046
5.44654e-05
0.000104938
0.000104917
0.000200929
0.000215046
5.44775e-05
0.000215046
5.4463e-05
0.000104943
4.46268e-05
4.93322e-05
4.93329e-05
4.46347e-05
4.46274e-05
4.93322e-05
4.93329e-05
4.46353e-05
2.555e-05
2.55498e-05
2.5549e-05
2.55487e-05
0.000177109
3.52564e-05
3.52508e-05
3.5252e-05
3.52464e-05
2.55498e-05
2.55499e-05
2.55487e-05
2.55489e-05
2.55516e-05
2.55515e-05
2.55492e-05
2.55491e-05
3.52563e-05
3.52506e-05
0.000177274
3.52599e-05
3.52542e-05
2.55517e-05
2.55517e-05
2.55493e-05
2.55493e-05
0.000177112
3.52608e-05
3.52551e-05
3.52579e-05
3.52523e-05
4.46326e-05
4.93364e-05
4.46245e-05
4.93357e-05
0.000104943
5.44702e-05
0.000215051
0.000200915
0.000104916
5.4485e-05
0.000215051
0.000104945
5.44684e-05
0.000215052
0.000200916
0.000104918
5.44831e-05
0.000215052
4.46256e-05
4.9336e-05
4.93366e-05
4.46323e-05
4.46265e-05
4.9336e-05
4.93364e-05
4.4633e-05
0.00010492
0.000200916
5.44859e-05
0.00021505
5.44716e-05
0.000215052
0.000104941
0.000104921
0.000200916
5.44829e-05
0.00021505
5.44697e-05
0.000215052
0.000104943
3.52516e-05
3.52477e-05
0.000177278
3.52549e-05
3.52514e-05
2.55509e-05
2.55508e-05
2.55504e-05
2.55503e-05
0.000177116
3.52547e-05
3.52515e-05
3.52529e-05
3.5249e-05
2.55511e-05
2.55511e-05
0.000104944
5.446e-05
0.000215045
0.000200927
0.000104918
5.4475e-05
0.000215045
4.46367e-05
4.93297e-05
4.46293e-05
4.9329e-05
0.000104943
0.000215043
5.44542e-05
0.000200904
0.000104917
0.000215043
5.44693e-05
4.46325e-05
4.9332e-05
4.93327e-05
4.46387e-05
0.000104921
0.000200926
5.44759e-05
0.000215047
5.44613e-05
0.000215046
0.000104942
4.46313e-05
4.93291e-05
4.93297e-05
4.46374e-05
0.00010492
0.000200904
0.000215046
5.44701e-05
0.000215045
5.44555e-05
0.000104941
4.4631e-05
4.93349e-05
4.46231e-05
4.93342e-05
0.00010494
0.00021505
5.44664e-05
0.000200914
0.000104915
0.00021505
5.44809e-05
4.4631e-05
4.93331e-05
4.4623e-05
4.93325e-05
0.000104914
0.00020093
5.44805e-05
0.000215052
5.44667e-05
0.000215052
0.000104939
4.46249e-05
4.93346e-05
4.93349e-05
4.46318e-05
0.000104917
0.000200915
0.000215052
5.44818e-05
0.000215052
5.44677e-05
0.000104938
4.46248e-05
4.93325e-05
4.93331e-05
4.46315e-05
3.52391e-05
3.52549e-05
0.000177265
3.52431e-05
3.52586e-05
2.55501e-05
2.55501e-05
2.55476e-05
2.55477e-05
0.000177104
3.52439e-05
3.52595e-05
3.52406e-05
3.52566e-05
2.55502e-05
2.55503e-05
0.000104946
0.000215048
5.44641e-05
0.000200929
0.00010492
0.000215048
5.44787e-05
4.4637e-05
4.93329e-05
4.46295e-05
4.93322e-05
4.46376e-05
4.93328e-05
4.46301e-05
4.93322e-05
0.000104917
0.000200922
0.000215045
5.44818e-05
0.000215046
5.44678e-05
0.000104942
0.000104922
0.00020093
0.00021505
5.44795e-05
0.000215049
5.44653e-05
0.000104944
4.46315e-05
4.93323e-05
4.93329e-05
4.46379e-05
4.46322e-05
4.93323e-05
4.93329e-05
4.46383e-05
2.555e-05
2.55499e-05
2.55489e-05
2.55489e-05
0.000177109
3.52592e-05
3.52536e-05
3.52563e-05
3.52507e-05
2.555e-05
2.55501e-05
2.5549e-05
2.55491e-05
2.5552e-05
2.55521e-05
2.55495e-05
2.55496e-05
3.52584e-05
3.52528e-05
0.000177268
3.52588e-05
3.52531e-05
2.55521e-05
2.55523e-05
2.55497e-05
2.55498e-05
0.000177103
3.52552e-05
3.52494e-05
3.52555e-05
3.52499e-05
4.46299e-05
4.93369e-05
4.46263e-05
4.93371e-05
0.000104931
5.44721e-05
0.000215049
0.000200909
0.000104913
5.44828e-05
0.000215048
0.000104932
5.44683e-05
0.000215049
0.000200909
0.000104914
5.44771e-05
0.000215048
4.46205e-05
4.9338e-05
4.93376e-05
4.46191e-05
4.46213e-05
4.93384e-05
4.9338e-05
4.46197e-05
0.000104902
0.000200906
5.44736e-05
0.00021504
5.44672e-05
0.000215045
0.000104918
0.000104903
0.000200904
5.44663e-05
0.000215038
5.44609e-05
0.000215045
0.000104918
3.52518e-05
3.52484e-05
0.000177267
3.52518e-05
3.52489e-05
2.55514e-05
2.55513e-05
2.55505e-05
2.55507e-05
0.000177099
3.52475e-05
3.52445e-05
3.52484e-05
3.52451e-05
2.55512e-05
2.55515e-05
0.000104933
5.44616e-05
0.000215048
0.000200921
0.000104914
5.44728e-05
0.000215047
4.46346e-05
4.93298e-05
4.46315e-05
4.93297e-05
0.000104931
0.000215047
5.44559e-05
0.000200899
0.000104912
0.000215046
5.44672e-05
4.46277e-05
4.93339e-05
4.93336e-05
4.46254e-05
0.000104904
0.000200919
5.44635e-05
0.00021504
5.44568e-05
0.000215045
0.00010492
4.46266e-05
4.93309e-05
4.93306e-05
4.46243e-05
0.000104902
0.000200897
0.000215038
5.4458e-05
0.000215044
5.44512e-05
0.000104918
4.46291e-05
4.93355e-05
4.46252e-05
4.93356e-05
0.00010493
0.000215052
5.44681e-05
0.000200911
0.000104911
0.00021505
5.4479e-05
4.46287e-05
4.93333e-05
4.46249e-05
4.93331e-05
0.000104903
0.000200923
5.44647e-05
0.00021504
5.44588e-05
0.000215047
0.000104917
4.46205e-05
4.93369e-05
4.93366e-05
4.46191e-05
0.000104901
0.000200908
0.00021504
5.44699e-05
0.000215047
5.44636e-05
0.000104917
4.46201e-05
4.93345e-05
4.9334e-05
4.46187e-05
3.5241e-05
3.52571e-05
0.00017726
3.52419e-05
3.52576e-05
2.55505e-05
2.55506e-05
2.5548e-05
2.55482e-05
0.000177096
3.52381e-05
3.52539e-05
3.52381e-05
3.52543e-05
2.55506e-05
2.55508e-05
0.000104936
0.000215049
5.44657e-05
0.000200925
0.000104916
0.000215048
5.44765e-05
4.46352e-05
4.9333e-05
4.4632e-05
4.93329e-05
4.46355e-05
4.9333e-05
4.46324e-05
4.93329e-05
0.000104906
0.000200916
0.000215039
5.44701e-05
0.000215044
5.44639e-05
0.00010492
0.000104906
0.000200922
0.000215041
5.44672e-05
0.000215046
5.44608e-05
0.000104923
4.46273e-05
4.93342e-05
4.93338e-05
4.4625e-05
4.46275e-05
4.93342e-05
4.93338e-05
4.46253e-05
2.55503e-05
2.55504e-05
2.55493e-05
2.55494e-05
0.0001771
3.52537e-05
3.52479e-05
3.5254e-05
3.52483e-05
2.55504e-05
2.55506e-05
2.55494e-05
2.55496e-05
2.55522e-05
2.55519e-05
2.55498e-05
2.55495e-05
3.52518e-05
3.5246e-05
0.000177216
3.52503e-05
3.52444e-05
2.55518e-05
2.5552e-05
2.55494e-05
2.55496e-05
0.000177042
3.52451e-05
3.52392e-05
3.52465e-05
3.52407e-05
4.46086e-05
4.93392e-05
4.46098e-05
4.93389e-05
0.00010488
5.4457e-05
0.000215026
0.000200873
0.000104886
5.44618e-05
0.000215013
0.000104878
5.44494e-05
0.000215021
0.000200867
0.000104886
5.44541e-05
0.000215011
4.45994e-05
4.93393e-05
4.93398e-05
4.46012e-05
4.45998e-05
4.93387e-05
4.93396e-05
4.46018e-05
0.000104844
0.000200863
5.44534e-05
0.000215007
5.44455e-05
0.000215008
0.000104862
0.000104843
0.000200861
5.44465e-05
0.000215006
5.44371e-05
0.000215006
0.000104863
3.52438e-05
3.52404e-05
0.00017721
3.52405e-05
3.52382e-05
2.55514e-05
2.55511e-05
2.55501e-05
2.55506e-05
0.000177042
3.52346e-05
3.52331e-05
3.52358e-05
3.52342e-05
2.55509e-05
2.55512e-05
0.000104882
5.44465e-05
0.000215027
0.000200886
0.000104889
5.44517e-05
0.000215013
4.46133e-05
4.9332e-05
4.46152e-05
4.93321e-05
0.000104881
0.000215023
5.44408e-05
0.000200864
0.000104887
0.000215009
5.44461e-05
4.46062e-05
4.93352e-05
4.93358e-05
4.46075e-05
0.000104846
0.000200877
5.44432e-05
0.000215006
5.44349e-05
0.000215008
0.000104864
4.46051e-05
4.93323e-05
4.93329e-05
4.46064e-05
0.000104845
0.000200854
0.000215003
5.44374e-05
0.000215004
5.44292e-05
0.000104862
4.46081e-05
4.93379e-05
4.46093e-05
4.93376e-05
0.00010488
0.000215024
5.44533e-05
0.000200873
0.000104886
0.000215012
5.4458e-05
4.46077e-05
4.93354e-05
4.46089e-05
4.93356e-05
0.000104845
0.000200879
5.44454e-05
0.000215008
5.44362e-05
0.000215008
0.000104862
4.45992e-05
4.93376e-05
4.93384e-05
4.46012e-05
0.000104844
0.000200864
0.000215006
5.44494e-05
0.000215007
5.44416e-05
0.000104861
4.45989e-05
4.93357e-05
4.93363e-05
4.46008e-05
3.52342e-05
3.52504e-05
0.000177208
3.52333e-05
3.52489e-05
2.55507e-05
2.55504e-05
2.55477e-05
2.5548e-05
0.000177035
3.52277e-05
3.52436e-05
3.5229e-05
3.52451e-05
2.55503e-05
2.55506e-05
0.000104885
0.000215027
5.44505e-05
0.000200887
0.000104891
0.000215013
5.44554e-05
4.46139e-05
4.93352e-05
4.46158e-05
4.93353e-05
4.46142e-05
4.93351e-05
4.46161e-05
4.93353e-05
0.000104848
0.000200875
0.000215006
5.44495e-05
0.000215008
5.4442e-05
0.000104866
0.000104849
0.000200878
0.000215007
5.44469e-05
0.000215008
5.44389e-05
0.000104867
4.46058e-05
4.93355e-05
4.9336e-05
4.46072e-05
4.4606e-05
4.93355e-05
4.9336e-05
4.46074e-05
2.55505e-05
2.55502e-05
2.55495e-05
2.55492e-05
0.00017704
3.52435e-05
3.52377e-05
3.52448e-05
3.52391e-05
2.55501e-05
2.55504e-05
2.55491e-05
2.55494e-05
2.55519e-05
2.55515e-05
2.55495e-05
2.55493e-05
3.52418e-05
3.52362e-05
0.00017721
3.5242e-05
3.52368e-05
2.55514e-05
2.55516e-05
2.55493e-05
2.55494e-05
0.000177049
3.52414e-05