/*--------------------------------*- C++ -*----------------------------------*\
| =========                 |                                                 |
| \\      /  F ield         | OpenFOAM: The Open Source CFD Toolbox           |
|  \\    /   O peration     | Version:  2206                                  |
|   \\  /    A nd           | Website:  www.openfoam.com                      |
|    \\/     M anipulation  |                                                 |
\*---------------------------------------------------------------------------*/
FoamFile
{
    version     2.0;
    format      ascii;
    arch        "LSB;label=32;scalar=64";
    class       volScalarField;
    location    "32.5";
    object      epsilon;
}
// * * * * * * * * * * * * * * * * * * * * * * * * * * * * * * * * * * * * * //

dimensions      [0 2 -3 0 0 0 0];

internalField   nonuniform List<scalar> 
28335
(
2.63793e-07
2.92034e-07
2.92045e-07
3.26279e-07
2.63795e-07
2.92037e-07
2.92049e-07
3.26285e-07
2.63797e-07
2.92041e-07
2.92052e-07
3.26291e-07
2.63797e-07
2.92045e-07
2.92056e-07
3.26299e-07
2.63794e-07
2.92046e-07
2.92057e-07
3.26307e-07
2.63791e-07
2.92047e-07
2.92059e-07
3.26312e-07
2.63785e-07
2.92042e-07
2.92053e-07
3.2631e-07
2.63705e-07
2.91952e-07
2.91963e-07
3.26221e-07
2.63677e-07
2.91924e-07
2.91935e-07
3.26164e-07
2.63676e-07
2.91924e-07
2.91935e-07
3.2618e-07
2.63676e-07
2.91924e-07
2.91935e-07
3.26175e-07
2.63676e-07
2.91924e-07
2.91935e-07
3.26175e-07
2.63676e-07
2.91924e-07
2.91935e-07
3.26173e-07
2.63676e-07
2.91924e-07
2.91935e-07
3.26175e-07
2.63676e-07
2.91924e-07
2.91935e-07
3.26177e-07
2.63676e-07
2.91924e-07
2.91935e-07
3.26177e-07
2.63676e-07
2.91924e-07
2.91935e-07
3.26176e-07
3.26004e-07
2.92057e-07
2.92062e-07
3.25994e-07
2.92041e-07
2.9207e-07
2.92034e-07
2.9206e-07
3.26011e-07
2.92045e-07
2.92043e-07
3.2601e-07
3.26275e-07
3.26009e-07
2.9206e-07
2.92065e-07
2.92059e-07
2.92065e-07
3.26266e-07
3.26e-07
2.92044e-07
2.92072e-07
2.92043e-07
2.92072e-07
2.92063e-07
2.92037e-07
2.92063e-07
3.26282e-07
3.26017e-07
2.92046e-07
2.92048e-07
2.92046e-07
3.26016e-07
3.2628e-07
3.26016e-07
2.92063e-07
2.92068e-07
2.92063e-07
2.92068e-07
3.26271e-07
3.26006e-07
2.92046e-07
2.92075e-07
2.92047e-07
2.92075e-07
2.92066e-07
2.92041e-07
2.92066e-07
3.26287e-07
3.26023e-07
2.92049e-07
2.92052e-07
2.92049e-07
3.26022e-07
3.26287e-07
3.26024e-07
2.92066e-07
2.92072e-07
2.92067e-07
2.92073e-07
3.26278e-07
3.26014e-07
2.9205e-07
2.92079e-07
2.92051e-07
2.9208e-07
2.92069e-07
2.92044e-07
2.9207e-07
3.26294e-07
3.26032e-07
2.92052e-07
2.92055e-07
2.92053e-07
3.2603e-07
3.26296e-07
3.26032e-07
2.9207e-07
2.92076e-07
2.9207e-07
2.92076e-07
3.26286e-07
3.26022e-07
2.92054e-07
2.92083e-07
2.92054e-07
2.92083e-07
2.92073e-07
2.92046e-07
2.92073e-07
3.26303e-07
3.26039e-07
2.92056e-07
2.92057e-07
2.92056e-07
3.26038e-07
3.26303e-07
3.26039e-07
2.92073e-07
2.92078e-07
2.9207e-07
2.92076e-07
3.26294e-07
3.26028e-07
2.92056e-07
2.92085e-07
2.92054e-07
2.92083e-07
2.92075e-07
2.92047e-07
2.92073e-07
3.2631e-07
3.26045e-07
2.92058e-07
2.92058e-07
2.92056e-07
3.26044e-07
3.26309e-07
3.26038e-07
2.92072e-07
2.92078e-07
2.9207e-07
2.92076e-07
3.263e-07
3.26028e-07
2.92056e-07
2.92085e-07
2.92054e-07
2.92083e-07
2.92075e-07
2.92047e-07
2.92073e-07
3.26316e-07
3.26045e-07
2.92058e-07
2.92058e-07
2.92056e-07
3.26044e-07
3.26306e-07
3.2596e-07
2.92065e-07
2.92071e-07
2.91999e-07
2.92004e-07
3.26297e-07
3.2595e-07
2.92049e-07
2.92078e-07
2.91983e-07
2.92012e-07
2.92069e-07
2.91976e-07
2.92002e-07
3.26313e-07
3.25968e-07
2.92051e-07
2.91987e-07
2.91985e-07
3.25968e-07
3.26215e-07
3.25887e-07
2.91976e-07
2.91982e-07
2.91948e-07
2.91954e-07
3.26206e-07
3.25877e-07
2.9196e-07
2.91989e-07
2.91932e-07
2.91961e-07
2.9198e-07
2.91925e-07
2.91952e-07
3.26223e-07
3.25894e-07
2.91962e-07
2.91936e-07
2.91934e-07
3.25895e-07
3.26158e-07
3.25905e-07
2.91949e-07
2.91955e-07
2.91948e-07
2.91954e-07
3.26149e-07
3.25895e-07
2.91933e-07
2.91962e-07
2.91932e-07
2.91961e-07
2.91953e-07
2.91925e-07
2.91952e-07
3.26165e-07
3.25911e-07
2.91935e-07
2.91936e-07
2.91935e-07
3.25912e-07
3.26175e-07
3.25899e-07
2.91949e-07
2.91955e-07
2.91947e-07
2.91952e-07
3.26165e-07
3.25888e-07
2.91934e-07
2.91962e-07
2.91931e-07
2.9196e-07
2.91953e-07
2.91924e-07
2.9195e-07
3.26181e-07
3.25905e-07
2.91936e-07
2.91935e-07
2.91933e-07
3.25906e-07
3.26169e-07
3.25899e-07
2.91948e-07
2.91954e-07
2.91947e-07
2.91952e-07
3.2616e-07
3.25889e-07
2.91933e-07
2.91961e-07
2.91931e-07
2.9196e-07
2.91952e-07
2.91924e-07
2.9195e-07
3.26176e-07
3.25906e-07
2.91934e-07
2.91935e-07
2.91933e-07
3.25906e-07
3.2617e-07
3.25898e-07
2.91949e-07
2.91954e-07
2.91947e-07
2.91952e-07
3.2616e-07
3.25888e-07
2.91933e-07
2.91961e-07
2.91931e-07
2.91959e-07
2.91952e-07
2.91924e-07
2.9195e-07
3.26177e-07
3.25905e-07
2.91935e-07
2.91935e-07
2.91933e-07
3.25905e-07
3.26168e-07
3.25901e-07
2.91948e-07
2.91954e-07
2.91947e-07
2.91952e-07
3.26158e-07
3.25891e-07
2.91933e-07
2.91961e-07
2.91931e-07
2.9196e-07
2.91952e-07
2.91924e-07
2.9195e-07
3.26175e-07
3.25908e-07
2.91935e-07
2.91935e-07
2.91933e-07
3.25909e-07
3.2617e-07
3.25901e-07
2.91948e-07
2.91954e-07
2.91947e-07
2.91952e-07
3.26161e-07
3.25891e-07
2.91932e-07
2.91961e-07
2.91931e-07
2.9196e-07
2.91952e-07
2.91924e-07
2.9195e-07
3.26177e-07
3.25908e-07
2.91934e-07
2.91935e-07
2.91933e-07
3.25909e-07
3.26171e-07
3.259e-07
2.91949e-07
2.91954e-07
2.91947e-07
2.91952e-07
3.26162e-07
3.2589e-07
2.91933e-07
2.91961e-07
2.91931e-07
2.91959e-07
2.91952e-07
2.91924e-07
2.9195e-07
3.26178e-07
3.25907e-07
2.91935e-07
2.91935e-07
2.91933e-07
3.25908e-07
3.26171e-07
3.259e-07
2.91949e-07
2.91954e-07
2.91947e-07
2.91952e-07
3.26161e-07
3.2589e-07
2.91933e-07
2.91961e-07
2.91931e-07
2.91959e-07
2.91952e-07
2.91924e-07
2.9195e-07
3.26177e-07
3.25907e-07
2.91935e-07
2.91935e-07
2.91933e-07
3.25908e-07
3.26171e-07
2.91948e-07
2.91954e-07
3.26161e-07
2.91932e-07
2.91961e-07
2.91951e-07
3.26178e-07
2.91934e-07
1.78795e-06
8.8896e-06
2.16626e-05
1.78786e-06
8.89112e-06
2.63793e-07
2.63795e-07
2.63798e-07
2.63796e-07
5.47993e-07
2.92034e-07
1.42741e-06
2.73575e-07
2.16622e-05
5.48014e-07
2.92045e-07
2.73577e-07
1.42738e-06
3.25999e-07
3.14329e-06
3.1442e-06
1.78818e-06
8.88973e-06
1.78871e-06
8.88931e-06
2.16608e-05
2.16602e-05
1.78808e-06
8.89126e-06
1.78856e-06
8.8908e-06
2.63796e-07
2.638e-07
2.63798e-07
2.63795e-07
2.63795e-07
2.63799e-07
2.63797e-07
5.48026e-07
1.42838e-06
2.73574e-07
2.92037e-07
5.4818e-07
1.42758e-06
2.73576e-07
2.16609e-05
2.16601e-05
5.48047e-07
2.73576e-07
1.42832e-06
2.92048e-07
5.48205e-07
2.73579e-07
1.42756e-06
3.14415e-06
3.14503e-06
3.26012e-07
3.14371e-06
3.14458e-06
1.78828e-06
8.88963e-06
1.78885e-06
8.88922e-06
2.16593e-05
2.16591e-05
1.78819e-06
8.8911e-06
1.7887e-06
8.89067e-06
2.63795e-07
2.63799e-07
2.63797e-07
2.63797e-07
2.63794e-07
2.63798e-07
2.63796e-07
5.48056e-07
1.4285e-06
2.73575e-07
2.9204e-07
5.48212e-07
1.42767e-06
2.73578e-07
2.16595e-05
2.1659e-05
5.48076e-07
2.73578e-07
1.42844e-06
2.92052e-07
5.48237e-07
2.7358e-07
1.42765e-06
3.14439e-06
3.14526e-06
3.26018e-07
3.14384e-06
3.14472e-06
1.78832e-06
8.8895e-06
1.7889e-06
8.88911e-06
2.1659e-05
2.16591e-05
1.78821e-06
8.89097e-06
1.78875e-06
8.89057e-06
2.63797e-07
2.638e-07
2.63799e-07
2.63798e-07
2.63796e-07
2.638e-07
2.63798e-07
5.48079e-07
1.42855e-06
2.73577e-07
2.92044e-07
5.48238e-07
1.42771e-06
2.7358e-07
2.1659e-05
2.16587e-05
5.48098e-07
2.73579e-07
1.42849e-06
2.92055e-07
5.48262e-07
2.73582e-07
1.42768e-06
3.14442e-06
3.14529e-06
3.26026e-07
3.14388e-06
3.14476e-06
1.7883e-06
8.88947e-06
1.7889e-06
8.88912e-06
2.16592e-05
2.16593e-05
1.78818e-06
8.89096e-06
1.78874e-06
8.8906e-06
2.63797e-07
2.63801e-07
2.63798e-07
2.63795e-07
2.63795e-07
2.63799e-07
2.63796e-07
5.4809e-07
1.42857e-06
2.73578e-07
2.92047e-07
5.48254e-07
1.42773e-06
2.7358e-07
2.16591e-05
2.16591e-05
5.48107e-07
2.73581e-07
1.42851e-06
2.92058e-07
5.48276e-07
2.73583e-07
1.4277e-06
3.1445e-06
3.14537e-06
3.26033e-07
3.14398e-06
3.14486e-06
1.78828e-06
8.88952e-06
1.78887e-06
8.88919e-06
2.16597e-05
2.16599e-05
1.78817e-06
8.89104e-06
1.78871e-06
8.8907e-06
2.63794e-07
2.63798e-07
2.63796e-07
2.63791e-07
2.6379e-07
2.63794e-07
2.63792e-07
5.48099e-07
1.42859e-06
2.73578e-07
2.92047e-07
5.48262e-07
1.42774e-06
2.73578e-07
2.16597e-05
2.16597e-05
5.48119e-07
2.7358e-07
1.42852e-06
2.92058e-07
5.48286e-07
2.7358e-07
1.4277e-06
3.14459e-06
3.14546e-06
3.26041e-07
3.14402e-06
3.1449e-06
1.78831e-06
8.88972e-06
1.78887e-06
8.88956e-06
2.16605e-05
2.16607e-05
1.78821e-06
8.89112e-06
1.78871e-06
8.89089e-06
2.6379e-07
2.63794e-07
2.63792e-07
2.63789e-07
2.63788e-07
2.63791e-07
2.63789e-07
5.48108e-07
1.4286e-06
2.73575e-07
2.9205e-07
5.48271e-07
1.42778e-06
2.73576e-07
2.16606e-05
2.16605e-05
5.48125e-07
2.73578e-07
1.42853e-06
2.92061e-07
5.48294e-07
2.73578e-07
1.42775e-06
3.14456e-06
3.14543e-06
3.26045e-07
3.14406e-06
3.14494e-06
1.78845e-06
8.89016e-06
1.78908e-06
8.88984e-06
2.16596e-05
2.16592e-05
1.78835e-06
8.89146e-06
1.78893e-06
8.89109e-06
2.63785e-07
2.63789e-07
2.63786e-07
2.63728e-07
2.63727e-07
2.63731e-07
2.63729e-07
5.48073e-07
1.42872e-06
2.7357e-07
2.92028e-07
5.48275e-07
1.42783e-06
2.73561e-07
2.16599e-05
2.16594e-05
5.48092e-07
2.73572e-07
1.42865e-06
2.92039e-07
5.48297e-07
2.73563e-07
1.4278e-06
3.14473e-06
3.1456e-06
3.26024e-07
3.14412e-06
3.145e-06
1.78818e-06
8.89009e-06
1.78887e-06
8.88966e-06
2.16589e-05
2.16589e-05
1.78808e-06
8.89133e-06
1.78871e-06
8.89087e-06
2.63705e-07
2.63709e-07
2.63707e-07
2.63677e-07
2.63678e-07
2.63682e-07
2.6368e-07
5.47941e-07
1.42855e-06
2.73488e-07
2.91938e-07
5.48144e-07
1.42762e-06
2.73475e-07
2.16591e-05
2.16588e-05
5.47959e-07
2.7349e-07
1.42848e-06
2.91949e-07
5.48166e-07
2.73477e-07
1.4276e-06
3.14452e-06
3.14539e-06
3.25912e-07
3.14386e-06
3.14473e-06
1.78808e-06
8.88995e-06
1.78869e-06
8.88958e-06
2.16588e-05
2.16588e-05
1.78798e-06
8.89117e-06
1.78854e-06
8.89076e-06
2.6368e-07
2.63683e-07
2.63681e-07
2.63677e-07
2.63678e-07
2.63682e-07
2.6368e-07
5.47908e-07
1.42841e-06
2.73461e-07
2.91926e-07
5.4808e-07
1.42755e-06
2.73463e-07
2.16589e-05
2.16587e-05
5.47927e-07
2.73463e-07
1.42835e-06
2.91937e-07
5.48102e-07
2.73465e-07
1.42752e-06
3.14434e-06
3.14521e-06
3.25905e-07
3.14375e-06
3.14462e-06
1.78807e-06
8.88992e-06
1.78867e-06
8.88957e-06
2.16588e-05
2.16588e-05
1.78798e-06
8.89112e-06
1.78852e-06
8.89074e-06
2.63679e-07
2.63683e-07
2.63681e-07
2.63676e-07
2.63678e-07
2.63681e-07
2.63679e-07
5.47907e-07
1.42839e-06
2.73461e-07
2.91925e-07
5.48075e-07
1.42754e-06
2.73462e-07
2.16589e-05
2.16587e-05
5.47926e-07
2.73463e-07
1.42833e-06
2.91936e-07
5.48098e-07
2.73464e-07
1.42752e-06
3.14431e-06
3.14518e-06
3.25908e-07
3.14374e-06
3.14461e-06
1.78807e-06
8.88992e-06
1.78867e-06
8.88956e-06
2.16588e-05
2.16588e-05
1.78798e-06
8.89111e-06
1.78852e-06
8.89073e-06
2.63679e-07
2.63683e-07
2.63681e-07
2.63676e-07
2.63678e-07
2.63681e-07
2.63679e-07
5.47905e-07
1.42839e-06
2.7346e-07
2.91925e-07
5.48073e-07
1.42754e-06
2.73462e-07
2.16589e-05
2.16587e-05
5.47925e-07
2.73462e-07
1.42833e-06
2.91936e-07
5.48096e-07
2.73464e-07
1.42752e-06
3.14431e-06
3.14518e-06
3.25906e-07
3.14374e-06
3.14461e-06
1.78807e-06
8.88992e-06
1.78867e-06
8.88956e-06
2.16588e-05
2.16588e-05
1.78797e-06
8.89111e-06
1.78852e-06
8.89072e-06
2.63679e-07
2.63683e-07
2.63681e-07
2.63676e-07
2.63678e-07
2.63681e-07
2.63679e-07
5.47906e-07
1.42839e-06
2.7346e-07
2.91925e-07
5.48073e-07
1.42754e-06
2.73462e-07
2.16589e-05
2.16587e-05
5.47931e-07
2.73462e-07
1.42833e-06
2.91936e-07
5.48098e-07
2.73464e-07
1.42752e-06
3.14431e-06
3.14518e-06
3.25909e-07
3.14374e-06
3.14461e-06
1.78807e-06
8.88992e-06
1.78867e-06
8.88956e-06
2.16588e-05
2.16589e-05
1.78797e-06
8.89111e-06
1.78852e-06
8.89072e-06
2.63679e-07
2.63683e-07
2.63681e-07
2.63676e-07
2.63678e-07
2.63681e-07
2.63679e-07
5.47906e-07
1.42839e-06
2.7346e-07
2.91925e-07
5.48073e-07
1.42754e-06
2.73462e-07
2.16589e-05
2.16587e-05
5.47939e-07
2.73462e-07
1.42833e-06
2.91936e-07
5.48107e-07
2.73464e-07
1.42752e-06
3.14431e-06
3.14518e-06
3.25907e-07
3.14374e-06
3.14461e-06
1.78807e-06
8.88992e-06
1.78867e-06
8.88956e-06
2.16588e-05
2.16589e-05
1.78797e-06
8.8911e-06
1.78851e-06
8.89072e-06
2.63679e-07
2.63683e-07
2.63681e-07
2.63676e-07
2.63678e-07
2.63681e-07
2.63679e-07
5.47904e-07
1.42839e-06
2.7346e-07
2.91925e-07
5.48072e-07
1.42754e-06
2.73462e-07
2.16589e-05
2.16587e-05
5.47943e-07
2.73463e-07
1.42833e-06
2.91936e-07
5.48114e-07
2.73464e-07
1.42752e-06
3.14431e-06
3.14517e-06
3.25904e-07
3.14374e-06
3.14461e-06
1.78807e-06
8.88992e-06
1.78867e-06
8.88956e-06
2.16588e-05
2.16589e-05
1.78797e-06
8.8911e-06
1.78851e-06
8.89072e-06
2.63679e-07
2.63683e-07
2.63681e-07
2.63676e-07
2.63678e-07
2.63681e-07
2.63679e-07
5.47905e-07
1.42839e-06
2.7346e-07
2.91925e-07
5.48072e-07
1.42754e-06
2.73462e-07
2.16589e-05
2.16587e-05
5.47944e-07
2.73463e-07
1.42833e-06
2.91936e-07
5.48116e-07
2.73465e-07
1.42752e-06
3.14431e-06
3.14517e-06
3.25905e-07
3.14373e-06
3.14461e-06
1.78807e-06
8.88992e-06
1.78867e-06
8.88957e-06
2.16588e-05
2.16589e-05
1.78797e-06
8.8911e-06
1.78851e-06
8.89072e-06
2.63679e-07
2.63683e-07
2.63681e-07
2.63676e-07
2.63678e-07
2.63681e-07
2.63679e-07
5.47906e-07
1.42839e-06
2.7346e-07
2.91925e-07
5.48073e-07
1.42754e-06
2.73462e-07
2.16589e-05
2.16587e-05
5.47943e-07
2.73463e-07
1.42833e-06
2.91936e-07
5.48114e-07
2.73464e-07
1.42752e-06
3.1443e-06
3.14517e-06
3.25906e-07
3.14373e-06
3.14461e-06
1.78807e-06
8.88992e-06
1.78866e-06
8.88957e-06
2.16588e-05
2.16589e-05
1.78797e-06
8.8911e-06
1.78851e-06
8.89072e-06
2.63679e-07
2.63682e-07
2.6368e-07
5.47908e-07
1.42839e-06
2.7346e-07
2.91925e-07
5.48073e-07
1.42754e-06
2.73462e-07
2.16589e-05
2.16587e-05
5.47943e-07
2.73463e-07
1.42833e-06
2.91937e-07
5.48112e-07
2.73465e-07
1.42751e-06
3.1443e-06
3.14517e-06
3.25906e-07
3.14387e-06
3.14477e-06
2.16618e-05
2.16629e-05
3.25993e-07
3.14325e-06
3.14408e-06
2.16602e-05
2.16615e-05
2.16613e-05
2.16626e-05
3.26268e-07
3.14343e-06
3.14428e-06
3.14382e-06
3.14466e-06
1.78798e-06
8.89051e-06
5.4799e-07
2.92057e-07
1.42733e-06
2.73575e-07
5.47994e-07
2.92062e-07
1.42752e-06
2.73577e-07
1.78858e-06
8.8894e-06
8.8899e-06
1.78809e-06
1.7886e-06
8.89031e-06
8.89081e-06
1.78811e-06
5.48166e-07
2.92057e-07
1.42743e-06
2.73574e-07
1.42816e-06
2.73574e-07
5.48006e-07
5.4817e-07
2.92062e-07
1.42763e-06
2.73576e-07
1.42837e-06
2.73576e-07
5.48011e-07
3.25983e-07
3.14403e-06
3.14296e-06
2.16597e-05
2.16611e-05
2.16623e-05
3.26259e-07
3.14448e-06
3.14329e-06
3.14471e-06
3.14367e-06
2.16583e-05
2.16597e-05
5.48015e-07
2.92041e-07
1.42764e-06
2.73577e-07
1.78784e-06
8.89058e-06
5.48003e-07
2.92069e-07
2.7358e-07
1.42769e-06
1.78843e-06
8.89092e-06
8.89144e-06
1.78799e-06
5.48187e-07
2.92041e-07
1.42774e-06
2.73577e-07
1.42846e-06
2.73577e-07
5.48031e-07
1.78842e-06
8.89039e-06
8.89091e-06
1.78798e-06
5.48177e-07
2.92069e-07
2.7358e-07
1.4278e-06
2.7358e-07
1.42857e-06
5.48019e-07
1.78799e-06
8.89001e-06
5.47999e-07
2.9206e-07
2.73577e-07
1.42739e-06
1.78799e-06
8.89063e-06
5.48168e-07
2.92034e-07
1.42751e-06
2.73574e-07
1.42828e-06
2.73574e-07
5.48009e-07
1.78862e-06
8.88981e-06
8.89034e-06
1.78813e-06
5.48172e-07
2.9206e-07
2.73576e-07
1.4275e-06
2.73576e-07
1.42823e-06
5.48015e-07
1.78861e-06
8.89043e-06
8.89094e-06
1.78812e-06
3.26e-07
3.14405e-06
3.1433e-06
2.16626e-05
2.16609e-05
2.16622e-05
3.26275e-07
3.14446e-06
3.14349e-06
3.1448e-06
3.14388e-06
2.1661e-05
2.16623e-05
5.48017e-07
2.92043e-07
2.73577e-07
1.42757e-06
1.78784e-06
8.89078e-06
1.78785e-06
8.89142e-06
5.48192e-07
2.92045e-07
2.73576e-07
1.42748e-06
2.73576e-07
1.42822e-06
5.4803e-07
5.48197e-07
2.92043e-07
2.73576e-07
1.42767e-06
2.73576e-07
1.42841e-06
5.48034e-07
1.78842e-06
8.89058e-06
8.89108e-06
1.78797e-06
1.78843e-06
8.89122e-06
8.89172e-06
1.78798e-06
2.16628e-05
2.16633e-05
3.26274e-07
3.14354e-06
3.14442e-06
3.14389e-06
3.14478e-06
2.16612e-05
2.16625e-05
2.16618e-05
2.1663e-05
2.166e-05
2.16592e-05
2.16611e-05
2.16603e-05
3.14399e-06
3.14485e-06
3.26005e-07
3.1436e-06
3.14445e-06
2.16586e-05
2.16591e-05
2.16597e-05
2.16602e-05
3.26277e-07
3.14372e-06
3.14455e-06
3.14416e-06
3.145e-06
1.7882e-06
8.89063e-06
1.78872e-06
8.89019e-06
5.48024e-07
1.42826e-06
2.73576e-07
2.9206e-07
5.48182e-07
1.42751e-06
2.73576e-07
5.48028e-07
1.42847e-06
2.73577e-07
2.92065e-07
5.48187e-07
1.42771e-06
2.73577e-07
1.78878e-06
8.88928e-06
8.88966e-06
1.78824e-06
1.78881e-06
8.89013e-06
8.89054e-06
1.78827e-06
5.482e-07
2.92059e-07
1.42758e-06
2.73575e-07
1.42833e-06
2.73575e-07
5.4804e-07
5.48204e-07
2.92065e-07
1.42777e-06
2.73576e-07
1.42854e-06
2.73576e-07
5.48044e-07
3.14508e-06
3.14395e-06
3.25996e-07
3.14466e-06
3.14348e-06
2.16584e-05
2.16574e-05
2.16595e-05
2.166e-05
3.26267e-07
3.14469e-06
3.14358e-06
3.14521e-06
3.14412e-06
2.16568e-05
2.16575e-05
5.48049e-07
1.42856e-06
2.73579e-07
2.92044e-07
5.48203e-07
1.42782e-06
2.73579e-07
1.78807e-06
8.89074e-06
1.78854e-06
8.89029e-06
5.48036e-07
2.73581e-07
1.42867e-06
2.92072e-07
5.48193e-07
2.73581e-07
1.42788e-06
1.78864e-06
8.89074e-06
8.89116e-06
1.78815e-06
5.48221e-07
2.92043e-07
1.42788e-06
2.73577e-07
1.42863e-06
2.73577e-07
5.48065e-07
1.78862e-06
8.89025e-06
8.89067e-06
1.78813e-06
5.48211e-07
2.92072e-07
2.7358e-07
1.42793e-06
2.7358e-07
1.42874e-06
5.48052e-07
1.78822e-06
8.89016e-06
1.78874e-06
8.88968e-06
5.48032e-07
2.73578e-07
1.42833e-06
2.92063e-07
5.48189e-07
2.73578e-07
1.42758e-06
1.78821e-06
8.89076e-06
1.78873e-06
8.89032e-06
5.48201e-07
2.92037e-07
1.42764e-06
2.73575e-07
1.42844e-06
2.73576e-07
5.48042e-07
1.78882e-06
8.88961e-06
8.89005e-06
1.78828e-06
5.48206e-07
2.92062e-07
2.73577e-07
1.42763e-06
2.73577e-07
1.4284e-06
5.48048e-07
1.78881e-06
8.89026e-06
8.89066e-06
1.78827e-06
3.14513e-06
3.14406e-06
3.26013e-07
3.14462e-06
3.14365e-06
2.16608e-05
2.166e-05
2.16594e-05
2.16601e-05
3.26284e-07
3.14463e-06
3.14376e-06
3.14524e-06
3.14421e-06
2.16594e-05
2.16599e-05
5.48053e-07
2.73578e-07
1.42851e-06
2.92046e-07
5.48214e-07
2.73578e-07
1.42775e-06
1.78806e-06
8.8909e-06
1.78854e-06
8.89046e-06
1.78807e-06
8.89154e-06
1.78855e-06
8.89111e-06
5.48226e-07
2.92048e-07
2.73578e-07
1.42762e-06
2.73578e-07
1.42838e-06
5.48063e-07
5.48232e-07
2.92046e-07
2.73577e-07
1.42781e-06
2.73577e-07
1.42858e-06
5.48069e-07
1.78862e-06
8.8904e-06
8.89081e-06
1.78813e-06
1.78863e-06
8.89106e-06
8.89146e-06
1.78814e-06
2.16609e-05
2.16602e-05
2.16615e-05
2.16607e-05
3.26284e-07
3.14381e-06
3.14468e-06
3.14427e-06
3.14514e-06
2.16595e-05
2.166e-05
2.16601e-05
2.16606e-05
2.16585e-05
2.16583e-05
2.16596e-05
2.16594e-05
3.14426e-06
3.1451e-06
3.26011e-07
3.14376e-06
3.1446e-06
2.16582e-05
2.16583e-05
2.16592e-05
2.16593e-05
3.26283e-07
3.14376e-06
3.14462e-06
3.14428e-06
3.14513e-06
1.7883e-06
8.89048e-06
1.78886e-06
8.89005e-06
5.48055e-07
1.42839e-06
2.73578e-07
2.92063e-07
5.48216e-07
1.42761e-06
2.73578e-07
5.48059e-07
1.42859e-06
2.73579e-07
2.92068e-07
5.4822e-07
1.4278e-06
2.73579e-07
1.78887e-06
8.88915e-06
8.88956e-06
1.78831e-06
1.78889e-06
8.88998e-06
8.89039e-06
1.78833e-06
5.4823e-07
2.92062e-07
1.42763e-06
2.73577e-07
1.42842e-06
2.73577e-07
5.48069e-07
5.48234e-07
2.92068e-07
1.42781e-06
2.73578e-07
1.42862e-06
2.73578e-07
5.48072e-07
3.14522e-06
3.14421e-06
3.26001e-07
3.14468e-06
3.14365e-06
2.16569e-05
2.16564e-05
2.1659e-05
2.16591e-05
3.26274e-07
3.14469e-06
3.14371e-06
3.14521e-06
3.14427e-06
2.16562e-05
2.16566e-05
5.4808e-07
1.42868e-06
2.7358e-07
2.92046e-07
5.48237e-07
1.42791e-06
2.7358e-07
1.78817e-06
8.89062e-06
1.78868e-06
8.89017e-06
5.48067e-07
2.73583e-07
1.42879e-06
2.92075e-07
5.48226e-07
2.73583e-07
1.42796e-06
1.78872e-06
8.8906e-06
8.89103e-06
1.78821e-06
5.48251e-07
2.92046e-07
1.42793e-06
2.73579e-07
1.42871e-06
2.73579e-07
5.48093e-07
1.78871e-06
8.8901e-06
8.89054e-06
1.78819e-06
5.48241e-07
2.92075e-07
2.73582e-07
1.42799e-06
2.73582e-07
1.42882e-06
5.4808e-07
1.78832e-06
8.88999e-06
1.78887e-06
8.88954e-06
5.48063e-07
2.73579e-07
1.42845e-06
2.92066e-07
5.48221e-07
2.73579e-07
1.42767e-06
1.78831e-06
8.89061e-06
1.78887e-06
8.89018e-06
5.4823e-07
2.9204e-07
1.4277e-06
2.73577e-07
1.42852e-06
2.73577e-07
5.48069e-07
1.78891e-06
8.88948e-06
8.88991e-06
1.78834e-06
5.48236e-07
2.92065e-07
2.73579e-07
1.42769e-06
2.73578e-07
1.42848e-06
5.48076e-07
1.7889e-06
8.89011e-06
8.89052e-06
1.78833e-06
3.14524e-06
3.1443e-06
3.26018e-07
3.14463e-06
3.1438e-06
2.16593e-05
2.16591e-05
2.16588e-05
2.16592e-05
3.2629e-07
3.14467e-06
3.14382e-06
3.14525e-06
3.14433e-06
2.16589e-05
2.16591e-05
5.48084e-07
2.73579e-07
1.42863e-06
2.92049e-07
5.48248e-07
2.73579e-07
1.42784e-06
1.78816e-06
8.89075e-06
1.78867e-06
8.89032e-06
1.78817e-06
8.89141e-06
1.78869e-06
8.891e-06
5.48254e-07
2.92052e-07
2.73579e-07
1.42767e-06
2.7358e-07
1.42846e-06
5.48089e-07
5.48263e-07
2.92049e-07
2.73579e-07
1.42786e-06
2.73579e-07
1.42866e-06
5.48097e-07
1.78871e-06
8.89025e-06
8.89066e-06
1.78818e-06
1.78872e-06
8.89093e-06
8.89134e-06
1.78819e-06
2.16595e-05
2.16593e-05
2.166e-05
2.16598e-05
3.2629e-07
3.14385e-06
3.14473e-06
3.14438e-06
3.14525e-06
2.16591e-05
2.16592e-05
2.16597e-05
2.16598e-05
2.16583e-05
2.16582e-05
2.16593e-05
2.16593e-05
3.14428e-06
3.14515e-06
3.26018e-07
3.14379e-06
3.14465e-06
2.16583e-05
2.16583e-05
2.16594e-05
2.16594e-05
3.2629e-07
3.14384e-06
3.1447e-06
3.14432e-06
3.14519e-06
1.78834e-06
8.89033e-06
1.78891e-06
8.88995e-06
5.4808e-07
1.42843e-06
2.7358e-07
2.92066e-07
5.48244e-07
1.42764e-06
2.7358e-07
5.48083e-07
1.42863e-06
2.73581e-07
2.92072e-07
5.48246e-07
1.42783e-06
2.73581e-07
1.7889e-06
8.8891e-06
8.88947e-06
1.78832e-06
1.78892e-06
8.88995e-06
8.89031e-06
1.78833e-06
5.48255e-07
2.92067e-07
1.42766e-06
2.7358e-07
1.42845e-06
2.73579e-07
5.48089e-07
5.48257e-07
2.92072e-07
1.42784e-06
2.73581e-07
1.42865e-06
2.73581e-07
5.48091e-07
3.14523e-06
3.14433e-06
3.26009e-07
3.14473e-06
3.14375e-06
2.16564e-05
2.16562e-05
2.16592e-05
2.16591e-05
3.26281e-07
3.14477e-06
3.14381e-06
3.14527e-06
3.14437e-06
2.16563e-05
2.16564e-05
5.48104e-07
1.42873e-06
2.73582e-07
2.9205e-07
5.48264e-07
1.42794e-06
2.73582e-07
1.7882e-06
8.89047e-06
1.78873e-06
8.89005e-06
5.48091e-07
2.73585e-07
1.42884e-06
2.92079e-07
5.48253e-07
2.73585e-07
1.428e-06
1.78874e-06
8.89057e-06
8.89095e-06
1.7882e-06
5.48274e-07
2.9205e-07
1.42796e-06
2.73581e-07
1.42874e-06
2.73581e-07
5.4811e-07
1.78873e-06
8.89004e-06
8.89044e-06
1.78819e-06
5.48263e-07
2.92079e-07
2.73584e-07
1.42801e-06
2.73584e-07
1.42885e-06
5.48098e-07
1.78835e-06
8.88985e-06
1.78892e-06
8.88944e-06
5.48088e-07
2.73581e-07
1.4285e-06
2.92069e-07
5.48249e-07
2.73581e-07
1.4277e-06
1.78834e-06
8.89046e-06
1.78892e-06
8.89008e-06
5.48251e-07
2.92044e-07
1.42772e-06
2.73578e-07
1.42855e-06
2.7358e-07
5.48086e-07
1.78893e-06
8.88944e-06
8.88983e-06
1.78834e-06
5.48259e-07
2.9207e-07
2.73581e-07
1.42771e-06
2.73581e-07
1.42851e-06
5.48095e-07
1.78893e-06
8.89007e-06
8.89044e-06
1.78834e-06
3.14529e-06
3.14435e-06
3.26025e-07
3.14471e-06
3.14385e-06
2.1659e-05
2.1659e-05
2.16588e-05
2.16589e-05
3.26297e-07
3.14475e-06
3.1439e-06
3.14533e-06
3.14438e-06
2.16591e-05
2.16591e-05
5.48109e-07
2.73582e-07
1.42868e-06
2.92052e-07
5.48275e-07
2.73582e-07
1.42788e-06
1.78819e-06
8.8906e-06
1.78872e-06
8.89021e-06
1.7882e-06
8.89128e-06
1.78873e-06
8.8909e-06
5.48275e-07
2.92055e-07
2.73581e-07
1.42769e-06
2.73582e-07
1.42849e-06
5.48104e-07
5.48284e-07
2.92053e-07
2.73581e-07
1.42788e-06
2.73581e-07
1.42869e-06
5.48114e-07
1.78872e-06
8.89021e-06
8.89057e-06
1.78818e-06
1.78874e-06
8.89087e-06
8.89125e-06
1.78819e-06
2.16592e-05
2.16591e-05
2.16597e-05
2.16597e-05
3.26297e-07
3.14392e-06
3.1448e-06
3.14442e-06
3.14529e-06
2.16592e-05
2.16592e-05
2.16598e-05
2.16598e-05
2.16584e-05
2.16585e-05
2.16595e-05
2.16596e-05
3.14437e-06
3.14524e-06
3.26027e-07
3.1439e-06
3.14476e-06
2.16588e-05
2.16587e-05
2.16599e-05
2.16597e-05
3.26299e-07
3.14394e-06
3.1448e-06
3.14443e-06
3.14529e-06
1.78831e-06
8.89032e-06
1.78891e-06
8.88997e-06
5.48094e-07
1.42846e-06
2.73583e-07
2.9207e-07
5.48262e-07
1.42766e-06
2.73583e-07
5.48097e-07
1.42866e-06
2.73584e-07
2.92076e-07
5.48265e-07
1.42785e-06
2.73584e-07
1.78888e-06
8.88915e-06
8.88948e-06
1.78829e-06
1.78889e-06
8.89002e-06
8.89034e-06
1.78831e-06
5.48267e-07
2.9207e-07
1.42767e-06
2.73582e-07
1.42847e-06
2.73582e-07
5.481e-07
5.4827e-07
2.92075e-07
1.42785e-06
2.73581e-07
1.42866e-06
2.73583e-07
5.48103e-07
3.14532e-06
3.14443e-06
3.26017e-07
3.14482e-06
3.14387e-06
2.16566e-05
2.16566e-05
2.16596e-05
2.16595e-05
3.26289e-07
3.14485e-06
3.14391e-06
3.14537e-06
3.14449e-06
2.16569e-05
2.16568e-05
5.48115e-07
1.42875e-06
2.73584e-07
2.92054e-07
5.48279e-07
1.42796e-06
2.73584e-07
1.78817e-06
8.89043e-06
1.78872e-06
8.89006e-06
5.48103e-07
2.73587e-07
1.42886e-06
2.92083e-07
5.48269e-07
2.73587e-07
1.42802e-06
1.78871e-06
8.89065e-06
8.89098e-06
1.78818e-06
5.48284e-07
2.92054e-07
1.42797e-06
2.73583e-07
1.42876e-06
2.73582e-07
5.48122e-07
1.7887e-06
8.89012e-06
8.89046e-06
1.78817e-06
5.48275e-07
2.92083e-07
2.73585e-07
1.42803e-06
2.73586e-07
1.42887e-06
5.4811e-07
1.78833e-06
8.88984e-06
1.78892e-06
8.88947e-06
5.48099e-07
2.73584e-07
1.42852e-06
2.92073e-07
5.48266e-07
2.73584e-07
1.42772e-06
1.78833e-06
8.89044e-06
1.78892e-06
8.8901e-06
5.48261e-07
2.92047e-07
1.42774e-06
2.73579e-07
1.42857e-06
2.73579e-07
5.48095e-07
1.78891e-06
8.88952e-06
8.88987e-06
1.78832e-06
5.4827e-07
2.92073e-07
2.73581e-07
1.42772e-06
2.73583e-07
1.42852e-06
5.48105e-07
1.7889e-06
8.89015e-06
8.89047e-06
1.78832e-06
3.14538e-06
3.14444e-06
3.26034e-07
3.14481e-06
3.14396e-06
2.16592e-05
2.16593e-05
2.16595e-05
2.16594e-05
3.26305e-07
3.14485e-06
3.14399e-06
3.14543e-06
3.14449e-06
2.16596e-05
2.16594e-05
5.48119e-07
2.73584e-07
1.4287e-06
2.92056e-07
5.4829e-07
2.73584e-07
1.42789e-06
1.78816e-06
8.89058e-06
1.78871e-06
8.89024e-06
1.78817e-06
8.89123e-06
1.78872e-06
8.89087e-06
5.48284e-07
2.92058e-07
2.73581e-07
1.42771e-06
2.73583e-07
1.42851e-06
5.48113e-07
5.48295e-07
2.92056e-07
2.73583e-07
1.42789e-06
2.73583e-07
1.4287e-06
5.48126e-07
1.78869e-06
8.89029e-06
8.89061e-06
1.78816e-06
1.7887e-06
8.89089e-06
8.89123e-06
1.78817e-06
2.16593e-05
2.16594e-05
2.16599e-05
2.166e-05
3.26305e-07
3.14401e-06
3.1449e-06
3.14452e-06
3.14539e-06
2.16597e-05
2.16596e-05
2.16603e-05
2.16601e-05
2.16589e-05
2.16591e-05
2.166e-05
2.16602e-05
3.14446e-06
3.14533e-06
3.26034e-07
3.14395e-06
3.14481e-06
2.16596e-05
2.16593e-05
2.16607e-05
2.16604e-05
3.26306e-07
3.14391e-06
3.14477e-06
3.14446e-06
3.14532e-06
1.7883e-06
8.8904e-06
1.78889e-06
8.89007e-06
5.48104e-07
1.42847e-06
2.73581e-07
2.92073e-07
5.48272e-07
1.42767e-06
2.7358e-07
5.48108e-07
1.42867e-06
2.73582e-07
2.92078e-07
5.48276e-07
1.42785e-06
2.73581e-07
1.78887e-06
8.88931e-06
8.88957e-06
1.78829e-06
1.78889e-06
8.89019e-06
8.89045e-06
1.78831e-06
5.48277e-07
2.92071e-07
1.42767e-06
2.73576e-07
1.42846e-06
2.73577e-07
5.48104e-07
5.48281e-07
2.92076e-07
1.42786e-06
2.73578e-07
1.42866e-06
2.73579e-07
5.48109e-07
3.1454e-06
3.14452e-06
3.26024e-07
3.14486e-06
3.14391e-06
2.16572e-05
2.16572e-05
2.16604e-05
2.16601e-05
3.26296e-07
3.14483e-06
3.14388e-06
3.14539e-06
3.14451e-06
2.16577e-05
2.16575e-05
5.48127e-07
1.42877e-06
2.73582e-07
2.92056e-07
5.48291e-07
1.42797e-06
2.73581e-07
1.78816e-06
8.89052e-06
1.7887e-06
8.89017e-06
5.48116e-07
2.73585e-07
1.42888e-06
2.92085e-07
5.48282e-07
2.73585e-07
1.42803e-06
1.78871e-06
8.8907e-06
8.89109e-06
1.78819e-06
5.48296e-07
2.92054e-07
1.42796e-06
2.73578e-07
1.42876e-06
2.73578e-07
5.48126e-07
1.7887e-06
8.89028e-06
8.89057e-06
1.78818e-06
5.48287e-07
2.92083e-07
2.73581e-07
1.42803e-06
2.73582e-07
1.42887e-06
5.48116e-07
1.78831e-06
8.88993e-06
1.7889e-06
8.88957e-06
5.48111e-07
2.73582e-07
1.42853e-06
2.92075e-07
5.48276e-07
2.73581e-07
1.42772e-06
1.78831e-06
8.89053e-06
1.7889e-06
8.89019e-06
5.48271e-07
2.92047e-07
1.42774e-06
2.73575e-07
1.42857e-06
2.73576e-07
5.48104e-07
1.7889e-06
8.88969e-06
8.88998e-06
1.78832e-06
5.48281e-07
2.92073e-07
2.73578e-07
1.42772e-06
2.73579e-07
1.42853e-06
5.48112e-07
1.7889e-06
8.89031e-06
8.89057e-06
1.78832e-06
3.14546e-06
3.14452e-06
3.26041e-07
3.14486e-06
3.144e-06
2.16597e-05
2.16599e-05
2.16603e-05
2.16601e-05
3.26313e-07
3.14482e-06
3.14397e-06
3.14546e-06
3.14452e-06
2.16604e-05
2.16601e-05
5.4813e-07
2.73582e-07
1.4287e-06
2.92058e-07
5.48301e-07
2.73581e-07
1.42788e-06
1.78815e-06
8.89067e-06
1.78869e-06
8.89033e-06
1.78815e-06
8.89126e-06
1.7887e-06
8.89092e-06
5.48296e-07
2.92058e-07
2.73578e-07
1.42771e-06
2.73579e-07
1.42851e-06
5.48123e-07
5.48305e-07
2.92056e-07
2.73577e-07
1.42789e-06
2.73578e-07
1.4287e-06
5.4813e-07
1.78869e-06
8.89045e-06
8.89071e-06
1.78816e-06
1.7887e-06
8.89102e-06
8.89129e-06
1.78816e-06
2.16598e-05
2.166e-05
2.16604e-05
2.16605e-05
3.26312e-07
3.14399e-06
3.14487e-06
3.14455e-06
3.14542e-06
2.16605e-05
2.16602e-05
2.16611e-05
2.16607e-05
2.16597e-05
2.16599e-05
2.16608e-05
2.16609e-05
3.14444e-06
3.1453e-06
3.26038e-07
3.14398e-06
3.14484e-06
2.16593e-05
2.16599e-05
2.16603e-05
2.16609e-05
3.26309e-07
3.14408e-06
3.14494e-06
3.14454e-06
3.14541e-06
1.78833e-06
8.8906e-06
1.78889e-06
8.89044e-06
5.48101e-07
1.42848e-06
2.73577e-07
2.92072e-07
5.48274e-07
1.42771e-06
2.73577e-07
5.48106e-07
1.42868e-06
2.73579e-07
2.92078e-07
5.48279e-07
1.4279e-06
2.73578e-07
1.78893e-06
8.88979e-06
8.88998e-06
1.78845e-06
1.78896e-06
8.89066e-06
8.89086e-06
1.78848e-06
5.48275e-07
2.92071e-07
1.42778e-06
2.73574e-07
1.42854e-06
2.73575e-07
5.48103e-07
5.4828e-07
2.92077e-07
1.42796e-06
2.73575e-07
1.42873e-06
2.73576e-07
5.48108e-07
3.14537e-06
3.14449e-06
3.26029e-07
3.14489e-06
3.14394e-06
2.1658e-05
2.1658e-05
2.16599e-05
2.16607e-05
3.26301e-07
3.14504e-06
3.14404e-06
3.14546e-06
3.14459e-06
2.16574e-05
2.16581e-05
5.48123e-07
1.42882e-06
2.73577e-07
2.92056e-07
5.48292e-07
1.42804e-06
2.73577e-07
1.78819e-06
8.89072e-06
1.7887e-06
8.89053e-06
5.48113e-07
2.73582e-07
1.42889e-06
2.92085e-07
5.48284e-07
2.73582e-07
1.42807e-06
1.78878e-06
8.89107e-06
8.89132e-06
1.78835e-06
5.48294e-07