/*--------------------------------*- C++ -*----------------------------------*\
| =========                 |                                                 |
| \\      /  F ield         | OpenFOAM: The Open Source CFD Toolbox           |
|  \\    /   O peration     | Version:  2206                                  |
|   \\  /    A nd           | Website:  www.openfoam.com                      |
|    \\/     M anipulation  |                                                 |
\*---------------------------------------------------------------------------*/
FoamFile
{
    version     2.0;
    format      ascii;
    arch        "LSB;label=32;scalar=64";
    class       volScalarField;
    location    "13";
    object      k;
}
// * * * * * * * * * * * * * * * * * * * * * * * * * * * * * * * * * * * * * //

dimensions      [0 2 -2 0 0 0 0];

internalField   nonuniform List<scalar> 
28335
(
3.15578e-05
3.14593e-05
3.14592e-05
3.13104e-05
3.15576e-05
3.14591e-05
3.14591e-05
3.13103e-05
3.15525e-05
3.14536e-05
3.14536e-05
3.13047e-05
3.1548e-05
3.14489e-05
3.14489e-05
3.12994e-05
3.15479e-05
3.14489e-05
3.14489e-05
3.12994e-05
3.15479e-05
3.14489e-05
3.14489e-05
3.12994e-05
3.15479e-05
3.14489e-05
3.14489e-05
3.12994e-05
3.15479e-05
3.14489e-05
3.14489e-05
3.12994e-05
3.15479e-05
3.14489e-05
3.14489e-05
3.12994e-05
3.15479e-05
3.14489e-05
3.14489e-05
3.12994e-05
3.15479e-05
3.14489e-05
3.14489e-05
3.12994e-05
3.15479e-05
3.14489e-05
3.14489e-05
3.12994e-05
3.15479e-05
3.14489e-05
3.14489e-05
3.12994e-05
3.15479e-05
3.14489e-05
3.14489e-05
3.12994e-05
3.15479e-05
3.14489e-05
3.14489e-05
3.12994e-05
3.15479e-05
3.14489e-05
3.14489e-05
3.12994e-05
3.15479e-05
3.14489e-05
3.14489e-05
3.12994e-05
3.13118e-05
3.14592e-05
3.14592e-05
3.13118e-05
3.14593e-05
3.14592e-05
3.14593e-05
3.14592e-05
3.13117e-05
3.14593e-05
3.14593e-05
3.13116e-05
3.13108e-05
3.13117e-05
3.14594e-05
3.14594e-05
3.14593e-05
3.14593e-05
3.13108e-05
3.13117e-05
3.14594e-05
3.14593e-05
3.14593e-05
3.14592e-05
3.14594e-05
3.14592e-05
3.14592e-05
3.13108e-05
3.13116e-05
3.14594e-05
3.14591e-05
3.14593e-05
3.13116e-05
3.13107e-05
3.13085e-05
3.14592e-05
3.14592e-05
3.14568e-05
3.14568e-05
3.13107e-05
3.13085e-05
3.14592e-05
3.14591e-05
3.14569e-05
3.14567e-05
3.14591e-05
3.14569e-05
3.14568e-05
3.13106e-05
3.13084e-05
3.14592e-05
3.14569e-05
3.14569e-05
3.13084e-05
3.13051e-05
3.13006e-05
3.14536e-05
3.14536e-05
3.1449e-05
3.1449e-05
3.13051e-05
3.13006e-05
3.14537e-05
3.14536e-05
3.14491e-05
3.14489e-05
3.14536e-05
3.14491e-05
3.1449e-05
3.1305e-05
3.13005e-05
3.14537e-05
3.1449e-05
3.1449e-05
3.13006e-05
3.12997e-05
3.13006e-05
3.1449e-05
3.1449e-05
3.14488e-05
3.14488e-05
3.12996e-05
3.13006e-05
3.14491e-05
3.14489e-05
3.14489e-05
3.14488e-05
3.1449e-05
3.14489e-05
3.14488e-05
3.12995e-05
3.13005e-05
3.1449e-05
3.14489e-05
3.14489e-05
3.13006e-05
3.12997e-05
3.13006e-05
3.1449e-05
3.1449e-05
3.14488e-05
3.14488e-05
3.12996e-05
3.13006e-05
3.1449e-05
3.14489e-05
3.14489e-05
3.14488e-05
3.1449e-05
3.1449e-05
3.14489e-05
3.12996e-05
3.13005e-05
3.1449e-05
3.14489e-05
3.14489e-05
3.13006e-05
3.12997e-05
3.13006e-05
3.1449e-05
3.1449e-05
3.14489e-05
3.14488e-05
3.12997e-05
3.13006e-05
3.1449e-05
3.14489e-05
3.14489e-05
3.14488e-05
3.1449e-05
3.1449e-05
3.14489e-05
3.12996e-05
3.13005e-05
3.1449e-05
3.14489e-05
3.14489e-05
3.13006e-05
3.12997e-05
3.13006e-05
3.1449e-05
3.1449e-05
3.14489e-05
3.14488e-05
3.12997e-05
3.13006e-05
3.1449e-05
3.14489e-05
3.14489e-05
3.14488e-05
3.1449e-05
3.1449e-05
3.14489e-05
3.12996e-05
3.13005e-05
3.1449e-05
3.14489e-05
3.14489e-05
3.13006e-05
3.12997e-05
3.13006e-05
3.1449e-05
3.1449e-05
3.14489e-05
3.14488e-05
3.12997e-05
3.13006e-05
3.1449e-05
3.14489e-05
3.14489e-05
3.14488e-05
3.1449e-05
3.1449e-05
3.14489e-05
3.12996e-05
3.13005e-05
3.1449e-05
3.14489e-05
3.14489e-05
3.13006e-05
3.12997e-05
3.13006e-05
3.1449e-05
3.1449e-05
3.14489e-05
3.14488e-05
3.12996e-05
3.13006e-05
3.1449e-05
3.14489e-05
3.14489e-05
3.14488e-05
3.1449e-05
3.1449e-05
3.14489e-05
3.12996e-05
3.13005e-05
3.1449e-05
3.14489e-05
3.14489e-05
3.13006e-05
3.12997e-05
3.13006e-05
3.1449e-05
3.1449e-05
3.14489e-05
3.14488e-05
3.12996e-05
3.13006e-05
3.1449e-05
3.14489e-05
3.14489e-05
3.14488e-05
3.1449e-05
3.1449e-05
3.14489e-05
3.12996e-05
3.13005e-05
3.1449e-05
3.14489e-05
3.14489e-05
3.13006e-05
3.12997e-05
3.13006e-05
3.1449e-05
3.1449e-05
3.14489e-05
3.14488e-05
3.12997e-05
3.13006e-05
3.1449e-05
3.14489e-05
3.14489e-05
3.14488e-05
3.1449e-05
3.1449e-05
3.14489e-05
3.12996e-05
3.13005e-05
3.1449e-05
3.14489e-05
3.14489e-05
3.13006e-05
3.12997e-05
3.13006e-05
3.1449e-05
3.1449e-05
3.14489e-05
3.14488e-05
3.12997e-05
3.13006e-05
3.1449e-05
3.14489e-05
3.14489e-05
3.14488e-05
3.1449e-05
3.1449e-05
3.14489e-05
3.12996e-05
3.13005e-05
3.1449e-05
3.14489e-05
3.14489e-05
3.13006e-05
3.12997e-05
3.13006e-05
3.1449e-05
3.1449e-05
3.14489e-05
3.14488e-05
3.12997e-05
3.13006e-05
3.1449e-05
3.14489e-05
3.14489e-05
3.14488e-05
3.1449e-05
3.1449e-05
3.14489e-05
3.12996e-05
3.13005e-05
3.1449e-05
3.14489e-05
3.14489e-05
3.13006e-05
3.12997e-05
3.13006e-05
3.1449e-05
3.1449e-05
3.14489e-05
3.14488e-05
3.12997e-05
3.13006e-05
3.1449e-05
3.14489e-05
3.14489e-05
3.14488e-05
3.1449e-05
3.1449e-05
3.14489e-05
3.12996e-05
3.13005e-05
3.1449e-05
3.14489e-05
3.14489e-05
3.13006e-05
3.12997e-05
3.13006e-05
3.1449e-05
3.1449e-05
3.14489e-05
3.14488e-05
3.12997e-05
3.13006e-05
3.1449e-05
3.14489e-05
3.14489e-05
3.14488e-05
3.1449e-05
3.1449e-05
3.14489e-05
3.12996e-05
3.13005e-05
3.1449e-05
3.14489e-05
3.14489e-05
3.13006e-05
3.12997e-05
3.13006e-05
3.1449e-05
3.1449e-05
3.14489e-05
3.14488e-05
3.12997e-05
3.13006e-05
3.1449e-05
3.14489e-05
3.14489e-05
3.14488e-05
3.1449e-05
3.1449e-05
3.14489e-05
3.12996e-05
3.13005e-05
3.1449e-05
3.14489e-05
3.14489e-05
3.13006e-05
3.12997e-05
3.1449e-05
3.1449e-05
3.12997e-05
3.1449e-05
3.14488e-05
3.14489e-05
3.12996e-05
3.1449e-05
3.22422e-05
6.28094e-05
8.46821e-05
3.22429e-05
6.28119e-05
3.15578e-05
3.15579e-05
3.15579e-05
3.15579e-05
3.08842e-05
3.14594e-05
3.19674e-05
3.15278e-05
8.46792e-05
3.08843e-05
3.14593e-05
3.15278e-05
3.19675e-05
3.13116e-05
3.36207e-05
3.36208e-05
3.22445e-05
6.28101e-05
3.22448e-05
6.28072e-05
8.4674e-05
8.46692e-05
3.22452e-05
6.28126e-05
3.22452e-05
6.28097e-05
3.15579e-05
3.15579e-05
3.15579e-05
3.15577e-05
3.15577e-05
3.15577e-05
3.15577e-05
3.08849e-05
3.19695e-05
3.15277e-05
3.14593e-05
3.08843e-05
3.19686e-05
3.15277e-05
8.46719e-05
8.46664e-05
3.0885e-05
3.15277e-05
3.19695e-05
3.14592e-05
3.08843e-05
3.15277e-05
3.19688e-05
3.36263e-05
3.36264e-05
3.13117e-05
3.36277e-05
3.36278e-05
3.22448e-05
6.28084e-05
3.22463e-05
6.28075e-05
8.46682e-05
8.46686e-05
3.22454e-05
6.2811e-05
3.22467e-05
6.28099e-05
3.15577e-05
3.15577e-05
3.15577e-05
3.15554e-05
3.15554e-05
3.15554e-05
3.15554e-05
3.08847e-05
3.19712e-05
3.15275e-05
3.1459e-05
3.08851e-05
3.19695e-05
3.15274e-05
8.46659e-05
8.4666e-05
3.08847e-05
3.15275e-05
3.19711e-05
3.14589e-05
3.08852e-05
3.15273e-05
3.19696e-05
3.36308e-05
3.3631e-05
3.13114e-05
3.36298e-05
3.36299e-05
3.22356e-05
6.283e-05
3.2243e-05
6.28381e-05
8.46945e-05
8.46968e-05
3.22357e-05
6.28326e-05
3.22432e-05
6.28406e-05
3.15526e-05
3.15526e-05
3.15526e-05
3.15482e-05
3.15482e-05
3.15482e-05
3.15482e-05
3.08728e-05
3.19679e-05
3.15222e-05
3.14513e-05
3.08793e-05
3.19612e-05
3.152e-05
8.46922e-05
8.46947e-05
3.08728e-05
3.15222e-05
3.19677e-05
3.14512e-05
3.08793e-05
3.152e-05
3.19609e-05
3.36277e-05
3.36278e-05
3.13021e-05
3.36179e-05
3.36181e-05
3.2233e-05
6.28393e-05
3.22341e-05
6.28372e-05
8.46972e-05
8.46959e-05
3.22336e-05
6.28419e-05
3.22345e-05
6.28397e-05
3.15481e-05
3.15481e-05
3.15481e-05
3.15479e-05
3.1548e-05
3.1548e-05
3.1548e-05
3.08719e-05
3.19597e-05
3.15177e-05
3.1449e-05
3.08717e-05
3.19578e-05
3.15178e-05
8.46955e-05
8.46936e-05
3.0872e-05
3.15177e-05
3.19598e-05
3.1449e-05
3.08718e-05
3.15178e-05
3.1958e-05
3.36155e-05
3.36157e-05
3.13007e-05
3.36147e-05
3.36149e-05
3.2233e-05
6.28389e-05
3.2234e-05
6.28371e-05
8.4697e-05
8.46959e-05
3.22336e-05
6.28415e-05
3.22345e-05
6.28396e-05
3.15481e-05
3.15481e-05
3.15481e-05
3.15479e-05
3.1548e-05
3.1548e-05
3.1548e-05
3.08719e-05
3.19594e-05
3.15176e-05
3.1449e-05
3.08717e-05
3.19577e-05
3.15178e-05
8.46952e-05
8.46935e-05
3.0872e-05
3.15176e-05
3.19595e-05
3.1449e-05
3.08718e-05
3.15178e-05
3.1958e-05
3.36155e-05
3.36156e-05
3.13007e-05
3.36148e-05
3.36149e-05
3.2233e-05
6.28389e-05
3.2234e-05
6.28371e-05
8.4697e-05
8.46959e-05
3.22336e-05
6.28411e-05
3.22345e-05
6.2839e-05
3.15481e-05
3.15481e-05
3.15481e-05
3.15479e-05
3.1548e-05
3.1548e-05
3.1548e-05
3.08719e-05
3.19594e-05
3.15176e-05
3.1449e-05
3.08717e-05
3.19577e-05
3.15178e-05
8.46952e-05
8.46935e-05
3.0872e-05
3.15176e-05
3.19595e-05
3.1449e-05
3.08718e-05
3.15178e-05
3.1958e-05
3.36155e-05
3.36156e-05
3.13007e-05
3.36148e-05
3.36149e-05
3.2233e-05
6.28389e-05
3.2234e-05
6.28371e-05
8.46968e-05
8.46956e-05
3.22336e-05
6.28408e-05
3.22345e-05
6.28388e-05
3.15481e-05
3.15481e-05
3.15481e-05
3.15479e-05
3.1548e-05
3.1548e-05
3.1548e-05
3.08719e-05
3.19594e-05
3.15176e-05
3.1449e-05
3.08717e-05
3.19577e-05
3.15178e-05
8.46952e-05
8.46935e-05
3.0872e-05
3.15176e-05
3.19595e-05
3.1449e-05
3.08718e-05
3.15178e-05
3.1958e-05
3.36155e-05
3.36156e-05
3.13007e-05
3.36148e-05
3.36149e-05
3.2233e-05
6.28389e-05
3.2234e-05
6.28371e-05
8.46968e-05
8.46956e-05
3.22336e-05
6.28406e-05
3.22345e-05
6.28386e-05
3.15481e-05
3.15481e-05
3.15481e-05
3.15479e-05
3.1548e-05
3.1548e-05
3.1548e-05
3.08719e-05
3.19594e-05
3.15176e-05
3.1449e-05
3.08717e-05
3.19577e-05
3.15178e-05
8.46952e-05
8.46935e-05
3.0872e-05
3.15176e-05
3.19595e-05
3.1449e-05
3.08718e-05
3.15178e-05
3.1958e-05
3.36155e-05
3.36156e-05
3.13007e-05
3.36148e-05
3.36149e-05
3.2233e-05
6.28389e-05
3.2234e-05
6.28371e-05
8.46968e-05
8.46956e-05
3.22336e-05
6.28405e-05
3.22345e-05
6.28386e-05
3.15481e-05
3.15481e-05
3.15481e-05
3.15479e-05
3.1548e-05
3.1548e-05
3.1548e-05
3.08719e-05
3.19594e-05
3.15176e-05
3.1449e-05
3.08717e-05
3.19577e-05
3.15178e-05
8.46952e-05
8.46935e-05
3.0872e-05
3.15176e-05
3.19595e-05
3.1449e-05
3.08718e-05
3.15178e-05
3.1958e-05
3.36155e-05
3.36156e-05
3.13007e-05
3.36148e-05
3.36149e-05
3.2233e-05
6.28389e-05
3.2234e-05
6.28371e-05
8.46968e-05
8.46956e-05
3.22336e-05
6.28405e-05
3.22345e-05
6.28386e-05
3.15481e-05
3.15481e-05
3.15481e-05
3.15479e-05
3.1548e-05
3.1548e-05
3.1548e-05
3.08719e-05
3.19594e-05
3.15176e-05
3.1449e-05
3.08717e-05
3.19577e-05
3.15178e-05
8.46952e-05
8.46935e-05
3.0872e-05
3.15176e-05
3.19595e-05
3.1449e-05
3.08718e-05
3.15178e-05
3.1958e-05
3.36155e-05
3.36156e-05
3.13007e-05
3.36148e-05
3.36149e-05
3.2233e-05
6.28389e-05
3.2234e-05
6.28371e-05
8.46968e-05
8.46956e-05
3.22336e-05
6.28405e-05
3.22345e-05
6.28386e-05
3.15481e-05
3.15481e-05
3.15481e-05
3.15479e-05
3.1548e-05
3.1548e-05
3.1548e-05
3.08719e-05
3.19594e-05
3.15176e-05
3.1449e-05
3.08717e-05
3.19577e-05
3.15178e-05
8.46952e-05
8.46935e-05
3.0872e-05
3.15176e-05
3.19595e-05
3.1449e-05
3.08718e-05
3.15178e-05
3.1958e-05
3.36155e-05
3.36156e-05
3.13007e-05
3.36148e-05
3.36149e-05
3.2233e-05
6.28389e-05
3.2234e-05
6.28371e-05
8.46968e-05
8.46956e-05
3.22336e-05
6.28405e-05
3.22345e-05
6.28386e-05
3.15481e-05
3.15481e-05
3.15481e-05
3.15479e-05
3.1548e-05
3.1548e-05
3.1548e-05
3.08719e-05
3.19594e-05
3.15176e-05
3.1449e-05
3.08717e-05
3.19577e-05
3.15178e-05
8.46952e-05
8.46935e-05
3.0872e-05
3.15176e-05
3.19595e-05
3.1449e-05
3.08718e-05
3.15178e-05
3.1958e-05
3.36155e-05
3.36156e-05
3.13007e-05
3.36148e-05
3.36149e-05
3.2233e-05
6.28389e-05
3.2234e-05
6.28371e-05
8.46968e-05
8.46956e-05
3.22336e-05
6.28405e-05
3.22345e-05
6.28386e-05
3.15481e-05
3.15481e-05
3.15481e-05
3.15479e-05
3.1548e-05
3.1548e-05
3.1548e-05
3.08719e-05
3.19594e-05
3.15176e-05
3.1449e-05
3.08717e-05
3.19577e-05
3.15178e-05
8.46952e-05
8.46935e-05
3.0872e-05
3.15176e-05
3.19595e-05
3.1449e-05
3.08718e-05
3.15178e-05
3.1958e-05
3.36155e-05
3.36156e-05
3.13007e-05
3.36148e-05
3.36149e-05
3.2233e-05
6.28389e-05
3.2234e-05
6.28371e-05
8.46968e-05
8.46956e-05
3.22336e-05
6.28405e-05
3.22345e-05
6.28386e-05
3.15481e-05
3.15481e-05
3.15481e-05
3.15479e-05
3.1548e-05
3.1548e-05
3.1548e-05
3.08719e-05
3.19594e-05
3.15176e-05
3.1449e-05
3.08717e-05
3.19577e-05
3.15178e-05
8.46952e-05
8.46935e-05
3.08718e-05
3.15176e-05
3.19595e-05
3.1449e-05
3.08717e-05
3.15178e-05
3.1958e-05
3.36155e-05
3.36156e-05
3.13007e-05
3.36148e-05
3.36149e-05
3.2233e-05
6.28389e-05
3.2234e-05
6.28371e-05
8.46968e-05
8.46956e-05
3.22336e-05
6.28405e-05
3.22345e-05
6.28386e-05
3.15481e-05
3.15481e-05
3.15481e-05
3.15479e-05
3.1548e-05
3.1548e-05
3.1548e-05
3.08719e-05
3.19594e-05
3.15176e-05
3.1449e-05
3.08717e-05
3.19577e-05
3.15178e-05
8.46952e-05
8.46934e-05
3.08719e-05
3.15176e-05
3.19595e-05
3.1449e-05
3.08716e-05
3.15178e-05
3.1958e-05
3.36155e-05
3.36156e-05
3.13007e-05
3.36148e-05
3.36149e-05
3.2233e-05
6.28389e-05
3.2234e-05
6.28371e-05
8.46968e-05
8.46955e-05
3.22336e-05
6.28405e-05
3.22345e-05
6.28386e-05
3.15481e-05
3.15481e-05
3.15481e-05
3.15479e-05
3.1548e-05
3.1548e-05
3.1548e-05
3.08719e-05
3.19594e-05
3.15176e-05
3.1449e-05
3.08717e-05
3.19577e-05
3.15178e-05
8.46952e-05
8.46934e-05
3.08718e-05
3.15176e-05
3.19595e-05
3.1449e-05
3.08717e-05
3.15178e-05
3.1958e-05
3.36155e-05
3.36156e-05
3.13007e-05
3.36148e-05
3.36149e-05
3.2233e-05
6.28389e-05
3.2234e-05
6.28371e-05
8.46967e-05
8.46956e-05
3.22336e-05
6.28405e-05
3.22345e-05
6.28386e-05
3.15481e-05
3.1548e-05
3.1548e-05
3.08723e-05
3.19594e-05
3.15176e-05
3.1449e-05
3.08717e-05
3.19577e-05
3.15178e-05
8.46952e-05
8.46939e-05
3.08722e-05
3.15176e-05
3.19595e-05
3.14491e-05
3.08716e-05
3.15178e-05
3.19582e-05
3.36155e-05
3.36156e-05
3.1301e-05
3.36147e-05
3.36148e-05
8.46806e-05
8.46821e-05
3.13118e-05
3.36207e-05
3.36207e-05
8.46725e-05
8.46798e-05
8.4674e-05
8.46813e-05
3.13109e-05
3.36248e-05
3.36248e-05
3.36229e-05
3.36229e-05
3.22424e-05
6.28106e-05
3.08847e-05
3.14593e-05
3.19674e-05
3.15278e-05
3.08848e-05
3.14593e-05
3.1968e-05
3.15278e-05
3.2244e-05
6.28086e-05
6.28102e-05
3.22435e-05
3.22442e-05
6.28099e-05
6.28115e-05
3.22438e-05
3.08852e-05
3.14593e-05
3.19679e-05
3.15277e-05
3.19694e-05
3.15278e-05
3.08848e-05
3.08853e-05
3.14593e-05
3.19684e-05
3.15278e-05
3.19699e-05
3.15278e-05
3.08848e-05
3.13118e-05
3.36208e-05
3.36174e-05
8.46768e-05
8.46741e-05
8.46813e-05
3.13109e-05
3.3625e-05
3.36218e-05
3.36233e-05
3.36204e-05
8.46689e-05
8.46768e-05
3.08849e-05
3.14594e-05
3.19679e-05
3.15278e-05
3.22425e-05
6.28105e-05
3.08848e-05
3.14593e-05
3.15278e-05
3.19675e-05
3.22444e-05
6.28111e-05
6.28128e-05
3.22441e-05
3.08854e-05
3.14593e-05
3.19685e-05
3.15278e-05
3.19698e-05
3.15278e-05
3.0885e-05
3.22441e-05
6.28098e-05
6.28115e-05
3.22438e-05
3.08853e-05
3.14592e-05
3.15277e-05
3.1968e-05
3.15277e-05
3.19697e-05
3.08848e-05
3.22423e-05
6.28089e-05
3.08846e-05
3.14593e-05
3.15278e-05
3.19674e-05
3.22423e-05
6.2811e-05
3.08846e-05
3.14593e-05
3.19677e-05
3.15277e-05
3.19696e-05
3.15277e-05
3.08843e-05
3.22441e-05
6.28082e-05
6.28099e-05
3.22437e-05
3.08851e-05
3.14593e-05
3.15278e-05
3.19678e-05
3.15278e-05
3.19694e-05
3.08847e-05
3.2244e-05
6.28102e-05
6.28118e-05
3.22436e-05
3.13117e-05
3.36184e-05
3.36207e-05
8.46815e-05
8.46713e-05
8.46792e-05
3.13108e-05
3.36228e-05
3.36247e-05
3.36212e-05
3.36228e-05
8.46734e-05
8.46807e-05
3.08848e-05
3.14594e-05
3.15278e-05
3.19678e-05
3.22425e-05
6.28113e-05
3.22426e-05
6.28123e-05
3.08846e-05
3.14593e-05
3.15277e-05
3.19678e-05
3.15277e-05
3.19694e-05
3.08843e-05
3.08853e-05
3.14593e-05
3.15278e-05
3.19682e-05
3.15278e-05
3.19697e-05
3.08848e-05
3.22441e-05
6.28106e-05
6.28122e-05
3.22438e-05
3.22442e-05
6.28115e-05
6.28132e-05
3.22439e-05
8.46817e-05
8.46825e-05
3.13107e-05
3.36247e-05
3.36248e-05
3.36228e-05
3.3623e-05
8.46735e-05
8.46809e-05
8.46743e-05
8.46816e-05
8.46724e-05
8.4668e-05
8.46739e-05
8.46695e-05
3.36266e-05
3.36266e-05
3.13118e-05
3.3628e-05
3.3628e-05
8.46659e-05
8.46683e-05
8.46674e-05
8.46697e-05
3.13109e-05
3.36303e-05
3.36302e-05
3.36296e-05
3.36295e-05
3.22449e-05
6.28101e-05
3.22455e-05
6.28086e-05
3.08851e-05
3.19702e-05
3.15279e-05
3.14594e-05
3.08851e-05
3.19691e-05
3.15278e-05
3.08852e-05
3.19706e-05
3.15278e-05
3.14594e-05
3.08851e-05
3.19695e-05
3.15278e-05
3.22461e-05
6.28067e-05
6.28076e-05
3.22452e-05
3.22465e-05
6.28081e-05
6.2809e-05
3.22455e-05
3.08856e-05
3.14593e-05
3.19699e-05
3.15277e-05
3.19713e-05
3.15277e-05
3.08854e-05
3.08857e-05
3.14593e-05
3.19703e-05
3.15276e-05
3.19717e-05
3.15277e-05
3.08856e-05
3.36271e-05
3.36243e-05
3.13118e-05
3.36282e-05
3.36251e-05
8.46693e-05
8.4664e-05
8.4667e-05
8.46694e-05
3.13109e-05
3.36304e-05
3.36273e-05
3.36299e-05
3.36271e-05
8.46618e-05
8.46647e-05
3.08854e-05
3.19707e-05
3.15279e-05
3.14594e-05
3.08853e-05
3.19697e-05
3.15278e-05
3.22449e-05
6.28103e-05
3.22454e-05
6.28086e-05
3.08852e-05
3.15278e-05
3.19703e-05
3.14593e-05
3.08852e-05
3.15278e-05
3.1969e-05
3.22466e-05
6.28091e-05
6.28101e-05
3.22458e-05
3.08859e-05
3.14594e-05
3.19704e-05
3.15277e-05
3.19718e-05
3.15277e-05
3.08856e-05
3.22463e-05
6.28081e-05
6.28092e-05
3.22456e-05
3.08857e-05
3.14593e-05
3.15276e-05
3.19698e-05
3.15277e-05
3.19714e-05
3.08856e-05
3.22448e-05
6.28087e-05
3.22454e-05
6.2807e-05
3.08851e-05
3.15278e-05
3.19701e-05
3.14594e-05
3.08851e-05
3.15277e-05
3.19689e-05
3.22447e-05
6.28104e-05
3.22453e-05
6.28089e-05
3.08855e-05
3.14592e-05
3.19694e-05
3.15276e-05
3.19709e-05
3.15276e-05
3.08852e-05
3.22464e-05
6.28064e-05
6.28076e-05
3.22455e-05
3.08856e-05
3.14593e-05
3.15276e-05
3.19697e-05
3.15277e-05
3.19711e-05
3.08854e-05
3.22463e-05
6.28083e-05
6.28093e-05
3.22454e-05
3.36251e-05
3.36265e-05
3.13117e-05
3.36259e-05
3.36278e-05
8.46733e-05
8.46688e-05
8.46642e-05
8.46672e-05
3.13108e-05
3.36281e-05
3.363e-05
3.36277e-05
3.36294e-05
8.46667e-05
8.46691e-05
3.08852e-05
3.15278e-05
3.19704e-05
3.14594e-05
3.08852e-05
3.15277e-05
3.19693e-05
3.22449e-05
6.28108e-05
3.22453e-05
6.28093e-05
3.2245e-05
6.28118e-05
3.22454e-05
6.28103e-05
3.08855e-05
3.14592e-05
3.15276e-05
3.19696e-05
3.15276e-05
3.19709e-05
3.08854e-05
3.08857e-05
3.14594e-05
3.15276e-05
3.197e-05
3.15277e-05
3.19714e-05
3.08855e-05
3.22463e-05
6.28087e-05
6.28097e-05
3.22456e-05
3.22464e-05
6.28097e-05
6.28106e-05
3.22456e-05
8.46735e-05
8.4669e-05
8.46742e-05
8.46698e-05
3.13108e-05
3.36299e-05
3.363e-05
3.36292e-05
3.36294e-05
8.46669e-05
8.46693e-05
8.46676e-05
8.467e-05
8.46666e-05
8.46671e-05
8.46681e-05
8.46686e-05
3.36315e-05
3.36314e-05
3.13113e-05
3.36302e-05
3.36302e-05
8.46835e-05
8.46693e-05
8.46852e-05
8.46709e-05
3.131e-05
3.36283e-05
3.36283e-05
3.36308e-05
3.36308e-05
3.22451e-05
6.28086e-05
3.2247e-05
6.28086e-05
3.08846e-05
3.19719e-05
3.15276e-05
3.1459e-05
3.08853e-05
3.19698e-05
3.15274e-05
3.08848e-05
3.19724e-05
3.15276e-05
3.1459e-05
3.08855e-05
3.19703e-05
3.15274e-05
3.22459e-05
6.2819e-05
6.28086e-05
3.22427e-05
3.22462e-05
6.28197e-05
6.28096e-05
3.22429e-05
3.08844e-05
3.14584e-05
3.19675e-05
3.15253e-05
3.19715e-05
3.15269e-05
3.08819e-05
3.08846e-05
3.14584e-05
3.19679e-05
3.15253e-05
3.1972e-05
3.15268e-05
3.08818e-05
3.36316e-05
3.36289e-05
3.13113e-05
3.36303e-05
3.36276e-05
8.4663e-05
8.46633e-05
8.46851e-05
8.46709e-05
3.131e-05
3.36283e-05
3.36254e-05
3.3631e-05
3.36286e-05
8.46801e-05
8.46667e-05
3.08848e-05
3.19724e-05
3.15276e-05
3.1459e-05
3.08854e-05
3.19704e-05
3.15274e-05
3.22452e-05
6.28087e-05
3.22469e-05
6.28087e-05
3.08849e-05
3.15275e-05
3.1972e-05
3.14589e-05
3.08854e-05
3.15273e-05
3.19697e-05
3.22463e-05
6.28214e-05
6.28113e-05
3.22432e-05
3.08846e-05
3.14585e-05
3.1968e-05
3.15253e-05
3.19721e-05
3.15269e-05
3.0882e-05
3.22461e-05
6.28198e-05
6.281e-05
3.2243e-05
3.08847e-05
3.14584e-05
3.15253e-05
3.19675e-05
3.15268e-05
3.19716e-05
3.08818e-05
3.22451e-05
6.2807e-05
3.22469e-05
6.28069e-05
3.08847e-05
3.15276e-05
3.19717e-05
3.14589e-05
3.08853e-05
3.15274e-05
3.19696e-05
3.2245e-05
6.28088e-05
3.22468e-05
6.28089e-05
3.08845e-05
3.14585e-05
3.19673e-05
3.15253e-05
3.19714e-05
3.15268e-05
3.08819e-05
3.22461e-05
6.28183e-05
6.28083e-05
3.22429e-05
3.08845e-05
3.14584e-05
3.15253e-05
3.19673e-05
3.15269e-05
3.19714e-05
3.08818e-05
3.2246e-05
6.28201e-05
6.28098e-05
3.22428e-05
3.36295e-05
3.36312e-05
3.13112e-05
3.36281e-05
3.36301e-05
8.46674e-05
8.46679e-05
8.46824e-05
8.46696e-05
3.13099e-05
3.36262e-05
3.36282e-05
3.3629e-05
3.36307e-05
8.46842e-05
8.467e-05
3.08847e-05
3.15275e-05
3.1972e-05
3.1459e-05
3.08853e-05
3.15274e-05
3.19699e-05
3.22452e-05
6.28092e-05
3.22469e-05
6.28092e-05
3.22451e-05
6.28102e-05
3.22468e-05
6.28102e-05
3.08845e-05
3.14584e-05
3.15253e-05
3.19673e-05
3.15268e-05
3.19713e-05
3.08819e-05
3.08845e-05
3.14585e-05
3.15253e-05
3.19676e-05
3.15268e-05
3.19717e-05
3.08819e-05
3.22461e-05
6.28202e-05
6.28102e-05
3.22431e-05
3.2246e-05
6.28214e-05
6.28112e-05
3.2243e-05
8.46676e-05
8.46681e-05
8.46684e-05
8.46688e-05
3.13101e-05
3.3628e-05
3.36281e-05
3.36305e-05
3.36306e-05
8.46848e-05
8.46703e-05
8.46855e-05
8.46711e-05
8.46929e-05
8.46959e-05
8.46945e-05
8.46974e-05
3.3628e-05
3.3628e-05
3.1302e-05
3.3618e-05
3.36179e-05
8.46952e-05
8.46966e-05
8.46968e-05
8.46982e-05
3.13001e-05
3.36149e-05
3.36148e-05
3.36174e-05
3.36173e-05
3.22357e-05
6.28308e-05
3.22434e-05
6.28403e-05
3.08728e-05
3.19682e-05
3.15223e-05
3.14513e-05
3.08795e-05
3.19611e-05
3.15201e-05
3.08728e-05
3.19687e-05
3.15223e-05
3.14513e-05
3.08795e-05
3.19616e-05
3.15201e-05
3.22359e-05
6.28377e-05
6.28386e-05
3.22332e-05
3.2236e-05
6.28397e-05
6.28407e-05
3.22333e-05
3.08726e-05
3.14497e-05
3.19584e-05
3.15179e-05
3.19619e-05
3.15185e-05
3.0872e-05
3.08726e-05
3.14497e-05
3.19589e-05
3.15179e-05
3.19625e-05
3.15185e-05
3.08721e-05
3.36283e-05
3.36259e-05
3.1302e-05
3.36182e-05
3.36163e-05
8.469e-05
8.46927e-05
8.46959e-05
8.46975e-05
3.13001e-05
3.36149e-05
3.36114e-05
3.36178e-05
3.36162e-05
8.46919e-05
8.46938e-05
3.08729e-05
3.19686e-05
3.15223e-05
3.14513e-05
3.08796e-05
3.19616e-05
3.15201e-05
3.22355e-05
6.28308e-05
3.2243e-05
6.28405e-05
3.08728e-05
3.15223e-05
3.19684e-05
3.14512e-05
3.08794e-05
3.152e-05
3.19613e-05
3.2236e-05
6.28402e-05
6.28412e-05
3.22338e-05
3.08728e-05
3.14497e-05
3.19589e-05
3.15179e-05
3.19624e-05
3.15185e-05
3.08723e-05
3.22357e-05
6.28399e-05
6.28412e-05
3.22334e-05
3.08726e-05
3.14496e-05
3.15178e-05
3.19583e-05
3.15185e-05
3.19622e-05
3.08721e-05
3.22357e-05
6.28294e-05
3.22434e-05
6.28388e-05
3.08728e-05
3.15223e-05
3.1968e-05
3.14513e-05
3.08795e-05
3.152e-05
3.1961e-05
3.22356e-05
6.28311e-05
3.22433e-05
6.28406e-05
3.08726e-05
3.14498e-05
3.19583e-05
3.15178e-05
3.19621e-05
3.15186e-05
3.08718e-05
3.2236e-05
6.28383e-05
6.28395e-05
3.22333e-05
3.08725e-05
3.14497e-05
3.15179e-05
3.19584e-05
3.15185e-05
3.19619e-05
3.0872e-05
3.22359e-05
6.28401e-05
6.28411e-05
3.22331e-05
3.36265e-05
3.36278e-05
3.13019e-05
3.36166e-05
3.36179e-05
8.46937e-05
8.46968e-05
8.46939e-05
8.46959e-05
3.13e-05
3.36123e-05
3.36148e-05
3.36162e-05
3.36172e-05
8.46961e-05
8.46975e-05
3.08728e-05
3.15223e-05
3.19683e-05
3.14513e-05
3.08795e-05
3.152e-05
3.19614e-05
3.22355e-05
6.28313e-05
3.22431e-05
6.2841e-05
3.22355e-05
6.28325e-05
3.22431e-05
6.2842e-05
3.08726e-05
3.14497e-05
3.15178e-05
3.19585e-05
3.15186e-05
3.19618e-05
3.08719e-05
3.08726e-05
3.14497e-05
3.15178e-05
3.19586e-05
3.15185e-05
3.19622e-05
3.0872e-05
3.22357e-05
6.28405e-05
6.28414e-05
3.22334e-05
3.22357e-05
6.28415e-05
6.28425e-05
3.22334e-05
8.4694e-05
8.46969e-05
8.46949e-05
8.46977e-05
3.13002e-05
3.36149e-05
3.3615e-05
3.36173e-05
3.36175e-05
8.46962e-05
8.46976e-05
8.4697e-05
8.46984e-05
8.4696e-05
8.46949e-05
8.46975e-05
8.46964e-05
3.36157e-05
3.36157e-05
3.13007e-05
3.36147e-05
3.36147e-05
8.46947e-05
8.46957e-05
8.46962e-05
8.46972e-05
3.12998e-05
3.36147e-05
3.36147e-05
3.36157e-05
3.36157e-05
3.22331e-05
6.28402e-05
3.22346e-05
6.28394e-05
3.0872e-05
3.19601e-05
3.15178e-05
3.1449e-05
3.08723e-05
3.19579e-05
3.15178e-05
3.08721e-05
3.19607e-05
3.15178e-05
3.14489e-05
3.08724e-05
3.19585e-05
3.15178e-05
3.22344e-05
6.28371e-05
6.28377e-05
3.2233e-05
3.22345e-05
6.28393e-05
6.28399e-05
3.22331e-05
3.08724e-05
3.14489e-05
3.19579e-05
3.15177e-05
3.19599e-05
3.15177e-05
3.0872e-05
3.08725e-05
3.14488e-05
3.19584e-05
3.15177e-05
3.19604e-05
3.15177e-05
3.08721e-05
3.36158e-05
3.36125e-05
3.13007e-05
3.36147e-05
3.36113e-05
8.46931e-05
8.46916e-05
8.46957e-05
8.46967e-05
3.12998e-05
3.36148e-05
3.36115e-05
3.36158e-05
3.36126e-05
8.46916e-05
8.46929e-05
3.08723e-05
3.19606e-05
3.15178e-05
3.1449e-05
3.08726e-05
3.19585e-05
3.15178e-05
3.22332e-05
6.28405e-05
3.22346e-05
6.28395e-05
3.08722e-05
3.15178e-05
3.19602e-05
3.14489e-05
3.08724e-05
3.15178e-05
3.19579e-05
3.22348e-05
6.28396e-05
6.28403e-05
3.22336e-05
3.08726e-05
3.14489e-05
3.19584e-05
3.15177e-05
3.19603e-05
3.15177e-05
3.08723e-05
3.22345e-05
6.28394e-05
6.28401e-05
3.22332e-05
3.08725e-05
3.14488e-05
3.15177e-05
3.19578e-05
3.15177e-05
3.19599e-05
3.08721e-05
3.2233e-05
6.28388e-05
3.22346e-05
6.28378e-05
3.0872e-05
3.15178e-05
3.19601e-05
3.1449e-05
3.08723e-05
3.15178e-05
3.19579e-05
3.22329e-05
6.28405e-05
3.22345e-05
6.28398e-05
3.08723e-05
3.1449e-05
3.19577e-05
3.15177e-05
3.19599e-05
3.15178e-05
3.08718e-05
3.22344e-05
6.28377e-05
6.28385e-05
3.2233e-05
3.08724e-05
3.14489e-05
3.15177e-05
3.19579e-05
3.15177e-05
3.19599e-05
3.0872e-05
3.22343e-05
6.28396e-05
6.28403e-05
3.22329e-05
3.36134e-05
3.36156e-05
3.13006e-05
3.36122e-05
3.36146e-05
8.46969e-05
8.46958e-05
8.46934e-05
8.46949e-05
3.12997e-05
3.36123e-05
3.36146e-05
3.36134e-05
3.36156e-05
8.46956e-05
8.46966e-05
3.08721e-05
3.15178e-05
3.19604e-05
3.1449e-05
3.08723e-05
3.15178e-05
3.19582e-05
3.22332e-05
6.28409e-05
3.22346e-05
6.28401e-05
3.22332e-05
6.28419e-05
3.22346e-05
6.28411e-05
3.08724e-05
3.1449e-05
3.15177e-05
3.1958e-05
3.15177e-05
3.196e-05
3.08719e-05
3.08725e-05
3.14489e-05
3.15177e-05
3.19581e-05
3.15177e-05
3.19601e-05
3.08721e-05
3.22345e-05
6.284e-05
6.28406e-05
3.22332e-05
3.22345e-05
6.2841e-05
6.28416e-05
3.22332e-05
8.4697e-05
8.46959e-05
8.46978e-05
8.46967e-05
3.12998e-05
3.36148e-05
3.36149e-05
3.36157e-05
3.36158e-05
8.46958e-05
8.46967e-05
8.46966e-05
8.46975e-05
8.46956e-05
8.46947e-05
8.46971e-05
8.46962e-05
3.36157e-05
3.36157e-05
3.13007e-05
3.36147e-05
3.36147e-05
8.46947e-05
8.46956e-05
8.46962e-05
8.46971e-05
3.12998e-05
3.36147e-05
3.36147e-05
3.36157e-05
3.36157e-05
3.22331e-05
6.28398e-05
3.22345e-05
6.28393e-05
3.0872e-05
3.19598e-05
3.15178e-05
3.1449e-05
3.08723e-05
3.19579e-05
3.15178e-05
3.08721e-05
3.19604e-05
3.15178e-05
3.1449e-05
3.08724e-05
3.19584e-05
3.15178e-05
3.22344e-05
6.28371e-05
6.28376e-05
3.2233e-05
3.22345e-05
6.28393e-05
6.28398e-05
3.22331e-05
3.08724e-05
3.14489e-05
3.19579e-05
3.15177e-05
3.19598e-05
3.15177e-05
3.0872e-05
3.08724e-05
3.14489e-05
3.19584e-05
3.15177e-05
3.19604e-05
3.15177e-05
3.08721e-05
3.36158e-05
3.36127e-05
3.13006e-05
3.36148e-05
3.36114e-05
8.46929e-05
8.46916e-05
8.46957e-05
8.46967e-05
3.12997e-05
3.36148e-05
3.36114e-05
3.36158e-05
3.36126e-05
8.46915e-05
8.46929e-05
3.08723e-05
3.19603e-05
3.15178e-05
3.1449e-05
3.08726e-05
3.19584e-05
3.15178e-05
3.22332e-05
6.284e-05
3.22345e-05
6.28393e-05
3.08722e-05
3.15178e-05
3.19599e-05
3.14489e-05
3.08724e-05
3.15178e-05
3.19578e-05
3.22349e-05
6.28393e-05
6.28402e-05
3.22336e-05
3.08726e-05
3.1449e-05
3.19584e-05
3.15177e-05
3.19603e-05
3.15177e-05
3.08723e-05
3.22345e-05
6.28393e-05
6.284e-05
3.22332e-05
3.08724e-05
3.14488e-05
3.15176e-05
3.19578e-05
3.15177e-05
3.19599e-05
3.08721e-05
3.2233e-05
6.28384e-05
3.22344e-05
6.28377e-05
3.0872e-05
3.15178e-05
3.19598e-05
3.1449e-05
3.08723e-05
3.15178e-05
3.19579e-05
3.22329e-05
6.28402e-05
3.22343e-05
6.28396e-05
3.08724e-05
3.1449e-05
3.19577e-05
3.15177e-05
3.19598e-05
3.15177e-05
3.08718e-05
3.22344e-05
6.28377e-05
6.28384e-05
3.2233e-05
3.08724e-05
3.14489e-05
3.15177e-05
3.19579e-05
3.15177e-05
3.19598e-05
3.0872e-05
3.22343e-05
6.28396e-05
6.28401e-05
3.22329e-05
3.36134e-05
3.36156e-05
3.13006e-05
3.36123e-05
3.36146e-05
8.46965e-05
8.46956e-05
8.46934e-05
8.46948e-05
3.12996e-05
3.36123e-05
3.36146e-05
3.36134e-05
3.36156e-05
8.46956e-05
8.46965e-05
3.08721e-05
3.15178e-05
3.19601e-05
3.1449e-05
3.08724e-05
3.15178e-05
3.19582e-05
3.22332e-05
6.28405e-05
3.22345e-05
6.284e-05
3.22332e-05
6.28415e-05
3.22345e-05
6.28409e-05
3.08724e-05
3.1449e-05
3.15176e-05
3.1958e-05
3.15177e-05
3.196e-05
3.08719e-05
3.08725e-05
3.1449e-05
3.15177e-05
3.19581e-05
3.15177e-05
3.19601e-05
3.08721e-05
3.22345e-05
6.284e-05
6.28405e-05
3.22332e-05
3.22345e-05
6.28409e-05
6.28415e-05
3.22332e-05
8.46967e-05
8.46958e-05
8.46975e-05
8.46966e-05
3.12998e-05
3.36148e-05
3.36149e-05
3.36157e-05
3.36159e-05
8.46957e-05
8.46967e-05
8.46965e-05
8.46975e-05
8.46956e-05
8.46947e-05
8.4697e-05
8.46962e-05
3.36157e-05
3.36156e-05
3.13007e-05
3.36147e-05
3.36147e-05
8.46947e-05
8.46956e-05
8.46961e-05
8.46971e-05
3.12998e-05
3.36148e-05
3.36147e-05
3.36157e-05
3.36156e-05
3.22331e-05
6.28398e-05
3.22345e-05
6.28393e-05
3.0872e-05
3.19598e-05
3.15178e-05
3.1449e-05
3.08723e-05
3.19579e-05
3.15178e-05
3.08721e-05
3.19604e-05
3.15178e-05
3.1449e-05
3.08725e-05
3.19584e-05
3.15178e-05
3.22344e-05
6.28371e-05
6.28376e-05
3.2233e-05
3.22345e-05
6.28391e-05
6.28398e-05
3.22331e-05
3.08724e-05
3.14489e-05
3.19579e-05
3.15177e-05
3.19598e-05
3.15177e-05
3.0872e-05
3.08724e-05
3.14489e-05
3.19584e-05
3.15177e-05
3.19604e-05
3.15177e-05
3.08721e-05
3.36158e-05
3.36127e-05
3.13007e-05
3.36148e-05
3.36114e-05
8.46929e-05
8.46915e-05
8.46955e-05
8.46967e-05
3.12997e-05
3.36149e-05
3.36114e-05
3.36158e-05
3.36126e-05
8.46916e-05
8.46929e-05
3.08723e-05
3.19605e-05
3.15178e-05
3.1449e-05
3.08726e-05
3.19585e-05
3.15178e-05
3.22332e-05
6.284e-05
3.22345e-05
6.28393e-05
3.08722e-05
3.15178e-05
3.19599e-05
3.14489e-05
3.08725e-05
3.15178e-05
3.19578e-05
3.22349e-05
6.28389e-05
6.28396e-05
3.22336e-05
3.08726e-05
3.1449e-05
3.19585e-05
3.15177e-05
3.19606e-05
3.15177e-05
3.08723e-05
3.22345e-05
6.28393e-05
6.284e-05
3.22332e-05