/*--------------------------------*- C++ -*----------------------------------*\
| =========                 |                                                 |
| \\      /  F ield         | OpenFOAM: The Open Source CFD Toolbox           |
|  \\    /   O peration     | Version:  2206                                  |
|   \\  /    A nd           | Website:  www.openfoam.com                      |
|    \\/     M anipulation  |                                                 |
\*---------------------------------------------------------------------------*/
FoamFile
{
    version     2.0;
    format      ascii;
    arch        "LSB;label=32;scalar=64";
    class       surfaceScalarField;
    location    "15";
    object      phi;
}
// * * * * * * * * * * * * * * * * * * * * * * * * * * * * * * * * * * * * * //

dimensions      [0 3 -1 0 0 0 0];

oriented        oriented;

internalField   nonuniform List<scalar> 
83438
(
-0.00104221
-1.45719e-05
-1.44681e-05
9.34198e-06
9.17191e-06
0.00105274
-0.00026146
-5.63997e-06
1.44487e-05
6.83753e-06
0.00105942
-4.53085e-06
-1.62686e-06
-2.22033e-06
-2.57893e-06
-6.58589e-06
-7.03918e-06
-3.16857e-06
-0.000263303
-0.000259727
-0.000262829
-0.000261438
-5.64495e-06
1.44778e-05
6.92714e-06
0.00105921
-4.53597e-06
-1.63705e-06
-2.22794e-06
-2.58324e-06
-6.57997e-06
-7.03525e-06
-3.17076e-06
-0.000259699
-0.000263275
-0.000262793
-0.000260564
5.61544e-06
5.65555e-06
-4.8758e-06
-4.86986e-06
0.000259039
-1.6548e-06
-1.65671e-06
-0.00106074
9.04827e-07
9.05528e-07
0.00106224
-0.00106268
-1.60736e-06
1.65073e-06
8.41037e-07
0.00106398
-6.53648e-07
7.74665e-07
-1.58066e-07
3.58839e-07
-7.96362e-07
-1.39158e-06
-3.12879e-07
-0.00106236
-1.60228e-06
1.66129e-06
8.36208e-07
0.00106365
-6.53628e-07
7.69157e-07
-1.58122e-07
3.56215e-07
-7.98875e-07
-1.39126e-06
-3.10335e-07
-0.00026153
1.63996e-06
1.60243e-06
-7.11663e-07
-7.14811e-07
0.000259714
-1.35802e-06
-1.35936e-06
-0.00106635
6.67993e-07
6.68818e-07
0.00106773
-0.00106792
-1.55069e-06
1.36413e-06
6.8858e-07
0.00106927
-6.10666e-07
8.27474e-07
-1.15157e-07
4.07777e-07
-7.59491e-07
-1.34269e-06
-2.66165e-07
-0.0010676
-1.54542e-06
1.35895e-06
6.93916e-07
0.00106894
-6.10643e-07
8.22089e-07
-1.15112e-07
4.07717e-07
-7.5943e-07
-1.33715e-06
-2.63638e-07
-0.000262767
1.58083e-06
1.54556e-06
-6.69884e-07
-6.78039e-07
0.000260989
-5.09724e-07
-5.10601e-07
-0.00107054
2.89707e-07
2.89813e-07
0.00107098
-0.00107168
-1.30535e-06
5.10421e-07
2.58212e-07
0.00107195
-3.50244e-07
1.0788e-06
1.39499e-07
7.23807e-07
-3.8614e-07
-1.01829e-06
8.38508e-08
-0.00107135
-1.30013e-06
5.10433e-07
2.58476e-07
0.00107161
-3.4762e-07
1.0733e-06
1.36592e-07
7.23669e-07
-3.8862e-07
-1.01814e-06
8.66433e-08
-0.000263614
1.3332e-06
1.30019e-06
-3.53885e-07
-3.59216e-07
0.000261694
-6.4829e-08
-6.49472e-08
-0.0010715
4.18513e-08
4.18385e-08
0.00107155
-0.00107215
-1.1943e-06
6.4931e-08
3.77663e-08
0.00107215
-2.47992e-07
1.1712e-06
2.2497e-07
8.45472e-07
-2.38557e-07
-8.75261e-07
2.0913e-07
-0.00107181
-1.18894e-06
6.49252e-08
3.77889e-08
0.00107181
-2.45264e-07
1.16584e-06
2.22244e-07
8.45309e-07
-2.41149e-07
-8.75126e-07
2.11774e-07
-0.000263636
1.2222e-06
1.18906e-06
-2.30277e-07
-2.35507e-07
0.000261691
-3.11343e-09
-3.02327e-09
-0.00107159
1.91839e-09
1.99233e-09
0.00107159
-0.00107215
-1.18097e-06
3.0686e-09
3.94631e-09
0.00107214
-2.36238e-07
1.18166e-06
2.34388e-07
8.58049e-07
-2.24127e-07
-8.595e-07
2.20869e-07
-0.00107181
-1.17557e-06
3.03538e-09
3.83926e-09
0.00107181
-2.33466e-07
1.17633e-06
2.31704e-07
8.57874e-07
-2.26728e-07
-8.59374e-07
2.23506e-07
-0.000263624
1.20883e-06
1.17569e-06
-2.17828e-07
-2.23036e-07
0.00026168
8.0422e-10
9.28384e-10
-0.00107159
-9.19801e-10
-8.78489e-10
0.00107159
-0.00107214
-1.18029e-06
-9.42965e-10
1.92339e-09
0.00107214
-2.35641e-07
1.18219e-06
2.34868e-07
8.58673e-07
-2.23404e-07
-8.58706e-07
2.21452e-07
-0.00107181
-1.17493e-06
-9.44558e-10
1.89108e-09
0.00107181
-2.32911e-07
1.17682e-06
2.3214e-07
8.58503e-07
-2.2601e-07
-8.5858e-07
2.24088e-07
-0.000263623
1.20819e-06
1.17504e-06
-2.17294e-07
-2.22505e-07
0.00026168
9.75887e-10
1.07969e-09
-0.00107159
-1.0467e-09
-1.02479e-09
0.00107159
-0.00107214
-1.18027e-06
-1.1124e-09
1.86692e-09
0.00107214
-2.3563e-07
1.1822e-06
2.34877e-07
8.5869e-07
-2.2339e-07
-8.58687e-07
2.21464e-07
-0.00107181
-1.17491e-06
-1.10835e-09
1.83758e-09
0.00107181
-2.32896e-07
1.17683e-06
2.32152e-07
8.58518e-07
-2.25994e-07
-8.58561e-07
2.24102e-07
-0.000263623
1.20817e-06
1.17502e-06
-2.1728e-07
-2.22494e-07
0.00026168
1.02319e-09
1.10322e-09
-0.00107159
-1.07034e-09
-1.05645e-09
0.00107159
-0.00107214
-1.18027e-06
-1.11911e-09
1.85207e-09
0.00107214
-2.35625e-07
1.1822e-06
2.34882e-07
8.58691e-07
-2.23391e-07
-8.58687e-07
2.21465e-07
-0.00107181
-1.17491e-06
-1.1107e-09
1.83171e-09
0.00107181
-2.32894e-07
1.17683e-06
2.32154e-07
8.5852e-07
-2.25993e-07
-8.58561e-07
2.24104e-07
-0.000263623
1.20817e-06
1.17502e-06
-2.17278e-07
-2.22493e-07
0.00026168
9.94359e-10
1.09955e-09
-0.00107159
-1.05751e-09
-1.03897e-09
0.00107159
-0.00107214
-1.18027e-06
-1.13204e-09
1.85696e-09
0.00107214
-2.35624e-07
1.1822e-06
2.34877e-07
8.58692e-07
-2.23389e-07
-8.58684e-07
2.21462e-07
-0.00107181
-1.17491e-06
-1.12384e-09
1.83214e-09
0.00107181
-2.32894e-07
1.17683e-06
2.32155e-07
8.58522e-07
-2.25993e-07
-8.58559e-07
2.24106e-07
-0.000263623
1.20817e-06
1.17502e-06
-2.17278e-07
-2.22494e-07
0.00026168
9.08354e-10
1.06942e-09
-0.00107159
-1.02511e-09
-9.98661e-10
0.00107159
-0.00107214
-1.18027e-06
-1.13857e-09
1.86223e-09
0.00107214
-2.32922e-07
1.1822e-06
2.32165e-07
8.58692e-07
-2.23365e-07
-8.58684e-07
2.2144e-07
-0.00107181
-1.17491e-06
-1.11788e-09
1.84097e-09
0.00107181
-2.32897e-07
1.17683e-06
2.32154e-07
8.5852e-07
-2.25992e-07
-8.58559e-07
2.24104e-07
-0.000263623
1.20817e-06
1.17502e-06
-2.17279e-07
-2.22496e-07
0.00026168
1.02142e-09
1.10243e-09
-0.00107159
-1.07521e-09
-1.07109e-09
0.00107159
-0.00107214
-1.18025e-06
-1.13823e-09
1.83469e-09
0.00107214
-2.32898e-07
1.1822e-06
2.32157e-07
8.58672e-07
-2.23333e-07
-8.58664e-07
2.21415e-07
-0.00107181
-1.1749e-06
-1.11812e-09
1.83211e-09
0.00107181
-2.32884e-07
1.17683e-06
2.32146e-07
8.58504e-07
-2.25974e-07
-8.58544e-07
2.24085e-07
-0.000263623
1.20816e-06
1.17501e-06
-2.17269e-07
-2.22488e-07
0.00026168
5.22308e-06
5.23392e-06
0.000260567
-0.000259169
-5.93413e-06
-5.92001e-06
5.08384e-06
0.000261409
-0.000258685
-5.96472e-06
3.38015e-06
-5.22315e-06
5.07882e-06
0.000261442
-0.000258701
-5.97273e-06
3.37531e-06
5.22375e-06
0.000260579
-0.000259172
-5.90551e-06
-5.94874e-06
5.07694e-06
0.000261473
-0.000258716
-5.97024e-06
3.36998e-06
5.08366e-06
-5.2254e-06
0.000261417
-0.000258686
3.3852e-06
-5.97493e-06
1.07122e-05
1.06184e-05
-0.000252649
-0.000256079
-0.000255119
-0.000255119
-6.41548e-06
-4.12748e-06
-6.66056e-06
-6.41585e-06
-4.12842e-06
-6.6661e-06
-5.07189e-06
0.00104223
1.06718e-05
1.06237e-05
-0.000252651
-0.000256077
-0.000255121
-0.000255121
-6.4181e-06
-4.12777e-06
-6.6633e-06
-6.41331e-06
-4.12321e-06
-6.65851e-06
-5.07154e-06
0.00104211
1.0732e-05
1.06843e-05
-0.000252644
-0.000256072
-0.000255119
-0.000255114
-6.41794e-06
-4.13514e-06
-6.66323e-06
-6.41815e-06
-4.12543e-06
-6.66084e-06
-5.08623e-06
-5.07436e-06
0.00104217
1.07274e-05
1.06287e-05
-0.000252646
-0.000256074
-0.000255119
-0.000255119
-6.41284e-06
-4.13009e-06
-6.65823e-06
-6.41829e-06
-4.12826e-06
-6.66356e-06
-0.000258711
-5.9626e-06
3.36493e-06
-5.223e-06
0.000261404
-0.000258683
3.38018e-06
-5.96466e-06
5.22614e-06
0.000260559
-0.000259157
-5.90783e-06
-5.94597e-06
-0.000258696
3.37246e-06
-5.95972e-06
-5.23389e-06
0.000261471
-0.000258711
3.36747e-06
-5.96771e-06
-0.000259167
-5.934e-06
-5.92004e-06
5.6157e-06
5.65293e-06
-4.87604e-06
-4.86989e-06
0.000259044
-7.70676e-07
-7.3478e-07
0.00026154
-0.000259458
-2.92294e-07
-2.84917e-07
7.08995e-06
0.00105883
-4.5282e-06
-1.58032e-06
-2.21501e-06
-2.58005e-06
-6.60033e-06
-7.04501e-06
-3.17556e-06
-0.000263264
-0.000259684
-0.000262793
-5.62616e-06
1.45454e-05
7.02934e-06
0.0010592
-4.54732e-06
-1.57271e-06
-2.21816e-06
-2.59096e-06
-6.63184e-06
-7.06191e-06
-3.19124e-06
-0.000263339
-0.000259715
-0.000262835
0.00106193
2.03771e-06
-0.00106086
9.83464e-07
-1.71624e-06
-1.78761e-07
-6.89739e-07
-1.45826e-06
-3.24235e-07
-8.20036e-07
3.28656e-07
7.78765e-07
0.00106235
2.03806e-06
-0.00106128
9.78408e-07
-1.72665e-06
-1.71246e-07
-6.95233e-07
-1.46396e-06
-3.24394e-07
-8.2039e-07
3.34069e-07
-4.87412e-06
-4.86679e-06
0.000259054
-7.3747e-07
0.000261566
-0.000259478
-2.89646e-07
-2.82029e-07
6.81125e-06
0.00105967
-4.55248e-06
-1.63966e-06
-2.23122e-06
-2.58927e-06
-6.61435e-06
-7.05729e-06
-3.18646e-06
-0.000263359
-0.000259742
-0.000262847
-5.62586e-06
1.45798e-05
7.12344e-06
0.00105897
-4.54715e-06
-1.58281e-06
-2.2232e-06
-2.59292e-06
-6.63116e-06
-7.06079e-06
-3.19086e-06
-0.000259684
-0.000263316
-0.000262806
0.00106294
2.04526e-06
-0.00106187
9.7204e-07
-1.68632e-06
-1.81287e-07
-6.90003e-07
-1.46128e-06
-3.24343e-07
-8.17778e-07
3.31035e-07
7.68138e-07
0.00106204
2.04828e-06
-0.00106099
9.93842e-07
-1.71633e-06
-1.76305e-07
-6.89944e-07
-1.46109e-06
-3.21746e-07
-8.2278e-07
3.28602e-07
1.45768e-05
7.11076e-06
0.00105878
-4.52813e-06
-1.58024e-06
-2.21239e-06
-2.58008e-06
-6.60033e-06
-3.17561e-06
-7.04268e-06
-0.000259679
-0.000263259
-0.000262788
2.04454e-06
-0.00106161
9.77271e-07
-1.68621e-06
-1.78603e-07
-6.87092e-07
-1.45859e-06
-3.26709e-07
3.25846e-07
-8.17521e-07
7.68114e-07
0.00106183
2.04794e-06
-0.00106078
9.93892e-07
-1.71624e-06
-1.76189e-07
-6.89704e-07
-1.46095e-06
-3.24198e-07
-8.19989e-07
3.31188e-07
-4.87894e-06
-4.86655e-06
0.000259034
-7.29317e-07
0.000261517
-0.00025944
-2.927e-07
-2.87268e-07
1.44779e-05
6.82978e-06
0.00105962
-4.55262e-06
-1.63968e-06
-2.23127e-06
-2.58909e-06
-6.61422e-06
-3.18636e-06
-7.05456e-06
-0.000259732
-0.000263357
-0.000262842
2.04964e-06
-0.00106131
9.92871e-07
-1.68376e-06
-1.8116e-07
-6.89765e-07
-1.45546e-06
-3.21697e-07
3.25873e-07
-8.20042e-07
7.29406e-07
0.00106285
2.05028e-06
-0.00106179
9.82418e-07
-1.6813e-06
-1.81321e-07
-6.87431e-07
-1.45853e-06
-3.24197e-07
-8.202e-07
3.26026e-07
-0.000259455
-2.8983e-07
-2.87491e-07
1.64004e-06
1.60486e-06
-7.08937e-07
-7.17416e-07
0.000259722
-8.43438e-07
-8.04702e-07
0.00026278
-0.000260664
-2.37912e-07
-2.30356e-07
8.4216e-07
0.00106322
-6.56184e-07
8.07941e-07
-1.53189e-07
3.59009e-07
-7.9623e-07
-1.39386e-06
-3.12779e-07
-1.64531e-06
1.65523e-06
8.3693e-07
0.00106364
-6.59039e-07
8.16019e-07
-1.53206e-07
3.64422e-07
-7.99201e-07
-1.39955e-06
-3.10483e-07
0.00106715
1.3884e-06
-0.00106577
7.20586e-07
-1.582e-06
-1.27163e-07
-6.19507e-07
-1.33919e-06
-2.89694e-07
-7.58955e-07
3.84231e-07
8.48789e-07
0.00106759
1.38868e-06
-0.0010662
7.15541e-07
-1.58733e-06
-1.27301e-07
-6.19735e-07
-1.34218e-06
-2.89823e-07
-7.59298e-07
3.8702e-07
-7.0943e-07
-7.16748e-07
0.00025974
-8.09955e-07
0.000262806
-0.000260677
-2.3797e-07
-2.32835e-07
8.3568e-07
0.00106424
-6.53826e-07
7.72002e-07
-1.55675e-07
3.61433e-07
-7.99267e-07
-1.397e-06
-3.10446e-07
-1.64004e-06
1.66052e-06
8.42265e-07
0.00106333
-6.59029e-07
8.08045e-07
-1.53241e-07
3.59017e-07
-7.98941e-07
-1.39406e-06
-3.10298e-07
0.00106818
1.38975e-06
-0.00106681
7.1958e-07
-1.5441e-06
-1.32172e-07
-6.145e-07
-1.33688e-06
-2.87303e-07
-7.59274e-07
3.86848e-07
8.38206e-07
0.00106727
1.38837e-06
-0.00106588
7.2072e-07
-1.57941e-06
-1.29779e-07
-6.19653e-07
-1.33931e-06
-2.89672e-07
-7.59008e-07
3.87006e-07
1.65504e-06
8.42264e-07
0.00106312
-6.58814e-07
8.05373e-07
-1.55632e-07
3.58945e-07
-7.98857e-07
-3.10335e-07
-1.39396e-06
1.38936e-06
-0.00106654
7.2495e-07
-1.55188e-06
-1.34608e-07
-6.14339e-07
-1.33681e-06
-2.87297e-07
3.86733e-07
-7.59124e-07
8.40809e-07
0.00106706
1.38299e-06
-0.00106567
7.20696e-07
-1.57932e-06
-1.29639e-07
-6.19473e-07
-1.33924e-06
-2.8971e-07
-7.58931e-07
3.8427e-07
-7.12218e-07
-7.14192e-07
0.000259701
-8.01909e-07
0.000262755
-0.000260644
-2.3815e-07
-2.32793e-07
1.65646e-06
8.30639e-07
0.00106416
-6.53898e-07
7.66584e-07
-1.60799e-07
3.56281e-07
-7.96489e-07
-3.15306e-07
-1.39149e-06
1.38935e-06
-0.00106621
7.19831e-07
-1.54135e-06
-1.34592e-07
-6.14291e-07
-1.33123e-06
-2.8972e-07
3.78681e-07
-7.59022e-07
8.04581e-07
0.00106809
1.38976e-06
-0.00106671
7.19648e-07
-1.54155e-06
-1.34751e-07
-6.14566e-07
-1.33946e-06
-2.89766e-07
-7.61867e-07
3.84189e-07
-0.000260651
-2.37999e-07
-2.32947e-07
1.58346e-06
1.55075e-06
-6.67183e-07
-6.75493e-07
0.000260989
-1.05752e-06
-1.02165e-06
0.00026363
-0.000261647
4.59792e-08
5.07637e-08
6.89324e-07
0.00106851
-6.18476e-07
8.60942e-07
-1.07771e-07
4.07862e-07
-7.56761e-07
-1.3372e-06
-2.68629e-07
-1.58882e-06
1.35829e-06
6.99956e-07
0.00106893
-6.18695e-07
8.66351e-07
-1.0784e-07
4.13387e-07
-7.59696e-07
-1.34281e-06
-2.63768e-07
0.00107092
7.32019e-07
-0.00107043
3.59774e-07
-1.40112e-06
8.91627e-08
-4.14076e-07
-1.09221e-06
-3.38298e-09
-4.71371e-07
6.5642e-07
1.06288e-06
0.00107134
7.3193e-07
-0.00107085
3.59663e-07
-1.40654e-06
9.19233e-08
-4.1693e-07
-1.10054e-06
2.89609e-09
-4.76984e-07
6.64629e-07
-6.7024e-07
-6.72425e-07
0.000261009
-1.02435e-06
0.000263658
-0.000261673
4.86048e-08
5.32249e-08
6.88459e-07
0.00106954
-6.16178e-07
8.24841e-07
-1.12764e-07
4.10499e-07
-7.59663e-07
-1.34278e-06
-2.63694e-07
-1.58085e-06
1.35802e-06
6.94728e-07
0.00106861
-6.18652e-07
8.58367e-07
-1.07823e-07
4.10646e-07
-7.59377e-07
-1.33992e-06
-2.63572e-07
0.00107195
7.32946e-07
-0.00107146
3.58805e-07
-1.36541e-06
8.65663e-08
-4.11474e-07
-1.09522e-06
2.8344e-09
-4.77043e-07
6.59059e-07
1.05756e-06
0.00107102
7.32106e-07
-0.00107054
3.59698e-07
-1.40117e-06
9.19586e-08
-4.16883e-07
-1.09507e-06
2.8794e-09
-4.76851e-07
6.59031e-07
1.36306e-06
6.89496e-07
0.00106842
-6.15805e-07
8.55678e-07
-1.1271e-07
4.10538e-07
-7.59333e-07
-2.66137e-07
-1.33988e-06
7.32875e-07
-0.0010712
3.58959e-07
-1.36798e-06
8.66623e-08
-4.11349e-07
-1.09249e-06
-9.08665e-10
6.56484e-07
-4.7425e-07
1.05235e-06
0.00107082
7.32148e-07
-0.00107033
3.59816e-07
-1.39575e-06
8.64477e-08
-4.11291e-07
-1.09234e-06
-8.34791e-10
-4.74029e-07
6.56446e-07
-6.70304e-07
-6.74952e-07
0.000260974
-1.01882e-06
0.000263609
-0.000261632
4.59578e-08
5.32021e-08
1.35935e-06
6.93775e-07
0.00106945
-6.10913e-07
8.16825e-07
-1.17765e-07
4.07927e-07
-7.56971e-07
-2.66161e-07
-1.33748e-06
7.32772e-07
-0.00107086
3.59141e-07
-1.36275e-06
8.3734e-08
-4.0875e-07
-1.09226e-06
2.86462e-09
6.56284e-07
-4.76831e-07
1.01901e-06
0.00107186
7.33072e-07
-0.00107137
3.59144e-07
-1.36281e-06
8.37352e-08
-4.08856e-07
-1.08987e-06
-8.08215e-10
-4.74205e-07
6.54041e-07
-0.000261645
4.8417e-08
5.3402e-08
1.33855e-06
1.30278e-06
-3.51318e-07
-3.56759e-07
0.000261696
-1.19427e-06
-1.15851e-06
0.000263652
-0.0002617
1.98023e-07
2.03164e-07
2.58949e-07
0.00107119
-3.52926e-07
1.11195e-06
1.41959e-07
7.2388e-07
-3.83245e-07
-1.0181e-06
8.11472e-08
-1.34394e-06
5.09753e-07
2.58905e-07
0.00107161
-3.55767e-07
1.11731e-06
1.44762e-07
7.32064e-07
-3.88745e-07
-1.02636e-06
8.66864e-08
0.00107138
1.18484e-07
-0.00107137
6.71119e-08
-1.23998e-06
2.18417e-07
-2.61755e-07
-8.90699e-07
1.94596e-07
-2.50338e-07
8.32942e-07
1.19964e-06
0.0010718
1.18578e-07
-0.00107179
6.71619e-08
-1.24537e-06
2.21186e-07
-2.64545e-07
-8.98948e-07
2.00023e-07
-2.55803e-07
8.41126e-07
-3.54129e-07
-3.59024e-07
0.000261722
-1.16112e-06
0.00026368
-0.000261726
2.00755e-07
2.05542e-07
2.58165e-07
0.00107221
-3.50284e-07
1.07614e-06
1.39425e-07
7.26504e-07
-3.88844e-07
-1.02103e-06
8.65987e-08
-1.33861e-06
5.09969e-07
2.58948e-07
0.00107129
-3.55721e-07
1.11201e-06
1.44742e-07
7.26478e-07
-3.88675e-07
-1.0209e-06
8.66315e-08
0.00107241
1.18703e-07
-0.0010724
6.68178e-08
-1.20416e-06
2.1589e-07
-2.59119e-07
-8.93497e-07
2.00045e-07
-2.55821e-07
8.35693e-07
1.19431e-06
0.00107149
1.18638e-07
-0.00107147
6.71518e-08
-1.24005e-06
2.21188e-07
-2.64529e-07
-8.93431e-07
1.99986e-07
-2.55737e-07
8.35598e-07
5.09893e-07
2.58935e-07
0.00107109
-3.50202e-07
1.10672e-06
1.39271e-07
7.23826e-07
-3.85907e-07
8.38434e-08
-1.0182e-06
1.18671e-07
-0.00107213
6.68558e-08
-1.20679e-06
2.15867e-07
-2.59124e-07
-8.90776e-07
1.9733e-07
8.3297e-07
-2.53097e-07
1.18898e-06
0.00107129
1.1861e-07
-0.00107127
6.71551e-08
-1.23471e-06
2.15707e-07
-2.59036e-07
-8.90765e-07
1.97241e-07
-2.53011e-07
8.32936e-07
-3.51744e-07
-3.58955e-07
0.000261681
-1.15573e-06
0.000263631
-0.000261685
1.98198e-07
2.05499e-07
5.10595e-07
2.58408e-07
0.00107213
-3.47737e-07
1.07346e-06
1.36639e-07
7.21334e-07
-3.86101e-07
8.39095e-08
-1.01568e-06
1.18663e-07
-0.00107179
6.69443e-08
-1.20146e-06
2.13121e-07
-2.56421e-07
-8.90585e-07
1.99962e-07
8.32861e-07
-2.5571e-07
1.15584e-06
0.00107232
1.18734e-07
-0.00107231
6.69338e-08
-1.20157e-06
2.13176e-07
-2.56475e-07
-8.88238e-07
1.97353e-07
-2.5311e-07
8.30444e-07
-0.000261697
2.00516e-07
2.05716e-07
1.22747e-06
1.19166e-06
-2.27718e-07
-2.32953e-07
0.000261693
-1.2142e-06
-1.17841e-06
0.00026364
-0.000261684
2.15791e-07
2.20999e-07
3.79107e-08
0.00107139
-2.50601e-07
1.20437e-06
2.27538e-07
8.45424e-07
-2.35814e-07
-8.7518e-07
2.06375e-07
-1.23286e-06
6.4946e-08
3.79835e-08
0.00107181
-2.53398e-07
1.20974e-06
2.30298e-07
8.53595e-07
-2.41289e-07
-8.83443e-07
2.11789e-07
0.00107138
7.616e-09
-0.00107138
6.31115e-09
-1.21495e-06
2.36413e-07
-2.39545e-07
-8.60476e-07
2.17343e-07
-2.22325e-07
8.57149e-07
1.21957e-06
0.0010718
7.73217e-09
-0.0010718
6.44721e-09
-1.22035e-06
2.39163e-07
-2.42357e-07
-8.68714e-07
2.22739e-07
-2.27819e-07
8.65343e-07
-2.30516e-07
-2.35305e-07
0.000261719
-1.18101e-06
0.000263668
-0.00026171
2.1852e-07
2.23354e-07
3.7717e-08
0.00107241
-2.4798e-07
1.1686e-06
2.24997e-07
8.48186e-07
-2.4127e-07
-8.77969e-07
2.11842e-07
-1.22753e-06
6.49308e-08
3.79541e-08
0.00107149
-2.5338e-07
1.20441e-06
2.30306e-07
8.48098e-07
-2.41221e-07
-8.77895e-07
2.11769e-07
0.00107241
7.52155e-09
-0.00107241
6.25528e-09
-1.17916e-06
2.33845e-07
-2.36954e-07
-8.63198e-07
2.22828e-07
-2.27755e-07
8.59968e-07
1.21424e-06
0.00107148
7.61383e-09
-0.00107148
6.3569e-09
-1.21502e-06
2.39173e-07
-2.42332e-07
-8.63168e-07
2.22754e-07
-2.2771e-07
8.59851e-07
6.49376e-08
3.79426e-08
0.00107129
-2.47884e-07
1.19908e-06
2.24827e-07
8.45418e-07
-2.38476e-07
2.09027e-07
-8.75244e-07
7.57767e-09
-0.00107215
6.33589e-09
-1.18182e-06
2.33811e-07
-2.36976e-07
-8.60509e-07
2.20117e-07
8.57242e-07
-2.25044e-07
1.20891e-06
0.00107128
7.64326e-09
-0.00107128
6.34052e-09
-1.20968e-06
2.33696e-07
-2.36835e-07
-8.60507e-07
2.19998e-07
-2.24984e-07
8.57176e-07
-2.27961e-07
-2.35287e-07
0.000261678
-1.17568e-06
0.000263619
-0.000261668
2.16007e-07
2.23319e-07
6.4955e-08
3.77984e-08
0.00107233
-2.45318e-07
1.16594e-06
2.22299e-07
8.42935e-07
-2.38564e-07
2.09151e-07
-8.72721e-07
7.53736e-09
-0.00107181
6.23793e-09
-1.17642e-06
2.31119e-07
-2.34206e-07
-8.60333e-07
2.22732e-07
8.5712e-07
-2.27665e-07
1.17578e-06
0.00107232
7.5462e-09
-0.00107232
6.27901e-09
-1.17654e-06
2.31164e-07
-2.34273e-07
-8.57964e-07
2.20131e-07
-2.25061e-07
8.54711e-07
-0.000261681
2.1831e-07
2.2354e-07
1.2141e-06
1.17832e-06
-2.15293e-07
-2.20475e-07
0.000261683
-1.21532e-06
-1.17953e-06
0.000263639
-0.000261682
2.16625e-07
2.21845e-07
3.90665e-09
0.00107138
-2.38804e-07
1.21486e-06
2.37e-07
8.57956e-07
-2.21412e-07
-8.59471e-07
2.18093e-07
-1.2195e-06
3.23795e-09
4.03808e-09
0.0010718
-2.41616e-07
1.22022e-06
2.39742e-07
8.66141e-07
-2.26917e-07
-8.67714e-07
2.23476e-07
0.00107138
-5.81195e-10
-0.00107138
2.06177e-09
-1.21349e-06
2.37413e-07
-2.3828e-07
-8.58723e-07
2.18638e-07
-2.20736e-07
8.58542e-07
1.2207e-06
0.0010718
-5.61897e-10
-0.0010718
2.09002e-09
-1.21888e-06
2.40197e-07
-2.41057e-07
-8.66933e-07
2.24094e-07
-2.26179e-07
8.66774e-07
-2.18097e-07
-2.22847e-07
0.000261709
-1.18216e-06
0.000263667
-0.000261708
2.19406e-07
2.24201e-07
3.86665e-09
0.00107241
-2.36217e-07
1.17907e-06
2.34427e-07
8.60775e-07
-2.26841e-07
-8.62191e-07
2.23579e-07
-1.21417e-06
3.10144e-09
3.94621e-09
0.00107148
-2.4159e-07
1.2149e-06
2.3976e-07
8.60658e-07
-2.26796e-07
-8.62159e-07
2.23507e-07
0.00107241
-7.33932e-10
-0.00107241
2.01218e-09
-1.17771e-06
2.34841e-07
-2.35691e-07
-8.6143e-07
2.24141e-07
-2.26149e-07
8.61376e-07
1.21537e-06
0.00107148
-6.07595e-10
-0.00107148
2.05942e-09
-1.21355e-06
2.40181e-07
-2.41055e-07
-8.61411e-07
2.24057e-07
-2.26114e-07
8.61249e-07
3.12314e-09
3.9215e-09
0.00107128
-2.3609e-07
1.20957e-06
2.34286e-07
8.57985e-07
-2.24062e-07
2.20756e-07
-8.59497e-07
-7.09208e-10
-0.00107214
2.03435e-09
-1.18033e-06
2.34846e-07
-2.3568e-07
-8.58743e-07
2.21428e-07
8.58647e-07
-2.23438e-07
1.21003e-06
0.00107128
-6.08694e-10
-0.00107128
2.05505e-09
-1.20822e-06
2.34704e-07
-2.3556e-07
-8.58746e-07
2.21311e-07
-2.23378e-07
8.58582e-07
-2.15503e-07
-2.22821e-07
0.000261667
-1.1768e-06
0.000263618
-0.000261667
2.16849e-07
2.24168e-07
3.02204e-09
3.87614e-09
0.00107232
-2.33529e-07
1.17643e-06
2.31753e-07
8.5552e-07
-2.2414e-07
2.20887e-07
-8.56952e-07
-7.33794e-10
-0.00107181
1.97158e-09
-1.17496e-06
2.32124e-07
-2.32932e-07
-8.58568e-07
2.24043e-07
8.58529e-07
-2.26061e-07
1.1769e-06
0.00107232
-7.29085e-10
-0.00107232
1.99878e-09
-1.17508e-06
2.32174e-07
-2.32996e-07
-8.562e-07
2.21442e-07
-2.23457e-07
8.56117e-07
-0.00026168
2.19159e-07
2.24385e-07
1.21347e-06
1.17768e-06
-2.1478e-07
-2.1995e-07
0.000261682
-1.21799e-06
-1.17955e-06
0.000263641
-0.000261682
2.16662e-07
2.21862e-07
2.00676e-09
0.00107137
-2.38266e-07
1.21798e-06
2.40132e-07
8.58567e-07
-2.20712e-07
-8.58691e-07
2.18654e-07
-1.21884e-06
-8.1922e-10
1.96502e-09
0.0010718
-2.41022e-07
1.22072e-06
2.40215e-07
8.66802e-07
-2.26142e-07
-8.66885e-07
2.24111e-07
0.00107137
-9.32839e-10
-0.00107137
1.98392e-09
-1.2161e-06
2.40137e-07
-2.40972e-07
-8.58685e-07
2.18665e-07
-2.20708e-07
8.58572e-07
1.22074e-06
0.0010718
-9.63431e-10
-0.0010718
1.91069e-09
-1.21882e-06
2.4023e-07
-2.41009e-07
-8.64226e-07
2.2412e-07
-2.26133e-07
8.6416e-07
-2.17516e-07
-2.2231e-07
0.000261708
-1.1822e-06
0.000263667
-0.000261708
2.19424e-07
2.24228e-07
1.94117e-09
0.00107241
-2.35674e-07
1.17954e-06
2.34853e-07
8.61402e-07
-2.26123e-07
-8.61399e-07
2.24161e-07
-1.21352e-06
-8.39297e-10
1.96978e-09
0.00107148
-2.41029e-07
1.21539e-06
2.40203e-07
8.61278e-07
-2.26085e-07
-8.61375e-07
2.24083e-07
0.00107241
-1.08627e-09
-0.00107241
1.89192e-09
-1.17768e-06
2.34855e-07
-2.35676e-07
-8.61377e-07
2.24174e-07
-2.26101e-07
8.61414e-07
1.21541e-06
0.00107148
-9.84383e-10
-0.00107148
1.9085e-09
-1.2135e-06
2.40214e-07
-2.41013e-07
-8.61357e-07
2.24091e-07
-2.26067e-07
8.61288e-07
-8.49125e-10
1.96465e-09
0.00107128
-2.35531e-07
1.21006e-06
2.34727e-07
8.58614e-07
-2.23342e-07
2.2134e-07
-8.58705e-07
-1.11459e-09
-0.00107214
1.86626e-09
-1.18027e-06
2.34881e-07
-2.35627e-07
-8.5869e-07
2.21465e-07
8.58688e-07
-2.23392e-07
1.21007e-06
0.00107128
-1.00064e-09
-0.00107128
1.9257e-09
-1.20817e-06
2.34733e-07
-2.3552e-07
-8.5869e-07
2.21348e-07
-2.23328e-07
8.58624e-07
-2.14976e-07
-2.22287e-07
0.000261667
-1.17683e-06
0.000263618
-0.000261667
2.1687e-07
2.24192e-07
-9.60303e-10
1.90531e-09
0.00107232
-2.32967e-07
1.17693e-06
2.32197e-07
8.56147e-07
-2.23422e-07
2.2147e-07
-8.5616e-07
-1.11782e-09
-0.00107181
1.83181e-09
-1.17491e-06
2.32154e-07
-2.32893e-07
-8.58513e-07
2.24079e-07
8.58569e-07
-2.26014e-07
1.17694e-06
0.00107232
-1.1019e-09
-0.00107232
1.84576e-09
-1.17503e-06
2.32206e-07
-2.32953e-07
-8.56147e-07
2.21476e-07
-2.2341e-07
8.56155e-07
-0.00026168
2.19183e-07
2.24407e-07
1.21609e-06
1.17766e-06
-2.14802e-07
-2.19942e-07
0.000261682
-1.21799e-06
-1.17957e-06
0.000263641
-0.000261682
2.16693e-07
2.21864e-07
1.95711e-09
0.00107137
-2.40958e-07
1.21799e-06
2.40175e-07
8.58587e-07
-2.20685e-07
-8.58671e-07
2.21368e-07
-1.21882e-06
-9.70972e-10
1.91431e-09
0.0010718
-2.41013e-07
1.22074e-06
2.40225e-07
8.64159e-07
-2.26134e-07
-8.64224e-07
2.2412e-07
0.00107137
-1.00465e-09
-0.00107137
1.94194e-09
-1.21609e-06
2.40175e-07
-2.40977e-07
-8.58659e-07
2.21367e-07
-2.23351e-07
8.58588e-07
1.22074e-06
0.0010718
-1.01148e-09
-0.0010718
1.93084e-09
-1.21882e-06
2.40224e-07
-2.41014e-07
-8.64219e-07
2.24128e-07
-2.26124e-07
8.64165e-07
-2.17509e-07
-2.22297e-07
0.000261708
-1.1822e-06
0.000263667
-0.000261708
2.19427e-07
2.24227e-07
1.87429e-09
0.00107241
-2.35664e-07
1.17956e-06
2.34871e-07
8.61414e-07
-2.26103e-07
-8.61379e-07
2.24173e-07
-1.2135e-06
-9.96564e-10
1.91323e-09
0.00107148
-2.41013e-07
1.21541e-06
2.40215e-07
8.61292e-07
-2.26069e-07
-8.61356e-07
2.24094e-07
0.00107241
-1.11989e-09
-0.00107241
1.83893e-09
-1.17765e-06
2.3488e-07
-2.35642e-07
-8.61378e-07
2.24171e-07
-2.26098e-07
8.6141e-07
1.21541e-06
0.00107148
-1.00283e-09
-0.00107148
1.92059e-09
-1.2135e-06
2.40213e-07
-2.41013e-07
-8.61354e-07
2.24094e-07
-2.26064e-07
8.61291e-07
-1.01578e-09
1.91876e-09
0.00107128
-2.35519e-07
1.21007e-06
2.34736e-07
8.5863e-07
-2.23323e-07
2.21354e-07
-8.58684e-07
-1.11971e-09
-0.00107214
1.85247e-09
-1.18027e-06
2.34883e-07
-2.35623e-07
-8.58688e-07
2.21463e-07
8.58687e-07
-2.23391e-07
1.21007e-06
0.00107128
-1.01644e-09
-0.00107128
1.92711e-09
-1.20817e-06
2.34733e-07
-2.3552e-07
-8.58687e-07
2.21351e-07
-2.23325e-07
8.58627e-07
-2.14964e-07
-2.22272e-07
0.000261667
-1.17683e-06
0.000263618
-0.000261667
2.16873e-07
2.24192e-07
-1.1156e-09
1.84283e-09
0.00107232
-2.32951e-07
1.17694e-06
2.32209e-07
8.5616e-07
-2.23405e-07
2.21481e-07
-8.56142e-07
-1.12674e-09
-0.00107181
1.82542e-09
-1.17491e-06
2.32156e-07
-2.32891e-07
-8.58512e-07
2.24081e-07
8.5857e-07
-2.26013e-07
1.17694e-06
0.00107232
-1.11452e-09
-0.00107232
1.83672e-09
-1.17502e-06
2.32209e-07
-2.32951e-07
-8.56145e-07
2.21478e-07
-2.23408e-07
8.56157e-07
-0.00026168
2.19185e-07
2.24407e-07
1.21608e-06
1.17765e-06
-2.1478e-07
-2.1994e-07
0.000261682
-1.21799e-06
-1.17957e-06
0.000263641
-0.000261682
2.16694e-07
2.21867e-07
1.93616e-09
0.00107137
-2.40972e-07
1.218e-06
2.4018e-07
8.586e-07
-2.23345e-07
-8.58654e-07
2.21377e-07
-1.21882e-06
-9.97103e-10
1.91959e-09
0.0010718
-2.41014e-07
1.22074e-06
2.40225e-07
8.64166e-07
-2.26124e-07
-8.64219e-07
2.2413e-07
0.00107137
-1.00933e-09
-0.00107137
1.94754e-09
-1.21608e-06
2.40173e-07
-2.40977e-07
-8.58658e-07
2.21377e-07
-2.2335e-07
8.58594e-07
1.22074e-06
0.0010718
-1.02859e-09
-0.0010718
1.92588e-09
-1.21882e-06
2.4023e-07
-2.41013e-07
-8.6422e-07
2.24136e-07
-2.2612e-07
8.64169e-07
-2.17501e-07
-2.22297e-07
0.000261708
-1.1822e-06
0.000263667
-0.000261708
2.19425e-07
2.24233e-07
1.84179e-09
0.00107241
-2.3564e-07
1.17958e-06
2.34884e-07
8.61413e-07
-2.26103e-07
-8.6138e-07
2.24171e-07
-1.2135e-06
-1.00953e-09
1.92294e-09
0.00107148
-2.41014e-07
1.21541e-06
2.40214e-07
8.61295e-07
-2.26066e-07
-8.61352e-07
2.24097e-07
0.00107241
-1.12417e-09
-0.00107241
1.84662e-09
-1.17765e-06
2.3488e-07
-2.35643e-07
-8.61376e-07
2.24176e-07
-2.26099e-07
8.61415e-07
1.21541e-06
0.00107148
-1.00415e-09
-0.00107148
1.91112e-09
-1.2135e-06
2.40216e-07
-2.41013e-07
-8.61355e-07
2.24096e-07
-2.26066e-07
8.61292e-07
-1.02507e-09
1.92177e-09
0.00107128
-2.35518e-07
1.21007e-06
2.34736e-07
8.58632e-07
-2.23321e-07
2.21356e-07
-8.58682e-07
-1.13569e-09
-0.00107214
1.8535e-09
-1.18027e-06
2.34883e-07
-2.35623e-07
-8.58687e-07
2.21466e-07
8.58691e-07
-2.23392e-07
1.21007e-06
0.00107128
-1.0265e-09
-0.00107128
1.92341e-09
-1.20817e-06
2.34736e-07
-2.3552e-07
-8.58687e-07
2.21354e-07
-2.23326e-07
8.58628e-07
-2.14962e-07
-2.22272e-07
0.000261667
-1.17684e-06
0.000263618
-0.000261667
2.16874e-07
2.24194e-07
-1.12119e-09
1.83605e-09
0.00107232
-2.32949e-07
1.17695e-06
2.32212e-07
8.56162e-07
-2.23404e-07
2.21484e-07
-8.5614e-07
-1.13786e-09
-0.00107181
1.825e-09
-1.17491e-06
2.32158e-07
-2.32891e-07
-8.58512e-07
2.24085e-07
8.58573e-07
-2.26013e-07
1.17694e-06
0.00107232
-1.123e-09
-0.00107232
1.83252e-09
-1.17502e-06
2.32211e-07
-2.32951e-07
-8.56144e-07
2.21481e-07
-2.23409e-07
8.56159e-07
-0.00026168
2.19187e-07
2.24409e-07
1.21608e-06
1.17765e-06
-2.14789e-07
-2.19941e-07
0.000261682
-1.21798e-06
-1.17953e-06
0.000263641
-0.000261682
2.16626e-07
2.21857e-07
1.95871e-09
0.00107137
-2.40982e-07
1.21799e-06
2.40169e-07
8.58593e-07
-2.23359e-07
-8.58663e-07
2.21371e-07
-1.21881e-06
-9.60626e-10
-3.3438e-09
0.0010718
-2.4101e-07
1.22075e-06
2.40231e-07
8.64127e-07
-2.26125e-07
-8.64229e-07
2.24128e-07
0.00107137
-8.76238e-10
-0.00107137
2.04196e-09
-1.2161e-06
2.40134e-07
-2.41007e-07
-8.58694e-07
2.21307e-07
-2.23407e-07
8.58548e-07
1.22075e-06
0.0010718
-9.88361e-10
-0.0010718
6.98865e-09
-1.21882e-06
2.4024e-07
-2.41011e-07
-8.64181e-07
2.24144e-07
-2.2612e-07
8.64178e-07
-2.175e-07
-2.22293e-07
0.000261708
-1.1822e-06
0.000263667
-0.000261708
2.19426e-07
2.24243e-07
1.8615e-09
0.00107241
-2.35649e-07
1.17957e-06
2.34872e-07
8.61416e-07
-2.26105e-07
-8.61379e-07
2.24172e-07
-1.2135e-06
-1.00882e-09
1.90866e-09
0.00107148
-2.41012e-07
1.21541e-06
2.40217e-07
8.61294e-07
-2.26069e-07
-8.61354e-07
2.24098e-07
0.00107241
-1.09323e-09
-0.00107241
1.9161e-09
-1.17768e-06
2.34832e-07
-2.35679e-07
-8.61371e-07
2.24169e-07
-2.26091e-07
8.61412e-07
1.21541e-06
0.00107148
-9.89623e-10
-0.00107148
1.89713e-09
-1.2135e-06
2.40213e-07
-2.41007e-07
-8.61352e-07
2.24085e-07
-2.26058e-07
8.61283e-07
-1.03364e-09
1.91525e-09
0.00107128
-2.35518e-07
1.21008e-06
2.34738e-07
8.58633e-07
-2.23322e-07
2.21358e-07
-8.58682e-07
-1.139e-09
-0.00107214
1.8666e-09
-1.18027e-06
2.32171e-07
-2.32919e-07
-8.58683e-07
2.21442e-07
8.58687e-07
-2.23362e-07
1.21007e-06
0.00107128
-1.02245e-09
-0.00107128
1.92202e-09
-1.20817e-06
2.34731e-07
-2.35515e-07
-8.58681e-07
2.21345e-07
-2.23316e-07
8.58622e-07
-2.14963e-07
-2.22272e-07
0.000261667
-1.17683e-06
0.000263618
-0.000261667
2.16868e-07
2.24191e-07
-1.13097e-09
1.83118e-09
0.00107232
-2.32949e-07
1.17695e-06
2.32214e-07
8.56164e-07
-2.23405e-07
2.21485e-07
-8.56139e-07
-1.13587e-09
-0.00107181
1.8319e-09
-1.17491e-06
2.32152e-07
-2.32887e-07
-8.58506e-07
2.24076e-07
8.58567e-07
-2.26004e-07
1.17694e-06
0.00107232
-1.12031e-09
-0.00107232
1.83026e-09
-1.17502e-06
2.32207e-07
-2.32945e-07
-8.56139e-07
2.21471e-07
-2.234e-07
8.56152e-07
-0.00026168