/*--------------------------------*- C++ -*----------------------------------*\
| =========                 |                                                 |
| \\      /  F ield         | OpenFOAM: The Open Source CFD Toolbox           |
|  \\    /   O peration     | Version:  2206                                  |
|   \\  /    A nd           | Website:  www.openfoam.com                      |
|    \\/     M anipulation  |                                                 |
\*---------------------------------------------------------------------------*/
FoamFile
{
    version     2.0;
    format      ascii;
    arch        "LSB;label=32;scalar=64";
    class       volScalarField;
    location    "12.5";
    object      epsilon;
}
// * * * * * * * * * * * * * * * * * * * * * * * * * * * * * * * * * * * * * //

dimensions      [0 2 -3 0 0 0 0];

internalField   nonuniform List<scalar> 
28687
(
3.93141e-07
4.03752e-07
4.03758e-07
4.20043e-07
3.93139e-07
4.03756e-07
4.03756e-07
4.20063e-07
3.93131e-07
4.03747e-07
4.03754e-07
4.20066e-07
3.9297e-07
4.03593e-07
4.03615e-07
4.19978e-07
3.92911e-07
4.03561e-07
4.03565e-07
4.19914e-07
3.92911e-07
4.03561e-07
4.03565e-07
4.19927e-07
3.92911e-07
4.0356e-07
4.03565e-07
4.19926e-07
3.92911e-07
4.0356e-07
4.03565e-07
4.19925e-07
3.92911e-07
4.03561e-07
4.03565e-07
4.19925e-07
3.92911e-07
4.03561e-07
4.03565e-07
4.19925e-07
3.92911e-07
4.03561e-07
4.03565e-07
4.19925e-07
3.9291e-07
4.03561e-07
4.03565e-07
4.19925e-07
3.92911e-07
4.03561e-07
4.03565e-07
4.19925e-07
3.9291e-07
4.03561e-07
4.03565e-07
4.19925e-07
3.9291e-07
4.03561e-07
4.03565e-07
4.19925e-07
3.92911e-07
4.03561e-07
4.03565e-07
4.19925e-07
3.9291e-07
4.03561e-07
4.03565e-07
4.19925e-07
3.9291e-07
4.03561e-07
4.03565e-07
4.19925e-07
4.03764e-07
4.19906e-07
4.03752e-07
4.2004e-07
4.19919e-07
4.03762e-07
4.03764e-07
4.03761e-07
4.03763e-07
4.20054e-07
4.19921e-07
4.03756e-07
4.03769e-07
4.03755e-07
4.03767e-07
4.03763e-07
4.03755e-07
4.03762e-07
4.20046e-07
4.19924e-07
4.03756e-07
4.03756e-07
4.03755e-07
4.19921e-07
4.20062e-07
4.19923e-07
4.03765e-07
4.03767e-07
4.03762e-07
4.03762e-07
4.20065e-07
4.19923e-07
4.0376e-07
4.03772e-07
4.03756e-07
4.03768e-07
4.03766e-07
4.03754e-07
4.03763e-07
4.20068e-07
4.19928e-07
4.03759e-07
4.03757e-07
4.03756e-07
4.19926e-07
4.20066e-07
4.19854e-07
4.03758e-07
4.03755e-07
4.03666e-07
4.03636e-07
4.20065e-07
4.19821e-07
4.03753e-07
4.03765e-07
4.0366e-07
4.03672e-07
4.0376e-07
4.0363e-07
4.03666e-07
4.20071e-07
4.19859e-07
4.03753e-07
4.03662e-07
4.03659e-07
4.19856e-07
4.1998e-07
4.1977e-07
4.03621e-07
4.03602e-07
4.03572e-07
4.0357e-07
4.1995e-07
4.19768e-07
4.03616e-07
4.03627e-07
4.03565e-07
4.03577e-07
4.03622e-07
4.03561e-07
4.03571e-07
4.19984e-07
4.19776e-07
4.03615e-07
4.03566e-07
4.03565e-07
4.19772e-07
4.19914e-07
4.19785e-07
4.03573e-07
4.03573e-07
4.03571e-07
4.0357e-07
4.19915e-07
4.19779e-07
4.03567e-07
4.03579e-07
4.03565e-07
4.03577e-07
4.03573e-07
4.03561e-07
4.03571e-07
4.1992e-07
4.1979e-07
4.03566e-07
4.03565e-07
4.03564e-07
4.19788e-07
4.19927e-07
4.19782e-07
4.03573e-07
4.03573e-07
4.03571e-07
4.0357e-07
4.1992e-07
4.19779e-07
4.03567e-07
4.03579e-07
4.03565e-07
4.03577e-07
4.03573e-07
4.03561e-07
4.03571e-07
4.19932e-07
4.19788e-07
4.03567e-07
4.03565e-07
4.03564e-07
4.19785e-07
4.19926e-07
4.19782e-07
4.03573e-07
4.03572e-07
4.03571e-07
4.03571e-07
4.19922e-07
4.19778e-07
4.03567e-07
4.03579e-07
4.03565e-07
4.03577e-07
4.03573e-07
4.03561e-07
4.03571e-07
4.19931e-07
4.19787e-07
4.03566e-07
4.03565e-07
4.03564e-07
4.19784e-07
4.19926e-07
4.19783e-07
4.03573e-07
4.03574e-07
4.03571e-07
4.03571e-07
4.19921e-07
4.19778e-07
4.03567e-07
4.03579e-07
4.03565e-07
4.03577e-07
4.03573e-07
4.03561e-07
4.03571e-07
4.19931e-07
4.19787e-07
4.03566e-07
4.03565e-07
4.03564e-07
4.19784e-07
4.19927e-07
4.19782e-07
4.03573e-07
4.03574e-07
4.0357e-07
4.03571e-07
4.19921e-07
4.19777e-07
4.03567e-07
4.03579e-07
4.03564e-07
4.03577e-07
4.03573e-07
4.03561e-07
4.03571e-07
4.19931e-07
4.19788e-07
4.03566e-07
4.03565e-07
4.03564e-07
4.19784e-07
4.19926e-07
4.19782e-07
4.03572e-07
4.03574e-07
4.0357e-07
4.03571e-07
4.19922e-07
4.19777e-07
4.03567e-07
4.03579e-07
4.03564e-07
4.03577e-07
4.03573e-07
4.03561e-07
4.03571e-07
4.19931e-07
4.19787e-07
4.03566e-07
4.03565e-07
4.03564e-07
4.19784e-07
4.19926e-07
4.19783e-07
4.03572e-07
4.03573e-07
4.0357e-07
4.03571e-07
4.19922e-07
4.19779e-07
4.03566e-07
4.03579e-07
4.03564e-07
4.03577e-07
4.03573e-07
4.03561e-07
4.03571e-07
4.19931e-07
4.19787e-07
4.03566e-07
4.03565e-07
4.03564e-07
4.19784e-07
4.19927e-07
4.19783e-07
4.03572e-07
4.03573e-07
4.0357e-07
4.03571e-07
4.19922e-07
4.19779e-07
4.03566e-07
4.03579e-07
4.03564e-07
4.03577e-07
4.03573e-07
4.03561e-07
4.03571e-07
4.19931e-07
4.19788e-07
4.03567e-07
4.03565e-07
4.03565e-07
4.19784e-07
4.19927e-07
4.19782e-07
4.03572e-07
4.03573e-07
4.0357e-07
4.03571e-07
4.19923e-07
4.19778e-07
4.03566e-07
4.03579e-07
4.03564e-07
4.03577e-07
4.03573e-07
4.03561e-07
4.03571e-07
4.19931e-07
4.19788e-07
4.03567e-07
4.03565e-07
4.03565e-07
4.19784e-07
4.19926e-07
4.19783e-07
4.03572e-07
4.03573e-07
4.0357e-07
4.03571e-07
4.19923e-07
4.19778e-07
4.03566e-07
4.03579e-07
4.03564e-07
4.03577e-07
4.03573e-07
4.03561e-07
4.03571e-07
4.19931e-07
4.19787e-07
4.03567e-07
4.03565e-07
4.03565e-07
4.19784e-07
4.19927e-07
4.19783e-07
4.03572e-07
4.03573e-07
4.0357e-07
4.03571e-07
4.19922e-07
4.19778e-07
4.03566e-07
4.03579e-07
4.03564e-07
4.03577e-07
4.03573e-07
4.03561e-07
4.03571e-07
4.19931e-07
4.19787e-07
4.03567e-07
4.03565e-07
4.03565e-07
4.19784e-07
4.19927e-07
4.19783e-07
4.03572e-07
4.03573e-07
4.0357e-07
4.03571e-07
4.19922e-07
4.19778e-07
4.03566e-07
4.03579e-07
4.03564e-07
4.03577e-07
4.03573e-07
4.03561e-07
4.03571e-07
4.19931e-07
4.19788e-07
4.03567e-07
4.03565e-07
4.03565e-07
4.19784e-07
4.19927e-07
4.19783e-07
4.03572e-07
4.03573e-07
4.0357e-07
4.03571e-07
4.19922e-07
4.19778e-07
4.03566e-07
4.03579e-07
4.03564e-07
4.03577e-07
4.03573e-07
4.03561e-07
4.03571e-07
4.19931e-07
4.19787e-07
4.03567e-07
4.03565e-07
4.03565e-07
4.19784e-07
4.19927e-07
4.03571e-07
4.03572e-07
4.19922e-07
4.03565e-07
4.03578e-07
4.03572e-07
4.19931e-07
4.03566e-07
1.45234e-06
7.45482e-06
1.45298e-06
7.45444e-06
2.46687e-05
2.46656e-05
1.45223e-06
7.45592e-06
1.45279e-06
7.45544e-06
3.93145e-07
3.93142e-07
3.93141e-07
3.93139e-07
3.93143e-07
3.9314e-07
3.9314e-07
5.77383e-07
1.19162e-06
3.95827e-07
4.03755e-07
5.77474e-07
1.19107e-06
3.95827e-07
2.46739e-05
2.46684e-05
5.77377e-07
3.95826e-07
1.19156e-06
4.03758e-07
5.77468e-07
3.95826e-07
1.19113e-06
2.42347e-06
2.42397e-06
4.19916e-07
2.4232e-06
2.42371e-06
1.4523e-06
7.45452e-06
1.45266e-06
7.45408e-06
2.46639e-05
2.46624e-05
1.45216e-06
7.45556e-06
1.45249e-06
7.45509e-06
3.93143e-07
3.9314e-07
3.9314e-07
3.93135e-07
3.93137e-07
3.93136e-07
3.93135e-07
5.77337e-07
1.19141e-06
3.95825e-07
4.03759e-07
5.77446e-07
1.19096e-06
3.95825e-07
2.46661e-05
2.46643e-05
5.77328e-07
3.95823e-07
1.19139e-06
4.0376e-07
5.77439e-07
3.95825e-07
1.19095e-06
2.42365e-06
2.42415e-06
4.19926e-07
2.42333e-06
2.42384e-06
1.45262e-06
7.45446e-06
1.45266e-06
7.45521e-06
2.46656e-05
2.46743e-05
1.45248e-06
7.45556e-06
1.45247e-06
7.45625e-06
3.93132e-07
3.93132e-07
3.93131e-07
3.93024e-07
3.93012e-07
3.93024e-07
3.93023e-07
5.77375e-07
1.19156e-06
3.95817e-07
4.03728e-07
5.77447e-07
1.19138e-06
3.95806e-07
2.46654e-05
2.46693e-05
5.77366e-07
3.95817e-07
1.19139e-06
4.03744e-07
5.77439e-07
3.95807e-07
1.19117e-06
2.42367e-06
2.42417e-06
4.19921e-07
2.42382e-06
2.42432e-06
1.45315e-06
7.46018e-06
1.45349e-06
7.45981e-06
2.46777e-05
2.46771e-05
1.45302e-06
7.46126e-06
1.45331e-06
7.46084e-06
3.92964e-07
3.92972e-07
3.92971e-07
3.92913e-07
3.92913e-07
3.92914e-07
3.92913e-07
5.77404e-07
1.19199e-06
3.95659e-07
4.03575e-07
5.77505e-07
1.19152e-06
3.95632e-07
2.46793e-05
2.46784e-05
5.77396e-07
3.95663e-07
1.1919e-06
4.03589e-07
5.77498e-07
3.95635e-07
1.19149e-06
2.42476e-06
2.42527e-06
4.19793e-07
2.42434e-06
2.42485e-06
1.45315e-06
7.46008e-06
1.4535e-06
7.45975e-06
2.46776e-05
2.46772e-05
1.45301e-06
7.46116e-06
1.45332e-06
7.46078e-06
3.92915e-07
3.92916e-07
3.92915e-07
3.92911e-07
3.92912e-07
3.92913e-07
3.92912e-07
5.774e-07
1.19197e-06
3.95608e-07
4.03565e-07
5.775e-07
1.19152e-06
3.95611e-07
2.46789e-05
2.46782e-05
5.7739e-07
3.95608e-07
1.19191e-06
4.03568e-07
5.77493e-07
3.95611e-07
1.19148e-06
2.42467e-06
2.42517e-06
4.19784e-07
2.42432e-06
2.42483e-06
1.45315e-06
7.46007e-06
1.45351e-06
7.45975e-06
2.46777e-05
2.46761e-05
1.45301e-06
7.46115e-06
1.45332e-06
7.46078e-06
3.92915e-07
3.92915e-07
3.92915e-07
3.92911e-07
3.92912e-07
3.92913e-07
3.92912e-07
5.77402e-07
1.19197e-06
3.95607e-07
4.03563e-07
5.77502e-07
1.19152e-06
3.9561e-07
2.46789e-05
2.46781e-05
5.77392e-07
3.95608e-07
1.19191e-06
4.03567e-07
5.77494e-07
3.9561e-07
1.19148e-06
2.42467e-06
2.42517e-06
4.19781e-07
2.42432e-06
2.42483e-06
1.45315e-06
7.45999e-06
1.45351e-06
7.45968e-06
2.46767e-05
2.46767e-05
1.45301e-06
7.46115e-06
1.45332e-06
7.46078e-06
3.92914e-07
3.92915e-07
3.92915e-07
3.92911e-07
3.92912e-07
3.92913e-07
3.92912e-07
5.77401e-07
1.19197e-06
3.95607e-07
4.03563e-07
5.77501e-07
1.19152e-06
3.95609e-07
2.46789e-05
2.46782e-05
5.77392e-07
3.95608e-07
1.19191e-06
4.03567e-07
5.77493e-07
3.95611e-07
1.19148e-06
2.42467e-06
2.42517e-06
4.19784e-07
2.42432e-06
2.42483e-06
1.45315e-06
7.46005e-06
1.4535e-06
7.45976e-06
2.46776e-05
2.46772e-05
1.45301e-06
7.46116e-06
1.45332e-06
7.46078e-06
3.92915e-07
3.92915e-07
3.92915e-07
3.92911e-07
3.92912e-07
3.92913e-07
3.92912e-07
5.77401e-07
1.19197e-06
3.95607e-07
4.03563e-07
5.77501e-07
1.19152e-06
3.95609e-07
2.46789e-05
2.46782e-05
5.77392e-07
3.95608e-07
1.19191e-06
4.03567e-07
5.77492e-07
3.9561e-07
1.19148e-06
2.42467e-06
2.42517e-06
4.19784e-07
2.42432e-06
2.42483e-06
1.45315e-06
7.46009e-06
1.45351e-06
7.45979e-06
2.46774e-05
2.46765e-05
1.45301e-06
7.46112e-06
1.45332e-06
7.46083e-06
3.92914e-07
3.92915e-07
3.92915e-07
3.92911e-07
3.92912e-07
3.92913e-07
3.92912e-07
5.77402e-07
1.19197e-06
3.95607e-07
4.03563e-07
5.77501e-07
1.19152e-06
3.9561e-07
2.46789e-05
2.46782e-05
5.77392e-07
3.95608e-07
1.19191e-06
4.03567e-07
5.77493e-07
3.9561e-07
1.19148e-06
2.42467e-06
2.42517e-06
4.19784e-07
2.42432e-06
2.42483e-06
1.45315e-06
7.46007e-06
1.45351e-06
7.45968e-06
2.4677e-05
2.46764e-05
1.45301e-06
7.4612e-06
1.45332e-06
7.4609e-06
3.92914e-07
3.92915e-07
3.92915e-07
3.92911e-07
3.92912e-07
3.92913e-07
3.92912e-07
5.77401e-07
1.19197e-06
3.95607e-07
4.03563e-07
5.77501e-07
1.19152e-06
3.9561e-07
2.46789e-05
2.46782e-05
5.77392e-07
3.95608e-07
1.19191e-06
4.03567e-07
5.77493e-07
3.9561e-07
1.19148e-06
2.42467e-06
2.42517e-06
4.19784e-07
2.42432e-06
2.42483e-06
1.45315e-06
7.45999e-06
1.45351e-06
7.45962e-06
2.46769e-05
2.46764e-05
1.45301e-06
7.46127e-06
1.45332e-06
7.46093e-06
3.92914e-07
3.92915e-07
3.92915e-07
3.92911e-07
3.92912e-07
3.92913e-07
3.92912e-07
5.77401e-07
1.19197e-06
3.95607e-07
4.03563e-07
5.77501e-07
1.19152e-06
3.9561e-07
2.46789e-05
2.46782e-05
5.77393e-07
3.95608e-07
1.19191e-06
4.03567e-07
5.77492e-07
3.9561e-07
1.19148e-06
2.42467e-06
2.42517e-06
4.19784e-07
2.42432e-06
2.42483e-06
1.45315e-06
7.45998e-06
1.4535e-06
7.45962e-06
2.46769e-05
2.46764e-05
1.45301e-06
7.46129e-06
1.45332e-06
7.46094e-06
3.92914e-07
3.92915e-07
3.92915e-07
3.92911e-07
3.92912e-07
3.92913e-07
3.92912e-07
5.77401e-07
1.19197e-06
3.95607e-07
4.03563e-07
5.77501e-07
1.19152e-06
3.9561e-07
2.46789e-05
2.46782e-05
5.77392e-07
3.95608e-07
1.19191e-06
4.03567e-07
5.77492e-07
3.9561e-07
1.19148e-06
2.42467e-06
2.42517e-06
4.19784e-07
2.42432e-06
2.42483e-06
1.45315e-06
7.45997e-06
1.4535e-06
7.45961e-06
2.46769e-05
2.46764e-05
1.45301e-06
7.4613e-06
1.45332e-06
7.46095e-06
3.92915e-07
3.92915e-07
3.92915e-07
3.92911e-07
3.92912e-07
3.92913e-07
3.92912e-07
5.77401e-07
1.19197e-06
3.95607e-07
4.03563e-07
5.77501e-07
1.19152e-06
3.9561e-07
2.46789e-05
2.46782e-05
5.77393e-07
3.95608e-07
1.19191e-06
4.03567e-07
5.77492e-07
3.9561e-07
1.19148e-06
2.42467e-06
2.42517e-06
4.19784e-07
2.42432e-06
2.42483e-06
1.45315e-06
7.45997e-06
1.45351e-06
7.45961e-06
2.46769e-05
2.46764e-05
1.45301e-06
7.4613e-06
1.45332e-06
7.46095e-06
3.92915e-07
3.92915e-07
3.92915e-07
3.92911e-07
3.92912e-07
3.92913e-07
3.92912e-07
5.77401e-07
1.19197e-06
3.95607e-07
4.03563e-07
5.77501e-07
1.19152e-06
3.9561e-07
2.46789e-05
2.46782e-05
5.77393e-07
3.95608e-07
1.19191e-06
4.03567e-07
5.77493e-07
3.9561e-07
1.19148e-06
2.42467e-06
2.42517e-06
4.19784e-07
2.42432e-06
2.42483e-06
1.45315e-06
7.45997e-06
1.45351e-06
7.45962e-06
2.46769e-05
2.46764e-05
1.45301e-06
7.4613e-06
1.45332e-06
7.46095e-06
3.92915e-07
3.92915e-07
3.92915e-07
3.92911e-07
3.92912e-07
3.92913e-07
3.92912e-07
5.77401e-07
1.19197e-06
3.95607e-07
4.03563e-07
5.77501e-07
1.19152e-06
3.9561e-07
2.46789e-05
2.46782e-05
5.77394e-07
3.95608e-07
1.19191e-06
4.03567e-07
5.77493e-07
3.9561e-07
1.19148e-06
2.42467e-06
2.42517e-06
4.19784e-07
2.42432e-06
2.42483e-06
1.45315e-06
7.45997e-06
1.45351e-06
7.45961e-06
2.46769e-05
2.46764e-05
1.45301e-06
7.4613e-06
1.45332e-06
7.46095e-06
3.92915e-07
3.92915e-07
3.92915e-07
3.92911e-07
3.92912e-07
3.92913e-07
3.92912e-07
5.77401e-07
1.19197e-06
3.95607e-07
4.03563e-07
5.77501e-07
1.19152e-06
3.9561e-07
2.46789e-05
2.46781e-05
5.77394e-07
3.95608e-07
1.19191e-06
4.03567e-07
5.77494e-07
3.9561e-07
1.19149e-06
2.42467e-06
2.42517e-06
4.19784e-07
2.42432e-06
2.42483e-06
1.45315e-06
7.45997e-06
1.45351e-06
7.45961e-06
2.46769e-05
2.46764e-05
1.45301e-06
7.4613e-06
1.45332e-06
7.46095e-06
3.92915e-07
3.92915e-07
3.92915e-07
3.92911e-07
3.92912e-07
3.92913e-07
3.92912e-07
5.77401e-07
1.19197e-06
3.95607e-07
4.03563e-07
5.77501e-07
1.19152e-06
3.9561e-07
2.46789e-05
2.46781e-05
5.77394e-07
3.95608e-07
1.19191e-06
4.03567e-07
5.77494e-07
3.9561e-07
1.19148e-06
2.42467e-06
2.42517e-06
4.19784e-07
2.42432e-06
2.42483e-06
1.45329e-06
7.45997e-06
1.45351e-06
7.45966e-06
2.46769e-05
2.46764e-05
1.45318e-06
7.4613e-06
1.45332e-06
7.46101e-06
3.92913e-07
3.92914e-07
3.92914e-07
5.77401e-07
1.19197e-06
3.95607e-07
4.03562e-07
5.77501e-07
1.19152e-06
3.9561e-07
2.46789e-05
2.46783e-05
5.77398e-07
3.95608e-07
1.19191e-06
4.03568e-07
5.77494e-07
3.95611e-07
1.19155e-06
2.42467e-06
2.42516e-06
4.19784e-07
2.42432e-06
2.425e-06
7.45487e-06
1.19113e-06
2.46691e-05
2.4234e-06
2.423e-06
2.4666e-05
1.19112e-06
7.45464e-06
2.46705e-05
2.46656e-05
2.46736e-05
2.46687e-05
2.42334e-06
2.42389e-06
4.19912e-07
2.42309e-06
2.42363e-06
2.46629e-05
2.46654e-05
2.4666e-05
2.46686e-05
4.20056e-07
2.42319e-06
2.42372e-06
2.42339e-06
2.42391e-06
1.45233e-06
7.45501e-06
1.45297e-06
7.45471e-06
5.77384e-07
1.19147e-06
3.95825e-07
4.03762e-07
5.77479e-07
1.19106e-06
3.95825e-07
5.77374e-07
1.19159e-06
3.95827e-07
4.03764e-07
5.77474e-07
1.1911e-06
3.95827e-07
1.45263e-06
7.45424e-06
7.45448e-06
1.45232e-06
1.45262e-06
7.45449e-06
7.45475e-06
1.45232e-06
5.77485e-07
4.03761e-07
1.19093e-06
3.95823e-07
1.19142e-06
3.95823e-07
5.77359e-07
5.77478e-07
4.03762e-07
1.19101e-06
3.95825e-07
1.19147e-06
3.95826e-07
5.77355e-07
2.4238e-06
2.4235e-06
4.19917e-07
2.42365e-06
2.42331e-06
2.4666e-05
2.46626e-05
2.46636e-05
2.46655e-05
4.20061e-07
2.42373e-06
2.42341e-06
2.42397e-06
2.42372e-06
2.46604e-05
2.46627e-05
5.77382e-07
1.19176e-06
3.95825e-07
4.03756e-07
5.77471e-07
1.19134e-06
3.95825e-07
1.45223e-06
7.45627e-06
1.45281e-06
7.4558e-06
5.77387e-07
3.95826e-07
1.19184e-06
4.03769e-07
5.77477e-07
3.95826e-07
1.19142e-06
1.45248e-06
7.45524e-06
7.45554e-06
1.4522e-06
5.77483e-07
4.03755e-07
1.19118e-06
3.95823e-07
1.19171e-06
3.95823e-07
5.77352e-07
1.45248e-06
7.45555e-06
7.45587e-06
1.45221e-06
5.77489e-07
4.03767e-07
3.95825e-07
1.19126e-06
3.95825e-07
1.19179e-06
5.77357e-07
1.45235e-06
7.45479e-06
1.45299e-06
7.45446e-06
5.77387e-07
3.95825e-07
1.19154e-06
4.03763e-07
5.77477e-07
3.95825e-07
1.19112e-06
1.45235e-06
7.45585e-06
1.45299e-06
7.45543e-06
5.77485e-07
4.03755e-07
1.19097e-06
3.95825e-07
1.19145e-06
3.95826e-07
5.77354e-07
1.45264e-06
7.45423e-06
7.45454e-06
1.45233e-06
5.77487e-07
4.03762e-07
3.95824e-07
1.19099e-06
3.95824e-07
1.19148e-06
5.77357e-07
1.45264e-06
7.45517e-06
7.45547e-06
1.45234e-06
2.42431e-06
2.42345e-06
4.19918e-07
2.42396e-06
2.42318e-06
2.46725e-05
2.46676e-05
2.46657e-05
2.46684e-05
4.20062e-07
2.42413e-06
2.42328e-06
2.42437e-06
2.42348e-06
2.46648e-05
2.46674e-05
5.77373e-07
3.95825e-07
1.19165e-06
4.03756e-07
5.77465e-07
3.95825e-07
1.19122e-06
1.45222e-06
7.45599e-06
1.4528e-06
7.45557e-06
1.45222e-06
7.45624e-06
1.4528e-06
7.45582e-06
5.77479e-07
4.03756e-07
3.95823e-07
1.19099e-06
3.95824e-07
1.19148e-06
5.77347e-07
5.77475e-07
4.03755e-07
3.95823e-07
1.19109e-06
3.95823e-07
1.19159e-06
5.77343e-07
1.45247e-06
7.45531e-06
7.4556e-06
1.45219e-06
1.45246e-06
7.45556e-06
7.45586e-06
1.45219e-06
2.46727e-05
2.46678e-05
2.4674e-05
2.46691e-05
4.2006e-07
2.42331e-06
2.42382e-06
2.4235e-06
2.42401e-06
2.46651e-05
2.46676e-05
2.46664e-05
2.46689e-05
2.46629e-05
2.46615e-05
2.4666e-05
2.46647e-05
2.42345e-06
2.42397e-06
4.19921e-07
2.42322e-06
2.42375e-06
2.46612e-05
2.46616e-05
2.46644e-05
2.46648e-05
4.20065e-07
2.42318e-06
2.4237e-06
2.42348e-06
2.424e-06
1.45231e-06
7.45455e-06
1.45261e-06
7.4544e-06
5.77339e-07
1.19131e-06
3.95826e-07
4.03765e-07
5.7745e-07
1.19089e-06
3.95825e-07
5.77337e-07
1.1914e-06
3.95825e-07
4.03767e-07
5.77448e-07
1.19099e-06
3.95825e-07
1.4526e-06
7.45406e-06
7.45414e-06
1.45229e-06
1.45261e-06
7.45464e-06
7.45447e-06
1.45231e-06
5.77436e-07
4.03763e-07
1.19088e-06
3.9582e-07
1.19128e-06
3.95822e-07
5.77344e-07
5.77436e-07
4.03765e-07
1.19106e-06
3.95821e-07
1.19138e-06
3.95822e-07
5.77345e-07
2.42401e-06
2.42378e-06
4.19923e-07
2.42372e-06
2.42344e-06
2.46607e-05
2.46595e-05
2.46635e-05
2.46627e-05
4.20066e-07
2.4238e-06
2.42345e-06
2.42394e-06
2.42378e-06
2.46606e-05
2.46601e-05
5.77335e-07
1.19158e-06
3.95827e-07
4.0376e-07
5.77442e-07
1.19114e-06
3.95827e-07
1.45219e-06
7.45563e-06
1.45246e-06
7.45541e-06
5.7734e-07
3.95826e-07
1.19166e-06
4.03772e-07
5.77448e-07
3.95825e-07
1.19122e-06
1.45242e-06
7.4551e-06
7.45521e-06
1.45215e-06
5.77431e-07
4.03758e-07
1.19114e-06
3.95822e-07
1.19156e-06
3.95823e-07
5.77338e-07
1.45244e-06
7.45545e-06
7.45552e-06
1.45217e-06
5.77438e-07
4.0377e-07
3.95821e-07
1.19123e-06
3.95822e-07
1.19164e-06
5.77345e-07
1.45233e-06
7.45432e-06
1.45263e-06
7.45413e-06
5.77341e-07
3.95824e-07
1.19136e-06
4.03766e-07
5.77447e-07
3.95823e-07
1.19095e-06
1.45233e-06
7.45521e-06
1.45263e-06
7.45503e-06
5.77434e-07
4.03758e-07
1.19103e-06
3.95821e-07
1.19137e-06
3.95823e-07
5.77342e-07
1.45263e-06
7.45448e-06
7.45425e-06
1.45232e-06
5.77438e-07
4.03765e-07
3.9582e-07
1.19095e-06
3.95821e-07
1.19134e-06
5.77346e-07
1.45263e-06
7.45504e-06
7.4551e-06
1.45232e-06
2.42448e-06
2.42355e-06
4.19927e-07
2.42417e-06
2.42331e-06
2.46648e-05
2.46635e-05
2.46641e-05
2.46647e-05
4.2007e-07
2.42414e-06
2.42327e-06
2.42452e-06
2.42357e-06
2.46632e-05
2.46636e-05
5.77325e-07
3.95825e-07
1.19147e-06
4.03759e-07
5.77434e-07
3.95824e-07
1.19105e-06
1.45217e-06
7.45535e-06
1.45244e-06
7.45516e-06
1.45217e-06
7.4556e-06
1.45244e-06
7.45542e-06
5.77426e-07
4.03759e-07
3.95821e-07
1.19095e-06
3.95823e-07
1.19133e-06
5.77333e-07
5.77424e-07
4.03758e-07
3.9582e-07
1.19106e-06
3.95821e-07
1.19145e-06
5.7733e-07
1.45243e-06
7.45517e-06
7.45523e-06
1.45216e-06
1.45243e-06
7.45544e-06
7.45549e-06
1.45216e-06
2.46651e-05
2.46637e-05
2.46664e-05
2.4665e-05
4.20069e-07
2.42329e-06
2.4238e-06
2.4236e-06
2.4241e-06
2.46634e-05
2.46639e-05
2.46647e-05
2.46652e-05
2.46618e-05
2.46659e-05
2.46649e-05
2.46692e-05
2.42348e-06
2.424e-06
4.19917e-07
2.4237e-06
2.42425e-06
2.46754e-05
2.46708e-05
2.46786e-05
2.46741e-05
4.20055e-07
2.42432e-06
2.42486e-06
2.42425e-06
2.42479e-06
1.4526e-06
7.45497e-06
1.45263e-06
7.45785e-06
5.77379e-07
1.19131e-06
3.95817e-07
4.03749e-07
5.77447e-07
1.19111e-06
3.95807e-07
5.77377e-07
1.19153e-06
3.95817e-07
4.03734e-07
5.77448e-07
1.19139e-06
3.95805e-07
1.45311e-06
7.4597e-06
7.45674e-06
1.45311e-06
1.4531e-06
7.46047e-06
7.45982e-06
1.4531e-06
5.77495e-07
4.03719e-07
1.19139e-06
3.95714e-07
1.19162e-06
3.95774e-07
5.77409e-07
5.77492e-07
4.03685e-07
1.19154e-06
3.95709e-07
1.19188e-06
3.95768e-07
5.77406e-07
2.42428e-06
2.42404e-06
4.19903e-07
2.42467e-06
2.42435e-06
2.46628e-05
2.46707e-05
2.46771e-05
2.46771e-05
4.20029e-07
2.42485e-06
2.42462e-06
2.42514e-06
2.42502e-06
2.46746e-05
2.46745e-05
5.77374e-07
1.1916e-06
3.95817e-07
4.03743e-07
5.77438e-07
1.19138e-06
3.95807e-07
1.45248e-06
7.45563e-06
1.45245e-06
7.4565e-06
5.77378e-07
3.95818e-07
1.19168e-06
4.03755e-07
5.77446e-07
3.95808e-07
1.19145e-06
1.45294e-06
7.46066e-06
7.45784e-06
1.45297e-06
5.77489e-07
4.03714e-07
1.19166e-06
3.95715e-07
1.19191e-06
3.95775e-07
5.77406e-07
1.45293e-06
7.461e-06
7.458e-06
1.45298e-06
5.77494e-07
4.03725e-07
3.95716e-07
1.19174e-06
3.95776e-07
1.19198e-06
5.77411e-07
1.45261e-06
7.45501e-06
1.45264e-06
7.45768e-06
5.77378e-07
3.95817e-07
1.19137e-06
4.0375e-07
5.77446e-07
3.95807e-07
1.19117e-06
1.45261e-06
7.45518e-06
1.45264e-06
7.45604e-06
5.77489e-07
4.03677e-07
1.19154e-06
3.9571e-07
1.19189e-06
3.95768e-07
5.77406e-07
1.45311e-06
7.46028e-06
7.45957e-06
1.45312e-06
5.77492e-07
4.0372e-07
3.95714e-07
1.19146e-06
3.95774e-07
1.19167e-06
5.7741e-07
1.45311e-06
7.4606e-06
7.45748e-06
1.45312e-06
2.42453e-06
2.42357e-06
4.19923e-07
2.42463e-06
2.4238e-06
2.46637e-05
2.46679e-05
2.46785e-05
2.46743e-05
4.20059e-07
2.42536e-06
2.42441e-06
2.42536e-06
2.42435e-06
2.46774e-05
2.46728e-05
5.77363e-07
3.95816e-07
1.19148e-06
4.03743e-07
5.77431e-07
3.95806e-07
1.19127e-06
1.45246e-06
7.4553e-06
1.45244e-06
7.45619e-06
1.45246e-06
7.45558e-06
1.45244e-06
7.45645e-06
5.77482e-07
4.03714e-07
3.95716e-07
1.19145e-06
3.95774e-07
1.19167e-06
5.77397e-07
5.77479e-07
4.03713e-07
3.95715e-07
1.19156e-06
3.95775e-07
1.19178e-06
5.77394e-07
1.45292e-06
7.46075e-06
7.45766e-06
1.45297e-06
1.45292e-06
7.46101e-06
7.4579e-06
1.45296e-06
2.4664e-05
2.46682e-05
2.46653e-05
2.46694e-05
4.20058e-07
2.42442e-06
2.42493e-06
2.42437e-06
2.42487e-06
2.46777e-05
2.46731e-05
2.4679e-05
2.46742e-05
2.46758e-05
2.46753e-05
2.4679e-05
2.46785e-05
2.42459e-06
2.42511e-06
4.19791e-07
2.42425e-06
2.42478e-06
2.46751e-05
2.46756e-05
2.46784e-05
2.46788e-05
4.19926e-07
2.42421e-06
2.42475e-06
2.42451e-06
2.42503e-06
1.45315e-06
7.46052e-06
1.45345e-06
7.46038e-06
5.77406e-07
1.19181e-06
3.95665e-07
4.03595e-07
5.77506e-07
1.19141e-06
3.95635e-07
5.77405e-07
1.19195e-06
3.95661e-07
4.03585e-07
5.77504e-07
1.19154e-06
3.95632e-07
1.45346e-06
7.45976e-06
7.45987e-06
1.45315e-06
1.45346e-06
7.46034e-06
7.46045e-06
1.45315e-06
5.77504e-07
4.03576e-07
1.19141e-06
3.95609e-07
1.19182e-06
3.95614e-07
5.77406e-07
5.77504e-07
4.03573e-07
1.19154e-06
3.95609e-07
1.19195e-06
3.95613e-07
5.77403e-07
2.42511e-06
2.42497e-06
4.19775e-07
2.42478e-06
2.42447e-06
2.4675e-05
2.46742e-05
2.4677e-05
2.46774e-05
4.19913e-07
2.42472e-06
2.42445e-06
2.42503e-06
2.42483e-06
2.46741e-05
2.46747e-05
5.77404e-07
1.1921e-06
3.95665e-07
4.03589e-07
5.77502e-07
1.19168e-06
3.95635e-07
1.45304e-06
7.46155e-06
1.45329e-06
7.46129e-06
5.7741e-07
3.95666e-07
1.19219e-06
4.03601e-07
5.77507e-07
3.95636e-07
1.19177e-06
1.45328e-06
7.46081e-06
7.46095e-06
1.45302e-06
5.775e-07
4.0357e-07
1.19168e-06
3.95609e-07
1.19211e-06
3.95615e-07
5.774e-07
1.45331e-06
7.4612e-06
7.46138e-06
1.45304e-06
5.77507e-07
4.03582e-07
3.9561e-07
1.19176e-06
3.95615e-07
1.19219e-06
5.77407e-07
1.45317e-06
7.46036e-06
1.45347e-06
7.46014e-06
5.77408e-07
3.95664e-07
1.19188e-06
4.03595e-07
5.77505e-07
3.95634e-07
1.19149e-06
1.45317e-06
7.46108e-06
1.45347e-06
7.46087e-06
5.775e-07
4.03564e-07
1.19152e-06
3.95608e-07
1.19194e-06
3.95614e-07
5.77402e-07
1.45348e-06
7.46009e-06
7.46024e-06
1.45317e-06
5.77504e-07
4.03576e-07
3.95609e-07
1.19149e-06
3.95614e-07
1.19189e-06
5.77407e-07
1.45348e-06
7.46081e-06
7.46093e-06
1.45317e-06
2.4257e-06
2.42468e-06
4.19797e-07
2.42522e-06
2.42434e-06
2.46778e-05
2.46773e-05
2.46782e-05
2.46788e-05
4.1993e-07
2.42517e-06
2.42431e-06
2.42555e-06
2.4246e-06
2.46771e-05
2.46776e-05
5.77393e-07
3.95665e-07
1.19199e-06
4.03588e-07
5.77492e-07
3.95635e-07
1.19159e-06
1.45303e-06
7.46121e-06
1.45327e-06
7.46101e-06
1.45302e-06
7.46147e-06
1.45327e-06
7.46127e-06
5.77494e-07
4.03572e-07
3.95609e-07
1.19149e-06
3.95616e-07
1.19188e-06
5.77394e-07
5.77491e-07
4.0357e-07
3.95609e-07
1.19159e-06
3.95614e-07
1.192e-06
5.77391e-07
1.45329e-06
7.46094e-06
7.46106e-06
1.45302e-06
1.45329e-06
7.4612e-06
7.46132e-06
1.45302e-06
2.46781e-05
2.46776e-05
2.46794e-05
2.46789e-05
4.19927e-07
2.42432e-06
2.42483e-06
2.42461e-06
2.42511e-06
2.46774e-05
2.46778e-05
2.46787e-05
2.46791e-05
2.46755e-05
2.46751e-05
2.46787e-05
2.46784e-05
2.42448e-06
2.42501e-06
4.1978e-07
2.42421e-06
2.42475e-06
2.46751e-05
2.46754e-05
2.46783e-05
2.46786e-05
4.19927e-07
2.42419e-06
2.42474e-06
2.42447e-06
2.42501e-06
1.45314e-06
7.46042e-06
1.45346e-06
7.46033e-06
5.77401e-07
1.19181e-06
3.95611e-07
4.03573e-07
5.77502e-07
1.19141e-06
3.95611e-07
5.77398e-07
1.19194e-06
3.95611e-07
4.03573e-07
5.775e-07
1.19153e-06
3.95611e-07
1.45346e-06
7.45975e-06
7.45983e-06
1.45315e-06
1.45345e-06
7.46033e-06
7.46041e-06
1.45315e-06
5.77499e-07
4.03572e-07
1.19141e-06
3.95609e-07
1.19182e-06
3.95609e-07
5.77406e-07
5.77497e-07
4.03571e-07
1.19153e-06
3.95608e-07
1.19194e-06
3.95609e-07
5.77404e-07
2.42499e-06
2.42482e-06
4.19781e-07
2.4247e-06
2.42446e-06
2.46746e-05
2.46741e-05
2.46771e-05
2.46775e-05
4.19926e-07
2.42469e-06
2.42447e-06
2.42497e-06
2.42482e-06
2.46741e-05
2.46746e-05
5.77396e-07
1.19211e-06
3.95611e-07
4.03567e-07
5.77496e-07
1.19168e-06
3.95611e-07
1.45303e-06
7.4613e-06
1.4533e-06
7.46117e-06
5.77402e-07
3.95612e-07
1.19219e-06
4.03579e-07
5.77502e-07
3.95612e-07
1.19176e-06
1.45328e-06
7.46079e-06
7.46091e-06
1.45301e-06
5.77493e-07
4.03565e-07
1.19168e-06
3.95608e-07
1.1921e-06
3.95609e-07
5.77401e-07
1.45329e-06
7.46116e-06
7.46128e-06
1.45303e-06
5.77499e-07
4.03577e-07
3.9561e-07
1.19176e-06
3.95611e-07
1.19219e-06
5.77407e-07
1.45316e-06
7.4602e-06
1.45347e-06
7.46008e-06
5.77404e-07
3.95611e-07
1.19189e-06
4.03573e-07
5.77502e-07
3.95611e-07
1.19149e-06
1.45316e-06
7.46087e-06
1.45347e-06
7.46078e-06
5.77496e-07
4.03564e-07
1.19152e-06
3.95608e-07
1.19194e-06
3.9561e-07
5.77402e-07
1.45347e-06
7.46007e-06
7.46018e-06
1.45316e-06
5.775e-07
4.03571e-07
3.95609e-07
1.19149e-06
3.95609e-07
1.19189e-06
5.77407e-07
1.45347e-06
7.46077e-06
7.46085e-06
1.45316e-06
2.42553e-06
2.42458e-06
4.19786e-07
2.42517e-06
2.42431e-06
2.46775e-05
2.46771e-05
2.46781e-05
2.46787e-05
4.19932e-07
2.42517e-06
2.4243e-06
2.42553e-06
2.42458e-06
2.46771e-05
2.46774e-05
5.77386e-07
3.95611e-07
1.19199e-06
4.03566e-07
5.77488e-07
3.95611e-07
1.19159e-06
1.45301e-06
7.46101e-06
1.45328e-06
7.46091e-06
1.45301e-06
7.46127e-06
1.45328e-06
7.46117e-06
5.77488e-07
4.03568e-07
3.95608e-07
1.19148e-06
3.95611e-07
1.19188e-06
5.77393e-07
5.77485e-07
4.03565e-07
3.95608e-07
1.19159e-06
3.95609e-07
1.19199e-06
5.7739e-07
1.45328e-06
7.4609e-06
7.46098e-06
1.45301e-06
1.45327e-06
7.46116e-06
7.46124e-06
1.45301e-06
2.46777e-05
2.46774e-05
2.4679e-05
2.46786e-05
4.1993e-07
2.42432e-06
2.42483e-06
2.4246e-06
2.4251e-06
2.46773e-05
2.46777e-05
2.46786e-05
2.4679e-05
2.46754e-05
2.46751e-05
2.46786e-05
2.46783e-05
2.42446e-06
2.425e-06
4.19779e-07
2.42418e-06
2.42475e-06
2.46751e-05
2.46754e-05
2.46783e-05
2.46786e-05
4.19922e-07
2.42418e-06
2.42474e-06
2.42445e-06
2.42501e-06
1.45315e-06
7.46041e-06
1.45346e-06
7.46019e-06
5.77403e-07
1.19182e-06
3.95611e-07
4.03573e-07
5.77505e-07
1.19141e-06
3.95611e-07
5.77401e-07
1.19194e-06
3.95611e-07
4.03573e-07
5.77503e-07
1.19156e-06
3.95611e-07
1.45346e-06
7.4597e-06
7.45983e-06
1.45315e-06
1.45346e-06
7.46012e-06
7.46029e-06
1.45315e-06
5.775e-07
4.03571e-07
1.19141e-06
3.95608e-07
1.19182e-06
3.95609e-07
5.77404e-07
5.77499e-07
4.0357e-07
1.19161e-06
3.95608e-07
1.192e-06
3.95608e-07
5.77401e-07
2.42496e-06
2.42483e-06
4.19775e-07
2.42481e-06
2.42447e-06
2.46746e-05
2.46741e-05
2.46758e-05
2.46766e-05
4.19919e-07
2.42494e-06
2.42447e-06
2.4252e-06
2.42483e-06
2.46741e-05
2.46746e-05
5.77399e-07
1.19211e-06
3.95611e-07
4.03567e-07
5.77498e-07
1.19168e-06
3.95611e-07
1.45303e-06
7.46127e-06
1.45329e-06
7.46117e-06
5.77405e-07
3.95612e-07
1.19219e-06
4.03579e-07
5.77505e-07
3.95612e-07
1.19176e-06
1.45328e-06
7.46079e-06
7.46091e-06
1.45301e-06
5.77495e-07
4.03565e-07
1.19168e-06
3.95608e-07
1.1921e-06
3.95608e-07
5.77398e-07
1.45329e-06
7.46116e-06
7.46127e-06
1.45303e-06
5.77501e-07
4.03577e-07
3.95609e-07
1.19176e-06
3.9561e-07
1.19219e-06
5.77404e-07
1.45316e-06
7.46018e-06
1.45347e-06
7.46008e-06
5.77406e-07
3.95611e-07
1.19189e-06
4.03573e-07
5.77503e-07
3.95611e-07
1.19149e-06
1.45316e-06
7.46085e-06
1.45347e-06
7.46077e-06
5.77498e-07
4.03563e-07
1.19152e-06
3.95607e-07
1.19194e-06
3.95609e-07
5.77401e-07
1.45347e-06
7.46008e-06
7.46019e-06
1.45317e-06
5.77501e-07
4.03571e-07
3.95608e-07
1.19149e-06
3.95608e-07
1.19189e-06
5.77406e-07
1.45347e-06
7.46077e-06
7.46085e-06
1.45317e-06
2.42552e-06
2.42458e-06
4.19785e-07
2.42517e-06
2.42431e-06
2.46774e-05
2.46771e-05
2.46781e-05
2.46787e-05
4.19928e-07
2.42517e-06
2.4243e-06
2.42553e-06
2.42458e-06
2.46771e-05
2.46774e-05
5.77389e-07
3.95611e-07
1.19199e-06
4.03567e-07
5.77489e-07
3.95611e-07
1.19159e-06
1.45301e-06
7.46098e-06
1.45327e-06
7.4609e-06
1.45301e-06
7.46124e-06
1.45327e-06
7.46116e-06
5.77489e-07
4.03567e-07
3.95608e-07
1.19148e-06
3.9561e-07
1.19188e-06
5.77392e-07
5.77486e-07
4.03564e-07
3.95608e-07
1.19159e-06
3.95608e-07
1.19199e-06
5.77388e-07
1.45327e-06
7.4609e-06
7.46098e-06
1.45301e-06
1.45327e-06
7.46116e-06
7.46124e-06
1.45301e-06
2.46777e-05
2.46773e-05
2.4679e-05
2.46786e-05
4.19925e-07
2.42432e-06
2.42483e-06
2.4246e-06
2.4251e-06
2.46773e-05
2.46777e-05
2.46786e-05
2.4679e-05
2.46754e-05
2.46756e-05
2.46786e-05
2.46783e-05
2.42446e-06
2.425e-06
4.19781e-07
2.42422e-06
2.42474e-06
2.46756e-05