/*--------------------------------*- C++ -*----------------------------------*\
| =========                 |                                                 |
| \\      /  F ield         | OpenFOAM: The Open Source CFD Toolbox           |
|  \\    /   O peration     | Version:  2206                                  |
|   \\  /    A nd           | Website:  www.openfoam.com                      |
|    \\/     M anipulation  |                                                 |
\*---------------------------------------------------------------------------*/
FoamFile
{
    version     2.0;
    format      ascii;
    arch        "LSB;label=32;scalar=64";
    class       surfaceScalarField;
    location    "60";
    object      phi;
}
// * * * * * * * * * * * * * * * * * * * * * * * * * * * * * * * * * * * * * //

dimensions      [0 3 -1 0 0 0 0];

oriented        oriented;

internalField   nonuniform List<scalar> 
82545
(
-9.19121e-09
-9.12955e-09
-1.85576e-09
1.30192e-09
9.41994e-09
9.45465e-09
-1.9992e-08
-1.98652e-08
1.9981e-08
1.98835e-08
1.10978e-07
-1.10985e-07
-9.44183e-09
1.97805e-08
4.36099e-08
3.6373e-08
-8.68772e-09
-1.00519e-08
-9.57512e-09
-2.37028e-09
-9.89514e-09
-1.18773e-08
-1.48221e-09
-3.63818e-08
-9.46266e-09
1.99311e-08
4.3713e-08
3.63402e-08
-8.70469e-09
-1.00696e-08
-9.58805e-09
-2.41195e-09
-9.93167e-09
-1.19115e-08
-1.52383e-09
-3.63803e-08
1.29911e-09
9.41291e-09
9.44e-09
-9.17709e-09
-9.12165e-09
-1.85328e-09
1.85329e-09
-1.03547e-08
-1.02961e-08
1.00323e-08
1.00643e-08
9.41476e-09
9.47037e-09
-9.21091e-09
-9.12004e-09
-1.93261e-09
1.37843e-09
4.37273e-08
3.74269e-08
-8.67586e-09
-1.00195e-08
-9.55859e-09
-2.44275e-09
-9.98924e-09
-1.19753e-08
-1.55347e-09
-3.75167e-08
-9.40309e-09
1.99341e-08
4.34996e-08
3.77504e-08
-8.66949e-09
-1.00108e-08
-9.55687e-09
-2.40657e-09
-9.93943e-09
-1.19307e-08
-1.51588e-09
-3.77513e-08
-9.16693e-09
-9.12507e-09
-1.91536e-09
1.36244e-09
4.35775e-08
3.64719e-08
-8.7165e-09
-1.00833e-08
-9.60793e-09
-2.38141e-09
-9.89056e-09
-1.18769e-08
-1.48994e-09
-3.63977e-08
-9.43476e-09
2.00319e-08
4.36878e-08
3.76611e-08
-8.6962e-09
-1.00412e-08
-9.58183e-09
-2.4361e-09
-9.96493e-09
-1.19522e-08
-1.54701e-09
-3.77266e-08
1.98881e-08
4.36681e-08
3.75973e-08
-8.67362e-09
-1.00208e-08
-9.56018e-09
-2.42126e-09
-9.96019e-09
-1.19468e-08
-1.53255e-09
-3.76251e-08
-9.18803e-09
-9.15443e-09
-1.86772e-09
1.31276e-09
1.9919e-08
4.35213e-08
3.64546e-08
-8.68744e-09
-1.00492e-08
-9.57431e-09
-2.38758e-09
-9.89444e-09
-1.18802e-08
-1.49746e-09
-3.64843e-08
-1.07252e-08
1.54583e-08
-2.26619e-09
-3.05537e-08
2.38636e-08
4.22311e-09
-1.0656e-08
1.53519e-08
-2.26359e-09
-3.09271e-08
2.42352e-08
4.25961e-09
-1.30185e-09
1.85547e-09
-1.03598e-08
-1.02976e-08
1.0034e-08
1.00699e-08
-4.64279e-08
-2.38664e-08
2.07799e-08
3.05556e-08
2.37759e-08
-4.81712e-09
-4.62988e-08
-2.42376e-08
2.06695e-08
3.09286e-08
2.36693e-08
-4.73098e-09
-6.75207e-12
-3.18867e-08
2.0253e-08
1.03331e-08
2.11141e-08
1.59324e-08
1.66001e-11
-1.75443e-08
-2.27619e-08
2.43571e-08
4.1248e-08
3.90922e-08
-7.35013e-08
1.75628e-08
-2.52572e-11
-3.12429e-08
-2.11184e-08
2.63446e-08
6.24411e-09
1.97978e-08
-1.59185e-08
1.07165e-08
-9.73962e-09
1.49416e-08
-4.1138e-08
4.63051e-08
9.72364e-09
-3.18448e-08
4.07608e-12
1.03092e-08
2.02213e-08
2.11775e-08
1.58891e-08
-1.05352e-10
-1.77909e-08
-2.26344e-08
2.46415e-08
4.10957e-08
3.90707e-08
-7.33674e-08
1.77394e-08
-3.12152e-08
2.09773e-11
-2.11892e-08
6.18398e-09
2.63248e-08
1.98746e-08
1.98192e-08
1.99092e-08
1.11136e-07
-1.1115e-07
1.99935e-08
2.00411e-08
1.10841e-07
-1.10913e-07
2.0003e-08
1.98448e-08
1.10836e-07
-1.10877e-07
3.18693e-08
1.60227e-11
-3.67525e-09
-2.80394e-08
1.39273e-08
-4.22204e-09
9.50419e-11
1.04457e-08
-2.49939e-08
4.13787e-09
1.45373e-08
6.41923e-08
-4.98251e-11
-2.00659e-08
1.25463e-08
1.91676e-08
1.93208e-08
1.27099e-08
-6.42113e-08
4.36048e-08
-1.00579e-08
1.97576e-08
-1.47373e-09
-1.18799e-08
-9.88435e-09
-2.37382e-09
-9.43794e-09
-9.58031e-09
-8.6826e-09
4.79118e-09
-3.9063e-08
3.31416e-09
2.49815e-08
2.05074e-08
-5.70316e-11
-2.00766e-08
1.27181e-08
1.93166e-08
1.91754e-08
1.25412e-08
3.12354e-08
1.70721e-11
-1.39261e-08
-4.15248e-09
-2.72679e-08
1.40939e-08
-1.59322e-08
1.07281e-08
-9.74854e-09
1.49527e-08
-4.1144e-08
4.6313e-08
9.73104e-09
-1.6392e-11
3.1826e-08
-2.79902e-08
-3.64721e-09
1.39714e-08
6.37755e-08
1.20231e-10
-1.98845e-08
1.24914e-08
1.91121e-08
1.92662e-08
1.26536e-08
-6.38216e-08
-4.20514e-09
5.47328e-11
1.04802e-08
-2.49187e-08
4.11447e-09
1.44744e-08
4.36978e-08
-1.0067e-08
1.99104e-08
-1.51007e-09
-1.19079e-08
-9.91394e-09
-2.41037e-09
-9.44793e-09
-9.58477e-09
-8.68806e-09
1.26098e-10
-1.98989e-08
1.26675e-08
1.92668e-08
1.91247e-08
1.24916e-08
4.81797e-09
-3.90725e-08
3.28768e-09
2.49053e-08
2.05282e-08
-1.83569e-11
3.11862e-08
-1.39663e-08
-2.7212e-08
-4.12162e-09
1.4132e-08
2.38682e-08
4.22466e-09
-1.07149e-08
1.54471e-08
-2.26942e-09
-3.05557e-08
2.4246e-08
4.25446e-09
-1.06497e-08
1.53453e-08
-2.26053e-09
-3.09355e-08
1.00245e-08
1.00505e-08
1.86402e-09
-1.03416e-08
-1.02862e-08
-4.82081e-09
-4.63888e-08
2.07789e-08
3.05256e-08
2.37533e-08
-4.74635e-09
-4.62665e-08
2.06811e-08
3.09022e-08
2.36503e-08
-9.69828e-09
1.48858e-08
-1.59126e-08
-1.48881e-08
9.69998e-09
-4.12398e-08
-9.81506e-09
1.50248e-08
-1.58658e-08
-1.50266e-08
9.81593e-09
-4.10881e-08
-1.85548e-09
-9.19253e-09
-9.13279e-09
9.42305e-09
9.4559e-09
-4.64269e-08
2.37739e-08
2.07713e-08
3.0562e-08
-4.81198e-09
-4.63023e-08
2.36706e-08
2.0668e-08
3.09406e-08
-4.73098e-09
-1.0723e-08
-2.26836e-09
1.5459e-08
-3.05586e-08
4.22452e-09
-1.06551e-08
-2.26295e-09
1.5354e-08
-3.09334e-08
4.25976e-09
-1.48943e-08
9.70212e-09
-4.12347e-08
-9.69995e-09
-1.59112e-08
-1.50359e-08
9.82016e-09
-4.10866e-08
-9.81662e-09
-1.58651e-08
1.07396e-08
-9.73183e-09
1.49246e-08
4.64368e-08
9.74022e-09
1.06567e-08
-9.84947e-09
1.50818e-08
4.62772e-08
9.81707e-09
4.20297e-09
1.5477e-08
-3.06813e-08
-2.2342e-09
2.39752e-08
4.24673e-09
1.53448e-08
-3.10575e-08
-2.25883e-09
2.43815e-08
1.00224e-08
1.00898e-08
1.93907e-09
-1.03865e-08
-1.02827e-08
-4.83182e-09
2.08396e-08
3.07141e-08
2.37889e-08
-4.74172e-09
2.06438e-08
3.0975e-08
2.36602e-08
-3.1895e-08
2.02593e-08
1.03168e-08
2.10986e-08
-4.32754e-11
-1.75482e-08
-2.26863e-08
2.43593e-08
3.90643e-08
-7.34115e-08
1.75233e-08
-3.12578e-08
-2.11122e-08
2.6357e-08
6.1932e-09
1.97945e-08
1.59302e-11
-3.67474e-09
-2.80498e-08
1.37673e-08
1.05405e-08
-2.45834e-08
4.10371e-09
1.41588e-08
6.52092e-08
1.59748e-10
-2.00423e-08
1.25226e-08
1.91639e-08
1.93189e-08
1.26839e-08
-6.52887e-08
4.37335e-08
2.00034e-08
-9.40375e-09
-9.56065e-09
-8.66269e-09
-1.5445e-09
-1.19743e-08
-9.97981e-09
-2.4427e-09
3.29638e-09
2.46257e-08
2.05855e-08
1.94194e-10
-2.00319e-08
1.26938e-08
1.93163e-08
1.91727e-08
1.25209e-08
-1.31116e-13
-1.37516e-08
-4.13333e-09
-2.7271e-08
1.39131e-08
-3.64961e-09
-2.80586e-08
1.37465e-08
-4.24815e-09
1.04851e-08
-2.45638e-08
4.13466e-09
1.41489e-08
6.53929e-08
-2.00696e-08
1.25471e-08
1.91759e-08
1.93305e-08
1.27103e-08
-6.54278e-08
4.34647e-08
-1.00128e-08
1.99324e-08
-1.51021e-09
-1.19363e-08
-2.41242e-09
-9.93223e-09
-9.39454e-09
-9.55845e-09
-8.65986e-09
4.77191e-09
3.32304e-09
2.45455e-08
2.05571e-08
-2.0062e-08
1.27167e-08
1.93257e-08
1.91835e-08
1.25409e-08
-1.37414e-08
-4.13768e-09
-2.72846e-08
1.39058e-08
1.54107e-08
-3.06804e-08
-2.26499e-09
2.4003e-08
-1.06486e-08
1.53779e-08
-3.10891e-08
-2.24561e-09
2.43833e-08
1.91667e-09
-1.03388e-08
-1.0292e-08
2.06897e-08
3.06443e-08
2.37153e-08
-4.63772e-08
2.07727e-08
3.10591e-08
2.37011e-08
-1.58763e-08
-9.86085e-09
1.50886e-08
-4.11831e-08
9.84617e-09
-1.28943e-11
-3.65355e-09
-2.80139e-08
1.38793e-08
1.04348e-08
-2.49626e-08
4.15047e-09
1.45187e-08
6.43679e-08
-1.00171e-10
-2.00081e-08
1.25259e-08
1.91438e-08
1.92967e-08
1.26909e-08
-6.43394e-08
4.35627e-08
1.98235e-08
-9.47003e-09
-9.61473e-09
-8.71591e-09
-1.48364e-09
-1.18855e-08
-9.88164e-09
-2.3884e-09
3.33318e-09
2.4903e-08
2.05208e-08
-1.35055e-10
-2.0045e-08
1.27e-08
1.92961e-08
1.91546e-08
1.25217e-08
4.01517e-12
-1.38854e-08
-4.14489e-09
-2.72433e-08
1.40544e-08
-3.18509e-08
2.02306e-08
1.03189e-08
2.11195e-08
-1.38348e-11
-1.75219e-08
-2.27195e-08
2.4323e-08
3.90627e-08
-7.34158e-08
1.75071e-08
-3.12156e-08
-2.11232e-08
2.63283e-08
6.22567e-09
1.98059e-08
-2.80171e-08
-3.67516e-09
1.38038e-08
6.49794e-08
-1.99729e-08
1.25072e-08
1.9137e-08
1.92918e-08
1.26688e-08
-6.50236e-08
-4.23873e-09
1.05093e-08
-2.45154e-08
4.12569e-09
1.41053e-08
4.37026e-08
-1.00427e-08
1.99861e-08
-1.53086e-09
-1.19467e-08
-2.43205e-09
-9.94497e-09
-9.42468e-09
-9.58204e-09
-8.68403e-09
-2.0013e-08
1.26846e-08
1.92937e-08
1.91511e-08
1.251e-08
4.77964e-09
3.32636e-09
2.45164e-08
2.05622e-08
-1.3798e-08
-2.7241e-08
-4.1353e-09
1.39627e-08
3.86423e-11
1.02863e-08
2.02354e-08
2.12164e-08
-1.78224e-08
-2.26422e-08
2.46834e-08
-7.34069e-08
1.77976e-08
3.21691e-11
-2.12285e-08
6.18042e-09
2.63377e-08
1.99137e-08
3.1871e-08
-2.80388e-08
-3.64574e-09
1.38339e-08
6.48059e-08
-2.00549e-08
1.25289e-08
1.91628e-08
1.93171e-08
1.26914e-08
-6.4833e-08
6.12586e-13
1.05158e-08
-2.44842e-08
4.1096e-09
1.40828e-08
4.36697e-08
1.98618e-08
-9.40619e-09
-9.56314e-09
-8.66571e-09
-1.52232e-09
-1.19479e-08
-9.94719e-09
-2.42336e-09
-2.00692e-08
1.2701e-08
1.93134e-08
1.91719e-08
1.25253e-08
-3.9078e-08
3.29256e-09
2.44749e-08
2.05717e-08
3.12364e-08
-1.38318e-08
-2.72663e-08
-4.11988e-09
1.39987e-08
2.02431e-08
1.03591e-08
2.11407e-08
1.59098e-08
-1.74713e-08
-2.2725e-08
2.42871e-08
4.12295e-08
-7.35087e-08
1.745e-08
-2.11518e-08
2.63405e-08
6.24215e-09
1.98376e-08
1.5428e-08
-3.06259e-08
-2.25741e-09
2.39446e-08
-1.06705e-08
1.54018e-08
-3.09893e-08
-2.2363e-09
2.42892e-08
1.88723e-09
-1.03435e-08
-1.03126e-08
2.07087e-08
3.05988e-08
2.37157e-08
-4.63886e-08
2.07995e-08
3.0951e-08
2.37102e-08
-1.58894e-08
-9.83031e-09
1.50493e-08
-4.12087e-08
9.80886e-09
3.18352e-08
-2.79981e-08
-3.68181e-09
1.39623e-08
6.38389e-08
-1.98891e-08
1.25075e-08
1.91193e-08
1.92732e-08
1.26715e-08
-6.38798e-08
1.10509e-10
1.04339e-08
-2.48844e-08
4.15953e-09
1.4435e-08
4.35023e-08
1.99042e-08
-9.43014e-09
-9.57471e-09
-8.67602e-09
-1.48728e-09
-1.18807e-08
-9.88166e-09
-2.38895e-09
-1.99005e-08
1.26827e-08
1.92723e-08
1.91309e-08
1.25059e-08
-3.90357e-08
3.34728e-09
2.48732e-08
2.05e-08
3.11975e-08
-1.39567e-08
-2.72217e-08
-4.15926e-09
1.41219e-08
-4.4178e-11
1.0349e-08
2.02122e-08
2.12187e-08
-1.77594e-08
-2.26873e-08
2.46121e-08
-7.34531e-08
1.77313e-08
-4.52307e-11
-2.12274e-08
6.24076e-09
2.63075e-08
1.99106e-08
1.02627e-08
2.02205e-08
2.12082e-08
1.58664e-08
-1.77461e-08
-2.25866e-08
2.45768e-08
4.10862e-08
-7.33102e-08
1.77226e-08
-2.1215e-08
6.15315e-09
2.63158e-08
1.98983e-08
-9.69948e-09
9.68278e-09
-9.81917e-09
9.80111e-09
1.24002e-09
1.14721e-09
-2.68364e-08
2.41688e-08
1.40675e-10
1.39701e-10
1.06601e-08
1.09124e-09
1.25535e-09
-1.30067e-08
1.06691e-08
1.05579e-09
1.30012e-09
-1.3025e-08
1.30044e-08
-1.10422e-09
1.30231e-08
-1.20672e-09
-2.86718e-10
-2.32608e-10
-2.41701e-08
-1.93454e-08
2.33882e-08
3.35564e-09
2.87266e-10
-1.64417e-08
8.75595e-09
-2.84059e-09
-1.75939e-08
1.13551e-08
1.41495e-08
1.03882e-08
-2.23587e-08
-6.79814e-10
1.10451e-09
1.96678e-08
2.07811e-08
2.37759e-08
-2.38647e-08
-4.64281e-08
-4.81778e-09
-1.25433e-09
-1.96686e-08
-1.40045e-10
3.56681e-09
1.6441e-08
-1.41501e-08
1.42711e-08
9.41666e-09
-1.92534e-08
2.35104e-08
3.39623e-09
2.31381e-10
-1.65566e-08
8.67196e-09
-2.85679e-09
-1.78572e-08
1.12513e-08
1.44093e-08
1.04053e-08
-2.25322e-08
-7.55738e-10
1.20793e-09
1.98164e-08
2.06686e-08
2.36683e-08
-2.42353e-08
-4.62979e-08
-4.73079e-09
-1.30028e-09
-1.98167e-08
-1.38332e-10
3.47985e-09
1.65564e-08
-1.44094e-08
1.41699e-08
9.4469e-09
-1.09193e-09
-1.05533e-09
2.68347e-08
-1.06581e-08
-1.24124e-09
1.30038e-08
-1.06674e-08
-1.14719e-09
1.30226e-08
2.41679e-08
6.78194e-10
-2.3389e-08
2.8413e-09
3.56846e-09
2.23608e-08
1.93451e-08
-1.96705e-08
-2.26612e-09
1.54599e-08
-1.07264e-08
4.22343e-09
-3.35642e-09
1.75944e-08
-1.4151e-08
1.42714e-08
9.41743e-09
-1.64428e-08
8.75567e-09
1.13566e-08
1.03889e-08
7.54554e-10
-2.35108e-08
2.8581e-09
3.48124e-09
2.25339e-08
1.92543e-08
-1.98186e-08
-2.26506e-09
1.53528e-08
-1.06556e-08
4.26116e-09
-3.39561e-09
1.78575e-08
-1.44107e-08
1.41712e-08
9.4468e-09
-1.65576e-08
8.67284e-09
1.12526e-08
1.04065e-08
-1.02402e-08
-1.70474e-08
-1.19034e-08
1.45898e-08
2.46013e-08
1.24489e-08
3.63714e-08
-2.65057e-11
2.20715e-08
4.57245e-09
2.32828e-08
-1.95767e-08
2.63677e-08
6.22735e-09
1.97959e-08
-8.74013e-12
-3.12681e-08
2.86065e-08
-3.01906e-11
1.21647e-08
1.99969e-08
-2.09103e-08
5.35877e-08
5.76961e-08
9.1529e-09
-1.32294e-08
-5.36196e-08
-7.35486e-08
-2.43781e-08
4.126e-08
3.91224e-08
-2.80759e-08
-1.05335e-08
-1.2179e-08
2.86769e-10
2.77397e-08
-2.77615e-08
-2.33057e-08
7.13898e-09
-1.45951e-08
1.32145e-08
1.05123e-08
-9.15199e-09
2.8091e-08
-5.76287e-08
7.11503e-09
-2.27461e-08
1.59351e-08
-4.20253e-12
2.60432e-10
-3.63996e-08
-4.53252e-09
1.19138e-08
2.02206e-08
1.03495e-08
-1.82678e-11
-3.18742e-08
-1.24694e-08
1.02502e-08
-4.57005e-11
2.86095e-08
-2.20668e-08
1.70256e-08
-2.08834e-08
1.99897e-08
-4.17595e-11
-1.95586e-08
2.45944e-08
-1.49341e-08
-4.1137e-08
4.63315e-08
-1.59308e-08
1.07203e-08
-1.70403e-08
-1.02098e-08
-1.19251e-08
1.45412e-08
2.4634e-08
2.21892e-08
4.55938e-09
2.32338e-08
-1.95543e-08
1.24421e-08
3.62948e-08
3.05427e-11
6.20415e-09
2.63387e-08
1.98633e-08
2.23065e-12
-3.12309e-08
1.21234e-08
2.01284e-08
-2.08988e-08
2.85882e-08
-1.7184e-11
5.35209e-08
5.7589e-08
9.19695e-09
-1.32679e-08
-5.35181e-08
-7.33597e-08
-2.45957e-08
4.10942e-08
3.90703e-08
-2.83552e-08
-1.04321e-08
-1.21053e-08
2.21056e-10
2.80372e-08
-2.79963e-08
-2.32241e-08
7.09451e-09
-1.45155e-08
1.32803e-08
1.04522e-08
-9.17888e-09
2.83005e-08
-5.75723e-08
7.1045e-09
-2.26585e-08
1.58996e-08
-9.74306e-11
2.21316e-10
-4.54316e-09
-3.62823e-08
1.19414e-08
1.02957e-08
2.02024e-08
1.81776e-11
-3.18422e-08
-2.2214e-08
1.70334e-08
-2.0889e-08
2.01483e-08
-1.24576e-08
1.01834e-08
5.93456e-12
2.85931e-08
-1.95571e-08
5.07709e-11
2.46427e-08
-1.49478e-08
-4.11472e-08
4.63464e-08
-1.59354e-08
1.07187e-08
1.25245e-09
1.15481e-09
-2.6813e-08
2.41621e-08
1.25492e-10
1.18225e-10
1.0647e-08
1.06668e-09
1.24376e-09
1.06571e-08
1.03809e-09
1.28071e-09
1.30087e-08
-1.10932e-09
1.30277e-08
-1.21589e-09
-3.02958e-10
-2.57346e-10
2.33896e-08
3.34955e-09
-1.93333e-08
2.91845e-10
-1.64358e-08
8.73813e-09
-2.83845e-09
-1.7592e-08
1.41495e-08
1.13421e-08
1.0386e-08
-6.88647e-10
-2.2364e-08
1.1061e-09
1.96772e-08
2.37595e-08
2.07729e-08
-2.38515e-08
-4.64187e-08
-4.81804e-09
-1.36463e-10
1.64447e-08
3.55425e-09
-1.41441e-08
1.42503e-08
9.41088e-09
-1.26204e-09
-1.96624e-08
2.35134e-08
3.38097e-09
-1.92466e-08
2.44646e-10
-1.6552e-08
8.65963e-09
-2.84831e-09
-1.78583e-08
1.44124e-08
1.12435e-08
1.0396e-08
-7.60832e-10
-2.25409e-08
1.2121e-09
1.98291e-08
2.36574e-08
2.06725e-08
-2.42284e-08
-4.62959e-08
-4.74106e-09
-1.3002e-10
1.65614e-08
3.47291e-09
-1.44065e-08
1.41549e-08
9.43164e-09
-1.30102e-09
-1.98141e-08
2.68427e-08
-1.08716e-09
-1.05699e-09
-1.24822e-09
-1.06595e-08
1.30138e-08
-1.151e-09
-1.06697e-08
1.30328e-08
2.41769e-08
2.82842e-09
6.99563e-10
-2.33768e-08
3.53842e-09
2.23315e-08
1.93229e-08
1.54319e-08
-2.25932e-09
-1.07129e-08
4.21448e-09
1.75895e-08
-3.34652e-09
1.42522e-08
9.41137e-09
1.13282e-08
1.03775e-08
8.73564e-09
2.8361e-09
7.7176e-10
-2.34999e-08
3.45817e-09
2.25066e-08
1.92361e-08
1.53299e-08
-2.24837e-09
-1.06483e-08
4.2405e-09
1.78544e-08
-3.37657e-09
1.41564e-08
9.43013e-09
1.12302e-08
1.03838e-08
8.6572e-09
-1.48868e-08
-4.12396e-08
-1.59132e-08
-1.50257e-08
-4.10873e-08
-1.58654e-08
2.6839e-08
-1.09082e-09
-1.05901e-09
-2.41739e-08
-2.82619e-10
-2.32654e-10
-1.24403e-09
-1.06585e-08
-1.10418e-09
-1.14759e-09
-1.06678e-08
-1.20968e-09
1.40666e-10
1.36595e-10
-1.3008e-08
1.25865e-09
-1.30266e-08
1.29983e-09
-2.33933e-08
6.80449e-10
2.84458e-09
-1.43246e-10
1.6445e-08
3.56654e-09
-3.3594e-09
1.75958e-08
1.42674e-08
9.41952e-09
1.93433e-08
2.23665e-08
-1.26133e-09
-2.27156e-09
1.54584e-08
2.38688e-08
-1.07213e-08
4.22774e-09
2.82476e-10
8.75284e-09
1.10228e-09
1.96731e-08
1.41517e-08
1.13553e-08
1.03919e-08
-2.35168e-08
7.53379e-10
2.85629e-09
-1.37167e-10
1.65608e-08
3.48347e-09
-3.3933e-09
1.78618e-08
1.41705e-08
9.44403e-09
1.9256e-08
2.25425e-08
-1.30137e-09
-2.26351e-09
1.53546e-08
2.42432e-08
-1.06542e-08
4.26049e-09
2.33948e-10
8.67333e-09
1.20933e-09
1.9823e-08
1.44131e-08
1.12547e-08
1.0405e-08
-2.68441e-08
1.24403e-09
1.14581e-09
1.0908e-09
1.06617e-08
1.05997e-09
1.06715e-08
2.33917e-08
-1.93453e-08
3.35958e-09
8.75631e-09
-6.81269e-10
-2.23618e-08
-2.84202e-09
-1.75962e-08
1.13564e-08
1.03899e-08
2.07754e-08
2.37773e-08
-4.64284e-08
-4.81402e-09
3.56637e-09
1.42724e-08
9.41983e-09
2.35141e-08
-1.9257e-08
3.39551e-09
8.67562e-09
-7.55338e-10
-2.25358e-08
-2.85605e-09
-1.78603e-08
1.12544e-08
1.04054e-08
2.067e-08
2.36727e-08
-4.63024e-08
-4.73058e-09
3.48164e-09
1.41741e-08
9.44686e-09
1.48908e-08
-1.591e-08
-4.12376e-08
1.50312e-08
-1.58653e-08
-4.10878e-08
-1.49379e-08
4.64661e-08
1.07374e-08
-1.50553e-08
4.63e-08
1.06614e-08
1.21472e-09
1.18478e-09
-2.69405e-08
9.83446e-11
1.54866e-10
2.42878e-08
1.06894e-08
1.12983e-09
1.19214e-09
1.06935e-08
9.99268e-10
1.33154e-09
-1.14386e-09
1.3048e-08
-1.1958e-09
1.30741e-08
-3.36294e-10
-1.89763e-10
-1.93724e-08
3.3295e-09
2.35101e-08
-1.65579e-08
3.14881e-10
8.77578e-09
-1.77074e-08
-2.82679e-09
1.13753e-08
1.03814e-08
1.42545e-08
2.08275e-08
2.37968e-08
-2.40025e-08
-4.83711e-09
-2.24432e-08
-6.68308e-10
1.12559e-09
1.97517e-08
-1.97601e-08
-1.22805e-09
-1.42746e-08
1.42893e-08
9.40414e-09
-1.23296e-10
3.58612e-09
1.65522e-08
-1.92437e-08
3.41508e-09
2.36364e-08
-1.66621e-08
1.98664e-10
8.6558e-09
-1.79655e-08
-2.86833e-09
1.12419e-08
1.04105e-08
1.45262e-08
2.06514e-08
2.36573e-08
-2.43289e-08
-4.73731e-09
-2.2639e-08
-7.65498e-10
1.20997e-09
1.99357e-08
-1.99042e-08
-1.32717e-09
-1.44981e-08
1.41518e-08
9.45327e-09
-1.47763e-10
3.47073e-09
1.66795e-08
6.70153e-10
-2.35207e-08
2.80658e-09
3.58442e-09
2.2444e-08
1.93696e-08
-2.21019e-09
1.54672e-08
4.192e-09
-3.32358e-09
1.77406e-08
1.4292e-08
9.40712e-09
8.77928e-09
1.13707e-08
1.03692e-08
7.80997e-10
-2.36095e-08
2.87175e-09
3.44948e-09
2.25836e-08
1.92328e-08
-2.26463e-09
1.53328e-08
4.23929e-09
-3.42292e-09
1.79285e-08
1.41592e-08
9.45653e-09
8.65586e-09
1.1227e-08
1.0408e-08
-1.12509e-09
-1.03748e-09
2.69639e-08
-1.06949e-08
-1.23163e-09
1.30521e-08
-1.07094e-08
-1.1621e-09
1.30814e-08
2.42991e-08
-1.01847e-08
-1.70693e-08
-1.1871e-08
1.45509e-08
2.45741e-08
1.24351e-08
3.63228e-08
2.2029e-08
4.59774e-09
2.32498e-08
-1.95988e-08
2.63754e-08
6.20838e-09
1.97852e-08
-3.12791e-08
2.85956e-08
1.21386e-08
1.99682e-08
-2.09387e-08
5.35535e-08
5.76298e-08
9.13815e-09
-1.32e-08
-5.35679e-08
-7.3425e-08
-2.43421e-08
3.90819e-08
-2.80631e-08
-1.04658e-08
-1.21264e-08
2.38747e-10
2.77301e-08
-2.77071e-08
-2.325e-08
7.09888e-09
-1.4534e-08
1.32064e-08
1.04718e-08
-9.12098e-09
2.80259e-08
-5.75876e-08
7.09256e-09
-2.27014e-08
-4.80903e-11
2.27704e-10
-3.63236e-08
-4.56852e-09
1.18982e-08
2.02322e-08
1.03098e-08
-3.18873e-08
-1.24624e-08
1.01669e-08
2.86068e-08
-2.20519e-08
1.7057e-08
-2.09216e-08
1.99833e-08
-1.95924e-08
2.45881e-08
1.19531e-09
1.21003e-09
-2.69602e-08
1.31456e-10
1.13811e-10
2.43096e-08
1.06943e-08
1.01255e-09
1.31827e-09
1.07143e-08
1.11054e-09
1.20998e-09
-1.18133e-09
1.30709e-08
-1.15567e-09
1.308e-08
-2.40229e-10
-2.97114e-10
-1.9284e-08
3.37891e-09
2.35239e-08
-1.65589e-08
2.31185e-10
8.70891e-09
-1.76909e-08
-2.85025e-09
1.13053e-08
1.03966e-08
1.425e-08
2.06827e-08
2.3718e-08
-2.39823e-08
-4.76733e-09
-2.2496e-08
-7.25176e-10
1.17845e-09
1.97778e-08
-1.97598e-08
-1.33748e-09
-1.42392e-08
1.42206e-08
9.42458e-09
-1.39689e-10
3.51634e-09
1.65718e-08
3.35766e-09
-1.93125e-08
2.3649e-08
-1.66812e-08
2.91155e-10
8.69595e-09
-1.79859e-08
-2.83707e-09
1.12742e-08
1.03886e-08
1.45381e-08
2.37059e-08
2.07687e-08
-2.43675e-08
-4.64066e-08
-4.78949e-09
-2.26306e-08
-7.31132e-10
1.15362e-09
1.99625e-08
-1.45303e-08
1.41842e-08
9.42373e-09
-1.9949e-08
-1.22544e-09
-1.20411e-10
3.50882e-09
1.66923e-08
7.30788e-10
2.8407e-09
-2.35068e-08
3.50779e-09
2.24627e-08
1.92773e-08
-2.25225e-09
1.54014e-08
4.23306e-09
1.76799e-08
-3.37757e-09
9.42435e-09
1.42268e-08
1.03852e-08
1.12977e-08
8.71127e-09
2.8304e-09
7.38346e-10
-2.36343e-08
3.49812e-09
2.26014e-08
1.93047e-08
1.53657e-08
-2.23518e-09
-1.06504e-08
4.21137e-09
1.79796e-08
-3.35871e-09
9.42626e-09
1.41881e-08
1.03818e-08
1.12637e-08
8.69672e-09
-1.0281e-09
-1.12987e-09
2.69899e-08
-1.07053e-08
-1.19461e-09
1.30783e-08
-1.07247e-08
-1.20814e-09
1.30865e-08
2.4327e-08
-1.50822e-08
-4.11853e-08
-1.58864e-08
-1.01954e-08
-1.7044e-08
-1.18743e-08
1.45569e-08
2.45567e-08
1.24174e-08
3.6354e-08
2.20305e-08
4.56344e-09
2.32539e-08
-1.95574e-08
2.63456e-08
6.21116e-09
1.98006e-08
-3.12357e-08
2.85504e-08
1.21404e-08
1.99551e-08
-2.08978e-08
5.35599e-08
5.76515e-08
9.13236e-09
-1.31996e-08
-5.35842e-08
-7.3443e-08
-2.4313e-08
3.90869e-08
-2.80202e-08
-1.04976e-08
-1.21498e-08
2.72313e-10
2.76759e-08
-2.76715e-08
-2.32679e-08
7.12759e-09
-1.45613e-08
1.31961e-08
1.04819e-08
-9.1246e-09
2.80102e-08
-5.75981e-08
7.11231e-09
-2.27112e-08
-3.00817e-11
2.49803e-10
-3.63793e-08
-4.53152e-09
1.18834e-08
2.02083e-08
1.03312e-08
-3.18439e-08
-1.24301e-08
1.02096e-08
2.85548e-08
-2.20323e-08
1.70256e-08
-2.08749e-08
1.99575e-08
-1.95454e-08
2.45572e-08
-1.70513e-08
-1.01887e-08
-1.19472e-08
1.45215e-08
2.46657e-08
2.22378e-08
4.57614e-09
2.32294e-08
-1.9581e-08
1.24722e-08
3.62758e-08
6.71207e-11
6.18329e-09
2.63533e-08
1.99028e-08
3.01653e-11
-3.12531e-08
1.21155e-08
2.01742e-08
-2.09197e-08
2.8635e-08
1.77661e-12
5.35185e-08
5.76148e-08
9.21641e-09
-1.3296e-08
-5.35352e-08
-7.34263e-08
-2.46639e-08
3.90826e-08
-2.84037e-08
-1.04286e-08
-1.21116e-08
2.16784e-10
2.80849e-08
-2.80665e-08
-2.32353e-08
7.08653e-09
-1.45113e-08
1.32991e-08
1.0428e-08
-9.2025e-09
2.83742e-08
-5.75689e-08
7.0781e-09
-2.26487e-08
-1.04111e-10
2.02502e-10
-4.54907e-09
-3.62859e-08
1.19655e-08
1.02881e-08
2.02119e-08
3.93887e-11
-3.1865e-08
-2.22536e-08
1.70396e-08
-2.09035e-08
2.01863e-08
-1.24929e-08
1.01816e-08
3.7004e-12
2.86452e-08
-1.95758e-08
6.80878e-11
2.46755e-08
-1.02084e-08
-1.70437e-08
-1.18615e-08
1.4567e-08
2.45467e-08
1.24358e-08
3.64057e-08
2.20241e-08
4.56823e-09
2.32999e-08
-1.95681e-08
2.63564e-08
6.24124e-09
1.98279e-08
-3.12547e-08
2.85856e-08
1.21686e-08
1.9961e-08
-2.09078e-08
5.36076e-08
5.76867e-08
9.11489e-09
-1.31753e-08
-5.36263e-08
-7.35299e-08
-2.42705e-08
4.12317e-08
3.90974e-08
-2.79866e-08
-1.05005e-08
-1.21687e-08
2.68784e-10
2.7662e-08
-2.76476e-08
-2.33078e-08
7.12558e-09
-1.45614e-08
1.31758e-08
1.04945e-08
-9.10275e-09
2.79625e-08
-5.76392e-08
7.11606e-09
-2.27257e-08
1.59166e-08
-1.1508e-11
2.52336e-10
-3.64176e-08
-4.53927e-09
1.18773e-08
2.02194e-08
1.03621e-08
-3.18661e-08
-1.24555e-08
1.02056e-08
2.85941e-08
-2.2037e-08
1.70297e-08
-2.08897e-08
1.99705e-08
-1.9561e-08
2.45511e-08
1.19474e-09
1.21067e-09
-2.68523e-08
1.31404e-10
1.1149e-10
2.4204e-08
1.06581e-08
1.00808e-09
1.30839e-09
1.06732e-08
1.10736e-09
1.19776e-09
-1.18349e-09
1.30362e-08
-1.1569e-09
1.30407e-08
-2.47705e-10
-3.07455e-10
-1.92904e-08
3.38366e-09
2.34336e-08
-1.64751e-08
2.28679e-10
8.71957e-09
-1.76207e-08
-2.85746e-09
1.13264e-08
1.04025e-08
1.41773e-08
2.07004e-08
2.37277e-08
-2.39315e-08
-4.77598e-09
-2.24432e-08
-7.05565e-10
1.17604e-09
1.97153e-08
-1.97026e-08
-1.33059e-09
-1.41755e-08
1.42348e-08
9.43134e-09
-1.50858e-10
3.5371e-09
1.64843e-08
3.35424e-09
-1.93205e-08
2.35497e-08
-1.65852e-08
2.91446e-10
8.71027e-09
-1.78989e-08
-2.84e-09
1.13019e-08
1.03853e-08
1.44534e-08
2.37223e-08
2.07946e-08
-2.42677e-08
-4.64239e-08
-4.81458e-09
-2.25535e-08
-7.1204e-10
1.15019e-09
1.98791e-08
-1.44452e-08
1.42067e-08
9.41614e-09
-1.98635e-08
-1.21589e-09
-1.31034e-10
3.53197e-09
1.65967e-08
7.25983e-10
2.84109e-09
-2.34216e-08
3.51085e-09
2.24062e-08
1.92754e-08
-2.24594e-09
1.54045e-08
4.22741e-09
1.76249e-08
-3.37563e-09
9.42952e-09
1.42303e-08
1.03906e-08
1.13044e-08
8.71079e-09
2.82211e-09
7.32575e-10
-2.3535e-08
3.50656e-09
2.25125e-08
1.93046e-08
1.53788e-08
-2.22465e-09
-1.06619e-08
4.19104e-09
1.78957e-08
-3.34694e-09
9.4132e-09
1.42033e-08
1.03699e-08
1.12814e-08
8.70208e-09
-1.02936e-09
-1.13309e-09
2.68865e-08
-1.06763e-08
-1.18455e-09
1.30369e-08
-1.06917e-08
-1.20004e-09
1.3042e-08
2.422e-08
-1.50412e-08
-4.1213e-08
-1.58943e-08
-1.7022e-08
-1.02394e-08
-1.19334e-08
1.45518e-08
2.4643e-08
2.22014e-08
4.54026e-09
2.32778e-08
-1.95331e-08
1.24571e-08
3.63698e-08
-6.31145e-11
6.2399e-09
2.63265e-08
1.99041e-08
-4.34974e-11
-3.12083e-08
1.21546e-08
2.01362e-08
-2.08715e-08
2.86082e-08
-6.39602e-11
5.35621e-08
5.76541e-08
9.19148e-09
-1.32641e-08
-5.35814e-08
-7.34778e-08
-2.45923e-08
3.90976e-08
-2.83188e-08
-1.04712e-08
-1.21547e-08
2.59604e-10
2.79978e-08
-2.79813e-08
-2.32874e-08
7.12616e-09
-1.45455e-08
1.32657e-08
1.04649e-08
-9.17729e-09
2.82887e-08
-5.76037e-08
7.11203e-09
-2.26868e-08
-6.83877e-11
2.40188e-10
-4.50828e-09
-3.63816e-08
1.19515e-08
1.03535e-08
2.01858e-08
-4.57266e-11
-3.18169e-08
-2.22156e-08
1.70063e-08
-2.08496e-08
2.01449e-08
-1.2475e-08
1.02354e-08
-6.436e-11
2.86114e-08
-1.95216e-08
-6.25494e-11
2.46477e-08
-1.70492e-08
-1.01294e-08
-1.19226e-08
1.44722e-08
2.46291e-08
2.21874e-08
4.57291e-09
2.31872e-08
-1.95612e-08
1.2435e-08
3.62493e-08
6.15666e-09
2.63337e-08
1.98927e-08
-3.12183e-08
1.20785e-08
2.01178e-08
-2.09014e-08
2.85753e-08
5.34821e-08
5.75798e-08
9.20203e-09
-1.32837e-08
-5.34981e-08
-7.33281e-08
-2.45607e-08
4.10863e-08
3.90564e-08
-2.83176e-08
-1.03828e-08
-1.20739e-08
2.14831e-10
2.79729e-08
-2.79602e-08
-2.31923e-08
7.08657e-09
-1.44631e-08
1.32824e-08
1.03791e-08
-9.19068e-09
2.82939e-08
-5.75337e-08
7.07587e-09
-2.25928e-08
1.5876e-08
-1.21269e-10
1.98539e-10
-4.54388e-09
-3.62599e-08
1.19348e-08
1.02631e-08
2.01966e-08
-3.18277e-08
-2.21972e-08
1.7034e-08
-2.08821e-08
2.01245e-08
-1.24495e-08
1.0124e-08
2.8577e-08
-1.95525e-08
2.46296e-08
-1.48865e-08
-1.50288e-08
1.60293e-08
7.01336e-09
7.07963e-09
-1.26944e-08
-5.16152e-09
-8.18469e-09
8.6798e-09
6.83032e-09
-5.22042e-09
-8.34709e-09
8.70146e-09
6.98777e-09
-1.03593e-08
-1.02961e-08
-1.30196e-09
1.00325e-08
1.00691e-08
1.2694e-08
-6.83059e-09
9.57103e-09
-6.98779e-09
9.59407e-09
1.36309e-07
-1.1902e-10
9.98597e-11
-1.36351e-07
1.36029e-07
-1.7343e-11
-9.40789e-11
-1.36042e-07
1.99627e-08
1.98822e-08
-1.14352e-10
1.13629e-10
-3.94306e-11
-1.15246e-10
-1.57103e-07
3.0543e-11
-1.36179e-10
2.80568e-11
-1.27111e-10
-1.5714e-07
1.60293e-08
7.00055e-09
7.05906e-09
-1.26912e-08
-5.15469e-09
-8.18252e-09
6.82861e-09
-5.20678e-09
-8.346e-09
6.98721e-09
-1.03378e-08
-1.02817e-08
-1.30375e-09
1.2695e-08
-6.8297e-09
-6.98806e-09
-1.60317e-08
5.16521e-09
5.21987e-09
1.26966e-08
-9.19077e-09
-9.13281e-09
1.30103e-09
9.42257e-09
9.45327e-09
-7.01422e-09
8.18387e-09
9.57166e-09
-7.07525e-09
8.34725e-09
9.58961e-09
6.83074e-09
8.68282e-09
6.98878e-09
8.70024e-09
6.99413e-09
7.09877e-09
1.61472e-08
-1.28085e-08
-8.28419e-09
-5.15353e-09
6.92622e-09
-8.44077e-09
-5.23998e-09
7.08607e-09
-1.03782e-08
-1.0277e-08
-1.38032e-09
-6.93753e-09
-7.07515e-09
1.28105e-08
7.03507e-09
7.02709e-09
1.615e-08
-1.28073e-08
-8.28509e-09
-5.17569e-09
6.92965e-09
-8.42183e-09
-5.18429e-09
7.06758e-09
-1.02864e-08
-1.03305e-08
-1.36122e-09
-7.06415e-09
-6.92476e-09
1.28151e-08
7.04603e-09
7.04593e-09
1.60604e-08
-1.27226e-08
-8.22146e-09
-5.19963e-09
6.86322e-09
-8.35195e-09
-5.20302e-09
6.99775e-09
-1.0312e-08
-1.03454e-08
-1.32122e-09
-6.99921e-09
-6.86795e-09
1.27269e-08
-1.60294e-08
5.16288e-09
5.22185e-09
-9.19249e-09
-9.13104e-09
9.42132e-09
9.45572e-09
-7.01449e-09
8.18471e-09
-6.83086e-09
9.57229e-09
-7.07962e-09
8.34698e-09
-6.98822e-09
9.59447e-09
-1.2695e-08
8.68107e-09
8.70259e-09
1.3642e-07
-1.16374e-10
-1.36455e-07
1.36039e-07
-6.73391e-11
-6.63633e-11
-1.36062e-07
1.97916e-08
1.99072e-08
-1.11939e-10
-7.88591e-11
-7.35741e-11
-1.57137e-07
-1.27066e-10
-1.20943e-10
-1.57171e-07
1.36044e-07
-1.76099e-11
-1.361e-07
1.35643e-07
1.16644e-10
1.08256e-10
-1.35711e-07
2.00034e-08
2.00194e-08
-4.12478e-11
1.20863e-10
1.12094e-10
-1.56872e-07
3.44646e-11
3.34493e-11
-1.56934e-07
1.35977e-07
-8.1377e-11
-1.36014e-07
1.35655e-07
1.19077e-10
-1.3571e-07
2.00042e-08
1.98246e-08
-9.30528e-11
1.20436e-10
-1.56866e-07
-1.56916e-07
1.76139e-08
8.30016e-09
-5.00488e-09
-1.31742e-08
4.98316e-09
1.52122e-08
-1.77481e-08
-5.75088e-09
3.81638e-09
-8.52581e-09
1.72876e-12
-4.14956e-09
-2.72807e-08
1.40892e-08
1.5177e-11
-7.20439e-09
1.49611e-08
4.00935e-09
1.88885e-12
-1.37492e-08
-1.50057e-08
-2.02136e-09
8.38974e-09
-7.48027e-09
1.37473e-08
-1.2221e-08
1.39858e-08
9.17424e-09
2.05102e-08
3.31529e-09
-1.45263e-08
-1.86702e-08
-2.3329e-10
7.20908e-09
1.60491e-08
-9.17e-09
-1.60399e-08
5.75019e-09
1.31781e-08
7.48192e-09
-1.39803e-08
2.45737e-10
-8.3936e-09
1.86651e-08
2.02411e-09
1.04315e-08
4.13095e-09
1.22214e-08
1.50075e-08
1.77527e-08
8.52509e-09
4.99894e-09
-3.67511e-09
-2.80433e-08
1.65302e-11
-1.5213e-08
-1.76011e-08
1.49672e-08
-3.8094e-09
-8.30291e-09
3.68362e-12
4.00833e-09
2.59576e-12
4.98303e-09
8.30021e-09
1.75619e-08
-5.03224e-09
-1.31686e-08
5.00619e-09
3.90003e-09
-8.52607e-09
5.62146e-12
1.52006e-08
-1.76981e-08
-5.72339e-09
-2.72299e-08
-4.12153e-09
1.41309e-08
-1.63578e-11
4.08949e-09
5.49438e-12
-7.17755e-09
1.49471e-08
-1.37443e-08
-1.49953e-08
-2.06752e-09
8.3587e-09
-7.45067e-09
1.37428e-08
-1.21622e-08
1.39772e-08
9.11883e-09
2.05375e-08
3.28857e-09
-1.44618e-08
-1.86143e-08
-1.88871e-10
7.18065e-09
1.59966e-08
-9.11536e-09
-1.59883e-08
5.7212e-09
1.31732e-08
7.44997e-09
-1.39676e-08
2.07171e-10
-8.36893e-09
1.86114e-08
2.06383e-09
1.04591e-08
4.10706e-09
1.21679e-08
1.49945e-08
8.52419e-09
1.76964e-08
5.01979e-09
-2.7989e-08
-3.64502e-09
-1.82646e-11
-3.88691e-09
-8.30085e-09
3.38232e-12
4.08451e-09
-1.5198e-08
-1.75432e-08