/*--------------------------------*- C++ -*----------------------------------*\
| =========                 |                                                 |
| \\      /  F ield         | OpenFOAM: The Open Source CFD Toolbox           |
|  \\    /   O peration     | Version:  2206                                  |
|   \\  /    A nd           | Website:  www.openfoam.com                      |
|    \\/     M anipulation  |                                                 |
\*---------------------------------------------------------------------------*/
FoamFile
{
    version     2.0;
    format      ascii;
    arch        "LSB;label=32;scalar=64";
    class       volScalarField;
    location    "36";
    object      epsilon;
}
// * * * * * * * * * * * * * * * * * * * * * * * * * * * * * * * * * * * * * //

dimensions      [0 2 -3 0 0 0 0];

internalField   nonuniform List<scalar> 
28687
(
2.48252e-07
2.77492e-07
2.77504e-07
3.12242e-07
2.48251e-07
2.77495e-07
2.77504e-07
3.1226e-07
2.48253e-07
2.77499e-07
2.77507e-07
3.12265e-07
2.48254e-07
2.77504e-07
2.77511e-07
3.12276e-07
2.48255e-07
2.77508e-07
2.77516e-07
3.12283e-07
2.48254e-07
2.77511e-07
2.77519e-07
3.12291e-07
2.48251e-07
2.77513e-07
2.77521e-07
3.12298e-07
2.4825e-07
2.77514e-07
2.77523e-07
3.12302e-07
2.4822e-07
2.77459e-07
2.77481e-07
3.12272e-07
2.48151e-07
2.77395e-07
2.77408e-07
3.12167e-07
2.48145e-07
2.77392e-07
2.77403e-07
3.12163e-07
2.48144e-07
2.77392e-07
2.77402e-07
3.12165e-07
2.48144e-07
2.77392e-07
2.77402e-07
3.12164e-07
2.48144e-07
2.77392e-07
2.77402e-07
3.12166e-07
2.48144e-07
2.77392e-07
2.77402e-07
3.12163e-07
2.48144e-07
2.77392e-07
2.77402e-07
3.12163e-07
2.48144e-07
2.77392e-07
2.77402e-07
3.12165e-07
2.48144e-07
2.77392e-07
2.77402e-07
3.12166e-07
2.77522e-07
3.11957e-07
2.77492e-07
3.12234e-07
3.11974e-07
2.77517e-07
2.77522e-07
2.77517e-07
2.77524e-07
3.12237e-07
3.11969e-07
2.775e-07
2.77528e-07
2.775e-07
2.77528e-07
2.77519e-07
2.77494e-07
2.7752e-07
3.12241e-07
3.11981e-07
2.77498e-07
2.77503e-07
2.77499e-07
3.11983e-07
3.12252e-07
3.11982e-07
2.7752e-07
2.77527e-07
2.7752e-07
2.77527e-07
3.12249e-07
3.11977e-07
2.77503e-07
2.77531e-07
2.77503e-07
2.77532e-07
2.77523e-07
2.77499e-07
2.77523e-07
3.1226e-07
3.1199e-07
2.77502e-07
2.77507e-07
2.77502e-07
3.11991e-07
3.1226e-07
3.11991e-07
2.77523e-07
2.7753e-07
2.77525e-07
2.77532e-07
3.12255e-07
3.11986e-07
2.77506e-07
2.77535e-07
2.77508e-07
2.77536e-07
2.77526e-07
2.77503e-07
2.77527e-07
3.12266e-07
3.11999e-07
2.77505e-07
2.77511e-07
2.77506e-07
3.12e-07
3.1227e-07
3.11999e-07
2.77528e-07
2.77534e-07
2.77531e-07
2.77535e-07
3.12265e-07
3.11993e-07
2.77511e-07
2.77539e-07
2.77512e-07
2.7754e-07
2.77529e-07
2.77507e-07
2.77531e-07
3.12276e-07
3.12006e-07
2.77508e-07
2.77515e-07
2.7751e-07
3.12007e-07
3.12278e-07
3.12008e-07
2.77534e-07
2.77537e-07
2.77535e-07
2.77537e-07
3.12272e-07
3.12001e-07
2.77516e-07
2.77543e-07
2.77516e-07
2.77544e-07
2.77534e-07
2.77511e-07
2.77534e-07
3.12284e-07
3.12015e-07
2.77513e-07
2.77519e-07
2.77514e-07
3.12015e-07
3.12286e-07
3.12016e-07
2.77538e-07
2.7754e-07
2.77538e-07
2.77539e-07
3.12279e-07
3.12008e-07
2.77519e-07
2.77547e-07
2.77519e-07
2.77546e-07
2.77537e-07
2.77512e-07
2.77537e-07
3.12292e-07
3.12023e-07
2.77516e-07
2.77521e-07
2.77516e-07
3.12022e-07
3.12295e-07
3.12021e-07
2.77541e-07
2.77541e-07
2.7754e-07
2.77542e-07
3.12286e-07
3.12012e-07
2.7752e-07
2.77548e-07
2.77519e-07
2.77547e-07
2.77539e-07
2.77515e-07
2.77538e-07
3.123e-07
3.12027e-07
2.77518e-07
2.77523e-07
2.77517e-07
3.12027e-07
3.12299e-07
3.12001e-07
2.77541e-07
2.77542e-07
2.7752e-07
2.77511e-07
3.1229e-07
3.11976e-07
2.77521e-07
2.77549e-07
2.77502e-07
2.77531e-07
2.77539e-07
2.77485e-07
2.77521e-07
3.12304e-07
3.12007e-07
2.77518e-07
2.77505e-07
2.77499e-07
3.12007e-07
3.1227e-07
3.11895e-07
2.77497e-07
2.77487e-07
2.77433e-07
2.7743e-07
3.12242e-07
3.1187e-07
2.7748e-07
2.77508e-07
2.77416e-07
2.77444e-07
2.77498e-07
2.77402e-07
2.77435e-07
3.12275e-07
3.11902e-07
2.77477e-07
2.77418e-07
2.77414e-07
3.11902e-07
3.12163e-07
3.11877e-07
2.77423e-07
2.77425e-07
2.77416e-07
2.77422e-07
3.12142e-07
3.11869e-07
2.77406e-07
2.77435e-07
2.774e-07
2.77429e-07
2.77426e-07
2.77392e-07
2.7742e-07
3.12168e-07
3.11883e-07
2.77405e-07
2.77403e-07
2.77399e-07
3.11885e-07
3.12158e-07
3.11884e-07
2.77418e-07
2.77424e-07
2.77416e-07
2.77421e-07
3.1215e-07
3.11871e-07
2.77401e-07
2.77431e-07
2.77399e-07
2.77429e-07
2.77422e-07
2.77392e-07
2.7742e-07
3.12163e-07
3.1189e-07
2.77401e-07
2.77403e-07
2.774e-07
3.11892e-07
3.1216e-07
3.11881e-07
2.77417e-07
2.77422e-07
2.77415e-07
2.77421e-07
3.12148e-07
3.11871e-07
2.774e-07
2.77429e-07
2.77398e-07
2.77428e-07
2.77421e-07
2.77392e-07
2.77419e-07
3.12165e-07
3.11888e-07
2.77401e-07
2.77402e-07
2.77401e-07
3.11889e-07
3.12159e-07
3.1188e-07
2.77416e-07
2.77422e-07
2.77414e-07
2.77421e-07
3.12149e-07
3.11872e-07
2.77399e-07
2.7743e-07
2.77398e-07
2.77428e-07
2.77421e-07
2.77392e-07
2.77419e-07
3.12165e-07
3.11888e-07
2.77403e-07
2.77402e-07
2.77402e-07
3.1189e-07
3.12159e-07
3.11878e-07
2.77416e-07
2.77422e-07
2.77414e-07
2.77421e-07
3.12151e-07
3.11869e-07
2.77399e-07
2.77429e-07
2.77398e-07
2.77428e-07
2.7742e-07
2.77392e-07
2.77419e-07
3.12165e-07
3.11886e-07
2.77403e-07
2.77402e-07
2.77401e-07
3.11888e-07
3.12156e-07
3.1188e-07
2.77415e-07
2.77423e-07
2.77414e-07
2.77421e-07
3.12149e-07
3.1187e-07
2.77399e-07
2.7743e-07
2.77398e-07
2.77428e-07
2.77421e-07
2.77392e-07
2.77419e-07
3.12163e-07
3.11888e-07
2.77403e-07
2.77402e-07
2.77401e-07
3.1189e-07
3.12156e-07
3.11881e-07
2.77415e-07
2.77423e-07
2.77414e-07
2.77421e-07
3.12147e-07
3.11872e-07
2.77399e-07
2.77429e-07
2.77398e-07
2.77428e-07
2.7742e-07
2.77392e-07
2.77419e-07
3.12163e-07
3.1189e-07
2.77402e-07
2.77402e-07
2.77401e-07
3.11892e-07
3.12158e-07
3.11881e-07
2.77415e-07
2.77422e-07
2.77414e-07
2.77421e-07
3.12149e-07
3.11873e-07
2.77399e-07
2.77429e-07
2.77398e-07
2.77428e-07
2.7742e-07
2.77392e-07
2.77419e-07
3.12166e-07
3.1189e-07
2.77402e-07
2.77402e-07
2.77401e-07
3.11891e-07
3.12159e-07
2.77415e-07
2.77422e-07
3.12151e-07
2.77399e-07
2.77429e-07
2.7742e-07
3.12167e-07
2.77402e-07
1.81861e-06
8.8615e-06
1.8191e-06
8.86102e-06
2.11e-05
2.10994e-05
1.81854e-06
8.8628e-06
1.81897e-06
8.86228e-06
2.48255e-07
2.48256e-07
2.48254e-07
2.48251e-07
2.48254e-07
2.48256e-07
2.48254e-07
5.37792e-07
1.45834e-06
2.58439e-07
2.77494e-07
5.37958e-07
1.45753e-06
2.58439e-07
2.11005e-05
2.10998e-05
5.37797e-07
2.5844e-07
1.45824e-06
2.77504e-07
5.37963e-07
2.5844e-07
1.45748e-06
3.26533e-06
3.26628e-06
3.11978e-07
3.26477e-06
3.26577e-06
1.81879e-06
8.86116e-06
1.81935e-06
8.86075e-06
2.10982e-05
2.10981e-05
1.81873e-06
8.86242e-06
1.81923e-06
8.86197e-06
2.48255e-07
2.48258e-07
2.48255e-07
2.48253e-07
2.48253e-07
2.48255e-07
2.48253e-07
5.37829e-07
1.45853e-06
2.58437e-07
2.77498e-07
5.37992e-07
1.45768e-06
2.5844e-07
2.10986e-05
2.10984e-05
5.37836e-07
2.58438e-07
1.45843e-06
2.77507e-07
5.37999e-07
2.5844e-07
1.45763e-06
3.26552e-06
3.26649e-06
3.1199e-07
3.26503e-06
3.266e-06
1.81889e-06
8.86106e-06
1.81947e-06
8.86073e-06
2.10975e-05
2.10977e-05
1.81882e-06
8.86225e-06
1.81935e-06
8.86187e-06
2.48255e-07
2.48257e-07
2.48255e-07
2.48254e-07
2.48254e-07
2.48257e-07
2.48254e-07
5.37862e-07
1.45862e-06
2.5844e-07
2.77502e-07
5.38027e-07
1.45774e-06
2.58442e-07
2.10978e-05
2.10979e-05
5.37869e-07
2.58439e-07
1.45854e-06
2.7751e-07
5.38034e-07
2.58441e-07
1.45772e-06
3.26575e-06
3.26671e-06
3.11993e-07
3.26522e-06
3.26619e-06
1.81893e-06
8.86107e-06
1.81953e-06
8.86074e-06
2.10974e-05
2.10978e-05
1.81886e-06
8.86221e-06
1.81941e-06
8.86184e-06
2.48256e-07
2.48258e-07
2.48256e-07
2.48255e-07
2.48256e-07
2.48257e-07
2.48255e-07
5.37888e-07
1.45865e-06
2.58442e-07
2.77507e-07
5.38057e-07
1.45777e-06
2.58444e-07
2.10975e-05
2.10977e-05
5.37893e-07
2.58441e-07
1.4586e-06
2.77514e-07
5.38063e-07
2.58443e-07
1.45776e-06
3.26585e-06
3.26681e-06
3.12002e-07
3.26527e-06
3.26624e-06
1.81894e-06
8.8611e-06
1.81955e-06
8.86078e-06
2.10978e-05
2.10982e-05
1.81886e-06
8.86223e-06
1.81942e-06
8.86189e-06
2.48256e-07
2.48259e-07
2.48256e-07
2.48255e-07
2.48254e-07
2.48258e-07
2.48255e-07
5.37902e-07
1.45868e-06
2.58444e-07
2.77511e-07
5.38075e-07
1.4578e-06
2.58446e-07
2.10976e-05
2.1098e-05
5.37904e-07
2.58442e-07
1.45862e-06
2.77518e-07
5.38079e-07
2.58444e-07
1.45778e-06
3.26587e-06
3.26684e-06
3.12011e-07
3.26531e-06
3.26629e-06
1.81892e-06
8.86115e-06
1.81953e-06
8.86085e-06
2.10984e-05
2.10978e-05
1.81884e-06
8.86231e-06
1.8194e-06
8.862e-06
2.48256e-07
2.48258e-07
2.48258e-07
2.48252e-07
2.48252e-07
2.48256e-07
2.48255e-07
5.37909e-07
1.45869e-06
2.58444e-07
2.77513e-07
5.38083e-07
1.4578e-06
2.58445e-07
2.10981e-05
2.10985e-05
5.3791e-07
2.58444e-07
1.45863e-06
2.77521e-07
5.38084e-07
2.58445e-07
1.45779e-06
3.26593e-06
3.26691e-06
3.12019e-07
3.26536e-06
3.26635e-06
1.81892e-06
8.86117e-06
1.81953e-06
8.86097e-06
2.10982e-05
2.10989e-05
1.81884e-06
8.86244e-06
1.81939e-06
8.86219e-06
2.48252e-07
2.48255e-07
2.48253e-07
2.4825e-07
2.4825e-07
2.48253e-07
2.4825e-07
5.37916e-07
1.4587e-06
2.58442e-07
2.77515e-07
5.38091e-07
1.45782e-06
2.58443e-07
2.10988e-05
2.10993e-05
5.37918e-07
2.58444e-07
1.45863e-06
2.77523e-07
5.38093e-07
2.58445e-07
1.45779e-06
3.26593e-06
3.2669e-06
3.12025e-07
3.26533e-06
3.26631e-06
1.81907e-06
8.86158e-06
1.8196e-06
8.8614e-06
2.10985e-05
2.10984e-05
1.81899e-06
8.86278e-06
1.81946e-06
8.86251e-06
2.48249e-07
2.48253e-07
2.48249e-07
2.48239e-07
2.48235e-07
2.48242e-07
2.48239e-07
5.37915e-07
1.45879e-06
2.58441e-07
2.77511e-07
5.38095e-07
1.45792e-06
2.5844e-07
2.10989e-05
2.10987e-05
5.3792e-07
2.58443e-07
1.45871e-06
2.77522e-07
5.38099e-07
2.58443e-07
1.45789e-06
3.26603e-06
3.267e-06
3.12025e-07
3.26549e-06
3.26647e-06
1.81892e-06
8.8617e-06
1.81963e-06
8.86128e-06
2.10973e-05
2.10971e-05
1.81884e-06
8.86279e-06
1.8195e-06
8.86247e-06
2.48213e-07
2.48224e-07
2.48222e-07
2.48161e-07
2.48157e-07
2.48163e-07
2.48161e-07
5.37803e-07
1.45873e-06
2.58404e-07
2.77437e-07
5.38037e-07
1.45775e-06
2.58383e-07
2.10979e-05
2.10979e-05
5.37811e-07
2.58409e-07
1.4587e-06
2.77458e-07
5.38044e-07
2.58389e-07
1.45777e-06
3.26604e-06
3.26701e-06
3.11958e-07
3.26536e-06
3.26634e-06
1.81873e-06
8.86137e-06
1.81939e-06
8.86089e-06
2.10969e-05
2.10971e-05
1.81865e-06
8.8628e-06
1.81925e-06
8.86249e-06
2.4815e-07
2.48155e-07
2.48153e-07
2.48145e-07
2.48146e-07
2.4815e-07
2.48148e-07
5.37724e-07
1.45854e-06
2.58336e-07
2.77394e-07
5.37918e-07
1.45762e-06
2.58335e-07
2.10975e-05
2.10977e-05
5.37732e-07
2.58339e-07
1.45851e-06
2.77405e-07
5.37927e-07
2.58338e-07
1.45762e-06
3.26582e-06
3.26679e-06
3.11878e-07
3.26518e-06
3.26616e-06
1.81869e-06
8.86113e-06
1.81931e-06
8.86072e-06
2.10969e-05
2.10972e-05
1.81861e-06
8.86287e-06
1.81917e-06
8.86256e-06
2.48148e-07
2.48151e-07
2.48149e-07
2.48145e-07
2.48146e-07
2.48149e-07
2.48147e-07
5.37715e-07
1.45849e-06
2.58333e-07
2.77394e-07
5.37892e-07
1.4576e-06
2.58335e-07
2.10974e-05
2.10976e-05
5.37721e-07
2.58335e-07
1.45845e-06
2.77405e-07
5.37899e-07
2.58337e-07
1.45759e-06
3.26573e-06
3.2667e-06
3.11894e-07
3.26514e-06
3.26612e-06
1.81869e-06
8.86102e-06
1.8193e-06
8.86063e-06
2.1097e-05
2.10972e-05
1.81861e-06
8.86294e-06
1.81917e-06
8.86262e-06
2.48147e-07
2.48151e-07
2.48148e-07
2.48144e-07
2.48146e-07
2.48149e-07
2.48147e-07
5.37713e-07
1.45849e-06
2.58332e-07
2.77393e-07
5.37892e-07
1.45759e-06
2.58333e-07
2.10974e-05
2.10976e-05
5.37719e-07
2.58334e-07
1.45844e-06
2.77404e-07
5.37897e-07
2.58336e-07
1.45759e-06
3.26572e-06
3.26669e-06
3.11888e-07
3.26513e-06
3.26611e-06
1.81869e-06
8.86095e-06
1.8193e-06
8.86057e-06
2.1097e-05
2.10972e-05
1.81861e-06
8.86298e-06
1.81916e-06
8.86266e-06
2.48147e-07
2.48151e-07
2.48149e-07
2.48144e-07
2.48146e-07
2.48149e-07
2.48147e-07
5.37713e-07
1.45849e-06
2.58332e-07
2.77393e-07
5.37889e-07
1.45759e-06
2.58333e-07
2.10974e-05
2.10976e-05
5.37718e-07
2.58334e-07
1.45844e-06
2.77404e-07
5.37895e-07
2.58336e-07
1.45759e-06
3.26572e-06
3.26669e-06
3.11889e-07
3.26513e-06
3.26611e-06
1.81869e-06
8.86091e-06
1.8193e-06
8.86054e-06
2.10971e-05
2.10973e-05
1.81861e-06
8.86301e-06
1.81916e-06
8.86268e-06
2.48147e-07
2.48151e-07
2.48149e-07
2.48144e-07
2.48146e-07
2.48149e-07
2.48148e-07
5.37713e-07
1.45849e-06
2.58332e-07
2.77393e-07
5.3789e-07
1.45759e-06
2.58333e-07
2.10974e-05
2.10976e-05
5.3772e-07
2.58334e-07
1.45844e-06
2.77404e-07
5.37897e-07
2.58336e-07
1.45759e-06
3.26572e-06
3.26669e-06
3.11891e-07
3.26513e-06
3.26611e-06
1.81869e-06
8.86088e-06
1.8193e-06
8.86051e-06
2.10971e-05
2.10973e-05
1.81861e-06
8.86302e-06
1.81916e-06
8.86269e-06
2.48147e-07
2.48151e-07
2.48149e-07
2.48144e-07
2.48146e-07
2.48149e-07
2.48147e-07
5.37714e-07
1.45849e-06
2.58332e-07
2.77393e-07
5.3789e-07
1.45759e-06
2.58333e-07
2.10974e-05
2.10976e-05
5.37721e-07
2.58334e-07
1.45844e-06
2.77404e-07
5.37897e-07
2.58336e-07
1.45759e-06
3.26572e-06
3.26669e-06
3.11892e-07
3.26513e-06
3.26611e-06
1.81869e-06
8.86086e-06
1.8193e-06
8.86049e-06
2.10971e-05
2.10973e-05
1.81861e-06
8.86303e-06
1.81917e-06
8.8627e-06
2.48147e-07
2.48151e-07
2.48149e-07
2.48144e-07
2.48146e-07
2.48149e-07
2.48147e-07
5.37714e-07
1.45849e-06
2.58332e-07
2.77393e-07
5.3789e-07
1.45759e-06
2.58333e-07
2.10974e-05
2.10976e-05
5.37722e-07
2.58334e-07
1.45844e-06
2.77404e-07
5.37898e-07
2.58336e-07
1.45759e-06
3.26572e-06
3.26669e-06
3.11889e-07
3.26513e-06
3.26611e-06
1.81869e-06
8.86085e-06
1.81929e-06
8.86048e-06
2.10971e-05
2.10973e-05
1.81861e-06
8.86304e-06
1.81917e-06
8.8627e-06
2.48147e-07
2.48151e-07
2.48149e-07
2.48144e-07
2.48146e-07
2.48149e-07
2.48147e-07
5.37714e-07
1.45849e-06
2.58332e-07
2.77393e-07
5.37891e-07
1.45759e-06
2.58333e-07
2.10974e-05
2.10976e-05
5.37722e-07
2.58334e-07
1.45844e-06
2.77404e-07
5.37899e-07
2.58336e-07
1.45759e-06
3.26572e-06
3.26669e-06
3.11888e-07
3.26513e-06
3.26611e-06
1.81868e-06
8.86084e-06
1.81929e-06
8.86049e-06
2.10971e-05
2.10974e-05
1.81861e-06
8.86304e-06
1.81917e-06
8.86271e-06
2.48146e-07
2.4815e-07
2.48148e-07
5.37713e-07
1.45849e-06
2.58332e-07
2.77393e-07
5.3789e-07
1.45759e-06
2.58333e-07
2.10974e-05
2.10974e-05
5.37723e-07
2.58334e-07
1.45844e-06
2.77404e-07
5.37898e-07
2.58336e-07
1.45759e-06
3.26572e-06
3.26669e-06
3.11889e-07
3.26513e-06
3.26629e-06
8.86213e-06
1.45755e-06
2.11006e-05
3.26539e-06
3.26435e-06
2.10979e-05
1.45742e-06
8.86148e-06
2.10998e-05
2.10991e-05
2.11012e-05
2.11006e-05
3.2652e-06
3.26622e-06
3.1197e-07
3.26467e-06
3.26573e-06
2.10981e-05
2.10987e-05
2.10997e-05
2.11001e-05
3.12247e-07
3.26478e-06
3.26584e-06
3.26524e-06
3.2663e-06
1.81864e-06
8.86243e-06
1.81912e-06
8.86194e-06
5.37786e-07
1.45818e-06
2.58438e-07
2.77517e-07
5.37953e-07
1.45741e-06
2.58438e-07
5.37791e-07
1.45844e-06
2.5844e-07
2.77522e-07
5.37958e-07
1.45766e-06
2.5844e-07
1.81924e-06
8.86086e-06
8.86132e-06
1.81872e-06
1.81927e-06
8.86179e-06
8.86224e-06
1.81875e-06
5.37971e-07
2.77516e-07
1.45749e-06
2.58437e-07
1.45829e-06
2.58437e-07
5.37804e-07
5.37977e-07
2.77523e-07
1.45775e-06
2.58439e-07
1.45854e-06
2.58439e-07
5.3781e-07
3.266e-06
3.26513e-06
3.11963e-07
3.26561e-06
3.2648e-06
2.10977e-05
2.1097e-05
2.10986e-05
2.1099e-05
3.12242e-07
3.26579e-06
3.265e-06
3.26621e-06
3.2655e-06
2.10963e-05
2.10968e-05
5.37807e-07
1.45861e-06
2.58439e-07
2.775e-07
5.37971e-07
1.45781e-06
2.58439e-07
1.81852e-06
8.86243e-06
1.81895e-06
8.86191e-06
5.37801e-07
2.58443e-07
1.45858e-06
2.77528e-07
5.37966e-07
2.58443e-07
1.45778e-06
1.81912e-06
8.8621e-06
8.8626e-06
1.81865e-06
5.3799e-07
2.775e-07
1.4579e-06
2.58438e-07
1.45872e-06
2.58438e-07
5.37827e-07
1.8191e-06
8.86174e-06
8.86224e-06
1.81863e-06
5.37985e-07
2.77528e-07
2.58442e-07
1.45787e-06
2.58442e-07
1.45869e-06
5.3782e-07
1.81866e-06
8.86182e-06
1.81914e-06
8.86131e-06
5.37797e-07
2.58439e-07
1.45824e-06
2.77519e-07
5.37962e-07
2.58439e-07
1.45748e-06
1.81865e-06
8.8625e-06
1.81913e-06
8.862e-06
5.37976e-07
2.77494e-07
1.45762e-06
2.58437e-07
1.45844e-06
2.58437e-07
5.3781e-07
1.81929e-06
8.86117e-06
8.86165e-06
1.81876e-06
5.3798e-07
2.77519e-07
2.58438e-07
1.45757e-06
2.58438e-07
1.45836e-06
5.37815e-07
1.81928e-06
8.86184e-06
8.8623e-06
1.81876e-06
3.26604e-06
3.26528e-06
3.11976e-07
3.26546e-06
3.26477e-06
2.11008e-05
2.11001e-05
2.10989e-05
2.10996e-05
3.12254e-07
3.2657e-06
3.26488e-06
3.26616e-06
3.26534e-06
2.10991e-05
2.10997e-05
5.37796e-07
2.58439e-07
1.45843e-06
2.77498e-07
5.37962e-07
2.58439e-07
1.45767e-06
1.81853e-06
8.86264e-06
1.81895e-06
8.86214e-06
1.81853e-06
8.86331e-06
1.81896e-06
8.86282e-06
5.37982e-07
2.77503e-07
2.58438e-07
1.45757e-06
2.58438e-07
1.45835e-06
5.37817e-07
5.37981e-07
2.77498e-07
2.58437e-07
1.45776e-06
2.58437e-07
1.45855e-06
5.37815e-07
1.8191e-06
8.86197e-06
8.86244e-06
1.81863e-06
1.81911e-06
8.86266e-06
8.86313e-06
1.81864e-06
2.1101e-05
2.11003e-05
2.11015e-05
2.11008e-05
3.12255e-07
3.26491e-06
3.26588e-06
3.26536e-06
3.26634e-06
2.10992e-05
2.10998e-05
2.10998e-05
2.11004e-05
2.10977e-05
2.10974e-05
2.10993e-05
2.10991e-05
3.26535e-06
3.26641e-06
3.1198e-07
3.2649e-06
3.26595e-06
2.10971e-05
2.10972e-05
2.10987e-05
2.10988e-05
3.12259e-07
3.26503e-06
3.26604e-06
3.26547e-06
3.26652e-06
1.81882e-06
8.8621e-06
1.81937e-06
8.86169e-06
5.37824e-07
1.45836e-06
2.58439e-07
2.7752e-07
5.37991e-07
1.45756e-06
2.58439e-07
5.3783e-07
1.45862e-06
2.58442e-07
2.77527e-07
5.37996e-07
1.45781e-06
2.58442e-07
1.81941e-06
8.86072e-06
8.86108e-06
1.81885e-06
1.81943e-06
8.86165e-06
8.86202e-06
1.81888e-06
5.3801e-07
2.77519e-07
1.4576e-06
2.58439e-07
1.45842e-06
2.58439e-07
5.37842e-07
5.38016e-07
2.77527e-07
1.45786e-06
2.58441e-07
1.45867e-06
2.58441e-07
5.37847e-07
3.26638e-06
3.26566e-06
3.11975e-07
3.26594e-06
3.26507e-06
2.10961e-05
2.10958e-05
2.10978e-05
2.10979e-05
3.12254e-07
3.26604e-06
3.26504e-06
3.26652e-06
3.2657e-06
2.10955e-05
2.10957e-05
5.37846e-07
1.4588e-06
2.58441e-07
2.77503e-07
5.3801e-07
1.45796e-06
2.58441e-07
1.8187e-06
8.86207e-06
1.8192e-06
8.86163e-06
5.3784e-07
2.58444e-07
1.45877e-06
2.77531e-07
5.38005e-07
2.58444e-07
1.45793e-06
1.81929e-06
8.8619e-06
8.86231e-06
1.81879e-06
5.38029e-07
2.77503e-07
1.45801e-06
2.5844e-07
1.45886e-06
2.5844e-07
5.37864e-07
1.81927e-06
8.86159e-06
8.86198e-06
1.81876e-06
5.38024e-07
2.77531e-07
2.58444e-07
1.45799e-06
2.58443e-07
1.45884e-06
5.37858e-07
1.81884e-06
8.86151e-06
1.81938e-06
8.86108e-06
5.37835e-07
2.58441e-07
1.45844e-06
2.77523e-07
5.37999e-07
2.58441e-07
1.45764e-06
1.81883e-06
8.86215e-06
1.81938e-06
8.86171e-06
5.38014e-07
2.77498e-07
1.45772e-06
2.5844e-07
1.45857e-06
2.5844e-07
5.37847e-07
1.81945e-06
8.86103e-06
8.86144e-06
1.81889e-06
5.38018e-07
2.77522e-07
2.5844e-07
1.45769e-06
2.5844e-07
1.4585e-06
5.37852e-07
1.81945e-06
8.86165e-06
8.86203e-06
1.81889e-06
3.26638e-06
3.26545e-06
3.11988e-07
3.26587e-06
3.265e-06
2.10988e-05
2.10984e-05
2.10981e-05
2.10983e-05
3.12266e-07
3.26598e-06
3.2651e-06
3.26653e-06
3.26557e-06
2.10981e-05
2.10982e-05
5.37835e-07
2.5844e-07
1.45863e-06
2.77502e-07
5.38001e-07
2.5844e-07
1.45782e-06
1.81871e-06
8.86228e-06
1.8192e-06
8.86185e-06
1.81872e-06
8.86297e-06
1.81921e-06
8.86253e-06
5.38021e-07
2.77507e-07
2.58439e-07
1.45768e-06
2.5844e-07
1.45848e-06
5.37854e-07
5.3802e-07
2.77501e-07
2.58439e-07
1.45787e-06
2.58439e-07
1.45869e-06
5.37852e-07
1.81927e-06
8.86178e-06
8.86217e-06
1.81877e-06
1.81928e-06
8.86247e-06
8.86286e-06
1.81878e-06
2.10989e-05
2.10986e-05
2.10994e-05
2.10991e-05
3.12267e-07
3.26514e-06
3.26611e-06
3.26561e-06
3.26657e-06
2.10982e-05
2.10984e-05
2.10987e-05
2.10989e-05
2.10969e-05
2.10969e-05
2.10985e-05
2.10985e-05
3.2656e-06
3.26661e-06
3.11985e-07
3.26513e-06
3.26611e-06
2.10968e-05
2.10968e-05
2.10984e-05
2.10982e-05
3.12264e-07
3.26516e-06
3.26614e-06
3.26569e-06
3.26667e-06
1.81892e-06
8.862e-06
1.81949e-06
8.86164e-06
5.37857e-07
1.45847e-06
2.58441e-07
2.77523e-07
5.38027e-07
1.45764e-06
2.58441e-07
5.37863e-07
1.45872e-06
2.58444e-07
2.7753e-07
5.38032e-07
1.45788e-06
2.58444e-07
1.8195e-06
8.86073e-06
8.86108e-06
1.81892e-06
1.81952e-06
8.86165e-06
8.86199e-06
1.81894e-06
5.38042e-07
2.77524e-07
1.45767e-06
2.58441e-07
1.45851e-06
2.58441e-07
5.37872e-07
5.38048e-07
2.77531e-07
1.45791e-06
2.58443e-07
1.45875e-06
2.58443e-07
5.37878e-07
3.26661e-06
3.26566e-06
3.1198e-07
3.26611e-06
3.26501e-06
2.10953e-05
2.10952e-05
2.10976e-05
2.10977e-05
3.12259e-07
3.26617e-06
3.26501e-06
3.26669e-06
3.26563e-06
2.10951e-05
2.10952e-05
5.37879e-07
1.4589e-06
2.58442e-07
2.77506e-07
5.38046e-07
1.45805e-06
2.58443e-07
1.8188e-06
8.86196e-06
1.81932e-06
8.86159e-06
5.37873e-07
2.58446e-07
1.45889e-06
2.77535e-07
5.38041e-07
2.58446e-07
1.45803e-06
1.81937e-06
8.86185e-06
8.86223e-06
1.81885e-06
5.38061e-07
2.77507e-07
1.45807e-06
2.58442e-07
1.45894e-06
2.58442e-07
5.37893e-07
1.81935e-06
8.86158e-06
8.86196e-06
1.81883e-06
5.38056e-07
2.77535e-07
2.58446e-07
1.45805e-06
2.58445e-07
1.45892e-06
5.37887e-07
1.81893e-06
8.8614e-06
1.8195e-06
8.861e-06
5.37868e-07
2.58443e-07
1.45855e-06
2.77526e-07
5.38035e-07
2.58443e-07
1.45773e-06
1.81893e-06
8.86199e-06
1.8195e-06
8.86163e-06
5.38046e-07
2.77503e-07
1.45776e-06
2.58442e-07
1.45863e-06
2.58442e-07
5.37877e-07
1.81954e-06
8.86098e-06
8.86136e-06
1.81896e-06
5.38051e-07
2.77526e-07
2.58442e-07
1.45775e-06
2.58442e-07
1.45858e-06
5.37883e-07
1.81953e-06
8.86161e-06
8.86197e-06
1.81895e-06
3.26663e-06
3.26567e-06
3.11993e-07
3.26605e-06
3.26518e-06
2.10979e-05
2.10979e-05
2.10977e-05
2.10978e-05
3.12271e-07
3.26609e-06
3.26522e-06
3.26669e-06
3.26574e-06
2.10978e-05
2.10978e-05
5.37868e-07
2.58441e-07
1.45874e-06
2.77505e-07
5.38036e-07
2.58441e-07
1.45791e-06
1.81881e-06
8.86212e-06
1.81932e-06
8.86176e-06
1.81881e-06
8.86281e-06
1.81933e-06
8.86244e-06
5.38053e-07
2.7751e-07
2.58441e-07
1.45775e-06
2.58441e-07
1.45857e-06
5.37883e-07
5.38052e-07
2.77505e-07
2.58441e-07
1.45794e-06
2.58441e-07
1.45877e-06
5.37882e-07
1.81936e-06
8.86175e-06
8.86211e-06
1.81883e-06
1.81936e-06
8.86242e-06
8.86279e-06
1.81884e-06
2.10981e-05
2.10981e-05
2.10986e-05
2.10986e-05
3.12272e-07
3.26526e-06
3.26623e-06
3.26578e-06
3.26674e-06
2.1098e-05
2.10979e-05
2.10985e-05
2.10985e-05
2.10967e-05
2.10968e-05
2.10982e-05
2.10984e-05
3.2657e-06
3.26669e-06
3.11995e-07
3.26516e-06
3.26615e-06
2.10969e-05
2.10968e-05
2.10985e-05
2.10982e-05
3.12274e-07
3.26517e-06
3.26616e-06
3.2657e-06
3.26669e-06
1.81896e-06
8.86199e-06
1.81954e-06
8.86165e-06
5.37883e-07
1.45853e-06
2.58444e-07
2.77529e-07
5.38056e-07
1.45768e-06
2.58444e-07
5.37889e-07
1.45877e-06
2.58446e-07
2.77535e-07
5.38062e-07
1.45792e-06
2.58446e-07
1.81954e-06
8.86076e-06
8.86109e-06
1.81895e-06
1.81956e-06
8.86167e-06
8.862e-06
1.81897e-06
5.38067e-07
2.7753e-07
1.45769e-06
2.58443e-07
1.45854e-06
2.58443e-07
5.37894e-07
5.38073e-07
2.77534e-07
1.45792e-06
2.58445e-07
1.45878e-06
2.58445e-07
5.37899e-07
3.26673e-06
3.26565e-06
3.11989e-07
3.2662e-06
3.26506e-06
2.10951e-05
2.10952e-05
2.1098e-05
2.10978e-05
3.12267e-07
3.26618e-06
3.26512e-06
3.26673e-06
3.2657e-06
2.10954e-05
2.10952e-05
5.37904e-07
1.45896e-06
2.58445e-07
2.77511e-07
5.38074e-07
1.45808e-06
2.58445e-07
1.81884e-06
8.86194e-06
1.81938e-06
8.86156e-06
5.37898e-07
2.58448e-07
1.45895e-06
2.77539e-07
5.38069e-07
2.58448e-07
1.45807e-06
1.81941e-06
8.86186e-06
8.86221e-06
1.81887e-06
5.38084e-07
2.77512e-07
1.45809e-06
2.58444e-07
1.45897e-06
2.58443e-07
5.37913e-07
1.81939e-06
8.86156e-06
8.86193e-06
1.81885e-06
5.3808e-07
2.77539e-07
2.58447e-07
1.45808e-06
2.58447e-07
1.45896e-06
5.37908e-07
1.81898e-06
8.86135e-06
1.81956e-06
8.86098e-06
5.37893e-07
2.58445e-07
1.4586e-06
2.77529e-07
5.38064e-07
2.58445e-07
1.45777e-06
1.81897e-06
8.86195e-06
1.81955e-06
8.8616e-06
5.3807e-07
2.77507e-07
1.45779e-06
2.58444e-07
1.45866e-06
2.58444e-07
5.37897e-07
1.81958e-06
8.86101e-06
8.86136e-06
1.81898e-06
5.38074e-07
2.7753e-07
2.58444e-07
1.45778e-06
2.58444e-07
1.45862e-06
5.37902e-07
1.81957e-06
8.86162e-06
8.86195e-06
1.81898e-06
3.26672e-06
3.26577e-06
3.12002e-07
3.26612e-06
3.26523e-06
2.10977e-05
2.10978e-05
2.10977e-05
2.10977e-05
3.12279e-07
3.26614e-06
3.26525e-06
3.26675e-06
3.26577e-06
2.10979e-05
2.10978e-05
5.37893e-07
2.58443e-07
1.45879e-06
2.77509e-07
5.38065e-07
2.58443e-07
1.45795e-06
1.81884e-06
8.86209e-06
1.81938e-06
8.86174e-06
1.81885e-06
8.86277e-06
1.81939e-06
8.86241e-06
5.38075e-07
2.77514e-07
2.58442e-07
1.45777e-06
2.58442e-07
1.4586e-06
5.37901e-07
5.38075e-07
2.77509e-07
2.58443e-07
1.45796e-06
2.58442e-07
1.45881e-06
5.37901e-07
1.81939e-06
8.86175e-06
8.86209e-06
1.81885e-06
1.8194e-06
8.86243e-06
8.86276e-06
1.81886e-06
2.10979e-05
2.1098e-05
2.10984e-05
2.10985e-05
3.1228e-07
3.26528e-06
3.26626e-06
3.26582e-06
3.26679e-06
2.10981e-05
2.10979e-05
2.10986e-05
2.10984e-05
2.10969e-05
2.10971e-05
2.10983e-05
2.10987e-05
3.2657e-06
3.26671e-06
3.12004e-07
3.2652e-06
3.2662e-06
2.10973e-05
2.10971e-05
2.10989e-05
2.10985e-05
3.12283e-07
3.26521e-06
3.26624e-06
3.26574e-06
3.26675e-06
1.81897e-06
8.86203e-06
1.81956e-06
8.86171e-06
5.37901e-07
1.45854e-06
2.58446e-07
2.77534e-07
5.38077e-07
1.4577e-06
2.58446e-07
5.37907e-07
1.45878e-06
2.58448e-07
2.77537e-07
5.38083e-07
1.45793e-06
2.58448e-07
1.81954e-06
8.8608e-06
8.86113e-06
1.81893e-06
1.81956e-06
8.86176e-06
8.86206e-06
1.81895e-06
5.38083e-07
2.77535e-07
1.45771e-06
2.58445e-07
1.45855e-06
2.58445e-07
5.37905e-07
5.38089e-07
2.77537e-07
1.45793e-06
2.58446e-07
1.45878e-06
2.58447e-07
5.37911e-07
3.26673e-06
3.26576e-06
3.11997e-07
3.26619e-06
3.26517e-06
2.10953e-05
2.10956e-05
2.10985e-05
2.10982e-05
3.12275e-07
3.26619e-06
3.2652e-06
3.26673e-06
3.2658e-06
2.10959e-05
2.10955e-05
5.37919e-07
1.45898e-06
2.58446e-07
2.77516e-07
5.38093e-07
1.4581e-06
2.58447e-07
1.81884e-06
8.86194e-06
1.81939e-06
8.86158e-06
5.37913e-07
2.5845e-07
1.45897e-06
2.77543e-07
5.38088e-07
2.5845e-07
1.45809e-06
1.8194e-06
8.86193e-06
8.86227e-06
1.81884e-06
5.38097e-07
2.77516e-07
1.45811e-06
2.58446e-07
1.45898e-06
2.58446e-07
5.37922e-07
1.81938e-06
8.86161e-06
8.86196e-06
1.81882e-06
5.38093e-07
2.77544e-07
2.58449e-07
1.45809e-06
2.58449e-07
1.45898e-06
5.37916e-07
1.81898e-06
8.8614e-06
1.81958e-06
8.86106e-06
5.37909e-07
2.58447e-07
1.45862e-06
2.77534e-07
5.38083e-07
2.58447e-07
1.45778e-06
1.81897e-06
8.86197e-06
1.81957e-06
8.86165e-06
5.38083e-07
2.77511e-07
1.4578e-06
2.58445e-07
1.45868e-06
2.58445e-07
5.37905e-07
1.81957e-06
8.86111e-06
8.86144e-06
1.81896e-06
5.38088e-07
2.77534e-07
2.58446e-07
1.45779e-06
2.58446e-07
1.45863e-06
5.37912e-07
1.81956e-06
8.86169e-06
8.86201e-06
1.81896e-06
3.26677e-06
3.26579e-06
3.12011e-07
3.26617e-06
3.26528e-06
2.10979e-05
2.10981e-05
2.10982e-05
2.1098e-05
3.12288e-07
3.2662e-06
3.26531e-06
3.26681e-06
3.26583e-06
2.10983e-05
2.10981e-05
5.37906e-07
2.58445e-07
1.45881e-06
2.77513e-07
5.38083e-07
2.58445e-07
1.45797e-06
1.81884e-06
8.86211e-06
1.81939e-06
8.86178e-06
1.81885e-06
8.86278e-06
1.8194e-06
8.86246e-06
5.38085e-07
2.77518e-07
2.58444e-07
1.45778e-06
2.58444e-07
1.45862e-06
5.37906e-07
5.38086e-07
2.77513e-07
2.58444e-07
1.45798e-06
2.58444e-07
1.45882e-06
5.37908e-07
1.81938e-06
8.86182e-06
8.86214e-06
1.81882e-06
1.81939e-06
8.86251e-06
8.86282e-06
1.81883e-06
2.1098e-05
2.10982e-05
2.10986e-05
2.10988e-05
3.12289e-07
3.26534e-06
3.26632e-06
3.26587e-06
3.26684e-06
2.10985e-05
2.10982e-05
2.1099e-05
2.10987e-05
2.10973e-05
2.10976e-05
2.10988e-05
2.10992e-05
3.26575e-06
3.26679e-06
3.12011e-07
3.26522e-06
3.26627e-06
2.10979e-05
2.10975e-05
2.10995e-05
2.1099e-05
3.1229e-07
3.2652e-06
3.26625e-06
3.26576e-06
3.26681e-06
1.81895e-06
8.86212e-06
1.81955e-06
8.86163e-06
5.3791e-07
1.45856e-06
2.58447e-07
2.77538e-07
5.38087e-07
1.45771e-06
2.58447e-07
5.37916e-07
1.45879e-06
2.58447e-07
2.7754e-07
5.38094e-07
1.45796e-06
2.58447e-07
1.81951e-06
8.86084e-06
8.8612e-06
1.81892e-06
1.81953e-06
8.86161e-06
8.862e-06
1.81895e-06
5.38092e-07
2.77538e-07
1.4577e-06
2.58444e-07
1.45856e-06
2.58445e-07
5.37915e-07
5.38098e-07
2.77539e-07
1.45803e-06
2.58445e-07
1.45887e-06
2.58446e-07
5.37922e-07
3.26674e-06
3.26583e-06
3.12004e-07
3.26627e-06
3.26521e-06
2.10959e-05
2.10961e-05
2.1098e-05
2.10979e-05
3.12283e-07
3.26633e-06
3.26518e-06
3.26689e-06
3.26582e-06
2.10965e-05
2.10961e-05
5.37927e-07
1.45899e-06
2.58448e-07
2.7752e-07
5.38101e-07
1.45812e-06
2.58448e-07
1.81882e-06
8.862e-06
1.81937e-06
8.86168e-06
5.37921e-07
2.5845e-07
1.45898e-06
2.77547e-07
5.38096e-07
2.5845e-07
1.4581e-06
1.81937e-06
8.86205e-06
8.86238e-06
1.81884e-06
5.38106e-07
2.77519e-07
1.45811e-06
2.58447e-07
1.459e-06
2.58447e-07
5.37932e-07
1.81935e-06
8.86173e-06
8.86206e-06
1.81882e-06
5.38102e-07
2.77546e-07
2.58448e-07
1.4581e-06
2.58448e-07
1.45899e-06
5.37926e-07
1.81895e-06
8.8615e-06
1.81956e-06
8.86118e-06
5.37916e-07
2.58447e-07
1.45864e-06
2.77538e-07
5.38092e-07
2.58447e-07
1.4578e-06
1.81895e-06
8.86205e-06
1.81955e-06
8.86174e-06
5.38089e-07
2.77512e-07
1.4578e-06
2.58442e-07
1.45868e-06
2.58444e-07
5.37913e-07
1.81954e-06
8.86128e-06
8.86157e-06
1.81895e-06
5.38096e-07
2.77537e-07
2.58445e-07
1.45779e-06
2.58446e-07
1.45864e-06
5.37921e-07
1.81954e-06
8.86179e-06
8.8621e-06
1.81895e-06
3.26683e-06
3.26586e-06
3.12019e-07
3.26623e-06
3.26534e-06
2.10983e-05
2.10986e-05
2.10988e-05
2.10985e-05
3.12296e-07
3.26621e-06
3.26532e-06
3.26685e-06
3.26588e-06
2.10989e-05
2.10985e-05
5.37913e-07
2.58446e-07
1.45883e-06
2.77517e-07
5.38089e-07
2.58446e-07
1.45798e-06
1.81881e-06
8.86219e-06
1.81936e-06
8.86188e-06
1.81883e-06
8.86287e-06
1.81937e-06
8.86257e-06
5.38091e-07
2.77521e-07
2.58444e-07
1.45778e-06
2.58445e-07
1.45863e-06
5.37915e-07
5.38094e-07
2.77516e-07
2.58443e-07
1.45798e-06
2.58445e-07
1.45883e-06
5.37918e-07
1.81935e-06
8.86193e-06
8.86224e-06
1.81881e-06
1.81936e-06
8.86262e-06
8.86293e-06
1.81882e-06
2.10984e-05
2.10987e-05
2.1099e-05
2.10992e-05
3.12296e-07
3.26535e-06
3.26633e-06
3.26591e-06
3.26689e-06
2.1099e-05
2.10987e-05
2.10995e-05
2.10992e-05
2.10979e-05
2.10987e-05
2.10994e-05
2.10998e-05
3.26574e-06
3.26679e-06
3.12018e-07
3.2652e-06
3.26624e-06
2.10987e-05
2.10986e-05
2.10998e-05
2.10997e-05
3.12296e-07