/*--------------------------------*- C++ -*----------------------------------*\
| =========                 |                                                 |
| \\      /  F ield         | OpenFOAM: The Open Source CFD Toolbox           |
|  \\    /   O peration     | Version:  2206                                  |
|   \\  /    A nd           | Website:  www.openfoam.com                      |
|    \\/     M anipulation  |                                                 |
\*---------------------------------------------------------------------------*/
FoamFile
{
    version     2.0;
    format      ascii;
    arch        "LSB;label=32;scalar=64";
    class       volScalarField;
    location    "25.5";
    object      nut;
}
// * * * * * * * * * * * * * * * * * * * * * * * * * * * * * * * * * * * * * //

dimensions      [0 2 -1 0 0 0 0];

internalField   nonuniform List<scalar> 
28448
(
0.000221819
0.000197884
0.000197874
0.000173025
0.000221819
0.000197884
0.000197873
0.000173023
0.000221818
0.00019788
0.00019787
0.000173022
0.000221819
0.000197881
0.00019787
0.00017302
0.000221817
0.000197878
0.000197868
0.000173017
0.000221803
0.000197856
0.000197837
0.000172971
0.000221789
0.000197827
0.000197821
0.000172955
0.000221795
0.000197831
0.000197823
0.000172955
0.000221796
0.000197832
0.000197824
0.000172953
0.000221796
0.000197832
0.000197824
0.000172955
0.000221796
0.000197832
0.000197824
0.000172956
0.000221796
0.000197832
0.000197824
0.000172954
0.000221796
0.000197832
0.000197824
0.000172954
0.000221796
0.000197832
0.000197824
0.000172954
0.000221796
0.000197832
0.000197824
0.000172955
0.000221796
0.000197832
0.000197824
0.000172955
0.000221796
0.000197832
0.000197824
0.000172955
0.000221798
0.000197826
0.0001732
0.000197866
0.000197863
0.000173205
0.000197879
0.000197854
0.000197884
0.000197864
0.00017319
0.000197874
0.000197877
0.000173194
0.000173031
0.000173195
0.000197866
0.000197863
0.000197866
0.000197862
0.000173035
0.000173199
0.000197879
0.000197855
0.000197879
0.000197854
0.000197865
0.000197884
0.000197865
0.000173023
0.000173187
0.000197878
0.000197873
0.000197877
0.000173192
0.000173028
0.000173194
0.000197866
0.000197862
0.000197866
0.000197862
0.000173032
0.000173198
0.000197878
0.000197854
0.000197878
0.000197854
0.000197864
0.00019788
0.000197864
0.00017302
0.000173186
0.000197877
0.000197871
0.000197877
0.000173191
0.000173027
0.000173193
0.000197867
0.000197863
0.000197866
0.000197863
0.000173031
0.000173197
0.000197879
0.000197854
0.000197879
0.000197852
0.000197865
0.000197881
0.000197863
0.000173019
0.000173184
0.000197878
0.000197869
0.000197876
0.000173189
0.000173026
0.000173193
0.000197867
0.000197863
0.000197865
0.000197862
0.00017303
0.000173197
0.00019788
0.00019785
0.000197879
0.000197849
0.000197861
0.000197879
0.00019786
0.000173017
0.000173183
0.000197874
0.000197869
0.000197872
0.000173188
0.000173026
0.000173173
0.000197863
0.00019786
0.000197854
0.00019785
0.000173029
0.000173176
0.000197877
0.000197848
0.000197866
0.000197833
0.000197858
0.000197869
0.000197843
0.000173015
0.000173152
0.000197871
0.000197854
0.000197855
0.000173155
0.000172996
0.000173124
0.000197843
0.000197839
0.00019781
0.000197806
0.000172999
0.000173128
0.000197854
0.000197816
0.000197822
0.000197798
0.000197825
0.000197827
0.000197808
0.000172972
0.000173118
0.000197837
0.000197819
0.000197821
0.000173123
0.000172956
0.000173131
0.000197811
0.000197807
0.000197814
0.00019781
0.00017296
0.000173135
0.000197823
0.0001978
0.000197826
0.000197802
0.000197811
0.000197831
0.000197812
0.000172953
0.000173121
0.000197824
0.000197823
0.000197825
0.000173125
0.000172963
0.000173124
0.000197815
0.000197811
0.000197814
0.000197811
0.000172967
0.000173128
0.000197827
0.000197802
0.000197827
0.000197802
0.000197813
0.000197832
0.000197813
0.000172953
0.000173117
0.000197825
0.000197824
0.000197826
0.000173122
0.000172958
0.000173128
0.000197815
0.000197811
0.000197815
0.000197812
0.000172961
0.000173132
0.000197828
0.000197803
0.000197828
0.000197803
0.000197814
0.000197832
0.000197814
0.000172951
0.00017312
0.000197827
0.000197825
0.000197827
0.000173125
0.000172962
0.000173125
0.000197816
0.000197812
0.000197815
0.000197812
0.000172965
0.000173129
0.000197828
0.000197804
0.000197828
0.000197803
0.000197814
0.000197832
0.000197814
0.000172953
0.000173119
0.000197827
0.000197825
0.000197827
0.000173124
0.000172958
0.000173126
0.000197816
0.000197812
0.000197815
0.000197812
0.000172962
0.00017313
0.000197828
0.000197804
0.000197828
0.000197803
0.000197814
0.000197832
0.000197814
0.000172953
0.000173118
0.000197827
0.000197825
0.000197827
0.000173123
0.000172958
0.000173127
0.000197816
0.000197812
0.000197815
0.000197812
0.000172962
0.000173131
0.000197828
0.000197803
0.000197828
0.000197803
0.000197814
0.000197833
0.000197814
0.000172951
0.000173119
0.000197827
0.000197825
0.000197827
0.000173123
0.00017296
0.000173127
0.000197816
0.000197812
0.000197815
0.000197812
0.000172963
0.000173132
0.000197828
0.000197804
0.000197828
0.000197803
0.000197814
0.000197833
0.000197814
0.000172952
0.00017312
0.000197827
0.000197825
0.000197827
0.000173123
0.00017296
0.000173127
0.000197816
0.000197812
0.000197815
0.000197812
0.000172964
0.000173132
0.000197828
0.000197804
0.000197828
0.000197803
0.000197814
0.000197833
0.000197814
0.000172952
0.00017312
0.000197827
0.000197825
0.000197827
0.000173124
0.00017296
0.000173127
0.000197816
0.000197812
0.000197815
0.000197812
0.000172964
0.000173132
0.000197828
0.000197803
0.000197828
0.000197803
0.000197814
0.000197833
0.000197814
0.000172953
0.00017312
0.000197827
0.000197825
0.000197827
0.000173124
0.00017296
0.000173127
0.000197816
0.000197812
0.000197815
0.000197812
0.000172964
0.000173132
0.000197828
0.000197804
0.000197828
0.000197803
0.000197814
0.000197833
0.000197814
0.000172953
0.00017312
0.000197827
0.000197825
0.000197826
0.000173124
0.00017296
0.000173127
0.000197816
0.000197812
0.000197817
0.000172964
0.000197828
0.000197804
0.000197828
0.000197803
0.000197814
0.000197815
0.000172953
0.00017312
0.000197827
0.000197824
0.000197828
0.000173126
0.000172964
0.000197828
0.000197804
0.000172953
0.000221819
0.000221819
0.000221816
0.000221818
4.33759e-05
4.94264e-05
4.33672e-05
4.94251e-05
2.54308e-05
2.54301e-05
4.33836e-05
4.9422e-05
4.33754e-05
4.94206e-05
0.000221819
0.000221816
0.000221818
0.000221819
0.00022182
0.000221816
0.000221817
0.00010097
5.29237e-05
0.000212891
0.000197885
0.000100943
5.29395e-05
0.000212892
2.54278e-05
2.54271e-05
0.000100962
0.000212887
5.29262e-05
0.000197874
0.000100936
0.000212886
5.29414e-05
3.52411e-05
3.52355e-05
0.000173193
3.52429e-05
3.52372e-05
4.33796e-05
4.94251e-05
4.33713e-05
4.94242e-05
2.54296e-05
2.54293e-05
4.33865e-05
4.94208e-05
4.33794e-05
4.94198e-05
0.000221818
0.000221816
0.000221819
0.000221818
0.000221817
0.000221815
0.000221819
0.000100969
5.29269e-05
0.000212891
0.000197882
0.000100943
5.29425e-05
0.000212888
2.54269e-05
2.54266e-05
0.000100964
0.000212886
5.2929e-05
0.000197872
0.000100937
0.000212885
5.29441e-05
3.52424e-05
3.52369e-05
0.000173191
3.52468e-05
3.52413e-05
4.33817e-05
4.94246e-05
4.33736e-05
4.94238e-05
2.54293e-05
2.54292e-05
4.33886e-05
4.94203e-05
4.33808e-05
4.94194e-05
0.000221818
0.000221815
0.000221818
0.000221819
0.000221821
0.000221814
0.000221817
0.00010097
5.29297e-05
0.000212887
0.00019788
0.000100942
5.29451e-05
0.000212888
2.54266e-05
2.54265e-05
0.000100962
0.000212885
5.29316e-05
0.00019787
0.000100936
0.000212883
5.29464e-05
3.52487e-05
3.52433e-05
0.00017319
3.52531e-05
3.52476e-05
4.33858e-05
4.94245e-05
4.33772e-05
4.94239e-05
2.54293e-05
2.54293e-05
4.33929e-05
4.94202e-05
4.33851e-05
4.94194e-05
0.000221821
0.000221813
0.000221817
0.000221818
0.000221818
0.000221813
0.000221816
0.000100974
5.29317e-05
0.000212888
0.00019788
0.000100945
5.29468e-05
0.000212888
2.54267e-05
2.54267e-05
0.000100967
0.000212884
5.29336e-05
0.000197869
0.00010094
0.000212884
5.29485e-05
3.52535e-05
3.5248e-05
0.000173188
3.52566e-05
3.52511e-05
4.33842e-05
4.94248e-05
4.33793e-05
4.94245e-05
2.54297e-05
2.54298e-05
4.33899e-05
4.94203e-05
4.33863e-05
4.94201e-05
0.000221817
0.000221813
0.000221815
0.000221813
0.000221813
0.000221804
0.000221805
0.000100965
5.29325e-05
0.000212889
0.000197876
0.000100947
5.29444e-05
0.000212888
2.54272e-05
2.54271e-05
0.000100957
0.000212885
5.29338e-05
0.000197866
0.000100939
0.000212883
5.29438e-05
3.52538e-05
3.52484e-05
0.00017318
3.5254e-05
3.52486e-05
4.33656e-05
4.94266e-05
4.33655e-05
4.94265e-05
2.54298e-05
2.54296e-05
4.33706e-05
4.94223e-05
4.3371e-05
4.94221e-05
0.000221804
0.00022179
0.000221791
0.000221786
0.000221787
0.000221786
0.000221788
0.00010091
5.29187e-05
0.000212862
0.000197842
0.000100915
5.29253e-05
0.000212852
2.54271e-05
2.54268e-05
0.000100901
0.000212854
5.29178e-05
0.000197826
0.000100906
0.000212847
5.29242e-05
3.52471e-05
3.52419e-05
0.000173126
3.52458e-05
3.52405e-05
4.3355e-05
4.94274e-05
4.33501e-05
4.94266e-05
2.54295e-05
2.54294e-05
4.33614e-05
4.9423e-05
4.33567e-05
4.94222e-05
0.00022179
0.00022179
0.000221791
0.000221795
0.000221796
0.000221793
0.000221794
0.000100907
5.29014e-05
0.00021285
0.00019783
0.000100878
5.29137e-05
0.000212852
2.54268e-05
2.54267e-05
0.0001009
0.000212848
5.29034e-05
0.000197823
0.000100872
0.000212851
5.29161e-05
3.52391e-05
3.52338e-05
0.00017313
3.52404e-05
3.52349e-05
4.33535e-05
4.94272e-05
4.33465e-05
4.94264e-05
2.54294e-05
2.54293e-05
4.33602e-05
4.94228e-05
4.33538e-05
4.94221e-05
0.000221797
0.000221793
0.000221795
0.000221796
0.000221796
0.000221793
0.000221795
0.000100907
5.28978e-05
0.000212853
0.000197831
0.000100882
5.29121e-05
0.000212853
2.54268e-05
2.54267e-05
0.000100901
0.00021285
5.29013e-05
0.000197824
0.000100876
0.00021285
5.29153e-05
3.52376e-05
3.52322e-05
0.000173121
3.52398e-05
3.52344e-05
4.33534e-05
4.94271e-05
4.33463e-05
4.94264e-05
2.54294e-05
2.54293e-05
4.33602e-05
4.94228e-05
4.33536e-05
4.9422e-05
0.000221796
0.000221793
0.000221795
0.000221796
0.000221796
0.000221793
0.000221795
0.000100907
5.28975e-05
0.000212853
0.000197832
0.000100881
5.29121e-05
0.000212854
2.54268e-05
2.54267e-05
0.000100902
0.000212851
5.29012e-05
0.000197825
0.000100876
0.000212852
5.29153e-05
3.52376e-05
3.52321e-05
0.000173124
3.52398e-05
3.52344e-05
4.33534e-05
4.94271e-05
4.33463e-05
4.94264e-05
2.54294e-05
2.54293e-05
4.33602e-05
4.94228e-05
4.33536e-05
4.9422e-05
0.000221797
0.000221793
0.000221795
0.000221796
0.000221796
0.000221793
0.000221795
0.000100905
5.28975e-05
0.000212853
0.000197832
0.000100881
5.29121e-05
0.000212854
2.54268e-05
2.54267e-05
0.000100901
0.000212851
5.29012e-05
0.000197825
0.000100876
0.000212851
5.29152e-05
3.52376e-05
3.52321e-05
0.000173122
3.52398e-05
3.52344e-05
4.33534e-05
4.94271e-05
4.33463e-05
4.94264e-05
2.54294e-05
2.54293e-05
4.33602e-05
4.94228e-05
4.33536e-05
4.9422e-05
0.000221797
0.000221793
0.000221795
0.000221796
0.000221796
0.000221793
0.000221795
0.000100906
5.28975e-05
0.000212853
0.000197833
0.000100879
5.29121e-05
0.000212854
2.54268e-05
2.54267e-05
0.000100899
0.000212851
5.29012e-05
0.000197825
0.000100874
0.000212851
5.29152e-05
3.52376e-05
3.52321e-05
0.000173124
3.52398e-05
3.52343e-05
4.33534e-05
4.94271e-05
4.33463e-05
4.94264e-05
2.54294e-05
2.54293e-05
4.33602e-05
4.94228e-05
4.33536e-05
4.9422e-05
0.000221797
0.000221793
0.000221795
0.000221796
0.000221796
0.000221793
0.000221795
0.000100906
5.28975e-05
0.000212854
0.000197833
0.00010088
5.29121e-05
0.000212854
2.54268e-05
2.54267e-05
0.000100898
0.000212851
5.29012e-05
0.000197825
0.000100872
0.000212851
5.29152e-05
3.52376e-05
3.52321e-05
0.000173124
3.52398e-05
3.52343e-05
4.33534e-05
4.94271e-05
4.33463e-05
4.94264e-05
2.54294e-05
2.54293e-05
4.33602e-05
4.94228e-05
4.33536e-05
4.9422e-05
0.000221797
0.000221793
0.000221795
0.000221796
0.000221796
0.000221793
0.000221795
0.000100906
5.28975e-05
0.000212853
0.000197833
0.000100881
5.29121e-05
0.000212854
2.54268e-05
2.54267e-05
0.000100897
0.000212851
5.29012e-05
0.000197825
0.000100871
0.000212851
5.29152e-05
3.52376e-05
3.52321e-05
0.000173124
3.52398e-05
3.52343e-05
4.33534e-05
4.94271e-05
4.33463e-05
4.94264e-05
2.54294e-05
2.54293e-05
4.33602e-05
4.94228e-05
4.33536e-05
4.9422e-05
0.000221797
0.000221793
0.000221795
0.000221796
0.000221796
0.000221793
0.000221795
0.000100906
5.28975e-05
0.000212854
0.000197833
0.000100879
5.29121e-05
0.000212854
2.54268e-05
2.54267e-05
0.000100897
0.000212851
5.29011e-05
0.000197825
0.000100871
0.000212851
5.29152e-05
3.52376e-05
3.52321e-05
0.000173124
3.52398e-05
3.52343e-05
4.33534e-05
4.94271e-05
4.33463e-05
4.94264e-05
2.54294e-05
2.54293e-05
4.33602e-05
4.94228e-05
4.33536e-05
4.9422e-05
0.000221797
0.000221793
0.000221795
0.000221796
0.000221796
0.000221793
0.000221795
0.000100906
5.28975e-05
0.000212854
0.000197833
0.000100881
5.29121e-05
0.000212854
2.54268e-05
2.54267e-05
0.000100896
0.000212851
5.29012e-05
0.000197825
0.000100871
0.000212851
5.29152e-05
3.52376e-05
3.52321e-05
0.000173123
3.52398e-05
3.52343e-05
4.33534e-05
4.94271e-05
4.33463e-05
4.94264e-05
2.54294e-05
2.54293e-05
4.33602e-05
4.94228e-05
4.33536e-05
4.9422e-05
0.000221797
0.000221793
0.000221795
0.000221796
0.000221796
0.000221793
0.000221795
0.000100906
5.28975e-05
0.000212853
0.000197833
0.000100879
5.29121e-05
0.000212854
2.54268e-05
2.54267e-05
0.000100896
0.00021285
5.29011e-05
0.000197825
0.00010087
0.000212851
5.29152e-05
3.52376e-05
3.52321e-05
0.000173123
3.52398e-05
3.52343e-05
4.33534e-05
4.94271e-05
4.33463e-05
4.94264e-05
2.54294e-05
2.54293e-05
4.33602e-05
4.94228e-05
4.33536e-05
4.9422e-05
0.000221797
0.000221793
0.000221795
0.000221796
0.000221799
0.000221793
0.000221795
0.000100908
5.28975e-05
0.000212853
0.000197832
0.000100882
5.29121e-05
0.000212854
2.54268e-05
2.54267e-05
0.000100896
0.00021285
5.29011e-05
0.000197825
0.00010087
0.000212851
5.29152e-05
3.52376e-05
3.52321e-05
0.000173124
3.52399e-05
3.52343e-05
4.94228e-05
4.33537e-05
0.000221794
2.54268e-05
5.29019e-05
2.5432e-05
2.543e-05
3.5245e-05
3.52385e-05
4.94259e-05
4.33738e-05
4.94258e-05
4.33746e-05
5.29429e-05
0.00021289
0.000100973
5.29404e-05
0.000212889
0.000100974
2.54309e-05
3.52398e-05
3.52331e-05
2.54315e-05
4.94213e-05
4.33814e-05
5.29338e-05
0.00021289
0.000100978
4.33722e-05
4.94182e-05
4.94194e-05
4.33794e-05
0.000100946
0.000197854
0.000212885
5.29278e-05
0.000212885
5.2913e-05
0.000100971
0.000100945
5.29378e-05
0.000212891
0.00021289
0.000100969
4.3366e-05
4.94238e-05
4.33739e-05
0.000100944
0.000197864
0.000212889
5.29395e-05
0.000212889
5.29253e-05
0.000100969
4.33657e-05
4.94219e-05
4.94232e-05
4.33736e-05
2.54277e-05
2.54286e-05
0.000172995
3.5227e-05
3.52438e-05
3.52249e-05
3.5242e-05
2.54304e-05
2.54311e-05
0.000100938
0.000197875
0.000212887
5.29399e-05
0.000212888
5.29257e-05
0.000100963
0.000100945
0.000197877
0.000212887
5.29364e-05
0.000212887
5.29221e-05
0.000100969
4.33652e-05
4.94216e-05
4.94229e-05
4.33731e-05
4.33714e-05
4.94216e-05
4.94229e-05
4.33786e-05
0.000173001
3.52438e-05
3.52381e-05
3.52425e-05
3.52365e-05
2.54302e-05
2.5431e-05
2.54292e-05
2.54299e-05
2.54319e-05
2.54312e-05
2.54299e-05
2.54292e-05
3.52427e-05
3.52361e-05
0.000173195
3.52441e-05
3.52374e-05
2.54307e-05
2.54312e-05
2.54287e-05
2.54292e-05
0.000173028
3.52444e-05
3.52378e-05
3.52418e-05
3.52351e-05
4.33767e-05
4.94262e-05
4.33688e-05
4.9425e-05
0.000100972
5.29305e-05
0.00021289
0.000197867
0.000100949
5.29446e-05
0.00021289
0.000100973
5.29277e-05
0.000212889
0.000197863
0.00010095
5.29421e-05
0.000212889
4.33702e-05
4.94245e-05
4.94255e-05
4.3378e-05
4.3371e-05
4.94244e-05
4.94254e-05
4.33787e-05
0.000100949
0.000197867
5.2946e-05
0.00021289
5.29321e-05
0.000212891
0.000100971
0.000100949
0.000197863
5.29436e-05
0.000212889
5.29294e-05
0.00021289
0.000100973
3.52374e-05
3.52305e-05
0.000173199
3.52392e-05
3.52343e-05
2.54315e-05
2.54307e-05
2.54296e-05
2.54301e-05
0.000173032
3.52404e-05
3.52364e-05
3.52372e-05
3.52323e-05
2.54302e-05
2.54308e-05
0.000100978
5.29207e-05
0.00021289
0.000197879
0.000100955
5.29355e-05
0.000212889
4.33816e-05
4.94187e-05
4.33743e-05
4.94175e-05
0.000100973
0.000212886
5.29147e-05
0.000197855
0.000100948
0.000212886
5.29295e-05
4.33786e-05
4.94201e-05
4.94212e-05
4.33856e-05
0.000100955
0.000197879
5.29369e-05
0.000212889
5.29223e-05
0.000212889
0.000100976
4.33765e-05
4.94172e-05
4.94181e-05
4.33833e-05
0.000100948
0.000197855
0.000212885
5.2931e-05
0.000212886
5.29164e-05
0.000100973
4.33759e-05
4.94246e-05
4.33681e-05
4.94233e-05
0.00010097
0.000212889
5.29269e-05
0.000197865
0.000100946
0.000212889
5.2941e-05
4.33757e-05
4.94223e-05
4.33678e-05
4.94212e-05
0.000100946
0.000197885
5.29411e-05
0.000212891
5.29265e-05
0.000212891
0.00010097
4.33701e-05
4.94228e-05
4.94239e-05
4.33777e-05
0.000100946
0.000197865
0.000212889
5.29424e-05
0.00021289
5.29283e-05
0.00010097
4.33699e-05
4.94208e-05
4.94217e-05
4.33777e-05
3.52243e-05
3.52411e-05
0.000173187
3.52282e-05
3.52429e-05
2.54303e-05
2.54297e-05
2.54268e-05
2.54272e-05
0.00017302
3.523e-05
3.52441e-05
3.5226e-05
3.52407e-05
2.54294e-05
2.54298e-05
0.00010097
0.000212888
5.29237e-05
0.000197878
0.000100946
0.000212888
5.2938e-05
4.33751e-05
4.94221e-05
4.33672e-05
4.94209e-05
4.33807e-05
4.9422e-05
4.33735e-05
4.94209e-05
0.000100938
0.000197874
0.000212886
5.29427e-05
0.000212887
5.29288e-05
0.000100964
0.000100946
0.000197878
0.000212888
5.29393e-05
0.000212888
5.29252e-05
0.00010097
4.33692e-05
4.94205e-05
4.94215e-05
4.33769e-05
4.33755e-05
4.94205e-05
4.94214e-05
4.33823e-05
2.54301e-05
2.54295e-05
2.54291e-05
2.54285e-05
0.000173026
3.52442e-05
3.52385e-05
3.52408e-05
3.52351e-05
2.54292e-05
2.54296e-05
2.54282e-05
2.54286e-05
2.54308e-05
2.54304e-05
2.54288e-05
2.54284e-05
3.52427e-05
3.5236e-05
0.000173194
3.52467e-05
3.524e-05
2.54303e-05
2.54305e-05
2.54283e-05
2.54285e-05
0.000173027
3.525e-05
3.52432e-05
3.52453e-05
3.52385e-05
4.33802e-05
4.9425e-05
4.33729e-05
4.94241e-05
0.000100974
5.29335e-05
0.000212888
0.000197866
0.000100947
5.29474e-05
0.000212887
0.000100975
5.29308e-05
0.000212887
0.000197862
0.000100949
5.29449e-05
0.000212886
4.33736e-05
4.94239e-05
4.94248e-05
4.33805e-05
4.33742e-05
4.94239e-05
4.94247e-05
4.33811e-05
0.000100951
0.000197866
5.29486e-05
0.000212887
5.29349e-05
0.000212887
0.000100974
0.000100952
0.000197862
5.29462e-05
0.000212886
5.29322e-05
0.000212886
0.000100975
3.52386e-05
3.52343e-05
0.000173198
3.52423e-05
3.52382e-05
2.54303e-05
2.54299e-05
2.54292e-05
2.54294e-05
0.00017303
3.52451e-05
3.52413e-05
3.52407e-05
3.52362e-05
2.54298e-05
2.54301e-05
0.000100977
5.29237e-05
0.000212888
0.000197878
0.000100952
5.29383e-05
0.000212888
4.33841e-05
4.94178e-05
4.33779e-05
4.94169e-05
0.000100975
0.000212883
5.29178e-05
0.000197854
0.000100949
0.000212883
5.29324e-05
4.3381e-05
4.94195e-05
4.94204e-05
4.33871e-05
0.000100953
0.000197878
5.29396e-05
0.000212888
5.29251e-05
0.000212889
0.000100974
4.33786e-05
4.94167e-05
4.94176e-05
4.33851e-05
0.000100952
0.000197854
0.000212882
5.29339e-05
0.000212882
5.29193e-05
0.000100974
4.33787e-05
4.94234e-05
4.33718e-05
4.94225e-05
0.000100972
0.000212887
5.29298e-05
0.000197864
0.000100947
0.000212887
5.29439e-05
4.3379e-05
4.94214e-05
4.33718e-05
4.94205e-05
0.000100946
0.000197882
5.29439e-05
0.000212888
5.29294e-05
0.000212888
0.000100969
4.33727e-05
4.94223e-05
4.94232e-05
4.33796e-05
0.000100949
0.000197865
0.000212886
5.29452e-05
0.000212886
5.29313e-05
0.000100971
4.3373e-05
4.94204e-05
4.94211e-05
4.338e-05
3.52277e-05
3.52424e-05
0.000173186
3.5232e-05
3.52469e-05
2.54295e-05
2.54292e-05
2.54265e-05
2.54267e-05
0.000173019
3.52352e-05
3.52503e-05
3.52301e-05
3.52455e-05
2.54291e-05
2.54293e-05
0.000100972
0.000212886
5.29266e-05
0.000197877
0.000100947
0.000212885
5.29409e-05
4.33779e-05
4.94211e-05
4.33709e-05
4.94203e-05
4.3383e-05
4.94211e-05
4.33769e-05
4.94202e-05
0.00010094
0.000197872
0.000212885
5.29454e-05
0.000212885
5.29315e-05
0.000100963
0.000100949
0.000197877
0.000212885
5.29421e-05
0.000212885
5.29281e-05
0.000100971
4.33717e-05
4.94201e-05
4.94209e-05
4.33788e-05
4.33776e-05
4.942e-05
4.94208e-05
4.3384e-05
2.54293e-05
2.5429e-05
2.54283e-05
2.5428e-05
0.000173024
3.52501e-05
3.52447e-05
3.52454e-05
3.52399e-05
2.54289e-05
2.54291e-05
2.54279e-05
2.54281e-05
2.54304e-05
2.54302e-05
2.54284e-05
2.54282e-05
3.52487e-05
3.52418e-05
0.000173193
3.52534e-05
3.52465e-05
2.54303e-05
2.54304e-05
2.54283e-05
2.54284e-05
0.000173026
3.52561e-05
3.52491e-05
3.52519e-05
3.5245e-05
4.33823e-05
4.94245e-05
4.33751e-05
4.94237e-05
0.000100973
5.29361e-05
0.000212887
0.000197867
0.000100949
5.29498e-05
0.000212887
0.000100974
5.29334e-05
0.000212886
0.000197863
0.00010095
5.29473e-05
0.000212886
4.3376e-05
4.94238e-05
4.94245e-05
4.33838e-05
4.33765e-05
4.94237e-05
4.94244e-05
4.33842e-05
0.000100949
0.000197867
5.29508e-05
0.000212888
5.29372e-05
0.000212888
0.000100976
0.00010095
0.000197863
5.29482e-05
0.000212887
5.29345e-05
0.000212887
0.000100975
3.52437e-05
3.52397e-05
0.000173197
3.52483e-05
3.52449e-05
2.54299e-05
2.54297e-05
2.54292e-05
2.54293e-05
0.000173029
3.52509e-05
3.52473e-05
3.52468e-05
3.5243e-05
2.54298e-05
2.54299e-05
0.000100976
5.29264e-05
0.000212888
0.000197879
0.00010095
5.29408e-05
0.000212888
4.3387e-05
4.94174e-05
4.33799e-05
4.94167e-05
0.000100975
0.000212883
5.29207e-05
0.000197854
0.00010095
0.000212882
5.29353e-05
4.33836e-05
4.94194e-05
4.94201e-05
4.3391e-05
0.000100953
0.000197879
5.29417e-05
0.000212889
5.29275e-05
0.000212889
0.000100978
4.3382e-05
4.94167e-05
4.94174e-05
4.33894e-05
0.00010095
0.000197854
0.000212882
5.29363e-05
0.000212882
5.29221e-05
0.000100976
4.33812e-05
4.9423e-05
4.33737e-05
4.94222e-05
0.000100971
0.000212886
5.29325e-05
0.000197865
0.000100946
0.000212886
5.29463e-05
4.33815e-05
4.9421e-05
4.3374e-05
4.94203e-05
0.000100946
0.00019788
5.2946e-05
0.000212887
5.29319e-05
0.000212888
0.000100971
4.33755e-05
4.94222e-05
4.94229e-05
4.33833e-05
0.000100947
0.000197865
0.000212886
5.29473e-05
0.000212886
5.29335e-05
0.000100974
4.33757e-05
4.94203e-05
4.94209e-05
4.33835e-05
3.52334e-05
3.52489e-05
0.000173184
3.52382e-05
3.52533e-05
2.54292e-05
2.54291e-05
2.54266e-05
2.54267e-05
0.000173017
3.52404e-05
3.52555e-05
3.52362e-05
3.52517e-05
2.54292e-05
2.54293e-05
0.000100971
0.000212883
5.29293e-05
0.000197878
0.000100946
0.000212883
5.29432e-05
4.33805e-05
4.94207e-05
4.33728e-05
4.942e-05
4.3386e-05
4.94207e-05
4.33788e-05
4.942e-05
0.000100938
0.00019787
0.000212883
5.29474e-05
0.000212882
5.29338e-05
0.000100966
0.000100948
0.000197877
0.000212884
5.29442e-05
0.000212883
5.29304e-05
0.000100974
4.33746e-05
4.942e-05
4.94207e-05
4.33826e-05
4.33809e-05
4.942e-05
4.94207e-05
4.33882e-05
2.54291e-05
2.54289e-05
2.5428e-05
2.54279e-05
0.000173023
3.52553e-05
3.52498e-05
3.52515e-05
3.5246e-05
2.5429e-05
2.54291e-05
2.5428e-05
2.54281e-05
2.54304e-05
2.54304e-05
2.54284e-05
2.54284e-05
3.52545e-05
3.52474e-05
0.000173192
3.52579e-05
3.52508e-05
2.54306e-05
2.54306e-05
2.54286e-05
2.54286e-05
0.000173025
3.52587e-05
3.52516e-05
3.5256e-05
3.52489e-05
4.33862e-05
4.94244e-05
4.33785e-05
4.94237e-05
0.000100978
5.29382e-05
0.000212889
0.000197867
0.000100953
5.29519e-05
0.000212889
0.000100979
5.29354e-05
0.000212889
0.000197863
0.000100951
5.29493e-05
0.000212889
4.33799e-05
4.9424e-05
4.94245e-05
4.33865e-05
4.33804e-05
4.94238e-05
4.94244e-05
4.3387e-05
0.000100955
0.000197867
5.29526e-05
0.000212889
5.29394e-05
0.00021289
0.000100978
0.000100956
0.000197863
5.295e-05
0.000212889
5.29365e-05
0.00021289
0.000100979
3.52492e-05
3.52453e-05
0.000173196
3.52526e-05
3.52488e-05
2.543e-05
2.54299e-05
2.54295e-05
2.54295e-05
0.000173029
3.52534e-05
3.52493e-05
3.52507e-05
3.52465e-05
2.54301e-05
2.54301e-05
0.000100979
5.29284e-05
0.00021289
0.000197879
0.000100955
5.29428e-05
0.00021289
4.33911e-05
4.94175e-05
4.33844e-05
4.94168e-05
0.000100979
0.000212884
5.29231e-05
0.000197849
0.000100953
0.000212885
5.29374e-05
4.33875e-05
4.94195e-05
4.94202e-05
4.33931e-05
0.000100956
0.00019788
5.29435e-05
0.00021289
5.29295e-05
0.000212891
0.000100976
4.33857e-05
4.9417e-05
4.94175e-05
4.33912e-05
0.000100955
0.000197849
0.000212885
5.29369e-05
0.000212886
5.2924e-05
0.000100975
4.33849e-05
4.94229e-05
4.33777e-05
4.94222e-05
0.000100975
0.000212886
5.29346e-05
0.00019786
0.000100951
0.000212886
5.29484e-05
4.33849e-05
4.9421e-05
4.33778e-05
4.94203e-05
0.000100951
0.000197879
5.29473e-05
0.000212889
5.29336e-05
0.000212889
0.000100974
4.33789e-05
4.94222e-05
4.94229e-05
4.33852e-05
0.000100951
0.00019786
0.000212888
5.29482e-05
0.000212887
5.29357e-05
0.000100972
4.33787e-05
4.94206e-05
4.9421e-05
4.33847e-05
3.52381e-05
3.52537e-05
0.000173182
3.52416e-05
3.52568e-05
2.54294e-05
2.54293e-05
2.54269e-05
2.54269e-05
0.000173015
3.52414e-05
3.52567e-05
3.52391e-05
3.52548e-05
2.54296e-05
2.54295e-05
0.000100976
0.000212885
5.29314e-05
0.000197873
0.000100951
0.000212886
5.29454e-05
4.33841e-05
4.94207e-05
4.33768e-05
4.94201e-05
4.33898e-05
4.94207e-05
4.33832e-05
4.942e-05
0.000100943
0.000197869
0.000212885
5.29485e-05
0.000212885
5.29358e-05
0.000100966
0.000100951
0.000197873
0.000212886
5.29452e-05
0.000212887
5.29326e-05
0.000100971
4.33779e-05
4.94203e-05
4.94208e-05
4.33844e-05
4.33843e-05
4.94203e-05
4.94207e-05
4.33896e-05
2.54292e-05
2.54291e-05
2.54282e-05
2.54281e-05
0.000173021
3.52566e-05
3.52511e-05
3.52546e-05
3.52492e-05
2.54294e-05
2.54293e-05
2.54284e-05
2.54283e-05
2.54308e-05
2.54309e-05
2.54288e-05
2.54289e-05
3.52564e-05
3.52493e-05
0.000173189
3.52571e-05
3.525e-05
2.54309e-05
2.54311e-05
2.54289e-05
2.54291e-05
0.00017302
3.5254e-05
3.52471e-05
3.52541e-05
3.5247e-05
4.33849e-05
4.94246e-05
4.33807e-05
4.94244e-05
0.000100969
5.29396e-05
0.000212889
0.000197861
0.00010095
5.29502e-05
0.000212888
0.00010097
5.29367e-05
0.000212889
0.000197857
0.000100952
5.29477e-05
0.000212888
4.33763e-05
4.94257e-05
4.94254e-05
4.33756e-05
4.33769e-05
4.94254e-05
4.94252e-05
4.33763e-05
0.00010094
0.000197858
5.29425e-05
0.000212882
5.29359e-05
0.000212886
0.000100958
0.000100941
0.000197854
5.294e-05
0.000212882
5.2933e-05
0.000212886
0.000100958
3.52512e-05
3.52465e-05
0.000173192
3.52518e-05
3.52473e-05
2.54304e-05
2.54304e-05
2.54298e-05
2.543e-05
0.000173022
3.52487e-05
3.52444e-05
3.52488e-05
3.52439e-05
2.54304e-05
2.54307e-05
0.000100968
5.29299e-05
0.000212889
0.000197874
0.000100949
5.29411e-05
0.000212887
4.33867e-05
4.94179e-05
4.33851e-05
4.94179e-05
0.000100965
0.000212884
5.29227e-05
0.000197846
0.000100947
0.000212882
5.29319e-05
4.33822e-05
4.94212e-05
4.9421e-05
4.33805e-05
0.00010094
0.000197872
5.29333e-05
0.000212878
5.2926e-05
0.000212884
0.000100955
4.33786e-05
4.94189e-05
4.94188e-05
4.33769e-05
0.000100936
0.000197842
0.000212871
5.29226e-05
0.000212879
5.29162e-05
0.000100951
4.33801e-05
4.9423e-05
4.33785e-05
4.94227e-05
0.000100962
0.000212887
5.29345e-05
0.000197856
0.000100944
0.000212885
5.29432e-05
4.33795e-05
4.94214e-05
4.33779e-05
4.94214e-05
0.000100935
0.000197873
5.2936e-05
0.000212878
5.29292e-05
0.000212885
0.000100947
4.33712e-05
4.94239e-05
4.94236e-05
4.33702e-05
0.000100933
0.000197852
0.000212873
5.29339e-05
0.000212882
5.2928e-05
0.000100946
4.33705e-05
4.94224e-05
4.94223e-05
4.33695e-05
3.52382e-05
3.5254e-05
0.000173175
3.52388e-05
3.52542e-05
2.54298e-05
2.54298e-05
2.5427e-05
2.54273e-05
0.000173003
3.52352e-05
3.52509e-05
3.52351e-05
3.52511e-05
2.54296e-05
2.54299e-05
0.000100962
0.000212885
5.29314e-05
0.000197868
0.000100944
0.000212883
5.29402e-05
4.33794e-05
4.94211e-05
4.33777e-05
4.94211e-05
4.33845e-05
4.94211e-05
4.33835e-05
4.94211e-05
0.000100927
0.000197862
0.000212871
5.29346e-05
0.00021288
5.29287e-05
0.000100939
0.000100933
0.000197864
0.00021287
5.29308e-05
0.00021288
5.29249e-05
0.000100946
4.33704e-05
4.94222e-05
4.94221e-05
4.33696e-05
4.33763e-05
4.94222e-05
4.9422e-05
4.33747e-05
2.54296e-05
2.54296e-05
2.54286e-05
2.54285e-05
0.000173008
3.52506e-05
3.52452e-05
3.52508e-05
3.52455e-05
2.54294e-05
2.54297e-05
2.54284e-05
2.54287e-05
2.5431e-05
2.54307e-05
2.5429e-05
2.54287e-05
3.52508e-05
3.52439e-05
0.000173141
3.52499e-05
3.52432e-05
2.54305e-05
2.54308e-05
2.54285e-05
2.54287e-05
0.000172961
3.5245e-05
3.52383e-05
3.52464e-05
3.52396e-05
4.33663e-05
4.94263e-05
4.33671e-05
4.94263e-05
0.000100929
5.29271e-05
0.000212873
0.000197827
0.000100928
5.2932e-05
0.000212856
0.00010093
5.29242e-05
0.000212872
0.000197822
0.000100928
5.29296e-05
0.000212854
4.33571e-05
4.94267e-05
4.94273e-05
4.33584e-05
4.33577e-05
4.94265e-05
4.94271e-05
4.33591e-05
0.000100893
0.000197816
5.29232e-05
0.000212845
5.29165e-05
0.000212848
0.000100901
0.000100893
0.000197812
5.29207e-05
0.000212844
5.29137e-05
0.000212847
0.000100902
3.52455e-05
3.52411e-05
0.000173144
3.52447e-05
3.5241e-05
2.54305e-05
2.54301e-05
2.54294e-05
2.54297e-05
0.000172964
3.52397e-05
3.52359e-05
3.52411e-05
3.52373e-05
2.543e-05
2.54303e-05
0.000100921
5.29172e-05
0.000212865
0.000197838
0.000100925
5.29229e-05
0.000212851
4.33677e-05
4.94198e-05
4.33685e-05
4.94194e-05
0.000100915
0.000212854
5.29063e-05
0.000197805
0.00010092
0.000212846
5.29122e-05
4.33628e-05
4.94223e-05
4.94229e-05
4.33642e-05
0.000100886
0.000197828
5.29141e-05
0.000212844
5.29067e-05
0.000212846
0.000100903
4.33602e-05
4.94194e-05
4.94201e-05
4.33621e-05
0.000100882
0.000197799
0.000212842
5.2906e-05
0.000212842
5.28965e-05
0.000100903
4.33615e-05
4.94248e-05
4.33613e-05
4.94247e-05
0.000100907
0.000212856
5.29181e-05
0.000197815
0.000100914
0.000212849
5.29235e-05
4.33608e-05
4.94233e-05
4.33606e-05
4.9423e-05
0.000100879
0.000197832
5.29172e-05
0.000212848
5.29094e-05
0.000212848
0.000100903
4.33534e-05
4.94249e-05
4.94255e-05
4.33564e-05
0.000100877
0.000197809
0.000212846
5.29176e-05
0.000212845
5.29084e-05
0.000100902
4.33528e-05
4.9423e-05
4.94237e-05
4.33559e-05
3.52314e-05
3.52475e-05
0.000173121
3.52305e-05
3.52462e-05
2.54297e-05
2.54294e-05
2.54267e-05
2.5427e-05
0.000172947
3.52263e-05
3.52423e-05
3.52265e-05
3.52427e-05
2.54293e-05
2.54295e-05
0.000100907
0.000212853
5.29149e-05