/*--------------------------------*- C++ -*----------------------------------*\
| =========                 |                                                 |
| \\      /  F ield         | OpenFOAM: The Open Source CFD Toolbox           |
|  \\    /   O peration     | Version:  2206                                  |
|   \\  /    A nd           | Website:  www.openfoam.com                      |
|    \\/     M anipulation  |                                                 |
\*---------------------------------------------------------------------------*/
FoamFile
{
    version     2.0;
    format      ascii;
    arch        "LSB;label=32;scalar=64";
    class       volScalarField;
    location    "35.5";
    object      nut;
}
// * * * * * * * * * * * * * * * * * * * * * * * * * * * * * * * * * * * * * //

dimensions      [0 2 -1 0 0 0 0];

internalField   nonuniform List<scalar> 
28448
(
0.00021197
0.000178716
0.000178705
0.000149835
0.00021197
0.000178717
0.000178704
0.000149832
0.000211969
0.000178715
0.000178703
0.000149831
0.000211969
0.000178713
0.000178701
0.000149831
0.000211969
0.000178713
0.0001787
0.00014983
0.000211968
0.000178713
0.000178699
0.000149829
0.000211968
0.000178708
0.000178696
0.000149825
0.000211962
0.000178699
0.000178684
0.000149803
0.000211935
0.000178667
0.000178657
0.000149776
0.000211942
0.00017867
0.000178659
0.000149784
0.000211942
0.00017867
0.00017866
0.000149778
0.000211943
0.000178671
0.000178661
0.000149781
0.000211943
0.000178671
0.000178661
0.000149781
0.000211943
0.000178671
0.000178661
0.000149781
0.000211943
0.000178671
0.000178661
0.00014978
0.000211943
0.000178671
0.000178661
0.000149779
0.000211943
0.000178671
0.000178661
0.00014978
0.000211945
0.000178662
0.000149963
0.000178693
0.000178687
0.000149965
0.00017871
0.000178678
0.000178716
0.000178691
0.000150017
0.000178706
0.000178709
0.000150021
0.000149789
0.000150021
0.000178693
0.000178687
0.000178693
0.000178687
0.00014979
0.000150026
0.00017871
0.00017868
0.00017871
0.000178678
0.000178693
0.000178717
0.000178691
0.000149832
0.000150013
0.000178711
0.000178704
0.000178709
0.000150017
0.000149836
0.000150021
0.000178693
0.000178687
0.000178692
0.000178686
0.000149841
0.000150026
0.00017871
0.000178678
0.000178709
0.000178677
0.000178691
0.000178715
0.000178691
0.000149828
0.000150013
0.000178709
0.000178703
0.000178708
0.000150017
0.000149836
0.00015002
0.000178692
0.000178687
0.000178691
0.000178686
0.000149841
0.000150025
0.00017871
0.000178678
0.000178709
0.000178677
0.000178691
0.000178713
0.000178691
0.000149828
0.000150012
0.000178709
0.000178701
0.000178708
0.000150016
0.000149836
0.00015002
0.000178692
0.000178686
0.000178691
0.000178685
0.00014984
0.000150024
0.000178709
0.000178678
0.000178708
0.000178678
0.000178691
0.000178713
0.000178691
0.000149827
0.000150011
0.000178707
0.000178701
0.000178707
0.000150016
0.000149835
0.000150019
0.000178691
0.000178685
0.000178691
0.000178685
0.000149839
0.000150024
0.000178708
0.000178678
0.000178708
0.000178675
0.000178692
0.000178714
0.000178689
0.000149826
0.000150009
0.000178708
0.000178699
0.000178708
0.000150015
0.000149834
0.000150019
0.000178691
0.000178685
0.000178691
0.000178685
0.000149839
0.000150023
0.000178708
0.000178672
0.000178707
0.000178669
0.000178687
0.000178708
0.000178683
0.000149824
0.000150007
0.000178706
0.000178697
0.000178701
0.000150011
0.000149834
0.000150009
0.00017869
0.000178684
0.000178682
0.000178675
0.000149838
0.000150012
0.000178707
0.000178667
0.000178701
0.000178662
0.000178681
0.000178702
0.000178675
0.000149822
0.000149992
0.000178699
0.00017869
0.000178692
0.000149996
0.00014982
0.000149972
0.000178678
0.000178672
0.000178649
0.000178643
0.000149823
0.000149976
0.000178696
0.000178657
0.000178666
0.00017863
0.000178669
0.000178672
0.000178642
0.000149802
0.000149961
0.000178686
0.000178659
0.00017866
0.000149965
0.000149783
0.000149974
0.000178645
0.000178638
0.000178646
0.000178639
0.000149787
0.000149979
0.000178661
0.000178628
0.000178663
0.000178631
0.000178641
0.000178669
0.000178644
0.000149775
0.000149966
0.000178659
0.000178659
0.000178662
0.000149971
0.00014979
0.00014997
0.000178647
0.000178641
0.000178647
0.000178641
0.000149795
0.000149975
0.000178664
0.000178631
0.000178664
0.000178631
0.000178645
0.00017867
0.000178645
0.000149781
0.00014996
0.000178663
0.00017866
0.000178663
0.000149963
0.000149785
0.000149971
0.000178647
0.000178641
0.000178648
0.000178642
0.000149789
0.000149975
0.000178664
0.000178632
0.000178665
0.000178633
0.000178645
0.000178671
0.000178646
0.000149775
0.000149963
0.000178663
0.000178661
0.000178664
0.000149967
0.000149787
0.00014997
0.000178649
0.000178643
0.000178648
0.000178642
0.000149791
0.000149975
0.000178666
0.000178633
0.000178665
0.000178633
0.000178646
0.000178671
0.000178646
0.000149779
0.000149962
0.000178665
0.000178661
0.000178664
0.000149966
0.000149786
0.000149969
0.000178648
0.000178642
0.000178648
0.000178642
0.000149791
0.000149974
0.000178665
0.000178633
0.000178665
0.000178633
0.000178646
0.000178671
0.000178646
0.000149778
0.000149962
0.000178664
0.000178661
0.000178664
0.000149966
0.000149785
0.00014997
0.000178649
0.000178643
0.000178648
0.000178642
0.00014979
0.000149975
0.000178666
0.000178633
0.000178665
0.000178633
0.000178646
0.000178671
0.000178646
0.000149778
0.000149961
0.000178664
0.000178661
0.000178664
0.000149965
0.000149785
0.000149972
0.000178649
0.000178643
0.000178648
0.000178642
0.000149789
0.000149977
0.000178666
0.000178633
0.000178665
0.000178633
0.000178646
0.000178671
0.000178646
0.000149777
0.000149962
0.000178664
0.000178661
0.000178664
0.000149965
0.000149787
0.000149971
0.000178648
0.000178642
0.000178648
0.000178642
0.000149791
0.000149976
0.000178665
0.000178633
0.000178665
0.000178633
0.000178646
0.000178672
0.000178646
0.000149777
0.000149962
0.000178664
0.000178661
0.000178664
0.000149966
0.000149787
0.00014997
0.000178649
0.000178643
0.000178649
0.000149791
0.000178666
0.000178633
0.000178665
0.000178633
0.000178646
0.000178647
0.000149778
0.000149962
0.000178664
0.000178661
0.000178665
0.000149968
0.000149788
0.000178666
0.000178633
0.000149777
0.00021197
0.00021197
0.000211964
0.000211968
3.90344e-05
4.94736e-05
3.9028e-05
4.94727e-05
2.47254e-05
2.47251e-05
3.90411e-05
4.94694e-05
3.9035e-05
4.94684e-05
0.00021197
0.000211965
0.000211968
0.00021197
0.000211971
0.000211964
0.000211967
8.13416e-05
4.70399e-05
0.000198107
0.000178717
8.13173e-05
4.70514e-05
0.000198107
2.47225e-05
2.47222e-05
8.13358e-05
0.000198102
4.70436e-05
0.000178705
8.1311e-05
0.000198102
4.70545e-05
3.7289e-05
3.72849e-05
0.000150019
3.72924e-05
3.72884e-05
3.90383e-05
4.9473e-05
3.90319e-05
4.94723e-05
2.47246e-05
2.47246e-05
3.9045e-05
4.94687e-05
3.9039e-05
4.94679e-05
0.000211969
0.000211964
0.000211969
0.000211969
0.000211968
0.000211964
0.000211968
8.13419e-05
4.70439e-05
0.000198107
0.000178716
8.13175e-05
4.70548e-05
0.000198105
2.47219e-05
2.47219e-05
8.13361e-05
0.000198102
4.70469e-05
0.000178704
8.13113e-05
0.000198101
4.70576e-05
3.72939e-05
3.72901e-05
0.000150018
3.72969e-05
3.72931e-05
3.90418e-05
4.94729e-05
3.90356e-05
4.94722e-05
2.47244e-05
2.47244e-05
3.90486e-05
4.94685e-05
3.90428e-05
4.94678e-05
0.000211969
0.000211962
0.000211968
0.000211968
0.000211969
0.000211961
0.000211968
8.13425e-05
4.70463e-05
0.000198105
0.000178714
8.13179e-05
4.70569e-05
0.000198104
2.47217e-05
2.47217e-05
8.13369e-05
0.0001981
4.70496e-05
0.000178702
8.13119e-05
0.0001981
4.70599e-05
3.7297e-05
3.72933e-05
0.000150017
3.7299e-05
3.72953e-05
3.90443e-05
4.94728e-05
3.90386e-05
4.94722e-05
2.47243e-05
2.47244e-05
3.9051e-05
4.94685e-05
3.90457e-05
4.94678e-05
0.000211969
0.000211962
0.000211968
0.00021197
0.00021197
0.000211964
0.000211968
8.13437e-05
4.70483e-05
0.000198104
0.000178713
8.13189e-05
4.70589e-05
0.000198104
2.47217e-05
2.47217e-05
8.1338e-05
0.000198099
4.70515e-05
0.000178702
8.13128e-05
0.000198098
4.70617e-05
3.72982e-05
3.72946e-05
0.000150016
3.73004e-05
3.72968e-05
3.9046e-05
4.94728e-05
3.90405e-05
4.94722e-05
2.47244e-05
2.47246e-05
3.90524e-05
4.94686e-05
3.90474e-05
4.94679e-05
0.000211972
0.000211962
0.000211968
0.000211968
0.000211972
0.00021196
0.000211967
8.13451e-05
4.70501e-05
0.000198104
0.000178713
8.13204e-05
4.70604e-05
0.000198105
2.47218e-05
2.47219e-05
8.13394e-05
0.000198097
4.70531e-05
0.000178699
8.13143e-05
0.000198098
4.70632e-05
3.73003e-05
3.72968e-05
0.000150016
3.73025e-05
3.7299e-05
3.90472e-05
4.9473e-05
3.90419e-05
4.94724e-05
2.47246e-05
2.47248e-05
3.90536e-05
4.94687e-05
3.90487e-05
4.94681e-05
0.000211971
0.000211959
0.000211967
0.000211969
0.000211969
0.00021196
0.000211964
8.13463e-05
4.70512e-05
0.000198105
0.000178712
8.13216e-05
4.70613e-05
0.000198104
2.4722e-05
2.47222e-05
8.13407e-05
0.0001981
4.70542e-05
0.000178698
8.13156e-05
0.000198099
4.7064e-05
3.73019e-05
3.72984e-05
0.000150013
3.73035e-05
3.72999e-05
3.90452e-05
4.94733e-05
3.90419e-05
4.9473e-05
2.47249e-05
2.4725e-05
3.90507e-05
4.9469e-05
3.90482e-05
4.94687e-05
0.000211968
0.00021196
0.000211964
0.000211965
0.000211964
0.000211957
0.00021196
8.13384e-05
4.70508e-05
0.000198103
0.000178705
8.13207e-05
4.70589e-05
0.000198101
2.47223e-05
2.47223e-05
8.1332e-05
0.000198098
4.70533e-05
0.000178694
8.13142e-05
0.000198096
4.70609e-05
3.73013e-05
3.72978e-05
0.000150008
3.73021e-05
3.72985e-05
3.90364e-05
4.9474e-05
3.90344e-05
4.94734e-05
2.47247e-05
2.47246e-05
3.90419e-05
4.94698e-05
3.90403e-05
4.94692e-05
0.000211962
0.000211953
0.000211956
0.000211937
0.000211937
0.000211931
0.000211933
8.13132e-05
4.70442e-05
0.000198094
0.000178691
8.13013e-05
4.70506e-05
0.000198083
2.4722e-05
2.47219e-05
8.13065e-05
0.000198086
4.70462e-05
0.000178674
8.12946e-05
0.000198075
4.70523e-05
3.72991e-05
3.72957e-05
0.000149977
3.72995e-05
3.72961e-05
3.90299e-05
4.94738e-05
3.90268e-05
4.9473e-05
2.47244e-05
2.47244e-05
3.90359e-05
4.94696e-05
3.90329e-05
4.94687e-05
0.000211936
0.000211931
0.000211934
0.00021194
0.000211942
0.000211937
0.00021194
8.13007e-05
4.70351e-05
0.000198065
0.000178667
8.12723e-05
4.70427e-05
0.000198065
2.47217e-05
2.47217e-05
8.12965e-05
0.000198061
4.70376e-05
0.000178658
8.12686e-05
0.000198062
4.70455e-05
3.72957e-05
3.72922e-05
0.00014997
3.72961e-05
3.72926e-05
3.90277e-05
4.94735e-05
3.90233e-05
4.94728e-05
2.47243e-05
2.47244e-05
3.9034e-05
4.94692e-05
3.90299e-05
4.94685e-05
0.000211943
0.000211937
0.000211941
0.000211942
0.000211943
0.000211937
0.00021194
8.13043e-05
4.7031e-05
0.000198069
0.00017867
8.12796e-05
4.70404e-05
0.000198069
2.47216e-05
2.47217e-05
8.12987e-05
0.000198065
4.70347e-05
0.00017866
8.12748e-05
0.000198065
4.70439e-05
3.72936e-05
3.72901e-05
0.000149966
3.72949e-05
3.72913e-05
3.90274e-05
4.94734e-05
3.90225e-05
4.94728e-05
2.47243e-05
2.47244e-05
3.90337e-05
4.94692e-05
3.90292e-05
4.94685e-05
0.000211943
0.000211937
0.000211941
0.000211943
0.000211944
0.000211938
0.000211941
8.13035e-05
4.70302e-05
0.000198069
0.000178671
8.12792e-05
4.704e-05
0.00019807
2.47216e-05
2.47217e-05
8.12972e-05
0.000198066
4.70342e-05
0.000178661
8.12733e-05
0.000198066
4.70437e-05
3.72932e-05
3.72897e-05
0.000149965
3.72947e-05
3.72911e-05
3.90273e-05
4.94734e-05
3.90224e-05
4.94728e-05
2.47243e-05
2.47244e-05
3.90337e-05
4.94692e-05
3.90291e-05
4.94685e-05
0.000211944
0.000211938
0.000211941
0.000211943
0.000211943
0.000211937
0.000211941
8.13039e-05
4.70302e-05
0.00019807
0.000178671
8.12797e-05
4.704e-05
0.00019807
2.47216e-05
2.47217e-05
8.12968e-05
0.000198066
4.70342e-05
0.000178661
8.1273e-05
0.000198066
4.70437e-05
3.72932e-05
3.72897e-05
0.000149966
3.72947e-05
3.72911e-05
3.90273e-05
4.94734e-05
3.90224e-05
4.94728e-05
2.47243e-05
2.47244e-05
3.90337e-05
4.94692e-05
3.90291e-05
4.94685e-05
0.000211944
0.000211938
0.000211941
0.000211943
0.000211944
0.000211937
0.000211941
8.13037e-05
4.70302e-05
0.00019807
0.000178671
8.12793e-05
4.704e-05
0.00019807
2.47216e-05
2.47217e-05
8.12963e-05
0.000198066
4.70342e-05
0.000178661
8.12719e-05
0.000198066
4.70437e-05
3.72932e-05
3.72897e-05
0.000149965
3.72947e-05
3.72911e-05
3.90273e-05
4.94734e-05
3.90224e-05
4.94728e-05
2.47243e-05
2.47244e-05
3.90337e-05
4.94692e-05
3.90291e-05
4.94685e-05
0.000211944
0.000211938
0.000211941
0.000211943
0.000211943
0.000211937
0.000211941
8.13037e-05
4.70302e-05
0.00019807
0.000178672
8.12794e-05
4.704e-05
0.00019807
2.47216e-05
2.47217e-05
8.12961e-05
0.000198066
4.70341e-05
0.000178661
8.12719e-05
0.000198066
4.70437e-05
3.72932e-05
3.72897e-05
0.000149967
3.72947e-05
3.72911e-05
3.90273e-05
4.94734e-05
3.90224e-05
4.94728e-05
2.47243e-05
2.47244e-05
3.90337e-05
4.94692e-05
3.90291e-05
4.94685e-05
0.000211944
0.000211938
0.000211941
0.000211943
0.000211943
0.000211937
0.000211941
8.13039e-05
4.70302e-05
0.00019807
0.000178672
8.12793e-05
4.704e-05
0.00019807
2.47216e-05
2.47217e-05
8.12958e-05
0.000198066
4.70341e-05
0.000178661
8.12715e-05
0.000198066
4.70437e-05
3.72932e-05
3.72897e-05
0.000149967
3.72947e-05
3.72911e-05
3.90273e-05
4.94734e-05
3.90224e-05
4.94728e-05
2.47243e-05
2.47244e-05
3.90337e-05
4.94692e-05
3.90291e-05
4.94685e-05
0.000211944
0.000211938
0.000211941
0.000211943
0.000211944
0.000211937
0.000211941
8.13035e-05
4.70302e-05
0.00019807
0.000178671
8.12792e-05
4.704e-05
0.00019807
2.47216e-05
2.47217e-05
8.12954e-05
0.000198065
4.70341e-05
0.000178661
8.12711e-05
0.000198066
4.70437e-05
3.72932e-05
3.72897e-05
0.000149966
3.72947e-05
3.72911e-05
3.90273e-05
4.94734e-05
3.90224e-05
4.94728e-05
2.47243e-05
2.47244e-05
3.90337e-05
4.94692e-05
3.90291e-05
4.94685e-05
0.000211944
0.000211938
0.000211941
0.000211943
0.000211946
0.000211937
0.000211942
8.13037e-05
4.70302e-05
0.00019807
0.000178671
8.12794e-05
4.70401e-05
0.00019807
2.47216e-05
2.47217e-05
8.1295e-05
0.000198065
4.70341e-05
0.000178661
8.12708e-05
0.000198066
4.70437e-05
3.72932e-05
3.72897e-05
0.000149966
3.72947e-05
3.72911e-05
4.94692e-05
3.90291e-05
0.000211939
2.47216e-05
4.70344e-05
2.47267e-05
2.47247e-05
3.7289e-05
3.72841e-05
4.94731e-05
3.90326e-05
4.94732e-05
3.90334e-05
4.70549e-05
0.000198106
8.1344e-05
4.70532e-05
0.000198105
8.13444e-05
2.47256e-05
3.72872e-05
3.72958e-05
2.4726e-05
4.94688e-05
3.90391e-05
4.70473e-05
0.000198105
8.13454e-05
3.90329e-05
4.94652e-05
4.94662e-05
3.90386e-05
8.13193e-05
0.000178678
0.000198099
4.7043e-05
0.000198099
4.70321e-05
8.13428e-05
8.13183e-05
4.70492e-05
0.000198107
0.000198107
8.13417e-05
3.90272e-05
4.94713e-05
3.90333e-05
8.13179e-05
0.000178691
0.000198104
4.70526e-05
0.000198104
4.70421e-05
8.13411e-05
3.90271e-05
4.94691e-05
4.94701e-05
3.90332e-05
2.47226e-05
2.47229e-05
0.000149798
3.72778e-05
3.72895e-05
3.7276e-05
3.72889e-05
2.47253e-05
2.47256e-05
8.1312e-05
0.000178707
0.000198102
4.70528e-05
0.000198103
4.70424e-05
8.13359e-05
8.13176e-05
0.000178709
0.000198103
4.70502e-05
0.000198103
4.70397e-05
8.13408e-05
3.90271e-05
4.94689e-05
4.94698e-05
3.90331e-05
3.90322e-05
4.94689e-05
4.94699e-05
3.90378e-05
0.000149803
3.72898e-05
3.72858e-05
3.72894e-05
3.7285e-05
2.47251e-05
2.47254e-05
2.4724e-05
2.47243e-05
2.47265e-05
2.47262e-05
2.47245e-05
2.47242e-05
3.72881e-05
3.72832e-05
0.000150021
3.72919e-05
3.7287e-05
2.47259e-05
2.47261e-05
2.47238e-05
2.4724e-05
0.000149839
3.72946e-05
3.72896e-05
3.72908e-05
3.72858e-05
3.90352e-05
4.94738e-05
3.90291e-05
4.94729e-05
8.13443e-05
4.70462e-05
0.000198106
0.000178693
8.13212e-05
4.70567e-05
0.000198107
8.13448e-05
4.70443e-05
0.000198105
0.000178687
8.13216e-05
4.7055e-05
0.000198105
3.90302e-05
4.94724e-05
4.94733e-05
3.90364e-05
3.9031e-05
4.94726e-05
4.94734e-05
3.90372e-05
8.13215e-05
0.000178693
4.70585e-05
0.000198106
4.7048e-05
0.000198107
8.13447e-05
8.1322e-05
0.000178687
4.70568e-05
0.000198105
4.70461e-05
0.000198105
8.13452e-05
3.72864e-05
3.72934e-05
0.000150025
3.72899e-05
3.72945e-05
2.4726e-05
2.47256e-05
2.47248e-05
2.4725e-05
0.000149842
3.72923e-05
3.72935e-05
3.72888e-05
3.72921e-05
2.47254e-05
2.47256e-05
8.13453e-05
4.70381e-05
0.000198105
0.00017871
8.1323e-05
4.70491e-05
0.000198104
3.90404e-05
4.94658e-05
3.90347e-05
4.94649e-05
8.1343e-05
0.0001981
4.70338e-05
0.00017868
8.13201e-05
0.0001981
4.70447e-05
3.90372e-05
4.94681e-05
4.9469e-05
3.90431e-05
8.13229e-05
0.00017871
4.70508e-05
0.000198104
4.70399e-05
0.000198104
8.13455e-05
3.90365e-05
4.94647e-05
4.94655e-05
3.90422e-05
8.13203e-05
0.000178679
0.0001981
4.70463e-05
0.0001981
4.70355e-05
8.13436e-05
3.90351e-05
4.94719e-05
3.9029e-05
4.9471e-05
8.13411e-05
0.000198105
4.70437e-05
0.000178693
8.13186e-05
0.000198105
4.70543e-05
3.9035e-05
4.94697e-05
3.90288e-05
4.94688e-05
8.1319e-05
0.000178718
4.70533e-05
0.000198107
4.70424e-05
0.000198107
8.13419e-05
3.90308e-05
4.94708e-05
4.94716e-05
3.9037e-05
8.13187e-05
0.000178692
0.000198105
4.70559e-05
0.000198105
4.70455e-05
8.13414e-05
3.90306e-05
4.94686e-05
4.94694e-05
3.90368e-05
3.7276e-05
3.72883e-05
0.000150015
3.72793e-05
3.72922e-05
2.47251e-05
2.47249e-05
2.4722e-05
2.47221e-05
0.00014983
3.7281e-05
3.72947e-05
3.72776e-05
3.7291e-05
2.47246e-05
2.47247e-05
8.13409e-05
0.000198105
4.70413e-05
0.000178711
8.13183e-05
0.000198104
4.70519e-05
3.90348e-05
4.94694e-05
3.90287e-05
4.94685e-05
3.90396e-05
4.94695e-05
3.90339e-05
4.94686e-05
8.13127e-05
0.000178705
0.000198102
4.70562e-05
0.000198102
4.70457e-05
8.13362e-05
8.13184e-05
0.00017871
0.000198104
4.70536e-05
0.000198104
4.7043e-05
8.13413e-05
3.90304e-05
4.94683e-05
4.94691e-05
3.90366e-05
3.90357e-05
4.94684e-05
4.94692e-05
3.90414e-05
2.47249e-05
2.47247e-05
2.47239e-05
2.47236e-05
0.000149835
3.72949e-05
3.72909e-05
3.72912e-05
3.72872e-05
2.47244e-05
2.47245e-05
2.47233e-05
2.47235e-05
2.47257e-05
2.47256e-05
2.47237e-05
2.47236e-05
3.72934e-05
3.72884e-05
0.000150021
3.72969e-05
3.72919e-05
2.47255e-05
2.47256e-05
2.47235e-05
2.47236e-05
0.000149837
3.72987e-05
3.72937e-05
3.72956e-05
3.72906e-05
3.90391e-05
4.94732e-05
3.90329e-05
4.94724e-05
8.13451e-05
4.70498e-05
0.000198106
0.000178693
8.1322e-05
4.70601e-05
0.000198106
8.13455e-05
4.70478e-05
0.000198105
0.000178687
8.13224e-05
4.70584e-05
0.000198104
3.9034e-05
4.94723e-05
4.94729e-05
3.90402e-05
3.90348e-05
4.94723e-05
4.9473e-05
3.90409e-05
8.13223e-05
0.000178693
4.70615e-05
0.000198106
4.70514e-05
0.000198106
8.13456e-05
8.13227e-05
0.000178686
4.70597e-05
0.000198103
4.70494e-05
0.000198104
8.1346e-05
3.72911e-05
3.72913e-05
0.000150026
3.72943e-05
3.72926e-05
2.47253e-05
2.47252e-05
2.47244e-05
2.47245e-05
0.000149841
3.72959e-05
3.72917e-05
3.7293e-05
3.72903e-05
2.4725e-05
2.47251e-05
8.13458e-05
4.70417e-05
0.000198104
0.00017871
8.13231e-05
4.70525e-05
0.000198104
3.9044e-05
4.94654e-05
3.90383e-05
4.94646e-05
8.13442e-05
0.000198098
4.70371e-05
0.000178678
8.1321e-05
0.000198097
4.70478e-05
3.90411e-05
4.94679e-05
4.94686e-05
3.90469e-05
8.13235e-05
0.00017871
4.70539e-05
0.000198104
4.70433e-05
0.000198104
8.13464e-05
3.90402e-05
4.94646e-05
4.94653e-05
3.90458e-05
8.13216e-05
0.000178678
0.000198096
4.70491e-05
0.000198097
4.70386e-05
8.1345e-05
3.90387e-05
4.94715e-05
3.90326e-05
4.94707e-05
8.13418e-05
0.000198103
4.70471e-05
0.000178691
8.1319e-05
0.000198103
4.70574e-05
3.90385e-05
4.94692e-05
3.90325e-05
4.94685e-05
8.13193e-05
0.000178716
4.70559e-05
0.000198105
4.70456e-05
0.000198105
8.13423e-05
3.90343e-05
4.94707e-05
4.94714e-05
3.90404e-05
8.13194e-05
0.000178691
0.000198102
4.70587e-05
0.000198102
4.70485e-05
8.13424e-05
3.90342e-05
4.94684e-05
4.94691e-05
3.90403e-05
3.72792e-05
3.72935e-05
0.000150013
3.72824e-05
3.72968e-05
2.47245e-05
2.47244e-05
2.47218e-05
2.47218e-05
0.000149829
3.72835e-05
3.72982e-05
3.72806e-05
3.72955e-05
2.47244e-05
2.47244e-05
8.13418e-05
0.000198102
4.70447e-05
0.000178709
8.13189e-05
0.000198101
4.70552e-05
3.90382e-05
4.94689e-05
3.90321e-05
4.94682e-05
3.90432e-05
4.9469e-05
3.90375e-05
4.94684e-05
8.13131e-05
0.000178704
0.0001981
4.70589e-05
0.000198101
4.70487e-05
8.13368e-05
8.13194e-05
0.000178709
0.000198101
4.70565e-05
0.000198101
4.70462e-05
8.13425e-05
3.90338e-05
4.94682e-05
4.94688e-05
3.90398e-05
3.90393e-05
4.94683e-05
4.9469e-05
3.90449e-05
2.47243e-05
2.47242e-05
2.47233e-05
2.47232e-05
0.000149833
3.72983e-05
3.72945e-05
3.72955e-05
3.72917e-05
2.47242e-05
2.47242e-05
2.47231e-05
2.47232e-05
2.47255e-05
2.47255e-05
2.47235e-05
2.47235e-05
3.72972e-05
3.72922e-05
0.000150021
3.72998e-05
3.72947e-05
2.47255e-05
2.47255e-05
2.47235e-05
2.47234e-05
0.000149836
3.73004e-05
3.72954e-05
3.72982e-05
3.72931e-05
3.90425e-05
4.9473e-05
3.90366e-05
4.94723e-05
8.13458e-05
4.70527e-05
0.000198105
0.000178692
8.13228e-05
4.70627e-05
0.000198105
8.13462e-05
4.70507e-05
0.000198103
0.000178687
8.13232e-05
4.70609e-05
0.000198102
3.90374e-05
4.94722e-05
4.94729e-05
3.90432e-05
3.90382e-05
4.94723e-05
4.94729e-05
3.9044e-05
8.13229e-05
0.000178692
4.70637e-05
0.000198104
4.70539e-05
0.000198104
8.13459e-05
8.13233e-05
0.000178686
4.70619e-05
0.000198102
4.70518e-05
0.000198102
8.13463e-05
3.72944e-05
3.72894e-05
0.000150026
3.72969e-05
3.72913e-05
2.4725e-05
2.4725e-05
2.47244e-05
2.47244e-05
0.000149841
3.72976e-05
3.72918e-05
3.72953e-05
3.72893e-05
2.47249e-05
2.47249e-05
8.13468e-05
4.70446e-05
0.000198104
0.00017871
8.13241e-05
4.70551e-05
0.000198103
3.90474e-05
4.94653e-05
3.90419e-05
4.94646e-05
8.13455e-05
0.000198096
4.70398e-05
0.000178678
8.13224e-05
0.000198096
4.70502e-05
3.90446e-05
4.94678e-05
4.94685e-05
3.905e-05
8.13244e-05
0.000178709
4.7056e-05
0.000198103
4.70457e-05
0.000198104
8.13472e-05
3.90435e-05
4.94646e-05
4.94653e-05
3.90488e-05
8.1323e-05
0.000178678
0.000198096
4.70512e-05
0.000198097
4.70409e-05
8.13463e-05
3.90419e-05
4.94714e-05
3.9036e-05
4.94707e-05
8.13427e-05
0.000198102
4.70498e-05
0.000178691
8.132e-05
0.000198102
4.70598e-05
3.90418e-05
4.94691e-05
3.90359e-05
4.94684e-05
8.13199e-05
0.000178713
4.70579e-05
0.000198104
4.70477e-05
0.000198104
8.13432e-05
3.90374e-05
4.94706e-05
4.94714e-05
3.90432e-05
8.13203e-05
0.000178691
0.000198102
4.70607e-05
0.000198102
4.70508e-05
8.13433e-05
3.90374e-05
4.94684e-05
4.9469e-05
3.90431e-05
3.72816e-05
3.72967e-05
0.000150012
3.72843e-05
3.7299e-05
2.47243e-05
2.47243e-05
2.47217e-05
2.47217e-05
0.000149828
3.72852e-05
3.72996e-05
3.72824e-05
3.72974e-05
2.47243e-05
2.47243e-05
8.1343e-05
0.000198101
4.70475e-05
0.000178709
8.13202e-05
0.000198101
4.70576e-05
3.90413e-05
4.94688e-05
3.90354e-05
4.94681e-05
3.90464e-05
4.9469e-05
3.9041e-05
4.94683e-05
8.13139e-05
0.000178702
0.0001981
4.70609e-05
0.000198099
4.7051e-05
8.13376e-05
8.13206e-05
0.000178708
0.000198101
4.70585e-05
0.000198101
4.70485e-05
8.13437e-05
3.90368e-05
4.94681e-05
4.94688e-05
3.90426e-05
3.90424e-05
4.94683e-05
4.9469e-05
3.90477e-05
2.47241e-05
2.47242e-05
2.47231e-05
2.47231e-05
0.000149833
3.72995e-05
3.72959e-05
3.72973e-05
3.72936e-05
2.47242e-05
2.47241e-05
2.47231e-05
2.47231e-05
2.47255e-05
2.47255e-05
2.47234e-05
2.47235e-05
3.72988e-05
3.72938e-05
0.000150021
3.73012e-05
3.72962e-05
2.47256e-05
2.47255e-05
2.47235e-05
2.47235e-05
0.000149836
3.73023e-05
3.72972e-05
3.72997e-05
3.72946e-05
3.90451e-05
4.94729e-05
3.90395e-05
4.94723e-05
8.13462e-05
4.70548e-05
0.000198103
0.000178692
8.13231e-05
4.70646e-05
0.000198103
8.13467e-05
4.70528e-05
0.000198103
0.000178686
8.13235e-05
4.70628e-05
0.000198103
3.90399e-05
4.94722e-05
4.94728e-05
3.90452e-05
3.90406e-05
4.94723e-05
4.94729e-05
3.9046e-05
8.13235e-05
0.000178691
4.70654e-05
0.000198104
4.70557e-05
0.000198104
8.1347e-05
8.1324e-05
0.000178685
4.70636e-05
0.000198103
4.70537e-05
0.000198103
8.13474e-05
3.72961e-05
3.72899e-05
0.000150025
3.72985e-05
3.72928e-05
2.47249e-05
2.47249e-05
2.47245e-05
2.47244e-05
0.00014984
3.72995e-05
3.72939e-05
3.7297e-05
3.7291e-05
2.4725e-05
2.47249e-05
8.13474e-05
4.70467e-05
0.000198103
0.000178709
8.13248e-05
4.70569e-05
0.000198103
3.90498e-05
4.94653e-05
3.90447e-05
4.94646e-05
8.13469e-05
0.000198097
4.70419e-05
0.000178678
8.13237e-05
0.000198097
4.70522e-05
3.90469e-05
4.94679e-05
4.94685e-05
3.90517e-05
8.1325e-05
0.000178708
4.70578e-05
0.000198103
4.70476e-05
0.000198103
8.13479e-05
3.90456e-05
4.94646e-05
4.94653e-05
3.90505e-05
8.13243e-05
0.000178678
0.000198097
4.7053e-05
0.000198097
4.70428e-05
8.13475e-05
3.90441e-05
4.94713e-05
3.90387e-05
4.94706e-05
8.1344e-05
0.000198102
4.70517e-05
0.000178691
8.1321e-05
0.000198102
4.70616e-05
3.90442e-05
4.9469e-05
3.90387e-05
4.94684e-05
8.13213e-05
0.000178713
4.70597e-05
0.000198104
4.70496e-05
0.000198104
8.13447e-05
3.90396e-05
4.94707e-05
4.94713e-05
3.90449e-05
8.13217e-05
0.000178691
0.000198102
4.70624e-05
0.000198102
4.70526e-05
8.1345e-05
3.90397e-05
4.94685e-05
4.94691e-05
3.9045e-05
3.72834e-05
3.7298e-05
0.000150012
3.72863e-05
3.73005e-05
2.47243e-05
2.47244e-05
2.47218e-05
2.47217e-05
0.000149827
3.72873e-05
3.73016e-05
3.72844e-05
3.7299e-05
2.47244e-05
2.47244e-05
8.13443e-05
0.0001981
4.70494e-05
0.000178707
8.13213e-05
0.0001981
4.70594e-05
3.90435e-05
4.94687e-05
3.9038e-05
4.94681e-05
3.90486e-05
4.94689e-05
3.90436e-05
4.94683e-05
8.13151e-05
0.000178702
0.000198097
4.70625e-05
0.000198097
4.70527e-05
8.1339e-05
8.13219e-05
0.000178707
0.000198099
4.70602e-05
0.0001981
4.70503e-05
8.13451e-05
3.9039e-05
4.94682e-05
4.94688e-05
3.90445e-05
3.90445e-05
4.94683e-05
4.94689e-05
3.90494e-05
2.47241e-05
2.47242e-05
2.47231e-05
2.47232e-05
0.000149832
3.73014e-05
3.72979e-05
3.72988e-05
3.72953e-05
2.47243e-05
2.47242e-05
2.47232e-05
2.47231e-05
2.47256e-05
2.47256e-05
2.47235e-05
2.47236e-05
3.73008e-05
3.72957e-05
0.00015002
3.73035e-05
3.72983e-05
2.47258e-05
2.47256e-05
2.47237e-05
2.47236e-05
0.000149835
3.73044e-05
3.72992e-05
3.7302e-05
3.72968e-05
3.90467e-05
4.9473e-05
3.90414e-05
4.94724e-05
8.13478e-05
4.70565e-05
0.000198104
0.000178691
8.13244e-05
4.70661e-05
0.000198104
8.13479e-05
4.70545e-05
0.000198103
0.000178685
8.13247e-05
4.70644e-05
0.000198103
3.90414e-05
4.94723e-05
4.94729e-05
3.90466e-05
3.90421e-05
4.94725e-05
4.94731e-05
3.90472e-05
8.13251e-05
0.000178691
4.70667e-05
0.000198105
4.70572e-05
0.000198105
8.13486e-05
8.13252e-05
0.000178685
4.70649e-05
0.000198104
4.70552e-05
0.000198104
8.13486e-05
3.7298e-05
3.72921e-05
0.000150024
3.73005e-05
3.7295e-05
2.4725e-05
2.47251e-05
2.47247e-05
2.47246e-05
0.000149839
3.73014e-05
3.72959e-05
3.7299e-05
3.72932e-05
2.47252e-05
2.47251e-05
8.13483e-05
4.70484e-05
0.000198102
0.000178708
8.13256e-05
4.70585e-05
0.000198102
3.90512e-05
4.94653e-05
3.90464e-05
4.94647e-05
8.13479e-05
0.000198096
4.70436e-05
0.000178678
8.13249e-05
0.000198096
4.70538e-05
3.90482e-05
4.9468e-05
4.94686e-05
3.90531e-05
8.1326e-05
0.000178708
4.70591e-05
0.000198103
4.70491e-05
0.000198103
8.13492e-05
3.9047e-05
4.94648e-05
4.94654e-05
3.90519e-05
8.13253e-05
0.000178677
0.000198096
4.70543e-05
0.000198096
4.70444e-05
8.13488e-05
3.90455e-05
4.94714e-05
3.90403e-05
4.94707e-05
8.13456e-05
0.000198103
4.70534e-05
0.000178691
8.13227e-05
0.000198103
4.70632e-05
3.90457e-05
4.94691e-05
3.90405e-05
4.94685e-05
8.13226e-05
0.000178714
4.7061e-05
0.000198105
4.70511e-05
0.000198105
8.13459e-05
3.90409e-05
4.94708e-05
4.94715e-05
3.90461e-05
8.13233e-05
0.000178691
0.000198105
4.70637e-05
0.000198104
4.70541e-05
8.13464e-05
3.90411e-05
4.94687e-05
4.94692e-05
3.90463e-05
3.72855e-05
3.73002e-05
0.000150011
3.72883e-05
3.73028e-05
2.47244e-05
2.47245e-05
2.4722e-05
2.47219e-05
0.000149826
3.7289e-05
3.73035e-05
3.72864e-05
3.73012e-05
2.47246e-05
2.47245e-05
8.13456e-05
0.000198099
4.70511e-05
0.000178708
8.13227e-05
0.000198099
4.70609e-05
3.90452e-05
4.94689e-05
3.904e-05
4.94683e-05
3.90502e-05
4.9469e-05
3.90453e-05
4.94684e-05
8.13164e-05
0.0001787
0.000198099
4.70637e-05
0.000198098
4.70541e-05
8.13404e-05
8.13233e-05
0.000178708
0.000198101
4.70615e-05
0.0001981
4.70518e-05
8.13467e-05
3.90406e-05
4.94684e-05
4.94689e-05
3.9046e-05
3.90462e-05
4.94685e-05
4.94691e-05
3.90511e-05
2.47243e-05
2.47244e-05
2.47232e-05
2.47233e-05
0.000149831
3.73033e-05
3.72998e-05
3.73009e-05
3.72974e-05
2.47245e-05
2.47244e-05
2.47234e-05
2.47233e-05
2.47257e-05
2.47259e-05
2.47237e-05
2.47238e-05
3.73028e-05
3.72976e-05
0.000150019
3.7305e-05
3.72996e-05
2.4726e-05
2.47259e-05
2.4724e-05
2.47238e-05
0.000149835
3.73048e-05
3.72993e-05
3.73032e-05
3.72978e-05
3.90478e-05
4.94732e-05
3.90427e-05
4.94726e-05
8.13494e-05
4.70578e-05
0.000198106
0.000178691
8.1326e-05
4.70672e-05
0.000198106
8.13495e-05
4.70557e-05
0.000198105
0.000178685
8.13259e-05
4.70654e-05
0.000198105
3.90425e-05
4.94726e-05
4.94731e-05
3.9047e-05
3.90431e-05
4.94728e-05
4.94733e-05
3.90477e-05
8.13266e-05
0.000178691
4.70671e-05
0.000198106
4.70581e-05
0.000198106
8.13488e-05
8.13267e-05
0.000178686
4.70652e-05
0.000198104
4.70561e-05
0.000198105
8.13491e-05
3.72998e-05
3.7294e-05
0.000150024
3.73019e-05
3.72962e-05
2.47252e-05
2.47253e-05
2.47249e-05
2.47248e-05
0.000149839
3.73017e-05
3.72957e-05
3.73002e-05
3.72942e-05
2.47255e-05
2.47253e-05
8.13496e-05
4.70496e-05
0.000198104
0.000178707
8.1327e-05
4.70595e-05
0.000198104
3.90523e-05
4.94655e-05
3.90478e-05
4.94649e-05
8.13494e-05
0.000198096
4.70449e-05
0.000178671
8.13263e-05
0.000198095
4.70546e-05
3.90492e-05
4.94683e-05
4.94688e-05
3.90531e-05
8.1327e-05
0.000178708
4.70594e-05
0.000198106
4.705e-05
0.000198106
8.13478e-05
3.9048e-05
4.94652e-05
4.94657e-05
3.90518e-05
8.13265e-05
0.00017867
0.000198096
4.70538e-05
0.000198096
4.7045e-05
8.13474e-05
3.90464e-05
4.94715e-05
3.90416e-05
4.94709e-05
8.13467e-05
0.000198103
4.70545e-05
0.000178685
8.13241e-05
0.000198102
4.70639e-05
3.90465e-05
4.94693e-05
3.90417e-05
4.94688e-05
8.13237e-05
0.00017871
4.7061e-05
0.000198103
4.70519e-05
0.000198103
8.1346e-05
3.90416e-05
4.9471e-05
4.94716e-05
3.9046e-05
8.1324e-05
0.000178684
0.000198101
4.70632e-05
0.000198101
4.70546e-05
8.13449e-05
3.90417e-05
4.9469e-05
4.94695e-05
3.90459e-05
3.7287e-05
3.73019e-05
0.000150008
3.72892e-05
3.73037e-05
2.47246e-05
2.47248e-05
2.47223e-05
2.47222e-05
0.000149824
3.72887e-05
3.73032e-05
3.7287e-05
3.73018e-05
2.47249e-05
2.47248e-05
8.13469e-05
0.000198102
4.70523e-05
0.000178704
8.13244e-05
0.000198101