/*--------------------------------*- C++ -*----------------------------------*\
| =========                 |                                                 |
| \\      /  F ield         | OpenFOAM: The Open Source CFD Toolbox           |
|  \\    /   O peration     | Version:  2206                                  |
|   \\  /    A nd           | Website:  www.openfoam.com                      |
|    \\/     M anipulation  |                                                 |
\*---------------------------------------------------------------------------*/
FoamFile
{
    version     2.0;
    format      ascii;
    arch        "LSB;label=32;scalar=64";
    class       volScalarField;
    location    "11";
    object      epsilon;
}
// * * * * * * * * * * * * * * * * * * * * * * * * * * * * * * * * * * * * * //

dimensions      [0 2 -3 0 0 0 0];

internalField   nonuniform List<scalar> 
28687
(
4.07078e-07
4.15518e-07
4.15523e-07
4.28664e-07
4.07076e-07
4.15522e-07
4.15521e-07
4.28684e-07
4.07047e-07
4.15471e-07
4.155e-07
4.28681e-07
4.0685e-07
4.15318e-07
4.15329e-07
4.28546e-07
4.06834e-07
4.15313e-07
4.15316e-07
4.28533e-07
4.06834e-07
4.15312e-07
4.15315e-07
4.28531e-07
4.06834e-07
4.15312e-07
4.15315e-07
4.28532e-07
4.06834e-07
4.15312e-07
4.15315e-07
4.28532e-07
4.06834e-07
4.15312e-07
4.15315e-07
4.28532e-07
4.06834e-07
4.15312e-07
4.15315e-07
4.28533e-07
4.06834e-07
4.15312e-07
4.15315e-07
4.28532e-07
4.06834e-07
4.15312e-07
4.15315e-07
4.28532e-07
4.06834e-07
4.15312e-07
4.15315e-07
4.28533e-07
4.06834e-07
4.15312e-07
4.15315e-07
4.28533e-07
4.06834e-07
4.15312e-07
4.15315e-07
4.28533e-07
4.06834e-07
4.15312e-07
4.15315e-07
4.28533e-07
4.06834e-07
4.15312e-07
4.15315e-07
4.28533e-07
4.06834e-07
4.15312e-07
4.15315e-07
4.28532e-07
4.15528e-07
4.28551e-07
4.15518e-07
4.28661e-07
4.28563e-07
4.15526e-07
4.15528e-07
4.15525e-07
4.15526e-07
4.28676e-07
4.28566e-07
4.15522e-07
4.15531e-07
4.15521e-07
4.1553e-07
4.15527e-07
4.15521e-07
4.15526e-07
4.28666e-07
4.28568e-07
4.15521e-07
4.15521e-07
4.1552e-07
4.28566e-07
4.28683e-07
4.28563e-07
4.15528e-07
4.15529e-07
4.15519e-07
4.15511e-07
4.28686e-07
4.28557e-07
4.15524e-07
4.15534e-07
4.15514e-07
4.15524e-07
4.1553e-07
4.15506e-07
4.15519e-07
4.28688e-07
4.28568e-07
4.15524e-07
4.15515e-07
4.15514e-07
4.28567e-07
4.28681e-07
4.2844e-07
4.15503e-07
4.15476e-07
4.15358e-07
4.15341e-07
4.28667e-07
4.28418e-07
4.155e-07
4.15509e-07
4.15354e-07
4.15363e-07
4.15504e-07
4.15335e-07
4.15359e-07
4.28685e-07
4.28445e-07
4.15499e-07
4.15355e-07
4.15353e-07
4.28442e-07
4.28548e-07
4.2841e-07
4.15335e-07
4.15328e-07
4.1532e-07
4.1532e-07
4.2853e-07
4.28412e-07
4.15331e-07
4.1534e-07
4.15315e-07
4.15325e-07
4.15336e-07
4.15313e-07
4.1532e-07
4.28552e-07
4.28415e-07
4.1533e-07
4.15316e-07
4.15315e-07
4.28412e-07
4.28534e-07
4.28412e-07
4.15324e-07
4.15323e-07
4.1532e-07
4.1532e-07
4.28535e-07
4.28408e-07
4.15319e-07
4.15328e-07
4.15316e-07
4.15325e-07
4.15324e-07
4.15312e-07
4.1532e-07
4.28538e-07
4.28417e-07
4.15318e-07
4.15315e-07
4.15315e-07
4.28414e-07
4.28532e-07
4.28413e-07
4.15323e-07
4.15322e-07
4.1532e-07
4.1532e-07
4.28529e-07
4.28408e-07
4.15318e-07
4.15328e-07
4.15316e-07
4.15325e-07
4.15323e-07
4.15312e-07
4.1532e-07
4.28537e-07
4.28417e-07
4.15318e-07
4.15315e-07
4.15315e-07
4.28416e-07
4.28533e-07
4.28414e-07
4.15323e-07
4.15322e-07
4.15321e-07
4.15321e-07
4.28528e-07
4.28409e-07
4.15318e-07
4.15328e-07
4.15316e-07
4.15325e-07
4.15323e-07
4.15312e-07
4.1532e-07
4.28537e-07
4.28418e-07
4.15318e-07
4.15315e-07
4.15315e-07
4.28416e-07
4.28533e-07
4.28414e-07
4.15323e-07
4.15323e-07
4.1532e-07
4.15321e-07
4.28529e-07
4.28409e-07
4.15318e-07
4.15328e-07
4.15315e-07
4.15325e-07
4.15323e-07
4.15312e-07
4.1532e-07
4.28537e-07
4.28417e-07
4.15318e-07
4.15315e-07
4.15315e-07
4.28416e-07
4.28534e-07
4.28413e-07
4.15322e-07
4.15323e-07
4.15319e-07
4.15321e-07
4.28529e-07
4.28409e-07
4.15318e-07
4.15328e-07
4.15315e-07
4.15325e-07
4.15323e-07
4.15312e-07
4.1532e-07
4.28537e-07
4.28417e-07
4.15318e-07
4.15315e-07
4.15315e-07
4.28416e-07
4.28533e-07
4.28413e-07
4.15322e-07
4.15323e-07
4.15319e-07
4.1532e-07
4.2853e-07
4.2841e-07
4.15318e-07
4.15328e-07
4.15315e-07
4.15325e-07
4.15323e-07
4.15312e-07
4.1532e-07
4.28536e-07
4.28418e-07
4.15318e-07
4.15315e-07
4.15315e-07
4.28416e-07
4.28533e-07
4.28413e-07
4.15322e-07
4.15323e-07
4.1532e-07
4.1532e-07
4.2853e-07
4.28409e-07
4.15317e-07
4.15328e-07
4.15315e-07
4.15325e-07
4.15323e-07
4.15312e-07
4.1532e-07
4.28537e-07
4.28418e-07
4.15318e-07
4.15315e-07
4.15315e-07
4.28416e-07
4.28533e-07
4.28414e-07
4.15322e-07
4.15323e-07
4.1532e-07
4.15321e-07
4.2853e-07
4.28409e-07
4.15317e-07
4.15328e-07
4.15315e-07
4.15325e-07
4.15323e-07
4.15312e-07
4.1532e-07
4.28537e-07
4.28417e-07
4.15318e-07
4.15315e-07
4.15316e-07
4.28416e-07
4.28534e-07
4.28413e-07
4.15322e-07
4.15323e-07
4.1532e-07
4.15321e-07
4.2853e-07
4.2841e-07
4.15317e-07
4.15328e-07
4.15315e-07
4.15325e-07
4.15323e-07
4.15312e-07
4.1532e-07
4.28536e-07
4.28417e-07
4.15318e-07
4.15315e-07
4.15316e-07
4.28416e-07
4.28534e-07
4.28413e-07
4.15322e-07
4.15323e-07
4.1532e-07
4.15321e-07
4.2853e-07
4.2841e-07
4.15317e-07
4.15328e-07
4.15315e-07
4.15325e-07
4.15323e-07
4.15312e-07
4.1532e-07
4.28537e-07
4.28418e-07
4.15318e-07
4.15315e-07
4.15316e-07
4.28416e-07
4.28533e-07
4.28413e-07
4.15322e-07
4.15323e-07
4.1532e-07
4.15321e-07
4.2853e-07
4.2841e-07
4.15317e-07
4.15328e-07
4.15315e-07
4.15325e-07
4.15323e-07
4.15312e-07
4.1532e-07
4.28537e-07
4.28417e-07
4.15318e-07
4.15315e-07
4.15316e-07
4.28416e-07
4.28533e-07
4.28413e-07
4.15322e-07
4.15323e-07
4.1532e-07
4.15321e-07
4.2853e-07
4.2841e-07
4.15317e-07
4.15328e-07
4.15315e-07
4.15325e-07
4.15323e-07
4.15312e-07
4.1532e-07
4.28537e-07
4.28417e-07
4.15318e-07
4.15315e-07
4.15316e-07
4.28416e-07
4.28533e-07
4.28413e-07
4.15322e-07
4.15323e-07
4.1532e-07
4.15321e-07
4.2853e-07
4.2841e-07
4.15317e-07
4.15328e-07
4.15315e-07
4.15325e-07
4.15323e-07
4.15312e-07
4.1532e-07
4.28536e-07
4.28417e-07
4.15318e-07
4.15316e-07
4.15316e-07
4.28416e-07
4.28533e-07
4.15321e-07
4.15322e-07
4.2853e-07
4.15316e-07
4.15327e-07
4.15322e-07
4.28537e-07
4.15317e-07
1.38839e-06
7.10489e-06
1.38893e-06
7.10457e-06
2.41904e-05
2.41874e-05
1.38829e-06
7.10591e-06
1.38876e-06
7.10552e-06
4.07082e-07
4.07079e-07
4.07078e-07
4.07076e-07
4.0708e-07
4.07077e-07
4.07077e-07
5.71589e-07
1.14819e-06
4.09087e-07
4.15521e-07
5.71736e-07
1.14767e-06
4.09087e-07
2.41957e-05
2.41904e-05
5.71584e-07
4.09085e-07
1.14846e-06
4.15523e-07
5.7173e-07
4.09085e-07
1.14773e-06
2.31113e-06
2.31161e-06
4.2856e-07
2.31094e-06
2.31142e-06
1.38836e-06
7.10466e-06
1.38868e-06
7.10426e-06
2.41856e-05
2.41845e-05
1.38823e-06
7.10566e-06
1.38852e-06
7.10523e-06
4.0708e-07
4.07076e-07
4.07076e-07
4.07065e-07
4.07065e-07
4.07065e-07
4.07065e-07
5.71554e-07
1.14803e-06
4.09084e-07
4.15521e-07
5.71641e-07
1.14764e-06
4.09083e-07
2.41882e-05
2.41863e-05
5.71546e-07
4.09082e-07
1.148e-06
4.15523e-07
5.71633e-07
4.09082e-07
1.14762e-06
2.31134e-06
2.31182e-06
4.28569e-07
2.31103e-06
2.31151e-06
1.38915e-06
7.10538e-06
1.38896e-06
7.1092e-06
2.41995e-05
2.42042e-05
1.38902e-06
7.10649e-06
1.38879e-06
7.11004e-06
4.07043e-07
4.07049e-07
4.07048e-07
4.0688e-07
4.06873e-07
4.0688e-07
4.06879e-07
5.71624e-07
1.14847e-06
4.09054e-07
4.15417e-07
5.71681e-07
1.14828e-06
4.09003e-07
2.41919e-05
2.42031e-05
5.71617e-07
4.09056e-07
1.1482e-06
4.15457e-07
5.71674e-07
4.09009e-07
1.14812e-06
2.31182e-06
2.31228e-06
4.2852e-07
2.31232e-06
2.3128e-06
1.38939e-06
7.11101e-06
1.3897e-06
7.11064e-06
2.42047e-05
2.42041e-05
1.38926e-06
7.11202e-06
1.38953e-06
7.11163e-06
4.0685e-07
4.06853e-07
4.06853e-07
4.06835e-07
4.06835e-07
4.06835e-07
4.06835e-07
5.71648e-07
1.14873e-06
4.08865e-07
4.15316e-07
5.71739e-07
1.14832e-06
4.08858e-07
2.42065e-05
2.42055e-05
5.7164e-07
4.08867e-07
1.14866e-06
4.15322e-07
5.71733e-07
4.08859e-07
1.14829e-06
2.3128e-06
2.31328e-06
4.28406e-07
2.31246e-06
2.31294e-06
1.38939e-06
7.11096e-06
1.3897e-06
7.11063e-06
2.42048e-05
2.42042e-05
1.38925e-06
7.11198e-06
1.38953e-06
7.11161e-06
4.06839e-07
4.06839e-07
4.06839e-07
4.06834e-07
4.06835e-07
4.06835e-07
4.06835e-07
5.71645e-07
1.14872e-06
4.08852e-07
4.15315e-07
5.71734e-07
1.14832e-06
4.08855e-07
2.42062e-05
2.42054e-05
5.71637e-07
4.08853e-07
1.14866e-06
4.15318e-07
5.71726e-07
4.08855e-07
1.14829e-06
2.31278e-06
2.31325e-06
4.2842e-07
2.31246e-06
2.31294e-06
1.38939e-06
7.11095e-06
1.3897e-06
7.11063e-06
2.42049e-05
2.42032e-05
1.38925e-06
7.11197e-06
1.38953e-06
7.11161e-06
4.06838e-07
4.06838e-07
4.06838e-07
4.06834e-07
4.06835e-07
4.06836e-07
4.06835e-07
5.71645e-07
1.14872e-06
4.08851e-07
4.15315e-07
5.71737e-07
1.14832e-06
4.08854e-07
2.42062e-05
2.42054e-05
5.71636e-07
4.08852e-07
1.14867e-06
4.15318e-07
5.71728e-07
4.08855e-07
1.14829e-06
2.31278e-06
2.31326e-06
4.28416e-07
2.31246e-06
2.31294e-06
1.38939e-06
7.11086e-06
1.3897e-06
7.11057e-06
2.42037e-05
2.42038e-05
1.38925e-06
7.11197e-06
1.38953e-06
7.11161e-06
4.06838e-07
4.06838e-07
4.06838e-07
4.06834e-07
4.06835e-07
4.06836e-07
4.06835e-07
5.71645e-07
1.14872e-06
4.08851e-07
4.15314e-07
5.71737e-07
1.14832e-06
4.08854e-07
2.42062e-05
2.42054e-05
5.71637e-07
4.08852e-07
1.14867e-06
4.15318e-07
5.71729e-07
4.08855e-07
1.14829e-06
2.31278e-06
2.31326e-06
4.28416e-07
2.31246e-06
2.31294e-06
1.38939e-06
7.11094e-06
1.3897e-06
7.11062e-06
2.42049e-05
2.42044e-05
1.38925e-06
7.11197e-06
1.38953e-06
7.11161e-06
4.06838e-07
4.06838e-07
4.06838e-07
4.06834e-07
4.06835e-07
4.06836e-07
4.06835e-07
5.71645e-07
1.14872e-06
4.08851e-07
4.15314e-07
5.71736e-07
1.14832e-06
4.08854e-07
2.42062e-05
2.42054e-05
5.71637e-07
4.08852e-07
1.14867e-06
4.15318e-07
5.71729e-07
4.08855e-07
1.14829e-06
2.31278e-06
2.31326e-06
4.28416e-07
2.31246e-06
2.31294e-06
1.38939e-06
7.11097e-06
1.3897e-06
7.11067e-06
2.42046e-05
2.42035e-05
1.38925e-06
7.11194e-06
1.38953e-06
7.11166e-06
4.06838e-07
4.06838e-07
4.06838e-07
4.06834e-07
4.06835e-07
4.06835e-07
4.06835e-07
5.71645e-07
1.14872e-06
4.08851e-07
4.15315e-07
5.71737e-07
1.14832e-06
4.08854e-07
2.42062e-05
2.42054e-05
5.71636e-07
4.08852e-07
1.14867e-06
4.15318e-07
5.71729e-07
4.08855e-07
1.14829e-06
2.31278e-06
2.31326e-06
4.28416e-07
2.31246e-06
2.31294e-06
1.38939e-06
7.11094e-06
1.38971e-06
7.11057e-06
2.42041e-05
2.42034e-05
1.38925e-06
7.11201e-06
1.38953e-06
7.1117e-06
4.06838e-07
4.06838e-07
4.06838e-07
4.06834e-07
4.06835e-07
4.06835e-07
4.06835e-07
5.71646e-07
1.14873e-06
4.08851e-07
4.15315e-07
5.71737e-07
1.14832e-06
4.08854e-07
2.42062e-05
2.42054e-05
5.71636e-07
4.08852e-07
1.14867e-06
4.15318e-07
5.71729e-07
4.08855e-07
1.14829e-06
2.31278e-06
2.31326e-06
4.28416e-07
2.31246e-06
2.31294e-06
1.38939e-06
7.11088e-06
1.38971e-06
7.11054e-06
2.4204e-05
2.42034e-05
1.38925e-06
7.11206e-06
1.38953e-06
7.11173e-06
4.06838e-07
4.06838e-07
4.06838e-07
4.06834e-07
4.06835e-07
4.06836e-07
4.06835e-07
5.71646e-07
1.14873e-06
4.08851e-07
4.15315e-07
5.71737e-07
1.14832e-06
4.08854e-07
2.42062e-05
2.42054e-05
5.71637e-07
4.08852e-07
1.14867e-06
4.15318e-07
5.71729e-07
4.08855e-07
1.14829e-06
2.31278e-06
2.31326e-06
4.28416e-07
2.31246e-06
2.31294e-06
1.38939e-06
7.11089e-06
1.3897e-06
7.11054e-06
2.42041e-05
2.42034e-05
1.38925e-06
7.11208e-06
1.38953e-06
7.11174e-06
4.06838e-07
4.06838e-07
4.06838e-07
4.06834e-07
4.06835e-07
4.06836e-07
4.06835e-07
5.71646e-07
1.14873e-06
4.08852e-07
4.15315e-07
5.71736e-07
1.14832e-06
4.08854e-07
2.42062e-05
2.42054e-05
5.71636e-07
4.08852e-07
1.14867e-06
4.15318e-07
5.71729e-07
4.08855e-07
1.14829e-06
2.31278e-06
2.31326e-06
4.28416e-07
2.31246e-06
2.31294e-06
1.38939e-06
7.11087e-06
1.3897e-06
7.11053e-06
2.42041e-05
2.42034e-05
1.38925e-06
7.11209e-06
1.38953e-06
7.11175e-06
4.06838e-07
4.06838e-07
4.06838e-07
4.06834e-07
4.06835e-07
4.06836e-07
4.06835e-07
5.71645e-07
1.14873e-06
4.08851e-07
4.15315e-07
5.71737e-07
1.14832e-06
4.08854e-07
2.42062e-05
2.42054e-05
5.71636e-07
4.08852e-07
1.14867e-06
4.15318e-07
5.7173e-07
4.08855e-07
1.14829e-06
2.31278e-06
2.31326e-06
4.28416e-07
2.31246e-06
2.31294e-06
1.38939e-06
7.11088e-06
1.3897e-06
7.11053e-06
2.42041e-05
2.42034e-05
1.38925e-06
7.11209e-06
1.38953e-06
7.11175e-06
4.06838e-07
4.06838e-07
4.06838e-07
4.06834e-07
4.06835e-07
4.06836e-07
4.06835e-07
5.71646e-07
1.14873e-06
4.08851e-07
4.15315e-07
5.71737e-07
1.14832e-06
4.08854e-07
2.42062e-05
2.42054e-05
5.71637e-07
4.08852e-07
1.14867e-06
4.15318e-07
5.7173e-07
4.08855e-07
1.14829e-06
2.31278e-06
2.31326e-06
4.28416e-07
2.31246e-06
2.31294e-06
1.38939e-06
7.11088e-06
1.3897e-06
7.11053e-06
2.42041e-05
2.42034e-05
1.38925e-06
7.11209e-06
1.38953e-06
7.11175e-06
4.06838e-07
4.06838e-07
4.06838e-07
4.06834e-07
4.06835e-07
4.06835e-07
4.06835e-07
5.71646e-07
1.14873e-06
4.08851e-07
4.15315e-07
5.71737e-07
1.14832e-06
4.08854e-07
2.42062e-05
2.42054e-05
5.71638e-07
4.08852e-07
1.14867e-06
4.15318e-07
5.71731e-07
4.08855e-07
1.14829e-06
2.31278e-06
2.31326e-06
4.28416e-07
2.31246e-06
2.31294e-06
1.38939e-06
7.11087e-06
1.3897e-06
7.11053e-06
2.42041e-05
2.42034e-05
1.38925e-06
7.11209e-06
1.38953e-06
7.11175e-06
4.06838e-07
4.06838e-07
4.06838e-07
4.06834e-07
4.06835e-07
4.06836e-07
4.06835e-07
5.71646e-07
1.14873e-06
4.08851e-07
4.15315e-07
5.71737e-07
1.14832e-06
4.08854e-07
2.42062e-05
2.42054e-05
5.71638e-07
4.08852e-07
1.14867e-06
4.15318e-07
5.71731e-07
4.08855e-07
1.14829e-06
2.31278e-06
2.31326e-06
4.28416e-07
2.31246e-06
2.31294e-06
1.38939e-06
7.11087e-06
1.3897e-06
7.11053e-06
2.42041e-05
2.42034e-05
1.38925e-06
7.11209e-06
1.38953e-06
7.11175e-06
4.06838e-07
4.06838e-07
4.06838e-07
4.06834e-07
4.06835e-07
4.06836e-07
4.06835e-07
5.71646e-07
1.14873e-06
4.08851e-07
4.15315e-07
5.71737e-07
1.14832e-06
4.08854e-07
2.42062e-05
2.42054e-05
5.71638e-07
4.08852e-07
1.14867e-06
4.15318e-07
5.71731e-07
4.08855e-07
1.14829e-06
2.31278e-06
2.31326e-06
4.28416e-07
2.31246e-06
2.31294e-06
1.38949e-06
7.11087e-06
1.3897e-06
7.11056e-06
2.42041e-05
2.42034e-05
1.38939e-06
7.11209e-06
1.38953e-06
7.11178e-06
4.06837e-07
4.06837e-07
4.06837e-07
5.71645e-07
1.14872e-06
4.08851e-07
4.15314e-07
5.71737e-07
1.14832e-06
4.08855e-07
2.42062e-05
2.42055e-05
5.71656e-07
4.08852e-07
1.14867e-06
4.15319e-07
5.71731e-07
4.08856e-07
1.14852e-06
2.31278e-06
2.31325e-06
4.28416e-07
2.31246e-06
2.31308e-06
7.10495e-06
1.14789e-06
2.41908e-05
2.31112e-06
2.31079e-06
2.41877e-05
1.14786e-06
7.10476e-06
2.41921e-05
2.41874e-05
2.41954e-05
2.41906e-05
2.31102e-06
2.31153e-06
4.28558e-07
2.31083e-06
2.31135e-06
2.41846e-05
2.41871e-05
2.41879e-05
2.41904e-05
4.28679e-07
2.3109e-06
2.31141e-06
2.31108e-06
2.31158e-06
1.38839e-06
7.10502e-06
1.38892e-06
7.10476e-06
5.71597e-07
1.14841e-06
4.09084e-07
4.15526e-07
5.71735e-07
1.14767e-06
4.09084e-07
5.71592e-07
1.14818e-06
4.09086e-07
4.15528e-07
5.71732e-07
1.14771e-06
4.09086e-07
1.38866e-06
7.1044e-06
7.10458e-06
1.38838e-06
1.38865e-06
7.10461e-06
7.10477e-06
1.38838e-06
5.71672e-07
4.15525e-07
1.14758e-06
4.09083e-07
1.14798e-06
4.09083e-07
5.7155e-07
5.71668e-07
4.15526e-07
1.14766e-06
4.09084e-07
1.14804e-06
4.09085e-07
5.71547e-07
2.31147e-06
2.31124e-06
4.28563e-07
2.31137e-06
2.31106e-06
2.41876e-05
2.41842e-05
2.41854e-05
2.41873e-05
4.28684e-07
2.31141e-06
2.31114e-06
2.31161e-06
2.31142e-06
2.41822e-05
2.41842e-05
5.71587e-07
1.14867e-06
4.09084e-07
4.15522e-07
5.71734e-07
1.1479e-06
4.09084e-07
1.3883e-06
7.1063e-06
1.38877e-06
7.10588e-06
5.71591e-07
4.09085e-07
1.14876e-06
4.15531e-07
5.71741e-07
4.09085e-07
1.14798e-06
1.38851e-06
7.10536e-06
7.10559e-06
1.38826e-06
5.7166e-07
4.15521e-07
1.14781e-06
4.09082e-07
1.14823e-06
4.09082e-07
5.71545e-07
1.38851e-06
7.10566e-06
7.10592e-06
1.38827e-06
5.71665e-07
4.1553e-07
4.09083e-07
1.14789e-06
4.09084e-07
1.14831e-06
5.71551e-07
1.3884e-06
7.10486e-06
1.38894e-06
7.10457e-06
5.71591e-07
4.09084e-07
1.14846e-06
4.15527e-07
5.7174e-07
4.09084e-07
1.14773e-06
1.3884e-06
7.10588e-06
1.38894e-06
7.10548e-06
5.71662e-07
4.15521e-07
1.14763e-06
4.09084e-07
1.14802e-06
4.09085e-07
5.71547e-07
1.38866e-06
7.10439e-06
7.10461e-06
1.38839e-06
5.71663e-07
4.15526e-07
4.09083e-07
1.14763e-06
4.09083e-07
1.14804e-06
5.71551e-07
1.38867e-06
7.10527e-06
7.10548e-06
1.3884e-06
2.31199e-06
2.31112e-06
4.28562e-07
2.3117e-06
2.31092e-06
2.41942e-05
2.41894e-05
2.41878e-05
2.41904e-05
4.28684e-07
2.31184e-06
2.311e-06
2.31208e-06
2.31117e-06
2.41866e-05
2.41891e-05
5.71579e-07
4.09084e-07
1.14857e-06
4.15521e-07
5.71727e-07
4.09084e-07
1.14783e-06
1.38828e-06
7.10601e-06
1.38875e-06
7.10561e-06
1.38828e-06
7.10624e-06
1.38875e-06
7.10584e-06
5.71658e-07
4.15521e-07
4.09082e-07
1.14763e-06
4.09083e-07
1.14803e-06
5.71539e-07
5.71654e-07
4.1552e-07
4.09082e-07
1.14773e-06
4.09083e-07
1.14814e-06
5.71536e-07
1.3885e-06
7.10539e-06
7.10562e-06
1.38826e-06
1.38849e-06
7.10562e-06
7.10584e-06
1.38826e-06
2.41945e-05
2.41897e-05
2.41958e-05
2.4191e-05
4.28682e-07
2.31102e-06
2.3115e-06
2.3112e-06
2.31168e-06
2.41869e-05
2.41894e-05
2.41882e-05
2.41908e-05
2.41846e-05
2.41834e-05
2.41879e-05
2.41867e-05
2.31113e-06
2.31163e-06
4.28566e-07
2.31092e-06
2.31142e-06
2.41845e-05
2.41834e-05
2.41878e-05
2.41868e-05
4.28686e-07
2.31109e-06
2.3116e-06
2.3111e-06
2.31159e-06
1.38837e-06
7.10463e-06
1.38863e-06
7.10461e-06
5.71554e-07
1.14792e-06
4.09083e-07
4.15528e-07
5.71638e-07
1.14756e-06
4.09081e-07
5.71554e-07
1.14801e-06
4.09084e-07
4.15528e-07
5.71637e-07
1.14767e-06
4.09083e-07
1.38861e-06
7.10458e-06
7.10429e-06
1.38849e-06
1.38863e-06
7.10604e-06
7.10468e-06
1.38849e-06
5.71644e-07
4.15524e-07
1.14767e-06
4.09073e-07
1.14791e-06
4.09078e-07
5.71574e-07
5.71644e-07
4.15523e-07
1.14795e-06
4.09073e-07
1.14805e-06
4.09079e-07
5.71572e-07
2.31163e-06
2.3115e-06
4.28567e-07
2.31136e-06
2.31112e-06
2.41824e-05
2.41818e-05
2.41924e-05
2.41848e-05
4.28687e-07
2.31206e-06
2.31173e-06
2.31165e-06
2.31148e-06
2.41888e-05
2.41825e-05
5.71549e-07
1.14818e-06
4.09084e-07
4.15523e-07
5.71633e-07
1.1478e-06
4.09083e-07
1.38826e-06
7.10572e-06
1.38849e-06
7.10562e-06
5.71557e-07
4.09083e-07
1.14826e-06
4.15533e-07
5.7164e-07
4.09082e-07
1.14788e-06
1.38844e-06
7.10559e-06
7.10533e-06
1.38836e-06
5.71636e-07
4.1552e-07
1.14791e-06
4.09073e-07
1.14817e-06
4.09079e-07
5.71567e-07
1.38847e-06
7.10594e-06
7.1057e-06
1.38838e-06
5.71645e-07
4.15529e-07
4.09073e-07
1.14799e-06
4.09079e-07
1.14826e-06
5.71573e-07
1.38839e-06
7.10445e-06
1.38866e-06
7.10445e-06
5.71557e-07
4.09082e-07
1.14797e-06
4.15529e-07
5.71639e-07
4.09081e-07
1.14762e-06
1.38839e-06
7.10528e-06
1.38866e-06
7.10522e-06
5.71641e-07
4.15517e-07
1.14793e-06
4.09073e-07
1.14804e-06
4.0908e-07
5.71569e-07
1.38864e-06
7.10611e-06
7.10459e-06
1.3885e-06
5.71644e-07
4.15525e-07
4.09072e-07
1.14773e-06
4.09078e-07
1.14797e-06
5.71572e-07
1.38864e-06
7.10549e-06
7.10526e-06
1.3885e-06
2.31216e-06
2.31123e-06
4.2857e-07
2.31187e-06
2.31101e-06
2.41866e-05
2.41854e-05
2.4188e-05
2.41867e-05
4.2869e-07
2.31201e-06
2.31119e-06
2.31215e-06
2.31118e-06
2.41866e-05
2.41855e-05
5.71543e-07
4.09082e-07
1.14808e-06
4.15524e-07
5.71626e-07
4.09081e-07
1.14772e-06
1.38825e-06
7.10541e-06
1.38847e-06
7.10534e-06
1.38824e-06
7.10564e-06
1.38847e-06
7.10558e-06
5.71634e-07
4.1552e-07
4.09073e-07
1.14773e-06
4.09079e-07
1.14796e-06
5.7156e-07
5.71632e-07
4.1552e-07
4.09072e-07
1.14783e-06
4.09078e-07
1.14807e-06
5.71557e-07
1.38845e-06
7.10561e-06
7.10538e-06
1.38836e-06
1.38845e-06
7.10586e-06
7.10562e-06
1.38836e-06
2.41869e-05
2.41857e-05
2.41882e-05
2.41871e-05
4.28689e-07
2.31121e-06
2.31168e-06
2.31121e-06
2.31168e-06
2.41869e-05
2.41858e-05
2.41881e-05
2.41871e-05
2.41872e-05
2.41998e-05
2.41907e-05
2.42032e-05
2.31159e-06
2.31209e-06
4.28519e-07
2.31226e-06
2.31278e-06
2.42025e-05
2.42025e-05
2.42059e-05
2.42058e-05
4.28619e-07
2.3124e-06
2.31291e-06
2.31262e-06
2.31313e-06
1.38914e-06
7.10831e-06
1.3889e-06
7.11116e-06
5.71629e-07
1.14812e-06
4.09057e-07
4.1546e-07
5.71682e-07
1.14807e-06
4.09008e-07
5.71626e-07
1.14843e-06
4.09054e-07
4.15421e-07
5.7168e-07
1.14828e-06
4.09002e-07
1.38953e-06
7.11074e-06
7.11063e-06
1.38937e-06
1.38953e-06
7.11126e-06
7.11137e-06
1.38937e-06
5.71727e-07
4.15402e-07
1.1482e-06
4.08895e-07
1.14849e-06
4.08943e-07
5.71649e-07
5.71725e-07
4.15373e-07
1.14834e-06
4.08892e-07
1.14867e-06
4.08938e-07
5.71648e-07
2.31278e-06
2.31261e-06
4.28477e-07
2.31293e-06
2.31277e-06
2.41964e-05
2.42017e-05
2.4204e-05
2.42043e-05
4.28581e-07
2.31291e-06
2.31267e-06
2.31319e-06
2.31312e-06
2.42014e-05
2.42022e-05
5.71626e-07
1.14839e-06
4.09057e-07
4.15456e-07
5.71675e-07
1.14831e-06
4.09009e-07
1.38903e-06
7.10651e-06
1.38875e-06
7.11026e-06
5.7163e-07
4.09058e-07
1.14847e-06
4.15465e-07
5.71681e-07
4.0901e-07
1.14839e-06
1.38937e-06
7.11172e-06
7.11162e-06
1.38924e-06
5.71723e-07
4.15398e-07
1.14845e-06
4.08895e-07
1.14876e-06
4.08944e-07
5.71646e-07
1.38938e-06
7.1122e-06
7.11198e-06
1.38926e-06
5.71729e-07
4.15407e-07
4.08896e-07
1.14854e-06
4.08945e-07
1.14884e-06
5.71652e-07
1.38915e-06
7.10824e-06
1.38891e-06
7.11099e-06
5.71628e-07
4.09057e-07
1.14817e-06
4.1546e-07
5.71679e-07
4.09008e-07
1.14812e-06
1.38915e-06
7.10596e-06
1.38891e-06
7.10986e-06
5.71722e-07
4.15367e-07
1.14832e-06
4.08892e-07
1.14868e-06
4.08938e-07
5.71646e-07
1.38955e-06
7.11105e-06
7.11128e-06
1.38939e-06
5.71725e-07
4.15402e-07
4.08894e-07
1.14827e-06
4.08943e-07
1.14855e-06
5.7165e-07
1.38955e-06
7.11176e-06
7.11151e-06
1.38939e-06
2.31269e-06
2.31169e-06
4.28523e-07
2.31318e-06
2.31235e-06
2.41895e-05
2.42019e-05
2.42058e-05
2.42061e-05
4.28623e-07
2.31338e-06
2.31249e-06
2.31375e-06
2.31271e-06
2.42046e-05
2.42046e-05
5.71614e-07
4.09057e-07
1.14827e-06
4.15455e-07
5.71666e-07
4.09009e-07
1.14822e-06
1.38901e-06
7.10611e-06
1.38873e-06
7.11005e-06
1.38901e-06
7.10634e-06
1.38873e-06
7.11026e-06
5.71716e-07
4.15397e-07
4.08896e-07
1.14827e-06
4.08942e-07
1.14854e-06
5.71638e-07
5.71713e-07
4.15397e-07
4.08895e-07
1.14837e-06
4.08944e-07
1.14865e-06
5.71636e-07
1.38936e-06
7.11189e-06
7.11166e-06
1.38925e-06
1.38936e-06
7.11212e-06
7.11189e-06
1.38924e-06
2.41898e-05
2.42022e-05
2.41909e-05
2.42034e-05
4.2862e-07
2.31249e-06
2.31298e-06
2.3127e-06
2.31318e-06
2.42048e-05
2.42049e-05
2.42062e-05
2.42062e-05
2.42025e-05
2.42022e-05
2.42059e-05
2.42056e-05
2.31261e-06
2.31311e-06
4.28405e-07
2.31237e-06
2.31288e-06
2.42022e-05
2.42023e-05
2.42055e-05
2.42057e-05
4.28524e-07
2.31235e-06
2.31287e-06
2.31259e-06
2.31308e-06
1.38938e-06
7.11128e-06
1.38964e-06
7.11122e-06
5.71652e-07
1.14857e-06
4.08869e-07
4.15326e-07
5.71739e-07
1.14822e-06
4.08859e-07
5.7165e-07
1.1487e-06
4.08868e-07
4.15324e-07
5.71739e-07
1.14834e-06
4.08858e-07
1.38965e-06
7.11066e-06
7.11067e-06
1.38939e-06
1.38965e-06
7.1112e-06
7.11124e-06
1.38938e-06
5.7174e-07
4.1532e-07
1.14822e-06
4.08852e-07
1.14858e-06
4.08852e-07
5.71646e-07
5.71738e-07
4.1532e-07
1.14834e-06
4.08852e-07
1.14869e-06
4.08852e-07
5.71643e-07
2.31315e-06
2.31299e-06
4.284e-07
2.31289e-06
2.31261e-06
2.42017e-05
2.42012e-05
2.42042e-05
2.42042e-05
4.28522e-07
2.31284e-06
2.31262e-06
2.3131e-06
2.31295e-06
2.42012e-05
2.42016e-05
5.71647e-07
1.14884e-06
4.08869e-07
4.15321e-07
5.71735e-07
1.14847e-06
4.08859e-07
1.38928e-06
7.11225e-06
1.3895e-06
7.11208e-06
5.71653e-07
4.0887e-07
1.14893e-06
4.15331e-07
5.71742e-07
4.0886e-07
1.14856e-06
1.38948e-06
7.11165e-06
7.11172e-06
1.38925e-06
5.71733e-07
4.15316e-07
1.14847e-06
4.08852e-07
1.14885e-06
4.08852e-07
5.71639e-07
1.3895e-06
7.11204e-06
7.11214e-06
1.38927e-06
5.7174e-07
4.15325e-07
4.08853e-07
1.14856e-06
4.08853e-07
1.14893e-06
5.71646e-07
1.3894e-06
7.11111e-06
1.38966e-06
7.11099e-06
5.71652e-07
4.08869e-07
1.14863e-06
4.15326e-07
5.71738e-07
4.08859e-07
1.14829e-06
1.3894e-06
7.11178e-06
1.38966e-06
7.11168e-06
5.71734e-07
4.15315e-07
1.14832e-06
4.08852e-07
1.14869e-06
4.08854e-07
5.71644e-07
1.38967e-06
7.11097e-06
7.11106e-06
1.38939e-06
5.71739e-07
4.1532e-07
4.08852e-07
1.14829e-06
4.08852e-07
1.14864e-06
5.71648e-07
1.38967e-06
7.11164e-06
7.1117e-06
1.38939e-06
2.31368e-06
2.31271e-06
4.2841e-07
2.31332e-06
2.31246e-06
2.42046e-05
2.42043e-05
2.42054e-05
2.42058e-05
4.28528e-07
2.31331e-06
2.31245e-06
2.31363e-06
2.31268e-06
2.42043e-05
2.42044e-05
5.71638e-07
4.08869e-07
1.14873e-06
4.15321e-07
5.71727e-07
4.08859e-07
1.14839e-06
1.38926e-06
7.11191e-06
1.38948e-06
7.11181e-06
1.38926e-06
7.11214e-06
1.38948e-06
7.11204e-06
5.71728e-07
4.15318e-07
4.08853e-07
1.14829e-06
4.08854e-07
1.14863e-06
5.71635e-07
5.71726e-07
4.15315e-07
4.08852e-07
1.14839e-06
4.08852e-07
1.14874e-06
5.71631e-07
1.38949e-06
7.11177e-06
7.11183e-06
1.38925e-06
1.38948e-06
7.112e-06
7.11206e-06
1.38925e-06
2.42049e-05
2.42046e-05
2.42062e-05
2.42059e-05
4.28525e-07
2.31246e-06
2.31294e-06
2.31269e-06
2.31317e-06
2.42045e-05
2.42047e-05
2.42058e-05
2.4206e-05
2.42023e-05
2.42021e-05
2.42057e-05
2.42055e-05
2.31257e-06
2.31308e-06
4.28418e-07
2.31235e-06
2.31287e-06
2.42022e-05
2.42023e-05
2.42055e-05
2.42056e-05
4.28537e-07
2.31234e-06
2.31287e-06
2.31257e-06
2.31308e-06
1.38938e-06
7.11123e-06
1.38964e-06
7.1112e-06
5.71649e-07
1.14858e-06
4.08856e-07
4.15324e-07
5.71733e-07
1.14822e-06
4.08856e-07
5.71647e-07
1.14869e-06
4.08856e-07
4.15323e-07
5.71732e-07
1.14834e-06
4.08856e-07
1.38966e-06
7.11065e-06
7.11065e-06
1.38939e-06
1.38965e-06
7.11119e-06
7.11123e-06
1.38938e-06
5.71739e-07
4.15321e-07
1.14822e-06
4.08852e-07
1.14858e-06
4.08853e-07
5.7165e-07
5.71738e-07
4.1532e-07
1.14833e-06
4.08852e-07
1.14869e-06
4.08853e-07
5.71647e-07
2.31307e-06
2.31296e-06
4.28414e-07
2.31283e-06
2.31263e-06
2.42015e-05
2.42012e-05
2.42043e-05
2.42043e-05
4.28532e-07
2.31282e-06
2.31263e-06
2.31305e-06
2.31297e-06
2.42012e-05
2.42016e-05
5.71643e-07
1.14885e-06
4.08856e-07
4.15319e-07
5.71726e-07
1.14847e-06
4.08856e-07
1.38927e-06
7.1121e-06
1.3895e-06
7.11203e-06
5.7165e-07
4.08858e-07
1.14893e-06
4.15328e-07
5.71733e-07
4.08858e-07
1.14856e-06
1.38948e-06
7.11164e-06
7.11171e-06
1.38925e-06
5.71732e-07
4.15316e-07
1.14847e-06
4.08852e-07
1.14885e-06
4.08853e-07
5.71644e-07
1.3895e-06
7.11204e-06
7.1121e-06
1.38927e-06
5.71739e-07
4.15326e-07
4.08853e-07
1.14856e-06
4.08854e-07
1.14893e-06
5.71651e-07
1.38939e-06
7.11104e-06
1.38966e-06
7.11097e-06
5.71649e-07
4.08856e-07
1.14864e-06
4.15324e-07
5.71734e-07
4.08856e-07
1.14829e-06
1.38939e-06
7.11167e-06
1.38966e-06
7.11163e-06
5.71733e-07
4.15315e-07
1.14832e-06
4.08851e-07
1.14869e-06
4.08854e-07
5.71647e-07
1.38966e-06
7.11097e-06
7.11104e-06
1.38939e-06
5.71737e-07
4.15321e-07
4.08852e-07
1.14829e-06
4.08853e-07
1.14864e-06
5.71651e-07
1.38966e-06
7.11163e-06
7.11166e-06
1.3894e-06
2.31363e-06
2.31268e-06
4.28422e-07
2.31332e-06
2.31245e-06
2.42044e-05
2.42042e-05
2.42054e-05
2.42058e-05
4.28541e-07
2.31331e-06
2.31245e-06
2.31363e-06
2.31267e-06
2.42042e-05
2.42043e-05
5.71634e-07
4.08856e-07
1.14874e-06
4.15318e-07
5.7172e-07
4.08856e-07
1.14839e-06
1.38925e-06
7.1118e-06
1.38948e-06
7.11176e-06
1.38925e-06
7.11203e-06
1.38948e-06
7.11199e-06
5.71726e-07
4.15318e-07
4.08852e-07
1.14829e-06
4.08854e-07
1.14863e-06
5.71638e-07
5.71724e-07
4.15316e-07
4.08852e-07
1.14839e-06
4.08853e-07
1.14874e-06
5.71635e-07
1.38948e-06
7.11176e-06
7.11179e-06
1.38925e-06
1.38948e-06
7.11199e-06
7.11202e-06
1.38925e-06
2.42046e-05
2.42045e-05
2.4206e-05
2.42058e-05
4.28539e-07
2.31246e-06
2.31295e-06
2.31269e-06
2.31316e-06
2.42045e-05
2.42046e-05
2.42058e-05
2.4206e-05
2.42023e-05
2.42021e-05
2.42056e-05
2.42055e-05
2.31256e-06
2.31308e-06
4.28414e-07
2.31233e-06
2.31287e-06
2.42022e-05
2.42023e-05
2.42055e-05
2.42056e-05
4.28535e-07
2.31232e-06
2.31286e-06
2.31255e-06
2.31308e-06
1.38938e-06
7.11122e-06
1.38965e-06
7.11105e-06
5.71646e-07
1.14858e-06
4.08855e-07
4.15323e-07
5.71736e-07
1.14822e-06
4.08855e-07
5.71644e-07
1.14869e-06
4.08855e-07
4.15322e-07
5.71735e-07
1.14836e-06
4.08855e-07
1.38965e-06
7.11059e-06
7.11067e-06
1.38939e-06
1.38965e-06
7.11098e-06
7.11111e-06
1.38938e-06
5.71737e-07
4.15321e-07
1.14822e-06
4.08852e-07
1.14858e-06
4.08853e-07
5.71651e-07
5.71735e-07
4.1532e-07
1.1484e-06
4.08852e-07
1.14875e-06
4.08853e-07
5.71648e-07
2.31305e-06
2.31297e-06
4.28412e-07
2.31293e-06
2.31264e-06
2.42016e-05
2.42012e-05
2.42029e-05
2.42035e-05
4.28532e-07
2.31307e-06
2.31263e-06
2.31328e-06
2.31298e-06
2.42012e-05
2.42016e-05
5.7164e-07
1.14885e-06
4.08855e-07
4.15318e-07
5.7173e-07
1.14847e-06
4.08855e-07
1.38927e-06
7.1121e-06
1.38949e-06
7.11203e-06
5.71646e-07
4.08856e-07
1.14893e-06
4.15328e-07
5.71737e-07
4.08856e-07
1.14856e-06
1.38948e-06
7.11164e-06
7.11171e-06
1.38925e-06
5.71729e-07
4.15316e-07
1.14847e-06
4.08852e-07
1.14885e-06
4.08853e-07
5.71644e-07
1.38949e-06
7.11203e-06
7.1121e-06
1.38927e-06
5.71735e-07
4.15326e-07
4.08853e-07
1.14856e-06
4.08854e-07
1.14893e-06
5.7165e-07
1.3894e-06
7.11104e-06
1.38966e-06
7.11097e-06
5.71649e-07
4.08855e-07
1.14864e-06
4.15323e-07
5.71737e-07
4.08855e-07
1.14829e-06
1.3894e-06
7.11166e-06
1.38966e-06
7.11164e-06
5.71732e-07
4.15314e-07
1.14832e-06
4.08851e-07
1.14869e-06
4.08854e-07
5.71646e-07
1.38967e-06
7.11097e-06
7.11104e-06
1.3894e-06
5.71736e-07
4.15321e-07
4.08853e-07
1.14829e-06
4.08853e-07
1.14864e-06
5.7165e-07
1.38967e-06
7.11164e-06
7.11167e-06
1.3894e-06
2.31363e-06
2.31268e-06
4.28419e-07
2.31332e-06
2.31245e-06
2.42044e-05
2.42042e-05
2.42054e-05
2.42058e-05
4.2854e-07
2.31331e-06
2.31245e-06
2.31363e-06
2.31267e-06
2.42042e-05
2.42043e-05
5.71632e-07
4.08855e-07
1.14874e-06
4.15318e-07
5.71723e-07
4.08855e-07
1.14839e-06
1.38925e-06
7.11179e-06
1.38948e-06
7.11176e-06
1.38925e-06
7.11202e-06
1.38947e-06
7.11199e-06
5.71725e-07
4.15317e-07
4.08852e-07
1.14829e-06
4.08854e-07
1.14863e-06
5.71638e-07
5.71722e-07
4.15315e-07
4.08852e-07
1.14839e-06
4.08853e-07
1.14874e-06
5.71634e-07
1.38948e-06
7.11176e-06
7.1118e-06
1.38925e-06
1.38948e-06
7.11199e-06
7.11202e-06
1.38925e-06
2.42046e-05
2.42045e-05
2.4206e-05
2.42058e-05
4.28537e-07
2.31246e-06
2.31294e-06
2.31269e-06
2.31317e-06
2.42045e-05
2.42046e-05
2.42058e-05
2.4206e-05
2.42023e-05
2.42026e-05
2.42056e-05
2.42055e-05
2.31256e-06
2.31308e-06
4.28415e-07
2.31237e-06
2.31286e-06