/*--------------------------------*- C++ -*----------------------------------*\
| =========                 |                                                 |
| \\      /  F ield         | OpenFOAM: The Open Source CFD Toolbox           |
|  \\    /   O peration     | Version:  2206                                  |
|   \\  /    A nd           | Website:  www.openfoam.com                      |
|    \\/     M anipulation  |                                                 |
\*---------------------------------------------------------------------------*/
FoamFile
{
    version     2.0;
    format      ascii;
    arch        "LSB;label=32;scalar=64";
    class       volScalarField;
    location    "11";
    object      k;
}
// * * * * * * * * * * * * * * * * * * * * * * * * * * * * * * * * * * * * * //

dimensions      [0 2 -2 0 0 0 0];

internalField   nonuniform List<scalar> 
28687
(
3.2359e-05
3.22983e-05
3.22984e-05
3.22022e-05
3.23589e-05
3.22984e-05
3.22982e-05
3.2202e-05
3.23567e-05
3.22943e-05
3.22962e-05
3.22e-05
3.23488e-05
3.22876e-05
3.22877e-05
3.21908e-05
3.23485e-05
3.22875e-05
3.22875e-05
3.21908e-05
3.23485e-05
3.22876e-05
3.22875e-05
3.21908e-05
3.23485e-05
3.22876e-05
3.22875e-05
3.21908e-05
3.23485e-05
3.22876e-05
3.22875e-05
3.21908e-05
3.23485e-05
3.22876e-05
3.22875e-05
3.21908e-05
3.23485e-05
3.22876e-05
3.22875e-05
3.21908e-05
3.23485e-05
3.22876e-05
3.22875e-05
3.21908e-05
3.23485e-05
3.22876e-05
3.22875e-05
3.21908e-05
3.23485e-05
3.22876e-05
3.22875e-05
3.21908e-05
3.23485e-05
3.22876e-05
3.22875e-05
3.21908e-05
3.23485e-05
3.22876e-05
3.22875e-05
3.21908e-05
3.23485e-05
3.22876e-05
3.22875e-05
3.21908e-05
3.23485e-05
3.22876e-05
3.22875e-05
3.21908e-05
3.23485e-05
3.22876e-05
3.22875e-05
3.21908e-05
3.22984e-05
3.22031e-05
3.22983e-05
3.22023e-05
3.22029e-05
3.22983e-05
3.22984e-05
3.22983e-05
3.22983e-05
3.22025e-05
3.2203e-05
3.22984e-05
3.22983e-05
3.22983e-05
3.22982e-05
3.22984e-05
3.22984e-05
3.22983e-05
3.22022e-05
3.22028e-05
3.22984e-05
3.22983e-05
3.22983e-05
3.22028e-05
3.22023e-05
3.22019e-05
3.22982e-05
3.22983e-05
3.22975e-05
3.22968e-05
3.22024e-05
3.22006e-05
3.22983e-05
3.22982e-05
3.22976e-05
3.22975e-05
3.22982e-05
3.22971e-05
3.22975e-05
3.22022e-05
3.22019e-05
3.22983e-05
3.22975e-05
3.22976e-05
3.2202e-05
3.22006e-05
3.21919e-05
3.22962e-05
3.22939e-05
3.22884e-05
3.22879e-05
3.21976e-05
3.21917e-05
3.22963e-05
3.22962e-05
3.22885e-05
3.22884e-05
3.22962e-05
3.2288e-05
3.22884e-05
3.22005e-05
3.21918e-05
3.22962e-05
3.22884e-05
3.22885e-05
3.21919e-05
3.21912e-05
3.21918e-05
3.22879e-05
3.22877e-05
3.22875e-05
3.22875e-05
3.21911e-05
3.21917e-05
3.22879e-05
3.22878e-05
3.22875e-05
3.22874e-05
3.22879e-05
3.22876e-05
3.22875e-05
3.2191e-05
3.21917e-05
3.22879e-05
3.22876e-05
3.22875e-05
3.21916e-05
3.21912e-05
3.21918e-05
3.22877e-05
3.22876e-05
3.22875e-05
3.22875e-05
3.21911e-05
3.21918e-05
3.22877e-05
3.22876e-05
3.22875e-05
3.22875e-05
3.22877e-05
3.22876e-05
3.22875e-05
3.21911e-05
3.21917e-05
3.22877e-05
3.22876e-05
3.22876e-05
3.21916e-05
3.21912e-05
3.21918e-05
3.22876e-05
3.22876e-05
3.22875e-05
3.22875e-05
3.21911e-05
3.21918e-05
3.22877e-05
3.22876e-05
3.22875e-05
3.22875e-05
3.22876e-05
3.22876e-05
3.22875e-05
3.21911e-05
3.21917e-05
3.22877e-05
3.22876e-05
3.22876e-05
3.21916e-05
3.21912e-05
3.21918e-05
3.22876e-05
3.22877e-05
3.22875e-05
3.22875e-05
3.21912e-05
3.21918e-05
3.22877e-05
3.22876e-05
3.22875e-05
3.22875e-05
3.22877e-05
3.22876e-05
3.22875e-05
3.21911e-05
3.21917e-05
3.22877e-05
3.22876e-05
3.22876e-05
3.21916e-05
3.21912e-05
3.21918e-05
3.22876e-05
3.22876e-05
3.22875e-05
3.22875e-05
3.21912e-05
3.21918e-05
3.22877e-05
3.22876e-05
3.22875e-05
3.22875e-05
3.22876e-05
3.22876e-05
3.22875e-05
3.21911e-05
3.21917e-05
3.22877e-05
3.22876e-05
3.22876e-05
3.21916e-05
3.21912e-05
3.21918e-05
3.22876e-05
3.22876e-05
3.22875e-05
3.22875e-05
3.21911e-05
3.21918e-05
3.22877e-05
3.22876e-05
3.22875e-05
3.22875e-05
3.22877e-05
3.22876e-05
3.22875e-05
3.21911e-05
3.21917e-05
3.22877e-05
3.22876e-05
3.22876e-05
3.21916e-05
3.21912e-05
3.21918e-05
3.22876e-05
3.22876e-05
3.22875e-05
3.22875e-05
3.21912e-05
3.21918e-05
3.22877e-05
3.22876e-05
3.22876e-05
3.22875e-05
3.22876e-05
3.22876e-05
3.22875e-05
3.21911e-05
3.21917e-05
3.22877e-05
3.22876e-05
3.22876e-05
3.21916e-05
3.21912e-05
3.21918e-05
3.22876e-05
3.22876e-05
3.22875e-05
3.22875e-05
3.21912e-05
3.21918e-05
3.22877e-05
3.22876e-05
3.22876e-05
3.22875e-05
3.22877e-05
3.22876e-05
3.22875e-05
3.21911e-05
3.21917e-05
3.22877e-05
3.22876e-05
3.22876e-05
3.21916e-05
3.21912e-05
3.21918e-05
3.22876e-05
3.22876e-05
3.22875e-05
3.22875e-05
3.21911e-05
3.21918e-05
3.22877e-05
3.22876e-05
3.22876e-05
3.22875e-05
3.22876e-05
3.22876e-05
3.22875e-05
3.21911e-05
3.21917e-05
3.22877e-05
3.22876e-05
3.22876e-05
3.21916e-05
3.21912e-05
3.21918e-05
3.22876e-05
3.22876e-05
3.22875e-05
3.22875e-05
3.21912e-05
3.21918e-05
3.22877e-05
3.22876e-05
3.22876e-05
3.22875e-05
3.22876e-05
3.22876e-05
3.22875e-05
3.21911e-05
3.21917e-05
3.22877e-05
3.22876e-05
3.22876e-05
3.21916e-05
3.21912e-05
3.21918e-05
3.22876e-05
3.22876e-05
3.22875e-05
3.22875e-05
3.21912e-05
3.21918e-05
3.22877e-05
3.22876e-05
3.22876e-05
3.22875e-05
3.22876e-05
3.22876e-05
3.22875e-05
3.21911e-05
3.21917e-05
3.22877e-05
3.22876e-05
3.22876e-05
3.21916e-05
3.21912e-05
3.21918e-05
3.22876e-05
3.22876e-05
3.22875e-05
3.22875e-05
3.21912e-05
3.21918e-05
3.22877e-05
3.22876e-05
3.22876e-05
3.22875e-05
3.22876e-05
3.22876e-05
3.22875e-05
3.21911e-05
3.21917e-05
3.22877e-05
3.22876e-05
3.22876e-05
3.21916e-05
3.21912e-05
3.21918e-05
3.22876e-05
3.22876e-05
3.22875e-05
3.22875e-05
3.21911e-05
3.21918e-05
3.22877e-05
3.22876e-05
3.22876e-05
3.22875e-05
3.22877e-05
3.22876e-05
3.22875e-05
3.21911e-05
3.21917e-05
3.22877e-05
3.22876e-05
3.22876e-05
3.21916e-05
3.21912e-05
3.21918e-05
3.22876e-05
3.22876e-05
3.22875e-05
3.22875e-05
3.21911e-05
3.21918e-05
3.22877e-05
3.22876e-05
3.22876e-05
3.22875e-05
3.22876e-05
3.22876e-05
3.22875e-05
3.21911e-05
3.21917e-05
3.22877e-05
3.22876e-05
3.22876e-05
3.21916e-05
3.21912e-05
3.22876e-05
3.22876e-05
3.21911e-05
3.22876e-05
3.22875e-05
3.22876e-05
3.21911e-05
3.22876e-05
3.29544e-05
6.0266e-05
3.29546e-05
6.02641e-05
8.33852e-05
8.33784e-05
3.29549e-05
6.0268e-05
3.29549e-05
6.02658e-05
3.23593e-05
3.2359e-05
3.2359e-05
3.23589e-05
3.23591e-05
3.23589e-05
3.23589e-05
3.18773e-05
3.2725e-05
3.2342e-05
3.22985e-05
3.18774e-05
3.27245e-05
3.2342e-05
8.33927e-05
8.33805e-05
3.18774e-05
3.23419e-05
3.27246e-05
3.22984e-05
3.18775e-05
3.23419e-05
3.27236e-05
3.39916e-05
3.39918e-05
3.2203e-05
3.39941e-05
3.39942e-05
3.29562e-05
6.02647e-05
3.29566e-05
6.02624e-05
8.33741e-05
8.33716e-05
3.29566e-05
6.02666e-05
3.29569e-05
6.02641e-05
3.23591e-05
3.23589e-05
3.23589e-05
3.23582e-05
3.23581e-05
3.23581e-05
3.23581e-05
3.18776e-05
3.27268e-05
3.23419e-05
3.22984e-05
3.18777e-05
3.27258e-05
3.23418e-05
8.33755e-05
8.33711e-05
3.18776e-05
3.23418e-05
3.27259e-05
3.22982e-05
3.18777e-05
3.23417e-05
3.27253e-05
3.39988e-05
3.3999e-05
3.22029e-05
3.39997e-05
3.39999e-05
3.29515e-05
6.02685e-05
3.29559e-05
6.02899e-05
8.34056e-05
8.34165e-05
3.29517e-05
6.0271e-05
3.29562e-05
6.02909e-05
3.23562e-05
3.23568e-05
3.23568e-05
3.23496e-05
3.23494e-05
3.23496e-05
3.23496e-05
3.18699e-05
3.27252e-05
3.23394e-05
3.22913e-05
3.18763e-05
3.27178e-05
3.23364e-05
8.33836e-05
8.34093e-05
3.187e-05
3.23396e-05
3.27254e-05
3.2293e-05
3.18763e-05
3.23367e-05
3.27202e-05
3.39996e-05
3.39998e-05
3.21964e-05
3.39949e-05
3.39951e-05
3.29443e-05
6.03004e-05
3.29453e-05
6.02983e-05
8.34174e-05
8.3416e-05
3.29449e-05
6.03024e-05
3.29457e-05
6.03002e-05
3.23489e-05
3.2349e-05
3.2349e-05
3.23486e-05
3.23486e-05
3.23486e-05
3.23485e-05
3.18646e-05
3.27149e-05
3.23315e-05
3.22877e-05
3.18644e-05
3.27135e-05
3.23315e-05
8.34172e-05
8.34149e-05
3.18647e-05
3.23315e-05
3.27153e-05
3.22877e-05
3.18645e-05
3.23315e-05
3.27137e-05
3.39852e-05
3.39853e-05
3.21918e-05
3.39845e-05
3.39846e-05
3.29443e-05
6.03001e-05
3.29451e-05
6.02983e-05
8.34177e-05
8.34163e-05
3.29449e-05
6.03022e-05
3.29455e-05
6.03001e-05
3.23487e-05
3.23487e-05
3.23487e-05
3.23485e-05
3.23486e-05
3.23486e-05
3.23485e-05
3.18646e-05
3.27147e-05
3.23313e-05
3.22877e-05
3.18644e-05
3.27134e-05
3.23314e-05
8.34166e-05
8.34147e-05
3.18647e-05
3.23313e-05
3.27148e-05
3.22877e-05
3.18645e-05
3.23314e-05
3.27136e-05
3.39852e-05
3.39853e-05
3.21918e-05
3.39847e-05
3.39848e-05
3.29443e-05
6.03001e-05
3.29451e-05
6.02983e-05
8.34178e-05
8.34146e-05
3.29449e-05
6.03021e-05
3.29455e-05
6.03001e-05
3.23487e-05
3.23487e-05
3.23487e-05
3.23485e-05
3.23486e-05
3.23486e-05
3.23486e-05
3.18646e-05
3.27147e-05
3.23313e-05
3.22877e-05
3.18644e-05
3.27134e-05
3.23314e-05
8.34166e-05
8.34147e-05
3.18647e-05
3.23313e-05
3.27148e-05
3.22877e-05
3.18645e-05
3.23314e-05
3.27136e-05
3.39852e-05
3.39853e-05
3.21918e-05
3.39847e-05
3.39848e-05
3.29443e-05
6.02999e-05
3.29451e-05
6.02981e-05
8.34156e-05
8.34151e-05
3.29449e-05
6.03021e-05
3.29455e-05
6.03001e-05
3.23487e-05
3.23487e-05
3.23487e-05
3.23485e-05
3.23486e-05
3.23486e-05
3.23486e-05
3.18646e-05
3.27147e-05
3.23313e-05
3.22877e-05
3.18644e-05
3.27134e-05
3.23314e-05
8.34166e-05
8.34147e-05
3.18647e-05
3.23313e-05
3.27148e-05
3.22877e-05
3.18645e-05
3.23314e-05
3.27136e-05
3.39852e-05
3.39853e-05
3.21918e-05
3.39847e-05
3.39848e-05
3.29443e-05
6.03e-05
3.29451e-05
6.02981e-05
8.34179e-05
8.34169e-05
3.29449e-05
6.03021e-05
3.29455e-05
6.03001e-05
3.23487e-05
3.23487e-05
3.23487e-05
3.23485e-05
3.23486e-05
3.23486e-05
3.23486e-05
3.18646e-05
3.27147e-05
3.23313e-05
3.22877e-05
3.18644e-05
3.27134e-05
3.23314e-05
8.34166e-05
8.34147e-05
3.18647e-05
3.23313e-05
3.27148e-05
3.22877e-05
3.18645e-05
3.23314e-05
3.27136e-05
3.39852e-05
3.39853e-05
3.21918e-05
3.39847e-05
3.39848e-05
3.29443e-05
6.03e-05
3.29451e-05
6.02981e-05
8.34178e-05
8.34158e-05
3.29449e-05
6.03022e-05
3.29455e-05
6.03005e-05
3.23487e-05
3.23487e-05
3.23487e-05
3.23485e-05
3.23486e-05
3.23486e-05
3.23486e-05
3.18646e-05
3.27147e-05
3.23313e-05
3.22877e-05
3.18644e-05
3.27134e-05
3.23314e-05
8.34166e-05
8.34147e-05
3.18647e-05
3.23313e-05
3.27148e-05
3.22877e-05
3.18645e-05
3.23314e-05
3.27136e-05
3.39852e-05
3.39853e-05
3.21918e-05
3.39847e-05
3.39848e-05
3.29443e-05
6.02996e-05
3.29451e-05
6.02975e-05
8.34171e-05
8.34155e-05
3.29449e-05
6.03026e-05
3.29456e-05
6.03008e-05
3.23487e-05
3.23487e-05
3.23487e-05
3.23485e-05
3.23486e-05
3.23486e-05
3.23486e-05
3.18646e-05
3.27147e-05
3.23313e-05
3.22877e-05
3.18644e-05
3.27134e-05
3.23314e-05
8.34166e-05
8.34147e-05
3.18647e-05
3.23313e-05
3.27148e-05
3.22877e-05
3.18645e-05
3.23314e-05
3.27136e-05
3.39852e-05
3.39853e-05
3.21918e-05
3.39847e-05
3.39848e-05
3.29443e-05
6.02992e-05
3.29451e-05
6.02973e-05
8.34169e-05
8.34155e-05
3.29449e-05
6.03028e-05
3.29456e-05
6.0301e-05
3.23487e-05
3.23487e-05
3.23487e-05
3.23485e-05
3.23486e-05
3.23486e-05
3.23486e-05
3.18646e-05
3.27147e-05
3.23313e-05
3.22877e-05
3.18644e-05
3.27134e-05
3.23314e-05
8.34166e-05
8.34147e-05
3.18647e-05
3.23313e-05
3.27148e-05
3.22877e-05
3.18645e-05
3.23314e-05
3.27136e-05
3.39853e-05
3.39853e-05
3.21918e-05
3.39847e-05
3.39848e-05
3.29443e-05
6.02993e-05
3.29451e-05
6.02973e-05
8.3417e-05
8.34156e-05
3.29449e-05
6.03029e-05
3.29456e-05
6.0301e-05
3.23487e-05
3.23487e-05
3.23487e-05
3.23485e-05
3.23486e-05
3.23486e-05
3.23486e-05
3.18646e-05
3.27147e-05
3.23313e-05
3.22877e-05
3.18644e-05
3.27134e-05
3.23314e-05
8.34166e-05
8.34147e-05
3.18647e-05
3.23313e-05
3.27148e-05
3.22877e-05
3.18645e-05
3.23314e-05
3.27136e-05
3.39852e-05
3.39853e-05
3.21918e-05
3.39847e-05
3.39848e-05
3.29443e-05
6.02992e-05
3.29451e-05
6.02973e-05
8.3417e-05
8.34156e-05
3.29449e-05
6.0303e-05
3.29456e-05
6.03011e-05
3.23487e-05
3.23487e-05
3.23487e-05
3.23485e-05
3.23486e-05
3.23486e-05
3.23486e-05
3.18646e-05
3.27147e-05
3.23313e-05
3.22877e-05
3.18644e-05
3.27134e-05
3.23314e-05
8.34166e-05
8.34147e-05
3.18647e-05
3.23313e-05
3.27148e-05
3.22877e-05
3.18645e-05
3.23314e-05
3.27136e-05
3.39852e-05
3.39853e-05
3.21918e-05
3.39847e-05
3.39848e-05
3.29443e-05
6.02992e-05
3.29451e-05
6.02973e-05
8.3417e-05
8.34156e-05
3.29449e-05
6.0303e-05
3.29455e-05
6.03011e-05
3.23487e-05
3.23487e-05
3.23487e-05
3.23485e-05
3.23486e-05
3.23486e-05
3.23486e-05
3.18646e-05
3.27147e-05
3.23313e-05
3.22877e-05
3.18644e-05
3.27134e-05
3.23314e-05
8.34166e-05
8.34147e-05
3.18647e-05
3.23313e-05
3.27148e-05
3.22877e-05
3.18645e-05
3.23314e-05
3.27136e-05
3.39852e-05
3.39853e-05
3.21918e-05
3.39847e-05
3.39848e-05
3.29443e-05
6.02992e-05
3.29451e-05
6.02973e-05
8.3417e-05
8.34156e-05
3.29449e-05
6.0303e-05
3.29455e-05
6.03011e-05
3.23487e-05
3.23487e-05
3.23487e-05
3.23485e-05
3.23486e-05
3.23486e-05
3.23486e-05
3.18646e-05
3.27147e-05
3.23313e-05
3.22877e-05
3.18644e-05
3.27134e-05
3.23314e-05
8.34166e-05
8.34147e-05
3.18647e-05
3.23313e-05
3.27148e-05
3.22877e-05
3.18645e-05
3.23314e-05
3.27136e-05
3.39852e-05
3.39853e-05
3.21918e-05
3.39847e-05
3.39848e-05
3.29443e-05
6.02992e-05
3.29451e-05
6.02973e-05
8.3417e-05
8.34156e-05
3.29449e-05
6.0303e-05
3.29455e-05
6.03011e-05
3.23487e-05
3.23487e-05
3.23487e-05
3.23485e-05
3.23486e-05
3.23486e-05
3.23486e-05
3.18646e-05
3.27147e-05
3.23313e-05
3.22877e-05
3.18644e-05
3.27134e-05
3.23314e-05
8.34166e-05
8.34147e-05
3.18647e-05
3.23313e-05
3.27148e-05
3.22877e-05
3.18645e-05
3.23314e-05
3.27136e-05
3.39852e-05
3.39853e-05
3.21918e-05
3.39847e-05
3.39848e-05
3.29443e-05
6.02992e-05
3.29451e-05
6.02973e-05
8.3417e-05
8.34155e-05
3.29449e-05
6.0303e-05
3.29456e-05
6.03011e-05
3.23487e-05
3.23487e-05
3.23487e-05
3.23485e-05
3.23486e-05
3.23486e-05
3.23486e-05
3.18646e-05
3.27147e-05
3.23313e-05
3.22877e-05
3.18644e-05
3.27134e-05
3.23314e-05
8.34166e-05
8.34147e-05
3.18647e-05
3.23313e-05
3.27148e-05
3.22877e-05
3.18645e-05
3.23314e-05
3.27136e-05
3.39853e-05
3.39853e-05
3.21918e-05
3.39847e-05
3.39848e-05
3.29445e-05
6.02992e-05
3.29451e-05
6.02975e-05
8.3417e-05
8.34156e-05
3.2945e-05
6.0303e-05
3.29455e-05
6.03013e-05
3.23486e-05
3.23486e-05
3.23486e-05
3.18646e-05
3.27147e-05
3.23313e-05
3.22876e-05
3.18644e-05
3.27134e-05
3.23315e-05
8.34166e-05
8.3415e-05
3.18651e-05
3.23313e-05
3.27148e-05
3.22877e-05
3.18645e-05
3.23315e-05
3.27138e-05
3.39853e-05
3.39853e-05
3.21921e-05
3.39847e-05
3.39848e-05
6.02653e-05
3.27239e-05
8.3386e-05
3.3992e-05
3.39889e-05
8.33813e-05
3.27234e-05
6.02639e-05
8.33919e-05
8.3381e-05
8.33944e-05
8.33834e-05
3.39917e-05
3.39916e-05
3.2203e-05
3.39941e-05
3.3994e-05
8.33746e-05
8.33804e-05
8.33771e-05
8.33829e-05
3.22024e-05
3.39974e-05
3.39974e-05
3.3996e-05
3.39958e-05
3.29545e-05
6.02657e-05
3.29546e-05
6.02643e-05
3.18774e-05
3.27245e-05
3.23419e-05
3.22983e-05
3.18775e-05
3.27235e-05
3.23419e-05
3.18774e-05
3.27258e-05
3.2342e-05
3.22984e-05
3.18775e-05
3.27249e-05
3.2342e-05
3.2956e-05
6.02632e-05
6.02642e-05
3.29556e-05
3.29561e-05
6.02634e-05
6.02643e-05
3.29557e-05
3.1878e-05
3.22983e-05
3.27245e-05
3.23418e-05
3.27254e-05
3.23419e-05
3.18779e-05
3.1878e-05
3.22984e-05
3.27258e-05
3.23419e-05
3.27268e-05
3.2342e-05
3.1878e-05
3.39944e-05
3.39919e-05
3.22031e-05
3.39963e-05
3.39936e-05
8.33812e-05
8.33733e-05
8.33737e-05
8.3378e-05
3.22025e-05
3.39993e-05
3.39966e-05
3.39982e-05
3.39959e-05
8.33688e-05
8.33733e-05
3.18775e-05
3.27251e-05
3.23419e-05
3.22984e-05
3.18777e-05
3.2724e-05
3.23419e-05
3.29545e-05
6.02684e-05
3.29545e-05
6.0266e-05
3.18774e-05
3.23418e-05
3.27246e-05
3.22983e-05
3.18775e-05
3.23418e-05
3.27235e-05
3.29563e-05
6.02648e-05
6.02662e-05
3.29561e-05
3.18781e-05
3.22983e-05
3.2725e-05
3.23418e-05
3.2726e-05
3.23418e-05
3.1878e-05
3.29559e-05
6.02648e-05
6.02662e-05
3.29557e-05
3.1878e-05
3.22982e-05
3.23418e-05
3.27245e-05
3.23418e-05
3.27255e-05
3.18779e-05
3.29545e-05
6.02645e-05
3.29546e-05
6.02629e-05
3.18774e-05
3.23419e-05
3.27245e-05
3.22983e-05
3.18775e-05
3.23419e-05
3.27235e-05
3.29544e-05
6.02683e-05
3.29545e-05
6.02661e-05
3.1878e-05
3.22985e-05
3.27254e-05
3.23419e-05
3.27265e-05
3.2342e-05
3.18777e-05
3.2956e-05
6.02618e-05
6.02631e-05
3.29556e-05
3.1878e-05
3.22983e-05
3.23418e-05
3.27245e-05
3.23418e-05
3.27254e-05
3.18778e-05
3.29559e-05
6.02648e-05
6.02661e-05
3.29555e-05
3.39899e-05
3.39914e-05
3.2203e-05
3.39922e-05
3.39939e-05
8.33936e-05
8.33826e-05
8.33746e-05
8.33805e-05
3.22023e-05
3.39958e-05
3.39973e-05
3.39946e-05
3.39957e-05
8.33761e-05
8.33819e-05
3.18775e-05
3.23419e-05
3.27248e-05
3.22984e-05
3.18776e-05
3.23419e-05
3.27238e-05
3.29546e-05
6.02687e-05
3.29546e-05
6.02665e-05
3.29546e-05
6.02694e-05
3.29547e-05
6.02672e-05
3.1878e-05
3.22983e-05
3.23418e-05
3.27246e-05
3.23418e-05
3.27255e-05
3.18777e-05
3.18781e-05
3.22983e-05
3.23418e-05
3.27248e-05
3.23418e-05
3.27257e-05
3.1878e-05
3.2956e-05
6.02652e-05
6.02665e-05
3.29558e-05
3.2956e-05
6.02659e-05
6.02672e-05
3.29558e-05
8.33938e-05
8.33828e-05
8.33948e-05
8.33838e-05
3.22024e-05
3.39975e-05
3.39977e-05
3.3996e-05
3.39961e-05
8.33763e-05
8.33821e-05
8.33773e-05
8.33831e-05
8.33746e-05
8.33719e-05
8.33771e-05
8.33744e-05
3.39989e-05
3.39988e-05
3.22027e-05
3.39998e-05
3.39997e-05
8.33742e-05
8.3372e-05
8.33767e-05
8.33745e-05
3.2202e-05
3.39996e-05
3.39995e-05
3.40008e-05
3.40007e-05
3.29565e-05
6.02635e-05
3.29572e-05
6.02634e-05
3.18779e-05
3.27264e-05
3.23418e-05
3.22982e-05
3.18784e-05
3.27252e-05
3.23417e-05
3.18782e-05
3.27276e-05
3.23419e-05
3.22982e-05
3.18785e-05
3.2726e-05
3.23418e-05
3.29573e-05
6.02641e-05
6.02625e-05
3.29555e-05
3.29576e-05
6.02712e-05
6.02638e-05
3.29556e-05
3.18777e-05
3.2298e-05
3.27247e-05
3.23411e-05
3.27269e-05
3.23415e-05
3.18769e-05
3.1878e-05
3.22978e-05
3.27243e-05
3.2341e-05
3.27275e-05
3.23416e-05
3.1877e-05
3.40008e-05
3.39985e-05
3.22027e-05
3.40004e-05
3.39982e-05
8.33692e-05
8.33679e-05
8.33891e-05
8.33724e-05
3.22019e-05
3.39991e-05
3.39969e-05
3.40011e-05
3.39991e-05
8.33834e-05
8.33693e-05
3.18779e-05
3.2727e-05
3.23418e-05
3.22982e-05
3.18785e-05
3.27257e-05
3.23417e-05
3.29563e-05
6.02651e-05
3.29569e-05
6.02645e-05
3.18779e-05
3.23417e-05
3.27265e-05
3.22981e-05
3.18784e-05
3.23417e-05
3.27253e-05
3.29576e-05
6.02661e-05
6.02647e-05
3.29559e-05
3.18778e-05
3.2298e-05
3.27252e-05
3.23411e-05
3.27274e-05
3.23415e-05
3.1877e-05
3.29573e-05
6.02663e-05
6.0265e-05
3.29556e-05
3.18777e-05
3.22979e-05
3.2341e-05
3.27248e-05
3.23415e-05
3.27271e-05
3.18768e-05
3.29563e-05
6.02622e-05
3.29571e-05
6.02621e-05
3.18776e-05
3.23418e-05
3.27263e-05
3.22982e-05
3.18783e-05
3.23417e-05
3.27252e-05
3.29562e-05
6.02649e-05
3.29569e-05
6.02646e-05
3.18775e-05
3.22981e-05
3.27245e-05
3.23411e-05
3.27274e-05
3.23416e-05
3.18768e-05
3.29574e-05
6.02713e-05
6.02629e-05
3.29556e-05
3.18775e-05
3.2298e-05
3.2341e-05
3.27246e-05
3.23415e-05
3.27268e-05
3.18769e-05
3.29573e-05
6.02661e-05
6.02648e-05
3.29554e-05
3.39976e-05
3.39988e-05
3.22026e-05
3.39982e-05
3.39997e-05
8.33761e-05
8.33734e-05
8.33748e-05
8.33719e-05
3.22019e-05
3.39979e-05
3.39994e-05
3.39994e-05
3.40006e-05
8.33759e-05
8.33735e-05
3.18778e-05
3.23418e-05
3.27267e-05
3.22982e-05
3.18785e-05
3.23417e-05
3.27255e-05
3.29564e-05
6.02653e-05
3.2957e-05
6.02649e-05
3.29565e-05
6.0266e-05
3.29571e-05
6.02657e-05
3.18775e-05
3.2298e-05
3.23411e-05
3.27247e-05
3.23415e-05
3.27269e-05
3.18768e-05
3.18777e-05
3.2298e-05
3.2341e-05
3.27249e-05
3.23415e-05
3.27272e-05
3.1877e-05
3.29574e-05
6.02664e-05
6.02651e-05
3.29557e-05
3.29574e-05
6.02672e-05
6.02659e-05
3.29557e-05
8.33763e-05
8.33736e-05
8.33773e-05
8.33746e-05
3.22022e-05
3.39994e-05
3.39995e-05
3.40007e-05
3.40009e-05
8.33761e-05
8.33738e-05
8.3377e-05
8.33748e-05
8.33803e-05
8.3409e-05
8.33832e-05
8.34117e-05
3.40001e-05
3.4e-05
3.21964e-05
3.39949e-05
3.3995e-05
8.34155e-05
8.34154e-05
8.34181e-05
8.34179e-05
3.21931e-05
3.3985e-05
3.3985e-05
3.39932e-05
3.39932e-05
3.29513e-05
6.02838e-05
3.29564e-05
6.03002e-05
3.18699e-05
3.27259e-05
3.23397e-05
3.2293e-05
3.18765e-05
3.27205e-05
3.23366e-05
3.18695e-05
3.27249e-05
3.23394e-05
3.2291e-05
3.18765e-05
3.2717e-05
3.23363e-05
3.29509e-05
6.02989e-05
6.02982e-05
3.29447e-05
3.29507e-05
6.03009e-05
6.03016e-05
3.29448e-05
3.18674e-05
3.22902e-05
3.27144e-05
3.23323e-05
3.27202e-05
3.23339e-05
3.18647e-05
3.18672e-05
3.2289e-05
3.27143e-05
3.23322e-05
3.27174e-05
3.23337e-05
3.18648e-05
3.3999e-05
3.39974e-05
3.21933e-05
3.39884e-05
3.39874e-05
8.34007e-05
8.34132e-05
8.34159e-05
8.34169e-05
3.21916e-05
3.39845e-05
3.39817e-05
3.39877e-05
3.39868e-05
8.34126e-05
8.34144e-05
3.187e-05
3.27265e-05
3.23397e-05
3.22931e-05
3.18766e-05
3.27208e-05
3.23367e-05
3.29515e-05
6.02694e-05
3.29562e-05
6.02903e-05
3.18699e-05
3.23397e-05
3.27261e-05
3.2293e-05
3.18764e-05
3.23367e-05
3.27205e-05
3.29507e-05
6.03007e-05
6.03e-05
3.29453e-05
3.18675e-05
3.22902e-05
3.27148e-05
3.23323e-05
3.2721e-05
3.2334e-05
3.18649e-05
3.29505e-05
6.03017e-05
6.03003e-05
3.2945e-05
3.18674e-05
3.22901e-05
3.23323e-05
3.27145e-05
3.23339e-05
3.27207e-05
3.18648e-05
3.29516e-05
6.02831e-05
3.29563e-05
6.0299e-05
3.187e-05
3.23397e-05
3.27258e-05
3.2293e-05
3.18764e-05
3.23366e-05
3.27202e-05
3.29515e-05
6.02686e-05
3.29562e-05
6.02904e-05
3.18675e-05
3.22891e-05
3.27138e-05
3.23322e-05
3.2718e-05
3.23337e-05
3.18646e-05
3.2951e-05
6.02994e-05
6.03007e-05
3.29449e-05
3.18675e-05
3.22902e-05
3.23323e-05
3.27145e-05
3.23339e-05
3.272e-05
3.18647e-05
3.29509e-05
6.03014e-05
6.02999e-05
3.29447e-05
3.39986e-05
3.39999e-05
3.21964e-05
3.3994e-05
3.39947e-05
8.33823e-05
8.34108e-05
8.34155e-05
8.34162e-05
3.2193e-05
3.3983e-05
3.39848e-05
3.39929e-05
3.3993e-05
8.34172e-05
8.34171e-05
3.18701e-05
3.23397e-05
3.27261e-05
3.2293e-05
3.18766e-05
3.23366e-05
3.27206e-05
3.29516e-05
6.02691e-05
3.29563e-05
6.02911e-05
3.29516e-05
6.02698e-05
3.29563e-05
6.02917e-05
3.18675e-05
3.22901e-05
3.23323e-05
3.27145e-05
3.23339e-05
3.272e-05
3.18647e-05
3.18675e-05
3.22902e-05
3.23323e-05
3.27148e-05
3.23339e-05
3.27203e-05
3.18648e-05
3.29506e-05
6.03018e-05
6.03004e-05
3.29451e-05
3.29506e-05
6.03026e-05
6.03011e-05
3.29451e-05
8.33826e-05
8.3411e-05
8.33831e-05
8.34117e-05
3.21931e-05
3.39849e-05
3.39849e-05
3.39932e-05
3.39934e-05
8.34174e-05
8.34173e-05
8.34184e-05
8.34182e-05
8.34156e-05
8.34149e-05
8.34183e-05
8.34175e-05
3.39856e-05
3.39856e-05
3.21917e-05
3.39846e-05
3.39847e-05
8.34148e-05
8.34152e-05
8.34174e-05
8.34177e-05
3.21911e-05
3.39846e-05
3.39847e-05
3.39855e-05
3.39855e-05
3.29444e-05
6.0301e-05
3.29458e-05
6.03006e-05
3.18647e-05
3.27157e-05
3.23317e-05
3.22877e-05
3.1865e-05
3.27136e-05
3.23315e-05
3.18648e-05
3.27158e-05
3.23316e-05
3.22876e-05
3.18651e-05
3.2714e-05
3.23315e-05
3.29455e-05
6.02985e-05
6.02985e-05
3.29443e-05
3.29456e-05
6.03005e-05
6.03008e-05
3.29444e-05
3.1865e-05
3.22875e-05
3.27135e-05
3.23313e-05
3.27153e-05
3.23313e-05
3.18647e-05
3.18651e-05
3.22875e-05
3.27139e-05
3.23313e-05
3.27157e-05
3.23313e-05
3.18648e-05
3.39853e-05
3.39826e-05
3.21917e-05
3.39844e-05
3.39816e-05
8.34133e-05
8.34122e-05
8.34161e-05
8.34163e-05
3.21911e-05
3.39842e-05
3.39816e-05
3.39852e-05
3.39827e-05
8.34121e-05
8.3413e-05
3.18649e-05
3.27162e-05
3.23317e-05
3.22877e-05
3.18652e-05
3.2714e-05
3.23315e-05
3.29445e-05
6.03019e-05
3.29458e-05
6.0301e-05
3.18648e-05
3.23317e-05
3.27158e-05
3.22876e-05
3.18651e-05
3.23315e-05
3.27136e-05
3.29459e-05
6.03003e-05
6.03007e-05
3.29449e-05
3.18652e-05
3.22875e-05
3.2714e-05
3.23313e-05
3.27158e-05
3.23313e-05
3.18649e-05
3.29456e-05
6.03007e-05
6.03013e-05
3.29445e-05
3.18651e-05
3.22874e-05
3.23313e-05
3.27135e-05
3.23313e-05
3.27153e-05
3.18648e-05
3.29443e-05
6.02997e-05
3.29458e-05
6.02991e-05
3.18647e-05
3.23317e-05
3.27157e-05
3.22877e-05
3.1865e-05
3.23315e-05
3.27136e-05
3.29442e-05
6.03015e-05
3.29456e-05
6.0301e-05
3.1865e-05
3.22877e-05
3.27134e-05
3.23313e-05
3.27152e-05
3.23314e-05
3.18645e-05
3.29456e-05
6.02989e-05
6.02994e-05
3.29443e-05
3.1865e-05
3.22875e-05
3.23313e-05
3.27135e-05
3.23313e-05
3.27152e-05
3.18647e-05
3.29454e-05
6.03008e-05
6.03011e-05
3.29442e-05
3.39835e-05
3.39854e-05
3.21916e-05
3.39823e-05
3.39845e-05
8.34173e-05
8.34166e-05
8.34147e-05
8.34157e-05
3.21911e-05
3.39824e-05
3.39845e-05
3.39833e-05
3.39853e-05
8.34164e-05
8.34168e-05
3.18649e-05
3.23317e-05
3.2716e-05
3.22877e-05
3.18651e-05
3.23315e-05
3.2714e-05
3.29446e-05
6.03019e-05
3.29459e-05
6.03014e-05
3.29447e-05
6.03027e-05
3.29459e-05
6.03021e-05
3.18651e-05
3.22877e-05
3.23313e-05
3.27136e-05
3.23314e-05
3.27153e-05
3.18646e-05
3.18652e-05
3.22875e-05
3.23313e-05
3.27139e-05
3.23313e-05
3.27156e-05
3.18648e-05
3.29456e-05
6.03012e-05
6.03015e-05
3.29445e-05
3.29457e-05
6.03019e-05
6.03022e-05
3.29446e-05
8.34175e-05
8.34167e-05
8.34185e-05
8.34177e-05
3.21912e-05
3.39846e-05
3.39847e-05
3.39854e-05
3.39855e-05
8.34166e-05
8.3417e-05
8.34176e-05
8.3418e-05
8.3415e-05
8.34147e-05
8.34177e-05
8.34174e-05
3.39854e-05
3.39855e-05
3.21917e-05
3.39846e-05
3.39847e-05
8.34147e-05
8.3415e-05
8.34174e-05
8.34176e-05
3.21911e-05
3.39845e-05
3.39847e-05
3.39854e-05
3.39855e-05
3.29444e-05
6.03007e-05
3.29456e-05
6.03005e-05
3.18647e-05
3.27152e-05
3.23315e-05
3.22876e-05
3.1865e-05
3.27135e-05
3.23315e-05
3.18648e-05
3.27156e-05
3.23315e-05
3.22876e-05
3.18651e-05
3.2714e-05
3.23315e-05
3.29456e-05
6.02984e-05
6.02984e-05
3.29443e-05
3.29456e-05
6.03005e-05
6.03007e-05
3.29444e-05
3.1865e-05
3.22876e-05
3.27135e-05
3.23313e-05
3.27152e-05
3.23313e-05
3.18647e-05
3.18651e-05
3.22876e-05
3.2714e-05
3.23313e-05
3.27156e-05
3.23313e-05
3.18648e-05
3.39851e-05
3.39827e-05
3.21917e-05
3.39843e-05
3.39818e-05
8.34129e-05
8.34121e-05
8.34164e-05
8.34165e-05
3.21911e-05
3.39844e-05
3.39817e-05
3.39851e-05
3.39829e-05
8.34121e-05
8.34129e-05
3.18649e-05
3.27157e-05
3.23315e-05
3.22877e-05
3.18652e-05
3.2714e-05
3.23315e-05
3.29445e-05
6.03011e-05
3.29455e-05
6.03007e-05
3.18648e-05
3.23315e-05
3.27153e-05
3.22876e-05
3.18651e-05
3.23314e-05
3.27135e-05
3.29459e-05
6.03002e-05
6.03006e-05
3.29449e-05
3.18652e-05
3.22876e-05
3.2714e-05
3.23313e-05
3.27158e-05
3.23313e-05
3.18649e-05
3.29455e-05
6.03007e-05
6.03011e-05
3.29445e-05
3.18651e-05
3.22875e-05
3.23313e-05
3.27135e-05
3.23313e-05
3.27153e-05
3.18648e-05
3.29443e-05
6.02993e-05
3.29455e-05
6.02989e-05
3.18647e-05
3.23315e-05
3.27152e-05
3.22877e-05
3.1865e-05
3.23315e-05
3.27135e-05
3.29442e-05
6.03009e-05
3.29454e-05
6.03007e-05
3.18649e-05
3.22877e-05
3.27134e-05
3.23313e-05
3.27152e-05
3.23314e-05
3.18644e-05
3.29455e-05
6.02989e-05
6.02993e-05
3.29443e-05
3.1865e-05
3.22876e-05
3.23313e-05
3.27135e-05
3.23313e-05
3.27152e-05
3.18647e-05
3.29454e-05
6.03007e-05
6.03009e-05
3.29442e-05
3.39835e-05
3.39853e-05
3.21916e-05
3.39825e-05
3.39845e-05
8.34167e-05
8.34163e-05
8.34147e-05
8.34155e-05
3.2191e-05
3.39825e-05
3.39845e-05
3.39835e-05
3.39853e-05
8.34164e-05
8.34166e-05
3.18649e-05
3.23315e-05
3.27155e-05
3.22877e-05
3.18651e-05
3.23315e-05
3.27139e-05
3.29445e-05
6.03013e-05
3.29456e-05
6.03011e-05
3.29446e-05
6.0302e-05
3.29457e-05
6.03018e-05
3.1865e-05
3.22877e-05
3.23313e-05
3.27136e-05
3.23314e-05
3.27153e-05
3.18645e-05
3.18651e-05
3.22876e-05
3.23313e-05
3.27139e-05
3.23313e-05
3.27155e-05
3.18648e-05
3.29456e-05
6.03011e-05
6.03013e-05
3.29445e-05
3.29457e-05
6.03018e-05
6.0302e-05
3.29446e-05
8.34169e-05
8.34165e-05
8.34179e-05
8.34175e-05
3.21912e-05
3.39847e-05
3.39848e-05
3.39855e-05
3.39856e-05
8.34165e-05
8.34168e-05
8.34175e-05
8.34178e-05
8.3415e-05
8.34147e-05
8.34176e-05
8.34174e-05
3.39854e-05
3.39855e-05
3.21917e-05
3.39845e-05
3.39847e-05
8.34148e-05
8.3415e-05
8.34174e-05
8.34176e-05
3.21911e-05
3.39844e-05
3.39847e-05
3.39853e-05
3.39855e-05
3.29444e-05
6.03007e-05
3.29456e-05
6.02999e-05
3.18647e-05
3.27152e-05
3.23314e-05
3.22876e-05
3.1865e-05
3.27135e-05
3.23314e-05
3.18648e-05
3.27156e-05
3.23314e-05
3.22876e-05
3.18651e-05
3.27142e-05
3.23314e-05
3.29456e-05
6.02982e-05
6.02985e-05
3.29443e-05
3.29456e-05
6.02995e-05
6.03002e-05
3.29444e-05
3.1865e-05
3.22876e-05
3.27135e-05
3.23313e-05
3.27152e-05
3.23314e-05
3.18647e-05
3.1865e-05
3.22876e-05
3.27143e-05
3.23313e-05
3.2716e-05
3.23313e-05
3.18647e-05
3.39853e-05
3.39828e-05
3.21917e-05
3.39847e-05
3.39818e-05
8.3413e-05
8.34122e-05
8.34137e-05
8.34153e-05
3.21911e-05
3.39845e-05
3.39815e-05
3.39857e-05
3.39828e-05
8.34121e-05
8.3413e-05
3.18649e-05
3.27157e-05
3.23314e-05
3.22877e-05
3.18652e-05
3.2714e-05
3.23314e-05
3.29445e-05
6.03011e-05
3.29455e-05
6.03007e-05
3.18648e-05
3.23314e-05
3.27153e-05
3.22876e-05
3.18651e-05
3.23314e-05
3.27135e-05
3.2946e-05
6.03002e-05
6.03006e-05
3.29449e-05
3.18652e-05
3.22876e-05
3.2714e-05
3.23313e-05
3.27158e-05
3.23314e-05
3.18649e-05
3.29456e-05
6.03007e-05
6.03011e-05
3.29445e-05
3.18651e-05
3.22875e-05
3.23313e-05
3.27135e-05
3.23313e-05
3.27153e-05
3.18648e-05
3.29443e-05
6.02993e-05
3.29455e-05
6.02989e-05
3.18647e-05
3.23314e-05
3.27152e-05
3.22876e-05
3.1865e-05
3.23314e-05
3.27136e-05
3.29442e-05
6.03009e-05
3.29454e-05
6.03007e-05
3.1865e-05
3.22877e-05
3.27134e-05
3.23313e-05
3.27152e-05
3.23314e-05
3.18645e-05
3.29455e-05
6.0299e-05
6.02993e-05
3.29443e-05
3.1865e-05
3.22876e-05
3.23313e-05
3.27135e-05
3.23314e-05
3.27152e-05
3.18647e-05
3.29454e-05
6.03007e-05
6.03009e-05
3.29442e-05
3.39835e-05
3.39854e-05
3.21916e-05
3.39825e-05
3.39845e-05
8.34167e-05
8.34163e-05
8.34147e-05
8.34155e-05
3.2191e-05
3.39825e-05
3.39845e-05
3.39835e-05
3.39854e-05
8.34164e-05
8.34166e-05
3.18648e-05
3.23314e-05
3.27155e-05
3.22877e-05
3.18651e-05
3.23314e-05
3.27139e-05
3.29445e-05
6.03013e-05
3.29456e-05
6.03011e-05
3.29446e-05
6.0302e-05
3.29456e-05
6.03018e-05
3.1865e-05
3.22877e-05
3.23313e-05
3.27136e-05
3.23314e-05
3.27153e-05
3.18645e-05
3.18651e-05
3.22876e-05
3.23313e-05
3.27139e-05
3.23314e-05
3.27155e-05
3.18648e-05
3.29456e-05
6.03011e-05
6.03013e-05
3.29445e-05
3.29456e-05
6.03018e-05
6.0302e-05
3.29446e-05
8.34169e-05
8.34165e-05
8.34179e-05
8.34175e-05
3.21912e-05
3.39847e-05
3.39848e-05
3.39855e-05
3.39856e-05
8.34165e-05
8.34168e-05
8.34175e-05
8.34178e-05
8.34151e-05
8.34151e-05
8.34176e-05
8.34173e-05
3.39852e-05
3.39855e-05
3.21917e-05
3.39844e-05
3.39847e-05