/*--------------------------------*- C++ -*----------------------------------*\
| =========                 |                                                 |
| \\      /  F ield         | OpenFOAM: The Open Source CFD Toolbox           |
|  \\    /   O peration     | Version:  2206                                  |
|   \\  /    A nd           | Website:  www.openfoam.com                      |
|    \\/     M anipulation  |                                                 |
\*---------------------------------------------------------------------------*/
FoamFile
{
    version     2.0;
    format      ascii;
    arch        "LSB;label=32;scalar=64";
    class       surfaceScalarField;
    location    "11";
    object      phi;
}
// * * * * * * * * * * * * * * * * * * * * * * * * * * * * * * * * * * * * * //

dimensions      [0 3 -1 0 0 0 0];

oriented        oriented;

internalField   nonuniform List<scalar> 
82717
(
1.16882e-09
1.15748e-09
-1.02383e-09
-1.04715e-09
0.00106702
-0.00106766
-1.17141e-06
-1.27683e-09
1.33642e-09
0.00106766
-2.25076e-07
1.17327e-06
2.24604e-07
8.46602e-07
-2.11285e-07
-8.46462e-07
2.1008e-07
-1.16611e-06
-1.1868e-09
1.45214e-09
0.00106732
-2.251e-07
1.16789e-06
2.24536e-07
8.46417e-07
-2.13986e-07
-8.46362e-07
2.12675e-07
1.19924e-06
1.16622e-06
-2.12322e-07
-2.1752e-07
0.000260617
1.54378e-09
1.69115e-09
-0.00106702
-1.26166e-09
-1.14748e-09
0.00106702
-0.00106766
-1.17128e-06
-1.71374e-09
1.1329e-09
0.00106766
-2.24922e-07
1.17346e-06
2.24843e-07
8.4676e-07
-2.11115e-07
-8.46386e-07
2.10351e-07
-0.00106732
-1.16603e-06
-1.67446e-09
1.15787e-09
0.00106732
-2.24999e-07
1.16801e-06
2.24696e-07
8.46523e-07
-2.13794e-07
-8.4631e-07
2.12894e-07
-0.000262552
1.19915e-06
1.16615e-06
-2.12248e-07
-2.17424e-07
0.000260617
-1.75622e-10
-6.3676e-11
-0.00106702
-4.91281e-10
-4.00399e-10
0.00106702
-0.00106766
-1.17172e-06
8.09825e-11
1.99339e-09
0.00106766
-2.25537e-07
1.17309e-06
2.24329e-07
8.4625e-07
-2.12204e-07
-8.47049e-07
2.09365e-07
-0.00106732
-1.16642e-06
7.36596e-11
1.98683e-09
0.00106732
-2.25545e-07
1.16766e-06
2.2419e-07
8.46056e-07
-2.14711e-07
-8.46894e-07
2.11945e-07
-0.000262552
1.19953e-06
1.16655e-06
-2.12765e-07
-2.1793e-07
0.000260616
6.72008e-10
7.39371e-10
-0.00106702
-8.03854e-10
-7.97953e-10
0.00106703
-0.00106766
-1.17159e-06
-7.94958e-10
1.6149e-09
0.00106766
-2.25289e-07
1.17319e-06
2.24524e-07
8.46533e-07
-2.11594e-07
-8.46668e-07
2.09924e-07
-0.00106732
-1.16622e-06
-7.52354e-10
1.59906e-09
0.00106732
-2.25237e-07
1.16786e-06
2.24517e-07
8.46347e-07
-2.1425e-07
-8.46562e-07
2.12551e-07
-0.000262553
1.19936e-06
1.16634e-06
-2.12448e-07
-2.17643e-07
0.000260617
8.11857e-10
9.06289e-10
-0.00106703
-8.8844e-10
-8.75343e-10
0.00106703
-0.00106766
-1.17151e-06
-9.21837e-10
1.56566e-09
0.00106766
-2.25214e-07
1.17322e-06
2.2453e-07
8.46556e-07
-2.11545e-07
-8.46645e-07
2.09958e-07
-0.00106732
-1.16619e-06
-9.16133e-10
1.54546e-09
0.00106732
-2.25205e-07
1.16789e-06
2.24539e-07
8.46386e-07
-2.14168e-07
-8.46518e-07
2.12607e-07
-0.000262553
1.19932e-06
1.16631e-06
-2.12406e-07
-2.17596e-07
0.000260617
8.12839e-10
9.22513e-10
-0.00106703
-8.9731e-10
-8.6375e-10
0.00106703
-0.00106766
-1.17152e-06
-9.24103e-10
1.58917e-09
0.00106766
-2.25221e-07
1.17322e-06
2.24523e-07
8.46561e-07
-2.11542e-07
-8.4664e-07
2.0996e-07
-0.00106732
-1.16619e-06
-9.3589e-10
1.54298e-09
0.00106732
-2.25205e-07
1.16789e-06
2.24539e-07
8.4639e-07
-2.14165e-07
-8.46514e-07
2.12611e-07
-0.000262553
1.19931e-06
1.1663e-06
-2.12405e-07
-2.17592e-07
0.000260617
6.57945e-10
9.1766e-10
-0.00106703
-8.65644e-10
-7.87649e-10
0.00106703
-0.00106766
-1.17156e-06
-9.11007e-10
1.69427e-09
0.00106766
-2.25278e-07
1.17317e-06
2.24465e-07
8.4657e-07
-2.11543e-07
-8.46637e-07
2.09965e-07
-0.00106732
-1.16619e-06
-9.70034e-10
1.54574e-09
0.00106732
-2.25204e-07
1.16789e-06
2.24541e-07
8.46395e-07
-2.1416e-07
-8.4651e-07
2.12616e-07
-0.000262553
1.19931e-06
1.1663e-06
-2.12404e-07
-2.17587e-07
0.000260617
7.87997e-10
8.69836e-10
-0.00106703
-8.44286e-10
-8.34585e-10
0.00106703
-0.00106766
-1.17149e-06
-1.00611e-09
1.4952e-09
0.00106766
-2.25167e-07
1.17325e-06
2.24594e-07
8.46568e-07
-2.1152e-07
-8.46625e-07
2.09976e-07
-0.00106732
-1.16619e-06
-9.8219e-10
1.54604e-09
0.00106732
-2.25203e-07
1.16789e-06
2.24541e-07
8.46398e-07
-2.14156e-07
-8.46506e-07
2.12618e-07
-0.000262553
1.19931e-06
1.1663e-06
-2.12401e-07
-2.17587e-07
0.000260617
7.65452e-10
8.43146e-10
-0.00106701
-8.70434e-10
-8.96773e-10
0.00106702
-0.00106766
-1.17152e-06
-9.20979e-10
1.57077e-09
0.00106766
-2.2793e-07
1.17323e-06
2.27214e-07
8.4656e-07
-2.11575e-07
-8.46644e-07
2.09979e-07
-0.00106732
-1.16619e-06
-9.4376e-10
1.54606e-09
0.00106733
-2.25205e-07
1.16789e-06
2.24538e-07
8.46392e-07
-2.14161e-07
-8.46511e-07
2.12613e-07
-0.000262553
1.19931e-06
1.1663e-06
-2.12401e-07
-2.1759e-07
0.000260617
8.72747e-10
9.15171e-10
-0.00106702
-8.93165e-10
-9.04465e-10
0.00106702
-0.00106766
-1.1715e-06
-9.31267e-10
1.54463e-09
0.00106766
-2.27941e-07
1.17322e-06
2.27264e-07
8.4656e-07
-2.11568e-07
-8.46639e-07
2.0998e-07
-0.00106732
-1.16619e-06
-9.40174e-10
1.53793e-09
0.00106733
-2.25202e-07
1.16789e-06
2.24541e-07
8.46391e-07
-2.14162e-07
-8.46511e-07
2.12612e-07
-0.000262553
1.19931e-06
1.1663e-06
-2.124e-07
-2.1759e-07
0.000260617
8.74492e-10
9.21056e-10
-0.00106702
-9.04182e-10
-8.98045e-10
0.00106702
-0.00106766
-1.1715e-06
-9.25507e-10
1.55128e-09
0.00106766
-2.27935e-07
1.17322e-06
2.27268e-07
8.46558e-07
-2.1157e-07
-8.46641e-07
2.09979e-07
-0.00106732
-1.16619e-06
-9.21202e-10
1.54048e-09
0.00106733
-2.25204e-07
1.16789e-06
2.24538e-07
8.46388e-07
-2.14165e-07
-8.46515e-07
2.12608e-07
-0.000262553
1.19931e-06
1.1663e-06
-2.12402e-07
-2.17593e-07
0.000260617
8.68266e-10
9.1873e-10
-0.00106702
-9.0186e-10
-8.94511e-10
0.00106702
-0.00106766
-1.1715e-06
-9.31161e-10
1.55017e-09
0.00106766
-2.27936e-07
1.17322e-06
2.27268e-07
8.4656e-07
-2.11568e-07
-8.4664e-07
2.09981e-07
-0.00106732
-1.16619e-06
-9.19714e-10
1.54207e-09
0.00106733
-2.25204e-07
1.16789e-06
2.24538e-07
8.46387e-07
-2.14166e-07
-8.46516e-07
2.12608e-07
-0.000262553
1.19931e-06
1.1663e-06
-2.12403e-07
-2.17592e-07
0.000260617
8.61445e-10
9.17509e-10
-0.00106702
-9.01733e-10
-8.91017e-10
0.00106702
-0.00106766
-1.1715e-06
-9.23343e-10
1.55481e-09
0.00106766
-2.27937e-07
1.17321e-06
2.27267e-07
8.46558e-07
-2.1157e-07
-8.46641e-07
2.09979e-07
-0.00106732
-1.16619e-06
-9.147e-10
1.54286e-09
0.00106733
-2.25204e-07
1.16789e-06
2.24538e-07
8.46385e-07
-2.14167e-07
-8.46517e-07
2.12606e-07
-0.000262553
1.19932e-06
1.1663e-06
-2.12404e-07
-2.17594e-07
0.000260617
8.62871e-10
9.21687e-10
-0.00106702
-9.03923e-10
-8.91388e-10
0.00106702
-0.00106766
-1.1715e-06
-9.28066e-10
1.55199e-09
0.00106766
-2.27936e-07
1.17321e-06
2.27267e-07
8.46559e-07
-2.11569e-07
-8.46641e-07
2.0998e-07
-0.00106733
-1.16619e-06
-9.21705e-10
1.53927e-09
0.00106733
-2.25203e-07
1.16789e-06
2.2454e-07
8.46387e-07
-2.14166e-07
-8.46516e-07
2.12608e-07
-0.000262553
1.19932e-06
1.1663e-06
-2.12404e-07
-2.17594e-07
0.000260617
8.69294e-10
9.27219e-10
-0.00106702
-9.06404e-10
-8.9467e-10
0.00106702
-0.00106766
-1.1715e-06
-9.32279e-10
1.55134e-09
0.00106766
-2.27935e-07
1.17322e-06
2.27269e-07
8.4656e-07
-2.11568e-07
-8.46639e-07
2.09981e-07
-0.00106732
-1.16619e-06
-9.22913e-10
1.54123e-09
0.00106733
-2.25204e-07
1.16789e-06
2.24539e-07
8.46387e-07
-2.14165e-07
-8.46515e-07
2.12608e-07
-0.000262553
1.19931e-06
1.1663e-06
-2.12403e-07
-2.17592e-07
0.000260617
8.70064e-10
9.28373e-10
-0.00106702
-9.07695e-10
-8.95808e-10
0.00106702
-0.00106766
-1.1715e-06
-9.37744e-10
1.54824e-09
0.00106766
-2.27934e-07
1.17322e-06
2.27271e-07
8.46561e-07
-2.11568e-07
-8.46638e-07
2.09983e-07
-0.00106733
-1.16619e-06
-9.28328e-10
1.53663e-09
0.00106733
-2.25203e-07
1.16789e-06
2.24543e-07
8.46389e-07
-2.14167e-07
-8.46514e-07
2.12612e-07
-0.000262553
1.19931e-06
1.1663e-06
-2.12404e-07
-2.17593e-07
0.000260617
8.82866e-10
9.49687e-10
-0.00106702
-9.22844e-10
-9.00862e-10
0.00106702
-0.00106766
-1.17149e-06
-9.31101e-10
1.54887e-09
0.00106766
-2.27926e-07
1.17321e-06
2.27262e-07
8.46554e-07
-2.11558e-07
-8.46632e-07
2.09969e-07
-0.00106733
-1.16618e-06
-9.4249e-10
1.52591e-09
0.00106733
-2.25192e-07
1.16789e-06
2.24539e-07
8.46382e-07
-2.14148e-07
-8.46502e-07
2.126e-07
-0.000262553
1.1993e-06
1.1663e-06
-2.12396e-07
-2.17581e-07
0.000260617
9.16667e-10
1.00399e-09
-0.00106702
-9.6485e-10
-9.2405e-10
0.00106702
-0.00106766
-1.17147e-06
-9.81912e-10
1.52958e-09
0.00106766
-2.27899e-07
1.17321e-06
2.27256e-07
8.46543e-07
-2.1152e-07
-8.46598e-07
2.09959e-07
-0.00106733
-1.16616e-06
-9.87708e-10
1.50533e-09
0.00106732
-2.25164e-07
1.16789e-06
2.24539e-07
8.46386e-07
-2.14109e-07
-8.46462e-07
2.12598e-07
-0.000262553
1.19928e-06
1.16628e-06
-2.12379e-07
-2.17561e-07
0.000260617
1.21162e-06
0.00106732
-1.20984e-06
2.32592e-07
-2.33191e-07
-8.51961e-07
2.12704e-07
-2.14102e-07
8.52039e-07
-1.17325e-06
0.000262597
-0.000260646
2.14348e-07
2.19124e-07
-1.17144e-06
2.24565e-07
-2.2512e-07
2.09995e-07
-2.11384e-07
1.20448e-06
1.16883e-06
-2.09827e-07
-2.14973e-07
0.000260622
-1.2063e-06
-1.17066e-06
0.00026257
-0.000260622
2.11729e-07
2.16877e-07
1.58727e-09
0.00106689
-2.33153e-07
1.20625e-06
2.3253e-07
8.46516e-07
-2.11338e-07
-8.46439e-07
2.09973e-07
-1.20982e-06
-1.09817e-09
-3.85492e-09
0.00106732
-2.33156e-07
1.21163e-06
2.32626e-07
8.5203e-07
-2.14014e-07
-8.51969e-07
2.12779e-07
0.00106689
-1.41315e-09
-0.00106689
1.38179e-09
-1.20441e-06
2.32626e-07
-2.3304e-07
-8.46358e-07
2.10127e-07
-2.11129e-07
8.46544e-07
1.21171e-06
0.00106732
-1.51848e-09
-0.00106732
1.24158e-09
-1.20978e-06
2.32726e-07
-2.33097e-07
-8.51896e-07
2.12914e-07
-2.13902e-07
8.52104e-07
-2.12495e-07
-2.17298e-07
0.000260646
-1.17333e-06
0.000262596
-0.000260645
2.1447e-07
2.19254e-07
1.43621e-09
0.00106792
-2.27832e-07
1.17063e-06
2.27259e-07
8.49291e-07
-2.14087e-07
-8.49171e-07
2.1274e-07
-1.20454e-06
-1.1022e-09
1.5317e-09
0.001067
-2.33189e-07
1.2063e-06
2.3257e-07
8.49189e-07
-2.14047e-07
-8.49132e-07
2.12671e-07
0.00106792
-1.46408e-09
-0.00106792
1.31411e-09
-1.16878e-06
2.27338e-07
-2.27735e-07
-8.49075e-07
2.129e-07
-2.13873e-07
8.49332e-07
1.20634e-06
0.001067
-1.37714e-09
-0.001067
1.37711e-09
-1.20447e-06
2.32652e-07
-2.33079e-07
-8.49043e-07
2.12829e-07
-2.13831e-07
8.49223e-07
-1.1347e-09
1.56393e-09
0.0010668
-2.27721e-07
1.20098e-06
2.27102e-07
8.46541e-07
-2.11314e-07
2.09944e-07
-8.46472e-07
-1.58485e-09
-0.00106766
1.19732e-09
-1.17137e-06
2.24688e-07
-2.25025e-07
-8.46401e-07
2.10194e-07
8.46653e-07
-2.11171e-07
1.20104e-06
0.0010668
-1.37062e-09
-0.0010668
1.37505e-09
-1.19916e-06
2.27201e-07
-2.27599e-07
-8.46397e-07
2.10092e-07
-2.11104e-07
8.46561e-07
-2.10009e-07
-2.17299e-07
0.000260604
-1.16793e-06
0.000262547
-0.000260604
2.11903e-07
2.1919e-07
-1.13284e-09
1.4385e-09
0.00106783
-2.25157e-07
1.168e-06
2.24588e-07
8.44056e-07
-2.11407e-07
2.10046e-07
-8.43958e-07
-1.47851e-09
-0.00106732
1.29905e-09
-1.16604e-06
2.2462e-07
-2.24991e-07
-8.46225e-07
2.1281e-07
8.46502e-07
-2.13789e-07
1.16803e-06
0.00106783
-1.43427e-09
-0.00106783
1.31422e-09
-1.16615e-06
2.2467e-07
-2.25047e-07
-8.43867e-07
2.10205e-07
-2.11186e-07
8.44092e-07
-0.000260617
2.14203e-07
2.19409e-07
1.2044e-06
1.16879e-06
-2.09763e-07
-2.1488e-07
0.000260622
-1.20607e-06
-1.17303e-06
0.000262567
-0.000260621
2.13842e-07
2.19077e-07
1.20262e-09
0.00106689
-2.33041e-07
1.20638e-06
2.32712e-07
8.46603e-07
-2.11166e-07
-8.4641e-07
2.10177e-07
-1.20969e-06
-1.56797e-09
1.16855e-09
0.00106732
-2.33003e-07
1.21182e-06
2.3285e-07
8.52227e-07
-2.13822e-07
-8.51803e-07
2.13051e-07
0.00106689
-1.15252e-10
-0.00106688
1.70747e-09
-1.20461e-06
2.32295e-07
-2.33324e-07
-8.49493e-07
2.09535e-07
-2.14269e-07
8.46079e-07
1.21138e-06
0.00106732
1.88193e-10
-0.00106732
2.29547e-09
-1.21014e-06
2.32204e-07
-2.33661e-07
-8.52453e-07
2.11981e-07
-2.14803e-07
8.51641e-07
-2.12341e-07
-2.1715e-07
0.000260645
-1.17298e-06
0.000262596
-0.000260645
2.13959e-07
2.1878e-07
1.22034e-09
0.00106792
-2.27756e-07
1.17072e-06
2.2744e-07
8.49407e-07
-2.13893e-07
-8.49113e-07
2.12966e-07
-1.20447e-06
-1.58523e-09
1.23043e-09
0.001067
-2.33087e-07
1.20642e-06
2.32729e-07
8.49296e-07
-2.13852e-07
-8.49079e-07
2.12892e-07
0.00106791
-4.19555e-10
-0.00106791
1.9072e-09
-1.17166e-06
2.29701e-07
-2.308e-07
-8.49523e-07
2.12333e-07
-2.14304e-07
8.48902e-07
1.2061e-06
0.001067
-2.27868e-10
-0.001067
1.89847e-09
-1.2047e-06
2.32293e-07
-2.33393e-07
-8.49499e-07
2.12261e-07
-2.14269e-07
8.48785e-07
-1.54473e-09
1.18221e-09
0.0010668
-2.27603e-07
1.20112e-06
2.2728e-07
8.46631e-07
-2.11132e-07
2.10151e-07
-8.46436e-07
5.28775e-11
-0.00106766
2.27704e-09
-1.17178e-06
2.24163e-07
-2.25616e-07
-8.46997e-07
2.09326e-07
8.46106e-07
-2.11994e-07
1.20082e-06
0.0010668
-1.32876e-10
-0.0010668
1.72672e-09
-1.19937e-06
2.26862e-07
-2.27893e-07
-8.4687e-07
2.0951e-07
-2.11558e-07
8.46111e-07
-2.09925e-07
-2.17218e-07
0.000260604
-1.16769e-06
0.000262547
-0.000260603
2.11517e-07
2.18807e-07
-1.67588e-09
1.19878e-09
0.00106783
-2.25063e-07
1.16811e-06
2.24739e-07
8.44172e-07
-2.11207e-07
2.10273e-07
-8.43898e-07
-3.54064e-10
-0.00106732
1.82496e-09
-1.16627e-06
2.24261e-07
-2.25306e-07
-8.46676e-07
2.12244e-07
8.46069e-07
-2.14224e-07
1.16778e-06
0.00106783
-3.78457e-10
-0.00106783
1.89548e-09
-1.1664e-06
2.24298e-07
-2.2538e-07
-8.44306e-07
2.09652e-07
-2.11609e-07
8.43668e-07
-0.000260616
2.13808e-07
2.19036e-07
1.20477e-06
1.1718e-06
-2.12802e-07
-2.1796e-07
0.000260622
-1.20619e-06
-1.1732e-06
0.000262569
-0.000260622
2.1406e-07
2.1925e-07
2.00866e-09
0.00106688
-2.33576e-07
1.20603e-06
2.32209e-07
8.48767e-07
-2.12102e-07
-8.47015e-07
2.119e-07
-1.21013e-06
9.40151e-11
2.03484e-09
0.00106732
-2.33619e-07
1.21145e-06
2.3234e-07
8.5178e-07
-2.1494e-07
-8.52371e-07
2.12066e-07
0.00106689
-5.57059e-10
-0.00106689
1.7458e-09
-1.20463e-06
2.32488e-07
-2.33332e-07
-8.49307e-07
2.12452e-07
-2.14387e-07
8.49067e-07
1.21157e-06
0.00106732
-5.12594e-10
-0.00106732
1.72937e-09
-1.20999e-06
2.32533e-07
-2.33373e-07
-8.52212e-07
2.12516e-07
-2.14448e-07
8.51885e-07
-2.12929e-07
-2.17718e-07
0.000260645
-1.17316e-06
0.000262597
-0.000260646
2.14214e-07
2.19058e-07
2.04268e-09
0.00106792
-2.31033e-07
1.17301e-06
2.29635e-07
8.48934e-07
-2.14816e-07
-8.497e-07
2.12015e-07
-1.20485e-06
1.3507e-10
2.06837e-09
0.001067
-2.33632e-07
1.20608e-06
2.32226e-07
8.48819e-07
-2.1477e-07
-8.4967e-07
2.11948e-07
0.00106792
-6.12826e-10
-0.00106792
1.66304e-09
-1.17162e-06
2.29946e-07
-2.30751e-07
-8.49389e-07
2.12543e-07
-2.14456e-07
8.492e-07
1.20625e-06
0.001067
-5.36579e-10
-0.001067
1.7167e-09
-1.20469e-06
2.32523e-07
-2.33364e-07
-8.49349e-07
2.12477e-07
-2.14414e-07
8.49101e-07
1.61255e-10
1.99883e-09
0.0010668
-2.28139e-07
1.20078e-06
2.26781e-07
8.46166e-07
-2.12052e-07
2.09205e-07
-8.47023e-07
-6.88372e-10
-0.00106766
1.64621e-09
-1.17161e-06
2.24485e-07
-2.25318e-07
-8.46675e-07
2.09875e-07
8.46518e-07
-2.11656e-07
1.20094e-06
0.0010668
-5.44711e-10
-0.0010668
1.76078e-09
-1.19938e-06
2.27057e-07
-2.27894e-07
-8.46695e-07
2.09738e-07
-2.11688e-07
8.46444e-07
-2.10439e-07
-2.17727e-07
0.000260604
-1.16784e-06
0.000262548
-0.000260604
2.1172e-07
2.19003e-07
6.83844e-11
2.03896e-09
0.00106783
-2.25614e-07
1.16776e-06
2.24232e-07
8.43701e-07
-2.12119e-07
2.09327e-07
-8.44481e-07
-6.28516e-10
-0.00106732
1.64364e-09
-1.16625e-06
2.24491e-07
-2.25275e-07
-8.46534e-07
2.12452e-07
8.46375e-07
-2.14377e-07
1.16795e-06
0.00106783
-5.95566e-10
-0.00106783
1.66023e-09
-1.16637e-06
2.24541e-07
-2.25332e-07
-8.44175e-07
2.09847e-07
-2.11773e-07
8.43963e-07
-0.000260617
2.14022e-07
2.19213e-07
1.2046e-06
1.17159e-06
-2.12478e-07
-2.17674e-07
0.000260622
-1.20624e-06
-1.17325e-06
0.000262569
-0.000260623
2.1412e-07
2.19315e-07
1.67425e-09
0.00106689
-2.33289e-07
1.20622e-06
2.32519e-07
8.49084e-07
-2.14286e-07
-8.49291e-07
2.12521e-07
-1.20996e-06
-6.51717e-10
1.69694e-09
0.00106732
-2.33339e-07
1.21159e-06
2.32567e-07
8.51931e-07
-2.14364e-07
-8.52177e-07
2.12593e-07
0.00106689
-8.54549e-10
-0.00106689
1.62162e-09
-1.20456e-06
2.32539e-07
-2.33253e-07
-8.4924e-07
2.12576e-07
-2.14194e-07
8.49118e-07
1.2116e-06
0.00106732
-8.17552e-10
-0.00106732
1.62959e-09
-1.20993e-06
2.32614e-07
-2.33303e-07
-8.49478e-07
2.09953e-07
-2.11613e-07
8.49323e-07
-2.12698e-07
-2.17443e-07
0.000260646
-1.17321e-06
0.000262595
-0.000260643
2.16826e-07
2.16596e-07
1.61177e-09
0.00106792
-2.30711e-07
1.17322e-06
2.29973e-07
8.49222e-07
-2.14354e-07
-8.49371e-07
2.12613e-07
-1.20466e-06
-6.75852e-10
1.67575e-09
0.001067
-2.33327e-07
1.20627e-06
2.32549e-07
8.49121e-07
-2.14307e-07
-8.49329e-07
2.1255e-07
0.00106792
-9.09882e-10
-0.00106792
1.55233e-09
-1.17155e-06
2.29995e-07
-2.30676e-07
-8.49324e-07
2.12674e-07
-2.14266e-07
8.49257e-07
1.2063e-06
0.001067
-8.25587e-10
-0.001067
1.61356e-09
-1.20462e-06
2.32572e-07
-2.33292e-07
-8.49288e-07
2.12606e-07
-2.14222e-07
8.49154e-07
-6.87783e-10
1.69572e-09
0.0010668
-2.27858e-07
1.20096e-06
2.27082e-07
8.4647e-07
-2.11579e-07
2.09818e-07
-8.46674e-07
-9.16334e-10
-0.00106766
1.56775e-09
-1.17152e-06
2.24522e-07
-2.25217e-07
-8.46645e-07
2.09952e-07
8.46547e-07
-2.11541e-07
1.20099e-06
0.0010668
-8.31047e-10
-0.0010668
1.63005e-09
-1.19932e-06
2.2711e-07
-2.27818e-07
-8.46637e-07
2.09867e-07
-2.11496e-07
8.46495e-07
-2.10129e-07
-2.17424e-07
0.000260605
-1.16789e-06
0.000262548
-0.000260605
2.11777e-07
2.19066e-07
-7.41271e-10
1.61267e-09
0.00106783
-2.25297e-07
1.16797e-06
2.24565e-07
8.43991e-07
-2.11665e-07
2.09927e-07
-8.44153e-07
-9.19589e-10
-0.00106732
1.54234e-09
-1.16619e-06
2.24538e-07
-2.25205e-07
-8.4647e-07
2.12583e-07
8.46432e-07
-2.14183e-07
1.16799e-06
0.00106783
-8.98166e-10
-0.00106783
1.55468e-09
-1.1663e-06
2.24589e-07
-2.25261e-07
-8.4411e-07
2.0998e-07
-2.11577e-07
8.44022e-07
-0.000260617
2.14081e-07
2.19276e-07
1.20456e-06
1.17156e-06
-2.12436e-07
-2.17626e-07
0.000260623
-1.20624e-06
-1.17324e-06
0.000262569
-0.000260623
2.14118e-07
2.1932e-07
1.60743e-09
0.00106689
-2.33251e-07
1.20624e-06
2.32543e-07
8.49113e-07
-2.14203e-07
-8.49261e-07
2.12573e-07
-1.20992e-06
-8.34447e-10
1.62406e-09
0.00106732
-2.33329e-07
1.2116e-06
2.32624e-07
8.49338e-07
-2.11608e-07
-8.49471e-07
2.0996e-07
0.00106689
-8.50534e-10
-0.00106689
1.61057e-09
-1.20456e-06
2.32544e-07
-2.3325e-07
-8.4924e-07
2.1258e-07
-2.14189e-07
8.49119e-07
1.21159e-06
0.00106732
-8.38568e-10
-0.00106732
1.61543e-09
-1.20989e-06
2.29897e-07
-2.306e-07
-8.49469e-07
2.09943e-07
-2.11576e-07
8.49333e-07
-2.15123e-07
-2.149e-07
0.000260643
-1.17322e-06
0.000262594
-0.000260641
2.14319e-07
2.16598e-07
1.55654e-09
0.00106792
-2.30677e-07
1.17325e-06
2.29994e-07
8.49261e-07
-2.1427e-07
-8.49326e-07
2.12672e-07
-1.20462e-06
-8.34566e-10
1.61974e-09
0.001067
-2.33293e-07
1.2063e-06
2.32573e-07
8.49156e-07
-2.14228e-07
-8.49288e-07
2.12604e-07
0.00106792
-9.34399e-10
-0.00106792
1.56184e-09
-1.17155e-06
2.29993e-07
-2.30678e-07
-8.49315e-07
2.12679e-07
-2.14259e-07
8.49265e-07
1.2063e-06
0.001067
-8.44383e-10
-0.001067
1.59588e-09
-1.20462e-06
2.32576e-07
-2.33288e-07
-8.49282e-07
2.12611e-07
-2.14217e-07
8.49159e-07
-8.43592e-10
1.61968e-09
0.0010668
-2.27821e-07
1.20099e-06
2.2711e-07
8.46505e-07
-2.11501e-07
2.09872e-07
-8.46635e-07
-9.32216e-10
-0.00106766
1.57416e-09
-1.17152e-06
2.24527e-07
-2.25215e-07
-8.46638e-07
2.09958e-07
8.46555e-07
-2.11536e-07
1.20099e-06
0.0010668
-8.4511e-10
-0.0010668
1.60443e-09
-1.19931e-06
2.27116e-07
-2.27812e-07
-8.46632e-07
2.09871e-07
-2.11492e-07
8.465e-07
-2.10089e-07
-2.17379e-07
0.000260605
-1.16789e-06
0.000262548
-0.000260605
2.11779e-07
2.1907e-07
-9.13792e-10
1.55691e-09
0.00106783
-2.25266e-07
1.16799e-06
2.24587e-07
8.44031e-07
-2.11582e-07
2.09985e-07
-8.44108e-07
-9.47497e-10
-0.00106732
1.53594e-09
-1.16619e-06
2.2454e-07
-2.25203e-07
-8.46463e-07
2.12589e-07
8.46438e-07
-2.14177e-07
1.16799e-06
0.00106783
-9.3241e-10
-0.00106783
1.54873e-09
-1.1663e-06
2.24591e-07
-2.25259e-07
-8.44102e-07
2.09987e-07
-2.1157e-07
8.4403e-07
-0.000260617
2.14083e-07
2.19282e-07
1.20455e-06
1.17156e-06
-2.12437e-07
-2.17623e-07
0.000260623
-1.20625e-06
-1.17322e-06
0.000262569
-0.000260622
2.14078e-07
2.19328e-07
1.58663e-09
0.00106689
-2.33249e-07
1.20625e-06
2.32552e-07
8.49113e-07
-2.14204e-07
-8.49261e-07
2.1257e-07
-1.2099e-06
-8.06211e-10
1.62928e-09
0.00106732
-2.30608e-07
1.21159e-06
2.29895e-07
8.49332e-07
-2.11592e-07
-8.49477e-07
2.09939e-07
0.00106689
-7.5774e-10
-0.00106689
1.61118e-09
-1.20456e-06
2.32544e-07
-2.33259e-07
-8.49271e-07
2.12536e-07
-2.14223e-07
8.49087e-07
1.21159e-06
0.00106732
-7.13406e-10
-0.00106732
1.64958e-09
-1.20991e-06
2.29875e-07
-2.30626e-07
-8.49506e-07
2.09902e-07
-2.11623e-07
8.493e-07
-2.12624e-07
-2.14895e-07
0.000260641
-1.17318e-06
0.000262594
-0.000260641
2.14259e-07
2.16597e-07
1.57005e-09
0.00106792
-2.30682e-07
1.17324e-06
2.29992e-07
8.49266e-07
-2.14266e-07
-8.49321e-07
2.12676e-07
-1.20462e-06
-8.43927e-10
1.60202e-09
0.001067
-2.3329e-07
1.20631e-06
2.32577e-07
8.49158e-07
-2.14226e-07
-8.49287e-07
2.12607e-07
0.00106792
-9.37098e-10
-0.00106792
1.62221e-09
-1.17158e-06
2.29974e-07
-2.30703e-07
-8.49313e-07
2.12684e-07
-2.14258e-07
8.49272e-07
1.20631e-06
0.001067
-8.44919e-10
-0.001067
1.5627e-09
-1.20461e-06
2.32583e-07
-2.33282e-07
-8.49283e-07
2.12611e-07
-2.14217e-07
8.49159e-07
-8.47044e-10
1.5974e-09
0.0010668
-2.27817e-07
1.20099e-06
2.27115e-07
8.46506e-07
-2.115e-07
2.09873e-07
-8.46634e-07
-9.26276e-10
-0.00106766
1.65371e-09
-1.17155e-06
2.24487e-07
-2.25251e-07
-8.46634e-07
2.09963e-07
8.46564e-07
-2.11536e-07
1.201e-06
0.0010668
-8.4611e-10
-0.0010668
1.56849e-09
-1.1993e-06
2.27123e-07
-2.27807e-07
-8.46632e-07
2.09873e-07
-2.11491e-07
8.46501e-07
-2.10088e-07
-2.17376e-07
0.000260605
-1.16789e-06
0.000262548
-0.000260605
2.1178e-07
2.19076e-07
-9.35532e-10
1.55517e-09
0.00106783
-2.25265e-07
1.16799e-06
2.24588e-07
8.44036e-07
-2.11578e-07
2.0999e-07
-8.44103e-07
-9.75818e-10
-0.00106732
1.53673e-09
-1.16619e-06
2.24542e-07
-2.25202e-07
-8.46459e-07
2.12594e-07
8.46443e-07
-2.14173e-07
1.168e-06
0.00106783
-9.5531e-10
-0.00106783
1.54053e-09
-1.1663e-06
2.24593e-07
-2.25258e-07
-8.44099e-07
2.09992e-07
-2.11567e-07
8.44034e-07
-0.000260617
2.14085e-07
2.19287e-07
1.20456e-06
1.1716e-06
-2.1249e-07
-2.17619e-07
0.000260623
-1.20626e-06
-1.17059e-06
0.000262566
-0.000260623
2.14088e-07
2.19289e-07
1.64053e-09
0.00106689
-2.33264e-07
1.20624e-06
2.32537e-07
8.49061e-07
-2.14267e-07
-8.49312e-07
2.12492e-07
-1.20991e-06
-6.55024e-10
1.65234e-09
0.00106732
-2.30646e-07
1.21158e-06
2.2986e-07
8.4929e-07
-2.11659e-07
-8.49531e-07
2.09881e-07
0.00106689
-7.97122e-10
-0.00106689
1.65363e-09
-1.20456e-06
2.32543e-07
-2.33251e-07
-8.49246e-07
2.09884e-07
-2.14186e-07
8.46467e-07
1.21163e-06
0.00106732
-7.48998e-10
-0.00106732
1.56659e-09
-1.20992e-06
2.32622e-07
-2.33295e-07
-8.52137e-07
2.12644e-07
-2.14289e-07
8.51963e-07
-2.12684e-07
-2.14901e-07
0.000260641
-1.17321e-06
0.000262597
-0.000260643
2.14314e-07
2.16612e-07
1.65232e-09
0.00106792
-2.30714e-07
1.1732e-06
2.29955e-07
8.49276e-07
-2.14265e-07
-8.49317e-07
2.12683e-07
-1.20461e-06
-8.41545e-10
1.56573e-09
0.001067
-2.33284e-07
1.20631e-06
2.32583e-07
8.49158e-07
-2.14227e-07
-8.49288e-07
2.12607e-07
0.00106792
-9.02489e-10
-0.00106792
1.63715e-09
-1.17158e-06
2.27265e-07
-2.307e-07
-8.49307e-07
2.12693e-07
-2.14252e-07
8.49277e-07
1.20631e-06
0.001067
-8.44016e-10
-0.001067
1.54871e-09
-1.20461e-06
2.32585e-07
-2.33279e-07
-8.49281e-07
2.12612e-07
-2.14215e-07
8.4916e-07
-8.50218e-10
1.56064e-09
0.0010668
-2.27811e-07
1.201e-06
2.27121e-07
8.46507e-07
-2.11499e-07
2.09874e-07
-8.46634e-07
-9.67844e-10
-0.00106766
1.57932e-09
-1.17153e-06
2.24543e-07
-2.25223e-07
-8.46626e-07
2.09974e-07
8.46564e-07
-2.1152e-07
1.201e-06
0.0010668
-8.69774e-10
-0.0010668
1.57854e-09
-1.1993e-06
2.27126e-07
-2.27802e-07
-8.46629e-07
2.09872e-07
-2.11491e-07
8.46503e-07
-2.10088e-07
-2.17371e-07
0.000260605
-1.16789e-06
0.000262548
-0.000260605
2.11782e-07
2.19078e-07
-9.47673e-10
1.5413e-09
0.00106783
-2.25264e-07
1.168e-06
2.2459e-07
8.44038e-07
-2.11576e-07
2.09991e-07
-8.44102e-07
-1.00569e-09
-0.00106732
1.53656e-09
-1.16618e-06
2.24544e-07
-2.252e-07
-8.46453e-07
2.12599e-07
8.46448e-07
-2.14167e-07
1.168e-06
0.00106783
-8.80291e-10
-0.00106783
1.51162e-09
-1.1663e-06
2.24594e-07
-2.25255e-07
-8.44106e-07
2.09981e-07
-2.11574e-07
8.44023e-07
-0.000260617
2.14087e-07
2.19288e-07
1.20457e-06
1.16893e-06
-2.12451e-07
-2.17594e-07
0.000260623
-1.20886e-06
-1.17062e-06
0.000262571
-0.000260623
2.11577e-07
2.19286e-07
1.67557e-09
0.00106689
-2.30564e-07
1.20625e-06
2.29825e-07
8.46456e-07
-2.11505e-07
-8.46614e-07
2.09835e-07
-1.20989e-06
-8.81243e-10
1.46824e-09
0.00106732
-2.3324e-07
1.21165e-06
2.32674e-07
8.51998e-07
-2.14235e-07
-8.52103e-07
2.127e-07
0.00106689
-7.17544e-10
-0.00106689
1.67767e-09
-1.20457e-06
2.3254e-07
-2.33251e-07
-8.46619e-07
2.07173e-07
-2.11531e-07
8.46447e-07
1.21161e-06
0.00106733
-8.06863e-10
-0.00106733
1.57469e-09
-1.20992e-06
2.32579e-07
-2.33309e-07
-8.54808e-07
2.12644e-07
-2.14286e-07
8.54654e-07
-2.12592e-07
-2.14866e-07
0.000260643
-1.17322e-06
0.000262595
-0.000260643
2.14354e-07
2.19095e-07
1.61559e-09
0.00106792
-2.27996e-07
1.17059e-06
2.27255e-07
8.49273e-07
-2.14263e-07
-8.49316e-07
2.12685e-07
-1.20461e-06
-8.37879e-10
1.56975e-09
0.001067
-2.33283e-07
1.20631e-06
2.32582e-07
8.49159e-07
-2.14225e-07
-8.49286e-07
2.12606e-07
0.00106793
-1.1761e-08
-0.00106792
1.5886e-09
-1.16892e-06
2.27311e-07
-2.27958e-07
-8.49307e-07
2.12701e-07
-2.14251e-07
8.4928e-07
1.20631e-06
0.001067
-8.31022e-10
-0.001067
1.57061e-09
-1.20461e-06
2.32579e-07
-2.33284e-07
-8.49282e-07
2.12609e-07
-2.14217e-07
8.49159e-07
-8.76483e-10
1.60097e-09
0.0010668
-2.2781e-07
1.201e-06
2.27119e-07
8.46507e-07
-2.11499e-07
2.09872e-07
-8.46631e-07
-9.45775e-10
-0.00106766
1.56153e-09
-1.17151e-06
2.27217e-07
-2.27922e-07
-8.46645e-07
2.09974e-07
8.46551e-07
-2.11571e-07
1.20099e-06
0.0010668
-8.75724e-10
-0.0010668
1.61585e-09
-1.19931e-06
2.27118e-07
-2.2781e-07
-8.46627e-07
2.09875e-07
-2.11486e-07
8.46504e-07
-2.10086e-07
-2.17369e-07
0.000260605
-1.16789e-06
0.000262548
-0.000260605
2.11779e-07
2.19073e-07
-8.61289e-10
1.51986e-09
0.00106783
-2.25262e-07
1.168e-06
2.2459e-07
8.44025e-07
-2.11586e-07
2.09978e-07
-8.44111e-07
-9.65777e-10
-0.00106733
1.54085e-09
-1.16619e-06
2.24539e-07
-2.25203e-07
-8.46458e-07
2.12593e-07
8.46442e-07
-2.14171e-07
1.168e-06
0.00106783
-9.10117e-10
-0.00106783
1.52919e-09
-1.1663e-06
2.24595e-07
-2.25255e-07
-8.44105e-07
2.09983e-07
-2.11574e-07
8.44026e-07
-0.000260617
2.14087e-07
2.19283e-07
1.20717e-06
1.16894e-06
-2.09938e-07
-2.17541e-07
0.000260623
-1.20887e-06
-1.17063e-06
0.000262569
-0.000260623
2.11633e-07
2.21782e-07
1.64933e-09
0.00106689
-2.3322e-07
1.20887e-06
2.32545e-07
8.46439e-07
-2.0884e-07
-8.46656e-07
2.07187e-07
-1.20992e-06
-8.51095e-10
1.58673e-09
0.00106733
-2.33315e-07
1.21162e-06
2.32586e-07
8.54673e-07
-2.1427e-07
-8.54786e-07
2.12668e-07
0.00106688
-8.75133e-10
-0.00106688
1.60777e-09
-1.20716e-06
2.32537e-07
-2.33219e-07
-8.49204e-07
2.07219e-07
-2.08814e-07
8.4911e-07
1.21163e-06
0.00106733
-8.2988e-10
-0.00106733
1.59902e-09
-1.20991e-06
2.32605e-07
-2.33292e-07
-8.54797e-07
2.12642e-07
-2.14288e-07
8.54652e-07
-2.12612e-07
-2.14908e-07
0.000260641
-1.17322e-06
0.000262592
-0.000260641
2.14324e-07
2.19119e-07
1.57408e-09
0.00106793
-2.27957e-07
1.17061e-06
2.27302e-07
8.49274e-07
-2.14255e-07
-8.49312e-07
2.12689e-07
-1.20461e-06
-8.3439e-10
1.58796e-09
0.001067
-2.33287e-07
1.20631e-06
2.32578e-07
8.49158e-07
-2.14226e-07
-8.49286e-07
2.12605e-07
0.00106793
-9.33397e-10
-0.00106793
1.53445e-09
-1.16892e-06
2.27299e-07
-2.27962e-07
-8.49318e-07
2.12684e-07
-2.14256e-07
8.49262e-07
1.20631e-06
0.001067
-8.53586e-10
-0.001067
1.59665e-09
-1.20461e-06
2.32578e-07
-2.33284e-07
-8.49279e-07
2.12613e-07
-2.14214e-07
8.49162e-07
-8.74292e-10
1.60366e-09
0.0010668
-2.27816e-07
1.20099e-06
2.27115e-07
8.46511e-07
-2.11494e-07
2.09878e-07
-8.46628e-07
-9.47908e-10
-0.00106766
1.53742e-09
-1.1715e-06
2.27269e-07
-2.27933e-07
-8.46637e-07
2.09981e-07
8.46555e-07
-2.11562e-07
1.201e-06
0.0010668
-8.70679e-10
-0.0010668
1.60702e-09
-1.19931e-06
2.27119e-07
-2.27809e-07
-8.46626e-07
2.09876e-07
-2.11486e-07
8.46505e-07
-2.10087e-07
-2.17373e-07
0.000260605
-1.16789e-06
0.000262548
-0.000260605
2.11782e-07
2.19072e-07
-9.16395e-10
1.53612e-09
0.00106783
-2.25261e-07
1.168e-06
2.24591e-07
8.44033e-07
-2.1158e-07
2.09986e-07
-8.44105e-07
-9.5878e-10
-0.00106733
1.53193e-09
-1.16618e-06
2.24542e-07
-2.252e-07
-8.46459e-07
2.12591e-07
8.46441e-07
-2.14173e-07
1.168e-06
0.00106783
-9.16917e-10
-0.00106783
1.53173e-09
-1.1663e-06
2.24595e-07
-2.25254e-07
-8.44102e-07
2.09986e-07
-2.11571e-07
8.44029e-07
-0.000260617
2.14087e-07
2.19284e-07
1.20717e-06
1.16893e-06
-2.09943e-07
-2.20072e-07
0.000260623
-1.20887e-06
-1.17063e-06
0.000262569
-0.000260623
2.11632e-07
2.21778e-07
1.6143e-09
0.00106688
-2.33234e-07
1.20886e-06
2.32529e-07
8.49097e-07
-2.08841e-07
-8.49218e-07
2.07201e-07
-1.20991e-06
-8.74347e-10
1.60389e-09
0.00106733
-2.33299e-07
1.21162e-06
2.32593e-07
8.54676e-07
-2.14272e-07
-8.54779e-07
2.12652e-07
0.00106688
-8.59314e-10
-0.00106688
1.61533e-09
-1.20717e-06
2.32528e-07
-2.33236e-07
-8.49212e-07
2.07212e-07
-2.08833e-07
8.49104e-07
1.21161e-06
0.00106733
-8.55543e-10
-0.00106733
1.61837e-09
-1.20992e-06
2.32592e-07
-2.33303e-07
-8.54779e-07
2.12649e-07
-2.14266e-07
8.54662e-07
-2.12614e-07
-2.174e-07
0.000260641
-1.17322e-06
0.000262592
-0.000260641
2.14321e-07
2.19107e-07
1.54199e-09
0.00106793
-2.27968e-07
1.17062e-06
2.27295e-07
8.49263e-07
-2.14267e-07
-8.49323e-07
2.12676e-07
-1.20462e-06
-8.55459e-10
1.61157e-09
0.001067
-2.33289e-07
1.2063e-06
2.32575e-07
8.49162e-07
-2.14222e-07
-8.49282e-07
2.12609e-07
0.00106793
-9.43661e-10
-0.00106793
1.52988e-09
-1.16892e-06
2.27302e-07
-2.2796e-07
-8.49316e-07
2.12681e-07
-2.1426e-07
8.49263e-07
1.2063e-06
0.001067
-8.51515e-10