/*--------------------------------*- C++ -*----------------------------------*\
| =========                 |                                                 |
| \\      /  F ield         | OpenFOAM: The Open Source CFD Toolbox           |
|  \\    /   O peration     | Version:  2206                                  |
|   \\  /    A nd           | Website:  www.openfoam.com                      |
|    \\/     M anipulation  |                                                 |
\*---------------------------------------------------------------------------*/
FoamFile
{
    version     2.0;
    format      ascii;
    arch        "LSB;label=32;scalar=64";
    class       volScalarField;
    location    "6.5";
    object      epsilon;
}
// * * * * * * * * * * * * * * * * * * * * * * * * * * * * * * * * * * * * * //

dimensions      [0 2 -3 0 0 0 0];

internalField   nonuniform List<scalar> 
28335
(
4.54239e-07
4.56975e-07
4.56976e-07
4.61122e-07
4.54001e-07
4.56756e-07
4.56758e-07
4.60938e-07
4.53962e-07
4.56721e-07
4.56722e-07
4.60902e-07
4.53961e-07
4.56721e-07
4.56722e-07
4.60902e-07
4.53961e-07
4.56721e-07
4.56722e-07
4.60902e-07
4.53961e-07
4.56721e-07
4.56722e-07
4.60902e-07
4.53961e-07
4.56721e-07
4.56722e-07
4.60902e-07
4.53961e-07
4.56721e-07
4.56722e-07
4.60902e-07
4.53961e-07
4.56721e-07
4.56722e-07
4.60902e-07
4.53961e-07
4.56721e-07
4.56722e-07
4.60901e-07
4.53961e-07
4.56721e-07
4.56722e-07
4.60902e-07
4.53961e-07
4.56721e-07
4.56722e-07
4.60902e-07
4.53961e-07
4.56721e-07
4.56722e-07
4.60902e-07
4.53961e-07
4.56721e-07
4.56722e-07
4.60902e-07
4.53961e-07
4.56721e-07
4.56722e-07
4.60902e-07
4.53961e-07
4.56721e-07
4.56722e-07
4.60902e-07
4.53961e-07
4.56721e-07
4.56722e-07
4.60901e-07
4.6108e-07
4.56985e-07
4.56985e-07
4.61078e-07
4.56983e-07
4.56986e-07
4.56981e-07
4.56985e-07
4.61081e-07
4.56982e-07
4.56983e-07
4.61077e-07
4.61128e-07
4.6091e-07
4.56979e-07
4.56979e-07
4.56814e-07
4.56814e-07
4.61126e-07
4.60908e-07
4.56977e-07
4.56981e-07
4.56813e-07
4.56816e-07
4.56979e-07
4.56812e-07
4.56814e-07
4.61129e-07
4.60912e-07
4.56977e-07
4.56814e-07
4.56813e-07
4.60909e-07
4.60942e-07
4.60852e-07
4.56762e-07
4.56762e-07
4.56723e-07
4.56723e-07
4.6094e-07
4.6085e-07
4.56761e-07
4.56764e-07
4.56722e-07
4.56725e-07
4.56762e-07
4.56721e-07
4.56723e-07
4.60943e-07
4.60853e-07
4.56761e-07
4.56722e-07
4.56722e-07
4.60853e-07
4.60902e-07
4.60855e-07
4.56726e-07
4.56727e-07
4.56723e-07
4.56724e-07
4.609e-07
4.60853e-07
4.56725e-07
4.56728e-07
4.56722e-07
4.56725e-07
4.56727e-07
4.56721e-07
4.56724e-07
4.60903e-07
4.60856e-07
4.56725e-07
4.56722e-07
4.56722e-07
4.60855e-07
4.60904e-07
4.60855e-07
4.56726e-07
4.56727e-07
4.56723e-07
4.56724e-07
4.60902e-07
4.60854e-07
4.56725e-07
4.56728e-07
4.56722e-07
4.56726e-07
4.56727e-07
4.56721e-07
4.56724e-07
4.60905e-07
4.60857e-07
4.56726e-07
4.56722e-07
4.56723e-07
4.60855e-07
4.60904e-07
4.60855e-07
4.56727e-07
4.56727e-07
4.56723e-07
4.56724e-07
4.60902e-07
4.60854e-07
4.56725e-07
4.56729e-07
4.56722e-07
4.56726e-07
4.56727e-07
4.56721e-07
4.56724e-07
4.60905e-07
4.60856e-07
4.56726e-07
4.56722e-07
4.56723e-07
4.60855e-07
4.60904e-07
4.60855e-07
4.56726e-07
4.56727e-07
4.56723e-07
4.56724e-07
4.60902e-07
4.60854e-07
4.56725e-07
4.56729e-07
4.56722e-07
4.56726e-07
4.56727e-07
4.56721e-07
4.56724e-07
4.60905e-07
4.60856e-07
4.56726e-07
4.56722e-07
4.56723e-07
4.60855e-07
4.60904e-07
4.60855e-07
4.56726e-07
4.56727e-07
4.56723e-07
4.56724e-07
4.60902e-07
4.60854e-07
4.56725e-07
4.56729e-07
4.56722e-07
4.56726e-07
4.56727e-07
4.56721e-07
4.56724e-07
4.60905e-07
4.60856e-07
4.56726e-07
4.56722e-07
4.56723e-07
4.60855e-07
4.60904e-07
4.60856e-07
4.56726e-07
4.56727e-07
4.56723e-07
4.56724e-07
4.60903e-07
4.60854e-07
4.56725e-07
4.56729e-07
4.56722e-07
4.56726e-07
4.56727e-07
4.56721e-07
4.56724e-07
4.60905e-07
4.60856e-07
4.56726e-07
4.56722e-07
4.56723e-07
4.60855e-07
4.60904e-07
4.60855e-07
4.56726e-07
4.56727e-07
4.56723e-07
4.56724e-07
4.60902e-07
4.60854e-07
4.56725e-07
4.56729e-07
4.56722e-07
4.56726e-07
4.56727e-07
4.56721e-07
4.56724e-07
4.60905e-07
4.60856e-07
4.56726e-07
4.56722e-07
4.56723e-07
4.60855e-07
4.60904e-07
4.60855e-07
4.56726e-07
4.56727e-07
4.56723e-07
4.56724e-07
4.60902e-07
4.60854e-07
4.56725e-07
4.56729e-07
4.56722e-07
4.56726e-07
4.56727e-07
4.56721e-07
4.56724e-07
4.60905e-07
4.60857e-07
4.56726e-07
4.56722e-07
4.56723e-07
4.60855e-07
4.60904e-07
4.60855e-07
4.56726e-07
4.56727e-07
4.56723e-07
4.56724e-07
4.60902e-07
4.60854e-07
4.56725e-07
4.56729e-07
4.56722e-07
4.56726e-07
4.56727e-07
4.56721e-07
4.56724e-07
4.60905e-07
4.60857e-07
4.56726e-07
4.56722e-07
4.56723e-07
4.60855e-07
4.60904e-07
4.60855e-07
4.56726e-07
4.56727e-07
4.56723e-07
4.56724e-07
4.60903e-07
4.60853e-07
4.56725e-07
4.56729e-07
4.56722e-07
4.56726e-07
4.56727e-07
4.56721e-07
4.56724e-07
4.60905e-07
4.60856e-07
4.56726e-07
4.56722e-07
4.56723e-07
4.60855e-07
4.60904e-07
4.60855e-07
4.56726e-07
4.56727e-07
4.56723e-07
4.56724e-07
4.60902e-07
4.60854e-07
4.56725e-07
4.56729e-07
4.56722e-07
4.56725e-07
4.56727e-07
4.56721e-07
4.56724e-07
4.60905e-07
4.60856e-07
4.56726e-07
4.56722e-07
4.56723e-07
4.60855e-07
4.60904e-07
4.60855e-07
4.56726e-07
4.56727e-07
4.56723e-07
4.56724e-07
4.60902e-07
4.60854e-07
4.56725e-07
4.56729e-07
4.56722e-07
4.56726e-07
4.56727e-07
4.56721e-07
4.56724e-07
4.60905e-07
4.60856e-07
4.56726e-07
4.56722e-07
4.56723e-07
4.60855e-07
4.60904e-07
4.60855e-07
4.56726e-07
4.56727e-07
4.56723e-07
4.56724e-07
4.60902e-07
4.60854e-07
4.56725e-07
4.56729e-07
4.56722e-07
4.56726e-07
4.56727e-07
4.56721e-07
4.56724e-07
4.60905e-07
4.60857e-07
4.56726e-07
4.56722e-07
4.56723e-07
4.60855e-07
4.60904e-07
4.60855e-07
4.56726e-07
4.56727e-07
4.56723e-07
4.56724e-07
4.60902e-07
4.60854e-07
4.56725e-07
4.56729e-07
4.56722e-07
4.56725e-07
4.56727e-07
4.56721e-07
4.56724e-07
4.60905e-07
4.60856e-07
4.56726e-07
4.56722e-07
4.56723e-07
4.60855e-07
4.60904e-07
4.56726e-07
4.56727e-07
4.60903e-07
4.56725e-07
4.56727e-07
4.56725e-07
4.60905e-07
4.56724e-07
1.1392e-06
5.79809e-06
2.02279e-05
1.13912e-06
5.79899e-06
4.54247e-07
4.54247e-07
4.54247e-07
4.54247e-07
5.46594e-07
4.56986e-07
9.73804e-07
4.54741e-07
2.0229e-05
5.46592e-07
4.56987e-07
4.54741e-07
9.73786e-07
4.61072e-07
1.81699e-06
1.81735e-06
1.1395e-06
5.79835e-06
1.13943e-06
5.79912e-06
2.02254e-05
2.02311e-05
1.13941e-06
5.79928e-06
1.1393e-06
5.80001e-06
4.5424e-07
4.54241e-07
4.54241e-07
4.54062e-07
4.54061e-07
4.54061e-07
4.54061e-07
5.46622e-07
9.74064e-07
4.54729e-07
4.56957e-07
5.46656e-07
9.74038e-07
4.5471e-07
2.02276e-05
2.02328e-05
5.46621e-07
4.54729e-07
9.74015e-07
4.56958e-07
5.46657e-07
4.5471e-07
9.74018e-07
1.81726e-06
1.81761e-06
4.61051e-07
1.81765e-06
1.81801e-06
1.14079e-06
5.80642e-06
1.14096e-06
5.80618e-06
2.02658e-05
2.02653e-05
1.14068e-06
5.80738e-06
1.14083e-06
5.80712e-06
4.54004e-07
4.54004e-07
4.54004e-07
4.53962e-07
4.53961e-07
4.53962e-07
4.53961e-07
5.46753e-07
9.75105e-07
4.54495e-07
4.56735e-07
5.46804e-07
9.74901e-07
4.54472e-07
2.02676e-05
2.02668e-05
5.46754e-07
4.54495e-07
9.75054e-07
4.56736e-07
5.46809e-07
4.54472e-07
9.74865e-07
1.82043e-06
1.8208e-06
4.60856e-07
1.8202e-06
1.82056e-06
1.14078e-06
5.80633e-06
1.14098e-06
5.80614e-06
2.02651e-05
2.02651e-05
1.14067e-06
5.80727e-06
1.14084e-06
5.80705e-06
4.53965e-07
4.53966e-07
4.53965e-07
4.53962e-07
4.53962e-07
4.53962e-07
4.53962e-07
5.4675e-07
9.75168e-07
4.54457e-07
4.56725e-07
5.46804e-07
9.74904e-07
4.54461e-07
2.0267e-05
2.02664e-05
5.46749e-07
4.54457e-07
9.75113e-07
4.56726e-07
5.46806e-07
4.54461e-07
9.74869e-07
1.8204e-06
1.82075e-06
4.60856e-07
1.82019e-06
1.82055e-06
1.14078e-06
5.80634e-06
1.14098e-06
5.80614e-06
2.0265e-05
2.0265e-05
1.14067e-06
5.80727e-06
1.14084e-06
5.80705e-06
4.53965e-07
4.53965e-07
4.53965e-07
4.53962e-07
4.53962e-07
4.53962e-07
4.53962e-07
5.46748e-07
9.75169e-07
4.54456e-07
4.56724e-07
5.46807e-07
9.74904e-07
4.5446e-07
2.0267e-05
2.02664e-05
5.46749e-07
4.54457e-07
9.75113e-07
4.56725e-07
5.46809e-07
4.5446e-07
9.74869e-07
1.82039e-06
1.82075e-06
4.60856e-07
1.82019e-06
1.82055e-06
1.14078e-06
5.80634e-06
1.14098e-06
5.80613e-06
2.0265e-05
2.0265e-05
1.14067e-06
5.80727e-06
1.14084e-06
5.80705e-06
4.53965e-07
4.53965e-07
4.53965e-07
4.53962e-07
4.53962e-07
4.53962e-07
4.53962e-07
5.46748e-07
9.75169e-07
4.54457e-07
4.56724e-07
5.46809e-07
9.74904e-07
4.5446e-07
2.0267e-05
2.02664e-05
5.46748e-07
4.54457e-07
9.75113e-07
4.56725e-07
5.46811e-07
4.5446e-07
9.74869e-07
1.82039e-06
1.82075e-06
4.60856e-07
1.82019e-06
1.82055e-06
1.14078e-06
5.80634e-06
1.14098e-06
5.80614e-06
2.0265e-05
2.02651e-05
1.14067e-06
5.80721e-06
1.14084e-06
5.80694e-06
4.53965e-07
4.53965e-07
4.53965e-07
4.53962e-07
4.53962e-07
4.53962e-07
4.53962e-07
5.46749e-07
9.75169e-07
4.54457e-07
4.56724e-07
5.46808e-07
9.74904e-07
4.5446e-07
2.0267e-05
2.02664e-05
5.46748e-07
4.54457e-07
9.75113e-07
4.56725e-07
5.46811e-07
4.5446e-07
9.74869e-07
1.82039e-06
1.82075e-06
4.60856e-07
1.82019e-06
1.82055e-06
1.14078e-06
5.80634e-06
1.14098e-06
5.80614e-06
2.02648e-05
2.02648e-05
1.14067e-06
5.80716e-06
1.14084e-06
5.80693e-06
4.53965e-07
4.53965e-07
4.53965e-07
4.53962e-07
4.53962e-07
4.53962e-07
4.53962e-07
5.46749e-07
9.75169e-07
4.54457e-07
4.56724e-07
5.46809e-07
9.74904e-07
4.5446e-07
2.0267e-05
2.02664e-05
5.46748e-07
4.54457e-07
9.75113e-07
4.56725e-07
5.46811e-07
4.5446e-07
9.74869e-07
1.82039e-06
1.82075e-06
4.60856e-07
1.82019e-06
1.82055e-06
1.14078e-06
5.80634e-06
1.14098e-06
5.80614e-06
2.02648e-05
2.02648e-05
1.14067e-06
5.80716e-06
1.14084e-06
5.80693e-06
4.53965e-07
4.53965e-07
4.53965e-07
4.53962e-07
4.53962e-07
4.53962e-07
4.53962e-07
5.46748e-07
9.75169e-07
4.54457e-07
4.56724e-07
5.46809e-07
9.74904e-07
4.5446e-07
2.0267e-05
2.02664e-05
5.46749e-07
4.54457e-07
9.75113e-07
4.56725e-07
5.46811e-07
4.5446e-07
9.74869e-07
1.82039e-06
1.82075e-06
4.60856e-07
1.82019e-06
1.82055e-06
1.14078e-06
5.80634e-06
1.14098e-06
5.80613e-06
2.02648e-05
2.02648e-05
1.14067e-06
5.80716e-06
1.14084e-06
5.80693e-06
4.53965e-07
4.53965e-07
4.53965e-07
4.53962e-07
4.53962e-07
4.53962e-07
4.53962e-07
5.46749e-07
9.75169e-07
4.54457e-07
4.56724e-07
5.46809e-07
9.74904e-07
4.5446e-07
2.0267e-05
2.02664e-05
5.46749e-07
4.54457e-07
9.75113e-07
4.56725e-07
5.46811e-07
4.5446e-07
9.74868e-07
1.82039e-06
1.82075e-06
4.60856e-07
1.82019e-06
1.82055e-06
1.14078e-06
5.80634e-06
1.14098e-06
5.80613e-06
2.02648e-05
2.02648e-05
1.14067e-06
5.80716e-06
1.14084e-06
5.80693e-06
4.53965e-07
4.53965e-07
4.53965e-07
4.53962e-07
4.53962e-07
4.53962e-07
4.53962e-07
5.46749e-07
9.75169e-07
4.54457e-07
4.56724e-07
5.46809e-07
9.74904e-07
4.5446e-07
2.0267e-05
2.02664e-05
5.46749e-07
4.54457e-07
9.75113e-07
4.56725e-07
5.46811e-07
4.5446e-07
9.74868e-07
1.82039e-06
1.82075e-06
4.60856e-07
1.82019e-06
1.82055e-06
1.14078e-06
5.80634e-06
1.14098e-06
5.80613e-06
2.02648e-05
2.02648e-05
1.14067e-06
5.80716e-06
1.14084e-06
5.80693e-06
4.53965e-07
4.53965e-07
4.53965e-07
4.53962e-07
4.53962e-07
4.53962e-07
4.53962e-07
5.46749e-07
9.75169e-07
4.54457e-07
4.56724e-07
5.46809e-07
9.74904e-07
4.5446e-07
2.0267e-05
2.02664e-05
5.46749e-07
4.54457e-07
9.75113e-07
4.56725e-07
5.46812e-07
4.5446e-07
9.74868e-07
1.82039e-06
1.82075e-06
4.60856e-07
1.82019e-06
1.82055e-06
1.14078e-06
5.80634e-06
1.14098e-06
5.80613e-06
2.02648e-05
2.02648e-05
1.14067e-06
5.80716e-06
1.14084e-06
5.80693e-06
4.53965e-07
4.53966e-07
4.53965e-07
4.53962e-07
4.53962e-07
4.53962e-07
4.53962e-07
5.46749e-07
9.75169e-07
4.54457e-07
4.56724e-07
5.46808e-07
9.74904e-07
4.5446e-07
2.0267e-05
2.02664e-05
5.46755e-07
4.54457e-07
9.75113e-07
4.56725e-07
5.46814e-07
4.5446e-07
9.74869e-07
1.82039e-06
1.82075e-06
4.60856e-07
1.82019e-06
1.82055e-06
1.14078e-06
5.80634e-06
1.14098e-06
5.80613e-06
2.02648e-05
2.02648e-05
1.14067e-06
5.80716e-06
1.14084e-06
5.80693e-06
4.53965e-07
4.53965e-07
4.53965e-07
4.53962e-07
4.53962e-07
4.53962e-07
4.53962e-07
5.46749e-07
9.75169e-07
4.54457e-07
4.56724e-07
5.46809e-07
9.74904e-07
4.5446e-07
2.0267e-05
2.02664e-05
5.46764e-07
4.54457e-07
9.75113e-07
4.56725e-07
5.46824e-07
4.5446e-07
9.74869e-07
1.82039e-06
1.82075e-06
4.60856e-07
1.82019e-06
1.82055e-06
1.14078e-06
5.80634e-06
1.14098e-06
5.80614e-06
2.02648e-05
2.02648e-05
1.14067e-06
5.80716e-06
1.14084e-06
5.80693e-06
4.53965e-07
4.53965e-07
4.53965e-07
4.53962e-07
4.53962e-07
4.53962e-07
4.53962e-07
5.46748e-07
9.75169e-07
4.54457e-07
4.56724e-07
5.46809e-07
9.74904e-07
4.5446e-07
2.0267e-05
2.02664e-05
5.4676e-07
4.54457e-07
9.75113e-07
4.56725e-07
5.46824e-07
4.5446e-07
9.74869e-07
1.82039e-06
1.82075e-06
4.60856e-07
1.82019e-06
1.82055e-06
1.14078e-06
5.80634e-06
1.14098e-06
5.80613e-06
2.02648e-05
2.02648e-05
1.14067e-06
5.80716e-06
1.14084e-06
5.80693e-06
4.53965e-07
4.53965e-07
4.53965e-07
4.53962e-07
4.53962e-07
4.53962e-07
4.53962e-07
5.46748e-07
9.75169e-07
4.54457e-07
4.56724e-07
5.46809e-07
9.74904e-07
4.5446e-07
2.0267e-05
2.02664e-05
5.4676e-07
4.54457e-07
9.75113e-07
4.56725e-07
5.46824e-07
4.5446e-07
9.74869e-07
1.82039e-06
1.82075e-06
4.60856e-07
1.82019e-06
1.82055e-06
1.14078e-06
5.80634e-06
1.14098e-06
5.80613e-06
2.02648e-05
2.02648e-05
1.14067e-06
5.80716e-06
1.14084e-06
5.80693e-06
4.53965e-07
4.53965e-07
4.53965e-07
4.53962e-07
4.53962e-07
4.53962e-07
4.53962e-07
5.46749e-07
9.75169e-07
4.54457e-07
4.56724e-07
5.46809e-07
9.74904e-07
4.5446e-07
2.0267e-05
2.02664e-05
5.4676e-07
4.54457e-07
9.75114e-07
4.56725e-07
5.46824e-07
4.5446e-07
9.74869e-07
1.8204e-06
1.82075e-06
4.60856e-07
1.82019e-06
1.82055e-06
1.14078e-06
5.80634e-06
1.14098e-06
5.80613e-06
2.02647e-05
2.02647e-05
1.14067e-06
5.80716e-06
1.14084e-06
5.80693e-06
4.53965e-07
4.53964e-07
4.53964e-07
5.46745e-07
9.75169e-07
4.54457e-07
4.56723e-07
5.46808e-07
9.74903e-07
4.54461e-07
2.0267e-05
2.0266e-05
5.46759e-07
4.54457e-07
9.75113e-07
4.56726e-07
5.46824e-07
4.54462e-07
9.74947e-07
1.8204e-06
1.82075e-06
4.60858e-07
1.82024e-06
1.8206e-06
2.02256e-05
2.02281e-05
4.61071e-07
1.81688e-06
1.81728e-06
2.02225e-05
2.0225e-05
2.0225e-05
2.02275e-05
4.61123e-07
1.81698e-06
1.81738e-06
1.81704e-06
1.81744e-06
1.13914e-06
5.79814e-06
5.46595e-07
4.56988e-07
9.73742e-07
4.54741e-07
5.46591e-07
4.56988e-07
9.73803e-07
4.5474e-07
1.13936e-06
5.79818e-06
5.7981e-06
1.13923e-06
1.13931e-06
5.79817e-06
5.79815e-06
1.13918e-06
5.4665e-07
4.56987e-07
9.73744e-07
4.54737e-07
9.7395e-07
4.5474e-07
5.46601e-07
5.46647e-07
4.56987e-07
9.73798e-07
4.54737e-07
9.74014e-07
4.54739e-07
5.46596e-07
4.6107e-07
1.81724e-06
1.81705e-06
2.02237e-05
2.02252e-05
2.02276e-05
4.61121e-07
1.81739e-06
1.81718e-06
1.81743e-06
1.81732e-06
2.02214e-05
2.02236e-05
5.46589e-07
4.56987e-07
9.7387e-07
4.54741e-07
1.13909e-06
5.79899e-06
5.46592e-07
4.5699e-07
4.54741e-07
9.73958e-07
1.13925e-06
5.7991e-06
5.799e-06
1.13914e-06
5.46645e-07
4.56986e-07
9.73885e-07
4.54737e-07
9.74078e-07
4.5474e-07
5.46597e-07
1.13921e-06
5.79907e-06
5.79899e-06
1.13911e-06
5.46647e-07
4.56989e-07
4.54737e-07
9.73965e-07
4.5474e-07
9.74191e-07
5.46597e-07
1.13916e-06
5.79811e-06
5.46593e-07
4.56988e-07
4.5474e-07
9.7376e-07
1.13916e-06
5.79858e-06
5.46648e-07
4.56984e-07
9.73792e-07
4.54736e-07
9.74027e-07
4.54739e-07
5.46595e-07
1.13932e-06
5.79817e-06
5.79811e-06
1.13919e-06
5.46647e-07
4.56987e-07
4.54737e-07
9.73758e-07
4.54739e-07
9.7397e-07
5.46597e-07
1.13932e-06
5.7986e-06
5.79858e-06
1.13919e-06
4.61073e-07
1.81759e-06
1.81693e-06
2.02272e-05
2.02271e-05
2.0229e-05
4.61124e-07
1.81779e-06
1.81704e-06
1.81785e-06
1.81709e-06
2.0224e-05
2.02265e-05
5.46592e-07
4.56987e-07
4.54741e-07
9.73844e-07
1.13908e-06
5.79867e-06
1.13908e-06
5.79883e-06
5.46649e-07
4.56985e-07
4.54736e-07
9.73765e-07
4.54739e-07
9.73988e-07
5.46593e-07
5.46649e-07
4.56986e-07
4.54737e-07
9.73842e-07
4.54739e-07
9.74056e-07
5.46594e-07
1.1392e-06
5.79869e-06
5.79868e-06
1.13909e-06
1.13921e-06
5.79886e-06
5.79883e-06
1.1391e-06
2.02274e-05
2.02286e-05
4.61123e-07
1.81709e-06
1.81744e-06
1.81715e-06
1.8175e-06
2.02242e-05
2.02267e-05
2.02255e-05
2.0228e-05
2.02225e-05
2.02285e-05
2.0225e-05
2.02315e-05
1.817e-06
1.8174e-06
4.61053e-07
1.81753e-06
1.81794e-06
2.02628e-05
2.02411e-05
2.02654e-05
2.02444e-05
4.61083e-07
1.82013e-06
1.82054e-06
1.81858e-06
1.81902e-06
1.13947e-06
5.79818e-06
1.13932e-06
5.79926e-06
5.46632e-07
9.73946e-07
4.54731e-07
4.5696e-07
5.46659e-07
9.73992e-07
4.54711e-07
5.46628e-07
9.74004e-07
4.5473e-07
4.5696e-07
5.46655e-07
9.74054e-07
4.5471e-07
1.14003e-06
5.806e-06
5.80143e-06
1.14066e-06
1.14004e-06
5.80637e-06
5.80183e-06
1.14067e-06
5.4672e-07
4.569e-07
9.74718e-07
4.54554e-07
9.74403e-07
4.54646e-07
5.46729e-07
5.46718e-07
4.569e-07
9.74794e-07
4.54554e-07
9.7448e-07
4.54645e-07
5.46729e-07
1.81745e-06
1.81743e-06
4.61051e-07
1.81794e-06
1.81778e-06
2.02214e-05
2.02281e-05
2.02643e-05
2.02434e-05
4.61081e-07
1.82049e-06
1.82025e-06
1.81903e-06
1.819e-06
2.02619e-05
2.02417e-05
5.46628e-07
9.74085e-07
4.54731e-07
4.56959e-07
5.46654e-07
9.74141e-07
4.54711e-07
1.13941e-06
5.79907e-06
1.13921e-06
5.80006e-06
5.4663e-07
4.54731e-07
9.74191e-07
4.56962e-07
5.46655e-07
4.54711e-07
9.74207e-07
1.1399e-06
5.80694e-06
5.80235e-06
1.1406e-06
5.46716e-07
4.56899e-07
9.74873e-07
4.54554e-07
9.74547e-07
4.54645e-07
5.4673e-07
1.13992e-06
5.80721e-06
5.8026e-06
1.14062e-06
5.4672e-07
4.56902e-07
4.54554e-07
9.7496e-07
4.54645e-07
9.74661e-07
5.46733e-07
1.13948e-06
5.79817e-06
1.13932e-06
5.79926e-06
5.46625e-07
4.5473e-07
9.73961e-07
4.5696e-07
5.46653e-07
4.5471e-07
9.74018e-07
1.13948e-06
5.7986e-06
1.13933e-06
5.79972e-06
5.4671e-07
4.56894e-07
9.74769e-07
4.54555e-07
9.74483e-07
4.54643e-07
5.46725e-07
1.14004e-06
5.80636e-06
5.80189e-06
1.14068e-06
5.46713e-07
4.56899e-07
4.54554e-07
9.74757e-07
4.54645e-07
9.74442e-07
5.46727e-07
1.14005e-06
5.80683e-06
5.8023e-06
1.14068e-06
1.818e-06
1.81707e-06
4.61054e-07
1.81833e-06
1.81759e-06
2.0224e-05
2.023e-05
2.02658e-05
2.02455e-05
4.61084e-07
1.82079e-06
1.82018e-06
1.8195e-06
1.81864e-06
2.02643e-05
2.02426e-05
5.46621e-07
4.54731e-07
9.74048e-07
4.56959e-07
5.46654e-07
4.5471e-07
9.74101e-07
1.13939e-06
5.79869e-06
1.13919e-06
5.79977e-06
1.13938e-06
5.79886e-06
1.1392e-06
5.79997e-06
5.46714e-07
4.56896e-07
4.54554e-07
9.74742e-07
4.54643e-07
9.74433e-07
5.46727e-07
5.46714e-07
4.56898e-07
4.54554e-07
9.7484e-07
4.54645e-07
9.74527e-07
5.46726e-07
1.13992e-06
5.8069e-06
5.80234e-06
1.14061e-06
1.1399e-06
5.80709e-06
5.80256e-06
1.14061e-06
2.02242e-05
2.02309e-05
2.02255e-05
2.02321e-05
4.61081e-07
1.82019e-06
1.82056e-06
1.81868e-06
1.81904e-06
2.02646e-05
2.02438e-05
2.02659e-05
2.0245e-05
2.02629e-05
2.02633e-05
2.02654e-05
2.02658e-05
1.82023e-06
1.82064e-06
4.60856e-07
1.82017e-06
1.82058e-06
2.0263e-05
2.02623e-05
2.02655e-05
2.02648e-05
4.609e-07
1.82015e-06
1.82055e-06
1.82021e-06
1.82062e-06
1.14077e-06
5.80651e-06
1.14089e-06
5.8065e-06
5.46756e-07
9.74981e-07
4.54498e-07
4.56738e-07
5.46801e-07
9.74848e-07
4.54472e-07
5.46755e-07
9.75058e-07
4.54497e-07
4.56738e-07
5.46802e-07
9.74919e-07
4.54472e-07
1.14091e-06
5.80615e-06
5.80603e-06
1.14078e-06
1.14091e-06
5.8064e-06
5.80643e-06
1.14078e-06
5.46809e-07
4.56724e-07
9.7485e-07
4.54456e-07
9.75046e-07
4.54458e-07
5.46746e-07
5.4681e-07
4.56724e-07
9.74918e-07
4.54456e-07
9.7512e-07
4.54457e-07
5.46746e-07
1.82065e-06
1.82066e-06
4.60854e-07
1.82056e-06
1.82045e-06
2.02622e-05
2.02621e-05
2.02644e-05
2.02642e-05
4.60898e-07
1.82052e-06
1.82037e-06
1.82063e-06
1.82066e-06
2.02619e-05
2.02612e-05
5.46754e-07
9.75133e-07
4.54498e-07
4.56737e-07
5.468e-07
9.75004e-07
4.54472e-07
1.14069e-06
5.80742e-06
1.14077e-06
5.80737e-06
5.46756e-07
4.54498e-07
9.7525e-07
4.5674e-07
5.46804e-07
4.54472e-07
9.75094e-07
1.14078e-06
5.80709e-06
5.80697e-06
1.14067e-06
5.46806e-07
4.56723e-07
9.75003e-07
4.54456e-07
9.75196e-07
4.54457e-07
5.4674e-07
1.1408e-06
5.80728e-06
5.80728e-06
1.1407e-06
5.46809e-07
4.56726e-07
4.54457e-07
9.75094e-07
4.54458e-07
9.75314e-07
5.46746e-07
1.14078e-06
5.80655e-06
1.1409e-06
5.80649e-06
5.46756e-07
4.54498e-07
9.75017e-07
4.56738e-07
5.468e-07
4.54472e-07
9.74876e-07
1.14078e-06
5.80696e-06
1.1409e-06
5.80694e-06
5.46806e-07
4.56724e-07
9.74902e-07
4.54457e-07
9.75119e-07
4.5446e-07
5.46745e-07
1.14091e-06
5.80639e-06
5.80641e-06
1.14079e-06
5.46809e-07
4.56724e-07
4.54456e-07
9.74877e-07
4.54457e-07
9.75076e-07
5.46747e-07
1.14092e-06
5.80684e-06
5.80684e-06
1.14079e-06
1.82117e-06
1.82029e-06
4.60857e-07
1.82097e-06
1.82022e-06
2.02644e-05
2.02648e-05
2.02663e-05
2.02659e-05
4.60901e-07
1.82095e-06
1.8202e-06
1.82116e-06
1.82027e-06
2.02646e-05
2.02638e-05
5.46756e-07
4.54498e-07
9.75104e-07
4.56737e-07
5.46804e-07
4.54472e-07
9.74961e-07
1.14068e-06
5.80706e-06
1.14076e-06
5.80703e-06
1.14068e-06
5.80723e-06
1.14077e-06
5.80721e-06
5.46811e-07
4.56725e-07
4.54457e-07
9.74867e-07
4.5446e-07
9.75063e-07
5.46744e-07
5.46813e-07
4.56723e-07
4.54456e-07
9.74962e-07
4.54458e-07
9.75163e-07
5.46744e-07
1.14079e-06
5.80693e-06
5.80698e-06
1.14069e-06
1.14079e-06
5.80711e-06
5.80711e-06
1.14069e-06
2.02647e-05
2.0265e-05
2.02659e-05
2.02663e-05
4.609e-07
1.82019e-06
1.82055e-06
1.82025e-06
1.82061e-06
2.02648e-05
2.02641e-05
2.0266e-05
2.02653e-05
2.02626e-05
2.02633e-05
2.02651e-05
2.02658e-05
1.8202e-06
1.82061e-06
4.60855e-07
1.82016e-06
1.82056e-06
2.02629e-05
2.02623e-05
2.02654e-05
2.02647e-05
4.60903e-07
1.82014e-06
1.82055e-06
1.8202e-06
1.82061e-06
1.14077e-06
5.80629e-06
1.14091e-06
5.80643e-06
5.46753e-07
9.75047e-07
4.5446e-07
4.56726e-07
5.46802e-07
9.74853e-07
4.5446e-07
5.46752e-07
9.75117e-07
4.5446e-07
4.56727e-07
5.46802e-07
9.74923e-07
4.5446e-07
1.14091e-06
5.80616e-06
5.80601e-06
1.14078e-06
1.14091e-06
5.80641e-06
5.8063e-06
1.14078e-06
5.46808e-07
4.56724e-07
9.7485e-07
4.54457e-07
9.75048e-07
4.54458e-07
5.46746e-07
5.46808e-07
4.56725e-07
9.74918e-07
4.54457e-07
9.75121e-07
4.54458e-07
5.46748e-07
1.82059e-06
1.82062e-06
4.60853e-07
1.82053e-06
1.82041e-06
2.02613e-05
2.02624e-05
2.02644e-05
2.02645e-05
4.60901e-07
1.82051e-06
1.8204e-06
1.82061e-06
1.82065e-06
2.0262e-05
2.02615e-05
5.46747e-07
9.75195e-07
4.5446e-07
4.56725e-07
5.46795e-07
9.75005e-07
4.5446e-07
1.14069e-06
5.80717e-06
1.1408e-06
5.8073e-06
5.46752e-07
4.54461e-07
9.75311e-07
4.56728e-07
5.46801e-07
4.54461e-07
9.75096e-07
1.14078e-06
5.8071e-06
5.80693e-06
1.14067e-06
5.46802e-07
4.56723e-07
9.75003e-07
4.54457e-07
9.75195e-07
4.54458e-07
5.46743e-07
1.1408e-06
5.80731e-06
5.80715e-06
1.1407e-06
5.46807e-07
4.56726e-07
4.54457e-07
9.75095e-07
4.54458e-07
9.75314e-07
5.46749e-07
1.14078e-06
5.80628e-06
1.14092e-06
5.80644e-06
5.46752e-07
4.5446e-07
9.75073e-07
4.56727e-07
5.46801e-07
4.5446e-07
9.74878e-07
1.14078e-06
5.80672e-06
1.14092e-06
5.80688e-06
5.46806e-07
4.56724e-07
9.74904e-07
4.54457e-07
9.75119e-07
4.5446e-07
5.46749e-07
1.14092e-06
5.80643e-06
5.80629e-06
1.14079e-06
5.46807e-07
4.56725e-07
4.54457e-07
9.74876e-07
4.54458e-07
9.75075e-07
5.46751e-07
1.14092e-06
5.80685e-06
5.80674e-06
1.14079e-06
1.82115e-06
1.82026e-06
4.60856e-07
1.82091e-06
1.82021e-06
2.02643e-05
2.02648e-05
2.02663e-05
2.02659e-05
4.60904e-07
1.82096e-06
1.82019e-06
1.82114e-06
1.82026e-06
2.02645e-05
2.02637e-05
5.46751e-07
4.54461e-07
9.7516e-07
4.56725e-07
5.46802e-07
4.54461e-07
9.74963e-07
1.14068e-06
5.80683e-06
1.14079e-06
5.80697e-06
1.14068e-06
5.80699e-06
1.14079e-06
5.80714e-06
5.46809e-07
4.56725e-07
4.54457e-07
9.74867e-07
4.5446e-07
9.75064e-07
5.46747e-07
5.46811e-07
4.56723e-07
4.54457e-07
9.74961e-07
4.54458e-07
9.75163e-07
5.46749e-07
1.14079e-06
5.80694e-06
5.80685e-06
1.14069e-06
1.14079e-06
5.80711e-06
5.80699e-06
1.14069e-06
2.02645e-05
2.02651e-05
2.02657e-05
2.02663e-05
4.60903e-07
1.82019e-06
1.82055e-06
1.82024e-06
1.8206e-06
2.02647e-05
2.0264e-05
2.02659e-05
2.02653e-05
2.02627e-05
2.02633e-05
2.02652e-05
2.02658e-05
1.8202e-06
1.82061e-06
4.60853e-07
1.82015e-06
1.82056e-06
2.02629e-05
2.02622e-05
2.02654e-05
2.02647e-05
4.60902e-07
1.82015e-06
1.82054e-06
1.8202e-06
1.82061e-06
1.14077e-06
5.80631e-06
1.14091e-06
5.80643e-06
5.46753e-07
9.75046e-07
4.5446e-07
4.56726e-07
5.46803e-07
9.74853e-07
4.5446e-07
5.4675e-07
9.75117e-07
4.5446e-07
4.56727e-07
5.46805e-07
9.74922e-07
4.5446e-07
1.14091e-06
5.80616e-06
5.80601e-06
1.14078e-06
1.14091e-06
5.8064e-06
5.80631e-06
1.14078e-06
5.46807e-07
4.56724e-07
9.7485e-07
4.54457e-07
9.75047e-07
4.54458e-07
5.46746e-07
5.46806e-07
4.56725e-07
9.74918e-07
4.54457e-07
9.75121e-07
4.54457e-07
5.46749e-07
1.82059e-06
1.82063e-06
4.60852e-07
1.82053e-06
1.8204e-06
2.02613e-05
2.02622e-05
2.02644e-05
2.02645e-05
4.609e-07
1.82051e-06
1.8204e-06
1.82061e-06
1.82065e-06
2.0262e-05
2.02613e-05
5.46746e-07
9.75195e-07
4.5446e-07
4.56725e-07
5.46798e-07
9.75005e-07
4.5446e-07
1.14069e-06
5.8072e-06
1.1408e-06
5.8073e-06
5.46751e-07
4.5446e-07
9.75311e-07
4.56728e-07
5.46804e-07
4.5446e-07
9.75096e-07
1.14078e-06
5.8071e-06
5.80693e-06
1.14067e-06
5.46802e-07
4.56723e-07
9.75002e-07
4.54457e-07
9.75195e-07
4.54458e-07
5.46744e-07
1.1408e-06
5.80731e-06
5.80715e-06
1.1407e-06
5.46806e-07
4.56727e-07
4.54457e-07
9.75095e-07
4.54458e-07
9.75314e-07
5.4675e-07
1.14078e-06
5.80634e-06
1.14092e-06
5.80642e-06
5.46749e-07
4.5446e-07
9.75073e-07
4.56727e-07
5.46805e-07
4.5446e-07
9.74878e-07
1.14078e-06
5.80673e-06
1.14092e-06
5.80687e-06
5.46803e-07
4.56723e-07
9.74904e-07
4.54457e-07
9.75119e-07
4.54459e-07
5.4675e-07
1.14092e-06
5.80642e-06
5.80628e-06
1.14079e-06
5.46804e-07
4.56725e-07
4.54457e-07
9.74876e-07
4.54457e-07
9.75075e-07
5.46752e-07
1.14092e-06
5.80685e-06
5.80672e-06
1.14079e-06
1.82115e-06
1.82025e-06
4.60855e-07
1.82091e-06
1.82021e-06
2.02643e-05
2.02648e-05
2.02663e-05
2.0266e-05
4.60903e-07
1.82096e-06
1.82019e-06
1.82114e-06
1.82026e-06
2.02645e-05
2.02637e-05
5.46749e-07
4.5446e-07
9.7516e-07
4.56726e-07
5.46807e-07
4.5446e-07
9.74963e-07
1.14068e-06
5.80685e-06
1.14079e-06
5.80697e-06
1.14068e-06
5.807e-06
1.14079e-06
5.80713e-06
5.46807e-07
4.56724e-07
4.54457e-07
9.74867e-07
4.54459e-07
9.75063e-07
5.46748e-07
5.46808e-07
4.56723e-07
4.54457e-07
9.74961e-07
4.54458e-07
9.75162e-07
5.4675e-07
1.14079e-06
5.80695e-06
5.80684e-06
1.14069e-06
1.14079e-06
5.80711e-06
5.80699e-06
1.14069e-06
2.02645e-05
2.0265e-05
2.02657e-05
2.02663e-05
4.60903e-07
1.82019e-06
1.82055e-06
1.82024e-06
1.8206e-06
2.02647e-05
2.0264e-05
2.02659e-05
2.02653e-05
2.02627e-05
2.02633e-05
2.02652e-05
2.02658e-05
1.8202e-06
1.8206e-06
4.60854e-07
1.82016e-06
1.82056e-06
2.02629e-05
2.02623e-05
2.02654e-05
2.02647e-05
4.60902e-07
1.82014e-06
1.82055e-06
1.8202e-06
1.82061e-06
1.14077e-06
5.8063e-06
1.14091e-06
5.80644e-06
5.46753e-07
9.75047e-07
4.5446e-07
4.56726e-07
5.46803e-07
9.74853e-07
4.5446e-07
5.4675e-07
9.75117e-07
4.5446e-07
4.56727e-07
5.46805e-07
9.74922e-07
4.5446e-07
1.14091e-06
5.80616e-06
5.80601e-06
1.14078e-06
1.14091e-06
5.8064e-06
5.80631e-06
1.14078e-06
5.46807e-07
4.56724e-07
9.7485e-07
4.54457e-07
9.75047e-07
4.54458e-07
5.46746e-07
5.46806e-07
4.56725e-07
9.74918e-07
4.54457e-07
9.75121e-07
4.54457e-07
5.4675e-07
1.82059e-06
1.82063e-06
4.60852e-07
1.82053e-06
1.8204e-06
2.02613e-05
2.02622e-05
2.02644e-05
2.02645e-05
4.609e-07
1.82051e-06
1.8204e-06
1.82061e-06
1.82065e-06
2.0262e-05
2.02613e-05
5.46746e-07
9.75194e-07
4.5446e-07
4.56725e-07
5.46798e-07
9.75005e-07
4.5446e-07
1.14069e-06
5.8072e-06
1.1408e-06
5.8073e-06
5.4675e-07
4.5446e-07
9.75311e-07
4.56729e-07
5.46805e-07
4.5446e-07
9.75096e-07
1.14078e-06
5.80704e-06
5.80693e-06
1.14067e-06
5.46802e-07
4.56723e-07
9.74999e-07
4.54457e-07
9.75195e-07
4.54458e-07
5.46743e-07
1.1408e-06
5.80731e-06
5.80715e-06
1.1407e-06
5.46806e-07
4.56726e-07
4.54457e-07
9.75095e-07
4.54458e-07
9.75314e-07
5.4675e-07
1.14078e-06
5.80633e-06
1.14092e-06
5.80643e-06
5.46749e-07
4.5446e-07
9.75073e-07
4.56727e-07
5.46806e-07
4.5446e-07
9.74878e-07
1.14078e-06
5.80673e-06
1.14092e-06
5.80688e-06
5.46802e-07
4.56723e-07
9.74904e-07
4.54457e-07
9.75119e-07
4.54459e-07
5.4675e-07
1.14092e-06
5.80642e-06
5.80628e-06
1.14079e-06
5.46803e-07
4.56725e-07
4.54457e-07
9.74876e-07
4.54458e-07
9.75075e-07
5.46752e-07
1.14092e-06
5.80685e-06
5.80673e-06
1.14079e-06
1.82115e-06
1.82025e-06
4.60855e-07
1.82091e-06
1.82021e-06
2.02643e-05
2.02648e-05
2.02663e-05
2.02659e-05
4.60902e-07
1.82096e-06
1.82019e-06
1.82114e-06
1.82026e-06
2.02645e-05
2.02637e-05
5.46749e-07
4.5446e-07
9.7516e-07
4.56726e-07
5.46808e-07
4.5446e-07
9.74963e-07
1.14068e-06
5.80686e-06
1.14079e-06
5.80697e-06
1.14068e-06
5.80699e-06
1.14079e-06
5.80713e-06
5.46807e-07
4.56724e-07
4.54457e-07
9.74867e-07
4.54459e-07
9.75063e-07
5.46748e-07
5.46808e-07
4.56724e-07
4.54457e-07
9.74961e-07
4.54458e-07
9.75163e-07
5.4675e-07
1.14079e-06
5.80695e-06
5.80684e-06
1.14069e-06
1.14079e-06
5.80711e-06
5.80699e-06
1.14069e-06
2.02645e-05
2.0265e-05
2.02658e-05
2.02663e-05
4.60903e-07
1.82019e-06
1.82055e-06
1.82024e-06
1.8206e-06
2.02647e-05
2.0264e-05
2.02659e-05
2.02653e-05
2.02627e-05
2.02633e-05
2.02652e-05
2.02658e-05
1.8202e-06
1.82061e-06
4.60854e-07
1.82015e-06
1.82056e-06
2.02629e-05
2.02623e-05
2.02654e-05
2.02647e-05
4.60902e-07
1.82014e-06
1.82054e-06
1.8202e-06
1.82061e-06
1.14077e-06
5.80629e-06
1.14091e-06
5.80644e-06
5.46753e-07
9.75046e-07
4.5446e-07
4.56726e-07
5.46803e-07
9.74853e-07
4.5446e-07
5.4675e-07
9.75117e-07
4.5446e-07
4.56727e-07
5.46806e-07
9.74922e-07
4.5446e-07
1.14091e-06
5.80616e-06
5.80601e-06
1.14077e-06
1.14091e-06
5.80638e-06
5.8063e-06
1.14078e-06
5.46807e-07
4.56724e-07
9.7485e-07
4.54457e-07
9.75047e-07
4.54458e-07
5.46746e-07
5.46806e-07
4.56725e-07
9.74916e-07
4.54457e-07
9.7512e-07
4.54457e-07
5.4675e-07
1.82059e-06
1.82063e-06
4.60852e-07
1.82053e-06
1.8204e-06
2.02613e-05
2.02622e-05
2.02643e-05
2.02646e-05
4.609e-07
1.82058e-06
1.8204e-06
1.8206e-06
1.82065e-06
2.0262e-05
2.02614e-05
5.46746e-07
9.75224e-07
4.5446e-07
4.56725e-07
5.46798e-07
9.75018e-07
4.5446e-07
1.14069e-06
5.8072e-06
1.1408e-06
5.8073e-06
5.46751e-07
4.54461e-07
9.75311e-07
4.56729e-07
5.46805e-07
4.5446e-07
9.75096e-07
1.14078e-06
5.80697e-06
5.80681e-06
1.14067e-06
5.46802e-07
4.56723e-07
9.75023e-07
4.54457e-07