/*--------------------------------*- C++ -*----------------------------------*\
| =========                 |                                                 |
| \\      /  F ield         | OpenFOAM: The Open Source CFD Toolbox           |
|  \\    /   O peration     | Version:  2206                                  |
|   \\  /    A nd           | Website:  www.openfoam.com                      |
|    \\/     M anipulation  |                                                 |
\*---------------------------------------------------------------------------*/
FoamFile
{
    version     2.0;
    format      ascii;
    arch        "LSB;label=32;scalar=64";
    class       surfaceScalarField;
    location    "4";
    object      phi;
}
// * * * * * * * * * * * * * * * * * * * * * * * * * * * * * * * * * * * * * //

dimensions      [0 3 -1 0 0 0 0];

oriented        oriented;

internalField   nonuniform List<scalar> 
82717
(
9.15864e-10
9.76405e-10
-7.16607e-10
-6.28651e-10
0.00105908
-0.00105977
-1.15307e-06
-8.58699e-10
7.82344e-10
0.00105977
-2.09229e-07
1.15434e-06
2.08964e-07
8.22557e-07
-1.87816e-07
-8.22309e-07
1.87594e-07
-1.14778e-06
-9.61843e-10
6.72784e-10
0.00105943
-2.09265e-07
1.1491e-06
2.09012e-07
8.2244e-07
-1.90604e-07
-8.22212e-07
1.90255e-07
1.18063e-06
1.14789e-06
-2.02237e-07
-2.07379e-07
0.000258715
1.57419e-10
1.79215e-10
-0.00105908
-3.52718e-10
-3.23781e-10
0.00105908
-0.00105977
-1.15322e-06
-2.58979e-10
9.42738e-10
0.00105977
-2.09491e-07
1.15431e-06
2.08867e-07
8.2237e-07
-1.88365e-07
-8.22631e-07
1.87263e-07
-0.00105943
-1.14795e-06
-1.91198e-10
1.01585e-09
0.00105943
-2.09522e-07
1.14899e-06
2.08809e-07
8.22197e-07
-1.91049e-07
-8.22518e-07
1.89842e-07
-0.000260634
1.18081e-06
1.14806e-06
-2.02454e-07
-2.07598e-07
0.000258715
4.11908e-10
4.63852e-10
-0.00105908
-4.66682e-10
-4.4948e-10
0.00105908
-0.00105977
-1.1532e-06
-4.59621e-10
9.35922e-10
0.00105977
-2.09457e-07
1.15433e-06
2.08886e-07
8.2243e-07
-1.88254e-07
-8.22578e-07
1.87353e-07
-0.00105943
-1.1479e-06
-4.6308e-10
9.03201e-10
0.00105943
-2.09426e-07
1.14904e-06
2.08881e-07
8.22256e-07
-1.90856e-07
-8.22454e-07
1.89977e-07
-0.000260634
1.18075e-06
1.14801e-06
-2.02364e-07
-2.07509e-07
0.000258715
4.20475e-10
4.95804e-10
-0.00105908
-4.89151e-10
-4.52057e-10
0.00105908
-0.00105977
-1.15323e-06
-4.64295e-10
9.51588e-10
0.00105977
-2.09485e-07
1.15433e-06
2.08893e-07
8.22438e-07
-1.88241e-07
-8.22568e-07
1.87365e-07
-0.00105943
-1.14789e-06
-4.90732e-10
8.91466e-10
0.00105943
-2.09422e-07
1.14904e-06
2.08886e-07
8.22263e-07
-1.9085e-07
-8.22448e-07
1.89984e-07
-0.000260634
1.18075e-06
1.148e-06
-2.0236e-07
-2.07503e-07
0.000258715
4.26295e-10
4.92228e-10
-0.00105908
-4.77607e-10
-4.6305e-10
0.00105908
-0.00105977
-1.15317e-06
-4.90875e-10
9.14469e-10
0.00105977
-2.09428e-07
1.15433e-06
2.08876e-07
8.22434e-07
-1.88245e-07
-8.22571e-07
1.87359e-07
-0.00105943
-1.14789e-06
-4.93808e-10
8.91739e-10
0.00105943
-2.09421e-07
1.14904e-06
2.08887e-07
8.22263e-07
-1.90848e-07
-8.22446e-07
1.89984e-07
-0.000260634
1.18075e-06
1.148e-06
-2.02358e-07
-2.07503e-07
0.000258715
4.19875e-10
5.00271e-10
-0.00105908
-4.76622e-10
-4.46884e-10
0.00105908
-0.00105977
-1.15318e-06
-4.99648e-10
9.25364e-10
0.00105977
-2.0943e-07
1.15432e-06
2.08876e-07
8.22439e-07
-1.88244e-07
-8.22568e-07
1.87362e-07
-0.00105943
-1.14789e-06
-5.13222e-10
8.87296e-10
0.00105943
-2.09419e-07
1.14904e-06
2.08889e-07
8.22268e-07
-1.90844e-07
-8.22442e-07
1.89989e-07
-0.000260634
1.18074e-06
1.148e-06
-2.02357e-07
-2.07501e-07
0.000258715
2.53356e-10
4.89525e-10
-0.00105908
-4.48498e-10
-3.72572e-10
0.00105908
-0.00105977
-1.15323e-06
-4.78724e-10
1.04105e-09
0.00105977
-2.09494e-07
1.15427e-06
2.0881e-07
8.22448e-07
-1.88244e-07
-8.22566e-07
1.87368e-07
-0.00105943
-1.14789e-06
-5.34149e-10
8.96416e-10
0.00105943
-2.09422e-07
1.14904e-06
2.08887e-07
8.22271e-07
-1.90842e-07
-8.2244e-07
1.89992e-07
-0.000260634
1.18074e-06
1.148e-06
-2.0236e-07
-2.075e-07
0.000258715
3.83226e-10
4.37432e-10
-0.00105908
-4.17255e-10
-4.12748e-10
0.00105908
-0.00105977
-1.15314e-06
-5.62435e-10
8.35322e-10
0.00105977
-2.09369e-07
1.15436e-06
2.08943e-07
8.2244e-07
-1.88221e-07
-8.22555e-07
1.87372e-07
-0.00105943
-1.14789e-06
-5.43349e-10
9.0185e-10
0.00105943
-2.0942e-07
1.14904e-06
2.08887e-07
8.22272e-07
-1.90838e-07
-8.22436e-07
1.89993e-07
-0.000260634
1.18074e-06
1.148e-06
-2.02354e-07
-2.07497e-07
0.000258715
3.02008e-10
3.84792e-10
-0.00105907
-4.36763e-10
-4.70531e-10
0.00105907
-0.00105977
-1.15317e-06
-4.68651e-10
9.12999e-10
0.00105977
-2.12107e-07
1.15434e-06
2.11545e-07
8.2243e-07
-1.88279e-07
-8.22576e-07
1.87374e-07
-0.00105943
-1.14789e-06
-4.9661e-10
8.98821e-10
0.00105943
-2.09422e-07
1.14904e-06
2.08884e-07
8.22264e-07
-1.90846e-07
-8.22444e-07
1.89985e-07
-0.000260634
1.18075e-06
1.148e-06
-2.02356e-07
-2.07504e-07
0.000258715
4.64805e-10
4.70134e-10
-0.00105907
-4.64838e-10
-4.72403e-10
0.00105907
-0.00105977
-1.15316e-06
-4.91454e-10
8.96245e-10
0.00105977
-2.12132e-07
1.15432e-06
2.11593e-07
8.22434e-07
-1.8827e-07
-8.22572e-07
1.87381e-07
-0.00105943
-1.14789e-06
-4.87698e-10
8.97067e-10
0.00105943
-2.09422e-07
1.14904e-06
2.08885e-07
8.22262e-07
-1.90848e-07
-8.22446e-07
1.89984e-07
-0.000260634
1.18075e-06
1.148e-06
-2.02357e-07
-2.07504e-07
0.000258715
4.61688e-10
4.76781e-10
-0.00105907
-4.71986e-10
-4.72624e-10
0.00105907
-0.00105977
-1.15317e-06
-4.88021e-10
9.03417e-10
0.00105977
-2.12133e-07
1.15432e-06
2.11592e-07
8.22433e-07
-1.88272e-07
-8.22573e-07
1.8738e-07
-0.00105943
-1.14789e-06
-4.79591e-10
8.9985e-10
0.00105943
-2.09423e-07
1.14904e-06
2.08884e-07
8.22261e-07
-1.90851e-07
-8.22449e-07
1.89982e-07
-0.000260634
1.18075e-06
1.148e-06
-2.02358e-07
-2.07506e-07
0.000258715
4.59942e-10
4.80415e-10
-0.00105907
-4.74859e-10
-4.7162e-10
0.00105907
-0.00105977
-1.15317e-06
-4.85776e-10
9.0096e-10
0.00105977
-2.12133e-07
1.15432e-06
2.11592e-07
8.22432e-07
-1.88274e-07
-8.22575e-07
1.87379e-07
-0.00105943
-1.14789e-06
-4.79405e-10
8.95169e-10
0.00105943
-2.09423e-07
1.14904e-06
2.08885e-07
8.2226e-07
-1.90851e-07
-8.22449e-07
1.89982e-07
-0.000260634
1.18075e-06
1.148e-06
-2.02359e-07
-2.07507e-07
0.000258715
4.64517e-10
4.8431e-10
-0.00105907
-4.77351e-10
-4.74054e-10
0.00105907
-0.00105977
-1.15316e-06
-4.92937e-10
8.96926e-10
0.00105977
-2.12131e-07
1.15432e-06
2.11595e-07
8.22436e-07
-1.8827e-07
-8.22572e-07
1.87383e-07
-0.00105943
-1.14789e-06
-4.86991e-10
8.90204e-10
0.00105943
-2.09421e-07
1.14904e-06
2.08888e-07
8.22264e-07
-1.90848e-07
-8.22447e-07
1.89985e-07
-0.000260634
1.18075e-06
1.148e-06
-2.02357e-07
-2.07505e-07
0.000258715
4.70199e-10
4.87067e-10
-0.00105907
-4.78147e-10
-4.76669e-10
0.00105907
-0.00105977
-1.15316e-06
-4.9328e-10
8.95517e-10
0.00105977
-2.12131e-07
1.15432e-06
2.11595e-07
8.22435e-07
-1.88271e-07
-8.22572e-07
1.87382e-07
-0.00105943
-1.14789e-06
-4.8541e-10
8.90151e-10
0.00105943
-2.09421e-07
1.14904e-06
2.08887e-07
8.22263e-07
-1.9085e-07
-8.22448e-07
1.89984e-07
-0.000260634
1.18075e-06
1.148e-06
-2.02359e-07
-2.07506e-07
0.000258715
4.77723e-10
4.95513e-10
-0.00105907
-4.817e-10
-4.8004e-10
0.00105907
-0.00105977
-1.15316e-06
-5.02302e-10
8.91248e-10
0.00105977
-2.12128e-07
1.15433e-06
2.11597e-07
8.22438e-07
-1.88268e-07
-8.22569e-07
1.87385e-07
-0.00105943
-1.14789e-06
-4.92512e-10
8.86781e-10
0.00105943
-2.09418e-07
1.14904e-06
2.08889e-07
8.22265e-07
-1.90846e-07
-8.22445e-07
1.89986e-07
-0.000260634
1.18075e-06
1.148e-06
-2.02356e-07
-2.07503e-07
0.000258715
4.66345e-10
4.91569e-10
-0.00105907
-4.82442e-10
-4.76158e-10
0.00105907
-0.00105977
-1.15316e-06
-4.9233e-10
8.98594e-10
0.00105977
-2.1213e-07
1.15432e-06
2.11594e-07
8.22434e-07
-1.8827e-07
-8.22571e-07
1.87381e-07
-0.00105943
-1.14789e-06
-4.87561e-10
8.89942e-10
0.00105943
-2.09419e-07
1.14904e-06
2.08887e-07
8.22262e-07
-1.90847e-07
-8.22446e-07
1.89984e-07
-0.000260634
1.18075e-06
1.148e-06
-2.02355e-07
-2.07503e-07
0.000258715
4.72288e-10
4.99845e-10
-0.00105907
-4.89829e-10
-4.79442e-10
0.00105907
-0.00105977
-1.15316e-06
-5.01207e-10
8.95549e-10
0.00105977
-2.12128e-07
1.15432e-06
2.11596e-07
8.22436e-07
-1.88268e-07
-8.22568e-07
1.87382e-07
-0.00105943
-1.14789e-06
-5.01945e-10
8.83264e-10
0.00105943
-2.09417e-07
1.14904e-06
2.0889e-07
8.22265e-07
-1.90845e-07
-8.22443e-07
1.89987e-07
-0.000260634
1.18074e-06
1.148e-06
-2.02356e-07
-2.07501e-07
0.000258715
6.02488e-10
6.33325e-10
-0.00105907
-5.66132e-10
-5.49358e-10
0.00105907
-0.00105977
-1.15314e-06
-5.65743e-10
8.74377e-10
0.00105977
-2.12109e-07
1.15433e-06
2.11608e-07
8.22448e-07
-1.88251e-07
-8.22544e-07
1.87405e-07
-0.00105943
-1.14786e-06
-6.26019e-10
8.2674e-10
0.00105943
-2.09374e-07
1.14906e-06
2.08909e-07
8.22295e-07
-1.90792e-07
-8.22399e-07
1.89998e-07
-0.000260634
1.18071e-06
1.14797e-06
-2.02331e-07
-2.07466e-07
0.000258715
1.19249e-06
0.00105943
-1.19116e-06
2.17025e-07
-2.17275e-07
-8.27768e-07
1.90299e-07
-1.90705e-07
8.28023e-07
-1.15442e-06
0.000260677
-0.000258743
2.03854e-07
2.08618e-07
-1.15307e-06
2.09046e-07
-2.09279e-07
1.87603e-07
-1.88047e-07
1.18584e-06
1.15049e-06
-1.99762e-07
-2.04851e-07
0.00025872
-1.18703e-06
-1.15168e-06
0.000260652
-0.00025872
2.00914e-07
2.06013e-07
6.92254e-10
0.001059
-2.1723e-07
1.18717e-06
2.16965e-07
8.22535e-07
-1.87977e-07
-8.22298e-07
1.87568e-07
-1.19116e-06
-6.21384e-10
-4.46856e-09
0.00105943
-2.17224e-07
1.19242e-06
2.16949e-07
8.27787e-07
-1.90519e-07
-8.27846e-07
1.90235e-07
0.001059
-5.78614e-11
-0.001059
1.07846e-09
-1.18602e-06
2.16709e-07
-2.17524e-07
-8.22659e-07
1.87033e-07
-1.8851e-07
8.22271e-07
1.19235e-06
0.00105943
1.86895e-12
-0.00105943
1.03236e-09
-1.19134e-06
2.16791e-07
-2.17547e-07
-8.2807e-07
1.89853e-07
-1.91162e-07
8.27732e-07
-2.02386e-07
-2.07164e-07
0.000258743
-1.15429e-06
0.000260677
-0.000258743
2.03647e-07
2.08396e-07
6.92251e-10
0.00106003
-2.11974e-07
1.15181e-06
2.11706e-07
8.25291e-07
-1.90695e-07
-8.24995e-07
1.90316e-07
-1.18589e-06
-9.19653e-10
7.02844e-10
0.00105911
-2.17269e-07
1.18722e-06
2.16996e-07
8.25202e-07
-1.90656e-07
-8.24952e-07
1.90251e-07
0.00106003
-1.12444e-10
-0.00106003
1.06857e-09
-1.15068e-06
2.11455e-07
-2.12273e-07
-8.25353e-07
1.8977e-07
-1.91229e-07
8.2501e-07
1.18708e-06
0.00105911
-4.22149e-11
-0.00105911
1.08388e-09
-1.18608e-06
2.16735e-07
-2.17565e-07
-8.25312e-07
1.8971e-07
-1.91183e-07
8.24925e-07
-8.9969e-10
6.65309e-10
0.00105891
-2.11839e-07
1.18196e-06
2.11586e-07
8.22563e-07
-1.87949e-07
1.87548e-07
-8.22325e-07
-1.28869e-10
-0.00105977
1.0292e-09
-1.15323e-06
2.08829e-07
-2.09535e-07
-8.22682e-07
1.87186e-07
8.22353e-07
-1.88463e-07
1.18182e-06
0.00105891
-2.45707e-11
-0.00105891
1.0683e-09
-1.18081e-06
2.11323e-07
-2.12137e-07
-8.22685e-07
1.86998e-07
-1.88487e-07
8.22293e-07
-1.99927e-07
-2.07176e-07
0.000258702
-1.14897e-06
0.000260629
-0.000258702
2.01076e-07
2.08328e-07
-9.44369e-10
6.76506e-10
0.00105994
-2.0932e-07
1.1492e-06
2.09062e-07
8.20096e-07
-1.88021e-07
1.87644e-07
-8.19818e-07
-1.1462e-10
-0.00105943
1.05188e-09
-1.14796e-06
2.08756e-07
-2.09555e-07
-8.22523e-07
1.89685e-07
8.22217e-07
-1.9116e-07
1.14907e-06
0.00105994
-5.6071e-11
-0.00105994
1.06901e-09
-1.14808e-06
2.08801e-07
-2.09619e-07
-8.2018e-07
1.87085e-07
-1.88564e-07
8.19817e-07
-0.000258715
2.03372e-07
2.08531e-07
1.18602e-06
1.15067e-06
-1.99977e-07
-2.05068e-07
0.00025872
-1.18709e-06
-1.15435e-06
0.000260649
-0.00025872
2.03522e-07
2.08676e-07
1.07003e-09
0.001059
-2.17495e-07
1.18704e-06
2.16762e-07
8.22306e-07
-1.88419e-07
-8.226e-07
1.87165e-07
-1.19132e-06
-1.45887e-10
9.67456e-10
0.00105943
-2.17501e-07
1.19238e-06
2.16835e-07
8.27752e-07
-1.91055e-07
-8.2805e-07
1.89936e-07
0.001059
-4.16178e-10
-0.001059
9.37058e-10
-1.18596e-06
2.16836e-07
-2.17401e-07
-8.25164e-07
1.87303e-07
-1.90885e-07
8.22364e-07
1.19242e-06
0.00105943
-3.89604e-10
-0.00105943
9.44809e-10
-1.19128e-06
2.16878e-07
-2.17442e-07
-8.27998e-07
1.90004e-07
-1.90956e-07
8.27804e-07
-2.02616e-07
-2.07404e-07
0.000258743
-1.15433e-06
0.000260677
-0.000258743
2.03705e-07
2.08482e-07
1.04361e-09
0.00106003
-2.12242e-07
1.15169e-06
2.11542e-07
8.25037e-07
-1.91139e-07
-8.25303e-07
1.89897e-07
-1.18607e-06
-1.47638e-10
1.05077e-09
0.00105911
-2.1753e-07
1.1871e-06
2.1679e-07
8.2496e-07
-1.91094e-07
-8.25255e-07
1.89844e-07
0.00106002
-4.5328e-10
-0.00106002
9.1637e-10
-1.15322e-06
2.14294e-07
-2.14856e-07
-8.25251e-07
1.90027e-07
-1.90956e-07
8.25091e-07
1.18714e-06
0.00105911
-3.94365e-10
-0.00105911
9.4204e-10
-1.18602e-06
2.16863e-07
-2.17433e-07
-8.25205e-07
1.8997e-07
-1.90909e-07
8.2501e-07
-1.41144e-10
1.05628e-09
0.00105891
-2.12105e-07
1.18183e-06
2.11372e-07
8.22327e-07
-1.88392e-07
1.87138e-07
-8.22627e-07
-4.51811e-10
-0.00105977
9.18603e-10
-1.15319e-06
2.08896e-07
-2.09445e-07
-8.22588e-07
1.87345e-07
8.22422e-07
-1.88257e-07
1.18188e-06
0.00105891
-3.90917e-10
-0.00105891
9.46588e-10
-1.18076e-06
2.11444e-07
-2.12012e-07
-8.22576e-07
1.87265e-07
-1.88204e-07
8.22378e-07
-2.00142e-07
-2.07394e-07
0.000258702
-1.14903e-06
0.000260629
-0.000258702
2.01186e-07
2.08439e-07
-1.49072e-10
1.02721e-09
0.00105994
-2.09582e-07
1.14909e-06
2.08855e-07
8.19849e-07
-1.88472e-07
1.87224e-07
-8.20127e-07
-4.47095e-10
-0.00105943
9.07273e-10
-1.1479e-06
2.0888e-07
-2.09425e-07
-8.22418e-07
1.89948e-07
8.223e-07
-1.90881e-07
1.14913e-06
0.00105994
-4.23839e-10
-0.00105994
9.18826e-10
-1.14801e-06
2.08929e-07
-2.09486e-07
-8.20073e-07
1.87355e-07
-1.88281e-07
8.19904e-07
-0.000258715
2.03485e-07
2.08639e-07
1.18595e-06
1.15321e-06
-2.02395e-07
-2.07538e-07
0.00025872
-1.1871e-06
-1.15435e-06
0.000260649
-0.00025872
2.03527e-07
2.08688e-07
9.12428e-10
0.001059
-2.17397e-07
1.18709e-06
2.16837e-07
8.24977e-07
-1.88239e-07
-8.22545e-07
1.89952e-07
-1.19128e-06
-3.79897e-10
9.63295e-10
0.00105943
-2.17452e-07
1.19241e-06
2.16871e-07
8.27805e-07
-1.90961e-07
-8.27993e-07
1.89997e-07
0.001059
-4.16149e-10
-0.001059
8.79304e-10
-1.18594e-06
2.1685e-07
-2.17382e-07
-8.25167e-07
1.89959e-07
-1.90885e-07
8.24982e-07
1.1924e-06
0.00105943
-2.68763e-10
-0.00105943
1.04167e-09
-1.1913e-06
2.16844e-07
-2.1748e-07
-8.28038e-07
1.89962e-07
-1.91013e-07
8.27768e-07
-2.02577e-07
-2.07342e-07
0.000258743
-1.15429e-06
0.000260677
-0.000258743
2.03634e-07
2.0848e-07
9.16053e-10
0.00106002
-2.14852e-07
1.15435e-06
2.14297e-07
8.251e-07
-1.90951e-07
-8.25238e-07
1.90033e-07
-1.18601e-06
-4.27613e-10
9.35919e-10
0.00105911
-2.17432e-07
1.18715e-06
2.16865e-07
8.2502e-07
-1.90903e-07
-8.25191e-07
1.89979e-07
0.00106002
-5.08318e-10
-0.00106002
9.11237e-10
-1.15321e-06
2.14301e-07
-2.14845e-07
-8.25231e-07
1.90042e-07
-1.90934e-07
8.25107e-07
1.18715e-06
0.00105911
-4.46436e-10
-0.00105911
9.16714e-10
-1.18601e-06
2.16872e-07
-2.17421e-07
-8.25191e-07
1.89982e-07
-1.90894e-07
8.25022e-07
-4.22317e-10
9.23927e-10
0.00105891
-2.12007e-07
1.18188e-06
2.11449e-07
8.22386e-07
-1.88196e-07
1.87276e-07
-8.22562e-07
-4.53936e-10
-0.00105977
1.00435e-09
-1.15324e-06
2.08846e-07
-2.09499e-07
-8.22574e-07
1.8736e-07
8.22438e-07
-1.88245e-07
1.18189e-06
0.00105891
-4.32482e-10
-0.00105891
8.9895e-10
-1.18074e-06
2.11456e-07
-2.11997e-07
-8.22564e-07
1.87276e-07
-1.88191e-07
8.22388e-07
-2.00055e-07
-2.07305e-07
0.000258702
-1.14904e-06
0.000260629
-0.000258702
2.01194e-07
2.08447e-07
-4.59678e-10
9.12622e-10
0.00105994
-2.09483e-07
1.14914e-06
2.08931e-07
8.19913e-07
-1.88272e-07
1.87366e-07
-8.20058e-07
-4.97075e-10
-0.00105943
8.87472e-10
-1.14789e-06
2.08889e-07
-2.09414e-07
-8.22405e-07
1.89959e-07
8.22311e-07
-1.90868e-07
1.14914e-06
0.00105994
-4.94314e-10
-0.00105994
9.03115e-10
-1.148e-06
2.08937e-07
-2.09475e-07
-8.20056e-07
1.8737e-07
-1.88264e-07
8.19918e-07
-0.000258715
2.03492e-07
2.08649e-07
1.18595e-06
1.15321e-06
-2.02392e-07
-2.07531e-07
0.00025872
-1.1871e-06
-1.15435e-06
0.000260649
-0.00025872
2.0353e-07
2.08684e-07
8.88223e-10
0.001059
-2.17388e-07
1.1871e-06
2.16847e-07
8.24986e-07
-1.90889e-07
-8.2516e-07
1.89958e-07
-1.19128e-06
-3.99827e-10
9.65511e-10
0.00105943
-2.17453e-07
1.19242e-06
2.16886e-07
8.27817e-07
-1.90961e-07
-8.28005e-07
1.90022e-07
0.001059
-4.54047e-10
-0.001059
9.16436e-10
-1.18595e-06
2.16843e-07
-2.17386e-07
-8.25152e-07
1.8996e-07
-1.90873e-07
8.2499e-07
1.19241e-06
0.00105943
-4.37051e-10
-0.00105943
9.4195e-10
-1.19127e-06
2.16914e-07
-2.17434e-07
-8.25367e-07
1.87364e-07
-1.88284e-07
8.25198e-07
-2.02611e-07
-2.07336e-07
0.000258743
-1.15433e-06
0.000260675
-0.00025874
2.06214e-07
2.05994e-07
9.15753e-10
0.00106002
-2.14851e-07
1.15435e-06
2.14299e-07
8.25107e-07
-1.90943e-07
-8.2523e-07
1.9004e-07
-1.18601e-06
-4.536e-10
9.1921e-10
0.00105911
-2.17427e-07
1.18715e-06
2.1687e-07
8.25026e-07
-1.90896e-07
-8.25184e-07
1.89986e-07
0.00106002
-4.96973e-10
-0.00106002
9.03836e-10
-1.15321e-06
2.14303e-07
-2.14841e-07
-8.25231e-07
1.90041e-07
-1.90934e-07
8.25105e-07
1.18715e-06
0.00105911
-4.48748e-10
-0.00105911
9.16729e-10
-1.18601e-06
2.16873e-07
-2.1742e-07
-8.25189e-07
1.89984e-07
-1.90892e-07
8.25023e-07
-4.41832e-10
8.97579e-10
0.00105891
-2.12e-07
1.18189e-06
2.11456e-07
8.22392e-07
-1.88191e-07
1.87281e-07
-8.22558e-07
-4.83793e-10
-0.00105977
9.19881e-10
-1.15318e-06
2.08877e-07
-2.09422e-07
-8.22575e-07
1.87356e-07
8.22432e-07
-1.88243e-07
1.18189e-06
0.00105891
-4.40062e-10
-0.00105891
9.17731e-10
-1.18075e-06
2.11455e-07
-2.11999e-07
-8.22562e-07
1.87278e-07
-1.88189e-07
8.2239e-07
-2.0005e-07
-2.07301e-07
0.000258702
-1.14904e-06
0.000260629
-0.000258702
2.01195e-07
2.08448e-07
-5.01206e-10
9.03569e-10
0.00105994
-2.09478e-07
1.14914e-06
2.08937e-07
8.19922e-07
-1.88263e-07
1.87374e-07
-8.2005e-07
-4.96478e-10
-0.00105943
8.88696e-10
-1.14789e-06
2.08889e-07
-2.09414e-07
-8.22403e-07
1.8996e-07
8.22312e-07
-1.90866e-07
1.14914e-06
0.00105994
-4.91197e-10
-0.00105994
8.99563e-10
-1.148e-06
2.08939e-07
-2.09474e-07
-8.20055e-07
1.87371e-07
-1.88262e-07
8.1992e-07
-0.000258715
2.03494e-07
2.08649e-07
1.18595e-06
1.15321e-06
-2.0239e-07
-2.07533e-07
0.00025872
-1.1871e-06
-1.15435e-06
0.000260649
-0.00025872
2.03529e-07
2.08689e-07
9.10673e-10
0.001059
-2.1739e-07
1.1871e-06
2.16842e-07
8.24989e-07
-1.90877e-07
-8.25158e-07
1.89962e-07
-1.19126e-06
-4.42881e-10
9.29452e-10
0.00105943
-2.17469e-07
1.19241e-06
2.16915e-07
8.25199e-07
-1.88286e-07
-8.25363e-07
1.87364e-07
0.001059
-4.53658e-10
-0.001059
9.13024e-10
-1.18594e-06
2.16848e-07
-2.17383e-07
-8.25152e-07
1.89963e-07
-1.90868e-07
8.24989e-07
1.1924e-06
0.00105943
-4.33967e-10
-0.00105943
9.21421e-10
-1.19124e-06
2.14216e-07
-2.14757e-07
-8.25367e-07
1.87336e-07
-1.88255e-07
8.25195e-07
-2.05056e-07
-2.04838e-07
0.00025874
-1.15433e-06
0.000260675
-0.000258738
2.03715e-07
2.05993e-07
9.03166e-10
0.00106002
-2.14845e-07
1.15436e-06
2.14303e-07
8.25107e-07
-1.90942e-07
-8.25229e-07
1.9004e-07
-1.18601e-06
-4.54261e-10
9.17536e-10
0.00105911
-2.17425e-07
1.18715e-06
2.16871e-07
8.25026e-07
-1.90896e-07
-8.25183e-07
1.89985e-07
0.00106002
-5.04269e-10
-0.00106002
9.05344e-10
-1.15321e-06
2.14305e-07
-2.14839e-07
-8.25229e-07
1.90044e-07
-1.90931e-07
8.25108e-07
1.18716e-06
0.00105911
-4.49498e-10
-0.00105911
8.9999e-10
-1.186e-06
2.16877e-07
-2.17416e-07
-8.25189e-07
1.89986e-07
-1.90891e-07
8.25024e-07
-4.50254e-10
9.11563e-10
0.00105891
-2.12001e-07
1.18189e-06
2.11454e-07
8.22394e-07
-1.88188e-07
1.87283e-07
-8.22555e-07
-4.99783e-10
-0.00105977
9.20024e-10
-1.15317e-06
2.0888e-07
-2.09422e-07
-8.22572e-07
1.87358e-07
8.22436e-07
-1.88242e-07
1.18189e-06
0.00105891
-4.53558e-10
-0.00105891
9.01442e-10
-1.18074e-06
2.1146e-07
-2.11995e-07
-8.22559e-07
1.87283e-07
-1.88185e-07
8.22394e-07
-2.0005e-07
-2.073e-07
0.000258702
-1.14904e-06
0.000260629
-0.000258702
2.01197e-07
2.08452e-07
-4.98149e-10
8.9798e-10
0.00105994
-2.09476e-07
1.14914e-06
2.08938e-07
8.19922e-07
-1.88262e-07
1.87375e-07
-8.20048e-07
-5.17816e-10
-0.00105943
8.84101e-10
-1.14789e-06
2.08892e-07
-2.09411e-07
-8.22399e-07
1.89965e-07
8.22317e-07
-1.90862e-07
1.14915e-06
0.00105994
-5.09872e-10
-0.00105994
8.88369e-10
-1.148e-06
2.08943e-07
-2.0947e-07
-8.20051e-07
1.87376e-07
-1.88258e-07
8.19924e-07
-0.000258715
2.03497e-07
2.08653e-07
1.18594e-06
1.15321e-06
-2.02387e-07
-2.0753e-07
0.00025872
-1.1871e-06
-1.15433e-06
0.000260649
-0.00025872
2.03487e-07
2.08694e-07
8.97189e-10
0.001059
-2.17389e-07
1.1871e-06
2.1685e-07
8.24985e-07
-1.9088e-07
-8.25159e-07
1.89955e-07
-1.19124e-06
-4.31176e-10
9.25007e-10
0.00105943
-2.14766e-07
1.1924e-06
2.14213e-07
8.25197e-07
-1.8826e-07
-8.25364e-07
1.87337e-07
0.001059
-3.57679e-10
-0.001059
9.26066e-10
-1.18595e-06
2.16843e-07
-2.17396e-07
-8.25182e-07
1.89921e-07
-1.90906e-07
8.24958e-07
1.1924e-06
0.00105943
-3.01481e-10
-0.00105943
9.57128e-10
-1.19126e-06
2.14197e-07
-2.14783e-07
-8.25409e-07
1.87293e-07
-1.88315e-07
8.25166e-07
-2.02566e-07
-2.04835e-07
0.000258738
-1.15429e-06
0.000260675
-0.000258738
2.03658e-07
2.05993e-07
9.16449e-10
0.00106002
-2.14847e-07
1.15435e-06
2.14302e-07
8.2511e-07
-1.90939e-07
-8.25226e-07
1.90042e-07
-1.186e-06
-4.60598e-10
8.97864e-10
0.00105911
-2.17421e-07
1.18716e-06
2.16876e-07
8.25029e-07
-1.90893e-07
-8.25182e-07
1.89989e-07
0.00106002
-5.00076e-10
-0.00106002
9.71466e-10
-1.15323e-06
2.14283e-07
-2.14868e-07
-8.25226e-07
1.90049e-07
-1.90931e-07
8.25116e-07
1.18716e-06
0.00105911
-4.48945e-10
-0.00105911
8.6874e-10
-1.186e-06
2.16883e-07
-2.17412e-07
-8.25191e-07
1.89986e-07
-1.90892e-07
8.25024e-07
-4.5468e-10
8.952e-10
0.00105891
-2.11998e-07
1.18189e-06
2.11458e-07
8.22395e-07
-1.88187e-07
1.87285e-07
-8.22554e-07
-4.88297e-10
-0.00105977
1.00566e-09
-1.15321e-06
2.0884e-07
-2.09462e-07
-8.2257e-07
1.87365e-07
8.22446e-07
-1.88243e-07
1.1819e-06
0.00105891
-4.43003e-10
-0.00105891
8.76378e-10
-1.18074e-06
2.11462e-07
-2.11992e-07
-8.22562e-07
1.8728e-07
-1.88188e-07
8.22392e-07
-2.00048e-07
-2.07296e-07
0.000258702
-1.14904e-06
0.000260629
-0.000258702
2.01196e-07
2.08456e-07
-5.15089e-10
8.94374e-10
0.00105994
-2.09474e-07
1.14915e-06
2.0894e-07
8.19926e-07
-1.8826e-07
1.87378e-07
-8.20046e-07
-5.40424e-10
-0.00105943
8.88813e-10
-1.14789e-06
2.08892e-07
-2.09412e-07
-8.22397e-07
1.89969e-07
8.22321e-07
-1.9086e-07
1.14915e-06
0.00105994
-5.201e-10
-0.00105994
8.90406e-10
-1.148e-06
2.08941e-07
-2.09472e-07
-8.20051e-07
1.87375e-07
-1.88258e-07
8.19924e-07
-0.000258715
2.03495e-07
2.08654e-07
1.18596e-06
1.15326e-06
-2.02451e-07
-2.07528e-07
0.00025872
-1.18711e-06
-1.15173e-06
0.000260647
-0.00025872
2.03498e-07
2.0866e-07
9.41167e-10
0.001059
-2.17404e-07
1.1871e-06
2.16836e-07
8.24934e-07
-1.90953e-07
-8.25212e-07
1.8988e-07
-1.19127e-06
-2.29979e-10
9.77809e-10
0.00105943
-2.1481e-07
1.19239e-06
2.14175e-07
8.25144e-07
-1.88343e-07
-8.25426e-07
1.8727e-07
0.001059
-3.93639e-10
-0.001059
9.75468e-10
-1.18595e-06
2.16843e-07
-2.17387e-07
-8.25152e-07
1.87279e-07
-1.90878e-07
8.22358e-07
1.19244e-06
0.00105943
-3.92744e-10
-0.00105943
8.69934e-10
-1.19126e-06
2.16943e-07
-2.17425e-07
-8.28011e-07
1.90037e-07
-1.90956e-07
8.27811e-07
-2.02645e-07
-2.04845e-07
0.000258738
-1.15432e-06
0.000260678
-0.00025874
2.03712e-07
2.06017e-07
1.00204e-09
0.00106002
-2.14884e-07
1.15431e-06
2.14263e-07
8.25119e-07
-1.90937e-07
-8.25223e-07
1.90048e-07
-1.186e-06
-4.49271e-10
8.72246e-10
0.00105911
-2.17418e-07
1.18716e-06
2.16879e-07
8.25027e-07
-1.90896e-07
-8.25185e-07
1.89986e-07
0.00106003
-4.52292e-10
-0.00106002
9.78999e-10
-1.15322e-06
2.11601e-07
-2.1486e-07
-8.25221e-07
1.90049e-07
-1.90923e-07
8.25115e-07
1.18716e-06
0.00105911
-4.3786e-10
-0.00105911
8.66101e-10
-1.186e-06
2.16882e-07
-2.1741e-07
-8.25191e-07
1.89983e-07
-1.90892e-07
8.25022e-07
-4.49326e-10
8.6699e-10
0.00105891
-2.11996e-07
1.1819e-06
2.11462e-07
8.22395e-07
-1.8819e-07
1.87283e-07
-8.22557e-07
-5.3174e-10
-0.00105977
9.1024e-10
-1.1532e-06
2.08904e-07
-2.09434e-07
-8.2256e-07
1.87377e-07
8.22445e-07
-1.88223e-07
1.1819e-06
0.00105891
-4.69277e-10
-0.00105891
8.95374e-10
-1.18074e-06
2.11465e-07
-2.11988e-07
-8.22559e-07
1.87279e-07
-1.88188e-07
8.22393e-07
-2.00051e-07
-2.07294e-07
0.000258702
-1.14904e-06
0.000260629
-0.000258702
2.01196e-07
2.08456e-07
-5.12531e-10
8.89035e-10
0.00105994
-2.09477e-07
1.14915e-06
2.08939e-07
8.19925e-07
-1.88262e-07
1.87377e-07
-8.20048e-07
-5.59112e-10
-0.00105943
8.9391e-10
-1.14789e-06
2.08891e-07
-2.09412e-07
-8.22392e-07
1.89971e-07
8.22323e-07
-1.90855e-07
1.14915e-06
0.00105994
-4.29927e-10
-0.00105994
8.62054e-10
-1.148e-06
2.08941e-07
-2.0947e-07
-8.2006e-07
1.87363e-07
-1.88268e-07
8.19912e-07
-0.000258715
2.03497e-07
2.08655e-07
1.18596e-06
1.15062e-06
-2.02424e-07
-2.07504e-07
0.00025872
-1.18971e-06
-1.15175e-06
0.000260652
-0.00025872
2.01007e-07
2.0866e-07
1.00626e-09
0.001059
-2.14733e-07
1.1871e-06
2.14134e-07
8.22347e-07
-1.88227e-07
-8.22544e-07
1.87244e-07
-1.19123e-06
-4.82947e-10
7.77429e-10
0.00105943
-2.17368e-07
1.19245e-06
2.16962e-07
8.27835e-07
-1.90874e-07
-8.27959e-07
1.90065e-07
0.001059
-3.14811e-10
-0.001059
9.5095e-10
-1.18595e-06
2.16854e-07
-2.17371e-07
-8.22556e-07
1.84618e-07
-1.88224e-07
8.22342e-07
1.19242e-06
0.00105944
-3.78619e-10
-0.00105944
8.95216e-10
-1.19127e-06
2.16883e-07
-2.17457e-07
-8.30672e-07
1.90034e-07
-1.90951e-07
8.3046e-07
-2.02513e-07
-2.04803e-07
0.00025874
-1.15433e-06
0.000260675
-0.00025874
2.03765e-07
2.08477e-07
9.63633e-10
0.00106003
-2.12191e-07
1.15171e-06
2.11573e-07
8.25112e-07
-1.90934e-07
-8.25222e-07
1.90043e-07
-1.186e-06
-4.40981e-10
8.83178e-10
0.00105911
-2.17418e-07
1.18716e-06
2.16877e-07
8.25026e-07
-1.90896e-07
-8.25184e-07
1.89985e-07
0.00106004
-1.12436e-08
-0.00106003
9.23131e-10
-1.15059e-06
2.11653e-07
-2.12128e-07
-8.25216e-07
1.9006e-07
-1.90918e-07
8.25122e-07
1.18716e-06
0.00105911
-4.28898e-10
-0.00105911
8.83352e-10
-1.186e-06
2.16877e-07
-2.17415e-07
-8.25191e-07
1.89982e-07
-1.90894e-07
8.25021e-07
-4.83993e-10
9.11323e-10
0.00105891
-2.11992e-07
1.1819e-06
2.11462e-07
8.22395e-07
-1.88188e-07
1.87282e-07
-8.22552e-07
-5.117e-10
-0.00105977
9.11495e-10
-1.15318e-06
2.11555e-07
-2.12121e-07
-8.22579e-07
1.87375e-07
8.22435e-07
-1.88279e-07
1.18189e-06
0.00105891
-4.69461e-10
-0.00105891
9.16861e-10
-1.18074e-06
2.11457e-07
-2.11996e-07
-8.22556e-07
1.87283e-07
-1.88183e-07
8.22395e-07
-2.00049e-07
-2.07292e-07
0.000258702
-1.14904e-06
0.000260629
-0.000258702
2.01194e-07
2.08451e-07
-4.21544e-10
8.64217e-10
0.00105994
-2.09473e-07
1.14915e-06
2.08941e-07
8.19912e-07
-1.88271e-07
1.87364e-07
-8.20057e-07
-5.1742e-10
-0.00105943
8.96143e-10
-1.14789e-06
2.08888e-07
-2.09414e-07
-8.22398e-07
1.89964e-07
8.22316e-07
-1.90861e-07
1.14915e-06
0.00105994
-4.7535e-10
-0.00105994
8.75062e-10
-1.148e-06
2.08943e-07
-2.09469e-07
-8.20056e-07
1.87368e-07
-1.88264e-07
8.19917e-07
-0.000258715
2.03497e-07
2.0865e-07
1.18856e-06
1.15062e-06
-1.99912e-07
-2.07462e-07
0.00025872
-1.1897e-06
-1.15175e-06
0.000260649
-0.00025872
2.01051e-07
2.11128e-07
9.92153e-10
0.001059
-2.17381e-07
1.18969e-06
2.16813e-07
8.22319e-07
-1.85568e-07
-8.22586e-07
1.84592e-07
-1.19126e-06
-5.33258e-10
8.64101e-10
0.00105944
-2.17438e-07
1.19243e-06
2.16881e-07
8.30509e-07
-1.90891e-07
-8.30621e-07
1.90074e-07
0.001059
-4.43935e-10
-0.001059
9.35685e-10
-1.18854e-06
2.16828e-07
-2.17369e-07
-8.25134e-07
1.84633e-07
-1.85556e-07
8.24963e-07
1.19242e-06
0.00105944
-4.40934e-10
-0.00105944
9.08725e-10
-1.19126e-06
2.16891e-07
-2.17437e-07
-8.30641e-07
1.90026e-07
-1.90926e-07
8.30474e-07
-2.02538e-07
-2.04843e-07
0.000258738
-1.15432e-06
0.000260672
-0.000258738
2.03719e-07
2.08486e-07
9.48772e-10
0.00106004
-2.12161e-07
1.15173e-06
2.11611e-07
8.25105e-07
-1.90936e-07
-8.25224e-07
1.90038e-07
-1.186e-06
-4.4221e-10
8.89411e-10
0.00105911
-2.17422e-07
1.18716e-06
2.16875e-07
8.25026e-07
-1.90896e-07
-8.25184e-07
1.89984e-07
0.00106004
-4.71804e-10
-0.00106004
9.00068e-10
-1.15061e-06
2.11624e-07
-2.12159e-07
-8.25236e-07
1.90037e-07
-1.90937e-07
8.25098e-07
1.18715e-06
0.00105911
-4.42763e-10
-0.00105911
9.14556e-10
-1.18601e-06
2.16873e-07
-2.17419e-07
-8.2519e-07
1.89983e-07
-1.90893e-07
8.25023e-07
-4.64348e-10
9.12761e-10
0.00105891
-2.12001e-07
1.18189e-06
2.11453e-07
8.22395e-07
-1.88186e-07
1.87284e-07
-8.22552e-07
-4.85887e-10
-0.00105977
8.98841e-10
-1.15316e-06
2.11592e-07
-2.12131e-07
-8.22576e-07
1.87377e-07
8.22432e-07
-1.88271e-07
1.18189e-06
0.00105891
-4.51988e-10
-0.00105891
9.25815e-10
-1.18075e-06
2.11453e-07
-2.11999e-07
-8.22559e-07
1.8728e-07
-1.88186e-07
8.22392e-07
-2.00051e-07
-2.07297e-07
0.000258702
-1.14904e-06
0.000260629
-0.000258702
2.01194e-07
2.08448e-07
-4.79604e-10
8.82518e-10
0.00105994
-2.09474e-07
1.14915e-06
2.08939e-07
8.19917e-07
-1.88266e-07
1.87369e-07
-8.20052e-07
-4.98463e-10
-0.00105943
8.93697e-10
-1.14789e-06
2.08888e-07
-2.09415e-07
-8.22402e-07
1.89961e-07
8.22313e-07
-1.90865e-07
1.14914e-06
0.00105994
-4.72734e-10
-0.00105994
8.89942e-10
-1.148e-06
2.08939e-07
-2.09472e-07
-8.20057e-07
1.87367e-07
-1.88265e-07
8.19916e-07
-0.000258715
2.03494e-07
2.08646e-07
1.18855e-06
1.15061e-06
-1.99914e-07
-2.09973e-07
0.00025872
-1.18969e-06
-1.15175e-06
0.000260649
-0.00025872
2.01055e-07
2.11126e-07
9.3156e-10
0.001059
-2.17378e-07
1.18969e-06
2.16824e-07
8.2497e-07
-1.85558e-07
-8.25126e-07
1.84638e-07
-1.19127e-06
-4.53608e-10
9.17729e-10
0.00105944
-2.17443e-07
1.19242e-06
2.1689e-07
8.30475e-07
-1.90935e-07
-8.30638e-07
1.90023e-07
0.001059
-4.48821e-10
-0.001059
9.34358e-10
-1.18855e-06
2.16824e-07
-2.17377e-07
-8.25131e-07
1.84638e-07
-1.85553e-07
8.24969e-07
1.19242e-06
0.00105944
-4.45803e-10
-0.00105944
9.26885e-10
-1.19127e-06
2.1689e-07
-2.17439e-07
-8.30642e-07
1.90021e-07
-1.90935e-07
8.30473e-07
-2.02563e-07
-2.07329e-07
0.000258738
-1.15432e-06
0.000260672
-0.000258738
2.03716e-07
2.08485e-07
8.98691e-10
0.00106004
-2.12161e-07
1.15175e-06
2.11625e-07
8.25101e-07
-1.90942e-07
-8.25231e-07
1.90036e-07
-1.18601e-06
-4.47615e-10
9.22199e-10
0.00105911
-2.17426e-07
1.18715e-06
2.1687e-07
8.25026e-07
-1.90896e-07
-8.25183e-07
1.89984e-07
0.00106004
-4.86407e-10
-0.00106004
8.9038e-10
-1.1506e-06
2.11628e-07
-2.12155e-07
-8.25233e-07
1.90039e-07
-1.90936e-07
8.25101e-07
1.18715e-06
0.00105911