/*--------------------------------*- C++ -*----------------------------------*\
| =========                 |                                                 |
| \\      /  F ield         | OpenFOAM: The Open Source CFD Toolbox           |
|  \\    /   O peration     | Version:  2206                                  |
|   \\  /    A nd           | Website:  www.openfoam.com                      |
|    \\/     M anipulation  |                                                 |
\*---------------------------------------------------------------------------*/
FoamFile
{
    version     2.0;
    format      ascii;
    arch        "LSB;label=32;scalar=64";
    class       volVectorField;
    location    "4";
    object      U;
}
// * * * * * * * * * * * * * * * * * * * * * * * * * * * * * * * * * * * * * //

dimensions      [0 1 -1 0 0 0 0];

internalField   nonuniform List<vector> 
28381
(
(0.000336279 0.000337142 -7.91138e-05)
(0.000264768 0.000264101 -8.1336e-05)
(8.13343e-05 0.000125929 2.64525e-05)
(0.000125999 8.12548e-05 2.43914e-05)
(0.000126925 -8.14011e-05 2.7051e-05)
(0.000264956 -0.000264081 -8.06972e-05)
(8.17286e-05 -0.000126078 2.44172e-05)
(-0.000125635 -8.10446e-05 2.67747e-05)
(-8.09278e-05 -0.000125799 2.44691e-05)
(-0.000158145 -0.00015875 8.50176e-05)
(-0.00015832 0.00015835 8.48977e-05)
(0.000158597 0.000158097 8.39612e-05)
(-0.000309469 -2.2042e-06 1.13063e-05)
(-2.22763e-06 -0.000309873 1.1417e-05)
(3.17189e-05 0.000108832 1.76066e-05)
(0.000108388 3.23912e-05 1.73556e-05)
(3.97678e-05 -0.000107593 1.19258e-05)
(-0.000108185 4.03714e-05 1.1783e-05)
(-6.73992e-05 0.000632073 1.86098e-05)
(-5.3084e-06 0.000176055 4.84429e-06)
(5.31757e-06 0.000175777 4.88854e-06)
(9.67894e-05 -7.12326e-05 4.1665e-06)
(-3.24348e-05 8.12476e-05 4.62011e-05)
(2.06095e-05 -7.75048e-05 -1.3419e-05)
(3.25401e-05 8.03357e-05 4.7189e-05)
(-2.07507e-05 -7.78368e-05 -1.34261e-05)
(0.000632306 -6.70468e-05 1.84644e-05)
(0.000176189 -4.6254e-06 4.47742e-06)
(-7.15086e-05 9.73497e-05 4.08863e-06)
(8.20773e-05 -3.25324e-05 4.63481e-05)
(-7.72388e-05 2.16858e-05 -1.33018e-05)
(0.000631841 6.72802e-05 1.84178e-05)
(0.000175952 5.76878e-06 4.6117e-06)
(8.22963e-05 3.24018e-05 4.64125e-05)
(-7.13877e-05 -9.65863e-05 4.14355e-06)
(-7.7281e-05 -2.00337e-05 -1.31554e-05)
(0.000108437 -3.21401e-05 1.71967e-05)
(-0.000108193 -3.98213e-05 1.18733e-05)
(3.96829e-05 0.00010774 1.19614e-05)
(3.17023e-05 -0.000108836 1.69652e-05)
(-3.22748e-05 -8.17644e-05 4.65217e-05)
(9.69259e-05 7.14893e-05 4.24776e-06)
(2.08333e-05 7.71265e-05 -1.24257e-05)
(-6.77886e-05 -0.000632206 1.79098e-05)
(-5.45443e-06 -0.000176222 5.2143e-06)
(-0.000136921 0.00014066 4.31545e-06)
(0.000658948 7.87156e-05 1.58517e-05)
(0.000140154 -0.000136515 4.11694e-06)
(7.91533e-05 0.000659627 1.58688e-05)
(8.99089e-05 0.000141044 1.52117e-05)
(0.000141821 8.98217e-05 1.51856e-05)
(-0.000209171 0.000101288 5.71111e-06)
(2.75511e-05 -0.000110993 -2.98293e-06)
(2.92434e-05 -8.21834e-05 1.63382e-05)
(0.000107938 -3.96973e-05 1.24449e-05)
(0.000429739 -0.000204662 4.13178e-06)
(-0.00019179 -1.27475e-05 -2.46352e-06)
(-3.12938e-06 4.67499e-06 1.80744e-05)
(0.000101097 -0.000208555 5.60247e-06)
(-0.000111642 2.80418e-05 -3.30705e-06)
(-8.1716e-05 2.9832e-05 1.64072e-05)
(-4.00807e-05 0.000108471 1.24649e-05)
(-0.000204715 0.000429594 4.06752e-06)
(-1.35094e-05 -0.000190965 -2.74941e-06)
(5.02593e-06 -3.66637e-06 1.80083e-05)
(1.78994e-05 1.81453e-05 1.38827e-05)
(-0.000248349 0.000440582 1.64942e-05)
(0.00044126 -0.000248895 1.64091e-05)
(2.65786e-06 2.13872e-06 1.26429e-05)
(0.000167174 -0.000291075 1.70995e-05)
(-0.000290961 0.000166758 1.69672e-05)
(-0.000141119 -8.99402e-05 1.74996e-05)
(-8.98077e-05 -0.000141743 1.71392e-05)
(0.000205286 -0.000429404 2.99749e-06)
(1.27495e-05 0.000191582 -4.35318e-06)
(2.09804e-06 0.000309361 1.12964e-05)
(-5.29595e-06 3.9921e-06 1.91043e-05)
(8.16613e-05 -2.98874e-05 1.78028e-05)
(0.000111691 -2.761e-05 -4.46836e-06)
(-0.000101411 0.000209239 4.21398e-06)
(-0.000429197 0.000205358 2.98299e-06)
(0.000190879 1.33523e-05 -4.5213e-06)
(0.000310024 2.38865e-06 1.12303e-05)
(4.15604e-06 -5.07988e-06 1.89005e-05)
(-3.04915e-05 8.14207e-05 1.78568e-05)
(-2.77937e-05 0.00011236 -4.68119e-06)
(0.000208525 -0.000101225 4.1628e-06)
(-1.93337e-06 -2.29748e-06 1.2475e-05)
(0.000290144 -0.0001662 1.82748e-05)
(-0.000166234 0.000290489 1.8129e-05)
(-0.000440644 0.000248281 1.81829e-05)
(0.000248624 -0.000441071 1.82758e-05)
(-1.76888e-05 -1.72378e-05 1.30055e-05)
(-1.71976e-05 8.74427e-05 1.64179e-05)
(-7.9027e-05 -0.000659747 1.76621e-05)
(-6.7871e-05 0.00021507 1.15512e-05)
(-7.33365e-05 -4.5379e-05 1.68468e-05)
(9.50682e-06 -0.000259356 1.07279e-05)
(1.67286e-06 0.000133393 1.96785e-05)
(8.52124e-07 -0.000236765 3.7974e-06)
(-4.80891e-06 -0.000133212 1.98711e-05)
(-8.03906e-05 0.000156194 5.90064e-06)
(-5.38169e-05 -0.000122626 2.04831e-05)
(-1.07243e-06 0.000144872 1.90678e-05)
(4.79055e-05 -0.000222608 4.6914e-06)
(1.84136e-05 8.72181e-05 1.55444e-05)
(6.76764e-05 0.000214669 1.09654e-05)
(-9.06435e-06 -0.000259233 1.01472e-05)
(7.30978e-05 -4.57499e-05 1.76681e-05)
(-1.80964e-06 0.000133164 1.96303e-05)
(-8.18179e-07 -0.000236671 3.63278e-06)
(4.29535e-06 -0.000133173 1.98367e-05)
(8.0354e-05 0.000155637 5.55137e-06)
(1.35383e-06 0.00014513 1.88241e-05)
(-4.75069e-05 -0.000222424 4.27287e-06)
(5.31822e-05 -0.000122434 1.99597e-05)
(8.76104e-05 -1.77864e-05 1.70788e-05)
(-0.00065974 -7.94338e-05 1.77065e-05)
(0.000215239 -6.73124e-05 1.0966e-05)
(-4.50026e-05 -7.35391e-05 1.72209e-05)
(-0.000258807 9.79331e-06 1.02737e-05)
(0.000133177 7.09102e-07 2.0053e-05)
(-0.000236772 1.615e-06 3.72442e-06)
(0.000156533 -7.95974e-05 5.42154e-06)
(-0.000133256 -5.52054e-06 2.05044e-05)
(-0.000122412 -5.45034e-05 2.08218e-05)
(-0.000222284 4.84663e-05 4.44085e-06)
(0.000144504 -1.94503e-06 1.92954e-05)
(8.72879e-05 1.70419e-05 1.60568e-05)
(-0.000659921 7.94168e-05 1.71677e-05)
(0.000214595 6.79247e-05 1.14127e-05)
(-0.000259602 -9.4594e-06 1.06515e-05)
(-4.57278e-05 7.25612e-05 1.69838e-05)
(0.000132741 -2.23324e-06 1.94841e-05)
(-0.000236944 -2.84611e-07 3.91967e-06)
(-0.000133553 3.52254e-06 2.05112e-05)
(0.000155794 8.07741e-05 5.61931e-06)
(0.000144289 1.73275e-07 1.92188e-05)
(-0.000222787 -4.7394e-05 4.87814e-06)
(-0.000122907 5.29553e-05 2.07798e-05)
(-8.99212e-05 0.000141698 1.66819e-05)
(-0.000428916 -0.000205155 3.04428e-06)
(0.000191521 -1.29885e-05 -4.35934e-06)
(0.00031002 -1.98604e-06 1.1303e-05)
(4.44731e-06 5.25827e-06 1.86667e-05)
(-2.73052e-05 -0.000111895 -4.50454e-06)
(-3.06277e-05 -8.13866e-05 1.76376e-05)
(0.000209073 0.000101593 4.20724e-06)
(0.000205403 0.000429362 3.33402e-06)
(1.30859e-05 -0.000191237 -3.80667e-06)
(2.27091e-06 -0.000309479 1.12003e-05)
(-5.48944e-06 -3.73736e-06 1.83066e-05)
(8.14291e-05 2.95158e-05 1.67372e-05)
(0.000111937 2.7569e-05 -4.0048e-06)
(-0.000100974 -0.000209006 4.59932e-06)
(-1.80017e-06 2.2527e-06 1.22448e-05)
(-0.000166255 -0.000290439 1.80621e-05)
(0.000290165 0.000166167 1.78411e-05)
(0.000248704 0.000441413 1.79235e-05)
(-0.000440691 -0.000248442 1.72982e-05)
(-1.75292e-05 1.7487e-05 1.2963e-05)
(-0.000141695 8.96721e-05 1.64824e-05)
(-1.72151e-05 -8.75923e-05 1.67524e-05)
(-7.90817e-05 0.000659486 1.70051e-05)
(-6.80204e-05 -0.00021513 1.13729e-05)
(9.41168e-06 0.000259181 1.04379e-05)
(-7.32764e-05 4.51822e-05 1.64225e-05)
(1.45205e-06 -0.000133795 1.93636e-05)
(1.02571e-06 0.000236462 4.18872e-06)
(-8.0678e-05 -0.000156438 6.01421e-06)
(-4.86085e-06 0.000133467 1.89717e-05)
(4.78693e-05 0.000222448 4.89569e-06)
(-8.49066e-07 -0.000145362 1.85785e-05)
(-5.40394e-05 0.000122687 1.96971e-05)
(-0.000631689 6.74066e-05 1.72889e-05)
(7.26897e-05 4.57007e-05 1.64246e-05)
(-9.73307e-06 0.000259432 1.0511e-05)
(6.70916e-05 -0.000631582 1.75339e-05)
(1.74471e-05 -8.75574e-05 1.5272e-05)
(6.77526e-05 -0.00021462 1.16099e-05)
(-0.00010792 -3.2504e-05 1.60159e-05)
(-3.2922e-05 -0.000107724 1.62456e-05)
(-8.31109e-05 -8.25346e-05 -9.70737e-06)
(-7.4726e-05 0.000304653 -3.06479e-05)
(0.000303618 -7.35726e-05 -3.09497e-05)
(-0.000263544 -0.000264017 -7.89402e-05)
(0.000224738 0.000225362 -1.24916e-05)
(1.50438e-05 -0.000113438 -2.81794e-05)
(-0.000113868 1.57865e-05 -2.84055e-05)
(-0.000224831 -0.000224264 -1.39513e-05)
(-0.000337512 -0.000336711 -8.07803e-05)
(0.000114215 -1.45016e-05 -3.02415e-05)
(-1.51793e-05 0.000114431 -3.07043e-05)
(-0.00030489 7.44708e-05 -3.22246e-05)
(7.34608e-05 -0.000303906 -3.27165e-05)
(8.25299e-05 8.29943e-05 -1.15522e-05)
(-0.000224418 0.000224402 -1.375e-05)
(-0.000336479 0.000336641 -8.00578e-05)
(-1.46485e-05 -0.000114192 -3.00227e-05)
(0.000114508 1.48936e-05 -3.00685e-05)
(7.42716e-05 0.00030377 -3.18748e-05)
(-0.000304249 -7.44096e-05 -3.21455e-05)
(8.29635e-05 -8.29553e-05 -1.13311e-05)
(0.000141073 -6.70785e-05 2.73126e-05)
(-6.68952e-05 0.000140515 2.7415e-05)
(6.78301e-05 6.78215e-05 1.96425e-05)
(-6.668e-05 -0.000141023 2.74281e-05)
(0.000141032 6.66789e-05 2.70186e-05)
(6.83913e-05 -6.80359e-05 1.94913e-05)
(0.000111299 -0.00035519 -2.97889e-05)
(1.14415e-05 0.000344441 -7.06817e-06)
(-0.000140312 0.000136831 3.56346e-06)
(0.000154472 -0.000103701 -9.06628e-06)
(0.000211731 -0.000295388 -4.90356e-06)
(-0.00021933 6.51838e-05 -9.76247e-06)
(-1.05913e-05 0.000299714 -3.23907e-05)
(7.70313e-05 -0.000361629 -3.52162e-05)
(-2.76469e-05 5.56566e-05 -1.36707e-05)
(3.72388e-05 -8.18768e-05 -1.42436e-05)
(-9.1976e-07 0.000216201 -3.35336e-05)
(-8.03746e-05 3.94896e-05 -1.48053e-05)
(1.5282e-05 -0.000334442 -3.01896e-05)
(-2.49279e-05 0.000243344 -3.81885e-05)
(-0.000111272 -0.000354677 -3.00494e-05)
(-0.000153827 -0.000103652 -9.70051e-06)
(0.00022028 6.5681e-05 -1.04865e-05)
(1.07953e-05 0.000299245 -3.25781e-05)
(-7.66845e-05 -0.000361699 -3.54611e-05)
(2.78785e-05 5.55694e-05 -1.3929e-05)
(-3.69917e-05 -8.23926e-05 -1.45666e-05)
(7.26111e-07 0.000215133 -3.32055e-05)
(8.09751e-05 3.93779e-05 -1.54602e-05)
(-1.51361e-05 -0.000334502 -3.01293e-05)
(2.46637e-05 0.000241803 -3.80965e-05)
(-0.00035495 0.000111914 -3.0873e-05)
(0.000344226 1.19633e-05 -7.69635e-06)
(0.000136825 -0.000139657 3.42761e-06)
(-0.000103757 0.000155392 -9.54973e-06)
(-0.00029577 0.000212539 -5.56859e-06)
(6.56521e-05 -0.000218549 -1.02932e-05)
(0.000299863 -9.59718e-06 -3.34609e-05)
(-0.000360883 7.76022e-05 -3.49925e-05)
(5.58436e-05 -2.67741e-05 -1.34157e-05)
(-8.16209e-05 3.84864e-05 -1.42625e-05)
(0.000217242 -9.05814e-08 -3.34891e-05)
(3.98079e-05 -7.94874e-05 -1.47675e-05)
(-0.00033332 1.60187e-05 -3.00096e-05)
(0.000243708 -2.39416e-05 -3.80952e-05)
(-0.000354311 -0.000111457 -2.97381e-05)
(0.000344803 -1.11409e-05 -7.13375e-06)
(0.000136712 0.000140336 3.7053e-06)
(-0.000103862 -0.000154179 -9.21425e-06)
(6.52472e-05 0.000219575 -9.86704e-06)
(-0.00029487 -0.000211913 -4.8988e-06)
(0.000300141 1.09343e-05 -3.24393e-05)
(-0.000360564 -7.68383e-05 -3.51557e-05)
(5.58126e-05 2.83228e-05 -1.33088e-05)
(0.000217172 1.64238e-06 -3.33224e-05)
(-8.19022e-05 -3.68115e-05 -1.43379e-05)
(-0.000333308 -1.49487e-05 -2.99342e-05)
(3.96499e-05 8.08737e-05 -1.48042e-05)
(0.000243902 2.54364e-05 -3.82725e-05)
(0.000111635 0.000354558 -3.0173e-05)
(1.17051e-05 -0.000344276 -7.12212e-06)
(-0.000140057 -0.000137006 3.60088e-06)
(0.00015481 0.000103776 -8.86581e-06)
(-1.00621e-05 -0.000299553 -3.23945e-05)
(0.000212308 0.000294959 -5.12115e-06)
(-0.000219302 -6.54479e-05 -9.70352e-06)
(7.72185e-05 0.000360887 -3.43938e-05)
(-2.74304e-05 -5.57256e-05 -1.26553e-05)
(-7.21893e-07 -0.000216322 -3.24224e-05)
(3.74988e-05 8.16181e-05 -1.3453e-05)
(-2.47084e-05 -0.000243112 -3.7123e-05)
(1.5523e-05 0.000333448 -2.92792e-05)
(-8.04042e-05 -3.95918e-05 -1.39926e-05)
(0.000295075 -0.000211739 -3.73598e-06)
(7.11169e-05 -9.69222e-05 5.32871e-06)
(-0.000344278 -1.07763e-05 -5.3938e-06)
(1.02516e-05 -0.000299077 -3.16094e-05)
(-0.000212296 0.00029544 -4.27694e-06)
(0.000219228 -6.50442e-05 -9.37482e-06)
(-9.72911e-05 7.15196e-05 4.92522e-06)
(-1.13587e-05 -0.000344003 -5.94379e-06)
(-0.000111771 0.000354579 -2.94772e-05)
(-0.00015526 0.000103838 -8.41228e-06)
(8.12007e-05 -0.000125772 2.30993e-05)
(0.000336129 0.00033666 -7.99458e-05)
(-0.000158208 -0.000158131 8.22256e-05)
(-0.000126455 8.18989e-05 2.26807e-05)
(8.16725e-05 -0.000126558 2.26408e-05)
(0.000335967 0.000336161 -7.95523e-05)
(-0.000157862 -0.000158171 8.1591e-05)
(-0.000126631 8.1882e-05 2.24808e-05)
(8.21708e-05 -0.000127248 2.26006e-05)
(0.000335399 0.000336078 -7.94236e-05)
(-0.00015781 -0.000158354 8.33669e-05)
(-0.000126258 8.19338e-05 2.29601e-05)
(8.2002e-05 -0.000126398 2.30632e-05)
(0.000336064 0.000336722 -7.89146e-05)
(-0.000158106 -0.000158336 8.37895e-05)
(-0.00012697 8.21518e-05 2.32445e-05)
(8.21552e-05 -0.00012704 2.33213e-05)
(0.00033546 0.000335988 -7.93038e-05)
(-0.00015824 -0.000158274 8.40076e-05)
(-0.00012632 8.17591e-05 2.36855e-05)
(8.16201e-05 -0.000126255 2.37437e-05)
(0.000336109 0.0003366 -7.97499e-05)
(-0.000158104 -0.000158005 8.2811e-05)
(-0.000126315 8.18797e-05 2.29587e-05)
(8.15669e-05 -0.000126075 2.31459e-05)
(0.000336048 0.000336556 -7.91569e-05)
(-0.000158207 -0.000158339 8.32975e-05)
(-0.000126833 8.22091e-05 2.30662e-05)
(8.20251e-05 -0.000126837 2.30694e-05)
(0.000335486 0.000336076 -7.93161e-05)
(-0.000158045 -0.000158554 8.33234e-05)
(-0.000126228 8.18248e-05 2.31164e-05)
(8.19509e-05 -0.000126398 2.31205e-05)
(0.000336161 0.000336806 -7.913e-05)
(-0.000157964 -0.000158228 8.20568e-05)
(-0.000126365 8.1769e-05 2.26779e-05)
(8.18285e-05 -0.000126557 2.27318e-05)
(0.000335599 0.000336184 -7.91881e-05)
(-0.000158077 -0.000158131 8.29045e-05)
(-0.000126358 8.1915e-05 2.27996e-05)
(8.18732e-05 -0.000126539 2.28281e-05)
(0.00033554 0.000336118 -7.90399e-05)
(-0.00015824 -0.000158168 8.35424e-05)
(-0.000126911 8.24257e-05 2.31632e-05)
(8.22074e-05 -0.000126765 2.32238e-05)
(0.000335866 0.000336378 -7.95843e-05)
(-0.000158147 -0.000158278 8.32609e-05)
(-0.000126617 8.18523e-05 2.33676e-05)
(8.17254e-05 -0.000126704 2.34172e-05)
(0.000335581 0.000336137 -7.95172e-05)
(-0.000157996 -0.000158311 8.41677e-05)
(-0.000126369 8.18042e-05 2.35805e-05)
(8.18766e-05 -0.000126547 2.35986e-05)
(0.00033606 0.000336749 -7.94693e-05)
(-0.000158053 -0.000158403 8.35743e-05)
(-0.000125998 8.16109e-05 2.3367e-05)
(8.22039e-05 -0.000126962 2.32686e-05)
(0.000336185 0.000336934 -7.89948e-05)
(-0.000158144 -0.000158324 8.29044e-05)
(-0.000126461 8.16618e-05 2.31045e-05)
(8.15123e-05 -0.000126286 2.32806e-05)
(0.000335576 0.000336149 -7.92424e-05)
(-0.000158302 -0.000158026 8.32537e-05)
(-0.000127091 8.2318e-05 2.24577e-05)
(8.18517e-05 -0.000126667 2.25873e-05)
(0.000335908 0.000336414 -7.93013e-05)
(-0.000336526 0.000336841 -7.97191e-05)
(0.000264586 -0.000264071 -7.86162e-05)
(-8.18314e-05 -0.000126407 2.4055e-05)
(8.17202e-05 -0.000126439 2.24812e-05)
(-8.14202e-05 -0.000126515 2.46832e-05)
(-0.00026383 -0.000264736 -7.92406e-05)
(-0.000336145 -0.000335488 -7.9361e-05)
(0.00026448 0.000263878 -7.79276e-05)
(8.18334e-05 0.000126708 2.49371e-05)
(-8.16008e-05 0.000126753 2.50738e-05)
(8.18091e-05 0.000126699 2.48967e-05)
(-8.18231e-05 0.000126629 2.49499e-05)
(0.000336182 -0.000335998 -7.99428e-05)
(-0.000264405 0.000264436 -7.9311e-05)
(0.000126283 8.17148e-05 2.2583e-05)
(0.000126752 -8.14994e-05 2.49442e-05)
(0.000126294 8.16627e-05 2.26595e-05)
(0.000127008 -8.21849e-05 2.49372e-05)
(-0.000126111 -8.16281e-05 2.38826e-05)
(-0.000126472 8.17736e-05 2.25315e-05)
(-0.000127119 -8.23368e-05 2.46946e-05)
(-0.000335771 0.000335866 -7.9191e-05)
(0.000264514 -0.000264461 -7.85243e-05)
(-8.16055e-05 -0.000126673 2.38959e-05)
(8.21619e-05 -0.000127269 2.25526e-05)
(-8.22217e-05 -0.000126953 2.23975e-05)
(-0.000264569 -0.000265131 -7.91705e-05)
(-0.000335934 -0.000335252 -7.88912e-05)
(0.000265388 0.000265028 -7.98149e-05)
(8.21353e-05 0.000127159 2.47962e-05)
(-8.19017e-05 0.000126799 2.49755e-05)
(8.29332e-05 0.000127769 2.50002e-05)
(-8.186e-05 0.000126906 2.52929e-05)
(0.000335823 -0.000336111 -7.97962e-05)
(-0.000264522 0.000264613 -7.99735e-05)
(0.000126799 8.20464e-05 2.25999e-05)
(0.000127308 -8.22539e-05 2.49674e-05)
(0.000128131 8.29894e-05 2.26987e-05)
(0.000127511 -8.21204e-05 2.53221e-05)
(-0.000126934 -8.21754e-05 2.48611e-05)
(-0.000126335 8.19236e-05 2.30012e-05)
(-0.000125867 -8.11541e-05 2.5453e-05)
(-0.000335661 0.000335389 -7.91725e-05)
(0.000264571 -0.000264771 -7.97082e-05)
(-8.20668e-05 -0.000126821 2.26665e-05)
(8.20532e-05 -0.000126558 2.30399e-05)
(-8.10175e-05 -0.000125674 2.32408e-05)
(-0.000263709 -0.000264256 -7.89666e-05)
(-0.000335946 -0.000335161 -8.03627e-05)
(0.000264754 0.000264189 -8.04594e-05)
(8.29528e-05 0.000127783 2.5154e-05)
(-8.17441e-05 0.000127036 2.52996e-05)
(8.1856e-05 0.000126537 2.59361e-05)
(-8.17479e-05 0.000126494 2.57798e-05)
(0.000335993 -0.000336233 -8.01763e-05)
(-0.000264039 0.000264462 -7.96657e-05)
(0.000128057 8.29863e-05 2.29326e-05)
(0.000127601 -8.19911e-05 2.54124e-05)
(0.000126642 8.17841e-05 2.36915e-05)
(0.000126827 -8.18068e-05 2.59523e-05)
(-0.000125965 -8.12446e-05 2.53823e-05)
(-0.000126773 8.20587e-05 2.33286e-05)
(-0.000126967 -8.20969e-05 2.54071e-05)
(-0.00033622 0.000335861 -7.97751e-05)
(0.000264571 -0.000264156 -7.95877e-05)
(-8.10981e-05 -0.000125731 2.32379e-05)
(8.20266e-05 -0.000126847 2.34081e-05)
(-8.1969e-05 -0.000127001 2.31859e-05)
(-0.000264028 -0.000264671 -7.84892e-05)
(-0.000336672 -0.000336004 -8.00732e-05)
(0.000264705 0.000264002 -8.0372e-05)
(8.17598e-05 0.000126481 2.58536e-05)
(-8.19238e-05 0.000126722 2.56872e-05)
(8.1826e-05 0.000126663 2.60279e-05)
(-8.20221e-05 0.00012694 2.5912e-05)
(0.000336019 -0.000335927 -8.00503e-05)
(-0.000264593 0.000264765 -8.09863e-05)
(0.000126502 8.16529e-05 2.36306e-05)
(0.000126873 -8.1952e-05 2.58377e-05)
(0.00012647 8.16586e-05 2.37765e-05)
(0.000126851 -8.18423e-05 2.60854e-05)
(-0.000127334 -8.24056e-05 2.54326e-05)
(-0.000126924 8.21639e-05 2.35673e-05)
(-0.000127099 -8.22973e-05 2.5901e-05)
(-0.000335997 0.000336061 -7.98482e-05)
(0.000264719 -0.000264504 -8.0658e-05)
(-8.22757e-05 -0.000127297 2.32798e-05)
(8.19354e-05 -0.000126685 2.36856e-05)
(-8.21136e-05 -0.000126777 2.37158e-05)
(-0.000264457 -0.000265195 -8.02584e-05)
(-0.000336773 -0.000336193 -8.02653e-05)
(0.000264501 0.000263667 -7.95166e-05)
(8.17058e-05 0.00012648 2.58757e-05)
(-8.16512e-05 0.000126783 2.59545e-05)
(8.16304e-05 0.000126318 2.55971e-05)
(-8.14149e-05 0.000126101 2.57035e-05)
(0.000336526 -0.000336443 -8.05667e-05)
(-0.000263925 0.000264285 -7.98183e-05)
(0.000126333 8.15546e-05 2.36679e-05)
(0.000126705 -8.15034e-05 2.61075e-05)
(0.000125979 8.14167e-05 2.34154e-05)
(0.000125969 -8.12416e-05 2.57726e-05)
(-0.000126769 -8.19425e-05 2.59408e-05)
(-0.000126035 8.16312e-05 2.32728e-05)
(-0.000126206 -8.16407e-05 2.55626e-05)
(-0.000336529 0.000336556 -8.01369e-05)
(0.000264346 -0.000264023 -7.95298e-05)
(-8.17622e-05 -0.000126459 2.37536e-05)
(8.14954e-05 -0.000125973 2.33743e-05)
(-8.14783e-05 -0.000126048 2.3375e-05)
(-0.000263799 -0.000264488 -7.93276e-05)
(-0.000336292 -0.000335853 -7.95707e-05)
(0.000264843 0.000264102 -8.00335e-05)
(8.18064e-05 0.000126703 2.53346e-05)
(-8.16564e-05 0.000126596 2.54717e-05)
(8.21651e-05 0.000127087 2.51866e-05)
(-8.19753e-05 0.000126865 2.56548e-05)
(0.000336067 -0.000336069 -7.99452e-05)
(-0.000264275 0.000264754 -7.98408e-05)
(0.000126334 8.16172e-05 2.31374e-05)
(0.000126343 -8.13371e-05 2.559e-05)
(0.000126474 8.19568e-05 2.29328e-05)
(0.000126615 -8.16769e-05 2.55481e-05)
(-0.000126122 -8.14658e-05 2.54995e-05)
(-0.000126825 8.22382e-05 2.30413e-05)
(-0.000127098 -8.21972e-05 2.51143e-05)
(-0.000336066 0.000336124 -7.94122e-05)
(0.000264552 -0.000264044 -7.91034e-05)
(-8.13158e-05 -0.000126049 2.32973e-05)
(8.19801e-05 -0.000126799 2.30577e-05)
(-8.20744e-05 -0.000126907 2.29444e-05)
(-0.000264351 -0.000264937 -7.88988e-05)
(-0.000336411 -0.000335825 -8.02624e-05)
(0.000264502 0.000263992 -7.96011e-05)
(8.19809e-05 0.000126849 2.53482e-05)
(-8.19708e-05 0.000126982 2.55975e-05)
(8.15844e-05 0.000126227 2.55402e-05)
(-8.17573e-05 0.000126838 2.57649e-05)
(0.000336011 -0.000335829 -8.01883e-05)
(-0.000264227 0.000264565 -8.00321e-05)
(0.000126534 8.18598e-05 2.29295e-05)
(0.000126837 -8.1771e-05 2.54842e-05)
(0.000126437 8.15598e-05 2.30822e-05)
(0.000127201 -8.19056e-05 2.55268e-05)
(-0.000127056 -8.20714e-05 2.54047e-05)
(-0.000126386 8.19861e-05 2.32708e-05)
(-0.00012603 -8.14018e-05 2.57014e-05)
(-0.000335755 0.000335896 -7.95459e-05)
(0.000264647 -0.000264406 -7.94521e-05)
(-8.19977e-05 -0.000126927 2.32019e-05)
(8.20525e-05 -0.000126507 2.31736e-05)
(-8.13304e-05 -0.000126172 2.34504e-05)
(-0.000263806 -0.000264318 -7.90572e-05)
(-0.000336644 -0.000335894 -7.97962e-05)
(0.000264209 0.000263574 -7.85915e-05)
(8.1596e-05 0.000126095 2.54835e-05)
(-8.16061e-05 0.000126672 2.57563e-05)
(8.12451e-05 0.000125796 2.52462e-05)
(-8.13987e-05 0.000126162 2.54251e-05)
(0.000336338 -0.000336193 -8.0073e-05)
(-0.000264008 0.000264353 -7.93609e-05)
(0.000126361 8.15512e-05 2.30624e-05)
(0.000127134 -8.18171e-05 2.55827e-05)
(0.000125829 8.11431e-05 2.28641e-05)
(0.000126622 -8.15983e-05 2.52969e-05)
(-0.000126122 -8.14136e-05 2.53963e-05)
(-0.000126189 8.1662e-05 2.2876e-05)
(-0.000126762 -8.18844e-05 2.49838e-05)
(-0.000335907 0.000335947 -7.96014e-05)
(0.000264436 -0.000264135 -7.90907e-05)
(-8.13115e-05 -0.000126239 2.31824e-05)
(8.17854e-05 -0.000126347 2.28799e-05)
(-8.17024e-05 -0.000126458 2.28101e-05)
(-0.000263838 -0.000264485 -7.83909e-05)
(-0.000336375 -0.000335725 -7.92478e-05)
(0.00026504 0.000264307 -7.94598e-05)
(8.16911e-05 0.00012632 2.49908e-05)
(-8.15582e-05 0.000126423 2.52429e-05)
(8.23135e-05 0.000127327 2.50742e-05)
(-8.16155e-05 0.000126676 2.542e-05)
(0.00033626 -0.000336143 -7.97259e-05)
(-0.000264175 0.000264591 -7.9477e-05)
(0.000126276 8.15752e-05 2.2586e-05)
(0.000126729 -8.16643e-05 2.52156e-05)
(0.000127065 8.21713e-05 2.26492e-05)
(0.000126861 -8.16884e-05 2.52846e-05)
(-0.000127056 -8.21481e-05 2.48258e-05)
(-0.000126277 8.18411e-05 2.28469e-05)
(-0.000126629 -8.1876e-05 2.50312e-05)
(-0.000335874 0.000335971 -7.93805e-05)
(0.000264645 -0.000264174 -7.93066e-05)
(-8.20036e-05 -0.000126847 2.26336e-05)
(8.18762e-05 -0.000126463 2.28503e-05)
(-8.17431e-05 -0.000126541 2.29102e-05)
(-0.000264108 -0.000264731 -7.85754e-05)
(-0.00033624 -0.000335678 -7.9911e-05)
(0.0002652 0.000264319 -7.99888e-05)
(8.2212e-05 0.000127037 2.5126e-05)
(-8.16545e-05 0.000126692 2.53927e-05)
(8.23665e-05 0.000127211 2.54109e-05)
(-8.22963e-05 0.00012722 2.56432e-05)
(0.000336203 -0.000336162 -7.98184e-05)
(-0.000264646 0.00026485 -7.99135e-05)
(0.000126833 8.20571e-05 2.2724e-05)
(0.000126693 -8.1606e-05 2.53277e-05)
(0.000126814 8.21293e-05 2.30261e-05)
(0.000127078 -8.20554e-05 2.55377e-05)
(-0.000127028 -8.21486e-05 2.50463e-05)
(-0.000127022 8.24375e-05 2.30921e-05)
(-0.000127251 -8.24749e-05 2.5318e-05)
(-0.000336072 0.000336122 -7.95802e-05)
(0.000264816 -0.000264605 -7.96926e-05)
(-8.20053e-05 -0.00012688 2.29294e-05)
(8.21938e-05 -0.000126888 2.31508e-05)
(-8.22751e-05 -0.000127018 2.32304e-05)
(-0.000264471 -0.000265216 -7.99144e-05)
(-0.000336232 -0.000335677 -8.00688e-05)
(0.000264439 0.000263735 -7.96657e-05)
(8.23218e-05 0.000127242 2.55129e-05)
(-8.23414e-05 0.000127458 2.57118e-05)
(8.14144e-05 0.000126089 2.59813e-05)
(-8.18787e-05 0.000126651 2.60126e-05)
(0.000335782 -0.00033579 -8.01481e-05)
(-0.000264502 0.000264673 -8.05314e-05)
(0.000126807 8.20683e-05 2.30993e-05)
(0.000127319 -8.21014e-05 2.56216e-05)
(0.000125844 8.12848e-05 2.3546e-05)
(0.000126474 -8.16769e-05 2.59662e-05)
(-0.000126754 -8.19675e-05 2.55563e-05)
(-0.000126711 8.20101e-05 2.34199e-05)
(-0.000126815 -8.19534e-05 2.55447e-05)
(-0.000335737 0.000335734 -7.97473e-05)
(0.000264499 -0.000264262 -7.9759e-05)
(-8.17979e-05 -0.000126508 2.34711e-05)
(8.18328e-05 -0.000126754 2.34684e-05)
(-8.17872e-05 -0.000126546 2.34317e-05)
(-0.000264056 -0.000264724 -7.91542e-05)
(-0.000336559 -0.000335952 -7.94588e-05)
(0.000265226 0.000264642 -8.01357e-05)
(8.15055e-05 0.000126284 2.57765e-05)
(-8.17848e-05 0.000126596 2.59264e-05)
(8.27539e-05 0.000127734 2.5542e-05)
(-8.17727e-05 0.000126896 2.60695e-05)
(0.000336166 -0.000336261 -8.02287e-05)
(-0.0002644 0.00026447 -8.03085e-05)
(0.00012612 8.13809e-05 2.33687e-05)
(0.000126533 -8.16495e-05 2.58564e-05)
(0.00012759 8.27066e-05 2.3135e-05)
(0.000127147 -8.18491e-05 2.59438e-05)
(-0.00012715 -8.22075e-05 2.54593e-05)
(-0.000126297 8.1805e-05 2.35416e-05)
(-0.000126268 -8.15976e-05 2.58765e-05)
(-0.000336086 0.000335966 -7.95929e-05)
(0.000264371 -0.000264303 -7.94783e-05)
(-8.20552e-05 -0.000126847 2.33511e-05)
(8.17946e-05 -0.000126425 2.35736e-05)
(-8.15026e-05 -0.000126114 2.37681e-05)
(-0.000264173 -0.000264711 -7.98918e-05)
(-0.000335949 -0.000335223 -8.04087e-05)
(0.000264483 0.00026382 -8.00748e-05)
(8.25411e-05 0.000127323 2.58302e-05)
(-8.17106e-05 0.000126769 2.61833e-05)
(8.15234e-05 0.000126337 2.60527e-05)
(-8.17484e-05 0.000126791 2.61075e-05)
(0.000336127 -0.000336345 -8.02644e-05)
(-0.00026434 0.000264317 -8.02643e-05)
(0.000127305 8.24869e-05 2.33614e-05)
(0.000127081 -8.18214e-05 2.60546e-05)
(0.000126033 8.13725e-05 2.36462e-05)
(0.000127217 -8.21242e-05 2.59422e-05)
(-0.000126155 -8.14008e-05 2.59266e-05)
(-0.000126051 8.17381e-05 2.3589e-05)
(-0.000125616 -8.11213e-05 2.58726e-05)
(-0.000336014 0.000335747 -7.96186e-05)
(0.000264617 -0.000264438 -7.97662e-05)
(-8.13334e-05 -0.000126034 2.38207e-05)
(8.22354e-05 -0.000126943 2.35013e-05)
(-8.10822e-05 -0.000125738 2.37442e-05)
(-0.000263605 -0.000264002 -7.91051e-05)
(-0.000336809 -0.000336093 -7.99049e-05)
(0.000264466 0.00026382 -7.95612e-05)
(8.14966e-05 0.000126292 2.57386e-05)
(-8.15619e-05 0.000126585 2.59948e-05)
(8.15827e-05 0.000126223 2.55704e-05)
(-8.1614e-05 0.000126394 2.57408e-05)
(0.000336234 -0.000336411 -8.00825e-05)
(-0.000264157 0.000264354 -7.96691e-05)
(0.000126047 8.1367e-05 2.33312e-05)
(0.000127086 -8.2083e-05 2.57839e-05)
(0.000126233 8.15183e-05 2.32386e-05)
(0.000126539 -8.16886e-05 2.57689e-05)
(-0.00012563 -8.10941e-05 2.57407e-05)
(-0.000126544 8.17523e-05 2.31666e-05)
(-0.000126898 -8.21501e-05 2.51905e-05)
(-0.000335849 0.000335776 -7.98109e-05)
(0.000264532 -0.000264405 -7.99397e-05)
(-8.1032e-05 -0.000125872 2.36179e-05)
(8.17789e-05 -0.000126613 2.32937e-05)
(-8.20245e-05 -0.000126779 2.30859e-05)
(-0.000264229 -0.000264866 -7.90457e-05)
(-0.000336607 -0.000335894 -7.96224e-05)
(0.000264128 0.0002645 -7.9452e-05)
(8.15692e-05 0.000126278 2.53781e-05)
(-8.15669e-05 0.00012647 2.56065e-05)
(8.22372e-05 0.000127116 2.3978e-05)
(-8.1786e-05 0.000126786 2.54434e-05)
(0.00033614 -0.00033625 -7.98389e-05)
(-0.000264162 0.000264321 -7.90453e-05)
(0.000126233 8.14652e-05 2.30477e-05)
(0.00012642 -8.14709e-05 2.5708e-05)
(0.000126324 8.17666e-05 2.39243e-05)
(0.000126528 -8.13659e-05 2.54121e-05)
(-0.000126791 -8.19636e-05 2.5341e-05)
(-0.000126574 8.19324e-05 2.28159e-05)
(-0.000126401 -8.15876e-05 2.51791e-05)
(-0.000336368 0.000336269 -7.96523e-05)
(0.000264019 -0.000263864 -7.86383e-05)
(-8.18032e-05 -0.000126614 2.31961e-05)
(8.14759e-05 -0.000126113 2.28504e-05)
(-8.13849e-05 -0.000126054 2.30317e-05)
(-0.000263599 -0.000264424 -7.88534e-05)
(-8.22351e-05 0.000127219 2.52138e-05)
(0.000335572 -0.000335771 -7.99043e-05)
(0.000126701 8.20078e-05 2.54609e-05)
(0.000126768 -8.18161e-05 2.49877e-05)
(-0.000126594 -8.17436e-05 2.49529e-05)
(-0.000335941 0.000335826 -7.93776e-05)
(-8.142e-05 -0.000126271 2.28264e-05)
(-8.98064e-05 0.000141651 1.40514e-05)
(0.000107123 -3.34161e-05 1.45768e-05)
(2.11869e-05 7.65383e-05 -9.88153e-06)
(-3.25126e-05 -8.1566e-05 4.46032e-05)
(-0.000140392 -0.000136611 4.66293e-06)
(8.11321e-05 -0.000125657 2.28951e-05)
(9.79139e-05 7.12016e-05 6.33728e-06)
(-2.71428e-05 -5.52614e-05 -1.09678e-05)
(-3.2628e-05 -8.13992e-05 4.45108e-05)
(-0.00030963 -2.1513e-06 1.15301e-05)
(-2.13105e-06 -0.000310123 1.20406e-05)
(-0.000264879 -0.00026309 -7.915e-05)
(-4.01675e-05 0.000108274 1.27715e-05)
(0.000108271 -3.96245e-05 1.30625e-05)
(-5.52119e-06 0.00017776 7.57675e-06)
(-7.89281e-05 -0.000658888 1.57033e-05)
(-6.7501e-05 0.000631554 1.58873e-05)
(1.0007e-06 -0.000237647 6.50564e-06)
(0.000141818 -8.97942e-05 1.44382e-05)
(-3.33313e-05 0.000107346 1.42986e-05)
(0.000178019 -5.20952e-06 7.55266e-06)
(-0.000659075 -7.89931e-05 1.56195e-05)
(0.000631576 -6.70348e-05 1.60014e-05)
(-0.000237539 1.13787e-06 6.51787e-06)
(0.000158121 -0.000158262 8.24285e-05)
(-0.000158423 0.000157916 8.18797e-05)
(0.000158922 0.00015687 8.20302e-05)
(-0.000157975 -0.000158211 8.15684e-05)
(0.000158157 -0.0001581 8.22591e-05)
(-0.000158057 0.00015801 8.17751e-05)
(0.000158156 0.000157913 8.20525e-05)
(7.61867e-05 2.10261e-05 -9.44718e-06)
(-0.000136507 -0.000141305 5.57606e-06)
(-8.18471e-05 -3.23616e-05 4.42211e-05)
(-0.00012639 8.17342e-05 2.25912e-05)
(7.10029e-05 9.78377e-05 6.32601e-06)
(-8.19821e-05 -3.25578e-05 4.39258e-05)
(-5.51033e-05 -2.76367e-05 -1.01839e-05)
(-8.97268e-05 0.000141704 1.37296e-05)
(0.000107092 -3.34062e-05 1.333e-05)
(2.07309e-05 7.60672e-05 -8.83561e-06)
(-3.23132e-05 -8.17749e-05 4.38887e-05)
(-0.000141202 -0.000136636 5.7846e-06)
(8.17925e-05 -0.0001268 2.26139e-05)
(-2.76882e-05 -5.50267e-05 -9.59601e-06)
(-3.22783e-05 -8.21082e-05 4.40064e-05)
(9.77883e-05 7.09813e-05 6.74663e-06)
(-0.000309519 -2.08046e-06 1.22943e-05)
(-1.80098e-06 -0.000310063 1.25092e-05)
(-0.000263964 -0.000264797 -7.87315e-05)
(0.000108265 -3.97274e-05 1.29063e-05)
(-3.98656e-05 0.000108673 1.30998e-05)
(-6.0647e-06 0.000176496 7.72392e-06)
(-7.87681e-05 -0.000658345 1.45993e-05)
(7.70116e-07 -0.000237556 7.19147e-06)
(-6.79351e-05 0.000631189 1.61719e-05)
(0.000142213 -8.94146e-05 1.42131e-05)
(-3.2752e-05 0.000107917 1.45815e-05)
(0.000176386 -5.77295e-06 7.89045e-06)
(-0.000658137 -7.91895e-05 1.42682e-05)
(-0.000237577 1.12414e-06 7.35141e-06)
(0.000630844 -6.78295e-05 1.59673e-05)
(0.000158302 -0.000157972 8.24003e-05)
(-0.000157929 0.00015823 8.20322e-05)