/*--------------------------------*- C++ -*----------------------------------*\
| =========                 |                                                 |
| \\      /  F ield         | OpenFOAM: The Open Source CFD Toolbox           |
|  \\    /   O peration     | Version:  2206                                  |
|   \\  /    A nd           | Website:  www.openfoam.com                      |
|    \\/     M anipulation  |                                                 |
\*---------------------------------------------------------------------------*/
FoamFile
{
    version     2.0;
    format      ascii;
    arch        "LSB;label=32;scalar=64";
    class       surfaceScalarField;
    location    "9";
    object      phi;
}
// * * * * * * * * * * * * * * * * * * * * * * * * * * * * * * * * * * * * * //

dimensions      [0 3 -1 0 0 0 0];

oriented        oriented;

internalField   nonuniform List<scalar> 
81717
(
1.54595e-09
1.59574e-09
-0.00106472
-1.12444e-09
-1.12118e-09
0.00106472
-0.00106538
-1.16644e-06
-1.61261e-09
9.9302e-10
0.00106538
-2.20605e-07
1.16836e-06
2.20392e-07
8.40061e-07
-2.04577e-07
-8.39736e-07
2.0393e-07
-0.00106505
-1.16113e-06
-1.61287e-09
9.86368e-10
0.00106505
-2.20597e-07
1.16304e-06
2.20398e-07
8.39889e-07
-2.072e-07
-8.39616e-07
2.0658e-07
-0.000262004
1.19419e-06
1.16125e-06
-2.09466e-07
-2.1464e-07
0.000260073
-1.05751e-10
-6.65549e-11
-0.00106472
-4.01563e-10
-3.96442e-10
0.00106472
-0.00106538
-1.16682e-06
6.80903e-11
1.79335e-09
0.00106539
-2.21165e-07
1.16805e-06
2.19931e-07
8.39678e-07
-2.05626e-07
-8.40257e-07
2.0299e-07
-0.00106505
-1.16152e-06
7.25555e-11
1.78414e-09
0.00106505
-2.2116e-07
1.16272e-06
2.19935e-07
8.39511e-07
-2.08247e-07
-8.40132e-07
2.05638e-07
-0.000262004
1.19456e-06
1.16163e-06
-2.09964e-07
-2.15142e-07
0.000260073
6.54539e-10
7.05839e-10
-0.00106472
-7.3884e-10
-7.37991e-10
0.00106472
-0.00106539
-1.16665e-06
-7.193e-10
1.43372e-09
0.00106539
-2.20875e-07
1.1682e-06
2.20186e-07
8.39852e-07
-2.05034e-07
-8.40017e-07
2.0357e-07
-0.00106505
-1.16134e-06
-7.12857e-10
1.42563e-09
0.00106505
-2.20867e-07
1.16288e-06
2.20193e-07
8.39682e-07
-2.0766e-07
-8.39897e-07
2.06219e-07
-0.000262005
1.19439e-06
1.16145e-06
-2.09684e-07
-2.14861e-07
0.000260073
7.66683e-10
8.1799e-10
-0.00106472
-8.0097e-10
-8.00969e-10
0.00106472
-0.00106539
-1.16662e-06
-8.28883e-10
1.39165e-09
0.00106539
-2.20853e-07
1.16822e-06
2.20203e-07
8.39879e-07
-2.04995e-07
-8.39985e-07
2.03598e-07
-0.00106505
-1.16132e-06
-8.2486e-10
1.38216e-09
0.00106505
-2.20844e-07
1.1629e-06
2.20209e-07
8.39709e-07
-2.07617e-07
-8.39863e-07
2.06248e-07
-0.000262005
1.19437e-06
1.16143e-06
-2.09655e-07
-2.14832e-07
0.000260073
7.83022e-10
8.26669e-10
-0.00106472
-8.05835e-10
-8.12419e-10
0.00106472
-0.00106539
-1.16662e-06
-8.39561e-10
1.38223e-09
0.00106539
-2.2085e-07
1.16822e-06
2.20205e-07
8.39882e-07
-2.04991e-07
-8.39982e-07
2.03601e-07
-0.00106505
-1.16132e-06
-8.30342e-10
1.37829e-09
0.00106505
-2.20843e-07
1.1629e-06
2.2021e-07
8.39711e-07
-2.07615e-07
-8.39861e-07
2.0625e-07
-0.000262005
1.19437e-06
1.16143e-06
-2.09653e-07
-2.14831e-07
0.000260073
7.87551e-10
8.04722e-10
-0.00106472
-7.86646e-10
-8.17037e-10
0.00106472
-0.00106539
-1.16661e-06
-8.43898e-10
1.35669e-09
0.00106539
-2.20842e-07
1.16823e-06
2.20216e-07
8.39878e-07
-2.04992e-07
-8.39983e-07
2.03599e-07
-0.00106505
-1.16132e-06
-8.23396e-10
1.38601e-09
0.00106505
-2.20844e-07
1.1629e-06
2.20209e-07
8.39709e-07
-2.07616e-07
-8.39862e-07
2.06248e-07
-0.000262005
1.19437e-06
1.16143e-06
-2.09652e-07
-2.14832e-07
0.000260073
7.92253e-10
7.89917e-10
-0.00106472
-7.71067e-10
-8.19947e-10
0.00106472
-0.00106539
-1.16658e-06
-8.55394e-10
1.30333e-09
0.00106539
-2.20799e-07
1.16825e-06
2.20244e-07
8.39872e-07
-2.04998e-07
-8.39988e-07
2.03591e-07
-0.00106505
-1.16132e-06
-8.14906e-10
1.39028e-09
0.00106505
-2.20846e-07
1.16289e-06
2.20207e-07
8.39707e-07
-2.07619e-07
-8.39864e-07
2.06246e-07
-0.000262005
1.19437e-06
1.16143e-06
-2.09654e-07
-2.14836e-07
0.000260073
7.74281e-10
8.05214e-10
-0.00106472
-7.91914e-10
-8.11407e-10
0.00106472
-0.00106539
-1.16662e-06
-8.31352e-10
1.38308e-09
0.00106539
-2.20848e-07
1.16822e-06
2.20203e-07
8.39879e-07
-2.04996e-07
-8.39984e-07
2.03596e-07
-0.00106505
-1.16132e-06
-8.20083e-10
1.38955e-09
0.00106505
-2.20846e-07
1.16289e-06
2.20207e-07
8.39708e-07
-2.07618e-07
-8.39864e-07
2.06247e-07
-0.000262005
1.19437e-06
1.16143e-06
-2.09656e-07
-2.14834e-07
0.000260073
7.78156e-10
8.09719e-10
-0.00106472
-7.96408e-10
-8.18841e-10
0.00106472
-0.00106539
-1.16662e-06
-8.24018e-10
1.38352e-09
0.00106539
-2.20851e-07
1.16822e-06
2.20204e-07
8.39878e-07
-2.04996e-07
-8.39985e-07
2.03596e-07
-0.00106505
-1.16132e-06
-8.42481e-10
1.38884e-09
0.00106505
-2.20846e-07
1.1629e-06
2.20208e-07
8.39712e-07
-2.07615e-07
-8.3986e-07
2.06251e-07
-0.000262005
1.19436e-06
1.16144e-06
-2.09659e-07
-2.14831e-07
0.000260073
7.84512e-10
8.1196e-10
-0.00106472
-7.96997e-10
-8.20759e-10
0.00106472
-0.00106539
-1.16662e-06
-8.32808e-10
1.37772e-09
0.00106539
-2.20849e-07
1.16822e-06
2.20207e-07
8.3988e-07
-2.04994e-07
-8.39983e-07
2.03599e-07
-0.00106505
-1.16132e-06
-8.54721e-10
1.38686e-09
0.00106505
-2.20844e-07
1.1629e-06
2.20209e-07
8.39714e-07
-2.07612e-07
-8.39857e-07
2.06254e-07
-0.000262005
1.19436e-06
1.16143e-06
-2.09657e-07
-2.14828e-07
0.000260073
7.88731e-10
8.15309e-10
-0.00106472
-7.97927e-10
-8.22115e-10
0.00106472
-0.00106539
-1.16662e-06
-8.34774e-10
1.37484e-09
0.00106539
-2.20848e-07
1.16822e-06
2.20207e-07
8.39881e-07
-2.04993e-07
-8.39982e-07
2.03599e-07
-0.00106505
-1.16132e-06
-8.58416e-10
1.38414e-09
0.00106505
-2.20843e-07
1.1629e-06
2.2021e-07
8.39714e-07
-2.0761e-07
-8.39855e-07
2.06255e-07
-0.000262005
1.19436e-06
1.16143e-06
-2.09656e-07
-2.14826e-07
0.000260073
7.96569e-10
8.24402e-10
-0.00106472
-8.03754e-10
-8.27579e-10
0.00106472
-0.00106539
-1.16662e-06
-8.42126e-10
1.37019e-09
0.00106539
-2.20846e-07
1.16822e-06
2.20209e-07
8.39882e-07
-2.0499e-07
-8.3998e-07
2.03601e-07
-0.00106505
-1.16131e-06
-8.64966e-10
1.381e-09
0.00106505
-2.20842e-07
1.1629e-06
2.20212e-07
8.39716e-07
-2.07608e-07
-8.39854e-07
2.06257e-07
-0.000262005
1.19436e-06
1.16143e-06
-2.09654e-07
-2.14824e-07
0.000260073
7.98364e-10
8.24201e-10
-0.00106472
-8.03136e-10
-8.27696e-10
0.00106472
-0.00106539
-1.16662e-06
-8.43192e-10
1.37122e-09
0.00106539
-2.20846e-07
1.16822e-06
2.20209e-07
8.39883e-07
-2.0499e-07
-8.3998e-07
2.03601e-07
-0.00106505
-1.16131e-06
-8.66075e-10
1.38231e-09
0.00106505
-2.20842e-07
1.1629e-06
2.20212e-07
8.39716e-07
-2.07608e-07
-8.39853e-07
2.06257e-07
-0.000262005
1.19436e-06
1.16143e-06
-2.09654e-07
-2.14823e-07
0.000260073
7.90902e-10
8.17712e-10
-0.00106472
-7.98881e-10
-8.22664e-10
0.00106472
-0.00106539
-1.16662e-06
-8.38155e-10
1.37358e-09
0.00106539
-2.20847e-07
1.16822e-06
2.20208e-07
8.39881e-07
-2.04992e-07
-8.39981e-07
2.036e-07
-0.00106505
-1.16131e-06
-8.6316e-10
1.38232e-09
0.00106505
-2.20842e-07
1.1629e-06
2.20211e-07
8.39715e-07
-2.07609e-07
-8.39855e-07
2.06256e-07
-0.000262005
1.19436e-06
1.16143e-06
-2.09655e-07
-2.14825e-07
0.000260073
7.83832e-10
8.13364e-10
-0.00106472
-7.97104e-10
-8.18495e-10
0.00106472
-0.00106539
-1.16662e-06
-8.33442e-10
1.37963e-09
0.00106539
-2.20849e-07
1.16822e-06
2.20206e-07
8.39881e-07
-2.04993e-07
-8.39982e-07
2.03599e-07
-0.00106505
-1.16132e-06
-8.62959e-10
1.38569e-09
0.00106505
-2.20844e-07
1.1629e-06
2.20211e-07
8.39715e-07
-2.0761e-07
-8.39855e-07
2.06257e-07
-0.000262005
1.19436e-06
1.16143e-06
-2.09656e-07
-2.14826e-07
0.000260073
7.67689e-10
8.10339e-10
-0.00106472
-7.95695e-10
-8.05464e-10
0.00106472
-0.00106539
-1.16662e-06
-8.32891e-10
1.39398e-09
0.00106539
-2.20852e-07
1.16821e-06
2.20201e-07
8.39878e-07
-2.04996e-07
-8.39982e-07
2.03599e-07
-0.00106505
-1.16132e-06
-8.66284e-10
1.38983e-09
0.00106505
-2.20842e-07
1.16289e-06
2.20202e-07
8.3971e-07
-2.07605e-07
-8.39851e-07
2.06245e-07
-0.000262005
1.19436e-06
1.16143e-06
-2.09655e-07
-2.14822e-07
0.000260073
8.01945e-10
8.8661e-10
-0.00106472
-8.36178e-10
-8.12862e-10
0.00106472
-0.00106539
-1.16661e-06
-9.03625e-10
1.41273e-09
0.00106539
-2.2084e-07
1.1682e-06
2.2019e-07
8.39886e-07
-2.04954e-07
-8.39934e-07
2.03602e-07
-0.00106505
-1.16128e-06
-9.69951e-10
1.37167e-09
0.00106505
-2.20799e-07
1.16288e-06
2.20192e-07
8.39705e-07
-2.07537e-07
-8.39789e-07
2.0624e-07
-0.000262005
1.19432e-06
1.1614e-06
-2.09613e-07
-2.14775e-07
0.000260073
-1.20124e-06
-1.16568e-06
0.00026202
-0.000260078
2.08879e-07
2.16511e-07
0.00106462
-1.44156e-09
-0.00106462
1.13734e-09
-1.19945e-06
2.2562e-07
-2.25945e-07
-8.39681e-07
2.03786e-07
-2.04519e-07
8.39904e-07
1.20659e-06
0.00106505
-1.41673e-09
-0.00106505
1.14372e-09
-1.2048e-06
2.28374e-07
-2.28692e-07
-8.45185e-07
2.06539e-07
-2.07299e-07
8.45387e-07
-1.16827e-06
0.000262048
-0.000260099
2.11584e-07
2.13861e-07
0.00106565
-1.48884e-09
-0.00106565
1.07367e-09
-1.16389e-06
2.2308e-07
-2.23362e-07
-8.42401e-07
2.06571e-07
-2.07291e-07
8.42669e-07
1.20129e-06
0.00106473
-1.4126e-09
-0.00106473
1.13899e-09
-1.19951e-06
2.28351e-07
-2.28675e-07
-8.42364e-07
2.06503e-07
-2.0725e-07
8.4257e-07
-1.4941e-09
-0.00106539
1.08907e-09
-1.16647e-06
2.20319e-07
-2.20619e-07
-8.39725e-07
2.03868e-07
8.39974e-07
-2.04567e-07
1.19598e-06
0.00106453
-1.41698e-09
-0.00106453
1.14889e-09
-1.19422e-06
2.22896e-07
-2.23223e-07
-8.39719e-07
2.03784e-07
-2.04523e-07
8.39921e-07
-1.16295e-06
0.000261999
-0.00026006
2.09046e-07
2.16328e-07
-1.49226e-09
-0.00106505
1.08261e-09
-1.16116e-06
2.20327e-07
-2.20609e-07
-8.3956e-07
2.06495e-07
8.39854e-07
-2.07213e-07
1.16305e-06
0.00106555
-1.46692e-09
-0.00106555
1.0909e-09
-1.16128e-06
2.20373e-07
-2.20678e-07
-8.39824e-07
2.06561e-07
-2.07272e-07
8.40084e-07
-0.000260073
2.11346e-07
2.16531e-07
1.19942e-06
1.16386e-06
-2.06984e-07
-2.14598e-07
0.000260078
-1.20097e-06
-1.16541e-06
0.000262019
-0.000260078
2.08432e-07
2.16065e-07
1.04015e-09
0.00106462
-2.2593e-07
1.20132e-06
2.25692e-07
8.39985e-07
-2.04534e-07
-8.39696e-07
2.03845e-07
-1.20477e-06
-1.54339e-09
1.04779e-09
0.00106505
-2.28678e-07
1.20667e-06
2.28446e-07
8.45476e-07
-2.07306e-07
-8.45192e-07
2.06604e-07
0.00106462
2.82822e-11
-0.00106462
1.8073e-09
-1.19976e-06
2.25173e-07
-2.26411e-07
-8.40247e-07
2.02978e-07
-2.05243e-07
8.39474e-07
1.20632e-06
0.00106505
4.38306e-11
-0.00106504
1.81501e-09
-1.20511e-06
2.27927e-07
-2.29158e-07
-8.45751e-07
2.05728e-07
-2.08026e-07
8.44965e-07
-2.09671e-07
-2.11949e-07
0.000260099
-1.16801e-06
0.000262048
-0.000260098
2.11143e-07
2.13414e-07
9.81313e-10
0.00106565
-2.23349e-07
1.16576e-06
2.2315e-07
8.42757e-07
-2.07305e-07
-8.42414e-07
2.06633e-07
-1.19948e-06
-1.53695e-09
1.0465e-09
0.00106473
-2.28661e-07
1.20137e-06
2.28422e-07
8.42657e-07
-2.07259e-07
-8.42374e-07
2.06566e-07
0.00106565
-2.07273e-11
-0.00106564
1.7494e-09
-1.1642e-06
2.22631e-07
-2.23828e-07
-8.4297e-07
2.05765e-07
-2.08016e-07
8.42241e-07
1.20102e-06
0.00106473
4.7306e-11
-0.00106472
1.81315e-09
-1.19982e-06
2.27903e-07
-2.29139e-07
-8.42935e-07
2.05703e-07
-2.07967e-07
8.42138e-07
-1.5434e-09
1.04606e-09
0.00106453
-2.23205e-07
1.19607e-06
2.22969e-07
8.40011e-07
-2.04527e-07
2.0385e-07
-8.39725e-07
-5.62419e-12
-0.00106538
1.7657e-09
-1.16678e-06
2.19879e-07
-2.2108e-07
-8.40307e-07
2.0304e-07
8.39533e-07
-2.0531e-07
1.19572e-06
0.00106453
3.67488e-11
-0.00106452
1.80245e-09
-1.19452e-06
2.22465e-07
-2.23669e-07
-8.40288e-07
2.02966e-07
-2.05255e-07
8.39495e-07
-2.07148e-07
-2.14425e-07
0.00026006
-1.16269e-06
0.000261999
-0.00026006
2.08601e-07
2.15881e-07
-1.61313e-09
9.90893e-10
0.00106555
-2.2066e-07
1.16314e-06
2.20448e-07
8.40176e-07
-2.07277e-07
2.06629e-07
-8.3983e-07
-7.04027e-12
-0.00106505
1.74958e-09
-1.16147e-06
2.19885e-07
-2.2107e-07
-8.40136e-07
2.05673e-07
8.39418e-07
-2.07945e-07
1.1628e-06
0.00106555
1.2957e-12
-0.00106555
1.74276e-09
-1.16158e-06
2.19944e-07
-2.21122e-07
-8.40405e-07
2.05743e-07
-2.08006e-07
8.3964e-07
-0.000260072
2.10913e-07
2.16096e-07
1.19981e-06
1.16424e-06
-2.07494e-07
-2.15107e-07
0.000260078
-1.20114e-06
-1.16558e-06
0.00026202
-0.000260079
2.08703e-07
2.16333e-07
1.83926e-09
0.00106462
-2.26496e-07
1.20101e-06
2.25227e-07
8.39607e-07
-2.05566e-07
-8.40209e-07
2.02919e-07
-1.20515e-06
9.99818e-11
1.84247e-09
0.00106505
-2.29243e-07
1.20636e-06
2.2798e-07
8.4511e-07
-2.08339e-07
-8.45696e-07
2.05681e-07
0.00106462
-5.70269e-10
-0.00106462
1.52737e-09
-1.19966e-06
2.25464e-07
-2.26231e-07
-8.39995e-07
2.03448e-07
-2.05055e-07
8.39765e-07
1.20649e-06
0.00106505
-5.51594e-10
-0.00106505
1.53068e-09
-1.205e-06
2.28219e-07
-2.28979e-07
-8.45498e-07
2.06205e-07
-2.0783e-07
8.4525e-07
-2.10172e-07
-2.12462e-07
0.000260099
-1.16818e-06
0.000262049
-0.000260099
2.11409e-07
2.13685e-07
1.78285e-09
0.00106565
-2.23917e-07
1.16544e-06
2.22681e-07
8.4238e-07
-2.08334e-07
-8.42926e-07
2.05711e-07
-1.19986e-06
1.06796e-10
1.8546e-09
0.00106473
-2.29228e-07
1.20105e-06
2.27955e-07
8.42278e-07
-2.08284e-07
-8.4289e-07
2.05649e-07
0.00106565
-6.18447e-10
-0.00106565
1.46499e-09
-1.16409e-06
2.22924e-07
-2.23649e-07
-8.42719e-07
2.06235e-07
-2.07825e-07
8.42527e-07
1.20119e-06
0.00106473
-5.46535e-10
-0.00106473
1.53031e-09
-1.19971e-06
2.28193e-07
-2.28964e-07
-8.42679e-07
2.06171e-07
-2.07779e-07
8.42429e-07
9.45196e-11
1.83602e-09
0.00106453
-2.23759e-07
1.19576e-06
2.2251e-07
8.39642e-07
-2.05566e-07
2.0292e-07
-8.40231e-07
-6.21411e-10
-0.00106539
1.47597e-09
-1.16667e-06
2.20167e-07
-2.20903e-07
-8.40044e-07
2.0353e-07
8.39831e-07
-2.05101e-07
1.19589e-06
0.00106453
-5.6036e-10
-0.00106453
1.53033e-09
-1.19442e-06
2.22746e-07
-2.23502e-07
-8.40031e-07
2.03449e-07
-2.05054e-07
8.39785e-07
-2.07658e-07
-2.14934e-07
0.00026006
-1.16286e-06
0.000262
-0.000260061
2.08872e-07
2.16148e-07
6.77253e-11
1.7739e-09
0.00106555
-2.21212e-07
1.16283e-06
2.19991e-07
8.39785e-07
-2.0832e-07
2.05695e-07
-8.40359e-07
-6.13412e-10
-0.00106505
1.46881e-09
-1.16136e-06
2.20175e-07
-2.20894e-07
-8.39878e-07
2.06153e-07
8.39711e-07
-2.07752e-07
1.16296e-06
0.00106556
-6.05295e-10
-0.00106556
1.46575e-09
-1.16148e-06
2.20226e-07
-2.20955e-07
-8.40142e-07
2.06225e-07
-2.07806e-07
8.39941e-07
-0.000260073
2.11175e-07
2.16356e-07
1.19963e-06
1.16406e-06
-2.07207e-07
-2.14823e-07
0.000260079
-1.20118e-06
-1.16562e-06
0.00026202
-0.000260079
2.08744e-07
2.16376e-07
1.48392e-09
0.00106462
-2.26204e-07
1.20116e-06
2.25483e-07
8.39784e-07
-2.04991e-07
-8.39973e-07
2.0349e-07
-1.20498e-06
-6.56654e-10
1.4863e-09
0.00106505
-2.28951e-07
1.20651e-06
2.28237e-07
8.45274e-07
-2.0776e-07
-8.45469e-07
2.06252e-07
0.00106462
-7.7788e-10
-0.00106462
1.44347e-09
-1.19961e-06
2.25501e-07
-2.26181e-07
-8.39943e-07
2.03518e-07
-2.04951e-07
8.3981e-07
1.20653e-06
0.00106505
-7.58392e-10
-0.00106505
1.44954e-09
-1.20496e-06
2.28255e-07
-2.28928e-07
-8.45443e-07
2.06272e-07
-2.07731e-07
8.45298e-07
-2.09891e-07
-2.12173e-07
0.000260099
-1.16822e-06
0.000262049
-0.000260099
2.1145e-07
2.13726e-07
1.42772e-09
0.00106565
-2.23622e-07
1.1656e-06
2.22941e-07
8.4255e-07
-2.07761e-07
-8.42695e-07
2.06278e-07
-1.19969e-06
-6.5345e-10
1.49066e-09
0.00106473
-2.28935e-07
1.20121e-06
2.28213e-07
8.42455e-07
-2.07711e-07
-8.42652e-07
2.06219e-07
0.00106565
-8.26689e-10
-0.00106565
1.38169e-09
-1.16404e-06
2.2296e-07
-2.23598e-07
-8.42663e-07
2.06304e-07
-2.07722e-07
8.42576e-07
1.20123e-06
0.00106473
-7.53597e-10
-0.00106473
1.44659e-09
-1.19967e-06
2.28231e-07
-2.28912e-07
-8.42627e-07
2.06239e-07
-2.07678e-07
8.42476e-07
-6.6595e-10
1.48146e-09
0.00106453
-2.23471e-07
1.19591e-06
2.22768e-07
8.39808e-07
-2.04982e-07
2.03495e-07
-8.40002e-07
-8.2789e-10
-0.00106539
1.39552e-09
-1.16663e-06
2.20203e-07
-2.20852e-07
-8.3999e-07
2.03596e-07
8.39878e-07
-2.05004e-07
1.19593e-06
0.00106453
-7.6593e-10
-0.00106453
1.44716e-09
-1.19437e-06
2.22782e-07
-2.23453e-07
-8.39977e-07
2.03517e-07
-2.04954e-07
8.39833e-07
-2.07369e-07
-2.1465e-07
0.000260061
-1.1629e-06
0.000262
-0.000260061
2.08912e-07
2.16192e-07
-7.22553e-10
1.4188e-09
0.00106556
-2.20924e-07
1.16298e-06
2.20249e-07
8.39968e-07
-2.07732e-07
2.06274e-07
-8.40111e-07
-8.2615e-10
-0.00106505
1.38394e-09
-1.16132e-06
2.20211e-07
-2.20842e-07
-8.39822e-07
2.06224e-07
8.39761e-07
-2.07648e-07
1.163e-06
0.00106556
-8.14554e-10
-0.00106556
1.38467e-09
-1.16143e-06
2.20262e-07
-2.20906e-07
-8.40088e-07
2.06295e-07
-2.07704e-07
8.39989e-07
-0.000260073
2.11217e-07
2.16399e-07
1.19961e-06
1.16404e-06
-2.07179e-07
-2.14794e-07
0.000260079
-1.20118e-06
-1.16562e-06
0.00026202
-0.000260079
2.08749e-07
2.16379e-07
1.43932e-09
0.00106462
-2.26181e-07
1.20118e-06
2.255e-07
8.3981e-07
-2.0495e-07
-8.39942e-07
2.03519e-07
-1.20495e-06
-7.68097e-10
1.4439e-09
0.00106505
-2.28928e-07
1.20653e-06
2.28254e-07
8.45301e-07
-2.0772e-07
-8.45437e-07
2.06281e-07
0.00106462
-8.00156e-10
-0.00106462
1.43583e-09
-1.19961e-06
2.25505e-07
-2.26176e-07
-8.39938e-07
2.03522e-07
-2.04946e-07
8.39815e-07
1.20653e-06
0.00106505
-7.80877e-10
-0.00106505
1.44071e-09
-1.20495e-06
2.28259e-07
-2.28924e-07
-8.45438e-07
2.06277e-07
-2.07725e-07
8.45302e-07
-2.09863e-07
-2.12145e-07
0.000260099
-1.16822e-06
0.000262049
-0.000260099
2.11454e-07
2.13729e-07
1.38294e-09
0.00106565
-2.23599e-07
1.16562e-06
2.22958e-07
8.42577e-07
-2.0772e-07
-8.42662e-07
2.06306e-07
-1.19966e-06
-7.63314e-10
1.44806e-09
0.00106473
-2.28911e-07
1.20123e-06
2.28231e-07
8.42481e-07
-2.07672e-07
-8.42621e-07
2.06246e-07
0.00106565
-8.43702e-10
-0.00106565
1.36917e-09
-1.16404e-06
2.22965e-07
-2.23593e-07
-8.42658e-07
2.06306e-07
-2.07716e-07
8.42579e-07
1.20123e-06
0.00106473
-7.71549e-10
-0.00106473
1.44225e-09
-1.19966e-06
2.28234e-07
-2.28908e-07
-8.42622e-07
2.06242e-07
-2.07674e-07
8.42479e-07
-7.76046e-10
1.43803e-09
0.00106453
-2.23448e-07
1.19593e-06
2.22786e-07
8.39835e-07
-2.0494e-07
2.03524e-07
-8.39969e-07
-8.43535e-10
-0.00106539
1.38295e-09
-1.16662e-06
2.20207e-07
-2.20848e-07
-8.39985e-07
2.03601e-07
8.39882e-07
-2.04998e-07
1.19593e-06
0.00106453
-7.79636e-10
-0.00106453
1.44706e-09
-1.19437e-06
2.22782e-07
-2.23451e-07
-8.39973e-07
2.03521e-07
-2.0495e-07
8.39836e-07
-2.07341e-07
-2.1462e-07
0.000260061
-1.1629e-06
0.000262
-0.000260061
2.08915e-07
2.16195e-07
-8.30645e-10
1.37596e-09
0.00106556
-2.209e-07
1.163e-06
2.20266e-07
8.39994e-07
-2.07691e-07
2.06302e-07
-8.4008e-07
-8.36959e-10
-0.00106505
1.37645e-09
-1.16131e-06
2.20214e-07
-2.20839e-07
-8.39819e-07
2.06226e-07
8.39763e-07
-2.07644e-07
1.163e-06
0.00106556
-8.20375e-10
-0.00106556
1.38078e-09
-1.16143e-06
2.20263e-07
-2.20903e-07
-8.40086e-07
2.06296e-07
-2.07703e-07
8.39989e-07
-0.000260073
2.11219e-07
2.16399e-07
1.1996e-06
1.16404e-06
-2.07175e-07
-2.14791e-07
0.000260079
-1.20118e-06
-1.16562e-06
0.00026202
-0.000260079
2.08749e-07
2.16375e-07
1.43674e-09
0.00106462
-2.26178e-07
1.20118e-06
2.25502e-07
8.39814e-07
-2.04946e-07
-8.39938e-07
2.03522e-07
-1.20495e-06
-7.82628e-10
1.43803e-09
0.00106505
-2.28925e-07
1.20653e-06
2.28256e-07
8.45303e-07
-2.07715e-07
-8.45433e-07
2.06282e-07
0.00106462
-8.07546e-10
-0.00106462
1.45198e-09
-1.19961e-06
2.255e-07
-2.26179e-07
-8.39935e-07
2.03523e-07
-2.04944e-07
8.39817e-07
1.20653e-06
0.00106505
-8.04843e-10
-0.00106505
1.42365e-09
-1.20495e-06
2.28262e-07
-2.28921e-07
-8.45435e-07
2.06282e-07
-2.07722e-07
8.45307e-07
-2.09859e-07
-2.12142e-07
0.000260099
-1.16823e-06
0.000262049
-0.000260099
2.11459e-07
2.13729e-07
1.37393e-09
0.00106565
-2.23595e-07
1.16562e-06
2.22962e-07
8.42578e-07
-2.07716e-07
-8.42659e-07
2.06306e-07
-1.19966e-06
-7.73749e-10
1.44629e-09
0.00106473
-2.28909e-07
1.20123e-06
2.28232e-07
8.42483e-07
-2.07669e-07
-8.42618e-07
2.06248e-07
0.00106565
-8.32154e-10
-0.00106565
1.36473e-09
-1.16404e-06
2.22965e-07
-2.23593e-07
-8.4266e-07
2.06304e-07
-2.07716e-07
8.42577e-07
1.20123e-06
0.00106473
-7.66783e-10
-0.00106473
1.44638e-09
-1.19966e-06
2.28232e-07
-2.28909e-07
-8.42622e-07
2.06241e-07
-2.07674e-07
8.42479e-07
-7.86272e-10
1.44009e-09
0.00106453
-2.23448e-07
1.19593e-06
2.22786e-07
8.39838e-07
-2.04938e-07
2.03526e-07
-8.39966e-07
-8.49112e-10
-0.00106539
1.36521e-09
-1.16662e-06
2.20213e-07
-2.20843e-07
-8.39986e-07
2.036e-07
8.39881e-07
-2.04998e-07
1.19593e-06
0.00106453
-7.85997e-10
-0.00106453
1.45543e-09
-1.19437e-06
2.22781e-07
-2.23452e-07
-8.39971e-07
2.03521e-07
-2.04949e-07
8.39837e-07
-2.07339e-07
-2.14618e-07
0.000260061
-1.1629e-06
0.000262
-0.000260061
2.08914e-07
2.16194e-07
-8.31671e-10
1.37234e-09
0.00106556
-2.20899e-07
1.16301e-06
2.20267e-07
8.39993e-07
-2.07691e-07
2.06302e-07
-8.4008e-07
-8.35196e-10
-0.00106505
1.38098e-09
-1.16132e-06
2.20212e-07
-2.2084e-07
-8.39818e-07
2.06226e-07
8.39763e-07
-2.07644e-07
1.163e-06
0.00106556
-8.17107e-10
-0.00106556
1.37549e-09
-1.16143e-06
2.20264e-07
-2.20901e-07
-8.40085e-07
2.06296e-07
-2.07702e-07
8.3999e-07
-0.000260073
2.1122e-07
2.16399e-07
1.19961e-06
1.16404e-06
-2.07174e-07
-2.14795e-07
0.000260079
-1.20117e-06
-1.16562e-06
0.00026202
-0.000260079
2.0875e-07
2.1637e-07
1.46161e-09
0.00106462
-2.26183e-07
1.20117e-06
2.25495e-07
8.39815e-07
-2.04945e-07
-8.39936e-07
2.03522e-07
-1.20495e-06
-8.0418e-10
1.41989e-09
0.00106505
-2.28922e-07
1.20653e-06
2.28261e-07
8.45309e-07
-2.07712e-07
-8.4543e-07
2.06293e-07
0.00106462
-8.14441e-10
-0.00106462
1.48698e-09
-1.19962e-06
2.25493e-07
-2.26186e-07
-8.39931e-07
2.03525e-07
-2.04942e-07
8.3982e-07
1.20654e-06
0.00106505
-8.96878e-10
-0.00106505
1.36093e-09
-1.20494e-06
2.2829e-07
-2.28893e-07
-8.45398e-07
2.06338e-07
-2.07663e-07
8.45342e-07
-2.09854e-07
-2.12142e-07
0.000260099
-1.16826e-06
0.000262049
-0.000260099
2.11525e-07
2.1373e-07
1.37062e-09
0.00106565
-2.23595e-07
1.16562e-06
2.22961e-07
8.42574e-07
-2.0772e-07
-8.42662e-07
2.06301e-07
-1.19966e-06
-7.63574e-10
1.45255e-09
0.00106473
-2.2891e-07
1.20123e-06
2.28231e-07
8.42481e-07
-2.07671e-07
-8.4262e-07
2.06246e-07
0.00106565
-8.07041e-10
-0.00106565
1.36043e-09
-1.16404e-06
2.22965e-07
-2.23592e-07
-8.42665e-07
2.063e-07
-2.07721e-07
8.42573e-07
1.20122e-06
0.00106473
-7.51446e-10
-0.00106473
1.4553e-09
-1.19967e-06
2.28229e-07
-2.28913e-07
-8.42625e-07
2.06239e-07
-2.07677e-07
8.42476e-07
-7.89462e-10
1.45386e-09
0.00106453
-2.2345e-07
1.19593e-06
2.22784e-07
8.39837e-07
-2.04938e-07
2.03525e-07
-8.39965e-07
-8.63126e-10
-0.00106539
1.30126e-09
-1.16658e-06
2.20257e-07
-2.20802e-07
-8.39989e-07
2.03594e-07
8.39874e-07
-2.05001e-07
1.19592e-06
0.00106453
-7.81214e-10
-0.00106453
1.47813e-09
-1.19438e-06
2.22775e-07
-2.23457e-07
-8.39972e-07
2.0352e-07
-2.0495e-07
8.39836e-07
-2.0734e-07
-2.14619e-07
0.000260061
-1.1629e-06
0.000262
-0.000260061
2.08912e-07
2.16191e-07
-8.21527e-10
1.36865e-09
0.00106556
-2.20898e-07
1.16301e-06
2.20268e-07
8.39992e-07
-2.07692e-07
2.063e-07
-8.4008e-07
-8.23857e-10
-0.00106505
1.38896e-09
-1.16132e-06
2.2021e-07
-2.20842e-07
-8.39821e-07
2.06223e-07
8.3976e-07
-2.07647e-07
1.163e-06
0.00106556
-7.98493e-10
-0.00106556
1.37447e-09
-1.16143e-06
2.20263e-07
-2.20903e-07
-8.40089e-07
2.06292e-07
-2.07706e-07
8.39986e-07
-0.000260073
2.11218e-07
2.16394e-07
1.19961e-06
1.16404e-06
-2.07173e-07
-2.148e-07
0.000260079
-1.20118e-06
-1.16562e-06
0.00026202
-0.000260079
2.08746e-07
2.16375e-07
1.48677e-09
0.00106462
-2.26188e-07
1.20117e-06
2.25491e-07
8.39817e-07
-2.04942e-07
-8.39933e-07
2.03524e-07
-1.20494e-06
-9.02274e-10
1.34593e-09
0.00106505
-2.28893e-07
1.20654e-06
2.28277e-07
8.45331e-07
-2.07665e-07
-8.45394e-07
2.06316e-07
0.00106462
-7.95885e-10
-0.00106462
1.45192e-09
-1.19961e-06
2.255e-07
-2.26182e-07
-8.39939e-07
2.03522e-07
-2.04947e-07
8.39814e-07
1.20654e-06
0.00106505
-7.87057e-10
-0.00106505
1.42356e-09
-1.20495e-06
2.28262e-07
-2.28922e-07
-8.45433e-07
2.0629e-07
-2.07711e-07
8.4531e-07
-2.09796e-07
-2.1214e-07
0.000260099
-1.16823e-06
0.000262049
-0.000260099
2.11465e-07
2.13731e-07
1.36657e-09
0.00106565
-2.23594e-07
1.16562e-06
2.22962e-07
8.42571e-07
-2.07722e-07
-8.42665e-07
2.06299e-07
-1.19966e-06
-7.56131e-10
1.45864e-09
0.00106473
-2.28913e-07
1.20122e-06
2.28228e-07
8.4248e-07
-2.07673e-07
-8.42621e-07
2.06245e-07
0.00106565
-8.21832e-10
-0.00106565
1.37092e-09
-1.16404e-06
2.22963e-07
-2.23595e-07
-8.42663e-07
2.06303e-07
-2.0772e-07
8.42575e-07
1.20122e-06
0.00106473
-7.53463e-10
-0.00106473
1.45191e-09
-1.19967e-06
2.2823e-07
-2.28912e-07
-8.42626e-07
2.06239e-07
-2.07677e-07
8.42476e-07
-7.88345e-10
1.46967e-09
0.00106453
-2.23454e-07
1.19592e-06
2.2278e-07
8.39837e-07
-2.04938e-07
2.03526e-07
-8.39965e-07
-8.44099e-10
-0.00106539
1.3739e-09
-1.16662e-06
2.20216e-07
-2.20842e-07
-8.39987e-07
2.03599e-07
8.39883e-07
-2.05003e-07
1.19593e-06
0.00106453
-7.71969e-10
-0.00106453
1.45603e-09
-1.19437e-06
2.2278e-07
-2.23454e-07
-8.39974e-07
2.03519e-07
-2.04951e-07
8.39835e-07
-2.07342e-07
-2.14622e-07
0.000260061
-1.1629e-06
0.000262
-0.000260061
2.08912e-07
2.16192e-07
-8.09788e-10
1.36713e-09
0.00106556
-2.20899e-07
1.16301e-06
2.20267e-07
8.3999e-07
-2.07694e-07
2.06298e-07
-8.40083e-07
-8.28696e-10
-0.00106505
1.38928e-09
-1.16132e-06
2.2021e-07
-2.20842e-07
-8.3982e-07
2.06224e-07
8.39761e-07
-2.07646e-07
1.163e-06
0.00106556
-7.94904e-10
-0.00106556
1.37294e-09
-1.16143e-06
2.20261e-07
-2.20905e-07
-8.4009e-07
2.06291e-07
-2.07707e-07
8.39985e-07
-0.000260073
2.11217e-07
2.16397e-07
1.19961e-06
1.16404e-06
-2.07178e-07
-2.14795e-07
0.000260079
-1.20118e-06
-1.16562e-06
0.00026202
-0.000260079
2.08745e-07
2.16375e-07
1.45159e-09
0.00106462
-2.26183e-07
1.20118e-06
2.25497e-07
8.39811e-07
-2.04948e-07
-8.3994e-07
2.0352e-07
-1.20495e-06
-7.63167e-10
1.43197e-09
0.00106505
-2.2893e-07
1.20653e-06
2.28249e-07
8.45298e-07
-2.07716e-07
-8.45436e-07
2.06281e-07
0.00106462
-7.94841e-10
-0.00106462
1.44872e-09
-1.19961e-06
2.25501e-07
-2.2618e-07
-8.39941e-07
2.0352e-07
-2.04949e-07
8.39812e-07
1.20653e-06
0.00106505
-7.28727e-10
-0.00106505
1.436e-09
-1.20496e-06
2.28253e-07
-2.28931e-07
-8.45446e-07
2.0627e-07
-2.07732e-07
8.45294e-07
-2.09857e-07
-2.12143e-07
0.000260099
-1.16822e-06
0.000262049
-0.000260099
2.11452e-07
2.13725e-07
1.38043e-09
0.00106565
-2.23599e-07
1.16562e-06
2.22958e-07
8.42574e-07
-2.07721e-07
-8.42663e-07
2.06301e-07
-1.19966e-06
-7.58321e-10
1.45615e-09
0.00106473
-2.28913e-07
1.20122e-06
2.28229e-07
8.42479e-07
-2.07673e-07
-8.42622e-07
2.06245e-07
0.00106565
-8.2563e-10
-0.00106565
1.38088e-09
-1.16404e-06
2.2296e-07
-2.23598e-07
-8.42664e-07
2.06302e-07
-2.0772e-07
8.42575e-07
1.20122e-06
0.00106473
-7.52868e-10
-0.00106473
1.45311e-09
-1.19967e-06
2.28228e-07
-2.28914e-07
-8.42626e-07
2.06239e-07
-2.07678e-07
8.42475e-07
-7.74491e-10
1.44611e-09
0.00106453
-2.2345e-07
1.19593e-06
2.22785e-07
8.39834e-07
-2.04941e-07
2.03523e-07
-8.39969e-07
-8.27356e-10
-0.00106539
1.38642e-09
-1.16662e-06
2.20204e-07
-2.20851e-07
-8.39989e-07
2.03596e-07
8.39879e-07
-2.05004e-07
1.19593e-06
0.00106453
-7.66362e-10
-0.00106453
1.4474e-09
-1.19437e-06
2.22786e-07
-2.23449e-07
-8.3998e-07
2.03512e-07
-2.04958e-07
8.39829e-07
-2.07343e-07
-2.14621e-07
0.000260061
-1.1629e-06
0.000262
-0.000260061
2.08911e-07
2.1619e-07
-7.86734e-10
1.3634e-09
0.00106556
-2.20902e-07
1.163e-06
2.20264e-07
8.39986e-07
-2.07698e-07
2.06294e-07
-8.40087e-07
-8.4652e-10
-0.00106505
1.38952e-09
-1.16132e-06
2.2021e-07
-2.20843e-07
-8.39818e-07
2.06227e-07
8.39764e-07
-2.07644e-07
1.16299e-06
0.00106556
-7.00525e-10
-0.00106556
1.36098e-09
-1.16144e-06
2.20256e-07
-2.2091e-07
-8.40104e-07
2.06276e-07
-2.07721e-07
8.39971e-07
-0.000260073
2.11213e-07
2.16399e-07
1.19961e-06
1.16404e-06
-2.0718e-07
-2.14795e-07
0.000260079
-1.20118e-06
-1.16562e-06
0.00026202
-0.000260079
2.08745e-07
2.16377e-07
1.44778e-09
0.00106462
-2.26182e-07
1.20118e-06
2.25499e-07
8.39811e-07
-2.04949e-07
-8.39941e-07
2.0352e-07
-1.20496e-06
-7.24961e-10
1.43309e-09
0.00106505
-2.2893e-07
1.20653e-06
2.28252e-07
8.45295e-07
-2.07725e-07
-8.45442e-07
2.06275e-07
0.00106462
-8.05216e-10
-0.00106462
1.44494e-09
-1.19961e-06
2.25503e-07
-2.26178e-07
-8.39938e-07
2.03522e-07
-2.04946e-07
8.39815e-07
1.20653e-06
0.00106505
-7.22328e-10
-0.00106505
1.43482e-09
-1.20496e-06
2.28254e-07
-2.28928e-07
-8.45446e-07
2.06268e-07
-2.07735e-07
8.45294e-07
-2.09862e-07
-2.12147e-07
0.000260099
-1.16822e-06
0.000262049
-0.000260099
2.11453e-07
2.13726e-07
1.3876e-09
0.00106565
-2.23601e-07
1.16562e-06
2.22956e-07
8.42575e-07
-2.07721e-07
-8.42663e-07
2.06302e-07
-1.19967e-06
-7.58877e-10
1.45616e-09
0.00106473
-2.28914e-07
1.20122e-06
2.28227e-07
8.4248e-07
-2.07672e-07
-8.42622e-07
2.06246e-07
0.00106565
-8.31423e-10
-0.00106565
1.3819e-09
-1.16404e-06
2.2296e-07
-2.23598e-07
-8.42661e-07
2.06304e-07
-2.07718e-07
8.42577e-07
1.20122e-06
0.00106473
-7.58636e-10
-0.00106473
1.45056e-09
-1.19967e-06
2.28228e-07
-2.28913e-07
-8.42624e-07
2.06241e-07
-2.07675e-07
8.42478e-07
-7.76808e-10
1.43728e-09
0.00106453
-2.23444e-07
1.19593e-06
2.22791e-07
8.3983e-07
-2.04947e-07
2.03517e-07
-8.39974e-07
-8.35992e-10
-0.00106539
1.37764e-09
-1.16662e-06
2.20208e-07
-2.20847e-07
-8.39987e-07
2.03599e-07
8.39881e-07
-2.05001e-07
1.19593e-06
0.00106453
-7.81554e-10
-0.00106453
1.43766e-09
-1.19436e-06
2.22791e-07
-2.23443e-07
-8.39978e-07
2.03515e-07
-2.04955e-07
8.39831e-07
-2.07343e-07
-2.14622e-07
0.000260061
-1.1629e-06
0.000262
-0.000260061
2.08914e-07
2.16191e-07
-7.03194e-10
1.35302e-09
0.00106556
-2.20906e-07
1.163e-06
2.2026e-07
8.39974e-07
-2.07711e-07
2.06281e-07
-8.40099e-07
-8.62785e-10
-0.00106505
1.38553e-09
-1.16132e-06
2.20212e-07
-2.2084e-07
-8.39814e-07
2.0623e-07
8.39767e-07
-2.0764e-07
1.163e-06
0.00106556
-7.05652e-10
-0.00106556
1.35946e-09
-1.16144e-06
2.20258e-07
-2.20908e-07
-8.40104e-07
2.06276e-07
-2.07722e-07
8.39972e-07
-0.000260073
2.11215e-07
2.16403e-07
1.19961e-06
1.16404e-06
-2.07179e-07
-2.14794e-07
0.000260079
-1.20118e-06
-1.16562e-06
0.00026202
-0.000260079
2.08745e-07
2.16377e-07
1.44563e-09
0.00106462
-2.2618e-07
1.20118e-06
2.255e-07
8.39813e-07
-2.04946e-07
-8.39938e-07
2.03522e-07
-1.20496e-06
-7.20899e-10
1.43132e-09
0.00106505
-2.28929e-07
1.20653e-06
2.28253e-07
8.45294e-07
-2.07726e-07
-8.45442e-07
2.06274e-07
0.00106462
-8.07675e-10
-0.00106462