/*--------------------------------*- C++ -*----------------------------------*\
| =========                 |                                                 |
| \\      /  F ield         | OpenFOAM: The Open Source CFD Toolbox           |
|  \\    /   O peration     | Version:  2206                                  |
|   \\  /    A nd           | Website:  www.openfoam.com                      |
|    \\/     M anipulation  |                                                 |
\*---------------------------------------------------------------------------*/
FoamFile
{
    version     2.0;
    format      ascii;
    arch        "LSB;label=32;scalar=64";
    class       volScalarField;
    location    "25";
    object      epsilon;
}
// * * * * * * * * * * * * * * * * * * * * * * * * * * * * * * * * * * * * * //

dimensions      [0 2 -3 0 0 0 0];

internalField   nonuniform List<scalar> 
28688
(
4.95543e-07
4.97326e-07
4.97326e-07
4.99575e-07
4.45501e-07
4.53701e-07
4.53703e-07
4.63708e-07
4.03882e-07
4.1858e-07
4.18584e-07
4.39437e-07
3.68547e-07
3.88593e-07
3.88599e-07
4.1762e-07
3.37287e-07
3.6192e-07
3.61928e-07
3.9612e-07
3.11502e-07
3.36085e-07
3.36094e-07
3.703e-07
3.03573e-07
3.28062e-07
3.2807e-07
3.59698e-07
3.02644e-07
3.27271e-07
3.27279e-07
3.59224e-07
3.02602e-07
3.27234e-07
3.27243e-07
3.59193e-07
3.02602e-07
3.27235e-07
3.27243e-07
3.59214e-07
3.02602e-07
3.27235e-07
3.27244e-07
3.59211e-07
3.02602e-07
3.27235e-07
3.27243e-07
3.59208e-07
5.06421e-07
5.05589e-07
5.05587e-07
5.06421e-07
5.05588e-07
5.05587e-07
5.09661e-07
5.0966e-07
5.0966e-07
5.0966e-07
5.05589e-07
5.05589e-07
5.06421e-07
5.05589e-07
5.05588e-07
5.06421e-07
4.99575e-07
4.6724e-07
4.97326e-07
4.97331e-07
4.63742e-07
4.6375e-07
4.99575e-07
4.67238e-07
4.9733e-07
4.97332e-07
4.63747e-07
4.63753e-07
4.97327e-07
4.63738e-07
4.63743e-07
4.99575e-07
4.67244e-07
4.9733e-07
4.6374e-07
4.63748e-07
4.67243e-07
4.63707e-07
4.41465e-07
4.53706e-07
4.53715e-07
4.26849e-07
4.26857e-07
4.63706e-07
4.41459e-07
4.53711e-07
4.53718e-07
4.2685e-07
4.26862e-07
4.53708e-07
4.2684e-07
4.26851e-07
4.6371e-07
4.4147e-07
4.53711e-07
4.26845e-07
4.26851e-07
4.41468e-07
4.39433e-07
4.1922e-07
4.1859e-07
4.18597e-07
3.95557e-07
3.95563e-07
4.39431e-07
4.19212e-07
4.1859e-07
4.18603e-07
3.95553e-07
3.95569e-07
4.18593e-07
3.95544e-07
3.9556e-07
4.3944e-07
4.19226e-07
4.18591e-07
3.9555e-07
3.95554e-07
4.19224e-07
4.17615e-07
3.97737e-07
3.88608e-07
3.88613e-07
3.68789e-07
3.68793e-07
4.17609e-07
3.97727e-07
3.88602e-07
3.8862e-07
3.6878e-07
3.688e-07
3.88611e-07
3.68773e-07
3.68792e-07
4.17622e-07
3.97743e-07
3.88604e-07
3.6878e-07
3.68782e-07
3.97741e-07
3.96115e-07
3.72127e-07
3.61939e-07
3.61942e-07
3.41214e-07
3.41219e-07
3.96108e-07
3.72118e-07
3.61928e-07
3.6195e-07
3.41203e-07
3.41227e-07
3.61942e-07
3.41197e-07
3.41217e-07
3.96122e-07
3.72134e-07
3.6193e-07
3.41205e-07
3.41203e-07
3.72132e-07
3.70294e-07
3.59565e-07
3.36104e-07
3.3611e-07
3.28828e-07
3.28833e-07
3.7029e-07
3.59558e-07
3.36093e-07
3.36118e-07
3.28816e-07
3.28842e-07
3.36108e-07
3.28811e-07
3.28832e-07
3.70301e-07
3.59573e-07
3.36093e-07
3.28819e-07
3.28816e-07
3.59571e-07
3.59693e-07
3.58984e-07
3.2808e-07
3.28086e-07
3.27347e-07
3.27352e-07
3.59687e-07
3.58976e-07
3.28068e-07
3.28094e-07
3.27334e-07
3.27361e-07
3.28085e-07
3.2733e-07
3.27351e-07
3.59701e-07
3.58992e-07
3.28068e-07
3.27338e-07
3.27334e-07
3.5899e-07
3.5922e-07
3.58931e-07
3.2729e-07
3.27296e-07
3.27252e-07
3.27256e-07
3.59213e-07
3.58924e-07
3.27278e-07
3.27304e-07
3.27238e-07
3.27265e-07
3.27295e-07
3.27234e-07
3.27255e-07
3.59228e-07
3.5894e-07
3.27277e-07
3.27242e-07
3.27237e-07
3.58938e-07
3.59188e-07
3.5896e-07
3.27255e-07
3.27259e-07
3.27255e-07
3.27258e-07
3.59182e-07
3.58953e-07
3.27241e-07
3.27267e-07
3.2724e-07
3.27267e-07
3.27258e-07
3.27236e-07
3.27257e-07
3.59197e-07
3.58969e-07
3.2724e-07
3.27244e-07
3.2724e-07
3.58967e-07
3.5921e-07
3.58951e-07
3.27256e-07
3.2726e-07
3.27256e-07
3.27258e-07
3.59204e-07
3.58945e-07
3.27242e-07
3.27268e-07
3.2724e-07
3.27266e-07
3.27258e-07
3.27235e-07
3.27257e-07
3.59219e-07
3.5896e-07
3.27241e-07
3.27244e-07
3.2724e-07
3.5896e-07
3.59205e-07
3.58952e-07
3.27258e-07
3.27261e-07
3.27255e-07
3.27258e-07
3.592e-07
3.58945e-07
3.27243e-07
3.27269e-07
3.2724e-07
3.27266e-07
3.2726e-07
3.27235e-07
3.27257e-07
3.59214e-07
3.58961e-07
3.27242e-07
3.27243e-07
3.27239e-07
3.58958e-07
3.59203e-07
3.58954e-07
3.27257e-07
3.27261e-07
3.27257e-07
3.59198e-07
3.27242e-07
3.27268e-07
3.27243e-07
3.27269e-07
3.27259e-07
3.27259e-07
3.59213e-07
3.58962e-07
3.27241e-07
3.27247e-07
3.27242e-07
3.5896e-07
5.35667e-07
5.35603e-07
5.35658e-07
5.35658e-07
5.34573e-07
5.35518e-07
5.33634e-07
5.35656e-07
5.34573e-07
5.35518e-07
5.35656e-07
5.33634e-07
5.35261e-07
5.35987e-07
5.35987e-07
1.10765e-06
3.88236e-06
9.33338e-07
4.60412e-06
1.26082e-05
1.65935e-05
1.10778e-06
3.88261e-06
9.33361e-07
4.60446e-06
4.95543e-07
4.95543e-07
4.95543e-07
4.5728e-07
4.57279e-07
4.5728e-07
4.5728e-07
5.4325e-07
1.22024e-06
4.95547e-07
4.85509e-07
5.25221e-07
1.20971e-06
4.82285e-07
1.26098e-05
1.65957e-05
5.43274e-07
4.95547e-07
1.22021e-06
4.8551e-07
5.25198e-07
4.82286e-07
1.2097e-06
2.52159e-06
2.52229e-06
4.84188e-07
2.37281e-06
2.37321e-06
1.43121e-06
5.59567e-06
1.32845e-06
6.13262e-06
2.12946e-05
2.31039e-05
1.4317e-06
5.59635e-06
1.32847e-06
6.13323e-06
4.45501e-07
4.45502e-07
4.45502e-07
4.13738e-07
4.13737e-07
4.13738e-07
4.13738e-07
5.87044e-07
1.19487e-06
4.46377e-07
4.44223e-07
5.73652e-07
1.20432e-06
4.35592e-07
2.12972e-05
2.31073e-05
5.8706e-07
4.46378e-07
1.19488e-06
4.44226e-07
5.73651e-07
4.35594e-07
1.20441e-06
2.31156e-06
2.31206e-06
4.53475e-07
2.35299e-06
2.35345e-06
1.66714e-06
6.91881e-06
1.59279e-06
7.31891e-06
2.46461e-05
2.49304e-05
1.6675e-06
6.91969e-06
1.59244e-06
7.31978e-06
4.03882e-07
4.03883e-07
4.03883e-07
3.76468e-07
3.76467e-07
3.76469e-07
3.76468e-07
6.15645e-07
1.24231e-06
4.06654e-07
4.10545e-07
6.08248e-07
1.26607e-06
3.97613e-07
2.46496e-05
2.49338e-05
6.15682e-07
4.06655e-07
1.2424e-06
4.1055e-07
6.08249e-07
3.97615e-07
1.26624e-06
2.47019e-06
2.47065e-06
4.30178e-07
2.53601e-06
2.53648e-06
1.81556e-06
7.85257e-06
1.77127e-06
8.09223e-06
2.47476e-05
2.44179e-05
1.81591e-06
7.85362e-06
1.77113e-06
8.09345e-06
3.68547e-07
3.68549e-07
3.68549e-07
3.45371e-07
3.45369e-07
3.45372e-07
3.45371e-07
6.26515e-07
1.31381e-06
3.7363e-07
3.81892e-07
6.24456e-07
1.33267e-06
3.66492e-07
2.47505e-05
2.44209e-05
6.26535e-07
3.73632e-07
1.3139e-06
3.81898e-07
6.24463e-07
3.66495e-07
1.33282e-06
2.63797e-06
2.63847e-06
4.08559e-07
2.67528e-06
2.67579e-06
1.89534e-06
8.40384e-06
1.87569e-06
8.517e-06
2.36912e-05
2.32516e-05
1.89549e-06
8.4051e-06
1.87572e-06
8.51837e-06
3.37287e-07
3.3729e-07
3.37289e-07
3.16203e-07
3.16201e-07
3.16204e-07
3.16203e-07
6.22088e-07
1.37609e-06
3.44706e-07
3.54741e-07
6.24946e-07
1.37422e-06
3.374e-07
2.36937e-05
2.3254e-05
6.2211e-07
3.44708e-07
1.37622e-06
3.54749e-07
6.24962e-07
3.37403e-07
1.37445e-06
2.77167e-06
2.77219e-06
3.86083e-07
2.78244e-06
2.78297e-06
1.7284e-06
8.63674e-06
1.78343e-06
8.7288e-06
2.30337e-05
2.3068e-05
1.7285e-06
8.63806e-06
1.78329e-06
8.73008e-06
3.11503e-07
3.11506e-07
3.11505e-07
3.04421e-07
3.04422e-07
3.04425e-07
3.04423e-07
5.76088e-07
1.34064e-06
3.19715e-07
3.32464e-07
5.91882e-07
1.3388e-06
3.16237e-07
2.30357e-05
2.30691e-05
5.76094e-07
3.19717e-07
1.34057e-06
3.32473e-07
5.91884e-07
3.1624e-07
1.3389e-06
2.75876e-06
2.75929e-06
3.62551e-07
2.81156e-06
2.81216e-06
1.72344e-06
8.81196e-06
1.722e-06
8.82143e-06
2.31398e-05
2.31476e-05
1.72334e-06
8.81336e-06
1.72177e-06
8.82274e-06
3.03574e-07
3.03577e-07
3.03575e-07
3.02709e-07
3.02708e-07
3.02711e-07
3.02709e-07
5.71958e-07
1.36603e-06
3.11648e-07
3.2766e-07
5.71848e-07
1.3706e-06
3.11192e-07
2.31407e-05
2.31479e-05
5.71951e-07
3.1165e-07
1.36593e-06
3.27668e-07
5.71842e-07
3.11194e-07
1.37059e-06
2.89379e-06
2.89445e-06
3.59102e-07
2.90596e-06
2.90666e-06
1.72468e-06
8.82409e-06
1.72511e-06
8.82378e-06
2.31503e-05
2.31502e-05
1.72455e-06
8.82545e-06
1.72492e-06
8.82511e-06
3.02646e-07
3.02648e-07
3.02647e-07
3.02602e-07
3.02604e-07
3.02607e-07
3.02605e-07
5.72262e-07
1.37334e-06
3.10763e-07
3.27246e-07
5.72385e-07
1.37276e-06
3.10739e-07
2.31508e-05
2.31506e-05
5.72256e-07
3.10765e-07
1.37326e-06
3.27254e-07
5.72378e-07
3.10741e-07
1.37272e-06
2.9111e-06
2.91179e-06
3.58941e-07
2.9108e-06
2.9115e-06
1.72474e-06
8.82415e-06
1.72527e-06
8.82376e-06
2.31505e-05
2.31503e-05
1.72461e-06
8.82549e-06
1.72509e-06
8.82508e-06
3.02606e-07
3.02609e-07
3.02607e-07
3.02602e-07
3.02604e-07
3.02607e-07
3.02605e-07
5.72291e-07
1.37357e-06
3.10727e-07
3.27238e-07
5.72429e-07
1.37284e-06
3.1073e-07
2.31509e-05
2.31506e-05
5.72285e-07
3.10728e-07
1.37349e-06
3.27246e-07
5.72423e-07
3.10731e-07
1.3728e-06
2.91138e-06
2.91207e-06
3.58962e-07
2.91089e-06
2.91158e-06
1.72476e-06
8.82401e-06
1.7253e-06
8.82349e-06
2.31505e-05
2.31503e-05
1.72463e-06
8.82535e-06
1.72511e-06
8.82489e-06
3.02606e-07
3.02608e-07
3.02607e-07
3.02603e-07
3.02604e-07
3.02607e-07
3.02605e-07
5.72299e-07
1.37359e-06
3.10726e-07
3.27237e-07
5.72447e-07
1.37285e-06
3.10728e-07
2.3151e-05
2.31506e-05
5.72293e-07
3.10728e-07
1.37352e-06
3.27245e-07
5.72442e-07
3.1073e-07
1.37282e-06
2.91141e-06
2.9121e-06
3.58956e-07
2.9109e-06
2.9116e-06
1.72476e-06
8.82384e-06
1.7253e-06
8.82349e-06
2.31505e-05
2.31503e-05
1.72463e-06
8.82525e-06
1.72512e-06
8.82482e-06
3.02606e-07
3.02609e-07
3.02607e-07
3.02602e-07
3.02604e-07
3.02607e-07
3.02605e-07
5.723e-07
1.37359e-06
3.10726e-07
3.27237e-07
5.72449e-07
1.37285e-06
3.10728e-07
2.3151e-05
2.31506e-05
5.72294e-07
3.10728e-07
1.37352e-06
3.27245e-07
5.72443e-07
3.1073e-07
1.37282e-06
2.91141e-06
2.9121e-06
3.58963e-07
2.9109e-06
2.9116e-06
1.72476e-06
8.82391e-06
1.7253e-06
8.82354e-06
2.31505e-05
2.31503e-05
1.72463e-06
8.8252e-06
1.72512e-06
8.82477e-06
3.02606e-07
3.02608e-07
3.02607e-07
3.02606e-07
3.02609e-07
3.02609e-07
3.02608e-07
5.72299e-07
1.37359e-06
3.10726e-07
3.27236e-07
5.72445e-07
1.37285e-06
3.10728e-07
2.3151e-05
2.31506e-05
5.72293e-07
3.10728e-07
1.37352e-06
3.27245e-07
5.72441e-07
3.1073e-07
1.37282e-06
2.91141e-06
2.9121e-06
3.58961e-07
2.9109e-06
2.9116e-06
5.35261e-07
5.3599e-07
5.35988e-07
1.0916e-05
5.81346e-07
1.09173e-05
5.81338e-07
5.282e-07
2.43137e-06
2.43229e-06
5.40833e-07
5.4083e-07
5.34573e-07
5.35518e-07
5.33635e-07
5.35656e-07
5.34573e-07
5.35518e-07
5.33634e-07
5.35656e-07
5.30398e-07
3.47219e-06
5.68207e-07
8.21577e-07
5.30397e-07
3.47221e-06
5.68206e-07
8.21542e-07
5.29522e-07
5.28377e-07
1.16685e-06
5.0961e-07
5.32664e-07
5.28353e-07
5.19219e-07
5.29522e-07
5.28377e-07
1.16699e-06
5.0961e-07
5.32664e-07
5.28353e-07
5.19221e-07
5.35261e-07
5.35989e-07
5.35988e-07
1.09162e-05
5.81325e-07
5.28201e-07
2.43183e-06
2.43198e-06
5.40834e-07
5.4083e-07
1.09169e-05
5.81319e-07
5.34573e-07
5.35518e-07
5.33635e-07
5.35656e-07
5.34573e-07
5.35518e-07
5.35656e-07
5.33635e-07
5.30398e-07
3.47253e-06
5.68204e-07
8.21728e-07
5.29522e-07
5.28377e-07
1.16711e-06
5.0961e-07
5.32663e-07
5.28353e-07
5.19227e-07
5.30398e-07
3.47262e-06
5.68202e-07
8.2163e-07
5.29522e-07
5.28377e-07
5.0961e-07
1.16702e-06
5.28353e-07
5.32663e-07
5.19221e-07
5.35667e-07
5.35603e-07
5.35658e-07
5.35658e-07
5.35667e-07
5.35603e-07
5.35658e-07
5.35658e-07
5.35667e-07
5.35603e-07
5.35658e-07
5.35658e-07
5.28432e-07
5.28375e-07
5.09736e-07
5.09736e-07
5.28407e-07
5.28407e-07
5.09792e-07
5.28432e-07
5.28375e-07
5.09736e-07
5.09736e-07
5.28407e-07
5.28407e-07
5.09792e-07
5.28432e-07
5.28375e-07
5.09736e-07
5.09736e-07
5.28407e-07
5.28407e-07
5.09792e-07
5.28432e-07
5.28375e-07
5.09736e-07
5.09736e-07
5.28407e-07
5.28407e-07
5.09792e-07
5.34573e-07
5.35518e-07
5.35656e-07
5.33635e-07
5.29522e-07
5.28377e-07
1.16706e-06
5.0961e-07
5.32663e-07
5.28353e-07
5.19225e-07
5.30398e-07
3.47241e-06
5.68198e-07
8.21632e-07
5.29522e-07
5.28377e-07
5.0961e-07
1.16693e-06
5.28353e-07
5.32662e-07
5.19221e-07
5.30398e-07
3.47255e-06
5.68202e-07
8.21577e-07
5.35261e-07
5.35987e-07
5.35986e-07
1.09175e-05
5.81335e-07
5.282e-07
2.43211e-06
2.43195e-06
5.4083e-07
5.40827e-07
1.09173e-05
5.81314e-07
5.34573e-07
5.35518e-07
5.35656e-07
5.33634e-07
5.29522e-07
5.28377e-07
5.09611e-07
1.16699e-06
5.28353e-07
5.32662e-07
5.19224e-07
5.29522e-07
5.28377e-07
5.0961e-07
1.16711e-06
5.28353e-07
5.32663e-07
5.19227e-07
5.30397e-07
3.47257e-06
5.68196e-07
8.21708e-07
5.30397e-07
3.47259e-06
5.68207e-07
8.21795e-07
5.282e-07
2.43175e-06
2.43242e-06
5.40828e-07
5.40829e-07
1.09172e-05
5.81318e-07
1.09174e-05
5.81332e-07
1.2608e-05
1.65925e-05
1.26096e-05
1.65952e-05
2.52154e-06
2.52228e-06
4.84187e-07
2.37249e-06
2.3732e-06
2.05232e-05
1.76946e-05
2.05266e-05
1.76976e-05
4.793e-07
2.30581e-06
2.30646e-06
2.33913e-06
2.33987e-06
1.1075e-06
3.88231e-06
9.3345e-07
4.60402e-06
5.43234e-07
1.22011e-06
4.95547e-07
4.85511e-07
5.25235e-07
1.20964e-06
4.82285e-07
5.43231e-07
1.22029e-06
4.95547e-07
4.85518e-07
5.25242e-07
1.20988e-06
4.82285e-07
1.16033e-06
5.40536e-06
4.81241e-06
1.28082e-06
1.16044e-06
5.40532e-06
4.81243e-06
1.28084e-06
5.50903e-07
4.74326e-07
1.19329e-06
4.57803e-07
1.20461e-06
4.69754e-07
5.66389e-07
5.50904e-07
4.74334e-07
1.19346e-06
4.57803e-07
1.20477e-06
4.69754e-07
5.66386e-07
2.52202e-06
2.52177e-06
4.84186e-07
2.37309e-06
2.3726e-06
1.26087e-05
1.65935e-05
2.05244e-05
1.76963e-05
4.79299e-07
2.30634e-06
2.30603e-06
2.33965e-06
2.33945e-06
2.05242e-05
1.76956e-05
5.43271e-07
1.22038e-06
4.95547e-07
4.85516e-07
5.25234e-07
1.20991e-06
4.82285e-07
1.10773e-06
3.88288e-06
9.33209e-07
4.60479e-06
5.43266e-07
4.95548e-07
1.22034e-06
4.85519e-07
5.25223e-07
4.82286e-07
1.20991e-06
1.16033e-06
5.40581e-06
4.81276e-06
1.28102e-06
5.50899e-07
4.74332e-07
1.19348e-06
4.57804e-07
1.20479e-06
4.69754e-07
5.66416e-07
1.16032e-06
5.40628e-06
4.81324e-06
1.28101e-06
5.509e-07
4.74336e-07
4.57804e-07
1.19353e-06
4.69755e-07
1.20484e-06
5.6642e-07
1.10766e-06
3.88235e-06
9.33306e-07
4.60428e-06
5.43248e-07
4.95548e-07
1.2202e-06
4.85512e-07
5.2521e-07
4.82285e-07
1.20976e-06
1.10768e-06
3.88279e-06
9.33143e-07
4.60451e-06
5.50898e-07
4.74322e-07
1.19329e-06
4.57803e-07
1.20461e-06
4.69753e-07
5.66397e-07
1.16036e-06
5.40538e-06
4.81221e-06
1.28093e-06
5.50896e-07
4.74327e-07
4.57803e-07
1.19334e-06
4.69754e-07
1.2046e-06
5.66394e-07
1.16027e-06
5.40577e-06
4.813e-06
1.2809e-06
2.52221e-06
2.5217e-06
4.84189e-07
2.37321e-06
2.37244e-06
1.26096e-05
1.65942e-05
2.05275e-05
1.76981e-05
4.793e-07
2.30653e-06
2.30598e-06
2.33979e-06
2.33933e-06
2.05253e-05
1.7697e-05
5.43282e-07
4.95548e-07
1.22037e-06
4.85517e-07
5.2521e-07
4.82285e-07
1.2099e-06
1.10794e-06
3.88276e-06
9.33074e-07
4.60459e-06
1.108e-06
3.88265e-06
9.3319e-07
4.6045e-06
5.50891e-07
4.74324e-07
4.57804e-07
1.19334e-06
4.69754e-07
1.20467e-06
5.6642e-07
5.5089e-07
4.74331e-07
4.57804e-07
1.19346e-06
4.69754e-07
1.20476e-06
5.66426e-07
1.16009e-06
5.40603e-06
4.81299e-06
1.28104e-06
1.16012e-06
5.40601e-06
4.81273e-06
1.28107e-06
1.26091e-05
1.65941e-05
1.26096e-05
1.65949e-05
4.793e-07
2.30594e-06
2.30644e-06
2.33902e-06
2.33983e-06
2.05246e-05
1.76965e-05
2.05263e-05
1.76978e-05
2.12927e-05
2.31023e-05
2.12965e-05
2.31063e-05
2.3114e-06
2.31209e-06
4.53471e-07
2.35275e-06
2.35332e-06
2.44621e-05
2.35445e-05
2.44655e-05
2.35481e-05
4.5086e-07
2.44206e-06
2.44259e-06
2.37999e-06
2.38029e-06
1.43121e-06
5.59573e-06
1.32843e-06
6.13275e-06
5.87046e-07
1.19486e-06
4.46378e-07
4.4423e-07
5.7366e-07
1.20434e-06
4.35593e-07
5.8704e-07
1.19501e-06
4.46378e-07
4.44238e-07
5.73653e-07
1.20452e-06
4.35593e-07
1.47237e-06
6.77473e-06
6.30301e-06
1.55949e-06
1.47232e-06
6.77481e-06
6.30304e-06
1.55947e-06
5.93091e-07
4.35329e-07
1.23136e-06
4.15949e-07
1.21219e-06
4.2551e-07
6.03763e-07
5.93079e-07
4.35337e-07
1.23147e-06
4.15949e-07
1.21234e-06
4.2551e-07
6.03757e-07
2.31188e-06
2.31157e-06
4.53467e-07
2.35317e-06
2.3529e-06
2.12937e-05
2.31031e-05
2.4463e-05
2.35463e-05
4.50858e-07
2.44245e-06
2.44199e-06
2.38017e-06
2.3804e-06
2.44626e-05
2.35456e-05
5.8706e-07
1.19507e-06
4.46378e-07
4.44232e-07
5.73661e-07
1.20452e-06
4.35593e-07
1.43169e-06
5.59675e-06
1.32847e-06
6.13392e-06
5.87062e-07
4.4638e-07
1.19508e-06
4.44241e-07
5.73668e-07
4.35594e-07
1.2046e-06
1.472e-06
6.77535e-06
6.30384e-06
1.55997e-06
5.93099e-07
4.35332e-07
1.23148e-06
4.1595e-07
1.21235e-06
4.2551e-07
6.03779e-07
1.472e-06
6.7761e-06
6.30424e-06
1.55998e-06
5.93099e-07
4.35342e-07
4.15951e-07
1.23154e-06
4.25512e-07
1.21248e-06
6.0379e-07
1.43139e-06
5.59569e-06
1.32841e-06
6.13274e-06
5.8705e-07
4.46379e-07
1.1949e-06
4.44231e-07
5.73657e-07
4.35593e-07
1.20445e-06
1.43126e-06
5.59631e-06
1.32851e-06
6.13328e-06
5.93084e-07
4.35322e-07
1.23127e-06
4.15948e-07
1.2122e-06
4.25509e-07
6.03764e-07
1.47222e-06
6.77486e-06
6.30303e-06
1.55954e-06
5.93086e-07
4.35331e-07
4.15949e-07
1.2314e-06
4.25511e-07
1.21227e-06
6.03768e-07
1.47225e-06
6.77551e-06
6.30371e-06
1.55956e-06
2.31213e-06
2.31133e-06
4.53476e-07
2.35349e-06
2.35288e-06
2.1295e-05
2.31047e-05
2.44668e-05
2.35497e-05
4.50864e-07
2.44271e-06
2.44213e-06
2.38097e-06
2.37997e-06
2.44638e-05
2.35471e-05
5.87057e-07
4.46379e-07
1.195e-06
4.44235e-07
5.7365e-07
4.35593e-07
1.20455e-06
1.4317e-06
5.59637e-06
1.32846e-06
6.13346e-06
1.43157e-06
5.59624e-06
1.32845e-06
6.13343e-06
5.93089e-07
4.35325e-07
4.1595e-07
1.23138e-06
4.2551e-07
1.21224e-06
6.03788e-07
5.93084e-07
4.35332e-07
4.1595e-07
1.2315e-06
4.25511e-07
1.21237e-06
6.03785e-07
1.47197e-06
6.77554e-06
6.30374e-06
1.55998e-06
1.472e-06
6.77562e-06
6.30378e-06
1.56e-06
2.12949e-05
2.31048e-05
2.12966e-05
2.31064e-05
4.50862e-07
2.44219e-06
2.44267e-06
2.37997e-06
2.38042e-06
2.4464e-05
2.35473e-05
2.44655e-05
2.35488e-05
2.46452e-05
2.49296e-05
2.46481e-05
2.49325e-05
2.47058e-06
2.47049e-06
4.30174e-07
2.5355e-06
2.53644e-06
2.48358e-05
2.49383e-05
2.48387e-05
2.49409e-05
4.28453e-07
2.61294e-06
2.61396e-06
2.55912e-06
2.55893e-06
1.66712e-06
6.91878e-06
1.59275e-06
7.3191e-06
6.15639e-07
1.24238e-06
4.06655e-07
4.10555e-07
6.08251e-07
1.26614e-06
3.97613e-07
6.15634e-07
1.24244e-06
4.06656e-07
4.10562e-07
6.08244e-07
1.26628e-06
3.97614e-07
1.69653e-06
7.75619e-06
7.43638e-06
1.74427e-06
1.6965e-06
7.75655e-06
7.43632e-06
1.74424e-06
6.1912e-07
4.02854e-07
1.30081e-06
3.8105e-07
1.27843e-06
3.89021e-07
6.22708e-07
6.19116e-07
4.0286e-07
1.30098e-06
3.81051e-07
1.27851e-06
3.89022e-07
6.22705e-07
2.47045e-06
2.47064e-06
4.30166e-07
2.5363e-06
2.53534e-06
2.46455e-05
2.49298e-05
2.48366e-05
2.49389e-05
4.2845e-07
2.61383e-06
2.61262e-06
2.55894e-06
2.55914e-06
2.48361e-05
2.49384e-05
6.15682e-07
1.24246e-06
4.06656e-07
4.10554e-07
6.08263e-07
1.2663e-06
3.97615e-07
1.6675e-06
6.92007e-06
1.59244e-06
7.32044e-06
6.15687e-07
4.06658e-07
1.24259e-06
4.10568e-07
6.08256e-07
3.97616e-07
1.26635e-06
1.69646e-06
7.75735e-06
7.4373e-06
1.7447e-06
6.19144e-07
4.02851e-07
1.30103e-06
3.81052e-07
1.27859e-06
3.89022e-07
6.22726e-07
1.69646e-06
7.75784e-06
7.43769e-06
1.74469e-06
6.19148e-07
4.02867e-07
3.81053e-07
1.30104e-06
3.89024e-07
1.27866e-06
6.22726e-07
1.66719e-06
6.91881e-06
1.59283e-06
7.31918e-06
6.15651e-07
4.06656e-07
1.24237e-06
4.10558e-07
6.0825e-07
3.97614e-07
1.26621e-06
1.66719e-06
6.91949e-06
1.59284e-06
7.31979e-06
6.19122e-07
4.02841e-07
1.30075e-06
3.81049e-07
1.27836e-06
3.89019e-07
6.22711e-07
1.69657e-06
7.75662e-06
7.4364e-06
1.74432e-06
6.19124e-07
4.02857e-07
3.81051e-07
1.30091e-06
3.89022e-07
1.27844e-06
6.22712e-07
1.69657e-06
7.75721e-06
7.43702e-06
1.74431e-06
2.47125e-06
2.47018e-06
4.30179e-07
2.53618e-06
2.53599e-06
2.46469e-05
2.49311e-05
2.48398e-05
2.49422e-05
4.2846e-07
2.61354e-06
2.61349e-06
2.55981e-06
2.55859e-06
2.48373e-05
2.49397e-05
6.15679e-07
4.06656e-07
1.24247e-06
4.10555e-07
6.08249e-07
3.97615e-07
1.26631e-06
1.66749e-06
6.91952e-06
1.59242e-06
7.31989e-06
1.66751e-06
6.91962e-06
1.59243e-06
7.31999e-06
6.19142e-07
4.02846e-07
3.81052e-07
1.30092e-06
3.89021e-07
1.27845e-06
6.22718e-07
6.19144e-07
4.02852e-07
3.81052e-07
1.30101e-06
3.89023e-07
1.27854e-06
6.22719e-07
1.69645e-06
7.75732e-06
7.43711e-06
1.74469e-06
1.69646e-06
7.7575e-06
7.43723e-06
1.7447e-06
2.46471e-05
2.49313e-05
2.46486e-05
2.49327e-05
4.28458e-07
2.6135e-06
2.61399e-06
2.55863e-06
2.55912e-06
2.48375e-05
2.49399e-05
2.48386e-05
2.49412e-05
2.47469e-05
2.44175e-05
2.4749e-05
2.44199e-05
2.63809e-06
2.63834e-06
4.08555e-07
2.67526e-06
2.6757e-06
2.38604e-05
2.42954e-05
2.38628e-05
2.42978e-05
4.06976e-07
2.75176e-06
2.75232e-06
2.69336e-06
2.69397e-06
1.81554e-06
7.85259e-06
1.77125e-06
8.09257e-06
6.26508e-07
1.31387e-06
3.73632e-07
3.81906e-07
6.24455e-07
1.33272e-06
3.66492e-07
6.26505e-07
1.31397e-06
3.73633e-07
3.81912e-07
6.24451e-07
1.33288e-06
3.66493e-07
1.82693e-06
8.35097e-06
8.16241e-06
1.85174e-06
1.82691e-06
8.3514e-06
8.16253e-06
1.85172e-06
6.26533e-07
3.75361e-07
1.36552e-06
3.52091e-07
1.34138e-06
3.59357e-07
6.24807e-07
6.26531e-07
3.75366e-07
1.36573e-06
3.52092e-07
1.34156e-06
3.59359e-07
6.24805e-07
2.63832e-06
2.63809e-06
4.08546e-07
2.67565e-06
2.67524e-06
2.47469e-05
2.44175e-05
2.38611e-05
2.42964e-05
4.06969e-07
2.75225e-06
2.75118e-06
2.69394e-06
2.69375e-06
2.38606e-05
2.42958e-05
6.26543e-07
1.31401e-06
3.73633e-07
3.819e-07
6.2447e-07
1.33292e-06
3.66495e-07
1.8159e-06
7.85392e-06
1.77114e-06
8.09389e-06
6.26543e-07
3.73636e-07
1.31411e-06
3.81918e-07
6.24471e-07
3.66496e-07
1.33295e-06
1.82681e-06
8.35234e-06
8.16359e-06
1.85211e-06
6.26561e-07
3.75353e-07
1.36575e-06
3.52093e-07
1.3416e-06
3.59358e-07
6.24834e-07
1.8268e-06
8.35259e-06
8.16386e-06
1.8521e-06
6.26562e-07
3.75373e-07
3.52095e-07
1.36561e-06
3.59361e-07
1.34174e-06
6.24833e-07
1.81561e-06
7.85268e-06
1.77132e-06
8.09268e-06
6.26516e-07
3.73633e-07
1.31389e-06
3.81909e-07
6.24455e-07
3.66493e-07
1.3328e-06
1.8156e-06
7.85325e-06
1.77131e-06
8.0932e-06
6.26538e-07
3.75345e-07
1.36534e-06
3.5209e-07
1.34144e-06
3.59356e-07
6.24812e-07
1.82698e-06
8.35148e-06
8.16266e-06
1.85179e-06
6.26538e-07
3.75364e-07
3.52091e-07
1.36564e-06
3.59358e-07
1.34147e-06
6.24812e-07
1.82697e-06
8.35194e-06
8.16315e-06
1.85177e-06
2.63886e-06
2.63795e-06
4.0856e-07
2.67604e-06
2.67527e-06
2.47483e-05
2.44186e-05
2.38638e-05
2.42991e-05
4.06982e-07
2.75215e-06
2.75185e-06
2.69452e-06
2.69355e-06
2.38618e-05
2.42972e-05
6.26536e-07
3.73634e-07
1.314e-06
3.81901e-07
6.24466e-07
3.66494e-07
1.33291e-06
1.8159e-06
7.85335e-06
1.77112e-06
8.09333e-06
1.81591e-06
7.85355e-06
1.77113e-06
8.09356e-06
6.26553e-07
3.75352e-07
3.52093e-07
1.36567e-06
3.59357e-07
1.34148e-06
6.24826e-07
6.26557e-07
3.75355e-07
3.52092e-07
1.36575e-06
3.59359e-07
1.34159e-06
6.24828e-07
1.82678e-06
8.35208e-06
8.16327e-06
1.8521e-06
1.8268e-06
8.35239e-06
8.16352e-06
1.85211e-06
2.47486e-05
2.44188e-05
2.47496e-05
2.44197e-05
4.06981e-07
2.75186e-06
2.75238e-06
2.69358e-06
2.69408e-06
2.3862e-05
2.42974e-05
2.38627e-05
2.42983e-05
2.36904e-05
2.32507e-05
2.36925e-05
2.32529e-05
2.77154e-06
2.77209e-06
3.86077e-07
2.78236e-06
2.78292e-06
2.30344e-05
2.31517e-05
2.30365e-05
2.31536e-05
3.84069e-07
2.75651e-06
2.7571e-06
2.77961e-06
2.78017e-06
1.89533e-06
8.4041e-06
1.87568e-06
8.51742e-06
6.22079e-07
1.37611e-06
3.44708e-07
3.54759e-07
6.24941e-07
1.37435e-06
3.374e-07
6.22076e-07
1.3763e-06
3.4471e-07
3.54763e-07
6.2494e-07
1.37452e-06
3.37401e-07
1.88939e-06
8.60658e-06
8.53962e-06
1.80617e-06
1.88939e-06
8.607e-06
8.53998e-06
1.80617e-06
6.19532e-07
3.47623e-07
1.3431e-06
3.2451e-07
1.37039e-06
3.3052e-07
5.97778e-07
6.19532e-07
3.47627e-07
1.34326e-06
3.24511e-07
1.37055e-06
3.30522e-07
5.9778e-07
2.77206e-06
2.77169e-06
3.86067e-07
2.78286e-06
2.78214e-06
2.36906e-05
2.3251e-05
2.30353e-05
2.31525e-05
3.84061e-07
2.75702e-06
2.75632e-06
2.78014e-06
2.7797e-06
2.30344e-05
2.31519e-05
6.2212e-07
1.37635e-06
3.44709e-07
3.54747e-07
6.2497e-07
1.37453e-06
3.37402e-07
1.89548e-06
8.40534e-06
1.87572e-06
8.51853e-06
6.22118e-07
3.44713e-07
1.37639e-06
3.5477e-07
6.2497e-07
3.37405e-07
1.37451e-06
1.88944e-06
8.60789e-06
8.54095e-06
1.8065e-06
6.19569e-07
3.47611e-07
1.3433e-06
3.24512e-07
1.37057e-06
3.30521e-07
5.97809e-07
1.88942e-06
8.60804e-06
8.54116e-06
1.80646e-06
6.19568e-07
3.47635e-07
3.24514e-07
1.34333e-06
3.30525e-07
1.37064e-06
5.97805e-07
1.89539e-06
8.40425e-06
1.87574e-06
8.5175e-06
6.2209e-07
3.44709e-07
1.37621e-06
3.54762e-07
6.24945e-07
3.37401e-07
1.37443e-06
1.89537e-06
8.40464e-06
1.87573e-06
8.5179e-06
6.19539e-07
3.47603e-07
1.34306e-06
3.24509e-07
1.37034e-06
3.30517e-07
5.9779e-07
1.88945e-06
8.60704e-06
8.54015e-06
1.80624e-06
6.19539e-07
3.47626e-07
3.2451e-07
1.34316e-06
3.30521e-07
1.37046e-06
5.97787e-07
1.88942e-06
8.60738e-06
8.54043e-06
1.80621e-06
2.77255e-06
2.77165e-06
3.86083e-07
2.78305e-06
2.78243e-06
2.36919e-05
2.32522e-05
2.30374e-05
2.31549e-05
3.84075e-07
2.7572e-06
2.75661e-06
2.78056e-06
2.77971e-06
2.30359e-05
2.31531e-05
6.22111e-07
3.4471e-07
1.37633e-06
3.54749e-07
6.24965e-07
3.37402e-07
1.37453e-06
1.89546e-06
8.40479e-06
1.87572e-06
8.51805e-06
1.89548e-06
8.40509e-06
1.87572e-06
8.51841e-06
6.19557e-07
3.47611e-07
3.24512e-07
1.34317e-06
3.30519e-07
1.37047e-06
5.97796e-07
6.19563e-07
3.47612e-07
3.24511e-07
1.34327e-06
3.30521e-07
1.37057e-06
5.97799e-07
1.8894e-06
8.60754e-06
8.54058e-06
1.80645e-06
1.88943e-06
8.60797e-06
8.54097e-06
1.80648e-06
2.36921e-05
2.32524e-05
2.36928e-05
2.3253e-05
3.84074e-07
2.75662e-06
2.75716e-06
2.77973e-06
2.78026e-06
2.30361e-05
2.31533e-05
2.30367e-05
2.31539e-05
2.30326e-05
2.30668e-05
2.30348e-05
2.30695e-05
2.75862e-06
2.75919e-06
3.62545e-07
2.81142e-06
2.81206e-06
2.31293e-05
2.30934e-05
2.31319e-05
2.30955e-05
3.62011e-07
2.8821e-06
2.88284e-06
2.83653e-06
2.83719e-06
1.72841e-06
8.63719e-06
1.78341e-06
8.7293e-06
5.76079e-07
1.34051e-06
3.19718e-07
3.32481e-07
5.91871e-07
1.33885e-06
3.16236e-07
5.76078e-07
1.34067e-06
3.19719e-07
3.32487e-07
5.91873e-07
1.339e-06
3.16238e-07
1.72413e-06
8.80242e-06
8.75567e-06
1.72083e-06
1.72413e-06
8.80297e-06
8.75618e-06
1.72083e-06
5.74392e-07
3.30173e-07
1.3596e-06
3.12482e-07
1.34511e-06
3.13914e-07
5.71666e-07
5.74391e-07
3.30179e-07
1.35976e-06
3.12483e-07
1.34526e-06
3.13916e-07
5.71663e-07
2.75918e-06
2.75867e-06
3.62536e-07
2.81197e-06
2.81114e-06
2.30328e-05
2.30661e-05
2.31307e-05
2.30947e-05
3.62004e-07
2.88271e-06
2.882e-06
2.83712e-06
2.83684e-06
2.31283e-05
2.30934e-05
5.76104e-07
1.34077e-06
3.19719e-07
3.3247e-07
5.91889e-07
1.33903e-06
3.16239e-07
1.7285e-06
8.63835e-06
1.78323e-06
8.73022e-06
5.76103e-07
3.19722e-07
1.34091e-06
3.32494e-07
5.91888e-07
3.16241e-07
1.33907e-06
1.72392e-06
8.80366e-06
8.75706e-06
1.72073e-06
5.74401e-07
3.30161e-07
1.35985e-06
3.12484e-07
1.34532e-06
3.13915e-07
5.71671e-07
1.72392e-06
8.80337e-06
8.75715e-06
1.72072e-06
5.74403e-07
3.30187e-07
3.12486e-07
1.35992e-06
3.13919e-07
1.34539e-06
5.71672e-07
1.72845e-06
8.63736e-06
1.78347e-06
8.72924e-06
5.7609e-07
3.19718e-07
1.34058e-06
3.32485e-07
5.91868e-07
3.16237e-07
1.3389e-06
1.72843e-06
8.63754e-06
1.78344e-06
8.72957e-06
5.74394e-07
3.30154e-07
1.35965e-06
3.12481e-07
1.34511e-06
3.13912e-07
5.71668e-07
1.72416e-06
8.80244e-06
8.75619e-06
1.72085e-06
5.74394e-07
3.30177e-07
3.12483e-07
1.35966e-06
3.13915e-07
1.34517e-06
5.71671e-07
1.72415e-06
8.80319e-06
8.75642e-06
1.72084e-06
2.75954e-06
2.75873e-06
3.62552e-07
2.81208e-06
2.81158e-06
2.30342e-05
2.30685e-05
2.31312e-05
2.30964e-05
3.62018e-07
2.88296e-06
2.88227e-06
2.83778e-06
2.83667e-06
2.31311e-05
2.30951e-05
5.7609e-07
3.19719e-07
1.3407e-06
3.32469e-07
5.91887e-07
3.16237e-07
1.33902e-06
1.72848e-06
8.6377e-06
1.78321e-06
8.72972e-06
1.72849e-06
8.63813e-06
1.78324e-06
8.73018e-06
5.74393e-07
3.30163e-07
3.12484e-07
1.35967e-06
3.13914e-07
1.34515e-06
5.71664e-07
5.74394e-07
3.30161e-07
3.12483e-07
1.35979e-06
3.13915e-07
1.3453e-06
5.71659e-07
1.7239e-06
8.80334e-06
8.75657e-06
1.72071e-06
1.72391e-06
8.80384e-06
8.75705e-06
1.72071e-06
2.30344e-05
2.30686e-05
2.3035e-05
2.30693e-05
3.62018e-07
2.88227e-06
2.88294e-06
2.83671e-06
2.83727e-06
2.31312e-05
2.30953e-05
2.31319e-05
2.30959e-05
2.31385e-05
2.31462e-05
2.31407e-05
2.31485e-05
2.89358e-06
2.89433e-06
3.59096e-07
2.90576e-06
2.90657e-06
2.31486e-05
2.3148e-05
2.31509e-05
2.31503e-05
3.59318e-07
2.91019e-06
2.91101e-06
2.9089e-06
2.90971e-06
1.72345e-06
8.81254e-06
1.72199e-06
8.82206e-06
5.71955e-07
1.36586e-06
3.1165e-07
3.27676e-07
5.71849e-07
1.37051e-06
3.11191e-07
5.71954e-07
1.36603e-06
3.11652e-07
3.27682e-07
5.71847e-07
1.37069e-06
3.11193e-07
1.72445e-06
8.82364e-06
8.82332e-06
1.72449e-06
1.72446e-06
8.82429e-06
8.82397e-06
1.7245e-06
5.72235e-07
3.27461e-07
1.37234e-06
3.10824e-07
1.3721e-06
3.10949e-07
5.72214e-07
5.72235e-07
3.27467e-07
1.37253e-06
3.10826e-07
1.37229e-06
3.1095e-07
5.72214e-07
2.89424e-06
2.89401e-06
3.59089e-07
2.90642e-06
2.90592e-06
2.31379e-05
2.31451e-05
2.31499e-05
2.31493e-05
3.59311e-07
2.91085e-06
2.91031e-06
2.90958e-06
2.90918e-06
2.31475e-05
2.31469e-05
5.71957e-07
1.36615e-06
3.11651e-07
3.27664e-07
5.7185e-07
1.3708e-06
3.11193e-07
1.72335e-06
8.81305e-06
1.72176e-06
8.82237e-06
5.71958e-07
3.11654e-07
1.36631e-06
3.2769e-07
5.71853e-07
3.11195e-07
1.37086e-06
1.72423e-06
8.82498e-06
8.82468e-06
1.72435e-06
5.72234e-07
3.27449e-07
1.37264e-06
3.10826e-07
1.37239e-06
3.10949e-07
5.72218e-07
1.72423e-06
8.82461e-06
8.82432e-06
1.72435e-06
5.72236e-07
3.27475e-07
3.10828e-07
1.37273e-06
3.10953e-07
1.37254e-06
5.72218e-07
1.72348e-06
8.81214e-06
1.72201e-06
8.82151e-06
5.71961e-07
3.11651e-07
1.36593e-06
3.2768e-07
5.71852e-07
3.11192e-07
1.37058e-06
1.72347e-06
8.81275e-06
1.72201e-06
8.82226e-06
5.72237e-07
3.27443e-07
1.37247e-06
3.10824e-07
1.37227e-06
3.10947e-07
5.72218e-07
1.72449e-06
8.82379e-06
8.82348e-06
1.72452e-06
5.72239e-07
3.27465e-07
3.10825e-07
1.37242e-06
3.10949e-07
1.37219e-06
5.7222e-07
1.72448e-06
8.82449e-06
8.82417e-06
1.72451e-06
2.89488e-06
2.89376e-06
3.59104e-07
2.90678e-06
2.90595e-06
2.31402e-05
2.31479e-05
2.31503e-05
2.31498e-05
3.59326e-07
2.91119e-06
2.91038e-06
2.91003e-06
2.9091e-06
2.31502e-05