/*--------------------------------*- C++ -*----------------------------------*\
| =========                 |                                                 |
| \\      /  F ield         | OpenFOAM: The Open Source CFD Toolbox           |
|  \\    /   O peration     | Version:  2206                                  |
|   \\  /    A nd           | Website:  www.openfoam.com                      |
|    \\/     M anipulation  |                                                 |
\*---------------------------------------------------------------------------*/
FoamFile
{
    version     2.0;
    format      ascii;
    arch        "LSB;label=32;scalar=64";
    class       volScalarField;
    location    "25";
    object      k;
}
// * * * * * * * * * * * * * * * * * * * * * * * * * * * * * * * * * * * * * //

dimensions      [0 2 -2 0 0 0 0];

internalField   nonuniform List<scalar> 
28688
(
3.58924e-05
3.58911e-05
3.58911e-05
3.59957e-05
3.39271e-05
3.38882e-05
3.38882e-05
3.39628e-05
3.21652e-05
3.20145e-05
3.20144e-05
3.19551e-05
3.05419e-05
3.0229e-05
3.0229e-05
2.99891e-05
2.89887e-05
2.85246e-05
2.85244e-05
2.81431e-05
2.76772e-05
2.70612e-05
2.70611e-05
2.6442e-05
2.73577e-05
2.68646e-05
2.68645e-05
2.6284e-05
2.73353e-05
2.68846e-05
2.68844e-05
2.63671e-05
2.73354e-05
2.68877e-05
2.68876e-05
2.63745e-05
2.73354e-05
2.68882e-05
2.68881e-05
2.63752e-05
2.73355e-05
2.68884e-05
2.68883e-05
2.63753e-05
2.73355e-05
2.68885e-05
2.68884e-05
2.63753e-05
3.63068e-05
3.62911e-05
3.62911e-05
3.63068e-05
3.62911e-05
3.62911e-05
3.64235e-05
3.64235e-05
3.64235e-05
3.64235e-05
3.62911e-05
3.62911e-05
3.63068e-05
3.62911e-05
3.62911e-05
3.63068e-05
3.59957e-05
3.42685e-05
3.58911e-05
3.58911e-05
3.43782e-05
3.43782e-05
3.59957e-05
3.42685e-05
3.58911e-05
3.58911e-05
3.43783e-05
3.43782e-05
3.58911e-05
3.43783e-05
3.43782e-05
3.59958e-05
3.42685e-05
3.58911e-05
3.43783e-05
3.43782e-05
3.42685e-05
3.39628e-05
3.2263e-05
3.38881e-05
3.38881e-05
3.24729e-05
3.24728e-05
3.39628e-05
3.22631e-05
3.38881e-05
3.38881e-05
3.2473e-05
3.24728e-05
3.38881e-05
3.24731e-05
3.24729e-05
3.39628e-05
3.2263e-05
3.38881e-05
3.2473e-05
3.24729e-05
3.2263e-05
3.19551e-05
3.02892e-05
3.20143e-05
3.20142e-05
3.0651e-05
3.06509e-05
3.19551e-05
3.02893e-05
3.20144e-05
3.20141e-05
3.06511e-05
3.06508e-05
3.20143e-05
3.06513e-05
3.0651e-05
3.19551e-05
3.02891e-05
3.20143e-05
3.06512e-05
3.06511e-05
3.02892e-05
2.99892e-05
2.84301e-05
3.02287e-05
3.02286e-05
2.89853e-05
2.89851e-05
2.99892e-05
2.84303e-05
3.02289e-05
3.02285e-05
2.89855e-05
2.8985e-05
3.02287e-05
2.89857e-05
2.89853e-05
2.99891e-05
2.843e-05
3.02289e-05
2.89856e-05
2.89855e-05
2.843e-05
2.81432e-05
2.6603e-05
2.85241e-05
2.85239e-05
2.72907e-05
2.72905e-05
2.81433e-05
2.66032e-05
2.85244e-05
2.85238e-05
2.7291e-05
2.72903e-05
2.85241e-05
2.72912e-05
2.72906e-05
2.81431e-05
2.66029e-05
2.85243e-05
2.72911e-05
2.72909e-05
2.66029e-05
2.64422e-05
2.62743e-05
2.70608e-05
2.70605e-05
2.6864e-05
2.68638e-05
2.64423e-05
2.62744e-05
2.7061e-05
2.70604e-05
2.68642e-05
2.68637e-05
2.70607e-05
2.68644e-05
2.68639e-05
2.6442e-05
2.62742e-05
2.7061e-05
2.68643e-05
2.68642e-05
2.62741e-05
2.62843e-05
2.6369e-05
2.68643e-05
2.68641e-05
2.68815e-05
2.68814e-05
2.62843e-05
2.6369e-05
2.68645e-05
2.6864e-05
2.68818e-05
2.68813e-05
2.68642e-05
2.68819e-05
2.68815e-05
2.62841e-05
2.63688e-05
2.68645e-05
2.68818e-05
2.68818e-05
2.6369e-05
2.63672e-05
2.63776e-05
2.68844e-05
2.68843e-05
2.68871e-05
2.6887e-05
2.63673e-05
2.63776e-05
2.68846e-05
2.68841e-05
2.68874e-05
2.68868e-05
2.68844e-05
2.68875e-05
2.68871e-05
2.6367e-05
2.63773e-05
2.68847e-05
2.68873e-05
2.68874e-05
2.63777e-05
2.63746e-05
2.63786e-05
2.68874e-05
2.68874e-05
2.68877e-05
2.68877e-05
2.63746e-05
2.63786e-05
2.68877e-05
2.68871e-05
2.6888e-05
2.68875e-05
2.68875e-05
2.68881e-05
2.68878e-05
2.63743e-05
2.63784e-05
2.68878e-05
2.6888e-05
2.68881e-05
2.63786e-05
2.63754e-05
2.63788e-05
2.68879e-05
2.68879e-05
2.6888e-05
2.6888e-05
2.63754e-05
2.63787e-05
2.68882e-05
2.68876e-05
2.68883e-05
2.68878e-05
2.6888e-05
2.68883e-05
2.68881e-05
2.63751e-05
2.63785e-05
2.68883e-05
2.68882e-05
2.68884e-05
2.63788e-05
2.63755e-05
2.63788e-05
2.68882e-05
2.68882e-05
2.68882e-05
2.68881e-05
2.63754e-05
2.63787e-05
2.68885e-05
2.6888e-05
2.68885e-05
2.68879e-05
2.68883e-05
2.68885e-05
2.68882e-05
2.63753e-05
2.63785e-05
2.68886e-05
2.68884e-05
2.68885e-05
2.63788e-05
2.63755e-05
2.6379e-05
2.68883e-05
2.68882e-05
2.68884e-05
2.63755e-05
2.68886e-05
2.6888e-05
2.68886e-05
2.68881e-05
2.68883e-05
2.68884e-05
2.63752e-05
2.63787e-05
2.68886e-05
2.68886e-05
2.68887e-05
2.63791e-05
3.73775e-05
3.73766e-05
3.73771e-05
3.73771e-05
3.737e-05
3.73777e-05
3.73043e-05
3.73769e-05
3.737e-05
3.73777e-05
3.73769e-05
3.73043e-05
3.73741e-05
3.72959e-05
3.72959e-05
3.58818e-05
4.08828e-05
3.66032e-05
4.51332e-05
5.51151e-05
6.48754e-05
3.58819e-05
4.08821e-05
3.66035e-05
4.51329e-05
3.58924e-05
3.58924e-05
3.58924e-05
3.44027e-05
3.44027e-05
3.44027e-05
3.44027e-05
3.52763e-05
3.56315e-05
3.58923e-05
3.53764e-05
3.60477e-05
3.42444e-05
3.53815e-05
5.51171e-05
6.48786e-05
3.52763e-05
3.58923e-05
3.56313e-05
3.53764e-05
3.60477e-05
3.53815e-05
3.42452e-05
3.65878e-05
3.65882e-05
3.52787e-05
3.40648e-05
3.40641e-05
3.39727e-05
5.13677e-05
3.46752e-05
5.46026e-05
7.65691e-05
8.08458e-05
3.39746e-05
5.13688e-05
3.46753e-05
5.46029e-05
3.39272e-05
3.39272e-05
3.39272e-05
3.25937e-05
3.25937e-05
3.25937e-05
3.25937e-05
3.30552e-05
3.24633e-05
3.39277e-05
3.34054e-05
3.38955e-05
3.15822e-05
3.34638e-05
7.65713e-05
8.08492e-05
3.30552e-05
3.39277e-05
3.24621e-05
3.34054e-05
3.38953e-05
3.34638e-05
3.15844e-05
3.17095e-05
3.17087e-05
3.32618e-05
3.09135e-05
3.0912e-05
3.22749e-05
5.9174e-05
3.2902e-05
6.1434e-05
8.44045e-05
8.50528e-05
3.2278e-05
5.91761e-05
3.29001e-05
6.14357e-05
3.21653e-05
3.21653e-05
3.21653e-05
3.09142e-05
3.09141e-05
3.09141e-05
3.09141e-05
3.07962e-05
3.04905e-05
3.21438e-05
3.15534e-05
3.16313e-05
2.99118e-05
3.17074e-05
8.44071e-05
8.50552e-05
3.07961e-05
3.21437e-05
3.04892e-05
3.15533e-05
3.16309e-05
3.17073e-05
2.99138e-05
3.01946e-05
3.01936e-05
3.12717e-05
3.00243e-05
3.0023e-05
3.07382e-05
6.43847e-05
3.13642e-05
6.56889e-05
8.46369e-05
8.38824e-05
3.07401e-05
6.43869e-05
3.13623e-05
6.56918e-05
3.05419e-05
3.05419e-05
3.05419e-05
2.94091e-05
2.94091e-05
2.94091e-05
2.94091e-05
2.8593e-05
2.91591e-05
3.04728e-05
2.98233e-05
2.94208e-05
2.86523e-05
3.00942e-05
8.46381e-05
8.38837e-05
2.85928e-05
3.04727e-05
2.91602e-05
2.98232e-05
2.94204e-05
3.00941e-05
2.86538e-05
2.99499e-05
2.99488e-05
2.93514e-05
3.003e-05
3.0029e-05
2.95546e-05
6.73639e-05
2.99836e-05
6.79701e-05
8.22119e-05
8.11871e-05
2.9554e-05
6.73667e-05
2.9983e-05
6.79733e-05
2.89887e-05
2.89887e-05
2.89887e-05
2.79006e-05
2.79006e-05
2.79005e-05
2.79005e-05
2.65418e-05
2.81766e-05
2.88696e-05
2.80563e-05
2.73361e-05
2.76492e-05
2.84348e-05
8.22125e-05
8.11876e-05
2.65414e-05
2.88696e-05
2.81775e-05
2.80561e-05
2.73358e-05
2.84347e-05
2.76492e-05
3.04469e-05
3.04462e-05
2.74608e-05
3.0689e-05
3.06884e-05
2.85932e-05
6.86013e-05
2.85924e-05
6.90877e-05
8.06689e-05
8.07467e-05
2.85929e-05
6.86043e-05
2.85919e-05
6.90904e-05
2.76772e-05
2.76772e-05
2.76772e-05
2.7385e-05
2.7385e-05
2.73849e-05
2.7385e-05
2.52896e-05
2.72205e-05
2.74743e-05
2.69318e-05
2.54132e-05
2.74201e-05
2.73217e-05
8.06686e-05
8.07446e-05
2.52894e-05
2.74742e-05
2.72213e-05
2.69317e-05
2.5413e-05
2.73216e-05
2.74224e-05
3.12325e-05
3.12321e-05
2.62662e-05
3.23035e-05
3.23037e-05
2.89203e-05
6.95304e-05
2.88571e-05
6.95813e-05
8.09158e-05
8.09344e-05
2.89204e-05
6.95336e-05
2.88568e-05
6.95841e-05
2.73577e-05
2.73577e-05
2.73577e-05
2.73361e-05
2.73361e-05
2.7336e-05
2.73361e-05
2.54563e-05
2.83051e-05
2.71664e-05
2.68695e-05
2.5397e-05
2.84609e-05
2.71577e-05
8.09134e-05
8.09306e-05
2.54564e-05
2.71664e-05
2.8304e-05
2.68694e-05
2.53971e-05
2.71576e-05
2.84605e-05
3.34865e-05
3.34875e-05
2.63458e-05
3.36757e-05
3.36771e-05
2.89513e-05
6.95957e-05
2.8951e-05
6.95941e-05
8.09409e-05
8.09407e-05
2.89522e-05
6.95987e-05
2.89518e-05
6.9597e-05
2.73354e-05
2.73354e-05
2.73354e-05
2.73353e-05
2.73353e-05
2.73352e-05
2.73353e-05
2.54877e-05
2.85359e-05
2.71539e-05
2.68863e-05
2.54846e-05
2.85361e-05
2.71542e-05
8.09375e-05
8.0937e-05
2.54879e-05
2.71539e-05
2.8536e-05
2.68862e-05
2.54847e-05
2.71542e-05
2.85364e-05
3.37533e-05
3.37546e-05
2.63757e-05
3.3753e-05
3.37543e-05
2.89536e-05
6.9596e-05
2.89553e-05
6.95939e-05
8.09414e-05
8.09409e-05
2.89547e-05
6.9599e-05
2.8956e-05
6.95968e-05
2.73355e-05
2.73354e-05
2.73355e-05
2.73354e-05
2.73355e-05
2.73354e-05
2.73355e-05
2.54905e-05
2.85424e-05
2.71544e-05
2.6888e-05
2.54899e-05
2.85393e-05
2.71546e-05
8.09378e-05
8.0937e-05
2.54907e-05
2.71544e-05
2.85425e-05
2.68879e-05
2.54901e-05
2.71546e-05
2.85396e-05
3.37558e-05
3.37572e-05
2.63784e-05
3.37543e-05
3.37557e-05
2.89541e-05
6.95955e-05
2.89561e-05
6.95928e-05
8.09414e-05
8.09409e-05
2.89552e-05
6.95985e-05
2.8957e-05
6.95961e-05
2.73356e-05
2.73356e-05
2.73356e-05
2.73355e-05
2.73355e-05
2.73355e-05
2.73355e-05
2.54915e-05
2.85435e-05
2.71547e-05
2.68883e-05
2.54914e-05
2.85398e-05
2.71548e-05
8.09379e-05
8.09371e-05
2.54918e-05
2.71547e-05
2.85436e-05
2.68882e-05
2.54916e-05
2.71548e-05
2.85402e-05
3.37564e-05
3.37578e-05
2.63788e-05
3.37546e-05
3.3756e-05
2.89541e-05
6.95949e-05
2.89562e-05
6.9593e-05
8.09414e-05
8.09409e-05
2.89552e-05
6.95979e-05
2.89571e-05
6.95956e-05
2.73356e-05
2.73356e-05
2.73356e-05
2.73355e-05
2.73356e-05
2.73355e-05
2.73355e-05
2.54912e-05
2.85436e-05
2.71548e-05
2.68885e-05
2.54916e-05
2.85398e-05
2.71549e-05
8.09379e-05
8.09371e-05
2.54916e-05
2.71547e-05
2.85437e-05
2.68884e-05
2.54918e-05
2.71548e-05
2.85402e-05
3.37565e-05
3.37579e-05
2.63788e-05
3.37547e-05
3.3756e-05
2.89541e-05
6.95952e-05
2.89562e-05
6.95933e-05
8.09415e-05
8.0941e-05
2.89552e-05
6.95977e-05
2.89571e-05
6.95954e-05
2.73357e-05
2.73356e-05
2.73356e-05
2.73357e-05
2.7336e-05
2.73357e-05
2.73357e-05
2.54913e-05
2.85436e-05
2.71548e-05
2.68885e-05
2.54911e-05
2.85398e-05
2.71549e-05
8.09379e-05
8.09371e-05
2.54916e-05
2.71547e-05
2.85437e-05
2.68885e-05
2.54917e-05
2.71548e-05
2.85402e-05
3.37565e-05
3.37579e-05
2.63788e-05
3.37547e-05
3.3756e-05
3.73741e-05
3.72959e-05
3.72959e-05
5.3112e-05
3.71932e-05
5.31139e-05
3.71932e-05
3.70929e-05
3.72464e-05
3.72468e-05
3.71762e-05
3.71762e-05
3.737e-05
3.73777e-05
3.73043e-05
3.73769e-05
3.737e-05
3.73777e-05
3.73043e-05
3.73769e-05
3.71732e-05
3.94122e-05
3.7168e-05
3.67255e-05
3.71732e-05
3.94121e-05
3.7168e-05
3.67256e-05
3.7096e-05
3.71021e-05
3.60311e-05
3.64214e-05
3.71636e-05
3.71109e-05
3.63054e-05
3.7096e-05
3.71021e-05
3.60314e-05
3.64214e-05
3.71636e-05
3.71109e-05
3.63054e-05
3.73741e-05
3.72959e-05
3.72959e-05
5.31121e-05
3.71933e-05
3.70929e-05
3.72471e-05
3.72462e-05
3.71762e-05
3.71762e-05
5.31136e-05
3.71933e-05
3.737e-05
3.73777e-05
3.73043e-05
3.73769e-05
3.737e-05
3.73777e-05
3.73769e-05
3.73043e-05
3.71732e-05
3.94126e-05
3.7168e-05
3.67257e-05
3.7096e-05
3.71021e-05
3.60311e-05
3.64214e-05
3.71636e-05
3.71109e-05
3.63054e-05
3.71732e-05
3.94129e-05
3.7168e-05
3.67254e-05
3.7096e-05
3.71021e-05
3.64214e-05
3.60312e-05
3.71109e-05
3.71636e-05
3.63054e-05
3.73775e-05
3.73766e-05
3.73771e-05
3.73771e-05
3.73775e-05
3.73766e-05
3.73771e-05
3.73771e-05
3.73775e-05
3.73766e-05
3.73771e-05
3.73771e-05
3.71132e-05
3.71099e-05
3.64245e-05
3.64245e-05
3.71124e-05
3.71124e-05
3.64265e-05
3.71132e-05
3.71099e-05
3.64245e-05
3.64245e-05
3.71124e-05
3.71124e-05
3.64265e-05
3.71132e-05
3.71099e-05
3.64245e-05
3.64245e-05
3.71124e-05
3.71124e-05
3.64265e-05
3.71132e-05
3.71099e-05
3.64245e-05
3.64245e-05
3.71124e-05
3.71124e-05
3.64265e-05
3.737e-05
3.73777e-05
3.73769e-05
3.73043e-05
3.7096e-05
3.71021e-05
3.6031e-05
3.64214e-05
3.71636e-05
3.71109e-05
3.63054e-05
3.71732e-05
3.94123e-05
3.7168e-05
3.67257e-05
3.7096e-05
3.71021e-05
3.64214e-05
3.60314e-05
3.71109e-05
3.71636e-05
3.63054e-05
3.71732e-05
3.94128e-05
3.7168e-05
3.67254e-05
3.73741e-05
3.72959e-05
3.72959e-05
5.31143e-05
3.71933e-05
3.70929e-05
3.72467e-05
3.72469e-05
3.71762e-05
3.71762e-05
5.31144e-05
3.71933e-05
3.737e-05
3.73777e-05
3.73769e-05
3.73043e-05
3.7096e-05
3.71021e-05
3.64214e-05
3.60314e-05
3.71109e-05
3.71636e-05
3.63054e-05
3.7096e-05
3.71021e-05
3.64214e-05
3.60314e-05
3.71109e-05
3.71636e-05
3.63054e-05
3.71732e-05
3.94127e-05
3.7168e-05
3.67255e-05
3.71732e-05
3.94127e-05
3.7168e-05
3.67257e-05
3.70929e-05
3.72466e-05
3.72473e-05
3.71762e-05
3.71762e-05
5.31142e-05
3.71933e-05
5.31141e-05
3.71932e-05
5.5115e-05
6.48749e-05
5.51168e-05
6.48779e-05
3.65877e-05
3.65888e-05
3.52787e-05
3.40646e-05
3.40638e-05
7.47122e-05
6.7696e-05
7.4716e-05
6.76999e-05
3.4973e-05
3.20343e-05
3.20324e-05
3.34581e-05
3.34582e-05
3.58816e-05
4.08821e-05
3.66034e-05
4.51317e-05
3.52762e-05
3.56316e-05
3.58923e-05
3.53764e-05
3.60477e-05
3.42449e-05
3.53815e-05
3.52762e-05
3.56313e-05
3.58923e-05
3.53764e-05
3.60477e-05
3.42456e-05
3.53815e-05
3.56305e-05
5.01977e-05
4.64689e-05
3.48984e-05
3.5631e-05
5.01965e-05
4.64684e-05
3.48988e-05
3.49988e-05
3.48733e-05
3.27386e-05
3.44036e-05
3.38543e-05
3.48871e-05
3.41811e-05
3.49988e-05
3.48733e-05
3.27395e-05
3.44035e-05
3.38533e-05
3.48871e-05
3.41813e-05
3.65879e-05
3.65885e-05
3.52787e-05
3.40648e-05
3.40631e-05
5.51162e-05
6.48768e-05
7.47131e-05
6.76983e-05
3.4973e-05
3.20336e-05
3.20326e-05
3.34575e-05
3.34591e-05
7.47143e-05
6.76983e-05
3.52763e-05
3.56315e-05
3.58923e-05
3.53764e-05
3.60478e-05
3.42448e-05
3.53815e-05
3.58816e-05
4.08833e-05
3.66031e-05
4.51342e-05
3.52762e-05
3.58923e-05
3.56316e-05
3.53764e-05
3.60477e-05
3.53815e-05
3.42448e-05
3.56307e-05
5.01975e-05
4.64686e-05
3.48991e-05
3.49988e-05
3.48733e-05
3.27383e-05
3.44036e-05
3.38536e-05
3.48871e-05
3.41814e-05
3.56306e-05
5.01991e-05
4.64706e-05
3.48988e-05
3.49988e-05
3.48733e-05
3.44036e-05
3.27382e-05
3.48871e-05
3.38539e-05
3.41812e-05
3.58818e-05
4.0881e-05
3.66033e-05
4.51333e-05
3.52762e-05
3.58923e-05
3.56313e-05
3.53764e-05
3.60477e-05
3.53815e-05
3.42456e-05
3.58818e-05
4.08836e-05
3.66029e-05
4.51335e-05
3.49989e-05
3.48733e-05
3.27377e-05
3.44036e-05
3.3854e-05
3.48871e-05
3.41813e-05
3.56309e-05
5.01968e-05
4.64666e-05
3.48989e-05
3.49988e-05
3.48733e-05
3.44036e-05
3.27394e-05
3.48871e-05
3.38531e-05
3.41812e-05
3.56304e-05
5.0198e-05
4.64706e-05
3.48987e-05
3.65881e-05
3.65877e-05
3.52787e-05
3.40637e-05
3.40642e-05
5.51172e-05
6.48768e-05
7.47167e-05
6.76998e-05
3.4973e-05
3.20329e-05
3.20343e-05
3.3458e-05
3.34578e-05
7.47147e-05
6.76997e-05
3.52763e-05
3.58923e-05
3.56313e-05
3.53764e-05
3.60478e-05
3.53815e-05
3.42453e-05
3.58821e-05
4.08829e-05
3.6603e-05
4.5134e-05
3.58824e-05
4.0882e-05
3.66034e-05
4.5133e-05
3.49988e-05
3.48733e-05
3.44036e-05
3.27393e-05
3.48871e-05
3.38534e-05
3.41813e-05
3.49988e-05
3.48733e-05
3.44036e-05
3.27392e-05
3.48871e-05
3.38529e-05
3.41814e-05
3.563e-05
5.01989e-05
4.64703e-05
3.48989e-05
3.56302e-05
5.01984e-05
4.64682e-05
3.48993e-05
5.51168e-05
6.48767e-05
5.51168e-05
6.48774e-05
3.4973e-05
3.20338e-05
3.20327e-05
3.34573e-05
3.34574e-05
7.47137e-05
6.7699e-05
7.47153e-05
6.77005e-05
7.65668e-05
8.08447e-05
7.65709e-05
8.0849e-05
3.17096e-05
3.17092e-05
3.32618e-05
3.09126e-05
3.09113e-05
8.39857e-05
8.18731e-05
8.39891e-05
8.18764e-05
3.29542e-05
3.03062e-05
3.03065e-05
3.07333e-05
3.07325e-05
3.39732e-05
5.13673e-05
3.46755e-05
5.46024e-05
3.30549e-05
3.24635e-05
3.39277e-05
3.34053e-05
3.38954e-05
3.1583e-05
3.34638e-05
3.30551e-05
3.2462e-05
3.39277e-05
3.34052e-05
3.38955e-05
3.15846e-05
3.34638e-05
3.3772e-05
5.835e-05
5.56089e-05
3.30875e-05
3.37722e-05
5.83501e-05
5.56081e-05
3.3088e-05
3.27682e-05
3.29341e-05
3.06585e-05
3.25786e-05
3.13772e-05
3.30155e-05
3.19173e-05
3.27683e-05
3.2934e-05
3.06603e-05
3.25786e-05
3.13749e-05
3.30155e-05
3.19175e-05
3.17089e-05
3.17093e-05
3.32618e-05
3.09124e-05
3.0909e-05
7.6569e-05
8.08464e-05
8.39864e-05
8.18748e-05
3.29543e-05
3.03072e-05
3.03033e-05
3.07326e-05
3.07336e-05
8.39872e-05
8.18749e-05
3.30553e-05
3.24626e-05
3.39278e-05
3.34053e-05
3.38954e-05
3.15835e-05
3.34638e-05
3.39742e-05
5.137e-05
3.46751e-05
5.46054e-05
3.30551e-05
3.39277e-05
3.24632e-05
3.34052e-05
3.38953e-05
3.34638e-05
3.15824e-05
3.37706e-05
5.83507e-05
5.56104e-05
3.309e-05
3.27681e-05
3.29341e-05
3.0659e-05
3.25786e-05
3.13754e-05
3.30155e-05
3.19177e-05
3.37704e-05
5.83531e-05
5.56109e-05
3.30895e-05
3.2768e-05
3.2934e-05
3.25786e-05
3.06578e-05
3.30155e-05
3.13769e-05
3.19174e-05
3.39736e-05
5.13668e-05
3.46754e-05
5.46022e-05
3.3055e-05
3.39277e-05
3.24623e-05
3.34053e-05
3.38955e-05
3.34638e-05
3.15849e-05
3.39729e-05
5.13693e-05
3.46754e-05
5.46037e-05
3.27683e-05
3.29342e-05
3.06577e-05
3.25787e-05
3.13768e-05
3.30155e-05
3.19175e-05
3.37716e-05
5.83501e-05
5.56077e-05
3.3088e-05
3.27682e-05
3.29341e-05
3.25786e-05
3.06606e-05
3.30155e-05
3.13752e-05
3.19173e-05
3.37715e-05
5.83519e-05
5.561e-05
3.30877e-05
3.17091e-05
3.17091e-05
3.32618e-05
3.09102e-05
3.09123e-05
7.65701e-05
8.08467e-05
8.39896e-05
8.18776e-05
3.29542e-05
3.03045e-05
3.03073e-05
3.07328e-05
3.0734e-05
8.39872e-05
8.18757e-05
3.30553e-05
3.39278e-05
3.24616e-05
3.34053e-05
3.38954e-05
3.34638e-05
3.15845e-05
3.39743e-05
5.13694e-05
3.46751e-05
5.46047e-05
3.39742e-05
5.1368e-05
3.46753e-05
5.46038e-05
3.2768e-05
3.29342e-05
3.25786e-05
3.06602e-05
3.30155e-05
3.13753e-05
3.19175e-05
3.27681e-05
3.29341e-05
3.25786e-05
3.06601e-05
3.30155e-05
3.13748e-05
3.19177e-05
3.37703e-05
5.83521e-05
5.56102e-05
3.30897e-05
3.37707e-05
5.83517e-05
5.56095e-05
3.30901e-05
7.65699e-05
8.08467e-05
7.65716e-05
8.08482e-05
3.29542e-05
3.03082e-05
3.03067e-05
3.07333e-05
3.07323e-05
8.39873e-05
8.18757e-05
8.39885e-05
8.18772e-05
8.44038e-05
8.50525e-05
8.4406e-05
8.50547e-05
3.01946e-05
3.01936e-05
3.12717e-05
3.00245e-05
3.00229e-05
8.48395e-05
8.5072e-05
8.48413e-05
8.50734e-05
3.09619e-05
2.99305e-05
2.99296e-05
2.99605e-05
2.99598e-05
3.22754e-05
5.91735e-05
3.29022e-05
6.14347e-05
3.07959e-05
3.04914e-05
3.21438e-05
3.15532e-05
3.16312e-05
2.99125e-05
3.17073e-05
3.07962e-05
3.04889e-05
3.21437e-05
3.1553e-05
3.16313e-05
2.99135e-05
3.17073e-05
3.20921e-05
6.38565e-05
6.209e-05
3.15e-05
3.20923e-05
6.3858e-05
6.20892e-05
3.15004e-05
3.05058e-05
3.10948e-05
2.92478e-05
3.08641e-05
2.97696e-05
3.12769e-05
2.96898e-05
3.0506e-05
3.10947e-05
2.92491e-05
3.08641e-05
2.97685e-05
3.12769e-05
2.969e-05
3.01941e-05
3.01928e-05
3.12718e-05
3.00235e-05
3.00233e-05
8.44048e-05
8.50533e-05
8.48394e-05
8.5072e-05
3.0962e-05
2.99302e-05
2.99281e-05
2.99602e-05
2.99594e-05
8.484e-05
8.50725e-05
3.07963e-05
3.04896e-05
3.21438e-05
3.15532e-05
3.16311e-05
2.99124e-05
3.17073e-05
3.22775e-05
5.91764e-05
3.28999e-05
6.14375e-05
3.0796e-05
3.21437e-05
3.04907e-05
3.1553e-05
3.16309e-05
3.17073e-05
2.99119e-05
3.20895e-05
6.38593e-05
6.20918e-05
3.1503e-05
3.05056e-05
3.10949e-05
2.92488e-05
3.08641e-05
2.97689e-05
3.12769e-05
2.96901e-05
3.20893e-05
6.38603e-05
6.20922e-05
3.15026e-05
3.05054e-05
3.10946e-05
3.0864e-05
2.9247e-05
3.12769e-05
2.97691e-05
2.96899e-05
3.22754e-05
5.91733e-05
3.29023e-05
6.14348e-05
3.07959e-05
3.21437e-05
3.04891e-05
3.15531e-05
3.16312e-05
3.17073e-05
2.99137e-05
3.2275e-05
5.91753e-05
3.2902e-05
6.14363e-05
3.0506e-05
3.1095e-05
2.92469e-05
3.08642e-05
2.9769e-05
3.12769e-05
2.969e-05
3.20924e-05
6.38581e-05
6.20893e-05
3.15004e-05
3.05058e-05
3.10948e-05
3.08641e-05
2.92491e-05
3.12769e-05
2.97686e-05
2.96898e-05
3.2092e-05
6.38593e-05
6.20908e-05
3.15e-05
3.01927e-05
3.01948e-05
3.12717e-05
3.00238e-05
3.00247e-05
8.44053e-05
8.50534e-05
8.48412e-05
8.50741e-05
3.09619e-05
2.99292e-05
2.99311e-05
2.99596e-05
2.99611e-05
8.48399e-05
8.50727e-05
3.07963e-05
3.21437e-05
3.04886e-05
3.15532e-05
3.16311e-05
3.17073e-05
2.99132e-05
3.22776e-05
5.91753e-05
3.28998e-05
6.14364e-05
3.2278e-05
5.91751e-05
3.29002e-05
6.14364e-05
3.05054e-05
3.1095e-05
3.08641e-05
2.92492e-05
3.12769e-05
2.97687e-05
2.969e-05
3.05056e-05
3.10949e-05
3.08641e-05
2.92488e-05
3.12769e-05
2.97682e-05
2.96902e-05
3.20892e-05
6.38595e-05
6.2091e-05
3.15027e-05
3.20896e-05
6.38599e-05
6.2091e-05
3.15031e-05
8.44054e-05
8.50536e-05
8.44066e-05
8.50545e-05
3.09619e-05
2.99309e-05
2.99297e-05
2.99608e-05
2.99597e-05
8.48401e-05
8.50729e-05
8.48405e-05
8.50735e-05
8.46372e-05
8.38831e-05
8.46371e-05
8.38838e-05
2.9951e-05
2.99487e-05
2.93516e-05
3.003e-05
3.00291e-05
8.26052e-05
8.36039e-05
8.26053e-05
8.3604e-05
2.90614e-05
3.03288e-05
3.0327e-05
3.0102e-05
3.01024e-05
3.07387e-05
6.43844e-05
3.13646e-05
6.56903e-05
2.85928e-05
2.91598e-05
3.04727e-05
2.9823e-05
2.94206e-05
2.86536e-05
3.00941e-05
2.85931e-05
2.91601e-05
3.04727e-05
2.98228e-05
2.94208e-05
2.86538e-05
3.00941e-05
3.06168e-05
6.70809e-05
6.60678e-05
3.00957e-05
3.06171e-05
6.70826e-05
6.60678e-05
3.0096e-05
2.83342e-05
2.94157e-05
2.82428e-05
2.9302e-05
2.856e-05
2.97097e-05
2.75801e-05
2.83344e-05
2.94155e-05
2.82429e-05
2.9302e-05
2.85605e-05
2.97096e-05
2.75803e-05
2.99494e-05
2.99496e-05
2.93517e-05
3.00294e-05
3.00289e-05
8.46371e-05
8.38831e-05
8.26044e-05
8.36038e-05
2.90615e-05
3.03281e-05
3.03237e-05
3.01026e-05
3.01011e-05
8.2605e-05
8.36041e-05
2.8593e-05
2.91599e-05
3.04727e-05
2.98231e-05
2.94206e-05
2.86534e-05
3.00941e-05
3.07397e-05
6.43868e-05
3.1362e-05
6.56924e-05
2.85927e-05
3.04727e-05
2.91592e-05
2.98227e-05
2.94204e-05
3.0094e-05
2.86524e-05
3.06164e-05
6.70843e-05
6.60703e-05
3.00962e-05
2.83343e-05
2.94159e-05
2.82422e-05
2.9302e-05
2.85602e-05
2.97097e-05
2.75802e-05
3.0616e-05
6.70839e-05
6.607e-05
3.00959e-05
2.8334e-05
2.94154e-05
2.93019e-05
2.82409e-05
2.97096e-05
2.85609e-05
2.758e-05
3.07386e-05
6.43846e-05
3.13645e-05
6.56905e-05
2.85928e-05
3.04727e-05
2.91601e-05
2.98229e-05
2.94206e-05
3.00941e-05
2.86537e-05
3.07382e-05
6.43856e-05
3.13641e-05
6.56912e-05
2.83344e-05
2.94161e-05
2.82407e-05
2.93021e-05
2.85607e-05
2.97097e-05
2.75803e-05
3.0617e-05
6.70827e-05
6.60682e-05
3.00959e-05
2.83342e-05
2.94157e-05
2.9302e-05
2.82427e-05
2.97096e-05
2.85603e-05
2.75801e-05
3.06166e-05
6.7083e-05
6.60687e-05
3.00956e-05
2.995e-05
2.99503e-05
2.93515e-05
3.00296e-05
3.00305e-05
8.46376e-05
8.38828e-05
8.26053e-05
8.36046e-05
2.90613e-05
3.03262e-05
3.03287e-05
3.0102e-05
3.01035e-05
8.26049e-05
8.36044e-05
2.85931e-05
3.04727e-05
2.91598e-05
2.98231e-05
2.94206e-05
3.00941e-05
2.86534e-05
3.07398e-05
6.43858e-05
3.1362e-05
6.56915e-05
3.07402e-05
6.43862e-05
3.13624e-05
6.56921e-05
2.83341e-05
2.9416e-05
2.93021e-05
2.82427e-05
2.97096e-05
2.85605e-05
2.75801e-05
2.83343e-05
2.94159e-05
2.9302e-05
2.82425e-05
2.97096e-05
2.85601e-05
2.75803e-05
3.0616e-05
6.70834e-05
6.6069e-05
3.00959e-05
3.06164e-05
6.70843e-05
6.60697e-05
3.00962e-05
8.46377e-05
8.3883e-05
8.4638e-05
8.3883e-05
2.90613e-05
3.03284e-05
3.03274e-05
3.01032e-05
3.01023e-05
8.26051e-05
8.36046e-05
8.26046e-05
8.36045e-05
8.22125e-05
8.11876e-05
8.22119e-05
8.11874e-05
3.04473e-05
3.04461e-05
2.74609e-05
3.06892e-05
3.06882e-05
8.06739e-05
8.09544e-05
8.06735e-05
8.09536e-05
2.71749e-05
3.10024e-05
3.10019e-05
3.07845e-05
3.07839e-05
2.95549e-05
6.73647e-05
2.99839e-05
6.79716e-05
2.65416e-05
2.81778e-05
2.88696e-05
2.80557e-05
2.7336e-05
2.76496e-05
2.84347e-05
2.65418e-05
2.81777e-05
2.88696e-05
2.80555e-05
2.73362e-05
2.76494e-05
2.84347e-05
2.92887e-05
6.84427e-05
6.80906e-05
2.86481e-05
2.9289e-05
6.84443e-05
6.80919e-05
2.86483e-05
2.62473e-05
2.76292e-05
2.72185e-05
2.77107e-05
2.74753e-05
2.80363e-05
2.55453e-05
2.62475e-05
2.76289e-05
2.72188e-05
2.77106e-05
2.74752e-05
2.80363e-05
2.55454e-05
3.04463e-05
3.04478e-05
2.74611e-05
3.06884e-05
3.06868e-05
8.22123e-05
8.11876e-05
8.06734e-05
8.09537e-05
2.71749e-05
3.10022e-05
3.10004e-05
3.07841e-05
3.07841e-05
8.06732e-05
8.09542e-05
2.65415e-05
2.81772e-05
2.88696e-05
2.8056e-05
2.7336e-05
2.76491e-05
2.84347e-05
2.95536e-05
6.73662e-05
2.99827e-05
6.79724e-05
2.65413e-05
2.88695e-05
2.81769e-05
2.80554e-05
2.73357e-05
2.84346e-05
2.76495e-05
2.92872e-05
6.84457e-05
6.80937e-05
2.86489e-05
2.62472e-05
2.76294e-05
2.72182e-05
2.77106e-05
2.74756e-05
2.80363e-05
2.55453e-05
2.92868e-05
6.84446e-05
6.8093e-05
2.86486e-05
2.62469e-05
2.76288e-05
2.77105e-05
2.72177e-05
2.80362e-05
2.74766e-05
2.55451e-05
2.95548e-05
6.73652e-05
2.99838e-05
6.79717e-05
2.65415e-05
2.88696e-05
2.81775e-05
2.80556e-05
2.7336e-05
2.84347e-05
2.76491e-05
2.95543e-05
6.73651e-05
2.99835e-05
6.79716e-05
2.62474e-05
2.76296e-05
2.72174e-05
2.77108e-05
2.74762e-05
2.80364e-05
2.55454e-05
2.9289e-05
6.84442e-05
6.80924e-05
2.86482e-05
2.62472e-05
2.76291e-05
2.77107e-05
2.72184e-05
2.80363e-05
2.74748e-05
2.55452e-05
2.92885e-05
6.84438e-05
6.80917e-05
2.86479e-05
3.04484e-05
3.04471e-05
2.74608e-05
3.06887e-05
3.06894e-05
8.22126e-05
8.11876e-05
8.06732e-05
8.09542e-05
2.71748e-05
3.10022e-05
3.1003e-05
3.07854e-05
3.0785e-05
8.06739e-05
8.09543e-05
2.65416e-05
2.88696e-05
2.81773e-05
2.80559e-05
2.7336e-05
2.84347e-05
2.76489e-05
2.95535e-05
6.73655e-05
2.99828e-05
6.79721e-05
2.95539e-05
6.73664e-05
2.99831e-05
6.79733e-05
2.62469e-05
2.76295e-05
2.77107e-05
2.72185e-05
2.80363e-05
2.74749e-05
2.55452e-05
2.62472e-05
2.76294e-05
2.77106e-05
2.72183e-05
2.80363e-05
2.74747e-05
2.55453e-05
2.92867e-05
6.84442e-05
6.80921e-05
2.86487e-05
2.92872e-05
6.84458e-05
6.80935e-05
2.86489e-05
8.22127e-05
8.11877e-05
8.22122e-05
8.11871e-05
2.71747e-05
3.10026e-05
3.10022e-05
3.07846e-05
3.07841e-05
8.0674e-05
8.09544e-05
8.06733e-05
8.09537e-05
8.06694e-05
8.07473e-05
8.06688e-05
8.07479e-05
3.12322e-05
3.1232e-05
2.62663e-05
3.23032e-05
3.23027e-05
8.08945e-05
8.08096e-05
8.08949e-05
8.0809e-05
2.62452e-05
3.33399e-05
3.33408e-05
3.26483e-05
3.26486e-05
2.85934e-05
6.8603e-05
2.85926e-05
6.90897e-05
2.52895e-05
2.72213e-05
2.74742e-05
2.69314e-05
2.54133e-05
2.74223e-05
2.73216e-05
2.52896e-05
2.72217e-05
2.74742e-05
2.69311e-05
2.54134e-05
2.74228e-05
2.73215e-05
2.86392e-05
6.94794e-05
6.92302e-05
2.88013e-05
2.86394e-05
6.94817e-05
6.92322e-05
2.88014e-05
2.52912e-05
2.68768e-05
2.81695e-05
2.71877e-05
2.76837e-05
2.72334e-05
2.53655e-05
2.52912e-05
2.68766e-05
2.81701e-05
2.71877e-05
2.76842e-05
2.72334e-05
2.53655e-05
3.12323e-05
3.12309e-05
2.62665e-05
3.23034e-05
3.23009e-05
8.06688e-05
8.07445e-05
8.08943e-05
8.08093e-05
2.62453e-05
3.33404e-05
3.33368e-05
3.26487e-05
3.26484e-05
8.08911e-05
8.08087e-05
2.52893e-05
2.72211e-05
2.74742e-05
2.69316e-05
2.54131e-05
2.74217e-05
2.73215e-05
2.85928e-05
6.8604e-05
2.85917e-05
6.90893e-05
2.52892e-05
2.74741e-05
2.72209e-05
2.6931e-05
2.5413e-05
2.73214e-05
2.74205e-05
2.8638e-05
6.94819e-05
6.92334e-05
2.88025e-05
2.5291e-05
2.6877e-05
2.81699e-05
2.71877e-05
2.76841e-05
2.72334e-05
2.53656e-05
2.8638e-05
6.94785e-05
6.92322e-05
2.88022e-05
2.52909e-05
2.68765e-05
2.71876e-05
2.81695e-05
2.72333e-05
2.76845e-05
2.53654e-05
2.85932e-05
6.86036e-05
2.85924e-05
6.90891e-05
2.52894e-05
2.74742e-05
2.72213e-05
2.69313e-05
2.54132e-05
2.73215e-05
2.74223e-05
2.8593e-05
6.86023e-05
2.85921e-05
6.90885e-05
2.52912e-05
2.68772e-05
2.81691e-05
2.71878e-05
2.76837e-05
2.72334e-05
2.53655e-05
2.86392e-05
6.94785e-05
6.9232e-05
2.88013e-05
2.52911e-05
2.68767e-05
2.71877e-05
2.81692e-05
2.72334e-05
2.76835e-05
2.53653e-05
2.86391e-05
6.94802e-05
6.92309e-05
2.88011e-05
3.12328e-05
3.12329e-05
2.62662e-05
3.2303e-05
3.23037e-05
8.06694e-05
8.07474e-05
8.08909e-05
8.08087e-05
2.6245e-05
3.3339e-05
3.33405e-05
3.26503e-05
3.26487e-05
8.08948e-05
8.08099e-05
2.52894e-05
2.74742e-05
2.72212e-05
2.69316e-05
2.54132e-05
2.73215e-05
2.74223e-05
2.85928e-05
6.86028e-05
2.85917e-05
6.90889e-05
2.85929e-05
6.86044e-05
2.85919e-05
6.90907e-05
2.52911e-05
2.68771e-05
2.71877e-05
2.81694e-05
2.72333e-05
2.76833e-05
2.53656e-05
2.52911e-05
2.6877e-05
2.71877e-05
2.81698e-05
2.72334e-05
2.76838e-05
2.53657e-05
2.86381e-05
6.94806e-05
6.92313e-05
2.88024e-05
2.86381e-05
6.94825e-05
6.92331e-05
2.88024e-05
8.06694e-05
8.07474e-05
8.06688e-05
8.07469e-05
2.62451e-05
3.33403e-05
3.33413e-05
3.26486e-05
3.26488e-05
8.08949e-05
8.08099e-05
8.08944e-05
8.08094e-05
8.0916e-05
8.09344e-05
8.09157e-05
8.09344e-05
3.34859e-05
3.34877e-05
2.63459e-05
3.36749e-05
3.3677e-05
8.09401e-05
8.09386e-05
8.09401e-05
8.09386e-05
2.63476e-05
3.37461e-05
3.37489e-05
3.37125e-05
3.37152e-05
2.89204e-05
6.95327e-05
2.88573e-05
6.95839e-05
2.54561e-05
2.83043e-05
2.71665e-05
2.68692e-05
2.53974e-05
2.84603e-05
2.71577e-05
2.54562e-05
2.83052e-05
2.71664e-05
2.6869e-05
2.53974e-05
2.84615e-05
2.71576e-05
2.8939e-05
6.95933e-05
6.95915e-05
2.89476e-05
2.89392e-05
6.95961e-05
6.95942e-05
2.89479e-05
2.54671e-05
2.68767e-05
2.85296e-05
2.71538e-05
2.85036e-05
2.71545e-05
2.54817e-05
2.54672e-05
2.68766e-05
2.85309e-05
2.71538e-05
2.85049e-05
2.71544e-05
2.54818e-05
3.34868e-05
3.34849e-05
2.6346e-05
3.36761e-05
3.36725e-05
8.09137e-05
8.09308e-05
8.094e-05
8.09386e-05
2.63477e-05
3.37475e-05
3.37419e-05
3.3714e-05
3.37117e-05
8.09366e-05
8.09353e-05
2.54562e-05
2.83055e-05
2.71664e-05
2.68694e-05
2.53974e-05
2.84618e-05
2.71576e-05
2.89202e-05
6.95302e-05
2.88567e-05
6.95803e-05
2.54561e-05
2.71663e-05
2.83058e-05
2.68689e-05
2.53973e-05
2.71575e-05
2.84612e-05
2.89391e-05
6.95962e-05
6.95946e-05
2.89487e-05
2.54672e-05
2.6877e-05
2.8531e-05
2.71538e-05
2.85052e-05
2.71545e-05
2.5482e-05
2.89388e-05
6.95925e-05
6.95908e-05
2.89483e-05
2.54671e-05
2.68764e-05
2.71537e-05
2.85297e-05
2.71543e-05
2.8505e-05
2.54818e-05
2.89203e-05
6.95303e-05
2.88572e-05
6.95807e-05
2.54561e-05
2.71664e-05
2.83042e-05
2.68691e-05
2.53973e-05
2.71576e-05
2.84605e-05
2.89202e-05
6.95312e-05
2.8857e-05
6.95823e-05
2.54671e-05
2.6877e-05
2.85295e-05
2.71539e-05
2.85046e-05
2.71546e-05
2.54818e-05
2.89392e-05
6.95931e-05
6.95913e-05
2.89479e-05
2.54671e-05
2.68767e-05
2.71538e-05
2.85298e-05
2.71545e-05
2.85038e-05
2.54817e-05
2.8939e-05
6.95945e-05
6.95926e-05
2.89476e-05
3.34863e-05
3.34867e-05
2.63457e-05
3.36737e-05
3.36759e-05
8.09164e-05
8.09347e-05
8.09364e-05
8.09351e-05
2.63474e-05
3.37439e-05
3.37471e-05
3.37126e-05