/*--------------------------------*- C++ -*----------------------------------*\
| =========                 |                                                 |
| \\      /  F ield         | OpenFOAM: The Open Source CFD Toolbox           |
|  \\    /   O peration     | Version:  2206                                  |
|   \\  /    A nd           | Website:  www.openfoam.com                      |
|    \\/     M anipulation  |                                                 |
\*---------------------------------------------------------------------------*/
FoamFile
{
    version     2.0;
    format      ascii;
    arch        "LSB;label=32;scalar=64";
    class       volScalarField;
    location    "25";
    object      nut;
}
// * * * * * * * * * * * * * * * * * * * * * * * * * * * * * * * * * * * * * //

dimensions      [0 2 -1 0 0 0 0];

internalField   nonuniform List<scalar> 
28688
(
0.000233973
0.000233117
0.000233117
0.000233423
0.000232535
0.000227808
0.000227807
0.000223875
0.000230548
0.000220372
0.000220369
0.000209135
0.000227794
0.000211639
0.000211635
0.000193815
0.000224233
0.000202334
0.000202328
0.000179953
0.000221322
0.000196105
0.000196098
0.000169932
0.00022189
0.000197992
0.000197985
0.000172857
0.000222207
0.000198766
0.000198759
0.000174181
0.000222239
0.000198834
0.000198827
0.000174294
0.00022224
0.00019884
0.000198834
0.000174293
0.00022224
0.000198843
0.000198837
0.000174296
0.00022224
0.000198845
0.000198838
0.000174298
0.000234264
0.000234447
0.000234448
0.000234264
0.000234448
0.000234448
0.000234274
0.000234274
0.000234274
0.000234274
0.000234447
0.000234447
0.000234264
0.000234447
0.000234448
0.000234264
0.000233423
0.0002262
0.000233117
0.000233115
0.000229368
0.000229364
0.000233423
0.000226202
0.000233115
0.000233115
0.000229366
0.000229363
0.000233117
0.000229371
0.000229368
0.000233424
0.000226198
0.000233115
0.00022937
0.000229366
0.000226199
0.000223875
0.000212205
0.000227805
0.0002278
0.000222336
0.000222331
0.000223876
0.000212209
0.000227802
0.000227798
0.000222337
0.000222328
0.000227804
0.000222343
0.000222335
0.000223874
0.000212202
0.000227802
0.00022234
0.000222336
0.000212203
0.000209137
0.000196959
0.000220364
0.000220359
0.000213758
0.000213753
0.000209138
0.000196965
0.000220365
0.000220356
0.000213762
0.000213748
0.000220363
0.000213769
0.000213756
0.000209133
0.000196955
0.000220365
0.000213765
0.000213761
0.000196957
0.000193819
0.000182896
0.000211627
0.000211622
0.000205032
0.000205027
0.000193822
0.000182903
0.000211632
0.000211617
0.00020504
0.000205021
0.000211625
0.000205047
0.000205029
0.000193814
0.000182892
0.000211631
0.000205041
0.000205038
0.000182893
0.000179957
0.000171165
0.000202317
0.000202312
0.000196447
0.00019644
0.000179961
0.000171171
0.000202326
0.000202306
0.000196457
0.000196434
0.000202314
0.000196464
0.000196444
0.000179952
0.00017116
0.000202324
0.000196457
0.000196457
0.00017116
0.000169938
0.000172794
0.000196088
0.00019608
0.000197522
0.000197516
0.000169941
0.000172798
0.000196097
0.000196074
0.000197532
0.000197509
0.000196084
0.000197538
0.000197518
0.000169933
0.000172788
0.000196097
0.000197531
0.000197533
0.000172788
0.000172863
0.000174323
0.000197976
0.000197971
0.000198675
0.00019867
0.000172867
0.000174328
0.000197987
0.000197963
0.000198686
0.000198662
0.000197973
0.00019869
0.000198672
0.000172857
0.000174316
0.000197987
0.000198683
0.000198687
0.000174321
0.000174185
0.000174462
0.000198751
0.000198746
0.000198815
0.000198811
0.000174189
0.000174466
0.000198763
0.000198738
0.000198827
0.000198803
0.000198749
0.000198831
0.000198813
0.000174178
0.000174455
0.000198764
0.000198824
0.000198829
0.00017446
0.000174298
0.000174462
0.000198817
0.000198814
0.000198823
0.000198819
0.000174301
0.000174465
0.00019883
0.000198806
0.000198836
0.000198811
0.000198816
0.000198839
0.000198822
0.00017429
0.000174454
0.000198832
0.000198833
0.000198837
0.000174459
0.000174298
0.000174468
0.000198824
0.000198821
0.000198826
0.000198824
0.0001743
0.00017447
0.000198837
0.000198813
0.00019884
0.000198816
0.000198823
0.000198843
0.000198826
0.00017429
0.00017446
0.000198839
0.000198836
0.000198841
0.000174465
0.000174302
0.000174468
0.000198828
0.000198825
0.000198829
0.000198826
0.000174303
0.00017447
0.000198841
0.000198817
0.000198842
0.000198818
0.000198827
0.000198845
0.000198828
0.000174294
0.00017446
0.000198842
0.000198839
0.000198843
0.000174466
0.000174303
0.00017447
0.000198829
0.000198826
0.00019883
0.000174304
0.000198842
0.000198818
0.000198843
0.000198819
0.000198828
0.000198829
0.000174295
0.000174462
0.000198844
0.000198839
0.000198844
0.000174467
0.00023473
0.000234746
0.000234729
0.000234729
0.000235116
0.000234798
0.000234701
0.000234726
0.000235116
0.000234798
0.000234726
0.000234701
0.000234865
0.000233566
0.000233566
0.000104613
3.87462e-05
0.000129194
3.98189e-05
2.16835e-05
2.28278e-05
0.000104601
3.87422e-05
0.000129193
3.98153e-05
0.000233973
0.000233973
0.000233973
0.000232941
0.000232941
0.000232941
0.000232941
0.000206162
9.36412e-05
0.00023397
0.000231992
0.000222667
8.72453e-05
0.00023361
2.16824e-05
2.2827e-05
0.000206152
0.00023397
9.36416e-05
0.000231991
0.000222677
0.00023361
8.725e-05
4.77793e-05
4.77671e-05
0.000231342
4.40141e-05
4.40049e-05
7.25772e-05
4.24396e-05
8.14581e-05
4.37546e-05
2.47788e-05
2.54608e-05
7.25604e-05
4.24361e-05
8.14579e-05
4.37507e-05
0.000232535
0.000232535
0.000232535
0.000231092
0.000231092
0.000231092
0.000231092
0.000167514
7.93791e-05
0.000232087
0.000226086
0.000180252
7.4539e-05
0.000231373
2.47772e-05
2.54592e-05
0.000167509
0.000232087
7.93728e-05
0.000226085
0.000180249
0.000231372
7.45442e-05
3.91487e-05
3.91381e-05
0.000219573
3.65526e-05
3.65421e-05
5.62343e-05
4.55484e-05
6.11685e-05
4.64103e-05
2.60151e-05
2.61151e-05
5.62329e-05
4.55458e-05
6.11753e-05
4.64072e-05
0.000230548
0.000230548
0.000230548
0.00022847
0.000228471
0.000228469
0.00022847
0.000138646
6.73509e-05
0.000228671
0.00021826
0.000148046
6.36019e-05
0.000227564
2.6013e-05
2.61129e-05
0.000138637
0.00022867
6.73403e-05
0.000218257
0.000148042
0.000227562
6.36021e-05
3.32179e-05
3.32093e-05
0.000204596
3.19918e-05
3.1983e-05
4.6837e-05
4.75112e-05
4.99834e-05
4.79908e-05
2.60513e-05
2.59343e-05
4.68335e-05
4.7508e-05
4.99813e-05
4.79878e-05
0.000227794
0.000227792
0.000227793
0.000225383
0.000225383
0.000225381
0.000225382
0.000117444
5.82448e-05
0.000223679
0.000209611
0.000124753
5.54422e-05
0.000222404
2.6049e-05
2.59321e-05
0.000117439
0.000223677
5.82456e-05
0.000209606
0.000124748
0.000222402
5.54417e-05
3.0603e-05
3.0595e-05
0.000189778
3.03377e-05
3.033e-05
4.14767e-05
4.85982e-05
4.31369e-05
4.88193e-05
2.56759e-05
2.55131e-05
4.14718e-05
4.85949e-05
4.31346e-05
4.88161e-05
0.000224234
0.000224231
0.000224232
0.000221566
0.000221567
0.000221564
0.000221565
0.000101919
5.19246e-05
0.000217609
0.000199706
0.000107615
5.00668e-05
0.000215675
2.56735e-05
2.55108e-05
0.000101912
0.000217606
5.19232e-05
0.000199699
0.00010761
0.000215671
5.00586e-05
3.01014e-05
3.00945e-05
0.000175787
3.04637e-05
3.04567e-05
4.2572e-05
4.90408e-05
4.12561e-05
4.92141e-05
2.54268e-05
2.54379e-05
4.25686e-05
4.90375e-05
4.12581e-05
4.92107e-05
0.000221322
0.000221319
0.000221321
0.000221714
0.000221714
0.00022171
0.000221712
9.99162e-05
4.97422e-05
0.000212486
0.000196349
9.82037e-05
5.05434e-05
0.000212445
2.54244e-05
2.54355e-05
9.9914e-05
0.000212484
4.97474e-05
0.000196342
9.82014e-05
0.000212441
5.05478e-05
3.18232e-05
3.18162e-05
0.000171265
3.34036e-05
3.33969e-05
4.36767e-05
4.93763e-05
4.35226e-05
4.93956e-05
2.54654e-05
2.54685e-05
4.36797e-05
4.93731e-05
4.35274e-05
4.93922e-05
0.00022189
0.000221887
0.000221889
0.000222172
0.000222173
0.00022217
0.000222172
0.000101969
5.27851e-05
0.000213129
0.000198308
0.000101515
5.31899e-05
0.000213305
2.54628e-05
2.54657e-05
0.000101971
0.000213127
5.27849e-05
0.000198301
0.000101516
0.000213302
5.31887e-05
3.4875e-05
3.48692e-05
0.000173959
3.51225e-05
3.51172e-05
4.37391e-05
4.94011e-05
4.37275e-05
4.94006e-05
2.54696e-05
2.54696e-05
4.37453e-05
4.93979e-05
4.37344e-05
4.93973e-05
0.000222208
0.000222205
0.000222207
0.000222238
0.000222237
0.000222234
0.000222236
0.000102167
5.3364e-05
0.00021354
0.000198806
0.000102119
5.33871e-05
0.000213561
2.54669e-05
2.54668e-05
0.000102169
0.000213538
5.33676e-05
0.000198799
0.000102122
0.000213559
5.33898e-05
3.52223e-05
3.52167e-05
0.000174433
3.52252e-05
3.52196e-05
4.37445e-05
4.94013e-05
4.37361e-05
4.94006e-05
2.54697e-05
2.54696e-05
4.3751e-05
4.9398e-05
4.37431e-05
4.93972e-05
0.000222238
0.000222235
0.000222237
0.00022224
0.00022224
0.000222237
0.000222239
0.000102184
5.33793e-05
0.000213573
0.000198836
0.000102154
5.33959e-05
0.000213573
2.5467e-05
2.54668e-05
0.000102187
0.000213571
5.33826e-05
0.00019883
0.000102157
0.000213572
5.33986e-05
3.52242e-05
3.52186e-05
0.000174458
3.5227e-05
3.52214e-05
4.37456e-05
4.94014e-05
4.37381e-05
4.94004e-05
2.54697e-05
2.54696e-05
4.37522e-05
4.93981e-05
4.37453e-05
4.93972e-05
0.000222241
0.000222238
0.00022224
0.00022224
0.000222241
0.000222237
0.00022224
0.00010219
5.33824e-05
0.000213577
0.000198842
0.000102163
5.33974e-05
0.000213578
2.5467e-05
2.54668e-05
0.000102194
0.000213575
5.33858e-05
0.000198835
0.000102166
0.000213576
5.34002e-05
3.52251e-05
3.52195e-05
0.000174466
3.52275e-05
3.52219e-05
4.37456e-05
4.94014e-05
4.37383e-05
4.94007e-05
2.54697e-05
2.54696e-05
4.37522e-05
4.93979e-05
4.37456e-05
4.9397e-05
0.000222241
0.000222238
0.00022224
0.00022224
0.000222241
0.000222238
0.00022224
0.000102188
5.33827e-05
0.000213578
0.000198845
0.000102164
5.33975e-05
0.000213578
2.5467e-05
2.54668e-05
0.000102192
0.000213576
5.33861e-05
0.000198838
0.000102167
0.000213576
5.34003e-05
3.52252e-05
3.52197e-05
0.000174463
3.52276e-05
3.5222e-05
4.37456e-05
4.94015e-05
4.37383e-05
4.94008e-05
2.54697e-05
2.54696e-05
4.37522e-05
4.93978e-05
4.37456e-05
4.9397e-05
0.000222241
0.000222238
0.00022224
0.000222241
0.000222243
0.000222238
0.000222241
0.000102189
5.33828e-05
0.000213578
0.000198845
0.000102161
5.33976e-05
0.000213578
2.5467e-05
2.54668e-05
0.000102192
0.000213576
5.33861e-05
0.000198839
0.000102167
0.000213577
5.34003e-05
3.52252e-05
3.52197e-05
0.000174464
3.52276e-05
3.5222e-05
0.000234865
0.000233564
0.000233566
2.32575e-05
0.000214159
2.32564e-05
0.000214162
0.000234437
5.13524e-05
5.1334e-05
0.00022999
0.000229991
0.000235116
0.000234798
0.000234701
0.000234726
0.000235116
0.000234798
0.000234701
0.000234726
0.000234477
4.02625e-05
0.000218814
0.000147751
0.000234477
4.0262e-05
0.000218814
0.000147758
0.000233891
0.000234475
0.000100135
0.00023427
0.000233358
0.000234597
0.000228473
0.000233891
0.000234475
0.000100124
0.00023427
0.000233359
0.000234597
0.000228472
0.000234865
0.000233565
0.000233566
2.32572e-05
0.000214167
0.000234437
5.13445e-05
5.13389e-05
0.000229989
0.000229991
2.32571e-05
0.000214169
0.000235116
0.000234798
0.000234701
0.000234726
0.000235116
0.000234798
0.000234726
0.000234701
0.000234477
4.02593e-05
0.000218815
0.000147725
0.000233891
0.000234474
0.000100112
0.00023427
0.000233359
0.000234597
0.000228469
0.000234477
4.02588e-05
0.000218816
0.000147741
0.000233891
0.000234475
0.00023427
0.00010012
0.000234597
0.000233359
0.000228472
0.00023473
0.000234746
0.000234729
0.000234729
0.00023473
0.000234746
0.000234729
0.000234729
0.00023473
0.000234746
0.000234729
0.000234729
0.000234591
0.000234574
0.000234253
0.000234253
0.000234592
0.000234592
0.000234253
0.000234591
0.000234574
0.000234253
0.000234253
0.000234592
0.000234592
0.000234253
0.000234591
0.000234574
0.000234253
0.000234253
0.000234592
0.000234592
0.000234253
0.000234591
0.000234574
0.000234253
0.000234253
0.000234592
0.000234592
0.000234253
0.000235116
0.000234798
0.000234726
0.000234701
0.000233891
0.000234475
0.000100116
0.00023427
0.000233359
0.000234597
0.00022847
0.000234477
4.026e-05
0.000218817
0.000147742
0.000233891
0.000234475
0.00023427
0.000100129
0.000234597
0.000233359
0.000228472
0.000234477
4.02595e-05
0.000218816
0.00014775
0.000234865
0.000233566
0.000233566
2.32564e-05
0.000214163
0.000234437
5.13376e-05
5.13415e-05
0.000229991
0.000229993
2.32568e-05
0.000214171
0.000235116
0.000234798
0.000234726
0.000234701
0.000233891
0.000234475
0.00023427
0.000100124
0.000234597
0.00023336
0.000228471
0.000233891
0.000234475
0.00023427
0.000100114
0.000234597
0.000233359
0.000228469
0.000234477
4.02591e-05
0.000218818
0.000147727
0.000234477
4.02589e-05
0.000218813
0.000147713
0.000234437
5.13448e-05
5.13326e-05
0.000229992
0.000229992
2.32569e-05
0.00021417
2.32564e-05
0.000214164
2.16838e-05
2.28288e-05
2.16825e-05
2.28273e-05
4.77801e-05
4.77688e-05
0.000231342
4.40195e-05
4.40043e-05
2.44783e-05
2.33092e-05
2.44767e-05
2.3308e-05
0.000229668
4.00543e-05
4.00383e-05
4.30716e-05
4.30581e-05
0.000104626
3.87452e-05
0.00012918
3.9817e-05
0.000206167
9.36516e-05
0.00023397
0.00023199
0.000222661
8.72526e-05
0.000233609
0.000206169
9.36355e-05
0.00023397
0.000231987
0.000222658
8.72391e-05
0.000233609
9.84702e-05
4.19551e-05
4.03836e-05
8.55784e-05
9.8464e-05
4.19535e-05
4.03825e-05
8.55797e-05
0.000200112
0.000230755
8.08383e-05
0.000232686
8.56296e-05
0.000233186
0.000185653
0.000200112
0.000230751
8.08308e-05
0.000232686
8.56128e-05
0.000233186
0.000185655
4.77715e-05
4.77779e-05
0.000231343
4.4009e-05
4.40136e-05
2.16835e-05
2.28288e-05
2.44774e-05
2.33086e-05
0.000229669
4.00433e-05
4.00462e-05
4.30604e-05
4.30682e-05
2.44785e-05
2.33094e-05
0.000206154
9.36305e-05
0.00023397
0.000231988
0.000222662
8.72327e-05
0.000233609
0.000104605
3.87418e-05
0.000129211
3.98146e-05
0.000206155
0.00023397
9.36338e-05
0.000231986
0.000222667
0.000233609
8.72329e-05
9.84712e-05
4.19513e-05
4.03801e-05
8.55688e-05
0.000200114
0.000230752
8.0824e-05
0.000232686
8.56134e-05
0.000233186
0.000185646
9.84717e-05
4.19504e-05
4.03795e-05
8.55678e-05
0.000200113
0.00023075
0.000232686
8.08198e-05
0.000233185
8.56114e-05
0.000185643
0.000104613
3.87427e-05
0.000129199
3.98176e-05
0.000206162
0.00023397
9.36431e-05
0.00023199
0.000222672
0.00023361
8.72473e-05
0.000104611
3.87433e-05
0.000129219
3.9816e-05
0.000200115
0.000230757
8.08341e-05
0.000232686
8.56278e-05
0.000233186
0.000185652
9.84697e-05
4.19535e-05
4.03813e-05
8.55737e-05
0.000200115
0.000230755
0.000232686
8.08387e-05
0.000233186
8.56246e-05
0.000185652
9.8475e-05
4.19524e-05
4.03815e-05
8.55749e-05
4.77685e-05
4.77771e-05
0.000231341
4.40037e-05
4.40194e-05
2.16829e-05
2.28279e-05
2.44761e-05
2.33072e-05
0.000229668
4.00383e-05
4.00514e-05
4.30592e-05
4.30673e-05
2.44774e-05
2.33085e-05
0.00020615
0.00023397
9.36296e-05
0.000231988
0.000222672
0.00023361
8.7236e-05
0.000104588
3.87423e-05
0.000129229
3.98161e-05
0.000104584
3.87417e-05
0.000129215
3.98151e-05
0.000200116
0.000230756
0.000232686
8.08386e-05
0.000233186
8.56209e-05
0.000185644
0.000200117
0.000230753
0.000232686
8.08296e-05
0.000233186
8.5612e-05
0.000185643
9.84874e-05
4.1952e-05
4.03811e-05
8.55663e-05
9.84868e-05
4.19514e-05
4.03797e-05
8.55659e-05
2.16833e-05
2.28279e-05
2.16824e-05
2.28273e-05
0.000229668
4.0051e-05
4.00394e-05
4.30715e-05
4.3057e-05
2.44775e-05
2.33088e-05
2.44766e-05
2.33081e-05
2.47795e-05
2.54619e-05
2.47778e-05
2.54601e-05
3.91515e-05
3.91389e-05
0.000219576
3.65543e-05
3.65423e-05
2.59513e-05
2.56233e-05
2.59498e-05
2.56215e-05
0.000216782
3.38492e-05
3.38425e-05
3.57179e-05
3.57116e-05
7.25793e-05
4.24385e-05
8.14609e-05
4.37533e-05
0.000167511
7.9381e-05
0.000232086
0.000226082
0.000180248
7.45413e-05
0.000231373
0.000167515
7.93639e-05
0.000232086
0.000226077
0.000180251
7.45382e-05
0.000231372
6.97174e-05
4.52306e-05
4.41552e-05
6.31812e-05
6.97202e-05
4.52302e-05
4.41538e-05
6.31838e-05
0.000162939
0.000224242
6.87007e-05
0.000229651
7.30972e-05
0.000230552
0.000151855
0.000162944
0.000224236
6.87022e-05
0.000229651
7.30776e-05
0.000230552
0.000151858
3.91416e-05
3.9148e-05
0.000219578
3.65473e-05
3.65433e-05
2.47797e-05
2.5462e-05
2.59508e-05
2.56225e-05
0.000216783
3.38462e-05
3.38438e-05
3.57135e-05
3.57124e-05
2.59517e-05
2.56233e-05
0.000167511
7.93628e-05
0.000232086
0.000226081
0.000180247
7.4533e-05
0.000231372
7.25592e-05
4.24351e-05
8.14566e-05
4.37497e-05
0.000167508
0.000232085
7.93647e-05
0.000226075
0.000180244
0.000231372
7.45232e-05
6.97289e-05
4.52275e-05
4.41519e-05
6.3171e-05
0.000162936
0.00022424
6.86956e-05
0.00022965
7.30792e-05
0.000230552
0.000151854
6.97278e-05
4.52262e-05
4.415e-05
6.31691e-05
0.000162935
0.000224234
0.000229649
6.86871e-05
0.000230551
7.30785e-05
0.000151849
7.25718e-05
4.24379e-05
8.14616e-05
4.37531e-05
0.000167511
0.000232086
7.93726e-05
0.000226081
0.000180249
0.000231373
7.45443e-05
7.2575e-05
4.24374e-05
8.14556e-05
4.37516e-05
0.000162943
0.000224247
6.87018e-05
0.000229652
7.30943e-05
0.000230553
0.000151857
6.97225e-05
4.52299e-05
4.41534e-05
6.31811e-05
0.000162941
0.00022424
0.000229651
6.87073e-05
0.000230552
7.30833e-05
0.000151854
6.97204e-05
4.52283e-05
4.41523e-05
6.31793e-05
3.91378e-05
3.91514e-05
0.000219573
3.65371e-05
3.65514e-05
2.4779e-05
2.54605e-05
2.59488e-05
2.56205e-05
0.00021678
3.38365e-05
3.38507e-05
3.57021e-05
3.57196e-05
2.59504e-05
2.56222e-05
0.000167512
0.000232086
7.93626e-05
0.000226079
0.000180251
0.000231372
7.4536e-05
7.25591e-05
4.24369e-05
8.14575e-05
4.37518e-05
7.25651e-05
4.24358e-05
8.1459e-05
4.37506e-05
0.000162938
0.000224245
0.000229651
6.87071e-05
0.000230552
7.30853e-05
0.000151851
0.00016294
0.00022424
0.00022965
6.86996e-05
0.000230552
7.30753e-05
0.000151853
6.97289e-05
4.52285e-05
4.41523e-05
6.31696e-05
6.97295e-05
4.52272e-05
4.41509e-05
6.31704e-05
2.47789e-05
2.54603e-05
2.47781e-05
2.54596e-05
0.000216781
3.38519e-05
3.38418e-05
3.57182e-05
3.57091e-05
2.59503e-05
2.5622e-05
2.59495e-05
2.56212e-05
2.60157e-05
2.61157e-05
2.60139e-05
2.6114e-05
3.32126e-05
3.32115e-05
0.000204598
3.19987e-05
3.19831e-05
2.60832e-05
2.61186e-05
2.60812e-05
2.61167e-05
0.00020137
3.0856e-05
3.08421e-05
3.15683e-05
3.1569e-05
5.62367e-05
4.55477e-05
6.11708e-05
4.641e-05
0.000138645
6.73508e-05
0.00022867
0.000218251
0.000148044
6.36011e-05
0.000227563
0.000138648
6.73362e-05
0.00022867
0.000218246
0.000148047
6.35983e-05
0.000227562
5.46358e-05
4.73156e-05
4.66578e-05
5.11978e-05
5.46375e-05
4.73157e-05
4.6657e-05
5.11997e-05
0.000135279
0.000216009
5.91851e-05
0.000224993
6.23897e-05
0.000226317
0.0001274
0.000135282
0.000216003
5.91827e-05
0.000224992
6.23809e-05
0.000226317
0.000127403
3.32132e-05
3.32077e-05
0.000204603
3.19863e-05
3.1998e-05
2.6016e-05
2.6116e-05
2.60823e-05
2.61179e-05
0.000201372
3.08451e-05
3.0855e-05
3.15698e-05
3.15657e-05
2.60832e-05
2.61188e-05
0.000138638
6.73386e-05
0.00022867
0.000218253
0.00014804
6.35928e-05
0.000227561
5.62311e-05
4.55437e-05
6.11744e-05
4.64059e-05
0.000138635
0.000228668
6.73365e-05
0.000218242
0.00014804
0.00022756
6.3588e-05
5.46294e-05
4.73126e-05
4.66548e-05
5.1195e-05
0.000135273
0.000216012
5.91795e-05
0.000224991
6.23789e-05
0.000226317
0.0001274
5.46285e-05
4.73112e-05
4.66528e-05
5.11937e-05
0.00013527
0.000215999
0.00022499
5.91719e-05
0.000226315
6.23765e-05
0.000127398
5.62343e-05
4.55473e-05
6.11683e-05
4.64097e-05
0.000138642
0.00022867
6.7341e-05
0.000218249
0.000148044
0.000227562
6.36026e-05
5.62329e-05
4.55459e-05
6.11667e-05
4.6408e-05
0.000135281
0.000216018
5.91845e-05
0.000224994
6.23903e-05
0.000226318
0.000127402
5.46353e-05
4.73154e-05
4.66567e-05
5.11976e-05
0.000135278
0.000216007
0.000224992
5.91864e-05
0.000226317
6.2385e-05
0.0001274
5.4634e-05
4.73135e-05
4.66549e-05
5.11965e-05
3.31995e-05
3.32183e-05
0.000204595
3.19885e-05
3.19927e-05
2.60147e-05
2.61147e-05
2.60801e-05
2.61157e-05
0.000201366
3.08463e-05
3.08508e-05
3.15577e-05
3.1576e-05
2.60819e-05
2.61175e-05
0.000138639
0.000228669
6.73334e-05
0.000218252
0.000148043
0.000227561
6.35958e-05
5.62318e-05
4.55457e-05
6.11748e-05
4.64077e-05
5.62327e-05
4.55448e-05
6.11757e-05
4.6407e-05
0.000135271
0.000216015
0.000224991
5.91859e-05
0.000226317
6.23851e-05
0.000127401
0.000135273
0.000216011
0.000224991
5.91804e-05
0.000226316
6.23781e-05
0.000127402
5.46286e-05
4.73132e-05
4.66546e-05
5.11942e-05
5.46295e-05
4.73126e-05
4.6654e-05
5.1195e-05
2.60146e-05
2.61145e-05
2.60138e-05
2.61137e-05
0.000201367
3.08503e-05
3.0842e-05
3.15749e-05
3.15665e-05
2.60817e-05
2.61174e-05
2.60808e-05
2.61165e-05
2.60522e-05
2.59353e-05
2.605e-05
2.59332e-05
3.0604e-05
3.05962e-05
0.000189782
3.03379e-05
3.03312e-05
2.57383e-05
2.58923e-05
2.57358e-05
2.58898e-05
0.00018677
3.00845e-05
3.00748e-05
3.02787e-05
3.02727e-05
4.68388e-05
4.75106e-05
4.99851e-05
4.79908e-05
0.000117444
5.8245e-05
0.000223677
0.000209598
0.000124751
5.54449e-05
0.000222403
0.000117446
5.82419e-05
0.000223676
0.000209592
0.000124754
5.54388e-05
0.000222402
4.61784e-05
4.84957e-05
4.81287e-05
4.40222e-05
4.61798e-05
4.84956e-05
4.8128e-05
4.40235e-05
0.000115324
0.000207468
5.25728e-05
0.000219474
5.47275e-05
0.000221061
0.000109569
0.000115326
0.000207463
5.2565e-05
0.000219473
5.47221e-05
0.00022106
0.000109571
3.05979e-05
3.06008e-05
0.000189788
3.03324e-05
3.0336e-05
2.60521e-05
2.59353e-05
2.5737e-05
2.58912e-05
0.000186774
3.00779e-05
3.00806e-05
3.02736e-05
3.02727e-05
2.57379e-05
2.5892e-05
0.000117439
5.82392e-05
0.000223677
0.000209604
0.000124748
5.54357e-05
0.000222401
4.68326e-05
4.75061e-05
4.99803e-05
4.79862e-05
0.000117437
0.000223674
5.82322e-05
0.000209587
0.000124746
0.000222399
5.54307e-05
4.61805e-05
4.84927e-05
4.81253e-05
4.40149e-05
0.00011532
0.000207475
5.25613e-05
0.000219472
5.47197e-05
0.00022106
0.000109565
4.61794e-05
4.84906e-05
4.81234e-05
4.40141e-05
0.000115317
0.000207457
0.00021947
5.2562e-05
0.000221057
5.47163e-05
0.000109563
4.68369e-05
4.75104e-05
4.99831e-05
4.79906e-05
0.000117442
0.000223676
5.82455e-05
0.000209595
0.000124751
0.000222402
5.54419e-05
4.6836e-05
4.75084e-05
4.9982e-05
4.79885e-05
0.000115325
0.000207482
5.25719e-05
0.000219476
5.47279e-05
0.000221062
0.00010957
4.61779e-05
4.84953e-05
4.81278e-05
4.40218e-05
0.000115323
0.000207466
0.000219473
5.25677e-05
0.00022106
5.47251e-05
0.000109568
4.61771e-05
4.8493e-05
4.81256e-05
4.40209e-05
3.05928e-05
3.0604e-05
0.000189778
3.03282e-05
3.03389e-05
2.60509e-05
2.59339e-05
2.57347e-05
2.58888e-05
0.000186766
3.00751e-05
3.00833e-05
3.02658e-05
3.02798e-05
2.57366e-05
2.58908e-05
0.000117441
0.000223676
5.82392e-05
0.000209603
0.000124749
0.000222402
5.54363e-05
4.68331e-05
4.75081e-05
4.99805e-05
4.79882e-05
4.68339e-05
4.75076e-05
4.99814e-05
4.79877e-05
0.00011532
0.000207477
0.000219473
5.25666e-05
0.00022106
5.47256e-05
0.000109566
0.000115321
0.000207474
0.000219473
5.25629e-05
0.000221059
5.47194e-05
0.000109567
4.618e-05
4.84928e-05
4.81253e-05
4.40143e-05
4.61806e-05
4.84924e-05
4.81249e-05
4.40149e-05
2.60508e-05
2.59338e-05
2.60498e-05
2.59328e-05
0.000186767
3.00826e-05
3.00749e-05
3.02788e-05
3.02713e-05
2.57365e-05
2.58907e-05
2.57354e-05
2.58897e-05
2.56771e-05
2.55144e-05
2.56745e-05
2.55119e-05
3.01037e-05
3.00954e-05
0.000175791
3.04649e-05
3.04568e-05
2.54291e-05
2.54765e-05
2.54266e-05
2.54739e-05
0.000173049
3.13816e-05
3.13738e-05
3.06847e-05
3.06775e-05
4.14778e-05
4.85977e-05
4.31381e-05
4.88191e-05
0.000101918
5.19283e-05
0.000217607
0.000199688
0.000107615
5.0064e-05
0.000215672
0.00010192
5.19208e-05
0.000217606
0.000199683
0.000107617
5.00569e-05
0.000215671
4.0862e-05
4.89854e-05
4.88628e-05
4.08955e-05
4.08631e-05
4.89852e-05
4.88626e-05
4.08961e-05
0.00010008
0.000197637
4.96432e-05
0.000212966
4.95775e-05
0.000214036
9.8248e-05
0.000100082
0.000197632
4.96388e-05
0.000212964
4.95711e-05
0.000214034
9.82487e-05
3.0096e-05
3.01031e-05
0.000175799
3.0458e-05
3.04626e-05
2.56767e-05
2.55141e-05
2.54278e-05
2.54752e-05
0.000173053
3.13752e-05
3.13797e-05
3.0678e-05
3.06831e-05
2.54287e-05
2.54761e-05
0.000101911
5.19171e-05
0.000217606
0.000199698
0.00010761
5.00552e-05
0.00021567
4.1471e-05
4.85928e-05
4.31337e-05
4.88139e-05
0.000101909
0.000217602
5.19143e-05
0.000199677
0.000107608
0.000215667
5.00573e-05
4.08569e-05
4.89821e-05
4.88596e-05
4.08905e-05
0.000100073
0.000197648
4.96353e-05
0.000212963
4.95716e-05
0.000214035
9.82427e-05
4.08562e-05
4.89798e-05
4.88575e-05
4.08905e-05
0.000100072
0.000197625
0.00021296
4.96321e-05
0.000214031
4.9573e-05
9.82419e-05
4.14763e-05
4.85975e-05
4.31365e-05
4.88188e-05
0.000101916
0.000217606
5.19235e-05
0.000199685
0.000107614
0.000215671
5.00591e-05
4.14754e-05
4.85951e-05
4.31357e-05
4.88164e-05
0.00010008
0.000197656
4.96411e-05
0.000212967
4.95823e-05
0.000214038
9.82467e-05
4.08617e-05
4.89849e-05
4.88624e-05
4.08942e-05
0.000100078
0.000197635
0.000212965
4.96408e-05
0.000214035
4.95732e-05
9.82458e-05
4.08608e-05
4.89823e-05
4.88598e-05
4.0894e-05
3.00949e-05
3.01022e-05
0.000175787
3.04564e-05
3.04646e-05
2.56755e-05
2.55128e-05
2.54254e-05
2.54729e-05
0.000173045
3.13732e-05
3.13816e-05
3.06761e-05
3.06846e-05
2.54275e-05
2.54749e-05
0.000101913
0.000217605
5.19183e-05
0.000199696
0.000107611
0.000215671
5.00546e-05
4.14711e-05
4.85949e-05
4.3134e-05
4.88161e-05
4.14718e-05
4.85945e-05
4.31346e-05
4.88158e-05
0.000100073
0.000197649
0.000212963
4.96408e-05
0.000214035
4.9573e-05
9.82442e-05
0.000100075
0.000197647
0.000212964
4.96365e-05
0.000214035
4.95686e-05
9.82448e-05
4.08564e-05
4.89821e-05
4.88595e-05
4.08908e-05
4.08571e-05
4.89819e-05
4.88593e-05
4.08908e-05
2.56753e-05
2.55127e-05
2.56743e-05
2.55116e-05
0.000173044
3.13806e-05
3.13737e-05
3.06836e-05
3.06768e-05
2.54273e-05
2.54747e-05
2.54263e-05
2.54737e-05
2.54282e-05
2.54396e-05
2.54255e-05
2.54371e-05
3.1824e-05
3.1817e-05
0.000171269
3.34046e-05
3.3396e-05
2.54634e-05
2.54496e-05
2.54609e-05
2.54468e-05
0.000171246
3.47106e-05
3.47036e-05
3.38202e-05
3.38129e-05
4.25725e-05
4.90407e-05
4.12572e-05
4.92141e-05
9.99176e-05
4.97499e-05
0.000212485
0.000196333
9.82057e-05
5.05498e-05
0.000212443
9.99181e-05
4.9745e-05
0.000212483
0.000196326
9.82061e-05
5.0546e-05
0.000212441
4.28147e-05
4.93575e-05
4.92657e-05
4.3384e-05
4.28154e-05
4.93575e-05
4.92657e-05
4.33842e-05
0.000100224
0.000196905
5.25276e-05
0.000212894
5.12783e-05
0.000212635
0.000101295
0.000100225
0.000196898
5.25242e-05
0.000212892
5.12742e-05
0.000212633
0.000101295
3.18179e-05
3.18208e-05
0.000171275
3.33986e-05
3.34032e-05
2.54276e-05
2.54387e-05
2.54619e-05
2.5448e-05
0.00017125
3.47043e-05
3.47054e-05
3.3814e-05
3.38168e-05
2.54624e-05
2.5449e-05
9.99117e-05
4.97396e-05
0.000212483
0.000196343
9.82017e-05
5.05407e-05
0.00021244
4.25683e-05
4.90355e-05
4.12587e-05
4.92084e-05
9.9911e-05
0.000212479
4.97333e-05
0.000196319
9.82003e-05
0.000212437
5.05347e-05
4.28166e-05
4.9354e-05
4.92625e-05
4.33901e-05
0.000100221
0.000196915
5.25197e-05
0.000212892
5.1272e-05
0.000212634
0.000101294
4.28166e-05
4.93509e-05
4.92601e-05
4.33894e-05
0.00010022
0.000196892
0.000212889
5.25156e-05
0.00021263
5.12703e-05
0.000101293
4.25709e-05
4.90405e-05
4.12552e-05
4.92135e-05
9.99148e-05
0.000212484
4.9747e-05
0.000196329
9.82056e-05
0.000212442
5.05475e-05
4.25707e-05
4.90377e-05
4.12551e-05
4.92109e-05
0.000100224
0.000196922
5.25246e-05
0.000212895
5.12783e-05
0.000212637
0.000101294
4.2814e-05
4.93561e-05
4.92653e-05
4.33834e-05
0.000100223
0.000196901
0.000212893
5.25246e-05
0.000212634
5.12753e-05
0.000101293
4.28139e-05
4.93542e-05
4.92624e-05
4.33831e-05
3.18146e-05
3.18242e-05
0.000171264
3.33966e-05
3.34039e-05
2.54265e-05
2.54379e-05
2.54592e-05
2.54457e-05
0.00017124
3.46983e-05
3.47098e-05
3.38095e-05
3.38193e-05
2.54618e-05
2.54479e-05
9.99149e-05
0.000212483
4.97422e-05
0.000196343
9.82023e-05
0.000212441
5.05433e-05
4.25689e-05
4.90374e-05
4.12591e-05
4.92106e-05
4.25689e-05
4.90373e-05
4.12589e-05
4.92106e-05
0.000100223
0.000196915
0.000212892
5.2525e-05
0.000212634
5.1275e-05
0.000101296
0.000100223
0.000196915
0.000212893
5.25216e-05
0.000212634
5.12715e-05
0.000101297
4.28172e-05
4.9354e-05
4.92622e-05
4.33902e-05
4.28172e-05
4.93539e-05
4.92621e-05
4.33902e-05
2.54263e-05
2.54377e-05
2.54253e-05
2.54367e-05
0.000171242
3.47093e-05
3.47033e-05
3.38187e-05
3.38125e-05
2.54616e-05
2.54477e-05
2.54606e-05
2.54467e-05
2.5467e-05
2.54701e-05
2.54643e-05
2.54674e-05
3.48763e-05
3.48711e-05
0.000173964
3.51233e-05
3.5118e-05
2.54709e-05
2.54707e-05
2.54684e-05
2.54681e-05
0.000173879
3.52184e-05
3.52143e-05
3.51637e-05
3.51596e-05
4.36768e-05
4.93765e-05
4.35234e-05
4.93958e-05
0.000101968
5.27887e-05
0.000213128
0.000198292
0.000101517
5.31913e-05
0.000213304
0.000101969
5.27854e-05
0.000213127
0.000198287
0.000101517
5.31889e-05
0.000213303
4.37078e-05
4.94003e-05
4.93995e-05
4.37329e-05
4.37081e-05
4.94006e-05
4.93998e-05
4.37334e-05
0.000102007
0.000198534
5.33792e-05
0.000213496
5.32914e-05
0.000213421
0.000102127
0.000102007
0.000198529
5.33769e-05
0.000213495
5.32887e-05
0.000213419
0.000102128
3.48702e-05
3.48691e-05
0.000173968
3.51178e-05
3.51165e-05
2.54661e-05
2.5469e-05
2.54694e-05
2.54692e-05
0.000173883
3.52131e-05
3.52081e-05
3.51587e-05
3.51587e-05
2.547e-05
2.54698e-05
0.000101969
5.27819e-05
0.000213127
0.000198303
0.000101517
5.31855e-05
0.000213303
4.36789e-05
4.937e-05
4.35273e-05
4.9389e-05
0.000101968
0.000213123
5.2777e-05
0.00019828
0.000101516
0.000213299
5.3181e-05
4.37136e-05
4.9397e-05
4.93962e-05
4.37396e-05
0.000102008
0.000198545
5.33725e-05
0.000213495
5.32861e-05
0.00021342
0.000102129
4.37127e-05
4.93937e-05
4.9393e-05
4.37383e-05
0.000102006
0.000198522
0.000213491
5.33643e-05
0.000213416
5.32795e-05
0.000102127
4.36761e-05
4.93752e-05
4.35226e-05
4.93943e-05
0.000101967
0.000213127
5.27856e-05
0.000198289
0.000101516
0.000213303
5.31889e-05
4.36757e-05
4.93731e-05
4.35222e-05
4.93925e-05
0.000102006
0.000198549
5.33737e-05
0.000213498
5.32886e-05
0.000213423
0.000102127
4.37074e-05
4.93991e-05
4.93984e-05
4.37327e-05
0.000102006
0.000198531
0.000213495
5.33768e-05
0.00021342
5.32887e-05
0.000102126
4.3707e-05
4.93972e-05
4.93964e-05
4.37322e-05
3.48615e-05
3.48757e-05
0.000173957
3.51084e-05
3.51231e-05
2.54653e-05
2.54684e-05
2.54667e-05
2.54665e-05
0.000173872
3.52017e-05
3.52182e-05
3.51504e-05