/*--------------------------------*- C++ -*----------------------------------*\
| =========                 |                                                 |
| \\      /  F ield         | OpenFOAM: The Open Source CFD Toolbox           |
|  \\    /   O peration     | Version:  2206                                  |
|   \\  /    A nd           | Website:  www.openfoam.com                      |
|    \\/     M anipulation  |                                                 |
\*---------------------------------------------------------------------------*/
FoamFile
{
    version     2.0;
    format      ascii;
    arch        "LSB;label=32;scalar=64";
    class       volVectorField;
    location    "25";
    object      U;
}
// * * * * * * * * * * * * * * * * * * * * * * * * * * * * * * * * * * * * * //

dimensions      [0 1 -1 0 0 0 0];

internalField   nonuniform List<vector> 
28688
(
(0.000107987 0.00010792 0.100299)
(-0.00018999 0.000119145 0.100385)
(0.000119218 -0.000189983 0.100385)
(-0.000239344 -0.000239364 0.100397)
(9.46304e-05 9.45808e-05 0.100859)
(-0.000159558 9.71418e-05 0.100942)
(9.71488e-05 -0.000159557 0.100942)
(-0.000200518 -0.000200572 0.100968)
(9.44263e-05 9.44148e-05 0.10137)
(-0.000153387 9.14255e-05 0.10145)
(9.14178e-05 -0.000153396 0.10145)
(-0.000200125 -0.000200176 0.10147)
(9.28321e-05 9.28185e-05 0.101893)
(-0.000147497 8.68496e-05 0.101958)
(8.68666e-05 -0.000147505 0.101958)
(-0.000195999 -0.000196041 0.101962)
(8.29243e-05 8.29361e-05 0.102391)
(-0.00013654 7.83485e-05 0.102447)
(7.8366e-05 -0.000136542 0.102447)
(-0.000181639 -0.000181679 0.10243)
(4.40191e-05 4.40032e-05 0.102721)
(-6.05541e-05 3.62498e-05 0.102735)
(3.62503e-05 -6.05566e-05 0.102735)
(-9.98027e-05 -9.98e-05 0.102705)
(1.15509e-05 1.1538e-05 0.102824)
(-1.56034e-05 1.14175e-05 0.102788)
(1.14283e-05 -1.56009e-05 0.102788)
(-5.63161e-05 -5.63411e-05 0.102726)
(7.27862e-07 7.29377e-07 0.10284)
(-2.00008e-06 1.81938e-06 0.102791)
(1.81914e-06 -2.00434e-06 0.102791)
(-4.4281e-05 -4.42977e-05 0.102718)
(-6.01841e-07 -5.97469e-07 0.102841)
(-5.12919e-07 7.5141e-07 0.10279)
(7.4967e-07 -5.16203e-07 0.10279)
(-4.32227e-05 -4.32392e-05 0.102717)
(-6.81131e-07 -6.75023e-07 0.102841)
(-4.58362e-07 7.02451e-07 0.10279)
(6.99763e-07 -4.61294e-07 0.10279)
(-4.31815e-05 -4.31983e-05 0.102716)
(-6.81617e-07 -6.73759e-07 0.102841)
(-4.57835e-07 7.02009e-07 0.10279)
(6.99183e-07 -4.61404e-07 0.10279)
(-4.31811e-05 -4.31979e-05 0.102716)
(-6.8612e-07 -6.81488e-07 0.102841)
(-4.60335e-07 6.9991e-07 0.10279)
(6.98523e-07 -4.6168e-07 0.10279)
(-4.31771e-05 -4.31941e-05 0.102716)
(0.000135166 0.000135155 0.100282)
(0.000124289 0.000152948 0.100229)
(-0.000124281 0.000152929 0.100229)
(-0.000135162 0.000135123 0.100281)
(0.000152977 0.00012424 0.100229)
(0.000152949 -0.000124257 0.100229)
(9.07218e-05 9.06693e-05 0.10015)
(-9.0712e-05 9.06671e-05 0.10015)
(9.06956e-05 -9.0716e-05 0.10015)
(-9.06932e-05 -9.0714e-05 0.10015)
(-0.000152973 0.000124237 0.100229)
(-0.000152958 -0.000124253 0.100229)
(0.000135155 -0.000135175 0.100282)
(0.00012424 -0.000152979 0.100229)
(-0.000124237 -0.000152961 0.100229)
(-0.000135164 -0.000135149 0.100282)
(0.000239389 0.000239367 0.100397)
(0.00011199 0.000111863 0.100892)
(0.000119268 0.000189884 0.100385)
(-0.000119219 0.000189925 0.100385)
(8.86436e-05 0.000146643 0.100824)
(-8.86041e-05 0.00014664 0.100824)
(-0.000239399 0.000239317 0.100397)
(-0.000111949 0.00011183 0.100892)
(0.000190027 0.000119165 0.100385)
(0.000189965 -0.000119227 0.100385)
(0.000146616 8.86121e-05 0.100824)
(0.000146648 -8.86335e-05 0.100824)
(-0.000189947 -0.00011923 0.100385)
(-0.000146586 8.86136e-05 0.100824)
(-0.000146608 -8.86279e-05 0.100824)
(0.000239319 -0.00023941 0.100397)
(0.000111941 -0.000111956 0.100892)
(-0.000119198 -0.000190012 0.100385)
(8.86149e-05 -0.000146578 0.100824)
(-8.85937e-05 -0.000146603 0.100824)
(-0.000111938 -0.000111959 0.100892)
(0.000200607 0.00020044 0.100968)
(0.000106324 0.000106242 0.101395)
(9.7157e-05 0.000159611 0.100942)
(-9.71316e-05 0.000159608 0.100942)
(9.304e-05 0.000154522 0.10132)
(-9.30391e-05 0.00015452 0.10132)
(-0.000200569 0.000200407 0.100968)
(-0.000106311 0.000106236 0.101395)
(0.000159592 9.71357e-05 0.100942)
(0.000159608 -9.71477e-05 0.100942)
(0.000154476 9.30447e-05 0.10132)
(0.000154516 -9.30455e-05 0.10132)
(-0.000159586 -9.71422e-05 0.100942)
(-0.000154472 9.30523e-05 0.10132)
(-0.000154494 -9.30365e-05 0.10132)
(0.000200516 -0.00020058 0.100968)
(0.000106288 -0.000106302 0.101395)
(-9.71311e-05 -0.000159583 0.100942)
(9.30436e-05 -0.000154477 0.10132)
(-9.30481e-05 -0.000154495 0.10132)
(-0.000106303 -0.00010631 0.101395)
(0.000200192 0.000200064 0.10147)
(0.00010109 0.000101035 0.101891)
(9.14113e-05 0.000153448 0.10145)
(-9.14142e-05 0.000153444 0.10145)
(9.17367e-05 0.000153893 0.101831)
(-9.17236e-05 0.00015388 0.101831)
(-0.000200181 0.000200048 0.10147)
(-0.000101077 0.000101026 0.101891)
(0.000153393 9.14239e-05 0.10145)
(0.000153437 -9.14189e-05 0.10145)
(0.000153832 9.17425e-05 0.101831)
(0.000153867 -9.17224e-05 0.101832)
(-0.00015342 -9.14123e-05 0.10145)
(-0.000153831 9.17377e-05 0.101831)
(-0.000153865 -9.17288e-05 0.101831)
(0.000200108 -0.000200183 0.10147)
(0.000101052 -0.000101079 0.101891)
(-9.1425e-05 -0.000153418 0.10145)
(9.17465e-05 -0.000153833 0.101832)
(-9.17341e-05 -0.000153843 0.101832)
(-0.000101106 -0.000101106 0.101891)
(0.000196026 0.000195929 0.101962)
(9.14212e-05 9.13752e-05 0.102368)
(8.68576e-05 0.000147558 0.101958)
(-8.68452e-05 0.000147544 0.101958)
(8.63388e-05 0.000147118 0.102325)
(-8.63258e-05 0.000147116 0.102325)
(-0.000196018 0.000195911 0.101962)
(-9.14151e-05 9.13733e-05 0.102368)
(0.000147505 8.68617e-05 0.101958)
(0.000147532 -8.68438e-05 0.101958)
(0.000147061 8.63492e-05 0.102325)
(0.000147092 -8.63152e-05 0.102325)
(-0.000147537 -8.6848e-05 0.101958)
(-0.000147058 8.63466e-05 0.102325)
(-0.000147095 -8.63324e-05 0.102325)
(0.000195942 -0.000196031 0.101962)
(9.13703e-05 -9.14176e-05 0.102368)
(-8.68492e-05 -0.000147508 0.101958)
(8.63586e-05 -0.000147059 0.102325)
(-8.63415e-05 -0.00014706 0.102325)
(-9.14378e-05 -9.14412e-05 0.102368)
(0.000181663 0.000181582 0.10243)
(1.92031e-05 1.92194e-05 0.102694)
(7.83311e-05 0.00013661 0.102447)
(-7.83175e-05 0.000136594 0.102447)
(4.39796e-05 7.69524e-05 0.102696)
(-4.40009e-05 7.69753e-05 0.102696)
(-0.000181667 0.000181566 0.10243)
(-1.91905e-05 1.92038e-05 0.102694)
(0.000136534 7.83562e-05 0.102447)
(0.000136568 -7.83073e-05 0.102447)
(7.69432e-05 4.39521e-05 0.102696)
(7.69705e-05 -4.39957e-05 0.102696)
(-0.000136581 -7.83181e-05 0.102447)
(-7.69334e-05 4.39454e-05 0.102696)
(-7.69634e-05 -4.39783e-05 0.102696)
(0.000181566 -0.000181683 0.10243)
(1.92305e-05 -1.91894e-05 0.102694)
(-7.83397e-05 -0.000136535 0.102447)
(4.39547e-05 -7.69448e-05 0.102696)
(-4.39393e-05 -7.69188e-05 0.102696)
(-1.92072e-05 -1.91504e-05 0.102694)
(9.98297e-05 9.98007e-05 0.102705)
(-2.86261e-05 -2.86297e-05 0.10273)
(3.62863e-05 6.05484e-05 0.102735)
(-3.63059e-05 6.05682e-05 0.102735)
(1.67304e-05 2.3713e-05 0.102784)
(-1.67323e-05 2.3733e-05 0.102784)
(-9.9831e-05 9.9772e-05 0.102705)
(2.86318e-05 -2.86299e-05 0.10273)
(6.05612e-05 3.62407e-05 0.102735)
(6.05757e-05 -3.62977e-05 0.102735)
(2.37324e-05 1.66911e-05 0.102784)
(2.37425e-05 -1.67283e-05 0.102784)
(-6.05646e-05 -3.62845e-05 0.102735)
(-2.37235e-05 1.66907e-05 0.102784)
(-2.37275e-05 -1.67249e-05 0.102784)
(9.98117e-05 -9.98454e-05 0.102705)
(-2.86106e-05 2.86404e-05 0.10273)
(-3.62494e-05 -6.0542e-05 0.102735)
(1.67026e-05 -2.37118e-05 0.102784)
(-1.67001e-05 -2.37237e-05 0.102784)
(2.86227e-05 2.86314e-05 0.10273)
(5.63384e-05 5.62981e-05 0.102726)
(-4.35275e-05 -4.3502e-05 0.102722)
(1.14591e-05 1.56034e-05 0.102788)
(-1.14548e-05 1.56201e-05 0.102788)
(2.88891e-06 3.43468e-06 0.102791)
(-2.88193e-06 3.44709e-06 0.102791)
(-5.63318e-05 5.6287e-05 0.102726)
(4.35352e-05 -4.35057e-05 0.102722)
(1.56119e-05 1.14244e-05 0.102788)
(1.56224e-05 -1.1453e-05 0.102788)
(3.42182e-06 2.86342e-06 0.102791)
(3.43555e-06 -2.8798e-06 0.102791)
(-1.56153e-05 -1.14521e-05 0.102788)
(-3.41531e-06 2.8557e-06 0.102791)
(-3.43993e-06 -2.87856e-06 0.102791)
(5.63071e-05 -5.6349e-05 0.102726)
(-4.35069e-05 4.3538e-05 0.102722)
(-1.14277e-05 -1.56051e-05 0.102788)
(2.85557e-06 -3.41749e-06 0.102791)
(-2.8567e-06 -3.41673e-06 0.102791)
(4.35074e-05 4.35253e-05 0.102722)
(4.42878e-05 4.4271e-05 0.102718)
(-4.50604e-05 -4.50356e-05 0.10272)
(1.84673e-06 2.01857e-06 0.102791)
(-1.84397e-06 2.03033e-06 0.102791)
(8.42054e-07 6.19974e-07 0.10279)
(-8.4196e-07 6.25431e-07 0.10279)
(-4.42822e-05 4.42607e-05 0.102718)
(4.50643e-05 -4.50363e-05 0.10272)
(2.00774e-06 1.82488e-06 0.102791)
(2.01999e-06 -1.84238e-06 0.102791)
(6.01332e-07 8.21234e-07 0.10279)
(6.21341e-07 -8.39032e-07 0.10279)
(-2.02385e-06 -1.8412e-06 0.102791)
(-5.99313e-07 8.18991e-07 0.10279)
(-6.20968e-07 -8.35631e-07 0.10279)
(4.42674e-05 -4.4302e-05 0.102718)
(-4.50327e-05 4.5069e-05 0.10272)
(-1.82009e-06 -2.00067e-06 0.102791)
(8.15956e-07 -5.99848e-07 0.10279)
(-8.14581e-07 -5.97425e-07 0.10279)
(4.50375e-05 4.50569e-05 0.10272)
(4.32292e-05 4.3211e-05 0.102717)
(-4.51214e-05 -4.50956e-05 0.10272)
(7.74981e-07 5.3406e-07 0.10279)
(-7.74646e-07 5.42e-07 0.10279)
(7.27892e-07 4.83213e-07 0.10279)
(-7.26041e-07 4.85612e-07 0.10279)
(-4.32283e-05 4.3205e-05 0.102717)
(4.51274e-05 -4.50962e-05 0.10272)
(5.18423e-07 7.55703e-07 0.10279)
(5.34855e-07 -7.71976e-07 0.10279)
(4.62202e-07 7.08239e-07 0.10279)
(4.83344e-07 -7.22534e-07 0.10279)
(-5.34379e-07 -7.69051e-07 0.10279)
(-4.59264e-07 7.04934e-07 0.10279)
(-4.81217e-07 -7.19778e-07 0.10279)
(4.3213e-05 -4.32445e-05 0.102717)
(-4.50938e-05 4.5131e-05 0.10272)
(-7.47847e-07 -5.11197e-07 0.10279)
(7.00754e-07 -4.59887e-07 0.10279)
(-6.98572e-07 -4.57817e-07 0.10279)
(4.50997e-05 4.51179e-05 0.10272)
(4.31889e-05 4.31727e-05 0.102717)
(-4.51187e-05 -4.5082e-05 0.10272)
(7.26514e-07 4.83616e-07 0.10279)
(-7.22776e-07 4.92008e-07 0.10279)
(7.3311e-07 4.92785e-07 0.10279)
(-7.23221e-07 4.84998e-07 0.10279)
(-4.31868e-05 4.31664e-05 0.102717)
(4.51316e-05 -4.50951e-05 0.10272)
(4.64991e-07 7.08536e-07 0.10279)
(4.8201e-07 -7.20368e-07 0.10279)
(4.60782e-07 7.12805e-07 0.10279)
(4.81615e-07 -7.18583e-07 0.10279)
(-4.80416e-07 -7.18519e-07 0.10279)
(-4.56952e-07 7.03235e-07 0.10279)
(-4.79196e-07 -7.16698e-07 0.10279)
(4.31727e-05 -4.32023e-05 0.102716)
(-4.50941e-05 4.51321e-05 0.10272)
(-6.97564e-07 -4.57297e-07 0.10279)
(6.97988e-07 -4.57177e-07 0.10279)
(-6.95217e-07 -4.55629e-07 0.10279)
(4.51005e-05 4.51188e-05 0.10272)
(4.31914e-05 4.31864e-05 0.102717)
(-4.51179e-05 -4.50957e-05 0.10272)
(7.3314e-07 4.91814e-07 0.10279)
(-7.21894e-07 4.91504e-07 0.10279)
(7.227e-07 4.77956e-07 0.10279)
(-7.25121e-07 4.81855e-07 0.10279)
(-4.31844e-05 4.3165e-05 0.102717)
(4.51267e-05 -4.50935e-05 0.10272)
(4.64879e-07 7.12882e-07 0.10279)
(4.82411e-07 -7.19262e-07 0.10279)
(4.59121e-07 7.0221e-07 0.10279)
(4.80831e-07 -7.19738e-07 0.10279)
(-4.80554e-07 -7.17723e-07 0.10279)
(-4.57614e-07 7.01671e-07 0.10279)
(-4.78802e-07 -7.16627e-07 0.10279)
(4.31727e-05 -4.32019e-05 0.102716)
(-4.50918e-05 4.51281e-05 0.10272)
(-6.96378e-07 -4.57318e-07 0.10279)
(6.97326e-07 -4.57459e-07 0.10279)
(-6.94672e-07 -4.5551e-07 0.10279)
(4.50978e-05 4.51157e-05 0.10272)
(4.31844e-05 4.31638e-05 0.102717)
(-4.5107e-05 -4.50845e-05 0.10272)
(7.23379e-07 4.80748e-07 0.10279)
(-7.23988e-07 4.87792e-07 0.10279)
(7.2118e-07 4.73874e-07 0.10279)
(-4.31808e-05 4.31579e-05 0.102717)
(4.64313e-07 7.04472e-07 0.10279)
(4.81375e-07 -7.20721e-07 0.10279)
(4.57619e-07 7.01295e-07 0.10279)
(4.79664e-07 -7.21207e-07 0.10279)
(-4.80454e-07 -7.18007e-07 0.10279)
(-4.79452e-07 -7.171e-07 0.10279)
(4.3168e-05 -4.31989e-05 0.102716)
(-4.50802e-05 4.51152e-05 0.10272)
(-6.96145e-07 -4.57734e-07 0.10279)
(6.9746e-07 -4.56941e-07 0.10279)
(-6.94626e-07 -4.5749e-07 0.10279)
(4.50851e-05 4.51033e-05 0.10272)
(-3.41998e-07 -3.44601e-07 0.0999988)
(1.68462e-05 1.68408e-05 0.100003)
(-4.54196e-07 1.39292e-05 0.1)
(1.39368e-05 -4.56643e-07 0.1)
(-4.67376e-05 5.72284e-06 0.100008)
(-1.52986e-05 1.56125e-05 0.0999999)
(-0.00012801 6.04404e-05 0.100057)
(-1.31139e-05 -8.60009e-07 0.0999958)
(5.71668e-06 -4.67223e-05 0.100008)
(1.56154e-05 -1.52991e-05 0.0999999)
(-8.58122e-07 -1.31134e-05 0.0999958)
(6.04531e-05 -0.00012794 0.100057)
(-1.87945e-05 -1.87979e-05 0.100003)
(-0.00013508 -8.10408e-05 0.100054)
(-8.1049e-05 -0.00013506 0.100054)
(-3.47629e-05 0.000137024 0.100718)
(0.000176883 0.000387527 0.0994249)
(2.38973e-06 0.000304637 0.10052)
(-8.41269e-05 0.000245532 0.0991333)
(-0.000303129 0.000836893 0.0977857)
(-0.000130463 0.000306092 0.0957061)
(0.000136758 -3.49099e-05 0.100718)
(0.000388145 0.000175847 0.0994256)
(0.000305385 2.2524e-06 0.100521)
(0.000245656 -8.40212e-05 0.0991337)
(-0.000107971 0.000107923 0.100299)
(0.000107958 -0.000107968 0.100299)
(-0.000107949 -0.000107977 0.100299)
(9.14709e-05 9.14019e-05 0.10074)
(-9.14265e-05 9.14189e-05 0.10074)
(9.14573e-05 -9.14716e-05 0.10074)
(-9.14361e-05 -9.14817e-05 0.10074)
(-0.000281374 6.41864e-06 0.100752)
(-0.00039752 0.000229046 0.100531)
(-0.000175109 3.74213e-05 0.100333)
(-0.000153759 9.47083e-05 0.100558)
(-0.0003586 1.56402e-05 0.10048)
(-0.000150743 0.00019913 0.100732)
(-0.000153145 3.33642e-05 0.100497)
(0.000835862 -0.000301258 0.0977842)
(0.000306079 -0.000130057 0.0957069)
(6.36998e-06 -0.000281293 0.100752)
(3.74564e-05 -0.00017509 0.100333)
(0.000229137 -0.000397497 0.100531)
(9.46633e-05 -0.000153749 0.100558)
(1.56375e-05 -0.000358475 0.10048)
(3.34161e-05 -0.000153131 0.100497)
(0.000199173 -0.000150743 0.100732)
(-0.000371748 -0.000140914 0.100373)
(-0.000141115 -0.000371995 0.100373)
(-0.000112422 -0.000112501 0.100655)
(9.90357e-06 -7.99651e-05 0.100577)
(-8.0225e-05 9.91954e-06 0.100577)
(-1.65221e-05 0.000199621 0.10086)
(-5.5912e-05 0.0002877 0.0983313)
(-2.02023e-05 0.000207795 0.100783)
(-4.49279e-05 0.000272096 0.09793)
(-0.000149836 0.000312375 0.0926389)
(-0.00013901 0.000274413 0.090986)
(0.000199549 -1.66832e-05 0.10086)
(0.000287944 -5.57966e-05 0.0983317)
(0.000207835 -2.0339e-05 0.100784)
(0.000272228 -4.48621e-05 0.0979302)
(-9.45847e-05 9.45985e-05 0.100859)
(9.46392e-05 -9.46346e-05 0.100859)
(-9.46169e-05 -9.46332e-05 0.100859)
(9.5254e-05 9.52371e-05 0.101239)
(-9.52266e-05 9.52526e-05 0.101239)
(9.52646e-05 -9.52624e-05 0.101239)
(-9.52583e-05 -9.52578e-05 0.101239)
(-0.000264932 1.32583e-05 0.101151)
(-0.000216969 0.000214071 0.100827)
(-0.000165069 3.10561e-05 0.100897)
(-0.000161067 9.80451e-05 0.101064)
(-0.00029728 1.41786e-05 0.100979)
(-0.000186149 0.00019846 0.100935)
(-0.000169831 3.268e-05 0.101019)
(0.000312361 -0.000149564 0.0926375)
(0.000274508 -0.00013885 0.0909871)
(1.33288e-05 -0.000264909 0.101151)
(3.11335e-05 -0.000165071 0.100897)
(0.00021414 -0.000217037 0.100827)
(9.8043e-05 -0.000161068 0.101064)
(1.42696e-05 -0.000297243 0.100979)
(3.27506e-05 -0.000169831 0.101019)
(0.000198427 -0.000186092 0.100935)
(-8.2864e-05 -9.58209e-05 0.100454)
(-9.59195e-05 -8.28791e-05 0.100454)
(-0.000113616 -0.000113611 0.101144)
(-8.77832e-05 -8.42147e-05 0.100414)
(-8.43536e-05 -8.78315e-05 0.100414)
(-9.98002e-06 0.000215402 0.100946)
(-2.3441e-05 0.0002783 0.0971474)
(-1.1032e-05 0.000227207 0.100912)
(-1.05539e-05 0.000260407 0.0966965)
(-0.000118072 0.000224974 0.0884064)
(-9.5292e-05 0.000187568 0.0870425)
(0.000215326 -1.0098e-05 0.100946)
(0.000278446 -2.33668e-05 0.0971476)
(0.000227259 -1.11441e-05 0.100912)
(0.000260495 -1.04886e-05 0.0966966)
(-9.43996e-05 9.443e-05 0.10137)
(9.44369e-05 -9.44354e-05 0.10137)
(-9.44294e-05 -9.44305e-05 0.10137)
(9.54412e-05 9.54309e-05 0.101767)
(-9.54195e-05 9.54529e-05 0.101767)
(9.54677e-05 -9.54464e-05 0.101767)
(-9.54481e-05 -9.54495e-05 0.101767)
(-0.000255565 1.20997e-05 0.101577)
(-0.000217469 0.000189469 0.101038)
(-0.000164654 3.25845e-05 0.101407)
(-0.000157488 9.41787e-05 0.101578)
(-0.000286641 1.22161e-05 0.101416)
(-0.000188051 0.00017073 0.101111)
(-0.000168772 3.27181e-05 0.101536)
(0.00022479 -0.000117808 0.0884041)
(0.000187674 -9.52227e-05 0.0870434)
(1.21495e-05 -0.000255551 0.101577)
(3.26264e-05 -0.000164665 0.101407)
(0.000189496 -0.000217521 0.101038)
(9.41736e-05 -0.000157493 0.101578)
(1.22694e-05 -0.000286639 0.101416)
(3.27552e-05 -0.000168771 0.101536)
(0.000170683 -0.000188 0.101111)
(-0.000113646 -9.01589e-05 0.100199)
(-9.02552e-05 -0.000113718 0.100199)
(-0.000103055 -0.00010306 0.101648)
(-0.000114586 -7.37074e-05 0.100069)
(-7.37941e-05 -0.00011466 0.100068)
(-7.34376e-06 0.000214022 0.100941)
(7.6347e-06 0.000260264 0.0958758)
(-7.96978e-06 0.000232625 0.100937)
(7.19863e-06 0.000225242 0.0954001)
(-7.58001e-05 0.000150912 0.0849869)
(-5.70312e-05 0.000114464 0.0839635)
(0.000213982 -7.43105e-06 0.100941)
(0.000260347 7.68812e-06 0.0958759)
(0.000232682 -8.0614e-06 0.100938)
(0.000225327 7.2841e-06 0.0954003)
(-9.28132e-05 9.28427e-05 0.101893)
(9.2858e-05 -9.28357e-05 0.101893)
(-9.28374e-05 -9.28399e-05 0.101893)
(8.68122e-05 8.68197e-05 0.102266)
(-8.68017e-05 8.68476e-05 0.102266)
(8.6853e-05 -8.68155e-05 0.102266)
(-8.68296e-05 -8.68238e-05 0.102266)
(-0.000238701 1.08992e-05 0.101975)
(-0.000214762 0.000162133 0.101158)
(-0.000160926 3.17845e-05 0.101924)
(-0.000145016 8.49481e-05 0.102081)
(-0.000279538 1.10412e-05 0.101824)
(-0.000177309 0.000140535 0.101196)
(-0.000155824 3.04421e-05 0.102049)
(0.000150766 -7.56233e-05 0.0849845)
(0.00011453 -5.70022e-05 0.0839643)
(1.09349e-05 -0.000238698 0.101975)
(3.18051e-05 -0.000160925 0.101924)
(0.000162164 -0.000214803 0.101158)
(8.49592e-05 -0.00014502 0.102081)
(1.10793e-05 -0.000279548 0.101824)
(3.04585e-05 -0.000155811 0.102049)
(0.000140498 -0.000177274 0.101195)
(-0.000132303 -7.6362e-05 0.0997425)
(-7.64238e-05 -0.00013237 0.0997422)
(-9.11042e-05 -9.11115e-05 0.102136)
(-0.000122913 -6.22597e-05 0.0995486)
(-6.23163e-05 -0.000122981 0.099548)
(-1.6957e-05 0.000186288 0.100841)
(2.10009e-05 0.000233981 0.0946027)
(-9.6173e-06 0.000224138 0.100878)
(1.28994e-05 0.000166565 0.0941304)
(-3.52151e-05 9.80039e-05 0.0823324)
(1.65268e-05 4.3044e-05 0.0816581)
(0.000186223 -1.70337e-05 0.100841)
(0.000233994 2.10271e-05 0.0946022)
(0.00022421 -9.68751e-06 0.100878)
(0.000166604 1.29928e-05 0.0941308)
(-8.29148e-05 8.29654e-05 0.102391)
(8.29705e-05 -8.29241e-05 0.102391)
(-8.29455e-05 -8.2934e-05 0.102391)
(5.4215e-05 5.42045e-05 0.102666)
(-5.42183e-05 5.42088e-05 0.102666)
(5.42202e-05 -5.42266e-05 0.102666)
(-5.42233e-05 -5.42338e-05 0.102666)
(-0.000196137 4.46871e-06 0.102322)
(-0.00020141 0.000131744 0.101197)
(-0.000152021 2.81365e-05 0.102419)
(-0.000117672 6.58187e-05 0.102555)
(-0.000262392 8.27559e-06 0.102198)
(-0.000136179 9.50801e-05 0.101201)
(-0.000135064 2.47058e-05 0.102529)
(9.78363e-05 -3.5045e-05 0.08233)
(4.30444e-05 1.66266e-05 0.081659)
(4.49834e-06 -0.000196128 0.102322)
(2.81364e-05 -0.000152012 0.102419)
(0.000131776 -0.000201465 0.101197)
(6.58296e-05 -0.000117676 0.102555)
(8.30916e-06 -0.000262411 0.102198)
(2.47143e-05 -0.000135047 0.102529)
(9.50216e-05 -0.000136153 0.1012)
(-0.000140196 -5.6917e-05 0.0991589)
(-5.69569e-05 -0.00014024 0.0991583)
(-6.12493e-05 -6.12466e-05 0.102581)
(-0.000101323 -2.52529e-05 0.0989412)
(-2.52948e-05 -0.000101368 0.0989403)
(-3.45231e-06 5.99069e-06 0.100648)
(-2.22728e-05 7.38476e-05 0.0935889)
(-8.72621e-06 7.38469e-05 0.100699)
(-2.19746e-05 2.20531e-05 0.0935158)
(4.95026e-06 -4.16081e-06 0.0813637)
(-3.82815e-06 -1.09104e-05 0.0814323)
(5.94138e-06 -3.46877e-06 0.100647)
(7.38433e-05 -2.22718e-05 0.0935881)
(7.39491e-05 -8.75923e-06 0.1007)
(2.21054e-05 -2.19618e-05 0.0935163)
(-4.40184e-05 4.40052e-05 0.102721)
(4.40201e-05 -4.40265e-05 0.102721)
(-4.40215e-05 -4.40331e-05 0.102721)
(1.77577e-05 1.77431e-05 0.102811)
(-1.77534e-05 1.77441e-05 0.102811)
(1.77572e-05 -1.77599e-05 0.102811)
(-1.77599e-05 -1.7765e-05 0.102811)
(-2.08154e-05 2.7941e-06 0.102378)
(-7.07966e-05 3.10035e-05 0.101085)
(-6.76968e-05 1.4712e-05 0.102735)
(-4.64894e-05 2.94472e-05 0.10276)
(-9.89625e-05 2.68528e-06 0.102386)
(-1.25883e-05 4.27771e-06 0.101038)
(-5.03115e-05 1.20585e-05 0.102769)
(-4.31185e-06 5.09836e-06 0.0813613)
(-1.08618e-05 -3.765e-06 0.0814331)
(2.8258e-06 -2.08023e-05 0.102377)
(1.47266e-05 -6.76898e-05 0.102735)
(3.1056e-05 -7.07897e-05 0.101085)
(2.9451e-05 -4.64817e-05 0.10276)
(2.69921e-06 -9.89471e-05 0.102386)
(1.20783e-05 -5.03032e-05 0.102769)
(4.25266e-06 -1.24975e-05 0.101037)
(-2.99076e-05 2.33931e-06 0.0986352)
(2.36106e-06 -2.9922e-05 0.0986346)
(1.01092e-05 1.0141e-05 0.102726)
(-3.85682e-06 1.50488e-05 0.0985427)
(1.50478e-05 -3.86912e-06 0.0985418)
(-4.58119e-07 -9.56306e-06 0.100595)
(-4.64513e-06 1.03125e-05 0.093485)
(-1.092e-06 8.43179e-06 0.100591)
(-2.76917e-06 -6.07676e-06 0.093504)
(-5.6002e-06 3.23766e-07 0.0814649)
(4.3801e-07 -3.45683e-06 0.081488)
(-9.62859e-06 -4.68308e-07 0.100594)
(1.02811e-05 -4.7313e-06 0.0934842)
(8.49473e-06 -1.08252e-06 0.100592)
(-6.03086e-06 -2.78359e-06 0.0935046)
(-1.15473e-05 1.15382e-05 0.102824)
(1.15496e-05 -1.15516e-05 0.102824)
(-1.15527e-05 -1.15573e-05 0.102824)
(1.91164e-06 1.91262e-06 0.102839)
(-1.91027e-06 1.90843e-06 0.102839)
(1.91276e-06 -1.91091e-06 0.102839)
(-1.91589e-06 -1.91695e-06 0.102839)
(1.17713e-05 4.19187e-07 0.102346)
(-2.03865e-05 6.37538e-06 0.100952)
(-1.62234e-05 4.3529e-06 0.102816)
(-9.75068e-06 7.39666e-06 0.10279)
(-2.28881e-05 9.44438e-07 0.102348)
(1.16104e-05 -3.59739e-06 0.100955)
(-1.01723e-05 2.62295e-06 0.102821)
(2.32816e-07 -5.52624e-06 0.081462)
(-3.33054e-06 3.85799e-07 0.0814886)
(4.3317e-07 1.17794e-05 0.102345)
(4.36304e-06 -1.62235e-05 0.102816)
(6.43763e-06 -2.04285e-05 0.100953)
(7.40259e-06 -9.75034e-06 0.10279)
(9.51645e-07 -2.28986e-05 0.102348)
(2.62962e-06 -1.01683e-05 0.102821)
(-3.61744e-06 1.16661e-05 0.100954)
(-6.13372e-06 -3.33139e-06 0.0984296)
(-3.30135e-06 -6.13424e-06 0.0984289)
(3.92189e-05 3.92344e-05 0.102725)
(3.45844e-06 5.65421e-06 0.0984277)
(5.65055e-06 3.45043e-06 0.0984267)
(1.72116e-08 -9.25869e-06 0.10059)
(5.48419e-07 6.7324e-06 0.0934883)
(-1.84422e-07 9.01592e-06 0.100578)
(-1.14192e-06 -6.5682e-06 0.0935051)
(-2.09138e-06 2.67235e-06 0.081472)
(1.80186e-06 -2.7146e-06 0.0814892)
(-9.32797e-06 1.14093e-08 0.100589)
(6.69118e-06 5.12289e-07 0.0934876)
(9.0791e-06 -1.70267e-07 0.100579)
(-6.53212e-06 -1.10469e-06 0.0935057)
(-7.2741e-07 7.27174e-07 0.10284)
(7.29968e-07 -7.27416e-07 0.10284)
(-7.3294e-07 -7.32632e-07 0.10284)
(-5.06326e-07 -5.00779e-07 0.102841)
(5.04273e-07 -5.02428e-07 0.102841)
(-4.99746e-07 5.04402e-07 0.102841)
(4.98604e-07 5.01272e-07 0.102841)
(1.48067e-05 6.78855e-08 0.10234)
(-1.50731e-05 4.2968e-06 0.10093)
(-2.18854e-06 2.82328e-07 0.102826)
(-1.21858e-06 1.25277e-06 0.102791)
(-1.57714e-05 -6.89363e-08 0.102336)
(1.3834e-05 -4.52406e-06 0.100947)
(-1.37917e-06 4.6662e-08 0.102826)
(2.55189e-06 -2.01468e-06 0.081469)
(-2.60181e-06 1.74827e-06 0.0814897)
(7.85399e-08 1.48139e-05 0.10234)
(2.82287e-07 -2.18841e-06 0.102826)
(4.33867e-06 -1.51273e-05 0.10093)
(1.25021e-06 -1.22033e-06 0.10279)
(-7.21615e-08 -1.57826e-05 0.102336)
(4.55147e-08 -1.37534e-06 0.102826)
(-4.56861e-06 1.38837e-05 0.100946)
(-4.63801e-06 -5.58748e-06 0.0984009)
(-5.57311e-06 -4.63239e-06 0.0984002)
(4.47628e-05 4.47818e-05 0.10272)
(4.15924e-06 5.30729e-06 0.0984177)
(5.30169e-06 4.15202e-06 0.0984168)
(5.43607e-08 -9.27205e-06 0.100589)
(7.1344e-07 6.73147e-06 0.0934883)
(-8.13466e-08 8.98529e-06 0.100578)
(-1.09613e-06 -6.53501e-06 0.0935053)
(-1.90432e-06 2.72287e-06 0.0814719)
(1.85685e-06 -2.70185e-06 0.0814892)
(-9.33881e-06 4.84317e-08 0.100589)
(6.69072e-06 6.79506e-07 0.0934876)
(9.05382e-06 -6.38974e-08 0.100578)
(-6.49514e-06 -1.05826e-06 0.0935059)
(6.00343e-07 -5.99147e-07 0.102841)
(-5.96449e-07 6.00504e-07 0.102841)
(5.95557e-07 5.97669e-07 0.102841)
(-6.77929e-07 -6.71374e-07 0.102841)
(6.77357e-07 -6.73888e-07 0.102841)
(-6.72306e-07 6.77786e-07 0.102841)
(6.72383e-07 6.75039e-07 0.102841)
(1.50051e-05 7.28201e-08 0.10234)
(-1.46345e-05 4.15892e-06 0.100929)
(-6.54271e-07 -1.63655e-07 0.102826)
(-4.78248e-07 7.22058e-07 0.10279)
(-1.51642e-05 -8.50046e-08 0.102335)
(1.39944e-05 -4.54822e-06 0.100947)
(-6.08016e-07 -1.74845e-07 0.102826)
(2.60717e-06 -1.82946e-06 0.081469)
(-2.58504e-06 1.79724e-06 0.0814898)
(8.02691e-08 1.50171e-05 0.10234)
(-1.65813e-07 -6.52991e-07 0.102826)
(4.1927e-06 -1.46831e-05 0.100929)
(7.18472e-07 -4.78913e-07 0.10279)
(-8.99531e-08 -1.51792e-05 0.102335)
(-1.77429e-07 -6.02689e-07 0.102826)
(-4.59244e-06 1.40439e-05 0.100946)
(-4.49775e-06 -5.49555e-06 0.0983997)
(-5.48328e-06 -4.49142e-06 0.098399)
(4.50936e-05 4.5112e-05 0.10272)
(4.20128e-06 5.34506e-06 0.0984174)
(5.33805e-06 4.19438e-06 0.0984165)
(6.46587e-08 -9.26044e-06 0.100589)
(7.22286e-07 6.74007e-06 0.0934883)
(-7.33136e-08 8.9911e-06 0.100578)
(-1.08095e-06 -6.53073e-06 0.0935052)
(-1.89944e-06 2.72718e-06 0.0814719)
(1.85489e-06 -2.6968e-06 0.0814892)
(-9.32907e-06 5.10929e-08 0.100589)
(6.69795e-06 6.85436e-07 0.0934875)
(9.05861e-06 -5.77584e-08 0.100578)
(-6.48089e-06 -1.04785e-06 0.093506)
(6.81615e-07 -6.7796e-07 0.102841)
(-6.76674e-07 6.82356e-07 0.102841)
(6.7671e-07 6.79415e-07 0.102841)
(-6.82446e-07 -6.73009e-07 0.102841)
(6.8504e-07 -6.77695e-07 0.102841)
(-6.787e-07 6.85922e-07 0.102841)
(6.79399e-07 6.8236e-07 0.102841)
(1.50044e-05 7.44475e-08 0.10234)
(-1.46183e-05 4.1676e-06 0.100929)
(-5.82888e-07 -1.80893e-07 0.102826)
(-4.57246e-07 7.03591e-07 0.10279)
(-1.51461e-05 -8.15389e-08 0.102335)
(1.39906e-05 -4.53971e-06 0.100947)
(-5.7953e-07 -1.81315e-07 0.102826)
(2.61303e-06 -1.82707e-06 0.0814691)
(-2.58325e-06 1.79889e-06 0.0814898)
(8.13763e-08 1.5016e-05 0.10234)
(-1.83706e-07 -5.81251e-07 0.102826)
(4.20378e-06 -1.46694e-05 0.100929)
(6.98234e-07 -4.57644e-07 0.10279)
(-8.78268e-08 -1.51593e-05 0.102335)
(-1.84385e-07 -5.7417e-07 0.102826)
(-4.58235e-06 1.40395e-05 0.100946)
(-4.4985e-06 -5.4937e-06 0.0983997)
(-5.48163e-06 -4.49217e-06 0.098399)
(4.51006e-05 4.5119e-05 0.10272)
(4.19764e-06 5.34202e-06 0.0984174)
(5.33497e-06 4.19068e-06 0.0984165)
(6.1892e-08 -9.25893e-06 0.100589)
(8.09969e-07 6.7741e-06 0.0934886)
(-5.99275e-08 8.99459e-06 0.100578)
(-1.10777e-06 -6.54241e-06 0.0935052)
(-1.88724e-06 2.7189e-06 0.0814719)
(1.85654e-06 -2.69363e-06 0.0814892)
(-9.32821e-06 5.08017e-08 0.100589)
(6.69523e-06 6.87881e-07 0.0934876)
(9.06096e-06 -5.52867e-08 0.100578)
(-6.4819e-06 -1.04569e-06 0.093506)
(6.85614e-07 -6.79207e-07 0.102841)
(-6.7886e-07 6.85544e-07 0.102841)
(6.79385e-07 6.82082e-07 0.102841)
(-6.86201e-07 -6.80577e-07 0.102841)
(6.84781e-07 -6.78897e-07 0.102841)
(-6.79381e-07 6.85271e-07 0.102841)
(6.79738e-07 6.81772e-07 0.102841)
(1.50024e-05 7.38e-08 0.10234)
(-1.46172e-05 4.168e-06 0.100929)
(-5.82285e-07 -1.80755e-07 0.102826)
(-4.57298e-07 7.02429e-07 0.10279)
(-1.51469e-05 -8.11927e-08 0.102335)
(1.39884e-05 -4.53976e-06 0.100947)
(-5.79551e-07 -1.81318e-07 0.102826)
(2.60594e-06 -1.8256e-06 0.0814691)
(-2.57579e-06 1.78988e-06 0.0814898)
(8.17871e-08 1.50134e-05 0.10234)
(-1.83414e-07 -5.81178e-07 0.102826)
(4.2059e-06 -1.46701e-05 0.100929)
(6.9775e-07 -4.57605e-07 0.10279)
(-8.73249e-08 -1.51604e-05 0.102335)
(-1.84072e-07 -5.74469e-07 0.102826)
(-4.58082e-06 1.40367e-05 0.100946)
(-4.49666e-06 -5.49445e-06 0.0983997)
(-5.48236e-06 -4.49047e-06 0.098399)
(4.50988e-05 4.51169e-05 0.10272)
(4.19504e-06 5.34216e-06 0.0984174)
(5.33564e-06 4.1877e-06 0.0984165)
(5.69078e-08 -9.26054e-06 0.100589)
(7.2439e-07 6.75498e-06 0.0934885)
(-7.6215e-08 8.99115e-06 0.100578)
(-1.09445e-06 -6.54065e-06 0.0935052)
(-1.89164e-06 2.71953e-06 0.0814719)
(1.85154e-06 -2.69143e-06 0.0814893)
(-9.32802e-06 4.81293e-08 0.100589)
(6.69751e-06 6.79549e-07 0.0934876)
(9.06057e-06 -5.92346e-08 0.100578)
(-6.47999e-06 -1.04921e-06 0.093506)
(6.86249e-07 -6.79762e-07 0.102841)
(-6.79638e-07 6.84882e-07 0.102841)
(6.79602e-07 6.80825e-07 0.102841)
(-6.84761e-07 -6.81773e-07 0.102841)
(6.91198e-07 -6.71274e-07 0.102841)
(-6.78279e-07 6.84693e-07 0.102841)
(6.80537e-07 6.77722e-07 0.102841)
(1.49989e-05 7.31842e-08 0.10234)
(-1.46167e-05 4.16703e-06 0.100929)
(-5.83972e-07 -1.8173e-07 0.102826)
(-4.59262e-07 7.00317e-07 0.10279)
(-1.51456e-05 -8.16803e-08 0.102335)
(1.39877e-05 -4.54069e-06 0.100947)
(-5.81257e-07 -1.81883e-07 0.102826)
(2.60534e-06 -1.82301e-06 0.081469)
(-2.57814e-06 1.79223e-06 0.0814898)
(8.14486e-08 1.50106e-05 0.10234)
(-1.83605e-07 -5.81244e-07 0.102826)
(4.20525e-06 -1.46681e-05 0.100929)
(6.96655e-07 -4.57238e-07 0.10279)
(-8.74642e-08 -1.51587e-05 0.102335)
(-1.84168e-07 -5.73755e-07 0.102826)
(-4.58015e-06 1.40357e-05 0.100946)
(-4.49849e-06 -5.49405e-06 0.0983997)
(-5.4814e-06 -4.49293e-06 0.098399)
(4.50935e-05 4.51116e-05 0.10272)
(4.19826e-06 5.34137e-06 0.0984175)
(5.3353e-06 4.19033e-06 0.0984165)
(1.87995e-05 1.87888e-05 0.100003)
(8.10272e-05 0.000135057 0.100054)
(0.000135118 8.10385e-05 0.100054)
(0.000413945 0.00104242 0.097872)
(0.000115166 0.00020436 0.100125)
(0.00104151 0.000411319 0.0978719)
(0.000204509 0.000115193 0.100125)
(0.000102291 0.000102254 0.100042)
(0.000117814 0.000514088 0.100269)
(0.000512953 0.000117435 0.100269)
(0.000117286 0.000180227 0.100097)
(0.000180366 0.000117307 0.100097)
(5.72064e-06 4.67068e-05 0.100008)
(1.56196e-05 1.52966e-05 0.0999999)
(6.0442e-05 0.000127947 0.100057)
(-8.56895e-07 1.31066e-05 0.0999958)
(-5.73173e-06 4.67156e-05 0.100008)
(-1.56174e-05 1.52914e-05 0.0999999)
(-6.04146e-05 0.000127934 0.100057)
(8.57409e-07 1.31073e-05 0.0999958)
(4.59128e-06 0.000154555 0.100054)
(0.000326545 0.000316217 0.0993467)
(9.8354e-05 0.000167642 0.100056)
(7.35643e-06 0.000328192 0.100415)
(-4.63092e-06 0.00015457 0.100054)
(-0.000326011 0.000316928 0.0993466)
(-9.82911e-05 0.000167603 0.100056)
(-7.34619e-06 0.0003283 0.100415)
(1.38628e-05 0.000160063 0.100055)
(6.24081e-05 8.72179e-05 0.100031)
(0.000206901 0.000377543 0.100422)