/*--------------------------------*- C++ -*----------------------------------*\
| =========                 |                                                 |
| \\      /  F ield         | OpenFOAM: The Open Source CFD Toolbox           |
|  \\    /   O peration     | Version:  2206                                  |
|   \\  /    A nd           | Website:  www.openfoam.com                      |
|    \\/     M anipulation  |                                                 |
\*---------------------------------------------------------------------------*/
FoamFile
{
    version     2.0;
    format      ascii;
    arch        "LSB;label=32;scalar=64";
    class       surfaceScalarField;
    location    "17.5";
    object      phi;
}
// * * * * * * * * * * * * * * * * * * * * * * * * * * * * * * * * * * * * * //

dimensions      [0 3 -1 0 0 0 0];

oriented        oriented;

internalField   nonuniform List<scalar> 
82717
(
1.19414e-09
1.23506e-09
-1.2054e-09
-1.20457e-09
0.0010744
-0.00107488
-1.1852e-06
-1.30423e-09
1.97136e-09
0.00107488
-2.3709e-07
1.1873e-06
2.36318e-07
8.65497e-07
-2.2984e-07
-8.65388e-07
2.27814e-07
-1.17983e-06
-1.26043e-09
2.01379e-09
0.00107454
-2.37073e-07
1.1819e-06
2.36276e-07
8.65321e-07
-2.325e-07
-8.65269e-07
2.30457e-07
1.21318e-06
1.17995e-06
-2.19972e-07
-2.25208e-07
0.00026232
1.46688e-09
1.50753e-09
-0.0010744
-1.33524e-09
-1.34667e-09
0.0010744
-0.00107487
-1.18513e-06
-1.61619e-09
1.80253e-09
0.00107487
-2.36999e-07
1.18735e-06
2.36393e-07
8.65571e-07
-2.29705e-07
-8.65308e-07
2.27942e-07
-0.00107454
-1.17979e-06
-1.54445e-09
1.87396e-09
0.00107454
-2.37e-07
1.18194e-06
2.36356e-07
8.65399e-07
-2.3236e-07
-8.65191e-07
2.306e-07
-0.000264268
1.21314e-06
1.1799e-06
-2.19913e-07
-2.25148e-07
0.00026232
1.58122e-09
1.70937e-09
-0.0010744
-1.41693e-09
-1.37832e-09
0.0010744
-0.00107487
-1.1851e-06
-1.90582e-09
1.6397e-09
0.00107487
-2.36978e-07
1.18746e-06
2.36512e-07
8.65667e-07
-2.29655e-07
-8.65259e-07
2.2807e-07
-0.00107453
-1.17976e-06
-1.71449e-09
1.79423e-09
0.00107453
-2.36973e-07
1.18197e-06
2.36392e-07
8.65421e-07
-2.32302e-07
-8.65167e-07
2.30664e-07
-0.000264268
1.2131e-06
1.17988e-06
-2.19863e-07
-2.25079e-07
0.00026232
5.68298e-11
4.5081e-10
-0.0010744
-9.10743e-10
-6.85363e-10
0.0010744
-0.00107487
-1.18564e-06
7.41581e-11
2.96485e-09
0.00107487
-2.37665e-07
1.18693e-06
2.35846e-07
8.65017e-07
-2.30422e-07
-8.65853e-07
2.27199e-07
-0.00107453
-1.18002e-06
-3.79773e-10
2.45839e-09
0.00107453
-2.37307e-07
1.18167e-06
2.35998e-07
8.64951e-07
-2.32739e-07
-8.65584e-07
2.30108e-07
-0.000264267
1.21333e-06
1.18015e-06
-2.20159e-07
-2.25348e-07
0.000262319
8.26015e-10
8.68905e-10
-0.0010744
-9.87443e-10
-1.03737e-09
0.0010744
-0.00107488
-1.18525e-06
-1.04341e-09
1.96098e-09
0.00107488
-2.37134e-07
1.1873e-06
2.36332e-07
8.65522e-07
-2.30119e-07
-8.65515e-07
2.27727e-07
-0.00107454
-1.17993e-06
-9.03579e-10
2.06712e-09
0.00107454
-2.37174e-07
1.18192e-06
2.36322e-07
8.65311e-07
-2.32862e-07
-8.65436e-07
2.30314e-07
-0.000264268
1.21328e-06
1.18003e-06
-2.20085e-07
-2.25328e-07
0.00026232
1.07067e-09
1.19968e-09
-0.0010744
-1.16241e-09
-1.13591e-09
0.0010744
-0.00107488
-1.18524e-06
-1.22069e-09
2.05281e-09
0.00107488
-2.3714e-07
1.1873e-06
2.3632e-07
8.65533e-07
-2.29963e-07
-8.65478e-07
2.27828e-07
-0.00107454
-1.17987e-06
-1.2227e-09
1.99995e-09
0.00107454
-2.37118e-07
1.18194e-06
2.3634e-07
8.6536e-07
-2.32594e-07
-8.65353e-07
2.30495e-07
-0.000264268
1.21322e-06
1.17999e-06
-2.20011e-07
-2.25242e-07
0.00026232
9.25011e-10
1.19638e-09
-0.0010744
-1.14227e-09
-1.05969e-09
0.0010744
-0.00107488
-1.18529e-06
-1.19571e-09
2.16445e-09
0.00107488
-2.37196e-07
1.18725e-06
2.3626e-07
8.6554e-07
-2.29964e-07
-8.65477e-07
2.27831e-07
-0.00107454
-1.17988e-06
-1.24623e-09
2.01271e-09
0.00107454
-2.37125e-07
1.18194e-06
2.36335e-07
8.65365e-07
-2.32591e-07
-8.65349e-07
2.30498e-07
-0.000264268
1.21322e-06
1.17999e-06
-2.20014e-07
-2.25238e-07
0.00026232
1.04402e-09
1.14721e-09
-0.0010744
-1.11122e-09
-1.09512e-09
0.0010744
-0.00107488
-1.18521e-06
-1.27106e-09
1.97779e-09
0.00107488
-2.37092e-07
1.18733e-06
2.36382e-07
8.65536e-07
-2.29941e-07
-8.65467e-07
2.27842e-07
-0.00107454
-1.17988e-06
-1.25614e-09
2.01623e-09
0.00107454
-2.37124e-07
1.18194e-06
2.36335e-07
8.65366e-07
-2.32588e-07
-8.65346e-07
2.305e-07
-0.000264268
1.21322e-06
1.17999e-06
-2.20012e-07
-2.25237e-07
0.00026232
1.00988e-09
1.11303e-09
-0.00107439
-1.13341e-09
-1.15793e-09
0.00107439
-0.00107488
-1.18524e-06
-1.20401e-09
2.04452e-09
0.00107488
-2.39866e-07
1.18731e-06
2.39024e-07
8.65528e-07
-2.29999e-07
-8.65486e-07
2.27842e-07
-0.00107454
-1.17988e-06
-1.22985e-09
2.01004e-09
0.00107454
-2.37123e-07
1.18194e-06
2.36335e-07
8.65363e-07
-2.32589e-07
-8.65348e-07
2.30497e-07
-0.000264268
1.21322e-06
1.17999e-06
-2.20009e-07
-2.25239e-07
0.00026232
1.14403e-09
1.20225e-09
-0.0010744
-1.15982e-09
-1.16847e-09
0.0010744
-0.00107488
-1.18522e-06
-1.21934e-09
2.01606e-09
0.00107488
-2.39875e-07
1.1873e-06
2.39073e-07
8.65528e-07
-2.2999e-07
-8.6548e-07
2.27845e-07
-0.00107454
-1.17987e-06
-1.22141e-09
2.00458e-09
0.00107454
-2.37122e-07
1.18194e-06
2.36336e-07
8.65361e-07
-2.32591e-07
-8.6535e-07
2.30495e-07
-0.000264268
1.21322e-06
1.17999e-06
-2.2001e-07
-2.25239e-07
0.00026232
1.13576e-09
1.21002e-09
-0.0010744
-1.17733e-09
-1.17029e-09
0.0010744
-0.00107488
-1.18522e-06
-1.22442e-09
2.01789e-09
0.00107488
-2.39868e-07
1.1873e-06
2.39079e-07
8.65531e-07
-2.29987e-07
-8.65477e-07
2.27847e-07
-0.00107454
-1.17987e-06
-1.21561e-09
2.00086e-09
0.00107454
-2.37121e-07
1.18194e-06
2.36337e-07
8.6536e-07
-2.32592e-07
-8.65351e-07
2.30494e-07
-0.000264268
1.21322e-06
1.17999e-06
-2.20009e-07
-2.25239e-07
0.00026232
1.13623e-09
1.216e-09
-0.0010744
-1.1842e-09
-1.16962e-09
0.0010744
-0.00107488
-1.18522e-06
-1.21671e-09
2.02026e-09
0.00107488
-2.39867e-07
1.1873e-06
2.3908e-07
8.6553e-07
-2.29989e-07
-8.65479e-07
2.27846e-07
-0.00107454
-1.17987e-06
-1.20807e-09
2.00143e-09
0.00107454
-2.37121e-07
1.18194e-06
2.36336e-07
8.65358e-07
-2.32594e-07
-8.65352e-07
2.30492e-07
-0.000264268
1.21322e-06
1.17999e-06
-2.20011e-07
-2.2524e-07
0.00026232
1.12892e-09
1.20878e-09
-0.0010744
-1.18022e-09
-1.16502e-09
0.0010744
-0.00107488
-1.18522e-06
-1.21507e-09
2.02263e-09
0.00107488
-2.39869e-07
1.1873e-06
2.39078e-07
8.6553e-07
-2.29989e-07
-8.65479e-07
2.27847e-07
-0.00107454
-1.17987e-06
-1.20325e-09
2.00415e-09
0.00107454
-2.37122e-07
1.18194e-06
2.36336e-07
8.65357e-07
-2.32595e-07
-8.65353e-07
2.30491e-07
-0.000264268
1.21322e-06
1.17999e-06
-2.20012e-07
-2.25242e-07
0.00026232
1.11879e-09
1.20571e-09
-0.0010744
-1.17568e-09
-1.15981e-09
0.0010744
-0.00107488
-1.18522e-06
-1.21392e-09
2.02531e-09
0.00107488
-2.3987e-07
1.1873e-06
2.39077e-07
8.6553e-07
-2.29989e-07
-8.65479e-07
2.27846e-07
-0.00107454
-1.17988e-06
-1.20038e-09
2.0084e-09
0.00107454
-2.37123e-07
1.18194e-06
2.36335e-07
8.65357e-07
-2.32596e-07
-8.65354e-07
2.30491e-07
-0.000264268
1.21322e-06
1.17999e-06
-2.20013e-07
-2.25242e-07
0.00026232
1.11515e-09
1.20616e-09
-0.0010744
-1.17657e-09
-1.15746e-09
0.0010744
-0.00107488
-1.18522e-06
-1.21005e-09
2.02683e-09
0.00107488
-2.39871e-07
1.1873e-06
2.39077e-07
8.65529e-07
-2.29992e-07
-8.6548e-07
2.27847e-07
-0.00107454
-1.17988e-06
-1.2006e-09
2.00765e-09
0.00107454
-2.37124e-07
1.18194e-06
2.36335e-07
8.65356e-07
-2.32598e-07
-8.65356e-07
2.30491e-07
-0.000264268
1.21322e-06
1.17999e-06
-2.20014e-07
-2.25245e-07
0.00026232
1.11953e-09
1.21221e-09
-0.0010744
-1.18016e-09
-1.16022e-09
0.0010744
-0.00107488
-1.18522e-06
-1.21593e-09
2.02215e-09
0.00107488
-2.39864e-07
1.1873e-06
2.39075e-07
8.65527e-07
-2.29981e-07
-8.65475e-07
2.27841e-07
-0.00107454
-1.17987e-06
-1.2073e-09
2.00499e-09
0.00107454
-2.37122e-07
1.18194e-06
2.36338e-07
8.65359e-07
-2.32593e-07
-8.65352e-07
2.30494e-07
-0.000264268
1.21322e-06
1.17999e-06
-2.20012e-07
-2.25243e-07
0.00026232
1.12039e-09
1.21365e-09
-0.0010744
-1.18126e-09
-1.1605e-09
0.0010744
-0.00107488
-1.18522e-06
-1.22138e-09
2.02045e-09
0.00107488
-2.39859e-07
1.18729e-06
2.3907e-07
8.65521e-07
-2.29974e-07
-8.65469e-07
2.27834e-07
-0.00107454
-1.17987e-06
-1.208e-09
2.00338e-09
0.00107454
-2.37118e-07
1.18194e-06
2.36333e-07
8.65351e-07
-2.32584e-07
-8.65345e-07
2.30482e-07
-0.000264268
1.21322e-06
1.17999e-06
-2.20008e-07
-2.25237e-07
0.00026232
1.14497e-09
1.24466e-09
-0.0010744
-1.20036e-09
-1.17253e-09
0.0010744
-0.00107488
-1.1852e-06
-1.24636e-09
2.01444e-09
0.00107488
-2.39844e-07
1.18729e-06
2.39062e-07
8.65506e-07
-2.29945e-07
-8.65436e-07
2.27818e-07
-0.00107454
-1.17985e-06
-1.23379e-09
1.99339e-09
0.00107454
-2.37087e-07
1.18192e-06
2.36313e-07
8.6533e-07
-2.3254e-07
-8.65304e-07
2.30457e-07
-0.000264268
1.21319e-06
1.17997e-06
-2.19987e-07
-2.25211e-07
0.00026232
1.22591e-06
0.00107453
-1.22386e-06
2.44361e-07
-2.45219e-07
-8.70912e-07
2.30479e-07
-2.32644e-07
8.70975e-07
-1.18728e-06
0.000264313
-0.000262349
2.2227e-07
2.27073e-07
-1.1852e-06
2.36299e-07
-2.37096e-07
2.27778e-07
-2.29875e-07
1.21846e-06
1.18258e-06
-2.17462e-07
-2.22645e-07
0.000262326
-1.22053e-06
-1.18468e-06
0.000264286
-0.000262325
2.19581e-07
2.24756e-07
2.16412e-09
0.0010741
-2.45176e-07
1.2205e-06
2.44306e-07
8.65404e-07
-2.29854e-07
-8.65359e-07
2.27731e-07
-1.22387e-06
-1.07091e-09
-3.1963e-09
0.00107454
-2.4522e-07
1.22591e-06
2.44376e-07
8.70953e-07
-2.32614e-07
-8.7095e-07
2.30514e-07
0.0010741
-1.4056e-09
-0.0010741
2.08142e-09
-1.21843e-06
2.44358e-07
-2.45129e-07
-8.65292e-07
2.27837e-07
-2.29736e-07
8.65459e-07
1.22595e-06
0.00107454
-1.34601e-09
-0.00107454
1.92615e-09
-1.22382e-06
2.44435e-07
-2.45154e-07
-8.70839e-07
2.30619e-07
-2.3251e-07
8.71014e-07
-2.20193e-07
-2.25013e-07
0.000262349
-1.18734e-06
0.000264312
-0.000262349
2.22353e-07
2.27147e-07
2.00806e-09
0.00107514
-2.39827e-07
1.18465e-06
2.39012e-07
8.68223e-07
-2.32616e-07
-8.68096e-07
2.30528e-07
-1.21853e-06
-1.14341e-09
2.13167e-09
0.00107421
-2.45218e-07
1.22056e-06
2.44341e-07
8.68104e-07
-2.32572e-07
-8.68066e-07
2.30454e-07
0.00107514
-1.4217e-09
-0.00107514
1.89579e-09
-1.18255e-06
2.39069e-07
-2.39779e-07
-8.6803e-07
2.30629e-07
-2.32503e-07
8.68274e-07
1.22058e-06
0.00107421
-1.31901e-09
-0.00107421
2.03521e-09
-1.21849e-06
2.44396e-07
-2.45168e-07
-8.6801e-07
2.30554e-07
-2.32461e-07
8.68145e-07
-1.16286e-09
2.14796e-09
0.00107401
-2.39712e-07
1.2152e-06
2.3885e-07
8.65428e-07
-2.29829e-07
2.27699e-07
-8.65393e-07
-1.53203e-09
-0.00107488
1.83904e-09
-1.18515e-06
2.36384e-07
-2.37018e-07
-8.65325e-07
2.27918e-07
8.65547e-07
-2.29734e-07
1.21523e-06
0.00107401
-1.35537e-09
-0.00107401
2.06473e-09
-1.21315e-06
2.38907e-07
-2.39658e-07
-8.65328e-07
2.27803e-07
-2.2971e-07
8.65477e-07
-2.17647e-07
-2.24982e-07
0.000262307
-1.18192e-06
0.000264263
-0.000262307
2.19755e-07
2.27083e-07
-1.20604e-09
2.00758e-09
0.00107505
-2.3713e-07
1.182e-06
2.36329e-07
8.62949e-07
-2.29922e-07
2.27823e-07
-8.62853e-07
-1.46295e-09
-0.00107454
1.91547e-09
-1.1798e-06
2.3633e-07
-2.37024e-07
-8.65154e-07
2.30542e-07
8.65425e-07
-2.32403e-07
1.18203e-06
0.00107505
-1.38158e-09
-0.00107505
1.90333e-09
-1.17991e-06
2.36387e-07
-2.37075e-07
-8.62791e-07
2.27926e-07
-2.29806e-07
8.62995e-07
-0.00026232
2.2207e-07
2.27303e-07
1.21843e-06
1.18255e-06
-2.17409e-07
-2.22589e-07
0.000262325
-1.2206e-06
-1.18738e-06
0.000264283
-0.000262325
2.22211e-07
2.27462e-07
2.02117e-09
0.0010741
-2.4511e-07
1.22054e-06
2.44387e-07
8.65486e-07
-2.29717e-07
-8.65284e-07
2.27876e-07
-1.2238e-06
-1.43004e-09
1.89751e-09
0.00107453
-2.4514e-07
1.22596e-06
2.44445e-07
8.71018e-07
-2.32479e-07
-8.70826e-07
2.30638e-07
0.0010741
-1.47617e-09
-0.00107409
1.95864e-09
-1.21836e-06
2.44448e-07
-2.45047e-07
-8.6789e-07
2.27952e-07
-2.32329e-07
8.65536e-07
1.22598e-06
0.00107453
-1.5612e-09
-0.00107453
1.93712e-09
-1.22378e-06
2.44469e-07
-2.45122e-07
-8.70803e-07
2.30685e-07
-2.32447e-07
8.7105e-07
-2.20108e-07
-2.24937e-07
0.000262349
-1.18734e-06
0.000264312
-0.000262348
2.22389e-07
2.27203e-07
1.87972e-09
0.00107514
-2.39766e-07
1.18469e-06
2.39124e-07
8.68302e-07
-2.32479e-07
-8.68019e-07
2.30669e-07
-1.21848e-06
-1.42107e-09
1.99603e-09
0.00107421
-2.45146e-07
1.2206e-06
2.44421e-07
8.68179e-07
-2.32432e-07
-8.67994e-07
2.30598e-07
0.00107513
-1.57762e-09
-0.00107513
1.8834e-09
-1.18514e-06
2.41884e-07
-2.4246e-07
-8.67957e-07
2.30748e-07
-2.32403e-07
8.68363e-07
1.22065e-06
0.00107421
-1.45583e-09
-0.00107421
1.96956e-09
-1.21842e-06
2.44474e-07
-2.45089e-07
-8.67935e-07
2.30672e-07
-2.32361e-07
8.68236e-07
-1.44581e-09
2.01267e-09
0.00107401
-2.39639e-07
1.21525e-06
2.38929e-07
8.65506e-07
-2.29689e-07
2.27843e-07
-8.65317e-07
-1.6463e-09
-0.00107487
1.84804e-09
-1.18513e-06
2.36394e-07
-2.3699e-07
-8.65269e-07
2.27989e-07
8.65616e-07
-2.29663e-07
1.21531e-06
0.00107401
-1.44452e-09
-0.00107401
1.96426e-09
-1.21307e-06
2.38993e-07
-2.39575e-07
-8.65268e-07
2.27916e-07
-2.29615e-07
8.65553e-07
-2.17589e-07
-2.24924e-07
0.000262307
-1.18199e-06
0.000264262
-0.000262307
2.19869e-07
2.27195e-07
-1.48747e-09
1.87635e-09
0.00107505
-2.37058e-07
1.18205e-06
2.36407e-07
8.63026e-07
-2.29783e-07
2.27966e-07
-8.62778e-07
-1.58553e-09
-0.00107454
1.85158e-09
-1.17973e-06
2.36407e-07
-2.36945e-07
-8.65085e-07
2.30659e-07
8.65509e-07
-2.32303e-07
1.18209e-06
0.00107505
-1.56254e-09
-0.00107505
1.88432e-09
-1.17985e-06
2.36459e-07
-2.37005e-07
-8.6271e-07
2.28053e-07
-2.29699e-07
8.63094e-07
-0.00026232
2.22175e-07
2.27423e-07
1.21838e-06
1.18517e-06
-2.19899e-07
-2.25114e-07
0.000262325
-1.2206e-06
-1.18731e-06
0.000264282
-0.000262324
2.22141e-07
2.27438e-07
1.90105e-09
0.00107409
-2.45069e-07
1.22058e-06
2.44437e-07
8.68151e-07
-2.29673e-07
-8.65276e-07
2.30615e-07
-1.22374e-06
-1.88681e-09
1.72041e-09
0.00107453
-2.45084e-07
1.2261e-06
2.44596e-07
8.71185e-07
-2.32414e-07
-8.70759e-07
2.30802e-07
0.00107409
-1.05505e-09
-0.00107409
1.76732e-09
-1.2183e-06
2.44421e-07
-2.45008e-07
-8.67959e-07
2.30525e-07
-2.32373e-07
8.68044e-07
1.22568e-06
0.00107453
-7.09404e-11
-0.00107453
2.92637e-09
-1.22403e-06
2.44034e-07
-2.45491e-07
-8.71175e-07
2.30135e-07
-2.32883e-07
8.70621e-07
-2.20098e-07
-2.24899e-07
0.000262348
-1.18696e-06
0.000264311
-0.000262347
2.21895e-07
2.26848e-07
1.84459e-09
0.00107513
-2.4249e-07
1.18736e-06
2.41867e-07
8.6833e-07
-2.3242e-07
-8.6799e-07
2.30737e-07
-1.21845e-06
-1.60238e-09
1.90941e-09
0.00107421
-2.45117e-07
1.22063e-06
2.4446e-07
8.68204e-07
-2.32376e-07
-8.67966e-07
2.30662e-07
0.00107513
-1.49112e-09
-0.00107513
2.09574e-09
-1.18515e-06
2.41798e-07
-2.42481e-07
-8.67948e-07
2.30696e-07
-2.32384e-07
8.68282e-07
1.22061e-06
0.00107421
-1.23797e-09
-0.00107421
2.07597e-09
-1.2184e-06
2.44407e-07
-2.45092e-07
-8.67946e-07
2.30595e-07
-2.32368e-07
8.68138e-07
-1.57651e-09
1.90364e-09
0.00107401
-2.39599e-07
1.21529e-06
2.3898e-07
8.65517e-07
-2.29637e-07
2.279e-07
-8.65303e-07
-6.6867e-10
-0.00107487
2.87878e-09
-1.18545e-06
2.35906e-07
-2.37414e-07
-8.65415e-07
2.27613e-07
8.65366e-07
-2.29919e-07
1.21529e-06
0.001074
-1.10509e-09
-0.001074
1.84697e-09
-1.21303e-06
2.3895e-07
-2.39555e-07
-8.65304e-07
2.27818e-07
-2.29643e-07
8.65431e-07
-2.17532e-07
-2.24866e-07
0.000262307
-1.18194e-06
0.000264262
-0.000262306
2.19813e-07
2.27147e-07
-1.71749e-09
1.84435e-09
0.00107505
-2.37036e-07
1.18207e-06
2.36438e-07
8.63062e-07
-2.29716e-07
2.28041e-07
-8.62741e-07
-1.38156e-09
-0.00107453
1.97132e-09
-1.17972e-06
2.36336e-07
-2.36952e-07
-8.6509e-07
2.30586e-07
8.65415e-07
-2.32304e-07
1.18203e-06
0.00107505
-1.46e-09
-0.00107505
2.07659e-09
-1.17985e-06
2.3637e-07
-2.37028e-07
-8.62706e-07
2.27995e-07
-2.29689e-07
8.6301e-07
-0.000262319
2.22109e-07
2.27393e-07
1.21861e-06
1.18544e-06
-2.20195e-07
-2.25378e-07
0.000262324
-1.22044e-06
-1.18725e-06
0.000264284
-0.000262325
2.2195e-07
2.27175e-07
2.33895e-09
0.00107409
-2.45368e-07
1.2203e-06
2.44069e-07
8.67648e-07
-2.32828e-07
-8.68392e-07
2.30023e-07
-1.22422e-06
2.23374e-10
3.01997e-09
0.00107453
-2.45724e-07
1.2256e-06
2.43955e-07
8.70493e-07
-2.33287e-07
-8.71443e-07
2.29855e-07
0.0010741
-5.14638e-10
-0.00107409
2.42825e-09
-1.21866e-06
2.44255e-07
-2.45412e-07
-8.68318e-07
2.3008e-07
-2.33131e-07
8.67969e-07
1.2259e-06
0.00107454
-7.41824e-10
-0.00107454
2.08784e-09
-1.22397e-06
2.44428e-07
-2.45332e-07
-8.68459e-07
2.27619e-07
-2.3035e-07
8.68245e-07
-2.20743e-07
-2.25435e-07
0.000262348
-1.18729e-06
0.00026431
-0.000262346
2.24783e-07
2.24507e-07
2.55913e-09
0.00107513
-2.42833e-07
1.18704e-06
2.41464e-07
8.67864e-07
-2.32848e-07
-8.68399e-07
2.30184e-07
-1.21871e-06
-2.39961e-10
2.56908e-09
0.00107421
-2.4545e-07
1.22033e-06
2.44065e-07
8.67729e-07
-2.3282e-07
-8.68386e-07
2.301e-07
0.00107513
-5.37062e-10
-0.00107513
2.2079e-09
-1.18542e-06
2.41721e-07
-2.42806e-07
-8.68403e-07
2.30184e-07
-2.33213e-07
8.68119e-07
1.22052e-06
0.00107421
-4.29628e-10
-0.00107421
2.32766e-09
-1.21871e-06
2.44303e-07
-2.45446e-07
-8.68391e-07
2.30096e-07
-2.33187e-07
8.67987e-07
-1.20765e-10
2.3851e-09
0.001074
-2.39914e-07
1.21501e-06
2.38603e-07
8.65028e-07
-2.30098e-07
2.27323e-07
-8.65744e-07
-7.89648e-10
-0.00107487
1.97227e-09
-1.18527e-06
2.36323e-07
-2.37163e-07
-8.65654e-07
2.27585e-07
8.65437e-07
-2.30309e-07
1.21516e-06
0.00107401
-4.76187e-10
-0.00107401
2.40397e-09
-1.21338e-06
2.38807e-07
-2.3994e-07
-8.657e-07
2.2735e-07
-2.30431e-07
8.65327e-07
-2.17818e-07
-2.25148e-07
0.000262306
-1.18185e-06
0.000264263
-0.000262307
2.19592e-07
2.26927e-07
-4.46446e-10
2.54696e-09
0.00107505
-2.37384e-07
1.18176e-06
2.36033e-07
8.62597e-07
-2.30142e-07
2.27495e-07
-8.6315e-07
-5.73297e-10
-0.00107454
2.21035e-09
-1.18003e-06
2.36233e-07
-2.37306e-07
-8.65529e-07
2.30088e-07
8.6527e-07
-2.33123e-07
1.18197e-06
0.00107505
-5.31375e-10
-0.00107505
2.21413e-09
-1.18013e-06
2.36293e-07
-2.37355e-07
-8.63161e-07
2.27477e-07
-2.30521e-07
8.62847e-07
-0.00026232
2.21914e-07
2.27143e-07
1.21857e-06
1.18532e-06
-2.20118e-07
-2.25367e-07
0.000262325
-1.22054e-06
-1.18733e-06
0.000264284
-0.000262326
2.22089e-07
2.27331e-07
2.24896e-09
0.0010741
-2.45284e-07
1.22051e-06
2.44342e-07
8.68062e-07
-2.32886e-07
-8.68185e-07
2.30286e-07
-1.22392e-06
-9.27968e-10
2.07682e-09
0.00107454
-2.45312e-07
1.22593e-06
2.44459e-07
8.68282e-07
-2.30193e-07
-8.68392e-07
2.27733e-07
0.0010741
-1.12359e-09
-0.0010741
2.10161e-09
-1.2185e-06
2.44379e-07
-2.45216e-07
-8.68098e-07
2.30451e-07
-2.32635e-07
8.68103e-07
1.22593e-06
0.00107454
-1.08822e-09
-0.00107454
2.11003e-09
-1.22387e-06
2.41716e-07
-2.42556e-07
-8.68345e-07
2.2781e-07
-2.30031e-07
8.68318e-07
-2.22786e-07
-2.22567e-07
0.000262346
-1.1873e-06
0.00026431
-0.000262344
2.22293e-07
2.24582e-07
2.06128e-09
0.00107513
-2.42672e-07
1.18732e-06
2.4181e-07
8.68211e-07
-2.32976e-07
-8.68265e-07
2.30384e-07
-1.21862e-06
-7.91301e-10
2.18488e-09
0.00107421
-2.45316e-07
1.22058e-06
2.4439e-07
8.68093e-07
-2.3294e-07
-8.6824e-07
2.3031e-07
0.00107513
-1.21072e-09
-0.00107513
2.00635e-09
-1.18527e-06
2.41828e-07
-2.42618e-07
-8.68175e-07
2.30561e-07
-2.3272e-07
8.68266e-07
1.22061e-06
0.00107421
-1.0979e-09
-0.00107421
2.08739e-09
-1.21856e-06
2.44413e-07
-2.45256e-07
-8.68151e-07
2.3049e-07
-2.32674e-07
8.68142e-07
-8.32458e-10
2.2531e-09
0.00107401
-2.39816e-07
1.21522e-06
2.38889e-07
8.65425e-07
-2.30188e-07
2.27559e-07
-8.65554e-07
-1.22755e-09
-0.00107488
2.02687e-09
-1.18524e-06
2.36322e-07
-2.37137e-07
-8.65471e-07
2.27828e-07
8.65534e-07
-2.29964e-07
1.21525e-06
0.00107401
-1.10539e-09
-0.00107401
2.11528e-09
-1.21322e-06
2.3892e-07
-2.3975e-07
-8.65477e-07
2.27733e-07
-2.29928e-07
8.65465e-07
-2.17769e-07
-2.25098e-07
0.000262307
-1.18194e-06
0.000264263
-0.000262308
2.19743e-07
2.27071e-07
-8.80256e-10
2.06994e-09
0.00107505
-2.37226e-07
1.18203e-06
2.36378e-07
8.62943e-07
-2.30283e-07
2.27683e-07
-8.63018e-07
-1.22696e-09
-0.00107454
1.98507e-09
-1.17987e-06
2.36344e-07
-2.37114e-07
-8.65301e-07
2.30473e-07
8.65415e-07
-2.3262e-07
1.18205e-06
0.00107505
-1.20787e-09
-0.00107505
1.99972e-09
-1.17998e-06
2.36398e-07
-2.37168e-07
-8.62929e-07
2.27865e-07
-2.30015e-07
8.62995e-07
-0.00026232
2.22053e-07
2.2729e-07
1.2185e-06
1.18528e-06
-2.20038e-07
-2.25273e-07
0.000262326
-1.22055e-06
-1.1873e-06
0.000264284
-0.000262326
2.22042e-07
2.27337e-07
2.09453e-09
0.0010741
-2.45217e-07
1.22055e-06
2.44381e-07
8.6809e-07
-2.32637e-07
-8.68119e-07
2.30441e-07
-1.22387e-06
-1.07414e-09
2.11741e-09
0.00107454
-2.42561e-07
1.22593e-06
2.41716e-07
8.68317e-07
-2.30031e-07
-8.68349e-07
2.27811e-07
0.0010741
-1.00793e-09
-0.0010741
2.11443e-09
-1.2185e-06
2.4437e-07
-2.45229e-07
-8.68136e-07
2.304e-07
-2.32662e-07
8.68065e-07
1.22592e-06
0.00107454
-9.60321e-10
-0.00107454
2.15618e-09
-1.22389e-06
2.41689e-07
-2.42587e-07
-8.68379e-07
2.27772e-07
-2.30074e-07
8.68289e-07
-2.20236e-07
-2.22518e-07
0.000262344
-1.18727e-06
0.00026431
-0.000262344
2.22238e-07
2.24579e-07
2.02811e-09
0.00107513
-2.42625e-07
1.18733e-06
2.41823e-07
8.68264e-07
-2.32716e-07
-8.6818e-07
2.30563e-07
-1.21856e-06
-1.10017e-09
2.09948e-09
0.00107421
-2.45259e-07
1.22061e-06
2.4441e-07
8.6814e-07
-2.32668e-07
-8.68154e-07
2.30491e-07
0.00107513
-1.22085e-09
-0.00107513
2.08985e-09
-1.1853e-06
2.41794e-07
-2.42654e-07
-8.68169e-07
2.30573e-07
-2.3271e-07
8.68278e-07
1.22061e-06
0.00107421
-1.09527e-09
-0.00107421
2.07019e-09
-1.21856e-06
2.44411e-07
-2.4526e-07
-8.68154e-07
2.30491e-07
-2.3267e-07
8.68142e-07
-1.10776e-09
2.10931e-09
0.00107401
-2.39754e-07
1.21525e-06
2.38917e-07
8.65463e-07
-2.29926e-07
2.27733e-07
-8.65482e-07
-1.2067e-09
-0.00107488
2.12975e-09
-1.18527e-06
2.36279e-07
-2.37176e-07
-8.65473e-07
2.27831e-07
8.65541e-07
-2.29963e-07
1.21526e-06
0.00107401
-1.09873e-09
-0.00107401
2.07664e-09
-1.21322e-06
2.38922e-07
-2.3975e-07
-8.65479e-07
2.27735e-07
-2.29923e-07
8.65465e-07
-2.17684e-07
-2.25015e-07
0.000262308
-1.18194e-06
0.000264263
-0.000262308
2.1974e-07
2.27074e-07
-1.21834e-09
2.01722e-09
0.00107505
-2.37176e-07
1.18205e-06
2.36392e-07
8.62996e-07
-2.30011e-07
2.27867e-07
-8.62932e-07
-1.26169e-09
-0.00107454
2.00322e-09
-1.17988e-06
2.36335e-07
-2.37125e-07
-8.65294e-07
2.30481e-07
8.65422e-07
-2.32608e-07
1.18204e-06
0.00107505
-1.2398e-09
-0.00107505
2.01285e-09
-1.17999e-06
2.36389e-07
-2.37181e-07
-8.62923e-07
2.27874e-07
-2.30002e-07
8.63003e-07
-0.00026232
2.22049e-07
2.27295e-07
1.21851e-06
1.18532e-06
-2.20095e-07
-2.25271e-07
0.000262326
-1.22055e-06
-1.18465e-06
0.000264281
-0.000262326
2.22047e-07
2.27295e-07
2.1326e-09
0.0010741
-2.45234e-07
1.22054e-06
2.44367e-07
8.6804e-07
-2.32695e-07
-8.68169e-07
2.30365e-07
-1.22389e-06
-9.03794e-10
2.16616e-09
0.00107454
-2.42604e-07
1.22592e-06
2.41674e-07
8.68271e-07
-2.30098e-07
-8.68402e-07
2.27749e-07
0.0010741
-1.02028e-09
-0.0010741
2.16753e-09
-1.2185e-06
2.44367e-07
-2.45229e-07
-8.68114e-07
2.27735e-07
-2.32632e-07
8.65427e-07
1.22596e-06
0.00107453
-1.02001e-09
-0.00107453
2.05805e-09
-1.2239e-06
2.4445e-07
-2.45271e-07
-8.71026e-07
2.3053e-07
-2.32747e-07
8.7097e-07
-2.20299e-07
-2.22527e-07
0.000262344
-1.1873e-06
0.000264313
-0.000262346
2.22291e-07
2.24594e-07
2.12251e-09
0.00107513
-2.42664e-07
1.18728e-06
2.4178e-07
8.68275e-07
-2.32713e-07
-8.68175e-07
2.30572e-07
-1.21856e-06
-1.08917e-09
2.07681e-09
0.00107421
-2.45261e-07
1.22061e-06
2.44411e-07
8.68139e-07
-2.3267e-07
-8.68157e-07
2.30489e-07
0.00107514
-1.17848e-09
-0.00107513
2.11431e-09
-1.18531e-06
2.39069e-07
-2.42657e-07
-8.68165e-07
2.3058e-07
-2.32706e-07
8.68282e-07
1.22061e-06
0.00107421
-1.08779e-09
-0.00107421
2.06138e-09
-1.21856e-06
2.44411e-07
-2.45259e-07
-8.68153e-07
2.3049e-07
-2.3267e-07
8.68141e-07
-1.09647e-09
2.07394e-09
0.00107401
-2.39751e-07
1.21526e-06
2.38921e-07
8.65462e-07
-2.29928e-07
2.27731e-07
-8.65485e-07
-1.24768e-09
-0.00107488
2.05545e-09
-1.18525e-06
2.36331e-07
-2.3715e-07
-8.65465e-07
2.27843e-07
8.65541e-07
-2.29946e-07
1.21526e-06
0.00107401
-1.1096e-09
-0.00107401
2.09077e-09
-1.21321e-06
2.38923e-07
-2.39748e-07
-8.65478e-07
2.27732e-07
-2.29924e-07
8.65465e-07
-2.17688e-07
-2.25014e-07
0.000262308
-1.18194e-06
0.000264263
-0.000262308
2.19739e-07
2.27074e-07
-1.22691e-09
2.01899e-09
0.00107505
-2.37183e-07
1.18204e-06
2.36387e-07
8.62998e-07
-2.30008e-07
2.27869e-07
-8.6293e-07
-1.27802e-09
-0.00107454
2.00718e-09
-1.17988e-06
2.36334e-07
-2.37126e-07
-8.65291e-07
2.30483e-07
8.65425e-07
-2.32605e-07
1.18204e-06
0.00107505
-1.153e-09
-0.00107505
1.98918e-09
-1.17999e-06
2.36387e-07
-2.3718e-07
-8.62932e-07
2.27862e-07
-2.30011e-07
8.62991e-07
-0.00026232
2.2205e-07
2.27295e-07
1.21851e-06
1.18264e-06
-2.2006e-07
-2.25246e-07
0.000262326
-1.22318e-06
-1.18469e-06
0.000264287
-0.000262326
2.19529e-07
2.27292e-07
2.17508e-09
0.0010741
-2.42519e-07
1.22054e-06
2.41639e-07
8.65418e-07
-2.29923e-07
-8.65457e-07
2.27697e-07
-1.22387e-06
-1.10342e-09
1.9895e-09
0.00107453
-2.45219e-07
1.22598e-06
2.44493e-07
8.70995e-07
-2.32688e-07
-8.70994e-07
2.30575e-07
0.0010741
-9.78582e-10
-0.0010741
2.16786e-09
-1.21851e-06
2.44367e-07
-2.4523e-07
-8.65467e-07
2.2502e-07
-2.29964e-07
8.65416e-07
1.22594e-06
0.00107454
-1.05876e-09
-0.00107454
2.06512e-09
-1.2239e-06
2.44406e-07
-2.45282e-07
-8.73708e-07
2.3052e-07
-2.32744e-07
8.73667e-07
-2.20208e-07
-2.2249e-07
0.000262346
-1.1873e-06
0.00026431
-0.000262346
2.2233e-07
2.27091e-07
2.08763e-09
0.00107514
-2.39932e-07
1.18465e-06
2.39065e-07
8.68273e-07
-2.32712e-07
-8.68175e-07
2.30574e-07
-1.21856e-06
-1.08185e-09
2.08172e-09
0.00107421
-2.45261e-07
1.22061e-06
2.44409e-07
8.68138e-07
-2.3267e-07
-8.68156e-07
2.30487e-07
0.00107515
-1.2139e-08
-0.00107514
2.06021e-09
-1.18263e-06
2.39117e-07
-2.39904e-07
-8.68165e-07
2.30588e-07
-2.32704e-07
8.68287e-07
1.22061e-06
0.00107421
-1.08391e-09
-0.00107421
2.07933e-09
-1.21856e-06
2.44408e-07
-2.45262e-07
-8.68151e-07
2.30489e-07
-2.32669e-07
8.68142e-07
-1.11745e-09
2.1113e-09
0.00107401
-2.39751e-07
1.21526e-06
2.38919e-07
8.65462e-07
-2.29928e-07
2.27729e-07
-8.65482e-07
-1.24299e-09
-0.00107488
2.02345e-09
-1.18523e-06
2.39024e-07
-2.39854e-07
-8.65481e-07
2.27843e-07
8.65528e-07
-2.29993e-07
1.21526e-06
0.00107401
-1.13026e-09
-0.00107401
2.11891e-09
-1.21322e-06
2.38919e-07
-2.39751e-07
-8.65473e-07
2.27738e-07
-2.29917e-07
8.65469e-07
-2.17687e-07
-2.25013e-07
0.000262308
-1.18194e-06
0.000264263
-0.000262308
2.1974e-07
2.27071e-07
-1.13397e-09
1.99603e-09
0.00107505
-2.37182e-07
1.18204e-06
2.36386e-07
8.62985e-07
-2.30019e-07
2.27855e-07
-8.6294e-07
-1.25417e-09
-0.00107454
2.00552e-09
-1.17988e-06
2.36333e-07
-2.37125e-07
-8.65292e-07
2.30481e-07
8.65422e-07
-2.32606e-07
1.18205e-06
0.00107505
-1.19812e-09
-0.00107505
1.99645e-09
-1.17999e-06
2.36392e-07
-2.37177e-07
-8.62928e-07
2.27866e-07
-2.30008e-07
8.62996e-07
-0.00026232
2.22053e-07
2.27293e-07
1.22114e-06
1.18265e-06
-2.17527e-07
-2.2519e-07
0.000262326
-1.22318e-06
-1.18469e-06
0.000264284
-0.000262326
2.19578e-07
2.29804e-07
2.16798e-09
0.0010741
-2.45193e-07
1.22318e-06
2.44368e-07
8.65399e-07
-2.27249e-07
-8.65495e-07
2.25029e-07
-1.2239e-06
-1.10559e-09
2.08318e-09
0.00107454
-2.4529e-07
1.22595e-06
2.44414e-07
8.73694e-07
-2.32723e-07
-8.73696e-07
2.3055e-07
0.00107409
-1.1123e-09
-0.00107409
2.12008e-09
-1.22113e-06
2.44363e-07
-2.45199e-07
-8.6807e-07
2.25059e-07
-2.27244e-07
8.68087e-07
1.22596e-06
0.00107454
-1.08361e-09
-0.00107454
2.10283e-09
-1.22388e-06
2.44426e-07
-2.45268e-07
-8.73691e-07
2.30512e-07
-2.32746e-07
8.73673e-07
-2.20222e-07
-2.22537e-07
0.000262344
-1.1873e-06
0.000264308
-0.000262344
2.22298e-07
2.27116e-07
2.05282e-09
0.00107515
-2.3989e-07
1.18467e-06
2.39112e-07
8.68274e-07
-2.32703e-07
-8.68171e-07
2.30578e-07
-1.21856e-06
-1.08653e-09
2.09182e-09
0.00107421
-2.45262e-07
1.22061e-06
2.44407e-07
8.6814e-07
-2.32668e-07
-8.68153e-07
2.30488e-07
0.00107515
-1.21047e-09
-0.00107515
2.01246e-09
-1.18264e-06
2.39105e-07
-2.39906e-07
-8.68177e-07
2.30568e-07
-2.32712e-07
8.68267e-07
1.22061e-06
0.00107421
-1.10477e-09
-0.00107421
2.10047e-09
-1.21856e-06
2.44406e-07
-2.45263e-07
-8.68148e-07
2.30491e-07
-2.32667e-07
8.68144e-07
-1.12508e-09
2.11341e-09
0.00107401
-2.39753e-07
1.21525e-06
2.38917e-07
8.65467e-07
-2.29922e-07
2.27735e-07
-8.65478e-07
-1.22306e-09
-0.00107488
2.00986e-09
-1.18521e-06
2.39071e-07
-2.3987e-07
-8.65473e-07
2.2785e-07
8.65532e-07
-2.29984e-07
1.21526e-06
0.00107401
-1.11851e-09
-0.00107401
2.11028e-09
-1.21322e-06
2.38918e-07
-2.39752e-07
-8.65473e-07
2.27737e-07
-2.29918e-07
8.65468e-07
-2.17686e-07
-2.25015e-07
0.000262308
-1.18194e-06
0.000264263
-0.000262308
2.19741e-07
2.27069e-07
-1.2033e-09
2.00989e-09
0.00107505
-2.37179e-07
1.18205e-06
2.36389e-07
8.62994e-07
-2.30012e-07
2.27864e-07
-8.62932e-07
-1.24354e-09
-0.00107454
1.99661e-09
-1.17987e-06
2.36334e-07
-2.37123e-07
-8.65294e-07
2.30478e-07
8.65419e-07
-2.32608e-07
1.18205e-06
0.00107505
-1.20288e-09
-0.00107505
2.00454e-09
-1.17999e-06
2.3639e-07
-2.37177e-07
-8.62926e-07
2.27867e-07
-2.30007e-07
8.62997e-07
-0.00026232
2.22052e-07
2.27292e-07
1.22113e-06
1.18263e-06
-2.17533e-07
-2.27736e-07
0.000262326
-1.22318e-06
-1.18469e-06
0.000264284
-0.000262326
2.1958e-07
2.29804e-07
2.11394e-09
0.00107409
-2.452e-07
1.22318e-06
2.44357e-07
8.68086e-07
-2.27242e-07
-8.68069e-07
2.25056e-07
-1.22389e-06
-1.0979e-09
2.11813e-09
0.00107454
-2.45272e-07
1.22595e-06
2.44425e-07
8.73679e-07
-2.32741e-07
-8.73699e-07
2.30524e-07
0.00107409
-1.11938e-09
-0.00107409
2.1173e-09
-1.22113e-06
2.44353e-07
-2.45209e-07
-8.68067e-07
2.25056e-07
-2.2725e-07
8.6809e-07
1.22595e-06
0.00107454
-1.11584e-09
-0.00107454
2.12296e-09
-1.2239e-06
2.44423e-07
-2.45272e-07
-8.73686e-07
2.30529e-07
-2.32729e-07
8.73685e-07
-2.20236e-07
-2.25038e-07
0.000262344
-1.1873e-06
0.000264308
-0.000262344
2.223e-07
2.2711e-07
2.00915e-09
0.00107515
-2.39899e-07
1.18469e-06
2.39107e-07
8.68265e-07
-2.32713e-07
-8.68181e-07
2.30569e-07
-1.21856e-06
-1.10253e-09
2.11656e-09
0.00107421
-2.45265e-07
1.2206e-06
2.44404e-07
8.68142e-07
-2.32666e-07
-8.6815e-07
2.3049e-07
0.00107515
-1.23456e-09
-0.00107515
1.99798e-09
-1.18263e-06
2.3911e-07
-2.39898e-07
-8.6817e-07
2.30573e-07
-2.32709e-07
8.68272e-07
1.2206e-06