/*--------------------------------*- C++ -*----------------------------------*\
| =========                 |                                                 |
| \\      /  F ield         | OpenFOAM: The Open Source CFD Toolbox           |
|  \\    /   O peration     | Version:  2206                                  |
|   \\  /    A nd           | Website:  www.openfoam.com                      |
|    \\/     M anipulation  |                                                 |
\*---------------------------------------------------------------------------*/
FoamFile
{
    version     2.0;
    format      ascii;
    arch        "LSB;label=32;scalar=64";
    class       volScalarField;
    location    "0.5";
    object      k;
}
// * * * * * * * * * * * * * * * * * * * * * * * * * * * * * * * * * * * * * //

dimensions      [0 2 -2 0 0 0 0];

internalField   nonuniform List<scalar> 
171728
(
3.97052e-05
3.7234e-05
3.72707e-05
3.7271e-05
3.9705e-05
3.95214e-05
3.9706e-05
3.72711e-05
3.72712e-05
3.97076e-05
3.72711e-05
3.72711e-05
3.72714e-05
3.97073e-05
3.72712e-05
3.75474e-05
3.75472e-05
3.95223e-05
3.74186e-05
3.74184e-05
3.73081e-05
3.59935e-05
3.59399e-05
3.74072e-05
3.42654e-05
3.42437e-05
3.73081e-05
3.59934e-05
3.59397e-05
3.74072e-05
3.7234e-05
3.7234e-05
3.7234e-05
3.87918e-05
3.90071e-05
3.72344e-05
3.72711e-05
3.89016e-05
3.72345e-05
3.88147e-05
3.42652e-05
3.42435e-05
3.87923e-05
3.72344e-05
3.90076e-05
3.72714e-05
3.72345e-05
3.89017e-05
3.88149e-05
3.75474e-05
3.75471e-05
3.95208e-05
3.74186e-05
3.74184e-05
3.42654e-05
3.42428e-05
3.42653e-05
3.42427e-05
3.97053e-05
3.74184e-05
3.74184e-05
3.75475e-05
3.75473e-05
3.42427e-05
3.42654e-05
3.42426e-05
3.42653e-05
3.42655e-05
3.42439e-05
3.42653e-05
3.42436e-05
3.75475e-05
3.75471e-05
3.95196e-05
3.74186e-05
3.74185e-05
3.73081e-05
3.59935e-05
3.59399e-05
3.74072e-05
3.87912e-05
3.90077e-05
3.72344e-05
3.72714e-05
3.89018e-05
3.72345e-05
3.88143e-05
3.87913e-05
3.90081e-05
3.72344e-05
3.72709e-05
3.89026e-05
3.72345e-05
3.88143e-05
3.75471e-05
3.75474e-05
3.952e-05
3.74185e-05
3.74185e-05
3.42655e-05
3.42438e-05
3.87915e-05
3.90077e-05
3.72344e-05
3.72714e-05
3.8902e-05
3.72345e-05
3.88142e-05
3.73081e-05
3.59934e-05
3.59397e-05
3.74073e-05
3.87914e-05
3.72344e-05
3.90084e-05
3.72715e-05
3.72345e-05
3.89026e-05
3.88144e-05
3.73081e-05
3.59934e-05
3.59398e-05
3.74072e-05
3.87919e-05
3.72344e-05
3.90084e-05
3.72715e-05
3.72345e-05
3.89025e-05
3.88149e-05
3.73082e-05
3.59934e-05
3.59398e-05
3.74072e-05
3.75473e-05
3.75475e-05
3.95202e-05
3.74185e-05
3.74185e-05
3.42654e-05
3.42437e-05
3.87924e-05
3.72344e-05
3.90085e-05
3.7271e-05
3.72345e-05
3.89026e-05
3.88151e-05
3.73082e-05
3.59933e-05
3.59398e-05
3.74073e-05
3.73083e-05
3.59934e-05
3.59397e-05
3.74073e-05
3.42653e-05
3.42436e-05
3.42651e-05
3.42435e-05
3.76569e-05
3.38896e-05
3.38893e-05
3.39249e-05
3.39246e-05
3.75808e-05
3.79356e-05
4.11399e-05
3.58689e-05
3.74185e-05
3.58288e-05
3.81083e-05
4.10752e-05
3.7936e-05
4.11356e-05
3.58686e-05
3.74183e-05
3.58284e-05
3.81088e-05
4.10698e-05
3.75807e-05
3.39249e-05
3.39246e-05
3.38896e-05
3.38893e-05
3.76569e-05
3.81082e-05
3.58288e-05
3.75475e-05
4.10757e-05
3.58689e-05
3.79358e-05
4.11405e-05
3.81087e-05
3.58284e-05
3.75471e-05
4.10703e-05
3.58685e-05
3.7936e-05
4.11356e-05
3.53145e-05
3.55251e-05
3.73134e-05
3.74072e-05
3.55362e-05
3.74115e-05
3.53014e-05
3.37124e-05
3.59393e-05
3.73327e-05
3.72535e-05
3.37486e-05
3.37487e-05
3.72538e-05
3.59935e-05
3.73327e-05
3.37133e-05
3.53006e-05
3.73079e-05
3.55362e-05
3.74114e-05
3.55243e-05
3.73132e-05
3.53145e-05
3.42428e-05
3.42654e-05
3.53146e-05
3.73135e-05
3.5525e-05
3.74073e-05
3.74116e-05
3.55362e-05
3.53014e-05
3.37125e-05
3.59392e-05
3.73328e-05
3.72536e-05
3.37488e-05
3.37489e-05
3.7254e-05
3.59934e-05
3.73328e-05
3.37135e-05
3.53007e-05
3.7308e-05
3.74115e-05
3.55362e-05
3.73132e-05
3.55243e-05
3.53146e-05
3.42426e-05
3.42652e-05
3.76567e-05
3.38905e-05
3.38902e-05
3.39247e-05
3.39244e-05
3.75803e-05
3.79358e-05
4.11411e-05
3.58689e-05
3.74184e-05
3.81084e-05
4.10759e-05
3.58288e-05
3.7936e-05
4.11361e-05
3.58685e-05
3.74183e-05
3.81089e-05
4.10708e-05
3.58284e-05
3.75807e-05
3.39247e-05
3.39244e-05
3.76564e-05
3.38895e-05
3.38891e-05
3.81084e-05
3.58295e-05
3.75475e-05
4.10734e-05
4.11402e-05
3.58689e-05
3.79352e-05
3.81089e-05
3.58291e-05
3.75471e-05
4.1068e-05
4.11351e-05
3.58685e-05
3.79355e-05
3.42428e-05
3.42654e-05
3.42427e-05
3.42653e-05
3.75809e-05
3.39249e-05
3.39246e-05
3.76569e-05
3.38896e-05
3.38893e-05
3.81083e-05
4.10758e-05
3.58288e-05
3.75475e-05
3.79357e-05
3.58689e-05
4.11405e-05
3.81089e-05
4.10708e-05
3.58284e-05
3.75471e-05
3.79361e-05
3.58685e-05
4.1136e-05
3.76566e-05
3.38895e-05
3.38892e-05
3.75809e-05
3.39248e-05
3.39245e-05
3.79358e-05
3.58689e-05
4.11399e-05
3.74186e-05
3.81083e-05
3.58288e-05
4.10758e-05
3.79361e-05
3.58686e-05
4.11359e-05
3.74185e-05
3.81086e-05
3.58284e-05
4.10702e-05
3.42653e-05
3.42428e-05
3.42652e-05
3.42427e-05
3.42429e-05
3.42655e-05
3.42427e-05
3.42654e-05
3.76568e-05
3.38906e-05
3.38903e-05
3.39249e-05
3.39245e-05
3.75806e-05
3.79357e-05
4.11389e-05
3.74186e-05
3.58689e-05
3.58288e-05
4.10753e-05
3.81081e-05
3.79361e-05
4.11345e-05
3.74185e-05
3.58685e-05
3.58284e-05
4.10702e-05
3.81086e-05
3.81081e-05
3.58296e-05
3.75475e-05
4.10718e-05
3.58689e-05
3.79346e-05
4.11388e-05
3.81086e-05
3.58291e-05
3.75472e-05
4.10661e-05
3.58685e-05
3.79351e-05
4.11343e-05
3.75807e-05
3.39249e-05
3.39245e-05
3.38896e-05
3.38893e-05
3.76568e-05
3.53146e-05
3.5525e-05
3.73135e-05
3.74072e-05
3.55362e-05
3.74115e-05
3.53014e-05
3.37124e-05
3.59392e-05
3.73328e-05
3.72537e-05
3.37487e-05
3.37488e-05
3.7254e-05
3.59935e-05
3.73328e-05
3.37134e-05
3.53007e-05
3.73079e-05
3.55362e-05
3.74115e-05
3.55243e-05
3.73132e-05
3.53145e-05
3.76568e-05
3.38904e-05
3.38907e-05
3.39246e-05
3.39249e-05
3.75805e-05
3.79359e-05
4.1136e-05
3.74185e-05
3.58685e-05
3.58284e-05
4.10718e-05
3.81084e-05
3.79355e-05
4.11376e-05
3.74186e-05
3.58689e-05
4.10729e-05
3.58288e-05
3.8108e-05
3.81086e-05
3.58291e-05
3.75472e-05
4.10688e-05
3.58686e-05
4.11359e-05
3.79351e-05
3.81079e-05
3.58295e-05
3.75474e-05
4.10698e-05
4.11369e-05
3.58689e-05
3.79346e-05
3.75806e-05
3.39245e-05
3.39248e-05
3.38893e-05
3.38896e-05
3.76567e-05
3.42429e-05
3.42655e-05
3.53145e-05
3.5525e-05
3.73135e-05
3.74073e-05
3.55362e-05
3.74116e-05
3.53013e-05
3.37124e-05
3.59391e-05
3.73328e-05
3.72536e-05
3.37486e-05
3.37487e-05
3.72539e-05
3.59934e-05
3.73328e-05
3.37133e-05
3.53006e-05
3.73079e-05
3.55362e-05
3.74115e-05
3.55243e-05
3.73132e-05
3.53144e-05
3.53145e-05
3.73134e-05
3.5525e-05
3.74072e-05
3.74115e-05
3.55361e-05
3.53014e-05
3.37125e-05
3.59392e-05
3.73326e-05
3.72536e-05
3.37488e-05
3.37488e-05
3.72539e-05
3.59934e-05
3.73326e-05
3.37134e-05
3.53007e-05
3.73079e-05
3.74115e-05
3.55361e-05
3.73132e-05
3.55243e-05
3.53145e-05
3.53144e-05
3.5525e-05
3.73135e-05
3.74073e-05
3.55361e-05
3.74115e-05
3.53013e-05
3.37123e-05
3.59391e-05
3.73327e-05
3.72535e-05
3.37485e-05
3.37486e-05
3.72539e-05
3.59934e-05
3.73327e-05
3.37133e-05
3.53006e-05
3.73079e-05
3.55361e-05
3.74115e-05
3.55243e-05
3.73132e-05
3.53144e-05
3.76571e-05
3.38902e-05
3.38906e-05
3.39245e-05
3.39249e-05
3.75806e-05
3.79363e-05
4.11371e-05
3.74185e-05
3.58685e-05
3.58284e-05
4.10728e-05
3.81087e-05
3.79358e-05
4.11385e-05
3.74184e-05
3.58689e-05
4.10742e-05
3.58288e-05
3.81083e-05
3.81088e-05
3.58291e-05
3.75472e-05
4.10691e-05
3.58685e-05
4.11369e-05
3.79353e-05
3.81083e-05
3.58296e-05
3.75475e-05
4.10705e-05
4.1138e-05
3.58689e-05
3.79349e-05
3.75808e-05
3.39244e-05
3.39248e-05
3.38892e-05
3.38896e-05
3.76569e-05
3.42428e-05
3.42654e-05
3.53144e-05
3.73135e-05
3.5525e-05
3.74072e-05
3.74115e-05
3.55361e-05
3.53013e-05
3.37124e-05
3.59391e-05
3.73327e-05
3.72535e-05
3.37486e-05
3.37487e-05
3.72538e-05
3.59934e-05
3.73327e-05
3.37134e-05
3.53005e-05
3.73079e-05
3.74116e-05
3.55361e-05
3.73132e-05
3.55242e-05
3.53144e-05
3.53145e-05
3.73135e-05
3.5525e-05
3.74072e-05
3.74115e-05
3.55361e-05
3.53014e-05
3.37123e-05
3.59391e-05
3.73327e-05
3.72536e-05
3.37486e-05
3.37487e-05
3.7254e-05
3.59934e-05
3.73328e-05
3.37133e-05
3.53006e-05
3.73079e-05
3.74115e-05
3.55361e-05
3.73132e-05
3.55243e-05
3.53145e-05
3.42427e-05
3.42652e-05
3.42425e-05
3.42651e-05
3.85611e-05
3.85435e-05
3.85441e-05
3.9522e-05
3.8635e-05
3.86156e-05
3.8616e-05
3.72329e-05
3.72329e-05
3.72341e-05
3.7233e-05
3.7233e-05
3.72327e-05
3.72326e-05
3.8561e-05
3.85442e-05
3.85461e-05
3.95221e-05
3.86357e-05
3.86147e-05
3.86155e-05
3.86355e-05
3.97067e-05
3.86151e-05
3.86161e-05
3.85611e-05
3.85453e-05
3.8545e-05
3.85612e-05
3.85445e-05
3.85439e-05
3.95213e-05
3.8615e-05
3.86154e-05
3.86347e-05
3.85609e-05
3.85444e-05
3.85442e-05
3.95214e-05
3.86146e-05
3.86155e-05
3.86346e-05
3.85613e-05
3.8546e-05
3.85445e-05
3.95223e-05
3.86151e-05
3.86161e-05
3.86351e-05
3.86352e-05
3.97084e-05
3.86147e-05
3.8616e-05
3.85612e-05
3.85451e-05
3.8546e-05
3.72329e-05
3.72329e-05
3.72341e-05
3.7233e-05
3.7233e-05
3.72327e-05
3.72326e-05
3.72329e-05
3.72329e-05
3.72341e-05
3.7233e-05
3.7233e-05
3.72327e-05
3.72326e-05
3.72328e-05
3.72329e-05
3.72341e-05
3.72329e-05
3.7233e-05
3.72327e-05
3.72326e-05
3.73156e-05
3.88225e-05
3.73786e-05
3.88145e-05
3.88412e-05
3.73081e-05
3.73891e-05
3.74748e-05
3.80177e-05
3.8903e-05
3.90558e-05
3.81784e-05
3.90819e-05
3.73745e-05
3.73745e-05
3.90801e-05
3.90071e-05
3.8178e-05
3.80168e-05
3.90555e-05
3.7475e-05
3.7389e-05
3.8793e-05
3.88415e-05
3.73083e-05
3.88235e-05
3.73784e-05
3.73156e-05
3.73154e-05
3.73786e-05
3.8823e-05
3.88146e-05
3.73083e-05
3.88418e-05
3.73891e-05
3.74749e-05
3.80182e-05
3.89031e-05
3.90564e-05
3.81782e-05
3.90822e-05
3.73746e-05
3.73743e-05
3.90805e-05
3.90075e-05
3.8178e-05
3.8017e-05
3.90561e-05
3.74749e-05
3.73888e-05
3.87932e-05
3.73083e-05
3.88422e-05
3.73783e-05
3.88241e-05
3.73155e-05
3.86348e-05
3.97067e-05
3.86133e-05
3.86138e-05
3.85439e-05
3.85458e-05
3.8561e-05
3.85614e-05
3.95224e-05
3.85435e-05
3.85441e-05
3.86349e-05
3.86155e-05
3.86161e-05
3.86344e-05
3.97045e-05
3.86127e-05
3.86138e-05
3.85601e-05
3.85434e-05
3.85443e-05
3.73155e-05
3.88222e-05
3.73785e-05
3.88142e-05
3.88414e-05
3.73081e-05
3.73892e-05
3.74749e-05
3.80183e-05
3.89035e-05
3.90564e-05
3.90824e-05
3.81786e-05
3.73746e-05
3.73745e-05
3.90809e-05
3.90078e-05
3.81785e-05
3.90563e-05
3.80176e-05
3.74751e-05
3.73888e-05
3.87927e-05
3.88414e-05
3.73081e-05
3.88236e-05
3.73783e-05
3.73155e-05
3.73155e-05
3.88222e-05
3.73785e-05
3.88141e-05
3.88409e-05
3.73081e-05
3.73892e-05
3.7475e-05
3.80173e-05
3.89039e-05
3.90563e-05
3.90824e-05
3.81788e-05
3.73745e-05
3.73744e-05
3.90807e-05
3.9008e-05
3.81785e-05
3.90562e-05
3.7475e-05
3.80179e-05
3.7389e-05
3.87925e-05
3.88412e-05
3.73081e-05
3.88233e-05
3.73785e-05
3.73154e-05
3.86341e-05
3.97079e-05
3.86136e-05
3.86134e-05
3.85428e-05
3.85452e-05
3.85605e-05
3.73156e-05
3.88221e-05
3.73785e-05
3.88146e-05
3.88413e-05
3.73081e-05
3.73892e-05
3.74747e-05
3.80179e-05
3.89034e-05
3.9056e-05
3.90821e-05
3.8178e-05
3.73745e-05
3.73747e-05
3.90805e-05
3.90077e-05
3.81778e-05
3.90559e-05
3.8018e-05
3.7475e-05
3.73889e-05
3.87929e-05
3.88414e-05
3.73082e-05
3.88235e-05
3.73783e-05
3.73154e-05
3.73154e-05
3.73785e-05
3.88225e-05
3.88146e-05
3.73081e-05
3.88418e-05
3.7389e-05
3.74749e-05
3.80174e-05
3.89042e-05
3.90568e-05
3.90828e-05
3.81785e-05
3.73745e-05
3.73745e-05
3.90812e-05
3.90084e-05
3.81781e-05
3.90568e-05
3.7475e-05
3.80174e-05
3.7389e-05
3.87927e-05
3.73081e-05
3.88415e-05
3.73785e-05
3.88237e-05
3.73155e-05
3.73156e-05
3.73786e-05
3.88232e-05
3.88147e-05
3.73081e-05
3.88418e-05
3.73891e-05
3.74749e-05
3.80178e-05
3.89035e-05
3.90572e-05
3.81789e-05
3.90825e-05
3.73745e-05
3.73746e-05
3.90815e-05
3.90082e-05
3.81792e-05
3.80176e-05
3.90568e-05
3.7475e-05
3.7389e-05
3.87928e-05
3.73082e-05
3.88423e-05
3.73785e-05
3.88236e-05
3.73155e-05
3.86343e-05
3.97049e-05
3.86143e-05
3.86135e-05
3.85431e-05
3.85447e-05
3.85606e-05
3.73156e-05
3.73788e-05
3.88232e-05
3.88145e-05
3.73083e-05
3.88414e-05
3.73893e-05
3.74749e-05
3.80184e-05
3.89036e-05
3.90565e-05
3.81784e-05
3.90822e-05
3.73746e-05
3.73745e-05
3.90809e-05
3.90081e-05
3.81788e-05
3.80171e-05
3.9056e-05
3.74751e-05
3.7389e-05
3.87933e-05
3.73082e-05
3.8842e-05
3.73784e-05
3.88239e-05
3.73156e-05
3.72341e-05
3.72708e-05
3.72713e-05
3.97049e-05
3.7234e-05
3.72708e-05
3.72712e-05
3.97066e-05
3.7234e-05
3.72707e-05
3.72709e-05
3.97048e-05
3.7234e-05
3.72709e-05
3.72711e-05
3.97067e-05
3.7234e-05
3.72712e-05
3.7271e-05
3.97054e-05
3.7234e-05
3.72709e-05
3.7271e-05
3.97051e-05
3.7234e-05
3.72711e-05
3.72713e-05
3.97051e-05
3.7234e-05
3.72708e-05
3.72709e-05
3.97069e-05
3.7234e-05
3.7271e-05
3.72712e-05
3.97051e-05
3.7234e-05
3.72707e-05
3.72712e-05
3.97047e-05
3.7234e-05
3.72711e-05
3.72713e-05
3.9705e-05
3.72339e-05
3.72707e-05
3.72711e-05
3.97052e-05
3.7234e-05
3.7271e-05
3.72714e-05
3.97056e-05
3.7234e-05
3.72707e-05
3.72712e-05
3.97052e-05
3.7234e-05
3.72711e-05
3.72713e-05
3.97049e-05
3.7234e-05
3.72708e-05
3.7271e-05
3.97047e-05
3.7234e-05
3.72711e-05
3.72713e-05
3.97037e-05
3.95211e-05
3.72712e-05
3.72713e-05
3.72713e-05
3.72713e-05
3.97053e-05
3.95209e-05
3.72711e-05
3.72711e-05
3.72708e-05
3.72712e-05
3.72714e-05
3.72711e-05
3.72714e-05
3.97046e-05
3.95216e-05
3.72714e-05
3.72709e-05
3.72709e-05
3.95216e-05
3.97044e-05
3.95213e-05
3.72711e-05
3.7271e-05
3.72713e-05
3.72711e-05
3.97074e-05
3.95214e-05
3.72711e-05
3.7271e-05
3.72714e-05
3.72709e-05
3.72711e-05
3.72714e-05
3.72714e-05
3.97072e-05
3.95225e-05
3.7271e-05
3.7271e-05
3.72715e-05
3.95209e-05
3.97077e-05
3.95214e-05
3.72708e-05
3.72711e-05
3.72712e-05
3.72713e-05
3.97075e-05
3.95206e-05
3.72709e-05
3.72709e-05
3.72714e-05
3.72709e-05
3.72712e-05
3.72714e-05
3.72714e-05
3.97087e-05
3.95219e-05
3.72714e-05
3.7271e-05
3.72714e-05
3.95216e-05
3.97077e-05
3.95216e-05
3.72709e-05
3.72713e-05
3.72713e-05
3.72713e-05
3.97057e-05
3.95216e-05
3.7271e-05
3.72708e-05
3.7271e-05
3.72709e-05
3.72713e-05
3.72714e-05
3.72714e-05
3.97074e-05
3.95229e-05
3.7271e-05
3.72709e-05
3.72715e-05
3.95212e-05
3.97062e-05
3.95216e-05
3.72712e-05
3.72715e-05
3.72713e-05
3.72712e-05
3.97061e-05
3.95212e-05
3.72711e-05
3.72708e-05
3.72714e-05
3.72709e-05
3.72714e-05
3.72711e-05
3.72715e-05
3.97091e-05
3.95224e-05
3.72713e-05
3.7271e-05
3.72709e-05
3.95218e-05
3.97064e-05
3.95212e-05
3.72712e-05
3.72715e-05
3.72713e-05
3.72713e-05
3.9706e-05
3.95216e-05
3.7271e-05
3.72709e-05
3.72711e-05
3.7271e-05
3.7271e-05
3.72714e-05
3.72712e-05
3.97077e-05
3.95226e-05
3.72712e-05
3.72709e-05
3.72715e-05
3.9521e-05
3.97046e-05
3.95216e-05
3.72712e-05
3.72712e-05
3.72712e-05
3.72713e-05
3.97076e-05
3.95213e-05
3.72712e-05
3.72709e-05
3.72712e-05
3.7271e-05
3.72711e-05
3.72711e-05
3.72714e-05
3.97072e-05
3.95222e-05
3.72712e-05
3.72709e-05
3.72709e-05
3.95223e-05
3.9708e-05
3.95222e-05
3.72708e-05
3.7271e-05
3.72712e-05
3.72709e-05
3.97076e-05
3.95212e-05
3.72713e-05
3.72709e-05
3.72713e-05
3.72709e-05
3.72711e-05
3.7271e-05
3.72713e-05
3.9709e-05
3.95226e-05
3.72711e-05
3.72709e-05
3.7271e-05
3.95215e-05
3.97061e-05
3.95201e-05
3.72711e-05
3.72713e-05
3.72712e-05
3.72712e-05
3.97056e-05
3.95202e-05
3.7271e-05
3.72713e-05
3.72709e-05
3.72709e-05
3.72713e-05
3.72712e-05
3.72714e-05
3.97073e-05
3.95215e-05
3.72712e-05
3.72709e-05
3.72709e-05
3.95215e-05
3.97056e-05
3.95215e-05
3.72711e-05
3.72712e-05
3.72713e-05
3.72711e-05
3.97072e-05
3.95213e-05
3.72711e-05
3.72709e-05
3.7271e-05
3.7271e-05
3.72714e-05
3.72714e-05
3.72714e-05
3.97067e-05
3.95215e-05
3.72714e-05
3.7271e-05
3.72715e-05
3.95207e-05
3.97063e-05
3.95221e-05
3.72711e-05
3.72714e-05
3.72712e-05
3.72713e-05
3.97058e-05
3.95215e-05
3.72708e-05
3.7271e-05
3.7271e-05
3.72709e-05
3.72712e-05
3.72714e-05
3.72714e-05
3.97071e-05
3.95221e-05
3.72712e-05
3.7271e-05
3.72714e-05
3.95221e-05
3.97081e-05
3.95221e-05
3.72708e-05
3.72709e-05
3.72713e-05
3.72711e-05
3.97079e-05
3.95221e-05
3.72713e-05
3.72709e-05
3.7271e-05
3.7271e-05
3.72715e-05
3.7271e-05
3.72714e-05
3.97073e-05
3.95225e-05
3.72712e-05
3.7271e-05
3.72711e-05
3.95218e-05
3.97067e-05
3.95215e-05
3.72711e-05
3.72713e-05
3.72713e-05
3.72713e-05
3.97062e-05
3.95211e-05
3.72708e-05
3.72708e-05
3.72712e-05
3.72709e-05
3.72714e-05
3.72714e-05
3.72714e-05
3.97078e-05
3.95221e-05
3.72712e-05
3.72709e-05
3.72714e-05
3.9522e-05
3.97063e-05
3.9522e-05
3.72711e-05
3.72711e-05
3.72711e-05
3.7271e-05
3.97076e-05
3.95205e-05
3.72711e-05
3.72709e-05
3.72712e-05
3.72709e-05
3.72712e-05
3.7271e-05
3.72713e-05
3.97071e-05
3.95222e-05
3.72714e-05
3.7271e-05
3.7271e-05
3.95214e-05
3.97043e-05
3.95207e-05
3.72712e-05
3.72712e-05
3.72712e-05
3.72713e-05
3.97073e-05
3.95206e-05
3.72712e-05
3.72709e-05
3.72714e-05
3.72709e-05
3.72711e-05
3.72714e-05
3.72714e-05
3.9707e-05
3.95213e-05
3.72712e-05
3.7271e-05
3.72714e-05
3.95212e-05
3.97059e-05
3.95224e-05
3.72711e-05
3.72712e-05
3.72712e-05
3.72709e-05
3.97073e-05
3.95214e-05
3.72709e-05
3.72709e-05
3.72713e-05
3.72709e-05
3.7271e-05
3.72714e-05
3.72713e-05
3.97069e-05
3.95224e-05
3.72712e-05
3.72709e-05
3.72715e-05
3.95215e-05
3.97064e-05
3.9521e-05
3.72711e-05
3.72714e-05
3.72713e-05
3.72715e-05
3.9706e-05
3.95205e-05
3.72709e-05
3.7271e-05
3.7271e-05
3.72712e-05
3.72713e-05
3.72712e-05
3.7271e-05
3.97073e-05
3.9522e-05
3.72712e-05
3.72709e-05
3.72714e-05
3.73079e-05
3.59939e-05
3.59393e-05
3.74074e-05
3.42658e-05
3.42428e-05
3.73079e-05
3.59938e-05
3.59391e-05
3.74075e-05
3.72341e-05
3.72341e-05
3.7234e-05
3.7234e-05
3.7234e-05
3.7234e-05
3.7234e-05
3.87926e-05
3.90055e-05
3.72345e-05
3.72713e-05
3.89029e-05
3.72344e-05
3.88131e-05
3.42657e-05
3.42426e-05
3.87926e-05
3.72345e-05
3.90059e-05
3.72709e-05
3.72344e-05
3.8903e-05
3.8813e-05
3.75473e-05
3.75471e-05
3.95223e-05
3.74186e-05
3.74184e-05
3.73079e-05
3.59935e-05
3.74073e-05
3.59393e-05
3.42654e-05
3.42428e-05
3.73079e-05
3.59934e-05
3.74073e-05
3.59392e-05
3.7234e-05
3.7234e-05
3.7234e-05
3.7234e-05
3.7234e-05
3.7234e-05
3.7234e-05
3.87924e-05
3.90069e-05
3.72344e-05
3.72714e-05
3.88149e-05
3.89027e-05
3.72344e-05
3.42652e-05
3.42426e-05
3.87928e-05
3.72344e-05
3.90075e-05
3.72709e-05
3.88153e-05
3.72344e-05
3.89032e-05
3.75474e-05
3.75471e-05
3.95215e-05
3.74184e-05
3.74183e-05
3.73079e-05
3.59935e-05
3.74072e-05
3.59393e-05
3.42654e-05
3.42428e-05
3.73079e-05
3.59934e-05
3.74073e-05
3.59391e-05
3.7234e-05
3.7234e-05
3.7234e-05
3.7234e-05
3.7234e-05
3.7234e-05
3.7234e-05
3.87927e-05
3.9007e-05
3.72344e-05
3.72713e-05
3.88144e-05
3.8903e-05
3.72344e-05
3.42652e-05
3.42426e-05
3.8793e-05
3.72344e-05
3.90074e-05
3.72709e-05
3.88149e-05
3.72344e-05
3.89031e-05
3.75474e-05
3.75471e-05
3.95224e-05
3.74186e-05
3.74184e-05
3.73078e-05
3.59936e-05
3.74072e-05
3.59393e-05
3.42655e-05
3.42429e-05
3.73079e-05
3.59934e-05
3.74073e-05
3.59392e-05
3.7234e-05
3.7234e-05
3.7234e-05
3.7234e-05
3.7234e-05
3.7234e-05
3.7234e-05
3.87922e-05
3.90069e-05
3.72344e-05
3.72713e-05
3.88141e-05
3.89026e-05
3.72344e-05
3.42652e-05
3.42426e-05
3.87928e-05
3.72344e-05
3.90073e-05
3.7271e-05
3.88145e-05
3.72344e-05
3.89033e-05
3.75474e-05
3.75472e-05
3.95217e-05
3.74185e-05
3.74184e-05
3.73079e-05
3.59935e-05
3.74072e-05
3.59393e-05
3.42653e-05
3.42428e-05
3.73079e-05
3.59934e-05
3.74073e-05
3.59391e-05
3.7234e-05
3.7234e-05
3.7234e-05
3.7234e-05
3.7234e-05
3.7234e-05
3.7234e-05
3.87932e-05
3.90074e-05
3.72344e-05
3.72713e-05
3.88151e-05
3.89033e-05
3.72344e-05
3.42653e-05
3.42426e-05
3.8793e-05
3.72344e-05
3.90076e-05
3.72709e-05
3.88153e-05
3.72344e-05
3.8903e-05
3.75474e-05
3.75473e-05
3.95209e-05
3.74185e-05
3.74185e-05
3.73079e-05
3.59935e-05
3.74072e-05
3.59393e-05
3.42655e-05
3.42428e-05
3.7308e-05
3.59934e-05
3.74073e-05
3.59392e-05
3.7234e-05
3.7234e-05
3.7234e-05
3.7234e-05
3.7234e-05
3.7234e-05
3.7234e-05
3.87927e-05
3.90069e-05
3.72344e-05
3.7271e-05
3.88144e-05
3.89028e-05
3.72344e-05
3.42651e-05
3.42425e-05
3.87934e-05
3.72344e-05
3.90078e-05
3.72711e-05
3.88151e-05
3.72344e-05
3.89035e-05
3.75474e-05
3.75471e-05
3.9522e-05
3.74185e-05
3.74184e-05
3.73079e-05
3.59935e-05
3.74073e-05
3.59393e-05
3.42653e-05
3.42427e-05
3.73079e-05
3.59934e-05
3.74073e-05
3.59391e-05
3.7234e-05
3.7234e-05
3.7234e-05
3.7234e-05
3.7234e-05
3.7234e-05
3.7234e-05
3.8793e-05
3.90074e-05
3.72344e-05
3.7271e-05
3.88154e-05
3.89031e-05
3.72344e-05
3.42652e-05
3.42426e-05
3.8793e-05
3.72344e-05
3.90074e-05
3.72711e-05
3.88155e-05
3.72344e-05
3.89033e-05
3.75474e-05
3.75472e-05
3.95232e-05
3.74185e-05
3.74183e-05
3.73078e-05
3.59935e-05
3.74072e-05
3.59393e-05
3.42654e-05
3.42428e-05
3.73079e-05
3.59934e-05
3.74073e-05
3.59392e-05
3.7234e-05
3.7234e-05
3.7234e-05
3.7234e-05
3.7234e-05
3.7234e-05
3.7234e-05
3.87928e-05
3.90069e-05
3.72344e-05
3.72713e-05
3.88141e-05
3.89031e-05
3.72344e-05
3.42652e-05
3.42425e-05
3.87929e-05
3.72344e-05
3.90076e-05
3.72711e-05
3.88147e-05
3.72344e-05
3.89033e-05
3.75475e-05
3.75471e-05
3.95217e-05
3.74185e-05
3.74184e-05
3.73079e-05
3.59935e-05
3.74072e-05
3.59393e-05
3.42655e-05
3.42429e-05
3.73079e-05
3.59934e-05
3.74072e-05
3.59392e-05
3.7234e-05
3.7234e-05
3.7234e-05
3.7234e-05
3.7234e-05
3.7234e-05
3.7234e-05
3.87925e-05
3.90067e-05
3.72344e-05
3.7271e-05
3.88141e-05
3.89029e-05
3.72344e-05
3.42653e-05
3.42427e-05
3.87929e-05
3.72344e-05
3.9007e-05
3.72711e-05
3.88144e-05
3.72344e-05
3.89033e-05
3.75474e-05
3.75472e-05
3.95223e-05
3.74185e-05
3.74184e-05
3.73078e-05
3.59936e-05
3.74072e-05
3.59393e-05
3.42656e-05
3.4243e-05
3.73079e-05
3.59934e-05
3.74072e-05
3.59392e-05
3.7234e-05
3.7234e-05
3.7234e-05
3.7234e-05
3.7234e-05
3.7234e-05
3.7234e-05
3.87919e-05
3.90068e-05
3.72344e-05
3.7271e-05
3.88142e-05
3.89024e-05
3.72344e-05
3.42653e-05
3.42427e-05
3.87923e-05
3.72344e-05
3.90073e-05
3.72711e-05
3.88145e-05
3.72344e-05
3.89029e-05
3.75474e-05
3.75471e-05
3.9521e-05
3.74185e-05
3.74183e-05
3.73079e-05
3.59935e-05
3.74073e-05
3.59393e-05
3.42655e-05
3.42428e-05
3.73078e-05
3.59935e-05
3.74073e-05
3.59392e-05
3.7234e-05
3.7234e-05
3.7234e-05
3.7234e-05
3.7234e-05
3.7234e-05
3.7234e-05
3.87921e-05
3.90071e-05
3.72344e-05
3.72714e-05
3.88151e-05
3.89026e-05
3.72344e-05
3.42653e-05
3.42426e-05
3.87926e-05
3.72344e-05
3.90071e-05
3.72709e-05
3.8815e-05
3.72344e-05
3.89031e-05
3.75474e-05
3.75472e-05
3.95217e-05
3.74184e-05
3.74183e-05
3.73079e-05
3.59935e-05
3.74073e-05
3.59392e-05
3.42653e-05
3.42427e-05
3.73079e-05
3.59934e-05
3.74074e-05
3.59391e-05
3.72339e-05
3.7234e-05
3.7234e-05
3.7234e-05
3.7234e-05
3.7234e-05
3.7234e-05
3.87929e-05
3.90074e-05
3.72344e-05
3.72711e-05
3.88149e-05
3.89032e-05
3.72344e-05
3.42651e-05
3.42425e-05
3.87931e-05
3.72344e-05
3.90077e-05
3.72715e-05
3.88151e-05
3.72344e-05
3.89035e-05
3.75475e-05
3.75472e-05
3.9522e-05
3.74185e-05
3.74184e-05
3.73079e-05
3.59935e-05
3.74072e-05
3.59393e-05
3.42653e-05
3.42427e-05
3.73079e-05
3.59934e-05
3.74073e-05
3.59392e-05
3.7234e-05
3.7234e-05
3.7234e-05
3.7234e-05
3.7234e-05
3.7234e-05
3.7234e-05
3.87931e-05
3.90073e-05
3.72344e-05
3.72713e-05
3.8815e-05
3.89037e-05
3.72344e-05
3.42651e-05
3.42424e-05
3.87934e-05
3.72344e-05
3.90078e-05
3.7271e-05
3.88156e-05
3.72344e-05
3.89038e-05
3.75475e-05
3.75472e-05
3.95222e-05
3.74186e-05
3.74185e-05
3.73079e-05
3.59935e-05
3.74072e-05
3.59393e-05
3.42654e-05
3.42429e-05
3.7308e-05
3.59934e-05
3.74072e-05
3.59391e-05
3.7234e-05
3.7234e-05
3.7234e-05
3.7234e-05
3.7234e-05
3.7234e-05
3.7234e-05
3.87929e-05
3.9007e-05
3.72344e-05
3.72713e-05
3.88147e-05
3.89032e-05
3.72344e-05
3.42652e-05
3.42426e-05
3.87931e-05
3.72344e-05
3.90073e-05
3.72709e-05
3.88149e-05
3.72344e-05
3.89037e-05
3.75474e-05
3.75471e-05
3.95208e-05
3.74186e-05
3.74186e-05
3.73079e-05
3.59935e-05
3.74072e-05
3.59393e-05
3.42656e-05
3.4243e-05
3.73079e-05
3.59935e-05
3.74072e-05
3.59392e-05
3.7234e-05
3.7234e-05
3.7234e-05
3.7234e-05
3.7234e-05
3.7234e-05
3.7234e-05
3.87925e-05
3.90068e-05
3.72344e-05
3.7271e-05
3.88141e-05
3.89026e-05
3.72344e-05
3.42653e-05
3.42427e-05
3.87927e-05
3.72344e-05
3.9007e-05
3.72711e-05
3.88149e-05
3.72344e-05
3.89031e-05
3.75473e-05
3.75471e-05
3.95212e-05
3.74185e-05
3.74184e-05
3.73078e-05
3.59936e-05
3.74073e-05
3.59393e-05
3.42655e-05
3.42429e-05
3.73079e-05
3.59934e-05
3.74073e-05
3.59391e-05
3.7234e-05
3.7234e-05
3.7234e-05
3.7234e-05
3.7234e-05
3.7234e-05
3.7234e-05
3.87921e-05
3.90071e-05
3.72344e-05
3.72713e-05
3.88147e-05
3.89027e-05
3.72344e-05
3.42653e-05
3.42427e-05
3.87924e-05
3.72344e-05
3.90071e-05
3.72709e-05
3.88145e-05
3.72344e-05
3.8903e-05
3.75474e-05
3.75472e-05
3.95224e-05
3.74185e-05
3.74183e-05
3.73079e-05
3.59935e-05
3.74072e-05
3.59393e-05
3.42654e-05
3.42428e-05
3.73079e-05
3.59934e-05
3.74073e-05
3.59392e-05
3.7234e-05
3.7234e-05
3.7234e-05
3.7234e-05
3.7234e-05
3.7234e-05
3.7234e-05
3.87929e-05
3.90071e-05
3.72344e-05
3.72713e-05
3.88151e-05
3.89033e-05
3.72344e-05
3.42653e-05
3.42426e-05
3.8793e-05
3.72344e-05
3.90075e-05
3.72711e-05
3.88155e-05
3.72344e-05
3.89033e-05
3.4266e-05
3.4243e-05
3.42658e-05
3.42427e-05
3.75476e-05
3.75472e-05
3.95213e-05
3.74186e-05
3.74183e-05
3.4243e-05
3.42656e-05
3.42427e-05
3.42653e-05
3.97059e-05
3.74187e-05
3.74183e-05
3.75475e-05
3.75471e-05
3.73079e-05
3.59939e-05
3.59393e-05
3.74075e-05
3.87924e-05
3.9006e-05
3.72345e-05
3.72713e-05
3.89034e-05
3.72344e-05
3.88127e-05
3.87922e-05
3.90067e-05
3.72345e-05
3.72714e-05
3.89041e-05
3.72344e-05
3.88128e-05
3.74072e-05
3.59393e-05
3.59935e-05
3.73078e-05
3.74073e-05
3.59392e-05
3.59936e-05
3.73078e-05
3.88143e-05
3.72712e-05
3.89034e-05
3.72344e-05
3.90075e-05
3.72344e-05
3.87922e-05
3.88144e-05
3.72713e-05
3.89039e-05
3.72344e-05
3.90079e-05
3.72344e-05
3.8792e-05
3.75473e-05
3.75475e-05
3.95216e-05
3.74185e-05
3.74185e-05
3.4266e-05
3.4243e-05
3.42428e-05
3.42655e-05
3.9704e-05
3.74185e-05
3.74184e-05
3.75472e-05
3.75474e-05
3.4243e-05
3.42656e-05
3.87928e-05
3.90063e-05
3.72345e-05
3.72708e-05
3.89034e-05
3.72344e-05
3.88132e-05
3.73079e-05
3.59938e-05
3.59392e-05
3.74076e-05
3.87925e-05
3.72345e-05
3.90068e-05
3.72715e-05
3.72344e-05
3.89042e-05
3.88132e-05
3.74073e-05
3.59391e-05
3.59934e-05
3.73078e-05
3.88146e-05
3.72711e-05
3.89034e-05
3.72344e-05
3.90077e-05
3.72344e-05
3.87924e-05
3.74073e-05
3.59391e-05
3.59934e-05
3.73078e-05
3.88145e-05
3.72712e-05
3.72344e-05
3.89042e-05
3.72344e-05
3.90084e-05
3.87923e-05
3.73078e-05
3.59938e-05
3.59392e-05
3.74075e-05
3.87926e-05
3.72345e-05
3.90073e-05
3.72713e-05
3.72344e-05
3.89037e-05
3.88134e-05
3.73079e-05
3.59934e-05
3.59392e-05
3.74075e-05
3.88145e-05
3.72712e-05
3.89028e-05
3.72344e-05
3.90068e-05
3.72344e-05
3.87924e-05
3.74072e-05
3.59392e-05
3.59935e-05
3.73078e-05
3.88145e-05
3.72708e-05
3.72344e-05
3.89034e-05
3.72344e-05
3.90075e-05
3.87921e-05
3.74073e-05
3.59392e-05
3.59934e-05
3.73079e-05
3.75474e-05
3.75476e-05
3.95222e-05
3.74186e-05
3.74185e-05
3.42659e-05
3.42429e-05
3.42426e-05
3.42652e-05
3.97089e-05
3.74185e-05
3.74186e-05
3.75473e-05
3.75475e-05
3.42428e-05
3.42655e-05
3.87926e-05
3.72346e-05
3.90074e-05
3.72714e-05
3.72344e-05
3.89037e-05
3.88131e-05
3.73079e-05
3.59937e-05
3.59392e-05
3.74075e-05
3.73079e-05
3.59934e-05
3.59392e-05
3.74076e-05
3.88147e-05
3.72709e-05
3.72344e-05
3.89031e-05
3.72344e-05
3.90073e-05
3.87924e-05
3.88146e-05
3.72711e-05
3.72344e-05
3.89034e-05
3.72344e-05
3.90077e-05
3.87923e-05
3.74072e-05
3.59392e-05
3.59934e-05
3.73078e-05
3.74073e-05
3.59392e-05
3.59934e-05
3.73079e-05
3.42655e-05
3.42428e-05
3.42653e-05
3.42428e-05
3.97063e-05
3.74186e-05
3.74184e-05
3.75474e-05
3.75471e-05
3.42428e-05
3.42655e-05
3.42427e-05
3.42654e-05
3.42656e-05
3.42429e-05
3.42653e-05
3.42427e-05
3.75474e-05
3.75471e-05
3.95216e-05
3.74185e-05
3.74184e-05
3.42429e-05
3.42655e-05
3.42427e-05
3.42653e-05
3.97061e-05
3.74185e-05
3.74184e-05
3.75474e-05
3.75472e-05
3.73079e-05
3.59935e-05
3.74073e-05
3.59392e-05
3.87925e-05
3.90076e-05
3.72344e-05
3.72713e-05
3.88151e-05
3.89035e-05
3.72344e-05
3.87923e-05
3.90081e-05
3.72344e-05
3.72711e-05
3.8815e-05
3.89039e-05
3.72344e-05
3.74072e-05
3.59393e-05
3.59935e-05
3.73078e-05
3.74073e-05
3.59392e-05
3.59935e-05
3.73079e-05
3.88144e-05
3.72712e-05
3.89036e-05
3.72344e-05
3.90076e-05
3.72344e-05
3.87925e-05
3.88144e-05
3.72709e-05
3.8904e-05
3.72344e-05
3.90084e-05
3.72344e-05
3.87924e-05
3.75471e-05
3.75474e-05
3.95212e-05
3.74184e-05
3.74185e-05
3.42656e-05
3.42429e-05
3.42428e-05
3.42654e-05
3.9706e-05
3.74185e-05
3.74185e-05
3.75471e-05
3.75474e-05
3.42429e-05
3.42655e-05
3.87928e-05
3.90078e-05
3.72344e-05
3.72708e-05
3.88151e-05
3.89034e-05
3.72344e-05
3.73079e-05
3.59934e-05
3.74073e-05
3.59391e-05
3.87926e-05
3.72344e-05
3.90085e-05
3.72716e-05
3.88149e-05
3.72344e-05
3.89042e-05
3.74073e-05
3.59392e-05
3.59934e-05
3.73079e-05
3.88146e-05
3.7271e-05
3.89036e-05
3.72344e-05
3.90078e-05
3.72344e-05
3.87925e-05
3.74073e-05
3.59391e-05
3.59934e-05
3.73079e-05
3.88145e-05
3.72715e-05
3.72344e-05
3.89041e-05
3.72344e-05
3.90084e-05
3.87924e-05
3.73078e-05
3.59934e-05
3.74073e-05
3.59392e-05
3.87922e-05
3.72344e-05
3.90078e-05
3.72714e-05
3.8815e-05
3.72344e-05
3.89034e-05
3.73078e-05
3.59934e-05
3.74073e-05
3.59392e-05
3.88149e-05
3.72715e-05
3.89029e-05
3.72344e-05
3.90072e-05
3.72344e-05
3.87927e-05
3.74072e-05
3.59392e-05
3.59934e-05
3.73079e-05
3.88148e-05
3.72708e-05
3.72344e-05
3.89037e-05
3.72344e-05
3.90081e-05
3.87925e-05
3.74073e-05
3.59392e-05
3.59934e-05
3.73079e-05
3.75473e-05
3.75475e-05
3.95221e-05
3.74185e-05
3.74186e-05
3.42654e-05
3.42428e-05
3.42426e-05
3.42652e-05
3.97053e-05
3.74186e-05
3.74186e-05
3.75473e-05
3.75474e-05
3.42428e-05
3.42654e-05
3.87926e-05
3.72344e-05
3.90079e-05
3.72714e-05
3.88152e-05
3.72344e-05
3.89035e-05
3.73078e-05
3.59934e-05
3.74073e-05
3.59392e-05
3.73079e-05
3.59934e-05
3.74074e-05
3.59391e-05
3.88152e-05
3.72713e-05
3.72344e-05
3.89032e-05
3.72344e-05
3.90074e-05
3.87931e-05
3.8815e-05
3.72715e-05
3.72344e-05
3.89038e-05
3.72344e-05
3.90082e-05
3.87928e-05
3.74073e-05
3.59392e-05
3.59933e-05
3.73079e-05
3.74073e-05
3.59391e-05
3.59934e-05
3.73079e-05
3.42654e-05
3.42428e-05
3.42653e-05
3.42427e-05
3.97063e-05
3.74185e-05
3.74184e-05
3.75474e-05
3.75471e-05
3.42427e-05
3.42653e-05
3.42426e-05
3.42652e-05