/*--------------------------------*- C++ -*----------------------------------*\
| =========                 |                                                 |
| \\      /  F ield         | OpenFOAM: The Open Source CFD Toolbox           |
|  \\    /   O peration     | Version:  2206                                  |
|   \\  /    A nd           | Website:  www.openfoam.com                      |
|    \\/     M anipulation  |                                                 |
\*---------------------------------------------------------------------------*/
FoamFile
{
    version     2.0;
    format      ascii;
    arch        "LSB;label=32;scalar=64";
    class       volScalarField;
    location    "13";
    object      k;
}
// * * * * * * * * * * * * * * * * * * * * * * * * * * * * * * * * * * * * * //

dimensions      [0 2 -2 0 0 0 0];

internalField   nonuniform List<scalar> 
28897
(
3.15579e-05
3.14597e-05
3.14593e-05
3.13105e-05
3.15578e-05
3.14597e-05
3.14592e-05
3.13106e-05
3.15554e-05
3.14583e-05
3.14568e-05
3.13081e-05
3.15482e-05
3.14494e-05
3.1449e-05
3.12994e-05
3.15479e-05
3.14489e-05
3.14489e-05
3.12994e-05
3.15479e-05
3.14489e-05
3.14489e-05
3.12994e-05
3.15479e-05
3.14489e-05
3.14489e-05
3.12994e-05
3.15479e-05
3.14489e-05
3.14489e-05
3.12994e-05
3.15479e-05
3.14489e-05
3.14489e-05
3.12994e-05
3.15479e-05
3.14489e-05
3.14489e-05
3.12994e-05
3.15479e-05
3.14489e-05
3.14489e-05
3.12994e-05
3.15479e-05
3.14489e-05
3.14489e-05
3.12994e-05
3.15479e-05
3.14489e-05
3.14489e-05
3.12994e-05
3.15479e-05
3.14489e-05
3.14489e-05
3.12994e-05
3.15479e-05
3.14489e-05
3.14489e-05
3.12994e-05
3.15479e-05
3.14489e-05
3.14489e-05
3.12994e-05
3.15479e-05
3.14489e-05
3.14489e-05
3.12994e-05
3.15481e-05
3.14491e-05
3.14491e-05
3.12994e-05
3.13117e-05
3.14593e-05
3.14593e-05
3.13122e-05
3.14594e-05
3.14592e-05
3.14598e-05
3.14594e-05
3.13116e-05
3.14593e-05
3.14594e-05
3.13117e-05
3.13108e-05
3.13117e-05
3.14595e-05
3.14596e-05
3.14594e-05
3.14595e-05
3.13113e-05
3.13122e-05
3.14596e-05
3.14595e-05
3.14595e-05
3.14594e-05
3.14596e-05
3.14598e-05
3.14595e-05
3.13107e-05
3.13115e-05
3.14596e-05
3.14592e-05
3.14595e-05
3.13118e-05
3.13108e-05
3.13105e-05
3.14594e-05
3.14595e-05
3.14585e-05
3.14587e-05
3.13112e-05
3.13113e-05
3.14595e-05
3.14593e-05
3.14586e-05
3.14584e-05
3.14595e-05
3.14591e-05
3.14586e-05
3.13106e-05
3.13104e-05
3.14595e-05
3.14584e-05
3.14586e-05
3.13107e-05
3.13084e-05
3.13008e-05
3.14568e-05
3.14574e-05
3.14496e-05
3.14499e-05
3.13098e-05
3.13016e-05
3.14569e-05
3.14567e-05
3.14497e-05
3.14496e-05
3.14572e-05
3.14507e-05
3.14498e-05
3.13083e-05
3.13007e-05
3.14569e-05
3.14497e-05
3.14497e-05
3.13009e-05
3.12997e-05
3.13006e-05
3.14491e-05
3.14492e-05
3.14488e-05
3.14488e-05
3.12999e-05
3.13007e-05
3.14492e-05
3.14491e-05
3.14489e-05
3.14487e-05
3.14492e-05
3.14489e-05
3.14488e-05
3.12996e-05
3.13006e-05
3.14492e-05
3.14489e-05
3.14489e-05
3.13006e-05
3.12997e-05
3.13006e-05
3.1449e-05
3.1449e-05
3.14488e-05
3.14488e-05
3.12997e-05
3.13006e-05
3.1449e-05
3.14489e-05
3.14489e-05
3.14488e-05
3.1449e-05
3.14489e-05
3.14489e-05
3.12996e-05
3.13005e-05
3.1449e-05
3.14489e-05
3.14489e-05
3.13006e-05
3.12997e-05
3.13006e-05
3.1449e-05
3.1449e-05
3.14488e-05
3.14488e-05
3.12997e-05
3.13006e-05
3.1449e-05
3.14489e-05
3.14489e-05
3.14488e-05
3.1449e-05
3.1449e-05
3.14489e-05
3.12996e-05
3.13005e-05
3.1449e-05
3.14489e-05
3.14489e-05
3.13006e-05
3.12997e-05
3.13006e-05
3.1449e-05
3.1449e-05
3.14488e-05
3.14488e-05
3.12996e-05
3.13006e-05
3.1449e-05
3.14489e-05
3.14489e-05
3.14488e-05
3.1449e-05
3.1449e-05
3.14489e-05
3.12996e-05
3.13005e-05
3.1449e-05
3.14489e-05
3.14489e-05
3.13006e-05
3.12997e-05
3.13006e-05
3.1449e-05
3.1449e-05
3.14488e-05
3.14488e-05
3.12996e-05
3.13006e-05
3.1449e-05
3.14489e-05
3.14489e-05
3.14488e-05
3.1449e-05
3.1449e-05
3.14489e-05
3.12996e-05
3.13005e-05
3.1449e-05
3.14489e-05
3.14489e-05
3.13006e-05
3.12997e-05
3.13006e-05
3.1449e-05
3.1449e-05
3.14488e-05
3.14488e-05
3.12996e-05
3.13006e-05
3.1449e-05
3.14489e-05
3.14489e-05
3.14488e-05
3.1449e-05
3.1449e-05
3.14489e-05
3.12996e-05
3.13005e-05
3.1449e-05
3.14489e-05
3.14489e-05
3.13006e-05
3.12996e-05
3.13006e-05
3.1449e-05
3.1449e-05
3.14488e-05
3.14488e-05
3.12996e-05
3.13006e-05
3.1449e-05
3.14489e-05
3.14489e-05
3.14488e-05
3.1449e-05
3.1449e-05
3.14489e-05
3.12996e-05
3.13005e-05
3.1449e-05
3.14489e-05
3.14489e-05
3.13006e-05
3.12997e-05
3.13006e-05
3.1449e-05
3.1449e-05
3.14488e-05
3.14488e-05
3.12996e-05
3.13006e-05
3.1449e-05
3.14489e-05
3.14489e-05
3.14488e-05
3.1449e-05
3.1449e-05
3.14489e-05
3.12996e-05
3.13005e-05
3.1449e-05
3.14489e-05
3.14489e-05
3.13006e-05
3.12997e-05
3.13006e-05
3.1449e-05
3.1449e-05
3.14488e-05
3.14488e-05
3.12996e-05
3.13006e-05
3.1449e-05
3.14489e-05
3.14489e-05
3.14488e-05
3.1449e-05
3.1449e-05
3.14489e-05
3.12996e-05
3.13005e-05
3.1449e-05
3.14489e-05
3.14489e-05
3.13006e-05
3.12997e-05
3.13006e-05
3.1449e-05
3.1449e-05
3.14489e-05
3.14488e-05
3.12996e-05
3.13006e-05
3.1449e-05
3.14489e-05
3.14489e-05
3.14488e-05
3.1449e-05
3.1449e-05
3.14489e-05
3.12996e-05
3.13005e-05
3.1449e-05
3.14489e-05
3.14489e-05
3.13006e-05
3.12997e-05
3.13006e-05
3.1449e-05
3.1449e-05
3.14488e-05
3.14488e-05
3.12997e-05
3.13006e-05
3.1449e-05
3.14489e-05
3.14489e-05
3.14488e-05
3.1449e-05
3.1449e-05
3.14489e-05
3.12996e-05
3.13005e-05
3.1449e-05
3.14489e-05
3.14489e-05
3.13006e-05
3.12997e-05
3.13006e-05
3.1449e-05
3.1449e-05
3.14489e-05
3.14488e-05
3.12997e-05
3.13006e-05
3.1449e-05
3.14489e-05
3.14489e-05
3.14488e-05
3.1449e-05
3.1449e-05
3.14489e-05
3.12996e-05
3.13005e-05
3.1449e-05
3.14489e-05
3.14489e-05
3.13006e-05
3.12997e-05
3.13006e-05
3.1449e-05
3.1449e-05
3.14489e-05
3.14488e-05
3.12997e-05
3.13006e-05
3.1449e-05
3.14489e-05
3.14489e-05
3.14488e-05
3.1449e-05
3.1449e-05
3.14489e-05
3.12996e-05
3.13005e-05
3.1449e-05
3.14489e-05
3.14489e-05
3.13006e-05
3.12997e-05
3.13006e-05
3.1449e-05
3.1449e-05
3.14489e-05
3.14488e-05
3.12997e-05
3.13006e-05
3.1449e-05
3.14489e-05
3.14489e-05
3.14488e-05
3.1449e-05
3.1449e-05
3.14489e-05
3.12996e-05
3.13005e-05
3.1449e-05
3.14489e-05
3.14489e-05
3.13006e-05
3.12997e-05
3.1449e-05
3.1449e-05
3.12997e-05
3.14491e-05
3.1449e-05
3.1449e-05
3.12996e-05
3.14491e-05
3.15579e-05
3.1558e-05
3.15579e-05
3.15579e-05
3.22438e-05
6.28094e-05
3.22439e-05
6.28063e-05
8.46797e-05
8.46723e-05
3.22443e-05
6.28138e-05
3.22443e-05
6.28108e-05
3.15582e-05
3.15582e-05
3.15582e-05
3.15578e-05
3.15581e-05
3.1558e-05
3.1558e-05
3.08849e-05
3.19695e-05
3.15278e-05
3.146e-05
3.08844e-05
3.19683e-05
3.1528e-05
8.4675e-05
8.46682e-05
3.08845e-05
3.15277e-05
3.19688e-05
3.14593e-05
3.08841e-05
3.15277e-05
3.19682e-05
3.36239e-05
3.36247e-05
3.13119e-05
3.36258e-05
3.36263e-05
3.2245e-05
6.28075e-05
3.22458e-05
6.28054e-05
8.46684e-05
8.46653e-05
3.22455e-05
6.28119e-05
3.22462e-05
6.28098e-05
3.15581e-05
3.1558e-05
3.1558e-05
3.1557e-05
3.15572e-05
3.1557e-05
3.15571e-05
3.0885e-05
3.19712e-05
3.15278e-05
3.14597e-05
3.08851e-05
3.19701e-05
3.15277e-05
8.46664e-05
8.46644e-05
3.08851e-05
3.15276e-05
3.19709e-05
3.14591e-05
3.08848e-05
3.15276e-05
3.19697e-05
3.363e-05
3.36302e-05
3.13118e-05
3.36304e-05
3.36303e-05
3.22397e-05
6.28158e-05
3.22445e-05
6.28318e-05
8.46709e-05
8.46865e-05
3.224e-05
6.28201e-05
3.22448e-05
6.28362e-05
3.15559e-05
3.15555e-05
3.15555e-05
3.15489e-05
3.15491e-05
3.15489e-05
3.15489e-05
3.08791e-05
3.19711e-05
3.15258e-05
3.1456e-05
3.08838e-05
3.19669e-05
3.15231e-05
8.46802e-05
8.46931e-05
3.08764e-05
3.15252e-05
3.19697e-05
3.14537e-05
3.08833e-05
3.15224e-05
3.19642e-05
3.36303e-05
3.36296e-05
3.13054e-05
3.36271e-05
3.36243e-05
3.2233e-05
6.28389e-05
3.22344e-05
6.28364e-05
8.46968e-05
8.46953e-05
3.22336e-05
6.28431e-05
3.22348e-05
6.28408e-05
3.15484e-05
3.15483e-05
3.15483e-05
3.15479e-05
3.1548e-05
3.1548e-05
3.1548e-05
3.08719e-05
3.19614e-05
3.1518e-05
3.14491e-05
3.08718e-05
3.19583e-05
3.15178e-05
8.46959e-05
8.46937e-05
3.08721e-05
3.15178e-05
3.19601e-05
3.1449e-05
3.08718e-05
3.15178e-05
3.19581e-05
3.36162e-05
3.3616e-05
3.13007e-05
3.36148e-05
3.36149e-05
3.22329e-05
6.28381e-05
3.2234e-05
6.2836e-05
8.46963e-05
8.46951e-05
3.22336e-05
6.28424e-05
3.22345e-05
6.28404e-05
3.15482e-05
3.15482e-05
3.15481e-05
3.15479e-05
3.1548e-05
3.1548e-05
3.1548e-05
3.08719e-05
3.19594e-05
3.15177e-05
3.1449e-05
3.08717e-05
3.19577e-05
3.15178e-05
8.46952e-05
8.46935e-05
3.08721e-05
3.15176e-05
3.19594e-05
3.1449e-05
3.08718e-05
3.15178e-05
3.19579e-05
3.36155e-05
3.36156e-05
3.13007e-05
3.36148e-05
3.36149e-05
3.2233e-05
6.2838e-05
3.2234e-05
6.2836e-05
8.46963e-05
8.46951e-05
3.22336e-05
6.28423e-05
3.22345e-05
6.28404e-05
3.15481e-05
3.15481e-05
3.15481e-05
3.15479e-05
3.1548e-05
3.1548e-05
3.1548e-05
3.08719e-05
3.19594e-05
3.15176e-05
3.1449e-05
3.08717e-05
3.19577e-05
3.15178e-05
8.46952e-05
8.46935e-05
3.08721e-05
3.15176e-05
3.19594e-05
3.1449e-05
3.08718e-05
3.15178e-05
3.19579e-05
3.36155e-05
3.36157e-05
3.13007e-05
3.36148e-05
3.36149e-05
3.2233e-05
6.2838e-05
3.2234e-05
6.2836e-05
8.46963e-05
8.46951e-05
3.22336e-05
6.28423e-05
3.22345e-05
6.28404e-05
3.15481e-05
3.15481e-05
3.15481e-05
3.15479e-05
3.1548e-05
3.1548e-05
3.1548e-05
3.08719e-05
3.19594e-05
3.15176e-05
3.1449e-05
3.08717e-05
3.19577e-05
3.15178e-05
8.46952e-05
8.46935e-05
3.08721e-05
3.15176e-05
3.19594e-05
3.1449e-05
3.08718e-05
3.15178e-05
3.19579e-05
3.36155e-05
3.36156e-05
3.13007e-05
3.36148e-05
3.36149e-05
3.2233e-05
6.2838e-05
3.2234e-05
6.2836e-05
8.46963e-05
8.46951e-05
3.22336e-05
6.28423e-05
3.22345e-05
6.28404e-05
3.15481e-05
3.15481e-05
3.15481e-05
3.15479e-05
3.1548e-05
3.1548e-05
3.1548e-05
3.08719e-05
3.19594e-05
3.15176e-05
3.1449e-05
3.08717e-05
3.19577e-05
3.15178e-05
8.46952e-05
8.46935e-05
3.08721e-05
3.15176e-05
3.19594e-05
3.1449e-05
3.08718e-05
3.15178e-05
3.19579e-05
3.36155e-05
3.36156e-05
3.13007e-05
3.36148e-05
3.36149e-05
3.2233e-05
6.2838e-05
3.2234e-05
6.2836e-05
8.46963e-05
8.46951e-05
3.22336e-05
6.28423e-05
3.22345e-05
6.28404e-05
3.15481e-05
3.15481e-05
3.15481e-05
3.15479e-05
3.1548e-05
3.1548e-05
3.1548e-05
3.08719e-05
3.19594e-05
3.15176e-05
3.1449e-05
3.08717e-05
3.19577e-05
3.15178e-05
8.46952e-05
8.46935e-05
3.08721e-05
3.15176e-05
3.19594e-05
3.1449e-05
3.08718e-05
3.15178e-05
3.19579e-05
3.36155e-05
3.36157e-05
3.13007e-05
3.36148e-05
3.36149e-05
3.2233e-05
6.2838e-05
3.2234e-05
6.2836e-05
8.46963e-05
8.46952e-05
3.22336e-05
6.28423e-05
3.22345e-05
6.28404e-05
3.15481e-05
3.15481e-05
3.15481e-05
3.15479e-05
3.1548e-05
3.1548e-05
3.1548e-05
3.08719e-05
3.19594e-05
3.15176e-05
3.1449e-05
3.08717e-05
3.19577e-05
3.15178e-05
8.46952e-05
8.46935e-05
3.08721e-05
3.15176e-05
3.19594e-05
3.1449e-05
3.08718e-05
3.15178e-05
3.1958e-05
3.36155e-05
3.36157e-05
3.13007e-05
3.36148e-05
3.36149e-05
3.2233e-05
6.28384e-05
3.2234e-05
6.28367e-05
8.46968e-05
8.46956e-05
3.22336e-05
6.2842e-05
3.22345e-05
6.28396e-05
3.15481e-05
3.15481e-05
3.15481e-05
3.15479e-05
3.1548e-05
3.1548e-05
3.1548e-05
3.08719e-05
3.19594e-05
3.15176e-05
3.1449e-05
3.08717e-05
3.19577e-05
3.15178e-05
8.46952e-05
8.46935e-05
3.08721e-05
3.15176e-05
3.19595e-05
3.1449e-05
3.08718e-05
3.15178e-05
3.1958e-05
3.36155e-05
3.36157e-05
3.13007e-05
3.36148e-05
3.36149e-05
3.2233e-05
6.28387e-05
3.2234e-05
6.2837e-05
8.46967e-05
8.46958e-05
3.22336e-05
6.28414e-05
3.22345e-05
6.28394e-05
3.15481e-05
3.15481e-05
3.15481e-05
3.15479e-05
3.1548e-05
3.1548e-05
3.1548e-05
3.08719e-05
3.19594e-05
3.15176e-05
3.1449e-05
3.08717e-05
3.19577e-05
3.15178e-05
8.46952e-05
8.46935e-05
3.0872e-05
3.15176e-05
3.19595e-05
3.1449e-05
3.08718e-05
3.15178e-05
3.1958e-05
3.36155e-05
3.36157e-05
3.13007e-05
3.36148e-05
3.36149e-05
3.22329e-05
6.28389e-05
3.2234e-05
6.28371e-05
8.4697e-05
8.46958e-05
3.22336e-05
6.28412e-05
3.22345e-05
6.28394e-05
3.15481e-05
3.15481e-05
3.15481e-05
3.15479e-05
3.1548e-05
3.1548e-05
3.1548e-05
3.08719e-05
3.19594e-05
3.15176e-05
3.1449e-05
3.08717e-05
3.19577e-05
3.15178e-05
8.46952e-05
8.46935e-05
3.0872e-05
3.15176e-05
3.19595e-05
3.1449e-05
3.08718e-05
3.15178e-05
3.1958e-05
3.36155e-05
3.36157e-05
3.13007e-05
3.36148e-05
3.36149e-05
3.2233e-05
6.28389e-05
3.2234e-05
6.28371e-05
8.46969e-05
8.46958e-05
3.22336e-05
6.28414e-05
3.22345e-05
6.28396e-05
3.15481e-05
3.15481e-05
3.15481e-05
3.15479e-05
3.1548e-05
3.1548e-05
3.1548e-05
3.08719e-05
3.19594e-05
3.15176e-05
3.1449e-05
3.08717e-05
3.19577e-05
3.15178e-05
8.46952e-05
8.46935e-05
3.08721e-05
3.15176e-05
3.19595e-05
3.1449e-05
3.08718e-05
3.15178e-05
3.1958e-05
3.36155e-05
3.36157e-05
3.13007e-05
3.36148e-05
3.36149e-05
3.2233e-05
6.28389e-05
3.2234e-05
6.28371e-05
8.4697e-05
8.46958e-05
3.22336e-05
6.28415e-05
3.22345e-05
6.28396e-05
3.15481e-05
3.15481e-05
3.15481e-05
3.15479e-05
3.1548e-05
3.1548e-05
3.1548e-05
3.08719e-05
3.19594e-05
3.15176e-05
3.1449e-05
3.08717e-05
3.19577e-05
3.15178e-05
8.46952e-05
8.46935e-05
3.0872e-05
3.15176e-05
3.19595e-05
3.1449e-05
3.08718e-05
3.15178e-05
3.1958e-05
3.36155e-05
3.36157e-05
3.13007e-05
3.36148e-05
3.36149e-05
3.2233e-05
6.28389e-05
3.2234e-05
6.28371e-05
8.4697e-05
8.46958e-05
3.22336e-05
6.28414e-05
3.22345e-05
6.28396e-05
3.15481e-05
3.15481e-05
3.15481e-05
3.15479e-05
3.1548e-05
3.1548e-05
3.1548e-05
3.08719e-05
3.19594e-05
3.15176e-05
3.1449e-05
3.08717e-05
3.19577e-05
3.15178e-05
8.46952e-05
8.46935e-05
3.0872e-05
3.15176e-05
3.19595e-05
3.1449e-05
3.08718e-05
3.15178e-05
3.1958e-05
3.36155e-05
3.36157e-05
3.13007e-05
3.36148e-05
3.36149e-05
3.2233e-05
6.28389e-05
3.2234e-05
6.28371e-05
8.4697e-05
8.46958e-05
3.22336e-05
6.28414e-05
3.22345e-05
6.28396e-05
3.15481e-05
3.15481e-05
3.15481e-05
3.1548e-05
3.1548e-05
3.1548e-05
3.1548e-05
3.08719e-05
3.19594e-05
3.15176e-05
3.1449e-05
3.08717e-05
3.19577e-05
3.15178e-05
8.46952e-05
8.46935e-05
3.0872e-05
3.15176e-05
3.19595e-05
3.1449e-05
3.08718e-05
3.15178e-05
3.1958e-05
3.36155e-05
3.36157e-05
3.13007e-05
3.36148e-05
3.36149e-05
6.28389e-05
3.2234e-05
8.4697e-05
6.28415e-05
3.22345e-05
3.15482e-05
3.15482e-05
3.15482e-05
3.19594e-05
3.15178e-05
3.08717e-05
8.46952e-05
3.15178e-05
3.19595e-05
3.08718e-05
3.36155e-05
3.36156e-05
8.46731e-05
8.46859e-05
8.46781e-05
8.4689e-05
3.13104e-05
3.362e-05
3.36229e-05
3.36181e-05
3.36206e-05
3.22429e-05
6.28078e-05
6.28106e-05
3.22426e-05
3.2243e-05
6.28112e-05
6.28134e-05
3.22427e-05
3.08846e-05
3.14593e-05
3.19667e-05
3.15278e-05
3.19687e-05
3.15278e-05
3.08844e-05
3.08847e-05
3.14594e-05
3.19677e-05
3.15278e-05
3.19695e-05
3.15278e-05
3.08845e-05
8.46804e-05
3.3621e-05
3.36174e-05
8.46767e-05
3.22433e-05
6.28123e-05
6.2815e-05
3.22431e-05
3.08849e-05
3.14594e-05
3.19675e-05
3.15278e-05
3.19693e-05
3.15278e-05
3.08847e-05
3.22429e-05
6.28111e-05
6.28139e-05
3.22427e-05
3.08847e-05
3.14593e-05
3.15278e-05
3.19673e-05
3.15278e-05
3.19691e-05
3.08845e-05
3.19678e-05
3.15278e-05
3.15278e-05
3.08845e-05
6.2809e-05
3.22425e-05
3.14594e-05
3.15278e-05
3.19671e-05
3.15278e-05
3.08846e-05
6.28096e-05
3.22424e-05
8.46746e-05
8.46875e-05
3.13103e-05
3.36205e-05
3.36226e-05
3.36185e-05
3.36204e-05
8.46774e-05
8.46885e-05
3.08846e-05
3.14594e-05
3.15278e-05
3.19672e-05
3.15278e-05
3.19689e-05
3.08841e-05
3.08848e-05
3.14594e-05
3.15278e-05
3.19675e-05
3.15278e-05
3.19693e-05
3.08845e-05
3.2243e-05
6.2812e-05
6.28144e-05
3.22428e-05
3.22431e-05
6.28128e-05
6.28153e-05
3.22429e-05
3.13104e-05
3.36218e-05
3.36229e-05
3.36207e-05
8.46787e-05
8.46783e-05
8.46895e-05
8.46732e-05
8.46668e-05
8.46777e-05
8.4672e-05
3.36227e-05
3.36247e-05
3.13118e-05
3.36238e-05
3.36263e-05
8.46638e-05
8.46674e-05
8.4669e-05
8.4672e-05
3.13109e-05
3.36265e-05
3.36289e-05
3.36261e-05
3.36279e-05
3.2244e-05
6.28115e-05
3.22445e-05
6.28098e-05
3.08849e-05
3.1969e-05
3.1528e-05
3.14595e-05
3.0885e-05
3.19678e-05
3.1528e-05
3.08849e-05
3.19698e-05
3.1528e-05
3.14596e-05
3.0885e-05
3.19687e-05
3.1528e-05
3.22455e-05
6.28056e-05
6.28069e-05
3.22447e-05
3.22456e-05
6.28088e-05
6.28101e-05
3.22448e-05
3.08854e-05
3.14595e-05
3.19689e-05
3.15279e-05
3.19702e-05
3.15279e-05
3.0885e-05
3.08855e-05
3.14596e-05
3.19698e-05
3.15279e-05
3.19709e-05
3.15279e-05
3.08853e-05
3.36232e-05
3.36204e-05
3.13123e-05
3.36252e-05
3.36219e-05
8.46767e-05
8.46688e-05
8.46678e-05
8.46722e-05
3.13114e-05
3.36285e-05
3.36252e-05
3.36271e-05
3.36244e-05
8.46637e-05
8.46692e-05
3.08851e-05
3.19696e-05
3.1528e-05
3.14596e-05
3.08852e-05
3.19685e-05
3.1528e-05
3.2244e-05
6.28116e-05
3.22443e-05
6.28098e-05
3.08849e-05
3.1528e-05
3.19695e-05
3.14595e-05
3.0885e-05
3.1528e-05
3.19682e-05
3.22458e-05
6.281e-05
6.28113e-05
3.22452e-05
3.08857e-05
3.14595e-05
3.19696e-05
3.15279e-05
3.19707e-05
3.1528e-05
3.08852e-05
3.22455e-05
6.28089e-05
6.28103e-05
3.22449e-05
3.08855e-05
3.14594e-05
3.15279e-05
3.19692e-05
3.15279e-05
3.19705e-05
3.08853e-05
3.2244e-05
6.281e-05
3.22443e-05
6.28082e-05
3.08851e-05
3.15281e-05
3.19694e-05
3.14596e-05
3.08851e-05
3.15281e-05
3.19684e-05
3.22439e-05
6.28099e-05
3.22443e-05
6.28086e-05
3.08854e-05
3.14599e-05
3.19694e-05
3.15279e-05
3.19706e-05
3.1528e-05
3.08851e-05
3.22457e-05
6.2807e-05
6.28087e-05
3.2245e-05
3.08856e-05
3.14596e-05
3.15279e-05
3.19694e-05
3.1528e-05
3.19707e-05
3.08854e-05
3.22456e-05
6.2808e-05
6.2809e-05
3.22449e-05
3.3623e-05
3.36245e-05
3.13117e-05
3.36242e-05
3.36261e-05
8.4677e-05
8.46714e-05
8.4665e-05
8.46688e-05
3.13107e-05
3.36268e-05
3.36286e-05
3.36262e-05
3.36277e-05
8.46683e-05
8.46714e-05
3.08849e-05
3.1528e-05
3.19696e-05
3.14596e-05
3.0885e-05
3.1528e-05
3.19685e-05
3.2244e-05
6.28122e-05
3.22443e-05
6.28106e-05
3.22442e-05
6.28131e-05
3.22445e-05
6.28114e-05
3.08851e-05
3.14592e-05
3.15277e-05
3.19692e-05
3.15277e-05
3.19704e-05
3.08848e-05
3.08855e-05
3.14596e-05
3.15279e-05
3.19696e-05
3.15279e-05
3.19708e-05
3.08854e-05
3.22455e-05
6.28096e-05
6.28108e-05
3.22449e-05
3.22456e-05
6.28104e-05
6.28117e-05
3.22451e-05
8.46781e-05
8.4672e-05
8.46779e-05
8.46723e-05
3.13109e-05
3.36287e-05
3.3629e-05
3.36276e-05
3.36281e-05
8.46683e-05
8.4672e-05
8.46692e-05
8.46723e-05
8.46647e-05
8.46628e-05
8.46694e-05
8.46678e-05
3.36285e-05
3.36304e-05
3.13117e-05
3.36281e-05
3.36303e-05
8.46692e-05
8.46648e-05
8.46737e-05
8.4669e-05
3.13107e-05
3.36271e-05
3.36292e-05
3.36292e-05
3.36311e-05
3.22451e-05
6.28092e-05
3.22464e-05
6.28083e-05
3.0885e-05
3.19712e-05
3.15278e-05
3.14593e-05
3.08852e-05
3.19695e-05
3.15277e-05
3.08847e-05
3.19719e-05
3.15278e-05
3.14594e-05
3.08852e-05
3.19704e-05
3.15277e-05
3.22462e-05
6.28092e-05
6.28064e-05
3.22439e-05
3.22463e-05
6.28097e-05
6.28087e-05
3.2244e-05
3.08848e-05
3.1459e-05
3.19687e-05
3.15269e-05
3.19715e-05
3.15274e-05
3.08839e-05
3.08846e-05
3.14592e-05
3.19698e-05
3.15269e-05
3.19724e-05
3.15275e-05
3.08839e-05
3.363e-05
3.36273e-05
3.1312e-05
3.36305e-05
3.36274e-05
8.46645e-05
8.46617e-05
8.46673e-05
8.46661e-05
3.1311e-05
3.363e-05
3.36277e-05
3.36316e-05
3.3629e-05
8.46635e-05
8.4663e-05
3.08852e-05
3.19717e-05
3.15279e-05
3.14594e-05
3.08855e-05
3.19701e-05
3.15277e-05
3.22452e-05
6.28095e-05
3.22462e-05
6.28087e-05
3.08847e-05
3.15278e-05
3.19715e-05
3.14592e-05
3.08852e-05
3.15277e-05
3.19697e-05
3.22466e-05
6.28136e-05
6.28107e-05
3.22444e-05
3.0885e-05
3.14591e-05
3.19692e-05
3.15269e-05
3.1972e-05
3.15275e-05
3.08841e-05
3.22462e-05
6.28118e-05
6.28096e-05
3.2244e-05
3.08846e-05
3.1459e-05
3.15269e-05
3.19688e-05
3.15274e-05
3.19718e-05
3.08839e-05
3.22455e-05
6.28075e-05
3.22466e-05
6.28064e-05
3.08849e-05
3.15279e-05
3.19715e-05
3.14594e-05
3.08854e-05
3.15278e-05
3.197e-05
3.22454e-05
6.28085e-05
3.22465e-05
6.2808e-05
3.08849e-05
3.14595e-05
3.19698e-05
3.15271e-05
3.19722e-05
3.15275e-05
3.08841e-05
3.22468e-05
6.28068e-05
6.2807e-05
3.22446e-05
3.08848e-05
3.14591e-05
3.1527e-05
3.19693e-05
3.15275e-05
3.19719e-05
3.08841e-05
3.22466e-05
6.28098e-05
6.28087e-05
3.22445e-05
3.36286e-05
3.36301e-05
3.13114e-05
3.36282e-05
3.36301e-05
8.46687e-05
8.4667e-05
8.46713e-05
8.46665e-05
3.13104e-05
3.36271e-05
3.3629e-05
3.36291e-05
3.36309e-05
8.46731e-05
8.46683e-05
3.08851e-05
3.15278e-05
3.19717e-05
3.14594e-05
3.08858e-05
3.15277e-05
3.19701e-05
3.22452e-05
6.281e-05
3.22463e-05
6.28093e-05
3.22454e-05
6.28109e-05
3.22465e-05
6.28101e-05
3.0885e-05
3.14589e-05
3.15268e-05
3.19688e-05
3.15273e-05
3.19716e-05
3.0884e-05
3.08849e-05
3.14591e-05
3.15269e-05
3.19691e-05
3.15274e-05
3.1972e-05
3.08841e-05
3.22463e-05
6.28122e-05
6.281e-05
3.22441e-05
3.22464e-05
6.2813e-05
6.28108e-05
3.22442e-05
8.46687e-05
8.46664e-05
8.46696e-05
8.46679e-05
3.13108e-05
3.36298e-05
3.36292e-05
3.36314e-05
3.36312e-05
8.46695e-05
8.46674e-05
8.46739e-05
8.46692e-05
8.46779e-05
8.46912e-05
8.46823e-05
8.46962e-05
3.36281e-05
3.36297e-05
3.13049e-05
3.36224e-05
3.36243e-05
8.46925e-05
8.46943e-05
8.46972e-05
8.46984e-05
3.13017e-05
3.3613e-05
3.36156e-05
3.3622e-05
3.36227e-05
3.22397e-05
6.28131e-05
3.22449e-05
6.28307e-05
3.08764e-05
3.19702e-05
3.15253e-05
3.14537e-05
3.08833e-05
3.19644e-05
3.15224e-05
3.08764e-05
3.19713e-05
3.15254e-05
3.14545e-05
3.08833e-05
3.19661e-05
3.15225e-05
3.22394e-05
6.28371e-05
6.28381e-05
3.22337e-05
3.22394e-05
6.28401e-05
6.28395e-05
3.22338e-05
3.08742e-05
3.14512e-05
3.19589e-05
3.15185e-05
3.1965e-05
3.152e-05
3.0872e-05
3.08743e-05
3.14517e-05
3.19604e-05
3.15185e-05
3.19665e-05
3.15201e-05
3.08721e-05
3.36306e-05
3.36287e-05
3.13077e-05
3.36276e-05
3.36254e-05
8.46673e-05
8.46805e-05
8.46956e-05
8.46946e-05
3.13042e-05
3.36172e-05
3.36163e-05
3.36271e-05
3.3626e-05
8.46925e-05
8.46899e-05
3.08764e-05
3.19706e-05
3.15253e-05
3.14538e-05
3.08834e-05
3.19646e-05
3.15224e-05
3.22397e-05
6.28175e-05
3.22448e-05
6.28347e-05
3.08763e-05
3.15253e-05
3.19704e-05
3.14536e-05
3.08833e-05
3.15224e-05
3.19645e-05
3.22393e-05
6.28414e-05
6.28423e-05
3.22343e-05
3.08743e-05
3.14512e-05
3.19596e-05
3.15185e-05
3.19649e-05
3.152e-05
3.08723e-05
3.22389e-05
6.28404e-05
6.28413e-05
3.22339e-05
3.08742e-05
3.14511e-05
3.15185e-05
3.19592e-05
3.15199e-05
3.19651e-05
3.08721e-05
3.22415e-05
6.28083e-05
3.22456e-05
6.28187e-05
3.0879e-05
3.15256e-05
3.19709e-05
3.14541e-05
3.08838e-05
3.15228e-05
3.19658e-05
3.22414e-05
6.28122e-05
3.22455e-05
6.28281e-05
3.08764e-05
3.14528e-05
3.19608e-05
3.15188e-05
3.19677e-05
3.15205e-05
3.08721e-05
3.22415e-05
6.28387e-05
6.28295e-05
3.22344e-05
3.08762e-05
3.14514e-05
3.15186e-05
3.19598e-05
3.15203e-05
3.19663e-05
3.08722e-05
3.22414e-05
6.28404e-05
6.28381e-05
3.22343e-05
3.36279e-05
3.36295e-05
3.13048e-05
3.36225e-05
3.36239e-05
8.46814e-05
8.46954e-05
8.46943e-05
8.46962e-05
3.13016e-05
3.3613e-05
3.36152e-05
3.36217e-05
3.36224e-05
8.46963e-05
8.46975e-05
3.08764e-05
3.15253e-05
3.19705e-05
3.14538e-05
3.08834e-05
3.15224e-05
3.19645e-05
3.22398e-05
6.28176e-05
3.22449e-05
6.28356e-05
3.22398e-05
6.28182e-05
3.2245e-05
6.28361e-05
3.08743e-05
3.14512e-05
3.15185e-05
3.19591e-05
3.152e-05
3.19644e-05
3.0872e-05
3.08743e-05
3.14513e-05
3.15185e-05
3.19595e-05
3.152e-05
3.19649e-05
3.08722e-05
3.2239e-05
6.28407e-05
6.28416e-05
3.2234e-05
3.22391e-05
6.28417e-05
6.28424e-05
3.22341e-05
8.46747e-05
8.46919e-05
8.46821e-05
8.46963e-05
3.13022e-05
3.36161e-05
3.36155e-05
3.3626e-05
3.36228e-05
8.46967e-05
8.46972e-05
8.46972e-05
8.46984e-05
8.46937e-05
8.4692e-05
8.46978e-05
8.46967e-05
3.36137e-05
3.36163e-05
3.13006e-05
3.36116e-05
3.3615e-05
8.46918e-05
8.46933e-05
8.46965e-05
8.46974e-05
3.12997e-05
3.36118e-05
3.3615e-05
3.36129e-05
3.36159e-05
3.22331e-05
6.28405e-05
3.22349e-05
6.28395e-05
3.0872e-05
3.19605e-05
3.1518e-05
3.1449e-05
3.08723e-05
3.19577e-05
3.15178e-05
3.08721e-05
3.19617e-05
3.1518e-05
3.1449e-05
3.08724e-05
3.19588e-05
3.15178e-05
3.22344e-05
6.28361e-05
6.2837e-05
3.2233e-05
3.22345e-05
6.28392e-05
6.28399e-05
3.22331e-05
3.08724e-05
3.14488e-05
3.19575e-05
3.15176e-05
3.19597e-05
3.15176e-05
3.0872e-05
3.08725e-05
3.14488e-05
3.19585e-05
3.15177e-05
3.19606e-05
3.15177e-05
3.08721e-05
3.36168e-05
3.36163e-05
3.13005e-05
3.36146e-05
3.36115e-05
8.46937e-05
8.46918e-05
8.4695e-05
8.46961e-05
3.12996e-05
3.36145e-05
3.36114e-05
3.36155e-05
3.36126e-05
8.46916e-05
8.46931e-05
3.08723e-05
3.19611e-05
3.1518e-05
3.14491e-05
3.08726e-05
3.19585e-05
3.15178e-05
3.22332e-05
6.2841e-05
3.22349e-05
6.28397e-05
3.08721e-05
3.1518e-05
3.19608e-05
3.14489e-05
3.08725e-05
3.15178e-05
3.1958e-05
3.22349e-05
6.28405e-05
6.28413e-05
3.22336e-05
3.08726e-05
3.14489e-05
3.19583e-05
3.15177e-05
3.19604e-05
3.15177e-05
3.08723e-05
3.22345e-05
6.28394e-05
6.28403e-05
3.22332e-05
3.08725e-05
3.14487e-05
3.15176e-05
3.19578e-05
3.15176e-05
3.196e-05
3.08721e-05
3.22331e-05
6.28394e-05
3.22352e-05
6.28382e-05
3.0872e-05
3.1518e-05
3.19611e-05
3.1449e-05
3.08723e-05
3.15178e-05
3.19582e-05
3.2233e-05
6.28408e-05
3.22351e-05
6.28399e-05
3.08723e-05
3.1449e-05
3.19578e-05
3.15177e-05
3.19602e-05
3.15178e-05
3.08718e-05
3.22345e-05
6.28379e-05
6.28388e-05
3.2233e-05
3.08724e-05
3.14488e-05
3.15177e-05
3.19579e-05
3.15177e-05
3.196e-05
3.0872e-05
3.22344e-05
6.28397e-05
6.28404e-05
3.22329e-05
3.36137e-05
3.36158e-05
3.13005e-05
3.36122e-05
3.36147e-05
8.4697e-05
8.46959e-05
8.46934e-05
8.4695e-05
3.12996e-05
3.36123e-05
3.36146e-05
3.36134e-05
3.36156e-05
8.46957e-05
8.46967e-05
3.08722e-05
3.1518e-05
3.1961e-05
3.1449e-05
3.08725e-05
3.15178e-05
3.19585e-05
3.22333e-05
6.28411e-05
3.22349e-05
6.28403e-05
3.22334e-05
6.2842e-05
3.2235e-05
6.28412e-05
3.08725e-05
3.1449e-05
3.15177e-05
3.1958e-05
3.15178e-05
3.196e-05
3.08719e-05
3.08726e-05
3.14489e-05
3.15177e-05
3.19583e-05
3.15177e-05
3.19604e-05
3.08722e-05
3.22345e-05
6.284e-05
6.28407e-05
3.22332e-05
3.22346e-05
6.28409e-05
6.28416e-05
3.22334e-05
8.46974e-05
8.46962e-05
8.4698e-05
8.46968e-05
3.12998e-05
3.36148e-05
3.36149e-05
3.36158e-05
3.36159e-05
8.46959e-05
8.4697e-05
8.46966e-05
8.46976e-05
8.46932e-05
8.46918e-05
8.46973e-05
8.46965e-05
3.36131e-05
3.36159e-05
3.13006e-05
3.36118e-05
3.36149e-05
8.46918e-05
8.46932e-05
8.46965e-05
8.46973e-05
3.12997e-05
3.36118e-05
3.36149e-05
3.3613e-05
3.36159e-05
3.22331e-05
6.28397e-05
3.22345e-05
6.28391e-05
3.0872e-05
3.19596e-05
3.15178e-05
3.1449e-05
3.08723e-05
3.19575e-05
3.15178e-05
3.08721e-05
3.19605e-05
3.15178e-05
3.1449e-05
3.08724e-05
3.19585e-05
3.15178e-05
3.22344e-05
6.2836e-05
6.28367e-05
3.2233e-05
3.22345e-05
6.28391e-05
6.28396e-05
3.22331e-05
3.08724e-05
3.14489e-05
3.19575e-05
3.15177e-05
3.19596e-05
3.15177e-05
3.0872e-05
3.08725e-05
3.14489e-05
3.19585e-05
3.15177e-05
3.19605e-05
3.15177e-05
3.08721e-05
3.36155e-05
3.36126e-05
3.13006e-05
3.36146e-05
3.36114e-05
8.46929e-05
8.46915e-05
8.4695e-05
8.4696e-05
3.12997e-05
3.36146e-05
3.36115e-05
3.36155e-05
3.36126e-05
8.46915e-05
8.46929e-05
3.08723e-05
3.19603e-05
3.15178e-05
3.1449e-05
3.08726e-05
3.19583e-05
3.15178e-05
3.22332e-05
6.28401e-05
3.22344e-05
6.28394e-05
3.08721e-05
3.15178e-05
3.19599e-05
3.14489e-05
3.08724e-05
3.15178e-05
3.19578e-05
3.22349e-05
6.28404e-05
6.28411e-05
3.22336e-05
3.08726e-05
3.14489e-05
3.19583e-05
3.15177e-05
3.19603e-05
3.15177e-05
3.08723e-05
3.22344e-05
6.28393e-05
6.284e-05
3.22332e-05
3.08725e-05
3.14488e-05
3.15176e-05
3.19578e-05
3.15177e-05
3.19599e-05
3.08721e-05
3.2233e-05
6.28385e-05
3.22344e-05
6.28378e-05
3.0872e-05
3.15178e-05
3.19598e-05
3.1449e-05
3.08723e-05
3.15178e-05
3.19579e-05
3.22329e-05
6.28402e-05
3.22343e-05
6.28396e-05
3.08723e-05
3.1449e-05
3.19577e-05
3.15176e-05
3.19598e-05
3.15177e-05
3.08718e-05
3.22344e-05
6.28377e-05
6.28384e-05
3.2233e-05
3.08724e-05
3.14489e-05
3.15177e-05
3.19579e-05
3.15177e-05
3.19598e-05
3.0872e-05
3.22343e-05
6.28396e-05
6.28401e-05
3.22329e-05
3.36134e-05
3.36156e-05
3.13006e-05
3.36123e-05
3.36146e-05
8.46966e-05
8.46957e-05
8.46934e-05
8.46948e-05
3.12996e-05
3.36123e-05
3.36146e-05
3.36134e-05
3.36156e-05
8.46956e-05
8.46965e-05
3.08722e-05
3.15178e-05
3.19603e-05
3.1449e-05
3.08725e-05
3.15178e-05
3.19583e-05
3.22332e-05
6.28406e-05
3.22345e-05
6.284e-05
3.22334e-05
6.28415e-05
3.22346e-05
6.28409e-05
3.08725e-05
3.1449e-05
3.15176e-05
3.19579e-05
3.15177e-05
3.19599e-05
3.08719e-05
3.08726e-05
3.1449e-05
3.15177e-05
3.19583e-05
3.15177e-05
3.19603e-05
3.08722e-05
3.22345e-05
6.28399e-05
6.28405e-05
3.22332e-05
3.22346e-05
6.28408e-05
6.28414e-05
3.22334e-05
8.46968e-05
8.46959e-05
8.46975e-05
8.46966e-05
3.12997e-05
3.36148e-05
3.36149e-05
3.36157e-05
3.36159e-05
8.46958e-05
8.46967e-05
8.46965e-05
8.46975e-05
8.46932e-05
8.46918e-05
8.46972e-05
8.46965e-05
3.36131e-05
3.36159e-05
3.13007e-05
3.36118e-05
3.36149e-05
8.46918e-05
8.46932e-05
8.46964e-05
8.46972e-05
3.12997e-05
3.36119e-05
3.36149e-05
3.3613e-05
3.36159e-05
3.22331e-05
6.28396e-05
3.22345e-05
6.28391e-05
3.0872e-05
3.19596e-05
3.15178e-05
3.14489e-05
3.08723e-05
3.19575e-05
3.15178e-05
3.08721e-05
3.19605e-05
3.15178e-05
3.1449e-05
3.08725e-05
3.19585e-05
3.15178e-05
3.22344e-05
6.2836e-05
6.28367e-05
3.2233e-05
3.22345e-05
6.28391e-05
6.28396e-05
3.22331e-05
3.08723e-05
3.14489e-05
3.19575e-05
3.15177e-05
3.19596e-05
3.15177e-05
3.0872e-05
3.08724e-05
3.14489e-05
3.19585e-05
3.15177e-05
3.19605e-05
3.15177e-05
3.08721e-05
3.36156e-05
3.36127e-05
3.13007e-05
3.36146e-05
3.36114e-05
8.46929e-05
8.46915e-05
8.4695e-05
8.4696e-05
3.12997e-05
3.36146e-05
3.36114e-05
3.36156e-05
3.36126e-05
8.46915e-05
8.46929e-05
3.08723e-05
3.19603e-05
3.15178e-05
3.1449e-05
3.08726e-05
3.19583e-05
3.15178e-05
3.22332e-05
6.284e-05
3.22344e-05
6.28393e-05
3.08721e-05
3.15178e-05
3.19599e-05
3.14489e-05
3.08725e-05
3.15178e-05
3.19578e-05
3.22349e-05
6.28404e-05
6.2841e-05
3.22336e-05
3.08726e-05
3.1449e-05
3.19583e-05
3.15177e-05
3.19603e-05
3.15177e-05
3.08723e-05
3.22344e-05
6.28393e-05
6.284e-05
3.22332e-05
3.08724e-05
3.14488e-05
3.15176e-05
3.19578e-05
3.15177e-05
3.19599e-05
3.08721e-05
3.2233e-05
6.28384e-05
3.22344e-05
6.28377e-05
3.0872e-05
3.15178e-05
3.19598e-05
3.1449e-05
3.08723e-05
3.15178e-05
3.19579e-05
3.22329e-05
6.28401e-05
3.22343e-05
6.28396e-05
3.08723e-05
3.1449e-05
3.19577e-05
3.15177e-05
3.19598e-05
3.15177e-05
3.08718e-05
3.22344e-05
6.28377e-05
6.28384e-05
3.2233e-05
3.08723e-05
3.14489e-05
3.15177e-05
3.19579e-05
3.15177e-05
3.19598e-05
3.0872e-05
3.22343e-05
6.28396e-05