/*--------------------------------*- C++ -*----------------------------------*\
| =========                 |                                                 |
| \\      /  F ield         | OpenFOAM: The Open Source CFD Toolbox           |
|  \\    /   O peration     | Version:  2206                                  |
|   \\  /    A nd           | Website:  www.openfoam.com                      |
|    \\/     M anipulation  |                                                 |
\*---------------------------------------------------------------------------*/
FoamFile
{
    version     2.0;
    format      ascii;
    arch        "LSB;label=32;scalar=64";
    class       volScalarField;
    location    "0.5";
    object      p;
}
// * * * * * * * * * * * * * * * * * * * * * * * * * * * * * * * * * * * * * //

dimensions      [0 2 -2 0 0 0 0];

internalField   nonuniform List<scalar> 
28381
(
-0.00367363
-0.00426009
-0.00396876
-0.0039687
-0.00396877
-0.00426006
-0.00396879
-0.00390964
-0.00390959
-0.00388542
-0.00388546
-0.00382629
-0.00301952
-0.0030196
-0.00482769
-0.00482787
-0.00481416
-0.00481423
-0.00477623
-0.0047357
-0.00473568
-0.00479455
-0.00395564
-0.0047689
-0.00395563
-0.00476884
-0.00477618
-0.00473576
-0.00479457
-0.00395568
-0.00476889
-0.00477619
-0.00473573
-0.00395563
-0.00479459
-0.00476886
-0.00482783
-0.00481423
-0.00481424
-0.00482772
-0.00395572
-0.00479464
-0.00476893
-0.00477643
-0.00473577
-0.00303654
-0.00303663
-0.00303647
-0.00303653
-0.00300127
-0.00300139
-0.00469026
-0.00327059
-0.00291545
-0.00475501
-0.00308601
-0.00455012
-0.00484471
-0.00469038
-0.00327082
-0.00291545
-0.004755
-0.00308588
-0.00454984
-0.00484473
-0.00475681
-0.0029461
-0.00294612
-0.00302164
-0.00482067
-0.00482064
-0.00306028
-0.00306043
-0.00314501
-0.00460939
-0.00307858
-0.00490383
-0.00297453
-0.00332955
-0.0047495
-0.00314487
-0.0046091
-0.00307863
-0.0049039
-0.00297455
-0.00332982
-0.00474961
-0.00308067
-0.00487985
-0.00487986
-0.00300514
-0.00300518
-0.00481605
-0.00303857
-0.00309573
-0.00476659
-0.00483135
-0.00310664
-0.0030275
-0.00313341
-0.00484717
-0.00474703
-0.00484071
-0.00302105
-0.00312164
-0.00303857
-0.00476653
-0.00310662
-0.0048313
-0.00302751
-0.00313339
-0.00484715
-0.00474706
-0.00302103
-0.0031216
-0.00484072
-0.00303844
-0.00309558
-0.00476663
-0.00483139
-0.0031065
-0.00302733
-0.00313325
-0.0047471
-0.00484721
-0.00484076
-0.00312148
-0.00302092
-0.00303845
-0.0030956
-0.00476658
-0.00310651
-0.00483137
-0.00302739
-0.00313325
-0.0048472
-0.00474708
-0.00302095
-0.00312148
-0.00484077
-0.00306044
-0.00314487
-0.00460907
-0.00307865
-0.00490395
-0.0033299
-0.00297453
-0.00474966
-0.00314509
-0.00460941
-0.0030786
-0.00490395
-0.00297453
-0.00332958
-0.00474952
-0.0030807
-0.00487989
-0.00487992
-0.00300518
-0.00300516
-0.00481609
-0.00306029
-0.00303865
-0.00309578
-0.00476674
-0.00310671
-0.00483149
-0.00302756
-0.0031335
-0.00474715
-0.00484728
-0.00312171
-0.00302112
-0.00484085
-0.00471702
-0.00477218
-0.00304746
-0.00471696
-0.00297939
-0.00470736
-0.00476861
-0.00476868
-0.00468865
-0.0034238
-0.00342367
-0.00420082
-0.00309278
-0.00442683
-0.00442692
-0.00315188
-0.00373262
-0.00448607
-0.00448618
-0.00348284
-0.00348269
-0.00474783
-0.00315189
-0.0037327
-0.00448612
-0.00448613
-0.00348282
-0.00348284
-0.00474788
-0.00392308
-0.00392309
-0.00394218
-0.00392312
-0.00392317
-0.00394219
-0.00352134
-0.00447165
-0.00309563
-0.00478394
-0.00348921
-0.00310977
-0.00442818
-0.00354192
-0.00312377
-0.00477554
-0.00439896
-0.0031154
-0.00355528
-0.00440951
-0.00352144
-0.00478391
-0.00310988
-0.0044282
-0.00354191
-0.00312377
-0.00477553
-0.00439892
-0.00311545
-0.00355527
-0.00440959
-0.00352127
-0.00447176
-0.00309554
-0.00478394
-0.00348897
-0.00310971
-0.00442822
-0.00354184
-0.00312369
-0.00477555
-0.00439899
-0.0031153
-0.00355518
-0.00440955
-0.00352137
-0.00447173
-0.00309556
-0.00478392
-0.00310975
-0.00348906
-0.00442813
-0.00354187
-0.00312371
-0.00439894
-0.00477556
-0.00355519
-0.00311532
-0.00440951
-0.00352139
-0.00447174
-0.00309566
-0.00478403
-0.00442825
-0.00348925
-0.00310984
-0.00354208
-0.00312387
-0.00439898
-0.00477562
-0.00440955
-0.00355538
-0.0031155
-0.00343019
-0.00473534
-0.00441242
-0.00436895
-0.00343002
-0.00305065
-0.00473535
-0.00441252
-0.00346231
-0.00472471
-0.00367286
-0.00343695
-0.0033529
-0.00343626
-0.00343623
-0.00320034
-0.00311629
-0.00319963
-0.00319961
-0.00296368
-0.00287965
-0.00296293
-0.00296292
-0.002727
-0.0026429
-0.00272623
-0.00272621
-0.00249023
-0.0024062
-0.00248955
-0.00248953
-0.00225357
-0.00216955
-0.0022529
-0.00225289
-0.00201701
-0.00193293
-0.00201628
-0.00201624
-0.00178028
-0.00169619
-0.00177959
-0.00177955
-0.00154364
-0.00145951
-0.00154288
-0.00154286
-0.00130696
-0.00122291
-0.00130623
-0.00130622
-0.00107033
-0.000986221
-0.00106953
-0.00106952
-0.000833513
-0.000749526
-0.000832869
-0.000832827
-0.000596853
-0.000512915
-0.00059622
-0.000596193
-0.000360194
-0.000276187
-0.00035955
-0.000359561
-0.000123625
-3.95367e-05
-0.000122881
-0.000122884
0.000113047
0.000197077
0.000113751
0.000113754
0.000349737
-0.00343692
-0.00378651
-0.00367293
-0.00349539
-0.00349537
-0.00378655
-0.0032003
-0.00354983
-0.00343625
-0.00343626
-0.00325877
-0.00325879
-0.00320027
-0.00354996
-0.0034362
-0.00343625
-0.00325871
-0.00325878
-0.00343629
-0.00325879
-0.00325884
-0.00320035
-0.00354988
-0.00343623
-0.00325877
-0.00325879
-0.00354998
-0.00296366
-0.0033133
-0.00319962
-0.00319963
-0.00302214
-0.00302212
-0.00296364
-0.00331332
-0.00319957
-0.00319962
-0.00302209
-0.00302211
-0.00319968
-0.00302212
-0.00302214
-0.00296369
-0.00331329
-0.00319962
-0.0030221
-0.00302208
-0.00331329
-0.00272684
-0.00307664
-0.00296296
-0.00296293
-0.0027854
-0.0027854
-0.00272689
-0.00307662
-0.00296291
-0.00296293
-0.00278534
-0.00278538
-0.00296295
-0.0027854
-0.00278543
-0.00272691
-0.00307659
-0.00296289
-0.00278537
-0.00278537
-0.00307656
-0.00249012
-0.00283996
-0.00272622
-0.00272623
-0.00254871
-0.00254872
-0.00249018
-0.00284001
-0.00272616
-0.0027262
-0.00254865
-0.00254869
-0.00272627
-0.00254872
-0.00254877
-0.00249018
-0.00283996
-0.00272621
-0.00254869
-0.00254871
-0.00283998
-0.00225345
-0.00260324
-0.00248953
-0.00248955
-0.00231206
-0.00231206
-0.00225348
-0.00260329
-0.00248948
-0.00248952
-0.00231201
-0.00231205
-0.0024896
-0.00231205
-0.00231211
-0.00225349
-0.00260324
-0.00248955
-0.00231204
-0.00231207
-0.00260329
-0.00201689
-0.00236663
-0.00225291
-0.00225291
-0.00207542
-0.00207544
-0.00201691
-0.00236666
-0.00225285
-0.00225289
-0.00207536
-0.0020754
-0.00225296
-0.00207544
-0.00207547
-0.00201696
-0.00236658
-0.00225291
-0.00207541
-0.00207542
-0.0023666
-0.00178018
-0.00212992
-0.00201626
-0.00201628
-0.00183871
-0.00183875
-0.00178024
-0.00213
-0.00201619
-0.00201624
-0.00183865
-0.00183871
-0.00201629
-0.00183876
-0.00183878
-0.00178027
-0.00212991
-0.00201623
-0.00183872
-0.00183872
-0.00212994
-0.00154349
-0.00189314
-0.00177954
-0.00177958
-0.00160203
-0.00160206
-0.00154358
-0.00189323
-0.00177948
-0.00177954
-0.00160197
-0.00160203
-0.00177961
-0.00160206
-0.0016021
-0.00154359
-0.00189319
-0.00177955
-0.00160203
-0.00160205
-0.00189322
-0.00130689
-0.00165653
-0.00154286
-0.00154287
-0.00136538
-0.00136538
-0.00130691
-0.00165657
-0.0015428
-0.00154285
-0.00136532
-0.00136536
-0.00154294
-0.00136539
-0.00136546
-0.00130692
-0.00165654
-0.00154288
-0.00136537
-0.00136541
-0.00165657
-0.0010702
-0.00141992
-0.00130624
-0.00130622
-0.00112872
-0.00112871
-0.00107024
-0.00141992
-0.00130618
-0.00130621
-0.00112867
-0.00112871
-0.00130629
-0.0011287
-0.00112872
-0.00107025
-0.0014199
-0.00130623
-0.0011287
-0.00112867
-0.00141991
-0.000833446
-0.00118324
-0.00106953
-0.00106954
-0.00089205
-0.000892047
-0.000833485
-0.0011833
-0.00106948
-0.00106953
-0.000891988
-0.000892013
-0.00106955
-0.000892039
-0.000892076
-0.000833541
-0.00118322
-0.0010695
-0.000891999
-0.000892015
-0.00118326
-0.000596878
-0.0009466
-0.000832887
-0.000832883
-0.000655386
-0.000655384
-0.000596807
-0.000946648
-0.000832824
-0.000832844
-0.00065532
-0.000655344
-0.00083291
-0.000655377
-0.000655408
-0.000596831
-0.000946551
-0.000832852
-0.000655342
-0.00065535
-0.00094662
-0.000360074
-0.000709924
-0.000596232
-0.000596232
-0.000418704
-0.000418726
-0.000360157
-0.000709986
-0.000596163
-0.000596197
-0.000418646
-0.000418723
-0.00059623
-0.000418724
-0.000418735
-0.000360199
-0.00070994
-0.000596178
-0.000418723
-0.000418685
-0.000709924
-0.000123466
-0.000473233
-0.00035952
-0.000359551
-0.000182044
-0.000182038
-0.000123539
-0.000473244
-0.000359466
-0.000359559
-0.000181999
-0.000182061
-0.000359578
-0.000182043
-0.00018211
-0.000123572
-0.000473272
-0.000359529
-0.000182056
-0.000182061
-0.000473261
0.00011311
-0.000236543
-0.000122889
-0.000122882
5.46071e-05
5.45821e-05
0.000113117
-0.000236572
-0.00012285
-0.000122892
5.46117e-05
5.45931e-05
-0.00012294
5.45914e-05
5.45692e-05
0.000113082
-0.000236547
-0.000122891
5.45955e-05
5.46128e-05
-0.000236562
0.000113745
0.00034977
0.000113784
0.000113754
0.00011374
0.000349699
0.000113787
-0.00276473
-0.00447281
-0.00441363
-0.00365975
-0.00279981
-0.0036137
-0.00443936
-0.00282803
-0.00360063
-0.00278289
-0.00278295
-0.0039049
-0.00445896
-0.00445904
-0.00414366
-0.00256336
-0.00418433
-0.0026011
-0.00252826
-0.00423601
-0.00414369
-0.00256321
-0.00418421
-0.00260098
-0.00335294
-0.00335291
-0.00335296
-0.00317543
-0.00317547
-0.00317548
-0.00317553
-0.00417698
-0.00256332
-0.00342317
-0.00337709
-0.00420267
-0.00336401
-0.0025915
-0.00252817
-0.00423607
-0.00417696
-0.00342312
-0.00256326
-0.00337708
-0.00259147
-0.00336399
-0.00420269
-0.00254629
-0.0025464
-0.00366827
-0.0042224
-0.00422233
-0.00390704
-0.00232668
-0.00236447
-0.00394775
-0.00229158
-0.00399917
-0.00390709
-0.00232656
-0.00236437
-0.0039477
-0.00311632
-0.00311633
-0.00311636
-0.00293885
-0.00293882
-0.00293882
-0.0029388
-0.00394041
-0.00232668
-0.00318655
-0.00314046
-0.00235488
-0.00396609
-0.00312739
-0.00229149
-0.00399919
-0.0039404
-0.00318651
-0.0023266
-0.00314045
-0.00235479
-0.00312735
-0.00396611
-0.00230968
-0.00230974
-0.00343168
-0.00398578
-0.00398576
-0.00367045
-0.00209001
-0.00212771
-0.00371105
-0.00205483
-0.00376263
-0.00367053
-0.00208989
-0.00212761
-0.00371098
-0.00287963
-0.00287963
-0.00287961
-0.00270207
-0.00270209
-0.00270209
-0.00270213
-0.00370366
-0.00208997
-0.00294985
-0.00290375
-0.00211819
-0.00372936
-0.00289067
-0.00205473
-0.00376267
-0.00370367
-0.00294982
-0.00208987
-0.00290373
-0.00211807
-0.00289064
-0.00372941
-0.00207292
-0.00207298
-0.00319489
-0.00374898
-0.00374899
-0.00343382
-0.00185317
-0.00189089
-0.0034744
-0.00181815
-0.00352622
-0.00343389
-0.00185302
-0.00189073
-0.0034743
-0.00264294
-0.00264293
-0.00264297
-0.00246538
-0.00246543
-0.00246541
-0.00246545
-0.00346703
-0.00185323
-0.00271314
-0.00266706
-0.00188142
-0.00349272
-0.00265397
-0.00181799
-0.00352623
-0.00346706
-0.00271311
-0.00185311
-0.00266704
-0.00188131
-0.00265394
-0.00349279
-0.00183623
-0.00183629
-0.00295829
-0.00351242
-0.00351243
-0.00319714
-0.00161651
-0.00165418
-0.00323767
-0.00158146
-0.00328946
-0.00319719
-0.00161634
-0.00165403
-0.00323758
-0.00240623
-0.00240622
-0.00240625
-0.00222871
-0.00222873
-0.00222872
-0.00222874
-0.00323038
-0.0016165
-0.00247647
-0.00243038
-0.00164465
-0.00325606
-0.0024173
-0.0015813
-0.00328945
-0.00323042
-0.00247643
-0.00161639
-0.00243036
-0.00164458
-0.00241728
-0.00325613
-0.00159951
-0.00159959
-0.00272165
-0.0032758
-0.00327583
-0.00296046
-0.00137989
-0.00141764
-0.00300108
-0.00134483
-0.00305266
-0.00296049
-0.00137974
-0.00141751
-0.00300096
-0.00216958
-0.00216956
-0.0021696
-0.0019921
-0.00199213
-0.00199211
-0.00199215
-0.0029937
-0.00137989
-0.00223982
-0.00219376
-0.00140809
-0.00301939
-0.00218067
-0.0013447
-0.00305272
-0.00299374
-0.0022398
-0.00137983
-0.00219374
-0.00140804
-0.00218065
-0.00301946
-0.00136291
-0.00136299
-0.00248495
-0.00303906
-0.00303908
-0.00272382
-0.00114328
-0.00118098
-0.00276445
-0.00110819
-0.00281614
-0.00272381
-0.00114316
-0.00118089
-0.00276434
-0.00193296
-0.00193294
-0.00193298
-0.00175538
-0.00175543
-0.00175541
-0.00175544
-0.00275707
-0.00114328
-0.00200318
-0.00195711
-0.00117147
-0.00278278
-0.00194401
-0.00110807
-0.00281604
-0.00275704
-0.00200314
-0.00114319
-0.00195707
-0.0011714
-0.00194397
-0.00278276
-0.00112621
-0.00112628
-0.00224828
-0.00280239
-0.00280236
-0.00248706
-0.000906542
-0.000944276
-0.00252764
-0.000871554
-0.00257944
-0.0024871
-0.000906425
-0.000944163
-0.00252757
-0.00169624
-0.00169623
-0.00169626
-0.00151867
-0.00151872
-0.00151872
-0.00151877
-0.00252035
-0.000906597
-0.00176649
-0.00172042
-0.000934776
-0.00254604
-0.00170733
-0.000871401
-0.00257943
-0.00252034
-0.00176645
-0.000906492
-0.00172038
-0.00093469
-0.00170729
-0.00254607
-0.000889574
-0.000889631
-0.00201158
-0.00256572
-0.0025657
-0.00225026
-0.000669918
-0.000707697
-0.00229094
-0.000634867
-0.00234254
-0.00225032
-0.000669779
-0.00070756
-0.00229084
-0.00145956
-0.00145955
-0.0014596
-0.00128206
-0.00128208
-0.00128208
-0.00128211
-0.00228363
-0.000669949
-0.00152981
-0.00148371
-0.000698177
-0.00230931
-0.00147065
-0.000634727
-0.00234259
-0.00228365
-0.00152977
-0.00066984
-0.0014837
-0.000698078
-0.00147061
-0.00230936
-0.000652948
-0.000653009
-0.00177492
-0.002329
-0.002329
-0.00201373
-0.000433281
-0.00047101
-0.00205436
-0.000398186
-0.00210603
-0.0020138
-0.000433136
-0.000470878
-0.00205425
-0.00122291
-0.00122292
-0.00122295
-0.00104541
-0.00104542
-0.00104542
-0.00104542
-0.00204696
-0.000433271
-0.00129315
-0.00124706
-0.000461486
-0.00207266
-0.00123397
-0.000398077
-0.00210612
-0.00204701
-0.00129312
-0.000433185
-0.00124705
-0.000461394
-0.00123395
-0.00207273
-0.000416272
-0.000416336
-0.00153824
-0.00209235
-0.00209236
-0.0017771
-0.000196544
-0.000234231
-0.00181773
-0.000161456
-0.00186936
-0.00177714
-0.000196394
-0.000234115
-0.00181759
-0.00098624
-0.000986234
-0.000986237
-0.000808685
-0.000808733
-0.000808708
-0.000808757
-0.00181032
-0.000196504
-0.00105643
-0.00101037
-0.000224656
-0.00183604
-0.00099728
-0.000161362
-0.00186939
-0.00181035
-0.00105641
-0.000196438
-0.00101036
-0.00022459
-0.00099725
-0.00183609
-0.000179488
-0.000179558
-0.0013016
-0.00185571
-0.00185571
-0.00154046
4.0109e-05
2.38663e-06
-0.0015811
7.52401e-05
-0.00163265
-0.00154046
4.02609e-05
2.51436e-06
-0.00158098
-0.000749563
-0.000749536
-0.000749594
-0.000572089
-0.000572081
-0.000572058
-0.000572083
-0.00157375
4.01685e-05
-0.000819793
-0.000773704
1.19769e-05
-0.00159941
-0.000760638
7.53795e-05
-0.00163263
-0.0015737
-0.000819741
4.02685e-05
-0.000773662
1.20651e-05
-0.000760586
-0.00159939
5.71719e-05
5.71074e-05
-0.00106497
-0.0016191
-0.0016191
-0.00130387
0.000276809
0.000239108
-0.00134441
0.000311911
-0.00139614
-0.00130387
0.000276939
0.000239236
-0.00134431
-0.000512913
-0.000512899
-0.00051291
-0.000335364
-0.00033539
-0.000335415
-0.000335396
-0.00133708
0.000276836
-0.000583133
-0.00053706
0.000248664
-0.00136277
-0.000523966
0.00031204
-0.00139612
-0.00133706
-0.000583094
0.000276915
-0.000537042
0.000248732
-0.000523933
-0.00136277
0.000293886
0.000293818
-0.000828281
-0.00138243
-0.00138241
-0.00106708
0.000513496
0.000475785
-0.00110767
0.000548528
-0.00115936
-0.00106717
0.000513631
0.000475908
-0.00110761
-0.000276211
-0.000276246
-0.000276234
-9.86972e-05
-9.87227e-05
-9.87365e-05
-9.87795e-05
-0.00110033
0.000513469
-0.000346455
-0.000300382
0.000485306
-0.00112603
-0.000287296
0.000548619
-0.00115947
-0.00110039
-0.000346438
0.000513525
-0.000300402
0.000485369
-0.00028729
-0.00112613
0.000530469
0.000530407
-0.000591579
-0.00114575
-0.00114576
-0.000830393
0.000750097
0.000712355
-0.000871084
0.000785184
-0.000922576
-0.000830505
0.000750223
0.000712461
-0.000871003
-3.95639e-05
-3.95587e-05
-3.96069e-05
0.000137922
0.000137902
0.000137914
0.000137895
-0.000863647
0.000750098
-0.000109806
-6.37236e-05
0.000721898
-0.000889329
-5.06487e-05
0.000785309
-0.00092264
-0.000863693
-0.000109797
0.000750188
-6.37197e-05
0.000721974
-5.0636e-05
-0.000889419
0.000767091
0.000767027
-0.000354919
-0.000909016
-0.000909043
0.00102181
0.000986826
0.000949073
0.00019706
0.000197076
0.000197064
0.000986733
0.000126857
0.000958528
0.00102191
0.000126868
0.00098679
0.000958567
0.00100378
0.00100369
-0.00278291
-0.00278277
-0.00390486
-0.00445899
-0.00445903
-0.00276447
-0.00447252
-0.00435436
-0.0026465
-0.00331865
-0.00434063
-0.00434062
-0.00266454
-0.00266468
-0.00435415
-0.00264625
-0.00441362
-0.00365975
-0.00279982
-0.00361367
-0.00443929
-0.00282801
-0.00360064
-0.00438041
-0.00279988
-0.00442112
-0.00283764
-0.0043804
-0.00279982
-0.00442088
-0.0028376
-0.00270977
-0.00355454
-0.0034823
-0.00432099
-0.00268157
-0.00429525
-0.00354144
-0.00270974
-0.00355457
-0.00348228
-0.00432094
-0.00268158
-0.00429523
-0.00354142
-0.00271939
-0.00430277
-0.00268163
-0.00426203
-0.00271936
-0.00430251
-0.00268159
-0.00426203
-0.00276464
-0.00447271
-0.00276473
-0.00447268
-0.00331863
-0.00434062
-0.00434064
-0.00266471
-0.00266458
-0.00435422
-0.00264635
-0.00435446
-0.0026465
-0.00252801
-0.0042358
-0.00252815
-0.00423596
-0.0025463
-0.00254636
-0.00366819
-0.00422223
-0.00422226
-0.00411748
-0.00240966
-0.00411757
-0.00240979
-0.00308201
-0.0041039
-0.00410389
-0.00242795
-0.00242801
-0.00414366
-0.00256328
-0.00418417
-0.00260108
-0.0041769
-0.00256329
-0.0034231
-0.00337709
-0.00420262
-0.00336395
-0.00259148
-0.00417689
-0.00256326
-0.00342314
-0.0033771
-0.00420263
-0.00336398
-0.00259148
-0.00248279
-0.004066
-0.00244501
-0.0040253
-0.00248277
-0.00406595
-0.00244497
-0.00402532
-0.00247313
-0.00331792
-0.00408429
-0.00324563
-0.00244494
-0.00330478
-0.00405856
-0.00247315
-0.00331793
-0.00408432
-0.00324565
-0.00244495
-0.0033048
-0.00405857
-0.00254644
-0.00254633
-0.00366827
-0.00422227
-0.00422232
-0.00252802
-0.00423597
-0.00411755
-0.00240994
-0.00308197
-0.00410391
-0.004104
-0.00242813
-0.00242804
-0.00411765
-0.00240974
-0.00417689
-0.00256322
-0.00342314
-0.00337704
-0.0042026
-0.00336399
-0.00259141
-0.00414367
-0.00256319
-0.00418419
-0.00260098
-0.00417687
-0.0034231
-0.0025632
-0.0033771
-0.00336394
-0.00420263
-0.0025914
-0.00248269
-0.00406594
-0.00244487
-0.00402535
-0.00247309
-0.00331787
-0.00408427
-0.00324567
-0.00244488
-0.00330482
-0.00405855
-0.00248269
-0.00406598
-0.00244487
-0.00402533
-0.00247309
-0.00331793
-0.00324562
-0.00408433
-0.00330477
-0.0024449
-0.00405854
-0.00414374
-0.00256337
-0.00418436
-0.00260112
-0.00417696
-0.00342317
-0.00256328
-0.00337716
-0.00336398
-0.00420271
-0.00259149
-0.00414373
-0.00256333
-0.00418433
-0.00260112
-0.00247321
-0.00331794
-0.00408439
-0.00324571
-0.00244501
-0.00330487
-0.0040587
-0.00248284
-0.00406609
-0.00244506
-0.00402547
-0.00247321
-0.003318
-0.00324567
-0.00408445
-0.00330482
-0.00244502
-0.00405869
-0.00248284
-0.00406612
-0.00244507
-0.00402546
-0.00254636
-0.00254623
-0.00366819
-0.0042223
-0.00422232
-0.00252794
-0.00423589
-0.00411765
-0.00240985
-0.00308206
-0.00410397
-0.00410404
-0.00242804
-0.00242793
-0.00411768
-0.00240964
-0.00417695
-0.00342309
-0.00256323
-0.00337706
-0.00259146
-0.00336398
-0.00420267
-0.00414372
-0.00256332
-0.00260108
-0.00418444
-0.00414372
-0.00256323
-0.00260106
-0.00418427
-0.00247313
-0.00331793
-0.00324567
-0.00408439
-0.00330483
-0.00244496
-0.00405869
-0.00247315
-0.00331794
-0.00324569
-0.00408443
-0.00330484
-0.00244494
-0.0040587
-0.00248276
-0.0040661
-0.002445
-0.00402546
-0.00248274
-0.00406603
-0.00244495
-0.00402548
-0.00252802
-0.00423607
-0.00252821
-0.00423605
-0.00308204
-0.00410411
-0.00410408
-0.00242803
-0.00242808
-0.00411773
-0.00240978
-0.00411778
-0.00240989
-0.00229133
-0.00399917
-0.00229145
-0.00399923
-0.00230961
-0.00230966
-0.00343157
-0.0039856
-0.00398559
-0.00388086
-0.00217301
-0.00388097
-0.00217313
-0.00284526
-0.0038673
-0.00386731
-0.00219128
-0.00219134
-0.00390707
-0.00232669
-0.00236447
-0.0039477
-0.0039403
-0.00232663
-0.00318647
-0.00314047
-0.00235483
-0.00396602
-0.00312732
-0.0039403
-0.00232665
-0.0031865
-0.00314047
-0.00235487
-0.00396603
-0.00312734
-0.00224613
-0.00382942
-0.0022084
-0.00378876
-0.00224614
-0.00382937
-0.00220839
-0.00378879
-0.00223652
-0.00308131
-0.00384772
-0.00300898
-0.00220832
-0.00306815
-0.00382199
-0.00223656
-0.0030813
-0.00384771
-0.00300901
-0.00220834
-0.00306818
-0.00382201
-0.00230978
-0.0023097
-0.00343166
-0.00398559
-0.00398571
-0.0022914
-0.00399935
-0.00388082
-0.00217322
-0.00284526
-0.00386727
-0.00386734
-0.00219142
-0.00219136
-0.00388097
-0.00217305
-0.0039403
-0.00232658
-0.00318651
-0.00314042
-0.00235482
-0.00396598
-0.00312737
-0.00390709
-0.0023266
-0.00236439
-0.00394778
-0.00394029
-0.00318647
-0.0023266
-0.00314046
-0.00235482
-0.00312732
-0.00396605
-0.00224605
-0.00382935
-0.00220828
-0.00378883
-0.00223651
-0.00308126
-0.00384769
-0.00300903
-0.00220828
-0.0030682
-0.003822
-0.00224606
-0.00382946
-0.00220831
-0.00378883
-0.00223653
-0.0030813
-0.00300899
-0.00384774
-0.00306816
-0.00220828
-0.00382201
-0.00390718
-0.00232673
-0.00236451
-0.00394779
-0.0039404
-0.0031865
-0.0023267
-0.00314051
-0.0023549
-0.00312735
-0.00396614
-0.00390718
-0.00232676
-0.00236452
-0.00394785
-0.00223654
-0.00308129
-0.00384773
-0.00300904
-0.00220835
-0.00306821
-0.00382205
-0.00224617
-0.00382943
-0.0022084
-0.00378882
-0.00223657
-0.00308132
-0.003009
-0.00384777
-0.00306818
-0.00220835
-0.00382204
-0.00224619
-0.00382951
-0.00220843
-0.00378882
-0.00230968
-0.0023096
-0.00343161
-0.00398563
-0.00398576
-0.00229131
-0.00399942
-0.00388085
-0.00217312
-0.0028453
-0.00386732
-0.0038674
-0.00219132
-0.00219124
-0.003881
-0.00217296
-0.00394041
-0.00318653
-0.00232662
-0.00314045
-0.00235482
-0.00312737
-0.00396613
-0.00390719
-0.00232664
-0.00236441
-0.00394779
-0.00390721
-0.00232663
-0.00236441
-0.00394776
-0.00223644
-0.00308128
-0.003009
-0.00384777
-0.00306818
-0.00220826
-0.00382205
-0.00223647
-0.00308127
-0.00300903
-0.00384776
-0.00306821
-0.00220825
-0.00382206
-0.00224605
-0.00382948
-0.0022083
-0.00378883
-0.00224606
-0.0038294
-0.00220827
-0.00378885
-0.00229142
-0.00399934
-0.00229154
-0.00399941
-0.00284535
-0.00386738
-0.00386739
-0.00219131
-0.00219135
-0.0038809
-0.00217304
-0.00388104
-0.00217316
-0.00205461
-0.00376259
-0.00205474
-0.00376269
-0.00207288
-0.00207294
-0.00319499
-0.00374901
-0.00374902
-0.00364434
-0.00193618
-0.00364447
-0.0019363
-0.00260848
-0.00363074
-0.00363075
-0.00195446
-0.00195451
-0.00367047
-0.00208998
-0.00212771
-0.00371093
-0.00370367
-0.00208993
-0.00294979
-0.00290377
-0.0021181
-0.0037294
-0.00289062
-0.00370366
-0.00208992
-0.00294982
-0.00290375
-0.00211813
-0.00372937
-0.00289064
-0.00200926
-0.00359274
-0.00197156
-0.00355214
-0.00200925
-0.00359256
-0.00197152
-0.00355214
-0.00199964
-0.00284458
-0.00361109
-0.00277226
-0.00197148
-0.00283143
-0.00358535
-0.00199967
-0.00284457
-0.00361104
-0.00277227
-0.00197149
-0.00283145
-0.00358534
-0.00207302
-0.00207296
-0.00319495
-0.00374897
-0.00374895
-0.00205465
-0.0037625
-0.00364446
-0.00193646
-0.00260854
-0.0036307
-0.00363065
-0.00195464
-0.00195458
-0.00364427
-0.00193626
-0.00370368
-0.00208988
-0.00294984
-0.00290372
-0.00211807
-0.00372938
-0.00289066
-0.00367053
-0.00208991
-0.00212763
-0.00371101
-0.00370367
-0.00294981
-0.00208986
-0.00290374
-0.00211809
-0.00289062
-0.0037294
-0.00200914
-0.00359265
-0.00197142
-0.00355221
-0.00199959
-0.00284452
-0.00361106
-0.00277229
-0.00197141
-0.00283146
-0.00358536
-0.00200914
-0.00359264
-0.00197144
-0.0035522
-0.0019996
-0.00284455
-0.00277224
-0.00361108
-0.00283142
-0.00197141
-0.00358535
-0.00367043
-0.00209003
-0.00212782
-0.00371111
-0.00370364
-0.00294981
-0.00208998
-0.00290377
-0.00211822
-0.00289063
-0.00372936
-0.00367041
-0.00209006
-0.00212784
-0.0037111
-0.00199981
-0.00284457
-0.00361102
-0.00277231
-0.0019716
-0.00283149
-0.00358531
-0.00200943
-0.00359272
-0.00197167
-0.00355209
-0.00199983
-0.0028446
-0.00277227
-0.00361103
-0.00283145
-0.0019716
-0.00358529
-0.00200944
-0.00359273
-0.00197167
-0.00355207
-0.00207292
-0.00207282
-0.00319492
-0.00374903
-0.00374902
-0.00205453
-0.00376256
-0.00364448
-0.00193633
-0.00260855
-0.00363075
-0.00363074
-0.00195452
-0.00195442
-0.00364434
-0.00193613
-0.00370367
-0.00294984
-0.00208987
-0.00290371
-0.0021181
-0.00289065
-0.00372936
-0.00367045
-0.00208993
-0.00212769
-0.00371115
-0.00367046
-0.00208989
-0.00212769
-0.003711
-0.00199969
-0.00284455
-0.00277228
-0.00361108
-0.00283145
-0.00197148
-0.00358534
-0.00199971
-0.00284454
-0.0027723
-0.00361104
-0.00283148
-0.00197149
-0.00358534
-0.00200929
-0.00359279
-0.00197154
-0.00355214
-0.00200929
-0.00359264
-0.00197151
-0.00355214
-0.00205465
-0.00376249
-0.00205478
-0.00376263
-0.00260863
-0.00363068
-0.0036307
-0.00195455
-0.00195461
-0.00364426
-0.00193628
-0.00364441
-0.00193641
-0.00181783
-0.00352605
-0.00181795
-0.00352621
-0.0018361
-0.00183615
-0.00295831
-0.00351243
-0.00351244
-0.00340763
-0.00169952
-0.00340782
-0.00169964
-0.00237176
-0.00339406
-0.00339408
-0.00171779
-0.00171784
-0.00343382
-0.00185314
-0.00189087
-0.0034742
-0.00346703
-0.0018531
-0.00271308
-0.00266705
-0.00188127
-0.00349276
-0.00265391
-0.003467
-0.00185313
-0.0027131
-0.00266706
-0.00188128
-0.00349271
-0.00265392
-0.00177253
-0.00335608
-0.00173484
-0.00331548
-0.00177251
-0.00335592
-0.00173482
-0.00331549
-0.00176292
-0.00260788
-0.00337441
-0.00253556
-0.00173477
-0.00259473
-0.00334868
-0.00176293
-0.0026079
-0.00337439
-0.00253558
-0.00173481
-0.00259475
-0.00334867
-0.00183632
-0.00183624
-0.00295833
-0.0035124
-0.00351238
-0.00181794
-0.00352607
-0.00340776
-0.00169983
-0.00237179
-0.00339402
-0.00339404
-0.00171801
-0.00171793
-0.00340772
-0.00169963
-0.00346704
-0.00185303
-0.00271311
-0.00266699
-0.00188119
-0.00349274
-0.00265394
-0.00343388
-0.00185302
-0.00189073
-0.00347429
-0.00346702
-0.00271306
-0.00185303
-0.00266704
-0.00188119
-0.00265389
-0.00349276
-0.00177237
-0.00335596
-0.00173468
-0.00331554
-0.00176284
-0.00260782
-0.00337439
-0.00253559
-0.0017347
-0.00259476
-0.00334869
-0.00177238
-0.00335601
-0.00173469
-0.00331554
-0.00176284
-0.00260787
-0.00253554
-0.00337443
-0.00259472
-0.00173469
-0.00334868
-0.00343383
-0.00185329
-0.00189104
-0.00347439
-0.00346701
-0.0027131
-0.00185326
-0.00266711
-0.00188145
-0.00265394
-0.00349274
-0.00343381
-0.00185333
-0.00189105
-0.00347438
-0.00176304
-0.0026079
-0.0033744
-0.00253563
-0.00173489
-0.0025948
-0.00334871
-0.00177265
-0.00335605
-0.00173495
-0.00331553
-0.00176306
-0.00260794
-0.0025356
-0.00337444
-0.00259477
-0.00173489
-0.0033487
-0.00177267
-0.00335607
-0.00173497
-0.00331552
-0.00183616
-0.00183609
-0.00295829
-0.00351246
-0.00351247
-0.0018178
-0.00352611
-0.00340778
-0.00169966
-0.00237181
-0.0033941
-0.00339412
-0.00171783
-0.00171776
-0.00340772
-0.00169948
-0.00346705
-0.00271313
-0.00185316
-0.00266705
-0.00188133
-0.00265396
-0.00349275
-0.00343388
-0.00185317
-0.00189091
-0.00347446
-0.00343387
-0.00185317
-0.00189091
-0.00347429
-0.00176294
-0.00260787
-0.0025356
-0.00337445
-0.00259476
-0.00173477
-0.00334874
-0.00176294
-0.00260788
-0.00253562
-0.00337444
-0.00259479
-0.00173479
-0.00334874
-0.00177253
-0.00335614
-0.00173482
-0.00331557
-0.00177252
-0.00335596
-0.00173482
-0.00331557
-0.00181796
-0.00352605
-0.0018181
-0.00352619
-0.00237188
-0.00339411
-0.00339413
-0.00171789
-0.00171794
-0.00340772
-0.00169964
-0.00340788
-0.00169977
-0.00158116
-0.00328933
-0.00158129
-0.00328949
-0.00159943
-0.0015995
-0.0027216
-0.00327571
-0.00327573
-0.00317097
-0.00146286
-0.00317114
-0.001463
-0.00213518
-0.00315737
-0.00315739
-0.00148114
-0.0014812
-0.00319714
-0.00161649
-0.00165417
-0.00323753
-0.00323034
-0.00161644
-0.00247639
-0.00243037
-0.00164458
-0.00325604
-0.00241724
-0.00323032
-0.00161645
-0.00247642
-0.00243039
-0.00164459
-0.00325605
-0.00241726
-0.00153591
-0.0031194
-0.00149817
-0.00307878
-0.00153589
-0.00311926
-0.00149816
-0.00307879
-0.00152626
-0.00237121
-0.00313772
-0.00229892
-0.00149811
-0.00235807
-0.00311201
-0.00152628
-0.00237123
-0.00313771
-0.00229894
-0.00149814
-0.0023581
-0.003112
-0.00159964
-0.00159955
-0.00272165
-0.0032757
-0.0032757
-0.00158125
-0.00328936
-0.00317106
-0.00146316
-0.00213521
-0.00315734
-0.00315733
-0.00148132
-0.00148122
-0.00317097
-0.00146292
-0.00323034
-0.00161636
-0.00247642
-0.00243032
-0.00164451
-0.00325603
-0.00241727
-0.00319719
-0.00161638
-0.00165404
-0.00323764
-0.00323033
-0.00247638
-0.00161636
-0.00243036
-0.00164451
-0.00241723
-0.00325609
-0.00153576
-0.00311928
-0.00149803
-0.00307884
-0.0015262
-0.00237116
-0.0031377
-0.00229895
-0.00149805
-0.0023581
-0.00311201
-0.00153578
-0.00311935
-0.00149807
-0.00307883
-0.00152622
-0.00237121
-0.00229891
-0.00313775
-0.00235807
-0.00149805
-0.00311201
-0.0031972
-0.00161657
-0.00165427
-0.00323772
-0.00323037
-0.00247643
-0.00161651
-0.00243043
-0.00164467
-0.00241727
-0.00325613
-0.00319719
-0.00161659
-0.00165429
-0.00323777
-0.00152635
-0.00237121
-0.00313771
-0.00229898
-0.00149818
-0.00235814
-0.00311203
-0.00153598
-0.0031194
-0.00149824
-0.00307882
-0.00152637
-0.00237127
-0.00229894
-0.00313777
-0.00235811
-0.00149821
-0.00311202
-0.001536
-0.00311945
-0.00149828
-0.00307882
-0.00159948
-0.00159939
-0.00272161
-0.00327576
-0.00327579
-0.00158111
-0.0032894
-0.00317106
-0.00146301
-0.00213523
-0.0031574
-0.0031574
-0.00148119
-0.00148109
-0.00317094
-0.00146281
-0.00323042
-0.00247646
-0.00161643
-0.00243038
-0.00164459
-0.0024173
-0.00325614
-0.00319725
-0.00161646
-0.00165418
-0.0032378
-0.00319725
-0.00161645
-0.00165417
-0.00323766
-0.0015263
-0.0023712
-0.00229896
-0.00313778
-0.00235812
-0.00149811
-0.00311207
-0.00152631
-0.00237122
-0.00229899
-0.00313779
-0.00235815
-0.00149814
-0.00311207
-0.00153592
-0.00311953
-0.00149816
-0.00307887
-0.00153592
-0.00311937
-0.00149815
-0.00307887
-0.00158125
-0.0032894
-0.0015814
-0.00328958
-0.0021353
-0.00315743
-0.00315745
-0.00148121
-0.00148129
-0.00317102
-0.00146295