/*--------------------------------*- C++ -*----------------------------------*\
| =========                 |                                                 |
| \\      /  F ield         | OpenFOAM: The Open Source CFD Toolbox           |
|  \\    /   O peration     | Version:  2206                                  |
|   \\  /    A nd           | Website:  www.openfoam.com                      |
|    \\/     M anipulation  |                                                 |
\*---------------------------------------------------------------------------*/
FoamFile
{
    version     2.0;
    format      ascii;
    arch        "LSB;label=32;scalar=64";
    class       volScalarField;
    location    "26";
    object      p;
}
// * * * * * * * * * * * * * * * * * * * * * * * * * * * * * * * * * * * * * //

dimensions      [0 2 -2 0 0 0 0];

internalField   nonuniform List<scalar> 
171728
(
0.00404901
0.00404935
0.00404935
0.0040524
0.00399365
0.00399407
0.00399407
0.00399706
0.00394288
0.00394287
0.00394287
0.00394567
0.00389052
0.00389053
0.00389053
0.00389334
0.00383935
0.00383917
0.00383917
0.00384185
0.00379185
0.00379168
0.00379168
0.00379411
0.00374847
0.00374841
0.00374841
0.00375096
0.00370577
0.00370573
0.00370573
0.00370825
0.00366317
0.00366314
0.00366314
0.00366565
0.00362059
0.00362056
0.00362056
0.00362307
0.00357801
0.00357797
0.00357797
0.00358049
0.00353542
0.00353539
0.00353539
0.0035379
0.00349284
0.00349281
0.00349281
0.00349532
0.00345026
0.00345023
0.00345023
0.00345274
0.00340768
0.00340765
0.00340765
0.00341016
0.00336511
0.00336507
0.00336507
0.00336758
0.00332253
0.00332249
0.00332249
0.00332501
0.00327994
0.00327991
0.00327991
0.00328242
0.00323735
0.00323731
0.00323731
0.00323982
0.00319476
0.00319472
0.00319472
0.00319724
0.00315217
0.00315214
0.00315214
0.00315465
0.00310959
0.00310956
0.00310956
0.00311207
0.00306701
0.00306697
0.00306697
0.00306948
0.00302442
0.00302439
0.00302439
0.0030269
0.00298183
0.0029818
0.0029818
0.00298431
0.00293925
0.00293921
0.00293921
0.00294172
0.00289666
0.00289662
0.00289662
0.00289914
0.00285407
0.00285404
0.00285404
0.00285655
0.00281148
0.00281145
0.00281145
0.00281396
0.00276889
0.00276886
0.00276886
0.00277137
0.0027263
0.00272627
0.00272627
0.00272878
0.00268372
0.00268368
0.00268368
0.00268619
0.00264113
0.0026411
0.0026411
0.00264361
0.00259855
0.00259852
0.00259852
0.00260103
0.00255597
0.00255593
0.00255593
0.00255845
0.00251338
0.00251334
0.00251334
0.00251585
0.00247079
0.00247075
0.00247075
0.00247326
0.0024282
0.00242817
0.00242817
0.00243068
0.00238562
0.00238559
0.00238559
0.0023881
0.00234304
0.00234301
0.00234301
0.00234552
0.00230046
0.00230042
0.00230042
0.00230294
0.00225788
0.00225784
0.00225784
0.00226036
0.0022153
0.00221526
0.00221526
0.00221777
0.00217272
0.00217268
0.00217268
0.00217519
0.00213014
0.0021301
0.0021301
0.00213261
0.00208755
0.00208752
0.00208752
0.00209003
0.00204497
0.00204494
0.00204494
0.00204745
0.00200239
0.00200236
0.00200236
0.00200487
0.00195981
0.00195977
0.00195977
0.00196228
0.00191722
0.00191719
0.00191719
0.0019197
0.00187464
0.00187461
0.00187461
0.00187712
0.00183206
0.00183203
0.00183203
0.00183454
0.00178948
0.00178945
0.00178945
0.00179196
0.00174689
0.00174685
0.00174685
0.00174936
0.0017043
0.00170427
0.00170427
0.00170678
0.00166172
0.00166168
0.00166168
0.0016642
0.00161914
0.0016191
0.0016191
0.00162161
0.00157655
0.00157652
0.00157652
0.00157903
0.00153397
0.00153394
0.00153394
0.00153645
0.00149139
0.00149135
0.00149135
0.00149386
0.00144881
0.00144877
0.00144877
0.00145128
0.00140622
0.00140619
0.00140619
0.0014087
0.00136364
0.00136361
0.00136361
0.00136612
0.00132106
0.00132102
0.00132102
0.00132354
0.00127848
0.00127844
0.00127844
0.00128095
0.00123589
0.00123586
0.00123586
0.00123837
0.00119331
0.00119328
0.00119328
0.00119579
0.00115073
0.0011507
0.00115069
0.00115321
0.00110815
0.00110812
0.00110811
0.00111063
0.00106557
0.00106554
0.00106553
0.00106805
0.00102298
0.00102295
0.00102294
0.00102546
0.00098039
0.000980356
0.000980356
0.000982868
0.000937808
0.000937774
0.000937774
0.000940286
0.000895227
0.000895193
0.000895193
0.000897704
0.000852646
0.000852612
0.000852612
0.000855123
0.000810067
0.000810033
0.000810033
0.000812544
0.000767488
0.000767454
0.000767454
0.000769966
0.00072491
0.000724875
0.000724875
0.000727387
0.00068233
0.000682296
0.000682296
0.000684808
0.000639751
0.000639717
0.000639717
0.000642228
0.000597171
0.000597137
0.000597137
0.000599649
0.000554592
0.000554558
0.000554558
0.000557069
0.000512011
0.000511977
0.000511977
0.000514489
0.00046943
0.000469395
0.000469395
0.000471907
0.00042685
0.000426816
0.000426816
0.000429327
0.000384271
0.000384237
0.000384237
0.000386749
0.000341691
0.000341659
0.000341658
0.00034417
0.000299106
0.000299071
0.000299072
0.000301584
0.00025651
0.000256478
0.000256478
0.000258987
0.000213919
0.000213876
0.000213875
0.000216385
0.000171333
0.000171316
0.000171316
0.000173813
0.00012873
0.000128693
0.000128692
0.000131184
8.61383e-05
8.60858e-05
8.60846e-05
8.8539e-05
4.42166e-05
4.36602e-05
4.36571e-05
4.59777e-05
9.53155e-06
9.76624e-06
9.76403e-06
9.31738e-06
0.00406243
0.00406265
0.00406265
0.00406243
0.00406265
0.00406265
0.00406341
0.00406341
0.00406341
0.00406341
0.00406265
0.00406265
0.00406243
0.00406265
0.00406265
0.00406243
0.0040524
0.00400365
0.00404934
0.00404934
0.00400591
0.00400592
0.0040524
0.00400365
0.00404935
0.00404934
0.00400591
0.00400591
0.00404934
0.00400591
0.00400591
0.0040524
0.00400365
0.00404935
0.00400591
0.00400591
0.00400365
0.00399706
0.00395257
0.00399407
0.00399407
0.003956
0.003956
0.00399706
0.00395257
0.00399407
0.00399407
0.003956
0.003956
0.00399407
0.003956
0.003956
0.00399706
0.00395257
0.00399407
0.003956
0.003956
0.00395257
0.00394567
0.00390019
0.00394287
0.00394287
0.00390347
0.00390347
0.00394567
0.00390019
0.00394287
0.00394287
0.00390347
0.00390347
0.00394287
0.00390347
0.00390347
0.00394567
0.00390019
0.00394287
0.00390346
0.00390347
0.00390019
0.00389334
0.00384858
0.00389053
0.00389053
0.00385185
0.00385185
0.00389334
0.00384858
0.00389053
0.00389053
0.00385185
0.00385185
0.00389053
0.00385185
0.00385185
0.00389334
0.00384858
0.00389053
0.00385185
0.00385185
0.00384858
0.00384185
0.00379995
0.00383917
0.00383917
0.003803
0.003803
0.00384185
0.00379996
0.00383917
0.00383917
0.003803
0.003803
0.00383917
0.003803
0.003803
0.00384185
0.00379995
0.00383917
0.003803
0.003803
0.00379996
0.00379411
0.0037566
0.00379168
0.00379168
0.00375911
0.00375911
0.00379411
0.0037566
0.00379168
0.00379168
0.00375911
0.00375911
0.00379168
0.00375911
0.00375911
0.00379411
0.0037566
0.00379168
0.00375911
0.00375911
0.0037566
0.00375096
0.00371388
0.00374841
0.00374841
0.00371639
0.00371639
0.00375096
0.00371388
0.00374841
0.00374841
0.00371639
0.00371639
0.00374841
0.00371639
0.00371639
0.00375096
0.00371388
0.00374841
0.00371639
0.00371639
0.00371388
0.00370825
0.00367128
0.00370573
0.00370573
0.00367378
0.00367378
0.00370825
0.00367128
0.00370573
0.00370573
0.00367378
0.00367378
0.00370573
0.00367378
0.00367378
0.00370825
0.00367128
0.00370573
0.00367378
0.00367378
0.00367128
0.00366565
0.0036287
0.00366314
0.00366314
0.0036312
0.0036312
0.00366565
0.0036287
0.00366314
0.00366314
0.0036312
0.0036312
0.00366314
0.0036312
0.0036312
0.00366565
0.0036287
0.00366314
0.0036312
0.0036312
0.0036287
0.00362307
0.00358611
0.00362056
0.00362056
0.00358862
0.00358862
0.00362307
0.00358612
0.00362056
0.00362056
0.00358862
0.00358862
0.00362056
0.00358862
0.00358862
0.00362307
0.00358611
0.00362056
0.00358862
0.00358862
0.00358612
0.00358049
0.00354353
0.00357797
0.00357797
0.00354604
0.00354604
0.00358049
0.00354353
0.00357797
0.00357797
0.00354603
0.00354604
0.00357797
0.00354604
0.00354604
0.00358049
0.00354353
0.00357797
0.00354604
0.00354604
0.00354353
0.0035379
0.00350095
0.00353539
0.00353539
0.00350345
0.00350345
0.0035379
0.00350095
0.00353539
0.00353539
0.00350345
0.00350345
0.00353539
0.00350345
0.00350345
0.0035379
0.00350095
0.00353539
0.00350345
0.00350345
0.00350095
0.00349532
0.00345837
0.00349281
0.00349281
0.00346087
0.00346087
0.00349532
0.00345837
0.00349281
0.00349281
0.00346087
0.00346087
0.00349281
0.00346087
0.00346087
0.00349532
0.00345837
0.00349281
0.00346087
0.00346087
0.00345837
0.00345274
0.00341579
0.00345023
0.00345023
0.00341829
0.00341829
0.00345274
0.00341579
0.00345022
0.00345023
0.00341829
0.00341829
0.00345023
0.00341829
0.00341829
0.00345274
0.00341579
0.00345023
0.00341829
0.00341829
0.00341579
0.00341016
0.00337321
0.00340765
0.00340765
0.00337571
0.00337571
0.00341016
0.00337321
0.00340765
0.00340765
0.00337571
0.00337571
0.00340765
0.00337571
0.00337571
0.00341016
0.00337321
0.00340765
0.00337571
0.00337571
0.00337321
0.00336758
0.00333063
0.00336507
0.00336507
0.00333314
0.00333314
0.00336758
0.00333063
0.00336507
0.00336507
0.00333314
0.00333314
0.00336507
0.00333314
0.00333314
0.00336758
0.00333063
0.00336507
0.00333314
0.00333314
0.00333063
0.00332501
0.00328805
0.00332249
0.00332249
0.00329055
0.00329055
0.00332501
0.00328805
0.00332249
0.00332249
0.00329055
0.00329055
0.00332249
0.00329055
0.00329055
0.00332501
0.00328805
0.00332249
0.00329055
0.00329055
0.00328805
0.00328242
0.00324545
0.00327991
0.00327991
0.00324796
0.00324796
0.00328242
0.00324545
0.00327991
0.00327991
0.00324796
0.00324796
0.00327991
0.00324796
0.00324796
0.00328242
0.00324545
0.00327991
0.00324796
0.00324796
0.00324545
0.00323982
0.00320286
0.00323731
0.00323731
0.00320537
0.00320537
0.00323982
0.00320286
0.00323731
0.00323731
0.00320537
0.00320537
0.00323731
0.00320537
0.00320537
0.00323982
0.00320286
0.00323731
0.00320537
0.00320537
0.00320286
0.00319723
0.00316028
0.00319472
0.00319472
0.00316279
0.00316279
0.00319723
0.00316028
0.00319472
0.00319472
0.00316279
0.00316279
0.00319472
0.00316279
0.00316279
0.00319724
0.00316028
0.00319472
0.00316279
0.00316279
0.00316028
0.00315465
0.0031177
0.00315214
0.00315214
0.0031202
0.0031202
0.00315465
0.0031177
0.00315214
0.00315214
0.0031202
0.0031202
0.00315214
0.0031202
0.0031202
0.00315465
0.0031177
0.00315214
0.0031202
0.0031202
0.0031177
0.00311207
0.00307511
0.00310956
0.00310956
0.00307762
0.00307762
0.00311207
0.00307511
0.00310956
0.00310956
0.00307762
0.00307762
0.00310956
0.00307762
0.00307762
0.00311207
0.00307511
0.00310956
0.00307762
0.00307762
0.00307511
0.00306948
0.00303253
0.00306697
0.00306697
0.00303503
0.00303503
0.00306948
0.00303253
0.00306697
0.00306697
0.00303503
0.00303503
0.00306697
0.00303503
0.00303503
0.00306948
0.00303253
0.00306697
0.00303503
0.00303503
0.00303253
0.0030269
0.00298994
0.00302439
0.00302439
0.00299245
0.00299245
0.0030269
0.00298994
0.00302439
0.00302439
0.00299245
0.00299245
0.00302439
0.00299245
0.00299245
0.0030269
0.00298994
0.00302439
0.00299245
0.00299245
0.00298994
0.00298431
0.00294735
0.0029818
0.0029818
0.00294986
0.00294986
0.00298431
0.00294735
0.0029818
0.0029818
0.00294986
0.00294986
0.0029818
0.00294986
0.00294986
0.00298431
0.00294735
0.0029818
0.00294986
0.00294986
0.00294735
0.00294172
0.00290477
0.00293921
0.00293921
0.00290727
0.00290727
0.00294172
0.00290477
0.00293921
0.00293921
0.00290727
0.00290727
0.00293921
0.00290727
0.00290727
0.00294172
0.00290477
0.00293921
0.00290727
0.00290727
0.00290477
0.00289914
0.00286218
0.00289662
0.00289662
0.00286468
0.00286468
0.00289914
0.00286218
0.00289662
0.00289662
0.00286468
0.00286468
0.00289662
0.00286468
0.00286468
0.00289914
0.00286218
0.00289662
0.00286468
0.00286468
0.00286218
0.00285655
0.00281959
0.00285404
0.00285404
0.00282209
0.00282209
0.00285655
0.00281959
0.00285404
0.00285404
0.00282209
0.00282209
0.00285404
0.00282209
0.00282209
0.00285655
0.00281959
0.00285404
0.00282209
0.00282209
0.00281959
0.00281396
0.002777
0.00281145
0.00281145
0.00277951
0.00277951
0.00281396
0.002777
0.00281145
0.00281145
0.00277951
0.00277951
0.00281145
0.00277951
0.00277951
0.00281396
0.002777
0.00281145
0.00277951
0.00277951
0.002777
0.00277137
0.00273441
0.00276886
0.00276886
0.00273692
0.00273692
0.00277137
0.00273441
0.00276886
0.00276886
0.00273692
0.00273692
0.00276886
0.00273692
0.00273692
0.00277137
0.00273441
0.00276886
0.00273692
0.00273692
0.00273441
0.00272878
0.00269182
0.00272627
0.00272627
0.00269433
0.00269433
0.00272878
0.00269182
0.00272627
0.00272627
0.00269433
0.00269433
0.00272627
0.00269433
0.00269433
0.00272878
0.00269182
0.00272627
0.00269433
0.00269433
0.00269182
0.00268619
0.00264924
0.00268368
0.00268368
0.00265174
0.00265174
0.00268619
0.00264924
0.00268368
0.00268368
0.00265174
0.00265174
0.00268368
0.00265174
0.00265174
0.00268619
0.00264924
0.00268368
0.00265174
0.00265174
0.00264924
0.00264361
0.00260666
0.0026411
0.0026411
0.00260916
0.00260916
0.00264361
0.00260666
0.0026411
0.0026411
0.00260916
0.00260916
0.0026411
0.00260916
0.00260916
0.00264361
0.00260666
0.0026411
0.00260916
0.00260916
0.00260666
0.00260103
0.00256408
0.00259852
0.00259852
0.00256658
0.00256658
0.00260103
0.00256408
0.00259852
0.00259852
0.00256658
0.00256658
0.00259852
0.00256658
0.00256658
0.00260103
0.00256408
0.00259852
0.00256658
0.00256658
0.00256408
0.00255845
0.00252148
0.00255593
0.00255593
0.00252399
0.00252399
0.00255845
0.00252148
0.00255593
0.00255593
0.00252399
0.00252399
0.00255593
0.00252399
0.00252399
0.00255845
0.00252148
0.00255593
0.00252399
0.00252399
0.00252148
0.00251585
0.00247889
0.00251334
0.00251334
0.0024814
0.0024814
0.00251585
0.00247889
0.00251334
0.00251334
0.0024814
0.0024814
0.00251334
0.0024814
0.0024814
0.00251585
0.00247889
0.00251334
0.0024814
0.0024814
0.00247889
0.00247326
0.00243631
0.00247075
0.00247075
0.00243881
0.00243881
0.00247326
0.00243631
0.00247075
0.00247075
0.00243881
0.00243882
0.00247075
0.00243881
0.00243881
0.00247326
0.00243631
0.00247075
0.00243881
0.00243881
0.00243631
0.00243068
0.00239373
0.00242817
0.00242817
0.00239623
0.00239623
0.00243068
0.00239373
0.00242817
0.00242817
0.00239623
0.00239623
0.00242817
0.00239623
0.00239623
0.00243068
0.00239373
0.00242817
0.00239623
0.00239623
0.00239373
0.0023881
0.00235115
0.00238559
0.00238559
0.00235365
0.00235365
0.0023881
0.00235115
0.00238559
0.00238559
0.00235365
0.00235365
0.00238559
0.00235365
0.00235365
0.0023881
0.00235115
0.00238559
0.00235365
0.00235365
0.00235115
0.00234552
0.00230857
0.00234301
0.00234301
0.00231107
0.00231107
0.00234552
0.00230856
0.00234301
0.00234301
0.00231107
0.00231107
0.00234301
0.00231107
0.00231107
0.00234552
0.00230856
0.00234301
0.00231107
0.00231107
0.00230856
0.00230294
0.00226598
0.00230042
0.00230042
0.00226849
0.00226849
0.00230294
0.00226598
0.00230042
0.00230042
0.00226849
0.00226849
0.00230042
0.00226849
0.00226849
0.00230294
0.00226598
0.00230042
0.00226849
0.00226849
0.00226598
0.00226036
0.0022234
0.00225784
0.00225784
0.00222591
0.00222591
0.00226036
0.0022234
0.00225784
0.00225784
0.00222591
0.00222591
0.00225784
0.00222591
0.00222591
0.00226036
0.0022234
0.00225784
0.00222591
0.00222591
0.0022234
0.00221777
0.00218082
0.00221526
0.00221526
0.00218333
0.00218333
0.00221777
0.00218082
0.00221526
0.00221526
0.00218333
0.00218333
0.00221526
0.00218333
0.00218333
0.00221777
0.00218082
0.00221526
0.00218333
0.00218333
0.00218082
0.00217519
0.00213824
0.00217268
0.00217268
0.00214075
0.00214075
0.00217519
0.00213824
0.00217268
0.00217268
0.00214075
0.00214075
0.00217268
0.00214075
0.00214075
0.00217519
0.00213824
0.00217268
0.00214075
0.00214075
0.00213824
0.00213261
0.00209566
0.0021301
0.0021301
0.00209816
0.00209816
0.00213261
0.00209566
0.0021301
0.0021301
0.00209816
0.00209816
0.0021301
0.00209816
0.00209816
0.00213261
0.00209566
0.0021301
0.00209816
0.00209816
0.00209566
0.00209003
0.00205308
0.00208752
0.00208752
0.00205558
0.00205558
0.00209003
0.00205308
0.00208752
0.00208752
0.00205558
0.00205558
0.00208752
0.00205558
0.00205558
0.00209003
0.00205308
0.00208752
0.00205558
0.00205558
0.00205308
0.00204745
0.0020105
0.00204494
0.00204494
0.002013
0.002013
0.00204745
0.0020105
0.00204494
0.00204494
0.002013
0.002013
0.00204494
0.002013
0.002013
0.00204745
0.0020105
0.00204494
0.002013
0.002013
0.0020105
0.00200487
0.00196791
0.00200236
0.00200236
0.00197042
0.00197042
0.00200487
0.00196791
0.00200236
0.00200236
0.00197042
0.00197042
0.00200236
0.00197042
0.00197042
0.00200487
0.00196791
0.00200236
0.00197042
0.00197042
0.00196791
0.00196228
0.00192533
0.00195977
0.00195977
0.00192784
0.00192784
0.00196228
0.00192533
0.00195977
0.00195977
0.00192784
0.00192784
0.00195977
0.00192784
0.00192784
0.00196228
0.00192533
0.00195977
0.00192784
0.00192784
0.00192533
0.0019197
0.00188275
0.00191719
0.00191719
0.00188525
0.00188525
0.0019197
0.00188275
0.00191719
0.00191719
0.00188525
0.00188525
0.00191719
0.00188525
0.00188525
0.0019197
0.00188275
0.00191719
0.00188525
0.00188525
0.00188275
0.00187712
0.00184017
0.00187461
0.00187461
0.00184267
0.00184267
0.00187712
0.00184017
0.00187461
0.00187461
0.00184267
0.00184267
0.00187461
0.00184267
0.00184267
0.00187712
0.00184017
0.00187461
0.00184267
0.00184267
0.00184017
0.00183454
0.00179759
0.00183203
0.00183203
0.00180009
0.00180009
0.00183454
0.00179759
0.00183203
0.00183203
0.00180009
0.00180009
0.00183203
0.00180009
0.00180009
0.00183454
0.00179759
0.00183203
0.00180009
0.00180009
0.00179759
0.00179196
0.001755
0.00178945
0.00178945
0.0017575
0.0017575
0.00179196
0.00175499
0.00178945
0.00178945
0.0017575
0.0017575
0.00178945
0.0017575
0.0017575
0.00179196
0.001755
0.00178945
0.0017575
0.0017575
0.001755
0.00174936
0.00171241
0.00174685
0.00174685
0.00171491
0.00171491
0.00174936
0.00171241
0.00174685
0.00174685
0.00171491
0.00171491
0.00174685
0.00171491
0.00171491
0.00174937
0.00171241
0.00174685
0.00171491
0.00171491
0.00171241
0.00170678
0.00166982
0.00170427
0.00170427
0.00167233
0.00167233
0.00170678
0.00166983
0.00170427
0.00170427
0.00167233
0.00167233
0.00170427
0.00167233
0.00167233
0.00170678
0.00166982
0.00170427
0.00167233
0.00167233
0.00166982
0.0016642
0.00162724
0.00166168
0.00166168
0.00162975
0.00162975
0.0016642
0.00162724
0.00166168
0.00166168
0.00162975
0.00162975
0.00166168
0.00162975
0.00162975
0.0016642
0.00162724
0.00166168
0.00162975
0.00162975
0.00162724
0.00162161
0.00158466
0.0016191
0.0016191
0.00158716
0.00158716
0.00162161
0.00158466
0.0016191
0.0016191
0.00158716
0.00158716
0.0016191
0.00158716
0.00158716
0.00162161
0.00158466
0.0016191
0.00158716
0.00158716
0.00158466
0.00157903
0.00154208
0.00157652
0.00157652
0.00154458
0.00154458
0.00157903
0.00154208
0.00157652
0.00157652
0.00154458
0.00154458
0.00157652
0.00154458
0.00154458
0.00157903
0.00154208
0.00157652
0.00154458
0.00154458
0.00154208
0.00153645
0.00149949
0.00153394
0.00153394
0.001502
0.001502
0.00153645
0.00149949
0.00153394
0.00153394
0.001502
0.001502
0.00153394
0.001502
0.001502
0.00153645
0.00149949
0.00153394
0.001502
0.001502
0.00149949
0.00149386
0.00145691
0.00149135
0.00149135
0.00145942
0.00145942
0.00149386
0.00145691
0.00149135
0.00149135
0.00145942
0.00145942
0.00149135
0.00145942
0.00145942
0.00149386
0.00145691
0.00149135
0.00145942
0.00145942
0.00145691
0.00145128
0.00141433
0.00144877
0.00144877
0.00141683
0.00141683
0.00145128
0.00141433
0.00144877
0.00144877
0.00141683
0.00141683
0.00144877
0.00141683
0.00141684
0.00145128
0.00141433
0.00144877
0.00141683
0.00141683
0.00141433
0.0014087
0.00137175
0.00140619
0.00140619
0.00137425
0.00137425
0.0014087
0.00137175
0.00140619
0.00140619
0.00137425
0.00137425
0.00140619
0.00137425
0.00137425
0.0014087
0.00137175
0.00140619
0.00137425
0.00137425
0.00137175
0.00136612
0.00132917
0.00136361
0.00136361
0.00133167
0.00133167
0.00136612
0.00132917
0.00136361
0.00136361
0.00133167
0.00133167
0.00136361
0.00133167
0.00133167
0.00136612
0.00132917
0.00136361
0.00133167
0.00133167
0.00132917
0.00132354
0.00128658
0.00132102
0.00132102
0.00128909
0.00128909
0.00132354
0.00128658
0.00132102
0.00132102
0.00128909
0.00128909
0.00132102
0.00128909
0.00128909
0.00132354
0.00128658
0.00132102
0.00128909
0.00128909
0.00128658
0.00128095
0.001244
0.00127844
0.00127844
0.00124651
0.00124651
0.00128095
0.001244
0.00127844
0.00127844
0.00124651
0.00124651
0.00127844
0.00124651
0.00124651
0.00128095
0.001244
0.00127844
0.0012465
0.0012465
0.001244
0.00123837
0.00120142
0.00123586
0.00123586
0.00120392
0.00120392
0.00123837
0.00120142
0.00123586
0.00123586
0.00120392
0.00120392
0.00123586
0.00120392
0.00120392
0.00123837
0.00120142
0.00123586
0.00120392
0.00120392
0.00120142
0.00119579
0.00115884
0.00119328
0.00119328
0.00116134
0.00116134
0.00119579
0.00115884
0.00119328
0.00119328
0.00116134
0.00116134
0.00119328
0.00116134
0.00116134
0.00119579
0.00115884
0.00119328
0.00116134
0.00116134
0.00115884
0.00115321
0.00111626
0.0011507
0.0011507
0.00111876
0.00111876
0.00115321
0.00111626
0.00115069
0.00115069
0.00111876
0.00111876
0.0011507
0.00111876
0.00111876
0.00115321
0.00111626
0.0011507
0.00111876
0.00111876
0.00111626
0.00111063
0.00107368
0.00110812
0.00110812
0.00107618
0.00107618
0.00111063
0.00107368
0.00110812
0.00110812
0.00107618
0.00107618
0.00110812
0.00107618
0.00107618
0.00111063
0.00107368
0.00110812
0.00107618
0.00107618
0.00107368
0.00106805
0.00103109
0.00106554
0.00106554
0.00103359
0.00103359
0.00106805
0.00103109
0.00106554
0.00106554
0.00103359
0.00103359
0.00106554
0.00103359
0.00103359
0.00106805
0.00103109
0.00106553
0.00103359
0.00103359
0.00103109
0.00102546
0.000988496
0.00102295
0.00102295
0.000991002
0.000991002
0.00102546
0.000988496
0.00102295
0.00102294
0.000991002
0.000991002
0.00102294
0.000991002
0.000991003
0.00102546
0.000988497
0.00102295
0.000991002
0.000991002
0.000988497
0.000982867
0.000945914
0.000980356
0.000980356
0.000948419
0.000948419
0.000982867
0.000945914
0.000980356
0.000980356
0.000948419
0.00094842
0.000980357
0.000948419
0.00094842
0.000982868
0.000945914
0.000980356
0.00094842
0.00094842
0.000945914
0.000940285
0.000903333
0.000937774
0.000937774
0.000905838
0.000905838
0.000940285
0.000903333
0.000937774
0.000937774
0.000905838
0.000905838
0.000937774
0.000905838
0.000905838
0.000940286
0.000903333
0.000937774
0.000905838
0.000905838
0.000903333
0.000897704
0.000860752
0.000895193
0.000895192
0.000863257
0.000863257
0.000897704
0.000860752
0.000895193
0.000895193
0.000863257
0.000863257
0.000895193
0.000863257
0.000863257
0.000897704
0.000860752
0.000895193
0.000863257
0.000863257
0.000860752
0.000855123
0.000818172
0.000852612
0.000852612
0.000820678
0.000820677
0.000855123
0.000818173
0.000852612
0.000852612
0.000820677
0.000820678
0.000852612
0.000820677
0.000820678
0.000855124
0.000818172
0.000852612
0.000820678
0.000820677
0.000818172
0.000812544
0.000775594
0.000810033
0.000810033
0.000778099
0.000778099
0.000812544
0.000775594
0.000810033
0.000810033
0.000778099
0.000778099
0.000810033
0.000778099
0.000778099
0.000812544
0.000775594
0.000810033
0.000778099
0.000778099
0.000775594
0.000769965
0.000733015
0.000767454
0.000767454
0.00073552
0.00073552
0.000769965
0.000733015
0.000767454
0.000767454
0.00073552
0.00073552
0.000767454
0.00073552
0.00073552
0.000769965
0.000733015
0.000767454
0.00073552
0.00073552
0.000733015
0.000727387
0.000690436
0.000724875
0.000724875
0.000692941
0.000692941
0.000727387
0.000690436
0.000724875
0.000724875
0.000692941
0.000692941
0.000724876
0.000692941
0.000692941
0.000727387
0.000690436
0.000724875
0.000692941
0.000692941
0.000690436
0.000684807
0.000647857
0.000682296
0.000682296
0.000650362
0.000650362
0.000684808
0.000647857
0.000682296
0.000682296
0.000650361
0.000650362
0.000682297
0.000650362
0.000650362
0.000684807
0.000647856
0.000682296
0.000650362
0.000650362
0.000647857
0.000642228
0.000605277
0.000639717
0.000639717
0.000607782
0.000607782
0.000642228
0.000605277
0.000639717
0.000639717
0.000607782
0.000607782
0.000639717
0.000607782
0.000607782
0.000642228
0.000605277
0.000639717
0.000607782
0.000607782
0.000605277
0.000599648
0.000562698
0.000597137
0.000597137
0.000565203
0.000565203
0.000599648
0.000562698
0.000597137
0.000597137
0.000565202
0.000565202
0.000597137
0.000565203
0.000565203
0.000599648
0.000562697
0.000597137
0.000565203
0.000565203
0.000562698
0.000557069
0.000520117
0.000554558
0.000554558
0.000522622
0.000522622
0.000557069
0.000520118
0.000554557
0.000554558
0.000522622
0.000522622
0.000554558
0.000522622
0.000522623
0.000557069
0.000520117
0.000554558
0.000522622
0.000522622
0.000520117
0.000514489
0.000477535
0.000511977
0.000511977
0.00048004
0.00048004
0.000514488
0.000477535
0.000511977
0.000511977
0.00048004
0.000480041
0.000511977
0.00048004
0.00048004
0.000514489
0.000477535
0.000511977
0.000480041
0.00048004
0.000477535
0.000471906
0.000434956
0.000469395
0.000469395
0.000437461
0.000437461
0.000471906
0.000434956
0.000469395
0.000469395
0.000437461
0.000437461
0.000469395
0.000437461
0.000437461
0.000471907
0.000434956
0.000469395
0.000437461
0.000437461
0.000434956
0.000429327
0.000392377
0.000426816
0.000426816
0.000394882
0.000394882
0.000429327
0.000392377
0.000426816
0.000426816
0.000394881
0.000394881
0.000426816
0.000394882
0.000394882
0.000429327
0.000392377
0.000426816
0.000394882
0.000394882
0.000392377
0.000386748
0.000349798
0.000384237
0.000384237
0.000352303
0.000352303
0.000386748
0.000349799
0.000384237
0.000384237
0.000352302
0.000352302
0.000384237
0.000352303
0.000352303
0.000386748
0.000349797
0.000384237
0.000352302
0.000352303
0.000349798
0.00034417
0.000307214
0.000341658
0.000341659
0.000309719
0.000309719
0.00034417
0.000307213
0.000341658
0.000341657
0.000309719
0.000309719
0.000341659
0.000309719
0.000309719
0.000344169
0.000307215
0.000341658
0.000309719
0.000309719
0.000307214
0.000301584
0.000264618
0.000299072
0.000299071
0.000267125
0.000267125
0.000301583
0.000264618
0.000299072
0.000299072
0.000267125
0.000267126
0.000299072
0.000267125
0.000267125
0.000301585
0.000264618
0.000299072
0.000267126
0.000267125
0.000264618
0.000258987
0.000222025
0.000256478
0.000256478
0.000224526
0.000224527
0.000258987
0.000222025
0.000256478
0.000256478
0.000224526
0.000224526
0.000256478
0.000224527
0.000224527
0.000258987
0.000222024
0.000256478
0.000224526
0.000224526
0.000222025
0.000216385
0.000179453
0.000213876
0.000213876
0.000181963
0.000181963
0.000216385
0.000179453
0.000213875
0.000213875
0.000181963
0.000181963
0.000213876
0.000181963
0.000181963
0.000216384
0.000179452
0.000213876
0.000181963
0.000181963
0.000179453
0.000173813
0.000136853
0.000171316
0.000171316
0.000139341
0.000139341
0.000173812
0.000136854
0.000171316
0.000171316
0.00013934
0.00013934
0.000171316
0.000139341
0.000139341
0.000173812
0.000136853
0.000171316
0.00013934
0.000139341
0.000136853
0.000131184
9.42627e-05
0.000128693
0.000128693
9.67541e-05
9.67544e-05
0.000131184
9.42636e-05
0.000128692
0.000128692
9.67538e-05
9.67535e-05
0.000128693
9.67542e-05
9.67538e-05
0.000131183
9.4262e-05
0.000128693
9.67534e-05
9.67533e-05
9.42622e-05
8.854e-05
5.17056e-05
8.6086e-05
8.60864e-05
5.4196e-05
5.41966e-05
8.85399e-05
5.17067e-05
8.60852e-05
8.60846e-05
5.41941e-05
5.41936e-05
8.60854e-05
5.41953e-05
5.41933e-05
8.85394e-05
5.17031e-05
8.60846e-05
5.41928e-05
5.4192e-05
5.17028e-05
4.59814e-05
1.30245e-05
4.36619e-05
4.36621e-05
1.52478e-05
1.52471e-05
4.59819e-05
1.30242e-05
4.366e-05
4.36586e-05
1.52457e-05
1.52421e-05
4.36579e-05
1.52444e-05
1.52403e-05
4.59782e-05
1.302e-05
4.36566e-05
1.52424e-05
1.52418e-05
1.30187e-05
9.32136e-06
9.76758e-06
9.76782e-06
9.32237e-06
9.76591e-06
9.76344e-06
9.53143e-06
9.52932e-06
9.52898e-06
9.76252e-06
9.31848e-06
9.76313e-06
0.0040708
0.00408056
0.00407536
0.00407536
0.00409774
0.00408452
0.00411312
0.00407857
0.00409774
0.00408453
0.00407857
0.00411312
0.00408909
0.00411686
0.00411686
0.00402615
0.0040453
0.0040545
0.00401822
0.00401901
0.00402175
0.00402613
0.00404528
0.00405449
0.0040182
0.00404901
0.00404901
0.00404901
0.00400559
0.00400559
0.00400559
0.00400559
0.00402366
0.00404949
0.00404941
0.00403248
0.00405251
0.00402256
0.00403337
0.00401911
0.00402174
0.00402367
0.00404942
0.0040495
0.00403248
0.00405251
0.00403337
0.00402256
0.00405536
0.00405535
0.00402688
0.00402219
0.00402219
0.00397945
0.00399883
0.00400016
0.00397794
0.00399772
0.00397752
0.00397945
0.00399882
0.00400016
0.00397793
0.00399365
0.00399365
0.00399365
0.00395607
0.00395607
0.00395607
0.00395607
0.00397806
0.00399888
0.00399365
0.0039818
0.00399767
0.00397858
0.00398152
0.00399772
0.00397751
0.00397806
0.00399365
0.00399888
0.00398179
0.00399766
0.00398152
0.00397857
0.00399992
0.00399992
0.00397832
0.00397887
0.00397887
0.00392719
0.00394624
0.00394724
0.00392607
0.00394589
0.0039258
0.00392719
0.00394624
0.00394724
0.00392607
0.00394288
0.00394288
0.00394288
0.00390346
0.00390346
0.00390346
0.00390346
0.00392631
0.00394657
0.00394277
0.00392974
0.00394597
0.00392662
0.00392963
0.00394589
0.00392579
0.00392631
0.00394277
0.00394657
0.00392974
0.00394596
0.00392963
0.00392662
0.00394686
0.00394686
0.00392631
0.00392665
0.00392665
0.00387467
0.00389345
0.00389435
0.0038739
0.00389327
0.00387369
0.00387467
0.00389345
0.00389435
0.0038739
0.00389052
0.00389052
0.00389052
0.00385197
0.00385197
0.00385197
0.00385197
0.00387416
0.00389386
0.00389048
0.00387764
0.00389357
0.00387435
0.00387759
0.00389327
0.00387369
0.00387416
0.00389048
0.00389386
0.00387764
0.00389357
0.00387759
0.00387435
0.00389393
0.00389393
0.00387425
0.00387425
0.00387425
0.00382349
0.00384164
0.00384243
0.00382264
0.00384154
0.00382238
0.00382349
0.00384164
0.00384243
0.00382264
0.00383935
0.00383935
0.00383935
0.00380319
0.00380319
0.00380319
0.00380319
0.00382331
0.00384204
0.00383922
0.00382681
0.00384199
0.00382319
0.00382686
0.00384154
0.00382238
0.00382331
0.00383922
0.00384204
0.00382681
0.00384198
0.00382686
0.00382319
0.00384201
0.00384201
0.0038236
0.00382281
0.00382281
0.00377733
0.0037935
0.00379351
0.00377737
0.00379331
0.00377732
0.00377733
0.0037935
0.00379351
0.00377737
0.00379185
0.00379185
0.00379185
0.00375918
0.00375918
0.00375918
0.00375918
0.00377773
0.00379386
0.00379176
0.00378066
0.00379389
0.00377771
0.00378072
0.0037933
0.00377732
0.00377773