/*--------------------------------*- C++ -*----------------------------------*\
| =========                 |                                                 |
| \\      /  F ield         | OpenFOAM: The Open Source CFD Toolbox           |
|  \\    /   O peration     | Version:  2206                                  |
|   \\  /    A nd           | Website:  www.openfoam.com                      |
|    \\/     M anipulation  |                                                 |
\*---------------------------------------------------------------------------*/
FoamFile
{
    version     2.0;
    format      ascii;
    arch        "LSB;label=32;scalar=64";
    class       volScalarField;
    location    "26";
    object      Ux;
}
// * * * * * * * * * * * * * * * * * * * * * * * * * * * * * * * * * * * * * //

dimensions      [0 1 -1 0 0 0 0];

internalField   nonuniform List<scalar> 
171728
(
0.000107829
-0.000189976
0.000119262
-0.000239347
9.42046e-05
-0.000158958
9.67755e-05
-0.000200625
9.41833e-05
-0.000153193
9.16821e-05
-0.00020047
9.46654e-05
-0.000151784
9.01131e-05
-0.000198074
8.54493e-05
-0.000143995
8.40367e-05
-0.000185332
5.18044e-05
-7.33213e-05
4.2096e-05
-0.000114907
1.71595e-05
-2.30497e-05
1.63166e-05
-6.34684e-05
1.85234e-06
-3.38775e-06
2.84617e-06
-4.58271e-05
-5.2481e-07
-6.11681e-07
8.35486e-07
-4.36977e-05
-6.96076e-07
-4.70945e-07
7.19372e-07
-4.36031e-05
-7.00689e-07
-4.69502e-07
7.17625e-07
-4.3602e-05
-7.04559e-07
-4.73101e-07
7.17439e-07
-4.36025e-05
-7.03295e-07
-4.80409e-07
7.16968e-07
-4.36038e-05
-7.03047e-07
-4.78275e-07
7.16981e-07
-4.36039e-05
-7.06536e-07
-4.72007e-07
7.16393e-07
-4.36032e-05
-7.07581e-07
-4.71134e-07
7.15753e-07
-4.3603e-05
-7.06742e-07
-4.71274e-07
7.15718e-07
-4.3602e-05
-7.0577e-07
-4.71916e-07
7.16434e-07
-4.36029e-05
-7.02933e-07
-4.72783e-07
7.16885e-07
-4.36036e-05
-6.96537e-07
-4.70431e-07
7.183e-07
-4.3604e-05
-6.92416e-07
-4.7676e-07
7.18667e-07
-4.36033e-05
-7.02116e-07
-4.73353e-07
7.17852e-07
-4.36032e-05
-7.03319e-07
-4.71425e-07
7.16865e-07
-4.36022e-05
-7.04891e-07
-4.70453e-07
7.16149e-07
-4.3602e-05
-7.05836e-07
-4.70018e-07
7.15986e-07
-4.36025e-05
-7.05772e-07
-4.70687e-07
7.16562e-07
-4.36029e-05
-7.0548e-07
-4.70937e-07
7.16948e-07
-4.36036e-05
-7.04477e-07
-4.71247e-07
7.17489e-07
-4.36042e-05
-7.04548e-07
-4.71664e-07
7.17165e-07
-4.36045e-05
-7.04994e-07
-4.71302e-07
7.17464e-07
-4.36041e-05
-7.05035e-07
-4.70563e-07
7.16923e-07
-4.36035e-05
-7.06033e-07
-4.6982e-07
7.16285e-07
-4.36032e-05
-7.05557e-07
-4.70124e-07
7.16522e-07
-4.3603e-05
-7.05522e-07
-4.69935e-07
7.16394e-07
-4.36031e-05
-7.049e-07
-4.70499e-07
7.17159e-07
-4.36038e-05
-7.04806e-07
-4.71302e-07
7.17337e-07
-4.36043e-05
-7.04496e-07
-4.70929e-07
7.17655e-07
-4.36044e-05
-7.04784e-07
-4.71351e-07
7.17473e-07
-4.36043e-05
-7.05692e-07
-4.69816e-07
7.16608e-07
-4.36031e-05
-7.05257e-07
-4.69922e-07
7.15905e-07
-4.36003e-05
-7.01016e-07
-4.66617e-07
7.15597e-07
-4.36004e-05
-7.08554e-07
-4.70575e-07
7.15983e-07
-4.36042e-05
-7.05436e-07
-4.70789e-07
7.1633e-07
-4.36045e-05
-7.03703e-07
-4.71526e-07
7.17116e-07
-4.36045e-05
-7.03034e-07
-4.72058e-07
7.16366e-07
-4.36044e-05
-7.03405e-07
-4.71522e-07
7.16415e-07
-4.36042e-05
-7.036e-07
-4.71732e-07
7.15854e-07
-4.36039e-05
-7.04084e-07
-4.70147e-07
7.1571e-07
-4.3603e-05
-7.04175e-07
-4.71394e-07
7.16095e-07
-4.36037e-05
-7.04283e-07
-4.70893e-07
7.16098e-07
-4.36039e-05
-7.03254e-07
-4.71906e-07
7.16545e-07
-4.36049e-05
-7.03073e-07
-4.72087e-07
7.16905e-07
-4.36052e-05
-7.02845e-07
-4.72263e-07
7.16869e-07
-4.36045e-05
-7.02098e-07
-4.72353e-07
7.16936e-07
-4.36044e-05
-7.01475e-07
-4.70742e-07
7.16549e-07
-4.36031e-05
-7.03683e-07
-4.71272e-07
7.15988e-07
-4.36041e-05
-7.03475e-07
-4.72566e-07
7.16214e-07
-4.36064e-05
-7.0257e-07
-4.73696e-07
7.17312e-07
-4.36068e-05
-7.01728e-07
-4.73765e-07
7.17612e-07
-4.36071e-05
-7.01501e-07
-4.74737e-07
7.18023e-07
-4.36076e-05
-7.01378e-07
-4.74683e-07
7.18557e-07
-4.36076e-05
-7.01506e-07
-4.73695e-07
7.17774e-07
-4.36068e-05
-7.01857e-07
-4.73544e-07
7.17542e-07
-4.36068e-05
-7.03256e-07
-4.72484e-07
7.16797e-07
-4.36057e-05
-7.02446e-07
-4.73212e-07
7.17438e-07
-4.36062e-05
-7.0223e-07
-4.73067e-07
7.17216e-07
-4.36066e-05
-7.01702e-07
-4.74016e-07
7.1805e-07
-4.3607e-05
-7.01328e-07
-4.74687e-07
7.18343e-07
-4.36078e-05
-7.01067e-07
-4.73894e-07
7.19404e-07
-4.36088e-05
-7.00706e-07
-4.74122e-07
7.25008e-07
-4.36118e-05
-7.01897e-07
-4.72604e-07
7.20829e-07
-4.36099e-05
-7.02468e-07
-4.73564e-07
7.17728e-07
-4.36065e-05
-7.02584e-07
-4.72067e-07
7.16833e-07
-4.36061e-05
-7.02165e-07
-4.7397e-07
7.17679e-07
-4.3607e-05
-7.01733e-07
-4.73816e-07
7.17842e-07
-4.36078e-05
-7.01306e-07
-4.74169e-07
7.18653e-07
-4.36082e-05
-7.01229e-07
-4.74606e-07
7.18901e-07
-4.36082e-05
-7.01946e-07
-4.73854e-07
7.17829e-07
-4.3608e-05
-7.02244e-07
-4.73235e-07
7.17671e-07
-4.36074e-05
-7.02712e-07
-4.72892e-07
7.17529e-07
-4.3607e-05
-7.02754e-07
-4.73382e-07
7.17353e-07
-4.3607e-05
-7.02157e-07
-4.72931e-07
7.17717e-07
-4.36074e-05
-7.01457e-07
-4.74252e-07
7.18095e-07
-4.36081e-05
-7.01282e-07
-4.74486e-07
7.18081e-07
-4.36081e-05
-7.01322e-07
-4.74618e-07
7.18247e-07
-4.36081e-05
-7.01716e-07
-4.73273e-07
7.17891e-07
-4.36076e-05
-7.03632e-07
-4.71259e-07
7.16105e-07
-4.36069e-05
-7.11268e-07
-4.63778e-07
7.09063e-07
-4.35998e-05
-7.20689e-07
-4.70459e-07
6.9873e-07
-4.35384e-05
-7.59496e-07
-5.65555e-07
7.57237e-07
-4.31292e-05
-5.10938e-07
-1.01988e-06
1.05957e-06
-4.3151e-05
-4.35928e-07
-1.78761e-06
1.57275e-06
-4.16676e-05
-2.87824e-07
-3.45059e-06
2.90636e-06
-3.87609e-05
-5.63123e-06
-2.38554e-06
3.33275e-06
-2.6365e-05
-4.17988e-05
4.16089e-05
-3.42165e-05
4.73307e-05
0.000135131
0.00012429
-0.000124282
-0.000135127
0.000153009
0.000152981
9.0789e-05
-9.07793e-05
9.07629e-05
-9.07605e-05
-0.000153004
-0.00015299
0.000135121
0.000124241
-0.000124238
-0.00013513
0.000239391
0.000111892
0.000119311
-0.000119262
8.88844e-05
-8.88446e-05
-0.000239401
-0.000111852
0.000190012
0.00018995
0.000146789
0.00014682
-0.000189932
-0.000146758
-0.00014678
0.000239321
0.000111844
-0.000119242
8.88591e-05
-8.88378e-05
-0.000111842
0.000200713
0.00010662
9.67838e-05
-9.67573e-05
9.4411e-05
-9.44117e-05
-0.000200675
-0.00010661
0.00015899
0.000159008
0.000156458
0.000156496
-0.000158985
-0.000156453
-0.000156473
0.000200623
0.000106587
-9.67577e-05
9.44146e-05
-9.44201e-05
-0.000106601
0.000200537
0.000100744
9.16736e-05
-9.16754e-05
9.34731e-05
-9.3461e-05
-0.000200524
-0.000100725
0.0001532
0.000153244
0.000156462
0.000156496
-0.000153226
-0.000156459
-0.000156494
0.000200451
0.0001007
-9.16881e-05
9.34784e-05
-9.34687e-05
-0.000100757
0.000198102
8.98687e-05
9.01002e-05
-9.00868e-05
8.64552e-05
-8.64484e-05
-0.000198093
-8.98571e-05
0.00015179
0.00015182
0.000146839
0.000146868
-0.000151821
-0.000146832
-0.00014687
0.000198018
8.98334e-05
-9.0095e-05
8.64557e-05
-8.64418e-05
-8.98961e-05
0.000185349
3.40109e-05
8.4009e-05
-8.39939e-05
5.09663e-05
-5.09797e-05
-0.000185347
-3.39831e-05
0.000143998
0.000144026
9.14135e-05
9.1449e-05
-0.000144031
-9.14107e-05
-9.14581e-05
0.000185262
3.403e-05
-8.40163e-05
5.09308e-05
-5.09175e-05
-3.4018e-05
0.000114931
-2.16595e-05
4.21243e-05
-4.21433e-05
2.23385e-05
-2.23425e-05
-0.000114924
2.16667e-05
7.33279e-05
7.33505e-05
3.30329e-05
3.304e-05
-7.3345e-05
-3.30252e-05
-3.30245e-05
0.000114904
-2.16344e-05
-4.20824e-05
2.2306e-05
-2.23044e-05
2.16613e-05
6.34981e-05
-4.2471e-05
1.63494e-05
-1.63452e-05
4.60774e-06
-4.60018e-06
-6.34888e-05
4.24816e-05
2.30621e-05
2.30685e-05
5.76956e-06
5.78383e-06
-2.30543e-05
-5.76122e-06
-5.78662e-06
6.34701e-05
-4.24544e-05
-1.63143e-05
4.572e-06
-4.57323e-06
4.24532e-05
4.58363e-05
-4.54436e-05
2.87563e-06
-2.87204e-06
1.00351e-06
-1.00375e-06
-4.58277e-05
4.54465e-05
3.39706e-06
3.40814e-06
8.20102e-07
8.40226e-07
-3.41268e-06
-8.17525e-07
-8.40468e-07
4.5812e-05
-4.54168e-05
-2.84677e-06
9.76522e-07
-9.75761e-07
4.54199e-05
4.37025e-05
-4.55859e-05
8.61256e-07
-8.61267e-07
7.52124e-07
-7.50029e-07
-4.37003e-05
4.55914e-05
6.17141e-07
6.33729e-07
4.78447e-07
5.00594e-07
-6.33557e-07
-4.75292e-07
-4.98178e-07
4.36869e-05
-4.55587e-05
-8.33615e-07
7.23983e-07
-7.21859e-07
4.55636e-05
4.36104e-05
-4.55844e-05
7.47487e-07
-7.43004e-07
7.52562e-07
-7.42118e-07
-4.36068e-05
4.55974e-05
4.77554e-07
4.95065e-07
4.72665e-07
4.94755e-07
-4.93326e-07
-4.67838e-07
-4.91808e-07
4.35937e-05
-4.55601e-05
-7.16892e-07
7.16439e-07
-7.13695e-07
4.55657e-05
4.3612e-05
-4.55855e-05
7.51916e-07
-7.41109e-07
7.42862e-07
-7.44539e-07
-4.36054e-05
4.55951e-05
4.76012e-07
4.94544e-07
4.72431e-07
4.95311e-07
-4.92178e-07
-4.70142e-07
-4.92721e-07
4.35933e-05
-4.55593e-05
-7.14108e-07
7.16704e-07
-7.13805e-07
4.55649e-05
4.36098e-05
-4.5587e-05
7.42823e-07
-7.44018e-07
7.40721e-07
-7.4354e-07
-4.36076e-05
4.55918e-05
4.76543e-07
4.94683e-07
4.71222e-07
4.94573e-07
-4.93269e-07
-4.7742e-07
-4.94658e-07
4.35933e-05
-4.55601e-05
-7.14387e-07
7.1607e-07
-7.14087e-07
4.55635e-05
4.36088e-05
-4.55878e-05
7.41111e-07
-7.4243e-07
7.40547e-07
-7.4153e-07
-4.3611e-05
4.55892e-05
4.74495e-07
4.93826e-07
4.7106e-07
4.93924e-07
-4.95334e-07
-4.77736e-07
-4.95396e-07
4.35927e-05
-4.55604e-05
-7.14479e-07
7.16213e-07
-7.14212e-07
4.55634e-05
4.36084e-05
-4.55843e-05
7.41882e-07
-7.41527e-07
7.39382e-07
-7.44442e-07
-4.36132e-05
4.55923e-05
4.74755e-07
4.93277e-07
4.71311e-07
4.93694e-07
-4.95399e-07
-4.70944e-07
-4.9387e-07
4.35924e-05
-4.55608e-05
-7.14751e-07
7.15739e-07
-7.14531e-07
4.55643e-05
4.36094e-05
-4.55871e-05
7.37324e-07
-7.46243e-07
7.35169e-07
-7.53863e-07
-4.36122e-05
4.55889e-05
4.74549e-07
4.93105e-07
4.70505e-07
4.93461e-07
-4.93735e-07
-4.70931e-07
-4.93178e-07
4.35922e-05
-4.55612e-05
-7.15038e-07
7.14951e-07
-7.14642e-07
4.55645e-05
4.36071e-05
-4.55847e-05
7.34259e-07
-7.4989e-07
7.37405e-07
-7.44112e-07
-4.36115e-05
4.55905e-05
4.74049e-07
4.92861e-07
4.71336e-07
4.93187e-07
-4.93228e-07
-4.69746e-07
-4.92086e-07
4.35919e-05
-4.55612e-05
-7.149e-07
7.14843e-07
-7.13877e-07
4.55655e-05
4.36087e-05
-4.55851e-05
7.36393e-07
-7.43692e-07
7.37612e-07
-7.42567e-07
-4.36085e-05
4.55927e-05
4.74935e-07
4.92729e-07
4.7184e-07
4.9384e-07
-4.92093e-07
-4.70071e-07
-4.9235e-07
4.35918e-05
-4.55609e-05
-7.14068e-07
7.15364e-07
-7.1408e-07
4.55654e-05
4.36092e-05
-4.55867e-05
7.35484e-07
-7.43354e-07
7.39522e-07
-7.48554e-07
-4.36069e-05
4.55908e-05
4.7566e-07
4.93582e-07
4.71895e-07
4.94567e-07
-4.93062e-07
-4.7136e-07
-4.93245e-07
4.35927e-05
-4.55603e-05
-7.14694e-07
7.15863e-07
-7.14077e-07
4.55647e-05
4.36109e-05
-4.55875e-05
7.41542e-07
-7.4949e-07
7.42755e-07
-7.39225e-07
-4.36123e-05
4.55957e-05
4.75251e-07
4.94059e-07
4.73215e-07
4.94852e-07
-4.94601e-07
-4.70917e-07
-4.98603e-07
4.35935e-05
-4.55598e-05
-7.13987e-07
7.16933e-07
-7.12485e-07
4.55634e-05
4.36137e-05
-4.55912e-05
7.42576e-07
-7.28937e-07
7.46153e-07
-7.44013e-07
-4.35954e-05
4.5583e-05
4.77893e-07
4.9456e-07
4.79949e-07
4.95901e-07
-4.99151e-07
-4.75756e-07
-4.93081e-07
4.35936e-05
-4.55588e-05
-7.12829e-07
7.18125e-07
-7.13464e-07
4.5564e-05
4.36113e-05
-4.55895e-05
7.47677e-07
-7.4238e-07
7.39889e-07
-7.41899e-07
-4.36131e-05
4.55948e-05
4.82248e-07
4.95269e-07
4.74683e-07
4.95127e-07
-4.92936e-07
-4.71687e-07
-4.9319e-07
4.35939e-05
-4.55593e-05
-7.14061e-07
7.17106e-07
-7.1411e-07
4.5564e-05
4.36141e-05
-4.55894e-05
7.3963e-07
-7.43759e-07
7.41083e-07
-7.44412e-07
-4.36036e-05
4.55908e-05
4.76483e-07
4.94368e-07
4.72679e-07
4.94289e-07
-4.9321e-07
-4.7054e-07
-4.92476e-07
4.35934e-05
-4.55598e-05
-7.14681e-07
7.16173e-07
-7.14159e-07
4.55649e-05
4.36146e-05
-4.55901e-05
7.4042e-07
-7.44607e-07
7.40524e-07
-7.45032e-07
-4.36065e-05
4.55905e-05
4.76016e-07
4.93751e-07
4.71208e-07
4.93682e-07
-4.92571e-07
-4.69475e-07
-4.92097e-07
4.35926e-05
-4.55604e-05
-7.14525e-07
7.15457e-07
-7.13648e-07
4.55652e-05
4.36139e-05
-4.55907e-05
7.40503e-07
-7.44949e-07
7.40598e-07
-7.45511e-07
-4.36064e-05
4.55904e-05
4.74924e-07
4.93023e-07
4.70393e-07
4.93277e-07
-4.9201e-07
-4.68914e-07
-4.91491e-07
4.35921e-05
-4.55606e-05
-7.14138e-07
7.15297e-07
-7.13865e-07
4.55649e-05
4.36133e-05
-4.5591e-05
7.4027e-07
-7.45212e-07
7.40426e-07
-7.45593e-07
-4.36065e-05
4.55903e-05
4.741e-07
4.92613e-07
4.70505e-07
4.93448e-07
-4.91509e-07
-4.69178e-07
-4.91241e-07
4.35919e-05
-4.55605e-05
-7.14289e-07
7.15456e-07
-7.13971e-07
4.55646e-05
4.36134e-05
-4.55903e-05
7.4078e-07
-7.45705e-07
7.41378e-07
-7.45954e-07
-4.36069e-05
4.55897e-05
4.74715e-07
4.93178e-07
4.71192e-07
4.94021e-07
-4.91744e-07
-4.69583e-07
-4.91715e-07
4.35922e-05
-4.55599e-05
-7.14685e-07
7.16034e-07
-7.14518e-07
4.55637e-05
4.36141e-05
-4.55897e-05
7.41479e-07
-7.46193e-07
7.42669e-07
-7.45761e-07
-4.36076e-05
4.55895e-05
4.75032e-07
4.93528e-07
4.71557e-07
4.94457e-07
-4.91784e-07
-4.69862e-07
-4.92144e-07
4.35927e-05
-4.55595e-05
-7.14898e-07
7.16412e-07
-7.14837e-07
4.55633e-05
4.36146e-05
-4.55893e-05
7.42919e-07
-7.46213e-07
7.43014e-07
-7.45659e-07
-4.36075e-05
4.5589e-05
4.75691e-07
4.9426e-07
4.71904e-07
4.94965e-07
-4.92721e-07
-4.7049e-07
-4.92682e-07
4.35931e-05
-4.55592e-05
-7.15535e-07
7.16589e-07
-7.1525e-07
4.55627e-05
4.36148e-05
-4.559e-05
7.42938e-07
-7.46785e-07
7.42486e-07
-7.44877e-07
-4.36083e-05
4.55895e-05
4.75555e-07
4.94111e-07
4.7145e-07
4.94643e-07
-4.92722e-07
-4.70271e-07
-4.92255e-07
4.35932e-05
-4.55596e-05
-7.15571e-07
7.1651e-07
-7.15025e-07
4.55631e-05
4.36143e-05
-4.55903e-05
7.42277e-07
-7.47593e-07
7.42441e-07
-7.42914e-07
-4.3608e-05
4.55897e-05
4.75296e-07
4.94199e-07
4.70984e-07
4.94063e-07
-4.92207e-07
-4.69488e-07
-4.91479e-07
4.35931e-05
-4.556e-05
-7.15146e-07
7.16188e-07
-7.14382e-07
4.55639e-05
4.36139e-05
-4.55906e-05
7.42643e-07
-7.49469e-07
7.41888e-07
-7.44519e-07
-4.36082e-05
4.55911e-05
4.7477e-07
4.93442e-07
4.70524e-07
4.93508e-07
-4.91874e-07
-4.69e-07
-4.91135e-07
4.35924e-05
-4.55604e-05
-7.14994e-07
7.1572e-07
-7.14181e-07
4.55639e-05
4.36134e-05
-4.55911e-05
7.41373e-07
-7.46518e-07
7.41953e-07
-7.46748e-07
-4.36074e-05
4.5592e-05
4.73954e-07
4.92667e-07
4.69937e-07
4.93019e-07
-4.9108e-07
-4.68752e-07
-4.90754e-07
4.3592e-05
-4.55607e-05
-7.14275e-07
7.15559e-07
-7.14059e-07
4.55643e-05
4.36133e-05
-4.55903e-05
7.42269e-07
-7.4685e-07
7.42218e-07
-7.4699e-07
-4.36063e-05
4.55922e-05
4.74215e-07
4.92917e-07
4.7056e-07
4.93519e-07
-4.91115e-07
-4.68557e-07
-4.90733e-07
4.35919e-05
-4.55603e-05
-7.14354e-07
7.15723e-07
-7.13909e-07
4.55643e-05
4.36138e-05
-4.55903e-05
7.42095e-07
-7.46835e-07
7.42258e-07
-7.47661e-07
-4.3606e-05
4.55919e-05
4.7426e-07
4.92935e-07
4.71023e-07
4.94032e-07
-4.91131e-07
-4.69185e-07
-4.91536e-07
4.35922e-05
-4.556e-05
-7.14373e-07
7.1603e-07
-7.14442e-07
4.55636e-05
4.36142e-05
-4.559e-05
7.42642e-07
-7.47596e-07
7.4245e-07
-7.48196e-07
-4.36062e-05
4.55912e-05
4.75308e-07
4.93998e-07
4.71271e-07
4.94365e-07
-4.92103e-07
-4.69836e-07
-4.92138e-07
4.35928e-05
-4.55595e-05
-7.1497e-07
7.16569e-07
-7.15055e-07
4.55631e-05
4.36142e-05
-4.55896e-05
7.42519e-07
-7.48144e-07
7.42636e-07
-7.48535e-07
-4.36072e-05
4.55912e-05
4.75228e-07
4.94e-07
4.71696e-07
4.94669e-07
-4.92436e-07
-4.69908e-07
-4.92209e-07
4.35931e-05
-4.55592e-05
-7.15455e-07
7.16851e-07
-7.15232e-07
4.5563e-05
4.36146e-05
-4.55897e-05
7.42873e-07
-7.47915e-07
7.42488e-07
-7.48811e-07
-4.36068e-05
4.55908e-05
4.75574e-07
4.94247e-07
4.71737e-07
4.94731e-07
-4.92522e-07
-4.70248e-07
-4.92394e-07
4.35934e-05
-4.55593e-05
-7.1557e-07
7.16914e-07
-7.15479e-07
4.55629e-05
4.36142e-05
-4.55903e-05
7.42597e-07
-7.4825e-07
7.4188e-07
-7.48046e-07
-4.36073e-05
4.55921e-05
4.75275e-07
4.94089e-07
4.70666e-07
4.93562e-07
-4.92395e-07
-4.68908e-07
-4.91207e-07
4.35932e-05
-4.55603e-05
-7.15529e-07
7.16033e-07
-7.14649e-07
4.55638e-05
4.36132e-05
-4.55908e-05
7.42242e-07
-7.46862e-07
7.40262e-07
-7.48849e-07
-4.36054e-05
4.55933e-05
4.74024e-07
4.92948e-07
4.72198e-07
4.94276e-07
-4.91678e-07
-4.68984e-07
-4.94176e-07
4.35921e-05
-4.55613e-05
-7.14769e-07
7.15331e-07
-7.13732e-07
4.55666e-05
4.36111e-05
-4.5584e-05
7.40367e-07
-7.4598e-07
7.39447e-07
-7.45661e-07
-4.36043e-05
4.55942e-05
4.76922e-07
4.94262e-07
4.77026e-07
4.94322e-07
-4.96751e-07
-4.65179e-07
-4.96254e-07
4.35915e-05
-4.55621e-05
-7.11711e-07
7.14375e-07
-7.09217e-07
4.55679e-05
4.36176e-05
-4.55939e-05
7.45043e-07
-7.45628e-07
7.35654e-07
-7.51382e-07
-4.3606e-05
4.55871e-05
4.8173e-07
4.93884e-07
4.70027e-07
4.93658e-07
-4.93289e-07
-4.69757e-07
-4.91796e-07
4.35909e-05
-4.55618e-05
-7.11316e-07
7.1538e-07
-7.14104e-07
4.55639e-05
4.36058e-05
-4.55903e-05
7.36572e-07
-7.53828e-07
7.39189e-07
-7.44428e-07
-4.36138e-05
4.55911e-05
4.72494e-07
4.93268e-07
4.71031e-07
4.94256e-07
-4.9282e-07
-4.69291e-07
-4.92689e-07
4.35912e-05
-4.55613e-05
-7.14798e-07
7.15633e-07
-7.15154e-07
4.5563e-05
4.36089e-05
-4.55882e-05
7.39306e-07
-7.44244e-07
7.41154e-07
-7.44247e-07
-4.36068e-05
4.55919e-05
4.74226e-07
4.93863e-07
4.72033e-07
4.94727e-07
-4.92584e-07
-4.70439e-07
-4.92366e-07
4.35917e-05
-4.55607e-05
-7.15215e-07
7.16479e-07
-7.15145e-07
4.55632e-05
4.36107e-05
-4.5587e-05
7.41128e-07
-7.43769e-07
7.41975e-07
-7.44063e-07
-4.36064e-05
4.5592e-05
4.75952e-07
4.94808e-07
4.73194e-07
4.95435e-07
-4.92928e-07
-4.70798e-07
-4.92351e-07
4.35922e-05
-4.55602e-05
-7.15503e-07
7.16904e-07
-7.15138e-07
4.55631e-05
4.36117e-05
-4.55875e-05
7.41049e-07
-7.44047e-07
7.4107e-07
-7.43602e-07
-4.36063e-05
4.55927e-05
4.76527e-07
4.94931e-07
4.72287e-07
4.94679e-07
-4.92486e-07
-4.70393e-07
-4.91882e-07
4.35924e-05
-4.55607e-05
-7.15036e-07
7.16561e-07
-7.15029e-07
4.55633e-05
4.36111e-05
-4.55874e-05
7.40228e-07
-7.43532e-07
7.40093e-07
-7.43914e-07
-4.36054e-05
4.55924e-05
4.75826e-07
4.94356e-07
4.72874e-07
4.94527e-07
-4.92313e-07
-4.70685e-07
-4.9181e-07
4.3592e-05
-4.55609e-05
-7.15208e-07
7.16276e-07
-7.14942e-07
4.55634e-05
4.36113e-05
-4.55877e-05
7.39265e-07
-7.4374e-07
7.39434e-07
-7.42971e-07
-4.36059e-05
4.55938e-05
4.7623e-07
4.93867e-07
4.72173e-07
4.93777e-07
-4.91856e-07
-4.69229e-07
-4.90483e-07
4.35917e-05
-4.55616e-05
-7.14948e-07
7.15801e-07
-7.14212e-07
4.55645e-05
4.36109e-05
-4.55879e-05
7.38665e-07
-7.42661e-07
7.39095e-07
-7.4346e-07
-4.36042e-05
4.5593e-05
4.75531e-07
4.93426e-07
4.72085e-07
4.94053e-07
-4.90798e-07
-4.70031e-07
-4.90891e-07
4.35912e-05
-4.55611e-05
-7.14422e-07
7.16259e-07
-7.14702e-07
4.55639e-05
4.36107e-05
-4.55881e-05
7.38413e-07
-7.4351e-07
7.38954e-07
-7.43144e-07
-4.36055e-05
4.55935e-05
4.75504e-07
4.93667e-07
4.71775e-07
4.93894e-07
-4.91301e-07
-4.69738e-07
-4.91009e-07
4.35916e-05
-4.55612e-05
-7.14958e-07
7.16156e-07
-7.14902e-07
4.55636e-05
4.36106e-05
-4.55871e-05
7.38417e-07
-7.4306e-07
7.39704e-07
-7.43749e-07
-4.36046e-05
4.55927e-05
4.753e-07
4.93618e-07
4.728e-07
4.94612e-07
-4.91285e-07
-4.70441e-07
-4.91688e-07
4.35915e-05
-4.55606e-05
-7.15035e-07
7.16605e-07
-7.15512e-07
4.55628e-05
4.36117e-05
-4.55867e-05
7.39281e-07
-7.43728e-07
7.40169e-07
-7.44176e-07
-4.36057e-05
4.55921e-05
4.76563e-07
4.94536e-07
4.73468e-07
4.95356e-07
-4.92245e-07
-4.71226e-07
-4.92433e-07
4.35921e-05
-4.55602e-05
-7.15768e-07
7.16996e-07
-7.15823e-07
4.55623e-05
4.36119e-05
-4.55866e-05
7.39393e-07
-7.4387e-07
7.40165e-07
-7.43943e-07
-4.36061e-05
4.55922e-05
4.76694e-07
4.94801e-07
4.73294e-07
4.94945e-07
-4.92592e-07
-4.7106e-07
-4.91706e-07
4.35924e-05
-4.55602e-05
-7.16052e-07
7.16963e-07
-7.15637e-07
4.55629e-05
4.36121e-05
-4.55853e-05
7.39848e-07
-7.43998e-07
7.41248e-07
-7.43332e-07
-4.36063e-05
4.55917e-05
4.77002e-07
4.94682e-07
4.74097e-07
4.95362e-07
-4.9203e-07
-4.71488e-07
-4.91909e-07
4.35923e-05
-4.55598e-05
-7.15793e-07
7.17161e-07
-7.15785e-07
4.55626e-05
4.36127e-05
-4.55849e-05
7.40956e-07
-7.42094e-07
7.42612e-07
-7.33345e-07
-4.36054e-05
4.55962e-05
4.77646e-07
4.94775e-07
4.74063e-07
4.94406e-07
-4.91805e-07
-4.69581e-07
-4.90035e-07
4.35924e-05
-4.55606e-05
-7.15617e-07
7.16638e-07
-7.14606e-07
4.55641e-05
4.36129e-05
-4.55871e-05
7.41932e-07
-7.32748e-07
7.40233e-07
-7.4243e-07
-4.36009e-05
4.55949e-05
4.7746e-07
4.93796e-07
4.72904e-07
4.93743e-07
-4.90066e-07
-4.70299e-07
-4.9068e-07
4.35915e-05
-4.55611e-05
-7.14418e-07
7.16297e-07
-7.14165e-07
4.55639e-05
4.36112e-05
-4.55884e-05
7.38976e-07
-7.41562e-07
7.39312e-07
-7.42568e-07
-4.36036e-05
4.55931e-05
4.75833e-07
4.92763e-07
4.71353e-07
4.91657e-07
-4.92769e-07
-4.71596e-07
-4.97696e-07
4.35912e-05
-4.55624e-05
-7.14081e-07
7.16045e-07
-7.13263e-07
4.55611e-05
4.36102e-05
-4.55884e-05
7.3879e-07
-7.41656e-07
7.39731e-07
-7.42355e-07
-4.36048e-05
4.55922e-05
4.74653e-07
4.9085e-07
4.71204e-07
4.91658e-07
-4.99207e-07
-4.72302e-07
-4.97941e-07
4.35902e-05
-4.55622e-05
-7.12996e-07
7.17177e-07
-7.13446e-07
4.55608e-05
4.36103e-05
-4.55877e-05
7.39302e-07
-7.42561e-07
7.40275e-07
-7.4288e-07
-4.36062e-05
4.55917e-05
4.74947e-07
4.91391e-07
4.72076e-07
4.92316e-07
-4.9944e-07
-4.72891e-07
-4.98372e-07
4.35905e-05
-4.55617e-05
-7.13603e-07
7.17667e-07
-7.13957e-07
4.55604e-05
4.36109e-05
-4.55876e-05
7.39663e-07
-7.42594e-07
7.40345e-07
-7.43115e-07
-4.36064e-05
4.55914e-05
4.755e-07
4.9178e-07
4.7211e-07
4.92416e-07
-4.99593e-07
-4.73342e-07
-4.98828e-07
4.35909e-05
-4.55615e-05
-7.1405e-07
7.17917e-07
-7.14762e-07
4.556e-05
4.3611e-05
-4.55872e-05
7.39764e-07
-7.43333e-07
7.40518e-07
-7.43892e-07
-4.3607e-05
4.55907e-05
4.75706e-07
4.92062e-07
4.72672e-07
4.93141e-07
-5.00255e-07
-4.73929e-07
-4.99251e-07
4.35912e-05
-4.55608e-05
-7.14951e-07
7.18567e-07
-7.15109e-07
4.55598e-05
4.36113e-05
-4.55878e-05
7.39733e-07
-7.43595e-07
7.40272e-07
-7.43186e-07
-4.36073e-05
4.55918e-05
4.75893e-07
4.92693e-07
4.72202e-07
4.92639e-07
-5.00335e-07
-4.72906e-07
-4.98327e-07
4.35919e-05
-4.55614e-05
-7.15035e-07
7.18082e-07
-7.14622e-07
4.55606e-05
4.36109e-05
-4.55876e-05
7.39759e-07
-7.42893e-07
7.40288e-07
-7.4312e-07
-4.36063e-05
4.55919e-05
4.75525e-07
4.91943e-07
4.72142e-07
4.92381e-07
-4.99369e-07
-4.72608e-07
-4.98248e-07
4.35911e-05
-4.55618e-05
-7.1447e-07
7.17646e-07
-7.14635e-07
4.55607e-05
4.36108e-05
-4.55889e-05
7.39419e-07
-7.42941e-07
7.39263e-07
-7.42518e-07
-4.36062e-05
4.55926e-05
4.75141e-07
4.91785e-07
4.70965e-07
4.9124e-07
-4.99409e-07
-4.71588e-07
-4.9714e-07
4.35907e-05
-4.55626e-05
-7.14555e-07
7.16877e-07
-7.13917e-07
4.55616e-05
4.36095e-05
-4.55884e-05
7.38426e-07
-7.42264e-07
7.39501e-07
-7.42736e-07
-4.36054e-05
4.55923e-05
4.73432e-07
4.90544e-07
4.71695e-07
4.91687e-07
-4.98127e-07
-4.71942e-07
-4.97366e-07
4.35899e-05
-4.55621e-05
-7.13765e-07
7.17279e-07
-7.14074e-07
4.55615e-05
4.36103e-05
-4.55881e-05
7.39062e-07
-7.42736e-07
7.39919e-07
-7.42925e-07
-4.36059e-05
4.5592e-05
4.73981e-07
4.91411e-07
4.72294e-07
4.91913e-07
-4.98875e-07
-4.72241e-07
-4.97736e-07
4.35906e-05
-4.55619e-05
-7.14378e-07
7.17501e-07
-7.15051e-07
4.55608e-05
4.36103e-05
-4.55881e-05
7.3916e-07
-7.42653e-07
7.39985e-07
-7.4308e-07
-4.3606e-05
4.55918e-05
4.74094e-07
4.91183e-07
4.72535e-07
4.92052e-07
-4.98654e-07
-4.72571e-07
-4.97833e-07
4.35906e-05
-4.55617e-05
-7.14894e-07
7.17557e-07
-7.15153e-07
4.55608e-05
4.36106e-05
-4.55874e-05
7.39573e-07
-7.43165e-07
7.40383e-07
-7.43643e-07
-4.36064e-05
4.55911e-05
4.74874e-07
4.91995e-07
4.73138e-07
4.92912e-07
-4.99513e-07
-4.73542e-07
-4.98895e-07
4.35913e-05
-4.55607e-05
-7.15447e-07
7.18482e-07
-7.15984e-07
4.55598e-05
4.36108e-05
-4.55875e-05
7.39646e-07
-7.43568e-07
7.40403e-07
-7.43465e-07
-4.36067e-05
4.55913e-05
4.75013e-07
4.9244e-07
4.73023e-07
4.93557e-07
-5.00316e-07
-4.72984e-07
-4.99306e-07
4.3592e-05
-4.55594e-05
-7.16078e-07
7.1881e-07
-7.16943e-07
4.55582e-05
4.36105e-05
-4.55874e-05
7.39626e-07
-7.43115e-07
7.4025e-07
-7.43578e-07
-4.36059e-05
4.5591e-05
4.74862e-07
4.93553e-07
4.7283e-07
4.96186e-07
-5.01176e-07
-4.73166e-07
-5.01735e-07
4.35927e-05
-4.55544e-05
-7.1774e-07
7.23526e-07
-7.21109e-07
4.55538e-05
4.36104e-05
-4.55883e-05
7.39743e-07
-7.43407e-07
7.39691e-07
-7.42742e-07
-4.36064e-05
4.55923e-05
4.74825e-07
4.95865e-07
4.71796e-07
4.93962e-07
-5.03292e-07
-4.7196e-07
-5.00007e-07
4.35962e-05
-4.55584e-05
-7.21895e-07
7.23075e-07
-7.20282e-07
4.55567e-05
4.36097e-05
-4.55887e-05
7.3882e-07
-7.42428e-07
7.3937e-07
-7.43022e-07
-4.36052e-05
4.55918e-05
4.73551e-07
4.92591e-07
4.71709e-07
4.91824e-07
-5.00209e-07
-4.72257e-07
-4.97536e-07
4.35935e-05
-4.55619e-05
-7.18571e-07
7.1774e-07
-7.15287e-07
4.55611e-05
4.36098e-05
-4.55889e-05
7.38674e-07
-7.43063e-07
7.39349e-07
-7.42371e-07
-4.36064e-05
4.55928e-05
4.7367e-07
4.91248e-07
4.71594e-07
4.91511e-07
-4.98842e-07
-4.7136e-07
-4.97128e-07
4.35906e-05
-4.55624e-05
-7.15602e-07
7.17095e-07
-7.14861e-07
4.55612e-05
4.36097e-05
-4.55884e-05
7.38777e-07
-7.41927e-07
7.39761e-07
-7.42992e-07
-4.36049e-05
4.55919e-05
4.7362e-07
4.90857e-07
4.72039e-07
4.918e-07
-4.98034e-07
-4.72368e-07
-4.97476e-07
4.35901e-05
-4.55619e-05
-7.14684e-07
7.17477e-07
-7.15278e-07
4.55608e-05
4.36103e-05
-4.55879e-05
7.39264e-07
-7.43174e-07
7.40233e-07
-7.43116e-07
-4.36065e-05
4.55919e-05
4.74352e-07
4.91622e-07
4.72836e-07
4.92389e-07
-4.99176e-07
-4.72777e-07
-4.98186e-07
4.35909e-05
-4.55613e-05
-7.15667e-07
7.17997e-07
-7.16076e-07
4.55597e-05
4.36107e-05
-4.55878e-05
7.39485e-07
-7.42905e-07
7.40242e-07
-7.43304e-07
-4.3606e-05
4.55915e-05
4.74739e-07
4.91706e-07
4.73055e-07
4.92596e-07
-4.99457e-07
-4.72994e-07
-4.98405e-07
4.35913e-05
-4.55611e-05
-7.16231e-07
7.18256e-07
-7.16483e-07
4.55593e-05
4.36109e-05
-4.55874e-05
7.39789e-07
-7.43208e-07
7.40594e-07
-7.43834e-07
-4.36065e-05
4.55909e-05
4.75251e-07
4.9243e-07
4.73435e-07
4.9333e-07
-4.99631e-07
-4.73655e-07
-4.98391e-07
4.35918e-05
-4.55601e-05
-7.16491e-07
7.19109e-07
-7.16684e-07
4.55592e-05
4.3611e-05
-4.5588e-05
7.39844e-07
-7.43776e-07
7.40058e-07
-7.4353e-07
-4.36072e-05
4.55913e-05
4.7532e-07
4.92705e-07
4.72811e-07
4.92336e-07
-4.99671e-07
-4.73184e-07
-4.98335e-07
4.35923e-05
-4.55614e-05
-7.16764e-07
7.18052e-07
-7.16812e-07
4.55593e-05
4.36104e-05
-4.55884e-05
7.39224e-07
-7.43054e-07
7.39887e-07
-7.42799e-07
-4.36066e-05
4.55922e-05
4.74492e-07
4.91612e-07
4.72238e-07
4.91849e-07
-4.99289e-07
-4.72284e-07
-4.97552e-07
4.3591e-05
-4.55618e-05
-7.16668e-07
7.17669e-07
-7.16211e-07
4.556e-05
4.36101e-05
-4.55888e-05
7.39217e-07
-7.42565e-07
7.3948e-07
-7.428e-07
-4.36058e-05
4.55922e-05
4.74192e-07
4.91313e-07
4.719e-07
4.91669e-07
-4.98789e-07
-4.71994e-07
-4.97155e-07
4.35908e-05
-4.55617e-05
-7.16113e-07
7.17641e-07
-7.15868e-07
4.55603e-05
4.36098e-05
-4.55889e-05
7.38809e-07
-7.42732e-07
7.39411e-07
-7.42763e-07
-4.36058e-05
4.55923e-05
4.73807e-07
4.9115e-07
4.71711e-07
4.91366e-07
-4.98058e-07
-4.72106e-07
-4.97135e-07
4.35907e-05
-4.55621e-05
-7.15658e-07
7.17308e-07
-7.15714e-07
4.55604e-05
4.36096e-05
-4.55883e-05
7.387e-07
-7.42677e-07
7.39868e-07
-7.42571e-07
-4.36058e-05
4.55924e-05
4.73694e-07
4.90906e-07
4.72263e-07
4.91755e-07
-4.98455e-07
-4.71887e-07
-4.97307e-07
4.35904e-05
-4.55616e-05
-7.1577e-07
7.17617e-07
-7.15903e-07
4.55601e-05
4.36104e-05
-4.55878e-05
7.39394e-07
-7.42407e-07
7.40241e-07
-7.43309e-07
-4.36054e-05
4.55913e-05
4.74367e-07
4.91386e-07
4.72811e-07
4.92316e-07
-4.98622e-07
-4.73028e-07
-4.98112e-07
4.3591e-05
-4.55612e-05
-7.16013e-07
7.18041e-07
-7.16393e-07
4.55594e-05
4.36108e-05
-4.55875e-05
7.39785e-07
-7.43333e-07
7.40407e-07
-7.43564e-07
-4.36068e-05
4.55912e-05
4.75121e-07
4.92046e-07
4.73297e-07
4.92647e-07
-4.99443e-07
-4.73475e-07
-4.98357e-07
4.35914e-05
-4.5561e-05
-7.16464e-07
7.18206e-07
-7.16386e-07
4.55593e-05
4.36109e-05
-4.55877e-05
7.39674e-07
-7.43359e-07
7.40259e-07
-7.43639e-07
-4.36068e-05
4.55912e-05
4.75201e-07
4.92085e-07
4.73106e-07
4.92678e-07
-4.99502e-07
-4.73456e-07
-4.98386e-07
4.35915e-05
-4.55608e-05
-7.16359e-07
7.18226e-07
-7.16504e-07
4.55593e-05
4.36107e-05
-4.55879e-05
7.3964e-07
-7.43616e-07
7.40373e-07
-7.43208e-07
-4.36068e-05
4.55918e-05
4.75044e-07
4.92186e-07
4.72981e-07
4.92409e-07
-4.99554e-07
-4.72888e-07
-4.98049e-07
4.35916e-05
-4.55612e-05
-7.16471e-07
7.17815e-07
-7.16275e-07
4.55596e-05
4.36105e-05
-4.55882e-05
7.39348e-07
-7.4249e-07
7.40778e-07
-7.43969e-07
-4.36058e-05
4.55915e-05
4.74437e-07
4.91434e-07
4.73378e-07
4.92843e-07
-4.98749e-07
-4.73544e-07
-4.98469e-07
4.35909e-05
-4.55616e-05
-7.15854e-07
7.1804e-07
-7.16723e-07
4.55599e-05
4.36098e-05
-4.55839e-05
7.37285e-07
-7.40869e-07
7.45649e-07
-7.48879e-07
-4.3606e-05
4.55876e-05
4.72085e-07
4.88992e-07
4.79001e-07
4.98559e-07
-4.96264e-07
-4.79175e-07
-5.04375e-07
4.35893e-05
-4.5558e-05
-7.13716e-07
7.22961e-07
-7.21601e-07
4.55558e-05
4.36028e-05
-4.55521e-05
7.30029e-07
-7.33536e-07
7.49943e-07
-7.53502e-07
-4.35986e-05
4.55562e-05
4.64375e-07
4.81396e-07
4.81884e-07
5.0121e-07
-4.88951e-07
-4.8186e-07
-5.07928e-07
4.35819e-05
-4.55268e-05
-7.06728e-07
7.27347e-07
-7.26134e-07
4.55245e-05
4.35418e-05
-4.52364e-05
7.19882e-07
-7.23447e-07
7.17676e-07
-7.21881e-07
-4.35379e-05
4.52396e-05
4.71644e-07
4.88023e-07
4.21275e-07
4.41992e-07
-4.96941e-07
-4.22095e-07
-4.51115e-07
4.35208e-05
-4.52098e-05
-6.96859e-07
6.9537e-07
-6.94495e-07
4.52076e-05
4.31338e-05
-4.51881e-05
7.78798e-07
-7.82182e-07
4.94582e-07
-4.99016e-07
-4.31294e-05
4.51909e-05
5.67087e-07
5.8182e-07
9.20159e-08
1.13633e-07
-5.92299e-07
-9.26467e-08
-1.181e-07
4.31118e-05
-4.51645e-05
-7.55903e-07
4.72611e-07
-4.71724e-07
4.51599e-05
4.31552e-05
-4.38811e-05
1.07951e-06
-1.08302e-06
4.44307e-08
-5.15798e-08
-4.31521e-05
4.38857e-05
1.02221e-06
1.03687e-06
-5.47641e-07
-5.22653e-07
-1.04468e-06
5.47254e-07
5.26249e-07
4.31346e-05
-4.38563e-05
-1.0576e-06
2.46801e-08
-2.40918e-08
4.38537e-05
4.16728e-05
-4.18743e-05
1.59198e-06
-1.59412e-06
-1.17016e-06
1.15826e-06
-4.16706e-05
4.1879e-05
1.79119e-06
1.80534e-06
-1.90684e-06
-1.87969e-06
-1.80776e-06
1.89546e-06
1.87856e-06
4.16563e-05
-4.18538e-05
-1.57015e-06
-1.18825e-06
1.18231e-06
4.18399e-05
3.87515e-05
-3.53151e-05
2.92254e-06
-2.92997e-06
-5.0482e-06
5.02574e-06
-3.87508e-05
3.528e-05
3.43466e-06
3.45348e-06
-6.74197e-06
-6.7233e-06
-3.46248e-06
6.71451e-06
6.71026e-06
3.87482e-05