/*--------------------------------*- C++ -*----------------------------------*\
| =========                 |                                                 |
| \\      /  F ield         | OpenFOAM: The Open Source CFD Toolbox           |
|  \\    /   O peration     | Version:  2206                                  |
|   \\  /    A nd           | Website:  www.openfoam.com                      |
|    \\/     M anipulation  |                                                 |
\*---------------------------------------------------------------------------*/
FoamFile
{
    version     2.0;
    format      ascii;
    arch        "LSB;label=32;scalar=64";
    class       volScalarField;
    location    "7";
    object      epsilon;
}
// * * * * * * * * * * * * * * * * * * * * * * * * * * * * * * * * * * * * * //

dimensions      [0 2 -3 0 0 0 0];

internalField   nonuniform List<scalar> 
28448
(
4.48579e-07
4.51838e-07
4.51833e-07
4.56822e-07
4.48522e-07
4.51776e-07
4.51699e-07
4.56747e-07
4.483e-07
4.51581e-07
4.51578e-07
4.56612e-07
4.48295e-07
4.51577e-07
4.51578e-07
4.56616e-07
4.48295e-07
4.51577e-07
4.51578e-07
4.56616e-07
4.48295e-07
4.51577e-07
4.51578e-07
4.56616e-07
4.48295e-07
4.51577e-07
4.51578e-07
4.56616e-07
4.48295e-07
4.51577e-07
4.51578e-07
4.56616e-07
4.48295e-07
4.51577e-07
4.51578e-07
4.56616e-07
4.48295e-07
4.51577e-07
4.51578e-07
4.56616e-07
4.48295e-07
4.51577e-07
4.51578e-07
4.56616e-07
4.48295e-07
4.51577e-07
4.51578e-07
4.56616e-07
4.48295e-07
4.51577e-07
4.51578e-07
4.56616e-07
4.48295e-07
4.51577e-07
4.51578e-07
4.56616e-07
4.48295e-07
4.51577e-07
4.51578e-07
4.56616e-07
4.48295e-07
4.51577e-07
4.51578e-07
4.56616e-07
4.48295e-07
4.51577e-07
4.51578e-07
4.56616e-07
4.48307e-07
4.51586e-07
4.56768e-07
4.51839e-07
4.51839e-07
4.56766e-07
4.51837e-07
4.51839e-07
4.51838e-07
4.51837e-07
4.5677e-07
4.51835e-07
4.51836e-07
4.56768e-07
4.56828e-07
4.56768e-07
4.51838e-07
4.51839e-07
4.5182e-07
4.5182e-07
4.56826e-07
4.56766e-07
4.51837e-07
4.51839e-07
4.51819e-07
4.5179e-07
4.51837e-07
4.51819e-07
4.51788e-07
4.56827e-07
4.56717e-07
4.51836e-07
4.51783e-07
4.51786e-07
4.56717e-07
4.56811e-07
4.56571e-07
4.51784e-07
4.51784e-07
4.51599e-07
4.516e-07
4.56809e-07
4.56569e-07
4.51782e-07
4.51708e-07
4.51598e-07
4.51586e-07
4.51706e-07
4.51596e-07
4.51584e-07
4.56751e-07
4.56561e-07
4.51704e-07
4.51582e-07
4.51583e-07
4.5656e-07
4.5662e-07
4.56565e-07
4.51587e-07
4.51587e-07
4.51579e-07
4.5158e-07
4.56618e-07
4.56563e-07
4.51585e-07
4.51586e-07
4.51578e-07
4.51582e-07
4.51584e-07
4.51577e-07
4.5158e-07
4.56615e-07
4.56566e-07
4.51583e-07
4.51578e-07
4.51579e-07
4.56562e-07
4.56621e-07
4.56563e-07
4.51584e-07
4.51584e-07
4.5158e-07
4.5158e-07
4.56619e-07
4.56561e-07
4.51583e-07
4.51585e-07
4.51579e-07
4.51583e-07
4.51583e-07
4.51577e-07
4.5158e-07
4.56621e-07
4.56564e-07
4.51582e-07
4.51578e-07
4.51579e-07
4.56563e-07
4.56619e-07
4.56563e-07
4.51583e-07
4.51583e-07
4.5158e-07
4.5158e-07
4.56618e-07
4.56561e-07
4.51582e-07
4.51586e-07
4.51579e-07
4.51582e-07
4.51583e-07
4.51577e-07
4.5158e-07
4.56621e-07
4.56564e-07
4.51582e-07
4.51578e-07
4.51579e-07
4.56563e-07
4.56619e-07
4.56563e-07
4.51583e-07
4.51583e-07
4.5158e-07
4.5158e-07
4.56618e-07
4.56561e-07
4.51582e-07
4.51585e-07
4.51579e-07
4.51583e-07
4.51583e-07
4.51577e-07
4.5158e-07
4.56621e-07
4.56564e-07
4.51582e-07
4.51578e-07
4.51579e-07
4.56562e-07
4.5662e-07
4.56563e-07
4.51583e-07
4.51583e-07
4.5158e-07
4.5158e-07
4.56617e-07
4.56561e-07
4.51582e-07
4.51585e-07
4.51579e-07
4.51583e-07
4.51583e-07
4.51577e-07
4.5158e-07
4.56621e-07
4.56564e-07
4.51582e-07
4.51578e-07
4.51579e-07
4.56563e-07
4.5662e-07
4.56563e-07
4.51583e-07
4.51583e-07
4.5158e-07
4.5158e-07
4.56618e-07
4.56561e-07
4.51582e-07
4.51585e-07
4.51579e-07
4.51583e-07
4.51583e-07
4.51577e-07
4.5158e-07
4.56621e-07
4.56564e-07
4.51582e-07
4.51578e-07
4.51579e-07
4.56562e-07
4.56619e-07
4.56563e-07
4.51583e-07
4.51583e-07
4.5158e-07
4.5158e-07
4.56618e-07
4.56561e-07
4.51582e-07
4.51585e-07
4.51579e-07
4.51583e-07
4.51583e-07
4.51577e-07
4.5158e-07
4.56621e-07
4.56564e-07
4.51582e-07
4.51578e-07
4.51579e-07
4.56563e-07
4.5662e-07
4.56563e-07
4.51583e-07
4.51583e-07
4.5158e-07
4.5158e-07
4.56618e-07
4.56561e-07
4.51582e-07
4.51585e-07
4.51579e-07
4.51583e-07
4.51583e-07
4.51577e-07
4.5158e-07
4.56621e-07
4.56564e-07
4.51582e-07
4.51578e-07
4.51579e-07
4.56563e-07
4.5662e-07
4.56563e-07
4.51583e-07
4.51583e-07
4.5158e-07
4.5158e-07
4.56618e-07
4.56561e-07
4.51582e-07
4.51586e-07
4.51579e-07
4.51583e-07
4.51583e-07
4.51577e-07
4.5158e-07
4.56621e-07
4.56564e-07
4.51582e-07
4.51578e-07
4.51579e-07
4.56562e-07
4.56619e-07
4.56563e-07
4.51583e-07
4.51583e-07
4.5158e-07
4.5158e-07
4.56618e-07
4.56561e-07
4.51582e-07
4.51585e-07
4.51579e-07
4.51583e-07
4.51583e-07
4.51577e-07
4.5158e-07
4.56621e-07
4.56564e-07
4.51582e-07
4.51578e-07
4.51579e-07
4.56563e-07
4.56619e-07
4.56563e-07
4.51583e-07
4.51583e-07
4.5158e-07
4.5158e-07
4.56617e-07
4.56561e-07
4.51582e-07
4.51585e-07
4.51579e-07
4.51583e-07
4.51583e-07
4.51577e-07
4.5158e-07
4.56621e-07
4.56564e-07
4.51582e-07
4.51578e-07
4.51579e-07
4.56563e-07
4.56619e-07
4.56563e-07
4.51583e-07
4.51583e-07
4.5158e-07
4.5158e-07
4.56618e-07
4.56561e-07
4.51582e-07
4.51586e-07
4.51579e-07
4.51583e-07
4.51583e-07
4.51577e-07
4.5158e-07
4.56621e-07
4.56564e-07
4.51582e-07
4.51578e-07
4.51579e-07
4.56563e-07
4.56619e-07
4.56563e-07
4.51583e-07
4.51583e-07
4.5158e-07
4.5158e-07
4.56618e-07
4.56561e-07
4.51582e-07
4.51585e-07
4.51579e-07
4.51583e-07
4.51583e-07
4.51577e-07
4.5158e-07
4.56621e-07
4.56564e-07
4.51582e-07
4.51578e-07
4.51579e-07
4.56563e-07
4.5662e-07
4.56563e-07
4.51583e-07
4.51583e-07
4.5158e-07
4.5158e-07
4.56618e-07
4.56561e-07
4.51582e-07
4.51585e-07
4.51579e-07
4.51583e-07
4.51583e-07
4.51577e-07
4.5158e-07
4.56621e-07
4.56564e-07
4.51582e-07
4.51578e-07
4.51579e-07
4.56562e-07
4.5662e-07
4.56563e-07
4.51583e-07
4.51583e-07
4.51585e-07
4.56618e-07
4.51582e-07
4.51585e-07
4.51579e-07
4.51583e-07
4.51583e-07
4.51585e-07
4.56621e-07
4.56564e-07
4.51582e-07
4.5158e-07
4.51584e-07
4.56566e-07
4.56629e-07
4.51583e-07
4.51587e-07
4.56621e-07
4.4858e-07
4.48581e-07
4.48579e-07
4.48579e-07
1.17147e-06
5.95975e-06
1.17169e-06
5.95926e-06
2.08981e-05
2.0895e-05
1.17136e-06
5.96057e-06
1.17154e-06
5.96008e-06
4.48581e-07
4.48579e-07
4.48579e-07
4.48562e-07
4.48559e-07
4.48523e-07
4.48524e-07
5.49709e-07
9.96956e-07
4.49185e-07
4.51838e-07
5.49767e-07
9.96677e-07
4.49181e-07
2.09e-05
2.08974e-05
5.49721e-07
4.49184e-07
9.96947e-07
4.51829e-07
5.49784e-07
4.4918e-07
9.96705e-07
1.88513e-06
1.8855e-06
4.56772e-07
1.88492e-06
1.8853e-06
1.17276e-06
5.96168e-06
1.17217e-06
5.96708e-06
2.09044e-05
2.0931e-05
1.17273e-06
5.96254e-06
1.17206e-06
5.9679e-06
4.48518e-07
4.48433e-07
4.48434e-07
4.48318e-07
4.48316e-07
4.483e-07
4.483e-07
5.49846e-07
9.97288e-07
4.49055e-07
4.51696e-07
5.49865e-07
9.97521e-07
4.48985e-07
2.09292e-05
2.09357e-05
5.49861e-07
4.4904e-07
9.97643e-07
4.51638e-07
5.49884e-07
4.48974e-07
9.97673e-07
1.88755e-06
1.88795e-06
4.56594e-07
1.88784e-06
1.88822e-06
1.17304e-06
5.96792e-06
1.17326e-06
5.96763e-06
2.09333e-05
2.09332e-05
1.17293e-06
5.96876e-06
1.17311e-06
5.96845e-06
4.48303e-07
4.48299e-07
4.483e-07
4.48296e-07
4.48295e-07
4.48295e-07
4.48295e-07
5.49854e-07
9.98046e-07
4.4891e-07
4.51581e-07
5.49923e-07
9.97768e-07
4.48912e-07
2.09358e-05
2.09349e-05
5.49867e-07
4.48909e-07
9.97991e-07
4.51581e-07
5.49942e-07
4.48912e-07
9.97729e-07
1.88804e-06
1.8884e-06
4.56565e-07
1.88781e-06
1.88819e-06
1.17304e-06
5.96787e-06
1.17326e-06
5.96761e-06
2.09334e-05
2.09333e-05
1.17293e-06
5.96871e-06
1.17311e-06
5.96844e-06
4.483e-07
4.48299e-07
4.48299e-07
4.48295e-07
4.48295e-07
4.48295e-07
4.48296e-07
5.49856e-07
9.98047e-07
4.48909e-07
4.5158e-07
5.49921e-07
9.97766e-07
4.48913e-07
2.09357e-05
2.09349e-05
5.49869e-07
4.48909e-07
9.97989e-07
4.51581e-07
5.49938e-07
4.48912e-07
9.9773e-07
1.88803e-06
1.8884e-06
4.56565e-07
1.88781e-06
1.88819e-06
1.17304e-06
5.96787e-06
1.17326e-06
5.96761e-06
2.09334e-05
2.09332e-05
1.17293e-06
5.96871e-06
1.17311e-06
5.96844e-06
4.48298e-07
4.48299e-07
4.48299e-07
4.48295e-07
4.48295e-07
4.48295e-07
4.48295e-07
5.49856e-07
9.98047e-07
4.48909e-07
4.5158e-07
5.4992e-07
9.97766e-07
4.48912e-07
2.09357e-05
2.09348e-05
5.49867e-07
4.48909e-07
9.97989e-07
4.51581e-07
5.49936e-07
4.48913e-07
9.97729e-07
1.88803e-06
1.8884e-06
4.56565e-07
1.88781e-06
1.88819e-06
1.17304e-06
5.96787e-06
1.17326e-06
5.96761e-06
2.09334e-05
2.09332e-05
1.17293e-06
5.96871e-06
1.17311e-06
5.96844e-06
4.48298e-07
4.48299e-07
4.48299e-07
4.48295e-07
4.48295e-07
4.48295e-07
4.48295e-07
5.49856e-07
9.98047e-07
4.48909e-07
4.5158e-07
5.49919e-07
9.97766e-07
4.48913e-07
2.09357e-05
2.09348e-05
5.49867e-07
4.48909e-07
9.97989e-07
4.51581e-07
5.49936e-07
4.48912e-07
9.97729e-07
1.88803e-06
1.8884e-06
4.56565e-07
1.88781e-06
1.88819e-06
1.17304e-06
5.96787e-06
1.17326e-06
5.96761e-06
2.09334e-05
2.09332e-05
1.17293e-06
5.96871e-06
1.17311e-06
5.96844e-06
4.48298e-07
4.48299e-07
4.48299e-07
4.48295e-07
4.48295e-07
4.48295e-07
4.48295e-07
5.49857e-07
9.98047e-07
4.48909e-07
4.5158e-07
5.4992e-07
9.97766e-07
4.48912e-07
2.09357e-05
2.09348e-05
5.49871e-07
4.48909e-07
9.9799e-07
4.51581e-07
5.49935e-07
4.48912e-07
9.9773e-07
1.88802e-06
1.8884e-06
4.56566e-07
1.88781e-06
1.88819e-06
1.17304e-06
5.96787e-06
1.17326e-06
5.96761e-06
2.09334e-05
2.09332e-05
1.17293e-06
5.96871e-06
1.17311e-06
5.96844e-06
4.48299e-07
4.48299e-07
4.48299e-07
4.48295e-07
4.48295e-07
4.48295e-07
4.48295e-07
5.49857e-07
9.98047e-07
4.48909e-07
4.5158e-07
5.4992e-07
9.97766e-07
4.48913e-07
2.09357e-05
2.09348e-05
5.49868e-07
4.48909e-07
9.9799e-07
4.51581e-07
5.49932e-07
4.48913e-07
9.9773e-07
1.88802e-06
1.8884e-06
4.56565e-07
1.88781e-06
1.88819e-06
1.17304e-06
5.96787e-06
1.17326e-06
5.96761e-06
2.09334e-05
2.09332e-05
1.17293e-06
5.96871e-06
1.17311e-06
5.96844e-06
4.48298e-07
4.48299e-07
4.48299e-07
4.48295e-07
4.48295e-07
4.48295e-07
4.48295e-07
5.49856e-07
9.98047e-07
4.48909e-07
4.5158e-07
5.49919e-07
9.97766e-07
4.48912e-07
2.09357e-05
2.09348e-05
5.49867e-07
4.48909e-07
9.9799e-07
4.51581e-07
5.49932e-07
4.48913e-07
9.9773e-07
1.88802e-06
1.8884e-06
4.56565e-07
1.88781e-06
1.88819e-06
1.17304e-06
5.96787e-06
1.17326e-06
5.96761e-06
2.09334e-05
2.09332e-05
1.17293e-06
5.96871e-06
1.17311e-06
5.96844e-06
4.48299e-07
4.48299e-07
4.48299e-07
4.48295e-07
4.48295e-07
4.48295e-07
4.48295e-07
5.49856e-07
9.98047e-07
4.48909e-07
4.5158e-07
5.49919e-07
9.97766e-07
4.48912e-07
2.09357e-05
2.09348e-05
5.49877e-07
4.48909e-07
9.9799e-07
4.51581e-07
5.49939e-07
4.48912e-07
9.9773e-07
1.88802e-06
1.8884e-06
4.56565e-07
1.88781e-06
1.88819e-06
1.17304e-06
5.96787e-06
1.17326e-06
5.96761e-06
2.09334e-05
2.09332e-05
1.17293e-06
5.96871e-06
1.17311e-06
5.96844e-06
4.48298e-07
4.48299e-07
4.48299e-07
4.48295e-07
4.48295e-07
4.48295e-07
4.48295e-07
5.49856e-07
9.98047e-07
4.48909e-07
4.5158e-07
5.4992e-07
9.97766e-07
4.48912e-07
2.09357e-05
2.09348e-05
5.49885e-07
4.48909e-07
9.9799e-07
4.51581e-07
5.49949e-07
4.48912e-07
9.9773e-07
1.88802e-06
1.8884e-06
4.56566e-07
1.88781e-06
1.88819e-06
1.17304e-06
5.96787e-06
1.17326e-06
5.96761e-06
2.09334e-05
2.09332e-05
1.17293e-06
5.96871e-06
1.17311e-06
5.96844e-06
4.48298e-07
4.48299e-07
4.48299e-07
4.48295e-07
4.48295e-07
4.48295e-07
4.48295e-07
5.49856e-07
9.98047e-07
4.48909e-07
4.5158e-07
5.4992e-07
9.97766e-07
4.48912e-07
2.09357e-05
2.09348e-05
5.49883e-07
4.48909e-07
9.9799e-07
4.51581e-07
5.49949e-07
4.48912e-07
9.9773e-07
1.88802e-06
1.8884e-06
4.56566e-07
1.88781e-06
1.88819e-06
1.17304e-06
5.96787e-06
1.17326e-06
5.96761e-06
2.09334e-05
2.09332e-05
1.17293e-06
5.96871e-06
1.17311e-06
5.96844e-06
4.48299e-07
4.48299e-07
4.48299e-07
4.48295e-07
4.48295e-07
4.48295e-07
4.48296e-07
5.49857e-07
9.98047e-07
4.48909e-07
4.5158e-07
5.49921e-07
9.97766e-07
4.48912e-07
2.09357e-05
2.09348e-05
5.49883e-07
4.48909e-07
9.9799e-07
4.51581e-07
5.49951e-07
4.48912e-07
9.9773e-07
1.88802e-06
1.8884e-06
4.56565e-07
1.88781e-06
1.88819e-06
1.17304e-06
5.96787e-06
1.17326e-06
5.96761e-06
2.09334e-05
2.09332e-05
1.17293e-06
5.96871e-06
1.17311e-06
5.96844e-06
4.48298e-07
4.48299e-07
4.48299e-07
4.48295e-07
4.48295e-07
4.48295e-07
4.48296e-07
5.49856e-07
9.98047e-07
4.48909e-07
4.5158e-07
5.49919e-07
9.97766e-07
4.48913e-07
2.09357e-05
2.09348e-05
5.49881e-07
4.48909e-07
9.9799e-07
4.51581e-07
5.49948e-07
4.48912e-07
9.9773e-07
1.88802e-06
1.8884e-06
4.56565e-07
1.88781e-06
1.88819e-06
1.17304e-06
5.96787e-06
1.17326e-06
5.96761e-06
2.09334e-05
2.09332e-05
1.17293e-06
5.96871e-06
1.17311e-06
5.96844e-06
4.48298e-07
4.48299e-07
4.48299e-07
4.48295e-07
4.48295e-07
4.48296e-07
4.48295e-07
5.49856e-07
9.98047e-07
4.48909e-07
4.5158e-07
5.4992e-07
9.97766e-07
4.48912e-07
2.09357e-05
2.09348e-05
5.49881e-07
4.48909e-07
9.9799e-07
4.51581e-07
5.49947e-07
4.48913e-07
9.9773e-07
1.88802e-06
1.8884e-06
4.56565e-07
1.88781e-06
1.88819e-06
1.17304e-06
5.96787e-06
1.17326e-06
5.96761e-06
2.09334e-05
2.09332e-05
1.17293e-06
5.96871e-06
1.17311e-06
5.96844e-06
4.48299e-07
4.48299e-07
4.48299e-07
4.48295e-07
4.48295e-07
4.48295e-07
4.48295e-07
5.49856e-07
9.98047e-07
4.48909e-07
4.5158e-07
5.49919e-07
9.97766e-07
4.48912e-07
2.09357e-05
2.09348e-05
5.4988e-07
4.48909e-07
9.9799e-07
4.51581e-07
5.49947e-07
4.48913e-07
9.9773e-07
1.88802e-06
1.8884e-06
4.56565e-07
1.88781e-06
1.88819e-06
1.17304e-06
5.96787e-06
1.17326e-06
5.96761e-06
2.09334e-05
2.09332e-05
1.17293e-06
5.96871e-06
1.17311e-06
5.96844e-06
4.48299e-07
4.48299e-07
4.48299e-07
4.48297e-07
4.48306e-07
4.48296e-07
4.48301e-07
5.49857e-07
9.98047e-07
4.48909e-07
4.51579e-07
5.49919e-07
9.97766e-07
4.48912e-07
2.09357e-05
2.09348e-05
5.49881e-07
4.48909e-07
9.97991e-07
4.51581e-07
5.49948e-07
4.48913e-07
9.97731e-07
1.88803e-06
1.8884e-06
4.56565e-07
1.88781e-06
1.88819e-06
5.96871e-06
1.17311e-06
4.48303e-07
2.09356e-05
9.97967e-07
2.08965e-05
2.08991e-05
1.88466e-06
1.88508e-06
5.95962e-06
1.17149e-06
5.95985e-06
1.17148e-06
9.96658e-07
4.49189e-07
5.49699e-07
9.96723e-07
4.49188e-07
5.49698e-07
2.08987e-05
1.88504e-06
1.88486e-06
2.08951e-05
5.96042e-06
1.17136e-06
9.96818e-07
4.49192e-07
5.49691e-07
1.17171e-06
5.96099e-06
5.961e-06
1.17147e-06
5.498e-07
4.5184e-07
4.49187e-07
9.96918e-07
4.49188e-07
9.97408e-07
5.49705e-07
5.49799e-07
9.96686e-07
4.49186e-07
4.49187e-07
5.49703e-07
1.17184e-06
5.95983e-06
1.17155e-06
5.49801e-07
4.51838e-07
4.49186e-07
9.96705e-07
4.49187e-07
9.97167e-07
5.49706e-07
1.17184e-06
5.96049e-06
5.96057e-06
1.17155e-06
2.09001e-05
2.09027e-05
4.56814e-07
1.88561e-06
1.88492e-06
1.8857e-06
1.8849e-06
2.08982e-05
2.09009e-05
5.49817e-07
4.51835e-07
4.49186e-07
9.96698e-07
4.49187e-07
9.97157e-07
5.49716e-07
5.49798e-07
4.51836e-07
4.49187e-07
9.96792e-07
4.49187e-07
9.97259e-07
5.49705e-07
1.17186e-06
5.96058e-06
5.96067e-06
1.17157e-06
1.17172e-06
5.96075e-06
5.96084e-06
1.17148e-06
4.56815e-07
1.88492e-06
1.88529e-06
1.88489e-06
1.88526e-06
2.08983e-05
2.09011e-05
2.08996e-05
2.09024e-05
2.0896e-05
2.08939e-05
2.08986e-05
2.08965e-05
1.88483e-06
1.88525e-06
4.56778e-07
1.8848e-06
1.88522e-06
2.08956e-05
2.08936e-05
2.08984e-05
2.08962e-05
4.56833e-07
1.88505e-06
1.88548e-06
1.88483e-06
1.88526e-06
1.17151e-06
5.95986e-06
1.17166e-06
5.95983e-06
5.49702e-07
9.96877e-07
4.49188e-07
4.51837e-07
5.49758e-07
9.96634e-07
4.49186e-07
5.49702e-07
9.96947e-07
4.49188e-07
4.51837e-07
5.49759e-07
9.96715e-07
4.49185e-07
1.17161e-06
5.95997e-06
5.95926e-06
1.17167e-06
1.17165e-06
5.96025e-06
5.95982e-06
1.17166e-06
5.49762e-07
4.51832e-07
9.96795e-07
4.49168e-07
9.96839e-07
4.4918e-07
5.49722e-07
5.49763e-07
4.51832e-07
9.96866e-07
4.49168e-07
9.96927e-07
4.4918e-07
5.49723e-07
1.88522e-06
1.88514e-06
4.56776e-07
1.88516e-06
1.885e-06
2.0895e-05
2.08929e-05
2.08969e-05
2.08946e-05
4.56831e-07
1.88541e-06
1.88531e-06
1.88521e-06
1.88526e-06
2.08948e-05
2.08929e-05
5.49696e-07
9.97064e-07
4.49191e-07
4.51835e-07
5.4975e-07
9.96807e-07
4.49189e-07
1.17147e-06
5.96099e-06
1.17157e-06
5.96099e-06
5.49711e-07
4.49187e-07
9.97144e-07
4.51835e-07
5.49766e-07
4.49183e-07
9.9693e-07
1.17147e-06
5.96079e-06
5.96009e-06
1.17161e-06
5.49758e-07
4.5183e-07
9.9697e-07
4.49168e-07
9.97038e-07
4.49182e-07
5.49727e-07
1.17163e-06
5.96459e-06
5.96099e-06
1.17204e-06
5.49776e-07
4.51824e-07
4.49138e-07
9.97363e-07
4.49172e-07
9.97216e-07
5.49767e-07
1.17156e-06
5.95984e-06
1.17169e-06
5.95986e-06
5.49711e-07
4.49186e-07
9.96907e-07
4.51834e-07
5.49765e-07
4.49183e-07
9.96713e-07
1.17157e-06
5.96048e-06
1.1717e-06
5.96053e-06
5.49774e-07
4.51833e-07
9.96848e-07
4.49139e-07
9.96915e-07
4.49171e-07
5.49764e-07
1.17177e-06
5.96028e-06
5.95986e-06
1.17217e-06
5.49776e-07
4.51822e-07
4.49134e-07
9.97162e-07
4.49171e-07
9.96977e-07
5.49767e-07
1.17177e-06
5.96422e-06
5.96053e-06
1.17218e-06
1.88587e-06
1.88499e-06
4.56772e-07
1.88565e-06
1.88493e-06
2.08973e-05
2.08961e-05
2.09181e-05
2.08977e-05
4.56826e-07
1.887e-06
1.88628e-06
1.88597e-06
1.88504e-06
2.09161e-05
2.08961e-05
5.4971e-07
4.49186e-07
9.96996e-07
4.51832e-07
5.49764e-07
4.49182e-07
9.96801e-07
1.17159e-06
5.96058e-06
1.17172e-06
5.96062e-06
1.17149e-06
5.96075e-06
1.17159e-06
5.9608e-06
5.49791e-07
4.51818e-07
4.4913e-07
9.97162e-07
4.49168e-07
9.96969e-07
5.49779e-07
5.49775e-07
4.51821e-07
4.49133e-07
9.97255e-07
4.4917e-07
9.9707e-07
5.49767e-07
1.1718e-06
5.96437e-06
5.96062e-06
1.1722e-06
1.17165e-06
5.96458e-06
5.96081e-06
1.17211e-06
2.08976e-05
2.08965e-05
2.08989e-05
2.08978e-05
4.56827e-07
1.88636e-06
1.88676e-06
1.88505e-06
1.88543e-06
2.0917e-05
2.08965e-05
2.09183e-05
2.08978e-05
2.09016e-05
2.09294e-05
2.09048e-05
2.09322e-05
1.88572e-06
1.88618e-06
4.56649e-07
1.88753e-06
1.88796e-06
2.09319e-05
2.09316e-05
2.09344e-05
2.09341e-05
4.56685e-07
1.88779e-06
1.88821e-06
1.88793e-06
1.88836e-06
1.17277e-06
5.96149e-06
1.17207e-06
5.96733e-06
5.49817e-07
9.97172e-07
4.49129e-07
4.51704e-07
5.4981e-07
9.97492e-07
4.49043e-07
5.49817e-07
9.97242e-07
4.49128e-07
4.51704e-07
5.4981e-07
9.97559e-07
4.49042e-07
1.17311e-06
5.96776e-06
5.96777e-06
1.17304e-06
1.17312e-06
5.96802e-06
5.96804e-06
1.17303e-06
5.49901e-07
4.51638e-07
9.97699e-07
4.4893e-07
9.97806e-07
4.48971e-07
5.49862e-07
5.49902e-07
4.51638e-07
9.97769e-07
4.4893e-07
9.97882e-07
4.48971e-07
5.49862e-07
1.88616e-06
1.88614e-06
4.56647e-07
1.88789e-06
1.88759e-06
2.09012e-05
2.09282e-05
2.09329e-05
2.09328e-05
4.56682e-07
1.88816e-06
1.88808e-06
1.88833e-06
1.88823e-06
2.09307e-05
2.09306e-05
5.49822e-07
9.97375e-07
4.49122e-07
4.51702e-07
5.49813e-07
9.97666e-07
4.49036e-07
1.17291e-06
5.96726e-06
1.17262e-06
5.969e-06
5.49851e-07
4.49053e-07
9.97842e-07
4.51645e-07
5.49864e-07
4.48983e-07
9.97907e-07
1.17298e-06
5.96858e-06
5.96859e-06
1.17293e-06
5.49901e-07
4.51636e-07
9.97882e-07
4.48928e-07
9.98021e-07
4.48967e-07
5.49861e-07
1.17305e-06
5.96889e-06
5.969e-06
1.17296e-06
5.49918e-07
4.51603e-07
4.48915e-07
9.97963e-07
4.48935e-07
9.98175e-07
5.49865e-07
1.17302e-06
5.96154e-06
1.17279e-06
5.96731e-06
5.49851e-07
4.49045e-07
9.97601e-07
4.51643e-07
5.49862e-07
4.48977e-07
9.97681e-07
1.17302e-06
5.9668e-06
1.1728e-06
5.96856e-06
5.49914e-07
4.51632e-07
9.97755e-07
4.48916e-07
9.97879e-07
4.48939e-07
5.49862e-07
1.17318e-06
5.96804e-06
5.96804e-06
1.17305e-06
5.49917e-07
4.51601e-07
4.48913e-07
9.97738e-07
4.48931e-07
9.97928e-07
5.49864e-07
1.17319e-06
5.96845e-06
5.96857e-06
1.17305e-06
1.88825e-06
1.88744e-06
4.56595e-07
1.88863e-06
1.88786e-06
2.09262e-05
2.09338e-05
2.09353e-05
2.0935e-05
4.56639e-07
1.88861e-06
1.88782e-06
1.88887e-06
1.88792e-06
2.09333e-05
2.09331e-05
5.49851e-07
4.49044e-07
9.97696e-07
4.51641e-07
5.49862e-07
4.48976e-07
9.9777e-07
1.17304e-06
5.96695e-06
1.17282e-06
5.96867e-06
1.17294e-06
5.96714e-06
1.17271e-06
5.96885e-06
5.49933e-07
4.516e-07
4.48914e-07
9.97729e-07
4.48932e-07
9.97917e-07
5.49877e-07
5.49916e-07
4.51599e-07
4.48913e-07
9.97825e-07
4.48931e-07
9.98019e-07
5.49863e-07
1.17321e-06
5.96855e-06
5.96866e-06
1.17307e-06
1.17307e-06
5.96872e-06
5.96885e-06
1.17297e-06
2.09269e-05
2.0934e-05
2.09282e-05
2.09353e-05
4.56639e-07
1.88782e-06
1.88819e-06
1.88792e-06
1.88829e-06
2.09335e-05
2.09333e-05
2.09348e-05
2.09346e-05
2.09312e-05
2.09319e-05
2.09338e-05
2.09344e-05
1.88785e-06
1.88828e-06
4.56557e-07
1.88778e-06
1.8882e-06
2.09315e-05
2.09311e-05
2.0934e-05
2.09336e-05
4.56614e-07
1.88776e-06
1.88818e-06
1.88784e-06
1.88827e-06
1.17303e-06
5.96802e-06
1.17318e-06
5.96797e-06
5.49859e-07
9.9792e-07
4.48916e-07
4.51583e-07
5.49923e-07
9.97712e-07
4.48912e-07
5.49857e-07
9.97994e-07
4.48916e-07
4.51583e-07
5.49923e-07
9.97783e-07
4.48912e-07
1.17319e-06
5.96767e-06
5.96752e-06
1.17304e-06
1.17318e-06
5.96795e-06
5.96794e-06
1.17304e-06
5.49916e-07
4.51579e-07
9.97711e-07
4.48909e-07
9.97923e-07
4.48909e-07
5.49857e-07
5.49915e-07
4.5158e-07
9.9778e-07
4.48909e-07
9.97999e-07
4.48909e-07
5.49858e-07
1.88824e-06
1.88832e-06
4.56555e-07
1.88815e-06
1.88803e-06
2.09301e-05
2.09307e-05
2.09329e-05
2.0933e-05
4.56612e-07
1.88814e-06
1.88801e-06
1.88824e-06
1.88828e-06
2.09305e-05
2.093e-05
5.4985e-07
9.98128e-07
4.48916e-07
4.51582e-07
5.4992e-07
9.97895e-07
4.48912e-07
1.17295e-06
5.96889e-06
1.17307e-06
5.96884e-06
5.49854e-07
4.48913e-07
9.98199e-07
4.51585e-07
5.49923e-07
4.48912e-07
9.97963e-07
1.17305e-06
5.96851e-06
5.96833e-06
1.17293e-06
5.49908e-07
4.51578e-07
9.97893e-07
4.48909e-07
9.98129e-07
4.48909e-07
5.49854e-07
1.17307e-06
5.96887e-06
5.96874e-06
1.17296e-06
5.49913e-07
4.51582e-07
4.4891e-07
9.97965e-07
4.4891e-07
9.98199e-07
5.4986e-07
1.17305e-06
5.96804e-06
1.1732e-06
5.96797e-06
5.49855e-07
4.48913e-07
9.97952e-07
4.51583e-07
5.49921e-07
4.48912e-07
9.97739e-07
1.17305e-06
5.96845e-06
1.1732e-06
5.96842e-06
5.49913e-07
4.51579e-07
9.97766e-07
4.48909e-07
9.98e-07
4.48911e-07
5.49858e-07
1.17319e-06
5.96796e-06
5.96791e-06
1.17305e-06
5.49913e-07
4.5158e-07
4.48909e-07
9.97739e-07
4.48909e-07
9.97954e-07
5.49861e-07
1.17319e-06
5.96842e-06
5.96832e-06
1.17305e-06
1.88882e-06
1.8879e-06
4.56562e-07
1.88856e-06
1.88782e-06
2.09328e-05
2.09335e-05
2.09351e-05
2.09344e-05
4.56619e-07
1.88861e-06
1.88781e-06
1.88879e-06
1.8879e-06
2.09331e-05
2.09327e-05
5.49853e-07
4.48913e-07
9.98042e-07
4.51582e-07
5.49919e-07
4.48912e-07
9.97826e-07
1.17307e-06
5.96854e-06
1.17322e-06
5.96851e-06
1.17296e-06
5.96872e-06
1.17308e-06
5.9687e-06
5.4993e-07
4.5158e-07
4.48909e-07
9.97728e-07
4.48912e-07
9.97942e-07
5.49871e-07
5.49911e-07
4.51579e-07
4.48909e-07
9.97827e-07
4.48909e-07
9.98044e-07
5.49858e-07
1.17322e-06
5.96849e-06
5.96848e-06
1.17307e-06
1.17307e-06
5.9687e-06
5.96861e-06
1.17297e-06
2.0933e-05
2.09338e-05
2.09343e-05
2.09351e-05
4.56621e-07
1.88781e-06
1.88818e-06
1.88789e-06
1.88826e-06
2.09333e-05
2.09329e-05
2.09346e-05
2.09342e-05
2.0931e-05
2.09319e-05
2.09336e-05
2.09344e-05
1.88783e-06
1.88826e-06
4.56563e-07
1.88777e-06
1.88819e-06
2.09315e-05
2.09311e-05
2.0934e-05
2.09336e-05
4.56618e-07
1.88775e-06
1.88818e-06
1.88784e-06
1.88827e-06
1.17303e-06
5.96796e-06
1.17318e-06
5.96797e-06
5.49859e-07
9.97923e-07
4.48914e-07
4.51584e-07
5.49917e-07
9.97711e-07
4.48913e-07
5.49856e-07
9.97997e-07
4.48914e-07
4.51584e-07
5.49919e-07
9.97783e-07
4.48913e-07
1.17319e-06
5.96767e-06
5.9675e-06
1.17304e-06
1.17318e-06
5.96796e-06
5.9679e-06
1.17304e-06
5.49919e-07
4.5158e-07
9.9771e-07
4.48909e-07
9.97922e-07
4.4891e-07
5.49857e-07
5.49916e-07
4.51581e-07
9.9778e-07
4.48909e-07
9.98e-07
4.48909e-07
5.49859e-07
1.88823e-06
1.88826e-06
4.56561e-07
1.88815e-06
1.88803e-06
2.09299e-05
2.09307e-05
2.09329e-05
2.09331e-05
4.56616e-07
1.88814e-06
1.88803e-06
1.88824e-06
1.88828e-06
2.09305e-05
2.093e-05
5.49852e-07
9.9813e-07
4.48914e-07
4.51582e-07
5.49914e-07
9.97893e-07
4.48913e-07
1.17295e-06
5.96887e-06
1.17307e-06
5.96884e-06
5.49857e-07
4.48913e-07
9.982e-07
4.51585e-07
5.4992e-07
4.48913e-07
9.97964e-07
1.17305e-06
5.96851e-06
5.96832e-06
1.17293e-06
5.49911e-07
4.51579e-07
9.97892e-07
4.48909e-07
9.98128e-07
4.4891e-07
5.49855e-07
1.17307e-06
5.96887e-06
5.96873e-06
1.17296e-06
5.49916e-07
4.51583e-07
4.4891e-07
9.97965e-07
4.4891e-07
9.982e-07
5.49859e-07
1.17305e-06
5.96796e-06
1.1732e-06
5.96794e-06
5.49857e-07
4.48913e-07
9.97952e-07
4.51583e-07
5.4992e-07
4.48912e-07
9.97739e-07
1.17304e-06
5.96839e-06
1.1732e-06
5.96842e-06
5.49914e-07
4.51579e-07
9.97766e-07
4.48909e-07
9.97999e-07
4.48912e-07
5.49857e-07
1.17319e-06
5.96796e-06
5.96783e-06
1.17305e-06
5.49915e-07
4.51581e-07
4.48909e-07
9.97738e-07
4.4891e-07
9.97954e-07
5.4986e-07
1.17319e-06
5.96841e-06
5.96832e-06
1.17305e-06
1.88883e-06
1.88789e-06
4.56564e-07
1.88856e-06
1.88782e-06
2.09326e-05
2.09334e-05
2.0935e-05
2.09344e-05
4.56619e-07
1.88861e-06
1.88781e-06
1.88878e-06
1.88789e-06
2.0933e-05
2.09326e-05
5.49855e-07
4.48912e-07
9.98043e-07
4.51582e-07
5.49917e-07
4.48912e-07
9.97827e-07
1.17307e-06
5.96849e-06
1.17322e-06
5.96852e-06
1.17296e-06
5.96867e-06
1.17308e-06
5.96869e-06
5.49933e-07
4.51581e-07
4.48909e-07
9.97728e-07
4.48912e-07
9.97942e-07
5.4987e-07
5.49914e-07
4.5158e-07
4.48909e-07
9.97825e-07
4.4891e-07
9.98044e-07
5.49857e-07
1.17321e-06
5.96851e-06
5.96844e-06
1.17306e-06
1.17307e-06
5.96869e-06
5.96861e-06
1.17296e-06
2.09329e-05
2.09337e-05
2.09342e-05
2.0935e-05
4.56621e-07
1.88781e-06
1.88818e-06
1.88789e-06
1.88826e-06
2.09333e-05
2.09329e-05
2.09346e-05
2.09341e-05
2.0931e-05
2.09319e-05
2.09336e-05
2.09344e-05
1.88783e-06
1.88826e-06
4.56563e-07
1.88776e-06
1.88819e-06
2.09315e-05
2.0931e-05
2.0934e-05
2.09336e-05
4.56618e-07
1.88775e-06
1.88818e-06
1.88783e-06
1.88826e-06
1.17303e-06
5.96796e-06
1.17318e-06
5.96796e-06
5.49859e-07
9.97923e-07
4.48912e-07
4.51583e-07
5.49915e-07
9.9771e-07
4.48912e-07
5.49856e-07
9.97997e-07
4.48912e-07
4.51583e-07
5.49919e-07
9.97783e-07
4.48912e-07
1.17319e-06
5.96767e-06
5.9675e-06
1.17304e-06
1.17318e-06
5.96796e-06
5.96789e-06
1.17304e-06
5.4992e-07
4.51581e-07
9.9771e-07
4.48909e-07
9.97922e-07
4.4891e-07
5.49856e-07
5.49917e-07
4.51581e-07
9.9778e-07
4.48909e-07
9.98e-07
4.4891e-07
5.49858e-07
1.88823e-06
1.88828e-06
4.56561e-07
1.88815e-06
1.88802e-06
2.093e-05
2.09308e-05
2.09329e-05
2.09331e-05
4.56616e-07
1.88814e-06
1.88803e-06
1.88824e-06
1.88828e-06
2.09305e-05
2.09301e-05
5.49852e-07
9.98129e-07
4.48912e-07
4.51582e-07
5.49913e-07
9.97893e-07
4.48912e-07
1.17295e-06
5.96888e-06
1.17307e-06
5.96884e-06
5.49857e-07
4.48913e-07
9.982e-07
4.51585e-07
5.49917e-07
4.48913e-07
9.97964e-07
1.17305e-06
5.96851e-06
5.96832e-06
1.17293e-06
5.49913e-07
4.51579e-07
9.97892e-07
4.48909e-07
9.98128e-07
4.4891e-07
5.49854e-07
1.17307e-06
5.96887e-06
5.96873e-06
1.17296e-06
5.49917e-07
4.51583e-07
4.4891e-07
9.97965e-07
4.4891e-07
9.982e-07
5.49859e-07
1.17304e-06
5.96796e-06
1.1732e-06
5.96794e-06
5.49857e-07
4.48912e-07
9.97951e-07
4.51583e-07
5.49919e-07
4.48912e-07
9.97739e-07
1.17304e-06
5.9684e-06
1.1732e-06
5.96842e-06
5.49914e-07
4.51579e-07
9.97766e-07
4.48909e-07
9.97999e-07
4.48911e-07
5.49856e-07
1.17319e-06
5.96796e-06
5.96784e-06
1.17305e-06
5.49915e-07
4.51581e-07
4.48909e-07
9.97738e-07
4.4891e-07
9.97954e-07
5.49859e-07
1.17319e-06
5.96842e-06
5.96831e-06
1.17305e-06
1.88883e-06
1.88789e-06
4.56565e-07
1.88856e-06
1.88782e-06
2.09326e-05
2.09334e-05
2.0935e-05
2.09344e-05
4.5662e-07
1.88861e-06
1.88781e-06
1.88878e-06
1.88789e-06
2.0933e-05
2.09326e-05
5.49855e-07
4.48913e-07
9.98041e-07
4.51582e-07
5.49916e-07
4.48912e-07
9.97826e-07
1.17305e-06
5.96852e-06
1.17321e-06
5.96853e-06
1.17295e-06
5.96868e-06
1.17307e-06
5.96869e-06
5.49931e-07
4.51581e-07
4.48909e-07
9.97728e-07
4.48912e-07
9.97942e-07
5.49869e-07
5.49913e-07
4.5158e-07
4.48909e-07
9.97824e-07
4.4891e-07
9.98043e-07
5.49856e-07
1.1732e-06
5.96851e-06
5.96848e-06
1.17306e-06
1.17306e-06
5.96869e-06
5.9686e-06
1.17295e-06
2.09328e-05
2.09337e-05
2.09342e-05
2.0935e-05
4.56621e-07
1.88781e-06
1.88818e-06
1.88789e-06
1.88826e-06
2.09333e-05
2.09329e-05
2.09345e-05
2.09341e-05
2.0931e-05
2.09319e-05
2.09335e-05
2.09344e-05
1.88783e-06
1.88825e-06
4.56563e-07
1.88776e-06
1.88819e-06
2.09315e-05
2.09311e-05
2.0934e-05
2.09336e-05
4.56618e-07
1.88775e-06
1.88818e-06
1.88783e-06
1.88826e-06
1.17303e-06
5.96795e-06
1.17318e-06
5.96796e-06
5.49859e-07
9.97923e-07
4.48912e-07
4.51583e-07
5.49914e-07
9.9771e-07
4.48912e-07
5.49857e-07
9.97997e-07
4.48912e-07
4.51583e-07
5.49918e-07
9.97783e-07
4.48912e-07
1.17319e-06
5.96768e-06
5.9675e-06
1.17304e-06
1.17318e-06
5.96796e-06
5.96789e-06
1.17304e-06
5.49921e-07
4.51581e-07
9.9771e-07
4.48909e-07
9.97922e-07
4.4891e-07
5.49856e-07
5.49918e-07
4.51581e-07
9.9778e-07
4.48909e-07
9.98e-07
4.4891e-07
5.49858e-07
1.88823e-06
1.88828e-06
4.56561e-07
1.88815e-06
1.88802e-06
2.09299e-05
2.09308e-05
2.09329e-05
2.09331e-05
4.56616e-07
1.88814e-06
1.88803e-06
1.88824e-06
1.88828e-06
2.09305e-05
2.09301e-05
5.49852e-07
9.98129e-07
4.48912e-07
4.51582e-07
5.49912e-07
9.97893e-07
4.48912e-07
1.17295e-06
5.96887e-06
1.17307e-06
5.96884e-06
5.49857e-07
4.48913e-07
9.982e-07
4.51585e-07
5.49917e-07
4.48912e-07
9.97964e-07
1.17305e-06
5.96851e-06
5.96832e-06
1.17293e-06
5.49913e-07
4.51579e-07
9.97892e-07
4.48909e-07
9.98128e-07
4.4891e-07
5.49854e-07
1.17307e-06
5.96887e-06
5.96874e-06
1.17296e-06
5.49917e-07
4.51583e-07
4.4891e-07
9.97965e-07
4.4891e-07
9.982e-07
5.49859e-07
1.17304e-06
5.96796e-06
1.1732e-06
5.96794e-06
5.49857e-07
4.48912e-07
9.97951e-07
4.51583e-07
5.49918e-07
4.48912e-07
9.97739e-07
1.17304e-06
5.96841e-06
1.1732e-06
5.96842e-06
5.49914e-07
4.51579e-07
9.97766e-07
4.48909e-07
9.97999e-07
4.48912e-07
5.49857e-07
1.17319e-06
5.96796e-06
5.96783e-06
1.17305e-06
5.49915e-07
4.51581e-07
4.48909e-07
9.97738e-07
4.4891e-07
9.97954e-07
5.49859e-07
1.17319e-06
5.96842e-06
5.96832e-06
1.17305e-06
1.88883e-06
1.88789e-06
4.56564e-07
1.88856e-06
1.88782e-06
2.09326e-05
2.09334e-05
2.0935e-05
2.09344e-05
4.56619e-07
1.88861e-06
1.88781e-06
1.88878e-06
1.88789e-06
2.0933e-05
2.09326e-05
5.49854e-07
4.48912e-07
9.98041e-07
4.51582e-07
5.49914e-07
4.48912e-07
9.97826e-07
1.17305e-06
5.96851e-06