/*--------------------------------*- C++ -*----------------------------------*\
| =========                 |                                                 |
| \\      /  F ield         | OpenFOAM: The Open Source CFD Toolbox           |
|  \\    /   O peration     | Version:  2206                                  |
|   \\  /    A nd           | Website:  www.openfoam.com                      |
|    \\/     M anipulation  |                                                 |
\*---------------------------------------------------------------------------*/
FoamFile
{
    version     2.0;
    format      ascii;
    arch        "LSB;label=32;scalar=64";
    class       volScalarField;
    location    "21.5";
    object      nut;
}
// * * * * * * * * * * * * * * * * * * * * * * * * * * * * * * * * * * * * * //

dimensions      [0 2 -1 0 0 0 0];

internalField   nonuniform List<scalar> 
28673
(
0.000206063
0.000184292
0.000225189
0.000206064
0.000206056
0.000184304
0.000225188
0.000206061
0.000206053
0.000184302
0.000225189
0.00020606
0.000206053
0.000184302
0.000225186
0.000206051
0.000206049
0.000184289
0.000225157
0.000206006
0.000206006
0.000184222
0.000225166
0.00020601
0.000206003
0.000184235
0.000225168
0.000206011
0.000206004
0.000184227
0.000225168
0.000206012
0.000206006
0.000184231
0.000225168
0.000206014
0.000206007
0.000184229
0.000225168
0.000206017
0.00020601
0.000184232
0.000225166
0.000206011
0.000206005
0.000184252
0.000225694
0.000208668
0.000208666
0.00018776
0.000206047
0.00018447
0.000206063
0.000184462
0.00020605
0.000206047
0.00020605
0.000206047
0.000184316
0.000184464
0.000206059
0.000206038
0.000206049
0.000206064
0.000206048
0.000184454
0.000206059
0.000206057
0.000206058
0.000184458
0.000184311
0.000184462
0.000206051
0.000206048
0.00020605
0.000206047
0.000184312
0.000184462
0.00020606
0.000206038
0.00020606
0.000206038
0.000206046
0.000206061
0.000206045
0.000184303
0.000184452
0.000206057
0.000206053
0.000206055
0.000184455
0.000184311
0.000184461
0.00020605
0.000206047
0.00020605
0.000206047
0.000184311
0.000184463
0.00020606
0.000206039
0.00020606
0.000206039
0.000206044
0.00020606
0.000206045
0.000184301
0.000184451
0.000206054
0.000206054
0.000206055
0.000184454
0.00018431
0.000184458
0.00020605
0.000206046
0.000206045
0.000206041
0.000184311
0.00018445
0.000206062
0.000206039
0.000206061
0.000206038
0.000206045
0.000206055
0.000206041
0.0001843
0.000184449
0.000206055
0.000206051
0.000206051
0.000184448
0.000184305
0.000184398
0.000206042
0.000206035
0.000206004
0.000205993
0.000184292
0.000184388
0.000206059
0.000206035
0.000206021
0.000206004
0.000206038
0.000206011
0.000205999
0.000184297
0.000184403
0.000206048
0.000206018
0.000206009
0.000184387
0.000184232
0.000184387
0.000205995
0.00020599
0.000205995
0.000205993
0.000184231
0.000184393
0.000206008
0.00020599
0.000206004
0.000205983
0.000205993
0.00020601
0.000205994
0.000184235
0.000184379
0.000206003
0.000206001
0.000206004
0.000184388
0.000184238
0.000184385
0.000205997
0.000205994
0.000205997
0.000205994
0.000184241
0.000184386
0.000206007
0.000205986
0.000206007
0.000205987
0.000205995
0.000206011
0.000205996
0.000184231
0.000184378
0.000206005
0.000206004
0.000206006
0.00018438
0.000184234
0.000184384
0.000205997
0.000205995
0.000205998
0.000205996
0.000184234
0.000184391
0.000206007
0.000205987
0.000206009
0.000205988
0.000205996
0.000206012
0.000205997
0.000184227
0.000184377
0.000206006
0.000206006
0.000206007
0.000184384
0.000184235
0.000184383
0.000205999
0.000205996
0.000206
0.000205997
0.00018424
0.000184388
0.00020601
0.000205989
0.00020601
0.000205989
0.000205998
0.000206014
0.000205998
0.000184228
0.000184377
0.000206008
0.000206007
0.000206008
0.000184381
0.000184233
0.000184387
0.000206
0.000205998
0.000206003
0.000206001
0.000184238
0.000184389
0.000206011
0.00020599
0.000206014
0.000205993
0.000205999
0.000206018
0.000206002
0.000184227
0.00018438
0.000206009
0.000206011
0.000206013
0.000184384
0.000184236
0.000184403
0.000206004
0.000206002
0.00020603
0.000206029
0.000184239
0.000184406
0.000206014
0.000205994
0.000206042
0.000206021
0.000206003
0.000206045
0.000206029
0.00018423
0.000184396
0.000206013
0.000206039
0.000206041
0.000184401
0.000184255
0.000185854
0.000205997
0.000205995
0.000207672
0.000207671
0.000184258
0.000185855
0.000206008
0.000205987
0.00020768
0.000207667
0.000205995
0.000207681
0.000207671
0.000184249
0.000185849
0.000206008
0.000207679
0.00020768
0.000185853
0.000187762
0.000208662
0.000208661
0.000187762
0.000208668
0.000208658
0.000225694
0.000225693
0.000225694
0.000208662
0.000187758
0.000208668
4.72011e-05
4.91053e-05
4.71926e-05
4.91035e-05
2.57516e-05
2.57507e-05
4.72088e-05
4.90993e-05
0.00022519
0.000225187
0.000225189
0.00022519
0.000225186
0.000225187
0.000112365
5.75621e-05
0.000218544
0.000206065
0.000112341
5.75798e-05
0.000218544
2.57489e-05
0.000112354
0.000218541
0.000206058
0.000112328
0.000218541
5.75834e-05
3.55256e-05
3.5519e-05
0.000184461
3.55298e-05
3.55233e-05
4.72035e-05
4.91036e-05
4.71948e-05
4.91027e-05
2.57502e-05
2.57498e-05
4.72083e-05
4.90996e-05
4.72017e-05
4.90985e-05
0.00022519
0.000225185
0.000225187
0.000225189
0.000225189
0.000225185
0.000225186
0.000112362
5.75652e-05
0.000218544
0.000206063
0.000112336
5.75828e-05
0.000218541
2.57481e-05
2.57475e-05
0.00011235
0.00021854
5.75688e-05
0.000206054
0.000112325
0.000218538
5.75858e-05
3.55312e-05
3.5525e-05
0.000184457
3.55378e-05
3.55316e-05
4.72084e-05
4.91031e-05
4.71979e-05
4.91023e-05
2.57498e-05
2.57496e-05
4.72134e-05
4.9099e-05
4.72031e-05
4.90981e-05
0.000225187
0.000225185
0.000225184
0.00022519
0.000225186
0.000225185
0.000225184
0.000112363
5.75672e-05
0.00021854
0.000206061
0.000112335
5.75848e-05
0.00021854
2.57473e-05
2.5747e-05
0.00011235
0.000218537
5.75708e-05
0.000206053
0.000112323
0.000218538
5.7587e-05
3.55405e-05
3.55344e-05
0.000184454
3.55458e-05
3.55396e-05
4.72119e-05
4.9103e-05
4.72032e-05
4.91023e-05
2.57499e-05
2.575e-05
4.7219e-05
4.90988e-05
4.72101e-05
4.90981e-05
0.000225187
0.000225185
0.000225186
0.000225188
0.000225186
0.000225184
0.000225184
0.000112365
5.75704e-05
0.000218542
0.000206059
0.000112338
5.75871e-05
0.000218542
2.57472e-05
2.57471e-05
0.000112354
0.000218539
5.75722e-05
0.000206052
0.000112326
0.000218539
5.75892e-05
3.5546e-05
3.55399e-05
0.000184455
3.55498e-05
3.55436e-05
4.71962e-05
4.9104e-05
4.71979e-05
4.91048e-05
2.57505e-05
2.57505e-05
4.72108e-05
4.90994e-05
4.72103e-05
4.90996e-05
0.000225184
0.000225183
0.000225183
0.00022516
0.000225157
0.00022516
0.000225158
0.000112343
5.75608e-05
0.000218537
0.00020604
0.000112329
5.75669e-05
0.00021853
2.57477e-05
2.57478e-05
0.000112332
0.000218536
5.7571e-05
0.000206045
0.000112318
0.000218531
5.75796e-05
3.55435e-05
3.55374e-05
0.000184428
3.55427e-05
3.55364e-05
4.71742e-05
4.91073e-05
4.71713e-05
4.91067e-05
2.57505e-05
2.57503e-05
4.71841e-05
4.91028e-05
4.71845e-05
4.91026e-05
0.000225158
0.000225156
0.000225158
0.000225164
0.000225167
0.000225162
0.000225165
0.000112281
5.75328e-05
0.0002185
0.000206007
0.000112259
5.75445e-05
0.000218502
2.5748e-05
2.57477e-05
0.000112269
0.0002185
5.75443e-05
0.000206001
0.000112249
0.0002185
5.7552e-05
3.5531e-05
3.55248e-05
0.000184381
3.55292e-05
3.55228e-05
4.71709e-05
4.91073e-05
4.7163e-05
4.91065e-05
2.57504e-05
2.57502e-05
4.71783e-05
4.91033e-05
4.71714e-05
4.91025e-05
0.000225168
0.000225165
0.000225166
0.000225168
0.000225168
0.000225166
0.000225167
0.000112284
5.75257e-05
0.000218508
0.000206011
0.000112256
5.75421e-05
0.000218508
2.57478e-05
2.57476e-05
0.000112271
0.000218505
5.75305e-05
0.000206004
0.000112244
0.000218506
5.75456e-05
3.55243e-05
3.5518e-05
0.000184385
3.55269e-05
3.55206e-05
4.717e-05
4.91072e-05
4.71621e-05
4.91076e-05
2.57503e-05
2.57507e-05
4.71773e-05
4.91031e-05
4.71701e-05
4.91035e-05
0.000225168
0.000225165
0.000225167
0.000225168
0.000225168
0.000225166
0.000225167
0.000112283
5.75275e-05
0.000218508
0.000206012
0.000112256
5.75431e-05
0.000218509
2.57477e-05
2.5748e-05
0.000112273
0.000218506
5.75312e-05
0.000206005
0.000112246
0.000218506
5.75461e-05
3.5525e-05
3.55188e-05
0.00018438
3.55281e-05
3.55218e-05
4.71676e-05
4.91084e-05
4.71606e-05
4.91106e-05
2.57494e-05
2.57509e-05
4.71749e-05
4.91044e-05
4.71686e-05
4.91066e-05
0.000225168
0.000225166
0.000225167
0.000225168
0.000225168
0.000225166
0.000225167
0.000112285
5.75446e-05
0.000218509
0.000206013
0.000112259
5.75531e-05
0.000218509
2.57471e-05
2.57487e-05
0.000112278
0.000218506
5.75483e-05
0.000206007
0.000112252
0.000218507
5.75559e-05
3.55299e-05
3.55237e-05
0.000184383
3.55194e-05
3.5513e-05
4.71507e-05
4.91068e-05
4.71443e-05
4.91131e-05
2.57475e-05
2.57505e-05
4.7158e-05
4.9103e-05
4.71524e-05
4.91094e-05
0.000225168
0.000225166
0.000225167
0.000225168
0.000225169
0.000225166
0.000225167
0.000112279
5.75571e-05
0.000218509
0.000206015
0.000112257
5.75542e-05
0.00021851
2.57455e-05
2.57485e-05
0.000112272
0.000218507
5.75593e-05
0.000206009
0.00011225
0.000218508
5.75547e-05
3.55201e-05
3.55138e-05
0.000184385
3.54978e-05
3.54915e-05
4.71394e-05
4.91027e-05
4.71323e-05
4.91144e-05
2.57418e-05
2.57454e-05
4.71468e-05
4.90994e-05
4.71408e-05
4.91112e-05
0.000225169
0.000225167
0.000225168
0.000225175
0.000225175
0.000225173
0.000225174
0.000112277
5.75718e-05
0.000218511
0.000206022
0.000112255
5.75254e-05
0.00021851
2.574e-05
2.57434e-05
0.000112271
0.000218509
5.75704e-05
0.000206016
0.000112248
0.000218508
5.75228e-05
3.54793e-05
3.54731e-05
0.000184387
3.54157e-05
3.54094e-05
4.72256e-05
4.90932e-05
4.71092e-05
4.91334e-05
2.57291e-05
2.5741e-05
4.72293e-05
4.90896e-05
4.71162e-05
4.91304e-05
0.000225168
0.000225165
0.000225167
0.000225308
0.000225308
0.000225307
0.000225308
0.000112462
5.75632e-05
0.000218544
0.000206201
0.000112269
5.75536e-05
0.000218499
2.57269e-05
2.57389e-05
0.000112457
0.000218542
5.75605e-05
0.000206196
0.000112263
0.000218497
5.75521e-05
3.53643e-05
3.53581e-05
0.000184621
3.52372e-05
3.52326e-05
5.5935e-05
5.24221e-05
4.7745e-05
7.71554e-05
2.8053e-05
2.57095e-05
5.5937e-05
5.24207e-05
4.77462e-05
7.7166e-05
0.000229666
0.000228563
0.000228564
0.000224039
0.000229621
0.000228192
0.000228192
0.000118705
5.99046e-05
0.00021965
0.000210668
0.000114655
6.8928e-05
0.000221626
2.80514e-05
2.57066e-05
0.0001187
0.000219649
5.99048e-05
0.000210667
0.000114652
0.000221625
6.8924e-05
3.61826e-05
3.61744e-05
0.000192233
3.98936e-05
3.98895e-05
4.91034e-05
5.75812e-05
2.57516e-05
3.55266e-05
3.55238e-05
2.57522e-05
5.75784e-05
4.91018e-05
2.57531e-05
2.57522e-05
2.57508e-05
3.5526e-05
0.000184466
3.55303e-05
3.55221e-05
2.57514e-05
2.57521e-05
2.57498e-05
2.57507e-05
0.000184313
3.55338e-05
3.55242e-05
3.55285e-05
3.552e-05
4.72019e-05
4.91039e-05
4.71934e-05
4.91029e-05
0.000112364
5.75678e-05
0.000218543
0.00020605
0.000112339
5.75831e-05
0.000218543
0.000112365
5.75669e-05
0.000218543
0.000206047
0.00011234
5.75825e-05
0.000218543
4.71948e-05
4.9103e-05
4.9104e-05
4.72029e-05
4.71954e-05
4.91024e-05
4.91033e-05
4.72031e-05
0.00011234
0.000206051
5.75845e-05
0.000218543
5.75692e-05
0.000218543
0.000112365
0.000112341
0.000206048
5.75838e-05
0.000218543
5.75683e-05
0.000218543
0.000112366
3.55243e-05
3.55211e-05
0.000184465
3.5528e-05
3.55238e-05
2.57523e-05
2.57513e-05
2.57501e-05
2.57507e-05
0.000184314
3.55314e-05
3.55272e-05
3.55261e-05
3.55211e-05
2.57507e-05
2.57514e-05
0.000112367
0.000206059
5.75737e-05
0.000218542
4.72072e-05
4.90967e-05
0.000112366
0.000206039
0.000218539
5.75679e-05
4.7203e-05
4.90989e-05
4.90998e-05
4.72094e-05
0.000112342
0.000206059
5.75757e-05
0.000218541
5.756e-05
0.000218542
0.000112366
4.72014e-05
4.90962e-05
4.90972e-05
4.7208e-05
0.000112341
0.000206038
0.000218538
5.75695e-05
0.000218539
5.75532e-05
0.000112365
4.7201e-05
4.91024e-05
4.71925e-05
4.91013e-05
0.000112363
0.000218542
5.75643e-05
0.000206049
0.000112338
0.000218542
5.75798e-05
4.72006e-05
4.91018e-05
4.71921e-05
4.91e-05
0.000112341
0.000206065
5.75814e-05
0.000218544
5.75651e-05
0.000218544
0.000112363
4.71946e-05
4.91009e-05
4.91019e-05
4.72026e-05
0.000112339
0.000206049
0.000218542
5.75812e-05
0.000218543
5.75657e-05
0.000112363
4.71941e-05
4.90995e-05
4.91004e-05
4.72019e-05
0.000184459
3.55166e-05
3.5529e-05
2.57516e-05
2.5748e-05
2.5749e-05
0.000184307
3.55196e-05
3.55313e-05
3.55143e-05
3.5527e-05
2.57506e-05
2.57515e-05
0.000112351
0.00021854
5.75604e-05
0.000206059
0.000112326
0.00021854
5.7576e-05
4.71917e-05
4.71815e-05
4.90999e-05
4.71913e-05
4.91014e-05
4.7181e-05
4.90995e-05
0.00011233
0.000206057
0.000218541
5.75846e-05
0.000218541
5.75693e-05
0.000112353
0.000112327
0.000206058
0.00021854
5.75774e-05
0.000218541
5.75618e-05
0.000112351
4.71845e-05
4.90994e-05
4.91004e-05
4.71931e-05
4.71841e-05
4.90991e-05
4.91e-05
4.71926e-05
2.57518e-05
2.57508e-05
2.57508e-05
2.57498e-05
0.000184309
3.55328e-05
3.55265e-05
3.55278e-05
3.55214e-05
2.57501e-05
2.57508e-05
2.57491e-05
2.57498e-05
2.57515e-05
2.5751e-05
2.57498e-05
2.57493e-05
3.55327e-05
3.55225e-05
0.000184462
3.55392e-05
3.55284e-05
2.57508e-05
2.57511e-05
2.57489e-05
2.57494e-05
0.000184312
3.55439e-05
3.55335e-05
3.5538e-05
3.55272e-05
4.72032e-05
4.91029e-05
4.71962e-05
4.91021e-05
0.000112365
5.75707e-05
0.000218542
0.000206051
0.000112341
5.7586e-05
0.000218542
0.000112366
5.75696e-05
0.00021854
0.000206048
0.000112342
5.75851e-05
0.00021854
4.71968e-05
4.91024e-05
4.91032e-05
4.72053e-05
4.71966e-05
4.91019e-05
4.91026e-05
4.72054e-05
0.000112341
0.000206051
5.75869e-05
0.000218542
5.75721e-05
0.000218542
0.000112365
0.000112342
0.000206048
5.75858e-05
0.00021854
5.75707e-05
0.00021854
0.000112366
3.55301e-05
3.55264e-05
0.000184464
3.55362e-05
3.55336e-05
2.57509e-05
2.57504e-05
2.57497e-05
2.575e-05
0.000184313
3.55401e-05
3.55372e-05
3.55348e-05
3.55318e-05
2.57502e-05
2.57506e-05
0.000112366
5.75619e-05
0.000218541
0.00020606
0.000112343
5.75775e-05
0.000218541
4.72073e-05
4.90967e-05
4.72017e-05
4.90958e-05
0.000112365
0.000218538
5.75548e-05
0.000206038
0.000112342
0.000218538
5.7571e-05
4.72022e-05
4.90983e-05
4.90991e-05
4.72097e-05
0.000112343
0.00020606
5.75788e-05
0.000218541
5.75637e-05
0.000218541
0.000112365
4.72012e-05
4.90955e-05
4.90963e-05
4.72088e-05
0.000112341
0.000206038
0.000218538
5.75723e-05
0.000218538
5.75563e-05
0.000112365
4.7203e-05
4.91015e-05
4.71958e-05
4.91006e-05
0.000112364
0.00021854
5.75671e-05
0.000206046
0.00011234
0.000218539
5.75827e-05
4.7202e-05
4.91e-05
4.7195e-05
4.90991e-05
0.000112338
0.000206063
5.75836e-05
0.00021854
5.75681e-05
0.000218541
0.000112362
4.71964e-05
4.91004e-05
4.91012e-05
4.72049e-05
0.00011234
0.000206046
0.000218538
5.75835e-05
0.000218538
5.75685e-05
0.000112363
4.71954e-05
4.90989e-05
4.90997e-05
4.72042e-05
3.55173e-05
3.55298e-05
0.000184453
3.55225e-05
3.55359e-05
2.57506e-05
2.57501e-05
2.57471e-05
2.57476e-05
0.000184303
3.5526e-05
3.5541e-05
3.55203e-05
3.55347e-05
2.57497e-05
2.57502e-05
0.000112351
0.000218538
5.75632e-05
0.000206057
0.000112328
0.000218537
5.75789e-05
4.7193e-05
4.90999e-05
4.71854e-05
4.9099e-05
4.71927e-05
4.90996e-05
4.7185e-05
4.90987e-05
0.000112325
0.000206054
0.000218537
5.75867e-05
0.000218538
5.75717e-05
0.00011235
0.000112328
0.000206057
0.000218536
5.75799e-05
0.000218536
5.75646e-05
0.000112351
4.71856e-05
4.90987e-05
4.90995e-05
4.71952e-05
4.71853e-05
4.90985e-05
4.90992e-05
4.7195e-05
2.57502e-05
2.57497e-05
2.57492e-05
2.57487e-05
0.000184306
3.55423e-05
3.55362e-05
3.55365e-05
3.55304e-05
2.57495e-05
2.57498e-05
2.57485e-05
2.57488e-05
2.57509e-05
2.57507e-05
2.57491e-05
2.57488e-05
3.55424e-05
3.55322e-05
0.000184461
3.55474e-05
3.55376e-05
2.57508e-05
2.57509e-05
2.57487e-05
2.57489e-05
0.000184311
3.55499e-05
3.55408e-05
3.55457e-05
3.5536e-05
4.72089e-05
4.91025e-05
4.71994e-05
4.91018e-05
0.000112367
5.75729e-05
0.000218541
0.00020605
0.000112342
5.75879e-05
0.000218541
0.000112368
5.75714e-05
0.00021854
0.000206047
0.000112343
5.7587e-05
0.00021854
4.72022e-05
4.91023e-05
4.91029e-05
4.7211e-05
4.72028e-05
4.91018e-05
4.91024e-05
4.72116e-05
0.000112343
0.00020605
5.75898e-05
0.000218542
5.75742e-05
0.000218542
0.000112369
0.000112344
0.000206047
5.75889e-05
0.000218541
5.75729e-05
0.00021854
0.00011237
3.55384e-05
3.5535e-05
0.000184462
3.55431e-05
3.55399e-05
2.57505e-05
2.57502e-05
2.57497e-05
2.57499e-05
0.000184312
3.55452e-05
3.55418e-05
3.55413e-05
3.55376e-05
2.57503e-05
2.57505e-05
0.000112367
5.75648e-05
0.00021854
0.000206059
0.000112342
5.75797e-05
0.00021854
4.72126e-05
4.90961e-05
4.72035e-05
4.90953e-05
0.000112367
0.000218537
5.75575e-05
0.000206039
0.000112342
0.000218537
5.75733e-05
4.72082e-05
4.90981e-05
4.90988e-05
4.72169e-05
0.000112344
0.00020606
5.75811e-05
0.000218542
5.75657e-05
0.000218541
0.000112369
4.72073e-05
4.90952e-05
4.90959e-05
4.72158e-05
0.000112343
0.000206039
0.000218537
5.75745e-05
0.000218536
5.75585e-05
0.000112368
4.72079e-05
4.9101e-05
4.71988e-05
4.91003e-05
0.000112366
0.000218538
5.75693e-05
0.000206044
0.000112341
0.000218538
5.75845e-05
4.72077e-05
4.90995e-05
4.71982e-05
4.90987e-05
0.000112339
0.00020606
5.75865e-05
0.000218541
5.75703e-05
0.00021854
0.000112365
4.72017e-05
4.91003e-05
4.91009e-05
4.72105e-05
0.000112344
0.000206045
0.00021854
5.75863e-05
0.000218538
5.75705e-05
0.000112368
4.72016e-05
4.90987e-05
4.90993e-05
4.72104e-05
3.55239e-05
3.55397e-05
0.000184452
3.55294e-05
3.55451e-05
2.57499e-05
2.57496e-05
2.5747e-05
2.57472e-05
0.000184301
3.55322e-05
3.55482e-05
3.55272e-05
3.55435e-05
2.57496e-05
2.57497e-05
0.000112354
0.000218536
5.75655e-05
0.000206054
0.000112328
0.000218536
5.7581e-05
4.71988e-05
4.90992e-05
4.71885e-05
4.90985e-05
4.71987e-05
4.90991e-05
4.71884e-05
4.90984e-05
0.000112327
0.000206053
0.000218538
5.75879e-05
0.000218538
5.75728e-05
0.000112353
0.000112332
0.000206055
0.000218537
5.75827e-05
0.000218536
5.75668e-05
0.000112356
4.71919e-05
4.90984e-05
4.90991e-05
4.72014e-05
4.71919e-05
4.90983e-05
4.90989e-05
4.72014e-05
2.57496e-05
2.57494e-05
2.57486e-05
2.57484e-05
0.000184303
3.55484e-05
3.55422e-05
3.55441e-05
3.55379e-05
2.57494e-05
2.57496e-05
2.57484e-05
2.57486e-05
2.5751e-05
2.57509e-05
2.5749e-05
2.57488e-05
3.55478e-05
3.55389e-05
0.000184461
3.55512e-05
3.5543e-05
2.57514e-05
2.57512e-05
2.57491e-05
2.57491e-05
0.00018431
3.5549e-05
3.55437e-05
3.55487e-05
3.55412e-05
4.72126e-05
4.91024e-05
4.72052e-05
4.91021e-05
0.000112367
5.7576e-05
0.000218542
0.000206049
0.000112345
5.75914e-05
0.000218542
0.000112368
5.75748e-05
0.000218543
0.000206045
0.000112346
5.75895e-05
0.000218544
4.7205e-05
4.91029e-05
4.91029e-05
4.72088e-05
4.72056e-05
4.91034e-05
4.9103e-05
4.72096e-05
0.000112338
0.000206047
5.75882e-05
0.00021854
5.75772e-05
0.000218541
0.000112358
0.00011234
0.000206044
5.75831e-05
0.000218542
5.75742e-05
0.000218544
0.00011236
3.55432e-05
3.55393e-05
0.000184461
3.55456e-05
3.55422e-05
2.57506e-05
2.57506e-05
2.57504e-05
2.57503e-05
0.000184309
3.55421e-05
3.55388e-05
3.55426e-05
3.55388e-05
2.5751e-05
2.5751e-05
0.000112372
5.75674e-05
0.000218544
0.000206062
0.000112347
5.75831e-05
0.000218544
4.72179e-05
4.90959e-05
4.72105e-05
4.90952e-05
0.000112372
0.000218539
5.75597e-05
0.000206039
0.000112346
0.00021854
5.75759e-05
4.72129e-05
4.90984e-05
4.90988e-05
4.72187e-05
0.000112345
0.000206061
5.75831e-05
0.000218544
5.75693e-05
0.000218545
0.000112364
4.72119e-05
4.90954e-05
4.90959e-05
4.72176e-05
0.000112345
0.000206039
0.000218539
5.75756e-05
0.00021854
5.75611e-05
0.000112364
4.72115e-05
4.91009e-05
4.7204e-05
4.91006e-05
0.000112365
0.000218541
5.75723e-05
0.000206044
0.000112341
0.000218542
5.75878e-05
4.72112e-05
4.90993e-05
4.72039e-05
4.90987e-05
0.000112341
0.000206057
5.75806e-05
0.00021854
5.75714e-05
0.000218542
0.000112358
4.72046e-05
4.91019e-05
4.91015e-05
4.72086e-05
0.000112337
0.000206043
0.00021854
5.75847e-05
0.000218541
5.75733e-05
0.000112357
4.72042e-05
4.90993e-05
4.90994e-05
4.72082e-05
3.55298e-05
3.55463e-05
0.000184452
3.5534e-05
3.55501e-05
2.57498e-05
2.57496e-05
2.57473e-05
2.57474e-05
0.000184302
3.55339e-05
3.55496e-05
3.55313e-05
3.5548e-05
2.575e-05
2.57499e-05
0.000112353
0.000218539
5.75686e-05
0.000206055
0.000112329
0.00021854
5.75842e-05
4.72024e-05
4.9099e-05
4.71942e-05
4.90983e-05
4.72021e-05
4.90989e-05
4.71941e-05
4.90983e-05
0.00011233
0.000206051
0.000218538
5.75884e-05
0.000218539
5.75751e-05
0.000112348
0.000112325
0.000206053
0.000218539
5.75809e-05
0.00021854
5.75696e-05
0.000112346
4.71948e-05
4.90984e-05
4.90989e-05
4.71996e-05
4.71945e-05
4.9099e-05
4.9099e-05
4.71992e-05
2.57497e-05
2.57496e-05
2.57487e-05
2.57486e-05
0.000184304
3.55476e-05
3.55415e-05
3.55472e-05
3.55412e-05
2.575e-05
2.57499e-05
2.5749e-05
2.57489e-05
2.57516e-05
2.57515e-05
2.57495e-05
2.57496e-05
3.55453e-05
3.55404e-05
0.00018444
3.55442e-05
3.55392e-05
2.57514e-05
2.57517e-05
2.57496e-05
2.57498e-05
0.000184277
3.55374e-05
3.55334e-05
3.55403e-05
3.55351e-05
4.7197e-05
4.91044e-05
4.72001e-05
4.91055e-05
0.000112343
5.75715e-05
0.000218538
0.000206036
0.000112328
5.75764e-05
0.000218531
0.000112344
5.75653e-05
0.000218538
0.000206022
0.00011233
5.75694e-05
0.000218529
4.71852e-05
4.91065e-05
4.9106e-05
4.71824e-05
4.71859e-05
4.91064e-05
4.91065e-05
4.7183e-05
0.000112307
0.00020602
5.75614e-05
0.000218504
5.75583e-05
0.000218515
0.000112295
0.000112307
0.000206004
5.75547e-05
0.000218501
5.75508e-05
0.00021851
0.000112295
3.55382e-05
3.55345e-05
0.000184419
3.5536e-05
3.55328e-05
2.57512e-05
2.57511e-05
2.57504e-05
2.57506e-05
0.000184251
3.55272e-05
3.55238e-05
3.55317e-05
3.55283e-05
2.5751e-05
2.57513e-05
0.000112354
5.75678e-05
0.000218542
0.000206055
0.000112336
5.75754e-05
0.000218538
4.72097e-05
4.90963e-05
4.72106e-05
4.90966e-05
0.000112354
0.000218537
5.75594e-05
0.000206031
0.000112335
0.000218534
5.7568e-05
4.72006e-05
4.91017e-05
4.91006e-05
4.71958e-05
0.000112324
0.000206044
5.75609e-05
0.00021851
5.75578e-05
0.000218529
0.000112323
4.71996e-05
4.90988e-05
4.90977e-05
4.71945e-05
0.000112323
0.000206023
0.000218509
5.75534e-05
0.000218527
5.75494e-05
0.000112323
4.71961e-05
4.9103e-05
4.71992e-05
4.9104e-05
0.000112342
0.000218537
5.75679e-05
0.000206031
0.000112328
0.00021853
5.75731e-05
4.71957e-05
4.91002e-05
4.71987e-05
4.91011e-05
0.000112307
0.000206021
5.75522e-05
0.000218503
5.75479e-05
0.000218511
0.000112295
4.7185e-05
4.9105e-05
4.91051e-05
4.71822e-05
0.000112307
0.000206014
0.000218502
5.75578e-05
0.000218513
5.75547e-05
0.000112293
4.71846e-05
4.9103e-05
4.91024e-05
4.71818e-05
3.55301e-05
3.55462e-05
0.000184437
3.55297e-05
3.55453e-05
2.57503e-05
2.57504e-05
2.57478e-05
2.57481e-05
0.000184279
3.5524e-05
3.55402e-05
3.55252e-05
3.55415e-05
2.57503e-05
2.57506e-05
0.000112331
0.000218536
5.75639e-05
0.000206041
0.000112317
0.000218529
5.75693e-05
4.71874e-05
4.90991e-05
4.71894e-05
4.90996e-05
4.7187e-05
4.90999e-05
4.7189e-05
4.91007e-05
0.000112298
0.000206036
0.000218505
5.75642e-05
0.000218516
5.75615e-05
0.000112286
0.000112296
0.000206024
0.000218501
5.75542e-05
0.000218512
5.75507e-05
0.000112283
4.71756e-05
4.91021e-05
4.91008e-05
4.71737e-05
4.71753e-05
4.91026e-05
4.9102e-05
4.71733e-05
2.57503e-05
2.57502e-05
2.57493e-05
2.57492e-05
0.000184263
3.55359e-05
3.55296e-05
3.55386e-05
3.55324e-05
2.57501e-05
2.57504e-05
2.57491e-05
2.57494e-05
2.57516e-05
2.57513e-05
2.57498e-05
2.57495e-05
3.55329e-05
3.55291e-05
0.00018438
3.55305e-05
3.55254e-05
2.57513e-05
2.57515e-05
2.57494e-05
2.57496e-05
0.000184229
3.55285e-05
3.55214e-05
3.55273e-05
3.55213e-05
4.71749e-05
4.91071e-05
4.71733e-05
4.91064e-05
0.000112281
5.75439e-05
0.0002185
0.000205993
0.00011226
5.75519e-05
0.000218501
0.000112282
5.75374e-05
0.000218499
0.000205991
0.00011226
5.75474e-05
0.000218501
4.71662e-05
4.91066e-05
4.91072e-05
4.71715e-05
4.71669e-05
4.91063e-05
4.9107e-05
4.71723e-05
0.000112257
0.000205993
5.75488e-05
0.000218506
5.75365e-05
0.000218503
0.000112283
0.000112258
0.000205992
5.75454e-05
0.000218506
5.7532e-05
0.000218504
0.000112284
3.5523e-05
3.55196e-05
0.000184389
3.55226e-05
3.55185e-05
2.57512e-05
2.57509e-05
2.57502e-05
2.57504e-05
0.00018424
3.55219e-05
3.55178e-05
3.55198e-05
3.55153e-05
2.57508e-05
2.57511e-05
0.000112282
5.75426e-05
0.000218501
0.000206003
0.000112284
5.75474e-05
0.000218499
4.71827e-05
4.91e-05
4.71845e-05
4.90998e-05
0.000112281
0.000218499
5.75342e-05
0.000205984
0.000112284
0.000218496
5.75396e-05
4.71761e-05
4.91025e-05
4.91032e-05
4.71795e-05
0.000112258
0.000206001
5.75418e-05
0.000218503
5.75311e-05
0.000218499
0.000112284
4.71747e-05
4.90998e-05
4.91005e-05
4.71779e-05
0.000112256
0.000205981
0.0002185
5.75336e-05
0.000218496
5.75223e-05
0.000112283
4.71741e-05
4.91057e-05
4.71725e-05
4.91049e-05
0.000112279
0.000218499
5.75401e-05
0.000205992
0.00011226
0.000218501
5.75485e-05
4.71737e-05
4.91037e-05
4.7172e-05
4.91032e-05
0.000112257
0.000206009
5.75425e-05
0.000218507
5.75287e-05
0.000218505
0.000112283
4.71661e-05
4.91048e-05
4.91055e-05
4.71714e-05
0.000112256
0.000205992
0.000218506
5.75455e-05
0.000218503
5.75329e-05
0.000112282
4.71657e-05
4.91031e-05
4.91037e-05
4.7171e-05
3.55192e-05
3.55359e-05
0.000184376
3.55161e-05
3.55324e-05
2.57505e-05
2.57502e-05
2.57476e-05
2.57479e-05
0.000184222
3.55113e-05
3.55281e-05
3.55115e-05
3.55283e-05
2.57502e-05
2.57504e-05
0.000112267
0.000218498
5.75363e-05
0.000206002
0.000112249
0.000218499
5.75447e-05
4.71644e-05
4.9103e-05
4.71629e-05
4.91028e-05
4.71641e-05
4.91033e-05
4.71626e-05
4.91028e-05
0.000112245
0.000206
0.000218504
5.75471e-05
0.000218502
5.75358e-05
0.000112271
0.000112243
0.000206002
0.000218504
5.75417e-05
0.000218501
5.7529e-05
0.00011227
4.71556e-05
4.91028e-05
4.91034e-05
4.71615e-05
4.71553e-05
4.91027e-05
4.91033e-05
4.71614e-05
2.57503e-05
2.575e-05
2.57493e-05
2.5749e-05
0.000184233
3.55272e-05
3.55209e-05
3.55258e-05
3.55195e-05
2.575e-05
2.57502e-05
2.5749e-05
2.57492e-05
2.57515e-05
2.57513e-05
2.57496e-05
2.57494e-05
3.55259e-05
3.55186e-05
0.000184389
3.55281e-05
3.55207e-05
2.57514e-05
2.57515e-05
2.57495e-05
2.57496e-05
0.000184237
3.55282e-05
3.55207e-05
3.55258e-05
3.55182e-05
4.71717e-05
4.91069e-05
4.71651e-05
4.91063e-05
0.000112284
5.75342e-05
0.000218508
0.000205997
0.000112259
5.7548e-05
0.000218508
0.000112285
5.75307e-05
0.000218507
0.000205994
0.00011226
5.7545e-05
0.000218507
4.71639e-05
4.91067e-05
4.91071e-05
4.71707e-05
4.71647e-05
4.91065e-05
4.91068e-05
4.71715e-05
0.000112259
0.000205998
5.75479e-05
0.000218508
5.7534e-05
0.000218508
0.000112283
0.000112261
0.000205995
5.7545e-05
0.000218507
5.75307e-05
0.000218508
0.000112285
3.55194e-05
3.55149e-05
0.00018439
3.55219e-05
3.55179e-05
2.57511e-05
2.57508e-05
2.57503e-05
2.57504e-05
0.000184237
3.5522e-05
3.55181e-05
3.55195e-05
3.55151e-05
2.57509e-05
2.57511e-05
0.000112286
5.7527e-05
0.000218507
0.000206007
0.000112261
5.75402e-05
0.000218507
4.71767e-05
4.91004e-05
4.71712e-05
4.90997e-05
0.000112285
0.000218504
5.75179e-05
0.000205987
0.000112259
0.000218504
5.75319e-05
4.71719e-05
4.91027e-05
4.91031e-05
4.7178e-05
0.000112262
0.000206008
5.754e-05
0.000218507
5.75262e-05
0.000218507
0.000112285
4.71704e-05
4.90998e-05
4.91003e-05
4.71764e-05
0.000112261
0.000205987
0.000218504
5.75316e-05
0.000218504
5.7517e-05
0.000112284
4.71708e-05
4.91054e-05
4.71642e-05
4.91048e-05
0.000112283
0.000218507
5.75308e-05
0.000205995
0.000112258
0.000218507
5.75447e-05
4.71704e-05
4.91036e-05
4.71638e-05
4.9103e-05
0.000112261
0.000206011
5.75421e-05
0.000218508
5.75274e-05
0.000218508
0.000112284
4.71637e-05
4.9105e-05
4.91054e-05
4.71706e-05
0.000112259
0.000205996
0.000218507
5.75446e-05
0.000218508
5.75305e-05
0.000112282
4.71633e-05
4.91032e-05
4.91036e-05
4.71702e-05
3.55079e-05
3.55252e-05
0.000184382
3.55104e-05
3.55272e-05
2.57504e-05
2.57502e-05
2.57476e-05
2.57478e-05
0.000184231
3.55104e-05
3.55271e-05
3.55074e-05
3.55247e-05
2.57502e-05
2.57504e-05
0.00011227
0.000218505
5.75268e-05
0.000206006
0.000112245
0.000218505
5.7541e-05
4.71618e-05
4.91034e-05
4.71549e-05
4.91028e-05
4.71609e-05
4.91032e-05
4.71535e-05
4.91026e-05
0.000112248
0.000206004
0.000218505
5.75453e-05
0.000218506
5.75314e-05
0.000112273
0.000112246
0.000206006
0.000218505
5.75409e-05
0.000218506
5.75266e-05
0.00011227
4.71552e-05
4.9103e-05
4.91033e-05
4.71634e-05
4.71531e-05
4.91028e-05
4.91032e-05
4.71608e-05
2.57502e-05
2.575e-05
2.57492e-05
2.5749e-05
0.000184233
3.5527e-05
3.55207e-05
3.55244e-05
3.55182e-05
2.57501e-05
2.57502e-05
2.57491e-05
2.57492e-05
2.57515e-05
2.57517e-05
2.57496e-05
2.57498e-05
3.55266e-05
3.5519e-05
0.000184382
3.55293e-05
3.55218e-05
2.57522e-05
2.57514e-05
2.57503e-05
2.57495e-05
0.000184231
3.5527e-05
3.55196e-05
3.55304e-05
3.55229e-05
4.71708e-05
4.91068e-05
4.71642e-05
4.91073e-05
0.000112283
5.75357e-05
0.000218508
0.000205997
0.000112259
5.75488e-05
0.000218508
0.000112285
5.75325e-05
0.000218507
0.000205995
0.00011226
5.7546e-05
0.000218507
4.71621e-05
4.91091e-05
4.91073e-05
4.71683e-05
4.71629e-05
4.91089e-05
4.9107e-05
4.71691e-05
0.00011226
0.000205998
5.75524e-05
0.000218508
5.75419e-05
0.000218508
0.000112283
0.000112261
0.000205995
5.75495e-05
0.000218508
5.75387e-05
0.000218508
0.000112284
3.55203e-05
3.5516e-05
0.000184387
3.55231e-05
3.55192e-05
2.57511e-05
2.57513e-05
2.57511e-05
2.57504e-05
0.000184237
3.55212e-05
3.552e-05
3.55242e-05
3.55195e-05
2.57519e-05
2.57511e-05
0.000112285
5.75277e-05
0.000218507
0.000206007
0.000112261
5.75408e-05
0.000218507
4.71757e-05
4.91002e-05
4.71698e-05
4.91006e-05
0.000112285
0.000218503
5.75185e-05
0.000205987
0.00011226
0.000218503
5.75325e-05
4.71701e-05
4.91051e-05
4.91032e-05
4.71756e-05
0.000112262
0.000206008
5.75444e-05
0.000218508
5.75339e-05
0.000218508
0.000112285
4.71686e-05
4.91023e-05
4.91004e-05
4.7174e-05
0.000112261
0.000205987
0.000218504
5.75361e-05
0.000218504
5.75247e-05
0.000112284
4.71698e-05
4.91054e-05
4.71632e-05
4.91058e-05
0.000112282
0.000218507
5.75322e-05
0.000205996
0.000112258
0.000218507
5.75456e-05
4.71695e-05
4.91035e-05
4.71629e-05
4.9104e-05
0.000112261
0.000206012
5.75467e-05
0.000218509
5.75354e-05