/*--------------------------------*- C++ -*----------------------------------*\
| =========                 |                                                 |
| \\      /  F ield         | OpenFOAM: The Open Source CFD Toolbox           |
|  \\    /   O peration     | Version:  2206                                  |
|   \\  /    A nd           | Website:  www.openfoam.com                      |
|    \\/     M anipulation  |                                                 |
\*---------------------------------------------------------------------------*/
FoamFile
{
    version     2.0;
    format      ascii;
    arch        "LSB;label=32;scalar=64";
    class       volScalarField;
    location    "8";
    object      p;
}
// * * * * * * * * * * * * * * * * * * * * * * * * * * * * * * * * * * * * * //

dimensions      [0 2 -2 0 0 0 0];

internalField   nonuniform List<scalar> 
171728
(
0.0043142
0.00431454
0.00431454
0.00431754
0.00426007
0.00426026
0.00426026
0.00426249
0.00421312
0.00421306
0.00421306
0.00421574
0.00416726
0.00416723
0.00416723
0.00416989
0.00412148
0.00412145
0.00412145
0.00412411
0.00407571
0.00407569
0.00407569
0.00407835
0.00402994
0.00402992
0.00402992
0.00403258
0.00398417
0.00398415
0.00398415
0.00398681
0.0039384
0.00393838
0.00393838
0.00394104
0.00389263
0.00389261
0.00389261
0.00389527
0.00384686
0.00384684
0.00384684
0.0038495
0.00380109
0.00380107
0.00380107
0.00380373
0.00375533
0.0037553
0.0037553
0.00375796
0.00370958
0.00370956
0.00370956
0.00371222
0.00366382
0.0036638
0.0036638
0.00366646
0.00361805
0.00361803
0.00361803
0.00362069
0.00357228
0.00357226
0.00357226
0.00357492
0.00352652
0.00352649
0.00352649
0.00352915
0.00348075
0.00348072
0.00348072
0.00348338
0.00343498
0.00343496
0.00343496
0.00343762
0.00338921
0.00338919
0.00338919
0.00339185
0.00334344
0.00334342
0.00334342
0.00334608
0.00329768
0.00329765
0.00329765
0.00330031
0.00325191
0.00325189
0.00325189
0.00325455
0.00320615
0.00320612
0.00320612
0.00320878
0.00316038
0.00316036
0.00316036
0.00316302
0.00311462
0.00311459
0.00311459
0.00311725
0.00306885
0.00306883
0.00306883
0.00307149
0.00302309
0.00302307
0.00302307
0.00302573
0.00297733
0.0029773
0.0029773
0.00297996
0.00293157
0.00293155
0.00293155
0.00293421
0.00288582
0.0028858
0.0028858
0.00288846
0.00284006
0.00284003
0.00284003
0.00284269
0.00279429
0.00279427
0.00279427
0.00279693
0.00274853
0.00274851
0.00274851
0.00275117
0.00270276
0.00270274
0.00270274
0.0027054
0.002657
0.00265698
0.00265698
0.00265964
0.00261123
0.00261121
0.00261121
0.00261387
0.00256547
0.00256544
0.00256544
0.0025681
0.0025197
0.00251968
0.00251968
0.00252234
0.00247394
0.00247391
0.00247391
0.00247657
0.00242817
0.00242815
0.00242815
0.00243081
0.0023824
0.00238238
0.00238238
0.00238504
0.00233664
0.00233661
0.00233661
0.00233927
0.00229087
0.00229084
0.00229084
0.0022935
0.0022451
0.00224508
0.00224508
0.00224774
0.00219933
0.00219931
0.00219931
0.00220197
0.00215357
0.00215354
0.00215354
0.0021562
0.00210781
0.00210779
0.00210779
0.00211045
0.00206206
0.00206203
0.00206203
0.00206469
0.00201629
0.00201627
0.00201627
0.00201893
0.00197052
0.0019705
0.0019705
0.00197316
0.00192475
0.00192473
0.00192473
0.00192739
0.00187899
0.00187897
0.00187897
0.00188163
0.00183323
0.0018332
0.0018332
0.00183586
0.00178746
0.00178744
0.00178744
0.0017901
0.0017417
0.00174168
0.00174168
0.00174434
0.00169594
0.00169591
0.00169591
0.00169857
0.00165017
0.00165015
0.00165015
0.00165281
0.00160441
0.00160439
0.00160439
0.00160705
0.00155865
0.00155863
0.00155863
0.00156129
0.00151289
0.00151286
0.00151286
0.00151552
0.00146712
0.0014671
0.0014671
0.00146976
0.00142136
0.00142134
0.00142134
0.001424
0.0013756
0.00137557
0.00137557
0.00137823
0.00132984
0.00132982
0.00132982
0.00133248
0.00128409
0.00128406
0.00128407
0.00128672
0.00123832
0.0012383
0.0012383
0.00124096
0.00119255
0.00119253
0.00119253
0.00119519
0.00114678
0.00114676
0.00114676
0.00114942
0.00110101
0.00110099
0.00110099
0.00110365
0.00105524
0.00105522
0.00105522
0.00105788
0.00100947
0.00100944
0.00100944
0.0010121
0.000963694
0.000963671
0.000963671
0.000966331
0.00091792
0.000917897
0.000917897
0.000920557
0.000872146
0.000872123
0.000872123
0.000874783
0.000826373
0.00082635
0.000826351
0.00082901
0.000780603
0.00078058
0.00078058
0.00078324
0.000734834
0.000734811
0.000734811
0.000737471
0.000689064
0.000689041
0.000689041
0.000691701
0.000643296
0.000643273
0.000643273
0.000645933
0.00059753
0.000597506
0.000597506
0.000600166
0.000551767
0.000551743
0.000551743
0.000554402
0.000506017
0.000505996
0.000505994
0.000508655
0.000460257
0.000460233
0.000460236
0.000462893
0.000414493
0.00041447
0.00041447
0.000417129
0.000368729
0.000368706
0.000368706
0.000371366
0.000322966
0.000322943
0.000322943
0.000325603
0.000277202
0.00027718
0.000277179
0.000279839
0.000231437
0.000231414
0.000231414
0.000234074
0.000185671
0.000185648
0.000185648
0.000188308
0.000139904
0.000139884
0.000139883
0.000142542
9.41422e-05
9.41196e-05
9.41186e-05
9.67446e-05
4.90247e-05
4.83892e-05
4.83863e-05
5.08864e-05
1.14769e-05
1.18251e-05
1.18229e-05
1.14679e-05
0.00432746
0.00432769
0.00432769
0.00432746
0.00432769
0.00432769
0.00432841
0.00432841
0.00432841
0.00432841
0.00432769
0.00432769
0.00432746
0.00432769
0.00432769
0.00432746
0.00431754
0.00426928
0.00431454
0.00431454
0.00427149
0.00427149
0.00431753
0.00426928
0.00431454
0.00431454
0.00427149
0.00427149
0.00431454
0.00427149
0.00427149
0.00431753
0.00426928
0.00431454
0.00427149
0.00427148
0.00426928
0.00426248
0.00422186
0.00426026
0.00426026
0.00422462
0.00422462
0.00426249
0.00422186
0.00426026
0.00426026
0.00422462
0.00422462
0.00426026
0.00422462
0.00422462
0.00426249
0.00422186
0.00426026
0.00422462
0.00422462
0.00422186
0.00421574
0.00417601
0.00421306
0.00421306
0.00417867
0.00417867
0.00421574
0.00417601
0.00421306
0.00421306
0.00417867
0.00417867
0.00421306
0.00417867
0.00417867
0.00421574
0.00417601
0.00421306
0.00417867
0.00417867
0.00417601
0.00416989
0.00413024
0.00416723
0.00416723
0.0041329
0.0041329
0.00416989
0.00413024
0.00416723
0.00416723
0.0041329
0.0041329
0.00416723
0.0041329
0.0041329
0.00416989
0.00413024
0.00416723
0.0041329
0.0041329
0.00413024
0.00412411
0.00408447
0.00412145
0.00412146
0.00408713
0.00408713
0.00412411
0.00408447
0.00412145
0.00412145
0.00408713
0.00408713
0.00412145
0.00408713
0.00408713
0.00412411
0.00408447
0.00412145
0.00408713
0.00408713
0.00408447
0.00407835
0.00403871
0.00407569
0.00407569
0.00404136
0.00404136
0.00407835
0.00403871
0.00407569
0.00407569
0.00404136
0.00404136
0.00407569
0.00404136
0.00404136
0.00407835
0.00403871
0.00407569
0.00404136
0.00404136
0.00403871
0.00403258
0.00399294
0.00402992
0.00402992
0.00399559
0.00399559
0.00403258
0.00399294
0.00402992
0.00402992
0.00399559
0.00399559
0.00402992
0.00399559
0.00399559
0.00403258
0.00399294
0.00402992
0.00399559
0.00399559
0.00399294
0.00398681
0.00394716
0.00398415
0.00398415
0.00394982
0.00394982
0.00398681
0.00394716
0.00398415
0.00398415
0.00394982
0.00394982
0.00398415
0.00394982
0.00394982
0.00398681
0.00394716
0.00398415
0.00394982
0.00394982
0.00394716
0.00394104
0.00390139
0.00393838
0.00393838
0.00390405
0.00390405
0.00394104
0.00390139
0.00393838
0.00393838
0.00390405
0.00390405
0.00393838
0.00390405
0.00390405
0.00394104
0.00390139
0.00393838
0.00390405
0.00390405
0.00390139
0.00389527
0.00385562
0.00389261
0.00389261
0.00385828
0.00385828
0.00389527
0.00385562
0.00389261
0.00389261
0.00385828
0.00385828
0.00389261
0.00385828
0.00385828
0.00389527
0.00385562
0.00389261
0.00385828
0.00385828
0.00385562
0.0038495
0.00380986
0.00384684
0.00384684
0.00381251
0.00381251
0.0038495
0.00380986
0.00384684
0.00384684
0.00381251
0.00381251
0.00384684
0.00381251
0.00381251
0.0038495
0.00380986
0.00384684
0.00381251
0.00381251
0.00380986
0.00380373
0.00376409
0.00380107
0.00380107
0.00376674
0.00376674
0.00380373
0.00376409
0.00380107
0.00380107
0.00376674
0.00376674
0.00380107
0.00376674
0.00376674
0.00380373
0.00376409
0.00380107
0.00376674
0.00376674
0.00376409
0.00375796
0.00371834
0.0037553
0.0037553
0.00372099
0.00372099
0.00375796
0.00371834
0.0037553
0.0037553
0.00372099
0.00372099
0.0037553
0.00372099
0.00372099
0.00375796
0.00371834
0.0037553
0.00372099
0.00372099
0.00371834
0.00371222
0.00367258
0.00370956
0.00370956
0.00367524
0.00367524
0.00371222
0.00367258
0.00370956
0.00370956
0.00367524
0.00367524
0.00370956
0.00367524
0.00367524
0.00371222
0.00367258
0.00370956
0.00367524
0.00367524
0.00367258
0.00366645
0.00362682
0.0036638
0.0036638
0.00362947
0.00362947
0.00366646
0.00362682
0.0036638
0.0036638
0.00362947
0.00362947
0.0036638
0.00362947
0.00362947
0.00366646
0.00362682
0.0036638
0.00362947
0.00362947
0.00362682
0.00362069
0.00358105
0.00361803
0.00361803
0.0035837
0.0035837
0.00362069
0.00358105
0.00361803
0.00361803
0.0035837
0.0035837
0.00361803
0.0035837
0.0035837
0.00362069
0.00358105
0.00361803
0.0035837
0.0035837
0.00358105
0.00357492
0.00353528
0.00357226
0.00357226
0.00353793
0.00353793
0.00357492
0.00353528
0.00357226
0.00357226
0.00353793
0.00353793
0.00357226
0.00353793
0.00353793
0.00357492
0.00353528
0.00357226
0.00353793
0.00353793
0.00353528
0.00352915
0.00348951
0.00352649
0.00352649
0.00349217
0.00349217
0.00352915
0.00348951
0.00352649
0.00352649
0.00349217
0.00349217
0.00352649
0.00349217
0.00349217
0.00352915
0.00348951
0.00352649
0.00349217
0.00349217
0.00348951
0.00348338
0.00344374
0.00348072
0.00348072
0.0034464
0.0034464
0.00348338
0.00344374
0.00348072
0.00348072
0.0034464
0.0034464
0.00348072
0.0034464
0.0034464
0.00348338
0.00344374
0.00348072
0.0034464
0.0034464
0.00344374
0.00343762
0.00339798
0.00343496
0.00343495
0.00340063
0.00340063
0.00343761
0.00339798
0.00343496
0.00343496
0.00340063
0.00340063
0.00343496
0.00340063
0.00340063
0.00343762
0.00339798
0.00343496
0.00340063
0.00340063
0.00339798
0.00339185
0.00335221
0.00338919
0.00338919
0.00335486
0.00335486
0.00339185
0.00335221
0.00338919
0.00338919
0.00335486
0.00335486
0.00338919
0.00335486
0.00335486
0.00339185
0.00335221
0.00338919
0.00335486
0.00335486
0.00335221
0.00334608
0.00330644
0.00334342
0.00334342
0.0033091
0.0033091
0.00334608
0.00330644
0.00334342
0.00334342
0.0033091
0.0033091
0.00334342
0.0033091
0.0033091
0.00334608
0.00330644
0.00334342
0.0033091
0.0033091
0.00330644
0.00330031
0.00326068
0.00329765
0.00329765
0.00326333
0.00326333
0.00330031
0.00326068
0.00329765
0.00329765
0.00326333
0.00326333
0.00329765
0.00326333
0.00326333
0.00330031
0.00326067
0.00329765
0.00326333
0.00326333
0.00326067
0.00325455
0.00321491
0.00325189
0.00325189
0.00321756
0.00321756
0.00325455
0.00321491
0.00325189
0.00325189
0.00321756
0.00321756
0.00325189
0.00321756
0.00321756
0.00325455
0.00321491
0.00325189
0.00321756
0.00321756
0.00321491
0.00320878
0.00316915
0.00320612
0.00320612
0.0031718
0.0031718
0.00320878
0.00316915
0.00320612
0.00320612
0.0031718
0.0031718
0.00320612
0.0031718
0.0031718
0.00320878
0.00316914
0.00320612
0.0031718
0.0031718
0.00316914
0.00316302
0.00312338
0.00316036
0.00316036
0.00312604
0.00312604
0.00316302
0.00312338
0.00316036
0.00316036
0.00312604
0.00312604
0.00316036
0.00312604
0.00312604
0.00316302
0.00312338
0.00316036
0.00312604
0.00312604
0.00312338
0.00311725
0.00307762
0.00311459
0.00311459
0.00308027
0.00308027
0.00311725
0.00307762
0.00311459
0.00311459
0.00308027
0.00308027
0.00311459
0.00308027
0.00308027
0.00311725
0.00307762
0.00311459
0.00308027
0.00308027
0.00307762
0.00307149
0.00303185
0.00306883
0.00306883
0.00303451
0.00303451
0.00307149
0.00303185
0.00306883
0.00306883
0.00303451
0.00303451
0.00306883
0.00303451
0.00303451
0.00307149
0.00303185
0.00306883
0.00303451
0.00303451
0.00303185
0.00302573
0.00298609
0.00302307
0.00302307
0.00298874
0.00298874
0.00302573
0.00298609
0.00302307
0.00302307
0.00298874
0.00298874
0.00302307
0.00298874
0.00298874
0.00302573
0.00298609
0.00302307
0.00298874
0.00298874
0.00298609
0.00297996
0.00294033
0.0029773
0.0029773
0.00294298
0.00294298
0.00297996
0.00294033
0.0029773
0.0029773
0.00294298
0.00294298
0.0029773
0.00294298
0.00294298
0.00297996
0.00294033
0.0029773
0.00294298
0.00294298
0.00294033
0.00293421
0.00289459
0.00293155
0.00293155
0.00289724
0.00289724
0.00293421
0.00289459
0.00293155
0.00293155
0.00289724
0.00289724
0.00293155
0.00289724
0.00289724
0.00293421
0.00289459
0.00293155
0.00289724
0.00289724
0.00289459
0.00288846
0.00284882
0.0028858
0.0028858
0.00285148
0.00285148
0.00288846
0.00284882
0.0028858
0.0028858
0.00285147
0.00285147
0.0028858
0.00285148
0.00285148
0.00288846
0.00284882
0.0028858
0.00285147
0.00285148
0.00284882
0.00284269
0.00280306
0.00284003
0.00284003
0.00280571
0.00280571
0.00284269
0.00280306
0.00284003
0.00284003
0.00280571
0.00280571
0.00284003
0.00280571
0.00280571
0.00284269
0.00280306
0.00284003
0.00280571
0.00280571
0.00280306
0.00279693
0.00275729
0.00279427
0.00279427
0.00275995
0.00275995
0.00279693
0.00275729
0.00279427
0.00279427
0.00275995
0.00275995
0.00279427
0.00275995
0.00275995
0.00279693
0.00275729
0.00279427
0.00275995
0.00275995
0.00275729
0.00275117
0.00271153
0.00274851
0.00274851
0.00271418
0.00271418
0.00275117
0.00271153
0.00274851
0.00274851
0.00271418
0.00271418
0.00274851
0.00271418
0.00271418
0.00275117
0.00271153
0.00274851
0.00271418
0.00271418
0.00271153
0.0027054
0.00266576
0.00270274
0.00270274
0.00266842
0.00266842
0.0027054
0.00266576
0.00270274
0.00270274
0.00266842
0.00266842
0.00270274
0.00266842
0.00266842
0.0027054
0.00266576
0.00270274
0.00266842
0.00266842
0.00266576
0.00265964
0.00262
0.00265698
0.00265698
0.00262265
0.00262265
0.00265964
0.00262
0.00265698
0.00265698
0.00262265
0.00262265
0.00265698
0.00262265
0.00262265
0.00265964
0.00262
0.00265698
0.00262265
0.00262265
0.00262
0.00261387
0.00257423
0.00261121
0.00261121
0.00257689
0.00257689
0.00261387
0.00257423
0.00261121
0.00261121
0.00257689
0.00257689
0.00261121
0.00257689
0.00257689
0.00261387
0.00257423
0.00261121
0.00257689
0.00257689
0.00257423
0.0025681
0.00252847
0.00256544
0.00256544
0.00253112
0.00253112
0.0025681
0.00252847
0.00256544
0.00256544
0.00253112
0.00253112
0.00256544
0.00253112
0.00253112
0.0025681
0.00252847
0.00256544
0.00253112
0.00253112
0.00252847
0.00252234
0.0024827
0.00251968
0.00251968
0.00248536
0.00248536
0.00252234
0.0024827
0.00251968
0.00251968
0.00248536
0.00248536
0.00251968
0.00248536
0.00248536
0.00252234
0.0024827
0.00251968
0.00248536
0.00248536
0.0024827
0.00247657
0.00243694
0.00247391
0.00247391
0.00243959
0.00243959
0.00247657
0.00243694
0.00247391
0.00247391
0.00243959
0.00243959
0.00247391
0.00243959
0.00243959
0.00247657
0.00243693
0.00247391
0.00243959
0.00243959
0.00243694
0.00243081
0.00239117
0.00242815
0.00242815
0.00239382
0.00239382
0.00243081
0.00239117
0.00242815
0.00242815
0.00239382
0.00239382
0.00242815
0.00239382
0.00239382
0.00243081
0.00239117
0.00242815
0.00239382
0.00239382
0.00239117
0.00238504
0.0023454
0.00238238
0.00238238
0.00234805
0.00234805
0.00238504
0.0023454
0.00238238
0.00238238
0.00234805
0.00234805
0.00238238
0.00234805
0.00234805
0.00238504
0.0023454
0.00238238
0.00234805
0.00234805
0.0023454
0.00233927
0.00229963
0.00233661
0.00233661
0.00230229
0.00230229
0.00233927
0.00229963
0.00233661
0.00233661
0.00230229
0.00230229
0.00233661
0.00230229
0.00230229
0.00233927
0.00229963
0.00233661
0.00230229
0.00230229
0.00229963
0.0022935
0.00225386
0.00229084
0.00229084
0.00225652
0.00225652
0.0022935
0.00225386
0.00229084
0.00229084
0.00225652
0.00225652
0.00229084
0.00225652
0.00225652
0.0022935
0.00225386
0.00229084
0.00225652
0.00225652
0.00225386
0.00224774
0.0022081
0.00224508
0.00224508
0.00221075
0.00221075
0.00224774
0.0022081
0.00224508
0.00224508
0.00221075
0.00221075
0.00224508
0.00221075
0.00221075
0.00224774
0.0022081
0.00224508
0.00221075
0.00221075
0.0022081
0.00220197
0.00216233
0.00219931
0.00219931
0.00216498
0.00216498
0.00220197
0.00216233
0.00219931
0.00219931
0.00216498
0.00216498
0.00219931
0.00216498
0.00216498
0.00220197
0.00216233
0.00219931
0.00216498
0.00216498
0.00216233
0.0021562
0.00211658
0.00215354
0.00215354
0.00211923
0.00211923
0.0021562
0.00211658
0.00215354
0.00215354
0.00211923
0.00211923
0.00215354
0.00211923
0.00211923
0.0021562
0.00211658
0.00215354
0.00211923
0.00211923
0.00211658
0.00211045
0.00207082
0.00210779
0.00210779
0.00207348
0.00207348
0.00211045
0.00207082
0.00210779
0.00210779
0.00207348
0.00207348
0.00210779
0.00207348
0.00207348
0.00211045
0.00207082
0.00210779
0.00207348
0.00207348
0.00207082
0.00206469
0.00202505
0.00206203
0.00206203
0.00202771
0.00202771
0.00206469
0.00202505
0.00206203
0.00206203
0.00202771
0.00202771
0.00206203
0.00202771
0.00202771
0.00206469
0.00202505
0.00206203
0.00202771
0.00202771
0.00202505
0.00201892
0.00197928
0.00201627
0.00201627
0.00198194
0.00198194
0.00201892
0.00197928
0.00201627
0.00201627
0.00198194
0.00198194
0.00201627
0.00198194
0.00198194
0.00201893
0.00197928
0.00201627
0.00198194
0.00198194
0.00197928
0.00197316
0.00193352
0.0019705
0.0019705
0.00193617
0.00193617
0.00197316
0.00193352
0.0019705
0.0019705
0.00193617
0.00193617
0.0019705
0.00193617
0.00193617
0.00197316
0.00193352
0.0019705
0.00193617
0.00193617
0.00193352
0.00192739
0.00188775
0.00192473
0.00192473
0.00189041
0.00189041
0.00192739
0.00188775
0.00192473
0.00192473
0.00189041
0.00189041
0.00192473
0.00189041
0.00189041
0.00192739
0.00188775
0.00192473
0.00189041
0.00189041
0.00188775
0.00188163
0.00184199
0.00187897
0.00187897
0.00184464
0.00184464
0.00188163
0.00184199
0.00187897
0.00187897
0.00184464
0.00184464
0.00187897
0.00184464
0.00184464
0.00188163
0.00184199
0.00187897
0.00184464
0.00184464
0.00184199
0.00183586
0.00179623
0.0018332
0.0018332
0.00179888
0.00179888
0.00183586
0.00179623
0.0018332
0.0018332
0.00179888
0.00179888
0.0018332
0.00179888
0.00179888
0.00183586
0.00179623
0.0018332
0.00179888
0.00179888
0.00179623
0.0017901
0.00175046
0.00178744
0.00178744
0.00175312
0.00175312
0.0017901
0.00175046
0.00178744
0.00178744
0.00175312
0.00175312
0.00178744
0.00175312
0.00175312
0.0017901
0.00175046
0.00178744
0.00175312
0.00175312
0.00175046
0.00174434
0.0017047
0.00174168
0.00174168
0.00170735
0.00170735
0.00174434
0.0017047
0.00174168
0.00174168
0.00170735
0.00170735
0.00174168
0.00170735
0.00170735
0.00174434
0.0017047
0.00174168
0.00170735
0.00170735
0.0017047
0.00169857
0.00165894
0.00169591
0.00169591
0.00166159
0.00166159
0.00169857
0.00165894
0.00169591
0.00169591
0.00166159
0.00166159
0.00169591
0.00166159
0.00166159
0.00169857
0.00165894
0.00169591
0.00166159
0.00166159
0.00165894
0.00165281
0.00161318
0.00165015
0.00165015
0.00161583
0.00161583
0.00165281
0.00161318
0.00165015
0.00165015
0.00161583
0.00161583
0.00165015
0.00161583
0.00161583
0.00165281
0.00161318
0.00165015
0.00161583
0.00161583
0.00161318
0.00160705
0.00156741
0.00160439
0.00160439
0.00157007
0.00157007
0.00160705
0.00156741
0.00160439
0.00160439
0.00157007
0.00157007
0.00160439
0.00157007
0.00157007
0.00160705
0.00156741
0.00160439
0.00157007
0.00157007
0.00156741
0.00156129
0.00152165
0.00155863
0.00155863
0.0015243
0.0015243
0.00156129
0.00152165
0.00155863
0.00155863
0.0015243
0.0015243
0.00155863
0.0015243
0.0015243
0.00156129
0.00152165
0.00155863
0.0015243
0.0015243
0.00152165
0.00151552
0.00147589
0.00151286
0.00151286
0.00147854
0.00147854
0.00151552
0.00147589
0.00151286
0.00151286
0.00147854
0.00147854
0.00151286
0.00147854
0.00147854
0.00151552
0.00147589
0.00151286
0.00147854
0.00147854
0.00147589
0.00146976
0.00143013
0.0014671
0.0014671
0.00143278
0.00143278
0.00146976
0.00143013
0.0014671
0.0014671
0.00143278
0.00143278
0.0014671
0.00143278
0.00143278
0.00146976
0.00143013
0.0014671
0.00143278
0.00143278
0.00143013
0.001424
0.00138436
0.00142134
0.00142134
0.00138702
0.00138702
0.001424
0.00138436
0.00142134
0.00142134
0.00138702
0.00138702
0.00142134
0.00138702
0.00138702
0.001424
0.00138436
0.00142134
0.00138702
0.00138702
0.00138436
0.00137823
0.0013386
0.00137557
0.00137557
0.00134125
0.00134125
0.00137823
0.0013386
0.00137557
0.00137557
0.00134125
0.00134125
0.00137557
0.00134125
0.00134125
0.00137823
0.0013386
0.00137557
0.00134125
0.00134125
0.0013386
0.00133247
0.00129285
0.00132981
0.00132981
0.0012955
0.0012955
0.00133247
0.00129285
0.00132981
0.00132982
0.0012955
0.00129551
0.00132982
0.0012955
0.00129551
0.00133248
0.00129285
0.00132982
0.00129551
0.00129551
0.00129285
0.00128673
0.00124708
0.00128407
0.00128407
0.00124974
0.00124974
0.00128673
0.00124708
0.00128407
0.00128407
0.00124974
0.00124974
0.00128407
0.00124974
0.00124974
0.00128672
0.00124708
0.00128407
0.00124974
0.00124974
0.00124708
0.00124096
0.00120131
0.0012383
0.0012383
0.00120397
0.00120397
0.00124096
0.00120131
0.0012383
0.0012383
0.00120397
0.00120397
0.0012383
0.00120397
0.00120397
0.00124096
0.00120131
0.0012383
0.00120397
0.00120397
0.00120131
0.00119519
0.00115555
0.00119253
0.00119253
0.0011582
0.0011582
0.00119519
0.00115555
0.00119253
0.00119253
0.0011582
0.0011582
0.00119253
0.0011582
0.0011582
0.00119519
0.00115554
0.00119253
0.0011582
0.0011582
0.00115554
0.00114942
0.00110978
0.00114676
0.00114676
0.00111243
0.00111243
0.00114942
0.00110978
0.00114676
0.00114676
0.00111243
0.00111243
0.00114676
0.00111243
0.00111243
0.00114942
0.00110978
0.00114676
0.00111243
0.00111243
0.00110978
0.00110365
0.00106401
0.00110099
0.00110099
0.00106666
0.00106666
0.00110365
0.00106401
0.00110099
0.00110099
0.00106666
0.00106666
0.00110099
0.00106666
0.00106666
0.00110365
0.00106401
0.00110099
0.00106666
0.00106666
0.00106401
0.00105788
0.00101823
0.00105522
0.00105522
0.00102089
0.00102089
0.00105788
0.00101823
0.00105522
0.00105522
0.00102089
0.00102089
0.00105522
0.00102089
0.00102089
0.00105788
0.00101823
0.00105522
0.00102089
0.00102089
0.00101823
0.0010121
0.000972459
0.00100944
0.00100944
0.000975114
0.000975114
0.0010121
0.00097246
0.00100944
0.00100944
0.000975114
0.000975114
0.00100944
0.000975114
0.000975114
0.0010121
0.000972459
0.00100944
0.000975114
0.000975114
0.000972459
0.000966331
0.000926686
0.000963671
0.000963671
0.000929341
0.00092934
0.000966331
0.000926686
0.000963671
0.000963671
0.00092934
0.000929341
0.000963671
0.000929341
0.000929341
0.000966331
0.000926686
0.000963671
0.000929341
0.000929341
0.000926686
0.000920557
0.000880912
0.000917897
0.000917897
0.000883566
0.000883566
0.000920557
0.000880912
0.000917897
0.000917897
0.000883566
0.000883566
0.000917897
0.000883566
0.000883566
0.000920557
0.000880912
0.000917897
0.000883566
0.000883566
0.000880912
0.000874783
0.000835139
0.000872123
0.000872123
0.000837793
0.000837793
0.000874783
0.000835139
0.000872123
0.000872123
0.000837793
0.000837793
0.000872123
0.000837793
0.000837793
0.000874783
0.000835139
0.000872123
0.000837793
0.000837793
0.000835139
0.00082901
0.000789368
0.00082635
0.00082635
0.000792023
0.000792023
0.00082901
0.000789368
0.00082635
0.00082635
0.000792023
0.000792023
0.000826351
0.000792023
0.000792023
0.00082901
0.000789368
0.00082635
0.000792023
0.000792023
0.000789368
0.00078324
0.000743599
0.00078058
0.00078058
0.000746253
0.000746253
0.00078324
0.000743599
0.00078058
0.00078058
0.000746253
0.000746253
0.00078058
0.000746253
0.000746253
0.00078324
0.000743599
0.00078058
0.000746253
0.000746253
0.000743599
0.000737471
0.000697829
0.000734811
0.000734811
0.000700484
0.000700484
0.000737471
0.000697829
0.000734811
0.000734811
0.000700484
0.000700484
0.000734811
0.000700484
0.000700484
0.000737471
0.000697829
0.000734811
0.000700484
0.000700484
0.000697829
0.000691701
0.000652061
0.000689041
0.000689041
0.000654715
0.000654715
0.000691701
0.000652061
0.000689041
0.000689041
0.000654715
0.000654715
0.000689042
0.000654715
0.000654715
0.000691701
0.000652061
0.000689041
0.000654715
0.000654715
0.000652061
0.000645933
0.000606294
0.000643273
0.000643273
0.000608948
0.000608947
0.000645933
0.000606293
0.000643273
0.000643273
0.000608948
0.000608948
0.000643273
0.000608947
0.000608948
0.000645933
0.000606294
0.000643273
0.000608948
0.000608948
0.000606294
0.000600166
0.000560529
0.000597506
0.000597506
0.000563183
0.000563183
0.000600165
0.000560529
0.000597507
0.000597507
0.000563183
0.000563183
0.000597506
0.000563183
0.000563183
0.000600166
0.000560529
0.000597506
0.000563183
0.000563183
0.000560529
0.000554402
0.000514779
0.000551743
0.000551743
0.000517432
0.000517433
0.000554402
0.000514782
0.000551743
0.000551743
0.000517431
0.00051743
0.000551744
0.000517433
0.000517433
0.000554402
0.000514778
0.000551743
0.00051743
0.000517432
0.00051478
0.000508654
0.000469021
0.000505994
0.000505996
0.000471676
0.000471674
0.000508656
0.00046902
0.000505994
0.000505994
0.000471677
0.000471678
0.000505995
0.000471675
0.000471676
0.000508653
0.000469022
0.000505995
0.000471678
0.000471676
0.00046902
0.000462893
0.000423256
0.000460234
0.000460233
0.00042591
0.00042591
0.000462892
0.000423256
0.000460235
0.000460236
0.00042591
0.00042591
0.000460234
0.00042591
0.00042591
0.000462894
0.000423256
0.000460234
0.000425911
0.00042591
0.000423256
0.000417129
0.000377493
0.00041447
0.00041447
0.000380147
0.000380147
0.000417129
0.000377493
0.000414469
0.00041447
0.000380147
0.000380147
0.00041447
0.000380147
0.000380147
0.000417129
0.000377493
0.000414469
0.000380147
0.000380147
0.000377493
0.000371366
0.000331729
0.000368706
0.000368706
0.000334384
0.000334384
0.000371366
0.00033173
0.000368706
0.000368706
0.000334383
0.000334384
0.000368706
0.000334384
0.000334384
0.000371366
0.000331729
0.000368706
0.000334384
0.000334384
0.000331729
0.000325602
0.000285966
0.000322943
0.000322943
0.00028862
0.00028862
0.000325602
0.000285966
0.000322943
0.000322943
0.00028862
0.00028862
0.000322943
0.00028862
0.000288621
0.000325603
0.000285966
0.000322943
0.00028862
0.00028862
0.000285966
0.000279839
0.000240201
0.000277179
0.000277179
0.000242856
0.000242856
0.000279839
0.000240202
0.000277179
0.000277179
0.000242856
0.000242856
0.00027718
0.000242856
0.000242856
0.000279839
0.000240201
0.000277179
0.000242856
0.000242856
0.000240201
0.000234074
0.000194435
0.000231414
0.000231414
0.000197089
0.000197089
0.000234074
0.000194435
0.000231414
0.000231414
0.000197089
0.000197089
0.000231414
0.000197089
0.000197089
0.000234074
0.000194434
0.000231414
0.000197089
0.000197089
0.000194435
0.000188308
0.00014867
0.000185648
0.000185648
0.000151324
0.000151324
0.000188307
0.00014867
0.000185648
0.000185648
0.000151324
0.000151324
0.000185648
0.000151324
0.000151324
0.000188307
0.000148669
0.000185648
0.000151324
0.000151324
0.00014867
0.000142542
0.000102901
0.000139884
0.000139884
0.00010557
0.00010557
0.000142542
0.000102902
0.000139884
0.000139883
0.00010557
0.000105569
0.000139884
0.00010557
0.00010557
0.000142542
0.000102901
0.000139884
0.000105569
0.000105569
0.000102901
9.67448e-05
5.71553e-05
9.41196e-05
9.41192e-05
5.97278e-05
5.97272e-05
9.6745e-05
5.71545e-05
9.41188e-05
9.41186e-05
5.97261e-05
5.97242e-05
9.41193e-05
5.9725e-05
5.97264e-05
9.67449e-05
5.71507e-05
9.41193e-05
5.97227e-05
5.97247e-05
5.71528e-05
5.08889e-05
1.53615e-05
4.83926e-05
4.83914e-05
1.76004e-05
1.75998e-05
5.08878e-05
1.53619e-05
4.83903e-05
4.8389e-05
1.7598e-05
1.75942e-05
4.83902e-05
1.75973e-05
1.75934e-05
5.08846e-05
1.53569e-05
4.83891e-05
1.7595e-05
1.75953e-05
1.53568e-05
1.14712e-05
1.1826e-05
1.18266e-05
1.14728e-05
1.18244e-05
1.18221e-05
1.14771e-05
1.14751e-05
1.14749e-05
1.18216e-05
1.14685e-05
1.18224e-05
0.00433584
0.00434558
0.0043404
0.0043404
0.00436273
0.00434955
0.00437813
0.00434361
0.00436273
0.00434955
0.00434361
0.00437813
0.00435411
0.00438186
0.00438186
0.00429118
0.00430991
0.00431947
0.00428322
0.00428366
0.00428747
0.00429116
0.00430989
0.00431946
0.00428321
0.0043142
0.0043142
0.0043142
0.0042713
0.0042713
0.00427129
0.00427129
0.00428875
0.00431432
0.00431459
0.00429733
0.00431751
0.0042876
0.0042983
0.00428376
0.00428746
0.00428875
0.00431459
0.00431433
0.00429733
0.0043175
0.0042983
0.0042876
0.00432016
0.00432014
0.00429188
0.00428689
0.00428688
0.00424501
0.00426026
0.00426297
0.00424436
0.00425982
0.00424408
0.00424501
0.00426024
0.00426296
0.00424435
0.00426007
0.00426006
0.00426007
0.00422469
0.00422469
0.00422469
0.00422469
0.0042448
0.00426182
0.00426001
0.00424821
0.00426197
0.00424525
0.00424818
0.00425981
0.00424407
0.0042448
0.00426
0.00426181
0.00424821
0.00426196
0.00424817
0.00424525
0.00426138
0.00426136
0.00424497
0.00424482
0.00424481
0.0041987
0.00421571
0.00421581
0.00419867
0.00421573
0.00419868
0.0041987
0.00421571
0.00421581
0.00419867
0.00421312
0.00421312
0.00421312
0.00417871
0.00417871
0.00417871
0.00417871
0.00419878
0.00421584
0.00421307
0.00420158
0.0042158
0.00419874
0.0042016
0.00421573
0.00419868
0.00419878
0.00421307
0.00421584
0.00420158
0.0042158
0.0042016
0.00419874
0.00421582
0.00421582
0.00419892
0.0041987
0.00419869
0.00415295
0.00417007
0.00417007
0.00415294
0.00417008
0.00415294
0.00415295
0.00417007
0.00417007
0.00415294
0.00416726
0.00416726
0.00416726
0.00413292
0.00413292
0.00413292
0.00413292
0.00415301
0.00417004
0.00416723
0.00415578
0.00417002
0.00415298
0.00415579
0.00417008
0.00415294
0.00415301
0.00416723
0.00417004
0.00415578
0.00417002
0.00415579
0.00415298
0.00417008
0.00417008
0.00415313
0.00415294
0.00415294
0.00410718
0.00412431
0.00412431
0.00410718
0.00412432
0.00410718
0.00410718
0.00412431
0.00412431
0.00410718
0.00412148
0.00412148
0.00412148
0.00408715
0.00408715
0.00408715
0.00408715
0.00410724
0.00412428
0.00412146
0.00411001
0.00412425
0.00410721
0.00411002
0.00412431
0.00410717
0.00410724
0.00412146
0.00412428
0.00411001
0.00412425
0.00411002
0.00410721
0.00412432
0.00412432
0.00410736
0.00410717
0.00410717
0.00406141
0.00407855
0.00407854
0.00406141
0.00407856
0.0040614
0.00406141
0.00407854
0.00407854
0.00406141
0.00407571
0.00407571
0.00407571
0.00404138
0.00404138
0.00404138
0.00404138
0.00406148
0.00407851
0.00407569
0.00406424
0.00407848
0.00406144
0.00406425
0.00407855
0.00406141
0.00406148
0.00407569
0.00407851
0.00406424
0.00407848
0.00406425
0.00406144
0.00407855
0.00407855