/*--------------------------------*- C++ -*----------------------------------*\
| =========                 |                                                 |
| \\      /  F ield         | OpenFOAM: The Open Source CFD Toolbox           |
|  \\    /   O peration     | Version:  2206                                  |
|   \\  /    A nd           | Website:  www.openfoam.com                      |
|    \\/     M anipulation  |                                                 |
\*---------------------------------------------------------------------------*/
FoamFile
{
    version     2.0;
    format      ascii;
    arch        "LSB;label=32;scalar=64";
    class       volScalarField;
    location    "1";
    object      epsilon;
}
// * * * * * * * * * * * * * * * * * * * * * * * * * * * * * * * * * * * * * //

dimensions      [0 2 -3 0 0 0 0];

internalField   nonuniform List<scalar> 
28687
(
5.24645e-07
5.24549e-07
5.24661e-07
5.24745e-07
5.24426e-07
5.24442e-07
5.24443e-07
5.24445e-07
5.24426e-07
5.24443e-07
5.24443e-07
5.24445e-07
5.24426e-07
5.24443e-07
5.24443e-07
5.24445e-07
5.24426e-07
5.24443e-07
5.24443e-07
5.24445e-07
5.24426e-07
5.24443e-07
5.24443e-07
5.24445e-07
5.24426e-07
5.24443e-07
5.24443e-07
5.24445e-07
5.24426e-07
5.24443e-07
5.24443e-07
5.24445e-07
5.24426e-07
5.24443e-07
5.24443e-07
5.24445e-07
5.24426e-07
5.24443e-07
5.24443e-07
5.24445e-07
5.24426e-07
5.24443e-07
5.24443e-07
5.24445e-07
5.24426e-07
5.24443e-07
5.24443e-07
5.24445e-07
5.24426e-07
5.24443e-07
5.24443e-07
5.24445e-07
5.24426e-07
5.24443e-07
5.24443e-07
5.24445e-07
5.24426e-07
5.24443e-07
5.24443e-07
5.24445e-07
5.24426e-07
5.24443e-07
5.24443e-07
5.24445e-07
5.24426e-07
5.24443e-07
5.24443e-07
5.24445e-07
5.24426e-07
5.24443e-07
5.24443e-07
5.24445e-07
5.24664e-07
5.24687e-07
5.24668e-07
5.24746e-07
5.24446e-07
5.24659e-07
5.24547e-07
5.24444e-07
5.24442e-07
5.24557e-07
5.24446e-07
5.24659e-07
5.24659e-07
5.24444e-07
5.24444e-07
5.24659e-07
5.24442e-07
5.24444e-07
5.24747e-07
5.24446e-07
5.24659e-07
5.24443e-07
5.24444e-07
5.24444e-07
5.24458e-07
5.24446e-07
5.24446e-07
5.24446e-07
5.24442e-07
5.24442e-07
5.24458e-07
5.24446e-07
5.24446e-07
5.24446e-07
5.24442e-07
5.24442e-07
5.24446e-07
5.24443e-07
5.24442e-07
5.24458e-07
5.24446e-07
5.24446e-07
5.24443e-07
5.24442e-07
5.24444e-07
5.24457e-07
5.24446e-07
5.24448e-07
5.24447e-07
5.24442e-07
5.24442e-07
5.24457e-07
5.24446e-07
5.24448e-07
5.24447e-07
5.24442e-07
5.24442e-07
5.24447e-07
5.24443e-07
5.24442e-07
5.24458e-07
5.24446e-07
5.24448e-07
5.24443e-07
5.24442e-07
5.24444e-07
5.24457e-07
5.24446e-07
5.24448e-07
5.24447e-07
5.24442e-07
5.24442e-07
5.24457e-07
5.24446e-07
5.24448e-07
5.24447e-07
5.24442e-07
5.24442e-07
5.24447e-07
5.24443e-07
5.24442e-07
5.24458e-07
5.24446e-07
5.24448e-07
5.24443e-07
5.24442e-07
5.24444e-07
5.24457e-07
5.24446e-07
5.24448e-07
5.24447e-07
5.24442e-07
5.24442e-07
5.24458e-07
5.24446e-07
5.24448e-07
5.24447e-07
5.24442e-07
5.24442e-07
5.24447e-07
5.24443e-07
5.24442e-07
5.24458e-07
5.24446e-07
5.24448e-07
5.24443e-07
5.24442e-07
5.24444e-07
5.24457e-07
5.24446e-07
5.24448e-07
5.24447e-07
5.24442e-07
5.24442e-07
5.24457e-07
5.24446e-07
5.24448e-07
5.24447e-07
5.24442e-07
5.24442e-07
5.24447e-07
5.24443e-07
5.24442e-07
5.24458e-07
5.24446e-07
5.24448e-07
5.24443e-07
5.24442e-07
5.24444e-07
5.24457e-07
5.24446e-07
5.24448e-07
5.24447e-07
5.24442e-07
5.24442e-07
5.24458e-07
5.24446e-07
5.24448e-07
5.24447e-07
5.24442e-07
5.24442e-07
5.24447e-07
5.24443e-07
5.24442e-07
5.24457e-07
5.24446e-07
5.24448e-07
5.24443e-07
5.24442e-07
5.24444e-07
5.24457e-07
5.24446e-07
5.24448e-07
5.24448e-07
5.24442e-07
5.24442e-07
5.24457e-07
5.24446e-07
5.24448e-07
5.24447e-07
5.24442e-07
5.24442e-07
5.24447e-07
5.24443e-07
5.24442e-07
5.24458e-07
5.24446e-07
5.24448e-07
5.24443e-07
5.24442e-07
5.24444e-07
5.24457e-07
5.24446e-07
5.24447e-07
5.24447e-07
5.24442e-07
5.24442e-07
5.24458e-07
5.24446e-07
5.24448e-07
5.24447e-07
5.24442e-07
5.24442e-07
5.24447e-07
5.24443e-07
5.24442e-07
5.24458e-07
5.24446e-07
5.24448e-07
5.24443e-07
5.24442e-07
5.24444e-07
5.24458e-07
5.24446e-07
5.24446e-07
5.24448e-07
5.24442e-07
5.24442e-07
5.24458e-07
5.24446e-07
5.24448e-07
5.24447e-07
5.24442e-07
5.24442e-07
5.24447e-07
5.24443e-07
5.24442e-07
5.24458e-07
5.24446e-07
5.24448e-07
5.24443e-07
5.24442e-07
5.24444e-07
5.24458e-07
5.24446e-07
5.24446e-07
5.24448e-07
5.24442e-07
5.24442e-07
5.24458e-07
5.24446e-07
5.24448e-07
5.24447e-07
5.24442e-07
5.24442e-07
5.24447e-07
5.24443e-07
5.24442e-07
5.24457e-07
5.24446e-07
5.24448e-07
5.24443e-07
5.24442e-07
5.24444e-07
5.24457e-07
5.24446e-07
5.24446e-07
5.24448e-07
5.24442e-07
5.24442e-07
5.24458e-07
5.24446e-07
5.24448e-07
5.24447e-07
5.24442e-07
5.24442e-07
5.24447e-07
5.24443e-07
5.24442e-07
5.24458e-07
5.24446e-07
5.24448e-07
5.24443e-07
5.24442e-07
5.24444e-07
5.24458e-07
5.24446e-07
5.24446e-07
5.24448e-07
5.24442e-07
5.24442e-07
5.24458e-07
5.24446e-07
5.24448e-07
5.24447e-07
5.24442e-07
5.24442e-07
5.24447e-07
5.24443e-07
5.24442e-07
5.24458e-07
5.24446e-07
5.24448e-07
5.24443e-07
5.24442e-07
5.24444e-07
5.24458e-07
5.24446e-07
5.24446e-07
5.24448e-07
5.24442e-07
5.24442e-07
5.24458e-07
5.24446e-07
5.24448e-07
5.24447e-07
5.24442e-07
5.24442e-07
5.24447e-07
5.24443e-07
5.24442e-07
5.24458e-07
5.24446e-07
5.24448e-07
5.24443e-07
5.24442e-07
5.24444e-07
5.24458e-07
5.24446e-07
5.24446e-07
5.24448e-07
5.24442e-07
5.24442e-07
5.24458e-07
5.24446e-07
5.24448e-07
5.24447e-07
5.24442e-07
5.24442e-07
5.24447e-07
5.24443e-07
5.24442e-07
5.24458e-07
5.24446e-07
5.24448e-07
5.24443e-07
5.24442e-07
5.24444e-07
5.24458e-07
5.24446e-07
5.24446e-07
5.24448e-07
5.24442e-07
5.24442e-07
5.24458e-07
5.24446e-07
5.24448e-07
5.24447e-07
5.24442e-07
5.24442e-07
5.24447e-07
5.24443e-07
5.24442e-07
5.24458e-07
5.24446e-07
5.24448e-07
5.24443e-07
5.24442e-07
5.24444e-07
5.24457e-07
5.24446e-07
5.24446e-07
5.24448e-07
5.24442e-07
5.24442e-07
5.24458e-07
5.24446e-07
5.24448e-07
5.24447e-07
5.24442e-07
5.24442e-07
5.24447e-07
5.24443e-07
5.24442e-07
5.24457e-07
5.24446e-07
5.24448e-07
5.24443e-07
5.24442e-07
5.24444e-07
5.24458e-07
5.24446e-07
5.24448e-07
5.24458e-07
5.24448e-07
5.24447e-07
5.24447e-07
5.24458e-07
5.24447e-07
6.70721e-07
3.85867e-06
6.68623e-07
3.86398e-06
9.45793e-06
9.46049e-06
6.70762e-07
3.85909e-06
6.68592e-07
3.86438e-06
5.24639e-07
5.24642e-07
5.24642e-07
5.24427e-07
5.24428e-07
5.24428e-07
5.24428e-07
5.29521e-07
6.33695e-07
5.24645e-07
5.24467e-07
5.29633e-07
6.34114e-07
5.24529e-07
9.42982e-06
9.46137e-06
5.29522e-07
5.24645e-07
6.32418e-07
5.24544e-07
5.29633e-07
5.24528e-07
6.33925e-07
8.2597e-07
8.26025e-07
5.24471e-07
8.30534e-07
8.30601e-07
6.70946e-07
3.864e-06
6.71045e-07
3.86399e-06
9.46047e-06
9.46043e-06
6.70933e-07
3.86442e-06
6.70989e-07
3.8644e-06
5.2443e-07
5.2443e-07
5.2443e-07
5.24426e-07
5.24426e-07
5.24426e-07
5.24426e-07
5.29516e-07
6.34208e-07
5.24427e-07
5.24447e-07
5.29521e-07
6.34098e-07
5.24431e-07
9.46162e-06
9.46146e-06
5.29513e-07
5.24427e-07
6.34178e-07
5.24446e-07
5.29522e-07
5.24431e-07
6.34091e-07
8.30906e-07
8.30978e-07
5.24448e-07
8.3084e-07
8.30925e-07
6.70944e-07
3.864e-06
6.71041e-07
3.86399e-06
9.46048e-06
9.46043e-06
6.70933e-07
3.86442e-06
6.7099e-07
3.8644e-06
5.2443e-07
5.24429e-07
5.2443e-07
5.24426e-07
5.24426e-07
5.24426e-07
5.24426e-07
5.29516e-07
6.34208e-07
5.24427e-07
5.24448e-07
5.29522e-07
6.34098e-07
5.24432e-07
9.46153e-06
9.46145e-06
5.29513e-07
5.24427e-07
6.34179e-07
5.24447e-07
5.29522e-07
5.24432e-07
6.34091e-07
8.30905e-07
8.30972e-07
5.24448e-07
8.3084e-07
8.30918e-07
6.70945e-07
3.864e-06
6.71041e-07
3.86399e-06
9.46064e-06
9.46054e-06
6.70933e-07
3.86442e-06
6.70989e-07
3.8644e-06
5.24429e-07
5.2443e-07
5.2443e-07
5.24426e-07
5.24426e-07
5.24426e-07
5.24426e-07
5.29516e-07
6.34208e-07
5.24427e-07
5.24448e-07
5.29522e-07
6.34099e-07
5.24432e-07
9.46154e-06
9.46145e-06
5.29515e-07
5.24427e-07
6.34179e-07
5.24447e-07
5.29521e-07
5.24432e-07
6.34091e-07
8.30905e-07
8.30971e-07
5.24448e-07
8.3084e-07
8.30919e-07
6.70944e-07
3.864e-06
6.71041e-07
3.86399e-06
9.4606e-06
9.46053e-06
6.70933e-07
3.86442e-06
6.70989e-07
3.8644e-06
5.24429e-07
5.24431e-07
5.2443e-07
5.24426e-07
5.24426e-07
5.24426e-07
5.24426e-07
5.29515e-07
6.34208e-07
5.24427e-07
5.24448e-07
5.29522e-07
6.34099e-07
5.24432e-07
9.46154e-06
9.46145e-06
5.29515e-07
5.24427e-07
6.34179e-07
5.24447e-07
5.29521e-07
5.24432e-07
6.34091e-07
8.30905e-07
8.30971e-07
5.24448e-07
8.3084e-07
8.3092e-07
6.70944e-07
3.864e-06
6.71041e-07
3.86399e-06
9.46058e-06
9.46034e-06
6.70933e-07
3.86442e-06
6.70989e-07
3.8644e-06
5.2443e-07
5.24429e-07
5.2443e-07
5.24426e-07
5.24426e-07
5.24426e-07
5.24426e-07
5.29514e-07
6.34208e-07
5.24427e-07
5.24448e-07
5.29523e-07
6.34099e-07
5.24432e-07
9.46154e-06
9.46145e-06
5.29515e-07
5.24427e-07
6.34179e-07
5.24447e-07
5.29521e-07
5.24432e-07
6.34091e-07
8.30905e-07
8.30969e-07
5.24448e-07
8.3084e-07
8.30915e-07
6.70944e-07
3.86398e-06
6.71041e-07
3.86397e-06
9.46049e-06
9.46058e-06
6.70933e-07
3.86442e-06
6.70989e-07
3.8644e-06
5.24429e-07
5.2443e-07
5.2443e-07
5.24426e-07
5.24426e-07
5.24426e-07
5.24426e-07
5.29516e-07
6.34208e-07
5.24427e-07
5.24448e-07
5.29522e-07
6.34098e-07
5.24432e-07
9.46154e-06
9.46145e-06
5.29515e-07
5.24427e-07
6.34179e-07
5.24447e-07
5.29521e-07
5.24432e-07
6.34091e-07
8.30905e-07
8.30973e-07
5.24448e-07
8.3084e-07
8.30922e-07
6.70945e-07
3.864e-06
6.71041e-07
3.86401e-06
9.46066e-06
9.46048e-06
6.70933e-07
3.86442e-06
6.70988e-07
3.8644e-06
5.24429e-07
5.24429e-07
5.24429e-07
5.24426e-07
5.24426e-07
5.24426e-07
5.24426e-07
5.29516e-07
6.34208e-07
5.24427e-07
5.24448e-07
5.29522e-07
6.34099e-07
5.24432e-07
9.46154e-06
9.46145e-06
5.29515e-07
5.24427e-07
6.34179e-07
5.24447e-07
5.29521e-07
5.24432e-07
6.34091e-07
8.30905e-07
8.3097e-07
5.24448e-07
8.3084e-07
8.30916e-07
6.70945e-07
3.86403e-06
6.71041e-07
3.86403e-06
9.46047e-06
9.46029e-06
6.70933e-07
3.8644e-06
6.70988e-07
3.86438e-06
5.24429e-07
5.24429e-07
5.24429e-07
5.24426e-07
5.24426e-07
5.24426e-07
5.24426e-07
5.29515e-07
6.34208e-07
5.24427e-07
5.24448e-07
5.29522e-07
6.34099e-07
5.24432e-07
9.46154e-06
9.46145e-06
5.29515e-07
5.24427e-07
6.34179e-07
5.24447e-07
5.2952e-07
5.24432e-07
6.34091e-07
8.30905e-07
8.30972e-07
5.24448e-07
8.3084e-07
8.30915e-07
6.70945e-07
3.86405e-06
6.71041e-07
3.86403e-06
9.46037e-06
9.46029e-06
6.70933e-07
3.86439e-06
6.70988e-07
3.86438e-06
5.24429e-07
5.2443e-07
5.2443e-07
5.24426e-07
5.24426e-07
5.24426e-07
5.24426e-07
5.29514e-07
6.34208e-07
5.24427e-07
5.24448e-07
5.29523e-07
6.34099e-07
5.24432e-07
9.46154e-06
9.46145e-06
5.29516e-07
5.24427e-07
6.34179e-07
5.24447e-07
5.2952e-07
5.24432e-07
6.34091e-07
8.30905e-07
8.30972e-07
5.24448e-07
8.3084e-07
8.30919e-07
6.70945e-07
3.86405e-06
6.71041e-07
3.86403e-06
9.46037e-06
9.46029e-06
6.70933e-07
3.8644e-06
6.70988e-07
3.86438e-06
5.2443e-07
5.24429e-07
5.2443e-07
5.24426e-07
5.24426e-07
5.24426e-07
5.24426e-07
5.29513e-07
6.34208e-07
5.24427e-07
5.24448e-07
5.29523e-07
6.34099e-07
5.24432e-07
9.46154e-06
9.46145e-06
5.29514e-07
5.24427e-07
6.34179e-07
5.24447e-07
5.29521e-07
5.24432e-07
6.34091e-07
8.30905e-07
8.30971e-07
5.24448e-07
8.3084e-07
8.30919e-07
6.70945e-07
3.86405e-06
6.71041e-07
3.86403e-06
9.46037e-06
9.46029e-06
6.70933e-07
3.8644e-06
6.70988e-07
3.86438e-06
5.2443e-07
5.2443e-07
5.2443e-07
5.24426e-07
5.24426e-07
5.24426e-07
5.24426e-07
5.29514e-07
6.34208e-07
5.24427e-07
5.24448e-07
5.29523e-07
6.34099e-07
5.24432e-07
9.46154e-06
9.46145e-06
5.29513e-07
5.24427e-07
6.34179e-07
5.24447e-07
5.29522e-07
5.24432e-07
6.34091e-07
8.30905e-07
8.30972e-07
5.24448e-07
8.3084e-07
8.30916e-07
6.70945e-07
3.86405e-06
6.71041e-07
3.86403e-06
9.46037e-06
9.46029e-06
6.70933e-07
3.8644e-06
6.70988e-07
3.86438e-06
5.24429e-07
5.24429e-07
5.2443e-07
5.24426e-07
5.24426e-07
5.24426e-07
5.24426e-07
5.29514e-07
6.34208e-07
5.24427e-07
5.24448e-07
5.29523e-07
6.34099e-07
5.24432e-07
9.46154e-06
9.46145e-06
5.29513e-07
5.24427e-07
6.3418e-07
5.24447e-07
5.29522e-07
5.24432e-07
6.34091e-07
8.30905e-07
8.30973e-07
5.24448e-07
8.3084e-07
8.30921e-07
6.70945e-07
3.86405e-06
6.71041e-07
3.86403e-06
9.46037e-06
9.46029e-06
6.70933e-07
3.8644e-06
6.70988e-07
3.86438e-06
5.24429e-07
5.24429e-07
5.2443e-07
5.24426e-07
5.24426e-07
5.24426e-07
5.24426e-07
5.29514e-07
6.34208e-07
5.24427e-07
5.24448e-07
5.29523e-07
6.34099e-07
5.24432e-07
9.46154e-06
9.46145e-06
5.29514e-07
5.24427e-07
6.34179e-07
5.24447e-07
5.29521e-07
5.24432e-07
6.34091e-07
8.30905e-07
8.30973e-07
5.24448e-07
8.3084e-07
8.30921e-07
6.70945e-07
3.86405e-06
6.71041e-07
3.86403e-06
9.46037e-06
9.46029e-06
6.70933e-07
3.8644e-06
6.70988e-07
3.86438e-06
5.24431e-07
5.24429e-07
5.2443e-07
5.24426e-07
5.24426e-07
5.24426e-07
5.24426e-07
5.29514e-07
6.34208e-07
5.24427e-07
5.24448e-07
5.29523e-07
6.34099e-07
5.24432e-07
9.46154e-06
9.46145e-06
5.29514e-07
5.24427e-07
6.34179e-07
5.24447e-07
5.29521e-07
5.24432e-07
6.34091e-07
8.30905e-07
8.30978e-07
5.24448e-07
8.3084e-07
8.30927e-07
6.70945e-07
3.86405e-06
6.71041e-07
3.86403e-06
9.46037e-06
9.46029e-06
6.70933e-07
3.8644e-06
6.70988e-07
3.86438e-06
5.24431e-07
5.24431e-07
5.2443e-07
5.24426e-07
5.24426e-07
5.24426e-07
5.24426e-07
5.29515e-07
6.34208e-07
5.24427e-07
5.24448e-07
5.29522e-07
6.34099e-07
5.24432e-07
9.46154e-06
9.46145e-06
5.29515e-07
5.24427e-07
6.34179e-07
5.24447e-07
5.29521e-07
5.24432e-07
6.34091e-07
8.30905e-07
8.30974e-07
5.24448e-07
8.3084e-07
8.30916e-07
6.70945e-07
3.86405e-06
6.71041e-07
3.86403e-06
9.46037e-06
9.46029e-06
6.70933e-07
3.8644e-06
6.70988e-07
3.86438e-06
5.24429e-07
5.24429e-07
5.2443e-07
5.24426e-07
5.24426e-07
5.24426e-07
5.24426e-07
5.29516e-07
6.34208e-07
5.24427e-07
5.24448e-07
5.29522e-07
6.34099e-07
5.24432e-07
9.46154e-06
9.46145e-06
5.29513e-07
5.24427e-07
6.34179e-07
5.24447e-07
5.29522e-07
5.24432e-07
6.34091e-07
8.30905e-07
8.30972e-07
5.24448e-07
8.3084e-07
8.30916e-07
6.70896e-07
3.86405e-06
6.71041e-07
3.86413e-06
9.46037e-06
9.46029e-06
6.70877e-07
3.8644e-06
6.70988e-07
3.86447e-06
5.2443e-07
5.2443e-07
5.2443e-07
5.29515e-07
6.34208e-07
5.24427e-07
5.24447e-07
5.29522e-07
6.34099e-07
5.24432e-07
9.46154e-06
9.46221e-06
5.29513e-07
5.24427e-07
6.34179e-07
5.24447e-07
5.29522e-07
5.24432e-07
6.34061e-07
8.30905e-07
8.30973e-07
5.24459e-07
8.30843e-07
8.30801e-07
3.86163e-06
6.32701e-07
9.44583e-06
8.27103e-07
8.27022e-07
9.44526e-06
6.32686e-07
3.86193e-06
9.42692e-06
9.45967e-06
9.42933e-06
9.46087e-06
8.25939e-07
8.26048e-07
5.24472e-07
8.30513e-07
8.30619e-07
9.45988e-06
9.45897e-06
9.46104e-06
9.46027e-06
5.2446e-07
8.30846e-07
8.30953e-07
8.30694e-07
8.3079e-07
6.70719e-07
3.86353e-06
6.68621e-07
3.86415e-06
5.2952e-07
6.32407e-07
5.24644e-07
5.24542e-07
5.29635e-07
6.33912e-07
5.24527e-07
5.29521e-07
6.33628e-07
5.24644e-07
5.24462e-07
5.29635e-07
6.34148e-07
5.24528e-07
6.70969e-07
3.864e-06
3.86388e-06
6.70995e-07
6.70969e-07
3.86412e-06
3.86401e-06
6.70986e-07
5.29527e-07
5.24458e-07
6.34105e-07
5.24429e-07
6.34142e-07
5.24443e-07
5.29513e-07
5.29527e-07
5.24443e-07
6.3414e-07
5.24429e-07
6.34153e-07
5.24443e-07
5.29514e-07
8.29341e-07
8.29318e-07
5.24445e-07
8.30975e-07
8.30896e-07
9.45657e-06
9.46019e-06
9.46047e-06
9.45926e-06
5.24454e-07
8.30959e-07
8.30889e-07
8.30813e-07
8.30769e-07
9.46004e-06
9.45937e-06
5.2952e-07
6.32467e-07
5.24644e-07
5.24542e-07
5.29633e-07
6.33948e-07
5.24527e-07
6.70765e-07
3.85907e-06
6.68606e-07
3.86456e-06
5.29522e-07
5.24645e-07
6.32479e-07
5.24542e-07
5.29635e-07
5.24529e-07
6.33966e-07
6.70911e-07
3.86442e-06
3.86429e-06
6.70955e-07
5.29526e-07
5.24458e-07
6.34161e-07
5.24429e-07
6.34211e-07
5.24443e-07
5.29511e-07
6.70917e-07
3.8646e-06
3.86446e-06
6.70962e-07
5.29526e-07
5.24458e-07
5.24429e-07
6.3418e-07
5.24443e-07
6.34227e-07
5.29513e-07
6.70726e-07
3.86361e-06
6.68624e-07
3.86418e-06
5.29522e-07
5.24644e-07
6.32414e-07
5.24542e-07
5.29635e-07
5.24527e-07
6.33923e-07
6.7072e-07
3.85883e-06
6.68625e-07
3.86432e-06
5.29525e-07
5.24444e-07
6.34131e-07
5.24428e-07
6.34151e-07
5.24443e-07
5.29515e-07
6.7097e-07
3.86415e-06
3.86402e-06
6.70989e-07
5.29525e-07
5.24458e-07
5.24429e-07
6.3412e-07
5.24443e-07
6.34151e-07
5.29516e-07
6.7097e-07
3.86436e-06
3.8642e-06
6.70988e-07
8.26128e-07
8.25964e-07
5.24472e-07
8.30641e-07
8.30528e-07
9.4289e-06
9.46043e-06
9.46162e-06
9.46079e-06
5.2446e-07
8.31034e-07
8.30861e-07
8.30935e-07
8.30705e-07
9.46062e-06
9.45989e-06
5.29522e-07
5.24645e-07
6.32445e-07
5.24542e-07
5.29633e-07
5.24529e-07
6.3395e-07
6.7076e-07
3.85907e-06
6.6859e-07
3.86437e-06
6.70768e-07
3.85913e-06
6.686e-07
3.86443e-06
5.29525e-07
5.24459e-07
5.24428e-07
6.34115e-07
5.24443e-07
6.34151e-07
5.29515e-07
5.29525e-07
5.24458e-07
5.24429e-07
6.34148e-07
5.24443e-07
6.3418e-07
5.29514e-07
6.70908e-07
3.8644e-06
3.86427e-06
6.70957e-07
6.70906e-07
3.86446e-06
3.86433e-06
6.70955e-07
9.42896e-06
9.46053e-06
9.42815e-06
9.46091e-06
5.24461e-07
8.30888e-07
8.30955e-07
8.30712e-07
8.308e-07
9.46069e-06
9.45992e-06
9.46115e-06
9.46035e-06
9.45847e-06
9.46006e-06
9.45996e-06
9.46123e-06
8.30655e-07
8.30775e-07
5.24445e-07
8.30856e-07
8.30966e-07
9.45988e-06
9.4588e-06
9.46107e-06
9.46044e-06
5.24456e-07
8.30842e-07
8.3095e-07
8.30686e-07
8.30829e-07
6.70981e-07
3.8639e-06
6.70945e-07
3.86414e-06
5.29509e-07
6.3411e-07
5.24431e-07
5.24445e-07
5.29521e-07
6.34113e-07
5.2443e-07
5.29512e-07
6.34144e-07
5.2443e-07
5.24445e-07
5.29524e-07
6.34146e-07
5.24429e-07
6.7099e-07
3.864e-06
3.86385e-06
6.70995e-07
6.70978e-07
3.86411e-06
3.86395e-06
6.70995e-07
5.29523e-07
5.24442e-07
6.34105e-07
5.24427e-07
6.34116e-07
5.24426e-07
5.29513e-07
5.29524e-07
5.24442e-07
6.3414e-07
5.24427e-07
6.34149e-07
5.24426e-07
5.29515e-07
8.30812e-07
8.30878e-07
5.24445e-07
8.3099e-07
8.30932e-07
9.45893e-06
9.46015e-06
9.46055e-06
9.45964e-06
5.24455e-07
8.30962e-07
8.30889e-07
8.3083e-07
8.30777e-07
9.46e-06
9.45901e-06
5.29507e-07
6.34182e-07
5.24431e-07
5.24445e-07
5.29519e-07
6.34168e-07
5.24429e-07
6.70966e-07
3.86439e-06
6.70923e-07
3.86463e-06
5.29511e-07
5.2443e-07
6.34198e-07
5.24445e-07
5.29523e-07
5.24429e-07
6.34189e-07
6.70893e-07
3.86441e-06
3.86426e-06
6.70956e-07
5.29518e-07
5.24442e-07
6.34164e-07
5.24427e-07
6.3418e-07
5.24426e-07
5.29511e-07
6.70954e-07
3.8646e-06
3.86444e-06
6.7097e-07
5.29522e-07
5.24442e-07
5.24427e-07
6.34184e-07
5.24426e-07
6.34201e-07
5.29514e-07
6.70989e-07
3.86395e-06
6.70938e-07
3.86418e-06
5.29513e-07
5.2443e-07
6.34121e-07
5.24445e-07
5.29523e-07
5.24429e-07
6.34122e-07
6.70985e-07
3.86412e-06
6.7095e-07
3.86438e-06
5.29522e-07
5.24444e-07
6.3413e-07
5.24427e-07
6.34158e-07
5.24428e-07
5.29515e-07
6.70963e-07
3.86415e-06
3.864e-06
6.70998e-07
5.2952e-07
5.24442e-07
5.24427e-07
6.34123e-07
5.24426e-07
6.34127e-07
5.29516e-07
6.70985e-07
3.86435e-06
3.86417e-06
6.70996e-07
8.31041e-07
8.30675e-07
5.24445e-07
8.31089e-07
8.3087e-07
9.45929e-06
9.46077e-06
9.46151e-06
9.4605e-06
5.24455e-07
8.31046e-07
8.30858e-07
8.30923e-07
8.30703e-07
9.46058e-06
9.45947e-06
5.29512e-07
5.2443e-07
6.34152e-07
5.24445e-07
5.29521e-07
5.24429e-07
6.3415e-07
6.70971e-07
3.86419e-06
6.70906e-07
3.86442e-06
6.70965e-07
3.86424e-06
6.70899e-07
3.86449e-06
5.2952e-07
5.24443e-07
5.24427e-07
6.34118e-07
5.24428e-07
6.34116e-07
5.29515e-07
5.29519e-07
5.24442e-07
5.24427e-07
6.34151e-07
5.24426e-07
6.34155e-07
5.29514e-07
6.7095e-07
3.86439e-06
3.86422e-06
6.70965e-07
6.70906e-07
3.86446e-06
3.86427e-06
6.70956e-07
9.45934e-06
9.46085e-06
9.45982e-06
9.4613e-06
5.24456e-07
8.30888e-07
8.30952e-07
8.30744e-07
8.30839e-07
9.46067e-06
9.45958e-06
9.46112e-06
9.46003e-06
9.45847e-06
9.46006e-06
9.45996e-06
9.46122e-06
8.30666e-07
8.30771e-07
5.24445e-07
8.30873e-07
8.30966e-07
9.45988e-06
9.45881e-06
9.46107e-06
9.46043e-06
5.24456e-07
8.30858e-07
8.3095e-07
8.30723e-07
8.30829e-07
6.70982e-07
3.86388e-06
6.70982e-07
3.86414e-06
5.29509e-07
6.3411e-07
5.24431e-07
5.24445e-07
5.29521e-07
6.34113e-07
5.2443e-07
5.29512e-07
6.34144e-07
5.2443e-07
5.24445e-07
5.29525e-07
6.34145e-07
5.24429e-07
6.70992e-07
3.864e-06
3.86385e-06
6.70995e-07
6.70984e-07
3.86412e-06
3.86395e-06
6.70995e-07
5.29523e-07
5.24442e-07
6.34107e-07
5.24427e-07
6.34119e-07
5.24427e-07
5.29513e-07
5.29524e-07
5.24442e-07
6.3414e-07
5.24427e-07
6.3415e-07
5.24427e-07
5.29515e-07
8.3082e-07
8.30877e-07
5.24445e-07
8.3099e-07
8.30932e-07
9.4588e-06
9.46015e-06
9.46073e-06
9.45967e-06
5.24456e-07
8.30968e-07
8.30889e-07
8.30833e-07
8.30777e-07
9.46e-06
9.45901e-06
5.29507e-07
6.34183e-07
5.2443e-07
5.24445e-07
5.29519e-07
6.34167e-07
5.24429e-07
6.70966e-07
3.86438e-06
6.70953e-07
3.86463e-06
5.29511e-07
5.2443e-07
6.34199e-07
5.24445e-07
5.29523e-07
5.24429e-07
6.34189e-07
6.70893e-07
3.86441e-06
3.86426e-06
6.70955e-07
5.29518e-07
5.24442e-07
6.34164e-07
5.24427e-07
6.3418e-07
5.24427e-07
5.29511e-07
6.70954e-07
3.8646e-06
3.86444e-06
6.70969e-07
5.29522e-07
5.24442e-07
5.24427e-07
6.34184e-07
5.24427e-07
6.34202e-07
5.29512e-07
6.70991e-07
3.86395e-06
6.70961e-07
3.86418e-06
5.29513e-07
5.2443e-07
6.34125e-07
5.24445e-07
5.29523e-07
5.24429e-07
6.34122e-07
6.70987e-07
3.86412e-06
6.70984e-07
3.86438e-06
5.29522e-07
5.24444e-07
6.3413e-07
5.24427e-07
6.34158e-07
5.24428e-07
5.29515e-07
6.70992e-07
3.86415e-06
3.864e-06
6.70997e-07
5.2952e-07
5.24442e-07
5.24427e-07
6.34123e-07
5.24426e-07
6.34127e-07
5.29516e-07
6.70986e-07
3.86435e-06
3.86417e-06
6.70996e-07
8.30928e-07
8.30672e-07
5.24445e-07
8.31083e-07
8.3087e-07
9.45917e-06
9.46076e-06
9.46152e-06
9.46064e-06
5.24455e-07
8.31046e-07
8.30858e-07
8.30923e-07
8.30704e-07
9.46058e-06
9.45946e-06
5.29512e-07
5.2443e-07
6.34155e-07
5.24446e-07
5.29522e-07
5.24429e-07
6.34149e-07
6.70971e-07
3.86417e-06
6.70928e-07
3.86442e-06
6.70965e-07
3.86422e-06
6.709e-07
3.86449e-06
5.2952e-07
5.24444e-07
5.24427e-07
6.34118e-07
5.24428e-07
6.34116e-07
5.29514e-07
5.29519e-07
5.24442e-07
5.24427e-07
6.34151e-07
5.24426e-07
6.34154e-07
5.29514e-07
6.7095e-07
3.86439e-06
3.86422e-06
6.70965e-07
6.70907e-07
3.86446e-06
3.86427e-06
6.70956e-07
9.45928e-06
9.46085e-06
9.45973e-06
9.4613e-06
5.24456e-07
8.30888e-07
8.30952e-07
8.30744e-07
8.30838e-07
9.46067e-06
9.45958e-06
9.46112e-06
9.46003e-06
9.45847e-06
9.46006e-06
9.45996e-06
9.46122e-06
8.30684e-07
8.30771e-07
5.24445e-07
8.3087e-07
8.30966e-07
9.45988e-06
9.45881e-06
9.46107e-06
9.46043e-06
5.24456e-07
8.30871e-07
8.3095e-07
8.30718e-07
8.30829e-07
6.70982e-07
3.86388e-06
6.70983e-07
3.86414e-06
5.29509e-07
6.34113e-07
5.24432e-07
5.24446e-07
5.29521e-07
6.34113e-07
5.2443e-07
5.29512e-07
6.34144e-07
5.24432e-07
5.24445e-07
5.29525e-07
6.34145e-07
5.2443e-07
6.70991e-07
3.864e-06
3.86385e-06
6.70995e-07
6.70984e-07
3.86411e-06
3.86395e-06
6.70995e-07
5.29523e-07
5.24442e-07
6.34108e-07
5.24427e-07
6.34119e-07
5.24426e-07
5.29513e-07
5.29524e-07
5.24442e-07
6.34138e-07
5.24427e-07
6.34147e-07
5.24426e-07
5.29515e-07
8.30827e-07
8.30878e-07
5.24445e-07
8.3099e-07
8.30935e-07
9.4588e-06
9.46015e-06
9.46068e-06
9.45973e-06
5.24455e-07
8.30944e-07
8.30886e-07
8.30785e-07
8.30785e-07
9.46e-06
9.459e-06
5.29507e-07
6.34183e-07
5.24432e-07
5.24445e-07
5.29519e-07
6.34167e-07
5.2443e-07
6.7096e-07
3.86438e-06
6.70914e-07
3.86463e-06
5.2951e-07
5.24432e-07
6.34199e-07
5.24445e-07
5.29521e-07
5.2443e-07
6.34189e-07
6.70894e-07
3.86441e-06
3.86426e-06
6.70955e-07
5.29518e-07
5.24442e-07
6.34164e-07
5.24427e-07
6.3418e-07
5.24426e-07
5.29511e-07
6.709e-07
3.8646e-06
3.86444e-06
6.70958e-07
5.2952e-07
5.24442e-07
5.24427e-07
6.34184e-07
5.24426e-07
6.34202e-07
5.29512e-07
6.70991e-07
3.86395e-06
6.70958e-07
3.86418e-06
5.29513e-07
5.24431e-07
6.34125e-07
5.24445e-07
5.29523e-07
5.24429e-07
6.34122e-07
6.70987e-07
3.86412e-06
6.70984e-07
3.86438e-06
5.29522e-07
5.24444e-07
6.3413e-07
5.24427e-07
6.34159e-07
5.24428e-07
5.29515e-07
6.70991e-07
3.86415e-06
3.864e-06
6.70997e-07
5.2952e-07
5.24442e-07
5.24427e-07
6.34123e-07
5.24426e-07
6.34127e-07
5.29516e-07
6.70986e-07
3.86435e-06
3.86417e-06
6.70996e-07
8.30928e-07
8.30672e-07
5.24445e-07
8.31083e-07
8.3087e-07
9.45917e-06
9.46076e-06
9.46152e-06
9.46064e-06
5.24455e-07
8.31046e-07
8.30858e-07
8.30923e-07
8.30704e-07
9.46058e-06
9.45946e-06
5.29512e-07
5.2443e-07
6.34155e-07
5.24446e-07
5.29522e-07
5.24429e-07
6.34149e-07
6.70971e-07
3.86417e-06
6.70929e-07
3.86442e-06
6.70965e-07
3.86422e-06
6.709e-07
3.86449e-06
5.29521e-07
5.24444e-07
5.24427e-07
6.34118e-07
5.24428e-07
6.34116e-07
5.29514e-07
5.29519e-07
5.24442e-07
5.24427e-07
6.34151e-07
5.24426e-07
6.34155e-07
5.29514e-07
6.7095e-07
3.86439e-06
3.86422e-06
6.70966e-07
6.70907e-07
3.86446e-06
3.86427e-06
6.70957e-07
9.45928e-06
9.46085e-06
9.45974e-06
9.4613e-06
5.24456e-07
8.30888e-07
8.30951e-07
8.30744e-07
8.30841e-07
9.46067e-06
9.45958e-06
9.46112e-06
9.46003e-06
9.45848e-06
9.46006e-06
9.45997e-06
9.46122e-06
8.30747e-07
8.30771e-07
5.24445e-07
8.30858e-07
8.30966e-07
9.45988e-06
9.4588e-06
9.46107e-06
9.46043e-06
5.24456e-07
8.30846e-07
8.3095e-07
8.30684e-07
8.30829e-07
6.70983e-07
3.86388e-06
6.70987e-07
3.86414e-06
5.29509e-07
6.34113e-07
5.2443e-07
5.24445e-07
5.29521e-07
6.34111e-07
5.24429e-07
5.29512e-07
6.34142e-07
5.2443e-07
5.24445e-07
5.29525e-07
6.34143e-07
5.24428e-07
6.70992e-07
3.864e-06
3.86385e-06
6.70995e-07
6.70981e-07
3.86411e-06
3.86395e-06
6.70996e-07
5.29523e-07
5.24442e-07
6.34106e-07
5.24427e-07
6.34115e-07
5.24426e-07
5.29513e-07
5.29524e-07
5.24442e-07
6.34139e-07
5.24427e-07
6.34148e-07
5.24427e-07
5.29515e-07
8.30787e-07
8.30895e-07
5.24446e-07
8.30968e-07
8.30933e-07
9.45882e-06
9.46015e-06
9.46064e-06
9.45973e-06
5.24456e-07
8.30953e-07
8.3089e-07
8.30828e-07
8.30783e-07
9.46e-06
9.45901e-06
5.29507e-07
6.34183e-07
5.24431e-07
5.24445e-07
5.29519e-07
6.34167e-07
5.24429e-07
6.70965e-07
3.86438e-06
6.70905e-07
3.86463e-06
5.2951e-07
5.2443e-07
6.34199e-07
5.24445e-07
5.29522e-07
5.24429e-07
6.34189e-07
6.70892e-07
3.86441e-06
3.86426e-06
6.70955e-07
5.29518e-07
5.24442e-07
6.34164e-07
5.24427e-07
6.3418e-07
5.24426e-07
5.29511e-07
6.70908e-07
3.8646e-06
3.86444e-06
6.70959e-07
5.2952e-07
5.24442e-07
5.24427e-07
6.34184e-07
5.24426e-07
6.34202e-07
5.29512e-07
6.70991e-07
3.86395e-06
6.70958e-07
3.86418e-06
5.29513e-07
5.24432e-07
6.34125e-07
5.24445e-07
5.29523e-07
5.2443e-07
6.34122e-07
6.70987e-07
3.86412e-06
6.70987e-07
3.86438e-06
5.29522e-07
5.24444e-07
6.3413e-07
5.24427e-07
6.34158e-07
5.24428e-07
5.29516e-07
6.70992e-07
3.86415e-06
3.864e-06
6.70996e-07
5.2952e-07
5.24442e-07
5.24427e-07
6.34123e-07
5.24426e-07
6.34127e-07
5.29516e-07
6.70985e-07
3.86435e-06
3.86417e-06
6.70996e-07
8.30928e-07
8.30672e-07
5.24445e-07
8.31083e-07
8.3087e-07
9.45917e-06
9.46076e-06
9.46152e-06
9.46064e-06
5.24455e-07
8.31046e-07
8.30858e-07
8.30923e-07
8.30704e-07
9.46058e-06
9.45946e-06
5.29512e-07
5.24431e-07
6.34152e-07
5.24446e-07
5.29522e-07
5.24429e-07
6.3415e-07
6.70971e-07
3.86417e-06
6.70929e-07
3.86442e-06
6.70965e-07
3.86422e-06
6.70901e-07
3.86449e-06
5.29521e-07
5.24444e-07
5.24427e-07
6.34118e-07
5.24428e-07
6.34116e-07
5.29514e-07
5.29519e-07
5.24442e-07
5.24427e-07
6.34151e-07
5.24426e-07
6.34154e-07
5.29514e-07
6.7095e-07
3.86439e-06
3.86422e-06
6.70965e-07
6.70908e-07
3.86446e-06
3.86427e-06
6.70956e-07
9.45928e-06
9.46085e-06
9.45974e-06
9.4613e-06
5.24456e-07
8.30888e-07
8.30948e-07
8.30744e-07
8.30838e-07
9.46067e-06
9.45958e-06
9.46112e-06
9.46003e-06
9.45847e-06
9.46006e-06
9.45997e-06
9.46122e-06
8.3066e-07
8.30771e-07
5.24445e-07
8.30852e-07
8.30966e-07
9.45988e-06
9.4588e-06
9.46107e-06
9.46043e-06
5.24456e-07
8.3084e-07
8.3095e-07
8.30692e-07
8.30829e-07
6.70983e-07
3.86388e-06
6.70997e-07
3.86412e-06
5.29509e-07
6.3411e-07
5.2443e-07
5.24445e-07
5.29521e-07
6.34111e-07
5.24429e-07
5.29512e-07
6.34144e-07
5.24432e-07
5.24445e-07
5.29526e-07
6.34161e-07
5.2443e-07
6.70992e-07
3.86398e-06
3.86385e-06
6.70995e-07
6.70981e-07
3.8641e-06
3.86394e-06
6.70995e-07
5.29523e-07
5.24442e-07
6.34104e-07
5.24427e-07
6.34114e-07
5.24426e-07
5.29513e-07
5.29524e-07
5.24442e-07
6.34161e-07
5.24427e-07
6.34192e-07
5.24426e-07
5.29515e-07
8.30773e-07
8.3089e-07
5.24446e-07
8.30991e-07
8.30933e-07
9.45879e-06
9.46015e-06
9.46045e-06
9.45954e-06
5.24456e-07
8.30986e-07
8.3089e-07
8.30836e-07
8.30783e-07
9.46e-06
9.459e-06
5.29507e-07
6.34183e-07
5.2443e-07
5.24445e-07
5.29519e-07
6.34167e-07
5.24429e-07
6.70965e-07
3.86438e-06
6.70906e-07
3.86463e-06
5.2951e-07
5.24431e-07
6.34199e-07
5.24445e-07
5.29522e-07
5.24429e-07
6.34189e-07
6.70892e-07
3.86441e-06
3.86426e-06
6.70955e-07
5.29518e-07
5.24442e-07
6.34164e-07
5.24427e-07
6.3418e-07
5.24426e-07
5.29511e-07
6.70908e-07
3.8646e-06
3.86444e-06
6.70959e-07
5.2952e-07
5.24442e-07
5.24427e-07
6.34184e-07
5.24426e-07
6.34202e-07
5.29512e-07
6.70991e-07
3.86395e-06
6.70957e-07
3.86418e-06
5.29513e-07
5.2443e-07
6.34125e-07
5.24445e-07
5.29523e-07
5.24429e-07
6.34122e-07
6.70987e-07
3.86412e-06
6.71e-07
3.86438e-06
5.29521e-07
5.24444e-07
6.3413e-07
5.24427e-07
6.34158e-07
5.24428e-07
5.29515e-07
6.70992e-07
3.86415e-06
3.864e-06
6.70997e-07
5.2952e-07
5.24442e-07
5.24427e-07
6.34123e-07
5.24426e-07
6.34127e-07
5.29516e-07
6.70985e-07
3.86435e-06
3.86417e-06
6.70997e-07
8.30928e-07
8.30672e-07
5.24446e-07
8.31083e-07
8.3087e-07
9.45917e-06
9.46076e-06
9.46152e-06
9.46064e-06
5.24456e-07
8.31046e-07
8.30858e-07
8.30923e-07
8.30704e-07
9.46058e-06
9.45946e-06
5.29512e-07
5.24431e-07
6.34154e-07
5.24446e-07
5.29522e-07
5.24429e-07
6.34149e-07
6.70971e-07
3.86417e-06
6.70929e-07
3.86442e-06
6.70965e-07
3.86422e-06
6.70901e-07
3.86449e-06
5.29521e-07
5.24444e-07
5.24427e-07
6.34118e-07
5.24428e-07
6.34116e-07
5.29514e-07
5.29519e-07
5.24442e-07
5.24427e-07
6.34151e-07
5.24426e-07
6.34153e-07
5.29514e-07
6.7095e-07
3.86439e-06
3.86422e-06
6.70965e-07
6.70907e-07
3.86446e-06
3.86427e-06
6.70957e-07
9.45928e-06
9.46085e-06
9.45974e-06
9.4613e-06
5.24456e-07
8.30888e-07
8.30951e-07
8.30744e-07
8.30836e-07
9.46067e-06
9.45958e-06
9.46112e-06
9.46003e-06
9.45852e-06
9.46024e-06
9.45997e-06
9.46122e-06
8.30659e-07
8.30771e-07
5.24445e-07
8.30855e-07
8.30966e-07
9.46008e-06
9.45946e-06
9.46107e-06
9.46043e-06
5.24456e-07