/*--------------------------------*- C++ -*----------------------------------*\
| =========                 |                                                 |
| \\      /  F ield         | OpenFOAM: The Open Source CFD Toolbox           |
|  \\    /   O peration     | Version:  2206                                  |
|   \\  /    A nd           | Website:  www.openfoam.com                      |
|    \\/     M anipulation  |                                                 |
\*---------------------------------------------------------------------------*/
FoamFile
{
    version     2.0;
    format      ascii;
    arch        "LSB;label=32;scalar=64";
    class       volVectorField;
    location    "22.5";
    object      U;
}
// * * * * * * * * * * * * * * * * * * * * * * * * * * * * * * * * * * * * * //

dimensions      [0 1 -1 0 0 0 0];

internalField   nonuniform List<vector> 
28687
(
(-6.38197e-07 -6.37925e-07 0.102588)
(-4.37829e-07 6.55992e-07 0.102549)
(6.55971e-07 -4.31239e-07 0.102549)
(-4.20969e-05 -4.21141e-05 0.102491)
(-6.47138e-07 -6.48884e-07 0.102588)
(-4.18416e-07 6.43016e-07 0.102549)
(6.46513e-07 -4.12851e-07 0.102549)
(-4.20883e-05 -4.2105e-05 0.102491)
(-6.63994e-07 -6.60097e-07 0.102588)
(-3.77279e-07 6.2413e-07 0.102549)
(6.31804e-07 -3.85315e-07 0.102549)
(-4.20673e-05 -4.20836e-05 0.10249)
(-6.71117e-07 -6.6008e-07 0.102588)
(-3.42468e-07 5.93889e-07 0.102549)
(6.231e-07 -3.73896e-07 0.102549)
(-4.20829e-05 -4.20928e-05 0.10249)
(-5.94729e-07 -5.74799e-07 0.102588)
(-5.49074e-07 7.71894e-07 0.102548)
(7.39447e-07 -5.33245e-07 0.102548)
(-4.21765e-05 -4.21787e-05 0.10249)
(-6.14293e-07 -6.14898e-07 0.102588)
(-4.45958e-07 6.39262e-07 0.102549)
(6.48739e-07 -4.56208e-07 0.102549)
(-4.21388e-05 -4.21614e-05 0.102491)
(-6.42695e-07 -6.30107e-07 0.102588)
(-4.2626e-07 6.70296e-07 0.102549)
(6.4756e-07 -4.2386e-07 0.102549)
(-4.21066e-05 -4.21217e-05 0.102491)
(-6.32177e-07 -6.27704e-07 0.102588)
(-4.26317e-07 6.47353e-07 0.102549)
(6.54096e-07 -4.26813e-07 0.102549)
(-4.2114e-05 -4.2127e-05 0.102491)
(-6.2804e-07 -6.30432e-07 0.102588)
(-4.32682e-07 6.60132e-07 0.102549)
(6.54809e-07 -4.29524e-07 0.102549)
(-4.21129e-05 -4.21287e-05 0.102491)
(-6.37426e-07 -6.36692e-07 0.102588)
(-4.29784e-07 6.54794e-07 0.102549)
(6.53288e-07 -4.29001e-07 0.102549)
(-4.21124e-05 -4.21282e-05 0.102491)
(-6.39089e-07 -6.36497e-07 0.102588)
(-4.27895e-07 6.54034e-07 0.102549)
(6.52984e-07 -4.29834e-07 0.102549)
(-4.2112e-05 -4.21286e-05 0.102491)
(-6.40185e-07 -6.36662e-07 0.102588)
(-4.27253e-07 6.53989e-07 0.102549)
(6.52679e-07 -4.29832e-07 0.102549)
(-4.21119e-05 -4.21284e-05 0.102491)
(-6.4088e-07 -6.3671e-07 0.102588)
(-4.2772e-07 6.5401e-07 0.102549)
(6.52753e-07 -4.3029e-07 0.102549)
(-4.21127e-05 -4.21289e-05 0.102491)
(-6.40398e-07 -6.36044e-07 0.102588)
(-4.28216e-07 6.54546e-07 0.102549)
(6.5332e-07 -4.30832e-07 0.102549)
(-4.21136e-05 -4.21297e-05 0.102491)
(-6.39878e-07 -6.3548e-07 0.102588)
(-4.28118e-07 6.54486e-07 0.102549)
(6.53796e-07 -4.3119e-07 0.102549)
(-4.21135e-05 -4.21295e-05 0.102491)
(-6.3978e-07 -6.3493e-07 0.102588)
(-4.28484e-07 6.54915e-07 0.102549)
(6.53758e-07 -4.31287e-07 0.102549)
(-4.21132e-05 -4.21288e-05 0.102491)
(-6.39912e-07 -6.34973e-07 0.102588)
(-4.2752e-07 6.54236e-07 0.102549)
(6.53476e-07 -4.3121e-07 0.102549)
(-4.2111e-05 -4.21267e-05 0.102491)
(-6.39754e-07 -6.3489e-07 0.102588)
(-4.26234e-07 6.53654e-07 0.102549)
(6.53494e-07 -4.30429e-07 0.102549)
(-4.21031e-05 -4.2119e-05 0.102491)
(-6.80019e-07 4.58662e-07 0.102549)
(4.39226e-05 -4.38946e-05 0.102493)
(-4.35052e-07 6.57166e-07 0.102549)
(4.21032e-05 4.20827e-05 0.102491)
(-4.39236e-05 -4.39025e-05 0.102493)
(6.78595e-07 4.46581e-07 0.102549)
(-6.7955e-07 4.6389e-07 0.102549)
(6.73067e-07 4.31639e-07 0.102549)
(-6.66364e-07 4.44027e-07 0.102549)
(-4.21066e-05 4.20783e-05 0.102491)
(4.39277e-05 -4.39066e-05 0.102493)
(4.32743e-07 6.61311e-07 0.102549)
(4.49656e-07 -6.78021e-07 0.102549)
(4.20793e-07 6.53162e-07 0.102549)
(4.38936e-07 -6.71709e-07 0.102549)
(-4.48696e-07 -6.73525e-07 0.102549)
(-4.23751e-07 6.44235e-07 0.102549)
(-4.40427e-07 -6.69186e-07 0.102549)
(4.20856e-05 -4.2118e-05 0.102491)
(-4.38991e-05 4.39317e-05 0.102493)
(-6.52952e-07 -4.30432e-07 0.102549)
(6.49833e-07 -4.18807e-07 0.102549)
(-6.48033e-07 -4.22512e-07 0.102549)
(4.39014e-05 4.39195e-05 0.102493)
(4.20949e-05 4.20762e-05 0.102491)
(-4.39424e-05 -4.39232e-05 0.102493)
(6.71022e-07 4.289e-07 0.102549)
(-6.65989e-07 4.42714e-07 0.102549)
(6.65058e-07 4.1734e-07 0.102549)
(-6.56593e-07 4.14074e-07 0.102549)
(-4.20948e-05 4.2062e-05 0.102491)
(4.39518e-05 -4.39253e-05 0.102493)
(4.15527e-07 6.53721e-07 0.102549)
(4.3049e-07 -6.68578e-07 0.102549)
(4.0475e-07 6.48944e-07 0.102549)
(4.2394e-07 -6.65145e-07 0.102549)
(-4.30854e-07 -6.64397e-07 0.102549)
(-3.95826e-07 6.36255e-07 0.102549)
(-4.21884e-07 -6.61451e-07 0.102549)
(4.20751e-05 -4.21098e-05 0.102491)
(-4.39195e-05 4.39546e-05 0.102493)
(-6.43402e-07 -4.12726e-07 0.102549)
(6.43471e-07 -4.02047e-07 0.102549)
(-6.41288e-07 -4.0371e-07 0.102549)
(4.3925e-05 4.39429e-05 0.102493)
(4.20749e-05 4.20594e-05 0.10249)
(-4.39569e-05 -4.393e-05 0.102493)
(6.52607e-07 4.04627e-07 0.102549)
(-6.457e-07 4.03273e-07 0.102549)
(6.72537e-07 4.31399e-07 0.102548)
(-6.64062e-07 4.126e-07 0.102548)
(-4.20769e-05 4.20517e-05 0.10249)
(4.39566e-05 -4.39087e-05 0.102493)
(3.88355e-07 6.37547e-07 0.102549)
(4.04694e-07 -6.53093e-07 0.102549)
(4.14648e-07 6.65241e-07 0.102549)
(4.33586e-07 -6.77441e-07 0.102548)
(-4.0252e-07 -6.49383e-07 0.102549)
(-3.93324e-07 6.46051e-07 0.102549)
(-4.34981e-07 -6.7208e-07 0.102548)
(4.20562e-05 -4.20884e-05 0.10249)
(-4.39294e-05 4.39645e-05 0.102493)
(-6.29713e-07 -3.83269e-07 0.102549)
(6.56154e-07 -4.13321e-07 0.102549)
(-6.57836e-07 -4.11189e-07 0.102549)
(4.39311e-05 4.39554e-05 0.102493)
(4.20826e-05 4.20748e-05 0.10249)
(-4.39524e-05 -4.39126e-05 0.102492)
(6.39995e-07 3.95633e-07 0.102548)
(-6.15526e-07 3.60936e-07 0.102548)
(6.7978e-07 4.69433e-07 0.102548)
(-7.77525e-07 5.36931e-07 0.102548)
(-4.20652e-05 4.20588e-05 0.10249)
(4.38466e-05 -4.37974e-05 0.102492)
(3.74563e-07 6.33689e-07 0.102549)
(3.91457e-07 -6.43898e-07 0.102548)
(4.33101e-07 6.929e-07 0.102548)
(4.58777e-07 -6.98692e-07 0.102548)
(-3.92866e-07 -6.38653e-07 0.102548)
(-4.86978e-07 7.65812e-07 0.102548)
(-4.68684e-07 -6.81716e-07 0.102548)
(4.20685e-05 -4.21004e-05 0.10249)
(-4.39176e-05 4.39546e-05 0.102492)
(-6.25747e-07 -3.6854e-07 0.102549)
(6.77563e-07 -4.36969e-07 0.102548)
(-6.84593e-07 -4.30691e-07 0.102548)
(4.39157e-05 4.39507e-05 0.102492)
(4.21686e-05 4.21684e-05 0.10249)
(-4.38796e-05 -4.38662e-05 0.102493)
(7.44821e-07 5.6319e-07 0.102548)
(-7.87312e-07 5.75063e-07 0.102548)
(7.00284e-07 5.05501e-07 0.102549)
(-6.65539e-07 4.86272e-07 0.102549)
(-4.2258e-05 4.22552e-05 0.10249)
(4.39275e-05 -4.39182e-05 0.102493)
(5.31486e-07 7.51543e-07 0.102548)
(5.5201e-07 -7.59971e-07 0.102548)
(4.9854e-07 6.76035e-07 0.102549)
(5.16784e-07 -6.92896e-07 0.102549)
(-5.57704e-07 -7.44688e-07 0.102548)
(-4.76259e-07 6.40448e-07 0.102549)
(-5.0992e-07 -6.94699e-07 0.102549)
(4.2159e-05 -4.21911e-05 0.10249)
(-4.38596e-05 4.38979e-05 0.102493)
(-7.43249e-07 -5.25128e-07 0.102548)
(6.71918e-07 -4.93139e-07 0.102549)
(-6.68541e-07 -4.94303e-07 0.102549)
(4.387e-05 4.38821e-05 0.102493)
(4.21546e-05 4.21302e-05 0.102491)
(-4.39471e-05 -4.39128e-05 0.102493)
(6.73288e-07 4.72345e-07 0.102549)
(-6.59455e-07 4.65324e-07 0.102549)
(6.66028e-07 4.48573e-07 0.102549)
(-6.75875e-07 4.59613e-07 0.102549)
(-4.21253e-05 4.20935e-05 0.102491)
(4.39501e-05 -4.39036e-05 0.102493)
(4.61766e-07 6.53291e-07 0.102549)
(4.76039e-07 -6.68796e-07 0.102549)
(4.24634e-07 6.56099e-07 0.102549)
(4.42625e-07 -6.61107e-07 0.102549)
(-4.69109e-07 -6.70634e-07 0.102549)
(-4.2409e-07 6.63304e-07 0.102549)
(-4.41761e-07 -6.6049e-07 0.102549)
(4.21333e-05 -4.21618e-05 0.102491)
(-4.39236e-05 4.39598e-05 0.102493)
(-6.44092e-07 -4.54035e-07 0.102549)
(6.42406e-07 -4.20527e-07 0.102549)
(-6.41247e-07 -4.20973e-07 0.102549)
(4.39271e-05 4.39458e-05 0.102493)
(4.21147e-05 4.21132e-05 0.102491)
(-4.39426e-05 -4.39049e-05 0.102493)
(6.71032e-07 4.61393e-07 0.102549)
(-6.80923e-07 4.66297e-07 0.102549)
(6.75447e-07 4.49764e-07 0.102549)
(-6.72889e-07 4.57292e-07 0.102549)
(-4.21182e-05 4.21136e-05 0.102491)
(4.39499e-05 -4.39131e-05 0.102493)
(4.28383e-07 6.64535e-07 0.102549)
(4.44446e-07 -6.65372e-07 0.102549)
(4.29001e-07 6.65507e-07 0.102549)
(4.47739e-07 -6.69561e-07 0.102549)
(-4.43815e-07 -6.62481e-07 0.102549)
(-4.2688e-07 6.57712e-07 0.102549)
(-4.52798e-07 -6.6732e-07 0.102549)
(4.20948e-05 -4.21251e-05 0.102491)
(-4.39153e-05 4.39528e-05 0.102493)
(-6.44997e-07 -4.22293e-07 0.102549)
(6.521e-07 -4.23412e-07 0.102549)
(-6.49382e-07 -4.32009e-07 0.102549)
(4.39177e-05 4.39399e-05 0.102493)
(4.21229e-05 4.21119e-05 0.102491)
(-4.39463e-05 -4.39076e-05 0.102493)
(6.77254e-07 4.51026e-07 0.102549)
(-6.62757e-07 4.46833e-07 0.102549)
(6.79664e-07 4.60892e-07 0.102549)
(-6.77298e-07 4.58526e-07 0.102549)
(-4.21056e-05 4.20878e-05 0.102491)
(4.39377e-05 -4.39162e-05 0.102493)
(4.33641e-07 6.63478e-07 0.102549)
(4.48586e-07 -6.71658e-07 0.102549)
(4.35852e-07 6.57596e-07 0.102549)
(4.4921e-07 -6.72324e-07 0.102549)
(-4.52329e-07 -6.68267e-07 0.102549)
(-4.32208e-07 6.58384e-07 0.102549)
(-4.4752e-07 -6.70754e-07 0.102549)
(4.21018e-05 -4.21314e-05 0.102491)
(-4.39138e-05 4.39503e-05 0.102493)
(-6.4946e-07 -4.329e-07 0.102549)
(6.53752e-07 -4.26089e-07 0.102549)
(-6.50672e-07 -4.28458e-07 0.102549)
(4.39182e-05 4.39371e-05 0.102493)
(4.21201e-05 4.21062e-05 0.102491)
(-4.39447e-05 -4.39104e-05 0.102493)
(6.81388e-07 4.58171e-07 0.102549)
(-6.7591e-07 4.51147e-07 0.102549)
(6.73537e-07 4.47811e-07 0.102549)
(-6.74629e-07 4.49776e-07 0.102549)
(-4.21221e-05 4.20951e-05 0.102491)
(4.39487e-05 -4.39178e-05 0.102493)
(4.38031e-07 6.58543e-07 0.102549)
(4.49769e-07 -6.73567e-07 0.102549)
(4.30649e-07 6.57525e-07 0.102549)
(4.48061e-07 -6.72917e-07 0.102549)
(-4.46314e-07 -6.70315e-07 0.102549)
(-4.28548e-07 6.54031e-07 0.102549)
(-4.4711e-07 -6.69834e-07 0.102549)
(4.2102e-05 -4.21326e-05 0.102491)
(-4.39147e-05 4.39501e-05 0.102493)
(-6.50903e-07 -4.27111e-07 0.102549)
(6.52405e-07 -4.26338e-07 0.102549)
(-6.50829e-07 -4.273e-07 0.102549)
(4.39187e-05 4.39377e-05 0.102493)
(4.2123e-05 4.20997e-05 0.102491)
(-4.39445e-05 -4.39132e-05 0.102493)
(6.73497e-07 4.44124e-07 0.102549)
(-6.7748e-07 4.50597e-07 0.102549)
(6.73736e-07 4.45762e-07 0.102549)
(-6.77959e-07 4.5083e-07 0.102549)
(-4.21136e-05 4.20951e-05 0.102491)
(4.3945e-05 -4.39185e-05 0.102493)
(4.31571e-07 6.57034e-07 0.102549)
(4.48021e-07 -6.7415e-07 0.102549)
(4.28321e-07 6.55039e-07 0.102549)
(4.47577e-07 -6.73328e-07 0.102549)
(-4.45699e-07 -6.69846e-07 0.102549)
(-4.26929e-07 6.53956e-07 0.102549)
(-4.46662e-07 -6.707e-07 0.102549)
(4.2101e-05 -4.21327e-05 0.102491)
(-4.3915e-05 4.39498e-05 0.102493)
(-6.50828e-07 -4.25938e-07 0.102549)
(6.51839e-07 -4.26796e-07 0.102549)
(-6.51292e-07 -4.26495e-07 0.102549)
(4.39191e-05 4.39372e-05 0.102493)
(4.21237e-05 4.20984e-05 0.102491)
(-4.39445e-05 -4.3913e-05 0.102493)
(6.74531e-07 4.44448e-07 0.102549)
(-6.78468e-07 4.49905e-07 0.102549)
(6.74265e-07 4.46811e-07 0.102549)
(-6.78925e-07 4.51006e-07 0.102549)
(-4.21162e-05 4.2094e-05 0.102491)
(4.39443e-05 -4.39175e-05 0.102493)
(4.31697e-07 6.55887e-07 0.102549)
(4.48068e-07 -6.74378e-07 0.102549)
(4.27759e-07 6.54617e-07 0.102549)
(4.47527e-07 -6.73337e-07 0.102549)
(-4.45896e-07 -6.70561e-07 0.102549)
(-4.26701e-07 6.54247e-07 0.102549)
(-4.46773e-07 -6.70607e-07 0.102549)
(4.21009e-05 -4.2133e-05 0.102491)
(-4.3915e-05 4.39499e-05 0.102493)
(-6.51282e-07 -4.25504e-07 0.102549)
(6.516e-07 -4.27054e-07 0.102549)
(-6.51031e-07 -4.25154e-07 0.102549)
(4.39192e-05 4.39375e-05 0.102493)
(4.21238e-05 4.20985e-05 0.102491)
(-4.39452e-05 -4.3914e-05 0.102493)
(6.74729e-07 4.44158e-07 0.102549)
(-6.79189e-07 4.50193e-07 0.102549)
(6.7364e-07 4.46215e-07 0.102549)
(-6.78997e-07 4.51043e-07 0.102549)
(-4.21168e-05 4.20948e-05 0.102491)
(4.39439e-05 -4.39178e-05 0.102493)
(4.31123e-07 6.55248e-07 0.102549)
(4.47774e-07 -6.74299e-07 0.102549)
(4.27378e-07 6.53524e-07 0.102549)
(4.47262e-07 -6.73336e-07 0.102549)
(-4.45601e-07 -6.7036e-07 0.102549)
(-4.26675e-07 6.53962e-07 0.102549)
(-4.46467e-07 -6.70694e-07 0.102549)
(4.21007e-05 -4.21329e-05 0.102491)
(-4.39153e-05 4.39499e-05 0.102493)
(-6.5111e-07 -4.25764e-07 0.102549)
(6.5128e-07 -4.27154e-07 0.102549)
(-6.51331e-07 -4.27166e-07 0.102549)
(4.39185e-05 4.3937e-05 0.102493)
(4.21233e-05 4.20977e-05 0.102491)
(-4.39447e-05 -4.39133e-05 0.102493)
(6.74323e-07 4.44079e-07 0.102549)
(-6.79622e-07 4.50658e-07 0.102549)
(6.74664e-07 4.47028e-07 0.102549)
(-6.79566e-07 4.51748e-07 0.102549)
(-4.21174e-05 4.20949e-05 0.102491)
(4.39434e-05 -4.39169e-05 0.102493)
(4.31129e-07 6.54396e-07 0.102549)
(4.47917e-07 -6.74648e-07 0.102549)
(4.28292e-07 6.53881e-07 0.102549)
(4.47901e-07 -6.73855e-07 0.102549)
(-4.45607e-07 -6.70569e-07 0.102549)
(-4.27368e-07 6.54584e-07 0.102549)
(-4.47078e-07 -6.71252e-07 0.102549)
(4.21007e-05 -4.21331e-05 0.102491)
(-4.39148e-05 4.39493e-05 0.102493)
(-6.51382e-07 -4.26988e-07 0.102549)
(6.52035e-07 -4.27934e-07 0.102549)
(-6.51934e-07 -4.28506e-07 0.102549)
(4.39179e-05 4.39366e-05 0.102493)
(4.21241e-05 4.20987e-05 0.102491)
(-4.39433e-05 -4.39113e-05 0.102493)
(6.75268e-07 4.44591e-07 0.102549)
(-6.79956e-07 4.51137e-07 0.102549)
(6.75787e-07 4.47746e-07 0.102549)
(-6.79123e-07 4.5188e-07 0.102549)
(-4.21181e-05 4.20959e-05 0.102491)
(4.39425e-05 -4.3916e-05 0.102493)
(4.31901e-07 6.54781e-07 0.102549)
(4.48432e-07 -6.74917e-07 0.102549)
(4.28375e-07 6.54451e-07 0.102549)
(4.4826e-07 -6.73789e-07 0.102549)
(-4.46112e-07 -6.71135e-07 0.102549)
(-4.27144e-07 6.54648e-07 0.102549)
(-4.4665e-07 -6.71078e-07 0.102549)
(4.21014e-05 -4.21337e-05 0.102491)
(-4.39136e-05 4.39486e-05 0.102493)
(-6.51851e-07 -4.28011e-07 0.102549)
(6.52374e-07 -4.28054e-07 0.102549)
(-6.51785e-07 -4.28637e-07 0.102549)
(4.39172e-05 4.3936e-05 0.102493)
(4.21247e-05 4.21003e-05 0.102491)
(-4.3942e-05 -4.39093e-05 0.102493)
(6.76697e-07 4.45983e-07 0.102549)
(-6.79885e-07 4.51591e-07 0.102549)
(6.7611e-07 4.48655e-07 0.102549)
(-6.7939e-07 4.52684e-07 0.102549)
(-4.21166e-05 4.20949e-05 0.102491)
(4.39425e-05 -4.39153e-05 0.102493)
(4.32179e-07 6.55734e-07 0.102549)
(4.48968e-07 -6.74941e-07 0.102549)
(4.28517e-07 6.54971e-07 0.102549)
(4.48668e-07 -6.73934e-07 0.102549)
(-4.45982e-07 -6.70913e-07 0.102549)
(-4.27961e-07 6.55319e-07 0.102549)
(-4.47378e-07 -6.71554e-07 0.102549)
(4.21019e-05 -4.21338e-05 0.102491)
(-4.39121e-05 4.39473e-05 0.102493)
(-6.52059e-07 -4.28394e-07 0.102549)
(6.52612e-07 -4.28453e-07 0.102549)
(-6.52391e-07 -4.29346e-07 0.102549)
(4.39162e-05 4.3934e-05 0.102493)
(4.21233e-05 4.20993e-05 0.102491)
(-4.39425e-05 -4.39096e-05 0.102493)
(6.7666e-07 4.46371e-07 0.102549)
(-6.80165e-07 4.52056e-07 0.102549)
(6.7544e-07 4.47845e-07 0.102549)
(-6.78554e-07 4.51754e-07 0.102549)
(-4.21162e-05 4.20946e-05 0.102491)
(4.39419e-05 -4.3915e-05 0.102493)
(4.32147e-07 6.55922e-07 0.102549)
(4.49047e-07 -6.74891e-07 0.102549)
(4.2745e-07 6.54307e-07 0.102549)
(4.47186e-07 -6.72725e-07 0.102549)
(-4.46326e-07 -6.71345e-07 0.102549)
(-4.27088e-07 6.54751e-07 0.102549)
(-4.46439e-07 -6.70833e-07 0.102549)
(4.21006e-05 -4.21325e-05 0.102491)
(-4.39131e-05 4.39482e-05 0.102493)
(-6.52288e-07 -4.28852e-07 0.102549)
(6.51417e-07 -4.27098e-07 0.102549)
(-6.51624e-07 -4.28329e-07 0.102549)
(4.39157e-05 4.39345e-05 0.102493)
(4.21216e-05 4.20977e-05 0.102491)
(-4.39373e-05 -4.39045e-05 0.102493)
(6.76413e-07 4.46475e-07 0.102549)
(-6.79933e-07 4.51607e-07 0.102549)
(6.74607e-07 4.46678e-07 0.102549)
(-6.77698e-07 4.50843e-07 0.102549)
(-4.21155e-05 4.20935e-05 0.102491)
(4.39386e-05 -4.39117e-05 0.102493)
(4.32071e-07 6.5577e-07 0.102549)
(4.48925e-07 -6.74678e-07 0.102549)
(4.26376e-07 6.53596e-07 0.102549)
(4.46595e-07 -6.72662e-07 0.102549)
(-4.45831e-07 -6.70882e-07 0.102549)
(-4.26814e-07 6.54411e-07 0.102549)
(-4.4599e-07 -6.70228e-07 0.102549)
(4.20985e-05 -4.21304e-05 0.102491)
(-4.39072e-05 4.39421e-05 0.102493)
(-6.52195e-07 -4.28864e-07 0.102549)
(6.51305e-07 -4.26322e-07 0.102549)
(-6.50917e-07 -4.27139e-07 0.102549)
(4.39105e-05 4.39295e-05 0.102493)
(4.21136e-05 4.20898e-05 0.102491)
(6.76321e-07 4.45553e-07 0.102549)
(-6.79903e-07 4.51129e-07 0.102549)
(-4.21095e-05 4.20877e-05 0.102491)
(4.31331e-07 6.55644e-07 0.102549)
(4.48124e-07 -6.74622e-07 0.102549)
(-4.44426e-07 -6.70578e-07 0.102549)
(4.20911e-05 -4.21231e-05 0.102491)
(-6.52059e-07 -4.28271e-07 0.102549)
(6.10953e-08 -8.95044e-06 0.100671)
(7.34283e-07 6.56529e-06 0.0941438)
(-5.66034e-08 8.69002e-06 0.100662)
(-1.09341e-06 -6.46757e-06 0.0941578)
(-1.82559e-06 2.58517e-06 0.0824878)
(1.76263e-06 -2.55146e-06 0.0825023)
(-9.00483e-06 5.02684e-08 0.100671)
(6.51417e-06 6.85899e-07 0.0941429)
(8.75611e-06 -4.53512e-08 0.100662)
(-6.40612e-06 -1.05354e-06 0.0941584)
(6.48172e-07 -6.25099e-07 0.102588)
(-6.33261e-07 6.39116e-07 0.102588)
(6.35766e-07 6.31494e-07 0.102588)
(-6.43263e-07 -6.44362e-07 0.102588)
(6.57708e-07 -6.39396e-07 0.102588)
(-6.39779e-07 6.46155e-07 0.102588)
(6.42948e-07 6.37532e-07 0.102588)
(1.44717e-05 5.15504e-08 0.102174)
(-1.40252e-05 4.02735e-06 0.100971)
(-5.49852e-07 -1.73951e-07 0.102577)
(-4.33079e-07 6.50908e-07 0.102549)
(-1.45733e-05 -6.52109e-08 0.10217)
(1.34566e-05 -4.36533e-06 0.100985)
(-5.46143e-07 -1.76623e-07 0.102577)
(2.53255e-06 -1.80012e-06 0.0824851)
(-2.44039e-06 1.68908e-06 0.0825027)
(6.45849e-08 1.44819e-05 0.102174)
(-1.74911e-07 -5.40528e-07 0.102577)
(4.07284e-06 -1.40878e-05 0.100971)
(6.55083e-07 -4.27425e-07 0.102549)
(-6.72213e-08 -1.45863e-05 0.10217)
(-1.7512e-07 -5.33371e-07 0.102577)
(-4.3927e-06 1.34932e-05 0.100984)
(-4.35221e-06 -5.32962e-06 0.0987621)
(-5.31608e-06 -4.34645e-06 0.0987615)
(4.38958e-05 4.39133e-05 0.102493)
(4.12445e-06 5.15993e-06 0.0987766)
(5.15391e-06 4.11573e-06 0.0987758)
(5.50007e-08 -8.9684e-06 0.100671)
(7.2773e-07 6.50862e-06 0.0941442)
(-5.16834e-08 8.65404e-06 0.100662)
(-1.08733e-06 -6.50733e-06 0.0941581)
(-1.78856e-06 2.52519e-06 0.082488)
(1.76847e-06 -2.61356e-06 0.082503)
(-9.02971e-06 4.36523e-08 0.100671)
(6.45817e-06 6.80655e-07 0.0941432)
(8.71813e-06 -4.47496e-08 0.100662)
(-6.45157e-06 -1.04662e-06 0.0941588)
(6.59341e-07 -6.41032e-07 0.102588)
(-6.44177e-07 6.49847e-07 0.102588)
(6.46527e-07 6.41705e-07 0.102588)
(-6.56691e-07 -6.54611e-07 0.102588)
(6.63224e-07 -6.58158e-07 0.102588)
(-6.50885e-07 6.56932e-07 0.102588)
(6.52763e-07 6.51771e-07 0.102588)
(1.45105e-05 4.90722e-08 0.102173)
(-1.39864e-05 3.99478e-06 0.100971)
(-5.23838e-07 -1.82551e-07 0.102577)
(-4.14758e-07 6.45688e-07 0.102549)
(-1.45268e-05 -6.88048e-08 0.10217)
(1.34908e-05 -4.39821e-06 0.100985)
(-5.16755e-07 -1.81775e-07 0.102577)
(2.43831e-06 -1.75481e-06 0.0824852)
(-2.51184e-06 1.73119e-06 0.0825031)
(6.16321e-08 1.45223e-05 0.102173)
(-1.79906e-07 -5.17066e-07 0.102577)
(4.03687e-06 -1.40406e-05 0.100971)
(6.4527e-07 -4.09986e-07 0.102549)
(-6.84894e-08 -1.45365e-05 0.10217)
(-1.80848e-07 -5.07774e-07 0.102577)
(-4.43084e-06 1.35358e-05 0.100984)
(-4.3607e-06 -5.32508e-06 0.0987622)
(-5.31111e-06 -4.35562e-06 0.0987616)
(4.39093e-05 4.39269e-05 0.102493)
(4.10567e-06 5.17243e-06 0.0987766)
(5.16451e-06 4.09654e-06 0.0987758)
(5.09746e-08 -9.02784e-06 0.100671)
(7.27884e-07 6.47923e-06 0.0941446)
(-6.2082e-08 8.61934e-06 0.100662)
(-1.07085e-06 -6.5259e-06 0.0941587)
(-1.80927e-06 2.48232e-06 0.0824891)
(1.82145e-06 -2.62263e-06 0.0825043)
(-9.08685e-06 4.25877e-08 0.100671)
(6.42939e-06 6.83605e-07 0.0941436)
(8.68358e-06 -4.84741e-08 0.100662)
(-6.47158e-06 -1.02975e-06 0.0941593)
(6.63022e-07 -6.56736e-07 0.102588)
(-6.57519e-07 6.63119e-07 0.102588)
(6.57891e-07 6.58835e-07 0.102588)
(-6.67386e-07 -6.58827e-07 0.102588)
(6.64111e-07 -6.59064e-07 0.102588)
(-6.6164e-07 6.66952e-07 0.102588)
(6.58864e-07 6.63615e-07 0.102588)
(1.45575e-05 4.77363e-08 0.102173)
(-1.39445e-05 3.95838e-06 0.100971)
(-4.80238e-07 -1.84812e-07 0.102577)
(-3.83925e-07 6.40485e-07 0.102549)
(-1.44849e-05 -7.03929e-08 0.10217)
(1.3553e-05 -4.4564e-06 0.100985)
(-4.77535e-07 -1.84834e-07 0.102577)
(2.36928e-06 -1.70276e-06 0.0824862)
(-2.51636e-06 1.71931e-06 0.0825043)
(5.62435e-08 1.45672e-05 0.102173)
(-1.87292e-07 -4.81446e-07 0.102577)
(3.99812e-06 -1.39974e-05 0.100971)
(6.18535e-07 -3.71654e-07 0.102549)
(-7.3795e-08 -1.44986e-05 0.10217)
(-1.87351e-07 -4.65632e-07 0.102577)
(-4.46842e-06 1.35849e-05 0.100984)
(-4.36302e-06 -5.31083e-06 0.0987622)
(-5.29892e-06 -4.35521e-06 0.0987616)
(4.39373e-05 4.39572e-05 0.102493)
(4.11376e-06 5.19194e-06 0.0987766)
(5.18335e-06 4.1086e-06 0.0987758)
(1.32929e-08 -9.02527e-06 0.100671)
(7.40168e-07 6.44382e-06 0.0941452)
(-7.97744e-08 8.55397e-06 0.100662)
(-1.10664e-06 -6.52597e-06 0.0941594)
(-1.83688e-06 2.55949e-06 0.0824906)
(1.91686e-06 -2.71839e-06 0.0825065)
(-9.10145e-06 2.44567e-08 0.10067)
(6.38992e-06 7.05514e-07 0.0941443)
(8.62115e-06 -4.95813e-08 0.100662)
(-6.48054e-06 -1.04201e-06 0.09416)
(6.73327e-07 -6.70913e-07 0.102588)
(-6.64703e-07 6.69609e-07 0.102588)
(6.6003e-07 6.67228e-07 0.102588)
(-6.58871e-07 -6.27551e-07 0.102588)
(5.88823e-07 -5.76051e-07 0.102588)
(-6.4179e-07 6.47391e-07 0.102588)
(6.2985e-07 6.53719e-07 0.102588)
(1.45676e-05 5.36051e-08 0.102173)
(-1.39001e-05 3.95228e-06 0.100971)
(-4.69026e-07 -1.84339e-07 0.102577)
(-3.28044e-07 6.00467e-07 0.102548)
(-1.44437e-05 -6.38678e-08 0.102169)
(1.35968e-05 -4.50963e-06 0.100985)
(-4.40932e-07 -1.86202e-07 0.102577)
(2.37758e-06 -1.78428e-06 0.0824878)
(-2.53607e-06 1.84892e-06 0.0825058)
(4.96168e-08 1.4584e-05 0.102173)
(-1.88315e-07 -4.75861e-07 0.102577)
(3.96894e-06 -1.39655e-05 0.100971)
(5.76985e-07 -3.18942e-07 0.102548)
(-7.80221e-08 -1.44573e-05 0.102169)
(-1.96776e-07 -4.21238e-07 0.102577)
(-4.50356e-06 1.36284e-05 0.100984)
(-4.33103e-06 -5.29694e-06 0.0987622)
(-5.29236e-06 -4.31826e-06 0.0987616)
(4.39951e-05 4.4022e-05 0.102493)
(4.14552e-06 5.2607e-06 0.0987766)
(5.24233e-06 4.14385e-06 0.0987758)
(6.71993e-08 -8.70392e-06 0.100671)
(7.36365e-07 6.50436e-06 0.0941461)
(-1.04668e-07 8.62764e-06 0.100662)
(-9.82629e-07 -6.03114e-06 0.0941599)
(-2.11372e-06 2.74418e-06 0.0824912)
(1.65035e-06 -2.27838e-06 0.0825045)
(-8.76246e-06 6.7428e-08 0.10067)
(6.45007e-06 7.15772e-07 0.0941451)
(8.66865e-06 -1.14142e-08 0.100662)
(-5.99642e-06 -9.6416e-07 0.0941605)
(5.44645e-07 -5.41017e-07 0.102588)
(-5.83736e-07 5.88954e-07 0.102588)
(5.75525e-07 5.90652e-07 0.102588)
(-5.81567e-07 -5.83891e-07 0.102588)
(6.10065e-07 -6.12191e-07 0.102588)
(-5.79147e-07 5.84623e-07 0.102588)
(5.82937e-07 5.78184e-07 0.102588)
(1.40912e-05 9.93199e-08 0.102173)
(-1.41352e-05 4.20029e-06 0.100971)
(-6.53715e-07 -1.12122e-07 0.102577)
(-5.52391e-07 7.19985e-07 0.102549)
(-1.45705e-05 3.44586e-09 0.102169)
(1.31524e-05 -4.15647e-06 0.100985)
(-7.02156e-07 -1.32227e-07 0.102577)
(2.5094e-06 -1.94222e-06 0.0824898)
(-2.17362e-06 1.54051e-06 0.0825059)
(8.50546e-08 1.41075e-05 0.102173)
(-1.58779e-07 -6.36098e-07 0.102576)
(4.03802e-06 -1.408e-05 0.100971)
(7.42753e-07 -5.64225e-07 0.102548)
(-6.31941e-08 -1.45631e-05 0.102169)
(-1.42656e-07 -6.99173e-07 0.102577)
(-4.21245e-06 1.32237e-05 0.100984)
(-4.38762e-06 -5.39778e-06 0.0987624)
(-5.39548e-06 -4.37176e-06 0.0987618)
(4.37554e-05 4.37801e-05 0.102493)
(3.94783e-06 5.0605e-06 0.0987766)
(5.05289e-06 3.94014e-06 0.0987758)
(5.40804e-08 -8.85018e-06 0.100671)
(7.87269e-07 6.93915e-06 0.0941445)
(-4.3905e-08 8.89264e-06 0.100662)
(-1.0473e-06 -6.26854e-06 0.094158)
(-1.71935e-06 2.6039e-06 0.0824872)
(1.77702e-06 -2.4732e-06 0.0825029)
(-8.90708e-06 3.04099e-08 0.100671)
(6.90967e-06 7.43254e-07 0.0941437)
(8.96536e-06 -8.24177e-08 0.100662)
(-6.23141e-06 -1.01326e-06 0.0941585)
(6.3489e-07 -6.3189e-07 0.102588)
(-6.1126e-07 6.16553e-07 0.102588)
(6.14693e-07 6.1108e-07 0.102588)
(-6.4484e-07 -6.33584e-07 0.102588)
(6.44098e-07 -6.32238e-07 0.102588)
(-6.40371e-07 6.47923e-07 0.102588)
(6.4059e-07 6.43695e-07 0.102588)
(1.43911e-05 4.10321e-08 0.102174)
(-1.41916e-05 4.13108e-06 0.100971)
(-5.96509e-07 -1.83235e-07 0.102577)
(-4.29053e-07 6.46313e-07 0.102549)
(-1.48065e-05 -9.20932e-08 0.10217)
(1.33962e-05 -4.32115e-06 0.100985)
(-5.63292e-07 -1.79799e-07 0.102577)
(2.59848e-06 -1.73828e-06 0.0824858)
(-2.39008e-06 1.7324e-06 0.0825029)
(6.17509e-08 1.4394e-05 0.102174)
(-1.65935e-07 -6.03885e-07 0.102577)
(4.25735e-06 -1.42814e-05 0.100971)
(6.38576e-07 -4.30627e-07 0.102549)
(-6.20966e-08 -1.48251e-05 0.10217)
(-1.73718e-07 -5.62201e-07 0.102577)
(-4.33051e-06 1.34186e-05 0.100984)
(-4.39807e-06 -5.31073e-06 0.098762)
(-5.29534e-06 -4.39664e-06 0.0987613)
(4.39318e-05 4.39456e-05 0.102493)
(4.10012e-06 5.1894e-06 0.0987764)
(5.18419e-06 4.09037e-06 0.0987756)
(5.90504e-08 -8.92284e-06 0.100671)
(7.92171e-07 6.61558e-06 0.0941437)
(-5.92945e-08 8.69886e-06 0.100662)
(-9.41811e-07 -6.34769e-06 0.0941578)
(-1.9018e-06 2.6407e-06 0.0824876)
(1.72163e-06 -2.51686e-06 0.082502)
(-8.99287e-06 4.72847e-08 0.100671)
(6.56578e-06 7.14475e-07 0.094143)
(8.754e-06 -4.32786e-08 0.100662)
(-6.36588e-06 -1.02383e-06 0.0941582)
(6.4068e-07 -6.27181e-07 0.102588)
(-6.38775e-07 6.47338e-07 0.102588)
(6.3993e-07 6.42229e-07 0.102588)
(-6.34018e-07 -6.24892e-07 0.102588)
(6.4272e-07 -6.2843e-07 0.102589)
(-6.32814e-07 6.44588e-07 0.102588)
(6.4166e-07 6.32151e-07 0.102588)
(1.44519e-05 6.2627e-08 0.102174)
(-1.40281e-05 4.04059e-06 0.100971)
(-5.41759e-07 -1.65937e-07 0.102577)
(-4.26506e-07 6.70129e-07 0.102549)
(-1.45808e-05 -5.71577e-08 0.10217)
(1.34506e-05 -4.34319e-06 0.100985)
(-5.39885e-07 -1.64827e-07 0.102577)
(2.46934e-06 -1.74579e-06 0.0824851)
(-2.44246e-06 1.70942e-06 0.0825027)
(6.32798e-08 1.44637e-05 0.102174)
(-1.76683e-07 -5.37395e-07 0.102577)
(4.06127e-06 -1.40838e-05 0.100971)
(6.49341e-07 -4.21622e-07 0.102549)
(-6.90744e-08 -1.45939e-05 0.10217)
(-1.75955e-07 -5.30735e-07 0.102577)
(-4.39905e-06 1.34915e-05 0.100984)
(-4.36955e-06 -5.31885e-06 0.0987621)
(-5.30819e-06 -4.36187e-06 0.0987615)
(4.39209e-05 4.39423e-05 0.102493)
(4.10214e-06 5.1778e-06 0.0987765)
(5.1675e-06 4.09571e-06 0.0987757)
(6.39439e-08 -8.93192e-06 0.100671)
(7.44536e-07 6.56711e-06 0.0941437)
(-5.61834e-08 8.69127e-06 0.100662)
(-1.02865e-06 -6.37146e-06 0.094158)
(-1.77268e-06 2.57062e-06 0.0824877)
(1.89352e-06 -2.61481e-06 0.0825019)
(-8.99286e-06 4.37644e-08 0.100671)
(6.56855e-06 7.17451e-07 0.0941431)
(8.74704e-06 -4.46612e-08 0.100662)
(-6.38332e-06 -1.03636e-06 0.094158)
(6.45366e-07 -6.34765e-07 0.102589)
(-6.31839e-07 6.4326e-07 0.102588)
(6.42117e-07 6.29788e-07 0.102588)
(-6.27519e-07 -6.27986e-07 0.102589)
(6.43934e-07 -6.37841e-07 0.102588)
(-6.31124e-07 6.39839e-07 0.102588)
(6.35732e-07 6.32273e-07 0.102588)
(1.44477e-05 5.26505e-08 0.102174)
(-1.40319e-05 4.02111e-06 0.100971)
(-5.41258e-07 -1.74026e-07 0.102577)
(-4.26608e-07 6.43336e-07 0.102549)
(-1.45845e-05 -6.30546e-08 0.10217)
(1.34403e-05 -4.36989e-06 0.100985)
(-5.39234e-07 -1.77787e-07 0.102577)
(2.46512e-06 -1.75306e-06 0.0824851)
(-2.4429e-06 1.70693e-06 0.0825028)
(6.32545e-08 1.44602e-05 0.102174)
(-1.75524e-07 -5.39941e-07 0.102577)
(4.06437e-06 -1.40803e-05 0.100971)
(6.53604e-07 -4.24175e-07 0.102549)
(-6.83042e-08 -1.45947e-05 0.10217)
(-1.75432e-07 -5.35011e-07 0.102577)
(-4.3958e-06 1.34907e-05 0.100984)
(-4.36884e-06 -5.32219e-06 0.0987621)
(-5.31115e-06 -4.36192e-06 0.0987615)
(4.39181e-05 4.39385e-05 0.102493)
(4.1031e-06 5.17558e-06 0.0987765)
(5.16765e-06 4.09533e-06 0.0987757)
(6.19682e-08 -8.93239e-06 0.100671)
(8.05386e-07 6.59568e-06 0.0941435)
(-4.94104e-08 8.69253e-06 0.100662)
(-1.03127e-06 -6.33003e-06 0.0941582)
(-1.77352e-06 2.39999e-06 0.0824878)
(1.75693e-06 -2.64004e-06 0.0825021)
(-8.9926e-06 3.97514e-08 0.100671)
(6.59782e-06 7.1966e-07 0.0941434)
(8.74727e-06 -4.87748e-08 0.100662)
(-6.3968e-06 -1.04589e-06 0.0941578)
(6.39008e-07 -6.34242e-07 0.102588)
(-6.3194e-07 6.38748e-07 0.102588)
(6.34726e-07 6.32778e-07 0.102588)
(-6.36978e-07 -6.34334e-07 0.102588)
(6.39337e-07 -6.3343e-07 0.102588)
(-6.33678e-07 6.39238e-07 0.102588)
(6.34865e-07 6.33743e-07 0.102588)
(1.44483e-05 5.64581e-08 0.102174)
(-1.40324e-05 4.03425e-06 0.100971)
(-5.43519e-07 -1.74068e-07 0.102577)
(-4.3056e-07 6.56675e-07 0.102549)
(-1.45849e-05 -6.22444e-08 0.10217)
(1.34455e-05 -4.35493e-06 0.100985)
(-5.43049e-07 -1.7328e-07 0.102577)
(2.46489e-06 -1.75425e-06 0.0824851)
(-2.44346e-06 1.70556e-06 0.0825028)
(6.31232e-08 1.44591e-05 0.102174)
(-1.75544e-07 -5.41457e-07 0.102577)
(4.0646e-06 -1.40811e-05 0.100971)
(6.53588e-07 -4.26537e-07 0.102549)
(-6.83886e-08 -1.45964e-05 0.10217)
(-1.75777e-07 -5.3489e-07 0.102577)
(-4.39625e-06 1.34898e-05 0.100984)
(-4.36805e-06 -5.32292e-06 0.0987621)
(-5.31096e-06 -4.36177e-06 0.0987615)
(4.39187e-05 4.39378e-05 0.102493)
(4.1033e-06 5.17565e-06 0.0987765)
(5.16782e-06 4.09596e-06 0.0987757)
(4.80402e-08 -8.9326e-06 0.100671)
(7.39336e-07 6.54678e-06 0.0941433)
(-6.23507e-08 8.68867e-06 0.100662)
(-1.04992e-06 -6.34733e-06 0.0941582)
(-1.83122e-06 2.56653e-06 0.0824879)
(1.76679e-06 -2.5643e-06 0.0825023)
(-8.99259e-06 3.74898e-08 0.100671)
(6.59971e-06 7.20483e-07 0.0941433)
(8.748e-06 -5.04527e-08 0.100662)
(-6.39121e-06 -1.0435e-06 0.094158)
(6.39006e-07 -6.36145e-07 0.102588)
(-6.34145e-07 6.38866e-07 0.102588)
(6.34524e-07 6.34845e-07 0.102588)
(-6.39494e-07 -6.35175e-07 0.102588)
(6.38665e-07 -6.37705e-07 0.102588)
(-6.34436e-07 6.38511e-07 0.102588)
(6.34034e-07 6.35756e-07 0.102588)
(1.44489e-05 5.54202e-08 0.102174)
(-1.40332e-05 4.0271e-06 0.100971)
(-5.40512e-07 -1.75178e-07 0.102577)
(-4.27858e-07 6.54462e-07 0.102549)
(-1.4585e-05 -6.36058e-08 0.10217)
(1.34433e-05 -4.3558e-06 0.100985)
(-5.3847e-07 -1.745e-07 0.102577)
(2.46424e-06 -1.75541e-06 0.0824851)
(-2.44389e-06 1.70485e-06 0.0825028)
(6.25706e-08 1.44594e-05 0.102174)