/*--------------------------------*- C++ -*----------------------------------*\
| =========                 |                                                 |
| \\      /  F ield         | OpenFOAM: The Open Source CFD Toolbox           |
|  \\    /   O peration     | Version:  2206                                  |
|   \\  /    A nd           | Website:  www.openfoam.com                      |
|    \\/     M anipulation  |                                                 |
\*---------------------------------------------------------------------------*/
FoamFile
{
    version     2.0;
    format      ascii;
    arch        "LSB;label=32;scalar=64";
    class       volScalarField;
    location    "6.5";
    object      epsilon;
}
// * * * * * * * * * * * * * * * * * * * * * * * * * * * * * * * * * * * * * //

dimensions      [0 2 -3 0 0 0 0];

internalField   nonuniform List<scalar> 
28448
(
4.54251e-07
4.56989e-07
4.56983e-07
4.61118e-07
4.54154e-07
4.56889e-07
4.56811e-07
4.61001e-07
4.53963e-07
4.56722e-07
4.56721e-07
4.60898e-07
4.53962e-07
4.56721e-07
4.56722e-07
4.60902e-07
4.53961e-07
4.56721e-07
4.56722e-07
4.60901e-07
4.53961e-07
4.56721e-07
4.56722e-07
4.60902e-07
4.53961e-07
4.56721e-07
4.56722e-07
4.60902e-07
4.53961e-07
4.56721e-07
4.56722e-07
4.60902e-07
4.53961e-07
4.56721e-07
4.56722e-07
4.60901e-07
4.53961e-07
4.56721e-07
4.56722e-07
4.60902e-07
4.53961e-07
4.56721e-07
4.56722e-07
4.60902e-07
4.53961e-07
4.56721e-07
4.56722e-07
4.60901e-07
4.53961e-07
4.56721e-07
4.56722e-07
4.60901e-07
4.53961e-07
4.56721e-07
4.56722e-07
4.60902e-07
4.53961e-07
4.56721e-07
4.56722e-07
4.60902e-07
4.53961e-07
4.56721e-07
4.56722e-07
4.60902e-07
4.53961e-07
4.56721e-07
4.56722e-07
4.60901e-07
4.53974e-07
4.5673e-07
4.61073e-07
4.5699e-07
4.5699e-07
4.61071e-07
4.56989e-07
4.5699e-07
4.5699e-07
4.56988e-07
4.61073e-07
4.56985e-07
4.56987e-07
4.61072e-07
4.61124e-07
4.61053e-07
4.56989e-07
4.56989e-07
4.5696e-07
4.5696e-07
4.61123e-07
4.61051e-07
4.56988e-07
4.56988e-07
4.56959e-07
4.56904e-07
4.56987e-07
4.56958e-07
4.56902e-07
4.61122e-07
4.6098e-07
4.56986e-07
4.56897e-07
4.56901e-07
4.6098e-07
4.61084e-07
4.60855e-07
4.56897e-07
4.56897e-07
4.56733e-07
4.56733e-07
4.61081e-07
4.60854e-07
4.56896e-07
4.56819e-07
4.56732e-07
4.56726e-07
4.56817e-07
4.5673e-07
4.56725e-07
4.61004e-07
4.60851e-07
4.56816e-07
4.56723e-07
4.56723e-07
4.60852e-07
4.609e-07
4.60857e-07
4.56728e-07
4.56728e-07
4.56723e-07
4.56723e-07
4.60898e-07
4.60855e-07
4.56727e-07
4.56728e-07
4.56722e-07
4.56725e-07
4.56726e-07
4.56721e-07
4.56724e-07
4.60899e-07
4.60857e-07
4.56725e-07
4.56722e-07
4.56722e-07
4.60855e-07
4.60905e-07
4.60855e-07
4.56727e-07
4.56727e-07
4.56723e-07
4.56724e-07
4.60903e-07
4.60854e-07
4.56726e-07
4.56729e-07
4.56722e-07
4.56726e-07
4.56727e-07
4.56721e-07
4.56724e-07
4.60905e-07
4.60857e-07
4.56726e-07
4.56722e-07
4.56723e-07
4.60855e-07
4.60904e-07
4.60855e-07
4.56726e-07
4.56727e-07
4.56723e-07
4.56724e-07
4.60902e-07
4.60854e-07
4.56725e-07
4.56729e-07
4.56722e-07
4.56726e-07
4.56727e-07
4.56721e-07
4.56724e-07
4.60905e-07
4.60856e-07
4.56726e-07
4.56722e-07
4.56723e-07
4.60855e-07
4.60904e-07
4.60855e-07
4.56726e-07
4.56727e-07
4.56723e-07
4.56724e-07
4.60902e-07
4.60853e-07
4.56725e-07
4.56729e-07
4.56722e-07
4.56726e-07
4.56727e-07
4.56721e-07
4.56724e-07
4.60905e-07
4.60856e-07
4.56726e-07
4.56722e-07
4.56723e-07
4.60855e-07
4.60904e-07
4.60855e-07
4.56726e-07
4.56727e-07
4.56723e-07
4.56724e-07
4.60902e-07
4.60854e-07
4.56725e-07
4.56729e-07
4.56722e-07
4.56726e-07
4.56727e-07
4.56721e-07
4.56724e-07
4.60905e-07
4.60857e-07
4.56726e-07
4.56722e-07
4.56723e-07
4.60855e-07
4.60904e-07
4.60855e-07
4.56726e-07
4.56727e-07
4.56723e-07
4.56724e-07
4.60902e-07
4.60854e-07
4.56725e-07
4.56729e-07
4.56722e-07
4.56726e-07
4.56727e-07
4.56721e-07
4.56724e-07
4.60905e-07
4.60857e-07
4.56726e-07
4.56722e-07
4.56723e-07
4.60855e-07
4.60904e-07
4.60855e-07
4.56726e-07
4.56727e-07
4.56723e-07
4.56724e-07
4.60902e-07
4.60854e-07
4.56725e-07
4.56729e-07
4.56722e-07
4.56726e-07
4.56727e-07
4.56721e-07
4.56724e-07
4.60905e-07
4.60856e-07
4.56726e-07
4.56722e-07
4.56723e-07
4.60855e-07
4.60904e-07
4.60855e-07
4.56726e-07
4.56727e-07
4.56723e-07
4.56724e-07
4.60903e-07
4.60854e-07
4.56725e-07
4.56729e-07
4.56722e-07
4.56726e-07
4.56727e-07
4.56721e-07
4.56724e-07
4.60905e-07
4.60857e-07
4.56726e-07
4.56722e-07
4.56723e-07
4.60855e-07
4.60904e-07
4.60855e-07
4.56726e-07
4.56727e-07
4.56723e-07
4.56724e-07
4.60902e-07
4.60854e-07
4.56725e-07
4.56729e-07
4.56722e-07
4.56726e-07
4.56727e-07
4.56721e-07
4.56724e-07
4.60905e-07
4.60856e-07
4.56726e-07
4.56722e-07
4.56723e-07
4.60855e-07
4.60904e-07
4.60855e-07
4.56726e-07
4.56727e-07
4.56723e-07
4.56724e-07
4.60903e-07
4.60854e-07
4.56725e-07
4.56729e-07
4.56722e-07
4.56726e-07
4.56727e-07
4.56721e-07
4.56724e-07
4.60905e-07
4.60856e-07
4.56726e-07
4.56722e-07
4.56723e-07
4.60855e-07
4.60904e-07
4.60855e-07
4.56726e-07
4.56727e-07
4.56723e-07
4.56724e-07
4.60902e-07
4.60854e-07
4.56725e-07
4.56729e-07
4.56722e-07
4.56726e-07
4.56727e-07
4.56721e-07
4.56724e-07
4.60905e-07
4.60857e-07
4.56726e-07
4.56722e-07
4.56723e-07
4.60855e-07
4.60904e-07
4.60855e-07
4.56726e-07
4.56727e-07
4.56723e-07
4.56724e-07
4.60902e-07
4.60854e-07
4.56725e-07
4.56729e-07
4.56722e-07
4.56726e-07
4.56727e-07
4.56721e-07
4.56724e-07
4.60906e-07
4.60856e-07
4.56726e-07
4.56722e-07
4.56723e-07
4.60855e-07
4.60904e-07
4.60855e-07
4.56726e-07
4.56727e-07
4.56723e-07
4.56724e-07
4.60902e-07
4.60854e-07
4.56725e-07
4.56729e-07
4.56722e-07
4.56726e-07
4.56727e-07
4.56721e-07
4.56724e-07
4.60905e-07
4.60856e-07
4.56726e-07
4.56722e-07
4.56723e-07
4.60855e-07
4.60904e-07
4.60855e-07
4.56726e-07
4.56727e-07
4.56723e-07
4.56724e-07
4.60903e-07
4.60854e-07
4.56725e-07
4.56729e-07
4.56722e-07
4.56726e-07
4.56727e-07
4.56721e-07
4.56724e-07
4.60905e-07
4.60857e-07
4.56726e-07
4.56722e-07
4.56723e-07
4.60855e-07
4.60904e-07
4.60856e-07
4.56726e-07
4.56727e-07
4.56728e-07
4.60902e-07
4.56725e-07
4.56729e-07
4.56722e-07
4.56726e-07
4.56727e-07
4.56729e-07
4.60905e-07
4.60856e-07
4.56726e-07
4.56724e-07
4.56727e-07
4.60858e-07
4.60915e-07
4.56727e-07
4.5673e-07
4.60905e-07
4.54252e-07
4.54254e-07
4.54251e-07
4.54251e-07
1.13914e-06
5.79802e-06
1.13935e-06
5.79759e-06
2.02262e-05
2.02233e-05
1.13903e-06
5.79882e-06
1.13919e-06
5.79838e-06
4.54253e-07
4.5425e-07
4.5425e-07
4.54223e-07
4.54219e-07
4.54156e-07
4.54157e-07
5.46603e-07
9.74019e-07
4.54737e-07
4.56988e-07
5.46655e-07
9.73763e-07
4.54732e-07
2.02281e-05
2.02264e-05
5.46615e-07
4.54737e-07
9.74012e-07
4.56977e-07
5.4667e-07
4.54731e-07
9.73825e-07
1.81728e-06
1.81764e-06
4.61073e-07
1.81716e-06
1.81753e-06
1.14064e-06
5.80209e-06
1.14012e-06
5.80613e-06
2.02447e-05
2.02642e-05
1.14059e-06
5.80295e-06
1.14003e-06
5.80692e-06
4.54149e-07
4.54064e-07
4.54064e-07
4.53974e-07
4.53973e-07
4.53963e-07
4.53963e-07
5.46747e-07
9.7453e-07
4.54567e-07
4.5681e-07
5.46772e-07
9.74765e-07
4.54508e-07
2.02648e-05
2.02672e-05
5.46761e-07
4.54553e-07
9.74895e-07
4.56762e-07
5.4679e-07
4.545e-07
9.74842e-07
1.82025e-06
1.82062e-06
4.60871e-07
1.82022e-06
1.82058e-06
1.14078e-06
5.80637e-06
1.14098e-06
5.80614e-06
2.02647e-05
2.02647e-05
1.14067e-06
5.80719e-06
1.14084e-06
5.80693e-06
4.53967e-07
4.53965e-07
4.53965e-07
4.53963e-07
4.53962e-07
4.53962e-07
4.53962e-07
5.46747e-07
9.75173e-07
4.54456e-07
4.56724e-07
5.46809e-07
9.74905e-07
4.5446e-07
2.02671e-05
2.02664e-05
5.46758e-07
4.54457e-07
9.75114e-07
4.56725e-07
5.46825e-07
4.5446e-07
9.74868e-07
1.8204e-06
1.82075e-06
4.60856e-07
1.82019e-06
1.82055e-06
1.14078e-06
5.80633e-06
1.14098e-06
5.80613e-06
2.02648e-05
2.02648e-05
1.14067e-06
5.80716e-06
1.14084e-06
5.80693e-06
4.53966e-07
4.53966e-07
4.53965e-07
4.53962e-07
4.53962e-07
4.53962e-07
4.53962e-07
5.46748e-07
9.75169e-07
4.54457e-07
4.56724e-07
5.46809e-07
9.74904e-07
4.5446e-07
2.0267e-05
2.02664e-05
5.46761e-07
4.54457e-07
9.75113e-07
4.56725e-07
5.46824e-07
4.5446e-07
9.74868e-07
1.82039e-06
1.82075e-06
4.60856e-07
1.82019e-06
1.82055e-06
1.14078e-06
5.80634e-06
1.14098e-06
5.80613e-06
2.02648e-05
2.02648e-05
1.14067e-06
5.80716e-06
1.14084e-06
5.80693e-06
4.53965e-07
4.53965e-07
4.53965e-07
4.53962e-07
4.53962e-07
4.53962e-07
4.53962e-07
5.46748e-07
9.75169e-07
4.54456e-07
4.56724e-07
5.46808e-07
9.74904e-07
4.5446e-07
2.0267e-05
2.02664e-05
5.4676e-07
4.54457e-07
9.75112e-07
4.56725e-07
5.46822e-07
4.5446e-07
9.74868e-07
1.8204e-06
1.82075e-06
4.60856e-07
1.82019e-06
1.82055e-06
1.14078e-06
5.80634e-06
1.14098e-06
5.80614e-06
2.02647e-05
2.02648e-05
1.14067e-06
5.80716e-06
1.14084e-06
5.80693e-06
4.53965e-07
4.53965e-07
4.53965e-07
4.53962e-07
4.53962e-07
4.53962e-07
4.53962e-07
5.46748e-07
9.75169e-07
4.54457e-07
4.56724e-07
5.46808e-07
9.74904e-07
4.5446e-07
2.0267e-05
2.02664e-05
5.46759e-07
4.54457e-07
9.75112e-07
4.56725e-07
5.46822e-07
4.5446e-07
9.74868e-07
1.82039e-06
1.82075e-06
4.60856e-07
1.82019e-06
1.82055e-06
1.14078e-06
5.80634e-06
1.14098e-06
5.80613e-06
2.02647e-05
2.02648e-05
1.14067e-06
5.80716e-06
1.14084e-06
5.80693e-06
4.53965e-07
4.53965e-07
4.53965e-07
4.53962e-07
4.53962e-07
4.53962e-07
4.53962e-07
5.46749e-07
9.75169e-07
4.54457e-07
4.56724e-07
5.46808e-07
9.74904e-07
4.5446e-07
2.0267e-05
2.02664e-05
5.46763e-07
4.54457e-07
9.75113e-07
4.56725e-07
5.46822e-07
4.5446e-07
9.74869e-07
1.82039e-06
1.82075e-06
4.60856e-07
1.82019e-06
1.82055e-06
1.14078e-06
5.80634e-06
1.14098e-06
5.80613e-06
2.02647e-05
2.02648e-05
1.14067e-06
5.80716e-06
1.14084e-06
5.80693e-06
4.53965e-07
4.53965e-07
4.53965e-07
4.53962e-07
4.53962e-07
4.53962e-07
4.53962e-07
5.46749e-07
9.75169e-07
4.54457e-07
4.56724e-07
5.46808e-07
9.74904e-07
4.5446e-07
2.0267e-05
2.02664e-05
5.4676e-07
4.54457e-07
9.75113e-07
4.56725e-07
5.46819e-07
4.5446e-07
9.74869e-07
1.82039e-06
1.82075e-06
4.60856e-07
1.82019e-06
1.82055e-06
1.14078e-06
5.80634e-06
1.14098e-06
5.80613e-06
2.02647e-05
2.02648e-05
1.14067e-06
5.80716e-06
1.14084e-06
5.80693e-06
4.53965e-07
4.53965e-07
4.53965e-07
4.53962e-07
4.53962e-07
4.53962e-07
4.53962e-07
5.46748e-07
9.75169e-07
4.54457e-07
4.56724e-07
5.46807e-07
9.74904e-07
4.5446e-07
2.0267e-05
2.02664e-05
5.46759e-07
4.54457e-07
9.75113e-07
4.56725e-07
5.46818e-07
4.5446e-07
9.74869e-07
1.82039e-06
1.82075e-06
4.60856e-07
1.82019e-06
1.82055e-06
1.14078e-06
5.80634e-06
1.14098e-06
5.80613e-06
2.02647e-05
2.02648e-05
1.14067e-06
5.80716e-06
1.14084e-06
5.80693e-06
4.53965e-07
4.53965e-07
4.53965e-07
4.53962e-07
4.53962e-07
4.53962e-07
4.53962e-07
5.46748e-07
9.75169e-07
4.54457e-07
4.56724e-07
5.46808e-07
9.74904e-07
4.5446e-07
2.0267e-05
2.02664e-05
5.4677e-07
4.54457e-07
9.75113e-07
4.56725e-07
5.46825e-07
4.5446e-07
9.74869e-07
1.82039e-06
1.82075e-06
4.60856e-07
1.82019e-06
1.82055e-06
1.14078e-06
5.80634e-06
1.14098e-06
5.80613e-06
2.02647e-05
2.02648e-05
1.14067e-06
5.80716e-06
1.14084e-06
5.80693e-06
4.53965e-07
4.53965e-07
4.53965e-07
4.53962e-07
4.53962e-07
4.53962e-07
4.53962e-07
5.46749e-07
9.75169e-07
4.54457e-07
4.56724e-07
5.46808e-07
9.74904e-07
4.5446e-07
2.0267e-05
2.02664e-05
5.46776e-07
4.54457e-07
9.75113e-07
4.56725e-07
5.46835e-07
4.5446e-07
9.74869e-07
1.82039e-06
1.82075e-06
4.60856e-07
1.82019e-06
1.82055e-06
1.14078e-06
5.80634e-06
1.14098e-06
5.80613e-06
2.02647e-05
2.02648e-05
1.14067e-06
5.80716e-06
1.14084e-06
5.80693e-06
4.53965e-07
4.53965e-07
4.53965e-07
4.53962e-07
4.53962e-07
4.53962e-07
4.53962e-07
5.46748e-07
9.75169e-07
4.54457e-07
4.56724e-07
5.46808e-07
9.74904e-07
4.5446e-07
2.0267e-05
2.02664e-05
5.46775e-07
4.54457e-07
9.75113e-07
4.56725e-07
5.46834e-07
4.5446e-07
9.74869e-07
1.82039e-06
1.82075e-06
4.60856e-07
1.82019e-06
1.82055e-06
1.14078e-06
5.80634e-06
1.14098e-06
5.80613e-06
2.02647e-05
2.02648e-05
1.14067e-06
5.80716e-06
1.14084e-06
5.80693e-06
4.53965e-07
4.53965e-07
4.53965e-07
4.53962e-07
4.53962e-07
4.53962e-07
4.53962e-07
5.46749e-07
9.75169e-07
4.54457e-07
4.56724e-07
5.4681e-07
9.74904e-07
4.5446e-07
2.0267e-05
2.02664e-05
5.46774e-07
4.54457e-07
9.75113e-07
4.56725e-07
5.46836e-07
4.5446e-07
9.74869e-07
1.82039e-06
1.82075e-06
4.60856e-07
1.82019e-06
1.82055e-06
1.14077e-06
5.80634e-06
1.14098e-06
5.80613e-06
2.02647e-05
2.02648e-05
1.14067e-06
5.80716e-06
1.14084e-06
5.80693e-06
4.53965e-07
4.53965e-07
4.53965e-07
4.53962e-07
4.53962e-07
4.53962e-07
4.53962e-07
5.46748e-07
9.75169e-07
4.54457e-07
4.56724e-07
5.46808e-07
9.74904e-07
4.5446e-07
2.0267e-05
2.02664e-05
5.46772e-07
4.54457e-07
9.75113e-07
4.56725e-07
5.46833e-07
4.5446e-07
9.74869e-07
1.82039e-06
1.82075e-06
4.60856e-07
1.82019e-06
1.82055e-06
1.14078e-06
5.80634e-06
1.14098e-06
5.80613e-06
2.02647e-05
2.02648e-05
1.14067e-06
5.80716e-06
1.14084e-06
5.80693e-06
4.53965e-07
4.53965e-07
4.53965e-07
4.53962e-07
4.53962e-07
4.53962e-07
4.53962e-07
5.46748e-07
9.75169e-07
4.54457e-07
4.56724e-07
5.46808e-07
9.74904e-07
4.5446e-07
2.0267e-05
2.02664e-05
5.46773e-07
4.54457e-07
9.75113e-07
4.56725e-07
5.46832e-07
4.5446e-07
9.74869e-07
1.82039e-06
1.82075e-06
4.60856e-07
1.82019e-06
1.82055e-06
1.14078e-06
5.80634e-06
1.14098e-06
5.80613e-06
2.02647e-05
2.02647e-05
1.14067e-06
5.80716e-06
1.14084e-06
5.80693e-06
4.53965e-07
4.53966e-07
4.53965e-07
4.53962e-07
4.53962e-07
4.53962e-07
4.53962e-07
5.46749e-07
9.75169e-07
4.54457e-07
4.56724e-07
5.46808e-07
9.74904e-07
4.5446e-07
2.0267e-05
2.02664e-05
5.46773e-07
4.54457e-07
9.75113e-07
4.56725e-07
5.46831e-07
4.54461e-07
9.74869e-07
1.82039e-06
1.82075e-06
4.60856e-07
1.82019e-06
1.82055e-06
1.14078e-06
5.80634e-06
1.14098e-06
5.80613e-06
2.02647e-05
2.02647e-05
1.14067e-06
5.80716e-06
1.14084e-06
5.80693e-06
4.53965e-07
4.53965e-07
4.53965e-07
4.53964e-07
4.53973e-07
4.53962e-07
4.53967e-07
5.46749e-07
9.75169e-07
4.54457e-07
4.56723e-07
5.46807e-07
9.74904e-07
4.5446e-07
2.0267e-05
2.02664e-05
5.46773e-07
4.54457e-07
9.75114e-07
4.56725e-07
5.46832e-07
4.5446e-07
9.74869e-07
1.8204e-06
1.82076e-06
4.60856e-07
1.82019e-06
1.82055e-06
5.80716e-06
1.14084e-06
4.5397e-07
2.0267e-05
9.75089e-07
2.02247e-05
2.02272e-05
1.81686e-06
1.81725e-06
5.79792e-06
1.13915e-06
5.7981e-06
1.13915e-06
9.73736e-07
4.54742e-07
5.4659e-07
9.73799e-07
4.54742e-07
5.4659e-07
2.02267e-05
1.81721e-06
1.81704e-06
2.02233e-05
5.7987e-06
1.13903e-06
9.73891e-07
4.54745e-07
5.46581e-07
1.13935e-06
5.79925e-06
5.79926e-06
1.13915e-06
5.46683e-07
4.5699e-07
4.54741e-07
9.73992e-07
4.54741e-07
9.74445e-07
5.46597e-07
5.46682e-07
9.73762e-07
4.5474e-07
4.54741e-07
5.46595e-07
1.13948e-06
5.79811e-06
1.13923e-06
5.46684e-07
4.56989e-07
4.5474e-07
9.73787e-07
4.54741e-07
9.74211e-07
5.46597e-07
1.13948e-06
5.79876e-06
5.79882e-06
1.13923e-06
2.02284e-05
2.0231e-05
4.6111e-07
1.81778e-06
1.81711e-06
1.81785e-06
1.81707e-06
2.02263e-05
2.0229e-05
5.46699e-07
4.56987e-07
4.5474e-07
9.73779e-07
4.54741e-07
9.742e-07
5.46607e-07
5.46682e-07
4.56988e-07
4.5474e-07
9.73871e-07
4.54741e-07
9.74299e-07
5.46596e-07
1.1395e-06
5.79885e-06
5.79892e-06
1.13925e-06
1.13936e-06
5.79901e-06
5.79908e-06
1.13916e-06
4.6111e-07
1.8171e-06
1.81746e-06
1.81705e-06
1.8174e-06
2.02264e-05
2.02292e-05
2.02277e-05
2.02304e-05
2.02241e-05
2.02224e-05
2.02266e-05
2.02249e-05
1.81701e-06
1.81741e-06
4.6108e-07
1.81698e-06
1.81738e-06
2.02285e-05
2.02224e-05
2.02315e-05
2.02249e-05
4.61127e-07
1.81754e-06
1.81797e-06
1.81701e-06
1.81741e-06
1.13918e-06
5.7981e-06
1.13931e-06
5.79815e-06
5.46593e-07
9.7394e-07
4.54742e-07
4.56986e-07
5.46646e-07
9.7372e-07
4.54739e-07
5.46594e-07
9.74009e-07
4.54741e-07
4.56987e-07
5.46646e-07
9.73799e-07
4.54738e-07
1.13929e-06
5.79928e-06
5.79759e-06
1.13949e-06
1.13931e-06
5.79932e-06
5.79815e-06
1.13947e-06
5.46649e-07
4.56979e-07
9.73994e-07
4.5471e-07
9.73922e-07
4.54731e-07
5.46626e-07
5.46651e-07
4.56979e-07
9.74057e-07
4.54709e-07
9.74007e-07
4.5473e-07
5.46626e-07
1.81738e-06
1.81731e-06
4.61078e-07
1.81731e-06
1.81718e-06
2.02233e-05
2.02217e-05
2.02304e-05
2.02231e-05
4.61125e-07
1.81791e-06
1.81777e-06
1.81737e-06
1.81744e-06
2.02277e-05
2.02216e-05
5.46588e-07
9.74122e-07
4.54745e-07
4.56985e-07
5.46636e-07
9.73887e-07
4.54741e-07
1.13918e-06
5.79925e-06
1.13923e-06
5.79932e-06
5.46604e-07
4.5474e-07
9.74199e-07
4.56983e-07
5.46653e-07
4.54734e-07
9.7404e-07
1.13916e-06
5.80008e-06
5.79838e-06
1.13944e-06
5.46647e-07
4.56978e-07
9.74154e-07
4.54708e-07
9.74116e-07
4.54732e-07
5.46631e-07
1.13936e-06
5.80503e-06
5.79954e-06
1.14003e-06
5.46672e-07
4.56964e-07
4.54656e-07
9.74627e-07
4.54716e-07
9.7435e-07
5.46679e-07
1.13927e-06
5.79812e-06
1.13935e-06
5.7982e-06
5.46605e-07
4.54739e-07
9.7397e-07
4.56981e-07
5.46652e-07
4.54733e-07
9.73832e-07
1.13927e-06
5.79876e-06
1.13935e-06
5.79887e-06
5.4667e-07
4.5698e-07
9.74032e-07
4.54659e-07
9.73997e-07
4.54715e-07
5.46676e-07
1.13952e-06
5.79933e-06
5.79821e-06
1.14015e-06
5.46672e-07
4.56963e-07
4.54649e-07
9.74433e-07
4.54714e-07
9.74121e-07
5.46679e-07
1.13952e-06
5.80464e-06
5.79908e-06
1.14016e-06
1.81801e-06
1.81715e-06
4.61072e-07
1.81784e-06
1.81717e-06
2.02254e-05
2.02252e-05
2.0257e-05
2.02282e-05
4.61116e-07
1.81987e-06
1.81923e-06
1.81831e-06
1.81736e-06
2.02553e-05
2.02264e-05
5.46604e-07
4.54739e-07
9.74058e-07
4.5698e-07
5.46652e-07
4.54733e-07
9.73919e-07
1.13929e-06
5.79885e-06
1.13937e-06
5.79896e-06
1.1392e-06
5.79901e-06
1.13925e-06
5.79914e-06
5.46686e-07
4.56958e-07
4.54646e-07
9.74435e-07
4.5471e-07
9.74114e-07
5.4669e-07
5.46671e-07
4.56962e-07
4.54648e-07
9.74523e-07
4.54713e-07
9.74212e-07
5.46679e-07
1.13955e-06
5.80479e-06
5.79918e-06
1.14018e-06
1.13939e-06
5.80498e-06
5.79937e-06
1.14012e-06
2.02256e-05
2.02255e-05
2.02269e-05
2.02268e-05
4.61117e-07
1.8193e-06
1.81969e-06
1.81739e-06
1.81776e-06
2.0256e-05
2.02268e-05
2.02573e-05
2.02281e-05
2.02419e-05
2.02629e-05
2.02452e-05
2.02655e-05
1.81863e-06
1.81907e-06
4.60911e-07
1.82015e-06
1.82055e-06
2.02631e-05
2.02629e-05
2.02656e-05
2.02654e-05
4.60943e-07
1.82017e-06
1.82057e-06
1.82025e-06
1.82065e-06
1.14066e-06
5.80201e-06
1.14003e-06
5.80637e-06
5.46726e-07
9.74416e-07
4.54643e-07
4.56817e-07
5.46718e-07
9.74729e-07
4.54557e-07
5.46727e-07
9.74483e-07
4.54642e-07
4.56817e-07
5.46717e-07
9.74796e-07
4.54557e-07
1.14088e-06
5.80621e-06
5.80624e-06
1.14078e-06
1.14089e-06
5.80647e-06
5.80651e-06
1.14078e-06
5.46799e-07
4.56761e-07
9.74848e-07
4.54467e-07
9.74988e-07
4.54497e-07
5.46755e-07
5.46799e-07
4.56761e-07
9.74915e-07
4.54467e-07
9.7506e-07
4.54496e-07
5.46755e-07
1.81906e-06
1.81897e-06
4.60909e-07
1.8205e-06
1.82023e-06
2.02415e-05
2.02618e-05
2.02641e-05
2.02641e-05
4.6094e-07
1.82051e-06
1.82045e-06
1.82065e-06
1.82064e-06
2.02621e-05
2.0262e-05
5.4673e-07
9.74618e-07
4.54635e-07
4.56816e-07
5.4672e-07
9.74903e-07
4.54552e-07
1.14068e-06
5.80679e-06
1.14057e-06
5.80742e-06
5.46751e-07
4.54565e-07
9.75083e-07
4.56768e-07
5.46771e-07
4.54507e-07
9.75069e-07
1.14074e-06
5.80702e-06
5.80703e-06
1.14067e-06
5.46798e-07
4.5676e-07
9.75025e-07
4.54466e-07
9.75187e-07
4.54494e-07
5.46753e-07
1.14079e-06
5.80731e-06
5.80734e-06
1.1407e-06
5.4681e-07
4.56736e-07
4.54459e-07
9.75094e-07
4.5447e-07
9.75304e-07
5.46755e-07
1.14078e-06
5.80206e-06
1.14072e-06
5.80637e-06
5.4675e-07
4.54558e-07
9.74855e-07
4.56766e-07
5.4677e-07
4.54502e-07
9.74851e-07
1.14078e-06
5.80634e-06
1.14073e-06
5.80699e-06
5.46806e-07
4.56757e-07
9.74903e-07
4.54459e-07
9.75051e-07
4.54474e-07
5.46753e-07
1.14092e-06
5.8065e-06
5.80651e-06
1.14079e-06
5.46809e-07
4.56734e-07
4.54458e-07
9.74877e-07
4.54468e-07
9.75064e-07
5.46754e-07
1.14092e-06
5.80687e-06
5.80688e-06
1.14079e-06
1.82092e-06
1.82018e-06
4.60872e-07
1.821e-06
1.82023e-06
2.02618e-05
2.02651e-05
2.02665e-05
2.02662e-05
4.60912e-07
1.82095e-06
1.8202e-06
1.82121e-06
1.82028e-06
2.02647e-05
2.02641e-05
5.4675e-07
4.54557e-07
9.74946e-07
4.56765e-07
5.4677e-07
4.54502e-07
9.74936e-07
1.1408e-06
5.80647e-06
1.14075e-06
5.80709e-06
1.1407e-06
5.80664e-06
1.14064e-06
5.80726e-06
5.46825e-07
4.56734e-07
4.54458e-07
9.74868e-07
4.5447e-07
9.75053e-07
5.46765e-07
5.46808e-07
4.56733e-07
4.54458e-07
9.74962e-07
4.54468e-07
9.75153e-07
5.46753e-07
1.14094e-06
5.80697e-06
5.807e-06
1.14081e-06
1.14081e-06
5.80713e-06
5.80716e-06
1.14071e-06
2.02623e-05
2.02654e-05
2.02636e-05
2.02666e-05
4.60912e-07
1.8202e-06
1.82055e-06
1.82026e-06
1.82062e-06
2.02649e-05
2.02643e-05
2.02662e-05
2.02656e-05
2.02625e-05
2.02633e-05
2.0265e-05
2.02658e-05
1.82022e-06
1.82062e-06
4.60851e-07
1.82016e-06
1.82057e-06
2.02629e-05
2.02623e-05
2.02654e-05
2.02648e-05
4.60901e-07
1.82014e-06
1.82055e-06
1.82021e-06
1.82061e-06
1.14077e-06
5.80638e-06
1.14091e-06
5.80642e-06
5.46748e-07
9.75047e-07
4.54461e-07
4.56726e-07
5.4681e-07
9.74854e-07
4.5446e-07
5.46747e-07
9.75117e-07
4.54461e-07
4.56726e-07
5.4681e-07
9.74921e-07
4.5446e-07
1.14091e-06
5.80616e-06
5.806e-06
1.14078e-06
1.14091e-06
5.8064e-06
5.80629e-06
1.14078e-06
5.46803e-07
4.56723e-07
9.7485e-07
4.54457e-07
9.75049e-07
4.54457e-07
5.46749e-07
5.46803e-07
4.56723e-07
9.74918e-07
4.54457e-07
9.7512e-07
4.54457e-07
5.46751e-07
1.82058e-06
1.82067e-06
4.60849e-07
1.82052e-06
1.82041e-06
2.02613e-05
2.02622e-05
2.02641e-05
2.02642e-05
4.60899e-07
1.8205e-06
1.82038e-06
1.8206e-06
1.82064e-06
2.0262e-05
2.02613e-05
5.4674e-07
9.75248e-07
4.54461e-07
4.56725e-07
5.46805e-07
9.7503e-07
4.5446e-07
1.14069e-06
5.80721e-06
1.1408e-06
5.80729e-06
5.46746e-07
4.5446e-07
9.75311e-07
4.56728e-07
5.46807e-07
4.5446e-07
9.75095e-07
1.14078e-06
5.80697e-06
5.8068e-06
1.14067e-06
5.46797e-07
4.56722e-07
9.75027e-07
4.54457e-07
9.75247e-07
4.54457e-07
5.46747e-07
1.1408e-06
5.8073e-06
5.80714e-06
1.1407e-06
5.46803e-07
4.56726e-07
4.54457e-07
9.75095e-07
4.54457e-07
9.75313e-07
5.46752e-07
1.14078e-06
5.80646e-06
1.14092e-06
5.80643e-06
5.46747e-07
4.5446e-07
9.75073e-07
4.56726e-07
5.46806e-07
4.54459e-07
9.74878e-07
1.14078e-06
5.80676e-06
1.14092e-06
5.80687e-06
5.46802e-07
4.56723e-07
9.74904e-07
4.54457e-07
9.75119e-07
4.54459e-07
5.46751e-07
1.14092e-06
5.80642e-06
5.80628e-06
1.14079e-06
5.46803e-07
4.56724e-07
4.54457e-07
9.74877e-07
4.54457e-07
9.75076e-07
5.46754e-07
1.14092e-06
5.80686e-06
5.80671e-06
1.14079e-06
1.82114e-06
1.82026e-06
4.60855e-07
1.82091e-06
1.82021e-06
2.02644e-05
2.02649e-05
2.02663e-05
2.0266e-05
4.60904e-07
1.82096e-06
1.82019e-06
1.82114e-06
1.82026e-06
2.02645e-05
2.02638e-05
5.46745e-07
4.5446e-07
9.7516e-07
4.56725e-07
5.46804e-07
4.5446e-07
9.74963e-07
1.1408e-06
5.80689e-06
1.14094e-06
5.80694e-06
1.1407e-06
5.80703e-06
1.14081e-06
5.80713e-06
5.46819e-07
4.56724e-07
4.54457e-07
9.74867e-07
4.54459e-07
9.75062e-07
5.46762e-07
5.46802e-07
4.56723e-07
4.54457e-07
9.74963e-07
4.54457e-07
9.75163e-07
5.4675e-07
1.14094e-06
5.80693e-06
5.80681e-06
1.14081e-06
1.1408e-06
5.80712e-06
5.80698e-06
1.14071e-06
2.02645e-05
2.02651e-05
2.02658e-05
2.02663e-05
4.60904e-07
1.82019e-06
1.82055e-06
1.82024e-06
1.8206e-06
2.02647e-05
2.0264e-05
2.02659e-05
2.02653e-05
2.02627e-05
2.02633e-05
2.02652e-05
2.02658e-05
1.8202e-06
1.82061e-06
4.60853e-07
1.82016e-06
1.82056e-06
2.02629e-05
2.02623e-05
2.02654e-05
2.02647e-05
4.60902e-07
1.82014e-06
1.82054e-06
1.8202e-06
1.82061e-06
1.14077e-06
5.8063e-06
1.14091e-06
5.80644e-06
5.46752e-07
9.75046e-07
4.54461e-07
4.56727e-07
5.46805e-07
9.74853e-07
4.5446e-07
5.46749e-07
9.75117e-07
4.54461e-07
4.56727e-07
5.46807e-07
9.74922e-07
4.5446e-07
1.14091e-06
5.80616e-06
5.80601e-06
1.14078e-06
1.14091e-06
5.8064e-06
5.80631e-06
1.14078e-06
5.46807e-07
4.56724e-07
9.7485e-07
4.54457e-07
9.75047e-07
4.54458e-07
5.46747e-07
5.46806e-07
4.56724e-07
9.74918e-07
4.54457e-07
9.7512e-07
4.54457e-07
5.4675e-07
1.82058e-06
1.82063e-06
4.60852e-07
1.82052e-06
1.8204e-06
2.02613e-05
2.02622e-05
2.02641e-05
2.02643e-05
4.609e-07
1.8205e-06
1.8204e-06
1.8206e-06
1.82064e-06
2.0262e-05
2.02613e-05
5.46744e-07
9.75246e-07
4.54461e-07
4.56726e-07
5.46801e-07
9.75029e-07
4.54461e-07
1.14069e-06
5.80719e-06
1.1408e-06
5.8073e-06
5.4675e-07
4.5446e-07
9.75312e-07
4.56729e-07
5.46806e-07
4.5446e-07
9.75096e-07
1.14077e-06
5.80697e-06
5.8068e-06
1.14067e-06
5.46801e-07
4.56723e-07
9.75026e-07
4.54457e-07
9.75246e-07
4.54458e-07
5.46744e-07
1.14079e-06
5.8073e-06
5.80715e-06
1.1407e-06
5.46805e-07
4.56727e-07
4.54457e-07
9.75095e-07
4.54458e-07
9.75314e-07
5.4675e-07
1.14078e-06
5.80633e-06
1.14092e-06
5.80643e-06
5.46748e-07
4.5446e-07
9.75073e-07
4.56727e-07
5.46807e-07
4.5446e-07
9.74878e-07
1.14078e-06
5.80672e-06
1.14092e-06
5.80687e-06
5.46803e-07
4.56723e-07
9.74903e-07
4.54457e-07
9.75119e-07
4.54459e-07
5.4675e-07
1.14092e-06
5.80642e-06
5.80628e-06
1.14079e-06
5.46804e-07
4.56725e-07
4.54457e-07
9.74876e-07
4.54458e-07
9.75075e-07
5.46753e-07
1.14092e-06
5.80685e-06
5.80672e-06
1.14079e-06
1.82115e-06
1.82025e-06
4.60854e-07
1.82091e-06
1.8202e-06
2.02643e-05
2.02648e-05
2.02663e-05
2.0266e-05
4.60903e-07
1.82096e-06
1.82019e-06
1.82114e-06
1.82025e-06
2.02645e-05
2.02637e-05
5.46748e-07
4.5446e-07
9.75161e-07
4.56726e-07
5.46804e-07
4.5446e-07
9.74963e-07
1.1408e-06
5.80682e-06
1.14094e-06
5.80697e-06
1.1407e-06
5.80699e-06
1.14081e-06
5.80713e-06
5.4682e-07
4.56724e-07
4.54457e-07
9.74866e-07
4.5446e-07
9.75063e-07
5.4676e-07
5.46803e-07
4.56724e-07
4.54457e-07
9.74961e-07
4.54458e-07
9.75162e-07
5.46749e-07
1.14094e-06
5.80695e-06
5.80684e-06
1.1408e-06
1.1408e-06
5.8071e-06
5.80698e-06
1.14071e-06
2.02645e-05
2.0265e-05
2.02658e-05
2.02663e-05
4.60903e-07
1.82019e-06
1.82055e-06
1.82024e-06
1.8206e-06
2.02647e-05
2.0264e-05
2.02659e-05
2.02653e-05
2.02627e-05
2.02633e-05
2.02652e-05
2.02658e-05
1.8202e-06
1.8206e-06
4.60853e-07
1.82015e-06
1.82056e-06
2.02629e-05
2.02622e-05
2.02654e-05
2.02647e-05
4.60902e-07
1.82014e-06
1.82054e-06
1.8202e-06
1.82061e-06
1.14077e-06
5.8063e-06
1.14091e-06
5.80643e-06
5.46753e-07
9.75046e-07
4.5446e-07
4.56726e-07
5.46803e-07
9.74853e-07
4.5446e-07
5.4675e-07
9.75117e-07
4.5446e-07
4.56727e-07
5.46806e-07
9.74922e-07
4.5446e-07
1.14091e-06
5.80616e-06
5.80601e-06
1.14078e-06
1.14091e-06
5.8064e-06
5.80631e-06
1.14078e-06
5.46807e-07
4.56724e-07
9.7485e-07
4.54457e-07
9.75047e-07
4.54458e-07
5.46746e-07
5.46806e-07
4.56725e-07
9.74917e-07
4.54457e-07
9.7512e-07
4.54457e-07
5.4675e-07
1.82058e-06
1.82063e-06
4.60852e-07
1.82052e-06
1.8204e-06
2.02613e-05
2.02622e-05
2.02641e-05
2.02643e-05
4.609e-07
1.8205e-06
1.8204e-06
1.8206e-06
1.82065e-06
2.02619e-05
2.02614e-05
5.46746e-07
9.75245e-07
4.5446e-07
4.56725e-07
5.46798e-07
9.75028e-07
4.5446e-07
1.14069e-06
5.8072e-06
1.1408e-06
5.80729e-06
5.4675e-07
4.5446e-07
9.75311e-07
4.56729e-07
5.46805e-07
4.5446e-07
9.75096e-07
1.14077e-06
5.80697e-06
5.80679e-06
1.14067e-06
5.46802e-07
4.56723e-07
9.75026e-07
4.54457e-07
9.75246e-07
4.54458e-07
5.46744e-07
1.14079e-06
5.8073e-06
5.80715e-06
1.1407e-06
5.46806e-07
4.56726e-07
4.54457e-07
9.75095e-07
4.54458e-07
9.75314e-07
5.4675e-07
1.14078e-06
5.80633e-06
1.14092e-06
5.80643e-06
5.46748e-07
4.5446e-07
9.75073e-07
4.56727e-07
5.46807e-07
4.5446e-07
9.74878e-07
1.14078e-06
5.80672e-06
1.14092e-06
5.80688e-06
5.46802e-07
4.56723e-07
9.74903e-07
4.54457e-07
9.75119e-07
4.54459e-07
5.46749e-07
1.14092e-06
5.80642e-06
5.80628e-06
1.14079e-06
5.46803e-07
4.56725e-07
4.54457e-07
9.74876e-07
4.54458e-07
9.75075e-07
5.46752e-07
1.14092e-06
5.80685e-06
5.80673e-06
1.14079e-06
1.82115e-06
1.82025e-06
4.60855e-07
1.82091e-06
1.8202e-06
2.02643e-05
2.02648e-05
2.02663e-05
2.02659e-05
4.60903e-07
1.82096e-06
1.82019e-06
1.82114e-06
1.82025e-06
2.02645e-05
2.02637e-05
5.46747e-07
4.5446e-07
9.75159e-07
4.56726e-07
5.46803e-07
4.5446e-07
9.74962e-07
1.14079e-06
5.80687e-06
1.14093e-06
5.80697e-06
1.14069e-06
5.80698e-06
1.1408e-06
5.80714e-06
5.46819e-07
4.56724e-07
4.54457e-07
9.74866e-07
4.5446e-07
9.75063e-07
5.4676e-07
5.46802e-07
4.56724e-07
4.54457e-07
9.7496e-07
4.54458e-07
9.75161e-07
5.46748e-07
1.14093e-06
5.80694e-06
5.80685e-06
1.1408e-06
1.14079e-06
5.80711e-06
5.807e-06
1.14069e-06
2.02645e-05
2.0265e-05
2.02658e-05
2.02663e-05
4.60904e-07
1.82019e-06
1.82054e-06
1.82024e-06
1.82059e-06
2.02647e-05
2.0264e-05
2.02659e-05
2.02652e-05
2.02627e-05
2.02633e-05
2.02652e-05
2.02657e-05
1.8202e-06
1.8206e-06
4.60853e-07
1.82015e-06
1.82056e-06
2.02629e-05
2.02622e-05
2.02654e-05
2.02647e-05
4.60902e-07
1.82014e-06
1.82054e-06
1.8202e-06
1.82061e-06
1.14077e-06
5.80629e-06
1.14091e-06
5.80643e-06
5.46753e-07
9.75046e-07
4.5446e-07
4.56726e-07
5.46803e-07
9.74852e-07
4.5446e-07
5.4675e-07
9.75117e-07
4.5446e-07
4.56727e-07
5.46806e-07
9.74922e-07
4.5446e-07
1.14091e-06
5.80616e-06
5.80601e-06
1.14078e-06
1.14091e-06
5.8064e-06
5.80631e-06
1.14078e-06
5.46807e-07
4.56724e-07
9.7485e-07
4.54457e-07
9.75047e-07
4.54458e-07
5.46746e-07
5.46806e-07
4.56725e-07
9.74917e-07
4.54457e-07
9.7512e-07
4.54457e-07
5.4675e-07
1.82058e-06
1.82063e-06
4.60852e-07
1.82052e-06
1.8204e-06
2.02613e-05
2.02622e-05
2.02641e-05
2.02643e-05
4.609e-07
1.8205e-06
1.8204e-06
1.8206e-06
1.82065e-06
2.02619e-05
2.02613e-05
5.46746e-07
9.75245e-07
4.5446e-07
4.56725e-07
5.46798e-07
9.75028e-07
4.5446e-07
1.14069e-06
5.8072e-06
1.1408e-06
5.80729e-06
5.4675e-07
4.5446e-07
9.75311e-07
4.56728e-07
5.46805e-07
4.5446e-07
9.75096e-07
1.14077e-06
5.80697e-06
5.80679e-06
1.14067e-06
5.46802e-07
4.56723e-07
9.75026e-07
4.54457e-07
9.75245e-07
4.54458e-07
5.46744e-07
1.14079e-06
5.8073e-06
5.80715e-06
1.1407e-06
5.46806e-07
4.56726e-07
4.54457e-07
9.75095e-07
4.54458e-07
9.75314e-07
5.46749e-07
1.14078e-06
5.80633e-06
1.14092e-06
5.80643e-06
5.46749e-07
4.5446e-07
9.75073e-07
4.56727e-07
5.46806e-07
4.5446e-07
9.74878e-07
1.14078e-06
5.80673e-06
1.14092e-06
5.80688e-06
5.46802e-07
4.56723e-07
9.74903e-07
4.54457e-07
9.75119e-07
4.54459e-07
5.46749e-07
1.14092e-06
5.80642e-06
5.80628e-06
1.14079e-06
5.46803e-07
4.56725e-07
4.54457e-07
9.74876e-07
4.54457e-07
9.75075e-07
5.46752e-07
1.14092e-06
5.80685e-06
5.80673e-06
1.14079e-06
1.82115e-06
1.82025e-06
4.60854e-07
1.82091e-06
1.8202e-06
2.02643e-05
2.02648e-05
2.02663e-05
2.0266e-05
4.60902e-07
1.82096e-06
1.82019e-06
1.82114e-06
1.82025e-06
2.02645e-05
2.02637e-05
5.46746e-07
4.5446e-07
9.75159e-07
4.56726e-07
5.46802e-07
4.5446e-07
9.74962e-07
1.14079e-06