/*--------------------------------*- C++ -*----------------------------------*\
| =========                 |                                                 |
| \\      /  F ield         | OpenFOAM: The Open Source CFD Toolbox           |
|  \\    /   O peration     | Version:  2206                                  |
|   \\  /    A nd           | Website:  www.openfoam.com                      |
|    \\/     M anipulation  |                                                 |
\*---------------------------------------------------------------------------*/
FoamFile
{
    version     2.0;
    format      ascii;
    arch        "LSB;label=32;scalar=64";
    class       volScalarField;
    location    "6.5";
    object      p;
}
// * * * * * * * * * * * * * * * * * * * * * * * * * * * * * * * * * * * * * //

dimensions      [0 2 -2 0 0 0 0];

internalField   nonuniform List<scalar> 
171728
(
0.00426521
0.00426536
0.00426536
0.00426831
0.00421199
0.0042121
0.0042121
0.00421422
0.00416618
0.00416613
0.00416613
0.00416877
0.00412088
0.00412085
0.00412085
0.00412348
0.00407561
0.00407559
0.00407559
0.00407821
0.00403035
0.00403032
0.00403032
0.00403295
0.00398508
0.00398506
0.00398506
0.00398769
0.00393982
0.0039398
0.0039398
0.00394242
0.00389456
0.00389454
0.00389454
0.00389716
0.0038493
0.00384928
0.00384928
0.0038519
0.00380404
0.00380402
0.00380402
0.00380664
0.00375878
0.00375876
0.00375876
0.00376138
0.00371352
0.0037135
0.0037135
0.00371612
0.00366826
0.00366824
0.00366824
0.00367086
0.003623
0.00362298
0.00362298
0.0036256
0.00357774
0.00357772
0.00357772
0.00358034
0.00353248
0.00353246
0.00353246
0.00353508
0.00348722
0.0034872
0.0034872
0.00348983
0.00344196
0.00344194
0.00344194
0.00344457
0.0033967
0.00339668
0.00339668
0.00339931
0.00335145
0.00335143
0.00335143
0.00335405
0.00330619
0.00330617
0.00330617
0.0033088
0.00326094
0.00326092
0.00326092
0.00326354
0.00321568
0.00321566
0.00321566
0.00321829
0.00317043
0.00317041
0.00317041
0.00317303
0.00312517
0.00312515
0.00312515
0.00312777
0.00307991
0.00307989
0.00307989
0.00308252
0.00303466
0.00303463
0.00303463
0.00303726
0.0029894
0.00298938
0.00298938
0.002992
0.00294414
0.00294412
0.00294412
0.00294674
0.00289888
0.00289886
0.00289886
0.00290148
0.00285362
0.0028536
0.0028536
0.00285623
0.00280836
0.00280834
0.00280834
0.00281097
0.0027631
0.00276308
0.00276308
0.00276571
0.00271784
0.00271782
0.00271782
0.00272044
0.00267258
0.00267256
0.00267256
0.00267518
0.00262732
0.0026273
0.0026273
0.00262992
0.00258206
0.00258204
0.00258204
0.00258466
0.0025368
0.00253678
0.00253678
0.0025394
0.00249154
0.00249152
0.00249152
0.00249414
0.00244628
0.00244626
0.00244626
0.00244888
0.00240102
0.002401
0.002401
0.00240362
0.00235576
0.00235574
0.00235574
0.00235837
0.00231051
0.00231049
0.00231049
0.00231311
0.00226525
0.00226523
0.00226523
0.00226786
0.00222
0.00221998
0.00221998
0.0022226
0.00217474
0.00217472
0.00217472
0.00217735
0.00212949
0.00212947
0.00212947
0.00213209
0.00208424
0.00208421
0.00208421
0.00208684
0.00203898
0.00203896
0.00203896
0.00204159
0.00199373
0.00199371
0.00199371
0.00199633
0.00194848
0.00194845
0.00194845
0.00195108
0.00190322
0.0019032
0.0019032
0.00190583
0.00185797
0.00185795
0.00185795
0.00186057
0.00181272
0.00181269
0.00181269
0.00181532
0.00176746
0.00176744
0.00176744
0.00177007
0.00172221
0.00172219
0.00172219
0.00172481
0.00167695
0.00167693
0.00167693
0.00167956
0.0016317
0.00163167
0.00163167
0.0016343
0.00158644
0.00158642
0.00158642
0.00158904
0.00154118
0.00154116
0.00154116
0.00154379
0.00149592
0.0014959
0.0014959
0.00149853
0.00145066
0.00145064
0.00145064
0.00145327
0.0014054
0.00140538
0.00140538
0.00140801
0.00136015
0.00136012
0.00136012
0.00136275
0.00131489
0.00131487
0.00131486
0.00131749
0.00126963
0.00126961
0.00126961
0.00127223
0.00122437
0.00122435
0.00122435
0.00122697
0.00117911
0.00117909
0.00117909
0.00118171
0.00113385
0.00113383
0.00113383
0.00113646
0.00108859
0.00108857
0.00108857
0.0010912
0.00104334
0.00104331
0.00104331
0.00104594
0.000998077
0.000998055
0.000998055
0.00100068
0.00095282
0.000952798
0.000952798
0.000955424
0.000907563
0.000907541
0.000907541
0.000910167
0.000862306
0.000862284
0.000862284
0.00086491
0.000817049
0.000817027
0.000817027
0.000819653
0.000771792
0.00077177
0.00077177
0.000774396
0.000726535
0.000726513
0.000726513
0.000729139
0.000681278
0.000681256
0.000681256
0.000683882
0.000636021
0.000635999
0.000635999
0.000638625
0.000590763
0.000590741
0.000590741
0.000593367
0.000545505
0.000545483
0.000545483
0.000548109
0.000500247
0.000500225
0.000500225
0.000502851
0.00045499
0.000454967
0.000454967
0.000457593
0.000409733
0.000409711
0.00040971
0.000412336
0.000364476
0.000364454
0.000364454
0.00036708
0.000319219
0.000319197
0.000319197
0.000321823
0.00027396
0.000273938
0.000273938
0.000276564
0.0002287
0.000228678
0.000228678
0.000231304
0.000183439
0.000183416
0.000183416
0.000186042
0.000138176
0.000138155
0.000138154
0.00014078
9.29283e-05
9.2906e-05
9.2905e-05
9.55091e-05
4.82511e-05
4.76162e-05
4.76142e-05
5.00488e-05
1.11725e-05
1.1643e-05
1.16416e-05
1.12991e-05
0.00427863
0.0042789
0.0042789
0.00427863
0.0042789
0.0042789
0.00427976
0.00427976
0.00427976
0.00427976
0.0042789
0.0042789
0.00427863
0.0042789
0.0042789
0.00427863
0.00426831
0.00422081
0.00426536
0.00426536
0.00422345
0.00422345
0.00426831
0.00422081
0.00426536
0.00426536
0.00422345
0.00422345
0.00426536
0.00422344
0.00422345
0.00426831
0.00422081
0.00426536
0.00422345
0.00422344
0.00422081
0.00421422
0.00417484
0.0042121
0.0042121
0.00417748
0.00417748
0.00421422
0.00417484
0.0042121
0.0042121
0.00417748
0.00417748
0.0042121
0.00417748
0.00417748
0.00421422
0.00417484
0.0042121
0.00417748
0.00417748
0.00417484
0.00416877
0.00412955
0.00416613
0.00416613
0.00413217
0.00413217
0.00416877
0.00412955
0.00416613
0.00416613
0.00413217
0.00413217
0.00416613
0.00413217
0.00413217
0.00416877
0.00412955
0.00416613
0.00413217
0.00413217
0.00412955
0.00412348
0.00408428
0.00412085
0.00412085
0.0040869
0.0040869
0.00412348
0.00408429
0.00412085
0.00412085
0.0040869
0.0040869
0.00412085
0.0040869
0.0040869
0.00412348
0.00408428
0.00412085
0.0040869
0.0040869
0.00408428
0.00407822
0.00403902
0.00407559
0.00407559
0.00404164
0.00404164
0.00407822
0.00403902
0.00407559
0.00407559
0.00404164
0.00404164
0.00407559
0.00404164
0.00404164
0.00407821
0.00403902
0.00407559
0.00404164
0.00404164
0.00403902
0.00403295
0.00399376
0.00403032
0.00403032
0.00399638
0.00399638
0.00403295
0.00399376
0.00403032
0.00403032
0.00399638
0.00399638
0.00403032
0.00399638
0.00399638
0.00403295
0.00399376
0.00403032
0.00399638
0.00399638
0.00399376
0.00398769
0.00394849
0.00398506
0.00398506
0.00395111
0.00395111
0.00398769
0.00394849
0.00398506
0.00398506
0.00395111
0.00395111
0.00398506
0.00395111
0.00395111
0.00398769
0.00394849
0.00398506
0.00395111
0.00395111
0.00394849
0.00394242
0.00390323
0.0039398
0.0039398
0.00390585
0.00390585
0.00394242
0.00390323
0.0039398
0.0039398
0.00390585
0.00390585
0.0039398
0.00390585
0.00390585
0.00394243
0.00390323
0.0039398
0.00390585
0.00390585
0.00390323
0.00389716
0.00385797
0.00389454
0.00389454
0.00386059
0.00386059
0.00389716
0.00385797
0.00389454
0.00389454
0.00386059
0.00386059
0.00389454
0.00386059
0.00386059
0.00389716
0.00385797
0.00389454
0.00386059
0.00386059
0.00385797
0.0038519
0.00381271
0.00384928
0.00384928
0.00381533
0.00381533
0.0038519
0.00381271
0.00384928
0.00384928
0.00381533
0.00381533
0.00384928
0.00381533
0.00381533
0.0038519
0.00381271
0.00384928
0.00381533
0.00381533
0.00381271
0.00380664
0.00376745
0.00380402
0.00380402
0.00377007
0.00377007
0.00380664
0.00376745
0.00380402
0.00380402
0.00377007
0.00377007
0.00380402
0.00377007
0.00377007
0.00380664
0.00376745
0.00380402
0.00377007
0.00377007
0.00376745
0.00376138
0.00372219
0.00375876
0.00375876
0.00372481
0.00372481
0.00376138
0.00372219
0.00375876
0.00375876
0.00372481
0.00372481
0.00375876
0.00372481
0.00372481
0.00376138
0.00372219
0.00375876
0.00372481
0.00372481
0.00372219
0.00371612
0.00367693
0.0037135
0.0037135
0.00367955
0.00367955
0.00371612
0.00367693
0.0037135
0.0037135
0.00367955
0.00367955
0.0037135
0.00367955
0.00367955
0.00371612
0.00367693
0.0037135
0.00367955
0.00367955
0.00367693
0.00367086
0.00363167
0.00366824
0.00366824
0.00363429
0.00363429
0.00367086
0.00363167
0.00366824
0.00366824
0.00363429
0.00363429
0.00366824
0.00363429
0.00363429
0.00367086
0.00363167
0.00366824
0.00363429
0.00363429
0.00363167
0.0036256
0.00358641
0.00362298
0.00362298
0.00358903
0.00358903
0.0036256
0.00358641
0.00362298
0.00362298
0.00358903
0.00358903
0.00362298
0.00358903
0.00358903
0.0036256
0.00358641
0.00362298
0.00358903
0.00358903
0.00358641
0.00358034
0.00354115
0.00357772
0.00357772
0.00354377
0.00354377
0.00358034
0.00354115
0.00357772
0.00357772
0.00354377
0.00354377
0.00357772
0.00354377
0.00354377
0.00358034
0.00354115
0.00357772
0.00354377
0.00354377
0.00354115
0.00353508
0.0034959
0.00353246
0.00353246
0.00349852
0.00349852
0.00353508
0.0034959
0.00353246
0.00353246
0.00349852
0.00349851
0.00353246
0.00349852
0.00349851
0.00353508
0.0034959
0.00353246
0.00349851
0.00349851
0.0034959
0.00348983
0.00345064
0.0034872
0.0034872
0.00345326
0.00345326
0.00348983
0.00345064
0.0034872
0.0034872
0.00345326
0.00345326
0.0034872
0.00345326
0.00345326
0.00348983
0.00345064
0.0034872
0.00345326
0.00345326
0.00345064
0.00344457
0.00340538
0.00344194
0.00344194
0.003408
0.003408
0.00344457
0.00340538
0.00344194
0.00344194
0.003408
0.003408
0.00344194
0.003408
0.003408
0.00344457
0.00340538
0.00344194
0.003408
0.003408
0.00340538
0.00339931
0.00336012
0.00339668
0.00339668
0.00336274
0.00336274
0.00339931
0.00336012
0.00339668
0.00339668
0.00336274
0.00336274
0.00339668
0.00336274
0.00336274
0.00339931
0.00336012
0.00339668
0.00336274
0.00336274
0.00336012
0.00335405
0.00331487
0.00335143
0.00335143
0.00331748
0.00331749
0.00335405
0.00331487
0.00335143
0.00335143
0.00331749
0.00331749
0.00335143
0.00331749
0.00331749
0.00335405
0.00331487
0.00335143
0.00331749
0.00331749
0.00331487
0.0033088
0.00326961
0.00330617
0.00330617
0.00327223
0.00327223
0.0033088
0.00326961
0.00330617
0.00330617
0.00327223
0.00327223
0.00330617
0.00327223
0.00327223
0.0033088
0.00326961
0.00330617
0.00327223
0.00327223
0.00326961
0.00326354
0.00322436
0.00326092
0.00326092
0.00322698
0.00322698
0.00326354
0.00322436
0.00326092
0.00326092
0.00322698
0.00322698
0.00326092
0.00322698
0.00322698
0.00326354
0.00322436
0.00326092
0.00322698
0.00322698
0.00322436
0.00321829
0.0031791
0.00321566
0.00321566
0.00318172
0.00318172
0.00321829
0.0031791
0.00321566
0.00321566
0.00318172
0.00318172
0.00321566
0.00318172
0.00318172
0.00321829
0.0031791
0.00321566
0.00318172
0.00318172
0.0031791
0.00317303
0.00313384
0.00317041
0.00317041
0.00313646
0.00313646
0.00317303
0.00313384
0.00317041
0.00317041
0.00313646
0.00313646
0.00317041
0.00313646
0.00313646
0.00317303
0.00313384
0.00317041
0.00313646
0.00313646
0.00313384
0.00312777
0.00308859
0.00312515
0.00312515
0.00309121
0.00309121
0.00312777
0.00308859
0.00312515
0.00312515
0.00309121
0.00309121
0.00312515
0.00309121
0.00309121
0.00312777
0.00308859
0.00312515
0.00309121
0.00309121
0.00308859
0.00308252
0.00304333
0.00307989
0.00307989
0.00304595
0.00304595
0.00308252
0.00304333
0.00307989
0.00307989
0.00304595
0.00304595
0.00307989
0.00304595
0.00304595
0.00308252
0.00304333
0.00307989
0.00304595
0.00304595
0.00304333
0.00303726
0.00299807
0.00303463
0.00303463
0.00300069
0.00300069
0.00303726
0.00299807
0.00303463
0.00303463
0.00300069
0.00300069
0.00303463
0.00300069
0.00300069
0.00303726
0.00299807
0.00303463
0.00300069
0.00300069
0.00299807
0.002992
0.00295281
0.00298938
0.00298938
0.00295543
0.00295543
0.002992
0.00295281
0.00298938
0.00298938
0.00295543
0.00295543
0.00298938
0.00295543
0.00295543
0.002992
0.00295281
0.00298938
0.00295543
0.00295543
0.00295281
0.00294674
0.00290755
0.00294412
0.00294412
0.00291017
0.00291017
0.00294674
0.00290755
0.00294412
0.00294412
0.00291017
0.00291017
0.00294412
0.00291017
0.00291017
0.00294674
0.00290755
0.00294412
0.00291017
0.00291017
0.00290755
0.00290149
0.0028623
0.00289886
0.00289886
0.00286491
0.00286491
0.00290148
0.0028623
0.00289886
0.00289886
0.00286491
0.00286491
0.00289886
0.00286491
0.00286491
0.00290148
0.00286229
0.00289886
0.00286491
0.00286491
0.00286229
0.00285623
0.00281704
0.0028536
0.0028536
0.00281965
0.00281965
0.00285623
0.00281704
0.0028536
0.0028536
0.00281965
0.00281965
0.0028536
0.00281965
0.00281965
0.00285623
0.00281703
0.0028536
0.00281965
0.00281965
0.00281704
0.00281097
0.00277177
0.00280834
0.00280834
0.00277439
0.00277439
0.00281097
0.00277178
0.00280834
0.00280834
0.00277439
0.00277439
0.00280834
0.00277439
0.00277439
0.00281097
0.00277177
0.00280834
0.00277439
0.00277439
0.00277177
0.0027657
0.00272651
0.00276308
0.00276308
0.00272913
0.00272913
0.0027657
0.00272651
0.00276308
0.00276308
0.00272913
0.00272913
0.00276308
0.00272913
0.00272913
0.00276571
0.00272651
0.00276308
0.00272913
0.00272913
0.00272651
0.00272044
0.00268125
0.00271782
0.00271782
0.00268387
0.00268387
0.00272044
0.00268125
0.00271782
0.00271782
0.00268387
0.00268387
0.00271782
0.00268387
0.00268387
0.00272044
0.00268125
0.00271782
0.00268387
0.00268387
0.00268125
0.00267518
0.00263599
0.00267256
0.00267256
0.00263861
0.00263861
0.00267518
0.00263599
0.00267256
0.00267256
0.00263861
0.00263861
0.00267256
0.00263861
0.00263861
0.00267518
0.00263599
0.00267256
0.00263861
0.00263861
0.00263599
0.00262992
0.00259073
0.0026273
0.0026273
0.00259335
0.00259335
0.00262992
0.00259073
0.0026273
0.0026273
0.00259335
0.00259335
0.0026273
0.00259335
0.00259335
0.00262992
0.00259073
0.0026273
0.00259335
0.00259335
0.00259073
0.00258466
0.00254547
0.00258204
0.00258204
0.00254809
0.00254809
0.00258466
0.00254547
0.00258204
0.00258204
0.00254809
0.00254809
0.00258204
0.00254809
0.00254809
0.00258466
0.00254547
0.00258204
0.00254809
0.00254809
0.00254547
0.0025394
0.00250021
0.00253678
0.00253677
0.00250283
0.00250283
0.0025394
0.00250021
0.00253678
0.00253678
0.00250283
0.00250283
0.00253677
0.00250283
0.00250283
0.0025394
0.00250021
0.00253677
0.00250283
0.00250283
0.00250021
0.00249414
0.00245495
0.00249152
0.00249152
0.00245757
0.00245757
0.00249414
0.00245495
0.00249152
0.00249151
0.00245757
0.00245757
0.00249152
0.00245757
0.00245757
0.00249414
0.00245495
0.00249152
0.00245757
0.00245757
0.00245495
0.00244888
0.00240969
0.00244626
0.00244626
0.00241231
0.00241231
0.00244888
0.00240969
0.00244626
0.00244626
0.00241231
0.00241231
0.00244626
0.00241231
0.00241231
0.00244888
0.00240969
0.00244626
0.00241231
0.00241231
0.00240969
0.00240362
0.00236444
0.002401
0.002401
0.00236705
0.00236705
0.00240362
0.00236444
0.002401
0.002401
0.00236705
0.00236705
0.002401
0.00236705
0.00236705
0.00240362
0.00236444
0.002401
0.00236705
0.00236705
0.00236444
0.00235837
0.00231918
0.00235574
0.00235574
0.0023218
0.0023218
0.00235837
0.00231918
0.00235574
0.00235574
0.0023218
0.0023218
0.00235574
0.0023218
0.0023218
0.00235837
0.00231918
0.00235574
0.0023218
0.0023218
0.00231918
0.00231311
0.00227392
0.00231049
0.00231049
0.00227654
0.00227654
0.00231311
0.00227392
0.00231049
0.00231049
0.00227654
0.00227654
0.00231049
0.00227654
0.00227654
0.00231311
0.00227393
0.00231049
0.00227654
0.00227654
0.00227393
0.00226786
0.00222867
0.00226523
0.00226523
0.00223129
0.00223129
0.00226786
0.00222867
0.00226523
0.00226523
0.00223129
0.00223129
0.00226523
0.00223129
0.00223129
0.00226786
0.00222867
0.00226523
0.00223129
0.00223129
0.00222867
0.0022226
0.00218342
0.00221998
0.00221998
0.00218604
0.00218604
0.0022226
0.00218342
0.00221998
0.00221998
0.00218604
0.00218603
0.00221998
0.00218604
0.00218603
0.0022226
0.00218342
0.00221998
0.00218603
0.00218603
0.00218342
0.00217735
0.00213816
0.00217472
0.00217472
0.00214078
0.00214078
0.00217735
0.00213816
0.00217472
0.00217472
0.00214078
0.00214078
0.00217472
0.00214078
0.00214078
0.00217735
0.00213816
0.00217472
0.00214078
0.00214078
0.00213816
0.00213209
0.00209291
0.00212947
0.00212947
0.00209553
0.00209553
0.00213209
0.00209291
0.00212947
0.00212947
0.00209553
0.00209553
0.00212947
0.00209553
0.00209553
0.00213209
0.00209291
0.00212947
0.00209553
0.00209553
0.00209291
0.00208684
0.00204765
0.00208421
0.00208421
0.00205027
0.00205027
0.00208684
0.00204765
0.00208421
0.00208421
0.00205027
0.00205027
0.00208421
0.00205027
0.00205027
0.00208684
0.00204765
0.00208421
0.00205027
0.00205027
0.00204765
0.00204158
0.0020024
0.00203896
0.00203896
0.00200502
0.00200502
0.00204158
0.0020024
0.00203896
0.00203896
0.00200502
0.00200502
0.00203896
0.00200502
0.00200502
0.00204159
0.0020024
0.00203896
0.00200502
0.00200502
0.0020024
0.00199633
0.00195715
0.00199371
0.00199371
0.00195977
0.00195977
0.00199633
0.00195715
0.00199371
0.00199371
0.00195977
0.00195977
0.00199371
0.00195977
0.00195977
0.00199633
0.00195715
0.00199371
0.00195977
0.00195977
0.00195715
0.00195108
0.00191189
0.00194845
0.00194845
0.00191451
0.00191451
0.00195108
0.00191189
0.00194845
0.00194845
0.00191451
0.00191451
0.00194845
0.00191451
0.00191451
0.00195108
0.00191189
0.00194845
0.00191451
0.00191451
0.00191189
0.00190583
0.00186664
0.0019032
0.0019032
0.00186926
0.00186926
0.00190583
0.00186664
0.0019032
0.0019032
0.00186926
0.00186926
0.0019032
0.00186926
0.00186926
0.00190583
0.00186664
0.0019032
0.00186926
0.00186926
0.00186664
0.00186057
0.00182139
0.00185795
0.00185795
0.00182401
0.00182401
0.00186057
0.00182139
0.00185795
0.00185795
0.00182401
0.00182401
0.00185795
0.00182401
0.00182401
0.00186057
0.00182139
0.00185795
0.00182401
0.00182401
0.00182139
0.00181532
0.00177614
0.00181269
0.00181269
0.00177875
0.00177875
0.00181532
0.00177614
0.00181269
0.00181269
0.00177875
0.00177875
0.00181269
0.00177875
0.00177875
0.00181532
0.00177614
0.00181269
0.00177875
0.00177875
0.00177613
0.00177007
0.00173088
0.00176744
0.00176744
0.0017335
0.0017335
0.00177007
0.00173088
0.00176744
0.00176744
0.0017335
0.0017335
0.00176744
0.0017335
0.0017335
0.00177007
0.00173088
0.00176744
0.0017335
0.0017335
0.00173088
0.00172481
0.00168563
0.00172219
0.00172219
0.00168824
0.00168824
0.00172481
0.00168563
0.00172219
0.00172219
0.00168824
0.00168824
0.00172219
0.00168824
0.00168824
0.00172481
0.00168562
0.00172219
0.00168824
0.00168824
0.00168563
0.00167956
0.00164037
0.00167693
0.00167693
0.00164299
0.00164299
0.00167956
0.00164037
0.00167693
0.00167693
0.00164299
0.00164299
0.00167693
0.00164299
0.00164299
0.00167956
0.00164037
0.00167693
0.00164299
0.00164299
0.00164037
0.0016343
0.00159511
0.00163167
0.00163167
0.00159773
0.00159773
0.0016343
0.00159511
0.00163167
0.00163167
0.00159773
0.00159773
0.00163167
0.00159773
0.00159773
0.0016343
0.00159511
0.00163167
0.00159773
0.00159773
0.00159511
0.00158904
0.00154985
0.00158642
0.00158642
0.00155247
0.00155247
0.00158904
0.00154985
0.00158642
0.00158642
0.00155247
0.00155247
0.00158642
0.00155247
0.00155247
0.00158904
0.00154985
0.00158642
0.00155247
0.00155247
0.00154985
0.00154379
0.0015046
0.00154116
0.00154116
0.00150721
0.00150722
0.00154379
0.0015046
0.00154116
0.00154116
0.00150721
0.00150721
0.00154116
0.00150722
0.00150722
0.00154379
0.0015046
0.00154116
0.00150721
0.00150722
0.0015046
0.00149853
0.00145934
0.0014959
0.0014959
0.00146196
0.00146196
0.00149853
0.00145934
0.0014959
0.0014959
0.00146196
0.00146196
0.0014959
0.00146196
0.00146196
0.00149853
0.00145934
0.0014959
0.00146196
0.00146196
0.00145934
0.00145327
0.00141408
0.00145064
0.00145064
0.0014167
0.0014167
0.00145327
0.00141408
0.00145064
0.00145064
0.0014167
0.0014167
0.00145064
0.0014167
0.0014167
0.00145327
0.00141408
0.00145064
0.0014167
0.0014167
0.00141408
0.00140801
0.00136882
0.00140538
0.00140538
0.00137144
0.00137144
0.00140801
0.00136882
0.00140538
0.00140538
0.00137144
0.00137144
0.00140538
0.00137144
0.00137144
0.00140801
0.00136882
0.00140538
0.00137144
0.00137144
0.00136882
0.00136275
0.00132356
0.00136012
0.00136012
0.00132618
0.00132618
0.00136275
0.00132356
0.00136012
0.00136012
0.00132618
0.00132618
0.00136012
0.00132618
0.00132618
0.00136275
0.00132356
0.00136012
0.00132618
0.00132618
0.00132356
0.00131749
0.0012783
0.00131487
0.00131486
0.00128092
0.00128092
0.00131749
0.0012783
0.00131486
0.00131486
0.00128092
0.00128092
0.00131487
0.00128092
0.00128092
0.00131749
0.0012783
0.00131486
0.00128092
0.00128092
0.0012783
0.00127223
0.00123304
0.00126961
0.00126961
0.00123566
0.00123566
0.00127223
0.00123304
0.00126961
0.00126961
0.00123566
0.00123566
0.00126961
0.00123566
0.00123566
0.00127223
0.00123304
0.00126961
0.00123566
0.00123566
0.00123304
0.00122697
0.00118778
0.00122435
0.00122435
0.0011904
0.0011904
0.00122697
0.00118778
0.00122435
0.00122435
0.0011904
0.0011904
0.00122435
0.0011904
0.0011904
0.00122697
0.00118778
0.00122435
0.0011904
0.0011904
0.00118778
0.00118171
0.00114252
0.00117909
0.00117909
0.00114514
0.00114514
0.00118171
0.00114253
0.00117909
0.00117909
0.00114514
0.00114514
0.00117909
0.00114514
0.00114514
0.00118171
0.00114252
0.00117909
0.00114514
0.00114514
0.00114252
0.00113646
0.00109727
0.00113383
0.00113383
0.00109989
0.00109989
0.00113646
0.00109727
0.00113383
0.00113383
0.00109989
0.00109989
0.00113383
0.00109989
0.00109989
0.00113646
0.00109727
0.00113383
0.00109989
0.00109989
0.00109727
0.0010912
0.00105201
0.00108857
0.00108857
0.00105463
0.00105463
0.0010912
0.00105201
0.00108857
0.00108857
0.00105463
0.00105463
0.00108857
0.00105463
0.00105463
0.0010912
0.00105201
0.00108857
0.00105463
0.00105463
0.00105201
0.00104594
0.00100675
0.00104331
0.00104331
0.00100937
0.00100937
0.00104594
0.00100675
0.00104331
0.00104331
0.00100937
0.00100937
0.00104331
0.00100937
0.00100937
0.00104594
0.00100675
0.00104331
0.00100937
0.00100937
0.00100675
0.00100068
0.000961492
0.000998055
0.000998055
0.000964112
0.000964112
0.00100068
0.000961493
0.000998055
0.000998055
0.000964112
0.000964112
0.000998055
0.000964112
0.000964112
0.00100068
0.000961492
0.000998055
0.000964112
0.000964112
0.000961492
0.000955423
0.000916235
0.000952798
0.000952797
0.000918855
0.000918855
0.000955423
0.000916236
0.000952797
0.000952798
0.000918855
0.000918855
0.000952798
0.000918855
0.000918855
0.000955423
0.000916236
0.000952798
0.000918855
0.000918855
0.000916236
0.000910166
0.000870979
0.000907541
0.000907541
0.000873598
0.000873598
0.000910166
0.000870979
0.000907541
0.000907541
0.000873598
0.000873598
0.000907541
0.000873598
0.000873598
0.000910167
0.000870979
0.000907541
0.000873598
0.000873598
0.000870979
0.00086491
0.000825722
0.000862284
0.000862284
0.000828341
0.000828341
0.00086491
0.000825722
0.000862284
0.000862284
0.000828341
0.000828341
0.000862284
0.000828341
0.000828341
0.00086491
0.000825722
0.000862284
0.000828341
0.000828341
0.000825722
0.000819653
0.000780465
0.000817027
0.000817027
0.000783084
0.000783084
0.000819653
0.000780465
0.000817027
0.000817027
0.000783084
0.000783084
0.000817027
0.000783084
0.000783084
0.000819653
0.000780465
0.000817027
0.000783084
0.000783084
0.000780465
0.000774396
0.000735208
0.00077177
0.00077177
0.000737828
0.000737827
0.000774396
0.000735208
0.00077177
0.00077177
0.000737827
0.000737827
0.00077177
0.000737828
0.000737828
0.000774396
0.000735208
0.00077177
0.000737828
0.000737827
0.000735208
0.000729139
0.000689951
0.000726513
0.000726513
0.00069257
0.00069257
0.000729139
0.000689951
0.000726513
0.000726513
0.00069257
0.00069257
0.000726513
0.00069257
0.00069257
0.000729139
0.000689951
0.000726513
0.00069257
0.00069257
0.000689951
0.000683882
0.000644694
0.000681256
0.000681256
0.000647313
0.000647313
0.000683882
0.000644694
0.000681256
0.000681256
0.000647313
0.000647313
0.000681256
0.000647313
0.000647313
0.000683882
0.000644694
0.000681256
0.000647313
0.000647313
0.000644694
0.000638625
0.000599436
0.000635999
0.000635999
0.000602056
0.000602056
0.000638625
0.000599436
0.000635999
0.000635999
0.000602056
0.000602056
0.000635999
0.000602056
0.000602056
0.000638625
0.000599436
0.000635999
0.000602056
0.000602055
0.000599436
0.000593367
0.000554178
0.000590741
0.000590741
0.000556798
0.000556798
0.000593367
0.000554178
0.000590741
0.000590741
0.000556798
0.000556798
0.000590741
0.000556798
0.000556798
0.000593367
0.000554178
0.000590741
0.000556798
0.000556798
0.000554178
0.000548109
0.00050892
0.000545483
0.000545483
0.000511539
0.000511539
0.000548109
0.00050892
0.000545483
0.000545483
0.000511539
0.000511539
0.000545483
0.000511539
0.000511539
0.000548109
0.00050892
0.000545483
0.000511539
0.000511539
0.00050892
0.000502851
0.000463662
0.000500225
0.000500225
0.000466282
0.000466282
0.000502851
0.000463663
0.000500225
0.000500225
0.000466282
0.000466282
0.000500225
0.000466282
0.000466282
0.000502851
0.000463662
0.000500225
0.000466282
0.000466281
0.000463662
0.000457593
0.000418405
0.000454968
0.000454967
0.000421025
0.000421025
0.000457593
0.000418406
0.000454967
0.000454967
0.000421025
0.000421025
0.000454967
0.000421025
0.000421025
0.000457593
0.000418405
0.000454967
0.000421025
0.000421024
0.000418405
0.000412336
0.000373149
0.000409711
0.000409711
0.000375768
0.000375768
0.000412336
0.000373149
0.00040971
0.00040971
0.000375768
0.000375768
0.000409711
0.000375768
0.000375768
0.000412336
0.000373148
0.00040971
0.000375768
0.000375768
0.000373149
0.000367079
0.000327892
0.000364454
0.000364454
0.000330511
0.000330511
0.000367079
0.000327892
0.000364454
0.000364454
0.000330511
0.000330511
0.000364454
0.000330511
0.000330511
0.00036708
0.000327891
0.000364454
0.000330511
0.000330511
0.000327892
0.000321822
0.000282634
0.000319197
0.000319196
0.000285253
0.000285253
0.000321822
0.000282634
0.000319196
0.000319196
0.000285253
0.000285253
0.000319197
0.000285253
0.000285253
0.000321823
0.000282633
0.000319197
0.000285253
0.000285253
0.000282633
0.000276564
0.000237374
0.000273938
0.000273938
0.000239994
0.000239994
0.000276564
0.000237374
0.000273938
0.000273938
0.000239994
0.000239993
0.000273939
0.000239994
0.000239994
0.000276564
0.000237374
0.000273938
0.000239994
0.000239993
0.000237374
0.000231304
0.000192112
0.000228679
0.000228678
0.000194732
0.000194732
0.000231304
0.000192113
0.000228678
0.000228678
0.000194732
0.000194732
0.000228679
0.000194732
0.000194732
0.000231305
0.000192112
0.000228678
0.000194732
0.000194732
0.000192112
0.000186042
0.000146851
0.000183416
0.000183416
0.00014947
0.00014947
0.000186042
0.000146851
0.000183416
0.000183416
0.00014947
0.00014947
0.000183416
0.00014947
0.00014947
0.000186042
0.00014685
0.000183416
0.00014947
0.00014947
0.00014685
0.000140781
0.000101592
0.000138155
0.000138155
0.000104219
0.000104219
0.000140781
0.000101592
0.000138155
0.000138154
0.000104219
0.000104218
0.000138155
0.000104219
0.000104218
0.00014078
0.00010159
0.000138154
0.000104218
0.000104217
0.00010159
9.55108e-05
5.63124e-05
9.29071e-05
9.29063e-05
5.89163e-05
5.89162e-05
9.55097e-05
5.63126e-05
9.29063e-05
9.29051e-05
5.89144e-05
5.89135e-05
9.29055e-05
5.8914e-05
5.89125e-05
9.55097e-05
5.63094e-05
9.29053e-05
5.8912e-05
5.89106e-05
5.63078e-05
5.00543e-05
1.51469e-05
4.76195e-05
4.76185e-05
1.73462e-05
1.7345e-05
5.00533e-05
1.51467e-05
4.76179e-05
4.76159e-05
1.73442e-05
1.73403e-05
4.76143e-05
1.73424e-05
1.73381e-05
5.00507e-05
1.51427e-05
4.76125e-05
1.73409e-05
1.73399e-05
1.51412e-05
1.13029e-05
1.16444e-05
1.16447e-05
1.13039e-05
1.16429e-05
1.16408e-05
1.11724e-05
1.11708e-05
1.117e-05
1.16395e-05
1.13007e-05
1.16403e-05
0.00428705
0.00429677
0.0042916
0.0042916
0.00431389
0.00430071
0.00432928
0.0042948
0.00431389
0.00430072
0.0042948
0.00432928
0.00430527
0.00433301
0.00433302
0.00424223
0.00426061
0.00427016
0.0042347
0.00423442
0.00423842
0.00424221
0.00426058
0.00427015
0.00423468
0.00426521
0.00426522
0.00426522
0.00422317
0.00422317
0.00422316
0.00422316
0.00423974
0.00426507
0.00426554
0.00424824
0.00426836
0.00423842
0.00424915
0.00423453
0.00423841
0.00423975
0.00426554
0.00426509
0.00424823
0.00426836
0.00424915
0.00423841
0.00427109
0.00427107
0.00424303
0.00423756
0.00423755
0.00419738
0.0042123
0.00421387
0.00419701
0.00421215
0.00419695
0.00419738
0.00421229
0.00421387
0.00419701
0.00421199
0.00421198
0.00421198
0.00417754
0.00417755
0.00417754
0.00417754
0.00419743
0.0042137
0.00421193
0.00420048
0.00421366
0.00419763
0.00420043
0.00421214
0.00419694
0.00419744
0.00421193
0.0042137
0.00420047
0.00421365
0.00420043
0.00419764
0.00421304
0.00421304
0.00419763
0.00419736
0.00419736
0.00415199
0.00416889
0.00416892
0.00415198
0.0041689
0.00415198
0.00415199
0.00416889
0.00416892
0.00415198
0.00416618
0.00416618
0.00416618
0.0041322
0.0041322
0.0041322
0.0041322
0.00415206
0.0041689
0.00416614
0.00415481
0.00416888
0.00415202
0.00415482
0.0041689
0.00415198
0.00415206
0.00416614
0.0041689
0.00415481
0.00416888
0.00415482
0.00415202
0.00416892
0.00416893
0.00415218
0.00415198
0.00415198
0.00410674
0.00412368
0.00412367
0.00410673
0.00412368
0.00410673
0.00410674
0.00412368
0.00412367
0.00410673
0.00412088
0.00412088
0.00412088
0.00408693
0.00408693
0.00408693
0.00408693
0.0041068
0.00412364
0.00412086
0.00410954
0.00412361
0.00410677
0.00410954
0.00412368
0.00410673
0.0041068
0.00412086
0.00412364
0.00410954
0.00412361
0.00410954
0.00410676
0.00412368
0.00412368
0.00410692
0.00410673
0.00410673
0.00406147
0.00407842
0.00407841
0.00406147
0.00407842
0.00406147
0.00406147
0.00407841
0.00407841
0.00406147
0.00407561
0.00407561
0.00407561
0.00404166
0.00404166
0.00404166
0.00404166
0.00406154
0.00407838
0.0040756
0.00406427
0.00407835
0.0040615
0.00406428
0.00407842
0.00406147
0.00406154
0.00407559
0.00407838
0.00406427
0.00407835
0.00406428
0.0040615
0.00407842
0.00407842
0.00406165
0.00406147
0.00406146
0.00401621
0.00403315
0.00403315
0.0040162
0.00403316
0.00401619
0.00401621
0.00403315
0.00403315
0.0040162
0.00403035
0.00403035
0.00403035
0.0039964
0.0039964
0.0039964
0.0039964
0.00401627
0.00403312
0.00403033
0.00401901
0.00403309
0.00401624
0.00401901
0.00403315
0.0040162
0.00401627
0.00403033
0.00403312
0.00401901
0.00403309
0.00401901
0.00401624
0.00403315