/*--------------------------------*- C++ -*----------------------------------*\
| =========                 |                                                 |
| \\      /  F ield         | OpenFOAM: The Open Source CFD Toolbox           |
|  \\    /   O peration     | Version:  2206                                  |
|   \\  /    A nd           | Website:  www.openfoam.com                      |
|    \\/     M anipulation  |                                                 |
\*---------------------------------------------------------------------------*/
FoamFile
{
    version     2.0;
    format      ascii;
    arch        "LSB;label=32;scalar=64";
    class       volScalarField;
    location    "6.5";
    object      p;
}
// * * * * * * * * * * * * * * * * * * * * * * * * * * * * * * * * * * * * * //

dimensions      [0 2 -2 0 0 0 0];

internalField   nonuniform List<scalar> 
171728
(
0.00426674
0.00426689
0.00426688
0.00426983
0.00421351
0.00421362
0.00421362
0.00421574
0.0041677
0.00416765
0.00416765
0.00417028
0.00412239
0.00412236
0.00412236
0.00412499
0.00407712
0.0040771
0.0040771
0.00407972
0.00403185
0.00403183
0.00403183
0.00403446
0.00398659
0.00398656
0.00398656
0.00398919
0.00394132
0.0039413
0.0039413
0.00394392
0.00389605
0.00389603
0.00389603
0.00389866
0.00385078
0.00385076
0.00385076
0.00385339
0.00380551
0.00380549
0.00380549
0.00380812
0.00376025
0.00376022
0.00376022
0.00376285
0.00371498
0.00371496
0.00371496
0.00371758
0.00366973
0.00366971
0.00366971
0.00367234
0.00362446
0.00362444
0.00362444
0.00362707
0.00357919
0.00357917
0.00357917
0.0035818
0.00353392
0.0035339
0.0035339
0.00353653
0.00348865
0.00348863
0.00348863
0.00349126
0.00344339
0.00344336
0.00344336
0.00344599
0.00339812
0.00339809
0.00339809
0.00340072
0.00335285
0.00335282
0.00335282
0.00335545
0.00330758
0.00330755
0.00330755
0.00331018
0.0032623
0.00326228
0.00326228
0.00326491
0.00321703
0.00321701
0.00321701
0.00321964
0.00317176
0.00317174
0.00317174
0.00317436
0.00312649
0.00312646
0.00312646
0.00312909
0.00308121
0.00308119
0.00308119
0.00308382
0.00303594
0.00303592
0.00303592
0.00303855
0.00299067
0.00299065
0.00299065
0.00299327
0.0029454
0.00294537
0.00294537
0.002948
0.00290014
0.00290011
0.00290012
0.00290274
0.00285488
0.00285486
0.00285486
0.00285748
0.00280961
0.00280959
0.00280959
0.00281221
0.00276434
0.00276432
0.00276432
0.00276694
0.00271907
0.00271905
0.00271905
0.00272167
0.0026738
0.00267377
0.00267377
0.0026764
0.00262852
0.0026285
0.0026285
0.00263113
0.00258325
0.00258323
0.00258323
0.00258586
0.00253798
0.00253796
0.00253796
0.00254058
0.00249271
0.00249269
0.00249269
0.00249531
0.00244744
0.00244742
0.00244742
0.00245004
0.00240217
0.00240214
0.00240214
0.00240477
0.00235689
0.00235687
0.00235687
0.0023595
0.00231162
0.0023116
0.0023116
0.00231423
0.00226635
0.00226633
0.00226633
0.00226895
0.00222108
0.00222106
0.00222106
0.00222368
0.00217581
0.00217579
0.00217579
0.00217841
0.00213054
0.00213052
0.00213052
0.00213314
0.00208528
0.00208526
0.00208526
0.00208789
0.00204002
0.00204
0.00204
0.00204262
0.00199475
0.00199472
0.00199472
0.00199735
0.00194947
0.00194945
0.00194945
0.00195208
0.0019042
0.00190418
0.00190418
0.00190681
0.00185893
0.0018589
0.00185891
0.00186153
0.00181365
0.00181363
0.00181363
0.00181625
0.00176837
0.00176835
0.00176835
0.00177098
0.00172309
0.00172307
0.00172307
0.0017257
0.00167781
0.00167779
0.00167779
0.00168041
0.00163253
0.00163251
0.00163251
0.00163513
0.00158724
0.00158722
0.00158722
0.00158985
0.00154196
0.00154194
0.00154194
0.00154457
0.00149668
0.00149666
0.00149666
0.00149929
0.0014514
0.00145138
0.00145138
0.001454
0.00140612
0.00140609
0.00140609
0.00140872
0.00136083
0.00136081
0.00136081
0.00136344
0.00131556
0.00131554
0.00131554
0.00131817
0.0012703
0.00127028
0.00127027
0.0012729
0.00122501
0.00122499
0.00122499
0.00122762
0.00117973
0.00117971
0.00117971
0.00118233
0.00113445
0.00113442
0.00113442
0.00113705
0.00108916
0.00108914
0.00108914
0.00109177
0.00104388
0.00104386
0.00104386
0.00104648
0.000998596
0.000998573
0.000998573
0.0010012
0.000953311
0.000953288
0.000953289
0.000955915
0.000908026
0.000908004
0.000908004
0.000910631
0.000862742
0.00086272
0.00086272
0.000865348
0.000817459
0.000817437
0.000817437
0.000820065
0.000772177
0.000772155
0.000772155
0.000774782
0.000726894
0.000726872
0.000726872
0.000729499
0.000681612
0.00068159
0.00068159
0.000684217
0.00063633
0.000636308
0.000636309
0.000638936
0.000591048
0.000591025
0.000591027
0.000593653
0.00054577
0.000545747
0.000545747
0.000548372
0.000500507
0.000500488
0.000500484
0.000503113
0.000455229
0.000455206
0.000455208
0.000457834
0.000409948
0.000409925
0.000409925
0.000412552
0.000364666
0.000364644
0.000364644
0.00036727
0.000319384
0.000319362
0.000319362
0.000321988
0.000274102
0.00027408
0.00027408
0.000276707
0.00022882
0.000228798
0.000228798
0.000231425
0.000183537
0.000183515
0.000183515
0.000186142
0.000138254
0.000138233
0.000138233
0.00014086
9.29851e-05
9.2963e-05
9.29619e-05
9.55673e-05
4.82854e-05
4.76505e-05
4.76479e-05
5.00837e-05
1.11848e-05
1.16563e-05
1.16545e-05
1.13122e-05
0.00428016
0.00428043
0.00428043
0.00428016
0.00428043
0.00428043
0.00428128
0.00428128
0.00428129
0.00428128
0.00428043
0.00428043
0.00428016
0.00428043
0.00428043
0.00428016
0.00426983
0.00422233
0.00426688
0.00426688
0.00422497
0.00422497
0.00426983
0.00422233
0.00426689
0.00426688
0.00422497
0.00422497
0.00426688
0.00422497
0.00422497
0.00426983
0.00422233
0.00426688
0.00422497
0.00422497
0.00422233
0.00421574
0.00417635
0.00421362
0.00421362
0.00417899
0.00417899
0.00421574
0.00417635
0.00421362
0.00421362
0.00417899
0.00417899
0.00421362
0.00417899
0.00417899
0.00421574
0.00417635
0.00421362
0.00417899
0.00417899
0.00417635
0.00417028
0.00413106
0.00416765
0.00416765
0.00413368
0.00413368
0.00417029
0.00413106
0.00416765
0.00416765
0.00413368
0.00413368
0.00416765
0.00413368
0.00413368
0.00417028
0.00413106
0.00416765
0.00413368
0.00413368
0.00413106
0.00412499
0.00408579
0.00412236
0.00412236
0.00408841
0.00408841
0.00412499
0.00408579
0.00412236
0.00412236
0.00408841
0.00408841
0.00412236
0.00408841
0.00408841
0.00412499
0.00408579
0.00412236
0.00408841
0.00408841
0.00408579
0.00407972
0.00404053
0.0040771
0.0040771
0.00404315
0.00404315
0.00407972
0.00404053
0.0040771
0.0040771
0.00404315
0.00404315
0.0040771
0.00404315
0.00404315
0.00407972
0.00404053
0.0040771
0.00404315
0.00404315
0.00404053
0.00403446
0.00399526
0.00403183
0.00403183
0.00399788
0.00399788
0.00403446
0.00399526
0.00403183
0.00403183
0.00399788
0.00399788
0.00403183
0.00399788
0.00399788
0.00403446
0.00399526
0.00403183
0.00399788
0.00399788
0.00399526
0.00398919
0.00394999
0.00398656
0.00398656
0.00395261
0.00395261
0.00398919
0.00394999
0.00398656
0.00398656
0.00395261
0.00395261
0.00398656
0.00395261
0.00395261
0.00398919
0.00394999
0.00398656
0.00395261
0.00395261
0.00394999
0.00394392
0.00390473
0.0039413
0.0039413
0.00390735
0.00390735
0.00394392
0.00390473
0.0039413
0.0039413
0.00390735
0.00390735
0.0039413
0.00390735
0.00390735
0.00394392
0.00390473
0.0039413
0.00390735
0.00390735
0.00390473
0.00389866
0.00385946
0.00389603
0.00389603
0.00386208
0.00386208
0.00389866
0.00385946
0.00389603
0.00389603
0.00386208
0.00386208
0.00389603
0.00386208
0.00386208
0.00389866
0.00385946
0.00389603
0.00386208
0.00386208
0.00385946
0.00385339
0.00381419
0.00385076
0.00385076
0.00381681
0.00381681
0.00385339
0.00381419
0.00385076
0.00385076
0.00381681
0.00381681
0.00385076
0.00381681
0.00381681
0.00385339
0.00381419
0.00385076
0.00381681
0.00381681
0.00381419
0.00380812
0.00376892
0.00380549
0.00380549
0.00377154
0.00377154
0.00380812
0.00376892
0.00380549
0.00380549
0.00377154
0.00377154
0.00380549
0.00377154
0.00377154
0.00380812
0.00376892
0.00380549
0.00377154
0.00377154
0.00376892
0.00376285
0.00372365
0.00376022
0.00376022
0.00372627
0.00372627
0.00376285
0.00372365
0.00376022
0.00376022
0.00372627
0.00372627
0.00376022
0.00372627
0.00372627
0.00376285
0.00372365
0.00376022
0.00372627
0.00372627
0.00372365
0.00371758
0.00367841
0.00371496
0.00371496
0.00368102
0.00368102
0.00371759
0.00367841
0.00371496
0.00371496
0.00368102
0.00368102
0.00371496
0.00368103
0.00368102
0.00371758
0.00367841
0.00371496
0.00368102
0.00368102
0.00367841
0.00367234
0.00363314
0.00366971
0.00366971
0.00363576
0.00363576
0.00367234
0.00363314
0.00366971
0.00366971
0.00363576
0.00363576
0.00366971
0.00363576
0.00363576
0.00367234
0.00363314
0.00366971
0.00363576
0.00363576
0.00363314
0.00362707
0.00358787
0.00362444
0.00362444
0.00359049
0.00359049
0.00362707
0.00358787
0.00362444
0.00362444
0.00359049
0.00359049
0.00362444
0.00359049
0.00359049
0.00362707
0.00358787
0.00362444
0.00359049
0.00359049
0.00358787
0.0035818
0.0035426
0.00357917
0.00357917
0.00354522
0.00354522
0.0035818
0.0035426
0.00357917
0.00357917
0.00354522
0.00354522
0.00357917
0.00354522
0.00354522
0.0035818
0.0035426
0.00357917
0.00354522
0.00354522
0.0035426
0.00353653
0.00349733
0.0035339
0.0035339
0.00349995
0.00349995
0.00353653
0.00349733
0.0035339
0.0035339
0.00349995
0.00349995
0.0035339
0.00349995
0.00349995
0.00353653
0.00349733
0.0035339
0.00349995
0.00349995
0.00349733
0.00349126
0.00345206
0.00348863
0.00348863
0.00345468
0.00345468
0.00349126
0.00345206
0.00348863
0.00348863
0.00345468
0.00345468
0.00348863
0.00345468
0.00345468
0.00349126
0.00345206
0.00348863
0.00345468
0.00345468
0.00345206
0.00344599
0.00340679
0.00344336
0.00344336
0.00340941
0.00340941
0.00344599
0.00340679
0.00344336
0.00344336
0.00340941
0.00340941
0.00344336
0.00340941
0.00340941
0.00344599
0.00340679
0.00344336
0.00340941
0.00340941
0.00340679
0.00340072
0.00336152
0.00339809
0.00339809
0.00336414
0.00336414
0.00340072
0.00336152
0.00339809
0.00339809
0.00336414
0.00336414
0.00339809
0.00336414
0.00336414
0.00340072
0.00336152
0.00339809
0.00336414
0.00336414
0.00336152
0.00335545
0.00331625
0.00335282
0.00335282
0.00331887
0.00331887
0.00335545
0.00331625
0.00335282
0.00335282
0.00331887
0.00331887
0.00335282
0.00331887
0.00331887
0.00335545
0.00331625
0.00335282
0.00331887
0.00331887
0.00331625
0.00331018
0.00327098
0.00330755
0.00330755
0.0032736
0.0032736
0.00331018
0.00327098
0.00330755
0.00330755
0.0032736
0.0032736
0.00330755
0.0032736
0.0032736
0.00331018
0.00327098
0.00330755
0.0032736
0.0032736
0.00327098
0.00326491
0.00322571
0.00326228
0.00326228
0.00322833
0.00322833
0.00326491
0.00322571
0.00326228
0.00326228
0.00322833
0.00322833
0.00326228
0.00322833
0.00322833
0.00326491
0.00322571
0.00326228
0.00322833
0.00322833
0.00322571
0.00321964
0.00318043
0.00321701
0.00321701
0.00318305
0.00318305
0.00321964
0.00318043
0.00321701
0.00321701
0.00318305
0.00318305
0.00321701
0.00318305
0.00318305
0.00321963
0.00318043
0.00321701
0.00318305
0.00318305
0.00318043
0.00317436
0.00313516
0.00317174
0.00317174
0.00313778
0.00313778
0.00317436
0.00313516
0.00317174
0.00317174
0.00313778
0.00313778
0.00317174
0.00313778
0.00313778
0.00317436
0.00313516
0.00317174
0.00313778
0.00313778
0.00313516
0.00312909
0.00308989
0.00312646
0.00312646
0.00309251
0.00309251
0.00312909
0.00308989
0.00312646
0.00312646
0.00309251
0.00309251
0.00312646
0.00309251
0.00309251
0.00312909
0.00308989
0.00312646
0.00309251
0.00309251
0.00308989
0.00308382
0.00304462
0.00308119
0.00308119
0.00304724
0.00304724
0.00308382
0.00304462
0.00308119
0.00308119
0.00304724
0.00304724
0.00308119
0.00304724
0.00304724
0.00308382
0.00304462
0.00308119
0.00304724
0.00304724
0.00304462
0.00303855
0.00299934
0.00303592
0.00303592
0.00300196
0.00300196
0.00303855
0.00299934
0.00303592
0.00303592
0.00300196
0.00300196
0.00303592
0.00300196
0.00300196
0.00303855
0.00299934
0.00303592
0.00300196
0.00300196
0.00299934
0.00299327
0.00295407
0.00299065
0.00299065
0.00295669
0.00295669
0.00299327
0.00295407
0.00299065
0.00299065
0.00295669
0.00295669
0.00299065
0.00295669
0.00295669
0.00299327
0.00295407
0.00299065
0.00295669
0.00295669
0.00295407
0.002948
0.00290881
0.00294537
0.00294537
0.00291143
0.00291143
0.002948
0.00290881
0.00294537
0.00294537
0.00291143
0.00291143
0.00294537
0.00291143
0.00291143
0.002948
0.00290881
0.00294537
0.00291143
0.00291143
0.00290881
0.00290274
0.00286355
0.00290012
0.00290011
0.00286618
0.00286617
0.00290274
0.00286356
0.00290012
0.00290012
0.00286618
0.00286618
0.00290011
0.00286618
0.00286618
0.00290274
0.00286355
0.00290012
0.00286618
0.00286618
0.00286355
0.00285748
0.00281828
0.00285486
0.00285486
0.0028209
0.0028209
0.00285748
0.00281828
0.00285486
0.00285486
0.0028209
0.0028209
0.00285486
0.0028209
0.0028209
0.00285748
0.00281828
0.00285486
0.0028209
0.0028209
0.00281828
0.00281221
0.00277301
0.00280959
0.00280959
0.00277563
0.00277563
0.00281221
0.00277301
0.00280959
0.00280959
0.00277563
0.00277563
0.00280959
0.00277563
0.00277563
0.00281221
0.00277301
0.00280959
0.00277563
0.00277563
0.00277301
0.00276694
0.00272774
0.00276432
0.00276432
0.00273036
0.00273036
0.00276694
0.00272774
0.00276432
0.00276432
0.00273036
0.00273036
0.00276432
0.00273036
0.00273036
0.00276694
0.00272774
0.00276432
0.00273036
0.00273036
0.00272774
0.00272167
0.00268247
0.00271905
0.00271905
0.00268509
0.00268509
0.00272167
0.00268247
0.00271905
0.00271905
0.00268509
0.00268509
0.00271905
0.00268509
0.00268509
0.00272167
0.00268247
0.00271905
0.00268509
0.00268509
0.00268247
0.0026764
0.0026372
0.00267377
0.00267377
0.00263982
0.00263982
0.0026764
0.0026372
0.00267377
0.00267377
0.00263982
0.00263982
0.00267377
0.00263982
0.00263982
0.0026764
0.0026372
0.00267377
0.00263982
0.00263982
0.0026372
0.00263113
0.00259193
0.0026285
0.0026285
0.00259455
0.00259455
0.00263113
0.00259193
0.0026285
0.0026285
0.00259455
0.00259455
0.0026285
0.00259455
0.00259455
0.00263113
0.00259193
0.0026285
0.00259455
0.00259455
0.00259193
0.00258586
0.00254666
0.00258323
0.00258323
0.00254928
0.00254928
0.00258586
0.00254666
0.00258323
0.00258323
0.00254928
0.00254928
0.00258323
0.00254928
0.00254928
0.00258586
0.00254666
0.00258323
0.00254928
0.00254928
0.00254666
0.00254058
0.00250138
0.00253796
0.00253796
0.002504
0.002504
0.00254058
0.00250138
0.00253796
0.00253796
0.002504
0.002504
0.00253796
0.002504
0.002504
0.00254058
0.00250138
0.00253796
0.002504
0.002504
0.00250138
0.00249531
0.00245611
0.00249269
0.00249269
0.00245873
0.00245873
0.00249531
0.00245611
0.00249269
0.00249269
0.00245873
0.00245873
0.00249269
0.00245873
0.00245873
0.00249531
0.00245611
0.00249269
0.00245873
0.00245873
0.00245611
0.00245004
0.00241084
0.00244742
0.00244742
0.00241346
0.00241346
0.00245004
0.00241084
0.00244742
0.00244742
0.00241346
0.00241346
0.00244742
0.00241346
0.00241346
0.00245004
0.00241084
0.00244742
0.00241346
0.00241346
0.00241084
0.00240477
0.00236557
0.00240214
0.00240214
0.00236819
0.00236819
0.00240477
0.00236557
0.00240214
0.00240214
0.00236819
0.00236819
0.00240214
0.00236819
0.00236819
0.00240477
0.00236557
0.00240214
0.00236819
0.00236819
0.00236557
0.0023595
0.0023203
0.00235687
0.00235687
0.00232292
0.00232292
0.0023595
0.0023203
0.00235687
0.00235687
0.00232292
0.00232292
0.00235687
0.00232292
0.00232292
0.0023595
0.0023203
0.00235687
0.00232292
0.00232292
0.0023203
0.00231423
0.00227502
0.0023116
0.0023116
0.00227764
0.00227764
0.00231423
0.00227503
0.0023116
0.0023116
0.00227764
0.00227765
0.0023116
0.00227765
0.00227765
0.00231423
0.00227502
0.0023116
0.00227765
0.00227765
0.00227502
0.00226895
0.00222975
0.00226633
0.00226633
0.00223237
0.00223237
0.00226895
0.00222975
0.00226633
0.00226633
0.00223237
0.00223237
0.00226633
0.00223237
0.00223237
0.00226895
0.00222975
0.00226633
0.00223237
0.00223237
0.00222975
0.00222368
0.00218448
0.00222106
0.00222106
0.0021871
0.0021871
0.00222368
0.00218448
0.00222106
0.00222106
0.0021871
0.0021871
0.00222106
0.0021871
0.0021871
0.00222368
0.00218448
0.00222106
0.0021871
0.0021871
0.00218448
0.00217841
0.00213921
0.00217579
0.00217579
0.00214183
0.00214183
0.00217841
0.00213921
0.00217579
0.00217579
0.00214183
0.00214183
0.00217579
0.00214183
0.00214183
0.00217841
0.00213921
0.00217579
0.00214183
0.00214183
0.00213921
0.00213314
0.00209396
0.00213052
0.00213052
0.00209657
0.00209657
0.00213314
0.00209396
0.00213052
0.00213052
0.00209657
0.00209657
0.00213052
0.00209657
0.00209657
0.00213314
0.00209396
0.00213052
0.00209657
0.00209657
0.00209396
0.00208789
0.00204869
0.00208526
0.00208526
0.00205131
0.00205131
0.00208789
0.00204869
0.00208526
0.00208526
0.00205131
0.00205131
0.00208526
0.00205131
0.00205131
0.00208789
0.00204869
0.00208526
0.00205131
0.00205131
0.00204869
0.00204262
0.00200342
0.00204
0.00204
0.00200604
0.00200604
0.00204262
0.00200342
0.00204
0.00204
0.00200604
0.00200604
0.00204
0.00200604
0.00200604
0.00204262
0.00200342
0.00204
0.00200604
0.00200604
0.00200342
0.00199735
0.00195815
0.00199472
0.00199472
0.00196077
0.00196077
0.00199735
0.00195815
0.00199472
0.00199472
0.00196077
0.00196077
0.00199472
0.00196077
0.00196077
0.00199735
0.00195815
0.00199472
0.00196077
0.00196077
0.00195815
0.00195208
0.00191288
0.00194945
0.00194945
0.0019155
0.0019155
0.00195208
0.00191288
0.00194945
0.00194945
0.0019155
0.0019155
0.00194945
0.0019155
0.0019155
0.00195208
0.00191288
0.00194945
0.0019155
0.0019155
0.00191288
0.00190681
0.0018676
0.00190418
0.00190418
0.00187022
0.00187022
0.00190681
0.0018676
0.00190418
0.00190418
0.00187022
0.00187022
0.00190418
0.00187022
0.00187022
0.00190681
0.0018676
0.00190418
0.00187022
0.00187022
0.0018676
0.00186153
0.00182233
0.00185891
0.0018589
0.00182495
0.00182495
0.00186153
0.00182233
0.00185891
0.00185891
0.00182495
0.00182495
0.00185891
0.00182495
0.00182495
0.00186153
0.00182233
0.00185891
0.00182495
0.00182495
0.00182233
0.00181625
0.00177705
0.00181363
0.00181363
0.00177967
0.00177967
0.00181625
0.00177705
0.00181363
0.00181363
0.00177967
0.00177967
0.00181363
0.00177967
0.00177967
0.00181625
0.00177705
0.00181363
0.00177967
0.00177967
0.00177705
0.00177098
0.00173177
0.00176835
0.00176835
0.00173439
0.00173439
0.00177098
0.00173177
0.00176835
0.00176835
0.00173439
0.00173439
0.00176835
0.00173439
0.00173439
0.00177098
0.00173177
0.00176835
0.00173439
0.00173439
0.00173177
0.0017257
0.00168649
0.00172307
0.00172307
0.00168911
0.00168911
0.0017257
0.00168649
0.00172307
0.00172307
0.00168911
0.00168911
0.00172307
0.00168911
0.00168911
0.0017257
0.00168649
0.00172307
0.00168911
0.00168911
0.00168649
0.00168041
0.00164121
0.00167779
0.00167779
0.00164383
0.00164383
0.00168041
0.00164121
0.00167779
0.00167779
0.00164383
0.00164383
0.00167779
0.00164383
0.00164383
0.00168041
0.00164121
0.00167779
0.00164383
0.00164383
0.00164121
0.00163513
0.00159592
0.00163251
0.00163251
0.00159854
0.00159854
0.00163513
0.00159592
0.00163251
0.00163251
0.00159854
0.00159854
0.00163251
0.00159854
0.00159854
0.00163513
0.00159592
0.00163251
0.00159854
0.00159854
0.00159592
0.00158985
0.00155064
0.00158722
0.00158722
0.00155326
0.00155326
0.00158985
0.00155064
0.00158722
0.00158722
0.00155326
0.00155326
0.00158722
0.00155326
0.00155326
0.00158985
0.00155064
0.00158722
0.00155326
0.00155326
0.00155064
0.00154457
0.00150536
0.00154194
0.00154194
0.00150798
0.00150798
0.00154457
0.00150536
0.00154194
0.00154194
0.00150798
0.00150798
0.00154194
0.00150798
0.00150798
0.00154457
0.00150536
0.00154194
0.00150798
0.00150798
0.00150536
0.00149929
0.00146008
0.00149666
0.00149666
0.0014627
0.0014627
0.00149928
0.00146008
0.00149666
0.00149666
0.0014627
0.0014627
0.00149666
0.0014627
0.0014627
0.00149929
0.00146008
0.00149666
0.0014627
0.0014627
0.00146008
0.001454
0.00141479
0.00145138
0.00145138
0.00141741
0.00141741
0.001454
0.00141479
0.00145138
0.00145138
0.00141741
0.00141741
0.00145138
0.00141741
0.00141741
0.001454
0.00141479
0.00145138
0.00141741
0.00141741
0.00141479
0.00140872
0.00136951
0.00140609
0.00140609
0.00137213
0.00137213
0.00140872
0.00136951
0.00140609
0.00140609
0.00137213
0.00137213
0.00140609
0.00137213
0.00137213
0.00140872
0.00136951
0.00140609
0.00137213
0.00137213
0.00136951
0.00136344
0.00132423
0.00136081
0.00136081
0.00132685
0.00132685
0.00136344
0.00132423
0.00136081
0.00136081
0.00132685
0.00132686
0.00136081
0.00132685
0.00132686
0.00136344
0.00132424
0.00136081
0.00132686
0.00132686
0.00132424
0.00131816
0.00127897
0.00131554
0.00131554
0.00128159
0.00128159
0.00131816
0.00127897
0.00131554
0.00131554
0.00128159
0.00128159
0.00131554
0.00128159
0.00128159
0.00131817
0.00127897
0.00131554
0.00128159
0.00128159
0.00127897
0.0012729
0.00123369
0.00127028
0.00127028
0.00123631
0.00123631
0.0012729
0.00123369
0.00127028
0.00127027
0.00123631
0.00123631
0.00127027
0.00123631
0.00123631
0.0012729
0.00123369
0.00127027
0.00123631
0.00123631
0.00123369
0.00122762
0.00118841
0.00122499
0.00122499
0.00119103
0.00119103
0.00122762
0.00118841
0.00122499
0.00122499
0.00119103
0.00119103
0.00122499
0.00119103
0.00119103
0.00122762
0.00118841
0.00122499
0.00119103
0.00119103
0.00118841
0.00118233
0.00114312
0.00117971
0.00117971
0.00114575
0.00114575
0.00118233
0.00114312
0.00117971
0.00117971
0.00114575
0.00114575
0.00117971
0.00114575
0.00114575
0.00118233
0.00114312
0.00117971
0.00114574
0.00114574
0.00114312
0.00113705
0.00109784
0.00113442
0.00113442
0.00110046
0.00110046
0.00113705
0.00109784
0.00113442
0.00113442
0.00110046
0.00110046
0.00113442
0.00110046
0.00110046
0.00113705
0.00109784
0.00113442
0.00110046
0.00110046
0.00109784
0.00109177
0.00105256
0.00108914
0.00108914
0.00105518
0.00105518
0.00109177
0.00105256
0.00108914
0.00108914
0.00105518
0.00105518
0.00108914
0.00105518
0.00105518
0.00109177
0.00105256
0.00108914
0.00105518
0.00105518
0.00105256
0.00104648
0.00100727
0.00104386
0.00104386
0.00100989
0.00100989
0.00104648
0.00100727
0.00104386
0.00104386
0.00100989
0.00100989
0.00104386
0.00100989
0.00100989
0.00104648
0.00100727
0.00104386
0.00100989
0.00100989
0.00100727
0.0010012
0.000961989
0.000998573
0.000998573
0.00096461
0.00096461
0.0010012
0.000961989
0.000998573
0.000998573
0.00096461
0.00096461
0.000998573
0.00096461
0.00096461
0.0010012
0.000961989
0.000998573
0.00096461
0.00096461
0.000961989
0.000955916
0.000916704
0.000953289
0.000953288
0.000919325
0.000919325
0.000955915
0.000916705
0.000953288
0.000953289
0.000919325
0.000919325
0.000953288
0.000919325
0.000919325
0.000955916
0.000916704
0.000953288
0.000919325
0.000919325
0.000916704
0.000910631
0.00087142
0.000908004
0.000908004
0.000874041
0.000874041
0.000910631
0.000871421
0.000908004
0.000908004
0.000874041
0.000874041
0.000908004
0.000874041
0.000874041
0.000910631
0.00087142
0.000908004
0.000874041
0.000874041
0.000871421
0.000865347
0.000826137
0.00086272
0.00086272
0.000828758
0.000828758
0.000865347
0.000826137
0.00086272
0.00086272
0.000828758
0.000828758
0.000862721
0.000828758
0.000828758
0.000865347
0.000826137
0.00086272
0.000828758
0.000828758
0.000826137
0.000820064
0.000780855
0.000817437
0.000817437
0.000783475
0.000783475
0.000820064
0.000780855
0.000817437
0.000817437
0.000783475
0.000783475
0.000817438
0.000783475
0.000783476
0.000820064
0.000780855
0.000817437
0.000783476
0.000783475
0.000780855
0.000774782
0.000735572
0.000772155
0.000772154
0.000738193
0.000738192
0.000774781
0.000735572
0.000772155
0.000772155
0.000738193
0.000738193
0.000772155
0.000738193
0.000738193
0.000774782
0.000735572
0.000772155
0.000738193
0.000738193
0.000735572
0.000729499
0.00069029
0.000726872
0.000726872
0.00069291
0.00069291
0.000729499
0.00069029
0.000726872
0.000726872
0.00069291
0.00069291
0.000726872
0.000692911
0.000692911
0.000729499
0.00069029
0.000726872
0.000692911
0.000692911
0.00069029
0.000684217
0.000645008
0.00068159
0.00068159
0.000647629
0.000647628
0.000684217
0.000645008
0.00068159
0.00068159
0.000647629
0.000647629
0.00068159
0.000647629
0.000647629
0.000684217
0.000645008
0.00068159
0.000647629
0.000647629
0.000645008
0.000638935
0.000599726
0.000636308
0.000636308
0.000602347
0.000602346
0.000638935
0.000599725
0.000636308
0.000636308
0.000602347
0.000602347
0.000636309
0.000602346
0.000602347
0.000638935
0.000599726
0.000636309
0.000602347
0.000602347
0.000599726
0.000593653
0.000554445
0.000591026
0.000591025
0.000557066
0.000557064
0.000593652
0.000554445
0.000591026
0.000591027
0.000557066
0.000557066
0.000591026
0.000557065
0.000557065
0.000593654
0.000554445
0.000591026
0.000557066
0.000557065
0.000554444
0.000548373
0.000509183
0.000545747
0.000545747
0.000511801
0.000511804
0.000548373
0.000509185
0.000545747
0.000545747
0.0005118
0.000511799
0.000545746
0.000511804
0.000511801
0.000548373
0.000509181
0.000545746
0.000511799
0.000511801
0.000509184
0.000503113
0.000463907
0.000500486
0.000500488
0.000466528
0.000466527
0.000503113
0.000463906
0.000500485
0.000500484
0.000466528
0.000466529
0.000500486
0.000466527
0.000466527
0.000503112
0.000463907
0.000500486
0.000466529
0.000466527
0.000463906
0.000457834
0.000418625
0.000455207
0.000455206
0.000421246
0.000421245
0.000457833
0.000418625
0.000455207
0.000455207
0.000421246
0.000421246
0.000455207
0.000421246
0.000421246
0.000457834
0.000418625
0.000455207
0.000421246
0.000421245
0.000418625
0.000412552
0.000373344
0.000409925
0.000409925
0.000375964
0.000375964
0.000412552
0.000373344
0.000409925
0.000409926
0.000375964
0.000375964
0.000409925
0.000375964
0.000375964
0.000412553
0.000373343
0.000409925
0.000375964
0.000375964
0.000373343
0.000367271
0.000328062
0.000364644
0.000364644
0.000330682
0.000330682
0.00036727
0.000328062
0.000364644
0.000364644
0.000330682
0.000330682
0.000364643
0.000330682
0.000330682
0.000367271
0.000328061
0.000364643
0.000330682
0.000330682
0.000328061
0.000321989
0.00028278
0.000319362
0.000319362
0.0002854
0.0002854
0.000321988
0.00028278
0.000319362
0.000319362
0.0002854
0.0002854
0.000319362
0.0002854
0.0002854
0.000321989
0.000282779
0.000319361
0.0002854
0.0002854
0.000282779
0.000276707
0.000237498
0.00027408
0.00027408
0.000240118
0.000240118
0.000276707
0.000237498
0.00027408
0.00027408
0.000240118
0.000240118
0.00027408
0.000240118
0.000240119
0.000276707
0.000237497
0.00027408
0.000240118
0.000240118
0.000237498
0.000231425
0.000192215
0.000228798
0.000228798
0.000194836
0.000194836
0.000231425
0.000192215
0.000228798
0.000228798
0.000194836
0.000194836
0.000228798
0.000194836
0.000194836
0.000231425
0.000192215
0.000228798
0.000194836
0.000194836
0.000192215
0.000186142
0.000146933
0.000183515
0.000183515
0.000149553
0.000149553
0.000186142
0.000146933
0.000183515
0.000183515
0.000149553
0.000149553
0.000183515
0.000149553
0.000149553
0.000186142
0.000146932
0.000183515
0.000149553
0.000149553
0.000146933
0.00014086
0.000101653
0.000138233
0.000138233
0.000104281
0.000104281
0.00014086
0.000101653
0.000138233
0.000138233
0.000104281
0.00010428
0.000138233
0.000104281
0.00010428
0.00014086
0.000101652
0.000138233
0.00010428
0.00010428
0.000101652
9.55688e-05
5.63509e-05
9.2964e-05
9.29633e-05
5.89561e-05
5.89562e-05
9.55678e-05
5.63514e-05
9.2963e-05
9.2962e-05
5.8954e-05
5.89529e-05
9.29626e-05
5.89539e-05
5.89521e-05
9.55677e-05
5.63474e-05
9.29623e-05
5.89513e-05
5.895e-05
5.6346e-05
5.00896e-05
1.51638e-05
4.76539e-05
4.7653e-05
1.73643e-05
1.73631e-05
5.00887e-05
1.51635e-05
4.76521e-05
4.76497e-05
1.73622e-05
1.73579e-05
4.76482e-05
1.73604e-05
1.73558e-05
5.00853e-05
1.5159e-05
4.76463e-05
1.73584e-05
1.73575e-05
1.51575e-05
1.13166e-05
1.16579e-05
1.16581e-05
1.13175e-05
1.16564e-05
1.16538e-05
1.11845e-05
1.11827e-05
1.1182e-05
1.16526e-05
1.13138e-05
1.16533e-05
0.00428858
0.0042983
0.00429313
0.00429313
0.00431542
0.00430224
0.00433081
0.00429633
0.00431542
0.00430225
0.00429633
0.00433081
0.0043068
0.00433454
0.00433455
0.00424376
0.00426213
0.00427169
0.00423622
0.00423595
0.00423995
0.00424374
0.00426211
0.00427168
0.0042362
0.00426674
0.00426674
0.00426674
0.00422469
0.00422469
0.00422469
0.00422469
0.00424126
0.0042666
0.00426707
0.00424976
0.00426989
0.00423994
0.00425067
0.00423605
0.00423993
0.00424127
0.00426707
0.00426662
0.00424976
0.00426988
0.00425067
0.00423994
0.00427262
0.0042726
0.00424455
0.00423908
0.00423908
0.0041989
0.00421382
0.00421539
0.00419853
0.00421367
0.00419847
0.0041989
0.00421381
0.00421539
0.00419853
0.00421351
0.0042135
0.0042135
0.00417906
0.00417906
0.00417906
0.00417906
0.00419895
0.00421522
0.00421345
0.00420199
0.00421518
0.00419914
0.00420195
0.00421366
0.00419846
0.00419895
0.00421345
0.00421522
0.00420199
0.00421517
0.00420195
0.00419915
0.00421456
0.00421456
0.00419915
0.00419887
0.00419888
0.0041535
0.00417041
0.00417044
0.00415349
0.00417042
0.00415349
0.0041535
0.00417041
0.00417044
0.00415349
0.0041677
0.0041677
0.0041677
0.00413371
0.00413371
0.00413371
0.00413371
0.00415357
0.00417041
0.00416766
0.00415632
0.00417039
0.00415353
0.00415633
0.00417042
0.00415349
0.00415357
0.00416766
0.00417041
0.00415632
0.00417039
0.00415633
0.00415353
0.00417044
0.00417044
0.0041537
0.0041535
0.0041535
0.00410824
0.00412519
0.00412518
0.00410824
0.00412519
0.00410824
0.00410824
0.00412519
0.00412518
0.00410824
0.00412239
0.00412239
0.00412239
0.00408844
0.00408844
0.00408844
0.00408844
0.00410831
0.00412515
0.00412237
0.00411105
0.00412512
0.00410827
0.00411105
0.00412519
0.00410824
0.00410831
0.00412237
0.00412515
0.00411105
0.00412512
0.00411105
0.00410827
0.00412519
0.00412519
0.00410843
0.00410824
0.00410824
0.00406298
0.00407992
0.00407992
0.00406297
0.00407993
0.00406297
0.00406298
0.00407992
0.00407992
0.00406297
0.00407712
0.00407712
0.00407712
0.00404317
0.00404317
0.00404317
0.00404317
0.00406304
0.00407989
0.0040771
0.00406578
0.00407986
0.00406301
0.00406579
0.00407992
0.00406297
0.00406304
0.0040771
0.00407989
0.00406578
0.00407986
0.00406579
0.00406301
0.00407993
0.00407993
0.00406316
0.00406297
0.00406297
0.00401771
0.00403466
0.00403465
0.00401771
0.00403467
0.00401769
0.00401771
0.00403466
0.00403465
0.00401771
0.00403185
0.00403185
0.00403185
0.0039979
0.0039979
0.0039979
0.0039979
0.00401778
0.00403462
0.00403184
0.00402051
0.00403459
0.00401774
0.00402052
0.00403466
0.00401771
0.00401778
0.00403184
0.00403462
0.00402051
0.00403459
0.00402052
0.00401774
0.00403466