/*--------------------------------*- C++ -*----------------------------------*\
| =========                 |                                                 |
| \\      /  F ield         | OpenFOAM: The Open Source CFD Toolbox           |
|  \\    /   O peration     | Version:  2206                                  |
|   \\  /    A nd           | Website:  www.openfoam.com                      |
|    \\/     M anipulation  |                                                 |
\*---------------------------------------------------------------------------*/
FoamFile
{
    version     2.0;
    format      ascii;
    arch        "LSB;label=32;scalar=64";
    class       volScalarField;
    location    "37.5";
    object      p;
}
// * * * * * * * * * * * * * * * * * * * * * * * * * * * * * * * * * * * * * //

dimensions      [0 2 -2 0 0 0 0];

internalField   nonuniform List<scalar> 
28448
(
0.00116555
0.00116551
0.00116551
0.00116789
0.00112536
0.00112532
0.00112532
0.0011277
0.00108516
0.00108512
0.00108512
0.00108751
0.00104497
0.00104493
0.00104493
0.00104731
0.00100478
0.00100473
0.00100473
0.00100712
0.000964581
0.00096454
0.000964541
0.000966925
0.000924385
0.000924345
0.000924345
0.000926729
0.000884184
0.000884143
0.000884143
0.000886527
0.000843978
0.000843937
0.000843937
0.000846321
0.000803779
0.000803739
0.000803739
0.000806123
0.000763584
0.000763543
0.000763543
0.000765927
0.00072339
0.000723349
0.000723349
0.000725733
0.000683198
0.000683157
0.000683157
0.00068554
0.000643006
0.000642965
0.000642965
0.000645349
0.000602815
0.000602774
0.000602774
0.000605157
0.000562623
0.000562583
0.000562583
0.000564966
0.000522432
0.000522391
0.000522391
0.000524775
0.00048224
0.000482199
0.00117318
0.00117556
0.00117556
0.00117318
0.00117556
0.00117556
0.00117556
0.00117556
0.00117318
0.00117556
0.00117556
0.00117318
0.0011679
0.00113299
0.00116551
0.00116551
0.00113537
0.00113537
0.0011679
0.00113299
0.00116551
0.00116551
0.00113537
0.00113537
0.00116551
0.00113537
0.00113537
0.00116789
0.00113299
0.00116551
0.00113537
0.00113537
0.00113299
0.0011277
0.0010928
0.00112532
0.00112532
0.00109517
0.00109517
0.0011277
0.0010928
0.00112532
0.00112532
0.00109517
0.00109517
0.00112532
0.00109517
0.00109517
0.0011277
0.0010928
0.00112532
0.00109517
0.00109517
0.0010928
0.00108751
0.0010526
0.00108512
0.00108512
0.00105498
0.00105498
0.00108751
0.0010526
0.00108512
0.00108512
0.00105498
0.00105498
0.00108512
0.00105498
0.00105498
0.00108751
0.0010526
0.00108512
0.00105498
0.00105498
0.0010526
0.00104731
0.00101241
0.00104493
0.00104493
0.00101478
0.00101478
0.00104731
0.00101241
0.00104493
0.00104493
0.00101478
0.00101478
0.00104493
0.00101478
0.00101478
0.00104731
0.00101241
0.00104493
0.00101478
0.00101478
0.00101241
0.00100712
0.000972213
0.00100473
0.00100473
0.000974589
0.000974589
0.00100712
0.000972214
0.00100473
0.00100473
0.000974589
0.000974589
0.00100474
0.000974589
0.00097459
0.00100712
0.000972214
0.00100473
0.00097459
0.00097459
0.000972214
0.000966924
0.000932019
0.00096454
0.00096454
0.000934394
0.000934394
0.000966924
0.000932019
0.00096454
0.000964541
0.000934394
0.000934395
0.000964541
0.000934394
0.000934395
0.000966925
0.000932019
0.000964541
0.000934395
0.000934395
0.000932019
0.000926729
0.000891819
0.000924345
0.000924345
0.000894194
0.000894194
0.000926729
0.000891818
0.000924345
0.000924345
0.000894194
0.000894194
0.000924346
0.000894194
0.000894194
0.000926729
0.000891818
0.000924345
0.000894194
0.000894194
0.000891818
0.000886528
0.000851611
0.000884143
0.000884143
0.000853989
0.000853988
0.000886528
0.000851611
0.000884143
0.000884143
0.000853988
0.000853988
0.000884143
0.000853988
0.000853988
0.000886527
0.000851611
0.000884142
0.000853988
0.000853988
0.000851611
0.000846321
0.000811412
0.000843937
0.000843937
0.000813788
0.000813788
0.000846321
0.000811412
0.000843937
0.000843937
0.000813787
0.000813788
0.000843937
0.000813788
0.000813788
0.000846321
0.000811412
0.000843937
0.000813788
0.000813788
0.000811412
0.000806122
0.000771216
0.000803738
0.000803738
0.000773592
0.000773592
0.000806122
0.000771216
0.000803738
0.000803739
0.000773592
0.000773592
0.000803739
0.000773592
0.000773592
0.000806123
0.000771216
0.000803739
0.000773592
0.000773592
0.000771216
0.000765927
0.000731022
0.000763543
0.000763543
0.000733398
0.000733398
0.000765927
0.000731022
0.000763543
0.000763543
0.000733397
0.000733398
0.000763543
0.000733398
0.000733398
0.000765927
0.000731022
0.000763543
0.000733398
0.000733398
0.000731022
0.000725733
0.000690829
0.000723349
0.000723349
0.000693205
0.000693205
0.000725733
0.000690829
0.000723349
0.000723349
0.000693205
0.000693205
0.000723349
0.000693205
0.000693205
0.000725733
0.000690829
0.000723349
0.000693205
0.000693205
0.000690829
0.00068554
0.000650637
0.000683157
0.000683157
0.000653013
0.000653013
0.00068554
0.000650637
0.000683157
0.000683157
0.000653013
0.000653013
0.000683157
0.000653013
0.000653013
0.00068554
0.000650637
0.000683157
0.000653013
0.000653013
0.000650637
0.000645349
0.000610446
0.000642965
0.000642965
0.000612822
0.000612821
0.000645349
0.000610446
0.000642965
0.000642965
0.000612821
0.000612821
0.000642965
0.000612822
0.000612822
0.000645349
0.000610446
0.000642965
0.000612821
0.000612822
0.000610446
0.000605157
0.000570255
0.000602774
0.000602774
0.00057263
0.00057263
0.000605157
0.000570255
0.000602774
0.000602774
0.00057263
0.00057263
0.000602774
0.00057263
0.000572631
0.000605157
0.000570255
0.000602774
0.00057263
0.00057263
0.000570255
0.000564966
0.000530063
0.000562583
0.000562583
0.000532439
0.000532439
0.000564966
0.000530063
0.000562582
0.000562583
0.000532439
0.000532439
0.000562583
0.000532439
0.000532439
0.000564966
0.000530063
0.000562583
0.000532439
0.000532439
0.000530063
0.000524775
0.000489872
0.000522391
0.000522391
0.000492247
0.000524775
0.000522391
0.000522391
0.000492247
0.000492247
0.000522391
0.000492247
0.000524775
0.000489872
0.000522391
0.000492247
0.000492247
0.000489871
0.000484583
0.000482199
0.000482199
0.000484583
0.0011756
0.0011756
0.0011756
0.0011756
0.00115298
0.00116803
0.00116803
0.00115298
0.00116803
0.00115298
0.00115298
0.00116803
0.00116803
0.00115298
0.00116555
0.00116555
0.00116555
0.00113541
0.00113541
0.00113541
0.00113541
0.00115303
0.00116799
0.00116552
0.00115546
0.00116799
0.00115302
0.00115547
0.00116803
0.00115298
0.00115303
0.00116552
0.00116799
0.00115546
0.00116799
0.00115547
0.00115301
0.00116803
0.00116803
0.00115309
0.00115298
0.00115298
0.00111279
0.00112783
0.00112784
0.00111279
0.00112783
0.00111279
0.00111279
0.00112783
0.00112784
0.00111279
0.00112536
0.00112536
0.00112536
0.00109521
0.00109521
0.00109521
0.00109521
0.00111284
0.0011278
0.00112533
0.00111527
0.00112779
0.00111282
0.00111528
0.00112783
0.00111279
0.00111284
0.00112533
0.0011278
0.00111527
0.00112779
0.00111528
0.00111282
0.00112784
0.00112784
0.00111289
0.00111279
0.00111279
0.0010726
0.00108764
0.00108764
0.0010726
0.00108764
0.0010726
0.0010726
0.00108764
0.00108764
0.0010726
0.00108516
0.00108516
0.00108516
0.00105502
0.00105502
0.00105502
0.00105502
0.00107264
0.00108761
0.00108513
0.00107508
0.0010876
0.00107263
0.00107509
0.00108764
0.0010726
0.00107264
0.00108513
0.00108761
0.00107508
0.0010876
0.00107508
0.00107263
0.00108764
0.00108764
0.0010727
0.00107259
0.00107259
0.0010324
0.00104744
0.00104745
0.0010324
0.00104745
0.0010324
0.0010324
0.00104744
0.00104745
0.0010324
0.00104497
0.00104497
0.00104497
0.00101482
0.00101482
0.00101482
0.00101482
0.00103245
0.00104741
0.00104494
0.00103488
0.0010474
0.00103243
0.00103489
0.00104745
0.0010324
0.00103245
0.00104494
0.00104741
0.00103488
0.0010474
0.00103489
0.00103243
0.00104745
0.00104745
0.0010325
0.0010324
0.0010324
0.000992206
0.00100725
0.00100725
0.000992208
0.00100725
0.000992207
0.000992206
0.00100725
0.00100725
0.000992208
0.00100478
0.00100478
0.00100478
0.00097463
0.00097463
0.00097463
0.00097463
0.000992255
0.00100722
0.00100474
0.000994686
0.00100721
0.000992239
0.000994696
0.00100725
0.000992207
0.000992256
0.00100474
0.00100722
0.000994687
0.00100721
0.000994696
0.00099224
0.00100725
0.00100725
0.000992311
0.000992204
0.000992204
0.000952012
0.000967055
0.000967058
0.000952013
0.000967056
0.000952012
0.000952012
0.000967055
0.000967059
0.000952013
0.000964581
0.000964582
0.000964581
0.000934435
0.000934435
0.000934435
0.000934435
0.00095206
0.000967022
0.00096455
0.000954492
0.000967015
0.000952044
0.000954501
0.000967057
0.000952012
0.000952061
0.000964551
0.000967023
0.000954492
0.000967016
0.000954502
0.000952045
0.000967061
0.000967061
0.000952117
0.000952009
0.00095201
0.000911816
0.00092686
0.000926864
0.000911818
0.000926862
0.000911817
0.000911816
0.000926861
0.000926864
0.000911818
0.000924385
0.000924386
0.000924385
0.000894235
0.000894235
0.000894235
0.000894235
0.000911864
0.000926828
0.000924355
0.000914295
0.00092682
0.000911849
0.000914305
0.000926863
0.000911817
0.000911864
0.000924355
0.000926828
0.000914295
0.00092682
0.000914305
0.000911849
0.000926866
0.000926866
0.000911919
0.000911814
0.000911814
0.000871613
0.00088666
0.000886666
0.000871613
0.000886661
0.000871611
0.000871612
0.00088666
0.000886665
0.000871613
0.000884184
0.000884184
0.000884183
0.000854029
0.000854029
0.000854029
0.000854028
0.000871658
0.000886627
0.000884153
0.000874091
0.000886619
0.000871644
0.000874101
0.00088666
0.00087161
0.000871658
0.000884152
0.000886626
0.000874091
0.000886618
0.0008741
0.000871642
0.000886664
0.000886664
0.000871714
0.000871607
0.000871607
0.000831406
0.000846451
0.000846455
0.000831407
0.000846453
0.000831406
0.000831406
0.000846451
0.000846455
0.000831408
0.000843978
0.000843978
0.000843978
0.000813829
0.000813829
0.000813829
0.000813829
0.000831455
0.000846419
0.000843947
0.000833887
0.000846411
0.000831439
0.000833897
0.000846453
0.000831407
0.000831455
0.000843947
0.000846419
0.000833887
0.000846411
0.000833897
0.000831439
0.000846457
0.000846457
0.000831511
0.000831404
0.000831404
0.00079121
0.000806253
0.000806256
0.000791211
0.000806254
0.00079121
0.00079121
0.000806253
0.000806257
0.000791211
0.000803779
0.00080378
0.000803779
0.000773633
0.000773633
0.000773633
0.000773633
0.000791258
0.00080622
0.000803748
0.00079369
0.000806213
0.000791242
0.000793699
0.000806255
0.00079121
0.000791258
0.000803748
0.000806221
0.00079369
0.000806213
0.000793699
0.000791242
0.000806259
0.000806259
0.000791314
0.000791207
0.000791207
0.000751015
0.000766057
0.000766061
0.000751016
0.000766059
0.000751015
0.000751015
0.000766057
0.000766061
0.000751016
0.000763584
0.000763584
0.000763584
0.000733438
0.000733438
0.000733438
0.000733438
0.000751063
0.000766025
0.000763553
0.000753495
0.000766018
0.000751047
0.000753504
0.000766059
0.000751015
0.000751063
0.000763553
0.000766025
0.000753495
0.000766017
0.000753504
0.000751047
0.000766063
0.000766063
0.000751119
0.000751012
0.000751012
0.000710822
0.000725863
0.000725867
0.000710823
0.000725865
0.000710821
0.000710821
0.000725863
0.000725867
0.000710823
0.00072339
0.00072339
0.00072339
0.000693246
0.000693245
0.000693246
0.000693245
0.000710869
0.000725831
0.000723359
0.000713301
0.000725823
0.000710854
0.000713311
0.000725865
0.000710821
0.00071087
0.000723359
0.000725831
0.000713301
0.000725823
0.000713311
0.000710854
0.000725869
0.000725869
0.000710925
0.000710818
0.000710818
0.000670629
0.000685671
0.000685675
0.00067063
0.000685672
0.000670629
0.000670629
0.000685671
0.000685675
0.000670631
0.000683197
0.000683198
0.000683197
0.000653054
0.000653054
0.000653054
0.000653054
0.000670677
0.000685638
0.000683166
0.000673109
0.000685631
0.000670662
0.000673118
0.000685673
0.000670629
0.000670677
0.000683166
0.000685639
0.000673109
0.000685631
0.000673118
0.000670661
0.000685676
0.000685676
0.000670733
0.000670626
0.000670626
0.000630438
0.000645479
0.000645483
0.000630439
0.000645481
0.000630438
0.000630438
0.000645479
0.000645483
0.000630439
0.000643006
0.000643006
0.000643006
0.000612862
0.000612862
0.000612862
0.000612862
0.000630486
0.000645447
0.000642975
0.000632917
0.000645439
0.00063047
0.000632927
0.000645481
0.000630438
0.000630486
0.000642975
0.000645447
0.000632917
0.000645439
0.000632927
0.00063047
0.000645485
0.000645485
0.000630542
0.000630435
0.000630435
0.000590247
0.000605288
0.000605292
0.000590248
0.000605289
0.000590247
0.000590246
0.000605288
0.000605292
0.000590248
0.000602814
0.000602814
0.000602814
0.000572671
0.000572671
0.000572671
0.000572671
0.000590295
0.000605255
0.000602783
0.000592726
0.000605248
0.000590279
0.000592736
0.000605289
0.000590246
0.000590295
0.000602783
0.000605256
0.000592726
0.000605248
0.000592736
0.000590279
0.000605293
0.000605293
0.00059035
0.000590244
0.000590243
0.000550056
0.000565097
0.0005651
0.000550057
0.000565098
0.000550055
0.000550055
0.000565097
0.000565101
0.000550057
0.000562623
0.000562623
0.000562623
0.00053248
0.00053248
0.00053248
0.00053248
0.000550103
0.000565064
0.000562592
0.000552535
0.000565057
0.000550088
0.000552544
0.000565098
0.000550055
0.000550104
0.000562592
0.000565064
0.000552535
0.000565057
0.000552544
0.000550088
0.000565102
0.000565102
0.000550159
0.000550052
0.000550052
0.000509864
0.000524905
0.000524909
0.000509865
0.000524907
0.000509864
0.000509864
0.000524905
0.000524909
0.000509865
0.000522432
0.000522432
0.000522432
0.000492288
0.000492288
0.000492288
0.000492288
0.000509912
0.000524873
0.000522401
0.000512343
0.000524865
0.000509896
0.000512353
0.000524907
0.000509864
0.000509912
0.000522401
0.000524873
0.000512343
0.000524865
0.000512353
0.000509896
0.000524911
0.000524911
0.000509967
0.00050986
0.00050986
0.000484714
0.000484718
0.00048224
0.000484715
0.000484681
0.00117308
0.00117308
0.00117308
0.00117308
0.00117308
0.00117308
0.00117308
0.00117308
0.00117311
0.00117557
0.00117313
0.00117311
0.00117557
0.00117313
0.00117308
0.00117308
0.00117308
0.00117308
0.00117308
0.00117308
0.00117311
0.00117557
0.00117313
0.00118813
0.00117308
0.00118812
0.00117308
0.00118808
0.00118561
0.00117557
0.00117311
0.00118562
0.00118809
0.00117313
0.00118808
0.00117311
0.00117557
0.00118562
0.00117313
0.00118813
0.00117308
0.00117308
0.00118808
0.00118561
0.00117557
0.00117311
0.00118562
0.00118809
0.00117313
0.00118813
0.00117308
0.00118812
0.00117308
0.00117308
0.00118812
0.00118799
0.00117308
0.00117308
0.00118813
0.00118813
0.00117308
0.00118812
0.00118808
0.00118561
0.00117557
0.00117311
0.00118562
0.00118809
0.00117313
0.00118808
0.00118561
0.00117557
0.00117311
0.00118562
0.00118809
0.00117313
0.00118813
0.00117308
0.00118812
0.00117308
0.00118813
0.00117308
0.00118812
0.00117308
0.00118799
0.00117308
0.00117308
0.00118813
0.00118813
0.00117308
0.00118812
0.00117308
0.00118812
0.00116803
0.00115298
0.00116803
0.00115298
0.00116803
0.00116803
0.00115309
0.00115298
0.00115298
0.00113289
0.00114793
0.00113289
0.00114793
0.0011478
0.00113288
0.00113288
0.00114793
0.00114793
0.00115298
0.00116803
0.00116803
0.00115298
0.00115303
0.00116799
0.00116552
0.00115546
0.00116799
0.00115302
0.00115547
0.00115303
0.00116799
0.00116552
0.00115546
0.00116799
0.00115302
0.00115547
0.00114793
0.00113289
0.00114793
0.00113289
0.00114793
0.00113289
0.00114793
0.00113289
0.00114789
0.00114541
0.00113292
0.00113538
0.0011479
0.00114542
0.00113293
0.00114789
0.00114541
0.00113292
0.00113538
0.0011479
0.00114542
0.00113293
0.00116803
0.00116803
0.00115309
0.00115298
0.00115298
0.00116803
0.00115298
0.00113289
0.00114793
0.0011478
0.00113288
0.00113288
0.00114793
0.00114793
0.00113289
0.00114793
0.00115303
0.00116799
0.00116552
0.00115546
0.00116799
0.00115302
0.00115547
0.00115298
0.00116803
0.00116803
0.00115298
0.00115303
0.00116552
0.00116799
0.00115546
0.00116799
0.00115547
0.00115302
0.00114793
0.00113289
0.00114793
0.00113289
0.00114789
0.00114541
0.00113292
0.00113538
0.0011479
0.00114542
0.00113293
0.00114793
0.00113289
0.00114793
0.00113289
0.00114789
0.00114541
0.00113538
0.00113292
0.00114542
0.0011479
0.00113293
0.00115298
0.00116803
0.00116803
0.00115298
0.00115303
0.00116552
0.00116799
0.00115546
0.00116799
0.00115547
0.00115301
0.00115298
0.00116803
0.00116803
0.00115298
0.00114789
0.00114541
0.00113292
0.00113538
0.0011479
0.00114542
0.00113293
0.00114793
0.00113289
0.00114793
0.00113289
0.00114789
0.00114541
0.00113538
0.00113292
0.00114542
0.0011479
0.00113293
0.00114793
0.00113289
0.00114793
0.00113289
0.00116803
0.00116803
0.00115309
0.00115298
0.00115298
0.00116803
0.00115298
0.00113289
0.00114793
0.0011478
0.00113288
0.00113288
0.00114793
0.00114793
0.00113289
0.00114793
0.00115303
0.00116552
0.00116799
0.00115546
0.00116799
0.00115547
0.00115301
0.00115298
0.00116803
0.00116803
0.00115298
0.00115298
0.00116802
0.00116803
0.00115298
0.00114789
0.00114541
0.00113538
0.00113292
0.00114542
0.0011479
0.00113293
0.00114789
0.00114541
0.00113538
0.00113292
0.00114542
0.0011479
0.00113293
0.00114793
0.00113289
0.00114793
0.00113289
0.00114793
0.00113289
0.00114793
0.00113289
0.00116803
0.00115298
0.00116803
0.00115298
0.0011478
0.00113288
0.00113288
0.00114793
0.00114793
0.00113289
0.00114793
0.00113289
0.00114793
0.00112783
0.00111279
0.00112783
0.00111279
0.00112784
0.00112784
0.00111289
0.00111279
0.00111279
0.00109269
0.00110774
0.00109269
0.00110774
0.0011076
0.00109269
0.00109269
0.00110774
0.00110774
0.00111279
0.00112783
0.00112784
0.00111279
0.00111284
0.0011278
0.00112533
0.00111527
0.00112779
0.00111282
0.00111528
0.00111284
0.0011278
0.00112533
0.00111527
0.00112779
0.00111282
0.00111528
0.00110774
0.00109269
0.00110773
0.00109269
0.00110774
0.00109269
0.00110773
0.00109269
0.0011077
0.00110522
0.00109273
0.00109518
0.0011077
0.00110523
0.00109274
0.0011077
0.00110522
0.00109273
0.00109518
0.0011077
0.00110523
0.00109274
0.00112784
0.00112784
0.00111289
0.00111279
0.00111279
0.00112783
0.00111279
0.00109269
0.00110774
0.0011076
0.00109269
0.00109269
0.00110774
0.00110774
0.00109269
0.00110774
0.00111284
0.0011278
0.00112533
0.00111527
0.00112779
0.00111282
0.00111528
0.00111279
0.00112783
0.00112784
0.00111279
0.00111284
0.00112533
0.0011278
0.00111527
0.00112779
0.00111528
0.00111282
0.00110774
0.00109269
0.00110773
0.00109269
0.0011077
0.00110522
0.00109273
0.00109518
0.0011077
0.00110523
0.00109274
0.00110774
0.00109269
0.00110773
0.00109269
0.0011077
0.00110522
0.00109518
0.00109273
0.00110523
0.0011077
0.00109274
0.00111279
0.00112783
0.00112784
0.00111279
0.00111284
0.00112533
0.0011278
0.00111527
0.00112779
0.00111528
0.00111282
0.00111279
0.00112783
0.00112784
0.00111279
0.0011077
0.00110522
0.00109273
0.00109518
0.0011077
0.00110523
0.00109274
0.00110774
0.00109269
0.00110774
0.00109269
0.0011077
0.00110522
0.00109518
0.00109273
0.00110523
0.0011077
0.00109274
0.00110774
0.00109269
0.00110774
0.00109269
0.00112784
0.00112784
0.00111289
0.00111279
0.00111279
0.00112783
0.00111279
0.00109269
0.00110774
0.0011076
0.00109269
0.00109269
0.00110774
0.00110774
0.00109269
0.00110774
0.00111284
0.00112533
0.0011278
0.00111527
0.00112779
0.00111528
0.00111282
0.00111279
0.00112783
0.00112784
0.00111279
0.00111279
0.00112783
0.00112784
0.00111279
0.0011077
0.00110522
0.00109518
0.00109273
0.00110523
0.0011077
0.00109274
0.0011077
0.00110522
0.00109518
0.00109273
0.00110523
0.0011077
0.00109274
0.00110774
0.00109269
0.00110773
0.00109269
0.00110774
0.00109269
0.00110774
0.00109269
0.00112783
0.00111279
0.00112783
0.00111279
0.0011076
0.00109269
0.00109269
0.00110774
0.00110774
0.00109269
0.00110774
0.00109269
0.00110774
0.00108764
0.0010726
0.00108764
0.0010726
0.00108764
0.00108764
0.0010727
0.00107259
0.00107259
0.0010525
0.00106754
0.0010525
0.00106754
0.00106741
0.0010525
0.0010525
0.00106755
0.00106755
0.0010726
0.00108764
0.00108764
0.0010726
0.00107264
0.00108761
0.00108513
0.00107508
0.0010876
0.00107263
0.00107509
0.00107264
0.00108761
0.00108513
0.00107508
0.0010876
0.00107263
0.00107509
0.00106754
0.0010525
0.00106754
0.0010525
0.00106754
0.0010525
0.00106754
0.0010525
0.0010675
0.00106503
0.00105253
0.00105499
0.00106751
0.00106504
0.00105255
0.0010675
0.00106503
0.00105253
0.00105499
0.00106751
0.00106504
0.00105255
0.00108764
0.00108764
0.0010727
0.00107259
0.00107259
0.00108764
0.0010726
0.0010525
0.00106754
0.00106741
0.0010525
0.0010525
0.00106755
0.00106755
0.0010525
0.00106754
0.00107264
0.00108761
0.00108513
0.00107508
0.0010876
0.00107263
0.00107509
0.0010726
0.00108764
0.00108764
0.0010726
0.00107264
0.00108513
0.00108761
0.00107508
0.0010876
0.00107509
0.00107263
0.00106754
0.0010525
0.00106754
0.0010525
0.0010675
0.00106503
0.00105253
0.00105499
0.00106751
0.00106504
0.00105255
0.00106754
0.0010525
0.00106754
0.0010525
0.0010675
0.00106503
0.00105499
0.00105253
0.00106504
0.00106751
0.00105255
0.0010726
0.00108764
0.00108764
0.0010726
0.00107264
0.00108513
0.00108761
0.00107508
0.0010876
0.00107509
0.00107263
0.0010726
0.00108764
0.00108764
0.0010726
0.0010675
0.00106503
0.00105253
0.00105499
0.00106751
0.00106504
0.00105255
0.00106754
0.0010525
0.00106754
0.0010525
0.0010675
0.00106503
0.00105499
0.00105253
0.00106504
0.00106751
0.00105255
0.00106754
0.0010525
0.00106754
0.0010525
0.00108764
0.00108764
0.0010727
0.00107259
0.00107259
0.00108764
0.0010726
0.0010525
0.00106754
0.00106741
0.0010525
0.00105249
0.00106755
0.00106755
0.0010525
0.00106754
0.00107264
0.00108513
0.00108761
0.00107508
0.0010876
0.00107509
0.00107263
0.0010726
0.00108764
0.00108764
0.0010726
0.0010726
0.00108764
0.00108764
0.0010726
0.0010675
0.00106503
0.00105499
0.00105253
0.00106504
0.00106751
0.00105255
0.0010675
0.00106503
0.00105499
0.00105253
0.00106504
0.00106751
0.00105255
0.00106754
0.0010525
0.00106754
0.0010525
0.00106754
0.0010525
0.00106754
0.0010525
0.00108764
0.0010726
0.00108764
0.0010726
0.00106741
0.0010525
0.00105249
0.00106755
0.00106755
0.0010525
0.00106754
0.0010525
0.00106754
0.00104745
0.0010324
0.00104745
0.0010324
0.00104745
0.00104745
0.00103251
0.0010324
0.0010324
0.0010123
0.00102735
0.0010123
0.00102735
0.00102722
0.0010123
0.0010123
0.00102735
0.00102735
0.0010324
0.00104744
0.00104745
0.0010324
0.00103245
0.00104741
0.00104494
0.00103488
0.0010474
0.00103243
0.00103489
0.00103245
0.00104741
0.00104494
0.00103488
0.0010474
0.00103243
0.00103489
0.00102735
0.0010123
0.00102735
0.0010123
0.00102735
0.0010123
0.00102735
0.0010123
0.00102731
0.00102483
0.00101234
0.00101479
0.00102731
0.00102484
0.00101235
0.00102731
0.00102483
0.00101234
0.00101479
0.00102731
0.00102484
0.00101235
0.00104745
0.00104745
0.00103251
0.0010324
0.0010324
0.00104745
0.0010324
0.0010123
0.00102735
0.00102722
0.0010123
0.0010123
0.00102735
0.00102735
0.0010123
0.00102735
0.00103245
0.00104741
0.00104494
0.00103488
0.0010474
0.00103243
0.00103489
0.0010324
0.00104744
0.00104745
0.0010324
0.00103245
0.00104494
0.00104741
0.00103488
0.0010474
0.00103489
0.00103243
0.00102735
0.0010123
0.00102735
0.0010123
0.00102731
0.00102483
0.00101234
0.00101479
0.00102731
0.00102484
0.00101235
0.00102735
0.00101231
0.00102735
0.0010123
0.00102731
0.00102483
0.00101479
0.00101234
0.00102484
0.00102731
0.00101235
0.0010324
0.00104744
0.00104745
0.0010324
0.00103245
0.00104494
0.00104741
0.00103488
0.0010474
0.00103489
0.00103243
0.0010324
0.00104744
0.00104745
0.0010324
0.00102731
0.00102483
0.00101234
0.00101479
0.00102731
0.00102484
0.00101235
0.00102735
0.00101231
0.00102735
0.0010123
0.00102731
0.00102483
0.00101479
0.00101234
0.00102484
0.00102731
0.00101235
0.00102735
0.00101231
0.00102735
0.0010123
0.00104745
0.00104745
0.0010325
0.0010324
0.0010324
0.00104744
0.0010324
0.0010123
0.00102735
0.00102722
0.0010123
0.0010123
0.00102735
0.00102735
0.0010123
0.00102735
0.00103245
0.00104494
0.00104741
0.00103488
0.0010474
0.00103489
0.00103243
0.0010324
0.00104744
0.00104745
0.0010324
0.0010324
0.00104744
0.00104745
0.0010324
0.0010273
0.00102483
0.00101479
0.00101234
0.00102484
0.00102731
0.00101235
0.00102731
0.00102483
0.00101479
0.00101234
0.00102484
0.00102731
0.00101235
0.00102735
0.0010123
0.00102735
0.0010123
0.00102735
0.0010123
0.00102735
0.0010123
0.00104745
0.0010324
0.00104744
0.0010324
0.00102722
0.0010123
0.0010123
0.00102735
0.00102735
0.0010123
0.00102735
0.0010123
0.00102735
0.00100725
0.000992207
0.00100725
0.000992207
0.00100725
0.00100725
0.000992311
0.000992203
0.000992203
0.00097211
0.000987153
0.00097211
0.000987153
0.000987021
0.000972106
0.000972106
0.000987157
0.000987157
0.000992206
0.00100725
0.00100725
0.000992208
0.000992255
0.00100722
0.00100474
0.000994686
0.00100721
0.000992239
0.000994696
0.000992254
0.00100722
0.00100474
0.000994686
0.00100721
0.000992239
0.000994696
0.000987155
0.00097211
0.000987152
0.000972109
0.000987155
0.000972111
0.000987152
0.000972109
0.000987112
0.000984638
0.000972141
0.000974599
0.000987119
0.000984647
0.000972157
0.000987112
0.000984638
0.000972141
0.000974599
0.000987119
0.000984647
0.000972157
0.00100725
0.00100725
0.000992311
0.000992203
0.000992204
0.00100725
0.000992207
0.00097211
0.000987153
0.000987021
0.000972106
0.000972107
0.000987157
0.000987157
0.000972109
0.000987154
0.000992255
0.00100722
0.00100474
0.000994686
0.00100721
0.000992239
0.000994696
0.000992206
0.00100725
0.00100725
0.000992208
0.000992255
0.00100474
0.00100722
0.000994686
0.00100721
0.000994696
0.000992239
0.000987156
0.000972111
0.000987152
0.00097211
0.000987112
0.000984638
0.000972142
0.000974599
0.000987119
0.000984647
0.000972158
0.000987156
0.000972111
0.000987152
0.00097211
0.000987112
0.000984638
0.000974599
0.000972142
0.000984647
0.00098712
0.000972158
0.000992207
0.00100725
0.00100725
0.000992208
0.000992255
0.00100474
0.00100722
0.000994687
0.00100721
0.000994696
0.000992239
0.000992207
0.00100725
0.00100725
0.000992208
0.000987112
0.000984638
0.000972142
0.000974599
0.000987119
0.000984647
0.000972158
0.000987156
0.000972111
0.000987152
0.00097211
0.000987112
0.000984638
0.000974599
0.000972142
0.000984648
0.00098712
0.000972158
0.000987156
0.000972111
0.000987152
0.00097211
0.00100725
0.00100725
0.000992311
0.000992204
0.000992204
0.00100725
0.000992208
0.00097211
0.000987154
0.000987022
0.000972107
0.000972107
0.000987158
0.000987159
0.000972111
0.000987155
0.000992255
0.00100474
0.00100722
0.000994686
0.00100721
0.000994696
0.000992239
0.000992209
0.00100725
0.00100725
0.000992209
0.000992207
0.00100725
0.00100725
0.000992208
0.000987113
0.000984638
0.000974599
0.000972142
0.000984648
0.000987121
0.000972159
0.000987113
0.000984638
0.000974599
0.000972143
0.000984648
0.00098712
0.00097216
0.000987157
0.000972112
0.000987153
0.000972112
0.000987158
0.000972113
0.000987153
0.000972113
0.00100725
0.000992207
0.00100725
0.000992207
0.000987022
0.000972107
0.000972107
0.000987158
0.000987158
0.00097211
0.000987154
0.000972111
0.000987154
0.000967056
0.000952012
0.000967057
0.000952012
0.00096706
0.00096706
0.000952116
0.000952008
0.000952009
0.000931915
0.000946958
0.000931915
0.000946959
0.000946827
0.000931912
0.000931912
0.000946963
0.000946963
0.000952012
0.000967055
0.000967059
0.000952013
0.00095206
0.000967022
0.00096455
0.000954492
0.000967015
0.000952044
0.000954501
0.00095206
0.000967022
0.00096455
0.000954491
0.000967015
0.000952044
0.000954501
0.000946961
0.000931916
0.000946957
0.000931915
0.000946961
0.000931916
0.000946957
0.000931915
0.000946917
0.000944443
0.000931947
0.000934403
0.000946925
0.000944452
0.000931963
0.000946917
0.000944443
0.000931947
0.000934403
0.000946925
0.000944452
0.000931963
0.00096706
0.00096706
0.000952116
0.000952009
0.000952009
0.000967057
0.000952012
0.000931915
0.000946958
0.000946826
0.000931912
0.000931912
0.000946962
0.000946963
0.000931915
0.000946959
0.00095206
0.000967022
0.00096455
0.000954491
0.000967015
0.000952044
0.000954501
0.000952012
0.000967055
0.000967059
0.000952014
0.00095206
0.00096455
0.000967023
0.000954492
0.000967015
0.000954502
0.000952045
0.000946962
0.000931916
0.000946957
0.000931916
0.000946918
0.000944443
0.000931947
0.000934404
0.000946925
0.000944453
0.000931963
0.000946962
0.000931917
0.000946958
0.000931915
0.000946918
0.000944443
0.000934404
0.000931948
0.000944453
0.000946925
0.000931963
0.000952012
0.000967055
0.000967058
0.000952013
0.000952061
0.00096455
0.000967023
0.000954492
0.000967015
0.000954502
0.000952045
0.000952013
0.000967055
0.000967058
0.000952014
0.000946918
0.000944443
0.000931947
0.000934404
0.000946925
0.000944453
0.000931963
0.000946962
0.000931916
0.000946957
0.000931915
0.000946918
0.000944443
0.000934404
0.000931948
0.000944453
0.000946926
0.000931963
0.000946962
0.000931917
0.000946958
0.000931915
0.00096706
0.000967061
0.000952117
0.00095201
0.00095201
0.000967057
0.000952013
0.000931916
0.00094696
0.000946828
0.000931913
0.000931913
0.000946963
0.000946964
0.000931916
0.00094696
0.000952061
0.000964551
0.000967024
0.000954492
0.000967017
0.000954502
0.000952045
0.000952013
0.000967056
0.00096706
0.000952014
0.000952013
0.000967057
0.000967061
0.000952014
0.000946918
0.000944443
0.000934404
0.000931948
0.000944453
0.000946926
0.000931963
0.000946918
0.000944444
0.000934404
0.000931948
0.000944453
0.000946926
0.000931963
0.000946962
0.000931917
0.000946958
0.000931916
0.000946962
0.000931917
0.000946958
0.000931916
0.000967056
0.000952013
0.000967058
0.000952013
0.000946828
0.000931912
0.000931913
0.000946964
0.000946964
0.000931916
0.00094696
0.000931916
0.00094696
0.000926862
0.000911817
0.000926862
0.000911817
0.000926866
0.000926866
0.00091192
0.000911814
0.000911814
0.000891716
0.000906763
0.000891716
0.000906763
0.00090663
0.000891713
0.000891713
0.000906767
0.000906768
0.000911816
0.00092686
0.000926864
0.000911818
0.000911864
0.000926828
0.000924355
0.000914296
0.00092682
0.000911849
0.000914305
0.000911864
0.000926828
0.000924355
0.000914296
0.00092682
0.000911849
0.000914305
0.000906765
0.000891717
0.000906762
0.000891718
0.000906765
0.000891717
0.000906762
0.000891718
0.000906721
0.000904245
0.000891748
0.000894204
0.000906729
0.000904255
0.000891764
0.000906721
0.000904245
0.000891748
0.000894204
0.000906729
0.000904255
0.000891764
0.000926866
0.000926866
0.00091192
0.000911814
0.000911814
0.000926862
0.000911817
0.000891716
0.000906763
0.000906629
0.000891713