/*--------------------------------*- C++ -*----------------------------------*\
| =========                 |                                                 |
| \\      /  F ield         | OpenFOAM: The Open Source CFD Toolbox           |
|  \\    /   O peration     | Version:  2206                                  |
|   \\  /    A nd           | Website:  www.openfoam.com                      |
|    \\/     M anipulation  |                                                 |
\*---------------------------------------------------------------------------*/
FoamFile
{
    version     2.0;
    format      ascii;
    arch        "LSB;label=32;scalar=64";
    class       surfaceScalarField;
    location    "37.5";
    object      phi;
}
// * * * * * * * * * * * * * * * * * * * * * * * * * * * * * * * * * * * * * //

dimensions      [0 3 -1 0 0 0 0];

oriented        oriented;

internalField   nonuniform List<scalar> 
82026
(
1.82005e-09
1.96918e-09
-0.00109516
-1.9234e-09
-1.93282e-09
0.00109516
-0.00109452
-1.21911e-06
-2.00614e-09
3.5848e-09
0.00109452
-2.63359e-07
1.22224e-06
2.61923e-07
9.09028e-07
-2.69161e-07
-9.08419e-07
2.65294e-07
-0.00109418
-1.21367e-06
-2.0511e-09
3.58185e-09
0.00109418
-2.6335e-07
1.21677e-06
2.61937e-07
9.08867e-07
-2.71814e-07
-9.08283e-07
2.68013e-07
-0.000268745
1.24758e-06
1.21381e-06
-2.37811e-07
-2.43129e-07
0.000266764
1.89018e-09
2.05379e-09
-0.00109516
-1.96523e-09
-1.9533e-09
0.00109516
-0.00109452
-1.21909e-06
-2.0758e-09
3.57345e-09
0.00109452
-2.63343e-07
1.22224e-06
2.61929e-07
9.09034e-07
-2.6912e-07
-9.08399e-07
2.65326e-07
-0.00109418
-1.21366e-06
-2.13495e-09
3.55609e-09
0.00109418
-2.63331e-07
1.21678e-06
2.61948e-07
9.08877e-07
-2.71774e-07
-9.08263e-07
2.68043e-07
-0.000268745
1.24757e-06
1.21379e-06
-2.37794e-07
-2.4311e-07
0.000266764
1.90511e-09
2.08458e-09
-0.00109516
-1.96975e-09
-1.95231e-09
0.00109516
-0.00109452
-1.21907e-06
-2.12565e-09
3.54813e-09
0.00109452
-2.63331e-07
1.22225e-06
2.61939e-07
9.09047e-07
-2.69099e-07
-9.08391e-07
2.65351e-07
-0.00109417
-1.21365e-06
-2.18225e-09
3.53901e-09
0.00109417
-2.63323e-07
1.21679e-06
2.61957e-07
9.08888e-07
-2.71758e-07
-9.08256e-07
2.68062e-07
-0.000268745
1.24756e-06
1.21378e-06
-2.37784e-07
-2.43103e-07
0.000266764
1.89319e-09
2.10644e-09
-0.00109516
-1.98165e-09
-1.93351e-09
0.00109516
-0.00109452
-1.21907e-06
-2.15848e-09
3.576e-09
0.00109452
-2.63335e-07
1.22225e-06
2.61938e-07
9.09064e-07
-2.69078e-07
-9.08377e-07
2.65376e-07
-0.00109417
-1.21364e-06
-2.292e-09
3.52957e-09
0.00109417
-2.63318e-07
1.21678e-06
2.61961e-07
9.08916e-07
-2.71716e-07
-9.08235e-07
2.68109e-07
-0.000268744
1.24754e-06
1.21377e-06
-2.37769e-07
-2.4308e-07
0.000266764
1.93489e-09
2.13445e-09
-0.00109516
-1.99891e-09
-1.93166e-09
0.00109516
-0.00109452
-1.21906e-06
-2.15525e-09
3.59195e-09
0.00109452
-2.63331e-07
1.22226e-06
2.6195e-07
9.09094e-07
-2.69062e-07
-9.08365e-07
2.65409e-07
-0.00109417
-1.21364e-06
-2.39792e-09
3.58694e-09
0.00109417
-2.63329e-07
1.21679e-06
2.6196e-07
9.08998e-07
-2.71674e-07
-9.08166e-07
2.68164e-07
-0.000268744
1.24751e-06
1.21378e-06
-2.37776e-07
-2.4305e-07
0.000266764
2.19816e-09
2.29421e-09
-0.00109516
-2.05606e-09
-2.10411e-09
0.00109516
-0.00109452
-1.21902e-06
-2.25914e-09
3.43964e-09
0.00109452
-2.63288e-07
1.22233e-06
2.6201e-07
9.09162e-07
-2.69029e-07
-9.08322e-07
2.65465e-07
-0.00109417
-1.21361e-06
-2.22826e-09
3.55457e-09
0.00109417
-2.63303e-07
1.21684e-06
2.62011e-07
9.08989e-07
-2.71702e-07
-9.08196e-07
2.68165e-07
-0.000268744
1.24751e-06
1.21375e-06
-2.3773e-07
-2.43036e-07
0.000266763
2.42908e-09
2.46582e-09
-0.00109516
-2.12499e-09
-2.24424e-09
0.00109516
-0.00109452
-1.21899e-06
-2.50177e-09
3.20444e-09
0.00109451
-2.63262e-07
1.2224e-06
2.62079e-07
9.09211e-07
-2.69023e-07
-9.08321e-07
2.65516e-07
-0.00109417
-1.21355e-06
-2.40658e-09
3.33348e-09
0.00109417
-2.63271e-07
1.21693e-06
2.62075e-07
9.09035e-07
-2.71709e-07
-9.08194e-07
2.68199e-07
-0.000268743
1.24749e-06
1.21369e-06
-2.37693e-07
-2.43034e-07
0.000266763
5.72717e-10
6.00208e-10
-0.00109516
-1.27746e-09
-1.35895e-09
0.00109516
-0.00109452
-1.21937e-06
-6.08701e-10
4.02677e-09
0.00109452
-2.63663e-07
1.22197e-06
2.61643e-07
9.08561e-07
-2.69713e-07
-9.08959e-07
2.64797e-07
-0.00109417
-1.21404e-06
-5.44407e-10
4.15712e-09
0.00109417
-2.63755e-07
1.21646e-06
2.61616e-07
9.08363e-07
-2.72452e-07
-9.08891e-07
2.67471e-07
-0.000268743
1.24798e-06
1.21419e-06
-2.38277e-07
-2.43611e-07
0.000266763
1.48353e-09
1.90735e-09
-0.00109516
-1.85323e-09
-1.64764e-09
0.00109516
-0.00109452
-1.21923e-06
-2.05087e-09
3.82233e-09
0.00109452
-2.63509e-07
1.22222e-06
2.61908e-07
9.09069e-07
-2.69321e-07
-9.08529e-07
2.65312e-07
-0.00109418
-1.21367e-06
-2.35849e-09
3.47522e-09
0.00109418
-2.63348e-07
1.21686e-06
2.62049e-07
9.08951e-07
-2.71893e-07
-9.0834e-07
2.68087e-07
-0.000268745
1.24753e-06
1.21379e-06
-2.37819e-07
-2.43104e-07
0.000266764
2.13518e-09
2.26697e-09
-0.00109516
-2.0872e-09
-2.10961e-09
0.00109516
-0.00109452
-1.21904e-06
-2.27156e-09
3.38446e-09
0.00109452
-2.63307e-07
1.22235e-06
2.62046e-07
9.09124e-07
-2.69142e-07
-9.08418e-07
2.6542e-07
-0.00109418
-1.21364e-06
-2.25052e-09
3.47089e-09
0.00109418
-2.63328e-07
1.21685e-06
2.6203e-07
9.08948e-07
-2.71813e-07
-9.08294e-07
2.68112e-07
-0.000268745
1.24756e-06
1.21378e-06
-2.37781e-07
-2.43098e-07
0.000266764
1.93379e-09
2.04849e-09
-0.00109516
-1.96594e-09
-2.00401e-09
0.00109516
-0.00109452
-1.2191e-06
-2.06367e-09
3.51068e-09
0.00109452
-2.63375e-07
1.22229e-06
2.6198e-07
9.09077e-07
-2.69199e-07
-9.0847e-07
2.65363e-07
-0.00109418
-1.21369e-06
-2.07439e-09
3.56078e-09
0.00109418
-2.63377e-07
1.21681e-06
2.61987e-07
9.08904e-07
-2.71862e-07
-9.08344e-07
2.68067e-07
-0.000268745
1.2476e-06
1.21382e-06
-2.37828e-07
-2.43152e-07
0.000266764
1.8719e-09
2.00976e-09
-0.00109516
-1.94097e-09
-1.95846e-09
0.00109516
-0.00109452
-1.21912e-06
-2.02914e-09
3.55217e-09
0.00109452
-2.63392e-07
1.22228e-06
2.61969e-07
9.09069e-07
-2.69208e-07
-9.0848e-07
2.6536e-07
-0.00109418
-1.21369e-06
-2.06496e-09
3.57615e-09
0.00109418
-2.63384e-07
1.21681e-06
2.61982e-07
9.08901e-07
-2.71865e-07
-9.08349e-07
2.68066e-07
-0.000268745
1.24761e-06
1.21383e-06
-2.37836e-07
-2.43156e-07
0.000266764
1.86269e-09
2.00303e-09
-0.00109516
-1.93526e-09
-1.95059e-09
0.00109516
-0.00109452
-1.21912e-06
-2.0286e-09
3.56306e-09
0.00109452
-2.63394e-07
1.22228e-06
2.61965e-07
9.0907e-07
-2.69208e-07
-9.08479e-07
2.65357e-07
-0.00109418
-1.21369e-06
-2.06124e-09
3.58479e-09
0.00109418
-2.63385e-07
1.21681e-06
2.61978e-07
9.08899e-07
-2.71865e-07
-9.08349e-07
2.68061e-07
-0.000268745
1.24761e-06
1.21383e-06
-2.37836e-07
-2.43155e-07
0.000266764
1.85474e-09
1.9967e-09
-0.00109516
-1.9306e-09
-1.94464e-09
0.00109516
-0.00109452
-1.21912e-06
-2.02723e-09
3.56565e-09
0.00109452
-2.63394e-07
1.22228e-06
2.61964e-07
9.09068e-07
-2.69206e-07
-9.08477e-07
2.65355e-07
-0.00109418
-1.2137e-06
-2.05751e-09
3.58949e-09
0.00109418
-2.63387e-07
1.2168e-06
2.61976e-07
9.08897e-07
-2.71866e-07
-9.08349e-07
2.6806e-07
-0.000268745
1.24761e-06
1.21383e-06
-2.37836e-07
-2.43156e-07
0.000266764
1.85204e-09
1.99812e-09
-0.00109516
-1.93127e-09
-1.94084e-09
0.00109516
-0.00109452
-1.21912e-06
-2.02521e-09
3.56944e-09
0.00109452
-2.63394e-07
1.22227e-06
2.61961e-07
9.09066e-07
-2.69203e-07
-9.08476e-07
2.65352e-07
-0.00109418
-1.21369e-06
-2.0655e-09
3.5865e-09
0.00109418
-2.63385e-07
1.21681e-06
2.61978e-07
9.08898e-07
-2.71862e-07
-9.08346e-07
2.6806e-07
-0.000268745
1.24761e-06
1.21383e-06
-2.37835e-07
-2.43154e-07
0.000266764
1.85566e-09
2.00237e-09
-0.00109516
-1.93475e-09
-1.9444e-09
0.00109516
-0.00109452
-1.21912e-06
-2.02472e-09
3.56622e-09
0.00109452
-2.63389e-07
1.22227e-06
2.61959e-07
9.09059e-07
-2.69196e-07
-9.08471e-07
2.65343e-07
-0.00109418
-1.21369e-06
-2.06425e-09
3.58377e-09
0.00109418
-2.63382e-07
1.2168e-06
2.61976e-07
9.08891e-07
-2.71857e-07
-9.08341e-07
2.68054e-07
-0.000268745
1.2476e-06
1.21383e-06
-2.37833e-07
-2.43151e-07
0.000266764
1.85336e-09
2.00387e-09
-0.00109516
-1.93516e-09
-1.94275e-09
0.00109516
-0.00109452
-1.21911e-06
-2.0285e-09
3.56329e-09
0.00109452
-2.63376e-07
1.22227e-06
2.61948e-07
9.09046e-07
-2.69176e-07
-9.08456e-07
2.65326e-07
-0.00109418
-1.21369e-06
-2.06266e-09
3.58e-09
0.00109418
-2.63375e-07
1.2168e-06
2.61971e-07
9.08877e-07
-2.71845e-07
-9.08329e-07
2.68041e-07
-0.000268745
1.2476e-06
1.21382e-06
-2.37826e-07
-2.43144e-07
0.000266764
2.00257e-09
-0.00109516
-1.9359e-09
-0.00109418
-1.21368e-06
-2.05645e-09
-2.63352e-07
1.2168e-06
2.61949e-07
-2.71817e-07
2.68012e-07
-1.25604e-06
-1.21957e-06
0.000268761
-0.00026677
2.38325e-07
2.46201e-07
0.00109373
-1.85688e-09
3.76722e-09
-1.25297e-06
2.67287e-07
-2.68847e-07
-9.08406e-07
2.65184e-07
-2.69149e-07
9.08913e-07
1.26154e-06
0.00109417
-1.72088e-09
3.7668e-09
-1.25846e-06
2.70106e-07
-2.71641e-07
-9.1408e-07
2.6797e-07
-2.72039e-07
9.14524e-07
-1.22226e-06
0.00026879
-0.000266791
2.41155e-07
2.43442e-07
0.00109479
-1.98428e-09
3.57214e-09
-1.21649e-06
2.64738e-07
-2.6618e-07
-9.11174e-07
2.68067e-07
-2.71973e-07
9.11811e-07
1.25607e-06
0.00109384
-1.76175e-09
-0.00109384
3.80069e-09
-1.25304e-06
2.70071e-07
-2.7164e-07
-9.11172e-07
2.6797e-07
-2.71937e-07
9.11645e-07
-2.00531e-09
3.5711e-09
-1.21911e-06
2.61925e-07
-2.63363e-07
-9.08434e-07
2.6529e-07
9.09017e-07
-2.6917e-07
1.25064e-06
0.00109364
-1.79289e-09
-0.00109364
3.7633e-09
-1.24759e-06
2.64533e-07
-2.6603e-07
-9.08452e-07
2.65173e-07
-2.69162e-07
9.08924e-07
-1.21677e-06
0.00026874
-0.000266751
2.38531e-07
2.45964e-07
-2.04227e-09
-0.00109418
3.58564e-09
-1.21367e-06
2.61937e-07
-2.6335e-07
-9.08243e-07
2.67985e-07
9.08913e-07
-2.71845e-07
1.21686e-06
0.00109469
-1.8468e-09
-0.00109469
3.57283e-09
-1.21381e-06
2.61977e-07
-2.63426e-07
-9.08549e-07
2.68049e-07
-2.71974e-07
9.09145e-07
-0.000266764
2.40852e-07
2.46216e-07
1.25297e-06
1.21649e-06
-2.35281e-07
-2.43094e-07
0.00026677
-1.25603e-06
-1.21955e-06
0.000268761
-0.00026677
2.38326e-07
2.46204e-07
3.76942e-09
0.00109373
-2.68844e-07
1.25603e-06
2.67283e-07
9.08919e-07
-2.69145e-07
-9.08397e-07
2.65183e-07
-1.25846e-06
-1.7109e-09
3.77152e-09
0.00109417
-2.71637e-07
1.26153e-06
2.70103e-07
9.14537e-07
-2.72032e-07
-9.14065e-07
2.67974e-07
0.00109373
-1.90501e-09
-0.00109373
3.7443e-09
-1.25295e-06
2.67293e-07
-2.68826e-07
-9.08356e-07
2.65217e-07
-2.69104e-07
9.08943e-07
1.26152e-06
0.00109417
-1.75782e-09
-0.00109417
3.75469e-09
-1.25844e-06
2.70108e-07
-2.71623e-07
-9.14036e-07
2.67999e-07
-2.71998e-07
9.14552e-07
-2.38027e-07
-2.4035e-07
0.000266791
-1.22224e-06
0.00026879
-0.000266791
2.41154e-07
2.43448e-07
3.58874e-09
0.00109479
-2.66178e-07
1.21956e-06
2.64733e-07
9.11825e-07
-2.71969e-07
-9.11155e-07
2.68071e-07
-1.25304e-06
-1.77649e-09
3.79555e-09
0.00109384
-2.7164e-07
1.25607e-06
2.70072e-07
9.11651e-07
-2.71928e-07
-9.11161e-07
2.67976e-07
0.00109479
-2.05055e-09
-0.00109479
3.57325e-09
-1.21647e-06
2.6474e-07
-2.66162e-07
-9.11126e-07
2.68103e-07
-2.71925e-07
9.11843e-07
1.25608e-06
0.00109384
-1.83931e-09
-0.00109384
3.7587e-09
-1.25302e-06
2.70085e-07
-2.71621e-07
-9.11143e-07
2.68001e-07
-2.71895e-07
9.11658e-07
-1.80648e-09
3.75468e-09
0.00109364
-2.66028e-07
1.25064e-06
2.64535e-07
9.08929e-07
-2.69153e-07
2.65178e-07
-9.08442e-07
-2.06787e-09
-0.00109452
3.57955e-09
-1.21909e-06
2.61928e-07
-2.63346e-07
-9.08398e-07
2.65323e-07
9.09036e-07
-2.69127e-07
1.25065e-06
0.00109364
-1.86142e-09
-0.00109364
3.71941e-09
-1.24757e-06
2.64547e-07
-2.6601e-07
-9.08426e-07
2.65202e-07
-2.69123e-07
9.08938e-07
-2.35456e-07
-2.42895e-07
0.000266751
-1.21677e-06
0.00026874
-0.000266751
2.38545e-07
2.45978e-07
-1.86029e-09
3.56615e-09
0.00109469
-2.63425e-07
1.21686e-06
2.61977e-07
9.09157e-07
-2.71962e-07
2.68058e-07
-9.08533e-07
-2.12885e-09
-0.00109418
3.56193e-09
-1.21366e-06
2.61947e-07
-2.63334e-07
-9.08212e-07
2.68016e-07
9.08931e-07
-2.71803e-07
1.21687e-06
0.00109469
-1.93584e-09
-0.00109469
3.55288e-09
-1.21379e-06
2.61989e-07
-2.63409e-07
-9.08523e-07
2.68083e-07
-2.71929e-07
9.09157e-07
-0.000266764
2.40864e-07
2.46231e-07
1.25295e-06
1.21647e-06
-2.3526e-07
-2.43071e-07
0.00026677
-1.25604e-06
-1.21956e-06
0.000268761
-0.00026677
2.38338e-07
2.4622e-07
3.7405e-09
0.00109373
-2.68822e-07
1.25603e-06
2.67295e-07
9.08928e-07
-2.69102e-07
-9.0837e-07
2.65217e-07
-1.25844e-06
-1.77245e-09
3.75101e-09
0.00109417
-2.71621e-07
1.26152e-06
2.70109e-07
9.14551e-07
-2.71992e-07
-9.14036e-07
2.68004e-07
0.00109373
-1.92367e-09
-0.00109373
3.73763e-09
-1.25294e-06
2.67305e-07
-2.68812e-07
-9.08364e-07
2.65235e-07
-2.69084e-07
9.08939e-07
1.26153e-06
0.00109417
-1.79111e-09
-0.00109417
3.73536e-09
-1.25843e-06
2.70118e-07
-2.71612e-07
-9.14029e-07
2.68022e-07
-2.71974e-07
9.14559e-07
-2.38007e-07
-2.40325e-07
0.000266791
-1.22225e-06
0.00026879
-0.000266791
2.41168e-07
2.43465e-07
3.57334e-09
0.00109479
-2.66161e-07
1.21955e-06
2.64741e-07
9.11841e-07
-2.71923e-07
-9.11123e-07
2.68104e-07
-1.25302e-06
-1.85079e-09
3.76094e-09
0.00109384
-2.71617e-07
1.25608e-06
2.70086e-07
9.11653e-07
-2.71886e-07
-9.11147e-07
2.68008e-07
0.00109479
-2.08188e-09
-0.00109479
3.55554e-09
-1.21646e-06
2.64751e-07
-2.6615e-07
-9.1112e-07
2.68127e-07
-2.719e-07
9.11849e-07
1.25609e-06
0.00109384
-1.85707e-09
-0.00109384
3.75307e-09
-1.25301e-06
2.70093e-07
-2.71608e-07
-9.11149e-07
2.68015e-07
-2.71878e-07
9.11655e-07
-1.87712e-09
3.71163e-09
0.00109364
-2.66005e-07
1.25065e-06
2.64549e-07
9.08938e-07
-2.69116e-07
2.65207e-07
-9.08425e-07
-2.09636e-09
-0.00109452
3.5558e-09
-1.21908e-06
2.61938e-07
-2.63334e-07
-9.08393e-07
2.65344e-07
9.09042e-07
-2.69106e-07
1.25065e-06
0.00109364
-1.88832e-09
-0.00109364
3.71788e-09
-1.24756e-06
2.64552e-07
-2.66e-07
-9.0842e-07
2.65217e-07
-2.69104e-07
9.08943e-07
-2.35437e-07
-2.42876e-07
0.000266751
-1.21678e-06
0.000268739
-0.000266751
2.38555e-07
2.4599e-07
-1.94505e-09
3.54451e-09
0.00109469
-2.63404e-07
1.21687e-06
2.6199e-07
9.09157e-07
-2.71921e-07
2.68089e-07
-9.08521e-07
-2.15895e-09
-0.00109417
3.55254e-09
-1.21365e-06
2.61953e-07
-2.63325e-07
-9.08206e-07
2.68033e-07
9.08937e-07
-2.71783e-07
1.21688e-06
0.00109469
-1.95608e-09
-0.00109469
3.54815e-09
-1.21378e-06
2.61994e-07
-2.63398e-07
-9.08517e-07
2.68095e-07
-2.71913e-07
9.09161e-07
-0.000266764
2.40875e-07
2.46239e-07
1.25293e-06
1.21646e-06
-2.3525e-07
-2.43057e-07
0.00026677
-1.25605e-06
-1.21957e-06
0.00026876
-0.000266769
2.38347e-07
2.46233e-07
3.74076e-09
0.00109373
-2.68812e-07
1.25604e-06
2.67302e-07
9.0893e-07
-2.69087e-07
-9.08372e-07
2.65229e-07
-1.25842e-06
-1.805e-09
3.72302e-09
0.00109417
-2.71609e-07
1.26154e-06
2.7012e-07
9.14557e-07
-2.71971e-07
-9.1403e-07
2.68024e-07
0.00109373
-1.93149e-09
-0.00109373
3.72286e-09
-1.25293e-06
2.67312e-07
-2.68806e-07
-9.08361e-07
2.65257e-07
-2.69069e-07
9.08946e-07
1.26155e-06
0.00109417
-1.80315e-09
-0.00109417
3.70839e-09
-1.25841e-06
2.7013e-07
-2.71599e-07
-9.1403e-07
2.68046e-07
-2.71956e-07
9.14563e-07
-2.37994e-07
-2.40306e-07
0.000266791
-1.22225e-06
0.00026879
-0.000266791
2.41176e-07
2.43481e-07
3.56912e-09
0.00109479
-2.66152e-07
1.21956e-06
2.64747e-07
9.11847e-07
-2.71902e-07
-9.11118e-07
2.68125e-07
-1.25301e-06
-1.88779e-09
3.73738e-09
0.00109384
-2.71607e-07
1.2561e-06
2.70097e-07
9.11663e-07
-2.71872e-07
-9.11144e-07
2.68026e-07
0.00109479
-2.10513e-09
-0.00109479
3.55653e-09
-1.21645e-06
2.64755e-07
-2.66147e-07
-9.11119e-07
2.68153e-07
-2.7188e-07
9.11855e-07
1.25611e-06
0.00109384
-1.8562e-09
-0.00109384
3.71637e-09
-1.25299e-06
2.7011e-07
-2.71596e-07
-9.11147e-07
2.68033e-07
-2.71862e-07
9.11659e-07
-1.9163e-09
3.70476e-09
0.00109364
-2.66e-07
1.25066e-06
2.64554e-07
9.08946e-07
-2.691e-07
2.65224e-07
-9.08419e-07
-2.13392e-09
-0.00109452
3.55753e-09
-1.21907e-06
2.6194e-07
-2.63332e-07
-9.08378e-07
2.65375e-07
9.09062e-07
-2.69079e-07
1.25067e-06
0.00109364
-1.91491e-09
-0.00109364
3.68434e-09
-1.24754e-06
2.64568e-07
-2.65988e-07
-9.08414e-07
2.6525e-07
-2.69078e-07
9.08953e-07
-2.35427e-07
-2.42865e-07
0.000266751
-1.21678e-06
0.000268739
-0.000266751
2.38563e-07
2.46017e-07
-1.98234e-09
3.53511e-09
0.00109469
-2.63398e-07
1.21688e-06
2.61997e-07
9.09166e-07
-2.7191e-07
2.68103e-07
-9.08516e-07
-2.21535e-09
-0.00109417
3.54914e-09
-1.21364e-06
2.61959e-07
-2.63319e-07
-9.08195e-07
2.68072e-07
9.08955e-07
-2.71753e-07
1.21688e-06
0.00109469
-2.00021e-09
-0.00109469
3.53838e-09
-1.21377e-06
2.62003e-07
-2.63392e-07
-9.08508e-07
2.68127e-07
-2.71888e-07
9.09176e-07
-0.000266764
2.40892e-07
2.46262e-07
1.25293e-06
1.21645e-06
-2.35242e-07
-2.43045e-07
0.000266769
-1.25607e-06
-1.21959e-06
0.00026876
-0.000266769
2.38378e-07
2.46262e-07
3.73129e-09
0.00109373
-2.68808e-07
1.25605e-06
2.67309e-07
9.08934e-07
-2.69073e-07
-9.08372e-07
2.65252e-07
-1.25842e-06
-1.79348e-09
3.72059e-09
0.00109417
-2.71603e-07
1.26154e-06
2.70127e-07
9.14561e-07
-2.71956e-07
-9.14033e-07
2.68046e-07
0.00109373
-2.01635e-09
-0.00109373
3.67127e-09
-1.2529e-06
2.67334e-07
-2.68792e-07
-9.08327e-07
2.65301e-07
-2.6904e-07
9.08996e-07
1.26157e-06
0.00109417
-1.86703e-09
-0.00109417
3.68778e-09
-1.25839e-06
2.70151e-07
-2.71587e-07
-9.1401e-07
2.68082e-07
-2.71935e-07
9.14597e-07
-2.37989e-07
-2.40298e-07
0.00026679
-1.22227e-06
0.000268789
-0.00026679
2.41202e-07
2.43508e-07
3.57986e-09
0.00109479
-2.66151e-07
1.21956e-06
2.64751e-07
9.11856e-07
-2.7188e-07
-9.11116e-07
2.68154e-07
-1.25299e-06
-1.91043e-09
3.68273e-09
0.00109384
-2.71588e-07
1.25612e-06
2.70117e-07
9.11666e-07
-2.71858e-07
-9.11144e-07
2.68043e-07
0.00109479
-2.18176e-09
-0.00109479
3.54152e-09
-1.21643e-06
2.64774e-07
-2.66136e-07
-9.11095e-07
2.68192e-07
-2.71854e-07
9.11892e-07
1.25613e-06
0.00109384
-1.89047e-09
-0.00109384
3.6691e-09
-1.25297e-06
2.70129e-07
-2.71577e-07
-9.1111e-07
2.68075e-07
-2.71833e-07
9.11708e-07
-1.96739e-09
3.64324e-09
0.00109364
-2.65982e-07
1.25068e-06
2.64574e-07
9.08956e-07
-2.69071e-07
2.65257e-07
-9.08413e-07
-2.18021e-09
-0.00109452
3.54489e-09
-1.21906e-06
2.61956e-07
-2.63326e-07
-9.08358e-07
2.65409e-07
9.09093e-07
-2.69059e-07
1.2507e-06
0.00109363
-1.89528e-09
-0.00109364
3.64031e-09
-1.24751e-06
2.64593e-07
-2.65965e-07
-9.08405e-07
2.65268e-07
-2.69067e-07
9.08972e-07
-2.35423e-07
-2.42837e-07
0.000266751
-1.21679e-06
0.000268739
-0.000266751
2.3858e-07
2.46049e-07
-2.08878e-09
3.51638e-09
0.00109469
-2.63388e-07
1.21689e-06
2.62006e-07
9.09192e-07
-2.71875e-07
2.68143e-07
-9.08497e-07
-2.32514e-09
-0.00109417
3.58483e-09
-1.21364e-06
2.61959e-07
-2.6332e-07
-9.08128e-07
2.68132e-07
9.0903e-07
-2.717e-07
1.21688e-06
0.00109469
-2.12939e-09
-0.00109469
3.57852e-09
-1.21377e-06
2.61997e-07
-2.63397e-07
-9.08434e-07
2.68193e-07
-2.71832e-07
9.09261e-07
-0.000266764
2.40894e-07
2.46302e-07
1.25292e-06
1.21644e-06
-2.3522e-07
-2.43028e-07
0.000266769
-1.25611e-06
-1.21964e-06
0.00026876
-0.000266769
2.38423e-07
2.463e-07
3.71487e-09
0.00109373
-2.68802e-07
1.25606e-06
2.6732e-07
9.08988e-07
-2.69044e-07
-9.08334e-07
2.65294e-07
-1.25841e-06
-1.81408e-09
3.73496e-09
0.00109417
-2.71598e-07
1.26155e-06
2.70137e-07
9.14595e-07
-2.71936e-07
-9.14012e-07
2.68079e-07
0.00109373
-2.29188e-09
-0.00109373
3.59649e-09
-1.25289e-06
2.67377e-07
-2.68767e-07
-9.08274e-07
2.65372e-07
-2.68993e-07
9.09065e-07
1.2616e-06
0.00109417
-2.15322e-09
-0.00109417
3.61165e-09
-1.25838e-06
2.70191e-07
-2.71566e-07
-9.13949e-07
2.68162e-07
-2.71881e-07
9.14677e-07
-2.37971e-07
-2.40281e-07
0.00026679
-1.22233e-06
0.000268789
-0.00026679
2.41256e-07
2.43542e-07
3.59316e-09
0.00109479
-2.66144e-07
1.21958e-06
2.64764e-07
9.11891e-07
-2.7186e-07
-9.11095e-07
2.68188e-07
-1.25297e-06
-1.93873e-09
3.66356e-09
0.00109384
-2.71584e-07
1.25613e-06
2.70131e-07
9.11725e-07
-2.71832e-07
-9.11102e-07
2.68082e-07
0.00109479
-2.42052e-09
-0.00109479
3.40405e-09
-1.2164e-06
2.64829e-07
-2.661e-07
-9.11047e-07
2.68263e-07
-2.7181e-07
9.1196e-07
1.25617e-06
0.00109384
-2.09568e-09
-0.00109384
3.64214e-09
-1.25295e-06
2.70171e-07
-2.71563e-07
-9.11073e-07
2.68135e-07
-2.71803e-07
9.11775e-07
-1.95194e-09
3.61817e-09
0.00109363
-2.65967e-07
1.2507e-06
2.646e-07
9.08992e-07
-2.69068e-07
2.65277e-07
-9.08398e-07
-2.41406e-09
-0.00109452
3.40823e-09
-1.21902e-06
2.6202e-07
-2.63284e-07
-9.08316e-07
2.65481e-07
9.09166e-07
-2.69021e-07
1.25074e-06
0.00109363
-2.11954e-09
-0.00109363
3.59122e-09
-1.24749e-06
2.64637e-07
-2.65947e-07
-9.08355e-07
2.6534e-07
-2.69028e-07
9.09057e-07
-2.35415e-07
-2.4282e-07
0.000266751
-1.21685e-06
0.000268739
-0.00026675
2.38632e-07
2.46079e-07
-2.22919e-09
3.5741e-09
0.00109469
-2.63404e-07
1.21688e-06
2.62e-07
9.0929e-07
-2.7182e-07
2.68211e-07
-9.08413e-07
-2.41219e-09
-0.00109417
3.49161e-09
-1.21361e-06
2.62015e-07
-2.63298e-07
-9.08126e-07
2.68167e-07
9.0906e-07
-2.71693e-07
1.21694e-06
0.00109469
-2.24771e-09
-0.00109469
3.46852e-09
-1.21374e-06
2.62055e-07
-2.63373e-07
-9.08408e-07
2.68239e-07
-2.71807e-07
9.09303e-07
-0.000266763
2.40951e-07
2.46337e-07
1.25288e-06
1.2164e-06
-2.35185e-07
-2.42999e-07
0.000266769
-1.25608e-06
-1.21964e-06
0.000268759
-0.000266768
2.38434e-07
2.46285e-07
3.62173e-09
0.00109373
-2.68769e-07
1.25611e-06
2.6738e-07
9.09062e-07
-2.69001e-07
-9.08289e-07
2.65365e-07
-1.25837e-06
-2.10027e-09
3.64928e-09
0.00109417
-2.7157e-07
1.26161e-06
2.70192e-07
9.14684e-07
-2.71884e-07
-9.13953e-07
2.68158e-07
0.00109373
-2.21712e-09
-0.00109373
3.66142e-09
-1.25293e-06
2.67358e-07
-2.68808e-07
-9.08314e-07
2.65371e-07
-2.69023e-07
9.09053e-07
1.26159e-06
0.00109417
-2.08343e-09
-0.00109417
3.65731e-09
-1.25842e-06
2.70175e-07
-2.71606e-07
-9.13983e-07
2.68164e-07
-2.71907e-07
9.14671e-07
-2.37929e-07
-2.40256e-07
0.00026679
-1.22234e-06
0.000268789
-0.000266789
2.41274e-07
2.43535e-07
3.42091e-09
0.00109479
-2.66102e-07
1.21965e-06
2.64831e-07
9.11959e-07
-2.71824e-07
-9.11055e-07
2.6825e-07
-1.25296e-06
-2.00207e-09
3.75112e-09
0.00109384
-2.71578e-07
1.25615e-06
2.70159e-07
9.11775e-07
-2.7182e-07
-9.11077e-07
2.68128e-07
0.00109478
-2.3312e-09
-0.00109478
3.36989e-09
-1.21642e-06
2.64843e-07
-2.66113e-07
-9.11103e-07
2.68253e-07
-2.71851e-07
9.11938e-07
1.25619e-06
0.00109384
-2.25787e-09
-0.00109384
3.61836e-09
-1.25298e-06
2.70175e-07
-2.71602e-07
-9.11078e-07
2.68169e-07
-2.71815e-07
9.11818e-07
-1.99986e-09
3.71572e-09
0.00109363
-2.65966e-07
1.25071e-06
2.64618e-07
9.09053e-07
-2.69048e-07
2.65326e-07
-9.08358e-07
-2.42101e-09
-0.00109452
3.33257e-09
-1.21903e-06
2.62048e-07
-2.63284e-07
-9.08358e-07
2.65495e-07
9.09166e-07
-2.69045e-07
1.25076e-06
0.00109363
-2.31708e-09
-0.00109363
3.56419e-09
-1.24752e-06
2.64646e-07
-2.65985e-07
-9.08357e-07
2.65383e-07
-2.69036e-07
9.09109e-07
-2.35372e-07
-2.42804e-07
0.00026675
-1.21691e-06
0.000268738
-0.00026675
2.38679e-07
2.46087e-07
-2.06609e-09
3.54229e-09
0.00109469
-2.6338e-07
1.21693e-06
2.62049e-07
9.09275e-07
-2.71846e-07
2.6821e-07
-9.08441e-07
-2.50927e-09
-0.00109417
3.31939e-09
-1.21359e-06
2.62066e-07
-2.63289e-07
-9.08166e-07
2.68179e-07
9.09073e-07
-2.71729e-07
1.21701e-06
0.00109469
-2.31546e-09
-0.00109469
3.31552e-09
-1.21373e-06
2.62104e-07
-2.63369e-07
-9.08466e-07
2.68249e-07
-2.71852e-07
9.0931e-07
-0.000266763
2.40999e-07
2.46344e-07
1.25289e-06
1.21638e-06
-2.35178e-07
-2.43018e-07
0.000266768
-1.25584e-06
-1.21943e-06
0.000268759
-0.000266768
2.38161e-07
2.45982e-07
3.51292e-09
0.00109373
-2.68785e-07
1.25616e-06
2.67407e-07
9.09115e-07
-2.69005e-07
-9.08292e-07
2.65412e-07
-1.25837e-06
-2.32101e-09
3.53129e-09
0.00109417
-2.71583e-07
1.26166e-06
2.70222e-07
9.14735e-07
-2.71888e-07
-9.13955e-07
2.68203e-07
0.00109373
-1.32192e-09
-0.00109372
4.20854e-09
-1.25312e-06
2.67085e-07
-2.69039e-07
-9.08568e-07
2.65018e-07
-2.6931e-07
9.08737e-07
1.26131e-06
0.00109417
-1.22216e-09
-0.00109417
4.28155e-09
-1.25865e-06
2.69875e-07
-2.71863e-07
-9.14237e-07
2.67819e-07
-2.7219e-07
9.14356e-07
-2.37917e-07
-2.40267e-07
0.000266789
-1.22213e-06
0.000268789
-0.000266789
2.40996e-07
2.43189e-07
3.20657e-09
0.00109478
-2.66086e-07
1.21972e-06
2.6489e-07
9.11995e-07
-2.7184e-07
-9.11071e-07
2.6828e-07
-1.25295e-06
-2.27282e-09
3.67457e-09
0.00109384
-2.7159e-07
1.25621e-06
2.70182e-07
9.11846e-07
-2.71807e-07
-9.11051e-07
2.68184e-07
0.00109478
-1.13107e-09
-0.00109478
3.72502e-09
-1.21658e-06
2.64596e-07
-2.66314e-07
-9.11432e-07
2.67824e-07
-2.72213e-07
9.11547e-07
1.25574e-06
0.00109384
-6.54959e-10
-0.00109384
4.65837e-09
-1.25338e-06
2.69713e-07
-2.72025e-07
-9.11555e-07
2.67595e-07
-2.72326e-07
9.11277e-07
-2.29612e-09
3.6492e-09
0.00109363
-2.65975e-07
1.25077e-06
2.64645e-07
9.09132e-07
-2.69028e-07
2.6539e-07
-9.08324e-07
-9.82391e-10
-0.00109451
3.69107e-09
-1.21919e-06
2.61797e-07
-2.63493e-07
-9.08776e-07
2.64977e-07
9.08683e-07
-2.6949e-07
1.25031e-06
0.00109363
-5.5353e-10
-0.00109363
4.56429e-09
-1.24792e-06
2.64188e-07
-2.66407e-07
-9.08887e-07
2.64754e-07
-2.69598e-07
9.08509e-07
-2.35336e-07
-2.42803e-07
0.00026675
-1.21649e-06
0.000268738
-0.00026675
2.38194e-07
2.45571e-07
-2.23401e-09
3.34145e-09
0.00109469
-2.63352e-07
1.21702e-06
2.6211e-07
9.09325e-07
-2.71851e-07
2.68246e-07
-9.08434e-07
-6.10863e-10
-0.00109417
4.14423e-09
-1.21395e-06
2.61636e-07
-2.6368e-07
-9.08712e-07
2.67528e-07
9.08463e-07
-2.72316e-07
1.21657e-06
0.00109469
-4.4201e-10
-0.00109469
4.1792e-09
-1.21411e-06
2.61659e-07
-2.63774e-07
-9.09008e-07
2.676e-07
-2.72437e-07
9.08702e-07
-0.000266763
2.40489e-07
2.45831e-07
1.25329e-06
1.21676e-06
-2.35599e-07
-2.43456e-07
0.000266768
-1.25597e-06
-1.21942e-06
0.000268761
-0.000266769
2.38118e-07
2.46065e-07
4.40698e-09
0.00109373
-2.69211e-07
1.25571e-06
2.66943e-07
9.08491e-07
-2.69594e-07
-9.08843e-07
2.6475e-07
-1.2588e-06
-4.90312e-10
4.41808e-09
0.00109417
-2.72024e-07
1.2612e-06
2.69751e-07
9.14119e-07
-2.72463e-07
-9.14501e-07
2.67559e-07
0.00109373
-9.85104e-10
-0.00109373
3.90491e-09
-1.25314e-06
2.67225e-07
-2.69051e-07
-9.08817e-07
2.64904e-07
-2.69621e-07
9.08681e-07
1.2615e-06
0.00109417
-8.40594e-10
-0.00109417
3.81209e-09
-1.2586e-06
2.70072e-07
-2.71817e-07
-9.14492e-07
2.67686e-07
-2.72513e-07
9.14291e-07
-2.38335e-07
-2.40736e-07
0.00026679
-1.22209e-06
0.00026879
-0.000266791
2.40932e-07
2.43349e-07
4.07962e-09
0.00109479
-2.66499e-07
1.21927e-06
2.64433e-07
9.1136e-07
-2.72472e-07
-9.11659e-07
2.67595e-07
-1.25345e-06
-3.65944e-10
4.49594e-09
0.00109384
-2.72089e-07
1.25574e-06
2.69715e-07
9.11174e-07
-2.7251e-07
-9.11722e-07
2.67474e-07
0.00109479
-1.44842e-09
-0.00109479
4.04388e-09
-1.21673e-06
2.64603e-07
-2.66448e-07
-9.11496e-07
2.67871e-07
-2.72366e-07
9.11669e-07
1.25618e-06
0.00109384
-1.46609e-09
-0.00109384
3.43983e-09
-1.25305e-06
2.70186e-07
-2.71664e-07
-9.11436e-07
2.67859e-07
-2.72226e-07
9.11552e-07
-3.61141e-10
4.41046e-09
0.00109363
-2.66462e-07
1.25032e-06
2.64195e-07
9.08438e-07
-2.69767e-07
2.64657e-07
-9.09032e-07
-1.63863e-09
-0.00109452
4.07982e-09
-1.21937e-06
2.61769e-07
-2.63652e-07
-9.08678e-07
2.6515e-07
9.08944e-07
-2.69506e-07
1.25073e-06
0.00109364
-1.60582e-09
-0.00109364
3.48007e-09
-1.24761e-06
2.64632e-07
-2.66067e-07
-9.08674e-07
2.65095e-07
-2.69417e-07
9.0887e-07
-2.35903e-07
-2.43387e-07
0.00026675
-1.21679e-06
0.00026874
-0.000266751
2.38506e-07
2.46008e-07
-3.6662e-10
4.15103e-09
0.00109469
-2.63842e-07
1.21655e-06
2.61651e-07
9.08652e-07
-2.72592e-07
2.67519e-07
-9.09129e-07
-2.0628e-09
-0.00109418
3.59711e-09
-1.21376e-06
2.61973e-07
-2.63445e-07
-9.08423e-07
2.67947e-07
9.089e-07
-2.72063e-07
1.21691e-06
0.00109469
-1.85561e-09
-0.00109469
3.52606e-09
-1.21388e-06
2.62034e-07
-2.63502e-07
-9.08726e-07
2.68005e-07
-2.72195e-07
9.09127e-07
-0.000266764
2.4085e-07
2.46247e-07
1.25301e-06
1.2166e-06
-2.35444e-07
-2.43188e-07
0.00026677
-1.25615e-06
-1.21967e-06
0.000268761
-0.00026677
2.38439e-07
2.4632e-07
3.70476e-09
0.00109373
-2.68902e-07
1.25609e-06
2.67355e-07
9.08848e-07
-2.69425e-07
-9.0864e-07
2.65089e-07
-1.25847e-06
-1.3664e-09
3.63381e-09
0.00109417
-2.71672e-07
1.26161e-06
2.70195e-07
9.14464e-07
-2.72317e-07
-9.14308e-07
2.67873e-07
0.00109373
-2.18298e-09
-0.00109373
3.56777e-09
-1.25289e-06
2.67428e-07
-2.68769e-07
-9.0836e-07
2.6533e-07
-2.69116e-07
9.09057e-07
1.26165e-06
0.00109417
-2.04367e-09
-0.00109417
3.57263e-09
-1.25838e-06
2.70245e-07
-2.71564e-07
-9.14038e-07
2.68113e-07
-2.72011e-07
9.14666e-07
-2.38205e-07
-2.40409e-07
0.000266791
-1.22236e-06
0.00026879
-0.000266791
2.41269e-07
2.43564e-07
3.80293e-09
0.00109479
-2.66308e-07
1.21955e-06
2.64736e-07
9.11829e-07
-2.72168e-07
-9.11315e-07
2.68051e-07
-1.25296e-06
-1.81866e-09
3.38242e-09
0.00109384
-2.71566e-07
1.25624e-06
2.70252e-07
9.11674e-07
-2.72074e-07
-9.1129e-07
2.67988e-07
0.00109479
-2.34377e-09
-0.00109479
3.39069e-09
-1.21642e-06
2.64873e-07
-2.66114e-07
-9.11123e-07
2.68225e-07
-2.71922e-07
9.11955e-07
1.25618e-06
0.00109384
-2.0558e-09
-0.00109384
3.62696e-09
-1.25298e-06
2.70195e-07
-2.71585e-07
-9.11154e-07
2.68096e-07
-2.71916e-07
9.11759e-07
-1.9244e-09
3.39904e-09
0.00109364
-2.6597e-07
1.25079e-06
2.647e-07
9.08977e-07
-2.69275e-07
2.65211e-07
-9.08541e-07
-2.34917e-09
-0.00109452
3.38415e-09
-1.21903e-06
2.62062e-07
-2.63297e-07
-9.08401e-07
2.65441e-07
9.09144e-07
-2.69129e-07
1.25075e-06
0.00109364
-2.07699e-09
-0.00109364
3.58741e-09
-1.24753e-06
2.64657e-07
-2.65975e-07
-9.08437e-07
2.65296e-07
-2.69143e-07
9.09034e-07
-2.35482e-07
-2.42857e-07
0.000266751
-1.21687e-06
0.00026874
-0.000266751
2.38635e-07
2.46068e-07
-2.15308e-09
3.41552e-09
0.00109469
-2.63407e-07
1.21697e-06
2.62102e-07
9.09235e-07
-2.72046e-07
2.68124e-07
-9.08588e-07
-2.35532e-09
-0.00109418
3.43633e-09
-1.21362e-06
2.62052e-07
-2.63306e-07
-9.08218e-07
2.68114e-07
9.09025e-07
-2.71814e-07
1.21696e-06
0.00109469
-2.17309e-09
-0.00109469
3.42617e-09
-1.21376e-06
2.62089e-07
-2.63386e-07
-9.0851e-07
2.6818e-07
-2.71939e-07
9.09262e-07
-0.000266764
2.4095e-07
2.4632e-07
1.25291e-06
1.21643e-06
-2.35214e-07
-2.43029e-07
0.00026677
-1.25608e-06
-1.21962e-06
0.000268761
-0.00026677
2.38372e-07
2.46241e-07
3.60766e-09
0.00109373
-2.68793e-07
1.25613e-06
2.674e-07
9.09039e-07
-2.69114e-07
-9.0837e-07
2.65321e-07
-1.2584e-06
-2.02538e-09