/*--------------------------------*- C++ -*----------------------------------*\
| =========                 |                                                 |
| \\      /  F ield         | OpenFOAM: The Open Source CFD Toolbox           |
|  \\    /   O peration     | Version:  2206                                  |
|   \\  /    A nd           | Website:  www.openfoam.com                      |
|    \\/     M anipulation  |                                                 |
\*---------------------------------------------------------------------------*/
FoamFile
{
    version     2.0;
    format      ascii;
    arch        "LSB;label=32;scalar=64";
    class       volVectorField;
    location    "37.5";
    object      U;
}
// * * * * * * * * * * * * * * * * * * * * * * * * * * * * * * * * * * * * * //

dimensions      [0 1 -1 0 0 0 0];

internalField   nonuniform List<vector> 
28448
(
(-9.11889e-07 -9.10674e-07 0.104041)
(-6.15956e-07 9.48114e-07 0.103913)
(9.46486e-07 -6.08937e-07 0.103913)
(-4.82389e-05 -4.82461e-05 0.10374)
(-9.17446e-07 -9.14223e-07 0.104041)
(-6.07721e-07 9.44543e-07 0.103913)
(9.43096e-07 -6.00458e-07 0.103913)
(-4.82323e-05 -4.82392e-05 0.10374)
(-9.1809e-07 -9.13907e-07 0.104041)
(-6.0116e-07 9.40932e-07 0.103913)
(9.40616e-07 -5.94319e-07 0.103913)
(-4.82286e-05 -4.8236e-05 0.10374)
(-9.20246e-07 -9.13285e-07 0.104041)
(-5.99135e-07 9.45017e-07 0.103913)
(9.39245e-07 -5.84496e-07 0.103913)
(-4.82248e-05 -4.82288e-05 0.10374)
(-9.22757e-07 -9.15108e-07 0.104041)
(-5.99888e-07 9.47625e-07 0.103913)
(9.47946e-07 -5.74496e-07 0.103913)
(-4.82274e-05 -4.82176e-05 0.10374)
(-9.30402e-07 -9.32503e-07 0.10404)
(-5.87249e-07 9.30655e-07 0.103913)
(9.45731e-07 -5.90166e-07 0.103913)
(-4.82091e-05 -4.82112e-05 0.103739)
(-9.35483e-07 -9.44555e-07 0.10404)
(-5.54097e-07 8.96986e-07 0.103912)
(9.08488e-07 -5.57736e-07 0.103912)
(-4.81971e-05 -4.82131e-05 0.103739)
(-8.27e-07 -8.34368e-07 0.10404)
(-7.54124e-07 1.02086e-06 0.103913)
(1.02769e-06 -7.51871e-07 0.103912)
(-4.8408e-05 -4.84213e-05 0.103739)
(-9.00651e-07 -8.77434e-07 0.104041)
(-6.05137e-07 9.60388e-07 0.103913)
(9.24143e-07 -5.81964e-07 0.103913)
(-4.8241e-05 -4.8235e-05 0.10374)
(-9.33376e-07 -9.3323e-07 0.104041)
(-5.89224e-07 9.1979e-07 0.103913)
(9.29624e-07 -5.89345e-07 0.103913)
(-4.82322e-05 -4.82385e-05 0.10374)
(-9.16962e-07 -9.18509e-07 0.104041)
(-6.08715e-07 9.38281e-07 0.103913)
(9.42413e-07 -6.04946e-07 0.103913)
(-4.825e-05 -4.82585e-05 0.10374)
(-9.13676e-07 -9.13171e-07 0.104041)
(-6.118e-07 9.42952e-07 0.103913)
(9.44515e-07 -6.06157e-07 0.103913)
(-4.82529e-05 -4.82601e-05 0.10374)
(-9.13064e-07 -9.12379e-07 0.104041)
(-6.11992e-07 9.44213e-07 0.103913)
(9.45407e-07 -6.06596e-07 0.103913)
(-4.8253e-05 -4.826e-05 0.10374)
(-9.1244e-07 -9.11653e-07 0.104041)
(-6.12195e-07 9.44569e-07 0.103913)
(9.45964e-07 -6.06977e-07 0.103913)
(-4.82531e-05 -4.82601e-05 0.10374)
(-9.12454e-07 -9.113e-07 0.104041)
(-6.12301e-07 9.44878e-07 0.103913)
(9.45496e-07 -6.06284e-07 0.103913)
(-4.82527e-05 -4.82592e-05 0.10374)
(-9.12814e-07 -9.11638e-07 0.104041)
(-6.12286e-07 9.44439e-07 0.103913)
(9.45148e-07 -6.06348e-07 0.103913)
(-4.82519e-05 -4.82583e-05 0.10374)
(-9.12837e-07 -9.11339e-07 0.104041)
(-6.1183e-07 9.43914e-07 0.103913)
(9.44654e-07 -6.0645e-07 0.103913)
(-4.82482e-05 -4.82547e-05 0.10374)
(-9.12448e-07 -9.10582e-07 0.104041)
(9.43587e-07 -6.07604e-07 0.103913)
(-5.07387e-05 -5.07094e-05 0.103749)
(9.76155e-07 6.34489e-07 0.103913)
(-9.79984e-07 6.52721e-07 0.103913)
(5.07416e-05 -5.0717e-05 0.103749)
(6.16015e-07 9.51334e-07 0.103913)
(6.44169e-07 -9.78366e-07 0.103913)
(-6.15773e-07 9.4689e-07 0.103913)
(-6.4976e-07 -9.67061e-07 0.103913)
(-5.0702e-05 5.0735e-05 0.103749)
(9.47444e-07 -6.09301e-07 0.103913)
(-9.44209e-07 -6.24556e-07 0.103913)
(5.0698e-05 5.07258e-05 0.103749)
(4.82421e-05 4.82294e-05 0.10374)
(-5.07316e-05 -5.07013e-05 0.103749)
(9.76407e-07 6.41224e-07 0.103913)
(-9.80799e-07 6.54392e-07 0.103913)
(9.72799e-07 6.28822e-07 0.103913)
(-9.77971e-07 6.47954e-07 0.103913)
(-4.82386e-05 4.82062e-05 0.10374)
(5.07348e-05 -5.07089e-05 0.103749)
(6.18543e-07 9.53382e-07 0.103913)
(6.42605e-07 -9.77351e-07 0.103913)
(6.09213e-07 9.49909e-07 0.103913)
(6.35476e-07 -9.73236e-07 0.103913)
(-6.49672e-07 -9.66108e-07 0.103913)
(-6.08215e-07 9.45437e-07 0.103913)
(-6.42328e-07 -9.62132e-07 0.103913)
(4.82193e-05 -4.82571e-05 0.10374)
(-5.07049e-05 5.07391e-05 0.103749)
(-9.43496e-07 -6.23458e-07 0.103913)
(9.43943e-07 -6.008e-07 0.103913)
(-9.40936e-07 -6.15377e-07 0.103913)
(5.0701e-05 5.07295e-05 0.103749)
(4.8232e-05 4.82206e-05 0.10374)
(-5.07374e-05 -5.07057e-05 0.103749)
(9.71993e-07 6.32765e-07 0.103913)
(-9.77873e-07 6.46822e-07 0.103913)
(9.71479e-07 6.25838e-07 0.103913)
(-9.75812e-07 6.43365e-07 0.103913)
(-4.82283e-05 4.81973e-05 0.10374)
(5.07403e-05 -5.0714e-05 0.103749)
(6.09664e-07 9.50431e-07 0.103913)
(6.33826e-07 -9.72809e-07 0.103913)
(6.05179e-07 9.48253e-07 0.103913)
(6.32248e-07 -9.72057e-07 0.103913)
(-6.41704e-07 -9.61376e-07 0.103913)
(-6.04262e-07 9.42532e-07 0.103913)
(-6.38302e-07 -9.61874e-07 0.103913)
(4.82131e-05 -4.82497e-05 0.10374)
(-5.07082e-05 5.07434e-05 0.103749)
(-9.40115e-07 -6.14544e-07 0.103913)
(9.42968e-07 -5.96426e-07 0.103913)
(-9.40515e-07 -6.12484e-07 0.103913)
(5.07047e-05 5.07324e-05 0.103749)
(4.82264e-05 4.82162e-05 0.10374)
(-5.07415e-05 -5.07088e-05 0.103749)
(9.71665e-07 6.29959e-07 0.103913)
(-9.74407e-07 6.42086e-07 0.103913)
(9.69107e-07 6.23816e-07 0.103913)
(-9.72245e-07 6.40709e-07 0.103913)
(-4.82217e-05 4.81918e-05 0.10374)
(5.07464e-05 -5.07162e-05 0.103749)
(6.0515e-07 9.4986e-07 0.103913)
(6.28539e-07 -9.69648e-07 0.103913)
(6.01825e-07 9.47085e-07 0.103913)
(6.33588e-07 -9.69122e-07 0.103913)
(-6.36256e-07 -9.59982e-07 0.103913)
(-6.00471e-07 9.4253e-07 0.103913)
(-6.36266e-07 -9.58579e-07 0.103913)
(4.82095e-05 -4.82451e-05 0.10374)
(-5.07107e-05 5.0752e-05 0.103749)
(-9.38456e-07 -6.09619e-07 0.103913)
(9.43102e-07 -5.91997e-07 0.103913)
(-9.39784e-07 -6.10186e-07 0.103913)
(5.07097e-05 5.074e-05 0.103749)
(4.82225e-05 4.82134e-05 0.10374)
(-5.07521e-05 -5.07198e-05 0.103749)
(9.71361e-07 6.31421e-07 0.103913)
(-9.75288e-07 6.42995e-07 0.103913)
(9.6316e-07 6.14302e-07 0.103913)
(-9.68311e-07 6.33516e-07 0.103913)
(-4.8218e-05 4.81908e-05 0.10374)
(5.07565e-05 -5.07252e-05 0.103749)
(6.03713e-07 9.50822e-07 0.103913)
(6.2746e-07 -9.64026e-07 0.103913)
(5.94299e-07 9.43349e-07 0.103913)
(6.29454e-07 -9.64985e-07 0.103913)
(-6.31617e-07 -9.5316e-07 0.103913)
(-5.94877e-07 9.39789e-07 0.103913)
(-6.37918e-07 -9.53836e-07 0.103913)
(4.82088e-05 -4.82367e-05 0.10374)
(-5.07156e-05 5.07639e-05 0.103749)
(-9.3597e-07 -6.01118e-07 0.103913)
(9.47998e-07 -5.80209e-07 0.103913)
(-9.45994e-07 -5.97097e-07 0.103913)
(5.07099e-05 5.07549e-05 0.103749)
(4.82171e-05 4.82063e-05 0.10374)
(-5.07663e-05 -5.07377e-05 0.103749)
(9.71799e-07 6.26326e-07 0.103913)
(-9.77276e-07 6.402e-07 0.103913)
(9.50304e-07 5.86375e-07 0.103912)
(-9.55537e-07 6.04184e-07 0.103912)
(-4.82125e-05 4.81848e-05 0.10374)
(5.07698e-05 -5.07473e-05 0.103749)
(6.01559e-07 9.52283e-07 0.103913)
(6.24552e-07 -9.64296e-07 0.103913)
(5.67347e-07 9.25896e-07 0.103913)
(6.05727e-07 -9.54685e-07 0.103912)
(-6.33593e-07 -9.52056e-07 0.103913)
(-5.67694e-07 9.21732e-07 0.103913)
(-6.11283e-07 -9.42249e-07 0.103912)
(4.82064e-05 -4.82302e-05 0.10374)
(-5.07407e-05 5.07798e-05 0.103749)
(-9.45222e-07 -5.87354e-07 0.103913)
(9.3204e-07 -5.66921e-07 0.103913)
(-9.29452e-07 -5.80397e-07 0.103913)
(5.07364e-05 5.07725e-05 0.103749)
(4.82067e-05 4.81927e-05 0.103739)
(-5.07601e-05 -5.07419e-05 0.103749)
(9.55262e-07 5.99122e-07 0.103912)
(-9.62767e-07 6.11015e-07 0.103912)
(9.60762e-07 5.97587e-07 0.103912)
(-9.63649e-07 6.1476e-07 0.103912)
(-4.82033e-05 4.81685e-05 0.10374)
(5.07662e-05 -5.07553e-05 0.103749)
(5.81951e-07 9.31782e-07 0.103913)
(6.18928e-07 -9.7224e-07 0.103912)
(5.78661e-07 9.25124e-07 0.103912)
(5.85096e-07 -9.44622e-07 0.103912)
(-6.29837e-07 -9.62852e-07 0.103912)
(-5.67604e-07 9.15621e-07 0.103912)
(-5.8542e-07 -9.30994e-07 0.103912)
(4.81894e-05 -4.82234e-05 0.103739)
(-5.07615e-05 5.07842e-05 0.103749)
(-9.44688e-07 -6.03027e-07 0.103913)
(9.046e-07 -5.50923e-07 0.103912)
(-9.02703e-07 -5.6657e-07 0.103912)
(5.07576e-05 5.07777e-05 0.103749)
(4.82202e-05 4.8196e-05 0.103739)
(-5.06648e-05 -5.06575e-05 0.103749)
(9.35077e-07 5.72157e-07 0.103912)
(-9.40733e-07 5.85062e-07 0.103912)
(1.04512e-06 6.97245e-07 0.103912)
(-1.05674e-06 7.11187e-07 0.103912)
(-4.8214e-05 4.81691e-05 0.103739)
(5.06551e-05 -5.06682e-05 0.103749)
(5.57916e-07 9.00767e-07 0.103912)
(5.80992e-07 -9.49972e-07 0.103912)
(7.0721e-07 9.94719e-07 0.103912)
(7.52367e-07 -1.08869e-06 0.103912)
(-5.87753e-07 -9.40637e-07 0.103912)
(-7.21555e-07 9.8415e-07 0.103912)
(-7.72955e-07 -1.07267e-06 0.103912)
(4.81772e-05 -4.82259e-05 0.103739)
(-5.05935e-05 5.0605e-05 0.103749)
(-9.08573e-07 -5.70442e-07 0.103912)
(1.03215e-06 -7.45327e-07 0.103912)
(-1.03527e-06 -7.59671e-07 0.103912)
(5.05804e-05 5.05996e-05 0.103749)
(4.83724e-05 4.83425e-05 0.103739)
(-5.07024e-05 -5.06451e-05 0.103749)
(1.07121e-06 7.66162e-07 0.103912)
(-1.07666e-06 7.75453e-07 0.103912)
(9.86874e-07 7.06424e-07 0.103913)
(-9.81908e-07 7.25735e-07 0.103913)
(-4.83779e-05 4.8315e-05 0.103739)
(5.07203e-05 -5.0646e-05 0.103749)
(7.5548e-07 1.03294e-06 0.103912)
(7.74864e-07 -1.0715e-06 0.103912)
(6.60205e-07 9.90515e-07 0.103913)
(6.69386e-07 -9.40166e-07 0.103913)
(-7.87532e-07 -1.05562e-06 0.103912)
(-6.43394e-07 9.93404e-07 0.103913)
(-6.65752e-07 -9.35839e-07 0.103913)
(4.83814e-05 -4.84366e-05 0.103739)
(-5.07091e-05 5.07706e-05 0.103749)
(-1.02666e-06 -7.66189e-07 0.103913)
(9.39833e-07 -6.09098e-07 0.103913)
(-9.31649e-07 -6.27127e-07 0.103913)
(5.07143e-05 5.07556e-05 0.103749)
(4.82717e-05 4.82863e-05 0.10374)
(-5.07835e-05 -5.0753e-05 0.103749)
(9.59004e-07 6.63777e-07 0.103913)
(-9.56607e-07 6.78166e-07 0.103913)
(9.46311e-07 6.02311e-07 0.103913)
(-9.50443e-07 6.21077e-07 0.103913)
(-4.82554e-05 4.82689e-05 0.10374)
(5.07871e-05 -5.07614e-05 0.103749)
(6.17517e-07 9.61462e-07 0.103913)
(6.36694e-07 -9.28576e-07 0.103913)
(5.81082e-07 9.23692e-07 0.103913)
(6.15638e-07 -9.52121e-07 0.103913)
(-6.37257e-07 -9.23039e-07 0.103913)
(-5.80963e-07 9.17315e-07 0.103913)
(-6.21937e-07 -9.41101e-07 0.103913)
(4.82287e-05 -4.82403e-05 0.10374)
(-5.07477e-05 5.07814e-05 0.103749)
(-9.17822e-07 -5.99107e-07 0.103913)
(9.24088e-07 -5.79314e-07 0.103913)
(-9.2286e-07 -5.94341e-07 0.103913)
(5.07419e-05 5.07722e-05 0.103749)
(4.82207e-05 4.82069e-05 0.10374)
(-5.07548e-05 -5.07285e-05 0.103749)
(9.52596e-07 6.10549e-07 0.103913)
(-9.58268e-07 6.23902e-07 0.103913)
(9.68631e-07 6.20747e-07 0.103913)
(-9.73908e-07 6.38689e-07 0.103913)
(-4.82173e-05 4.81831e-05 0.10374)
(5.07572e-05 -5.07364e-05 0.103749)
(5.89605e-07 9.27258e-07 0.103913)
(6.20291e-07 -9.62355e-07 0.103913)
(6.05155e-07 9.40219e-07 0.103913)
(6.32353e-07 -9.75349e-07 0.103913)
(-6.28989e-07 -9.50663e-07 0.103913)
(-6.05067e-07 9.35084e-07 0.103913)
(-6.39209e-07 -9.63412e-07 0.103913)
(4.82102e-05 -4.82496e-05 0.10374)
(-5.0727e-05 5.07566e-05 0.103749)
(-9.29239e-07 -6.04036e-07 0.103913)
(9.40821e-07 -6.01351e-07 0.103913)
(-9.3994e-07 -6.16612e-07 0.103913)
(5.0721e-05 5.07475e-05 0.103749)
(4.82469e-05 4.82315e-05 0.10374)
(-5.07507e-05 -5.07221e-05 0.103749)
(9.71068e-07 6.29701e-07 0.103913)
(-9.76502e-07 6.42486e-07 0.103913)
(9.73384e-07 6.28772e-07 0.103913)
(-9.7803e-07 6.46972e-07 0.103913)
(-4.82436e-05 4.82078e-05 0.10374)
(5.07541e-05 -5.07297e-05 0.103749)
(6.10038e-07 9.4451e-07 0.103913)
(6.34553e-07 -9.76748e-07 0.103913)
(6.11146e-07 9.47216e-07 0.103913)
(6.37517e-07 -9.76319e-07 0.103913)
(-6.42842e-07 -9.65079e-07 0.103913)
(-6.10683e-07 9.4242e-07 0.103913)
(-6.43903e-07 -9.64777e-07 0.103913)
(4.82286e-05 -4.82697e-05 0.10374)
(-5.07231e-05 5.07551e-05 0.103749)
(-9.41702e-07 -6.20168e-07 0.103913)
(9.44202e-07 -6.04288e-07 0.103913)
(-9.42931e-07 -6.20173e-07 0.103913)
(5.07179e-05 5.07457e-05 0.103749)
(4.82505e-05 4.82374e-05 0.10374)
(-5.07494e-05 -5.072e-05 0.103749)
(9.73444e-07 6.34771e-07 0.103913)
(-9.78462e-07 6.47811e-07 0.103913)
(9.74052e-07 6.29849e-07 0.103913)
(-9.7833e-07 6.48178e-07 0.103913)
(-4.82466e-05 4.8214e-05 0.10374)
(5.07533e-05 -5.07277e-05 0.103749)
(6.13283e-07 9.49019e-07 0.103913)
(6.37814e-07 -9.76602e-07 0.103913)
(6.11706e-07 9.48808e-07 0.103913)
(6.38447e-07 -9.76027e-07 0.103913)
(-6.45819e-07 -9.6514e-07 0.103913)
(-6.10959e-07 9.44312e-07 0.103913)
(-6.44529e-07 -9.64771e-07 0.103913)
(4.82316e-05 -4.82705e-05 0.10374)
(-5.0722e-05 5.07549e-05 0.103749)
(-9.43468e-07 -6.21959e-07 0.103913)
(9.45147e-07 -6.04411e-07 0.103913)
(-9.43655e-07 -6.20492e-07 0.103913)
(5.07167e-05 5.0745e-05 0.103749)
(4.82505e-05 4.82379e-05 0.10374)
(-5.07492e-05 -5.07198e-05 0.103749)
(9.74098e-07 6.35552e-07 0.103913)
(-9.78643e-07 6.48663e-07 0.103913)
(9.74268e-07 6.30322e-07 0.103913)
(-9.78324e-07 6.48811e-07 0.103913)
(-4.82467e-05 4.8215e-05 0.10374)
(5.07532e-05 -5.07274e-05 0.103749)
(6.13824e-07 9.50096e-07 0.103913)
(6.38723e-07 -9.76677e-07 0.103913)
(6.12312e-07 9.49076e-07 0.103913)
(6.39542e-07 -9.76597e-07 0.103913)
(-6.46313e-07 -9.65356e-07 0.103913)
(-6.11089e-07 9.44506e-07 0.103913)
(-6.44824e-07 -9.64881e-07 0.103913)
(4.82318e-05 -4.82701e-05 0.10374)
(-5.07211e-05 5.07543e-05 0.103749)
(-9.44039e-07 -6.22391e-07 0.103913)
(9.45993e-07 -6.05128e-07 0.103913)
(-9.43838e-07 -6.20901e-07 0.103913)
(5.07164e-05 5.07447e-05 0.103749)
(4.82507e-05 4.82381e-05 0.10374)
(-5.07488e-05 -5.07191e-05 0.103749)
(9.74328e-07 6.36155e-07 0.103913)
(-9.78718e-07 6.4931e-07 0.103913)
(9.74329e-07 6.30585e-07 0.103913)
(-9.7859e-07 6.49036e-07 0.103913)
(-4.82464e-05 4.8215e-05 0.10374)
(5.07523e-05 -5.07265e-05 0.103749)
(6.1426e-07 9.50461e-07 0.103913)
(6.3944e-07 -9.76984e-07 0.103913)
(6.12262e-07 9.49455e-07 0.103913)
(6.39242e-07 -9.75903e-07 0.103913)
(-6.46601e-07 -9.65411e-07 0.103913)
(-6.11175e-07 9.44935e-07 0.103913)
(-6.44719e-07 -9.64337e-07 0.103913)
(4.82328e-05 -4.82707e-05 0.10374)
(-5.07214e-05 5.07548e-05 0.103749)
(-9.44289e-07 -6.22611e-07 0.103913)
(9.45604e-07 -6.04429e-07 0.103913)
(-9.43811e-07 -6.20161e-07 0.103913)
(5.07163e-05 5.0745e-05 0.103749)
(4.82505e-05 4.82382e-05 0.10374)
(-5.07486e-05 -5.07188e-05 0.103749)
(9.74226e-07 6.3625e-07 0.103913)
(-9.78973e-07 6.49421e-07 0.103913)
(9.73895e-07 6.30275e-07 0.103913)
(-9.78594e-07 6.48877e-07 0.103913)
(-4.82461e-05 4.82147e-05 0.10374)
(5.07514e-05 -5.07257e-05 0.103749)
(6.14034e-07 9.50768e-07 0.103913)
(6.39089e-07 -9.76358e-07 0.103913)
(6.11964e-07 9.49225e-07 0.103913)
(6.3905e-07 -9.75574e-07 0.103913)
(-6.46568e-07 -9.64909e-07 0.103913)
(-6.11324e-07 9.44787e-07 0.103913)
(-6.45039e-07 -9.6422e-07 0.103913)
(4.8232e-05 -4.82698e-05 0.10374)
(-5.0721e-05 5.07544e-05 0.103749)
(-9.44328e-07 -6.21867e-07 0.103913)
(9.45268e-07 -6.0417e-07 0.103913)
(-9.43987e-07 -6.20113e-07 0.103913)
(5.07151e-05 5.0744e-05 0.103749)
(4.82493e-05 4.8237e-05 0.10374)
(-5.07479e-05 -5.07181e-05 0.103749)
(9.73849e-07 6.35976e-07 0.103913)
(-9.78574e-07 6.49156e-07 0.103913)
(9.73628e-07 6.30002e-07 0.103913)
(-9.7827e-07 6.48382e-07 0.103913)
(-4.82447e-05 4.82132e-05 0.10374)
(5.07491e-05 -5.07233e-05 0.103749)
(6.13673e-07 9.5021e-07 0.103913)
(6.38765e-07 -9.761e-07 0.103913)
(6.11665e-07 9.49015e-07 0.103913)
(6.38854e-07 -9.75669e-07 0.103913)
(-6.46886e-07 -9.65077e-07 0.103913)
(-6.10697e-07 9.44444e-07 0.103913)
(-6.44587e-07 -9.63919e-07 0.103913)
(4.8231e-05 -4.82689e-05 0.10374)
(-5.07197e-05 5.07526e-05 0.103749)
(-9.4451e-07 -6.2226e-07 0.103913)
(9.45083e-07 -6.04352e-07 0.103913)
(-9.43351e-07 -6.20023e-07 0.103913)
(5.07132e-05 5.07419e-05 0.103749)
(4.82477e-05 4.82358e-05 0.10374)
(-5.07477e-05 -5.07164e-05 0.103749)
(9.73606e-07 6.36046e-07 0.103913)
(-9.78104e-07 6.48926e-07 0.103913)
(9.73017e-07 6.30478e-07 0.103913)
(-4.82407e-05 4.82093e-05 0.10374)
(6.13436e-07 9.50316e-07 0.103913)
(6.385e-07 -9.76056e-07 0.103913)
(6.11261e-07 9.48951e-07 0.103913)
(6.38022e-07 -9.74995e-07 0.103913)
(-6.4631e-07 -9.64493e-07 0.103913)
(-6.44141e-07 -9.63079e-07 0.103913)
(4.82286e-05 -4.82667e-05 0.10374)
(-5.07168e-05 5.07498e-05 0.103749)
(-9.43918e-07 -6.21858e-07 0.103913)
(9.4418e-07 -6.03989e-07 0.103913)
(-9.42703e-07 -6.19824e-07 0.103913)
(5.07044e-05 5.07332e-05 0.103749)
(4.82465e-05 4.82348e-05 0.10374)
(6.13338e-07 9.50515e-07 0.103913)
(6.38175e-07 -9.75455e-07 0.103913)
(4.82251e-05 -4.82631e-05 0.10374)
(-9.119e-07 -9.10178e-07 0.104041)
(9.15625e-07 -9.05427e-07 0.104041)
(-9.03652e-07 9.15361e-07 0.104041)
(9.15022e-07 8.97688e-07 0.104041)
(9.1603e-08 -1.03592e-05 0.0999049)
(6.03688e-07 7.38806e-06 0.090623)
(-1.2553e-07 9.9698e-06 0.0998788)
(-1.22512e-06 -7.044e-06 0.0906547)
(-2.18909e-06 3.31697e-06 0.0778829)
(2.20417e-06 -3.19128e-06 0.0779142)
(-1.04409e-05 8.7374e-08 0.0999037)
(7.35258e-06 5.81337e-07 0.0906224)
(1.00519e-05 -1.06169e-07 0.0998794)
(-7.01196e-06 -1.19744e-06 0.0906548)
(9.16046e-07 -9.05419e-07 0.104041)
(-9.04623e-07 9.16544e-07 0.104041)
(9.17343e-07 8.98994e-07 0.104041)
(-9.16439e-07 -9.12794e-07 0.104041)
(9.18887e-07 -9.0698e-07 0.104041)
(-9.08144e-07 9.21635e-07 0.104041)
(9.19228e-07 9.03652e-07 0.104041)
(1.73249e-05 1.60304e-07 0.10301)
(-1.66273e-05 4.64642e-06 0.100447)
(-7.89744e-07 -2.29865e-07 0.103999)
(-6.11992e-07 9.47545e-07 0.103913)
(-1.75085e-05 -1.77174e-07 0.102997)
(1.5803e-05 -5.22173e-06 0.100487)
(-7.8543e-07 -2.28825e-07 0.103999)
(3.18532e-06 -2.10594e-06 0.0778795)
(-3.0765e-06 2.14728e-06 0.0779153)
(1.62313e-07 1.7315e-05 0.10301)
(-2.28841e-07 -7.82157e-07 0.103999)
(4.68974e-06 -1.66942e-05 0.100447)
(9.45205e-07 -6.0412e-07 0.103913)
(-1.83459e-07 -1.75094e-05 0.102997)
(-2.28972e-07 -7.81737e-07 0.103999)
(-5.27466e-06 1.58748e-05 0.100486)
(-4.87548e-06 -5.91022e-06 0.0964267)
(-5.9008e-06 -4.87e-06 0.0964257)
(5.06985e-05 5.0728e-05 0.103749)
(4.39704e-06 5.74282e-06 0.0964623)
(5.7386e-06 4.39386e-06 0.0964608)
(9.43756e-08 -1.03791e-05 0.0999049)
(6.11706e-07 7.35478e-06 0.0906231)
(-1.25256e-07 9.95659e-06 0.0998788)
(-1.22046e-06 -7.07731e-06 0.0906548)
(-2.17312e-06 3.27961e-06 0.0778829)
(2.21275e-06 -3.22102e-06 0.0779142)
(-1.04557e-05 8.71395e-08 0.0999037)
(7.32054e-06 5.86877e-07 0.0906225)
(1.00396e-05 -1.00456e-07 0.0998794)
(-7.04337e-06 -1.19276e-06 0.0906549)
(9.197e-07 -9.08289e-07 0.104041)
(-9.08429e-07 9.22308e-07 0.104041)
(9.21324e-07 9.04432e-07 0.104041)
(-9.17759e-07 -9.13057e-07 0.104041)
(9.19726e-07 -9.08049e-07 0.104041)
(-9.07886e-07 9.22322e-07 0.104041)
(9.19719e-07 9.04135e-07 0.104041)
(1.73408e-05 1.62436e-07 0.10301)
(-1.66172e-05 4.63147e-06 0.100447)
(-7.80411e-07 -2.28455e-07 0.103999)
(-6.0598e-07 9.43996e-07 0.103913)
(-1.74888e-05 -1.72015e-07 0.102997)
(1.58152e-05 -5.24061e-06 0.100487)
(-7.77074e-07 -2.29504e-07 0.103999)
(3.15536e-06 -2.10453e-06 0.0778795)
(-3.094e-06 2.14645e-06 0.0779154)
(1.60658e-07 1.73293e-05 0.10301)
(-2.30264e-07 -7.7143e-07 0.103999)
(4.67044e-06 -1.66761e-05 0.100447)
(9.4251e-07 -5.98019e-07 0.103913)
(-1.82675e-07 -1.74891e-05 0.102997)
(-2.30466e-07 -7.73076e-07 0.103999)
(-5.29204e-06 1.58921e-05 0.100486)
(-4.88344e-06 -5.90347e-06 0.0964268)
(-5.89547e-06 -4.87637e-06 0.0964258)
(5.07032e-05 5.07314e-05 0.103749)
(4.39504e-06 5.74976e-06 0.0964624)
(5.74676e-06 4.39023e-06 0.0964609)
(9.97107e-08 -1.03945e-05 0.0999049)
(6.1776e-07 7.34486e-06 0.0906232)
(-1.21704e-07 9.93999e-06 0.0998788)
(-1.20851e-06 -7.07823e-06 0.090655)
(-2.17431e-06 3.26636e-06 0.0778831)
(2.20128e-06 -3.22285e-06 0.0779145)
(-1.04735e-05 9.42028e-08 0.0999037)
(7.3053e-06 5.99305e-07 0.0906226)
(1.00236e-05 -1.0375e-07 0.0998794)
(-7.04926e-06 -1.1775e-06 0.0906551)
(9.21492e-07 -9.09005e-07 0.104041)
(-9.09331e-07 9.24136e-07 0.104041)
(9.22451e-07 9.05753e-07 0.104041)
(-9.18274e-07 -9.12278e-07 0.104041)
(9.22184e-07 -9.0736e-07 0.104041)
(-9.09031e-07 9.27364e-07 0.104041)
(9.22106e-07 9.09192e-07 0.104041)
(1.73561e-05 1.61834e-07 0.10301)
(-1.66083e-05 4.61547e-06 0.100447)
(-7.72309e-07 -2.29794e-07 0.103999)
(-5.96921e-07 9.39243e-07 0.103913)
(-1.74778e-05 -1.72875e-07 0.102997)
(1.58302e-05 -5.25782e-06 0.100487)
(-7.66722e-07 -2.30533e-07 0.103999)
(3.15068e-06 -2.10814e-06 0.0778797)
(-3.09951e-06 2.14883e-06 0.0779156)
(1.60532e-07 1.73443e-05 0.10301)
(-2.31177e-07 -7.62614e-07 0.103999)
(4.66186e-06 -1.66662e-05 0.100447)
(9.38927e-07 -5.91094e-07 0.103913)
(-1.83023e-07 -1.74762e-05 0.102997)
(-2.31237e-07 -7.63849e-07 0.103999)
(-5.30238e-06 1.59045e-05 0.100486)
(-4.87782e-06 -5.89824e-06 0.0964268)
(-5.88889e-06 -4.87298e-06 0.0964258)
(5.07075e-05 5.07356e-05 0.103749)
(4.40324e-06 5.75128e-06 0.0964624)
(5.74886e-06 4.39649e-06 0.0964609)
(1.02056e-07 -1.04065e-05 0.0999048)
(6.06021e-07 7.33556e-06 0.0906235)
(-1.15718e-07 9.93184e-06 0.0998788)
(-1.24063e-06 -7.08843e-06 0.0906553)
(-2.17983e-06 3.2711e-06 0.0778833)
(2.21691e-06 -3.22237e-06 0.0779148)
(-1.04867e-05 9.2333e-08 0.0999037)
(7.29541e-06 5.92683e-07 0.0906228)
(1.001e-05 -9.5565e-08 0.0998794)
(-7.06191e-06 -1.20472e-06 0.0906554)
(9.24864e-07 -9.07914e-07 0.104041)
(-9.11904e-07 9.32728e-07 0.104041)
(9.26265e-07 9.14991e-07 0.104041)
(-9.23682e-07 -9.17015e-07 0.104041)
(9.24433e-07 -9.10857e-07 0.104041)
(-9.10573e-07 9.34008e-07 0.104041)
(9.20445e-07 9.17745e-07 0.104041)
(1.73677e-05 1.63345e-07 0.10301)
(-1.65922e-05 4.60995e-06 0.100447)
(-7.67874e-07 -2.28445e-07 0.103999)
(-5.90383e-07 9.40898e-07 0.103913)
(-1.74628e-05 -1.72013e-07 0.102997)
(1.58471e-05 -5.26635e-06 0.100487)
(-7.58029e-07 -2.29042e-07 0.103999)
(3.14768e-06 -2.09021e-06 0.07788)
(-3.0998e-06 2.15598e-06 0.077916)
(1.58386e-07 1.73717e-05 0.10301)
(-2.31709e-07 -7.5221e-07 0.103999)
(4.64268e-06 -1.66455e-05 0.100447)
(9.32877e-07 -5.73627e-07 0.103913)
(-1.85447e-07 -1.74581e-05 0.102997)
(-2.31521e-07 -7.44489e-07 0.103999)
(-5.31605e-06 1.59276e-05 0.100486)
(-4.86382e-06 -5.89161e-06 0.0964269)
(-5.88582e-06 -4.8571e-06 0.0964259)
(5.0713e-05 5.07496e-05 0.103749)
(4.41182e-06 5.76108e-06 0.0964625)
(5.74681e-06 4.41317e-06 0.096461)
(9.39613e-08 -1.04209e-05 0.0999048)
(5.99609e-07 7.31119e-06 0.0906238)
(-1.22839e-07 9.91404e-06 0.0998788)
(-1.21204e-06 -7.11449e-06 0.0906556)
(-2.16331e-06 3.25362e-06 0.0778838)
(2.20239e-06 -3.23589e-06 0.0779153)
(-1.05089e-05 1.03886e-07 0.0999037)
(7.27855e-06 5.76692e-07 0.0906232)
(9.99348e-06 -9.44986e-08 0.0998793)
(-7.08216e-06 -1.18555e-06 0.0906557)
(9.25056e-07 -9.08487e-07 0.104041)
(-9.13684e-07 9.40401e-07 0.104041)
(9.25639e-07 9.24786e-07 0.104041)
(-9.36996e-07 -9.35431e-07 0.104041)
(9.36867e-07 -9.29493e-07 0.104041)
(-9.21477e-07 9.35737e-07 0.104041)
(9.31665e-07 9.21038e-07 0.104041)
(1.74031e-05 1.64666e-07 0.10301)
(-1.65764e-05 4.59309e-06 0.100447)
(-7.65887e-07 -2.2793e-07 0.103999)
(-5.88125e-07 9.44885e-07 0.103913)
(-1.74535e-05 -1.69195e-07 0.102997)
(1.5864e-05 -5.26373e-06 0.100487)
(-7.5191e-07 -2.27553e-07 0.103998)
(3.14382e-06 -2.08895e-06 0.0778806)
(-3.11885e-06 2.15077e-06 0.0779166)
(1.74747e-07 1.74122e-05 0.10301)
(-2.29471e-07 -7.33666e-07 0.103999)
(4.65935e-06 -1.66165e-05 0.100447)
(9.38566e-07 -5.6013e-07 0.103913)
(-1.83547e-07 -1.74054e-05 0.102996)
(-2.29674e-07 -7.26751e-07 0.103998)
(-5.30621e-06 1.59545e-05 0.100486)
(-4.86229e-06 -5.88725e-06 0.0964271)
(-5.90151e-06 -4.83662e-06 0.096426)
(5.07183e-05 5.07636e-05 0.103749)
(4.42415e-06 5.75791e-06 0.0964626)
(5.73351e-06 4.4366e-06 0.0964611)
(9.36352e-08 -1.04465e-05 0.0999049)
(5.85454e-07 7.30965e-06 0.0906242)
(-1.15517e-07 9.88428e-06 0.0998788)
(-1.21789e-06 -7.10855e-06 0.090656)
(-2.14923e-06 3.25704e-06 0.0778846)
(2.18015e-06 -3.23366e-06 0.0779161)
(-1.05349e-05 9.676e-08 0.0999037)
(7.2733e-06 5.64479e-07 0.0906236)
(9.97091e-06 -1.04863e-07 0.0998794)
(-7.07202e-06 -1.20644e-06 0.0906561)
(9.30236e-07 -9.2758e-07 0.10404)
(-9.18898e-07 9.27772e-07 0.10404)
(9.30073e-07 9.13132e-07 0.10404)
(-9.32838e-07 -9.33624e-07 0.10404)
(9.37599e-07 -9.27977e-07 0.10404)
(-9.2815e-07 9.36255e-07 0.10404)
(9.39193e-07 9.18887e-07 0.10404)
(1.74234e-05 1.5672e-07 0.10301)
(-1.65585e-05 4.59423e-06 0.100447)
(-7.48439e-07 -2.40283e-07 0.103998)
(-6.04651e-07 9.44068e-07 0.103913)
(-1.74361e-05 -1.75823e-07 0.102997)
(1.58648e-05 -5.2808e-06 0.100487)
(-7.72495e-07 -2.39197e-07 0.103998)
(3.14509e-06 -2.11392e-06 0.0778813)
(-3.11693e-06 2.15458e-06 0.0779173)
(1.54312e-07 1.74068e-05 0.10301)
(-2.32975e-07 -7.47886e-07 0.103998)
(4.63841e-06 -1.66316e-05 0.100447)
(9.51887e-07 -5.97999e-07 0.103912)
(-1.75663e-07 -1.74305e-05 0.102996)
(-2.32584e-07 -7.7015e-07 0.103998)
(-5.3353e-06 1.59556e-05 0.100486)
(-4.85975e-06 -5.88979e-06 0.0964271)
(-5.88367e-06 -4.85313e-06 0.0964261)
(5.07261e-05 5.07515e-05 0.103749)
(4.44885e-06 5.76771e-06 0.0964628)
(5.77109e-06 4.43762e-06 0.0964612)
(9.12821e-08 -1.04228e-05 0.0999049)
(5.64464e-07 7.31515e-06 0.0906247)
(-1.28513e-07 9.90561e-06 0.0998788)
(-1.21613e-06 -7.08295e-06 0.0906566)
(-2.11734e-06 3.25556e-06 0.0778855)
(2.11168e-06 -3.20998e-06 0.0779171)
(-1.05055e-05 7.63431e-08 0.0999037)
(7.28636e-06 5.17544e-07 0.0906241)
(1.00017e-05 -1.36812e-07 0.0998794)
(-7.02642e-06 -1.24671e-06 0.0906567)
(9.3834e-07 -9.38814e-07 0.10404)
(-9.26889e-07 9.26038e-07 0.10404)
(9.38397e-07 9.09472e-07 0.10404)
(-8.62732e-07 -8.84656e-07 0.10404)
(8.53537e-07 -8.82018e-07 0.10404)
(-8.32743e-07 8.18701e-07 0.10404)
(8.38304e-07 8.07631e-07 0.10404)
(1.73991e-05 1.43452e-07 0.10301)
(-1.65523e-05 4.56329e-06 0.100447)
(-7.07246e-07 -2.5248e-07 0.103998)
(-5.83876e-07 9.04531e-07 0.103912)
(-1.74542e-05 -2.03885e-07 0.102996)
(1.58299e-05 -5.29862e-06 0.100487)
(-7.42851e-07 -2.58818e-07 0.103998)
(3.14913e-06 -2.13894e-06 0.0778822)
(-3.06922e-06 1.99477e-06 0.0779179)
(1.643e-07 1.73605e-05 0.10301)
(-2.39028e-07 -7.14556e-07 0.103998)
(4.62906e-06 -1.66432e-05 0.100447)
(9.51292e-07 -6.12177e-07 0.103912)
(-1.79385e-07 -1.74518e-05 0.102996)
(-2.31586e-07 -7.71636e-07 0.103998)
(-5.29059e-06 1.58836e-05 0.100486)
(-4.83373e-06 -5.91103e-06 0.0964273)
(-5.88505e-06 -4.83801e-06 0.0964263)
(5.07262e-05 5.07424e-05 0.103749)
(4.41023e-06 5.69946e-06 0.096463)
(5.7119e-06 4.39248e-06 0.0964615)
(6.41431e-08 -1.00906e-05 0.0999048)
(6.51346e-07 7.49985e-06 0.090625)
(-1.07202e-07 1.00505e-05 0.0998789)
(-1.18553e-06 -6.81375e-06 0.0906564)
(-2.21164e-06 3.36006e-06 0.0778851)
(2.26703e-06 -3.12972e-06 0.0779156)
(-1.01696e-05 7.40367e-08 0.0999036)
(7.47779e-06 6.48599e-07 0.0906244)
(1.01933e-05 -1.97744e-07 0.0998795)
(-6.79752e-06 -1.10986e-06 0.0906564)
(8.27144e-07 -8.31029e-07 0.10404)
(-8.11787e-07 8.14813e-07 0.104041)
(8.24158e-07 8.02863e-07 0.104041)
(-8.67108e-07 -8.38908e-07 0.104041)
(8.82171e-07 -8.34936e-07 0.104041)
(-8.80037e-07 9.18816e-07 0.104041)
(9.00101e-07 9.01972e-07 0.104041)
(1.70101e-05 1.7246e-07 0.10301)
(-1.67908e-05 4.65534e-06 0.100447)
(-9.59737e-07 -2.16379e-07 0.103998)
(-7.38331e-07 1.03469e-06 0.103913)
(-1.78015e-05 -1.95183e-07 0.102996)
(1.55839e-05 -5.11088e-06 0.100487)
(-9.38611e-07 -1.88746e-07 0.103999)
(3.24644e-06 -2.0743e-06 0.077881)
(-3.00944e-06 2.23156e-06 0.0779162)
(1.65911e-07 1.69908e-05 0.10301)
(-1.9898e-07 -9.55718e-07 0.103998)
(4.74846e-06 -1.68839e-05 0.100447)
(9.99916e-07 -7.11998e-07 0.103913)
(-1.66242e-07 -1.78001e-05 0.102996)
(-2.01532e-07 -9.20435e-07 0.103999)
(-5.17578e-06 1.56561e-05 0.100486)
(-5.0382e-06 -5.94537e-06 0.0964272)
(-5.94094e-06 -5.03237e-06 0.0964262)
(5.06042e-05 5.0636e-05 0.103749)
(4.22882e-06 5.73377e-06 0.0964625)
(5.72134e-06 4.22901e-06 0.0964609)
(8.83171e-08 -1.02798e-05 0.0999045)
(6.10681e-07 7.53779e-06 0.0906236)
(-1.41262e-07 1.01627e-05 0.0998784)
(-1.21761e-06 -6.96935e-06 0.090655)
(-2.13362e-06 3.3188e-06 0.0778834)
(2.22028e-06 -3.18852e-06 0.0779145)
(-1.03836e-05 1.21071e-07 0.0999034)
(7.47851e-06 6.12557e-07 0.090623)
(1.02074e-05 -3.90009e-08 0.099879)
(-6.94701e-06 -1.18651e-06 0.090655)
(9.12822e-07 -8.72318e-07 0.104041)
(-9.0588e-07 9.41573e-07 0.104041)
(9.2477e-07 9.23876e-07 0.104041)
(-9.37823e-07 -9.33071e-07 0.104041)
(9.39121e-07 -9.28035e-07 0.104041)
(-9.24671e-07 9.38465e-07 0.104041)
(9.35093e-07 9.22509e-07 0.104041)
(1.7317e-05 1.81538e-07 0.10301)
(-1.67528e-05 4.78691e-06 0.100447)
(-7.88128e-07 -1.97154e-07 0.103999)
(-5.82969e-07 9.34955e-07 0.103913)
(-1.7597e-05 -1.25898e-07 0.102997)
(1.57609e-05 -5.16264e-06 0.100487)
(-7.64545e-07 -2.16029e-07 0.103999)
(3.19326e-06 -2.06763e-06 0.0778798)
(-3.07211e-06 2.15381e-06 0.0779155)
(1.53877e-07 1.73045e-05 0.10301)
(-2.27462e-07 -7.64622e-07 0.103999)
(4.76139e-06 -1.67875e-05 0.100447)
(9.18569e-07 -5.70269e-07 0.103913)
(-1.74144e-07 -1.75665e-05 0.102997)
(-2.32416e-07 -7.52993e-07 0.103999)
(-5.24842e-06 1.58507e-05 0.100486)
(-4.95274e-06 -5.90218e-06 0.0964265)
(-5.90597e-06 -4.93547e-06 0.0964255)
(5.07514e-05 5.07895e-05 0.103749)
(4.37301e-06 5.74212e-06 0.0964621)
(5.73461e-06 4.37244e-06 0.0964605)
(9.16396e-08 -1.0368e-05 0.0999048)
(6.21574e-07 7.38339e-06 0.090623)
(-1.25181e-07 9.97039e-06 0.0998786)
(-1.21268e-06 -7.04662e-06 0.0906547)
(-2.18095e-06 3.28915e-06 0.0778831)
(2.20403e-06 -3.20438e-06 0.0779143)
(-1.0446e-05 7.54192e-08 0.0999036)
(7.35157e-06 5.9077e-07 0.0906224)
(1.00512e-05 -1.14169e-07 0.0998792)
(-7.01025e-06 -1.19203e-06 0.0906548)
(9.34259e-07 -9.27821e-07 0.104041)
(-9.20963e-07 9.30732e-07 0.104041)
(9.32147e-07 9.14716e-07 0.104041)
(-9.2008e-07 -9.21284e-07 0.104041)
(9.21038e-07 -9.15855e-07 0.104041)
(-9.10275e-07 9.17944e-07 0.104041)
(9.20392e-07 9.01504e-07 0.104041)
(1.73346e-05 1.50934e-07 0.10301)
(-1.66301e-05 4.62937e-06 0.100447)
(-7.65138e-07 -2.40237e-07 0.103999)
(-5.95505e-07 9.25107e-07 0.103913)
(-1.74966e-05 -1.83182e-07 0.102997)
(1.58061e-05 -5.24861e-06 0.100487)
(-7.68393e-07 -2.40175e-07 0.103999)
(3.1672e-06 -2.10967e-06 0.0778796)