/*--------------------------------*- C++ -*----------------------------------*\
| =========                 |                                                 |
| \\      /  F ield         | OpenFOAM: The Open Source CFD Toolbox           |
|  \\    /   O peration     | Version:  2206                                  |
|   \\  /    A nd           | Website:  www.openfoam.com                      |
|    \\/     M anipulation  |                                                 |
\*---------------------------------------------------------------------------*/
FoamFile
{
    version     2.0;
    format      ascii;
    arch        "LSB;label=32;scalar=64";
    class       volScalarField;
    location    "15.5";
    object      epsilon;
}
// * * * * * * * * * * * * * * * * * * * * * * * * * * * * * * * * * * * * * //

dimensions      [0 2 -3 0 0 0 0];

internalField   nonuniform List<scalar> 
28688
(
4.95668e-07
4.97344e-07
4.97344e-07
4.9955e-07
4.45612e-07
4.53735e-07
4.53737e-07
4.6362e-07
4.02218e-07
4.17755e-07
4.17759e-07
4.39294e-07
3.72978e-07
3.89795e-07
3.89801e-07
4.15395e-07
3.67674e-07
3.82748e-07
3.82753e-07
4.04914e-07
3.67384e-07
3.82284e-07
3.82289e-07
4.04268e-07
3.67382e-07
3.82279e-07
3.82284e-07
4.04279e-07
3.67381e-07
3.82279e-07
3.82284e-07
4.04272e-07
3.67382e-07
3.82279e-07
3.82284e-07
4.04273e-07
3.67382e-07
3.82279e-07
3.82284e-07
4.04273e-07
3.67382e-07
3.82279e-07
3.82284e-07
4.04273e-07
3.67382e-07
3.82278e-07
3.82284e-07
4.04273e-07
5.06412e-07
5.05552e-07
5.05551e-07
5.06411e-07
5.05551e-07
5.05551e-07
5.09588e-07
5.09587e-07
5.09587e-07
5.09587e-07
5.05553e-07
5.05552e-07
5.06412e-07
5.05553e-07
5.05552e-07
5.06412e-07
4.9955e-07
4.67215e-07
4.97346e-07
4.9735e-07
4.63458e-07
4.63466e-07
4.9955e-07
4.67212e-07
4.97349e-07
4.97351e-07
4.63463e-07
4.63469e-07
4.97346e-07
4.63454e-07
4.6346e-07
4.9955e-07
4.67218e-07
4.97349e-07
4.63456e-07
4.63464e-07
4.67218e-07
4.6362e-07
4.41405e-07
4.5374e-07
4.53749e-07
4.26734e-07
4.26742e-07
4.63618e-07
4.41398e-07
4.53745e-07
4.53752e-07
4.26735e-07
4.26747e-07
4.53742e-07
4.26726e-07
4.26736e-07
4.63622e-07
4.41409e-07
4.53745e-07
4.26731e-07
4.26737e-07
4.41407e-07
4.39291e-07
4.17255e-07
4.17765e-07
4.17773e-07
3.94768e-07
3.94775e-07
4.3929e-07
4.17246e-07
4.17765e-07
4.17779e-07
3.94764e-07
3.94781e-07
4.17768e-07
3.94756e-07
3.94771e-07
4.39298e-07
4.1726e-07
4.17767e-07
3.94761e-07
3.94764e-07
4.17259e-07
4.15391e-07
4.04886e-07
3.89809e-07
3.89816e-07
3.83331e-07
3.83335e-07
4.15387e-07
4.0488e-07
3.89805e-07
3.89821e-07
3.83324e-07
3.83341e-07
3.89812e-07
3.8332e-07
3.83334e-07
4.15397e-07
4.04891e-07
3.89805e-07
3.83325e-07
3.83325e-07
4.0489e-07
4.04911e-07
4.04098e-07
3.8276e-07
3.82763e-07
3.82314e-07
3.82316e-07
4.04906e-07
4.04091e-07
3.82753e-07
3.82769e-07
3.82306e-07
3.82323e-07
3.82762e-07
3.82303e-07
3.82316e-07
4.04917e-07
4.04104e-07
3.82753e-07
3.82308e-07
3.82306e-07
4.04101e-07
4.04268e-07
4.04092e-07
3.82297e-07
3.82299e-07
3.8229e-07
3.82293e-07
4.04262e-07
4.04086e-07
3.82289e-07
3.82306e-07
3.82283e-07
3.823e-07
3.82299e-07
3.82279e-07
3.82292e-07
4.04273e-07
4.04098e-07
3.82289e-07
3.82284e-07
3.82282e-07
4.04096e-07
4.04277e-07
4.04087e-07
3.82293e-07
3.82296e-07
3.8229e-07
3.82293e-07
4.04272e-07
4.04082e-07
3.82286e-07
3.82303e-07
3.82282e-07
3.82299e-07
3.82296e-07
3.82279e-07
3.82292e-07
4.04283e-07
4.04094e-07
3.82286e-07
3.82284e-07
3.82282e-07
4.04091e-07
4.0427e-07
4.04089e-07
3.82292e-07
3.82295e-07
3.8229e-07
3.82293e-07
4.04267e-07
4.04085e-07
3.82285e-07
3.82302e-07
3.82282e-07
3.82299e-07
3.82294e-07
3.82279e-07
3.82292e-07
4.04277e-07
4.04096e-07
3.82284e-07
3.82284e-07
3.82282e-07
4.04092e-07
4.04272e-07
4.04089e-07
3.82294e-07
3.82295e-07
3.82291e-07
3.82293e-07
4.04269e-07
4.04085e-07
3.82285e-07
3.82302e-07
3.82282e-07
3.82299e-07
3.82294e-07
3.82279e-07
3.82292e-07
4.04279e-07
4.04096e-07
3.82284e-07
3.82284e-07
3.82282e-07
4.04092e-07
4.04272e-07
4.04088e-07
3.82293e-07
3.82295e-07
3.82291e-07
3.82293e-07
4.04269e-07
4.04085e-07
3.82285e-07
3.82302e-07
3.82282e-07
3.82299e-07
3.82294e-07
3.82279e-07
3.82292e-07
4.04279e-07
4.04096e-07
3.82284e-07
3.82284e-07
3.82282e-07
4.04092e-07
4.04272e-07
4.04088e-07
3.82293e-07
3.82295e-07
3.82291e-07
3.82293e-07
4.04269e-07
4.04085e-07
3.82285e-07
3.82302e-07
3.82282e-07
3.82299e-07
3.82294e-07
3.82279e-07
3.82292e-07
4.04279e-07
4.04096e-07
3.82284e-07
3.82284e-07
3.82282e-07
4.04092e-07
4.04271e-07
4.04088e-07
3.82293e-07
3.82295e-07
3.82294e-07
4.04269e-07
3.82285e-07
3.82302e-07
3.82286e-07
3.82302e-07
3.82294e-07
3.82295e-07
4.04279e-07
4.04096e-07
3.82284e-07
3.82288e-07
3.82285e-07
4.04092e-07
5.3565e-07
5.35593e-07
5.35643e-07
5.35643e-07
5.34574e-07
5.35514e-07
5.33635e-07
5.35646e-07
5.34574e-07
5.35514e-07
5.35646e-07
5.33634e-07
5.35265e-07
5.35987e-07
5.35987e-07
1.10756e-06
3.88241e-06
9.32078e-07
4.60265e-06
1.26084e-05
1.65896e-05
1.10763e-06
3.88263e-06
9.32139e-07
4.60302e-06
4.95668e-07
4.95668e-07
4.95669e-07
4.56813e-07
4.56812e-07
4.56813e-07
4.56813e-07
5.43368e-07
1.22015e-06
4.95652e-07
4.85618e-07
5.24992e-07
1.20951e-06
4.82439e-07
1.261e-05
1.65915e-05
5.43382e-07
4.95652e-07
1.22013e-06
4.85618e-07
5.24974e-07
4.8244e-07
1.20951e-06
2.52155e-06
2.52225e-06
4.84201e-07
2.37035e-06
2.37075e-06
1.44059e-06
5.59245e-06
1.32383e-06
6.13704e-06
2.12898e-05
2.31073e-05
1.44094e-06
5.59312e-06
1.32394e-06
6.13767e-06
4.45613e-07
4.45613e-07
4.45613e-07
4.13396e-07
4.13393e-07
4.13395e-07
4.13395e-07
5.88493e-07
1.19412e-06
4.46466e-07
4.44716e-07
5.72922e-07
1.20551e-06
4.36347e-07
2.12929e-05
2.31102e-05
5.88517e-07
4.46467e-07
1.19413e-06
4.44719e-07
5.72929e-07
4.36348e-07
1.20563e-06
2.30831e-06
2.30881e-06
4.5369e-07
2.36192e-06
2.36238e-06
1.68692e-06
6.92565e-06
1.5874e-06
7.31914e-06
2.46795e-05
2.48982e-05
1.68708e-06
6.92651e-06
1.58726e-06
7.32005e-06
4.02219e-07
4.0222e-07
4.0222e-07
3.77242e-07
3.77242e-07
3.77243e-07
3.77243e-07
6.17861e-07
1.24616e-06
4.05215e-07
4.0915e-07
6.06952e-07
1.26241e-06
3.9567e-07
2.46833e-05
2.49015e-05
6.17877e-07
4.05217e-07
1.24624e-06
4.09155e-07
6.06977e-07
3.95673e-07
1.2626e-06
2.48607e-06
2.48654e-06
4.29643e-07
2.52819e-06
2.52866e-06
1.56433e-06
7.7725e-06
1.61569e-06
7.93965e-06
2.48182e-05
2.48308e-05
1.56445e-06
7.77346e-06
1.61557e-06
7.94074e-06
3.72979e-07
3.72981e-07
3.72981e-07
3.68061e-07
3.68061e-07
3.68062e-07
3.68062e-07
5.88879e-07
1.24477e-06
3.77289e-07
3.86461e-07
6.01849e-07
1.24691e-06
3.74607e-07
2.48214e-05
2.48337e-05
5.88886e-07
3.7729e-07
1.24477e-06
3.86466e-07
6.01853e-07
3.74609e-07
1.24702e-06
2.47574e-06
2.47619e-06
4.08256e-07
2.5278e-06
2.5283e-06
1.55577e-06
8.0185e-06
1.55597e-06
8.02114e-06
2.48771e-05
2.4879e-05
1.55563e-06
8.0199e-06
1.55578e-06
8.02242e-06
3.67674e-07
3.67676e-07
3.67675e-07
3.67393e-07
3.67393e-07
3.67394e-07
3.67394e-07
5.84291e-07
1.25907e-06
3.7184e-07
3.82479e-07
5.84695e-07
1.25952e-06
3.7166e-07
2.48787e-05
2.48803e-05
5.84283e-07
3.71841e-07
1.25901e-06
3.82484e-07
5.84689e-07
3.71661e-07
1.25947e-06
2.58668e-06
2.58722e-06
4.04233e-07
2.59126e-06
2.59182e-06
1.55578e-06
8.02133e-06
1.55621e-06
8.02086e-06
2.488e-05
2.48794e-05
1.55563e-06
8.02259e-06
1.55603e-06
8.02207e-06
3.67387e-07
3.67389e-07
3.67388e-07
3.67382e-07
3.67383e-07
3.67385e-07
3.67384e-07
5.8419e-07
1.26025e-06
3.71537e-07
3.82282e-07
5.84317e-07
1.2597e-06
3.71538e-07
2.48814e-05
2.48806e-05
5.84181e-07
3.71538e-07
1.26018e-06
3.82287e-07
5.84308e-07
3.71539e-07
1.25966e-06
2.59251e-06
2.59306e-06
4.04075e-07
2.59215e-06
2.5927e-06
1.55576e-06
8.02114e-06
1.55618e-06
8.02078e-06
2.488e-05
2.48795e-05
1.55561e-06
8.02236e-06
1.55598e-06
8.02196e-06
3.67386e-07
3.67387e-07
3.67386e-07
3.67382e-07
3.67383e-07
3.67384e-07
3.67384e-07
5.84193e-07
1.26022e-06
3.71535e-07
3.82281e-07
5.84308e-07
1.25969e-06
3.71537e-07
2.48813e-05
2.48805e-05
5.84184e-07
3.71536e-07
1.26016e-06
3.82286e-07
5.84298e-07
3.71538e-07
1.25965e-06
2.59256e-06
2.5931e-06
4.04094e-07
2.59216e-06
2.59271e-06
1.55576e-06
8.02115e-06
1.55618e-06
8.02078e-06
2.48801e-05
2.48796e-05
1.55561e-06
8.02234e-06
1.55598e-06
8.02196e-06
3.67385e-07
3.67387e-07
3.67386e-07
3.67382e-07
3.67383e-07
3.67384e-07
3.67384e-07
5.84193e-07
1.26022e-06
3.71535e-07
3.82281e-07
5.84307e-07
1.25968e-06
3.71538e-07
2.48812e-05
2.48805e-05
5.84184e-07
3.71536e-07
1.26015e-06
3.82286e-07
5.84298e-07
3.71538e-07
1.25965e-06
2.59256e-06
2.5931e-06
4.04093e-07
2.59216e-06
2.59271e-06
1.55576e-06
8.02113e-06
1.55617e-06
8.02077e-06
2.48801e-05
2.48796e-05
1.55561e-06
8.02234e-06
1.55598e-06
8.02196e-06
3.67385e-07
3.67387e-07
3.67386e-07
3.67382e-07
3.67383e-07
3.67384e-07
3.67384e-07
5.84192e-07
1.26022e-06
3.71535e-07
3.82281e-07
5.84307e-07
1.25968e-06
3.71537e-07
2.48812e-05
2.48805e-05
5.84183e-07
3.71536e-07
1.26015e-06
3.82286e-07
5.84298e-07
3.71538e-07
1.25965e-06
2.59256e-06
2.5931e-06
4.04092e-07
2.59216e-06
2.59271e-06
1.55576e-06
8.02102e-06
1.55617e-06
8.02056e-06
2.48801e-05
2.48796e-05
1.55562e-06
8.02224e-06
1.55598e-06
8.02181e-06
3.67385e-07
3.67387e-07
3.67386e-07
3.67382e-07
3.67383e-07
3.67384e-07
3.67384e-07
5.84192e-07
1.26022e-06
3.71535e-07
3.82281e-07
5.84307e-07
1.25968e-06
3.71537e-07
2.48813e-05
2.48805e-05
5.84183e-07
3.71536e-07
1.26015e-06
3.82286e-07
5.84298e-07
3.71538e-07
1.25965e-06
2.59256e-06
2.5931e-06
4.04092e-07
2.59216e-06
2.59271e-06
1.55576e-06
8.0209e-06
1.55617e-06
8.02057e-06
2.48801e-05
2.48796e-05
1.55561e-06
8.02217e-06
1.55598e-06
8.02176e-06
3.67385e-07
3.67387e-07
3.67386e-07
3.67382e-07
3.67383e-07
3.67384e-07
3.67384e-07
5.84192e-07
1.26022e-06
3.71535e-07
3.82281e-07
5.84307e-07
1.25968e-06
3.71537e-07
2.48812e-05
2.48805e-05
5.84183e-07
3.71536e-07
1.26015e-06
3.82286e-07
5.84298e-07
3.71538e-07
1.25965e-06
2.59256e-06
2.5931e-06
4.04092e-07
2.59216e-06
2.59271e-06
1.55576e-06
8.02095e-06
1.55617e-06
8.0206e-06
2.48801e-05
2.48796e-05
1.55561e-06
8.02213e-06
1.55598e-06
8.02174e-06
3.67385e-07
3.67387e-07
3.67386e-07
3.67386e-07
3.6739e-07
3.67388e-07
3.67387e-07
5.84192e-07
1.26022e-06
3.71535e-07
3.8228e-07
5.84307e-07
1.25968e-06
3.71537e-07
2.48812e-05
2.48805e-05
5.84182e-07
3.71536e-07
1.26015e-06
3.82286e-07
5.84298e-07
3.71538e-07
1.25965e-06
2.59256e-06
2.5931e-06
4.04092e-07
2.59215e-06
2.5927e-06
5.35265e-07
5.3599e-07
5.35988e-07
1.09161e-05
5.81346e-07
1.09174e-05
5.81338e-07
5.28196e-07
2.43135e-06
2.43227e-06
5.40833e-07
5.4083e-07
5.34574e-07
5.35514e-07
5.33635e-07
5.35646e-07
5.34574e-07
5.35514e-07
5.33634e-07
5.35646e-07
5.30398e-07
3.47228e-06
5.68207e-07
8.22055e-07
5.30397e-07
3.4723e-06
5.68206e-07
8.22014e-07
5.29522e-07
5.28392e-07
1.16679e-06
5.09549e-07
5.32664e-07
5.28343e-07
5.19222e-07
5.29522e-07
5.28392e-07
1.16693e-06
5.09549e-07
5.32664e-07
5.28343e-07
5.19225e-07
5.35265e-07
5.35989e-07
5.35988e-07
1.09163e-05
5.81325e-07
5.28196e-07
2.43181e-06
2.43197e-06
5.40834e-07
5.40829e-07
1.0917e-05
5.81319e-07
5.34574e-07
5.35514e-07
5.33635e-07
5.35646e-07
5.34574e-07
5.35514e-07
5.35646e-07
5.33635e-07
5.30397e-07
3.47262e-06
5.68204e-07
8.2218e-07
5.29522e-07
5.28392e-07
1.16705e-06
5.09549e-07
5.32663e-07
5.28343e-07
5.1923e-07
5.30397e-07
3.47271e-06
5.68202e-07
8.22083e-07
5.29522e-07
5.28392e-07
5.09549e-07
1.16696e-06
5.28343e-07
5.32663e-07
5.19225e-07
5.3565e-07
5.35593e-07
5.35643e-07
5.35643e-07
5.3565e-07
5.35593e-07
5.35643e-07
5.35643e-07
5.3565e-07
5.35593e-07
5.35643e-07
5.35643e-07
5.28428e-07
5.28376e-07
5.09664e-07
5.09664e-07
5.28401e-07
5.28401e-07
5.09719e-07
5.28428e-07
5.28375e-07
5.09663e-07
5.09663e-07
5.28401e-07
5.28401e-07
5.0972e-07
5.28428e-07
5.28375e-07
5.09663e-07
5.09664e-07
5.28401e-07
5.28401e-07
5.0972e-07
5.28428e-07
5.28375e-07
5.09663e-07
5.09663e-07
5.28401e-07
5.28401e-07
5.0972e-07
5.34574e-07
5.35514e-07
5.35646e-07
5.33635e-07
5.29522e-07
5.28392e-07
1.16699e-06
5.0955e-07
5.32663e-07
5.28343e-07
5.19228e-07
5.30398e-07
3.4725e-06
5.68198e-07
8.22098e-07
5.29522e-07
5.28392e-07
5.09549e-07
1.16687e-06
5.28343e-07
5.32662e-07
5.19224e-07
5.30398e-07
3.47263e-06
5.68202e-07
8.22048e-07
5.35265e-07
5.35987e-07
5.35986e-07
1.09175e-05
5.81335e-07
5.28196e-07
2.4321e-06
2.43194e-06
5.40829e-07
5.40827e-07
1.09174e-05
5.81314e-07
5.34574e-07
5.35514e-07
5.35646e-07
5.33635e-07
5.29522e-07
5.28392e-07
5.0955e-07
1.16693e-06
5.28343e-07
5.32662e-07
5.19227e-07
5.29522e-07
5.28392e-07
5.09549e-07
1.16705e-06
5.28343e-07
5.32663e-07
5.1923e-07
5.30397e-07
3.47266e-06
5.68196e-07
8.22158e-07
5.30397e-07
3.47268e-06
5.68207e-07
8.22248e-07
5.28196e-07
2.43173e-06
2.4324e-06
5.40828e-07
5.40829e-07
1.09173e-05
5.81318e-07
1.09175e-05
5.81332e-07
1.26082e-05
1.65883e-05
1.26097e-05
1.65912e-05
2.52149e-06
2.52224e-06
4.842e-07
2.37004e-06
2.37076e-06
2.05165e-05
1.76957e-05
2.05202e-05
1.76984e-05
4.79278e-07
2.30485e-06
2.30551e-06
2.33803e-06
2.33877e-06
1.1074e-06
3.88232e-06
9.32196e-07
4.6026e-06
5.43356e-07
1.22002e-06
4.95652e-07
4.85619e-07
5.25002e-07
1.20945e-06
4.82438e-07
5.4335e-07
1.22021e-06
4.95652e-07
4.85625e-07
5.25011e-07
1.20968e-06
4.82438e-07
1.15696e-06
5.40411e-06
4.81202e-06
1.28404e-06
1.15708e-06
5.40409e-06
4.81199e-06
1.28405e-06
5.50311e-07
4.74216e-07
1.19291e-06
4.57394e-07
1.20404e-06
4.69533e-07
5.67079e-07
5.50314e-07
4.74224e-07
1.19309e-06
4.57394e-07
1.20421e-06
4.69533e-07
5.67075e-07
2.52198e-06
2.52172e-06
4.84199e-07
2.37063e-06
2.37017e-06
1.26089e-05
1.65893e-05
2.0518e-05
1.76971e-05
4.79278e-07
2.30535e-06
2.30505e-06
2.33856e-06
2.33835e-06
2.05175e-05
1.76968e-05
5.43381e-07
1.22029e-06
4.95652e-07
4.85623e-07
5.25009e-07
1.20971e-06
4.82439e-07
1.10759e-06
3.88293e-06
9.31984e-07
4.60334e-06
5.43377e-07
4.95652e-07
1.22025e-06
4.85627e-07
5.24997e-07
4.82439e-07
1.20971e-06
1.15703e-06
5.40457e-06
4.81234e-06
1.28415e-06
5.50317e-07
4.74222e-07
1.1931e-06
4.57395e-07
1.20423e-06
4.69533e-07
5.67095e-07
1.15701e-06
5.40502e-06
4.81284e-06
1.28415e-06
5.50318e-07
4.74226e-07
4.57395e-07
1.19315e-06
4.69534e-07
1.20428e-06
5.671e-07
1.10755e-06
3.88239e-06
9.32059e-07
4.60283e-06
5.43366e-07
4.95652e-07
1.22011e-06
4.85619e-07
5.2498e-07
4.82439e-07
1.20956e-06
1.10757e-06
3.88281e-06
9.31892e-07
4.60309e-06
5.50308e-07
4.74212e-07
1.19291e-06
4.57394e-07
1.20405e-06
4.69532e-07
5.67085e-07
1.15701e-06
5.40412e-06
4.8118e-06
1.28414e-06
5.50307e-07
4.74217e-07
4.57394e-07
1.19296e-06
4.69533e-07
1.20404e-06
5.67082e-07
1.15691e-06
5.40455e-06
4.81257e-06
1.28411e-06
2.52216e-06
2.52166e-06
4.84202e-07
2.37076e-06
2.37e-06
1.26097e-05
1.65904e-05
2.05207e-05
1.76993e-05
4.79279e-07
2.30558e-06
2.30501e-06
2.33869e-06
2.33823e-06
2.0519e-05
1.76978e-05
5.4339e-07
4.95653e-07
1.22029e-06
4.85624e-07
5.24986e-07
4.82439e-07
1.2097e-06
1.10778e-06
3.88278e-06
9.31853e-07
4.60318e-06
1.10785e-06
3.88266e-06
9.31965e-07
4.60308e-06
5.50311e-07
4.74214e-07
4.57395e-07
1.19296e-06
4.69533e-07
1.2041e-06
5.67097e-07
5.50311e-07
4.74221e-07
4.57395e-07
1.19308e-06
4.69533e-07
1.20421e-06
5.67103e-07
1.15679e-06
5.4048e-06
4.81255e-06
1.28417e-06
1.15682e-06
5.40478e-06
4.8123e-06
1.2842e-06
1.26093e-05
1.65903e-05
1.26098e-05
1.6591e-05
4.79278e-07
2.30498e-06
2.30548e-06
2.33793e-06
2.33874e-06
2.05183e-05
1.76972e-05
2.05199e-05
1.76985e-05
2.12882e-05
2.31054e-05
2.12918e-05
2.31097e-05
2.30817e-06
2.30889e-06
4.53686e-07
2.36157e-06
2.36225e-06
2.44716e-05
2.35409e-05
2.44754e-05
2.35443e-05
4.51047e-07
2.44435e-06
2.44532e-06
2.37702e-06
2.37754e-06
1.44058e-06
5.59248e-06
1.3238e-06
6.1372e-06
5.88485e-07
1.1941e-06
4.46468e-07
4.44722e-07
5.72927e-07
1.20556e-06
4.36347e-07
5.88484e-07
1.19426e-06
4.46468e-07
4.4473e-07
5.72922e-07
1.20574e-06
4.36347e-07
1.47794e-06
6.77321e-06
6.30297e-06
1.54647e-06
1.4779e-06
6.77335e-06
6.30297e-06
1.54644e-06
5.94083e-07
4.35767e-07
1.23056e-06
4.15637e-07
1.21161e-06
4.26164e-07
6.01471e-07
5.94074e-07
4.35775e-07
1.23079e-06
4.15637e-07
1.21175e-06
4.26165e-07
6.01464e-07
2.30866e-06
2.30835e-06
4.53682e-07
2.3621e-06
2.36131e-06
2.12893e-05
2.31061e-05
2.4473e-05
2.35424e-05
4.51045e-07
2.44514e-06
2.44422e-06
2.37737e-06
2.37749e-06
2.44721e-05
2.35421e-05
5.88511e-07
1.19432e-06
4.46468e-07
4.44724e-07
5.72939e-07
1.20574e-06
4.36347e-07
1.44094e-06
5.59354e-06
1.32393e-06
6.13832e-06
5.88513e-07
4.4647e-07
1.19433e-06
4.44733e-07
5.72944e-07
4.36348e-07
1.20579e-06
1.47773e-06
6.77387e-06
6.30377e-06
1.54674e-06
5.94098e-07
4.3577e-07
1.23078e-06
4.15637e-07
1.21176e-06
4.26165e-07
6.01484e-07
1.47773e-06
6.77456e-06
6.30423e-06
1.54675e-06
5.94102e-07
4.35779e-07
4.15639e-07
1.23075e-06
4.26167e-07
1.21191e-06
6.01491e-07
1.44076e-06
5.59248e-06
1.32378e-06
6.13715e-06
5.88497e-07
4.46468e-07
1.19415e-06
4.44723e-07
5.72926e-07
4.36347e-07
1.20567e-06
1.44063e-06
5.59306e-06
1.32388e-06
6.13773e-06
5.94078e-07
4.35759e-07
1.23048e-06
4.15637e-07
1.21163e-06
4.26163e-07
6.0147e-07
1.47781e-06
6.77334e-06
6.30301e-06
1.54651e-06
5.94081e-07
4.35769e-07
4.15637e-07
1.23072e-06
4.26165e-07
1.21168e-06
6.01475e-07
1.47783e-06
6.77403e-06
6.30365e-06
1.54653e-06
2.30891e-06
2.30817e-06
4.5369e-07
2.36202e-06
2.36173e-06
2.12902e-05
2.31082e-05
2.44762e-05
2.35462e-05
4.5105e-07
2.445e-06
2.44475e-06
2.37807e-06
2.37715e-06
2.44737e-05
2.35432e-05
5.88509e-07
4.46468e-07
1.19425e-06
4.44727e-07
5.72927e-07
4.36347e-07
1.20577e-06
1.44094e-06
5.59312e-06
1.32392e-06
6.13792e-06
1.44081e-06
5.59299e-06
1.32391e-06
6.13789e-06
5.94093e-07
4.35762e-07
4.15638e-07
1.23065e-06
4.26164e-07
1.21165e-06
6.01487e-07
5.9409e-07
4.35769e-07
4.15638e-07
1.23082e-06
4.26165e-07
1.21177e-06
6.01485e-07
1.4777e-06
6.77406e-06
6.30369e-06
1.54675e-06
1.47773e-06
6.77416e-06
6.30371e-06
1.54676e-06
2.12902e-05
2.31083e-05
2.12918e-05
2.31099e-05
4.51048e-07
2.44491e-06
2.44538e-06
2.3772e-06
2.37765e-06
2.4474e-05
2.35434e-05
2.44755e-05
2.35449e-05
2.46789e-05
2.48974e-05
2.46815e-05
2.49002e-05
2.48622e-06
2.48641e-06
4.29639e-07
2.52801e-06
2.5286e-06
2.48216e-05
2.4888e-05
2.48245e-05
2.48906e-05
4.27501e-07
2.47548e-06
2.47604e-06
2.52549e-06
2.5258e-06
1.6869e-06
6.92559e-06
1.58736e-06
7.31938e-06
6.17859e-07
1.24624e-06
4.05217e-07
4.09161e-07
6.06955e-07
1.26249e-06
3.9567e-07
6.17854e-07
1.24629e-06
4.05218e-07
4.09169e-07
6.06948e-07
1.26264e-06
3.95671e-07
1.68941e-06
7.69389e-06
7.4264e-06
1.63953e-06
1.68939e-06
7.69425e-06
7.42631e-06
1.63953e-06
6.1772e-07
4.01337e-07
1.24712e-06
3.81545e-07
1.2626e-06
3.87665e-07
6.0661e-07
6.17717e-07
4.01344e-07
1.24726e-06
3.81546e-07
1.2627e-06
3.87665e-07
6.06611e-07
2.48633e-06
2.4862e-06
4.29631e-07
2.5285e-06
2.52791e-06
2.46792e-05
2.48976e-05
2.48227e-05
2.48885e-05
4.27498e-07
2.47593e-06
2.47538e-06
2.52574e-06
2.52543e-06
2.48219e-05
2.48882e-05
6.17884e-07
1.24633e-06
4.05218e-07
4.09159e-07
6.06973e-07
1.26264e-06
3.95672e-07
1.68707e-06
6.92691e-06
1.58727e-06
7.32069e-06
6.17884e-07
4.0522e-07
1.24645e-06
4.09174e-07
6.06978e-07
3.95674e-07
1.26269e-06
1.68944e-06
7.69496e-06
7.42729e-06
1.63984e-06
6.17744e-07
4.01333e-07
1.24734e-06
3.81547e-07
1.26276e-06
3.87666e-07
6.06643e-07
1.68943e-06
7.69548e-06
7.42773e-06
1.6398e-06
6.17744e-07
4.0135e-07
3.81548e-07
1.24735e-06
3.87668e-07
1.26282e-06
6.0664e-07
1.68697e-06
6.92568e-06
1.58743e-06
7.31941e-06
6.17864e-07
4.05218e-07
1.24622e-06
4.09164e-07
6.06958e-07
3.95671e-07
1.26257e-06
1.68697e-06
6.92628e-06
1.58745e-06
7.32011e-06
6.17722e-07
4.01323e-07
1.24709e-06
3.81544e-07
1.26253e-06
3.87663e-07
6.06622e-07
1.68947e-06
7.69422e-06
7.42643e-06
1.63961e-06
6.17723e-07
4.0134e-07
3.81546e-07
1.24718e-06
3.87666e-07
1.26263e-06
6.0662e-07
1.68946e-06
7.69486e-06
7.42702e-06
1.63958e-06
2.48688e-06
2.48607e-06
4.29644e-07
2.52868e-06
2.52817e-06
2.46803e-05
2.48989e-05
2.48257e-05
2.48921e-05
4.27507e-07
2.47612e-06
2.4756e-06
2.52616e-06
2.5254e-06
2.48234e-05
2.48892e-05
6.17877e-07
4.05219e-07
1.24632e-06
4.09161e-07
6.06974e-07
3.95672e-07
1.26266e-06
1.68706e-06
6.92632e-06
1.58727e-06
7.3202e-06
1.68708e-06
6.92643e-06
1.58727e-06
7.32028e-06
6.17736e-07
4.01328e-07
3.81546e-07
1.2472e-06
3.87664e-07
1.26265e-06
6.06631e-07
6.17739e-07
4.01335e-07
3.81547e-07
1.24728e-06
3.87667e-07
1.26272e-06
6.06632e-07
1.68941e-06
7.69498e-06
7.42712e-06
1.63979e-06
1.68944e-06
7.69517e-06
7.42722e-06
1.63983e-06
2.46806e-05
2.48992e-05
2.4682e-05
2.49004e-05
4.27504e-07
2.47562e-06
2.47608e-06
2.52543e-06
2.5259e-06
2.48236e-05
2.48895e-05
2.48248e-05
2.48908e-05
2.48175e-05
2.48297e-05
2.482e-05
2.48323e-05
2.47576e-06
2.4761e-06
4.08253e-07
2.52773e-06
2.52823e-06
2.48696e-05
2.48462e-05
2.48735e-05
2.48499e-05
4.07623e-07
2.58065e-06
2.58123e-06
2.54918e-06
2.54972e-06
1.56432e-06
7.77257e-06
1.61565e-06
7.93995e-06
5.88873e-07
1.24481e-06
3.77291e-07
3.86471e-07
6.01837e-07
1.24695e-06
3.74605e-07
5.88871e-07
1.24484e-06
3.77292e-07
3.86476e-07
6.01838e-07
1.24708e-06
3.74606e-07
1.56042e-06
8.01306e-06
7.97206e-06
1.55554e-06
1.56041e-06
8.01354e-06
7.97229e-06
1.55553e-06
5.87554e-07
3.84448e-07
1.25709e-06
3.72242e-07
1.25154e-06
3.73058e-07
5.84683e-07
5.87553e-07
3.84453e-07
1.25717e-06
3.72242e-07
1.25166e-06
3.73059e-07
5.84681e-07
2.47602e-06
2.47571e-06
4.08246e-07
2.52815e-06
2.52748e-06
2.48176e-05
2.48298e-05
2.48717e-05
2.48483e-05
4.07618e-07
2.58111e-06
2.58064e-06
2.54963e-06
2.54926e-06
2.48696e-05
2.48474e-05
5.88896e-07
1.2449e-06
3.77293e-07
3.86465e-07
6.01857e-07
1.24714e-06
3.74607e-07
1.56444e-06
7.77392e-06
1.61551e-06
7.9411e-06
5.88896e-07
3.77294e-07
1.24503e-06
3.86482e-07
6.01858e-07
3.74608e-07
1.24716e-06
1.56024e-06
8.01444e-06
7.97326e-06
1.5554e-06
5.87563e-07
3.84442e-07
1.25722e-06
3.72243e-07
1.25173e-06
3.73059e-07
5.84684e-07
1.56024e-06
8.01437e-06
7.97349e-06
1.55541e-06
5.87565e-07
3.84458e-07
3.72244e-07
1.25735e-06
3.73061e-07
1.25182e-06
5.84688e-07
1.56437e-06
7.77267e-06
1.61573e-06
7.93992e-06
5.88882e-07
3.77292e-07
1.24476e-06
3.86474e-07
6.01837e-07
3.74606e-07
1.24701e-06
1.56436e-06
7.77314e-06
1.6157e-06
7.94045e-06
5.87553e-07
3.84435e-07
1.2571e-06
3.72241e-07
1.25156e-06
3.73056e-07
5.84684e-07
1.56045e-06
8.01323e-06
7.97232e-06
1.55555e-06
5.87554e-07
3.84451e-07
3.72242e-07
1.2571e-06
3.73059e-07
1.2516e-06
5.84688e-07
1.56044e-06
8.014e-06
7.97277e-06
1.55555e-06
2.47643e-06
2.4757e-06
4.08258e-07
2.5283e-06
2.52781e-06
2.48189e-05
2.48314e-05
2.48733e-05
2.48513e-05
4.07629e-07
2.5814e-06
2.58076e-06
2.55007e-06
2.54928e-06
2.48724e-05
2.4849e-05
5.88883e-07
3.77293e-07
1.24487e-06
3.86465e-07
6.01852e-07
3.74607e-07
1.24712e-06
1.56443e-06
7.77326e-06
1.61549e-06
7.94057e-06
1.56444e-06
7.77348e-06
1.61552e-06
7.94085e-06
5.87554e-07
3.84441e-07
3.72243e-07
1.25712e-06
3.73057e-07
1.2516e-06
5.84678e-07
5.87554e-07
3.84442e-07
3.72242e-07
1.25721e-06
3.73059e-07
1.25172e-06
5.84674e-07
1.56023e-06
8.01413e-06
7.9729e-06
1.55539e-06
1.56023e-06
8.01446e-06
7.9732e-06
1.55539e-06
2.48191e-05
2.48317e-05
2.48203e-05
2.48328e-05
4.07627e-07
2.58076e-06
2.58131e-06
2.54932e-06
2.54979e-06
2.48727e-05
2.48492e-05
2.48738e-05
2.48504e-05
2.48751e-05
2.48772e-05
2.48789e-05
2.48807e-05
2.58648e-06
2.58708e-06
4.04229e-07
2.59106e-06
2.59173e-06
2.48776e-05
2.48779e-05
2.48811e-05
2.48814e-05
4.04373e-07
2.59183e-06
2.59254e-06
2.59182e-06
2.59252e-06
1.55578e-06
8.01888e-06
1.55594e-06
8.0217e-06
5.84291e-07
1.25898e-06
3.71841e-07
3.8249e-07
5.84696e-07
1.25943e-06
3.7166e-07
5.84289e-07
1.25906e-06
3.71842e-07
3.82492e-07
5.84694e-07
1.25954e-06
3.71661e-07
1.55618e-06
8.02103e-06
8.02135e-06
1.55581e-06
1.55619e-06
8.02158e-06
8.02189e-06
1.55582e-06
5.84387e-07
3.82366e-07
1.25961e-06
3.71547e-07
1.26004e-06
3.71579e-07
5.84209e-07
5.84386e-07
3.82369e-07
1.25975e-06
3.71548e-07
1.26016e-06
3.7158e-07
5.84208e-07
2.58702e-06
2.58701e-06
4.04223e-07
2.59163e-06
2.59125e-06
2.4875e-05
2.48766e-05
2.48795e-05
2.48798e-05
4.04368e-07
2.59244e-06
2.5922e-06
2.59244e-06
2.59232e-06
2.4877e-05
2.48776e-05
5.84288e-07
1.25911e-06
3.71842e-07
3.82482e-07
5.84694e-07
1.25962e-06
3.71661e-07
1.55564e-06
8.0198e-06
1.55576e-06
8.02252e-06
5.84293e-07
3.71843e-07
1.25932e-06
3.82499e-07
5.84699e-07
3.71662e-07
1.25977e-06
1.556e-06
8.02227e-06
8.02263e-06
1.55567e-06
5.84384e-07
3.82359e-07
1.25983e-06
3.71548e-07
1.26022e-06
3.7158e-07
5.84206e-07
1.55601e-06
8.02237e-06
8.02273e-06
1.55568e-06
5.84389e-07
3.82375e-07
3.7155e-07
1.25997e-06
3.71581e-07
1.26042e-06
5.84211e-07
1.5558e-06
8.01867e-06
1.55596e-06
8.02142e-06
5.84295e-07
3.71841e-07
1.259e-06
3.82492e-07
5.84698e-07
3.7166e-07
1.25947e-06
1.5558e-06
8.01933e-06
1.55596e-06
8.02213e-06
5.84386e-07
3.82355e-07
1.25972e-06
3.71547e-07
1.26016e-06
3.71579e-07
5.8421e-07
1.55621e-06
8.02128e-06
8.02163e-06
1.55584e-06
5.8439e-07
3.82369e-07
3.71548e-07
1.25968e-06
3.71579e-07
1.26009e-06
5.84214e-07
1.55621e-06
8.022e-06
8.02231e-06
1.55584e-06
2.58771e-06
2.58665e-06
4.04235e-07
2.59201e-06
2.59125e-06
2.48778e-05
2.48796e-05
2.48807e-05
2.48813e-05
4.04379e-07
2.59294e-06
2.59206e-06
2.59305e-06
2.59206e-06
2.488e-05
2.48804e-05
5.84278e-07
3.71842e-07
1.25911e-06
3.82482e-07
5.84686e-07
3.7166e-07
1.25959e-06
1.55563e-06
8.01947e-06
1.55574e-06
8.02226e-06
1.55562e-06
8.0198e-06
1.55574e-06
8.0226e-06
5.84378e-07
3.8236e-07
3.71548e-07
1.25968e-06
3.7158e-07
1.26008e-06
5.84201e-07
5.84375e-07
3.82359e-07
3.71547e-07
1.25979e-06
3.71579e-07
1.2602e-06
5.84195e-07
1.55599e-06
8.02214e-06
8.02245e-06
1.55567e-06
1.55599e-06
8.02247e-06
8.02278e-06
1.55567e-06
2.48781e-05
2.48798e-05
2.48792e-05
2.4881e-05
4.04377e-07
2.59208e-06
2.59263e-06
2.59208e-06
2.59263e-06
2.48802e-05
2.48806e-05
2.48814e-05
2.48818e-05
2.4878e-05
2.48775e-05
2.48816e-05
2.4881e-05
2.59222e-06
2.59291e-06
4.04073e-07
2.59193e-06
2.59261e-06
2.48775e-05
2.4878e-05
2.48809e-05
2.48815e-05
4.04259e-07
2.59196e-06
2.59262e-06
2.59228e-06
2.59295e-06
1.55579e-06
8.02171e-06
1.55619e-06
8.02141e-06
5.8419e-07
1.26009e-06
3.7154e-07
3.82292e-07
5.84317e-07
1.25959e-06
3.71538e-07
5.84188e-07
1.26024e-06
3.71541e-07
3.82295e-07
5.84317e-07
1.25974e-06
3.71539e-07
1.55615e-06
8.02079e-06
8.02102e-06
1.55576e-06
1.55616e-06
8.02131e-06
8.02156e-06
1.55577e-06
5.84304e-07
3.8229e-07
1.25958e-06
3.71536e-07
1.26007e-06
3.71536e-07
5.84192e-07
5.84302e-07
3.82293e-07
1.25973e-06
3.71537e-07
1.26023e-06
3.71537e-07
5.8419e-07
2.59284e-06
2.59265e-06
4.04066e-07
2.59253e-06
2.59223e-06
2.48777e-05
2.48769e-05
2.48794e-05
2.48799e-05
4.04254e-07
2.59252e-06
2.59222e-06
2.59288e-06
2.59266e-06
2.48768e-05
2.48776e-05
5.84186e-07
1.26031e-06
3.7154e-07
3.82285e-07
5.84313e-07
1.25983e-06
3.71539e-07
1.55565e-06
8.02251e-06
1.55601e-06
8.02215e-06
5.84191e-07
3.71542e-07
1.26049e-06
3.82302e-07
5.84319e-07
3.7154e-07
1.25995e-06
1.55596e-06
8.02198e-06
8.02225e-06
1.55562e-06
5.84298e-07
3.82282e-07
1.25982e-06
3.71537e-07
1.2603e-06
3.71536e-07
5.84188e-07
1.55598e-06
8.02204e-06
8.02232e-06
1.55563e-06
5.84304e-07
3.823e-07
3.71539e-07
1.25994e-06
3.71538e-07
1.26047e-06
5.84193e-07
1.55581e-06
8.02142e-06
1.55621e-06
8.02106e-06
5.84194e-07
3.7154e-07
1.26017e-06
3.82295e-07
5.8432e-07
3.71539e-07
1.25966e-06
1.55581e-06
8.02213e-06
1.55621e-06
8.02181e-06
5.84303e-07
3.8228e-07
1.25969e-06
3.71536e-07
1.26021e-06
3.71537e-07
5.84192e-07
1.55618e-06
8.02096e-06
8.02124e-06
1.55579e-06
5.84305e-07
3.82292e-07
3.71537e-07
1.25966e-06
3.71536e-07
1.26015e-06
5.84195e-07
1.55618e-06
8.02171e-06
8.02195e-06
1.55579e-06
2.5934e-06
2.59244e-06
4.04078e-07
2.59299e-06
2.59213e-06
2.48805e-05
2.48799e-05
2.48805e-05
2.48813e-05
4.04265e-07
2.59298e-06
2.59214e-06
2.59342e-06
2.59248e-06
2.48798e-05
2.48804e-05
5.84175e-07
3.7154e-07
1.26029e-06
3.82285e-07
5.84304e-07
3.71538e-07
1.25978e-06
1.55564e-06
8.02227e-06
1.55599e-06
8.02195e-06
1.55564e-06
8.0226e-06
1.55599e-06
8.02228e-06
5.84293e-07
3.82285e-07
3.71537e-07
1.25965e-06
3.71538e-07
1.26014e-06
5.84183e-07
5.84289e-07
3.82282e-07
3.71536e-07
1.25977e-06
3.71536e-07
1.26027e-06
5.84177e-07
1.55597e-06
8.02185e-06
8.02209e-06
1.55562e-06
1.55596e-06
8.02218e-06
8.02242e-06
1.55562e-06
2.48808e-05
2.48801e-05
2.48819e-05
2.48813e-05
4.04263e-07
2.59216e-06
2.59271e-06
2.5925e-06
2.59305e-06
2.48801e-05
2.48807e-05
2.48812e-05
2.48818e-05
2.48781e-05
2.48776e-05
2.48814e-05
2.48809e-05
2.59232e-06
2.59296e-06
4.04092e-07
2.59199e-06
2.59262e-06
2.48778e-05
2.48782e-05
2.48809e-05
2.48814e-05
4.04273e-07
2.59203e-06
2.59262e-06
2.59236e-06
2.59295e-06
1.55577e-06
8.02148e-06
1.55615e-06
8.02127e-06
5.84195e-07
1.26007e-06
3.7154e-07
3.82293e-07
5.84308e-07
1.25958e-06
3.71539e-07
5.84193e-07
1.26022e-06
3.7154e-07
3.82296e-07
5.84306e-07
1.25973e-06
3.7154e-07
1.55614e-06
8.02079e-06
8.02097e-06
1.55576e-06
1.55615e-06
8.02126e-06
8.02145e-06
1.55576e-06
5.84309e-07
3.8229e-07
1.25958e-06
3.71536e-07
1.26007e-06
3.71536e-07
5.84194e-07
5.84308e-07
3.82293e-07
1.25973e-06
3.71536e-07
1.26022e-06
3.71537e-07
5.84193e-07
2.59287e-06
2.59266e-06
4.04086e-07
2.59251e-06
2.59222e-06
2.48775e-05
2.48768e-05
2.48796e-05
2.48801e-05
4.04268e-07
2.59252e-06
2.59222e-06
2.59287e-06
2.59266e-06
2.48768e-05
2.48775e-05
5.84191e-07
1.2603e-06
3.7154e-07
3.82286e-07
5.84302e-07
1.25983e-06
3.7154e-07
1.55563e-06
8.02224e-06
1.55597e-06
8.02201e-06
5.84196e-07
3.71542e-07
1.26046e-06
3.82303e-07
5.84308e-07
3.71541e-07
1.25994e-06
1.55595e-06
8.02196e-06
8.02217e-06
1.55561e-06
5.84304e-07
3.82283e-07
1.25983e-06
3.71536e-07
1.2603e-06
3.71536e-07
5.8419e-07
1.55596e-06
8.022e-06
8.02221e-06
1.55563e-06
5.84309e-07
3.823e-07
3.71538e-07
1.25994e-06
3.71538e-07
1.26046e-06
5.84195e-07
1.55578e-06
8.02116e-06
1.55617e-06
8.02093e-06
5.84198e-07
3.7154e-07
1.26015e-06
3.82295e-07
5.84309e-07
3.71539e-07
1.25965e-06
1.55578e-06
8.02188e-06
1.55617e-06
8.02167e-06
5.84306e-07
3.82281e-07
1.25969e-06
3.71535e-07
1.2602e-06
3.71537e-07
5.84192e-07
1.55616e-06
8.02092e-06
8.02114e-06
1.55578e-06
5.8431e-07
3.82292e-07
3.71536e-07
1.25965e-06
3.71536e-07
1.26014e-06
5.84197e-07
1.55617e-06
8.02166e-06
8.02185e-06
1.55578e-06
2.59341e-06
2.59249e-06
4.04098e-07
2.59298e-06
2.59214e-06
2.48804e-05
2.48798e-05
2.48805e-05
2.48813e-05