/*--------------------------------*- C++ -*----------------------------------*\
| =========                 |                                                 |
| \\      /  F ield         | OpenFOAM: The Open Source CFD Toolbox           |
|  \\    /   O peration     | Version:  2206                                  |
|   \\  /    A nd           | Website:  www.openfoam.com                      |
|    \\/     M anipulation  |                                                 |
\*---------------------------------------------------------------------------*/
FoamFile
{
    version     2.0;
    format      ascii;
    arch        "LSB;label=32;scalar=64";
    class       volScalarField;
    location    "15.5";
    object      k;
}
// * * * * * * * * * * * * * * * * * * * * * * * * * * * * * * * * * * * * * //

dimensions      [0 2 -2 0 0 0 0];

internalField   nonuniform List<scalar> 
28688
(
3.58968e-05
3.5891e-05
3.5891e-05
3.59967e-05
3.39294e-05
3.38836e-05
3.38836e-05
3.3963e-05
3.20855e-05
3.19518e-05
3.19518e-05
3.1964e-05
3.07919e-05
3.05358e-05
3.05358e-05
3.02324e-05
3.05992e-05
3.04283e-05
3.04282e-05
3.01834e-05
3.05923e-05
3.0433e-05
3.0433e-05
3.02076e-05
3.05924e-05
3.04336e-05
3.04336e-05
3.02091e-05
3.05924e-05
3.04338e-05
3.04338e-05
3.02091e-05
3.05924e-05
3.04338e-05
3.04338e-05
3.02091e-05
3.05924e-05
3.04338e-05
3.04338e-05
3.02091e-05
3.05924e-05
3.04338e-05
3.04338e-05
3.02091e-05
3.05924e-05
3.04338e-05
3.04338e-05
3.02091e-05
3.63053e-05
3.629e-05
3.629e-05
3.63053e-05
3.629e-05
3.629e-05
3.64205e-05
3.64205e-05
3.64205e-05
3.64205e-05
3.629e-05
3.629e-05
3.63053e-05
3.629e-05
3.629e-05
3.63053e-05
3.59967e-05
3.42615e-05
3.58911e-05
3.58911e-05
3.43639e-05
3.43638e-05
3.59967e-05
3.42615e-05
3.5891e-05
3.58911e-05
3.43639e-05
3.43638e-05
3.58911e-05
3.4364e-05
3.43639e-05
3.59967e-05
3.42615e-05
3.58911e-05
3.4364e-05
3.43639e-05
3.42615e-05
3.3963e-05
3.22613e-05
3.38836e-05
3.38835e-05
3.24779e-05
3.24778e-05
3.39631e-05
3.22614e-05
3.38836e-05
3.38835e-05
3.24779e-05
3.24778e-05
3.38836e-05
3.24781e-05
3.24779e-05
3.3963e-05
3.22613e-05
3.38836e-05
3.2478e-05
3.24779e-05
3.22613e-05
3.1964e-05
3.03461e-05
3.19516e-05
3.19515e-05
3.07089e-05
3.07087e-05
3.1964e-05
3.03462e-05
3.19517e-05
3.19515e-05
3.07089e-05
3.07087e-05
3.19516e-05
3.07091e-05
3.07088e-05
3.1964e-05
3.0346e-05
3.19517e-05
3.0709e-05
3.07089e-05
3.0346e-05
3.02327e-05
3.01789e-05
3.05357e-05
3.05356e-05
3.04276e-05
3.04275e-05
3.02327e-05
3.0179e-05
3.05358e-05
3.05355e-05
3.04276e-05
3.04274e-05
3.05357e-05
3.04277e-05
3.04275e-05
3.02326e-05
3.01788e-05
3.05358e-05
3.04277e-05
3.04276e-05
3.01787e-05
3.01837e-05
3.02087e-05
3.04282e-05
3.04282e-05
3.04325e-05
3.04325e-05
3.01838e-05
3.02087e-05
3.04283e-05
3.04281e-05
3.04326e-05
3.04324e-05
3.04282e-05
3.04326e-05
3.04325e-05
3.01836e-05
3.02086e-05
3.04283e-05
3.04326e-05
3.04326e-05
3.02089e-05
3.02077e-05
3.02107e-05
3.0433e-05
3.0433e-05
3.04334e-05
3.04334e-05
3.02077e-05
3.02107e-05
3.04331e-05
3.04329e-05
3.04335e-05
3.04333e-05
3.0433e-05
3.04336e-05
3.04335e-05
3.02076e-05
3.02106e-05
3.04331e-05
3.04335e-05
3.04336e-05
3.02108e-05
3.02093e-05
3.02108e-05
3.04337e-05
3.04336e-05
3.04337e-05
3.04337e-05
3.02093e-05
3.02107e-05
3.04337e-05
3.04335e-05
3.04338e-05
3.04336e-05
3.04337e-05
3.04338e-05
3.04337e-05
3.02092e-05
3.02106e-05
3.04338e-05
3.04338e-05
3.04338e-05
3.02108e-05
3.02093e-05
3.02107e-05
3.04339e-05
3.04339e-05
3.04337e-05
3.04337e-05
3.02093e-05
3.02107e-05
3.0434e-05
3.04338e-05
3.04338e-05
3.04336e-05
3.04339e-05
3.04338e-05
3.04337e-05
3.02092e-05
3.02106e-05
3.0434e-05
3.04338e-05
3.04338e-05
3.02108e-05
3.02093e-05
3.02107e-05
3.04338e-05
3.04338e-05
3.04337e-05
3.04337e-05
3.02093e-05
3.02107e-05
3.04339e-05
3.04337e-05
3.04338e-05
3.04336e-05
3.04338e-05
3.04338e-05
3.04337e-05
3.02092e-05
3.02106e-05
3.04339e-05
3.04338e-05
3.04338e-05
3.02108e-05
3.02093e-05
3.02108e-05
3.04338e-05
3.04338e-05
3.04337e-05
3.04337e-05
3.02093e-05
3.02107e-05
3.04339e-05
3.04337e-05
3.04338e-05
3.04336e-05
3.04338e-05
3.04339e-05
3.04337e-05
3.02092e-05
3.02106e-05
3.04339e-05
3.04338e-05
3.04338e-05
3.02108e-05
3.02093e-05
3.02108e-05
3.04338e-05
3.04338e-05
3.04337e-05
3.04337e-05
3.02093e-05
3.02107e-05
3.04339e-05
3.04337e-05
3.04338e-05
3.04336e-05
3.04338e-05
3.04339e-05
3.04337e-05
3.02092e-05
3.02106e-05
3.04339e-05
3.04338e-05
3.04338e-05
3.02108e-05
3.02093e-05
3.02111e-05
3.04338e-05
3.04338e-05
3.04339e-05
3.02093e-05
3.04339e-05
3.04337e-05
3.0434e-05
3.04338e-05
3.04338e-05
3.04339e-05
3.02092e-05
3.02109e-05
3.04339e-05
3.0434e-05
3.0434e-05
3.02112e-05
3.73768e-05
3.73762e-05
3.73766e-05
3.73766e-05
3.73696e-05
3.73773e-05
3.73042e-05
3.73765e-05
3.73696e-05
3.73773e-05
3.73765e-05
3.73042e-05
3.73734e-05
3.72959e-05
3.72959e-05
3.58768e-05
4.08831e-05
3.66041e-05
4.51238e-05
5.51156e-05
6.48651e-05
3.58771e-05
4.08821e-05
3.66043e-05
4.51236e-05
3.58969e-05
3.58969e-05
3.58969e-05
3.43825e-05
3.43824e-05
3.43825e-05
3.43825e-05
3.5274e-05
3.56282e-05
3.58957e-05
3.5382e-05
3.60492e-05
3.42449e-05
3.53878e-05
5.51176e-05
6.48675e-05
3.5274e-05
3.58957e-05
3.56283e-05
3.5382e-05
3.60492e-05
3.53878e-05
3.42452e-05
3.65868e-05
3.65871e-05
3.52778e-05
3.40644e-05
3.40638e-05
3.39716e-05
5.13481e-05
3.46736e-05
5.46293e-05
7.65575e-05
8.08546e-05
3.39731e-05
5.13491e-05
3.46738e-05
5.46297e-05
3.39294e-05
3.39294e-05
3.39294e-05
3.25812e-05
3.25812e-05
3.25812e-05
3.25812e-05
3.30496e-05
3.24369e-05
3.3928e-05
3.34285e-05
3.38971e-05
3.16105e-05
3.34932e-05
7.65607e-05
8.08568e-05
3.30495e-05
3.3928e-05
3.24364e-05
3.34284e-05
3.38969e-05
3.34932e-05
3.16117e-05
3.16468e-05
3.16457e-05
3.32629e-05
3.09663e-05
3.09652e-05
3.22923e-05
5.92116e-05
3.29125e-05
6.14373e-05
8.44803e-05
8.4982e-05
3.22937e-05
5.92135e-05
3.29114e-05
6.14392e-05
3.20856e-05
3.20856e-05
3.20856e-05
3.09693e-05
3.09693e-05
3.09693e-05
3.09693e-05
3.07435e-05
3.05683e-05
3.20758e-05
3.14387e-05
3.16544e-05
2.97497e-05
3.16012e-05
8.44836e-05
8.49842e-05
3.07432e-05
3.20758e-05
3.05681e-05
3.14387e-05
3.1654e-05
3.16012e-05
2.97509e-05
3.03126e-05
3.03114e-05
3.11854e-05
2.9893e-05
2.98918e-05
3.11836e-05
6.39515e-05
3.1203e-05
6.48724e-05
8.47945e-05
8.48217e-05
3.11837e-05
6.39532e-05
3.12026e-05
6.48747e-05
3.07919e-05
3.07919e-05
3.07919e-05
3.06107e-05
3.06107e-05
3.06107e-05
3.06107e-05
2.95469e-05
2.94691e-05
3.0729e-05
3.04568e-05
2.96227e-05
3.02399e-05
3.06269e-05
8.47963e-05
8.48229e-05
2.95469e-05
3.07289e-05
2.94694e-05
3.04567e-05
2.96225e-05
3.06269e-05
3.02411e-05
3.03187e-05
3.03175e-05
3.01397e-05
3.20182e-05
3.20176e-05
3.13841e-05
6.53095e-05
3.13593e-05
6.53246e-05
8.49283e-05
8.49328e-05
3.13842e-05
6.53133e-05
3.13587e-05
6.53277e-05
3.05993e-05
3.05993e-05
3.05993e-05
3.05924e-05
3.05924e-05
3.05924e-05
3.05924e-05
2.96484e-05
3.09849e-05
3.05443e-05
3.04305e-05
2.96283e-05
3.10517e-05
3.0541e-05
8.49266e-05
8.49304e-05
2.96483e-05
3.05443e-05
3.09841e-05
3.04304e-05
2.96282e-05
3.0541e-05
3.10515e-05
3.3178e-05
3.31782e-05
3.02038e-05
3.32762e-05
3.32765e-05
3.13943e-05
6.53257e-05
3.13943e-05
6.53231e-05
8.4935e-05
8.49332e-05
3.13948e-05
6.53287e-05
3.13945e-05
6.53259e-05
3.05925e-05
3.05925e-05
3.05925e-05
3.05924e-05
3.05924e-05
3.05924e-05
3.05924e-05
2.96563e-05
3.10727e-05
3.05397e-05
3.04334e-05
2.96552e-05
3.10721e-05
3.054e-05
8.49329e-05
8.49311e-05
2.96564e-05
3.05397e-05
3.10724e-05
3.04334e-05
2.96552e-05
3.054e-05
3.10721e-05
3.33001e-05
3.33004e-05
3.02104e-05
3.33e-05
3.33003e-05
3.13951e-05
6.53247e-05
3.13963e-05
6.53227e-05
8.49346e-05
8.49335e-05
3.13958e-05
6.53275e-05
3.13967e-05
6.53253e-05
3.05925e-05
3.05925e-05
3.05925e-05
3.05924e-05
3.05925e-05
3.05924e-05
3.05924e-05
2.96575e-05
3.1075e-05
3.05398e-05
3.04338e-05
2.96572e-05
3.1073e-05
3.054e-05
8.49326e-05
8.4931e-05
2.96577e-05
3.05398e-05
3.1075e-05
3.04338e-05
2.96573e-05
3.054e-05
3.10732e-05
3.33016e-05
3.33019e-05
3.02108e-05
3.33008e-05
3.3301e-05
3.13951e-05
6.53247e-05
3.13964e-05
6.53227e-05
8.49349e-05
8.49337e-05
3.13959e-05
6.53274e-05
3.13969e-05
6.53253e-05
3.05926e-05
3.05925e-05
3.05925e-05
3.05924e-05
3.05924e-05
3.05924e-05
3.05924e-05
2.96575e-05
3.10751e-05
3.05399e-05
3.04339e-05
2.96574e-05
3.1073e-05
3.054e-05
8.49326e-05
8.4931e-05
2.96577e-05
3.05398e-05
3.10751e-05
3.04339e-05
2.96575e-05
3.054e-05
3.10732e-05
3.33018e-05
3.3302e-05
3.02109e-05
3.33008e-05
3.3301e-05
3.13951e-05
6.53246e-05
3.13964e-05
6.53227e-05
8.49349e-05
8.49336e-05
3.13959e-05
6.53273e-05
3.13969e-05
6.53253e-05
3.05926e-05
3.05925e-05
3.05925e-05
3.05924e-05
3.05924e-05
3.05924e-05
3.05924e-05
2.96575e-05
3.10751e-05
3.05399e-05
3.04339e-05
2.96573e-05
3.1073e-05
3.054e-05
8.49326e-05
8.4931e-05
2.96577e-05
3.05398e-05
3.10751e-05
3.04339e-05
2.96575e-05
3.054e-05
3.10732e-05
3.33017e-05
3.3302e-05
3.02109e-05
3.33008e-05
3.3301e-05
3.13951e-05
6.53242e-05
3.13964e-05
6.53217e-05
8.49348e-05
8.49336e-05
3.13959e-05
6.5327e-05
3.13969e-05
6.53247e-05
3.05926e-05
3.05925e-05
3.05925e-05
3.05924e-05
3.05924e-05
3.05924e-05
3.05924e-05
2.96575e-05
3.10751e-05
3.05399e-05
3.04339e-05
2.96573e-05
3.1073e-05
3.054e-05
8.49326e-05
8.49309e-05
2.96577e-05
3.05398e-05
3.10751e-05
3.04339e-05
2.96575e-05
3.054e-05
3.10732e-05
3.33017e-05
3.3302e-05
3.02109e-05
3.33008e-05
3.3301e-05
3.13951e-05
6.53238e-05
3.13964e-05
6.5322e-05
8.49349e-05
8.49337e-05
3.13959e-05
6.53266e-05
3.13969e-05
6.53244e-05
3.05926e-05
3.05925e-05
3.05925e-05
3.05924e-05
3.05924e-05
3.05924e-05
3.05924e-05
2.96575e-05
3.10751e-05
3.05399e-05
3.04339e-05
2.96573e-05
3.1073e-05
3.054e-05
8.49326e-05
8.49309e-05
2.96577e-05
3.05398e-05
3.10751e-05
3.04339e-05
2.96575e-05
3.054e-05
3.10732e-05
3.33017e-05
3.3302e-05
3.02109e-05
3.33008e-05
3.3301e-05
3.13951e-05
6.5324e-05
3.13964e-05
6.53222e-05
8.49349e-05
8.49337e-05
3.13958e-05
6.53264e-05
3.13969e-05
6.53243e-05
3.05926e-05
3.05925e-05
3.05925e-05
3.05926e-05
3.05929e-05
3.05926e-05
3.05926e-05
2.96575e-05
3.10751e-05
3.05399e-05
3.04339e-05
2.96573e-05
3.1073e-05
3.054e-05
8.49326e-05
8.4931e-05
2.96577e-05
3.05398e-05
3.10751e-05
3.04339e-05
2.96575e-05
3.054e-05
3.10732e-05
3.33017e-05
3.3302e-05
3.02109e-05
3.33008e-05
3.3301e-05
3.73734e-05
3.72959e-05
3.72959e-05
5.31122e-05
3.71932e-05
5.31141e-05
3.71932e-05
3.70939e-05
3.72468e-05
3.72472e-05
3.71762e-05
3.71762e-05
3.73696e-05
3.73773e-05
3.73042e-05
3.73765e-05
3.73696e-05
3.73773e-05
3.73042e-05
3.73765e-05
3.71732e-05
3.94129e-05
3.7168e-05
3.67252e-05
3.71732e-05
3.94127e-05
3.7168e-05
3.67254e-05
3.70967e-05
3.71029e-05
3.60322e-05
3.64191e-05
3.71636e-05
3.71105e-05
3.63038e-05
3.70967e-05
3.71029e-05
3.60321e-05
3.64191e-05
3.71636e-05
3.71105e-05
3.63038e-05
3.73734e-05
3.72959e-05
3.72959e-05
5.31124e-05
3.71933e-05
3.70939e-05
3.72473e-05
3.72472e-05
3.71762e-05
3.71762e-05
5.31139e-05
3.71933e-05
3.73696e-05
3.73773e-05
3.73042e-05
3.73765e-05
3.73696e-05
3.73773e-05
3.73765e-05
3.73043e-05
3.71732e-05
3.94132e-05
3.7168e-05
3.67255e-05
3.70967e-05
3.71029e-05
3.6032e-05
3.64191e-05
3.71636e-05
3.71105e-05
3.63038e-05
3.71732e-05
3.94135e-05
3.7168e-05
3.67252e-05
3.70967e-05
3.71029e-05
3.64191e-05
3.60323e-05
3.71105e-05
3.71636e-05
3.63038e-05
3.73768e-05
3.73762e-05
3.73766e-05
3.73766e-05
3.73768e-05
3.73762e-05
3.73766e-05
3.73766e-05
3.73768e-05
3.73762e-05
3.73766e-05
3.73766e-05
3.71132e-05
3.71099e-05
3.64217e-05
3.64217e-05
3.71123e-05
3.71123e-05
3.64237e-05
3.71132e-05
3.71099e-05
3.64217e-05
3.64217e-05
3.71123e-05
3.71123e-05
3.64237e-05
3.71132e-05
3.71099e-05
3.64217e-05
3.64217e-05
3.71123e-05
3.71123e-05
3.64237e-05
3.71132e-05
3.71099e-05
3.64217e-05
3.64217e-05
3.71123e-05
3.71123e-05
3.64237e-05
3.73696e-05
3.73773e-05
3.73765e-05
3.73042e-05
3.70967e-05
3.71029e-05
3.60321e-05
3.64191e-05
3.71636e-05
3.71105e-05
3.63038e-05
3.71732e-05
3.94129e-05
3.7168e-05
3.67254e-05
3.70967e-05
3.71029e-05
3.64191e-05
3.60321e-05
3.71105e-05
3.71636e-05
3.63038e-05
3.71732e-05
3.94134e-05
3.7168e-05
3.67252e-05
3.73734e-05
3.72959e-05
3.72959e-05
5.31145e-05
3.71933e-05
3.70939e-05
3.72474e-05
3.72474e-05
3.71762e-05
3.71762e-05
5.31147e-05
3.71933e-05
3.73696e-05
3.73773e-05
3.73765e-05
3.73042e-05
3.70967e-05
3.71029e-05
3.64191e-05
3.60322e-05
3.71106e-05
3.71636e-05
3.63038e-05
3.70967e-05
3.71029e-05
3.64191e-05
3.60321e-05
3.71105e-05
3.71636e-05
3.63038e-05
3.71732e-05
3.94134e-05
3.7168e-05
3.67253e-05
3.71732e-05
3.94134e-05
3.7168e-05
3.67255e-05
3.70939e-05
3.72468e-05
3.72475e-05
3.71762e-05
3.71762e-05
5.31145e-05
3.71933e-05
5.31144e-05
3.71932e-05
5.51155e-05
6.4864e-05
5.51173e-05
6.48676e-05
3.65864e-05
3.65874e-05
3.52778e-05
3.40646e-05
3.40636e-05
7.46965e-05
6.76986e-05
7.47008e-05
6.77017e-05
3.49759e-05
3.20329e-05
3.20314e-05
3.34341e-05
3.34344e-05
3.58766e-05
4.08821e-05
3.66044e-05
4.51225e-05
3.52739e-05
3.56284e-05
3.58957e-05
3.5382e-05
3.60492e-05
3.42454e-05
3.53878e-05
3.5274e-05
3.56284e-05
3.58957e-05
3.53819e-05
3.60492e-05
3.42456e-05
3.53877e-05
3.56328e-05
5.01906e-05
4.6466e-05
3.48908e-05
3.56333e-05
5.01896e-05
4.64651e-05
3.48912e-05
3.50016e-05
3.48704e-05
3.27429e-05
3.4387e-05
3.38431e-05
3.488e-05
3.41749e-05
3.50017e-05
3.48704e-05
3.27431e-05
3.4387e-05
3.38427e-05
3.488e-05
3.4175e-05
3.65868e-05
3.65865e-05
3.52778e-05
3.40646e-05
3.40635e-05
5.51167e-05
6.48659e-05
7.4698e-05
6.76999e-05
3.49759e-05
3.20323e-05
3.20317e-05
3.3434e-05
3.34345e-05
7.46985e-05
6.77008e-05
3.52741e-05
3.56285e-05
3.58957e-05
3.5382e-05
3.60492e-05
3.4245e-05
3.53878e-05
3.58769e-05
4.08835e-05
3.66039e-05
4.51248e-05
3.5274e-05
3.58957e-05
3.56283e-05
3.53819e-05
3.60492e-05
3.53878e-05
3.42453e-05
3.56328e-05
5.01905e-05
4.64655e-05
3.48915e-05
3.50016e-05
3.48704e-05
3.27424e-05
3.4387e-05
3.38428e-05
3.488e-05
3.41751e-05
3.56327e-05
5.0192e-05
4.64675e-05
3.48912e-05
3.50016e-05
3.48704e-05
3.4387e-05
3.27425e-05
3.488e-05
3.38427e-05
3.41749e-05
3.58769e-05
4.08812e-05
3.66042e-05
4.5124e-05
3.5274e-05
3.58957e-05
3.56285e-05
3.5382e-05
3.60492e-05
3.53878e-05
3.42455e-05
3.58769e-05
4.08836e-05
3.66039e-05
4.51244e-05
3.50017e-05
3.48704e-05
3.27421e-05
3.4387e-05
3.38428e-05
3.488e-05
3.41751e-05
3.56331e-05
5.01897e-05
4.64635e-05
3.48912e-05
3.50016e-05
3.48704e-05
3.4387e-05
3.2743e-05
3.488e-05
3.38425e-05
3.41749e-05
3.56326e-05
5.01911e-05
4.64674e-05
3.4891e-05
3.65865e-05
3.65864e-05
3.52778e-05
3.40638e-05
3.4064e-05
5.51177e-05
6.48668e-05
7.47006e-05
6.77025e-05
3.49759e-05
3.20315e-05
3.20332e-05
3.34339e-05
3.34339e-05
7.46998e-05
6.77011e-05
3.52741e-05
3.58957e-05
3.56284e-05
3.53819e-05
3.60492e-05
3.53878e-05
3.42453e-05
3.58773e-05
4.08829e-05
3.66038e-05
4.51249e-05
3.58776e-05
4.0882e-05
3.66042e-05
4.51238e-05
3.50016e-05
3.48704e-05
3.4387e-05
3.2743e-05
3.488e-05
3.38427e-05
3.4175e-05
3.50016e-05
3.48704e-05
3.4387e-05
3.27428e-05
3.488e-05
3.38424e-05
3.41751e-05
3.56321e-05
5.01921e-05
4.6467e-05
3.48913e-05
3.56323e-05
5.01915e-05
4.6465e-05
3.48916e-05
5.51173e-05
6.48667e-05
5.51173e-05
6.48674e-05
3.49759e-05
3.20325e-05
3.20316e-05
3.34339e-05
3.34339e-05
7.46987e-05
6.77005e-05
7.47003e-05
6.77019e-05
7.6556e-05
8.08528e-05
7.65595e-05
8.08577e-05
3.16466e-05
3.1646e-05
3.3263e-05
3.09665e-05
3.09646e-05
8.40059e-05
8.18656e-05
8.40102e-05
8.18686e-05
3.29686e-05
3.03825e-05
3.03809e-05
3.06802e-05
3.06786e-05
3.3972e-05
5.13475e-05
3.46739e-05
5.46292e-05
3.30494e-05
3.2437e-05
3.3928e-05
3.34283e-05
3.3897e-05
3.16112e-05
3.34931e-05
3.30495e-05
3.24364e-05
3.3928e-05
3.34283e-05
3.38971e-05
3.16117e-05
3.34931e-05
3.37457e-05
5.83395e-05
5.561e-05
3.31185e-05
3.37459e-05
5.834e-05
5.56091e-05
3.31188e-05
3.27561e-05
3.29699e-05
3.07387e-05
3.25735e-05
3.13353e-05
3.30495e-05
3.19419e-05
3.27562e-05
3.29698e-05
3.07389e-05
3.25735e-05
3.13342e-05
3.30495e-05
3.19421e-05
3.16459e-05
3.16464e-05
3.3263e-05
3.09655e-05
3.09647e-05
7.65582e-05
8.08541e-05
8.40076e-05
8.18666e-05
3.29686e-05
3.03815e-05
3.03803e-05
3.06792e-05
3.06803e-05
8.40073e-05
8.18677e-05
3.30496e-05
3.24365e-05
3.3928e-05
3.34284e-05
3.3897e-05
3.16113e-05
3.34931e-05
3.39728e-05
5.13504e-05
3.46736e-05
5.46319e-05
3.30494e-05
3.3928e-05
3.24368e-05
3.34283e-05
3.38969e-05
3.34931e-05
3.16107e-05
3.37446e-05
5.83404e-05
5.56115e-05
3.31201e-05
3.27561e-05
3.29699e-05
3.07383e-05
3.25735e-05
3.1334e-05
3.30495e-05
3.19421e-05
3.37443e-05
5.83425e-05
5.56123e-05
3.31197e-05
3.27559e-05
3.29698e-05
3.25735e-05
3.0738e-05
3.30494e-05
3.13351e-05
3.19419e-05
3.39724e-05
5.13472e-05
3.46738e-05
5.46288e-05
3.30494e-05
3.3928e-05
3.24367e-05
3.34283e-05
3.3897e-05
3.34931e-05
3.1612e-05
3.39716e-05
5.13495e-05
3.46738e-05
5.46306e-05
3.27563e-05
3.297e-05
3.07379e-05
3.25736e-05
3.1335e-05
3.30494e-05
3.19421e-05
3.37454e-05
5.83396e-05
5.56091e-05
3.31189e-05
3.27561e-05
3.29699e-05
3.25735e-05
3.07393e-05
3.30494e-05
3.13345e-05
3.19419e-05
3.37452e-05
5.83417e-05
5.56111e-05
3.31186e-05
3.16464e-05
3.1646e-05
3.32629e-05
3.09651e-05
3.09658e-05
7.65584e-05
8.08556e-05
8.40098e-05
8.18704e-05
3.29686e-05
3.0381e-05
3.03823e-05
3.06798e-05
3.06802e-05
8.40084e-05
8.18676e-05
3.30496e-05
3.3928e-05
3.2436e-05
3.34284e-05
3.38971e-05
3.34931e-05
3.16115e-05
3.39729e-05
5.13495e-05
3.46736e-05
5.46315e-05
3.39728e-05
5.13482e-05
3.46738e-05
5.46306e-05
3.2756e-05
3.297e-05
3.25735e-05
3.07389e-05
3.30494e-05
3.13345e-05
3.19419e-05
3.27561e-05
3.29699e-05
3.25735e-05
3.07388e-05
3.30494e-05
3.13341e-05
3.19421e-05
3.37443e-05
5.83419e-05
5.56113e-05
3.31198e-05
3.37448e-05
5.83415e-05
5.56105e-05
3.31202e-05
7.65582e-05
8.08555e-05
7.656e-05
8.08571e-05
3.29686e-05
3.03825e-05
3.03811e-05
3.068e-05
3.06787e-05
8.40086e-05
8.18675e-05
8.40098e-05
8.1869e-05
8.44802e-05
8.49817e-05
8.44819e-05
8.49837e-05
3.03135e-05
3.03113e-05
3.11855e-05
2.98931e-05
2.98916e-05
8.4805e-05
8.49601e-05
8.48066e-05
8.49615e-05
3.09002e-05
3.00248e-05
3.00231e-05
2.98728e-05
2.98706e-05
3.22927e-05
5.92108e-05
3.29128e-05
6.14382e-05
3.07432e-05
3.05691e-05
3.20758e-05
3.14384e-05
3.16542e-05
2.97504e-05
3.16011e-05
3.07435e-05
3.05677e-05
3.20758e-05
3.14383e-05
3.16543e-05
2.97505e-05
3.16011e-05
3.20357e-05
6.35188e-05
6.20372e-05
3.12869e-05
3.20361e-05
6.35203e-05
6.20363e-05
3.12871e-05
3.04325e-05
3.1009e-05
2.94205e-05
3.09128e-05
2.95553e-05
3.12028e-05
2.97336e-05
3.04328e-05
3.10089e-05
2.94205e-05
3.09128e-05
2.95544e-05
3.12028e-05
2.97337e-05
3.03119e-05
3.03124e-05
3.11855e-05
2.98923e-05
2.98914e-05
8.44813e-05
8.49825e-05
8.48056e-05
8.49598e-05
3.09003e-05
3.00241e-05
3.00228e-05
2.98715e-05
2.98713e-05
8.48055e-05
8.49607e-05
3.07434e-05
3.05679e-05
3.20758e-05
3.14385e-05
3.16542e-05
2.97498e-05
3.16011e-05
3.22933e-05
5.92139e-05
3.29111e-05
6.1441e-05
3.07431e-05
3.20758e-05
3.05685e-05
3.14382e-05
3.1654e-05
3.16011e-05
2.97499e-05
3.20351e-05
6.35211e-05
6.20389e-05
3.12875e-05
3.04327e-05
3.10091e-05
2.94202e-05
3.09128e-05
2.95547e-05
3.12028e-05
2.97336e-05
3.20347e-05
6.35223e-05
6.20396e-05
3.12873e-05
3.04324e-05
3.10088e-05
3.09127e-05
2.942e-05
3.12027e-05
2.95547e-05
2.97335e-05
3.22927e-05
5.9211e-05
3.29128e-05
6.14381e-05
3.07432e-05
3.20758e-05
3.0568e-05
3.14384e-05
3.16542e-05
3.16011e-05
2.97507e-05
3.22923e-05
5.92125e-05
3.29126e-05
6.144e-05
3.04328e-05
3.10092e-05
2.94199e-05
3.09128e-05
2.95546e-05
3.12028e-05
2.97337e-05
3.20361e-05
6.35198e-05
6.20367e-05
3.12871e-05
3.04326e-05
3.1009e-05
3.09128e-05
2.94205e-05
3.12028e-05
2.95545e-05
2.97336e-05
3.20357e-05
6.35213e-05
6.2038e-05
3.12868e-05
3.03123e-05
3.0313e-05
3.11854e-05
2.9892e-05
2.98933e-05
8.44811e-05
8.49826e-05
8.4807e-05
8.49624e-05
3.09002e-05
3.00235e-05
3.00249e-05
2.98716e-05
2.98724e-05
8.48061e-05
8.49604e-05
3.07434e-05
3.20758e-05
3.05675e-05
3.14385e-05
3.16542e-05
3.16011e-05
2.97502e-05
3.22933e-05
5.92126e-05
3.29111e-05
6.14402e-05
3.22938e-05
5.92125e-05
3.29115e-05
6.14401e-05
3.04324e-05
3.10091e-05
3.09128e-05
2.94206e-05
3.12027e-05
2.95547e-05
2.97335e-05
3.04327e-05
3.10091e-05
3.09128e-05
2.94201e-05
3.12028e-05
2.95541e-05
2.97337e-05
3.20347e-05
6.35216e-05
6.20382e-05
3.12873e-05
3.20352e-05
6.3522e-05
6.20381e-05
3.12875e-05
8.44813e-05
8.49828e-05
8.44824e-05
8.49836e-05
3.09001e-05
3.00246e-05
3.00233e-05
2.98722e-05
2.98709e-05
8.48063e-05
8.49607e-05
8.48069e-05
8.49614e-05
8.47947e-05
8.48211e-05
8.47954e-05
8.48222e-05
3.03199e-05
3.03175e-05
3.01397e-05
3.20183e-05
3.20169e-05
8.49135e-05
8.48592e-05
8.49167e-05
8.48621e-05
3.01381e-05
3.30828e-05
3.30834e-05
3.24322e-05
3.24312e-05
3.11835e-05
6.39514e-05
3.12032e-05
6.48736e-05
2.95469e-05
2.94699e-05
3.0729e-05
3.04566e-05
2.96228e-05
3.02409e-05
3.06268e-05
2.95469e-05
2.94695e-05
3.0729e-05
3.04565e-05
2.96228e-05
3.02411e-05
3.06268e-05
3.1219e-05
6.52792e-05
6.50516e-05
3.13311e-05
3.1219e-05
6.52812e-05
6.50522e-05
3.1331e-05
2.95528e-05
3.04312e-05
3.09102e-05
3.05536e-05
3.05056e-05
3.05763e-05
2.96145e-05
2.95528e-05
3.04311e-05
3.09106e-05
3.05536e-05
3.05056e-05
3.05762e-05
2.96145e-05
3.03185e-05
3.03182e-05
3.01398e-05
3.20176e-05
3.20162e-05
8.47947e-05
8.48213e-05
8.49158e-05
8.48614e-05
3.01381e-05
3.30835e-05
3.30815e-05
3.24314e-05
3.24315e-05
8.49128e-05
8.48614e-05
2.95468e-05
2.94692e-05
3.0729e-05
3.04567e-05
2.96227e-05
3.02409e-05
3.06268e-05
3.11836e-05
6.39541e-05
3.12025e-05
6.4875e-05
2.95467e-05
3.07289e-05
2.94695e-05
3.04564e-05
2.96226e-05
3.06267e-05
3.024e-05
3.12181e-05
6.52829e-05
6.50543e-05
3.13316e-05
2.95526e-05
3.04313e-05
3.09101e-05
3.05536e-05
3.05055e-05
3.05762e-05
2.96145e-05
3.12181e-05
6.52808e-05
6.50539e-05
3.13314e-05
2.95526e-05
3.04311e-05
3.05536e-05
3.09101e-05
3.05762e-05
3.05062e-05
2.96144e-05
3.11835e-05
6.39517e-05
3.12031e-05
6.48731e-05
2.95469e-05
3.0729e-05
2.94695e-05
3.04566e-05
2.96227e-05
3.06268e-05
3.0241e-05
3.11833e-05
6.39522e-05
3.12029e-05
6.48739e-05
2.95528e-05
3.04314e-05
3.09101e-05
3.05537e-05
3.05058e-05
3.05762e-05
2.96145e-05
3.12189e-05
6.52792e-05
6.50521e-05
3.13311e-05
2.95527e-05
3.04312e-05
3.05536e-05
3.091e-05
3.05762e-05
3.05053e-05
2.96145e-05
3.12188e-05
6.52813e-05
6.50524e-05
3.13309e-05
3.03188e-05
3.03193e-05
3.01396e-05
3.20173e-05
3.20182e-05
8.47949e-05
8.48221e-05
8.4914e-05
8.48629e-05
3.0138e-05
3.3082e-05
3.30838e-05
3.24322e-05
3.2432e-05
8.49164e-05
8.48621e-05
2.95469e-05
3.0729e-05
2.94692e-05
3.04567e-05
2.96227e-05
3.06268e-05
3.02409e-05
3.11836e-05
6.39525e-05
3.12025e-05
6.48742e-05
3.11836e-05
6.39531e-05
3.12026e-05
6.48751e-05
2.95527e-05
3.04313e-05
3.05537e-05
3.09101e-05
3.05762e-05
3.05052e-05
2.96145e-05
2.95527e-05
3.04313e-05
3.05536e-05
3.09103e-05
3.05762e-05
3.05054e-05
2.96145e-05
3.12181e-05
6.52816e-05
6.50527e-05
3.13314e-05
3.12181e-05
6.52828e-05
6.50537e-05
3.13314e-05
8.47951e-05
8.48223e-05
8.47956e-05
8.48228e-05
3.01381e-05
3.30835e-05
3.30836e-05
3.24317e-05
3.24313e-05
8.49165e-05
8.48622e-05
8.4917e-05
8.48627e-05
8.49263e-05
8.49312e-05
8.49293e-05
8.49338e-05
3.31771e-05
3.31783e-05
3.02037e-05
3.32745e-05
3.32764e-05
8.49323e-05
8.4933e-05
8.49347e-05
8.49355e-05
3.02034e-05
3.32971e-05
3.32989e-05
3.32891e-05
3.32911e-05
3.13841e-05
6.5311e-05
3.13594e-05
6.5327e-05
2.96483e-05
3.09843e-05
3.05444e-05
3.04303e-05
2.96286e-05
3.10512e-05
3.0541e-05
2.96483e-05
3.09849e-05
3.05444e-05
3.04302e-05
2.96286e-05
3.10521e-05
3.0541e-05
3.13903e-05
6.53241e-05
6.53258e-05
3.13924e-05
3.13904e-05
6.53265e-05
6.53281e-05
3.13925e-05
2.96509e-05
3.04317e-05
3.10691e-05
3.05397e-05
3.10652e-05
3.05398e-05
2.96545e-05
2.96509e-05
3.04317e-05
3.10703e-05
3.05397e-05
3.10662e-05
3.05398e-05
2.96545e-05
3.3178e-05
3.31778e-05
3.02037e-05
3.3276e-05
3.32735e-05
8.49254e-05
8.49292e-05
8.49338e-05
8.49346e-05
3.02034e-05
3.32983e-05
3.32949e-05
3.32906e-05
3.32884e-05
8.49301e-05
8.49315e-05
2.96483e-05
3.09848e-05
3.05444e-05
3.04304e-05
2.96286e-05
3.1052e-05
3.0541e-05
3.13839e-05
6.5311e-05
3.13587e-05
6.53266e-05
2.96482e-05
3.05443e-05
3.09852e-05
3.04302e-05
2.96284e-05
3.05409e-05
3.10518e-05
3.13904e-05
6.53269e-05
6.53289e-05
3.13927e-05
2.9651e-05
3.04318e-05
3.10703e-05
3.05397e-05
3.1066e-05
3.05398e-05
2.96546e-05
3.13901e-05
6.53258e-05
6.53277e-05
3.13924e-05
2.96508e-05
3.04316e-05
3.05396e-05
3.10697e-05
3.05398e-05
3.10659e-05
2.96544e-05
3.13841e-05
6.53095e-05
3.13594e-05
6.53252e-05
2.96482e-05
3.05444e-05
3.09842e-05
3.04303e-05
2.96286e-05
3.0541e-05
3.10514e-05
3.13839e-05
6.5311e-05
3.13592e-05
6.53269e-05
2.96509e-05
3.04318e-05
3.10697e-05
3.05397e-05
3.10659e-05
3.05399e-05
2.96546e-05
3.13904e-05
6.53245e-05
6.53264e-05
3.13925e-05
2.96509e-05
3.04317e-05
3.05397e-05
3.10696e-05
3.05398e-05
3.10655e-05
2.96544e-05
3.13902e-05
6.53263e-05
6.53279e-05
3.13923e-05
3.31777e-05
3.31783e-05
3.02036e-05
3.3274e-05
3.32762e-05
8.4929e-05
8.49332e-05
8.49313e-05
8.49327e-05
3.02033e-05
3.32959e-05
3.32985e-05
3.32889e-05
3.32907e-05
8.49342e-05
8.49351e-05
2.96483e-05
3.05444e-05
3.09847e-05
3.04304e-05
2.96286e-05
3.0541e-05
3.1052e-05
3.1384e-05
6.53113e-05
3.13587e-05
6.53273e-05
3.1384e-05
6.53125e-05
3.13587e-05
6.53284e-05
2.96509e-05
3.04317e-05
3.05397e-05
3.10696e-05
3.05399e-05
3.10655e-05
2.96546e-05
2.9651e-05
3.04318e-05
3.05397e-05
3.10701e-05
3.05398e-05
3.1066e-05
2.96546e-05
3.13902e-05
6.53267e-05
6.53283e-05
3.13924e-05
3.13902e-05
6.53278e-05
6.53295e-05
3.13925e-05
8.49291e-05
8.49333e-05
8.49296e-05
8.49338e-05
3.02035e-05
3.32986e-05
3.32989e-05
3.32908e-05
3.32911e-05
8.49343e-05
8.49352e-05
8.49348e-05
8.49357e-05
8.49336e-05
8.49323e-05
8.49358e-05
8.49344e-05
3.32988e-05
3.33006e-05
3.02102e-05
3.32989e-05
3.33004e-05
8.49324e-05
8.49336e-05
8.49343e-05
8.49355e-05
3.02089e-05
3.32998e-05
3.33009e-05
3.33003e-05
3.33017e-05
3.13944e-05
6.53272e-05
3.13948e-05
6.53255e-05
2.96563e-05
3.10724e-05
3.05399e-05
3.04333e-05
2.96554e-05
3.10716e-05
3.05399e-05
2.96563e-05
3.10735e-05
3.05398e-05
3.04333e-05
2.96554e-05
3.10727e-05
3.05399e-05
3.13962e-05
6.53228e-05
6.5324e-05
3.13949e-05
3.13963e-05
6.5325e-05
6.53263e-05
3.13951e-05
2.96566e-05
3.04334e-05
3.10725e-05
3.05399e-05
3.10743e-05
3.05399e-05
2.96571e-05
2.96566e-05
3.04333e-05
3.10735e-05
3.05399e-05
3.10754e-05
3.05399e-05
2.96571e-05
3.33e-05
3.32973e-05
3.02101e-05
3.32998e-05
3.32967e-05
8.49317e-05
8.49298e-05
8.49333e-05
8.49345e-05
3.02089e-05
3.33002e-05
3.3297e-05
3.33011e-05
3.32982e-05
8.49297e-05
8.49315e-05
2.96564e-05
3.10735e-05
3.05399e-05
3.04334e-05
2.96554e-05
3.10728e-05
3.05399e-05
3.13944e-05
6.53266e-05
3.13945e-05
6.53246e-05
2.96562e-05
3.05398e-05
3.10731e-05
3.04332e-05
2.96553e-05
3.05398e-05
3.10721e-05
3.13965e-05
6.53254e-05
6.53269e-05
3.13956e-05
2.96568e-05
3.04335e-05
3.10735e-05
3.05399e-05
3.10753e-05
3.05399e-05
2.96573e-05
3.13962e-05
6.5324e-05
6.53255e-05
3.13952e-05
2.96566e-05
3.04332e-05
3.05398e-05
3.10727e-05
3.05398e-05
3.10749e-05
2.9657e-05
3.13944e-05
6.53253e-05
3.13948e-05
6.53233e-05
2.96562e-05
3.05399e-05
3.10728e-05
3.04333e-05
2.96553e-05
3.05399e-05
3.10721e-05
3.13942e-05
6.5327e-05
3.13946e-05
6.53252e-05
2.96568e-05
3.04335e-05
3.10728e-05
3.05398e-05
3.10749e-05
3.054e-05
2.96572e-05
3.13963e-05
6.53227e-05
6.53242e-05
3.1395e-05
2.96566e-05
3.04334e-05
3.05399e-05
3.10728e-05
3.05399e-05
3.10747e-05
2.9657e-05
3.13961e-05
6.53247e-05
6.5326e-05
3.13949e-05
3.3298e-05
3.33001e-05
3.021e-05
3.32975e-05
3.32999e-05
8.49354e-05
8.4934e-05
8.4931e-05
8.49327e-05
3.02088e-05
3.32978e-05
3.33004e-05
3.32989e-05
3.33012e-05
8.49338e-05
8.49352e-05
2.96564e-05
3.05399e-05
3.10734e-05
3.04334e-05
2.96554e-05
3.05399e-05
3.10726e-05
3.13945e-05
6.53274e-05
3.13946e-05
6.53256e-05
3.13946e-05
6.53285e-05
3.13946e-05
6.53268e-05
2.96568e-05
3.04334e-05
3.05398e-05
3.10729e-05
3.05399e-05
3.10748e-05
2.96573e-05
2.96568e-05
3.04335e-05
3.05399e-05
3.10733e-05
3.05399e-05
3.10752e-05
2.96573e-05
3.13963e-05
6.53251e-05
6.53264e-05
3.13953e-05
3.13963e-05
6.53262e-05
6.53276e-05
3.13954e-05
8.49355e-05
8.49341e-05
8.4936e-05
8.49345e-05
3.02091e-05
3.33006e-05
3.33009e-05
3.33013e-05
3.33016e-05
8.49339e-05
8.49353e-05
8.49344e-05
8.49358e-05
8.49337e-05
8.49326e-05
8.49354e-05
8.49343e-05
3.33011e-05
3.33021e-05
3.02108e-05
3.33004e-05
3.33011e-05
8.49328e-05
8.49339e-05
8.49343e-05
8.49354e-05
3.02094e-05
3.33005e-05
3.33011e-05
3.33015e-05
3.33022e-05
3.13953e-05
6.53259e-05
3.13968e-05
6.53247e-05
2.96575e-05
3.1075e-05
3.054e-05
3.04337e-05
2.96575e-05
3.10729e-05
3.054e-05
2.96576e-05
3.10759e-05
3.054e-05
3.04337e-05
2.96575e-05
3.10738e-05
3.054e-05
3.13968e-05
6.53228e-05
6.53237e-05
3.13951e-05
3.13969e-05
6.53247e-05
6.53257e-05
3.13953e-05
2.9658e-05
3.04337e-05
3.10731e-05
3.05399e-05
3.10753e-05
3.05399e-05
2.96576e-05
2.9658e-05
3.04337e-05
3.10738e-05
3.05399e-05
3.10762e-05
3.05399e-05
2.96577e-05
3.33014e-05
3.32984e-05
3.02108e-05
3.33004e-05
3.32971e-05
8.49314e-05
8.49297e-05
8.49337e-05
8.49348e-05
3.02093e-05
3.33005e-05
3.3297e-05
3.33015e-05
3.32985e-05
8.49297e-05
8.49314e-05
2.96578e-05
3.10759e-05
3.054e-05
3.04338e-05
2.96577e-05
3.10738e-05
3.054e-05
3.13954e-05
6.53251e-05
3.13967e-05
6.53238e-05
2.96576e-05
3.054e-05
3.10754e-05
3.04336e-05
2.96574e-05
3.05399e-05
3.1073e-05
3.13973e-05
6.53252e-05
6.53264e-05
3.13959e-05
2.96582e-05
3.04338e-05
3.10739e-05
3.05399e-05
3.10762e-05
3.05399e-05
2.96579e-05
3.13969e-05
6.53238e-05
6.53249e-05
3.13954e-05
2.9658e-05
3.04336e-05
3.05399e-05
3.1073e-05
3.05399e-05
3.10755e-05
2.96577e-05
3.13952e-05
6.53238e-05
3.13968e-05
6.53226e-05
2.96575e-05
3.054e-05
3.10753e-05
3.04337e-05
2.96574e-05
3.054e-05
3.10731e-05
3.13951e-05
6.53256e-05
3.13966e-05
6.53245e-05
2.9658e-05
3.04338e-05
3.1073e-05
3.05399e-05
3.10755e-05
3.054e-05
2.96574e-05
3.13969e-05
6.53225e-05
6.53237e-05
3.13953e-05
2.96579e-05
3.04337e-05
3.05399e-05
3.10731e-05
3.05399e-05
3.10755e-05
2.96576e-05
3.13968e-05
6.53244e-05
6.53254e-05
3.13951e-05
3.32992e-05
3.33016e-05
3.02107e-05
3.3298e-05
3.33006e-05
8.49351e-05
8.49337e-05
8.49309e-05
8.49326e-05
3.02092e-05
3.3298e-05
3.33007e-05
3.32993e-05
3.33018e-05
8.49337e-05
8.4935e-05
2.96577e-05