/*--------------------------------*- C++ -*----------------------------------*\
| =========                 |                                                 |
| \\      /  F ield         | OpenFOAM: The Open Source CFD Toolbox           |
|  \\    /   O peration     | Version:  2206                                  |
|   \\  /    A nd           | Website:  www.openfoam.com                      |
|    \\/     M anipulation  |                                                 |
\*---------------------------------------------------------------------------*/
FoamFile
{
    version     2.0;
    format      ascii;
    arch        "LSB;label=32;scalar=64";
    class       volScalarField;
    location    "15.5";
    object      nut;
}
// * * * * * * * * * * * * * * * * * * * * * * * * * * * * * * * * * * * * * //

dimensions      [0 2 -1 0 0 0 0];

internalField   nonuniform List<scalar> 
28688
(
0.000233972
0.000233108
0.000233108
0.000233447
0.000232508
0.00022773
0.000227729
0.00022392
0.000230356
0.000219944
0.000219941
0.000209319
0.000228787
0.000215291
0.000215287
0.000198028
0.000229193
0.000217713
0.000217709
0.000202496
0.00022927
0.000218045
0.000218042
0.000203145
0.000229272
0.000218057
0.000218053
0.000203159
0.000229272
0.000218059
0.000218056
0.000203162
0.000229272
0.000218059
0.000218056
0.000203162
0.000229272
0.00021806
0.000218056
0.000203162
0.000229272
0.00021806
0.000218056
0.000203162
0.000229272
0.00021806
0.000218056
0.000203162
0.00023425
0.00023445
0.000234451
0.00023425
0.000234451
0.000234451
0.00023427
0.00023427
0.00023427
0.00023427
0.00023445
0.00023445
0.00023425
0.00023445
0.000234451
0.00023425
0.000233447
0.00022612
0.000233108
0.000233106
0.000229317
0.000229312
0.000233447
0.000226121
0.000233106
0.000233106
0.000229315
0.000229311
0.000233108
0.00022932
0.000229316
0.000233447
0.000226118
0.000233106
0.000229319
0.000229314
0.000226118
0.00022392
0.000212212
0.000227726
0.000227721
0.000222465
0.000222459
0.000223921
0.000212216
0.000227724
0.000227719
0.000222465
0.000222456
0.000227725
0.000222471
0.000222463
0.000223919
0.000212209
0.000227724
0.000222468
0.000222464
0.00021221
0.000209321
0.000198631
0.000219936
0.00021993
0.000214995
0.000214989
0.000209322
0.000198636
0.000219937
0.000219927
0.000214998
0.000214985
0.000219934
0.000215005
0.000214993
0.000209317
0.000198628
0.000219936
0.000215001
0.000214998
0.000198628
0.000198033
0.00020245
0.000215281
0.000215276
0.000217371
0.000217368
0.000198036
0.000202453
0.000215285
0.000215272
0.000217376
0.000217364
0.000215279
0.00021738
0.000217369
0.000198029
0.000202446
0.000215285
0.000217376
0.000217376
0.000202445
0.000202501
0.000203245
0.000217706
0.000217703
0.000218021
0.000218019
0.000202504
0.000203249
0.000217711
0.000217699
0.000218026
0.000218014
0.000217704
0.000218029
0.00021802
0.000202497
0.000203241
0.000217711
0.000218025
0.000218027
0.000203246
0.000203146
0.000203275
0.000218038
0.000218036
0.000218048
0.000218046
0.000203149
0.000203277
0.000218043
0.000218031
0.000218053
0.000218041
0.000218037
0.000218056
0.000218047
0.000203142
0.00020327
0.000218044
0.000218052
0.000218054
0.000203274
0.000203163
0.000203278
0.000218049
0.000218047
0.000218052
0.00021805
0.000203165
0.00020328
0.000218054
0.000218042
0.000218057
0.000218045
0.000218048
0.000218059
0.000218051
0.000203158
0.000203273
0.000218055
0.000218056
0.000218058
0.000203277
0.000203167
0.000203277
0.000218053
0.000218051
0.000218051
0.00021805
0.000203168
0.000203279
0.000218059
0.000218046
0.000218057
0.000218045
0.000218052
0.00021806
0.000218051
0.000203162
0.000203272
0.000218059
0.000218057
0.000218058
0.000203276
0.000203166
0.000203277
0.000218051
0.00021805
0.000218051
0.00021805
0.000203167
0.000203279
0.000218058
0.000218045
0.000218057
0.000218045
0.000218051
0.00021806
0.000218051
0.000203161
0.000203272
0.000218058
0.000218057
0.000218058
0.000203276
0.000203166
0.000203277
0.000218052
0.00021805
0.000218051
0.00021805
0.000203167
0.000203279
0.000218058
0.000218045
0.000218057
0.000218045
0.000218051
0.00021806
0.000218051
0.000203161
0.000203272
0.000218058
0.000218057
0.000218058
0.000203276
0.000203166
0.000203278
0.000218052
0.000218051
0.000218051
0.00021805
0.000203167
0.000203279
0.000218058
0.000218045
0.000218057
0.000218045
0.000218051
0.00021806
0.000218051
0.000203161
0.000203272
0.000218058
0.000218057
0.000218058
0.000203276
0.000203167
0.000203282
0.000218052
0.00021805
0.000218053
0.000203167
0.000218058
0.000218045
0.000218059
0.000218046
0.000218051
0.000218052
0.00020316
0.000203276
0.000218058
0.000218057
0.000218059
0.000203281
0.000234729
0.000234746
0.000234729
0.000234729
0.000235111
0.000234795
0.000234701
0.000234727
0.000235111
0.000234794
0.000234727
0.000234701
0.000234855
0.000233566
0.000233566
0.000104593
3.87462e-05
0.000129375
3.98149e-05
2.16836e-05
2.2826e-05
0.000104588
3.87422e-05
0.000129367
3.98114e-05
0.000233972
0.000233972
0.000233972
0.000232905
0.000232905
0.000232905
0.000232904
0.000206091
9.36304e-05
0.000233964
0.000232013
0.000222783
8.7262e-05
0.000233618
2.16825e-05
2.2825e-05
0.000206086
0.000233964
9.36328e-05
0.000232013
0.00022279
0.000233618
8.72635e-05
4.77775e-05
4.7765e-05
0.000231324
4.40586e-05
4.40497e-05
7.20996e-05
4.24316e-05
8.1735e-05
4.37658e-05
2.47769e-05
2.54626e-05
7.2089e-05
4.24281e-05
8.17292e-05
4.3762e-05
0.000232508
0.000232508
0.000232508
0.000231106
0.000231107
0.000231106
0.000231106
0.000167045
7.92999e-05
0.000232044
0.000226148
0.000180498
7.45993e-05
0.000231379
2.47754e-05
2.54608e-05
0.000167037
0.000232043
7.92968e-05
0.000226146
0.000180494
0.000231378
7.45972e-05
3.90488e-05
3.90377e-05
0.000219485
3.65389e-05
3.65291e-05
5.56348e-05
4.55612e-05
6.14155e-05
4.64138e-05
2.60266e-05
2.61053e-05
5.56345e-05
4.55586e-05
6.14169e-05
4.64109e-05
0.000230356
0.000230355
0.000230356
0.000228815
0.000228815
0.000228814
0.000228814
0.000137676
6.74856e-05
0.000228513
0.000217415
0.000148578
6.30969e-05
0.000227152
2.60246e-05
2.61031e-05
0.00013767
0.000228512
6.74808e-05
0.000217411
0.000148569
0.00022715
6.30924e-05
3.3264e-05
3.32552e-05
0.000203722
3.18107e-05
3.1802e-05
5.59456e-05
4.73569e-05
5.42348e-05
4.77047e-05
2.60739e-05
2.60775e-05
5.59416e-05
4.73536e-05
5.42372e-05
4.77015e-05
0.000228787
0.000228786
0.000228786
0.000229124
0.000229123
0.000229122
0.000229122
0.000133426
6.27894e-05
0.00022525
0.000216025
0.000131221
6.60038e-05
0.000225358
2.60717e-05
2.60752e-05
0.000133424
0.000225249
6.27907e-05
0.000216021
0.000131219
0.000225356
6.60031e-05
3.34164e-05
3.34077e-05
0.000200257
3.65e-05
3.64916e-05
5.6979e-05
4.78743e-05
5.68819e-05
4.78807e-05
2.60944e-05
2.60951e-05
5.69846e-05
4.78715e-05
5.68869e-05
4.78776e-05
0.000229194
0.000229193
0.000229193
0.000229265
0.000229266
0.000229265
0.000229265
0.000135399
6.86268e-05
0.000225812
0.000217897
0.000135122
6.88985e-05
0.000225873
2.60917e-05
2.60924e-05
0.0001354
0.000225811
6.86266e-05
0.000217893
0.000135123
0.000225872
6.89001e-05
3.83e-05
3.82926e-05
0.000203111
3.84591e-05
3.84515e-05
5.70159e-05
4.78811e-05
5.70001e-05
4.78802e-05
2.60955e-05
2.6095e-05
5.7023e-05
4.7878e-05
5.70076e-05
4.7877e-05
0.00022927
0.000229269
0.00022927
0.000229272
0.000229272
0.000229271
0.000229272
0.000135495
6.89511e-05
0.000225929
0.000218052
0.000135455
6.89789e-05
0.000225931
2.60928e-05
2.60925e-05
0.000135497
0.000225928
6.89542e-05
0.000218049
0.000135457
0.000225931
6.89811e-05
3.84957e-05
3.84882e-05
0.000203279
3.8501e-05
3.84935e-05
5.70194e-05
4.78807e-05
5.70085e-05
4.788e-05
2.60952e-05
2.60951e-05
5.70274e-05
4.78775e-05
5.70174e-05
4.78767e-05
0.000229272
0.000229271
0.000229272
0.000229272
0.000229272
0.000229271
0.000229272
0.000135505
6.8963e-05
0.000225931
0.000218058
0.000135475
6.89838e-05
0.000225932
2.60927e-05
2.60925e-05
0.000135509
0.00022593
6.89666e-05
0.000218054
0.000135479
0.000225931
6.89865e-05
3.84986e-05
3.84911e-05
0.000203276
3.85025e-05
3.8495e-05
5.70196e-05
4.78807e-05
5.70091e-05
4.788e-05
2.60953e-05
2.60951e-05
5.70276e-05
4.78775e-05
5.70182e-05
4.78767e-05
0.000229273
0.000229271
0.000229272
0.000229272
0.000229272
0.000229271
0.000229272
0.000135505
6.89638e-05
0.000225932
0.00021806
0.000135477
6.89839e-05
0.000225932
2.60927e-05
2.60925e-05
0.000135509
0.000225931
6.89676e-05
0.000218056
0.000135481
0.000225931
6.89867e-05
3.84989e-05
3.84914e-05
0.000203277
3.85026e-05
3.84951e-05
5.70196e-05
4.78807e-05
5.70092e-05
4.788e-05
2.60953e-05
2.60951e-05
5.70276e-05
4.78775e-05
5.70182e-05
4.78767e-05
0.000229273
0.000229271
0.000229272
0.000229272
0.000229272
0.000229271
0.000229272
0.000135506
6.89638e-05
0.000225932
0.00021806
0.000135477
6.89839e-05
0.000225932
2.60927e-05
2.60925e-05
0.000135509
0.000225931
6.89676e-05
0.000218057
0.00013548
0.000225931
6.89867e-05
3.84989e-05
3.84914e-05
0.000203277
3.85026e-05
3.8495e-05
5.70196e-05
4.78808e-05
5.70091e-05
4.78799e-05
2.60953e-05
2.60951e-05
5.70276e-05
4.78776e-05
5.70182e-05
4.78767e-05
0.000229273
0.000229271
0.000229272
0.000229272
0.000229272
0.000229271
0.000229272
0.000135506
6.89638e-05
0.000225932
0.00021806
0.000135477
6.89839e-05
0.000225932
2.60927e-05
2.60925e-05
0.000135509
0.000225931
6.89676e-05
0.000218057
0.00013548
0.000225931
6.89867e-05
3.84988e-05
3.84914e-05
0.000203277
3.85026e-05
3.8495e-05
5.70196e-05
4.78809e-05
5.70091e-05
4.78802e-05
2.60953e-05
2.60951e-05
5.70276e-05
4.78775e-05
5.70182e-05
4.78766e-05
0.000229273
0.000229271
0.000229272
0.000229272
0.000229272
0.000229271
0.000229272
0.000135506
6.89638e-05
0.000225932
0.00021806
0.000135477
6.89839e-05
0.000225932
2.60927e-05
2.60925e-05
0.000135509
0.000225931
6.89676e-05
0.000218057
0.00013548
0.000225931
6.89867e-05
3.84988e-05
3.84914e-05
0.000203277
3.85026e-05
3.8495e-05
5.70196e-05
4.7881e-05
5.70091e-05
4.78803e-05
2.60953e-05
2.60951e-05
5.70276e-05
4.78774e-05
5.70182e-05
4.78766e-05
0.000229273
0.000229271
0.000229272
0.000229273
0.000229275
0.000229272
0.000229273
0.000135506
6.89638e-05
0.000225932
0.00021806
0.000135477
6.89839e-05
0.000225932
2.60927e-05
2.60925e-05
0.000135509
0.000225931
6.89676e-05
0.000218057
0.00013548
0.000225931
6.89867e-05
3.84988e-05
3.84914e-05
0.000203277
3.85026e-05
3.8495e-05
0.000234855
0.000233564
0.000233566
2.32575e-05
0.000214159
2.32565e-05
0.000214162
0.000234451
5.1354e-05
5.13356e-05
0.00022999
0.000229991
0.000235111
0.000234794
0.000234701
0.000234727
0.000235111
0.000234794
0.000234701
0.000234727
0.000234477
4.02628e-05
0.000218814
0.000147663
0.000234477
4.02623e-05
0.000218814
0.000147671
0.0002339
0.000234479
0.000100146
0.000234268
0.000233359
0.000234596
0.000228451
0.0002339
0.000234479
0.000100133
0.000234269
0.000233359
0.000234596
0.00022845
0.000234855
0.000233565
0.000233566
2.32573e-05
0.000214167
0.000234451
5.13456e-05
5.13418e-05
0.000229989
0.000229991
2.32571e-05
0.000214169
0.000235111
0.000234795
0.000234701
0.000234727
0.000235111
0.000234794
0.000234727
0.000234701
0.000234477
4.02596e-05
0.000218815
0.000147643
0.0002339
0.000234478
0.000100122
0.000234268
0.000233359
0.000234596
0.000228448
0.000234477
4.02591e-05
0.000218816
0.000147658
0.0002339
0.000234479
0.000234269
0.000100132
0.000234596
0.000233359
0.00022845
0.000234729
0.000234746
0.000234729
0.000234729
0.000234729
0.000234746
0.000234729
0.000234729
0.000234729
0.000234746
0.000234729
0.000234729
0.000234593
0.000234573
0.00023425
0.000234249
0.000234592
0.000234592
0.00023425
0.000234593
0.000234573
0.00023425
0.00023425
0.000234592
0.000234592
0.00023425
0.000234593
0.000234573
0.00023425
0.00023425
0.000234592
0.000234592
0.00023425
0.000234593
0.000234573
0.00023425
0.00023425
0.000234592
0.000234592
0.00023425
0.000235111
0.000234794
0.000234727
0.000234701
0.0002339
0.000234479
0.000100127
0.000234268
0.000233359
0.000234596
0.000228449
0.000234477
4.02603e-05
0.000218818
0.000147657
0.0002339
0.000234479
0.000234268
0.000100138
0.000234596
0.00023336
0.00022845
0.000234477
4.02598e-05
0.000218816
0.000147664
0.000234855
0.000233566
0.000233566
2.32565e-05
0.000214163
0.000234451
5.13397e-05
5.13431e-05
0.000229991
0.000229993
2.32569e-05
0.000214171
0.000235111
0.000234795
0.000234727
0.000234701
0.0002339
0.000234479
0.000234268
0.000100133
0.000234596
0.00023336
0.000228449
0.0002339
0.000234478
0.000234268
0.000100123
0.000234596
0.000233359
0.000228448
0.000234477
4.02594e-05
0.000218818
0.000147644
0.000234477
4.02592e-05
0.000218814
0.00014763
0.000234451
5.13457e-05
5.13336e-05
0.000229992
0.000229992
2.3257e-05
0.000214169
2.32565e-05
0.000214164
2.16839e-05
2.28269e-05
2.16826e-05
2.28255e-05
4.77775e-05
4.77661e-05
0.000231324
4.4065e-05
4.4049e-05
2.44759e-05
2.33095e-05
2.44744e-05
2.33081e-05
0.000229717
4.00676e-05
4.00524e-05
4.303e-05
4.30171e-05
0.000104607
3.87452e-05
0.00012936
3.98131e-05
0.000206094
9.36413e-05
0.000233964
0.000232012
0.000222778
8.72685e-05
0.000233618
0.000206097
9.36269e-05
0.000233964
0.000232009
0.000222775
8.7253e-05
0.000233618
9.87697e-05
4.19531e-05
4.03817e-05
8.53267e-05
9.87628e-05
4.19515e-05
4.03805e-05
8.53282e-05
0.00020036
0.000230771
8.08855e-05
0.00023267
8.56136e-05
0.0002332
0.000185359
0.00020036
0.000230767
8.08741e-05
0.000232669
8.55991e-05
0.0002332
0.000185362
4.77695e-05
4.77734e-05
0.000231325
4.40539e-05
4.40595e-05
2.16836e-05
2.28269e-05
2.44751e-05
2.33086e-05
0.000229717
4.00573e-05
4.0061e-05
4.30199e-05
4.30253e-05
2.44761e-05
2.33097e-05
0.000206086
9.36213e-05
0.000233964
0.00023201
0.000222776
8.72482e-05
0.000233618
0.000104591
3.87419e-05
0.000129386
3.98107e-05
0.000206087
0.000233964
9.36234e-05
0.000232008
0.00022278
0.000233618
8.72493e-05
9.87642e-05
4.19492e-05
4.03782e-05
8.53225e-05
0.000200358
0.000230768
8.08696e-05
0.000232669
8.55979e-05
0.0002332
0.000185355
9.8765e-05
4.19483e-05
4.03776e-05
8.53214e-05
0.000200357
0.000230766
0.000232669
8.08668e-05
0.0002332
8.55948e-05
0.000185353
0.000104595
3.87428e-05
0.000129378
3.98136e-05
0.000206091
0.000233964
9.36347e-05
0.000232012
0.000222788
0.000233618
8.72614e-05
0.000104593
3.87432e-05
0.000129399
3.98121e-05
0.000200362
0.000230772
8.08813e-05
0.00023267
8.56109e-05
0.0002332
0.000185359
9.87675e-05
4.19514e-05
4.03793e-05
8.5322e-05
0.000200361
0.00023077
0.00023267
8.08822e-05
0.0002332
8.56105e-05
0.000185358
9.87726e-05
4.19505e-05
4.03795e-05
8.53232e-05
4.77653e-05
4.77743e-05
0.000231323
4.40494e-05
4.40643e-05
2.1683e-05
2.28261e-05
2.44737e-05
2.33074e-05
0.000229717
4.00513e-05
4.00653e-05
4.30174e-05
4.30259e-05
2.44751e-05
2.33086e-05
0.000206083
0.000233964
9.36212e-05
0.000232009
0.000222785
0.000233618
8.72507e-05
0.000104575
3.87422e-05
0.000129404
3.98123e-05
0.000104571
3.87416e-05
0.000129391
3.98112e-05
0.000200359
0.000230772
0.00023267
8.08826e-05
0.0002332
8.56074e-05
0.000185354
0.00020036
0.000230768
0.000232669
8.08732e-05
0.0002332
8.55976e-05
0.000185353
9.878e-05
4.19501e-05
4.03791e-05
8.53204e-05
9.87794e-05
4.19494e-05
4.03777e-05
8.532e-05
2.16834e-05
2.28261e-05
2.16825e-05
2.28256e-05
0.000229717
4.00642e-05
4.00531e-05
4.30313e-05
4.30165e-05
2.44753e-05
2.33088e-05
2.44744e-05
2.33082e-05
2.47777e-05
2.54636e-05
2.47759e-05
2.54619e-05
3.90506e-05
3.90372e-05
0.000219487
3.65447e-05
3.65298e-05
2.59538e-05
2.56226e-05
2.59524e-05
2.56207e-05
0.000216882
3.39881e-05
3.39708e-05
3.56391e-05
3.56276e-05
7.21018e-05
4.24303e-05
8.1738e-05
4.37646e-05
0.000167045
7.93016e-05
0.000232043
0.000226144
0.000180495
7.45999e-05
0.000231378
0.000167047
7.92883e-05
0.000232043
0.000226138
0.000180498
7.45909e-05
0.000231378
6.93461e-05
4.52245e-05
4.41574e-05
6.38327e-05
6.93488e-05
4.52242e-05
4.41559e-05
6.38352e-05
0.000162547
0.000224504
6.91048e-05
0.000229751
7.29368e-05
0.000230671
0.000152668
0.000162551
0.000224499
6.90935e-05
0.00022975
7.29233e-05
0.000230671
0.000152672
3.90408e-05
3.90472e-05
0.000219489
3.65343e-05
3.65446e-05
2.47779e-05
2.54636e-05
2.59534e-05
2.56216e-05
0.000216883
3.39749e-05
3.39851e-05
3.56314e-05
3.56322e-05
2.59541e-05
2.56226e-05
0.00016704
7.9285e-05
0.000232043
0.000226143
0.000180492
7.45888e-05
0.000231378
7.20873e-05
4.24271e-05
8.17288e-05
4.37609e-05
0.000167038
0.000232042
7.92855e-05
0.000226137
0.000180489
0.000231377
7.4583e-05
6.93515e-05
4.52215e-05
4.4154e-05
6.38278e-05
0.000162543
0.000224503
6.90911e-05
0.00022975
7.29218e-05
0.000230671
0.000152667
6.93504e-05
4.52201e-05
4.41522e-05
6.38256e-05
0.00016254
0.000224496
0.000229749
6.90915e-05
0.00023067
7.29178e-05
0.000152663
7.20948e-05
4.24299e-05
8.17388e-05
4.37643e-05
0.000167042
0.000232043
7.92972e-05
0.000226142
0.000180496
0.000231378
7.45967e-05
7.20978e-05
4.24293e-05
8.1733e-05
4.37629e-05
0.00016255
0.000224509
6.91059e-05
0.000229752
7.2934e-05
0.000230672
0.000152671
6.93512e-05
4.52237e-05
4.41556e-05
6.38324e-05
0.000162548
0.000224502
0.000229751
6.90989e-05
0.000230671
7.29289e-05
0.000152667
6.9349e-05
4.52223e-05
4.41544e-05
6.38306e-05
3.90377e-05
3.90492e-05
0.000219485
3.65345e-05
3.65407e-05
2.4777e-05
2.54623e-05
2.59512e-05
2.56197e-05
0.00021688
3.39755e-05
3.39821e-05
3.56224e-05
3.56371e-05
2.5953e-05
2.56213e-05
0.000167041
0.000232043
7.92871e-05
0.000226141
0.000180496
0.000231378
7.45879e-05
7.20876e-05
4.24288e-05
8.17295e-05
4.37631e-05
7.20938e-05
4.24276e-05
8.1731e-05
4.37619e-05
0.000162543
0.000224508
0.000229751
6.91008e-05
0.000230672
7.29308e-05
0.000152665
0.000162546
0.000224503
0.00022975
6.90909e-05
0.000230671
7.29213e-05
0.000152667
6.93515e-05
4.52225e-05
4.41544e-05
6.38261e-05
6.93522e-05
4.52213e-05
4.4153e-05
6.38271e-05
2.47769e-05
2.54621e-05
2.47761e-05
2.54614e-05
0.000216881
3.39804e-05
3.39707e-05
3.56359e-05
3.56263e-05
2.59528e-05
2.56211e-05
2.59521e-05
2.56204e-05
2.60272e-05
2.61059e-05
2.60254e-05
2.61042e-05
3.3264e-05
3.32568e-05
0.000203724
3.1813e-05
3.18024e-05
2.60768e-05
2.61025e-05
2.60749e-05
2.61007e-05
0.000201015
3.27751e-05
3.2764e-05
3.18016e-05
3.1793e-05
5.56369e-05
4.55604e-05
6.14182e-05
4.64137e-05
0.000137674
6.74849e-05
0.000228512
0.000217405
0.000148576
6.30958e-05
0.00022715
0.000137677
6.74763e-05
0.000228512
0.000217399
0.000148579
6.30889e-05
0.00022715
5.46734e-05
4.71955e-05
4.66412e-05
5.37338e-05
5.46754e-05
4.71956e-05
4.66403e-05
5.37345e-05
0.000134936
0.00021563
6.24646e-05
0.00022541
6.22654e-05
0.000226034
0.000131168
0.000134939
0.000215625
6.24576e-05
0.000225409
6.2257e-05
0.000226033
0.000131169
3.3259e-05
3.32618e-05
0.00020373
3.18053e-05
3.18106e-05
2.60275e-05
2.61062e-05
2.60761e-05
2.61018e-05
0.000201017
3.27675e-05
3.27719e-05
3.17957e-05
3.1799e-05
2.60769e-05
2.61027e-05
0.00013767
6.74749e-05
0.000228512
0.000217407
0.000148572
6.30857e-05
0.000227149
5.5633e-05
4.55565e-05
6.14153e-05
4.64095e-05
0.000137668
0.00022851
6.74709e-05
0.000217395
0.000148569
0.000227148
6.30833e-05
5.46706e-05
4.71924e-05
4.66381e-05
5.3726e-05
0.000134932
0.000215633
6.24525e-05
0.000225409
6.22551e-05
0.000226033
0.000131161
5.46694e-05
4.7191e-05
4.66363e-05
5.37264e-05
0.000134929
0.000215621
0.000225407
6.24511e-05
0.000226031
6.22525e-05
0.00013116
5.56346e-05
4.55602e-05
6.14158e-05
4.64133e-05
0.000137673
0.000228512
6.74813e-05
0.000217403
0.000148575
0.00022715
6.30931e-05
5.56331e-05
4.55585e-05
6.14137e-05
4.64117e-05
0.000134937
0.00021564
6.24638e-05
0.000225411
6.22661e-05
0.000226035
0.000131166
5.46731e-05
4.7195e-05
4.66401e-05
5.37316e-05
0.000134935
0.000215628
0.000225409
6.24615e-05
0.000226033
6.22609e-05
0.000131166
5.46717e-05
4.71933e-05
4.66383e-05
5.37316e-05
3.32526e-05
3.32648e-05
0.000203721
3.18024e-05
3.18115e-05
2.60262e-05
2.61049e-05
2.60738e-05
2.60997e-05
0.000201011
3.27637e-05
3.27737e-05
3.17907e-05
3.18018e-05
2.60757e-05
2.61014e-05
0.000137672
0.000228512
6.74736e-05
0.000217406
0.000148572
0.000227149
6.30865e-05
5.56335e-05
4.55584e-05
6.14155e-05
4.64114e-05
5.56345e-05
4.55575e-05
6.14169e-05
4.64107e-05
0.000134931
0.000215637
0.000225409
6.24612e-05
0.000226033
6.22607e-05
0.000131163
0.000134933
0.000215632
0.000225409
6.24551e-05
0.000226032
6.22543e-05
0.000131164
5.46698e-05
4.7193e-05
4.6638e-05
5.37269e-05
5.46707e-05
4.71925e-05
4.66373e-05
5.37263e-05
2.60261e-05
2.61048e-05
2.60253e-05
2.61039e-05
0.000201012
3.27728e-05
3.27638e-05
3.18009e-05
3.17924e-05
2.60755e-05
2.61013e-05
2.60746e-05
2.61004e-05
2.60748e-05
2.60783e-05
2.60727e-05
2.60762e-05
3.34187e-05
3.34089e-05
0.000200259
3.65014e-05
3.64909e-05
2.60932e-05
2.60844e-05
2.60911e-05
2.60823e-05
0.000200546
3.81695e-05
3.81624e-05
3.7136e-05
3.71259e-05
5.59457e-05
4.73564e-05
5.42367e-05
4.77046e-05
0.000133428
6.27911e-05
0.000225249
0.000216017
0.000131225
6.60057e-05
0.000225357
0.000133428
6.2788e-05
0.000225248
0.000216013
0.000131225
6.60003e-05
0.000225356
5.62134e-05
4.78624e-05
4.77736e-05
5.67954e-05
5.62135e-05
4.78624e-05
4.77731e-05
5.67955e-05
0.00013378
0.000216792
6.84034e-05
0.000225706
6.69205e-05
0.000225546
0.000134999
0.00013378
0.000216788
6.84011e-05
0.000225705
6.69137e-05
0.000225545
0.000134999
3.34121e-05
3.34157e-05
0.000200263
3.64936e-05
3.65002e-05
2.60748e-05
2.60783e-05
2.60924e-05
2.60836e-05
0.000200549
3.81644e-05
3.81669e-05
3.71276e-05
3.71331e-05
2.60927e-05
2.60844e-05
0.000133421
6.27834e-05
0.000225248
0.000216021
0.00013122
6.5996e-05
0.000225356
5.59415e-05
4.7352e-05
5.4239e-05
4.76997e-05
0.00013342
0.000225246
6.27779e-05
0.000216009
0.000131218
0.000225355
6.59908e-05
5.62163e-05
4.78595e-05
4.77703e-05
5.68022e-05
0.000133777
0.000216796
6.8396e-05
0.000225705
6.69098e-05
0.000225545
0.000134999
5.62164e-05
4.78568e-05
4.77683e-05
5.68012e-05
0.000133776
0.000216784
0.000225704
6.8389e-05
0.000225543
6.69078e-05
0.000134997
5.59438e-05
4.73562e-05
5.42337e-05
4.77041e-05
0.000133425
0.000225248
6.27916e-05
0.000216015
0.000131224
0.000225357
6.60028e-05
5.59437e-05
4.7354e-05
5.42339e-05
4.7702e-05
0.00013378
0.000216802
6.84024e-05
0.000225707
6.692e-05
0.000225546
0.000134999
5.6212e-05
4.78613e-05
4.77727e-05
5.67947e-05
0.00013378
0.00021679
0.000225705
6.8402e-05
0.000225545
6.69154e-05
0.000134998
5.62119e-05
4.78597e-05
4.77705e-05
5.67941e-05
3.34072e-05
3.34182e-05
0.000200255
3.64908e-05
3.65001e-05
2.60735e-05
2.60771e-05
2.60896e-05
2.60813e-05
0.000200542
3.81568e-05
3.81704e-05
3.7123e-05
3.71339e-05
2.6092e-05
2.60832e-05
0.000133425
0.000225247
6.27848e-05
0.000216021
0.000131221
0.000225356
6.59971e-05
5.5942e-05
4.73538e-05
5.42396e-05
4.77018e-05
5.59416e-05
4.73533e-05
5.42388e-05
4.77014e-05
0.000133779
0.000216798
0.000225706
6.8402e-05
0.000225546
6.69151e-05
0.000135
0.000133779
0.000216796
0.000225705
6.83976e-05
0.000225545
6.69099e-05
0.000135002
5.62171e-05
4.78595e-05
4.77702e-05
5.68021e-05
5.62167e-05
4.78592e-05
4.77699e-05
5.68021e-05
2.60734e-05
2.60769e-05
2.60725e-05
2.6076e-05
0.000200544
3.81697e-05
3.81618e-05
3.71329e-05
3.71251e-05
2.60918e-05
2.6083e-05
2.60909e-05
2.60821e-05
2.60953e-05
2.60961e-05
2.60932e-05
2.6094e-05
3.83009e-05
3.82948e-05
0.000203112
3.84583e-05
3.84525e-05
2.60963e-05
2.60964e-05
2.60942e-05
2.60943e-05
0.000203036
3.84989e-05
3.84926e-05
3.84805e-05
3.84748e-05
5.69791e-05
4.78741e-05
5.68834e-05
4.78808e-05
0.000135398
6.86289e-05
0.000225813
0.000217889
0.000135125
6.89009e-05
0.000225872
0.000135398
6.86269e-05
0.000225812
0.000217887
0.000135125
6.88989e-05
0.000225871
5.69865e-05
4.78805e-05
4.78811e-05
5.70079e-05
5.69866e-05
4.78807e-05
4.78813e-05
5.70079e-05
0.0001354
0.00021798
6.89707e-05
0.000225922
6.89297e-05
0.000225904
0.000135474
0.0001354
0.000217978
6.8968e-05
0.000225921
6.89278e-05
0.000225904
0.000135474
3.82951e-05
3.82949e-05
0.000203115
3.8453e-05
3.8453e-05
2.60948e-05
2.60955e-05
2.60953e-05
2.60954e-05
0.000203039
3.84928e-05
3.84885e-05
3.84747e-05
3.84716e-05
2.60957e-05
2.60959e-05
0.000135399
6.86238e-05
0.000225812
0.000217894
0.000135125
6.88944e-05
0.000225872
5.69832e-05
4.78688e-05
5.68873e-05
4.78753e-05
0.000135397
0.000225811
6.86146e-05
0.000217882
0.000135123
0.00022587
6.88846e-05
5.69939e-05
4.78774e-05
4.7878e-05
5.7014e-05
0.000135401
0.000217985
6.89635e-05
0.000225921
6.89236e-05
0.000225904
0.000135475
5.69923e-05
4.7875e-05
4.78757e-05
5.70124e-05
0.000135399
0.000217973
0.000225919
6.89533e-05
0.000225902
6.89124e-05
0.000135473
5.69783e-05
4.78733e-05
5.68826e-05
4.78798e-05
0.000135397
0.000225812
6.86276e-05
0.000217887
0.000135124
0.000225872
6.88997e-05
5.69776e-05
4.78714e-05
5.68819e-05
4.78781e-05
0.0001354
0.000217987
6.89671e-05
0.000225923
6.89263e-05
0.000225905
0.000135474
5.69858e-05
4.78796e-05
4.78803e-05
5.70071e-05
0.000135399
0.000217978
0.000225921
6.89688e-05
0.000225904
6.89285e-05
0.000135472
5.69851e-05
4.78779e-05
4.78785e-05
5.70064e-05
3.82842e-05
3.83013e-05
0.000203108
3.84429e-05
3.84592e-05
2.60941e-05
2.60948e-05
2.60925e-05
2.60927e-05
0.000203032
3.84798e-05
3.84986e-05
3.84619e-05
3.84807e-05
2.6095e-05
2.60951e-05
0.000135401
0.000225812
6.86233e-05
0.000217894
0.000135127
0.000225872
6.88957e-05
5.6984e-05
4.78712e-05
5.68881e-05
4.78779e-05
5.69841e-05
4.78709e-05
5.68882e-05
4.78776e-05
0.000135402
0.000217983
0.000225922
6.89691e-05
0.000225904
6.89291e-05
0.000135476
0.000135403
0.000217986
0.000225922
6.89649e-05
0.000225904
6.89244e-05
0.000135478
5.6993e-05
4.78777e-05
4.78783e-05
5.70132e-05
5.69932e-05
4.78774e-05
4.7878e-05
5.70134e-05
2.60939e-05
2.60947e-05
2.6093e-05
2.60938e-05
0.000203035
3.84987e-05
3.84911e-05
3.84807e-05
3.84731e-05
2.60948e-05
2.6095e-05
2.60939e-05
2.6094e-05
2.60967e-05
2.60965e-05
2.60943e-05
2.60941e-05
3.84971e-05
3.84909e-05
0.000203278
3.85017e-05
3.8495e-05
2.60965e-05
2.60967e-05
2.60941e-05
2.60943e-05
0.000203167
3.85032e-05
3.84961e-05
3.84996e-05
3.8493e-05
5.7016e-05
4.7881e-05
5.70027e-05
4.78804e-05
0.000135494
6.89587e-05
0.000225928
0.000218044
0.000135456
6.8983e-05
0.00022593
0.000135495
6.89557e-05
0.000225928
0.000218042
0.000135457
6.89797e-05
0.000225929
5.7009e-05
4.788e-05
4.78805e-05
5.70187e-05
5.70091e-05
4.78802e-05
4.78807e-05
5.7019e-05
0.000135471
0.000218047
6.89873e-05
0.000225931
6.89684e-05
0.000225931
0.000135502
0.000135472
0.000218045
6.89835e-05
0.00022593
6.89648e-05
0.00022593
0.000135502
3.84907e-05
3.84872e-05
0.000203281
3.84948e-05
3.84922e-05
2.60959e-05
2.60956e-05
2.6095e-05
2.60952e-05
0.000203169
3.8496e-05
3.84929e-05
3.84925e-05
3.84891e-05
2.60956e-05
2.60959e-05
0.000135497
6.89514e-05
0.000225928
0.00021805
0.000135458
6.89749e-05
0.00022593
5.7021e-05
4.78753e-05
5.70084e-05
4.78746e-05
0.000135494
0.000225926
6.89401e-05
0.000218037
0.000135456
0.000225928
6.89648e-05
5.70173e-05
4.78768e-05
4.78773e-05
5.70264e-05
0.000135474
0.000218052
6.89786e-05
0.000225931
6.89603e-05
0.000225931
0.000135504
5.70153e-05
4.78744e-05
4.78749e-05
5.70243e-05
0.000135471
0.00021804
0.000225929
6.89685e-05
0.000225929
6.8949e-05
0.000135501
5.70152e-05
4.78799e-05
5.70019e-05
4.78792e-05
0.000135493
0.000225928
6.89565e-05
0.000218043
0.000135455
0.00022593
6.89807e-05
5.70146e-05
4.78782e-05
5.70012e-05
4.78775e-05
0.000135473
0.000218053
6.89826e-05
0.000225931
6.89632e-05
0.000225931
0.000135502
5.70083e-05
4.7879e-05
4.78795e-05
5.70183e-05
0.00013547
0.000218046
0.000225931
6.89845e-05
0.000225931
6.89658e-05
0.0001355
5.70077e-05
4.78773e-05
4.78778e-05
5.70177e-05
3.84778e-05
3.84967e-05
0.000203273
3.84827e-05
3.85009e-05
2.60952e-05
2.6095e-05
2.60925e-05
2.60927e-05
0.000203162
3.84836e-05
3.85021e-05
3.84796e-05
3.84987e-05
2.6095e-05
2.60952e-05
0.000135499
0.000225929
6.89524e-05
0.000218051
0.00013546
0.00022593
6.89768e-05
5.70219e-05
4.7878e-05
5.70092e-05
4.78773e-05
5.70222e-05
4.78777e-05
5.70094e-05
4.7877e-05
0.000135475
0.00021805
0.00022593
6.89852e-05
0.000225931
6.89665e-05
0.000135506
0.000135476
0.000218053
0.000225931
6.89806e-05
0.000225931
6.89616e-05
0.000135507
5.70162e-05
4.78771e-05
4.78776e-05
5.70253e-05
5.70164e-05
4.78768e-05
4.78773e-05
5.70256e-05
2.6095e-05
2.60948e-05
2.60941e-05
2.60939e-05
0.000203168
3.85021e-05
3.84946e-05
3.84987e-05
3.84913e-05
2.60948e-05
2.6095e-05
2.60939e-05
2.60941e-05
2.60967e-05
2.60965e-05
2.60943e-05
2.60941e-05
3.85009e-05
3.84939e-05
0.000203277
3.85041e-05
3.84965e-05
2.60965e-05
2.60967e-05
2.60941e-05
2.60943e-05
0.000203167
3.8504e-05
3.84966e-05
3.85012e-05
3.84942e-05
5.70199e-05
4.78805e-05
5.70114e-05
4.78801e-05
0.000135505
6.89717e-05
0.000225931
0.00021805
0.000135478
6.8989e-05
0.000225931
0.000135506
6.89676e-05
0.00022593
0.000218048
0.000135479
6.89849e-05
0.00022593
5.70116e-05
4.788e-05
4.78804e-05
5.70196e-05
5.70121e-05
4.78801e-05
4.78804e-05
5.70202e-05
0.000135482
0.000218052
6.89896e-05
0.000225931
6.89731e-05
0.000225932
0.000135505
0.000135483
0.00021805
6.89852e-05
0.000225931
6.89688e-05
0.000225931
0.000135507
3.84934e-05
3.84897e-05
0.000203279
3.84965e-05
3.84932e-05
2.60959e-05
2.60956e-05
2.60951e-05
2.60953e-05
0.000203168
3.84965e-05
3.84931e-05
3.84938e-05
3.84898e-05
2.60956e-05
2.60959e-05
0.000135508
6.8963e-05
0.000225931
0.000218055
0.000135482
6.89798e-05
0.000225931
5.70254e-05
4.78748e-05
5.70178e-05
4.78743e-05
0.000135505
0.000225929
6.89516e-05
0.000218042
0.000135478
0.000225929
6.89697e-05
5.70206e-05
4.78767e-05
4.78772e-05
5.70277e-05
0.000135486
0.000218057
6.898e-05
0.000225932
6.89639e-05
0.000225932
0.000135509
5.70186e-05
4.78743e-05
4.78747e-05
5.70256e-05
0.000135482
0.000218044
0.00022593
6.897e-05
0.00022593
6.89526e-05
0.000135507
5.70191e-05
4.78794e-05
5.70107e-05
4.78789e-05
0.000135504
0.00022593
6.89686e-05
0.000218049
0.000135478
0.000225931
6.89859e-05
5.70186e-05
4.78777e-05
5.70101e-05
4.78773e-05
0.000135483
0.000218058
6.89839e-05
0.000225932
6.89668e-05
0.000225932
0.000135505
5.70112e-05
4.78789e-05
4.78793e-05
5.70193e-05
0.000135482
0.000218051
0.000225931
6.89861e-05
0.000225932
6.89697e-05
0.000135505
5.70107e-05
4.78773e-05
4.78776e-05
5.70189e-05
3.84803e-05
3.84997e-05
0.000203272
3.84839e-05
3.85026e-05
2.60951e-05
2.60949e-05
2.60925e-05
2.60927e-05
0.000203161
3.84839e-05
3.85026e-05
3.84805e-05
3.85e-05
2.60949e-05
2.60951e-05
0.00013551