/*--------------------------------*- C++ -*----------------------------------*\
| =========                 |                                                 |
| \\      /  F ield         | OpenFOAM: The Open Source CFD Toolbox           |
|  \\    /   O peration     | Version:  2206                                  |
|   \\  /    A nd           | Website:  www.openfoam.com                      |
|    \\/     M anipulation  |                                                 |
\*---------------------------------------------------------------------------*/
FoamFile
{
    version     2.0;
    format      ascii;
    arch        "LSB;label=32;scalar=64";
    class       volVectorField;
    location    "15.5";
    object      U;
}
// * * * * * * * * * * * * * * * * * * * * * * * * * * * * * * * * * * * * * //

dimensions      [0 1 -1 0 0 0 0];

internalField   nonuniform List<vector> 
28688
(
(0.000107573 0.000107504 0.1003)
(-0.000189675 0.000119558 0.100384)
(0.000119637 -0.000189668 0.100384)
(-0.000238625 -0.000238641 0.100397)
(9.56978e-05 9.56508e-05 0.100863)
(-0.000163331 9.96313e-05 0.100939)
(9.96368e-05 -0.000163323 0.10094)
(-0.00020059 -0.000200635 0.100965)
(9.35665e-05 9.35628e-05 0.101369)
(-0.000158981 9.58586e-05 0.101452)
(9.58446e-05 -0.000158996 0.101452)
(-0.000199052 -0.000199094 0.101468)
(4.72863e-05 4.72549e-05 0.101761)
(-6.23263e-05 3.8066e-05 0.101802)
(3.8093e-05 -6.23301e-05 0.101802)
(-0.00010176 -0.00010176 0.101812)
(7.2082e-06 7.19944e-06 0.101848)
(-9.22996e-06 6.75781e-06 0.101841)
(6.76019e-06 -9.22875e-06 0.101841)
(-4.61306e-05 -4.61485e-05 0.101823)
(7.65259e-08 8.32223e-08 0.101855)
(-9.03525e-07 9.32911e-07 0.101841)
(9.21929e-07 -9.0297e-07 0.101841)
(-3.91926e-05 -3.92057e-05 0.101818)
(-4.75402e-07 -4.69917e-07 0.101856)
(-3.50948e-07 5.47314e-07 0.101841)
(5.45476e-07 -3.52985e-07 0.101841)
(-3.88546e-05 -3.88693e-05 0.101817)
(-5.00319e-07 -4.97023e-07 0.101856)
(-3.36691e-07 5.35675e-07 0.101841)
(5.32645e-07 -3.38426e-07 0.101841)
(-3.88445e-05 -3.88602e-05 0.101817)
(-5.03774e-07 -5.00851e-07 0.101856)
(-3.3665e-07 5.33761e-07 0.101841)
(5.31619e-07 -3.38273e-07 0.101841)
(-3.88436e-05 -3.886e-05 0.101817)
(-5.02826e-07 -4.99018e-07 0.101856)
(-3.35296e-07 5.33974e-07 0.101841)
(5.3131e-07 -3.36973e-07 0.101841)
(-3.88432e-05 -3.88596e-05 0.101817)
(-4.99414e-07 -4.94087e-07 0.101856)
(-3.3529e-07 5.34566e-07 0.101841)
(5.32631e-07 -3.38145e-07 0.101841)
(-3.88441e-05 -3.88608e-05 0.101817)
(-5.04014e-07 -5.02182e-07 0.101856)
(-3.36341e-07 5.31367e-07 0.101841)
(5.30924e-07 -3.37134e-07 0.101841)
(-3.88392e-05 -3.88567e-05 0.101817)
(0.000135636 0.000135626 0.100282)
(0.000124387 0.000153441 0.100229)
(-0.000124381 0.000153422 0.100229)
(-0.000135633 0.000135594 0.100282)
(0.000153468 0.000124337 0.100229)
(0.000153442 -0.000124355 0.100229)
(9.12094e-05 9.11553e-05 0.10015)
(-9.11992e-05 9.11531e-05 0.10015)
(9.11819e-05 -9.12044e-05 0.10015)
(-9.11789e-05 -9.1203e-05 0.10015)
(-0.000153464 0.000124335 0.100229)
(-0.000153451 -0.00012435 0.100229)
(0.000135628 -0.000135648 0.100282)
(0.000124336 -0.00015347 0.100229)
(-0.000124333 -0.000153453 0.100229)
(-0.000135637 -0.000135621 0.100282)
(0.00023867 0.00023865 0.100397)
(0.000114501 0.000114378 0.100892)
(0.000119677 0.000189564 0.100384)
(-0.000119628 0.000189605 0.100384)
(9.09652e-05 0.000149156 0.100823)
(-9.09281e-05 0.000149152 0.100823)
(-0.00023868 0.000238598 0.100397)
(-0.000114459 0.000114342 0.100892)
(0.000189712 0.000119578 0.100384)
(0.000189648 -0.000119642 0.100384)
(0.000149129 9.09433e-05 0.100823)
(0.000149161 -9.09638e-05 0.100823)
(-0.000189628 -0.000119645 0.100384)
(-0.000149093 9.0945e-05 0.100823)
(-0.000149122 -9.09602e-05 0.100823)
(0.0002386 -0.000238687 0.100397)
(0.000114457 -0.00011447 0.100892)
(-0.000119616 -0.000189696 0.100384)
(9.09537e-05 -0.000149094 0.100823)
(-9.09338e-05 -0.00014912 0.100823)
(-0.000114455 -0.000114472 0.100892)
(0.00020067 0.00020051 0.100965)
(0.000112218 0.000112142 0.101396)
(9.96336e-05 0.000163376 0.100939)
(-9.96082e-05 0.000163374 0.100939)
(9.75934e-05 0.000160912 0.101318)
(-9.76006e-05 0.000160917 0.101318)
(-0.000200632 0.000200474 0.100965)
(-0.000112208 0.000112134 0.101396)
(0.000163363 9.96197e-05 0.10094)
(0.000163377 -9.96286e-05 0.10094)
(0.00016087 9.76003e-05 0.101318)
(0.000160907 -9.76079e-05 0.101318)
(-0.000163351 -9.9621e-05 0.100939)
(-0.000160865 9.76101e-05 0.101318)
(-0.00016088 -9.75893e-05 0.101318)
(0.000200586 -0.000200644 0.100965)
(0.000112183 -0.000112195 0.101396)
(-9.96169e-05 -0.000163355 0.10094)
(9.75932e-05 -0.000160866 0.101318)
(-9.75993e-05 -0.000160882 0.101318)
(-0.000112199 -0.000112204 0.101396)
(0.000199109 0.000198998 0.101468)
(3.58871e-05 3.58439e-05 0.101798)
(9.5818e-05 0.000159051 0.101452)
(-9.58234e-05 0.000159051 0.101452)
(5.1904e-05 8.787e-05 0.101759)
(-5.18988e-05 8.78478e-05 0.101759)
(-0.000199099 0.000198985 0.101468)
(-3.58394e-05 3.58221e-05 0.101798)
(0.000158997 9.58513e-05 0.101452)
(0.000159034 -9.58347e-05 0.101452)
(8.78491e-05 5.18674e-05 0.101759)
(8.78668e-05 -5.19088e-05 0.101759)
(-0.000159019 -9.58336e-05 0.101452)
(-8.78414e-05 5.1856e-05 0.101759)
(-8.78613e-05 -5.18956e-05 0.101759)
(0.000199035 -0.0001991 0.101468)
(3.58867e-05 -3.5824e-05 0.101798)
(-9.58582e-05 -0.000159019 0.101452)
(5.18809e-05 -8.78419e-05 0.101759)
(-5.18709e-05 -8.78403e-05 0.101759)
(-3.58584e-05 -3.58088e-05 0.101798)
(0.000101816 0.000101736 0.101812)
(-3.02717e-05 -3.02697e-05 0.101825)
(3.81138e-05 6.23168e-05 0.101802)
(-3.81159e-05 6.23188e-05 0.101802)
(1.13676e-05 1.6102e-05 0.10184)
(-1.13757e-05 1.6117e-05 0.10184)
(-0.000101792 0.000101703 0.101812)
(3.02714e-05 -3.02623e-05 0.101825)
(6.23398e-05 3.80755e-05 0.101802)
(6.23438e-05 -3.81241e-05 0.101802)
(1.61082e-05 1.13388e-05 0.10184)
(1.61222e-05 -1.13722e-05 0.10184)
(-6.23291e-05 -3.81074e-05 0.101802)
(-1.61112e-05 1.13422e-05 0.10184)
(-1.61148e-05 -1.13677e-05 0.10184)
(0.000101774 -0.000101799 0.101812)
(-3.02506e-05 3.02795e-05 0.101825)
(-3.80821e-05 -6.23234e-05 0.101802)
(1.13498e-05 -1.61056e-05 0.10184)
(-1.1349e-05 -1.61104e-05 0.10184)
(3.0258e-05 3.0273e-05 0.101825)
(4.61408e-05 4.61089e-05 0.101823)
(-3.98236e-05 -3.97997e-05 0.101819)
(6.77594e-06 9.23014e-06 0.101841)
(-6.78494e-06 9.24895e-06 0.101841)
(1.3806e-06 1.54738e-06 0.101841)
(-1.39457e-06 1.56608e-06 0.101841)
(-4.61443e-05 4.61124e-05 0.101823)
(3.98219e-05 -3.97852e-05 0.101819)
(9.2318e-06 6.75415e-06 0.101841)
(9.24456e-06 -6.77953e-06 0.101841)
(1.53565e-06 1.37093e-06 0.101841)
(1.54935e-06 -1.38429e-06 0.101841)
(-9.24164e-06 -6.77529e-06 0.101841)
(-1.5372e-06 1.37708e-06 0.101841)
(-1.55224e-06 -1.38047e-06 0.101841)
(4.61195e-05 -4.61565e-05 0.101823)
(-3.97969e-05 3.98287e-05 0.101819)
(-6.75878e-06 -9.22831e-06 0.101841)
(1.36718e-06 -1.53506e-06 0.101841)
(-1.36869e-06 -1.53418e-06 0.101841)
(3.97985e-05 3.98196e-05 0.101819)
(3.91954e-05 3.91811e-05 0.101818)
(-4.03426e-05 -4.03145e-05 0.101818)
(9.34284e-07 9.14185e-07 0.101841)
(-9.49045e-07 9.33911e-07 0.101841)
(5.78663e-07 3.90594e-07 0.101841)
(-5.8232e-07 3.9428e-07 0.101841)
(-3.9201e-05 3.91903e-05 0.101818)
(4.03432e-05 -4.03167e-05 0.101818)
(9.03576e-07 9.26721e-07 0.101841)
(9.14424e-07 -9.37455e-07 0.101841)
(3.74407e-07 5.70102e-07 0.101841)
(3.9012e-07 -5.78496e-07 0.101841)
(-9.15542e-07 -9.33074e-07 0.101841)
(-3.73679e-07 5.68765e-07 0.101841)
(-3.88769e-07 -5.75575e-07 0.101841)
(3.9179e-05 -3.92126e-05 0.101818)
(-4.03159e-05 4.03502e-05 0.101818)
(-9.22298e-07 -8.98339e-07 0.101841)
(5.63588e-07 -3.73416e-07 0.101841)
(-5.63803e-07 -3.72799e-07 0.101841)
(4.03199e-05 4.03397e-05 0.101818)
(3.88625e-05 3.88497e-05 0.101817)
(-4.03566e-05 -4.03239e-05 0.101818)
(5.64126e-07 3.69895e-07 0.101841)
(-5.59999e-07 3.69445e-07 0.101841)
(5.54993e-07 3.58011e-07 0.101841)
(-5.47895e-07 3.56978e-07 0.101841)
(-3.88604e-05 3.88381e-05 0.101817)
(4.03614e-05 -4.03331e-05 0.101818)
(3.54932e-07 5.53487e-07 0.101841)
(3.66822e-07 -5.5873e-07 0.101841)
(3.38714e-07 5.4117e-07 0.101841)
(3.53887e-07 -5.45918e-07 0.101841)
(-3.63911e-07 -5.55415e-07 0.101841)
(-3.36126e-07 5.35823e-07 0.101841)
(-3.5103e-07 -5.44588e-07 0.101841)
(3.88438e-05 -3.88747e-05 0.101817)
(-4.03315e-05 4.03668e-05 0.101818)
(-5.4323e-07 -3.48746e-07 0.101841)
(5.32194e-07 -3.36294e-07 0.101841)
(-5.30843e-07 -3.36457e-07 0.101841)
(4.03369e-05 4.03554e-05 0.101818)
(3.88528e-05 3.88404e-05 0.101817)
(-4.03573e-05 -4.03347e-05 0.101818)
(5.50708e-07 3.54564e-07 0.101841)
(-5.48586e-07 3.57343e-07 0.101841)
(5.49646e-07 3.52831e-07 0.101841)
(-5.49651e-07 3.53089e-07 0.101841)
(-3.88506e-05 3.88305e-05 0.101817)
(4.03606e-05 -4.03343e-05 0.101818)
(3.4083e-07 5.38197e-07 0.101841)
(3.52967e-07 -5.45513e-07 0.101841)
(3.37892e-07 5.35428e-07 0.101841)
(3.52712e-07 -5.46011e-07 0.101841)
(-3.49257e-07 -5.43441e-07 0.101841)
(-3.36586e-07 5.34346e-07 0.101841)
(-3.49988e-07 -5.441e-07 0.101841)
(3.88343e-05 -3.88646e-05 0.101817)
(-4.03325e-05 4.03667e-05 0.101818)
(-5.29604e-07 -3.34993e-07 0.101841)
(5.30858e-07 -3.3548e-07 0.101841)
(-5.29311e-07 -3.35573e-07 0.101841)
(4.03378e-05 4.03557e-05 0.101818)
(3.88521e-05 3.88314e-05 0.101817)
(-4.03587e-05 -4.03349e-05 0.101818)
(5.47809e-07 3.50503e-07 0.101841)
(-5.48622e-07 3.55588e-07 0.101841)
(5.49376e-07 3.51554e-07 0.101841)
(-5.48473e-07 3.49683e-07 0.101841)
(-3.88509e-05 3.88284e-05 0.101817)
(4.03635e-05 -4.03341e-05 0.101818)
(3.40211e-07 5.35305e-07 0.101841)
(3.51933e-07 -5.45829e-07 0.101841)
(3.36967e-07 5.35933e-07 0.101841)
(3.52385e-07 -5.45271e-07 0.101841)
(-3.48631e-07 -5.43379e-07 0.101841)
(-3.35216e-07 5.34139e-07 0.101841)
(-3.49056e-07 -5.43646e-07 0.101841)
(3.88335e-05 -3.88646e-05 0.101817)
(-4.03329e-05 4.03676e-05 0.101818)
(-5.28616e-07 -3.34506e-07 0.101841)
(5.30598e-07 -3.34777e-07 0.101841)
(-5.28871e-07 -3.34836e-07 0.101841)
(4.03385e-05 4.03563e-05 0.101818)
(3.8852e-05 3.88338e-05 0.101817)
(-4.03544e-05 -4.0317e-05 0.101818)
(5.50114e-07 3.53127e-07 0.101841)
(-5.47127e-07 3.59713e-07 0.101841)
(5.60059e-07 3.6616e-07 0.101841)
(-5.48937e-07 3.52362e-07 0.101841)
(-3.88485e-05 3.88278e-05 0.101817)
(4.03691e-05 -4.03337e-05 0.101818)
(3.39655e-07 5.37445e-07 0.101841)
(3.51695e-07 -5.44487e-07 0.101841)
(3.37661e-07 5.44529e-07 0.101841)
(3.53305e-07 -5.44368e-07 0.101841)
(-3.47583e-07 -5.42489e-07 0.101841)
(-3.35054e-07 5.35857e-07 0.101841)
(-3.49161e-07 -5.43542e-07 0.101841)
(3.88334e-05 -3.88639e-05 0.101817)
(-4.03318e-05 4.03676e-05 0.101818)
(-5.27863e-07 -3.33425e-07 0.101841)
(5.31109e-07 -3.34789e-07 0.101841)
(-5.2858e-07 -3.34943e-07 0.101841)
(4.03382e-05 4.03558e-05 0.101818)
(3.88566e-05 3.88517e-05 0.101817)
(-4.03531e-05 -4.03328e-05 0.101818)
(5.58632e-07 3.62511e-07 0.101841)
(-5.46409e-07 3.60283e-07 0.101841)
(5.49381e-07 3.49897e-07 0.101841)
(-5.4931e-07 3.48037e-07 0.101841)
(-3.88486e-05 3.88288e-05 0.101817)
(4.03634e-05 -4.03315e-05 0.101818)
(3.41256e-07 5.43845e-07 0.101841)
(3.53549e-07 -5.44836e-07 0.101841)
(3.37054e-07 5.33482e-07 0.101841)
(3.52328e-07 -5.45503e-07 0.101841)
(-3.48542e-07 -5.43705e-07 0.101841)
(-3.3586e-07 5.3339e-07 0.101841)
(-3.48642e-07 -5.4451e-07 0.101841)
(3.88351e-05 -3.88648e-05 0.101817)
(-4.03303e-05 4.03645e-05 0.101818)
(-5.28607e-07 -3.34877e-07 0.101841)
(5.3055e-07 -3.35065e-07 0.101841)
(-5.28331e-07 -3.35293e-07 0.101841)
(4.0336e-05 4.03526e-05 0.101818)
(3.88495e-05 3.88273e-05 0.101817)
(-4.03423e-05 -4.03229e-05 0.101818)
(5.50023e-07 3.519e-07 0.101841)
(-5.48306e-07 3.57053e-07 0.101841)
(5.45272e-07 3.37797e-07 0.101841)
(-3.88424e-05 3.88192e-05 0.101817)
(3.40268e-07 5.35429e-07 0.101841)
(3.51097e-07 -5.45332e-07 0.101841)
(3.28181e-07 5.28681e-07 0.101841)
(3.42969e-07 -5.43299e-07 0.101841)
(-3.46916e-07 -5.43533e-07 0.101841)
(-3.40491e-07 -5.42125e-07 0.101841)
(3.88293e-05 -3.88607e-05 0.101817)
(-4.0319e-05 4.0352e-05 0.101818)
(-5.27268e-07 -3.34133e-07 0.101841)
(5.27178e-07 -3.26448e-07 0.101841)
(-5.24399e-07 -3.29237e-07 0.101841)
(4.03242e-05 4.03401e-05 0.101818)
(-3.73824e-07 -3.76148e-07 0.0999988)
(1.6865e-05 1.686e-05 0.100003)
(-4.66926e-07 1.38416e-05 0.1)
(1.38487e-05 -4.69207e-07 0.1)
(-4.69583e-05 5.70973e-06 0.100008)
(-1.56073e-05 1.58251e-05 0.0999998)
(-0.000128137 6.04623e-05 0.100057)
(-1.29378e-05 -8.39923e-07 0.0999959)
(5.70344e-06 -4.69437e-05 0.100008)
(1.58271e-05 -1.56072e-05 0.0999998)
(-8.38315e-07 -1.29368e-05 0.0999959)
(6.04766e-05 -0.000128067 0.100057)
(-1.90584e-05 -1.90622e-05 0.100003)
(-0.00013516 -8.1081e-05 0.100054)
(-8.10895e-05 -0.00013514 0.100054)
(-3.4963e-05 0.00013569 0.100718)
(0.000176597 0.000386702 0.0994275)
(2.45942e-06 0.000303319 0.10052)
(-8.27879e-05 0.000243822 0.0991302)
(-0.000302793 0.000835946 0.0977905)
(-0.000130972 0.000304866 0.0957019)
(0.00013543 -3.51055e-05 0.100718)
(0.000387315 0.000175558 0.0994282)
(0.000304065 2.32152e-06 0.100521)
(0.000243961 -8.269e-05 0.0991308)
(-0.000107556 0.000107507 0.1003)
(0.000107543 -0.000107552 0.1003)
(-0.000107534 -0.000107561 0.1003)
(9.28016e-05 9.27257e-05 0.100741)
(-9.27527e-05 9.27438e-05 0.100741)
(9.27823e-05 -9.27996e-05 0.100741)
(-9.27618e-05 -9.28093e-05 0.100741)
(-0.000280426 6.35538e-06 0.100752)
(-0.000395633 0.000228604 0.100532)
(-0.0001751 3.73047e-05 0.100332)
(-0.000151155 9.25184e-05 0.100559)
(-0.000357581 1.56594e-05 0.10048)
(-0.00015029 0.000198685 0.100731)
(-0.000150004 3.325e-05 0.100498)
(0.000834919 -0.000300926 0.0977894)
(0.000304843 -0.000130551 0.0957024)
(6.30507e-06 -0.000280338 0.100752)
(3.73393e-05 -0.000175085 0.100332)
(0.000228691 -0.000395605 0.100532)
(9.24826e-05 -0.000151152 0.100559)
(1.56579e-05 -0.000357457 0.10048)
(3.32966e-05 -0.000149979 0.100498)
(0.000198744 -0.000150302 0.100731)
(-0.000370511 -0.000139658 0.100375)
(-0.000139858 -0.000370759 0.100376)
(-0.000112557 -0.000112627 0.100656)
(1.07594e-05 -7.97942e-05 0.100574)
(-8.00574e-05 1.07701e-05 0.100574)
(-1.81418e-05 0.000203142 0.100867)
(-5.92146e-05 0.000283627 0.0983347)
(-1.98618e-05 0.000205698 0.100784)
(-4.23457e-05 0.000274772 0.0979319)
(-0.00014463 0.000304226 0.0926471)
(-0.000140938 0.000277453 0.0909721)
(0.000203053 -1.83075e-05 0.100867)
(0.0002839 -5.91075e-05 0.0983351)
(0.000205751 -2.00017e-05 0.100784)
(0.000274892 -4.22817e-05 0.0979322)
(-9.5652e-05 9.56647e-05 0.100863)
(9.57112e-05 -9.57023e-05 0.100863)
(-9.56885e-05 -9.57005e-05 0.100863)
(9.1648e-05 9.16375e-05 0.10123)
(-9.16243e-05 9.16517e-05 0.10123)
(9.16588e-05 -9.1658e-05 0.10123)
(-9.1655e-05 -9.16528e-05 0.10123)
(-0.000267794 1.3073e-05 0.101154)
(-0.000213741 0.000213277 0.100828)
(-0.000167143 3.18003e-05 0.100897)
(-0.00015352 9.30044e-05 0.101064)
(-0.000294583 1.41001e-05 0.100978)
(-0.000187855 0.000199138 0.100941)
(-0.000162755 3.21961e-05 0.101018)
(0.000304243 -0.000144387 0.0926462)
(0.000277518 -0.000140761 0.0909729)
(1.31463e-05 -0.000267775 0.101154)
(3.18796e-05 -0.000167145 0.100897)
(0.000213335 -0.000213803 0.100828)
(9.30014e-05 -0.000153523 0.101064)
(1.41913e-05 -0.00029454 0.100978)
(3.22627e-05 -0.000162755 0.101018)
(0.000199114 -0.000187811 0.10094)
(-7.74595e-05 -9.42466e-05 0.100457)
(-9.43529e-05 -7.74751e-05 0.100457)
(-0.000113651 -0.000113652 0.101146)
(-9.00149e-05 -8.54973e-05 0.100422)
(-8.56367e-05 -9.00533e-05 0.100422)
(-1.57992e-05 0.000215081 0.100967)
(-2.47505e-05 0.000293405 0.0971804)
(-1.05136e-05 0.000226029 0.100915)
(-1.40054e-05 0.000246101 0.0966921)
(-0.000130574 0.00024266 0.0884305)
(-7.44164e-05 0.000170233 0.0869814)
(0.000215034 -1.59221e-05 0.100967)
(0.000293545 -2.46859e-05 0.0971806)
(0.000226043 -1.06304e-05 0.100915)
(0.000246179 -1.3937e-05 0.0966923)
(-9.35369e-05 9.35778e-05 0.101369)
(9.35808e-05 -9.35744e-05 0.101369)
(-9.35726e-05 -9.35702e-05 0.101369)
(6.34526e-05 6.34135e-05 0.101701)
(-6.34345e-05 6.34297e-05 0.101701)
(6.3457e-05 -6.34607e-05 0.101701)
(-6.34512e-05 -6.34635e-05 0.101701)
(-0.000247157 8.95583e-06 0.101583)
(-0.0002215 0.000192138 0.101055)
(-0.000172091 3.2648e-05 0.101406)
(-0.000143824 8.48918e-05 0.101583)
(-0.000288651 1.22232e-05 0.101418)
(-0.000173745 0.000159086 0.101126)
(-0.00016118 3.06671e-05 0.101538)
(0.000242555 -0.000130345 0.0884288)
(0.000170295 -7.43375e-05 0.0869817)
(8.99985e-06 -0.000247143 0.101583)
(3.26855e-05 -0.000172102 0.101406)
(0.000192163 -0.000221544 0.101055)
(8.48976e-05 -0.000143827 0.101583)
(1.22796e-05 -0.000288658 0.101418)
(3.07036e-05 -0.000161183 0.101538)
(0.000159024 -0.000173708 0.101126)
(-0.000119916 -9.29496e-05 0.100219)
(-9.30413e-05 -0.000119978 0.100219)
(-9.64356e-05 -9.64419e-05 0.101649)
(-0.000106981 -6.06554e-05 0.100096)
(-6.07413e-05 -0.000107049 0.100095)
(-7.05737e-06 2.67993e-06 0.100826)
(-2.37295e-05 9.85855e-05 0.0961534)
(-1.4752e-05 6.88319e-05 0.100891)
(-1.72025e-05 2.36544e-05 0.0960959)
(-1.40113e-05 1.29104e-05 0.086096)
(-7.87216e-06 -8.96976e-06 0.0861256)
(2.64955e-06 -7.09027e-06 0.100826)
(9.8676e-05 -2.3713e-05 0.0961535)
(6.89311e-05 -1.48223e-05 0.100892)
(2.37317e-05 -1.71857e-05 0.0960957)
(-4.72742e-05 4.72558e-05 0.101761)
(4.72838e-05 -4.72929e-05 0.101761)
(-4.7284e-05 -4.72986e-05 0.101761)
(1.28158e-05 1.28022e-05 0.10184)
(-1.28131e-05 1.28033e-05 0.10184)
(1.28167e-05 -1.28203e-05 0.10184)
(-1.28178e-05 -1.2824e-05 0.10184)
(-1.80509e-05 1.96275e-06 0.101676)
(-6.5234e-05 4.50438e-05 0.101084)
(-7.10303e-05 1.65375e-05 0.101784)
(-4.19745e-05 2.68928e-05 0.101825)
(-0.000103412 3.10199e-06 0.10169)
(-7.04265e-06 8.0892e-06 0.101034)
(-4.68288e-05 1.19239e-05 0.101816)
(1.28362e-05 -1.38871e-05 0.086094)
(-8.91331e-06 -7.89039e-06 0.0861256)
(2.00369e-06 -1.80259e-05 0.101676)
(1.65712e-05 -7.10286e-05 0.101784)
(4.50893e-05 -6.52184e-05 0.101084)
(2.69102e-05 -4.19702e-05 0.101825)
(3.12189e-06 -0.000103384 0.10169)
(1.19554e-05 -4.68237e-05 0.101816)
(8.07794e-06 -6.97524e-06 0.101034)
(-1.72859e-05 1.48392e-06 0.0998482)
(1.47682e-06 -1.73208e-05 0.0998479)
(9.49976e-06 9.52379e-06 0.101828)
(2.341e-06 1.23534e-05 0.0997425)
(1.23415e-05 2.32839e-06 0.099742)
(-2.47594e-07 -7.56321e-06 0.100779)
(-1.52907e-06 7.13176e-06 0.0960849)
(-1.05078e-06 7.44519e-06 0.10078)
(-1.41298e-06 -5.97194e-06 0.096093)
(-4.42488e-06 1.68043e-07 0.0861606)
(5.04489e-07 -2.46242e-06 0.0861708)
(-7.6173e-06 -2.43521e-07 0.100779)
(7.11301e-06 -1.57462e-06 0.0960846)
(7.49027e-06 -1.0415e-06 0.10078)
(-5.94262e-06 -1.38121e-06 0.0960931)
(-7.20975e-06 7.20269e-06 0.101848)
(7.20975e-06 -7.21175e-06 0.101848)
(-7.21185e-06 -7.21533e-06 0.101848)
(6.59342e-07 6.65644e-07 0.101855)
(-6.68046e-07 6.70242e-07 0.101855)
(6.64707e-07 -6.63199e-07 0.101855)
(-6.68344e-07 -6.65778e-07 0.101855)
(1.09265e-05 1.26792e-07 0.10165)
(-1.48834e-05 5.55962e-06 0.100979)
(-9.95554e-06 2.7053e-06 0.101848)
(-5.10102e-06 3.89931e-06 0.101842)
(-1.73034e-05 4.3557e-07 0.101653)
(1.03176e-05 -3.0203e-06 0.100977)
(-5.50788e-06 1.3914e-06 0.10185)
(9.79271e-08 -4.35332e-06 0.0861584)
(-2.43935e-06 5.59017e-07 0.0861705)
(1.32298e-07 1.09333e-05 0.10165)
(2.71101e-06 -9.9555e-06 0.101848)
(5.60942e-06 -1.4913e-05 0.100979)
(3.89422e-06 -5.09917e-06 0.101842)
(4.37567e-07 -1.73085e-05 0.101653)
(1.39149e-06 -5.50329e-06 0.10185)
(-3.05013e-06 1.03472e-05 0.100977)
(-4.31534e-06 -4.33781e-06 0.0996592)
(-4.32558e-06 -4.30861e-06 0.0996588)
(3.77602e-05 3.77794e-05 0.101821)
(3.31523e-06 4.15388e-06 0.0996549)
(4.14701e-06 3.31022e-06 0.0996545)
(-1.67946e-10 -7.6736e-06 0.100777)
(7.38564e-07 5.92526e-06 0.0960862)
(-6.55377e-08 7.56745e-06 0.100773)
(-9.78042e-07 -5.86307e-06 0.0960928)
(-1.70992e-06 2.0347e-06 0.0861634)
(1.32872e-06 -1.95132e-06 0.0861709)
(-7.72571e-06 6.81083e-09 0.100777)
(5.88077e-06 7.0751e-07 0.0960855)
(7.61406e-06 -3.88336e-08 0.100773)
(-5.83448e-06 -9.33125e-07 0.0960931)
(-8.50544e-08 8.89178e-08 0.101855)
(8.17492e-08 -7.96496e-08 0.101855)
(-8.52489e-08 -8.1455e-08 0.101855)
(-4.43482e-07 -4.35547e-07 0.101856)
(4.38579e-07 -4.35117e-07 0.101856)
(-4.38898e-07 4.42589e-07 0.101856)
(4.36986e-07 4.40604e-07 0.101856)
(1.25439e-05 6.14848e-09 0.101648)
(-1.21028e-05 3.59198e-06 0.100968)
(-1.02046e-06 3.83417e-08 0.101852)
(-5.88455e-07 7.20419e-07 0.101841)
(-1.29854e-05 5.55321e-09 0.101646)
(1.14071e-05 -3.69987e-06 0.100974)
(-6.92414e-07 -6.39676e-08 0.101852)
(1.91454e-06 -1.60583e-06 0.0861613)
(-1.97297e-06 1.40323e-06 0.0861706)
(1.01028e-08 1.25494e-05 0.101647)
(2.98181e-08 -1.01912e-06 0.101852)
(3.61286e-06 -1.21421e-05 0.100968)
(7.0648e-07 -5.85389e-07 0.101841)
(-4.60705e-09 -1.29932e-05 0.101646)
(-7.32574e-08 -6.86526e-07 0.101852)
(-3.74074e-06 1.14405e-05 0.100974)
(-3.87019e-06 -4.6827e-06 0.0996449)
(-4.67315e-06 -3.8627e-06 0.0996445)
(4.02409e-05 4.02623e-05 0.101818)
(3.63388e-06 4.43432e-06 0.0996509)
(4.4248e-06 3.63024e-06 0.0996505)
(2.46892e-08 -7.68909e-06 0.100777)
(7.57123e-07 5.97794e-06 0.0960861)
(-2.55147e-08 7.51244e-06 0.100773)
(-9.35439e-07 -5.83199e-06 0.0960928)
(-1.586e-06 2.06987e-06 0.0861635)
(1.48324e-06 -2.06477e-06 0.0861708)
(-7.73857e-06 1.40698e-08 0.100777)
(5.93623e-06 7.22049e-07 0.0960855)
(7.56242e-06 -1.37791e-08 0.100773)
(-5.80606e-06 -9.26249e-07 0.0960931)
(4.73798e-07 -4.71513e-07 0.101856)
(-4.72283e-07 4.76116e-07 0.101856)
(4.71217e-07 4.74457e-07 0.101856)
(-4.98729e-07 -4.9287e-07 0.101856)
(5.00966e-07 -4.9683e-07 0.101856)
(-4.9714e-07 5.01583e-07 0.101856)
(4.96702e-07 4.98834e-07 0.101856)
(1.26153e-05 1.78526e-09 0.101647)
(-1.1916e-05 3.50818e-06 0.100968)
(-4.42578e-07 -1.43723e-07 0.101852)
(-3.41688e-07 5.41401e-07 0.101841)
(-1.27309e-05 -5.7462e-09 0.101646)
(1.14621e-05 -3.72214e-06 0.100974)
(-4.28326e-07 -1.48931e-07 0.101852)
(1.96178e-06 -1.51245e-06 0.0861613)
(-1.95796e-06 1.42909e-06 0.0861706)
(8.92237e-09 1.26227e-05 0.101647)
(-1.4842e-07 -4.41246e-07 0.101852)
(3.53569e-06 -1.19525e-05 0.100968)
(5.36305e-07 -3.40934e-07 0.101841)
(-1.46264e-08 -1.27373e-05 0.101646)
(-1.51901e-07 -4.22959e-07 0.101852)
(-3.75474e-06 1.1497e-05 0.100974)
(-3.81552e-06 -4.59567e-06 0.0996445)
(-4.58684e-06 -3.80873e-06 0.0996441)
(4.03365e-05 4.03557e-05 0.101818)
(3.64978e-06 4.46275e-06 0.0996508)
(4.45407e-06 3.64448e-06 0.0996504)
(1.75818e-08 -7.68773e-06 0.100777)
(7.52407e-07 5.98222e-06 0.0960861)
(-2.14321e-08 7.51474e-06 0.100773)
(-9.72403e-07 -5.83978e-06 0.0960929)
(-1.57433e-06 2.06569e-06 0.0861635)
(1.48336e-06 -2.06111e-06 0.0861707)
(-7.73753e-06 1.21825e-08 0.100777)
(5.93905e-06 7.20358e-07 0.0960855)
(7.56274e-06 -1.36486e-08 0.100773)
(-5.79899e-06 -9.29678e-07 0.0960931)
(5.01988e-07 -4.98687e-07 0.101856)
(-4.98518e-07 5.02826e-07 0.101856)
(4.9842e-07 5.00615e-07 0.101856)
(-5.04097e-07 -5.00402e-07 0.101856)
(5.03058e-07 -5.01186e-07 0.101856)
(-4.99707e-07 5.03271e-07 0.101856)
(4.99053e-07 5.00875e-07 0.101856)
(1.26163e-05 1.25104e-09 0.101647)
(-1.19115e-05 3.5076e-06 0.100968)
(-4.22665e-07 -1.50088e-07 0.101852)
(-3.36396e-07 5.35337e-07 0.101841)
(-1.2726e-05 -6.77496e-09 0.101646)
(1.14629e-05 -3.72283e-06 0.100974)
(-4.20816e-07 -1.50892e-07 0.101852)
(1.96352e-06 -1.50888e-06 0.0861613)
(-1.9576e-06 1.43004e-06 0.0861706)
(8.96617e-09 1.26239e-05 0.101647)
(-1.52653e-07 -4.2206e-07 0.101852)
(3.53601e-06 -1.19489e-05 0.100968)
(5.3123e-07 -3.35802e-07 0.101841)
(-1.34397e-08 -1.27339e-05 0.101646)
(-1.53292e-07 -4.16213e-07 0.101852)
(-3.75472e-06 1.14978e-05 0.100974)
(-3.81417e-06 -4.59147e-06 0.0996444)
(-4.58184e-06 -3.80835e-06 0.0996441)
(4.03387e-05 4.03571e-05 0.101818)
(3.65026e-06 4.46546e-06 0.0996508)
(4.45718e-06 3.64452e-06 0.0996504)
(1.79646e-08 -7.69137e-06 0.100777)
(7.52738e-07 5.97335e-06 0.0960861)
(-2.66622e-08 7.51335e-06 0.100773)
(-9.66351e-07 -5.83058e-06 0.0960929)
(-1.56877e-06 2.06066e-06 0.0861634)
(1.49209e-06 -2.07314e-06 0.0861707)
(-7.73983e-06 1.0977e-08 0.100777)
(5.93353e-06 7.15484e-07 0.0960855)
(7.56292e-06 -1.58406e-08 0.100773)
(-5.79285e-06 -9.25416e-07 0.0960932)
(5.03087e-07 -5.01348e-07 0.101856)
(-4.99877e-07 5.03346e-07 0.101856)
(4.99531e-07 5.01349e-07 0.101856)
(-5.03921e-07 -4.99669e-07 0.101856)
(5.04452e-07 -5.00878e-07 0.101856)
(-4.9972e-07 5.04284e-07 0.101856)
(4.99772e-07 5.01519e-07 0.101856)
(1.26181e-05 6.99021e-10 0.101647)
(-1.1912e-05 3.50756e-06 0.100968)
(-4.22642e-07 -1.51053e-07 0.101852)
(-3.36002e-07 5.34133e-07 0.101841)
(-1.27259e-05 -7.38572e-09 0.101646)
(1.14653e-05 -3.72564e-06 0.100974)
(-4.20225e-07 -1.51568e-07 0.101852)
(1.96417e-06 -1.50899e-06 0.0861613)
(-1.96006e-06 1.43058e-06 0.0861706)
(8.04452e-09 1.26279e-05 0.101647)
(-1.52833e-07 -4.21908e-07 0.101852)
(3.53594e-06 -1.19492e-05 0.100968)
(5.30392e-07 -3.3524e-07 0.101841)
(-1.1875e-08 -1.27368e-05 0.101646)
(-1.53315e-07 -4.15205e-07 0.101852)
(-3.75548e-06 1.14997e-05 0.100974)
(-3.81337e-06 -4.59238e-06 0.0996444)
(-4.58218e-06 -3.808e-06 0.0996441)
(4.03398e-05 4.03578e-05 0.101818)
(3.65118e-06 4.46592e-06 0.0996508)
(4.4584e-06 3.64533e-06 0.0996504)
(2.6813e-08 -7.68278e-06 0.100777)
(7.53129e-07 5.97626e-06 0.0960861)
(-2.28546e-08 7.51498e-06 0.100773)
(-9.6159e-07 -5.83052e-06 0.0960928)
(-1.57125e-06 2.07172e-06 0.0861636)
(1.48647e-06 -2.06281e-06 0.0861706)
(-7.73312e-06 1.49169e-08 0.100777)
(5.93418e-06 7.13291e-07 0.0960855)
(7.56517e-06 -1.34135e-08 0.100773)
(-5.78414e-06 -9.22439e-07 0.0960932)
(5.04114e-07 -4.99858e-07 0.101856)
(-4.99679e-07 5.04419e-07 0.101856)
(5.0014e-07 5.0206e-07 0.101856)
(-5.00081e-07 -4.92941e-07 0.101856)
(5.04897e-07 -4.96868e-07 0.101856)
(-4.98659e-07 5.04518e-07 0.101856)
(4.99633e-07 5.01714e-07 0.101856)
(1.2613e-05 1.50117e-09 0.101647)
(-1.19112e-05 3.50744e-06 0.100968)
(-4.2077e-07 -1.50429e-07 0.101852)
(-3.35038e-07 5.35386e-07 0.101841)
(-1.27266e-05 -7.32159e-09 0.101646)
(1.14549e-05 -3.71674e-06 0.100974)
(-4.18833e-07 -1.50848e-07 0.101852)
(1.97616e-06 -1.51657e-06 0.0861614)
(-1.96369e-06 1.43459e-06 0.0861705)
(8.36336e-09 1.26231e-05 0.101647)
(-1.52481e-07 -4.20251e-07 0.101852)
(3.53875e-06 -1.19504e-05 0.100968)
(5.30424e-07 -3.34577e-07 0.101841)
(-1.24141e-08 -1.27362e-05 0.101646)
(-1.52901e-07 -4.14284e-07 0.101852)
(-3.75121e-06 1.14931e-05 0.100974)
(-3.81295e-06 -4.59651e-06 0.0996445)
(-4.58628e-06 -3.80761e-06 0.0996441)
(4.03388e-05 4.03568e-05 0.101818)
(3.64387e-06 4.46258e-06 0.0996508)
(4.45489e-06 3.63782e-06 0.0996503)
(2.26635e-08 -7.67819e-06 0.100777)
(8.57011e-07 6.00892e-06 0.0960862)
(-9.38418e-09 7.51828e-06 0.100773)
(-9.92452e-07 -5.84234e-06 0.0960928)
(-1.57372e-06 2.07458e-06 0.0861636)
(1.4829e-06 -2.06127e-06 0.0861706)
(-7.73077e-06 1.32053e-08 0.100777)
(5.92927e-06 7.2423e-07 0.0960855)
(7.56589e-06 -1.17311e-08 0.100773)
(-5.78311e-06 -9.25604e-07 0.0960932)
(5.05302e-07 -4.97406e-07 0.101856)
(-4.98745e-07 5.04447e-07 0.101856)
(5.00171e-07 5.01697e-07 0.101856)
(-5.03715e-07 -5.01784e-07 0.101856)
(5.05055e-07 -4.98507e-07 0.101856)
(-4.99919e-07 5.04199e-07 0.101856)
(5.00553e-07 5.00853e-07 0.101856)
(1.26122e-05 3.57424e-10 0.101647)
(-1.19127e-05 3.50938e-06 0.100968)
(-4.21034e-07 -1.50073e-07 0.101852)
(-3.35624e-07 5.35443e-07 0.101841)
(-1.27264e-05 -7.03573e-09 0.101646)
(1.14537e-05 -3.71625e-06 0.100974)
(-4.18572e-07 -1.5068e-07 0.101852)
(1.97374e-06 -1.5161e-06 0.0861614)
(-1.95977e-06 1.43223e-06 0.0861705)
(8.27517e-09 1.26221e-05 0.101647)
(-1.52067e-07 -4.2139e-07 0.101852)
(3.53882e-06 -1.19508e-05 0.100968)
(5.30481e-07 -3.34507e-07 0.101841)
(-1.17932e-08 -1.27363e-05 0.101646)
(-1.52356e-07 -4.14143e-07 0.101852)
(-3.74988e-06 1.14923e-05 0.100974)
(-3.82055e-06 -4.59257e-06 0.0996445)
(-4.58235e-06 -3.81553e-06 0.0996441)
(4.03368e-05 4.0354e-05 0.101818)
(3.65296e-06 4.46248e-06 0.0996508)
(4.4548e-06 3.64666e-06 0.0996504)
(1.5867e-08 -7.68732e-06 0.100777)
(7.52651e-07 5.97741e-06 0.0960862)
(-2.41164e-08 7.50721e-06 0.100773)
(-9.61335e-07 -5.84839e-06 0.0960928)
(-1.54966e-06 2.04247e-06 0.0861635)
(1.47124e-06 -2.04877e-06 0.0861707)
(-7.73572e-06 9.10521e-09 0.100777)
(5.92171e-06 7.06287e-07 0.0960855)
(7.55938e-06 -1.5789e-08 0.100773)
(-5.78928e-06 -9.20204e-07 0.0960932)
(5.06163e-07 -4.98455e-07 0.101856)
(-4.99748e-07 5.03643e-07 0.101856)
(5.0048e-07 5.00351e-07 0.101856)
(-5.06443e-07 -5.07562e-07 0.101856)
(5.17672e-07 -4.98487e-07 0.101856)
(-5.03444e-07 5.08107e-07 0.101856)
(5.05825e-07 5.00887e-07 0.101856)
(1.26142e-05 -2.24535e-09 0.101647)
(-1.19041e-05 3.50602e-06 0.100968)
(-4.20575e-07 -1.52069e-07 0.101852)
(-3.35472e-07 5.31932e-07 0.101841)
(-1.27209e-05 -8.52086e-09 0.101646)
(1.14576e-05 -3.71742e-06 0.100974)
(-4.17934e-07 -1.53654e-07 0.101852)
(1.94015e-06 -1.49831e-06 0.0861614)
(-1.94783e-06 1.42436e-06 0.0861706)
(7.72841e-09 1.26236e-05 0.101647)
(-1.52115e-07 -4.19653e-07 0.101852)
(3.53375e-06 -1.19424e-05 0.100968)
(5.29172e-07 -3.33493e-07 0.101841)
(-1.17825e-08 -1.27307e-05 0.101646)
(-1.52927e-07 -4.1272e-07 0.101852)
(-3.75531e-06 1.14956e-05 0.100974)
(-3.80535e-06 -4.58896e-06 0.0996445)
(-4.57773e-06 -3.80062e-06 0.0996441)
(4.03334e-05 4.03497e-05 0.101818)
(3.65015e-06 4.46566e-06 0.0996508)
(4.45977e-06 3.64307e-06 0.0996504)
(1.90644e-05 1.9053e-05 0.100003)
(8.10666e-05 0.000135138 0.100054)
(0.000135198 8.10792e-05 0.100054)
(0.000414062 0.00104274 0.0978691)
(0.000115179 0.000204388 0.100125)
(0.00104183 0.000411431 0.0978692)
(0.000204535 0.000115206 0.100125)
(0.000101866 0.000101829 0.100042)
(0.000118613 0.000514332 0.100267)
(0.0005132 0.000118239 0.100267)
(0.000117188 0.00018011 0.100097)
(0.000180249 0.000117208 0.100097)
(5.707e-06 4.69274e-05 0.100008)
(1.5832e-05 1.56046e-05 0.0999998)
(6.04654e-05 0.000128073 0.100057)
(-8.36898e-07 1.29308e-05 0.0999959)
(-5.71898e-06 4.69365e-05 0.100008)
(-1.58301e-05 1.55997e-05 0.0999998)
(-6.04385e-05 0.000128061 0.100057)
(8.37197e-07 1.29313e-05 0.0999959)
(4.5999e-06 0.000154459 0.100054)
(0.000326903 0.000317048 0.0993443)
(9.83528e-05 0.000167518 0.100057)
(7.34792e-06 0.0003288 0.100415)
(-4.63913e-06 0.000154474 0.100054)
(-0.000326369 0.000317765 0.0993445)