/*--------------------------------*- C++ -*----------------------------------*\
| =========                 |                                                 |
| \\      /  F ield         | OpenFOAM: The Open Source CFD Toolbox           |
|  \\    /   O peration     | Version:  2206                                  |
|   \\  /    A nd           | Website:  www.openfoam.com                      |
|    \\/     M anipulation  |                                                 |
\*---------------------------------------------------------------------------*/
FoamFile
{
    version     2.0;
    format      ascii;
    arch        "LSB;label=32;scalar=64";
    class       volScalarField;
    location    "20";
    object      p;
}
// * * * * * * * * * * * * * * * * * * * * * * * * * * * * * * * * * * * * * //

dimensions      [0 2 -2 0 0 0 0];

internalField   nonuniform List<scalar> 
171728
(
0.00418225
0.00418256
0.00418257
0.00418562
0.00412685
0.00412729
0.00412729
0.00413031
0.00407609
0.00407609
0.00407609
0.00407891
0.00402406
0.00402386
0.00402385
0.00402645
0.00397597
0.00397584
0.00397583
0.00397834
0.00393139
0.00393134
0.00393134
0.00393396
0.0038872
0.00388716
0.00388716
0.00388976
0.00384305
0.00384302
0.00384302
0.00384561
0.00379891
0.00379888
0.00379888
0.00380147
0.00375477
0.00375474
0.00375474
0.00375733
0.00371063
0.0037106
0.0037106
0.00371319
0.00366648
0.00366645
0.00366645
0.00366905
0.00362233
0.0036223
0.0036223
0.0036249
0.00357819
0.00357816
0.00357816
0.00358075
0.00353404
0.00353401
0.00353401
0.00353661
0.0034899
0.00348987
0.00348987
0.00349246
0.00344574
0.00344571
0.00344571
0.0034483
0.00340158
0.00340155
0.00340155
0.00340414
0.00335743
0.0033574
0.0033574
0.00335999
0.00331328
0.00331324
0.00331325
0.00331584
0.00326913
0.0032691
0.0032691
0.00327169
0.00322498
0.00322495
0.00322495
0.00322754
0.00318083
0.0031808
0.0031808
0.00318339
0.00313668
0.00313665
0.00313665
0.00313924
0.00309253
0.0030925
0.0030925
0.0030951
0.00304838
0.00304835
0.00304835
0.00305095
0.00300423
0.0030042
0.0030042
0.0030068
0.00296008
0.00296005
0.00296005
0.00296264
0.00291593
0.0029159
0.0029159
0.00291849
0.00287178
0.00287175
0.00287175
0.00287434
0.00282762
0.00282759
0.00282759
0.00283019
0.00278347
0.00278344
0.00278344
0.00278604
0.00273932
0.00273929
0.00273929
0.00274189
0.00269517
0.00269514
0.00269514
0.00269774
0.00265101
0.00265098
0.00265097
0.00265357
0.00260684
0.00260681
0.00260681
0.00260941
0.00256269
0.00256265
0.00256266
0.00256525
0.00251853
0.0025185
0.0025185
0.00252109
0.00247437
0.00247434
0.00247434
0.00247694
0.00243022
0.00243019
0.00243019
0.00243278
0.00238606
0.00238603
0.00238603
0.00238863
0.00234191
0.00234188
0.00234188
0.00234447
0.00229775
0.00229772
0.00229772
0.00230032
0.0022536
0.00225357
0.00225357
0.00225616
0.00220944
0.00220941
0.00220941
0.002212
0.00216528
0.00216525
0.00216525
0.00216785
0.00212113
0.0021211
0.0021211
0.00212369
0.00207697
0.00207694
0.00207694
0.00207953
0.00203281
0.00203278
0.00203278
0.00203538
0.00198866
0.00198863
0.00198863
0.00199122
0.00194451
0.00194448
0.00194448
0.00194707
0.00190035
0.00190032
0.00190032
0.00190292
0.00185619
0.00185616
0.00185616
0.00185875
0.00181203
0.001812
0.001812
0.00181459
0.00176788
0.00176784
0.00176784
0.00177044
0.00172372
0.00172369
0.00172369
0.00172628
0.00167956
0.00167953
0.00167953
0.00168213
0.00163541
0.00163538
0.00163538
0.00163797
0.00159125
0.00159122
0.00159122
0.00159382
0.0015471
0.00154707
0.00154707
0.00154966
0.00150294
0.00150291
0.00150291
0.0015055
0.00145879
0.00145875
0.00145875
0.00146135
0.00141463
0.0014146
0.0014146
0.00141719
0.00137048
0.00137045
0.00137045
0.00137304
0.00132632
0.00132629
0.00132629
0.00132889
0.00128217
0.00128214
0.00128214
0.00128473
0.00123802
0.00123799
0.00123799
0.00124058
0.00119387
0.00119384
0.00119384
0.00119643
0.00114972
0.00114969
0.00114969
0.00115228
0.00110556
0.00110552
0.00110552
0.00110812
0.0010614
0.00106137
0.00106137
0.00106396
0.00101724
0.00101721
0.00101721
0.0010198
0.000973085
0.000973054
0.000973054
0.000975648
0.000928929
0.000928899
0.000928899
0.000931493
0.000884774
0.000884744
0.000884744
0.000887338
0.00084062
0.000840589
0.000840589
0.000843183
0.000796465
0.000796434
0.000796434
0.000799028
0.000752311
0.00075228
0.00075228
0.000754874
0.000708157
0.000708126
0.000708126
0.00071072
0.000664003
0.000663973
0.000663973
0.000666567
0.00061985
0.00061982
0.00061982
0.000622414
0.000575697
0.000575667
0.000575667
0.000578261
0.000531545
0.000531514
0.000531515
0.000534109
0.000487395
0.000487365
0.000487364
0.000489958
0.000443249
0.000443219
0.000443218
0.000445812
0.000399102
0.000399072
0.000399072
0.000401666
0.000354948
0.000354916
0.000354918
0.000357511
0.000310787
0.000310757
0.000310756
0.00031335
0.000266633
0.000266603
0.000266603
0.000269197
0.000222479
0.000222451
0.000222451
0.000225043
0.000178318
0.00017828
0.00017828
0.000180868
0.000134171
0.000134157
0.000134157
0.000136728
9.00013e-05
8.9956e-05
8.99562e-05
9.2495e-05
4.65161e-05
4.59454e-05
4.59424e-05
4.83496e-05
1.03416e-05
1.06578e-05
1.06559e-05
1.02366e-05
0.00419565
0.00419588
0.00419587
0.00419565
0.00419588
0.00419588
0.00419663
0.00419663
0.00419664
0.00419664
0.00419588
0.00419588
0.00419565
0.00419588
0.00419588
0.00419565
0.00418562
0.00413688
0.00418256
0.00418256
0.00413914
0.00413914
0.00418562
0.00413688
0.00418257
0.00418256
0.00413914
0.00413914
0.00418256
0.00413914
0.00413914
0.00418562
0.00413688
0.00418257
0.00413914
0.00413913
0.00413688
0.00413031
0.00408584
0.0041273
0.0041273
0.00408918
0.00408918
0.00413031
0.00408584
0.00412729
0.0041273
0.00408918
0.00408918
0.0041273
0.00408918
0.00408918
0.00413031
0.00408584
0.00412729
0.00408918
0.00408918
0.00408584
0.00407891
0.00403335
0.00407609
0.0040761
0.00403667
0.00403667
0.00407891
0.00403335
0.00407609
0.00407609
0.00403667
0.00403667
0.00407609
0.00403667
0.00403667
0.00407891
0.00403335
0.00407609
0.00403667
0.00403667
0.00403335
0.00402645
0.0039843
0.00402386
0.00402386
0.00398726
0.00398725
0.00402645
0.0039843
0.00402386
0.00402386
0.00398725
0.00398725
0.00402386
0.00398726
0.00398726
0.00402645
0.0039843
0.00402386
0.00398725
0.00398726
0.0039843
0.00397834
0.00393982
0.00397583
0.00397583
0.00394241
0.00394241
0.00397835
0.00393982
0.00397583
0.00397583
0.00394241
0.00394241
0.00397583
0.00394241
0.00394241
0.00397834
0.00393982
0.00397584
0.00394241
0.00394241
0.00393982
0.00393396
0.00389561
0.00393134
0.00393134
0.0038982
0.0038982
0.00393396
0.00389561
0.00393134
0.00393134
0.0038982
0.0038982
0.00393134
0.0038982
0.0038982
0.00393396
0.00389561
0.00393134
0.0038982
0.0038982
0.00389561
0.00388976
0.00385147
0.00388716
0.00388716
0.00385405
0.00385405
0.00388976
0.00385147
0.00388716
0.00388716
0.00385405
0.00385405
0.00388716
0.00385405
0.00385405
0.00388976
0.00385147
0.00388716
0.00385405
0.00385406
0.00385147
0.00384561
0.00380733
0.00384302
0.00384302
0.00380992
0.00380992
0.00384561
0.00380733
0.00384302
0.00384302
0.00380992
0.00380992
0.00384302
0.00380992
0.00380992
0.00384561
0.00380733
0.00384302
0.00380992
0.00380992
0.00380733
0.00380147
0.00376319
0.00379888
0.00379888
0.00376578
0.00376578
0.00380147
0.00376319
0.00379888
0.00379888
0.00376578
0.00376578
0.00379888
0.00376578
0.00376578
0.00380147
0.00376319
0.00379888
0.00376578
0.00376578
0.00376319
0.00375733
0.00371905
0.00375474
0.00375474
0.00372163
0.00372163
0.00375733
0.00371905
0.00375474
0.00375474
0.00372163
0.00372164
0.00375474
0.00372163
0.00372164
0.00375733
0.00371905
0.00375474
0.00372164
0.00372164
0.00371905
0.00371319
0.0036749
0.0037106
0.0037106
0.00367749
0.00367749
0.00371319
0.0036749
0.0037106
0.0037106
0.00367749
0.00367749
0.0037106
0.00367749
0.00367749
0.00371319
0.0036749
0.0037106
0.00367749
0.00367749
0.0036749
0.00366905
0.00363075
0.00366645
0.00366645
0.00363334
0.00363334
0.00366905
0.00363075
0.00366645
0.00366645
0.00363334
0.00363334
0.00366645
0.00363334
0.00363334
0.00366905
0.00363075
0.00366645
0.00363334
0.00363334
0.00363075
0.0036249
0.0035866
0.0036223
0.0036223
0.00358919
0.00358919
0.0036249
0.0035866
0.0036223
0.0036223
0.00358919
0.00358919
0.0036223
0.00358919
0.00358919
0.0036249
0.0035866
0.0036223
0.00358919
0.00358919
0.0035866
0.00358075
0.00354246
0.00357816
0.00357816
0.00354505
0.00354505
0.00358075
0.00354246
0.00357816
0.00357816
0.00354505
0.00354505
0.00357816
0.00354505
0.00354505
0.00358075
0.00354246
0.00357816
0.00354505
0.00354505
0.00354246
0.00353661
0.00349832
0.00353401
0.00353401
0.00350091
0.00350091
0.00353661
0.00349832
0.00353401
0.00353401
0.00350091
0.00350091
0.00353401
0.00350091
0.00350091
0.00353661
0.00349832
0.00353401
0.00350091
0.00350091
0.00349832
0.00349246
0.00345416
0.00348987
0.00348987
0.00345675
0.00345675
0.00349246
0.00345416
0.00348987
0.00348987
0.00345675
0.00345675
0.00348987
0.00345675
0.00345675
0.00349246
0.00345416
0.00348987
0.00345675
0.00345675
0.00345416
0.0034483
0.00341
0.00344571
0.00344571
0.00341259
0.00341259
0.0034483
0.00341
0.00344571
0.00344571
0.00341259
0.00341259
0.00344571
0.00341259
0.00341259
0.0034483
0.00341
0.00344571
0.00341259
0.00341259
0.00341
0.00340414
0.00336585
0.00340155
0.00340155
0.00336844
0.00336844
0.00340414
0.00336585
0.00340155
0.00340155
0.00336844
0.00336844
0.00340155
0.00336844
0.00336844
0.00340414
0.00336585
0.00340155
0.00336844
0.00336844
0.00336585
0.00335999
0.00332169
0.0033574
0.0033574
0.00332428
0.00332428
0.00335999
0.00332169
0.0033574
0.0033574
0.00332428
0.00332428
0.0033574
0.00332428
0.00332428
0.00335999
0.0033217
0.0033574
0.00332428
0.00332428
0.0033217
0.00331584
0.00327754
0.00331325
0.00331324
0.00328013
0.00328013
0.00331584
0.00327755
0.00331325
0.00331325
0.00328013
0.00328013
0.00331325
0.00328013
0.00328013
0.00331584
0.00327754
0.00331325
0.00328013
0.00328013
0.00327754
0.00327169
0.0032334
0.0032691
0.0032691
0.00323598
0.00323598
0.00327169
0.0032334
0.0032691
0.0032691
0.00323598
0.00323598
0.0032691
0.00323598
0.00323598
0.00327169
0.0032334
0.0032691
0.00323598
0.00323598
0.0032334
0.00322754
0.00318925
0.00322495
0.00322495
0.00319184
0.00319184
0.00322754
0.00318925
0.00322495
0.00322495
0.00319184
0.00319184
0.00322495
0.00319184
0.00319184
0.00322754
0.00318925
0.00322495
0.00319184
0.00319184
0.00318925
0.00318339
0.0031451
0.0031808
0.0031808
0.00314769
0.00314769
0.00318339
0.0031451
0.0031808
0.0031808
0.00314769
0.00314769
0.0031808
0.00314769
0.00314769
0.00318339
0.0031451
0.0031808
0.00314769
0.00314769
0.0031451
0.00313924
0.00310095
0.00313665
0.00313665
0.00310354
0.00310354
0.00313924
0.00310095
0.00313665
0.00313665
0.00310354
0.00310354
0.00313665
0.00310354
0.00310354
0.00313924
0.00310095
0.00313665
0.00310354
0.00310354
0.00310095
0.0030951
0.0030568
0.0030925
0.0030925
0.00305939
0.00305939
0.0030951
0.0030568
0.0030925
0.0030925
0.00305939
0.00305939
0.0030925
0.00305939
0.00305939
0.0030951
0.0030568
0.0030925
0.00305939
0.00305939
0.0030568
0.00305095
0.00301265
0.00304835
0.00304835
0.00301524
0.00301524
0.00305095
0.00301265
0.00304835
0.00304835
0.00301524
0.00301524
0.00304835
0.00301524
0.00301524
0.00305095
0.00301265
0.00304835
0.00301524
0.00301524
0.00301265
0.0030068
0.0029685
0.0030042
0.0030042
0.00297109
0.00297109
0.0030068
0.0029685
0.0030042
0.0030042
0.00297109
0.00297109
0.0030042
0.00297109
0.00297109
0.0030068
0.0029685
0.0030042
0.00297109
0.00297109
0.0029685
0.00296264
0.00292435
0.00296005
0.00296005
0.00292694
0.00292694
0.00296264
0.00292435
0.00296005
0.00296005
0.00292694
0.00292694
0.00296005
0.00292694
0.00292694
0.00296264
0.00292435
0.00296005
0.00292694
0.00292694
0.00292435
0.00291849
0.0028802
0.0029159
0.0029159
0.00288278
0.00288278
0.00291849
0.0028802
0.0029159
0.0029159
0.00288278
0.00288278
0.0029159
0.00288278
0.00288278
0.00291849
0.0028802
0.0029159
0.00288278
0.00288278
0.0028802
0.00287434
0.00283604
0.00287175
0.00287175
0.00283863
0.00283863
0.00287434
0.00283604
0.00287175
0.00287175
0.00283863
0.00283863
0.00287175
0.00283863
0.00283863
0.00287434
0.00283604
0.00287175
0.00283863
0.00283863
0.00283604
0.00283019
0.00279189
0.00282759
0.00282759
0.00279448
0.00279448
0.00283019
0.00279189
0.00282759
0.00282759
0.00279448
0.00279448
0.00282759
0.00279448
0.00279448
0.00283019
0.00279189
0.00282759
0.00279448
0.00279448
0.00279189
0.00278604
0.00274774
0.00278344
0.00278344
0.00275033
0.00275033
0.00278604
0.00274774
0.00278344
0.00278344
0.00275033
0.00275033
0.00278344
0.00275033
0.00275033
0.00278604
0.00274774
0.00278344
0.00275033
0.00275033
0.00274774
0.00274189
0.00270359
0.00273929
0.00273929
0.00270618
0.00270618
0.00274189
0.00270359
0.00273929
0.00273929
0.00270618
0.00270618
0.00273929
0.00270618
0.00270618
0.00274189
0.00270359
0.00273929
0.00270618
0.00270618
0.00270359
0.00269774
0.00265943
0.00269514
0.00269514
0.00266202
0.00266202
0.00269774
0.00265943
0.00269514
0.00269514
0.00266202
0.00266202
0.00269514
0.00266202
0.00266202
0.00269774
0.00265943
0.00269514
0.00266202
0.00266202
0.00265943
0.00265357
0.00261526
0.00265097
0.00265098
0.00261785
0.00261785
0.00265357
0.00261526
0.00265097
0.00265097
0.00261785
0.00261785
0.00265098
0.00261785
0.00261785
0.00265357
0.00261526
0.00265097
0.00261785
0.00261785
0.00261526
0.00260941
0.00257111
0.00260681
0.00260681
0.00257369
0.00257369
0.00260941
0.00257111
0.00260681
0.00260681
0.00257369
0.00257369
0.00260681
0.00257369
0.00257369
0.00260941
0.00257111
0.00260681
0.00257369
0.00257369
0.00257111
0.00256525
0.00252695
0.00256266
0.00256265
0.00252954
0.00252954
0.00256525
0.00252695
0.00256265
0.00256266
0.00252954
0.00252954
0.00256266
0.00252954
0.00252954
0.00256525
0.00252695
0.00256266
0.00252954
0.00252954
0.00252695
0.00252109
0.00248279
0.0025185
0.0025185
0.00248538
0.00248538
0.00252109
0.00248279
0.0025185
0.0025185
0.00248538
0.00248538
0.0025185
0.00248538
0.00248538
0.00252109
0.00248279
0.0025185
0.00248538
0.00248538
0.00248279
0.00247694
0.00243864
0.00247434
0.00247434
0.00244123
0.00244123
0.00247694
0.00243864
0.00247434
0.00247434
0.00244123
0.00244123
0.00247434
0.00244123
0.00244123
0.00247694
0.00243864
0.00247434
0.00244123
0.00244123
0.00243864
0.00243278
0.00239448
0.00243019
0.00243019
0.00239707
0.00239707
0.00243278
0.00239448
0.00243019
0.00243019
0.00239707
0.00239707
0.00243019
0.00239707
0.00239707
0.00243278
0.00239448
0.00243019
0.00239707
0.00239707
0.00239448
0.00238863
0.00235033
0.00238603
0.00238603
0.00235292
0.00235292
0.00238863
0.00235033
0.00238603
0.00238603
0.00235292
0.00235292
0.00238603
0.00235292
0.00235292
0.00238863
0.00235033
0.00238603
0.00235292
0.00235292
0.00235033
0.00234447
0.00230617
0.00234188
0.00234188
0.00230876
0.00230876
0.00234447
0.00230617
0.00234188
0.00234188
0.00230876
0.00230876
0.00234188
0.00230876
0.00230876
0.00234447
0.00230617
0.00234188
0.00230876
0.00230876
0.00230617
0.00230032
0.00226202
0.00229772
0.00229772
0.0022646
0.0022646
0.00230032
0.00226202
0.00229772
0.00229772
0.0022646
0.0022646
0.00229772
0.0022646
0.0022646
0.00230032
0.00226202
0.00229772
0.0022646
0.0022646
0.00226202
0.00225616
0.00221786
0.00225357
0.00225357
0.00222045
0.00222045
0.00225616
0.00221786
0.00225357
0.00225357
0.00222045
0.00222045
0.00225357
0.00222045
0.00222045
0.00225616
0.00221786
0.00225357
0.00222045
0.00222045
0.00221786
0.002212
0.0021737
0.00220941
0.00220941
0.00217629
0.00217629
0.002212
0.0021737
0.00220941
0.00220941
0.00217629
0.00217629
0.00220941
0.00217629
0.00217629
0.002212
0.0021737
0.00220941
0.00217629
0.00217629
0.0021737
0.00216785
0.00212955
0.00216525
0.00216525
0.00213214
0.00213214
0.00216785
0.00212955
0.00216525
0.00216525
0.00213214
0.00213214
0.00216525
0.00213214
0.00213214
0.00216785
0.00212955
0.00216525
0.00213214
0.00213214
0.00212955
0.00212369
0.00208539
0.0021211
0.0021211
0.00208798
0.00208798
0.00212369
0.00208539
0.0021211
0.0021211
0.00208798
0.00208798
0.0021211
0.00208798
0.00208798
0.00212369
0.00208539
0.0021211
0.00208798
0.00208798
0.00208539
0.00207953
0.00204123
0.00207694
0.00207694
0.00204382
0.00204382
0.00207953
0.00204123
0.00207694
0.00207694
0.00204382
0.00204382
0.00207694
0.00204382
0.00204382
0.00207953
0.00204123
0.00207694
0.00204382
0.00204382
0.00204123
0.00203538
0.00199708
0.00203278
0.00203278
0.00199967
0.00199967
0.00203538
0.00199708
0.00203278
0.00203278
0.00199967
0.00199967
0.00203278
0.00199967
0.00199967
0.00203538
0.00199708
0.00203278
0.00199967
0.00199967
0.00199708
0.00199122
0.00195293
0.00198863
0.00198863
0.00195552
0.00195552
0.00199122
0.00195293
0.00198863
0.00198863
0.00195552
0.00195552
0.00198863
0.00195552
0.00195552
0.00199122
0.00195293
0.00198863
0.00195552
0.00195552
0.00195293
0.00194707
0.00190878
0.00194448
0.00194448
0.00191136
0.00191136
0.00194707
0.00190878
0.00194448
0.00194448
0.00191136
0.00191136
0.00194448
0.00191136
0.00191136
0.00194707
0.00190878
0.00194448
0.00191136
0.00191136
0.00190878
0.00190292
0.00186461
0.00190032
0.00190032
0.0018672
0.0018672
0.00190292
0.00186461
0.00190032
0.00190032
0.0018672
0.0018672
0.00190032
0.0018672
0.0018672
0.00190292
0.00186461
0.00190032
0.0018672
0.0018672
0.00186461
0.00185875
0.00182045
0.00185616
0.00185616
0.00182304
0.00182304
0.00185875
0.00182045
0.00185616
0.00185616
0.00182304
0.00182304
0.00185616
0.00182304
0.00182304
0.00185875
0.00182045
0.00185616
0.00182304
0.00182304
0.00182045
0.00181459
0.00177629
0.001812
0.001812
0.00177888
0.00177888
0.00181459
0.00177629
0.001812
0.001812
0.00177888
0.00177888
0.001812
0.00177888
0.00177888
0.00181459
0.00177629
0.001812
0.00177888
0.00177888
0.00177629
0.00177044
0.00173214
0.00176784
0.00176784
0.00173473
0.00173473
0.00177044
0.00173214
0.00176784
0.00176784
0.00173473
0.00173473
0.00176784
0.00173473
0.00173473
0.00177044
0.00173214
0.00176784
0.00173473
0.00173473
0.00173214
0.00172628
0.00168798
0.00172369
0.00172369
0.00169057
0.00169057
0.00172628
0.00168798
0.00172369
0.00172369
0.00169057
0.00169057
0.00172369
0.00169057
0.00169057
0.00172628
0.00168798
0.00172369
0.00169057
0.00169057
0.00168798
0.00168213
0.00164383
0.00167953
0.00167953
0.00164642
0.00164642
0.00168213
0.00164383
0.00167953
0.00167953
0.00164642
0.00164642
0.00167953
0.00164642
0.00164642
0.00168213
0.00164383
0.00167953
0.00164642
0.00164642
0.00164383
0.00163797
0.00159967
0.00163538
0.00163538
0.00160226
0.00160226
0.00163797
0.00159967
0.00163538
0.00163538
0.00160226
0.00160226
0.00163538
0.00160226
0.00160226
0.00163797
0.00159967
0.00163538
0.00160226
0.00160226
0.00159967
0.00159382
0.00155552
0.00159122
0.00159122
0.00155811
0.00155811
0.00159382
0.00155552
0.00159122
0.00159122
0.00155811
0.00155811
0.00159122
0.00155811
0.00155811
0.00159382
0.00155552
0.00159122
0.00155811
0.00155811
0.00155552
0.00154966
0.00151136
0.00154707
0.00154707
0.00151395
0.00151395
0.00154966
0.00151136
0.00154707
0.00154707
0.00151395
0.00151395
0.00154707
0.00151395
0.00151395
0.00154966
0.00151136
0.00154707
0.00151395
0.00151395
0.00151136
0.0015055
0.0014672
0.00150291
0.00150291
0.00146979
0.00146979
0.0015055
0.0014672
0.00150291
0.00150291
0.00146979
0.00146979
0.00150291
0.00146979
0.00146979
0.0015055
0.0014672
0.00150291
0.00146979
0.00146979
0.0014672
0.00146135
0.00142305
0.00145875
0.00145875
0.00142564
0.00142564
0.00146135
0.00142305
0.00145875
0.00145875
0.00142564
0.00142564
0.00145875
0.00142564
0.00142564
0.00146135
0.00142305
0.00145875
0.00142564
0.00142564
0.00142305
0.00141719
0.0013789
0.0014146
0.0014146
0.00138148
0.00138148
0.00141719
0.0013789
0.0014146
0.0014146
0.00138148
0.00138148
0.0014146
0.00138148
0.00138148
0.00141719
0.0013789
0.0014146
0.00138148
0.00138148
0.0013789
0.00137304
0.00133474
0.00137045
0.00137045
0.00133733
0.00133733
0.00137304
0.00133474
0.00137045
0.00137045
0.00133733
0.00133733
0.00137045
0.00133733
0.00133733
0.00137304
0.00133474
0.00137045
0.00133733
0.00133733
0.00133474
0.00132889
0.00129059
0.00132629
0.00132629
0.00129318
0.00129318
0.00132889
0.00129059
0.00132629
0.00132629
0.00129318
0.00129318
0.00132629
0.00129318
0.00129318
0.00132889
0.00129059
0.00132629
0.00129318
0.00129318
0.00129059
0.00128473
0.00124644
0.00128214
0.00128214
0.00124902
0.00124902
0.00128473
0.00124644
0.00128214
0.00128214
0.00124902
0.00124902
0.00128214
0.00124902
0.00124902
0.00128473
0.00124644
0.00128214
0.00124902
0.00124902
0.00124644
0.00124058
0.00120229
0.00123799
0.00123799
0.00120487
0.00120487
0.00124058
0.00120229
0.00123799
0.00123799
0.00120487
0.00120487
0.00123799
0.00120487
0.00120487
0.00124058
0.00120229
0.00123799
0.00120487
0.00120487
0.00120229
0.00119643
0.00115814
0.00119384
0.00119384
0.00116073
0.00116073
0.00119643
0.00115814
0.00119384
0.00119384
0.00116073
0.00116073
0.00119384
0.00116073
0.00116073
0.00119643
0.00115814
0.00119384
0.00116073
0.00116073
0.00115814
0.00115228
0.00111398
0.00114969
0.00114969
0.00111657
0.00111657
0.00115228
0.00111398
0.00114969
0.00114969
0.00111657
0.00111657
0.00114969
0.00111657
0.00111657
0.00115228
0.00111397
0.00114969
0.00111656
0.00111656
0.00111397
0.00110812
0.00106982
0.00110553
0.00110552
0.0010724
0.0010724
0.00110812
0.00106982
0.00110552
0.00110552
0.0010724
0.00107241
0.00110552
0.0010724
0.00107241
0.00110812
0.00106982
0.00110552
0.00107241
0.00107241
0.00106982
0.00106396
0.00102566
0.00106137
0.00106137
0.00102825
0.00102825
0.00106396
0.00102566
0.00106137
0.00106137
0.00102825
0.00102825
0.00106137
0.00102825
0.00102825
0.00106396
0.00102566
0.00106137
0.00102825
0.00102825
0.00102566
0.0010198
0.000981504
0.00101721
0.00101721
0.000984093
0.000984093
0.0010198
0.000981504
0.00101721
0.00101721
0.000984093
0.000984093
0.00101721
0.000984093
0.000984093
0.0010198
0.000981504
0.00101721
0.000984093
0.000984093
0.000981504
0.000975648
0.000937349
0.000973054
0.000973054
0.000939938
0.000939937
0.000975648
0.000937349
0.000973054
0.000973054
0.000939937
0.000939937
0.000973054
0.000939938
0.000939938
0.000975648
0.000937349
0.000973054
0.000939938
0.000939937
0.000937349
0.000931493
0.000893194
0.000928899
0.000928899
0.000895782
0.000895782
0.000931493
0.000893194
0.000928899
0.000928899
0.000895782
0.000895782
0.000928899
0.000895782
0.000895783
0.000931493
0.000893194
0.000928899
0.000895782
0.000895782
0.000893194
0.000887338
0.000849039
0.000884744
0.000884744
0.000851628
0.000851627
0.000887338
0.000849039
0.000884744
0.000884744
0.000851627
0.000851628
0.000884744
0.000851628
0.000851628
0.000887338
0.000849039
0.000884744
0.000851628
0.000851628
0.000849039
0.000843183
0.000804884
0.000840589
0.000840589
0.000807473
0.000807473
0.000843183
0.000804884
0.000840589
0.000840589
0.000807473
0.000807473
0.000840589
0.000807473
0.000807473
0.000843183
0.000804884
0.000840589
0.000807473
0.000807473
0.000804884
0.000799028
0.00076073
0.000796434
0.000796434
0.000763319
0.000763319
0.000799028
0.00076073
0.000796434
0.000796434
0.000763319
0.000763319
0.000796435
0.000763319
0.000763319
0.000799028
0.00076073
0.000796434
0.000763319
0.000763319
0.00076073
0.000754874
0.000716576
0.00075228
0.00075228
0.000719165
0.000719165
0.000754874
0.000716576
0.00075228
0.00075228
0.000719165
0.000719165
0.000752281
0.000719165
0.000719165
0.000754874
0.000716576
0.00075228
0.000719165
0.000719165
0.000716576
0.00071072
0.000672422
0.000708126
0.000708126
0.000675011
0.000675011
0.00071072
0.000672423
0.000708126
0.000708126
0.000675011
0.000675011
0.000708127
0.000675011
0.000675011
0.00071072
0.000672422
0.000708126
0.000675011
0.000675011
0.000672422
0.000666567
0.000628269
0.000663973
0.000663973
0.000630858
0.000630858
0.000666567
0.000628269
0.000663973
0.000663973
0.000630858
0.000630858
0.000663973
0.000630858
0.000630858
0.000666567
0.000628269
0.000663973
0.000630858
0.000630858
0.000628269
0.000622413
0.000584116
0.00061982
0.000619819
0.000586705
0.000586705
0.000622413
0.000584116
0.000619819
0.000619819
0.000586705
0.000586705
0.00061982
0.000586705
0.000586705
0.000622413
0.000584116
0.00061982
0.000586705
0.000586705
0.000584116
0.000578261
0.000539964
0.000575667
0.000575667
0.000542553
0.000542552
0.000578261
0.000539964
0.000575667
0.000575667
0.000542553
0.000542553
0.000575667
0.000542553
0.000542553
0.000578261
0.000539964
0.000575667
0.000542553
0.000542553
0.000539964
0.000534109
0.000495813
0.000531515
0.000531514
0.000498401
0.000498401
0.000534108
0.000495813
0.000531515
0.000531515
0.000498401
0.000498401
0.000531515
0.000498401
0.000498401
0.000534109
0.000495813
0.000531515
0.000498401
0.000498401
0.000495813
0.000489958
0.000451667
0.000487364
0.000487364
0.000454255
0.000454255
0.000489958
0.000451667
0.000487364
0.000487364
0.000454255
0.000454255
0.000487364
0.000454255
0.000454255
0.000489958
0.000451667
0.000487364
0.000454255
0.000454255
0.000451667
0.000445812
0.000407521
0.000443219
0.000443218
0.00041011
0.00041011
0.000445812
0.000407522
0.000443218
0.000443218
0.000410109
0.000410108
0.000443219
0.00041011
0.00041011
0.000445812
0.000407521
0.000443219
0.000410108
0.00041011
0.000407521
0.000401666
0.000363369
0.000399073
0.000399072
0.000365958
0.000365957
0.000401666
0.000363367
0.000399072
0.000399072
0.000365958
0.000365958
0.000399073
0.000365958
0.000365958
0.000401666
0.00036337
0.000399073
0.000365958
0.000365958
0.000363368
0.000357512
0.000319206
0.000354918
0.000354916
0.000321795
0.000321795
0.000357509
0.000319207
0.000354918
0.000354918
0.000321795
0.000321796
0.000354917
0.000321795
0.000321796
0.000357513
0.000319206
0.000354917
0.000321796
0.000321795
0.000319206
0.00031335
0.000275052
0.000310756
0.000310757
0.000277641
0.000277641
0.00031335
0.000275053
0.000310756
0.000310756
0.000277641
0.000277641
0.000310757
0.000277641
0.000277641
0.00031335
0.000275052
0.000310756
0.000277641
0.000277641
0.000275053
0.000269197
0.000230899
0.000266603
0.000266603
0.000233489
0.000233488
0.000269197
0.0002309
0.000266603
0.000266603
0.000233488
0.000233488
0.000266603
0.000233489
0.000233489
0.000269197
0.000230899
0.000266603
0.000233488
0.000233489
0.000230899
0.000225043
0.000186739
0.000222451
0.000222451
0.000189328
0.000189328
0.000225043
0.00018674
0.000222451
0.000222451
0.000189327
0.000189328
0.000222451
0.000189328
0.000189328
0.000225043
0.000186739
0.000222451
0.000189328
0.000189328
0.00018674
0.000180867
0.000142598
0.00017828
0.000178281
0.000145179
0.00014518
0.000180868
0.000142598
0.00017828
0.00017828
0.000145179
0.00014518
0.000178281
0.00014518
0.00014518
0.000180867
0.000142598
0.000178281
0.000145179
0.00014518
0.000142598
0.000136728
9.84428e-05
0.000134157
0.000134157
0.000101007
0.000101008
0.000136728
9.84438e-05
0.000134157
0.000134157
0.000101006
0.000101006
0.000134157
0.000101007
0.000101007
0.000136728
9.84419e-05
0.000134157
0.000101006
0.000101006
9.84423e-05
9.24958e-05
5.43223e-05
8.99556e-05
8.99568e-05
5.68971e-05
5.68979e-05
9.24959e-05
5.43235e-05
8.99551e-05
8.9954e-05
5.68952e-05
5.68947e-05
8.99562e-05
5.68965e-05
5.68947e-05
9.24955e-05
5.43199e-05
8.9955e-05
5.6894e-05
5.68932e-05
5.43197e-05
4.83532e-05
1.41069e-05
4.59471e-05
4.59473e-05
1.63715e-05
1.63709e-05
4.83536e-05
1.41067e-05
4.59456e-05
4.59443e-05
1.63697e-05
1.63661e-05
4.59436e-05
1.63682e-05
1.63643e-05
4.835e-05
1.41026e-05
4.59417e-05
1.63664e-05
1.63657e-05
1.41012e-05
1.02405e-05
1.06592e-05
1.06594e-05
1.02415e-05
1.06577e-05
1.06554e-05
1.03413e-05
1.03395e-05
1.0339e-05
1.06543e-05
1.02379e-05
1.06549e-05
0.00420402
0.00421378
0.00420858
0.00420858
0.00423096
0.00421775
0.00424634
0.00421179
0.00423096
0.00421775
0.00421179
0.00424635
0.00422232
0.00425008
0.00425009
0.00415938
0.00417851
0.00418771
0.0041514
0.00415222
0.00415497
0.00415936
0.00417848
0.0041877
0.00415139
0.00418225
0.00418225
0.00418225
0.00413884
0.00413884
0.00413884
0.00413884
0.00415688
0.0041827
0.00418264
0.00416569
0.00418572
0.00415578
0.00416657
0.00415232
0.00415496
0.00415689
0.00418264
0.00418272
0.0041657
0.00418572
0.00416657
0.00415578
0.00418857
0.00418856
0.00416009
0.00415539
0.00415538
0.00411253
0.00413205
0.00413339
0.00411094
0.00413095
0.00411047
0.00411253
0.00413204
0.00413338
0.00411093
0.00412685
0.00412685
0.00412685
0.00408927
0.00408927
0.00408927
0.00408927
0.00411117
0.0041321
0.00412687
0.00411501
0.00413089
0.00411164
0.00411473
0.00413095
0.00411046
0.00411117
0.00412687
0.0041321
0.00411501
0.00413089
0.00411473
0.00411164
0.00413315
0.00413315
0.00411146
0.0041119
0.00411191
0.00406006
0.00407948
0.00408065
0.00405914
0.00407913
0.00405882
0.00406006
0.00407948
0.00408065
0.00405914
0.00407609
0.00407609
0.00407609
0.00403686
0.00403686
0.00403686
0.00403686
0.0040593
0.00407987
0.00407596
0.00406294
0.00407926
0.00405964
0.00406282
0.00407913
0.00405882
0.0040593
0.00407596
0.00407987
0.00406294
0.00407926
0.00406282
0.00405963
0.00408022
0.00408021
0.00405938
0.00405962
0.00405962
0.0040076
0.00402613
0.00402729
0.00400673
0.00402589
0.00400628
0.0040076
0.00402613
0.00402729
0.00400673
0.00402406
0.00402406
0.00402406
0.00398743
0.00398743
0.00398742
0.00398743
0.00400751
0.00402663
0.00402389
0.00401126
0.00402654
0.00400741
0.00401132
0.00402589
0.00400628
0.00400751
0.00402389
0.00402663
0.00401126
0.00402654
0.00401132
0.00400741
0.00402655
0.00402655
0.0040079
0.00400681
0.00400681
0.00396148
0.00397775
0.00397787
0.00396139
0.00397762
0.00396142
0.00396148
0.00397775
0.00397787
0.00396139
0.00397597
0.00397597
0.00397597
0.00394247
0.00394247
0.00394247
0.00394247
0.00396171
0.00397815
0.00397589
0.00396463
0.00397817
0.00396167
0.00396465
0.00397761
0.00396142
0.00396171
0.00397588
0.00397816
0.00396463
0.00397817
0.00396465
0.00396167
0.00397789
0.00397789
0.00396198
0.00396157
0.00396157
0.00391754
0.00393401
0.00393405
0.00391752
0.00393405
0.00391752
0.00391753
0.00393401
0.00393405
0.00391752
0.00393139
0.00393139
0.00393139
0.00389824
0.00389824
0.00389824
0.00389824
0.0039176
0.00393402
0.00393136
0.00392029
0.00393403
0.00391756
0.0039203
0.00393404
0.00391753
0.0039176
0.00393136
0.00393402
0.00392029
0.00393403
0.0039203
0.00391756