/*--------------------------------*- C++ -*----------------------------------*\
| =========                 |                                                 |
| \\      /  F ield         | OpenFOAM: The Open Source CFD Toolbox           |
|  \\    /   O peration     | Version:  2206                                  |
|   \\  /    A nd           | Website:  www.openfoam.com                      |
|    \\/     M anipulation  |                                                 |
\*---------------------------------------------------------------------------*/
FoamFile
{
    version     2.0;
    format      ascii;
    arch        "LSB;label=32;scalar=64";
    class       volScalarField;
    location    "11";
    object      epsilon;
}
// * * * * * * * * * * * * * * * * * * * * * * * * * * * * * * * * * * * * * //

dimensions      [0 2 -3 0 0 0 0];

internalField   nonuniform List<scalar> 
28673
(
4.15518e-07
4.28664e-07
4.0708e-07
4.15521e-07
4.15524e-07
4.28684e-07
4.07065e-07
4.15471e-07
4.15515e-07
4.28681e-07
4.06872e-07
4.15318e-07
4.15349e-07
4.28546e-07
4.06834e-07
4.15313e-07
4.15316e-07
4.28533e-07
4.06834e-07
4.15312e-07
4.15315e-07
4.28531e-07
4.06834e-07
4.15312e-07
4.15316e-07
4.28532e-07
4.06834e-07
4.15312e-07
4.15315e-07
4.28533e-07
4.06834e-07
4.15312e-07
4.15315e-07
4.28533e-07
4.06834e-07
4.15312e-07
4.15315e-07
4.28533e-07
4.06834e-07
4.1531e-07
4.15313e-07
4.2853e-07
4.06834e-07
4.15313e-07
4.15317e-07
4.28515e-07
4.06678e-07
4.12933e-07
4.12934e-07
4.25967e-07
4.15528e-07
4.2855e-07
4.15517e-07
4.28574e-07
4.15526e-07
4.15528e-07
4.15525e-07
4.15526e-07
4.28674e-07
4.28564e-07
4.15521e-07
4.15531e-07
4.15527e-07
4.15521e-07
4.15526e-07
4.28569e-07
4.15523e-07
4.15524e-07
4.15522e-07
4.28566e-07
4.28694e-07
4.28574e-07
4.1553e-07
4.15529e-07
4.15522e-07
4.15512e-07
4.28685e-07
4.28557e-07
4.15523e-07
4.15534e-07
4.15518e-07
4.15528e-07
4.1553e-07
4.15506e-07
4.15519e-07
4.2869e-07
4.28572e-07
4.15525e-07
4.15522e-07
4.15515e-07
4.28567e-07
4.28692e-07
4.28467e-07
4.1551e-07
4.15478e-07
4.15367e-07
4.15342e-07
4.28666e-07
4.28418e-07
4.15514e-07
4.15524e-07
4.15397e-07
4.15407e-07
4.15505e-07
4.15335e-07
4.15359e-07
4.28691e-07
4.28477e-07
4.155e-07
4.1539e-07
4.15355e-07
4.28442e-07
4.28572e-07
4.28404e-07
4.1534e-07
4.15328e-07
4.15319e-07
4.1532e-07
4.2853e-07
4.28411e-07
4.15355e-07
4.15365e-07
4.15315e-07
4.15325e-07
4.15336e-07
4.15313e-07
4.1532e-07
4.28581e-07
4.28409e-07
4.15331e-07
4.15316e-07
4.15316e-07
4.28412e-07
4.28527e-07
4.28414e-07
4.15322e-07
4.15324e-07
4.15319e-07
4.1532e-07
4.28534e-07
4.28408e-07
4.15318e-07
4.15327e-07
4.15315e-07
4.15325e-07
4.15324e-07
4.15312e-07
4.1532e-07
4.28531e-07
4.28419e-07
4.15319e-07
4.15316e-07
4.15316e-07
4.28414e-07
4.28533e-07
4.28414e-07
4.15322e-07
4.15323e-07
4.15319e-07
4.15321e-07
4.28529e-07
4.28409e-07
4.15318e-07
4.15328e-07
4.15315e-07
4.15325e-07
4.15323e-07
4.15312e-07
4.1532e-07
4.28537e-07
4.28418e-07
4.15319e-07
4.15316e-07
4.15316e-07
4.28416e-07
4.28533e-07
4.28413e-07
4.15322e-07
4.15323e-07
4.15319e-07
4.15321e-07
4.28529e-07
4.28409e-07
4.15318e-07
4.15328e-07
4.15315e-07
4.15325e-07
4.15323e-07
4.15312e-07
4.1532e-07
4.28538e-07
4.28417e-07
4.15319e-07
4.15315e-07
4.15316e-07
4.28416e-07
4.28533e-07
4.28413e-07
4.15322e-07
4.15323e-07
4.15319e-07
4.15321e-07
4.28529e-07
4.28409e-07
4.15318e-07
4.15328e-07
4.15315e-07
4.15325e-07
4.15323e-07
4.15312e-07
4.1532e-07
4.28536e-07
4.28417e-07
4.15319e-07
4.15316e-07
4.15316e-07
4.28416e-07
4.28533e-07
4.28413e-07
4.15322e-07
4.15323e-07
4.15319e-07
4.15321e-07
4.28529e-07
4.28409e-07
4.15318e-07
4.15328e-07
4.15315e-07
4.15325e-07
4.15323e-07
4.15312e-07
4.1532e-07
4.28536e-07
4.28417e-07
4.15319e-07
4.15315e-07
4.15316e-07
4.28416e-07
4.28533e-07
4.28412e-07
4.15322e-07
4.15323e-07
4.15318e-07
4.15319e-07
4.28529e-07
4.28408e-07
4.15317e-07
4.15328e-07
4.15313e-07
4.15324e-07
4.15323e-07
4.15311e-07
4.15319e-07
4.28536e-07
4.28417e-07
4.15319e-07
4.15315e-07
4.15314e-07
4.28415e-07
4.28531e-07
4.28398e-07
4.1532e-07
4.1532e-07
4.153e-07
4.15301e-07
4.28528e-07
4.28394e-07
4.15315e-07
4.15325e-07
4.15296e-07
4.15305e-07
4.15321e-07
4.15293e-07
4.15301e-07
4.28535e-07
4.28402e-07
4.15316e-07
4.15296e-07
4.15296e-07
4.28401e-07
4.28515e-07
4.27354e-07
4.15326e-07
4.15326e-07
4.13969e-07
4.13968e-07
4.28512e-07
4.27352e-07
4.15321e-07
4.15331e-07
4.13965e-07
4.13971e-07
4.15327e-07
4.13965e-07
4.13969e-07
4.28519e-07
4.27356e-07
4.15321e-07
4.13967e-07
4.13965e-07
4.27352e-07
4.2597e-07
4.12936e-07
4.12935e-07
4.25968e-07
4.12934e-07
4.12937e-07
4.06677e-07
4.06677e-07
4.06677e-07
4.12936e-07
4.25972e-07
4.12934e-07
1.3884e-06
7.10482e-06
1.38892e-06
7.1045e-06
2.41906e-05
2.41876e-05
1.3883e-06
7.10556e-06
4.07082e-07
4.07078e-07
4.0708e-07
4.0708e-07
4.0708e-07
4.07077e-07
5.7159e-07
1.14819e-06
4.09087e-07
4.15521e-07
5.71736e-07
1.14767e-06
4.09087e-07
2.41922e-05
5.71625e-07
4.09085e-07
4.15525e-07
5.71772e-07
4.09085e-07
1.1479e-06
2.31113e-06
2.31161e-06
4.2856e-07
2.31094e-06
2.31142e-06
1.38836e-06
7.1046e-06
1.38869e-06
7.10419e-06
2.41857e-05
2.41847e-05
1.38825e-06
7.10572e-06
1.38854e-06
7.10531e-06
4.0708e-07
4.0708e-07
4.07076e-07
4.07073e-07
4.07065e-07
4.07073e-07
4.07065e-07
5.71553e-07
1.14803e-06
4.09084e-07
4.15521e-07
5.7164e-07
1.14765e-06
4.09083e-07
2.41891e-05
2.41868e-05
5.71585e-07
4.09083e-07
1.14803e-06
4.15528e-07
5.71674e-07
4.09082e-07
1.14762e-06
2.31134e-06
2.31182e-06
4.28569e-07
2.31103e-06
2.31151e-06
1.38915e-06
7.10532e-06
1.38896e-06
7.10914e-06
2.41996e-05
2.42043e-05
1.38866e-06
7.10577e-06
1.38856e-06
7.10688e-06
4.07043e-07
4.07066e-07
4.07048e-07
4.06918e-07
4.06873e-07
4.06923e-07
4.06879e-07
5.71624e-07
1.14847e-06
4.09054e-07
4.15417e-07
5.71681e-07
1.14828e-06
4.09003e-07
2.41877e-05
2.41938e-05
5.71657e-07
4.0906e-07
1.14805e-06
4.15497e-07
5.71714e-07
4.09018e-07
1.14789e-06
2.31182e-06
2.31229e-06
4.2852e-07
2.31232e-06
2.31281e-06
1.38939e-06
7.11095e-06
1.3897e-06
7.11058e-06
2.42048e-05
2.42041e-05
1.38925e-06
7.11221e-06
1.38949e-06
7.11181e-06
4.0685e-07
4.06877e-07
4.06853e-07
4.06834e-07
4.06835e-07
4.06835e-07
4.06835e-07
5.71648e-07
1.14873e-06
4.08865e-07
4.15316e-07
5.71739e-07
1.14832e-06
4.08858e-07
2.42069e-05
2.42057e-05
5.71682e-07
4.0887e-07
1.14863e-06
4.1533e-07
5.71773e-07
4.0886e-07
1.14828e-06
2.3128e-06
2.31328e-06
4.28406e-07
2.31246e-06
2.31294e-06
1.38939e-06
7.11089e-06
1.3897e-06
7.11056e-06
2.42047e-05
2.42041e-05
1.38925e-06
7.11206e-06
1.38952e-06
7.11172e-06
4.06839e-07
4.06838e-07
4.06839e-07
4.06834e-07
4.06835e-07
4.06836e-07
4.06835e-07
5.71645e-07
1.14872e-06
4.08852e-07
4.15315e-07
5.71734e-07
1.14832e-06
4.08855e-07
2.42063e-05
2.42054e-05
5.71679e-07
4.08853e-07
1.14866e-06
4.15318e-07
5.7177e-07
4.08856e-07
1.14828e-06
2.31278e-06
2.31325e-06
4.2842e-07
2.31246e-06
2.31294e-06
1.38939e-06
7.11089e-06
1.3897e-06
7.11056e-06
2.42047e-05
2.42041e-05
1.38925e-06
7.11205e-06
1.38953e-06
7.11171e-06
4.06838e-07
4.06838e-07
4.06838e-07
4.06834e-07
4.06835e-07
4.06836e-07
4.06835e-07
5.71645e-07
1.14872e-06
4.08851e-07
4.15315e-07
5.71737e-07
1.14832e-06
4.08854e-07
2.42062e-05
2.42054e-05
5.7168e-07
4.08852e-07
1.14866e-06
4.15318e-07
5.71773e-07
4.08855e-07
1.14828e-06
2.31278e-06
2.31325e-06
4.28416e-07
2.31246e-06
2.31294e-06
1.38939e-06
7.11089e-06
1.3897e-06
7.11056e-06
2.42047e-05
2.42041e-05
1.38925e-06
7.11205e-06
1.38953e-06
7.11171e-06
4.06838e-07
4.06838e-07
4.06838e-07
4.06834e-07
4.06835e-07
4.06835e-07
4.06835e-07
5.71645e-07
1.14872e-06
4.08851e-07
4.15315e-07
5.71737e-07
1.14832e-06
4.08854e-07
2.42062e-05
2.42054e-05
5.71678e-07
4.08852e-07
1.14866e-06
4.15318e-07
5.71773e-07
4.08855e-07
1.14828e-06
2.31278e-06
2.31325e-06
4.28416e-07
2.31246e-06
2.31294e-06
1.38939e-06
7.11089e-06
1.3897e-06
7.11056e-06
2.42047e-05
2.42041e-05
1.38925e-06
7.11205e-06
1.38953e-06
7.11172e-06
4.06838e-07
4.06838e-07
4.06838e-07
4.06834e-07
4.06835e-07
4.06836e-07
4.06835e-07
5.71646e-07
1.14872e-06
4.08852e-07
4.15315e-07
5.71737e-07
1.14832e-06
4.08854e-07
2.42062e-05
2.42054e-05
5.7167e-07
4.08852e-07
1.14866e-06
4.15318e-07
5.71766e-07
4.08855e-07
1.14828e-06
2.31278e-06
2.31325e-06
4.28416e-07
2.31246e-06
2.31294e-06
1.38939e-06
7.11089e-06
1.3897e-06
7.11056e-06
2.42047e-05
2.42041e-05
1.38925e-06
7.11205e-06
1.38953e-06
7.11172e-06
4.06838e-07
4.06838e-07
4.06838e-07
4.06834e-07
4.06835e-07
4.06836e-07
4.06835e-07
5.71645e-07
1.14872e-06
4.08851e-07
4.15315e-07
5.71737e-07
1.14832e-06
4.08854e-07
2.42062e-05
2.42054e-05
5.71663e-07
4.08852e-07
1.14866e-06
4.15318e-07
5.71758e-07
4.08855e-07
1.14828e-06
2.31278e-06
2.31325e-06
4.28416e-07
2.31246e-06
2.31294e-06
1.38939e-06
7.11089e-06
1.3897e-06
7.11108e-06
2.42047e-05
2.42052e-05
1.38925e-06
7.11196e-06
1.38952e-06
7.11209e-06
4.06838e-07
4.06838e-07
4.06838e-07
4.06834e-07
4.06835e-07
4.06835e-07
4.06835e-07
5.71644e-07
1.14867e-06
4.08851e-07
4.15314e-07
5.71736e-07
1.14824e-06
4.08854e-07
2.42062e-05
2.42065e-05
5.7166e-07
4.08852e-07
1.14861e-06
4.15318e-07
5.71753e-07
4.08855e-07
1.1482e-06
2.31273e-06
2.3132e-06
4.28416e-07
2.31238e-06
2.31286e-06
1.3901e-06
7.10974e-06
1.39031e-06
7.111e-06
2.41982e-05
2.42032e-05
1.38996e-06
7.11083e-06
1.39012e-06
7.1121e-06
4.06838e-07
4.06838e-07
4.06838e-07
4.06834e-07
4.06832e-07
4.06833e-07
4.06833e-07
5.71645e-07
1.14851e-06
4.08851e-07
4.1531e-07
5.71733e-07
1.14931e-06
4.08853e-07
2.42005e-05
2.42055e-05
5.71665e-07
4.08851e-07
1.14854e-06
4.15313e-07
5.7175e-07
4.08854e-07
1.14938e-06
2.31319e-06
2.31365e-06
4.28412e-07
2.31767e-06
2.31813e-06
1.38863e-06
7.10363e-06
1.39164e-06
7.10759e-06
2.41559e-05
2.41574e-05
1.38861e-06
7.10483e-06
1.3915e-06
7.1087e-06
4.06838e-07
4.06838e-07
4.06838e-07
4.06799e-07
4.06799e-07
4.06799e-07
4.06798e-07
5.7099e-07
1.15022e-06
4.08837e-07
4.1519e-07
5.71725e-07
1.14742e-06
4.08851e-07
2.41586e-05
2.41599e-05
5.71003e-07
4.08838e-07
1.15031e-06
4.15193e-07
5.71743e-07
4.08851e-07
1.14745e-06
2.32189e-06
2.32232e-06
4.28226e-07
2.33191e-06
2.33218e-06
1.0403e-06
6.32113e-06
1.37331e-06
2.84147e-06
1.90293e-05
6.80075e-06
1.04032e-06
6.32278e-06
1.37338e-06
2.84201e-06
4.06017e-07
4.06135e-07
4.06135e-07
4.07088e-07
4.06016e-07
4.06197e-07
4.06197e-07
5.48793e-07
1.10263e-06
4.08394e-07
4.116e-07
5.63641e-07
1.1118e-06
4.07552e-07
1.90306e-05
6.80068e-06
5.48806e-07
4.08394e-07
1.1026e-06
4.116e-07
5.63648e-07
4.07552e-07
1.11177e-06
2.28695e-06
2.28759e-06
4.22863e-07
1.94875e-06
1.94877e-06
7.10492e-06
1.14789e-06
2.41909e-05
2.31111e-06
2.31081e-06
2.41877e-05
1.14786e-06
7.10476e-06
2.41926e-05
2.41879e-05
2.4192e-05
2.31103e-06
4.28568e-07
2.31085e-06
2.31112e-06
2.41851e-05
2.41876e-05
2.41885e-05
2.41916e-05
4.28692e-07
2.31092e-06
2.31132e-06
2.31109e-06
2.31144e-06
1.38839e-06
7.10499e-06
1.38892e-06
7.10472e-06
5.71597e-07
1.14841e-06
4.09084e-07
4.15526e-07
5.71736e-07
1.14768e-06
4.09084e-07
5.71593e-07
1.14818e-06
4.09086e-07
4.15528e-07
5.71735e-07
1.14771e-06
4.09086e-07
1.38866e-06
7.10434e-06
7.10451e-06
1.38838e-06
1.38865e-06
7.10456e-06
7.10473e-06
1.38838e-06
5.71672e-07
4.15525e-07
1.14759e-06
4.09083e-07
1.14799e-06
4.09083e-07
5.7155e-07
5.71668e-07
4.15526e-07
1.14767e-06
4.09084e-07
1.14804e-06
4.09085e-07
5.71547e-07
2.31147e-06
2.31125e-06
4.28562e-07
2.31137e-06
2.31108e-06
2.41877e-05
2.41842e-05
2.41856e-05
2.41874e-05
4.28683e-07
2.3114e-06
2.31117e-06
2.31161e-06
2.31144e-06
2.41823e-05
2.41842e-05
5.7163e-07
4.15522e-07
1.148e-06
4.09084e-07
1.38828e-06
7.10579e-06
5.71626e-07
4.15531e-07
4.09085e-07
1.14808e-06
1.38853e-06
7.10545e-06
7.10567e-06
1.38828e-06
5.71715e-07
4.15521e-07
1.14781e-06
4.09083e-07
1.14827e-06
4.09084e-07
5.71559e-07
1.38851e-06
7.10564e-06
7.1059e-06
1.38827e-06
5.71711e-07
4.15531e-07
4.09084e-07
1.14791e-06
4.09084e-07
1.14839e-06
5.71558e-07
1.3884e-06
7.10486e-06
1.38894e-06
7.10457e-06
5.71591e-07
4.09084e-07
1.14846e-06
4.15527e-07
5.71739e-07
4.09084e-07
1.14773e-06
1.3884e-06
7.10589e-06
1.38894e-06
7.10549e-06
5.71663e-07
4.15521e-07
1.14763e-06
4.09084e-07
1.14802e-06
4.09085e-07
5.71547e-07
1.38866e-06
7.10439e-06
7.10461e-06
1.38839e-06
5.71663e-07
4.15526e-07
4.09083e-07
1.14763e-06
4.09083e-07
1.14804e-06
5.71551e-07
1.38867e-06
7.10527e-06
7.10549e-06
1.38839e-06
4.28559e-07
2.3115e-06
2.31073e-06
2.4191e-05
2.41889e-05
2.41922e-05
4.28683e-07
2.31179e-06
2.31095e-06
2.31194e-06
2.31106e-06
2.41875e-05
2.41906e-05
5.71629e-07
4.09085e-07
1.14857e-06
4.15523e-07
5.71777e-07
4.09085e-07
1.14783e-06
1.38858e-06
1.38917e-06
7.10556e-06
1.38858e-06
7.10625e-06
1.38918e-06
7.10585e-06
5.71698e-07
4.15524e-07
4.09083e-07
1.14768e-06
4.09083e-07
1.14816e-06
5.71581e-07
5.71701e-07
4.15521e-07
4.09083e-07
1.14774e-06
4.09084e-07
1.14814e-06
5.71585e-07
1.38889e-06
7.10539e-06
7.10564e-06
1.38858e-06
1.38889e-06
7.10564e-06
7.10585e-06
1.38858e-06
2.41945e-05
2.41897e-05
2.41958e-05
2.4191e-05
4.28682e-07
2.31102e-06
2.3115e-06
2.3112e-06
2.31168e-06
2.41869e-05
2.41894e-05
2.41882e-05
2.41908e-05
2.41851e-05
2.41839e-05
2.41884e-05
2.41868e-05
2.31114e-06
2.31155e-06
4.28575e-07
2.31093e-06
2.31138e-06
2.4185e-05
2.4184e-05
2.41861e-05
2.41868e-05
4.28695e-07
2.31111e-06
2.31138e-06
2.31111e-06
2.31158e-06
1.38837e-06
7.10457e-06
1.38864e-06
7.10457e-06
5.71554e-07
1.14793e-06
4.09083e-07
4.15529e-07
5.71638e-07
1.14757e-06
4.09081e-07
5.71553e-07
1.14801e-06
4.09084e-07
4.15528e-07
5.71637e-07
1.14767e-06
4.09082e-07
1.38861e-06
7.10451e-06
7.10422e-06
1.38849e-06
1.38862e-06
7.10615e-06
7.10466e-06
1.38848e-06
5.71643e-07
4.15527e-07
1.14768e-06
4.09073e-07
1.14791e-06
4.09078e-07
5.71572e-07
5.71642e-07
4.15523e-07
1.14795e-06
4.09073e-07
1.14805e-06
4.09079e-07
5.71569e-07
2.31163e-06
2.31152e-06
4.28566e-07
2.31135e-06
2.31114e-06
2.41825e-05
2.41819e-05
2.41923e-05
2.4185e-05
4.28686e-07
2.31202e-06
2.31176e-06
2.31162e-06
2.3115e-06
2.41891e-05
2.41825e-05
5.71552e-07
1.14812e-06
4.09083e-07
4.15523e-07
5.71642e-07
1.14776e-06
4.09082e-07
1.38825e-06
7.10568e-06
1.38848e-06
7.10549e-06
5.71551e-07
4.09084e-07
1.14826e-06
4.15533e-07
5.71641e-07
4.09083e-07
1.14787e-06
1.38847e-06
7.10537e-06
7.10535e-06
1.38825e-06
5.71643e-07
4.1552e-07
1.14777e-06
4.09078e-07
1.14809e-06
4.0908e-07
5.7156e-07
1.38847e-06
7.10551e-06
7.10555e-06
1.38825e-06
5.71642e-07
4.1553e-07
4.09079e-07
1.14788e-06
4.0908e-07
1.14824e-06
5.7156e-07
1.38839e-06
7.10445e-06
1.38865e-06
7.10445e-06
5.71557e-07
4.09082e-07
1.14797e-06
4.15529e-07
5.71639e-07
4.09081e-07
1.14762e-06
1.38839e-06
7.10529e-06
1.38865e-06
7.10523e-06
5.7164e-07
4.15517e-07
1.14793e-06
4.09073e-07
1.14805e-06
4.0908e-07
5.71569e-07
1.38864e-06
7.10614e-06
7.10459e-06
1.3885e-06
5.71644e-07
4.15525e-07
4.09072e-07
1.14773e-06
4.09078e-07
1.14797e-06
5.71572e-07
1.38864e-06
7.1055e-06
7.10526e-06
1.3885e-06
2.31211e-06
2.31118e-06
4.28573e-07
2.31187e-06
2.311e-06
2.41874e-05
2.41857e-05
2.41864e-05
2.4187e-05
4.28693e-07
2.31184e-06
2.311e-06
2.31218e-06
2.31121e-06
2.41853e-05
2.41857e-05
5.7159e-07
4.09083e-07
1.14808e-06
4.15525e-07
5.71673e-07
4.09082e-07
1.14773e-06
1.38858e-06
7.10539e-06
1.38888e-06
7.10525e-06
1.38859e-06
7.10565e-06
1.38889e-06
7.1056e-06
5.71673e-07
4.15526e-07
4.09074e-07
1.14764e-06
4.0908e-07
1.14796e-06
5.71601e-07
5.71677e-07
4.15521e-07
4.09073e-07
1.14784e-06
4.09079e-07
1.14808e-06
5.71606e-07
1.38887e-06
7.10518e-06
7.10527e-06
1.38869e-06
1.38888e-06
7.10588e-06
7.10564e-06
1.3887e-06
2.41869e-05
2.41857e-05
2.41882e-05
2.41871e-05
4.28689e-07
2.31121e-06
2.31169e-06
2.31121e-06
2.31168e-06
2.41869e-05
2.41858e-05
2.41882e-05
2.41871e-05
2.41878e-05
2.42003e-05
2.41864e-05
2.41938e-05
2.3116e-06
2.31171e-06
4.28555e-07
2.31228e-06
2.31234e-06
2.4203e-05
2.4203e-05
2.42058e-05
2.42004e-05
4.28658e-07
2.31242e-06
2.31303e-06
2.31263e-06
2.31305e-06
1.38914e-06
7.10835e-06
1.38889e-06
7.11111e-06
5.71629e-07
1.14813e-06
4.09058e-07
4.15473e-07
5.71681e-07
1.14809e-06
4.0901e-07
5.71626e-07
1.14843e-06
4.09054e-07
4.15423e-07
5.71678e-07
1.14829e-06
4.09002e-07
1.38954e-06
7.11068e-06
7.11057e-06
1.38937e-06
1.38954e-06
7.11118e-06
7.11132e-06
1.38937e-06
5.71728e-07
4.15414e-07
1.14822e-06
4.08896e-07
1.1485e-06
4.08945e-07
5.71649e-07
5.71726e-07
4.15375e-07
1.14834e-06
4.08892e-07
1.14867e-06
4.08939e-07
5.71647e-07
2.31277e-06
2.31264e-06
4.28477e-07
2.31295e-06
2.3128e-06
2.41966e-05
2.42017e-05
2.42042e-05
2.42044e-05
4.28581e-07
2.31288e-06
2.31268e-06
2.31318e-06
2.31314e-06
2.42014e-05
2.42022e-05
5.71603e-07
1.14815e-06
4.09073e-07
4.155e-07
5.71652e-07
1.14807e-06
4.09058e-07
1.38866e-06
7.10562e-06
1.38851e-06
7.10693e-06
5.71603e-07
4.09074e-07
1.14829e-06
4.1551e-07
5.71655e-07
4.09058e-07
1.14816e-06
1.38909e-06
7.11179e-06
7.10891e-06
1.38918e-06
5.71709e-07
4.15456e-07
1.14838e-06
4.08944e-07
1.14853e-06
4.09009e-07
5.71644e-07
1.3891e-06
7.11205e-06
7.10904e-06
1.38921e-06
5.71711e-07
4.15466e-07
4.08944e-07
1.1485e-06
4.0901e-07
1.14867e-06
5.71645e-07
1.38915e-06
7.10827e-06
1.38891e-06
7.11099e-06
5.71628e-07
4.09057e-07
1.14818e-06
4.15461e-07
5.71679e-07
4.09008e-07
1.14812e-06
1.38916e-06
7.106e-06
1.38891e-06
7.10991e-06
5.71723e-07
4.15367e-07
1.14832e-06
4.08892e-07
1.14868e-06
4.08938e-07
5.71646e-07
1.38955e-06
7.11105e-06
7.11127e-06
1.38938e-06
5.71726e-07
4.15403e-07
4.08895e-07
1.14828e-06
4.08943e-07
1.14855e-06
5.7165e-07
1.38955e-06
7.11178e-06
7.11154e-06
1.38938e-06
2.31222e-06
2.31129e-06
4.28562e-07
2.3125e-06
2.31169e-06
2.41856e-05
2.41922e-05
2.42061e-05
2.42009e-05
4.28669e-07
2.31343e-06
2.31249e-06
2.31332e-06
2.31231e-06
2.42046e-05
2.41989e-05
5.71662e-07
4.09058e-07
1.14828e-06
4.15456e-07
5.71712e-07
4.0901e-07
1.14823e-06
1.38936e-06
7.10524e-06
1.38915e-06
7.10663e-06
1.38936e-06
7.10638e-06
1.38915e-06
7.11032e-06
5.71756e-07
4.15444e-07
4.08902e-07
1.14822e-06
4.08951e-07
1.14836e-06
5.71679e-07
5.7176e-07
4.15399e-07
4.08896e-07
1.14838e-06
4.08945e-07
1.14866e-06
5.71684e-07
1.38983e-06
7.11175e-06
7.10879e-06
1.3896e-06
1.38984e-06
7.11214e-06
7.11193e-06
1.38961e-06
2.41898e-05
2.42022e-05
2.41911e-05
2.42036e-05
4.2862e-07
2.31249e-06
2.31298e-06
2.3127e-06
2.31318e-06
2.42048e-05
2.42049e-05
2.42062e-05
2.42062e-05
2.4203e-05
2.42027e-05
2.4206e-05
2.42056e-05
2.31263e-06
2.31323e-06
4.28415e-07
2.31238e-06
2.31294e-06
2.42027e-05
2.42028e-05
2.42053e-05
2.42056e-05
4.28528e-07
2.31237e-06
2.31291e-06
2.3126e-06
2.31315e-06
1.38938e-06
7.1112e-06
1.38964e-06
7.11114e-06
5.71652e-07
1.14858e-06
4.0887e-07
4.15327e-07
5.71739e-07
1.14824e-06
4.08859e-07
5.7165e-07
1.14869e-06
4.08868e-07
4.15324e-07
5.71738e-07
1.14834e-06
4.08858e-07
1.38966e-06
7.1106e-06
7.11061e-06
1.38939e-06
1.38965e-06
7.11112e-06
7.11117e-06
1.38938e-06
5.7174e-07
4.15319e-07
1.14824e-06
4.08852e-07
1.14858e-06
4.08852e-07
5.71646e-07
5.71738e-07
4.1532e-07
1.14834e-06
4.08852e-07
1.14869e-06
4.08852e-07
5.71643e-07
2.31312e-06
2.31301e-06
4.284e-07
2.31286e-06
2.31263e-06
2.42017e-05
2.42012e-05
2.4204e-05
2.42042e-05
4.28521e-07
2.31285e-06
2.31264e-06
2.3131e-06
2.31296e-06
2.42012e-05
2.42016e-05
5.71652e-07
1.14875e-06
4.08896e-07
4.15332e-07
5.71734e-07
1.14843e-06
4.08871e-07
1.38927e-06
7.11237e-06
1.38947e-06
7.11215e-06
5.71654e-07
4.08897e-07
1.14891e-06
4.15342e-07
5.71737e-07
4.08872e-07
1.14856e-06
1.38947e-06
7.11175e-06
7.11184e-06
1.38925e-06
5.7174e-07
4.15317e-07
1.14843e-06
4.08852e-07
1.14878e-06
4.08855e-07
5.71645e-07
1.3895e-06
7.11206e-06
7.1122e-06
1.38927e-06
5.71742e-07
4.15328e-07
4.08853e-07
1.14856e-06
4.08856e-07
1.14893e-06
5.71649e-07
1.3894e-06
7.1111e-06
1.38966e-06
7.11099e-06
5.71652e-07
4.08869e-07
1.14863e-06
4.15326e-07
5.71738e-07
4.08859e-07
1.14829e-06
1.3894e-06
7.11179e-06
1.38966e-06
7.11169e-06
5.71735e-07
4.15314e-07
1.14832e-06
4.08852e-07
1.14869e-06
4.08854e-07
5.71644e-07
1.38967e-06
7.11097e-06
7.11105e-06
1.38939e-06
5.71739e-07
4.1532e-07
4.08852e-07
1.14829e-06
4.08852e-07
1.14864e-06
5.71647e-07
1.38967e-06
7.11165e-06
7.11171e-06
1.38939e-06
2.31375e-06
2.31272e-06
4.28422e-07
2.31336e-06
2.31247e-06
2.42048e-05
2.42045e-05
2.42054e-05
2.4206e-05
4.28534e-07
2.31332e-06
2.31245e-06
2.31366e-06
2.31269e-06
2.42043e-05
2.42045e-05
5.71688e-07
4.0887e-07
1.14874e-06
4.15322e-07
5.71773e-07
4.0886e-07
1.1484e-06
1.3896e-06
7.11199e-06
1.38991e-06
7.11185e-06
1.38961e-06
7.11216e-06
1.38992e-06
7.11206e-06
5.71769e-07
4.1532e-07
4.08853e-07
1.14828e-06
4.08855e-07
1.14863e-06
5.7168e-07
5.71775e-07
4.15316e-07
4.08853e-07
1.1484e-06
4.08853e-07
1.14875e-06
5.71685e-07
1.38991e-06
7.11179e-06
7.11187e-06
1.3896e-06
1.38992e-06
7.11201e-06
7.11208e-06
1.3896e-06
2.42049e-05
2.42046e-05
2.42063e-05
2.42059e-05
4.28525e-07
2.31246e-06
2.31294e-06
2.31269e-06
2.31317e-06
2.42045e-05
2.42047e-05
2.42058e-05
2.4206e-05
2.42028e-05
2.42026e-05
2.42055e-05
2.42053e-05
2.31259e-06
2.31314e-06
4.28417e-07
2.31237e-06
2.31291e-06
2.42026e-05
2.42028e-05
2.42053e-05
2.42054e-05
4.28538e-07
2.31237e-06
2.31291e-06
2.31259e-06
2.31313e-06
1.38938e-06
7.11115e-06
1.38964e-06
7.11113e-06
5.71649e-07
1.14859e-06
4.08856e-07
4.15322e-07
5.71733e-07
1.14824e-06
4.08856e-07
5.71646e-07
1.14869e-06
4.08856e-07
4.15324e-07
5.71732e-07
1.14834e-06
4.08856e-07
1.38966e-06
7.11059e-06
7.11059e-06
1.38938e-06
1.38965e-06
7.11112e-06
7.11116e-06
1.38938e-06
5.71739e-07
4.1532e-07
1.14824e-06
4.08852e-07
1.14858e-06
4.08853e-07
5.7165e-07
5.71737e-07
4.15321e-07
1.14834e-06
4.08852e-07
1.14869e-06
4.08853e-07
5.71648e-07
2.3131e-06
2.31298e-06
4.28413e-07
2.31286e-06
2.31264e-06
2.42016e-05
2.42012e-05
2.4204e-05
2.42042e-05
4.28531e-07
2.31285e-06
2.31263e-06
2.31309e-06
2.31298e-06
2.42012e-05
2.42016e-05
5.71643e-07
1.14878e-06
4.08855e-07
4.15317e-07
5.71732e-07
1.14844e-06
4.08855e-07
1.38927e-06
7.11212e-06
1.3895e-06
7.11203e-06
5.71646e-07
4.08856e-07
1.14893e-06
4.15327e-07
5.71735e-07
4.08856e-07
1.14856e-06
1.38948e-06
7.11174e-06
7.11176e-06
1.38925e-06
5.71733e-07
4.15316e-07
1.14843e-06
4.08852e-07
1.14878e-06
4.08853e-07
5.7165e-07
1.3895e-06
7.11203e-06
7.1121e-06
1.38927e-06
5.71736e-07
4.15326e-07
4.08854e-07
1.14856e-06
4.08855e-07
1.14893e-06
5.71652e-07
1.38939e-06
7.11104e-06
1.38966e-06
7.11097e-06
5.71649e-07
4.08856e-07
1.14864e-06
4.15324e-07
5.71734e-07
4.08856e-07
1.14829e-06
1.38939e-06
7.11167e-06
1.38966e-06
7.11163e-06
5.71733e-07
4.15314e-07
1.14832e-06
4.08851e-07
1.14869e-06
4.08854e-07
5.71647e-07
1.38966e-06
7.11097e-06
7.11104e-06
1.38939e-06
5.71737e-07
4.15321e-07
4.08852e-07
1.14829e-06
4.08853e-07
1.14864e-06
5.71651e-07
1.38966e-06
7.11163e-06
7.11166e-06
1.3894e-06
2.31363e-06
2.31268e-06
4.2842e-07
2.31332e-06
2.31245e-06
2.42044e-05
2.42042e-05
2.42054e-05
2.42058e-05
4.28541e-07
2.31331e-06
2.31245e-06
2.31363e-06
2.31267e-06
2.42042e-05
2.42043e-05
5.71683e-07
4.08857e-07
1.14875e-06
4.15319e-07
5.71772e-07
4.08857e-07
1.14839e-06
1.3896e-06
7.11181e-06
1.3899e-06
7.11177e-06
1.3896e-06
7.11204e-06
1.38991e-06
7.112e-06
5.71767e-07
4.15318e-07
4.08852e-07
1.14828e-06
4.08855e-07
1.14863e-06
5.71682e-07
5.7177e-07
4.15317e-07
4.08853e-07
1.1484e-06
4.08854e-07
1.14875e-06
5.71687e-07
1.38991e-06
7.11176e-06
7.1118e-06
1.3896e-06
1.38992e-06
7.112e-06
7.11203e-06
1.3896e-06
2.42046e-05
2.42045e-05
2.4206e-05
2.42058e-05
4.28539e-07
2.31246e-06
2.31294e-06
2.31269e-06
2.31316e-06
2.42045e-05
2.42046e-05
2.42058e-05
2.4206e-05
2.42028e-05
2.42026e-05
2.42054e-05
2.42053e-05
2.31259e-06
2.31314e-06
4.28413e-07
2.31237e-06
2.31291e-06
2.42026e-05
2.42028e-05
2.42053e-05
2.42054e-05
4.28534e-07
2.31237e-06
2.31291e-06
2.31259e-06
2.31313e-06
1.38938e-06
7.11115e-06
1.38964e-06
7.11112e-06
5.71646e-07
1.14859e-06
4.08855e-07
4.15322e-07
5.71737e-07
1.14824e-06
4.08855e-07
5.71643e-07
1.14869e-06
4.08855e-07
4.15323e-07
5.71736e-07
1.14834e-06
4.08855e-07
1.38966e-06
7.11059e-06
7.11059e-06
1.38939e-06
1.38965e-06
7.11112e-06
7.11116e-06
1.38938e-06
5.71736e-07
4.1532e-07
1.14824e-06
4.08852e-07
1.14858e-06
4.08853e-07
5.71651e-07
5.71734e-07
4.15321e-07
1.14834e-06
4.08852e-07
1.14869e-06
4.08853e-07
5.71648e-07
2.3131e-06
2.31297e-06
4.28412e-07
2.31286e-06
2.31264e-06
2.42016e-05
2.42012e-05
2.4204e-05
2.42041e-05
4.28532e-07
2.31285e-06
2.31264e-06
2.31309e-06
2.31298e-06
2.42012e-05
2.42016e-05
5.71644e-07
1.14878e-06
4.08855e-07
4.15318e-07
5.71737e-07
1.14844e-06
4.08855e-07
1.38927e-06
7.1121e-06
1.38949e-06
7.11203e-06
5.71646e-07
4.08856e-07
1.14893e-06
4.15328e-07
5.7174e-07
4.08856e-07
1.14856e-06
1.38948e-06
7.11173e-06
7.11176e-06
1.38925e-06
5.71732e-07
4.15315e-07
1.14843e-06
4.08852e-07
1.14878e-06
4.08852e-07
5.71648e-07
1.3895e-06
7.11203e-06
7.1121e-06
1.38927e-06
5.71734e-07
4.15325e-07
4.08853e-07
1.14856e-06
4.08854e-07
1.14893e-06
5.71651e-07
1.3894e-06
7.11104e-06
1.38966e-06
7.11097e-06
5.71648e-07
4.08855e-07
1.14864e-06
4.15323e-07
5.71738e-07
4.08855e-07
1.14829e-06
1.3894e-06
7.11167e-06
1.38966e-06
7.11164e-06
5.71733e-07
4.15314e-07
1.14832e-06
4.08851e-07
1.14869e-06
4.08854e-07
5.71646e-07
1.38967e-06
7.11097e-06
7.11104e-06
1.3894e-06
5.71735e-07
4.15321e-07
4.08853e-07
1.14829e-06
4.08853e-07
1.14864e-06
5.7165e-07
1.38967e-06
7.11164e-06
7.11167e-06
1.3894e-06
2.31363e-06
2.31268e-06
4.28418e-07
2.31332e-06
2.31245e-06
2.42044e-05
2.42042e-05
2.42054e-05
2.42058e-05
4.28538e-07
2.31331e-06
2.31245e-06
2.31363e-06
2.31267e-06
2.42042e-05
2.42043e-05
5.71684e-07
4.08856e-07
1.14875e-06
4.15319e-07
5.71775e-07
4.08856e-07
1.14839e-06
1.3896e-06
7.11179e-06
1.38991e-06
7.11176e-06
1.3896e-06
7.11203e-06
1.38991e-06
7.112e-06
5.71767e-07
4.15318e-07
4.08852e-07
1.14828e-06
4.08854e-07
1.14863e-06
5.71681e-07
5.7177e-07
4.15317e-07
4.08853e-07
1.1484e-06
4.08854e-07
1.14875e-06
5.71686e-07
1.38991e-06
7.11176e-06
7.11179e-06
1.38961e-06
1.38992e-06
7.11201e-06
7.11204e-06
1.3896e-06
2.42046e-05
2.42045e-05
2.4206e-05
2.42058e-05
4.28537e-07
2.31246e-06
2.31294e-06
2.31269e-06
2.31316e-06
2.42045e-05
2.42046e-05
2.42058e-05
2.4206e-05
2.42028e-05
2.42026e-05
2.42054e-05
2.42052e-05
2.31259e-06
2.31313e-06
4.28414e-07
2.31237e-06
2.31291e-06
2.42027e-05
2.42028e-05
2.42053e-05
2.42054e-05
4.28535e-07
2.31237e-06
2.31291e-06
2.31259e-06
2.31313e-06
1.38938e-06
7.11115e-06
1.38965e-06
7.11112e-06
5.71646e-07
1.14859e-06
4.08855e-07
4.15322e-07
5.71738e-07
1.14824e-06
4.08855e-07
5.71645e-07
1.14869e-06
4.08855e-07
4.15323e-07
5.71737e-07
1.14834e-06
4.08855e-07
1.38966e-06
7.11059e-06
7.11059e-06
1.38939e-06
1.38965e-06
7.11112e-06
7.11115e-06
1.38938e-06
5.71736e-07
4.1532e-07
1.14824e-06
4.08853e-07
1.14858e-06
4.08853e-07
5.71651e-07
5.71734e-07
4.15321e-07
1.14834e-06
4.08852e-07
1.14869e-06
4.08853e-07
5.71647e-07
2.3131e-06
2.31297e-06
4.28411e-07
2.31286e-06
2.31264e-06
2.42016e-05
2.42012e-05
2.4204e-05
2.42041e-05
4.28531e-07
2.31285e-06
2.31264e-06
2.31309e-06
2.31298e-06
2.42012e-05
2.42016e-05
5.71645e-07
1.14878e-06
4.08855e-07
4.15318e-07
5.71736e-07
1.14844e-06
4.08855e-07
1.38927e-06
7.1121e-06
1.38949e-06
7.11203e-06
5.71648e-07
4.08856e-07
1.14893e-06
4.15328e-07
5.71739e-07
4.08856e-07
1.14856e-06
1.38948e-06
7.11174e-06
7.11176e-06
1.38925e-06
5.71733e-07
4.15315e-07
1.14843e-06
4.08852e-07
1.14878e-06
4.08852e-07
5.71648e-07
1.3895e-06
7.11203e-06
7.1121e-06
1.38927e-06
5.71735e-07
4.15326e-07
4.08853e-07
1.14856e-06
4.08854e-07
1.14893e-06
5.7165e-07
1.3894e-06
7.11104e-06
1.38966e-06
7.11097e-06
5.7165e-07
4.08855e-07
1.14864e-06
4.15323e-07
5.71737e-07
4.08855e-07
1.14829e-06
1.3894e-06
7.11167e-06
1.38966e-06
7.11164e-06
5.71732e-07
4.15314e-07
1.14832e-06
4.08852e-07
1.14869e-06
4.08854e-07
5.71645e-07
1.38967e-06
7.11097e-06
7.11104e-06
1.3894e-06
5.71736e-07
4.15321e-07
4.08853e-07
1.14829e-06
4.08853e-07
1.14864e-06
5.71649e-07
1.38967e-06
7.11164e-06
7.11167e-06
1.3894e-06
2.31363e-06
2.31268e-06
4.28419e-07
2.31332e-06
2.31245e-06
2.42044e-05
2.42042e-05
2.42054e-05
2.42058e-05
4.28539e-07
2.31331e-06
2.31245e-06
2.31363e-06
2.31267e-06
2.42042e-05
2.42043e-05
5.71684e-07
4.08856e-07
1.14875e-06
4.15319e-07
5.71775e-07
4.08856e-07
1.14839e-06
1.38957e-06
7.11179e-06
1.38984e-06
7.11176e-06
1.3896e-06
7.11204e-06
1.38991e-06
7.112e-06
5.71764e-07
4.15318e-07
4.08852e-07
1.14828e-06
4.08854e-07
1.14863e-06
5.71675e-07
5.7177e-07
4.15317e-07
4.08853e-07
1.1484e-06
4.08854e-07
1.14875e-06
5.71685e-07
1.38981e-06
7.11176e-06
7.11179e-06
1.3895e-06
1.38991e-06
7.112e-06
7.11204e-06
1.3896e-06
2.42046e-05
2.42045e-05
2.4206e-05
2.42058e-05
4.28537e-07
2.31246e-06
2.31294e-06
2.31269e-06
2.31316e-06
2.42045e-05
2.42046e-05
2.42058e-05
2.4206e-05
2.42028e-05
2.42026e-05
2.42054e-05
2.42053e-05
2.3126e-06
2.31314e-06
4.28415e-07
2.31237e-06
2.31291e-06
2.42027e-05
2.42028e-05
2.42053e-05
2.42054e-05
4.28535e-07
2.31237e-06
2.31291e-06
2.31259e-06
2.31313e-06
1.38938e-06
7.11115e-06
1.38965e-06
7.11112e-06
5.71646e-07
1.14859e-06
4.08855e-07
4.15322e-07
5.71739e-07
1.14824e-06
4.08855e-07
5.71645e-07
1.14869e-06
4.08855e-07
4.15323e-07
5.71736e-07
1.14834e-06
4.08855e-07
1.38966e-06
7.11059e-06
7.11059e-06
1.38939e-06
1.38965e-06
7.11112e-06
7.11115e-06
1.38938e-06
5.71735e-07
4.1532e-07
1.14824e-06
4.08852e-07
1.14858e-06
4.08853e-07
5.71651e-07
5.71734e-07
4.15321e-07
1.14834e-06
4.08852e-07
1.14869e-06
4.08853e-07
5.71647e-07
2.3131e-06
2.31297e-06
4.28411e-07
2.31286e-06
2.31264e-06
2.42016e-05
2.42012e-05
2.4204e-05
2.42041e-05
4.28532e-07
2.31285e-06
2.31264e-06
2.31309e-06
2.31297e-06
2.42012e-05
2.42016e-05
5.71645e-07
1.14878e-06
4.08855e-07
4.15318e-07
5.71736e-07
1.14844e-06
4.08855e-07
1.38927e-06
7.1121e-06
1.38949e-06
7.11204e-06
5.71648e-07
4.08856e-07
1.14893e-06
4.15328e-07
5.71739e-07
4.08856e-07
1.14856e-06
1.38948e-06
7.11174e-06
7.11176e-06
1.38925e-06
5.71733e-07
4.15316e-07
1.14843e-06
4.08852e-07
1.14878e-06
4.08852e-07
5.71648e-07
1.38949e-06
7.11203e-06
7.11211e-06
1.38927e-06
5.71736e-07
4.15326e-07
4.08853e-07
1.14856e-06
4.08854e-07
1.14893e-06
5.71649e-07
1.3894e-06
7.11104e-06
1.38966e-06
7.11097e-06
5.7165e-07
4.08855e-07
1.14864e-06
4.15323e-07
5.71736e-07
4.08855e-07
1.14829e-06
1.3894e-06
7.11167e-06
1.38966e-06
7.11164e-06
5.71733e-07