/*--------------------------------*- C++ -*----------------------------------*\
| =========                 |                                                 |
| \\      /  F ield         | OpenFOAM: The Open Source CFD Toolbox           |
|  \\    /   O peration     | Version:  2206                                  |
|   \\  /    A nd           | Website:  www.openfoam.com                      |
|    \\/     M anipulation  |                                                 |
\*---------------------------------------------------------------------------*/
FoamFile
{
    version     2.0;
    format      ascii;
    arch        "LSB;label=32;scalar=64";
    class       volScalarField;
    location    "11";
    object      p;
}
// * * * * * * * * * * * * * * * * * * * * * * * * * * * * * * * * * * * * * //

dimensions      [0 2 -2 0 0 0 0];

internalField   nonuniform List<scalar> 
28673
(
0.000554243
0.000556924
0.000508296
0.000508274
0.00050827
0.000510953
0.000462324
0.0004623
0.000462299
0.000464981
0.000416338
0.000416312
0.000416313
0.000418993
0.000370356
0.000370331
0.000370331
0.000373012
0.000324375
0.00032435
0.00032435
0.000327031
0.000278393
0.000278369
0.000278368
0.000281049
0.000232412
0.000232388
0.000232388
0.000235068
0.000186432
0.000186407
0.000186407
0.000189088
0.000140447
0.000140432
0.000140432
0.000143103
9.44576e-05
9.43924e-05
9.43907e-05
9.7029e-05
4.91393e-05
4.86072e-05
4.86034e-05
5.11269e-05
1.13226e-05
1.17514e-05
1.17494e-05
1.1378e-05
0.000565737
0.000563062
0.000565738
0.000517088
0.000554243
0.000554243
0.000519763
0.000519764
0.000556923
0.00051709
0.000519762
0.000519762
0.000554243
0.000519764
0.000519763
0.000517087
0.000554243
0.000519762
0.000519763
0.000517089
0.000510952
0.000471119
0.000508272
0.000508274
0.000473793
0.000473795
0.000510953
0.000471118
0.00050827
0.00050827
0.000473793
0.000473792
0.000508273
0.000473795
0.000473793
0.000510951
0.000471119
0.000508272
0.000473793
0.000473793
0.000471119
0.000464981
0.000425131
0.0004623
0.0004623
0.000427809
0.000427808
0.000464978
0.000425132
0.000462299
0.000462299
0.000427809
0.000427809
0.0004623
0.000427808
0.000427808
0.000464981
0.000425131
0.0004623
0.000427809
0.000427808
0.000425131
0.000418993
0.00037915
0.000416313
0.000416312
0.000381826
0.000381826
0.000418993
0.00037915
0.000416312
0.000416312
0.000381826
0.000381826
0.000416313
0.000381826
0.000381826
0.000418993
0.00037915
0.000416312
0.000381826
0.000381826
0.00037915
0.000373012
0.000333169
0.000370331
0.000370331
0.000335845
0.000335845
0.000373012
0.000333169
0.000370331
0.000370331
0.000335845
0.000335845
0.000370331
0.000335845
0.000335845
0.000373012
0.000333169
0.000370331
0.000335845
0.000335845
0.000333169
0.000327031
0.000287188
0.00032435
0.00032435
0.000289864
0.000289864
0.00032703
0.000287188
0.00032435
0.00032435
0.000289864
0.000289864
0.00032435
0.000289864
0.000289864
0.000327031
0.000287187
0.00032435
0.000289864
0.000289864
0.000287188
0.000281049
0.000241207
0.000278369
0.000278368
0.000243883
0.000243883
0.000281049
0.000241207
0.000278368
0.000278368
0.000243883
0.000243883
0.000278369
0.000243883
0.000243883
0.000281049
0.000241206
0.000278368
0.000243883
0.000243883
0.000241207
0.000235068
0.000195226
0.000232388
0.000232387
0.000197902
0.000197902
0.000235068
0.000195226
0.000232387
0.000232387
0.000197902
0.000197902
0.000232388
0.000197902
0.000197902
0.000235068
0.000195226
0.000232388
0.000197902
0.000197902
0.000195226
0.000189088
0.000149247
0.000186407
0.000186407
0.000151925
0.000151925
0.000189088
0.000149247
0.000186407
0.000186407
0.000151925
0.000151925
0.000186407
0.000151925
0.000151925
0.000189088
0.000149247
0.000186407
0.000151925
0.000151925
0.000149247
0.000143103
0.00010325
0.000140432
0.000140432
0.000105922
0.000105922
0.000143103
0.00010325
0.000140431
0.000140432
0.000105921
0.00010592
0.000140432
0.000105921
0.00010592
0.000143103
0.000103249
0.000140432
0.00010592
0.000105921
0.000103249
9.70302e-05
5.73276e-05
9.43935e-05
9.43933e-05
6.00363e-05
6.00382e-05
9.70301e-05
5.73312e-05
9.43915e-05
9.43908e-05
6.00335e-05
6.00331e-05
9.4391e-05
6.0036e-05
6.00337e-05
9.7029e-05
5.73255e-05
9.43914e-05
6.00324e-05
6.00324e-05
5.73259e-05
5.11298e-05
1.53149e-05
4.86085e-05
4.86096e-05
1.76518e-05
1.76515e-05
5.1132e-05
1.53151e-05
4.86054e-05
4.86041e-05
1.76497e-05
1.76459e-05
4.86039e-05
1.76487e-05
1.76442e-05
5.1127e-05
1.53105e-05
4.86032e-05
1.76464e-05
1.76461e-05
1.53094e-05
1.13816e-05
1.17524e-05
1.17529e-05
1.13828e-05
1.1751e-05
1.17487e-05
1.13224e-05
1.13206e-05
1.13201e-05
1.17476e-05
1.1379e-05
1.17486e-05
0.0005399
0.000557112
0.000557108
0.000539897
0.000557117
0.000539898
0.000539897
0.000539896
0.000554268
0.000554268
0.000519788
0.000519789
0.000519787
0.000519788
0.000539964
0.000557077
0.00055425
0.000542749
0.000557055
0.000539932
0.000542756
0.000539898
0.000539964
0.00055425
0.000542749
0.000557055
0.000542756
0.000539929
0.000557115
0.000557115
0.000540073
0.000539894
0.000539894
0.000493934
0.000511142
0.000511141
0.000493931
0.000511144
0.000493936
0.000493932
0.000511142
0.000511139
0.000493929
0.000508297
0.000508295
0.000508296
0.000473818
0.000473818
0.000473818
0.000473818
0.000493996
0.000511109
0.000508279
0.00049678
0.000511085
0.000493967
0.000496787
0.000511143
0.000493928
0.000493995
0.000508278
0.000511108
0.000496779
0.000511084
0.000496786
0.000493962
0.000511146
0.000511146
0.000494105
0.000493927
0.000493927
0.000447961
0.000465178
0.000465178
0.000447954
0.00046517
0.000447951
0.000447966
0.000465177
0.000465174
0.000447958
0.000462322
0.000462324
0.000462323
0.000427834
0.000427833
0.000427834
0.000427833
0.000448014
0.000465143
0.000462305
0.000450801
0.000465113
0.000447986
0.000450808
0.000465179
0.000447955
0.000448016
0.000462305
0.000465142
0.000450804
0.000465114
0.000450809
0.000447993
0.000465184
0.000465184
0.000448124
0.000447952
0.000447952
0.000401971
0.000419184
0.000419183
0.000401968
0.000419185
0.000401967
0.00040197
0.000419184
0.000419184
0.000401968
0.000416338
0.000416338
0.000416337
0.000381851
0.000381851
0.000381851
0.000381851
0.000402032
0.000419151
0.000416319
0.000404817
0.000419125
0.000402001
0.000404823
0.000419185
0.000401966
0.000402031
0.000416319
0.000419151
0.000404817
0.000419125
0.000404823
0.000402
0.000419187
0.000419187
0.000402141
0.000401965
0.000401965
0.00035599
0.000373203
0.000373202
0.000355987
0.000373204
0.000355986
0.000355989
0.000373203
0.000373202
0.000355987
0.000370356
0.000370356
0.000370355
0.00033587
0.00033587
0.00033587
0.00033587
0.00035605
0.000373169
0.000370337
0.000358836
0.000373144
0.00035602
0.000358842
0.000373204
0.000355986
0.00035605
0.000370337
0.000373169
0.000358836
0.000373144
0.000358842
0.00035602
0.000373206
0.000373206
0.00035616
0.000355984
0.000355984
0.000310009
0.000327222
0.000327221
0.000310006
0.000327223
0.000310005
0.000310008
0.000327222
0.000327221
0.000310006
0.000324375
0.000324375
0.000324374
0.000289889
0.000289889
0.000289889
0.000289888
0.000310069
0.000327188
0.000324356
0.000312855
0.000327163
0.000310039
0.000312861
0.000327223
0.000310005
0.000310069
0.000324356
0.000327188
0.000312855
0.000327163
0.000312861
0.000310039
0.000327225
0.000327225
0.000310178
0.000310003
0.000310003
0.000264027
0.00028124
0.000281239
0.000264024
0.000281242
0.000264024
0.000264027
0.00028124
0.00028124
0.000264024
0.000278393
0.000278393
0.000278393
0.000243908
0.000243907
0.000243908
0.000243907
0.000264088
0.000281207
0.000278375
0.000266873
0.000281182
0.000264057
0.00026688
0.000281242
0.000264023
0.000264088
0.000278375
0.000281207
0.000266873
0.000281181
0.00026688
0.000264057
0.000281244
0.000281244
0.000264197
0.000264022
0.000264022
0.000218046
0.000235259
0.000235259
0.000218043
0.000235261
0.000218043
0.000218046
0.000235259
0.000235259
0.000218044
0.000232412
0.000232412
0.000232412
0.000197927
0.000197927
0.000197927
0.000197927
0.000218107
0.000235226
0.000232394
0.000220892
0.000235201
0.000218077
0.000220899
0.000235261
0.000218043
0.000218107
0.000232394
0.000235226
0.000220892
0.000235201
0.000220899
0.000218076
0.000235263
0.000235263
0.000218216
0.000218041
0.000218041
0.000172065
0.000189278
0.000189277
0.000172063
0.00018928
0.000172062
0.000172065
0.000189278
0.000189278
0.000172063
0.000186432
0.000186432
0.000186432
0.000151941
0.000151941
0.000151941
0.000151941
0.000172126
0.000189245
0.000186414
0.000174912
0.00018922
0.000172096
0.000174918
0.00018928
0.000172062
0.000172126
0.000186414
0.000189245
0.000174912
0.000189219
0.000174918
0.000172096
0.000189282
0.000189282
0.000172236
0.00017206
0.00017206
0.000126079
0.000143289
0.000143288
0.000126061
0.000143294
0.000126057
0.000126079
0.000143289
0.000143288
0.000126071
0.000140447
0.000140447
0.000140447
0.000105921
0.000105921
0.00010592
0.000105921
0.000126142
0.000143248
0.000140435
0.000128937
0.000143231
0.000126155
0.000128931
0.000143294
0.000126057
0.000126142
0.000140435
0.000143248
0.000128937
0.000143231
0.000128931
0.000126161
0.000143293
0.000143294
0.000126251
0.000126076
0.000126076
8.00622e-05
9.72356e-05
9.7259e-05
8.00555e-05
9.73546e-05
7.9846e-05
8.00581e-05
9.72365e-05
9.72572e-05
8.00528e-05
9.44584e-05
9.44561e-05
9.44578e-05
6.02314e-05
6.02325e-05
6.02292e-05
6.02295e-05
8.0117e-05
9.70963e-05
9.44274e-05
8.28962e-05
9.71855e-05
8.01783e-05
8.29261e-05
9.7349e-05
7.9849e-05
8.01159e-05
9.44268e-05
9.70947e-05
8.28931e-05
9.71851e-05
8.29241e-05
8.01746e-05
9.72188e-05
9.72108e-05
8.02704e-05
8.01634e-05
8.01636e-05
3.31919e-05
5.07394e-05
5.09799e-05
3.22647e-05
5.12919e-05
3.1756e-05
3.31773e-05
5.07284e-05
5.09704e-05
3.22546e-05
4.91401e-05
4.91363e-05
4.91364e-05
1.91996e-05
1.9199e-05
1.9196e-05
1.91959e-05
3.38126e-05
5.09954e-05
4.88316e-05
3.7456e-05
5.10324e-05
3.30125e-05
3.78912e-05
5.12755e-05
3.17636e-05
3.3812e-05
4.88284e-05
5.0998e-05
3.74526e-05
5.10317e-05
3.78882e-05
3.30114e-05
5.08559e-05
5.08557e-05
3.47113e-05
3.25796e-05
3.25764e-05
8.0806e-06
8.62123e-06
8.48975e-06
1.67877e-06
5.89648e-06
5.71669e-08
8.09973e-06
8.60019e-06
8.47287e-06
1.68108e-06
3.35646e-06
1.1644e-05
1.16422e-05
3.95731e-06
1.18815e-05
3.51313e-06
3.51278e-06
6.1252e-06
8.39135e-06
1.10849e-05
4.24317e-06
1.01901e-05
5.95548e-06
3.70164e-06
5.85922e-06
6.64548e-08
6.13168e-06
1.10846e-05
8.38607e-06
4.24327e-06
1.01899e-05
3.7022e-06
5.96537e-06
4.7748e-06
4.7731e-06
4.48059e-06
5.61907e-06
5.63293e-06
0.000562886
0.000562918
0.000562887
0.000562881
0.000562882
0.000562887
0.000562918
0.000562886
0.000557113
0.000539898
0.000539898
0.000557115
0.000540073
0.000539894
0.000539894
0.000516917
0.000534125
0.000516913
0.000534129
0.000533935
0.000516913
0.000516911
0.000534128
0.000534126
0.0005399
0.000557111
0.000557108
0.000539898
0.000539964
0.000557078
0.00055425
0.000542749
0.000557055
0.00053993
0.000542756
0.000539964
0.000557077
0.00055425
0.000542749
0.000557055
0.000539931
0.000542756
0.000534124
0.000516917
0.000534124
0.000516918
0.000534124
0.000516916
0.000534126
0.000516918
0.000534069
0.000531255
0.000516948
0.00051977
0.000534091
0.000531263
0.00051698
0.000534069
0.000531256
0.000516948
0.000519771
0.000534093
0.000531263
0.00051698
0.000557113
0.000557112
0.000540074
0.000539896
0.000539896
0.000557117
0.000539898
0.000516915
0.000534129
0.000533936
0.000516913
0.000516913
0.000534129
0.000534129
0.000516915
0.000534129
0.000539963
0.000542749
0.000539929
0.000542756
0.000539897
0.000539896
0.000539963
0.000542749
0.000542756
0.000539929
0.00053412
0.000516913
0.000534122
0.000516915
0.000534067
0.000531255
0.000516946
0.000519769
0.000534089
0.000531262
0.000516979
0.00053412
0.000516912
0.000534121
0.000516915
0.000534067
0.000531254
0.000519769
0.000516945
0.000531262
0.000534089
0.000516978
0.0005399
0.000557111
0.000557108
0.000539898
0.000539964
0.00055425
0.000557078
0.000542749
0.000557055
0.000542756
0.00053993
0.0005399
0.000557112
0.000557108
0.000539897
0.000534069
0.000531256
0.000516949
0.000519771
0.000534093
0.000531263
0.000516981
0.000534124
0.000516916
0.000534126
0.000516918
0.000534069
0.000531256
0.000519771
0.000516949
0.000531263
0.000534091
0.000516981
0.000534124
0.000516917
0.000534124
0.000516918
0.000540073
0.000539893
0.000539892
0.000539898
0.000516911
0.000534128
0.000533935
0.000516909
0.00051691
0.000534124
0.000534124
0.000516913
0.000534128
0.000539964
0.00055425
0.000557078
0.000542748
0.000557055
0.000542756
0.00053993
0.000539899
0.000557108
0.000539896
0.000539899
0.000557112
0.000557108
0.000539897
0.000534068
0.000531255
0.000519769
0.000516946
0.000531262
0.00053409
0.000516979
0.000534068
0.000531255
0.00051977
0.000516948
0.000531262
0.000534091
0.00051698
0.000534123
0.000516914
0.000534123
0.000516917
0.000534123
0.000516917
0.000534124
0.000516917
0.000557113
0.000539898
0.000557113
0.000539898
0.000533936
0.000516914
0.000516914
0.000534128
0.000534128
0.000516917
0.000534125
0.000516917
0.000534125
0.000511144
0.000493931
0.000511144
0.00049393
0.000511146
0.000511145
0.000494104
0.000493927
0.000493927
0.000470952
0.000488161
0.00047095
0.000488158
0.000487967
0.000470952
0.000470947
0.000488161
0.00048816
0.000493934
0.000511142
0.000511141
0.000493935
0.000493996
0.000511109
0.000508279
0.00049678
0.000511085
0.000493964
0.000496787
0.000493996
0.000511109
0.000508279
0.00049678
0.000511085
0.000493966
0.000496787
0.000488158
0.000470953
0.00048816
0.000470955
0.000488158
0.000470951
0.000488164
0.000470954
0.000488101
0.000485286
0.000470984
0.0004738
0.000488125
0.000485293
0.000471011
0.000488101
0.000485287
0.000470985
0.0004738
0.000488129
0.000485293
0.000471011
0.000511145
0.000511145
0.000494106
0.000493932
0.000493933
0.000511144
0.000493935
0.000470945
0.000488166
0.000487969
0.000470951
0.000470951
0.000488168
0.000488168
0.000470945
0.000488166
0.000493995
0.000511108
0.000508277
0.00049678
0.000511083
0.000493962
0.000496786
0.000493932
0.000511141
0.000511139
0.000493929
0.000493994
0.000508277
0.000511107
0.000496779
0.000511083
0.000496786
0.000493962
0.000488155
0.00047095
0.000488157
0.000470949
0.000488098
0.000485287
0.000470981
0.000473799
0.000488123
0.000485293
0.000471011
0.000488155
0.000470949
0.000488155
0.000470949
0.000488099
0.000485287
0.000473799
0.00047098
0.000485293
0.000488122
0.000471011
0.000493934
0.000511142
0.000511142
0.000493935
0.000493996
0.000508279
0.000511109
0.000496781
0.000511085
0.000496787
0.000493964
0.000493934
0.000511143
0.000511142
0.000493931
0.000488101
0.000485287
0.000470985
0.000473799
0.000488129
0.000485293
0.000471011
0.000488158
0.000470951
0.000488164
0.000470954
0.000488101
0.000485286
0.0004738
0.000470984
0.000485293
0.000488126
0.000471012
0.000488158
0.000470953
0.00048816
0.000470954
0.000511143
0.000511144
0.000494104
0.000493926
0.000493927
0.000511144
0.00049393
0.000470949
0.000488157
0.000487967
0.000470946
0.000470947
0.000488158
0.000488159
0.00047095
0.000488158
0.000493995
0.000508278
0.000511109
0.00049678
0.000511084
0.000496786
0.000493964
0.000493933
0.000511141
0.00051114
0.00049393
0.000493933
0.000511142
0.00051114
0.000493931
0.0004881
0.000485287
0.000473799
0.00047098
0.000485293
0.000488124
0.000471011
0.0004881
0.000485286
0.000473799
0.000470984
0.000485293
0.000488126
0.000471012
0.000488156
0.00047095
0.000488157
0.000470955
0.000488157
0.000470953
0.00048816
0.000470955
0.000511145
0.000493931
0.000511145
0.000493931
0.000487968
0.000470952
0.000470952
0.000488162
0.000488162
0.000470952
0.000488162
0.000470952
0.000488162
0.000465176
0.00044795
0.000465179
0.000447953
0.000465184
0.000465182
0.000448126
0.000447953
0.000447958
0.000424958
0.000442177
0.000424958
0.000442177
0.000441986
0.000424956
0.000424956
0.000442181
0.000442185
0.000447961
0.000465174
0.000465178
0.000447952
0.000448015
0.000465144
0.000462305
0.000450803
0.000465114
0.000447989
0.000450808
0.000448015
0.000465143
0.000462305
0.000450801
0.000465113
0.000447985
0.000450808
0.000442179
0.000424959
0.000442177
0.000424962
0.000442179
0.000424959
0.000442176
0.000424962
0.000442117
0.000439305
0.000424992
0.000427815
0.000442146
0.000439311
0.000425022
0.000442117
0.000439304
0.000424992
0.000427815
0.000442143
0.000439311
0.000425022
0.000465179
0.000465179
0.000448124
0.000447949
0.000447949
0.000465171
0.00044795
0.000424958
0.000442177
0.000441984
0.000424956
0.000424956
0.000442179
0.000442178
0.000424958
0.000442177
0.000448019
0.000465142
0.000462305
0.000450804
0.000465115
0.000447992
0.00045081
0.000447966
0.000465178
0.000465174
0.00044796
0.000448019
0.000462305
0.000465142
0.000450805
0.000465115
0.00045081
0.000447994
0.000442186
0.00042496
0.000442181
0.000424964
0.000442119
0.000439306
0.000424993
0.000427815
0.000442149
0.000439313
0.000425022
0.000442186
0.00042496
0.000442182
0.000424964
0.00044212
0.000439308
0.000427815
0.000424994
0.000439313
0.000442151
0.000425022
0.000447961
0.000465174
0.000465177
0.000447952
0.000448015
0.000462305
0.000465144
0.000450803
0.000465113
0.000450808
0.000447989
0.000447961
0.000465177
0.000465178
0.000447953
0.000442117
0.000439304
0.000424992
0.000427815
0.000442143
0.000439311
0.000425022
0.000442179
0.000424959
0.000442176
0.000424962
0.000442116
0.000439305
0.000427815
0.000424992
0.000439311
0.000442145
0.000425022
0.000442179
0.000424959
0.000442177
0.000424962
0.000465181
0.000465182
0.000448127
0.00044796
0.000447958
0.00046518
0.000447953
0.000424958
0.000442179
0.000441987
0.000424957
0.000424956
0.000442187
0.000442186
0.000424958
0.000442177
0.000448016
0.000462305
0.000465144
0.000450803
0.000465114
0.000450809
0.000447989
0.000447962
0.000465178
0.000465178
0.000447958
0.000447962
0.000465178
0.000465178
0.000447954
0.000442118
0.000439307
0.000427815
0.000424993
0.000439312
0.00044215
0.000425023
0.000442117
0.000439305
0.000427815
0.000424992
0.000439312
0.000442146
0.000425023
0.00044218
0.000424959
0.00044218
0.000424962
0.00044218
0.000424959
0.000442177
0.000424962
0.000465176
0.00044795
0.000465176
0.00044795
0.000441985
0.000424956
0.000424956
0.00044218
0.00044218
0.000424958
0.000442176
0.000424958
0.000442176
0.000419185
0.000401967
0.000419185
0.000401967
0.000419187
0.000419187
0.000402141
0.000401965
0.000401965
0.000378977
0.000396194
0.000378977
0.000396194
0.000396002
0.000378975
0.000378975
0.000396196
0.000396196
0.000401971
0.000419184
0.000419183
0.000401968
0.000402031
0.000419151
0.000416319
0.000404817
0.000419125
0.000402001
0.000404823
0.000402031
0.000419151
0.000416319
0.000404817
0.000419125
0.000402001
0.000404824
0.000396192
0.000378977
0.000396193
0.00037898
0.000396192
0.000378977
0.000396193
0.00037898
0.000396135
0.000393322
0.00037901
0.000381833
0.00039616
0.000393328
0.000379041
0.000396135
0.000393321
0.00037901
0.000381833
0.00039616
0.000393328
0.000379041
0.000419187
0.000419187
0.000402141
0.000401965
0.000401966
0.000419185
0.000401967
0.000378977
0.000396194
0.000396002
0.000378975
0.000378975
0.000396196
0.000396196
0.000378976
0.000396195
0.000402031
0.000419151
0.000416319
0.000404817
0.000419125
0.000402001
0.000404823
0.00040197
0.000419184
0.000419184
0.000401967
0.000402031
0.000416319
0.000419151
0.000404817
0.000419125
0.000404823
0.000402
0.000396192
0.000378977
0.000396193
0.00037898
0.000396134
0.000393321
0.00037901
0.000381833
0.00039616
0.000393328
0.000379041
0.000396192
0.000378977
0.000396193
0.00037898
0.000396134
0.000393321
0.000381833
0.00037901
0.000393328
0.000396159
0.000379041
0.000401971
0.000419184
0.000419183
0.000401968
0.000402032
0.000416319
0.000419151
0.000404817
0.000419125
0.000404823
0.000402001
0.000401971
0.000419184
0.000419183
0.000401968
0.000396135
0.000393322
0.00037901
0.000381833
0.00039616
0.000393328
0.000379041
0.000396192
0.000378978
0.000396193
0.00037898
0.000396134
0.000393322
0.000381833
0.00037901
0.000393328
0.00039616
0.000379041
0.000396192
0.000378977
0.000396193
0.00037898
0.000419187
0.000419187
0.00040214
0.000401965
0.000401965
0.000419185
0.000401967
0.000378976
0.000396194
0.000396002
0.000378975
0.000378975
0.000396196
0.000396196
0.000378977
0.000396194
0.000402032
0.000416319
0.000419151
0.000404817
0.000419125
0.000404823
0.000402001
0.000401971
0.000419184
0.000419183
0.000401967
0.000401971
0.000419184
0.000419183
0.000401968
0.000396134
0.000393321
0.000381833
0.00037901
0.000393328
0.00039616
0.000379041
0.000396134
0.000393321
0.000381833
0.00037901
0.000393328
0.00039616
0.000379041
0.000396192
0.000378977
0.000396193
0.00037898
0.000396192
0.000378977
0.000396193
0.00037898
0.000419185
0.000401967
0.000419185
0.000401967
0.000396002
0.000378975
0.000378975
0.000396196
0.000396196
0.000378977
0.000396194
0.000378977
0.000396194
0.000373204
0.000355986
0.000373204
0.000355986
0.000373206
0.000373206
0.00035616
0.000355984
0.000355984
0.000332996
0.000350213
0.000332996
0.000350213
0.000350021
0.000332994
0.000332994
0.000350215
0.000350215
0.00035599
0.000373203
0.000373202
0.000355987
0.00035605
0.000373169
0.000370337
0.000358836
0.000373144
0.00035602
0.000358842
0.00035605
0.000373169
0.000370337
0.000358836
0.000373144
0.00035602
0.000358842
0.000350211
0.000332996
0.000350212
0.000332999
0.000350211
0.000332996
0.000350212
0.000332999
0.000350153
0.00034734
0.000333029
0.000335852
0.000350179
0.000347347
0.00033306
0.000350153
0.00034734
0.000333029
0.000335852
0.000350179
0.000347347
0.00033306
0.000373206
0.000373206
0.00035616
0.000355984
0.000355985
0.000373204
0.000355986
0.000332996
0.000350213
0.000350021
0.000332994
0.000332994
0.000350215
0.000350215
0.000332995
0.000350213
0.00035605
0.000373169
0.000370337
0.000358836
0.000373144
0.00035602
0.000358842
0.000355989
0.000373202
0.000373202
0.000355987
0.00035605
0.000370337
0.000373169
0.000358836
0.000373144
0.000358842
0.00035602
0.000350211
0.000332996
0.000350212
0.000332999
0.000350153
0.00034734
0.000333029
0.000335852
0.000350179
0.000347347
0.00033306
0.000350211
0.000332996
0.000350212
0.000332999
0.000350153
0.00034734
0.000335852
0.000333029
0.000347347
0.000350179
0.00033306
0.00035599
0.000373203
0.000373202
0.000355987
0.00035605
0.000370337
0.000373169
0.000358836
0.000373144
0.000358842
0.00035602
0.00035599
0.000373203
0.000373202
0.000355987
0.000350153
0.00034734
0.000333029
0.000335852
0.000350179
0.000347347
0.00033306
0.000350211
0.000332996
0.000350212
0.000332999
0.000350153
0.000347341
0.000335852
0.000333029
0.000347347
0.000350179
0.00033306
0.000350211
0.000332996
0.000350212
0.000332999
0.000373206
0.000373206
0.000356159
0.000355984
0.000355984
0.000373204
0.000355986
0.000332995
0.000350213
0.000350021
0.000332994
0.000332994
0.000350215
0.000350216
0.000332996
0.000350213
0.000356051
0.000370337
0.000373169
0.000358836
0.000373144
0.000358842
0.00035602
0.00035599
0.000373203
0.000373202
0.000355987
0.00035599
0.000373203
0.000373202
0.000355987
0.000350153
0.00034734
0.000335852
0.000333029
0.000347347
0.000350179
0.00033306
0.000350153
0.00034734
0.000335852
0.000333029
0.000347347
0.000350179
0.00033306
0.000350211
0.000332996
0.000350212
0.000332999
0.000350211
0.000332996
0.000350212
0.000332999
0.000373204
0.000355986
0.000373204
0.000355986
0.000350021
0.000332994
0.000332994
0.000350215
0.000350216
0.000332996
0.000350213
0.000332996
0.000350213
0.000327223
0.000310005
0.000327223
0.000310005
0.000327225
0.000327225
0.000310178
0.000310003
0.000310003
0.000287014
0.000304232
0.000287014
0.000304232
0.00030404
0.000287013
0.000287013
0.000304234
0.000304234
0.000310009
0.000327222
0.000327221
0.000310006
0.000310069
0.000327188
0.000324356
0.000312855
0.000327163
0.000310039
0.000312861
0.000310069
0.000327188
0.000324356
0.000312854
0.000327163
0.000310039
0.000312861
0.00030423
0.000287015
0.000304231
0.000287018
0.00030423
0.000287015
0.000304231
0.000287018
0.000304172
0.000301359
0.000287048
0.00028987
0.000304198
0.000301366
0.000287078
0.000304172
0.000301359
0.000287048
0.00028987
0.000304198
0.000301366
0.000287078
0.000327225
0.000327225
0.000310179
0.000310003
0.000310004
0.000327223
0.000310005
0.000287014
0.000304232
0.00030404
0.000287013
0.000287013
0.000304234
0.000304234
0.000287014
0.000304232
0.000310069
0.000327188
0.000324356
0.000312854
0.000327163
0.000310039
0.000312861
0.000310008
0.000327222
0.000327221
0.000310006
0.000310069
0.000324356
0.000327188
0.000312854
0.000327163
0.000312861
0.000310039
0.00030423
0.000287015
0.000304231
0.000287018
0.000304172
0.000301359
0.000287048
0.00028987
0.000304198
0.000301366
0.000287079
0.00030423
0.000287015
0.000304231
0.000287018
0.000304172
0.000301359
0.00028987
0.000287048
0.000301366
0.000304198
0.000287078
0.000310009
0.000327222
0.000327221
0.000310006
0.000310069
0.000324356
0.000327188
0.000312855
0.000327163
0.000312861
0.000310038
0.000310009
0.000327221
0.000327221
0.000310006
0.000304172
0.000301359
0.000287048
0.00028987
0.000304198
0.000301366
0.000287079
0.00030423
0.000287015
0.000304231
0.000287018
0.000304172
0.000301359
0.00028987
0.000287048
0.000301366
0.000304198
0.000287079
0.00030423
0.000287015
0.000304231
0.000287018
0.000327225
0.000327225
0.000310178
0.000310003
0.000310003
0.000327223
0.000310005
0.000287014
0.000304232
0.00030404
0.000287013
0.000287012
0.000304234
0.000304234
0.000287014
0.000304232
0.000310069
0.000324356
0.000327188
0.000312855
0.000327163
0.000312861
0.000310039
0.000310009
0.000327222
0.000327221
0.000310006
0.000310009
0.000327222
0.000327221
0.000310006
0.000304172
0.000301359
0.00028987
0.000287048
0.000301366
0.000304198
0.000287079
0.000304172
0.000301359
0.00028987
0.000287048
0.000301366
0.000304198
0.000287079
0.00030423
0.000287015
0.000304231
0.000287018
0.00030423
0.000287015
0.000304231
0.000287018
0.000327223
0.000310005
0.000327223
0.000310005
0.00030404
0.000287013
0.000287013
0.000304234
0.000304234
0.000287014
0.000304232
0.000287014
0.000304232
0.000281241
0.000264024
0.000281242
0.000264024
0.000281244
0.000281244
0.000264197
0.000264022
0.000264022
0.000241033
0.000258251
0.000241033
0.000258251
0.000258059
0.000241032
0.000241032
0.000258253
0.000258253
0.000264027
0.00028124
0.000281239
0.000264024
0.000264088
0.000281207
0.000278375
0.000266873
0.000281182
0.000264057
0.00026688
0.000264088
0.000281207
0.000278375
0.000266873
0.000281182
0.000264057
0.00026688
0.000258249
0.000241034
0.00025825
0.000241037
0.000258249
0.000241034
0.00025825
0.000241037
0.000258191
0.000255378
0.000241067
0.000243889
0.000258216
0.000255384
0.000241097
0.000258191
0.000255378
0.000241067
0.000243889
0.000258216
0.000255385
0.000241097
0.000281244
0.000281243
0.000264197
0.000264022
0.000264022
0.000281242
0.000264023
0.000241033
0.000258251
0.000258059
0.000241032
0.000241032
0.000258253
0.000258253
0.000241033
0.000258251
0.000264088
0.000281207
0.000278375
0.000266873
0.000281181
0.000264057
0.00026688
0.000264027
0.00028124
0.00028124
0.000264024
0.000264088
0.000278375
0.000281207
0.000266873
0.000281181
0.00026688
0.000264057
0.000258249
0.000241034
0.00025825
0.000241037
0.000258191
0.000255378
0.000241067
0.000243889
0.000258216
0.000255384
0.000241098
0.000258249
0.000241034
0.000258249
0.000241037
0.000258191
0.000255378
0.000243889
0.000241067
0.000255384
0.000258216
0.000241097
0.000264027
0.00028124
0.000281239
0.000264024
0.000264088
0.000278375
0.000281207
0.000266873
0.000281181
0.00026688
0.000264057
0.000264027
0.00028124
0.000281239
0.000264024
0.000258191
0.000255378
0.000241067
0.000243889
0.000258216
0.000255385
0.000241098
0.000258249
0.000241034
0.00025825
0.000241037
0.000258191
0.000255378
0.000243889
0.000241067
0.000255385
0.000258216
0.000241098
0.000258249
0.000241034
0.00025825
0.000241037
0.000281243
0.000281244
0.000264197
0.000264022
0.000264022
0.000281241
0.000264023
0.000241033
0.000258251
0.000258059
0.000241032
0.000241031
0.000258253
0.000258253
0.000241033
0.000258251
0.000264088
0.000278375
0.000281207
0.000266873
0.000281181
0.00026688
0.000264057
0.000264027
0.00028124
0.000281239
0.000264024
0.000264027
0.00028124
0.000281239
0.000264024
0.000258191
0.000255378
0.000243889
0.000241067
0.000255384
0.000258216
0.000241098
0.000258191
0.000255378
0.000243889
0.000241067
0.000255384
0.000258216
0.000241098
0.000258249
0.000241034
0.000258249
0.000241037
0.000258249
0.000241034
0.000258249
0.000241037
0.000281241
0.000264023
0.000281241
0.000264023
0.000258059
0.000241032
0.000241032
0.000258253
0.000258253
0.000241033
0.000258251
0.000241033
0.000258251
0.000235261
0.000218043
0.000235261
0.000218043
0.000235263
0.000235263
0.000218216
0.000218041
0.000218041
0.000195052
0.00021227
0.000195052
0.00021227
0.000212078
0.000195051
0.000195051
0.000212272
0.000212272
0.000218046
0.000235259
0.000235259
0.000218043
0.000218107
0.000235226
0.000232394
0.000220892
0.000235201
0.000218076
0.000220899
0.000218107
0.000235226
0.000232394
0.000220892
0.000235201
0.000218076
0.000220899
0.000212268
0.000195053
0.000212269
0.000195056
0.000212268
0.000195053
0.000212269
0.000195056
0.00021221
0.000209397
0.000195086
0.000197908
0.000212235
0.000209404
0.000195117
0.00021221
0.000209397
0.000195086
0.000197908
0.000212236
0.000209404
0.000195117
0.000235263
0.000235262
0.000218216
0.000218041
0.000218041
0.000235261
0.000218043
0.000195052
0.00021227
0.000212078
0.000195051
0.000195051
0.000212272
0.000212272
0.000195052
0.00021227
0.000218107
0.000235226
0.000232394
0.000220892
0.0002352
0.000218077
0.000220899
0.000218046
0.000235259
0.000235259
0.000218044
0.000218107
0.000232394
0.000235226
0.000220892
0.000235201
0.000220899
0.000218077
0.000212268
0.000195053
0.000212269
0.000195056
0.00021221
0.000209397
0.000195086
0.000197908
0.000212235
0.000209404
0.000195117
0.000212268
0.000195053
0.000212269
0.000195056
0.00021221
0.000209397
0.000197908
0.000195086
0.000209404
0.000212236
0.000195117
0.000218046
0.000235259
0.000235259
0.000218044
0.000218107
0.000232394
0.000235226
0.000220893
0.0002352
0.000220899
0.000218076
0.000218046
0.000235259
0.000235258
0.000218043
0.00021221
0.000209397
0.000195086