/*--------------------------------*- C++ -*----------------------------------*\
| =========                 |                                                 |
| \\      /  F ield         | OpenFOAM: The Open Source CFD Toolbox           |
|  \\    /   O peration     | Version:  2206                                  |
|   \\  /    A nd           | Website:  www.openfoam.com                      |
|    \\/     M anipulation  |                                                 |
\*---------------------------------------------------------------------------*/
FoamFile
{
    version     2.0;
    format      ascii;
    arch        "LSB;label=32;scalar=64";
    class       volScalarField;
    location    "12";
    object      nut;
}
// * * * * * * * * * * * * * * * * * * * * * * * * * * * * * * * * * * * * * //

dimensions      [0 2 -1 0 0 0 0];

internalField   nonuniform List<scalar> 
28688
(
0.000233967
0.000233124
0.000233124
0.000233474
0.000232557
0.000227931
0.00022793
0.000224061
0.000230802
0.000221563
0.000221561
0.000210155
0.000230995
0.0002239
0.000223897
0.000213546
0.000231059
0.000224309
0.000224306
0.000214511
0.000231061
0.000224319
0.000224317
0.000214529
0.000231061
0.000224321
0.000224318
0.00021453
0.000231061
0.000224321
0.000224319
0.00021453
0.000231061
0.000224321
0.000224319
0.00021453
0.000231061
0.000224321
0.000224319
0.00021453
0.000231061
0.000224321
0.000224319
0.00021453
0.000231061
0.000224321
0.000224319
0.00021453
0.000234244
0.000234452
0.000234453
0.000234244
0.000234452
0.000234453
0.000234282
0.000234282
0.000234282
0.000234282
0.000234452
0.000234452
0.000234244
0.000234452
0.000234452
0.000234244
0.000233475
0.000226103
0.000233123
0.000233121
0.000229514
0.00022951
0.000233474
0.000226105
0.000233121
0.000233121
0.000229512
0.000229509
0.000233123
0.000229516
0.000229514
0.000233475
0.000226102
0.000233121
0.000229516
0.000229512
0.000226102
0.000224062
0.00021168
0.000227928
0.000227923
0.000222003
0.000221998
0.000224063
0.000211683
0.000227926
0.000227921
0.000222004
0.000221995
0.000227927
0.00022201
0.000222002
0.00022406
0.000211677
0.000227926
0.000222007
0.000222002
0.000211678
0.000210157
0.000213332
0.000221556
0.000221551
0.000223442
0.000223439
0.000210159
0.000213335
0.000221557
0.000221548
0.000223444
0.000223437
0.000221554
0.000223447
0.00022344
0.000210154
0.000213329
0.000221556
0.000223445
0.000223444
0.000213331
0.000213554
0.000214579
0.000223895
0.000223893
0.000224286
0.000224284
0.000213556
0.000214582
0.000223898
0.00022389
0.000224289
0.000224281
0.000223893
0.000224291
0.000224285
0.000213551
0.000214576
0.000223897
0.000224288
0.000224289
0.00021458
0.000214512
0.000214612
0.000224304
0.000224303
0.000224314
0.000224313
0.000214514
0.000214615
0.000224307
0.0002243
0.000224317
0.000224309
0.000224303
0.000224319
0.000224314
0.000214509
0.000214609
0.000224308
0.000224317
0.000224318
0.000214612
0.000214534
0.000214614
0.000224315
0.000224314
0.000224316
0.000224315
0.000214535
0.000214616
0.000224318
0.00022431
0.000224319
0.000224311
0.000224314
0.000224321
0.000224315
0.00021453
0.000214611
0.000224319
0.000224319
0.000224319
0.000214612
0.000214536
0.000214614
0.000224316
0.000224315
0.000224316
0.000224315
0.000214537
0.000214615
0.000224319
0.000224312
0.000224319
0.000224311
0.000224315
0.000224321
0.000224315
0.000214532
0.00021461
0.00022432
0.000224319
0.000224319
0.000214612
0.000214536
0.000214613
0.000224316
0.000224315
0.000224316
0.000224315
0.000214536
0.000214615
0.000224319
0.000224312
0.000224319
0.000224311
0.000224315
0.000224321
0.000224315
0.000214532
0.00021461
0.00022432
0.000224319
0.000224319
0.000214612
0.000214535
0.000214614
0.000224316
0.000224315
0.000224315
0.000224315
0.000214536
0.000214615
0.000224319
0.000224312
0.000224319
0.000224311
0.000224315
0.000224321
0.000224315
0.000214532
0.00021461
0.00022432
0.000224319
0.000224319
0.000214612
0.000214535
0.000214614
0.000224316
0.000224315
0.000224316
0.000224315
0.000214536
0.000214615
0.000224319
0.000224312
0.000224319
0.000224311
0.000224315
0.000224321
0.000224315
0.000214532
0.00021461
0.00022432
0.000224319
0.000224319
0.000214612
0.000214536
0.000214614
0.000224316
0.000224315
0.000224315
0.000224315
0.000214536
0.000214615
0.000224319
0.000224312
0.000224319
0.000224311
0.000224315
0.000224321
0.000224315
0.000214532
0.00021461
0.00022432
0.000224319
0.000224319
0.000214612
0.000214536
0.000214618
0.000224316
0.000224315
0.000224317
0.000214536
0.000224319
0.000224312
0.00022432
0.000224312
0.000224315
0.000224316
0.000214532
0.000214614
0.00022432
0.00022432
0.000224321
0.000214617
0.000234729
0.000234745
0.000234728
0.000234728
0.000235108
0.000234797
0.000234701
0.000234725
0.000235108
0.000234797
0.000234725
0.000234701
0.000234851
0.000233566
0.000233566
0.000104643
3.87462e-05
0.000129443
3.98128e-05
2.16836e-05
2.2826e-05
0.000104637
3.87421e-05
0.00012944
3.98094e-05
0.000233967
0.000233967
0.000233967
0.000232998
0.000232998
0.000232998
0.000232998
0.000206077
9.36254e-05
0.00023397
0.000231945
0.000222838
8.7255e-05
0.000233593
2.16825e-05
2.2825e-05
0.000206071
0.00023397
9.36284e-05
0.000231945
0.000222846
0.000233593
8.7255e-05
4.77589e-05
4.77463e-05
0.000231285
4.40227e-05
4.40137e-05
7.21728e-05
4.24246e-05
8.18155e-05
4.37738e-05
2.47744e-05
2.54706e-05
7.21682e-05
4.24209e-05
8.18038e-05
4.37701e-05
0.000232557
0.000232556
0.000232557
0.000230994
0.000230994
0.000230993
0.000230993
0.000167212
7.9302e-05
0.000232153
0.000225827
0.000180547
7.45776e-05
0.000231309
2.4773e-05
2.54688e-05
0.000167204
0.000232153
7.92996e-05
0.000225826
0.000180543
0.000231308
7.45733e-05
3.89882e-05
3.89769e-05
0.000219302
3.65058e-05
3.64961e-05
6.44736e-05
4.5465e-05
6.28881e-05
4.61168e-05
2.59444e-05
2.59756e-05
6.44614e-05
4.54623e-05
6.28854e-05
4.61137e-05
0.000230803
0.000230802
0.000230802
0.000230936
0.000230935
0.000230935
0.000230935
0.000150302
6.9838e-05
0.000228988
0.000221993
0.000150083
7.33576e-05
0.000228882
2.59425e-05
2.59732e-05
0.000150298
0.000228987
6.98359e-05
0.000221991
0.000150078
0.000228881
7.33519e-05
3.50134e-05
3.50038e-05
0.000210673
3.82696e-05
3.826e-05
6.66042e-05
4.65009e-05
6.63698e-05
4.65207e-05
2.5991e-05
2.59924e-05
6.66101e-05
4.64979e-05
6.63742e-05
4.65182e-05
0.000230995
0.000230995
0.000230995
0.000231055
0.000231056
0.000231056
0.000231056
0.000153649
7.90245e-05
0.000229194
0.000224136
0.000153076
7.96817e-05
0.000229252
2.59886e-05
2.59897e-05
0.000153649
0.000229194
7.90226e-05
0.000224133
0.000153075
0.000229251
7.96834e-05
4.24957e-05
4.2487e-05
0.00021441
4.29108e-05
4.29021e-05
6.66845e-05
4.65222e-05
6.66636e-05
4.65211e-05
2.59927e-05
2.59924e-05
6.66917e-05
4.65193e-05
6.66712e-05
4.65181e-05
0.00023106
0.000231059
0.000231059
0.000231061
0.000231061
0.00023106
0.00023106
0.000153807
7.98294e-05
0.000229301
0.000224315
0.000153761
7.9864e-05
0.000229303
2.59901e-05
2.59898e-05
0.000153808
0.000229301
7.98324e-05
0.000224313
0.000153762
0.000229303
7.98662e-05
4.29894e-05
4.29808e-05
0.000214615
4.29964e-05
4.29877e-05
6.66894e-05
4.65217e-05
6.66768e-05
4.6521e-05
2.59925e-05
2.59921e-05
6.66981e-05
4.65185e-05
6.66866e-05
4.65177e-05
0.000231061
0.00023106
0.000231061
0.000231061
0.000231061
0.00023106
0.00023106
0.000153818
7.98474e-05
0.000229303
0.00022432
0.00015379
7.98704e-05
0.000229303
2.599e-05
2.59897e-05
0.000153821
0.000229303
7.98516e-05
0.000224318
0.000153793
0.000229303
7.98735e-05
4.2994e-05
4.29854e-05
0.000214614
4.29986e-05
4.29899e-05
6.66895e-05
4.65216e-05
6.66774e-05
4.6521e-05
2.59923e-05
2.59922e-05
6.66983e-05
4.65185e-05
6.66876e-05
4.65177e-05
0.000231061
0.00023106
0.000231061
0.000231061
0.000231061
0.00023106
0.00023106
0.000153818
7.98483e-05
0.000229303
0.000224321
0.00015379
7.98706e-05
0.000229303
2.599e-05
2.59897e-05
0.000153821
0.000229303
7.98527e-05
0.000224319
0.000153793
0.000229303
7.98737e-05
4.29943e-05
4.29857e-05
0.000214615
4.29987e-05
4.299e-05
6.66895e-05
4.65216e-05
6.66774e-05
4.65209e-05
2.59924e-05
2.59922e-05
6.66983e-05
4.65185e-05
6.66876e-05
4.65177e-05
0.000231061
0.00023106
0.000231061
0.000231061
0.000231061
0.00023106
0.00023106
0.000153818
7.98483e-05
0.000229303
0.000224321
0.000153791
7.98706e-05
0.000229303
2.599e-05
2.59897e-05
0.000153821
0.000229303
7.98527e-05
0.000224319
0.000153793
0.000229303
7.98738e-05
4.29943e-05
4.29857e-05
0.000214615
4.29987e-05
4.299e-05
6.66896e-05
4.65216e-05
6.66774e-05
4.65209e-05
2.59924e-05
2.59922e-05
6.66983e-05
4.65185e-05
6.66876e-05
4.65177e-05
0.000231061
0.00023106
0.000231061
0.000231061
0.000231061
0.00023106
0.00023106
0.000153818
7.98483e-05
0.000229303
0.000224321
0.00015379
7.98706e-05
0.000229304
2.599e-05
2.59897e-05
0.000153821
0.000229303
7.98527e-05
0.000224319
0.000153793
0.000229303
7.98737e-05
4.29943e-05
4.29857e-05
0.000214615
4.29987e-05
4.299e-05
6.66895e-05
4.65217e-05
6.66774e-05
4.65209e-05
2.59924e-05
2.59922e-05
6.66983e-05
4.65186e-05
6.66876e-05
4.65178e-05
0.000231061
0.00023106
0.000231061
0.000231061
0.000231061
0.00023106
0.00023106
0.000153818
7.98483e-05
0.000229303
0.000224321
0.00015379
7.98706e-05
0.000229303
2.599e-05
2.59897e-05
0.000153821
0.000229303
7.98527e-05
0.000224319
0.000153793
0.000229303
7.98737e-05
4.29943e-05
4.29857e-05
0.000214615
4.29987e-05
4.299e-05
6.66895e-05
4.65218e-05
6.66774e-05
4.65212e-05
2.59924e-05
2.59922e-05
6.66983e-05
4.65185e-05
6.66875e-05
4.65177e-05
0.000231061
0.00023106
0.000231061
0.000231061
0.000231061
0.00023106
0.00023106
0.000153818
7.98483e-05
0.000229303
0.000224321
0.00015379
7.98706e-05
0.000229304
2.599e-05
2.59897e-05
0.000153821
0.000229303
7.98527e-05
0.000224319
0.000153793
0.000229303
7.98737e-05
4.29942e-05
4.29856e-05
0.000214615
4.29987e-05
4.299e-05
6.66895e-05
4.65219e-05
6.66773e-05
4.65213e-05
2.59924e-05
2.59922e-05
6.66983e-05
4.65184e-05
6.66875e-05
4.65176e-05
0.000231061
0.00023106
0.000231061
0.000231061
0.000231063
0.000231061
0.000231061
0.000153818
7.98483e-05
0.000229303
0.000224321
0.00015379
7.98706e-05
0.000229303
2.599e-05
2.59897e-05
0.000153821
0.000229303
7.98527e-05
0.000224319
0.000153793
0.000229303
7.98738e-05
4.29942e-05
4.29856e-05
0.000214615
4.29987e-05
4.299e-05
0.000234851
0.000233564
0.000233566
2.32576e-05
0.000214159
2.32565e-05
0.000214162
0.000234461
5.13489e-05
5.13309e-05
0.00022999
0.000229991
0.000235108
0.000234797
0.000234701
0.000234725
0.000235108
0.000234797
0.000234701
0.000234725
0.000234477
4.02628e-05
0.000218814
0.000147641
0.000234477
4.02623e-05
0.000218814
0.000147648
0.000233904
0.000234478
0.000100141
0.000234274
0.000233359
0.000234595
0.000228443
0.000233904
0.000234478
0.000100128
0.000234274
0.000233359
0.000234595
0.000228442
0.000234851
0.000233565
0.000233566
2.32573e-05
0.000214167
0.000234461
5.13408e-05
5.13365e-05
0.000229989
0.000229991
2.32571e-05
0.000214169
0.000235108
0.000234797
0.000234701
0.000234725
0.000235108
0.000234797
0.000234725
0.000234701
0.000234477
4.02596e-05
0.000218815
0.000147619
0.000233904
0.000234478
0.000100118
0.000234274
0.000233359
0.000234595
0.00022844
0.000234477
4.02591e-05
0.000218816
0.000147633
0.000233904
0.000234478
0.000234274
0.000100127
0.000234595
0.000233359
0.000228442
0.000234729
0.000234745
0.000234728
0.000234728
0.000234729
0.000234745
0.000234728
0.000234728
0.000234729
0.000234745
0.000234728
0.000234728
0.000234586
0.000234572
0.000234258
0.000234258
0.000234588
0.000234588
0.000234256
0.000234586
0.000234572
0.000234258
0.000234258
0.000234588
0.000234588
0.000234256
0.000234586
0.000234572
0.000234258
0.000234258
0.000234588
0.000234588
0.000234256
0.000234586
0.000234572
0.000234258
0.000234258
0.000234588
0.000234588
0.000234256
0.000235108
0.000234797
0.000234725
0.000234701
0.000233904
0.000234478
0.000100123
0.000234274
0.00023336
0.000234595
0.000228441
0.000234477
4.02603e-05
0.000218818
0.000147634
0.000233904
0.000234478
0.000234274
0.000100134
0.000234595
0.00023336
0.000228442
0.000234477
4.02599e-05
0.000218816
0.000147641
0.000234851
0.000233566
0.000233566
2.32565e-05
0.000214163
0.000234461
5.1335e-05
5.1337e-05
0.000229992
0.000229993
2.32569e-05
0.000214171
0.000235108
0.000234797
0.000234725
0.000234701
0.000233904
0.000234478
0.000234274
0.000100128
0.000234595
0.00023336
0.000228441
0.000233904
0.000234478
0.000234274
0.000100118
0.000234595
0.000233359
0.00022844
0.000234477
4.02594e-05
0.000218818
0.00014762
0.000234477
4.02593e-05
0.000218814
0.000147607
0.000234461
5.13414e-05
5.13295e-05
0.000229992
0.000229992
2.3257e-05
0.000214169
2.32565e-05
0.000214164
2.1684e-05
2.28269e-05
2.16827e-05
2.28254e-05
4.776e-05
4.77481e-05
0.000231286
4.40287e-05
4.40135e-05
2.44798e-05
2.33074e-05
2.44782e-05
2.33061e-05
0.000229757
4.00096e-05
3.99941e-05
4.30399e-05
4.30266e-05
0.000104658
3.87452e-05
0.000129429
3.98109e-05
0.00020608
9.3637e-05
0.000233971
0.000231944
0.000222833
8.72602e-05
0.000233593
0.000206083
9.36222e-05
0.000233971
0.000231941
0.00022283
8.72449e-05
0.000233593
9.90269e-05
4.19522e-05
4.03804e-05
8.49833e-05
9.90192e-05
4.19508e-05
4.03792e-05
8.49853e-05
0.00020056
0.000230749
8.08474e-05
0.00023273
8.56395e-05
0.000233174
0.000185006
0.000200559
0.000230744
8.08346e-05
0.00023273
8.56249e-05
0.000233174
0.000185009
4.77515e-05
4.77564e-05
0.000231287
4.40176e-05
4.40244e-05
2.16836e-05
2.28268e-05
2.4479e-05
2.33065e-05
0.000229757
3.99991e-05
4.00042e-05
4.30302e-05
4.30336e-05
2.44799e-05
2.33077e-05
0.000206072
9.3616e-05
0.000233971
0.000231942
0.000222832
8.72409e-05
0.000233593
0.00010464
3.87418e-05
0.000129459
3.98084e-05
0.000206073
0.000233971
9.36185e-05
0.00023194
0.000222837
0.000233593
8.72419e-05
9.90205e-05
4.19485e-05
4.03768e-05
8.49838e-05
0.000200557
0.000230746
8.08303e-05
0.00023273
8.56234e-05
0.000233174
0.000185004
9.90209e-05
4.19476e-05
4.03763e-05
8.4983e-05
0.000200557
0.000230744
0.00023273
8.08293e-05
0.000233174
8.56198e-05
0.000185001
0.000104646
3.87427e-05
0.000129447
3.98113e-05
0.000206077
0.00023397
9.36296e-05
0.000231944
0.000222843
0.000233593
8.7255e-05
0.000104642
3.87432e-05
0.000129468
3.98099e-05
0.000200561
0.000230751
8.08438e-05
0.00023273
8.56358e-05
0.000233175
0.000185007
9.90226e-05
4.19507e-05
4.03781e-05
8.49832e-05
0.000200562
0.000230748
0.00023273
8.0843e-05
0.000233174
8.5635e-05
0.000185006
9.90306e-05
4.19498e-05
4.03782e-05
8.49817e-05
4.77471e-05
4.77577e-05
0.000231285
4.40141e-05
4.40283e-05
2.1683e-05
2.28261e-05
2.44775e-05
2.33054e-05
0.000229757
3.99941e-05
4.00075e-05
4.30268e-05
4.30358e-05
2.4479e-05
2.33065e-05
0.000206069
0.000233971
9.36164e-05
0.000231941
0.000222841
0.000233593
8.72432e-05
0.000104625
3.87422e-05
0.000129476
3.981e-05
0.000104621
3.87417e-05
0.000129462
3.9809e-05
0.000200559
0.000230751
0.00023273
8.08432e-05
0.000233175
8.56337e-05
0.000185003
0.00020056
0.000230746
0.00023273
8.08337e-05
0.000233174
8.56235e-05
0.000185001
9.90363e-05
4.19494e-05
4.03778e-05
8.49821e-05
9.9036e-05
4.19487e-05
4.03764e-05
8.49794e-05
2.16835e-05
2.28261e-05
2.16826e-05
2.28255e-05
0.000229757
4.00058e-05
3.99947e-05
4.30416e-05
4.30268e-05
2.44792e-05
2.33068e-05
2.44783e-05
2.33061e-05
2.47753e-05
2.54716e-05
2.47734e-05
2.54699e-05
3.89892e-05
3.89756e-05
0.000219304
3.65096e-05
3.6498e-05
2.59126e-05
2.56422e-05
2.59114e-05
2.56402e-05
0.00021667
3.4514e-05
3.44999e-05
3.53759e-05
3.53639e-05
7.21758e-05
4.24232e-05
8.1818e-05
4.37728e-05
0.000167209
7.93028e-05
0.000232153
0.000225822
0.000180547
7.45782e-05
0.000231308
0.000167213
7.92913e-05
0.000232153
0.000225817
0.000180549
7.45666e-05
0.000231307
6.87044e-05
4.51872e-05
4.41811e-05
6.36566e-05
6.87081e-05
4.51867e-05
4.41796e-05
6.36584e-05
0.000161942
0.000223578
6.95533e-05
0.000229457
7.25327e-05
0.000230306
0.000152003
0.000161948
0.000223572
6.95412e-05
0.000229456
7.25209e-05
0.000230306
0.000152005
3.89796e-05
3.89841e-05
0.000219306
3.65011e-05
3.65076e-05
2.47755e-05
2.54716e-05
2.59124e-05
2.56412e-05
0.000216671
3.45043e-05
3.451e-05
3.53671e-05
3.53709e-05
2.5913e-05
2.56422e-05
0.000167206
7.9289e-05
0.000232153
0.000225821
0.000180541
7.45649e-05
0.000231307
7.21658e-05
4.242e-05
8.18037e-05
4.3769e-05
0.000167204
0.000232152
7.92862e-05
0.000225815
0.000180539
0.000231307
7.45612e-05
6.87057e-05
4.5184e-05
4.41778e-05
6.36548e-05
0.00016194
0.000223577
6.95397e-05
0.000229456
7.25191e-05
0.000230306
0.000152
6.8704e-05
4.51827e-05
4.41759e-05
6.36538e-05
0.000161936
0.000223569
0.000229455
6.95392e-05
0.000230304
7.25148e-05
0.000151996
7.21698e-05
4.24227e-05
8.18143e-05
4.37725e-05
0.000167208
0.000232153
7.9301e-05
0.000225821
0.000180546
0.000231307
7.45726e-05
7.21723e-05
4.24221e-05
8.18101e-05
4.37711e-05
0.000161946
0.000223583
6.95539e-05
0.000229458
7.25306e-05
0.000230307
0.000152004
6.87106e-05
4.51861e-05
4.41794e-05
6.36554e-05
0.000161944
0.000223577
0.000229456
6.95463e-05
0.000230306
7.25263e-05
0.000152001
6.87078e-05
4.51849e-05
4.41781e-05
6.3654e-05
3.89755e-05
3.89876e-05
0.000219301
3.64978e-05
3.65072e-05
2.47745e-05
2.54704e-05
2.59101e-05
2.56394e-05
0.000216668
3.45011e-05
3.45108e-05
3.5361e-05
3.53733e-05
2.5912e-05
2.56408e-05
0.000167207
0.000232153
7.929e-05
0.000225819
0.000180545
0.000231307
7.45631e-05
7.21662e-05
4.24217e-05
8.18041e-05
4.37713e-05
7.21732e-05
4.24204e-05
8.18071e-05
4.37701e-05
0.000161938
0.000223581
0.000229456
6.9548e-05
0.000230306
7.25274e-05
0.000151997
0.000161942
0.000223577
0.000229456
6.95388e-05
0.000230306
7.25178e-05
0.000151999
6.87048e-05
4.5185e-05
4.41781e-05
6.36548e-05
6.87062e-05
4.51837e-05
4.41767e-05
6.36551e-05
2.47744e-05
2.54702e-05
2.47736e-05
2.54695e-05
0.000216668
3.45095e-05
3.44997e-05
3.53716e-05
3.53622e-05
2.59118e-05
2.56406e-05
2.59111e-05
2.56399e-05
2.59451e-05
2.59758e-05
2.59432e-05
2.59745e-05
3.50144e-05
3.5005e-05
0.000210674
3.82722e-05
3.82588e-05
2.59886e-05
2.59814e-05
2.59869e-05
2.59794e-05
0.000211035
4.21493e-05
4.21364e-05
3.97198e-05
3.97106e-05
6.44731e-05
4.54643e-05
6.289e-05
4.61168e-05
0.000150304
6.98387e-05
0.000228987
0.000221988
0.000150083
7.33567e-05
0.000228881
0.000150304
6.98321e-05
0.000228986
0.000221984
0.000150085
7.33477e-05
0.000228881
6.50282e-05
4.64737e-05
4.6261e-05
6.61884e-05
6.50278e-05
4.6474e-05
4.62604e-05
6.61884e-05
0.000150911
0.000222755
7.84662e-05
0.000229096
7.50898e-05
0.000228969
0.000152816
0.00015091
0.000222752
7.84642e-05
0.000229096
7.50792e-05
0.000228969
0.000152815
3.5009e-05
3.50101e-05
0.000210678
3.82631e-05
3.82684e-05
2.59455e-05
2.59761e-05
2.59881e-05
2.59806e-05
0.000211036
4.21393e-05
4.21474e-05
3.97131e-05
3.97167e-05
2.59886e-05
2.59816e-05
0.000150295
6.98288e-05
0.000228986
0.000221989
0.000150078
7.33462e-05
0.00022888
6.44618e-05
4.54604e-05
6.28862e-05
4.61124e-05
0.000150295
0.000228985
6.98243e-05
0.000221981
0.000150077
0.00022888
7.33431e-05
6.50291e-05
4.6471e-05
4.62579e-05
6.61909e-05
0.000150905
0.000222757
7.84583e-05
0.000229096
7.50774e-05
0.000228969
0.000152811
6.50296e-05
4.6469e-05
4.62562e-05
6.61906e-05
0.000150905
0.000222749
0.000229095
7.84516e-05
0.000228968
7.50755e-05
0.00015281
6.44698e-05
4.5464e-05
6.2887e-05
4.61163e-05
0.000150301
0.000228986
6.98376e-05
0.000221986
0.000150083
0.000228881
7.33521e-05
6.44704e-05
4.54624e-05
6.28863e-05
4.61145e-05
0.00015091
0.000222762
7.84674e-05
0.000229097
7.50894e-05
0.00022897
0.000152815
6.5025e-05
4.64732e-05
4.62602e-05
6.61875e-05
0.000150911
0.000222754
0.000229096
7.84663e-05
0.000228969
7.50831e-05
0.000152814
6.50254e-05
4.64716e-05
4.62581e-05
6.61869e-05
3.50013e-05
3.50152e-05
0.000210671
3.82582e-05
3.82703e-05
2.5944e-05
2.59752e-05
2.59857e-05
2.59787e-05
0.000211031
4.21356e-05
4.21464e-05
3.97054e-05
3.97205e-05
2.59877e-05
2.59802e-05
0.000150298
0.000228986
6.98306e-05
0.000221989
0.000150079
0.00022888
7.33449e-05
6.44624e-05
4.54623e-05
6.28868e-05
4.61143e-05
6.4461e-05
4.54613e-05
6.28864e-05
4.61137e-05
0.000150908
0.000222759
0.000229097
7.84665e-05
0.000228969
7.50824e-05
0.000152814
0.000150907
0.000222757
0.000229096
7.846e-05
0.000228968
7.50754e-05
0.000152815
6.50302e-05
4.64713e-05
4.62578e-05
6.61915e-05
6.50291e-05
4.64709e-05
4.62573e-05
6.6191e-05
2.59438e-05
2.5975e-05
2.59431e-05
2.59742e-05
0.000211034
4.21458e-05
4.21365e-05
3.97186e-05
3.97096e-05
2.59876e-05
2.598e-05
2.59867e-05
2.59792e-05
2.59916e-05
2.59928e-05
2.59898e-05
2.59914e-05
4.24951e-05
4.24894e-05
0.000214411
4.29076e-05
4.29029e-05
2.59933e-05
2.59933e-05
2.59915e-05
2.59915e-05
0.000214376
4.2987e-05
4.29824e-05
4.29453e-05
4.2942e-05
6.66039e-05
4.65005e-05
6.63707e-05
4.65213e-05
0.000153649
7.90269e-05
0.000229195
0.00022413
0.00015308
7.96809e-05
0.000229251
0.000153648
7.90245e-05
0.000229194
0.000224128
0.000153079
7.96809e-05
0.00022925
6.66322e-05
4.65217e-05
4.65224e-05
6.667e-05
6.66319e-05
4.6522e-05
4.65227e-05
6.66698e-05
0.000153669
0.000224239
7.98447e-05
0.000229295
7.97547e-05
0.00022928
0.000153777
0.000153669
0.000224237
7.98436e-05
0.000229294
7.97546e-05
0.000229279
0.000153777
4.24911e-05
4.24935e-05
0.000214414
4.29042e-05
4.29059e-05
2.59916e-05
2.59927e-05
2.59925e-05
2.59926e-05
0.000214378
4.29832e-05
4.29791e-05
4.29427e-05
4.29421e-05
2.59929e-05
2.5993e-05
0.000153648
7.90183e-05
0.000229195
0.000224133
0.000153077
7.96752e-05
0.000229251
6.66085e-05
4.64957e-05
6.63747e-05
4.65162e-05
0.000153646
0.000229194
7.90125e-05
0.000224125
0.000153075
0.00022925
7.96648e-05
6.66382e-05
4.65188e-05
4.65196e-05
6.66768e-05
0.000153669
0.000224242
7.98393e-05
0.000229294
7.97493e-05
0.000229279
0.000153777
6.66365e-05
4.65169e-05
4.65177e-05
6.66749e-05
0.000153666
0.000224234
0.000229293
7.9827e-05
0.000229278
7.97388e-05
0.000153775
6.66032e-05
4.64999e-05
6.637e-05
4.65204e-05
0.000153647
0.000229195
7.90261e-05
0.000224129
0.000153079
0.000229251
7.96825e-05
6.66024e-05
4.64981e-05
6.63692e-05
4.65188e-05
0.000153669
0.000224243
7.98429e-05
0.000229295
7.97553e-05
0.00022928
0.000153777
6.66312e-05
4.65211e-05
4.6522e-05
6.66691e-05
0.000153668
0.000224237
0.000229295
7.98449e-05
0.000229279
7.9756e-05
0.000153775
6.66303e-05
4.65195e-05
4.65202e-05
6.66682e-05
4.24813e-05
4.2498e-05
0.000214409
4.28934e-05
4.29111e-05
2.59907e-05
2.59921e-05
2.59899e-05
2.599e-05
0.000214373
4.29685e-05
4.29894e-05
4.29299e-05
4.29494e-05
2.59922e-05
2.59923e-05
0.00015365
0.000229194
7.90201e-05
0.000224133
0.000153079
0.000229251
7.96772e-05
6.66094e-05
4.64978e-05
6.63755e-05
4.65185e-05
6.66094e-05
4.64974e-05
6.63752e-05
4.65182e-05
0.000153669
0.000224241
0.000229294
7.98451e-05
0.000229279
7.9757e-05
0.000153779
0.00015367
0.000224242
0.000229295
7.98399e-05
0.000229279
7.97507e-05
0.000153779
6.66373e-05
4.65192e-05
4.65199e-05
6.66757e-05
6.66373e-05
4.65189e-05
4.65196e-05
6.66758e-05
2.59905e-05
2.59919e-05
2.59897e-05
2.59911e-05
0.000214376
4.29897e-05
4.29809e-05
4.29494e-05
4.29407e-05
2.59921e-05
2.59921e-05
2.59912e-05
2.59913e-05
2.59934e-05
2.59933e-05
2.59915e-05
2.59913e-05
4.29891e-05
4.29841e-05
0.000214613
4.29958e-05
4.29891e-05
2.59933e-05
2.59934e-05
2.59913e-05
2.59914e-05
0.000214536
4.2999e-05
4.2991e-05
4.29946e-05
4.29877e-05
6.66844e-05
4.6522e-05
6.66671e-05
4.65214e-05
0.000153806
7.9836e-05
0.000229301
0.00022431
0.000153763
7.98666e-05
0.000229302
0.000153807
7.98348e-05
0.000229301
0.000224309
0.000153763
7.98642e-05
0.000229302
6.66777e-05
4.6521e-05
4.65213e-05
6.66885e-05
6.66777e-05
4.65211e-05
4.65215e-05
6.66887e-05
0.000153785
0.000224313
7.98733e-05
0.000229303
7.98521e-05
0.000229304
0.000153816
0.000153785
0.000224312
7.98698e-05
0.000229303
7.98494e-05
0.000229303
0.000153816
4.29846e-05
4.29803e-05
0.000214615
4.29895e-05
4.29872e-05
2.5993e-05
2.59927e-05
2.59923e-05
2.59925e-05
0.000214537
4.29914e-05
4.29879e-05
4.29877e-05
4.29839e-05
2.59927e-05
2.59929e-05
0.000153808
7.98305e-05
0.000229301
0.000224314
0.000153764
7.98594e-05
0.000229302
6.66895e-05
4.6517e-05
6.66728e-05
4.65162e-05
0.000153805
0.0002293
7.98174e-05
0.000224306
0.000153761
0.000229301
7.98476e-05
6.66866e-05
4.65178e-05
4.65182e-05
6.66968e-05
0.000153787
0.000224316
7.98645e-05
0.000229303
7.98449e-05
0.000229304
0.000153819
6.66843e-05
4.65159e-05
4.65163e-05
6.66944e-05
0.000153784
0.000224308
0.000229302
7.98527e-05
0.000229302
7.98315e-05
0.000153815
6.66834e-05
4.65212e-05
6.66663e-05
4.65205e-05
0.000153805
0.000229301
7.98361e-05
0.00022431
0.000153762
0.000229302
7.98659e-05
6.66829e-05
4.65195e-05
6.66654e-05
4.65189e-05
0.000153786
0.000224317
7.98691e-05
0.000229303
7.98481e-05
0.000229304
0.000153816
6.66767e-05
4.65201e-05
4.65206e-05
6.66878e-05
0.000153784
0.000224313
0.000229303
7.98714e-05
0.000229303
7.9851e-05
0.000153814
6.66761e-05
4.65186e-05
4.6519e-05
6.66873e-05
4.29696e-05
4.29908e-05
0.000214609
4.29759e-05
4.2996e-05
2.59923e-05
2.59921e-05
2.59897e-05
2.59899e-05
0.000214532
4.29771e-05
4.29979e-05
4.2973e-05
4.29944e-05
2.59921e-05
2.59922e-05
0.00015381
0.000229301
7.98309e-05
0.000224314
0.000153766
0.000229302
7.98608e-05
6.66905e-05
4.65193e-05
6.66736e-05
4.65187e-05
6.66907e-05
4.65189e-05
6.66737e-05
4.65183e-05
0.000153788
0.000224315
0.000229303
7.9872e-05
0.000229304
7.98518e-05
0.000153819
0.000153789
0.000224317
0.000229303
7.98663e-05
0.000229304
7.98457e-05
0.000153821
6.66853e-05
4.65183e-05
4.65187e-05
6.66955e-05
6.66856e-05
4.6518e-05
4.65183e-05
6.66958e-05
2.59922e-05
2.5992e-05
2.59913e-05
2.59911e-05
0.000214537
4.29982e-05
4.29895e-05
4.29947e-05
4.29861e-05
2.59919e-05
2.5992e-05
2.59911e-05
2.59912e-05
2.59936e-05
2.59935e-05
2.59914e-05
2.59913e-05
4.2997e-05
4.2989e-05
0.000214614
4.30002e-05
4.29914e-05
2.59935e-05
2.59936e-05
2.59913e-05
2.59914e-05
0.000214535
4.30008e-05
4.29915e-05
4.29981e-05
4.29894e-05
6.66898e-05
4.65212e-05
6.66808e-05
4.65211e-05
0.000153818
7.98572e-05
0.000229303
0.000224315
0.000153794
7.98757e-05
0.000229303
0.000153819
7.98533e-05
0.000229302
0.000224314
0.000153795
7.9871e-05
0.000229303
6.66811e-05
4.6521e-05
4.65211e-05
6.66894e-05
6.66815e-05
4.6521e-05
4.65212e-05
6.66899e-05
0.000153797
0.000224316
7.98768e-05
0.000229303
7.98593e-05
0.000229303
0.000153818
0.000153798
0.000224315
7.98713e-05
0.000229303
7.98542e-05
0.000229303
0.000153819
4.29889e-05
4.29843e-05
0.000214616
4.29914e-05
4.29883e-05
2.59928e-05
2.59927e-05
2.59921e-05
2.59922e-05
0.000214537
4.29918e-05
4.29881e-05
4.2989e-05
4.29848e-05
2.59927e-05
2.59928e-05
0.000153822
7.98482e-05
0.000229303
0.000224319
0.000153798
7.98656e-05
0.000229303
6.66957e-05
4.6516e-05
6.66879e-05
4.65158e-05
0.000153818
0.000229302
7.98351e-05
0.000224311
0.000153794
0.000229302
7.98541e-05
6.66912e-05
4.65177e-05
4.65179e-05
6.66983e-05
0.000153801
0.00022432
7.98657e-05
0.000229303
7.98491e-05
0.000229304
0.000153822
6.66888e-05
4.65157e-05
4.6516e-05
6.66959e-05
0.000153797
0.000224312
0.000229302
7.98543e-05
0.000229302
7.98361e-05
0.000153819
6.66888e-05
4.65203e-05
6.66799e-05
4.652e-05
0.000153817
0.000229303
7.9855e-05
0.000224315
0.000153794
0.000229303
7.98729e-05
6.66885e-05
4.65187e-05
6.66794e-05
4.65184e-05
0.000153796
0.000224321
7.98705e-05
0.000229304
7.98526e-05
0.000229304
0.000153817
6.66806e-05
4.652e-05
4.65202e-05
6.6689e-05
0.000153796
0.000224316
0.000229303
7.98731e-05
0.000229303
7.9856e-05
0.000153818
6.66802e-05
4.65184e-05
4.65186e-05
6.66886e-05
4.29738e-05
4.29958e-05
0.000214611
4.29774e-05
4.29985e-05
2.59922e-05
2.5992e-05
2.59897e-05
2.59899e-05
0.000214532
4.29775e-05
4.29986e-05
4.29741e-05
4.29962e-05
2.5992e-05
2.59921e-05
0.000153824
0.000229303
7.98497e-05
0.000224319
0.000153799
0.000229303
7.98679e-05
6.66967e-05
4.65184e-05
6.66891e-05
4.65182e-05
6.66972e-05
4.6518e-05
6.66894e-05
4.65178e-05
0.000153799
0.000224319
0.000229303
7.98737e-05
0.000229303
7.98569e-05
0.000153819
0.000153802
0.00022432
0.000229303
7.98681e-05
0.000229303
7.98507e-05
0.000153823
6.66898e-05
4.65182e-05
4.65183e-05
6.66969e-05
6.66902e-05
4.65178e-05
4.6518e-05
6.66973e-05
2.5992e-05
2.59919e-05
2.59912e-05
2.5991e-05
0.000214536
4.29987e-05
4.299e-05
4.29963e-05
4.29877e-05
2.59919e-05
2.5992e-05
2.5991e-05
2.59911e-05
2.59936e-05
2.59935e-05
2.59913e-05
2.59913e-05
4.29985e-05
4.29894e-05
0.000214615
4.30009e-05
4.29915e-05
2.59935e-05
2.59936e-05
2.59913e-05
2.59913e-05
0.000214536
4.30003e-05
4.29915e-05
4.29981e-05
4.29894e-05
6.66901e-05
4.65211e-05
6.66817e-05
4.6521e-05
0.000153819
7.986e-05
0.000229303
0.000224316
0.000153796
7.98771e-05
0.000229303
0.00015382
7.98544e-05
0.000229303
0.000224315
0.000153797
7.98714e-05
0.000229303
6.66812e-05
4.6521e-05
4.65211e-05
6.66895e-05
6.66818e-05
4.6521e-05
4.65211e-05
6.669e-05
0.000153796
0.000224316
7.98771e-05
0.000229303
7.98603e-05
0.000229303
0.000153818
0.000153797
0.000224315
7.98714e-05
0.000229303
7.98545e-05
0.000229303
0.00015382
4.29892e-05
4.29845e-05
0.000214617
4.29916e-05
4.29881e-05
2.59928e-05
2.59927e-05
2.59922e-05
2.59923e-05
0.000214537
4.29917e-05
4.29882e-05
4.29892e-05
4.29846e-05
2.59927e-05
2.59928e-05
0.000153822
7.9849e-05
0.000229304
0.000224319
0.0001538
7.98655e-05
0.000229303
6.66959e-05
4.65159e-05
6.6689e-05
4.65157e-05
0.000153819
0.000229302
7.98362e-05
0.000224311
0.000153797
0.000229302
7.98543e-05
6.66914e-05
4.65177e-05
4.65179e-05
6.66983e-05
0.0001538
0.00022432
7.98654e-05
0.000229303
7.98489e-05
0.000229304
0.000153822
6.6689e-05
4.65157e-05
4.65159e-05
6.66959e-05
0.000153796
0.000224312
0.000229302
7.98543e-05
0.000229302
7.98362e-05
0.000153819
6.66891e-05
4.65202e-05
6.66807e-05
4.652e-05
0.000153818
0.000229303
7.98561e-05
0.000224315
0.000153796
0.000229303
7.98732e-05
6.66887e-05
4.65185e-05
6.66803e-05
4.65184e-05
0.000153797
0.000224321
7.98706e-05
0.000229304
7.98527e-05
0.000229304
0.000153817
6.66808e-05
4.652e-05
4.65202e-05
6.66891e-05
0.000153796
0.000224316
0.000229303
7.98731e-05
0.000229303
7.98561e-05
0.000153818
6.66803e-05
4.65184e-05
4.65185e-05
6.66886e-05
4.2974e-05
4.29963e-05
0.000214612
4.29774e-05
4.29986e-05
2.59921e-05
2.5992e-05
2.59897e-05
2.59899e-05
0.000214532
4.29774e-05
4.29987e-05
4.29741e-05
4.29963e-05
2.5992e-05