/*--------------------------------*- C++ -*----------------------------------*\
| =========                 |                                                 |
| \\      /  F ield         | OpenFOAM: The Open Source CFD Toolbox           |
|  \\    /   O peration     | Version:  2206                                  |
|   \\  /    A nd           | Website:  www.openfoam.com                      |
|    \\/     M anipulation  |                                                 |
\*---------------------------------------------------------------------------*/
FoamFile
{
    version     2.0;
    format      ascii;
    arch        "LSB;label=32;scalar=64";
    class       volVectorField;
    location    "12";
    object      U;
}
// * * * * * * * * * * * * * * * * * * * * * * * * * * * * * * * * * * * * * //

dimensions      [0 1 -1 0 0 0 0];

internalField   nonuniform List<vector> 
28688
(
(0.000107808 0.000107744 0.1003)
(-0.000187891 0.000117474 0.100387)
(0.00011756 -0.000187894 0.100387)
(-0.000237959 -0.00023798 0.100396)
(9.14662e-05 9.14338e-05 0.100848)
(-0.000165577 0.000102171 0.100938)
(0.000102177 -0.000165577 0.100938)
(-0.000192903 -0.000192952 0.100971)
(6.7318e-05 6.7269e-05 0.101329)
(-9.2468e-05 5.53032e-05 0.101392)
(5.53302e-05 -9.2471e-05 0.101393)
(-0.000138263 -0.000138293 0.10142)
(1.13214e-05 1.1304e-05 0.101465)
(-1.3747e-05 9.53598e-06 0.101471)
(9.54603e-06 -1.37451e-05 0.101471)
(-4.83744e-05 -4.8396e-05 0.101466)
(4.64152e-07 4.66208e-07 0.101476)
(-1.17272e-06 1.06211e-06 0.101471)
(1.05666e-06 -1.17327e-06 0.101471)
(-3.74992e-05 -3.75135e-05 0.101459)
(-3.85741e-07 -3.77835e-07 0.101477)
(-3.161e-07 5.04065e-07 0.10147)
(4.92306e-07 -3.16764e-07 0.10147)
(-3.6966e-05 -3.6979e-05 0.101459)
(-4.26718e-07 -4.22451e-07 0.101477)
(-2.87801e-07 4.73553e-07 0.10147)
(4.71039e-07 -2.89538e-07 0.10147)
(-3.69463e-05 -3.69604e-05 0.101459)
(-4.27411e-07 -4.25021e-07 0.101477)
(-2.87116e-07 4.72677e-07 0.10147)
(4.70412e-07 -2.88594e-07 0.10147)
(-3.69446e-05 -3.69603e-05 0.101459)
(-4.29779e-07 -4.27868e-07 0.101477)
(-2.86242e-07 4.70955e-07 0.10147)
(4.69468e-07 -2.87772e-07 0.10147)
(-3.6944e-05 -3.69601e-05 0.101459)
(-4.27998e-07 -4.25136e-07 0.101477)
(-2.86557e-07 4.72489e-07 0.10147)
(4.70443e-07 -2.88474e-07 0.10147)
(-3.69444e-05 -3.69606e-05 0.101459)
(-4.24958e-07 -4.20515e-07 0.101477)
(-2.85985e-07 4.72766e-07 0.10147)
(4.69932e-07 -2.87758e-07 0.10147)
(-3.69424e-05 -3.69591e-05 0.101459)
(-4.2969e-07 -4.29802e-07 0.101477)
(-2.85758e-07 4.67008e-07 0.10147)
(4.70686e-07 -2.89452e-07 0.10147)
(-3.69352e-05 -3.69531e-05 0.101459)
(0.000136088 0.000136077 0.100282)
(0.000124552 0.000153231 0.100228)
(-0.000124546 0.000153213 0.100228)
(-0.000136083 0.000136043 0.100282)
(0.000153269 0.000124499 0.100228)
(0.000153239 -0.000124519 0.100228)
(9.04876e-05 9.04289e-05 0.10015)
(-9.0476e-05 9.04277e-05 0.10015)
(9.04579e-05 -9.04817e-05 0.10015)
(-9.04536e-05 -9.04807e-05 0.10015)
(-0.000153267 0.000124502 0.100228)
(-0.000153245 -0.000124514 0.100228)
(0.000136078 -0.000136099 0.100282)
(0.000124501 -0.000153268 0.100228)
(-0.000124498 -0.000153252 0.100228)
(-0.000136086 -0.000136072 0.100282)
(0.000238003 0.000237972 0.100396)
(0.000111473 0.000111346 0.1009)
(0.000117609 0.000187796 0.100387)
(-0.000117552 0.000187837 0.100387)
(8.42857e-05 0.000142671 0.100826)
(-8.42478e-05 0.000142672 0.100826)
(-0.000238016 0.000237928 0.100396)
(-0.000111432 0.000111304 0.1009)
(0.000187932 0.000117505 0.100387)
(0.000187873 -0.000117568 0.100387)
(0.000142652 8.42493e-05 0.100826)
(0.000142682 -8.42787e-05 0.100826)
(-0.000187859 -0.000117573 0.100387)
(-0.000142618 8.42513e-05 0.100826)
(-0.000142644 -8.42727e-05 0.100826)
(0.000237934 -0.000238025 0.100396)
(0.000111428 -0.000111441 0.100901)
(-0.000117539 -0.00018792 0.100387)
(8.42621e-05 -0.000142618 0.100826)
(-8.42426e-05 -0.000142643 0.100826)
(-0.000111426 -0.000111444 0.100901)
(0.000192986 0.00019282 0.100971)
(8.04045e-05 8.02881e-05 0.101381)
(0.000102182 0.000165615 0.100938)
(-0.000102159 0.00016562 0.100938)
(7.44352e-05 0.000125199 0.101313)
(-7.44236e-05 0.000125191 0.101313)
(-0.000192949 0.000192784 0.10097)
(-8.03987e-05 8.02683e-05 0.101381)
(0.000165611 0.000102164 0.100938)
(0.000165626 -0.000102182 0.100938)
(0.000125184 7.44437e-05 0.101313)
(0.000125211 -7.44481e-05 0.101313)
(-0.000165595 -0.000102174 0.100938)
(-0.000125167 7.44408e-05 0.101313)
(-0.000125177 -7.44401e-05 0.101313)
(0.000192899 -0.000192961 0.100971)
(8.0352e-05 -8.03789e-05 0.101381)
(-0.00010216 -0.000165598 0.100938)
(7.44595e-05 -0.000125179 0.101313)
(-7.44583e-05 -0.000125198 0.101313)
(-8.03456e-05 -8.03688e-05 0.101381)
(0.000138343 0.000138201 0.10142)
(-2.23596e-05 -2.237e-05 0.101468)
(5.53614e-05 9.24968e-05 0.101392)
(-5.53485e-05 9.24761e-05 0.101393)
(1.62163e-05 2.41759e-05 0.101468)
(-1.62145e-05 2.4189e-05 0.101468)
(-0.000138321 0.000138175 0.10142)
(2.23618e-05 -2.23725e-05 0.101468)
(9.24823e-05 5.53152e-05 0.101393)
(9.25068e-05 -5.5374e-05 0.101393)
(2.41986e-05 1.61792e-05 0.101468)
(2.42076e-05 -1.62161e-05 0.101468)
(-9.24822e-05 -5.53478e-05 0.101393)
(-2.4194e-05 1.61806e-05 0.101468)
(-2.41905e-05 -1.62113e-05 0.101468)
(0.000138251 -0.000138316 0.10142)
(-2.23433e-05 2.23769e-05 0.101468)
(-5.53143e-05 -9.24898e-05 0.101393)
(1.6194e-05 -2.41894e-05 0.101468)
(-1.61924e-05 -2.41956e-05 0.101468)
(2.23548e-05 2.23682e-05 0.101468)
(4.83931e-05 4.83505e-05 0.101466)
(-3.74494e-05 -3.74307e-05 0.10146)
(9.56441e-06 1.37408e-05 0.101471)
(-9.5646e-06 1.37511e-05 0.101471)
(1.72392e-06 2.13406e-06 0.101471)
(-1.72982e-06 2.14631e-06 0.101471)
(-4.83929e-05 4.8344e-05 0.101466)
(3.74513e-05 -3.74245e-05 0.10146)
(1.37513e-05 9.53681e-06 0.101471)
(1.37619e-05 -9.56594e-06 0.101471)
(2.1276e-06 1.71102e-06 0.101471)
(2.13793e-06 -1.7244e-06 0.101471)
(-1.37537e-05 -9.5633e-06 0.101471)
(-2.12738e-06 1.71334e-06 0.101471)
(-2.14048e-06 -1.72231e-06 0.101471)
(4.83663e-05 -4.84025e-05 0.101466)
(-3.74256e-05 3.74566e-05 0.10146)
(-9.545e-06 -1.37485e-05 0.101471)
(1.71064e-06 -2.12631e-06 0.101471)
(-1.71054e-06 -2.12664e-06 0.101471)
(3.74294e-05 3.74485e-05 0.10146)
(3.75049e-05 3.74865e-05 0.101459)
(-3.8271e-05 -3.82419e-05 0.101459)
(1.06797e-06 1.17976e-06 0.10147)
(-1.07721e-06 1.19269e-06 0.10147)
(5.30949e-07 3.69163e-07 0.10147)
(-5.44446e-07 3.83197e-07 0.10147)
(-3.75081e-05 3.74895e-05 0.101459)
(3.82672e-05 -3.8231e-05 0.101459)
(1.17458e-06 1.0588e-06 0.101471)
(1.18245e-06 -1.06995e-06 0.101471)
(3.5535e-07 5.26662e-07 0.10147)
(3.68367e-07 -5.3298e-07 0.10147)
(-1.18394e-06 -1.06723e-06 0.101471)
(-3.58698e-07 5.33683e-07 0.10147)
(-3.68896e-07 -5.2989e-07 0.10147)
(3.74853e-05 -3.75203e-05 0.101459)
(-3.82422e-05 3.82755e-05 0.101459)
(-1.05705e-06 -1.17043e-06 0.101471)
(5.21035e-07 -3.55671e-07 0.10147)
(-5.22118e-07 -3.55084e-07 0.10147)
(3.82456e-05 3.82674e-05 0.101459)
(3.69683e-05 3.69577e-05 0.101459)
(-3.82977e-05 -3.82699e-05 0.101459)
(5.01864e-07 3.29664e-07 0.10147)
(-5.15937e-07 3.43174e-07 0.10147)
(4.82717e-07 3.03253e-07 0.10147)
(-4.8368e-07 3.03518e-07 0.10147)
(-3.69775e-05 3.69651e-05 0.101459)
(3.82982e-05 -3.82724e-05 0.101459)
(3.17243e-07 4.97781e-07 0.10147)
(3.27805e-07 -5.0375e-07 0.10147)
(2.88541e-07 4.7665e-07 0.10147)
(3.01429e-07 -4.80982e-07 0.10147)
(-3.27506e-07 -5.00259e-07 0.10147)
(-2.88009e-07 4.75497e-07 0.10147)
(-3.00624e-07 -4.78911e-07 0.10147)
(3.69521e-05 -3.6985e-05 0.101459)
(-3.82721e-05 3.83059e-05 0.101459)
(-4.92617e-07 -3.13877e-07 0.10147)
(4.70517e-07 -2.87927e-07 0.10147)
(-4.6975e-07 -2.87619e-07 0.10147)
(3.8277e-05 3.82971e-05 0.101459)
(3.69544e-05 3.69408e-05 0.101459)
(-3.82965e-05 -3.82648e-05 0.101459)
(4.86119e-07 3.04153e-07 0.10147)
(-4.84271e-07 3.05832e-07 0.10147)
(4.89469e-07 3.04762e-07 0.10147)
(-4.8263e-07 3.0444e-07 0.10147)
(-3.69539e-05 3.69315e-05 0.101459)
(3.83004e-05 -3.82727e-05 0.101459)
(2.92143e-07 4.78427e-07 0.10147)
(3.01504e-07 -4.81247e-07 0.10147)
(2.87611e-07 4.77429e-07 0.10147)
(2.99696e-07 -4.79e-07 0.10147)
(-3.0002e-07 -4.79683e-07 0.10147)
(-2.8597e-07 4.73721e-07 0.10147)
(-2.97879e-07 -4.78727e-07 0.10147)
(3.69337e-05 -3.69657e-05 0.101459)
(-3.82731e-05 3.83072e-05 0.101459)
(-4.6994e-07 -2.8773e-07 0.10147)
(4.69159e-07 -2.85668e-07 0.10147)
(-4.67271e-07 -2.85853e-07 0.10147)
(3.82789e-05 3.82974e-05 0.101459)
(3.69534e-05 3.6939e-05 0.101459)
(-3.82984e-05 -3.8276e-05 0.101459)
(4.8536e-07 3.02142e-07 0.10147)
(-4.83251e-07 3.03509e-07 0.10147)
(4.84016e-07 2.98675e-07 0.10147)
(-4.829e-07 2.99484e-07 0.10147)
(-3.69527e-05 3.69319e-05 0.101459)
(3.83006e-05 -3.82758e-05 0.101459)
(2.90382e-07 4.74907e-07 0.10147)
(3.00322e-07 -4.80444e-07 0.10147)
(2.8649e-07 4.72109e-07 0.10147)
(2.986e-07 -4.79614e-07 0.10147)
(-2.98453e-07 -4.79877e-07 0.10147)
(-2.85823e-07 4.71574e-07 0.10147)
(-2.96865e-07 -4.78858e-07 0.10147)
(3.69328e-05 -3.69647e-05 0.101459)
(-3.82739e-05 3.8307e-05 0.101459)
(-4.68355e-07 -2.8689e-07 0.10147)
(4.68339e-07 -2.8508e-07 0.10147)
(-4.66633e-07 -2.85286e-07 0.10147)
(3.82797e-05 3.82978e-05 0.101459)
(3.69521e-05 3.69316e-05 0.101459)
(-3.82989e-05 -3.82753e-05 0.101459)
(4.82625e-07 2.97934e-07 0.10147)
(-4.83165e-07 3.01874e-07 0.10147)
(4.84021e-07 2.98702e-07 0.10147)
(-4.82497e-07 2.97034e-07 0.10147)
(-3.69522e-05 3.69286e-05 0.101459)
(3.83029e-05 -3.82751e-05 0.101459)
(2.9001e-07 4.72824e-07 0.10147)
(2.99581e-07 -4.80824e-07 0.10147)
(2.86537e-07 4.72536e-07 0.10147)
(2.99274e-07 -4.79113e-07 0.10147)
(-2.97155e-07 -4.79765e-07 0.10147)
(-2.85974e-07 4.72289e-07 0.10147)
(-2.96935e-07 -4.78686e-07 0.10147)
(3.6932e-05 -3.69648e-05 0.101459)
(-3.82735e-05 3.83073e-05 0.101459)
(-4.67636e-07 -2.8598e-07 0.10147)
(4.68369e-07 -2.84975e-07 0.10147)
(-4.66348e-07 -2.85437e-07 0.10147)
(3.82799e-05 3.82978e-05 0.101459)
(3.69535e-05 3.6935e-05 0.101459)
(-3.82935e-05 -3.82561e-05 0.101459)
(4.86874e-07 3.03015e-07 0.10147)
(-4.82993e-07 3.07641e-07 0.10147)
(4.95054e-07 3.12566e-07 0.10147)
(-4.81982e-07 2.98196e-07 0.10147)
(-3.69519e-05 3.69302e-05 0.101459)
(3.83066e-05 -3.82725e-05 0.101459)
(2.91224e-07 4.75845e-07 0.10147)
(3.00714e-07 -4.80579e-07 0.10147)
(2.88115e-07 4.82089e-07 0.10147)
(3.00045e-07 -4.78397e-07 0.10147)
(-2.9775e-07 -4.79967e-07 0.10147)
(-2.85045e-07 4.72937e-07 0.10147)
(-2.97115e-07 -4.79358e-07 0.10147)
(3.69332e-05 -3.69651e-05 0.101459)
(-3.82722e-05 3.8307e-05 0.101459)
(-4.67861e-07 -2.86675e-07 0.10147)
(4.69116e-07 -2.85228e-07 0.10147)
(-4.66798e-07 -2.86067e-07 0.10147)
(3.82791e-05 3.82965e-05 0.101459)
(3.69557e-05 3.69503e-05 0.101459)
(-3.82929e-05 -3.8272e-05 0.101459)
(4.94034e-07 3.10642e-07 0.10147)
(-4.82598e-07 3.09385e-07 0.10147)
(4.85405e-07 2.98243e-07 0.10147)
(-4.84993e-07 2.96422e-07 0.10147)
(-3.69483e-05 3.69278e-05 0.101459)
(3.83004e-05 -3.82706e-05 0.101459)
(2.91012e-07 4.80617e-07 0.10147)
(3.00586e-07 -4.79307e-07 0.10147)
(2.8575e-07 4.70443e-07 0.10147)
(2.97494e-07 -4.78134e-07 0.10147)
(-2.96957e-07 -4.79826e-07 0.10147)
(-2.85189e-07 4.71688e-07 0.10147)
(-2.94582e-07 -4.78591e-07 0.10147)
(3.69314e-05 -3.69628e-05 0.101459)
(-3.8271e-05 3.8304e-05 0.101459)
(-4.67227e-07 -2.86273e-07 0.10147)
(4.67162e-07 -2.83628e-07 0.10147)
(-4.64543e-07 -2.84277e-07 0.10147)
(3.82777e-05 3.82939e-05 0.101459)
(3.69471e-05 3.69243e-05 0.101459)
(-3.82871e-05 -3.82688e-05 0.101459)
(4.86192e-07 2.99653e-07 0.10147)
(-4.81093e-07 3.00779e-07 0.10147)
(4.79631e-07 2.80098e-07 0.10147)
(-3.6943e-05 3.69189e-05 0.101459)
(2.92725e-07 4.73568e-07 0.10147)
(3.00876e-07 -4.82243e-07 0.10147)
(2.74451e-07 4.62715e-07 0.10147)
(2.8615e-07 -4.74933e-07 0.10147)
(-2.97714e-07 -4.82377e-07 0.10147)
(-2.83018e-07 -4.75368e-07 0.10147)
(3.69241e-05 -3.69572e-05 0.101459)
(-3.82652e-05 3.82973e-05 0.101459)
(-4.67674e-07 -2.88573e-07 0.10147)
(4.62507e-07 -2.72752e-07 0.10147)
(-4.58516e-07 -2.75686e-07 0.10147)
(3.82717e-05 3.82867e-05 0.101459)
(-3.79932e-07 -3.824e-07 0.099999)
(1.69015e-05 1.68965e-05 0.100003)
(-4.66197e-07 1.38186e-05 0.1)
(1.38263e-05 -4.68412e-07 0.1)
(-4.70562e-05 5.68336e-06 0.100008)
(-1.54334e-05 1.57236e-05 0.1)
(-0.000128176 6.04728e-05 0.100057)
(-1.30499e-05 -8.60433e-07 0.0999957)
(5.67678e-06 -4.70428e-05 0.100008)
(1.57275e-05 -1.54341e-05 0.1)
(-8.58207e-07 -1.3049e-05 0.0999957)
(6.04873e-05 -0.000128106 0.100057)
(-1.91405e-05 -1.91434e-05 0.100003)
(-0.000135204 -8.10956e-05 0.100054)
(-8.11035e-05 -0.000135183 0.100054)
(-3.52699e-05 0.000132788 0.100719)
(0.000176251 0.000387065 0.0994302)
(2.29894e-06 0.000302524 0.100521)
(-8.23614e-05 0.000241119 0.0991327)
(-0.000301881 0.000835213 0.0977959)
(-0.000131176 0.000302192 0.0957031)
(0.000132521 -3.54079e-05 0.10072)
(0.000387676 0.000175211 0.0994309)
(0.000303261 2.15887e-06 0.100521)
(0.000241279 -8.22639e-05 0.0991332)
(-0.000107794 0.000107747 0.1003)
(0.000107782 -0.00010779 0.1003)
(-0.000107775 -0.000107797 0.1003)
(8.76402e-05 8.75802e-05 0.100739)
(-8.75965e-05 8.75939e-05 0.100739)
(8.76377e-05 -8.76441e-05 0.100739)
(-8.76195e-05 -8.76503e-05 0.100739)
(-0.000279464 6.18031e-06 0.100753)
(-0.000394345 0.000227913 0.100534)
(-0.000173875 3.75243e-05 0.100334)
(-0.000159543 9.85551e-05 0.100555)
(-0.000356656 1.55688e-05 0.10048)
(-0.000148257 0.000196447 0.100732)
(-0.000156543 3.32759e-05 0.100496)
(0.000834175 -0.000300021 0.097795)
(0.000302156 -0.000130745 0.0957034)
(6.13068e-06 -0.000279386 0.100753)
(3.75556e-05 -0.000173858 0.100334)
(0.00022799 -0.000394317 0.100533)
(9.8501e-05 -0.000159526 0.100555)
(1.55662e-05 -0.000356533 0.10048)
(3.33271e-05 -0.000156526 0.100496)
(0.0001965 -0.000148282 0.100732)
(-0.000369788 -0.000139195 0.100378)
(-0.000139388 -0.000370039 0.100378)
(-0.000113772 -0.000113862 0.100656)
(1.35938e-05 -7.86119e-05 0.100576)
(-7.88685e-05 1.35979e-05 0.100576)
(-1.65403e-05 0.000202858 0.100859)
(-5.70954e-05 0.000278997 0.0983406)
(-1.96791e-05 0.000203551 0.100786)
(-4.86444e-05 0.000288609 0.0979363)
(-0.000140595 0.000296096 0.0926487)
(-0.000153124 0.000299929 0.0909767)
(0.000202758 -1.6721e-05 0.100859)
(0.000279274 -5.69746e-05 0.098341)
(0.000203607 -1.98079e-05 0.100787)
(0.000288695 -4.85485e-05 0.0979367)
(-9.14265e-05 9.14471e-05 0.100848)
(9.14844e-05 -9.14734e-05 0.100848)
(-9.14652e-05 -9.14705e-05 0.100848)
(8.44837e-05 8.44563e-05 0.101235)
(-8.44528e-05 8.44754e-05 0.101235)
(8.44959e-05 -8.44851e-05 0.101235)
(-8.44882e-05 -8.44828e-05 0.101235)
(-0.000268841 1.27849e-05 0.101153)
(-0.000210242 0.000212247 0.100828)
(-0.000168495 3.02281e-05 0.10089)
(-0.000162113 9.95354e-05 0.101063)
(-0.00029148 1.41166e-05 0.100981)
(-0.000194914 0.000200237 0.100944)
(-0.000173712 3.26143e-05 0.101013)
(0.000296121 -0.000140347 0.0926481)
(0.000300022 -0.000152964 0.0909772)
(1.28652e-05 -0.000268835 0.101153)
(3.02986e-05 -0.000168502 0.10089)
(0.000212313 -0.000210275 0.100829)
(9.95339e-05 -0.000162125 0.101063)
(1.41967e-05 -0.000291433 0.100981)
(3.26789e-05 -0.000173713 0.101013)
(0.000200227 -0.00019487 0.100944)
(-7.63177e-05 -9.05957e-05 0.100456)
(-9.06991e-05 -7.63534e-05 0.100456)
(-0.000119359 -0.000119346 0.101146)
(-9.62852e-05 -9.14941e-05 0.100421)
(-9.16324e-05 -9.63305e-05 0.100421)
(-1.39837e-05 2.63082e-05 0.100841)
(-3.22212e-05 0.000180468 0.0972559)
(-2.18632e-05 0.000133912 0.100918)
(-2.62863e-05 6.72035e-05 0.0971135)
(-5.7069e-05 0.000101268 0.0887806)
(-1.9505e-05 8.10611e-06 0.0885546)
(2.63413e-05 -1.40578e-05 0.100841)
(0.000180662 -3.21901e-05 0.0972561)
(0.00013399 -2.19588e-05 0.100918)
(6.729e-05 -2.62408e-05 0.0971134)
(-6.72917e-05 6.72896e-05 0.101329)
(6.73173e-05 -6.73252e-05 0.101329)
(-6.73114e-05 -6.7324e-05 0.101329)
(1.98431e-05 1.9819e-05 0.101452)
(-1.98319e-05 1.98187e-05 0.101452)
(1.98415e-05 -1.98462e-05 0.101452)
(-1.98401e-05 -1.98491e-05 0.101452)
(-5.44764e-05 2.85022e-06 0.101388)
(-0.000110517 0.000107663 0.101019)
(-0.000106223 2.3101e-05 0.10136)
(-6.34651e-05 3.91203e-05 0.101437)
(-0.000181303 5.73533e-06 0.101378)
(-2.4956e-05 3.02332e-05 0.100979)
(-7.25533e-05 1.73587e-05 0.101414)
(0.000101171 -5.68555e-05 0.0887791)
(8.16391e-06 -1.94742e-05 0.0885546)
(2.87599e-06 -5.44503e-05 0.101388)
(2.31548e-05 -0.000106232 0.10136)
(0.000107699 -0.000110523 0.101019)
(3.91504e-05 -6.34625e-05 0.101437)
(5.78448e-06 -0.000181251 0.101378)
(1.74018e-05 -7.25463e-05 0.101414)
(3.02124e-05 -2.48642e-05 0.100979)
(-3.18407e-05 -2.54389e-05 0.100254)
(-2.5509e-05 -3.19043e-05 0.100254)
(-1.29553e-05 -1.29168e-05 0.101463)
(3.95606e-06 1.03986e-05 0.100129)
(1.03845e-05 3.91382e-06 0.100129)
(-4.4847e-07 -6.52642e-06 0.100756)
(-3.62978e-06 9.89655e-06 0.0970808)
(-2.21415e-06 7.24566e-06 0.100764)
(-1.62195e-06 -5.28506e-06 0.0970859)
(-6.34612e-06 -1.53173e-06 0.0885858)
(-2.87327e-07 -2.65841e-06 0.0885969)
(-6.56923e-06 -4.57106e-07 0.100756)
(9.91375e-06 -3.66406e-06 0.0970807)
(7.29096e-06 -2.22014e-06 0.100764)
(-5.27798e-06 -1.61324e-06 0.0970857)
(-1.13152e-05 1.13049e-05 0.101465)
(1.13207e-05 -1.13252e-05 0.101465)
(-1.13202e-05 -1.13282e-05 0.101465)
(1.34807e-06 1.34772e-06 0.101476)
(-1.35101e-06 1.34877e-06 0.101476)
(1.3513e-06 -1.35044e-06 0.101476)
(-1.35265e-06 -1.3531e-06 0.101476)
(8.61078e-06 2.07615e-07 0.101354)
(-1.55111e-05 7.31962e-06 0.10091)
(-1.5179e-05 4.26262e-06 0.101469)
(-7.50834e-06 5.3913e-06 0.101471)
(-1.99838e-05 7.56018e-07 0.101359)
(8.29554e-06 -2.00789e-06 0.1009)
(-8.24529e-06 2.24868e-06 0.101473)
(-1.61393e-06 -6.2747e-06 0.088584)
(-2.56168e-06 -3.32952e-07 0.0885966)
(2.23452e-07 8.61836e-06 0.101354)
(4.27921e-06 -1.51797e-05 0.101469)
(7.35946e-06 -1.55266e-05 0.10091)
(5.39615e-06 -7.50525e-06 0.101471)
(7.67783e-07 -1.99865e-05 0.101359)
(2.25786e-06 -8.24206e-06 0.101473)
(-2.02e-06 8.31507e-06 0.1009)
(-3.34829e-06 -3.17014e-06 0.100005)
(-3.14855e-06 -3.34539e-06 0.100004)
(3.42762e-05 3.4291e-05 0.101463)
(2.84494e-06 3.47032e-06 0.0999898)
(3.46665e-06 2.83944e-06 0.0999895)
(-1.34704e-08 -6.79535e-06 0.100753)
(7.3024e-07 5.40137e-06 0.0970811)
(-4.44153e-08 6.83309e-06 0.100751)
(-8.94797e-07 -5.39921e-06 0.0970852)
(-1.55925e-06 1.61808e-06 0.0885931)
(1.14326e-06 -1.65299e-06 0.0885972)
(-6.8375e-06 -5.02639e-09 0.100752)
(5.37733e-06 7.02252e-07 0.0970808)
(6.87108e-06 -3.06765e-08 0.100751)
(-5.37696e-06 -8.57297e-07 0.0970852)
(-4.68888e-07 4.69236e-07 0.101476)
(4.67486e-07 -4.66777e-07 0.101476)
(-4.70307e-07 -4.68927e-07 0.101476)
(-3.33131e-07 -3.24087e-07 0.101477)
(3.24334e-07 -3.18606e-07 0.101477)
(-3.27693e-07 3.30434e-07 0.101477)
(3.24955e-07 3.29528e-07 0.101477)
(1.13472e-05 -1.44856e-08 0.10135)
(-1.08677e-05 3.31718e-06 0.100892)
(-1.29715e-06 1.53574e-07 0.101476)
(-6.98881e-07 7.48066e-07 0.10147)
(-1.20572e-05 4.59655e-08 0.10135)
(1.00552e-05 -3.26483e-06 0.100895)
(-7.90986e-07 -1.72901e-09 0.101476)
(1.53958e-06 -1.49322e-06 0.0885912)
(-1.65782e-06 1.19402e-06 0.0885968)
(-9.97721e-09 1.13512e-05 0.10135)
(1.50201e-07 -1.29758e-06 0.101476)
(3.33998e-06 -1.08988e-05 0.100892)
(7.37262e-07 -6.96231e-07 0.10147)
(3.88448e-08 -1.20638e-05 0.10135)
(-8.19032e-09 -7.85789e-07 0.101476)
(-3.29721e-06 1.00817e-05 0.100895)
(-3.50982e-06 -4.21043e-06 0.0999801)
(-4.20079e-06 -3.50379e-06 0.0999798)
(3.81162e-05 3.81366e-05 0.101459)
(3.24773e-06 3.87837e-06 0.099983)
(3.86991e-06 3.24363e-06 0.0999827)
(-8.04355e-09 -6.8385e-06 0.100753)
(7.38019e-07 5.49942e-06 0.0970811)
(-2.30657e-08 6.70614e-06 0.10075)
(-9.13136e-07 -5.37634e-06 0.097085)
(-1.42877e-06 1.7377e-06 0.0885927)
(1.15118e-06 -1.588e-06 0.0885972)
(-6.87933e-06 1.12035e-09 0.100752)
(5.45127e-06 7.01166e-07 0.0970806)
(6.74539e-06 -3.3173e-09 0.10075)
(-5.34755e-06 -8.62781e-07 0.0970852)
(3.77127e-07 -3.72282e-07 0.101477)
(-3.81116e-07 3.83574e-07 0.101477)
(3.77963e-07 3.82599e-07 0.101477)
(-4.25802e-07 -4.18878e-07 0.101477)
(4.21334e-07 -4.18576e-07 0.101477)
(-4.22772e-07 4.25973e-07 0.101477)
(4.21395e-07 4.24811e-07 0.101477)
(1.14885e-05 -1.96289e-08 0.10135)
(-1.05454e-05 3.16449e-06 0.100891)
(-3.95408e-07 -1.23184e-07 0.101476)
(-2.98855e-07 4.9219e-07 0.10147)
(-1.16035e-05 2.38331e-08 0.101349)
(1.01624e-05 -3.30335e-06 0.100895)
(-3.73046e-07 -1.2924e-07 0.101476)
(1.62516e-06 -1.32782e-06 0.088591)
(-1.63091e-06 1.23945e-06 0.0885968)
(-1.68435e-08 1.14932e-05 0.10135)
(-1.3324e-07 -3.93061e-07 0.101476)
(3.17779e-06 -1.05769e-05 0.100892)
(4.77901e-07 -2.97211e-07 0.10147)
(1.15679e-08 -1.16087e-05 0.101349)
(-1.38492e-07 -3.66212e-07 0.101476)
(-3.33895e-06 1.0188e-05 0.100895)
(-3.40293e-06 -4.05286e-06 0.0999794)
(-4.04666e-06 -3.39484e-06 0.0999791)
(3.82717e-05 3.82925e-05 0.101459)
(3.281e-06 3.93315e-06 0.0999828)
(3.92294e-06 3.27685e-06 0.0999825)
(8.76957e-09 -6.83915e-06 0.100753)
(7.42482e-07 5.49738e-06 0.0970811)
(-9.57356e-09 6.7017e-06 0.10075)
(-8.65875e-07 -5.36694e-06 0.097085)
(-1.40508e-06 1.74367e-06 0.0885929)
(1.28504e-06 -1.71087e-06 0.088597)
(-6.88067e-06 2.54358e-09 0.100752)
(5.45739e-06 7.01395e-07 0.0970806)
(6.74151e-06 -1.54807e-09 0.10075)
(-5.34501e-06 -8.60792e-07 0.0970852)
(4.25173e-07 -4.23349e-07 0.101477)
(-4.24764e-07 4.28062e-07 0.101477)
(4.23133e-07 4.25988e-07 0.101477)
(-4.27034e-07 -4.22263e-07 0.101477)
(4.29162e-07 -4.25969e-07 0.101477)
(-4.26369e-07 4.30491e-07 0.101477)
(4.26322e-07 4.28354e-07 0.101477)
(1.14922e-05 -2.32473e-08 0.10135)
(-1.05348e-05 3.15251e-06 0.100891)
(-3.58359e-07 -1.36515e-07 0.101476)
(-2.87437e-07 4.75365e-07 0.10147)
(-1.15885e-05 2.04738e-08 0.101349)
(1.01638e-05 -3.31122e-06 0.100895)
(-3.56912e-07 -1.38092e-07 0.101476)
(1.6291e-06 -1.32075e-06 0.088591)
(-1.63006e-06 1.24205e-06 0.0885968)
(-1.61085e-08 1.1497e-05 0.10135)
(-1.4076e-07 -3.57525e-07 0.101476)
(3.1747e-06 -1.05659e-05 0.100891)
(4.69307e-07 -2.85774e-07 0.10147)
(1.20677e-08 -1.15934e-05 0.101349)
(-1.40796e-07 -3.51673e-07 0.101476)
(-3.33965e-06 1.01911e-05 0.100894)
(-3.39877e-06 -4.04452e-06 0.0999794)
(-4.03699e-06 -3.39195e-06 0.0999791)
(3.82767e-05 3.82956e-05 0.101459)
(3.28304e-06 3.93565e-06 0.0999828)
(3.9266e-06 3.27768e-06 0.0999825)
(2.54865e-09 -6.84111e-06 0.100753)
(7.33689e-07 5.49039e-06 0.0970811)
(-5.91736e-09 6.70289e-06 0.10075)
(-8.9733e-07 -5.36992e-06 0.097085)
(-1.38625e-06 1.72554e-06 0.0885928)
(1.29219e-06 -1.72104e-06 0.088597)
(-6.88111e-06 2.66829e-10 0.100752)
(5.4533e-06 7.00879e-07 0.0970806)
(6.74063e-06 -2.02939e-09 0.10075)
(-5.34094e-06 -8.64223e-07 0.0970852)
(4.29002e-07 -4.26672e-07 0.101477)
(-4.26622e-07 4.30087e-07 0.101477)
(4.2586e-07 4.27664e-07 0.101477)
(-4.301e-07 -4.27417e-07 0.101477)
(4.30154e-07 -4.28598e-07 0.101477)
(-4.27015e-07 4.30003e-07 0.101477)
(4.26896e-07 4.28232e-07 0.101477)
(1.14934e-05 -2.44124e-08 0.10135)
(-1.0534e-05 3.15087e-06 0.100891)
(-3.56866e-07 -1.3832e-07 0.101476)
(-2.85805e-07 4.71968e-07 0.10147)
(-1.15871e-05 1.88592e-08 0.101349)
(1.01642e-05 -3.31395e-06 0.100895)
(-3.55408e-07 -1.39034e-07 0.101476)
(1.62922e-06 -1.32038e-06 0.088591)
(-1.62983e-06 1.24202e-06 0.0885968)
(-1.6369e-08 1.14988e-05 0.10135)
(-1.40395e-07 -3.56386e-07 0.101476)
(3.17408e-06 -1.05649e-05 0.100891)
(4.68726e-07 -2.85435e-07 0.10147)
(1.25539e-08 -1.15932e-05 0.101349)
(-1.4063e-07 -3.51449e-07 0.101476)
(-3.33941e-06 1.01919e-05 0.100894)
(-3.39753e-06 -4.04395e-06 0.0999794)
(-4.03528e-06 -3.39154e-06 0.0999791)
(3.8278e-05 3.8296e-05 0.101459)
(3.2845e-06 3.93435e-06 0.0999828)
(3.92643e-06 3.27836e-06 0.0999825)
(4.43395e-09 -6.83962e-06 0.100753)
(7.39674e-07 5.4833e-06 0.0970811)
(-1.11971e-08 6.70013e-06 0.10075)
(-9.03014e-07 -5.36112e-06 0.0970851)
(-1.37935e-06 1.72079e-06 0.0885929)
(1.2919e-06 -1.71771e-06 0.088597)
(-6.87974e-06 1.48049e-10 0.100752)
(5.44848e-06 6.95179e-07 0.0970806)
(6.74081e-06 -3.70001e-09 0.10075)
(-5.33133e-06 -8.60276e-07 0.0970853)
(4.29682e-07 -4.2819e-07 0.101477)
(-4.26814e-07 4.29747e-07 0.101477)
(4.26115e-07 4.27393e-07 0.101477)
(-4.29615e-07 -4.26317e-07 0.101477)
(4.30494e-07 -4.2732e-07 0.101477)
(-4.26458e-07 4.30213e-07 0.101477)
(4.26961e-07 4.28261e-07 0.101477)
(1.14931e-05 -2.43761e-08 0.10135)
(-1.05348e-05 3.15016e-06 0.100891)
(-3.55233e-07 -1.39147e-07 0.101476)
(-2.85531e-07 4.71116e-07 0.10147)
(-1.15868e-05 1.84493e-08 0.101349)
(1.01629e-05 -3.3134e-06 0.100895)
(-3.5414e-07 -1.39257e-07 0.101476)
(1.62924e-06 -1.32083e-06 0.088591)
(-1.62967e-06 1.24186e-06 0.0885968)
(-1.74378e-08 1.15008e-05 0.10135)
(-1.4048e-07 -3.54994e-07 0.101476)
(3.17406e-06 -1.05655e-05 0.100891)
(4.67874e-07 -2.8464e-07 0.10147)
(1.40904e-08 -1.15954e-05 0.101349)
(-1.40586e-07 -3.4961e-07 0.101476)
(-3.33886e-06 1.01912e-05 0.100894)
(-3.39811e-06 -4.04479e-06 0.0999794)
(-4.03543e-06 -3.39235e-06 0.0999791)
(3.82785e-05 3.82962e-05 0.101459)
(3.28307e-06 3.93387e-06 0.0999828)
(3.92614e-06 3.27698e-06 0.0999825)
(1.12048e-08 -6.841e-06 0.100753)
(7.32375e-07 5.4771e-06 0.097081)
(-7.55365e-09 6.70244e-06 0.10075)
(-8.81382e-07 -5.37298e-06 0.097085)
(-1.38315e-06 1.72937e-06 0.0885929)
(1.30315e-06 -1.73865e-06 0.0885969)
(-6.88281e-06 1.74906e-09 0.100752)
(5.44388e-06 6.93587e-07 0.0970806)
(6.74271e-06 -1.94335e-09 0.10075)
(-5.33571e-06 -8.50505e-07 0.0970853)
(4.29663e-07 -4.25648e-07 0.101477)
(-4.25949e-07 4.2979e-07 0.101477)
(4.26098e-07 4.27452e-07 0.101477)
(-4.25673e-07 -4.19665e-07 0.101477)
(4.3163e-07 -4.23634e-07 0.101477)
(-4.25673e-07 4.30728e-07 0.101477)
(4.26937e-07 4.28267e-07 0.101477)
(1.14957e-05 -2.39817e-08 0.10135)
(-1.05366e-05 3.15328e-06 0.100891)
(-3.55379e-07 -1.38331e-07 0.101476)
(-2.85994e-07 4.73686e-07 0.10147)
(-1.15881e-05 1.90152e-08 0.101349)
(1.01674e-05 -3.31688e-06 0.100895)
(-3.54368e-07 -1.38444e-07 0.101476)
(1.6316e-06 -1.32158e-06 0.088591)
(-1.64144e-06 1.24794e-06 0.0885967)
(-1.74553e-08 1.15032e-05 0.10135)
(-1.40062e-07 -3.55704e-07 0.101476)
(3.1755e-06 -1.05667e-05 0.100892)
(4.69336e-07 -2.85257e-07 0.10147)
(1.36801e-08 -1.15958e-05 0.101349)
(-1.40095e-07 -3.50302e-07 0.101476)
(-3.34143e-06 1.01938e-05 0.100894)
(-3.39833e-06 -4.04539e-06 0.0999794)
(-4.03649e-06 -3.39252e-06 0.0999791)
(3.82783e-05 3.82959e-05 0.101459)
(3.28317e-06 3.93752e-06 0.0999828)
(3.92941e-06 3.27716e-06 0.0999825)
(1.17631e-08 -6.83736e-06 0.100753)
(8.41749e-07 5.51316e-06 0.0970812)
(5.25765e-09 6.69974e-06 0.10075)
(-9.39139e-07 -5.37467e-06 0.097085)
(-1.37363e-06 1.72434e-06 0.0885931)
(1.30865e-06 -1.73734e-06 0.0885969)
(-6.87728e-06 3.96441e-09 0.100752)
(5.4428e-06 7.03927e-07 0.0970806)
(6.73802e-06 -5.47724e-10 0.10075)
(-5.32307e-06 -8.69561e-07 0.0970852)
(4.31288e-07 -4.23423e-07 0.101477)
(-4.25784e-07 4.30408e-07 0.101477)
(4.26304e-07 4.27493e-07 0.101477)
(-4.29531e-07 -4.28584e-07 0.101477)
(4.31741e-07 -4.25102e-07 0.101477)
(-4.26498e-07 4.30338e-07 0.101477)
(4.27553e-07 4.27599e-07 0.101477)
(1.14888e-05 -2.51551e-08 0.10135)
(-1.05246e-05 3.14336e-06 0.100891)
(-3.54684e-07 -1.38608e-07 0.101476)
(-2.84796e-07 4.72147e-07 0.10147)
(-1.15831e-05 1.83011e-08 0.101349)
(1.01611e-05 -3.31827e-06 0.100895)
(-3.53608e-07 -1.39327e-07 0.101476)
(1.64599e-06 -1.33005e-06 0.0885912)
(-1.63337e-06 1.24077e-06 0.0885966)
(-1.66503e-08 1.14961e-05 0.10135)
(-1.39795e-07 -3.55351e-07 0.101476)
(3.1729e-06 -1.05611e-05 0.100892)
(4.68784e-07 -2.85207e-07 0.10147)
(1.35032e-08 -1.15911e-05 0.101349)
(-1.40083e-07 -3.50425e-07 0.101476)
(-3.33372e-06 1.01845e-05 0.100894)
(-3.39032e-06 -4.04396e-06 0.0999794)
(-4.03489e-06 -3.38466e-06 0.0999791)
(3.82768e-05 3.82936e-05 0.101459)
(3.28225e-06 3.9245e-06 0.0999828)
(3.91706e-06 3.27585e-06 0.0999825)
(3.58048e-09 -6.84399e-06 0.100753)
(7.39974e-07 5.48245e-06 0.0970812)
(-8.64584e-09 6.68714e-06 0.10075)
(-8.88616e-07 -5.37847e-06 0.097085)
(-1.36715e-06 1.70909e-06 0.088593)
(1.2604e-06 -1.67214e-06 0.0885969)
(-6.88014e-06 -1.58038e-09 0.100752)
(5.43338e-06 6.98394e-07 0.0970806)
(6.72826e-06 -5.17796e-09 0.10075)
(-5.33107e-06 -8.53036e-07 0.0970852)
(4.35181e-07 -4.28048e-07 0.101477)
(-4.27515e-07 4.30443e-07 0.101477)
(4.28174e-07 4.26142e-07 0.101477)
(-4.35273e-07 -4.40091e-07 0.101477)
(4.52827e-07 -4.35252e-07 0.101477)
(-4.34858e-07 4.38564e-07 0.101477)
(4.38678e-07 4.31399e-07 0.101477)
(1.14969e-05 -2.85422e-08 0.10135)
(-1.05223e-05 3.14411e-06 0.100891)
(-3.5425e-07 -1.42413e-07 0.101476)
(-2.82273e-07 4.65303e-07 0.10147)
(-1.15777e-05 1.6839e-08 0.101349)
(1.01574e-05 -3.31305e-06 0.100895)
(-3.47831e-07 -1.429e-07 0.101476)
(1.61603e-06 -1.3127e-06 0.0885912)
(-1.6123e-06 1.23615e-06 0.0885967)
(-1.74767e-08 1.15038e-05 0.10135)
(-1.40149e-07 -3.56025e-07 0.101476)
(3.16682e-06 -1.05534e-05 0.100892)
(4.64991e-07 -2.79608e-07 0.10147)
(1.33894e-08 -1.15858e-05 0.101349)
(-1.40709e-07 -3.442e-07 0.101476)
(-3.33844e-06 1.01885e-05 0.100895)
(-3.39576e-06 -4.04027e-06 0.0999794)
(-4.02947e-06 -3.39133e-06 0.0999791)
(3.82758e-05 3.82911e-05 0.101459)
(3.27975e-06 3.9334e-06 0.0999828)
(3.92855e-06 3.27162e-06 0.0999825)
(1.91456e-05 1.91339e-05 0.100003)
(8.10809e-05 0.000135182 0.100054)
(0.000135242 8.10935e-05 0.100054)
(0.000414528 0.00104284 0.0978677)
(0.000115185 0.000204412 0.100125)
(0.00104195 0.000411916 0.0978679)
(0.000204559 0.000115213 0.100125)
(0.000101645 0.000101609 0.100041)
(0.00011885 0.000514775 0.100267)
(0.00051366 0.000118475 0.100266)
(0.000117141 0.000180025 0.100097)
(0.000180164 0.000117161 0.100097)
(5.68046e-06 4.70253e-05 0.100008)
(1.57312e-05 1.54311e-05 0.1)
(6.04765e-05 0.000128111 0.100057)
(-8.56853e-07 1.30415e-05 0.0999957)
(-5.69276e-06 4.70344e-05 0.100008)
(-1.57285e-05 1.54263e-05 0.1)
(-6.04494e-05 0.0001281 0.100057)
(8.57203e-07 1.30426e-05 0.0999957)
(4.60925e-06 0.000154372 0.100054)
(0.000327146 0.000317637 0.0993438)
(9.83208e-05 0.000167488 0.100057)
(7.26461e-06 0.000329352 0.100414)
(-4.64822e-06 0.000154387 0.100054)
(-0.000326611 0.000318369 0.099344)
(-9.8261e-05 0.000167448 0.100057)
(-7.25882e-06 0.00032946 0.100414)
(1.39146e-05 0.000159203 0.100055)
(6.23501e-05 8.71418e-05 0.100031)
(0.000207575 0.00038042 0.100421)
(3.27813e-05 0.0001554 0.100172)