/*--------------------------------*- C++ -*----------------------------------*\
| =========                 |                                                 |
| \\      /  F ield         | OpenFOAM: The Open Source CFD Toolbox           |
|  \\    /   O peration     | Version:  2206                                  |
|   \\  /    A nd           | Website:  www.openfoam.com                      |
|    \\/     M anipulation  |                                                 |
\*---------------------------------------------------------------------------*/
FoamFile
{
    version     2.0;
    format      ascii;
    arch        "LSB;label=32;scalar=64";
    class       volScalarField;
    location    "40";
    object      epsilon;
}
// * * * * * * * * * * * * * * * * * * * * * * * * * * * * * * * * * * * * * //

dimensions      [0 2 -3 0 0 0 0];

internalField   nonuniform List<scalar> 
28688
(
4.95569e-07
4.97332e-07
4.97332e-07
4.99574e-07
4.45582e-07
4.5374e-07
4.53742e-07
4.63709e-07
4.03778e-07
4.18527e-07
4.18531e-07
4.3941e-07
3.68371e-07
3.88556e-07
3.88563e-07
4.17662e-07
3.37942e-07
3.62069e-07
3.62076e-07
3.96079e-07
3.11753e-07
3.38327e-07
3.38335e-07
3.74593e-07
2.88294e-07
3.1646e-07
3.16469e-07
3.53648e-07
2.68345e-07
2.97435e-07
2.97444e-07
3.34128e-07
2.47393e-07
2.75657e-07
2.75667e-07
3.12595e-07
2.35286e-07
2.63615e-07
2.63625e-07
2.97184e-07
2.3243e-07
2.62269e-07
2.6228e-07
2.97211e-07
2.32082e-07
2.62241e-07
2.62252e-07
2.97616e-07
5.06419e-07
5.05583e-07
5.05582e-07
5.06418e-07
5.05582e-07
5.05582e-07
5.09649e-07
5.09649e-07
5.09649e-07
5.09649e-07
5.05584e-07
5.05583e-07
5.06419e-07
5.05584e-07
5.05583e-07
5.06419e-07
4.99574e-07
4.6724e-07
4.97332e-07
4.97337e-07
4.63716e-07
4.63724e-07
4.99574e-07
4.67237e-07
4.97336e-07
4.97337e-07
4.63721e-07
4.63727e-07
4.97333e-07
4.63712e-07
4.63717e-07
4.99574e-07
4.67243e-07
4.97336e-07
4.63714e-07
4.63722e-07
4.67242e-07
4.63709e-07
4.41428e-07
4.53745e-07
4.53753e-07
4.2674e-07
4.26748e-07
4.63708e-07
4.41421e-07
4.53749e-07
4.53756e-07
4.26741e-07
4.26753e-07
4.53747e-07
4.26731e-07
4.26742e-07
4.63711e-07
4.41432e-07
4.53749e-07
4.26736e-07
4.26743e-07
4.4143e-07
4.39407e-07
4.19278e-07
4.18536e-07
4.18544e-07
3.95658e-07
3.95664e-07
4.39405e-07
4.1927e-07
4.18536e-07
4.18549e-07
3.95653e-07
3.9567e-07
4.18539e-07
3.95645e-07
3.95661e-07
4.39413e-07
4.19284e-07
4.18537e-07
3.95651e-07
3.95655e-07
4.19282e-07
4.17658e-07
3.97647e-07
3.88571e-07
3.88577e-07
3.6845e-07
3.68454e-07
4.17651e-07
3.97638e-07
3.88565e-07
3.88583e-07
3.6844e-07
3.68461e-07
3.88574e-07
3.68433e-07
3.68452e-07
4.17664e-07
3.97653e-07
3.88567e-07
3.6844e-07
3.68442e-07
3.97652e-07
3.96074e-07
3.76097e-07
3.62087e-07
3.62091e-07
3.44074e-07
3.44076e-07
3.96067e-07
3.76087e-07
3.62076e-07
3.62098e-07
3.4406e-07
3.44084e-07
3.6209e-07
3.44054e-07
3.44076e-07
3.96081e-07
3.76103e-07
3.62078e-07
3.44063e-07
3.44062e-07
3.76102e-07
3.74588e-07
3.55072e-07
3.38347e-07
3.3835e-07
3.21756e-07
3.21757e-07
3.74581e-07
3.55062e-07
3.38333e-07
3.38358e-07
3.21739e-07
3.21765e-07
3.3835e-07
3.21734e-07
3.21758e-07
3.74594e-07
3.55077e-07
3.38335e-07
3.21743e-07
3.21741e-07
3.55077e-07
3.53643e-07
3.35397e-07
3.16482e-07
3.16483e-07
3.02117e-07
3.02117e-07
3.53635e-07
3.35387e-07
3.16465e-07
3.16491e-07
3.02098e-07
3.02125e-07
3.16485e-07
3.02095e-07
3.02119e-07
3.53649e-07
3.35403e-07
3.16466e-07
3.02104e-07
3.021e-07
3.35402e-07
3.34122e-07
3.14342e-07
2.97459e-07
2.97459e-07
2.81132e-07
2.81134e-07
3.34115e-07
3.14334e-07
2.9744e-07
2.97467e-07
2.81114e-07
2.81142e-07
2.97461e-07
2.81111e-07
2.81134e-07
3.34129e-07
3.1435e-07
2.97442e-07
2.8112e-07
2.81113e-07
3.14349e-07
3.12587e-07
2.97169e-07
2.75679e-07
2.75682e-07
2.6509e-07
2.65094e-07
3.12582e-07
2.97162e-07
2.75662e-07
2.7569e-07
2.65073e-07
2.65101e-07
2.75681e-07
2.65068e-07
2.65092e-07
3.12595e-07
2.97177e-07
2.75661e-07
2.65078e-07
2.65072e-07
2.97177e-07
2.97176e-07
2.96737e-07
2.63639e-07
2.63643e-07
2.62353e-07
2.62358e-07
2.97171e-07
2.96728e-07
2.63621e-07
2.63651e-07
2.62336e-07
2.62365e-07
2.63641e-07
2.62329e-07
2.62355e-07
2.97185e-07
2.96746e-07
2.63621e-07
2.6234e-07
2.62334e-07
2.96745e-07
2.97206e-07
2.97305e-07
2.62294e-07
2.623e-07
2.62264e-07
2.6227e-07
2.97199e-07
2.97296e-07
2.62278e-07
2.62307e-07
2.62247e-07
2.62276e-07
2.62297e-07
2.62239e-07
2.62267e-07
2.97215e-07
2.97314e-07
2.62276e-07
2.6225e-07
2.62246e-07
2.97315e-07
2.97609e-07
2.9735e-07
2.62267e-07
2.62273e-07
2.62272e-07
2.97602e-07
2.6225e-07
2.62279e-07
2.62255e-07
2.62284e-07
2.6227e-07
2.62275e-07
2.97617e-07
2.97358e-07
2.62249e-07
2.62259e-07
2.62254e-07
2.97359e-07
5.35663e-07
5.35601e-07
5.35655e-07
5.35655e-07
5.34573e-07
5.35517e-07
5.33634e-07
5.35654e-07
5.34573e-07
5.35517e-07
5.35654e-07
5.33634e-07
5.35258e-07
5.35987e-07
5.35987e-07
1.10748e-06
3.88203e-06
9.33652e-07
4.60483e-06
1.26082e-05
1.65957e-05
1.10762e-06
3.88228e-06
9.33667e-07
4.60519e-06
4.95569e-07
4.95569e-07
4.95569e-07
4.57239e-07
4.57238e-07
4.57239e-07
4.57239e-07
5.43204e-07
1.22028e-06
4.95567e-07
4.85521e-07
5.25296e-07
1.20957e-06
4.82299e-07
1.26098e-05
1.65982e-05
5.43227e-07
4.95567e-07
1.22026e-06
4.85522e-07
5.25272e-07
4.82299e-07
1.20957e-06
2.52165e-06
2.52235e-06
4.84191e-07
2.37281e-06
2.3732e-06
1.43137e-06
5.59477e-06
1.32915e-06
6.13456e-06
2.12905e-05
2.31054e-05
1.43186e-06
5.59544e-06
1.32915e-06
6.13521e-06
4.45581e-07
4.45582e-07
4.45582e-07
4.13547e-07
4.13546e-07
4.13547e-07
4.13547e-07
5.87096e-07
1.19481e-06
4.46441e-07
4.44288e-07
5.7376e-07
1.20434e-06
4.35685e-07
2.12929e-05
2.3109e-05
5.87115e-07
4.46442e-07
1.19482e-06
4.44291e-07
5.73762e-07
4.35687e-07
1.20443e-06
2.31158e-06
2.31209e-06
4.5349e-07
2.35333e-06
2.35378e-06
1.66338e-06
6.91995e-06
1.59562e-06
7.31778e-06
2.46446e-05
2.49357e-05
1.6637e-06
6.92075e-06
1.59542e-06
7.31873e-06
4.03777e-07
4.03779e-07
4.03779e-07
3.76657e-07
3.76656e-07
3.76658e-07
3.76658e-07
6.15567e-07
1.24279e-06
4.06565e-07
4.10624e-07
6.0838e-07
1.26561e-06
3.97738e-07
2.46479e-05
2.49392e-05
6.15585e-07
4.06567e-07
1.24288e-06
4.10628e-07
6.08395e-07
3.97741e-07
1.26577e-06
2.47381e-06
2.47428e-06
4.30184e-07
2.53287e-06
2.53335e-06
1.81219e-06
7.84853e-06
1.77241e-06
8.09664e-06
2.47454e-05
2.44202e-05
1.81234e-06
7.8495e-06
1.77242e-06
8.09797e-06
3.68371e-07
3.68373e-07
3.68372e-07
3.45168e-07
3.45167e-07
3.4517e-07
3.45169e-07
6.2629e-07
1.31313e-06
3.73483e-07
3.81681e-07
6.24878e-07
1.33374e-06
3.66066e-07
2.4748e-05
2.44235e-05
6.26304e-07
3.73484e-07
1.31322e-06
3.81688e-07
6.24891e-07
3.66069e-07
1.3339e-06
2.63519e-06
2.63568e-06
4.08478e-07
2.6794e-06
2.6799e-06
1.89326e-06
8.39802e-06
1.87273e-06
8.52691e-06
2.37012e-05
2.3256e-05
1.89348e-06
8.39925e-06
1.87273e-06
8.52831e-06
3.37941e-07
3.37944e-07
3.37943e-07
3.1802e-07
3.18019e-07
3.18023e-07
3.18021e-07
6.2219e-07
1.37208e-06
3.45181e-07
3.55898e-07
6.25438e-07
1.38727e-06
3.38723e-07
2.37033e-05
2.32588e-05
6.22207e-07
3.45183e-07
1.37216e-06
3.55906e-07
6.2545e-07
3.38727e-07
1.38743e-06
2.76359e-06
2.76412e-06
3.86831e-07
2.80542e-06
2.80597e-06
1.93132e-06
8.66392e-06
1.92101e-06
8.71891e-06
2.25132e-05
2.21093e-05
1.93151e-06
8.66519e-06
1.9211e-06
8.72041e-06
3.11753e-07
3.11756e-07
3.11755e-07
2.93771e-07
2.93769e-07
2.93773e-07
2.93772e-07
6.09064e-07
1.41582e-06
3.20569e-07
3.32698e-07
6.15263e-07
1.42776e-06
3.14748e-07
2.25149e-05
2.21117e-05
6.09073e-07
3.2057e-07
1.41588e-06
3.32707e-07
6.15278e-07
3.14752e-07
1.42792e-06
2.89498e-06
2.89557e-06
3.65513e-07
2.94373e-06
2.94436e-06
1.94736e-06
8.7544e-06
1.94469e-06
8.77658e-06
2.14951e-05
2.11718e-05
1.94754e-06
8.7558e-06
1.94487e-06
8.77801e-06
2.88294e-07
2.88297e-07
2.88296e-07
2.73372e-07
2.73371e-07
2.73374e-07
2.73373e-07
5.91852e-07
1.45225e-06
2.98263e-07
3.11422e-07
5.99269e-07
1.46324e-06
2.93229e-07
2.14966e-05
2.11739e-05
5.91859e-07
2.98265e-07
1.45231e-06
3.11431e-07
5.99291e-07
2.93232e-07
1.46342e-06
3.04732e-06
3.04802e-06
3.44959e-07
3.10495e-06
3.10573e-06
1.95869e-06
8.76108e-06
1.94956e-06
8.74933e-06
2.06892e-05
2.05307e-05
1.9589e-06
8.76248e-06
1.94956e-06
8.75079e-06
2.68345e-07
2.68349e-07
2.68348e-07
2.52317e-07
2.52316e-07
2.5232e-07
2.52318e-07
5.73595e-07
1.48621e-06
2.78872e-07
2.92384e-07
5.80207e-07
1.49003e-06
2.73834e-07
2.06908e-05
2.05327e-05
5.73619e-07
2.78874e-07
1.48628e-06
2.92393e-07
5.80219e-07
2.73838e-07
1.49028e-06
3.21536e-06
3.21616e-06
3.25766e-07
3.2651e-06
3.26605e-06
1.85204e-06
8.72592e-06
1.89711e-06
8.73319e-06
2.04537e-05
2.04794e-05
1.85216e-06
8.72734e-06
1.89689e-06
8.73465e-06
2.47393e-07
2.47397e-07
2.47395e-07
2.37134e-07
2.37133e-07
2.37137e-07
2.37135e-07
5.32924e-07
1.47352e-06
2.57966e-07
2.71017e-07
5.5088e-07
1.46464e-06
2.53469e-07
2.04552e-05
2.048e-05
5.32927e-07
2.57968e-07
1.4735e-06
2.71027e-07
5.50877e-07
2.53472e-07
1.46473e-06
3.29539e-06
3.29634e-06
3.02979e-07
3.3167e-06
3.31766e-06
1.85352e-06
8.78858e-06
1.84714e-06
8.80475e-06
2.05342e-05
2.05521e-05
1.85351e-06
8.7899e-06
1.84706e-06
8.80624e-06
2.35287e-07
2.35291e-07
2.35289e-07
2.32731e-07
2.3273e-07
2.32734e-07
2.32732e-07
5.25552e-07
1.47507e-06
2.45358e-07
2.62848e-07
5.24916e-07
1.48659e-06
2.44179e-07
2.05347e-05
2.05523e-05
5.25563e-07
2.4536e-07
1.47512e-06
2.62858e-07
5.24927e-07
2.44182e-07
1.48664e-06
3.37778e-06
3.37877e-06
2.96311e-07
3.39694e-06
3.39801e-06
1.86123e-06
8.81571e-06
1.8611e-06
8.81605e-06
2.05595e-05
2.05605e-05
1.86119e-06
8.81725e-06
1.86099e-06
8.81756e-06
2.32431e-07
2.32435e-07
2.32432e-07
2.32109e-07
2.32108e-07
2.32112e-07
2.3211e-07
5.28717e-07
1.49854e-06
2.42798e-07
2.62247e-07
5.28418e-07
1.49885e-06
2.42667e-07
2.05597e-05
2.05606e-05
5.28728e-07
2.428e-07
1.4985e-06
2.62258e-07
5.28426e-07
2.4267e-07
1.49888e-06
3.41232e-06
3.41341e-06
2.97162e-07
3.41295e-06
3.41405e-06
1.86155e-06
8.81661e-06
1.86212e-06
8.81635e-06
2.05601e-05
2.05606e-05
1.86151e-06
8.81805e-06
1.86203e-06
8.81773e-06
2.32083e-07
2.32087e-07
2.32085e-07
2.32068e-07
2.3207e-07
2.32072e-07
2.3207e-07
5.29057e-07
1.50029e-06
2.42539e-07
2.62244e-07
5.29198e-07
1.49944e-06
2.42534e-07
2.05603e-05
2.05607e-05
5.29068e-07
2.42541e-07
1.50028e-06
2.62255e-07
5.2921e-07
2.42537e-07
1.49946e-06
3.41371e-06
3.41481e-06
2.97366e-07
3.41311e-06
3.41422e-06
5.35258e-07
5.3599e-07
5.35988e-07
1.0916e-05
5.81346e-07
1.09173e-05
5.81338e-07
5.28204e-07
2.43133e-06
2.43226e-06
5.40833e-07
5.4083e-07
5.34573e-07
5.35517e-07
5.33635e-07
5.35654e-07
5.34573e-07
5.35517e-07
5.33634e-07
5.35654e-07
5.30398e-07
3.47219e-06
5.68207e-07
8.21304e-07
5.30397e-07
3.47222e-06
5.68206e-07
8.21272e-07
5.29522e-07
5.28379e-07
1.16689e-06
5.09601e-07
5.32664e-07
5.28353e-07
5.19215e-07
5.29522e-07
5.2838e-07
1.16703e-06
5.09601e-07
5.32664e-07
5.28353e-07
5.19217e-07
5.35258e-07
5.35989e-07
5.35988e-07
1.09162e-05
5.81325e-07
5.28204e-07
2.4318e-06
2.43195e-06
5.40834e-07
5.4083e-07
1.09169e-05
5.81319e-07
5.34573e-07
5.35517e-07
5.33635e-07
5.35654e-07
5.34573e-07
5.35517e-07
5.35654e-07
5.33635e-07
5.30398e-07
3.47254e-06
5.68204e-07
8.21461e-07
5.29522e-07
5.2838e-07
1.16715e-06
5.09602e-07
5.32663e-07
5.28353e-07
5.19223e-07
5.30398e-07
3.47262e-06
5.68202e-07
8.21362e-07
5.29522e-07
5.2838e-07
5.09601e-07
1.16706e-06
5.28353e-07
5.32663e-07
5.19217e-07
5.35663e-07
5.35601e-07
5.35655e-07
5.35655e-07
5.35663e-07
5.35601e-07
5.35655e-07
5.35655e-07
5.35663e-07
5.35601e-07
5.35655e-07
5.35655e-07
5.28435e-07
5.28376e-07
5.09726e-07
5.09726e-07
5.28409e-07
5.28409e-07
5.09783e-07
5.28435e-07
5.28376e-07
5.09726e-07
5.09726e-07
5.28409e-07
5.28409e-07
5.09783e-07
5.28435e-07
5.28376e-07
5.09726e-07
5.09726e-07
5.28409e-07
5.28409e-07
5.09783e-07
5.28435e-07
5.28376e-07
5.09726e-07
5.09726e-07
5.28409e-07
5.28409e-07
5.09783e-07
5.34573e-07
5.35517e-07
5.35654e-07
5.33634e-07
5.29522e-07
5.2838e-07
1.1671e-06
5.09602e-07
5.32663e-07
5.28353e-07
5.19221e-07
5.30398e-07
3.47242e-06
5.68198e-07
8.21361e-07
5.29522e-07
5.28379e-07
5.09601e-07
1.16697e-06
5.28353e-07
5.32662e-07
5.19217e-07
5.30398e-07
3.47255e-06
5.68202e-07
8.21307e-07
5.35258e-07
5.35987e-07
5.35986e-07
1.09175e-05
5.81335e-07
5.28204e-07
2.43208e-06
2.43192e-06
5.4083e-07
5.40827e-07
1.09173e-05
5.81314e-07
5.34573e-07
5.35517e-07
5.35654e-07
5.33634e-07
5.29522e-07
5.28379e-07
5.09602e-07
1.16703e-06
5.28353e-07
5.32662e-07
5.1922e-07
5.29522e-07
5.2838e-07
5.09602e-07
1.16715e-06
5.28353e-07
5.32664e-07
5.19223e-07
5.30397e-07
3.47258e-06
5.68196e-07
8.21442e-07
5.30397e-07
3.4726e-06
5.68207e-07
8.21529e-07
5.28204e-07
2.43172e-06
2.43239e-06
5.40828e-07
5.40829e-07
1.09172e-05
5.81318e-07
1.09174e-05
5.81332e-07
1.2608e-05
1.65948e-05
1.26095e-05
1.65975e-05
2.5216e-06
2.52234e-06
4.8419e-07
2.37247e-06
2.37319e-06
2.05249e-05
1.76907e-05
2.05284e-05
1.76937e-05
4.79299e-07
2.30609e-06
2.30674e-06
2.339e-06
2.33973e-06
1.10733e-06
3.882e-06
9.33762e-07
4.60472e-06
5.43189e-07
1.22015e-06
4.95567e-07
4.85523e-07
5.2531e-07
1.20951e-06
4.82299e-07
5.43186e-07
1.22034e-06
4.95567e-07
4.8553e-07
5.25317e-07
1.20975e-06
4.82299e-07
1.16063e-06
5.40668e-06
4.8116e-06
1.28099e-06
1.16073e-06
5.40663e-06
4.81163e-06
1.281e-06
5.50946e-07
4.74297e-07
1.19326e-06
4.57768e-07
1.20466e-06
4.69707e-07
5.66441e-07
5.50947e-07
4.74305e-07
1.19344e-06
4.57768e-07
1.20482e-06
4.69707e-07
5.66437e-07
2.52208e-06
2.52183e-06
4.84189e-07
2.37308e-06
2.37258e-06
1.26087e-05
1.6596e-05
2.05261e-05
1.76924e-05
4.79299e-07
2.30661e-06
2.30631e-06
2.33951e-06
2.33934e-06
2.05261e-05
1.76915e-05
5.43226e-07
1.22042e-06
4.95567e-07
4.85528e-07
5.25308e-07
1.20978e-06
4.82299e-07
1.10757e-06
3.88254e-06
9.33517e-07
4.60553e-06
5.4322e-07
4.95567e-07
1.22038e-06
4.85531e-07
5.25298e-07
4.82299e-07
1.20978e-06
1.16062e-06
5.40715e-06
4.81194e-06
1.2812e-06
5.50942e-07
4.74303e-07
1.19346e-06
4.57768e-07
1.20484e-06
4.69707e-07
5.66465e-07
1.16061e-06
5.40764e-06
4.81239e-06
1.28119e-06
5.50944e-07
4.74307e-07
4.57769e-07
1.19351e-06
4.69708e-07
1.20489e-06
5.66468e-07
1.10749e-06
3.88201e-06
9.33617e-07
4.60502e-06
5.43202e-07
4.95567e-07
1.22024e-06
4.85524e-07
5.25285e-07
4.82299e-07
1.20963e-06
1.10751e-06
3.88249e-06
9.33455e-07
4.60521e-06
5.50941e-07
4.74294e-07
1.19326e-06
4.57767e-07
1.20466e-06
4.69706e-07
5.66447e-07
1.16066e-06
5.40674e-06
4.81136e-06
1.28109e-06
5.5094e-07
4.74298e-07
4.57768e-07
1.19332e-06
4.69707e-07
1.20465e-06
5.66444e-07
1.16057e-06
5.40708e-06
4.8122e-06
1.28106e-06
2.52226e-06
2.52176e-06
4.84192e-07
2.37319e-06
2.37244e-06
1.26095e-05
1.65964e-05
2.05294e-05
1.7694e-05
4.79299e-07
2.30681e-06
2.30626e-06
2.33967e-06
2.33918e-06
2.0527e-05
1.76932e-05
5.43236e-07
4.95567e-07
1.22041e-06
4.85529e-07
5.25285e-07
4.82299e-07
1.20977e-06
1.10778e-06
3.88245e-06
9.3338e-07
4.60529e-06
1.10784e-06
3.88234e-06
9.33496e-07
4.6052e-06
5.50936e-07
4.74295e-07
4.57768e-07
1.19331e-06
4.69707e-07
1.20472e-06
5.66467e-07
5.50935e-07
4.74302e-07
4.57768e-07
1.19344e-06
4.69707e-07
1.20481e-06
5.66474e-07
1.16038e-06
5.40734e-06
4.81218e-06
1.28122e-06
1.16041e-06
5.40731e-06
4.81193e-06
1.28125e-06
1.26091e-05
1.65963e-05
1.26096e-05
1.65971e-05
4.79299e-07
2.30622e-06
2.30672e-06
2.33888e-06
2.33969e-06
2.05263e-05
1.76927e-05
2.05279e-05
1.76939e-05
2.12885e-05
2.31038e-05
2.12923e-05
2.31079e-05
2.31143e-06
2.31212e-06
4.53486e-07
2.35306e-06
2.35365e-06
2.44668e-05
2.35392e-05
2.44705e-05
2.35429e-05
4.50881e-07
2.44252e-06
2.44329e-06
2.381e-06
2.38157e-06
1.43137e-06
5.59484e-06
1.32912e-06
6.1347e-06
5.87096e-07
1.19479e-06
4.46442e-07
4.44295e-07
5.73764e-07
1.20436e-06
4.35686e-07
5.87091e-07
1.19494e-06
4.46442e-07
4.44303e-07
5.73759e-07
1.20454e-06
4.35686e-07
1.47446e-06
6.77612e-06
6.30271e-06
1.55818e-06
1.47441e-06
6.77621e-06
6.30272e-06
1.55816e-06
5.93323e-07
4.35306e-07
1.23135e-06
4.1579e-07
1.21233e-06
4.25476e-07
6.03621e-07
5.93313e-07
4.35314e-07
1.23147e-06
4.15791e-07
1.21249e-06
4.25477e-07
6.03617e-07
2.31191e-06
2.31162e-06
4.53482e-07
2.3535e-06
2.35317e-06
2.12894e-05
2.31048e-05
2.44679e-05
2.35411e-05
4.50879e-07
2.4431e-06
2.44244e-06
2.38141e-06
2.38136e-06
2.44675e-05
2.35402e-05
5.87114e-07
1.195e-06
4.46442e-07
4.44297e-07
5.7377e-07
1.20454e-06
4.35687e-07
1.43185e-06
5.5958e-06
1.32916e-06
6.13592e-06
5.87116e-07
4.46443e-07
1.19502e-06
4.44306e-07
5.73777e-07
4.35687e-07
1.20462e-06
1.47409e-06
6.7768e-06
6.30349e-06
1.55856e-06
5.93335e-07
4.35309e-07
1.23148e-06
4.15791e-07
1.2125e-06
4.25477e-07
6.03636e-07
1.4741e-06
6.77755e-06
6.30388e-06
1.55857e-06
5.93341e-07
4.35318e-07
4.15792e-07
1.23154e-06
4.25479e-07
1.21263e-06
6.03643e-07
1.43155e-06
5.59475e-06
1.3291e-06
6.13474e-06
5.87102e-07
4.46442e-07
1.19483e-06
4.44296e-07
5.73765e-07
4.35686e-07
1.20447e-06
1.43142e-06
5.59541e-06
1.3292e-06
6.13522e-06
5.93318e-07
4.35299e-07
1.23127e-06
4.15789e-07
1.21235e-06
4.25475e-07
6.03623e-07
1.47431e-06
6.77632e-06
6.30266e-06
1.55823e-06
5.93321e-07
4.35308e-07
4.1579e-07
1.2314e-06
4.25477e-07
1.21242e-06
6.03627e-07
1.47434e-06
6.77691e-06
6.30339e-06
1.55825e-06
2.31218e-06
2.31136e-06
4.53491e-07
2.35377e-06
2.3532e-06
2.12909e-05
2.31062e-05
2.44717e-05
2.35443e-05
4.50884e-07
2.44316e-06
2.44271e-06
2.38197e-06
2.38117e-06
2.44687e-05
2.3542e-05
5.87111e-07
4.46442e-07
1.19493e-06
4.443e-07
5.7376e-07
4.35686e-07
1.20457e-06
1.43186e-06
5.59548e-06
1.32914e-06
6.13541e-06
1.43174e-06
5.59535e-06
1.32913e-06
6.13538e-06
5.93333e-07
4.35302e-07
4.15791e-07
1.23137e-06
4.25476e-07
1.21238e-06
6.03641e-07
5.93329e-07
4.35308e-07
4.15791e-07
1.23149e-06
4.25477e-07
1.21252e-06
6.03639e-07
1.47406e-06
6.77694e-06
6.30342e-06
1.55857e-06
1.47409e-06
6.77702e-06
6.30346e-06
1.55859e-06
2.12909e-05
2.31063e-05
2.12926e-05
2.31079e-05
4.50883e-07
2.44286e-06
2.44333e-06
2.38122e-06
2.38167e-06
2.44689e-05
2.35421e-05
2.44704e-05
2.35437e-05
2.46436e-05
2.49349e-05
2.46464e-05
2.49379e-05
2.47394e-06
2.47412e-06
4.30181e-07
2.5325e-06
2.53329e-06
2.48344e-05
2.4939e-05
2.48375e-05
2.49416e-05
4.28476e-07
2.61091e-06
2.61151e-06
2.56086e-06
2.56116e-06
1.66336e-06
6.91988e-06
1.59559e-06
7.31799e-06
6.15565e-07
1.24287e-06
4.06567e-07
4.10635e-07
6.0838e-07
1.26568e-06
3.97739e-07
6.1556e-07
1.24293e-06
4.06567e-07
4.10641e-07
6.08375e-07
1.26582e-06
3.9774e-07
1.69479e-06
7.75621e-06
7.43568e-06
1.74759e-06
1.69476e-06
7.75657e-06
7.43561e-06
1.74757e-06
6.18841e-07
4.03008e-07
1.30102e-06
3.81201e-07
1.27832e-06
3.89281e-07
6.23014e-07
6.18837e-07
4.03014e-07
1.30119e-06
3.81202e-07
1.27841e-06
3.89282e-07
6.23011e-07
2.47408e-06
2.47393e-06
4.30173e-07
2.53317e-06
2.53239e-06
2.46437e-05
2.49352e-05
2.48351e-05
2.49397e-05
4.28473e-07
2.61143e-06
2.61074e-06
2.5611e-06
2.5608e-06
2.48349e-05
2.49391e-05
6.15589e-07
1.24295e-06
4.06567e-07
4.10633e-07
6.08401e-07
1.26583e-06
3.97741e-07
1.6637e-06
6.92114e-06
1.59542e-06
7.31939e-06
6.15591e-07
4.0657e-07
1.24307e-06
4.10647e-07
6.08399e-07
3.97742e-07
1.26589e-06
1.69473e-06
7.75742e-06
7.43654e-06
1.74767e-06
6.18863e-07
4.03005e-07
1.30123e-06
3.81203e-07
1.27849e-06
3.89281e-07
6.23038e-07
1.69474e-06
7.75796e-06
7.4369e-06
1.74767e-06
6.18865e-07
4.03021e-07
3.81204e-07
1.30125e-06
3.89284e-07
1.27855e-06
6.23039e-07
1.66343e-06
6.91987e-06
1.59566e-06
7.31814e-06
6.15571e-07
4.06567e-07
1.24286e-06
4.10637e-07
6.08382e-07
3.9774e-07
1.26575e-06
1.66344e-06
6.92058e-06
1.59568e-06
7.31869e-06
6.18843e-07
4.02996e-07
1.30096e-06
3.812e-07
1.27826e-06
3.89279e-07
6.23019e-07
1.69483e-06
7.75674e-06
7.43562e-06
1.74764e-06
6.18844e-07
4.03011e-07
3.81202e-07
1.30111e-06
3.89282e-07
1.27834e-06
6.23021e-07
1.69483e-06
7.75724e-06
7.4363e-06
1.74763e-06
2.47462e-06
2.47381e-06
4.30186e-07
2.53318e-06
2.53287e-06
2.46454e-05
2.49365e-05
2.48386e-05
2.49429e-05
4.28483e-07
2.61157e-06
2.61107e-06
2.56155e-06
2.56076e-06
2.48357e-05
2.49404e-05
6.15584e-07
4.06568e-07
1.24296e-06
4.10634e-07
6.08395e-07
3.97741e-07
1.26584e-06
1.66369e-06
6.92062e-06
1.59541e-06
7.31878e-06
1.66371e-06
6.92072e-06
1.59543e-06
7.31888e-06
6.18858e-07
4.03001e-07
3.81203e-07
1.30113e-06
3.89281e-07
1.27834e-06
6.23031e-07
6.1886e-07
4.03006e-07
3.81203e-07
1.30121e-06
3.89283e-07
1.27844e-06
6.23032e-07
1.69472e-06
7.75734e-06
7.4364e-06
1.74766e-06
1.69474e-06
7.75752e-06
7.43652e-06
1.74767e-06
2.46456e-05
2.49367e-05
2.4647e-05
2.4938e-05
4.28481e-07
2.61109e-06
2.61158e-06
2.5608e-06
2.56128e-06
2.4836e-05
2.49407e-05
2.48371e-05
2.49419e-05
2.47446e-05
2.44199e-05
2.47466e-05
2.44225e-05
2.63526e-06
2.63556e-06
4.08474e-07
2.67923e-06
2.67984e-06
2.38595e-05
2.42798e-05
2.38622e-05
2.42819e-05
4.06882e-07
2.74227e-06
2.74285e-06
2.70079e-06
2.70142e-06
1.81217e-06
7.84851e-06
1.77238e-06
8.09703e-06
6.26284e-07
1.31319e-06
3.73484e-07
3.81696e-07
6.24874e-07
1.3338e-06
3.66067e-07
6.26282e-07
1.31329e-06
3.73485e-07
3.81701e-07
6.24871e-07
1.33397e-06
3.66068e-07
1.83055e-06
8.3496e-06
8.16505e-06
1.86002e-06
1.83053e-06
8.35003e-06
8.16521e-06
1.86e-06
6.26709e-07
3.74991e-07
1.36256e-06
3.51911e-07
1.34463e-06
3.58882e-07
6.25668e-07
6.26706e-07
3.74996e-07
1.36275e-06
3.51912e-07
1.34481e-06
3.58883e-07
6.25666e-07
2.63553e-06
2.63518e-06
4.08465e-07
2.67976e-06
2.67902e-06
2.47443e-05
2.44201e-05
2.38601e-05
2.42809e-05
4.06876e-07
2.74277e-06
2.74204e-06
2.70139e-06
2.70094e-06
2.38601e-05
2.42799e-05
6.26313e-07
1.31333e-06
3.73485e-07
3.81689e-07
6.24897e-07
1.33401e-06
3.66069e-07
1.81233e-06
7.84978e-06
1.77242e-06
8.09838e-06
6.26312e-07
3.73488e-07
1.31343e-06
3.81708e-07
6.24899e-07
3.66071e-07
1.33403e-06
1.83053e-06
8.35104e-06
8.1662e-06
1.86016e-06
6.26731e-07
3.74983e-07
1.36278e-06
3.51914e-07
1.34485e-06
3.58883e-07
6.25696e-07
1.83052e-06
8.35135e-06
8.1664e-06
1.86015e-06
6.26732e-07
3.75003e-07
3.51915e-07
1.3628e-06
3.58886e-07
1.34495e-06
6.25695e-07
1.81224e-06
7.84854e-06
1.77245e-06
8.0972e-06
6.26291e-07
3.73485e-07
1.31321e-06
3.81699e-07
6.24878e-07
3.66068e-07
1.33389e-06
1.81223e-06
7.84917e-06
1.77244e-06
8.09765e-06
6.26713e-07
3.74975e-07
1.36251e-06
3.5191e-07
1.34465e-06
3.58881e-07
6.25675e-07
1.8306e-06
8.35023e-06
8.16525e-06
1.86007e-06
6.26713e-07
3.74994e-07
3.51912e-07
1.36266e-06
3.58883e-07
1.34473e-06
6.25675e-07
1.83058e-06
8.35059e-06
8.16582e-06
1.86005e-06
2.63596e-06
2.63517e-06
4.0848e-07
2.67989e-06
2.67939e-06
2.47461e-05
2.44209e-05
2.38632e-05
2.42832e-05
4.06889e-07
2.74293e-06
2.74238e-06
2.70177e-06
2.70099e-06
2.38608e-05
2.42816e-05
6.26306e-07
3.73486e-07
1.31332e-06
3.81691e-07
6.24894e-07
3.66069e-07
1.33399e-06
1.81232e-06
7.84928e-06
1.77241e-06
8.09777e-06
1.81234e-06
7.84947e-06
1.77242e-06
8.09802e-06
6.26724e-07
3.74982e-07
3.51913e-07
1.36267e-06
3.58882e-07
1.34473e-06
6.25687e-07
6.26727e-07
3.74985e-07
3.51913e-07
1.36277e-06
3.58884e-07
1.34484e-06
6.25689e-07
1.83051e-06
8.35073e-06
8.16595e-06
1.86014e-06
1.83053e-06
8.35103e-06
8.1662e-06
1.86016e-06
2.47464e-05
2.44211e-05
2.47474e-05
2.4422e-05
4.06887e-07
2.74239e-06
2.74291e-06
2.70102e-06
2.70152e-06
2.3861e-05
2.42818e-05
2.38617e-05
2.42827e-05
2.37003e-05
2.32553e-05
2.3702e-05
2.32578e-05
2.76345e-06
2.76402e-06
3.86827e-07
2.8053e-06
2.80592e-06
2.26608e-05
2.30955e-05
2.26631e-05
2.3097e-05
3.85284e-07
2.8715e-06
2.87212e-06
2.82703e-06
2.82768e-06
1.89326e-06
8.39829e-06
1.87272e-06
8.5273e-06
6.22181e-07
1.37206e-06
3.45183e-07
3.55916e-07
6.25433e-07
1.38734e-06
3.38724e-07
6.22181e-07
1.37225e-06
3.45184e-07
3.55919e-07
6.25432e-07
1.38751e-06
3.38726e-07
1.90333e-06
8.64482e-06
8.56002e-06
1.91407e-06
1.90332e-06
8.64528e-06
8.56033e-06
1.91407e-06
6.21562e-07
3.4992e-07
1.40842e-06
3.26484e-07
1.39562e-06
3.32512e-07
6.1617e-07
6.21562e-07
3.49923e-07
1.4086e-06
3.26485e-07
1.3958e-06
3.32514e-07
6.16169e-07
2.76398e-06
2.76355e-06
3.86817e-07
2.80584e-06
2.80503e-06
2.37002e-05
2.32559e-05
2.26614e-05
2.30964e-05
3.85276e-07
2.87205e-06
2.87122e-06
2.8276e-06
2.82721e-06
2.26614e-05
2.30953e-05
6.22216e-07
1.37231e-06
3.45184e-07
3.55904e-07
6.25459e-07
1.38755e-06
3.38727e-07
1.89346e-06
8.39939e-06
1.87272e-06
8.5286e-06
6.22214e-07
3.45187e-07
1.37238e-06
3.55927e-07
6.25459e-07
3.38729e-07
1.38757e-06
1.90336e-06
8.64627e-06
8.56125e-06
1.9142e-06
6.2159e-07
3.49908e-07
1.40863e-06
3.26486e-07
1.39586e-06
3.32513e-07
6.16198e-07
1.90335e-06
8.64642e-06
8.56142e-06
1.91418e-06
6.21589e-07
3.49931e-07
3.26488e-07
1.40864e-06
3.32517e-07
1.39593e-06
6.16195e-07
1.89332e-06
8.39834e-06
1.87278e-06
8.5275e-06
6.22188e-07
3.45184e-07
1.37216e-06
3.55919e-07
6.25437e-07
3.38725e-07
1.38742e-06
1.8933e-06
8.39884e-06
1.87276e-06
8.52777e-06
6.21568e-07
3.49901e-07
1.40835e-06
3.26482e-07
1.39563e-06
3.32511e-07
6.16178e-07
1.90338e-06
8.64546e-06
8.56038e-06
1.91412e-06
6.21565e-07
3.49923e-07
3.26484e-07
1.4085e-06
3.32513e-07
1.3957e-06
6.16176e-07
1.90336e-06
8.64567e-06
8.56079e-06
1.9141e-06
2.76439e-06
2.76357e-06
3.86832e-07
2.80597e-06
2.8054e-06
2.37019e-05
2.32566e-05
2.26642e-05
2.30981e-05
3.8529e-07
2.87217e-06
2.87161e-06
2.8281e-06
2.82713e-06
2.26621e-05
2.3097e-05
6.22209e-07
3.45184e-07
1.37228e-06
3.55906e-07
6.25455e-07
3.38726e-07
1.38754e-06
1.89346e-06
8.39898e-06
1.87271e-06
8.52792e-06
1.89348e-06
8.3993e-06
1.87273e-06
8.52829e-06
6.21581e-07
3.49909e-07
3.26486e-07
1.40852e-06
3.32513e-07
1.3957e-06
6.16188e-07
6.21587e-07
3.49909e-07
3.26485e-07
1.40863e-06
3.32514e-07
1.39583e-06
6.16192e-07
1.90334e-06
8.64582e-06
8.56094e-06
1.91417e-06
1.90336e-06
8.64625e-06
8.56131e-06
1.91419e-06
2.37021e-05
2.32568e-05
2.37028e-05
2.32573e-05
3.85289e-07
2.87161e-06
2.87219e-06
2.82717e-06
2.82773e-06
2.26623e-05
2.30972e-05
2.26627e-05
2.30977e-05
2.25124e-05
2.21085e-05
2.25137e-05
2.21107e-05
2.89484e-06
2.89547e-06
3.65508e-07
2.94363e-06
2.94429e-06
2.1612e-05
2.19685e-05
2.16141e-05
2.19698e-05
3.64035e-07
3.02077e-06
3.02153e-06
2.96953e-06
2.97023e-06
1.93133e-06
8.6643e-06
1.92101e-06
8.71946e-06
6.09056e-07
1.4158e-06
3.2057e-07
3.32718e-07
6.15256e-07
1.42783e-06
3.14749e-07
6.09056e-07
1.41599e-06
3.20572e-07
3.3272e-07
6.15257e-07
1.42802e-06
3.1475e-07
1.93421e-06
8.7504e-06
8.73114e-06
1.93861e-06
1.93421e-06
8.75094e-06
8.73166e-06
1.93862e-06
6.07861e-07
3.27183e-07
1.44552e-06
3.03543e-07
1.43482e-06
3.09053e-07
6.00395e-07
6.07862e-07
3.27185e-07
1.44572e-06
3.03545e-07
1.43502e-06
3.09055e-07
6.00396e-07
2.89551e-06
2.89493e-06
3.65498e-07
2.94415e-06
2.94328e-06
2.25121e-05
2.21091e-05
2.16129e-05
2.19693e-05
3.64028e-07
3.02143e-06
3.02054e-06
2.97011e-06
2.96939e-06
2.16125e-05
2.19682e-05
6.09082e-07
1.41605e-06
3.20571e-07
3.32703e-07
6.15287e-07
1.42805e-06
3.14751e-07
1.93149e-06
8.66536e-06
1.92107e-06
8.72044e-06
6.0908e-07
3.20575e-07
1.41612e-06
3.32728e-07
6.15285e-07
3.14753e-07
1.42805e-06
1.93412e-06
8.75185e-06
8.73254e-06
1.93884e-06
6.0788e-07
3.27168e-07
1.44574e-06
3.03546e-07
1.43508e-06
3.09054e-07
6.00434e-07
1.9341e-06
8.75188e-06
8.73258e-06
1.93881e-06
6.07879e-07
3.27193e-07
3.03548e-07
1.44576e-06
3.09058e-07
1.43513e-06
6.0043e-07
1.93138e-06
8.66435e-06
1.92107e-06
8.71961e-06
6.09061e-07
3.20571e-07
1.41588e-06
3.32721e-07
6.15259e-07
3.1475e-07
1.4279e-06
1.93135e-06
8.66467e-06
1.92104e-06
8.71977e-06
6.07866e-07
3.27162e-07
1.44546e-06
3.03542e-07
1.43483e-06
3.09051e-07
6.00404e-07
1.93426e-06
8.75109e-06
8.73171e-06
1.93867e-06
6.07863e-07
3.27186e-07
3.03544e-07
1.4456e-06
3.09054e-07
1.4349e-06
6.00401e-07
1.93424e-06
8.75119e-06
8.73195e-06
1.93864e-06
2.89583e-06
2.89495e-06
3.65514e-07
2.94434e-06
2.94372e-06
2.25138e-05
2.21098e-05
2.16151e-05
2.19709e-05
3.64042e-07
3.02165e-06
3.02091e-06
2.97046e-06
2.96965e-06
2.16133e-05
2.19699e-05
6.09076e-07
3.20572e-07
1.41602e-06
3.32705e-07
6.15284e-07
3.1475e-07
1.42804e-06
1.93148e-06
8.66482e-06
1.92107e-06
8.71993e-06
1.9315e-06
8.66525e-06
1.92109e-06
8.7204e-06
6.0787e-07
3.2717e-07
3.03546e-07
1.44561e-06
3.09053e-07
1.43491e-06
6.00426e-07
6.07876e-07
3.27169e-07
3.03545e-07
1.44574e-06
3.09054e-07
1.43505e-06
6.00429e-07
1.93408e-06
8.75134e-06
8.73211e-06
1.93881e-06
1.9341e-06
8.75186e-06
8.73258e-06
1.93884e-06
2.25139e-05
2.211e-05
2.25144e-05
2.21103e-05
3.64041e-07
3.02093e-06
3.02162e-06
2.96967e-06
2.97031e-06
2.16135e-05
2.197e-05
2.16138e-05
2.19704e-05
2.14943e-05
2.1171e-05
2.14955e-05
2.11729e-05
3.04715e-06
3.04791e-06
3.44953e-07
3.10487e-06
3.10564e-06
2.0771e-05
2.10566e-05
2.07726e-05
2.10577e-05
3.43627e-07
3.19178e-06
3.19268e-06
3.13602e-06
3.13689e-06
1.94736e-06
8.75492e-06
1.9447e-06
8.77712e-06
5.91846e-07
1.45223e-06
2.98265e-07
3.11444e-07
5.99262e-07
1.46334e-06
2.9323e-07
5.91845e-07
1.45243e-06
2.98266e-07
3.11445e-07
5.99265e-07
1.46353e-06
2.93231e-07
1.94716e-06
8.76775e-06
8.777e-06
1.94502e-06
1.94716e-06
8.76833e-06
8.77754e-06
1.94503e-06
5.90342e-07
3.06686e-07
1.48011e-06
2.83673e-07
1.46981e-06
2.884e-07
5.81362e-07
5.90343e-07
3.06688e-07
1.4803e-06
2.83674e-07
1.47002e-06
2.88402e-07
5.81362e-07
3.04782e-06
3.04721e-06
3.44943e-07
3.10554e-06
3.10412e-06
2.1494e-05
2.11714e-05
2.07716e-05
2.10573e-05
3.4362e-07
3.19257e-06
3.19162e-06
3.13681e-06
3.13608e-06
2.07713e-05
2.10563e-05
5.91867e-07
1.45249e-06
2.98265e-07
3.11427e-07
5.993e-07
1.46356e-06
2.93232e-07
1.94752e-06
8.75583e-06
1.94485e-06
8.77797e-06
5.91866e-07
2.9827e-07
1.45257e-06
3.11453e-07
5.99297e-07
2.93235e-07
1.46355e-06
1.94716e-06
8.76926e-06
8.77844e-06
1.94505e-06
5.9036e-07
3.06669e-07
1.48033e-06
2.83675e-07
1.47008e-06
2.88401e-07
5.81384e-07
1.94714e-06
8.76913e-06
8.77841e-06
1.94504e-06
5.90359e-07
3.06696e-07
2.83678e-07
1.48035e-06
2.88405e-07
1.47013e-06
5.81383e-07
1.94741e-06
8.75503e-06
1.94475e-06
8.77722e-06
5.91849e-07
2.98266e-07
1.45231e-06
3.11446e-07
5.99265e-07
2.93231e-07
1.46341e-06
1.94738e-06
8.75517e-06
1.94473e-06
8.77732e-06
5.90346e-07
3.06664e-07
1.48003e-06
2.83673e-07
1.4698e-06
2.88399e-07
5.81368e-07
1.94721e-06
8.76848e-06
8.77768e-06
1.94507e-06
5.90343e-07
3.06689e-07
2.83674e-07
1.48017e-06
2.88402e-07
1.46989e-06
5.81366e-07
1.94718e-06
8.76847e-06
8.77773e-06
1.94505e-06
3.04826e-06
3.04728e-06
3.44959e-07
3.10531e-06
3.10499e-06
2.14957e-05
2.11722e-05
2.07738e-05
2.10588e-05