/*--------------------------------*- C++ -*----------------------------------*\
| =========                 |                                                 |
| \\      /  F ield         | OpenFOAM: The Open Source CFD Toolbox           |
|  \\    /   O peration     | Version:  2206                                  |
|   \\  /    A nd           | Website:  www.openfoam.com                      |
|    \\/     M anipulation  |                                                 |
\*---------------------------------------------------------------------------*/
FoamFile
{
    version     2.0;
    format      ascii;
    arch        "LSB;label=32;scalar=64";
    class       surfaceScalarField;
    location    "0.5";
    object      phi;
}
// * * * * * * * * * * * * * * * * * * * * * * * * * * * * * * * * * * * * * //

dimensions      [0 3 -1 0 0 0 0];

oriented        oriented;

internalField   nonuniform List<scalar> 
82545
(
1.37494e-05
1.37752e-05
1.60367e-06
1.24031e-07
-1.46194e-05
-1.46329e-05
4.09113e-07
4.16814e-07
-4.14486e-07
-4.13517e-07
5.01245e-06
-5.01037e-06
1.46298e-05
-4.14812e-07
9.79112e-07
4.31046e-06
1.3235e-05
-1.50338e-05
-1.25467e-05
-1.72899e-05
1.5906e-05
-1.62628e-05
1.68012e-05
-4.31353e-06
1.46295e-05
-4.15616e-07
9.77022e-07
4.31113e-06
1.32329e-05
-1.50349e-05
-1.2545e-05
-1.72854e-05
1.59028e-05
-1.62583e-05
1.67979e-05
-4.31207e-06
1.20939e-07
-1.46225e-05
-1.4636e-05
1.37512e-05
1.37767e-05
1.60964e-06
-1.60795e-06
-1.41535e-05
-1.41799e-05
1.50256e-05
1.50367e-05
-1.46171e-05
-1.46308e-05
1.37493e-05
1.37743e-05
1.59897e-06
1.25407e-07
9.76891e-07
4.32203e-06
1.32306e-05
-1.50234e-05
-1.25461e-05
-1.72856e-05
1.59012e-05
-1.62583e-05
1.67952e-05
-4.32051e-06
1.46197e-05
-4.08932e-07
9.76788e-07
4.31849e-06
1.32192e-05
-1.5022e-05
-1.25333e-05
-1.72906e-05
1.59082e-05
-1.62664e-05
1.68007e-05
-4.32174e-06
1.37713e-05
1.37523e-05
1.5994e-06
1.26481e-07
9.77447e-07
4.31369e-06
1.32206e-05
-1.50331e-05
-1.25323e-05
-1.72907e-05
1.59094e-05
-1.62658e-05
1.68023e-05
-4.31573e-06
1.46195e-05
-4.12196e-07
9.75135e-07
4.31871e-06
1.32184e-05
-1.50223e-05
-1.25311e-05
-1.72867e-05
1.59052e-05
-1.62618e-05
1.67976e-05
-4.3205e-06
-4.14199e-07
9.71824e-07
4.31301e-06
1.32358e-05
-1.50243e-05
-1.25456e-05
-1.72852e-05
1.59051e-05
-1.62579e-05
1.67986e-05
-4.31972e-06
1.37709e-05
1.37526e-05
1.60127e-06
1.24244e-07
-4.18931e-07
9.71292e-07
4.31058e-06
1.3225e-05
-1.50357e-05
-1.25335e-05
-1.72916e-05
1.59128e-05
-1.62658e-05
1.68052e-05
-4.31529e-06
2.51874e-06
-5.71263e-06
9.1348e-07
4.93102e-06
1.34854e-06
-3.99916e-06
2.51667e-06
-5.70838e-06
9.12828e-07
4.93016e-06
1.34831e-06
-3.99959e-06
-1.21762e-07
-1.60495e-06
-1.41519e-05
-1.41787e-05
1.50233e-05
1.5034e-05
-2.77781e-06
-1.34728e-06
-1.11667e-06
-4.9318e-06
6.1416e-06
4.03196e-06
-2.7753e-06
-1.34688e-06
-1.11604e-06
-4.93105e-06
6.13851e-06
4.03076e-06
2.00872e-10
8.76961e-06
-4.10854e-06
-5.2098e-08
-3.69304e-06
2.50351e-07
-6.18007e-06
3.61804e-06
1.37597e-06
9.3571e-07
1.09916e-08
6.17794e-06
-1.6355e-06
-3.61989e-06
1.50829e-09
-8.89366e-06
3.6943e-06
4.15176e-06
1.31963e-07
9.14126e-07
-2.52493e-07
-2.51494e-06
2.16509e-06
6.02338e-07
-7.42247e-09
2.77461e-06
-2.16608e-06
8.77199e-06
6.4044e-10
-5.2294e-08
-4.11101e-06
-3.69183e-06
2.52497e-07
-6.18319e-06
3.6201e-06
1.37576e-06
9.34827e-07
7.42792e-09
6.18065e-06
-1.63361e-06
-3.62182e-06
-8.89588e-06
-2.01734e-09
3.69276e-06
1.35086e-07
4.15426e-06
9.15792e-07
-4.11123e-07
-4.11818e-07
5.01045e-06
-5.01126e-06
-4.1458e-07
-4.15371e-07
5.00808e-06
-5.00593e-06
-4.14914e-07
-4.13945e-07
4.99588e-06
-5.00016e-06
-8.76805e-06
-6.20586e-11
-3.64096e-07
1.38783e-05
-3.75018e-06
3.99837e-06
6.17979e-06
-1.27467e-05
4.01687e-06
-2.52983e-06
1.08152e-06
4.47605e-06
1.763e-09
4.16243e-07
-1.7028e-05
1.73494e-05
-1.70452e-05
1.72872e-05
-4.47831e-06
9.80219e-07
-1.50348e-05
-4.11013e-07
1.68001e-05
-1.62641e-05
1.59054e-05
-1.72915e-05
1.46294e-05
-1.25496e-05
1.32339e-05
-4.03029e-06
-6.1776e-06
2.43787e-06
-4.01649e-06
1.28684e-05
1.44122e-09
4.19542e-07
1.72862e-05
-1.7047e-05
1.73483e-05
-1.70295e-05
8.89275e-06
-2.66683e-09
3.75149e-06
4.68668e-07
-1.41039e-05
9.937e-07
-2.52589e-07
-2.51532e-06
2.16591e-06
6.01992e-07
-7.5791e-09
2.77494e-06
-2.16691e-06
1.21587e-09
-8.76783e-06
1.38781e-05
-3.65298e-07
-3.74939e-06
4.47451e-06
-3.70627e-10
4.14811e-07
-1.70247e-05
1.73475e-05
-1.70434e-05
1.72848e-05
-4.47616e-06
3.99799e-06
6.17961e-06
-1.27456e-05
4.01509e-06
-2.5291e-06
1.08199e-06
9.76625e-07
-1.50348e-05
-4.12188e-07
1.67963e-05
-1.62591e-05
1.59033e-05
-1.72873e-05
1.46299e-05
-1.25466e-05
1.32319e-05
-2.69423e-11
4.17502e-07
1.72837e-05
-1.70461e-05
1.73459e-05
-1.70264e-05
-4.03153e-06
-6.17721e-06
2.44013e-06
-4.01434e-06
1.2866e-05
8.97028e-10
8.89223e-06
3.75126e-06
-1.4103e-05
4.6547e-07
9.93168e-07
1.34722e-06
-3.99599e-06
2.51426e-06
-5.71059e-06
9.12805e-07
4.9323e-06
1.34674e-06
-3.99707e-06
2.51233e-06
-5.70636e-06
9.12772e-07
4.9316e-06
1.50244e-05
1.50353e-05
-1.60806e-06
-1.41532e-05
-1.41794e-05
4.02982e-06
-2.77517e-06
-1.11539e-06
-4.93272e-06
6.14039e-06
4.02818e-06
-2.77269e-06
-1.11373e-06
-4.93212e-06
6.13682e-06
2.16681e-06
6.00607e-07
-2.48672e-07
-6.01923e-07
-2.16557e-06
-1.03079e-08
2.16775e-06
5.99876e-07
-2.50947e-07
-6.02001e-07
-2.16594e-06
-7.34642e-09
1.60573e-06
1.37496e-05
1.37751e-05
-1.46192e-05
-1.4633e-05
-2.7797e-06
6.14193e-06
-1.1157e-06
-4.93187e-06
4.03257e-06
-2.77698e-06
6.13854e-06
-1.11438e-06
-4.93125e-06
4.03083e-06
2.51765e-06
9.14073e-07
-5.71305e-06
4.9322e-06
-3.99816e-06
2.51589e-06
9.13455e-07
-5.7085e-06
4.93148e-06
-3.99921e-06
-6.03522e-07
-2.16433e-06
-1.18528e-08
2.16561e-06
-2.49876e-07
-6.04127e-07
-2.16358e-06
-9.27899e-09
2.16541e-06
-2.51521e-07
-2.51785e-06
2.16589e-06
6.02315e-07
2.77883e-06
-2.16693e-06
-2.51608e-06
2.16692e-06
6.01643e-07
2.77585e-06
-2.16795e-06
-3.99807e-06
-5.7133e-06
4.93139e-06
9.14401e-07
1.34771e-06
-3.99948e-06
-5.70839e-06
4.93016e-06
9.13604e-07
1.34803e-06
1.50223e-05
1.50314e-05
-1.59763e-06
-1.41506e-05
-1.41789e-05
4.03223e-06
-1.11622e-06
-4.93153e-06
6.14228e-06
4.03024e-06
-1.11607e-06
-4.92979e-06
6.13942e-06
8.77097e-06
-4.10922e-06
-5.16467e-08
-3.69379e-06
-6.18226e-06
3.61779e-06
1.3761e-06
9.35861e-07
6.17984e-06
-1.6341e-06
-3.61888e-06
-8.895e-06
3.69498e-06
4.15275e-06
1.34484e-07
9.1429e-07
9.24973e-10
-3.65018e-07
1.38768e-05
-3.74434e-06
-1.27458e-05
4.01365e-06
-2.52842e-06
1.08245e-06
4.47567e-06
-1.43371e-09
4.16186e-07
-1.70247e-05
1.73464e-05
-1.70432e-05
1.72843e-05
-4.47632e-06
9.77241e-07
-4.07688e-07
1.46178e-05
-1.2547e-05
1.32308e-05
1.67952e-05
-1.62596e-05
1.59023e-05
-1.72876e-05
2.44025e-06
-4.01304e-06
1.28664e-05
-1.04388e-09
4.1542e-07
1.72842e-05
-1.70441e-05
1.73462e-05
-1.70263e-05
1.89445e-09
3.74655e-06
4.64334e-07
-1.41024e-05
9.95919e-07
-3.62939e-07
1.38793e-05
-3.74578e-06
3.99927e-06
-1.2749e-05
4.01527e-06
-2.52961e-06
1.08181e-06
4.47708e-06
4.17106e-07
-1.70282e-05
1.7348e-05
-1.70454e-05
1.72869e-05
-4.48008e-06
9.7814e-07
-1.50218e-05
-4.09373e-07
1.68001e-05
-1.62682e-05
-1.72924e-05
1.59075e-05
1.46181e-05
-1.25345e-05
1.32185e-05
-4.03055e-06
2.4374e-06
-4.01391e-06
1.28703e-05
4.16455e-07
1.72864e-05
-1.70465e-05
1.73481e-05
-1.70309e-05
3.74768e-06
4.67783e-07
-1.41042e-05
9.95585e-07
-5.7067e-06
4.93097e-06
9.13435e-07
1.34661e-06
2.51772e-06
-5.71318e-06
4.93407e-06
9.13237e-07
1.34653e-06
-1.59803e-06
-1.41754e-05
-1.41559e-05
-1.11565e-06
-4.93053e-06
6.13738e-06
-2.7772e-06
-1.11595e-06
-4.93384e-06
6.14332e-06
-2.49344e-07
2.1638e-06
6.03263e-07
-1.03771e-08
-2.16494e-06
-5.16455e-11
-3.63846e-07
1.38795e-05
-3.74404e-06
-1.2749e-05
4.01365e-06
-2.53031e-06
1.08297e-06
4.47947e-06
8.5364e-10
4.1514e-07
-1.70271e-05
1.73467e-05
-1.70441e-05
1.72856e-05
-4.4791e-06
9.76724e-07
-4.20044e-07
1.46322e-05
-1.25322e-05
1.32212e-05
1.68032e-05
-1.6267e-05
1.5911e-05
-1.7293e-05
2.43813e-06
-4.01329e-06
1.28693e-05
1.25639e-09
4.13352e-07
1.72865e-05
-1.70456e-05
1.73479e-05
-1.70287e-05
-1.77974e-09
3.74548e-06
4.67969e-07
-1.41044e-05
9.96862e-07
8.77129e-06
-4.11054e-06
-5.14811e-08
-3.69121e-06
-6.18229e-06
3.61843e-06
1.37618e-06
9.3508e-07
6.17932e-06
-1.63379e-06
-3.62051e-06
-8.8952e-06
3.6923e-06
4.15356e-06
1.31688e-07
9.1564e-07
1.38781e-05
-3.63738e-07
-3.74356e-06
4.47829e-06
4.13626e-07
-1.70248e-05
1.7346e-05
-1.7043e-05
1.72846e-05
-4.47871e-06
3.99927e-06
-1.27474e-05
4.01292e-06
-2.52958e-06
1.08251e-06
9.75152e-07
-1.50207e-05
-4.17492e-07
1.67976e-05
-1.62633e-05
-1.72881e-05
1.59058e-05
1.462e-05
-1.25309e-05
1.32183e-05
4.10693e-07
1.72854e-05
-1.70441e-05
1.73472e-05
-1.70264e-05
-4.03161e-06
2.43908e-06
-4.01233e-06
1.28672e-05
3.74503e-06
-1.41034e-05
4.64827e-07
9.96531e-07
9.78245e-10
-5.24175e-08
-4.10599e-06
-3.69679e-06
3.6158e-06
1.37773e-06
9.36925e-07
-1.63576e-06
-3.61742e-06
-2.74462e-09
3.69746e-06
1.35345e-07
4.15007e-06
9.12613e-07
-8.76774e-06
1.38776e-05
-3.64112e-07
-3.75103e-06
4.4715e-06
4.12571e-07
-1.70252e-05
1.73485e-05
-1.7044e-05
1.72869e-05
-4.47666e-06
6.17757e-06
-1.27459e-05
4.01883e-06
-2.52662e-06
1.08012e-06
9.76537e-07
-4.08943e-07
1.46209e-05
-1.25484e-05
1.32334e-05
1.67977e-05
-1.6262e-05
1.59037e-05
-1.72893e-05
4.1643e-07
1.72858e-05
-1.70461e-05
1.73489e-05
-1.70294e-05
-6.1757e-06
2.43818e-06
-4.01975e-06
1.28669e-05
8.89189e-06
3.75166e-06
-1.41026e-05
4.63501e-07
9.92899e-07
-4.10561e-06
-5.10106e-08
-3.69661e-06
2.50512e-07
3.61192e-06
1.3778e-06
9.37341e-07
1.03337e-08
-1.63672e-06
-3.61176e-06
3.69706e-06
4.14899e-06
1.3063e-07
9.12457e-07
-5.70674e-06
4.9291e-06
9.13823e-07
1.34777e-06
2.51801e-06
-5.71376e-06
4.93171e-06
9.14106e-07
1.34793e-06
-1.60072e-06
-1.41753e-05
-1.4155e-05
-1.11678e-06
-4.9292e-06
6.13716e-06
-2.77894e-06
-1.11596e-06
-4.93179e-06
6.14292e-06
-2.49623e-07
2.16475e-06
6.02887e-07
-1.17585e-08
-2.16611e-06
-8.76896e-06
1.38809e-05
-3.62937e-07
-3.75144e-06
4.47162e-06
4.14191e-07
-1.70291e-05
1.73493e-05
-1.70463e-05
1.72884e-05
-4.47717e-06
6.18043e-06
-1.27488e-05
4.01882e-06
-2.52794e-06
1.0804e-06
9.77554e-07
-4.11982e-07
1.46338e-05
-1.25356e-05
1.32214e-05
1.68031e-05
-1.62692e-05
1.59105e-05
-1.72945e-05
4.19093e-07
1.72864e-05
-1.70493e-05
1.73481e-05
-1.70316e-05
-6.17743e-06
2.43646e-06
-4.01899e-06
1.28687e-05
8.89314e-06
3.75291e-06
-1.41045e-05
4.66811e-07
9.92537e-07
5.34976e-10
-5.2249e-08
-4.10581e-06
-3.69497e-06
3.61615e-06
1.37722e-06
9.36617e-07
-1.63655e-06
-3.61852e-06
8.85349e-10
3.6964e-06
1.32476e-07
4.14971e-06
9.1276e-07
-5.11885e-08
-4.10589e-06
-3.69588e-06
2.52583e-07
3.61168e-06
1.37764e-06
9.38533e-07
8.39139e-09
-1.63623e-06
-3.61295e-06
3.69762e-06
1.33622e-07
4.15003e-06
9.12747e-07
2.16126e-06
-2.16089e-06
2.16081e-06
-2.16114e-06
1.05138e-06
1.05005e-06
3.97288e-06
1.0808e-06
-3.56836e-06
-3.58676e-06
-1.93215e-06
1.0705e-06
1.43725e-06
-5.75613e-07
-1.93202e-06
1.06864e-06
1.43898e-06
-5.75606e-07
5.75833e-07
-1.45659e-06
5.7573e-07
-1.45769e-06
3.58854e-06
3.60378e-06
-1.08027e-06
-5.21245e-06
-3.5631e-06
2.47543e-06
-3.5887e-06
-8.84826e-07
1.07736e-05
2.08885e-06
3.37591e-06
-1.01988e-05
5.63701e-07
-1.54225e-06
3.73887e-06
-5.43398e-06
1.45619e-06
1.1524e-06
-1.1174e-06
6.14196e-06
-1.34773e-06
-2.77812e-06
4.03232e-06
-1.43762e-06
-1.15335e-06
3.56853e-06
-1.13631e-05
8.86399e-07
-5.61744e-07
1.05018e-05
2.05327e-06
-5.21418e-06
-3.56237e-06
2.4803e-06
-3.60417e-06
-8.85127e-07
1.07855e-05
2.09647e-06
3.37198e-06
-1.0195e-05
5.6444e-07
-1.54626e-06
3.73874e-06
-5.43499e-06
1.45744e-06
1.15165e-06
-1.1169e-06
6.13893e-06
-1.34737e-06
-2.77616e-06
4.03166e-06
-1.43934e-06
-1.15299e-06
3.58679e-06
-1.13744e-05
8.86747e-07
-5.62186e-07
1.04983e-05
2.05514e-06
-1.07103e-06
-1.0693e-06
-3.97174e-06
1.93281e-06
-1.05165e-06
5.7503e-07
1.9329e-06
-1.05021e-06
5.7474e-07
1.08174e-06
5.43405e-06
3.56496e-06
-2.08866e-06
-1.13635e-05
-3.73792e-06
5.21188e-06
-1.15338e-06
9.13788e-07
-5.71274e-06
2.51793e-06
-3.99851e-06
-2.47586e-06
-3.37804e-06
-5.60816e-07
1.05019e-05
2.05441e-06
-8.84103e-07
1.07736e-05
-1.01991e-05
-1.54207e-06
5.43496e-06
3.5643e-06
-2.09661e-06
-1.13745e-05
-3.73737e-06
5.2135e-06
-1.15318e-06
9.13073e-07
-5.70831e-06
2.51619e-06
-3.99938e-06
-2.48025e-06
-3.37443e-06
-5.61043e-07
1.04987e-05
2.05557e-06
-8.84336e-07
1.07857e-05
-1.0195e-05
-1.54653e-06
3.70557e-07
-3.90596e-06
2.99981e-06
-3.19701e-07
8.55299e-07
-3.51011e-06
4.15443e-07
-1.553e-09
-3.69004e-06
-3.87489e-06
3.90637e-08
8.40545e-06
4.15284e-06
1.32061e-07
9.14773e-07
1.75121e-09
-8.89446e-06
1.01425e-06
-9.55521e-10
1.19559e-07
9.3075e-07
-8.51424e-06
3.94478e-07
2.76202e-06
-1.8463e-06
-5.21219e-07
-3.94504e-07
-1.63601e-06
-9.3423e-07
1.16137e-08
6.17667e-06
4.644e-06
2.68853e-06
-1.19294e-07
-7.02611e-06
1.18883e-06
-1.18899e-06
-3.98775e-08
6.99886e-06
3.19707e-07
5.22543e-07
-2.68866e-06
1.84774e-06
-4.64395e-06
-2.76278e-06
6.99957e-06
1.37585e-06
2.50587e-07
-6.18057e-06
-7.02618e-06
-4.15141e-07
3.87301e-06
-2.99708e-06
-4.1069e-06
-5.1815e-08
-1.27278e-10
8.76792e-06
3.50656e-06
-3.70785e-07
-7.57069e-10
1.01674e-06
3.69113e-06
3.9058e-06
-8.51416e-06
9.29889e-07
-1.21591e-09
8.40319e-06
8.57648e-07
-6.01952e-07
-8.04516e-09
2.77509e-06
-2.52045e-07
-2.51599e-06
-3.90949e-06
3.71592e-07
3.00422e-06
-3.20468e-07
8.54142e-07
-3.68957e-06
-3.87772e-06
3.87296e-08
8.40978e-06
-3.51414e-06
4.12782e-07
1.37223e-09
1.35297e-07
4.15472e-06
9.1684e-07
-2.09936e-09
-8.89659e-06
1.21982e-07
9.32975e-07
-8.5187e-06
1.01244e-06
-2.63391e-10
3.92295e-07
2.76237e-06
-1.84918e-06
-5.20604e-07
-3.92587e-07
-1.63445e-06
-9.33433e-07
8.34589e-09
6.17963e-06
4.64501e-06
2.69119e-06
-1.21753e-07
-7.0289e-06
1.19021e-06
-1.19037e-06
-3.91905e-08
7.00247e-06
3.2013e-07
5.21892e-07
-2.69162e-06
1.85055e-06
-4.64485e-06
-2.76272e-06
7.00346e-06
1.37594e-06
2.5243e-07
-6.18363e-06
-7.0289e-06
3.87565e-06
-4.12889e-07
-3.00121e-06
-5.2416e-08
-4.10899e-06
6.81478e-10
8.77032e-06
3.69064e-06
3.9091e-06
-8.51821e-06
9.31804e-07
3.51081e-06
-3.71344e-07
-4.50396e-10
1.01524e-06
8.40764e-06
1.36718e-09
8.56679e-07
-6.01302e-07
-8.46994e-09
2.77568e-06
-2.52372e-07
-2.51585e-06
1.04984e-06
1.04804e-06
3.9756e-06
1.07861e-06
-3.56692e-06
-3.58518e-06
-1.92576e-06
1.06646e-06
1.4378e-06
-1.92572e-06
1.0654e-06
1.43864e-06
5.80393e-07
-1.4563e-06
5.80306e-07
-1.45797e-06
3.58551e-06
3.60059e-06
-3.57022e-06
2.47594e-06
-5.21107e-06
-3.58828e-06
-8.79532e-07
1.07732e-05
2.0866e-06
3.38381e-06
5.58749e-07
-1.01984e-05
-1.54138e-06
-5.43047e-06
3.72888e-06
1.45689e-06
1.1575e-06
6.14094e-06
-1.11522e-06
-1.34694e-06
-2.7781e-06
4.03163e-06
3.56485e-06
8.81743e-07
-1.13607e-05
-5.5563e-07
1.0501e-05
2.05527e-06
-1.43698e-06
-1.16043e-06
-3.56986e-06
2.4805e-06
-5.21259e-06
-3.60341e-06
-8.79595e-07
1.0785e-05
2.09438e-06
3.38052e-06
5.58747e-07
-1.01943e-05
-1.54573e-06
-5.43156e-06
3.72835e-06
1.45852e-06
1.15745e-06
6.13727e-06
-1.11364e-06
-1.34634e-06
-2.77558e-06
4.0299e-06
3.58312e-06
8.81869e-07
-1.1372e-05
-5.55822e-07
1.04974e-05
2.05676e-06
-1.43798e-06
-1.1599e-06
-3.9748e-06
-1.0698e-06
-1.06847e-06
-1.04772e-06
1.92638e-06
5.78233e-07
-1.04598e-06
1.92615e-06
5.78363e-07
1.0795e-06
-2.08847e-06
5.43188e-06
3.57246e-06
-1.13623e-05
-3.72823e-06
5.2086e-06
-5.71138e-06
9.13046e-07
2.51597e-06
-3.99728e-06
-3.38598e-06
-2.47514e-06
1.05033e-05
2.05536e-06
-1.01985e-05
-1.54289e-06
1.07723e-05
-2.0959e-06
5.43296e-06
3.57192e-06
-1.13738e-05
-3.72797e-06
5.21031e-06
-5.70724e-06
9.12851e-07
2.5142e-06
-3.99827e-06
-3.38236e-06
-2.47973e-06
1.04994e-05
2.05685e-06
-1.01944e-05
-1.54686e-06
1.07841e-05
-6.01676e-07
-9.62803e-09
-2.49321e-07
-6.01406e-07
-6.99929e-09
-2.51159e-07
-3.97319e-06
-1.07163e-06
-1.06994e-06
-1.08012e-06
3.58991e-06
3.60496e-06
-1.05102e-06
1.93225e-06
-1.45685e-06
-1.04963e-06
1.93201e-06
-1.45798e-06
-3.56781e-06
-3.58627e-06
-5.76179e-07
1.4368e-06
-5.76258e-07
1.43833e-06
3.56722e-06
5.43208e-06
-2.08698e-06
3.56572e-06
8.83968e-07
-1.1362e-05
-2.47705e-06
-3.38013e-06
1.05019e-05
2.05594e-06
5.21262e-06
-3.73432e-06
-1.43649e-06
9.13607e-07
-5.71171e-06
1.34731e-06
2.51561e-06
-3.99667e-06
-3.59008e-06
1.07746e-05
1.45721e-06
1.15416e-06
5.60711e-07
-1.01985e-05
-1.54106e-06
3.56678e-06
5.43287e-06
-2.09497e-06
3.58425e-06
8.84086e-07
-1.1373e-05
-2.48134e-06
-3.37703e-06
1.04985e-05
2.05713e-06
5.21414e-06
-3.73344e-06
-1.43763e-06
9.13185e-07
-5.70721e-06
1.34685e-06
2.51363e-06
-3.9977e-06
-3.60509e-06
1.07866e-05
1.45858e-06
1.15404e-06
5.60708e-07
-1.01944e-05
-1.5455e-06
3.97345e-06
1.04904e-06
1.04736e-06
1.07181e-06
-1.93007e-06
1.07041e-06
-1.92968e-06
-3.56562e-06
-5.21249e-06
2.47718e-06
1.07748e-05
-5.43386e-06
3.73772e-06
2.08816e-06
3.37905e-06
-1.01993e-05
-1.54173e-06
-1.11617e-06
6.14186e-06
-2.77863e-06
4.03244e-06
-1.13632e-05
1.05027e-05
2.05613e-06
-3.56506e-06
-5.21408e-06
2.48131e-06
1.07869e-05
-5.43472e-06
3.73703e-06
2.09617e-06
3.37571e-06
-1.01952e-05
-1.54623e-06
-1.11531e-06
6.13872e-06
-2.776e-06
4.03093e-06
-1.13742e-05
1.04994e-05
2.05701e-06
6.0184e-07
-2.50567e-07
-1.11856e-08
6.02336e-07
-2.52291e-07
-8.25901e-09
-6.014e-07
2.7789e-06
-2.51775e-06
-6.00808e-07
2.77607e-06
-2.51633e-06
1.05082e-06
1.05035e-06
3.9719e-06
-3.56771e-06
-3.58657e-06
1.08122e-06
-1.93158e-06
1.07105e-06
1.43705e-06
-1.93185e-06
1.06842e-06
1.43942e-06
-1.45688e-06
5.7612e-07
-1.4574e-06
5.7589e-07
3.58872e-06
3.60365e-06
-5.21202e-06
2.47671e-06
-3.56418e-06
-8.84983e-07
-3.58885e-06
1.07733e-05
3.37606e-06
2.08799e-06
-1.01983e-05
-1.54155e-06
5.62543e-07
-1.11591e-06
6.14172e-06
-1.34766e-06
4.03214e-06
3.73689e-06
-5.43388e-06
1.45692e-06
1.15448e-06
-1.15407e-06
-1.43699e-06
-5.63016e-07
1.05013e-05
2.05616e-06
3.56786e-06
-1.13627e-05
8.84763e-07
-5.21363e-06
2.48025e-06
-3.56273e-06
-8.85683e-07
-3.60386e-06
1.07857e-05
3.37325e-06
2.09647e-06
-1.0194e-05
-1.54674e-06
5.62632e-07
-1.11556e-06
6.13921e-06
-1.3481e-06
4.03068e-06
3.73664e-06
-5.43449e-06
1.45762e-06
1.15385e-06
-1.15356e-06
-1.439e-06
-5.62683e-07
1.04991e-05
2.05632e-06
3.58671e-06
-1.1373e-05
8.85543e-07
5.43372e-06
3.56484e-06
-2.0879e-06
-1.13633e-05
-3.73689e-06
5.212e-06
9.14105e-07
-5.71343e-06
-3.99763e-06
-2.47725e-06
-3.37586e-06
1.05019e-05
2.05644e-06
1.07733e-05
-1.01987e-05
-1.54147e-06
5.43437e-06
3.56383e-06
-2.09685e-06
-1.13736e-05
-3.7369e-06
5.21358e-06
9.13487e-07
-5.70803e-06
-3.99968e-06
-2.48011e-06
-3.37385e-06
1.05001e-05
2.0555e-06
1.07862e-05
-1.0194e-05
-1.54737e-06
-1.07075e-06
-1.06864e-06
-3.97208e-06
1.93163e-06
-1.05115e-06
5.76427e-07
1.93175e-06
-1.05028e-06
5.76142e-07
1.08107e-06
3.72265e-07
-3.9081e-06
3.00101e-06
-3.21052e-07
8.5587e-07
-3.51062e-06
4.12571e-07
-3.6915e-06
-3.87568e-06
3.98136e-08
8.40806e-06
4.15385e-06
1.3486e-07
9.14913e-07
-8.89567e-06
1.01453e-06
1.21196e-07
9.31261e-07
-8.5172e-06
3.92202e-07
2.76198e-06
-1.84769e-06
-5.2142e-07
-3.92867e-07
-1.63437e-06
-9.34954e-07
6.17908e-06
4.64494e-06
2.69106e-06
-1.20921e-07
-7.02873e-06
1.18975e-06
-1.18976e-06
-3.97507e-08
7.00204e-06
3.20819e-07
5.22558e-07
-2.69122e-06
1.84874e-06
-4.64552e-06
-2.7617e-06
7.00291e-06
1.37654e-06
-6.18241e-06
-7.02878e-06
-4.13062e-07
3.87473e-06
-2.99866e-06
-4.10747e-06
-5.18039e-08
8.76905e-06
3.50722e-06
-3.72165e-07
1.01694e-06
3.69204e-06
3.90777e-06
-8.517e-06
9.30754e-07
8.40648e-06
8.57757e-07
1.04943e-06
1.05186e-06
3.97323e-06
-3.58602e-06
-3.56869e-06
1.0802e-06
-1.93052e-06
1.06728e-06
1.43911e-06
-1.93045e-06
1.06886e-06
1.43757e-06
-1.45823e-06
5.77112e-07
-1.45605e-06
5.77449e-07
3.60251e-06
3.58713e-06
-5.21276e-06
2.47985e-06
-3.56526e-06
-8.83704e-07
-3.60332e-06
1.07852e-05
3.37546e-06
2.09372e-06
-1.01911e-05
-1.54534e-06
5.60516e-07
-1.11536e-06
6.13692e-06
-1.34661e-06
4.0311e-06
3.73399e-06
-5.43385e-06
1.4582e-06
1.15509e-06
-1.15516e-06
-1.43897e-06
-5.60134e-07
1.04957e-05
2.05669e-06
3.58476e-06
-1.13741e-05
8.83919e-07
2.47536e-06
-5.21163e-06
-3.56542e-06
-8.83779e-07
-3.58735e-06
1.07728e-05
3.38022e-06
2.09019e-06
-1.02002e-05
-1.5441e-06
5.60653e-07
6.14355e-06
-1.11577e-06
-1.34642e-06
-2.7771e-06
4.02981e-06
3.73403e-06
-5.43209e-06
1.45568e-06
1.15563e-06
-5.59787e-07
1.05057e-05
2.05326e-06
-1.15576e-06
-1.43761e-06
3.56808e-06
-1.13596e-05
8.84178e-07
5.43431e-06
-2.09473e-06
3.56582e-06
-1.13751e-05
-3.7347e-06
5.21227e-06
9.13782e-07
-5.70685e-06
-4.00008e-06
-3.37554e-06
-2.47943e-06
2.05638e-06
1.04972e-05
-1.54615e-06
-1.01911e-05
1.07857e-05
-2.09042e-06
5.43299e-06
3.56624e-06
-1.13613e-05
-3.73484e-06
5.21115e-06
-5.71362e-06
9.13652e-07
2.51828e-06
-3.99856e-06
-3.3809e-06
-2.47592e-06
2.05495e-06
1.05062e-05
-1.54409e-06
-1.02006e-05
1.07727e-05
-1.06812e-06
-1.06963e-06
-3.97272e-06
1.92998e-06
-1.04863e-06
5.76848e-07
1.92978e-06
-1.05119e-06
5.77088e-07
1.0803e-06
-6.02956e-07
-1.034e-08
-2.4962e-07
3.72035e-07
-3.90708e-06
3.00194e-06
-3.20743e-07
8.53847e-07
-3.51308e-06
4.1506e-07
-3.68901e-06
-3.87649e-06
3.92972e-08
8.40724e-06
4.15353e-06
1.32013e-07
9.16469e-07
-8.89533e-06
1.01221e-06
1.19588e-07
9.3196e-07
-8.51564e-06
3.93863e-07
2.7623e-06
-1.84768e-06
-5.20448e-07
-3.94176e-07
-1.63447e-06
-9.33607e-07
6.17803e-06
4.64319e-06
2.69034e-06
-1.19234e-07
-7.02761e-06
1.1895e-06
-1.18974e-06
-3.98686e-08
7.00061e-06
3.20702e-07
5.21962e-07
-2.6899e-06
1.8487e-06
-4.64356e-06
-2.76282e-06
7.00131e-06
1.37616e-06
-6.18265e-06
-7.02745e-06
-4.15314e-07
3.87474e-06
-2.99976e-06
-4.10845e-06
-5.14233e-08
8.76933e-06
3.51018e-06
-3.72142e-07
1.01507e-06
3.68964e-06
3.90751e-06
-8.5159e-06
9.31187e-07
8.40503e-06
8.56318e-07
-3.90709e-06
3.70981e-07
2.9974e-06
-3.19877e-07
8.58591e-07
-3.69356e-06
-3.87345e-06
3.96202e-08
8.40579e-06
-3.50528e-06
4.12324e-07
1.7921e-09
1.35217e-07
4.15266e-06
9.12678e-07
-2.21745e-09
-8.89513e-06
1.21201e-07
9.29514e-07
-8.51618e-06
1.01825e-06
8.58402e-11
3.92203e-07
2.76038e-06
-1.84612e-06
-5.22666e-07
-3.9159e-07
-1.6355e-06
-9.36226e-07
6.17718e-06
4.64625e-06
2.68991e-06
-1.21003e-07
-7.02651e-06
1.18907e-06
-1.18913e-06
-4.00955e-08
7.00035e-06
3.20641e-07
5.23167e-07
-2.68961e-06
1.84706e-06
-4.64654e-06
-2.7608e-06
7.00052e-06
1.37709e-06
-6.18035e-06
-7.02704e-06
3.87356e-06
-4.11684e-07
-2.99487e-06
-5.18539e-08
-4.10649e-06
2.58915e-10
8.76822e-06
3.69429e-06
3.90547e-06
-8.5149e-06
9.29473e-07
3.50228e-06
-3.71931e-07
8.78168e-10
1.01883e-06
8.40544e-06
2.3674e-09
8.59315e-07
3.70696e-07
-3.90407e-06
2.99442e-06
-3.1985e-07
8.58802e-07
-3.50365e-06
4.15152e-07
-3.69397e-06
-3.87269e-06
4.1547e-08
8.40351e-06
4.15132e-06
1.31518e-07
9.12167e-07
-8.89384e-06
1.01845e-06
1.18005e-07
9.28115e-07
-8.51267e-06
3.9368e-07
2.76222e-06
-1.84426e-06
-5.23014e-07
-3.9495e-07
-1.63676e-06
-9.38851e-07
1.17515e-08
6.17578e-06
4.64418e-06
2.68602e-06
-1.17047e-07
-7.02392e-06
1.18857e-06
-1.18842e-06
-4.02366e-08
6.99829e-06
3.18906e-07
5.22873e-07
-2.68756e-06
1.8447e-06
-4.64477e-06
-2.76057e-06
6.99883e-06
1.37792e-06
2.49979e-07
-6.17852e-06
-7.02482e-06
-4.16105e-07
3.8727e-06
-2.99273e-06
-4.10589e-06
-5.1671e-08
8.76705e-06
3.50118e-06
-3.69969e-07
1.01866e-06
3.69371e-06
3.90266e-06
-8.51142e-06
9.28646e-07
8.40263e-06
8.58862e-07
1.05051e-06
1.0517e-06
3.97235e-06
-3.58635e-06
-3.56896e-06
1.08075e-06
-1.93165e-06
1.06723e-06
1.44012e-06
-1.93146e-06
1.06994e-06
1.43738e-06
-1.45728e-06
5.76125e-07
-1.45653e-06
5.76754e-07
3.60288e-06
3.58769e-06
-5.213e-06
2.48024e-06
-3.56392e-06
-8.8457e-07
-3.60415e-06
1.07854e-05
3.37347e-06
2.09396e-06
-1.01907e-05
-1.54515e-06
5.61679e-07
-1.11602e-06
6.13662e-06
-1.34793e-06
4.03211e-06
3.73563e-06
-5.43479e-06
1.45842e-06
1.15456e-06
-1.15399e-06
-1.4394e-06
-5.61684e-07
1.0495e-05
2.05703e-06
3.58504e-06
-1.13746e-05
8.84833e-07
2.47609e-06
-5.21211e-06
-3.56607e-06
-8.83477e-07
-3.58778e-06
1.07733e-05
3.37876e-06
2.08999e-06
-1.02006e-05
-1.54296e-06
5.61102e-07
6.14275e-06
-1.11532e-06
-1.34787e-06
-2.77837e-06
4.03052e-06
3.73552e-06
-5.43331e-06
1.45669e-06
1.15522e-06
-5.61122e-07
1.05042e-05
2.05454e-06
-1.1552e-06
-1.43671e-06
3.56845e-06
-1.13612e-05
8.83364e-07
5.43474e-06
-2.09483e-06
3.56415e-06
-1.1375e-05
-3.73653e-06
5.21317e-06
9.1305e-07
-5.70659e-06
-3.99946e-06
-3.37318e-06
-2.47971e-06
2.05625e-06
1.04965e-05
-1.54578e-06
-1.01905e-05
1.07865e-05
-2.08975e-06
5.43414e-06
3.56603e-06
-1.13629e-05
-3.73673e-06
5.21153e-06
-5.71409e-06
9.14323e-07
2.51776e-06
-3.99764e-06
-3.3781e-06
-2.47737e-06
2.05652e-06
1.05044e-05
-1.54207e-06
-1.0201e-05
1.07725e-05
-1.06789e-06
-1.07089e-06
-3.97242e-06
1.93115e-06
-1.04928e-06
5.76536e-07
1.93083e-06
-1.05103e-06
5.76874e-07
1.08074e-06
-6.02073e-07
-1.15533e-08
-2.50434e-07
-3.90585e-06
3.7059e-07
2.99641e-06
-3.1946e-07
8.58307e-07
-3.69159e-06
-3.87301e-06
3.98359e-08
8.40377e-06
-3.50523e-06
4.15318e-07
-2.03986e-09
1.32189e-07
4.152e-06
9.13073e-07
1.68739e-09
-8.89394e-06
1.19636e-07
9.29421e-07
-8.51433e-06
1.01827e-06
-9.32729e-10
3.93872e-07
2.76043e-06
-1.84512e-06
-5.22244e-07
-3.93069e-07
-1.63639e-06
-9.35167e-07
6.17615e-06
4.64477e-06
2.68817e-06
-1.19331e-07
-7.02494e-06
1.18856e-06
-1.18841e-06
-4.04919e-08
6.99772e-06
3.20048e-07
5.23002e-07
-2.68869e-06
1.84698e-06
-4.64446e-06
-2.76142e-06
6.99862e-06
1.37609e-06
-6.18021e-06
-7.02587e-06
3.8719e-06
-4.13855e-07
-2.99281e-06
-5.12758e-08
-4.1058e-06
-5.87528e-10
8.76713e-06
3.69293e-06
3.9041e-06
-8.51294e-06
9.29043e-07
3.50111e-06
-3.7152e-07
4.535e-10
1.01966e-06
8.40249e-06
-2.60416e-10
8.59821e-07
-3.90774e-06
3.72102e-07
2.99612e-06
-3.20682e-07
8.60202e-07
-3.69498e-06
-3.87213e-06
4.16575e-08
8.40534e-06
-3.50554e-06
4.1175e-07
1.34823e-07
4.15331e-06
9.1271e-07
-8.89504e-06
1.20732e-07
9.28283e-07
-8.51693e-06
1.01893e-06
3.91488e-07
2.76117e-06
-1.8442e-06
-5.24048e-07
-3.92924e-07
-1.63599e-06
-9.39518e-07
9.39616e-09
6.17779e-06
4.64679e-06
2.6878e-06
-1.19261e-07
-7.02669e-06
1.18898e-06
-1.18875e-06
-3.99646e-08
7.00068e-06
3.1957e-07
5.24053e-07
-2.69057e-06
1.84584e-06
-4.6465e-06
-2.75912e-06
7.0007e-06
1.37686e-06
2.52297e-07
-6.18162e-06
-7.02823e-06
3.87367e-06
-4.13517e-07
-2.99287e-06
-5.21398e-08
-4.10652e-06
8.7684e-06
3.69596e-06
3.90468e-06
-8.51488e-06
9.28619e-07
3.50136e-06
-3.70732e-07
1.01986e-06
8.40582e-06
8.60647e-07
-6.05063e-07
-6.05361e-07
-3.61808e-06
1.30418e-05
1.30527e-05
-9.17206e-07
1.36311e-05
2.86715e-06
-1.32342e-05
2.86552e-07
1.36438e-05
2.8726e-06
-1.32234e-05
2.87252e-07
-1.41518e-05
-1.41784e-05
-1.23151e-07
1.50232e-05
1.50338e-05
9.19193e-07
-2.8526e-07
1.25441e-05
-2.85809e-07
1.2531e-05
4.36607e-06
1.81844e-09
-2.66647e-09
-4.36352e-06
4.36425e-06
-5.39629e-10
1.85056e-09
-4.36395e-06
-4.15769e-07
-4.13674e-07
1.06022e-09
-4.1761e-09
-1.84645e-09
7.51466e-10
-4.37844e-06
-2.82564e-09
9.68154e-10
-1.28917e-09
2.38588e-09
-4.37824e-06
-3.6288e-06
1.30423e-05
1.30538e-05
-9.09156e-07
1.36311e-05
2.87466e-06
2.82911e-07
1.36438e-05
2.88031e-06
2.83298e-07
-1.41522e-05
-1.41784e-05
-1.1977e-07
9.13354e-07
-2.79791e-07
-2.80361e-07
3.62364e-06
-1.36306e-05
-1.36439e-05
9.15859e-07
1.37502e-05
1.37756e-05
1.21571e-07
-1.46207e-05
-1.46345e-05
-1.30434e-05
-2.87184e-06
1.25466e-05
-1.30548e-05
-2.87745e-06
1.25342e-05
2.83871e-07
-1.32347e-05
2.84166e-07
-1.32244e-05
1.30427e-05
1.30531e-05
-3.62001e-06
-9.1678e-07
2.86686e-06
1.36293e-05
2.85311e-07
2.87125e-06
1.36431e-05
2.86672e-07
-1.4151e-05
-1.41786e-05
-1.2785e-07
-2.86264e-07
-2.8746e-07
9.16676e-07
1.3042e-05
1.30532e-05
-3.62369e-06
-9.13524e-07
2.87347e-06
1.36408e-05
2.85168e-07
2.87212e-06
1.36316e-05
2.8344e-07
-1.41556e-05
-1.41739e-05
-1.26896e-07
-2.82509e-07
-2.84932e-07
9.15064e-07
1.30428e-05
1.30527e-05
-3.62172e-06
-9.15056e-07
2.87197e-06
1.36413e-05
2.85299e-07
2.86781e-06
1.3632e-05
2.85089e-07
-1.41557e-05
-1.41745e-05
-1.25744e-07
-2.85961e-07
-2.8591e-07
9.15812e-07
3.61994e-06
-1.36312e-05
-1.36441e-05
1.37497e-05
1.37753e-05
-1.46198e-05
-1.46334e-05
-1.30424e-05
-2.86858e-06
-2.83803e-07
1.25447e-05
-1.30532e-05
-2.87419e-06
-2.84162e-07
1.25315e-05
-9.1631e-07
-1.32344e-05
-1.32237e-05
4.3637e-06
1.99125e-09
-4.36234e-06
4.3609e-06
2.3246e-09
3.03624e-09
-4.36183e-06
-4.10198e-07
-4.12949e-07
6.97836e-10
3.59463e-09
5.70584e-10
-4.37831e-06
7.15886e-10
2.54488e-09
-4.37782e-06
4.36466e-06
-1.71488e-09
-4.36205e-06
4.36041e-06
-5.65844e-10
-3.03584e-10
-4.3601e-06
-4.13703e-07
-4.17866e-07
-4.37074e-09
6.36015e-10
-3.32056e-09
-4.37768e-06
-3.0677e-09
-1.85057e-09
-4.37573e-06
4.35814e-06
1.40168e-09
-4.35885e-06
4.36072e-06
-5.88048e-10
-4.36018e-06
-4.12302e-07
-4.11855e-07
2.29462e-09
7.6792e-10
-4.37633e-06
-4.37482e-06
1.39533e-05
-5.42028e-07
2.54381e-06
1.11067e-06
2.20525e-07
-3.79439e-06
1.37427e-05
-8.82341e-07
-2.54533e-06
-4.63815e-07
-2.01869e-10
4.68469e-07
-1.41047e-05
9.931e-07
-2.128e-09
1.08934e-06
1.02183e-06
1.5733e-07
-1.09944e-09
-9.85118e-07
-1.83426e-06
-1.35371e-05
-2.65088e-06
-2.51719e-07
9.84012e-07
2.96069e-06
-1.56109e-06
2.15548e-07
1.28672e-05
2.43807e-06
-1.08134e-06
3.92038e-06
-1.34478e-05
-1.08972e-06
1.0608e-06
-2.15928e-07
-1.0604e-06
8.82135e-07
-1.11006e-06
2.51472e-07
1.56158e-06
1.34479e-05
2.64954e-06
-3.92027e-06
1.35385e-05
-1.27472e-05
-2.52949e-06
-2.95973e-06
1.8358e-06
-1.37408e-05
4.62787e-07
-2.54539e-06
-3.63348e-07
1.38769e-05
-7.41301e-10
3.79477e-06
-1.39529e-05
1.02212e-06
2.54648e-06
5.41652e-07
-9.33527e-10
1.58244e-07
-1.72031e-09
2.20493e-07
-5.39343e-07
1.39504e-05
2.54306e-06
1.10854e-06
2.21045e-07
-2.54605e-06
-4.65321e-07
2.10308e-09
-3.79136e-06
1.37396e-05
-8.84516e-07
-1.4103e-05
4.64682e-07
9.92936e-07
2.02553e-09
1.56698e-07
8.17465e-10
1.08707e-06
1.02235e-06
-9.87211e-07
-1.8362e-06
-1.35331e-05
-2.64891e-06
-2.52738e-07
9.85612e-07
2.95819e-06
-1.56013e-06
2.16231e-07
1.28643e-05
2.43963e-06
-1.08215e-06
3.9185e-06
-1.34453e-05
-1.08797e-06
1.06069e-06
-2.17507e-07
-1.06085e-06
8.83578e-07
-1.10834e-06
2.51941e-07
1.55943e-06
1.34454e-05
2.64731e-06
-3.9175e-06
1.35349e-05
-1.27461e-05
-2.52822e-06
-2.95703e-06
1.83861e-06
4.64126e-07
-1.37372e-05
-2.545e-06
1.38755e-05
-3.64184e-07
3.52528e-11
2.54787e-06
5.38827e-07
1.13446e-09