/*--------------------------------*- C++ -*----------------------------------*\
| =========                 |                                                 |
| \\      /  F ield         | OpenFOAM: The Open Source CFD Toolbox           |
|  \\    /   O peration     | Version:  2206                                  |
|   \\  /    A nd           | Website:  www.openfoam.com                      |
|    \\/     M anipulation  |                                                 |
\*---------------------------------------------------------------------------*/
FoamFile
{
    version     2.0;
    format      ascii;
    arch        "LSB;label=32;scalar=64";
    class       volScalarField;
    location    "39.5";
    object      p;
}
// * * * * * * * * * * * * * * * * * * * * * * * * * * * * * * * * * * * * * //

dimensions      [0 2 -2 0 0 0 0];

internalField   nonuniform List<scalar> 
28673
(
0.000478256
0.000480624
0.00043842
0.000438378
0.000438378
0.000440745
0.000398543
0.000398502
0.000398501
0.000400868
0.000358667
0.000358627
0.000358626
0.000360993
0.000318789
0.000318746
0.000318745
0.000321111
0.000278916
0.000278878
0.000278877
0.000281243
0.000239035
0.000238991
0.00023899
0.000241354
0.000199153
0.000199116
0.000199116
0.000201475
0.000159257
0.000159218
0.000159219
0.00016157
0.000119349
0.000119314
0.000119314
0.000121652
7.94443e-05
7.93984e-05
7.93966e-05
8.17089e-05
4.02358e-05
3.9685e-05
3.96819e-05
4.18579e-05
8.12338e-06
8.22494e-06
8.22248e-06
7.76806e-06
0.000488226
0.000485868
0.000488226
0.000445989
0.000478257
0.000478256
0.000448347
0.000448347
0.000480623
0.000445989
0.000448347
0.000448347
0.000478257
0.000448347
0.000448347
0.000445989
0.000478257
0.000448347
0.000448347
0.000445989
0.000440745
0.000406112
0.000438378
0.000438378
0.00040847
0.00040847
0.000440744
0.000406112
0.000438378
0.000438378
0.00040847
0.00040847
0.000438378
0.00040847
0.000408471
0.000440745
0.000406112
0.000438378
0.00040847
0.00040847
0.000406112
0.000400868
0.000366236
0.000398502
0.000398502
0.000368595
0.000368595
0.000400868
0.000366237
0.000398501
0.000398502
0.000368595
0.000368595
0.000398502
0.000368595
0.000368595
0.000400868
0.000366236
0.000398502
0.000368595
0.000368595
0.000366237
0.000360993
0.000326359
0.000358626
0.000358626
0.000328716
0.000328716
0.000360993
0.000326359
0.000358626
0.000358626
0.000328716
0.000328716
0.000358627
0.000328716
0.000328716
0.000360992
0.000326358
0.000358627
0.000328716
0.000328716
0.000326359
0.000321111
0.000286484
0.000318745
0.000318745
0.000288843
0.000288843
0.000321111
0.000286485
0.000318745
0.000318745
0.000288842
0.000288843
0.000318746
0.000288843
0.000288843
0.000321111
0.000286484
0.000318745
0.000288843
0.000288843
0.000286484
0.000281243
0.000246609
0.000278878
0.000278878
0.000248965
0.000248965
0.000281243
0.00024661
0.000278877
0.000278877
0.000248964
0.000248964
0.000278878
0.000248965
0.000248965
0.000281243
0.000246609
0.000278878
0.000248965
0.000248965
0.000246609
0.000241353
0.000206731
0.000238991
0.000238991
0.000209086
0.000209086
0.000241354
0.00020673
0.00023899
0.00023899
0.000209085
0.000209085
0.000238991
0.000209086
0.000209086
0.000241353
0.00020673
0.000238991
0.000209085
0.000209086
0.00020673
0.000201475
0.000166843
0.000199116
0.000199116
0.000169194
0.000169193
0.000201474
0.000166842
0.000199116
0.000199117
0.000169194
0.000169194
0.000199116
0.000169193
0.000169194
0.000201475
0.000166843
0.000199116
0.000169194
0.000169194
0.000166843
0.000161571
0.000126945
0.000159219
0.000159218
0.000129295
0.000129294
0.00016157
0.000126945
0.000159219
0.000159219
0.000129295
0.000129295
0.000159218
0.000129294
0.000129294
0.000161571
0.000126945
0.000159219
0.000129295
0.000129294
0.000126945
0.000121653
8.70383e-05
0.000119314
0.000119314
8.93865e-05
8.93872e-05
0.000121652
8.70395e-05
0.000119314
0.000119314
8.9386e-05
8.93855e-05
0.000119314
8.93869e-05
8.93863e-05
0.000121652
8.70375e-05
0.000119314
8.93856e-05
8.93858e-05
8.70381e-05
8.17095e-05
4.71679e-05
7.93979e-05
7.93985e-05
4.95227e-05
4.95233e-05
8.171e-05
4.71693e-05
7.9397e-05
7.93965e-05
4.95205e-05
4.95201e-05
7.93975e-05
4.95219e-05
4.95198e-05
8.17089e-05
4.71653e-05
7.93969e-05
4.95193e-05
4.95185e-05
4.71649e-05
4.18616e-05
1.11851e-05
3.96868e-05
3.9687e-05
1.33232e-05
1.33228e-05
4.18623e-05
1.11851e-05
3.96845e-05
3.96832e-05
1.33213e-05
1.33176e-05
3.96825e-05
1.33202e-05
1.33167e-05
4.18583e-05
1.11803e-05
3.96813e-05
1.33175e-05
1.33181e-05
1.11806e-05
7.77089e-06
8.2265e-06
8.22665e-06
7.77163e-06
8.22473e-06
8.22208e-06
8.12324e-06
8.12087e-06
8.12111e-06
8.22214e-06
7.7676e-06
8.22281e-06
0.000465827
0.000480752
0.000480756
0.000465829
0.000480753
0.000465827
0.000465828
0.000465829
0.000478298
0.000478298
0.00044839
0.000448389
0.00044839
0.000448389
0.000465875
0.000480718
0.000478266
0.000468287
0.000480712
0.00046586
0.000468297
0.000465827
0.000465875
0.000478266
0.000468287
0.000480712
0.000468297
0.00046586
0.000480757
0.000480757
0.000465928
0.000465824
0.000465824
0.000425949
0.000440872
0.000440876
0.00042595
0.000440874
0.000425949
0.000425949
0.000440872
0.000440876
0.00042595
0.00043842
0.00043842
0.00043842
0.000408512
0.000408512
0.000408512
0.000408512
0.000425997
0.000440839
0.000438388
0.000428408
0.000440833
0.000425982
0.000428418
0.000440874
0.000425949
0.000425997
0.000438388
0.000440839
0.000428408
0.000440833
0.000428418
0.000425982
0.000440878
0.000440878
0.00042605
0.000425946
0.000425946
0.000386073
0.000400996
0.000400999
0.000386074
0.000400997
0.000386073
0.000386073
0.000400996
0.000400999
0.000386074
0.000398543
0.000398543
0.000398543
0.000368636
0.000368636
0.000368636
0.000368636
0.000386122
0.000400963
0.000398512
0.000388533
0.000400957
0.000386106
0.000388543
0.000400997
0.000386073
0.000386121
0.000398511
0.000400963
0.000388532
0.000400956
0.000388542
0.000386106
0.000401001
0.000401001
0.000386174
0.00038607
0.00038607
0.000346197
0.000361121
0.000361123
0.000346196
0.000361123
0.000346195
0.000346197
0.000361121
0.000361123
0.000346196
0.000358667
0.000358667
0.000358667
0.000328758
0.000328758
0.000328758
0.000328758
0.000346246
0.000361087
0.000358636
0.000348657
0.000361081
0.00034623
0.000348666
0.000361122
0.000346194
0.000346246
0.000358636
0.000361087
0.000348657
0.00036108
0.000348666
0.00034623
0.000361126
0.000361126
0.000346298
0.000346193
0.000346193
0.000306328
0.000321239
0.000321242
0.000306325
0.000321244
0.000306322
0.000306327
0.000321239
0.000321242
0.000306325
0.000318789
0.000318789
0.000318789
0.000288884
0.000288884
0.000288884
0.000288884
0.000306373
0.000321203
0.000318756
0.000308775
0.000321198
0.000306358
0.000308785
0.000321244
0.000306321
0.000306373
0.000318756
0.000321203
0.000308775
0.000321198
0.000308785
0.000306358
0.000321244
0.000321244
0.00030642
0.000306322
0.000306322
0.000266434
0.000281368
0.000281364
0.000266443
0.00028137
0.000266439
0.000266433
0.000281368
0.000281364
0.000266442
0.000278917
0.000278916
0.000278917
0.000249004
0.000249004
0.000249004
0.000249004
0.000266484
0.000281336
0.000278887
0.000268911
0.000281332
0.000266475
0.000268921
0.00028137
0.000266438
0.000266484
0.000278887
0.000281336
0.000268911
0.000281331
0.000268921
0.000266475
0.000281373
0.000281373
0.000266551
0.000266438
0.000266438
0.000226585
0.000241494
0.000241498
0.000226563
0.0002415
0.000226553
0.000226584
0.000241494
0.000241498
0.000226562
0.000239035
0.000239035
0.000239035
0.000209121
0.000209121
0.000209121
0.000209121
0.000226626
0.000241452
0.000238998
0.00022902
0.000241441
0.00022661
0.000229028
0.0002415
0.000226551
0.000226625
0.000238998
0.000241451
0.00022902
0.00024144
0.000229027
0.000226608
0.000241495
0.000241495
0.000226666
0.000226565
0.000226565
0.000186683
0.000201607
0.000201614
0.000186674
0.000201624
0.000186652
0.000186682
0.000201607
0.000201614
0.000186674
0.000199153
0.000199152
0.000199152
0.000169226
0.000169226
0.000169227
0.000169226
0.000186736
0.000201566
0.000199124
0.000189142
0.000201571
0.00018672
0.000189145
0.000201624
0.000186652
0.000186736
0.000199124
0.000201566
0.000189143
0.000201571
0.000189146
0.000186721
0.000201603
0.000201603
0.000186786
0.000186682
0.000186682
0.000146784
0.00016171
0.000161719
0.000146776
0.000161744
0.000146737
0.000146786
0.000161711
0.000161722
0.000146777
0.000159256
0.000159257
0.000159256
0.000129316
0.000129316
0.000129316
0.000129316
0.000146835
0.000161659
0.000159229
0.000149247
0.000161673
0.000146832
0.000149248
0.000161747
0.000146739
0.000146835
0.00015923
0.000161661
0.000149248
0.000161674
0.000149249
0.000146833
0.000161701
0.000161702
0.000146892
0.000146791
0.000146791
0.000106874
0.000121802
0.000121808
0.000106874
0.000121869
0.000106792
0.000106873
0.000121801
0.000121808
0.000106874
0.000119349
0.000119349
0.000119349
8.93929e-05
8.93928e-05
8.93921e-05
8.93925e-05
0.000106921
0.000121741
0.000119325
0.000109343
0.000121764
0.000106935
0.00010934
0.000121868
0.000106791
0.00010692
0.000119325
0.00012174
0.000109342
0.000121764
0.000109339
0.000106934
0.000121788
0.000121787
0.000106992
0.000106892
0.000106891
6.69029e-05
8.18594e-05
8.18754e-05
6.6914e-05
8.20153e-05
6.6703e-05
6.69009e-05
8.18586e-05
8.18738e-05
6.69122e-05
7.94438e-05
7.94433e-05
7.94434e-05
4.97653e-05
4.97663e-05
4.97633e-05
4.97634e-05
6.69578e-05
8.17958e-05
7.94191e-05
6.94287e-05
8.18402e-05
6.69865e-05
6.94406e-05
8.20099e-05
6.67053e-05
6.69565e-05
7.9418e-05
8.17944e-05
6.94267e-05
8.18393e-05
6.94393e-05
6.69838e-05
8.18329e-05
8.18332e-05
6.70744e-05
6.69483e-05
6.69482e-05
2.61692e-05
4.14665e-05
4.16061e-05
2.54908e-05
4.19025e-05
2.4849e-05
2.6156e-05
4.14583e-05
4.15995e-05
2.5483e-05
4.02364e-05
4.02329e-05
4.02329e-05
1.47105e-05
1.47099e-05
1.47067e-05
1.47071e-05
2.67763e-05
4.14741e-05
3.9943e-05
3.01622e-05
4.17573e-05
2.59952e-05
3.05514e-05
4.18866e-05
2.48552e-05
2.67758e-05
3.994e-05
4.14719e-05
3.01589e-05
4.17566e-05
3.05485e-05
2.59957e-05
4.13914e-05
4.13905e-05
2.77167e-05
2.57184e-05
2.57149e-05
4.48677e-06
4.83551e-06
5.31281e-06
-7.78744e-08
1.30507e-06
-4.22504e-06
4.50308e-06
4.8161e-06
5.29751e-06
-6.59413e-08
2.31507e-06
8.60703e-06
8.6053e-06
2.51751e-06
8.91949e-06
2.28333e-06
2.2826e-06
3.86104e-06
5.82695e-06
7.94732e-06
2.54588e-06
6.90738e-06
4.46125e-06
2.33689e-06
1.27303e-06
-4.22302e-06
3.86554e-06
7.94633e-06
5.82045e-06
2.54453e-06
6.9065e-06
2.3372e-06
4.46756e-06
1.49509e-06
1.49071e-06
2.32997e-06
2.4631e-06
2.47603e-06
0.000485768
0.000485799
0.000485767
0.000485764
0.000485764
0.000485767
0.000485799
0.000485768
0.000480753
0.000465827
0.000465828
0.000480757
0.000465928
0.000465824
0.000465825
0.000445888
0.000460813
0.000445888
0.000460813
0.000460684
0.000445884
0.000445885
0.000460817
0.000460818
0.000465827
0.000480751
0.000480756
0.000465828
0.000465875
0.000480718
0.000478266
0.000468287
0.000480712
0.00046586
0.000468297
0.000465875
0.000480718
0.000478267
0.000468287
0.000480712
0.00046586
0.000468297
0.000460816
0.000445889
0.000460812
0.000445888
0.000460815
0.000445889
0.000460811
0.000445888
0.000460772
0.000458317
0.00044592
0.000448357
0.000460779
0.000458327
0.000445936
0.000460772
0.000458317
0.00044592
0.000448357
0.000460779
0.000458327
0.000445936
0.000480757
0.000480757
0.000465928
0.000465824
0.000465824
0.000480753
0.000465827
0.000445888
0.000460813
0.000460683
0.000445884
0.000445885
0.000460817
0.000460817
0.000445887
0.000460813
0.000465876
0.000468287
0.00046586
0.000468297
0.000465828
0.000465829
0.000465876
0.000468287
0.000468297
0.00046586
0.000460816
0.000445889
0.000460812
0.000445888
0.000460773
0.000458317
0.000445921
0.000448357
0.000460779
0.000458327
0.000445936
0.000460816
0.000445889
0.000460812
0.000445888
0.000460773
0.000458317
0.000448357
0.000445921
0.000458327
0.000460779
0.000445936
0.000465827
0.000480751
0.000480755
0.000465828
0.000465875
0.000478267
0.000480718
0.000468287
0.000480712
0.000468297
0.00046586
0.000465827
0.000480752
0.000480755
0.000465829
0.000460772
0.000458317
0.00044592
0.000448357
0.000460778
0.000458327
0.000445936
0.000460815
0.000445889
0.000460811
0.000445888
0.000460772
0.000458317
0.000448357
0.00044592
0.000458327
0.000460779
0.000445936
0.000460815
0.000445889
0.000460812
0.000445888
0.000465928
0.000465825
0.000465825
0.000465828
0.000445888
0.000460814
0.000460684
0.000445885
0.000445884
0.000460818
0.000460818
0.000445888
0.000460813
0.000465875
0.000478266
0.000480718
0.000468287
0.000480712
0.000468297
0.00046586
0.000465828
0.000480756
0.000465829
0.000465828
0.000480752
0.000480755
0.000465829
0.000460772
0.000458317
0.000448357
0.00044592
0.000458327
0.000460779
0.000445936
0.000460772
0.000458317
0.000448357
0.00044592
0.000458327
0.000460779
0.000445936
0.000460815
0.000445889
0.000460812
0.000445888
0.000460815
0.000445889
0.000460812
0.000445888
0.000480753
0.000465827
0.000480753
0.000465827
0.000460684
0.000445884
0.000445884
0.000460817
0.000460817
0.000445888
0.000460813
0.000445888
0.000460813
0.000440874
0.000425949
0.000440874
0.000425949
0.000440878
0.000440878
0.00042605
0.000425946
0.000425946
0.000406011
0.000420935
0.000406011
0.000420935
0.000420806
0.000406008
0.000406008
0.000420939
0.000420939
0.000425949
0.000440872
0.000440876
0.00042595
0.000425997
0.000440839
0.000438388
0.000428408
0.000440833
0.000425982
0.000428418
0.000425997
0.000440839
0.000438388
0.000428408
0.000440833
0.000425982
0.000428418
0.000420937
0.000406012
0.000420934
0.000406011
0.000420938
0.000406012
0.000420934
0.000406011
0.000420894
0.000418439
0.000406043
0.00040848
0.000420901
0.000418449
0.000406059
0.000420894
0.000418439
0.000406044
0.00040848
0.000420901
0.000418449
0.000406059
0.000440878
0.000440877
0.00042605
0.000425946
0.000425946
0.000440874
0.000425949
0.000406011
0.000420935
0.000420806
0.000406008
0.000406008
0.000420939
0.000420939
0.000406011
0.000420936
0.000425997
0.000440839
0.000438388
0.000428408
0.000440833
0.000425982
0.000428418
0.000425949
0.000440872
0.000440876
0.00042595
0.000425997
0.000438388
0.000440839
0.000428408
0.000440833
0.000428418
0.000425982
0.000420938
0.000406012
0.000420934
0.000406011
0.000420894
0.000418439
0.000406043
0.00040848
0.000420901
0.000418449
0.000406059
0.000420938
0.000406012
0.000420933
0.000406011
0.000420894
0.000418439
0.00040848
0.000406044
0.000418449
0.000420901
0.000406059
0.000425949
0.000440872
0.000440876
0.00042595
0.000425997
0.000438388
0.000440839
0.000428409
0.000440833
0.000428419
0.000425982
0.000425949
0.000440872
0.000440876
0.00042595
0.000420895
0.00041844
0.000406044
0.00040848
0.000420901
0.000418449
0.000406059
0.000420938
0.000406012
0.000420934
0.000406011
0.000420894
0.00041844
0.00040848
0.000406044
0.00041845
0.000420901
0.000406059
0.000420938
0.000406012
0.000420934
0.000406011
0.000440877
0.000440878
0.00042605
0.000425946
0.000425946
0.000440874
0.000425949
0.000406011
0.000420935
0.000420806
0.000406008
0.000406008
0.000420939
0.000420939
0.000406011
0.000420935
0.000425997
0.000438388
0.000440839
0.000428408
0.000440833
0.000428418
0.000425982
0.000425949
0.000440872
0.000440876
0.00042595
0.000425949
0.000440872
0.000440876
0.00042595
0.000420894
0.000418439
0.00040848
0.000406043
0.000418449
0.000420901
0.000406059
0.000420894
0.000418439
0.00040848
0.000406044
0.000418449
0.000420901
0.000406059
0.000420937
0.000406012
0.000420934
0.000406011
0.000420937
0.000406012
0.000420934
0.000406011
0.000440874
0.000425949
0.000440874
0.000425949
0.000420806
0.000406008
0.000406008
0.000420939
0.000420939
0.000406011
0.000420935
0.000406011
0.000420935
0.000400997
0.000386073
0.000400997
0.000386073
0.000401001
0.000401001
0.000386174
0.00038607
0.00038607
0.000366134
0.00038106
0.000366134
0.00038106
0.00038093
0.000366132
0.000366132
0.000381064
0.000381064
0.000386073
0.000400996
0.000401
0.000386074
0.000386121
0.000400963
0.000398512
0.000388533
0.000400956
0.000386106
0.000388542
0.000386121
0.000400963
0.000398512
0.000388532
0.000400956
0.000386106
0.000388543
0.000381062
0.000366135
0.000381058
0.000366136
0.000381062
0.000366136
0.000381058
0.000366136
0.000381019
0.000378564
0.000366168
0.000368605
0.000381025
0.000378574
0.000366184
0.000381019
0.000378564
0.000366168
0.000368605
0.000381025
0.000378574
0.000366184
0.000401001
0.000401001
0.000386174
0.00038607
0.00038607
0.000400998
0.000386073
0.000366135
0.00038106
0.000380931
0.000366132
0.000366132
0.000381064
0.000381064
0.000366135
0.00038106
0.000386121
0.000400963
0.000398511
0.000388532
0.000400956
0.000386106
0.000388542
0.000386073
0.000400995
0.000400999
0.000386074
0.000386121
0.000398511
0.000400963
0.000388532
0.000400956
0.000388542
0.000386106
0.000381062
0.000366136
0.000381058
0.000366136
0.000381018
0.000378564
0.000366168
0.000368605
0.000381025
0.000378574
0.000366184
0.000381062
0.000366135
0.000381058
0.000366136
0.000381018
0.000378564
0.000368605
0.000366168
0.000378574
0.000381025
0.000366183
0.000386074
0.000400996
0.000401
0.000386074
0.000386122
0.000398512
0.000400963
0.000388533
0.000400956
0.000388543
0.000386106
0.000386074
0.000400996
0.000401
0.000386074
0.000381019
0.000378564
0.000366168
0.000368605
0.000381025
0.000378574
0.000366184
0.000381062
0.000366136
0.000381059
0.000366136
0.000381019
0.000378564
0.000368605
0.000366168
0.000378574
0.000381026
0.000366184
0.000381062
0.000366136
0.000381059
0.000366136
0.000401001
0.000401001
0.000386174
0.00038607
0.00038607
0.000400997
0.000386073
0.000366134
0.00038106
0.00038093
0.000366132
0.000366132
0.000381063
0.000381064
0.000366135
0.00038106
0.000386122
0.000398512
0.000400963
0.000388533
0.000400956
0.000388542
0.000386106
0.000386074
0.000400996
0.000400999
0.000386074
0.000386074
0.000400996
0.000400999
0.000386074
0.000381019
0.000378564
0.000368605
0.000366168
0.000378574
0.000381025
0.000366184
0.000381019
0.000378564
0.000368605
0.000366168
0.000378574
0.000381026
0.000366184
0.000381062
0.000366136
0.000381058
0.000366136
0.000381062
0.000366136
0.000381059
0.000366136
0.000400997
0.000386073
0.000400997
0.000386073
0.000380931
0.000366132
0.000366132
0.000381064
0.000381064
0.000366135
0.00038106
0.000366135
0.00038106
0.000361122
0.000346195
0.000361122
0.000346195
0.000361126
0.000361126
0.000346298
0.000346193
0.000346193
0.000326256
0.000341185
0.000326256
0.000341185
0.000341053
0.000326255
0.000326255
0.000341187
0.000341187
0.000346197
0.000361121
0.000361123
0.000346197
0.000346245
0.000361087
0.000358636
0.000348657
0.00036108
0.00034623
0.000348666
0.000346245
0.000361087
0.000358636
0.000348657
0.00036108
0.00034623
0.000348666
0.000341184
0.000326259
0.000341182
0.000326259
0.000341184
0.00032626
0.000341182
0.000326259
0.000341141
0.000338687
0.000326294
0.000328726
0.000341147
0.000338697
0.000326308
0.000341141
0.000338687
0.000326294
0.000328726
0.000341147
0.000338697
0.000326308
0.000361126
0.000361126
0.000346298
0.000346193
0.000346193
0.000361123
0.000346195
0.000326256
0.000341185
0.000341053
0.000326256
0.000326256
0.000341187
0.000341187
0.000326256
0.000341185
0.000346245
0.000361087
0.000358636
0.000348656
0.00036108
0.00034623
0.000348666
0.000346197
0.000361121
0.000361123
0.000346196
0.000346245
0.000358636
0.000361087
0.000348657
0.00036108
0.000348666
0.00034623
0.000341184
0.000326259
0.000341182
0.000326259
0.00034114
0.000338687
0.000326294
0.000328726
0.000341147
0.000338697
0.000326308
0.000341184
0.000326259
0.000341182
0.000326259
0.00034114
0.000338687
0.000328726
0.000326294
0.000338697
0.000341147
0.000326308
0.000346197
0.000361121
0.000361124
0.000346197
0.000346246
0.000358636
0.000361087
0.000348657
0.000361081
0.000348667
0.00034623
0.000346197
0.000361121
0.000361124
0.000346197
0.000341141
0.000338687
0.000326294
0.000328726
0.000341147
0.000338697
0.000326308
0.000341184
0.00032626
0.000341182
0.000326259
0.000341141
0.000338688
0.000328726
0.000326294
0.000338697
0.000341147
0.000326308
0.000341184
0.00032626
0.000341182
0.000326259
0.000361126
0.000361126
0.000346298
0.000346193
0.000346193
0.000361122
0.000346195
0.000326255
0.000341185
0.000341053
0.000326255
0.000326255
0.000341187
0.000341187
0.000326256
0.000341185
0.000346246
0.000358636
0.000361087
0.000348657
0.00036108
0.000348666
0.00034623
0.000346197
0.000361121
0.000361123
0.000346197
0.000346197
0.000361121
0.000361123
0.000346197
0.00034114
0.000338687
0.000328726
0.000326294
0.000338697
0.000341147
0.000326308
0.00034114
0.000338687
0.000328726
0.000326294
0.000338697
0.000341147
0.000326308
0.000341184
0.000326259
0.000341182
0.000326259
0.000341184
0.000326259
0.000341182
0.000326259
0.000361123
0.000346195
0.000361123
0.000346195
0.000341053
0.000326256
0.000326256
0.000341187
0.000341187
0.000326256
0.000341185
0.000326256
0.000341185
0.000321244
0.000306321
0.000321244
0.000306321
0.000321244
0.000321244
0.000306419
0.000306322
0.000306322
0.000286385
0.000301301
0.000286385
0.000301301
0.000301173
0.000286383
0.000286383
0.000301303
0.000301303
0.000306328
0.000321239
0.000321242
0.000306325
0.000306373
0.000321203
0.000318756
0.000308775
0.000321198
0.000306358
0.000308785
0.000306373
0.000321204
0.000318756
0.000308775
0.000321198
0.000306358
0.000308785
0.000301297
0.000286386
0.000301299
0.000286395
0.000301297
0.000286386
0.000301299
0.000286395
0.000301258
0.000298807
0.000286417
0.000288851
0.000301265
0.000298817
0.000286432
0.000301258
0.000298807
0.000286417
0.000288851
0.000301265
0.000298817
0.000286432
0.000321244
0.000321244
0.00030642
0.000306323
0.000306323
0.000321244
0.000306321
0.000286385
0.000301301
0.000301174
0.000286384
0.000286384
0.000301303
0.000301303
0.000286385
0.000301302
0.000306373
0.000321203
0.000318756
0.000308775
0.000321198
0.000306358
0.000308785
0.000306327
0.000321239
0.000321242
0.000306325
0.000306372
0.000318756
0.000321203
0.000308775
0.000321198
0.000308785
0.000306358
0.000301297
0.000286386
0.000301299
0.000286395
0.000301258
0.000298807
0.000286417
0.000288851
0.000301265
0.000298817
0.000286432
0.000301297
0.000286386
0.000301299
0.000286395
0.000301258
0.000298807
0.000288851
0.000286417
0.000298817
0.000301265
0.000286432
0.000306328
0.000321239
0.000321242
0.000306325
0.000306373
0.000318756
0.000321203
0.000308775
0.000321198
0.000308785
0.000306358
0.000306328
0.000321239
0.000321242
0.000306325
0.000301258
0.000298807
0.000286417
0.000288851
0.000301265
0.000298817
0.000286432
0.000301297
0.000286386
0.000301299
0.000286395
0.000301258
0.000298807
0.000288851
0.000286417
0.000298817
0.000301265
0.000286432
0.000301297
0.000286386
0.000301299
0.000286395
0.000321244
0.000321244
0.000306419
0.000306322
0.000306322
0.000321244
0.000306322
0.000286385
0.000301301
0.000301174
0.000286384
0.000286383
0.000301302
0.000301303
0.000286385
0.000301301
0.000306373
0.000318756
0.000321203
0.000308775
0.000321198
0.000308785
0.000306358
0.000306328
0.000321239
0.000321242
0.000306325
0.000306328
0.000321239
0.000321242
0.000306325
0.000301258
0.000298807
0.000288851
0.000286417
0.000298817
0.000301265
0.000286432
0.000301258
0.000298807
0.000288851
0.000286417
0.000298817
0.000301265
0.000286432
0.000301297
0.000286386
0.000301299
0.000286395
0.000301297
0.000286386
0.000301299
0.000286395
0.000321244
0.000306321
0.000321244
0.000306321
0.000301174
0.000286384
0.000286384
0.000301303
0.000301303
0.000286385
0.000301301
0.000286385
0.000301301
0.000281369
0.000266439
0.00028137
0.000266438
0.000281373
0.000281373
0.000266551
0.000266437
0.000266437
0.000246494
0.00026144
0.000246494
0.00026144
0.000261299
0.000246497
0.000246497
0.000261441
0.000261441
0.000266434
0.000281368
0.000281364
0.000266443
0.000266483
0.000281336
0.000278887
0.000268911
0.000281331
0.000266475
0.000268921
0.000266483
0.000281336
0.000278887
0.000268911
0.000281331
0.000266475
0.000268921
0.000261452
0.000246498
0.000261435
0.000246487
0.000261452
0.000246498
0.000261435
0.000246487
0.000261401
0.000258938
0.000246538
0.000248973
0.000261399
0.000258949
0.000246552
0.000261401
0.000258938
0.000246538
0.000248973
0.000261399
0.000258949
0.000246552
0.000281373
0.000281373
0.000266551
0.000266438
0.000266438
0.00028137
0.000266439
0.000246494
0.00026144
0.0002613
0.000246497
0.000246498
0.000261442
0.000261442
0.000246494
0.000261441
0.000266483
0.000281336
0.000278887
0.000268911
0.000281331
0.000266474
0.000268921
0.000266433
0.000281368
0.000281364
0.000266442
0.000266483
0.000278887
0.000281336
0.000268911
0.000281331
0.000268921
0.000266475
0.000261451
0.000246498
0.000261434
0.000246487
0.000261401
0.000258937
0.000246538
0.000248972
0.000261399
0.000258949
0.000246552
0.000261451
0.000246498
0.000261434
0.000246487
0.000261401
0.000258938
0.000248972
0.000246537
0.000258949
0.000261399
0.000246552
0.000266434
0.000281368
0.000281364
0.000266443
0.000266484
0.000278888
0.000281336
0.000268911
0.000281332
0.000268921
0.000266475
0.000266434
0.000281368
0.000281364
0.000266443
0.000261402
0.000258938
0.000246538
0.000248973
0.000261399
0.000258949
0.000246553
0.000261452
0.000246498
0.000261435
0.000246488
0.000261402
0.000258938
0.000248973
0.000246538
0.000258949
0.000261399
0.000246553
0.000261452
0.000246498
0.000261435
0.000246488
0.000281373
0.000281373
0.000266551
0.000266437
0.000266438
0.00028137
0.000266439
0.000246493
0.00026144
0.0002613
0.000246497
0.000246497
0.000261441
0.000261441
0.000246494
0.00026144
0.000266484
0.000278887
0.000281336
0.000268911
0.000281331
0.000268921
0.000266475
0.000266434
0.000281368
0.000281364
0.000266443
0.000266434
0.000281368
0.000281364
0.000266443
0.000261401
0.000258938
0.000248973
0.000246538
0.000258949
0.000261399
0.000246553
0.000261401
0.000258938
0.000248973
0.000246538
0.000258949
0.000261399
0.000246553
0.000261452
0.000246498
0.000261435
0.000246487
0.000261452
0.000246498
0.000261435
0.000246488
0.00028137
0.000266439
0.00028137
0.000266439
0.0002613
0.000246497
0.000246497
0.000261442
0.000261442
0.000246494
0.00026144
0.000246494
0.00026144
0.000241499
0.000226553
0.0002415
0.000226552
0.000241495
0.000241495
0.000226666
0.000226565
0.000226564
0.000206611
0.000221558
0.000206611
0.000221558
0.000221414
0.00020663
0.00020663
0.000221547
0.000221547
0.000226585
0.000241494
0.000241498
0.000226564
0.000226626
0.000241451
0.000238998
0.00022902
0.00024144
0.000226609
0.000229027
0.000226626
0.000241452
0.000238998
0.00022902
0.00024144
0.000226609
0.000229028
0.000221529
0.000206627
0.000221546
0.000206626
0.000221529
0.000206627
0.000221547
0.000206626
0.000221497
0.000219051
0.000206668
0.000209095
0.0002215
0.000219064
0.000206667
0.000221497
0.000219051
0.000206669
0.000209095
0.000221501
0.000219064
0.000206667
0.000241496
0.000241496
0.000226667
0.000226566
0.000226566
0.0002415
0.000226553
0.000206611
0.000221559
0.000221415
0.00020663
0.000206631
0.000221547
0.000221547
0.000206611
0.000221559
0.000226625
0.000241451
0.000238998
0.00022902
0.00024144
0.000226609
0.000229027
0.000226584
0.000241493
0.000241498
0.000226562
0.000226625
0.000238998
0.00024145
0.00022902
0.00024144
0.000229027
0.000226608
0.000221528
0.000206627
0.000221545
0.000206627
0.000221496
0.000219051
0.000206669
0.000209095
0.0002215
0.000219063
0.000206667
0.000221528
0.000206627
0.000221545
0.000206627
0.000221496
0.00021905
0.000209095
0.000206669
0.000219063
0.000221499
0.000206667
0.000226586
0.000241494
0.000241498
0.000226564
0.000226626
0.000238998
0.000241452
0.00022902
0.000241441
0.000229028
0.000226609
0.000226586
0.000241494
0.000241498
0.000226563
0.000221497
0.000219052
0.000206668
0.000209095
0.000221501
0.000219064
0.000206667
0.00022153
0.000206627
0.000221547
0.000206626
0.000221497
0.000219051
0.000209095
0.000206669
0.000219064
0.0002215
0.000206667
0.00022153
0.000206627
0.000221546
0.000206626
0.000241495
0.000241495
0.000226665
0.000226564
0.000226564
0.0002415
0.000226552
0.00020661
0.000221557
0.000221414
0.00020663
0.00020663
0.000221546
0.000221546
0.00020661
0.000221557
0.000226626
0.000238998
0.000241452
0.00022902
0.00024144
0.000229027
0.000226609
0.000226585
0.000241494
0.000241498
0.000226563
0.000226585
0.000241494
0.000241498
0.000226563
0.000221496
0.000219051
0.000209095
0.000206668
0.000219064
0.000221499
0.000206667
0.000221496
0.000219051
0.000209095
0.000206669
0.000219064
0.0002215
0.000206667
0.000221529
0.000206627
0.000221545
0.000206626
0.000221529
0.000206627
0.000221546
0.000206626
0.0002415
0.000226553
0.0002415
0.000226553
0.000221415
0.00020663
0.00020663
0.000221547
0.000221547
0.000206611
0.000221559
0.000206611
0.000221558
0.000201624
0.000186653
0.000201624
0.000186652
0.000201603
0.000201603
0.000186786
0.000186682
0.000186681
0.000166699
0.000181694
0.0001667
0.000181694
0.000181521
0.00016674
0.000166741
0.000181663
0.000181663
0.000186683
0.000201607
0.000201614
0.000186674
0.000186736
0.000201566
0.000199124
0.000189143
0.000201572
0.000186721
0.000189145
0.000186736
0.000201565
0.000199124
0.000189142
0.000201571
0.000186721
0.000189145
0.000181656
0.000166734
0.000181666
0.000166738
0.000181656
0.000166733
0.000181665
0.000166737
0.00018161
0.000179165
0.000166785
0.000169202
0.000181618
0.000179175
0.00016678
0.00018161
0.000179164
0.000166783
0.000169202
0.000181617
0.000179175
0.00016678
0.000201604
0.000201603
0.000186786
0.000186682
0.000186681
0.000201625
0.000186652
0.000166698
0.000181693
0.00018152
0.000166739
0.000166739
0.000181662
0.000181662
0.000166697
0.000181692
0.000186736
0.000201566
0.000199124
0.000189143
0.000201571
0.00018672
0.000189146
0.000186682
0.000201607
0.000201614
0.000186675
0.000186736
0.000199124
0.000201566
0.000189143
0.000201571
0.000189146
0.000186721
0.000181655
0.000166734
0.000181666
0.000166739
0.00018161
0.000179165
0.000166785
0.000169202
0.000181617
0.000179175
0.000166781
0.000181655
0.000166735
0.000181666
0.000166739
0.00018161
0.000179165
0.000169202
0.000166785
0.000179175
0.000181617
0.000166781
0.000186683
0.000201607
0.000201613
0.000186674
0.000186736
0.000199124
0.000201566
0.000189143
0.000201571
0.000189145
0.000186721
0.000186683
0.000201607
0.000201613