/*--------------------------------*- C++ -*----------------------------------*\
| =========                 |                                                 |
| \\      /  F ield         | OpenFOAM: The Open Source CFD Toolbox           |
|  \\    /   O peration     | Version:  2206                                  |
|   \\  /    A nd           | Website:  www.openfoam.com                      |
|    \\/     M anipulation  |                                                 |
\*---------------------------------------------------------------------------*/
FoamFile
{
    version     2.0;
    format      ascii;
    arch        "LSB;label=32;scalar=64";
    class       volScalarField;
    location    "1";
    object      p;
}
// * * * * * * * * * * * * * * * * * * * * * * * * * * * * * * * * * * * * * //

dimensions      [0 2 -2 0 0 0 0];

internalField   nonuniform List<scalar> 
28549
(
0.0045306
0.00453063
0.00419579
0.00451532
0.00451536
0.00450097
0.00452258
0.00448077
0.00406368
0.00448667
0.0040639
0.00450099
0.00452243
0.00448074
0.00406361
0.00406391
0.00448655
0.00406362
0.00448662
0.00452251
0.0045305
0.0041957
0.00451524
0.00451526
0.00453054
0.00448072
0.00406361
0.0040639
0.0044866
0.00448072
0.00406363
0.00406391
0.00448662
0.00450096
0.00452247
0.0045009
0.00452254
0.0041957
0.0045153
0.00451531
0.00453057
0.00453058
0.0045301
0.00453005
0.00449394
0.00454139
0.00438888
0.00445748
0.00454134
0.00438903
0.0044575
0.00355425
0.00450167
0.00458416
0.00362557
0.00457668
0.00362485
0.00354642
0.00356867
0.00452621
0.00360261
0.00455968
0.00359941
0.00355416
0.00458413
0.00450156
0.00362559
0.00457659
0.00354642
0.00362475
0.00356855
0.00452604
0.00360252
0.00455953
0.00359931
0.00356866
0.00452613
0.00360261
0.00455961
0.0035994
0.0035915
0.00362214
0.00452996
0.0045301
0.00449384
0.0035904
0.00359045
0.00365956
0.00454124
0.00438891
0.00360569
0.00371113
0.00445744
0.0035834
0.00365968
0.00454135
0.00438883
0.0036057
0.00445737
0.0035834
0.00371113
0.00359147
0.00355415
0.00450156
0.00458411
0.00362558
0.0045766
0.00362472
0.00354639
0.00356851
0.00452609
0.00360248
0.00455956
0.00359924
0.00355429
0.00450164
0.00458412
0.00362556
0.00457665
0.00362491
0.00354642
0.00356872
0.00452619
0.00360266
0.00455967
0.00359947
0.00362227
0.00453025
0.00453005
0.00449381
0.00359056
0.00359052
0.00365978
0.00454141
0.00438883
0.00360582
0.00445741
0.00371124
0.00358351
0.00365968
0.0045413
0.00438898
0.00360581
0.00445742
0.00371127
0.00358352
0.0035916
0.00359164
0.00408411
0.00407285
0.00407285
0.00406759
0.0040841
0.00407288
0.00407286
0.0040676
0.00408407
0.00407284
0.00407283
0.00406759
0.00408407
0.00407287
0.00407284
0.0040676
0.0043119
0.00431207
0.00442438
0.00381702
0.00448304
0.00427744
0.00364438
0.00428511
0.0036432
0.00382539
0.00379889
0.00448594
0.00432226
0.00363828
0.0037754
0.00430873
0.00363985
0.00381696
0.00427742
0.00448297
0.00364438
0.00428507
0.00382539
0.00364312
0.00379883
0.00448582
0.00432218
0.0036382
0.00430861
0.00363978
0.00377531
0.00379891
0.00448589
0.00432219
0.0036383
0.0043087
0.00363987
0.00377545
0.00370009
0.00390112
0.00431195
0.00431187
0.00378554
0.0044243
0.00378561
0.00381696
0.0042774
0.00448296
0.00364436
0.00428503
0.00382539
0.00364311
0.00379873
0.00448587
0.00432218
0.00363816
0.00430874
0.00377528
0.00363973
0.00381706
0.00427739
0.00448299
0.00364438
0.00428506
0.00382543
0.00364324
0.00379892
0.00448589
0.00432222
0.00363832
0.00430868
0.00363989
0.00377543
0.00370018
0.00390122
0.00431186
0.004312
0.00442432
0.00378572
0.00378562
0.00582404
0.00580361
0.00593638
0.00591595
0.00591591
0.00604797
0.00602829
0.00593576
0.00572537
0.0058036
0.00580361
0.00588784
0.00588786
0.00593576
0.00572533
0.0058036
0.00580355
0.00588783
0.00588781
0.0058036
0.00588787
0.00588782
0.00604797
0.00583777
0.00591593
0.00591594
0.00600016
0.00600021
0.00604808
0.00583776
0.00591592
0.00591589
0.00600015
0.00600015
0.00591591
0.0060002
0.00600017
0.00604793
0.00583783
0.00591593
0.00583789
0.00602828
0.00616029
0.00539368
0.00626253
0.00537059
0.00624103
0.00627055
0.00535965
0.00539354
0.00626254
0.00537059
0.00624095
0.00582405
0.00582402
0.00582403
0.0059083
0.0059083
0.00590829
0.0059083
0.00541242
0.00622668
0.00580388
0.0058317
0.00540631
0.00583196
0.00622078
0.00550609
0.0063748
0.00635333
0.00548303
0.00638285
0.005472
0.005506
0.0063748
0.0063532
0.00548304
0.00593638
0.00593638
0.00593638
0.00602061
0.00602067
0.00602062
0.00602062
0.00552483
0.006339
0.00591622
0.00594403
0.00633306
0.00551868
0.00594429
0.00638272
0.00547192
0.00552485
0.00591616
0.00633887
0.005944
0.00594424
0.00551862
0.00633301
0.00636755
0.00636754
0.00578162
0.0054862
0.00548616
0.00649505
0.00604876
0.00645119
0.00602852
0.00644536
0.0062706
0.00535957
0.0062706
0.00535956
0.00625532
0.00625533
0.00566914
0.00537379
0.00537373
0.00541578
0.00632671
0.00541578
0.00632671
0.00599186
0.00542999
0.00542995
0.00631143
0.00631145
0.00539368
0.0062625
0.00537068
0.00624101
0.00541245
0.00622665
0.00580391
0.00583168
0.00540626
0.00583199
0.0062208
0.00541247
0.00622661
0.0058039
0.00583169
0.00540634
0.00583199
0.00622079
0.00629718
0.0054268
0.00631865
0.00544988
0.00629715
0.00542686
0.00631866
0.00544989
0.00627694
0.00585977
0.00546247
0.00588814
0.00628278
0.00586007
0.00546866
0.00627693
0.00585978
0.00546253
0.00588815
0.00628277
0.00586007
0.00546867
0.00625529
0.00625534
0.00566916
0.00537382
0.00537382
0.00627063
0.00535961
0.00541584
0.00632671
0.00599192
0.00543001
0.00543003
0.00631146
0.0063115
0.00541582
0.0063268
0.00541237
0.00622664
0.00580386
0.00583167
0.00540625
0.00583193
0.00622075
0.00539355
0.00626244
0.00624098
0.00537047
0.00541235
0.00580386
0.00622657
0.00583164
0.00583193
0.00622074
0.00540615
0.00629709
0.00542681
0.00631867
0.00544979
0.00627688
0.00585976
0.00546248
0.00588808
0.00628276
0.00586001
0.0054686
0.0062971
0.00542669
0.00544978
0.00631855
0.00627686
0.00585973
0.00588808
0.00546238
0.00586
0.00546859
0.00628268
0.0053936
0.00626258
0.00537064
0.00624098
0.00541241
0.00580387
0.0062266
0.00583162
0.00583196
0.00622076
0.00540621
0.00539362
0.00626248
0.006241
0.00537053
0.00627692
0.00585979
0.00546252
0.00588814
0.00628285
0.00586006
0.00546862
0.00629709
0.00542685
0.00631876
0.00544981
0.00627688
0.0058598
0.00588814
0.00546245
0.00586004
0.00546862
0.00628272
0.00629711
0.00542676
0.00544982
0.00631859
0.00638285
0.00547201
0.00638284
0.00547201
0.00636757
0.00636758
0.0057816
0.00548622
0.00548617
0.00552825
0.006439
0.00552824
0.00643897
0.00610411
0.00554245
0.00554239
0.00642372
0.0064237
0.00550609
0.00637479
0.00635331
0.00548302
0.00552486
0.00633892
0.00591623
0.005944
0.00633309
0.00551871
0.00594431
0.00552486
0.0063389
0.00591623
0.00594402
0.00633308
0.00551869
0.0059443
0.00640944
0.00553928
0.00643097
0.00556227
0.00640944
0.0055392
0.00643087
0.0055623
0.00638921
0.00597209
0.00557495
0.00600049
0.00639506
0.0059724
0.00558106
0.00638919
0.00597212
0.00557488
0.00600045
0.006395
0.00597238
0.00558105
0.00636759
0.00636765
0.00578152
0.00548618
0.00548619
0.00638295
0.00547199
0.00552818
0.00643894
0.00610419
0.00554236
0.00554238
0.00642369
0.00642374
0.00552817
0.00643903
0.00552482
0.00633889
0.00591616
0.00594399
0.00633299
0.00551872
0.00594425
0.00550603
0.00637466
0.0063532
0.00548292
0.00552481
0.00591616
0.00633878
0.00594398
0.00633297
0.00594424
0.00551862
0.00640928
0.00553927
0.00643094
0.00556223
0.0063891
0.00597207
0.00557493
0.00600043
0.00639501
0.00597233
0.00558104
0.00640931
0.00553916
0.00643078
0.00556226
0.00638907
0.00597205
0.00600042
0.00557486
0.00597232
0.00639489
0.00558104
0.00550604
0.0063749
0.00635323
0.00548302
0.00552484
0.00591621
0.00633887
0.005944
0.00633304
0.00594429
0.00551868
0.00550606
0.00637473
0.00635326
0.00548299
0.00638921
0.00597212
0.00557488
0.00600045
0.00639509
0.00597237
0.00558108
0.00640941
0.0055392
0.00643098
0.00556231
0.00638918
0.0059721
0.00600047
0.00557494
0.00597238
0.006395
0.00558109
0.00640942
0.00553924
0.00643088
0.00556233
0.00636747
0.00636753
0.00578159
0.0054861
0.00548613
0.0063828
0.00547191
0.00552817
0.00643883
0.00610404
0.00554235
0.00642358
0.00642362
0.00643889
0.00552486
0.00591617
0.00633886
0.005944
0.00594424
0.00551869
0.00633302
0.00550608
0.00637474
0.00548293
0.00635325
0.00550609
0.00637475
0.00548302
0.00635322
0.00638911
0.00597207
0.00597231
0.00639496
0.00638911
0.00597208
0.00597232
0.00639493
0.00640934
0.00643083
0.00640933
0.00643082
0.00638281
0.00547198
0.0063828
0.00547199
0.00610404
0.00554246
0.00642367
0.00642361
0.00552824
0.00643893
0.00643886
0.00648701
0.00645113
0.00647981
0.00647984
0.00649512
0.00648708
0.00646559
0.00602856
0.00644535
0.00646558
0.00634474
0.0053145
0.00539283
0.00626911
0.00635226
0.00626969
0.00532226
0.00530855
0.00534251
0.00626616
0.00533929
0.00629964
0.00632769
0.00536737
0.00629059
0.00629422
0.00533663
0.00529418
0.00536559
0.00632419
0.00624163
0.00528641
0.00536475
0.00631667
0.00533155
0.00629864
0.00634474
0.00539283
0.0053144
0.00626901
0.00626973
0.00635221
0.00532224
0.00530856
0.0053425
0.0062662
0.00533929
0.00629966
0.00632773
0.00536738
0.00629061
0.00629427
0.00533665
0.00529415
0.00536543
0.00624166
0.00632413
0.00536474
0.0052863
0.00631667
0.00645703
0.00638139
0.0054269
0.00550529
0.00646456
0.00638197
0.00543468
0.00542096
0.00637843
0.00545491
0.00641191
0.0054517
0.00540657
0.00547799
0.00643649
0.0063539
0.00642895
0.0053988
0.00547717
0.00643999
0.00547983
0.00640288
0.00640652
0.00544908
0.00544393
0.0064109
0.00645701
0.00638123
0.00550532
0.00542683
0.00638198
0.00646446
0.00543468
0.00542101
0.00637845
0.00545493
0.00641192
0.00545174
0.00540657
0.0054779
0.00635391
0.00643641
0.00642894
0.0054772
0.00539873
0.00643999
0.00547986
0.00640287
0.00640653
0.00544913
0.0054438
0.00641078
0.00637426
0.00547093
0.0054708
0.00641045
0.00641005
0.00550269
0.00551207
0.00624108
0.00545809
0.00639365
0.0055635
0.00543579
0.00630973
0.00551198
0.00624119
0.00545804
0.00639349
0.00556354
0.00543573
0.00630973
0.00633778
0.00546389
0.00639561
0.00559163
0.00626914
0.00642171
0.00554021
0.00633777
0.00546383
0.00639557
0.00559166
0.0062692
0.00642152
0.00554009
0.00547456
0.00638241
0.00638204
0.00544283
0.00544271
0.0063462
0.00555631
0.00533149
0.00629866
0.00533147
0.00629866
0.00626193
0.00535853
0.00535844
0.00629831
0.00629807
0.00539019
0.00539964
0.00612889
0.00534571
0.00628143
0.00532341
0.00545108
0.00619745
0.00539952
0.00612901
0.00534565
0.0062813
0.00532336
0.00545108
0.00619747
0.00622552
0.00535148
0.00628338
0.00547917
0.00630949
0.00542773
0.00615694
0.00622554
0.00535144
0.0062834
0.00547917
0.00630937
0.00542762
0.00615706
0.00536209
0.00627029
0.00627002
0.00533047
0.00533037
0.00623386
0.00635477
0.00538767
0.00635477
0.00538766
0.00541831
0.00632628
0.00632606
0.00629005
0.00538661
0.00538652
0.00628166
0.00553541
0.0063395
0.00540767
0.00636558
0.00621305
0.00548397
0.00628167
0.00553541
0.00633951
0.00540764
0.00636546
0.00621316
0.00548385
0.00545585
0.00633753
0.00618499
0.00540188
0.0062536
0.00537957
0.00550729
0.00545573
0.00633741
0.00618511
0.00540183
0.00625361
0.00537953
0.00550729
0.00631813
0.0054147
0.00541461
0.00635431
0.00635408
0.00544645
0.00634475
0.00531452
0.00539291
0.00626908
0.00635226
0.00626972
0.00532232
0.00530863
0.00534258
0.00626614
0.00533938
0.00629961
0.0063277
0.00536747
0.00629058
0.00629422
0.00533673
0.00529422
0.00536559
0.00632418
0.00624164
0.00528643
0.00536481
0.00631667
0.00535036
0.00638033
0.00629775
0.00542177
0.0063728
0.0053426
0.00542093
0.00638382
0.00634672
0.00542358
0.00539284
0.00635035
0.00536472
0.00632228
0.00539868
0.00635575
0.00539547
0.00640088
0.00632525
0.0053707
0.00544905
0.00537847
0.00640841
0.00632583
0.00535042
0.00638033
0.0062978
0.00542178
0.00637283
0.00534262
0.00542102
0.00638385
0.00634673
0.00542366
0.00635037
0.00539292
0.00536483
0.0063223
0.00539877
0.00635578
0.00539558
0.0064009
0.00632522
0.00537072
0.0054491
0.00640841
0.00632588
0.00537851
0.006262
0.0053585
0.00535855
0.00629803
0.00629825
0.00539026
0.00539959
0.00612895
0.00534572
0.00628128
0.00532341
0.00545116
0.00619749
0.00539969
0.00612891
0.00534573
0.00628143
0.00545114
0.00532341
0.00619746
0.00622558
0.0053515
0.00628338
0.00547925
0.00630937
0.00615703
0.00542768
0.00622555
0.0053515
0.00628342
0.00547922
0.00615699
0.00630951
0.00542778
0.00536216
0.00626995
0.00627019
0.0053304
0.00533046
0.00623391
0.00533151
0.00629872
0.00635478
0.00538774
0.00541835
0.00632615
0.00632634
0.00629007
0.00538661
0.00538666
0.0062817
0.00553544
0.00633953
0.0054077
0.00621319
0.00636554
0.00548385
0.00628167
0.00553542
0.00633959
0.00540771
0.00636568
0.00621316
0.00548396
0.00545577
0.00633745
0.00618511
0.00540192
0.00550735
0.00625365
0.00537961
0.00545587
0.00633759
0.00618508
0.00540193
0.00625362
0.00537961
0.00550732
0.00631806
0.00541471
0.00541476
0.00635431
0.00635451
0.00544644
0.00635489
0.00538772
0.00634466
0.00531438
0.00626904
0.00539269
0.00635219
0.00626963
0.00532213
0.00530841
0.00626605
0.00534238
0.00533916
0.00629953
0.00529405
0.00536545
0.00632412
0.00624157
0.0052863
0.0053646
0.0063166
0.00632758
0.00536725
0.0062905
0.0062941
0.0053365
0.00535033
0.00629778
0.00638028
0.00542166
0.00637281
0.00542093
0.0053425
0.00638384
0.00634673
0.00542361
0.00539287
0.00635038
0.00536475
0.00632232
0.00539869
0.00635578
0.00539549
0.00640087
0.00632515
0.00544906
0.00537062
0.00537845
0.00632584
0.00640835
0.00535023
0.00638025
0.00542166
0.00629769
0.00637272
0.00534249
0.00542079
0.00638369
0.00542347
0.0063466
0.00635021
0.00539272
0.00640079
0.00632515
0.0053706
0.00544892
0.00640832
0.00632574
0.00537834
0.0053646
0.00632216
0.00539857
0.00635563
0.00539535
0.00634478
0.00539291
0.00531446
0.00626903
0.00626976
0.00635225
0.00532231
0.00530861
0.00534254
0.00626623
0.00533934
0.00629969
0.00632779
0.00536744
0.00629068
0.00629434
0.00533672
0.00529421
0.00536551
0.00624166
0.00632417
0.0053648
0.00528637
0.00631669
0.00634468
0.00531444
0.00626905
0.00539275
0.0063522
0.00626965
0.00532219
0.00530847
0.0062661
0.00534244
0.00533921
0.00629957
0.00529411
0.00536554
0.00632415
0.0062416
0.00528636
0.00536466
0.00631662
0.00632762
0.0053673
0.00629053
0.00629414
0.00533655
0.00535042
0.00629786
0.00638032
0.0054217
0.00637286
0.00542103
0.00534256
0.00638397
0.00634684
0.00542366
0.00635051
0.00539293
0.00536483
0.00632243
0.00539875
0.00635589
0.00539555
0.00640094
0.00632516
0.00544913
0.00537066
0.00632594
0.00640838
0.00537852
0.00535029
0.00638025
0.00542171
0.00629771
0.00637273
0.00534254
0.00542085
0.00638375
0.00542352
0.00634666
0.00635027
0.00539277
0.00640081
0.00632519
0.00537065
0.00544896
0.00640835
0.00632579
0.0053784
0.00536466
0.0063222
0.00539864
0.00635567
0.0053954
0.0054439
0.00641092
0.0054439
0.0064109
0.0063743
0.00547092
0.00547082
0.00641042
0.00641015
0.00550271
0.00551209
0.00624111
0.00639365
0.00545811
0.00630974
0.00543578
0.00556353
0.00551198
0.00624122
0.00639353
0.00545807
0.00630974
0.00543574
0.00556354
0.00547458
0.00638236
0.00638212
0.00634621
0.00544281
0.00544272
0.0063378
0.0054639
0.00639564
0.00559165
0.00642172
0.00554021
0.00626919
0.00633781
0.00546385
0.00639564
0.00559166
0.00642158
0.00554009
0.00626928
0.00646708
0.00550012
0.00646703
0.00550012
0.00553082
0.00643848
0.00643819
0.00640239
0.00549901
0.00549893
0.00639393
0.00564787
0.00645179
0.00552012
0.00647785
0.00632536
0.00559644
0.00639394
0.00564788
0.00645177
0.00552007
0.00647771
0.00632542
0.00559632
0.00556832
0.00644979
0.00629727
0.00551433
0.00636587
0.005492
0.00561976
0.0055682
0.00644964
0.00629735
0.00551428
0.00636588
0.00549195
0.00561977
0.00643045
0.00552714
0.00552704
0.00646652
0.00646627
0.00555892
0.00645702
0.00638137
0.00542689
0.00550523
0.00646455
0.00638197
0.00543465
0.00542099
0.00637843
0.00545495
0.0064119
0.00545173
0.00540658
0.00547799
0.00643649
0.00635393
0.00539881
0.00642897
0.00547717
0.00643993
0.0054798
0.00640283
0.00640646
0.00544905
0.00546281
0.00649262
0.00641006
0.00553417
0.0064851
0.00545499
0.00553344
0.0064962
0.00645905
0.00553611
0.00550537
0.00646272
0.00547722
0.00643461
0.00551115
0.00646809
0.00550796
0.0065132
0.00643746
0.0054831
0.0055616
0.00549094
0.00652069
0.00643817
0.00546273
0.0064926
0.00641002
0.00553418
0.00648508
0.00545498
0.00553331
0.00649601
0.00645892
0.00553598
0.00646254
0.00550523
0.00547713
0.00643449
0.0055111
0.00646796
0.00550788
0.00651315
0.00643748
0.00548309
0.00556141
0.00652066
0.00643809
0.00549084
0.00637423
0.00547087
0.00547091
0.0064104
0.00641053
0.00550262
0.00551195
0.00624125
0.00639361
0.0054581
0.00543579
0.00630978
0.00556353
0.00551205
0.00624122
0.00639374
0.00545812
0.00556351
0.00630975
0.00543579
0.00547453
0.00638236
0.00638253
0.0054428
0.00634614
0.00544284
0.00633784
0.00546387
0.00639565
0.00559161
0.00642166
0.0062693
0.00554004
0.00633781
0.00546387
0.0063957
0.0055916
0.00626927
0.00642178
0.00554015
0.00544391
0.00641099
0.00646698
0.00550009
0.00553073
0.00643839
0.00643852
0.00640232
0.00549895
0.005499
0.00639396
0.00564783
0.00645174
0.00552004
0.00632539
0.00647774
0.00559627
0.00639392
0.00564782
0.00645178
0.00552004
0.00647787
0.00632534
0.00559637
0.00556814
0.0064497
0.00629735
0.00551427
0.00561972
0.0063659
0.00549195
0.00556825
0.00644982
0.00629731
0.00551428
0.00636587
0.00549196
0.0056197
0.00643037
0.00552702
0.00552707
0.00646641
0.00646657
0.00555887
0.00646707
0.00550007
0.00645691
0.00638125
0.00542681
0.00550515
0.00646443
0.00638187
0.00543456
0.00542083
0.00637826
0.00545481
0.00641174
0.00545159
0.00540645
0.00547791
0.00643638
0.00635381
0.00539871
0.00642886
0.00547704
0.00643979
0.0054797
0.00640272
0.00640631
0.00544895
0.0054628
0.00641005
0.00649252
0.00553411
0.00648507
0.00553344
0.00545493
0.00649613
0.006459
0.0055361
0.00550536
0.00646267
0.00547724
0.00643459
0.00551115
0.00646806
0.00550797
0.00651314
0.00643734
0.00556156
0.00548306
0.00549091
0.00643813
0.00652059
0.00546267
0.00649249
0.00640993
0.00553414
0.00648497
0.00545493
0.00553327
0.00649592
0.00645884
0.00553595
0.00646244
0.00550519
0.00547706
0.00643437
0.00551103
0.00646785
0.00550782
0.00651304
0.00643738
0.00548305
0.0055614
0.00652056
0.00643799
0.0054908
0.00645706
0.0063813
0.00550529
0.00542687
0.00638205
0.00646452
0.00543469
0.00542102
0.00637857
0.00545495
0.00545175
0.00641203
0.00540661
0.00547791
0.006354
0.00643645
0.00547722
0.006429
0.00539876
0.00644007
0.00547982
0.00640295
0.00640661
0.00544909
0.00645696
0.00638133
0.00542687
0.00550519
0.0064645
0.00638193
0.00543463
0.00542088
0.00637835
0.00545487
0.00641182
0.00545163
0.00540651
0.00547793
0.00643642
0.00635386
0.00642889
0.00539876
0.00547707
0.00643989
0.00547975
0.0064028
0.00640643
0.005449
0.00546277
0.00641008
0.0064926
0.00553418
0.00648511
0.00553337
0.00545499
0.00649613
0.00645902
0.00553599
0.00646266
0.00550525
0.00547716
0.00643463
0.0055111
0.00646809
0.0055079
0.00651317
0.0064375
0.00556146
0.00548311
0.00643812
0.00652068
0.00549085
0.00546275
0.00649258
0.00641
0.0055342
0.00648504
0.005455
0.00553333
0.00649605
0.00645895
0.00553601
0.00646258
0.00550526
0.00547713
0.0064345
0.00551111
0.00646797
0.00550788
0.00651312
0.0064375
0.00548312
0.00556146
0.00652066
0.00643807
0.00549086
0.00637434
0.00547074
0.00547082
0.00640998
0.00641021
0.00550267
0.00551192
0.0062411
0.00545798
0.00639346
0.00543567
0.00556348
0.00630976
0.00551206
0.00624107
0.00545801
0.0063936
0.00556348
0.00543569
0.0063097
0.00633781
0.00546377
0.00639553
0.00559161
0.0064215
0.00626915
0.00554004
0.00633776
0.0054638
0.00639558
0.0055916
0.0062691
0.00642164
0.00554018
0.00547453
0.00638198
0.00638221
0.00544264
0.00544272
0.00634626
0.00544379
0.00641085
0.0064669
0.00550003
0.0055308
0.00643799
0.00643828
0.0064024
0.00549886
0.00549894
0.00564786
0.00645165
0.00632526
0.00556816
0.00644954
0.0062972
0.00551422
0.00561973
0.00636586
0.00549189
0.00556831
0.0064497
0.00629715
0.00551425
0.0063658
0.00549192
0.00561973
0.00550004
0.00645695
0.00550519
0.00542686
0.0063813
0.00638189
0.00646448
0.0054346
0.00542085
0.00545481
0.00637836
0.00545159
0.00641183
0.00643988
0.0054797
0.00640279
0.00640641
0.00544897
0.00540649
0.00547795
0.00635385
0.00643643
0.00547707
0.00539874
0.00642891
0.00645697
0.00550527
0.00542688
0.00638128
0.0063819
0.00646448
0.00543465
0.00542097
0.00545491
0.0063784
0.00545171
0.00641188
0.0064399
0.00547981
0.00640278
0.00640642
0.00544907
0.00540655
0.00547796
0.00635388
0.00643644
0.00547717
0.00539876
0.00642894
0.00546272
0.00640993
0.00649253
0.00553422
0.006485
0.00553333
0.00545498
0.00547709
0.00643445
0.00551105
0.00646792
0.00550783
0.00546277
0.00640993
0.00649253
0.00553423
0.00648501
0.0055334
0.005455
0.00547718
0.00643445
0.00551113
0.00646792
0.00550793
0.00544386
0.00641087
0.00544388
0.00641083
0.00553083
0.00643846
0.00643802
0.00640237
0.00549905
0.00549891
0.00564791
0.00645174
0.00632528
0.00556835
0.00644977
0.00629721
0.00551432
0.00636585
0.00561976
0.00549201
0.00556822
0.00644956
0.00629723
0.00551427
0.00636583
0.0056198
0.00549194
0.00646701
0.0055001
0.0055001
0.00556732
0.00562442
0.00635344
0.00650579
0.00557049
0.00554815
0.00642206
0.00567598
0.00562453
0.00635338
0.00650591
0.0055705
0.00567596
0.00642202
0.00554816
0.00558704
0.00649433
0.00649446
0.00555511
0.00645857
0.00555519
0.00555629
0.00553337
0.00649071
0.00556732
0.00556411
0.00652417
0.00551898
0.00559046
0.00646618
0.00654878
0.00558958
0.00654123
0.00551123
0.0055334
0.00649067
0.00652413
0.00556415
0.005519
0.00559048
0.00654876
0.00646615
0.00654121
0.00551126
0.00558961
0.0058128
0.00581278
0.00585213
0.00584088
0.00584086
0.00583561
0.00580753
0.00592513
0.0059251
0.00596445
0.00595321
0.00595319
0.00594794
0.00591985
0.00555249
0.00616413
0.00616422
0.00575349
0.00563802
0.00563789
0.0062766
0.00544006
0.00605188
0.00605204
0.00564103
0.00552558
0.00552547
0.00616433
0.00624854
0.00601991
0.00560991
0.00560979
0.00613605
0.0061362
0.00552438
0.0054401
0.006052
0.00605189
0.00564107
0.0055256
0.00552554
0.00616435
0.00624857
0.00602001
0.0056098
0.00560987
0.00613625
0.00613614
0.00552437
0.0055525
0.00616411
0.00616426
0.00575349
0.0062766
0.00563803
0.00563791
0.00636081
0.0061322
0.00572233
0.00572222
0.00624833
0.00624847
0.00563681
0.00555246
0.00616431
0.00616421
0.00575342
0.00563796
0.00627665
0.00563789
0.00636084
0.00613224
0.00572222
0.00572228
0.00624846
0.00624836
0.00563678
0.00555246
0.00616419
0.00616411
0.00575347
0.00563794
0.00563789
0.00627659
0.00613209
0.00572226
0.00624836
0.00613209
0.0057224
0.00624825
0.00566491
0.00627652
0.00627641
0.00586589
0.00575043
0.00638892
0.00575035
0.00581281
0.00581279
0.00585213
0.00584089
0.00584088
0.00583561
0.00580753
0.00581277
0.00581276
0.00585211
0.00584085
0.00584085
0.0058356
0.00580752
0.00581278
0.00581277
0.00585213
0.00584087
0.00584085
0.00583561
0.00580752
0.00588022
0.00589704
0.00589702
0.00586896
0.00586894
0.00586369
0.00589177
0.00588021
0.00589705
0.00589705
0.00586897
0.00586896
0.0058637
0.00589178
0.0058802
0.00589701
0.00589701
0.00586893
0.00586893
0.00586368
0.00589176
0.00588021
0.00589704
0.00589702
0.00586895
0.00586894
0.00586369
0.00589177
0.00605315
0.00541125
0.00559344
0.00624884
0.00625112
0.0060455
0.00558506
0.00553877
0.00606223
0.00537821
0.00622595
0.00551534
0.00537978
0.00604878
0.00607686
0.00540788
0.00625476
0.00554343
0.00609031
0.00625404
0.00556686
0.00555697
0.00538433
0.00622304
0.00601742
0.00538315
0.00556535
0.00602507
0.00592513
0.00592513
0.00596448
0.00595322
0.00595321
0.00594794
0.00591986
0.0059251
0.00592509
0.00596446
0.00595318
0.00595318
0.00594792
0.00591984
0.00592512
0.0059251
0.00596447
0.0059532
0.00595318
0.00594794
0.00591985
0.00599253
0.00600938
0.00600936
0.0059813
0.00598128
0.00597602
0.00600411
0.00599256
0.00600938
0.00600938
0.0059813
0.0059813
0.00597602
0.00600411
0.00599254
0.00600935
0.00600935
0.00598127
0.00598126
0.005976
0.00600408
0.00599255
0.00600937
0.00600935
0.00598129
0.00598127
0.00597602
0.0060041
0.00616545
0.00636113
0.00552363
0.00570586
0.00636341
0.00615778
0.00569747
0.00565116
0.00617453
0.00633828
0.0054906
0.00616109
0.00562775
0.00549218
0.00566937
0.00549672
0.00633536
0.00612972
0.00613739
0.00549555
0.00567775
0.00618913
0.00552026
0.00636705
0.00565584
0.00620257
0.00636632
0.00567925
0.0061653
0.00570589
0.00552359
0.00636106
0.00615767
0.00636329
0.00569746
0.00565109
0.00617438
0.0054905
0.00633814
0.00562765
0.00549208
0.00616094
0.00618898
0.0055202
0.00636692
0.00565579
0.00620241
0.00636619
0.00567921
0.00566933
0.00549673
0.00612963
0.00633525
0.00567776
0.00549547
0.00613726
0.00630466
0.006076
0.00566612
0.00566603
0.00619217
0.00619228
0.00558061
0.00603747
0.00603746
0.0057636
0.00628667
0.00645047
0.005603
0.00627324
0.00574019
0.00560458
0.00578184
0.0056092
0.00644759
0.00624196
0.00624961
0.00560797
0.00579024
0.0061924
0.00596381
0.00555368
0.00555356
0.00546816
0.00607994
0.0060801
0.00549627
0.00569725
0.00610799
0.00610815
0.00622047
0.0055818
0.00558167
0.00605317
0.00541121
0.00559346
0.00624887
0.0062511
0.00604552
0.00558503
0.00553875
0.00606223
0.00537818
0.00622592
0.00537975
0.00551531
0.00604874
0.00607679
0.00540784
0.00625472
0.0055434
0.00625398
0.00609028
0.00556684
0.00555695
0.00538436
0.00622303
0.00601745
0.00538313
0.00556537
0.0060251
0.00605319
0.00541126
0.00559349
0.00624886
0.0062511
0.00604551
0.00558507
0.00553886
0.00606221
0.00537825
0.00622587
0.00537983
0.00551536
0.00604864
0.00607672
0.00540792
0.00625469
0.00554345
0.00625395
0.00556696
0.00609029
0.00555698
0.00538438
0.00622303
0.00601744
0.00538317
0.0055654
0.00602511
0.00561314
0.00627916
0.00607359
0.00544055
0.00608123
0.00543931
0.00562156
0.00613291
0.00559963
0.00631084
0.00546405
0.00614639
0.00631011
0.00562306
0.00559495
0.00628204
0.00611834
0.00543436
0.00557151
0.00610485
0.00543594
0.0061093
0.00630501
0.00546743
0.00564967
0.00630724
0.00610166
0.00564126
0.00561317
0.00627918
0.00607358
0.00544057
0.00608126
0.00543936
0.00562158
0.00613287
0.00559964
0.00631084
0.00546411
0.0063101
0.00614644
0.00562315
0.00559506
0.00628203
0.00611837
0.00543444
0.0061048
0.00543602
0.00557155
0.00610933
0.00630501
0.00546745
0.00564968
0.00630725
0.00610165
0.00564126
0.00619243
0.00596383
0.00555363
0.0055537
0.00607998
0.00608008
0.0054682
0.00549629
0.00569725
0.00610817
0.00610807
0.00558172
0.00622051
0.00558179
0.00605313
0.00541119
0.00559339
0.00624881
0.00625109
0.00604548
0.005585
0.00553872
0.00606226
0.00537816
0.00622591
0.00537974
0.00551524
0.00604874
0.00607679
0.00540783
0.00625471
0.00554334
0.00625398
0.00609031
0.00556683
0.0055569
0.00538427
0.00622302
0.00601742
0.00538309
0.00556528
0.00602508
0.00605312
0.00559337
0.0062488
0.00541109
0.00604546
0.00625104
0.00558492
0.00553868
0.00606223
0.00622583
0.00537806
0.00537965
0.00604864
0.00551513
0.00555682
0.00538426
0.00601741
0.00622298
0.00556527
0.005383
0.00602507
0.00607667
0.00540774
0.00625463
0.00554323
0.00625389
0.00556678
0.00609027
0.00561313
0.00627915
0.00607352
0.00544048
0.00608119
0.0054393
0.0056215
0.00613287
0.0055996
0.00631082
0.00546406
0.00614639
0.00631009
0.00562308
0.00559494
0.00628203
0.00611835
0.00543436
0.00557147
0.00610482
0.00543594
0.00610923
0.00630494
0.00546742
0.00564963
0.0063072
0.00610157
0.00564125
0.00561304
0.00607351
0.00544047
0.00627909
0.00608116
0.00562149
0.0054392
0.00613275
0.00559948
0.00546397
0.00631073
0.00630998
0.00562303
0.00614634
0.00610921
0.00630491
0.00564961
0.00546731
0.00610155
0.00630714
0.00564117
0.0055949
0.00628193
0.0061183
0.00543426
0.00610471
0.00543585
0.00557135
0.00605313
0.00559343
0.00624882
0.00541115
0.00604547
0.00625105
0.00558498
0.00553873
0.00606222
0.00622587
0.00537813
0.00537971
0.00551525
0.00604871
0.00555689
0.00538433
0.00601741
0.006223
0.00556535
0.00538307
0.00602507
0.00607675
0.0054078
0.00625465
0.00554332
0.00625391
0.00556684
0.00609029
0.00561317
0.0062792
0.00607357
0.00544052
0.00608124
0.00543936
0.00562154
0.00613302
0.00559965
0.00631093
0.00546409
0.00562306
0.00614647
0.00631021
0.00559496
0.00628212
0.0061184
0.00543442
0.00610494
0.00557155
0.00543599
0.00610932
0.00630499
0.00546746
0.00564965
0.00564127
0.00630728
0.00610165
0.00561308
0.00607355
0.00544051
0.00627911
0.00608119
0.00562153
0.00543925
0.00613285
0.00559955
0.00546401
0.00631079
0.00631005
0.00562301
0.00614636
0.00610927
0.00630496
0.00564964
0.00546736
0.00610163
0.00630719
0.00564119
0.00559491
0.00628197
0.00611832
0.00543433
0.00610478
0.00543591
0.0055714
0.00630467
0.00607602
0.00566614
0.00566602
0.00558061
0.00619217
0.00619232
0.00560872
0.0058097
0.00622024
0.00622039
0.00633274
0.00569424
0.00569413
0.00616544
0.00636115
0.00552365
0.00570588
0.00636338
0.00615779
0.00569749
0.00565118
0.00617445
0.00633818
0.00549059
0.00549217
0.00616097
0.00562776
0.00566937
0.00549676
0.00633531
0.00612972
0.00549554
0.00613737
0.00567777
0.00618903
0.00552028
0.00636699
0.00565588
0.00636625
0.00620251
0.0056793
0.00616545
0.00636114
0.00552361
0.00570587
0.00636337
0.00615778
0.00569743
0.00565123
0.0061745
0.00633816
0.00549062
0.00616093
0.0054922
0.00562773
0.00566936
0.00549677
0.00633532
0.00612972
0.0061374
0.00549554
0.00567778
0.00618898
0.00552027
0.00636695
0.0056558
0.00636621
0.00567931
0.00620254
0.0057256
0.00639145
0.00618586
0.00555295
0.00619352
0.00555177
0.00573398
0.00624519
0.00571214
0.00642314
0.00557652
0.00625867
0.00642242
0.00573554
0.00570742
0.00639433
0.00623059
0.00554683
0.00568401
0.0062171
0.0055484
0.0062216
0.00641728
0.0055799
0.0057621
0.00641954
0.00621393
0.00575373
0.00572552
0.00639142
0.00618584
0.00555295
0.00619351
0.00555169
0.00573396
0.00624508
0.00571202
0.00642305
0.00557645
0.00642231
0.00625864
0.00573551
0.00570741
0.00639426
0.00623059
0.00554678
0.00621703
0.00554836
0.00568389
0.00622157
0.00641725
0.0055798
0.00576208
0.00641948
0.00621391
0.00575364
0.00630471
0.00607613
0.00566599
0.00566606
0.00619226
0.00619237
0.00558056