/*--------------------------------*- C++ -*----------------------------------*\
| =========                 |                                                 |
| \\      /  F ield         | OpenFOAM: The Open Source CFD Toolbox           |
|  \\    /   O peration     | Version:  2206                                  |
|   \\  /    A nd           | Website:  www.openfoam.com                      |
|    \\/     M anipulation  |                                                 |
\*---------------------------------------------------------------------------*/
FoamFile
{
    version     2.0;
    format      ascii;
    arch        "LSB;label=32;scalar=64";
    class       volScalarField;
    location    "1";
    object      p;
}
// * * * * * * * * * * * * * * * * * * * * * * * * * * * * * * * * * * * * * //

dimensions      [0 2 -2 0 0 0 0];

internalField   nonuniform List<scalar> 
28448
(
0.00114454
0.00114451
0.00114451
0.00114689
0.0011051
0.00110508
0.00110508
0.00110746
0.00106567
0.00106565
0.00106565
0.00106803
0.00102624
0.00102622
0.00102622
0.00102859
0.000986806
0.000986785
0.000986785
0.00098916
0.000947374
0.000947353
0.000947353
0.000949729
0.000907942
0.00090792
0.000907921
0.000910296
0.000868509
0.000868488
0.000868488
0.000870863
0.000829076
0.000829055
0.000829055
0.00083143
0.000789644
0.000789623
0.000789622
0.000791998
0.000750211
0.00075019
0.00075019
0.000752565
0.000710779
0.000710757
0.000710757
0.000713133
0.000671346
0.000671324
0.000671325
0.0006737
0.000631913
0.000631892
0.000631892
0.000634267
0.000592481
0.000592459
0.00059246
0.000594835
0.000553048
0.000553026
0.000553027
0.000555402
0.000513615
0.000513594
0.000513594
0.000515969
0.000474185
0.000474163
0.00115201
0.00115437
0.00115437
0.00115201
0.00115437
0.00115437
0.00115437
0.00115437
0.00115202
0.00115437
0.00115437
0.00115202
0.00114689
0.00111258
0.00114451
0.00114451
0.00111494
0.00111494
0.00114689
0.00111258
0.00114451
0.00114451
0.00111494
0.00111494
0.00114452
0.00111494
0.00111494
0.00114689
0.00111258
0.00114451
0.00111494
0.00111494
0.00111258
0.00110746
0.00107315
0.00110508
0.00110508
0.00107551
0.00107551
0.00110746
0.00107315
0.00110508
0.00110508
0.00107551
0.00107551
0.00110508
0.00107551
0.00107551
0.00110746
0.00107315
0.00110508
0.00107551
0.00107551
0.00107315
0.00106803
0.00103372
0.00106565
0.00106565
0.00103608
0.00103608
0.00106803
0.00103372
0.00106565
0.00106565
0.00103608
0.00103608
0.00106565
0.00103608
0.00103608
0.00106803
0.00103372
0.00106565
0.00103608
0.00103608
0.00103372
0.00102859
0.000994286
0.00102622
0.00102622
0.000996643
0.000996643
0.00102859
0.000994286
0.00102622
0.00102622
0.000996643
0.000996643
0.00102622
0.000996643
0.000996643
0.00102859
0.000994285
0.00102622
0.000996643
0.000996642
0.000994285
0.00098916
0.000954853
0.000986785
0.000986785
0.000957211
0.000957211
0.00098916
0.000954853
0.000986785
0.000986785
0.000957211
0.000957211
0.000986785
0.000957211
0.000957212
0.00098916
0.000954854
0.000986784
0.000957211
0.000957211
0.000954854
0.000949728
0.000915421
0.000947353
0.000947353
0.000917779
0.000917778
0.000949728
0.000915421
0.000947353
0.000947353
0.000917779
0.000917779
0.000947354
0.000917779
0.000917779
0.000949729
0.000915421
0.000947353
0.000917779
0.000917779
0.000915421
0.000910296
0.000875989
0.000907921
0.00090792
0.000878346
0.000878346
0.000910296
0.000875989
0.00090792
0.000907921
0.000878346
0.000878346
0.000907921
0.000878346
0.000878346
0.000910296
0.000875989
0.00090792
0.000878346
0.000878346
0.000875989
0.000870863
0.000836556
0.000868488
0.000868488
0.000838913
0.000838913
0.000870863
0.000836556
0.000868488
0.000868488
0.000838913
0.000838913
0.000868488
0.000838913
0.000838914
0.000870863
0.000836556
0.000868487
0.000838913
0.000838913
0.000836556
0.00083143
0.000797123
0.000829055
0.000829055
0.000799481
0.000799481
0.000831431
0.000797123
0.000829055
0.000829055
0.000799481
0.00079948
0.000829055
0.000799481
0.000799481
0.00083143
0.000797123
0.000829055
0.000799481
0.00079948
0.000797123
0.000791998
0.000757691
0.000789623
0.000789622
0.000760048
0.000760048
0.000791998
0.000757691
0.000789622
0.000789622
0.000760048
0.000760048
0.000789623
0.000760048
0.000760048
0.000791998
0.000757691
0.000789622
0.000760048
0.000760048
0.000757691
0.000752565
0.000718258
0.00075019
0.00075019
0.000720615
0.000720615
0.000752565
0.000718258
0.00075019
0.00075019
0.000720615
0.000720615
0.00075019
0.000720615
0.000720616
0.000752565
0.000718258
0.00075019
0.000720616
0.000720615
0.000718258
0.000713133
0.000678825
0.000710757
0.000710757
0.000681183
0.000681182
0.000713132
0.000678825
0.000710757
0.000710757
0.000681183
0.000681183
0.000710758
0.000681182
0.000681183
0.000713133
0.000678825
0.000710757
0.000681183
0.000681182
0.000678825
0.0006737
0.000639393
0.000671324
0.000671324
0.00064175
0.00064175
0.000673699
0.000639392
0.000671324
0.000671325
0.00064175
0.00064175
0.000671325
0.00064175
0.00064175
0.0006737
0.000639393
0.000671324
0.00064175
0.00064175
0.000639392
0.000634267
0.00059996
0.000631892
0.000631891
0.000602318
0.000602317
0.000634267
0.00059996
0.000631892
0.000631892
0.000602318
0.000602318
0.000631892
0.000602317
0.000602318
0.000634268
0.00059996
0.000631891
0.000602318
0.000602317
0.00059996
0.000594835
0.000560527
0.000592459
0.000592459
0.000562885
0.000562884
0.000594834
0.000560527
0.000592459
0.00059246
0.000562885
0.000562885
0.00059246
0.000562885
0.000562885
0.000594835
0.000560528
0.000592459
0.000562885
0.000562885
0.000560527
0.000555402
0.000521095
0.000553027
0.000553026
0.000523452
0.000523452
0.000555402
0.000521094
0.000553027
0.000553027
0.000523452
0.000523452
0.000553027
0.000523452
0.000523452
0.000555402
0.000521095
0.000553026
0.000523452
0.000523452
0.000521094
0.000515969
0.000481663
0.000513594
0.000513593
0.00048402
0.000515969
0.000513594
0.000513594
0.00048402
0.00048402
0.000513594
0.000484021
0.000515969
0.000481663
0.000513594
0.00048402
0.00048402
0.000481663
0.000476539
0.000474163
0.000474163
0.000476538
0.00115439
0.00115439
0.00115439
0.00115439
0.00113223
0.00114698
0.00114698
0.00113222
0.00114698
0.00113222
0.00113223
0.00114698
0.00114698
0.00113222
0.00114454
0.00114454
0.00114453
0.00111496
0.00111496
0.00111496
0.00111496
0.0011323
0.00114694
0.00114452
0.00113466
0.0011469
0.00113226
0.00113466
0.00114698
0.00113222
0.0011323
0.00114452
0.00114694
0.00113466
0.0011469
0.00113466
0.00113226
0.00114698
0.00114698
0.0011323
0.00113222
0.00113222
0.00109279
0.00110754
0.00110754
0.00109279
0.00110755
0.00109278
0.00109279
0.00110755
0.00110754
0.00109279
0.0011051
0.0011051
0.0011051
0.00107553
0.00107553
0.00107553
0.00107553
0.00109287
0.00110751
0.00110509
0.00109522
0.00110747
0.00109282
0.00109523
0.00110755
0.00109278
0.00109287
0.00110509
0.00110751
0.00109522
0.00110747
0.00109523
0.00109282
0.00110754
0.00110754
0.00109287
0.00109279
0.00109279
0.00105336
0.00106811
0.00106811
0.00105335
0.00106812
0.00105335
0.00105336
0.00106811
0.00106811
0.00105335
0.00106567
0.00106567
0.00106567
0.0010361
0.0010361
0.0010361
0.0010361
0.00105343
0.00106807
0.00106566
0.00105579
0.00106804
0.00105339
0.0010558
0.00106812
0.00105335
0.00105343
0.00106566
0.00106807
0.00105579
0.00106804
0.0010558
0.00105339
0.00106811
0.00106811
0.00105343
0.00105336
0.00105336
0.00101393
0.00102868
0.00102867
0.00101392
0.00102868
0.00101392
0.00101393
0.00102868
0.00102868
0.00101392
0.00102624
0.00102624
0.00102624
0.000996664
0.000996664
0.000996665
0.000996663
0.001014
0.00102864
0.00102622
0.00101636
0.0010286
0.00101396
0.00101637
0.00102868
0.00101392
0.001014
0.00102622
0.00102864
0.00101636
0.0010286
0.00101636
0.00101396
0.00102868
0.00102868
0.001014
0.00101392
0.00101392
0.000974495
0.000989247
0.000989242
0.000974489
0.00098925
0.000974486
0.000974496
0.000989247
0.000989243
0.000974488
0.000986806
0.000986807
0.000986805
0.000957232
0.000957232
0.000957233
0.000957231
0.000974568
0.000989209
0.000986791
0.000976927
0.000989172
0.000974526
0.000976933
0.000989251
0.000974486
0.000974568
0.000986791
0.00098921
0.000976927
0.000989173
0.000976933
0.000974526
0.000989245
0.000989245
0.00097457
0.000974491
0.000974491
0.000935063
0.000949815
0.00094981
0.000935057
0.000949818
0.000935054
0.000935064
0.000949815
0.000949811
0.000935056
0.000947374
0.000947375
0.000947373
0.0009178
0.0009178
0.000917801
0.000917799
0.000935136
0.000949777
0.000947359
0.000937495
0.00094974
0.000935094
0.000937501
0.000949819
0.000935054
0.000935136
0.00094736
0.000949778
0.000937495
0.000949741
0.000937502
0.000935094
0.000949813
0.000949814
0.000935138
0.000935059
0.000935059
0.000895631
0.000910383
0.000910378
0.000895624
0.000910386
0.000895622
0.000895631
0.000910383
0.000910378
0.000895624
0.000907942
0.000907942
0.000907941
0.000878367
0.000878367
0.000878368
0.000878366
0.000895703
0.000910345
0.000907927
0.000898062
0.000910307
0.000895661
0.000898069
0.000910387
0.000895621
0.000895703
0.000907927
0.000910346
0.000898063
0.000910308
0.000898069
0.000895661
0.000910381
0.000910381
0.000895705
0.000895627
0.000895627
0.000856198
0.00087095
0.000870945
0.000856192
0.000870953
0.000856189
0.000856198
0.00087095
0.000870945
0.000856191
0.000868509
0.00086851
0.000868508
0.000838935
0.000838934
0.000838935
0.000838933
0.000856271
0.000870912
0.000868494
0.00085863
0.000870875
0.000856228
0.000858636
0.000870954
0.000856189
0.00085627
0.000868494
0.000870913
0.00085863
0.000870874
0.000858636
0.000856228
0.000870948
0.000870948
0.000856272
0.000856194
0.000856194
0.000816766
0.000831517
0.000831513
0.000816759
0.000831521
0.000816757
0.000816765
0.000831518
0.000831513
0.000816758
0.000829076
0.000829077
0.000829075
0.000799502
0.000799502
0.000799502
0.000799501
0.000816838
0.00083148
0.000829062
0.000819197
0.000831442
0.000816796
0.000819203
0.000831521
0.000816756
0.000816838
0.000829061
0.00083148
0.000819197
0.000831441
0.000819203
0.000816795
0.000831515
0.000831515
0.000816839
0.000816761
0.000816761
0.000777333
0.000792085
0.00079208
0.000777326
0.000792088
0.000777324
0.000777333
0.000792085
0.00079208
0.000777326
0.000789644
0.000789644
0.000789642
0.000760069
0.000760069
0.00076007
0.000760068
0.000777405
0.000792047
0.000789629
0.000779764
0.00079201
0.000777363
0.000779771
0.000792088
0.000777323
0.000777405
0.000789629
0.000792047
0.000779764
0.000792009
0.000779771
0.000777363
0.000792083
0.000792083
0.000777407
0.000777329
0.000777329
0.0007379
0.000752652
0.000752647
0.000737894
0.000752655
0.000737891
0.0007379
0.000752652
0.000752647
0.000737893
0.000750211
0.000750212
0.00075021
0.000720637
0.000720636
0.000720637
0.000720635
0.000737973
0.000752614
0.000750196
0.000740332
0.000752577
0.000737931
0.000740338
0.000752656
0.000737891
0.000737973
0.000750196
0.000752615
0.000740332
0.000752577
0.000740338
0.00073793
0.00075265
0.00075265
0.000737974
0.000737896
0.000737896
0.000698467
0.000713219
0.000713214
0.000698461
0.000713223
0.000698458
0.000698468
0.00071322
0.000713215
0.000698461
0.000710778
0.000710779
0.000710777
0.000681204
0.000681204
0.000681205
0.000681203
0.00069854
0.000713182
0.000710763
0.000700899
0.000713144
0.000698497
0.000700905
0.000713223
0.000698458
0.00069854
0.000710764
0.000713182
0.000700899
0.000713144
0.000700905
0.000698498
0.000713217
0.000713218
0.000698541
0.000698463
0.000698463
0.000659035
0.000673787
0.000673782
0.000659028
0.00067379
0.000659025
0.000659035
0.000673787
0.000673782
0.000659028
0.000671345
0.000671346
0.000671345
0.000641771
0.000641771
0.000641772
0.00064177
0.000659107
0.000673749
0.000671331
0.000661466
0.000673711
0.000659065
0.000661472
0.000673791
0.000659026
0.000659107
0.000671331
0.00067375
0.000661467
0.000673711
0.000661473
0.000659065
0.000673784
0.000673785
0.000659109
0.00065903
0.00065903
0.000619602
0.000634354
0.000634349
0.000619596
0.000634357
0.000619593
0.000619603
0.000634355
0.00063435
0.000619596
0.000631913
0.000631914
0.000631912
0.000602339
0.000602338
0.000602339
0.000602338
0.000619674
0.000634316
0.000631898
0.000622033
0.000634278
0.000619632
0.00062204
0.000634358
0.000619593
0.000619675
0.000631898
0.000634317
0.000622034
0.000634279
0.00062204
0.000619633
0.000634352
0.000634352
0.000619676
0.000619598
0.000619598
0.00058017
0.000594922
0.000594917
0.000580163
0.000594924
0.00058016
0.00058017
0.000594922
0.000594917
0.000580163
0.00059248
0.000592481
0.00059248
0.000562906
0.000562906
0.000562907
0.000562905
0.000580242
0.000594883
0.000592465
0.000582601
0.000594846
0.0005802
0.000582607
0.000594926
0.000580161
0.000580243
0.000592466
0.000594885
0.000582602
0.000594846
0.000582608
0.0005802
0.000594919
0.00059492
0.000580244
0.000580165
0.000580165
0.000540737
0.000555489
0.000555484
0.00054073
0.000555492
0.000540728
0.000540737
0.000555489
0.000555484
0.00054073
0.000553048
0.000553049
0.000553047
0.000523474
0.000523473
0.000523474
0.000523472
0.000540809
0.000555451
0.000553033
0.000543168
0.000555413
0.000540767
0.000543175
0.000555493
0.000540728
0.00054081
0.000553033
0.000555452
0.000543169
0.000555414
0.000543175
0.000540767
0.000555487
0.000555487
0.000540811
0.000540733
0.000540733
0.000501304
0.000516056
0.000516051
0.000501297
0.000516059
0.000501294
0.000501304
0.000516056
0.000516052
0.000501297
0.000513615
0.000513616
0.000513614
0.000484042
0.000484042
0.000484042
0.000484041
0.000501376
0.000516018
0.0005136
0.000503736
0.00051598
0.000501334
0.000503742
0.00051606
0.000501295
0.000501377
0.0005136
0.000516019
0.000503736
0.000515981
0.000503742
0.000501334
0.000516054
0.000516054
0.000501378
0.0005013
0.000501299
0.000476623
0.000476618
0.000474185
0.000476626
0.000476586
0.00115192
0.00115192
0.00115194
0.00115194
0.00115194
0.00115194
0.00115194
0.00115194
0.00115197
0.00115438
0.00115201
0.00115197
0.00115438
0.00115201
0.00115192
0.00115194
0.00115194
0.00115193
0.00115194
0.00115194
0.00115197
0.00115438
0.00115201
0.00116668
0.00115194
0.00116669
0.00115194
0.00116661
0.00116423
0.00115438
0.00115197
0.00116423
0.00116665
0.00115201
0.00116661
0.00115197
0.00115438
0.00116423
0.00115201
0.00116668
0.00115194
0.00115194
0.00116661
0.00116423
0.00115438
0.00115197
0.00116423
0.00116665
0.00115201
0.00116668
0.00115194
0.00116669
0.00115194
0.00115193
0.0011667
0.0011666
0.00115194
0.00115194
0.00116668
0.00116668
0.00115193
0.0011667
0.00116661
0.00116423
0.00115438
0.00115197
0.00116423
0.00116665
0.00115201
0.00116661
0.00116423
0.00115438
0.00115197
0.00116423
0.00116665
0.00115201
0.00116668
0.00115194
0.00116669
0.00115194
0.00116668
0.00115194
0.00116669
0.00115194
0.0011666
0.00115194
0.00115194
0.00116668
0.00116668
0.00115193
0.0011667
0.00115193
0.0011667
0.00114698
0.00113222
0.00114698
0.00113222
0.00114698
0.00114698
0.0011323
0.00113222
0.00113222
0.0011125
0.00112726
0.0011125
0.00112726
0.00112717
0.00111251
0.0011125
0.00112726
0.00112726
0.00113223
0.00114698
0.00114698
0.00113222
0.0011323
0.00114694
0.00114452
0.00113466
0.0011469
0.00113226
0.00113466
0.0011323
0.00114694
0.00114452
0.00113466
0.0011469
0.00113226
0.00113466
0.00112726
0.0011125
0.00112726
0.00111251
0.00112726
0.0011125
0.00112726
0.00111251
0.00112719
0.0011248
0.00111254
0.00111495
0.00112722
0.00112481
0.00111258
0.00112719
0.0011248
0.00111254
0.00111495
0.00112722
0.00112481
0.00111258
0.00114698
0.00114698
0.0011323
0.00113222
0.00113222
0.00114698
0.00113222
0.0011125
0.00112726
0.00112717
0.0011125
0.00111251
0.00112726
0.00112726
0.0011125
0.00112726
0.0011323
0.00114694
0.00114452
0.00113466
0.0011469
0.00113226
0.00113466
0.00113223
0.00114698
0.00114697
0.00113222
0.0011323
0.00114452
0.00114694
0.00113466
0.0011469
0.00113466
0.00113226
0.00112726
0.0011125
0.00112726
0.00111251
0.00112719
0.0011248
0.00111254
0.00111495
0.00112722
0.00112481
0.00111258
0.00112726
0.0011125
0.00112726
0.00111251
0.00112719
0.0011248
0.00111495
0.00111254
0.0011248
0.00112722
0.00111258
0.00113223
0.00114698
0.00114697
0.00113222
0.0011323
0.00114452
0.00114694
0.00113466
0.0011469
0.00113466
0.00113226
0.00113223
0.00114698
0.00114697
0.00113222
0.00112719
0.0011248
0.00111254
0.00111495
0.00112722
0.00112481
0.00111258
0.00112726
0.0011125
0.00112726
0.00111251
0.00112719
0.0011248
0.00111495
0.00111254
0.00112481
0.00112722
0.00111258
0.00112726
0.0011125
0.00112726
0.00111251
0.00114698
0.00114698
0.0011323
0.00113222
0.00113222
0.00114698
0.00113222
0.0011125
0.00112726
0.00112717
0.00111251
0.0011125
0.00112726
0.00112726
0.0011125
0.00112726
0.0011323
0.00114452
0.00114694
0.00113466
0.0011469
0.00113466
0.00113226
0.00113223
0.00114698
0.00114697
0.00113222
0.00113223
0.00114698
0.00114697
0.00113222
0.00112719
0.0011248
0.00111495
0.00111254
0.0011248
0.00112722
0.00111258
0.00112719
0.0011248
0.00111495
0.00111254
0.00112481
0.00112722
0.00111258
0.00112726
0.0011125
0.00112726
0.00111251
0.00112726
0.0011125
0.00112726
0.00111251
0.00114698
0.00113222
0.00114698
0.00113222
0.00112717
0.0011125
0.0011125
0.00112726
0.00112726
0.0011125
0.00112726
0.0011125
0.00112726
0.00110755
0.00109278
0.00110755
0.00109278
0.00110754
0.00110754
0.00109287
0.00109279
0.00109279
0.00107307
0.00108783
0.00107307
0.00108783
0.00108774
0.00107307
0.00107307
0.00108783
0.00108783
0.00109279
0.00110754
0.00110754
0.00109279
0.00109287
0.00110751
0.00110509
0.00109522
0.00110747
0.00109282
0.00109523
0.00109287
0.00110751
0.00110509
0.00109522
0.00110747
0.00109282
0.00109523
0.00108782
0.00107307
0.00108783
0.00107308
0.00108782
0.00107307
0.00108783
0.00107308
0.00108775
0.00108537
0.00107311
0.00107551
0.00108779
0.00108537
0.00107315
0.00108775
0.00108537
0.00107311
0.00107551
0.00108779
0.00108537
0.00107315
0.00110754
0.00110754
0.00109287
0.00109279
0.00109279
0.00110755
0.00109278
0.00107307
0.00108783
0.00108774
0.00107307
0.00107307
0.00108783
0.00108783
0.00107307
0.00108783
0.00109287
0.00110751
0.00110509
0.00109522
0.00110747
0.00109282
0.00109523
0.00109279
0.00110754
0.00110754
0.00109279
0.00109287
0.00110509
0.00110751
0.00109522
0.00110747
0.00109523
0.00109282
0.00108782
0.00107307
0.00108783
0.00107308
0.00108775
0.00108537
0.00107311
0.00107551
0.00108779
0.00108537
0.00107315
0.00108782
0.00107307
0.00108783
0.00107308
0.00108775
0.00108537
0.00107551
0.00107311
0.00108537
0.00108779
0.00107315
0.00109279
0.00110754
0.00110754
0.00109279
0.00109287
0.00110509
0.00110751
0.00109522
0.00110747
0.00109523
0.00109282
0.00109279
0.00110754
0.00110754
0.00109279
0.00108775
0.00108537
0.00107311
0.00107551
0.00108779
0.00108537
0.00107315
0.00108782
0.00107307
0.00108783
0.00107308
0.00108775
0.00108537
0.00107551
0.00107311
0.00108537
0.00108779
0.00107315
0.00108782
0.00107307
0.00108783
0.00107308
0.00110754
0.00110754
0.00109287
0.00109279
0.00109279
0.00110755
0.00109278
0.00107307
0.00108783
0.00108774
0.00107307
0.00107307
0.00108783
0.00108783
0.00107307
0.00108783
0.00109287
0.00110509
0.00110751
0.00109522
0.00110747
0.00109523
0.00109282
0.00109279
0.00110754
0.00110754
0.00109279
0.00109279
0.00110754
0.00110754
0.00109279
0.00108775
0.00108537
0.00107551
0.00107311
0.00108537
0.00108779
0.00107315
0.00108775
0.00108537
0.00107551
0.00107311
0.00108537
0.00108779
0.00107315
0.00108782
0.00107307
0.00108783
0.00107308
0.00108782
0.00107307
0.00108783
0.00107308
0.00110755
0.00109278
0.00110755
0.00109278
0.00108774
0.00107307
0.00107307
0.00108783
0.00108783
0.00107307
0.00108783
0.00107307
0.00108783
0.00106812
0.00105335
0.00106812
0.00105335
0.00106811
0.00106811
0.00105343
0.00105336
0.00105336
0.00103364
0.0010484
0.00103364
0.0010484
0.00104831
0.00103364
0.00103364
0.00104839
0.00104839
0.00105336
0.00106811
0.00106811
0.00105335
0.00105343
0.00106807
0.00106566
0.00105579
0.00106804
0.00105339
0.0010558
0.00105343
0.00106807
0.00106566
0.00105579
0.00106804
0.00105339
0.0010558
0.00104839
0.00103364
0.0010484
0.00103364
0.00104839
0.00103364
0.0010484
0.00103364
0.00104832
0.00104593
0.00103367
0.00103608
0.00104836
0.00104594
0.00103372
0.00104832
0.00104593
0.00103367
0.00103608
0.00104836
0.00104594
0.00103372
0.00106811
0.00106811
0.00105343
0.00105336
0.00105336
0.00106812
0.00105335
0.00103364
0.0010484
0.00104831
0.00103364
0.00103364
0.00104839
0.00104839
0.00103363
0.0010484
0.00105343
0.00106807
0.00106566
0.00105579
0.00106804
0.00105339
0.0010558
0.00105336
0.00106811
0.00106811
0.00105335
0.00105343
0.00106566
0.00106807
0.00105579
0.00106804
0.0010558
0.00105339
0.00104839
0.00103364
0.0010484
0.00103364
0.00104832
0.00104593
0.00103367
0.00103608
0.00104836
0.00104594
0.00103372
0.00104839
0.00103364
0.0010484
0.00103364
0.00104832
0.00104593
0.00103608
0.00103367
0.00104594
0.00104836
0.00103372
0.00105336
0.00106811
0.00106811
0.00105335
0.00105343
0.00106566
0.00106807
0.00105579
0.00106804
0.0010558
0.00105339
0.00105336
0.00106811
0.00106811
0.00105335
0.00104832
0.00104593
0.00103367
0.00103608
0.00104836
0.00104594
0.00103372
0.00104839
0.00103364
0.0010484
0.00103364
0.00104832
0.00104593
0.00103608
0.00103367
0.00104594
0.00104836
0.00103372
0.00104839
0.00103364
0.0010484
0.00103364
0.00106811
0.00106811
0.00105343
0.00105336
0.00105336
0.00106812
0.00105335
0.00103363
0.0010484
0.00104831
0.00103364
0.00103364
0.00104839
0.00104839
0.00103364
0.0010484
0.00105343
0.00106566
0.00106807
0.00105579
0.00106804
0.0010558
0.00105339
0.00105336
0.00106811
0.00106811
0.00105335
0.00105336
0.00106811
0.00106811
0.00105335
0.00104832
0.00104593
0.00103608
0.00103367
0.00104594
0.00104836
0.00103372
0.00104832
0.00104593
0.00103608
0.00103367
0.00104594
0.00104836
0.00103372
0.00104839
0.00103364
0.0010484
0.00103364
0.00104839
0.00103364
0.0010484
0.00103364
0.00106812
0.00105335
0.00106812
0.00105335
0.00104831
0.00103364
0.00103364
0.00104839
0.00104839
0.00103364
0.0010484
0.00103363
0.0010484
0.00102868
0.00101392
0.00102868
0.00101392
0.00102868
0.00102868
0.001014
0.00101392
0.00101392
0.000994203
0.00100897
0.000994203
0.00100897
0.00100888
0.000994207
0.000994207
0.00100896
0.00100896
0.00101393
0.00102868
0.00102868
0.00101392
0.001014
0.00102864
0.00102622
0.00101636
0.0010286
0.00101396
0.00101637
0.001014
0.00102864
0.00102622
0.00101636
0.0010286
0.00101396
0.00101637
0.00100896
0.000994205
0.00100896
0.000994212
0.00100896
0.000994205
0.00100896
0.000994212
0.00100889
0.0010065
0.000994242
0.000996649
0.00100893
0.00100651
0.000994284
0.00100889
0.0010065
0.000994242
0.000996649
0.00100893
0.00100651
0.000994284
0.00102868
0.00102868
0.001014
0.00101392
0.00101392
0.00102868
0.00101392
0.000994202
0.00100897
0.00100888
0.000994207
0.000994207
0.00100896
0.00100896
0.000994202
0.00100897
0.001014
0.00102864
0.00102622
0.00101636
0.0010286
0.00101396
0.00101637
0.00101393
0.00102868
0.00102867
0.00101392
0.001014
0.00102622
0.00102864
0.00101636
0.0010286
0.00101637
0.00101396
0.00100896
0.000994204
0.00100896
0.000994212
0.00100889
0.0010065
0.000994242
0.000996649
0.00100893
0.00100651
0.000994284
0.00100896
0.000994205
0.00100896
0.000994212
0.00100889
0.0010065
0.000996649
0.000994242
0.00100651
0.00100893
0.000994284
0.00101393
0.00102868
0.00102867
0.00101392
0.001014
0.00102622
0.00102864
0.00101636
0.0010286
0.00101637
0.00101396
0.00101393
0.00102868
0.00102867
0.00101392
0.00100889
0.0010065
0.000994242
0.000996649
0.00100893
0.00100651
0.000994284
0.00100896
0.000994204
0.00100896
0.000994212
0.00100889
0.0010065
0.000996649
0.000994242
0.00100651
0.00100893
0.000994284
0.00100896
0.000994205
0.00100896
0.000994212
0.00102868
0.00102868
0.001014
0.00101392
0.00101392
0.00102868
0.00101392
0.000994202
0.00100897
0.00100888
0.000994208
0.000994208
0.00100896
0.00100896
0.000994203
0.00100897
0.001014
0.00102622
0.00102864
0.00101636
0.0010286
0.00101636
0.00101396
0.00101392
0.00102868
0.00102867
0.00101392
0.00101393
0.00102868
0.00102867
0.00101392
0.00100889
0.0010065
0.000996648
0.000994241
0.00100651
0.00100892
0.000994283
0.00100889
0.0010065
0.000996649
0.000994241
0.00100651
0.00100892
0.000994283
0.00100895
0.000994205
0.00100896
0.000994213
0.00100896
0.000994204
0.00100896
0.000994211
0.00102868
0.00101392
0.00102868
0.00101392
0.00100888
0.000994207
0.000994207
0.00100896
0.00100896
0.000994203
0.00100897
0.000994202
0.00100897
0.00098925
0.000974487
0.00098925
0.000974487
0.000989245
0.000989245
0.000974569
0.000974491
0.000974491
0.000954771
0.000969534
0.000954771
0.000969534
0.000969444
0.000954775
0.000954775
0.000969529
0.000969529
0.000974495
0.000989247
0.000989242
0.000974489
0.000974568
0.00098921
0.000986791
0.000976927
0.000989172
0.000974526
0.000976933
0.000974568
0.000989209
0.000986791
0.000976927
0.000989172
0.000974526
0.000976933
0.000969526
0.000954773
0.000969531
0.000954779
0.000969526
0.000954773
0.000969531
0.000954779
0.000969456
0.000967069
0.000954809
0.000957217
0.000969494
0.000967075
0.000954852
0.000969456
0.000967069
0.000954809
0.000957217
0.000969493
0.000967075
0.000954852
0.000989245
0.000989245
0.00097457
0.000974491
0.000974491
0.000989251
0.000974486
0.00095477
0.000969534
0.000969444
0.000954775
0.000954775
0.00096953
0.000969529
0.00095477
0.000969535
0.000974568
0.000989209
0.000986791
0.000976927
0.000989171
0.000974526
0.000976933
0.000974496
0.000989247
0.000989242
0.000974489
0.000974568
0.000986791
0.000989209
0.000976927
0.000989172
0.000976933
0.000974526
0.000969527
0.000954772
0.000969531
0.00095478
0.000969455
0.000967069
0.00095481
0.000957217
0.000969493
0.000967075
0.000954852
0.000969526
0.000954773
0.000969532
0.00095478
0.000969456
0.000967069
0.000957217
0.00095481
0.000967075
0.000969493
0.000954852
0.000974495
0.000989247
0.000989242
0.000974488
0.000974568
0.000986791
0.000989209
0.000976927
0.000989172
0.000976933
0.000974526
0.000974495
0.000989247
0.000989242
0.000974489
0.000969456
0.000967069
0.00095481
0.000957217
0.000969493
0.000967075
0.000954852
0.000969526
0.000954772
0.000969531
0.000954779
0.000969456
0.00096707
0.000957218
0.00095481
0.000967076
0.000969494
0.000954852
0.000969526
0.000954773
0.000969531
0.000954779
0.000989245
0.000989245
0.00097457
0.000974492
0.000974492
0.000989251
0.000974488
0.00095477
0.000969535
0.000969445
0.000954776
0.000954776
0.000969529
0.00096953
0.000954772
0.000969535
0.000974567
0.000986791
0.000989209
0.000976927
0.000989172
0.000976933
0.000974526
0.000974497
0.000989248
0.000989245
0.00097449
0.000974496
0.000989246
0.000989242
0.000974489
0.000969457
0.000967069
0.000957218
0.00095481
0.000967076
0.000969494
0.000954853
0.000969457
0.000967069
0.000957218
0.000954811
0.000967075
0.000969494
0.000954854
0.000969529
0.000954774
0.000969532
0.000954781
0.00096953
0.000954774
0.000969532
0.000954781
0.00098925
0.000974487
0.00098925
0.000974487
0.000969445
0.000954775
0.000954776
0.000969529
0.00096953
0.000954771
0.000969534
0.000954772
0.000969535
0.000949818
0.000935055
0.000949818
0.000935055
0.000949813
0.000949813
0.000935137
0.000935059
0.000935059
0.000915339
0.000930102
0.000915338
0.000930102
0.000930012
0.000915343
0.000915343
0.000930097
0.000930097
0.000935063
0.000949815
0.00094981
0.000935057
0.000935136
0.000949777
0.000947359
0.000937495
0.00094974
0.000935093
0.000937501
0.000935136
0.000949777
0.000947359
0.000937495
0.00094974
0.000935093
0.000937501
0.000930094
0.00091534
0.000930099
0.000915347
0.000930094
0.00091534
0.000930099
0.000915347
0.000930024
0.000927637
0.000915377
0.000917785
0.000930062
0.000927643
0.00091542
0.000930024
0.000927636
0.000915377
0.000917785
0.000930061
0.000927643
0.00091542
0.000949813
0.000949813
0.000935137
0.000935059
0.000935059
0.000949819
0.000935054
0.000915338
0.000930102
0.000930012
0.000915343
0.000915343
0.000930097
0.000930097
0.000915338
0.000930102
0.000935136
0.000949777
0.000947359
0.000937495
0.000949739
0.000935094
0.000937501
0.000935063
0.000949816
0.00094981
0.000935057
0.000935136
0.000947359
0.000949777
0.000937495
0.00094974
0.000937501
0.000935094
0.000930095
0.00091534
0.000930099
0.000915347
0.000930023
0.000927637
0.000915378
0.000917785
0.000930061
0.000927643
0.00091542
0.000930094
0.00091534
0.0009301
0.000915347
0.000930024
0.000927637
0.000917785
0.000915378
0.000927643
0.000930061
0.00091542
0.000935063
0.000949815
0.00094981
0.000935056
0.000935136
0.000947359
0.000949777
0.000937495
0.00094974
0.000937501
0.000935094
0.000935063
0.000949815
0.00094981
0.000935057
0.000930024
0.000927637
0.000915377
0.000917785
0.000930061
0.000927643
0.00091542
0.000930094
0.00091534
0.000930099
0.000915347
0.000930024
0.000927637
0.000917785
0.000915377
0.000927643
0.000930061
0.00091542
0.000930094
0.00091534
0.000930099
0.000915347
0.000949813
0.000949814
0.000935138
0.00093506
0.00093506
0.000949819
0.000935055
0.000915338
0.000930103
0.000930012
0.000915344
0.000915343
0.000930097
0.000930097
0.000915339
0.000930102
0.000935137
0.00094736
0.000949778
0.000937495
0.000949741
0.000937502
0.000935094
0.000935064
0.000949816
0.000949812
0.000935057
0.000935064
0.000949816
0.000949812
0.000935057
0.000930024
0.000927637
0.000917785
0.000915377
0.000927643
0.000930062
0.00091542
0.000930024
0.000927637
0.000917785
0.000915377
0.000927644
0.000930062
0.00091542
0.000930095
0.000915341
0.000930099
0.000915348
0.000930095
0.00091534
0.000930099
0.000915347
0.000949818
0.000935055
0.000949819
0.000935055
0.000930013
0.000915343
0.000915343
0.000930097
0.000930098
0.000915339
0.000930102
0.000915339
0.000930102
0.000910386
0.000895622
0.000910386
0.000895622
0.000910381
0.000910381
0.000895705
0.000895627
0.000895627
0.000875906
0.00089067
0.000875906
0.00089067
0.00089058
0.000875911
0.00087591
0.000890665
0.000890665
0.000895631
0.000910383
0.000910378
0.000895624
0.000895704
0.000910345
0.000907927
0.000898062
0.000910307
0.000895661
0.000898069
0.000895704
0.000910345
0.000907927
0.000898062
0.000910307
0.000895661
0.000898069
0.000890662
0.000875908
0.000890667
0.000875915
0.000890662
0.000875908
0.000890667
0.000875915
0.000890591
0.000888204
0.000875945
0.000878352
0.000890629
0.000888211
0.000875987
0.000890591
0.000888204
0.000875945
0.000878352
0.000890629