/*--------------------------------*- C++ -*----------------------------------*\
| =========                 |                                                 |
| \\      /  F ield         | OpenFOAM: The Open Source CFD Toolbox           |
|  \\    /   O peration     | Version:  2206                                  |
|   \\  /    A nd           | Website:  www.openfoam.com                      |
|    \\/     M anipulation  |                                                 |
\*---------------------------------------------------------------------------*/
FoamFile
{
    version     2.0;
    format      ascii;
    arch        "LSB;label=32;scalar=64";
    class       volVectorField;
    location    "1";
    object      U;
}
// * * * * * * * * * * * * * * * * * * * * * * * * * * * * * * * * * * * * * //

dimensions      [0 1 -1 0 0 0 0];

internalField   nonuniform List<vector> 
28549
(
(-8.00541e-05 -0.000475212 0.000219359)
(-0.000475452 -8.11995e-05 0.000219478)
(-0.00477285 -0.00477017 4.12673e-05)
(-0.000486735 -0.000279125 0.000215539)
(-0.000276896 -0.000486941 0.000215388)
(-0.00195497 3.76251e-05 0.000208893)
(-0.00192265 8.68601e-05 0.00022064)
(-0.00114544 -5.18634e-05 0.000195674)
(0.000243122 0.000263843 0.000226662)
(-0.00059263 -0.00112743 0.000209519)
(0.000215197 -7.47823e-05 0.000252755)
(-0.00195522 -3.81744e-05 0.000208904)
(-0.00192315 -8.68436e-05 0.000220576)
(-0.00114574 5.0907e-05 0.000195601)
(0.000243456 -0.000264056 0.000228221)
(0.000214237 7.46011e-05 0.000253121)
(-0.000593043 0.00112733 0.000209547)
(-0.000244697 -0.000265304 0.000227355)
(0.000592522 0.00112627 0.000210442)
(0.00192258 -8.74972e-05 0.000219032)
(-0.00047564 8.13423e-05 0.000219517)
(-0.00477192 0.00477223 4.19323e-05)
(-0.000276769 0.000487067 0.000215414)
(-0.00048717 0.000279158 0.000215623)
(-7.95651e-05 0.000475601 0.000219394)
(-5.06104e-05 0.00114592 0.00019652)
(0.000264175 -0.000244597 0.000224779)
(-7.40583e-05 -0.000215845 0.000252614)
(-0.0011257 0.000593209 0.000209466)
(5.20217e-05 0.00114586 0.000196663)
(-0.000265129 -0.000245106 0.000224489)
(7.3767e-05 -0.000216419 0.000252984)
(0.00112755 0.000593787 0.000210203)
(3.8429e-05 0.00195615 0.000209714)
(8.68488e-05 0.00192226 0.000220417)
(-3.73336e-05 0.00195621 0.000209681)
(-8.65333e-05 0.0019228 0.00021955)
(0.00477049 0.00477286 4.26835e-05)
(0.000279082 0.000487064 0.00021579)
(0.000487584 0.000277802 0.000215883)
(0.000475763 7.93636e-05 0.000217591)
(8.06053e-05 0.000475895 0.000218297)
(-0.000856985 0.00030954 0.000219534)
(0.00030893 -0.000857305 0.000219942)
(-0.000488828 -0.000489975 0.000216614)
(4.43988e-06 -0.00041024 0.000220446)
(0.000107309 -0.00195174 0.000204259)
(-0.000181854 -0.00262872 0.00020921)
(-0.00041097 5.09819e-06 0.000220722)
(-0.00194989 0.000106958 0.00020406)
(-0.00262611 -0.000186507 0.000209159)
(0.000180563 -0.000147829 0.000224523)
(-0.00187726 1.86243e-05 0.000209774)
(-0.000238339 5.11456e-05 0.000222237)
(0.0019953 -6.21047e-05 0.000209667)
(-0.000249645 0.00010782 0.000223299)
(0.00192092 -9.19447e-05 0.000210599)
(0.000159546 -5.84485e-05 0.000223312)
(-4.60451e-05 -9.02696e-05 0.000221233)
(-0.00147652 6.96162e-05 0.000215552)
(0.00199621 -0.000265853 0.000221329)
(2.68933e-05 4.02395e-05 0.000220834)
(0.00155015 -0.000155984 0.000216192)
(0.000180441 0.000148247 0.000224277)
(-0.000238131 -5.15015e-05 0.00022215)
(-0.0018776 -1.9131e-05 0.000210079)
(0.00199527 6.17118e-05 0.000209981)
(-0.000249402 -0.000108186 0.000222873)
(0.000159388 5.87571e-05 0.000223339)
(0.00192087 9.16639e-05 0.000211065)
(-4.60418e-05 9.053e-05 0.000220937)
(-0.00147678 -6.9553e-05 0.000215836)
(0.00199616 0.000266185 0.000221682)
(2.68478e-05 -4.0587e-05 0.00022016)
(0.00155008 0.000155956 0.000216676)
(4.64093e-05 9.04173e-05 0.000220796)
(0.00147715 -6.99782e-05 0.000216019)
(-0.0019953 0.000267423 0.000221152)
(-2.69436e-05 -3.99322e-05 0.000218984)
(-0.00154946 0.000156983 0.000216622)
(0.000534652 8.83432e-05 0.000219908)
(0.000428466 -0.000429719 0.000217305)
(0.000308937 0.000857691 0.000220385)
(-0.000857077 -0.000309415 0.000220346)
(-0.00048895 0.000490458 0.000216662)
(-0.000216952 -0.000753083 0.000220888)
(0.000752001 0.000216269 0.000220952)
(0.00243133 -0.00033576 0.000209826)
(-0.000411519 -4.90359e-06 0.000220807)
(-0.00194976 -0.000107636 0.000203918)
(0.00049286 -0.000556395 0.000216269)
(0.00220385 -2.08518e-05 0.000203842)
(-0.00262687 0.000185892 0.000208787)
(0.000314206 -6.84836e-05 0.000221986)
(0.000333974 -0.0024322 0.000210379)
(4.52977e-06 0.000410489 0.00022093)
(0.000107094 0.00195277 0.000204571)
(0.000556729 -0.000494771 0.000216264)
(-0.000182368 0.00262899 0.000209499)
(6.8099e-05 -0.000313955 0.00022204)
(2.31384e-05 -0.00220492 0.000204324)
(-8.97405e-05 -0.000535185 0.000220585)
(-0.000149199 -0.000180108 0.000224759)
(1.93296e-05 0.00187802 0.000210543)
(5.06636e-05 0.000238859 0.000221128)
(-6.12836e-05 -0.00199421 0.000209889)
(0.00010703 0.000250095 0.000222227)
(-9.1385e-05 -0.00192017 0.000210804)
(-5.93947e-05 -0.000158589 0.000223704)
(-9.13814e-05 4.56101e-05 0.000221772)
(6.98427e-05 0.00147715 0.00021591)
(-0.000267742 -0.00199539 0.00022216)
(3.93216e-05 -2.7177e-05 0.000220319)
(-0.000156458 -0.00155005 0.000216629)
(0.000147265 -0.000179836 0.000224648)
(-1.81809e-05 0.00187812 0.000210692)
(-5.18511e-05 0.000239017 0.000221211)
(6.27118e-05 -0.00199422 0.000209779)
(-0.000108632 0.000250202 0.000222298)
(9.25677e-05 -0.00191985 0.000210891)
(5.79039e-05 -0.000158528 0.000223806)
(8.96297e-05 4.66123e-05 0.00022117)
(-6.95254e-05 0.00147753 0.00021596)
(0.000266128 -0.00199554 0.000222001)
(-4.09177e-05 -2.66791e-05 0.000219506)
(0.000156756 -0.00154934 0.000216721)
(-0.00042831 -0.000427693 0.000217786)
(-0.000308842 0.000856592 0.000218461)
(0.000857418 -0.000308784 0.00021861)
(0.000490901 0.000489435 0.000217561)
(0.000217723 -0.000752765 0.000220013)
(-0.000753438 0.000217916 0.000220367)
(-0.00243148 -0.000333184 0.000210788)
(0.000410533 -5.03232e-06 0.000219293)
(0.00195181 -0.000106879 0.000206076)
(-0.000493915 -0.000556245 0.000216321)
(0.00262873 0.000182318 0.00021079)
(-0.00220473 -2.21942e-05 0.000205084)
(-0.00031301 -6.83865e-05 0.000221376)
(-0.000335746 -0.00243068 0.000210709)
(-4.75411e-06 0.000411414 0.000219482)
(-0.000106809 0.00195068 0.000205677)
(-0.000555883 -0.000492207 0.000216541)
(0.000186707 0.00262703 0.000210698)
(-2.12499e-05 -0.00220422 0.000204532)
(-6.81834e-05 -0.000313388 0.000221845)
(-0.000534326 8.91582e-05 0.000219502)
(8.75947e-05 -0.000533737 0.000220281)
(-0.000312957 -0.000309302 0.00030346)
(0.000202221 -0.000117529 0.00022097)
(-0.00011766 0.000202264 0.000222199)
(0.000115276 0.000116593 0.000219138)
(0.000310582 -0.000311037 0.00030339)
(-0.000202527 -0.000117187 0.000221593)
(0.000116805 0.000203057 0.000221394)
(-0.000116264 0.000115855 0.00021929)
(-0.000311588 0.000311176 0.000302735)
(-0.000118434 -0.000203176 0.000221488)
(0.000202186 0.000117917 0.000221386)
(0.000115798 -0.000116041 0.000219003)
(0.00031072 0.000311083 0.000302156)
(0.000117222 -0.00020316 0.000221405)
(-0.000203397 0.000117504 0.000221462)
(-0.00011609 -0.000116323 0.000219111)
(-0.00413926 -0.00151591 0.000173472)
(-0.00151872 -0.00413225 0.000173063)
(-0.00202203 -0.00202456 0.000198046)
(0.00503371 0.000157481 0.000137543)
(-0.00106263 -0.000248773 0.000193832)
(-0.00518119 -2.81214e-05 0.000161271)
(0.00101345 3.55224e-05 0.000197523)
(-0.00518158 -0.000199005 0.000149836)
(0.000922177 0.00016005 0.000196373)
(0.00502473 2.21413e-05 0.000148903)
(0.00515877 0.000188034 0.000146332)
(-0.00079132 -0.000424235 0.000197092)
(-0.00479098 3.41856e-05 0.000201787)
(0.000552102 0.0010828 0.000209667)
(0.00485001 0.000253041 0.00019542)
(-0.00511145 -0.000243814 0.00015563)
(0.000665273 0.000334824 0.000199433)
(0.00503325 -0.000157905 0.000137498)
(-0.00518122 2.72528e-05 0.000161488)
(-0.00106291 0.000247989 0.000193308)
(0.00101319 -3.59639e-05 0.000197488)
(-0.00518225 0.000198725 0.000149119)
(0.0050244 -2.28266e-05 0.000149026)
(0.000921972 -0.000160599 0.000196033)
(0.00515789 -0.000188526 0.000146545)
(-0.000792089 0.00042396 0.000197026)
(-0.00479218 -3.47284e-05 0.000201795)
(0.000551962 -0.00108306 0.000209824)
(-0.00511289 0.00024358 0.000155821)
(0.000664909 -0.000335486 0.000199846)
(0.00484909 -0.000253378 0.000194921)
(-0.00515925 -0.00018922 0.000147908)
(0.000791974 0.000423985 0.00019876)
(0.00479196 -3.66851e-05 0.00020285)
(-0.000550795 -0.00108237 0.000210203)
(0.00511289 0.000244305 0.000157042)
(-0.000664544 -0.000335275 0.000200576)
(-0.0048501 -0.000252763 0.000195713)
(0.00185323 -0.00185453 0.000200072)
(0.0048891 -0.00488751 3.37255e-05)
(-0.00151798 0.00413368 0.000173643)
(-0.00413828 0.00151636 0.000173155)
(0.00162374 -0.00366852 0.000178268)
(-0.00202262 0.00202432 0.000198223)
(0.00367451 -0.00162222 0.000177906)
(0.000159427 -0.00503422 0.000138147)
(-2.80271e-05 0.00518117 0.000162278)
(-0.00024725 0.00106283 0.000194597)
(3.6834e-05 -0.00101321 0.000197363)
(-0.000198595 0.00518213 0.000150572)
(2.41251e-05 -0.00502529 0.000149123)
(0.000161701 -0.000921853 0.000196185)
(0.000190432 -0.005158 0.000146085)
(-0.000423264 0.000792437 0.000197693)
(3.68535e-05 0.00479228 0.000201766)
(0.00108293 -0.000551634 0.000209515)
(-0.00024413 0.00511253 0.000155973)
(0.000253649 -0.00484855 0.000194144)
(0.000336266 -0.000664644 0.000199529)
(-0.000156416 -0.00503402 0.000138233)
(2.7741e-05 0.00518111 0.000162799)
(0.000249052 0.0010629 0.000194863)
(-3.49019e-05 -0.00101346 0.000197294)
(0.000198809 0.00518153 0.000150748)
(-2.10928e-05 -0.00502522 0.000149236)
(-0.000159762 -0.000922296 0.000196399)
(-0.000187464 -0.00515835 0.000146358)
(0.000424557 0.000792094 0.000198136)
(-3.41001e-05 0.00479107 0.000202471)
(-0.00108204 -0.000551821 0.000209864)
(0.000243646 0.00511184 0.000156257)
(-0.000334498 -0.000665378 0.00019972)
(-0.000253234 -0.00484978 0.000194955)
(-0.00185538 -0.0018527 0.000200673)
(-0.00488663 -0.00489075 3.54523e-05)
(0.00151562 0.00413873 0.000174208)
(0.00413235 0.00151827 0.000174166)
(0.00202463 0.00202245 0.000199698)
(-0.00162286 -0.00367545 0.000179028)
(-0.00366857 -0.00162488 0.000179044)
(-0.000311288 -0.000311314 0.000304102)
(-0.000244078 0.000264526 0.000225051)
(-0.000311062 -0.000310816 0.000302093)
(-0.000244032 0.000264486 0.000224493)
(0.000263375 -0.000242808 0.000224611)
(0.00477112 0.00477412 4.20259e-05)
(-0.000243255 0.000262953 0.00022323)
(-0.00477243 -0.00476992 4.16822e-05)
(0.00488993 0.00488618 3.42127e-05)
(0.00026457 0.000243981 0.000228297)
(-0.000264247 0.000243989 0.000228416)
(0.000263974 0.00024377 0.000227653)
(-0.000264438 0.000244093 0.000227761)
(0.00477163 -0.00477143 4.08719e-05)
(-0.00488792 0.00488838 3.18948e-05)
(0.000243816 0.000264197 0.000225555)
(0.000243943 -0.000263805 0.000228869)
(0.000243012 0.000263737 0.000224885)
(0.000243277 -0.000262954 0.000227909)
(-0.000244102 -0.000264262 0.00022878)
(-0.000244177 0.000264765 0.000224551)
(-0.000243918 -0.00026383 0.000227873)
(-0.00477368 -0.00477109 4.15573e-05)
(0.00489082 0.00488795 3.50413e-05)
(0.000263946 0.000243607 0.000227324)
(-0.000264226 0.000243842 0.000227644)
(0.000265056 0.000244304 0.000225583)
(-0.000263251 0.000243047 0.000226592)
(0.00477174 -0.00477153 4.0901e-05)
(-0.00488796 0.00488877 3.39501e-05)
(0.000243217 0.000263758 0.000224409)
(0.000243323 -0.000262909 0.000227702)
(0.000244354 0.000264642 0.000223187)
(0.000243704 -0.000263077 0.000226768)
(-0.000243632 -0.000263476 0.000227773)
(-0.000243236 0.000263683 0.000223456)
(-0.000242871 -0.00026388 0.000225776)
(-0.00477293 0.0047729 4.19853e-05)
(0.00488955 -0.00489008 3.70336e-05)
(-0.000263502 -0.000243279 0.000224431)
(-0.00488894 -0.00489371 3.7735e-05)
(-0.000263134 0.000242089 0.000226813)
(0.0047726 -0.00477203 4.04638e-05)
(-6.1606e-05 0.00199441 0.000210398)
(8.74226e-05 -0.00192243 0.000221234)
(-0.000267192 0.00199583 0.000221649)
(3.7833e-05 -0.00195457 0.000208855)
(8.10805e-05 -0.00047548 0.000219612)
(8.84238e-05 0.000534706 0.000219794)
(0.00199525 -6.20556e-05 0.000209746)
(-0.0019228 8.63211e-05 0.000221351)
(0.00199615 -0.000265795 0.000221881)
(-0.00195513 3.76853e-05 0.000207722)
(0.000311088 -0.000311161 0.000303811)
(-0.000311532 0.000311682 0.000304511)
(0.000311511 0.000311559 0.000303931)
(-0.000311321 -0.000310922 0.000302746)
(0.000310953 -0.000310966 0.000303419)
(-0.000311415 0.000311609 0.000302789)
(0.000311058 0.000311632 0.000302743)
(-0.00101298 3.54051e-05 0.000198085)
(0.000592425 -0.00112625 0.000208958)
(-0.000215581 -7.4081e-05 0.000253297)
(-0.000243984 0.000264588 0.00022521)
(-0.000551588 0.00108235 0.000210191)
(-0.000215568 -7.39675e-05 0.000253207)
(0.00114511 -5.17274e-05 0.000195604)
(-6.20119e-05 0.0019942 0.000211632)
(8.8402e-05 -0.00192176 0.000219561)
(3.79566e-05 -0.00195345 0.000209695)
(-0.00026664 0.00199496 0.000219713)
(8.07848e-05 -0.000475795 0.000219791)
(8.82832e-05 0.000534639 0.000219804)
(0.00199345 -6.26233e-05 0.000212088)
(-0.0019219 8.76089e-05 0.000218966)
(-0.00195305 3.7504e-05 0.000209802)
(0.00199514 -0.000266407 0.000219554)
(0.000311004 -0.000310979 0.000303347)
(-0.000311349 0.000311637 0.000302329)
(0.000311124 0.000311466 0.000302477)
(-0.000310371 -0.000310681 0.000301314)
(0.000311272 -0.000311116 0.000302402)
(-0.000311239 0.000311504 0.000300763)
(0.000310569 0.000311078 0.000300786)
(-0.00101313 3.51578e-05 0.000198939)
(0.000592126 -0.00112648 0.000209091)
(-0.000215169 -7.38292e-05 0.000252475)
(-0.00024387 0.00026418 0.000224221)
(0.00114556 -5.22212e-05 0.000196097)
(-0.000551591 0.00108218 0.00021038)
(-0.000214731 -7.39027e-05 0.000252422)
(-0.000474887 8.12473e-05 0.000218282)
(0.000534852 8.8803e-05 0.000217531)
(3.63247e-05 -0.00101233 0.000200792)
(-7.42604e-05 -0.000214072 0.000252379)
(-0.00112551 0.00059223 0.000209114)
(0.000263142 -0.000242716 0.000224262)
(-7.41566e-05 -0.000214091 0.000251726)
(0.00108239 -0.000550685 0.000211766)
(-5.06766e-05 0.00114542 0.000196419)
(0.000278732 0.000486766 0.000215409)
(0.00048694 0.00027714 0.000215318)
(-0.00488749 -0.00489023 3.59844e-05)
(-0.000494725 -0.000556949 0.000216779)
(-0.000556182 -0.000493237 0.000217109)
(8.16151e-05 -0.000474895 0.000218309)
(0.000311347 -0.000311186 0.000301779)
(0.000591453 -0.00112616 0.000210466)
(-0.000213935 -7.41482e-05 0.000251202)
(0.00114533 -5.12279e-05 0.000198211)
(-7.92911e-05 -0.000475792 0.000220497)
(-8.9882e-05 0.00053539 0.000220161)
(-0.000475583 -8.10373e-05 0.000220816)
(0.0005348 -8.84098e-05 0.000220591)
(-0.000487214 -0.000279111 0.000215108)
(-0.000277424 -0.000487375 0.00021485)
(0.00488927 0.00488565 3.24709e-05)
(0.000557063 0.000495521 0.000216356)
(0.000493553 0.000556911 0.000216155)
(-8.92538e-05 0.000534687 0.000219196)
(-7.95557e-05 -0.000475398 0.000219355)
(0.000534201 -8.7958e-05 0.000218741)
(-0.000475383 -8.09855e-05 0.000219652)
(-0.00477315 -0.00477081 4.13807e-05)
(0.000556797 0.000494694 0.000216733)
(0.000492748 0.000556461 0.000216664)
(-0.000486795 -0.000278694 0.000215296)
(-0.000276931 -0.00048704 0.000214976)
(6.22389e-05 0.00199439 0.000210418)
(-8.6623e-05 -0.0019226 0.000220585)
(0.000266138 0.00199599 0.000221433)
(-3.81377e-05 -0.00195432 0.000208875)
(3.62583e-05 0.00101274 0.000197895)
(-0.00112659 -0.000592263 0.000208414)
(-7.44418e-05 0.000214745 0.000253354)
(0.000264042 0.000243595 0.000228527)
(0.00108297 0.000551909 0.000209666)
(-7.44321e-05 0.000214478 0.000253234)
(-5.13945e-05 -0.00114547 0.000195223)
(-3.55646e-05 0.00101296 0.000198173)
(0.00112724 -0.000592967 0.000208925)
(7.43283e-05 0.000214767 0.000253533)
(-0.000264221 0.000243872 0.00022832)
(-0.00108276 0.000551983 0.000209898)
(7.41557e-05 0.000214636 0.000253356)
(5.13568e-05 -0.00114555 0.000195532)
(3.81633e-05 -0.00195465 0.000209252)
(-0.000266552 0.00199549 0.000220819)
(8.76207e-05 -0.00192205 0.000220399)
(-6.15228e-05 0.00199524 0.0002108)
(-3.79195e-05 -0.00195465 0.000209288)
(0.000265849 0.00199592 0.000221681)
(-8.68571e-05 -0.00192252 0.000220435)
(6.23438e-05 0.00199512 0.000210767)
(-5.10624e-05 -0.00114565 0.000195662)
(0.000263946 0.000243699 0.000227765)
(0.0010827 0.000551516 0.000210523)
(-7.45553e-05 0.000214514 0.000252509)
(-0.00112618 -0.000592056 0.000208937)
(-7.45994e-05 0.00021451 0.000252629)
(3.62768e-05 0.00101315 0.00019845)
(5.16489e-05 -0.00114573 0.000195965)
(-0.000264306 0.000244017 0.000227941)
(-0.00108269 0.000552031 0.000210017)
(7.42231e-05 0.000214765 0.000252836)
(0.00112729 -0.000592886 0.000209204)
(7.42062e-05 0.000214909 0.000252863)
(-3.5374e-05 0.00101331 0.000198599)
(0.000487063 -0.000277048 0.00021537)
(0.000279396 -0.000487035 0.000215596)
(-0.00488743 0.00488797 3.21684e-05)
(-0.00055644 0.00049318 0.000216332)
(-0.000495123 0.00055656 0.000216647)
(0.000475274 -7.95944e-05 0.000218906)
(-0.000534732 -8.95378e-05 0.000219297)
(8.81088e-05 0.000534435 0.000220169)
(8.09709e-05 -0.000475521 0.000219342)
(0.00477157 -0.00477149 4.10172e-05)
(-0.000556484 0.000492995 0.000216564)
(-0.000495194 0.000556589 0.000216797)
(0.000487025 -0.00027702 0.000215433)
(0.00027919 -0.000487087 0.000215678)
(-0.000534588 -8.94004e-05 0.000219738)
(0.000475447 -7.94472e-05 0.000218931)
(0.00101285 3.54814e-05 0.000197531)
(-0.000593353 -0.00112701 0.000208225)
(0.000215274 -7.40309e-05 0.000253816)
(0.000243439 0.000263754 0.000225698)
(0.00055248 0.00108294 0.000209669)
(0.000214922 -7.3821e-05 0.000253625)
(-0.00114534 -5.17134e-05 0.000194312)
(0.00199542 6.15181e-05 0.000209741)
(-0.00192324 -8.61612e-05 0.000222054)
(-0.00195514 -3.83481e-05 0.000207656)
(0.00199673 0.000266788 0.00022196)
(0.00101283 -3.64684e-05 0.000197536)
(0.00021483 7.44001e-05 0.000254005)
(-0.000593601 0.00112686 0.00020755)
(0.000243279 -0.000263044 0.000229013)
(0.000214253 7.44158e-05 0.000253722)
(-0.00114549 5.06563e-05 0.000194257)
(0.000552175 -0.00108353 0.000209318)
(-0.0019543 3.7607e-05 0.000208314)
(0.00199562 -0.000265688 0.000220286)
(-0.00192233 8.71055e-05 0.000220421)
(0.00199497 -6.22295e-05 0.00021114)
(-0.00114528 -5.19667e-05 0.000195119)
(0.000243207 0.000263772 0.00022509)
(0.000551759 0.00108239 0.000211028)
(0.00021442 -7.38219e-05 0.000252849)
(-0.000592658 -0.00112714 0.000208713)
(0.000214546 -7.38394e-05 0.000253176)
(0.00101286 3.5243e-05 0.000199631)
(-0.00195433 -3.87594e-05 0.000208313)
(0.00199605 0.0002669 0.000220942)
(0.00199503 6.15086e-05 0.00021114)
(-0.00192263 -8.67946e-05 0.000220423)
(-0.0011455 5.03189e-05 0.000195117)
(0.000243151 -0.000262891 0.000228406)
(0.000213798 7.44765e-05 0.000252871)
(0.000551433 -0.00108315 0.000210556)
(0.000213994 7.45026e-05 0.000253276)
(0.00101277 -3.64733e-05 0.000199601)
(-0.000593055 0.00112649 0.000208481)
(-0.00199457 -6.21279e-05 0.000210239)
(0.00192192 8.76059e-05 0.000220027)
(-0.00199525 -0.000267006 0.000221014)
(0.00195447 3.76864e-05 0.000209031)
(-0.00101291 -3.6413e-05 0.000198175)
(-0.000214962 7.46865e-05 0.000253483)
(0.000592541 0.00112602 0.000208005)
(-0.000243649 -0.000264346 0.000228753)
(-0.00021475 7.48478e-05 0.000253564)
(0.00114533 5.07248e-05 0.000195491)
(-0.000552219 -0.0010831 0.000209891)
(-0.0019946 6.17862e-05 0.000210226)
(0.00192237 -8.73472e-05 0.000221009)
(0.00195454 -3.84737e-05 0.000208794)
(-0.0019963 0.000267705 0.000221072)
(0.00114536 -5.21137e-05 0.000195748)
(-0.000244078 0.00026465 0.000224714)
(-0.000551778 0.00108222 0.000209925)
(-0.000215241 -7.39114e-05 0.000252767)
(0.00059217 -0.00112649 0.000209302)
(-0.000215399 -7.3709e-05 0.000252854)
(-0.00101308 3.51981e-05 0.000198447)
(0.00195456 3.73654e-05 0.000209047)
(-0.0019952 -0.000266888 0.000221419)
(0.00192194 8.77588e-05 0.000220019)
(-0.0019949 -6.23061e-05 0.000210616)
(0.00114568 5.03345e-05 0.00019597)
(-0.00024383 -0.000262703 0.000227955)
(-0.000214665 7.46642e-05 0.000252554)
(-0.000551406 -0.00108296 0.000209836)
(-0.000214927 7.45548e-05 0.000253099)
(-0.00101309 -3.64713e-05 0.000198526)
(0.000593812 0.00112587 0.00020908)
(0.00195462 -3.88839e-05 0.000209067)
(-0.00199554 0.000267518 0.000222028)
(-0.00199506 6.15691e-05 0.000210488)
(0.00192271 -8.70336e-05 0.000219897)
(-7.93211e-05 -0.000475437 0.000218351)
(-8.89871e-05 0.000534248 0.0002178)
(-0.000475214 -8.09542e-05 0.000217759)
(0.000534008 -8.7963e-05 0.000217778)
(-0.000486725 -0.000278402 0.000215625)
(-0.000276594 -0.000486885 0.000215487)
(0.00489032 0.00488696 3.59866e-05)
(0.000556546 0.000494164 0.000217006)
(0.000492492 0.000556152 0.000216986)
(-8.82171e-05 0.000533829 0.00021832)
(-7.93911e-05 -0.000475335 0.000217404)
(0.000533687 -8.72948e-05 0.000218159)
(-0.000474984 -8.11912e-05 0.000217388)
(-0.00477377 -0.00477109 4.15214e-05)
(0.000555887 0.000494133 0.000217088)
(0.000492242 0.000555868 0.000216979)
(-0.000486823 -0.000278361 0.000216237)
(-0.000276609 -0.000486717 0.000216205)
(6.19182e-05 0.00199432 0.000211507)
(-8.71487e-05 -0.00192262 0.000220716)
(-3.8153e-05 -0.00195363 0.000209636)
(0.000266156 0.00199614 0.000221413)
(3.54774e-05 0.00101294 0.000199804)
(-0.00112653 -0.000591502 0.000209642)
(-7.4496e-05 0.000214128 0.000252234)
(0.000264218 0.000243755 0.000226866)
(-5.14841e-05 -0.00114539 0.000196163)
(0.0010822 0.000550981 0.000211443)
(-7.42832e-05 0.000214437 0.000251765)
(-3.61704e-05 0.00101314 0.000199844)
(0.00112734 -0.000593035 0.000209231)
(7.43816e-05 0.000214369 0.000252719)
(-0.000263797 0.000243459 0.000227526)
(5.13742e-05 -0.00114554 0.000196282)
(-0.00108309 0.000552096 0.000210341)
(7.44694e-05 0.000214217 0.000252284)
(3.72424e-05 -0.00195378 0.000210515)
(-0.000267135 0.00199545 0.000220377)
(8.83535e-05 -0.00192161 0.000218793)
(-6.26952e-05 0.00199396 0.000211856)
(-3.89187e-05 -0.00195364 0.000210374)
(0.000266273 0.00199619 0.000220906)
(-8.66677e-05 -0.00192239 0.000220406)
(6.11584e-05 0.00199421 0.000211752)
(-5.24238e-05 -0.00114579 0.000197262)
(0.000264594 0.000244026 0.000226317)
(0.00108147 0.000550973 0.000211401)
(-7.39584e-05 0.000214725 0.000251028)
(-0.00112686 -0.000591629 0.00021061)
(-7.40784e-05 0.000214742 0.000251333)
(3.44234e-05 0.00101345 0.000199878)
(5.03143e-05 -0.00114587 0.00019731)
(-0.000263408 0.000243112 0.000227275)
(-0.00108299 0.000552262 0.000210875)
(7.48613e-05 0.000213935 0.000251437)
(0.00112675 -0.000593108 0.000209734)
(7.46077e-05 0.000214187 0.000251997)
(-3.71787e-05 0.00101339 0.000200009)
(0.000487114 -0.000277153 0.00021556)
(0.000279157 -0.000487077 0.000215787)
(-0.00488781 0.00488856 3.2657e-05)
(-0.000556785 0.000493289 0.000216748)
(-0.000494769 0.000556614 0.000217126)
(0.000475421 -7.93868e-05 0.000219215)
(-0.000534461 -8.92007e-05 0.00021951)
(8.7598e-05 0.000534369 0.000219304)
(8.12079e-05 -0.000475291 0.000219259)
(0.00477203 -0.00477232 4.06537e-05)
(-0.000556743 0.000493025 0.000216974)
(-0.000494386 0.00055656 0.000217451)
(0.000486766 -0.000276738 0.000215771)
(0.000279306 -0.000486924 0.000216055)
(-0.000534247 -8.90401e-05 0.000218871)
(0.000475524 -7.90968e-05 0.000218789)
(0.00101278 3.48154e-05 0.000201009)
(-0.000592322 -0.00112709 0.000210012)
(0.000214535 -7.3773e-05 0.000252422)
(0.00024369 0.00026402 0.000223956)
(-0.0011452 -5.21944e-05 0.000196973)
(0.000551375 0.00108212 0.000211878)
(0.000214979 -7.36828e-05 0.000251963)
(0.00199367 6.13294e-05 0.000212112)
(-0.00192239 -8.69471e-05 0.00021955)
(-0.00195317 -3.88945e-05 0.000209798)
(0.00199588 0.000267474 0.000219666)
(0.00101275 -3.69276e-05 0.000201075)
(0.000213975 7.45625e-05 0.000252442)
(-0.000592959 0.00112621 0.000209566)
(0.000243315 -0.000262775 0.000227416)
(-0.00114542 5.01983e-05 0.000196966)
(0.000214197 7.46436e-05 0.000251878)
(0.000551225 -0.00108341 0.000211653)
(-0.00195363 3.72862e-05 0.000210963)
(0.0019955 -0.000266222 0.000219986)
(-0.00192201 8.72323e-05 0.000218702)
(0.00199371 -6.27113e-05 0.000211919)
(-0.00114567 -5.24615e-05 0.000198359)
(0.000244042 0.000264277 0.00022342)
(0.00055174 0.00108172 0.000211669)
(0.000215347 -7.34854e-05 0.000251266)
(-0.000592607 -0.00112703 0.000211067)
(0.000215405 -7.35738e-05 0.000251338)
(0.00101375 3.45417e-05 0.000200635)
(-0.00195349 -3.90512e-05 0.000210925)
(0.00199567 0.000267052 0.000219957)
(-0.0019221 -8.69075e-05 0.000218453)
(0.00199406 6.12608e-05 0.000212059)
(-0.00114586 4.99129e-05 0.000198467)
(0.000243293 -0.000262758 0.000226808)
(0.000214377 7.45212e-05 0.000251012)
(0.000551081 -0.00108284 0.00021172)
(0.000214414 7.46668e-05 0.000251357)
(-0.000593134 0.00112591 0.000210587)
(0.00101377 -3.70698e-05 0.000200786)
(-0.00199515 -6.23161e-05 0.000211147)
(0.00192205 8.78462e-05 0.000220396)
(0.00195466 3.73896e-05 0.000209381)
(-0.00199517 -0.000266449 0.000221268)
(-0.00101311 -3.66262e-05 0.000199304)
(-0.000214486 7.46139e-05 0.00025244)
(0.000592382 0.00112606 0.000209288)
(-0.000243245 -0.000263382 0.00022723)
(0.00114573 5.04628e-05 0.000196179)
(-0.000213972 7.45346e-05 0.000252293)
(-0.00055156 -0.00108265 0.000210935)
(-0.00199555 6.14503e-05 0.000211245)
(0.00192237 -8.75004e-05 0.000220752)
(0.00195453 -3.86851e-05 0.000209276)
(-0.00199565 0.000266472 0.00022111)
(0.00114553 -5.18451e-05 0.00019658)
(-0.000243402 0.000263904 0.000224092)
(-0.0005514 0.00108209 0.000211112)
(-0.000214107 -7.41946e-05 0.000251737)
(0.000592164 -0.00112657 0.000209402)
(-0.000214208 -7.4075e-05 0.000252023)
(-0.00101312 3.58037e-05 0.00020059)
(0.00195369 3.7767e-05 0.000209902)
(-0.00199495 -0.00026627 0.000220599)
(0.00192201 8.86133e-05 0.000220038)
(-0.00199502 -6.182e-05 0.00021225)
(0.00114567 5.08538e-05 0.000197046)
(-0.00024291 -0.000263416 0.000227117)
(-0.000213661 7.43664e-05 0.000251254)
(-0.000551231 -0.00108216 0.00021198)
(-0.000213795 7.43835e-05 0.000251813)
(0.000591903 0.00112633 0.000210056)
(-0.00101308 -3.58298e-05 0.000200975)
(0.00195352 -3.85895e-05 0.00020998)
(-0.00199509 0.000266519 0.00022003)
(0.00192194 -8.8723e-05 0.000219758)
(-0.00199491 6.19629e-05 0.000212345)
(-0.000276581 0.000486393 0.000215254)
(-0.000486487 0.000278724 0.000215199)
(0.00488917 -0.00488884 3.55085e-05)
(0.000492808 -0.000556326 0.000216953)
(0.000556132 -0.000494892 0.000217119)
(-7.99017e-05 0.000474816 0.000218227)
(-9.01512e-05 -0.00053513 0.000217992)
(0.000534196 8.82494e-05 0.000218167)
(-0.000474529 8.15334e-05 0.000216838)
(-0.004773 0.00477359 4.16697e-05)
(0.000492231 -0.000555621 0.000217276)
(-0.000276307 0.000486049 0.000215905)
(-0.000486052 0.000278608 0.000216062)
(-7.96828e-05 0.000474779 0.000217078)
(-3.54193e-05 -0.00101262 0.000201011)
(7.39507e-05 -0.00021451 0.0002527)
(0.00112667 0.000593216 0.000209201)
(-0.000263408 -0.000243262 0.000224037)
(7.38507e-05 -0.000214412 0.000252079)
(-0.00108256 -0.000551604 0.000211381)
(5.16017e-05 0.00114547 0.000196647)
(-6.16739e-05 -0.00199419 0.000212409)
(8.76447e-05 0.00192162 0.000219373)
(-0.000268182 -0.00199501 0.000219841)
(3.85535e-05 0.00195393 0.000209418)
(6.23043e-05 -0.00199429 0.000212392)
(-8.68133e-05 0.00192226 0.000219882)
(0.000267046 -0.00199575 0.000220473)
(-3.78241e-05 0.00195402 0.000209454)
(-5.07731e-05 0.00114546 0.000198434)
(0.000263295 -0.000242887 0.000223272)
(-7.42366e-05 -0.0002142 0.000251117)
(-0.00112552 0.000592285 0.000210732)
(5.14985e-05 0.0011455 0.00019859)
(-0.000263747 -0.0002436 0.000223865)
(7.38382e-05 -0.00021459 0.000251698)
(0.00112635 0.000592566 0.000210478)
(3.84284e-05 0.00195246 0.00021128)
(8.83097e-05 0.00192174 0.000218661)
(-3.81276e-05 0.0019525 0.000211245)
(-8.72868e-05 0.00192215 0.000219191)
(0.000475366 7.97311e-05 0.000219726)
(-0.000534645 8.93193e-05 0.000219331)
(8.12565e-05 0.000475076 0.000218928)
(8.88611e-05 -0.000534826 0.000218704)
(0.0047717 0.00477414 4.24512e-05)
(-0.000494224 -0.000556312 0.000217071)
(0.000278431 0.000486544 0.000215718)
(0.000486335 0.000276739 0.000216038)
(-0.000533895 8.86828e-05 0.00021827)
(0.000475501 7.91102e-05 0.000218542)
(8.10874e-05 0.000474836 0.000217898)
(-8.75785e-05 -0.00192176 0.00021957)
(0.001127 -0.000592144 0.000210113)
(0.000486091 -0.000275833 0.000216206)
(0.000278655 -0.000486044 0.000216563)
(0.00047501 -7.92203e-05 0.000218239)
(0.00192159 8.927e-05 0.000219206)
(0.001952 3.84572e-05 0.000211173)
(-0.000214131 7.41737e-05 0.00025085)
(0.00114554 5.15298e-05 0.000198761)
(0.00195217 -3.81198e-05 0.000211236)
(0.0001072 -0.000248749 0.000222358)
(-5.88858e-05 0.000158753 0.000222232)
(-9.15975e-05 0.00192048 0.000211444)
(3.80407e-05 -0.001955 0.000208947)
(5.10002e-05 -0.000237836 0.000221189)
(1.90699e-05 -0.00187709 0.000209862)
(-0.000149077 0.000180127 0.000223367)
(-9.10078e-05 -4.58478e-05 0.000220145)
(-0.000267205 0.00199583 0.00022219)
(6.97913e-05 -0.00147681 0.000215677)
(-0.000156063 0.00155024 0.000216748)
(4.00032e-05 2.74187e-05 0.00021969)
(3.96835e-05 2.75729e-05 0.000219768)
(-0.000156032 0.00155053 0.000216808)
(8.74709e-05 -0.00192219 0.000220983)
(6.994e-05 -0.00147664 0.000215676)
(-9.14344e-05 -4.57335e-05 0.000220282)
(-0.000148684 0.000179942 0.000223032)
(-6.18099e-05 0.00199441 0.000210167)
(5.12393e-05 -0.000237575 0.000221038)
(1.87858e-05 -0.00187688 0.000209812)
(-5.85988e-05 0.000158781 0.000221869)
(-9.17645e-05 0.00192028 0.000211185)
(0.000107653 -0.000248754 0.000222078)
(8.84109e-05 0.000534753 0.000219845)
(8.1082e-05 -0.000475495 0.000219466)
(-0.000249243 0.000107795 0.000223694)
(0.00192113 -9.15687e-05 0.000210846)
(0.000159521 -5.802e-05 0.000223083)
(-0.00195506 3.75294e-05 0.000207735)
(-0.00187709 1.85259e-05 0.000208861)
(-0.000238194 5.14259e-05 0.000222626)
(0.000180735 -0.000148045 0.000224164)
(-4.56527e-05 -9.06586e-05 0.000221404)
(0.00199611 -0.000266063 0.000222405)
(-0.0014769 6.97606e-05 0.000214966)
(0.00155021 -0.000155689 0.000216137)
(2.7049e-05 4.02669e-05 0.000221138)
(2.71693e-05 4.02146e-05 0.000220907)
(0.00155029 -0.0001556 0.00021629)
(-0.00192259 8.6636e-05 0.000221125)
(-0.00147673 6.99721e-05 0.000214959)
(-4.56825e-05 -9.06231e-05 0.000221179)
(0.000180696 -0.000148074 0.000224565)
(0.00199539 -6.1895e-05 0.000209092)
(-0.00187736 1.84332e-05 0.000208874)