/*--------------------------------*- C++ -*----------------------------------*\
| =========                 |                                                 |
| \\      /  F ield         | OpenFOAM: The Open Source CFD Toolbox           |
|  \\    /   O peration     | Version:  2206                                  |
|   \\  /    A nd           | Website:  www.openfoam.com                      |
|    \\/     M anipulation  |                                                 |
\*---------------------------------------------------------------------------*/
FoamFile
{
    version     2.0;
    format      ascii;
    arch        "LSB;label=32;scalar=64";
    class       volScalarField;
    location    "34";
    object      epsilon;
}
// * * * * * * * * * * * * * * * * * * * * * * * * * * * * * * * * * * * * * //

dimensions      [0 2 -3 0 0 0 0];

internalField   nonuniform List<scalar> 
28897
(
2.56952e-07
2.85657e-07
2.85665e-07
3.2013e-07
2.56954e-07
2.8566e-07
2.85668e-07
3.20137e-07
2.56956e-07
2.85664e-07
2.85672e-07
3.20145e-07
2.56957e-07
2.85668e-07
2.85676e-07
3.20154e-07
2.56954e-07
2.85671e-07
2.85678e-07
3.20162e-07
2.56952e-07
2.85672e-07
2.8568e-07
3.2017e-07
2.5695e-07
2.85675e-07
2.85682e-07
3.20174e-07
2.56923e-07
2.85649e-07
2.85645e-07
3.20151e-07
2.56847e-07
2.8556e-07
2.85565e-07
3.2004e-07
2.5684e-07
2.85549e-07
2.8556e-07
3.20032e-07
2.5684e-07
2.85549e-07
2.85559e-07
3.20035e-07
2.5684e-07
2.85549e-07
2.8556e-07
3.20034e-07
2.5684e-07
2.85548e-07
2.8556e-07
3.20036e-07
2.5684e-07
2.85548e-07
2.8556e-07
3.20034e-07
2.5684e-07
2.85548e-07
2.8556e-07
3.20032e-07
2.5684e-07
2.85548e-07
2.85559e-07
3.20033e-07
2.5684e-07
2.85548e-07
2.85559e-07
3.20034e-07
2.56841e-07
2.8555e-07
2.85562e-07
3.20034e-07
3.19847e-07
2.85677e-07
2.85683e-07
3.19838e-07
2.85661e-07
2.85691e-07
2.85657e-07
2.85682e-07
3.19856e-07
2.85665e-07
2.85664e-07
3.19857e-07
3.20123e-07
3.19856e-07
2.85679e-07
2.85685e-07
2.85679e-07
2.85686e-07
3.20116e-07
3.19852e-07
2.85663e-07
2.85693e-07
2.85663e-07
2.85693e-07
2.85684e-07
2.8566e-07
2.85684e-07
3.20131e-07
3.19864e-07
2.85666e-07
2.85668e-07
2.85667e-07
3.19866e-07
3.2013e-07
3.19863e-07
2.85682e-07
2.85689e-07
2.85683e-07
2.8569e-07
3.20127e-07
3.19857e-07
2.85666e-07
2.85696e-07
2.85667e-07
2.85696e-07
2.85687e-07
2.85664e-07
2.85687e-07
3.20138e-07
3.19872e-07
2.8567e-07
2.85672e-07
2.8567e-07
3.19873e-07
3.20138e-07
3.19871e-07
2.85686e-07
2.85693e-07
2.85687e-07
2.85695e-07
3.20132e-07
3.19864e-07
2.8567e-07
2.857e-07
2.85671e-07
2.85701e-07
2.8569e-07
2.85668e-07
2.85691e-07
3.20146e-07
3.1988e-07
2.85673e-07
2.85675e-07
2.85674e-07
3.19882e-07
3.20146e-07
3.1988e-07
2.8569e-07
2.85698e-07
2.8569e-07
2.85699e-07
3.2014e-07
3.19871e-07
2.85674e-07
2.85704e-07
2.85674e-07
2.85704e-07
2.85694e-07
2.85671e-07
2.85695e-07
3.20154e-07
3.19888e-07
2.85677e-07
2.85678e-07
2.85678e-07
3.1989e-07
3.20155e-07
3.19888e-07
2.85693e-07
2.85702e-07
2.85692e-07
2.85701e-07
3.20147e-07
3.1988e-07
2.85677e-07
2.85707e-07
2.85676e-07
2.85705e-07
2.85698e-07
2.85672e-07
2.85697e-07
3.20163e-07
3.19896e-07
2.8568e-07
2.8568e-07
2.85679e-07
3.19898e-07
3.20163e-07
3.19893e-07
2.85694e-07
2.85703e-07
2.85693e-07
2.85702e-07
3.20155e-07
3.19885e-07
2.85678e-07
2.85707e-07
2.85677e-07
2.85706e-07
2.85699e-07
2.85675e-07
2.85697e-07
3.2017e-07
3.19901e-07
2.8568e-07
2.85682e-07
2.85679e-07
3.19902e-07
3.20168e-07
3.19877e-07
2.85695e-07
2.85703e-07
2.85681e-07
2.85692e-07
3.2016e-07
3.19875e-07
2.85679e-07
2.85708e-07
2.85664e-07
2.85694e-07
2.85699e-07
2.85667e-07
2.85687e-07
3.20174e-07
3.19885e-07
2.85681e-07
2.85668e-07
2.85668e-07
3.19888e-07
3.20143e-07
3.19769e-07
2.85658e-07
2.85672e-07
2.85589e-07
2.85601e-07
3.20144e-07
3.19775e-07
2.85641e-07
2.85671e-07
2.85573e-07
2.85603e-07
2.85666e-07
2.85577e-07
2.85596e-07
3.2015e-07
3.19778e-07
2.85646e-07
2.85577e-07
2.85576e-07
3.1978e-07
3.20032e-07
3.19747e-07
2.85579e-07
2.85589e-07
2.85571e-07
2.85579e-07
3.20037e-07
3.19735e-07
2.85562e-07
2.85592e-07
2.85555e-07
2.85585e-07
2.85584e-07
2.85549e-07
2.85576e-07
3.2004e-07
3.19756e-07
2.85566e-07
2.8556e-07
2.85559e-07
3.19757e-07
3.20025e-07
3.19755e-07
2.85574e-07
2.85581e-07
2.85571e-07
2.85579e-07
3.20012e-07
3.19749e-07
2.85558e-07
2.85588e-07
2.85555e-07
2.85585e-07
2.85578e-07
2.85549e-07
2.85576e-07
3.20033e-07
3.19764e-07
2.85561e-07
2.85559e-07
2.85559e-07
3.19766e-07
3.20027e-07
3.19754e-07
2.85572e-07
2.8558e-07
2.85571e-07
2.85577e-07
3.20022e-07
3.19745e-07
2.85556e-07
2.85586e-07
2.85555e-07
2.85584e-07
2.85577e-07
2.85549e-07
2.85575e-07
3.20035e-07
3.19762e-07
2.8556e-07
2.8556e-07
2.85558e-07
3.19763e-07
3.20027e-07
3.19755e-07
2.85573e-07
2.85579e-07
2.85571e-07
2.85577e-07
3.20019e-07
3.19745e-07
2.85557e-07
2.85586e-07
2.85555e-07
2.85584e-07
2.85577e-07
2.85548e-07
2.85575e-07
3.20035e-07
3.19762e-07
2.85559e-07
2.8556e-07
2.85558e-07
3.19764e-07
3.20029e-07
3.19752e-07
2.85572e-07
2.85579e-07
2.8557e-07
2.85577e-07
3.20019e-07
3.19744e-07
2.85557e-07
2.85586e-07
2.85556e-07
2.85584e-07
2.85576e-07
2.85548e-07
2.85575e-07
3.20036e-07
3.1976e-07
2.85559e-07
2.8556e-07
2.85558e-07
3.19761e-07
3.20026e-07
3.19754e-07
2.85572e-07
2.85579e-07
2.8557e-07
2.85577e-07
3.20017e-07
3.19747e-07
2.85558e-07
2.85586e-07
2.85556e-07
2.85584e-07
2.85577e-07
2.85548e-07
2.85575e-07
3.20034e-07
3.19762e-07
2.8556e-07
2.8556e-07
2.85558e-07
3.19761e-07
3.20026e-07
3.19756e-07
2.85573e-07
2.85579e-07
2.85571e-07
2.85577e-07
3.20019e-07
3.19746e-07
2.85557e-07
2.85586e-07
2.85556e-07
2.85584e-07
2.85577e-07
2.85548e-07
2.85575e-07
3.20034e-07
3.19763e-07
2.85559e-07
2.8556e-07
2.85558e-07
3.19763e-07
3.20029e-07
3.19755e-07
2.85572e-07
2.85579e-07
2.85571e-07
2.85577e-07
3.20021e-07
3.19745e-07
2.85557e-07
2.85586e-07
2.85555e-07
2.85584e-07
2.85576e-07
2.85548e-07
2.85575e-07
3.20036e-07
3.19761e-07
2.85559e-07
2.85559e-07
2.85558e-07
3.19764e-07
3.20029e-07
3.19754e-07
2.85573e-07
2.85579e-07
2.85571e-07
2.85577e-07
3.20019e-07
3.19744e-07
2.85557e-07
2.85586e-07
2.85555e-07
2.85584e-07
2.85577e-07
2.85549e-07
2.85575e-07
3.20035e-07
3.19761e-07
2.8556e-07
2.8556e-07
2.85558e-07
3.19763e-07
3.20028e-07
2.85573e-07
2.85579e-07
3.20019e-07
2.85557e-07
2.85586e-07
2.85577e-07
3.20034e-07
2.8556e-07
2.56952e-07
2.56954e-07
2.56958e-07
2.56956e-07
1.80067e-06
8.87938e-06
1.80119e-06
8.87889e-06
2.141e-05
2.14091e-05
1.80058e-06
8.88155e-06
1.80105e-06
8.88108e-06
2.56957e-07
2.56961e-07
2.56959e-07
2.56954e-07
2.56957e-07
2.5696e-07
2.56958e-07
5.43399e-07
1.44052e-06
2.66929e-07
2.85659e-07
5.43559e-07
1.43972e-06
2.66932e-07
2.14096e-05
2.14088e-05
5.43411e-07
2.66931e-07
1.44052e-06
2.85668e-07
5.43569e-07
2.66933e-07
1.43976e-06
3.19474e-06
3.19595e-06
3.19863e-07
3.19432e-06
3.19549e-06
1.80079e-06
8.87917e-06
1.80136e-06
8.87877e-06
2.14078e-05
2.14075e-05
1.80071e-06
8.88131e-06
1.80122e-06
8.88092e-06
2.56957e-07
2.5696e-07
2.56958e-07
2.56956e-07
2.56956e-07
2.56958e-07
2.56957e-07
5.43423e-07
1.44068e-06
2.66931e-07
2.85663e-07
5.43586e-07
1.43986e-06
2.66934e-07
2.14081e-05
2.14078e-05
5.43443e-07
2.66932e-07
1.44066e-06
2.85671e-07
5.43603e-07
2.66934e-07
1.43987e-06
3.1951e-06
3.19621e-06
3.1987e-07
3.19461e-06
3.19571e-06
1.80085e-06
8.87909e-06
1.80143e-06
8.87868e-06
2.1407e-05
2.14071e-05
1.80076e-06
8.8812e-06
1.80129e-06
8.88082e-06
2.56958e-07
2.5696e-07
2.56959e-07
2.56958e-07
2.56957e-07
2.5696e-07
2.56959e-07
5.43448e-07
1.44078e-06
2.66933e-07
2.85667e-07
5.4361e-07
1.43994e-06
2.66936e-07
2.14075e-05
2.14074e-05
5.43469e-07
2.66934e-07
1.44073e-06
2.85675e-07
5.43633e-07
2.66936e-07
1.43992e-06
3.19533e-06
3.19634e-06
3.19878e-07
3.19482e-06
3.19578e-06
1.80086e-06
8.87903e-06
1.80146e-06
8.87865e-06
2.1407e-05
2.14072e-05
1.80076e-06
8.88116e-06
1.80131e-06
8.88082e-06
2.56959e-07
2.5696e-07
2.56961e-07
2.56954e-07
2.56956e-07
2.56958e-07
2.56958e-07
5.43474e-07
1.44082e-06
2.66935e-07
2.85671e-07
5.43636e-07
1.43997e-06
2.66937e-07
2.14074e-05
2.14075e-05
5.43484e-07
2.66935e-07
1.44076e-06
2.85679e-07
5.43652e-07
2.66937e-07
1.43994e-06
3.19549e-06
3.19637e-06
3.19886e-07
3.19495e-06
3.19583e-06
1.80084e-06
8.87907e-06
1.80144e-06
8.87874e-06
2.14073e-05
2.14076e-05
1.80074e-06
8.88122e-06
1.80128e-06
8.88091e-06
2.56956e-07
2.56958e-07
2.56958e-07
2.56953e-07
2.56954e-07
2.56956e-07
2.56955e-07
5.43495e-07
1.44085e-06
2.66936e-07
2.85673e-07
5.43659e-07
1.43999e-06
2.66937e-07
2.14079e-05
2.14081e-05
5.43494e-07
2.66936e-07
1.44077e-06
2.8568e-07
5.43661e-07
2.66937e-07
1.43995e-06
3.19559e-06
3.19646e-06
3.19894e-07
3.19503e-06
3.19592e-06
1.80083e-06
8.87918e-06
1.80143e-06
8.8789e-06
2.14079e-05
2.14083e-05
1.80074e-06
8.88132e-06
1.80128e-06
8.88107e-06
2.56953e-07
2.56956e-07
2.56955e-07
2.5695e-07
2.56952e-07
2.56953e-07
2.56952e-07
5.43505e-07
1.44086e-06
2.66935e-07
2.85675e-07
5.43674e-07
1.43998e-06
2.66936e-07
2.14086e-05
2.14089e-05
5.43504e-07
2.66936e-07
1.44078e-06
2.85683e-07
5.43672e-07
2.66937e-07
1.43996e-06
3.19561e-06
3.19648e-06
3.19901e-07
3.19501e-06
3.19589e-06
1.80098e-06
8.87955e-06
1.80148e-06
8.87932e-06
2.14087e-05
2.14086e-05
1.80089e-06
8.8817e-06
1.80133e-06
8.8815e-06
2.56954e-07
2.56953e-07
2.56952e-07
2.56941e-07
2.56944e-07
2.56945e-07
2.56943e-07
5.43507e-07
1.44088e-06
2.66934e-07
2.85676e-07
5.43675e-07
1.44006e-06
2.66934e-07
2.1409e-05
2.14086e-05
5.43512e-07
2.66936e-07
1.44084e-06
2.85682e-07
5.43681e-07
2.66935e-07
1.44006e-06
3.19565e-06
3.19655e-06
3.19902e-07
3.19514e-06
3.19604e-06
1.80087e-06
8.87971e-06
1.80158e-06
8.87927e-06
2.14075e-05
2.14074e-05
1.80077e-06
8.88187e-06
1.80143e-06
8.88145e-06
2.56929e-07
2.56928e-07
2.56927e-07
2.56859e-07
2.56861e-07
2.56861e-07
2.5686e-07
5.4342e-07
1.44095e-06
2.66909e-07
2.85625e-07
5.43649e-07
1.44002e-06
2.66887e-07
2.14079e-05
2.14076e-05
5.43405e-07
2.66904e-07
1.44086e-06
2.85621e-07
5.43637e-07
2.66882e-07
1.43995e-06
3.19571e-06
3.19659e-06
3.19841e-07
3.19504e-06
3.19592e-06
1.80066e-06
8.87952e-06
1.80131e-06
8.87909e-06
2.14071e-05
2.14071e-05
1.80057e-06
8.88168e-06
1.80117e-06
8.88129e-06
2.5685e-07
2.56852e-07
2.5685e-07
2.5684e-07
2.56841e-07
2.56845e-07
2.56843e-07
5.43319e-07
1.44076e-06
2.66828e-07
2.85554e-07
5.43513e-07
1.43983e-06
2.66824e-07
2.14074e-05
2.14073e-05
5.43319e-07
2.66828e-07
1.44066e-06
2.85562e-07
5.4351e-07
2.66825e-07
1.4398e-06
3.19545e-06
3.19634e-06
3.19752e-07
3.19481e-06
3.19571e-06
1.80062e-06
8.87943e-06
1.80122e-06
8.87903e-06
2.1407e-05
2.14072e-05
1.80053e-06
8.88161e-06
1.80108e-06
8.88125e-06
2.56843e-07
2.56847e-07
2.56845e-07
2.5684e-07
2.56841e-07
2.56845e-07
2.56843e-07
5.43302e-07
1.44066e-06
2.6682e-07
2.85552e-07
5.43474e-07
1.43978e-06
2.66822e-07
2.14073e-05
2.14073e-05
5.43309e-07
2.66823e-07
1.4406e-06
2.85562e-07
5.43481e-07
2.66824e-07
1.43976e-06
3.19533e-06
3.19624e-06
3.19768e-07
3.19474e-06
3.19566e-06
1.80061e-06
8.87949e-06
1.80121e-06
8.8791e-06
2.14075e-05
2.14075e-05
1.80052e-06
8.88162e-06
1.80107e-06
8.88113e-06
2.56843e-07
2.56846e-07
2.56844e-07
2.5684e-07
2.56841e-07
2.56845e-07
2.56843e-07
5.433e-07
1.44064e-06
2.66819e-07
2.8555e-07
5.43472e-07
1.43977e-06
2.66821e-07
2.14073e-05
2.14073e-05
5.43306e-07
2.66822e-07
1.44059e-06
2.85561e-07
5.43479e-07
2.66823e-07
1.43975e-06
3.19532e-06
3.19623e-06
3.19762e-07
3.19474e-06
3.19566e-06
1.80061e-06
8.8795e-06
1.80121e-06
8.87921e-06
2.14074e-05
2.14077e-05
1.80052e-06
8.88149e-06
1.80107e-06
8.88111e-06
2.56843e-07
2.56846e-07
2.56844e-07
2.5684e-07
2.56841e-07
2.56845e-07
2.56843e-07
5.43301e-07
1.44064e-06
2.66819e-07
2.8555e-07
5.43471e-07
1.43977e-06
2.66821e-07
2.14073e-05
2.14073e-05
5.43313e-07
2.66822e-07
1.44059e-06
2.85561e-07
5.43483e-07
2.66823e-07
1.43975e-06
3.19532e-06
3.19623e-06
3.19762e-07
3.19474e-06
3.19566e-06
1.80061e-06
8.87962e-06
1.80121e-06
8.87931e-06
2.14076e-05
2.14078e-05
1.80052e-06
8.88145e-06
1.80107e-06
8.88107e-06
2.56842e-07
2.56846e-07
2.56844e-07
2.5684e-07
2.56841e-07
2.56845e-07
2.56843e-07
5.43301e-07
1.44064e-06
2.66819e-07
2.8555e-07
5.43472e-07
1.43977e-06
2.66821e-07
2.14073e-05
2.14073e-05
5.4332e-07
2.66822e-07
1.44059e-06
2.85561e-07
5.43493e-07
2.66823e-07
1.43975e-06
3.19532e-06
3.19623e-06
3.19763e-07
3.19474e-06
3.19566e-06
1.80061e-06
8.8797e-06
1.80121e-06
8.87937e-06
2.14076e-05
2.14077e-05
1.80052e-06
8.88142e-06
1.80107e-06
8.88105e-06
2.56842e-07
2.56846e-07
2.56844e-07
2.5684e-07
2.56841e-07
2.56845e-07
2.56843e-07
5.43301e-07
1.44064e-06
2.66819e-07
2.8555e-07
5.43472e-07
1.43977e-06
2.66821e-07
2.14073e-05
2.14073e-05
5.43323e-07
2.66822e-07
1.44059e-06
2.85561e-07
5.43497e-07
2.66823e-07
1.43975e-06
3.19532e-06
3.19623e-06
3.19765e-07
3.19474e-06
3.19566e-06
1.80061e-06
8.87975e-06
1.80121e-06
8.87942e-06
2.14076e-05
2.14077e-05
1.80052e-06
8.8814e-06
1.80107e-06
8.88103e-06
2.56842e-07
2.56846e-07
2.56844e-07
2.5684e-07
2.56841e-07
2.56845e-07
2.56843e-07
5.433e-07
1.44064e-06
2.66819e-07
2.85549e-07
5.43471e-07
1.43977e-06
2.66821e-07
2.14073e-05
2.14073e-05
5.43322e-07
2.66822e-07
1.44059e-06
2.85561e-07
5.43498e-07
2.66823e-07
1.43975e-06
3.19532e-06
3.19623e-06
3.19764e-07
3.19474e-06
3.19566e-06
1.80061e-06
8.87978e-06
1.80121e-06
8.87945e-06
2.14076e-05
2.14077e-05
1.80052e-06
8.88139e-06
1.80107e-06
8.88102e-06
2.56842e-07
2.56846e-07
2.56844e-07
2.5684e-07
2.56841e-07
2.56845e-07
2.56843e-07
5.433e-07
1.44064e-06
2.66819e-07
2.85549e-07
5.43471e-07
1.43977e-06
2.66821e-07
2.14073e-05
2.14073e-05
5.43322e-07
2.66822e-07
1.44059e-06
2.85561e-07
5.43498e-07
2.66823e-07
1.43975e-06
3.19532e-06
3.19623e-06
3.19762e-07
3.19474e-06
3.19566e-06
1.80061e-06
8.87981e-06
1.80121e-06
8.87947e-06
2.14075e-05
2.14077e-05
1.80052e-06
8.88138e-06
1.80107e-06
8.88102e-06
2.56842e-07
2.56846e-07
2.56844e-07
2.5684e-07
2.56841e-07
2.56845e-07
2.56843e-07
5.43299e-07
1.44064e-06
2.66819e-07
2.85549e-07
5.4347e-07
1.43977e-06
2.6682e-07
2.14073e-05
2.14073e-05
5.43322e-07
2.66822e-07
1.44059e-06
2.85561e-07
5.43498e-07
2.66823e-07
1.43975e-06
3.19532e-06
3.19623e-06
3.19763e-07
3.19474e-06
3.19566e-06
8.87982e-06
1.80121e-06
2.14075e-05
8.88138e-06
1.80107e-06
2.56843e-07
2.56847e-07
2.56845e-07
1.44064e-06
2.66821e-07
5.43471e-07
2.14074e-05
2.66824e-07
1.44059e-06
5.43498e-07
3.19532e-06
3.19623e-06
2.1408e-05
2.14088e-05
2.14108e-05
2.14116e-05
3.20109e-07
3.19445e-06
3.1953e-06
3.19486e-06
3.19577e-06
1.80104e-06
8.87905e-06
8.87958e-06
1.80056e-06
1.80107e-06
8.88033e-06
8.88083e-06
1.80059e-06
5.43547e-07
2.85676e-07
1.43971e-06
2.66932e-07
1.44049e-06
2.66932e-07
5.43383e-07
5.43551e-07
2.85683e-07
1.43981e-06
2.66933e-07
1.44055e-06
2.66933e-07
5.43387e-07
2.14105e-05
3.19491e-06
3.19392e-06
2.1408e-05
1.8009e-06
8.88125e-06
8.88175e-06
1.80047e-06
5.4357e-07
2.85661e-07
1.43985e-06
2.66932e-07
1.44059e-06
2.66932e-07
5.43411e-07
1.80089e-06
8.88045e-06
8.88098e-06
1.80046e-06
5.43559e-07
2.8569e-07
2.66935e-07
1.43997e-06
2.66935e-07
1.44076e-06
5.43397e-07
1.43962e-06
2.66929e-07
2.66929e-07
5.43385e-07
8.87992e-06
1.80055e-06
2.85682e-07
2.66932e-07
1.43964e-06
2.66932e-07
5.4339e-07
8.88054e-06
1.80055e-06
2.14099e-05
2.14108e-05
3.20117e-07
3.1951e-06
3.1944e-06
3.19565e-06
3.19493e-06
2.14102e-05
2.14111e-05
5.43556e-07
2.85664e-07
2.66931e-07
1.43967e-06
2.66932e-07
1.44041e-06
5.43394e-07
5.43575e-07
2.85663e-07
2.66932e-07
1.43986e-06
2.66932e-07
1.4406e-06
5.43408e-07
1.80089e-06
8.88066e-06
8.88116e-06
1.80046e-06
1.80089e-06
8.88131e-06
8.88182e-06
1.80046e-06
3.20118e-07
3.1941e-06
3.19534e-06
3.19586e-06
2.14108e-05
2.14109e-05
2.14118e-05
2.14078e-05
2.1407e-05
2.14103e-05
2.14097e-05
3.19516e-06
3.19587e-06
3.19853e-07
3.19472e-06
3.19543e-06
2.14064e-05
2.1407e-05
2.1409e-05
2.14094e-05
3.20128e-07
3.19481e-06
3.19554e-06
3.19538e-06
3.19599e-06
1.80069e-06
8.88064e-06
1.80121e-06
8.88017e-06
5.43399e-07
1.4406e-06
2.66934e-07
2.85679e-07
5.43563e-07
1.4398e-06
2.66934e-07
5.43403e-07
1.44065e-06
2.66936e-07
2.85686e-07
5.43566e-07
1.43989e-06
2.66936e-07
1.80128e-06
8.87881e-06
8.87924e-06
1.80074e-06
1.80131e-06
8.88007e-06
8.88049e-06
1.80077e-06
5.43579e-07
2.85679e-07
1.43987e-06
2.66933e-07
1.44069e-06
2.66933e-07
5.43417e-07
5.43583e-07
2.85686e-07
1.43996e-06
2.66935e-07
1.44073e-06
2.66935e-07
5.43421e-07
3.19549e-06
3.19463e-06
3.19848e-07
3.19508e-06
3.19423e-06
2.14079e-05
2.14068e-05
2.14081e-05
2.14087e-05
3.20124e-07
3.19523e-06
3.19443e-06
3.19565e-06
3.19491e-06
2.1406e-05
2.14068e-05
5.43427e-07
1.4407e-06
2.66934e-07
2.85664e-07
5.43586e-07
1.43993e-06
2.66934e-07
1.80056e-06
8.88078e-06
1.80103e-06
8.88028e-06
5.43414e-07
2.66938e-07
1.44086e-06
2.85693e-07
5.43575e-07
2.66938e-07
1.44006e-06
1.80114e-06
8.88097e-06
8.8814e-06
1.80065e-06
5.43603e-07
2.85663e-07
1.43999e-06
2.66932e-07
1.44078e-06
2.66932e-07
5.43445e-07
1.80112e-06
8.88018e-06
8.88063e-06
1.80064e-06
5.43592e-07
2.85693e-07
2.66937e-07
1.44012e-06
2.66937e-07
1.44094e-06
5.43432e-07
1.80067e-06
8.88026e-06
1.80118e-06
8.87975e-06
5.43405e-07
2.66934e-07
1.44049e-06
2.85684e-07
5.43567e-07
2.66934e-07
1.43973e-06
1.80066e-06
8.88084e-06
1.80117e-06
8.88035e-06
5.43577e-07
2.85659e-07
1.4398e-06
2.66931e-07
1.4406e-06
2.66931e-07
5.43413e-07
1.80128e-06
8.87965e-06
8.8801e-06
1.80073e-06
5.43582e-07
2.85684e-07
2.66933e-07
1.43979e-06
2.66933e-07
1.44057e-06
5.4342e-07
1.80127e-06
8.88021e-06
8.88067e-06
1.80072e-06
3.19579e-06
3.19497e-06
3.19863e-07
3.19535e-06
3.19455e-06
2.14097e-05
2.1409e-05
2.14082e-05
2.14088e-05
3.20136e-07
3.19551e-06
3.19467e-06
3.19601e-06
3.19511e-06
2.14082e-05
2.14087e-05
5.43425e-07
2.66934e-07
1.44071e-06
2.85666e-07
5.43591e-07
2.66934e-07
1.43994e-06
1.80057e-06
8.88096e-06
1.80103e-06
8.88048e-06
1.80057e-06
8.88162e-06
1.80104e-06
8.88114e-06
5.4359e-07
2.85668e-07
2.66932e-07
1.43982e-06
2.66933e-07
1.44059e-06
5.43428e-07
5.43608e-07
2.85666e-07
2.66933e-07
1.44e-06
2.66933e-07
1.44079e-06
5.43442e-07
1.80113e-06
8.88038e-06
8.8808e-06
1.80064e-06
1.80113e-06
8.88103e-06
8.88146e-06
1.80064e-06
2.14102e-05
2.14093e-05
2.14104e-05
2.14097e-05
3.20137e-07
3.19449e-06
3.19562e-06
3.19491e-06
3.19606e-06
2.14084e-05
2.1409e-05
2.14089e-05
2.14094e-05
2.14063e-05
2.14059e-05
2.14088e-05
2.14086e-05
3.19544e-06
3.1961e-06
3.1986e-07
3.1948e-06
3.19563e-06
2.14056e-05
2.14059e-05
2.14083e-05
2.14084e-05
3.20135e-07
3.19477e-06
3.19566e-06
3.19541e-06
3.19618e-06
1.80082e-06
8.88041e-06
1.80137e-06
8.88002e-06
5.43434e-07
1.44075e-06
2.66936e-07
2.85682e-07
5.43597e-07
1.43991e-06
2.66936e-07
5.43438e-07
1.44079e-06
2.66937e-07
2.85689e-07
5.43601e-07
1.44001e-06
2.66937e-07
1.80139e-06
8.87873e-06
8.87914e-06
1.80083e-06
1.80142e-06
8.87996e-06
8.88036e-06
1.80085e-06
5.43614e-07
2.85682e-07
1.43994e-06
2.66935e-07
1.44078e-06
2.66935e-07
5.4345e-07
5.43617e-07
2.8569e-07
1.44004e-06
2.66937e-07
1.44084e-06
2.66936e-07
5.43453e-07
3.1958e-06
3.19508e-06
3.19855e-07
3.19535e-06
3.19456e-06
2.1406e-05
2.14055e-05
2.14071e-05
2.14074e-05
3.2013e-07
3.19542e-06
3.19463e-06
3.1959e-06
3.19519e-06
2.14051e-05
2.14054e-05
5.43462e-07
1.44084e-06
2.66934e-07
2.85666e-07
5.43621e-07
1.44004e-06
2.66934e-07
1.80069e-06
8.88055e-06
1.80119e-06
8.88015e-06
5.43449e-07
2.66939e-07
1.441e-06
2.85696e-07
5.4361e-07
2.66939e-07
1.44017e-06
1.80125e-06
8.88087e-06
8.88126e-06
1.80074e-06
5.43637e-07
2.85666e-07
1.44007e-06
2.66934e-07
1.44088e-06
2.66933e-07
5.43478e-07
1.80124e-06
8.88011e-06
8.88052e-06
1.80072e-06
5.43626e-07
2.85696e-07
2.66938e-07
1.4402e-06
2.66938e-07
1.44105e-06
5.43464e-07
1.80075e-06
8.88001e-06
1.80133e-06
8.87961e-06
5.4343e-07
2.66936e-07
1.44063e-06
2.85687e-07
5.43596e-07
2.66936e-07
1.43983e-06
1.80074e-06
8.88054e-06
1.80132e-06
8.88012e-06
5.436e-07
2.85663e-07
1.43991e-06
2.66933e-07
1.44073e-06
2.66934e-07
5.43436e-07
1.80134e-06
8.87959e-06
8.87999e-06
1.80077e-06
5.43607e-07
2.85686e-07
2.66935e-07
1.43985e-06
2.66935e-07
1.44066e-06
5.43443e-07
1.80134e-06
8.88006e-06
8.88045e-06
1.80076e-06
3.19615e-06
3.19523e-06
3.1987e-07
3.1956e-06
3.19477e-06
2.14081e-05
2.14078e-05
2.14075e-05
2.14078e-05
3.20144e-07
3.19565e-06
3.19481e-06
3.19623e-06
3.19532e-06
2.14076e-05
2.14078e-05
5.43458e-07
2.66936e-07
1.44085e-06
2.8567e-07
5.43625e-07
2.66936e-07
1.44005e-06
1.80069e-06
8.88072e-06
1.8012e-06
8.88033e-06
1.80069e-06
8.88138e-06
1.8012e-06
8.88099e-06
5.43622e-07
2.85671e-07
2.66934e-07
1.4399e-06
2.66934e-07
1.4407e-06
5.43458e-07
5.43641e-07
2.85669e-07
2.66935e-07
1.44008e-06
2.66935e-07
1.4409e-06
5.43474e-07
1.80124e-06
8.88029e-06
8.88068e-06
1.80073e-06
1.80125e-06
8.88093e-06
8.88133e-06
1.80072e-06
2.14082e-05
2.14079e-05
2.14088e-05
2.14085e-05
3.20144e-07
3.19473e-06
3.19576e-06
3.19519e-06
3.19626e-06
2.14077e-05
2.14079e-05
2.14083e-05
2.14085e-05
2.14056e-05
2.14054e-05
2.14082e-05
2.14082e-05
3.1954e-06
3.1962e-06
3.19868e-07
3.19479e-06
3.19567e-06
2.14054e-05
2.14055e-05
2.14083e-05
2.14081e-05
3.20143e-07
3.19483e-06
3.19569e-06
3.19542e-06
3.1962e-06
1.80087e-06
8.88031e-06
1.80145e-06
8.87992e-06
5.43462e-07
1.44081e-06
2.66938e-07
2.85686e-07
5.43629e-07
1.43996e-06
2.66938e-07
5.43465e-07
1.44087e-06
2.66939e-07
2.85693e-07
5.43632e-07
1.44006e-06
2.66939e-07
1.80144e-06
8.87866e-06
8.87905e-06
1.80086e-06
1.80146e-06
8.8799e-06
8.88027e-06
1.80088e-06
5.43641e-07
2.85686e-07
1.43997e-06
2.66937e-07
1.44082e-06
2.66937e-07
5.43474e-07
5.43644e-07
2.85694e-07
1.44007e-06
2.66939e-07
1.44088e-06
2.66938e-07
5.43477e-07
3.19597e-06
3.19525e-06
3.19861e-07
3.19545e-06
3.19468e-06
2.14051e-05
2.14049e-05
2.14071e-05
2.14071e-05
3.20136e-07
3.19547e-06
3.19472e-06
3.19599e-06
3.19531e-06
2.14048e-05
2.14049e-05
5.43491e-07
1.44091e-06
2.66937e-07
2.8567e-07
5.43653e-07
1.44009e-06
2.66937e-07
1.80074e-06
8.88048e-06
1.80127e-06
8.88007e-06
5.43477e-07
2.66941e-07
1.44108e-06
2.857e-07
5.43642e-07
2.66941e-07
1.44023e-06
1.8013e-06
8.88081e-06
8.88117e-06
1.80077e-06
5.43665e-07
2.8567e-07
1.4401e-06
2.66936e-07
1.44092e-06
2.66936e-07
5.43502e-07
1.80128e-06
8.88005e-06
8.88045e-06
1.80075e-06
5.43654e-07
2.857e-07
2.6694e-07
1.44024e-06
2.6694e-07
1.4411e-06
5.43488e-07
1.8008e-06
8.87997e-06
1.80137e-06
8.87956e-06
5.43455e-07
2.66937e-07
1.44067e-06
2.8569e-07
5.43619e-07
2.66937e-07
1.43986e-06
1.8008e-06
8.88041e-06
1.80136e-06
8.88003e-06
5.43626e-07
2.85667e-07
1.43995e-06
2.66935e-07
1.4408e-06
2.66936e-07
5.43462e-07
1.8014e-06
8.87953e-06
8.87993e-06
1.80084e-06
5.43632e-07
2.8569e-07
2.66936e-07
1.43988e-06
2.66936e-07
1.44069e-06
5.4347e-07
1.8014e-06
8.88003e-06
8.88039e-06
1.80083e-06
3.19627e-06
3.19535e-06
3.19877e-07
3.19568e-06
3.19483e-06
2.14076e-05
2.14076e-05
2.14073e-05
2.14074e-05
3.20151e-07
3.19572e-06
3.19484e-06
3.19631e-06
3.19536e-06
2.14076e-05
2.14076e-05
5.43487e-07
2.66937e-07
1.44092e-06
2.85673e-07
5.43657e-07
2.66937e-07
1.4401e-06
1.80074e-06
8.88063e-06
1.80127e-06
8.88024e-06
1.80074e-06
8.88128e-06
1.80127e-06
8.88089e-06
5.43647e-07
2.85675e-07
2.66935e-07
1.43993e-06
2.66936e-07
1.44074e-06
5.43479e-07
5.43669e-07
2.85673e-07
2.66937e-07
1.44011e-06
2.66937e-07
1.44093e-06
5.43497e-07
1.80128e-06
8.88023e-06
8.88059e-06
1.80075e-06
1.80129e-06
8.88087e-06
8.88124e-06
1.80075e-06
2.14077e-05
2.14077e-05
2.14083e-05
2.14082e-05
3.20152e-07
3.1949e-06
3.1958e-06
3.19538e-06
3.19631e-06
2.14078e-05
2.14077e-05
2.14083e-05
2.14082e-05
2.14055e-05
2.14056e-05
2.14082e-05
2.14084e-05
3.19546e-06
3.19623e-06
3.19877e-07
3.19487e-06
3.19573e-06
2.14058e-05
2.14058e-05
2.14086e-05
2.14084e-05
3.20152e-07
3.19492e-06
3.19579e-06
3.19551e-06
3.19628e-06
1.80088e-06
8.88026e-06
1.80147e-06
8.87991e-06
5.43483e-07
1.44084e-06
2.6694e-07
2.8569e-07
5.43652e-07
1.43998e-06
2.6694e-07
5.43485e-07
1.44089e-06
2.66941e-07
2.85698e-07
5.43655e-07
1.44008e-06
2.66941e-07
1.80144e-06
8.87868e-06
8.87904e-06
1.80084e-06
1.80147e-06
8.87994e-06
8.88027e-06
1.80087e-06
5.4366e-07
2.85689e-07
1.43999e-06
2.66938e-07
1.44085e-06
2.66938e-07
5.43488e-07
5.43662e-07
2.85698e-07
1.44009e-06
2.6694e-07
1.4409e-06
2.6694e-07
5.43491e-07
3.19601e-06
3.19535e-06
3.19869e-07
3.1955e-06
3.19477e-06
2.14049e-05
2.14049e-05
2.14074e-05
2.14072e-05
3.20144e-07
3.19555e-06
3.19482e-06
3.19604e-06
3.19539e-06
2.14051e-05
2.1405e-05
5.43508e-07
1.44093e-06
2.66938e-07
2.85674e-07
5.43676e-07
1.44011e-06
2.66939e-07
1.80075e-06
8.88043e-06
1.80129e-06
8.88005e-06
5.43495e-07
2.66943e-07
1.44111e-06
2.85704e-07
5.43664e-07
2.66943e-07
1.44025e-06
1.80129e-06
8.88086e-06
8.88119e-06
1.80074e-06
5.43681e-07
2.85673e-07
1.44012e-06
2.66937e-07
1.44094e-06
2.66937e-07
5.43513e-07
1.80128e-06
8.88007e-06
8.88043e-06
1.80073e-06
5.4367e-07
2.85704e-07
2.66942e-07
1.44026e-06
2.66942e-07
1.44112e-06
5.435e-07
1.80087e-06
8.87991e-06
1.80144e-06
8.87952e-06
5.43482e-07
2.66939e-07
1.44071e-06
2.85694e-07
5.43646e-07
2.66939e-07
1.43991e-06
1.80086e-06
8.88039e-06
1.80143e-06
8.88006e-06
5.43651e-07
2.85671e-07
1.43998e-06
2.66936e-07
1.44083e-06
2.66937e-07
5.43486e-07
1.80146e-06
8.87955e-06
8.87991e-06
1.80088e-06
5.43659e-07
2.85695e-07
2.66938e-07
1.43994e-06
2.66938e-07
1.44074e-06
5.43494e-07
1.80146e-06
8.8801e-06
8.88042e-06
1.80088e-06
3.19634e-06
3.19538e-06
3.19886e-07
3.19575e-06
3.19488e-06
2.14076e-05
2.14078e-05
2.14077e-05
2.14077e-05
3.2016e-07
3.1958e-06
3.19493e-06
3.19638e-06
3.19543e-06
2.14079e-05
2.14078e-05
5.43503e-07
2.66939e-07
1.44095e-06
2.85677e-07
5.43678e-07
2.66939e-07
1.44012e-06
1.80074e-06
8.88058e-06
1.80128e-06
8.88024e-06
1.80074e-06
8.88123e-06
1.80129e-06
8.88089e-06
5.4366e-07
2.85678e-07
2.66936e-07
1.43995e-06
2.66936e-07
1.44076e-06
5.43488e-07
5.43683e-07
2.85677e-07
2.66938e-07
1.44013e-06
2.66938e-07
1.44096e-06
5.43508e-07
1.80127e-06
8.88027e-06
8.8806e-06
1.80072e-06
1.80128e-06
8.88092e-06
8.88125e-06
1.80073e-06
2.14078e-05
2.14079e-05
2.14083e-05
2.14084e-05
3.20161e-07
3.195e-06
3.19588e-06
3.19551e-06
3.19638e-06
2.14081e-05
2.14079e-05
2.14086e-05
2.14084e-05
2.1406e-05
2.14062e-05
2.14086e-05
2.14089e-05
3.19556e-06
3.19633e-06
3.19885e-07
3.19496e-06
3.19583e-06
2.14064e-05
2.14064e-05
2.14092e-05
2.14089e-05
3.2016e-07
3.19497e-06
3.19584e-06
3.19559e-06
3.19637e-06
1.80086e-06
8.88031e-06
1.80145e-06
8.87998e-06
5.43493e-07
1.44086e-06
2.66939e-07
2.85693e-07
5.43665e-07
1.44e-06
2.66939e-07
5.43496e-07
1.44091e-06
2.66942e-07
2.85702e-07
5.43668e-07
1.4401e-06
2.66941e-07
1.80142e-06
8.87879e-06
8.87914e-06
1.80082e-06
1.80144e-06
8.88003e-06
8.88035e-06
1.80085e-06
5.43669e-07
2.85692e-07
1.44e-06
2.66937e-07
1.44086e-06
2.66938e-07
5.43496e-07
5.43672e-07
2.85701e-07
1.4401e-06
2.66937e-07
1.44092e-06
2.66938e-07
5.435e-07
3.19609e-06
3.19545e-06
3.19877e-07
3.19559e-06
3.19486e-06
2.14053e-05
2.14054e-05
2.14079e-05
2.14076e-05
3.20153e-07
3.19562e-06
3.19489e-06
3.19613e-06
3.19548e-06
2.14057e-05
2.14056e-05
5.43518e-07
1.44095e-06
2.6694e-07
2.85677e-07
5.43686e-07
1.44013e-06
2.6694e-07
1.80073e-06
8.88047e-06
1.80126e-06
8.88013e-06
5.43506e-07
2.66943e-07
1.44113e-06
2.85707e-07
5.43675e-07
2.66942e-07
1.44027e-06
1.80127e-06
8.88096e-06
8.88128e-06
1.80073e-06
5.43691e-07
2.85676e-07
1.44013e-06
2.66938e-07
1.44096e-06
2.66938e-07
5.43523e-07
1.80126e-06
8.88018e-06
8.88053e-06
1.80072e-06
5.43681e-07
2.85705e-07
2.66938e-07
1.44027e-06
2.66939e-07
1.44114e-06
5.4351e-07
1.80089e-06
8.87995e-06
1.80147e-06
8.87959e-06
5.43504e-07
2.66941e-07
1.44077e-06
2.85698e-07
5.4367e-07
2.66941e-07
1.43996e-06
1.80089e-06
8.88047e-06
1.80147e-06
8.88016e-06
5.43671e-07
2.85673e-07
1.43999e-06
2.66935e-07
1.44085e-06
2.66937e-07
5.43502e-07
1.80148e-06
8.87963e-06
8.87998e-06
1.80088e-06
5.43679e-07
2.85697e-07
2.66938e-07
1.43997e-06
2.6694e-07
1.44079e-06
5.4351e-07
1.80148e-06
8.88022e-06
8.88053e-06
1.80088e-06
3.19643e-06
3.19547e-06
3.19894e-07
3.19584e-06
3.19497e-06
2.14079e-05
2.14082e-05
2.14084e-05
2.14083e-05
3.20168e-07
3.19584e-06
3.19498e-06
3.19646e-06
3.19551e-06
2.14085e-05
2.14082e-05
5.43514e-07
2.6694e-07
1.44096e-06
2.85681e-07
5.43688e-07
2.66939e-07
1.44014e-06
1.80072e-06
8.88064e-06
1.80125e-06
8.88032e-06
1.80073e-06
8.88129e-06
1.80127e-06
8.88097e-06
5.43669e-07
2.8568e-07
2.66936e-07
1.43995e-06
2.66937e-07
1.44077e-06
5.43499e-07
5.43694e-07
2.85679e-07
2.66935e-07
1.44014e-06
2.66936e-07
1.44097e-06
5.43519e-07
1.80125e-06
8.88037e-06
8.88069e-06
1.80071e-06
1.80126e-06
8.88102e-06
8.88135e-06
1.80071e-06
2.14081e-05
2.14084e-05
2.14086e-05
2.14089e-05
3.20169e-07
3.19504e-06
3.19593e-06
3.19557e-06
3.19645e-06
2.14086e-05
2.14084e-05
2.14092e-05
2.14089e-05
2.14067e-05
2.14069e-05
2.14092e-05
2.14096e-05
3.19558e-06
3.19636e-06
3.19892e-07
3.19494e-06
3.19581e-06
2.14071e-05
2.14071e-05
2.14099e-05
2.14096e-05
3.20167e-07
3.19499e-06
3.19586e-06
3.19556e-06
3.19634e-06
1.80086e-06
8.88039e-06
1.80144e-06
8.88007e-06
5.43496e-07
1.44086e-06
2.66937e-07
2.85694e-07
5.43673e-07
1.44001e-06
2.66936e-07
5.43499e-07
1.44092e-06
2.66938e-07
2.85703e-07
5.43676e-07
1.4401e-06
2.66938e-07
1.80142e-06
8.87912e-06
8.87934e-06
1.80084e-06
1.80144e-06
8.88028e-06
8.88046e-06
1.80086e-06
5.43671e-07
2.85693e-07
1.44004e-06
2.66934e-07
1.44087e-06
2.66934e-07
5.43496e-07
5.43674e-07
2.85702e-07
1.44012e-06
2.66936e-07
1.44092e-06
2.66936e-07
5.43498e-07
3.19615e-06
3.1955e-06
3.19884e-07
3.19558e-06
3.19486e-06
2.14059e-05
2.14062e-05
2.14089e-05
2.14084e-05
3.2016e-07
3.19558e-06
3.19486e-06
3.1961e-06
3.19546e-06
2.14067e-05
2.14064e-05
5.43523e-07
1.44095e-06
2.66936e-07
2.85678e-07
5.43695e-07
1.44013e-06
2.66935e-07
1.80073e-06
8.88058e-06
1.80126e-06
8.88029e-06
5.4351e-07
2.66939e-07
1.44113e-06
2.85707e-07
5.43685e-07
2.66939e-07
1.44027e-06
1.80127e-06
8.8813e-06
8.88148e-06
1.80075e-06
5.43694e-07
2.85677e-07
1.44017e-06
2.66933e-07
1.44097e-06
2.66933e-07
5.43523e-07
1.80126e-06
8.88051e-06
8.88072e-06
1.80074e-06
5.43683e-07
2.85706e-07
2.66937e-07
1.44031e-06
2.66937e-07
1.44114e-06
5.43509e-07
1.80089e-06
8.88002e-06
1.80147e-06
8.87967e-06
5.43511e-07
2.66938e-07
1.44079e-06
2.85699e-07
5.43685e-07
2.66938e-07
1.43998e-06
1.80089e-06
8.88059e-06
1.80146e-06
8.88031e-06
5.4368e-07
2.85675e-07
1.44e-06
2.66935e-07
1.44084e-06
2.66935e-07