/*--------------------------------*- C++ -*----------------------------------*\
| =========                 |                                                 |
| \\      /  F ield         | OpenFOAM: The Open Source CFD Toolbox           |
|  \\    /   O peration     | Version:  2206                                  |
|   \\  /    A nd           | Website:  www.openfoam.com                      |
|    \\/     M anipulation  |                                                 |
\*---------------------------------------------------------------------------*/
FoamFile
{
    version     2.0;
    format      ascii;
    arch        "LSB;label=32;scalar=64";
    class       surfaceScalarField;
    location    "34";
    object      phi;
}
// * * * * * * * * * * * * * * * * * * * * * * * * * * * * * * * * * * * * * //

dimensions      [0 3 -1 0 0 0 0];

oriented        oriented;

internalField   nonuniform List<scalar> 
83348
(
1.67303e-09
1.8598e-09
-0.00109173
-1.80146e-09
-1.76154e-09
0.00109173
-0.00109135
-1.21362e-06
-1.84733e-09
3.30979e-09
0.00109135
-2.62029e-07
1.21654e-06
2.60729e-07
9.02251e-07
-2.63482e-07
-9.01749e-07
2.59922e-07
-0.001091
-1.20819e-06
-1.84666e-09
3.26518e-09
0.001091
-2.59252e-07
1.2111e-06
2.57961e-07
9.02087e-07
-2.66102e-07
-9.01613e-07
2.62605e-07
-0.000268043
1.24202e-06
1.20831e-06
-2.34967e-07
-2.40283e-07
0.000266068
1.73467e-09
1.9242e-09
-0.00109173
-1.83783e-09
-1.78923e-09
0.00109173
-0.00109135
-1.21359e-06
-1.90654e-09
3.28654e-09
0.00109135
-2.62008e-07
1.21654e-06
2.6074e-07
9.02257e-07
-2.63445e-07
-9.01731e-07
2.59948e-07
-0.001091
-1.20818e-06
-1.90943e-09
3.25255e-09
0.001091
-2.59236e-07
1.2111e-06
2.57968e-07
9.02095e-07
-2.6607e-07
-9.01597e-07
2.62629e-07
-0.000268043
1.242e-06
1.2083e-06
-2.3495e-07
-2.40263e-07
0.000266068
1.76171e-09
1.97165e-09
-0.00109173
-1.85522e-09
-1.80577e-09
0.00109173
-0.00109135
-1.21358e-06
-1.9749e-09
3.26324e-09
0.00109135
-2.61995e-07
1.21655e-06
2.60754e-07
9.02283e-07
-2.63408e-07
-9.0171e-07
2.59991e-07
-0.001091
-1.20816e-06
-1.95829e-09
3.22868e-09
0.001091
-2.59221e-07
1.21111e-06
2.57986e-07
9.02109e-07
-2.66032e-07
-9.01588e-07
2.62672e-07
-0.000268043
1.24199e-06
1.20828e-06
-2.34934e-07
-2.40244e-07
0.000266068
1.85262e-09
2.0234e-09
-0.00109173
-1.87609e-09
-1.83828e-09
0.00109173
-0.00109135
-1.21355e-06
-2.06606e-09
3.19007e-09
0.00109135
-2.61977e-07
1.21659e-06
2.60781e-07
9.02322e-07
-2.63375e-07
-9.01685e-07
2.60035e-07
-0.001091
-1.20813e-06
-2.00786e-09
3.19295e-09
0.001091
-2.59199e-07
1.21114e-06
2.58014e-07
9.02148e-07
-2.66005e-07
-9.01561e-07
2.62711e-07
-0.000268043
1.24196e-06
1.20826e-06
-2.3491e-07
-2.40213e-07
0.000266068
2.06401e-09
2.23645e-09
-0.00109172
-1.94712e-09
-1.92725e-09
0.00109172
-0.00109134
-1.21352e-06
-2.29235e-09
3.09641e-09
0.00109134
-2.61943e-07
1.21663e-06
2.6084e-07
9.02387e-07
-2.63345e-07
-9.01644e-07
2.60103e-07
-0.001091
-1.20811e-06
-2.23283e-09
3.10274e-09
0.001091
-2.5917e-07
1.21119e-06
2.58063e-07
9.02221e-07
-2.65955e-07
-9.01512e-07
2.62785e-07
-0.000268042
1.24193e-06
1.20823e-06
-2.34874e-07
-2.40185e-07
0.000266067
2.26788e-09
2.41349e-09
-0.00109172
-2.01992e-09
-2.01514e-09
0.00109172
-0.00109134
-1.21355e-06
-2.29026e-09
3.10329e-09
0.00109134
-2.61964e-07
1.21664e-06
2.60851e-07
9.02402e-07
-2.63351e-07
-9.01666e-07
2.60135e-07
-0.001091
-1.2081e-06
-2.42985e-09
2.99545e-09
0.001091
-2.59172e-07
1.21125e-06
2.5811e-07
9.02278e-07
-2.65955e-07
-9.01512e-07
2.62837e-07
-0.000268042
1.24196e-06
1.20822e-06
-2.34877e-07
-2.40217e-07
0.000266067
4.40913e-10
4.80425e-10
-0.00109172
-1.06833e-09
-1.17804e-09
0.00109172
-0.00109134
-1.21378e-06
-1.16503e-09
3.66442e-09
0.00109134
-2.62235e-07
1.21634e-06
2.60523e-07
9.01993e-07
-2.63713e-07
-9.02004e-07
2.59691e-07
-0.001091
-1.20851e-06
-5.3921e-10
3.9404e-09
0.001091
-2.59614e-07
1.21079e-06
2.57627e-07
9.0164e-07
-2.66569e-07
-9.02078e-07
2.62147e-07
-0.000268042
1.24236e-06
1.20855e-06
-2.35224e-07
-2.40646e-07
0.000266067
1.46009e-09
1.79995e-09
-0.00109173
-1.85047e-09
-1.66026e-09
0.00109173
-0.00109135
-1.21376e-06
-1.22055e-09
3.50683e-09
0.00109135
-2.62229e-07
1.21651e-06
2.60683e-07
9.02105e-07
-2.63915e-07
-9.0208e-07
2.59695e-07
-0.001091
-1.20824e-06
-1.72027e-09
3.16593e-09
0.001091
-2.59315e-07
1.21116e-06
2.58037e-07
9.02059e-07
-2.66358e-07
-9.01816e-07
2.62543e-07
-0.000268043
1.24204e-06
1.20843e-06
-2.35158e-07
-2.40364e-07
0.000266068
1.90048e-09
2.10685e-09
-0.00109173
-1.94863e-09
-1.88641e-09
0.00109173
-0.00109135
-1.21355e-06
-2.12664e-09
3.12677e-09
0.00109135
-2.6197e-07
1.21665e-06
2.60861e-07
9.02357e-07
-2.63476e-07
-9.01747e-07
2.60045e-07
-0.001091
-1.20815e-06
-2.07697e-09
3.12322e-09
0.001091
-2.59216e-07
1.21119e-06
2.58071e-07
9.02181e-07
-2.66109e-07
-9.01624e-07
2.62713e-07
-0.000268043
1.24199e-06
1.20827e-06
-2.34919e-07
-2.40243e-07
0.000266068
1.72652e-09
1.89024e-09
-0.00109173
-1.84015e-09
-1.81544e-09
0.00109173
-0.00109135
-1.21362e-06
-1.95033e-09
3.25406e-09
0.00109135
-2.62052e-07
1.21659e-06
2.60787e-07
9.02314e-07
-2.63518e-07
-9.01793e-07
2.59997e-07
-0.001091
-1.2082e-06
-1.89185e-09
3.23532e-09
0.001091
-2.5928e-07
1.21115e-06
2.58016e-07
9.02135e-07
-2.66158e-07
-9.01678e-07
2.62667e-07
-0.000268043
1.24205e-06
1.20832e-06
-2.34976e-07
-2.40306e-07
0.000266068
1.63474e-09
-8.43922e-09
-0.00109172
-1.8257e-09
-1.77023e-09
0.00109173
-0.00109135
-1.21363e-06
-1.91822e-09
3.26822e-09
0.00109135
-2.62014e-07
1.21659e-06
2.60764e-07
9.02306e-07
-2.63526e-07
-9.01803e-07
2.59992e-07
-0.001091
-1.20821e-06
-1.87604e-09
3.25056e-09
0.001091
-2.59285e-07
1.21114e-06
2.58012e-07
9.0213e-07
-2.66164e-07
-9.01686e-07
2.62664e-07
-0.000268043
1.24204e-06
1.20833e-06
-2.34984e-07
-2.40306e-07
0.000266068
1.66966e-09
1.91583e-09
-0.00109173
-1.84172e-09
-1.76029e-09
0.00109173
-0.00109135
-1.21367e-06
-1.8665e-09
3.36484e-09
0.00109135
-2.59334e-07
1.21655e-06
2.57955e-07
9.02304e-07
-2.63507e-07
-9.01806e-07
2.59964e-07
-0.001091
-1.20821e-06
-1.88901e-09
3.26089e-09
0.001091
-2.59285e-07
1.21114e-06
2.5801e-07
9.02129e-07
-2.66163e-07
-9.01685e-07
2.62661e-07
-0.000268043
1.24204e-06
1.20833e-06
-2.34989e-07
-2.40301e-07
0.000266068
1.67696e-09
1.89073e-09
-0.00109173
-1.81675e-09
-1.76616e-09
0.00109173
-0.00109135
-1.21363e-06
-1.8878e-09
3.29267e-09
0.00109135
-2.59298e-07
1.21659e-06
2.57994e-07
9.023e-07
-2.63502e-07
-9.01807e-07
2.59968e-07
-0.001091
-1.20821e-06
-1.89588e-09
3.26062e-09
0.001091
-2.59285e-07
1.21114e-06
2.58013e-07
9.02131e-07
-2.66165e-07
-9.01685e-07
2.62665e-07
-0.000268043
1.24204e-06
1.20833e-06
-2.34991e-07
-2.40303e-07
0.000266068
1.68162e-09
1.87525e-09
-0.00109173
-1.8058e-09
-1.77352e-09
0.00109173
-0.00109135
-1.21363e-06
-1.88089e-09
3.29391e-09
0.00109135
-2.59301e-07
1.21659e-06
2.57991e-07
9.02297e-07
-2.63503e-07
-9.0181e-07
2.59964e-07
-0.001091
-1.20821e-06
-1.88317e-09
3.26631e-09
0.001091
-2.59285e-07
1.21114e-06
2.5801e-07
9.02128e-07
-2.66166e-07
-9.01687e-07
2.6266e-07
-0.000268043
1.24204e-06
1.20834e-06
-2.34991e-07
-2.40305e-07
0.000266068
1.68641e-09
1.87071e-09
-0.00109173
-1.8012e-09
-1.7773e-09
0.00109173
-0.00109135
-1.21363e-06
-1.88332e-09
3.29169e-09
0.00109135
-2.593e-07
1.21659e-06
2.5799e-07
9.02295e-07
-2.63501e-07
-9.01808e-07
2.59961e-07
-0.001091
-1.20821e-06
-1.8835e-09
3.26267e-09
0.001091
-2.59284e-07
1.21114e-06
2.5801e-07
9.02126e-07
-2.66164e-07
-9.01686e-07
2.62658e-07
-0.000268043
1.24204e-06
1.20833e-06
-2.3499e-07
-2.40304e-07
0.000266068
1.68043e-09
1.85763e-09
-0.00109173
-1.79137e-09
-1.7726e-09
0.00109173
-0.00109135
-1.21363e-06
-1.87648e-09
3.29459e-09
0.00109135
-2.593e-07
1.21659e-06
2.57986e-07
9.02289e-07
-2.63497e-07
-9.01805e-07
2.59954e-07
-0.001091
-1.20821e-06
-1.87677e-09
3.26777e-09
0.001091
-2.59284e-07
1.21114e-06
2.58006e-07
9.02121e-07
-2.6616e-07
-9.01684e-07
2.62651e-07
-0.000268043
1.24204e-06
1.20833e-06
-2.34988e-07
-2.40303e-07
0.000266068
1.67951e-09
1.85315e-09
-0.00109173
-1.78845e-09
-1.77174e-09
0.00109173
-0.00109135
-1.21363e-06
-1.87692e-09
3.29438e-09
0.00109135
-2.59294e-07
1.21658e-06
2.57979e-07
9.02279e-07
-2.63485e-07
-9.01795e-07
2.59941e-07
-0.001091
-1.2082e-06
-1.87723e-09
3.26679e-09
0.001091
-2.59277e-07
1.21113e-06
2.58e-07
9.02108e-07
-2.66147e-07
-9.01673e-07
2.62638e-07
-0.000268043
1.24204e-06
1.20833e-06
-2.34984e-07
-2.40299e-07
0.000266068
1.69232e-09
1.86026e-09
-0.00109173
-1.7921e-09
-1.77729e-09
-0.00109135
-1.21361e-06
-1.87789e-09
3.28877e-09
-2.59268e-07
1.21657e-06
2.57957e-07
9.02246e-07
-2.63455e-07
-9.01766e-07
2.59912e-07
-0.001091
-1.20819e-06
-1.87751e-09
3.26451e-09
-2.59252e-07
1.21112e-06
2.57977e-07
9.02076e-07
-2.66116e-07
-9.01644e-07
2.6261e-07
-0.000268043
1.24203e-06
1.20832e-06
-2.34976e-07
-2.40289e-07
0.000266068
-1.25291e-06
-1.21389e-06
0.000268059
-0.000266074
2.35322e-07
2.4572e-07
0.00109055
-1.63161e-09
-0.00109055
3.50215e-09
-1.25005e-06
2.66033e-07
-2.67457e-07
-9.04403e-07
2.57062e-07
-2.60759e-07
9.04807e-07
1.25574e-06
0.001091
-1.61554e-09
-0.001091
3.46379e-09
-1.25286e-06
2.66111e-07
-2.67525e-07
-9.10106e-07
2.62603e-07
-2.66307e-07
9.10479e-07
-1.21655e-06
0.000268083
-0.000266092
2.38109e-07
2.42978e-07
0.00109163
-1.86384e-09
-0.00109163
3.25851e-09
-1.211e-06
2.60768e-07
-2.62056e-07
-9.04479e-07
2.62684e-07
-2.66253e-07
9.05048e-07
1.2503e-06
0.00109067
-1.63893e-09
-0.00109067
3.47616e-09
-1.24745e-06
2.66091e-07
-2.67517e-07
-9.04488e-07
2.62574e-07
-2.66217e-07
9.04872e-07
-1.86324e-09
3.29428e-09
-1.21362e-06
2.60733e-07
-2.6203e-07
-9.0176e-07
2.59913e-07
9.02242e-07
-2.63493e-07
1.24487e-06
0.00109047
-1.64366e-09
-0.00109047
3.48874e-09
-1.24202e-06
2.6054e-07
-2.61942e-07
-9.01784e-07
2.5978e-07
-2.63453e-07
9.02147e-07
-1.2111e-06
0.000268038
-0.000266055
2.35511e-07
2.42929e-07
-1.84245e-09
-0.001091
3.26782e-09
-1.20819e-06
2.57959e-07
-2.59255e-07
-9.01575e-07
2.62576e-07
9.02132e-07
-2.66135e-07
1.2112e-06
0.00109153
-1.81748e-09
-0.00109153
3.29612e-09
-1.20831e-06
2.58008e-07
-2.59322e-07
-9.01871e-07
2.6267e-07
-2.66238e-07
9.02391e-07
-0.000266068
2.37835e-07
2.43168e-07
1.25004e-06
1.21099e-06
-2.32458e-07
-2.42808e-07
0.000266074
-1.25293e-06
-1.2139e-06
0.000268059
-0.000266073
2.3534e-07
2.45738e-07
3.49442e-09
0.00109055
-2.67453e-07
1.25292e-06
2.66036e-07
9.04816e-07
-2.6075e-07
-9.04385e-07
2.57073e-07
-1.25287e-06
-1.63703e-09
3.50089e-09
0.001091
-2.67532e-07
1.25841e-06
2.68845e-07
9.1049e-07
-2.66297e-07
-9.10093e-07
2.62611e-07
0.00109055
-1.70169e-09
-0.00109055
3.46579e-09
-1.25003e-06
2.66048e-07
-2.67435e-07
-9.04387e-07
2.57091e-07
-2.60719e-07
9.04811e-07
1.25574e-06
0.001091
-1.69311e-09
-0.001091
3.46801e-09
-1.25553e-06
2.6612e-07
-2.70252e-07
-9.10073e-07
2.62636e-07
-2.66264e-07
9.105e-07
-2.35211e-07
-2.40067e-07
0.000266092
-1.21654e-06
0.000268083
-0.000266092
2.38122e-07
2.42984e-07
3.2576e-09
0.00109163
-2.62053e-07
1.21389e-06
2.60769e-07
9.05055e-07
-2.66244e-07
-9.04468e-07
2.62691e-07
-1.24744e-06
-1.66145e-09
3.47603e-09
0.00109067
-2.67513e-07
1.25031e-06
2.66094e-07
9.04878e-07
-2.66204e-07
-9.04473e-07
2.62584e-07
0.00109163
-1.94797e-09
-0.00109163
3.23197e-09
-1.21098e-06
2.60778e-07
-2.62038e-07
-9.04447e-07
2.62715e-07
-2.66209e-07
9.05066e-07
1.25031e-06
0.00109067
-1.71086e-09
-0.00109067
3.45169e-09
-1.24743e-06
2.66105e-07
-2.67495e-07
-9.04467e-07
2.62604e-07
-2.66174e-07
9.04877e-07
-1.64994e-09
3.4764e-09
0.00109047
-2.61937e-07
1.24488e-06
2.60546e-07
9.02157e-07
-2.63439e-07
2.59792e-07
-9.01771e-07
-1.91658e-09
-0.00109135
3.28422e-09
-1.21359e-06
2.6074e-07
-2.6201e-07
-9.01727e-07
2.59948e-07
9.0226e-07
-2.63447e-07
1.24488e-06
0.00109047
-1.7079e-09
-0.00109047
3.44305e-09
-1.242e-06
2.60556e-07
-2.61916e-07
-9.01752e-07
2.59814e-07
-2.63403e-07
9.02162e-07
-2.3262e-07
-2.40042e-07
0.000266055
-1.2111e-06
0.000268038
-0.000266055
2.35525e-07
2.42946e-07
-1.84341e-09
3.29594e-09
0.00109153
-2.5932e-07
1.2112e-06
2.5801e-07
9.02403e-07
-2.66225e-07
2.62681e-07
-9.01856e-07
-1.9232e-09
-0.001091
3.24156e-09
-1.20818e-06
2.5797e-07
-2.59236e-07
-9.01543e-07
2.62606e-07
9.0215e-07
-2.66091e-07
1.21121e-06
0.00109152
-1.91004e-09
-0.00109152
3.27041e-09
-1.2083e-06
2.58022e-07
-2.59301e-07
-9.01837e-07
2.62703e-07
-2.66192e-07
9.02412e-07
-0.000266068
2.37848e-07
2.43185e-07
1.25002e-06
1.21097e-06
-2.32435e-07
-2.42789e-07
0.000266073
-1.25294e-06
-1.21391e-06
0.000268059
-0.000266073
2.3536e-07
2.45759e-07
3.46682e-09
0.00109055
-2.67433e-07
1.25293e-06
2.66048e-07
9.04819e-07
-2.60715e-07
-9.04377e-07
2.57101e-07
-1.25284e-06
-1.70551e-09
3.4727e-09
0.001091
-2.6751e-07
1.25842e-06
2.68859e-07
9.105e-07
-2.66261e-07
-9.10072e-07
2.6264e-07
0.00109055
-1.75622e-09
-0.00109055
3.43109e-09
-1.25001e-06
2.66065e-07
-2.67418e-07
-9.04371e-07
2.57133e-07
-2.60679e-07
9.04827e-07
1.25844e-06
0.001091
-1.74315e-09
-0.001091
3.44553e-09
-1.25551e-06
2.68878e-07
-2.70238e-07
-9.10067e-07
2.62671e-07
-2.66235e-07
9.10509e-07
-2.35183e-07
-2.40046e-07
0.000266092
-1.21655e-06
0.000268086
-0.000266092
2.38172e-07
2.43009e-07
3.23528e-09
0.00109163
-2.62036e-07
1.2139e-06
2.60778e-07
9.05062e-07
-2.66211e-07
-9.04451e-07
2.62714e-07
-1.24743e-06
-1.71299e-09
3.46177e-09
0.00109067
-2.67495e-07
1.25031e-06
2.66104e-07
9.04877e-07
-2.66174e-07
-9.04468e-07
2.62606e-07
0.00109163
-2.00611e-09
-0.00109163
3.19586e-09
-1.21096e-06
2.60797e-07
-2.62019e-07
-9.04435e-07
2.62757e-07
-2.66173e-07
9.05081e-07
1.25033e-06
0.00109067
-1.75919e-09
-0.00109067
3.41951e-09
-1.24741e-06
2.66122e-07
-2.67478e-07
-9.04454e-07
2.62642e-07
-2.66139e-07
9.04892e-07
-1.70908e-09
3.44516e-09
0.00109047
-2.61915e-07
1.24488e-06
2.60557e-07
9.02163e-07
-2.63401e-07
2.59818e-07
-9.01753e-07
-1.98637e-09
-0.00109135
3.26373e-09
-1.21358e-06
2.60752e-07
-2.61998e-07
-9.01712e-07
2.59986e-07
9.02282e-07
-2.63418e-07
1.2449e-06
0.00109047
-1.77999e-09
-0.00109047
3.41416e-09
-1.24199e-06
2.60573e-07
-2.61899e-07
-9.01732e-07
2.59854e-07
-2.63368e-07
9.02188e-07
-2.32604e-07
-2.40023e-07
0.000266055
-1.21112e-06
0.000268038
-0.000266055
2.35546e-07
2.42967e-07
-1.91639e-09
3.27683e-09
0.00109152
-2.59299e-07
1.21121e-06
2.58022e-07
9.02412e-07
-2.66191e-07
2.62706e-07
-9.01837e-07
-1.98146e-09
-0.001091
3.21283e-09
-1.20816e-06
2.57989e-07
-2.59218e-07
-9.01533e-07
2.62648e-07
9.02164e-07
-2.66056e-07
1.21122e-06
0.00109152
-1.96282e-09
-0.00109152
3.23563e-09
-1.20828e-06
2.5804e-07
-2.59282e-07
-9.01825e-07
2.62746e-07
-2.66156e-07
9.02426e-07
-0.000266068
2.37865e-07
2.43207e-07
1.25001e-06
1.21096e-06
-2.32423e-07
-2.42767e-07
0.000266073
-1.25297e-06
-1.21394e-06
0.000268059
-0.000266073
2.35397e-07
2.45789e-07
3.44217e-09
0.00109055
-2.67416e-07
1.25294e-06
2.66067e-07
9.04826e-07
-2.60686e-07
-9.04372e-07
2.57131e-07
-1.25551e-06
-1.7426e-09
3.44552e-09
0.001091
-2.70232e-07
1.25844e-06
2.68881e-07
9.10511e-07
-2.66228e-07
-9.10067e-07
2.6268e-07
0.00109055
-1.87946e-09
-0.00109055
3.36278e-09
-1.24999e-06
2.66091e-07
-2.67398e-07
-9.04339e-07
2.57184e-07
-2.60647e-07
9.04883e-07
1.25846e-06
0.001091
-1.85733e-09
-0.001091
3.40112e-09
-1.25549e-06
2.68901e-07
-2.70216e-07
-9.10047e-07
2.62717e-07
-2.66201e-07
9.10545e-07
-2.35203e-07
-2.40024e-07
0.000266092
-1.21658e-06
0.000268085
-0.000266092
2.38203e-07
2.43035e-07
3.20729e-09
0.00109163
-2.6202e-07
1.21391e-06
2.60796e-07
9.05076e-07
-2.66172e-07
-9.04442e-07
2.62759e-07
-1.24741e-06
-1.73753e-09
3.43764e-09
0.00109067
-2.67479e-07
1.25033e-06
2.66122e-07
9.04885e-07
-2.66144e-07
-9.04463e-07
2.62637e-07
0.00109162
-2.11027e-09
-0.00109163
3.14409e-09
-1.21093e-06
2.60825e-07
-2.62e-07
-9.04415e-07
2.628e-07
-2.66142e-07
9.05118e-07
1.25036e-06
0.00109067
-1.89258e-09
-0.00109067
3.35641e-09
-1.24739e-06
2.66147e-07
-2.67461e-07
-9.04421e-07
2.62693e-07
-2.66106e-07
9.04948e-07
-1.77344e-09
3.41677e-09
0.00109047
-2.619e-07
1.2449e-06
2.60574e-07
9.0219e-07
-2.63362e-07
2.59858e-07
-9.01731e-07
-2.10719e-09
-0.00109135
3.1972e-09
-1.21356e-06
2.60775e-07
-2.61979e-07
-9.01689e-07
2.60033e-07
9.02317e-07
-2.63379e-07
1.24492e-06
0.00109047
-1.87722e-09
-0.00109047
3.36229e-09
-1.24197e-06
2.60598e-07
-2.61885e-07
-9.01711e-07
2.59887e-07
-2.63341e-07
9.02218e-07
-2.32589e-07
-2.40003e-07
0.000266055
-1.21115e-06
0.000268038
-0.000266055
2.35584e-07
2.42997e-07
-1.95727e-09
3.24572e-09
0.00109152
-2.59282e-07
1.21122e-06
2.58041e-07
9.02426e-07
-2.66153e-07
2.62749e-07
-9.01828e-07
-2.07843e-09
-0.001091
3.14562e-09
-1.20813e-06
2.58018e-07
-2.59199e-07
-9.01513e-07
2.62689e-07
9.022e-07
-2.66026e-07
1.21125e-06
0.00109152
-2.06415e-09
-0.00109152
3.19294e-09
-1.20826e-06
2.58063e-07
-2.59267e-07
-9.01806e-07
2.62788e-07
-2.66127e-07
9.02463e-07
-0.000266068
2.37894e-07
2.43238e-07
1.24999e-06
1.21094e-06
-2.32387e-07
-2.42744e-07
0.000266073
-1.253e-06
-1.21397e-06
0.000268058
-0.000266073
2.35436e-07
2.45832e-07
3.41434e-09
0.00109055
-2.67403e-07
1.25296e-06
2.66085e-07
9.04893e-07
-2.60644e-07
-9.0432e-07
2.57189e-07
-1.25549e-06
-1.84924e-09
3.41028e-09
0.001091
-2.7022e-07
1.25846e-06
2.689e-07
9.10557e-07
-2.66193e-07
-9.10034e-07
2.62724e-07
0.00109055
-2.09072e-09
-0.00109055
3.2922e-09
-1.24997e-06
2.66135e-07
-2.67373e-07
-9.0429e-07
2.57247e-07
-2.60611e-07
9.04941e-07
1.25847e-06
0.001091
-2.02805e-09
-0.001091
3.40105e-09
-1.25549e-06
2.68918e-07
-2.70218e-07
-9.09995e-07
2.62766e-07
-2.66166e-07
9.10606e-07
-2.35176e-07
-2.40002e-07
0.000266092
-1.2166e-06
0.000268085
-0.000266091
2.38237e-07
2.43055e-07
3.19467e-09
0.00109162
-2.62003e-07
1.21393e-06
2.60819e-07
9.05115e-07
-2.66146e-07
-9.04414e-07
2.62797e-07
-1.24739e-06
-1.84083e-09
3.40782e-09
0.00109067
-2.67464e-07
1.25035e-06
2.66141e-07
9.04953e-07
-2.661e-07
-9.0441e-07
2.62698e-07
0.00109162
-2.34645e-09
-0.00109162
3.07275e-09
-1.21092e-06
2.60868e-07
-2.61974e-07
-9.04358e-07
2.6287e-07
-2.66099e-07
9.05189e-07
1.25039e-06
0.00109067
-2.10326e-09
-0.00109067
3.29603e-09
-1.24737e-06
2.6619e-07
-2.67438e-07
-9.0437e-07
2.62757e-07
-2.66065e-07
9.05006e-07
-1.8166e-09
3.39176e-09
0.00109047
-2.61877e-07
1.24492e-06
2.60603e-07
9.02217e-07
-2.63346e-07
2.59889e-07
-9.01714e-07
-2.19091e-09
-0.00109135
3.17406e-09
-1.21354e-06
2.60803e-07
-2.61968e-07
-9.01665e-07
2.60063e-07
9.0236e-07
-2.6337e-07
1.24496e-06
0.00109046
-2.03504e-09
-0.00109047
3.2761e-09
-1.24194e-06
2.60648e-07
-2.61848e-07
-9.01679e-07
2.59947e-07
-2.63316e-07
9.02276e-07
-2.32549e-07
-2.39979e-07
0.000266055
-1.21118e-06
0.000268037
-0.000266054
2.35619e-07
2.43039e-07
-2.01318e-09
3.24242e-09
0.00109152
-2.59272e-07
1.21124e-06
2.58056e-07
9.02465e-07
-2.66124e-07
2.62791e-07
-9.018e-07
-2.30879e-09
-0.001091
3.0803e-09
-1.20811e-06
2.58057e-07
-2.59175e-07
-9.01454e-07
2.6276e-07
9.02272e-07
-2.65982e-07
1.21128e-06
0.00109152
-2.31136e-09
-0.00109152
3.1345e-09
-1.20824e-06
2.58103e-07
-2.59246e-07
-9.01746e-07
2.62859e-07
-2.66079e-07
9.02534e-07
-0.000266067
2.37936e-07
2.43285e-07
1.24995e-06
1.2109e-06
-2.32361e-07
-2.42712e-07
0.000266073
-1.25297e-06
-1.21396e-06
0.000268058
-0.000266072
2.35438e-07
2.45817e-07
3.31977e-09
0.00109055
-2.67366e-07
1.25302e-06
2.66143e-07
9.04951e-07
-2.60605e-07
-9.04288e-07
2.57257e-07
-1.25546e-06
-2.09544e-09
3.30434e-09
0.001091
-2.70187e-07
1.25851e-06
2.68963e-07
9.10625e-07
-2.66154e-07
-9.09989e-07
2.62797e-07
0.00109055
-2.00569e-09
-0.00109055
3.39719e-09
-1.25001e-06
2.66113e-07
-2.67415e-07
-9.04323e-07
2.57256e-07
-2.60636e-07
9.04935e-07
1.25847e-06
0.001091
-1.85168e-09
-0.001091
3.43645e-09
-1.2555e-06
2.68936e-07
-2.70226e-07
-9.10037e-07
2.62752e-07
-2.66207e-07
9.10576e-07
-2.35146e-07
-2.3998e-07
0.000266091
-1.21658e-06
0.000268085
-0.000266091
2.38235e-07
2.43083e-07
3.07855e-09
0.00109162
-2.61967e-07
1.21399e-06
2.60876e-07
9.05186e-07
-2.66097e-07
-9.04368e-07
2.62871e-07
-1.24736e-06
-2.03012e-09
3.31016e-09
0.00109067
-2.67428e-07
1.2504e-06
2.66199e-07
9.05006e-07
-2.66062e-07
-9.04379e-07
2.6276e-07
0.00109162
-2.2215e-09
-0.00109162
3.13042e-09
-1.21095e-06
2.60861e-07
-2.62005e-07
-9.04401e-07
2.62864e-07
-2.66133e-07
9.05169e-07
1.25037e-06
0.00109067
-1.99145e-09
-0.00109067
3.36057e-09
-1.24741e-06
2.66182e-07
-2.67467e-07
-9.04412e-07
2.62755e-07
-2.66097e-07
9.04991e-07
-2.04607e-09
3.28262e-09
0.00109046
-2.61845e-07
1.24497e-06
2.6065e-07
9.02291e-07
-2.63291e-07
2.59969e-07
-9.01664e-07
-2.08207e-09
-0.00109134
3.26914e-09
-1.21357e-06
2.60797e-07
-2.61991e-07
-9.01668e-07
2.6008e-07
9.02366e-07
-2.63382e-07
1.24492e-06
0.00109046
-1.95294e-09
-0.00109046
3.42097e-09
-1.24199e-06
2.60614e-07
-2.61891e-07
-9.01687e-07
2.59965e-07
-2.63327e-07
9.02284e-07
-2.32528e-07
-2.39947e-07
0.000266054
-1.21116e-06
0.000268037
-0.000266054
2.35614e-07
2.43036e-07
-2.24357e-09
3.1244e-09
0.00109152
-2.59235e-07
1.2113e-06
2.58116e-07
9.02535e-07
-2.66077e-07
2.62861e-07
-9.01753e-07
-2.21285e-09
-0.001091
3.16963e-09
-1.20816e-06
2.58045e-07
-2.5921e-07
-9.0149e-07
2.62761e-07
9.02259e-07
-2.66008e-07
1.21127e-06
0.00109152
-2.18126e-09
-0.00109152
3.1761e-09
-1.20827e-06
2.58103e-07
-2.59268e-07
-9.0179e-07
2.6285e-07
-2.66114e-07
9.02512e-07
-0.000266067
2.37946e-07
2.43263e-07
1.24996e-06
1.21089e-06
-2.32362e-07
-2.42729e-07
0.000266072
-1.25274e-06
-1.21375e-06
0.000268058
-0.000266072
2.35175e-07
2.45537e-07
3.22662e-09
0.00109055
-2.67379e-07
1.25306e-06
2.66178e-07
9.05015e-07
-2.60604e-07
-9.04283e-07
2.57317e-07
-1.25547e-06
-2.11669e-09
3.24935e-09
0.00109099
-2.70179e-07
1.25853e-06
2.69005e-07
9.10635e-07
-2.66181e-07
-9.10027e-07
2.62816e-07
0.00109055
-1.08335e-09
-0.00109055
4.06995e-09
-1.25019e-06
2.65837e-07
-2.67645e-07
-9.04559e-07
2.56921e-07
-2.60909e-07
9.04638e-07
1.25847e-06
0.00109099
-1.37583e-09
-0.00109099
3.37944e-09
-1.25549e-06
2.68881e-07
-2.70262e-07
-9.10184e-07
2.62565e-07
-2.66339e-07
9.10387e-07
-2.3517e-07
-2.39978e-07
0.000266091
-1.21653e-06
0.000268084
-0.00026609
2.38128e-07
2.43025e-07
2.94215e-09
0.00109162
-2.61963e-07
1.21405e-06
2.60929e-07
9.05237e-07
-2.66105e-07
-9.04375e-07
2.62915e-07
-1.24735e-06
-2.21415e-09
3.18342e-09
0.00109067
-2.67429e-07
1.25046e-06
2.66248e-07
9.05062e-07
-2.66066e-07
-9.04382e-07
2.6281e-07
0.00109162
-1.11919e-09
-0.00109162
3.61315e-09
-1.2111e-06
2.60607e-07
-2.62212e-07
-9.04661e-07
2.62496e-07
-2.66427e-07
9.04842e-07
1.25015e-06
0.00109067
-9.57955e-10
-0.00109067
3.87989e-09
-1.24756e-06
2.6592e-07
-2.67681e-07
-9.04666e-07
2.624e-07
-2.66382e-07
9.04673e-07
-2.17832e-09
3.25799e-09
0.00109046
-2.61882e-07
1.24499e-06
2.60659e-07
9.02338e-07
-2.63291e-07
2.60011e-07
-9.01664e-07
-1.93591e-09
-0.00109134
3.32491e-09
-1.21359e-06
2.60722e-07
-2.62046e-07
-9.01739e-07
2.59976e-07
9.02271e-07
-2.6346e-07
1.24471e-06
0.00109046
-1.41828e-09
-0.00109046
3.99882e-09
-1.24214e-06
2.60362e-07
-2.62101e-07
-9.01822e-07
2.59752e-07
-2.63499e-07
9.02107e-07
-2.32535e-07
-2.39954e-07
0.000266054
-1.21094e-06
0.000268037
-0.000266054
2.35342e-07
2.42762e-07
-2.41821e-09
2.98862e-09
0.00109152
-2.59229e-07
1.21135e-06
2.58169e-07
9.02584e-07
-2.66088e-07
2.62904e-07
-9.01764e-07
-1.19057e-09
-0.001091
3.72781e-09
-1.20832e-06
2.57781e-07
-2.59426e-07
-9.01743e-07
2.62405e-07
9.01938e-07
-2.66291e-07
1.21113e-06
0.00109152
-1.08483e-09
-0.00109152
3.51404e-09
-1.20836e-06
2.57898e-07
-2.59433e-07
-9.02047e-07
2.62489e-07
-2.66399e-07
9.02188e-07
-0.000266067
2.37758e-07
2.42995e-07
1.25038e-06
1.21129e-06
-2.32793e-07
-2.43169e-07
0.000266072
-1.25288e-06
-1.21383e-06
0.000268059
-0.000266073
2.35183e-07
2.45603e-07
4.26311e-09
0.00109055
-2.67834e-07
1.25259e-06
2.65682e-07
9.04397e-07
-2.61206e-07
-9.04833e-07
2.56649e-07
-1.25566e-06
-6.36021e-10
3.70117e-09
0.00109099
-2.70424e-07
1.25828e-06
2.68708e-07
9.10118e-07
-2.6665e-07
-9.10468e-07
2.62241e-07
0.00109055
-9.59523e-10
-0.00109055
3.49755e-09
-1.25022e-06
2.66002e-07
-2.67651e-07
-9.04812e-07
2.56814e-07
-2.6124e-07
9.04597e-07
1.25819e-06
0.001091
-7.13148e-10
-0.001091
4.05327e-09
-1.25589e-06
2.68602e-07
-2.7065e-07
-9.10524e-07
2.62264e-07
-2.66852e-07
9.10248e-07
-2.35427e-07
-2.4018e-07
0.00026609
-1.21636e-06
0.000268085
-0.000266091
2.37881e-07
2.42643e-07
3.85102e-09
0.00109162
-2.62403e-07
1.2136e-06
2.60449e-07
9.046e-07
-2.66726e-07
-9.04942e-07
2.6222e-07
-1.24776e-06
-3.13889e-10
4.11008e-09
0.00109067
-2.67871e-07
1.25e-06
2.65761e-07
9.04432e-07
-2.66675e-07
-9.04943e-07
2.62127e-07
0.00109163
-1.33923e-09
-0.00109163
3.41476e-09
-1.21119e-06
2.60707e-07
-2.62274e-07
-9.04841e-07
2.6245e-07
-2.66692e-07
9.04875e-07
1.25025e-06
0.00109067
-1.05447e-09
-0.00109067
3.60686e-09
-1.24763e-06
2.6604e-07
-2.67726e-07
-9.0487e-07
2.62326e-07
-2.66673e-07
9.04679e-07
-6.94947e-10
4.26475e-09
0.00109046
-2.62323e-07
1.24453e-06
2.60171e-07
9.01838e-07
-2.63754e-07
2.59481e-07
-9.02091e-07
-7.12164e-10
-0.00109135
3.72823e-09
-1.2139e-06
2.60521e-07
-2.62383e-07
-9.02253e-07
2.59497e-07
9.01927e-07
-2.6409e-07
1.24485e-06
0.00109047
-7.33959e-10
-0.00109047
3.50085e-09
-1.2422e-06
2.60517e-07
-2.62134e-07
-9.0226e-07
2.59421e-07
-2.63998e-07
9.01853e-07
-2.32967e-07
-2.40389e-07
0.000266054
-1.21105e-06
0.000268038
-0.000266055
2.35375e-07
2.42798e-07
-4.55171e-10
3.78674e-09
0.00109152
-2.59617e-07
1.21095e-06
2.57737e-07
9.0194e-07
-2.66712e-07
2.62198e-07
-9.02335e-07
-1.24996e-09
-0.001091
3.36537e-09
-1.20838e-06
2.57907e-07
-2.59463e-07
-9.01949e-07
2.62334e-07
9.01948e-07
-2.66582e-07
1.21108e-06
0.00109153
-1.29161e-09
-0.00109152
3.56212e-09
-1.20856e-06
2.57904e-07
-2.59573e-07
-9.02231e-07
2.62442e-07
-2.6668e-07
9.02225e-07
-0.000266068
2.37618e-07
2.4306e-07
1.25007e-06
1.21106e-06
-2.32589e-07
-2.42899e-07
0.000266073
-1.25304e-06
-1.21401e-06
0.000268059
-0.000266074
2.3545e-07
2.45836e-07
3.28373e-09
0.00109055
-2.67494e-07
1.253e-06
2.66135e-07
9.0477e-07
-2.61045e-07
-9.04623e-07
2.57004e-07
-1.25577e-06
-1.22983e-09
3.84471e-09
0.001091
-2.70526e-07
1.25832e-06
2.68746e-07
9.1042e-07
-2.66629e-07
-9.10336e-07
2.62482e-07
0.00109055
-1.92292e-09
-0.00109055
3.26898e-09
-1.24998e-06
2.66176e-07
-2.67389e-07
-9.04401e-07
2.57211e-07
-2.6077e-07
9.04925e-07
1.25854e-06
0.001091
-1.90655e-09
-0.001091
3.35083e-09
-1.25549e-06
2.68999e-07
-2.70211e-07
-9.10102e-07
2.62721e-07
-2.66299e-07
9.10579e-07
-2.35466e-07
-2.40368e-07
0.000266092
-1.21666e-06
0.000268086
-0.000266092
2.38262e-07
2.431e-07
3.23169e-09
0.00109163
-2.62132e-07
1.21394e-06
2.60832e-07
9.05037e-07
-2.66487e-07
-9.04657e-07
2.62635e-07
-1.2475e-06
-1.54897e-09
3.41204e-09
0.00109067
-2.67576e-07
1.25037e-06
2.66168e-07
9.04849e-07
-2.66465e-07
-9.04683e-07
2.62518e-07
0.00109163
-2.19736e-09
-0.00109163
3.09593e-09
-1.21094e-06
2.60902e-07
-2.62002e-07
-9.04455e-07
2.62809e-07
-2.66234e-07
9.05163e-07
1.25042e-06
0.00109067
-1.96509e-09
-0.00109067
3.29319e-09
-1.24739e-06
2.66226e-07
-2.67458e-07
-9.0447e-07
2.62705e-07
-2.662e-07
9.04988e-07
-1.23944e-09
3.26983e-09
0.00109047
-2.61963e-07
1.24497e-06
2.60658e-07
9.02036e-07
-2.63812e-07
2.59616e-07
-9.02079e-07
-2.12033e-09
-0.00109135
3.12245e-09
-1.21354e-06
2.6088e-07
-2.6196e-07
-9.01757e-07
2.60036e-07
9.02357e-07
-2.63503e-07
1.24499e-06
0.00109047
-1.89924e-09
-0.00109047
3.27748e-09
-1.24196e-06
2.60681e-07
-2.61871e-07
-9.01769e-07
2.599e-07
-2.63454e-07
9.0227e-07
-2.32732e-07
-2.4015e-07
0.000266055
-1.21122e-06
0.000268038
-0.000266055
2.35631e-07
2.43041e-07
-1.7816e-09
3.37513e-09
0.00109153
-2.59439e-07
1.21121e-06
2.58029e-07
9.02394e-07
-2.66464e-07
2.62636e-07
-9.0204e-07
-2.14229e-09
-0.001091
3.06956e-09
-1.20813e-06
2.581e-07
-2.5919e-07
-9.01562e-07
2.627e-07
9.02246e-07
-2.66128e-07
1.21131e-06
0.00109153
-2.142e-09
-0.00109153
3.15796e-09
-1.20826e-06
2.58135e-07
-2.59273e-07
-9.0185e-07
2.628e-07
-2.6622e-07
9.02509e-07
-0.000266068
2.37948e-07
2.43282e-07
1.25e-06
1.21096e-06
-2.32419e-07
-2.42762e-07
0.000266074
-1.25297e-06
-1.21395e-06
0.000268059
-0.000266074
2.35391e-07
2.45764e-07
3.34096e-09
0.00109055
-2.67418e-07
1.25301e-06
2.66145e-07
9.04919e-07
-2.60772e-07
-9.04399e-07
2.57207e-07
-1.25548e-06
-1.89137e-09
3.32804e-09
0.001091
-2.70207e-07
1.25853e-06
2.68991e-07
9.10573e-07
-2.66292e-07
-9.10103e-07
2.62717e-07
0.00109055
-1.74808e-09
-0.00109055
3.45257e-09
-1.25005e-06
2.66096e-07
-2.67474e-07
-9.04445e-07
2.57179e-07
-2.60806e-07
9.04883e-07
1.25848e-06
0.001091
-1.71212e-09
-0.001091
3.43128e-09
-1.25553e-06
2.6893e-07
-2.70271e-07
-9.10142e-07
2.62668e-07
-2.66335e-07
9.10533e-07
-2.35179e-07
-2.39994e-07
0.000266092
-1.21659e-06
0.000268086
-0.000266092
2.38189e-07
2.43034e-07
3.13047e-09
0.00109163
-2.62024e-07
1.21399e-06
2.60878e-07
9.05144e-07
-2.66239e-07
-9.04469e-07
2.62794e-07
-1.24741e-06
-1.90449e-09
3.34165e-09
0.00109067
-2.67481e-07
1.2504e-06
2.66199e-07
9.04973e-07
-2.66204e-07
-9.04481e-07
2.62694e-07
0.00109163
-1.94984e-09
-0.00109163
3.20245e-09
-1.211e-06
2.60834e-07
-2.62075e-07
-9.04512e-07
2.6275e-07
-2.66279e-07
9.05101e-07
1.25036e-06
0.00109067
-1.73002e-09
-0.00109067
3.43885e-09
-1.24746e-06
2.66149e-07
-2.67538e-07
-9.04529e-07
2.62649e-07
-2.66248e-07
9.04929e-07
-1.88793e-09
3.34373e-09
0.00109047
-2.61904e-07
1.24496e-06
2.60648e-07
9.02266e-07
-2.63436e-07
2.59904e-07
-9.01764e-07
-1.98972e-09
-0.00109135
3.23386e-09
-1.21361e-06
2.60795e-07
-2.62042e-07
-9.01782e-07
2.60006e-07
9.02321e-07
-2.63509e-07
1.24491e-06
0.00109047
-1.73192e-09
-0.00109047
3.45953e-09
-1.24204e-06
2.60593e-07
-2.61966e-07
-9.0181e-07
2.5986e-07
-2.63475e-07
9.02219e-07
-2.32572e-07
-2.40001e-07
0.000266055
-1.21115e-06
0.000268038
-0.000266055
2.3556e-07
2.42975e-07
-2.08082e-09
3.17428e-09
0.00109153
-2.59287e-07
1.2113e-06
2.58118e-07
9.02494e-07
-2.66225e-07
2.62788e-07
-9.01862e-07
-1.93119e-09
-0.001091
3.22564e-09
-1.2082e-06
2.58021e-07
-2.59273e-07
-9.01619e-07
2.62651e-07
9.02193e-07
-2.66174e-07
1.21126e-06
0.00109153
-1.87598e-09
-0.00109153
3.24546e-09
-1.20831e-06
2.58078e-07
-2.59333e-07
-9.01908e-07
2.62746e-07
-2.6627e-07
9.02454e-07
-0.000266068
2.37889e-07
2.43208e-07
1.25005e-06
1.211e-06
-2.32472e-07
-2.42821e-07
0.000266074
-1.25295e-06
-1.21395e-06
0.000268062