/*--------------------------------*- C++ -*----------------------------------*\
| =========                 |                                                 |
| \\      /  F ield         | OpenFOAM: The Open Source CFD Toolbox           |
|  \\    /   O peration     | Version:  2206                                  |
|   \\  /    A nd           | Website:  www.openfoam.com                      |
|    \\/     M anipulation  |                                                 |
\*---------------------------------------------------------------------------*/
FoamFile
{
    version     2.0;
    format      ascii;
    arch        "LSB;label=32;scalar=64";
    class       volScalarField;
    location    "2.5";
    object      epsilon;
}
// * * * * * * * * * * * * * * * * * * * * * * * * * * * * * * * * * * * * * //

dimensions      [0 2 -3 0 0 0 0];

internalField   nonuniform List<scalar> 
28381
(
5.49978e-07
5.48595e-07
5.0753e-07
5.07524e-07
5.07527e-07
5.48616e-07
5.07522e-07
5.07529e-07
5.07529e-07
5.03915e-07
5.03914e-07
5.03914e-07
9.19217e-07
9.19281e-07
4.05816e-06
4.05835e-06
9.73399e-07
9.73425e-07
2.62027e-06
7.97652e-07
7.97634e-07
8.10578e-07
5.04039e-07
5.64674e-07
5.04062e-07
5.64645e-07
2.62043e-06
7.97682e-07
8.10662e-07
5.04037e-07
5.64693e-07
2.62055e-06
7.97646e-07
5.04037e-07
8.10688e-07
5.64697e-07
4.05845e-06
9.73454e-07
9.73397e-07
4.05829e-06
5.04051e-07
8.10579e-07
5.64655e-07
2.62046e-06
7.97454e-07
7.23695e-07
2.64528e-06
7.23718e-07
2.64536e-06
4.09755e-06
4.09762e-06
8.03219e-07
6.1695e-07
2.70811e-06
9.73305e-07
7.33578e-07
6.31244e-07
2.66264e-06
8.03397e-07
6.16889e-07
2.70865e-06
9.73322e-07
7.33691e-07
6.31185e-07
2.66313e-06
1.07941e-06
4.31573e-06
4.31587e-06
1.07101e-06
4.29794e-06
4.29803e-06
4.0975e-06
4.09767e-06
7.3359e-07
6.31241e-07
9.19205e-07
2.66265e-06
2.70814e-06
6.16926e-07
8.03289e-07
7.337e-07
6.31182e-07
9.19284e-07
2.6632e-06
2.70874e-06
6.16875e-07
8.03456e-07
1.07101e-06
4.29773e-06
4.29793e-06
4.31576e-06
4.31592e-06
1.07952e-06
4.44011e-06
2.64514e-06
1.00453e-06
4.38086e-06
9.63329e-07
3.18109e-06
7.37197e-07
2.93445e-06
8.26821e-07
3.15905e-06
2.95069e-06
7.69588e-07
4.44016e-06
1.00442e-06
9.63238e-07
4.38096e-06
3.18102e-06
7.37195e-07
2.93445e-06
8.26786e-07
2.95068e-06
7.69573e-07
3.15896e-06
4.43998e-06
2.64536e-06
1.00454e-06
4.38073e-06
9.63269e-07
3.18104e-06
7.37207e-07
8.26867e-07
2.9345e-06
3.15901e-06
7.69588e-07
2.95074e-06
4.44018e-06
2.64546e-06
1.0045e-06
9.63361e-07
4.38092e-06
3.18116e-06
7.37204e-07
2.9345e-06
8.26807e-07
2.95074e-06
7.69598e-07
3.15911e-06
4.09777e-06
7.33714e-07
6.31235e-07
9.1933e-07
2.66321e-06
6.16915e-07
2.70876e-06
8.03497e-07
7.33589e-07
6.31231e-07
9.19211e-07
2.66265e-06
2.70812e-06
6.16908e-07
8.03276e-07
1.07105e-06
4.29798e-06
4.29775e-06
4.31598e-06
4.31578e-06
1.07954e-06
4.09757e-06
4.44003e-06
2.64531e-06
1.00456e-06
9.63352e-07
4.38077e-06
3.18107e-06
7.37079e-07
8.26808e-07
2.93478e-06
7.69589e-07
2.95099e-06
3.15904e-06
2.62043e-06
4.38067e-06
9.63268e-07
2.62046e-06
4.43985e-06
1.00437e-06
4.05825e-06
4.05834e-06
5.85771e-07
5.51009e-07
5.51012e-07
5.48597e-07
5.67865e-07
5.55029e-07
5.55036e-07
5.67858e-07
5.49985e-07
5.55005e-07
5.55015e-07
5.50991e-07
5.50998e-07
5.85772e-07
5.6787e-07
5.50011e-07
5.55043e-07
5.5502e-07
5.5103e-07
5.51005e-07
5.85784e-07
5.03712e-07
5.03699e-07
5.03672e-07
5.03699e-07
5.03713e-07
5.03672e-07
5.17122e-07
5.59595e-07
7.23663e-07
6.06021e-07
5.4525e-07
5.87088e-07
5.22334e-07
5.11659e-07
5.53702e-07
5.70567e-07
5.13597e-07
5.58881e-07
5.10795e-07
5.148e-07
5.17152e-07
6.05754e-07
5.86953e-07
5.22289e-07
5.1166e-07
5.53685e-07
5.70501e-07
5.13586e-07
5.58859e-07
5.10793e-07
5.14779e-07
5.17118e-07
5.59593e-07
7.23715e-07
6.06014e-07
5.45243e-07
5.87084e-07
5.2233e-07
5.11656e-07
5.53693e-07
5.70569e-07
5.13599e-07
5.58878e-07
5.1079e-07
5.14797e-07
5.17123e-07
5.59616e-07
7.23735e-07
6.06046e-07
5.87092e-07
5.45257e-07
5.22344e-07
5.11658e-07
5.53691e-07
5.136e-07
5.70581e-07
5.10792e-07
5.58871e-07
5.14802e-07
5.17121e-07
5.59589e-07
7.23671e-07
6.06015e-07
5.22333e-07
5.45248e-07
5.87083e-07
5.11664e-07
5.53704e-07
5.13625e-07
5.70566e-07
5.14801e-07
5.10824e-07
5.58883e-07
5.45267e-07
8.10564e-07
5.59597e-07
5.22333e-07
5.45248e-07
5.87085e-07
8.10617e-07
5.59594e-07
5.17121e-07
6.06005e-07
5.0751e-07
5.49977e-07
5.039e-07
5.07513e-07
5.07509e-07
5.49993e-07
5.03899e-07
5.07509e-07
5.07512e-07
5.49982e-07
5.039e-07
5.07508e-07
5.07512e-07
5.49973e-07
5.03899e-07
5.07514e-07
5.07512e-07
5.49976e-07
5.03899e-07
5.07508e-07
5.07512e-07
5.4997e-07
5.039e-07
5.0751e-07
5.07515e-07
5.49977e-07
5.039e-07
5.07511e-07
5.07515e-07
5.49982e-07
5.039e-07
5.07508e-07
5.07514e-07
5.49977e-07
5.039e-07
5.07509e-07
5.07514e-07
5.4998e-07
5.039e-07
5.07508e-07
5.07514e-07
5.49983e-07
5.039e-07
5.07509e-07
5.07515e-07
5.4997e-07
5.03899e-07
5.07508e-07
5.07514e-07
5.49976e-07
5.039e-07
5.07514e-07
5.07514e-07
5.49974e-07
5.039e-07
5.07508e-07
5.07514e-07
5.49976e-07
5.03899e-07
5.07511e-07
5.07512e-07
5.49979e-07
5.03912e-07
5.07523e-07
5.07523e-07
5.49987e-07
5.5e-07
5.48633e-07
5.07515e-07
5.0751e-07
5.07521e-07
5.48604e-07
5.49994e-07
5.48609e-07
5.07515e-07
5.07517e-07
5.07516e-07
5.0752e-07
5.49995e-07
5.48596e-07
5.07515e-07
5.07516e-07
5.07518e-07
5.07516e-07
5.07513e-07
5.07515e-07
5.07517e-07
5.50023e-07
5.48636e-07
5.07517e-07
5.07511e-07
5.07511e-07
5.48618e-07
5.50005e-07
5.48593e-07
5.07514e-07
5.07515e-07
5.07519e-07
5.07515e-07
5.49997e-07
5.48594e-07
5.07514e-07
5.07519e-07
5.07509e-07
5.07514e-07
5.07519e-07
5.07516e-07
5.07516e-07
5.50009e-07
5.48624e-07
5.07514e-07
5.0751e-07
5.07511e-07
5.48601e-07
5.49995e-07
5.48591e-07
5.07516e-07
5.07514e-07
5.07517e-07
5.07514e-07
5.49993e-07
5.48594e-07
5.07513e-07
5.07521e-07
5.07508e-07
5.07513e-07
5.07519e-07
5.07517e-07
5.07514e-07
5.5e-07
5.48624e-07
5.07515e-07
5.0751e-07
5.07514e-07
5.48608e-07
5.49979e-07
5.48586e-07
5.07514e-07
5.07515e-07
5.07518e-07
5.07515e-07
5.49977e-07
5.48582e-07
5.07512e-07
5.07515e-07
5.07509e-07
5.07514e-07
5.07518e-07
5.07516e-07
5.07518e-07
5.50014e-07
5.48618e-07
5.07516e-07
5.07511e-07
5.07511e-07
5.4859e-07
5.49991e-07
5.486e-07
5.07516e-07
5.07515e-07
5.07518e-07
5.07515e-07
5.49987e-07
5.48595e-07
5.07512e-07
5.0752e-07
5.0751e-07
5.07515e-07
5.07519e-07
5.07516e-07
5.07513e-07
5.49995e-07
5.4862e-07
5.07516e-07
5.07511e-07
5.07511e-07
5.48605e-07
5.49986e-07
5.48588e-07
5.07518e-07
5.07516e-07
5.07519e-07
5.07515e-07
5.49995e-07
5.48586e-07
5.07513e-07
5.07515e-07
5.0751e-07
5.07513e-07
5.07518e-07
5.07516e-07
5.07516e-07
5.50019e-07
5.4863e-07
5.07514e-07
5.07511e-07
5.07513e-07
5.48606e-07
5.4998e-07
5.48603e-07
5.07519e-07
5.07518e-07
5.07518e-07
5.07512e-07
5.49976e-07
5.48582e-07
5.07515e-07
5.07516e-07
5.07511e-07
5.07515e-07
5.07518e-07
5.07515e-07
5.07513e-07
5.50007e-07
5.48614e-07
5.07515e-07
5.07511e-07
5.07511e-07
5.48606e-07
5.49981e-07
5.48612e-07
5.07518e-07
5.07519e-07
5.07518e-07
5.07514e-07
5.49972e-07
5.48599e-07
5.07513e-07
5.07514e-07
5.07511e-07
5.07513e-07
5.07517e-07
5.07516e-07
5.0752e-07
5.50016e-07
5.48634e-07
5.07514e-07
5.07512e-07
5.07512e-07
5.48609e-07
5.50005e-07
5.48601e-07
5.07516e-07
5.07519e-07
5.07518e-07
5.07512e-07
5.4998e-07
5.48589e-07
5.07516e-07
5.07516e-07
5.07512e-07
5.07515e-07
5.0752e-07
5.07516e-07
5.07514e-07
5.50008e-07
5.48615e-07
5.07515e-07
5.07511e-07
5.07512e-07
5.48613e-07
5.49985e-07
5.48605e-07
5.0752e-07
5.0752e-07
5.07518e-07
5.07515e-07
5.49977e-07
5.48585e-07
5.07513e-07
5.07514e-07
5.0751e-07
5.07514e-07
5.07518e-07
5.07516e-07
5.07515e-07
5.50015e-07
5.48629e-07
5.07515e-07
5.07511e-07
5.07512e-07
5.48595e-07
5.49996e-07
5.48604e-07
5.07515e-07
5.07518e-07
5.07518e-07
5.07512e-07
5.49976e-07
5.48584e-07
5.07516e-07
5.07516e-07
5.07512e-07
5.07513e-07
5.07517e-07
5.07516e-07
5.07514e-07
5.50006e-07
5.48629e-07
5.07517e-07
5.07511e-07
5.07512e-07
5.48607e-07
5.49985e-07
5.4859e-07
5.07519e-07
5.0752e-07
5.07521e-07
5.07513e-07
5.49971e-07
5.48586e-07
5.07514e-07
5.07514e-07
5.07511e-07
5.07513e-07
5.07518e-07
5.07517e-07
5.07519e-07
5.50014e-07
5.48626e-07
5.07514e-07
5.07511e-07
5.07514e-07
5.48603e-07
5.49966e-07
5.486e-07
5.07516e-07
5.07516e-07
5.07518e-07
5.07512e-07
5.49956e-07
5.48582e-07
5.07518e-07
5.07515e-07
5.07511e-07
5.07515e-07
5.07519e-07
5.07515e-07
5.07513e-07
5.50002e-07
5.4861e-07
5.07514e-07
5.07511e-07
5.0751e-07
5.48604e-07
5.49982e-07
5.48604e-07
5.07521e-07
5.0752e-07
5.07517e-07
5.07515e-07
5.49973e-07
5.48588e-07
5.07513e-07
5.07514e-07
5.07515e-07
5.07513e-07
5.07517e-07
5.07516e-07
5.07516e-07
5.50013e-07
5.48629e-07
5.07514e-07
5.0751e-07
5.07512e-07
5.48603e-07
5.49998e-07
5.48608e-07
5.07515e-07
5.07515e-07
5.07512e-07
5.07515e-07
5.49976e-07
5.48596e-07
5.07514e-07
5.07517e-07
5.07516e-07
5.07515e-07
5.07518e-07
5.07514e-07
5.07511e-07
5.50014e-07
5.48625e-07
5.07515e-07
5.07513e-07
5.07513e-07
5.48612e-07
5.07525e-07
5.49961e-07
5.07527e-07
5.07529e-07
5.07526e-07
5.50001e-07
5.07522e-07
4.09726e-06
4.05835e-06
5.64704e-07
5.04023e-07
7.2387e-07
5.07513e-07
8.10535e-07
5.53749e-07
5.04022e-07
9.19461e-07
9.19522e-07
5.48605e-07
9.73232e-07
9.73317e-07
7.97522e-07
2.64487e-06
2.62027e-06
7.37361e-07
4.09706e-06
4.05817e-06
7.97547e-07
2.64507e-06
2.62042e-06
7.37378e-07
5.039e-07
5.03899e-07
5.03899e-07
5.039e-07
5.039e-07
5.03899e-07
5.039e-07
5.64705e-07
7.23835e-07
5.04023e-07
5.07512e-07
8.10508e-07
5.04022e-07
5.53751e-07
4.09722e-06
4.05833e-06
5.64714e-07
5.04022e-07
7.23867e-07
5.07511e-07
5.53763e-07
5.04023e-07
8.10534e-07
9.1945e-07
9.19525e-07
5.48608e-07
9.73226e-07
9.73254e-07
7.97407e-07
2.64485e-06
7.3736e-07
2.62028e-06
4.09702e-06
4.05822e-06
7.97406e-07
2.64505e-06
7.37375e-07
2.62045e-06
5.03899e-07
5.039e-07
5.039e-07
5.039e-07
5.039e-07
5.03899e-07
5.03899e-07
5.64702e-07
7.23833e-07
5.04023e-07
5.07514e-07
5.53745e-07
8.10522e-07
5.04023e-07
4.09719e-06
4.05839e-06
5.64713e-07
5.04023e-07
7.23853e-07
5.07513e-07
5.5375e-07
5.04023e-07
8.10565e-07
9.19457e-07
9.19527e-07
5.48612e-07
9.73335e-07
9.73365e-07
7.97614e-07
2.64489e-06
7.37353e-07
2.62027e-06
4.09714e-06
4.05822e-06
7.97639e-07
2.6451e-06
7.37368e-07
2.62044e-06
5.03899e-07
5.039e-07
5.039e-07
5.03899e-07
5.039e-07
5.03899e-07
5.039e-07
5.64697e-07
7.2383e-07
5.04022e-07
5.07513e-07
5.5374e-07
8.10524e-07
5.04023e-07
4.09732e-06
4.05841e-06
5.64708e-07
5.04023e-07
7.23852e-07
5.07512e-07
5.53749e-07
5.04023e-07
8.10571e-07
9.19464e-07
9.1953e-07
5.48613e-07
9.73326e-07
9.73325e-07
7.9759e-07
2.64487e-06
7.3737e-07
2.62026e-06
4.09711e-06
4.05816e-06
7.97645e-07
2.64509e-06
7.37387e-07
2.62041e-06
5.039e-07
5.039e-07
5.039e-07
5.039e-07
5.039e-07
5.039e-07
5.039e-07
5.64698e-07
7.2383e-07
5.04023e-07
5.07513e-07
5.53735e-07
8.10526e-07
5.04023e-07
4.09733e-06
4.05838e-06
5.64707e-07
5.04023e-07
7.23849e-07
5.07512e-07
5.53742e-07
5.04023e-07
8.10581e-07
9.19451e-07
9.19518e-07
5.48602e-07
9.73297e-07
9.73313e-07
7.97643e-07
2.64489e-06
7.37364e-07
2.62024e-06
4.09718e-06
4.05823e-06
7.97662e-07
2.6451e-06
7.37383e-07
2.62042e-06
5.03899e-07
5.039e-07
5.039e-07
5.03899e-07
5.03899e-07
5.03899e-07
5.03899e-07
5.64697e-07
7.23831e-07
5.04023e-07
5.07508e-07
5.53733e-07
8.10551e-07
5.04023e-07
4.09736e-06
4.05841e-06
5.64705e-07
5.04023e-07
7.2385e-07
5.07519e-07
5.53739e-07
5.04023e-07
8.10583e-07
9.19465e-07
9.19531e-07
5.48605e-07
9.73362e-07
9.73368e-07
7.97521e-07
2.64488e-06
7.37364e-07
2.62027e-06
4.09709e-06
4.0582e-06
7.97545e-07
2.64508e-06
7.37382e-07
2.62043e-06
5.03899e-07
5.03899e-07
5.03899e-07
5.039e-07
5.039e-07
5.03899e-07
5.039e-07
5.64698e-07
7.23836e-07
5.04023e-07
5.07514e-07
5.53746e-07
8.10524e-07
5.04023e-07
4.09724e-06
4.05838e-06
5.64707e-07
5.04023e-07
7.23866e-07
5.07512e-07
5.53754e-07
5.04023e-07
8.10548e-07
9.19464e-07
9.19531e-07
5.48609e-07
9.73305e-07
9.73322e-07
7.97568e-07
2.64491e-06
7.37363e-07
2.62029e-06
4.09711e-06
4.05817e-06
7.97568e-07
2.64509e-06
7.37378e-07
2.62043e-06
5.039e-07
5.039e-07
5.039e-07
5.03899e-07
5.039e-07
5.03899e-07
5.03899e-07
5.64698e-07
7.23833e-07
5.04023e-07
5.0751e-07
5.53741e-07
8.10542e-07
5.04023e-07
4.09726e-06
4.05838e-06
5.64707e-07
5.04023e-07
7.23855e-07
5.07512e-07
5.53747e-07
5.04023e-07
8.10574e-07
9.19462e-07
9.19527e-07
5.48604e-07
9.73312e-07
9.73345e-07
7.9757e-07
2.6449e-06
7.37375e-07
2.62027e-06
4.09712e-06
4.05816e-06
7.97591e-07
2.64508e-06
7.37386e-07
2.62041e-06
5.039e-07
5.039e-07
5.03899e-07
5.03899e-07
5.03899e-07
5.03899e-07
5.039e-07
5.64699e-07
7.23837e-07
5.04022e-07
5.07516e-07
5.53749e-07
8.10529e-07
5.04023e-07
4.09731e-06
4.05837e-06
5.6471e-07
5.04023e-07
7.23859e-07
5.07511e-07
5.53755e-07
5.04023e-07
8.10576e-07
9.19461e-07
9.19529e-07
5.48608e-07
9.73289e-07
9.73326e-07
7.97452e-07
2.64488e-06
7.37364e-07
2.62029e-06
4.09701e-06
4.05817e-06
7.97492e-07
2.64506e-06
7.37383e-07
2.62043e-06
5.03899e-07
5.039e-07
5.039e-07
5.039e-07
5.03899e-07
5.03899e-07
5.03899e-07
5.64704e-07
7.23844e-07
5.04022e-07
5.07509e-07
5.53737e-07
8.10517e-07
5.04022e-07
4.09722e-06
4.05838e-06
5.64712e-07
5.04023e-07
7.2386e-07
5.07513e-07
5.53746e-07
5.04023e-07
8.10557e-07
9.19455e-07
9.19521e-07
5.48617e-07
9.73343e-07
9.73357e-07
7.97548e-07
2.6449e-06
7.37369e-07
2.62029e-06
4.09706e-06
4.05815e-06
7.97598e-07
2.64507e-06
7.37384e-07
2.62042e-06
5.03899e-07
5.03899e-07
5.039e-07
5.039e-07
5.039e-07
5.03899e-07
5.039e-07
5.64702e-07
7.23836e-07
5.04023e-07
5.07509e-07
5.53745e-07
8.10521e-07
5.04023e-07
4.0973e-06
4.05837e-06
5.64711e-07
5.04023e-07
7.23853e-07
5.07512e-07
5.53751e-07
5.04023e-07
8.10564e-07
9.19458e-07
9.19525e-07
5.48613e-07
9.73272e-07
9.73297e-07
7.9756e-07
2.64492e-06
7.37358e-07
2.62029e-06
4.09712e-06
4.05818e-06
7.97602e-07
2.64509e-06
7.37378e-07
2.62042e-06
5.039e-07
5.039e-07
5.039e-07
5.03899e-07
5.039e-07
5.03899e-07
5.03899e-07
5.64698e-07
7.23828e-07
5.04023e-07
5.07509e-07
5.5374e-07
8.10543e-07
5.04023e-07
4.09734e-06
4.05839e-06
5.64706e-07
5.04023e-07
7.23851e-07
5.07512e-07
5.53748e-07
5.04023e-07
8.10579e-07
9.19459e-07
9.19525e-07
5.4861e-07
9.7336e-07
9.73383e-07
7.97531e-07
2.64489e-06
7.37365e-07
2.62029e-06
4.09709e-06
4.05819e-06
7.97543e-07
2.64506e-06
7.37381e-07
2.62043e-06
5.039e-07
5.03899e-07
5.039e-07
5.039e-07
5.039e-07
5.03899e-07
5.039e-07
5.64696e-07
7.23831e-07
5.04023e-07
5.07508e-07
5.53729e-07
8.10545e-07
5.04023e-07
4.09726e-06
4.05839e-06
5.64704e-07
5.04023e-07
7.23849e-07
5.07511e-07
5.53738e-07
5.04023e-07
8.10578e-07
9.19458e-07
9.19524e-07
5.48599e-07
9.73353e-07
9.73359e-07
7.97613e-07
2.64491e-06
7.37362e-07
2.62028e-06
4.09711e-06
4.05817e-06
7.97656e-07
2.6451e-06
7.37372e-07
2.62042e-06
5.039e-07
5.039e-07
5.039e-07
5.03899e-07
5.039e-07
5.039e-07
5.03899e-07
5.64696e-07
7.23824e-07
5.04023e-07
5.07509e-07
5.53741e-07
8.10541e-07
5.04023e-07
4.0973e-06
4.05838e-06
5.64705e-07
5.04023e-07
7.23845e-07
5.07513e-07
5.5375e-07
5.04023e-07
8.10567e-07
9.19465e-07
9.19531e-07
5.48612e-07
9.73342e-07
9.73368e-07
7.97578e-07
2.6449e-06
7.37369e-07
2.62028e-06
4.09709e-06
4.05816e-06
7.97595e-07
2.64508e-06
7.37388e-07
2.62042e-06
5.039e-07
5.039e-07
5.03899e-07
5.039e-07
5.039e-07
5.03899e-07
5.039e-07
5.64696e-07
7.23833e-07
5.04022e-07
5.07509e-07
5.53748e-07
8.10515e-07
5.04022e-07
4.09733e-06
4.05839e-06
5.64708e-07
5.04023e-07
7.23846e-07
5.07511e-07
5.5375e-07
5.04023e-07
8.10572e-07
9.1946e-07
9.19531e-07
5.48615e-07
9.73254e-07
9.73288e-07
7.97493e-07
2.64489e-06
7.37366e-07
2.62029e-06
4.09702e-06
4.05817e-06
7.9754e-07
2.64507e-06
7.37381e-07
2.62043e-06
5.03899e-07
5.03899e-07
5.039e-07
5.039e-07
5.03899e-07
5.039e-07
5.03899e-07
5.64703e-07
7.23837e-07
5.04023e-07
5.07514e-07
5.53743e-07
8.10518e-07
5.04023e-07
4.09725e-06
4.05839e-06
5.6471e-07
5.04023e-07
7.23858e-07
5.07516e-07
5.53745e-07
5.04023e-07
8.10561e-07
9.19459e-07
9.19528e-07
5.48615e-07
9.73316e-07
9.73332e-07
4.097e-06
2.64512e-06
7.37361e-07
5.03912e-07
5.03912e-07
5.03912e-07
7.23822e-07
5.04035e-07
5.53734e-07
4.09721e-06
5.04035e-07
7.23847e-07
5.53746e-07
9.19444e-07
9.19508e-07
9.19572e-07
9.19459e-07
5.48613e-07
9.73306e-07
9.73304e-07
4.09708e-06
4.05821e-06
4.05835e-06
4.09722e-06
5.50001e-07
9.73298e-07
9.73289e-07
9.1945e-07
9.19566e-07
4.05821e-06
4.09705e-06
5.647e-07
5.04023e-07
7.2392e-07
5.07519e-07
8.10585e-07
5.53747e-07
5.04023e-07
7.97564e-07
2.64506e-06
2.62043e-06
7.37381e-07
7.97566e-07
2.64512e-06
2.6204e-06
7.37382e-07
5.53761e-07
5.07515e-07
5.04022e-07
8.10537e-07
7.23865e-07
5.64714e-07
5.04023e-07
5.53759e-07
5.07518e-07
5.04023e-07
8.10643e-07
7.23885e-07
5.6471e-07
5.04023e-07
7.37381e-07
2.62044e-06
2.64505e-06
7.97525e-07
7.3738e-07
2.62045e-06
2.64503e-06
7.97538e-07
4.09712e-06
4.05829e-06
4.09718e-06
4.0582e-06
5.49994e-07
9.73281e-07
9.73261e-07
9.19451e-07
9.19526e-07
4.05821e-06
4.09719e-06
4.05828e-06
4.09712e-06
4.09693e-06
4.05807e-06
4.09712e-06
4.05825e-06
9.19443e-07
9.19516e-07
5.48614e-07
9.73265e-07
9.73284e-07
4.05805e-06
4.09688e-06
4.05823e-06
4.09704e-06
5.50003e-07
9.73219e-07
9.73257e-07
9.19441e-07
9.19517e-07
7.97532e-07
2.64495e-06
2.6203e-06
7.37361e-07
5.64702e-07
7.23862e-07
5.04023e-07
5.07517e-07
8.10532e-07
5.04023e-07
5.53746e-07
5.64702e-07
7.239e-07
5.04022e-07
5.0752e-07
8.10615e-07
5.04023e-07
5.53745e-07
7.37372e-07
2.62027e-06
2.64486e-06
7.9744e-07
7.37372e-07
2.62031e-06
2.64493e-06
7.97433e-07
5.53761e-07
5.07517e-07
8.10515e-07
5.04023e-07
7.23867e-07
5.04023e-07
5.64702e-07
5.53761e-07
5.0752e-07
8.10599e-07
5.04023e-07
7.23905e-07
5.04023e-07
5.647e-07
9.19508e-07
9.19401e-07
5.48598e-07
9.73259e-07
9.73201e-07
4.09696e-06
4.05809e-06
4.0582e-06
4.09701e-06
5.49981e-07
9.73279e-07
9.73202e-07
9.19509e-07
9.19402e-07
4.05807e-06
4.09695e-06
5.6471e-07
7.23906e-07
5.04023e-07
5.07512e-07
8.10609e-07
5.04022e-07
5.53754e-07
7.97538e-07
2.64518e-06
2.62054e-06
7.37377e-07
5.6471e-07
5.04023e-07
7.23937e-07
5.07519e-07
5.04023e-07
8.10671e-07
5.53753e-07
7.3739e-07
2.62044e-06
2.64505e-06
7.97448e-07
5.53773e-07
5.07514e-07
8.10588e-07
5.04023e-07
7.23915e-07
5.04022e-07
5.64714e-07
7.37389e-07
2.62055e-06
2.64516e-06
7.97429e-07
5.53773e-07
5.07518e-07
5.04023e-07
8.10638e-07
5.04023e-07
7.23949e-07
5.64713e-07
7.9753e-07
2.64491e-06
2.62031e-06
7.3737e-07
5.64703e-07
5.04023e-07
7.23865e-07
5.07521e-07
5.04023e-07
8.10561e-07
5.53752e-07
7.97535e-07
2.64501e-06
2.62042e-06
7.3737e-07
5.53751e-07
5.07515e-07
8.10505e-07
5.04023e-07
7.23836e-07
5.04023e-07
5.64703e-07
7.37369e-07
2.62031e-06
2.64491e-06
7.97508e-07
5.53755e-07
5.07513e-07
5.04023e-07
8.10583e-07
5.04023e-07
7.23869e-07
5.64702e-07
7.37371e-07
2.62043e-06
2.64504e-06
7.97512e-07
9.19566e-07
9.1945e-07
5.48622e-07
9.73306e-07
9.73251e-07
4.09703e-06
4.05819e-06
4.05835e-06
4.09717e-06
5.5001e-07
9.73293e-07
9.73245e-07
9.1957e-07
9.19446e-07
4.05819e-06
4.09706e-06
5.64711e-07
5.04023e-07
7.23927e-07
5.07513e-07
5.53759e-07
5.04023e-07
8.10615e-07
7.97503e-07
2.64504e-06
7.37382e-07
2.62044e-06
7.97504e-07
2.64511e-06
7.37382e-07
2.62046e-06
5.53758e-07
5.07515e-07
5.04023e-07
8.10552e-07
5.04023e-07
7.2386e-07
5.64715e-07
5.53755e-07
5.07514e-07
5.04023e-07
8.10657e-07
5.04023e-07
7.23901e-07
5.64713e-07
7.37377e-07
2.62044e-06
2.64504e-06
7.97522e-07
7.37375e-07
2.62046e-06
2.64511e-06
7.97535e-07
4.0971e-06
4.05819e-06
4.09715e-06
4.0583e-06
5.50011e-07
9.73286e-07
9.73319e-07
9.19451e-07
9.19519e-07
4.05822e-06
4.09715e-06
4.05832e-06
4.09721e-06
4.09686e-06
4.05807e-06
4.09699e-06
4.05826e-06
9.19434e-07
9.19512e-07
5.48602e-07
9.73222e-07
9.73236e-07
4.05811e-06
4.09696e-06
4.05831e-06
4.09712e-06
5.49972e-07
9.73293e-07
9.73317e-07
9.19432e-07
9.19507e-07
7.9743e-07
2.64495e-06
7.37356e-07
2.62032e-06
5.64699e-07
7.23864e-07
5.04023e-07
5.07517e-07
5.53752e-07
8.10522e-07
5.04023e-07
5.64699e-07
7.23905e-07
5.04023e-07
5.07516e-07
5.53747e-07
8.10614e-07
5.04022e-07
7.37346e-07
2.62029e-06
2.64486e-06
7.97486e-07
7.37348e-07
2.62032e-06
2.64496e-06
7.97508e-07
5.53728e-07
5.07516e-07
8.10561e-07
5.04023e-07
7.23844e-07
5.04023e-07
5.64692e-07
5.53728e-07
5.07519e-07
8.10626e-07
5.04023e-07
7.23897e-07
5.04023e-07
5.64693e-07
9.19513e-07
9.19401e-07
5.48608e-07
9.7331e-07
9.73227e-07
4.09696e-06
4.05808e-06
4.05825e-06
4.09706e-06
5.49978e-07
9.73358e-07
9.73217e-07
9.19514e-07
9.19403e-07
4.05809e-06
4.09697e-06
5.64709e-07
7.23912e-07
5.04023e-07
5.07509e-07
5.53759e-07
8.10573e-07
5.04023e-07
7.9741e-07
2.64518e-06
7.37372e-07
2.62057e-06
5.64708e-07
5.04023e-07
7.2394e-07
5.07514e-07
5.53758e-07
5.04023e-07
8.10669e-07
7.37359e-07
2.62045e-06
2.64508e-06
7.97507e-07
5.53731e-07
5.07513e-07
8.10638e-07
5.04023e-07
7.23888e-07
5.04023e-07
5.64705e-07
7.37359e-07
2.62057e-06
2.6452e-06
7.97511e-07
5.53732e-07
5.07516e-07
5.04023e-07
8.10673e-07
5.04023e-07
7.23938e-07
5.64706e-07
7.9754e-07
2.64492e-06
7.37364e-07
2.62031e-06
5.64701e-07
5.04023e-07
7.23868e-07
5.07512e-07
5.53746e-07
5.04023e-07
8.10586e-07
7.97539e-07
2.64505e-06
7.37366e-07
2.62043e-06
5.53745e-07
5.07509e-07
8.10512e-07
5.04023e-07
7.23832e-07
5.04023e-07
5.64698e-07
7.37367e-07
2.62031e-06
2.64491e-06
7.97518e-07
5.53745e-07
5.0751e-07
5.04022e-07
8.10566e-07
5.04022e-07
7.23876e-07
5.64697e-07
7.37367e-07
2.62043e-06
2.64505e-06
7.97515e-07
9.19571e-07
9.19443e-07
5.48621e-07
9.73379e-07
9.73266e-07
4.09711e-06
4.05819e-06
4.05843e-06
4.09722e-06
5.5e-07
9.73412e-07
9.73307e-07
9.19577e-07
9.19444e-07
4.05821e-06
4.09714e-06
5.64709e-07
5.04023e-07
7.23909e-07
5.07514e-07
5.5375e-07
5.04023e-07
8.10661e-07
7.97564e-07
2.64504e-06
7.37374e-07
2.62043e-06
7.9757e-07
2.64512e-06
7.37376e-07
2.62046e-06
5.5375e-07
5.07516e-07
5.04023e-07
8.10563e-07
5.04023e-07
7.23848e-07
5.64706e-07
5.53745e-07
5.07514e-07
5.04022e-07
8.1064e-07
5.04023e-07
7.23914e-07
5.64706e-07
7.37378e-07
2.62044e-06
2.64504e-06
7.97546e-07
7.37377e-07
2.62046e-06
2.64513e-06
7.97575e-07
4.09717e-06
4.05824e-06
4.09724e-06
4.05832e-06
5.4999e-07
9.73336e-07
9.73351e-07
9.19462e-07
9.19532e-07
4.05823e-06
4.09712e-06
4.05831e-06
4.09721e-06
4.09711e-06
4.05812e-06
4.09727e-06
4.05832e-06
9.19435e-07
9.19515e-07
5.48594e-07
9.73395e-07
9.73413e-07
4.05809e-06
4.09705e-06
4.05829e-06
4.09722e-06
5.49963e-07
9.73319e-07
9.73349e-07
9.19446e-07
9.19523e-07
7.97633e-07
2.64498e-06
7.37354e-07
2.6203e-06
5.64698e-07
7.23833e-07
5.04023e-07
5.07512e-07
5.53723e-07
8.10625e-07
5.04023e-07
5.64698e-07
7.23894e-07
5.04023e-07
5.07513e-07
5.53722e-07
8.10673e-07
5.04023e-07
7.37366e-07
2.62026e-06
2.64488e-06
7.97587e-07
7.37368e-07
2.62029e-06
2.64495e-06
7.97588e-07
5.53734e-07
5.07517e-07
8.10569e-07
5.04023e-07
7.23856e-07
5.04023e-07
5.64692e-07
5.53734e-07
5.07515e-07
8.10618e-07
5.04023e-07
7.23901e-07
5.04023e-07
5.6469e-07
9.19522e-07
9.19403e-07
5.48608e-07
9.73378e-07
9.73271e-07
4.09699e-06
4.05811e-06
4.05818e-06
4.09708e-06
5.49992e-07
9.73271e-07
9.73227e-07
9.19519e-07
9.19405e-07
4.05809e-06
4.09695e-06
5.64706e-07
7.23882e-07
5.04023e-07
5.07509e-07
5.53722e-07
8.10691e-07
5.04023e-07
7.97651e-07
2.64523e-06
7.37369e-07
2.62055e-06
5.64707e-07
5.04023e-07
7.23924e-07
5.07518e-07
5.53726e-07
5.04023e-07
8.10725e-07
7.37379e-07
2.62042e-06
2.6451e-06
7.97649e-07
5.53731e-07
5.07511e-07
8.10648e-07
5.04022e-07
7.23896e-07
5.04023e-07
5.64704e-07
7.3738e-07
2.62053e-06
2.64521e-06
7.97643e-07
5.53734e-07
5.07517e-07
5.04023e-07
8.10693e-07
5.04023e-07
7.23934e-07
5.64704e-07
7.97504e-07
2.64492e-06
7.37362e-07
2.62032e-06
5.64698e-07
5.04023e-07
7.23877e-07
5.07518e-07
5.53742e-07
5.04023e-07
8.1057e-07
7.97503e-07
2.64505e-06
7.37363e-07
2.62044e-06
5.53737e-07
5.0751e-07
8.10525e-07
5.04023e-07
7.23835e-07
5.04023e-07
5.647e-07
7.37361e-07
2.62031e-06
2.64492e-06
7.97537e-07
5.5374e-07
5.07512e-07
5.04023e-07
8.10543e-07
5.04023e-07
7.23878e-07
5.64699e-07
7.37363e-07
2.62043e-06
2.64504e-06
7.9753e-07
9.19578e-07
9.19448e-07
5.48617e-07
9.73443e-07
9.73343e-07
4.09714e-06
4.05822e-06
4.05838e-06
4.09729e-06
5.50001e-07
9.73378e-07
9.73293e-07
9.1958e-07
9.19451e-07
4.05821e-06
4.09711e-06
5.64706e-07
5.04023e-07
7.23915e-07
5.07508e-07
5.5375e-07
5.04022e-07
8.10625e-07
7.97526e-07
2.64505e-06
7.37376e-07
2.62045e-06
7.97535e-07
2.64511e-06
7.37379e-07
2.62046e-06
5.53746e-07
5.07514e-07
5.04023e-07
8.10564e-07
5.04023e-07
7.23858e-07
5.64708e-07
5.53745e-07
5.07517e-07
5.04023e-07
8.10611e-07
5.04023e-07
7.23911e-07
5.64707e-07
7.37373e-07
2.62044e-06
2.64505e-06
7.97567e-07
7.37374e-07
2.62046e-06
2.64511e-06
7.97569e-07
4.0971e-06
4.05822e-06
4.09717e-06
4.0583e-06
5.49993e-07
9.73252e-07
9.73261e-07
9.1946e-07
9.19525e-07
4.05822e-06
4.09706e-06
4.0583e-06
4.09713e-06
4.09704e-06
4.05809e-06
4.09722e-06
4.05828e-06
9.19437e-07
9.19518e-07
5.48596e-07
9.73284e-07
9.73312e-07
4.05811e-06
4.09707e-06
4.0583e-06
4.09725e-06
5.49977e-07
9.73332e-07
9.73342e-07
9.19435e-07
9.19515e-07
7.97591e-07
2.64494e-06
7.37366e-07
2.62027e-06
5.64692e-07
7.2385e-07
5.04023e-07
5.07511e-07
5.53739e-07
8.10555e-07
5.04023e-07
5.64691e-07
7.23886e-07
5.04023e-07
5.07513e-07
5.53736e-07
8.10625e-07
5.04023e-07
7.37366e-07
2.62025e-06
2.64489e-06
7.97588e-07
7.37365e-07
2.62028e-06
2.64495e-06
7.9759e-07
5.53736e-07
5.07511e-07
8.10565e-07
5.04023e-07
7.23844e-07
5.04023e-07
5.64689e-07
5.53734e-07
5.07517e-07
8.10641e-07
5.04023e-07
7.23878e-07
5.04023e-07
5.64689e-07
9.19507e-07
9.194e-07
5.48598e-07
9.73247e-07
9.73203e-07
4.097e-06
4.0581e-06
4.05821e-06
4.09716e-06
5.49984e-07
9.73331e-07
9.73302e-07
9.19508e-07
9.19399e-07
4.05812e-06
4.09712e-06
5.647e-07
7.23891e-07
5.04023e-07
5.07509e-07
5.5374e-07
8.10632e-07
5.04023e-07
7.97642e-07
2.6452e-06
7.37386e-07
2.62053e-06
5.64701e-07
5.04023e-07
7.23923e-07
5.07517e-07
5.53742e-07
5.04023e-07
8.10693e-07
7.37385e-07
2.62042e-06
2.6451e-06
7.97639e-07
5.5374e-07
5.07513e-07
8.10641e-07
5.04022e-07
7.23886e-07
5.04023e-07
5.64702e-07
7.37385e-07
2.62054e-06
2.6452e-06
7.97633e-07
5.53742e-07
5.07515e-07
5.04023e-07
8.10694e-07
5.04023e-07
7.23918e-07
5.64702e-07
7.97603e-07
2.64491e-06
7.37363e-07
2.6203e-06
5.64697e-07
5.04023e-07
7.23857e-07
5.07518e-07
5.53736e-07
5.04023e-07
8.10591e-07
7.97609e-07
2.64505e-06
7.37363e-07
2.62043e-06
5.53733e-07
5.07511e-07
8.1057e-07
5.04023e-07
7.23815e-07
5.04023e-07
5.64699e-07
7.37367e-07
2.6203e-06
2.64493e-06
7.97633e-07
5.53734e-07
5.07512e-07
5.04023e-07
8.10627e-07
5.04023e-07
7.23857e-07
5.64698e-07
7.37369e-07
2.62042e-06
2.64507e-06
7.9764e-07
9.19573e-07
9.19443e-07
5.4861e-07
9.73357e-07
9.73305e-07
4.09717e-06
4.05823e-06
4.05841e-06
4.09736e-06
5.49997e-07
9.73414e-07
9.73354e-07
9.19571e-07
9.19447e-07
4.05824e-06
4.09724e-06
5.64704e-07
5.04023e-07
7.23888e-07
5.07508e-07
5.53741e-07
5.04023e-07
8.10659e-07
7.97631e-07
2.64505e-06
7.37377e-07
2.62043e-06
7.97626e-07
2.64511e-06
7.37376e-07
2.62045e-06
5.53738e-07
5.07516e-07
5.04023e-07
8.10591e-07
5.04023e-07
7.23846e-07
5.64704e-07
5.53735e-07
5.07516e-07
5.04023e-07
8.10698e-07
5.04023e-07
7.23888e-07
5.64703e-07
7.37379e-07
2.62043e-06
2.64507e-06
7.97641e-07
7.37377e-07
2.62045e-06
2.64513e-06
7.97657e-07
4.09719e-06
4.05825e-06
4.09728e-06
4.05832e-06
5.49985e-07
9.73374e-07
9.73379e-07
9.19456e-07
9.19522e-07
4.05826e-06
4.09727e-06
4.05834e-06
4.09735e-06
4.09708e-06
4.05813e-06
4.09725e-06
4.05829e-06
9.19441e-07
9.1952e-07
5.48591e-07
9.73348e-07
9.73348e-07
4.0581e-06
4.09703e-06
4.05826e-06
4.0972e-06
5.49966e-07
9.73287e-07
9.733e-07
9.19448e-07
9.19521e-07
7.97648e-07
2.64497e-06
7.37362e-07
2.62029e-06
5.64693e-07
7.23844e-07
5.04023e-07
5.07516e-07
5.53729e-07
8.10588e-07
5.04023e-07
5.64693e-07
7.23884e-07
5.04023e-07
5.07514e-07
5.53727e-07
8.1067e-07
5.04023e-07
7.37378e-07
2.62025e-06
2.64486e-06
7.97534e-07
7.37376e-07
2.62029e-06
2.64495e-06
7.97531e-07
5.53748e-07
5.07517e-07
8.10541e-07
5.04023e-07
7.23862e-07
5.04023e-07
5.64696e-07
5.53746e-07
5.07519e-07
8.10623e-07
5.04023e-07
7.239e-07
5.04023e-07
5.64693e-07
9.19516e-07
9.19411e-07
5.48587e-07
9.73339e-07
9.73284e-07
4.09708e-06
4.0581e-06
4.0582e-06
4.09715e-06
5.49974e-07
9.73298e-07
9.73237e-07
9.19517e-07
9.1941e-07
4.05808e-06
4.097e-06
5.64702e-07
7.23889e-07
5.04022e-07
5.07508e-07
5.53736e-07
8.10658e-07
5.04022e-07
7.97659e-07
2.64522e-06
7.37382e-07
2.62054e-06
5.64702e-07
5.04023e-07
7.23921e-07
5.07513e-07
5.53738e-07
5.04022e-07
8.10709e-07
7.37393e-07
2.62042e-06
2.64508e-06
7.9758e-07
5.53752e-07
5.07511e-07
8.10619e-07
5.04023e-07
7.23902e-07
5.04023e-07
5.64706e-07
7.37392e-07
2.62054e-06
2.6452e-06
7.97573e-07
5.53752e-07
5.07515e-07
5.04023e-07
8.10681e-07
5.04023e-07
7.23937e-07
5.64705e-07
7.97643e-07
2.64493e-06
7.37371e-07
2.6203e-06
5.64695e-07
5.04023e-07
7.23865e-07
5.07512e-07
5.53737e-07
5.04023e-07
8.10609e-07
7.97642e-07
2.64507e-06
7.37373e-07
2.62042e-06
5.53747e-07
5.07508e-07
8.10517e-07
5.04023e-07
7.23837e-07
5.04022e-07
5.64697e-07
7.37377e-07
2.6203e-06
2.64492e-06
7.97551e-07
5.53748e-07
5.07511e-07
5.04023e-07
8.10584e-07
5.04022e-07
7.23874e-07
5.64696e-07
7.37378e-07
2.62042e-06
2.64506e-06
7.97566e-07
9.19579e-07
9.19453e-07
5.48611e-07
9.73418e-07
9.73356e-07
4.09723e-06
4.05822e-06
4.05839e-06
4.09732e-06
5.49997e-07
9.73401e-07
9.73358e-07
9.19582e-07
9.19456e-07
4.05822e-06
4.09716e-06
5.64704e-07
5.04023e-07
7.239e-07
5.07514e-07
5.5374e-07
5.04023e-07
8.10684e-07
7.97672e-07
2.64508e-06
7.37382e-07
2.62042e-06
7.97676e-07
2.64512e-06
7.37384e-07
2.62044e-06
5.53755e-07
5.07515e-07
5.04023e-07
8.10569e-07
5.04023e-07
7.23862e-07
5.64707e-07
5.53755e-07
5.07514e-07
5.04023e-07
8.10645e-07
5.04023e-07
7.23911e-07
5.64705e-07
7.37389e-07
2.62044e-06
2.64506e-06
7.97568e-07
7.37389e-07
2.62045e-06
2.64511e-06
7.97574e-07
4.09724e-06
4.05823e-06
4.09734e-06
4.0583e-06
5.49988e-07
9.73333e-07
9.73337e-07
9.19461e-07
9.19528e-07
4.05823e-06
4.09717e-06
4.05831e-06
4.09724e-06
4.09698e-06
4.05808e-06
4.09715e-06
4.05827e-06
9.19444e-07
9.19517e-07
5.486e-07
9.73265e-07
9.73281e-07
4.05812e-06
4.09701e-06
4.05829e-06
4.09717e-06
5.49969e-07
9.73299e-07
9.73312e-07
9.19438e-07
9.19512e-07
7.97514e-07
2.64494e-06
7.37361e-07
2.6203e-06
5.64695e-07