/*--------------------------------*- C++ -*----------------------------------*\
| =========                 |                                                 |
| \\      /  F ield         | OpenFOAM: The Open Source CFD Toolbox           |
|  \\    /   O peration     | Version:  2206                                  |
|   \\  /    A nd           | Website:  www.openfoam.com                      |
|    \\/     M anipulation  |                                                 |
\*---------------------------------------------------------------------------*/
FoamFile
{
    version     2.0;
    format      ascii;
    arch        "LSB;label=32;scalar=64";
    class       volScalarField;
    location    "2.5";
    object      p;
}
// * * * * * * * * * * * * * * * * * * * * * * * * * * * * * * * * * * * * * //

dimensions      [0 2 -2 0 0 0 0];

internalField   nonuniform List<scalar> 
28381
(
-0.000235704
-0.000313107
-0.000270501
-0.000270507
-0.000270552
-0.000313352
-0.000270548
-0.000266228
-0.000266239
-0.000276562
-0.000276597
-0.000272277
-0.000185499
-0.000185506
-0.000368739
-0.000368723
-0.000361649
-0.000361636
-0.000369936
-0.000366904
-0.0003669
-0.000338821
-0.000272552
-0.000350525
-0.000272534
-0.000350522
-0.000369912
-0.000366896
-0.000338801
-0.00027257
-0.000350522
-0.000369953
-0.000366901
-0.000272573
-0.000338835
-0.00035053
-0.000368764
-0.000361683
-0.000361687
-0.000368771
-0.000272571
-0.000338865
-0.000350607
-0.000369975
-0.000366973
-0.00020441
-0.000179087
-0.000204424
-0.000179107
-0.000179689
-0.00017968
-0.000346853
-0.000196705
-0.000191456
-0.000357359
-0.000197902
-0.000348777
-0.000351879
-0.000346835
-0.0001967
-0.000191461
-0.000357365
-0.000197907
-0.000348792
-0.000351858
-0.000361072
-0.000185859
-0.000185858
-0.000183008
-0.000358122
-0.000358121
-0.00018399
-0.000183983
-0.000202214
-0.000352927
-0.0001898
-0.000356165
-0.000195724
-0.000201082
-0.000351074
-0.000202227
-0.000352898
-0.00018981
-0.000356141
-0.000195736
-0.000201103
-0.000351046
-0.000187285
-0.000362424
-0.000362419
-0.000190127
-0.000190126
-0.000365354
-0.000179071
-0.000183411
-0.000372396
-0.000372257
-0.000181396
-0.000179207
-0.000184664
-0.00037242
-0.000365364
-0.000371187
-0.000178117
-0.000185911
-0.000179085
-0.000372372
-0.000181408
-0.000372237
-0.000179214
-0.000184666
-0.000372413
-0.000365355
-0.000178119
-0.000185919
-0.000371179
-0.000179088
-0.000183428
-0.000372371
-0.000372248
-0.000181414
-0.000179203
-0.000184676
-0.000365358
-0.000372401
-0.000371188
-0.000185912
-0.000178123
-0.000179137
-0.000183451
-0.000372415
-0.000181451
-0.000372272
-0.000179324
-0.000184673
-0.000372405
-0.000365378
-0.000178069
-0.000185967
-0.000371202
-0.000184012
-0.000202252
-0.000352995
-0.000189845
-0.000356181
-0.000201093
-0.000195777
-0.00035111
-0.000202249
-0.000352985
-0.000189835
-0.000356203
-0.000195763
-0.000201115
-0.000351127
-0.000187324
-0.000362458
-0.000362461
-0.000190172
-0.000190169
-0.000365396
-0.000184015
-0.000179077
-0.00018343
-0.000372441
-0.000181397
-0.000372303
-0.000179207
-0.000184629
-0.000365423
-0.000372475
-0.00018589
-0.000178091
-0.000371241
-0.000365647
-0.000367972
-0.000177079
-0.000365642
-0.000174758
-0.000368119
-0.000364443
-0.000364441
-0.0003237
-0.000216195
-0.000216251
-0.000308853
-0.000212519
-0.000329031
-0.000329007
-0.000217013
-0.000239709
-0.000332455
-0.000332354
-0.000221103
-0.000221175
-0.000327679
-0.000217013
-0.000239705
-0.000332618
-0.000332604
-0.000221061
-0.0002211
-0.000327796
-0.000276414
-0.000276425
-0.000274432
-0.000276426
-0.000276443
-0.00027443
-0.000210718
-0.000350739
-0.000208716
-0.000346348
-0.000206971
-0.000199602
-0.000346809
-0.000217414
-0.000199085
-0.000348565
-0.000340275
-0.00019988
-0.000218758
-0.000340871
-0.000210749
-0.000346343
-0.000199617
-0.000346759
-0.000217419
-0.000199084
-0.000348557
-0.000340284
-0.000199878
-0.00021875
-0.000340849
-0.000210811
-0.000350707
-0.000208746
-0.000346337
-0.000207001
-0.000199616
-0.000346706
-0.000217429
-0.000199108
-0.000348561
-0.000340259
-0.000199895
-0.000218774
-0.000340861
-0.000210755
-0.000350763
-0.000208771
-0.00034637
-0.000199646
-0.000207013
-0.000346813
-0.000217443
-0.000199111
-0.000340277
-0.000348579
-0.000218766
-0.000199916
-0.000340873
-0.000210729
-0.000350801
-0.000208743
-0.000346393
-0.00034687
-0.000206988
-0.000199606
-0.000217361
-0.000199046
-0.00034045
-0.00034862
-0.000341006
-0.000218668
-0.000199858
-0.000202661
-0.000334528
-0.000346491
-0.000342608
-0.000202683
-0.000195268
-0.000334524
-0.000346489
-0.00020637
-0.000342065
-0.000248894
-0.000218073
-0.00023748
-0.000231419
-0.000231417
-0.000200741
-0.000220013
-0.000213942
-0.000213927
-0.000183083
-0.00020258
-0.000196542
-0.000196532
-0.00016597
-0.000185262
-0.000179172
-0.000179159
-0.000148361
-0.000167967
-0.000161895
-0.000161922
-0.000131055
-0.000150616
-0.000144549
-0.000144574
-0.000113944
-0.000133189
-0.000127118
-0.000127124
-9.63385e-05
-0.000115801
-0.000109743
-0.000109729
-7.91427e-05
-9.83525e-05
-9.2289e-05
-9.22826e-05
-6.16749e-05
-8.08978e-05
-7.48372e-05
-7.48352e-05
-4.42672e-05
-6.35129e-05
-5.74229e-05
-5.74408e-05
-2.65594e-05
-4.61795e-05
-4.01022e-05
-4.01113e-05
-9.10771e-06
-2.8772e-05
-2.27368e-05
-2.27243e-05
8.05145e-06
-1.1411e-05
-5.35741e-06
-5.31528e-06
2.52196e-05
6.05393e-06
1.21028e-05
1.20688e-05
4.28536e-05
2.36044e-05
2.9597e-05
2.96087e-05
6.02339e-05
-0.000218116
-0.000278291
-0.0002489
-0.000235792
-0.000235782
-0.000278539
-0.000200736
-0.000260878
-0.000231424
-0.000231421
-0.000218306
-0.000218306
-0.000200482
-0.000261067
-0.00023142
-0.00023142
-0.000218298
-0.000218295
-0.000231437
-0.000218308
-0.000218309
-0.000200895
-0.000260692
-0.000231428
-0.0002183
-0.000218298
-0.00026084
-0.000183356
-0.000243591
-0.000213939
-0.000213937
-0.000200826
-0.000200875
-0.000183028
-0.000243828
-0.000213931
-0.00021392
-0.000200819
-0.000200864
-0.000213952
-0.000200882
-0.000200912
-0.000183219
-0.000243645
-0.000213942
-0.000200863
-0.000200904
-0.000243479
-0.000165342
-0.000226456
-0.00019649
-0.00019654
-0.000183547
-0.000183521
-0.000165446
-0.000226416
-0.000196491
-0.000196534
-0.000183538
-0.000183514
-0.000196549
-0.000183517
-0.000183504
-0.000165574
-0.000226291
-0.00019654
-0.000183507
-0.000183498
-0.000225985
-0.000148203
-0.000209121
-0.000179206
-0.000179179
-0.000166227
-0.000166213
-0.000148052
-0.000209098
-0.000179201
-0.000179166
-0.000166225
-0.000166224
-0.000179156
-0.000166212
-0.000166203
-0.000148148
-0.000209118
-0.000179151
-0.000166222
-0.000166199
-0.000208966
-0.000130914
-0.000191738
-0.000161916
-0.000161902
-0.000148912
-0.000148905
-0.000130833
-0.000191883
-0.000161913
-0.000161929
-0.000148917
-0.000148929
-0.000161916
-0.000148904
-0.00014892
-0.000130983
-0.000191767
-0.000161912
-0.000148937
-0.000148919
-0.000191597
-0.000113698
-0.000174298
-0.000144547
-0.000144551
-0.000131458
-0.000131472
-0.000113551
-0.000174378
-0.000144546
-0.000144572
-0.000131447
-0.000131473
-0.00014456
-0.000131465
-0.000131468
-0.000113817
-0.000174115
-0.00014456
-0.000131474
-0.000131463
-0.000173944
-9.607e-05
-0.000156919
-0.00012713
-0.000127123
-0.000114102
-0.000114097
-9.6007e-05
-0.000157045
-0.000127118
-0.000127125
-0.000114097
-0.00011408
-0.000127111
-0.000114087
-0.000114093
-9.62742e-05
-0.000156826
-0.000127106
-0.00011407
-0.000114088
-0.000156727
-7.88014e-05
-0.000139193
-0.000109752
-0.000109752
-9.66711e-05
-9.66625e-05
-7.87137e-05
-0.000139475
-0.000109744
-0.000109738
-9.66659e-05
-9.66522e-05
-0.000109732
-9.66592e-05
-9.66494e-05
-7.88535e-05
-0.000139297
-0.000109726
-9.6649e-05
-9.66408e-05
-0.000139171
-6.16879e-05
-0.00012189
-9.22828e-05
-9.22894e-05
-7.91814e-05
-7.91976e-05
-6.14199e-05
-0.00012202
-9.22763e-05
-9.22821e-05
-7.91729e-05
-7.91912e-05
-9.2291e-05
-7.91947e-05
-7.92031e-05
-6.15391e-05
-0.000121904
-9.22834e-05
-7.919e-05
-7.91988e-05
-0.000121702
-4.38451e-05
-0.000104621
-7.48302e-05
-7.48417e-05
-6.17846e-05
-6.17733e-05
-4.39113e-05
-0.000104669
-7.48219e-05
-7.48367e-05
-6.17759e-05
-6.17815e-05
-7.4837e-05
-6.17649e-05
-6.17645e-05
-4.39964e-05
-0.000104554
-7.48324e-05
-6.17746e-05
-6.17604e-05
-0.000104464
-2.6363e-05
-8.73665e-05
-5.74444e-05
-5.74284e-05
-4.44877e-05
-4.44443e-05
-2.62846e-05
-8.74312e-05
-5.74407e-05
-5.74481e-05
-4.44919e-05
-4.4454e-05
-5.74529e-05
-4.44389e-05
-4.44258e-05
-2.64457e-05
-8.72827e-05
-5.74495e-05
-4.44515e-05
-4.4422e-05
-8.70177e-05
-9.37068e-06
-6.98272e-05
-4.01229e-05
-4.01049e-05
-2.70203e-05
-2.70737e-05
-9.03114e-06
-7.00494e-05
-4.01227e-05
-4.01115e-05
-2.70074e-05
-2.70709e-05
-4.00636e-05
-2.70758e-05
-2.70952e-05
-9.20742e-06
-6.98583e-05
-4.00566e-05
-2.70718e-05
-2.70866e-05
-6.98808e-05
8.41019e-06
-5.26443e-05
-2.26943e-05
-2.27349e-05
-9.72665e-06
-9.70551e-06
8.31526e-06
-5.26847e-05
-2.26983e-05
-2.27242e-05
-9.71253e-06
-9.67214e-06
-2.27553e-05
-9.70432e-06
-9.7118e-06
8.16482e-06
-5.24916e-05
-2.27465e-05
-9.67123e-06
-9.70447e-06
-5.23757e-05
2.55782e-05
-3.50844e-05
-5.35917e-06
-5.36001e-06
7.74189e-06
7.73952e-06
2.56561e-05
-3.51635e-05
-5.34916e-06
-5.31511e-06
7.73668e-06
7.72104e-06
-5.3393e-06
7.73638e-06
7.75485e-06
2.56849e-05
-3.51656e-05
-5.33145e-06
7.71795e-06
7.76037e-06
-3.47702e-05
4.29415e-05
-1.74103e-05
1.21239e-05
1.21082e-05
2.53057e-05
2.52513e-05
4.30385e-05
-1.74519e-05
1.21145e-05
1.20821e-05
2.53e-05
2.52434e-05
1.21127e-05
2.52339e-05
2.521e-05
4.2894e-05
-1.72739e-05
1.21152e-05
2.52219e-05
2.52127e-05
-1.73044e-05
2.962e-05
6.05672e-05
2.96855e-05
2.96309e-05
2.95636e-05
6.03031e-05
2.95688e-05
-0.00016239
-0.000342717
-0.000324632
-0.0002509
-0.000187101
-0.000244527
-0.000312817
-0.000177328
-0.000246541
-0.000168182
-0.000168186
-0.000287106
-0.000335591
-0.000335606
-0.000323497
-0.000144345
-0.000326437
-0.000145487
-0.000144945
-0.000325209
-0.000323491
-0.000144355
-0.000326409
-0.000145463
-0.000237484
-0.000237486
-0.000237503
-0.000224378
-0.000224378
-0.000224379
-0.000224379
-0.000307181
-0.000169638
-0.000233449
-0.000227049
-0.000295343
-0.000229085
-0.000159852
-0.000144957
-0.000325193
-0.000307235
-0.000233434
-0.000169644
-0.000227042
-0.000159802
-0.000229066
-0.000295333
-0.000150777
-0.000150766
-0.00026961
-0.000318129
-0.000318139
-0.00030603
-0.000126834
-0.000127958
-0.000308973
-0.000127441
-0.000307753
-0.000306036
-0.000126829
-0.000127924
-0.000308951
-0.000220011
-0.000220006
-0.000220012
-0.000206922
-0.000206942
-0.000206934
-0.000206951
-0.000289707
-0.000152169
-0.000215984
-0.00020958
-0.000142407
-0.000277884
-0.000211626
-0.000127429
-0.000307732
-0.00028972
-0.000215968
-0.00015217
-0.000209564
-0.000142353
-0.00021161
-0.000277864
-0.000133291
-0.000133284
-0.000252344
-0.000300702
-0.000300697
-0.000288595
-0.000109448
-0.00011063
-0.000291596
-0.000110041
-0.000290392
-0.000288575
-0.000109458
-0.000110642
-0.000291562
-0.000202602
-0.000202595
-0.000202599
-0.000189596
-0.000189585
-0.000189577
-0.000189574
-0.000272335
-0.000134743
-0.000198574
-0.000192213
-0.000124993
-0.000260529
-0.000194236
-0.000110033
-0.000290376
-0.000272353
-0.000198559
-0.000134744
-0.000192203
-0.000124944
-0.000194222
-0.000260519
-0.000115884
-0.000115876
-0.000234743
-0.000283307
-0.000283308
-0.000271303
-9.2089e-05
-9.32824e-05
-0.000274315
-9.26691e-05
-0.000273084
-0.000271275
-9.2106e-05
-9.33018e-05
-0.000274284
-0.000185247
-0.000185237
-0.00018523
-0.000172283
-0.000172275
-0.000172281
-0.000172266
-0.000254915
-0.00011738
-0.000181216
-0.00017483
-0.000107649
-0.000243169
-0.000176885
-9.26641e-05
-0.000273072
-0.00025493
-0.000181203
-0.000117372
-0.000174824
-0.000107612
-0.000176874
-0.000243158
-9.84724e-05
-9.84725e-05
-0.000217449
-0.000265934
-0.000265936
-0.000254003
-7.48064e-05
-7.60062e-05
-0.000257009
-7.53828e-05
-0.000255788
-0.000254002
-7.48164e-05
-7.60162e-05
-0.000256994
-0.000167959
-0.000167972
-0.000167966
-0.000154976
-0.000154972
-0.000154984
-0.000154977
-0.000237638
-0.000100106
-0.000163934
-0.00015759
-9.04273e-05
-0.000225896
-0.000159612
-7.53966e-05
-0.000255814
-0.000237684
-0.000163936
-0.000100123
-0.000157611
-9.03961e-05
-0.000159616
-0.000225916
-8.12044e-05
-8.12052e-05
-0.000200418
-0.000248716
-0.000248726
-0.000236638
-5.7428e-05
-5.85987e-05
-0.00023961
-5.80237e-05
-0.000238389
-0.000236637
-5.74475e-05
-5.86091e-05
-0.000239598
-0.000150619
-0.000150628
-0.000150623
-0.00013753
-0.00013754
-0.000137541
-0.00013754
-0.000220322
-8.27392e-05
-0.000146575
-0.000140189
-7.29924e-05
-0.000208515
-0.00014222
-5.8046e-05
-0.000238398
-0.00022038
-0.000146582
-8.27685e-05
-0.000140205
-7.29553e-05
-0.000142223
-0.000208523
-6.38762e-05
-6.38758e-05
-0.000182705
-0.000231311
-0.000231319
-0.000219193
-4.00454e-05
-4.12437e-05
-0.000222196
-4.06277e-05
-0.00022098
-0.000219213
-4.00442e-05
-4.12027e-05
-0.000222186
-0.00013319
-0.000133189
-0.000133184
-0.000120154
-0.000120155
-0.000120145
-0.000120145
-0.00020286
-6.53258e-05
-0.000129158
-0.000122781
-5.55939e-05
-0.000191091
-0.000124814
-4.06216e-05
-0.000220961
-0.000202901
-0.000129151
-6.53345e-05
-0.000122773
-5.55332e-05
-0.000124802
-0.000191071
-4.64386e-05
-4.64348e-05
-0.000165424
-0.000213869
-0.000213875
-0.000201802
-2.26762e-05
-2.38559e-05
-0.0002048
-2.32685e-05
-0.000203582
-0.000201801
-2.26754e-05
-2.38219e-05
-0.000204778
-0.000115808
-0.000115798
-0.000115795
-0.000102727
-0.000102727
-0.000102722
-0.000102721
-0.000185498
-4.79486e-05
-0.000111762
-0.000105395
-3.82075e-05
-0.000173704
-0.000107407
-2.3251e-05
-0.000203558
-0.000185518
-0.000111745
-4.79443e-05
-0.00010538
-3.81562e-05
-0.00010739
-0.000173677
-2.90681e-05
-2.90646e-05
-0.000147856
-0.000196468
-0.000196466
-0.000184356
-5.19381e-06
-6.34662e-06
-0.000187314
-5.80008e-06
-0.000186091
-0.000184363
-5.20137e-06
-6.32586e-06
-0.000187287
-9.83574e-05
-9.83533e-05
-9.83571e-05
-8.52504e-05
-8.52595e-05
-8.52549e-05
-8.52679e-05
-0.000168044
-3.05031e-05
-9.43224e-05
-8.79196e-05
-2.07241e-05
-0.000156223
-8.99599e-05
-5.7887e-06
-0.000186085
-0.000168072
-9.43087e-05
-3.04982e-05
-8.79129e-05
-2.06734e-05
-8.99467e-05
-0.000156211
-1.16305e-05
-1.16252e-05
-0.000130478
-0.000179009
-0.000179013
-0.000166904
1.22352e-05
1.10607e-05
-0.000169877
1.164e-05
-0.000168658
-0.0001669
1.22298e-05
1.10707e-05
-0.000169853
-8.09027e-05
-8.08977e-05
-8.09071e-05
-6.78537e-05
-6.78476e-05
-6.78493e-05
-6.78405e-05
-0.000150584
-1.30483e-05
-7.68709e-05
-7.04779e-05
-3.28899e-06
-0.000138784
-7.25166e-05
1.16467e-05
-0.000168652
-0.000150603
-7.68627e-05
-1.30502e-05
-7.04778e-05
-3.25521e-06
-7.25088e-05
-0.000138773
5.82209e-06
5.81918e-06
-0.000112932
-0.000161568
-0.000161566
-0.00014953
2.96281e-05
2.84313e-05
-0.000152541
2.906e-05
-0.000151309
-0.000149548
2.96146e-05
2.84542e-05
-0.000152526
-6.35065e-05
-6.35141e-05
-6.35109e-05
-5.05285e-05
-5.05073e-05
-5.05145e-05
-5.04951e-05
-0.000133199
4.35348e-06
-5.94769e-05
-5.31005e-05
1.40609e-05
-0.000121432
-5.51444e-05
2.90501e-05
-0.000151322
-0.000133242
-5.94763e-05
4.33914e-06
-5.31257e-05
1.40956e-05
-5.51458e-05
-0.000121437
2.32388e-05
2.32367e-05
-9.59211e-05
-0.000144253
-0.000144256
-0.000132191
4.69938e-05
4.57973e-05
-0.000135191
4.6425e-05
-0.000133985
-0.000132223
4.69926e-05
4.58353e-05
-0.000135178
-4.61648e-05
-4.617e-05
-4.61401e-05
-3.31079e-05
-3.3132e-05
-3.31319e-05
-3.31357e-05
-0.000115824
2.17033e-05
-4.21356e-05
-3.57639e-05
3.14083e-05
-0.000104093
-3.77989e-05
4.64181e-05
-0.000133986
-0.000115864
-4.21311e-05
2.16841e-05
-3.57713e-05
3.14569e-05
-3.77909e-05
-0.000104091
4.06293e-05
4.06322e-05
-7.84436e-05
-0.000126864
-0.000126865
-0.000114779
6.43721e-05
6.31639e-05
-0.0001178
6.37885e-05
-0.000116596
-0.000114782
6.43706e-05
6.31875e-05
-0.000117767
-2.87909e-05
-2.8787e-05
-2.87974e-05
-1.57665e-05
-1.5763e-05
-1.57491e-05
-1.57523e-05
-9.84643e-05
3.90586e-05
-2.4771e-05
-1.83938e-05
4.87476e-05
-8.67198e-05
-2.04268e-05
6.37968e-05
-0.000116567
-9.85046e-05
-2.47515e-05
3.90676e-05
-1.8375e-05
4.88278e-05
-2.04047e-05
-8.66983e-05
5.79514e-05
5.79636e-05
-6.1147e-05
-0.000109538
-0.000109542
-9.74021e-05
8.17351e-05
8.05562e-05
-0.000100408
8.11621e-05
-9.91884e-05
-9.74019e-05
8.17463e-05
8.05858e-05
-0.000100382
-1.14141e-05
-1.13953e-05
-1.13939e-05
1.68212e-06
1.67294e-06
1.66809e-06
1.68633e-06
-8.11083e-05
5.64506e-05
-7.37e-06
-1.00039e-06
6.61946e-05
-6.93203e-05
-3.01201e-06
8.11911e-05
-9.91683e-05
-8.11038e-05
-7.34491e-06
5.64734e-05
-9.65453e-07
6.62488e-05
-2.99251e-06
-6.92884e-05
7.53436e-05
7.53485e-05
-4.35242e-05
-9.20859e-05
-9.20814e-05
-7.99409e-05
9.92253e-05
9.80477e-05
-8.29051e-05
9.86136e-05
-8.16925e-05
-7.99352e-05
9.92069e-05
9.80341e-05
-8.28831e-05
6.04003e-06
6.03041e-06
6.04898e-06
1.92157e-05
1.91647e-05
1.91664e-05
1.91518e-05
-6.36602e-05
7.38977e-05
1.00779e-05
1.64739e-05
8.36736e-05
-5.1839e-05
1.44484e-05
9.86063e-05
-8.17186e-05
-6.36637e-05
1.00696e-05
7.3866e-05
1.64443e-05
8.36652e-05
1.44392e-05
-5.18494e-05
9.27925e-05
9.27852e-05
-2.60944e-05
-7.46302e-05
-7.46295e-05
0.000116123
0.000116774
0.000115575
2.35377e-05
2.35532e-05
2.35153e-05
9.13744e-05
2.75508e-05
0.000101136
0.000116126
2.75611e-05
9.1365e-05
0.000101139
0.000110235
0.000110229
-0.000168217
-0.000168225
-0.000287158
-0.000335616
-0.000335634
-0.0001624
-0.000342702
-0.00033395
-0.000153684
-0.000209573
-0.000326863
-0.000326858
-0.000159531
-0.000159516
-0.000333947
-0.000153699
-0.000324642
-0.00025087
-0.000187086
-0.000244514
-0.000312793
-0.000177317
-0.000246537
-0.000340959
-0.000161793
-0.000343927
-0.000162937
-0.000340959
-0.000161764
-0.000343911
-0.000162928
-0.000168577
-0.000240156
-0.000237807
-0.000304074
-0.000178387
-0.000315946
-0.000242176
-0.000168564
-0.000240155
-0.00023782
-0.000304073
-0.000178366
-0.000315961
-0.000242158
-0.0001542
-0.000335182
-0.000153081
-0.000332252
-0.000154195
-0.000335189
-0.000153044
-0.000332253
-0.000162364
-0.000342686
-0.000162354
-0.00034269
-0.000209398
-0.00032686
-0.000326882
-0.000159477
-0.000159473
-0.000333957
-0.000153667
-0.000333967
-0.000153652
-0.000144965
-0.000325199
-0.000144955
-0.000325184
-0.000150796
-0.000150792
-0.000269504
-0.000318109
-0.000318105
-0.000316472
-0.000136216
-0.00031646
-0.000136198
-0.00019205
-0.000309381
-0.000309378
-0.000142051
-0.000142045
-0.000323492
-0.000144343
-0.000326431
-0.000145485
-0.000307201
-0.000169651
-0.000233444
-0.000227051
-0.000295333
-0.000229072
-0.000159849
-0.000307203
-0.000169651
-0.000233446
-0.000227051
-0.000295327
-0.000229073
-0.000159848
-0.000136719
-0.000317717
-0.00013559
-0.000314787
-0.000136718
-0.000317711
-0.000135593
-0.000314783
-0.00015107
-0.00022267
-0.000286607
-0.000220331
-0.000160897
-0.000224696
-0.000298503
-0.000151069
-0.000222674
-0.0002866
-0.000220332
-0.000160903
-0.000224698
-0.000298503
-0.000150769
-0.000150773
-0.000269821
-0.000318128
-0.00031813
-0.000144949
-0.000325222
-0.000316481
-0.000136197
-0.000191816
-0.000309398
-0.00030939
-0.000142028
-0.000142044
-0.000316482
-0.000136217
-0.000307219
-0.000169664
-0.000233439
-0.000227044
-0.000295307
-0.000229067
-0.000159822
-0.000323492
-0.000144351
-0.000326424
-0.000145457
-0.000307225
-0.000233436
-0.000169662
-0.000227045
-0.000229056
-0.00029532
-0.000159815
-0.00013668
-0.000317695
-0.000135593
-0.000314792
-0.00015102
-0.000222662
-0.000286583
-0.000220324
-0.00016091
-0.000224689
-0.000298532
-0.000136674
-0.000317699
-0.000135585
-0.00031479
-0.000151013
-0.00022267
-0.000220315
-0.000286587
-0.000224681
-0.000160902
-0.000298537
-0.0003235
-0.000144334
-0.000326451
-0.000145473
-0.000307179
-0.000233444
-0.00016965
-0.000227079
-0.000229071
-0.000295346
-0.000159851
-0.000323497
-0.000144339
-0.000326452
-0.000145471
-0.000151123
-0.000222679
-0.000286605
-0.000220348
-0.000160905
-0.000224714
-0.000298435
-0.000136743
-0.000317715
-0.000135599
-0.000314762
-0.000151121
-0.000222684
-0.000220338
-0.000286602
-0.000224706
-0.000160914
-0.000298435
-0.000136734
-0.000317709
-0.000135606
-0.000314759
-0.000150788
-0.000150796
-0.000269517
-0.000318105
-0.000318104
-0.000144959
-0.000325196
-0.000316461
-0.000136196
-0.00019211
-0.000309373
-0.000309354
-0.000142029
-0.000142053
-0.000316448
-0.000136223
-0.000307245
-0.000233442
-0.000169638
-0.000227042
-0.000159791
-0.000229074
-0.000295334
-0.000323525
-0.000144337
-0.000145445
-0.000326437
-0.000323524
-0.000144332
-0.000145442
-0.000326446
-0.000151047
-0.000222675
-0.000220333
-0.000286585
-0.000224699
-0.000160902
-0.00029847
-0.000151043
-0.000222676
-0.000220335
-0.000286591
-0.000224702
-0.000160904
-0.000298474
-0.000136695
-0.000317686
-0.000135599
-0.000314764
-0.000136694
-0.00031769
-0.000135604
-0.000314764
-0.000144962
-0.000325222
-0.000144937
-0.000325221
-0.000192069
-0.000309386
-0.000309387
-0.000142036
-0.00014203
-0.000316481
-0.000136229
-0.000316469
-0.000136208
-0.00012746
-0.000307731
-0.000127431
-0.000307718
-0.0001333
-0.000133292
-0.000251941
-0.000300635
-0.000300635
-0.000299025
-0.000118721
-0.000299007
-0.000118697
-0.000174287
-0.000291932
-0.000291925
-0.000124539
-0.000124536
-0.000306031
-0.000126842
-0.000127967
-0.000308979
-0.000289732
-0.000152147
-0.000215965
-0.00020956
-0.000142308
-0.000277859
-0.000211603
-0.000289734
-0.000152156
-0.000215969
-0.000209573
-0.000142312
-0.000277868
-0.000211613
-0.000119265
-0.000300249
-0.000118117
-0.000297274
-0.000119283
-0.000300267
-0.000118133
-0.000297277
-0.000133649
-0.000205181
-0.000269142
-0.000202897
-0.000143419
-0.000207244
-0.000280948
-0.000133656
-0.000205219
-0.000269158
-0.000202916
-0.000143447
-0.00020726
-0.000280952
-0.00013328
-0.000133306
-0.000252366
-0.000300673
-0.000300669
-0.000127477
-0.000307761
-0.000299055
-0.00011872
-0.00017416
-0.000291979
-0.000291991
-0.000124556
-0.000124576
-0.000299077
-0.000118751
-0.000289741
-0.000152158
-0.00021596
-0.000209554
-0.00014226
-0.00027783
-0.000211602
-0.000306038
-0.000126823
-0.000127921
-0.000308964
-0.00028975
-0.000215952
-0.00015214
-0.000209557
-0.000142249
-0.000211598
-0.000277853
-0.000119266
-0.00030022
-0.000118116
-0.000297264
-0.000133637
-0.000205177
-0.00026911
-0.000202901
-0.000143432
-0.000207245
-0.000280932
-0.000119273
-0.00030025
-0.000118118
-0.000297269
-0.000133635
-0.000205206
-0.000202907
-0.000269141
-0.000207248
-0.000143437
-0.00028094
-0.000306038
-0.000126865
-0.000128019
-0.000308991
-0.00028971
-0.000215981
-0.000152179
-0.000209608
-0.000142408
-0.000211628
-0.000277905
-0.00030604
-0.000126873
-0.000128023
-0.00030901
-0.000133704
-0.000205225
-0.000269196
-0.000202922
-0.000143448
-0.00020727
-0.000281014
-0.000119314
-0.000300302
-0.000118144
-0.000297347
-0.000133708
-0.000205266
-0.000202927
-0.000269213
-0.000207278
-0.000143479
-0.000281017
-0.000119322
-0.000300326
-0.000118169
-0.00029735
-0.000133266
-0.000133306
-0.000252128
-0.000300649
-0.000300635
-0.000127487
-0.000307731
-0.000299036
-0.000118703
-0.000174279
-0.000291959
-0.000291964
-0.000124544
-0.000124573
-0.000299054
-0.000118762
-0.000289726
-0.000215975
-0.000152174
-0.000209597
-0.000142352
-0.000211622
-0.00027789
-0.000306025
-0.000126873
-0.000127979
-0.000308964
-0.000306029
-0.000126872
-0.00012799
-0.000308985
-0.000133658
-0.000205211
-0.000202904
-0.00026918
-0.000207252
-0.000143447
-0.000281024
-0.000133659
-0.00020526
-0.000202919
-0.000269199
-0.000207271
-0.000143473
-0.000281032
-0.000119275
-0.000300281
-0.000118154
-0.000297334
-0.000119286
-0.000300302
-0.000118165
-0.000297339
-0.000127488
-0.000307788
-0.00012747
-0.000307773
-0.000174542
-0.000292013
-0.00029201
-0.000124597
-0.000124592
-0.0002991
-0.00011878
-0.000299086
-0.00011876
-0.000110038
-0.000290388
-0.000110023
-0.000290366
-0.000115839
-0.000115845
-0.000235095
-0.000283299
-0.000283287
-0.000281766
-0.000101368
-0.000281741
-0.000101354
-0.000156878
-0.00027468
-0.000274665
-0.000107174
-0.000107184
-0.000288596
-0.000109462
-0.000110645
-0.000291595
-0.000272255
-0.000134741
-0.000198558
-0.000192192
-0.000125036
-0.000260501
-0.000194232
-0.000272256
-0.000134775
-0.000198579
-0.000192214
-0.000125041
-0.000260493
-0.000194244
-0.000101965
-0.000282969
-0.000100777
-0.000279963
-0.000101977
-0.000282945
-0.000100777
-0.00027996
-0.000116383
-0.000187875
-0.000251862
-0.000185569
-0.000126087
-0.0001899
-0.000263607
-0.000116384
-0.000187867
-0.000251827
-0.000185564
-0.0001261
-0.000189903
-0.000263606
-0.000115874
-0.000115875
-0.000235177
-0.000283316
-0.000283334
-0.000110048
-0.000290415
-0.000281736
-0.000101358
-0.000156871
-0.00027465
-0.000274649
-0.000107187
-0.000107182
-0.000281735
-0.000101356
-0.000272222
-0.000134761
-0.000198558
-0.000192187
-0.000125051
-0.000260463
-0.000194233
-0.000288577
-0.000109458
-0.00011065
-0.000291577
-0.000272227
-0.000198569
-0.000134773
-0.000192204
-0.000125048
-0.000194234
-0.000260474
-0.000101997
-0.000282931
-0.000100789
-0.000279927
-0.000116415
-0.000187868
-0.000251822
-0.00018557
-0.000126107
-0.000189901
-0.000263561
-0.000101997
-0.000282924
-0.000100779
-0.000279927
-0.000116408
-0.000187861
-0.000185557
-0.00025181
-0.000189896
-0.000126104
-0.000263565
-0.000288669
-0.00010944
-0.000110605
-0.000291637
-0.000272334
-0.000198576
-0.000134767
-0.000192197
-0.000124994
-0.000194229
-0.000260513
-0.000288669
-0.000109453
-0.000110611
-0.00029163
-0.0001163
-0.000187865
-0.000251844
-0.000185554
-0.00012606
-0.000189894
-0.000263629
-0.000101909
-0.000282954
-0.00010075
-0.000279972
-0.000116297
-0.000187852
-0.000185543
-0.000251813
-0.000189887
-0.00012606
-0.000263627
-0.000101909
-0.000282936
-0.000100742
-0.000279968
-0.000115868
-0.000115871
-0.000235016
-0.0002833
-0.000283316
-0.000110054
-0.0002904
-0.00028172
-0.000101352
-0.000156954
-0.000274634
-0.000274633
-0.000107181
-0.000107175
-0.000281719
-0.000101359
-0.000272358
-0.000198568
-0.000134756
-0.000192189
-0.00012494
-0.000194222
-0.000260501
-0.000288668
-0.000109448
-0.000110558
-0.000291621
-0.000288671
-0.000109444
-0.000110566
-0.000291613
-0.000116256
-0.000187858
-0.000185543
-0.00025183
-0.000189881
-0.000126057
-0.000263644
-0.000116248
-0.000187845
-0.00018554
-0.000251804
-0.000189882
-0.000126052
-0.000263649
-0.000101872
-0.000282934
-0.000100752
-0.000279974
-0.000101874
-0.00028292
-0.000100736
-0.000279975
-0.000110066
-0.000290397
-0.000110041
-0.000290389
-0.000157186
-0.000274612
-0.000274614
-0.000107174
-0.00010717
-0.000281706
-0.000101351
-0.000281699
-0.000101328
-9.26877e-05
-0.00027311
-9.26769e-05
-0.000273092
-9.84868e-05
-9.84988e-05
-0.000217774
-0.000266021
-0.00026601
-0.000264452
-8.40278e-05
-0.000264445
-8.40173e-05
-0.000139519
-0.000257364
-0.000257363
-8.98249e-05
-8.98369e-05
-0.000271301
-9.20897e-05
-9.32833e-05
-0.000274293
-0.000254946
-0.000117401
-0.000181233
-0.00017487
-0.000107695
-0.0002432
-0.000176903
-0.000254948
-0.000117407
-0.000181226
-0.000174838
-0.000107696
-0.000243168
-0.000176894
-8.4624e-05
-0.000265655
-8.34312e-05
-0.000262643
-8.46252e-05
-0.000265638
-8.34404e-05
-0.000262639
-9.90428e-05
-0.000170543
-0.000234547
-0.00016826
-0.000108742
-0.000172578
-0.000246285
-9.90454e-05
-0.000170519
-0.000234523
-0.000168255
-0.000108749
-0.000172572
-0.000246286
-9.84873e-05
-9.84798e-05
-0.000217802
-0.000265991
-0.000265973
-9.26743e-05
-0.000273067
-0.000264434
-8.40174e-05
-0.00013935
-0.000257345
-0.000257326
-8.98284e-05
-8.98325e-05
-0.000264421
-8.40375e-05
-0.000254908
-0.000117426
-0.000181232
-0.000174864
-0.000107729
-0.000243167
-0.000176902
-0.000271275
-9.20913e-05
-9.32951e-05
-0.000274279
-0.000254913
-0.000181216
-0.000117409
-0.000174829
-0.00010772
-0.000176884
-0.000243155
-8.46367e-05
-0.000265638
-8.34456e-05
-0.000262634
-9.90673e-05
-0.000170541
-0.000234523
-0.000168264
-0.000108764
-0.000172579
-0.000246269
-8.46326e-05
-0.000265652
-8.34379e-05
-0.000262637
-9.90606e-05
-0.000170519
-0.000168255
-0.000234534
-0.000172566
-0.000108751
-0.000246277
-0.000271265
-9.20728e-05
-9.32401e-05
-0.000274281
-0.00025491
-0.000181205
-0.000117375
-0.00017481
-0.000107644
-0.000176871
-0.000243131
-0.00027126
-9.20704e-05
-9.32317e-05
-0.000274245
-9.90428e-05
-0.000170515
-0.00023453
-0.000168251
-0.000108739
-0.000172563
-0.000246257
-8.46167e-05
-0.000265628
-8.3444e-05
-0.000262617
-9.90364e-05
-0.000170494
-0.000168241
-0.00023451
-0.000172551
-0.000108727
-0.000246253
-8.46147e-05
-0.000265612
-8.34251e-05
-0.000262614
-9.8478e-05
-9.84722e-05
-0.000217633
-0.00026598
-0.000265958
-9.2674e-05
-0.000273051
-0.000264451
-8.40089e-05
-0.000139468
-0.000257365
-0.00025734
-8.98249e-05
-8.98312e-05
-0.000264431
-8.40342e-05
-0.000254934
-0.0001812
-0.000117371
-0.000174802
-0.000107606
-0.000176866
-0.000243125
-0.000271271
-9.20705e-05
-9.32109e-05
-0.000274262
-0.00027127
-9.20709e-05
-9.32064e-05
-0.000274235
-9.90096e-05
-0.000170521
-0.000168249
-0.000234538
-0.000172557
-0.000108734
-0.000246287
-9.90036e-05
-0.000170488
-0.000168241
-0.000234508
-0.000172549
-0.000108723
-0.000246289
-8.45965e-05
-0.000265637
-8.34382e-05
-0.000262635
-8.45915e-05
-0.000265603
-8.34299e-05
-0.000262633
-9.2674e-05
-0.000273027
-9.26572e-05
-0.000273023
-0.000139524
-0.000257314
-0.00025732
-8.98101e-05
-8.98125e-05
-0.000264406
-8.40208e-05
-0.000264405
-8.40066e-05
-7.53989e-05
-0.000255807
-7.53876e-05
-0.0002558
-8.12016e-05
-8.12142e-05
-0.000200536
-0.000248722
-0.000248723
-0.000247121
-6.67466e-05
-0.000247117
-6.67395e-05
-0.000122396
-0.000240036
-0.000240041
-7.25566e-05
-7.25693e-05
-0.000253999
-7.48092e-05
-7.60078e-05
-0.000256986
-0.000237652
-0.000100114
-0.00016394
-0.000157605
-9.04178e-05
-0.000225905
-0.000159616
-0.000237652
-0.000100114
-0.000163938
-0.000157594
-9.04202e-05
-0.000225883
-0.000159613
-6.73283e-05
-0.000248336
-6.61426e-05
-0.00024535
-6.73297e-05
-0.000248321
-6.61403e-05
-0.000245348
-8.17323e-05
-0.000153273
-0.000217221
-0.000150928
-9.14603e-05
-0.000155276
-0.000229005
-8.17324e-05
-0.000153263
-0.000217204
-0.000150927
-9.14592e-05