/*--------------------------------*- C++ -*----------------------------------*\
| =========                 |                                                 |
| \\      /  F ield         | OpenFOAM: The Open Source CFD Toolbox           |
|  \\    /   O peration     | Version:  2206                                  |
|   \\  /    A nd           | Website:  www.openfoam.com                      |
|    \\/     M anipulation  |                                                 |
\*---------------------------------------------------------------------------*/
FoamFile
{
    version     2.0;
    format      ascii;
    arch        "LSB;label=32;scalar=64";
    class       surfaceScalarField;
    location    "2.5";
    object      phi;
}
// * * * * * * * * * * * * * * * * * * * * * * * * * * * * * * * * * * * * * //

dimensions      [0 3 -1 0 0 0 0];

oriented        oriented;

internalField   nonuniform List<scalar> 
81851
(
-1.88177e-06
-1.88171e-06
1.72788e-06
1.73487e-06
-1.13886e-07
2.04398e-06
2.04367e-06
1.20261e-07
-1.892e-06
-1.89611e-06
-4.19791e-07
-2.98219e-07
5.6699e-07
1.87999e-06
-9.55427e-07
1.29335e-06
1.68164e-06
-1.62417e-06
1.29958e-06
-1.79674e-06
5.93012e-07
-2.96182e-07
5.63074e-07
1.88038e-06
-9.54328e-07
1.29029e-06
1.6824e-06
-1.62457e-06
1.30148e-06
-1.79755e-06
5.68796e-07
-2.04212e-06
-2.91795e-07
5.66199e-07
1.87832e-06
-9.53641e-07
1.28918e-06
1.67934e-06
-1.62572e-06
1.29831e-06
-1.79827e-06
5.99198e-07
2.04702e-06
1.18966e-07
-1.89736e-06
-1.89269e-06
-4.18058e-07
-2.96749e-07
5.68371e-07
1.88001e-06
-9.56549e-07
1.29221e-06
1.68114e-06
-1.62432e-06
-1.79686e-06
1.29925e-06
5.68886e-07
-2.99365e-07
1.29395e-06
-2.04486e-06
-9.54429e-07
1.30008e-06
-1.62435e-06
5.63496e-07
5.92923e-07
-1.79635e-06
1.68248e-06
-2.97142e-07
1.2906e-06
-2.04474e-06
-9.53512e-07
-1.79646e-06
1.30149e-06
-1.62449e-06
1.68261e-06
5.60552e-07
5.67064e-07
-2.91553e-07
-2.997e-07
1.27965e-06
-2.92606e-07
-2.94144e-07
1.27723e-06
-2.92888e-07
-2.97972e-07
1.26501e-06
-6.29543e-07
3.37279e-08
-7.85837e-08
4.89261e-08
5.00243e-07
-6.29053e-07
3.19676e-08
-7.82567e-08
5.00593e-08
5.0072e-07
4.21412e-07
-1.28892e-07
-2.37156e-07
-5.53638e-08
4.19284e-07
-1.27048e-07
-2.36494e-07
-5.57414e-08
6.20298e-07
7.04824e-07
-4.99205e-07
-2.79001e-07
-1.25505e-07
6.2184e-07
7.02686e-07
-4.9866e-07
-2.80845e-07
-1.25739e-07
1.2826e-06
-4.1363e-07
-9.03516e-07
-9.43463e-08
-3.95332e-10
7.7073e-07
-3.77918e-07
-4.39546e-07
1.75539e-07
-1.28409e-07
7.69785e-07
-3.77708e-07
-4.39231e-07
1.74933e-07
-1.28176e-07
1.36242e-06
-3.26265e-07
9.38174e-07
-7.14356e-08
4.37992e-10
2.84848e-07
1.76601e-06
-1.58846e-06
1.74107e-06
-1.63481e-06
8.18668e-07
-9.86212e-11
-2.71089e-07
-1.38925e-07
1.31657e-06
-1.35728e-07
1.767e-06
-1.58467e-06
1.74149e-06
-1.63022e-06
8.25088e-07
-2.70566e-07
-1.38599e-07
1.31394e-06
-1.3509e-07
1.28315e-06
-4.13542e-07
-9.02069e-07
-9.45902e-08
7.71357e-07
1.51153e-09
-3.76824e-07
1.73294e-07
-4.39762e-07
-1.29577e-07
1.36226e-06
-3.26282e-07
9.40341e-07
-7.13235e-08
-1.14069e-09
2.90973e-07
1.76388e-06
-1.59142e-06
1.738e-06
-1.63625e-06
8.2092e-07
2.34353e-09
-2.71902e-07
-1.41893e-07
1.31884e-06
-1.36032e-07
1.28226e-06
1.2736e-07
-4.12128e-07
-9.02843e-07
-9.46511e-08
7.70689e-07
-3.77546e-07
-4.38692e-07
1.76341e-07
-1.29282e-07
2.93585e-07
1.76284e-06
-1.5913e-06
1.73769e-06
-1.63642e-06
8.20292e-07
-6.20277e-07
1.36268e-06
-3.26649e-07
9.37883e-07
-7.13748e-08
-2.7266e-07
1.31859e-06
-1.37322e-07
-1.35575e-07
4.1896e-07
-2.35724e-07
-5.58771e-08
7.02685e-07
-4.98923e-07
-2.7941e-07
-1.25668e-07
-4.21336e-07
6.19717e-07
7.04035e-07
-4.99061e-07
-2.78056e-07
-1.253e-07
-1.29667e-07
-2.35159e-07
-5.65105e-08
2.90748e-07
1.76437e-06
-1.58961e-06
-1.63516e-06
1.73891e-06
8.1984e-07
-1.28246e-06
1.36196e-06
-3.26696e-07
9.37846e-07
-7.09282e-08
-7.70584e-07
-2.75245e-07
1.31871e-06
-1.38838e-07
-1.3347e-07
-4.107e-07
-9.05223e-07
-9.62051e-08
-3.79434e-07
1.76414e-07
-4.38884e-07
-1.2756e-07
1.24414e-06
-1.20819e-06
3.30446e-07
-1.06517e-06
2.56641e-07
4.06713e-07
4.82793e-07
1.24645e-06
-1.21004e-06
-1.0642e-06
3.29378e-07
2.58876e-07
4.81914e-07
4.07427e-07
2.32384e-07
2.32616e-07
-3.26725e-07
-3.55829e-07
-8.49879e-07
2.1176e-07
1.4042e-06
-8.35298e-08
-6.98423e-07
3.2553e-07
-6.08535e-07
7.90278e-07
-1.16404e-06
3.59878e-07
7.88692e-07
7.03058e-07
-2.80648e-07
-4.17891e-07
6.1981e-07
-1.24087e-07
-2.94894e-07
-1.97827e-06
1.01456e-06
-2.29891e-07
-1.1191e-07
-7.06539e-07
-6.41109e-08
-3.26279e-07
-3.51449e-07
-8.49671e-07
2.08618e-07
1.40258e-06
-8.37948e-08
-6.96033e-07
3.23969e-07
-6.11083e-07
7.91266e-07
-1.16444e-06
3.59791e-07
7.9055e-07
7.00742e-07
-2.80518e-07
-4.16582e-07
6.21045e-07
-1.2397e-07
-2.91157e-07
-1.97965e-06
1.01272e-06
-2.26629e-07
-1.1283e-07
-7.06241e-07
-6.41565e-08
-4.15811e-07
4.702e-07
4.69996e-07
-1.04007e-07
5.52538e-07
1.94648e-07
5.54529e-07
1.94424e-07
-4.16926e-08
-4.18221e-08
-3.49248e-08
-2.57105e-07
-3.28063e-08
-2.59016e-07
1.1654e-06
6.98636e-07
3.2165e-07
-2.9484e-07
-1.97851e-06
-3.17829e-07
3.5397e-07
1.01385e-06
-2.28479e-07
-1.16692e-07
5.02869e-08
-8.05537e-08
-6.29621e-07
-3.65267e-07
8.51801e-07
-7.0459e-07
-6.0946e-08
7.89679e-07
-6.08038e-07
7.90844e-07
2.09377e-07
1.40548e-06
-8.74412e-08
1.16568e-06
6.96191e-07
3.21409e-07
-2.9139e-07
-1.97949e-06
-3.17208e-07
3.49797e-07
1.01223e-06
-2.2523e-07
-1.16905e-07
5.0517e-08
-7.92982e-08
-6.2851e-07
-3.64898e-07
8.50975e-07
-7.05525e-07
-6.13967e-08
7.90842e-07
-6.09775e-07
7.91905e-07
2.05968e-07
1.40376e-06
-8.75448e-08
-5.52502e-07
-5.53895e-07
4.13812e-07
-1.97725e-07
-4.67197e-07
-3.96668e-08
-1.97659e-07
-4.68016e-07
-3.985e-08
-1.06058e-07
2.04061e-07
-2.28322e-07
-2.79881e-08
4.81934e-07
-1.24628e-06
-3.3728e-07
-5.11358e-07
-3.30866e-07
4.24977e-07
-1.48989e-07
-8.10175e-08
-5.22028e-08
1.57736e-07
-5.64933e-07
3.38479e-07
-2.16584e-09
-4.40038e-07
4.89729e-07
-1.00543e-07
2.95771e-10
-8.9673e-07
4.86492e-08
-3.94874e-07
-5.64321e-10
-9.27586e-08
-3.82147e-07
-3.75175e-07
7.23347e-07
-1.21354e-07
-7.6039e-08
3.40965e-10
-8.80344e-07
-2.28208e-07
2.04242e-07
-2.91161e-08
-5.08377e-07
-3.3568e-07
-3.30113e-07
4.24608e-07
-1.50452e-07
1.56037e-07
-5.63678e-07
-8.02172e-08
-5.12183e-08
-2.14508e-09
-4.40259e-07
3.37948e-07
4.89153e-07
-9.95502e-08
-8.96732e-07
-3.94548e-07
4.75118e-08
-9.27582e-08
-3.7339e-07
-3.81902e-07
7.22217e-07
-1.22105e-07
-8.80551e-07
-7.66577e-08
2.05274e-07
-2.27157e-07
-2.95399e-08
4.8125e-07
-1.24711e-06
-3.3917e-07
-5.08777e-07
-3.28585e-07
4.25431e-07
-1.50967e-07
-8.22283e-08
-5.1668e-08
1.58898e-07
-5.64278e-07
3.39846e-07
-4.39958e-07
-4.4754e-09
-1.02098e-07
4.90625e-07
1.8318e-09
-8.96736e-07
-3.83321e-07
-3.7357e-07
7.24402e-07
-1.22802e-07
5.04096e-08
-3.96467e-07
-2.46047e-09
-9.12441e-08
-7.52927e-08
-8.79769e-07
-2.25021e-09
-2.29263e-07
2.0385e-07
-2.72453e-08
4.81039e-07
2.59053e-07
-1.24706e-06
-5.10801e-07
-3.35008e-07
-3.31401e-07
4.23943e-07
-1.49578e-07
1.56653e-07
-5.65012e-07
-7.92919e-08
-5.1868e-08
-1.39672e-10
-4.41693e-07
3.38622e-07
4.90918e-07
-9.88941e-08
-8.96672e-07
-3.96343e-07
4.64227e-08
-9.1232e-08
-3.74776e-07
-3.80926e-07
7.22743e-07
-1.22101e-07
-8.80349e-07
-7.51725e-08
-3.28328e-08
6.95924e-07
1.16547e-06
3.21546e-07
-2.91677e-07
-1.97855e-06
-3.17489e-07
3.51268e-07
1.01333e-06
-2.27546e-07
-1.16872e-07
-7.81848e-08
5.11191e-08
-6.29935e-07
-3.64001e-07
8.51919e-07
-7.05362e-07
-6.19659e-08
-6.07651e-07
7.90847e-07
7.91509e-07
2.07084e-07
1.40499e-06
-8.734e-08
1.16479e-06
6.99444e-07
3.23163e-07
-2.95617e-07
-1.97829e-06
-3.20525e-07
3.53245e-07
1.01371e-06
-2.27371e-07
-1.1502e-07
5.02868e-08
-8.03031e-08
3.376e-08
-6.28512e-07
-3.61679e-07
8.50999e-07
-7.04211e-07
-6.31663e-08
7.8998e-07
-6.08908e-07
7.92029e-07
2.09021e-07
1.40457e-06
-8.61867e-08
-5.54424e-07
-5.52935e-07
4.13129e-07
-1.97225e-07
-4.68101e-07
-4.0035e-08
-1.96431e-07
-4.67329e-07
-4.04515e-08
-1.06197e-07
-2.57771e-07
-2.27761e-07
2.03909e-07
-2.78985e-08
4.82016e-07
-1.24573e-06
-5.10156e-07
-3.38018e-07
-3.3207e-07
4.24769e-07
-1.49749e-07
1.58137e-07
-5.64318e-07
-8.13406e-08
-5.27733e-08
-4.38872e-07
-1.90395e-09
3.36586e-07
-1.01097e-07
4.88061e-07
-8.95412e-07
-3.75733e-07
-3.82113e-07
7.23286e-07
-1.21097e-07
-3.92174e-07
4.90935e-08
-9.48876e-08
-8.79295e-07
-7.77749e-08
1.27485e-07
1.28137e-06
-9.04017e-07
-9.81257e-08
-2.02481e-07
3.35356e-07
-7.98245e-08
-5.30503e-08
2.28019e-07
5.11048e-07
-5.64843e-07
1.58098e-07
-9.02578e-07
1.26239e-07
1.28134e-06
-9.75714e-08
-2.80443e-08
4.23482e-07
-3.30535e-07
-1.49123e-07
-5.80227e-08
-5.77263e-08
-2.30294e-07
1.5554e-06
1.55945e-06
-7.77803e-08
2.13319e-06
1.36315e-07
2.13344e-06
1.3601e-07
-1.89364e-06
-1.89729e-06
-4.12562e-07
-1.41785e-07
-1.42616e-07
-2.13151e-06
-2.13191e-06
2.23473e-07
1.72644e-06
1.73314e-06
-1.29803e-07
-1.55543e-06
-1.48347e-07
-1.28627e-07
-1.55881e-06
-1.50773e-07
-8.15238e-08
-2.13185e-06
-2.1306e-06
2.24228e-07
1.7308e-06
1.72756e-06
-1.30754e-07
-1.55798e-06
-1.48943e-07
-1.3053e-07
-1.55709e-06
-1.47907e-07
-8.12764e-08
-4.07515e-09
5.7874e-07
-2.79591e-09
-3.48967e-09
5.80428e-07
-7.9485e-10
5.24656e-07
1.11092e-09
5.79962e-07
-6.56895e-10
5.74749e-07
5.22761e-07
-4.69826e-07
1.54935e-06
1.41165e-07
2.38659e-07
-2.94391e-07
-7.99794e-08
-1.15849e-07
-1.2092e-06
-1.06508e-06
-2.89276e-07
1.40393e-06
3.74442e-07
-1.25941e-07
-4.97141e-07
-1.11313e-07
-2.20311e-07
1.57064e-06
9.26712e-08
1.06897e-07
2.08914e-07
-1.51398e-06
4.39556e-10
-2.63438e-07
1.35963e-06
-1.37324e-07
-1.24182e-07
4.68004e-08
-8.30714e-10
-1.93677e-07
6.16718e-10
-2.32803e-07
1.54771e-06
1.40101e-07
2.37311e-07
-2.86209e-07
1.40229e-06
3.73224e-07
-1.2716e-07
-4.9959e-07
-1.10163e-07
-2.23844e-07
1.57065e-06
9.09739e-08
1.062e-07
2.09928e-07
-1.51371e-06
-2.61515e-07
1.35587e-06
-1.37515e-07
-1.24694e-07
4.4744e-08
-1.91608e-07
-2.33562e-07
-4.72371e-07
1.54837e-06
1.37654e-07
2.4141e-07
-2.91874e-07
-7.81751e-08
-1.17493e-07
-1.21078e-06
-1.06321e-06
-2.87099e-07
1.40344e-06
3.76844e-07
-1.27411e-07
-4.94479e-07
-1.08341e-07
-2.26286e-07
1.56988e-06
9.51002e-08
1.07693e-07
2.05901e-07
-1.51255e-06
2.52386e-09
-2.63821e-07
1.36067e-06
-1.37493e-07
-1.2456e-07
4.41107e-08
2.37596e-09
-1.94501e-07
1.52662e-09
-2.32125e-07
1.54781e-06
-4.69799e-07
1.41016e-07
2.39068e-07
-2.93725e-07
-8.04009e-08
-1.16465e-07
-1.06574e-06
-1.20896e-06
-2.88566e-07
1.40383e-06
3.73452e-07
-1.26893e-07
-4.98048e-07
-1.12531e-07
-2.2129e-07
9.20241e-08
1.56873e-06
1.06644e-07
-1.51232e-06
2.10428e-07
-1.25157e-07
4.79677e-08
-1.9315e-07
-2.63098e-07
1.36017e-06
-1.38199e-07
-2.34169e-07
1.40551e-07
-4.71727e-07
1.5484e-06
2.40679e-07
-7.92944e-08
-2.93914e-07
-1.16526e-07
-1.2085e-06
-1.06385e-06
1.40364e-06
-2.89792e-07
3.7414e-07
-1.25376e-07
-1.10963e-07
-2.21e-07
-4.96234e-07
1.10061e-07
9.42486e-08
1.57092e-06
-1.51403e-06
2.0787e-07
4.67312e-08
-1.2738e-07
-1.90367e-07
1.36088e-06
-2.67164e-07
-1.35131e-07
-2.28451e-07
3.00505e-07
4.68641e-07
1.36218e-06
9.3753e-07
-6.80818e-08
-7.93565e-08
-1.12202e-07
7.75971e-08
-1.42786e-07
-1.40339e-06
-1.09482e-07
-2.18391e-07
2.98748e-07
4.6979e-07
-1.5499e-06
2.91286e-07
-4.95574e-07
1.36137e-06
9.39537e-07
-6.91544e-08
-1.13397e-07
2.40092e-07
3.75467e-07
-1.24555e-07
1.88341e-06
5.64053e-07
5.53824e-07
1.29446e-06
-2.04868e-06
-9.56857e-07
-1.79757e-06
1.30211e-06
-1.62465e-06
1.68381e-06
-5.57655e-07
-2.96259e-07
-1.88153e-06
1.73044e-06
1.73339e-06
-1.16464e-07
4.16512e-07
-1.88235e-06
2.91254e-07
2.95091e-07
-2.93411e-07
-2.9274e-07
1.25022e-06
-1.25041e-06
1.88318e-06
-2.93516e-07
5.68872e-07
5.49764e-07
1.2944e-06
-2.05149e-06
-9.58756e-07
-1.79987e-06
1.30129e-06
-1.62742e-06
1.68329e-06
-5.49731e-07
-5.48506e-07
1.88339e-06
-2.9183e-07
5.67871e-07
5.49203e-07
1.29467e-06
-2.0519e-06
-9.59003e-07
-1.80007e-06
1.30087e-06
1.68281e-06
-1.62751e-06
4.1406e-07
-1.88249e-06
-1.88212e-06
1.7303e-06
1.73487e-06
-1.14619e-07
2.89601e-07
2.90915e-07
-1.24336e-06
-2.88955e-07
-2.93387e-07
1.24519e-06
-5.48165e-07
1.88329e-06
-2.94037e-07
5.68071e-07
5.49282e-07
1.29481e-06
-2.05089e-06
-9.57974e-07
-1.80013e-06
1.30076e-06
1.68273e-06
-1.62774e-06
-5.48809e-07
1.88238e-06
-2.91032e-07
5.71941e-07
5.50591e-07
1.29409e-06
-2.05125e-06
-9.58307e-07
-1.80111e-06
1.29908e-06
1.68118e-06
-1.62875e-06
4.12842e-07
-1.87985e-06
-1.88007e-06
1.72778e-06
1.73444e-06
-1.15143e-07
2.87724e-07
2.84588e-07
-1.26054e-06
-2.86087e-07
-2.92207e-07
1.26652e-06
-5.53541e-07
1.88189e-06
-2.97831e-07
5.70233e-07
5.54903e-07
1.2941e-06
-2.04999e-06
-9.57354e-07
-1.79898e-06
1.30062e-06
1.68264e-06
-1.6267e-06
-5.54595e-07
1.8816e-06
-2.98356e-07
5.72217e-07
5.55815e-07
1.29414e-06
-2.04938e-06
-9.56808e-07
-1.79894e-06
1.29941e-06
1.68173e-06
-1.62683e-06
4.1158e-07
-1.88234e-06
-1.8827e-06
1.73002e-06
1.73644e-06
-1.13002e-07
2.93523e-07
2.93463e-07
-1.26809e-06
-2.91742e-07
-2.94655e-07
1.2675e-06
-5.57044e-07
1.88103e-06
-2.90422e-07
5.698e-07
5.56915e-07
1.29264e-06
-2.04944e-06
-9.57406e-07
-1.79975e-06
1.29949e-06
1.68144e-06
-1.62726e-06
-5.58126e-07
1.88037e-06
-2.90752e-07
5.71268e-07
5.58065e-07
1.29241e-06
-2.04887e-06
-9.57243e-07
-1.79943e-06
1.29858e-06
1.68066e-06
-1.62693e-06
4.11367e-07
-1.87923e-06
-1.87973e-06
1.72792e-06
1.7339e-06
-1.1423e-07
2.93145e-07
2.9511e-07
-1.27002e-06
-2.9336e-07
-2.94057e-07
1.26919e-06
-5.61656e-07
1.88137e-06
-2.95233e-07
5.66967e-07
5.61862e-07
1.29359e-06
-2.04806e-06
-9.56416e-07
-1.79851e-06
1.30012e-06
1.68202e-06
-1.62605e-06
-5.62754e-07
1.88118e-06
-2.96213e-07
5.66916e-07
5.6272e-07
1.29356e-06
-2.04737e-06
-9.56118e-07
-1.79778e-06
1.2995e-06
1.68163e-06
-1.62527e-06
4.16345e-07
-1.87933e-06
-1.87989e-06
1.72704e-06
1.733e-06
-1.17166e-07
2.90584e-07
2.94495e-07
-1.25806e-06
-2.92407e-07
-2.9206e-07
1.25745e-06
-5.55179e-07
1.88201e-06
-2.94494e-07
5.69369e-07
5.53915e-07
1.29377e-06
-2.05002e-06
-9.57654e-07
-1.79871e-06
1.30072e-06
1.68276e-06
-1.62649e-06
-5.56805e-07
1.88233e-06
-2.96209e-07
5.67955e-07
5.56184e-07
1.29395e-06
-2.04969e-06
-9.57253e-07
-1.79815e-06
1.3007e-06
1.68263e-06
-1.62565e-06
4.12924e-07
-1.88165e-06
-1.88209e-06
1.72921e-06
1.73528e-06
-1.13677e-07
2.91701e-07
2.93848e-07
-1.26142e-06
-2.92965e-07
-2.94761e-07
1.2636e-06
-5.54533e-07
1.88087e-06
-2.91592e-07
5.70429e-07
5.56151e-07
1.29266e-06
-2.05021e-06
-9.58144e-07
-1.79983e-06
1.29991e-06
1.68169e-06
-1.6274e-06
-5.54422e-07
1.88142e-06
-2.92029e-07
5.70367e-07
5.56065e-07
1.29293e-06
-2.0505e-06
-9.58171e-07
-1.79972e-06
1.29968e-06
1.68143e-06
-1.62705e-06
4.12185e-07
-1.8802e-06
-1.88041e-06
1.72815e-06
1.7345e-06
-1.14224e-07
2.96501e-07
2.93665e-07
-1.2627e-06
-2.92113e-07
-2.9764e-07
1.26229e-06
-5.5613e-07
1.88176e-06
-2.948e-07
5.68131e-07
5.55485e-07
1.29375e-06
-2.04927e-06
-9.57175e-07
-1.79902e-06
1.3009e-06
1.68298e-06
-1.62661e-06
-5.55455e-07
1.88138e-06
-2.94706e-07
5.70633e-07
5.55838e-07
1.29351e-06
-2.04985e-06
-9.57324e-07
-1.79935e-06
1.30002e-06
1.68228e-06
-1.62696e-06
4.12335e-07
-1.88224e-06
-1.88252e-06
1.72976e-06
1.73615e-06
-1.1348e-07
2.93758e-07
2.93756e-07
-1.25014e-06
-2.91515e-07
-2.94802e-07
1.24895e-06
-5.51229e-07
1.88316e-06
-2.93796e-07
5.67234e-07
5.503e-07
1.29452e-06
-2.05055e-06
-9.58009e-07
-1.79941e-06
1.30155e-06
1.68312e-06
-1.62688e-06
-5.51559e-07
1.88236e-06
-2.93292e-07
5.6915e-07
5.51209e-07
1.29397e-06
-2.05048e-06
-9.57815e-07
-1.79937e-06
1.30037e-06
1.68227e-06
-1.62681e-06
4.10584e-07
-1.88086e-06
-1.88126e-06
1.72935e-06
1.73561e-06
-1.1343e-07
2.8984e-07
2.91945e-07
-1.25758e-06
-2.90907e-07
-2.92121e-07
1.25882e-06
-5.51735e-07
1.8826e-06
-2.9478e-07
5.68335e-07
5.52181e-07
1.29422e-06
-2.05058e-06
-9.5806e-07
-1.79941e-06
1.30109e-06
1.68308e-06
-1.62694e-06
-5.51985e-07
1.88212e-06
-2.94069e-07
5.69203e-07
5.52623e-07
1.29369e-06
-2.05027e-06
-9.57834e-07
-1.79926e-06
1.30011e-06
1.6823e-06
-1.62662e-06
4.10734e-07
-1.88074e-06
-1.88119e-06
1.72909e-06
1.73516e-06
-1.13056e-07
2.88706e-07
2.92851e-07
-1.26348e-06
-2.92684e-07
-2.9261e-07
1.26722e-06
-5.55458e-07
1.8802e-06
-2.92099e-07
5.72488e-07
5.57429e-07
1.29258e-06
-2.05009e-06
-9.57975e-07
-1.79997e-06
1.29935e-06
1.68141e-06
-1.62788e-06
-5.56213e-07
1.88021e-06
-2.93174e-07
5.71933e-07
5.5858e-07
1.29262e-06
-2.04994e-06
-9.57776e-07
-1.79942e-06
1.29908e-06
1.68124e-06
-1.62715e-06
4.15201e-07
-1.87945e-06
-1.87999e-06
1.72739e-06
1.73339e-06
-1.16545e-07
2.94139e-07
2.95645e-07
-1.26309e-06
-2.92666e-07
-2.945e-07
1.26047e-06
-5.58856e-07
1.88119e-06
-2.9359e-07
5.67848e-07
5.59326e-07
1.2932e-06
-2.04833e-06
-9.56865e-07
-1.79866e-06
1.29964e-06
1.68132e-06
-1.62621e-06
-5.59161e-07
1.88151e-06
-2.93658e-07
5.6814e-07
5.59812e-07
1.29323e-06
-2.04853e-06
-9.56645e-07
-1.79861e-06
1.29907e-06
1.68092e-06
-1.62609e-06
4.13389e-07
-1.87891e-06
-1.87931e-06
1.72715e-06
1.73336e-06
-1.15685e-07
2.89717e-07
2.89188e-07
-1.26952e-06
-2.8909e-07
-2.9318e-07
1.27289e-06
-5.60546e-07
1.88113e-06
-2.96249e-07
5.6873e-07
5.61104e-07
1.29362e-06
-2.04803e-06
-9.56202e-07
-1.79858e-06
1.29954e-06
1.68176e-06
-1.62628e-06
-5.60464e-07
1.881e-06
-2.95693e-07
5.70935e-07
5.60666e-07
1.29341e-06
-2.04856e-06
-9.56194e-07
-1.79865e-06
1.29873e-06
1.68127e-06
-1.62645e-06
4.1518e-07
-1.88061e-06
-1.88074e-06
1.72764e-06
1.73436e-06
-1.15828e-07
2.94867e-07
2.95347e-07
-1.26695e-06
-2.91567e-07
-2.96082e-07
1.26438e-06
-5.59448e-07
1.882e-06
-2.97318e-07
5.67167e-07
5.57919e-07
1.29437e-06
-2.04825e-06
-9.56113e-07
-1.79808e-06
1.30068e-06
1.68307e-06
-1.626e-06
-5.58348e-07
1.8802e-06
-2.91472e-07
5.73436e-07
5.57384e-07
1.29262e-06
-2.04928e-06
-9.57244e-07
-1.79935e-06
1.29838e-06
1.68099e-06
-1.62731e-06
4.12308e-07
-1.88247e-06
-1.88261e-06
1.72957e-06
1.7363e-06
-1.13088e-07
2.94466e-07
2.95128e-07
-1.25926e-06
-2.92468e-07
-2.94918e-07
1.25706e-06
-5.55272e-07
1.88301e-06
-2.94055e-07
5.66483e-07
5.54708e-07
1.2944e-06
-2.04944e-06
-9.57168e-07
-1.79921e-06
1.30086e-06
1.68255e-06
-1.62686e-06
-5.57467e-07
1.8827e-06
-2.95731e-07
5.66685e-07
5.56774e-07
1.29431e-06
-2.0488e-06
-9.56649e-07
-1.79835e-06
1.30028e-06
1.68214e-06
-1.62589e-06
4.12366e-07
-1.88026e-06
-1.88077e-06
1.72844e-06
1.73443e-06
-1.14202e-07
2.93228e-07
-1.25953e-06
-2.94741e-07
-2.90773e-07
2.90828e-07
-5.4917e-07
1.88219e-06
-2.90634e-07
5.71253e-07
1.29364e-06
-2.05165e-06
-9.59231e-07
-1.80123e-06
1.29992e-06
1.68183e-06
-1.62862e-06
-5.50065e-07
1.88299e-06
-2.93553e-07
5.69078e-07
1.29447e-06
-2.05125e-06
-9.58228e-07
-1.80016e-06
1.30028e-06
1.68242e-06
-1.62732e-06
4.12088e-07
-1.88154e-06
-1.88215e-06
1.72976e-06
1.73563e-06
-1.13792e-07
1.73445e-06
1.73082e-06
-1.15437e-07
4.15215e-07
-1.88164e-06
2.05166e-06
-4.1122e-07
1.13349e-07
-1.90283e-06
-1.89829e-06
2.04733e-06
5.70685e-07
5.62693e-07
1.29154e-06
-2.04639e-06
-9.54873e-07
-1.79894e-06
1.30137e-06
-1.62668e-06
1.68299e-06
-5.73594e-07
-2.90339e-07
-5.47698e-07
5.67292e-07
1.88346e-06
-9.58827e-07
1.29478e-06
1.68329e-06
-1.62725e-06
-1.79995e-06
1.30126e-06
-2.93202e-07
-2.04768e-06
5.7083e-07
-5.76006e-07
5.69024e-07
1.88066e-06
-9.55324e-07
1.29213e-06
1.68327e-06
-1.62765e-06
1.30149e-06
-1.79947e-06
-2.9127e-07
1.15614e-07
-1.89913e-06
-1.90031e-06
2.05021e-06
-1.88164e-06
-1.88208e-06
1.72981e-06
1.73584e-06
-1.14358e-07
4.12427e-07
2.05042e-06
2.04987e-06
-4.09393e-07
1.12495e-07
-1.89958e-06
-1.90381e-06
5.68023e-07
5.77096e-07
1.29429e-06
-2.05027e-06
-9.58911e-07
-1.80055e-06
1.30052e-06
-1.62803e-06
1.68237e-06
-5.7492e-07
1.88087e-06
-2.92209e-07
5.66305e-07
5.78874e-07
1.29161e-06
-2.04697e-06
-9.55699e-07
-1.80081e-06
1.30114e-06
-1.62858e-06
1.68273e-06
-5.77263e-07
5.74662e-07
-2.91856e-07
-5.757e-07
5.6924e-07
1.88298e-06
-9.58843e-07
1.2951e-06
1.68245e-06
-1.62787e-06
1.30049e-06
-1.80024e-06
-2.04813e-06
5.76485e-07
-2.91404e-07
-5.76231e-07
5.67589e-07
1.88064e-06
-9.56712e-07
1.29111e-06
1.68312e-06
-1.62789e-06
1.30161e-06
-1.80018e-06
1.73473e-06
1.73022e-06
-1.16638e-07
4.15735e-07
2.05078e-06
-4.14785e-07
1.15967e-07
-1.9015e-06
-1.89859e-06
5.6722e-07
5.50446e-07
1.29214e-06
-2.04981e-06
-9.56789e-07
-1.8006e-06
1.30259e-06
-1.62811e-06
1.68413e-06
-5.48212e-07
1.88106e-06
-2.93108e-07
5.6673e-07
5.77161e-07
1.29205e-06
-2.04744e-06
-9.55639e-07
-1.80041e-06
1.30097e-06
-1.62843e-06
1.68265e-06
-5.75593e-07
5.49065e-07
-2.93804e-07
-5.49692e-07
5.66321e-07
1.88326e-06
-9.56953e-07
1.29269e-06
1.68436e-06
-1.6279e-06
1.30291e-06
-1.80038e-06
-2.04875e-06
5.75956e-07
-2.89751e-07
-5.75384e-07
5.71979e-07
1.87959e-06
-9.57125e-07
1.29053e-06
1.68193e-06
-1.62863e-06
1.30024e-06
-1.80058e-06
-3.00196e-07
5.63011e-07
5.70812e-07
1.29449e-06
-2.04969e-06
-9.58093e-07
-1.80006e-06
1.3002e-06
-1.62778e-06
1.68258e-06
-5.57764e-07
-2.94138e-07
-5.47668e-07
5.6667e-07
1.88371e-06
-9.57931e-07
1.29517e-06
1.68316e-06
-1.62752e-06
-1.79992e-06
1.3011e-06
-2.05005e-06
5.74642e-07
-2.89735e-07
-5.7417e-07
5.73284e-07
1.88033e-06
-9.58479e-07
1.29329e-06
1.68131e-06
-1.62861e-06
1.29887e-06
-1.80068e-06
1.73521e-06
1.731e-06
-1.1298e-07
2.05171e-06
-4.11076e-07
1.1294e-07
-1.90277e-06
-1.89956e-06
-2.85046e-07
5.71967e-07
5.53475e-07
1.29226e-06
-2.04802e-06
-9.55279e-07
-1.79943e-06
1.30213e-06
-1.62727e-06
1.68392e-06
-2.89672e-07
-5.47283e-07
5.71195e-07
1.88271e-06
-9.58847e-07
1.29409e-06
1.68157e-06
-1.62896e-06
-1.80135e-06
1.29945e-06
-2.04976e-06
5.48644e-07
-2.90483e-07
-5.46749e-07
5.70402e-07
1.88052e-06
-9.57077e-07
1.29033e-06
1.68257e-06
-1.62864e-06
1.30097e-06
-1.80073e-06
1.14214e-07
-1.89864e-06
-1.90254e-06
-1.88199e-06
-1.88214e-06
1.73038e-06
1.73708e-06
-1.12721e-07
2.04952e-06
2.05002e-06
-4.16761e-07
1.16965e-07
-1.89825e-06
-1.90151e-06
5.71643e-07
5.74981e-07
1.29423e-06
-2.05072e-06
-9.59204e-07
-1.80097e-06
1.29958e-06
1.68146e-06
-1.62873e-06
1.88012e-06
-2.89969e-07
5.67844e-07
5.77231e-07
1.29068e-06
-2.04826e-06
-9.57136e-07
-1.80035e-06
1.30151e-06
1.68278e-06
-1.62796e-06
5.77902e-07
-2.87626e-07
-5.77232e-07
5.77705e-07
1.87844e-06
-9.58545e-07
1.29177e-06
1.67985e-06
-1.62921e-06
1.29754e-06
-1.80108e-06
-2.04713e-06
5.8057e-07
-2.8866e-07
-5.79904e-07
5.66062e-07
1.87962e-06
-9.56671e-07
1.28973e-06
1.68201e-06
-1.62698e-06
1.30113e-06
-1.79978e-06
1.73516e-06
1.72964e-06
-1.16175e-07
2.04958e-06
-4.1745e-07
1.1767e-07
-1.89936e-06
-1.89756e-06
5.69454e-07
5.49077e-07
1.29164e-06
-2.05049e-06
-9.57692e-07
-1.80097e-06
1.30208e-06
1.68332e-06
-1.62857e-06
1.87891e-06
-2.87487e-07
5.72257e-07
5.77153e-07
1.28969e-06
-2.04872e-06
-9.57518e-07
-1.80073e-06
1.29989e-06
1.68124e-06
-1.62873e-06
5.52013e-07
-2.83672e-07
-5.50823e-07
5.76736e-07
1.87856e-06
-9.58429e-07
1.28822e-06
1.68059e-06
-1.62999e-06
1.29926e-06
-1.80243e-06
-2.04738e-06
5.81366e-07
-2.85158e-07
-5.79996e-07
5.69128e-07
1.87831e-06
-9.57362e-07
1.28851e-06
1.6804e-06
-1.6273e-06
1.29962e-06
-1.80013e-06
-2.91563e-07
5.71469e-07
5.77288e-07
1.29303e-06
-2.04927e-06
-9.57977e-07
-1.80037e-06
1.29902e-06
-1.62816e-06
1.68134e-06
-2.97837e-07
-5.52434e-07
5.69828e-07
1.88241e-06
-9.56898e-07
1.2945e-06
1.68245e-06
-1.627e-06
-1.79934e-06
1.30035e-06
-2.04724e-06
5.81579e-07
-2.97971e-07
-5.81475e-07
5.63553e-07
1.88245e-06
-9.56147e-07
1.29495e-06
1.68251e-06
-1.62521e-06
1.30079e-06
-1.79779e-06
1.73495e-06
1.72908e-06
-1.13828e-07
2.04927e-06
-4.15475e-07
1.16298e-07
-1.89932e-06
-1.89815e-06
-2.91481e-07
5.68957e-07
5.51767e-07
1.29011e-06
-2.04896e-06
-9.5643e-07
-1.80067e-06
1.30114e-06
-1.62841e-06
1.68256e-06
-2.97631e-07
-5.53526e-07
5.72444e-07
1.88171e-06
-9.56662e-07
1.29412e-06
1.68163e-06
-1.62727e-06
-1.79943e-06
1.29929e-06
-2.04692e-06
5.56613e-07
-2.98594e-07
-5.5637e-07
5.6144e-07
1.88285e-06
-9.54539e-07
1.29215e-06
1.68376e-06
-1.62535e-06
1.30284e-06
-1.79789e-06
1.13546e-07
-1.8961e-06
-1.90002e-06
-1.87741e-06
-1.87756e-06
1.72521e-06
1.73198e-06
-1.18982e-07
2.04595e-06
2.04589e-06
-4.18016e-07
1.1851e-07
-1.8943e-06
-1.89804e-06
5.77484e-07
5.81979e-07
1.29101e-06
-2.04922e-06
-9.58854e-07
-1.80139e-06
1.29719e-06
1.67944e-06
-1.62942e-06
1.87959e-06
-2.88109e-07
5.65255e-07
5.828e-07
1.28991e-06
-2.04686e-06
-9.56636e-07
-1.80044e-06
1.30091e-06
1.68175e-06
-1.62759e-06
5.8781e-07
-2.94043e-07
-5.87388e-07
5.68842e-07
1.87924e-06
-9.55923e-07
1.29243e-06
1.68083e-06
-1.62605e-06
1.29856e-06
-1.79836e-06
-2.04559e-06
5.85705e-07
-2.93304e-07
-5.85982e-07
5.6729e-07
1.87958e-06
-9.54715e-07
1.29051e-06
1.68193e-06
-1.6267e-06
1.30019e-06
-1.79891e-06
1.73342e-06
1.72858e-06
-1.17967e-07
2.04961e-06
-4.16781e-07
1.17057e-07
-1.89951e-06
-1.89596e-06
5.76452e-07
5.56518e-07
1.28778e-06
-2.04971e-06
-9.58644e-07
-1.80237e-06
1.29873e-06
1.68014e-06
-1.62985e-06
1.87871e-06
-2.85073e-07
5.68159e-07
5.84037e-07
1.28857e-06
-2.04702e-06
-9.57116e-07
-1.80054e-06
1.29923e-06
1.68002e-06
-1.62762e-06
5.6243e-07
-2.9282e-07
-5.61904e-07
5.67297e-07
1.87965e-06
-9.55013e-07
1.28971e-06
1.68178e-06
-1.62641e-06
1.30026e-06
-1.7991e-06
-2.04499e-06
5.87696e-07
-2.9165e-07
-5.8744e-07
5.68819e-07
1.87844e-06
-9.54429e-07
1.28942e-06
1.68052e-06
-1.62659e-06
1.29904e-06
-1.79884e-06
-2.97144e-07
5.64298e-07
5.81424e-07
1.29482e-06
-2.04756e-06
-9.56417e-07
-1.79812e-06
1.30093e-06
-1.62568e-06
1.68269e-06
-2.92323e-07
-5.56434e-07
5.69241e-07
1.88165e-06
-9.57361e-07
1.29305e-06
1.68173e-06
-1.62714e-06
-1.79967e-06
1.29981e-06
-2.04886e-06
5.81315e-07
-2.9096e-07
-5.81535e-07
5.70659e-07
1.88067e-06
-9.57751e-07
1.29327e-06
1.68083e-06
-1.62705e-06
1.29882e-06
-1.7994e-06
1.73337e-06
1.72809e-06
-1.16618e-07
2.04891e-06
-4.15584e-07
1.16174e-07
-1.89895e-06
-1.89553e-06
-2.98165e-07
5.62209e-07
5.56396e-07
1.29216e-06
-2.04722e-06
-9.54738e-07
-1.798e-06
1.30291e-06
-1.62555e-06
1.68393e-06
-2.92736e-07
-5.57188e-07
5.70409e-07
1.88079e-06
-9.56913e-07
1.29273e-06
1.68094e-06
-1.62676e-06
-1.7994e-06
1.29891e-06
-2.04843e-06
5.56375e-07
-2.9073e-07
-5.5629e-07
5.68869e-07
1.88114e-06
-9.56123e-07
1.29053e-06
1.68157e-06
-1.62747e-06
1.30036e-06
-1.79979e-06
1.12959e-07
-1.89739e-06
-1.9015e-06
-1.87921e-06
-1.87975e-06
1.72657e-06
1.73276e-06
-1.18386e-07
2.04593e-06
2.04543e-06
-4.18115e-07
1.18541e-07
-1.89372e-06
-1.89807e-06
5.67711e-07
5.87368e-07
1.29258e-06
-2.04571e-06
-9.55795e-07
-1.79817e-06
1.29881e-06
1.68107e-06
-1.62575e-06
1.87887e-06
-2.92166e-07
5.68677e-07
5.85146e-07
1.29009e-06
-2.04549e-06
-9.54666e-07
-1.79914e-06
1.2997e-06
1.68175e-06
-1.62707e-06
5.8817e-07
-2.92571e-07
-5.88291e-07
5.6762e-07
1.8792e-06
-9.56116e-07
1.29228e-06
1.68072e-06
-1.62567e-06
1.2988e-06
-1.79821e-06
-2.04519e-06
5.88159e-07
-2.91407e-07
-5.86922e-07
5.69421e-07
1.87787e-06
-9.552e-07
1.28932e-06
1.68105e-06
-1.62705e-06
1.29919e-06
-1.79925e-06
1.73237e-06
1.72844e-06
-1.17684e-07
2.04854e-06
-4.20408e-07
1.2006e-07
-1.89825e-06
-1.89513e-06
5.66114e-07
5.62195e-07
1.29007e-06
-2.04539e-06
-9.54446e-07
-1.79873e-06
1.30038e-06
1.68207e-06
-1.62612e-06
1.87807e-06
-2.91537e-07
5.70167e-07
5.87377e-07
1.28927e-06
-2.04487e-06
-9.54492e-07
-1.79877e-06
1.29869e-06
1.6806e-06
-1.62681e-06
5.62697e-07
-2.94643e-07
-5.62736e-07
5.66347e-07
1.8799e-06
-9.54399e-07
1.29033e-06
1.68209e-06
-1.6261e-06
1.30054e-06
-1.7986e-06
-2.04436e-06
5.90153e-07
-2.91927e-07
-5.89665e-07
5.69093e-07
1.87752e-06
-9.54757e-07
1.28911e-06
1.68051e-06
-1.62615e-06
1.29878e-06
-1.7983e-06
-2.88781e-07
5.72653e-07
5.82377e-07
1.29209e-06
-2.04886e-06
-9.58055e-07
-1.79998e-06
1.29816e-06
-1.6278e-06
1.68028e-06
-2.91889e-07
-5.59426e-07
5.68974e-07
1.88049e-06
-9.57217e-07
1.29246e-06
1.68102e-06
-1.62698e-06
-1.79958e-06
1.29903e-06
-2.0475e-06
5.87997e-07
-2.89984e-07
-5.86336e-07
5.71687e-07
1.87855e-06
-9.57548e-07
1.29165e-06
1.68019e-06
-1.62718e-06
1.29799e-06
-1.79952e-06
1.73191e-06
1.72789e-06
-1.16945e-07
2.0477e-06
-4.18358e-07
1.1908e-07
-1.89792e-06
-1.89486e-06
-2.89456e-07
5.71001e-07
5.57915e-07
1.28955e-06
-2.04832e-06
-9.5617e-07
-1.80018e-06
1.29954e-06
-1.62818e-06
1.68094e-06
-2.93544e-07
-5.61688e-07
5.68735e-07
1.88017e-06
-9.56833e-07
1.29262e-06
1.68097e-06
-1.62592e-06
-1.79851e-06
1.29895e-06
-2.04667e-06
5.62922e-07
-2.93282e-07
-5.61478e-07
5.70475e-07
1.8791e-06
-9.55208e-07
1.28965e-06
1.68144e-06
-1.62737e-06
1.29966e-06
-1.79923e-06
1.17308e-07
-1.89521e-06
-1.89993e-06
-1.87961e-06
-1.88019e-06
1.72708e-06
1.73316e-06
-1.18562e-07
2.04726e-06
2.04622e-06
-4.14674e-07
1.15792e-07
-1.89492e-06
-1.89968e-06
5.67231e-07
5.87536e-07
1.29272e-06
-2.0461e-06
-9.56324e-07
-1.79824e-06
1.29939e-06
1.68125e-06
-1.62575e-06
1.87889e-06
-2.91762e-07
5.66864e-07
5.88534e-07
1.29008e-06
-2.04474e-06
-9.54785e-07
-1.79929e-06
1.29981e-06
1.6815e-06
-1.62694e-06
5.8241e-07
-2.92679e-07
-5.8542e-07
5.67561e-07
1.88072e-06
-9.56828e-07
1.29325e-06
1.6822e-06
-1.62575e-06
1.30007e-06
-1.79827e-06
-2.04526e-06
5.83976e-07
-2.94215e-07
-5.87112e-07
5.65256e-07
1.88037e-06
-9.54488e-07
1.29121e-06
1.68327e-06
-1.62612e-06
1.30141e-06
-1.79831e-06
1.73195e-06
1.72784e-06
-1.19942e-07
2.04887e-06
-4.16605e-07
1.17388e-07
-1.89917e-06
-1.89574e-06
5.66197e-07
5.62137e-07
1.29081e-06
-2.04558e-06
-9.5458e-07
-1.79861e-06
1.30089e-06
1.68253e-06
-1.62618e-06
1.87864e-06
-2.92442e-07
5.66768e-07
5.90064e-07
1.28973e-06
-2.04409e-06
-9.5454e-07
-1.79824e-06
1.29933e-06
1.68087e-06
-1.62594e-06
5.57342e-07
-2.96305e-07
-5.60192e-07
5.66002e-07
1.88139e-06
-9.54309e-07
1.29145e-06
1.68375e-06
-1.62617e-06
1.3018e-06
-1.79854e-06
-2.04498e-06
5.84893e-07
-2.95571e-07
-5.87147e-07
5.65061e-07
1.87997e-06
-9.54291e-07
1.29097e-06
1.68287e-06
-1.62539e-06
1.30115e-06
-1.79754e-06
-2.91568e-07
5.69459e-07
5.88931e-07
1.29232e-06
-2.04715e-06
-9.5715e-07
-1.79902e-06
1.29868e-06
-1.6267e-06
1.68085e-06
-2.95779e-07
-5.57901e-07
5.67022e-07
1.88253e-06
-9.56735e-07
1.29424e-06
1.68322e-06
-1.62583e-06
-1.79811e-06
1.30103e-06
-2.04756e-06
5.83079e-07
-2.94336e-07
-5.84514e-07
5.67661e-07
1.88087e-06
-9.56697e-07
1.29334e-06
1.68208e-06
-1.62574e-06
1.29977e-06
-1.79794e-06
1.73214e-06
1.72795e-06
-1.18623e-07
2.04877e-06
-4.14282e-07
1.15775e-07
-1.89943e-06
-1.89582e-06
-2.94851e-07
5.68143e-07
5.63799e-07
1.29038e-06
-2.0462e-06