/*--------------------------------*- C++ -*----------------------------------*\
| =========                 |                                                 |
| \\      /  F ield         | OpenFOAM: The Open Source CFD Toolbox           |
|  \\    /   O peration     | Version:  2206                                  |
|   \\  /    A nd           | Website:  www.openfoam.com                      |
|    \\/     M anipulation  |                                                 |
\*---------------------------------------------------------------------------*/
FoamFile
{
    version     2.0;
    format      ascii;
    arch        "LSB;label=32;scalar=64";
    class       volScalarField;
    location    "5.5";
    object      epsilon;
}
// * * * * * * * * * * * * * * * * * * * * * * * * * * * * * * * * * * * * * //

dimensions      [0 2 -3 0 0 0 0];

internalField   nonuniform List<scalar> 
28897
(
4.65934e-07
4.67766e-07
4.67753e-07
4.70391e-07
4.65686e-07
4.67572e-07
4.67521e-07
4.70185e-07
4.65642e-07
4.6748e-07
4.67481e-07
4.7015e-07
4.65643e-07
4.67482e-07
4.67482e-07
4.70151e-07
4.65643e-07
4.67481e-07
4.67482e-07
4.70151e-07
4.65643e-07
4.67481e-07
4.67482e-07
4.70151e-07
4.65643e-07
4.67481e-07
4.67482e-07
4.70151e-07
4.65643e-07
4.67481e-07
4.67482e-07
4.70151e-07
4.65643e-07
4.67481e-07
4.67482e-07
4.70151e-07
4.65643e-07
4.67481e-07
4.67482e-07
4.70151e-07
4.65643e-07
4.67481e-07
4.67482e-07
4.70151e-07
4.65643e-07
4.67481e-07
4.67482e-07
4.70151e-07
4.65643e-07
4.67481e-07
4.67482e-07
4.70151e-07
4.65643e-07
4.67481e-07
4.67482e-07
4.70151e-07
4.65643e-07
4.67481e-07
4.67482e-07
4.70151e-07
4.65643e-07
4.67481e-07
4.67482e-07
4.70151e-07
4.65643e-07
4.67481e-07
4.67482e-07
4.70151e-07
4.65648e-07
4.67486e-07
4.67487e-07
4.70151e-07
4.70358e-07
4.67761e-07
4.67762e-07
4.70374e-07
4.67761e-07
4.67762e-07
4.67768e-07
4.67761e-07
4.70359e-07
4.67759e-07
4.67761e-07
4.7036e-07
4.70393e-07
4.70168e-07
4.67757e-07
4.67758e-07
4.67586e-07
4.67593e-07
4.70411e-07
4.70249e-07
4.67756e-07
4.67758e-07
4.67584e-07
4.67587e-07
4.67758e-07
4.67667e-07
4.67587e-07
4.70393e-07
4.70168e-07
4.67757e-07
4.67584e-07
4.67585e-07
4.70169e-07
4.70187e-07
4.70114e-07
4.67525e-07
4.67529e-07
4.67482e-07
4.67482e-07
4.70255e-07
4.70111e-07
4.67524e-07
4.67526e-07
4.67481e-07
4.67483e-07
4.67526e-07
4.67482e-07
4.67482e-07
4.70187e-07
4.70115e-07
4.67524e-07
4.67481e-07
4.67482e-07
4.7012e-07
4.7015e-07
4.70117e-07
4.67485e-07
4.67486e-07
4.67483e-07
4.67483e-07
4.70147e-07
4.70115e-07
4.67485e-07
4.67487e-07
4.67482e-07
4.67484e-07
4.67486e-07
4.67483e-07
4.67483e-07
4.7015e-07
4.70117e-07
4.67485e-07
4.67483e-07
4.67483e-07
4.7012e-07
4.70151e-07
4.70117e-07
4.67486e-07
4.67486e-07
4.67483e-07
4.67483e-07
4.70149e-07
4.70116e-07
4.67485e-07
4.67488e-07
4.67482e-07
4.67484e-07
4.67486e-07
4.67482e-07
4.67483e-07
4.70151e-07
4.70118e-07
4.67486e-07
4.67483e-07
4.67482e-07
4.7012e-07
4.70151e-07
4.70117e-07
4.67486e-07
4.67486e-07
4.67483e-07
4.67483e-07
4.7015e-07
4.70116e-07
4.67485e-07
4.67488e-07
4.67482e-07
4.67484e-07
4.67486e-07
4.67482e-07
4.67483e-07
4.70151e-07
4.70117e-07
4.67486e-07
4.67483e-07
4.67482e-07
4.7012e-07
4.70151e-07
4.70117e-07
4.67486e-07
4.67486e-07
4.67483e-07
4.67483e-07
4.7015e-07
4.70116e-07
4.67485e-07
4.67488e-07
4.67482e-07
4.67484e-07
4.67486e-07
4.67482e-07
4.67483e-07
4.70151e-07
4.70117e-07
4.67486e-07
4.67483e-07
4.67482e-07
4.7012e-07
4.70151e-07
4.70117e-07
4.67486e-07
4.67486e-07
4.67483e-07
4.67483e-07
4.7015e-07
4.70116e-07
4.67485e-07
4.67488e-07
4.67482e-07
4.67484e-07
4.67486e-07
4.67482e-07
4.67483e-07
4.70151e-07
4.70117e-07
4.67486e-07
4.67483e-07
4.67482e-07
4.7012e-07
4.70151e-07
4.70117e-07
4.67486e-07
4.67486e-07
4.67483e-07
4.67483e-07
4.7015e-07
4.70115e-07
4.67485e-07
4.67488e-07
4.67482e-07
4.67484e-07
4.67486e-07
4.67482e-07
4.67483e-07
4.70151e-07
4.70117e-07
4.67486e-07
4.67483e-07
4.67482e-07
4.7012e-07
4.70151e-07
4.70117e-07
4.67486e-07
4.67486e-07
4.67483e-07
4.67483e-07
4.7015e-07
4.70116e-07
4.67485e-07
4.67488e-07
4.67482e-07
4.67484e-07
4.67486e-07
4.67482e-07
4.67483e-07
4.70151e-07
4.70117e-07
4.67486e-07
4.67483e-07
4.67482e-07
4.7012e-07
4.70151e-07
4.70117e-07
4.67486e-07
4.67486e-07
4.67483e-07
4.67483e-07
4.7015e-07
4.70116e-07
4.67485e-07
4.67488e-07
4.67482e-07
4.67484e-07
4.67486e-07
4.67482e-07
4.67483e-07
4.70151e-07
4.70118e-07
4.67486e-07
4.67483e-07
4.67482e-07
4.7012e-07
4.70151e-07
4.70117e-07
4.67486e-07
4.67486e-07
4.67483e-07
4.67483e-07
4.7015e-07
4.70116e-07
4.67485e-07
4.67488e-07
4.67482e-07
4.67484e-07
4.67486e-07
4.67482e-07
4.67483e-07
4.70152e-07
4.70117e-07
4.67486e-07
4.67483e-07
4.67482e-07
4.7012e-07
4.70151e-07
4.70117e-07
4.67486e-07
4.67486e-07
4.67483e-07
4.67483e-07
4.7015e-07
4.70116e-07
4.67486e-07
4.67488e-07
4.67482e-07
4.67484e-07
4.67486e-07
4.67482e-07
4.67483e-07
4.70151e-07
4.70118e-07
4.67486e-07
4.67483e-07
4.67482e-07
4.7012e-07
4.70151e-07
4.70117e-07
4.67486e-07
4.67487e-07
4.67483e-07
4.67483e-07
4.7015e-07
4.70116e-07
4.67486e-07
4.67488e-07
4.67482e-07
4.67484e-07
4.67486e-07
4.67482e-07
4.67483e-07
4.70152e-07
4.70117e-07
4.67486e-07
4.67483e-07
4.67482e-07
4.7012e-07
4.70151e-07
4.70117e-07
4.67486e-07
4.67486e-07
4.67483e-07
4.67483e-07
4.7015e-07
4.70115e-07
4.67486e-07
4.67488e-07
4.67482e-07
4.67484e-07
4.67486e-07
4.67482e-07
4.67483e-07
4.70151e-07
4.70118e-07
4.67486e-07
4.67483e-07
4.67482e-07
4.7012e-07
4.70151e-07
4.70117e-07
4.67486e-07
4.67486e-07
4.67483e-07
4.67483e-07
4.70149e-07
4.70116e-07
4.67486e-07
4.67488e-07
4.67482e-07
4.67484e-07
4.67486e-07
4.67482e-07
4.67483e-07
4.70151e-07
4.70117e-07
4.67486e-07
4.67483e-07
4.67482e-07
4.7012e-07
4.70151e-07
4.70117e-07
4.67486e-07
4.67486e-07
4.67483e-07
4.67483e-07
4.70149e-07
4.70115e-07
4.67486e-07
4.67488e-07
4.67482e-07
4.67484e-07
4.67486e-07
4.67482e-07
4.67483e-07
4.70151e-07
4.70118e-07
4.67486e-07
4.67483e-07
4.67482e-07
4.7012e-07
4.70151e-07
4.70117e-07
4.67486e-07
4.67486e-07
4.67483e-07
4.67483e-07
4.70149e-07
4.70116e-07
4.67486e-07
4.67488e-07
4.67482e-07
4.67484e-07
4.67486e-07
4.67483e-07
4.67483e-07
4.70152e-07
4.70117e-07
4.67486e-07
4.67483e-07
4.67482e-07
4.7012e-07
4.70151e-07
4.67487e-07
4.67488e-07
4.7015e-07
4.67487e-07
4.67489e-07
4.67488e-07
4.70151e-07
4.67487e-07
4.65941e-07
4.65942e-07
4.65942e-07
4.65942e-07
1.0708e-06
5.46535e-06
1.07076e-06
5.46603e-06
1.8691e-05
1.86897e-05
1.07073e-06
5.46608e-06
1.07065e-06
5.46676e-06
4.65938e-07
4.65937e-07
4.65937e-07
4.65754e-07
4.65761e-07
4.65754e-07
4.65754e-07
5.40459e-07
9.25063e-07
4.66231e-07
4.6776e-07
5.40504e-07
9.24878e-07
4.66216e-07
1.86946e-05
1.86993e-05
5.40468e-07
4.6623e-07
9.25073e-07
4.67737e-07
5.40501e-07
4.66213e-07
9.25073e-07
1.67145e-06
1.6719e-06
4.70339e-07
1.67153e-06
1.67219e-06
1.0723e-06
5.47385e-06
1.07245e-06
5.47365e-06
1.87324e-05
1.87369e-05
1.07221e-06
5.47457e-06
1.07234e-06
5.47436e-06
4.65693e-07
4.65689e-07
4.65689e-07
4.65642e-07
4.65642e-07
4.65642e-07
4.65642e-07
5.40605e-07
9.26037e-07
4.6599e-07
4.6752e-07
5.40633e-07
9.26077e-07
4.65961e-07
1.87404e-05
1.87397e-05
5.40601e-07
4.65983e-07
9.26228e-07
4.67496e-07
5.40644e-07
4.65958e-07
9.26068e-07
1.6751e-06
1.67545e-06
4.70119e-07
1.67494e-06
1.67524e-06
1.0723e-06
5.47371e-06
1.07247e-06
5.47357e-06
1.87375e-05
1.87369e-05
1.0722e-06
5.47444e-06
1.07235e-06
5.47429e-06
4.65646e-07
4.65646e-07
4.65646e-07
4.65644e-07
4.65643e-07
4.65643e-07
4.65643e-07
5.406e-07
9.26338e-07
4.65942e-07
4.67484e-07
5.40647e-07
9.26101e-07
4.65946e-07
1.87397e-05
1.87394e-05
5.40595e-07
4.65942e-07
9.26284e-07
4.67485e-07
5.40644e-07
4.65946e-07
9.26069e-07
1.67512e-06
1.67543e-06
4.70117e-07
1.67492e-06
1.67524e-06
1.0723e-06
5.4737e-06
1.07247e-06
5.47357e-06
1.87374e-05
1.87369e-05
1.0722e-06
5.47444e-06
1.07235e-06
5.47429e-06
4.65647e-07
4.65647e-07
4.65647e-07
4.65644e-07
4.65644e-07
4.65643e-07
4.65643e-07
5.406e-07
9.26338e-07
4.65943e-07
4.67485e-07
5.40649e-07
9.26101e-07
4.65946e-07
1.87398e-05
1.87394e-05
5.40595e-07
4.65943e-07
9.26285e-07
4.67485e-07
5.40647e-07
4.65946e-07
9.26069e-07
1.67512e-06
1.67543e-06
4.70117e-07
1.67492e-06
1.67524e-06
1.0723e-06
5.47371e-06
1.07247e-06
5.47357e-06
1.87374e-05
1.87369e-05
1.0722e-06
5.47443e-06
1.07235e-06
5.47429e-06
4.65647e-07
4.65647e-07
4.65647e-07
4.65643e-07
4.65643e-07
4.65643e-07
4.65643e-07
5.406e-07
9.26338e-07
4.65943e-07
4.67485e-07
5.40649e-07
9.26101e-07
4.65946e-07
1.87397e-05
1.87394e-05
5.40596e-07
4.65943e-07
9.26285e-07
4.67485e-07
5.40647e-07
4.65946e-07
9.26069e-07
1.67512e-06
1.67543e-06
4.70117e-07
1.67492e-06
1.67524e-06
1.0723e-06
5.47371e-06
1.07247e-06
5.47357e-06
1.87374e-05
1.87369e-05
1.0722e-06
5.47443e-06
1.07235e-06
5.47429e-06
4.65647e-07
4.65647e-07
4.65647e-07
4.65644e-07
4.65644e-07
4.65643e-07
4.65643e-07
5.406e-07
9.26338e-07
4.65942e-07
4.67485e-07
5.40649e-07
9.26101e-07
4.65946e-07
1.87397e-05
1.87394e-05
5.40595e-07
4.65943e-07
9.26285e-07
4.67485e-07
5.40647e-07
4.65946e-07
9.26069e-07
1.67512e-06
1.67544e-06
4.70117e-07
1.67492e-06
1.67524e-06
1.0723e-06
5.47371e-06
1.07247e-06
5.47357e-06
1.87374e-05
1.87369e-05
1.0722e-06
5.47443e-06
1.07235e-06
5.47429e-06
4.65647e-07
4.65647e-07
4.65647e-07
4.65644e-07
4.65643e-07
4.65644e-07
4.65643e-07
5.40599e-07
9.26338e-07
4.65943e-07
4.67485e-07
5.4065e-07
9.26101e-07
4.65946e-07
1.87397e-05
1.87394e-05
5.40596e-07
4.65943e-07
9.26285e-07
4.67485e-07
5.40647e-07
4.65946e-07
9.26069e-07
1.67512e-06
1.67543e-06
4.70117e-07
1.67492e-06
1.67524e-06
1.0723e-06
5.47371e-06
1.07247e-06
5.47357e-06
1.87374e-05
1.87369e-05
1.0722e-06
5.47443e-06
1.07235e-06
5.47429e-06
4.65647e-07
4.65647e-07
4.65647e-07
4.65644e-07
4.65643e-07
4.65643e-07
4.65643e-07
5.40599e-07
9.26338e-07
4.65942e-07
4.67485e-07
5.4065e-07
9.26101e-07
4.65946e-07
1.87397e-05
1.87394e-05
5.40596e-07
4.65943e-07
9.26285e-07
4.67485e-07
5.40646e-07
4.65946e-07
9.26069e-07
1.67512e-06
1.67544e-06
4.70117e-07
1.67492e-06
1.67524e-06
1.0723e-06
5.4737e-06
1.07247e-06
5.47357e-06
1.87374e-05
1.87369e-05
1.0722e-06
5.47443e-06
1.07235e-06
5.47429e-06
4.65647e-07
4.65647e-07
4.65647e-07
4.65644e-07
4.65644e-07
4.65643e-07
4.65643e-07
5.40599e-07
9.26338e-07
4.65943e-07
4.67485e-07
5.4065e-07
9.26101e-07
4.65946e-07
1.87397e-05
1.87394e-05
5.40596e-07
4.65943e-07
9.26285e-07
4.67485e-07
5.40646e-07
4.65946e-07
9.26069e-07
1.67512e-06
1.67543e-06
4.70117e-07
1.67492e-06
1.67524e-06
1.0723e-06
5.4737e-06
1.07247e-06
5.47357e-06
1.87374e-05
1.8737e-05
1.0722e-06
5.47443e-06
1.07235e-06
5.47429e-06
4.65647e-07
4.65647e-07
4.65647e-07
4.65644e-07
4.65644e-07
4.65643e-07
4.65643e-07
5.40599e-07
9.26338e-07
4.65943e-07
4.67485e-07
5.4065e-07
9.26101e-07
4.65946e-07
1.87397e-05
1.87394e-05
5.40596e-07
4.65943e-07
9.26286e-07
4.67485e-07
5.40646e-07
4.65946e-07
9.26068e-07
1.67512e-06
1.67543e-06
4.70117e-07
1.67492e-06
1.67524e-06
1.0723e-06
5.47371e-06
1.07247e-06
5.47357e-06
1.8738e-05
1.87375e-05
1.0722e-06
5.47442e-06
1.07235e-06
5.47427e-06
4.65647e-07
4.65647e-07
4.65646e-07
4.65644e-07
4.65644e-07
4.65643e-07
4.65643e-07
5.40599e-07
9.26338e-07
4.65942e-07
4.67485e-07
5.4065e-07
9.26101e-07
4.65946e-07
1.87397e-05
1.87394e-05
5.40596e-07
4.65943e-07
9.26287e-07
4.67485e-07
5.40646e-07
4.65946e-07
9.26068e-07
1.67512e-06
1.67544e-06
4.70117e-07
1.67492e-06
1.67524e-06
1.0723e-06
5.47362e-06
1.07247e-06
5.47351e-06
1.87381e-05
1.87374e-05
1.0722e-06
5.47444e-06
1.07235e-06
5.47433e-06
4.65647e-07
4.65647e-07
4.65647e-07
4.65643e-07
4.65643e-07
4.65643e-07
4.65643e-07
5.40599e-07
9.26338e-07
4.65943e-07
4.67485e-07
5.4065e-07
9.26101e-07
4.65946e-07
1.87397e-05
1.87394e-05
5.40596e-07
4.65943e-07
9.26286e-07
4.67485e-07
5.4065e-07
4.65946e-07
9.26068e-07
1.67512e-06
1.67543e-06
4.70117e-07
1.67492e-06
1.67524e-06
1.0723e-06
5.47362e-06
1.07247e-06
5.47352e-06
1.87382e-05
1.87376e-05
1.0722e-06
5.47446e-06
1.07235e-06
5.47434e-06
4.65647e-07
4.65647e-07
4.65647e-07
4.65644e-07
4.65643e-07
4.65644e-07
4.65644e-07
5.40599e-07
9.26338e-07
4.65943e-07
4.67484e-07
5.40649e-07
9.26101e-07
4.65946e-07
1.87398e-05
1.87394e-05
5.40595e-07
4.65943e-07
9.26286e-07
4.67485e-07
5.40652e-07
4.65946e-07
9.26067e-07
1.67512e-06
1.67543e-06
4.70117e-07
1.67492e-06
1.67524e-06
1.0723e-06
5.47362e-06
1.07247e-06
5.47352e-06
1.87381e-05
1.87377e-05
1.0722e-06
5.47446e-06
1.07235e-06
5.47434e-06
4.65647e-07
4.65647e-07
4.65647e-07
4.65644e-07
4.65643e-07
4.65643e-07
4.65644e-07
5.406e-07
9.26338e-07
4.65943e-07
4.67484e-07
5.4065e-07
9.26101e-07
4.65946e-07
1.87397e-05
1.87394e-05
5.40599e-07
4.65943e-07
9.26286e-07
4.67485e-07
5.40653e-07
4.65946e-07
9.26068e-07
1.67512e-06
1.67544e-06
4.70117e-07
1.67492e-06
1.67524e-06
1.0723e-06
5.47362e-06
1.07247e-06
5.47352e-06
1.87382e-05
1.87377e-05
1.0722e-06
5.47446e-06
1.07235e-06
5.47434e-06
4.65647e-07
4.65647e-07
4.65647e-07
4.65644e-07
4.65643e-07
4.65643e-07
4.65643e-07
5.406e-07
9.26338e-07
4.65943e-07
4.67485e-07
5.40649e-07
9.26101e-07
4.65946e-07
1.87397e-05
1.87394e-05
5.40598e-07
4.65943e-07
9.26286e-07
4.67485e-07
5.40653e-07
4.65946e-07
9.26067e-07
1.67512e-06
1.67543e-06
4.70117e-07
1.67492e-06
1.67524e-06
1.0723e-06
5.47362e-06
1.07247e-06
5.47352e-06
1.87382e-05
1.87377e-05
1.0722e-06
5.47446e-06
1.07235e-06
5.47434e-06
4.65647e-07
4.65647e-07
4.65647e-07
4.65644e-07
4.65643e-07
4.65643e-07
4.65643e-07
5.40599e-07
9.26338e-07
4.65942e-07
4.67484e-07
5.40649e-07
9.26101e-07
4.65946e-07
1.87397e-05
1.87394e-05
5.40599e-07
4.65943e-07
9.26286e-07
4.67485e-07
5.40653e-07
4.65946e-07
9.26068e-07
1.67512e-06
1.67543e-06
4.70117e-07
1.67492e-06
1.67524e-06
1.0723e-06
5.47362e-06
1.07247e-06
5.47352e-06
1.87382e-05
1.87377e-05
1.0722e-06
5.47446e-06
1.07235e-06
5.47434e-06
4.65647e-07
4.65647e-07
4.65647e-07
4.65645e-07
4.65643e-07
4.65643e-07
4.65644e-07
5.406e-07
9.26338e-07
4.65943e-07
4.67484e-07
5.40649e-07
9.26102e-07
4.65946e-07
1.87397e-05
1.87394e-05
5.40599e-07
4.65943e-07
9.26286e-07
4.67485e-07
5.40652e-07
4.65946e-07
9.26068e-07
1.67512e-06
1.67544e-06
4.70117e-07
1.67492e-06
1.67524e-06
5.47362e-06
1.07247e-06
1.87381e-05
5.47446e-06
1.07235e-06
4.65648e-07
4.65648e-07
4.65648e-07
9.26339e-07
4.65947e-07
5.4065e-07
1.87397e-05
4.65948e-07
9.26287e-07
5.40653e-07
1.67513e-06
1.67544e-06
1.86906e-05
1.86935e-05
1.86935e-05
1.86964e-05
4.70386e-07
1.67156e-06
1.67174e-06
1.67171e-06
1.67168e-06
1.07079e-06
5.46522e-06
5.46519e-06
1.07059e-06
1.07079e-06
5.46517e-06
5.46517e-06
1.0706e-06
5.40522e-07
4.67763e-07
9.2491e-07
4.66237e-07
9.25297e-07
4.66239e-07
5.40454e-07
5.40524e-07
4.67764e-07
9.24894e-07
4.66237e-07
9.25254e-07
4.66239e-07
5.40453e-07
1.86915e-05
1.67148e-06
1.67138e-06
1.86902e-05
1.07067e-06
5.46595e-06
5.46592e-06
1.07051e-06
5.40516e-07
4.67762e-07
9.24943e-07
4.66237e-07
9.25298e-07
4.66239e-07
5.40448e-07
1.07069e-06
5.46612e-06
5.46612e-06
1.07055e-06
5.40524e-07
4.67764e-07
4.66237e-07
9.25053e-07
4.66239e-07
9.25436e-07
5.40455e-07
9.24833e-07
4.66237e-07
4.66239e-07
5.40455e-07
5.46507e-06
1.07054e-06
4.67763e-07
4.66238e-07
9.24787e-07
4.6624e-07
5.40455e-07
5.46549e-06
1.07054e-06
1.86944e-05
1.86978e-05
4.70387e-07
1.67204e-06
1.67145e-06
1.67216e-06
1.67141e-06
1.86924e-05
1.86951e-05
5.40517e-07
4.67761e-07
4.66236e-07
9.24858e-07
4.66239e-07
9.25204e-07
5.40449e-07
5.4052e-07
4.67763e-07
4.66237e-07
9.24941e-07
4.66239e-07
9.25295e-07
5.40447e-07
1.07068e-06
5.46574e-06
5.46574e-06
1.07053e-06
1.07067e-06
5.46588e-06
5.46587e-06
1.07053e-06
4.70386e-07
1.67128e-06
1.67176e-06
1.67168e-06
1.86928e-05
1.86937e-05
1.86964e-05
1.86906e-05
1.86955e-05
1.86934e-05
1.86987e-05
1.6718e-06
1.67175e-06
4.7034e-07
1.67207e-06
1.67218e-06
1.87348e-05
1.87081e-05
1.87377e-05
1.87112e-05
4.70358e-07
1.67489e-06
1.67513e-06
1.67319e-06
1.67314e-06
1.0708e-06
5.46517e-06
1.07069e-06
5.46593e-06
5.40471e-07
9.25095e-07
4.66233e-07
4.67741e-07
5.405e-07
9.25108e-07
4.66216e-07
5.40473e-07
9.25051e-07
4.66233e-07
4.67744e-07
5.405e-07
9.2505e-07
4.66216e-07
1.07132e-06
5.47333e-06
5.46829e-06
1.07213e-06
1.07132e-06
5.47317e-06
5.46778e-06
1.07214e-06
5.40551e-07
4.67684e-07
9.25955e-07
4.66051e-07
9.25546e-07
4.66155e-07
5.40576e-07
5.40552e-07
4.67692e-07
9.25845e-07
4.66051e-07
9.25382e-07
4.66156e-07
5.40578e-07
1.67158e-06
1.67162e-06
4.70371e-07
1.67161e-06
1.67155e-06
1.86901e-05
1.86897e-05
1.87223e-05
1.86908e-05
4.70399e-07
1.6737e-06
1.67352e-06
1.67172e-06
1.67189e-06
1.87207e-05
1.86903e-05
5.40469e-07
9.25106e-07
4.66233e-07
4.6774e-07
5.40495e-07
9.25146e-07
4.66216e-07
1.07075e-06
5.46612e-06
1.07061e-06
5.46704e-06
5.40475e-07
4.66233e-07
9.25237e-07
4.67742e-07
5.40503e-07
4.66216e-07
9.25257e-07
1.0712e-06
5.47403e-06
5.46904e-06
1.07209e-06
5.40547e-07
4.67683e-07
9.26008e-07
4.66051e-07
9.25546e-07
4.66155e-07
5.40579e-07
1.07122e-06
5.47437e-06
5.46936e-06
1.07211e-06
5.40554e-07
4.67685e-07
4.66051e-07
9.26106e-07
4.66155e-07
9.25698e-07
5.40583e-07
1.07065e-06
5.46507e-06
1.07064e-06
5.46528e-06
5.40461e-07
4.66234e-07
9.24953e-07
4.67742e-07
5.40501e-07
4.66217e-07
9.24921e-07
1.07065e-06
5.46549e-06
1.07064e-06
5.46589e-06
5.40522e-07
4.67737e-07
9.25483e-07
4.66061e-07
9.25136e-07
4.6616e-07
5.40548e-07
1.07095e-06
5.47078e-06
5.46541e-06
1.07186e-06
5.40524e-07
4.67686e-07
4.66055e-07
9.25746e-07
4.66159e-07
9.25229e-07
5.4055e-07
1.07096e-06
5.4731e-06
5.46661e-06
1.07186e-06
1.67222e-06
1.67146e-06
4.7034e-07
1.67253e-06
1.67187e-06
1.86923e-05
1.86976e-05
1.87381e-05
1.87124e-05
4.70357e-07
1.67536e-06
1.67483e-06
1.67366e-06
1.67287e-06
1.87366e-05
1.87101e-05
5.40466e-07
4.66233e-07
9.25104e-07
4.6774e-07
5.405e-07
4.66216e-07
9.25143e-07
1.07074e-06
5.46573e-06
1.07059e-06
5.46675e-06
1.07073e-06
5.46588e-06
1.07059e-06
5.46681e-06
5.40543e-07
4.67678e-07
4.6605e-07
9.25936e-07
4.6615e-07
9.25467e-07
5.40572e-07
5.40547e-07
4.67684e-07
4.66051e-07
9.2601e-07
4.66155e-07
9.25546e-07
5.40573e-07
1.0712e-06
5.47406e-06
5.46904e-06
1.0721e-06
1.0712e-06
5.47417e-06
5.46902e-06
1.0721e-06
1.86922e-05
1.86932e-05
1.86935e-05
1.86985e-05
4.70357e-07
1.6745e-06
1.67517e-06
1.67208e-06
1.67315e-06
1.87328e-05
1.86965e-05
1.87379e-05
1.87106e-05
1.87352e-05
1.87355e-05
1.87378e-05
1.87385e-05
1.67535e-06
1.67532e-06
4.70119e-07
1.67521e-06
1.67525e-06
1.87356e-05
1.87344e-05
1.87386e-05
1.87372e-05
4.70151e-07
1.67515e-06
1.67524e-06
1.67541e-06
1.67526e-06
1.0723e-06
5.47358e-06
1.0724e-06
5.47362e-06
5.40605e-07
9.26263e-07
4.65987e-07
4.67499e-07
5.40642e-07
9.26137e-07
4.65959e-07
5.40606e-07
9.26166e-07
4.65987e-07
4.67501e-07
5.40644e-07
9.2611e-07
4.65959e-07
1.0724e-06
5.47352e-06
5.47343e-06
1.07229e-06
1.0724e-06
5.47357e-06
5.47342e-06
1.0723e-06
5.40649e-07
4.67484e-07
9.26131e-07
4.65942e-07
9.26321e-07
4.65944e-07
5.406e-07
5.40651e-07
4.67484e-07
9.2612e-07
4.65942e-07
9.26275e-07
4.65944e-07
5.40599e-07
1.6749e-06
1.67488e-06
4.70127e-07
1.67523e-06
1.67514e-06
1.87305e-05
1.87353e-05
1.87363e-05
1.87354e-05
4.70156e-07
1.67517e-06
1.6751e-06
1.67523e-06
1.67536e-06
1.8735e-05
1.8734e-05
5.40603e-07
9.26259e-07
4.65987e-07
4.67498e-07
5.40643e-07
9.26155e-07
4.65959e-07
1.07223e-06
5.47454e-06
1.0723e-06
5.47454e-06
5.40608e-07
4.65987e-07
9.2641e-07
4.675e-07
5.40648e-07
4.65959e-07
9.26279e-07
1.07228e-06
5.47424e-06
5.47415e-06
1.07219e-06
5.40645e-07
4.67483e-07
9.26147e-07
4.65942e-07
9.26319e-07
4.65943e-07
5.40591e-07
1.07231e-06
5.47447e-06
5.47433e-06
1.07223e-06
5.40652e-07
4.67485e-07
4.65942e-07
9.26275e-07
4.65944e-07
9.26462e-07
5.40599e-07
1.07232e-06
5.47284e-06
1.07234e-06
5.47382e-06
5.40606e-07
4.65989e-07
9.26129e-07
4.675e-07
5.40629e-07
4.6596e-07
9.26072e-07
1.07232e-06
5.47398e-06
1.07234e-06
5.47414e-06
5.40652e-07
4.67493e-07
9.26103e-07
4.65942e-07
9.26275e-07
4.65947e-07
5.40599e-07
1.07242e-06
5.47369e-06
5.47363e-06
1.07231e-06
5.40653e-07
4.67484e-07
4.65942e-07
9.26081e-07
4.65944e-07
9.26241e-07
5.40599e-07
1.07242e-06
5.47411e-06
5.47394e-06
1.07231e-06
1.67579e-06
1.67504e-06
4.70119e-07
1.67567e-06
1.67496e-06
1.87366e-05
1.87373e-05
1.87388e-05
1.87384e-05
4.70151e-07
1.67558e-06
1.67495e-06
1.67583e-06
1.67498e-06
1.87375e-05
1.87362e-05
5.40602e-07
4.65987e-07
9.26263e-07
4.67499e-07
5.40644e-07
4.65959e-07
9.26151e-07
1.07222e-06
5.47419e-06
1.07229e-06
5.4742e-06
1.07222e-06
5.47431e-06
1.07229e-06
5.47433e-06
5.40646e-07
4.67485e-07
4.65942e-07
9.2607e-07
4.65946e-07
9.26229e-07
5.40594e-07
5.40651e-07
4.67483e-07
4.65942e-07
9.26153e-07
4.65943e-07
9.26318e-07
5.40591e-07
1.0723e-06
5.47415e-06
5.474e-06
1.07222e-06
1.07229e-06
5.4743e-06
5.47412e-06
1.07221e-06
1.87363e-05
1.87377e-05
1.8738e-05
1.87386e-05
4.70152e-07
1.67495e-06
1.67526e-06
1.67496e-06
1.67526e-06
1.87377e-05
1.87364e-05
1.87388e-05
1.87375e-05
1.87348e-05
1.87357e-05
1.87381e-05
1.87386e-05
1.67537e-06
1.67525e-06
4.70118e-07
1.67518e-06
1.67524e-06
1.87356e-05
1.87345e-05
1.87385e-05
1.87372e-05
4.70153e-07
1.67514e-06
1.67524e-06
1.6754e-06
1.67525e-06
1.0723e-06
5.47342e-06
1.0724e-06
5.47362e-06
5.406e-07
9.26318e-07
4.65946e-07
4.67485e-07
5.40648e-07
9.26138e-07
4.65946e-07
5.40602e-07
9.2628e-07
4.65946e-07
4.67486e-07
5.40646e-07
9.26122e-07
4.65946e-07
1.0724e-06
5.47351e-06
5.47338e-06
1.07229e-06
1.0724e-06
5.47358e-06
5.47343e-06
1.0723e-06
5.40644e-07
4.67484e-07
9.26131e-07
4.65943e-07
9.2632e-07
4.65944e-07
5.40603e-07
5.40647e-07
4.67484e-07
9.26119e-07
4.65943e-07
9.26279e-07
4.65944e-07
5.40601e-07
1.6752e-06
1.6753e-06
4.70116e-07
1.67519e-06
1.67514e-06
1.87343e-05
1.87349e-05
1.87362e-05
1.87355e-05
4.70152e-07
1.67516e-06
1.6751e-06
1.6752e-06
1.67534e-06
1.8735e-05
1.87337e-05
5.40597e-07
9.26315e-07
4.65946e-07
4.67485e-07
5.4064e-07
9.26156e-07
4.65946e-07
1.07223e-06
5.47429e-06
1.0723e-06
5.47453e-06
5.40604e-07
4.65946e-07
9.26458e-07
4.67487e-07
5.40648e-07
4.65946e-07
9.26281e-07
1.07227e-06
5.47424e-06
5.4741e-06
1.07219e-06
5.40642e-07
4.67483e-07
9.26147e-07
4.65943e-07
9.26318e-07
4.65944e-07
5.40594e-07
1.07231e-06
5.47448e-06
5.47433e-06
1.07224e-06
5.40649e-07
4.67485e-07
4.65943e-07
9.26276e-07
4.65944e-07
9.26462e-07
5.40602e-07
1.07231e-06
5.4735e-06
1.07241e-06
5.47371e-06
5.40602e-07
4.65946e-07
9.26242e-07
4.67486e-07
5.40644e-07
4.65946e-07
9.26077e-07
1.07231e-06
5.47392e-06
1.07241e-06
5.47407e-06
5.40647e-07
4.67484e-07
9.26102e-07
4.65944e-07
9.26281e-07
4.65945e-07
5.406e-07
1.07241e-06
5.47367e-06
5.4735e-06
1.07231e-06
5.40649e-07
4.67484e-07
4.65943e-07
9.26078e-07
4.65944e-07
9.26239e-07
5.406e-07
1.07241e-06
5.47409e-06
5.47386e-06
1.07231e-06
1.67575e-06
1.67497e-06
4.70118e-07
1.67563e-06
1.67496e-06
1.8737e-05
1.87373e-05
1.87388e-05
1.87381e-05
4.70153e-07
1.67558e-06
1.67495e-06
1.67582e-06
1.67497e-06
1.87374e-05
1.87359e-05
5.40595e-07
4.65946e-07
9.26318e-07
4.67485e-07
5.40642e-07
4.65945e-07
9.26153e-07
1.07222e-06
5.47398e-06
1.07229e-06
5.47416e-06
1.07221e-06
5.47414e-06
1.07228e-06
5.47434e-06
5.40642e-07
4.67485e-07
4.65944e-07
9.2607e-07
4.65946e-07
9.26227e-07
5.40596e-07
5.40646e-07
4.67483e-07
4.65942e-07
9.26154e-07
4.65943e-07
9.26318e-07
5.40594e-07
1.07229e-06
5.47416e-06
5.47396e-06
1.07222e-06
1.07229e-06
5.47431e-06
5.47413e-06
1.07221e-06
1.87372e-05
1.87375e-05
1.87383e-05
1.87387e-05
4.70153e-07
1.67494e-06
1.67526e-06
1.67494e-06
1.67525e-06
1.87376e-05
1.87362e-05
1.87387e-05
1.87373e-05
1.87349e-05
1.87354e-05
1.87381e-05
1.87387e-05
1.67536e-06
1.67525e-06
4.70118e-07
1.67519e-06
1.67524e-06
1.87356e-05
1.87342e-05
1.87385e-05
1.87372e-05
4.70153e-07
1.67514e-06
1.67524e-06
1.67539e-06
1.67524e-06
1.0723e-06
5.47342e-06
1.0724e-06
5.4736e-06
5.40599e-07
9.26318e-07
4.65946e-07
4.67486e-07
5.40651e-07
9.26138e-07
4.65946e-07
5.40601e-07
9.26279e-07
4.65946e-07
4.67486e-07
5.40649e-07
9.26121e-07
4.65946e-07
1.0724e-06
5.47351e-06
5.47337e-06
1.07229e-06
1.0724e-06
5.47357e-06
5.4734e-06
1.0723e-06
5.40643e-07
4.67484e-07
9.26131e-07
4.65943e-07
9.2632e-07
4.65944e-07
5.40603e-07
5.40647e-07
4.67484e-07
9.26119e-07
4.65943e-07
9.26278e-07
4.65943e-07
5.40601e-07
1.67519e-06
1.67532e-06
4.70116e-07
1.67518e-06
1.67513e-06
1.87344e-05
1.87348e-05
1.87362e-05
1.87355e-05
4.70151e-07
1.67516e-06
1.6751e-06
1.6752e-06
1.67534e-06
1.8735e-05
1.87336e-05
5.40595e-07
9.26315e-07
4.65946e-07
4.67485e-07
5.40642e-07
9.26155e-07
4.65946e-07
1.07223e-06
5.4743e-06
1.0723e-06
5.47453e-06
5.40603e-07
4.65946e-07
9.26459e-07
4.67488e-07
5.4065e-07
4.65946e-07
9.26281e-07
1.07227e-06
5.47424e-06
5.4741e-06
1.07219e-06
5.4064e-07
4.67483e-07
9.26147e-07
4.65943e-07
9.26317e-07
4.65944e-07
5.40595e-07
1.07231e-06
5.47447e-06
5.47433e-06
1.07224e-06
5.40648e-07
4.67486e-07
4.65943e-07
9.26276e-07
4.65943e-07
9.26462e-07
5.40602e-07
1.07231e-06
5.4735e-06
1.07241e-06
5.47371e-06
5.40601e-07
4.65946e-07
9.26241e-07
4.67486e-07
5.40645e-07
4.65946e-07
9.26077e-07
1.07231e-06
5.47396e-06
1.07241e-06
5.47408e-06
5.40646e-07
4.67484e-07
9.26102e-07
4.65943e-07
9.26281e-07
4.65945e-07
5.406e-07
1.07241e-06
5.47367e-06
5.47351e-06
1.07231e-06
5.40648e-07
4.67484e-07
4.65942e-07
9.26078e-07
4.65943e-07
9.26239e-07
5.406e-07
1.07241e-06
5.47409e-06
5.47387e-06
1.07231e-06
1.67574e-06
1.67497e-06
4.70118e-07
1.67563e-06
1.67496e-06
1.8737e-05
1.87373e-05
1.87388e-05
1.87381e-05
4.70153e-07
1.67558e-06
1.67495e-06
1.67582e-06
1.67497e-06
1.87374e-05
1.87359e-05
5.40594e-07
4.65946e-07
9.26318e-07
4.67486e-07
5.40646e-07
4.65946e-07
9.26152e-07
1.07222e-06
5.47403e-06
1.07229e-06
5.47418e-06
1.07221e-06
5.47414e-06
1.07228e-06
5.4743e-06
5.4064e-07
4.67485e-07
4.65943e-07
9.2607e-07
4.65946e-07
9.26227e-07
5.40597e-07
5.40644e-07
4.67483e-07
4.65943e-07
9.26153e-07
4.65943e-07
9.26316e-07
5.40595e-07
1.07229e-06
5.47416e-06
5.47398e-06
1.07222e-06
1.07229e-06
5.47431e-06
5.47409e-06
1.07221e-06
1.87372e-05
1.87376e-05
1.87384e-05
1.87387e-05
4.70153e-07
1.67494e-06
1.67526e-06
1.67494e-06
1.67525e-06
1.87376e-05
1.87362e-05
1.87387e-05
1.87373e-05
1.87351e-05
1.87354e-05
1.87381e-05
1.87387e-05
1.67537e-06
1.67525e-06
4.70117e-07
1.67518e-06
1.67524e-06
1.87356e-05
1.87342e-05
1.87385e-05
1.87372e-05
4.70153e-07
1.67514e-06
1.67524e-06
1.67539e-06
1.67524e-06
1.0723e-06
5.47344e-06
1.0724e-06
5.4736e-06
5.40599e-07
9.26318e-07
4.65946e-07
4.67486e-07
5.40651e-07
9.26138e-07
4.65946e-07
5.40601e-07
9.26279e-07
4.65946e-07
4.67486e-07
5.40648e-07
9.26121e-07
4.65946e-07
1.0724e-06
5.47351e-06
5.47337e-06
1.07229e-06
1.0724e-06
5.47357e-06
5.4734e-06
1.0723e-06
5.40643e-07
4.67484e-07
9.26131e-07
4.65943e-07
9.2632e-07
4.65944e-07
5.40603e-07
5.40647e-07
4.67484e-07
9.26119e-07
4.65943e-07
9.26278e-07
4.65943e-07
5.40602e-07
1.67519e-06
1.67532e-06
4.70116e-07
1.67519e-06
1.67513e-06
1.87344e-05
1.87348e-05
1.87362e-05
1.87355e-05
4.70151e-07
1.67516e-06
1.6751e-06
1.6752e-06
1.67534e-06
1.8735e-05
1.87336e-05
5.40595e-07
9.26315e-07
4.65946e-07
4.67485e-07
5.40643e-07
9.26155e-07
4.65946e-07
1.07223e-06
5.4743e-06
1.0723e-06
5.47453e-06
5.40603e-07
4.65946e-07
9.26459e-07
4.67488e-07
5.4065e-07
4.65946e-07
9.26281e-07
1.07227e-06
5.47424e-06
5.4741e-06
1.07219e-06
5.4064e-07
4.67483e-07
9.26147e-07
4.65943e-07
9.26317e-07
4.65943e-07
5.40595e-07
1.07231e-06
5.47447e-06
5.47433e-06
1.07224e-06
5.40648e-07
4.67485e-07
4.65943e-07
9.26276e-07
4.65943e-07
9.26462e-07
5.40602e-07
1.07231e-06
5.4735e-06
1.07241e-06
5.47371e-06
5.40601e-07
4.65946e-07
9.26241e-07
4.67486e-07
5.40646e-07
4.65946e-07
9.26077e-07
1.07231e-06
5.47395e-06
1.07241e-06
5.47408e-06
5.40646e-07
4.67484e-07
9.26102e-07
4.65943e-07
9.26281e-07
4.65945e-07
5.406e-07
1.07241e-06
5.47367e-06
5.47351e-06
1.07231e-06
5.40648e-07
4.67484e-07
4.65942e-07
9.26078e-07
4.65943e-07
9.26239e-07
5.406e-07
1.07241e-06
5.47409e-06
5.47387e-06
1.07231e-06
1.67574e-06
1.67497e-06
4.70117e-07
1.67563e-06
1.67496e-06
1.8737e-05
1.87373e-05
1.87388e-05
1.87381e-05
4.70153e-07
1.67558e-06
1.67495e-06
1.67582e-06
1.67497e-06
1.87374e-05
1.87359e-05
5.40595e-07
4.65946e-07
9.26318e-07
4.67486e-07
5.40645e-07
4.65946e-07
9.26152e-07
1.07222e-06
5.47403e-06
1.07229e-06
5.47418e-06
1.07221e-06
5.47417e-06
1.07228e-06
5.4743e-06
5.40641e-07
4.67485e-07
4.65943e-07
9.2607e-07
4.65945e-07
9.26227e-07
5.40597e-07
5.40645e-07
4.67483e-07
4.65943e-07
9.26154e-07
4.65943e-07
9.26317e-07
5.40596e-07
1.07229e-06
5.47416e-06
5.47398e-06
1.07222e-06
1.07229e-06
5.47431e-06
5.47409e-06
1.07221e-06
1.87372e-05
1.87375e-05
1.87384e-05
1.87387e-05
4.70153e-07
1.67494e-06
1.67526e-06
1.67494e-06
1.67526e-06
1.87376e-05
1.87362e-05
1.87387e-05
1.87373e-05
1.87351e-05
1.87354e-05
1.87381e-05
1.87387e-05
1.67537e-06
1.67525e-06
4.70118e-07
1.67519e-06
1.67524e-06
1.87356e-05
1.87342e-05
1.87385e-05
1.87372e-05
4.70153e-07
1.67514e-06
1.67524e-06
1.67539e-06
1.67524e-06
1.0723e-06
5.47344e-06
1.0724e-06
5.4736e-06
5.40599e-07
9.26318e-07
4.65946e-07
4.67486e-07
5.40651e-07
9.26138e-07
4.65946e-07
5.40601e-07
9.2628e-07
4.65946e-07
4.67486e-07
5.40649e-07
9.26121e-07
4.65946e-07
1.0724e-06
5.47351e-06
5.47337e-06
1.07229e-06
1.0724e-06
5.47357e-06
5.4734e-06
1.0723e-06
5.40643e-07
4.67484e-07
9.26131e-07
4.65943e-07
9.2632e-07
4.65944e-07
5.40603e-07
5.40647e-07
4.67484e-07
9.26119e-07
4.65943e-07
9.26278e-07
4.65943e-07
5.40602e-07
1.67519e-06
1.67532e-06
4.70116e-07
1.67519e-06
1.67513e-06
1.87344e-05
1.87348e-05
1.87362e-05
1.87355e-05
4.70151e-07
1.67516e-06
1.6751e-06
1.6752e-06
1.67534e-06
1.8735e-05
1.87336e-05
5.40595e-07
9.26315e-07
4.65946e-07
4.67485e-07
5.40643e-07
9.26155e-07
4.65946e-07
1.07223e-06
5.4743e-06
1.0723e-06
5.47453e-06
5.40603e-07
4.65946e-07
9.26459e-07
4.67488e-07
5.4065e-07
4.65946e-07
9.26281e-07
1.07227e-06
5.47424e-06
5.4741e-06
1.07219e-06
5.4064e-07
4.67483e-07
9.26148e-07
4.65942e-07
9.26318e-07
4.65943e-07
5.40595e-07
1.07231e-06
5.47447e-06
5.47433e-06
1.07224e-06
5.40648e-07
4.67485e-07
4.65943e-07
9.26276e-07
4.65943e-07
9.26462e-07
5.40602e-07
1.07231e-06
5.4735e-06
1.07241e-06
5.47371e-06
5.40601e-07
4.65946e-07
9.26241e-07
4.67486e-07
5.40646e-07
4.65946e-07
9.26077e-07
1.07231e-06
5.47395e-06
1.07241e-06
5.47408e-06
5.40646e-07
4.67484e-07
9.26102e-07
4.65944e-07
9.26281e-07
4.65945e-07