/*--------------------------------*- C++ -*----------------------------------*\
| =========                 |                                                 |
| \\      /  F ield         | OpenFOAM: The Open Source CFD Toolbox           |
|  \\    /   O peration     | Version:  2206                                  |
|   \\  /    A nd           | Website:  www.openfoam.com                      |
|    \\/     M anipulation  |                                                 |
\*---------------------------------------------------------------------------*/
FoamFile
{
    version     2.0;
    format      ascii;
    arch        "LSB;label=32;scalar=64";
    class       volScalarField;
    location    "5.5";
    object      nut;
}
// * * * * * * * * * * * * * * * * * * * * * * * * * * * * * * * * * * * * * //

dimensions      [0 2 -1 0 0 0 0];

internalField   nonuniform List<scalar> 
28897
(
0.000233354
0.000232372
0.000232368
0.000230941
0.00023334
0.000232338
0.000232343
0.000230885
0.00023335
0.000232352
0.000232352
0.000230899
0.00023335
0.000232352
0.000232352
0.000230899
0.00023335
0.000232352
0.000232352
0.000230899
0.00023335
0.000232352
0.000232352
0.000230899
0.00023335
0.000232352
0.000232352
0.000230899
0.00023335
0.000232352
0.000232352
0.000230899
0.00023335
0.000232352
0.000232352
0.000230899
0.00023335
0.000232352
0.000232352
0.000230899
0.00023335
0.000232352
0.000232352
0.000230899
0.00023335
0.000232352
0.000232352
0.000230899
0.00023335
0.000232352
0.000232352
0.000230899
0.00023335
0.000232352
0.000232352
0.000230899
0.00023335
0.000232352
0.000232352
0.000230899
0.00023335
0.000232352
0.000232352
0.000230899
0.00023335
0.000232352
0.000232352
0.000230899
0.00023335
0.000232353
0.000232353
0.000230899
0.000230961
0.00023237
0.00023237
0.000230967
0.000232371
0.000232369
0.000232373
0.00023237
0.00023096
0.000232371
0.00023237
0.00023096
0.000230942
0.000230904
0.000232368
0.000232369
0.000232335
0.000232338
0.000230947
0.000230908
0.000232369
0.000232367
0.000232336
0.000232335
0.000232369
0.000232336
0.000232337
0.000230942
0.000230903
0.000232369
0.000232336
0.000232336
0.000230905
0.00023089
0.00023092
0.000232343
0.000232343
0.000232352
0.000232351
0.000230875
0.000230922
0.000232344
0.000232342
0.000232352
0.000232351
0.000232343
0.000232352
0.000232351
0.000230889
0.00023092
0.000232343
0.000232352
0.000232352
0.000230918
0.000230906
0.000230919
0.000232352
0.000232352
0.000232352
0.000232351
0.000230907
0.00023092
0.000232352
0.000232351
0.000232352
0.000232351
0.000232352
0.000232353
0.000232352
0.000230906
0.000230919
0.000232352
0.000232352
0.000232352
0.000230918
0.000230906
0.000230919
0.000232352
0.000232352
0.000232352
0.000232351
0.000230906
0.00023092
0.000232352
0.000232351
0.000232352
0.000232351
0.000232352
0.000232353
0.000232351
0.000230905
0.000230919
0.000232352
0.000232352
0.000232352
0.000230918
0.000230906
0.000230919
0.000232352
0.000232352
0.000232352
0.000232351
0.000230906
0.00023092
0.000232352
0.000232351
0.000232352
0.000232351
0.000232352
0.000232353
0.000232352
0.000230905
0.000230919
0.000232352
0.000232352
0.000232352
0.000230918
0.000230906
0.000230919
0.000232352
0.000232352
0.000232352
0.000232351
0.000230906
0.00023092
0.000232352
0.000232351
0.000232352
0.000232351
0.000232352
0.000232352
0.000232351
0.000230905
0.000230919
0.000232352
0.000232352
0.000232352
0.000230918
0.000230906
0.000230919
0.000232352
0.000232352
0.000232352
0.000232351
0.000230906
0.00023092
0.000232352
0.000232351
0.000232352
0.000232351
0.000232352
0.000232353
0.000232351
0.000230905
0.000230919
0.000232352
0.000232352
0.000232352
0.000230918
0.000230906
0.000230919
0.000232352
0.000232352
0.000232352
0.000232351
0.000230906
0.00023092
0.000232352
0.000232351
0.000232352
0.000232351
0.000232352
0.000232353
0.000232352
0.000230905
0.000230919
0.000232352
0.000232352
0.000232352
0.000230918
0.000230906
0.000230919
0.000232352
0.000232352
0.000232352
0.000232351
0.000230906
0.000230919
0.000232352
0.000232351
0.000232352
0.000232351
0.000232352
0.000232353
0.000232351
0.000230905
0.000230919
0.000232352
0.000232352
0.000232352
0.000230918
0.000230906
0.000230919
0.000232352
0.000232352
0.000232352
0.000232351
0.000230906
0.000230919
0.000232352
0.000232351
0.000232352
0.000232351
0.000232352
0.000232353
0.000232351
0.000230905
0.000230919
0.000232352
0.000232352
0.000232352
0.000230918
0.000230906
0.000230919
0.000232352
0.000232352
0.000232352
0.000232351
0.000230906
0.00023092
0.000232352
0.000232351
0.000232352
0.000232351
0.000232352
0.000232352
0.000232351
0.000230905
0.000230919
0.000232352
0.000232352
0.000232352
0.000230918
0.000230906
0.000230919
0.000232352
0.000232352
0.000232352
0.000232351
0.000230906
0.00023092
0.000232352
0.000232351
0.000232352
0.000232351
0.000232352
0.000232353
0.000232351
0.000230905
0.000230919
0.000232352
0.000232352
0.000232352
0.000230918
0.000230906
0.000230919
0.000232352
0.000232352
0.000232352
0.000232351
0.000230906
0.00023092
0.000232352
0.000232351
0.000232352
0.000232351
0.000232352
0.000232353
0.000232352
0.000230905
0.000230919
0.000232352
0.000232352
0.000232352
0.000230918
0.000230906
0.000230919
0.000232352
0.000232352
0.000232352
0.000232351
0.000230906
0.00023092
0.000232352
0.000232351
0.000232352
0.000232351
0.000232352
0.000232353
0.000232351
0.000230905
0.000230919
0.000232352
0.000232352
0.000232352
0.000230918
0.000230906
0.000230919
0.000232352
0.000232352
0.000232352
0.000232351
0.000230906
0.00023092
0.000232352
0.000232351
0.000232352
0.000232351
0.000232352
0.000232353
0.000232351
0.000230905
0.000230919
0.000232352
0.000232352
0.000232352
0.000230918
0.000230906
0.000230919
0.000232352
0.000232352
0.000232352
0.000232351
0.000230906
0.00023092
0.000232352
0.000232351
0.000232352
0.000232351
0.000232352
0.000232353
0.000232352
0.000230905
0.000230919
0.000232352
0.000232352
0.000232352
0.000230918
0.000230906
0.000230919
0.000232352
0.000232352
0.000232352
0.000232351
0.000230906
0.00023092
0.000232352
0.000232351
0.000232352
0.000232351
0.000232352
0.000232353
0.000232351
0.000230905
0.000230919
0.000232352
0.000232352
0.000232352
0.000230918
0.000230904
0.000232352
0.000232352
0.000230904
0.000232353
0.000232351
0.000232352
0.000230903
0.000232353
0.000233356
0.000233356
0.000233356
0.000233356
0.000103321
4.21923e-05
0.000103328
4.21936e-05
2.37943e-05
2.37937e-05
0.000103331
4.21899e-05
0.000103341
4.21911e-05
0.000233354
0.000233354
0.000233354
0.000233331
0.000233332
0.000233331
0.000233331
0.000200047
0.00011896
0.000233191
0.000232369
0.000200037
0.000118981
0.000233185
2.37927e-05
2.37941e-05
0.000200036
0.000233191
0.000118956
0.000232361
0.000200038
0.000233183
0.000118948
6.75535e-05
6.75414e-05
0.000230946
6.75568e-05
6.75304e-05
0.000103113
4.2214e-05
0.000103105
4.22135e-05
2.3811e-05
2.38133e-05
0.000103124
4.22115e-05
0.000103116
4.2211e-05
0.00023334
0.00023334
0.00023334
0.00023335
0.00023335
0.00023335
0.00023335
0.000199851
0.000118783
0.000233174
0.000232344
0.000199848
0.000118747
0.00023318
2.38117e-05
2.38115e-05
0.000199852
0.000233174
0.000118735
0.000232349
0.000199837
0.000233181
0.000118749
6.73771e-05
6.73541e-05
0.000230919
6.73691e-05
6.73575e-05
0.000103114
4.22136e-05
0.000103099
4.22133e-05
2.38135e-05
2.38133e-05
0.000103125
4.22112e-05
0.000103113
4.22108e-05
0.00023335
0.00023335
0.00023335
0.00023335
0.00023335
0.00023335
0.00023335
0.000199853
0.000118717
0.000233184
0.000232353
0.000199835
0.000118744
0.000233184
2.38114e-05
2.38113e-05
0.000199855
0.000233184
0.000118724
0.000232352
0.000199836
0.000233184
0.000118749
6.73629e-05
6.73505e-05
0.00023092
6.73705e-05
6.73578e-05
0.000103114
4.22136e-05
0.000103099
4.22133e-05
2.38135e-05
2.38133e-05
0.000103125
4.22112e-05
0.000103113
4.22108e-05
0.00023335
0.00023335
0.00023335
0.00023335
0.00023335
0.00023335
0.00023335
0.000199853
0.000118717
0.000233184
0.000232353
0.000199834
0.000118744
0.000233184
2.38114e-05
2.38113e-05
0.000199855
0.000233184
0.000118724
0.000232352
0.000199835
0.000233184
0.000118749
6.7363e-05
6.73505e-05
0.00023092
6.73704e-05
6.73578e-05
0.000103114
4.22136e-05
0.000103099
4.22133e-05
2.38135e-05
2.38133e-05
0.000103125
4.22112e-05
0.000103113
4.22108e-05
0.00023335
0.00023335
0.00023335
0.00023335
0.00023335
0.00023335
0.00023335
0.000199853
0.000118717
0.000233184
0.000232353
0.000199834
0.000118744
0.000233184
2.38114e-05
2.38113e-05
0.000199855
0.000233184
0.000118724
0.000232352
0.000199835
0.000233184
0.000118749
6.7363e-05
6.73505e-05
0.00023092
6.73704e-05
6.73577e-05
0.000103114
4.22136e-05
0.000103099
4.22133e-05
2.38135e-05
2.38133e-05
0.000103125
4.22112e-05
0.000103113
4.22108e-05
0.00023335
0.00023335
0.00023335
0.00023335
0.00023335
0.00023335
0.00023335
0.000199853
0.000118717
0.000233184
0.000232353
0.000199834
0.000118744
0.000233184
2.38114e-05
2.38113e-05
0.000199855
0.000233184
0.000118724
0.000232352
0.000199835
0.000233184
0.000118749
6.7363e-05
6.73503e-05
0.00023092
6.73704e-05
6.73577e-05
0.000103114
4.22136e-05
0.000103099
4.22133e-05
2.38135e-05
2.38133e-05
0.000103125
4.22112e-05
0.000103113
4.22108e-05
0.00023335
0.00023335
0.00023335
0.00023335
0.00023335
0.00023335
0.00023335
0.000199853
0.000118717
0.000233184
0.000232353
0.000199834
0.000118744
0.000233184
2.38114e-05
2.38113e-05
0.000199855
0.000233184
0.000118724
0.000232352
0.000199835
0.000233184
0.000118749
6.7363e-05
6.73504e-05
0.00023092
6.73704e-05
6.73577e-05
0.000103114
4.22136e-05
0.000103099
4.22133e-05
2.38135e-05
2.38133e-05
0.000103125
4.22112e-05
0.000103113
4.22108e-05
0.00023335
0.00023335
0.00023335
0.00023335
0.00023335
0.00023335
0.00023335
0.000199853
0.000118717
0.000233184
0.000232353
0.000199834
0.000118744
0.000233184
2.38114e-05
2.38113e-05
0.000199855
0.000233184
0.000118724
0.000232352
0.000199835
0.000233184
0.000118749
6.7363e-05
6.73506e-05
0.00023092
6.73704e-05
6.73579e-05
0.000103114
4.22136e-05
0.000103099
4.22133e-05
2.38135e-05
2.38133e-05
0.000103125
4.22112e-05
0.000103113
4.22108e-05
0.00023335
0.00023335
0.00023335
0.00023335
0.00023335
0.00023335
0.00023335
0.000199853
0.000118717
0.000233184
0.000232353
0.000199834
0.000118744
0.000233184
2.38114e-05
2.38113e-05
0.000199855
0.000233184
0.000118724
0.000232352
0.000199836
0.000233184
0.000118749
6.7363e-05
6.73504e-05
0.00023092
6.73704e-05
6.73578e-05
0.000103114
4.22136e-05
0.000103099
4.22133e-05
2.38135e-05
2.38134e-05
0.000103125
4.22112e-05
0.000103113
4.22108e-05
0.00023335
0.00023335
0.00023335
0.00023335
0.00023335
0.00023335
0.00023335
0.000199853
0.000118717
0.000233184
0.000232353
0.000199834
0.000118744
0.000233184
2.38114e-05
2.38113e-05
0.000199855
0.000233184
0.000118724
0.000232352
0.000199836
0.000233184
0.000118749
6.7363e-05
6.73504e-05
0.00023092
6.73704e-05
6.73577e-05
0.000103114
4.22139e-05
0.000103099
4.22139e-05
2.38132e-05
2.38131e-05
0.000103125
4.22108e-05
0.000103113
4.22104e-05
0.00023335
0.00023335
0.00023335
0.00023335
0.00023335
0.00023335
0.00023335
0.000199853
0.000118717
0.000233184
0.000232353
0.000199834
0.000118744
0.000233184
2.38114e-05
2.38113e-05
0.000199855
0.000233184
0.000118724
0.000232352
0.000199836
0.000233184
0.000118749
6.7363e-05
6.73506e-05
0.00023092
6.73705e-05
6.73578e-05
0.000103114
4.22143e-05
0.000103099
4.2214e-05
2.38132e-05
2.38128e-05
0.000103126
4.22106e-05
0.000103113
4.22103e-05
0.00023335
0.00023335
0.00023335
0.00023335
0.00023335
0.00023335
0.00023335
0.000199853
0.000118717
0.000233184
0.000232353
0.000199834
0.000118744
0.000233184
2.38114e-05
2.38113e-05
0.000199855
0.000233184
0.000118724
0.000232352
0.000199834
0.000233184
0.000118749
6.7363e-05
6.73505e-05
0.00023092
6.73704e-05
6.73578e-05
0.000103114
4.22143e-05
0.000103099
4.2214e-05
2.38131e-05
2.38129e-05
0.000103126
4.22107e-05
0.000103113
4.22103e-05
0.00023335
0.00023335
0.00023335
0.00023335
0.00023335
0.00023335
0.00023335
0.000199853
0.000118717
0.000233184
0.000232353
0.000199834
0.000118744
0.000233184
2.38114e-05
2.38113e-05
0.000199855
0.000233184
0.000118724
0.000232352
0.000199834
0.000233184
0.000118749
6.7363e-05
6.73505e-05
0.00023092
6.73704e-05
6.73578e-05
0.000103114
4.22143e-05
0.000103099
4.2214e-05
2.38131e-05
2.38129e-05
0.000103126
4.22107e-05
0.000103113
4.22103e-05
0.00023335
0.00023335
0.00023335
0.00023335
0.00023335
0.00023335
0.00023335
0.000199853
0.000118717
0.000233184
0.000232353
0.000199834
0.000118744
0.000233184
2.38114e-05
2.38113e-05
0.000199854
0.000233184
0.000118724
0.000232352
0.000199833
0.000233184
0.000118749
6.7363e-05
6.73505e-05
0.00023092
6.73704e-05
6.73577e-05
0.000103114
4.22143e-05
0.000103099
4.2214e-05
2.38131e-05
2.38129e-05
0.000103126
4.22107e-05
0.000103113
4.22103e-05
0.00023335
0.00023335
0.00023335
0.00023335
0.00023335
0.00023335
0.00023335
0.000199853
0.000118717
0.000233184
0.000232353
0.000199834
0.000118744
0.000233184
2.38114e-05
2.38113e-05
0.000199854
0.000233184
0.000118724
0.000232352
0.000199833
0.000233184
0.000118749
6.7363e-05
6.73504e-05
0.00023092
6.73704e-05
6.73578e-05
0.000103114
4.22143e-05
0.0001031
4.2214e-05
2.38131e-05
2.38129e-05
0.000103126
4.22107e-05
0.000103113
4.22103e-05
0.00023335
0.00023335
0.00023335
0.00023335
0.00023335
0.00023335
0.00023335
0.000199853
0.000118717
0.000233184
0.000232353
0.000199834
0.000118744
0.000233184
2.38114e-05
2.38113e-05
0.000199854
0.000233184
0.000118724
0.000232352
0.000199833
0.000233184
0.000118749
6.7363e-05
6.73504e-05
0.00023092
6.73705e-05
6.73577e-05
0.000103114
4.22143e-05
0.000103099
4.2214e-05
2.38131e-05
2.38129e-05
0.000103126
4.22107e-05
0.000103113
4.22103e-05
0.00023335
0.00023335
0.00023335
0.00023335
0.00023335
0.00023335
0.00023335
0.000199853
0.000118717
0.000233184
0.000232353
0.000199834
0.000118744
0.000233184
2.38114e-05
2.38113e-05
0.000199854
0.000233184
0.000118724
0.000232352
0.000199833
0.000233184
0.000118749
6.73629e-05
6.73503e-05
0.00023092
6.73703e-05
6.73577e-05
4.22143e-05
0.000103099
2.38131e-05
4.22107e-05
0.000103113
0.000233351
0.00023335
0.00023335
0.000118717
0.000233185
0.000199834
2.38114e-05
0.000233185
0.000118724
0.000199833
6.73626e-05
6.735e-05
2.37945e-05
2.37958e-05
2.37936e-05
2.37949e-05
0.000230949
6.75464e-05
6.75425e-05
6.7531e-05
6.75347e-05
0.000103323
4.2192e-05
4.21919e-05
0.000103342
0.000103322
4.2192e-05
4.2192e-05
0.000103342
0.000200034
0.000232371
0.000118973
0.000233193
0.000118926
0.000233194
0.000200057
0.000200033
0.000232371
0.000118976
0.000233193
0.000118933
0.000233194
0.000200058
2.37945e-05
6.75469e-05
6.75447e-05
2.37949e-05
0.000103336
4.21896e-05
4.21895e-05
0.000103353
0.000200037
0.000232371
0.00011897
0.000233193
0.000118927
0.000233194
0.000200061
0.000103332
4.21872e-05
4.21872e-05
0.000103347
0.000200033
0.00023237
0.000233193
0.000118954
0.000233194
0.000118908
0.000200057
0.000118986
0.000233193
0.000233194
0.000200056
4.21905e-05
0.000103347
0.000232371
0.000233193
0.000118988
0.000233194
0.000200057
4.21888e-05
0.000103347
2.37926e-05
2.37941e-05
0.000230949
6.75279e-05
6.75544e-05
6.75138e-05
6.75462e-05
2.37943e-05
2.37954e-05
0.000200036
0.000232371
0.000233193
0.00011898
0.000233194
0.000118938
0.000200057
0.000200035
0.000232371
0.000233193
0.00011897
0.000233194
0.000118927
0.000200061
0.000103333
4.2189e-05
4.2189e-05
0.000103349
0.000103334
4.21885e-05
4.21885e-05
0.00010335
0.00023095
6.75551e-05
6.75424e-05
6.75359e-05
2.37942e-05
2.37934e-05
2.37946e-05
2.37945e-05
2.37961e-05
2.37936e-05
2.37952e-05
6.75431e-05
6.75473e-05
0.000230943
6.75316e-05
6.75307e-05
2.38127e-05
2.38006e-05
2.38118e-05
2.37998e-05
0.000230899
6.73794e-05
6.73707e-05
6.74876e-05
6.74906e-05
0.000103321
4.2192e-05
0.000103338
4.21935e-05
0.000200032
0.000118956
0.000233191
0.00023236
0.00020004
0.000118942
0.000233184
0.000200032
0.000118962
0.000233191
0.000232362
0.00020004
0.000118953
0.000233184
0.000103269
4.22124e-05
4.21986e-05
0.000103138
0.000103268
4.2212e-05
4.21975e-05
0.000103137
0.000199973
0.000232337
0.000118771
0.000233166
0.000118883
0.000233164
0.000199871
0.000199972
0.000232343
0.000118795
0.000233166
0.000118908
0.000233164
0.00019987
6.75497e-05
6.75443e-05
0.000230954
6.75552e-05
6.75521e-05
2.37949e-05
2.37946e-05
2.38064e-05
2.3794e-05
0.000230931
6.74556e-05
6.7464e-05
6.75525e-05
6.75421e-05
2.38066e-05
2.37948e-05
0.000200035
0.000118955
0.000233191
0.000232361
0.000200043
0.000118939
0.000233184
0.000103327
4.21873e-05
0.000103346
4.2189e-05
0.000200031
0.000233191
0.000118938
0.00023236
0.000200039
0.000233183
0.000118924
0.000103281
4.22099e-05
4.21962e-05
0.000103142
0.000199975
0.000232338
0.000118764
0.000233166
0.000118883
0.000233164
0.00019987
0.000103278
4.2208e-05
4.21942e-05
0.000103139
0.000199972
0.000232337
0.000233165
0.000118752
0.000233163
0.000118864
0.000199868
0.000103339
4.21905e-05
0.000103343
4.2191e-05
0.000200047
0.000233191
0.000118974
0.000232362
0.000200041
0.000233185
0.000118972
0.000103339
4.21888e-05
0.000103342
4.21896e-05
0.000200014
0.000232358
0.000118862
0.000233167
0.000118951
0.000233168
0.0001999
0.00010331
4.22039e-05
4.21912e-05
0.000103176
0.000200013
0.000232341
0.000233167
0.000118811
0.000233166
0.000118933
0.000199899
0.000103309
4.22076e-05
4.21912e-05
0.000103176
6.75262e-05
6.75592e-05
0.000230943
6.75139e-05
6.75427e-05
2.37942e-05
2.37959e-05
2.38106e-05
2.3799e-05
0.000230899
6.73606e-05
6.73826e-05
6.74688e-05
6.7501e-05
2.38125e-05
2.38004e-05
0.000200035
0.000233191
0.000118955
0.000232361
0.000200041
0.000233183
0.000118939
0.000103328
4.2189e-05
0.000103347
4.2191e-05
0.000103329
4.21885e-05
0.000103348
4.21904e-05
0.000199978
0.000232339
0.000233166
0.000118773
0.000233164
0.000118894
0.000199873
0.000199975
0.000232338
0.000233165
0.000118764
0.000233163
0.000118883
0.000199872
0.000103279
4.221e-05
4.21961e-05
0.000103141
0.000103279
4.22094e-05
4.21953e-05
0.000103141
2.37939e-05
2.37942e-05
2.37933e-05
2.37948e-05
0.000230903
6.74126e-05
6.73705e-05
6.75364e-05
6.74904e-05
2.38103e-05
2.37953e-05
2.38116e-05
2.37992e-05
2.38131e-05
2.38132e-05
2.3812e-05
2.38123e-05
6.73586e-05
6.73593e-05
0.000230918
6.73538e-05
6.73565e-05
2.38132e-05
2.38127e-05
2.38123e-05
2.38117e-05
0.000230908
6.73564e-05
6.73569e-05
6.73477e-05
6.73582e-05
0.000103113
4.22134e-05
0.000103111
4.22135e-05
0.000199852
0.000118732
0.000233175
0.000232348
0.000199844
0.000118739
0.00023318
0.000199851
0.000118751
0.000233175
0.000232348
0.000199843
0.000118745
0.00023318
0.000103108
4.22132e-05
4.2213e-05
0.000103115
0.000103108
4.22134e-05
4.22131e-05
0.000103114
0.000199839
0.000232351
0.00011874
0.000233184
0.000118722
0.000233183
0.000199854
0.000199838
0.000232351
0.000118744
0.000233184
0.000118729
0.000233183
0.000199855
6.73947e-05
6.73994e-05
0.000230914
6.73567e-05
6.73589e-05
2.38112e-05
2.38136e-05
2.3813e-05
2.38127e-05
0.000230905
6.73587e-05
6.73578e-05
6.73576e-05
6.7351e-05
2.38135e-05
2.38131e-05
0.000199853
0.000118733
0.000233175
0.000232349
0.000199844
0.000118739
0.000233181
0.00010312
4.22087e-05
0.000103119
4.22087e-05
0.000199851
0.000233174
0.000118714
0.000232347
0.000199842
0.00023318
0.000118721
0.000103122
4.22107e-05
4.22105e-05
0.000103127
0.000199842
0.000232352
0.000118739
0.000233184
0.000118724
0.000233183
0.000199859
0.000103117
4.22085e-05
4.22082e-05
0.000103121
0.000199838
0.00023235
0.000233184
0.000118722
0.000233183
0.000118705
0.000199854
0.000103111
4.22097e-05
0.000103124
4.22128e-05
0.000199851
0.000233175
0.000118757
0.000232348
0.000199855
0.00023318
0.000118748
0.000103111
4.22103e-05
0.000103123
4.22109e-05
0.000199838
0.00023235
0.000118744
0.000233184
0.000118727
0.000233183
0.000199854
0.000103106
4.22124e-05
4.22123e-05
0.000103113
0.000199838
0.000232351
0.000233184
0.000118747
0.000233183
0.000118733
0.000199854
0.000103106
4.22108e-05
4.22104e-05
0.000103113
6.73405e-05
6.73701e-05
0.000230918
6.73366e-05
6.73678e-05
2.38126e-05
2.38129e-05
2.38111e-05
2.38109e-05
0.000230908
6.73407e-05
6.73686e-05
6.73321e-05
6.73693e-05
2.3813e-05
2.38124e-05
0.000199853
0.000233175
0.000118732
0.000232348
0.000199843
0.00023318
0.000118739
0.000103121
4.22106e-05
0.00010312
4.22106e-05
0.000103122
4.221e-05
0.00010312
4.22101e-05
0.00019984
0.000232352
0.000233184
0.00011875
0.000233184
0.000118734
0.000199855
0.000199839
0.000232351
0.000233184
0.000118739
0.000233183
0.000118723
0.000199858
0.000103118
4.22104e-05
4.22101e-05
0.000103122
0.000103119
4.221e-05
4.22095e-05
0.000103123
2.38121e-05
2.38129e-05
2.38118e-05
2.3812e-05
0.000230909
6.73694e-05
6.7357e-05
6.73703e-05
6.73589e-05
2.38128e-05
2.38123e-05
2.38121e-05
2.38116e-05
2.38128e-05
2.38133e-05
2.38121e-05
2.38123e-05
6.73503e-05
6.73586e-05
0.000230919
6.73553e-05
6.73569e-05
2.38132e-05
2.38128e-05
2.38123e-05
2.38117e-05
0.000230908
6.73572e-05
6.73569e-05
6.73488e-05
6.73584e-05
0.000103114
4.2213e-05
0.000103108
4.22135e-05
0.000199854
0.000118722
0.000233184
0.000232352
0.00019984
0.000118739
0.000233184
0.000199853
0.000118729
0.000233184
0.000232352
0.000199841
0.000118744
0.000233184
0.000103109
4.22131e-05
4.22128e-05
0.000103115
0.000103108
4.22134e-05
4.22131e-05
0.000103114
0.000199841
0.000232352
0.00011874
0.000233184
0.000118723
0.000233184
0.000199853
0.000199839
0.000232352
0.000118744
0.000233184
0.000118729
0.000233184
0.000199854
6.73601e-05
6.73519e-05
0.000230919
6.73593e-05
6.73556e-05
2.38132e-05
2.38135e-05
2.3813e-05
2.38127e-05
0.000230908
6.73596e-05
6.73583e-05
6.73606e-05
6.73499e-05
2.38135e-05
2.3813e-05
0.000199856
0.000118724
0.000233184
0.000232352
0.000199844
0.000118739
0.000233184
0.00010312
4.2208e-05
0.000103118
4.22086e-05
0.000199852
0.000233184
0.000118705
0.000232351
0.00019984
0.000233184
0.000118722
0.000103123
4.22107e-05
4.22103e-05
0.000103127
0.000199843
0.000232353
0.000118739
0.000233184
0.000118724
0.000233184
0.000199858
0.000103117
4.22085e-05
4.22081e-05
0.000103121
0.000199839
0.000232351
0.000233184
0.000118722
0.000233184
0.000118705
0.000199853
0.000103112
4.2212e-05
0.000103107
4.22125e-05
0.000199853
0.000233184
0.000118732
0.000232352
0.000199842
0.000233184
0.000118748
0.000103112
4.22103e-05
0.000103107
4.22107e-05
0.00019984
0.000232353
0.000118745
0.000233184
0.000118727
0.000233184
0.000199853
0.000103107
4.22124e-05
4.2212e-05
0.000103113
0.000199839
0.000232352
0.000233184
0.000118747
0.000233184
0.000118733
0.000199854
0.000103106
4.22107e-05
4.22102e-05
0.000103113
6.73362e-05
6.73698e-05
0.000230918
6.73387e-05
6.73685e-05
2.38128e-05
2.38129e-05
2.3811e-05
2.38108e-05
0.000230907
6.73404e-05
6.73686e-05
6.73327e-05
6.73698e-05
2.38129e-05
2.38123e-05
0.000199856
0.000233185
0.000118723
0.000232352
0.000199843
0.000233185
0.000118739
0.000103122
4.221e-05
0.000103119
4.22104e-05
0.000103123
4.22095e-05
0.00010312
4.22101e-05
0.000199842
0.000232352
0.000233184
0.00011875
0.000233184
0.000118735
0.000199855
0.000199841
0.000232352
0.000233184
0.000118739
0.000233184
0.000118723
0.000199857
0.000103118
4.22104e-05
4.221e-05
0.000103122
0.000103119
4.221e-05
4.22095e-05
0.000103123
2.38126e-05
2.38128e-05
2.38119e-05
2.38121e-05
0.000230909
6.73696e-05
6.73569e-05
6.73716e-05
6.7359e-05
2.38128e-05
2.38122e-05
2.38121e-05
2.38115e-05
2.38129e-05
2.38131e-05
2.38121e-05
2.38124e-05
6.73508e-05
6.73586e-05
0.000230919
6.73548e-05
6.7357e-05
2.38132e-05
2.38127e-05
2.38123e-05
2.38118e-05
0.000230908
6.73573e-05
6.73569e-05
6.73489e-05
6.73586e-05
0.000103114
4.2213e-05
0.000103108
4.22135e-05
0.000199854
0.000118722
0.000233184
0.000232352
0.000199839
0.000118739
0.000233184
0.000199853
0.000118729
0.000233184
0.000232352
0.00019984
0.000118744
0.000233184
0.000103109
4.22131e-05
4.22128e-05
0.000103115
0.000103108
4.22134e-05
4.2213e-05
0.000103114
0.000199842
0.000232352
0.00011874
0.000233184
0.000118723
0.000233184
0.000199853
0.00019984
0.000232352
0.000118744
0.000233184
0.000118729
0.000233184
0.000199853
6.73606e-05
6.73519e-05
0.00023092
6.73594e-05
6.7356e-05
2.38132e-05
2.38134e-05
2.3813e-05
2.38127e-05
0.000230909
6.73595e-05
6.73582e-05
6.73607e-05
6.735e-05
2.38135e-05
2.38129e-05
0.000199857
0.000118724
0.000233184
0.000232352
0.000199844
0.000118739
0.000233184
0.00010312
4.22081e-05
0.000103117
4.22086e-05
0.000199853
0.000233184
0.000118705
0.000232351
0.000199839
0.000233184
0.000118722
0.000103123
4.22107e-05
4.22103e-05
0.000103127
0.000199844
0.000232353
0.000118739
0.000233184
0.000118724
0.000233184
0.000199857
0.000103117
4.22085e-05
4.22081e-05
0.000103121
0.000199839
0.000232351
0.000233184
0.000118722
0.000233184
0.000118705
0.000199853
0.000103112
4.22119e-05
0.000103107
4.22125e-05
0.000199853
0.000233184
0.000118732
0.000232352
0.000199841
0.000233184
0.000118748
0.000103112
4.22103e-05
0.000103107
4.22107e-05
0.00019984
0.000232353
0.000118745
0.000233185
0.000118727
0.000233185
0.000199853
0.000103107
4.22124e-05
4.2212e-05
0.000103113
0.000199839
0.000232352
0.000233184
0.000118747
0.000233184
0.000118733
0.000199854
0.000103106
4.22107e-05
4.22102e-05
0.000103113
6.73363e-05
6.73697e-05
0.000230919
6.73386e-05
6.73685e-05
2.38128e-05
2.38129e-05
2.3811e-05
2.38108e-05
0.000230907
6.73404e-05
6.73685e-05
6.73326e-05
6.73698e-05
2.38129e-05
2.38123e-05
0.000199856
0.000233184
0.000118723
0.000232352
0.000199841
0.000233184
0.000118739
0.000103122
4.22101e-05
0.000103119
4.22105e-05
0.000103123
4.22096e-05
0.00010312
4.221e-05
0.000199843
0.000232353
0.000233184
0.00011875
0.000233185
0.000118735
0.000199855
0.000199841
0.000232352
0.000233184
0.000118739
0.000233184
0.000118724
0.000199857
0.000103118
4.22104e-05
4.221e-05
0.000103122
0.000103119
4.221e-05
4.22095e-05
0.000103123
2.38126e-05
2.38128e-05
2.38119e-05
2.38121e-05
0.000230909
6.73696e-05
6.73569e-05
6.73716e-05
6.7359e-05
2.38128e-05
2.38122e-05
2.38121e-05
2.38115e-05
2.3813e-05
2.38131e-05
2.38121e-05
2.38124e-05
6.73505e-05
6.73586e-05
0.000230919
6.73549e-05
6.7357e-05
2.38132e-05
2.38126e-05
2.38123e-05
2.38118e-05
0.000230908
6.73573e-05
6.7357e-05
6.7349e-05
6.73586e-05
0.000103113
4.2213e-05
0.000103108
4.22135e-05
0.000199854
0.000118722
0.000233184
0.000232352
0.000199839
0.000118739
0.000233184
0.000199853
0.000118729
0.000233184
0.000232352
0.00019984
0.000118744
0.000233184
0.000103109
4.22131e-05
4.22128e-05
0.000103115
0.000103108
4.22134e-05
4.2213e-05
0.000103114
0.000199842
0.000232352
0.00011874
0.000233184
0.000118723
0.000233184
0.000199853
0.000199839
0.000232352
0.000118744
0.000233184
0.000118729
0.000233184
0.000199853
6.73605e-05
6.73518e-05
0.00023092
6.73593e-05
6.7356e-05
2.38132e-05
2.38134e-05
2.3813e-05
2.38127e-05
0.000230908
6.73595e-05
6.73582e-05
6.73606e-05
6.735e-05
2.38135e-05
2.38129e-05
0.000199857
0.000118724
0.000233184
0.000232352
0.000199843
0.000118739
0.000233184
0.00010312
4.22081e-05
0.000103118
4.22086e-05
0.000199853
0.000233184
0.000118705
0.000232351
0.000199839
0.000233184
0.000118722
0.000103123
4.22107e-05
4.22103e-05
0.000103127
0.000199844
0.000232353
0.000118739
0.000233184
0.000118724
0.000233184
0.000199857
0.000103117
4.22085e-05
4.22081e-05
0.000103121
0.000199839
0.000232351
0.000233184
0.000118722
0.000233184
0.000118705
0.000199853
0.000103113
4.22119e-05
0.000103108
4.22125e-05
0.000199853
0.000233184
0.000118732
0.000232352
0.000199841
0.000233184
0.000118748
0.000103112
4.22103e-05
0.000103107
4.22107e-05
0.00019984
0.000232353
0.000118745
0.000233185
0.000118727
0.000233185
0.000199853
0.000103107
4.22124e-05
4.2212e-05
0.000103113
0.000199839
0.000232352
0.000233184
0.000118747
0.000233184
0.000118733
0.000199854
0.000103106
4.22107e-05
4.22102e-05
0.000103113
6.73363e-05
6.73697e-05
0.000230919
6.73386e-05
6.73685e-05
2.38128e-05
2.38129e-05
2.3811e-05
2.38108e-05
0.000230908
6.73405e-05
6.73686e-05
6.73327e-05
6.73698e-05
2.38129e-05
2.38123e-05
0.000199856
0.000233184
0.000118723
0.000232352
0.000199842
0.000233184
0.000118739
0.000103122
4.22101e-05
0.000103119
4.22105e-05
0.000103123
4.22096e-05
0.00010312
4.221e-05
0.000199842
0.000232353
0.000233185
0.00011875
0.000233185
0.000118735
0.000199855
0.000199841
0.000232352
0.000233184
0.000118739
0.000233184
0.000118723
0.000199856
0.000103118
4.22104e-05
4.221e-05
0.000103122
0.000103119
4.221e-05
4.22095e-05
0.000103123
2.38126e-05
2.38128e-05
2.38119e-05
2.38121e-05
0.000230909
6.73696e-05
6.73568e-05
6.73716e-05
6.73589e-05
2.38128e-05
2.38122e-05
2.38121e-05
2.38115e-05
2.3813e-05
2.38131e-05
2.38121e-05
2.38124e-05
6.73505e-05
6.73586e-05
0.000230919
6.73549e-05
6.7357e-05
2.38132e-05
2.38126e-05
2.38123e-05
2.38118e-05
0.000230908
6.73573e-05
6.7357e-05
6.73489e-05
6.73586e-05
0.000103113
4.2213e-05
0.000103108
4.22135e-05
0.000199854
0.000118722
0.000233184
0.000232352
0.000199839
0.000118739
0.000233184
0.000199853
0.000118729
0.000233184
0.000232352
0.00019984
0.000118744
0.000233184
0.000103109
4.22131e-05
4.22128e-05
0.000103115
0.000103108
4.22134e-05
4.2213e-05
0.000103114
0.000199842
0.000232352
0.00011874
0.000233184
0.000118723
0.000233184
0.000199853
0.000199839
0.000232352
0.000118744
0.000233184
0.000118729
0.000233184
0.000199853
6.73605e-05
6.73518e-05
0.00023092
6.73593e-05
6.7356e-05
2.38132e-05
2.38134e-05
2.3813e-05
2.38127e-05
0.000230908
6.73595e-05
6.73582e-05
6.73606e-05
6.735e-05
2.38135e-05
2.38129e-05
0.000199857
0.000118724
0.000233184
0.000232352
0.000199843
0.000118739
0.000233184
0.00010312
4.22081e-05
0.000103118
4.22086e-05
0.000199852
0.000233184
0.000118705
0.000232351
0.000199839
0.000233184
0.000118722
0.000103123
4.22107e-05
4.22103e-05
0.000103127
0.000199844
0.000232353
0.000118739
0.000233184
0.000118724
0.000233185
0.000199857
0.000103117
4.22085e-05
4.22081e-05
0.000103121
0.000199839
0.000232351
0.000233184
0.000118722
0.000233184
0.000118705
0.000199853
0.000103112
4.22119e-05
0.000103107
4.22125e-05
0.000199853
0.000233184
0.000118732
0.000232352
0.000199841
0.000233184
0.000118748
0.000103112
4.22103e-05
0.000103107
4.22107e-05
0.00019984
0.000232353
0.000118745
0.000233184
0.000118727
0.000233185
0.000199853
0.000103107
4.22124e-05
4.2212e-05
0.000103114
0.000199839
0.000232352
0.000233184