/*--------------------------------*- C++ -*----------------------------------*\
| =========                 |                                                 |
| \\      /  F ield         | OpenFOAM: The Open Source CFD Toolbox           |
|  \\    /   O peration     | Version:  2206                                  |
|   \\  /    A nd           | Website:  www.openfoam.com                      |
|    \\/     M anipulation  |                                                 |
\*---------------------------------------------------------------------------*/
FoamFile
{
    version     2.0;
    format      ascii;
    arch        "LSB;label=32;scalar=64";
    class       volScalarField;
    location    "36";
    object      p;
}
// * * * * * * * * * * * * * * * * * * * * * * * * * * * * * * * * * * * * * //

dimensions      [0 2 -2 0 0 0 0];

internalField   nonuniform List<scalar> 
28448
(
0.00117212
0.00117208
0.00117208
0.00117448
0.0011317
0.00113166
0.00113166
0.00113406
0.00109128
0.00109124
0.00109124
0.00109364
0.00105087
0.00105083
0.00105083
0.00105322
0.00101045
0.00101041
0.00101041
0.00101281
0.000970037
0.000969997
0.000969997
0.000972393
0.000929621
0.000929581
0.000929581
0.000931977
0.000889199
0.000889158
0.000889158
0.000891554
0.000848777
0.000848737
0.000848737
0.000851132
0.000808363
0.000808323
0.000808323
0.000810719
0.000767952
0.000767912
0.000767912
0.000770308
0.000727541
0.000727501
0.000727501
0.000729897
0.000687129
0.00068709
0.000687089
0.000689485
0.000646717
0.000646677
0.000646677
0.000649073
0.000606303
0.000606263
0.000606263
0.000608659
0.000565889
0.000565849
0.000565849
0.000568245
0.000525475
0.000525435
0.000525435
0.000527831
0.000485061
0.000485021
0.0011798
0.00118219
0.00118219
0.0011798
0.00118219
0.00118219
0.00118219
0.00118219
0.0011798
0.00118219
0.00118219
0.0011798
0.00117448
0.00113938
0.00117208
0.00117208
0.00114177
0.00114177
0.00117448
0.00113938
0.00117208
0.00117208
0.00114177
0.00114177
0.00117208
0.00114177
0.00114177
0.00117448
0.00113938
0.00117208
0.00114177
0.00114177
0.00113938
0.00113406
0.00109896
0.00113166
0.00113166
0.00110135
0.00110135
0.00113406
0.00109896
0.00113166
0.00113166
0.00110135
0.00110135
0.00113166
0.00110135
0.00110135
0.00113406
0.00109896
0.00113166
0.00110135
0.00110135
0.00109896
0.00109364
0.00105854
0.00109124
0.00109124
0.00106093
0.00106093
0.00109364
0.00105854
0.00109124
0.00109124
0.00106093
0.00106093
0.00109124
0.00106093
0.00106093
0.00109364
0.00105854
0.00109124
0.00106093
0.00106093
0.00105854
0.00105322
0.00101813
0.00105083
0.00105083
0.00102052
0.00102052
0.00105322
0.00101813
0.00105083
0.00105083
0.00102052
0.00102052
0.00105083
0.00102052
0.00102052
0.00105322
0.00101813
0.00105083
0.00102052
0.00102052
0.00101813
0.00101281
0.000977713
0.00101041
0.00101041
0.000980101
0.000980101
0.00101281
0.000977713
0.00101041
0.00101041
0.0009801
0.000980101
0.00101041
0.000980101
0.000980101
0.00101281
0.000977713
0.00101041
0.000980101
0.000980101
0.000977713
0.000972392
0.000937298
0.000969997
0.000969997
0.000939686
0.000939686
0.000972392
0.000937298
0.000969997
0.000969997
0.000939686
0.000939686
0.000969997
0.000939686
0.000939686
0.000972393
0.000937298
0.000969997
0.000939686
0.000939686
0.000937298
0.000931977
0.000896877
0.000929582
0.000929581
0.000899265
0.000899265
0.000931977
0.000896876
0.000929581
0.000929581
0.000899265
0.000899264
0.000929581
0.000899265
0.000899264
0.000931977
0.000896875
0.000929581
0.000899264
0.000899264
0.000896875
0.000891555
0.000856453
0.000889159
0.000889159
0.000858841
0.000858841
0.000891555
0.000856453
0.000889159
0.000889158
0.000858841
0.000858841
0.000889158
0.000858841
0.000858841
0.000891554
0.000856453
0.000889158
0.000858841
0.000858841
0.000856453
0.000851132
0.000816038
0.000848737
0.000848737
0.000818426
0.000818426
0.000851132
0.000816039
0.000848737
0.000848737
0.000818426
0.000818426
0.000848737
0.000818426
0.000818427
0.000851132
0.000816039
0.000848737
0.000818426
0.000818427
0.000816039
0.000810719
0.000775627
0.000808323
0.000808323
0.000778015
0.000778015
0.000810719
0.000775627
0.000808323
0.000808323
0.000778015
0.000778015
0.000808324
0.000778015
0.000778015
0.000810719
0.000775627
0.000808324
0.000778015
0.000778015
0.000775627
0.000770308
0.000735217
0.000767912
0.000767912
0.000737604
0.000737604
0.000770308
0.000735217
0.000767912
0.000767912
0.000737604
0.000737604
0.000767913
0.000737604
0.000737604
0.000770308
0.000735216
0.000767912
0.000737604
0.000737604
0.000735216
0.000729897
0.000694805
0.000727502
0.000727501
0.000697193
0.000697193
0.000729897
0.000694805
0.000727501
0.000727501
0.000697192
0.000697193
0.000727502
0.000697193
0.000697193
0.000729897
0.000694805
0.000727501
0.000697193
0.000697193
0.000694805
0.000689485
0.000654392
0.00068709
0.00068709
0.00065678
0.00065678
0.000689485
0.000654393
0.000687089
0.00068709
0.00065678
0.00065678
0.00068709
0.00065678
0.00065678
0.000689485
0.000654392
0.00068709
0.00065678
0.00065678
0.000654393
0.000649072
0.000613979
0.000646677
0.000646677
0.000616367
0.000616367
0.000649073
0.000613979
0.000646677
0.000646677
0.000616367
0.000616367
0.000646677
0.000616367
0.000616367
0.000649073
0.000613979
0.000646677
0.000616367
0.000616367
0.000613979
0.000608659
0.000573565
0.000606263
0.000606263
0.000575953
0.000575953
0.000608659
0.000573565
0.000606263
0.000606263
0.000575953
0.000575953
0.000606263
0.000575953
0.000575953
0.000608659
0.000573565
0.000606263
0.000575953
0.000575953
0.000573565
0.000568245
0.000533151
0.00056585
0.000565849
0.000535539
0.000535539
0.000568245
0.000533151
0.000565849
0.000565849
0.000535539
0.000535539
0.00056585
0.000535539
0.000535539
0.000568245
0.000533151
0.000565849
0.000535539
0.000535539
0.000533151
0.000527831
0.000492737
0.000525436
0.000525435
0.000495125
0.000527831
0.000525435
0.000525435
0.000495125
0.000495125
0.000525436
0.000495125
0.000527831
0.000492737
0.000525435
0.000495125
0.000495125
0.000492737
0.000487417
0.000485021
0.000485021
0.000487417
0.00118223
0.00118223
0.00118223
0.00118223
0.00115948
0.00117461
0.00117461
0.00115948
0.00117461
0.00115948
0.00115948
0.00117461
0.00117461
0.00115948
0.00117212
0.00117212
0.00117212
0.00114181
0.00114181
0.00114181
0.00114181
0.00115953
0.00117458
0.00117209
0.00116198
0.00117457
0.00115951
0.00116199
0.00117461
0.00115948
0.00115953
0.00117209
0.00117458
0.00116198
0.00117457
0.00116199
0.00115951
0.00117461
0.00117461
0.00115959
0.00115948
0.00115948
0.00111906
0.00113419
0.00113419
0.00111906
0.00113419
0.00111906
0.00111906
0.00113419
0.00113419
0.00111906
0.0011317
0.0011317
0.0011317
0.00110139
0.00110139
0.00110139
0.00110139
0.00111911
0.00113416
0.00113167
0.00112156
0.00113415
0.00111909
0.00112157
0.00113419
0.00111906
0.00111911
0.00113167
0.00113416
0.00112156
0.00113415
0.00112157
0.00111909
0.00113419
0.00113419
0.00111917
0.00111906
0.00111906
0.00107865
0.00109377
0.00109377
0.00107865
0.00109377
0.00107865
0.00107864
0.00109377
0.00109377
0.00107865
0.00109128
0.00109128
0.00109128
0.00106097
0.00106097
0.00106097
0.00106097
0.00107869
0.00109374
0.00109125
0.00108114
0.00109373
0.00107868
0.00108115
0.00109377
0.00107864
0.00107869
0.00109125
0.00109374
0.00108114
0.00109373
0.00108115
0.00107868
0.00109378
0.00109378
0.00107875
0.00107864
0.00107864
0.00103823
0.00105336
0.00105336
0.00103823
0.00105336
0.00103823
0.00103823
0.00105336
0.00105336
0.00103823
0.00105087
0.00105087
0.00105087
0.00102056
0.00102056
0.00102056
0.00102056
0.00103828
0.00105332
0.00105084
0.00104072
0.00105332
0.00103826
0.00104073
0.00105336
0.00103823
0.00103828
0.00105084
0.00105332
0.00104072
0.00105331
0.00104073
0.00103826
0.00105336
0.00105336
0.00103834
0.00103823
0.00103823
0.000997814
0.00101294
0.00101294
0.000997815
0.00101294
0.000997814
0.000997814
0.00101294
0.00101294
0.000997815
0.00101045
0.00101045
0.00101045
0.000980141
0.000980141
0.000980141
0.000980141
0.000997863
0.00101291
0.00101042
0.00100031
0.0010129
0.000997846
0.00100032
0.00101294
0.000997815
0.000997864
0.00101042
0.00101291
0.00100031
0.0010129
0.00100032
0.000997847
0.00101295
0.00101294
0.000997921
0.000997811
0.000997811
0.0009574
0.000972525
0.000972528
0.0009574
0.000972526
0.000957399
0.0009574
0.000972525
0.000972528
0.000957401
0.000970037
0.000970037
0.000970037
0.000939725
0.000939725
0.000939725
0.000939725
0.000957448
0.000972493
0.000970006
0.000959893
0.000972485
0.000957431
0.000959903
0.000972527
0.000957401
0.000957449
0.000970007
0.000972493
0.000959894
0.000972486
0.000959903
0.000957433
0.00097253
0.000972531
0.000957506
0.000957397
0.000957398
0.000916984
0.000932111
0.000932114
0.000916985
0.000932112
0.000916984
0.000916984
0.000932111
0.000932114
0.000916985
0.000929621
0.000929621
0.000929621
0.000899305
0.000899305
0.000899304
0.000899304
0.000917031
0.000932079
0.00092959
0.000919476
0.00093207
0.000917016
0.000919485
0.000932113
0.000916983
0.000917031
0.00092959
0.000932079
0.000919476
0.00093207
0.000919485
0.000917015
0.000932117
0.000932117
0.000917088
0.00091698
0.00091698
0.000876558
0.000891688
0.000891693
0.000876559
0.000891689
0.000876557
0.000876557
0.000891687
0.000891692
0.000876558
0.000889198
0.000889198
0.000889197
0.000858881
0.000858881
0.000858881
0.000858881
0.000876605
0.000891655
0.000889168
0.000879052
0.000891646
0.000876589
0.000879061
0.000891688
0.000876556
0.000876605
0.000889167
0.000891654
0.000879052
0.000891645
0.000879061
0.000876589
0.000891691
0.000891691
0.000876663
0.000876553
0.000876553
0.000836138
0.000851264
0.000851267
0.00083614
0.000851265
0.000836139
0.000836139
0.000851264
0.000851268
0.00083614
0.000848777
0.000848777
0.000848777
0.000818466
0.000818466
0.000818467
0.000818466
0.000836187
0.000851232
0.000848746
0.000838633
0.000851224
0.00083617
0.000838642
0.000851266
0.000836139
0.000836187
0.000848746
0.000851232
0.000838633
0.000851224
0.000838643
0.000836171
0.00085127
0.00085127
0.000836245
0.000836136
0.000836136
0.000795727
0.000810851
0.000810854
0.000795728
0.000810852
0.000795727
0.000795727
0.000810851
0.000810855
0.000795728
0.000808363
0.000808363
0.000808363
0.000778055
0.000778055
0.000778055
0.000778055
0.000795775
0.000810819
0.000808333
0.000798221
0.000810811
0.000795759
0.00079823
0.000810853
0.000795727
0.000795775
0.000808333
0.000810819
0.000798221
0.000810811
0.00079823
0.000795759
0.000810857
0.000810857
0.000795833
0.000795724
0.000795724
0.000755316
0.00077044
0.000770444
0.000755317
0.000770441
0.000755316
0.000755316
0.00077044
0.000770444
0.000755317
0.000767952
0.000767952
0.000767952
0.000737644
0.000737644
0.000737644
0.000737644
0.000755364
0.000770408
0.000767922
0.00075781
0.0007704
0.000755348
0.000757819
0.000770442
0.000755316
0.000755365
0.000767922
0.000770408
0.00075781
0.0007704
0.000757819
0.000755348
0.000770446
0.000770446
0.000755422
0.000755313
0.000755313
0.000714905
0.000730029
0.000730033
0.000714906
0.000730031
0.000714905
0.000714905
0.000730029
0.000730033
0.000714906
0.000727541
0.000727541
0.000727541
0.000697232
0.000697232
0.000697232
0.000697232
0.000714953
0.000729997
0.000727511
0.000717399
0.000729989
0.000714937
0.000717408
0.000730031
0.000714905
0.000714953
0.000727511
0.000729997
0.000717399
0.000729989
0.000717408
0.000714937
0.000730035
0.000730035
0.000715011
0.000714902
0.000714902
0.000674493
0.000689617
0.000689621
0.000674494
0.000689619
0.000674493
0.000674493
0.000689617
0.000689621
0.000674494
0.000687129
0.000687129
0.000687129
0.00065682
0.00065682
0.00065682
0.00065682
0.000674541
0.000689585
0.000687099
0.000676987
0.000689577
0.000674525
0.000676996
0.000689619
0.000674493
0.000674541
0.000687099
0.000689585
0.000676986
0.000689577
0.000676996
0.000674525
0.000689623
0.000689623
0.000674599
0.00067449
0.00067449
0.00063408
0.000649205
0.000649208
0.000634081
0.000649206
0.00063408
0.00063408
0.000649205
0.000649209
0.000634081
0.000646717
0.000646717
0.000646717
0.000616407
0.000616407
0.000616407
0.000616406
0.000634128
0.000649173
0.000646686
0.000636574
0.000649165
0.000634112
0.000636583
0.000649206
0.00063408
0.000634128
0.000646686
0.000649173
0.000636574
0.000649164
0.000636583
0.000634112
0.000649211
0.000649211
0.000634186
0.000634077
0.000634077
0.000593666
0.000608791
0.000608795
0.000593667
0.000608792
0.000593666
0.000593666
0.000608791
0.000608795
0.000593667
0.000606303
0.000606303
0.000606303
0.000575993
0.000575993
0.000575993
0.000575993
0.000593714
0.000608759
0.000606273
0.00059616
0.000608751
0.000593698
0.000596169
0.000608793
0.000593666
0.000593714
0.000606273
0.000608759
0.00059616
0.000608751
0.000596169
0.000593698
0.000608796
0.000608797
0.000593772
0.000593663
0.000593663
0.000553252
0.000568377
0.000568381
0.000553253
0.000568379
0.000553252
0.000553252
0.000568377
0.000568381
0.000553254
0.000565889
0.000565889
0.000565889
0.000535579
0.000535579
0.000535579
0.000535579
0.0005533
0.000568345
0.000565859
0.000555746
0.000568337
0.000553284
0.000555755
0.000568379
0.000553252
0.000553301
0.000565859
0.000568345
0.000555746
0.000568337
0.000555755
0.000553284
0.000568383
0.000568383
0.000553358
0.000553249
0.000553249
0.000512838
0.000527963
0.000527967
0.000512839
0.000527965
0.000512838
0.000512838
0.000527963
0.000527967
0.000512839
0.000525475
0.000525475
0.000525475
0.000495165
0.000495165
0.000495165
0.000495165
0.000512886
0.000527931
0.000525445
0.000515332
0.000527923
0.00051287
0.000515341
0.000527965
0.000512838
0.000512886
0.000525445
0.000527931
0.000515332
0.000527923
0.000515341
0.00051287
0.000527969
0.000527969
0.000512944
0.000512835
0.000512835
0.000487549
0.000487553
0.000485061
0.000487551
0.000487517
0.00117969
0.00117969
0.00117969
0.00117969
0.00117969
0.00117969
0.00117969
0.00117969
0.00117972
0.0011822
0.00117974
0.00117972
0.0011822
0.00117974
0.00117969
0.00117969
0.00117969
0.00117969
0.00117969
0.00117969
0.00117972
0.0011822
0.00117974
0.00119482
0.00117969
0.00119482
0.00117969
0.00119478
0.00119229
0.0011822
0.00117972
0.0011923
0.00119479
0.00117974
0.00119478
0.00117972
0.0011822
0.0011923
0.00117974
0.00119482
0.00117969
0.00117969
0.00119478
0.00119229
0.0011822
0.00117972
0.0011923
0.00119479
0.00117974
0.00119482
0.00117969
0.00119482
0.00117969
0.00117969
0.00119482
0.00119469
0.00117969
0.00117969
0.00119483
0.00119483
0.00117969
0.00119482
0.00119478
0.00119229
0.0011822
0.00117972
0.0011923
0.00119479
0.00117974
0.00119478
0.00119229
0.0011822
0.00117972
0.0011923
0.00119479
0.00117974
0.00119482
0.00117969
0.00119482
0.00117969
0.00119482
0.00117969
0.00119482
0.00117969
0.00119469
0.00117969
0.00117969
0.00119483
0.00119483
0.00117969
0.00119482
0.00117969
0.00119482
0.00117461
0.00115948
0.00117461
0.00115948
0.00117462
0.00117462
0.00115959
0.00115948
0.00115948
0.00113927
0.0011544
0.00113927
0.0011544
0.00115427
0.00113927
0.00113927
0.0011544
0.0011544
0.00115948
0.00117461
0.00117461
0.00115948
0.00115953
0.00117458
0.00117209
0.00116198
0.00117457
0.00115951
0.00116199
0.00115953
0.00117458
0.00117209
0.00116198
0.00117457
0.00115951
0.00116199
0.0011544
0.00113927
0.0011544
0.00113927
0.0011544
0.00113927
0.0011544
0.00113927
0.00115436
0.00115187
0.0011393
0.00114178
0.00115437
0.00115188
0.00113932
0.00115436
0.00115187
0.0011393
0.00114178
0.00115437
0.00115188
0.00113932
0.00117462
0.00117461
0.00115959
0.00115948
0.00115948
0.00117461
0.00115948
0.00113927
0.0011544
0.00115427
0.00113927
0.00113927
0.0011544
0.0011544
0.00113927
0.0011544
0.00115953
0.00117458
0.00117209
0.00116198
0.00117457
0.00115951
0.00116199
0.00115948
0.00117461
0.00117461
0.00115948
0.00115953
0.00117209
0.00117458
0.00116198
0.00117457
0.00116199
0.00115951
0.0011544
0.00113927
0.0011544
0.00113927
0.00115436
0.00115187
0.0011393
0.00114178
0.00115437
0.00115188
0.00113932
0.0011544
0.00113927
0.0011544
0.00113927
0.00115436
0.00115187
0.00114178
0.0011393
0.00115188
0.00115437
0.00113932
0.00115948
0.00117461
0.00117461
0.00115948
0.00115953
0.00117209
0.00117458
0.00116198
0.00117457
0.00116199
0.00115951
0.00115948
0.00117461
0.00117461
0.00115948
0.00115436
0.00115187
0.0011393
0.00114178
0.00115437
0.00115188
0.00113932
0.0011544
0.00113927
0.0011544
0.00113927
0.00115436
0.00115187
0.00114178
0.0011393
0.00115188
0.00115437
0.00113932
0.0011544
0.00113927
0.0011544
0.00113927
0.00117461
0.00117461
0.00115959
0.00115948
0.00115948
0.00117461
0.00115948
0.00113927
0.0011544
0.00115427
0.00113927
0.00113927
0.0011544
0.0011544
0.00113927
0.0011544
0.00115953
0.00117209
0.00117458
0.00116198
0.00117457
0.00116199
0.00115951
0.00115948
0.00117461
0.00117461
0.00115948
0.00115948
0.00117461
0.00117461
0.00115948
0.00115436
0.00115187
0.00114178
0.0011393
0.00115188
0.00115437
0.00113932
0.00115436
0.00115187
0.00114178
0.0011393
0.00115188
0.00115437
0.00113932
0.0011544
0.00113927
0.0011544
0.00113927
0.0011544
0.00113927
0.0011544
0.00113927
0.00117461
0.00115948
0.00117461
0.00115948
0.00115427
0.00113927
0.00113927
0.0011544
0.0011544
0.00113927
0.0011544
0.00113927
0.0011544
0.00113419
0.00111906
0.00113419
0.00111906
0.00113419
0.00113419
0.00111917
0.00111906
0.00111906
0.00109885
0.00111398
0.00109885
0.00111398
0.00111385
0.00109885
0.00109885
0.00111399
0.00111399
0.00111906
0.00113419
0.00113419
0.00111906
0.00111911
0.00113416
0.00113167
0.00112156
0.00113415
0.00111909
0.00112157
0.00111911
0.00113416
0.00113167
0.00112156
0.00113415
0.00111909
0.00112157
0.00111398
0.00109885
0.00111398
0.00109885
0.00111398
0.00109885
0.00111398
0.00109885
0.00111394
0.00111145
0.00109889
0.00110136
0.00111395
0.00111146
0.0010989
0.00111394
0.00111145
0.00109889
0.00110136
0.00111395
0.00111146
0.0010989
0.00113419
0.00113419
0.00111917
0.00111906
0.00111906
0.00113419
0.00111906
0.00109885
0.00111398
0.00111385
0.00109885
0.00109885
0.00111399
0.00111399
0.00109885
0.00111398
0.00111911
0.00113416
0.00113167
0.00112156
0.00113415
0.00111909
0.00112157
0.00111906
0.00113419
0.00113419
0.00111906
0.00111911
0.00113167
0.00113416
0.00112156
0.00113415
0.00112157
0.00111909
0.00111398
0.00109885
0.00111398
0.00109885
0.00111394
0.00111145
0.00109889
0.00110136
0.00111395
0.00111146
0.0010989
0.00111398
0.00109885
0.00111398
0.00109885
0.00111394
0.00111145
0.00110136
0.00109889
0.00111146
0.00111395
0.0010989
0.00111906
0.00113419
0.00113419
0.00111906
0.00111911
0.00113167
0.00113416
0.00112156
0.00113415
0.00112157
0.00111909
0.00111906
0.00113419
0.00113419
0.00111906
0.00111394
0.00111145
0.00109889
0.00110136
0.00111395
0.00111146
0.0010989
0.00111398
0.00109885
0.00111398
0.00109885
0.00111394
0.00111145
0.00110136
0.00109889
0.00111146
0.00111395
0.0010989
0.00111398
0.00109885
0.00111398
0.00109885
0.00113419
0.00113419
0.00111917
0.00111906
0.00111906
0.00113419
0.00111906
0.00109885
0.00111398
0.00111385
0.00109885
0.00109885
0.00111399
0.00111399
0.00109885
0.00111398
0.00111911
0.00113167
0.00113416
0.00112156
0.00113415
0.00112157
0.00111909
0.00111906
0.00113419
0.00113419
0.00111906
0.00111906
0.00113419
0.00113419
0.00111906
0.00111394
0.00111145
0.00110136
0.00109889
0.00111146
0.00111395
0.0010989
0.00111394
0.00111145
0.00110136
0.00109889
0.00111146
0.00111395
0.0010989
0.00111398
0.00109885
0.00111398
0.00109885
0.00111398
0.00109885
0.00111398
0.00109885
0.00113419
0.00111906
0.00113419
0.00111906
0.00111385
0.00109885
0.00109885
0.00111399
0.00111399
0.00109885
0.00111398
0.00109885
0.00111398
0.00109377
0.00107865
0.00109377
0.00107865
0.00109378
0.00109378
0.00107875
0.00107864
0.00107864
0.00105844
0.00107356
0.00105844
0.00107356
0.00107343
0.00105843
0.00105843
0.00107357
0.00107357
0.00107865
0.00109377
0.00109377
0.00107865
0.00107869
0.00109374
0.00109125
0.00108114
0.00109373
0.00107868
0.00108115
0.00107869
0.00109374
0.00109125
0.00108114
0.00109373
0.00107868
0.00108115
0.00107357
0.00105844
0.00107356
0.00105844
0.00107357
0.00105844
0.00107356
0.00105844
0.00107352
0.00107104
0.00105847
0.00106094
0.00107353
0.00107104
0.00105849
0.00107352
0.00107104
0.00105847
0.00106094
0.00107353
0.00107104
0.00105849
0.00109378
0.00109378
0.00107875
0.00107864
0.00107864
0.00109377
0.00107865
0.00105844
0.00107356
0.00107343
0.00105843
0.00105843
0.00107357
0.00107357
0.00105844
0.00107357
0.00107869
0.00109374
0.00109125
0.00108114
0.00109373
0.00107868
0.00108115
0.00107864
0.00109377
0.00109377
0.00107865
0.00107869
0.00109125
0.00109374
0.00108114
0.00109373
0.00108115
0.00107868
0.00107357
0.00105844
0.00107356
0.00105844
0.00107352
0.00107104
0.00105847
0.00106094
0.00107353
0.00107104
0.00105849
0.00107357
0.00105844
0.00107356
0.00105844
0.00107352
0.00107104
0.00106094
0.00105847
0.00107104
0.00107353
0.00105849
0.00107865
0.00109377
0.00109378
0.00107865
0.00107869
0.00109125
0.00109374
0.00108114
0.00109373
0.00108115
0.00107868
0.00107865
0.00109377
0.00109378
0.00107865
0.00107352
0.00107104
0.00105847
0.00106094
0.00107353
0.00107104
0.00105849
0.00107357
0.00105844
0.00107356
0.00105844
0.00107352
0.00107104
0.00106094
0.00105847
0.00107105
0.00107353
0.00105849
0.00107357
0.00105844
0.00107356
0.00105844
0.00109378
0.00109378
0.00107875
0.00107864
0.00107864
0.00109377
0.00107865
0.00105844
0.00107356
0.00107343
0.00105843
0.00105843
0.00107357
0.00107357
0.00105844
0.00107356
0.00107869
0.00109125
0.00109374
0.00108114
0.00109373
0.00108115
0.00107868
0.00107865
0.00109377
0.00109378
0.00107865
0.00107864
0.00109377
0.00109378
0.00107865
0.00107352
0.00107104
0.00106094
0.00105847
0.00107104
0.00107353
0.00105848
0.00107352
0.00107104
0.00106094
0.00105847
0.00107104
0.00107353
0.00105848
0.00107357
0.00105844
0.00107356
0.00105844
0.00107357
0.00105844
0.00107356
0.00105844
0.00109377
0.00107865
0.00109377
0.00107865
0.00107343
0.00105843
0.00105843
0.00107357
0.00107357
0.00105844
0.00107356
0.00105844
0.00107356
0.00105336
0.00103823
0.00105336
0.00103823
0.00105336
0.00105336
0.00103834
0.00103823
0.00103823
0.00101802
0.00103315
0.00101802
0.00103315
0.00103302
0.00101802
0.00101802
0.00103315
0.00103315
0.00103823
0.00105336
0.00105336
0.00103823
0.00103828
0.00105332
0.00105084
0.00104072
0.00105332
0.00103826
0.00104073
0.00103828
0.00105332
0.00105084
0.00104072
0.00105332
0.00103826
0.00104073
0.00103315
0.00101802
0.00103315
0.00101802
0.00103315
0.00101802
0.00103315
0.00101802
0.00103311
0.00103062
0.00101805
0.00102053
0.00103312
0.00103063
0.00101807
0.00103311
0.00103062
0.00101805
0.00102053
0.00103312
0.00103063
0.00101807
0.00105336
0.00105336
0.00103834
0.00103823
0.00103823
0.00105336
0.00103823
0.00101802
0.00103315
0.00103302
0.00101802
0.00101802
0.00103315
0.00103315
0.00101802
0.00103315
0.00103828
0.00105332
0.00105084
0.00104072
0.00105331
0.00103826
0.00104073
0.00103823
0.00105335
0.00105336
0.00103823
0.00103828
0.00105084
0.00105332
0.00104072
0.00105331
0.00104073
0.00103826
0.00103315
0.00101802
0.00103315
0.00101802
0.00103311
0.00103062
0.00101805
0.00102053
0.00103312
0.00103063
0.00101807
0.00103315
0.00101802
0.00103315
0.00101802
0.00103311
0.00103062
0.00102053
0.00101805
0.00103063
0.00103312
0.00101807
0.00103823
0.00105336
0.00105336
0.00103823
0.00103828
0.00105084
0.00105332
0.00104072
0.00105332
0.00104073
0.00103826
0.00103823
0.00105336
0.00105336
0.00103823
0.00103311
0.00103062
0.00101805
0.00102053
0.00103312
0.00103063
0.00101807
0.00103315
0.00101802
0.00103315
0.00101802
0.00103311
0.00103062
0.00102053
0.00101805
0.00103063
0.00103312
0.00101807
0.00103315
0.00101802
0.00103315
0.00101802
0.00105336
0.00105336
0.00103834
0.00103823
0.00103823
0.00105336
0.00103823
0.00101802
0.00103315
0.00103301
0.00101802
0.00101802
0.00103315
0.00103315
0.00101802
0.00103315
0.00103828
0.00105084
0.00105332
0.00104072
0.00105331
0.00104073
0.00103826
0.00103823
0.00105335
0.00105336
0.00103823
0.00103823
0.00105335
0.00105336
0.00103823
0.00103311
0.00103062
0.00102052
0.00101805
0.00103063
0.00103311
0.00101807
0.00103311
0.00103062
0.00102052
0.00101805
0.00103063
0.00103311
0.00101807
0.00103315
0.00101802
0.00103315
0.00101802
0.00103315
0.00101802
0.00103315
0.00101802
0.00105336
0.00103823
0.00105336
0.00103823
0.00103302
0.00101802
0.00101802
0.00103315
0.00103315
0.00101802
0.00103315
0.00101802
0.00103315
0.00101294
0.000997814
0.00101294
0.000997814
0.00101295
0.00101295
0.00099792
0.000997811
0.000997811
0.000977607
0.000992733
0.000977607
0.000992734
0.0009926
0.000977603
0.000977603
0.000992738
0.000992738
0.000997814
0.00101294
0.00101294
0.000997815
0.000997862
0.00101291
0.00101042
0.00100031
0.0010129
0.000997846
0.00100032
0.000997862
0.00101291
0.00101042
0.00100031
0.0010129
0.000997846
0.00100032
0.000992736
0.000977608
0.000992732
0.000977606
0.000992736
0.000977608
0.000992732
0.000977607
0.000992692
0.000990204
0.000977638
0.00098011
0.0009927
0.000990214
0.000977655
0.000992692
0.000990204
0.000977638
0.00098011
0.0009927
0.000990214
0.000977655
0.00101295
0.00101295
0.00099792
0.000997811
0.000997811
0.00101294
0.000997814
0.000977607
0.000992734
0.0009926
0.000977603
0.000977604
0.000992738
0.000992737
0.000977607
0.000992734
0.000997863
0.00101291
0.00101042
0.00100031
0.0010129
0.000997846
0.00100032
0.000997814
0.00101294
0.00101294
0.000997816
0.000997863
0.00101042
0.00101291
0.00100031
0.0010129
0.00100032
0.000997847
0.000992736
0.000977608
0.000992732
0.000977607
0.000992692
0.000990204
0.000977639
0.00098011
0.0009927
0.000990214
0.000977655
0.000992736
0.000977608
0.000992733
0.000977606
0.000992692
0.000990205
0.00098011
0.000977639
0.000990214
0.0009927
0.000977655
0.000997814
0.00101294
0.00101294
0.000997815
0.000997863
0.00101042
0.00101291
0.00100031
0.0010129
0.00100032
0.000997846
0.000997814
0.00101294
0.00101294
0.000997816
0.000992692
0.000990204
0.000977639
0.00098011
0.0009927
0.000990214
0.000977655
0.000992736
0.000977608
0.000992732
0.000977607
0.000992692
0.000990205
0.00098011
0.000977639
0.000990214
0.0009927
0.000977655
0.000992736
0.000977608
0.000992733
0.000977607
0.00101294
0.00101295
0.000997921
0.000997812
0.000997812
0.00101294
0.000997816
0.000977607
0.000992734
0.000992601
0.000977604
0.000977604
0.000992738
0.000992739
0.000977608
0.000992735
0.000997863
0.00101042
0.00101291
0.00100031
0.0010129
0.00100032
0.000997846
0.000997817
0.00101294
0.00101294
0.000997817
0.000997815
0.00101294
0.00101294
0.000997816
0.000992693
0.000990205
0.000980111
0.000977639
0.000990214
0.000992701
0.000977657
0.000992693
0.000990205
0.000980111
0.00097764
0.000990214
0.000992701
0.000977657
0.000992738
0.000977609
0.000992734
0.000977608
0.000992738
0.00097761
0.000992733
0.00097761
0.00101294
0.000997815
0.00101294
0.000997815
0.0009926
0.000977604
0.000977604
0.000992738
0.000992738
0.000977607
0.000992734
0.000977608
0.000992735
0.000972526
0.000957399
0.000972526
0.0009574
0.00097253
0.00097253
0.000957506
0.000957396
0.000957396
0.000937193
0.000952319
0.000937193
0.000952319
0.000952186
0.00093719
0.00093719
0.000952323
0.000952323
0.0009574
0.000972525
0.000972528
0.0009574
0.000957448
0.000972492
0.000970006
0.000959893
0.000972484
0.000957431
0.000959902
0.000957448
0.000972492
0.000970006
0.000959893
0.000972484
0.000957431
0.000959903
0.000952322
0.000937194
0.000952317
0.000937192
0.000952322
0.000937194
0.000952317
0.000937192
0.000952277
0.00094979
0.000937225
0.000939695
0.000952285
0.000949799
0.00093724
0.000952277
0.000949789
0.000937224
0.000939695
0.000952285
0.000949799
0.00093724
0.00097253
0.00097253
0.000957506
0.000957396
0.000957396
0.000972527
0.000957399
0.000937193
0.000952319
0.000952186
0.00093719
0.00093719
0.000952323
0.000952323
0.000937193
0.00095232
0.000957448
0.000972492
0.000970006
0.000959893
0.000972484
0.000957431
0.000959903
0.0009574
0.000972525
0.000972528
0.000957402
0.000957448
0.000970007
0.000972493
0.000959894
0.000972485
0.000959903
0.000957432
0.000952322
0.000937194
0.000952318
0.000937192
0.000952278
0.000949789
0.000937225
0.000939695
0.000952285
0.000949799
0.00093724
0.000952322
0.000937195
0.000952319
0.000937192
0.000952278
0.00094979
0.000939695
0.000937225
0.000949799
0.000952287
0.00093724
0.000957401
0.000972525
0.000972528
0.000957401
0.000957448
0.000970007
0.000972493
0.000959894
0.000972485
0.000959903
0.000957432
0.000957401
0.000972525
0.000972528
0.000957402
0.000952278
0.00094979
0.000937225
0.000939695
0.000952285
0.000949799
0.00093724
0.000952322
0.000937194
0.000952318
0.000937192
0.000952278
0.000949791
0.000939695
0.000937225
0.000949799
0.000952287
0.00093724
0.000952322
0.000937195
0.000952319
0.000937192
0.00097253
0.000972531
0.000957506
0.000957398
0.000957398
0.000972527
0.000957401
0.000937193
0.000952321
0.000952186
0.00093719
0.00093719
0.000952324
0.000952325
0.000937194
0.000952321
0.000957449
0.000970007
0.000972494
0.000959894
0.000972487
0.000959903
0.000957433
0.000957402
0.000972526
0.00097253
0.000957402
0.000957401
0.000972526
0.000972531
0.000957402
0.000952278
0.00094979
0.000939695
0.000937225
0.0009498
0.000952287
0.000937241
0.000952278
0.000949791
0.000939695
0.000937225
0.0009498
0.000952287
0.000937241
0.000952323
0.000937195
0.000952319
0.000937192
0.000952323
0.000937195
0.000952319
0.000937192
0.000972526
0.000957401
0.000972527
0.000957401
0.000952186
0.00093719
0.00093719
0.000952324
0.000952325
0.000937193
0.00095232
0.000937194
0.000952321
0.000932112
0.000916984
0.000932113
0.000916984
0.000932116
0.000932117
0.000917088
0.000916981
0.000916981
0.000896772
0.000911903
0.000896771
0.000911903
0.000911767
0.000896769
0.000896768
0.000911907
0.000911907
0.000916984
0.000932111
0.000932113
0.000916985
0.000917031
0.000932078
0.000929591
0.000919476
0.000932069
0.000917016
0.000919486
0.000917031
0.000932078
0.000929591
0.000919476
0.000932069
0.000917015
0.000919486
0.000911906
0.000896773
0.000911901
0.000896774
0.000911906
0.000896773
0.000911901
0.000896774
0.00091186
0.000909371
0.000896804
0.000899274
0.000911869
0.00090938
0.00089682
0.00091186
0.00090937
0.000896804
0.000899274
0.000911869
0.00090938
0.00089682
0.000932116
0.000932116
0.000917088
0.000916981