/*--------------------------------*- C++ -*----------------------------------*\
| =========                 |                                                 |
| \\      /  F ield         | OpenFOAM: The Open Source CFD Toolbox           |
|  \\    /   O peration     | Version:  2206                                  |
|   \\  /    A nd           | Website:  www.openfoam.com                      |
|    \\/     M anipulation  |                                                 |
\*---------------------------------------------------------------------------*/
FoamFile
{
    version     2.0;
    format      ascii;
    arch        "LSB;label=32;scalar=64";
    class       volScalarField;
    location    "34";
    object      p;
}
// * * * * * * * * * * * * * * * * * * * * * * * * * * * * * * * * * * * * * //

dimensions      [0 2 -2 0 0 0 0];

internalField   nonuniform List<scalar> 
171728
(
0.00390271
0.00390304
0.00390304
0.0039061
0.00384735
0.00384777
0.00384777
0.00385076
0.0037966
0.00379657
0.00379657
0.00379932
0.00374419
0.00374421
0.0037442
0.00374698
0.00369286
0.00369286
0.00369286
0.0036956
0.00364294
0.00364294
0.00364294
0.00364561
0.00359522
0.00359509
0.0035951
0.00359758
0.00355146
0.00355133
0.00355133
0.00355376
0.00351018
0.00351012
0.00351012
0.00351257
0.00346926
0.00346921
0.00346921
0.00347163
0.00342843
0.00342839
0.00342839
0.00343081
0.00338762
0.00338758
0.00338758
0.00339
0.00334681
0.00334677
0.00334677
0.00334919
0.003306
0.00330597
0.00330597
0.00330838
0.00326519
0.00326516
0.00326516
0.00326757
0.00322438
0.00322435
0.00322435
0.00322676
0.00318357
0.00318354
0.00318354
0.00318595
0.00314276
0.00314273
0.00314273
0.00314514
0.00310196
0.00310192
0.00310192
0.00310433
0.00306115
0.00306111
0.00306111
0.00306352
0.00302034
0.0030203
0.0030203
0.00302272
0.00297954
0.0029795
0.0029795
0.00298191
0.00293873
0.00293869
0.00293869
0.00294111
0.00289793
0.00289789
0.00289789
0.00290031
0.00285713
0.00285709
0.00285709
0.00285951
0.00281633
0.00281629
0.00281629
0.00281871
0.00277553
0.00277549
0.00277549
0.00277791
0.00273473
0.00273469
0.00273469
0.00273711
0.00269393
0.00269389
0.00269389
0.0026963
0.00265313
0.00265309
0.00265309
0.0026555
0.00261232
0.00261229
0.00261229
0.0026147
0.00257152
0.00257148
0.00257148
0.0025739
0.00253072
0.00253068
0.00253068
0.0025331
0.00248992
0.00248988
0.00248988
0.0024923
0.00244912
0.00244908
0.00244908
0.00245149
0.00240831
0.00240828
0.00240828
0.00241069
0.00236751
0.00236747
0.00236747
0.00236989
0.00232671
0.00232667
0.00232667
0.00232909
0.00228591
0.00228587
0.00228587
0.00228829
0.00224511
0.00224507
0.00224507
0.00224749
0.00220431
0.00220427
0.00220427
0.00220669
0.00216351
0.00216347
0.00216347
0.00216589
0.00212271
0.00212267
0.00212267
0.00212508
0.0020819
0.00208187
0.00208187
0.00208428
0.0020411
0.00204106
0.00204106
0.00204348
0.0020003
0.00200026
0.00200026
0.00200268
0.0019595
0.00195946
0.00195946
0.00196188
0.00191869
0.00191866
0.00191866
0.00192107
0.00187789
0.00187785
0.00187785
0.00188027
0.00183709
0.00183705
0.00183705
0.00183947
0.00179628
0.00179624
0.00179624
0.00179866
0.00175548
0.00175544
0.00175544
0.00175786
0.00171467
0.00171463
0.00171463
0.00171705
0.00167386
0.00167382
0.00167382
0.00167624
0.00163305
0.00163301
0.00163301
0.00163543
0.00159224
0.0015922
0.0015922
0.00159461
0.00155142
0.00155138
0.00155138
0.0015538
0.0015106
0.00151056
0.00151056
0.00151298
0.00146978
0.00146974
0.00146974
0.00147216
0.00142896
0.00142892
0.00142892
0.00143134
0.00138814
0.0013881
0.0013881
0.00139052
0.00134732
0.00134728
0.00134728
0.00134969
0.00130649
0.00130645
0.00130645
0.00130887
0.00126566
0.00126562
0.00126562
0.00126804
0.00122483
0.0012248
0.0012248
0.00122721
0.00118401
0.00118397
0.00118397
0.00118639
0.00114318
0.00114314
0.00114314
0.00114556
0.00110235
0.00110231
0.00110231
0.00110473
0.00106153
0.00106149
0.00106149
0.00106391
0.0010207
0.00102066
0.00102066
0.00102308
0.000979875
0.000979836
0.000979836
0.000982254
0.000939047
0.000939008
0.000939008
0.000941426
0.000898222
0.000898182
0.000898183
0.0009006
0.000857399
0.00085736
0.00085736
0.000859778
0.000816578
0.000816539
0.000816539
0.000818956
0.000775756
0.000775717
0.000775717
0.000778134
0.000734932
0.000734893
0.000734893
0.000737311
0.000694107
0.000694068
0.000694068
0.000696486
0.00065328
0.000653241
0.000653241
0.000655659
0.000612453
0.000612414
0.000612414
0.000614832
0.000571628
0.000571589
0.000571589
0.000574006
0.000530804
0.000530765
0.000530765
0.000533182
0.000489981
0.000489942
0.000489942
0.00049236
0.000449158
0.000449119
0.000449119
0.000451537
0.000408335
0.000408296
0.000408296
0.000410713
0.000367512
0.000367473
0.000367472
0.00036989
0.000326689
0.000326651
0.000326651
0.000329068
0.000285866
0.000285826
0.000285826
0.000288242
0.000245051
0.000245014
0.000245014
0.000247429
0.000204224
0.000204183
0.000204183
0.000206593
0.000163401
0.000163371
0.000163371
0.000165774
0.000122567
0.000122535
0.000122535
0.000124926
8.17366e-05
8.16928e-05
8.16913e-05
8.40554e-05
4.15898e-05
4.10379e-05
4.10348e-05
4.32636e-05
8.59907e-06
8.7521e-06
8.74953e-06
8.29677e-06
0.00391612
0.00391634
0.00391634
0.00391612
0.00391635
0.00391635
0.0039171
0.0039171
0.00391711
0.00391711
0.00391634
0.00391635
0.00391612
0.00391635
0.00391635
0.00391612
0.00390609
0.00385733
0.00390304
0.00390304
0.00385961
0.00385961
0.00390609
0.00385733
0.00390304
0.00390304
0.00385961
0.00385961
0.00390304
0.0038596
0.00385961
0.00390609
0.00385733
0.00390304
0.00385961
0.0038596
0.00385733
0.00385076
0.00380625
0.00384777
0.00384777
0.00380969
0.00380969
0.00385076
0.00380625
0.00384777
0.00384777
0.00380969
0.00380969
0.00384777
0.00380969
0.00380969
0.00385076
0.00380625
0.00384777
0.00380969
0.00380969
0.00380625
0.00379932
0.00375386
0.00379657
0.00379657
0.00375723
0.00375723
0.00379932
0.00375386
0.00379657
0.00379657
0.00375723
0.00375723
0.00379657
0.00375723
0.00375723
0.00379932
0.00375386
0.00379657
0.00375723
0.00375723
0.00375386
0.00374698
0.00370232
0.00374421
0.00374421
0.0037056
0.0037056
0.00374698
0.00370232
0.00374421
0.00374421
0.0037056
0.0037056
0.00374421
0.0037056
0.0037056
0.00374698
0.00370232
0.00374421
0.0037056
0.0037056
0.00370232
0.0036956
0.00365213
0.00369286
0.00369286
0.00365526
0.00365526
0.0036956
0.00365213
0.00369286
0.00369286
0.00365526
0.00365526
0.00369286
0.00365526
0.00365526
0.0036956
0.00365213
0.00369286
0.00365526
0.00365526
0.00365213
0.00364561
0.00360373
0.00364294
0.00364294
0.00360668
0.00360668
0.00364561
0.00360374
0.00364294
0.00364294
0.00360668
0.00360668
0.00364294
0.00360668
0.00360668
0.00364561
0.00360374
0.00364294
0.00360668
0.00360668
0.00360373
0.00359758
0.00355926
0.00359509
0.00359509
0.00356187
0.00356187
0.00359759
0.00355926
0.00359509
0.00359509
0.00356187
0.00356187
0.00359509
0.00356187
0.00356187
0.00359759
0.00355926
0.00359509
0.00356187
0.00356187
0.00355926
0.00355376
0.00351796
0.00355133
0.00355133
0.00352038
0.00352038
0.00355376
0.00351796
0.00355133
0.00355133
0.00352038
0.00352038
0.00355133
0.00352038
0.00352038
0.00355376
0.00351796
0.00355133
0.00352038
0.00352038
0.00351796
0.00351257
0.00347701
0.00351012
0.00351012
0.00347943
0.00347943
0.00351257
0.00347701
0.00351012
0.00351012
0.00347943
0.00347943
0.00351012
0.00347943
0.00347943
0.00351257
0.00347701
0.00351012
0.00347943
0.00347943
0.00347701
0.00347163
0.00343618
0.00346921
0.00346921
0.00343859
0.00343859
0.00347163
0.00343618
0.00346921
0.00346921
0.00343859
0.00343859
0.00346921
0.00343859
0.00343859
0.00347163
0.00343618
0.00346921
0.00343859
0.00343859
0.00343618
0.00343081
0.00339537
0.00342839
0.00342839
0.00339778
0.00339778
0.00343081
0.00339537
0.00342839
0.00342839
0.00339778
0.00339778
0.00342839
0.00339778
0.00339778
0.00343081
0.00339537
0.00342839
0.00339778
0.00339778
0.00339537
0.00339
0.00335457
0.00338758
0.00338758
0.00335698
0.00335697
0.00339
0.00335457
0.00338758
0.00338758
0.00335698
0.00335698
0.00338758
0.00335698
0.00335698
0.00339
0.00335457
0.00338758
0.00335698
0.00335698
0.00335457
0.00334919
0.00331376
0.00334677
0.00334677
0.00331617
0.00331617
0.00334919
0.00331376
0.00334677
0.00334677
0.00331617
0.00331617
0.00334677
0.00331617
0.00331617
0.00334919
0.00331376
0.00334677
0.00331617
0.00331617
0.00331376
0.00330838
0.00327295
0.00330597
0.00330597
0.00327536
0.00327536
0.00330838
0.00327295
0.00330596
0.00330597
0.00327536
0.00327536
0.00330597
0.00327536
0.00327536
0.00330838
0.00327295
0.00330597
0.00327536
0.00327536
0.00327295
0.00326757
0.00323214
0.00326516
0.00326516
0.00323455
0.00323455
0.00326757
0.00323214
0.00326516
0.00326516
0.00323455
0.00323455
0.00326516
0.00323455
0.00323455
0.00326757
0.00323214
0.00326516
0.00323455
0.00323455
0.00323214
0.00322676
0.00319133
0.00322435
0.00322435
0.00319374
0.00319374
0.00322676
0.00319133
0.00322435
0.00322435
0.00319374
0.00319374
0.00322435
0.00319374
0.00319374
0.00322676
0.00319133
0.00322435
0.00319374
0.00319374
0.00319133
0.00318595
0.00315052
0.00318354
0.00318354
0.00315293
0.00315293
0.00318595
0.00315052
0.00318354
0.00318354
0.00315293
0.00315293
0.00318354
0.00315293
0.00315293
0.00318595
0.00315052
0.00318354
0.00315293
0.00315293
0.00315052
0.00314514
0.00310971
0.00314273
0.00314273
0.00311212
0.00311212
0.00314514
0.00310971
0.00314273
0.00314273
0.00311212
0.00311212
0.00314273
0.00311212
0.00311212
0.00314514
0.00310971
0.00314273
0.00311212
0.00311212
0.00310971
0.00310433
0.0030689
0.00310192
0.00310192
0.00307131
0.00307131
0.00310433
0.0030689
0.00310192
0.00310192
0.00307131
0.00307131
0.00310192
0.00307131
0.00307131
0.00310433
0.0030689
0.00310192
0.00307131
0.00307131
0.0030689
0.00306352
0.00302809
0.00306111
0.00306111
0.0030305
0.0030305
0.00306352
0.0030281
0.00306111
0.00306111
0.0030305
0.0030305
0.00306111
0.0030305
0.0030305
0.00306352
0.00302809
0.00306111
0.0030305
0.0030305
0.00302809
0.00302272
0.00298729
0.0030203
0.0030203
0.0029897
0.0029897
0.00302272
0.00298729
0.0030203
0.0030203
0.0029897
0.0029897
0.0030203
0.0029897
0.0029897
0.00302272
0.00298729
0.0030203
0.0029897
0.0029897
0.00298729
0.00298191
0.00294649
0.0029795
0.0029795
0.00294889
0.00294889
0.00298191
0.00294649
0.0029795
0.0029795
0.00294889
0.00294889
0.0029795
0.00294889
0.00294889
0.00298191
0.00294649
0.0029795
0.00294889
0.00294889
0.00294649
0.00294111
0.00290568
0.00293869
0.00293869
0.00290809
0.00290809
0.00294111
0.00290568
0.00293869
0.00293869
0.00290809
0.00290809
0.00293869
0.00290809
0.00290809
0.00294111
0.00290568
0.00293869
0.00290809
0.00290809
0.00290568
0.00290031
0.00286488
0.00289789
0.00289789
0.00286729
0.00286729
0.00290031
0.00286488
0.00289789
0.00289789
0.00286729
0.00286729
0.00289789
0.00286729
0.00286729
0.00290031
0.00286488
0.00289789
0.00286729
0.00286729
0.00286488
0.00285951
0.00282408
0.00285709
0.00285709
0.00282649
0.00282649
0.00285951
0.00282408
0.00285709
0.00285709
0.00282649
0.00282649
0.00285709
0.00282649
0.00282649
0.00285951
0.00282408
0.00285709
0.00282649
0.00282649
0.00282408
0.00281871
0.00278328
0.00281629
0.00281629
0.00278569
0.00278569
0.00281871
0.00278328
0.00281629
0.00281629
0.00278569
0.00278569
0.00281629
0.00278569
0.00278569
0.00281871
0.00278328
0.00281629
0.00278569
0.00278569
0.00278328
0.00277791
0.00274248
0.00277549
0.00277549
0.00274489
0.00274489
0.00277791
0.00274248
0.00277549
0.00277549
0.00274489
0.00274489
0.00277549
0.00274489
0.00274489
0.00277791
0.00274248
0.00277549
0.00274489
0.00274489
0.00274248
0.00273711
0.00270168
0.00273469
0.00273469
0.00270409
0.00270409
0.00273711
0.00270168
0.00273469
0.00273469
0.00270409
0.00270409
0.00273469
0.00270409
0.00270409
0.00273711
0.00270168
0.00273469
0.00270409
0.00270409
0.00270168
0.0026963
0.00266088
0.00269389
0.00269389
0.00266329
0.00266329
0.0026963
0.00266088
0.00269389
0.00269389
0.00266329
0.00266329
0.00269389
0.00266329
0.00266329
0.0026963
0.00266088
0.00269389
0.00266329
0.00266329
0.00266088
0.0026555
0.00262008
0.00265309
0.00265309
0.00262249
0.00262249
0.0026555
0.00262008
0.00265309
0.00265309
0.00262249
0.00262249
0.00265309
0.00262249
0.00262249
0.0026555
0.00262008
0.00265309
0.00262249
0.00262249
0.00262008
0.0026147
0.00257928
0.00261229
0.00261229
0.00258168
0.00258168
0.0026147
0.00257928
0.00261229
0.00261229
0.00258168
0.00258168
0.00261229
0.00258168
0.00258168
0.0026147
0.00257928
0.00261229
0.00258168
0.00258168
0.00257928
0.0025739
0.00253847
0.00257148
0.00257148
0.00254088
0.00254088
0.0025739
0.00253847
0.00257148
0.00257148
0.00254088
0.00254088
0.00257148
0.00254088
0.00254088
0.0025739
0.00253847
0.00257148
0.00254088
0.00254088
0.00253847
0.0025331
0.00249767
0.00253068
0.00253068
0.00250008
0.00250008
0.0025331
0.00249767
0.00253068
0.00253068
0.00250008
0.00250008
0.00253068
0.00250008
0.00250008
0.0025331
0.00249767
0.00253068
0.00250008
0.00250008
0.00249767
0.0024923
0.00245687
0.00248988
0.00248988
0.00245928
0.00245928
0.0024923
0.00245687
0.00248988
0.00248988
0.00245928
0.00245928
0.00248988
0.00245928
0.00245928
0.0024923
0.00245687
0.00248988
0.00245928
0.00245928
0.00245687
0.00245149
0.00241607
0.00244908
0.00244908
0.00241848
0.00241848
0.00245149
0.00241607
0.00244908
0.00244908
0.00241848
0.00241848
0.00244908
0.00241848
0.00241848
0.00245149
0.00241607
0.00244908
0.00241848
0.00241848
0.00241607
0.00241069
0.00237527
0.00240828
0.00240828
0.00237767
0.00237767
0.00241069
0.00237527
0.00240828
0.00240828
0.00237767
0.00237767
0.00240828
0.00237767
0.00237767
0.00241069
0.00237527
0.00240828
0.00237767
0.00237767
0.00237527
0.00236989
0.00233447
0.00236747
0.00236747
0.00233687
0.00233687
0.00236989
0.00233447
0.00236747
0.00236747
0.00233687
0.00233687
0.00236747
0.00233687
0.00233687
0.00236989
0.00233447
0.00236747
0.00233687
0.00233687
0.00233447
0.00232909
0.00229366
0.00232667
0.00232667
0.00229607
0.00229607
0.00232909
0.00229366
0.00232667
0.00232667
0.00229607
0.00229607
0.00232667
0.00229607
0.00229607
0.00232909
0.00229366
0.00232667
0.00229607
0.00229607
0.00229366
0.00228829
0.00225286
0.00228587
0.00228587
0.00225527
0.00225527
0.00228829
0.00225286
0.00228587
0.00228587
0.00225527
0.00225527
0.00228587
0.00225527
0.00225527
0.00228829
0.00225286
0.00228587
0.00225527
0.00225527
0.00225286
0.00224749
0.00221206
0.00224507
0.00224507
0.00221447
0.00221447
0.00224749
0.00221206
0.00224507
0.00224507
0.00221447
0.00221447
0.00224507
0.00221447
0.00221447
0.00224749
0.00221206
0.00224507
0.00221447
0.00221447
0.00221206
0.00220669
0.00217126
0.00220427
0.00220427
0.00217367
0.00217367
0.00220669
0.00217126
0.00220427
0.00220427
0.00217367
0.00217367
0.00220427
0.00217367
0.00217367
0.00220669
0.00217126
0.00220427
0.00217367
0.00217367
0.00217126
0.00216589
0.00213046
0.00216347
0.00216347
0.00213287
0.00213287
0.00216589
0.00213046
0.00216347
0.00216347
0.00213287
0.00213287
0.00216347
0.00213287
0.00213287
0.00216589
0.00213046
0.00216347
0.00213287
0.00213287
0.00213046
0.00212508
0.00208966
0.00212267
0.00212267
0.00209207
0.00209207
0.00212508
0.00208966
0.00212267
0.00212267
0.00209207
0.00209207
0.00212267
0.00209207
0.00209207
0.00212508
0.00208966
0.00212267
0.00209207
0.00209207
0.00208966
0.00208428
0.00204886
0.00208187
0.00208187
0.00205126
0.00205126
0.00208428
0.00204886
0.00208187
0.00208187
0.00205126
0.00205126
0.00208187
0.00205126
0.00205126
0.00208428
0.00204886
0.00208187
0.00205126
0.00205126
0.00204886
0.00204348
0.00200805
0.00204106
0.00204106
0.00201046
0.00201046
0.00204348
0.00200805
0.00204106
0.00204106
0.00201046
0.00201046
0.00204106
0.00201046
0.00201046
0.00204348
0.00200805
0.00204106
0.00201046
0.00201046
0.00200805
0.00200268
0.00196725
0.00200026
0.00200026
0.00196966
0.00196966
0.00200268
0.00196725
0.00200026
0.00200026
0.00196966
0.00196966
0.00200026
0.00196966
0.00196966
0.00200268
0.00196725
0.00200026
0.00196966
0.00196966
0.00196725
0.00196188
0.00192645
0.00195946
0.00195946
0.00192886
0.00192886
0.00196188
0.00192645
0.00195946
0.00195946
0.00192886
0.00192886
0.00195946
0.00192886
0.00192886
0.00196188
0.00192645
0.00195946
0.00192886
0.00192886
0.00192645
0.00192107
0.00188565
0.00191866
0.00191866
0.00188805
0.00188805
0.00192107
0.00188565
0.00191866
0.00191866
0.00188805
0.00188805
0.00191866
0.00188805
0.00188805
0.00192107
0.00188565
0.00191866
0.00188805
0.00188805
0.00188565
0.00188027
0.00184484
0.00187785
0.00187785
0.00184725
0.00184725
0.00188027
0.00184484
0.00187785
0.00187785
0.00184725
0.00184725
0.00187785
0.00184725
0.00184725
0.00188027
0.00184484
0.00187785
0.00184725
0.00184725
0.00184484
0.00183947
0.00180404
0.00183705
0.00183705
0.00180645
0.00180645
0.00183947
0.00180404
0.00183705
0.00183705
0.00180645
0.00180645
0.00183705
0.00180645
0.00180645
0.00183947
0.00180404
0.00183705
0.00180645
0.00180645
0.00180404
0.00179866
0.00176323
0.00179624
0.00179624
0.00176564
0.00176564
0.00179866
0.00176323
0.00179624
0.00179624
0.00176564
0.00176564
0.00179624
0.00176564
0.00176564
0.00179866
0.00176323
0.00179624
0.00176564
0.00176564
0.00176323
0.00175786
0.00172242
0.00175544
0.00175544
0.00172483
0.00172483
0.00175786
0.00172242
0.00175544
0.00175544
0.00172483
0.00172483
0.00175544
0.00172483
0.00172483
0.00175786
0.00172242
0.00175544
0.00172483
0.00172483
0.00172242
0.00171705
0.00168161
0.00171463
0.00171463
0.00168402
0.00168402
0.00171705
0.00168161
0.00171463
0.00171463
0.00168402
0.00168402
0.00171463
0.00168402
0.00168402
0.00171705
0.00168161
0.00171463
0.00168402
0.00168402
0.00168161
0.00167624
0.0016408
0.00167382
0.00167382
0.00164321
0.00164321
0.00167624
0.0016408
0.00167382
0.00167382
0.00164321
0.00164321
0.00167382
0.00164321
0.00164321
0.00167624
0.0016408
0.00167382
0.00164321
0.00164321
0.0016408
0.00163543
0.00159999
0.00163301
0.00163301
0.0016024
0.0016024
0.00163543
0.00159999
0.00163301
0.00163301
0.0016024
0.0016024
0.00163301
0.0016024
0.0016024
0.00163543
0.00159999
0.00163301
0.0016024
0.0016024
0.00159999
0.00159461
0.00155918
0.0015922
0.0015922
0.00156159
0.00156159
0.00159461
0.00155918
0.0015922
0.0015922
0.00156159
0.00156159
0.0015922
0.00156159
0.00156159
0.00159461
0.00155918
0.0015922
0.00156159
0.00156159
0.00155918
0.0015538
0.00151836
0.00155138
0.00155138
0.00152077
0.00152077
0.0015538
0.00151836
0.00155138
0.00155138
0.00152077
0.00152077
0.00155138
0.00152077
0.00152077
0.0015538
0.00151836
0.00155138
0.00152077
0.00152077
0.00151836
0.00151298
0.00147754
0.00151056
0.00151056
0.00147995
0.00147995
0.00151298
0.00147754
0.00151056
0.00151056
0.00147995
0.00147995
0.00151056
0.00147995
0.00147995
0.00151298
0.00147754
0.00151056
0.00147995
0.00147995
0.00147754
0.00147216
0.00143672
0.00146974
0.00146974
0.00143913
0.00143913
0.00147216
0.00143672
0.00146974
0.00146974
0.00143913
0.00143913
0.00146974
0.00143913
0.00143913
0.00147216
0.00143672
0.00146974
0.00143913
0.00143913
0.00143672
0.00143134
0.0013959
0.00142892
0.00142892
0.00139831
0.00139831
0.00143134
0.0013959
0.00142892
0.00142892
0.00139831
0.00139831
0.00142892
0.00139831
0.00139831
0.00143134
0.0013959
0.00142892
0.00139831
0.00139831
0.0013959
0.00139052
0.00135507
0.0013881
0.0013881
0.00135748
0.00135748
0.00139052
0.00135507
0.0013881
0.0013881
0.00135748
0.00135748
0.0013881
0.00135748
0.00135748
0.00139052
0.00135507
0.0013881
0.00135748
0.00135748
0.00135507
0.00134969
0.00131425
0.00134728
0.00134728
0.00131666
0.00131666
0.00134969
0.00131425
0.00134728
0.00134728
0.00131666
0.00131666
0.00134728
0.00131666
0.00131666
0.00134969
0.00131425
0.00134728
0.00131666
0.00131666
0.00131425
0.00130887
0.00127342
0.00130645
0.00130645
0.00127583
0.00127583
0.00130887
0.00127342
0.00130645
0.00130645
0.00127583
0.00127583
0.00130645
0.00127583
0.00127583
0.00130887
0.00127342
0.00130645
0.00127583
0.00127583
0.00127342
0.00126804
0.00123259
0.00126562
0.00126562
0.001235
0.001235
0.00126804
0.00123259
0.00126562
0.00126562
0.001235
0.001235
0.00126562
0.001235
0.001235
0.00126804
0.00123259
0.00126562
0.001235
0.001235
0.00123259
0.00122721
0.00119176
0.0012248
0.0012248
0.00119417
0.00119417
0.00122721
0.00119176
0.0012248
0.0012248
0.00119417
0.00119417
0.0012248
0.00119417
0.00119417
0.00122721
0.00119176
0.0012248
0.00119417
0.00119417
0.00119176
0.00118639
0.00115094
0.00118397
0.00118397
0.00115335
0.00115335
0.00118639
0.00115094
0.00118397
0.00118397
0.00115335
0.00115335
0.00118397
0.00115335
0.00115335
0.00118639
0.00115094
0.00118397
0.00115335
0.00115335
0.00115094
0.00114556
0.00111011
0.00114314
0.00114314
0.00111252
0.00111252
0.00114556
0.00111011
0.00114314
0.00114314
0.00111252
0.00111252
0.00114314
0.00111252
0.00111252
0.00114556
0.00111011
0.00114314
0.00111252
0.00111252
0.00111011
0.00110473
0.00106928
0.00110231
0.00110231
0.00107169
0.00107169
0.00110473
0.00106928
0.00110231
0.00110231
0.00107169
0.00107169
0.00110231
0.00107169
0.00107169
0.00110473
0.00106928
0.00110231
0.00107169
0.00107169
0.00106928
0.00106391
0.00102846
0.00106149
0.00106149
0.00103087
0.00103087
0.00106391
0.00102846
0.00106149
0.00106149
0.00103087
0.00103087
0.00106149
0.00103087
0.00103087
0.0010639
0.00102846
0.00106149
0.00103087
0.00103087
0.00102846
0.00102308
0.000987632
0.00102066
0.00102066
0.000990043
0.000990043
0.00102308
0.000987633
0.00102066
0.00102066
0.000990042
0.000990043
0.00102066
0.000990043
0.000990043
0.00102308
0.000987633
0.00102066
0.000990043
0.000990043
0.000987633
0.000982253
0.000946805
0.000979836
0.000979836
0.000949215
0.000949215
0.000982253
0.000946805
0.000979836
0.000979836
0.000949215
0.000949215
0.000979836
0.000949215
0.000949215
0.000982254
0.000946804
0.000979836
0.000949215
0.000949215
0.000946805
0.000941426
0.000905979
0.000939008
0.000939008
0.000908389
0.000908389
0.000941425
0.000905979
0.000939008
0.000939008
0.000908389
0.000908389
0.000939008
0.000908389
0.000908389
0.000941426
0.000905978
0.000939008
0.000908389
0.000908389
0.000905978
0.0009006
0.000865156
0.000898183
0.000898182
0.000867566
0.000867565
0.0009006
0.000865156
0.000898182
0.000898183
0.000867565
0.000867566
0.000898183
0.000867566
0.000867566
0.0009006
0.000865156
0.000898182
0.000867566
0.000867566
0.000865156
0.000859777
0.000824334
0.00085736
0.00085736
0.000826744
0.000826744
0.000859777
0.000824335
0.00085736
0.00085736
0.000826744
0.000826744
0.00085736
0.000826744
0.000826744
0.000859778
0.000824334
0.00085736
0.000826744
0.000826744
0.000824334
0.000818956
0.000783512
0.000816539
0.000816539
0.000785922
0.000785922
0.000818956
0.000783513
0.000816539
0.000816539
0.000785922
0.000785922
0.000816539
0.000785922
0.000785923
0.000818956
0.000783513
0.000816539
0.000785922
0.000785922
0.000783513
0.000778134
0.000742689
0.000775717
0.000775717
0.000745099
0.000745099
0.000778134
0.00074269
0.000775717
0.000775717
0.000745099
0.000745099
0.000775717
0.000745099
0.0007451
0.000778134
0.000742689
0.000775717
0.000745099
0.000745099
0.000742689
0.000737311
0.000701864
0.000734893
0.000734893
0.000704274
0.000704274
0.000737311
0.000701864
0.000734893
0.000734893
0.000704274
0.000704274
0.000734893
0.000704274
0.000704275
0.000737311
0.000701864
0.000734893
0.000704274
0.000704274
0.000701864
0.000696486
0.000661038
0.000694068
0.000694068
0.000663448
0.000663448
0.000696485
0.000661038
0.000694068
0.000694068
0.000663448
0.000663448
0.000694068
0.000663448
0.000663448
0.000696485
0.000661037
0.000694068
0.000663448
0.000663448
0.000661037
0.000655659
0.000620211
0.000653241
0.000653241
0.000622621
0.000622621
0.000655658
0.000620211
0.000653241
0.000653241
0.000622621
0.000622621
0.000653241
0.000622621
0.000622621
0.000655658
0.00062021
0.000653241
0.000622621
0.000622621
0.00062021
0.000614832
0.000579385
0.000612414
0.000612414
0.000581795
0.000581795
0.000614832
0.000579385
0.000612414
0.000612414
0.000581795
0.000581795
0.000612414
0.000581795
0.000581795
0.000614832
0.000579385
0.000612414
0.000581795
0.000581795
0.000579385
0.000574006
0.00053856
0.000571589
0.000571589
0.000540971
0.000540971
0.000574006
0.000538561
0.000571589
0.000571589
0.00054097
0.000540971
0.000571589
0.000540971
0.000540971
0.000574006
0.000538561
0.000571589
0.000540971
0.000540971
0.00053856
0.000533182
0.000497738
0.000530765
0.000530765
0.000500148
0.000500148
0.000533182
0.000497738
0.000530765
0.000530765
0.000500147
0.000500148
0.000530765
0.000500148
0.000500148
0.000533182
0.000497738
0.000530765
0.000500148
0.000500148
0.000497738
0.000492359
0.000456915
0.000489942
0.000489942
0.000459325
0.000459325
0.000492359
0.000456915
0.000489942
0.000489942
0.000459325
0.000459325
0.000489942
0.000459325
0.000459325
0.00049236
0.000456915
0.000489942
0.000459325
0.000459325
0.000456915
0.000451537
0.000416092
0.000449119
0.000449119
0.000418502
0.000418502
0.000451537
0.000416092
0.000449119
0.000449119
0.000418502
0.000418502
0.00044912
0.000418502
0.000418502
0.000451537
0.000416092
0.000449119
0.000418502
0.000418502
0.000416092
0.000410713
0.000375268
0.000408296
0.000408296
0.000377678
0.000377678
0.000410713
0.000375268
0.000408296
0.000408296
0.000377678
0.000377678
0.000408296
0.000377678
0.000377678
0.000410713
0.000375268
0.000408296
0.000377678
0.000377678
0.000375268
0.00036989
0.000334446
0.000367473
0.000367473
0.000336856
0.000336856
0.00036989
0.000334446
0.000367473
0.000367473
0.000336856
0.000336856
0.000367473
0.000336856
0.000336856
0.00036989
0.000334446
0.000367472
0.000336856
0.000336856
0.000334446
0.000329068
0.000293624
0.000326651
0.000326651
0.000296034
0.000296033
0.000329068
0.000293624
0.000326651
0.000326651
0.000296033
0.000296033
0.000326652
0.000296033
0.000296033
0.000329068
0.000293623
0.000326651
0.000296033
0.000296033
0.000293624
0.000288242
0.000252805
0.000285827
0.000285826
0.000255212
0.000255212
0.000288242
0.000252805
0.000285826
0.000285826
0.000255212
0.000255212
0.000285827
0.000255212
0.000255213
0.000288242
0.000252805
0.000285826
0.000255212
0.000255212
0.000252805
0.000247429
0.000211991
0.000245014
0.000245014
0.000214398
0.000214398
0.000247429
0.000211991
0.000245014
0.000245014
0.000214398
0.000214398
0.000245014
0.000214398
0.000214399
0.000247429
0.00021199
0.000245014
0.000214398
0.000214398
0.000211991
0.000206593
0.000171168
0.000204183
0.000204183
0.000173574
0.000173574
0.000206593
0.000171169
0.000204183
0.000204183
0.000173574
0.000173574
0.000204183
0.000173574
0.000173574
0.000206593
0.000171169
0.000204183
0.000173574
0.000173574
0.000171169
0.000165774
0.000130345
0.000163371
0.000163371
0.000132744
0.000132744
0.000165774
0.000130346
0.000163371
0.000163371
0.000132743
0.000132744
0.000163371
0.000132744
0.000132744
0.000165775
0.000130345
0.000163371
0.000132743
0.000132744
0.000130345
0.000124926
8.95128e-05
0.000122535
0.000122535
9.19089e-05
9.19093e-05
0.000124926
8.95136e-05
0.000122535
0.000122535
9.19084e-05
9.19082e-05
0.000122535
9.19089e-05
9.19084e-05
0.000124926
8.95121e-05
0.000122535
9.1908e-05
9.1908e-05
8.95122e-05
8.40565e-05
4.87148e-05
8.16926e-05
8.16929e-05
5.11181e-05
5.11187e-05
8.40566e-05
4.8716e-05
8.16919e-05
8.16915e-05
5.11161e-05
5.11156e-05
8.16919e-05
5.11173e-05
5.11152e-05
8.40561e-05
4.87123e-05
8.16914e-05
5.11147e-05
5.11139e-05
4.87117e-05
4.32675e-05
1.18003e-05
4.10397e-05
4.104e-05
1.39649e-05
1.39642e-05
4.32681e-05
1.17999e-05
4.10376e-05
4.10363e-05
1.3963e-05
1.39589e-05
4.10354e-05
1.39616e-05
1.39575e-05
4.32643e-05
1.1795e-05
4.10342e-05
1.39593e-05
1.39591e-05
1.17947e-05
8.30053e-06
8.75379e-06
8.75358e-06
8.30093e-06
8.75218e-06
8.74874e-06
8.59862e-06
8.59629e-06
8.59643e-06
8.74877e-06
8.29649e-06
8.74955e-06
0.00392449
0.00393425
0.00392905
0.00392906
0.00395143
0.00393822
0.00396682
0.00393226
0.00395143
0.00393822
0.00393227
0.00396682
0.00394279
0.00397056
0.00397056
0.00387985
0.003899
0.00390819
0.00387192
0.00387269
0.00387543
0.00387983
0.00389898
0.00390818
0.0038719
0.00390271
0.00390271
0.00390271
0.0038593
0.0038593
0.0038593
0.0038593
0.00387735
0.00390318
0.00390311
0.00388618
0.0039062
0.00387625
0.00388706
0.00387279
0.00387543
0.00387736
0.00390311
0.0039032
0.00388618
0.0039062
0.00388706
0.00387625
0.00390905
0.00390904
0.00388058
0.00387589
0.00387588
0.0038332
0.0038525
0.00385386
0.00383172
0.00385141
0.00383129
0.0038332
0.0038525
0.00385386
0.00383171
0.00384735
0.00384735
0.00384735
0.00380976
0.00380976
0.00380976
0.00380976
0.00383179
0.00385257
0.00384735
0.00383548
0.00385136
0.00383233
0.00383521
0.0038514
0.00383128
0.00383179
0.00384735
0.00385257
0.00383548
0.00385136
0.00383521
0.00383232
0.0038536
0.00385359
0.00383202
0.00383265
0.00383265
0.00378097
0.00379979
0.00380085
0.00377993
0.00379944
0.00377964
0.00378097
0.00379979
0.00380085
0.00377993
0.0037966
0.0037966
0.0037966
0.00375721
0.00375721
0.00375721
0.00375721
0.00378006
0.00380018
0.00379647
0.00378343
0.0037996
0.00378042
0.00378333
0.00379944
0.00377964
0.00378006
0.00379647
0.00380018
0.00378343
0.0037996
0.00378333
0.00378042
0.00380043
0.00380043
0.00378005
0.00378049
0.00378049
0.00372843
0.00374709
0.00374794
0.00372767
0.00374689
0.00372748
0.00372843
0.00374709
0.00374794
0.00372767
0.00374419
0.00374419
0.00374419
0.00370559
0.00370559
0.00370559
0.00370559
0.00372792
0.00374749
0.00374416
0.00373127
0.00374719
0.00372811
0.00373123
0.00374689
0.00372748
0.00372792
0.00374416
0.00374749
0.00373127
0.00374719
0.00373123
0.00372811
0.00374753
0.00374753
0.00372797
0.00372805
0.00372805
0.00367716
0.00369563
0.00369626
0.00367661
0.00369548
0.00367648
0.00367716
0.00369563
0.00369626
0.00367661
0.00369286
0.00369286
0.00369286
0.00365526
0.00365526
0.00365526
0.00365526
0.00367692
0.00369597
0.00369284
0.00368021
0.00369578
0.00367701
0.00368019
0.00369548
0.00367648
0.00367692
0.00369284
0.00369597
0.00368021
0.00369578
0.00368019
0.00367701
0.00369596
0.00369596
0.00367703
0.00367692
0.00367692
0.00362745
0.00364554
0.00364593
0.00362704
0.00364542
0.00362694
0.00362745
0.00364554
0.00364593
0.00362704
0.00364294
0.00364294
0.00364294
0.00360683
0.00360683
0.00360683
0.00360683
0.00362741
0.00364582
0.00364292
0.00363066