/*--------------------------------*- C++ -*----------------------------------*\
| =========                 |                                                 |
| \\      /  F ield         | OpenFOAM: The Open Source CFD Toolbox           |
|  \\    /   O peration     | Version:  2206                                  |
|   \\  /    A nd           | Website:  www.openfoam.com                      |
|    \\/     M anipulation  |                                                 |
\*---------------------------------------------------------------------------*/
FoamFile
{
    version     2.0;
    format      ascii;
    arch        "LSB;label=32;scalar=64";
    class       volScalarField;
    location    "60";
    object      p;
}
// * * * * * * * * * * * * * * * * * * * * * * * * * * * * * * * * * * * * * //

dimensions      [0 2 -2 0 0 0 0];

internalField   nonuniform List<scalar> 
171728
(
8.70196e-08
8.81226e-08
8.96735e-08
8.96901e-08
8.96903e-08
9.10784e-08
8.97029e-08
8.96931e-08
8.96805e-08
8.96883e-08
8.9687e-08
8.9704e-08
8.96878e-08
8.97067e-08
8.96791e-08
8.93753e-08
8.93578e-08
8.97443e-08
9.65489e-08
9.6521e-08
6.51919e-08
8.56088e-08
8.24627e-08
6.26019e-08
8.59788e-08
8.14904e-08
6.52464e-08
8.56037e-08
8.25058e-08
6.26417e-08
8.81109e-08
8.81346e-08
8.81213e-08
6.56746e-08
8.64575e-08
8.39435e-08
9.03425e-08
1.08795e-07
8.46111e-08
6.52257e-08
8.59879e-08
8.14962e-08
6.57007e-08
8.39579e-08
8.64686e-08
9.03561e-08
8.46242e-08
1.08807e-07
6.52552e-08
9.20476e-08
9.2031e-08
9.24127e-08
9.92065e-08
9.91769e-08
8.32813e-08
7.87893e-08
8.32911e-08
7.88053e-08
8.83598e-08
9.78909e-08
9.78624e-08
9.0714e-08
9.06966e-08
8.013e-08
8.46193e-08
8.01459e-08
8.46292e-08
8.5955e-08
8.14641e-08
8.59831e-08
8.14957e-08
9.2054e-08
9.20461e-08
9.24217e-08
9.92018e-08
9.91997e-08
6.51948e-08
8.5609e-08
8.24914e-08
6.26003e-08
6.5661e-08
8.64704e-08
8.3952e-08
9.03608e-08
1.08844e-07
8.46202e-08
6.52154e-08
6.56596e-08
8.64614e-08
8.39438e-08
9.03503e-08
1.08872e-07
8.46131e-08
6.52114e-08
9.20635e-08
9.20158e-08
9.24087e-08
9.92134e-08
9.91689e-08
8.5948e-08
8.14624e-08
6.57065e-08
8.64779e-08
8.39594e-08
9.03577e-08
1.08851e-07
8.46275e-08
6.52558e-08
6.52358e-08
8.56269e-08
8.25065e-08
6.26326e-08
6.57031e-08
8.39735e-08
8.648e-08
9.03694e-08
8.46396e-08
1.08884e-07
6.52524e-08
6.5211e-08
8.55813e-08
8.24595e-08
6.26134e-08
6.56717e-08
8.39549e-08
8.64619e-08
9.03555e-08
8.46222e-08
1.08864e-07
6.52224e-08
6.52025e-08
8.56136e-08
8.24728e-08
6.26045e-08
9.20767e-08
9.20274e-08
9.24243e-08
9.92193e-08
9.91744e-08
8.59532e-08
8.14656e-08
6.57006e-08
8.39504e-08
8.64569e-08
9.03468e-08
8.46174e-08
1.08821e-07
6.52534e-08
6.52285e-08
8.55948e-08
8.24645e-08
6.26334e-08
6.52321e-08
8.55899e-08
8.24836e-08
6.26336e-08
8.59581e-08
8.14668e-08
8.59682e-08
8.14831e-08
7.89912e-08
8.01645e-08
8.01831e-08
8.0616e-08
8.06414e-08
8.19713e-08
9.30958e-08
8.97279e-08
7.83259e-08
9.58792e-08
8.0493e-08
7.90361e-08
9.76998e-08
9.30512e-08
8.96847e-08
7.83003e-08
9.58514e-08
8.04914e-08
7.89917e-08
9.76523e-08
8.13021e-08
7.99469e-08
7.99723e-08
7.94949e-08
7.9514e-08
7.83212e-08
7.97068e-08
8.11625e-08
9.00455e-08
9.83697e-08
7.89956e-08
9.37655e-08
9.03984e-08
7.96628e-08
8.11605e-08
9.00275e-08
9.83222e-08
7.89703e-08
9.37204e-08
9.03549e-08
9.20494e-08
7.20507e-08
7.13435e-08
6.32509e-08
9.17507e-08
6.84772e-08
7.558e-08
8.74727e-08
8.17966e-08
8.24864e-08
8.45541e-08
9.06937e-08
9.13627e-08
8.5212e-08
8.62702e-08
8.3143e-08
8.81392e-08
7.49172e-08
6.45391e-08
9.10911e-08
6.78244e-08
7.13813e-08
7.06926e-08
9.13841e-08
8.08225e-08
8.66505e-08
9.20735e-08
7.13901e-08
7.20965e-08
6.32995e-08
6.85187e-08
9.17751e-08
7.56127e-08
8.74849e-08
8.18342e-08
8.24853e-08
8.45718e-08
9.06989e-08
9.13727e-08
8.52427e-08
8.62745e-08
8.3155e-08
8.8158e-08
7.49407e-08
6.45844e-08
6.78569e-08
9.11065e-08
7.07277e-08
7.1418e-08
9.1401e-08
8.08292e-08
8.66565e-08
8.16602e-08
8.28564e-08
8.2872e-08
8.3301e-08
8.33249e-08
8.46328e-08
9.57664e-08
9.23978e-08
8.10038e-08
9.85539e-08
8.1708e-08
1.00366e-07
8.31715e-08
9.57176e-08
9.23558e-08
8.09768e-08
9.85254e-08
8.16614e-08
1.00318e-07
8.31667e-08
8.39854e-08
8.26271e-08
8.26516e-08
8.09959e-08
8.21793e-08
8.2196e-08
8.23632e-08
8.38323e-08
9.27087e-08
1.01026e-07
9.3055e-08
8.16643e-08
9.64126e-08
8.23146e-08
8.38261e-08
9.26919e-08
1.00977e-07
9.30128e-08
8.16361e-08
9.63624e-08
7.81199e-08
8.39507e-08
7.81359e-08
8.39602e-08
8.26421e-08
8.12854e-08
8.13104e-08
7.96584e-08
8.08343e-08
8.08517e-08
8.10474e-08
9.97089e-08
8.25053e-08
9.1384e-08
9.51083e-08
8.03369e-08
9.17375e-08
8.10012e-08
9.9661e-08
8.25011e-08
9.13665e-08
9.50605e-08
8.03098e-08
9.16945e-08
8.03299e-08
8.15049e-08
8.15218e-08
8.33133e-08
8.19555e-08
8.19802e-08
9.44389e-08
7.96651e-08
9.10675e-08
9.72209e-08
8.03744e-08
8.18345e-08
9.90417e-08
9.43919e-08
7.96388e-08
9.10245e-08
9.71927e-08
8.03293e-08
8.18309e-08
9.89939e-08
8.52889e-08
7.94595e-08
8.52988e-08
7.94754e-08
8.07955e-08
8.66252e-08
8.08301e-08
8.66531e-08
8.16612e-08
8.28209e-08
8.28779e-08
8.32863e-08
8.33282e-08
8.46319e-08
9.57564e-08
9.24115e-08
9.85521e-08
8.09918e-08
8.31504e-08
1.00372e-07
8.17103e-08
9.57478e-08
9.23728e-08
9.85381e-08
8.09879e-08
8.31847e-08
1.00337e-07
8.16856e-08
8.23601e-08
8.38028e-08
9.27163e-08
1.01028e-07
8.1647e-08
9.63974e-08
9.30706e-08
8.2351e-08
8.38564e-08
9.27115e-08
1.01008e-07
8.16547e-08
9.64109e-08
9.3036e-08
8.39841e-08
8.26161e-08
8.26542e-08
8.21549e-08
8.21994e-08
8.09961e-08
9.20568e-08
7.2055e-08
7.13459e-08
6.32512e-08
9.17508e-08
6.84755e-08
7.55818e-08
8.74787e-08
8.18232e-08
8.24784e-08
8.45612e-08
9.06949e-08
9.13674e-08
8.52246e-08
8.62758e-08
8.31413e-08
8.81483e-08
7.49157e-08
6.45386e-08
9.10906e-08
6.78193e-08
7.13823e-08
7.06899e-08
9.13867e-08
8.16599e-08
8.28746e-08
8.28273e-08
8.33199e-08
8.32952e-08
8.46328e-08
9.57629e-08
9.23918e-08
9.85589e-08
8.09992e-08
8.32011e-08
1.00361e-07
8.16997e-08
9.57202e-08
9.23619e-08
9.85152e-08
8.09736e-08
1.00318e-07
8.31268e-08
8.16794e-08
8.23589e-08
8.38621e-08
9.2728e-08
1.01024e-07
8.16609e-08
9.30533e-08
9.64129e-08
8.23393e-08
8.37899e-08
9.26798e-08
1.00979e-07
9.30227e-08
8.16359e-08
9.63719e-08
8.39853e-08
8.26487e-08
8.26223e-08
8.22024e-08
8.21492e-08
8.09938e-08
8.07947e-08
8.66194e-08
9.20741e-08
7.20931e-08
7.13799e-08
6.32883e-08
9.17722e-08
6.85053e-08
7.5606e-08
8.74933e-08
8.18398e-08
8.25046e-08
8.45854e-08
9.07137e-08
9.1383e-08
8.52458e-08
8.62903e-08
8.31632e-08
8.81615e-08
7.49392e-08
6.45762e-08
9.11087e-08
6.78493e-08
7.14174e-08
7.0725e-08
9.14079e-08
9.20443e-08
7.13536e-08
7.20609e-08
6.32693e-08
6.84887e-08
9.17511e-08
7.5582e-08
8.74611e-08
8.17916e-08
8.24584e-08
8.45374e-08
9.06749e-08
9.13469e-08
8.52005e-08
8.6247e-08
8.31209e-08
8.81302e-08
7.49146e-08
6.45513e-08
6.78295e-08
9.10856e-08
7.06955e-08
7.13855e-08
9.13739e-08
9.20562e-08
7.20626e-08
7.13496e-08
6.32602e-08
9.17535e-08
6.84814e-08
7.55822e-08
8.74751e-08
8.18047e-08
8.24827e-08
8.45558e-08
9.06947e-08
9.13657e-08
8.52187e-08
8.62786e-08
8.31439e-08
8.81441e-08
7.49152e-08
6.45429e-08
9.10893e-08
6.78236e-08
7.13875e-08
7.06926e-08
9.1387e-08
8.16589e-08
8.28842e-08
8.28376e-08
8.33223e-08
8.32967e-08
8.46355e-08
9.578e-08
9.24114e-08
9.85706e-08
8.10088e-08
8.32094e-08
1.00381e-07
8.17152e-08
9.57342e-08
9.23802e-08
9.85245e-08
8.09789e-08
1.00335e-07
8.31306e-08
8.1691e-08
8.23579e-08
8.38663e-08
9.27324e-08
1.01034e-07
8.16647e-08
9.30613e-08
9.64166e-08
8.23331e-08
8.37915e-08
9.26835e-08
1.00989e-07
9.30305e-08
8.16356e-08
9.6374e-08
8.3991e-08
8.26484e-08
8.262e-08
8.22082e-08
8.21515e-08
8.10013e-08
8.07988e-08
8.66224e-08
9.20509e-08
7.13701e-08
7.20703e-08
6.32861e-08
6.85026e-08
9.17557e-08
7.55899e-08
8.74667e-08
8.17985e-08
8.24762e-08
8.45513e-08
9.06823e-08
9.1353e-08
8.52119e-08
8.62589e-08
8.31362e-08
8.81346e-08
7.49248e-08
6.45724e-08
6.7847e-08
9.1093e-08
7.07159e-08
7.13985e-08
9.13829e-08
9.20521e-08
7.13718e-08
7.20772e-08
6.32874e-08
6.85016e-08
9.17518e-08
7.55863e-08
8.74642e-08
8.18166e-08
8.24662e-08
8.45566e-08
9.06786e-08
9.13496e-08
8.52181e-08
8.62547e-08
8.31267e-08
8.81331e-08
7.49197e-08
6.45746e-08
6.78452e-08
9.1088e-08
7.0716e-08
7.14052e-08
9.13837e-08
8.07993e-08
8.66284e-08
8.08155e-08
8.66388e-08
9.27242e-08
8.83941e-08
8.83858e-08
8.90741e-08
8.3668e-08
9.24518e-08
9.24421e-08
8.53595e-08
8.53905e-08
8.87906e-08
8.60284e-08
8.60575e-08
8.57327e-08
8.50654e-08
9.53899e-08
9.10647e-08
9.10575e-08
9.17406e-08
8.63384e-08
9.51177e-08
9.51082e-08
8.56781e-08
8.90281e-08
9.44582e-08
9.44485e-08
9.47329e-08
9.04034e-08
9.03955e-08
9.54006e-08
9.10772e-08
9.10705e-08
9.17483e-08
9.51266e-08
9.51198e-08
8.63528e-08
9.5388e-08
9.1067e-08
9.10548e-08
9.17341e-08
9.51012e-08
9.51186e-08
8.63407e-08
9.54048e-08
9.10828e-08
9.10701e-08
9.17553e-08
9.51166e-08
9.5136e-08
8.63563e-08
8.43385e-08
8.76897e-08
9.31219e-08
9.31121e-08
9.3394e-08
8.90643e-08
8.9056e-08
8.5355e-08
8.53793e-08
8.87791e-08
8.6025e-08
8.60443e-08
8.57319e-08
8.50621e-08
8.53953e-08
8.53813e-08
8.88e-08
8.60614e-08
8.60471e-08
8.57454e-08
8.5078e-08
8.53797e-08
8.5376e-08
8.87878e-08
8.6044e-08
8.60428e-08
8.57489e-08
8.50786e-08
7.63569e-08
7.31544e-08
7.10823e-08
6.58851e-08
7.2459e-08
7.13536e-08
7.66932e-08
8.49323e-08
8.94037e-08
1.08147e-07
8.62458e-08
9.73939e-08
9.14647e-08
8.22789e-08
8.29404e-08
9.21228e-08
8.7116e-08
9.80624e-08
9.00646e-08
8.69078e-08
8.56063e-08
7.60198e-08
6.50073e-08
7.17993e-08
7.06888e-08
7.24891e-08
7.04088e-08
7.5693e-08
7.63837e-08
7.11084e-08
7.3178e-08
6.59116e-08
7.13801e-08
7.24818e-08
7.67198e-08
8.49694e-08
8.94264e-08
1.08163e-07
8.62595e-08
9.74174e-08
9.14804e-08
8.23161e-08
8.29719e-08
9.21356e-08
8.71223e-08
9.80806e-08
9.00805e-08
8.69187e-08
8.56383e-08
7.60496e-08
6.50367e-08
7.07174e-08
7.18258e-08
7.0437e-08
7.25167e-08
7.57232e-08
8.69955e-08
9.03553e-08
9.57859e-08
9.57765e-08
9.17258e-08
9.17185e-08
9.6048e-08
9.40657e-08
9.04141e-08
8.9734e-08
8.97259e-08
8.50071e-08
9.37926e-08
9.37828e-08
8.70134e-08
9.03697e-08
9.5796e-08
9.5792e-08
9.60635e-08
9.17406e-08
9.17349e-08
7.63741e-08
7.31538e-08
7.10765e-08
6.58711e-08
7.24572e-08
7.13466e-08
7.67112e-08
8.49804e-08
8.94421e-08
1.08207e-07
8.62578e-08
9.14882e-08
9.74602e-08
8.23161e-08
8.2976e-08
9.21409e-08
8.71297e-08
9.81207e-08
8.69182e-08
9.01029e-08
8.56467e-08
7.6042e-08
6.49982e-08
7.18013e-08
7.06824e-08
7.24945e-08
7.04048e-08
7.57117e-08
7.63605e-08
7.315e-08
7.1072e-08
6.58678e-08
7.2449e-08
7.13416e-08
7.67004e-08
8.49593e-08
8.94163e-08
1.08223e-07
8.62532e-08
9.14916e-08
9.74478e-08
8.22912e-08
8.29536e-08
9.21497e-08
8.71202e-08
9.81173e-08
8.69153e-08
8.56339e-08
9.00779e-08
7.60272e-08
6.49949e-08
7.17911e-08
7.06777e-08
7.24863e-08
7.03997e-08
7.56964e-08
8.70023e-08
9.03557e-08
9.579e-08
9.57715e-08
9.17187e-08
9.17313e-08
9.60502e-08
7.63844e-08
7.31888e-08
7.11069e-08
6.5915e-08
7.24891e-08
7.13788e-08
7.67219e-08
8.49613e-08
8.9418e-08
1.08185e-07
8.62688e-08
9.14971e-08
9.74189e-08
8.23033e-08
8.29674e-08
9.21628e-08
8.71405e-08
9.80978e-08
8.69339e-08
9.00816e-08
8.56416e-08
7.6047e-08
6.50397e-08
7.18277e-08
7.07152e-08
7.25214e-08
7.04346e-08
7.57192e-08
7.63989e-08
7.11113e-08
7.31885e-08
6.59111e-08
7.13825e-08
7.24865e-08
7.67371e-08
8.49998e-08
8.94444e-08
1.08241e-07
8.62767e-08
9.15188e-08
9.74743e-08
8.23337e-08
8.29894e-08
9.21731e-08
8.71351e-08
9.81366e-08
8.69362e-08
8.56678e-08
9.00993e-08
7.60672e-08
6.50374e-08
7.07185e-08
7.18297e-08
7.04391e-08
7.25274e-08
7.57382e-08
7.63758e-08
7.10863e-08
7.31596e-08
6.58817e-08
7.13572e-08
7.24604e-08
7.67138e-08
8.49745e-08
8.94299e-08
1.08217e-07
8.62558e-08
9.74543e-08
9.14903e-08
8.23107e-08
8.29707e-08
9.21477e-08
8.71195e-08
9.81218e-08
9.00889e-08
8.69172e-08
8.56475e-08
7.60411e-08
6.50046e-08
7.06924e-08
7.18016e-08
7.04127e-08
7.24956e-08
7.57128e-08
8.70046e-08
9.03685e-08
9.57997e-08
9.57816e-08
9.17266e-08
9.17389e-08
9.6057e-08
7.63729e-08
7.11047e-08
7.31763e-08
6.59105e-08
7.1376e-08
7.24776e-08
7.67103e-08
8.49537e-08
8.94002e-08
1.08175e-07
8.62556e-08
9.7406e-08
9.14871e-08
8.22944e-08
8.29533e-08
9.21429e-08
8.71127e-08
9.8072e-08
9.00583e-08
8.69157e-08
8.56246e-08
7.60388e-08
6.50358e-08
7.07131e-08
7.18202e-08
7.04331e-08
7.25138e-08
7.57105e-08
4.25967e-08
4.41509e-08
4.41689e-08
4.41726e-08
4.52706e-08
4.68245e-08
4.68416e-08
4.68438e-08
4.79508e-08
4.95044e-08
4.95219e-08
4.95235e-08
5.06308e-08
5.21844e-08
5.22016e-08
5.22041e-08
5.33091e-08
5.48631e-08
5.48802e-08
5.48824e-08
5.59883e-08
5.7542e-08
5.75592e-08
5.75616e-08
5.86676e-08
6.02207e-08
6.02382e-08
6.02406e-08
6.13455e-08
6.28991e-08
6.29164e-08
6.29186e-08
6.40233e-08
6.55766e-08
6.55934e-08
6.55965e-08
6.67011e-08
6.82547e-08
6.82719e-08
6.82731e-08
6.93791e-08
7.09326e-08
7.09503e-08
7.09525e-08
7.20573e-08
7.36112e-08
7.36287e-08
7.363e-08
7.47348e-08
7.62883e-08
7.63058e-08
7.63082e-08
7.74123e-08
7.89663e-08
7.89831e-08
7.89853e-08
8.00907e-08
8.1644e-08
8.16614e-08
8.16637e-08
8.27691e-08
8.43222e-08
8.43401e-08
8.43416e-08
8.54478e-08
8.70006e-08
8.70185e-08
4.41777e-08
4.82296e-08
4.41665e-08
4.41578e-08
4.6169e-08
4.61603e-08
4.41633e-08
4.82176e-08
4.41647e-08
4.41829e-08
4.61672e-08
4.61849e-08
4.41649e-08
4.61544e-08
4.61699e-08
4.41857e-08
4.82426e-08
4.41559e-08
4.61717e-08
4.61607e-08
4.82279e-08
4.68514e-08
5.09101e-08
4.68389e-08
4.68303e-08
4.88492e-08
4.88403e-08
4.68377e-08
5.08976e-08
4.68372e-08
4.68548e-08
4.88473e-08
4.88652e-08
4.68401e-08
4.88344e-08
4.88502e-08
4.68602e-08
5.0923e-08
4.6831e-08
4.8852e-08
4.8841e-08
5.09079e-08
4.95323e-08
5.35904e-08
4.95193e-08
4.95103e-08
5.15294e-08
5.15202e-08
4.95179e-08
5.35776e-08
4.95176e-08
4.95351e-08
5.15276e-08
5.15454e-08
4.95202e-08
5.15144e-08
5.15302e-08
4.95406e-08
5.36035e-08
4.9511e-08
5.1532e-08
5.1521e-08
5.35884e-08
5.22123e-08
5.62687e-08
5.21992e-08
5.21902e-08
5.42082e-08
5.41992e-08
5.21979e-08
5.62563e-08
5.21975e-08
5.2215e-08
5.42062e-08
5.4224e-08
5.22e-08
5.41934e-08
5.42093e-08
5.22211e-08
5.62819e-08
5.21908e-08
5.42108e-08
5.42001e-08
5.62669e-08
5.48903e-08
5.89478e-08
5.48776e-08
5.48689e-08
5.68868e-08
5.68781e-08
5.48761e-08
5.89355e-08
5.48757e-08
5.48933e-08
5.68851e-08
5.69029e-08
5.48789e-08
5.68722e-08
5.6888e-08
5.48993e-08
5.8961e-08
5.48698e-08
5.68897e-08
5.6879e-08
5.8946e-08
5.75696e-08
6.1627e-08
5.75567e-08
5.75479e-08
5.95661e-08
5.95568e-08
5.75557e-08
6.16139e-08
5.7555e-08
5.75727e-08
5.95645e-08
5.9582e-08
5.75577e-08
5.9551e-08
5.9567e-08
5.75783e-08
6.16398e-08
5.75487e-08
5.95688e-08
5.95578e-08
6.1625e-08
6.02485e-08
6.43057e-08
6.02358e-08
6.02266e-08
6.22445e-08
6.22354e-08
6.02338e-08
6.4293e-08
6.0234e-08
6.02516e-08
6.22427e-08
6.22602e-08
6.02368e-08
6.22296e-08
6.22453e-08
6.02571e-08
6.43185e-08
6.02277e-08
6.22471e-08
6.22361e-08
6.43033e-08
6.29273e-08
6.69829e-08
6.2914e-08
6.2905e-08
6.49223e-08
6.4913e-08
6.29129e-08
6.69704e-08
6.29121e-08
6.29297e-08
6.49204e-08
6.49377e-08
6.29148e-08
6.49072e-08
6.49231e-08
6.2936e-08
6.6995e-08
6.29055e-08
6.49244e-08
6.49138e-08
6.6981e-08
6.56043e-08
6.96608e-08
6.55917e-08
6.55825e-08
6.76002e-08
6.75912e-08
6.55902e-08
6.96488e-08
6.55897e-08
6.56068e-08
6.75984e-08
6.76159e-08
6.55926e-08
6.75853e-08
6.76004e-08
6.56119e-08
6.96734e-08
6.55833e-08
6.76026e-08
6.75913e-08
6.96578e-08
6.82821e-08
7.23393e-08
6.82694e-08
6.82606e-08
7.02783e-08
7.02689e-08
6.82688e-08
7.23257e-08
6.82676e-08
6.82853e-08
7.02765e-08
7.02941e-08
6.82701e-08
7.02631e-08
7.02792e-08
6.82905e-08
7.23518e-08
6.82608e-08
7.02808e-08
7.027e-08
7.2337e-08
7.09608e-08
7.50174e-08
7.09476e-08
7.09384e-08
7.29564e-08
7.29475e-08
7.09451e-08
7.5005e-08
7.09459e-08
7.09636e-08
7.29546e-08
7.29726e-08
7.09487e-08
7.29416e-08
7.29571e-08
7.09691e-08
7.50302e-08
7.09396e-08
7.29594e-08
7.2948e-08
7.50146e-08
7.36388e-08
7.76951e-08
7.36257e-08
7.36171e-08
7.56341e-08
7.56247e-08
7.36252e-08
7.76817e-08
7.3624e-08
7.3642e-08
7.56323e-08
7.56504e-08
7.36267e-08
7.5619e-08
7.56351e-08
7.36472e-08
7.77083e-08
7.36177e-08
7.56372e-08
7.5626e-08
7.76929e-08
7.63163e-08
8.03721e-08
7.63032e-08
7.62941e-08
7.83114e-08
7.83027e-08
7.63014e-08
8.03603e-08
7.63014e-08
7.63191e-08
7.83095e-08
7.83271e-08
7.63044e-08
7.82968e-08
7.83122e-08
7.63253e-08
8.03845e-08
7.62953e-08
7.83138e-08
7.83027e-08
8.03697e-08
7.89936e-08
8.30504e-08
7.89808e-08
7.89723e-08
8.09897e-08
8.09806e-08
7.89802e-08
8.30381e-08
7.89789e-08
7.89964e-08
8.09879e-08
8.10059e-08
7.89818e-08
8.09749e-08
8.09904e-08
7.90015e-08
8.30635e-08
7.89724e-08
8.09923e-08
8.09812e-08
8.30482e-08
8.16718e-08
8.57288e-08
8.16591e-08
8.16498e-08
8.36678e-08
8.36584e-08
8.16579e-08
8.57156e-08
8.16573e-08
8.1675e-08
8.36661e-08
8.36839e-08
8.16599e-08
8.36525e-08
8.36682e-08
8.16806e-08
8.57417e-08
8.16508e-08
8.36706e-08
8.36592e-08
8.57259e-08
8.43503e-08
8.84073e-08
8.43374e-08
8.43281e-08
8.63465e-08
8.63371e-08
8.43354e-08
8.83941e-08
8.43357e-08
8.43533e-08
8.63446e-08
8.63622e-08
8.43381e-08
8.6331e-08
8.63464e-08
8.4359e-08
8.84201e-08
8.4329e-08
8.63489e-08
8.63376e-08
8.84041e-08
8.70291e-08
9.10842e-08
8.70163e-08
8.7007e-08
8.90268e-08
8.90146e-08
8.7014e-08
9.10694e-08
8.70143e-08
8.70319e-08
8.90212e-08
8.90401e-08
8.70161e-08
8.90077e-08
8.90232e-08
8.70374e-08
9.10961e-08
8.70074e-08
8.90263e-08
8.90145e-08
1.96835e-08
4.00962e-08
3.6941e-08
1.70991e-08
4.04533e-08
3.59565e-08
1.97256e-08
4.00776e-08
3.69649e-08
1.71367e-08
4.25865e-08
4.26105e-08
4.25979e-08
4.46009e-08
4.45915e-08
4.46145e-08
4.46031e-08
2.01552e-08
4.09622e-08
3.84203e-08
4.48179e-08
6.32894e-08
3.90886e-08
1.97127e-08
4.04631e-08
3.59654e-08
2.01844e-08
3.84336e-08
4.09724e-08
4.48353e-08
3.91014e-08
6.33018e-08
1.97389e-08
4.65129e-08
4.64996e-08
4.68878e-08
5.36928e-08
5.36649e-08
2.23579e-08
4.27617e-08
1.97504e-08
3.96192e-08
4.31233e-08
3.86358e-08
2.24001e-08
4.27438e-08
1.97883e-08
3.96432e-08
4.52612e-08
4.52844e-08
4.52731e-08
4.72807e-08
4.72708e-08
4.72945e-08
4.72832e-08
2.28305e-08
4.36108e-08
4.1095e-08
4.74941e-08
2.23775e-08
6.59675e-08
4.17647e-08
4.31346e-08
3.86439e-08
2.28592e-08
4.11079e-08
4.36184e-08
4.7511e-08
2.24049e-08
4.17776e-08
6.59803e-08
4.9201e-08
4.91836e-08
4.95673e-08
5.63742e-08
5.63455e-08
2.5038e-08
4.54419e-08
2.24311e-08
4.22993e-08
4.58036e-08
4.13158e-08
2.50807e-08
4.54241e-08
2.24691e-08
4.23237e-08
4.79409e-08
4.79645e-08
4.79532e-08
4.99609e-08
4.99508e-08
4.99744e-08
4.99631e-08
2.55105e-08
4.62897e-08
4.3775e-08
5.0174e-08
2.50581e-08
6.86472e-08
4.44448e-08
4.5814e-08
4.13245e-08
2.5539e-08
4.3788e-08
4.62991e-08
5.01914e-08
2.50857e-08
4.44577e-08
6.86597e-08
5.18792e-08
5.18616e-08
5.22477e-08
5.9054e-08
5.90253e-08
2.77173e-08
4.81219e-08
2.51111e-08
4.49787e-08
4.8483e-08
4.39951e-08
2.77596e-08
4.8104e-08
2.51492e-08
4.50027e-08
5.06208e-08
5.06443e-08
5.0633e-08
5.26395e-08
5.26299e-08
5.26532e-08
5.26422e-08
2.81898e-08
4.89706e-08
4.64548e-08
5.28537e-08
2.77379e-08
7.13268e-08
4.71243e-08
4.84946e-08
4.40037e-08
2.82178e-08
4.64677e-08
4.89778e-08
5.28708e-08
2.77647e-08
4.71372e-08
7.13395e-08
5.45608e-08
5.45429e-08
5.49267e-08
6.17332e-08
6.17043e-08
3.03963e-08
5.08009e-08
2.77904e-08
4.76574e-08
5.11617e-08
4.66738e-08
3.04389e-08
5.07825e-08
2.78281e-08
4.76817e-08
5.32996e-08
5.33227e-08
5.33119e-08
5.53184e-08
5.53086e-08
5.5332e-08
5.5321e-08
3.08692e-08
5.16491e-08
4.91338e-08
5.55324e-08
3.04177e-08
7.40062e-08
4.98032e-08
5.11735e-08
4.66827e-08
3.08974e-08
4.91465e-08
5.16567e-08
5.55493e-08
3.04446e-08
4.98159e-08
7.4018e-08
5.72389e-08
5.72216e-08
5.76053e-08
6.44123e-08
6.43835e-08
3.30745e-08
5.34793e-08
3.04686e-08
5.03359e-08
5.3841e-08
4.93532e-08
3.31172e-08
5.34615e-08
3.0507e-08
5.03599e-08
5.59783e-08
5.60019e-08
5.59907e-08
5.79979e-08
5.79875e-08
5.80114e-08
5.8e-08
3.35471e-08
5.43265e-08
5.18123e-08
5.82115e-08
3.30952e-08
7.66839e-08
5.24819e-08
5.38519e-08
4.93609e-08
3.35759e-08
5.18255e-08
5.43356e-08
5.82285e-08
3.31232e-08
5.24949e-08
7.66974e-08
5.99176e-08
5.99002e-08
6.02848e-08
6.70909e-08
6.70621e-08
3.57539e-08
5.61583e-08
3.31476e-08
5.30148e-08
5.65198e-08
5.20314e-08
3.57963e-08
5.61397e-08
3.31852e-08
5.30391e-08
5.86573e-08
5.8681e-08
5.86698e-08
6.0676e-08
6.06661e-08
6.06894e-08
6.06782e-08
3.62266e-08
5.70057e-08
5.44916e-08
6.089e-08
3.57752e-08
7.93631e-08
5.51609e-08
5.65302e-08
5.20399e-08
3.62546e-08
5.45045e-08
5.70144e-08
6.09073e-08
3.58022e-08
5.51738e-08
7.93756e-08
6.25965e-08
6.25793e-08
6.29638e-08
6.97698e-08
6.97408e-08
3.84319e-08
5.88364e-08
3.58258e-08
5.56933e-08
5.91976e-08
5.47092e-08
3.84745e-08
5.88181e-08
3.58636e-08
5.57176e-08
6.13356e-08
6.13589e-08
6.13476e-08
6.33538e-08
6.33436e-08
6.33669e-08
6.33559e-08
3.89043e-08
5.96844e-08
5.71696e-08
6.35681e-08
3.8453e-08
8.20407e-08
5.78387e-08
5.92097e-08
5.47186e-08
3.89318e-08
5.71824e-08
5.96926e-08
6.35853e-08
3.848e-08
5.78514e-08
8.2053e-08
6.52755e-08
6.52579e-08
6.56414e-08
7.2448e-08
7.2419e-08
4.11098e-08
6.15147e-08
3.85039e-08
5.83708e-08
6.1876e-08
5.7387e-08
4.11519e-08
6.14965e-08
3.85417e-08
5.83949e-08
6.40131e-08
6.40363e-08
6.40254e-08
6.60317e-08
6.60216e-08
6.60451e-08
6.60335e-08
4.1582e-08
6.23614e-08
5.98472e-08
6.62458e-08
4.11307e-08
8.47185e-08
6.05164e-08
6.18866e-08
5.7396e-08
4.16097e-08
5.98598e-08
6.23695e-08
6.62627e-08
4.11576e-08
6.05291e-08
8.47312e-08
6.79529e-08
6.7935e-08
6.83192e-08
7.51254e-08
7.50968e-08
4.37876e-08
6.41925e-08
4.11817e-08
6.10489e-08
6.45545e-08
6.00655e-08
4.38303e-08
6.4174e-08
4.12199e-08
6.10732e-08
6.6691e-08
6.67147e-08
6.67032e-08
6.87096e-08
6.86996e-08
6.87234e-08
6.87121e-08
4.42602e-08
6.50394e-08
6.25251e-08
6.8924e-08
4.38086e-08
8.73965e-08
6.31945e-08
6.4564e-08
6.00736e-08
4.42883e-08
6.25381e-08
6.50494e-08
6.8941e-08
4.38365e-08
6.32074e-08
8.74097e-08
7.06292e-08
7.06117e-08
7.09974e-08
7.78043e-08
7.77753e-08
4.64657e-08
6.68701e-08
4.38593e-08
6.37271e-08
6.7231e-08
6.27425e-08
4.65082e-08
6.68521e-08
4.38976e-08
6.37514e-08
6.93694e-08
6.9393e-08
6.93818e-08
7.13878e-08
7.13782e-08
7.14019e-08
7.13903e-08
4.69387e-08
6.77179e-08
6.52035e-08
7.16021e-08
4.64871e-08
9.0076e-08
6.5873e-08
6.72426e-08
6.27521e-08
4.69668e-08
6.52165e-08
6.77267e-08
7.16196e-08
4.65145e-08
6.58859e-08
9.00883e-08
7.33085e-08
7.32915e-08
7.36753e-08
8.04818e-08
8.04532e-08
4.91438e-08
6.95484e-08
4.65377e-08
6.64051e-08
6.99098e-08
6.54211e-08
4.91869e-08
6.95303e-08
4.65763e-08
6.64296e-08
7.20476e-08
7.20715e-08
7.20599e-08
7.40656e-08
7.40555e-08
7.40794e-08
7.40681e-08
4.96163e-08
7.03963e-08
6.78816e-08
7.42802e-08
4.91648e-08
9.27527e-08
6.85508e-08
6.99205e-08
6.54303e-08
4.96462e-08
6.7895e-08
7.04063e-08
7.42979e-08
4.91938e-08
6.85644e-08
9.27671e-08
7.59856e-08
7.59681e-08
7.63539e-08
8.31602e-08
8.31317e-08
5.18209e-08
7.22256e-08
4.92149e-08
6.90819e-08
7.25869e-08
6.80979e-08
5.18631e-08
7.22074e-08
4.92529e-08
6.9106e-08
7.47249e-08
7.47485e-08
7.47375e-08
7.6743e-08
7.67334e-08
7.67564e-08
7.67452e-08
5.22941e-08
7.30735e-08
7.05591e-08
7.69575e-08
5.18429e-08
9.54309e-08
7.12283e-08
7.25989e-08
6.81071e-08
5.23216e-08
7.05722e-08
7.30814e-08
7.69745e-08
5.18708e-08
7.1241e-08
9.54434e-08
7.86641e-08
7.86471e-08
7.90299e-08
8.5837e-08
8.5808e-08
5.44989e-08
7.49033e-08
5.18926e-08
7.17602e-08
7.52651e-08
7.07767e-08
5.45414e-08
7.48847e-08
5.19302e-08
7.17845e-08
7.74029e-08
7.7426e-08
7.74148e-08
7.94211e-08
7.94112e-08
7.94349e-08
7.94233e-08
5.49718e-08
7.57516e-08
7.32368e-08
7.96355e-08
5.45199e-08
9.81083e-08
7.39061e-08
7.52749e-08
7.0785e-08
5.49991e-08
7.32493e-08
7.57599e-08
7.96523e-08
5.45471e-08
7.39186e-08
9.81212e-08
8.13414e-08
8.13239e-08
8.17092e-08
8.85155e-08
8.84866e-08
5.71768e-08
7.75822e-08
5.45712e-08
7.44384e-08
7.7944e-08
7.34548e-08
5.72202e-08
7.75637e-08
5.46095e-08
7.4463e-08
8.00804e-08
8.01043e-08
8.00929e-08
8.20994e-08
8.20891e-08
8.21131e-08
8.21014e-08
5.76496e-08
7.84284e-08
7.59146e-08
8.23132e-08
5.71981e-08
1.00786e-07
7.65839e-08
7.79544e-08
7.34632e-08
5.76781e-08
7.59276e-08
7.84369e-08
8.23305e-08
5.72257e-08
7.6597e-08
1.00801e-07
8.40201e-08
8.40028e-08
8.43865e-08
9.11933e-08
9.11645e-08
5.98549e-08
8.02599e-08
5.72489e-08
7.71162e-08
8.06211e-08
7.61322e-08
5.98978e-08
8.02418e-08
5.7287e-08
7.71408e-08
8.27588e-08
8.27826e-08
8.27712e-08
8.47781e-08
8.4768e-08
8.47914e-08
8.47797e-08
6.03278e-08
8.11071e-08
7.85929e-08
8.49916e-08
5.98761e-08
1.03465e-07
7.92623e-08
8.06327e-08
7.61426e-08
6.03562e-08
7.86063e-08
8.11165e-08
8.50093e-08
5.99044e-08
7.92756e-08
1.03478e-07
8.66979e-08
8.66803e-08
8.70654e-08
9.38714e-08
9.38431e-08
6.25339e-08
8.29375e-08
5.99271e-08
7.97934e-08
8.32982e-08
7.88102e-08
6.2577e-08
8.29203e-08
5.99657e-08
7.98202e-08
8.54377e-08
8.54612e-08
8.54494e-08
8.7456e-08
8.74445e-08
8.74689e-08
8.74561e-08
6.30063e-08
8.37848e-08
8.1271e-08
8.76703e-08
6.25536e-08
1.06142e-07
8.19406e-08
8.33116e-08
7.88204e-08
6.30367e-08
8.12848e-08
8.37929e-08
8.76884e-08
6.25824e-08
8.19547e-08
1.06158e-07
4.04378e-08
3.59382e-08
4.04532e-08
3.59591e-08
4.65558e-08
4.65443e-08
4.68952e-08
5.36973e-08
5.36719e-08
3.7278e-08
4.17664e-08
3.72992e-08
4.17825e-08
4.55143e-08
5.5036e-08
5.50106e-08
4.78613e-08
4.78514e-08
1.96849e-08
4.00911e-08
3.69615e-08
1.70983e-08
2.01441e-08
4.09743e-08
3.8423e-08
4.48334e-08
6.33534e-08
3.90916e-08
1.97011e-08
2.01427e-08
4.09687e-08
3.8417e-08
4.48246e-08
6.33651e-08
3.90856e-08
1.96979e-08
1.84094e-08
3.82799e-08
4.14191e-08
2.10177e-08
1.84088e-08
3.83e-08
4.14152e-08
2.1019e-08
2.10239e-08
4.55001e-08
6.46911e-08
4.0427e-08
4.22763e-08
3.97587e-08
2.14779e-08
2.1021e-08
4.54914e-08
6.47028e-08
4.0421e-08
4.2272e-08
3.97528e-08
2.14763e-08
4.65644e-08
4.65154e-08
4.68821e-08
5.36988e-08
5.36539e-08
4.04214e-08
3.59276e-08
3.72962e-08
4.17809e-08
4.54992e-08
5.50381e-08
5.4995e-08
4.78681e-08
4.78193e-08
3.72682e-08
4.17495e-08
2.01867e-08
4.09782e-08
3.84365e-08
4.48315e-08
6.33157e-08
3.91044e-08
1.97419e-08
1.97167e-08
4.01091e-08
3.6979e-08
1.71259e-08
2.01835e-08
3.84504e-08
4.0984e-08
4.48492e-08
3.91182e-08
6.33838e-08
1.97378e-08
1.84472e-08
3.83038e-08
4.14017e-08
2.10598e-08
2.10648e-08
4.54985e-08
6.46531e-08
4.04401e-08
4.22814e-08
3.97717e-08
2.15204e-08
1.8436e-08
3.83177e-08
4.14319e-08
2.1051e-08
2.10601e-08
4.5516e-08
4.04537e-08
6.47211e-08
3.97853e-08
4.22853e-08
2.15171e-08
1.96946e-08
4.00623e-08
3.69293e-08
1.71098e-08
2.0152e-08
3.84326e-08
4.09293e-08
4.48308e-08
3.91005e-08
6.3356e-08
1.97102e-08
1.96861e-08
4.00831e-08
3.69418e-08
1.71011e-08
2.10374e-08
4.5485e-08
6.46299e-08
4.04253e-08
4.22651e-08
3.97564e-08
2.1491e-08
1.84224e-08
3.82695e-08
4.13866e-08
2.10309e-08
2.10339e-08
4.54998e-08
4.04375e-08
6.46963e-08
3.97685e-08
4.22702e-08
2.14877e-08
1.84139e-08
3.82827e-08
4.14198e-08
2.10223e-08
4.65766e-08
4.6526e-08
4.69079e-08
5.37125e-08
5.36645e-08
4.04275e-08
3.59332e-08
3.73053e-08
4.17926e-08
4.55229e-08
5.5051e-08
5.50047e-08
4.78827e-08
4.7832e-08
3.72744e-08
4.17566e-08
2.01835e-08
3.84255e-08
4.09281e-08
4.48221e-08
3.90933e-08
6.33148e-08
1.97356e-08
1.97157e-08
4.00752e-08
3.69359e-08
1.71242e-08
1.97181e-08
4.006e-08
3.69543e-08
1.71228e-08
2.1065e-08
4.55025e-08
4.0438e-08
6.4641e-08
3.97692e-08
4.22741e-08
2.15192e-08
2.10629e-08
4.54908e-08
4.04303e-08
6.46537e-08
3.97613e-08
4.22642e-08
2.15178e-08
1.84401e-08
3.82759e-08
4.13981e-08
2.10511e-08
1.84406e-08
3.8294e-08
4.13955e-08
2.10526e-08
4.04217e-08
3.59338e-08
4.0434e-08
3.59504e-08
4.55025e-08
5.50345e-08
5.5006e-08
4.78556e-08
4.78386e-08
3.72756e-08
4.17632e-08
3.72919e-08
4.17732e-08
4.31086e-08
3.86174e-08
4.31247e-08
3.86386e-08
4.92059e-08
4.91954e-08
4.95701e-08
5.63762e-08
5.63507e-08
3.99574e-08
4.44481e-08
3.99787e-08
4.44643e-08
4.81921e-08
5.77162e-08
5.76904e-08
5.05455e-08
5.05355e-08
2.23591e-08
4.27563e-08
1.97495e-08
3.96394e-08
2.28184e-08
4.36199e-08
4.10965e-08
4.7509e-08
2.23628e-08
6.6031e-08
4.17665e-08
2.28167e-08
4.36137e-08
4.10905e-08
4.75002e-08
2.23598e-08
6.6042e-08
4.17604e-08
2.10916e-08
4.09597e-08
4.41014e-08
2.36978e-08
2.10907e-08
4.09797e-08
4.40964e-08
2.36989e-08
2.37039e-08
4.81792e-08
6.7372e-08
4.31066e-08
4.49592e-08
4.24367e-08
2.41583e-08
2.37008e-08
4.81704e-08
6.73826e-08
4.31005e-08
4.49536e-08
4.24306e-08
2.41566e-08
4.92129e-08
4.91666e-08
4.95575e-08
5.63777e-08
5.6334e-08
4.30928e-08
3.86082e-08
3.99758e-08
4.4463e-08
4.8178e-08
5.77174e-08
5.76742e-08
5.0553e-08
5.05056e-08
3.99482e-08
4.44331e-08
2.28611e-08
4.36241e-08
4.11098e-08
4.75073e-08
2.24038e-08
6.5993e-08
4.17798e-08
2.23913e-08
4.27744e-08
1.97773e-08
3.9657e-08
2.28579e-08
4.11235e-08
4.36293e-08
4.75244e-08
2.23993e-08
4.17934e-08
6.60607e-08
2.11298e-08
4.09835e-08
4.40839e-08
2.37399e-08
2.37452e-08
4.81775e-08
6.73334e-08
4.31199e-08
4.49642e-08
4.24501e-08
2.42009e-08
2.11186e-08
4.09972e-08
4.41143e-08
2.37309e-08
2.37406e-08
4.81947e-08
4.31337e-08
6.74018e-08
4.24636e-08
4.49679e-08
2.41976e-08
2.237e-08
4.273e-08
1.97645e-08
3.96085e-08
2.28279e-08
4.11073e-08
4.3613e-08
4.75099e-08
2.23736e-08
4.17772e-08
6.6037e-08
2.23622e-08
4.27621e-08
1.97552e-08
3.96231e-08
2.37176e-08
4.81643e-08
6.73093e-08
4.3105e-08
4.4948e-08
4.24349e-08
2.41714e-08
2.11046e-08
4.09493e-08
4.4069e-08
2.37111e-08
2.37145e-08
4.81803e-08
4.31175e-08
6.73771e-08
4.24475e-08
4.49539e-08
2.41683e-08
2.10962e-08
4.09627e-08
4.41032e-08
2.37025e-08
4.92275e-08
4.9178e-08
4.95814e-08
5.63895e-08
5.63442e-08
4.31001e-08
3.86138e-08
3.99841e-08
4.44729e-08
4.81991e-08
5.77308e-08
5.76851e-08
5.05642e-08
5.05146e-08
3.99536e-08
4.44386e-08
2.28583e-08
4.11003e-08
4.36066e-08
4.75008e-08
2.24024e-08
4.17702e-08
6.59942e-08
2.23905e-08
4.27415e-08
1.97821e-08
3.96155e-08
2.23926e-08
4.27373e-08
1.97819e-08
3.96343e-08
2.37455e-08
4.81814e-08
4.3118e-08
6.7322e-08
4.24479e-08
4.49567e-08
2.41999e-08
2.37434e-08
4.81711e-08
4.31104e-08
6.73341e-08
4.24404e-08
4.49467e-08
2.41985e-08
2.11226e-08
4.09558e-08
4.40812e-08
2.37312e-08
2.11229e-08
4.09738e-08
4.40781e-08
2.37327e-08
4.31066e-08
3.86154e-08
4.31165e-08
3.86317e-08
4.8183e-08
5.77142e-08
5.76855e-08
5.05394e-08
5.05218e-08
3.99549e-08