/*--------------------------------*- C++ -*----------------------------------*\
| =========                 |                                                 |
| \\      /  F ield         | OpenFOAM: The Open Source CFD Toolbox           |
|  \\    /   O peration     | Version:  2206                                  |
|   \\  /    A nd           | Website:  www.openfoam.com                      |
|    \\/     M anipulation  |                                                 |
\*---------------------------------------------------------------------------*/
FoamFile
{
    version     2.0;
    format      ascii;
    arch        "LSB;label=32;scalar=64";
    class       volScalarField;
    location    "30";
    object      p;
}
// * * * * * * * * * * * * * * * * * * * * * * * * * * * * * * * * * * * * * //

dimensions      [0 2 -2 0 0 0 0];

internalField   nonuniform List<scalar> 
171728
(
0.00397059
0.00397092
0.00397092
0.00397397
0.00391522
0.00391565
0.00391564
0.00391864
0.00386447
0.00386444
0.00386444
0.0038672
0.00381206
0.0038121
0.0038121
0.00381487
0.00376077
0.00376078
0.00376078
0.00376353
0.00371127
0.00371111
0.00371111
0.00371368
0.00366582
0.00366567
0.00366567
0.00366811
0.0036236
0.00362354
0.00362354
0.00362604
0.00358185
0.00358181
0.00358181
0.00358428
0.0035402
0.00354016
0.00354016
0.00354262
0.00349856
0.00349852
0.00349852
0.00350098
0.00345692
0.00345688
0.00345688
0.00345935
0.00341528
0.00341525
0.00341525
0.00341771
0.00337364
0.00337361
0.00337361
0.00337607
0.00333201
0.00333197
0.00333197
0.00333443
0.00329037
0.00329033
0.00329033
0.0032928
0.00324874
0.0032487
0.0032487
0.00325116
0.0032071
0.00320706
0.00320706
0.00320953
0.00316546
0.00316542
0.00316542
0.00316788
0.00312381
0.00312377
0.00312377
0.00312623
0.00308217
0.00308214
0.00308213
0.0030846
0.00304053
0.00304049
0.00304049
0.00304296
0.00299889
0.00299885
0.00299885
0.00300131
0.00295725
0.00295721
0.00295721
0.00295967
0.00291561
0.00291557
0.00291557
0.00291803
0.00287397
0.00287393
0.00287393
0.00287639
0.00283233
0.00283229
0.00283229
0.00283475
0.00279069
0.00279065
0.00279065
0.00279311
0.00274905
0.00274901
0.00274901
0.00275147
0.00270741
0.00270737
0.00270737
0.00270983
0.00266577
0.00266573
0.00266573
0.00266819
0.00262413
0.00262409
0.00262409
0.00262655
0.00258249
0.00258245
0.00258245
0.00258491
0.00254085
0.00254081
0.00254081
0.00254327
0.00249921
0.00249918
0.00249918
0.00250164
0.00245757
0.00245754
0.00245754
0.00246
0.00241592
0.00241589
0.00241589
0.00241835
0.00237428
0.00237424
0.00237424
0.0023767
0.00233264
0.0023326
0.0023326
0.00233506
0.002291
0.00229096
0.00229096
0.00229342
0.00224936
0.00224932
0.00224932
0.00225178
0.00220771
0.00220768
0.00220768
0.00221014
0.00216607
0.00216604
0.00216604
0.0021685
0.00212443
0.00212439
0.00212439
0.00212685
0.00208279
0.00208275
0.00208275
0.00208521
0.00204114
0.00204111
0.00204111
0.00204357
0.0019995
0.00199946
0.00199946
0.00200192
0.00195786
0.00195782
0.00195782
0.00196028
0.00191621
0.00191617
0.00191617
0.00191863
0.00187456
0.00187453
0.00187453
0.00187699
0.00183292
0.00183288
0.00183288
0.00183534
0.00179128
0.00179124
0.00179124
0.0017937
0.00174963
0.0017496
0.0017496
0.00175206
0.00170799
0.00170795
0.00170795
0.00171041
0.00166633
0.00166629
0.00166629
0.00166876
0.00162468
0.00162465
0.00162465
0.00162711
0.00158304
0.001583
0.001583
0.00158547
0.0015414
0.00154136
0.00154136
0.00154382
0.00149975
0.00149972
0.00149972
0.00150218
0.00145811
0.00145807
0.00145807
0.00146053
0.00141646
0.00141643
0.00141643
0.00141889
0.00137482
0.00137478
0.00137478
0.00137725
0.00133318
0.00133314
0.00133314
0.0013356
0.00129154
0.0012915
0.0012915
0.00129396
0.00124989
0.00124986
0.00124986
0.00125232
0.00120825
0.00120822
0.00120822
0.00121068
0.00116661
0.00116658
0.00116658
0.00116904
0.00112497
0.00112494
0.00112494
0.0011274
0.00108334
0.0010833
0.0010833
0.00108576
0.0010417
0.00104166
0.00104166
0.00104412
0.00100006
0.00100002
0.00100002
0.00100248
0.000958407
0.00095837
0.000958369
0.000960831
0.00091676
0.000916723
0.000916723
0.000919185
0.000875118
0.000875081
0.000875081
0.000877543
0.000833477
0.00083344
0.00083344
0.000835902
0.000791836
0.000791799
0.000791799
0.00079426
0.000750193
0.000750157
0.000750157
0.000752618
0.000708551
0.000708515
0.000708515
0.000710976
0.000666909
0.000666872
0.000666872
0.000669333
0.000625267
0.00062523
0.00062523
0.000627692
0.000583625
0.000583589
0.000583589
0.00058605
0.000541983
0.000541947
0.000541946
0.000544408
0.000500341
0.000500304
0.000500304
0.000502766
0.000458698
0.000458661
0.000458661
0.000461123
0.000417056
0.000417019
0.000417019
0.000419481
0.000375415
0.000375378
0.000375378
0.000377839
0.000333775
0.000333738
0.000333738
0.000336199
0.000292131
0.000292097
0.000292096
0.000294558
0.000250474
0.000250433
0.000250434
0.000252893
0.00020882
0.000208791
0.000208791
0.000211247
0.000167154
0.00016711
0.000167109
0.000169561
0.000125489
0.000125461
0.00012546
0.000127895
8.38288e-05
8.37876e-05
8.37861e-05
8.61965e-05
4.28441e-05
4.22912e-05
4.22882e-05
4.4562e-05
9.04099e-06
9.23277e-06
9.22993e-06
8.77562e-06
0.003984
0.00398422
0.00398422
0.003984
0.00398422
0.00398422
0.00398499
0.00398499
0.00398499
0.00398499
0.00398422
0.00398422
0.003984
0.00398423
0.00398423
0.003984
0.00397397
0.00392522
0.00397091
0.00397092
0.00392749
0.0039275
0.00397397
0.00392521
0.00397092
0.00397092
0.00392749
0.00392749
0.00397092
0.00392749
0.00392749
0.00397397
0.00392522
0.00397092
0.00392749
0.00392749
0.00392521
0.00391864
0.00387413
0.00391565
0.00391565
0.00387758
0.00387758
0.00391864
0.00387413
0.00391565
0.00391565
0.00387758
0.00387758
0.00391565
0.00387758
0.00387758
0.00391864
0.00387413
0.00391564
0.00387758
0.00387758
0.00387413
0.0038672
0.00382176
0.00386444
0.00386445
0.00382511
0.00382511
0.0038672
0.00382176
0.00386444
0.00386444
0.00382511
0.00382511
0.00386444
0.00382511
0.00382511
0.0038672
0.00382176
0.00386444
0.00382511
0.00382511
0.00382176
0.00381487
0.00377026
0.0038121
0.0038121
0.0037735
0.0037735
0.00381487
0.00377026
0.0038121
0.0038121
0.0037735
0.0037735
0.0038121
0.0037735
0.0037735
0.00381487
0.00377026
0.0038121
0.0037735
0.0037735
0.00377026
0.00376353
0.0037201
0.00376078
0.00376079
0.0037232
0.0037232
0.00376353
0.0037201
0.00376078
0.00376079
0.0037232
0.0037232
0.00376078
0.0037232
0.0037232
0.00376353
0.0037201
0.00376078
0.0037232
0.0037232
0.00372009
0.00371368
0.00367378
0.00371111
0.00371111
0.00367655
0.00367655
0.00371368
0.00367378
0.00371111
0.00371111
0.00367654
0.00367654
0.00371111
0.00367654
0.00367654
0.00371368
0.00367378
0.00371111
0.00367654
0.00367654
0.00367378
0.00366811
0.00363155
0.00366567
0.00366567
0.00363401
0.00363401
0.00366811
0.00363155
0.00366567
0.00366567
0.00363401
0.00363401
0.00366567
0.00363401
0.00363401
0.00366811
0.00363155
0.00366567
0.00363401
0.00363401
0.00363155
0.00362604
0.00358977
0.00362354
0.00362354
0.00359223
0.00359223
0.00362604
0.00358977
0.00362354
0.00362354
0.00359223
0.00359223
0.00362354
0.00359223
0.00359223
0.00362604
0.00358977
0.00362355
0.00359223
0.00359223
0.00358977
0.00358428
0.00354812
0.00358181
0.00358181
0.00355057
0.00355057
0.00358428
0.00354812
0.00358181
0.00358181
0.00355057
0.00355057
0.00358181
0.00355057
0.00355057
0.00358428
0.00354812
0.00358181
0.00355057
0.00355057
0.00354812
0.00354262
0.00350648
0.00354016
0.00354016
0.00350893
0.00350893
0.00354262
0.00350648
0.00354016
0.00354016
0.00350893
0.00350893
0.00354016
0.00350893
0.00350893
0.00354262
0.00350648
0.00354016
0.00350893
0.00350893
0.00350648
0.00350098
0.00346484
0.00349852
0.00349852
0.00346729
0.00346729
0.00350098
0.00346484
0.00349852
0.00349852
0.00346729
0.00346729
0.00349852
0.00346729
0.00346729
0.00350098
0.00346484
0.00349852
0.00346729
0.00346729
0.00346484
0.00345935
0.0034232
0.00345688
0.00345688
0.00342566
0.00342566
0.00345934
0.0034232
0.00345688
0.00345688
0.00342566
0.00342566
0.00345688
0.00342566
0.00342566
0.00345935
0.0034232
0.00345688
0.00342566
0.00342566
0.0034232
0.00341771
0.00338156
0.00341525
0.00341525
0.00338402
0.00338402
0.00341771
0.00338156
0.00341525
0.00341525
0.00338402
0.00338402
0.00341525
0.00338402
0.00338402
0.00341771
0.00338156
0.00341525
0.00338402
0.00338402
0.00338156
0.00337607
0.00333992
0.00337361
0.00337361
0.00334238
0.00334238
0.00337607
0.00333993
0.00337361
0.00337361
0.00334238
0.00334238
0.00337361
0.00334238
0.00334238
0.00337607
0.00333992
0.00337361
0.00334238
0.00334238
0.00333992
0.00333443
0.00329829
0.00333197
0.00333197
0.00330074
0.00330074
0.00333443
0.00329829
0.00333197
0.00333197
0.00330074
0.00330074
0.00333197
0.00330074
0.00330074
0.00333443
0.00329829
0.00333197
0.00330074
0.00330074
0.00329829
0.00329279
0.00325665
0.00329033
0.00329033
0.00325911
0.00325911
0.00329279
0.00325665
0.00329033
0.00329033
0.00325911
0.00325911
0.00329033
0.00325911
0.00325911
0.0032928
0.00325665
0.00329033
0.00325911
0.00325911
0.00325665
0.00325116
0.00321502
0.0032487
0.0032487
0.00321747
0.00321747
0.00325116
0.00321502
0.0032487
0.0032487
0.00321747
0.00321747
0.0032487
0.00321747
0.00321747
0.00325116
0.00321502
0.0032487
0.00321747
0.00321747
0.00321502
0.00320953
0.00317338
0.00320707
0.00320706
0.00317583
0.00317583
0.00320953
0.00317338
0.00320706
0.00320706
0.00317583
0.00317583
0.00320706
0.00317583
0.00317583
0.00320953
0.00317338
0.00320706
0.00317583
0.00317583
0.00317338
0.00316788
0.00313173
0.00316542
0.00316542
0.00313418
0.00313418
0.00316788
0.00313173
0.00316542
0.00316542
0.00313418
0.00313418
0.00316542
0.00313418
0.00313418
0.00316788
0.00313173
0.00316542
0.00313418
0.00313418
0.00313173
0.00312623
0.00309009
0.00312377
0.00312377
0.00309254
0.00309254
0.00312623
0.00309009
0.00312377
0.00312377
0.00309254
0.00309254
0.00312377
0.00309254
0.00309254
0.00312623
0.00309009
0.00312377
0.00309254
0.00309254
0.00309009
0.0030846
0.00304845
0.00308213
0.00308214
0.0030509
0.0030509
0.0030846
0.00304845
0.00308213
0.00308213
0.0030509
0.00305091
0.00308213
0.0030509
0.00305091
0.0030846
0.00304845
0.00308213
0.00305091
0.00305091
0.00304845
0.00304296
0.00300681
0.00304049
0.00304049
0.00300926
0.00300926
0.00304296
0.00300681
0.00304049
0.00304049
0.00300926
0.00300926
0.00304049
0.00300926
0.00300926
0.00304296
0.00300681
0.0030405
0.00300926
0.00300926
0.00300681
0.00300131
0.00296517
0.00299885
0.00299885
0.00296762
0.00296762
0.00300131
0.00296517
0.00299885
0.00299885
0.00296762
0.00296762
0.00299885
0.00296762
0.00296762
0.00300131
0.00296517
0.00299885
0.00296762
0.00296762
0.00296517
0.00295967
0.00292353
0.00295721
0.00295721
0.00292598
0.00292598
0.00295967
0.00292353
0.00295721
0.00295721
0.00292598
0.00292598
0.00295721
0.00292598
0.00292598
0.00295967
0.00292353
0.00295721
0.00292598
0.00292598
0.00292353
0.00291803
0.00288189
0.00291557
0.00291557
0.00288434
0.00288434
0.00291803
0.00288189
0.00291557
0.00291557
0.00288434
0.00288434
0.00291557
0.00288434
0.00288434
0.00291803
0.00288189
0.00291557
0.00288434
0.00288434
0.00288189
0.00287639
0.00284025
0.00287393
0.00287393
0.0028427
0.0028427
0.00287639
0.00284025
0.00287393
0.00287393
0.0028427
0.0028427
0.00287393
0.0028427
0.0028427
0.00287639
0.00284025
0.00287393
0.0028427
0.0028427
0.00284025
0.00283475
0.00279861
0.00283229
0.00283229
0.00280106
0.00280106
0.00283475
0.00279861
0.00283229
0.00283229
0.00280106
0.00280106
0.00283229
0.00280106
0.00280106
0.00283475
0.00279861
0.00283229
0.00280106
0.00280106
0.00279861
0.00279311
0.00275697
0.00279065
0.00279065
0.00275942
0.00275942
0.00279311
0.00275697
0.00279065
0.00279065
0.00275942
0.00275942
0.00279065
0.00275942
0.00275942
0.00279311
0.00275697
0.00279065
0.00275942
0.00275942
0.00275697
0.00275147
0.00271533
0.00274901
0.00274901
0.00271778
0.00271778
0.00275147
0.00271533
0.00274901
0.00274901
0.00271778
0.00271778
0.00274901
0.00271778
0.00271778
0.00275147
0.00271533
0.00274901
0.00271778
0.00271778
0.00271533
0.00270983
0.00267368
0.00270737
0.00270737
0.00267614
0.00267614
0.00270983
0.00267369
0.00270737
0.00270737
0.00267614
0.00267614
0.00270737
0.00267614
0.00267614
0.00270983
0.00267368
0.00270737
0.00267614
0.00267614
0.00267368
0.00266819
0.00263204
0.00266573
0.00266573
0.0026345
0.0026345
0.00266819
0.00263204
0.00266573
0.00266573
0.0026345
0.0026345
0.00266573
0.0026345
0.0026345
0.00266819
0.00263204
0.00266573
0.0026345
0.0026345
0.00263204
0.00262655
0.00259041
0.00262409
0.00262409
0.00259286
0.00259286
0.00262655
0.00259041
0.00262409
0.00262409
0.00259286
0.00259286
0.00262409
0.00259286
0.00259286
0.00262655
0.00259041
0.00262409
0.00259286
0.00259286
0.00259041
0.00258491
0.00254877
0.00258245
0.00258245
0.00255122
0.00255122
0.00258491
0.00254877
0.00258245
0.00258245
0.00255122
0.00255122
0.00258245
0.00255122
0.00255122
0.00258491
0.00254877
0.00258245
0.00255122
0.00255122
0.00254877
0.00254327
0.00250713
0.00254081
0.00254081
0.00250959
0.00250959
0.00254327
0.00250713
0.00254081
0.00254081
0.00250959
0.00250959
0.00254081
0.00250959
0.00250959
0.00254327
0.00250713
0.00254081
0.00250959
0.00250959
0.00250713
0.00250164
0.00246549
0.00249918
0.00249918
0.00246795
0.00246795
0.00250164
0.00246549
0.00249918
0.00249918
0.00246795
0.00246795
0.00249918
0.00246795
0.00246795
0.00250164
0.00246549
0.00249918
0.00246795
0.00246795
0.00246549
0.00246
0.00242384
0.00245754
0.00245754
0.0024263
0.0024263
0.00246
0.00242385
0.00245754
0.00245754
0.0024263
0.0024263
0.00245754
0.0024263
0.0024263
0.00246
0.00242384
0.00245754
0.0024263
0.0024263
0.00242385
0.00241835
0.0023822
0.00241589
0.00241589
0.00238465
0.00238465
0.00241835
0.0023822
0.00241589
0.00241589
0.00238465
0.00238465
0.00241589
0.00238465
0.00238465
0.00241835
0.0023822
0.00241589
0.00238465
0.00238465
0.0023822
0.0023767
0.00234056
0.00237424
0.00237424
0.00234301
0.00234301
0.0023767
0.00234056
0.00237424
0.00237424
0.00234301
0.00234301
0.00237424
0.00234301
0.00234301
0.00237671
0.00234056
0.00237424
0.00234301
0.00234301
0.00234056
0.00233506
0.00229892
0.0023326
0.0023326
0.00230137
0.00230137
0.00233506
0.00229892
0.0023326
0.0023326
0.00230137
0.00230137
0.0023326
0.00230137
0.00230137
0.00233506
0.00229892
0.0023326
0.00230137
0.00230137
0.00229892
0.00229342
0.00225728
0.00229096
0.00229096
0.00225973
0.00225973
0.00229342
0.00225728
0.00229096
0.00229096
0.00225973
0.00225973
0.00229096
0.00225973
0.00225973
0.00229342
0.00225728
0.00229096
0.00225973
0.00225973
0.00225728
0.00225178
0.00221563
0.00224932
0.00224932
0.00221809
0.00221809
0.00225178
0.00221563
0.00224932
0.00224932
0.00221809
0.00221809
0.00224932
0.00221809
0.00221809
0.00225178
0.00221563
0.00224932
0.00221809
0.00221809
0.00221563
0.00221014
0.00217399
0.00220768
0.00220768
0.00217645
0.00217645
0.00221014
0.00217399
0.00220768
0.00220768
0.00217645
0.00217645
0.00220768
0.00217645
0.00217645
0.00221014
0.00217399
0.00220768
0.00217645
0.00217645
0.00217399
0.0021685
0.00213235
0.00216604
0.00216603
0.0021348
0.0021348
0.0021685
0.00213235
0.00216604
0.00216604
0.0021348
0.0021348
0.00216604
0.0021348
0.0021348
0.0021685
0.00213235
0.00216604
0.0021348
0.0021348
0.00213235
0.00212685
0.00209071
0.00212439
0.00212439
0.00209316
0.00209316
0.00212685
0.00209071
0.00212439
0.00212439
0.00209316
0.00209316
0.00212439
0.00209316
0.00209316
0.00212685
0.00209071
0.00212439
0.00209316
0.00209316
0.00209071
0.00208521
0.00204906
0.00208275
0.00208275
0.00205152
0.00205152
0.00208521
0.00204906
0.00208275
0.00208275
0.00205152
0.00205152
0.00208275
0.00205152
0.00205152
0.00208521
0.00204906
0.00208275
0.00205152
0.00205152
0.00204906
0.00204357
0.00200742
0.00204111
0.00204111
0.00200987
0.00200987
0.00204357
0.00200742
0.00204111
0.00204111
0.00200987
0.00200987
0.00204111
0.00200987
0.00200987
0.00204357
0.00200742
0.00204111
0.00200987
0.00200987
0.00200742
0.00200192
0.00196578
0.00199946
0.00199946
0.00196823
0.00196823
0.00200192
0.00196578
0.00199946
0.00199946
0.00196823
0.00196823
0.00199946
0.00196823
0.00196823
0.00200192
0.00196578
0.00199946
0.00196823
0.00196823
0.00196578
0.00196028
0.00192413
0.00195782
0.00195782
0.00192658
0.00192658
0.00196028
0.00192413
0.00195782
0.00195782
0.00192658
0.00192658
0.00195782
0.00192658
0.00192658
0.00196028
0.00192413
0.00195782
0.00192658
0.00192658
0.00192413
0.00191863
0.00188248
0.00191617
0.00191617
0.00188494
0.00188494
0.00191863
0.00188248
0.00191617
0.00191617
0.00188494
0.00188494
0.00191617
0.00188494
0.00188494
0.00191863
0.00188248
0.00191617
0.00188494
0.00188494
0.00188248
0.00187699
0.00184084
0.00187453
0.00187453
0.00184329
0.00184329
0.00187699
0.00184084
0.00187453
0.00187453
0.00184329
0.00184329
0.00187453
0.00184329
0.00184329
0.00187699
0.00184084
0.00187453
0.00184329
0.00184329
0.00184084
0.00183534
0.0017992
0.00183288
0.00183288
0.00180165
0.00180165
0.00183534
0.0017992
0.00183288
0.00183288
0.00180165
0.00180165
0.00183288
0.00180165
0.00180165
0.00183534
0.0017992
0.00183288
0.00180165
0.00180165
0.0017992
0.0017937
0.00175755
0.00179124
0.00179124
0.00176001
0.00176001
0.0017937
0.00175755
0.00179124
0.00179124
0.00176001
0.00176001
0.00179124
0.00176001
0.00176001
0.0017937
0.00175755
0.00179124
0.00176001
0.00176001
0.00175755
0.00175206
0.00171591
0.0017496
0.0017496
0.00171836
0.00171836
0.00175206
0.00171591
0.0017496
0.0017496
0.00171836
0.00171836
0.0017496
0.00171836
0.00171836
0.00175206
0.00171591
0.0017496
0.00171836
0.00171836
0.00171591
0.00171041
0.00167425
0.00170795
0.00170795
0.00167671
0.00167671
0.00171041
0.00167425
0.00170795
0.00170795
0.00167671
0.00167671
0.00170795
0.00167671
0.00167671
0.00171041
0.00167425
0.00170795
0.00167671
0.00167671
0.00167425
0.00166876
0.0016326
0.00166629
0.00166629
0.00163506
0.00163506
0.00166876
0.0016326
0.00166629
0.00166629
0.00163506
0.00163506
0.00166629
0.00163506
0.00163506
0.00166876
0.0016326
0.00166629
0.00163506
0.00163506
0.0016326
0.00162711
0.00159096
0.00162465
0.00162465
0.00159342
0.00159342
0.00162711
0.00159096
0.00162465
0.00162465
0.00159341
0.00159342
0.00162465
0.00159342
0.00159342
0.00162711
0.00159096
0.00162465
0.00159342
0.00159341
0.00159096
0.00158547
0.00154932
0.001583
0.001583
0.00155177
0.00155177
0.00158547
0.00154932
0.001583
0.001583
0.00155177
0.00155177
0.001583
0.00155177
0.00155177
0.00158547
0.00154932
0.001583
0.00155177
0.00155177
0.00154932
0.00154382
0.00150767
0.00154136
0.00154136
0.00151013
0.00151013
0.00154382
0.00150767
0.00154136
0.00154136
0.00151013
0.00151013
0.00154136
0.00151013
0.00151013
0.00154382
0.00150767
0.00154136
0.00151013
0.00151013
0.00150767
0.00150218
0.00146603
0.00149972
0.00149972
0.00146848
0.00146848
0.00150218
0.00146603
0.00149972
0.00149972
0.00146848
0.00146848
0.00149972
0.00146848
0.00146848
0.00150218
0.00146603
0.00149972
0.00146848
0.00146848
0.00146603
0.00146053
0.00142438
0.00145807
0.00145807
0.00142684
0.00142684
0.00146053
0.00142438
0.00145807
0.00145807
0.00142684
0.00142684
0.00145807
0.00142684
0.00142684
0.00146053
0.00142438
0.00145807
0.00142684
0.00142684
0.00142438
0.00141889
0.00138274
0.00141643
0.00141643
0.00138519
0.00138519
0.00141889
0.00138274
0.00141643
0.00141643
0.00138519
0.00138519
0.00141643
0.00138519
0.00138519
0.00141889
0.00138274
0.00141643
0.00138519
0.00138519
0.00138274
0.00137725
0.0013411
0.00137478
0.00137478
0.00134355
0.00134355
0.00137725
0.0013411
0.00137478
0.00137478
0.00134355
0.00134355
0.00137478
0.00134355
0.00134355
0.00137725
0.0013411
0.00137478
0.00134355
0.00134355
0.0013411
0.0013356
0.00129946
0.00133314
0.00133314
0.00130191
0.00130191
0.0013356
0.00129946
0.00133314
0.00133314
0.00130191
0.00130191
0.00133314
0.00130191
0.00130191
0.0013356
0.00129946
0.00133314
0.00130191
0.00130191
0.00129946
0.00129396
0.00125781
0.0012915
0.0012915
0.00126027
0.00126027
0.00129396
0.00125781
0.0012915
0.0012915
0.00126027
0.00126027
0.0012915
0.00126027
0.00126027
0.00129396
0.00125781
0.0012915
0.00126027
0.00126027
0.00125781
0.00125232
0.00121617
0.00124986
0.00124986
0.00121863
0.00121863
0.00125232
0.00121617
0.00124986
0.00124986
0.00121863
0.00121863
0.00124986
0.00121863
0.00121863
0.00125232
0.00121617
0.00124986
0.00121863
0.00121863
0.00121617
0.00121068
0.00117453
0.00120822
0.00120822
0.00117699
0.00117698
0.00121068
0.00117453
0.00120822
0.00120822
0.00117698
0.00117699
0.00120822
0.00117699
0.00117699
0.00121068
0.00117453
0.00120822
0.00117699
0.00117699
0.00117453
0.00116904
0.00113289
0.00116658
0.00116658
0.00113535
0.00113535
0.00116904
0.00113289
0.00116658
0.00116658
0.00113535
0.00113535
0.00116658
0.00113535
0.00113535
0.00116904
0.00113289
0.00116658
0.00113535
0.00113535
0.00113289
0.0011274
0.00109125
0.00112494
0.00112494
0.00109371
0.00109371
0.0011274
0.00109125
0.00112494
0.00112494
0.00109371
0.00109371
0.00112494
0.00109371
0.00109371
0.0011274
0.00109125
0.00112494
0.00109371
0.00109371
0.00109125
0.00108576
0.00104962
0.0010833
0.0010833
0.00105207
0.00105207
0.00108576
0.00104962
0.0010833
0.0010833
0.00105207
0.00105207
0.0010833
0.00105207
0.00105207
0.00108576
0.00104962
0.0010833
0.00105207
0.00105207
0.00104962
0.00104412
0.00100798
0.00104166
0.00104166
0.00101043
0.00101043
0.00104412
0.00100798
0.00104166
0.00104166
0.00101043
0.00101043
0.00104166
0.00101043
0.00101043
0.00104412
0.00100798
0.00104166
0.00101043
0.00101043
0.00100798
0.00100248
0.000966328
0.00100002
0.00100002
0.000968784
0.000968783
0.00100248
0.000966328
0.00100002
0.00100002
0.000968783
0.000968783
0.00100002
0.000968783
0.000968783
0.00100248
0.000966327
0.00100002
0.000968783
0.000968783
0.000966327
0.000960832
0.000924679
0.00095837
0.00095837
0.000927133
0.000927133
0.000960831
0.000924679
0.00095837
0.000958369
0.000927133
0.000927134
0.00095837
0.000927134
0.000927134
0.000960831
0.000924679
0.000958369
0.000927134
0.000927134
0.000924679
0.000919184
0.000883037
0.000916723
0.000916723
0.000885492
0.000885492
0.000919184
0.000883037
0.000916723
0.000916723
0.000885491
0.000885492
0.000916723
0.000885492
0.000885492
0.000919184
0.000883037
0.000916723
0.000885492
0.000885492
0.000883037
0.000877543
0.000841396
0.000875081
0.000875081
0.000843851
0.000843851
0.000877542
0.000841396
0.000875081
0.000875081
0.00084385
0.000843851
0.000875082
0.000843851
0.000843851
0.000877543
0.000841396
0.000875081
0.000843851
0.000843851
0.000841396
0.000835902
0.000799755
0.000833441
0.00083344
0.00080221
0.000802209
0.000835902
0.000799755
0.00083344
0.00083344
0.000802209
0.000802209
0.000833441
0.000802209
0.00080221
0.000835902
0.000799755
0.00083344
0.00080221
0.000802209
0.000799755
0.00079426
0.000758113
0.000791799
0.000791799
0.000760567
0.000760567
0.00079426
0.000758113
0.000791799
0.000791799
0.000760567
0.000760567
0.000791799
0.000760567
0.000760568
0.00079426
0.000758113
0.000791799
0.000760567
0.000760567
0.000758113
0.000752618
0.000716471
0.000750157
0.000750157
0.000718925
0.000718925
0.000752618
0.000716471
0.000750157
0.000750157
0.000718925
0.000718925
0.000750157
0.000718925
0.000718925
0.000752618
0.000716471
0.000750157
0.000718925
0.000718925
0.000716471
0.000710976
0.000674828
0.000708515
0.000708515
0.000677283
0.000677283
0.000710976
0.000674828
0.000708514
0.000708515
0.000677283
0.000677283
0.000708515
0.000677283
0.000677283
0.000710976
0.000674828
0.000708515
0.000677283
0.000677283
0.000674828
0.000669333
0.000633186
0.000666872
0.000666872
0.000635641
0.000635641
0.000669333
0.000633186
0.000666872
0.000666872
0.000635641
0.000635641
0.000666872
0.000635641
0.000635641
0.000669333
0.000633186
0.000666872
0.000635641
0.000635641
0.000633186
0.000627692
0.000591545
0.00062523
0.00062523
0.000593999
0.000593999
0.000627692
0.000591545
0.00062523
0.00062523
0.000593999
0.000593999
0.00062523
0.000593999
0.000593999
0.000627692
0.000591545
0.00062523
0.000593999
0.000593999
0.000591545
0.00058605
0.000549903
0.000583589
0.000583589
0.000552357
0.000552357
0.00058605
0.000549903
0.000583589
0.000583589
0.000552357
0.000552357
0.000583589
0.000552357
0.000552357
0.00058605
0.000549902
0.000583589
0.000552357
0.000552357
0.000549903
0.000544408
0.00050826
0.000541947
0.000541947
0.000510715
0.000510715
0.000544408
0.000508261
0.000541946
0.000541946
0.000510715
0.000510715
0.000541947
0.000510715
0.000510715
0.000544408
0.00050826
0.000541946
0.000510715
0.000510715
0.00050826
0.000502766
0.000466617
0.000500304
0.000500304
0.000469072
0.000469072
0.000502765
0.000466617
0.000500304
0.000500304
0.000469072
0.000469072
0.000500304
0.000469072
0.000469072
0.000502766
0.000466617
0.000500304
0.000469072
0.000469072
0.000466617
0.000461123
0.000424975
0.000458661
0.000458661
0.00042743
0.00042743
0.000461122
0.000424976
0.000458661
0.000458661
0.00042743
0.00042743
0.000458661
0.00042743
0.00042743
0.000461123
0.000424975
0.000458661
0.00042743
0.00042743
0.000424975
0.000419481
0.000383334
0.000417019
0.000417019
0.000385788
0.000385788
0.000419481
0.000383334
0.000417019
0.000417019
0.000385788
0.000385788
0.000417019
0.000385788
0.000385788
0.00041948
0.000383334
0.000417019
0.000385788
0.000385788
0.000383334
0.000377839
0.000341694
0.000375378
0.000375378
0.000344148
0.000344148
0.00037784
0.000341694
0.000375378
0.000375378
0.000344148
0.000344148
0.000375378
0.000344148
0.000344148
0.000377839
0.000341694
0.000375378
0.000344148
0.000344148
0.000341694
0.000336199
0.000300053
0.000333738
0.000333738
0.000302507
0.000302508
0.000336199
0.000300053
0.000333738
0.000333738
0.000302507
0.000302506
0.000333739
0.000302508
0.000302508
0.000336199
0.000300052
0.000333738
0.000302507
0.000302507
0.000300053
0.000294557
0.000258398
0.000292097
0.000292097
0.000260851
0.000260851
0.000294557
0.000258397
0.000292097
0.000292096
0.000260852
0.000260852
0.000292097
0.000260851
0.000260851
0.000294557
0.000258398
0.000292097
0.000260851
0.000260851
0.000258397
0.000252894
0.000216743
0.000250433
0.000250433
0.000219198
0.000219198
0.000252893
0.000216744
0.000250434
0.000250434
0.000219199
0.000219199
0.000250433
0.000219198
0.000219198
0.000252895
0.000216743
0.000250433
0.000219199
0.000219199
0.000216744
0.000211246
0.000175085
0.000208791
0.000208792
0.000177533
0.000177533
0.000211247
0.000175086
0.000208792
0.000208792
0.000177532
0.000177533
0.000208791
0.000177533
0.000177533
0.000211247
0.000175085
0.000208792
0.000177533
0.000177533
0.000175085
0.000169561
0.000133432
0.00016711
0.00016711
0.000135887
0.000135887
0.000169561
0.000133432
0.000167109
0.000167109
0.000135886
0.000135886
0.00016711
0.000135887
0.000135887
0.000169561
0.000133431
0.00016711
0.000135886
0.000135887
0.000133431
0.000127895
9.17665e-05
0.00012546
0.000125461
9.42173e-05
9.42179e-05
0.000127895
9.17673e-05
0.00012546
0.00012546
9.42171e-05
9.42166e-05
0.00012546
9.42175e-05
9.4217e-05
0.000127895
9.17656e-05
0.00012546
9.42165e-05
9.42165e-05
9.17659e-05
8.61975e-05
5.01371e-05
8.37874e-05
8.37877e-05
5.25875e-05
5.25879e-05
8.61975e-05
5.01381e-05
8.37868e-05
8.37861e-05
5.25855e-05
5.25849e-05
8.37868e-05
5.25866e-05
5.25847e-05
8.61969e-05
5.01345e-05
8.37862e-05
5.25841e-05
5.25834e-05
5.01342e-05
4.45657e-05
1.23803e-05
4.22931e-05
4.22931e-05
1.45754e-05
1.45748e-05
4.45661e-05
1.23804e-05
4.2291e-05
4.22897e-05
1.45733e-05
1.45697e-05
4.2289e-05
1.45723e-05
1.4568e-05
4.45625e-05
1.23757e-05
4.22877e-05
1.45699e-05
1.45694e-05
1.23746e-05
8.77948e-06
9.23347e-06
9.23412e-06
8.78117e-06
9.23193e-06
9.22923e-06
9.04106e-06
9.03861e-06
9.03836e-06
9.22854e-06
8.77644e-06
9.22913e-06
0.00399237
0.00400213
0.00399693
0.00399694
0.00401931
0.00400609
0.00403469
0.00400014
0.00401931
0.0040061
0.00400014
0.00403469
0.00401067
0.00403843
0.00403843
0.00394773
0.00396687
0.00397607
0.0039398
0.00394057
0.00394332
0.00394771
0.00396685
0.00397606
0.00393978
0.00397059
0.00397059
0.00397059
0.00392718
0.00392718
0.00392718
0.00392718
0.00394523
0.00397106
0.00397099
0.00395405
0.00397408
0.00394413
0.00395494
0.00394068
0.00394331
0.00394524
0.00397099
0.00397107
0.00395406
0.00397408
0.00395494
0.00394413
0.00397693
0.00397692
0.00394846
0.00394377
0.00394376
0.00390107
0.00392039
0.00392174
0.00389958
0.00391929
0.00389915
0.00390107
0.00392039
0.00392174
0.00389957
0.00391522
0.00391522
0.00391522
0.00387765
0.00387765
0.00387765
0.00387765
0.00389966
0.00392045
0.00391523
0.00390336
0.00391924
0.00390019
0.00390309
0.00391929
0.00389915
0.00389966
0.00391522
0.00392045
0.00390336
0.00391924
0.00390309
0.00390019
0.00392149
0.00392148
0.00389991
0.00390051
0.00390051
0.00384885
0.00386772
0.00386875
0.00384778
0.00386737
0.00384749
0.00384885
0.00386772
0.00386875
0.00384778
0.00386447
0.00386447
0.00386447
0.00382508
0.00382508
0.00382508
0.00382508
0.00384795
0.00386808
0.00386435
0.00385131
0.0038675
0.00384829
0.00385121
0.00386737
0.00384749
0.00384795
0.00386435
0.00386808
0.00385131
0.0038675
0.00385121
0.00384829
0.00386834
0.00386834
0.00384794
0.00384835
0.00384835
0.00379625
0.00381503
0.00381588
0.00379548
0.00381483
0.00379529
0.00379625
0.00381503
0.00381588
0.00379548
0.00381206
0.00381206
0.00381206
0.0037735
0.0037735
0.0037735
0.0037735
0.00379577
0.00381541
0.00381204
0.00379916
0.00381511
0.00379594
0.00379913
0.00381483
0.00379529
0.00379577
0.00381204
0.00381541
0.00379916
0.00381511
0.00379913
0.00379594
0.00381548
0.00381548
0.00379584
0.00379586
0.00379586
0.00374504
0.00376344
0.00376414
0.00374458
0.00376328
0.00374444
0.00374504
0.00376343
0.00376414
0.00374458
0.00376077
0.00376077
0.00376077
0.00372337
0.00372337
0.00372337
0.00372337
0.00374482
0.00376381
0.00376075
0.00374815
0.00376366
0.00374494
0.00374814
0.00376328
0.00374444
0.00374482
0.00376075
0.00376381
0.00374815
0.00376366
0.00374814
0.00374494
0.00376376
0.00376376
0.00374491
0.00374488
0.00374488
0.00369573
0.0037132
0.00371396
0.00369535
0.00371307
0.00369507
0.00369573
0.0037132
0.00371396
0.00369535
0.00371127
0.00371127
0.00371127
0.00367671
0.00367671
0.00367671
0.00367671
0.00369585
0.00371363
0.00371116
0.00369928
0.0037137
0.00369577
0.00369933
0.00371306
0.00369508
0.00369585
0.00371116