/*--------------------------------*- C++ -*----------------------------------*\
| =========                 |                                                 |
| \\      /  F ield         | OpenFOAM: The Open Source CFD Toolbox           |
|  \\    /   O peration     | Version:  2206                                  |
|   \\  /    A nd           | Website:  www.openfoam.com                      |
|    \\/     M anipulation  |                                                 |
\*---------------------------------------------------------------------------*/
FoamFile
{
    version     2.0;
    format      ascii;
    arch        "LSB;label=32;scalar=64";
    class       volScalarField;
    location    "30";
    object      Ux;
}
// * * * * * * * * * * * * * * * * * * * * * * * * * * * * * * * * * * * * * //

dimensions      [0 1 -1 0 0 0 0];

internalField   nonuniform List<scalar> 
171728
(
0.00010801
-0.000190302
0.000119432
-0.000239428
9.46572e-05
-0.000159343
9.69896e-05
-0.000200769
9.5936e-05
-0.000156248
9.36158e-05
-0.000200828
9.3246e-05
-0.000150956
8.89821e-05
-0.000196381
8.98395e-05
-0.00014189
8.24101e-05
-0.000189267
7.78706e-05
-0.000127921
7.25342e-05
-0.000173339
4.3861e-05
-6.17514e-05
3.6576e-05
-0.000102268
1.50972e-05
-2.07074e-05
1.4913e-05
-6.28846e-05
1.62272e-06
-3.27471e-06
2.79796e-06
-4.73316e-05
-5.99924e-07
-6.55142e-07
9.10776e-07
-4.53391e-05
-7.66964e-07
-5.18257e-07
7.94672e-07
-4.52445e-05
-7.78376e-07
-5.203e-07
7.92628e-07
-4.52438e-05
-7.76747e-07
-5.28265e-07
7.92402e-07
-4.52451e-05
-7.76761e-07
-5.26334e-07
7.92216e-07
-4.5246e-05
-7.79471e-07
-5.20235e-07
7.91924e-07
-4.52456e-05
-7.80601e-07
-5.20298e-07
7.91432e-07
-4.52451e-05
-7.79912e-07
-5.20038e-07
7.91402e-07
-4.52444e-05
-7.79758e-07
-5.19263e-07
7.91382e-07
-4.52441e-05
-7.76711e-07
-5.21229e-07
7.92173e-07
-4.52453e-05
-7.70429e-07
-5.18163e-07
7.92939e-07
-4.52455e-05
-7.66256e-07
-5.25326e-07
7.94067e-07
-4.5245e-05
-7.75378e-07
-5.2138e-07
7.93041e-07
-4.52451e-05
-7.7694e-07
-5.19956e-07
7.92712e-07
-4.52446e-05
-7.77721e-07
-5.19231e-07
7.92011e-07
-4.52442e-05
-7.78893e-07
-5.18212e-07
7.91433e-07
-4.52444e-05
-7.7971e-07
-5.17862e-07
7.91369e-07
-4.52448e-05
-7.79439e-07
-5.18448e-07
7.91999e-07
-4.52452e-05
-7.79112e-07
-5.18846e-07
7.92317e-07
-4.52456e-05
-7.78059e-07
-5.19024e-07
7.92843e-07
-4.52463e-05
-7.78207e-07
-5.19349e-07
7.92316e-07
-4.52464e-05
-7.78605e-07
-5.19033e-07
7.92806e-07
-4.5246e-05
-7.78585e-07
-5.18507e-07
7.92258e-07
-4.52457e-05
-7.7972e-07
-5.17604e-07
7.91646e-07
-4.52451e-05
-7.79098e-07
-5.17923e-07
7.91965e-07
-4.5245e-05
-7.79153e-07
-5.17905e-07
7.91725e-07
-4.52451e-05
-7.78499e-07
-5.18228e-07
7.92741e-07
-4.52459e-05
-7.78407e-07
-5.19202e-07
7.92801e-07
-4.52464e-05
-7.78143e-07
-5.18706e-07
7.9306e-07
-4.52464e-05
-7.78617e-07
-5.19135e-07
7.92585e-07
-4.52461e-05
-7.79131e-07
-5.16748e-07
7.90616e-07
-4.52424e-05
-7.74286e-07
-5.16141e-07
7.91772e-07
-4.52433e-05
-7.82236e-07
-5.17151e-07
7.91185e-07
-4.52454e-05
-7.79267e-07
-5.18777e-07
7.91539e-07
-4.5246e-05
-7.7806e-07
-5.19024e-07
7.91911e-07
-4.52462e-05
-7.76526e-07
-5.1996e-07
7.91901e-07
-4.52464e-05
-7.76134e-07
-5.20229e-07
7.92011e-07
-4.52463e-05
-7.76543e-07
-5.1974e-07
7.91737e-07
-4.52462e-05
-7.77029e-07
-5.19897e-07
7.91259e-07
-4.52461e-05
-7.77339e-07
-5.18404e-07
7.91254e-07
-4.52453e-05
-7.77503e-07
-5.19633e-07
7.91516e-07
-4.52459e-05
-7.77541e-07
-5.19168e-07
7.91583e-07
-4.5246e-05
-7.7648e-07
-5.20195e-07
7.92068e-07
-4.52469e-05
-7.76166e-07
-5.20154e-07
7.92463e-07
-4.52471e-05
-7.75212e-07
-5.20324e-07
7.92605e-07
-4.52461e-05
-7.74442e-07
-5.20147e-07
7.92399e-07
-4.52462e-05
-7.76747e-07
-5.19308e-07
7.91615e-07
-4.52463e-05
-7.76498e-07
-5.2177e-07
7.91799e-07
-4.52486e-05
-7.76339e-07
-5.2082e-07
7.92259e-07
-4.52489e-05
-7.75615e-07
-5.22141e-07
7.92924e-07
-4.52491e-05
-7.7493e-07
-5.22015e-07
7.93206e-07
-4.52492e-05
-7.74707e-07
-5.23107e-07
7.9352e-07
-4.52498e-05
-7.74696e-07
-5.22862e-07
7.93945e-07
-4.52497e-05
-7.74737e-07
-5.21903e-07
7.93205e-07
-4.52489e-05
-7.75149e-07
-5.21753e-07
7.92958e-07
-4.52489e-05
-7.76464e-07
-5.20868e-07
7.92392e-07
-4.52479e-05
-7.75587e-07
-5.21602e-07
7.93067e-07
-4.52486e-05
-7.75477e-07
-5.21341e-07
7.927e-07
-4.52488e-05
-7.74822e-07
-5.22232e-07
7.93785e-07
-4.52494e-05
-7.74345e-07
-5.22849e-07
7.95183e-07
-4.5251e-05
-7.73963e-07
-5.22146e-07
8.00227e-07
-4.52541e-05
-7.74067e-07
-5.22409e-07
7.97005e-07
-4.52529e-05
-7.75595e-07
-5.20883e-07
7.93265e-07
-4.52485e-05
-7.75898e-07
-5.2191e-07
7.92632e-07
-4.52488e-05
-7.75863e-07
-5.20422e-07
7.92619e-07
-4.52485e-05
-7.75316e-07
-5.22306e-07
7.934e-07
-4.52497e-05
-7.75017e-07
-5.22214e-07
7.93378e-07
-4.52502e-05
-7.74457e-07
-5.22493e-07
7.9437e-07
-4.52504e-05
-7.74499e-07
-5.22856e-07
7.94313e-07
-4.52505e-05
-7.75256e-07
-5.22028e-07
7.93295e-07
-4.52501e-05
-7.75477e-07
-5.21522e-07
7.93231e-07
-4.52496e-05
-7.7591e-07
-5.21132e-07
7.93068e-07
-4.52493e-05
-7.75943e-07
-5.21688e-07
7.92895e-07
-4.52494e-05
-7.75326e-07
-5.21282e-07
7.93278e-07
-4.52498e-05
-7.74589e-07
-5.22514e-07
7.93645e-07
-4.52504e-05
-7.74546e-07
-5.22504e-07
7.93538e-07
-4.52503e-05
-7.75585e-07
-5.21307e-07
7.92504e-07
-4.52503e-05
-7.81395e-07
-5.13574e-07
7.86152e-07
-4.52459e-05
-7.93044e-07
-5.05598e-07
7.71376e-07
-4.5213e-05
-8.1382e-07
-5.36188e-07
7.79902e-07
-4.49819e-05
-7.22146e-07
-7.47954e-07
9.45855e-07
-4.50017e-05
-5.54306e-07
-1.16894e-06
1.1873e-06
-4.40134e-05
-3.73978e-07
-1.97858e-06
1.79398e-06
-4.31746e-05
-3.62707e-07
-3.59774e-06
3.0826e-06
-4.01614e-05
-5.80176e-06
-2.39328e-06
3.40839e-06
-2.6583e-05
-4.13466e-05
4.19154e-05
-3.40476e-05
4.6581e-05
0.000135063
0.000124197
-0.000124189
-0.000135059
0.000152818
0.00015279
9.08172e-05
-9.08074e-05
9.07917e-05
-9.07893e-05
-0.000152814
-0.0001528
0.000135052
0.000124149
-0.000124146
-0.000135061
0.000239471
0.0001116
0.000119482
-0.000119434
8.90978e-05
-8.90596e-05
-0.000239481
-0.000111561
0.000190338
0.000190276
0.000147167
0.0001472
-0.000190257
-0.000147137
-0.000147157
0.000239402
0.000111552
-0.000119412
8.90735e-05
-8.90529e-05
-0.000111549
0.000200856
0.000105929
9.69961e-05
-9.69689e-05
9.36153e-05
-9.36156e-05
-0.000200819
-0.000105921
0.000159375
0.000159393
0.000155898
0.000155939
-0.000159372
-0.000155896
-0.000155917
0.000200766
0.000105896
-9.69713e-05
9.36163e-05
-9.36223e-05
-0.000105909
0.000200896
9.75955e-05
9.36091e-05
-9.36158e-05
8.92581e-05
-8.92448e-05
-0.000200884
-9.75764e-05
0.000156256
0.000156297
0.000150461
0.000150497
-0.000156279
-0.000150458
-0.000150498
0.000200809
9.75497e-05
-9.36239e-05
8.92627e-05
-8.92507e-05
-9.76091e-05
0.00019641
8.99681e-05
8.89788e-05
-8.89681e-05
8.64692e-05
-8.64566e-05
-0.000196401
-8.99623e-05
0.000150964
0.000150993
0.000147292
0.000147325
-0.000150995
-0.00014729
-0.000147331
0.000196323
8.9938e-05
-8.89691e-05
8.64828e-05
-8.64608e-05
-8.99967e-05
0.000189285
7.90328e-05
8.2404e-05
-8.23962e-05
8.02757e-05
-8.02608e-05
-0.000189282
-7.90302e-05
0.000141896
0.000141924
0.000138369
0.000138398
-0.000141936
-0.000138369
-0.000138407
0.000189203
7.8975e-05
-8.23887e-05
8.03088e-05
-8.02845e-05
-7.90545e-05
0.000173342
1.57051e-05
7.25115e-05
-7.25005e-05
4.26984e-05
-4.27094e-05
-0.000173337
-1.56936e-05
0.000127911
0.000127949
7.5512e-05
7.55407e-05
-0.000127966
-7.5507e-05
-7.55405e-05
0.00017325
1.57312e-05
-7.25058e-05
4.26648e-05
-4.26516e-05
-1.57106e-05
0.000102294
-2.6304e-05
3.66231e-05
-3.66251e-05
2.03374e-05
-2.03299e-05
-0.000102289
2.63178e-05
6.17605e-05
6.1779e-05
2.92974e-05
2.93011e-05
-6.17694e-05
-2.92841e-05
-2.92893e-05
0.000102272
-2.62878e-05
-3.65741e-05
2.0294e-05
-2.02928e-05
2.63101e-05
6.29135e-05
-4.45124e-05
1.49495e-05
-1.49461e-05
4.41099e-06
-4.40954e-06
-6.29037e-05
4.45233e-05
2.07224e-05
2.07288e-05
5.45487e-06
5.46973e-06
-2.07187e-05
-5.44656e-06
-5.47533e-06
6.28804e-05
-4.44964e-05
-1.49125e-05
4.37665e-06
-4.37937e-06
4.44937e-05
4.73391e-05
-4.72682e-05
2.82945e-06
-2.82894e-06
1.07814e-06
-1.07704e-06
-4.73313e-05
4.72724e-05
3.28429e-06
3.29716e-06
8.59474e-07
8.81236e-07
-3.30273e-06
-8.55639e-07
-8.82649e-07
4.73147e-05
-4.72397e-05
-2.80027e-06
1.04786e-06
-1.04688e-06
4.7243e-05
4.53426e-05
-4.74033e-05
9.41002e-07
-9.36746e-07
8.39608e-07
-8.2715e-07
-4.53408e-05
4.74163e-05
6.61949e-07
6.81192e-07
5.28084e-07
5.51317e-07
-6.8113e-07
-5.22525e-07
-5.50142e-07
4.53279e-05
-4.73792e-05
-9.0876e-07
7.99666e-07
-7.97411e-07
4.73839e-05
4.52534e-05
-4.74071e-05
8.33391e-07
-8.20786e-07
8.20386e-07
-8.21759e-07
-4.52468e-05
4.7416e-05
5.26261e-07
5.46449e-07
5.20661e-07
5.45057e-07
-5.45082e-07
-5.17364e-07
-5.44304e-07
4.52341e-05
-4.73805e-05
-7.92472e-07
7.91635e-07
-7.89323e-07
4.73852e-05
4.5249e-05
-4.74076e-05
8.20567e-07
-8.21923e-07
8.18863e-07
-8.21433e-07
-4.5248e-05
4.74119e-05
5.24587e-07
5.45363e-07
5.20581e-07
5.45293e-07
-5.44659e-07
-5.25538e-07
-5.46796e-07
4.52334e-05
-4.73803e-05
-7.89934e-07
7.91846e-07
-7.8942e-07
4.73836e-05
4.52488e-05
-4.74083e-05
8.18964e-07
-8.20598e-07
8.18526e-07
-8.19578e-07
-4.5252e-05
4.74094e-05
5.23257e-07
5.45074e-07
5.19812e-07
5.44621e-07
-5.47108e-07
-5.25935e-07
-5.47973e-07
4.52333e-05
-4.73808e-05
-7.89939e-07
7.91576e-07
-7.89931e-07
4.73827e-05
4.52484e-05
-4.74042e-05
8.20131e-07
-8.20248e-07
8.17681e-07
-8.22588e-07
-4.52541e-05
4.74126e-05
5.23511e-07
5.44717e-07
5.20906e-07
5.4472e-07
-5.47496e-07
-5.19797e-07
-5.46777e-07
4.5233e-05
-4.73807e-05
-7.90448e-07
7.91472e-07
-7.90582e-07
4.73834e-05
4.52504e-05
-4.74066e-05
8.15959e-07
-8.24357e-07
8.13672e-07
-8.32157e-07
-4.5253e-05
4.7409e-05
5.24068e-07
5.44737e-07
5.20333e-07
5.44553e-07
-5.46331e-07
-5.20197e-07
-5.46091e-07
4.52332e-05
-4.73809e-05
-7.91175e-07
7.90875e-07
-7.90644e-07
4.73839e-05
4.52482e-05
-4.74048e-05
8.12635e-07
-8.29102e-07
8.15465e-07
-8.22578e-07
-4.52528e-05
4.74102e-05
5.23479e-07
5.44521e-07
5.208e-07
5.44477e-07
-5.45727e-07
-5.18962e-07
-5.45151e-07
4.5233e-05
-4.73811e-05
-7.91079e-07
7.90698e-07
-7.90043e-07
4.73845e-05
4.52493e-05
-4.74057e-05
8.14538e-07
-8.22713e-07
8.14938e-07
-8.20676e-07
-4.52496e-05
4.74134e-05
5.24089e-07
5.44475e-07
5.20749e-07
5.44317e-07
-5.44841e-07
-5.18499e-07
-5.44283e-07
4.52329e-05
-4.73813e-05
-7.90387e-07
7.90634e-07
-7.89362e-07
4.73853e-05
4.52494e-05
-4.74073e-05
8.12967e-07
-8.21252e-07
8.1725e-07
-8.26485e-07
-4.52472e-05
4.74117e-05
5.2381e-07
5.44378e-07
5.20917e-07
5.45065e-07
-5.44246e-07
-5.19874e-07
-5.45408e-07
4.5233e-05
-4.73808e-05
-7.89731e-07
7.91243e-07
-7.89529e-07
4.73847e-05
4.52515e-05
-4.7408e-05
8.19541e-07
-8.28313e-07
8.20197e-07
-8.16887e-07
-4.52527e-05
4.74162e-05
5.24158e-07
5.45286e-07
5.21898e-07
5.44934e-07
-5.46671e-07
-5.19357e-07
-5.50465e-07
4.5234e-05
-4.73806e-05
-7.89925e-07
7.91876e-07
-7.87901e-07
4.73831e-05
4.52538e-05
-4.74116e-05
8.20171e-07
-8.07e-07
8.23074e-07
-8.21261e-07
-4.52356e-05
4.74038e-05
5.26204e-07
5.45007e-07
5.28723e-07
5.46331e-07
-5.50392e-07
-5.2401e-07
-5.45115e-07
4.52337e-05
-4.73794e-05
-7.88035e-07
7.93323e-07
-7.88707e-07
4.7384e-05
4.52513e-05
-4.74089e-05
8.24855e-07
-8.20988e-07
8.17944e-07
-8.20055e-07
-4.52538e-05
4.74147e-05
5.30966e-07
5.46681e-07
5.23809e-07
5.45804e-07
-5.4502e-07
-5.20469e-07
-5.45723e-07
4.52343e-05
-4.73795e-05
-7.89859e-07
7.92577e-07
-7.8981e-07
4.73834e-05
4.52552e-05
-4.74087e-05
8.17626e-07
-8.22392e-07
8.18856e-07
-8.23037e-07
-4.52443e-05
4.74109e-05
5.25818e-07
5.45575e-07
5.22231e-07
5.45687e-07
-5.45258e-07
-5.19094e-07
-5.45482e-07
4.5234e-05
-4.73795e-05
-7.90463e-07
7.92207e-07
-7.90274e-07
4.7384e-05
4.52558e-05
-4.74092e-05
8.18519e-07
-8.23594e-07
8.19042e-07
-8.23529e-07
-4.52471e-05
4.74101e-05
5.25226e-07
5.45614e-07
5.21207e-07
5.44998e-07
-5.45276e-07
-5.18646e-07
-5.45122e-07
4.52339e-05
-4.73802e-05
-7.90755e-07
7.91425e-07
-7.89723e-07
4.73844e-05
4.52553e-05
-4.741e-05
8.19073e-07
-8.23996e-07
8.1882e-07
-8.23697e-07
-4.52477e-05
4.74106e-05
5.24537e-07
5.44944e-07
5.20139e-07
5.44328e-07
-5.44747e-07
-5.17529e-07
-5.44066e-07
4.52332e-05
-4.73808e-05
-7.90396e-07
7.90773e-07
-7.8959e-07
4.73843e-05
4.52544e-05
-4.74107e-05
8.18635e-07
-8.24245e-07
8.18667e-07
-8.23978e-07
-4.52473e-05
4.74107e-05
5.23387e-07
5.44276e-07
5.19252e-07
5.43892e-07
-5.43771e-07
-5.17037e-07
-5.43711e-07
4.52326e-05
-4.73809e-05
-7.90127e-07
7.90735e-07
-7.89726e-07
4.7384e-05
4.52538e-05
-4.74107e-05
8.18274e-07
-8.24279e-07
8.18816e-07
-8.24021e-07
-4.52473e-05
4.74106e-05
5.22699e-07
5.43886e-07
5.19592e-07
5.44223e-07
-5.43297e-07
-5.17456e-07
-5.43633e-07
4.52326e-05
-4.73806e-05
-7.90267e-07
7.91177e-07
-7.9e-07
4.73837e-05
4.52542e-05
-4.741e-05
8.18973e-07
-8.24694e-07
8.19616e-07
-8.24329e-07
-4.52476e-05
4.74098e-05
5.23393e-07
5.44455e-07
5.2005e-07
5.4469e-07
-5.43673e-07
-5.17866e-07
-5.43873e-07
4.5233e-05
-4.73801e-05
-7.9075e-07
7.91583e-07
-7.90247e-07
4.73832e-05
4.52548e-05
-4.74094e-05
8.19684e-07
-8.25357e-07
8.21035e-07
-8.23805e-07
-4.52485e-05
4.741e-05
5.23642e-07
5.44787e-07
5.20517e-07
5.45199e-07
-5.43627e-07
-5.1801e-07
-5.44504e-07
4.52335e-05
-4.73797e-05
-7.90747e-07
7.92013e-07
-7.90711e-07
4.73826e-05
4.52553e-05
-4.74093e-05
8.21041e-07
-8.25502e-07
8.21235e-07
-8.23309e-07
-4.52481e-05
4.74095e-05
5.24277e-07
5.45609e-07
5.20598e-07
5.45317e-07
-5.44598e-07
-5.18575e-07
-5.44742e-07
4.52338e-05
-4.73797e-05
-7.91389e-07
7.91872e-07
-7.90869e-07
4.73823e-05
4.52553e-05
-4.74097e-05
8.21e-07
-8.26379e-07
8.20654e-07
-8.22179e-07
-4.52491e-05
4.74093e-05
5.23962e-07
5.4515e-07
5.20288e-07
5.45326e-07
-5.44583e-07
-5.18408e-07
-5.44379e-07
4.52336e-05
-4.73796e-05
-7.91413e-07
7.92116e-07
-7.90637e-07
4.73826e-05
4.52549e-05
-4.74101e-05
8.20392e-07
-8.28778e-07
8.20918e-07
-8.23318e-07
-4.52497e-05
4.74111e-05
5.23833e-07
5.45434e-07
5.19855e-07
5.44721e-07
-5.43922e-07
-5.1771e-07
-5.43876e-07
4.5234e-05
-4.73802e-05
-7.9086e-07
7.91748e-07
-7.90287e-07
4.73832e-05
4.52546e-05
-4.74106e-05
8.20899e-07
-8.25927e-07
8.1996e-07
-8.25283e-07
-4.52484e-05
4.7412e-05
5.23424e-07
5.44758e-07
5.19242e-07
5.44095e-07
-5.43839e-07
-5.17064e-07
-5.43374e-07
4.52332e-05
-4.73807e-05
-7.9091e-07
7.91194e-07
-7.89848e-07
4.73835e-05
4.52539e-05
-4.74107e-05
8.19549e-07
-8.25484e-07
8.20395e-07
-8.25857e-07
-4.52469e-05
4.74124e-05
5.22447e-07
5.43917e-07
5.19083e-07
5.43954e-07
-5.4302e-07
-5.17137e-07
-5.43182e-07
4.52326e-05
-4.73808e-05
-7.90243e-07
7.9126e-07
-7.89819e-07
4.73837e-05
4.52541e-05
-4.74102e-05
8.20454e-07
-8.26227e-07
8.2052e-07
-8.2585e-07
-4.52468e-05
4.74126e-05
5.22917e-07
5.44318e-07
5.19414e-07
5.44197e-07
-5.43049e-07
-5.16964e-07
-5.43212e-07
4.52328e-05
-4.73807e-05
-7.90233e-07
7.91145e-07
-7.89661e-07
4.73837e-05
4.52544e-05
-4.74099e-05
8.20206e-07
-8.26143e-07
8.20715e-07
-8.26416e-07
-4.52466e-05
4.74124e-05
5.22806e-07
5.44225e-07
5.20069e-07
5.44844e-07
-5.43219e-07
-5.17295e-07
-5.43892e-07
4.52328e-05
-4.738e-05
-7.90297e-07
7.91881e-07
-7.90408e-07
4.73829e-05
4.5255e-05
-4.74099e-05
8.20862e-07
-8.2663e-07
8.20637e-07
-8.27045e-07
-4.52467e-05
4.74114e-05
5.23824e-07
5.45186e-07
5.20198e-07
5.4504e-07
-5.44016e-07
-5.18166e-07
-5.44399e-07
4.52336e-05
-4.73797e-05
-7.9104e-07
7.92122e-07
-7.90901e-07
4.73824e-05
4.52548e-05
-4.74095e-05
8.20812e-07
-8.27307e-07
8.20853e-07
-8.2713e-07
-4.52478e-05
4.74117e-05
5.23846e-07
5.4529e-07
5.20583e-07
5.45251e-07
-5.44436e-07
-5.17912e-07
-5.4441e-07
4.52337e-05
-4.73794e-05
-7.91442e-07
7.92359e-07
-7.91007e-07
4.73824e-05
4.52551e-05
-4.74096e-05
8.21114e-07
-8.26907e-07
8.20431e-07
-8.27852e-07
-4.52471e-05
4.74109e-05
5.24019e-07
5.45482e-07
5.20581e-07
5.45266e-07
-5.44483e-07
-5.18438e-07
-5.44513e-07
4.52341e-05
-4.73796e-05
-7.91469e-07
7.92277e-07
-7.91262e-07
4.73822e-05
4.52545e-05
-4.74108e-05
8.20595e-07
-8.27158e-07
8.18542e-07
-8.27205e-07
-4.52479e-05
4.74143e-05
5.23652e-07
5.45296e-07
5.20831e-07
5.44677e-07
-5.44281e-07
-5.16608e-07
-5.46053e-07
4.52337e-05
-4.73817e-05
-7.91104e-07
7.90521e-07
-7.89403e-07
4.7386e-05
4.52516e-05
-4.74032e-05
8.18253e-07
-8.24479e-07
8.18834e-07
-8.25033e-07
-4.5244e-05
4.74134e-05
5.25112e-07
5.44965e-07
5.26668e-07
5.45861e-07
-5.48133e-07
-5.14659e-07
-5.4947e-07
4.52318e-05
-4.73816e-05
-7.87582e-07
7.90617e-07
-7.85784e-07
4.73864e-05
4.52589e-05
-4.74143e-05
8.23775e-07
-8.25628e-07
8.14116e-07
-8.29533e-07
-4.52482e-05
4.74084e-05
5.3072e-07
5.45968e-07
5.19008e-07
5.44319e-07
-5.46328e-07
-5.17101e-07
-5.43459e-07
4.52325e-05
-4.73822e-05
-7.87976e-07
7.91053e-07
-7.89404e-07
4.73839e-05
4.52463e-05
-4.74108e-05
8.1482e-07
-8.31775e-07
8.17262e-07
-8.22292e-07
-4.52532e-05
4.7412e-05
5.21018e-07
5.44224e-07
5.19439e-07
5.44332e-07
-5.43592e-07
-5.17083e-07
-5.44153e-07
4.52316e-05
-4.73823e-05
-7.89773e-07
7.90715e-07
-7.90237e-07
4.73833e-05
4.52492e-05
-4.7409e-05
8.17452e-07
-8.23235e-07
8.19073e-07
-8.22928e-07
-4.52472e-05
4.74122e-05
5.22837e-07
5.44888e-07
5.2076e-07
5.45095e-07
-5.44389e-07
-5.18632e-07
-5.4436e-07
4.52316e-05
-4.73813e-05
-7.91035e-07
7.91727e-07
-7.9078e-07
4.73827e-05
4.52507e-05
-4.74082e-05
8.18249e-07
-8.22563e-07
8.19552e-07
-8.2239e-07
-4.52471e-05
4.74126e-05
5.23762e-07
5.4538e-07
5.21301e-07
5.45675e-07
-5.44086e-07
-5.19121e-07
-5.44328e-07
4.52324e-05
-4.73809e-05
-7.90898e-07
7.92216e-07
-7.90767e-07
4.73827e-05
4.52516e-05
-4.74073e-05
8.19412e-07
-8.2277e-07
8.19829e-07
-8.2242e-07
-4.52469e-05
4.74127e-05
5.25048e-07
5.46245e-07
5.22085e-07
5.46198e-07
-5.44557e-07
-5.19472e-07
-5.44384e-07
4.52329e-05
-4.73806e-05
-7.91057e-07
7.92457e-07
-7.90856e-07
4.73826e-05
4.52521e-05
-4.74077e-05
8.19117e-07
-8.22608e-07
8.19066e-07
-8.21861e-07
-4.52467e-05
4.74135e-05
5.25102e-07
5.46251e-07
5.21626e-07
5.45588e-07
-5.44278e-07
-5.18914e-07
-5.44171e-07
4.5233e-05
-4.73811e-05
-7.91027e-07
7.92012e-07
-7.907e-07
4.73828e-05
4.52517e-05
-4.74078e-05
8.18205e-07
-8.22271e-07
8.17967e-07
-8.22217e-07
-4.52458e-05
4.74129e-05
5.24818e-07
5.45865e-07
5.21502e-07
5.45108e-07
-5.44234e-07
-5.19313e-07
-5.44014e-07
4.52326e-05
-4.73814e-05
-7.9117e-07
7.91729e-07
-7.90948e-07
4.73828e-05
4.52516e-05
-4.74079e-05
8.17235e-07
-8.2246e-07
8.17457e-07
-8.21161e-07
-4.52464e-05
4.74145e-05
5.24725e-07
5.4511e-07
5.21186e-07
5.44659e-07
-5.43621e-07
-5.17721e-07
-5.42801e-07
4.52321e-05
-4.73818e-05
-7.91078e-07
7.91437e-07
-7.90231e-07
4.73836e-05
4.52513e-05
-4.74081e-05
8.16747e-07
-8.21452e-07
8.17102e-07
-8.21872e-07
-4.52446e-05
4.74134e-05
5.24313e-07
5.44893e-07
5.21103e-07
5.44864e-07
-5.42678e-07
-5.18727e-07
-5.4318e-07
4.52319e-05
-4.73814e-05
-7.90598e-07
7.91818e-07
-7.90551e-07
4.73831e-05
4.52511e-05
-4.74083e-05
8.16479e-07
-8.2224e-07
8.17016e-07
-8.21443e-07
-4.52461e-05
4.74141e-05
5.24229e-07
5.45037e-07
5.20824e-07
5.44803e-07
-5.43236e-07
-5.18321e-07
-5.43301e-07
4.52322e-05
-4.73815e-05
-7.91028e-07
7.91775e-07
-7.90664e-07
4.73829e-05
4.52511e-05
-4.74072e-05
8.16543e-07
-8.21896e-07
8.17785e-07
-8.21961e-07
-4.52452e-05
4.74133e-05
5.24102e-07
5.45035e-07
5.21862e-07
5.4552e-07
-5.43256e-07
-5.19072e-07
-5.44044e-07
4.52322e-05
-4.73809e-05
-7.91071e-07
7.92153e-07
-7.91289e-07
4.73821e-05
4.52522e-05
-4.74067e-05
8.17371e-07
-8.2257e-07
8.18247e-07
-8.22159e-07
-4.52461e-05
4.74129e-05
5.2535e-07
5.45982e-07
5.22464e-07
5.46103e-07
-5.44081e-07
-5.19571e-07
-5.44505e-07
4.52327e-05
-4.73804e-05
-7.91724e-07
7.92654e-07
-7.91738e-07
4.73816e-05
4.52524e-05
-4.74055e-05
8.17686e-07
-8.22332e-07
8.19377e-07
-8.21238e-07
-4.52462e-05
4.74124e-05
5.25572e-07
5.46133e-07
5.23078e-07
5.45974e-07
-5.44069e-07
-5.19504e-07
-5.43632e-07
4.5233e-05
-4.73802e-05
-7.91991e-07
7.92712e-07
-7.91182e-07
4.73823e-05
4.52535e-05
-4.74043e-05
8.19442e-07
-8.20632e-07
8.21225e-07
-8.12681e-07
-4.52457e-05
4.74155e-05
5.26608e-07
5.46248e-07
5.2386e-07
5.46249e-07
-5.43561e-07
-5.19355e-07
-5.43519e-07
4.52329e-05
-4.738e-05
-7.91549e-07
7.92804e-07
-7.91165e-07
4.73824e-05
4.5254e-05
-4.74072e-05
8.20351e-07
-8.12715e-07
8.18361e-07
-8.21171e-07
-4.52427e-05
4.74149e-05
5.26808e-07
5.46041e-07
5.22177e-07
5.44824e-07
-5.43305e-07
-5.19213e-07
-5.43222e-07
4.5233e-05
-4.73812e-05
-7.91246e-07
7.91936e-07
-7.90291e-07
4.73828e-05
4.52519e-05
-4.74083e-05
8.17171e-07
-8.20208e-07
8.17648e-07
-8.2089e-07
-4.52443e-05
4.74133e-05
5.24829e-07
5.4451e-07
5.20624e-07
5.42868e-07
-5.44535e-07
-5.2047e-07
-5.49782e-07
4.5232e-05
-4.73825e-05
-7.90023e-07
7.91769e-07
-7.88971e-07
4.73803e-05
4.52508e-05
-4.74089e-05
8.17077e-07
-8.21223e-07
8.17469e-07
-8.20305e-07
-4.5246e-05
4.74136e-05
5.23594e-07
5.42508e-07
5.19934e-07
5.42074e-07
-5.5122e-07
-5.20424e-07
-5.49748e-07
4.52309e-05
-4.7383e-05
-7.89086e-07
7.92353e-07
-7.89069e-07
4.738e-05
4.52504e-05
-4.74086e-05
8.1699e-07
-8.20369e-07
8.17881e-07
-8.2088e-07
-4.52454e-05
4.74125e-05
5.2309e-07
5.42144e-07
5.20228e-07
5.42551e-07
-5.50635e-07
-5.21231e-07
-5.50192e-07
4.52306e-05
-4.73825e-05
-7.89194e-07
7.92921e-07
-7.89464e-07
4.73799e-05
4.52508e-05
-4.7408e-05
8.17451e-07
-8.2138e-07
8.18303e-07
-8.21123e-07
-4.52469e-05
4.74123e-05
5.23659e-07
5.42819e-07
5.20982e-07
5.43114e-07
-5.51156e-07
-5.21458e-07
-5.50359e-07
4.52311e-05
-4.7382e-05
-7.89749e-07
7.93319e-07
-7.89945e-07
4.73797e-05
4.52513e-05
-4.74079e-05
8.1775e-07
-8.21346e-07
8.1833e-07
-8.21616e-07
-4.52468e-05
4.74118e-05
5.24172e-07
5.4316e-07
5.21091e-07
5.43298e-07
-5.51258e-07
-5.2211e-07
-5.509e-07
4.52314e-05
-4.73818e-05
-7.90188e-07
7.9356e-07
-7.90631e-07
4.73792e-05
4.52514e-05
-4.74076e-05
8.17809e-07
-8.22243e-07
8.18381e-07
-8.22097e-07
-4.52476e-05
4.74115e-05
5.24404e-07
5.43528e-07
5.21485e-07
5.44037e-07
-5.52039e-07
-5.22406e-07
-5.51264e-07
4.52317e-05
-4.73811e-05
-7.90911e-07
7.94103e-07
-7.90786e-07
4.73791e-05
4.52516e-05
-4.74078e-05
8.17682e-07
-8.22254e-07
8.18391e-07
-8.21413e-07
-4.52475e-05
4.74124e-05
5.24398e-07
5.44103e-07
5.21283e-07
5.43495e-07
-5.51961e-07
-5.21433e-07
-5.50354e-07
4.52324e-05
-4.73818e-05
-7.90825e-07
7.93529e-07
-7.90275e-07
4.73798e-05
4.52514e-05
-4.74079e-05
8.17853e-07
-8.21595e-07
8.18242e-07
-8.21405e-07
-4.52466e-05
4.74124e-05
5.24087e-07
5.4341e-07
5.21258e-07
5.43287e-07
-5.51141e-07
-5.21246e-07
-5.50347e-07
4.52315e-05
-4.73821e-05
-7.90386e-07
7.93247e-07
-7.90428e-07
4.73799e-05
4.52511e-05
-4.7409e-05
8.1741e-07
-8.21661e-07
8.17278e-07
-8.2083e-07
-4.52466e-05
4.74131e-05
5.23594e-07
5.43187e-07
5.20175e-07
5.42092e-07
-5.51184e-07
-5.20315e-07
-5.49206e-07
4.52313e-05
-4.73828e-05
-7.90551e-07
7.9256e-07
-7.89953e-07
4.73808e-05
4.52501e-05
-4.74087e-05
8.16556e-07
-8.21064e-07
8.17587e-07
-8.21069e-07
-4.52459e-05
4.74127e-05
5.21746e-07
5.42054e-07
5.20819e-07
5.42561e-07
-5.49926e-07
-5.20722e-07
-5.49512e-07
4.52306e-05
-4.73823e-05
-7.90052e-07
7.92997e-07
-7.90308e-07
4.73804e-05
4.52506e-05
-4.74084e-05
8.17172e-07
-8.21526e-07
8.17854e-07
-8.21137e-07
-4.52464e-05
4.74126e-05
5.22869e-07
5.4284e-07
5.21122e-07
5.42629e-07
-5.50784e-07
-5.20805e-07
-5.49634e-07
4.52313e-05
-4.73822e-05
-7.90866e-07
7.93069e-07
-7.91001e-07
4.738e-05
4.52506e-05
-4.74081e-05
8.17189e-07
-8.21396e-07
8.18082e-07
-8.21428e-07
-4.52463e-05
4.74122e-05
5.22787e-07
5.42543e-07
5.21586e-07
5.43174e-07
-5.50383e-07
-5.21351e-07
-5.50066e-07
4.52312e-05
-4.73817e-05
-7.91031e-07
7.935e-07
-7.91207e-07
4.73797e-05
4.52509e-05
-4.74077e-05
8.17611e-07
-8.21899e-07
8.18276e-07
-8.21962e-07
-4.52467e-05
4.74115e-05
5.23548e-07
5.43657e-07
5.21853e-07
5.44544e-07
-5.51429e-07
-5.22199e-07
-5.51723e-07
4.52322e-05
-4.73793e-05
-7.91643e-07
7.94738e-07
-7.92872e-07
4.73773e-05
4.52508e-05
-4.74076e-05
8.17667e-07
-8.22374e-07
8.18349e-07
-8.21668e-07
-4.52469e-05
4.74119e-05
5.23558e-07
5.45069e-07
5.21728e-07
5.46974e-07
-5.53083e-07
-5.21546e-07
-5.53841e-07
4.52335e-05
-4.73746e-05
-7.93908e-07
7.99097e-07
-7.97121e-07
4.73726e-05
4.52508e-05
-4.74076e-05
8.1764e-07
-8.2192e-07
8.18433e-07
-8.21841e-07
-4.52461e-05
4.74115e-05
5.23408e-07
5.47344e-07
5.21869e-07
5.45744e-07
-5.55279e-07
-5.21839e-07
-5.52903e-07
4.52368e-05
-4.73781e-05
-7.97912e-07
7.99064e-07
-7.96505e-07
4.73752e-05
4.52512e-05
-4.74088e-05
8.1778e-07
-8.22027e-07
8.17588e-07
-8.20905e-07
-4.52471e-05
4.74131e-05
5.23467e-07
5.44916e-07
5.20768e-07
5.42816e-07
-5.52866e-07
-5.20438e-07
-5.49518e-07
4.52348e-05
-4.73821e-05
-7.95424e-07
7.93506e-07
-7.91262e-07
4.73803e-05
4.52502e-05
-4.7409e-05
8.16844e-07
-8.21148e-07
8.17439e-07
-8.21551e-07
-4.52457e-05
4.74121e-05
5.22434e-07
5.42607e-07
5.20799e-07
5.42526e-07
-5.50257e-07
-5.21249e-07
-5.4962e-07
4.52314e-05
-4.73824e-05
-7.91349e-07
7.93173e-07
-7.91316e-07
4.738e-05
4.52502e-05
-4.74091e-05
8.16775e-07
-8.21907e-07
8.17464e-07
-8.20542e-07
-4.52471e-05
4.74136e-05
5.22482e-07
5.42608e-07
5.20677e-07
5.4223e-07
-5.50543e-07
-5.19924e-07
-5.49002e-07
4.5231e-05
-4.73828e-05
-7.9111e-07
7.9249e-07
-7.9071e-07
4.73803e-05
4.52501e-05
-4.74086e-05
8.16971e-07
-8.20708e-07
8.17871e-07
-8.21428e-07
-4.52453e-05
4.74122e-05
5.22443e-07
5.42274e-07
5.21192e-07
5.4276e-07
-5.49782e-07
-5.21361e-07
-5.49648e-07
4.52307e-05
-4.73819e-05
-7.91064e-07
7.93358e-07
-7.91727e-07
4.73793e-05
4.52507e-05
-4.74082e-05
8.17431e-07
-8.21929e-07
8.1818e-07
-8.21345e-07
-4.52471e-05
4.74126e-05
5.23244e-07
5.43108e-07
5.21721e-07
5.43112e-07
-5.5088e-07
-5.21491e-07
-5.50219e-07
4.52317e-05
-4.73816e-05
-7.92149e-07
7.93556e-07
-7.92232e-07
4.73786e-05
4.5251e-05
-4.74079e-05
8.17494e-07
-8.21722e-07
8.18346e-07
-8.21536e-07
-4.52464e-05
4.74122e-05
5.23428e-07
5.43085e-07
5.22084e-07
5.43599e-07
-5.51181e-07
-5.21673e-07
-5.50409e-07
4.52317e-05
-4.73811e-05
-7.92542e-07
7.94169e-07
-7.92565e-07
4.73783e-05
4.52514e-05
-4.74078e-05
8.17881e-07
-8.21914e-07
8.18515e-07
-8.22089e-07
-4.52469e-05
4.74115e-05
5.24035e-07
5.43924e-07
5.22307e-07
5.44143e-07
-5.51259e-07
-5.22181e-07
-5.50397e-07
4.52326e-05
-4.73805e-05
-7.92759e-07
7.9468e-07
-7.92768e-07
4.73782e-05
4.52513e-05
-4.74083e-05
8.17851e-07
-8.22496e-07
8.17995e-07
-8.21703e-07
-4.52475e-05
4.74119e-05
5.23994e-07
5.44066e-07
5.21635e-07
5.43196e-07
-5.5151e-07
-5.21701e-07
-5.50335e-07
4.52328e-05
-4.73817e-05
-7.9308e-07
7.93613e-07
-7.92762e-07
4.73784e-05
4.52507e-05
-4.74086e-05
8.17266e-07
-8.2175e-07
8.17906e-07
-8.21014e-07
-4.52469e-05
4.74128e-05
5.23158e-07
5.43046e-07
5.2119e-07
5.42752e-07
-5.50906e-07
-5.20913e-07
-5.49647e-07
4.52315e-05
-4.7382e-05
-7.92728e-07
7.93338e-07
-7.92166e-07
4.7379e-05
4.52505e-05
-4.74089e-05
8.1722e-07
-8.21268e-07
8.17571e-07
-8.21194e-07
-4.52461e-05
4.74126e-05
5.22875e-07
5.42824e-07
5.20919e-07
5.42681e-07
-5.50671e-07
-5.20692e-07
-5.49144e-07
4.52313e-05
-4.73819e-05
-7.92376e-07
7.93375e-07
-7.91839e-07
4.73794e-05
4.52502e-05
-4.74091e-05
8.16949e-07
-8.21473e-07
8.17368e-07
-8.21123e-07
-4.52464e-05
4.74127e-05
5.2259e-07
5.42607e-07
5.20622e-07
5.42281e-07
-5.49909e-07
-5.20926e-07
-5.49203e-07
4.52314e-05
-4.73823e-05
-7.91913e-07
7.93061e-07
-7.9174e-07
4.73794e-05
4.525e-05
-4.74084e-05
8.16798e-07
-8.21438e-07
8.18024e-07
-8.208e-07
-4.52463e-05
4.74131e-05
5.22483e-07
5.42434e-07
5.21296e-07
5.42713e-07
-5.50243e-07
-5.20522e-07
-5.49378e-07
4.52311e-05
-4.73818e-05
-7.92004e-07
7.934e-07
-7.91928e-07
4.7379e-05
4.52509e-05
-4.74079e-05
8.17495e-07
-8.21175e-07
8.18408e-07
-8.21647e-07
-4.52458e-05
4.74118e-05
5.23126e-07
5.42858e-07
5.21906e-07
5.43301e-07
-5.50441e-07
-5.21747e-07
-5.50161e-07
4.52316e-05
-4.73814e-05
-7.92265e-07
7.93792e-07
-7.9239e-07
4.73784e-05
4.52513e-05
-4.74079e-05
8.17868e-07
-8.22036e-07
8.18475e-07
-8.2189e-07
-4.52472e-05
4.74118e-05
5.23815e-07
5.43507e-07
5.22244e-07
5.43536e-07
-5.51188e-07
-5.22199e-07
-5.50369e-07
4.5232e-05
-4.73812e-05
-7.92602e-07
7.93799e-07
-7.92372e-07
4.73784e-05
4.52512e-05
-4.74078e-05
8.17577e-07
-8.21916e-07
8.19162e-07
-8.22919e-07
-4.52472e-05
4.74115e-05
5.23678e-07
5.43319e-07
5.22995e-07
5.44507e-07
-5.50961e-07
-5.23219e-07
-5.51348e-07
4.5232e-05
-4.73808e-05
-7.92324e-07
7.94496e-07
-7.93298e-07
4.73781e-05
4.5251e-05
-4.74051e-05
8.16216e-07
-8.20835e-07
8.23305e-07
-8.26433e-07
-4.52472e-05
4.74097e-05
5.22078e-07
5.41823e-07
5.27747e-07
5.4921e-07
-5.49638e-07
-5.27259e-07
-5.56031e-07
4.52319e-05
-4.73788e-05
-7.91162e-07
7.982e-07
-7.97222e-07
4.73758e-05
4.5247e-05
-4.73873e-05
8.09776e-07
-8.13703e-07
8.31577e-07
-8.35223e-07
-4.52421e-05
4.73914e-05
5.15063e-07
5.34849e-07
5.36997e-07
5.58268e-07
-5.42464e-07
-5.3664e-07
-5.65696e-07
4.52267e-05
-4.73618e-05
-7.84556e-07
8.06449e-07
-8.05506e-07
4.73584e-05
4.52145e-05
-4.72311e-05
7.95123e-07
-7.99446e-07
8.23414e-07
-8.272e-07
-4.52108e-05
4.72345e-05
5.07058e-07
5.26393e-07
5.24781e-07
5.4662e-07
-5.3474e-07
-5.24768e-07
-5.56358e-07
4.51936e-05
-4.72053e-05
-7.69994e-07
7.98677e-07
-7.97668e-07
4.72022e-05
4.49842e-05
-4.70998e-05
8.03474e-07
-8.07537e-07
7.46146e-07
-7.50367e-07
-4.49799e-05
4.7104e-05
5.37847e-07
5.56224e-07
3.67525e-07
3.90149e-07
-5.6646e-07
-3.67859e-07
-3.96578e-07
4.49634e-05
-4.70744e-05
-7.7856e-07
7.20941e-07
-7.20756e-07
4.707e-05
4.50039e-05
-4.64341e-05
9.69489e-07
-9.73905e-07
4.88964e-07
-4.945e-07
-4.49983e-05
4.64376e-05
7.48872e-07
7.6778e-07
9.14584e-09
3.21829e-08
-7.77613e-07
-1.05093e-08
-3.91929e-08
4.49841e-05
-4.64083e-05
-9.45287e-07
4.65682e-07
-4.6396e-07
4.64044e-05
4.40169e-05
-4.59155e-05
1.20944e-06
-1.21404e-06
-1.48967e-08
7.4992e-09
-4.40126e-05
4.59197e-05
1.17188e-06
1.19189e-06
-5.7735e-07
-5.49449e-07
-1.19868e-06
5.76749e-07
5.5031e-07
4.39969e-05
-4.58918e-05
-1.18581e-06
-3.7518e-08
3.71131e-08
4.58872e-05
4.31794e-05
-4.35515e-05
1.81549e-06
-1.82053e-06
-1.20524e-06
1.19547e-06
-4.31764e-05
4.35563e-05
1.98254e-06
2.00193e-06
-1.96617e-06
-1.93844e-06
-2.00048e-06
1.95818e-06
1.93512e-06
4.31626e-05
-4.35308e-05
-1.79301e-06
-1.22516e-06
1.21853e-06
4.35181e-05
4.01568e-05
-3.59488e-05
3.09962e-06
-3.10865e-06
-5.10203e-06
5.08041e-06
-4.01569e-05
3.5916e-05
3.58916e-06
3.60916e-06
-6.74503e-06
-6.72309e-06
-3.61456e-06
6.71952e-06
6.71082e-06
4.01502e-05
-3.59255e-05