/*--------------------------------*- C++ -*----------------------------------*\
| =========                 |                                                 |
| \\      /  F ield         | OpenFOAM: The Open Source CFD Toolbox           |
|  \\    /   O peration     | Version:  2206                                  |
|   \\  /    A nd           | Website:  www.openfoam.com                      |
|    \\/     M anipulation  |                                                 |
\*---------------------------------------------------------------------------*/
FoamFile
{
    version     2.0;
    format      ascii;
    arch        "LSB;label=32;scalar=64";
    class       surfaceScalarField;
    location    "39";
    object      phi;
}
// * * * * * * * * * * * * * * * * * * * * * * * * * * * * * * * * * * * * * //

dimensions      [0 3 -1 0 0 0 0];

oriented        oriented;

internalField   nonuniform List<scalar> 
82717
(
1.71856e-09
1.90239e-09
-1.85029e-09
-1.79448e-09
0.00109661
-0.00109585
-1.22148e-06
-1.92236e-09
3.78137e-09
0.00109585
-2.65121e-07
1.22466e-06
2.63632e-07
9.11862e-07
-2.71529e-07
-9.11253e-07
2.67499e-07
-1.21601e-06
-1.91887e-09
3.7461e-09
0.0010955
-2.65101e-07
1.21916e-06
2.63607e-07
9.11695e-07
-2.74184e-07
-9.11117e-07
2.70207e-07
1.24997e-06
1.21613e-06
-2.39018e-07
-2.44357e-07
0.000267053
1.92657e-09
2.09385e-09
-0.00109661
-2.0292e-09
-1.98436e-09
0.00109661
-0.00109585
-1.22144e-06
-2.11326e-09
3.68921e-09
0.00109585
-2.6509e-07
1.22467e-06
2.63651e-07
9.11882e-07
-2.71485e-07
-9.11213e-07
2.67531e-07
-0.0010955
-1.21599e-06
-2.11002e-09
3.67056e-09
0.0010955
-2.65073e-07
1.21918e-06
2.63623e-07
9.11718e-07
-2.74137e-07
-9.11074e-07
2.70239e-07
-0.000269036
1.24995e-06
1.21611e-06
-2.38998e-07
-2.44336e-07
0.000267053
1.94023e-09
2.15747e-09
-0.00109661
-2.05075e-09
-1.99137e-09
0.00109661
-0.00109585
-1.22144e-06
-2.1361e-09
3.71812e-09
0.00109585
-2.65098e-07
1.22466e-06
2.6364e-07
9.11893e-07
-2.71466e-07
-9.11206e-07
2.67553e-07
-0.0010955
-1.21598e-06
-2.15204e-09
3.64971e-09
0.0010955
-2.65061e-07
1.21918e-06
2.63633e-07
9.11726e-07
-2.74113e-07
-9.11067e-07
2.70262e-07
-0.000269036
1.24993e-06
1.2161e-06
-2.38987e-07
-2.44323e-07
0.000267053
1.95472e-09
2.19267e-09
-0.00109661
-2.06033e-09
-1.9864e-09
0.00109661
-0.00109585
-1.22146e-06
-2.19405e-09
3.72705e-09
0.00109585
-2.65124e-07
1.22465e-06
2.63629e-07
9.11919e-07
-2.71422e-07
-9.1118e-07
2.67598e-07
-0.0010955
-1.21597e-06
-2.20135e-09
3.63719e-09
0.0010955
-2.65056e-07
1.21919e-06
2.63639e-07
9.11738e-07
-2.74097e-07
-9.11058e-07
2.70282e-07
-0.000269036
1.24992e-06
1.21609e-06
-2.38975e-07
-2.44312e-07
0.000267053
2.02128e-09
2.27574e-09
-0.00109661
-2.09065e-09
-2.02266e-09
0.00109661
-0.00109585
-1.22139e-06
-2.25415e-09
3.6613e-09
0.00109585
-2.65058e-07
1.22468e-06
2.63643e-07
9.11926e-07
-2.71423e-07
-9.11186e-07
2.6761e-07
-0.0010955
-1.21596e-06
-2.29131e-09
3.59035e-09
0.0010955
-2.6505e-07
1.21921e-06
2.63657e-07
9.11763e-07
-2.74071e-07
-9.11049e-07
2.70321e-07
-0.000269035
1.24991e-06
1.21607e-06
-2.38964e-07
-2.44301e-07
0.000267053
2.14912e-09
2.38387e-09
-0.00109661
-2.14523e-09
-2.07961e-09
0.00109661
-0.00109585
-1.22138e-06
-2.44433e-09
3.61339e-09
0.00109585
-2.6504e-07
1.22471e-06
2.63669e-07
9.12005e-07
-2.7138e-07
-9.11131e-07
2.67681e-07
-0.0010955
-1.21595e-06
-2.40131e-09
3.58903e-09
0.0010955
-2.65041e-07
1.21923e-06
2.63678e-07
9.11825e-07
-2.7405e-07
-9.11006e-07
2.70365e-07
-0.000269035
1.2499e-06
1.21607e-06
-2.38949e-07
-2.44284e-07
0.000267052
1.84956e-09
2.22261e-09
-0.0010966
-2.06813e-09
-1.93884e-09
0.0010966
-0.00109585
-1.22146e-06
-2.29462e-09
3.85378e-09
0.00109585
-2.65128e-07
1.22462e-06
2.63579e-07
9.12007e-07
-2.71397e-07
-9.11141e-07
2.67676e-07
-0.0010955
-1.21595e-06
-2.27433e-09
3.68384e-09
0.0010955
-2.65045e-07
1.21921e-06
2.63679e-07
9.11824e-07
-2.74062e-07
-9.11011e-07
2.7037e-07
-0.000269035
1.2499e-06
1.21608e-06
-2.38932e-07
-2.44258e-07
0.000267052
1.82104e-09
2.22948e-09
-0.0010966
-2.06889e-09
-1.8266e-09
0.0010966
-0.00109584
-1.22147e-06
-1.89154e-09
4.05044e-09
0.00109584
-2.65158e-07
1.22459e-06
2.63549e-07
9.1189e-07
-2.71519e-07
-9.11232e-07
2.67531e-07
-0.0010955
-1.21594e-06
-2.28126e-09
3.65706e-09
0.0010955
-2.65068e-07
1.21924e-06
2.63664e-07
9.11809e-07
-2.74102e-07
-9.11033e-07
2.70332e-07
-0.000269035
1.24987e-06
1.21607e-06
-2.38945e-07
-2.44257e-07
0.000267052
5.51667e-10
6.01711e-10
-0.0010966
-1.27027e-09
-1.41098e-09
0.0010966
-0.00109585
-1.2217e-06
-1.00634e-09
3.89799e-09
0.00109585
-2.68137e-07
1.22452e-06
2.66217e-07
9.11472e-07
-2.72117e-07
-9.11793e-07
2.67118e-07
-0.0010955
-1.21635e-06
-7.8106e-10
4.17168e-09
0.0010955
-2.65473e-07
1.21891e-06
2.63346e-07
9.11283e-07
-2.74775e-07
-9.11661e-07
2.69746e-07
-0.000269035
1.25031e-06
1.21646e-06
-2.3946e-07
-2.44804e-07
0.000267052
2.21163e-09
2.29019e-09
-0.0010966
-2.09758e-09
-2.15401e-09
0.0010966
-0.00109585
-1.22136e-06
-2.40588e-09
3.46463e-09
0.00109585
-2.67797e-07
1.22477e-06
2.66533e-07
9.12006e-07
-2.71543e-07
-9.11217e-07
2.67656e-07
-0.00109551
-1.21594e-06
-2.34036e-09
3.49631e-09
0.00109551
-2.65028e-07
1.2193e-06
2.63764e-07
9.11813e-07
-2.74196e-07
-9.1111e-07
2.70318e-07
-0.000269036
1.24991e-06
1.21605e-06
-2.3895e-07
-2.44306e-07
0.000267053
2.05273e-09
2.23885e-09
-0.0010966
-2.11122e-09
-2.05954e-09
0.0010966
-0.00109585
-1.22143e-06
-2.21406e-09
3.68603e-09
0.00109585
-2.67885e-07
1.22469e-06
2.66447e-07
9.11959e-07
-2.71544e-07
-9.11238e-07
2.67626e-07
-0.0010955
-1.21598e-06
-2.24101e-09
3.58726e-09
0.0010955
-2.65074e-07
1.21924e-06
2.63694e-07
9.11787e-07
-2.74166e-07
-9.11104e-07
2.70311e-07
-0.000269036
1.24994e-06
1.2161e-06
-2.38988e-07
-2.44324e-07
0.000267053
1.91274e-09
2.10095e-09
-0.0010966
-2.02368e-09
-1.98098e-09
0.0010966
-0.00109585
-1.22146e-06
-2.0973e-09
3.72117e-09
0.00109585
-2.67904e-07
1.22467e-06
2.66431e-07
9.11923e-07
-2.71582e-07
-9.11282e-07
2.6759e-07
-0.0010955
-1.21602e-06
-2.09775e-09
3.66984e-09
0.0010955
-2.65119e-07
1.21921e-06
2.63659e-07
9.11752e-07
-2.74208e-07
-9.11148e-07
2.70277e-07
-0.000269036
1.24998e-06
1.21614e-06
-2.3903e-07
-2.44366e-07
0.000267053
1.89657e-09
2.0818e-09
-0.0010966
-2.00947e-09
-1.9737e-09
0.0010966
-0.00109585
-1.22146e-06
-2.09187e-09
3.71347e-09
0.00109585
-2.67904e-07
1.22467e-06
2.66432e-07
9.11921e-07
-2.71583e-07
-9.11283e-07
2.67591e-07
-0.0010955
-1.21602e-06
-2.07722e-09
3.67772e-09
0.0010955
-2.65121e-07
1.21921e-06
2.63655e-07
9.11746e-07
-2.7421e-07
-9.11152e-07
2.70272e-07
-0.000269036
1.24998e-06
1.21614e-06
-2.39032e-07
-2.44369e-07
0.000267053
1.90483e-09
2.08746e-09
-0.0010966
-2.01184e-09
-1.97854e-09
0.0010966
-0.00109585
-1.22146e-06
-2.09583e-09
3.71094e-09
0.00109585
-2.67901e-07
1.22467e-06
2.66435e-07
9.1192e-07
-2.71584e-07
-9.11283e-07
2.67589e-07
-0.0010955
-1.21602e-06
-2.08155e-09
3.6786e-09
0.0010955
-2.65121e-07
1.21921e-06
2.63655e-07
9.11747e-07
-2.74209e-07
-9.11151e-07
2.70272e-07
-0.000269036
1.24998e-06
1.21614e-06
-2.39033e-07
-2.4437e-07
0.000267053
1.90143e-09
2.09302e-09
-0.0010966
-2.01624e-09
-1.97815e-09
0.0010966
-0.00109585
-1.22146e-06
-2.09332e-09
3.71397e-09
0.00109585
-2.67902e-07
1.22467e-06
2.66432e-07
9.11919e-07
-2.71582e-07
-9.11281e-07
2.67588e-07
-0.0010955
-1.21602e-06
-2.08063e-09
3.67914e-09
0.0010955
-2.6512e-07
1.21921e-06
2.63655e-07
9.11745e-07
-2.74208e-07
-9.11149e-07
2.7027e-07
-0.000269036
1.24998e-06
1.21614e-06
-2.39033e-07
-2.4437e-07
0.000267053
1.90489e-09
2.09922e-09
-0.0010966
-2.02021e-09
-1.98174e-09
0.0010966
-0.00109585
-1.22146e-06
-2.09624e-09
3.71458e-09
0.00109585
-2.67901e-07
1.22467e-06
2.66431e-07
9.11917e-07
-2.71577e-07
-9.11276e-07
2.67585e-07
-0.0010955
-1.21602e-06
-2.08184e-09
3.6793e-09
0.0010955
-2.65119e-07
1.21921e-06
2.63654e-07
9.11742e-07
-2.74204e-07
-9.11146e-07
2.70265e-07
-0.000269036
1.24998e-06
1.21614e-06
-2.39031e-07
-2.44368e-07
0.000267053
1.90212e-09
2.09505e-09
-0.0010966
-2.01762e-09
-1.98061e-09
0.0010966
-0.00109585
-1.22146e-06
-2.09154e-09
3.71413e-09
0.00109585
-2.67898e-07
1.22466e-06
2.66428e-07
9.11908e-07
-2.7157e-07
-9.1127e-07
2.67575e-07
-0.0010955
-1.21602e-06
-2.07688e-09
3.68326e-09
0.0010955
-2.65115e-07
1.2192e-06
2.63647e-07
9.11733e-07
-2.74195e-07
-9.11138e-07
2.70255e-07
-0.000269036
1.24998e-06
1.21614e-06
-2.39027e-07
-2.44365e-07
0.000267053
1.89667e-09
2.08522e-09
-0.0010966
-2.00844e-09
-1.97436e-09
0.0010966
-0.00109585
-1.22145e-06
-2.09081e-09
3.7124e-09
0.00109585
-2.67888e-07
1.22466e-06
2.66417e-07
9.11888e-07
-2.71552e-07
-9.11252e-07
2.67556e-07
-0.0010955
-1.216e-06
-2.07056e-09
3.68427e-09
0.0010955
-2.65099e-07
1.21919e-06
2.63629e-07
9.11708e-07
-2.74175e-07
-9.11119e-07
2.70233e-07
-0.000269036
1.24996e-06
1.21613e-06
-2.39017e-07
-2.44355e-07
0.000267053
1.26396e-06
0.0010955
-1.26089e-06
2.7176e-07
-2.73418e-07
-9.16927e-07
2.70166e-07
-2.74429e-07
9.17384e-07
-1.22465e-06
0.000269081
-0.000267083
2.42422e-07
2.47288e-07
-1.22151e-06
2.63613e-07
-2.6515e-07
2.67481e-07
-2.71555e-07
1.25534e-06
1.21882e-06
-2.36464e-07
-2.41744e-07
0.000267059
-1.25847e-06
-1.22198e-06
0.000269055
-0.000267059
2.39624e-07
2.44923e-07
3.98363e-09
0.00109506
-2.73343e-07
1.25846e-06
2.7172e-07
9.11736e-07
-2.71546e-07
-9.11243e-07
2.67406e-07
-1.26087e-06
-1.52504e-09
-1.27086e-09
0.0010955
-2.73393e-07
1.26397e-06
2.71772e-07
9.17376e-07
-2.74407e-07
-9.16934e-07
2.70179e-07
0.00109506
-1.92774e-09
-0.00109506
3.9087e-09
-1.25532e-06
2.71735e-07
-2.73319e-07
-9.11198e-07
2.67441e-07
-2.71502e-07
9.11765e-07
1.26397e-06
0.0010955
-1.73227e-09
-0.0010955
3.87124e-09
-1.26084e-06
2.71787e-07
-2.73373e-07
-9.16861e-07
2.70214e-07
-2.74367e-07
9.17393e-07
-2.39257e-07
-2.44146e-07
0.000267082
-1.22467e-06
0.000269081
-0.000267082
2.4244e-07
2.47302e-07
3.76813e-09
0.00109612
-2.67914e-07
1.22196e-06
2.66366e-07
9.14673e-07
-2.74324e-07
-9.1398e-07
2.70288e-07
-1.25542e-06
-1.68434e-09
3.98531e-09
0.00109517
-2.73396e-07
1.25851e-06
2.71753e-07
9.14485e-07
-2.74301e-07
-9.14002e-07
2.70176e-07
0.00109612
-2.09069e-09
-0.00109612
3.67818e-09
-1.2188e-06
2.66387e-07
-2.67888e-07
-9.13942e-07
2.70315e-07
-2.74288e-07
9.14694e-07
1.25852e-06
0.00109517
-1.84994e-09
-0.00109517
3.92229e-09
-1.2554e-06
2.71764e-07
-2.73376e-07
-9.13964e-07
2.702e-07
-2.74266e-07
9.14504e-07
-1.68349e-09
3.9779e-09
0.00109497
-2.67799e-07
1.25306e-06
2.66192e-07
9.11763e-07
-2.71527e-07
2.67374e-07
-9.11278e-07
-2.10364e-09
-0.00109585
3.6915e-09
-1.22145e-06
2.63651e-07
-2.65092e-07
-9.11216e-07
2.67528e-07
9.11881e-07
-2.71493e-07
1.25307e-06
0.00109497
-1.84239e-09
-0.00109497
3.91073e-09
-1.24995e-06
2.66206e-07
-2.67776e-07
-9.11243e-07
2.67398e-07
-2.71493e-07
9.1178e-07
-2.36668e-07
-2.44114e-07
0.00026704
-1.21918e-06
0.000269031
-0.00026704
2.39819e-07
2.47259e-07
-1.8829e-09
3.77224e-09
0.00109603
-2.65161e-07
1.21927e-06
2.63662e-07
9.09305e-07
-2.71607e-07
2.67562e-07
-9.08668e-07
-2.10861e-09
-0.0010955
3.67192e-09
-1.21599e-06
2.63622e-07
-2.65077e-07
-9.11026e-07
2.70214e-07
9.11769e-07
-2.74167e-07
1.21928e-06
0.00109603
-2.04436e-09
-0.00109603
3.70784e-09
-1.21611e-06
2.63674e-07
-2.65141e-07
-9.08635e-07
2.67586e-07
-2.71573e-07
9.09322e-07
-0.000267053
2.42146e-07
2.47507e-07
1.25532e-06
1.2188e-06
-2.36439e-07
-2.41724e-07
0.000267059
-1.25847e-06
-1.22467e-06
0.000269052
-0.000267058
2.42203e-07
2.47564e-07
3.90752e-09
0.00109506
-2.73314e-07
1.25847e-06
2.71739e-07
9.11767e-07
-2.71495e-07
-9.11194e-07
2.67444e-07
-1.26083e-06
-1.76105e-09
3.88221e-09
0.0010955
-2.73371e-07
1.26397e-06
2.71786e-07
9.17398e-07
-2.74357e-07
-9.16854e-07
2.70221e-07
0.00109506
-1.97048e-09
-0.00109505
3.86625e-09
-1.25531e-06
2.71748e-07
-2.73301e-07
-9.13889e-07
2.67467e-07
-2.74182e-07
9.11766e-07
1.26398e-06
0.0010955
-1.86863e-09
-0.0010955
3.91314e-09
-1.26082e-06
2.71789e-07
-2.73368e-07
-9.16837e-07
2.70241e-07
-2.74337e-07
9.17413e-07
-2.39225e-07
-2.44118e-07
0.000267082
-1.22466e-06
0.000269081
-0.000267082
2.4244e-07
2.47314e-07
3.69358e-09
0.00109612
-2.67886e-07
1.22197e-06
2.66421e-07
9.14694e-07
-2.74281e-07
-9.13939e-07
2.70318e-07
-1.2554e-06
-1.87615e-09
3.92429e-09
0.00109517
-2.73371e-07
1.25852e-06
2.71765e-07
9.1451e-07
-2.74255e-07
-9.13958e-07
2.70209e-07
0.00109611
-2.17203e-09
-0.00109611
3.66547e-09
-1.22148e-06
2.69179e-07
-2.70659e-07
-9.13929e-07
2.70336e-07
-2.74265e-07
9.14705e-07
1.25853e-06
0.00109517
-1.92092e-09
-0.00109517
3.90586e-09
-1.25539e-06
2.71772e-07
-2.73363e-07
-9.13952e-07
2.70225e-07
-2.74234e-07
9.14509e-07
-1.86356e-09
3.90205e-09
0.00109497
-2.6777e-07
1.25308e-06
2.66208e-07
9.11783e-07
-2.71482e-07
2.67405e-07
-9.11238e-07
-2.14278e-09
-0.00109585
3.70681e-09
-1.22144e-06
2.63644e-07
-2.65095e-07
-9.11206e-07
2.67546e-07
9.1189e-07
-2.71472e-07
1.25308e-06
0.00109497
-1.89985e-09
-0.00109497
3.87825e-09
-1.24994e-06
2.66215e-07
-2.67761e-07
-9.11234e-07
2.67418e-07
-2.71468e-07
9.11786e-07
-2.36647e-07
-2.44094e-07
0.00026704
-1.21918e-06
0.000269031
-0.00026704
2.39832e-07
2.47268e-07
-2.07038e-09
3.70932e-09
0.00109603
-2.65135e-07
1.21928e-06
2.63676e-07
9.09326e-07
-2.71563e-07
2.67593e-07
-9.08628e-07
-2.16523e-09
-0.0010955
3.64776e-09
-1.21598e-06
2.6363e-07
-2.65064e-07
-9.11015e-07
2.70233e-07
9.11777e-07
-2.74142e-07
1.21929e-06
0.00109603
-2.14432e-09
-0.00109603
3.699e-09
-1.2161e-06
2.63682e-07
-2.65127e-07
-9.08618e-07
2.6761e-07
-2.71544e-07
9.09335e-07
-0.000267053
2.42155e-07
2.47519e-07
1.2553e-06
1.22148e-06
-2.39009e-07
-2.4435e-07
0.000267058
-1.25848e-06
-1.22468e-06
0.000269052
-0.000267058
2.42202e-07
2.47577e-07
3.8525e-09
0.00109505
-2.73293e-07
1.25848e-06
2.71755e-07
9.14455e-07
-2.71473e-07
-9.11205e-07
2.70175e-07
-1.26081e-06
-1.85735e-09
3.92243e-09
0.0010955
-2.73367e-07
1.26398e-06
2.71789e-07
9.17408e-07
-2.74339e-07
-9.16839e-07
2.70238e-07
0.00109505
-1.96658e-09
-0.00109505
3.84611e-09
-1.25529e-06
2.71756e-07
-2.73289e-07
-9.13903e-07
2.70177e-07
-2.74186e-07
9.14464e-07
1.26399e-06
0.0010955
-1.82369e-09
-0.0010955
3.92453e-09
-1.26081e-06
2.71778e-07
-2.73379e-07
-9.16871e-07
2.70227e-07
-2.74366e-07
9.17387e-07
-2.39228e-07
-2.44104e-07
0.000267082
-1.22464e-06
0.000269081
-0.000267082
2.42398e-07
2.47341e-07
3.6676e-09
0.00109611
-2.70653e-07
1.22468e-06
2.69185e-07
9.14707e-07
-2.74258e-07
-9.13929e-07
2.70344e-07
-1.25538e-06
-1.91478e-09
3.90627e-09
0.00109517
-2.73357e-07
1.25854e-06
2.71779e-07
9.14505e-07
-2.7423e-07
-9.1396e-07
2.7023e-07
0.00109611
-2.2109e-09
-0.00109611
3.67075e-09
-1.22148e-06
2.69183e-07
-2.70651e-07
-9.1392e-07
2.70357e-07
-2.74246e-07
9.14717e-07
1.25854e-06
0.00109517
-1.95407e-09
-0.00109517
3.87214e-09
-1.25537e-06
2.71785e-07
-2.7335e-07
-9.13956e-07
2.70241e-07
-2.74223e-07
9.14514e-07
-1.90787e-09
3.86723e-09
0.00109496
-2.67756e-07
1.25309e-06
2.66222e-07
9.1179e-07
-2.71459e-07
2.67428e-07
-9.11232e-07
-2.21001e-09
-0.00109585
3.73335e-09
-1.22146e-06
2.63613e-07
-2.65131e-07
-9.11182e-07
2.67593e-07
9.11918e-07
-2.71433e-07
1.25309e-06
0.00109496
-1.94861e-09
-0.00109496
3.86214e-09
-1.24993e-06
2.66221e-07
-2.67755e-07
-9.11225e-07
2.67438e-07
-2.7145e-07
9.11798e-07
-2.36634e-07
-2.44082e-07
0.00026704
-1.21919e-06
0.000269031
-0.00026704
2.39843e-07
2.47284e-07
-2.15498e-09
3.69604e-09
0.00109603
-2.65122e-07
1.21929e-06
2.63689e-07
9.09339e-07
-2.71535e-07
2.67619e-07
-9.08616e-07
-2.21529e-09
-0.0010955
3.63703e-09
-1.21597e-06
2.63636e-07
-2.65058e-07
-9.11006e-07
2.70253e-07
9.11789e-07
-2.74124e-07
1.2193e-06
0.00109603
-2.20035e-09
-0.00109603
3.68053e-09
-1.21609e-06
2.6369e-07
-2.65119e-07
-9.08608e-07
2.6763e-07
-2.71526e-07
9.09348e-07
-0.000267053
2.42168e-07
2.4753e-07
1.25529e-06
1.22147e-06
-2.39003e-07
-2.44339e-07
0.000267058
-1.25849e-06
-1.22468e-06
0.000269051
-0.000267058
2.42216e-07
2.47588e-07
3.83638e-09
0.00109505
-2.73284e-07
1.25849e-06
2.71759e-07
9.14471e-07
-2.74177e-07
-9.13897e-07
2.70188e-07
-1.2608e-06
-1.83891e-09
3.91621e-09
0.0010955
-2.73367e-07
1.26399e-06
2.71793e-07
9.17402e-07
-2.74333e-07
-9.16861e-07
2.70263e-07
0.00109505
-2.01863e-09
-0.00109505
3.85633e-09
-1.25529e-06
2.71758e-07
-2.73287e-07
-9.13889e-07
2.70201e-07
-2.74154e-07
9.14473e-07
1.26399e-06
0.0010955
-2.00489e-09
-0.0010955
3.82226e-09
-1.26079e-06
2.71847e-07
-2.73338e-07
-9.14127e-07
2.67584e-07
-2.71573e-07
9.14731e-07
-2.39255e-07
-2.44076e-07
0.000267082
-1.22467e-06
0.000269078
-0.000267079
2.45042e-07
2.44772e-07
3.66573e-09
0.00109611
-2.70647e-07
1.22468e-06
2.69186e-07
9.14716e-07
-2.74243e-07
-9.13923e-07
2.70363e-07
-1.25537e-06
-1.95419e-09
3.87009e-09
0.00109517
-2.73347e-07
1.25855e-06
2.71788e-07
9.1452e-07
-2.74215e-07
-9.13951e-07
2.70252e-07
0.00109611
-2.24063e-09
-0.00109611
3.6468e-09
-1.22147e-06
2.69191e-07
-2.70643e-07
-9.13921e-07
2.70385e-07
-2.74229e-07
9.14725e-07
1.25855e-06
0.00109517
-1.97616e-09
-0.00109517
3.86121e-09
-1.25537e-06
2.71791e-07
-2.73349e-07
-9.13956e-07
2.70258e-07
-2.74212e-07
9.14521e-07
-1.95489e-09
3.85253e-09
0.00109496
-2.67752e-07
1.25309e-06
2.66225e-07
9.11802e-07
-2.71442e-07
2.67449e-07
-9.11222e-07
-2.27705e-09
-0.00109585
3.65357e-09
-1.22141e-06
2.6363e-07
-2.65062e-07
-9.11183e-07
2.67604e-07
9.11919e-07
-2.7142e-07
1.2531e-06
0.00109496
-2.00047e-09
-0.00109496
3.85498e-09
-1.24992e-06
2.66229e-07
-2.67752e-07
-9.11219e-07
2.6747e-07
-2.71426e-07
9.1181e-07
-2.36623e-07
-2.44068e-07
0.00026704
-1.21919e-06
0.00026903
-0.00026704
2.39846e-07
2.473e-07
-2.20658e-09
3.67353e-09
0.00109603
-2.65116e-07
1.2193e-06
2.63695e-07
9.09353e-07
-2.71518e-07
2.67641e-07
-9.08605e-07
-2.26028e-09
-0.0010955
3.63183e-09
-1.21597e-06
2.63639e-07
-2.65059e-07
-9.11003e-07
2.70285e-07
9.118e-07
-2.74102e-07
1.21931e-06
0.00109603
-2.24124e-09
-0.00109603
3.6563e-09
-1.21608e-06
2.63699e-07
-2.65115e-07
-9.08604e-07
2.67662e-07
-2.71502e-07
9.09359e-07
-0.000267053
2.42184e-07
2.47545e-07
1.25528e-06
1.22146e-06
-2.38991e-07
-2.4433e-07
0.000267058
-1.2585e-06
-1.22469e-06
0.000269051
-0.000267058
2.42233e-07
2.47609e-07
3.81307e-09
0.00109505
-2.73277e-07
1.25851e-06
2.71774e-07
9.14481e-07
-2.74151e-07
-9.13898e-07
2.70212e-07
-1.26077e-06
-1.97452e-09
3.82858e-09
0.0010955
-2.73366e-07
1.264e-06
2.71857e-07
9.1474e-07
-2.71573e-07
-9.14128e-07
2.67596e-07
0.00109505
-2.04351e-09
-0.00109505
3.857e-09
-1.25529e-06
2.71774e-07
-2.73287e-07
-9.13862e-07
2.70236e-07
-2.74132e-07
9.14529e-07
1.26401e-06
0.0010955
-2.10849e-09
-0.0010955
3.80232e-09
-1.26075e-06
2.69101e-07
-2.70581e-07
-9.14099e-07
2.6762e-07
-2.71531e-07
9.14791e-07
-2.41751e-07
-2.41503e-07
0.000267079
-1.2247e-06
0.000269078
-0.000267076
2.4251e-07
2.44808e-07
3.61951e-09
0.00109611
-2.70637e-07
1.2247e-06
2.69203e-07
9.14741e-07
-2.74222e-07
-9.13916e-07
2.704e-07
-1.25536e-06
-2.04248e-09
3.81968e-09
0.00109517
-2.73338e-07
1.25857e-06
2.71808e-07
9.14548e-07
-2.742e-07
-9.13942e-07
2.70282e-07
0.00109611
-2.25826e-09
-0.00109611
3.67764e-09
-1.22147e-06
2.69202e-07
-2.70646e-07
-9.13897e-07
2.70418e-07
-2.74219e-07
9.14775e-07
1.25856e-06
0.00109517
-2.03252e-09
-0.00109517
3.85858e-09
-1.25537e-06
2.718e-07
-2.73351e-07
-9.13909e-07
2.70307e-07
-2.74181e-07
9.14588e-07
-2.04119e-09
3.81024e-09
0.00109496
-2.67744e-07
1.25311e-06
2.66244e-07
9.11827e-07
-2.71417e-07
2.67485e-07
-9.11212e-07
-2.35105e-09
-0.00109585
3.63537e-09
-1.22139e-06
2.63661e-07
-2.65055e-07
-9.11161e-07
2.67645e-07
9.11974e-07
-2.71413e-07
1.25311e-06
0.00109496
-2.01052e-09
-0.00109496
3.8673e-09
-1.24992e-06
2.66241e-07
-2.67753e-07
-9.11202e-07
2.67497e-07
-2.71417e-07
9.11852e-07
-2.36622e-07
-2.44055e-07
0.00026704
-1.21921e-06
0.00026903
-0.000267039
2.39881e-07
2.47316e-07
-2.29395e-09
3.62406e-09
0.00109603
-2.65107e-07
1.21932e-06
2.63714e-07
9.09377e-07
-2.71492e-07
2.67679e-07
-9.08596e-07
-2.2788e-09
-0.0010955
3.63267e-09
-1.21596e-06
2.63657e-07
-2.65053e-07
-9.10982e-07
2.70312e-07
9.11845e-07
-2.74091e-07
1.21931e-06
0.00109603
-2.2563e-09
-0.00109603
3.67881e-09
-1.21608e-06
2.63709e-07
-2.65118e-07
-9.08583e-07
2.67692e-07
-2.71491e-07
9.09404e-07
-0.000267053
2.42202e-07
2.47566e-07
1.25527e-06
1.22145e-06
-2.38969e-07
-2.44313e-07
0.000267058
-1.25855e-06
-1.22471e-06
0.000269051
-0.000267057
2.42248e-07
2.47668e-07
3.79189e-09
0.00109505
-2.7327e-07
1.25852e-06
2.71802e-07
9.14558e-07
-2.74113e-07
-9.1384e-07
2.70263e-07
-1.26073e-06
-2.1635e-09
3.77201e-09
0.0010955
-2.70566e-07
1.26402e-06
2.69114e-07
9.14805e-07
-2.71513e-07
-9.14085e-07
2.67644e-07
0.00109505
-1.97733e-09
-0.00109505
3.80986e-09
-1.25525e-06
2.71819e-07
-2.73266e-07
-9.13858e-07
2.70231e-07
-2.74137e-07
9.14545e-07
1.26401e-06
0.0010955
-1.8983e-09
-0.0010955
3.91394e-09
-1.26075e-06
2.69091e-07
-2.70595e-07
-9.14125e-07
2.67612e-07
-2.71566e-07
9.14784e-07
-2.39154e-07
-2.41469e-07
0.000267076
-1.22467e-06
0.000269077
-0.000267076
2.42482e-07
2.44837e-07
3.63276e-09
0.00109611
-2.7063e-07
1.22471e-06
2.69227e-07
9.14806e-07
-2.74203e-07
-9.13873e-07
2.70448e-07
-1.25535e-06
-2.16134e-09
3.81284e-09
0.00109517
-2.73337e-07
1.25858e-06
2.71825e-07
9.14616e-07
-2.74165e-07
-9.13885e-07
2.70335e-07
0.00109611
-2.32298e-09
-0.00109611
3.71058e-09
-1.22145e-06
2.69229e-07
-2.70634e-07
-9.13863e-07
2.70469e-07
-2.74203e-07
9.14838e-07
1.25861e-06
0.00109517
-2.05512e-09
-0.00109517
3.80204e-09
-1.25533e-06
2.71857e-07
-2.73317e-07
-9.1389e-07
2.70343e-07
-2.74171e-07
9.14627e-07
-2.14691e-09
3.80829e-09
0.00109496
-2.67737e-07
1.25313e-06
2.66266e-07
9.11886e-07
-2.71396e-07
2.6753e-07
-9.11173e-07
-2.29645e-09
-0.00109585
3.79316e-09
-1.22141e-06
2.6364e-07
-2.65076e-07
-9.11134e-07
2.67688e-07
9.12019e-07
-2.71396e-07
1.25316e-06
0.00109496
-2.0412e-09
-0.00109496
3.782e-09
-1.24988e-06
2.66299e-07
-2.67717e-07
-9.1117e-07
2.67541e-07
-2.71399e-07
9.11903e-07
-2.36595e-07
-2.44043e-07
0.000267039
-1.21925e-06
0.00026903
-0.000267039
2.39926e-07
2.47375e-07
-2.40007e-09
3.63038e-09
0.00109603
-2.65103e-07
1.21934e-06
2.63734e-07
9.09438e-07
-2.71471e-07
2.67724e-07
-9.08555e-07
-2.35517e-09
-0.0010955
3.60858e-09
-1.21593e-06
2.63703e-07
-2.6503e-07
-9.10941e-07
2.70362e-07
9.11905e-07
-2.74066e-07
1.21936e-06
0.00109602
-2.33848e-09
-0.00109602
3.64626e-09
-1.21605e-06
2.63759e-07
-2.65089e-07
-9.08544e-07
2.67741e-07
-2.71466e-07
9.09462e-07
-0.000267052
2.42253e-07
2.47624e-07
1.25528e-06
1.2215e-06
-2.38999e-07
-2.4429e-07
0.000267057
-1.25863e-06
-1.22207e-06
0.000269048
-0.000267057
2.4227e-07
2.47667e-07
3.893e-09
0.00109505
-2.73284e-07
1.25852e-06
2.71795e-07
9.14497e-07
-2.74183e-07
-9.13902e-07
2.70189e-07
-1.26078e-06
-1.8778e-09
3.93926e-09
0.0010955
-2.70636e-07
1.26398e-06
2.69048e-07
9.14748e-07
-2.71594e-07
-9.14161e-07
2.67576e-07
0.00109505
-2.13546e-09
-0.00109505
3.61291e-09
-1.25522e-06
2.71866e-07
-2.73252e-07
-9.13857e-07
2.6755e-07
-2.74135e-07
9.11889e-07
1.26408e-06
0.00109549
-1.95957e-09
-0.0010955
3.80545e-09
-1.26074e-06
2.71872e-07
-2.73348e-07
-9.1684e-07
2.70369e-07
-2.74311e-07
9.1751e-07
-2.39233e-07
-2.41485e-07
0.000267076
-1.22473e-06
0.00026908
-0.000267078
2.4252e-07
2.44836e-07
3.81397e-09
0.00109611
-2.70663e-07
1.22466e-06
2.6919e-07
9.14811e-07
-2.74223e-07
-9.13882e-07
2.70455e-07
-1.25535e-06
-1.98696e-09
3.86908e-09
0.00109517
-2.7333e-07
1.25858e-06
2.71836e-07
9.146e-07
-2.74189e-07
-9.13908e-07
2.70329e-07
0.00109611
-2.58376e-09
-0.00109611
3.62109e-09
-1.22144e-06
2.66494e-07
-2.70649e-07
-9.13846e-07
2.70525e-07
-2.74194e-07
9.14903e-07
1.25869e-06
0.00109517
-2.30807e-09
-0.00109517
3.60913e-09
-1.25529e-06
2.71901e-07
-2.73307e-07
-9.13879e-07
2.70384e-07
-2.7417e-07
9.14682e-07
-1.97526e-09
3.8475e-09
0.00109496
-2.67729e-07
1.25313e-06
2.66278e-07
9.11877e-07
-2.71415e-07
2.67527e-07
-9.11186e-07
-2.37982e-09
-0.00109584
3.72365e-09
-1.22138e-06
2.63676e-07
-2.65085e-07
-9.11134e-07
2.67682e-07
9.1204e-07
-2.7142e-07
1.25324e-06
0.00109496
-2.2335e-09
-0.00109496
3.54886e-09
-1.24984e-06
2.66351e-07
-2.67699e-07
-9.11175e-07
2.67564e-07
-2.71414e-07
9.11941e-07
-2.36581e-07
-2.44018e-07
0.000267039
-1.21933e-06
0.000269029
-0.000267039
2.39965e-07
2.47413e-07
-2.25091e-09
3.72148e-09
0.00109602
-2.65106e-07
1.21932e-06
2.63733e-07
9.09434e-07
-2.71484e-07
2.67727e-07
-9.08562e-07
-2.63054e-09
-0.0010955
3.42888e-09
-1.21589e-06
2.63748e-07
-2.6502e-07
-9.10929e-07
2.70406e-07
9.11961e-07
-2.74064e-07
1.21942e-06
0.00109602
-2.55844e-09
-0.00109602
3.49465e-09
-1.21603e-06
2.63789e-07
-2.65093e-07
-9.08537e-07
2.67779e-07
-2.71469e-07
9.09513e-07
-0.000267052
2.42279e-07
2.47666e-07
1.25526e-06
1.21877e-06
-2.38993e-07
-2.44261e-07
0.000267057
-1.26082e-06
-1.22166e-06
0.000269054
-0.000267057
2.39172e-07
2.47086e-07
3.79022e-09
0.00109505
-2.70547e-07
1.25855e-06
2.69028e-07
9.11786e-07
-2.71462e-07
-9.1121e-07
2.67418e-07
-1.26084e-06
-1.49102e-09
4.13375e-09
0.00109549
-2.73428e-07
1.26393e-06
2.71745e-07
9.17362e-07
-2.74386e-07
-9.16928e-07
2.70228e-07
0.00109505
-2.76124e-10
-0.00109505
4.56692e-09
-1.25571e-06
2.71377e-07
-2.73736e-07
-9.11795e-07
2.64118e-07
-2.72117e-07
9.11243e-07
1.26368e-06
0.0010955
-4.76493e-10
-0.0010955
4.38327e-09
-1.2612e-06
2.71482e-07
-2.73785e-07
-9.20214e-07
2.69736e-07
-2.7499e-07
9.19659e-07
-2.39239e-07
-2.4154e-07
0.000267078
-1.22436e-06
0.000269078
-0.000267079
2.42081e-07
2.46893e-07
3.81826e-09
0.00109611
-2.67938e-07
1.22199e-06
2.66409e-07
9.14799e-07
-2.74257e-07
-9.13902e-07
2.70424e-07
-1.25533e-06
-1.98046e-09
3.83961e-09
0.00109517
-2.73356e-07
1.2586e-06
2.71818e-07
9.14583e-07
-2.74233e-07
-9.13931e-07
2.70288e-07
0.00109613
-1.19194e-08
-0.00109611
4.36648e-09
-1.21917e-06
2.66093e-07
-2.68317e-07
-9.14517e-07
2.69813e-07
-2.7489e-07
9.14228e-07
1.2582e-06
0.00109517
-3.52123e-10
-0.00109517
4.51483e-09
-1.25577e-06
2.71419e-07
-2.73789e-07
-9.14543e-07
2.6967e-07
-2.74864e-07
9.14008e-07
-1.89949e-09
3.745e-09
0.00109496
-2.67744e-07
1.25316e-06
2.66271e-07
9.11843e-07
-2.71477e-07
2.67467e-07
-9.11227e-07
-6.94182e-10
-0.00109585
4.24786e-09
-1.22181e-06
2.6605e-07
-2.68263e-07
-9.11825e-07
2.67026e-07
9.11377e-07
-2.72149e-07
1.25275e-06
0.00109496
-3.99977e-10
-0.00109496
4.5274e-09
-1.25032e-06
2.65866e-07
-2.68183e-07
-9.11817e-07
2.6687e-07
-2.72092e-07
9.11292e-07
-2.36583e-07
-2.44021e-07
0.000267039
-1.21885e-06
0.00026903
-0.000267039
2.394e-07
2.46838e-07
-2.22288e-09
3.72327e-09
0.00109602
-2.65142e-07
1.21933e-06
2.63705e-07
9.09414e-07
-2.7153e-07
2.67683e-07
-9.08587e-07
-6.59514e-10
-0.0010955
4.30158e-09
-1.21636e-06
2.63276e-07
-2.65493e-07
-9.11599e-07
2.69687e-07
9.11279e-07
-2.74763e-07
1.21896e-06
0.00109603
-6.07559e-10
-0.00109602
4.30151e-09
-1.21649e-06
2.63333e-07
-2.65556e-07
-9.09205e-07
2.67063e-07
-2.72165e-07
9.08834e-07
-0.000267052
2.41729e-07
2.47091e-07
1.25837e-06
1.21916e-06
-2.36918e-07
-2.44755e-07
0.000267058
-1.26123e-06
-1.22208e-06
0.000269052
-0.000267059
2.39704e-07
2.50113e-07
4.51946e-09
0.00109506
-2.73689e-07
1.26088e-06
2.71445e-07
9.11305e-07
-2.69393e-07
-9.11815e-07
2.64189e-07
-1.26111e-06
-9.19081e-10
4.05996e-09
0.0010955
-2.7368e-07
1.26382e-06
2.71631e-07
9.19812e-07
-2.74892e-07
-9.20118e-07
2.69892e-07
0.00109505
-2.00042e-09
-0.00109505
3.87527e-09
-1.25802e-06
2.71808e-07
-2.73323e-07
-9.13972e-07
2.64711e-07
-2.68904e-07
9.14493e-07
1.26411e-06
0.00109551
-2.05942e-09
-0.00109551
3.61902e-09
-1.26076e-06
2.71938e-07
-2.7332e-07
-9.19662e-07
2.70287e-07
-2.74454e-07
9.20219e-07
-2.39593e-07
-2.41957e-07
0.000267077
-1.22478e-06
0.000269076
-0.000267077
2.4255e-07
2.4741e-07
4.17405e-09
0.00109613
-2.68275e-07
1.22172e-06
2.66166e-07
9.14269e-07
-2.74923e-07
-9.1453e-07
2.69838e-07
-1.25576e-06
-5.1026e-10
4.39639e-09
0.00109517
-2.73768e-07
1.25827e-06
2.71492e-07
9.14065e-07
-2.74899e-07
-9.14553e-07
2.69708e-07
0.00109613
-2.07661e-09
-0.00109613
3.53078e-09
-1.21881e-06
2.66539e-07
-2.67901e-07
-9.14087e-07
2.70313e-07
-2.74466e-07
9.14718e-07
1.25862e-06
0.00109517
-1.8938e-09
-0.00109517
3.80863e-09
-1.2554e-06
2.71871e-07
-2.73384e-07
-9.14095e-07
2.70205e-07
-2.74423e-07
9.14531e-07
-6.04165e-10
4.45134e-09
0.00109496
-2.68169e-07
1.25281e-06
2.65932e-07
9.11361e-07
-2.72114e-07
2.66922e-07
-9.11815e-07
-2.29145e-09
-0.00109585
3.40788e-09
-1.22135e-06
2.66551e-07
-2.67794e-07
-9.11302e-07
2.67595e-07
9.11949e-07
-2.7163e-07
1.25315e-06
0.00109497
-1.96397e-09
-0.00109497
3.87631e-09
-1.24997e-06
2.66298e-07
-2.678e-07
-9.11352e-07
2.67419e-07
-2.71631e-07
9.11825e-07
-2.37116e-07
-2.44563e-07
0.000267039
-1.21927e-06
0.000269031
-0.00026704
2.39881e-07
2.47323e-07
-7.37747e-10
4.14295e-09
0.00109603
-2.65524e-07
1.21904e-06
2.63415e-07
9.08891e-07
-2.722e-07
2.67101e-07
-9.09215e-07
-2.14886e-09
-0.00109551
3.5667e-09
-1.216e-06
2.63723e-07
-2.65093e-07
-9.11151e-07
2.70219e-07
9.118e-07
-2.74321e-07
1.21939e-06
0.00109603
-2.07194e-09
-0.00109603
3.55299e-09
-1.21611e-06
2.63791e-07
-2.65139e-07
-9.08762e-07
2.67587e-07
-2.71734e-07
9.0935e-07
-0.000267053
2.42222e-07
2.47562e-07
1.25796e-06
1.21875e-06
-2.36427e-07
-2.46845e-07
0.000267059
-1.26124e-06
-1.22207e-06
0.000269052
-0.000267059
2.39712e-07
2.50147e-07
3.76046e-09
0.00109505
-2.73256e-07
1.26127e-06
2.71852e-07
9.14559e-07
-2.68805e-07
-9.1388e-07
2.64787e-07
-1.26075e-06
-2.15398e-09
3.67486e-09
0.00109551
-2.73304e-07
1.26411e-06
2.71933e-07
9.20257e-07
-2.74384e-07
-9.19602e-07
2.70335e-07
0.00109505
-2.1028e-09
-0.00109505
3.75343e-09
-1.25797e-06
2.7181e-07
-2.73277e-07
-9.1387e-07
2.64781e-07
-2.68781e-07
9.14538e-07
1.26404e-06
0.00109551
-2.01265e-09
-0.00109551
3.85407e-09
-1.2608e-06
2.71861e-07
-2.73371e-07
-9.1961e-07
2.70318e-07
-2.74375e-07
9.20226e-07
-2.39167e-07
-2.44042e-07
0.000267077
-1.2247e-06
0.000269076
-0.000267077
2.42487e-07
2.47368e-07
3.47456e-09
0.00109613
-2.67836e-07
1.22211e-06
2.66578e-07
9.14787e-07
-2.74363e-07
-9.13991e-07
2.70393e-07
-1.25535e-06
-2.11794e-09
3.74079e-09
0.00109517
-2.73322e-07
1.25865e-06
2.7191e-07
9.14605e-07
-2.74312e-07
-9.13995e-07
2.70292e-07
0.00109613
-2.32837e-09
-0.00109613
3.55851e-09
-1.21877e-06
2.66525e-07
-2.67867e-07
-9.13957e-07
2.70415e-07
-2.74306e-07