/*--------------------------------*- C++ -*----------------------------------*\
| =========                 |                                                 |
| \\      /  F ield         | OpenFOAM: The Open Source CFD Toolbox           |
|  \\    /   O peration     | Version:  2206                                  |
|   \\  /    A nd           | Website:  www.openfoam.com                      |
|    \\/     M anipulation  |                                                 |
\*---------------------------------------------------------------------------*/
FoamFile
{
    version     2.0;
    format      ascii;
    arch        "LSB;label=32;scalar=64";
    class       volScalarField;
    location    "20.5";
    object      nut;
}
// * * * * * * * * * * * * * * * * * * * * * * * * * * * * * * * * * * * * * //

dimensions      [0 2 -1 0 0 0 0];

internalField   nonuniform List<scalar> 
28673
(
0.000208117
0.000187304
0.000225958
0.000208117
0.00020811
0.000187313
0.000225957
0.000208115
0.000208107
0.00018731
0.000225958
0.000208113
0.000208107
0.000187311
0.000225953
0.000208094
0.0002081
0.000187288
0.000225927
0.00020806
0.000208054
0.000187229
0.000225937
0.000208064
0.000208058
0.00018724
0.000225938
0.000208065
0.000208058
0.000187233
0.000225938
0.000208066
0.000208059
0.000187237
0.000225938
0.000208067
0.000208061
0.000187238
0.000225938
0.00020807
0.000208063
0.00018724
0.000225936
0.000208064
0.000208057
0.000187258
0.000226415
0.000210647
0.000210646
0.000190647
0.000208102
0.000187473
0.000208117
0.000187466
0.000208104
0.000208101
0.000208105
0.000208102
0.000187325
0.000187467
0.000208113
0.000208093
0.000208103
0.000208118
0.000208102
0.000187457
0.000208112
0.000208111
0.000208112
0.000187461
0.000187321
0.000187465
0.000208106
0.000208103
0.000208105
0.000208102
0.000187321
0.000187465
0.000208114
0.000208093
0.000208113
0.000208093
0.0002081
0.000208115
0.000208099
0.000187312
0.000187455
0.000208111
0.000208107
0.000208108
0.000187458
0.00018732
0.000187465
0.000208104
0.000208101
0.000208104
0.000208101
0.00018732
0.000187466
0.000208113
0.000208094
0.000208114
0.000208094
0.000208098
0.000208113
0.000208099
0.00018731
0.000187455
0.000208108
0.000208107
0.000208108
0.000187458
0.000187319
0.000187457
0.000208102
0.0002081
0.000208097
0.000208091
0.00018732
0.000187443
0.000208115
0.000208094
0.000208113
0.000208091
0.000208098
0.000208106
0.000208093
0.00018731
0.000187449
0.000208108
0.000208103
0.000208102
0.000187445
0.000187306
0.000187386
0.000208092
0.000208078
0.000208049
0.000208044
0.000187285
0.000187386
0.00020811
0.000208087
0.000208062
0.000208046
0.000208087
0.000208059
0.000208047
0.000187301
0.000187387
0.000208096
0.00020806
0.000208056
0.000187382
0.000187233
0.000187391
0.000208047
0.000208045
0.000208051
0.000208048
0.000187242
0.000187393
0.000208056
0.000208039
0.00020806
0.00020804
0.000208046
0.000208064
0.000208049
0.00018723
0.000187384
0.000208055
0.000208057
0.000208059
0.000187389
0.000187245
0.000187385
0.000208052
0.000208049
0.000208052
0.000208049
0.000187246
0.000187387
0.000208061
0.000208041
0.000208061
0.000208042
0.00020805
0.000208065
0.00020805
0.000187239
0.000187378
0.00020806
0.000208058
0.000208059
0.000187381
0.000187238
0.000187389
0.000208052
0.00020805
0.000208053
0.00020805
0.000187241
0.000187391
0.000208061
0.000208042
0.000208062
0.000208043
0.000208051
0.000208066
0.000208051
0.000187232
0.000187381
0.00020806
0.000208059
0.000208061
0.000187386
0.000187244
0.000187386
0.000208053
0.000208051
0.000208054
0.000208052
0.000187244
0.000187392
0.000208063
0.000208044
0.000208064
0.000208044
0.000208052
0.000208067
0.000208053
0.000187237
0.00018738
0.000208061
0.000208061
0.000208062
0.000187385
0.000187242
0.000187388
0.000208055
0.000208052
0.000208057
0.000208055
0.000187247
0.000187392
0.000208064
0.000208045
0.000208067
0.000208047
0.000208053
0.000208071
0.000208056
0.000187235
0.000187381
0.000208063
0.000208064
0.000208066
0.000187386
0.000187244
0.000187404
0.000208057
0.000208056
0.000208083
0.000208081
0.000187248
0.000187408
0.000208067
0.000208048
0.000208093
0.000208074
0.000208057
0.000208096
0.000208081
0.000187237
0.000187398
0.000208066
0.00020809
0.000208092
0.000187402
0.000187262
0.000188805
0.00020805
0.000208049
0.000209665
0.000209664
0.000187265
0.000188807
0.000208061
0.000208041
0.000209673
0.000209661
0.000208048
0.000209674
0.000209664
0.000187256
0.000188801
0.00020806
0.000209672
0.000209673
0.000188804
0.00019065
0.000210642
0.000210641
0.00019065
0.000210647
0.000210638
0.000226415
0.000226414
0.000226415
0.000210641
0.000190645
0.000210647
4.844e-05
4.8974e-05
4.84307e-05
4.89723e-05
2.58278e-05
2.58269e-05
4.84477e-05
4.89681e-05
0.000225959
0.000225956
0.000225958
0.000225959
0.000225956
0.000225956
0.000115661
5.90308e-05
0.000219889
0.000208118
0.000115637
5.9049e-05
0.000219889
2.58252e-05
0.00011565
0.000219886
0.000208111
0.000115625
0.000219886
5.90529e-05
3.57627e-05
3.57559e-05
0.000187464
3.57673e-05
3.57607e-05
4.84416e-05
4.89725e-05
4.84324e-05
4.89715e-05
2.58264e-05
2.5826e-05
4.84457e-05
4.89684e-05
4.84383e-05
4.89674e-05
0.000225959
0.000225954
0.000225956
0.000225958
0.000225958
0.000225954
0.000225955
0.000115658
5.90339e-05
0.000219889
0.000208117
0.000115632
5.90517e-05
0.000219886
2.58243e-05
2.58237e-05
0.000115645
0.000219886
5.90377e-05
0.000208108
0.000115619
0.000219883
5.90551e-05
3.57704e-05
3.57641e-05
0.00018746
3.57774e-05
3.57711e-05
4.84479e-05
4.8972e-05
4.8437e-05
4.89712e-05
2.58259e-05
2.58258e-05
4.84533e-05
4.89679e-05
4.84424e-05
4.8967e-05
0.000225956
0.000225954
0.000225953
0.000225958
0.000225956
0.000225955
0.000225954
0.000115659
5.90356e-05
0.000219885
0.000208114
0.000115632
5.90541e-05
0.000219886
2.58234e-05
2.58231e-05
0.000115647
0.000219882
5.9039e-05
0.000208107
0.000115619
0.000219883
5.90558e-05
3.57799e-05
3.57736e-05
0.000187458
3.57853e-05
3.57789e-05
4.84504e-05
4.89718e-05
4.8442e-05
4.89712e-05
2.58261e-05
2.58263e-05
4.8458e-05
4.89677e-05
4.84495e-05
4.8967e-05
0.000225956
0.000225955
0.000225954
0.000225956
0.000225953
0.000225953
0.000225952
0.000115661
5.90393e-05
0.000219888
0.000208112
0.000115635
5.90546e-05
0.000219887
2.58234e-05
2.58233e-05
0.000115649
0.000219884
5.9041e-05
0.000208106
0.000115623
0.000219884
5.90585e-05
3.57852e-05
3.57789e-05
0.000187456
3.57883e-05
3.5782e-05
4.84271e-05
4.89736e-05
4.84303e-05
4.8975e-05
2.58268e-05
2.58268e-05
4.84428e-05
4.89686e-05
4.84456e-05
4.89693e-05
0.000225947
0.000225951
0.000225948
0.000225926
0.000225927
0.000225925
0.000225927
0.000115619
5.90222e-05
0.000219875
0.000208077
0.000115617
5.90269e-05
0.000219858
2.5824e-05
2.58241e-05
0.00011561
0.000219876
5.90357e-05
0.000208092
0.000115606
0.000219864
5.90413e-05
3.57796e-05
3.57733e-05
0.000187413
3.5778e-05
3.57715e-05
4.84082e-05
4.89768e-05
4.8403e-05
4.89761e-05
2.58268e-05
2.58266e-05
4.84171e-05
4.89726e-05
4.84152e-05
4.8972e-05
0.000225931
0.000225926
0.000225929
0.000225936
0.000225938
0.000225934
0.000225936
0.000115574
5.89945e-05
0.000219847
0.000208063
0.000115545
5.90089e-05
0.000219851
2.58243e-05
2.5824e-05
0.000115562
0.000219845
5.90045e-05
0.000208054
0.000115533
0.000219848
5.9015e-05
3.57641e-05
3.57576e-05
0.000187388
3.57645e-05
3.57579e-05
4.84066e-05
4.89767e-05
4.83982e-05
4.8976e-05
2.58267e-05
2.58266e-05
4.8414e-05
4.89727e-05
4.84065e-05
4.89719e-05
0.000225939
0.000225936
0.000225937
0.000225938
0.000225938
0.000225936
0.000225937
0.000115576
5.89907e-05
0.000219854
0.000208064
0.000115547
5.90078e-05
0.000219854
2.58241e-05
2.58239e-05
0.000115564
0.000219851
5.8995e-05
0.000208059
0.000115535
0.000219852
5.9011e-05
3.57607e-05
3.57543e-05
0.000187384
3.57636e-05
3.57571e-05
4.84062e-05
4.89766e-05
4.83978e-05
4.89766e-05
2.58267e-05
2.58268e-05
4.84136e-05
4.89726e-05
4.8406e-05
4.89725e-05
0.000225938
0.000225936
0.000225937
0.000225938
0.000225938
0.000225936
0.000225937
0.000115575
5.89917e-05
0.000219854
0.000208065
0.000115547
5.90083e-05
0.000219855
2.58241e-05
2.58242e-05
0.000115564
0.000219852
5.89954e-05
0.000208059
0.000115537
0.000219852
5.90113e-05
3.57611e-05
3.57547e-05
0.000187384
3.57642e-05
3.57578e-05
4.84028e-05
4.89774e-05
4.83954e-05
4.89797e-05
2.58261e-05
2.58273e-05
4.84102e-05
4.89734e-05
4.84036e-05
4.89756e-05
0.000225938
0.000225936
0.000225937
0.000225938
0.000225938
0.000225936
0.000225937
0.000115575
5.90074e-05
0.000219854
0.000208067
0.00011555
5.90175e-05
0.000219855
2.58237e-05
2.5825e-05
0.000115568
0.000219852
5.90111e-05
0.00020806
0.000115542
0.000219853
5.902e-05
3.57669e-05
3.57606e-05
0.000187383
3.57557e-05
3.57492e-05
4.83867e-05
4.89766e-05
4.83813e-05
4.89822e-05
2.58239e-05
2.5827e-05
4.83942e-05
4.89729e-05
4.83896e-05
4.89785e-05
0.000225938
0.000225936
0.000225937
0.000225938
0.000225939
0.000225936
0.000225937
0.000115571
5.90229e-05
0.000219855
0.000208068
0.000115547
5.90202e-05
0.000219855
2.58219e-05
2.5825e-05
0.000115564
0.000219853
5.90246e-05
0.000208062
0.00011554
0.000219853
5.90208e-05
3.57552e-05
3.57487e-05
0.000187385
3.57357e-05
3.57291e-05
4.83729e-05
4.89718e-05
4.83647e-05
4.89832e-05
2.58186e-05
2.5822e-05
4.83804e-05
4.89686e-05
4.83733e-05
4.898e-05
0.000225939
0.000225937
0.000225937
0.000225944
0.000225945
0.000225943
0.000225944
0.000115567
5.90365e-05
0.000219857
0.000208075
0.000115545
5.89904e-05
0.000219856
2.58168e-05
2.582e-05
0.000115561
0.000219854
5.9035e-05
0.000208069
0.000115539
0.000219854
5.89876e-05
3.57168e-05
3.57106e-05
0.000187389
3.56543e-05
3.56479e-05
4.84626e-05
4.8963e-05
4.83444e-05
4.90029e-05
2.58057e-05
2.58177e-05
4.84665e-05
4.89594e-05
4.83511e-05
4.89999e-05
0.000225938
0.000225935
0.000225936
0.000226064
0.000226064
0.000226062
0.000226063
0.000115757
5.90282e-05
0.000219888
0.000208245
0.000115559
5.90219e-05
0.000219846
2.58035e-05
2.58157e-05
0.000115751
0.000219885
5.90253e-05
0.00020824
0.000115552
0.000219844
5.90205e-05
3.5602e-05
3.55956e-05
0.000187615
3.54727e-05
3.54681e-05
5.77368e-05
5.22858e-05
4.90059e-05
7.52376e-05
2.81193e-05
2.53927e-05
5.77389e-05
5.22844e-05
4.9007e-05
7.52525e-05
0.000229904
0.00022896
0.00022896
0.000224903
0.000229865
0.000228631
0.000228631
0.000122089
6.14734e-05
0.000220912
0.000212571
0.000117973
6.99426e-05
0.00022276
2.81177e-05
2.53897e-05
0.000122084
0.000220911
6.14737e-05
0.00021257
0.000117969
0.000222759
6.9938e-05
3.64404e-05
3.64319e-05
0.000194965
4.03889e-05
4.03851e-05
4.89722e-05
5.90504e-05
2.58279e-05
3.5764e-05
3.57615e-05
2.58284e-05
5.90476e-05
4.89706e-05
2.58293e-05
2.58284e-05
2.5827e-05
3.57634e-05
0.00018747
3.5768e-05
3.57593e-05
2.58276e-05
2.58283e-05
2.5826e-05
2.58269e-05
0.000187323
3.57731e-05
3.57621e-05
3.57665e-05
3.57572e-05
4.84406e-05
4.89727e-05
4.84314e-05
4.89717e-05
0.000115661
5.90366e-05
0.000219888
0.000208104
0.000115635
5.90522e-05
0.000219888
0.000115662
5.90357e-05
0.000219888
0.000208102
0.000115637
5.90516e-05
0.000219888
4.84334e-05
4.89718e-05
4.89728e-05
4.84409e-05
4.84338e-05
4.89712e-05
4.89721e-05
4.84407e-05
0.000115637
0.000208105
5.90537e-05
0.000219888
5.9038e-05
0.000219888
0.000115661
0.000115638
0.000208102
5.90529e-05
0.000219888
5.9037e-05
0.000219888
0.000115661
3.57615e-05
3.57578e-05
0.000187468
3.57657e-05
3.57606e-05
2.58285e-05
2.58275e-05
2.58263e-05
2.58269e-05
0.000187322
3.57706e-05
3.57677e-05
3.57642e-05
3.57593e-05
2.58269e-05
2.58276e-05
0.000115663
0.000208113
5.90428e-05
0.000219887
4.84461e-05
4.89656e-05
0.000115663
0.000208094
0.000219884
5.90368e-05
4.84415e-05
4.89677e-05
4.89687e-05
4.84467e-05
0.000115639
0.000208113
5.90446e-05
0.000219886
5.90287e-05
0.000219887
0.000115662
4.84399e-05
4.89651e-05
4.89661e-05
4.84454e-05
0.000115638
0.000208093
0.000219884
5.90383e-05
0.000219884
5.90217e-05
0.000115661
4.84398e-05
4.89712e-05
4.84305e-05
4.89702e-05
0.00011566
0.000219887
5.9033e-05
0.000208103
0.000115635
0.000219887
5.90489e-05
4.84393e-05
4.89706e-05
4.843e-05
4.89688e-05
0.000115638
0.000208119
5.90507e-05
0.000219889
5.90341e-05
0.000219889
0.000115659
4.84331e-05
4.89697e-05
4.89707e-05
4.84406e-05
0.000115636
0.000208103
0.000219887
5.90503e-05
0.000219888
5.90344e-05
0.000115659
4.84325e-05
4.89684e-05
4.89693e-05
4.84395e-05
0.000187463
3.57551e-05
3.57665e-05
2.58278e-05
2.58242e-05
2.58252e-05
0.000187315
3.57579e-05
3.57696e-05
3.57527e-05
3.57644e-05
2.58268e-05
2.58277e-05
0.000115647
0.000219885
5.90289e-05
0.000208112
0.000115622
0.000219885
5.90449e-05
4.84303e-05
4.84191e-05
4.89687e-05
4.84299e-05
4.89701e-05
4.84186e-05
4.89684e-05
0.000115627
0.000208111
0.000219886
5.9054e-05
0.000219886
5.90384e-05
0.000115647
0.000115623
0.000208112
0.000219885
5.90463e-05
0.000219886
5.90303e-05
0.000115647
4.84227e-05
4.89682e-05
4.89692e-05
4.84305e-05
4.84223e-05
4.89679e-05
4.89688e-05
4.843e-05
2.5828e-05
2.5827e-05
2.5827e-05
2.58261e-05
0.000187318
3.57718e-05
3.57654e-05
3.57655e-05
3.5759e-05
2.58263e-05
2.5827e-05
2.58253e-05
2.5826e-05
2.58277e-05
2.58272e-05
2.58261e-05
2.58254e-05
3.57722e-05
3.57608e-05
0.000187466
3.57789e-05
3.57677e-05
2.58269e-05
2.58273e-05
2.58251e-05
2.58256e-05
0.00018732
3.57834e-05
3.57729e-05
3.57777e-05
3.57666e-05
4.84412e-05
4.89717e-05
4.84335e-05
4.89709e-05
0.000115661
5.90395e-05
0.000219887
0.000208105
0.000115637
5.90549e-05
0.000219887
0.000115662
5.90382e-05
0.000219885
0.000208103
0.000115638
5.90538e-05
0.000219885
4.84351e-05
4.89713e-05
4.8972e-05
4.84446e-05
4.84349e-05
4.89707e-05
4.89714e-05
4.8445e-05
0.000115637
0.000208105
5.90555e-05
0.000219887
5.90405e-05
0.000219887
0.000115661
0.000115638
0.000208102
5.90544e-05
0.000219885
5.9039e-05
0.000219885
0.000115662
3.57694e-05
3.57668e-05
0.000187467
3.57756e-05
3.57732e-05
2.58271e-05
2.58266e-05
2.58258e-05
2.58261e-05
0.00018732
3.57794e-05
3.57765e-05
3.57741e-05
3.57711e-05
2.58264e-05
2.58268e-05
0.000115661
5.90305e-05
0.000219886
0.000208114
0.000115639
5.90464e-05
0.000219886
4.84448e-05
4.89656e-05
4.84387e-05
4.89647e-05
0.000115661
0.000219884
5.90232e-05
0.000208093
0.000115638
0.000219884
5.90397e-05
4.84399e-05
4.89672e-05
4.89679e-05
4.8449e-05
0.000115638
0.000208114
5.90473e-05
0.000219886
5.90321e-05
0.000219886
0.000115662
4.8439e-05
4.89644e-05
4.89652e-05
4.84482e-05
0.000115637
0.000208093
0.000219884
5.90408e-05
0.000219884
5.90246e-05
0.000115661
4.84412e-05
4.89703e-05
4.84334e-05
4.89694e-05
0.000115659
0.000219885
5.90358e-05
0.0002081
0.000115636
0.000219884
5.90514e-05
4.844e-05
4.89688e-05
4.84322e-05
4.8968e-05
0.000115634
0.000208116
5.90524e-05
0.000219885
5.90365e-05
0.000219886
0.000115659
4.84346e-05
4.89692e-05
4.897e-05
4.84443e-05
0.000115636
0.0002081
0.000219883
5.9052e-05
0.000219883
5.90368e-05
0.00011566
4.84336e-05
4.89678e-05
4.89685e-05
4.84437e-05
3.57555e-05
3.57685e-05
0.000187457
3.57611e-05
3.57755e-05
2.58268e-05
2.58262e-05
2.58233e-05
2.58238e-05
0.000187311
3.57651e-05
3.57807e-05
3.5759e-05
3.57744e-05
2.58259e-05
2.58263e-05
0.000115646
0.000219883
5.90318e-05
0.000208111
0.000115623
0.000219882
5.90476e-05
4.84307e-05
4.89687e-05
4.84223e-05
4.89678e-05
4.84305e-05
4.89684e-05
4.8422e-05
4.89676e-05
0.000115621
0.000208108
0.000219882
5.90555e-05
0.000219883
5.90406e-05
0.000115646
0.000115623
0.000208109
0.000219882
5.90483e-05
0.000219882
5.90329e-05
0.000115647
4.84236e-05
4.89676e-05
4.89683e-05
4.84347e-05
4.84234e-05
4.89674e-05
4.89681e-05
4.84345e-05
2.58264e-05
2.58259e-05
2.58254e-05
2.58249e-05
0.000187314
3.57818e-05
3.57755e-05
3.57761e-05
3.57698e-05
2.58256e-05
2.5826e-05
2.58246e-05
2.5825e-05
2.58271e-05
2.58268e-05
2.58252e-05
2.58249e-05
3.57819e-05
3.57715e-05
0.000187465
3.57868e-05
3.57769e-05
2.58269e-05
2.58271e-05
2.58249e-05
2.58251e-05
0.00018732
3.57891e-05
3.57799e-05
3.57851e-05
3.57753e-05
4.84485e-05
4.89713e-05
4.84389e-05
4.89706e-05
0.000115664
5.90411e-05
0.000219886
0.000208104
0.000115638
5.90569e-05
0.000219886
0.000115665
5.90398e-05
0.000219886
0.000208101
0.000115639
5.90562e-05
0.000219886
4.84417e-05
4.89711e-05
4.89717e-05
4.84503e-05
4.84423e-05
4.89706e-05
4.89712e-05
4.84509e-05
0.00011564
0.000208105
5.90592e-05
0.000219887
5.9043e-05
0.000219887
0.000115666
0.000115641
0.000208102
5.90584e-05
0.000219887
5.90419e-05
0.000219886
0.000115667
3.57777e-05
3.57743e-05
0.000187466
3.57824e-05
3.57792e-05
2.58266e-05
2.58264e-05
2.58259e-05
2.5826e-05
0.00018732
3.57843e-05
3.5781e-05
3.57804e-05
3.57768e-05
2.58265e-05
2.58267e-05
0.000115664
5.90329e-05
0.000219886
0.000208113
0.000115639
5.90481e-05
0.000219886
4.84524e-05
4.8965e-05
4.84431e-05
4.89643e-05
0.000115663
0.000219882
5.90256e-05
0.000208094
0.000115639
0.000219882
5.90417e-05
4.8448e-05
4.89669e-05
4.89676e-05
4.84567e-05
0.000115641
0.000208114
5.90502e-05
0.000219888
5.9034e-05
0.000219887
0.000115666
4.8447e-05
4.89642e-05
4.89649e-05
4.84556e-05
0.00011564
0.000208095
0.000219883
5.90432e-05
0.000219882
5.90266e-05
0.000115666
4.84475e-05
4.89698e-05
4.84381e-05
4.89691e-05
0.000115663
0.000219883
5.90374e-05
0.000208098
0.000115637
0.000219883
5.90535e-05
4.84473e-05
4.89683e-05
4.84377e-05
4.89676e-05
0.000115636
0.000208114
5.90561e-05
0.000219887
5.90394e-05
0.000219887
0.000115661
4.84412e-05
4.89691e-05
4.89698e-05
4.84498e-05
0.00011564
0.000208099
0.000219886
5.90557e-05
0.000219885
5.90393e-05
0.000115665
4.8441e-05
4.89676e-05
4.89682e-05
4.84496e-05
3.5763e-05
3.57793e-05
0.000187455
3.57686e-05
3.57846e-05
2.5826e-05
2.58257e-05
2.58231e-05
2.58234e-05
0.000187309
3.57713e-05
3.57875e-05
3.57663e-05
3.5783e-05
2.58257e-05
2.58259e-05
0.000115651
0.000219882
5.90336e-05
0.000208108
0.000115625
0.000219882
5.90498e-05
4.84382e-05
4.89681e-05
4.84279e-05
4.89674e-05
4.84383e-05
4.89679e-05
4.84277e-05
4.89672e-05
0.000115624
0.000208107
0.000219884
5.9057e-05
0.000219884
5.90413e-05
0.000115649
0.000115628
0.000208109
0.000219883
5.90519e-05
0.000219882
5.90354e-05
0.000115652
4.84311e-05
4.89673e-05
4.89679e-05
4.84405e-05
4.84312e-05
4.89672e-05
4.89678e-05
4.84404e-05
2.58258e-05
2.58255e-05
2.58248e-05
2.58246e-05
0.000187313
3.57876e-05
3.57813e-05
3.57834e-05
3.57771e-05
2.58256e-05
2.58258e-05
2.58246e-05
2.58248e-05
2.58272e-05
2.58272e-05
2.58252e-05
2.5825e-05
3.57871e-05
3.5778e-05
0.000187464
3.57897e-05
3.57823e-05
2.58277e-05
2.58275e-05
2.58255e-05
2.58253e-05
0.000187318
3.57856e-05
3.57808e-05
3.57866e-05
3.57802e-05
4.84511e-05
4.89713e-05
4.8444e-05
4.89713e-05
0.00011566
5.90452e-05
0.000219887
0.000208101
0.000115638
5.90601e-05
0.000219887
0.000115662
5.90437e-05
0.000219888
0.000208098
0.000115639
5.90569e-05
0.000219889
4.84426e-05
4.89724e-05
4.8972e-05
4.84429e-05
4.84434e-05
4.89731e-05
4.89722e-05
4.84438e-05
0.000115631
0.0002081
5.90527e-05
0.000219883
5.90447e-05
0.000219886
0.000115649
0.000115633
0.000208096
5.9046e-05
0.000219884
5.90401e-05
0.000219887
0.000115651
3.5782e-05
3.57783e-05
0.000187461
3.57832e-05
3.578e-05
2.58269e-05
2.58269e-05
2.58267e-05
2.58266e-05
0.000187313
3.57779e-05
3.57748e-05
3.57795e-05
3.5776e-05
2.58273e-05
2.58273e-05
0.000115666
5.90363e-05
0.00021989
0.000208115
0.000115644
5.90523e-05
0.00021989
4.84569e-05
4.89648e-05
4.845e-05
4.89642e-05
0.000115667
0.000219884
5.90282e-05
0.000208093
0.000115643
0.000219885
5.90447e-05
4.84518e-05
4.89676e-05
4.89677e-05
4.84557e-05
0.000115638
0.000208115
5.90498e-05
0.000219887
5.90379e-05
0.000219889
0.000115657
4.84507e-05
4.89647e-05
4.89648e-05
4.84547e-05
0.000115638
0.000208093
0.000219882
5.90421e-05
0.000219884
5.90293e-05
0.000115657
4.845e-05
4.89699e-05
4.84429e-05
4.89699e-05
0.000115659
0.000219886
5.90414e-05
0.000208097
0.000115637
0.000219886
5.90565e-05
4.84496e-05
4.89681e-05
4.84426e-05
4.89677e-05
0.000115633
0.00020811
5.90435e-05
0.000219883
5.90373e-05
0.000219886
0.000115648
4.84423e-05
4.89716e-05
4.89709e-05
4.84429e-05
0.00011563
0.000208096
0.000219882
5.90493e-05
0.000219885
5.90408e-05
0.000115648
4.84419e-05
4.89688e-05
4.89684e-05
4.84424e-05
3.57687e-05
3.57855e-05
0.000187455
3.57729e-05
3.57892e-05
2.5826e-05
2.58258e-05
2.58237e-05
2.58236e-05
0.000187309
3.57711e-05
3.57868e-05
3.577e-05
3.57867e-05
2.58264e-05
2.58262e-05
0.000115647
0.000219884
5.90375e-05
0.000208107
0.000115625
0.000219885
5.90526e-05
4.84408e-05
4.89679e-05
4.84328e-05
4.89672e-05
4.84404e-05
4.89678e-05
4.84327e-05
4.89673e-05
0.000115621
0.000208105
0.000219881
5.90549e-05
0.000219883
5.90436e-05
0.000115637
0.000115619
0.000208105
0.000219881
5.90452e-05
0.000219884
5.90368e-05
0.000115637
4.84323e-05
4.89675e-05
4.89677e-05
4.84337e-05
4.84319e-05
4.89684e-05
4.89681e-05
4.84333e-05
2.58258e-05
2.58258e-05
2.58249e-05
2.58248e-05
0.00018731
3.57841e-05
3.57778e-05
3.57851e-05
3.57788e-05
2.58263e-05
2.58262e-05
2.58253e-05
2.58252e-05
2.58279e-05
2.58278e-05
2.58258e-05
2.58259e-05
3.57815e-05
3.57767e-05
0.000187427
3.57796e-05
3.57749e-05
2.58277e-05
2.5828e-05
2.58259e-05
2.58261e-05
0.000187263
3.57703e-05
3.57675e-05
3.57751e-05
3.57706e-05
4.84278e-05
4.89745e-05
4.84326e-05
4.89756e-05
0.00011562
5.90345e-05
0.000219877
0.000208077
0.000115618
5.90372e-05
0.000219862
0.00011562
5.90269e-05
0.000219875
0.00020806
0.000115619
5.90292e-05
0.000219857
4.84159e-05
4.89761e-05
4.89761e-05
4.84138e-05
4.84165e-05
4.89759e-05
4.89763e-05
4.84145e-05
0.000115576
0.000208059
5.90221e-05
0.000219845
5.90182e-05
0.00021985
0.000115573
0.000115576
0.000208049
5.90161e-05
0.000219844
5.90101e-05
0.000219847
0.000115574
3.57735e-05
3.577e-05
0.000187402
3.57697e-05
3.57663e-05
2.58276e-05
2.58274e-05
2.58266e-05
2.58269e-05
0.000187241
3.57604e-05
3.5757e-05
3.57651e-05
3.57617e-05
2.58273e-05
2.58276e-05
0.000115643
5.90329e-05
0.000219884
0.000208099
0.000115628
5.90376e-05
0.000219876
4.84416e-05
4.89656e-05
4.84461e-05
4.89664e-05
0.000115643
0.00021988
5.90244e-05
0.00020808
0.000115627
0.000219873
5.903e-05
4.84317e-05
4.89717e-05
4.89708e-05
4.84264e-05
0.000115608
0.000208077
5.90205e-05
0.000219847
5.90186e-05
0.000219858
0.000115591
4.84305e-05
4.89691e-05
4.8968e-05
4.8425e-05
0.000115608
0.000208061
0.000219845
5.90128e-05
0.000219857
5.90101e-05
0.000115591
4.84269e-05
4.89731e-05
4.84317e-05
4.89741e-05
0.000115619
0.000219876
5.90309e-05
0.00020807
0.000115618
0.00021986
5.90337e-05
4.84265e-05
4.89698e-05
4.84312e-05
4.89715e-05
0.000115577
0.000208065
5.90135e-05
0.000219845
5.90074e-05
0.000219849
0.000115574
4.84156e-05
4.89745e-05
4.89749e-05
4.84137e-05
0.000115576
0.000208055
0.000219844
5.90186e-05
0.000219848
5.90144e-05
0.000115572
4.84152e-05
4.89726e-05
4.89727e-05
4.84133e-05
3.57666e-05
3.57828e-05
0.000187429
3.57655e-05
3.57815e-05
2.58267e-05
2.58267e-05
2.58241e-05
2.58244e-05
0.000187269
3.57579e-05
3.57745e-05
3.57606e-05
3.57775e-05
2.58266e-05
2.58269e-05
0.000115608
0.000219875
5.90267e-05
0.00020808
0.000115606
0.000219859
5.90298e-05
4.84182e-05
4.89684e-05
4.84218e-05
4.89695e-05
4.84179e-05
4.89695e-05
4.84215e-05
4.89711e-05
0.000115569
0.000208074
0.000219846
5.90243e-05
0.00021985
5.90219e-05
0.000115563
0.000115567
0.000208065
0.000219843
5.90147e-05
0.000219848
5.90104e-05
0.00011556
4.84062e-05
4.8972e-05
4.89711e-05
4.84043e-05
4.84059e-05
4.89722e-05
4.89723e-05
4.84039e-05
2.58266e-05
2.58265e-05
2.58256e-05
2.58255e-05
0.000187249
3.57689e-05
3.57623e-05
3.57734e-05
3.5767e-05
2.58264e-05
2.58267e-05
2.58254e-05
2.58257e-05
2.58279e-05
2.58276e-05
2.58261e-05
2.58258e-05
3.5766e-05
3.57627e-05
0.000187384
3.57659e-05
3.57592e-05
2.58276e-05
2.58278e-05
2.58257e-05
2.5826e-05
0.000187241
3.5765e-05
3.57574e-05
3.5763e-05
3.57559e-05
4.8409e-05
4.89764e-05
4.84052e-05
4.89758e-05
0.000115574
5.90051e-05
0.000219847
0.000208048
0.000115547
5.90157e-05
0.00021985
0.000115575
5.89994e-05
0.000219846
0.000208047
0.000115548
5.90117e-05
0.00021985
4.84005e-05
4.8976e-05
4.89766e-05
4.84069e-05
4.84013e-05
4.89757e-05
4.89763e-05
4.84077e-05
0.00011555
0.000208049
5.9014e-05
0.000219853
5.90005e-05
0.000219852
0.000115575
0.000115551
0.000208048
5.90107e-05
0.000219853
5.89964e-05
0.000219852
0.000115577
3.5757e-05
3.57531e-05
0.000187394
3.57586e-05
3.57546e-05
2.58275e-05
2.58272e-05
2.58266e-05
2.58268e-05
0.000187249
3.57584e-05
3.57545e-05
3.5756e-05
3.57515e-05
2.58272e-05
2.58274e-05
0.000115574
5.90022e-05
0.000219844
0.000208056
0.000115555
5.90097e-05
0.000219846
4.84156e-05
4.89699e-05
4.84153e-05
4.89694e-05
0.000115573
0.000219842
5.89934e-05
0.000208037
0.000115554
0.000219843
5.90015e-05
4.84097e-05
4.89719e-05
4.89726e-05
4.84146e-05
0.000115551
0.000208057
5.90063e-05
0.000219852
5.89938e-05
0.000219849
0.000115577
4.84082e-05
4.89692e-05
4.897e-05
4.84129e-05
0.000115549
0.000208038
0.000219849
5.89978e-05
0.000219846
5.89846e-05
0.000115576
4.84081e-05
4.89751e-05
4.84044e-05
4.89743e-05
0.000115573
0.000219846
5.90014e-05
0.000208047
0.000115547
0.000219849
5.90124e-05
4.84077e-05
4.89732e-05
4.8404e-05
4.89726e-05
0.00011555
0.000208064
5.90079e-05
0.000219854
5.89931e-05
0.000219854
0.000115575
4.84004e-05
4.89742e-05
4.89749e-05
4.84067e-05
0.000115549
0.000208048
0.000219853
5.90106e-05
0.000219852
5.89969e-05
0.000115574
4.84e-05
4.89725e-05
4.89731e-05
4.84064e-05
3.5753e-05
3.57697e-05
0.000187377
3.57494e-05
3.57663e-05
2.58268e-05
2.58265e-05
2.58239e-05
2.58242e-05
0.000187234
3.57471e-05
3.57641e-05
3.57453e-05
3.57629e-05
2.58265e-05
2.58267e-05
0.00011556
0.000219845
5.89974e-05
0.000208057
0.000115534
0.000219848
5.90084e-05
4.83982e-05
4.89728e-05
4.83938e-05
4.89723e-05
4.83978e-05
4.89728e-05
4.83935e-05
4.89722e-05
0.000115538
0.000208056
0.000219851
5.90119e-05
0.000219851
5.89991e-05
0.000115562
0.000115536
0.000208058
0.000219851
5.90067e-05
0.00021985
5.89928e-05
0.000115562
4.83896e-05
4.89723e-05
4.89729e-05
4.83967e-05
4.83893e-05
4.89721e-05
4.89727e-05
4.83966e-05
2.58266e-05
2.58263e-05
2.58256e-05
2.58254e-05
0.000187244
3.57637e-05
3.57572e-05
3.57615e-05
3.5755e-05
2.58263e-05
2.58265e-05
2.58253e-05
2.58256e-05
2.58278e-05
2.58276e-05
2.58259e-05
2.58257e-05
3.57624e-05
3.57547e-05
0.000187389
3.57649e-05
3.57572e-05
2.58277e-05
2.58278e-05
2.58258e-05
2.58259e-05
0.000187243
3.57649e-05
3.57572e-05
3.57624e-05
3.57547e-05
4.84074e-05
4.89763e-05
4.84004e-05
4.89757e-05
0.000115576
5.89992e-05
0.000219854
0.000208052
0.000115551
5.90136e-05
0.000219854
0.000115577
5.89957e-05
0.000219854
0.000208049
0.000115552
5.90106e-05
0.000219854
4.83995e-05
4.8976e-05
4.89765e-05
4.84066e-05
4.84003e-05
4.89758e-05
4.89762e-05
4.84074e-05
0.000115551
0.000208052
5.90135e-05
0.000219853
5.89991e-05
0.000219854
0.000115575
0.000115552
0.000208049
5.90106e-05
0.000219853
5.89958e-05
0.000219853
0.000115577
3.57559e-05
3.57515e-05
0.000187389
3.57584e-05
3.57546e-05
2.58274e-05
2.58272e-05
2.58266e-05
2.58268e-05
0.000187242
3.57585e-05
3.57547e-05
3.57559e-05
3.57517e-05
2.58272e-05
2.58274e-05
0.000115578
5.89914e-05
0.000219853
0.000208061
0.000115553
5.90055e-05
0.000219853
4.84124e-05
4.89698e-05
4.84064e-05
4.89692e-05
0.000115577
0.00021985
5.89819e-05
0.000208042
0.000115552
0.00021985
5.89969e-05
4.84077e-05
4.8972e-05
4.89725e-05
4.8414e-05
0.000115554
0.000208062
5.90053e-05
0.000219853
5.8991e-05
0.000219854
0.000115577
4.8406e-05
4.89693e-05
4.89698e-05
4.84123e-05
0.000115552
0.000208042
0.00021985
5.89967e-05
0.000219851
5.89815e-05
0.000115576
4.84064e-05
4.89749e-05
4.83995e-05
4.89742e-05
0.000115575
0.000219853
5.89957e-05
0.00020805
0.00011555
0.000219853
5.90103e-05
4.84061e-05
4.8973e-05
4.83991e-05
4.89725e-05
0.000115553
0.000208064
5.90078e-05
0.000219854
5.89926e-05
0.000219854
0.000115575
4.83993e-05
4.89743e-05
4.89748e-05
4.84064e-05
0.000115551
0.000208051
0.000219853
5.90102e-05
0.000219853
5.89956e-05
0.000115574
4.83989e-05
4.89726e-05
4.8973e-05
4.8406e-05
3.57438e-05
3.57614e-05
0.000187382
3.57468e-05
3.57637e-05
2.58267e-05
2.58265e-05
2.5824e-05
2.58242e-05
0.000187236
3.57468e-05
3.57637e-05
3.57437e-05
3.57612e-05
2.58265e-05
2.58267e-05
0.000115562
0.000219851
5.89916e-05
0.00020806
0.000115537
0.000219851
5.90064e-05
4.83973e-05
4.89728e-05
4.839e-05
4.89722e-05
4.83964e-05
4.89726e-05
4.83886e-05
4.8972e-05
0.000115541
0.000208059
0.000219852
5.90108e-05
0.000219851
5.89963e-05
0.000115564
0.000115537
0.00020806
0.000219851
5.90063e-05
0.000219851
5.89915e-05
0.000115561
4.83907e-05
4.89723e-05
4.89728e-05
4.83992e-05
4.83885e-05
4.89721e-05
4.89726e-05
4.83964e-05
2.58265e-05
2.58263e-05
2.58255e-05
2.58253e-05
0.000187238
3.57637e-05
3.57572e-05
3.5761e-05
3.57546e-05
2.58263e-05
2.58265e-05
2.58254e-05
2.58255e-05
2.58278e-05
2.58279e-05
2.58259e-05
2.5826e-05
3.57628e-05
3.57551e-05
0.000187384
3.57655e-05
3.57578e-05
2.58284e-05
2.58278e-05
2.58265e-05
2.58259e-05
0.000187239
3.57652e-05
3.57575e-05
3.57653e-05
3.57576e-05
4.8407e-05
4.89762e-05
4.84001e-05
4.89763e-05
0.000115575
5.90001e-05
0.000219854
0.000208052
0.00011555
5.9014e-05
0.000219854
0.000115577
5.89967e-05
0.000219853
0.00020805
0.000115552
5.90111e-05
0.000219853
4.83982e-05
4.89781e-05
4.89766e-05
4.84047e-05
4.8399e-05
4.89778e-05
4.89763e-05
4.84054e-05
0.000115551
0.000208053
5.90166e-05
0.000219854
5.90047e-05
0.000219854
0.000115575
0.000115553
0.00020805
5.90137e-05
0.000219854
5.90014e-05
0.000219854
0.000115576
3.57564e-05
3.57521e-05
0.000187391
3.57591e-05
3.57553e-05
2.58274e-05
2.58274e-05
2.58274e-05
2.58267e-05
0.000187246
3.57588e-05
3.57567e-05
3.57589e-05
3.57545e-05
2.58281e-05
2.58274e-05
0.000115577
5.89919e-05
0.000219853
0.000208061
0.000115553
5.90058e-05
0.000219853
4.8412e-05
4.89697e-05
4.84058e-05
4.89697e-05
0.000115577
0.00021985
5.89823e-05
0.000208042
0.000115552
0.00021985
5.89972e-05
4.84064e-05
4.8974e-05
4.89726e-05
4.84121e-05
0.000115553
0.000208062
5.90084e-05
0.000219854
5.89965e-05
0.000219855
0.000115577
4.84048e-05
4.89713e-05
4.89699e-05
4.84104e-05
0.000115552
0.000208043
0.000219851
5.89998e-05
0.000219851
5.8987e-05
0.000115576
4.8406e-05
4.89748e-05
4.83991e-05
4.89748e-05
0.000115574
0.000219853
5.89965e-05
0.000208051
0.00011555
0.000219853
5.90107e-05
4.84056e-05
4.8973e-05
4.83987e-05
4.89731e-05
0.000115551