/*--------------------------------*- C++ -*----------------------------------*\
| =========                 |                                                 |
| \\      /  F ield         | OpenFOAM: The Open Source CFD Toolbox           |
|  \\    /   O peration     | Version:  2206                                  |
|   \\  /    A nd           | Website:  www.openfoam.com                      |
|    \\/     M anipulation  |                                                 |
\*---------------------------------------------------------------------------*/
FoamFile
{
    version     2.0;
    format      ascii;
    arch        "LSB;label=32;scalar=64";
    class       volScalarField;
    location    "40";
    object      nut;
}
// * * * * * * * * * * * * * * * * * * * * * * * * * * * * * * * * * * * * * //

dimensions      [0 2 -1 0 0 0 0];

internalField   nonuniform List<scalar> 
28907
(
0.000176283
0.000196879
0.00019688
0.000176288
0.000196888
0.000196874
0.000196893
0.000196877
0.000176283
0.000196884
0.000196887
0.000176283
0.000176309
0.000176284
0.000220218
0.000220219
0.000220214
0.000220216
5.72556e-06
5.72762e-06
5.72541e-06
5.72743e-06
0.00017631
5.87335e-05
5.87339e-05
5.89101e-05
5.89103e-05
8.2757e-05
1.58223e-05
1.58077e-05
8.2741e-05
8.27578e-05
1.58222e-05
1.58076e-05
8.27417e-05
0.000135309
0.000196878
8.66937e-05
0.000210375
8.72286e-05
0.000210371
0.000135274
0.00013531
0.000196877
8.66927e-05
0.000210375
8.72269e-05
0.000210371
0.000135275
5.72579e-06
5.72776e-06
0.000176313
5.87359e-05
5.8735e-05
5.89112e-05
5.89117e-05
5.7257e-06
5.7277e-06
8.27557e-05
1.58208e-05
1.58061e-05
8.27393e-05
0.000135307
0.000196885
8.6692e-05
0.000210373
8.72271e-05
0.000210369
0.000135271
8.27552e-05
1.58201e-05
1.58055e-05
8.27388e-05
0.000135305
0.000196871
0.00021037
8.66885e-05
0.000210366
8.72225e-05
0.00013527
0.00013531
0.000196891
8.66971e-05
0.000210376
8.72318e-05
0.000210372
0.000135275
8.27576e-05
1.58218e-05
1.58072e-05
8.27414e-05
0.000135309
0.000210373
8.66927e-05
0.000210369
0.000135274
8.27571e-05
1.5821e-05
8.27409e-05
5.72515e-06
5.72712e-06
0.000176309
5.87313e-05
5.87324e-05
5.89068e-05
5.72539e-06
0.000210372
8.66937e-05
0.000135271
0.000210372
8.66921e-05
0.000135272
1.58211e-05
8.2739e-05
1.58205e-05
8.27396e-05
5.87322e-05
5.87343e-05
5.72533e-06
5.72539e-06
5.72743e-06
5.72556e-06
5.7273e-06
5.7254e-06
5.8908e-05
5.8908e-05
0.000176283
5.87334e-05
5.87339e-05
5.72556e-06
5.72744e-06
5.72541e-06
5.72731e-06
0.000176309
5.87336e-05
5.87342e-05
5.89082e-05
5.89082e-05
5.72745e-06
5.7257e-06
5.72732e-06
5.72546e-06
5.40122e-05
4.8184e-06
4.81696e-06
5.40387e-05
4.81767e-06
4.81629e-06
8.56344e-05
0.00011682
5.89084e-05
1.5096e-05
1.50991e-05
0.000116926
8.54176e-05
8.56058e-05
0.000116808
5.89084e-05
1.50892e-05
1.50923e-05
0.000116914
8.53894e-05
8.54193e-05
1.50992e-05
0.000116929
5.87344e-05
8.56371e-05
1.50961e-05
0.000116821
8.53907e-05
1.50926e-05
0.000116917
5.87349e-05
8.56083e-05
1.50893e-05
0.000116809
5.40368e-05
4.81762e-06
4.81626e-06
4.8183e-06
4.81687e-06
5.40113e-05
9.88704e-06
1.14501e-05
7.63318e-05
8.27417e-05
9.90069e-06
1.14328e-05
7.62628e-05
4.66858e-06
1.58075e-05
5.51409e-05
5.54617e-05
4.66937e-06
4.66941e-06
5.54629e-05
1.58225e-05
4.66865e-06
5.51417e-05
9.90058e-06
8.27555e-05
1.14327e-05
7.62621e-05
1.145e-05
7.63305e-05
9.88698e-06
9.88746e-06
1.14501e-05
7.63352e-05
8.27426e-05
9.90115e-06
1.14328e-05
7.62663e-05
4.66874e-06
1.58074e-05
5.51485e-05
5.54687e-05
4.6695e-06
4.66954e-06
5.54701e-05
1.58223e-05
4.66881e-06
5.51493e-05
9.90103e-06
8.27563e-05
1.14327e-05
7.62654e-05
1.145e-05
7.63337e-05
9.8874e-06
5.72767e-06
5.72583e-06
5.40129e-05
4.81728e-06
4.8182e-06
5.40392e-05
4.81664e-06
4.81745e-06
8.56074e-05
0.00011681
5.89097e-05
1.50899e-05
0.000116916
1.50931e-05
8.53916e-05
8.56365e-05
0.000116823
5.89101e-05
1.50953e-05
1.50985e-05
0.000116929
8.54201e-05
8.53926e-05
1.50933e-05
0.000116918
5.87366e-05
0.000116811
8.56095e-05
1.509e-05
8.54211e-05
1.50987e-05
0.000116931
5.87358e-05
8.56386e-05
1.50955e-05
0.000116824
5.40377e-05
4.81661e-06
4.81743e-06
4.8172e-06
4.81812e-06
5.40124e-05
5.72761e-06
5.72575e-06
9.88737e-06
7.63334e-05
1.14498e-05
8.27405e-05
9.90106e-06
7.62647e-05
1.14325e-05
4.6688e-06
1.58061e-05
5.51476e-05
5.54677e-05
4.66957e-06
4.66962e-06
5.54688e-05
1.58208e-05
4.6689e-06
5.51483e-05
9.9009e-06
8.2754e-05
7.62636e-05
1.14324e-05
7.6332e-05
1.14497e-05
9.8873e-06
9.88674e-06
1.14499e-05
7.63297e-05
8.274e-05
9.90042e-06
1.14325e-05
7.62607e-05
4.66848e-06
1.58053e-05
5.51391e-05
5.54596e-05
4.66925e-06
4.66929e-06
5.54608e-05
1.58202e-05
4.66855e-06
5.51399e-05
9.90027e-06
8.27535e-05
1.14324e-05
7.62596e-05
1.14498e-05
7.63281e-05
9.88666e-06
9.88761e-06
7.63353e-05
1.14499e-05
8.27422e-05
9.9013e-06
7.62663e-05
1.14325e-05
4.66893e-06
1.5807e-05
5.51488e-05
5.5469e-05
4.66968e-06
4.66973e-06
5.54703e-05
1.58219e-05
4.66901e-06
5.51497e-05
9.90116e-06
8.27558e-05
7.62654e-05
1.14325e-05
7.63336e-05
1.14498e-05
9.88755e-06
9.88701e-06
1.145e-05
7.63315e-05
8.27417e-05
9.90069e-06
1.14326e-05
7.62624e-05
4.66866e-06
1.58062e-05
5.51401e-05
5.54607e-05
4.66944e-06
4.66948e-06
5.5462e-05
4.66874e-06
5.51408e-05
9.90055e-06
8.27554e-05
1.14325e-05
7.62615e-05
1.14498e-05
7.63298e-05
9.88695e-06
5.72704e-06
5.72519e-06
5.40123e-05
4.81635e-06
4.8174e-06
8.5606e-05
0.000116807
5.89055e-05
1.50893e-05
0.000116913
1.50925e-05
8.53898e-05
8.56351e-05
0.00011682
5.89076e-05
1.50957e-05
1.50987e-05
0.000116926
8.54183e-05
8.5391e-05
0.000116914
5.87322e-05
0.000116808
1.50895e-05
8.54197e-05
5.87333e-05
1.50958e-05
0.000116821
5.40373e-05
4.81626e-06
4.81735e-06
4.81692e-06
4.81805e-06
5.40119e-05
5.72729e-06
5.72543e-06
4.66872e-06
1.58062e-05
5.51405e-05
5.54607e-05
4.66948e-06
9.90053e-06
8.27535e-05
7.62605e-05
1.14324e-05
7.63289e-05
1.14497e-05
9.88694e-06
4.66892e-06
1.58057e-05
5.51472e-05
5.54671e-05
4.66967e-06
9.90109e-06
8.27542e-05
7.62637e-05
1.14324e-05
7.6332e-05
1.14497e-05
9.88748e-06
8.56351e-05
0.00011682
5.89069e-05
1.50954e-05
0.000116925
1.50985e-05
8.54189e-05
8.56068e-05
0.000116809
5.89085e-05
1.50897e-05
0.000116915
1.50929e-05
8.5391e-05
5.40375e-05
4.81746e-06
4.81639e-06
4.81812e-06
4.81699e-06
5.40122e-05
5.72721e-06
5.72729e-06
5.72556e-06
5.72744e-06
5.7254e-06
5.72731e-06
5.40363e-05
4.81761e-06
4.81626e-06
4.81828e-06
4.81687e-06
5.40112e-05
8.54172e-05
0.000116925
1.5099e-05
5.87333e-05
8.56337e-05
1.5096e-05
0.000116819
8.5389e-05
0.000116913
1.50923e-05
5.87338e-05
8.56052e-05
1.50892e-05
0.000116808
5.4011e-05
4.81828e-06
4.81686e-06
5.40365e-05
4.8176e-06
4.81624e-06
8.56338e-05
1.5096e-05
5.89082e-05
0.00011682
1.5099e-05
8.54176e-05
0.000116925
8.56053e-05
1.50892e-05
5.89081e-05
0.000116808
1.50923e-05
8.53896e-05
0.000116913
5.72744e-06
5.72557e-06
5.72731e-06
5.72541e-06
5.40112e-05
4.81829e-06
4.81688e-06
5.40365e-05
4.81762e-06
4.81626e-06
8.56342e-05
0.00011682
5.89082e-05
1.5096e-05
1.5099e-05
0.000116926
8.54181e-05
8.56057e-05
0.000116809
5.89082e-05
1.50892e-05
1.50923e-05
0.000116914
8.53901e-05
8.54178e-05
1.5099e-05
0.000116925
5.87336e-05
8.5634e-05
1.5096e-05
0.00011682
8.53898e-05
1.50923e-05
0.000116914
5.87341e-05
8.56056e-05
1.50892e-05
0.000116808
5.40366e-05
4.81763e-06
4.81628e-06
4.8183e-06
4.81688e-06
5.40115e-05
0.000127373
0.000176309
0.000155288
0.000155272
0.000155341
0.000155326
0.000127261
0.000127376
0.000176313
0.000155275
0.000155292
0.000155329
0.000155345
0.000127265
0.000127374
0.000176311
0.000155272
0.000155289
0.000155326
0.000155343
0.000127262
0.000127373
0.000176309
0.000155288
0.000155273
0.000155342
0.000155327
0.000127262
0.000127261
0.000155341
0.000155325
0.000176283
0.000127371
0.000155287
0.000155271
0.000127373
0.00017631
0.000155289
0.000155273
0.000155342
0.000155326
0.000127262
0.000220213
0.000227413
0.000227415
0.000227407
0.000227408
0.000231828
0.000231835
0.000220214
0.000227413
0.000227416
0.000227407
0.000227409
0.000231828
0.000231835
0.00022741
0.000227413
0.000227404
0.000231827
0.000231834
0.000227412
0.000227414
0.000227405
0.000231827
0.000231834
0.000127263
0.000176282
0.000155344
0.000155328
0.000127375
0.000155289
0.000155273
0.000165971
0.000128834
0.000171015
0.000135274
0.000166005
0.000128774
0.00017099
0.000154128
0.000137877
8.72266e-05
0.000113472
0.000138022
0.000113634
0.000154059
0.00015406
0.000113637
0.000138024
8.66951e-05
0.000137877
0.000154129
0.000113473
0.000166006
0.000135307
0.000128773
0.000170992
0.000128832
0.000171015
0.00016597
0.000165972
0.000128836
0.000171015
0.000135275
0.000166006
0.000128776
0.00017099
0.000154127
0.000137871
8.72252e-05
0.000113474
0.000113637
0.000138016
0.000154058
0.000154058
0.000113639
0.000138017
8.66937e-05
0.000154127
0.000113475
0.000137871
0.000166006
0.000135308
0.000128776
0.000170992
0.000128834
0.000171015
0.000165971
0.000127266
0.000176286
0.00015533
0.000155347
0.000155275
0.000127377
0.000155292
0.00016597
0.000128834
0.000171012
0.000135272
0.000166004
0.000128774
0.000170988
0.000154128
0.000137871
8.72249e-05
0.000113474
0.000138016
0.000113637
0.000154058
0.000154059
0.000113639
0.000138018
8.66935e-05
0.000137871
0.000154128
0.000113475
0.000166004
0.000135305
0.000128773
0.000170989
0.000128832
0.000171012
0.000165969
0.000165966
0.00017101
0.000128829
0.000135271
0.000165999
0.000170986
0.00012877
0.000154121
0.000137866
8.72209e-05
0.000113467
0.00011363
0.000138011
0.000154051
0.000154052
0.000113632
0.000138012
8.66894e-05
0.00015412
0.000113468
0.000137866
0.000166
0.000135303
0.000170987
0.000128769
0.00017101
0.000128827
0.000165965
0.000165975
0.000128838
0.000171017
0.000135276
0.000166009
0.000128778
0.000170992
0.000154135
0.000137882
8.723e-05
0.000113478
0.000138027
0.000113641
0.000154066
0.000154066
0.000113643
0.000138029
8.66982e-05
0.000154135
0.000137882
0.000113479
0.000166009
0.000135308
0.000128777
0.000170994
0.000128835
0.000171016
0.000165974
0.000165971
0.000171014
0.000128833
0.000135274
0.000166005
0.00017099
0.000128774
0.000154128
0.000137876
8.72253e-05
0.000113471
0.000113633
0.000138021
0.000154058
0.000154059
0.000113636
0.000154128
0.000113472
0.000166005
0.000135307
0.000170991
0.000128773
0.000171015
0.000128831
0.00016597
0.000127264
0.000176284
0.000155327
0.000155273
0.00015529
0.000154128
0.000137878
8.7226e-05
0.000113471
0.000138022
0.000113634
0.000154059
0.000166005
0.000135305
0.000170989
0.000128772
0.000171013
0.00012883
0.000165969
0.000154128
0.000137872
8.72248e-05
0.000113474
0.000113636
0.000138017
0.000154059
0.000166005
0.000135306
0.000170989
0.000128773
0.000171013
0.000128832
0.000165969
0.000127372
0.000176309
0.000155288
0.000155272
0.000127261
0.000155341
0.000155325
0.000127262
0.000176283
0.000155342
0.000155326
0.000127372
0.000155288
0.000155272
0.000220219
0.000196893
0.000196886
0.000176309
0.00022022
0.000196893
0.000196886
0.000176309
0.000220219
0.000196893
0.000196886
0.000176309
0.00022022
0.000196893
0.000196886
0.000176309
0.00022022
0.000196893
0.000196886
0.000176309
0.00022022
0.000196893
0.000196886
0.000176309
0.00022022
0.000196893
0.000196886
0.000176309
0.00022022
0.000196893
0.000196886
0.000176309
0.00022022
0.000196893
0.000196886
0.000176309
0.00022022
0.000196893
0.000196886
0.000176309
0.00022022
0.000196894
0.000196886
0.000176309
0.00022022
0.000196893
0.000196886
0.000176309
0.00022022
0.000196893
0.000196886
0.000176309
0.00022022
0.000196893
0.000196886
0.000176309
0.00022022
0.000196893
0.000196886
0.000176309
0.00022022
0.000196893
0.000196886
0.000176309
0.000220219
0.000196893
0.000196886
0.000176309
0.000196878
0.00019688
0.000196879
0.00019688
0.000176313
0.000176287
0.000196888
0.000196873
0.000196889
0.000196872
0.000196877
0.000196893
0.000196877
0.000176308
0.000176281
0.000196887
0.000196886
0.000196887
0.000176282
0.00017631
0.000176284
0.000196879
0.00019688
0.000196879
0.00019688
0.000176313
0.000176287
0.000196889
0.000196872
0.000196889
0.000196873
0.000196877
0.000196893
0.000196877
0.000176307
0.000176281
0.000196887
0.000196886
0.000196887
0.000176282
0.00017631
0.000176284
0.000196879
0.00019688
0.000196879
0.00019688
0.000176313
0.000176287
0.000196889
0.000196872
0.000196889
0.000196873
0.000196877
0.000196893
0.000196877
0.000176307
0.000176281
0.000196887
0.000196886
0.000196887
0.000176282
0.00017631
0.000176284
0.000196879
0.00019688
0.000196879
0.00019688
0.000176313
0.000176287
0.000196889
0.000196872
0.000196889
0.000196873
0.000196877
0.000196893
0.000196877
0.000176307
0.000176281
0.000196887
0.000196886
0.000196887
0.000176282
0.00017631
0.000176284
0.000196879
0.00019688
0.000196879
0.00019688
0.000176313
0.000176287
0.000196889
0.000196872
0.000196889
0.000196873
0.000196877
0.000196893
0.000196877
0.000176307
0.000176281
0.000196887
0.000196886
0.000196887
0.000176282
0.00017631
0.000176284
0.000196879
0.00019688
0.000196879
0.00019688
0.000176313
0.000176287
0.000196889
0.000196872
0.000196889
0.000196873
0.000196877
0.000196893
0.000196877
0.000176307
0.000176281
0.000196887
0.000196886
0.000196887
0.000176282
0.00017631
0.000176284
0.000196879
0.00019688
0.000196879
0.00019688
0.000176313
0.000176287
0.000196889
0.000196872
0.000196889
0.000196873
0.000196877
0.000196893
0.000196877
0.000176307
0.000176281
0.000196887
0.000196886
0.000196887
0.000176282
0.00017631
0.000176284
0.000196879
0.00019688
0.000196879
0.00019688
0.000176313
0.000176287
0.000196889
0.000196872
0.000196889
0.000196872
0.000196877
0.000196893
0.000196877
0.000176307
0.000176282
0.000196887
0.000196886
0.000196887
0.000176282
0.00017631
0.000176284
0.000196879
0.00019688
0.000196879
0.00019688
0.000176313
0.000176287
0.000196889
0.000196872
0.000196889
0.000196872
0.000196877
0.000196893
0.000196877
0.000176307
0.000176281
0.000196887
0.000196886
0.000196887
0.000176282
0.00017631
0.000176284
0.000196879
0.00019688
0.000196879
0.00019688
0.000176313
0.000176287
0.000196889
0.000196872
0.000196889
0.000196872
0.000196877
0.000196893
0.000196877
0.000176307
0.000176281
0.000196887
0.000196886
0.000196887
0.000176282
0.00017631
0.000176284
0.000196879
0.00019688
0.000196879
0.00019688
0.000176313
0.000176287
0.000196889
0.000196872
0.000196889
0.000196873
0.000196877
0.000196893
0.000196877
0.000176307
0.000176281
0.000196887
0.000196886
0.000196887
0.000176282
0.00017631
0.000176284
0.000196879
0.00019688
0.000196879
0.00019688
0.000176313
0.000176287
0.000196889
0.000196873
0.000196889
0.000196873
0.000196877
0.000196893
0.000196877
0.000176307
0.000176282
0.000196887
0.000196886
0.000196887
0.000176282
0.00017631
0.000176284
0.000196879
0.00019688
0.000196879
0.00019688
0.000176313
0.000176287
0.000196889
0.000196872
0.000196889
0.000196873
0.000196877
0.000196893
0.000196877
0.000176307
0.000176281
0.000196887
0.000196886
0.000196887
0.000176282
0.00017631
0.000176284
0.000196879
0.00019688
0.000196879
0.00019688
0.000176313
0.000176287
0.000196889
0.000196872
0.000196889
0.000196873
0.000196877
0.000196893
0.000196877
0.000176307
0.000176281
0.000196887
0.000196886
0.000196887
0.000176282
0.00017631
0.000176284
0.000196879
0.00019688
0.000196879
0.00019688
0.000176313
0.000176287
0.000196889
0.000196873
0.000196889
0.000196873
0.000196877
0.000196893
0.000196877
0.000176307
0.000176281
0.000196887
0.000196886
0.000196887
0.000176282
0.00017631
0.000176284
0.000196879
0.00019688
0.000196879
0.00019688
0.000176313
0.000176287
0.000196889
0.000196872
0.000196889
0.000196873
0.000196877
0.000196893
0.000196877
0.000176307
0.000176281
0.000196887
0.000196886
0.000196887
0.000176282
0.00017631
0.000196879
0.00019688
0.000176313
0.000196889
0.000196872
0.000196866
0.000196877
0.000176307
0.000176272
0.000196887
0.000196879
8.27408e-05
1.58074e-05
8.27551e-05
1.58223e-05
5.72765e-06
5.72578e-06
8.27391e-05
1.5806e-05
8.27534e-05
1.58208e-05
0.000220221
0.000220216
0.000220217
0.000220219
0.000220221
0.000220216
0.000220218
0.000135275
8.72295e-05
0.000210377
0.000196893
8.6697e-05
0.000210377
0.000135308
5.72702e-06
5.72514e-06
0.000135271
0.000210372
8.72261e-05
0.000196886
0.000210372
8.66938e-05
0.000135304
5.89066e-05
5.89081e-05
0.000176283
5.87321e-05
5.87341e-05
8.27407e-05
1.58074e-05
8.2755e-05
1.58223e-05
5.72765e-06
5.72578e-06
8.2739e-05
1.5806e-05
8.27532e-05
1.58208e-05
0.000220221
0.000220216
0.000220218
0.000220219
0.000220221
0.000220216
0.000220218
0.000135275
8.72295e-05
0.000210377
0.000196893
0.000135308
8.66971e-05
0.000210377
5.72702e-06
5.72514e-06
0.000135271
0.000210372
8.72261e-05
0.000196886
0.000135304
0.000210372
8.66936e-05
5.89064e-05
5.8908e-05
0.000176283
5.87321e-05
5.87342e-05
8.27408e-05
1.58074e-05
8.2755e-05
1.58223e-05
5.72765e-06
5.72578e-06
8.2739e-05
1.5806e-05
8.27533e-05
1.58208e-05
0.000220221
0.000220216
0.000220218
0.000220219
0.000220221
0.000220216
0.000220218
0.000135275
8.72295e-05
0.000210377
0.000196893
0.000135308
8.6697e-05
0.000210377
5.72702e-06
5.72514e-06
0.000135271
0.000210372
8.72261e-05
0.000196886
0.000135304
0.000210372
8.66936e-05
5.89065e-05
5.89081e-05
0.000176282
5.8732e-05
5.87341e-05
8.27408e-05
1.58074e-05
8.2755e-05
1.58223e-05
5.72765e-06
5.72578e-06
8.2739e-05
1.5806e-05
8.27533e-05
1.58208e-05
0.000220221
0.000220216
0.000220218
0.000220219
0.000220221
0.000220216
0.000220218
0.000135275
8.72294e-05
0.000210377
0.000196893
0.000135308
8.6697e-05
0.000210377
5.72702e-06
5.72514e-06
0.000135271
0.000210372
8.72261e-05
0.000196886
0.000135304
0.000210372
8.66936e-05
5.89065e-05
5.8908e-05
0.000176283
5.87321e-05
5.87341e-05
8.27407e-05
1.58074e-05
8.2755e-05
1.58223e-05
5.72765e-06
5.72578e-06
8.2739e-05
1.5806e-05
8.27533e-05
1.58208e-05
0.000220221
0.000220216
0.000220218
0.000220219
0.000220221
0.000220216
0.000220218
0.000135275
8.72294e-05
0.000210377
0.000196893
0.000135308
8.6697e-05
0.000210377
5.72702e-06
5.72514e-06
0.000135271
0.000210372
8.72261e-05
0.000196886
0.000135304
0.000210372
8.66936e-05
5.89065e-05
5.8908e-05
0.000176283
5.8732e-05
5.87341e-05
8.27407e-05
1.58074e-05
8.2755e-05
1.58223e-05
5.72766e-06
5.72578e-06
8.2739e-05
1.5806e-05
8.27533e-05
1.58208e-05
0.000220221
0.000220216
0.000220218
0.000220219
0.000220221
0.000220216
0.000220218
0.000135275
8.72295e-05
0.000210377
0.000196893
0.000135308
8.6697e-05
0.000210377
5.72702e-06
5.72514e-06
0.000135271
0.000210372
8.7226e-05
0.000196886
0.000135304
0.000210372
8.66936e-05
5.89064e-05
5.8908e-05
0.000176282
5.8732e-05
5.87341e-05
8.27407e-05
1.58074e-05
8.2755e-05
1.58223e-05
5.72765e-06
5.72578e-06
8.27391e-05
1.5806e-05
8.27533e-05
1.58208e-05
0.000220221
0.000220216
0.000220218
0.000220219
0.000220221
0.000220216
0.000220218
0.000135275
8.72294e-05
0.000210377
0.000196893
0.000135308
8.6697e-05
0.000210377
5.72702e-06
5.72514e-06
0.000135271
0.000210372
8.72261e-05
0.000196886
0.000135304
0.000210372
8.66936e-05
5.89064e-05
5.8908e-05
0.000176282
5.8732e-05
5.87341e-05
8.27407e-05
1.58074e-05
8.2755e-05
1.58223e-05
5.72765e-06
5.72578e-06
8.27391e-05
1.5806e-05
8.27533e-05
1.58208e-05
0.000220221
0.000220216
0.000220218
0.000220219
0.000220221
0.000220216
0.000220218
0.000135275
8.72295e-05
0.000210377
0.000196893
0.000135308
8.66971e-05
0.000210377
5.72702e-06
5.72514e-06
0.000135271
0.000210372
8.72261e-05
0.000196886
0.000135304
0.000210372
8.66937e-05
5.89064e-05
5.8908e-05
0.000176283
5.8732e-05
5.87341e-05
8.27407e-05
1.58074e-05
8.2755e-05
1.58223e-05
5.72765e-06
5.72578e-06
8.27391e-05
1.5806e-05
8.27533e-05
1.58208e-05
0.000220221
0.000220216
0.000220218
0.000220219
0.000220221
0.000220216
0.000220218
0.000135275
8.72294e-05
0.000210377
0.000196893
0.000135308
8.6697e-05
0.000210377
5.72702e-06
5.72514e-06
0.000135271
0.000210372
8.72262e-05
0.000196886
0.000135304
0.000210372
8.66936e-05
5.89065e-05
5.8908e-05
0.000176283
5.8732e-05
5.87341e-05
8.27408e-05
1.58074e-05
8.2755e-05
1.58223e-05
5.72766e-06
5.72578e-06
8.2739e-05
1.5806e-05
8.27533e-05
1.58208e-05
0.000220221
0.000220216
0.000220218
0.000220219
0.000220221
0.000220216
0.000220218
0.000135275
8.72294e-05
0.000210377
0.000196893
0.000135308
8.6697e-05
0.000210377
5.72702e-06
5.72514e-06
0.000135271
0.000210372
8.72259e-05
0.000196886
0.000135304
0.000210372
8.66935e-05
5.89065e-05
5.8908e-05
0.000176283
5.8732e-05
5.87341e-05
8.27409e-05
1.58075e-05
8.27551e-05
1.58225e-05
5.72755e-06
5.72568e-06
8.2739e-05
1.58059e-05
8.27532e-05
1.58207e-05
0.000220221
0.000220216
0.000220218
0.000220219
0.000220221
0.000220216
0.000220218
0.000135275
8.72295e-05
0.000210377
0.000196893
0.000135308
8.6697e-05
0.000210377
5.72702e-06
5.72514e-06
0.000135271
0.000210372
8.72259e-05
0.000196886
0.000135304
0.000210372
8.66934e-05
5.89064e-05
5.8908e-05
0.000176283
5.8732e-05
5.87341e-05
8.27409e-05
1.58077e-05
8.27551e-05
1.58226e-05
5.72752e-06
5.72563e-06
8.2739e-05
1.58058e-05
8.27532e-05
1.58206e-05
0.000220221
0.000220216
0.000220218
0.000220219
0.000220221
0.000220216
0.000220218
0.000135275
8.72294e-05
0.000210377
0.000196893
0.000135308
8.6697e-05
0.000210377
5.72702e-06
5.72514e-06
0.000135271
0.000210372
8.72259e-05
0.000196886
0.000135304
0.000210372
8.66934e-05
5.89065e-05
5.8908e-05
0.000176283
5.8732e-05
5.87342e-05
8.27409e-05
1.58077e-05
8.27551e-05
1.58226e-05
5.7275e-06
5.72563e-06
8.2739e-05
1.58058e-05
8.27532e-05
1.58206e-05
0.000220221
0.000220216
0.000220218
0.000220219
0.000220221
0.000220216
0.000220218
0.000135275
8.72295e-05
0.000210377
0.000196893
0.000135308
8.6697e-05
0.000210377
5.72702e-06
5.72514e-06
0.000135271
0.000210372
8.7226e-05
0.000196886
0.000135304
0.000210372
8.66935e-05
5.89064e-05
5.8908e-05
0.000176283
5.8732e-05
5.87341e-05
8.27409e-05
1.58077e-05
8.27551e-05
1.58226e-05
5.7275e-06
5.72563e-06
8.2739e-05
1.58058e-05
8.27532e-05
1.58206e-05
0.000220221
0.000220216
0.000220218
0.000220219
0.000220221
0.000220216
0.000220218
0.000135275
8.72294e-05
0.000210377
0.000196893
0.000135308
8.6697e-05
0.000210377
5.72702e-06
5.72514e-06
0.000135271
0.000210372
8.72259e-05
0.000196886
0.000135304
0.000210372
8.66935e-05
5.89064e-05
5.8908e-05
0.000176283
5.8732e-05
5.87342e-05
8.27409e-05
1.58077e-05
8.27552e-05
1.58226e-05
5.7275e-06
5.72563e-06
8.2739e-05
1.58058e-05
8.27532e-05
1.58206e-05
0.000220221
0.000220216
0.000220218
0.000220219
0.000220221
0.000220216
0.000220218
0.000135275
8.72294e-05
0.000210377
0.000196893
0.000135308
8.6697e-05
0.000210377
5.72702e-06
5.72514e-06
0.000135271
0.000210372
8.72259e-05
0.000196886
0.000135304
0.000210372
8.66934e-05
5.89065e-05
5.89081e-05
0.000176283
5.8732e-05
5.87342e-05
8.27409e-05
1.58077e-05
8.27551e-05
1.58226e-05
5.7275e-06
5.72563e-06
8.2739e-05
1.58058e-05
8.27533e-05
1.58206e-05
0.000220221
0.000220216
0.000220218
0.000220219
0.000220221
0.000220216
0.000220218
0.000135275
8.72294e-05
0.000210377
0.000196893
0.000135308
8.6697e-05
0.000210377
5.72702e-06
5.72514e-06
0.000135271
0.000210372
8.72259e-05
0.000196886
0.000135304
0.000210372
8.66934e-05
5.89065e-05
5.89081e-05
0.000176283
5.87321e-05
5.87342e-05
8.27412e-05
1.58077e-05
8.27551e-05
1.58226e-05
5.7275e-06
5.72564e-06
8.27393e-05
1.58058e-05
8.27532e-05
1.58206e-05
0.000220221
0.000220216
0.000220217
0.000220201
0.000135276
8.72294e-05
0.000210377
0.000196893
0.000135308
8.66974e-05
0.000210376
5.72702e-06
5.72515e-06
0.000135272
0.000210372
8.72259e-05
0.000196886
0.000135304
0.00021037
8.66939e-05
5.89066e-05
5.89081e-05
0.000176283
5.8734e-05
5.87361e-05
8.27414e-05
1.58074e-05
1.58222e-05
8.27558e-05
0.000135274
8.7226e-05
0.000210375
0.000196879
0.000210376
0.000135307
8.66937e-05
0.000135275
8.72247e-05
0.000210376
0.00019688
8.66924e-05
0.000210376
0.000135308
8.2755e-05
1.58223e-05
8.27408e-05
1.58074e-05
8.27556e-05
1.58222e-05
1.58074e-05
8.27415e-05
0.000135307
0.000196878
8.66938e-05
0.000210376
0.000210375
0.000135274
8.7226e-05
0.000135308
0.000196879
8.66925e-05
0.000210376
8.72245e-05
0.000210376
0.000135274
5.89094e-05
5.89098e-05
0.000176287
5.87357e-05
5.87349e-05
5.72759e-06
5.72569e-06
5.72578e-06
5.72765e-06
0.000176313
5.87357e-05
5.87349e-05
5.89092e-05
5.89097e-05
5.72569e-06
5.72759e-06
0.000135271
8.72243e-05
0.000210373
0.000196889
0.000210374
0.000135304
8.6692e-05
8.27386e-05
1.58052e-05
1.582e-05
8.27529e-05
0.00013527
0.00021037
8.72204e-05
0.000196872
0.00021037
8.66878e-05
0.000135303
8.27532e-05
1.58208e-05
8.27391e-05
1.5806e-05
0.000135304
0.000196889
8.66922e-05
0.000210374
0.000210374
0.000135271
8.72244e-05
8.27527e-05
1.582e-05
1.58052e-05
8.27386e-05
0.000135303
0.000196872
0.00021037
8.66877e-05
0.00021037
8.72199e-05
0.000135269
8.27412e-05
1.58069e-05
1.58218e-05
8.27554e-05
0.000135274
0.000210374
8.72248e-05
0.000196877
0.000210374
8.66925e-05
0.000135307
8.27407e-05
1.58061e-05
1.5821e-05
8.27549e-05
0.000135308
0.000196893
8.6697e-05
0.000210377
8.72294e-05
0.000210377
0.000135275
8.27553e-05
1.58217e-05
1.58069e-05
8.27412e-05
0.000135307
0.000196877
0.000210374
8.66925e-05
0.000210374
8.72247e-05
0.000135274
8.27548e-05
1.5821e-05
1.58061e-05
8.27407e-05
5.8905e-05
5.89075e-05
0.000176281
5.87307e-05
5.87325e-05
5.72728e-06
5.72539e-06
5.72514e-06
5.72702e-06
0.000176307
5.87307e-05
5.87325e-05
5.89045e-05
5.89074e-05
5.72539e-06
5.72727e-06
0.000135272
0.000210372
8.72242e-05
0.000196887
0.000210372
8.66919e-05
0.000135305
8.27388e-05
1.58061e-05
1.58209e-05
8.27531e-05
8.27393e-05
1.58057e-05
1.58205e-05
8.27537e-05
0.000135304
0.000196886
0.000210372
8.66937e-05
0.000210372
8.72261e-05
0.000135271
0.000135305
0.000196887
0.000210372
8.6692e-05
0.000210372
8.72242e-05
0.000135272
8.2753e-05
1.58209e-05
1.5806e-05
8.27389e-05
8.27535e-05
1.58205e-05
1.58057e-05
8.27394e-05
5.72719e-06
5.72533e-06
5.72727e-06
5.72538e-06
0.000176308
5.87321e-05
5.87342e-05
5.89065e-05
5.8908e-05
5.72533e-06
5.72719e-06
5.72539e-06
5.72727e-06
5.72744e-06
5.72557e-06
5.72731e-06
5.72541e-06
5.89083e-05
5.89083e-05
0.000176284
5.87337e-05
5.87343e-05
5.72557e-06
5.72744e-06
5.72541e-06
5.72731e-06
0.00017631
5.87337e-05
5.87343e-05
5.89083e-05
5.89083e-05
8.27414e-05
1.58074e-05
8.27557e-05
1.58222e-05
0.000135274
8.72262e-05
0.000210375
0.000196879
0.000135307
8.66939e-05
0.000210376
0.000135275
8.72246e-05
0.000210376
0.00019688
0.000135308
8.66925e-05
0.000210376
8.27549e-05
1.58223e-05
1.58074e-05
8.27408e-05
8.27556e-05
1.58222e-05
1.58074e-05
8.27415e-05
0.000135307
0.000196879
8.66939e-05
0.000210375
8.72262e-05
0.000210375
0.000135274
0.000135308
0.000196879
8.66925e-05
0.000210376
8.72246e-05
0.000210376
0.000135274
5.89093e-05
5.89098e-05
0.000176287
5.87357e-05
5.8735e-05
5.72759e-06
5.7257e-06
5.72578e-06
5.72765e-06
0.000176313
5.87357e-05
5.8735e-05
5.89093e-05
5.89098e-05
5.72569e-06
5.72759e-06
0.000135271
8.72246e-05
0.000210374
0.000196889
0.000135304
8.66923e-05
0.000210374
8.27385e-05
1.58052e-05
8.27528e-05
1.58201e-05
0.00013527
0.00021037
8.72199e-05
0.000196872
0.000135303
0.00021037
8.66877e-05
8.27532e-05
1.58208e-05
1.5806e-05
8.27391e-05
0.000135304
0.000196889
8.66922e-05
0.000210374
8.72246e-05
0.000210373
0.000135271
8.27527e-05
1.582e-05
1.58052e-05
8.27386e-05
0.000135303
0.000196872
0.00021037
8.66877e-05
0.00021037
8.72199e-05
0.000135269
8.27412e-05
1.58069e-05
8.27554e-05
1.58218e-05
0.000135274
0.000210374
8.72247e-05
0.000196877
0.000135307
0.000210374
8.66925e-05
8.27407e-05
1.58061e-05
8.27549e-05
1.5821e-05
0.000135308
0.000196893
8.6697e-05
0.000210377
8.72295e-05
0.000210377
0.000135275
8.27553e-05
1.58217e-05
1.58069e-05
8.27412e-05
0.000135307
0.000196877
0.000210374
8.66925e-05
0.000210374
8.72247e-05
0.000135274
8.27548e-05
1.5821e-05
1.58061e-05
8.27407e-05
5.89045e-05
5.89074e-05
0.000176281
5.87307e-05
5.87325e-05
5.72727e-06
5.72538e-06
5.72514e-06
5.72702e-06
0.000176307
5.87307e-05
5.87325e-05
5.89044e-05
5.89073e-05
5.72538e-06
5.72727e-06
0.000135272
0.000210372
8.72242e-05
0.000196887
0.000135305
0.000210372
8.6692e-05
8.27388e-05
1.5806e-05
8.2753e-05
1.58209e-05
8.27393e-05
1.58057e-05
8.27535e-05
1.58205e-05
0.000135304
0.000196886
0.000210372
8.66936e-05
0.000210371
8.7226e-05
0.000135271
0.000135305
0.000196887
0.000210372
8.6692e-05
0.000210372
8.72242e-05
0.000135272
8.2753e-05
1.58209e-05
1.5806e-05
8.27388e-05
8.27535e-05
1.58205e-05
1.58057e-05
8.27393e-05
5.72719e-06
5.72533e-06
5.72727e-06
5.72539e-06
0.000176308
5.87321e-05
5.87342e-05
5.89065e-05
5.89081e-05
5.72533e-06
5.72719e-06
5.72539e-06
5.72727e-06
5.72744e-06
5.72557e-06
5.72732e-06
5.72541e-06
5.89084e-05
5.89083e-05
0.000176284
5.87337e-05
5.87343e-05
5.72557e-06
5.72744e-06
5.72541e-06
5.72731e-06
0.00017631
5.87337e-05
5.87343e-05
5.89083e-05
5.89083e-05
8.27414e-05
1.58074e-05
8.27557e-05
1.58222e-05
0.000135274
8.72262e-05
0.000210375
0.000196879
0.000135307
8.66939e-05
0.000210376
0.000135275
8.72246e-05
0.000210376
0.00019688
0.000135308
8.66925e-05
0.000210376
8.2755e-05
1.58223e-05
1.58074e-05
8.27408e-05
8.27556e-05
1.58222e-05
1.58074e-05
8.27415e-05
0.000135307
0.000196879
8.66939e-05
0.000210376
8.72262e-05
0.000210375
0.000135274
0.000135308
0.000196879
8.66925e-05
0.000210376
8.72246e-05
0.000210376
0.000135275
5.89093e-05
5.89098e-05
0.000176287
5.87357e-05
5.8735e-05
5.72759e-06
5.72569e-06
5.72578e-06
5.72765e-06
0.000176313
5.87357e-05
5.87349e-05
5.89093e-05
5.89097e-05
5.72569e-06
5.72759e-06
0.000135271
8.72246e-05
0.000210373
0.000196889
0.000135304
8.66922e-05
0.000210374
8.27386e-05
1.58052e-05
8.27528e-05
1.58201e-05
0.00013527
0.00021037
8.72198e-05
0.000196872
0.000135303
0.00021037
8.66877e-05
8.27532e-05
1.58208e-05
1.5806e-05
8.27391e-05
0.000135304
0.000196889
8.66922e-05
0.000210374
8.72245e-05
0.000210373
0.000135271
8.27527e-05
1.58201e-05
1.58052e-05
8.27386e-05
0.000135303
0.000196872
0.00021037
8.66877e-05
0.00021037
8.72199e-05
0.000135269
8.27411e-05
1.58069e-05
8.27553e-05
1.58217e-05
0.000135274
0.000210374
8.72247e-05
0.000196877
0.000135307
0.000210374
8.66925e-05
8.27406e-05
1.58061e-05
8.27548e-05
1.5821e-05
0.000135308
0.000196893
8.66969e-05
0.000210377
8.72294e-05
0.000210377
0.000135275
8.27553e-05
1.58217e-05
1.58069e-05
8.27412e-05
0.000135307
0.000196877
0.000210374
8.66925e-05
0.000210374