/*--------------------------------*- C++ -*----------------------------------*\
| =========                 |                                                 |
| \\      /  F ield         | OpenFOAM: The Open Source CFD Toolbox           |
|  \\    /   O peration     | Version:  2206                                  |
|   \\  /    A nd           | Website:  www.openfoam.com                      |
|    \\/     M anipulation  |                                                 |
\*---------------------------------------------------------------------------*/
FoamFile
{
    version     2.0;
    format      ascii;
    arch        "LSB;label=32;scalar=64";
    class       surfaceScalarField;
    location    "40";
    object      phi;
}
// * * * * * * * * * * * * * * * * * * * * * * * * * * * * * * * * * * * * * //

dimensions      [0 3 -1 0 0 0 0];

oriented        oriented;

internalField   nonuniform List<scalar> 
83375
(
1.24563e-08
1.24427e-08
-3.90524e-09
6.13583e-09
-1.3588e-08
-1.35413e-08
1.94394e-08
-5.10305e-08
6.8765e-08
-9.60846e-09
-1.03483e-08
-6.04144e-09
-2.49128e-09
-2.47821e-08
-1.6333e-08
-6.36563e-09
5.12526e-08
-1.22686e-08
1.92321e-08
-5.16783e-08
6.80758e-08
-9.42062e-09
-1.01784e-08
-5.86968e-09
-2.39812e-09
-2.46635e-08
-1.62153e-08
-6.28166e-09
5.16661e-08
1.22975e-08
6.092e-09
-1.34207e-08
-1.33888e-08
-3.84859e-09
1.98009e-08
-4.90842e-08
6.85382e-08
-9.56499e-09
-1.03016e-08
-5.96764e-09
-2.46701e-09
-2.47011e-08
-1.62842e-08
-6.34762e-09
4.8822e-08
-1.22748e-08
1.92268e-08
-5.15239e-08
6.8022e-08
-9.42661e-09
-1.01742e-08
-5.86223e-09
-2.39734e-09
-2.4639e-08
-1.61983e-08
-6.2782e-09
5.15258e-08
1.88365e-08
-4.89956e-08
6.82299e-08
-9.44606e-09
-1.01607e-08
-5.85621e-09
-2.34333e-09
-2.45664e-08
-1.6162e-08
-6.22383e-09
4.89852e-08
-1.22545e-08
1.90709e-08
6.82685e-08
-9.40657e-09
-1.01608e-08
-5.85386e-09
-2.42775e-09
-2.46957e-08
-1.62536e-08
-6.30338e-09
5.1453e-08
-5.14362e-08
1.23122e-08
6.04885e-09
-1.34181e-08
-1.34126e-08
-3.80519e-09
1.89792e-08
6.84516e-08
-9.46832e-09
-1.01842e-08
-5.88808e-09
-2.38228e-09
-2.45849e-08
-1.61895e-08
-6.24845e-09
4.92851e-08
-4.9458e-08
-1.23135e-08
1.89714e-08
6.80589e-08
-9.45781e-09
-1.018e-08
-5.86826e-09
-2.34233e-09
-2.45496e-08
-1.6133e-08
-6.22942e-09
4.90443e-08
-4.90006e-08
6.01079e-09
-1.34712e-08
-1.33413e-08
-3.76633e-09
-8.48664e-09
-8.4265e-09
-6.16227e-09
9.58287e-09
9.5873e-09
6.18438e-09
-1.34888e-08
-1.33753e-08
1.22862e-08
1.23265e-08
-3.93297e-09
-1.62742e-07
1.97146e-08
1.93863e-08
1.62881e-07
-1.63237e-07
1.88641e-08
1.91776e-08
1.63264e-07
1.90326e-08
1.93219e-08
1.63176e-07
-1.63324e-07
1.90901e-08
1.88963e-08
1.62666e-07
-1.6261e-07
8.64154e-08
-7.3527e-08
-2.10676e-08
8.17921e-09
1.37189e-08
-2.66121e-08
-8.17738e-09
2.10706e-08
8.62293e-08
-7.32872e-08
-2.12214e-08
8.27932e-09
1.37846e-08
-2.6732e-08
-8.26382e-09
2.12113e-08
9.59294e-09
9.47626e-09
-6.10181e-09
-8.3519e-09
-8.45576e-09
3.84027e-09
-2.5033e-09
-2.67575e-08
4.79987e-08
3.57364e-08
3.19411e-08
-2.41146e-09
-2.73153e-08
4.78886e-08
3.62125e-08
3.18549e-08
2.25479e-08
-2.3893e-08
2.40297e-08
-3.57551e-08
2.67894e-08
2.24788e-08
-2.36386e-08
2.39812e-08
-3.61015e-08
2.70646e-08
-1.49527e-10
-4.95945e-08
4.63003e-08
9.97459e-09
-2.86598e-08
2.21289e-08
9.11631e-08
1.49674e-08
-1.47788e-07
-3.1869e-08
-2.734e-08
-1.61952e-08
-1.49861e-08
3.19092e-08
-1.19423e-10
-4.64081e-08
2.86759e-08
1.86315e-08
2.13957e-08
-2.21757e-08
-4.96387e-08
4.63378e-08
9.69059e-09
-2.86654e-08
2.21261e-08
9.11072e-08
7.32707e-08
1.50402e-08
-1.47481e-07
-3.19375e-08
-2.74877e-08
2.6635e-08
-1.60225e-08
-1.50283e-08
3.19035e-08
-4.643e-08
2.86914e-08
1.86424e-08
2.11662e-08
-2.21894e-08
-1.18913e-10
-6.49567e-09
-4.20219e-08
-2.03224e-08
1.93645e-08
6.85868e-08
1.91092e-08
-1.24458e-08
-6.01986e-09
-1.03305e-08
-6.32911e-09
-1.62775e-08
-2.47236e-08
-2.45547e-09
-5.05518e-08
4.73996e-08
4.01441e-08
1.35898e-08
-1.24737e-08
-8.64097e-08
3.11657e-10
-1.90941e-08
1.81722e-08
2.60337e-08
2.73804e-08
1.57528e-08
8.66181e-08
1.09919e-08
1.18459e-08
-4.01905e-08
1.25606e-08
7.4185e-11
-1.91717e-08
1.57521e-08
2.73679e-08
1.81655e-08
2.6027e-08
-8.6038e-08
-7.25042e-11
2.0329e-08
-5.62497e-09
-4.16575e-08
-1.93821e-08
-6.72218e-09
-4.20608e-08
-2.03118e-08
1.93371e-08
6.82493e-08
-9.44397e-09
1.92385e-08
-6.28864e-09
-1.62242e-08
-2.4096e-09
-2.46703e-08
-1.2287e-08
-5.89426e-09
-1.01973e-08
-5.17508e-08
2.3617e-09
4.7301e-08
4.0227e-08
1.37475e-08
-1.253e-08
-8.67856e-08
-1.9173e-08
1.823e-08
2.6059e-08
2.74086e-08
1.58067e-08
8.68417e-08
-2.26526e-08
1.1142e-08
1.17568e-08
-4.01934e-08
1.24596e-08
-1.91934e-08
1.57998e-08
2.73937e-08
1.82182e-08
2.60501e-08
-8.67307e-08
2.03369e-08
-5.76438e-09
-4.16831e-08
-1.93919e-08
8.61462e-08
8.19603e-09
-2.10715e-08
1.37353e-08
-8.19442e-09
2.10941e-08
9.45585e-09
-6.07712e-09
-8.32999e-09
-8.31695e-09
3.82424e-09
4.78209e-08
3.57964e-08
3.17173e-08
-2.68267e-08
-8.63492e-08
-2.47591e-09
4.78656e-08
3.62293e-08
3.1954e-08
-2.72238e-08
-2.38749e-08
2.39576e-08
-3.57867e-08
2.67868e-08
-1.36182e-08
2.25195e-08
-2.38015e-08
2.3923e-08
-3.62332e-08
2.72103e-08
-7.3423e-08
8.27902e-09
-2.12053e-08
-2.65699e-08
-8.27986e-09
2.12316e-08
-4.96044e-08
3.61861e-11
9.7723e-09
4.63042e-08
-2.86217e-08
2.21133e-08
9.1152e-08
1.52127e-08
-1.47483e-07
-3.21691e-08
-2.75506e-08
-1.60867e-08
-1.51774e-08
3.20827e-08
-4.63559e-08
2.21937e-11
2.86336e-08
2.12345e-08
1.86104e-08
-2.21449e-08
3.23423e-11
-6.65538e-09
-4.20122e-08
-2.03562e-08
1.9387e-08
6.84322e-08
1.99058e-08
-1.23644e-08
-5.88206e-09
-1.02238e-08
-6.34837e-09
-1.62725e-08
-2.47016e-08
-2.4596e-09
-4.96936e-08
4.73415e-08
4.07521e-08
1.36892e-08
-1.30423e-08
-8.52375e-08
2.78466e-10
-1.87564e-08
1.81296e-08
2.59616e-08
2.73168e-08
1.57016e-08
8.5144e-08
1.10477e-08
1.17199e-08
-4.06258e-08
1.27865e-08
3.15346e-10
-1.87131e-08
1.57042e-08
2.73161e-08
1.81362e-08
2.59596e-08
-8.55237e-08
1.56638e-11
2.03851e-08
-5.71431e-09
-4.15937e-08
-1.94485e-08
-4.96116e-08
4.63132e-08
9.83592e-09
-2.85695e-08
2.20682e-08
9.1082e-08
7.33288e-08
1.50139e-08
-1.47564e-07
-3.18613e-08
-2.74157e-08
2.66576e-08
-1.61034e-08
-1.50442e-08
3.19057e-08
-4.63838e-08
2.85644e-08
1.86332e-08
2.12807e-08
-2.20722e-08
-4.202e-08
-6.60329e-09
-2.02718e-08
1.93158e-08
6.8078e-08
-9.46031e-09
-6.33999e-09
-1.62924e-08
-2.48398e-09
-2.47107e-08
-1.23032e-08
-5.89794e-09
-1.01976e-08
-5.14064e-08
1.94906e-08
-8.6436e-08
-1.90538e-08
1.81984e-08
2.60179e-08
2.737e-08
1.57763e-08
8.64275e-08
2.43278e-09
4.72752e-08
4.01831e-08
1.36572e-08
-1.24663e-08
-1.89312e-08
1.57363e-08
2.73359e-08
1.81455e-08
2.59905e-08
-8.63197e-08
-2.26066e-08
1.10889e-08
1.18186e-08
-4.0195e-08
1.24785e-08
2.0277e-08
-4.16345e-08
-5.68168e-09
-1.93289e-08
4.96037e-08
2.11246e-11
-6.63258e-09
-4.2033e-08
-2.04471e-08
1.94878e-08
6.82525e-08
1.88888e-08
-1.23025e-08
-5.86556e-09
-1.01645e-08
-6.23024e-09
-1.61719e-08
-2.35373e-09
-2.45726e-08
-4.90199e-08
-9.11273e-08
4.72641e-08
4.07647e-08
1.36413e-08
-1.30187e-08
-8.50173e-08
-3.43472e-11
-1.9139e-08
1.82074e-08
2.60307e-08
2.73806e-08
1.57868e-08
8.50151e-08
2.75339e-08
1.10537e-08
1.16967e-08
-4.07579e-08
1.29932e-08
-1.36413e-11
-1.91108e-08
1.57809e-08
2.73715e-08
1.81978e-08
2.60238e-08
-8.50145e-08
4.63874e-08
1.55939e-11
2.0457e-08
-5.70309e-09
-4.16425e-08
-1.95144e-08
3.49666e-11
9.78184e-09
4.63027e-08
-2.87093e-08
2.21935e-08
1.52558e-08
-1.47562e-07
-3.22439e-08
-1.60221e-08
-1.5259e-08
3.22451e-08
4.60573e-11
2.87125e-08
2.12269e-08
1.8617e-08
-2.2215e-08
4.96199e-08
-4.20451e-08
-6.59143e-09
-2.03341e-08
1.93718e-08
-8.61359e-08
-1.9203e-08
1.82062e-08
2.60447e-08
2.7394e-08
1.57854e-08
8.61427e-08
-9.11171e-08
2.49284e-09
4.73333e-08
4.008e-08
1.36215e-08
-1.24105e-08
-1.91294e-08
1.57716e-08
2.73786e-08
1.81888e-08
2.60327e-08
-8.61102e-08
-6.82817e-08
4.64052e-08
2.03451e-08
-4.16593e-08
-5.67498e-09
-1.94005e-08
4.6317e-08
9.85078e-09
-2.86347e-08
2.21218e-08
7.34758e-08
1.49478e-08
-1.47704e-07
-3.1837e-08
2.86387e-08
1.86402e-08
2.13174e-08
-2.2145e-08
8.62132e-08
8.21587e-09
-2.11002e-08
1.37394e-08
-8.23477e-09
2.1153e-08
-6.04532e-09
-8.40469e-09
3.81404e-09
9.5232e-09
-8.34754e-09
4.78235e-08
3.58221e-08
3.1807e-08
-2.68066e-08
-8.64061e-08
-2.5162e-09
4.78909e-08
3.61411e-08
3.20349e-08
-2.71445e-08
2.3997e-08
-3.58544e-08
2.68272e-08
-2.3837e-08
-7.34947e-08
8.24808e-09
-2.11595e-08
2.60069e-10
-1.90385e-08
1.81652e-08
2.59927e-08
2.73372e-08
1.57518e-08
8.48466e-08
-8.48635e-08
-9.10797e-08
4.72504e-08
4.06227e-08
1.36076e-08
-1.29173e-08
-1.98479e-11
4.63432e-08
2.0482e-08
-4.15991e-08
-5.68113e-09
-1.95252e-08
-1.90532e-08
1.81849e-08
2.59948e-08
2.73434e-08
1.57625e-08
8.47519e-08
-8.46654e-08
-9.10908e-08
2.36313e-09
4.7235e-08
4.06749e-08
1.37399e-08
-1.29222e-08
4.63518e-08
2.04879e-08
-4.16041e-08
-5.72977e-09
-1.95256e-08
1.5176e-08
-1.47608e-07
-3.2142e-08
-5.46238e-11
2.8702e-08
2.12934e-08
1.85951e-08
-2.21927e-08
7.32272e-08
1.51937e-08
-1.47382e-07
-3.21298e-08
2.87023e-08
2.11819e-08
1.86018e-08
-2.21889e-08
-8.63355e-08
4.79128e-08
3.56615e-08
3.19124e-08
-2.66583e-08
-8.61274e-08
4.77542e-08
3.60796e-08
3.17665e-08
-2.71098e-08
8.16527e-09
-2.1025e-08
8.24222e-09
-2.11425e-08
1.3772e-08
-8.19774e-09
-2.66419e-08
8.64234e-08
-2.10839e-08
8.20541e-09
-7.35449e-08
1.37689e-08
-8.30192e-09
-2.66884e-08
8.62252e-08
-2.12459e-08
8.31262e-09
-7.32919e-08
2.4113e-08
-2.38474e-08
-3.57956e-08
2.25445e-08
2.39688e-08
-2.37267e-08
-3.63262e-08
2.25377e-08
-3.94046e-09
6.18005e-09
-1.3521e-08
-1.3416e-08
1.23319e-08
1.23655e-08
-2.68175e-08
3.19818e-08
3.58251e-08
4.797e-08
-2.53597e-09
-2.74073e-08
3.18578e-08
3.63704e-08
4.7829e-08
-2.42473e-09
8.6391e-08
8.19803e-09
-7.3517e-08
-2.1072e-08
1.37478e-08
-8.20066e-09
-2.6631e-08
8.61863e-08
8.30339e-09
-7.32585e-08
-2.12312e-08
1.37313e-08
-8.30631e-09
-2.66709e-08
-6.18873e-09
-8.39579e-09
-8.30155e-09
9.4578e-09
9.48782e-09
4.79473e-08
3.57979e-08
3.19495e-08
-2.51486e-09
-2.67889e-08
4.7799e-08
3.63403e-08
3.18208e-08
-2.39816e-09
-2.73757e-08
-2.3839e-08
2.40614e-08
-3.58133e-08
2.25213e-08
-2.37354e-08
2.3894e-08
-3.63585e-08
2.25238e-08
2.10441e-08
1.37666e-08
-2.66315e-08
8.6387e-08
-7.35203e-08
2.11901e-08
1.37869e-08
-2.66978e-08
8.62429e-08
-7.33166e-08
3.12316e-08
3.92727e-09
3.8963e-09
-5.3319e-09
-5.40326e-09
-2.832e-08
-3.78262e-09
-1.01546e-08
-2.70699e-09
1.66442e-08
-3.47422e-09
-1.01697e-08
-3.01092e-09
1.66549e-08
-2.09705e-09
-2.21029e-09
2.82821e-08
1.0402e-08
-1.66294e-08
1.03699e-08
-1.66434e-08
2.50594e-08
2.22432e-09
-3.66419e-08
1.70897e-08
2.0971e-09
-9.82863e-09
2.69016e-08
-6.14781e-09
-1.71201e-08
2.45413e-08
1.98237e-08
-2.38641e-08
2.40943e-08
2.67217e-08
2.25511e-08
2.34878e-08
4.08702e-08
-1.03857e-08
-2.20311e-08
2.19739e-08
2.70913e-09
1.7094e-08
1.37851e-08
2.23409e-08
5.33617e-09
-1.7155e-08
9.89933e-09
2.512e-08
2.13822e-09
-3.68155e-08
1.72381e-08
2.17056e-09
-9.85135e-09
2.73297e-08
-6.14993e-09
-1.75612e-08
2.44356e-08
1.98344e-08
-2.36999e-08
2.39875e-08
2.71937e-08
2.25181e-08
2.36688e-08
4.07863e-08
-1.0393e-08
-2.22072e-08
2.2117e-08
2.97185e-09
1.74575e-08
1.37183e-08
2.22796e-08
5.33657e-09
-1.73306e-08
9.81482e-09
3.66054e-08
-4.08186e-08
6.15144e-09
9.81953e-09
-2.51204e-08
-2.34702e-08
2.19906e-08
-2.22189e-09
-2.69159e-08
1.36987e-08
2.2319e-08
1.71499e-08
3.1913e-08
4.79439e-08
-2.50331e-09
-9.91651e-09
1.70826e-08
2.44626e-08
1.98109e-08
3.67192e-08
-4.07779e-08
6.07819e-09
9.81528e-09
-2.51255e-08
-2.36226e-08
2.20985e-08
-2.06705e-09
-2.72058e-08
1.3717e-08
2.22248e-08
1.73122e-08
3.19135e-08
4.788e-08
-2.45846e-09
-9.84974e-09
1.71661e-08
2.44358e-08
1.97741e-08
3.74573e-09
3.48457e-09
-3.12827e-08
1.01745e-08
-3.90556e-09
-1.66547e-08
1.0187e-08
-3.91221e-09
-1.66678e-08
-2.84278e-08
5.21821e-09
-6.23177e-08
3.8246e-09
9.16631e-08
-3.83882e-08
2.86495e-09
-1.97028e-09
-1.27235e-10
4.55329e-08
3.73271e-08
-2.88616e-08
1.70587e-08
-3.77777e-08
2.22281e-08
1.861e-08
2.14195e-08
-2.21601e-08
-1.42857e-10
-4.63864e-08
7.02679e-09
3.83834e-08
-4.55472e-08
-1.30665e-10
4.84611e-08
-2.2238e-08
-2.98406e-08
-5.4933e-09
-7.54091e-09
2.00501e-08
-7.01591e-09
-1.62013e-08
3.18729e-08
-2.73357e-08
2.87916e-08
-1.04165e-07
-4.84481e-08
1.19434e-08
-3.59104e-08
3.59096e-08
-1.70491e-08
-1.17635e-08
-9.1663e-08
-2.0043e-08
7.54353e-09
1.0417e-07
5.49287e-09
-2.88062e-08
-1.1752e-08
3.59289e-08
-1.47786e-07
9.11525e-08
2.00631e-08
1.19481e-08
-2.84801e-09
-3.73373e-08
-5.2188e-09
4.63121e-08
9.95304e-09
-1.26336e-10
-4.9623e-08
1.97665e-09
6.23092e-08
-1.13156e-10
-4.55411e-08
2.88634e-08
-3.80977e-09
-2.98615e-08
-2.22446e-08
-1.06483e-10
-3.78079e-08
-3.83824e-08
5.20113e-09
-6.20952e-08
3.76803e-09
9.15262e-08
-3.84001e-08
2.63244e-09
-1.9589e-09
4.5537e-08
3.74006e-08
-2.88911e-08
1.68453e-08
-3.78845e-08
2.22202e-08
1.86358e-08
2.11446e-08
-2.21698e-08
-4.64188e-08
6.84065e-09
3.83935e-08
-4.5549e-08
4.82078e-08
-2.22659e-08
-2.99204e-08
-5.63114e-09
-7.54982e-09
2.00304e-08
-6.84944e-09
-1.60352e-08
3.19317e-08
2.66288e-08
-2.74851e-08
2.88936e-08
-1.04014e-07
-4.82239e-08
1.18535e-08
-3.59893e-08
3.5971e-08
-1.68619e-08
-1.18819e-08
-9.15341e-08
-2.00302e-08
7.54693e-09
1.0401e-07
5.65108e-09
-2.88705e-08
-1.18821e-08
3.59243e-08
-1.47465e-07
7.32633e-08
9.11046e-08
2.00386e-08
1.18534e-08
-2.64876e-09
-3.73934e-08
-5.20741e-09
4.63355e-08
9.71331e-09
-4.96537e-08
1.96873e-09
6.21102e-08
-4.55497e-08
2.89172e-08
-3.76477e-09
-2.99252e-08
-2.2285e-08
-3.78907e-08
-3.83961e-08
2.10775e-08
1.37473e-08
8.61464e-08
3.13097e-08
4.04951e-09
3.81948e-09
-5.33327e-09
-5.46861e-09
-2.83768e-08
-3.62817e-09
-1.01728e-08
-2.86114e-09
1.66621e-08
-3.66119e-09
-1.01922e-08
-2.82316e-09
1.66766e-08
-2.14999e-09
-2.19135e-09
2.83617e-08
1.05243e-08
-1.66476e-08
1.029e-08
-1.66628e-08
2.18125e-09
2.51941e-08
-3.66589e-08
1.71326e-08
2.15422e-09
-1.00033e-08
2.69093e-08
-6.13689e-09
2.43549e-08
1.981e-08
-1.71164e-08
2.39573e-08
-2.38777e-08
2.68161e-08
2.2648e-08
2.35366e-08
4.06882e-08
-1.05185e-08
-2.1989e-08
1.71028e-08
1.36222e-08
2.23229e-08
2.19943e-08
2.85866e-09
5.33675e-09
9.69514e-09
-1.71395e-08
2.51853e-08
2.08009e-09
-3.68351e-08
1.72937e-08
2.19177e-09
-9.91572e-09
2.73369e-08
-6.03216e-09
2.43341e-08
1.97419e-08
-1.75151e-08
-2.38145e-08
2.39211e-08
2.72231e-08
-1.36265e-08
2.2526e-08
2.36663e-08
4.07918e-08
-1.02891e-08
-2.2215e-08
2.22232e-08
2.8139e-09
1.75084e-08
1.36162e-08
2.22135e-08
5.46697e-09
9.75547e-09
-1.72979e-08
6.14311e-09
3.66468e-08
-4.06879e-08
9.6973e-09
-2.51937e-08
-2.35428e-08
2.20005e-08
-2.68876e-08
-2.19308e-09
2.23396e-08
1.36317e-08
1.7067e-08
4.78209e-08
3.17121e-08
-2.35717e-09
1.98198e-08
2.43594e-08
-9.99544e-09
1.71054e-08
3.68263e-08
-4.07935e-08
6.03095e-09
9.76138e-09
-2.51821e-08
-2.36752e-08
2.22326e-08
-2.083e-09
-2.73256e-08
1.36292e-08
2.2217e-08
1.74855e-08
3.19553e-08
4.78669e-08
-8.63528e-08
-2.47949e-09
-9.90126e-09
1.72711e-08
2.43401e-08
1.97405e-08
3.61799e-09
3.65879e-09
-3.13076e-08
1.01709e-08
-4.05133e-09
-1.66381e-08
1.01901e-08
-3.8263e-09
-1.6653e-08
-2.83815e-08
2.12118e-08
-2.65592e-08
-7.34208e-08
5.18066e-09
3.79023e-09
-6.20736e-08
9.14705e-08
-3.83678e-08
3.73663e-08
-2.89338e-08
1.6897e-08
-3.78387e-08
2.22814e-08
2.72856e-09
-1.86221e-09
-2.98589e-12
4.54409e-08
2.12196e-08
1.86238e-08
-2.2129e-08
3.54079e-11
-4.63715e-08
6.88265e-09
3.83929e-08
4.82519e-08
-2.23188e-08
-2.9857e-08
-4.54065e-08
9.44961e-11
-5.58859e-09
-7.57045e-09
2.00653e-08
-6.90626e-09
-1.60936e-08
3.21284e-08
-2.75199e-08
2.90819e-08
-1.03985e-07
-4.82593e-08
1.1905e-08
-3.62258e-08
3.61746e-08
-1.69174e-08
-1.18575e-08
-9.14758e-08
-2.00793e-08
7.56022e-09
1.03976e-07
5.63153e-09
-2.90286e-08
-1.18984e-08
3.61058e-08
-1.47489e-07
9.11237e-08
2.00744e-08
1.18842e-08
-3.73289e-08
-2.76169e-09
-5.18343e-09
9.79923e-09
4.62707e-08
1.49392e-11
-4.95802e-08
2.89616e-08
-3.80212e-09
-2.98381e-08
-2.23461e-08
1.86221e-09
6.20884e-08
7.57609e-11
-4.54159e-08
-3.78043e-08
-3.51885e-11
-3.8373e-08
5.1636e-09
-6.22507e-08
3.79798e-09
9.15863e-08
-3.82971e-08
2.75017e-09
-1.85197e-09
4.5412e-08
3.73612e-08
-2.87947e-08
1.69324e-08
-3.78221e-08
2.21591e-08
1.86417e-08
2.12831e-08
-2.20706e-08
-4.63883e-08
6.93866e-09
3.83363e-08
-4.53666e-08
4.83072e-08
-2.21565e-08
-2.98643e-08
-5.5749e-09
-7.53672e-09
2.00288e-08
-6.91722e-09
-1.61194e-08
3.19129e-08
2.66814e-08
-2.74609e-08
2.87759e-08
-1.04069e-07
-4.83202e-08
1.18852e-08
-3.58351e-08
3.58703e-08
-1.69427e-08
-1.1846e-08
-9.15886e-08
-2.00175e-08
7.54501e-09
1.0407e-07
5.57105e-09
-2.88089e-08
-1.18061e-08
3.58729e-08
-1.47533e-07
7.32876e-08
9.11142e-08
2.00547e-08
1.19056e-08
-2.72676e-09
-3.73405e-08
-5.14709e-09
4.62876e-08
9.82876e-09
-4.96076e-08
1.84095e-09
6.22426e-08
-4.53746e-08
2.87768e-08
-3.80184e-09
-2.9869e-08
-2.21454e-08
-3.78341e-08
-3.8295e-08
5.22027e-09
3.79844e-09
-6.20943e-08
9.15005e-08
-3.84249e-08
3.7353e-08
-2.90192e-08
1.69011e-08
-3.78325e-08
2.23795e-08
2.73723e-09
-1.94206e-09
-2.87143e-11
4.55363e-08
2.12272e-08
1.86091e-08
-2.22092e-08
4.67517e-11
-4.63831e-08
6.87577e-09
3.84347e-08
4.82727e-08
-2.2395e-08
-2.98713e-08
-4.55225e-08
9.51604e-11
-5.64007e-09
-7.5892e-09
2.01019e-08
-6.87259e-09
-1.60202e-08
3.22481e-08
-2.75315e-08
2.91408e-08
-1.04011e-07
-4.82738e-08
1.18661e-08
-3.62839e-08
3.6282e-08
-1.69039e-08
-1.18974e-08
-9.15019e-08
-2.00987e-08
7.58646e-09
1.04016e-07
5.64851e-09
-2.91395e-08
-1.18975e-08
3.62675e-08
-1.47561e-07
9.11296e-08
2.01108e-08
1.18697e-08
-3.73382e-08
-2.73812e-09
-5.22123e-09
9.78434e-09
4.6289e-08
3.24634e-11
-4.96025e-08
2.90216e-08
-3.79502e-09
-2.98744e-08
-2.2399e-08
1.94203e-09
6.20962e-08
9.54785e-11
-4.55167e-08
-3.78312e-08
-2.95469e-11
-3.8422e-08
5.16026e-09
-6.22856e-08
3.79921e-09
9.16455e-08
-3.83194e-08
2.71485e-09
-1.91699e-09
4.54904e-08
3.736e-08
-2.88115e-08
1.69614e-08
-3.78342e-08
2.2175e-08
1.86332e-08
2.13178e-08
-2.21394e-08
-4.63996e-08
6.90738e-09
3.83278e-08
-4.54742e-08
4.83757e-08
-2.21943e-08
-2.98759e-08
-5.57289e-09
-7.52446e-09
2.00015e-08
-6.9041e-09
-1.60978e-08
2.65844e-08
-2.73806e-08
3.18417e-08
2.87578e-08
-1.04121e-07
-4.83765e-08
1.1902e-08
-3.58658e-08
3.58623e-08
-1.69611e-08
-1.18142e-08
-9.16469e-08
-1.99988e-08
7.52229e-09
1.04125e-07
5.5831e-09
-2.8754e-08
-1.18113e-08
1.6101e-08
3.58426e-08
2.00129e-08
1.19072e-08
1.47701e-07
-2.71501e-09
-3.73474e-08
-5.16109e-09
4.63032e-08
9.84946e-09
-4.9621e-08
1.91552e-09
6.22892e-08
-4.54691e-08
2.88163e-08
-3.79492e-09
-2.98813e-08
-2.21992e-08
-3.78369e-08
-3.83137e-08
2.11207e-08
1.37766e-08
8.61736e-08
4.01121e-09
3.84619e-09
-5.34631e-09
-5.43548e-09
-2.83793e-08
3.13037e-08
1.04901e-08
-1.6661e-08
1.01821e-08
1.02985e-08
-1.66316e-08
1.01792e-08
2.1624e-09
2.51697e-08
-3.66718e-08
1.71635e-08
2.15094e-09
-9.97483e-09
2.69261e-08
-6.1251e-09
2.43502e-08
1.977e-08
-1.70977e-08
2.39551e-08
-2.38074e-08
2.68772e-08
2.25738e-08
2.35671e-08
4.07141e-08
-1.04911e-08
-2.19831e-08
1.71404e-08
1.36262e-08
2.22769e-08
2.20503e-08
2.87913e-09
5.32444e-09
9.71285e-09
-1.712e-08
2.51383e-08
2.09801e-09
-3.67976e-08
1.72692e-08
2.1788e-09
-9.88664e-09
2.7248e-08
-6.03142e-09
2.43655e-08
1.97378e-08
-1.7429e-08
-2.37905e-08
2.39593e-08
2.7145e-08
-1.36868e-08
2.25139e-08
2.36563e-08
4.08367e-08
-1.02644e-08
-2.21937e-08
2.2201e-08
2.80321e-09
1.74299e-08
1.3649e-08
2.22265e-08
5.4615e-09
9.79416e-09
-1.7248e-08
6.12476e-09
-4.07117e-08
9.73409e-09
3.66701e-08
-2.69241e-08
2.23119e-08
1.36974e-08
1.70881e-08
-2.17626e-09
4.78389e-08
3.17621e-08
-2.4046e-09
1.9788e-08
2.43921e-08
2.35907e-08
-4.07934e-08
6.05768e-09
9.77473e-09
3.67947e-08
3.19492e-08
4.78794e-08
-8.63423e-08
3.61479e-08
-2.48916e-09
2.36553e-08
2.43714e-08
2.72418e-08
1.97538e-08
3.6029e-09
3.6455e-09
-3.12979e-08
1.01789e-08
-4.03836e-09
-1.66317e-08
1.01829e-08
-3.79741e-09
-1.66499e-08
-2.83478e-08
2.1149e-08
-2.65876e-08
8.24987e-09
-7.34432e-08
-5.61784e-09
-7.57453e-09
-6.89266e-09
2.0085e-08
-1.60582e-08
-2.749e-08
3.21366e-08
2.90436e-08
-1.0403e-07
-4.83265e-08
1.18804e-08
-3.61758e-08
-1.69447e-08
-1.186e-08
3.61721e-08
-9.15379e-08
-2.00667e-08
-3.72976e-08
-2.76762e-09
-5.2015e-09
3.8374e-08
9.84884e-09
4.62567e-08
-6.0847e-11
-4.95551e-08
2.22125e-08
2.89673e-08
-3.83056e-09
-2.98279e-08
-2.23419e-08
1.89764e-09
6.22029e-08
-6.92227e-11
-4.54361e-08
-3.77794e-08
2.23534e-08
-7.08906e-11
4.54575e-08
-3.83671e-08
-5.70999e-09
-7.57394e-09
-6.77411e-09
2.0058e-08
-1.59464e-08
2.659e-08
-2.75828e-08
3.21329e-08
2.90749e-08
-1.0395e-07
-4.81932e-08
1.18524e-08
-3.61664e-08
-1.68361e-08
-1.19238e-08
3.61785e-08
-9.14679e-08
-2.00557e-08
-3.73431e-08
-2.63176e-09
-5.17859e-09
3.83793e-08
9.72829e-09
4.62722e-08
-4.95686e-08
2.22096e-08
2.89802e-08
-3.79808e-09
-2.98578e-08
-2.23355e-08
1.88316e-09
6.20821e-08
-4.54326e-08
-3.78243e-08
2.23535e-08
4.54528e-08
-3.83625e-08
2.13213e-09
2.51034e-08
-3.64988e-08
2.15157e-09
-9.88769e-09
1.69993e-08
2.67766e-08
-6.05132e-09
2.4433e-08
1.97377e-08
-1.69832e-08
2.40393e-08
-2.38875e-08
-1.37188e-08
2.25695e-08
2.6659e-08
2.34227e-08
4.07862e-08
-1.03798e-08
-2.19166e-08
1.37103e-08
2.22583e-08
1.69795e-08
2.71658e-09
2.19219e-08
5.43766e-09
9.79961e-09
-1.70012e-08
2.12864e-09
2.52175e-08
-3.66646e-08
2.17745e-09
-1.00109e-08
1.71518e-08
2.71915e-08
-6.11369e-09
2.42575e-08
1.9797e-08
-1.73781e-08
2.38638e-08
-2.38071e-08
-1.36904e-08
2.26027e-08
2.71105e-08
2.35794e-08
4.06611e-08
-1.04207e-08
-2.20533e-08
1.35406e-08
2.22633e-08
1.73801e-08
2.93527e-09
2.20545e-08
5.38611e-09
9.64892e-09
-1.71522e-08
3.73923e-09
3.5219e-09
-3.11529e-08
2.82208e-08
1.01387e-08
-3.92757e-09
-1.65909e-08
1.01464e-08
-3.96626e-09
-1.66008e-08
1.65944e-08
1.66035e-08
-2.8223e-08
2.10309e-08
2.11418e-08
-2.10889e-08
8.64434e-08
-7.35522e-08
1.37612e-08
-2.66447e-08
-2.12479e-08
8.6251e-08
-7.3305e-08
1.37485e-08
-2.66838e-08
3.73607e-09
3.50692e-09
-3.14342e-08
2.85029e-08
-2.1375e-09
-2.17414e-09
1.02205e-08
-3.89665e-09
1.03641e-08
-1.6688e-08
1.02307e-08
-3.92654e-09
1.03965e-08
-1.67007e-08
1.66916e-08
-2.73505e-09
1.67052e-08
-2.96753e-09
-5.39651e-09
-5.36039e-09
-2.85004e-08
3.67304e-08
-4.08894e-08
6.11718e-09
5.35129e-09
-1.72109e-08
9.9014e-09
-2.21115e-09
-2.69456e-08
1.38153e-08
2.23343e-08
-2.50471e-08
-2.35517e-08
2.72034e-09
3.19789e-08
4.80034e-08
-2.68127e-08
-2.52192e-09
2.11253e-09
-9.79548e-09
-1.03726e-08
-2.20897e-08
-1.71579e-08
2.45368e-08
1.97961e-08
3.69251e-08
-4.07884e-08
6.14841e-09
5.32449e-09
-1.73936e-08
9.784e-09
-2.16895e-09
-2.74207e-08
1.36949e-08
2.23023e-08
-2.51399e-08
-2.37538e-08
2.95979e-09
3.18628e-08
4.78738e-08
-2.73962e-08
-2.41552e-09
2.15568e-09
-9.87007e-09
-1.0401e-08
-2.22785e-08
-1.7621e-08
2.43961e-08
1.98263e-08
3.13884e-08
3.88246e-09
3.9078e-09
-3.73283e-09
-1.02015e-08
-3.49594e-09
-1.0212e-08
2.50819e-08
-3.67596e-08
2.16435e-09
-9.83507e-09
2.35746e-08
4.08541e-08
-2.20829e-08
-2.38317e-08
2.40846e-08
2.25207e-08
-6.06634e-09
2.69691e-08
-1.71681e-08
2.44854e-08
1.975e-08
-1.72169e-08
9.84862e-09
1.3774e-08
2.22861e-08
2.51864e-08
-3.69602e-08
2.13709e-09
-9.93095e-09
2.37835e-08
4.07452e-08
-2.22744e-08
-2.37238e-08
2.39241e-08
2.25225e-08
-6.10773e-09
2.74557e-08
-1.76355e-08
2.43299e-08
1.97867e-08
-1.74007e-08
9.71755e-09
1.36314e-08
2.22645e-08
2.10777e-08
1.3743e-08
-2.66227e-08
8.64052e-08
-7.35281e-08
2.1235e-08
1.37262e-08
-2.66579e-08
8.62047e-08
-7.3276e-08
3.14141e-08
3.90349e-09
3.93492e-09
-5.40765e-09
-5.36963e-09
-2.84753e-08
-3.74034e-09
-1.02087e-08
-2.73897e-09
-3.51416e-09
-1.02181e-08
-2.9685e-09
-2.15317e-09
-2.18774e-09
1.0366e-08
-1.66712e-08
1.04007e-08
-1.66838e-08
2.51058e-08
2.14186e-09
-3.67268e-08
1.72016e-08
2.15048e-09
-9.873e-09
2.69567e-08
-6.06112e-09
2.44565e-08
-1.71501e-08
1.97453e-08
-2.38536e-08
2.40557e-08
2.6803e-08
2.25359e-08
2.35386e-08
4.08308e-08
-1.03716e-08
-2.20483e-08
2.20596e-08
2.73119e-09
1.71607e-08
1.37309e-08
2.22625e-08
5.40678e-09
9.82532e-09
-1.71893e-08
2.52155e-08
2.12096e-09
-3.69271e-08
1.73848e-08
2.18445e-09
-9.97867e-09
2.74421e-08
-6.10721e-09
2.42926e-08
-1.76153e-08
1.97869e-08
-2.37515e-08
2.38865e-08
2.73889e-08
2.25426e-08
2.37464e-08
4.0718e-08
-1.04046e-08
-2.2239e-08
2.22498e-08
2.96064e-09
1.76267e-08
1.35766e-08
2.22463e-08
5.36761e-09
9.68813e-09
-1.73721e-08
3.67459e-08
-4.0838e-08
6.05709e-09
9.82894e-09
-2.51077e-08
-2.35531e-08
-2.13766e-09
-2.69682e-08
1.37397e-08
2.22594e-08
3.19654e-08
4.79548e-08
-2.52546e-09
-9.86953e-09
2.44634e-08
1.97409e-08
3.69469e-08
-4.07269e-08
6.10082e-09
9.69439e-09
-2.52168e-08
-2.37616e-08
-2.11514e-09
-2.74554e-08
1.35885e-08
2.22405e-08
3.18381e-08
4.78106e-08
-2.41351e-09
-9.97345e-09
2.43033e-08
1.97794e-08
3.73757e-09
3.51095e-09
-3.13889e-08
1.02025e-08
-3.90832e-09
-1.66657e-08
1.02123e-08
-3.93873e-09
-1.66781e-08
-2.84615e-08
-4.22803e-09
-4.28915e-09
-2.71655e-08
1.60027e-08
-8.45271e-09
-8.45449e-09
3.86955e-09
1.525e-08
-4.30281e-09
-1.03422e-08
1.55567e-08
-4.3219e-09
-1.06421e-08
1.03129e-08
1.05637e-08
-1.60761e-08
-4.38007e-09
-4.4076e-09
-2.7164e-08
1.60327e-08
-8.31746e-09
-8.29748e-09
3.84023e-09
1.52576e-08
-4.17821e-09
-1.03236e-08
1.55037e-08
-4.15134e-09
-1.05677e-08
1.03126e-08
1.05586e-08
-1.6043e-08
-4.36805e-09
-4.37626e-09
-2.71415e-08
1.60243e-08
-8.33e-09
-8.31999e-09
3.80389e-09
1.52565e-08
-4.19737e-09
-1.03013e-08
1.54313e-08
-4.1669e-09
-1.04957e-08
1.03224e-08
1.04959e-08
-1.59987e-08
-4.41458e-09
-4.36735e-09
-2.70047e-08
1.58881e-08
-8.36751e-09
-8.25318e-09
3.76708e-09
1.51078e-08
-4.12209e-09
-1.01846e-08
1.54188e-08
-4.21267e-09
-1.047e-08
1.0182e-08
1.04707e-08
-1.5891e-08
2.72409e-08
4.25925e-09
4.31373e-09
-1.61284e-08
4.24869e-09
-1.5283e-08
6.02076e-09
4.25215e-09
-1.56174e-08
5.9916e-09
-1.35799e-08
-1.34915e-08
-3.9291e-09
1.24089e-08
1.24294e-08
-1.03721e-08
1.03051e-08
-1.06871e-08
1.0288e-08
-4.37959e-09
-4.35027e-09
-2.72523e-08
1.61305e-08
-8.38574e-09
-8.28811e-09
3.9396e-09
9.44289e-09
9.47576e-09
1.52995e-08
-4.15251e-09
1.01893e-08
-1.03686e-08
1.56418e-08
-4.22686e-09
1.01891e-08
-1.06868e-08
1.03779e-08
5.88718e-09
1.06964e-08
5.88357e-09
-1.61182e-08
1.97029e-08
1.9347e-08
-1.62777e-07
-1.73914e-07
6.72628e-11
3.95963e-10
1.74071e-07
-1.73466e-07
3.5482e-10
1.55796e-10
1.73585e-07
3.77312e-11
2.8995e-10
-1.73711e-07
3.23973e-10
4.02354e-10
-1.73558e-07
1.72181e-07
1.0485e-10
1.64342e-10
-1.72088e-07
2.14937e-10
5.97995e-11
1.72328e-07
1.89662e-08
1.91963e-08
-1.63272e-07
-1.74143e-07
-2.32684e-12
1.74232e-07
-1.73604e-07
-6.71703e-11
5.93879e-11
1.7365e-07
4.6248e-12
-1.74085e-07
1.27e-11
9.88759e-11
-1.7363e-07
1.72221e-07
1.18595e-10
-1.72218e-07
3.781e-11
1.72329e-07
-1.73946e-07
1.33193e-10
1.73947e-07
3.15536e-11
3.00939e-10
1.73559e-07
-1.73608e-07
5.4864e-11
-1.73698e-07
-1.88315e-08
1.72188e-07
-6.86554e-11
-1.7193e-07
3.0051e-11
1.50001e-10
1.72262e-07
-1.73523e-07
-1.1221e-10
1.73581e-07
3.82688e-11
1.73322e-07
-1.73217e-07
3.86656e-11
-1.73491e-07
-1.91004e-08
1.7197e-07
-1.71885e-07
3.27453e-12
1.72084e-07
2.71024e-08
4.2992e-09
4.23591e-09
-1.34987e-08
-1.35439e-08
4.23346e-09
-1.52455e-08
1.03389e-08
4.38701e-09
-1.54677e-08
1.04599e-08
1.59566e-08
8.74064e-09
2.66342e-08
1.56189e-08
-2.7393e-08
-7.84852e-09
-2.88811e-08
-2.17882e-08
-1.316e-08
1.95559e-08
-1.45448e-08
-7.3094e-09
-7.69161e-11
7.27713e-09
-5.59175e-09
-4.16392e-08
-1.93722e-08
-1.05795e-10
-2.44376e-08
7.91781e-09
-1.10561e-08
-1.95303e-08
-7.24481e-09
-5.79411e-11
-2.75175e-08
4.37039e-09
-1.33729e-08
9.54874e-09
2.44799e-08
1.95502e-08
3.27853e-08
-9.89436e-09
1.1872e-08
1.10078e-08
1.24797e-08
2.7437e-08
4.86513e-09
1.10845e-08
-1.78534e-08
9.91265e-09
1.78636e-08
1.3188e-08
2.74318e-08
-9.51988e-09
-3.27561e-08
1.34358e-08
-4.85319e-09
-4.37134e-09
-2.74729e-08
1.7924e-08
-1.96117e-08
2.74843e-08
1.00148e-08
4.73679e-08
1.35705e-08
9.65562e-09
2.89072e-08
1.45947e-08
-8.69844e-09
-6.53015e-09
-4.2051e-08
-8.50006e-11
2.17732e-08
-2.66477e-08
-1.95274e-08
7.29123e-09
-1.56644e-08
-1.44359e-11
-7.23621e-09
-2.94726e-11
-7.82604e-09
8.6646e-09
2.66973e-08
1.57262e-08
-2.74752e-08
-7.8131e-09
-2.89615e-08
-2.17725e-08
-1.33615e-08
1.94888e-08
-1.46871e-08
-7.26949e-09
7.21255e-09
-5.79275e-09
-4.16711e-08
-1.93726e-08
-2.45497e-08
7.7839e-09
-1.12497e-08
-1.95387e-08
-7.22229e-09
4.46818e-09
-2.75294e-08
-1.3361e-08
9.5068e-09
2.45173e-08
1.95498e-08
3.27928e-08
-9.89523e-09
1.11278e-08
1.17507e-08
1.25114e-08
2.75029e-08
4.76946e-09
1.12282e-08
-1.78996e-08
1.78778e-08
1.33391e-08
9.87872e-09
2.74457e-08
-9.52611e-09
1.33304e-08
-4.77591e-09
-3.28115e-08
-4.45838e-09
-2.74678e-08
1.78245e-08
2.75523e-08
-1.952e-08
9.83991e-09
1.37622e-08
4.73034e-08
9.46498e-09
2.89765e-08
1.46455e-08
-8.68776e-09
-6.69221e-09
-4.20822e-08
2.1806e-08
-2.67051e-08
-1.95623e-08
7.27982e-09
-1.5688e-08
-7.23029e-09
-7.82852e-09
4.18982e-09
2.71467e-08
4.15489e-09
-1.34261e-08
-1.34004e-08
-1.52384e-08
4.35867e-09
1.02872e-08
4.39587e-09
-1.54887e-08
1.05395e-08
1.60045e-08
8.95511e-09
2.66195e-08
1.57079e-08
-2.74392e-08
-8.13904e-09
-2.89064e-08
-2.19435e-08
-1.32959e-08
1.96517e-08
-1.46667e-08
-7.41337e-09
4.54961e-11
7.3385e-09
-5.72348e-09
-4.16029e-08
-1.9424e-08
2.26552e-11
-2.45218e-08
8.04e-09
-1.11712e-08
-1.97333e-08
-7.38699e-09
3.81144e-11
-2.75233e-08
4.4303e-09
-1.39274e-08
1.00285e-08
2.45249e-08
2.01855e-08
3.27798e-08
-1.04906e-08
1.17425e-08
1.10588e-08
1.29489e-08
2.7887e-08
4.83578e-09
1.11701e-08
-1.82987e-08
1.04001e-08
1.82301e-08
1.32885e-08
2.74471e-08
-1.01066e-08
-3.27495e-08
1.38085e-08
-4.81804e-09
-4.45515e-09
-2.77912e-08
1.80997e-08
-2.00452e-08
2.74918e-08
1.02256e-08
4.73222e-08
1.36662e-08
9.86369e-09
2.88867e-08
1.46568e-08
-9.02807e-09
-6.63961e-09
-4.20015e-08
2.19292e-11
2.2002e-08
-2.66061e-08
-1.97781e-08
7.45287e-09
-1.57019e-08
3.10418e-11
-7.41422e-09
3.79825e-11
-8.18736e-09
8.65708e-09
1.5642e-08
2.66396e-08
-2.74096e-08
-7.79285e-09
-1.45902e-08
-7.28805e-09
7.23966e-09
-2.88945e-08
-2.17103e-08
-1.32771e-08
1.94565e-08
-4.16255e-08
-5.68704e-09
-1.93249e-08
-2.44828e-08
7.80065e-09
-7.24294e-09
-1.11643e-08
-1.94577e-08
4.45389e-09