/*--------------------------------*- C++ -*----------------------------------*\
| =========                 |                                                 |
| \\      /  F ield         | OpenFOAM: The Open Source CFD Toolbox           |
|  \\    /   O peration     | Version:  2206                                  |
|   \\  /    A nd           | Website:  www.openfoam.com                      |
|    \\/     M anipulation  |                                                 |
\*---------------------------------------------------------------------------*/
FoamFile
{
    version     2.0;
    format      ascii;
    arch        "LSB;label=32;scalar=64";
    class       volScalarField;
    location    "26.5";
    object      epsilon;
}
// * * * * * * * * * * * * * * * * * * * * * * * * * * * * * * * * * * * * * //

dimensions      [0 2 -3 0 0 0 0];

internalField   nonuniform List<scalar> 
28687
(
2.94251e-07
3.1982e-07
3.1983e-07
3.52461e-07
2.9425e-07
3.19823e-07
3.19829e-07
3.52476e-07
2.94251e-07
3.19827e-07
3.19833e-07
3.52483e-07
2.94253e-07
3.1983e-07
3.19836e-07
3.52491e-07
2.94249e-07
3.19831e-07
3.19837e-07
3.525e-07
2.94245e-07
3.19831e-07
3.19838e-07
3.52502e-07
2.9418e-07
3.19747e-07
3.1977e-07
3.52457e-07
2.94113e-07
3.19695e-07
3.19705e-07
3.52352e-07
2.9411e-07
3.19695e-07
3.19705e-07
3.52368e-07
2.9411e-07
3.19695e-07
3.19704e-07
3.52365e-07
2.9411e-07
3.19695e-07
3.19704e-07
3.52365e-07
2.9411e-07
3.19695e-07
3.19704e-07
3.52362e-07
2.9411e-07
3.19695e-07
3.19704e-07
3.52364e-07
2.9411e-07
3.19695e-07
3.19704e-07
3.52365e-07
2.9411e-07
3.19695e-07
3.19704e-07
3.52365e-07
2.9411e-07
3.19695e-07
3.19704e-07
3.52365e-07
2.9411e-07
3.19695e-07
3.19704e-07
3.52365e-07
2.9411e-07
3.19695e-07
3.19704e-07
3.52365e-07
3.19846e-07
3.52199e-07
3.19821e-07
3.52452e-07
3.52213e-07
3.19841e-07
3.19846e-07
3.1984e-07
3.19846e-07
3.52462e-07
3.52211e-07
3.19826e-07
3.19853e-07
3.19825e-07
3.19852e-07
3.19843e-07
3.19823e-07
3.19842e-07
3.52461e-07
3.52222e-07
3.19825e-07
3.19829e-07
3.19824e-07
3.52221e-07
3.5247e-07
3.5222e-07
3.19843e-07
3.19849e-07
3.19843e-07
3.19849e-07
3.5247e-07
3.52217e-07
3.19829e-07
3.19855e-07
3.19828e-07
3.19855e-07
3.19846e-07
3.19827e-07
3.19845e-07
3.5248e-07
3.52229e-07
3.19827e-07
3.19833e-07
3.19827e-07
3.52227e-07
3.52478e-07
3.52229e-07
3.19847e-07
3.19853e-07
3.19848e-07
3.19853e-07
3.52475e-07
3.52225e-07
3.19832e-07
3.19858e-07
3.19833e-07
3.19858e-07
3.19849e-07
3.1983e-07
3.19849e-07
3.52486e-07
3.52237e-07
3.19831e-07
3.19836e-07
3.19831e-07
3.52235e-07
3.52487e-07
3.52238e-07
3.19852e-07
3.19857e-07
3.19852e-07
3.19855e-07
3.52484e-07
3.52233e-07
3.19836e-07
3.19862e-07
3.19836e-07
3.19861e-07
3.19852e-07
3.19831e-07
3.19852e-07
3.52495e-07
3.52246e-07
3.19834e-07
3.19837e-07
3.19834e-07
3.52244e-07
3.52496e-07
3.5224e-07
3.19855e-07
3.19857e-07
3.19853e-07
3.19855e-07
3.52492e-07
3.52236e-07
3.19838e-07
3.19864e-07
3.19836e-07
3.19862e-07
3.19854e-07
3.19832e-07
3.19852e-07
3.52503e-07
3.52249e-07
3.19836e-07
3.19839e-07
3.19834e-07
3.52247e-07
3.52498e-07
3.52211e-07
3.19853e-07
3.19853e-07
3.19816e-07
3.19798e-07
3.52493e-07
3.52179e-07
3.19836e-07
3.19861e-07
3.19801e-07
3.19826e-07
3.19852e-07
3.19779e-07
3.19816e-07
3.52506e-07
3.52219e-07
3.19834e-07
3.19803e-07
3.19798e-07
3.52217e-07
3.52454e-07
3.52096e-07
3.19785e-07
3.19769e-07
3.19725e-07
3.19721e-07
3.52419e-07
3.52081e-07
3.19769e-07
3.19795e-07
3.19708e-07
3.19734e-07
3.19784e-07
3.19697e-07
3.19724e-07
3.52462e-07
3.52104e-07
3.19766e-07
3.1971e-07
3.19706e-07
3.52102e-07
3.52349e-07
3.52106e-07
3.19722e-07
3.19721e-07
3.19719e-07
3.1972e-07
3.52338e-07
3.52097e-07
3.19705e-07
3.19731e-07
3.19702e-07
3.19729e-07
3.19721e-07
3.19695e-07
3.19719e-07
3.52356e-07
3.52114e-07
3.19703e-07
3.19705e-07
3.19701e-07
3.52113e-07
3.52365e-07
3.52104e-07
3.1972e-07
3.19723e-07
3.19717e-07
3.1972e-07
3.52355e-07
3.52094e-07
3.19704e-07
3.19731e-07
3.19702e-07
3.19728e-07
3.19722e-07
3.19695e-07
3.19718e-07
3.52372e-07
3.52112e-07
3.19704e-07
3.19704e-07
3.197e-07
3.52111e-07
3.52362e-07
3.52102e-07
3.19718e-07
3.19721e-07
3.19716e-07
3.19719e-07
3.52352e-07
3.52095e-07
3.19703e-07
3.19729e-07
3.197e-07
3.19727e-07
3.1972e-07
3.19695e-07
3.19718e-07
3.52368e-07
3.5211e-07
3.19702e-07
3.19704e-07
3.197e-07
3.52109e-07
3.52361e-07
3.521e-07
3.19717e-07
3.19721e-07
3.19715e-07
3.19719e-07
3.52355e-07
3.52091e-07
3.19702e-07
3.19729e-07
3.197e-07
3.19727e-07
3.1972e-07
3.19695e-07
3.19718e-07
3.52369e-07
3.52109e-07
3.19702e-07
3.19704e-07
3.19701e-07
3.52107e-07
3.52358e-07
3.52103e-07
3.19717e-07
3.19721e-07
3.19715e-07
3.19719e-07
3.5235e-07
3.52093e-07
3.19701e-07
3.19729e-07
3.19699e-07
3.19727e-07
3.1972e-07
3.19695e-07
3.19718e-07
3.52366e-07
3.52111e-07
3.19704e-07
3.19704e-07
3.19703e-07
3.5211e-07
3.5236e-07
3.52103e-07
3.19716e-07
3.19721e-07
3.19714e-07
3.19719e-07
3.52351e-07
3.52095e-07
3.19701e-07
3.19729e-07
3.19699e-07
3.19727e-07
3.1972e-07
3.19695e-07
3.19718e-07
3.52367e-07
3.52112e-07
3.19705e-07
3.19704e-07
3.19703e-07
3.52111e-07
3.5236e-07
3.52103e-07
3.19716e-07
3.19721e-07
3.19714e-07
3.19719e-07
3.52352e-07
3.52096e-07
3.19701e-07
3.19729e-07
3.19699e-07
3.19727e-07
3.1972e-07
3.19695e-07
3.19718e-07
3.52368e-07
3.52112e-07
3.19705e-07
3.19704e-07
3.19702e-07
3.52111e-07
3.52361e-07
3.52103e-07
3.19716e-07
3.19721e-07
3.19714e-07
3.19719e-07
3.52353e-07
3.52096e-07
3.19701e-07
3.19729e-07
3.19699e-07
3.19727e-07
3.1972e-07
3.19695e-07
3.19718e-07
3.52369e-07
3.52113e-07
3.19704e-07
3.19704e-07
3.19702e-07
3.52111e-07
3.5236e-07
3.52102e-07
3.19716e-07
3.19721e-07
3.19714e-07
3.19719e-07
3.52354e-07
3.52096e-07
3.19701e-07
3.19729e-07
3.19699e-07
3.19727e-07
3.1972e-07
3.19695e-07
3.19718e-07
3.52369e-07
3.52113e-07
3.19704e-07
3.19704e-07
3.19702e-07
3.52111e-07
3.5236e-07
3.52103e-07
3.19717e-07
3.19721e-07
3.19714e-07
3.19719e-07
3.52354e-07
3.52095e-07
3.19701e-07
3.19729e-07
3.19699e-07
3.19727e-07
3.1972e-07
3.19695e-07
3.19718e-07
3.52369e-07
3.52113e-07
3.19704e-07
3.19704e-07
3.19702e-07
3.52111e-07
3.5236e-07
3.19716e-07
3.19721e-07
3.52353e-07
3.197e-07
3.19728e-07
3.19719e-07
3.52369e-07
3.19703e-07
1.73901e-06
8.86017e-06
1.73944e-06
8.8598e-06
2.2829e-05
2.28271e-05
1.73889e-06
8.8614e-06
1.73927e-06
8.86092e-06
2.94254e-07
2.94255e-07
2.94253e-07
2.9425e-07
2.94253e-07
2.94254e-07
2.94252e-07
5.67764e-07
1.3846e-06
3.02806e-07
3.19824e-07
5.67909e-07
1.38389e-06
3.02806e-07
2.28303e-05
2.28282e-05
5.67759e-07
3.02807e-07
1.38446e-06
3.1983e-07
5.67904e-07
3.02807e-07
1.38383e-06
2.9551e-06
2.95587e-06
3.52217e-07
2.95482e-06
2.95556e-06
1.73914e-06
8.85979e-06
1.73966e-06
8.85927e-06
2.28258e-05
2.28252e-05
1.73902e-06
8.86095e-06
1.73949e-06
8.86037e-06
2.94253e-07
2.94254e-07
2.94252e-07
2.94251e-07
2.94251e-07
2.94253e-07
2.9425e-07
5.67792e-07
1.38473e-06
3.02804e-07
3.19827e-07
5.67933e-07
1.38399e-06
3.02807e-07
2.28268e-05
2.28257e-05
5.67787e-07
3.02804e-07
1.38463e-06
3.19832e-07
5.67929e-07
3.02806e-07
1.38393e-06
2.95552e-06
2.95625e-06
3.52224e-07
2.95504e-06
2.95577e-06
1.73917e-06
8.8595e-06
1.73972e-06
8.85905e-06
2.28249e-05
2.28247e-05
1.73904e-06
8.86062e-06
1.73954e-06
8.86015e-06
2.94254e-07
2.94256e-07
2.94253e-07
2.94253e-07
2.94252e-07
2.94253e-07
2.94252e-07
5.67814e-07
1.38478e-06
3.02806e-07
3.1983e-07
5.67959e-07
1.38403e-06
3.02809e-07
2.28254e-05
2.28249e-05
5.67808e-07
3.02805e-07
1.38469e-06
3.19836e-07
5.67954e-07
3.02808e-07
1.38398e-06
2.95565e-06
2.95637e-06
3.5223e-07
2.95519e-06
2.95592e-06
1.73916e-06
8.85938e-06
1.73971e-06
8.85899e-06
2.2825e-05
2.28252e-05
1.73903e-06
8.86053e-06
1.73952e-06
8.86011e-06
2.94254e-07
2.94254e-07
2.94252e-07
2.9425e-07
2.94251e-07
2.94253e-07
2.9425e-07
5.67829e-07
1.3848e-06
3.02808e-07
3.19833e-07
5.67975e-07
1.38404e-06
3.0281e-07
2.28253e-05
2.28251e-05
5.67823e-07
3.02806e-07
1.38472e-06
3.19839e-07
5.67969e-07
3.02809e-07
1.38399e-06
2.95582e-06
2.95654e-06
3.52239e-07
2.95534e-06
2.95607e-06
1.73917e-06
8.85941e-06
1.73971e-06
8.85908e-06
2.28259e-05
2.28263e-05
1.73903e-06
8.86058e-06
1.73952e-06
8.86023e-06
2.94251e-07
2.94253e-07
2.9425e-07
2.94246e-07
2.94247e-07
2.9425e-07
2.94246e-07
5.67839e-07
1.3848e-06
3.02805e-07
3.19833e-07
5.67988e-07
1.38406e-06
3.02805e-07
2.28259e-05
2.2826e-05
5.67832e-07
3.02807e-07
1.38472e-06
3.19839e-07
5.67983e-07
3.02808e-07
1.384e-06
2.9559e-06
2.95662e-06
3.52245e-07
2.95534e-06
2.95608e-06
1.73939e-06
8.85992e-06
1.73979e-06
8.85994e-06
2.28266e-05
2.28251e-05
1.73926e-06
8.86108e-06
1.7396e-06
8.86105e-06
2.94246e-07
2.94249e-07
2.94245e-07
2.94213e-07
2.94204e-07
2.94215e-07
2.94214e-07
5.6785e-07
1.38496e-06
3.02802e-07
3.19825e-07
5.67997e-07
1.38423e-06
3.02799e-07
2.2827e-05
2.28264e-05
5.67844e-07
3.02803e-07
1.38481e-06
3.19836e-07
5.6799e-07
3.02801e-07
1.38415e-06
2.95597e-06
2.9567e-06
3.52245e-07
2.95553e-06
2.95626e-06
1.73926e-06
8.8606e-06
1.73995e-06
8.86025e-06
2.28248e-05
2.2825e-05
1.73913e-06
8.86182e-06
1.73976e-06
8.86142e-06
2.94172e-07
2.94182e-07
2.94181e-07
2.94118e-07
2.94116e-07
2.94121e-07
2.94119e-07
5.67731e-07
1.3849e-06
3.02734e-07
3.19725e-07
5.67939e-07
1.38403e-06
3.02709e-07
2.2826e-05
2.28254e-05
5.67727e-07
3.02739e-07
1.38484e-06
3.19744e-07
5.67936e-07
3.02714e-07
1.38402e-06
2.95596e-06
2.95669e-06
3.52149e-07
2.95528e-06
2.95601e-06
1.73909e-06
8.86058e-06
1.73968e-06
8.86022e-06
2.28252e-05
2.2825e-05
1.73896e-06
8.86177e-06
1.73949e-06
8.86133e-06
2.94114e-07
2.94118e-07
2.94116e-07
2.9411e-07
2.94112e-07
2.94115e-07
2.94113e-07
5.67673e-07
1.38471e-06
3.02671e-07
3.19696e-07
5.67834e-07
1.38393e-06
3.02672e-07
2.28256e-05
2.28253e-05
5.6767e-07
3.02673e-07
1.38465e-06
3.19706e-07
5.67833e-07
3.02674e-07
1.38389e-06
2.95563e-06
2.95635e-06
3.52099e-07
2.95506e-06
2.95579e-06
1.73907e-06
8.86061e-06
1.73963e-06
8.86022e-06
2.28249e-05
2.28244e-05
1.73894e-06
8.86169e-06
1.73945e-06
8.86141e-06
2.94113e-07
2.94117e-07
2.94115e-07
2.9411e-07
2.94111e-07
2.94114e-07
2.94112e-07
5.67673e-07
1.38468e-06
3.02671e-07
3.19696e-07
5.67825e-07
1.38392e-06
3.02672e-07
2.28256e-05
2.28253e-05
5.67667e-07
3.02673e-07
1.38461e-06
3.19706e-07
5.67821e-07
3.02674e-07
1.38388e-06
2.95557e-06
2.95629e-06
3.52113e-07
2.95504e-06
2.95577e-06
1.73907e-06
8.86049e-06
1.73963e-06
8.86001e-06
2.28247e-05
2.28245e-05
1.73894e-06
8.8619e-06
1.73944e-06
8.86157e-06
2.94113e-07
2.94116e-07
2.94114e-07
2.9411e-07
2.94111e-07
2.94114e-07
2.94112e-07
5.67671e-07
1.38468e-06
3.0267e-07
3.19697e-07
5.67824e-07
1.38392e-06
3.02672e-07
2.28256e-05
2.28253e-05
5.67666e-07
3.02672e-07
1.38461e-06
3.19706e-07
5.6782e-07
3.02674e-07
1.38388e-06
2.95557e-06
2.95629e-06
3.52108e-07
2.95504e-06
2.95577e-06
1.73907e-06
8.86033e-06
1.73963e-06
8.85988e-06
2.28247e-05
2.28246e-05
1.73894e-06
8.86203e-06
1.73944e-06
8.86167e-06
2.94113e-07
2.94116e-07
2.94114e-07
2.9411e-07
2.94111e-07
2.94114e-07
2.94112e-07
5.6767e-07
1.38468e-06
3.0267e-07
3.19697e-07
5.67822e-07
1.38392e-06
3.02672e-07
2.28256e-05
2.28253e-05
5.67666e-07
3.02672e-07
1.38461e-06
3.19706e-07
5.67818e-07
3.02674e-07
1.38388e-06
2.95557e-06
2.95629e-06
3.52113e-07
2.95504e-06
2.95577e-06
1.73907e-06
8.86024e-06
1.73963e-06
8.85981e-06
2.28248e-05
2.28246e-05
1.73894e-06
8.86209e-06
1.73944e-06
8.86172e-06
2.94113e-07
2.94116e-07
2.94114e-07
2.9411e-07
2.94111e-07
2.94114e-07
2.94113e-07
5.67672e-07
1.38468e-06
3.0267e-07
3.19697e-07
5.67824e-07
1.38392e-06
3.02672e-07
2.28256e-05
2.28253e-05
5.67667e-07
3.02672e-07
1.38461e-06
3.19706e-07
5.6782e-07
3.02674e-07
1.38388e-06
2.95557e-06
2.95629e-06
3.52111e-07
2.95504e-06
2.95577e-06
1.73907e-06
8.86019e-06
1.73963e-06
8.85977e-06
2.28249e-05
2.28247e-05
1.73894e-06
8.86213e-06
1.73944e-06
8.86175e-06
2.94113e-07
2.94116e-07
2.94114e-07
2.9411e-07
2.94111e-07
2.94114e-07
2.94113e-07
5.67671e-07
1.38468e-06
3.0267e-07
3.19697e-07
5.67823e-07
1.38392e-06
3.02672e-07
2.28256e-05
2.28253e-05
5.67666e-07
3.02672e-07
1.38461e-06
3.19706e-07
5.67819e-07
3.02674e-07
1.38388e-06
2.95557e-06
2.95629e-06
3.5211e-07
2.95504e-06
2.95577e-06
1.73907e-06
8.86016e-06
1.73963e-06
8.85974e-06
2.28249e-05
2.28247e-05
1.73894e-06
8.86214e-06
1.73944e-06
8.86176e-06
2.94113e-07
2.94116e-07
2.94114e-07
2.9411e-07
2.94111e-07
2.94114e-07
2.94113e-07
5.67673e-07
1.38468e-06
3.0267e-07
3.19697e-07
5.67824e-07
1.38392e-06
3.02672e-07
2.28256e-05
2.28253e-05
5.67669e-07
3.02672e-07
1.38461e-06
3.19706e-07
5.67821e-07
3.02674e-07
1.38388e-06
2.95557e-06
2.95629e-06
3.5211e-07
2.95504e-06
2.95577e-06
1.73907e-06
8.86014e-06
1.73963e-06
8.85973e-06
2.28249e-05
2.28247e-05
1.73894e-06
8.86215e-06
1.73944e-06
8.86177e-06
2.94113e-07
2.94116e-07
2.94114e-07
2.9411e-07
2.94111e-07
2.94114e-07
2.94113e-07
5.67672e-07
1.38468e-06
3.0267e-07
3.19697e-07
5.67825e-07
1.38392e-06
3.02672e-07
2.28256e-05
2.28253e-05
5.67669e-07
3.02672e-07
1.38461e-06
3.19706e-07
5.67822e-07
3.02674e-07
1.38388e-06
2.95557e-06
2.95629e-06
3.5211e-07
2.95504e-06
2.95577e-06
1.73907e-06
8.86013e-06
1.73963e-06
8.85972e-06
2.28249e-05
2.28247e-05
1.73894e-06
8.86216e-06
1.73944e-06
8.86177e-06
2.94113e-07
2.94116e-07
2.94114e-07
2.9411e-07
2.94111e-07
2.94114e-07
2.94113e-07
5.6767e-07
1.38468e-06
3.0267e-07
3.19697e-07
5.67822e-07
1.38392e-06
3.02672e-07
2.28256e-05
2.28253e-05
5.67668e-07
3.02672e-07
1.38461e-06
3.19706e-07
5.67821e-07
3.02674e-07
1.38388e-06
2.95557e-06
2.95629e-06
3.5211e-07
2.95504e-06
2.95577e-06
1.73907e-06
8.86013e-06
1.73963e-06
8.85972e-06
2.28249e-05
2.28247e-05
1.73894e-06
8.86216e-06
1.73944e-06
8.86177e-06
2.94113e-07
2.94116e-07
2.94114e-07
2.9411e-07
2.94111e-07
2.94114e-07
2.94113e-07
5.67672e-07
1.38468e-06
3.0267e-07
3.19697e-07
5.67824e-07
1.38392e-06
3.02672e-07
2.28256e-05
2.28253e-05
5.6767e-07
3.02672e-07
1.38461e-06
3.19706e-07
5.67822e-07
3.02674e-07
1.38388e-06
2.95557e-06
2.95629e-06
3.5211e-07
2.95504e-06
2.95577e-06
1.73907e-06
8.86013e-06
1.73962e-06
8.85976e-06
2.28249e-05
2.28247e-05
1.73894e-06
8.86216e-06
1.73944e-06
8.8618e-06
2.94112e-07
2.94115e-07
2.94114e-07
5.6767e-07
1.38468e-06
3.0267e-07
3.19696e-07
5.67822e-07
1.38392e-06
3.02672e-07
2.28256e-05
2.28253e-05
5.67672e-07
3.02672e-07
1.38461e-06
3.19706e-07
5.67823e-07
3.02675e-07
1.38388e-06
2.95557e-06
2.95629e-06
3.5211e-07
2.95504e-06
2.95584e-06
8.86064e-06
1.38387e-06
2.28293e-05
2.95516e-06
2.95438e-06
2.28266e-05
1.3838e-06
8.86008e-06
2.2829e-05
2.28271e-05
2.28307e-05
2.2829e-05
2.95497e-06
2.95581e-06
3.5221e-07
2.95473e-06
2.95552e-06
2.28253e-05
2.28269e-05
2.28272e-05
2.28287e-05
3.52468e-07
2.95488e-06
2.95564e-06
2.95528e-06
2.95606e-06
1.73902e-06
8.86102e-06
1.73946e-06
8.86046e-06
5.67759e-07
1.3844e-06
3.02804e-07
3.19841e-07
5.67906e-07
1.38375e-06
3.02804e-07
5.67761e-07
1.38463e-06
3.02807e-07
3.19846e-07
5.67909e-07
1.38397e-06
3.02807e-07
1.73958e-06
8.85947e-06
8.86009e-06
1.73909e-06
1.73959e-06
8.86014e-06
8.86072e-06
1.73911e-06
5.67919e-07
3.1984e-07
1.38382e-06
3.02803e-07
1.38451e-06
3.02803e-07
5.67773e-07
5.67922e-07
3.19846e-07
1.38402e-06
3.02806e-07
1.38472e-06
3.02806e-07
5.67776e-07
2.95577e-06
2.95505e-06
3.52209e-07
2.95546e-06
2.95466e-06
2.28268e-05
2.28247e-05
2.28258e-05
2.2827e-05
3.52468e-07
2.95562e-06
2.95486e-06
2.95601e-06
2.9553e-06
2.28234e-05
2.28249e-05
5.67768e-07
1.38479e-06
3.02806e-07
3.19826e-07
5.67912e-07
1.38412e-06
3.02806e-07
1.73887e-06
8.86131e-06
1.73926e-06
8.86087e-06
5.67766e-07
3.02809e-07
1.38481e-06
3.19853e-07
5.67911e-07
3.02809e-07
1.38412e-06
1.7394e-06
8.86061e-06
8.86125e-06
1.73897e-06
5.67925e-07
3.19825e-07
1.38418e-06
3.02804e-07
1.3849e-06
3.02804e-07
5.67782e-07
1.73939e-06
8.8605e-06
8.86117e-06
1.73896e-06
5.67924e-07
3.19852e-07
3.02808e-07
1.38419e-06
3.02808e-07
1.38491e-06
5.6778e-07
1.73904e-06
8.8605e-06
1.73948e-06
8.85988e-06
5.67767e-07
3.02805e-07
1.38447e-06
3.19843e-07
5.67912e-07
3.02805e-07
1.38383e-06
1.73903e-06
8.8612e-06
1.73947e-06
8.86083e-06
5.67923e-07
3.19823e-07
1.38395e-06
3.02804e-07
1.38467e-06
3.02804e-07
5.67778e-07
1.73961e-06
8.85956e-06
8.86018e-06
1.73913e-06
5.67925e-07
3.19842e-07
3.02804e-07
1.3839e-06
3.02804e-07
1.38458e-06
5.67781e-07
1.7396e-06
8.86047e-06
8.86111e-06
1.73912e-06
2.95595e-06
2.95508e-06
3.52218e-07
2.95548e-06
2.95482e-06
2.28302e-05
2.28283e-05
2.28267e-05
2.28284e-05
3.52477e-07
2.95568e-06
2.95496e-06
2.95611e-06
2.95536e-06
2.28265e-05
2.28281e-05
5.67756e-07
3.02805e-07
1.38463e-06
3.19825e-07
5.67903e-07
3.02805e-07
1.38398e-06
1.73887e-06
8.86135e-06
1.73925e-06
8.86097e-06
1.73887e-06
8.8619e-06
1.73926e-06
8.86152e-06
5.67918e-07
3.19829e-07
3.02804e-07
1.3839e-06
3.02804e-07
1.38457e-06
5.67774e-07
5.67915e-07
3.19824e-07
3.02804e-07
1.38405e-06
3.02804e-07
1.38473e-06
5.67771e-07
1.73939e-06
8.86062e-06
8.86125e-06
1.73895e-06
1.73939e-06
8.86117e-06
8.8618e-06
1.73896e-06
2.28303e-05
2.28284e-05
2.2831e-05
2.28291e-05
3.52475e-07
2.95498e-06
2.95571e-06
2.95537e-06
2.95611e-06
2.28267e-05
2.28283e-05
2.28273e-05
2.28289e-05
2.28254e-05
2.28244e-05
2.28271e-05
2.28262e-05
2.95538e-06
2.95614e-06
3.52216e-07
2.95493e-06
2.95568e-06
2.28239e-05
2.28246e-05
2.28257e-05
2.28262e-05
3.52475e-07
2.955e-06
2.95573e-06
2.95544e-06
2.95617e-06
1.73916e-06
8.86044e-06
1.73967e-06
8.85995e-06
5.67788e-07
1.38456e-06
3.02807e-07
3.19843e-07
5.67933e-07
1.38386e-06
3.02807e-07
5.67791e-07
1.38477e-06
3.02809e-07
3.19849e-07
5.67936e-07
1.38406e-06
3.02809e-07
1.73969e-06
8.85914e-06
8.85959e-06
1.73917e-06
1.73971e-06
8.85983e-06
8.86028e-06
1.73918e-06
5.67948e-07
3.19842e-07
1.38388e-06
3.02806e-07
1.3846e-06
3.02806e-07
5.67802e-07
5.67951e-07
3.19849e-07
1.38409e-06
3.02808e-07
1.3848e-06
3.02808e-07
5.67805e-07
2.95615e-06
2.95547e-06
3.52214e-07
2.95573e-06
2.955e-06
2.28236e-05
2.28226e-05
2.28248e-05
2.28254e-05
3.52473e-07
2.95581e-06
2.9551e-06
2.95625e-06
2.9556e-06
2.28222e-05
2.28229e-05
5.67798e-07
1.38496e-06
3.02807e-07
3.19829e-07
5.6794e-07
1.38422e-06
3.02807e-07
1.73901e-06
8.86083e-06
1.73946e-06
8.86028e-06
5.67796e-07
3.02811e-07
1.38497e-06
3.19855e-07
5.67939e-07
3.02811e-07
1.38423e-06
1.73952e-06
8.86023e-06
8.86072e-06
1.73904e-06
5.67955e-07
3.19828e-07
1.38425e-06
3.02806e-07
1.38499e-06
3.02806e-07
5.67812e-07
1.73951e-06
8.86014e-06
8.86063e-06
1.73903e-06
5.67954e-07
3.19855e-07
3.0281e-07
1.38426e-06
3.0281e-07
1.38501e-06
5.67809e-07
1.73918e-06
8.85989e-06
1.73968e-06
8.85937e-06
5.67796e-07
3.02808e-07
1.38463e-06
3.19846e-07
5.67939e-07
3.02808e-07
1.38394e-06
1.73917e-06
8.86076e-06
1.73968e-06
8.86022e-06
5.67951e-07
3.19827e-07
1.38402e-06
3.02806e-07
1.38475e-06
3.02806e-07
5.67805e-07
1.73973e-06
8.85926e-06
8.85973e-06
1.7392e-06
5.67954e-07
3.19845e-07
3.02807e-07
1.38396e-06
3.02806e-07
1.38467e-06
5.6781e-07
1.73972e-06
8.86008e-06
8.86054e-06
1.73919e-06
2.95629e-06
2.95546e-06
3.52225e-07
2.95581e-06
2.95501e-06
2.28266e-05
2.28256e-05
2.28251e-05
2.2826e-05
3.52483e-07
2.95589e-06
2.95508e-06
2.95641e-06
2.95551e-06
2.28251e-05
2.28258e-05
5.67786e-07
3.02807e-07
1.38479e-06
3.19828e-07
5.6793e-07
3.02807e-07
1.38409e-06
1.739e-06
8.86091e-06
1.73946e-06
8.86037e-06
1.73901e-06
8.86145e-06
1.73947e-06
8.86092e-06
5.67946e-07
3.19832e-07
3.02805e-07
1.38396e-06
3.02806e-07
1.38466e-06
5.678e-07
5.67945e-07
3.19827e-07
3.02805e-07
1.38411e-06
3.02805e-07
1.38483e-06
5.67799e-07
1.7395e-06
8.86023e-06
8.86069e-06
1.73902e-06
1.73951e-06
8.86077e-06
8.86124e-06
1.73903e-06
2.28268e-05
2.28258e-05
2.28274e-05
2.28264e-05
3.52482e-07
2.95511e-06
2.95584e-06
2.95555e-06
2.95627e-06
2.28253e-05
2.2826e-05
2.28259e-05
2.28267e-05
2.28242e-05
2.28237e-05
2.28259e-05
2.28255e-05
2.9555e-06
2.95624e-06
3.52223e-07
2.95509e-06
2.95583e-06
2.28237e-05
2.2824e-05
2.28255e-05
2.28258e-05
3.52482e-07
2.95518e-06
2.95592e-06
2.9556e-06
2.95633e-06
1.73918e-06
8.86018e-06
1.73973e-06
8.85977e-06
5.67813e-07
1.38462e-06
3.02809e-07
3.19847e-07
5.67961e-07
1.38389e-06
3.02809e-07
5.67816e-07
1.38482e-06
3.02811e-07
3.19853e-07
5.67964e-07
1.38409e-06
3.02811e-07
1.73971e-06
8.859e-06
8.85939e-06
1.73916e-06
1.73972e-06
8.85978e-06
8.86013e-06
1.73917e-06
5.67972e-07
3.19848e-07
1.3839e-06
3.02808e-07
1.38463e-06
3.02808e-07
5.67823e-07
5.67976e-07
3.19853e-07
1.3841e-06
3.02809e-07
1.38483e-06
3.02809e-07
5.67826e-07
2.95633e-06
2.9557e-06
3.5222e-07
2.9559e-06
2.95517e-06
2.28226e-05
2.28221e-05
2.28247e-05
2.28251e-05
3.5248e-07
2.95601e-06
2.95524e-06
2.95644e-06
2.95577e-06
2.28222e-05
2.28226e-05
5.67821e-07
1.38501e-06
3.02809e-07
3.19832e-07
5.67968e-07
1.38427e-06
3.02809e-07
1.73902e-06
8.8605e-06
1.73952e-06
8.86004e-06
5.67819e-07
3.02813e-07
1.38503e-06
3.19858e-07
5.67967e-07
3.02813e-07
1.38428e-06
1.73952e-06
8.86011e-06
8.86052e-06
1.73903e-06
5.67978e-07
3.19833e-07
1.38428e-06
3.02808e-07
1.38503e-06
3.02808e-07
5.6783e-07
1.73951e-06
8.86001e-06
8.86042e-06
1.73902e-06
5.67976e-07
3.19858e-07
3.02812e-07
1.38429e-06
3.02812e-07
1.38505e-06
5.67827e-07
1.7392e-06
8.85963e-06
1.73975e-06
8.85918e-06
5.6782e-07
3.0281e-07
1.38469e-06
3.19849e-07
5.67967e-07
3.0281e-07
1.38398e-06
1.73919e-06
8.86042e-06
1.73974e-06
8.85999e-06
5.67971e-07
3.1983e-07
1.38404e-06
3.02808e-07
1.38479e-06
3.02809e-07
5.67822e-07
1.73974e-06
8.85916e-06
8.85957e-06
1.73919e-06
5.67977e-07
3.19849e-07
3.02809e-07
1.38399e-06
3.02809e-07
1.38471e-06
5.67828e-07
1.73973e-06
8.85995e-06
8.86034e-06
1.73918e-06
2.95648e-06
2.95558e-06
3.52232e-07
2.95598e-06
2.95516e-06
2.28254e-05
2.28249e-05
2.28249e-05
2.28254e-05
3.5249e-07
2.95607e-06
2.95525e-06
2.95657e-06
2.95567e-06
2.28249e-05
2.28252e-05
5.67809e-07
3.02808e-07
1.38485e-06
3.19831e-07
5.67958e-07
3.02808e-07
1.38413e-06
1.73902e-06
8.86057e-06
1.73951e-06
8.86014e-06
1.73902e-06
8.86111e-06
1.73952e-06
8.86069e-06
5.67965e-07
3.19836e-07
3.02806e-07
1.38399e-06
3.02807e-07
1.3847e-06
5.67815e-07
5.67967e-07
3.1983e-07
3.02807e-07
1.38414e-06
3.02807e-07
1.38487e-06
5.67817e-07
1.7395e-06
8.8601e-06
8.86049e-06
1.73901e-06
1.73951e-06
8.86065e-06
8.86103e-06
1.73902e-06
2.28256e-05
2.2825e-05
2.28262e-05
2.28257e-05
3.52489e-07
2.95528e-06
2.95601e-06
2.9557e-06
2.95643e-06
2.2825e-05
2.28254e-05
2.28257e-05
2.2826e-05
2.28241e-05
2.28238e-05
2.28258e-05
2.28257e-05
2.95568e-06
2.95642e-06
3.52232e-07
2.95524e-06
2.95598e-06
2.28242e-05
2.28243e-05
2.2826e-05
2.2826e-05
3.52492e-07
2.95527e-06
2.95602e-06
2.95573e-06
2.95647e-06
1.73918e-06
8.86014e-06
1.73971e-06
8.85979e-06
5.67831e-07
1.38464e-06
3.02811e-07
3.19852e-07
5.67981e-07
1.38391e-06
3.02811e-07
5.67835e-07
1.38484e-06
3.02811e-07
3.19857e-07
5.67984e-07
1.3841e-06
3.02811e-07
1.7397e-06
8.85902e-06
8.85936e-06
1.73915e-06
1.73972e-06
8.85982e-06
8.86016e-06
1.73917e-06
5.6799e-07
3.19852e-07
1.38391e-06
3.02807e-07
1.38465e-06
3.02809e-07
5.67839e-07
5.67994e-07
3.19856e-07
1.3841e-06
3.02807e-07
1.38484e-06
3.02809e-07
5.67843e-07
2.95652e-06
2.95582e-06
3.52229e-07
2.95604e-06
2.95527e-06
2.28227e-05
2.28225e-05
2.28256e-05
2.28256e-05
3.52488e-07
2.956e-06
2.95529e-06
2.95652e-06
2.95585e-06
2.28229e-05
2.28231e-05
5.67839e-07
1.38504e-06
3.02811e-07
3.19837e-07
5.67986e-07
1.38429e-06
3.02811e-07
1.73902e-06
8.86041e-06
1.7395e-06
8.86001e-06
5.67837e-07
3.02814e-07
1.38506e-06
3.19862e-07
5.67984e-07
3.02814e-07
1.3843e-06
1.73952e-06
8.86015e-06
8.86051e-06
1.73902e-06
5.67996e-07
3.19836e-07
1.38429e-06
3.0281e-07
1.38505e-06
3.0281e-07
5.67847e-07
1.73951e-06
8.86005e-06
8.86041e-06
1.73901e-06
5.67994e-07
3.19861e-07
3.0281e-07
1.3843e-06
3.02812e-07
1.38507e-06
5.67844e-07
1.73919e-06
8.85955e-06
1.73973e-06
8.85918e-06
5.67837e-07
3.02811e-07
1.38472e-06
3.19853e-07
5.67984e-07
3.02811e-07
1.384e-06
1.73918e-06
8.86031e-06
1.73972e-06
8.85994e-06
5.67986e-07
3.19833e-07
1.38404e-06
3.02807e-07
1.3848e-06
3.02809e-07
5.67835e-07
1.73973e-06
8.85923e-06
8.85959e-06
1.73918e-06
5.67994e-07
3.19852e-07
3.02807e-07
1.384e-06
3.02809e-07
1.38472e-06
5.67844e-07
1.73973e-06
8.85997e-06
8.86031e-06
1.73918e-06
2.95666e-06
2.95576e-06
3.52241e-07
2.95613e-06
2.95531e-06
2.28253e-05
2.2825e-05
2.28255e-05
2.28257e-05
3.52499e-07
2.95616e-06
2.95535e-06
2.95671e-06
2.95581e-06
2.28254e-05
2.28255e-05
5.67825e-07
3.02809e-07
1.38488e-06
3.19834e-07
5.67974e-07
3.02809e-07
1.38415e-06
1.73901e-06
8.86047e-06
1.73949e-06
8.8601e-06
1.73902e-06
8.86101e-06
1.7395e-06
8.86064e-06
5.6798e-07
3.19839e-07
3.02808e-07
1.384e-06
3.02808e-07
1.38471e-06
5.67829e-07
5.67983e-07
3.19834e-07
3.02807e-07
1.38415e-06
3.02808e-07
1.38488e-06
5.67832e-07
1.7395e-06
8.86013e-06
8.86047e-06
1.73901e-06
1.73951e-06
8.86068e-06
8.86101e-06
1.73901e-06
2.28254e-05
2.28252e-05
2.28261e-05
2.28258e-05
3.52498e-07
2.95537e-06
2.95611e-06
2.95584e-06
2.95656e-06
2.28255e-05
2.28257e-05
2.28262e-05
2.28263e-05
2.28247e-05
2.28248e-05
2.28264e-05
2.28266e-05
2.95575e-06
2.9565e-06
3.52239e-07
2.95525e-06
2.95599e-06
2.28255e-05
2.28253e-05
2.28273e-05
2.28271e-05
3.52497e-07
2.95527e-06
2.95604e-06
2.95571e-06
2.95646e-06
1.73919e-06
8.8602e-06
1.73972e-06
8.86001e-06
5.67841e-07
1.38464e-06
3.02806e-07
3.19855e-07
5.67997e-07
1.38392e-06
3.02805e-07
5.67846e-07
1.38483e-06
3.02807e-07
3.19857e-07
5.68001e-07
1.38412e-06
3.02805e-07
1.7397e-06
8.85942e-06
8.85949e-06
1.73918e-06
1.73973e-06
8.86048e-06
8.86048e-06
1.7392e-06
5.67996e-07
3.19854e-07
1.38397e-06
3.02802e-07
1.38466e-06
3.02803e-07
5.6784e-07
5.68001e-07
3.19855e-07
1.3842e-06
3.02803e-07
1.38487e-06
3.02803e-07
5.67845e-07
2.95646e-06
2.95584e-06
3.52233e-07
2.95594e-06
2.95527e-06
2.28235e-05
2.28235e-05
2.28266e-05
2.28268e-05
3.52492e-07
2.95606e-06
2.95541e-06
2.95645e-06
2.95587e-06
2.28238e-05
2.28242e-05
5.67845e-07
1.38505e-06
3.02809e-07
3.19838e-07
5.68001e-07
1.38429e-06
3.02807e-07
1.73902e-06
8.86045e-06
1.7395e-06
8.86012e-06
5.67843e-07
3.0281e-07
1.38507e-06
3.19864e-07
5.68e-07
3.02808e-07
1.38431e-06
1.73951e-06
8.86055e-06
8.86067e-06
1.73905e-06
5.67997e-07
3.19836e-07
1.38435e-06
3.02804e-07
1.38506e-06
3.02804e-07
5.67845e-07
1.7395e-06
8.86044e-06
8.86056e-06
1.73904e-06
5.67996e-07
3.19862e-07
3.02806e-07
1.38436e-06
3.02806e-07
1.38508e-06
5.67842e-07
1.73919e-06
8.85966e-06
1.73972e-06
8.85947e-06
5.67844e-07
3.02806e-07
1.38472e-06
3.19854e-07
5.67999e-07
3.02805e-07
1.384e-06
1.73919e-06
8.86034e-06
1.73972e-06
8.86004e-06
5.67994e-07
3.19833e-07
1.38415e-06
3.02802e-07
1.38483e-06
3.02803e-07
5.67842e-07
1.73973e-06
8.85994e-06
8.85997e-06
1.7392e-06
5.67997e-07
3.19852e-07
3.02803e-07
1.38405e-06
3.02803e-07
1.38473e-06
5.67844e-07
1.73972e-06
8.86036e-06
8.86045e-06
1.7392e-06
2.95673e-06
2.95584e-06
3.52247e-07
2.95613e-06
2.95532e-06
2.28258e-05
2.28259e-05
2.28267e-05
2.28267e-05
3.52504e-07
2.95618e-06
2.95537e-06
2.95669e-06
2.9558e-06
2.28266e-05
2.28265e-05
5.67831e-07
3.02806e-07
1.38488e-06
3.19836e-07
5.67989e-07
3.02805e-07
1.38415e-06
1.73902e-06
8.8605e-06
1.73949e-06
8.8602e-06
1.73902e-06
8.86105e-06
1.7395e-06
8.86074e-06
5.67987e-07
3.19839e-07
3.02805e-07
1.38405e-06
3.02806e-07
1.38472e-06
5.67834e-07
5.67986e-07
3.19834e-07
3.02802e-07
1.38421e-06
3.02802e-07
1.38489e-06
5.67831e-07
1.73949e-06
8.86052e-06
8.86061e-06
1.73903e-06
1.7395e-06
8.86106e-06
8.86116e-06
1.73903e-06
2.2826e-05
2.28261e-05
2.28267e-05
2.28267e-05
3.52503e-07
2.9554e-06
2.95613e-06
2.95583e-06
2.95655e-06
2.28268e-05
2.28267e-05
2.28274e-05
2.28273e-05
2.28258e-05
2.28252e-05
2.28275e-05
2.2827e-05
2.9558e-06
2.95658e-06
3.52237e-07
2.95539e-06
2.95617e-06
2.28246e-05
2.28254e-05
2.28264e-05
2.2827e-05
3.52493e-07
2.95533e-06
2.95612e-06
2.95589e-06
2.95668e-06
1.7394e-06
8.86095e-06
1.73979e-06
8.86072e-06
5.67847e-07
1.38474e-06
3.02802e-07
3.1985e-07
5.68e-07
1.38408e-06
3.02799e-07
5.67849e-07
1.38497e-06
3.02803e-07
3.19847e-07
5.68004e-07
1.3843e-06
3.028e-07
1.73999e-06
8.86022e-06
8.86039e-06
1.73941e-06
1.74e-06
8.8608e-06
8.86115e-06
1.73942e-06
5.68e-07
3.19841e-07
1.38405e-06
3.02771e-07
1.38483e-06
3.02792e-07
5.67803e-07
5.68001e-07
3.19828e-07
1.38429e-06
3.02766e-07
1.38509e-06
3.02791e-07
5.678e-07
2.95659e-06
2.95603e-06
3.52226e-07
2.9562e-06
2.9555e-06
2.28242e-05
2.28234e-05
2.28244e-05
2.28254e-05
3.52477e-07
2.95617e-06
2.95536e-06
2.95678e-06
2.95607e-06
2.28229e-05
2.28237e-05
5.67854e-07
1.38514e-06
3.02803e-07
3.19833e-07
5.68002e-07
1.38444e-06
3.02801e-07
1.73925e-06
8.86094e-06
1.73958e-06
8.86094e-06
5.67852e-07
3.02805e-07
1.38516e-06
3.19859e-07
5.68001e-07
3.02803e-07
1.38446e-06
1.73982e-06
8.86138e-06
8.86153e-06
1.73929e-06
5.68005e-07
3.19824e-07
1.38443e-06
3.02773e-07
1.38522e-06
3.02793e-07
5.67811e-07
1.7398e-06
8.8613e-06
8.86143e-06
1.73928e-06
5.68004e-07
3.1985e-07
3.02776e-07
1.38445e-06
3.02796e-07
1.38525e-06
5.67809e-07
1.73941e-06
8.86043e-06
1.7398e-06
8.86037e-06
5.67853e-07
3.02802e-07
1.38481e-06
3.19849e-07
5.68002e-07
3.028e-07
1.38415e-06
1.7394e-06
8.86083e-06
1.73979e-06
8.86088e-06
5.68002e-07
3.19807e-07
1.38416e-06
3.02766e-07
1.38499e-06
3.02789e-07
5.67807e-07
1.74002e-06
8.8606e-06
8.86083e-06
1.73945e-06
5.68004e-07
3.1984e-07
3.02772e-07
1.38414e-06
3.02792e-07
1.3849e-06
5.6781e-07
1.74001e-06
8.86122e-06
8.86134e-06
1.73944e-06
2.9568e-06
2.95591e-06
3.52246e-07
2.95631e-06
2.9555e-06
2.2827e-05
2.28264e-05
2.28258e-05
2.28267e-05
3.52501e-07
2.95626e-06
2.95545e-06
2.9569e-06
2.95601e-06
2.28258e-05
2.28266e-05
5.67841e-07
3.02801e-07
1.38497e-06
3.1983e-07
5.67991e-07
3.02799e-07
1.3843e-06
1.73924e-06
8.86099e-06
1.73957e-06
8.86103e-06
1.73924e-06
8.86154e-06
1.73957e-06
8.86157e-06
5.67997e-07
3.19826e-07
3.02773e-07
1.38414e-06
3.02793e-07
1.38489e-06
5.67802e-07
5.67994e-07
3.19821e-07
3.02772e-07
1.38429e-06
3.02792e-07
1.38506e-06
5.67799e-07
1.73979e-06
8.86138e-06
8.86149e-06
1.73927e-06
1.7398e-06
8.86192e-06
8.86203e-06
1.73928e-06
2.28271e-05
2.28266e-05
2.28278e-05
2.28272e-05
3.52499e-07
2.95548e-06
2.95621e-06
2.95604e-06
2.95677e-06
2.2826e-05
2.28267e-05
2.28266e-05
2.28274e-05
2.28248e-05
2.28247e-05
2.28266e-05
2.28261e-05
2.95579e-06
2.95657e-06
3.52143e-07
2.95516e-06
2.95592e-06
2.28245e-05
2.2825e-05
2.28259e-05
2.28263e-05
3.52386e-07
2.95502e-06
2.95577e-06
2.95564e-06