/*--------------------------------*- C++ -*----------------------------------*\
| =========                 |                                                 |
| \\      /  F ield         | OpenFOAM: The Open Source CFD Toolbox           |
|  \\    /   O peration     | Version:  2206                                  |
|   \\  /    A nd           | Website:  www.openfoam.com                      |
|    \\/     M anipulation  |                                                 |
\*---------------------------------------------------------------------------*/
FoamFile
{
    version     2.0;
    format      ascii;
    arch        "LSB;label=32;scalar=64";
    class       volScalarField;
    location    "26.5";
    object      k;
}
// * * * * * * * * * * * * * * * * * * * * * * * * * * * * * * * * * * * * * //

dimensions      [0 2 -2 0 0 0 0];

internalField   nonuniform List<scalar> 
28687
(
2.6875e-05
2.63822e-05
2.63821e-05
2.58304e-05
2.68749e-05
2.63824e-05
2.63821e-05
2.58327e-05
2.68748e-05
2.63824e-05
2.6382e-05
2.58329e-05
2.68748e-05
2.63824e-05
2.63821e-05
2.5833e-05
2.68747e-05
2.63824e-05
2.63821e-05
2.58333e-05
2.68744e-05
2.63819e-05
2.63817e-05
2.58327e-05
2.68698e-05
2.63756e-05
2.63763e-05
2.58269e-05
2.68671e-05
2.63736e-05
2.63735e-05
2.58236e-05
2.6867e-05
2.63736e-05
2.63735e-05
2.58236e-05
2.68671e-05
2.63736e-05
2.63735e-05
2.58236e-05
2.6867e-05
2.63736e-05
2.63735e-05
2.58236e-05
2.68671e-05
2.63737e-05
2.63735e-05
2.58236e-05
2.68671e-05
2.63737e-05
2.63735e-05
2.58236e-05
2.68671e-05
2.63736e-05
2.63735e-05
2.58236e-05
2.68671e-05
2.63736e-05
2.63735e-05
2.58236e-05
2.68671e-05
2.63736e-05
2.63735e-05
2.58236e-05
2.68671e-05
2.63736e-05
2.63735e-05
2.58236e-05
2.68671e-05
2.63736e-05
2.63735e-05
2.58236e-05
2.63819e-05
2.58364e-05
2.63822e-05
2.58303e-05
2.58365e-05
2.63819e-05
2.63819e-05
2.63819e-05
2.63818e-05
2.5833e-05
2.58364e-05
2.63822e-05
2.63816e-05
2.63821e-05
2.63815e-05
2.63819e-05
2.63824e-05
2.63819e-05
2.583e-05
2.58361e-05
2.63823e-05
2.63821e-05
2.63822e-05
2.58364e-05
2.5833e-05
2.58365e-05
2.6382e-05
2.63819e-05
2.63819e-05
2.63819e-05
2.5833e-05
2.58366e-05
2.63823e-05
2.63816e-05
2.63822e-05
2.63816e-05
2.6382e-05
2.63824e-05
2.63819e-05
2.58327e-05
2.58362e-05
2.63823e-05
2.6382e-05
2.63822e-05
2.58365e-05
2.58331e-05
2.58367e-05
2.6382e-05
2.63821e-05
2.63819e-05
2.63821e-05
2.58332e-05
2.58368e-05
2.63823e-05
2.63817e-05
2.63822e-05
2.63816e-05
2.6382e-05
2.63824e-05
2.63819e-05
2.58328e-05
2.58364e-05
2.63823e-05
2.63821e-05
2.63823e-05
2.58367e-05
2.58333e-05
2.5837e-05
2.63821e-05
2.63823e-05
2.63821e-05
2.63823e-05
2.58334e-05
2.58371e-05
2.63824e-05
2.63817e-05
2.63823e-05
2.63817e-05
2.6382e-05
2.63824e-05
2.6382e-05
2.5833e-05
2.58366e-05
2.63824e-05
2.63821e-05
2.63824e-05
2.58369e-05
2.58336e-05
2.58367e-05
2.63821e-05
2.63823e-05
2.63818e-05
2.63819e-05
2.58337e-05
2.58365e-05
2.63823e-05
2.63818e-05
2.6382e-05
2.63814e-05
2.63821e-05
2.63821e-05
2.6382e-05
2.58332e-05
2.58364e-05
2.63825e-05
2.63819e-05
2.63822e-05
2.58367e-05
2.58331e-05
2.58322e-05
2.63816e-05
2.63815e-05
2.6378e-05
2.63768e-05
2.58327e-05
2.58306e-05
2.63818e-05
2.63812e-05
2.63784e-05
2.63778e-05
2.63817e-05
2.63775e-05
2.6378e-05
2.58328e-05
2.58319e-05
2.6382e-05
2.63783e-05
2.63783e-05
2.58321e-05
2.58273e-05
2.58273e-05
2.6376e-05
2.63751e-05
2.63733e-05
2.63732e-05
2.5826e-05
2.58271e-05
2.63764e-05
2.63758e-05
2.63736e-05
2.6373e-05
2.6376e-05
2.63736e-05
2.63734e-05
2.5827e-05
2.58269e-05
2.63764e-05
2.63736e-05
2.63737e-05
2.58273e-05
2.58238e-05
2.58273e-05
2.63734e-05
2.63733e-05
2.63733e-05
2.63732e-05
2.58237e-05
2.58273e-05
2.63737e-05
2.63731e-05
2.63736e-05
2.6373e-05
2.63734e-05
2.63736e-05
2.63733e-05
2.58234e-05
2.5827e-05
2.63738e-05
2.63735e-05
2.63737e-05
2.58273e-05
2.58239e-05
2.58273e-05
2.63734e-05
2.63733e-05
2.63733e-05
2.63732e-05
2.58238e-05
2.58273e-05
2.63737e-05
2.63731e-05
2.63736e-05
2.6373e-05
2.63734e-05
2.63737e-05
2.63733e-05
2.58236e-05
2.58269e-05
2.63738e-05
2.63735e-05
2.63737e-05
2.58273e-05
2.58238e-05
2.58273e-05
2.63734e-05
2.63733e-05
2.63733e-05
2.63732e-05
2.58238e-05
2.58272e-05
2.63737e-05
2.63731e-05
2.63736e-05
2.6373e-05
2.63735e-05
2.63737e-05
2.63734e-05
2.58235e-05
2.58269e-05
2.63738e-05
2.63736e-05
2.63737e-05
2.58273e-05
2.58238e-05
2.58273e-05
2.63734e-05
2.63733e-05
2.63733e-05
2.63732e-05
2.58237e-05
2.58273e-05
2.63737e-05
2.63731e-05
2.63736e-05
2.6373e-05
2.63735e-05
2.63737e-05
2.63734e-05
2.58235e-05
2.5827e-05
2.63738e-05
2.63736e-05
2.63737e-05
2.58273e-05
2.58238e-05
2.58273e-05
2.63734e-05
2.63733e-05
2.63733e-05
2.63733e-05
2.58238e-05
2.58273e-05
2.63737e-05
2.63731e-05
2.63736e-05
2.6373e-05
2.63735e-05
2.63737e-05
2.63734e-05
2.58235e-05
2.5827e-05
2.63738e-05
2.63736e-05
2.63737e-05
2.58273e-05
2.58239e-05
2.58273e-05
2.63734e-05
2.63734e-05
2.63733e-05
2.63733e-05
2.58239e-05
2.58273e-05
2.63737e-05
2.63731e-05
2.63736e-05
2.6373e-05
2.63735e-05
2.63737e-05
2.63734e-05
2.58236e-05
2.5827e-05
2.63738e-05
2.63736e-05
2.63737e-05
2.58273e-05
2.58238e-05
2.58272e-05
2.63734e-05
2.63734e-05
2.63733e-05
2.63733e-05
2.58238e-05
2.58272e-05
2.63737e-05
2.63731e-05
2.63737e-05
2.6373e-05
2.63735e-05
2.63737e-05
2.63733e-05
2.58235e-05
2.5827e-05
2.63738e-05
2.63736e-05
2.63737e-05
2.58273e-05
2.58238e-05
2.58272e-05
2.63734e-05
2.63734e-05
2.63732e-05
2.63733e-05
2.58238e-05
2.58272e-05
2.63737e-05
2.63731e-05
2.63736e-05
2.6373e-05
2.63734e-05
2.63737e-05
2.63733e-05
2.58235e-05
2.5827e-05
2.63738e-05
2.63736e-05
2.63737e-05
2.58273e-05
2.58238e-05
2.58273e-05
2.63733e-05
2.63734e-05
2.63733e-05
2.63733e-05
2.58238e-05
2.58272e-05
2.63737e-05
2.63731e-05
2.63736e-05
2.6373e-05
2.63734e-05
2.63737e-05
2.63733e-05
2.58235e-05
2.5827e-05
2.63738e-05
2.63736e-05
2.63737e-05
2.58273e-05
2.58238e-05
2.58272e-05
2.63734e-05
2.63734e-05
2.63733e-05
2.63733e-05
2.58238e-05
2.58273e-05
2.63737e-05
2.63731e-05
2.63736e-05
2.6373e-05
2.63734e-05
2.63737e-05
2.63734e-05
2.58235e-05
2.5827e-05
2.63738e-05
2.63736e-05
2.63737e-05
2.58273e-05
2.58238e-05
2.63733e-05
2.63733e-05
2.58238e-05
2.63737e-05
2.63731e-05
2.63734e-05
2.58235e-05
2.63737e-05
2.87071e-05
6.97843e-05
2.87081e-05
6.97824e-05
8.01905e-05
8.0186e-05
2.87083e-05
6.97865e-05
2.87091e-05
6.97839e-05
2.68752e-05
2.68749e-05
2.6875e-05
2.68749e-05
2.68751e-05
2.68749e-05
2.68749e-05
2.49288e-05
2.82891e-05
2.66714e-05
2.63824e-05
2.49287e-05
2.82861e-05
2.66714e-05
8.0189e-05
8.01841e-05
2.49291e-05
2.66712e-05
2.82884e-05
2.63821e-05
2.4929e-05
2.66712e-05
2.82857e-05
3.40449e-05
3.40465e-05
2.58365e-05
3.40445e-05
3.40461e-05
2.87096e-05
6.97824e-05
2.8711e-05
6.97796e-05
8.0183e-05
8.01816e-05
2.87107e-05
6.97841e-05
2.8712e-05
6.97811e-05
2.68751e-05
2.68749e-05
2.68749e-05
2.68749e-05
2.6875e-05
2.68748e-05
2.68748e-05
2.49292e-05
2.82913e-05
2.66713e-05
2.63825e-05
2.49291e-05
2.82879e-05
2.66714e-05
8.01808e-05
8.01781e-05
2.49295e-05
2.66711e-05
2.82908e-05
2.63821e-05
2.49294e-05
2.66711e-05
2.82876e-05
3.40472e-05
3.40488e-05
2.58365e-05
3.40457e-05
3.40473e-05
2.87107e-05
6.97808e-05
2.87127e-05
6.97785e-05
8.01809e-05
8.01804e-05
2.87114e-05
6.97824e-05
2.87133e-05
6.97799e-05
2.6875e-05
2.68747e-05
2.68748e-05
2.68748e-05
2.68749e-05
2.68746e-05
2.68747e-05
2.49297e-05
2.82927e-05
2.66712e-05
2.63825e-05
2.49297e-05
2.82891e-05
2.66713e-05
8.01774e-05
8.01763e-05
2.49297e-05
2.66711e-05
2.82921e-05
2.63821e-05
2.49298e-05
2.6671e-05
2.82887e-05
3.40494e-05
3.4051e-05
2.58366e-05
3.40488e-05
3.40505e-05
2.87116e-05
6.97802e-05
2.87135e-05
6.97781e-05
8.01807e-05
8.0181e-05
2.87125e-05
6.97819e-05
2.8714e-05
6.97797e-05
2.6875e-05
2.68748e-05
2.68748e-05
2.68748e-05
2.6875e-05
2.68747e-05
2.68748e-05
2.49301e-05
2.82934e-05
2.66712e-05
2.63825e-05
2.49299e-05
2.82896e-05
2.66714e-05
8.01772e-05
8.01768e-05
2.49302e-05
2.6671e-05
2.8293e-05
2.63822e-05
2.49299e-05
2.66712e-05
2.82894e-05
3.40531e-05
3.40548e-05
2.58368e-05
3.40522e-05
3.40539e-05
2.87123e-05
6.97803e-05
2.87145e-05
6.97786e-05
8.01829e-05
8.01837e-05
2.87133e-05
6.97821e-05
2.87152e-05
6.97803e-05
2.6875e-05
2.68747e-05
2.68749e-05
2.68745e-05
2.68747e-05
2.68744e-05
2.68746e-05
2.49306e-05
2.82939e-05
2.66713e-05
2.63824e-05
2.49307e-05
2.829e-05
2.66713e-05
8.01786e-05
8.01788e-05
2.49308e-05
2.6671e-05
2.82935e-05
2.6382e-05
2.49308e-05
2.6671e-05
2.82899e-05
3.40552e-05
3.40569e-05
2.5837e-05
3.40531e-05
3.40549e-05
2.87104e-05
6.9783e-05
2.87136e-05
6.97831e-05
8.01845e-05
8.01816e-05
2.87115e-05
6.97847e-05
2.87144e-05
6.97846e-05
2.68745e-05
2.68743e-05
2.68744e-05
2.68715e-05
2.6871e-05
2.68715e-05
2.68715e-05
2.49284e-05
2.82937e-05
2.66708e-05
2.63812e-05
2.49296e-05
2.82884e-05
2.66704e-05
8.01813e-05
8.01799e-05
2.49287e-05
2.66707e-05
2.82934e-05
2.63814e-05
2.49298e-05
2.66704e-05
2.82888e-05
3.40546e-05
3.40563e-05
2.58354e-05
3.40521e-05
3.40538e-05
2.87044e-05
6.97869e-05
2.87092e-05
6.9785e-05
8.01805e-05
8.01804e-05
2.87054e-05
6.97886e-05
2.87099e-05
6.97866e-05
2.68694e-05
2.68698e-05
2.68698e-05
2.68672e-05
2.68672e-05
2.68672e-05
2.68672e-05
2.49193e-05
2.82881e-05
2.66654e-05
2.63746e-05
2.49226e-05
2.82818e-05
2.66643e-05
8.0179e-05
8.01775e-05
2.49198e-05
2.66657e-05
2.8289e-05
2.63749e-05
2.49229e-05
2.66644e-05
2.82828e-05
3.40513e-05
3.40529e-05
2.58286e-05
3.40469e-05
3.40486e-05
2.87016e-05
6.97865e-05
2.87044e-05
6.97843e-05
8.01812e-05
8.0181e-05
2.87028e-05
6.97884e-05
2.87053e-05
6.97861e-05
2.68673e-05
2.68672e-05
2.68672e-05
2.68671e-05
2.68672e-05
2.68671e-05
2.68671e-05
2.49188e-05
2.82841e-05
2.6663e-05
2.63737e-05
2.49188e-05
2.82798e-05
2.66631e-05
8.0178e-05
8.01772e-05
2.49194e-05
2.66629e-05
2.82845e-05
2.63736e-05
2.49196e-05
2.6663e-05
2.82803e-05
3.40465e-05
3.40481e-05
2.58273e-05
3.4044e-05
3.40457e-05
2.87014e-05
6.97864e-05
2.87037e-05
6.97841e-05
8.01811e-05
8.01804e-05
2.87025e-05
6.97882e-05
2.87046e-05
6.97867e-05
2.68673e-05
2.68672e-05
2.68672e-05
2.68671e-05
2.68672e-05
2.68671e-05
2.68671e-05
2.4919e-05
2.82837e-05
2.6663e-05
2.63737e-05
2.4919e-05
2.82797e-05
2.66631e-05
8.01779e-05
8.01772e-05
2.49192e-05
2.66629e-05
2.82839e-05
2.63736e-05
2.49193e-05
2.6663e-05
2.82801e-05
3.40458e-05
3.40475e-05
2.58273e-05
3.40438e-05
3.40455e-05
2.87013e-05
6.97855e-05
2.87036e-05
6.9783e-05
8.01809e-05
8.01805e-05
2.87025e-05
6.97893e-05
2.87046e-05
6.97876e-05
2.68673e-05
2.68672e-05
2.68672e-05
2.68671e-05
2.68672e-05
2.68671e-05
2.68671e-05
2.49189e-05
2.82837e-05
2.6663e-05
2.63737e-05
2.49191e-05
2.82797e-05
2.66631e-05
8.01779e-05
8.01772e-05
2.49192e-05
2.66629e-05
2.82838e-05
2.63736e-05
2.49193e-05
2.6663e-05
2.82801e-05
3.40458e-05
3.40475e-05
2.58273e-05
3.40438e-05
3.40455e-05
2.87013e-05
6.97847e-05
2.87036e-05
6.97823e-05
8.0181e-05
8.01807e-05
2.87025e-05
6.979e-05
2.87046e-05
6.97881e-05
2.68673e-05
2.68672e-05
2.68672e-05
2.68671e-05
2.68672e-05
2.68671e-05
2.68671e-05
2.49187e-05
2.82837e-05
2.6663e-05
2.63737e-05
2.49187e-05
2.82797e-05
2.66631e-05
8.01779e-05
8.01772e-05
2.49191e-05
2.66629e-05
2.82838e-05
2.63736e-05
2.4919e-05
2.6663e-05
2.82801e-05
3.40458e-05
3.40475e-05
2.58273e-05
3.40438e-05
3.40455e-05
2.87013e-05
6.97842e-05
2.87036e-05
6.97819e-05
8.01812e-05
8.01808e-05
2.87025e-05
6.97903e-05
2.87046e-05
6.97884e-05
2.68673e-05
2.68672e-05
2.68672e-05
2.68671e-05
2.68672e-05
2.68671e-05
2.68671e-05
2.49189e-05
2.82837e-05
2.6663e-05
2.63738e-05
2.4919e-05
2.82797e-05
2.66631e-05
8.01779e-05
8.01772e-05
2.49193e-05
2.66629e-05
2.82839e-05
2.63736e-05
2.49194e-05
2.6663e-05
2.82801e-05
3.40458e-05
3.40475e-05
2.58273e-05
3.40438e-05
3.40455e-05
2.87013e-05
6.97839e-05
2.87036e-05
6.97817e-05
8.01814e-05
8.0181e-05
2.87025e-05
6.97905e-05
2.87046e-05
6.97885e-05
2.68673e-05
2.68672e-05
2.68672e-05
2.68671e-05
2.68672e-05
2.68671e-05
2.68671e-05
2.49189e-05
2.82837e-05
2.6663e-05
2.63738e-05
2.4919e-05
2.82797e-05
2.66631e-05
8.01779e-05
8.01772e-05
2.49192e-05
2.66629e-05
2.82839e-05
2.63736e-05
2.49193e-05
2.6663e-05
2.82801e-05
3.40458e-05
3.40475e-05
2.58273e-05
3.40438e-05
3.40455e-05
2.87013e-05
6.97838e-05
2.87036e-05
6.97816e-05
8.01815e-05
8.01811e-05
2.87025e-05
6.97906e-05
2.87046e-05
6.97886e-05
2.68673e-05
2.68672e-05
2.68672e-05
2.68671e-05
2.68672e-05
2.68671e-05
2.68671e-05
2.4919e-05
2.82837e-05
2.6663e-05
2.63737e-05
2.49191e-05
2.82797e-05
2.66631e-05
8.01779e-05
8.01772e-05
2.49194e-05
2.66629e-05
2.82839e-05
2.63736e-05
2.49194e-05
2.6663e-05
2.82801e-05
3.40458e-05
3.40475e-05
2.58273e-05
3.40438e-05
3.40455e-05
2.87013e-05
6.97837e-05
2.87036e-05
6.97815e-05
8.01815e-05
8.01811e-05
2.87025e-05
6.97906e-05
2.87046e-05
6.97886e-05
2.68673e-05
2.68672e-05
2.68672e-05
2.68671e-05
2.68672e-05
2.68671e-05
2.68671e-05
2.49189e-05
2.82837e-05
2.6663e-05
2.63737e-05
2.49191e-05
2.82797e-05
2.66631e-05
8.01779e-05
8.01772e-05
2.49193e-05
2.66629e-05
2.82839e-05
2.63736e-05
2.49194e-05
2.6663e-05
2.82801e-05
3.40458e-05
3.40475e-05
2.58273e-05
3.40438e-05
3.40455e-05
2.87013e-05
6.97836e-05
2.87036e-05
6.97815e-05
8.01815e-05
8.01811e-05
2.87025e-05
6.97907e-05
2.87046e-05
6.97886e-05
2.68673e-05
2.68672e-05
2.68672e-05
2.68671e-05
2.68672e-05
2.68671e-05
2.68671e-05
2.49187e-05
2.82837e-05
2.6663e-05
2.63737e-05
2.49187e-05
2.82797e-05
2.66631e-05
8.01779e-05
8.01772e-05
2.49192e-05
2.66629e-05
2.82838e-05
2.63736e-05
2.49193e-05
2.6663e-05
2.82801e-05
3.40458e-05
3.40475e-05
2.58273e-05
3.40438e-05
3.40455e-05
2.87013e-05
6.97836e-05
2.87036e-05
6.97815e-05
8.01815e-05
8.01811e-05
2.87025e-05
6.97907e-05
2.87046e-05
6.97886e-05
2.68673e-05
2.68672e-05
2.68672e-05
2.68671e-05
2.68672e-05
2.68671e-05
2.68671e-05
2.49189e-05
2.82837e-05
2.6663e-05
2.63737e-05
2.49191e-05
2.82797e-05
2.66631e-05
8.01779e-05
8.01772e-05
2.49193e-05
2.66629e-05
2.82838e-05
2.63736e-05
2.49193e-05
2.6663e-05
2.82801e-05
3.40458e-05
3.40475e-05
2.58273e-05
3.40438e-05
3.40455e-05
2.87014e-05
6.97836e-05
2.87036e-05
6.97816e-05
8.01815e-05
8.01811e-05
2.87026e-05
6.97907e-05
2.87046e-05
6.97888e-05
2.68672e-05
2.68671e-05
2.68672e-05
2.49187e-05
2.82837e-05
2.6663e-05
2.63737e-05
2.49187e-05
2.82797e-05
2.66631e-05
8.01779e-05
8.01773e-05
2.49194e-05
2.66629e-05
2.82838e-05
2.63737e-05
2.49194e-05
2.66631e-05
2.82802e-05
3.40458e-05
3.40475e-05
2.58275e-05
3.40438e-05
3.4047e-05
6.97856e-05
2.82863e-05
8.01911e-05
3.40441e-05
3.40373e-05
8.01872e-05
2.82847e-05
6.97824e-05
8.0193e-05
8.01886e-05
8.01923e-05
8.01881e-05
3.40466e-05
3.4047e-05
2.58365e-05
3.40453e-05
3.40464e-05
8.01845e-05
8.01882e-05
8.01839e-05
8.01876e-05
2.5833e-05
3.40452e-05
3.40467e-05
3.40471e-05
3.40484e-05
2.87074e-05
6.97877e-05
2.87085e-05
6.97847e-05
2.49286e-05
2.82886e-05
2.66713e-05
2.63819e-05
2.49287e-05
2.82858e-05
2.66713e-05
2.49288e-05
2.82907e-05
2.66713e-05
2.63819e-05
2.49289e-05
2.82878e-05
2.66713e-05
2.87099e-05
6.97807e-05
6.97839e-05
2.87085e-05
2.87103e-05
6.97831e-05
6.97861e-05
2.87089e-05
2.49291e-05
2.63819e-05
2.82869e-05
2.66712e-05
2.82901e-05
2.66712e-05
2.49288e-05
2.49293e-05
2.63818e-05
2.82887e-05
2.66713e-05
2.8292e-05
2.66713e-05
2.49289e-05
3.40467e-05
3.40395e-05
2.58364e-05
3.4046e-05
3.40385e-05
8.01874e-05
8.01826e-05
8.01831e-05
8.01858e-05
2.5833e-05
3.40472e-05
3.40407e-05
3.40481e-05
3.40411e-05
8.01796e-05
8.0183e-05
2.4929e-05
2.82902e-05
2.66713e-05
2.63822e-05
2.49291e-05
2.82871e-05
2.66713e-05
2.87078e-05
6.97839e-05
2.87086e-05
6.97816e-05
2.49287e-05
2.66711e-05
2.82886e-05
2.63816e-05
2.49289e-05
2.66711e-05
2.82856e-05
2.87109e-05
6.97823e-05
6.97857e-05
2.87097e-05
2.49295e-05
2.63822e-05
2.82882e-05
2.66712e-05
2.82917e-05
2.66712e-05
2.49292e-05
2.87104e-05
6.97797e-05
6.97832e-05
2.87092e-05
2.49292e-05
2.63816e-05
2.66711e-05
2.82867e-05
2.66711e-05
2.82901e-05
2.4929e-05
2.87073e-05
6.97846e-05
2.87084e-05
6.97814e-05
2.49287e-05
2.66712e-05
2.82885e-05
2.63819e-05
2.49288e-05
2.66712e-05
2.82857e-05
2.87072e-05
6.9786e-05
2.87082e-05
6.9784e-05
2.49294e-05
2.63824e-05
2.82871e-05
2.66713e-05
2.82906e-05
2.66713e-05
2.49291e-05
2.87102e-05
6.97797e-05
6.97829e-05
2.87088e-05
2.49292e-05
2.63819e-05
2.66712e-05
2.82868e-05
2.66712e-05
2.829e-05
2.49288e-05
2.871e-05
6.97822e-05
6.97855e-05
2.87086e-05
3.40418e-05
3.40448e-05
2.58361e-05
3.40404e-05
3.40444e-05
8.01928e-05
8.01883e-05
8.01805e-05
8.01845e-05
2.58327e-05
3.40416e-05
3.4045e-05
3.40427e-05
3.40465e-05
8.01843e-05
8.0188e-05
2.4929e-05
2.66713e-05
2.82894e-05
2.63823e-05
2.49291e-05
2.66712e-05
2.82866e-05
2.8708e-05
6.97864e-05
2.87088e-05
6.97844e-05
2.87081e-05
6.97886e-05
2.87089e-05
6.97866e-05
2.49296e-05
2.63821e-05
2.66711e-05
2.82868e-05
2.66712e-05
2.829e-05
2.49294e-05
2.49295e-05
2.63822e-05
2.66712e-05
2.82877e-05
2.66712e-05
2.8291e-05
2.49293e-05
2.87106e-05
6.97826e-05
6.97859e-05
2.87094e-05
2.87107e-05
6.97848e-05
6.97881e-05
2.87096e-05
8.01928e-05
8.01883e-05
8.01923e-05
8.01879e-05
2.5833e-05
3.40451e-05
3.40467e-05
3.40466e-05
3.40482e-05
8.01843e-05
8.0188e-05
8.01838e-05
8.01875e-05
8.01847e-05
8.01824e-05
8.01837e-05
8.01816e-05
3.4047e-05
3.40485e-05
2.58365e-05
3.40457e-05
3.40471e-05
8.01812e-05
8.01829e-05
8.01804e-05
8.01818e-05
2.5833e-05
3.4047e-05
3.40485e-05
3.40477e-05
3.40492e-05
2.871e-05
6.97846e-05
2.87116e-05
6.97821e-05
2.49292e-05
2.82911e-05
2.66713e-05
2.6382e-05
2.49292e-05
2.82877e-05
2.66713e-05
2.49295e-05
2.8293e-05
2.66713e-05
2.63819e-05
2.49293e-05
2.82895e-05
2.66713e-05
2.87123e-05
6.9779e-05
6.97813e-05
2.87104e-05
2.87126e-05
6.97814e-05
6.97838e-05
2.87107e-05
2.49298e-05
2.63819e-05
2.82883e-05
2.66712e-05
2.82919e-05
2.66713e-05
2.49297e-05
2.493e-05
2.63819e-05
2.82901e-05
2.66712e-05
2.82937e-05
2.66712e-05
2.49298e-05
3.40494e-05
3.40434e-05
2.58365e-05
3.40486e-05
3.40429e-05
8.01802e-05
8.01778e-05
8.01807e-05
8.01821e-05
2.58331e-05
3.40502e-05
3.40447e-05
3.40508e-05
3.40455e-05
8.01769e-05
8.01785e-05
2.49298e-05
2.82926e-05
2.66713e-05
2.63823e-05
2.49296e-05
2.82889e-05
2.66713e-05
2.87102e-05
6.97814e-05
2.87117e-05
6.97785e-05
2.49296e-05
2.66711e-05
2.82912e-05
2.63816e-05
2.49294e-05
2.66711e-05
2.82876e-05
2.87131e-05
6.97803e-05
6.97829e-05
2.87112e-05
2.49303e-05
2.63822e-05
2.82896e-05
2.66712e-05
2.82933e-05
2.66712e-05
2.49302e-05
2.87126e-05
6.97778e-05
6.97803e-05
2.87108e-05
2.49302e-05
2.63816e-05
2.6671e-05
2.82882e-05
2.6671e-05
2.8292e-05
2.493e-05
2.87098e-05
6.97814e-05
2.87115e-05
6.97787e-05
2.49292e-05
2.66712e-05
2.8291e-05
2.6382e-05
2.49292e-05
2.66712e-05
2.82876e-05
2.87097e-05
6.97837e-05
2.87113e-05
6.97809e-05
2.49298e-05
2.63825e-05
2.82886e-05
2.66712e-05
2.82923e-05
2.66713e-05
2.49296e-05
2.87125e-05
6.97781e-05
6.97805e-05
2.87105e-05
2.49297e-05
2.63819e-05
2.66711e-05
2.82882e-05
2.66711e-05
2.82918e-05
2.49298e-05
2.87123e-05
6.97801e-05
6.97826e-05
2.87104e-05
3.40441e-05
3.40468e-05
2.58362e-05
3.40432e-05
3.40455e-05
8.01845e-05
8.01822e-05
8.01768e-05
8.01788e-05
2.58327e-05
3.40445e-05
3.40468e-05
3.40456e-05
3.40475e-05
8.0181e-05
8.01827e-05
2.49299e-05
2.66712e-05
2.8292e-05
2.63823e-05
2.49298e-05
2.66712e-05
2.82885e-05
2.87104e-05
6.97841e-05
2.87119e-05
6.97813e-05
2.87106e-05
6.97863e-05
2.8712e-05
6.97835e-05
2.49301e-05
2.63821e-05
2.66711e-05
2.82882e-05
2.66711e-05
2.82917e-05
2.49298e-05
2.49305e-05
2.63823e-05
2.66711e-05
2.82892e-05
2.66711e-05
2.82927e-05
2.49302e-05
2.87128e-05
6.97805e-05
6.9783e-05
2.87109e-05
2.87129e-05
6.97827e-05
6.97851e-05
2.87111e-05
8.01845e-05
8.01822e-05
8.0184e-05
8.01817e-05
2.58331e-05
3.4047e-05
3.40486e-05
3.40477e-05
3.40493e-05
8.0181e-05
8.01827e-05
8.01805e-05
8.01822e-05
8.01819e-05
8.01806e-05
8.01809e-05
8.018e-05
3.40492e-05
3.40508e-05
2.58367e-05
3.4049e-05
3.40505e-05
8.01806e-05
8.01815e-05
8.018e-05
8.01806e-05
2.58332e-05
3.40509e-05
3.40525e-05
3.40512e-05
3.40529e-05
2.87111e-05
6.97832e-05
2.87133e-05
6.97811e-05
2.49301e-05
2.82925e-05
2.66712e-05
2.6382e-05
2.49302e-05
2.82889e-05
2.66712e-05
2.49303e-05
2.82942e-05
2.66713e-05
2.63821e-05
2.49304e-05
2.82905e-05
2.66713e-05
2.87133e-05
6.97782e-05
6.97802e-05
2.87111e-05
2.87136e-05
6.97811e-05
6.9783e-05
2.87115e-05
2.49306e-05
2.6382e-05
2.82893e-05
2.66712e-05
2.8293e-05
2.66712e-05
2.49302e-05
2.49308e-05
2.63821e-05
2.82909e-05
2.66713e-05
2.82947e-05
2.66713e-05
2.49304e-05
3.40525e-05
3.40472e-05
2.58367e-05
3.4052e-05
3.40462e-05
8.01778e-05
8.01766e-05
8.01801e-05
8.01812e-05
2.58333e-05
3.40537e-05
3.40476e-05
3.40544e-05
3.40487e-05
8.01768e-05
8.01777e-05
2.49303e-05
2.82939e-05
2.66713e-05
2.63823e-05
2.49306e-05
2.82901e-05
2.66713e-05
2.8711e-05
6.97797e-05
2.8713e-05
6.97773e-05
2.49301e-05
2.6671e-05
2.82926e-05
2.63817e-05
2.49303e-05
2.6671e-05
2.82888e-05
2.87137e-05
6.97797e-05
6.97819e-05
2.87118e-05
2.49308e-05
2.63823e-05
2.82906e-05
2.66712e-05
2.82945e-05
2.66713e-05
2.49304e-05
2.87132e-05
6.97771e-05
6.97793e-05
2.87114e-05
2.49306e-05
2.63816e-05
2.66709e-05
2.82892e-05
2.66709e-05
2.82931e-05
2.49302e-05
2.87109e-05
6.978e-05
2.87131e-05
6.97777e-05
2.493e-05
2.66712e-05
2.82923e-05
2.6382e-05
2.49303e-05
2.66712e-05
2.82888e-05
2.87107e-05
6.97819e-05
2.87129e-05
6.97797e-05
2.49302e-05
2.63825e-05
2.82894e-05
2.66712e-05
2.82934e-05
2.66712e-05
2.49299e-05
2.87134e-05
6.97776e-05
6.97797e-05
2.87112e-05
2.49305e-05
2.6382e-05
2.66711e-05
2.82892e-05
2.66711e-05
2.82929e-05
2.493e-05
2.87132e-05
6.97794e-05
6.97815e-05
2.8711e-05
3.40469e-05
3.4049e-05
2.58363e-05
3.40462e-05
3.40487e-05
8.01817e-05
8.01804e-05
8.01764e-05
8.01774e-05
2.58329e-05
3.40481e-05
3.40507e-05
3.40487e-05
3.4051e-05
8.01804e-05
8.01812e-05
2.49303e-05
2.66711e-05
2.82933e-05
2.63823e-05
2.49305e-05
2.66711e-05
2.82897e-05
2.8711e-05
6.97823e-05
2.87131e-05
6.97801e-05
2.87112e-05
6.97845e-05
2.87133e-05
6.97822e-05
2.49302e-05
2.63821e-05
2.6671e-05
2.82891e-05
2.6671e-05
2.82928e-05
2.49299e-05
2.49308e-05
2.63823e-05
2.6671e-05
2.82902e-05
2.6671e-05
2.82939e-05
2.49304e-05
2.87133e-05
6.97799e-05
6.97819e-05
2.87114e-05
2.87135e-05
6.9782e-05
6.97841e-05
2.87117e-05
8.01817e-05
8.01804e-05
8.01812e-05
8.01799e-05
2.58332e-05
3.40507e-05
3.40524e-05
3.40511e-05
3.40528e-05
8.01804e-05
8.01812e-05
8.01799e-05
8.01808e-05
8.01815e-05
8.0181e-05
8.01807e-05
8.01804e-05
3.40531e-05
3.40548e-05
2.58368e-05
3.40524e-05
3.40541e-05
8.01819e-05
8.01821e-05
8.01813e-05
8.01813e-05
2.58334e-05
3.40533e-05
3.4055e-05
3.40544e-05
3.40562e-05
2.87121e-05
6.9783e-05
2.8714e-05
6.97812e-05
2.49306e-05
2.82934e-05
2.66714e-05
2.63821e-05
2.49306e-05
2.82897e-05
2.66714e-05
2.49309e-05
2.8295e-05
2.66715e-05
2.63823e-05
2.49308e-05
2.82911e-05
2.66715e-05
2.87142e-05
6.97783e-05
6.97801e-05
2.87122e-05
2.87146e-05
6.97814e-05
6.97832e-05
2.87126e-05
2.4931e-05
2.63821e-05
2.829e-05
2.66713e-05
2.82938e-05
2.66714e-05
2.49312e-05
2.49313e-05
2.63823e-05
2.82913e-05
2.66714e-05
2.82952e-05
2.66715e-05
2.49315e-05
3.40559e-05
3.405e-05
2.5837e-05
3.40548e-05
3.40485e-05
8.0178e-05
8.01775e-05
8.01821e-05
8.01821e-05
2.58335e-05
3.40551e-05
3.40492e-05
3.40567e-05
3.40508e-05
8.01784e-05
8.01788e-05
2.4931e-05
2.82949e-05
2.66713e-05
2.63824e-05
2.49308e-05
2.82909e-05
2.66712e-05
2.87121e-05
6.97792e-05
2.87137e-05
6.97771e-05
2.49308e-05
2.6671e-05
2.82936e-05
2.63817e-05
2.49306e-05
2.6671e-05
2.82896e-05
2.87149e-05
6.97799e-05
6.97818e-05
2.87131e-05
2.49315e-05
2.63824e-05
2.82912e-05
2.66711e-05
2.82952e-05
2.66712e-05
2.49315e-05
2.87145e-05
6.97773e-05
6.97792e-05
2.87127e-05
2.49312e-05
2.63817e-05
2.6671e-05
2.82899e-05
2.6671e-05
2.82939e-05
2.49313e-05
2.87117e-05
6.97796e-05
2.87137e-05
6.97777e-05
2.49305e-05
2.66712e-05
2.82933e-05
2.6382e-05
2.49304e-05
2.66712e-05
2.82895e-05
2.87116e-05
6.97813e-05
2.87135e-05
6.97794e-05
2.49306e-05
2.63825e-05
2.82899e-05
2.66713e-05
2.82939e-05
2.66714e-05
2.49306e-05
2.87143e-05
6.9778e-05
6.97798e-05
2.87122e-05
2.49311e-05
2.6382e-05
2.66713e-05
2.82898e-05
2.66712e-05
2.82936e-05
2.49309e-05
2.87142e-05
6.97796e-05
6.97813e-05
2.87121e-05
3.40506e-05
3.40528e-05
2.58365e-05
3.40496e-05
3.40522e-05
8.01813e-05
8.01808e-05
8.01776e-05
8.01781e-05
2.58331e-05
3.40504e-05
3.40531e-05
3.40519e-05
3.40542e-05
8.01816e-05
8.01819e-05
2.49309e-05
2.66712e-05
2.82943e-05
2.63824e-05
2.49308e-05
2.66712e-05
2.82905e-05
2.87121e-05
6.97818e-05
2.87137e-05
6.97798e-05
2.87124e-05
6.97839e-05
2.8714e-05
6.9782e-05
2.49307e-05
2.63822e-05
2.66711e-05
2.82897e-05
2.66711e-05
2.82934e-05
2.49307e-05
2.49314e-05
2.63824e-05
2.66712e-05
2.82908e-05
2.66712e-05
2.82946e-05
2.49314e-05
2.87144e-05
6.978e-05
6.97818e-05
2.87127e-05
2.87147e-05
6.97822e-05
6.97839e-05
2.8713e-05
8.01813e-05
8.01808e-05
8.01808e-05
8.01803e-05
2.58334e-05
3.40531e-05
3.40548e-05
3.40542e-05
3.40559e-05
8.01816e-05
8.01819e-05
8.01811e-05
8.01814e-05
8.01829e-05
8.01832e-05
8.01821e-05
8.01825e-05
3.40551e-05
3.4057e-05
2.58371e-05
3.40533e-05
3.40551e-05
8.01848e-05
8.01846e-05
8.01842e-05
8.01837e-05
2.58336e-05
3.40527e-05
3.40546e-05
3.40549e-05
3.40568e-05
2.87128e-05
6.97834e-05
2.87151e-05
6.97824e-05
2.4931e-05
2.8294e-05
2.66713e-05
2.63821e-05
2.49317e-05
2.82902e-05
2.66712e-05
2.49312e-05
2.82954e-05
2.66714e-05
2.63823e-05
2.4932e-05
2.82914e-05
2.66712e-05
2.87147e-05
6.97804e-05
6.97808e-05
2.87115e-05
2.87151e-05
6.97848e-05
6.97848e-05
2.8712e-05
2.49308e-05
2.6382e-05
2.82899e-05
2.66709e-05
2.82942e-05
2.6671e-05
2.49297e-05
2.49311e-05
2.63821e-05
2.82909e-05
2.6671e-05
2.82954e-05
2.66711e-05
2.49299e-05
3.40568e-05
3.40512e-05
2.58372e-05
3.40546e-05
3.4049e-05
8.01799e-05
8.01799e-05
8.01844e-05
8.01848e-05
2.58336e-05
3.40542e-05
3.40489e-05
3.40563e-05
3.40511e-05
8.01806e-05
8.01814e-05
2.49311e-05
2.82955e-05
2.66711e-05
2.63823e-05
2.49319e-05
2.82914e-05
2.66711e-05
2.87129e-05
6.97794e-05
2.8715e-05
6.97777e-05
2.49309e-05
2.66712e-05
2.82942e-05
2.63818e-05
2.49317e-05
2.66711e-05
2.82901e-05
2.87154e-05
6.9782e-05
6.97826e-05
2.87126e-05
2.4931e-05
2.63821e-05
2.82912e-05
2.66709e-05
2.82956e-05
2.6671e-05
2.493e-05
2.8715e-05
6.97794e-05
6.978e-05
2.87121e-05
2.49308e-05
2.63816e-05
2.6671e-05
2.82899e-05
2.66711e-05
2.82943e-05
2.49298e-05
2.87124e-05
6.97802e-05
2.87147e-05
6.97792e-05
2.49306e-05
2.66713e-05
2.82938e-05
2.63821e-05
2.49313e-05
2.66713e-05
2.82899e-05
2.87123e-05
6.97815e-05
2.87147e-05
6.97799e-05
2.4931e-05
2.63823e-05
2.82898e-05
2.6671e-05
2.82942e-05
2.66711e-05
2.49298e-05
2.87148e-05
6.97816e-05
6.97818e-05
2.87117e-05
2.49306e-05
2.6382e-05
2.66711e-05
2.82898e-05
2.66712e-05
2.82939e-05
2.49297e-05
2.87146e-05
6.97816e-05
6.97821e-05
2.87115e-05
3.40526e-05
3.40549e-05
2.58367e-05
3.40504e-05
3.40532e-05
8.01827e-05
8.01829e-05
8.01805e-05
8.01805e-05
2.58332e-05
3.40499e-05
3.40527e-05
3.40523e-05
3.40548e-05
8.01845e-05
8.01843e-05
2.4931e-05
2.66712e-05
2.82948e-05
2.63825e-05
2.49318e-05
2.66711e-05
2.82909e-05
2.8713e-05
6.97819e-05
2.8715e-05
6.97803e-05
2.87132e-05
6.97841e-05
2.87152e-05
6.97825e-05
2.49311e-05
2.63819e-05
2.66708e-05
2.82897e-05
2.66709e-05
2.82939e-05
2.49301e-05
2.49309e-05
2.63824e-05
2.66709e-05
2.82907e-05
2.6671e-05
2.82949e-05
2.49301e-05
2.8715e-05
6.9782e-05
6.97825e-05
2.87123e-05
2.87152e-05
6.97842e-05
6.97847e-05
2.87124e-05
8.01827e-05
8.01829e-05
8.01822e-05
8.01824e-05
2.58336e-05
3.40527e-05
3.40544e-05
3.40548e-05
3.40565e-05
8.01845e-05
8.01843e-05
8.0184e-05
8.01838e-05
8.01856e-05
8.01843e-05
8.01848e-05
8.01835e-05
3.40543e-05
3.40563e-05
2.58354e-05
3.4052e-05
3.4054e-05
8.01829e-05
8.01846e-05
8.01821e-05
8.01836e-05
2.58312e-05
3.405e-05
3.40519e-05
3.40535e-05
3.40555e-05
2.87107e-05
6.97873e-05
2.87142e-05
6.97863e-05
2.49284e-05
2.82938e-05
2.66708e-05
2.63811e-05
2.49296e-05
2.8289e-05
2.66704e-05
2.49284e-05
2.82948e-05
2.66708e-05
2.63807e-05
2.49297e-05
2.82895e-05
2.66703e-05
2.87125e-05
6.97847e-05
6.97855e-05
2.87078e-05
2.87128e-05
6.97867e-05
6.97885e-05
2.8708e-05
2.4928e-05
2.638e-05
2.82862e-05
2.66674e-05
2.82926e-05
2.66693e-05
2.49236e-05
2.4928e-05
2.63788e-05
2.82865e-05
2.66671e-05
2.82932e-05
2.6669e-05
2.49234e-05
3.40559e-05
3.40509e-05
2.58345e-05
3.40531e-05
3.40478e-05
8.01815e-05
8.01797e-05
8.01798e-05
8.01823e-05
2.58299e-05
3.40499e-05
3.40447e-05
3.40544e-05
3.40493e-05
8.01785e-05
8.01804e-05
2.49288e-05
2.82953e-05
2.66708e-05
2.63814e-05
2.49299e-05
2.82902e-05
2.66704e-05
2.8711e-05
6.9782e-05
2.87141e-05
6.9782e-05
2.49286e-05
2.66708e-05
2.8294e-05
2.63808e-05
2.49296e-05
2.66704e-05
2.82889e-05
2.87133e-05
6.97863e-05
6.97871e-05
2.87088e-05
2.49284e-05
2.63804e-05
2.82874e-05
2.66676e-05
2.82939e-05
2.66695e-05
2.49241e-05
2.87129e-05
6.97838e-05
6.97845e-05
2.87084e-05
2.49282e-05
2.63798e-05
2.66674e-05
2.82862e-05
2.66693e-05
2.82927e-05
2.49239e-05
2.87106e-05
6.97842e-05
2.87139e-05
6.97839e-05
2.49284e-05
2.66709e-05
2.82937e-05
2.63812e-05
2.49296e-05
2.66704e-05
2.82888e-05
2.87104e-05
6.9784e-05
2.87138e-05
6.97843e-05
2.4928e-05
2.63795e-05
2.8285e-05
2.66673e-05
2.8292e-05
2.66692e-05
2.49236e-05
2.87127e-05
6.97851e-05
6.97863e-05
2.8708e-05
2.4928e-05
2.638e-05
2.66674e-05
2.82861e-05
2.66693e-05
2.82924e-05
2.49237e-05
2.87125e-05
6.97861e-05
6.97867e-05
2.87078e-05
3.40519e-05
3.40544e-05
2.58351e-05
3.40493e-05
3.40521e-05
8.01854e-05
8.0184e-05
8.01784e-05
8.01806e-05
2.58309e-05
3.40473e-05
3.405e-05
3.4051e-05
3.40536e-05
8.01826e-05
8.01844e-05
2.49288e-05
2.66708e-05
2.82946e-05
2.63815e-05
2.49299e-05
2.66704e-05
2.82897e-05
2.87112e-05
6.97845e-05
2.87143e-05
6.97847e-05
2.87113e-05
6.97867e-05
2.87144e-05
6.97869e-05
2.49283e-05
2.63803e-05
2.66676e-05
2.82861e-05
2.66694e-05
2.82924e-05
2.4924e-05
2.49285e-05
2.63803e-05
2.66675e-05
2.8287e-05
2.66694e-05
2.82933e-05
2.49242e-05
2.8713e-05
6.97865e-05
6.97871e-05
2.87085e-05
2.87131e-05
6.97887e-05
6.97893e-05
2.87086e-05
8.01854e-05
8.0184e-05
8.01849e-05
8.01835e-05
2.58311e-05
3.40501e-05
3.40517e-05
3.40536e-05
3.40552e-05
8.01826e-05
8.01844e-05
8.01821e-05
8.0184e-05
8.01834e-05
8.01823e-05
8.01825e-05
8.01813e-05
3.4051e-05
3.4053e-05
2.58286e-05
3.40467e-05
3.40488e-05
8.0182e-05
8.0183e-05
8.0181e-05
8.01819e-05
2.58245e-05
3.40447e-05
3.40467e-05
3.4048e-05