/*--------------------------------*- C++ -*----------------------------------*\
| =========                 |                                                 |
| \\      /  F ield         | OpenFOAM: The Open Source CFD Toolbox           |
|  \\    /   O peration     | Version:  2206                                  |
|   \\  /    A nd           | Website:  www.openfoam.com                      |
|    \\/     M anipulation  |                                                 |
\*---------------------------------------------------------------------------*/
FoamFile
{
    version     2.0;
    format      ascii;
    arch        "LSB;label=32;scalar=64";
    class       surfaceScalarField;
    location    "10.5";
    object      phi;
}
// * * * * * * * * * * * * * * * * * * * * * * * * * * * * * * * * * * * * * //

dimensions      [0 3 -1 0 0 0 0];

oriented        oriented;

internalField   nonuniform List<scalar> 
83348
(
1.33955e-09
1.40896e-09
-0.00106644
-1.15565e-09
-1.11812e-09
0.00106644
-0.00106709
-1.1702e-06
-1.30075e-09
1.36938e-09
0.00106709
-2.26724e-07
1.17203e-06
2.26261e-07
8.4501e-07
-2.09665e-07
-8.44803e-07
2.086e-07
-0.00106676
-1.16487e-06
-1.40037e-09
1.28343e-09
0.00106676
-2.23959e-07
1.16673e-06
2.23585e-07
8.4486e-07
-2.12207e-07
-8.44652e-07
2.1129e-07
-0.000262416
1.19797e-06
1.165e-06
-2.11597e-07
-2.16761e-07
0.000260482
8.11201e-10
6.88426e-10
-0.00106644
-6.81192e-10
-8.63736e-10
0.00106644
-0.00106709
-1.1701e-06
-1.6006e-09
1.09781e-09
0.00106709
-2.26582e-07
1.17214e-06
2.26436e-07
8.45023e-07
-2.09519e-07
-8.44748e-07
2.08772e-07
-0.00106675
-1.16494e-06
-7.74178e-10
1.62925e-09
0.00106675
-2.24037e-07
1.16659e-06
2.23395e-07
8.44546e-07
-2.123e-07
-8.44856e-07
2.11043e-07
-0.000262416
1.19804e-06
1.16498e-06
-2.11487e-07
-2.16779e-07
0.000260481
3.83964e-10
4.80021e-10
-0.00106644
-7.09682e-10
-6.48392e-10
0.00106644
-0.00106709
-1.17048e-06
-1.50659e-10
1.87994e-09
0.00106709
-2.27127e-07
1.17188e-06
2.26042e-07
8.44791e-07
-2.10524e-07
-8.45182e-07
2.07997e-07
-0.00106676
-1.16511e-06
-4.62215e-10
1.6592e-09
0.00106676
-2.24265e-07
1.16661e-06
2.23411e-07
8.44679e-07
-2.12873e-07
-8.44981e-07
2.10841e-07
-0.000262416
1.1982e-06
1.16524e-06
-2.11895e-07
-2.17049e-07
0.000260482
7.97457e-10
8.89861e-10
-0.00106645
-8.87926e-10
-8.41831e-10
0.00106645
-0.00106709
-1.17033e-06
-8.09963e-10
1.55044e-09
0.00106709
-2.26889e-07
1.17199e-06
2.26208e-07
8.4491e-07
-2.09994e-07
-8.45039e-07
2.08411e-07
-0.00106676
-1.16501e-06
-8.72123e-10
1.49843e-09
0.00106676
-2.2415e-07
1.16668e-06
2.23489e-07
8.44749e-07
-2.12575e-07
-8.44901e-07
2.11049e-07
-0.000262417
1.19812e-06
1.16514e-06
-2.11756e-07
-2.16929e-07
0.000260482
8.42799e-10
9.08346e-10
-0.00106645
-8.88218e-10
-8.68227e-10
0.00106645
-0.00106709
-1.17031e-06
-9.04642e-10
1.51244e-09
0.00106709
-2.26877e-07
1.172e-06
2.26218e-07
8.44929e-07
-2.0997e-07
-8.45016e-07
2.08429e-07
-0.00106676
-1.16501e-06
-9.06263e-10
1.49478e-09
0.00106676
-2.24145e-07
1.16668e-06
2.23493e-07
8.44759e-07
-2.12566e-07
-8.44889e-07
2.11057e-07
-0.000262417
1.19811e-06
1.16512e-06
-2.11739e-07
-2.16923e-07
0.000260482
8.54741e-10
9.12767e-10
-0.00106645
-8.8844e-10
-8.75033e-10
0.00106645
-0.00106709
-1.17031e-06
-9.14488e-10
1.5064e-09
0.00106709
-2.26876e-07
1.172e-06
2.2622e-07
8.44932e-07
-2.09968e-07
-8.45013e-07
2.08431e-07
-0.00106676
-1.16501e-06
-9.08683e-10
1.49659e-09
0.00106676
-2.24146e-07
1.16668e-06
2.23493e-07
8.4476e-07
-2.12564e-07
-8.44888e-07
2.11058e-07
-0.000262417
1.19811e-06
1.16512e-06
-2.11737e-07
-2.16923e-07
0.000260482
8.52923e-10
9.08882e-10
-0.00106645
-8.86166e-10
-8.73991e-10
0.00106645
-0.00106709
-1.17031e-06
-9.15417e-10
1.50714e-09
0.00106709
-2.26876e-07
1.172e-06
2.2622e-07
8.44931e-07
-2.09969e-07
-8.45014e-07
2.08431e-07
-0.00106676
-1.16501e-06
-9.08146e-10
1.49898e-09
0.00106676
-2.24146e-07
1.16668e-06
2.23492e-07
8.4476e-07
-2.12564e-07
-8.44888e-07
2.11058e-07
-0.000262417
1.19811e-06
1.16512e-06
-2.11737e-07
-2.16923e-07
0.000260482
8.52565e-10
9.07239e-10
-0.00106645
-8.84271e-10
-8.73759e-10
0.00106645
-0.00106709
-1.17031e-06
-9.17509e-10
1.50744e-09
0.00106709
-2.26876e-07
1.172e-06
2.2622e-07
8.44932e-07
-2.09968e-07
-8.45013e-07
2.08432e-07
-0.00106676
-1.16501e-06
-9.08306e-10
1.49874e-09
0.00106676
-2.24145e-07
1.16668e-06
2.23493e-07
8.4476e-07
-2.12565e-07
-8.44888e-07
2.11058e-07
-0.000262417
1.19811e-06
1.16512e-06
-2.11736e-07
-2.16923e-07
0.000260482
8.47488e-10
8.99698e-10
-0.00106645
-8.82402e-10
-8.73019e-10
0.00106645
-0.00106709
-1.17032e-06
-9.02749e-10
1.51313e-09
0.00106709
-2.2688e-07
1.172e-06
2.26218e-07
8.44928e-07
-2.09971e-07
-8.45017e-07
2.08428e-07
-0.00106676
-1.16501e-06
-8.89409e-10
1.50208e-09
0.00106676
-2.24148e-07
1.16668e-06
2.23491e-07
8.44759e-07
-2.12571e-07
-8.44894e-07
2.11057e-07
-0.000262417
1.19812e-06
1.16512e-06
-2.1174e-07
-2.16927e-07
0.000260482
8.45729e-10
8.80243e-10
-0.00106645
-8.97364e-10
-8.90458e-10
0.00106645
-0.00106709
-1.17032e-06
-9.08259e-10
1.51498e-09
0.00106709
-2.26882e-07
1.172e-06
2.26218e-07
8.44931e-07
-2.09968e-07
-8.45014e-07
2.08431e-07
-0.00106676
-1.16501e-06
-8.86772e-10
1.48476e-09
0.00106676
-2.24144e-07
1.16668e-06
2.23496e-07
8.4476e-07
-2.12573e-07
-8.44896e-07
2.1106e-07
-0.000262417
1.19812e-06
1.16511e-06
-2.11732e-07
-2.16927e-07
0.000260482
7.44487e-10
-9.17716e-09
-0.00106644
-8.85854e-10
-8.49901e-10
0.00106645
-0.00106709
-1.17032e-06
-9.25307e-10
1.50578e-09
0.00106709
-2.26833e-07
1.17201e-06
2.26199e-07
8.44931e-07
-2.09966e-07
-8.45012e-07
2.08429e-07
-0.00106676
-1.16501e-06
-8.84893e-10
1.49453e-09
0.00106676
-2.24147e-07
1.16668e-06
2.23493e-07
8.44758e-07
-2.12575e-07
-8.44898e-07
2.11058e-07
-0.000262417
1.19812e-06
1.16512e-06
-2.11735e-07
-2.16927e-07
0.000260482
7.9648e-10
9.29414e-10
-0.00106645
-9.12684e-10
-8.58498e-10
0.00106645
-0.00106709
-1.17036e-06
-8.84547e-10
1.59949e-09
0.00106709
-2.24201e-07
1.17197e-06
2.23438e-07
8.44937e-07
-2.09943e-07
-8.45013e-07
2.08412e-07
-0.00106676
-1.16501e-06
-9.10225e-10
1.49572e-09
0.00106676
-2.24146e-07
1.16668e-06
2.23495e-07
8.44763e-07
-2.12572e-07
-8.44895e-07
2.11062e-07
-0.000262417
1.19811e-06
1.16512e-06
-2.11739e-07
-2.1692e-07
0.000260482
8.25758e-10
9.06238e-10
-0.00106645
-8.86867e-10
-8.67914e-10
0.00106645
-0.00106709
-1.17033e-06
-9.02347e-10
1.52616e-09
0.00106709
-2.24158e-07
1.172e-06
2.23476e-07
8.44928e-07
-2.0994e-07
-8.45015e-07
2.08408e-07
-0.00106676
-1.16501e-06
-9.09249e-10
1.49836e-09
0.00106676
-2.24146e-07
1.16668e-06
2.23495e-07
8.44762e-07
-2.12571e-07
-8.44894e-07
2.11061e-07
-0.000262417
1.19811e-06
1.16512e-06
-2.11739e-07
-2.16922e-07
0.000260482
8.36866e-10
9.01778e-10
-0.00106645
-8.8244e-10
-8.74215e-10
0.00106645
-0.00106709
-1.17032e-06
-9.1549e-10
1.51026e-09
0.00106709
-2.24154e-07
1.17201e-06
2.23487e-07
8.44932e-07
-2.09941e-07
-8.45013e-07
2.08411e-07
-0.00106676
-1.16501e-06
-9.15798e-10
1.4971e-09
0.00106676
-2.24145e-07
1.16668e-06
2.23496e-07
8.44764e-07
-2.1257e-07
-8.44893e-07
2.11063e-07
-0.000262417
1.19811e-06
1.16512e-06
-2.11737e-07
-2.16923e-07
0.000260482
8.39685e-10
9.02772e-10
-0.00106645
-8.81474e-10
-8.76679e-10
0.00106645
-0.00106709
-1.17032e-06
-9.16596e-10
1.50898e-09
0.00106709
-2.24154e-07
1.17201e-06
2.23487e-07
8.44933e-07
-2.09941e-07
-8.45013e-07
2.0841e-07
-0.00106676
-1.16501e-06
-9.1654e-10
1.49435e-09
0.00106676
-2.24145e-07
1.16668e-06
2.23495e-07
8.44765e-07
-2.12569e-07
-8.44892e-07
2.11064e-07
-0.000262417
1.19811e-06
1.16512e-06
-2.11736e-07
-2.16922e-07
0.000260482
8.39334e-10
9.00081e-10
-0.00106645
-8.80241e-10
-8.77959e-10
0.00106645
-0.00106709
-1.17032e-06
-9.11768e-10
1.50958e-09
0.00106709
-2.24156e-07
1.17201e-06
2.23488e-07
8.44932e-07
-2.09946e-07
-8.45015e-07
2.08412e-07
-0.00106676
-1.16501e-06
-9.09618e-10
1.4998e-09
0.00106676
-2.24148e-07
1.16668e-06
2.23495e-07
8.44763e-07
-2.12574e-07
-8.44894e-07
2.11065e-07
-0.000262417
1.19812e-06
1.16512e-06
-2.11739e-07
-2.16925e-07
0.000260482
8.37727e-10
8.96833e-10
-0.00106645
-8.81677e-10
-8.79074e-10
0.00106645
-0.00106709
-1.17032e-06
-9.13236e-10
1.5097e-09
0.00106709
-2.24149e-07
1.17201e-06
2.23485e-07
8.44925e-07
-2.0993e-07
-8.45004e-07
2.08403e-07
-0.00106676
-1.165e-06
-9.10552e-10
1.49789e-09
0.00106676
-2.2414e-07
1.16668e-06
2.23493e-07
8.44755e-07
-2.12558e-07
-8.44884e-07
2.11056e-07
-0.000262417
1.19811e-06
1.16512e-06
-2.11732e-07
-2.16918e-07
0.000260482
1.00169e-09
1.06331e-09
-0.00106645
-9.57365e-10
-9.54394e-10
-0.00106709
-1.17027e-06
-1.07998e-09
1.45083e-09
-2.24093e-07
1.172e-06
2.23476e-07
8.44936e-07
-2.09838e-07
-8.44921e-07
2.0841e-07
-0.00106676
-1.16496e-06
-1.07744e-09
1.44228e-09
-2.24084e-07
1.16667e-06
2.23483e-07
8.44766e-07
-2.12467e-07
-8.44801e-07
2.11063e-07
-0.000262417
1.19807e-06
1.16508e-06
-2.11691e-07
-2.16876e-07
0.000260482
-1.20767e-06
-1.16944e-06
0.000262432
-0.000260487
2.11e-07
2.21148e-07
0.00106632
-1.19983e-09
-0.00106632
1.38437e-09
-1.20586e-06
2.3152e-07
-2.32032e-07
-8.47394e-07
2.05818e-07
-2.0695e-07
8.47539e-07
1.21038e-06
0.00106676
-1.16399e-09
-0.00106676
1.48952e-09
-1.20863e-06
2.31539e-07
-2.32137e-07
-8.52963e-07
2.1122e-07
-2.12416e-07
8.53079e-07
-1.17201e-06
0.000262455
-0.000260505
2.13667e-07
2.18441e-07
0.00106737
-1.31992e-09
-0.00106737
1.33101e-09
-1.16764e-06
2.26292e-07
-2.26763e-07
-8.47483e-07
2.11291e-07
-2.12368e-07
8.47707e-07
1.2051e-06
0.00106643
-1.21887e-09
-0.00106643
1.39528e-09
-1.20331e-06
2.31566e-07
-2.32084e-07
-8.47447e-07
2.11216e-07
-2.12326e-07
8.47604e-07
-1.20722e-09
1.40676e-09
-1.17022e-06
2.2623e-07
-2.26757e-07
-8.4484e-07
2.08515e-07
8.44969e-07
-2.09763e-07
1.1998e-06
0.00106623
-1.16088e-09
-0.00106623
1.37734e-09
-1.198e-06
2.26107e-07
-2.26608e-07
-8.4482e-07
2.08448e-07
-2.09645e-07
8.44932e-07
-1.16671e-06
0.000262411
-0.000260469
2.11154e-07
2.18441e-07
-1.30182e-09
-0.00106676
1.32184e-09
-1.1649e-06
2.23536e-07
-2.24001e-07
-8.44634e-07
2.11196e-07
8.44882e-07
-2.12289e-07
1.1668e-06
0.00106727
-1.2975e-09
-0.00106727
1.365e-09
-1.16502e-06
2.23569e-07
-2.24074e-07
-8.44909e-07
2.11275e-07
-2.12352e-07
8.4512e-07
-0.000260482
2.13443e-07
2.18653e-07
1.20583e-06
1.16761e-06
-2.0912e-07
-2.19245e-07
0.000260487
-1.20778e-06
-1.16959e-06
0.000262431
-0.000260486
2.11204e-07
2.21325e-07
1.33469e-09
0.00106632
-2.31989e-07
1.20768e-06
2.31571e-07
8.47577e-07
-2.06889e-07
-8.47353e-07
2.05894e-07
-1.20862e-06
-1.28722e-09
1.47662e-09
0.00106675
-2.32109e-07
1.21302e-06
2.34262e-07
8.53117e-07
-2.12354e-07
-8.52939e-07
2.11283e-07
0.00106631
-1.53066e-09
-0.00106631
1.33866e-09
-1.20575e-06
2.31677e-07
-2.31886e-07
-8.47265e-07
2.06056e-07
-2.0675e-07
8.4767e-07
1.21056e-06
0.00106676
-1.57228e-09
-0.00106675
1.04594e-09
-1.21114e-06
2.31761e-07
-2.34688e-07
-8.52871e-07
2.11451e-07
-2.12257e-07
8.5321e-07
-2.11817e-07
-2.16614e-07
0.000260505
-1.17217e-06
0.000262455
-0.000260504
2.1384e-07
2.18643e-07
1.27977e-09
0.00106736
-2.26719e-07
1.16946e-06
2.26345e-07
8.47737e-07
-2.12311e-07
-8.47457e-07
2.11357e-07
-1.20328e-06
-1.32839e-09
1.35716e-09
0.00106643
-2.3204e-07
1.20512e-06
2.31618e-07
8.47634e-07
-2.12268e-07
-8.47418e-07
2.11285e-07
0.00106736
-1.5045e-09
-0.00106736
1.11698e-09
-1.1675e-06
2.26479e-07
-2.26592e-07
-8.47379e-07
2.11505e-07
-2.12189e-07
8.47813e-07
1.20524e-06
0.00106643
-1.44123e-09
-0.00106643
1.23147e-09
-1.20318e-06
2.31741e-07
-2.31924e-07
-8.4734e-07
2.11438e-07
-2.12142e-07
8.47712e-07
-1.27908e-09
1.3245e-09
0.00106623
-2.26565e-07
1.19983e-06
2.26171e-07
8.44964e-07
-2.09565e-07
2.08524e-07
-8.44781e-07
-1.80873e-09
-0.00106709
1.05675e-09
-1.17013e-06
2.26424e-07
-2.26644e-07
-8.44739e-07
2.08789e-07
8.45163e-07
-2.09545e-07
1.19993e-06
0.00106623
-1.69057e-09
-0.00106623
1.28516e-09
-1.19788e-06
2.26299e-07
-2.26451e-07
-8.447e-07
2.08727e-07
-2.09426e-07
8.45128e-07
-2.09262e-07
-2.1655e-07
0.000260469
-1.16684e-06
0.00026241
-0.000260468
2.11342e-07
2.18631e-07
-1.41581e-09
1.31851e-09
0.00106727
-2.24034e-07
1.16682e-06
2.23622e-07
8.45155e-07
-2.12292e-07
2.11352e-07
-8.44879e-07
-1.55411e-09
-0.00106675
1.19783e-09
-1.16477e-06
2.23706e-07
-2.23846e-07
-8.44521e-07
2.11416e-07
8.44996e-07
-2.121e-07
1.16698e-06
0.00106726
-1.48194e-09
-0.00106726
1.04222e-09
-1.16487e-06
2.23797e-07
-2.23874e-07
-8.44808e-07
2.11488e-07
-2.12175e-07
8.45225e-07
-0.000260481
2.13684e-07
2.18839e-07
1.20592e-06
1.16765e-06
-2.0911e-07
-2.19265e-07
0.000260486
-1.20751e-06
-1.16929e-06
0.000262432
-0.000260487
2.10754e-07
2.20896e-07
1.84697e-09
0.00106631
-2.32087e-07
1.20753e-06
2.31358e-07
8.47286e-07
-2.06959e-07
-8.47536e-07
2.05666e-07
-1.20847e-06
-1.15602e-09
1.01687e-09
0.00106675
-2.31929e-07
1.2132e-06
2.34498e-07
8.52952e-07
-2.1229e-07
-8.53038e-07
2.11322e-07
0.00106632
-6.51301e-11
-0.00106631
1.86481e-09
-1.20614e-06
2.31303e-07
-2.3242e-07
-8.47778e-07
2.05218e-07
-2.07798e-07
8.47338e-07
1.21279e-06
0.00106675
6.18274e-11
-0.00106675
2.08126e-09
-1.21159e-06
2.33904e-07
-2.35303e-07
-8.53361e-07
2.10511e-07
-2.13329e-07
8.52857e-07
-2.11683e-07
-2.16424e-07
0.000260504
-1.17179e-06
0.000262458
-0.000260505
2.13354e-07
2.18081e-07
1.52576e-09
0.00106736
-2.26779e-07
1.16935e-06
2.26172e-07
8.47407e-07
-2.12411e-07
-8.4767e-07
2.11096e-07
-1.20334e-06
-6.69166e-10
1.65649e-09
0.00106643
-2.32113e-07
1.20499e-06
2.31433e-07
8.47316e-07
-2.1236e-07
-8.47625e-07
2.1104e-07
0.00106737
-1.77664e-10
-0.00106736
1.78648e-09
-1.16791e-06
2.26084e-07
-2.27138e-07
-8.47871e-07
2.10686e-07
-2.13223e-07
8.47504e-07
1.20495e-06
0.00106643
-5.44967e-11
-0.00106643
1.86898e-09
-1.20358e-06
2.31353e-07
-2.32464e-07
-8.47842e-07
2.10612e-07
-2.13182e-07
8.47396e-07
-1.16813e-09
1.77332e-09
0.00106623
-2.26637e-07
1.19966e-06
2.25959e-07
8.44884e-07
-2.09499e-07
2.08529e-07
-8.4479e-07
6.1741e-11
-0.00106709
1.97826e-09
-1.17056e-06
2.25893e-07
-2.27243e-07
-8.45273e-07
2.07771e-07
8.44715e-07
-2.10609e-07
1.19965e-06
0.00106623
1.83684e-11
-0.00106623
1.87434e-09
-1.19828e-06
2.25899e-07
-2.27e-07
-8.45245e-07
2.0777e-07
-2.10521e-07
8.44701e-07
-2.0927e-07
-2.16553e-07
0.000260468
-1.16656e-06
0.000262411
-0.000260469
2.10902e-07
2.18193e-07
-6.62871e-10
1.4066e-09
0.00106726
-2.24038e-07
1.16679e-06
2.23518e-07
8.44819e-07
-2.12395e-07
2.11087e-07
-8.45094e-07
-1.72283e-10
-0.00106676
1.79831e-09
-1.16518e-06
2.23321e-07
-2.24385e-07
-8.45016e-07
2.10596e-07
8.44683e-07
-2.13139e-07
1.16664e-06
0.00106727
-1.46332e-10
-0.00106727
1.82196e-09
-1.1653e-06
2.23355e-07
-2.24447e-07
-8.45303e-07
2.10665e-07
-2.13218e-07
8.44916e-07
-0.000260482
2.13177e-07
2.18408e-07
1.20606e-06
1.16784e-06
-2.0941e-07
-2.19536e-07
0.000260487
-1.20763e-06
-1.1694e-06
0.000262432
-0.000260487
2.10918e-07
2.2107e-07
1.68266e-09
0.00106632
-2.32294e-07
1.20757e-06
2.31399e-07
8.47392e-07
-2.07557e-07
-8.47686e-07
2.05441e-07
-1.21154e-06
-2.06966e-10
1.99914e-09
0.00106675
-2.35219e-07
1.21287e-06
2.34037e-07
8.5291e-07
-2.13125e-07
-8.53296e-07
2.10769e-07
0.00106632
-7.39604e-10
-0.00106632
1.55443e-09
-1.20598e-06
2.31472e-07
-2.32181e-07
-8.47624e-07
2.05637e-07
-2.07264e-07
8.47444e-07
1.21298e-06
0.00106675
-7.15571e-10
-0.00106675
1.68657e-09
-1.21138e-06
2.34213e-07
-2.34978e-07
-8.53188e-07
2.11062e-07
-2.12712e-07
8.52998e-07
-2.12222e-07
-2.17005e-07
0.000260505
-1.17198e-06
0.000262458
-0.000260505
2.13639e-07
2.18386e-07
1.67476e-09
0.00106737
-2.27025e-07
1.16934e-06
2.26167e-07
8.47554e-07
-2.12977e-07
-8.47787e-07
2.10907e-07
-1.20352e-06
-3.96657e-10
1.74176e-09
0.00106643
-2.32348e-07
1.205e-06
2.31441e-07
8.47454e-07
-2.12933e-07
-8.47749e-07
2.10841e-07
0.00106737
-8.82754e-10
-0.00106737
1.53173e-09
-1.16776e-06
2.26239e-07
-2.26918e-07
-8.4771e-07
2.11112e-07
-2.1268e-07
8.47616e-07
1.20506e-06
0.00106643
-7.80865e-10
-0.00106643
1.58517e-09
-1.20343e-06
2.31514e-07
-2.32238e-07
-8.47676e-07
2.1104e-07
-2.12637e-07
8.47511e-07
-2.62094e-10
1.68157e-09
0.00106623
-2.26867e-07
1.19971e-06
2.25996e-07
8.44779e-07
-2.10319e-07
2.08015e-07
-8.45129e-07
-7.47634e-10
-0.00106709
1.58168e-09
-1.17034e-06
2.26199e-07
-2.269e-07
-8.45059e-07
2.08386e-07
8.44889e-07
-2.10023e-07
1.19976e-06
0.00106623
-7.01173e-10
-0.00106623
1.5606e-09
-1.19812e-06
2.26062e-07
-2.2676e-07
-8.45044e-07
2.08285e-07
-2.09938e-07
8.4484e-07
-2.09552e-07
-2.16841e-07
0.000260469
-1.16667e-06
0.000262411
-0.000260469
2.11075e-07
2.1836e-07
-4.88765e-10
1.72117e-09
0.00106727
-2.24352e-07
1.16669e-06
2.23435e-07
8.44975e-07
-2.12959e-07
2.10902e-07
-8.45207e-07
-8.53185e-10
-0.00106676
1.50058e-09
-1.16502e-06
2.23487e-07
-2.24151e-07
-8.44864e-07
2.11014e-07
8.44788e-07
-2.12605e-07
1.16676e-06
0.00106727
-8.46018e-10
-0.00106727
1.56762e-09
-1.16515e-06
2.23521e-07
-2.24229e-07
-8.45138e-07
2.11093e-07
-2.12668e-07
8.45026e-07
-0.000260482
2.13364e-07
2.18573e-07
1.20597e-06
1.16776e-06
-2.0929e-07
-2.19408e-07
0.000260487
-1.20763e-06
-1.16941e-06
0.000262432
-0.000260487
2.10933e-07
2.21078e-07
1.55758e-09
0.00106632
-2.32179e-07
1.20763e-06
2.31476e-07
8.47462e-07
-2.07258e-07
-8.47605e-07
2.05649e-07
-1.21137e-06
-7.75768e-10
1.64718e-09
0.00106675
-2.34962e-07
1.213e-06
2.34227e-07
8.53017e-07
-2.12696e-07
-8.53172e-07
2.1108e-07
0.00106632
-8.18831e-10
-0.00106632
1.56913e-09
-1.20597e-06
2.31476e-07
-2.32176e-07
-8.47599e-07
2.05657e-07
-2.07239e-07
8.47465e-07
1.21301e-06
0.00106675
-8.26472e-10
-0.00106675
1.59657e-09
-1.21135e-06
2.34239e-07
-2.34944e-07
-8.53158e-07
2.11089e-07
-2.12675e-07
8.53022e-07
-2.11998e-07
-2.16758e-07
0.000260505
-1.172e-06
0.000262458
-0.000260505
2.13659e-07
2.18412e-07
1.52027e-09
0.00106737
-2.26914e-07
1.1694e-06
2.26244e-07
8.47627e-07
-2.12675e-07
-8.47702e-07
2.11118e-07
-1.20342e-06
-8.11581e-10
1.58287e-09
0.00106643
-2.32235e-07
1.20507e-06
2.31519e-07
8.47523e-07
-2.12633e-07
-8.47667e-07
2.11048e-07
0.00106737
-9.28784e-10
-0.00106737
1.49953e-09
-1.16774e-06
2.26251e-07
-2.26905e-07
-8.47691e-07
2.11126e-07
-2.1266e-07
8.47631e-07
1.20507e-06
0.00106643
-8.34506e-10
-0.00106643
1.56393e-09
-1.20342e-06
2.31523e-07
-2.32227e-07
-8.47654e-07
2.11055e-07
-2.12616e-07
8.47528e-07
-7.56661e-10
1.55999e-09
0.00106623
-2.26762e-07
1.19976e-06
2.26062e-07
8.44862e-07
-2.09918e-07
2.08308e-07
-8.45026e-07
-9.02884e-10
-0.00106709
1.51613e-09
-1.17031e-06
2.26218e-07
-2.26876e-07
-8.45018e-07
2.08423e-07
8.44922e-07
-2.0997e-07
1.19976e-06
0.00106623
-8.22244e-10
-0.00106623
1.56871e-09
-1.19811e-06
2.26065e-07
-2.26755e-07
-8.45009e-07
2.08316e-07
-2.09896e-07
8.4487e-07
-2.09428e-07
-2.16715e-07
0.000260469
-1.16668e-06
0.000262411
-0.000260469
2.11086e-07
2.18372e-07
-8.79598e-10
1.55175e-09
0.00106727
-2.24225e-07
1.16677e-06
2.23527e-07
8.45042e-07
-2.12659e-07
2.11108e-07
-8.45127e-07
-9.14546e-10
-0.00106676
1.48675e-09
-1.165e-06
2.23495e-07
-2.24142e-07
-8.44843e-07
2.1103e-07
8.44804e-07
-2.12582e-07
1.16678e-06
0.00106727
-8.99204e-10
-0.00106727
1.51291e-09
-1.16512e-06
2.2354e-07
-2.24207e-07
-8.4512e-07
2.11108e-07
-2.12648e-07
8.45041e-07
-0.000260482
2.13386e-07
2.18582e-07
1.20597e-06
1.16775e-06
-2.09278e-07
-2.19403e-07
0.000260487
-1.20764e-06
-1.16942e-06
0.000262432
-0.000260487
2.10936e-07
2.2108e-07
1.57288e-09
0.00106632
-2.32178e-07
1.20764e-06
2.31476e-07
8.47473e-07
-2.07245e-07
-8.47591e-07
2.0566e-07
-1.21135e-06
-8.38646e-10
1.59005e-09
0.00106675
-2.34944e-07
1.21301e-06
2.34241e-07
8.53029e-07
-2.1268e-07
-8.53156e-07
2.11093e-07
0.00106632
-8.36353e-10
-0.00106632
1.57167e-09
-1.20597e-06
2.31477e-07
-2.32175e-07
-8.47595e-07
2.05661e-07
-2.07235e-07
8.47469e-07
1.21301e-06
0.00106675
-8.42921e-10
-0.00106675
1.58156e-09
-1.21134e-06
2.34243e-07
-2.3494e-07
-8.53155e-07
2.11091e-07
-2.12672e-07
8.53025e-07
-2.11984e-07
-2.1674e-07
0.000260505
-1.172e-06
0.000262458
-0.000260505
2.13661e-07
2.18416e-07
1.49985e-09
0.00106737
-2.26906e-07
1.16941e-06
2.26251e-07
8.47633e-07
-2.12668e-07
-8.47694e-07
2.11123e-07
-1.20342e-06
-8.33983e-10
1.57068e-09
0.00106643
-2.32229e-07
1.20507e-06
2.31524e-07
8.4753e-07
-2.12624e-07
-8.47657e-07
2.11054e-07
0.00106737
-9.34849e-10
-0.00106737
1.48807e-09
-1.16774e-06
2.26255e-07
-2.26901e-07
-8.47689e-07
2.11128e-07
-2.12659e-07
8.47633e-07
1.20507e-06
0.00106643
-8.4113e-10
-0.00106643
1.56153e-09
-1.20341e-06
2.31524e-07
-2.32225e-07
-8.47653e-07
2.11057e-07
-2.12615e-07
8.4753e-07
-8.34179e-10
1.56544e-09
0.00106623
-2.26759e-07
1.19977e-06
2.26065e-07
8.4488e-07
-2.09898e-07
2.08325e-07
-8.45005e-07
-9.22992e-10
-0.00106709
1.5067e-09
-1.17031e-06
2.2622e-07
-2.26874e-07
-8.45014e-07
2.08427e-07
8.44926e-07
-2.09965e-07
1.19976e-06
0.00106623
-8.40071e-10
-0.00106623
1.57265e-09
-1.19811e-06
2.26065e-07
-2.26755e-07
-8.45005e-07
2.0832e-07
-2.09893e-07
8.44874e-07
-2.0942e-07
-2.16707e-07
0.000260469
-1.16668e-06
0.000262411
-0.000260469
2.11086e-07
2.18373e-07
-9.09677e-10
1.51128e-09
0.00106727
-2.2421e-07
1.16678e-06
2.2354e-07
8.4505e-07
-2.1265e-07
2.11116e-07
-8.45117e-07
-9.20795e-10
-0.00106676
1.48983e-09
-1.165e-06
2.23494e-07
-2.24142e-07
-8.4484e-07
2.11032e-07
8.44807e-07
-2.1258e-07
1.16678e-06
0.00106727
-9.01144e-10
-0.00106727
1.50337e-09
-1.16512e-06
2.23543e-07
-2.24203e-07
-8.45119e-07
2.11107e-07
-2.12648e-07
8.45041e-07
-0.000260482
2.13389e-07
2.18582e-07
1.20597e-06
1.16774e-06
-2.09275e-07
-2.19402e-07
0.000260487
-1.20763e-06
-1.16942e-06
0.000262432
-0.000260487
2.10936e-07
2.21078e-07
1.57366e-09
0.00106632
-2.32177e-07
1.20764e-06
2.31477e-07
8.47476e-07
-2.07242e-07
-8.47588e-07
2.05663e-07
-1.21134e-06
-8.48218e-10
1.58162e-09
0.00106675
-2.34941e-07
1.21301e-06
2.34244e-07
8.53031e-07
-2.12679e-07
-8.53154e-07
2.11094e-07
0.00106632
-8.31547e-10
-0.00106632
1.57495e-09
-1.20597e-06
2.31475e-07
-2.32177e-07
-8.47596e-07
2.0566e-07
-2.07236e-07
8.47468e-07
1.21301e-06
0.00106675
-8.37231e-10
-0.00106675
1.58334e-09
-1.21135e-06
2.34241e-07
-2.34942e-07
-8.53157e-07
2.1109e-07
-2.12674e-07
8.53024e-07
-2.11983e-07
-2.16737e-07
0.000260505
-1.172e-06
0.000262458
-0.000260505
2.1366e-07
2.18414e-07
1.49077e-09
0.00106737
-2.26903e-07
1.16942e-06
2.26254e-07
8.47635e-07
-2.12666e-07
-8.47692e-07
2.11125e-07
-1.20342e-06
-8.40027e-10
1.57024e-09
0.00106643
-2.32228e-07
1.20508e-06
2.31525e-07
8.47532e-07
-2.12622e-07
-8.47655e-07
2.11057e-07
0.00106737
-9.28457e-10
-0.00106737
1.48899e-09
-1.16774e-06
2.26254e-07
-2.26901e-07
-8.47691e-07
2.11126e-07
-2.1266e-07
8.47631e-07
1.20507e-06
0.00106643
-8.36007e-10
-0.00106643
1.56374e-09
-1.20342e-06
2.31523e-07
-2.32226e-07
-8.47654e-07
2.11056e-07
-2.12616e-07
8.47529e-07
-8.43264e-10
1.56938e-09
0.00106623
-2.2676e-07
1.19977e-06
2.26065e-07
8.44882e-07
-2.09895e-07
2.08327e-07
-8.45002e-07
-9.19124e-10
-0.00106709
1.50899e-09
-1.17031e-06
2.26219e-07
-2.26875e-07
-8.45016e-07
2.08425e-07
8.44924e-07
-2.09967e-07
1.19976e-06
0.00106623
-8.37087e-10
-0.00106623
1.57426e-09
-1.19811e-06
2.26064e-07
-2.26756e-07
-8.45006e-07
2.08319e-07
-2.09893e-07
8.44873e-07
-2.0942e-07
-2.16706e-07
0.000260469
-1.16668e-06
0.000262411
-0.000260469
2.11085e-07
2.18372e-07
-9.08623e-10
1.5056e-09
0.00106727
-2.24208e-07
1.16679e-06
2.23543e-07
8.4505e-07
-2.12651e-07
2.11115e-07
-8.45117e-07
-9.18123e-10
-0.00106676
1.49237e-09
-1.165e-06
2.23493e-07
-2.24143e-07
-8.44842e-07
2.11031e-07
8.44805e-07
-2.12581e-07
1.16678e-06
0.00106727
-8.97541e-10
-0.00106727
1.50231e-09
-1.16512e-06
2.23543e-07
-2.24203e-07
-8.45121e-07
2.11106e-07
-2.12649e-07
8.4504e-07
-0.000260482
2.13389e-07
2.18581e-07
1.20597e-06
1.16774e-06
-2.09276e-07
-2.19404e-07
0.000260487
-1.20763e-06
-1.16942e-06
0.000262432
-0.000260487
2.10936e-07
2.21078e-07
1.57623e-09
0.00106632
-2.32179e-07
1.20764e-06
2.31476e-07
8.47476e-07
-2.07242e-07
-8.47588e-07
2.05663e-07
-1.21135e-06
-8.45825e-10
1.58153e-09
0.00106675
-2.34942e-07
1.21301e-06
2.34243e-07
8.53031e-07
-2.12679e-07
-8.53155e-07
2.11094e-07
0.00106632
-8.36721e-10
-0.00106632
1.57434e-09
-1.20597e-06
2.31475e-07
-2.32176e-07
-8.47594e-07
2.05662e-07
-2.07235e-07
8.4747e-07
1.21301e-06
0.00106675
-8.43987e-10
-0.00106675
1.57959e-09
-1.21134e-06
2.34243e-07
-2.3494e-07
-8.53155e-07
2.11092e-07
-2.12672e-07
8.53026e-07
-2.11983e-07
-2.16738e-07
0.000260505
-1.172e-06
0.000262458
-0.000260505
2.13661e-07
2.18416e-07
1.49148e-09
0.00106737
-2.26904e-07
1.16942e-06
2.26254e-07
8.47634e-07
-2.12667e-07
-8.47694e-07
2.11124e-07
-1.20342e-06
-8.36071e-10
1.57109e-09
0.00106643
-2.32229e-07
1.20507e-06
2.31524e-07
8.47531e-07
-2.12624e-07
-8.47657e-07
2.11056e-07
0.00106737
-9.32275e-10
-0.00106737
1.48784e-09
-1.16774e-06
2.26254e-07
-2.26901e-07
-8.4769e-07
2.11127e-07
-2.12659e-07
8.47633e-07
1.20508e-06
0.00106643
-8.41568e-10
-0.00106643
1.55968e-09
-1.20341e-06
2.31525e-07
-2.32224e-07
-8.47653e-07
2.11057e-07
-2.12615e-07
8.4753e-07
-8.45797e-10
1.56802e-09
0.00106623
-2.2676e-07
1.19977e-06
2.26065e-07
8.44882e-07
-2.09895e-07
2.08328e-07
-8.45003e-07
-9.2728e-10
-0.00106709
1.5066e-09
-1.17031e-06
2.2622e-07
-2.26874e-07
-8.45013e-07
2.08428e-07
8.44927e-07
-2.09965e-07
1.19977e-06
0.00106623
-8.47918e-10
-0.00106623
1.57071e-09
-1.19811e-06
2.26066e-07
-2.26754e-07
-8.45003e-07
2.08322e-07
-2.09891e-07
8.44875e-07
-2.09421e-07
-2.16707e-07
0.000260469
-1.16668e-06
0.000262411
-0.000260469
2.11087e-07
2.18374e-07
-9.1054e-10
1.50323e-09
0.00106727
-2.24207e-07
1.16679e-06
2.23543e-07
8.4505e-07
-2.12651e-07
2.11116e-07
-8.45117e-07
-9.27239e-10
-0.00106676
1.49066e-09
-1.165e-06
2.23495e-07
-2.24141e-07
-8.44839e-07
2.11033e-07
8.44808e-07
-2.12579e-07
1.16679e-06
0.00106727
-9.06689e-10
-0.00106727
1.49808e-09
-1.16512e-06
2.23544e-07
-2.24201e-07
-8.45119e-07
2.11109e-07
-2.12647e-07
8.45042e-07
-0.000260482
2.1339e-07
2.18582e-07
1.20597e-06
1.16774e-06
-2.09276e-07
-2.19404e-07
0.000260487
-1.20763e-06
-1.16942e-06
0.000262432
-0.000260487
2.10937e-07
2.21076e-07
1.57804e-09
0.00106632
-2.32179e-07
1.20763e-06
2.31475e-07
8.47476e-07
-2.07243e-07
-8.47588e-07
2.05663e-07
-1.21134e-06
-8.45988e-10
1.57913e-09
0.00106675
-2.34941e-07
1.21301e-06
2.34244e-07
8.53031e-07
-2.12679e-07
-8.53155e-07
2.11094e-07
0.00106632
-8.26202e-10
-0.00106632
1.57585e-09
-1.20597e-06
2.31474e-07
-2.32177e-07
-8.47599e-07
2.05664e-07
-2.07243e-07
8.47468e-07
1.21301e-06
0.00106675
-8.36727e-10
-0.00106675
1.58837e-09
-1.21135e-06
2.3424e-07
-2.34942e-07
-8.53158e-07
2.1109e-07
-2.12676e-07
8.53023e-07
-2.11983e-07
-2.16737e-07
0.000260505
-1.172e-06
0.000262458
-0.000260505
2.13661e-07
2.18413e-07
1.49308e-09
0.00106737
-2.26904e-07
1.16942e-06
2.26253e-07
8.47634e-07
-2.12667e-07
-8.47694e-07
2.11124e-07
-1.20342e-06
-8.35869e-10
1.57016e-09
0.00106643
-2.32228e-07
1.20508e-06
2.31525e-07
8.47531e-07
-2.12623e-07
-8.47656e-07
2.11056e-07
0.00106737
-9.22205e-10
-0.00106737
1.49095e-09
-1.16774e-06
2.26253e-07
-2.26904e-07
-8.47693e-07
2.11125e-07
-2.12663e-07
8.4763e-07
1.20507e-06
0.00106643
-8.28223e-10
-0.00106643
1.56908e-09
-1.20342e-06
2.31522e-07
-2.32228e-07
-8.47656e-07
2.11054e-07
-2.12618e-07
8.47527e-07
-8.47051e-10
1.56899e-09
0.00106623
-2.2676e-07
1.19977e-06
2.26065e-07
8.44883e-07
-2.09895e-07
2.08328e-07
-8.45001e-07
-9.09885e-10
-0.00106709
1.51266e-09
-1.17031e-06
2.26218e-07
-2.26877e-07
-8.45017e-07
2.08424e-07
8.44922e-07
-2.09969e-07
1.19976e-06
0.00106623
-8.29816e-10
-0.00106623
1.58072e-09
-1.19812e-06
2.26062e-07
-2.26757e-07
-8.45008e-07
2.08317e-07
-2.09895e-07
8.44871e-07
-2.0942e-07
-2.16706e-07
0.000260469
-1.16668e-06
0.000262411
-0.000260469
2.11084e-07
2.1837e-07
-9.09209e-10
1.50375e-09
0.00106727
-2.24207e-07
1.16679e-06
2.23542e-07
8.4505e-07
-2.1265e-07
2.11115e-07
-8.45117e-07
-9.09044e-10
-0.00106676
1.49811e-09
-1.16501e-06
2.23492e-07
-2.24145e-07
-8.44845e-07
2.11031e-07
8.44805e-07
-2.12585e-07
1.16678e-06
0.00106727
-8.87456e-10
-0.00106727
1.50836e-09
-1.16512e-06
2.2354e-07
-2.24205e-07
-8.45123e-07
2.11104e-07
-2.12651e-07
8.45037e-07
-0.000260482
2.13386e-07
2.18579e-07
1.20597e-06
1.16775e-06
-2.09281e-07
-2.19405e-07
0.000260487
-1.20764e-06
-1.16942e-06
0.000262432
-0.000260487
2.10948e-07
2.21076e-07
1.57864e-09
0.00106632
-2.3218e-07
1.20763e-06
2.31474e-07
8.47475e-07
-2.07251e-07
-8.47593e-07
2.05666e-07
-1.21135e-06
-8.2798e-10
1.58916e-09
0.00106675
-2.34944e-07
1.21301e-06
2.34242e-07
8.53027e-07
-2.12684e-07
-8.53158e-07
2.11091e-07
0.00106632
-8.27656e-10
-0.00106632
1.566e-09
-1.20597e-06
2.31478e-07
-2.32172e-07
-8.47596e-07
2.05682e-07
-2.07244e-07
8.47478e-07
1.21301e-06
0.00106675
-8.17231e-10
-0.00106675
1.59929e-09
-1.21134e-06
2.34241e-07
-2.3494e-07
-8.53159e-07
2.11085e-07
-2.12675e-07
8.53021e-07
-2.11988e-07
-2.1674e-07
0.000260505
-1.172e-06
0.000262458
-0.000260505
2.13656e-07
2.18414e-07
1.49404e-09
0.00106737
-2.26905e-07
1.16942e-06
2.26252e-07
8.47632e-07
-2.1267e-07
-8.47696e-07
2.11121e-07
-1.20342e-06
-8.25388e-10
1.57685e-09
0.00106643
-2.32231e-07
1.20507e-06
2.31522e-07
8.47528e-07
-2.12627e-07
-8.47659e-07
2.11053e-07
0.00106737
-9.1574e-10
-0.00106737
1.4825e-09
-1.16774e-06
2.26257e-07
-2.26901e-07
-8.47693e-07
2.11121e-07
-2.12662e-07
8.47627e-07
1.20507e-06
0.00106643
-8.21476e-10
-0.00106643
1.57087e-09
-1.20342e-06
2.3152e-07
-2.3223e-07
-8.47656e-07
2.11054e-07
-2.12618e-07
8.47527e-07
-8.27532e-10
1.57755e-09
0.00106623
-2.26764e-07
1.19976e-06
2.26061e-07
8.44878e-07
-2.099e-07
2.08323e-07
-8.45007e-07
-9.20279e-10
-0.00106709
1.51511e-09
-1.17032e-06
2.26217e-07
-2.26878e-07
-8.45015e-07
2.08426e-07
8.44925e-07
-2.09966e-07
1.19976e-06
0.00106623
-8.06813e-10
-0.00106623
1.57846e-09
-1.19812e-06
2.26059e-07
-2.26761e-07
-8.4501e-07
2.08314e-07
-2.09898e-07
8.44869e-07
-2.09423e-07
-2.16709e-07
0.000260469
-1.16668e-06
0.000262411
-0.000260469
2.11087e-07
2.1837e-07
-8.88085e-10
1.51219e-09
0.00106727
-2.24211e-07
1.16678e-06
2.23538e-07
8.45045e-07
-2.12655e-07
2.1111e-07
-8.45121e-07
-9.04528e-10
-0.00106676
1.48894e-09
-1.165e-06
2.23497e-07
-2.24143e-07
-8.4485e-07
2.11033e-07
8.44806e-07
-2.12591e-07
1.16679e-06
0.00106727
-8.54224e-10
-0.00106727
1.50643e-09
-1.16512e-06
2.23549e-07
-2.24199e-07
-8.45121e-07
2.11108e-07
-2.1265e-07
8.45043e-07