/*--------------------------------*- C++ -*----------------------------------*\
| =========                 |                                                 |
| \\      /  F ield         | OpenFOAM: The Open Source CFD Toolbox           |
|  \\    /   O peration     | Version:  2206                                  |
|   \\  /    A nd           | Website:  www.openfoam.com                      |
|    \\/     M anipulation  |                                                 |
\*---------------------------------------------------------------------------*/
FoamFile
{
    version     2.0;
    format      ascii;
    arch        "LSB;label=32;scalar=64";
    class       volScalarField;
    location    "35";
    object      epsilon;
}
// * * * * * * * * * * * * * * * * * * * * * * * * * * * * * * * * * * * * * //

dimensions      [0 2 -3 0 0 0 0];

internalField   nonuniform List<scalar> 
28335
(
2.52543e-07
2.81525e-07
2.81536e-07
3.16145e-07
2.52545e-07
2.81528e-07
2.8154e-07
3.16156e-07
2.52546e-07
2.81532e-07
2.81543e-07
3.16163e-07
2.52548e-07
2.81536e-07
2.81547e-07
3.16171e-07
2.52545e-07
2.81539e-07
2.8155e-07
3.16179e-07
2.52543e-07
2.8154e-07
2.81551e-07
3.16185e-07
2.52541e-07
2.81542e-07
2.81554e-07
3.1619e-07
2.52513e-07
2.81503e-07
2.81515e-07
3.16163e-07
2.52441e-07
2.81427e-07
2.81438e-07
3.16055e-07
2.52434e-07
2.81421e-07
2.81433e-07
3.1605e-07
2.52434e-07
2.81421e-07
2.81432e-07
3.16053e-07
2.52434e-07
2.81421e-07
2.81432e-07
3.16052e-07
2.52434e-07
2.81421e-07
2.81432e-07
3.16053e-07
2.52434e-07
2.81421e-07
2.81432e-07
3.1605e-07
2.52434e-07
2.81421e-07
2.81432e-07
3.16049e-07
2.52434e-07
2.81421e-07
2.81432e-07
3.16052e-07
2.52434e-07
2.8142e-07
2.81432e-07
3.16053e-07
3.1587e-07
2.81548e-07
2.81554e-07
3.1586e-07
2.81532e-07
2.81561e-07
2.81525e-07
2.81552e-07
3.15877e-07
2.81536e-07
2.81534e-07
3.15872e-07
3.16145e-07
3.15876e-07
2.81551e-07
2.81557e-07
2.81551e-07
2.81557e-07
3.16136e-07
3.15866e-07
2.81535e-07
2.81564e-07
2.81535e-07
2.81564e-07
2.81554e-07
2.81528e-07
2.81554e-07
3.16152e-07
3.15882e-07
2.81537e-07
2.81539e-07
2.81537e-07
3.15883e-07
3.16151e-07
3.15883e-07
2.81554e-07
2.8156e-07
2.81555e-07
2.8156e-07
3.16142e-07
3.15873e-07
2.81538e-07
2.81567e-07
2.81538e-07
2.81567e-07
2.81557e-07
2.81531e-07
2.81558e-07
3.16158e-07
3.15889e-07
2.8154e-07
2.81543e-07
2.81541e-07
3.15889e-07
3.16158e-07
3.15891e-07
2.81558e-07
2.81563e-07
2.81559e-07
2.81565e-07
3.16149e-07
3.15881e-07
2.81541e-07
2.8157e-07
2.81542e-07
2.81571e-07
2.81561e-07
2.81535e-07
2.81562e-07
3.16164e-07
3.15897e-07
2.81544e-07
2.81547e-07
2.81545e-07
3.15897e-07
3.16166e-07
3.15899e-07
2.81562e-07
2.81568e-07
2.81562e-07
2.81568e-07
3.16157e-07
3.15889e-07
2.81545e-07
2.81575e-07
2.81546e-07
2.81575e-07
2.81565e-07
2.81539e-07
2.81565e-07
3.16172e-07
3.15906e-07
2.81548e-07
2.8155e-07
2.81548e-07
3.15905e-07
3.16174e-07
3.15906e-07
2.81565e-07
2.81571e-07
2.81564e-07
2.8157e-07
3.16165e-07
3.15896e-07
2.81549e-07
2.81578e-07
2.81548e-07
2.81577e-07
2.81568e-07
2.8154e-07
2.81567e-07
3.16181e-07
3.15913e-07
2.81551e-07
2.81551e-07
2.81549e-07
3.15912e-07
3.16181e-07
3.15911e-07
2.81565e-07
2.81571e-07
2.81565e-07
2.81571e-07
3.16172e-07
3.15901e-07
2.81549e-07
2.81578e-07
2.81548e-07
2.81577e-07
2.81568e-07
2.81542e-07
2.81568e-07
3.16188e-07
3.15917e-07
2.81551e-07
2.81553e-07
2.8155e-07
3.15916e-07
3.16186e-07
3.15893e-07
2.81566e-07
2.81573e-07
2.81551e-07
2.81556e-07
3.16177e-07
3.15883e-07
2.8155e-07
2.81579e-07
2.81534e-07
2.81564e-07
2.81569e-07
2.81527e-07
2.81554e-07
3.16192e-07
3.159e-07
2.81552e-07
2.81538e-07
2.81536e-07
3.15899e-07
3.16159e-07
3.15786e-07
2.81528e-07
2.81534e-07
2.81462e-07
2.81468e-07
3.16149e-07
3.15776e-07
2.81512e-07
2.81541e-07
2.81446e-07
2.81475e-07
2.81532e-07
2.81438e-07
2.81465e-07
3.16165e-07
3.15792e-07
2.81514e-07
2.81449e-07
2.81447e-07
3.15793e-07
3.1605e-07
3.15766e-07
2.81452e-07
2.81458e-07
2.81445e-07
2.81451e-07
3.16041e-07
3.15755e-07
2.81436e-07
2.81465e-07
2.81429e-07
2.81458e-07
2.81456e-07
2.81421e-07
2.81449e-07
3.16057e-07
3.15772e-07
2.81438e-07
2.81433e-07
2.81431e-07
3.15774e-07
3.16044e-07
3.15773e-07
2.81448e-07
2.81454e-07
2.81445e-07
2.81451e-07
3.16034e-07
3.15763e-07
2.81432e-07
2.8146e-07
2.81429e-07
2.81458e-07
2.81451e-07
2.81421e-07
2.81449e-07
3.1605e-07
3.1578e-07
2.81434e-07
2.81432e-07
2.81431e-07
3.15781e-07
3.16047e-07
3.15771e-07
2.81446e-07
2.81452e-07
2.81444e-07
2.8145e-07
3.16037e-07
3.1576e-07
2.8143e-07
2.81459e-07
2.81428e-07
2.81457e-07
2.8145e-07
2.81421e-07
2.81448e-07
3.16053e-07
3.15777e-07
2.81432e-07
2.81432e-07
2.8143e-07
3.15779e-07
3.16046e-07
3.15771e-07
2.81446e-07
2.81452e-07
2.81444e-07
2.8145e-07
3.16036e-07
3.15761e-07
2.8143e-07
2.81459e-07
2.81428e-07
2.81457e-07
2.8145e-07
2.81421e-07
2.81448e-07
3.16052e-07
3.15778e-07
2.81432e-07
2.81432e-07
2.8143e-07
3.15779e-07
3.16047e-07
3.15769e-07
2.81446e-07
2.81452e-07
2.81444e-07
2.8145e-07
3.16037e-07
3.15759e-07
2.8143e-07
2.81458e-07
2.81428e-07
2.81457e-07
2.81449e-07
2.81421e-07
2.81448e-07
3.16053e-07
3.15775e-07
2.81432e-07
2.81432e-07
2.8143e-07
3.15776e-07
3.16044e-07
3.1577e-07
2.81446e-07
2.81452e-07
2.81444e-07
2.8145e-07
3.16035e-07
3.1576e-07
2.8143e-07
2.81459e-07
2.81428e-07
2.81457e-07
2.8145e-07
2.81421e-07
2.81448e-07
3.16051e-07
3.15777e-07
2.81432e-07
2.81432e-07
2.8143e-07
3.15778e-07
3.16044e-07
3.15772e-07
2.81446e-07
2.81452e-07
2.81444e-07
2.8145e-07
3.16035e-07
3.15762e-07
2.8143e-07
2.81459e-07
2.81428e-07
2.81457e-07
2.81449e-07
2.81421e-07
2.81448e-07
3.16051e-07
3.15778e-07
2.81432e-07
2.81432e-07
2.8143e-07
3.1578e-07
3.16046e-07
3.15772e-07
2.81446e-07
2.81452e-07
2.81444e-07
2.8145e-07
3.16036e-07
3.15761e-07
2.8143e-07
2.81458e-07
2.81428e-07
2.81457e-07
2.81449e-07
2.8142e-07
2.81448e-07
3.16052e-07
3.15778e-07
2.81431e-07
2.81432e-07
2.8143e-07
3.1578e-07
3.16046e-07
2.81446e-07
2.81452e-07
3.16036e-07
2.8143e-07
2.81458e-07
2.81449e-07
3.16052e-07
2.81432e-07
1.80928e-06
8.87091e-06
2.12523e-05
1.8092e-06
8.87246e-06
2.52543e-07
2.52545e-07
2.52548e-07
2.52546e-07
5.40496e-07
2.81524e-07
1.44829e-06
2.62632e-07
2.12519e-05
5.4052e-07
2.81536e-07
2.62634e-07
1.44827e-06
3.15865e-07
3.22915e-06
3.23013e-06
1.80951e-06
8.87102e-06
1.81005e-06
8.87058e-06
2.12506e-05
2.12503e-05
1.80943e-06
8.87258e-06
1.80992e-06
8.87211e-06
2.52546e-07
2.5255e-07
2.52548e-07
2.52545e-07
2.52545e-07
2.52549e-07
2.52547e-07
5.40531e-07
1.44929e-06
2.62631e-07
2.81528e-07
5.40691e-07
1.44847e-06
2.62634e-07
2.12507e-05
2.12502e-05
5.40555e-07
2.62634e-07
1.44924e-06
2.81539e-07
5.4072e-07
2.62636e-07
1.44845e-06
3.22998e-06
3.23092e-06
3.15878e-07
3.22951e-06
3.23045e-06
1.80963e-06
8.87086e-06
1.8102e-06
8.87051e-06
2.12494e-05
2.12494e-05
1.80955e-06
8.87237e-06
1.81006e-06
8.87199e-06
2.52545e-07
2.52549e-07
2.52547e-07
2.52546e-07
2.52544e-07
2.52548e-07
2.52546e-07
5.40563e-07
1.44942e-06
2.62633e-07
2.81531e-07
5.40725e-07
1.44857e-06
2.62635e-07
2.12494e-05
2.12493e-05
5.40588e-07
2.62635e-07
1.44937e-06
2.81543e-07
5.40754e-07
2.62638e-07
1.44856e-06
3.23024e-06
3.23117e-06
3.15885e-07
3.22971e-06
3.23065e-06
1.80968e-06
8.87083e-06
1.81027e-06
8.87047e-06
2.1249e-05
2.12492e-05
1.80959e-06
8.87232e-06
1.81013e-06
8.87194e-06
2.52546e-07
2.5255e-07
2.52548e-07
2.52548e-07
2.52546e-07
2.5255e-07
2.52548e-07
5.40588e-07
1.44948e-06
2.62635e-07
2.81535e-07
5.40753e-07
1.44862e-06
2.62637e-07
2.12489e-05
2.1249e-05
5.40612e-07
2.62637e-07
1.44944e-06
2.81546e-07
5.40782e-07
2.6264e-07
1.4486e-06
3.23032e-06
3.23126e-06
3.15893e-07
3.22974e-06
3.23069e-06
1.80969e-06
8.87081e-06
1.81029e-06
8.87048e-06
2.12492e-05
2.12495e-05
1.80959e-06
8.87231e-06
1.81015e-06
8.87197e-06
2.52549e-07
2.52553e-07
2.52551e-07
2.52546e-07
2.52546e-07
2.52551e-07
2.52548e-07
5.40604e-07
1.44951e-06
2.62636e-07
2.81539e-07
5.40773e-07
1.44864e-06
2.62638e-07
2.12489e-05
2.12492e-05
5.40626e-07
2.62639e-07
1.44946e-06
2.8155e-07
5.40801e-07
2.62641e-07
1.44862e-06
3.23034e-06
3.23129e-06
3.15901e-07
3.22979e-06
3.23074e-06
1.80966e-06
8.87085e-06
1.81027e-06
8.87055e-06
2.12496e-05
2.125e-05
1.80957e-06
8.87237e-06
1.81012e-06
8.87206e-06
2.52546e-07
2.5255e-07
2.52548e-07
2.52543e-07
2.52543e-07
2.52546e-07
2.52544e-07
5.40611e-07
1.44953e-06
2.62637e-07
2.81541e-07
5.40782e-07
1.44866e-06
2.62638e-07
2.12494e-05
2.12498e-05
5.40634e-07
2.62639e-07
1.44947e-06
2.81551e-07
5.40808e-07
2.6264e-07
1.44863e-06
3.23041e-06
3.23136e-06
3.15908e-07
3.22985e-06
3.2308e-06
1.80966e-06
8.87094e-06
1.81026e-06
8.87071e-06
2.12501e-05
2.12507e-05
1.80957e-06
8.87237e-06
1.81011e-06
8.87206e-06
2.52542e-07
2.52546e-07
2.52544e-07
2.52541e-07
2.5254e-07
2.52543e-07
2.52541e-07
5.40619e-07
1.44953e-06
2.62634e-07
2.81542e-07
5.4079e-07
1.44866e-06
2.62635e-07
2.12501e-05
2.12505e-05
5.40642e-07
2.62637e-07
1.44947e-06
2.81554e-07
5.40818e-07
2.62638e-07
1.44863e-06
3.23042e-06
3.23136e-06
3.15914e-07
3.22982e-06
3.23077e-06
1.8098e-06
8.87131e-06
1.81031e-06
8.87109e-06
2.12503e-05
2.125e-05
1.80971e-06
8.87263e-06
1.81017e-06
8.87236e-06
2.5254e-07
2.52544e-07
2.52542e-07
2.52531e-07
2.52531e-07
2.52535e-07
2.52533e-07
5.40625e-07
1.4496e-06
2.62634e-07
2.81541e-07
5.40798e-07
1.44875e-06
2.62633e-07
2.12504e-05
2.12501e-05
5.40646e-07
2.62636e-07
1.44954e-06
2.81553e-07
5.40824e-07
2.62636e-07
1.44873e-06
3.2305e-06
3.23144e-06
3.15915e-07
3.22997e-06
3.23092e-06
1.80967e-06
8.87141e-06
1.81039e-06
8.87099e-06
2.12491e-05
2.12492e-05
1.80958e-06
8.87267e-06
1.81025e-06
8.87221e-06
2.52514e-07
2.52518e-07
2.52516e-07
2.52452e-07
2.52451e-07
2.52454e-07
2.52453e-07
5.40516e-07
1.4496e-06
2.62604e-07
2.8148e-07
5.40749e-07
1.44864e-06
2.62582e-07
2.12493e-05
2.12492e-05
5.40539e-07
2.62606e-07
1.44955e-06
2.81491e-07
5.40775e-07
2.62584e-07
1.44862e-06
3.23053e-06
3.23147e-06
3.15851e-07
3.22985e-06
3.2308e-06
1.80947e-06
8.8712e-06
1.81012e-06
8.87081e-06
2.12489e-05
2.1249e-05
1.80938e-06
8.87244e-06
1.80998e-06
8.87202e-06
2.52442e-07
2.52446e-07
2.52444e-07
2.52434e-07
2.52436e-07
2.52439e-07
2.52438e-07
5.40431e-07
1.4494e-06
2.6253e-07
2.81424e-07
5.40624e-07
1.44848e-06
2.62528e-07
2.12488e-05
2.12489e-05
5.40453e-07
2.62532e-07
1.44935e-06
2.81435e-07
5.4065e-07
2.6253e-07
1.44847e-06
3.23029e-06
3.23123e-06
3.15767e-07
3.22966e-06
3.2306e-06
1.80943e-06
8.87112e-06
1.81004e-06
8.87077e-06
2.12488e-05
2.1249e-05
1.80934e-06
8.87234e-06
1.8099e-06
8.87196e-06
2.52437e-07
2.52441e-07
2.52439e-07
2.52434e-07
2.52435e-07
2.52439e-07
2.52437e-07
5.4042e-07
1.44934e-06
2.62525e-07
2.81423e-07
5.40594e-07
1.44845e-06
2.62527e-07
2.12488e-05
2.12489e-05
5.40442e-07
2.62527e-07
1.44929e-06
2.81435e-07
5.4062e-07
2.62529e-07
1.44844e-06
3.2302e-06
3.23114e-06
3.15783e-07
3.22961e-06
3.23056e-06
1.80942e-06
8.87111e-06
1.81003e-06
8.87077e-06
2.12488e-05
2.1249e-05
1.80934e-06
8.87232e-06
1.80989e-06
8.87195e-06
2.52437e-07
2.5244e-07
2.52438e-07
2.52434e-07
2.52435e-07
2.52439e-07
2.52437e-07
5.40417e-07
1.44933e-06
2.62524e-07
2.81422e-07
5.40593e-07
1.44845e-06
2.62526e-07
2.12488e-05
2.12489e-05
5.4044e-07
2.62527e-07
1.44928e-06
2.81433e-07
5.40619e-07
2.62528e-07
1.44843e-06
3.23019e-06
3.23113e-06
3.15777e-07
3.2296e-06
3.23055e-06
1.80942e-06
8.87111e-06
1.81003e-06
8.87077e-06
2.12488e-05
2.1249e-05
1.80934e-06
8.87232e-06
1.80989e-06
8.87195e-06
2.52437e-07
2.5244e-07
2.52438e-07
2.52434e-07
2.52435e-07
2.52439e-07
2.52437e-07
5.40417e-07
1.44933e-06
2.62524e-07
2.81422e-07
5.40591e-07
1.44845e-06
2.62526e-07
2.12488e-05
2.12489e-05
5.40445e-07
2.62526e-07
1.44928e-06
2.81433e-07
5.4062e-07
2.62528e-07
1.44843e-06
3.23019e-06
3.23113e-06
3.15778e-07
3.2296e-06
3.23055e-06
1.80942e-06
8.87111e-06
1.81003e-06
8.87077e-06
2.12488e-05
2.1249e-05
1.80934e-06
8.87231e-06
1.80989e-06
8.87195e-06
2.52437e-07
2.5244e-07
2.52438e-07
2.52434e-07
2.52435e-07
2.52439e-07
2.52437e-07
5.40417e-07
1.44933e-06
2.62524e-07
2.81422e-07
5.40591e-07
1.44845e-06
2.62526e-07
2.12488e-05
2.12489e-05
5.40453e-07
2.62526e-07
1.44928e-06
2.81433e-07
5.40629e-07
2.62528e-07
1.44843e-06
3.23019e-06
3.23113e-06
3.1578e-07
3.2296e-06
3.23055e-06
1.80942e-06
8.87111e-06
1.81003e-06
8.87077e-06
2.12489e-05
2.1249e-05
1.80934e-06
8.87231e-06
1.80989e-06
8.87195e-06
2.52437e-07
2.5244e-07
2.52438e-07
2.52434e-07
2.52435e-07
2.52439e-07
2.52437e-07
5.40417e-07
1.44933e-06
2.62524e-07
2.81422e-07
5.40591e-07
1.44845e-06
2.62526e-07
2.12488e-05
2.12489e-05
5.40457e-07
2.62527e-07
1.44928e-06
2.81434e-07
5.40634e-07
2.62528e-07
1.44843e-06
3.23019e-06
3.23113e-06
3.15781e-07
3.2296e-06
3.23055e-06
1.80942e-06
8.87111e-06
1.81003e-06
8.87077e-06
2.12489e-05
2.12491e-05
1.80934e-06
8.87231e-06
1.80989e-06
8.87194e-06
2.52437e-07
2.5244e-07
2.52438e-07
2.52434e-07
2.52435e-07
2.52439e-07
2.52437e-07
5.40416e-07
1.44933e-06
2.62524e-07
2.81422e-07
5.4059e-07
1.44845e-06
2.62526e-07
2.12488e-05
2.12489e-05
5.40457e-07
2.62527e-07
1.44928e-06
2.81433e-07
5.40636e-07
2.62528e-07
1.44843e-06
3.23019e-06
3.23113e-06
3.15778e-07
3.2296e-06
3.23055e-06
1.80942e-06
8.87111e-06
1.81003e-06
8.87077e-06
2.12489e-05
2.12491e-05
1.80934e-06
8.87231e-06
1.80989e-06
8.87194e-06
2.52437e-07
2.5244e-07
2.52438e-07
2.52434e-07
2.52435e-07
2.52439e-07
2.52437e-07
5.40417e-07
1.44933e-06
2.62524e-07
2.81422e-07
5.40591e-07
1.44845e-06
2.62526e-07
2.12488e-05
2.12489e-05
5.40456e-07
2.62527e-07
1.44928e-06
2.81433e-07
5.40635e-07
2.62528e-07
1.44843e-06
3.23019e-06
3.23113e-06
3.15777e-07
3.2296e-06
3.23055e-06
1.80942e-06
8.87111e-06
1.81003e-06
8.87077e-06
2.12489e-05
2.12491e-05
1.80934e-06
8.87231e-06
1.80989e-06
8.87194e-06
2.52437e-07
2.5244e-07
2.52438e-07
5.40419e-07
1.44933e-06
2.62524e-07
2.81422e-07
5.40591e-07
1.44845e-06
2.62526e-07
2.12488e-05
2.12487e-05
5.40456e-07
2.62527e-07
1.44928e-06
2.81434e-07
5.40633e-07
2.62529e-07
1.44843e-06
3.23019e-06
3.23113e-06
3.15777e-07
3.22974e-06
3.23077e-06
2.12515e-05
2.12526e-05
3.15859e-07
3.22911e-06
3.23001e-06
2.12503e-05
2.12511e-05
2.12513e-05
2.12521e-05
3.16139e-07
3.22924e-06
3.23016e-06
3.22967e-06
3.23059e-06
1.80931e-06
8.87187e-06
5.40492e-07
2.81548e-07
1.44822e-06
2.62633e-07
5.40497e-07
2.81554e-07
1.44843e-06
2.62634e-07
1.80992e-06
8.87072e-06
8.87121e-06
1.80942e-06
1.80995e-06
8.87166e-06
8.87216e-06
1.80945e-06
5.40674e-07
2.81548e-07
1.44833e-06
2.62632e-07
1.44908e-06
2.62632e-07
5.40509e-07
5.4068e-07
2.81554e-07
1.44853e-06
2.62633e-07
1.4493e-06
2.62633e-07
5.40514e-07
3.15849e-07
3.22995e-06
3.22875e-06
2.12494e-05
2.12511e-05
2.12519e-05
3.16129e-07
3.23024e-06
3.22906e-06
3.23056e-06
3.22947e-06
2.12483e-05
2.12493e-05
5.40521e-07
2.81531e-07
1.44854e-06
2.62635e-07
1.80919e-06
8.87186e-06
5.40507e-07
2.81561e-07
2.62638e-07
1.44859e-06
1.80978e-06
8.87226e-06
8.87277e-06
1.80934e-06
5.40699e-07
2.81531e-07
1.44864e-06
2.62635e-07
1.44939e-06
2.62635e-07
5.40538e-07
1.80977e-06
8.87166e-06
8.87218e-06
1.80932e-06
5.40688e-07
2.81561e-07
2.62637e-07
1.4487e-06
2.62637e-07
1.4495e-06
5.40525e-07
1.80933e-06
8.87135e-06
5.40502e-07
2.81551e-07
2.62634e-07
1.44829e-06
1.80932e-06
8.87194e-06
5.40677e-07
2.81524e-07
1.44839e-06
2.62631e-07
1.44919e-06
2.62631e-07
5.40513e-07
1.80996e-06
8.87115e-06
8.87167e-06
1.80946e-06
5.40682e-07
2.81551e-07
2.62634e-07
1.44839e-06
2.62634e-07
1.44916e-06
5.40519e-07
1.80995e-06
8.87174e-06
8.87224e-06
1.80945e-06
3.15866e-07
3.2299e-06
3.22915e-06
2.12523e-05
2.12509e-05
2.12518e-05
3.16146e-07
3.23036e-06
3.2293e-06
3.23068e-06
3.22973e-06
2.1251e-05
2.12519e-05
5.40524e-07
2.81534e-07
2.62634e-07
1.44847e-06
1.80918e-06
8.87208e-06
1.80919e-06
8.87276e-06
5.40706e-07
2.81536e-07
2.62634e-07
1.44838e-06
2.62634e-07
1.44914e-06
5.40537e-07
5.4071e-07
2.81534e-07
2.62634e-07
1.44857e-06
2.62634e-07
1.44934e-06
5.40542e-07
1.80977e-06
8.87188e-06
8.87238e-06
1.80932e-06
1.80978e-06
8.87255e-06
8.87305e-06
1.80933e-06
2.12525e-05
2.1253e-05
3.16143e-07
3.22935e-06
3.23031e-06
3.22975e-06
3.23072e-06
2.12512e-05
2.1252e-05
2.12517e-05
2.12525e-05
2.12499e-05
2.12493e-05
2.12509e-05
2.12504e-05
3.22981e-06
3.23073e-06
3.15872e-07
3.22938e-06
3.2303e-06
2.12488e-05
2.12491e-05
2.12498e-05
2.12501e-05
3.16148e-07
3.2295e-06
3.23042e-06
3.22994e-06
3.23087e-06
1.80954e-06
8.87197e-06
1.81007e-06
8.87151e-06
5.40528e-07
1.44918e-06
2.62633e-07
2.81551e-07
5.40692e-07
1.44841e-06
2.62633e-07
5.40533e-07
1.4494e-06
2.62635e-07
2.81557e-07
5.40697e-07
1.44862e-06
2.62635e-07
1.81012e-06
8.87052e-06
8.87091e-06
1.80958e-06
1.81015e-06
8.87143e-06
8.87184e-06
1.8096e-06
5.4071e-07
2.81551e-07
1.44847e-06
2.62633e-07
1.44925e-06
2.62632e-07
5.40545e-07
5.40715e-07
2.81557e-07
1.44868e-06
2.62634e-07
1.44948e-06
2.62634e-07
5.4055e-07
3.23088e-06
3.22974e-06
3.15862e-07
3.23057e-06
3.22926e-06
2.12481e-05
2.12475e-05
2.12497e-05
2.12501e-05
3.16139e-07
3.23069e-06
3.22939e-06
3.23116e-06
3.22992e-06
2.1247e-05
2.12474e-05
5.40556e-07
1.44949e-06
2.62637e-07
2.81535e-07
5.40717e-07
1.44872e-06
2.62637e-07
1.80941e-06
8.872e-06
1.80989e-06
8.87152e-06
5.40543e-07
2.62639e-07
1.4496e-06
2.81564e-07
5.40706e-07
2.62639e-07
1.44878e-06
1.80999e-06
8.87202e-06
8.87244e-06
1.8095e-06
5.40735e-07
2.81534e-07
1.44878e-06
2.62635e-07
1.44956e-06
2.62635e-07
5.40574e-07
1.80997e-06
8.87146e-06
8.87188e-06
1.80948e-06
5.40724e-07
2.81563e-07
2.62638e-07
1.44884e-06
2.62638e-07
1.44968e-06
5.4056e-07
1.80955e-06
8.87149e-06
1.81008e-06
8.871e-06
5.40537e-07
2.62635e-07
1.44925e-06
2.81554e-07
5.407e-07
2.62635e-07
1.44847e-06
1.80955e-06
8.87205e-06
1.81008e-06
8.87159e-06
5.40712e-07
2.81528e-07
1.44853e-06
2.62633e-07
1.44935e-06
2.62633e-07
5.40547e-07
1.81017e-06
8.87091e-06
8.87135e-06
1.80962e-06
5.40718e-07
2.81554e-07
2.62634e-07
1.44853e-06
2.62634e-07
1.44932e-06
5.40554e-07
1.81016e-06
8.8715e-06
8.87191e-06
1.80961e-06
3.23104e-06
3.22988e-06
3.15879e-07
3.23055e-06
3.22944e-06
2.12506e-05
2.12501e-05
2.12496e-05
2.12501e-05
3.16155e-07
3.23061e-06
3.22956e-06
3.2312e-06
3.23001e-06
2.12495e-05
2.12498e-05
5.40561e-07
2.62635e-07
1.44944e-06
2.81537e-07
5.40728e-07
2.62635e-07
1.44865e-06
1.80941e-06
8.87219e-06
1.80989e-06
8.87173e-06
1.80942e-06
8.87286e-06
1.8099e-06
8.8724e-06
5.40741e-07
2.81539e-07
2.62635e-07
1.44851e-06
2.62635e-07
1.4493e-06
5.40572e-07
5.40747e-07
2.81537e-07
2.62634e-07
1.44871e-06
2.62634e-07
1.44951e-06
5.40578e-07
1.80998e-06
8.87164e-06
8.87205e-06
1.80948e-06
1.80999e-06
8.87233e-06
8.87272e-06
1.80949e-06
2.12508e-05
2.12503e-05
2.12513e-05
2.12508e-05
3.16155e-07
3.22963e-06
3.23057e-06
3.23009e-06
3.23102e-06
2.12497e-05
2.125e-05
2.12502e-05
2.12505e-05
2.12487e-05
2.12485e-05
2.12497e-05
2.12495e-05
3.23006e-06
3.23098e-06
3.15879e-07
3.22961e-06
3.23051e-06
2.12484e-05
2.12485e-05
2.12494e-05
2.12495e-05
3.16155e-07
3.22965e-06
3.23056e-06
3.23015e-06
3.23106e-06
1.80965e-06
8.87177e-06
1.81021e-06
8.87139e-06
5.40561e-07
1.44931e-06
2.62635e-07
2.81554e-07
5.40728e-07
1.44852e-06
2.62635e-07
5.40566e-07
1.44954e-06
2.62637e-07
2.8156e-07
5.40733e-07
1.44872e-06
2.62637e-07
1.81023e-06
8.8705e-06
8.87086e-06
1.80966e-06
1.81025e-06
8.87136e-06
8.87174e-06
1.80968e-06
5.40743e-07
2.81554e-07
1.44855e-06
2.62635e-07
1.44936e-06
2.62634e-07
5.40575e-07
5.40748e-07
2.8156e-07
1.44875e-06
2.62636e-07
1.44957e-06
2.62636e-07
5.4058e-07
3.23124e-06
3.23004e-06
3.15868e-07
3.23069e-06
3.22947e-06
2.12469e-05
2.12467e-05
2.12492e-05
2.12493e-05
3.16145e-07
3.23066e-06
3.22952e-06
3.23123e-06
3.2301e-06
2.12465e-05
2.12467e-05
5.4059e-07
1.44962e-06
2.62638e-07
2.81538e-07
5.40753e-07
1.44883e-06
2.62638e-07
1.80953e-06
8.87183e-06
1.81004e-06
8.87144e-06
5.40576e-07
2.62641e-07
1.44973e-06
2.81567e-07
5.40741e-07
2.62641e-07
1.44888e-06
1.8101e-06
8.87196e-06
8.87235e-06
1.80958e-06
5.40768e-07
2.81537e-07
1.44886e-06
2.62637e-07
1.44966e-06
2.62636e-07
5.40604e-07
1.81008e-06
8.87141e-06
8.87181e-06
1.80956e-06
5.40756e-07
2.81567e-07
2.6264e-07
1.44891e-06
2.6264e-07
1.44977e-06
5.4059e-07
1.80967e-06
8.87128e-06
1.81023e-06
8.87087e-06
5.4057e-07
2.62637e-07
1.44938e-06
2.81557e-07
5.40734e-07
2.62637e-07
1.44858e-06
1.80966e-06
8.87184e-06
1.81022e-06
8.87147e-06
5.40743e-07
2.81531e-07
1.4486e-06
2.62635e-07
1.44945e-06
2.62635e-07
5.40576e-07
1.81027e-06
8.87084e-06
8.87124e-06
1.80969e-06
5.40749e-07
2.81557e-07
2.62636e-07
1.44861e-06
2.62636e-07
1.44942e-06
5.40583e-07
1.81026e-06
8.87144e-06
8.87181e-06
1.80969e-06
3.23123e-06
3.23012e-06
3.15885e-07
3.23059e-06
3.22965e-06
2.12494e-05
2.12493e-05
2.12491e-05
2.12492e-05
3.16161e-07
3.23057e-06
3.22969e-06
3.23121e-06
3.2302e-06
2.12491e-05
2.12492e-05
5.40595e-07
2.62637e-07
1.44957e-06
2.8154e-07
5.40764e-07
2.62637e-07
1.44876e-06
1.80952e-06
8.87198e-06
1.81004e-06
8.87161e-06
1.80953e-06
8.87267e-06
1.81005e-06
8.87231e-06
5.40772e-07
2.81543e-07
2.62637e-07
1.44859e-06
2.62637e-07
1.4494e-06
5.40601e-07
5.4078e-07
2.8154e-07
2.62636e-07
1.44879e-06
2.62636e-07
1.44961e-06
5.40609e-07
1.81008e-06
8.87157e-06
8.87195e-06
1.80955e-06
1.81009e-06
8.87228e-06
8.87265e-06
1.80956e-06
2.12496e-05
2.12494e-05
2.12501e-05
2.125e-05
3.16162e-07
3.22974e-06
3.23068e-06
3.23026e-06
3.2312e-06
2.12493e-05
2.12494e-05
2.12498e-05
2.12499e-05
2.12483e-05
2.12484e-05
2.12493e-05
2.12494e-05
3.23018e-06
3.2311e-06
3.15886e-07
3.22965e-06
3.23057e-06
2.12484e-05
2.12483e-05
2.12495e-05
2.12494e-05
3.16163e-07
3.22967e-06
3.23059e-06
3.23018e-06
3.23111e-06
1.8097e-06
8.87171e-06
1.81028e-06
8.87134e-06
5.40588e-07
1.44939e-06
2.62637e-07
2.81558e-07
5.40757e-07
1.44857e-06
2.62637e-07
5.40592e-07
1.44959e-06
2.62639e-07
2.81563e-07
5.40761e-07
1.44876e-06
2.62639e-07
1.81027e-06
8.87047e-06
8.87082e-06
1.80969e-06
1.8103e-06
8.87134e-06
8.87169e-06
1.80971e-06
5.40769e-07
2.81559e-07
1.44858e-06
2.62637e-07
1.4494e-06
2.62637e-07
5.40599e-07
5.40773e-07
2.81564e-07
1.44877e-06
2.62638e-07
1.44961e-06
2.62638e-07
5.40602e-07
3.2312e-06
3.23015e-06
3.15876e-07
3.23066e-06
3.22957e-06
2.12465e-05
2.12464e-05
2.12493e-05
2.12492e-05
3.16153e-07
3.23068e-06
3.22961e-06
3.23121e-06
3.23019e-06
2.12464e-05
2.12464e-05
5.40617e-07
1.44969e-06
2.62639e-07
2.81541e-07
5.40782e-07
1.44887e-06
2.62639e-07
1.80958e-06
8.87178e-06
1.81011e-06
8.87139e-06
5.40603e-07
2.62642e-07
1.44979e-06
2.8157e-07
5.4077e-07
2.62642e-07
1.44892e-06
1.81014e-06
8.87194e-06
8.8723e-06
1.8096e-06
5.40793e-07
2.81542e-07
1.44888e-06
2.62639e-07
1.4497e-06
2.62638e-07
5.40626e-07
1.81012e-06
8.87137e-06
8.87176e-06
1.80959e-06
5.40782e-07
2.81571e-07
2.62642e-07
1.44893e-06
2.62642e-07
1.4498e-06
5.40612e-07
1.80971e-06
8.87121e-06
1.81029e-06
8.87082e-06
5.40596e-07
2.62639e-07
1.44945e-06
2.81561e-07
5.40763e-07
2.62639e-07
1.44862e-06
1.80971e-06
8.87179e-06
1.81029e-06
8.87142e-06
5.40768e-07
2.81535e-07
1.44863e-06
2.62636e-07
1.44949e-06
2.62637e-07
5.40598e-07
1.81031e-06
8.87082e-06
8.8712e-06
1.80972e-06
5.40775e-07
2.81561e-07
2.62638e-07
1.44863e-06
2.62638e-07
1.44946e-06
5.40607e-07
1.8103e-06
8.87142e-06
8.87177e-06
1.80972e-06
3.23119e-06
3.23023e-06
3.15893e-07
3.23058e-06
3.22971e-06
2.12491e-05
2.12491e-05
2.1249e-05
2.1249e-05
3.16169e-07
3.23061e-06
3.22973e-06
3.23121e-06
3.23025e-06
2.12492e-05
2.12491e-05
5.40622e-07
2.62639e-07
1.44964e-06
2.81544e-07
5.40793e-07
2.62639e-07
1.44881e-06
1.80957e-06
8.87192e-06
1.8101e-06
8.87155e-06
1.80958e-06
8.87262e-06
1.81011e-06
8.87226e-06
5.40796e-07
2.81546e-07
2.62639e-07
1.44861e-06
2.62639e-07
1.44944e-06
5.40621e-07
5.40805e-07
2.81544e-07
2.62638e-07
1.44882e-06
2.62638e-07
1.44965e-06
5.40631e-07
1.81012e-06
8.87155e-06
8.8719e-06
1.80957e-06
1.81013e-06
8.87226e-06
8.87261e-06
1.80958e-06
2.12492e-05
2.12493e-05
2.12498e-05
2.12498e-05
3.16169e-07
3.22976e-06
3.23071e-06
3.23029e-06
3.23123e-06
2.12493e-05
2.12492e-05
2.12499e-05
2.12498e-05
2.12484e-05
2.12486e-05
2.12495e-05
2.12496e-05
3.2302e-06
3.23114e-06
3.15894e-07
3.2297e-06
3.23063e-06
2.12488e-05
2.12486e-05
2.12499e-05
2.12496e-05
3.16171e-07
3.22975e-06
3.23067e-06
3.23024e-06
3.23117e-06
1.80971e-06
8.8717e-06
1.8103e-06
8.87137e-06
5.40607e-07
1.44941e-06
2.6264e-07
2.81562e-07
5.4078e-07
1.44859e-06
2.6264e-07
5.4061e-07
1.44962e-06
2.62641e-07
2.81568e-07
5.40783e-07
1.44878e-06
2.62641e-07
1.81028e-06
8.8705e-06
8.87084e-06
1.80967e-06
1.8103e-06
8.8714e-06
8.87173e-06
1.80969e-06
5.40786e-07
2.81562e-07
1.44859e-06
2.62639e-07
1.44942e-06
2.62639e-07
5.40611e-07
5.40789e-07
2.81568e-07
1.44879e-06
2.6264e-07
1.44963e-06
2.6264e-07
5.40614e-07
3.23123e-06
3.23023e-06
3.15884e-07
3.23071e-06
3.22965e-06
2.12464e-05
2.12466e-05
2.12497e-05
2.12495e-05
3.16161e-07
3.23075e-06
3.22969e-06
3.23127e-06
3.23028e-06
2.12469e-05
2.12467e-05
5.40632e-07
1.44971e-06
2.62641e-07
2.81545e-07
5.40802e-07
1.44889e-06
2.62641e-07
1.80958e-06
8.87175e-06
1.81012e-06
8.87138e-06
5.40619e-07
2.62645e-07
1.44981e-06
2.81575e-07
5.40791e-07
2.62645e-07
1.44894e-06
1.81013e-06
8.872e-06
8.87234e-06
1.80957e-06
5.40807e-07
2.81545e-07
1.4489e-06
2.6264e-07
1.44972e-06
2.6264e-07
5.40635e-07
1.81011e-06
8.87141e-06
8.87177e-06
1.80956e-06
5.40796e-07
2.81575e-07
2.62644e-07
1.44895e-06
2.62644e-07
1.44982e-06
5.40623e-07
1.80972e-06
8.87121e-06
1.81031e-06
8.87085e-06
5.40614e-07
2.62641e-07
1.44947e-06
2.81565e-07
5.40785e-07
2.62641e-07
1.44864e-06
1.80972e-06
8.87177e-06
1.81031e-06
8.87144e-06
5.40782e-07
2.81539e-07
1.44865e-06
2.62637e-07
1.44951e-06
2.62638e-07
5.40608e-07
1.81031e-06
8.87089e-06
8.87124e-06
1.8097e-06
5.40791e-07
2.81565e-07
2.6264e-07
1.44864e-06
2.6264e-07
1.44948e-06
5.40617e-07
1.81031e-06
8.87148e-06
8.8718e-06
1.8097e-06
3.23124e-06
3.23027e-06
3.159e-07
3.23064e-06
3.22976e-06
2.12492e-05
2.12493e-05
2.12494e-05
2.12492e-05
3.16177e-07
3.23068e-06
3.2298e-06
3.23127e-06
3.23031e-06
2.12496e-05
2.12493e-05
5.40637e-07
2.62641e-07
1.44966e-06
2.81548e-07
5.40814e-07
2.62641e-07
1.44882e-06
1.80957e-06
8.87191e-06
1.81012e-06
8.87157e-06
1.80958e-06
8.87261e-06
1.81013e-06
8.87226e-06
5.40808e-07
2.8155e-07
2.6264e-07
1.44863e-06
2.62641e-07
1.44946e-06
5.40629e-07
5.40818e-07
2.81548e-07
2.6264e-07
1.44883e-06
2.6264e-07
1.44967e-06
5.4064e-07
1.81011e-06
8.87161e-06
8.87194e-06
1.80955e-06
1.81012e-06
8.87226e-06
8.87261e-06
1.80956e-06
2.12493e-05
2.12495e-05
2.12499e-05
2.125e-05
3.16177e-07
3.22982e-06
3.23078e-06
3.23034e-06
3.23128e-06
2.12497e-05
2.12495e-05
2.12502e-05
2.125e-05
2.12488e-05
2.12491e-05
2.12499e-05
2.12501e-05
3.23028e-06
3.23121e-06
3.15902e-07
3.22977e-06
3.2307e-06
2.12494e-05
2.12491e-05
2.12504e-05
2.12501e-05
3.16178e-07
3.22977e-06
3.2307e-06
3.23031e-06
3.23124e-06
1.80969e-06
8.87177e-06
1.81028e-06
8.87146e-06
5.40616e-07
1.44942e-06
2.62642e-07
2.81566e-07
5.4079e-07
1.4486e-06
2.62642e-07
5.4062e-07
1.44963e-06
2.62642e-07
2.81571e-07
5.40794e-07
1.44879e-06
2.62642e-07
1.81025e-06
8.87058e-06
8.87091e-06
1.80965e-06
1.81027e-06
8.87151e-06
8.87183e-06
1.80967e-06
5.40795e-07
2.81564e-07
1.44859e-06
2.62637e-07
1.44943e-06
2.6264e-07
5.40619e-07
5.40799e-07
2.8157e-07
1.44879e-06
2.62638e-07
1.44964e-06
2.6264e-07
5.40624e-07
3.2313e-06
3.23032e-06
3.15891e-07
3.23077e-06
3.22972e-06
2.1247e-05
2.12472e-05
2.12502e-05
2.12499e-05
3.16168e-07
3.23076e-06
3.22971e-06
3.23132e-06
3.23034e-06
2.12475e-05
2.12473e-05
5.40641e-07
1.44972e-06
2.62643e-07
2.81549e-07
5.40811e-07
1.44891e-06
2.62643e-07
1.80956e-06
8.8718e-06
1.8101e-06
8.87147e-06
5.40629e-07
2.62645e-07
1.44983e-06
2.81578e-07
5.408e-07
2.62645e-07
1.44896e-06
1.8101e-06
8.87199e-06
8.87244e-06
1.80956e-06
5.40816e-07
2.81548e-07
1.44889e-06
2.62639e-07
1.44973e-06
2.6264e-07
5.40646e-07
1.81009e-06
8.87152e-06
8.87187e-06
1.80955e-06
5.40806e-07
2.81577e-07
2.62642e-07
1.44896e-06
2.62643e-07
1.44984e-06
5.40633e-07
1.80969e-06
8.87128e-06
1.81029e-06
8.87095e-06
5.40622e-07
2.62641e-07
1.44948e-06
2.81568e-07
5.40794e-07
2.62641e-07
1.44865e-06
1.80969e-06
8.87184e-06
1.81029e-06
8.87153e-06
5.40789e-07
2.8154e-07
1.44865e-06
2.62634e-07
1.44953e-06
2.62637e-07
5.40615e-07
1.81028e-06
8.871e-06
8.87134e-06
1.80968e-06
5.40799e-07
2.81567e-07
2.62638e-07
1.44865e-06
2.62639e-07
1.44949e-06
5.40626e-07
1.81028e-06
8.87158e-06
8.8719e-06
1.80968e-06
3.23131e-06
3.23034e-06
3.15908e-07
3.23071e-06
3.22983e-06
2.12496e-05
2.12498e-05
2.125e-05
2.12498e-05
3.16184e-07
3.23071e-06
3.22983e-06
3.23134e-06
3.23037e-06
2.12501e-05
2.12498e-05
5.40645e-07
2.62642e-07
1.44967e-06
2.81551e-07
5.40822e-07
2.62642e-07
1.44883e-06
1.80954e-06
8.87198e-06
1.81009e-06
8.87167e-06
1.80955e-06
8.87262e-06
1.8101e-06
8.87229e-06
5.40816e-07
2.81551e-07
2.62638e-07
1.44863e-06
2.6264e-07
1.44947e-06
5.40638e-07
5.40826e-07
2.81549e-07
2.62637e-07
1.44882e-06
2.6264e-07
1.44967e-06
5.40648e-07
1.81008e-06
8.87172e-06
8.87204e-06
1.80953e-06
1.81009e-06
8.87232e-06
8.87265e-06
1.80954e-06
2.12497e-05
2.125e-05
2.12502e-05
2.12505e-05
3.16185e-07
3.22985e-06
3.2308e-06
3.2304e-06
3.23134e-06
2.12503e-05
2.125e-05
2.12508e-05
2.12505e-05
2.12494e-05
2.12498e-05
2.12504e-05
2.12509e-05
3.23029e-06
3.23122e-06
3.15908e-07
3.22974e-06
3.23067e-06
2.12499e-05
2.12498e-05
2.1251e-05
2.12509e-05
3.16184e-07
3.22981e-06
3.23074e-06
3.23028e-06
3.23121e-06
1.80968e-06
8.87188e-06
1.81027e-06
8.87163e-06
5.40618e-07
1.44942e-06
2.62637e-07
2.81565e-07
5.40798e-07
1.4486e-06
2.62637e-07
5.40624e-07
1.44963e-06
2.62639e-07
2.81571e-07
5.40803e-07
1.44879e-06
2.62639e-07
1.81024e-06
8.87092e-06
8.8711e-06
1.80967e-06
1.81027e-06
8.87183e-06
8.87203e-06
1.80969e-06
5.40795e-07
2.81565e-07
1.44864e-06
2.62635e-07
1.44943e-06
2.62636e-07
5.40615e-07
5.40801e-07
2.81571e-07
1.44883e-06
2.62637e-07
1.44964e-06
2.62637e-07
5.40621e-07
3.2313e-06
3.23032e-06
3.15897e-07
3.23073e-06
3.22968e-06
2.12477e-05
2.1248e-05
2.12506e-05
2.12507e-05
3.16174e-07
3.23085e-06
3.22975e-06
3.23128e-06
3.23031e-06
2.12481e-05
2.12481e-05
5.40645e-07
1.44977e-06
2.62638e-07
2.81549e-07
5.40821e-07
1.44893e-06
2.62638e-07
1.80956e-06
8.87192e-06
1.81009e-06
8.87165e-06
5.40633e-07
2.62642e-07
1.44983e-06
2.81578e-07
5.40811e-07
2.62642e-07
1.44896e-06
1.8101e-06
8.87223e-06
8.87247e-06
1.80958e-06
5.40817e-07
2.81548e-07