/*--------------------------------*- C++ -*----------------------------------*\
| =========                 |                                                 |
| \\      /  F ield         | OpenFOAM: The Open Source CFD Toolbox           |
|  \\    /   O peration     | Version:  2206                                  |
|   \\  /    A nd           | Website:  www.openfoam.com                      |
|    \\/     M anipulation  |                                                 |
\*---------------------------------------------------------------------------*/
FoamFile
{
    version     2.0;
    format      ascii;
    arch        "LSB;label=32;scalar=64";
    class       surfaceScalarField;
    location    "14";
    object      phi;
}
// * * * * * * * * * * * * * * * * * * * * * * * * * * * * * * * * * * * * * //

dimensions      [0 3 -1 0 0 0 0];

oriented        oriented;

internalField   nonuniform List<scalar> 
82717
(
1.14543e-09
1.15437e-09
-1.0914e-09
-1.11388e-09
0.00107046
-0.00107103
-1.17812e-06
-1.25763e-09
1.67478e-09
0.00107103
-2.31025e-07
1.18005e-06
2.3037e-07
8.55796e-07
-2.20385e-07
-8.55688e-07
2.18771e-07
-1.17277e-06
-1.18568e-09
1.73703e-09
0.0010707
-2.31014e-07
1.17468e-06
2.30333e-07
8.55618e-07
-2.23058e-07
-8.55578e-07
2.21391e-07
1.206e-06
1.17288e-06
-2.1606e-07
-2.21276e-07
0.000261418
1.3779e-09
1.43967e-09
-0.00107046
-1.26353e-09
-1.24235e-09
0.00107046
-0.00107103
-1.17803e-06
-1.52041e-09
1.56379e-09
0.00107103
-2.30908e-07
1.18012e-06
2.3048e-07
8.55876e-07
-2.20225e-07
-8.55623e-07
2.18924e-07
-0.0010707
-1.1727e-06
-1.45733e-09
1.58157e-09
0.0010707
-2.30926e-07
1.17475e-06
2.30439e-07
8.55707e-07
-2.22885e-07
-8.5551e-07
2.21568e-07
-0.000263359
1.20593e-06
1.17282e-06
-2.1598e-07
-2.21189e-07
0.000261418
1.2577e-09
1.64972e-09
-0.00107045
-1.40108e-09
-1.08889e-09
0.00107045
-0.00107103
-1.17823e-06
-9.13237e-10
2.35026e-09
0.00107103
-2.31174e-07
1.17983e-06
2.30092e-07
8.55748e-07
-2.20327e-07
-8.55642e-07
2.18678e-07
-0.00107069
-1.1726e-06
-1.54725e-09
1.53247e-09
0.00107069
-2.30813e-07
1.17481e-06
2.30502e-07
8.55746e-07
-2.22759e-07
-8.55393e-07
2.2166e-07
-0.000263359
1.2058e-06
1.17273e-06
-2.15812e-07
-2.20986e-07
0.000261417
2.68312e-10
3.42091e-10
-0.00107046
-6.77747e-10
-6.89647e-10
0.00107046
-0.00107103
-1.17829e-06
-5.44033e-10
1.85687e-09
0.00107103
-2.3123e-07
1.17999e-06
2.30322e-07
8.55723e-07
-2.20927e-07
-8.55968e-07
2.18466e-07
-0.0010707
-1.17299e-06
-3.63367e-10
2.01571e-09
0.0010707
-2.31298e-07
1.1746e-06
2.30234e-07
8.55496e-07
-2.23737e-07
-8.55898e-07
2.20958e-07
-0.000263359
1.20622e-06
1.1731e-06
-2.16367e-07
-2.21577e-07
0.000261418
9.23193e-10
1.00229e-09
-0.00107046
-9.96902e-10
-9.98733e-10
0.00107046
-0.00107103
-1.17818e-06
-1.04234e-09
1.77883e-09
0.00107103
-2.31103e-07
1.18004e-06
2.30355e-07
8.55789e-07
-2.20573e-07
-8.55832e-07
2.18714e-07
-0.0010707
-1.17284e-06
-1.01611e-09
1.76865e-09
0.0010707
-2.3109e-07
1.1747e-06
2.30365e-07
8.55617e-07
-2.23205e-07
-8.5571e-07
2.21371e-07
-0.00026336
1.20607e-06
1.17295e-06
-2.16131e-07
-2.21345e-07
0.000261418
9.33275e-10
1.05724e-09
-0.00107046
-1.02286e-09
-9.91878e-10
0.00107046
-0.00107103
-1.17818e-06
-1.06473e-09
1.81317e-09
0.00107103
-2.31107e-07
1.18004e-06
2.3035e-07
8.55803e-07
-2.2056e-07
-8.5582e-07
2.18725e-07
-0.0010707
-1.17283e-06
-1.07573e-09
1.76132e-09
0.0010707
-2.31089e-07
1.1747e-06
2.30367e-07
8.55632e-07
-2.23186e-07
-8.55693e-07
2.21385e-07
-0.00026336
1.20606e-06
1.17294e-06
-2.16124e-07
-2.2133e-07
0.000261418
7.88581e-10
1.05105e-09
-0.00107046
-9.98285e-10
-9.19837e-10
0.00107046
-0.00107103
-1.17822e-06
-1.05278e-09
1.91187e-09
0.00107103
-2.31162e-07
1.18e-06
2.30294e-07
8.55811e-07
-2.2056e-07
-8.55817e-07
2.1873e-07
-0.0010707
-1.17283e-06
-1.10394e-09
1.76495e-09
0.0010707
-2.3109e-07
1.1747e-06
2.30367e-07
8.55637e-07
-2.23182e-07
-8.55689e-07
2.2139e-07
-0.00026336
1.20605e-06
1.17294e-06
-2.16124e-07
-2.21326e-07
0.000261418
9.30148e-10
1.00908e-09
-0.00107046
-9.77871e-10
-9.65081e-10
0.00107046
-0.00107103
-1.17815e-06
-1.13733e-09
1.72139e-09
0.00107103
-2.31053e-07
1.18008e-06
2.30419e-07
8.55808e-07
-2.20537e-07
-8.55806e-07
2.18741e-07
-0.0010707
-1.17283e-06
-1.12096e-09
1.7643e-09
0.0010707
-2.31088e-07
1.17471e-06
2.30368e-07
8.5564e-07
-2.23178e-07
-8.55685e-07
2.21393e-07
-0.00026336
1.20605e-06
1.17294e-06
-2.1612e-07
-2.21325e-07
0.000261418
8.87071e-10
9.73022e-10
-0.00107045
-9.93339e-10
-1.02114e-09
0.00107045
-0.00107103
-1.17817e-06
-1.05435e-09
1.79778e-09
0.00107103
-2.33823e-07
1.18006e-06
2.3305e-07
8.55801e-07
-2.20593e-07
-8.55825e-07
2.18743e-07
-0.0010707
-1.17283e-06
-1.08448e-09
1.76345e-09
0.0010707
-2.31089e-07
1.1747e-06
2.30366e-07
8.55634e-07
-2.23181e-07
-8.55689e-07
2.21388e-07
-0.00026336
1.20605e-06
1.17294e-06
-2.16119e-07
-2.21328e-07
0.000261418
1.00874e-09
1.05517e-09
-0.00107045
-1.02406e-09
-1.03668e-09
0.00107045
-0.00107103
-1.17816e-06
-1.07893e-09
1.76385e-09
0.00107103
-2.33827e-07
1.18005e-06
2.33102e-07
8.55803e-07
-2.20584e-07
-8.55819e-07
2.18749e-07
-0.0010707
-1.17283e-06
-1.07826e-09
1.75706e-09
0.0010707
-2.31087e-07
1.17471e-06
2.30368e-07
8.55634e-07
-2.23182e-07
-8.5569e-07
2.21387e-07
-0.00026336
1.20605e-06
1.17294e-06
-2.16119e-07
-2.21327e-07
0.000261418
1.01209e-09
1.06652e-09
-0.00107045
-1.0393e-09
-1.0341e-09
0.00107045
-0.00107103
-1.17815e-06
-1.0729e-09
1.76742e-09
0.00107103
-2.33824e-07
1.18005e-06
2.33106e-07
8.558e-07
-2.20586e-07
-8.5582e-07
2.18745e-07
-0.0010707
-1.17283e-06
-1.06931e-09
1.7525e-09
0.0010707
-2.31086e-07
1.17471e-06
2.30369e-07
8.55631e-07
-2.23184e-07
-8.55692e-07
2.21385e-07
-0.00026336
1.20605e-06
1.17294e-06
-2.1612e-07
-2.21329e-07
0.000261418
1.00187e-09
1.06344e-09
-0.00107045
-1.04014e-09
-1.0281e-09
0.00107045
-0.00107103
-1.17816e-06
-1.06841e-09
1.7726e-09
0.00107103
-2.33826e-07
1.18005e-06
2.33103e-07
8.55801e-07
-2.20585e-07
-8.55819e-07
2.18745e-07
-0.0010707
-1.17283e-06
-1.06037e-09
1.75599e-09
0.0010707
-2.31088e-07
1.1747e-06
2.30368e-07
8.5563e-07
-2.23186e-07
-8.55693e-07
2.21383e-07
-0.00026336
1.20606e-06
1.17294e-06
-2.16122e-07
-2.2133e-07
0.000261418
9.94512e-10
1.06125e-09
-0.00107045
-1.036e-09
-1.02435e-09
0.00107045
-0.00107103
-1.17816e-06
-1.06898e-09
1.77426e-09
0.00107103
-2.33827e-07
1.18005e-06
2.33102e-07
8.55801e-07
-2.20585e-07
-8.55819e-07
2.18745e-07
-0.0010707
-1.17283e-06
-1.05699e-09
1.76003e-09
0.0010707
-2.31089e-07
1.1747e-06
2.30366e-07
8.55629e-07
-2.23187e-07
-8.55694e-07
2.21382e-07
-0.00026336
1.20606e-06
1.17294e-06
-2.16123e-07
-2.21331e-07
0.000261418
9.8908e-10
1.06069e-09
-0.00107045
-1.03648e-09
-1.02146e-09
0.00107045
-0.00107103
-1.17816e-06
-1.0641e-09
1.77664e-09
0.00107103
-2.33828e-07
1.18004e-06
2.33101e-07
8.55799e-07
-2.20587e-07
-8.55821e-07
2.18744e-07
-0.0010707
-1.17283e-06
-1.05582e-09
1.75979e-09
0.0010707
-2.31088e-07
1.1747e-06
2.30366e-07
8.55628e-07
-2.23187e-07
-8.55695e-07
2.21381e-07
-0.00026336
1.20606e-06
1.17294e-06
-2.16124e-07
-2.21333e-07
0.000261418
9.93665e-10
1.06698e-09
-0.00107045
-1.03918e-09
-1.02278e-09
0.00107045
-0.00107103
-1.17816e-06
-1.07335e-09
1.77244e-09
0.00107103
-2.33826e-07
1.18005e-06
2.33103e-07
8.55802e-07
-2.20584e-07
-8.55818e-07
2.18747e-07
-0.0010707
-1.17283e-06
-1.06645e-09
1.75429e-09
0.0010707
-2.31086e-07
1.17471e-06
2.30369e-07
8.55631e-07
-2.23186e-07
-8.55693e-07
2.21386e-07
-0.00026336
1.20606e-06
1.17294e-06
-2.16122e-07
-2.21331e-07
0.000261418
9.97682e-10
1.06901e-09
-0.00107045
-1.04129e-09
-1.02558e-09
0.00107045
-0.00107103
-1.17816e-06
-1.07072e-09
1.77508e-09
0.00107103
-2.33827e-07
1.18005e-06
2.33102e-07
8.55801e-07
-2.20587e-07
-8.55819e-07
2.18747e-07
-0.0010707
-1.17283e-06
-1.06506e-09
1.75669e-09
0.0010707
-2.31086e-07
1.1747e-06
2.30364e-07
8.55627e-07
-2.23183e-07
-8.55692e-07
2.21378e-07
-0.00026336
1.20605e-06
1.17294e-06
-2.16121e-07
-2.21328e-07
0.000261418
9.93248e-10
1.0688e-09
-0.00107045
-1.04329e-09
-1.02496e-09
0.00107045
-0.00107103
-1.17816e-06
-1.07643e-09
1.76705e-09
0.00107103
-2.33825e-07
1.18005e-06
2.33107e-07
8.55795e-07
-2.20578e-07
-8.55808e-07
2.18744e-07
-0.0010707
-1.17282e-06
-1.06182e-09
1.75611e-09
0.0010707
-2.31083e-07
1.1747e-06
2.30361e-07
8.5562e-07
-2.23179e-07
-8.55688e-07
2.21371e-07
-0.00026336
1.20605e-06
1.17294e-06
-2.16116e-07
-2.21325e-07
0.000261418
1.04605e-09
1.14015e-09
-0.00107045
-1.09214e-09
-1.04991e-09
0.00107045
-0.00107103
-1.17814e-06
-1.08838e-09
1.77145e-09
0.00107103
-2.33805e-07
1.18004e-06
2.3309e-07
8.55776e-07
-2.20547e-07
-8.55781e-07
2.1872e-07
-0.0010707
-1.1728e-06
-1.12177e-09
1.72949e-09
0.0010707
-2.31049e-07
1.17469e-06
2.30353e-07
8.55613e-07
-2.23126e-07
-8.5564e-07
2.21357e-07
-0.00026336
1.20602e-06
1.17292e-06
-2.16097e-07
-2.21298e-07
0.000261418
1.21855e-06
0.00107069
-1.21665e-06
2.38412e-07
-2.39129e-07
-8.61206e-07
2.21415e-07
-2.23201e-07
8.61257e-07
-1.18005e-06
0.000263404
-0.000261446
2.18221e-07
2.23011e-07
-1.17812e-06
2.30367e-07
-2.31033e-07
2.18717e-07
-2.20445e-07
1.21127e-06
1.17551e-06
-2.13564e-07
-2.18724e-07
0.000261423
-1.21321e-06
-1.17748e-06
0.000263377
-0.000261423
2.15567e-07
2.20721e-07
1.88124e-09
0.00107026
-2.39088e-07
1.21315e-06
2.38345e-07
8.5571e-07
-2.20415e-07
-8.55663e-07
2.18673e-07
-1.21665e-06
-1.04378e-09
-3.50998e-09
0.0010707
-2.39127e-07
1.21854e-06
2.38413e-07
8.6124e-07
-2.23141e-07
-8.61236e-07
2.21469e-07
0.00107026
-1.49476e-09
-0.00107026
1.67195e-09
-1.21121e-06
2.38428e-07
-2.39011e-07
-8.55583e-07
2.18827e-07
-2.20236e-07
8.55775e-07
1.21861e-06
0.00107069
-1.29768e-09
-0.00107069
1.62027e-09
-1.21658e-06
2.38507e-07
-2.39043e-07
-8.61132e-07
2.21582e-07
-2.23027e-07
8.61305e-07
-2.16279e-07
-2.21089e-07
0.000261446
-1.18013e-06
0.000263403
-0.000261446
2.18331e-07
2.23119e-07
1.72238e-09
0.0010713
-2.33753e-07
1.17742e-06
2.33064e-07
8.58505e-07
-2.2317e-07
-8.58397e-07
2.21454e-07
-1.21132e-06
-1.08507e-09
1.83142e-09
0.00107037
-2.39127e-07
1.21321e-06
2.38385e-07
8.58392e-07
-2.23128e-07
-8.58365e-07
2.21388e-07
0.0010713
-1.52241e-09
-0.0010713
1.52185e-09
-1.17546e-06
2.33147e-07
-2.33678e-07
-8.58312e-07
2.21606e-07
-2.22991e-07
8.58573e-07
1.21326e-06
0.00107037
-1.42781e-09
-0.00107037
1.63661e-09
-1.21127e-06
2.38464e-07
-2.39048e-07
-8.58284e-07
2.21531e-07
-2.22955e-07
8.58457e-07
-1.12815e-09
1.85041e-09
0.00107017
-2.33636e-07
1.20788e-06
2.32913e-07
8.55737e-07
-2.20381e-07
2.18652e-07
-8.55692e-07
-1.54975e-09
-0.00107103
1.53452e-09
-1.17805e-06
2.30475e-07
-2.30936e-07
-8.55621e-07
2.18897e-07
8.55864e-07
-2.20261e-07
1.20793e-06
0.00107017
-1.44994e-09
-0.00107017
1.65887e-09
-1.20595e-06
2.32988e-07
-2.33563e-07
-8.55619e-07
2.18797e-07
-2.20212e-07
8.55795e-07
-2.13749e-07
-2.21057e-07
0.000261405
-1.17473e-06
0.000263354
-0.000261405
2.15734e-07
2.23045e-07
-1.1346e-09
1.70972e-09
0.00107121
-2.31062e-07
1.17479e-06
2.30396e-07
8.53251e-07
-2.20475e-07
2.18763e-07
-8.53166e-07
-1.54796e-09
-0.0010707
1.53442e-09
-1.17272e-06
2.30414e-07
-2.30931e-07
-8.55448e-07
2.21522e-07
8.55736e-07
-2.22901e-07
1.17484e-06
0.00107121
-1.4881e-09
-0.00107121
1.53214e-09
-1.17283e-06
2.30468e-07
-2.30992e-07
-8.53085e-07
2.18912e-07
-2.20303e-07
8.5332e-07
-0.000261418
2.18045e-07
2.23259e-07
1.2112e-06
1.17546e-06
-2.13485e-07
-2.18637e-07
0.000261423
-1.21344e-06
-1.1803e-06
0.000263374
-0.000261422
2.18297e-07
2.23552e-07
1.68353e-09
0.00107026
-2.39002e-07
1.21323e-06
2.38464e-07
8.55795e-07
-2.20252e-07
-8.55604e-07
2.18847e-07
-1.21657e-06
-1.35384e-09
1.63302e-09
0.00107069
-2.39021e-07
1.2186e-06
2.38513e-07
8.61306e-07
-2.22987e-07
-8.61109e-07
2.21613e-07
0.00107026
-1.79419e-09
-0.00107025
1.20353e-09
-1.21106e-06
2.38687e-07
-2.3886e-07
-8.58147e-07
2.19056e-07
-2.22817e-07
8.5599e-07
1.2187e-06
0.00107069
-1.36786e-09
-0.00107069
1.69311e-09
-1.21647e-06
2.38586e-07
-2.38924e-07
-8.6101e-07
2.21709e-07
-2.22881e-07
8.61379e-07
-2.16152e-07
-2.20964e-07
0.000261446
-1.18019e-06
0.000263402
-0.000261445
2.18439e-07
2.23258e-07
1.60595e-09
0.0010713
-2.33681e-07
1.17749e-06
2.33201e-07
8.58598e-07
-2.23002e-07
-8.58327e-07
2.2163e-07
-1.21126e-06
-1.35911e-09
1.67913e-09
0.00107037
-2.39039e-07
1.21329e-06
2.38491e-07
8.58485e-07
-2.22958e-07
-8.58295e-07
2.21563e-07
0.00107129
-2.09226e-09
-0.00107129
1.33273e-09
-1.17799e-06
2.36099e-07
-2.36308e-07
-8.58183e-07
2.21878e-07
-2.22856e-07
8.58843e-07
1.21348e-06
0.00107037
-1.89652e-09
-0.00107037
1.33321e-09
-1.21114e-06
2.38698e-07
-2.38913e-07
-8.58165e-07
2.21789e-07
-2.22825e-07
8.58712e-07
-1.36559e-09
1.6688e-09
0.00107017
-2.33548e-07
1.20796e-06
2.33023e-07
8.55818e-07
-2.20215e-07
2.18823e-07
-8.55632e-07
-1.74746e-09
-0.00107103
1.63283e-09
-1.17793e-06
2.30545e-07
-2.3081e-07
-8.55496e-07
2.19102e-07
8.56064e-07
-2.20084e-07
1.20817e-06
0.00107017
-1.82078e-09
-0.00107017
1.21952e-09
-1.2058e-06
2.33243e-07
-2.33408e-07
-8.5552e-07
2.1903e-07
-2.20102e-07
8.56029e-07
-2.13661e-07
-2.2097e-07
0.000261405
-1.17495e-06
0.000263353
-0.000261404
2.15972e-07
2.23281e-07
-1.43127e-09
1.58904e-09
0.00107121
-2.30982e-07
1.17486e-06
2.30495e-07
8.53348e-07
-2.20304e-07
2.18943e-07
-8.53095e-07
-2.02355e-09
-0.00107069
1.2436e-09
-1.17258e-06
2.30649e-07
-2.30797e-07
-8.55328e-07
2.21775e-07
8.55995e-07
-2.22775e-07
1.17504e-06
0.0010712
-2.06146e-09
-0.00107121
1.31883e-09
-1.17271e-06
2.30689e-07
-2.30868e-07
-8.52955e-07
2.19178e-07
-2.20166e-07
8.53589e-07
-0.000261417
2.18269e-07
2.23512e-07
1.21106e-06
1.17801e-06
-2.15856e-07
-2.21018e-07
0.000261422
-1.21297e-06
-1.17986e-06
0.000263375
-0.000261422
2.17681e-07
2.22909e-07
1.33028e-09
0.00107025
-2.38853e-07
1.21332e-06
2.38566e-07
8.58424e-07
-2.20164e-07
-8.55547e-07
2.21585e-07
-1.21671e-06
-4.0518e-10
2.39246e-09
0.00107069
-2.39244e-07
1.2184e-06
2.3819e-07
8.60985e-07
-2.23227e-07
-8.61345e-07
2.21224e-07
0.00107026
9.8997e-11
-0.00107025
2.30556e-09
-1.21157e-06
2.38102e-07
-2.39512e-07
-8.58836e-07
2.20685e-07
-2.2393e-07
8.58067e-07
1.21843e-06
0.00107069
-4.15752e-11
-0.00107069
2.13369e-09
-1.2169e-06
2.38258e-07
-2.39473e-07
-8.61601e-07
2.20916e-07
-2.23952e-07
8.61032e-07
-2.16327e-07
-2.21063e-07
0.000261445
-1.17994e-06
0.000263403
-0.000261446
2.18006e-07
2.22811e-07
1.6398e-09
0.00107129
-2.36326e-07
1.18016e-06
2.35952e-07
8.58651e-07
-2.22855e-07
-8.58196e-07
2.21743e-07
-1.21115e-06
-1.4359e-09
1.61754e-09
0.00107037
-2.38925e-07
1.21334e-06
2.38556e-07
8.58519e-07
-2.22832e-07
-8.58183e-07
2.21652e-07
0.00107129
1.11003e-11
-0.00107129
2.22849e-09
-1.17849e-06
2.35539e-07
-2.36949e-07
-8.58893e-07
2.208e-07
-2.23981e-07
8.58229e-07
1.21303e-06
0.00107037
9.8609e-11
-0.00107037
2.28942e-09
-1.21164e-06
2.38129e-07
-2.39561e-07
-8.58875e-07
2.20717e-07
-2.23944e-07
8.58101e-07
-1.32541e-09
1.39512e-09
0.00107017
-2.33409e-07
1.20804e-06
2.33113e-07
8.55831e-07
-2.20113e-07
2.18891e-07
-8.55543e-07
-1.44136e-10
-0.00107103
2.05547e-09
-1.17837e-06
2.30226e-07
-2.31363e-07
-8.56192e-07
2.18225e-07
8.55552e-07
-2.21184e-07
1.2077e-06
0.00107017
9.62002e-11
-0.00107017
2.28585e-09
-1.20631e-06
2.32663e-07
-2.34061e-07
-8.56206e-07
2.17975e-07
-2.2121e-07
8.55446e-07
-2.13481e-07
-2.20786e-07
0.000261404
-1.17449e-06
0.000263354
-0.000261404
2.15333e-07
2.22652e-07
-1.63366e-09
1.62137e-09
0.0010712
-2.30887e-07
1.1749e-06
2.30539e-07
8.53401e-07
-2.20165e-07
2.1905e-07
-8.52966e-07
6.20009e-12
-0.00107069
2.18855e-09
-1.1731e-06
2.30073e-07
-2.31451e-07
-8.56034e-07
2.20702e-07
8.55387e-07
-2.23896e-07
1.1746e-06
0.00107121
2.06999e-11
-0.00107121
2.2224e-09
-1.17322e-06
2.30126e-07
-2.31516e-07
-8.53667e-07
2.181e-07
-2.21288e-07
8.52974e-07
-0.000261417
2.17646e-07
2.22869e-07
1.21148e-06
1.17838e-06
-2.16403e-07
-2.21612e-07
0.000261423
-1.21316e-06
-1.18007e-06
0.000263375
-0.000261423
2.18003e-07
2.23213e-07
2.15842e-09
0.00107026
-2.39372e-07
1.21306e-06
2.3825e-07
8.58237e-07
-2.23773e-07
-8.58644e-07
2.20932e-07
-1.21681e-06
-4.52966e-10
1.95686e-09
0.0010707
-2.39327e-07
1.21849e-06
2.38369e-07
8.61135e-07
-2.23675e-07
-8.61457e-07
2.21169e-07
0.00107026
-9.23952e-10
-0.00107026
1.89629e-09
-1.21134e-06
2.38376e-07
-2.39174e-07
-8.5845e-07
2.21316e-07
-2.23271e-07
8.58354e-07
1.21854e-06
0.0010707
-9.03987e-10
-0.0010707
1.85422e-09
-1.21672e-06
2.3846e-07
-2.3921e-07
-8.5869e-07
2.18695e-07
-2.20675e-07
8.58558e-07
-2.16501e-07
-2.21295e-07
0.000261446
-1.18004e-06
0.000263401
-0.000261444
2.20719e-07
2.20489e-07
2.03171e-09
0.00107129
-2.36789e-07
1.17997e-06
2.35704e-07
8.58384e-07
-2.23839e-07
-8.58715e-07
2.21033e-07
-1.21154e-06
-2.57791e-10
2.10846e-09
0.00107037
-2.39409e-07
1.21313e-06
2.38288e-07
8.58267e-07
-2.23809e-07
-8.58692e-07
2.20952e-07
0.00107129
-9.67776e-10
-0.00107129
1.77669e-09
-1.17822e-06
2.35837e-07
-2.36579e-07
-8.58537e-07
2.21415e-07
-2.23351e-07
8.58499e-07
1.21322e-06
0.00107037
-8.78205e-10
-0.00107037
1.86353e-09
-1.2114e-06
2.38415e-07
-2.3921e-07
-8.58506e-07
2.21345e-07
-2.23308e-07
8.58385e-07
-2.84485e-10
2.15007e-09
0.00107017
-2.33917e-07
1.2078e-06
2.32813e-07
8.55614e-07
-2.21067e-07
2.18213e-07
-8.56015e-07
-1.02007e-09
-0.00107103
1.77073e-09
-1.17819e-06
2.30349e-07
-2.31101e-07
-8.55835e-07
2.18701e-07
8.55785e-07
-2.20592e-07
1.20789e-06
0.00107017
-9.01565e-10
-0.00107017
1.90158e-09
-1.20608e-06
2.32936e-07
-2.33727e-07
-8.55837e-07
2.18607e-07
-2.20566e-07
8.55726e-07
-2.14056e-07
-2.21357e-07
0.000261405
-1.17469e-06
0.000263354
-0.000261405
2.15654e-07
2.22962e-07
-3.50091e-10
2.02805e-09
0.00107121
-2.31352e-07
1.17471e-06
2.30293e-07
8.53135e-07
-2.21152e-07
2.18334e-07
-8.53484e-07
-9.84852e-10
-0.0010707
1.77046e-09
-1.17285e-06
2.30364e-07
-2.31094e-07
-8.55672e-07
2.21329e-07
8.55662e-07
-2.2326e-07
1.1748e-06
0.00107121
-9.63855e-10
-0.00107121
1.77775e-09
-1.17296e-06
2.3042e-07
-2.31153e-07
-8.53306e-07
2.18726e-07
-2.20655e-07
8.53249e-07
-0.000261418
2.17966e-07
2.23175e-07
1.21133e-06
1.17822e-06
-2.16163e-07
-2.21377e-07
0.000261423
-1.21318e-06
-1.18008e-06
0.000263375
-0.000261423
2.18011e-07
2.23235e-07
1.8629e-09
0.00107026
-2.39163e-07
1.21317e-06
2.38383e-07
8.58357e-07
-2.23242e-07
-8.58455e-07
2.21335e-07
-1.2167e-06
-9.40467e-10
1.85174e-09
0.0010707
-2.39239e-07
1.21855e-06
2.38469e-07
8.58577e-07
-2.20651e-07
-8.58681e-07
2.18724e-07
0.00107026
-9.76304e-10
-0.00107026
1.841e-09
-1.21132e-06
2.38392e-07
-2.39157e-07
-8.58441e-07
2.21343e-07
-2.23226e-07
8.58364e-07
1.21854e-06
0.0010707
-9.63155e-10
-0.0010707
1.84938e-09
-1.21668e-06
2.35738e-07
-2.36504e-07
-8.58669e-07
2.18705e-07
-2.20617e-07
8.58584e-07
-2.18866e-07
-2.18635e-07
0.000261444
-1.18005e-06
0.000263401
-0.000261441
2.18215e-07
2.205e-07
1.77512e-09
0.00107129
-2.36574e-07
1.18008e-06
2.35839e-07
8.58505e-07
-2.23321e-07
-8.58527e-07
2.21433e-07
-1.21139e-06
-9.28332e-10
1.85754e-09
0.00107037
-2.39203e-07
1.21323e-06
2.38419e-07
8.58396e-07
-2.23273e-07
-8.58493e-07
2.2137e-07
0.00107129
-1.07397e-09
-0.00107129
1.77598e-09
-1.17821e-06
2.35837e-07
-2.36575e-07
-8.58509e-07
2.21452e-07
-2.23297e-07
8.58525e-07
1.21324e-06
0.00107037
-9.64554e-10
-0.00107037
1.83453e-09
-1.21138e-06
2.38423e-07
-2.39199e-07
-8.58486e-07
2.21375e-07
-2.23262e-07
8.58405e-07
-9.43702e-10
1.87736e-09
0.00107017
-2.33716e-07
1.2079e-06
2.32942e-07
8.55733e-07
-2.20532e-07
2.18628e-07
-8.55827e-07
-1.07615e-09
-0.00107103
1.79345e-09
-1.17818e-06
2.30355e-07
-2.31102e-07
-8.55821e-07
2.18725e-07
8.55803e-07
-2.20563e-07
1.20791e-06
0.00107017
-9.81694e-10
-0.00107017
1.83904e-09
-1.20606e-06
2.3295e-07
-2.33711e-07
-8.55818e-07
2.18638e-07
-2.2052e-07
8.55744e-07
-2.13814e-07
-2.21124e-07
0.000261405
-1.1747e-06
0.000263354
-0.000261405
2.15666e-07
2.2298e-07
-1.01343e-09
1.7745e-09
0.00107121
-2.31144e-07
1.17481e-06
2.30423e-07
8.53259e-07
-2.20618e-07
2.18749e-07
-8.53293e-07
-1.08847e-09
-0.0010707
1.75421e-09
-1.17283e-06
2.30369e-07
-2.31086e-07
-8.55646e-07
2.21363e-07
8.55687e-07
-2.23209e-07
1.17481e-06
0.00107121
-1.08012e-09
-0.00107121
1.76326e-09
-1.17295e-06
2.30424e-07
-2.31146e-07
-8.53278e-07
2.18763e-07
-2.20602e-07
8.53276e-07
-0.000261418
2.17978e-07
2.23196e-07
1.21132e-06
1.17822e-06
-2.16159e-07
-2.21364e-07
0.000261423
-1.21318e-06
-1.18005e-06
0.000263375
-0.000261423
2.17968e-07
2.23241e-07
1.82918e-09
0.00107026
-2.39158e-07
1.21318e-06
2.38397e-07
8.5836e-07
-2.23232e-07
-8.58452e-07
2.21338e-07
-1.21668e-06
-9.33873e-10
1.85567e-09
0.0010707
-2.36509e-07
1.21854e-06
2.35735e-07
8.58581e-07
-2.20616e-07
-8.58671e-07
2.18707e-07
0.00107026
-8.81756e-10
-0.00107026
1.84467e-09
-1.21132e-06
2.38388e-07
-2.39164e-07
-8.58472e-07
2.21295e-07
-2.23258e-07
8.58331e-07
1.21854e-06
0.0010707
-8.28964e-10
-0.0010707
1.89063e-09
-1.21669e-06
2.35716e-07
-2.3653e-07
-8.5871e-07
2.18666e-07
-2.20669e-07
8.58553e-07
-2.16346e-07
-2.18626e-07
0.000261441
-1.18001e-06
0.000263401
-0.000261441
2.18159e-07
2.20499e-07
1.79119e-09
0.00107129
-2.36581e-07
1.18007e-06
2.35837e-07
8.58522e-07
-2.23299e-07
-8.5851e-07
2.2145e-07
-1.21138e-06
-9.69033e-10
1.83337e-09
0.00107037
-2.39198e-07
1.21324e-06
2.38424e-07
8.58407e-07
-2.23257e-07
-8.58482e-07
2.21381e-07
0.00107129
-1.07868e-09
-0.00107129
1.84017e-09
-1.17824e-06
2.35813e-07
-2.366e-07
-8.58505e-07
2.21458e-07
-2.23297e-07
8.58533e-07
1.21324e-06
0.00107037
-9.64506e-10
-0.00107037
1.8043e-09
-1.21138e-06
2.38428e-07
-2.39195e-07
-8.58486e-07
2.21376e-07
-2.23262e-07
8.58405e-07
-9.79768e-10
1.83005e-09
0.00107017
-2.33706e-07
1.20791e-06
2.32952e-07
8.55743e-07
-2.20516e-07
2.1864e-07
-8.55816e-07
-1.06308e-09
-0.00107103
1.87775e-09
-1.17821e-06
2.30316e-07
-2.31138e-07
-8.55818e-07
2.18728e-07
8.55811e-07
-2.20564e-07
1.20792e-06
0.00107017
-9.78585e-10
-0.00107017
1.80238e-09
-1.20605e-06
2.32956e-07
-2.33705e-07
-8.55819e-07
2.18638e-07
-2.20521e-07
8.55745e-07
-2.13807e-07
-2.21113e-07
0.000261405
-1.1747e-06
0.000263354
-0.000261405
2.15666e-07
2.22984e-07
-1.08124e-09
1.76819e-09
0.00107121
-2.31143e-07
1.17481e-06
2.30425e-07
8.53276e-07
-2.20596e-07
2.18766e-07
-8.53275e-07
-1.11385e-09
-0.0010707
1.75668e-09
-1.17283e-06
2.30368e-07
-2.31088e-07
-8.55641e-07
2.21368e-07
8.55692e-07
-2.23205e-07
1.17481e-06
0.00107121
-1.10269e-09
-0.00107121
1.75836e-09
-1.17295e-06
2.30424e-07
-2.31146e-07
-8.53275e-07
2.18767e-07
-2.20599e-07
8.5328e-07
-0.000261418
2.17978e-07
2.23201e-07
1.21133e-06
1.17826e-06
-2.16211e-07
-2.2136e-07
0.000261423
-1.21318e-06
-1.17741e-06
0.000263373
-0.000261423
2.17976e-07
2.232e-07
1.87427e-09
0.00107026
-2.39171e-07
1.21318e-06
2.38384e-07
8.58312e-07
-2.23292e-07
-8.58501e-07
2.21262e-07
-1.21669e-06
-7.92266e-10
1.8817e-09
0.0010707
-2.36547e-07
1.21853e-06
2.35701e-07
8.5854e-07
-2.20683e-07
-8.58723e-07
2.18653e-07
0.00107026
-8.94348e-10
-0.00107026
1.90209e-09
-1.21132e-06
2.38386e-07
-2.39165e-07
-8.5845e-07
2.18637e-07
-2.23226e-07
8.55702e-07
1.21858e-06
0.00107069
-8.95297e-10
-0.00107069
1.78829e-09
-1.2167e-06
2.38471e-07
-2.39207e-07
-8.61349e-07
2.21417e-07
-2.2334e-07
8.61224e-07
-2.1641e-07
-2.18632e-07
0.000261441
-1.18004e-06
0.000263404
-0.000261444
2.18212e-07
2.20513e-07
1.87393e-09
0.00107129
-2.36612e-07
1.18003e-06
2.35799e-07
8.58532e-07
-2.23299e-07
-8.58506e-07
2.21458e-07
-1.21137e-06
-9.68107e-10
1.80038e-09
0.00107037
-2.39193e-07
1.21325e-06
2.3843e-07
8.58407e-07
-2.23257e-07
-8.58483e-07
2.21382e-07
0.0010713
-1.03841e-09
-0.00107129
1.86084e-09
-1.17824e-06
2.33098e-07
-2.36604e-07
-8.58501e-07
2.21465e-07
-2.23292e-07
8.58537e-07
1.21325e-06
0.00107037
-9.6265e-10
-0.00107037
1.79133e-09
-1.21138e-06
2.38429e-07
-2.39192e-07
-8.58486e-07
2.21375e-07
-2.23262e-07
8.58405e-07
-9.75932e-10
1.79639e-09
0.00107017
-2.337e-07
1.20792e-06
2.32958e-07
8.55743e-07
-2.20517e-07
2.18639e-07
-8.55817e-07
-1.10509e-09
-0.00107103
1.80279e-09
-1.17819e-06
2.30367e-07
-2.31114e-07
-8.55809e-07
2.1874e-07
8.55812e-07
-2.20545e-07
1.20792e-06
0.00107017
-9.98867e-10
-0.00107017
1.8133e-09
-1.20605e-06
2.32958e-07
-2.33701e-07
-8.55816e-07
2.18637e-07
-2.2052e-07
8.55746e-07
-2.13808e-07
-2.21109e-07
0.000261405
-1.1747e-06
0.000263354
-0.000261405
2.15667e-07
2.22985e-07
-1.08853e-09
1.75923e-09
0.00107121
-2.31143e-07
1.17481e-06
2.30425e-07
8.53277e-07
-2.20595e-07
2.18767e-07
-8.53274e-07
-1.14007e-09
-0.0010707
1.75725e-09
-1.17283e-06
2.30369e-07
-2.31086e-07
-8.55637e-07
2.21372e-07
8.55695e-07
-2.232e-07
1.17481e-06
0.00107121
-1.02418e-09
-0.00107121
1.72966e-09
-1.17294e-06
2.30425e-07
-2.31144e-07
-8.53282e-07
2.18756e-07
-2.20607e-07
8.53269e-07
-0.000261418
2.1798e-07
2.23201e-07
1.21133e-06
1.17558e-06
-2.16175e-07
-2.21334e-07
0.000261423
-1.21581e-06
-1.17744e-06
0.000263378
-0.000261423
2.15467e-07
2.232e-07
1.90146e-09
0.00107026
-2.36462e-07
1.21318e-06
2.35665e-07
8.55699e-07
-2.20524e-07
-8.55797e-07
2.186e-07
-1.21667e-06
-9.82392e-10
1.71173e-09
0.00107069
-2.3915e-07
1.2186e-06
2.38514e-07
8.61252e-07
-2.23268e-07
-8.61305e-07
2.21469e-07
0.00107026
-8.4642e-10
-0.00107026
1.90436e-09
-1.21133e-06
2.38389e-07
-2.39161e-07
-8.5581e-07
2.15931e-07
-2.20561e-07
8.55692e-07
1.21856e-06
0.0010707
-9.43245e-10
-0.0010707
1.79284e-09
-1.2167e-06
2.38427e-07
-2.39216e-07
-8.64023e-07
2.21408e-07
-2.23335e-07
8.63913e-07
-2.16315e-07
-2.18595e-07
0.000261444
-1.18004e-06
0.000263401
-0.000261444
2.18248e-07
2.23004e-07
1.83314e-09
0.0010713
-2.33887e-07
1.17741e-06
2.33091e-07
8.5853e-07
-2.23295e-07
-8.58505e-07
2.2146e-07
-1.21137e-06
-9.64333e-10
1.80155e-09
0.00107037
-2.39192e-07
1.21325e-06
2.38429e-07
8.58408e-07
-2.23256e-07
-8.58481e-07
2.21382e-07
0.00107131
-1.19437e-08
-0.0010713
1.80593e-09
-1.17558e-06
2.3315e-07
-2.33852e-07
-8.585e-07
2.21475e-07
-2.2329e-07
8.58542e-07
1.21324e-06
0.00107037
-9.56302e-10
-0.00107037
1.80994e-09
-1.21138e-06
2.38425e-07
-2.39194e-07
-8.58484e-07
2.21375e-07
-2.23261e-07
8.58405e-07
-1.00802e-09
1.82896e-09
0.00107017
-2.33698e-07
1.20792e-06
2.32958e-07
8.55745e-07
-2.20515e-07
2.18639e-07
-8.55813e-07
-1.1026e-09
-0.00107103
1.77297e-09
-1.17817e-06
2.3305e-07
-2.3381e-07
-8.55825e-07
2.1874e-07
8.558e-07
-2.20595e-07
1.20791e-06
0.00107017
-1.01284e-09
-0.00107017
1.84631e-09
-1.20606e-06
2.32952e-07
-2.33706e-07
-8.55812e-07
2.18642e-07
-2.20515e-07
8.55749e-07
-2.13806e-07
-2.21107e-07
0.000261405
-1.1747e-06
0.000263354
-0.000261405
2.15667e-07
2.22982e-07
-1.00821e-09
1.73175e-09
0.00107121
-2.3114e-07
1.17481e-06
2.30427e-07
8.53265e-07
-2.20605e-07
2.18755e-07
-8.53283e-07
-1.11136e-09
-0.0010707
1.75706e-09
-1.17283e-06
2.30368e-07
-2.31086e-07
-8.55638e-07
2.21369e-07
8.55692e-07
-2.23201e-07
1.17482e-06
0.00107121
-1.06332e-09
-0.00107121
1.74273e-09
-1.17294e-06
2.30427e-07
-2.31142e-07
-8.53279e-07
2.18759e-07
-2.20604e-07
8.53273e-07
-0.000261418
2.17982e-07
2.23198e-07
1.21394e-06
1.17559e-06
-2.1365e-07
-2.2128e-07
0.000261423
-1.21581e-06
-1.17745e-06
0.000263375
-0.000261423
2.15518e-07
2.25705e-07
1.90016e-09
0.00107026
-2.39129e-07
1.2158e-06
2.38383e-07
8.55675e-07
-2.17853e-07
-8.55836e-07
2.15938e-07
-1.2167e-06
-9.69821e-10
1.82073e-09
0.0010707
-2.39223e-07
1.21857e-06
2.38432e-07
8.63946e-07
-2.23301e-07
-8.63995e-07
2.21443e-07
0.00107025
-9.9855e-10
-0.00107025
1.8457e-09
-1.21394e-06
2.38386e-07
-2.39128e-07
-8.58405e-07
2.1597e-07
-2.17845e-07
8.58355e-07
1.21857e-06
0.0010707
-9.55214e-10
-0.0010707
1.83498e-09
-1.21669e-06
2.38446e-07
-2.39208e-07
-8.64011e-07
2.21404e-07
-2.2334e-07
8.63918e-07
-2.16332e-07
-2.18638e-07
0.000261441
-1.18004e-06
0.000263399
-0.000261441
2.18217e-07
2.23025e-07
1.79997e-09
0.00107131
-2.33845e-07
1.17743e-06
2.33135e-07
8.58529e-07
-2.23288e-07
-8.58501e-07
2.21463e-07
-1.21138e-06
-9.62058e-10
1.81722e-09
0.00107037
-2.39195e-07
1.21324e-06
2.38425e-07
8.58408e-07
-2.23256e-07
-8.5848e-07
2.21381e-07
0.00107131
-1.0754e-09
-0.00107131
1.75449e-09
-1.17558e-06
2.33136e-07
-2.33855e-07
-8.58512e-07
2.21458e-07
-2.23297e-07
8.58523e-07
1.21324e-06
0.00107037
-9.74222e-10
-0.00107037
1.83371e-09
-1.21138e-06
2.38423e-07
-2.39196e-07
-8.58482e-07
2.21377e-07
-2.23259e-07
8.58407e-07
-1.00197e-09
1.83722e-09
0.00107017
-2.33703e-07
1.20791e-06
2.32953e-07
8.55747e-07
-2.20511e-07
2.18643e-07
-8.55811e-07
-1.08244e-09
-0.00107103
1.75621e-09
-1.17816e-06
2.33099e-07
-2.3383e-07
-8.55818e-07
2.18744e-07
8.55801e-07
-2.20586e-07
1.20791e-06
0.00107017
-1.00245e-09
-0.00107017
1.83905e-09
-1.20606e-06
2.32952e-07
-2.33707e-07
-8.55812e-07
2.18641e-07
-2.20515e-07
8.55748e-07
-2.13806e-07
-2.2111e-07
0.000261405
-1.1747e-06
0.000263354
-0.000261405
2.15668e-07
2.2298e-07
-1.06204e-09
1.75283e-09
0.00107121
-2.31139e-07
1.17481e-06
2.30427e-07
8.53272e-07
-2.20599e-07
2.18762e-07
-8.53277e-07
-1.09907e-09
-0.0010707
1.74949e-09
-1.17283e-06
2.30368e-07
-2.31085e-07
-8.55641e-07
2.21366e-07
8.55689e-07
-2.23204e-07
1.17481e-06
0.00107121
-1.06469e-09
-0.00107121
1.7483e-09
-1.17294e-06
2.30426e-07
-2.31143e-07
-8.53278e-07
2.18761e-07
-2.20603e-07
8.53275e-07
-0.000261418
2.17981e-07
2.23198e-07
1.21394e-06
1.17557e-06
-2.13654e-07
-2.23818e-07
0.000261423
-1.21581e-06
-1.17745e-06
0.000263375
-0.000261423
2.15514e-07
2.25702e-07
1.85009e-09
0.00107025
-2.39139e-07
1.2158e-06
2.38371e-07
8.58353e-07
-2.17849e-07
-8.58402e-07
2.15959e-07
-1.21669e-06
-9.92821e-10
1.83716e-09
0.0010707
-2.392e-07
1.21857e-06
2.38445e-07
8.63937e-07
-2.23307e-07
-8.63996e-07
2.21429e-07
0.00107025
-9.88905e-10
-0.00107025
1.84777e-09
-1.21394e-06
2.38374e-07
-2.39142e-07
-8.58408e-07
2.15961e-07
-2.17858e-07
8.5835e-07
1.21856e-06
0.0010707
-9.95278e-10
-0.0010707
1.85047e-09
-1.2167e-06
2.3844e-07
-2.39209e-07
-8.63995e-07
2.2142e-07
-2.23314e-07
8.63934e-07
-2.1634e-07
-2.21131e-07
0.000261441
-1.18005e-06
0.000263399
-0.000261441
2.18222e-07
2.23017e-07
1.76064e-09
0.00107131
-2.33857e-07
1.17745e-06
2.33129e-07
8.5852e-07
-2.23298e-07
-8.58511e-07
2.21452e-07
-1.21138e-06
-9.80833e-10
1.84263e-09
0.00107037
-2.39197e-07
1.21324e-06
2.38423e-07
8.5841e-07
-2.23254e-07
-8.58477e-07
2.21384e-07
0.00107131
-1.09361e-09
-0.00107131
1.74441e-09
-1.17557e-06
2.33138e-07
-2.3385e-07
-8.58507e-07
2.21457e-07
-2.23296e-07