/*--------------------------------*- C++ -*----------------------------------*\
| =========                 |                                                 |
| \\      /  F ield         | OpenFOAM: The Open Source CFD Toolbox           |
|  \\    /   O peration     | Version:  2206                                  |
|   \\  /    A nd           | Website:  www.openfoam.com                      |
|    \\/     M anipulation  |                                                 |
\*---------------------------------------------------------------------------*/
FoamFile
{
    version     2.0;
    format      ascii;
    arch        "LSB;label=32;scalar=64";
    class       surfaceScalarField;
    location    "33";
    object      phi;
}
// * * * * * * * * * * * * * * * * * * * * * * * * * * * * * * * * * * * * * //

dimensions      [0 3 -1 0 0 0 0];

oriented        oriented;

internalField   nonuniform List<scalar> 
83348
(
1.64276e-09
1.82567e-09
-0.00109073
-1.76628e-09
-1.7259e-09
0.00109073
-0.00109042
-1.21203e-06
-1.80803e-09
3.22905e-09
0.00109042
-2.60838e-07
1.21489e-06
2.59571e-07
9.00277e-07
-2.61783e-07
-8.99801e-07
2.58314e-07
-0.00109008
-1.2066e-06
-1.81099e-09
3.1834e-09
0.00109008
-2.58063e-07
1.20946e-06
2.56805e-07
9.00114e-07
-2.64403e-07
-8.99666e-07
2.60997e-07
-0.000267837
1.2404e-06
1.20672e-06
-2.34144e-07
-2.39456e-07
0.000265863
1.71525e-09
1.89567e-09
-0.00109073
-1.80777e-09
-1.7592e-09
0.00109073
-0.00109042
-1.212e-06
-1.86797e-09
3.20677e-09
0.00109042
-2.60818e-07
1.21489e-06
2.59582e-07
9.00283e-07
-2.61749e-07
-8.99783e-07
2.58338e-07
-0.00109008
-1.20659e-06
-1.8783e-09
3.16894e-09
0.00109008
-2.58048e-07
1.20946e-06
2.56812e-07
9.00119e-07
-2.64372e-07
-8.99651e-07
2.61021e-07
-0.000267837
1.24039e-06
1.20671e-06
-2.34127e-07
-2.39436e-07
0.000265863
1.75349e-09
1.95878e-09
-0.00109073
-1.83964e-09
-1.7852e-09
0.00109073
-0.00109042
-1.21198e-06
-1.93155e-09
3.18333e-09
0.00109042
-2.60802e-07
1.21491e-06
2.59598e-07
9.0031e-07
-2.61709e-07
-8.99764e-07
2.58384e-07
-0.00109008
-1.20657e-06
-1.94127e-09
3.14051e-09
0.00109008
-2.5803e-07
1.20947e-06
2.56833e-07
9.00137e-07
-2.6433e-07
-8.9964e-07
2.61067e-07
-0.000267837
1.24037e-06
1.20669e-06
-2.34109e-07
-2.39412e-07
0.000265863
1.81603e-09
1.99294e-09
-0.00109073
-1.859e-09
-1.80934e-09
0.00109073
-0.00109042
-1.21196e-06
-1.9657e-09
3.13437e-09
0.00109042
-2.60786e-07
1.21494e-06
2.59627e-07
9.00339e-07
-2.61684e-07
-8.99743e-07
2.58422e-07
-0.00109008
-1.20655e-06
-1.97217e-09
3.13227e-09
0.00109008
-2.58014e-07
1.20949e-06
2.56853e-07
9.00176e-07
-2.64306e-07
-8.99613e-07
2.61102e-07
-0.000267836
1.24035e-06
1.20668e-06
-2.34088e-07
-2.39388e-07
0.000265863
1.9142e-09
2.05819e-09
-0.00109073
-1.84897e-09
-1.84823e-09
0.00109073
-0.00109042
-1.21192e-06
-2.21899e-09
3.01399e-09
0.00109042
-2.60738e-07
1.215e-06
2.59693e-07
9.00423e-07
-2.61633e-07
-8.99694e-07
2.58508e-07
-0.00109008
-1.20652e-06
-2.06826e-09
3.09625e-09
0.00109008
-2.57989e-07
1.20954e-06
2.56896e-07
9.00241e-07
-2.64272e-07
-8.99575e-07
2.61159e-07
-0.000267836
1.24032e-06
1.20664e-06
-2.34043e-07
-2.39356e-07
0.000265863
2.30023e-09
2.38618e-09
-0.00109073
-1.92396e-09
-1.984e-09
0.00109073
-0.00109042
-1.2119e-06
-2.48037e-09
2.85813e-09
0.00109042
-2.60725e-07
1.21507e-06
2.59753e-07
9.005e-07
-2.61605e-07
-8.99674e-07
2.58585e-07
-0.00109007
-1.20646e-06
-2.42963e-09
2.8949e-09
0.00109007
-2.5795e-07
1.20965e-06
2.56981e-07
9.00351e-07
-2.64231e-07
-8.9952e-07
2.61256e-07
-0.000267836
1.24029e-06
1.20658e-06
-2.34e-07
-2.39334e-07
0.000265862
1.59509e-10
3.02884e-10
-0.00109073
-1.01125e-09
-1.0399e-09
0.00109073
-0.00109042
-1.21233e-06
-5.8087e-10
3.7693e-09
0.00109042
-2.61195e-07
1.21459e-06
2.59242e-07
8.99843e-07
-2.62254e-07
-9.00274e-07
2.57863e-07
-0.00109007
-1.20699e-06
-3.18559e-10
3.82835e-09
0.00109008
-2.585e-07
1.20913e-06
2.56454e-07
8.99599e-07
-2.6505e-07
-9.00273e-07
2.60431e-07
-0.000267836
1.24083e-06
1.20707e-06
-2.34569e-07
-2.39964e-07
0.000265862
1.70033e-09
2.01296e-09
-0.00109073
-1.93604e-09
-1.75798e-09
0.00109073
-0.00109042
-1.21206e-06
-1.59369e-09
3.24742e-09
0.00109042
-2.60908e-07
1.21495e-06
2.59639e-07
9.00258e-07
-2.6205e-07
-8.99987e-07
2.58243e-07
-0.00109008
-1.20658e-06
-1.93794e-09
2.99358e-09
0.00109008
-2.58039e-07
1.20958e-06
2.56943e-07
9.00173e-07
-2.64532e-07
-8.99754e-07
2.61033e-07
-0.000267837
1.24035e-06
1.20675e-06
-2.34204e-07
-2.39429e-07
0.000265864
1.80578e-09
1.99062e-09
-0.00109073
-1.86085e-09
-1.81821e-09
0.00109073
-0.00109042
-1.21198e-06
-2.03592e-09
3.07969e-09
0.00109042
-2.60805e-07
1.21498e-06
2.59677e-07
9.0037e-07
-2.61786e-07
-8.99811e-07
2.58424e-07
-0.00109008
-1.20658e-06
-1.96915e-09
3.09068e-09
0.00109008
-2.58054e-07
1.20953e-06
2.5689e-07
9.0019e-07
-2.64426e-07
-8.99695e-07
2.61086e-07
-0.000267837
1.24039e-06
1.2067e-06
-2.34117e-07
-2.39441e-07
0.000265864
1.67538e-09
1.83579e-09
-0.00109073
-1.79468e-09
-1.76811e-09
0.00109073
-0.00109042
-1.21203e-06
-1.88459e-09
3.18609e-09
0.00109042
-2.60868e-07
1.21494e-06
2.59626e-07
9.00334e-07
-2.61829e-07
-8.99854e-07
2.58383e-07
-0.00109008
-1.20662e-06
-1.8359e-09
3.16085e-09
0.00109008
-2.58094e-07
1.2095e-06
2.56858e-07
9.00157e-07
-2.64466e-07
-8.99737e-07
2.61054e-07
-0.000267837
1.24043e-06
1.20673e-06
-2.34158e-07
-2.3948e-07
0.000265863
1.59751e-09
-8.46987e-09
-0.00109073
-1.78716e-09
-1.73182e-09
0.00109074
-0.00109042
-1.21204e-06
-1.87272e-09
3.18907e-09
0.00109042
-2.60824e-07
1.21494e-06
2.59607e-07
9.00331e-07
-2.61831e-07
-8.99857e-07
2.58382e-07
-0.00109008
-1.20662e-06
-1.83202e-09
3.17037e-09
0.00109008
-2.58096e-07
1.2095e-06
2.56857e-07
9.00155e-07
-2.64468e-07
-8.9974e-07
2.61053e-07
-0.000267837
1.24043e-06
1.20674e-06
-2.34161e-07
-2.39479e-07
0.000265863
1.63362e-09
1.87465e-09
-0.00109074
-1.80283e-09
-1.72222e-09
0.00109074
-0.00109042
-1.21208e-06
-1.82596e-09
3.28286e-09
0.00109042
-2.58146e-07
1.21491e-06
2.568e-07
9.0033e-07
-2.61811e-07
-8.99861e-07
2.58356e-07
-0.00109008
-1.20662e-06
-1.84866e-09
3.17908e-09
0.00109008
-2.58097e-07
1.2095e-06
2.56855e-07
9.00155e-07
-2.64467e-07
-8.9974e-07
2.61052e-07
-0.000267837
1.24042e-06
1.20675e-06
-2.34167e-07
-2.39473e-07
0.000265863
1.64086e-09
1.84852e-09
-0.00109074
-1.77745e-09
-1.7284e-09
0.00109074
-0.00109042
-1.21204e-06
-1.84448e-09
3.21171e-09
0.00109042
-2.58109e-07
1.21494e-06
2.56839e-07
9.00325e-07
-2.61806e-07
-8.99862e-07
2.5836e-07
-0.00109008
-1.20662e-06
-1.85222e-09
3.17958e-09
0.00109008
-2.58096e-07
1.2095e-06
2.56859e-07
9.00157e-07
-2.64469e-07
-8.9974e-07
2.61055e-07
-0.000267837
1.24042e-06
1.20675e-06
-2.34168e-07
-2.39475e-07
0.000265864
1.64476e-09
1.83278e-09
-0.00109074
-1.76607e-09
-1.7351e-09
0.00109074
-0.00109042
-1.21204e-06
-1.83777e-09
3.212e-09
0.00109042
-2.58111e-07
1.21494e-06
2.56836e-07
9.00322e-07
-2.61807e-07
-8.99864e-07
2.58354e-07
-0.00109008
-1.20662e-06
-1.83919e-09
3.18525e-09
0.00109008
-2.58096e-07
1.2095e-06
2.56854e-07
9.00152e-07
-2.64468e-07
-8.99741e-07
2.61049e-07
-0.000267837
1.24043e-06
1.20675e-06
-2.34168e-07
-2.39477e-07
0.000265864
1.64935e-09
1.82797e-09
-0.00109074
-1.76133e-09
-1.73875e-09
0.00109074
-0.00109042
-1.21204e-06
-1.84206e-09
3.21055e-09
0.00109042
-2.58111e-07
1.21494e-06
2.56834e-07
9.00321e-07
-2.61805e-07
-8.99861e-07
2.58352e-07
-0.00109008
-1.20662e-06
-1.8415e-09
3.1824e-09
0.00109008
-2.58095e-07
1.2095e-06
2.56854e-07
9.00151e-07
-2.64467e-07
-8.99739e-07
2.61047e-07
-0.000267837
1.24043e-06
1.20675e-06
-2.34166e-07
-2.39476e-07
0.000265864
1.64273e-09
1.81522e-09
-0.00109074
-1.75181e-09
-1.73383e-09
0.00109074
-0.00109042
-1.21204e-06
-1.83407e-09
3.21413e-09
0.00109042
-2.58111e-07
1.21494e-06
2.56831e-07
9.00315e-07
-2.61802e-07
-8.99859e-07
2.58345e-07
-0.00109008
-1.20662e-06
-1.83399e-09
3.18767e-09
0.00109008
-2.58095e-07
1.2095e-06
2.56851e-07
9.00146e-07
-2.64464e-07
-8.99738e-07
2.6104e-07
-0.000267837
1.24043e-06
1.20675e-06
-2.34166e-07
-2.39476e-07
0.000265864
1.6468e-09
1.81456e-09
-0.00109074
-1.75104e-09
-1.73569e-09
0.00109074
-0.00109042
-1.21203e-06
-1.83807e-09
3.21144e-09
0.00109042
-2.58104e-07
1.21494e-06
2.56825e-07
9.00305e-07
-2.61789e-07
-8.99847e-07
2.58333e-07
-0.00109008
-1.20662e-06
-1.83698e-09
3.18545e-09
0.00109008
-2.58088e-07
1.20949e-06
2.56845e-07
9.00134e-07
-2.6445e-07
-8.99726e-07
2.61028e-07
-0.000267837
1.24042e-06
1.20674e-06
-2.34161e-07
-2.39471e-07
0.000265864
1.65973e-09
1.8198e-09
-0.00109074
-1.75424e-09
-1.74075e-09
-0.00109042
-1.21202e-06
-1.83693e-09
3.20743e-09
-2.58079e-07
1.21492e-06
2.56801e-07
9.00272e-07
-2.61758e-07
-8.99819e-07
2.58304e-07
-0.00109008
-1.2066e-06
-1.83625e-09
3.18353e-09
-2.58063e-07
1.20948e-06
2.56822e-07
9.00102e-07
-2.64418e-07
-8.99697e-07
2.60999e-07
-0.000267837
1.24041e-06
1.20673e-06
-2.3415e-07
-2.39459e-07
0.000265864
-1.25124e-06
-1.21224e-06
0.000267853
-0.000265869
2.34451e-07
2.4484e-07
0.00108963
-1.59645e-09
-0.00108963
3.41456e-09
-1.24843e-06
2.64875e-07
-2.66261e-07
-9.02455e-07
2.55458e-07
-2.59061e-07
9.02829e-07
1.25406e-06
0.00109008
-1.58209e-09
-0.00109008
3.37724e-09
-1.25123e-06
2.64951e-07
-2.66327e-07
-9.08151e-07
2.60997e-07
-2.64604e-07
9.08501e-07
-1.2149e-06
0.000267877
-0.000265887
2.3723e-07
2.42096e-07
0.0010907
-1.82491e-09
-0.0010907
3.17726e-09
-1.2094e-06
2.59611e-07
-2.60865e-07
-9.0253e-07
2.61075e-07
-2.64553e-07
9.03072e-07
1.24863e-06
0.00108975
-1.60488e-09
-0.00108975
3.38932e-09
-1.24583e-06
2.64934e-07
-2.6632e-07
-9.02537e-07
2.60967e-07
-2.64516e-07
9.02895e-07
-1.8207e-09
3.21118e-09
-1.21202e-06
2.59575e-07
-2.60837e-07
-8.99814e-07
2.58307e-07
9.00268e-07
-2.61795e-07
1.24321e-06
0.00108954
-1.60923e-09
-0.00108954
3.40027e-09
-1.24041e-06
2.59385e-07
-2.60749e-07
-8.99837e-07
2.58175e-07
-2.61754e-07
9.00173e-07
-1.20946e-06
0.000267832
-0.00026585
2.34638e-07
2.42052e-07
-1.80353e-09
-0.00109008
3.1855e-09
-1.2066e-06
2.56804e-07
-2.58065e-07
-8.99628e-07
2.60968e-07
9.00158e-07
-2.64435e-07
1.20956e-06
0.0010906
-1.78004e-09
-0.0010906
3.21314e-09
-1.20672e-06
2.56853e-07
-2.58132e-07
-8.99923e-07
2.61062e-07
-2.64538e-07
9.00417e-07
-0.000265863
2.36961e-07
2.42289e-07
1.24842e-06
1.2094e-06
-2.31636e-07
-2.41979e-07
0.000265869
-1.25125e-06
-1.21225e-06
0.000267853
-0.000265869
2.34473e-07
2.44857e-07
3.40749e-09
0.00108963
-2.66257e-07
1.25124e-06
2.64877e-07
9.02841e-07
-2.59049e-07
-9.02438e-07
2.55472e-07
-1.25125e-06
-1.60663e-09
3.41481e-09
0.00109007
-2.66336e-07
1.25673e-06
2.67685e-07
9.08512e-07
-2.64594e-07
-9.08138e-07
2.61006e-07
0.00108963
-1.66953e-09
-0.00108963
3.37729e-09
-1.2484e-06
2.64889e-07
-2.66238e-07
-9.02436e-07
2.55489e-07
-2.59022e-07
9.02839e-07
1.25406e-06
0.00109008
-1.65763e-09
-0.00109007
3.38294e-09
-1.2539e-06
2.64961e-07
-2.69052e-07
-9.08119e-07
2.61029e-07
-2.64564e-07
9.08523e-07
-2.34387e-07
-2.3924e-07
0.000265887
-1.2149e-06
0.000267877
-0.000265887
2.37247e-07
2.42106e-07
3.17581e-09
0.0010907
-2.60863e-07
1.21225e-06
2.59611e-07
9.03079e-07
-2.64542e-07
-9.02518e-07
2.61083e-07
-1.24582e-06
-1.63217e-09
3.38863e-09
0.00108975
-2.66317e-07
1.24864e-06
2.64935e-07
9.02902e-07
-2.64503e-07
-9.02526e-07
2.60978e-07
0.0010907
-1.90479e-09
-0.0010907
3.15066e-09
-1.20939e-06
2.59622e-07
-2.60846e-07
-9.025e-07
2.61103e-07
-2.64513e-07
9.03089e-07
1.24864e-06
0.00108975
-1.67256e-09
-0.00108975
3.36869e-09
-1.24581e-06
2.64945e-07
-2.66299e-07
-9.02518e-07
2.60994e-07
-2.64477e-07
9.02902e-07
-1.61925e-09
3.38826e-09
0.00108954
-2.60744e-07
1.24321e-06
2.5939e-07
9.00184e-07
-2.61738e-07
2.58187e-07
-8.99822e-07
-1.87254e-09
-0.00109042
3.20196e-09
-1.212e-06
2.59583e-07
-2.60818e-07
-8.99781e-07
2.58339e-07
9.00285e-07
-2.61749e-07
1.24321e-06
0.00108954
-1.67062e-09
-0.00108954
3.35767e-09
-1.24039e-06
2.59401e-07
-2.60724e-07
-8.99805e-07
2.58208e-07
-2.61704e-07
9.00189e-07
-2.31798e-07
-2.39215e-07
0.00026585
-1.20946e-06
0.000267832
-0.00026585
2.34653e-07
2.42068e-07
-1.80967e-09
3.2115e-09
0.0010906
-2.5813e-07
1.20956e-06
2.56855e-07
9.00429e-07
-2.64524e-07
2.61073e-07
-8.99908e-07
-1.87847e-09
-0.00109008
3.16437e-09
-1.20659e-06
2.56814e-07
-2.58046e-07
-8.99597e-07
2.60996e-07
9.00175e-07
-2.64395e-07
1.20957e-06
0.0010906
-1.86775e-09
-0.0010906
3.19015e-09
-1.20671e-06
2.56866e-07
-2.58111e-07
-8.9989e-07
2.61092e-07
-2.64495e-07
9.00437e-07
-0.000265863
2.36975e-07
2.42307e-07
1.2484e-06
1.20938e-06
-2.3161e-07
-2.41961e-07
0.000265869
-1.25127e-06
-1.21227e-06
0.000267853
-0.000265869
2.34484e-07
2.44883e-07
3.37531e-09
0.00108963
-2.66238e-07
1.25125e-06
2.64888e-07
9.02846e-07
-2.59012e-07
-9.02425e-07
2.55502e-07
-1.25122e-06
-1.67686e-09
3.38817e-09
0.00109007
-2.66315e-07
1.25674e-06
2.67698e-07
9.08519e-07
-2.64558e-07
-9.08119e-07
2.61032e-07
0.00108963
-1.7058e-09
-0.00108963
3.34853e-09
-1.24839e-06
2.64909e-07
-2.66219e-07
-9.02429e-07
2.55524e-07
-2.58985e-07
9.02847e-07
1.25676e-06
0.00109007
-1.70161e-09
-0.00109007
3.35736e-09
-1.25389e-06
2.67722e-07
-2.69037e-07
-9.08115e-07
2.61069e-07
-2.64529e-07
9.08529e-07
-2.3436e-07
-2.39219e-07
0.000265887
-1.21491e-06
0.000267879
-0.000265887
2.37301e-07
2.42131e-07
3.15082e-09
0.0010907
-2.60845e-07
1.21226e-06
2.5962e-07
9.03085e-07
-2.64511e-07
-9.02503e-07
2.61106e-07
-1.24581e-06
-1.69373e-09
3.37122e-09
0.00108975
-2.663e-07
1.24864e-06
2.64943e-07
9.02903e-07
-2.64471e-07
-9.02517e-07
2.61002e-07
0.0010907
-1.9573e-09
-0.0010907
3.11809e-09
-1.20937e-06
2.5964e-07
-2.60827e-07
-9.02489e-07
2.61151e-07
-2.6447e-07
9.03103e-07
1.24866e-06
0.00108975
-1.7065e-09
-0.00108975
3.33832e-09
-1.24579e-06
2.64965e-07
-2.6628e-07
-9.02511e-07
2.61029e-07
-2.64442e-07
9.0291e-07
-1.68167e-09
3.35873e-09
0.00108954
-2.60723e-07
1.24321e-06
2.59399e-07
9.00191e-07
-2.617e-07
2.58213e-07
-8.99804e-07
-1.94102e-09
-0.00109042
3.18045e-09
-1.21199e-06
2.59598e-07
-2.60805e-07
-8.99763e-07
2.58383e-07
9.00308e-07
-2.61714e-07
1.24323e-06
0.00108954
-1.73968e-09
-0.00108954
3.32681e-09
-1.24037e-06
2.59418e-07
-2.60705e-07
-8.99783e-07
2.58252e-07
-2.61663e-07
9.00215e-07
-2.31781e-07
-2.39199e-07
0.00026585
-1.20948e-06
0.000267832
-0.00026585
2.34669e-07
2.42093e-07
-1.88747e-09
3.19239e-09
0.0010906
-2.58109e-07
1.20957e-06
2.56866e-07
9.00436e-07
-2.64491e-07
2.61098e-07
-8.9989e-07
-1.93267e-09
-0.00109008
3.13528e-09
-1.20657e-06
2.56833e-07
-2.58027e-07
-8.99588e-07
2.61042e-07
9.00189e-07
-2.64353e-07
1.20958e-06
0.0010906
-1.91267e-09
-0.0010906
3.15558e-09
-1.20669e-06
2.56886e-07
-2.58091e-07
-8.99881e-07
2.61138e-07
-2.64453e-07
9.00449e-07
-0.000265863
2.36994e-07
2.4233e-07
1.24838e-06
1.20937e-06
-2.31602e-07
-2.41934e-07
0.000265868
-1.25129e-06
-1.21229e-06
0.000267852
-0.000265868
2.34528e-07
2.4491e-07
3.34668e-09
0.00108963
-2.66217e-07
1.25127e-06
2.64912e-07
9.02855e-07
-2.58987e-07
-9.02422e-07
2.55532e-07
-1.25388e-06
-1.71727e-09
3.3638e-09
0.00109007
-2.69035e-07
1.25676e-06
2.67719e-07
9.08533e-07
-2.6452e-07
-9.08113e-07
2.61076e-07
0.00108963
-1.80748e-09
-0.00108963
3.30791e-09
-1.24837e-06
2.6493e-07
-2.66204e-07
-9.02378e-07
2.55582e-07
-2.58944e-07
9.02913e-07
1.25678e-06
0.00109007
-1.8191e-09
-0.00109007
3.31589e-09
-1.25386e-06
2.6774e-07
-2.69018e-07
-9.08081e-07
2.61116e-07
-2.6449e-07
9.08577e-07
-2.34376e-07
-2.39201e-07
0.000265887
-1.21494e-06
0.000267879
-0.000265887
2.37334e-07
2.42161e-07
3.12132e-09
0.0010907
-2.60828e-07
1.21227e-06
2.59641e-07
9.03101e-07
-2.64468e-07
-9.02492e-07
2.61154e-07
-1.24579e-06
-1.7318e-09
3.34389e-09
0.00108975
-2.6628e-07
1.24866e-06
2.64967e-07
9.02913e-07
-2.64444e-07
-9.02514e-07
2.61034e-07
0.0010907
-2.02558e-09
-0.0010907
3.09475e-09
-1.20934e-06
2.59666e-07
-2.60808e-07
-9.02461e-07
2.61191e-07
-2.64442e-07
9.03143e-07
1.24868e-06
0.00108975
-1.82186e-09
-0.00108975
3.29886e-09
-1.24577e-06
2.64987e-07
-2.66265e-07
-9.02459e-07
2.6109e-07
-2.64399e-07
9.02979e-07
-1.74876e-09
3.32739e-09
0.00108954
-2.60705e-07
1.24323e-06
2.59423e-07
9.00219e-07
-2.61663e-07
2.58252e-07
-8.99782e-07
-2.05315e-09
-0.00109042
3.10152e-09
-1.21196e-06
2.59624e-07
-2.60783e-07
-8.99736e-07
2.5843e-07
9.00348e-07
-2.61675e-07
1.24326e-06
0.00108954
-1.80168e-09
-0.00108954
3.29003e-09
-1.24035e-06
2.59451e-07
-2.60684e-07
-8.99765e-07
2.58282e-07
-2.61645e-07
9.00244e-07
-2.31767e-07
-2.39172e-07
0.00026585
-1.20951e-06
0.000267831
-0.00026585
2.34715e-07
2.4212e-07
-1.94369e-09
3.16088e-09
0.0010906
-2.5809e-07
1.20958e-06
2.56888e-07
9.00452e-07
-2.6445e-07
2.61144e-07
-8.9988e-07
-1.99529e-09
-0.00109008
3.09067e-09
-1.20654e-06
2.56862e-07
-2.58006e-07
-8.99561e-07
2.61082e-07
9.00228e-07
-2.64326e-07
1.2096e-06
0.0010906
-1.98369e-09
-0.0010906
3.14081e-09
-1.20667e-06
2.56905e-07
-2.58078e-07
-8.99852e-07
2.61181e-07
-2.64425e-07
9.0049e-07
-0.000265863
2.37023e-07
2.42367e-07
1.24838e-06
1.20935e-06
-2.31572e-07
-2.4192e-07
0.000265868
-1.25135e-06
-1.21235e-06
0.000267852
-0.000265868
2.34575e-07
2.44961e-07
3.34815e-09
0.00108963
-2.66212e-07
1.25128e-06
2.64922e-07
9.02917e-07
-2.58946e-07
-9.02371e-07
2.55583e-07
-1.25387e-06
-1.79895e-09
3.35723e-09
0.00109007
-2.69026e-07
1.25678e-06
2.67741e-07
9.08579e-07
-2.64492e-07
-9.08078e-07
2.61119e-07
0.00108963
-2.03843e-09
-0.00108963
3.20606e-09
-1.24833e-06
2.64991e-07
-2.66164e-07
-9.02342e-07
2.55656e-07
-2.58901e-07
9.02972e-07
1.25683e-06
0.00109007
-2.05814e-09
-0.00109007
3.2294e-09
-1.25385e-06
2.67797e-07
-2.68995e-07
-9.08035e-07
2.61183e-07
-2.64454e-07
9.08641e-07
-2.34349e-07
-2.39175e-07
0.000265887
-1.21498e-06
0.000267879
-0.000265886
2.37382e-07
2.42205e-07
3.13529e-09
0.0010907
-2.60817e-07
1.21228e-06
2.59658e-07
9.0314e-07
-2.64445e-07
-9.02466e-07
2.61189e-07
-1.24578e-06
-1.8082e-09
3.34374e-09
0.00108975
-2.66273e-07
1.24867e-06
2.64977e-07
9.02978e-07
-2.64398e-07
-9.02459e-07
2.6109e-07
0.0010907
-2.26405e-09
-0.0010907
2.97656e-09
-1.20931e-06
2.59725e-07
-2.6077e-07
-9.02411e-07
2.61271e-07
-2.64389e-07
9.03215e-07
1.24874e-06
0.00108974
-2.03379e-09
-0.00108975
3.19842e-09
-1.24574e-06
2.65047e-07
-2.66226e-07
-9.02425e-07
2.61158e-07
-2.64356e-07
9.03033e-07
-1.74682e-09
3.32311e-09
0.00108954
-2.60686e-07
1.24325e-06
2.59442e-07
9.00238e-07
-2.61648e-07
2.58281e-07
-8.99772e-07
-2.25663e-09
-0.00109042
3.02433e-09
-1.21193e-06
2.59677e-07
-2.60756e-07
-8.99697e-07
2.5849e-07
9.0041e-07
-2.61651e-07
1.24331e-06
0.00108954
-2.03552e-09
-0.00108954
3.17792e-09
-1.24031e-06
2.59501e-07
-2.60645e-07
-8.99715e-07
2.58367e-07
-2.61591e-07
9.00319e-07
-2.31732e-07
-2.39158e-07
0.00026585
-1.20956e-06
0.000267831
-0.00026585
2.34756e-07
2.42173e-07
-1.98663e-09
3.18441e-09
0.0010906
-2.58087e-07
1.20959e-06
2.56897e-07
9.00492e-07
-2.64423e-07
2.61181e-07
-8.99852e-07
-2.2424e-09
-0.00109008
2.99461e-09
-1.20652e-06
2.56915e-07
-2.57973e-07
-8.99508e-07
2.61162e-07
9.00303e-07
-2.64272e-07
1.20966e-06
0.0010906
-2.23693e-09
-0.0010906
3.02448e-09
-1.20664e-06
2.56965e-07
-2.5804e-07
-8.99801e-07
2.61257e-07
-2.64372e-07
9.00561e-07
-0.000265863
2.37079e-07
2.4241e-07
1.24834e-06
1.20931e-06
-2.31534e-07
-2.41879e-07
0.000265868
-1.25138e-06
-1.2124e-06
0.000267852
-0.000265867
2.34625e-07
2.44992e-07
3.31928e-09
0.00108962
-2.6618e-07
1.25133e-06
2.6497e-07
9.02974e-07
-2.58918e-07
-9.02345e-07
2.5564e-07
-1.25382e-06
-1.98815e-09
3.21685e-09
0.00109007
-2.68973e-07
1.25684e-06
2.67811e-07
9.08656e-07
-2.64446e-07
-9.08036e-07
2.612e-07
0.00108962
-2.20143e-09
-0.00108962
3.14239e-09
-1.24835e-06
2.65019e-07
-2.66182e-07
-9.02344e-07
2.5571e-07
-2.58902e-07
9.03028e-07
1.25684e-06
0.00109007
-2.03834e-09
-0.00109007
3.20196e-09
-1.25385e-06
2.67835e-07
-2.68991e-07
-9.08076e-07
2.61197e-07
-2.64485e-07
9.08643e-07
-2.34307e-07
-2.39134e-07
0.000265886
-1.21498e-06
0.000267878
-0.000265886
2.37389e-07
2.42233e-07
3.06383e-09
0.0010907
-2.60785e-07
1.21234e-06
2.59707e-07
9.03201e-07
-2.64414e-07
-9.02431e-07
2.61243e-07
-1.24574e-06
-1.86787e-09
3.29009e-09
0.00108974
-2.66239e-07
1.24872e-06
2.6503e-07
9.03025e-07
-2.64378e-07
-9.02441e-07
2.61136e-07
0.0010907
-2.39818e-09
-0.0010907
2.87151e-09
-1.20931e-06
2.59771e-07
-2.60773e-07
-9.02425e-07
2.61311e-07
-2.64399e-07
9.03257e-07
1.24878e-06
0.00108974
-2.17548e-09
-0.00108974
3.10325e-09
-1.24574e-06
2.65088e-07
-2.66232e-07
-9.02433e-07
2.61203e-07
-2.64362e-07
9.03081e-07
-1.92592e-09
3.26132e-09
0.00108954
-2.60661e-07
1.2433e-06
2.59492e-07
9.00316e-07
-2.61599e-07
2.58348e-07
-8.99722e-07
-2.22101e-09
-0.00109042
3.0596e-09
-1.21197e-06
2.59684e-07
-2.6078e-07
-8.99718e-07
2.5852e-07
9.0042e-07
-2.61659e-07
1.24332e-06
0.00108954
-2.12759e-09
-0.00108954
3.18525e-09
-1.24035e-06
2.59502e-07
-2.60686e-07
-8.99718e-07
2.58407e-07
-2.6159e-07
9.00358e-07
-2.31701e-07
-2.39115e-07
0.00026585
-1.2096e-06
0.00026783
-0.000265849
2.34797e-07
2.42213e-07
-2.06966e-09
3.0898e-09
0.0010906
-2.58048e-07
1.20965e-06
2.56955e-07
9.00556e-07
-2.64394e-07
2.61238e-07
-8.99817e-07
-2.39617e-09
-0.00109007
2.91962e-09
-1.20652e-06
2.56954e-07
-2.57981e-07
-8.99515e-07
2.61208e-07
9.0035e-07
-2.64275e-07
1.2097e-06
0.0010906
-2.3674e-09
-0.0010906
2.92e-09
-1.20664e-06
2.57011e-07
-2.5804e-07
-8.99819e-07
2.61294e-07
-2.64386e-07
9.006e-07
-0.000265862
2.37119e-07
2.42424e-07
1.24829e-06
1.20925e-06
-2.31481e-07
-2.41841e-07
0.000265867
-1.25093e-06
-1.21197e-06
0.000267852
-0.000265867
2.34115e-07
2.44469e-07
3.14367e-09
0.00108962
-2.66151e-07
1.25143e-06
2.65046e-07
9.03094e-07
-2.58876e-07
-9.02284e-07
2.55746e-07
-1.25379e-06
-2.26734e-09
3.0062e-09
0.00109007
-2.68932e-07
1.25693e-06
2.67897e-07
9.08732e-07
-2.64426e-07
-9.08018e-07
2.61279e-07
0.00108962
-4.64734e-10
-0.00108962
4.17356e-09
-1.24873e-06
2.64536e-07
-2.66617e-07
-9.02852e-07
2.55072e-07
-2.59464e-07
9.02444e-07
1.25664e-06
0.00109007
-7.09245e-10
-0.00109007
3.556e-09
-1.254e-06
2.67578e-07
-2.69194e-07
-9.08471e-07
2.60681e-07
-2.64893e-07
9.08173e-07
-2.34298e-07
-2.39113e-07
0.000265886
-1.21472e-06
0.000267878
-0.000265886
2.37056e-07
2.41958e-07
2.81878e-09
0.0010907
-2.60737e-07
1.21246e-06
2.59801e-07
9.03304e-07
-2.64381e-07
-9.02384e-07
2.61333e-07
-1.24568e-06
-2.21304e-09
3.06477e-09
0.00108974
-2.66199e-07
1.24884e-06
2.65117e-07
9.03135e-07
-2.64341e-07
-9.02388e-07
2.6123e-07
0.0010907
-5.31392e-10
-0.0010907
3.74814e-09
-1.20968e-06
2.59306e-07
-2.61188e-07
-9.02955e-07
2.60643e-07
-2.64983e-07
9.0265e-07
1.24834e-06
0.00108974
-3.51886e-10
-0.00108974
4.0029e-09
-1.24611e-06
2.64616e-07
-2.66653e-07
-9.02957e-07
2.60549e-07
-2.64933e-07
9.02481e-07
-2.29016e-09
3.11234e-09
0.00108954
-2.60652e-07
1.24339e-06
2.59553e-07
9.00426e-07
-2.61568e-07
2.58436e-07
-8.99673e-07
-1.26454e-09
-0.00109042
3.52874e-09
-1.21216e-06
2.59397e-07
-2.61008e-07
-9.00007e-07
2.58134e-07
9.00062e-07
-2.61964e-07
1.24288e-06
0.00108954
-7.66724e-10
-0.00108954
4.16691e-09
-1.24072e-06
2.59031e-07
-2.61105e-07
-9.00098e-07
2.57915e-07
-2.6201e-07
8.99903e-07
-2.31655e-07
-2.39069e-07
0.000265849
-1.20916e-06
0.00026783
-0.000265849
2.34283e-07
2.41694e-07
-2.40488e-09
2.82732e-09
0.00109059
-2.58001e-07
1.20977e-06
2.5705e-07
9.00659e-07
-2.64361e-07
2.61331e-07
-8.99771e-07
-5.86264e-10
-0.00109007
3.84419e-09
-1.20689e-06
2.56484e-07
-2.58402e-07
-9.00041e-07
2.60548e-07
8.99745e-07
-2.64849e-07
1.20933e-06
0.0010906
-4.75461e-10
-0.00109059
3.67138e-09
-1.20694e-06
2.56599e-07
-2.58403e-07
-9.00351e-07
2.60619e-07
-2.64969e-07
8.99988e-07
-0.000265862
2.36687e-07
2.41911e-07
1.24883e-06
1.20978e-06
-2.32108e-07
-2.42473e-07
0.000265867
-1.25132e-06
-1.21229e-06
0.000267853
-0.000265869
2.34451e-07
2.44866e-07
4.09489e-09
0.00108963
-2.66713e-07
1.2509e-06
2.6451e-07
9.02342e-07
-2.5969e-07
-9.03034e-07
2.54928e-07
-1.25419e-06
-1.84935e-10
3.86386e-09
0.00109007
-2.69372e-07
1.25647e-06
2.67415e-07
9.08019e-07
-2.65191e-07
-9.08697e-07
2.60443e-07
0.00108963
-1.35045e-09
-0.00108963
3.21538e-09
-1.24847e-06
2.64965e-07
-2.66314e-07
-9.02702e-07
2.55373e-07
-2.59374e-07
9.02773e-07
1.25663e-06
0.00109007
-1.12442e-09
-0.00109007
3.79055e-09
-1.25416e-06
2.67567e-07
-2.69349e-07
-9.08406e-07
2.60844e-07
-2.64966e-07
9.08422e-07
-2.34789e-07
-2.39555e-07
0.000265886
-1.21484e-06
0.000267879
-0.000265887
2.37162e-07
2.41917e-07
3.77826e-09
0.0010907
-2.61292e-07
1.21193e-06
2.59269e-07
9.02562e-07
-2.65199e-07
-9.0313e-07
2.60511e-07
-1.24622e-06
-7.55261e-11
4.01396e-09
0.00108974
-2.66758e-07
1.2483e-06
2.64579e-07
9.02387e-07
-2.65152e-07
-9.03136e-07
2.60409e-07
0.0010907
-1.72779e-09
-0.0010907
3.16557e-09
-1.20949e-06
2.59664e-07
-2.60955e-07
-9.02727e-07
2.61006e-07
-2.64816e-07
9.03047e-07
1.24869e-06
0.00108975
-1.45655e-09
-0.00108975
3.33996e-09
-1.24589e-06
2.64999e-07
-2.66396e-07
-9.02755e-07
2.60887e-07
-2.64797e-07
9.02857e-07
-2.46113e-10
4.13108e-09
0.00108954
-2.61227e-07
1.24284e-06
2.5899e-07
8.99716e-07
-2.62268e-07
2.57694e-07
-9.0034e-07
-1.11711e-09
-0.00109042
3.45636e-09
-1.21219e-06
2.59506e-07
-2.61061e-07
-9.00155e-07
2.58057e-07
9.00111e-07
-2.62252e-07
1.2433e-06
0.00108954
-1.14377e-09
-0.00108954
3.20601e-09
-1.24044e-06
2.59491e-07
-2.60788e-07
-9.00155e-07
2.57982e-07
-2.62146e-07
9.00042e-07
-2.32278e-07
-2.397e-07
0.000265849
-1.20951e-06
0.000267832
-0.00026585
2.34645e-07
2.42061e-07
-2.70774e-10
3.78087e-09
0.0010906
-2.58522e-07
1.20925e-06
2.56536e-07
8.99902e-07
-2.65197e-07
2.60483e-07
-9.00529e-07
-1.63814e-09
-0.00109008
3.1012e-09
-1.20667e-06
2.5687e-07
-2.58141e-07
-8.99838e-07
2.6089e-07
9.00123e-07
-2.64709e-07
1.20955e-06
0.0010906
-1.68089e-09
-0.0010906
3.30965e-09
-1.20686e-06
2.56863e-07
-2.58264e-07
-9.00115e-07
2.61002e-07
-2.64797e-07
9.00401e-07
-0.000265863
2.36893e-07
2.42328e-07
1.24838e-06
1.20939e-06
-2.31654e-07
-2.41962e-07
0.000265869
-1.25134e-06
-1.21234e-06
0.000267853
-0.000265869
2.34556e-07
2.44931e-07
3.12295e-09
0.00108963
-2.66215e-07
1.25138e-06
2.65032e-07
9.02892e-07
-2.59212e-07
-9.02551e-07
2.55508e-07
-1.25402e-06
-1.5422e-09
3.55071e-09
0.00109008
-2.69197e-07
1.25676e-06
2.67711e-07
9.08536e-07
-2.64768e-07
-9.08259e-07
2.61004e-07
0.00108963
-1.84462e-09
-0.00108963
3.24906e-09
-1.24838e-06
2.64988e-07
-2.66221e-07
-9.0246e-07
2.55598e-07
-2.59074e-07
9.02938e-07
1.25685e-06
0.00109007
-1.84678e-09
-0.00109007
3.25156e-09
-1.25386e-06
2.67829e-07
-2.69012e-07
-9.08154e-07
2.61108e-07
-2.64596e-07
9.08591e-07
-2.34498e-07
-2.39385e-07
0.000265887
-1.215e-06
0.000267879
-0.000265887
2.37371e-07
2.42212e-07
3.05799e-09
0.0010907
-2.60855e-07
1.21235e-06
2.59737e-07
9.03146e-07
-2.6466e-07
-9.02595e-07
2.61125e-07
-1.2458e-06
-1.77901e-09
3.2292e-09
0.00108975
-2.66296e-07
1.24875e-06
2.65068e-07
9.02967e-07
-2.64632e-07
-9.02613e-07
2.61016e-07
0.0010907
-2.08735e-09
-0.0010907
3.04764e-09
-1.20937e-06
2.59721e-07
-2.60833e-07
-9.02521e-07
2.61187e-07
-2.64541e-07
9.0317e-07
1.24873e-06
0.00108975
-1.86701e-09
-0.00108975
3.24954e-09
-1.24579e-06
2.65042e-07
-2.66285e-07
-9.02533e-07
2.61085e-07
-2.64507e-07
9.02997e-07
-1.54119e-09
3.11209e-09
0.00108954
-2.60686e-07
1.24335e-06
2.59556e-07
9.00188e-07
-2.6196e-07
2.58145e-07
-8.99985e-07
-2.08024e-09
-0.00109042
3.04772e-09
-1.21196e-06
2.59704e-07
-2.60779e-07
-8.99804e-07
2.58435e-07
9.0038e-07
-2.61785e-07
1.2433e-06
0.00108954
-1.84474e-09
-0.00108954
3.25517e-09
-1.24037e-06
2.59494e-07
-2.60711e-07
-8.99821e-07
2.58295e-07
-2.61743e-07
9.0029e-07
-2.31797e-07
-2.39215e-07
0.00026585
-1.20955e-06
0.000267832
-0.00026585
2.34733e-07
2.42141e-07
-1.99183e-09
3.17371e-09
0.0010906
-2.58156e-07
1.20964e-06
2.56948e-07
9.00503e-07
-2.64636e-07
2.61124e-07
-8.99979e-07
-2.04571e-09
-0.00109008
3.03727e-09
-1.20656e-06
2.56917e-07
-2.58026e-07
-8.99627e-07
2.61081e-07
9.00258e-07
-2.64434e-07
1.20966e-06
0.0010906
-2.03418e-09
-0.0010906
3.09394e-09
-1.20669e-06
2.56961e-07
-2.58099e-07
-8.99918e-07
2.61176e-07
-2.64529e-07
9.00516e-07
-0.000265864
2.37057e-07
2.42376e-07
1.24841e-06
1.20939e-06
-2.31622e-07
-2.41958e-07
0.000265869
-1.25129e-06
-1.2123e-06
0.000267853
-0.000265869
2.34514e-07
2.44879e-07
3.31186e-09
0.00108963
-2.6625e-07
1.25132e-06
2.6496e-07
9.02928e-07
-2.59088e-07
-9.02466e-07
2.55586e-07
-1.25387e-06
-1.79905e-09
3.26718e-09
0.00109007
-2.69031e-07
1.25684e-06
2.67807e-07
9.08581e-07
-2.64604e-07
-9.08162e-07
2.61094e-07
0.00108963
-1.68677e-09
-0.00108963
3.37602e-09
-1.24844e-06
2.64935e-07
-2.66283e-07
-9.02506e-07
2.55568e-07
-2.59118e-07
9.02901e-07
1.2568e-06
0.00109007
-1.64633e-09
-0.00109007
3.37021e-09
-1.25392e-06
2.6776e-07
-2.69086e-07
-9.08197e-07
2.61054e-07
-2.64643e-07
9.08548e-07
-2.34377e-07
-2.39187e-07
0.000265887
-1.21494e-06
0.000267879
-0.000265887
2.37306e-07
2.42146e-07
3.08624e-09
0.0010907
-2.60857e-07
1.21232e-06
2.59698e-07
9.03149e-07
-2.64557e-07
-9.0254e-07
2.61167e-07
-1.24581e-06
-1.7981e-09
3.29829e-09
0.00108975
-2.6631e-07
1.24871e-06
2.65017e-07
9.02981e-07
-2.64521e-07
-9.0255e-07
2.61068e-07
0.0010907
-1.88463e-09
-0.0010907
3.13349e-09
-1.20942e-06
2.59673e-07
-2.6089e-07
-9.02573e-07
2.61135e-07
-2.64588e-07
9.03117e-07
1.24868e-06
0.00108975
-1.66725e-09
-0.00108975
3.36566e-09
-1.24584e-06
2.64987e-07
-2.66347e-07
-9.02589e-07
2.61035e-07
-2.64558e-07
9.02947e-07
-1.80084e-09
3.31008e-09
0.00108954
-2.60739e-07
1.24327e-06
2.59468e-07
9.00276e-07
-2.61748e-07
2.58284e-07
-8.99831e-07
-1.91093e-09
-0.00109042
3.17472e-09
-1.21203e-06
2.59629e-07
-2.60862e-07
-8.99847e-07
2.58389e-07
9.00339e-07
-2.61824e-07
1.24325e-06
0.00108954
-1.66887e-09
-0.00108954
3.38063e-09
-1.24043e-06
2.59435e-07
-2.60779e-07
-8.99874e-07
2.58246e-07
-2.61787e-07
9.00238e-07
-2.31776e-07
-2.39197e-07
0.00026585
-1.20951e-06
0.000267832
-0.00026585
2.34682e-07
2.42093e-07
-1.96681e-09
3.12166e-09
0.0010906
-2.58118e-07
1.20964e-06
2.56942e-07
9.005e-07
-2.64544e-07
2.61159e-07
-8.99934e-07
-1.86561e-09
-0.00109008
3.15756e-09
-1.20662e-06
2.56862e-07
-2.5809e-07
-8.99682e-07
2.61036e-07
9.00213e-07
-2.64484e-07
1.20962e-06
0.0010906
-1.81481e-09
-0.0010906
3.17631e-09
-1.20673e-06
2.56918e-07
-2.5815e-07
-8.9997e-07
2.61131e-07
-2.64578e-07
9.00473e-07
-0.000265863
2.37009e-07
2.42327e-07
1.24844e-06