/*--------------------------------*- C++ -*----------------------------------*\
| =========                 |                                                 |
| \\      /  F ield         | OpenFOAM: The Open Source CFD Toolbox           |
|  \\    /   O peration     | Version:  2206                                  |
|   \\  /    A nd           | Website:  www.openfoam.com                      |
|    \\/     M anipulation  |                                                 |
\*---------------------------------------------------------------------------*/
FoamFile
{
    version     2.0;
    format      ascii;
    arch        "LSB;label=32;scalar=64";
    class       volScalarField;
    location    "10.5";
    object      nut;
}
// * * * * * * * * * * * * * * * * * * * * * * * * * * * * * * * * * * * * * //

dimensions      [0 2 -1 0 0 0 0];

internalField   nonuniform List<scalar> 
28673
(
0.000226703
0.000219219
0.000231705
0.000226702
0.000226701
0.000219204
0.000231693
0.000226664
0.000226688
0.000219169
0.000231687
0.000226664
0.000226657
0.000219131
0.000231694
0.000226665
0.000226663
0.000219131
0.000231694
0.000226665
0.000226663
0.000219133
0.000231694
0.000226665
0.000226663
0.000219133
0.000231694
0.000226665
0.000226663
0.000219133
0.000231694
0.000226665
0.000226663
0.000219133
0.000231694
0.000226665
0.000226663
0.000219133
0.000231694
0.000226666
0.000226665
0.000219134
0.000231694
0.000226666
0.000226664
0.000219144
0.000231794
0.000228049
0.000228048
0.000220557
0.000226698
0.000219283
0.000226703
0.000219285
0.000226699
0.000226698
0.000226699
0.000226699
0.000219217
0.000219274
0.000226702
0.000226695
0.000226699
0.000226702
0.000226698
0.000219273
0.000226701
0.000226701
0.0002267
0.000219271
0.00021922
0.000219266
0.000226699
0.000226698
0.000226692
0.00022668
0.000219209
0.000219232
0.000226704
0.000226694
0.0002267
0.000226692
0.000226696
0.000226685
0.000226688
0.000219208
0.000219262
0.000226698
0.000226696
0.000226691
0.000219253
0.000219191
0.000219184
0.000226677
0.00022666
0.000226654
0.000226656
0.000219136
0.000219202
0.000226693
0.000226687
0.000226653
0.000226648
0.00022667
0.000226661
0.000226654
0.000219194
0.000219182
0.000226673
0.000226653
0.000226657
0.000219192
0.000219124
0.000219204
0.000226658
0.00022666
0.000226661
0.00022666
0.000219142
0.0002192
0.000226658
0.000226652
0.000226663
0.000226657
0.000226659
0.000226665
0.00022666
0.00021912
0.000219201
0.000226661
0.000226663
0.000226663
0.000219198
0.000219138
0.000219202
0.000226661
0.00022666
0.000226661
0.000226661
0.000219136
0.000219203
0.000226664
0.000226658
0.000226664
0.000226658
0.000226661
0.000226666
0.000226661
0.000219136
0.000219198
0.000226663
0.000226664
0.000226663
0.000219199
0.000219138
0.000219201
0.000226662
0.000226661
0.000226661
0.00022666
0.000219138
0.000219203
0.000226664
0.000226658
0.000226664
0.000226658
0.000226661
0.000226666
0.000226661
0.000219134
0.000219198
0.000226663
0.000226664
0.000226663
0.000219198
0.000219137
0.000219202
0.000226662
0.000226661
0.000226661
0.00022666
0.000219138
0.000219203
0.000226664
0.000226658
0.000226664
0.000226658
0.000226661
0.000226666
0.000226661
0.000219134
0.000219199
0.000226663
0.000226664
0.000226663
0.000219198
0.000219137
0.000219202
0.000226662
0.000226661
0.000226661
0.00022666
0.000219138
0.000219203
0.000226664
0.000226658
0.000226664
0.000226658
0.000226661
0.000226666
0.000226661
0.000219134
0.000219199
0.000226663
0.000226664
0.000226663
0.000219198
0.000219137
0.000219202
0.000226662
0.000226661
0.000226661
0.00022666
0.000219138
0.000219203
0.000226664
0.000226658
0.000226664
0.000226658
0.000226661
0.000226666
0.000226661
0.000219134
0.000219199
0.000226663
0.000226664
0.000226663
0.000219198
0.000219137
0.000219202
0.000226662
0.000226661
0.000226662
0.000226661
0.000219138
0.000219203
0.000226664
0.000226658
0.000226664
0.000226658
0.000226661
0.000226666
0.000226661
0.000219134
0.000219198
0.000226663
0.000226664
0.000226664
0.000219199
0.000219138
0.00021921
0.000226662
0.000226662
0.000226673
0.000226672
0.000219139
0.000219211
0.000226665
0.000226659
0.000226676
0.00022667
0.000226662
0.000226677
0.000226672
0.000219134
0.000219207
0.000226665
0.000226675
0.000226675
0.000219207
0.000219147
0.000219782
0.000226661
0.000226661
0.000227441
0.000227441
0.000219148
0.000219783
0.000226663
0.000226658
0.000227443
0.00022744
0.00022666
0.000227443
0.000227441
0.000219144
0.000219781
0.000226664
0.000227443
0.000227444
0.000219781
0.000220559
0.000228048
0.000228048
0.00022056
0.000228049
0.000228047
0.000231794
0.000231794
0.000231794
0.000228048
0.000220558
0.00022805
7.23965e-05
4.57355e-05
7.23708e-05
4.57348e-05
2.57878e-05
2.57867e-05
7.24026e-05
4.57308e-05
0.000231706
0.000231704
0.000231705
0.000231705
0.000231704
0.000231704
0.000163179
8.61464e-05
0.000230494
0.000226703
0.000163125
8.61806e-05
0.000230494
2.57856e-05
0.000163166
0.000230493
0.000226703
0.000163112
0.000230493
8.61657e-05
4.613e-05
4.61208e-05
0.000219276
4.61401e-05
4.61307e-05
7.24052e-05
4.57351e-05
7.23905e-05
4.57342e-05
2.5786e-05
2.57857e-05
7.24133e-05
4.57312e-05
7.23991e-05
4.57303e-05
0.000231705
0.000231704
0.000231703
0.000231701
0.000231695
0.000231701
0.000231697
0.000163183
8.61643e-05
0.000230494
0.000226701
0.000163161
8.61849e-05
0.000230493
2.57845e-05
2.57837e-05
0.000163171
0.000230493
8.61632e-05
0.000226699
0.000163148
0.000230492
8.61889e-05
4.61448e-05
4.61356e-05
0.000219269
4.61535e-05
4.61442e-05
7.2326e-05
4.57383e-05
7.23629e-05
4.57471e-05
2.57924e-05
2.57933e-05
7.2371e-05
4.57315e-05
7.23947e-05
4.57358e-05
0.000231678
0.000231695
0.000231682
0.000231681
0.000231687
0.000231681
0.000231686
0.000163058
8.61084e-05
0.000230467
0.000226658
0.000163121
8.60827e-05
0.00023046
2.57842e-05
2.57876e-05
0.00016305
0.000230471
8.61539e-05
0.000226667
0.000163111
0.000230462
8.61342e-05
4.61297e-05
4.61204e-05
0.000219196
4.60998e-05
4.60902e-05
7.2296e-05
4.57493e-05
7.22836e-05
4.57485e-05
2.57935e-05
2.57932e-05
7.23056e-05
4.57457e-05
7.22967e-05
4.57448e-05
0.000231692
0.000231687
0.000231691
0.000231694
0.000231694
0.000231694
0.000231693
0.000163022
8.60445e-05
0.000230472
0.000226665
0.000162995
8.60676e-05
0.000230474
2.57915e-05
2.5791e-05
0.00016301
0.000230471
8.60562e-05
0.000226661
0.000162983
0.000230474
8.6073e-05
4.60745e-05
4.60651e-05
0.000219205
4.60796e-05
4.60702e-05
7.22962e-05
4.57492e-05
7.22834e-05
4.57484e-05
2.57934e-05
2.57932e-05
7.23058e-05
4.57454e-05
7.22943e-05
4.57446e-05
0.000231694
0.000231694
0.000231693
0.000231694
0.000231694
0.000231693
0.000231694
0.000163022
8.60445e-05
0.000230475
0.000226666
0.000162996
8.60678e-05
0.000230475
2.57912e-05
2.57909e-05
0.00016301
0.000230474
8.60496e-05
0.000226664
0.000162984
0.000230474
8.60718e-05
4.60751e-05
4.60657e-05
0.000219198
4.608e-05
4.60706e-05
7.22962e-05
4.57492e-05
7.22835e-05
4.57484e-05
2.57934e-05
2.57932e-05
7.23059e-05
4.57454e-05
7.22945e-05
4.57446e-05
0.000231694
0.000231694
0.000231694
0.000231694
0.000231694
0.000231694
0.000231693
0.000163023
8.60444e-05
0.000230475
0.000226666
0.000162995
8.60678e-05
0.000230475
2.57912e-05
2.57909e-05
0.00016301
0.000230474
8.60496e-05
0.000226664
0.000162983
0.000230475
8.60718e-05
4.60751e-05
4.60658e-05
0.000219199
4.608e-05
4.60706e-05
7.22962e-05
4.57492e-05
7.22834e-05
4.57484e-05
2.57934e-05
2.57932e-05
7.23059e-05
4.57453e-05
7.22945e-05
4.57446e-05
0.000231694
0.000231694
0.000231694
0.000231694
0.000231694
0.000231694
0.000231693
0.000163023
8.60444e-05
0.000230475
0.000226666
0.000162996
8.60678e-05
0.000230475
2.57912e-05
2.57909e-05
0.000163011
0.000230474
8.60496e-05
0.000226664
0.000162983
0.000230475
8.60719e-05
4.60751e-05
4.60658e-05
0.000219199
4.608e-05
4.60706e-05
7.22962e-05
4.57492e-05
7.22835e-05
4.57484e-05
2.57934e-05
2.57932e-05
7.23059e-05
4.57454e-05
7.22945e-05
4.57446e-05
0.000231694
0.000231694
0.000231694
0.000231694
0.000231694
0.000231694
0.000231693
0.000163023
8.60444e-05
0.000230475
0.000226666
0.000162995
8.60678e-05
0.000230475
2.57912e-05
2.57909e-05
0.000163014
0.000230474
8.60496e-05
0.000226664
0.000162984
0.000230475
8.60719e-05
4.60751e-05
4.60658e-05
0.000219199
4.608e-05
4.60706e-05
7.22962e-05
4.57492e-05
7.22834e-05
4.57484e-05
2.57934e-05
2.57932e-05
7.23059e-05
4.57454e-05
7.22945e-05
4.57446e-05
0.000231694
0.000231694
0.000231694
0.000231694
0.000231694
0.000231694
0.000231693
0.000163023
8.60444e-05
0.000230475
0.000226666
0.000162995
8.60678e-05
0.000230475
2.57912e-05
2.57909e-05
0.000163017
0.000230475
8.60496e-05
0.000226664
0.000162988
0.000230475
8.60719e-05
4.60751e-05
4.60658e-05
0.000219199
4.608e-05
4.60706e-05
7.22962e-05
4.57492e-05
7.22837e-05
4.57492e-05
2.57934e-05
2.57935e-05
7.23059e-05
4.57455e-05
7.22947e-05
4.57454e-05
0.000231694
0.000231694
0.000231694
0.000231694
0.000231694
0.000231694
0.000231694
0.000163023
8.6046e-05
0.000230475
0.000226666
0.000162996
8.60685e-05
0.000230475
2.57912e-05
2.57912e-05
0.000163018
0.000230475
8.60511e-05
0.000226664
0.000162989
0.000230475
8.60725e-05
4.60756e-05
4.60664e-05
0.000219199
4.60808e-05
4.60715e-05
7.22721e-05
4.5747e-05
7.22662e-05
4.57495e-05
2.57916e-05
2.57932e-05
7.22818e-05
4.57436e-05
7.22778e-05
4.57462e-05
0.000231694
0.000231694
0.000231694
0.000231694
0.000231695
0.000231695
0.000231695
0.000163023
8.60697e-05
0.000230475
0.000226668
0.000162997
8.60046e-05
0.000230476
2.57897e-05
2.57912e-05
0.000163017
0.000230475
8.60713e-05
0.000226666
0.00016299
0.000230475
8.60039e-05
4.60764e-05
4.60672e-05
0.000219201
4.60067e-05
4.59979e-05
7.23414e-05
4.57378e-05
7.22092e-05
4.57699e-05
2.5779e-05
2.57922e-05
7.23452e-05
4.57343e-05
7.22182e-05
4.5767e-05
0.000231694
0.000231694
0.000231694
0.000231717
0.000231718
0.000231717
0.000231717
0.000163209
8.59972e-05
0.000230484
0.000226737
0.000163005
8.60846e-05
0.000230478
2.5777e-05
2.57904e-05
0.000163204
0.000230484
8.59935e-05
0.000226735
0.000162998
0.000230478
8.60851e-05
4.59394e-05
4.5931e-05
0.000219301
4.57658e-05
4.57601e-05
9.12035e-05
4.89335e-05
7.30972e-05
6.6241e-05
2.79116e-05
2.3764e-05
9.12028e-05
4.89319e-05
7.30959e-05
6.62349e-05
0.0002322
0.000232124
0.000232124
0.00023153
0.000232199
0.000232093
0.000232093
0.000169716
8.97467e-05
0.000230753
0.00022883
0.000165383
9.36872e-05
0.000231277
2.79102e-05
2.37637e-05
0.000169711
0.000230752
8.97487e-05
0.000228829
0.00016538
0.000231277
9.36887e-05
4.72068e-05
4.71954e-05
0.000222304
5.45359e-05
5.45341e-05
4.57342e-05
8.61633e-05
2.57879e-05
4.61308e-05
4.61287e-05
2.57883e-05
8.61637e-05
4.57332e-05
2.57899e-05
2.57882e-05
2.57872e-05
4.61318e-05
0.000219294
4.61416e-05
4.61262e-05
2.57873e-05
2.57881e-05
2.57859e-05
2.5787e-05
0.000219228
4.61491e-05
4.61334e-05
4.6142e-05
4.61257e-05
7.23972e-05
4.57343e-05
7.23711e-05
4.57338e-05
0.000163176
8.61245e-05
0.000230494
0.000226699
0.000163126
8.61753e-05
0.000230494
0.000163178
8.61509e-05
0.000230494
0.000226699
0.000163125
8.61792e-05
0.000230494
7.239e-05
4.57345e-05
4.57348e-05
7.24022e-05
7.23905e-05
4.57335e-05
4.57338e-05
7.24025e-05
0.000163161
0.0002267
8.61854e-05
0.000230494
8.61624e-05
0.000230494
0.000163187
0.000163162
0.0002267
8.6186e-05
0.000230494
8.61645e-05
0.000230494
0.000163189
4.61303e-05
4.61281e-05
0.000219277
4.61376e-05
4.61363e-05
2.57883e-05
2.57871e-05
2.5786e-05
2.57866e-05
0.000219212
4.6145e-05
4.61427e-05
4.61383e-05
4.61354e-05
2.57864e-05
2.57871e-05
0.000163161
0.000226702
8.61549e-05
0.000230494
7.24026e-05
4.57289e-05
0.000163161
0.000226695
0.000230493
8.61464e-05
7.23968e-05
4.57306e-05
4.5731e-05
7.24086e-05
0.000163145
0.000226702
8.61708e-05
0.000230493
8.61434e-05
0.000230494
0.000163189
7.23967e-05
4.57286e-05
4.57291e-05
7.24083e-05
0.000163144
0.000226695
0.000230493
8.61619e-05
0.000230493
8.61332e-05
0.000163187
7.23964e-05
4.57334e-05
7.23703e-05
4.57327e-05
0.000163179
0.000230494
8.61204e-05
0.000226698
0.000163124
0.000230493
8.6172e-05
7.23959e-05
4.57326e-05
7.23697e-05
4.57317e-05
0.000163164
0.000226703
8.61865e-05
0.000230494
8.61647e-05
0.000230494
0.000163187
7.23896e-05
4.57324e-05
4.57328e-05
7.24017e-05
0.000163163
0.000226699
0.000230493
8.61819e-05
0.000230494
8.61586e-05
0.000163187
7.23891e-05
4.57313e-05
4.57317e-05
7.24011e-05
0.000219277
4.61179e-05
4.61387e-05
2.57878e-05
2.57844e-05
2.57856e-05
0.000219212
4.6124e-05
4.6146e-05
4.61165e-05
4.61381e-05
2.57866e-05
2.57877e-05
0.000163165
0.000230493
8.61133e-05
0.000226701
0.000163111
0.000230493
8.61652e-05
7.23842e-05
7.23559e-05
4.57314e-05
7.23837e-05
4.57319e-05
7.23552e-05
4.57311e-05
0.000163151
0.000226702
0.000230493
8.6183e-05
0.000230494
8.61544e-05
0.000163174
0.00016315
0.000226701
0.000230493
8.61752e-05
0.000230493
8.61516e-05
0.000163174
7.23759e-05
4.5731e-05
4.57315e-05
7.23892e-05
7.23753e-05
4.57307e-05
4.57311e-05
7.23886e-05
2.57888e-05
2.57871e-05
2.5788e-05
2.57863e-05
0.000219211
4.61478e-05
4.61385e-05
4.61404e-05
4.61311e-05
2.57861e-05
2.5787e-05
2.57853e-05
2.57862e-05
2.57873e-05
2.57868e-05
2.57859e-05
2.57853e-05
4.61487e-05
4.61337e-05
0.000219279
4.61552e-05
4.61408e-05
2.57876e-05
2.57869e-05
2.57852e-05
2.57853e-05
0.000219213
4.61465e-05
4.61436e-05
4.61541e-05
4.61411e-05
7.24054e-05
4.57335e-05
7.23954e-05
4.57336e-05
0.000163184
8.617e-05
0.000230493
0.000226699
0.000163166
8.61892e-05
0.000230493
0.000163186
8.61701e-05
0.000230494
0.000226697
0.000163169
8.61852e-05
0.000230493
7.23965e-05
4.57354e-05
4.57343e-05
7.23882e-05
7.23968e-05
4.57392e-05
4.57339e-05
7.23894e-05
0.000163158
0.000226697
8.61707e-05
0.000230486
8.61719e-05
0.000230491
0.000163164
0.000163159
0.000226693
8.61472e-05
0.000230485
8.61631e-05
0.000230491
0.000163165
4.61449e-05
4.61408e-05
0.000219268
4.61476e-05
4.61464e-05
2.57865e-05
2.57864e-05
2.57901e-05
2.57859e-05
0.0002192
4.61217e-05
4.61214e-05
4.61426e-05
4.61392e-05
2.57904e-05
2.57867e-05
0.00016319
8.61564e-05
0.000230493
0.000226704
0.000163171
8.61772e-05
0.000230493
7.24126e-05
4.57287e-05
7.24033e-05
4.57283e-05
0.000163189
0.000230493
8.61459e-05
0.000226694
0.000163168
0.000230492
8.61678e-05
7.24075e-05
4.57306e-05
4.57304e-05
7.24113e-05
0.000163165
0.000226704
8.61745e-05
0.000230491
8.61618e-05
0.000230493
0.000163182
7.24067e-05
4.57285e-05
4.57285e-05
7.24106e-05
0.000163165
0.000226694
0.00023049
8.6165e-05
0.000230492
8.61505e-05
0.000163183
7.24043e-05
4.57325e-05
7.23945e-05
4.57327e-05
0.000163182
0.000230493
8.61662e-05
0.000226695
0.000163165
0.000230492
8.61853e-05
7.24038e-05
4.57313e-05
7.23938e-05
4.57313e-05
0.000163158
0.000226698
8.61461e-05
0.000230485
8.61615e-05
0.000230491
0.000163164
7.23957e-05
4.57383e-05
4.57331e-05
7.23885e-05
0.000163157
0.000226694
0.000230486
8.61667e-05
0.000230491
8.61674e-05
0.000163164
7.23952e-05
4.57322e-05
4.57313e-05
7.23879e-05
4.61234e-05
4.61461e-05
0.000219267
4.61306e-05
4.61529e-05
2.57865e-05
2.5786e-05
2.57836e-05
2.57837e-05
0.000219203
4.61332e-05
4.61541e-05
4.61289e-05
4.61526e-05
2.57859e-05
2.5786e-05
0.000163171
0.000230492
8.61593e-05
0.000226697
0.000163151
0.000230492
8.61787e-05
7.2392e-05
4.5731e-05
7.23804e-05
4.57307e-05
7.23912e-05
4.57307e-05
7.23797e-05
4.57307e-05
0.000163146
0.000226698
0.000230486
8.61831e-05
0.000230491
8.61726e-05
0.000163154
0.000163145
0.000226696
0.000230485
8.616e-05
0.00023049
8.61605e-05
0.000163153
7.2382e-05
4.57307e-05
4.57308e-05
7.23773e-05
7.23811e-05
4.57316e-05
4.57307e-05
7.23765e-05
2.57861e-05
2.57857e-05
2.57853e-05
2.57849e-05
0.000219204
4.61437e-05
4.61344e-05
4.61519e-05
4.61427e-05
2.57865e-05
2.57858e-05
2.57857e-05
2.57849e-05
2.57894e-05
2.57937e-05
2.57854e-05
2.57894e-05
4.61352e-05
4.61382e-05
0.000219208
4.61006e-05
4.61154e-05
2.57942e-05
2.57943e-05
2.57928e-05
2.57916e-05
0.000219114
4.60812e-05
4.60727e-05
4.60905e-05
4.61006e-05
7.23262e-05
4.57447e-05
7.23681e-05
4.57484e-05
0.000163056
8.61407e-05
0.00023047
0.000226658
0.000163123
8.61077e-05
0.000230461
0.000163057
8.61136e-05
0.000230466
0.000226654
0.000163124
8.6083e-05
0.00023046
7.23056e-05
4.57487e-05
4.57489e-05
7.22973e-05
7.23058e-05
4.57482e-05
4.57484e-05
7.2298e-05
0.000163013
0.000226652
8.60778e-05
0.000230467
8.6078e-05
0.000230462
0.000163022
0.000163014
0.000226653
8.60701e-05
0.000230467
8.60592e-05
0.000230462
0.000163023
4.6104e-05
4.61038e-05
0.000219186
4.60742e-05
4.60733e-05
2.57929e-05
2.5794e-05
2.57932e-05
2.57933e-05
0.000219123
4.60709e-05
4.6067e-05
4.60698e-05
4.6067e-05
2.57938e-05
2.57941e-05
0.000163125
8.61517e-05
0.000230486
0.000226672
0.000163153
8.61325e-05
0.000230469
7.23696e-05
4.57287e-05
7.23985e-05
4.57336e-05
0.000163123
0.000230485
8.61408e-05
0.000226669
0.000163153
0.000230469
8.61234e-05
7.23467e-05
4.57451e-05
4.57411e-05
7.23112e-05
0.000163064
0.000226656
8.60729e-05
0.000230461
8.60989e-05
0.00023046
0.000163028
7.23445e-05
4.57434e-05
4.57392e-05
7.23085e-05
0.000163062
0.000226653
0.000230461
8.60625e-05
0.00023046
8.60884e-05
0.000163027
7.23253e-05
4.57437e-05
7.23673e-05
4.57475e-05
0.000163057
0.000230469
8.61365e-05
0.000226656
0.000163124
0.000230461
8.61036e-05
7.23249e-05
4.57344e-05
7.23667e-05
4.57437e-05
0.000163015
0.000226658
8.60683e-05
0.000230467
8.60573e-05
0.000230463
0.000163021
7.23049e-05
4.57472e-05
4.57476e-05
7.22971e-05
0.000163014
0.000226652
0.000230467
8.60738e-05
0.000230462
8.60736e-05
0.000163022
7.23044e-05
4.57458e-05
4.5746e-05
7.22966e-05
4.61254e-05
4.61484e-05
0.000219227
4.61079e-05
4.61277e-05
2.5786e-05
2.57898e-05
2.57912e-05
2.57901e-05
0.000219131
4.60608e-05
4.60825e-05
4.60906e-05
4.61111e-05
2.57933e-05
2.5792e-05
0.000163048
0.000230469
8.61297e-05
0.000226659
0.000163113
0.000230461
8.60972e-05
7.23139e-05
4.57309e-05
7.23535e-05
4.5736e-05
7.23137e-05
4.57338e-05
7.2353e-05
4.57431e-05
0.000163006
0.000226656
0.000230466
8.60828e-05
0.000230463
8.61007e-05
0.000163009
0.000163004
0.000226654
0.000230466
8.60671e-05
0.000230461
8.6067e-05
0.000163009
7.22924e-05
4.57456e-05
4.57416e-05
7.22833e-05
7.2292e-05
4.57452e-05
4.57454e-05
7.22825e-05
2.57884e-05
2.57927e-05
2.57876e-05
2.57919e-05
0.000219115
4.60794e-05
4.60699e-05
4.60891e-05
4.60797e-05
2.57931e-05
2.57932e-05
2.57923e-05
2.57924e-05
2.57942e-05
2.57941e-05
2.57928e-05
2.57926e-05
4.60791e-05
4.60686e-05
0.000219203
4.60813e-05
4.60702e-05
2.57941e-05
2.57941e-05
2.57926e-05
2.57926e-05
0.000219142
4.60813e-05
4.60705e-05
4.60794e-05
4.60683e-05
7.22968e-05
4.57483e-05
7.22889e-05
4.57482e-05
0.000163022
8.60593e-05
0.000230472
0.000226661
0.000163001
8.60744e-05
0.000230474
0.000163023
8.60523e-05
0.000230473
0.000226661
0.000163002
8.60691e-05
0.000230475
7.22879e-05
4.57486e-05
4.57485e-05
7.22964e-05
7.22886e-05
4.57482e-05
4.57482e-05
7.2297e-05
0.000163001
0.000226661
8.60741e-05
0.000230475
8.60577e-05
0.000230475
0.000163024
0.000163002
0.00022666
8.60691e-05
0.000230475
8.6052e-05
0.000230475
0.000163025
4.60689e-05
4.60632e-05
0.000219206
4.60715e-05
4.60677e-05
2.57939e-05
2.57938e-05
2.57932e-05
2.57932e-05
0.000219141
4.60716e-05
4.60685e-05
4.60695e-05
4.60641e-05
2.57938e-05
2.57939e-05
0.000163024
8.60509e-05
0.000230468
0.000226661
0.000163004
8.60627e-05
0.000230472
7.23029e-05
4.57435e-05
7.2298e-05
4.57432e-05
0.000163022
0.000230467
8.60385e-05
0.000226655
0.000163003
0.000230471
8.60512e-05
7.22988e-05
4.57447e-05
4.57448e-05
7.23058e-05
0.000163003
0.000226663
8.60619e-05
0.000230475
8.60457e-05
0.000230474
0.000163027
7.22961e-05
4.5743e-05
4.57433e-05
7.23031e-05
0.000163001
0.000226657
0.000230474
8.60503e-05
0.000230474
8.60325e-05
0.000163024
7.22958e-05
4.57474e-05
7.2288e-05
4.57471e-05
0.000163022
0.000230472
8.60551e-05
0.00022666
0.000163001
0.000230474
8.60707e-05
7.22954e-05
4.57458e-05
7.22875e-05
4.57456e-05
0.000163002
0.000226665
8.60677e-05
0.000230475
8.60496e-05
0.000230475
0.000163022
7.22875e-05
4.57471e-05
4.57473e-05
7.2296e-05
0.000163002
0.00022666
0.000230475
8.60705e-05
0.000230475
8.60535e-05
0.000163023
7.22871e-05
4.57456e-05
4.57457e-05
7.22956e-05
4.60548e-05
4.60782e-05
0.000219198
4.60562e-05
4.60795e-05
2.57934e-05
2.57932e-05
2.57909e-05
2.57911e-05
0.000219138
4.6057e-05
4.60796e-05
4.60529e-05
4.60774e-05
2.57932e-05
2.57932e-05
0.000163009
0.000230472
8.60481e-05
0.000226663
0.000162988
0.000230474
8.60639e-05
7.22824e-05
4.57457e-05
7.22725e-05
4.57455e-05
7.22817e-05
4.57452e-05
7.22716e-05
4.5745e-05
0.000162989
0.000226663
0.000230475
8.60718e-05
0.000230475
8.60555e-05
0.000163009
0.000162988
0.000226663
0.000230474
8.60636e-05
0.000230474
8.60464e-05
0.00016301
7.22727e-05
4.57454e-05
4.57455e-05
7.22828e-05
7.22719e-05
4.5745e-05
4.57451e-05
7.22821e-05
2.57931e-05
2.5793e-05
2.57923e-05
2.57922e-05
0.00021914
4.60798e-05
4.60704e-05
4.60776e-05
4.60682e-05
2.5793e-05
2.5793e-05
2.57922e-05
2.57922e-05
2.57941e-05
2.57941e-05
2.57926e-05
2.57925e-05
4.60793e-05
4.60685e-05
0.000219198
4.60813e-05
4.60707e-05
2.57941e-05
2.57941e-05
2.57925e-05
2.57926e-05
0.000219135
4.60812e-05
4.60708e-05
4.60794e-05
4.60688e-05
7.22969e-05
4.57482e-05
7.22888e-05
4.57482e-05
0.000163022
8.60572e-05
0.000230474
0.000226661
0.000163003
8.60741e-05
0.000230474
0.000163023
8.60519e-05
0.000230474
0.000226661
0.000163003
8.60691e-05
0.000230474
7.2288e-05
4.57485e-05
4.57485e-05
7.22964e-05
7.22886e-05
4.57482e-05
4.57482e-05
7.22969e-05
0.000163001
0.000226662
8.60741e-05
0.000230475
8.60575e-05
0.000230475
0.000163023
0.000163002
0.000226661
8.60691e-05
0.000230475
8.6052e-05
0.000230475
0.000163024
4.60694e-05
4.60648e-05
0.000219201
4.60716e-05
4.60684e-05
2.57939e-05
2.57938e-05
2.57932e-05
2.57932e-05
0.000219139
4.60716e-05
4.60681e-05
4.60696e-05
4.60643e-05
2.57938e-05
2.57939e-05
0.000163026
8.60451e-05
0.000230475
0.000226664
0.000163006
8.60618e-05
0.000230475
7.23032e-05
4.57431e-05
7.22964e-05
4.5743e-05
0.000163024
0.000230474
8.60321e-05
0.000226658
0.000163004
0.000230474
8.60503e-05
7.22992e-05
4.57447e-05
4.57447e-05
7.23059e-05
0.000163004
0.000226664
8.60619e-05
0.000230475
8.60453e-05
0.000230475
0.000163025
7.22964e-05
4.5743e-05
4.57431e-05
7.23033e-05
0.000163002
0.000226658
0.000230474
8.60503e-05
0.000230474
8.60321e-05
0.000163023
7.22957e-05
4.57472e-05
7.22878e-05
4.57471e-05
0.000163022
0.000230475
8.60534e-05
0.000226661
0.000163002
0.000230474
8.60706e-05
7.22954e-05
4.57456e-05
7.22873e-05
4.57455e-05
0.000163001
0.000226666
8.60677e-05
0.000230475
8.60497e-05
0.000230475
0.000163021
7.22874e-05
4.57471e-05
4.57472e-05
7.22958e-05
0.000163001
0.000226661
0.000230475
8.60705e-05
0.000230475
8.60535e-05
0.000163022
7.2287e-05
4.57456e-05
4.57456e-05
7.22954e-05
4.60536e-05
4.60776e-05
0.000219195
4.6057e-05
4.60798e-05
2.57932e-05
2.57932e-05
2.57909e-05
2.5791e-05
0.000219132
4.6057e-05
4.60797e-05
4.60535e-05
4.60777e-05
2.57932e-05
2.57932e-05
0.00016301
0.000230474
8.60464e-05
0.000226663
0.000162989
0.000230474
8.60638e-05
7.22825e-05
4.57454e-05
7.2273e-05
4.57453e-05
7.22819e-05
4.5745e-05
7.22722e-05
4.57449e-05
0.000162989
0.000226664
0.000230474
8.60717e-05
0.000230474
8.60549e-05
0.000163008
0.000162989
0.000226664
0.000230474
8.60636e-05
0.000230474
8.60465e-05
0.000163009
7.22726e-05
4.57453e-05
4.57454e-05
7.22826e-05
7.2272e-05
4.57449e-05
4.5745e-05
7.2282e-05
2.5793e-05
2.5793e-05
2.57922e-05
2.57922e-05
0.000219135
4.60799e-05
4.60705e-05
4.60779e-05
4.60686e-05
2.5793e-05
2.5793e-05
2.57922e-05
2.57922e-05
2.57941e-05
2.57941e-05
2.57926e-05
2.57925e-05
4.60793e-05
4.60687e-05
0.0002192
4.60813e-05
4.60708e-05
2.57941e-05
2.57941e-05
2.57925e-05
2.57926e-05
0.000219137
4.60813e-05
4.60706e-05
4.60794e-05
4.60688e-05
7.22968e-05
4.57482e-05
7.22887e-05
4.57482e-05
0.000163023
8.60572e-05
0.000230475
0.000226662
0.000163003
8.60741e-05
0.000230475
0.000163024
8.60519e-05
0.000230475
0.000226661
0.000163003
8.60691e-05
0.000230475
7.2288e-05
4.57485e-05
4.57485e-05
7.22964e-05
7.22885e-05
4.57482e-05
4.57482e-05
7.22969e-05
0.000163001
0.000226662
8.60741e-05
0.000230475
8.60575e-05
0.000230475
0.000163023
0.000163002
0.000226661
8.60691e-05
0.000230475
8.6052e-05
0.000230475
0.000163024
4.60694e-05
4.60643e-05
0.000219201
4.60716e-05
4.60685e-05
2.57939e-05
2.57938e-05
2.57932e-05
2.57932e-05
0.000219138
4.60716e-05
4.60681e-05
4.60696e-05
4.60645e-05
2.57938e-05
2.57939e-05
0.000163027
8.6045e-05
0.000230475
0.000226664
0.000163005
8.60618e-05
0.000230475
7.23033e-05
4.57431e-05
7.22966e-05
4.5743e-05
0.000163024
0.000230474
8.6032e-05
0.000226658
0.000163002
0.000230474
8.60503e-05
7.22992e-05
4.57447e-05
4.57447e-05
7.23059e-05
0.000163005
0.000226664
8.60619e-05
0.000230475
8.60453e-05
0.000230476
0.000163025
7.22965e-05
4.5743e-05
4.57431e-05
7.23033e-05
0.000163002
0.000226658
0.000230474
8.60503e-05
0.000230474
8.60321e-05
0.000163023
7.22957e-05
4.57472e-05
7.22875e-05
4.57471e-05
0.000163023
0.000230475
8.60534e-05
0.000226661
0.000163001
0.000230475
8.60706e-05
7.22953e-05
4.57456e-05
7.22871e-05
4.57456e-05
0.000163002
0.000226666
8.60677e-05
0.000230475
8.60497e-05
0.000230475
0.000163021
7.22874e-05
4.57471e-05
4.57472e-05
7.22958e-05
0.000163002
0.000226661
0.000230475
8.60704e-05
0.000230475
8.60535e-05
0.000163022
7.2287e-05
4.57456e-05
4.57456e-05
7.22954e-05
4.60535e-05
4.60777e-05
0.000219197
4.6057e-05
4.60798e-05
2.57932e-05
2.57932e-05
2.57909e-05
2.5791e-05
0.000219134
4.6057e-05
4.60797e-05
4.60535e-05
4.60777e-05
2.57932e-05
2.57932e-05
0.000163011
0.000230474
8.60464e-05
0.000226663
0.000162988
0.000230474
8.60638e-05
7.22824e-05
4.57454e-05
7.22727e-05
4.57453e-05
7.22819e-05
4.5745e-05
7.22722e-05
4.57449e-05
0.00016299
0.000226664
0.000230474
8.60717e-05
0.000230475
8.60549e-05
0.000163008
0.000162989
0.000226664
0.000230474
8.60636e-05
0.000230474
8.60465e-05
0.000163009
7.22725e-05
4.57453e-05
4.57454e-05
7.22822e-05
7.2272e-05
4.57449e-05
4.5745e-05
7.2282e-05
2.5793e-05
2.5793e-05
2.57922e-05
2.57922e-05
0.000219134
4.60799e-05
4.60705e-05
4.60779e-05
4.60686e-05
2.5793e-05
2.5793e-05
2.57922e-05
2.57922e-05
2.57941e-05
2.57941e-05
2.57926e-05
2.57925e-05
4.60793e-05
4.60686e-05
0.000219199
4.60814e-05
4.60707e-05
2.57941e-05
2.57941e-05
2.57925e-05
2.57926e-05
0.000219137
4.60814e-05
4.60707e-05
4.60795e-05
4.60687e-05
7.22968e-05
4.57482e-05
7.22887e-05
4.57482e-05
0.000163023
8.60572e-05
0.000230475
0.000226662
0.000163002
8.60741e-05
0.000230475
0.000163024
8.60519e-05
0.000230475
0.000226661
0.000163002
8.60691e-05
0.000230475
7.2288e-05
4.57485e-05
4.57485e-05
7.22964e-05
7.22885e-05
4.57482e-05
4.57482e-05
7.22969e-05
0.000163001
0.000226662
8.60742e-05
0.000230475
8.60575e-05
0.000230475
0.000163023
0.000163002
0.000226661
8.60691e-05
0.000230475
8.6052e-05
0.000230475
0.000163024
4.60694e-05
4.60643e-05
0.000219201
4.60716e-05
4.60685e-05
2.57939e-05
2.57938e-05
2.57932e-05
2.57932e-05
0.000219138
4.60716e-05
4.60681e-05
4.60696e-05
4.60645e-05
2.57938e-05
2.57939e-05
0.000163027
8.6045e-05
0.000230475
0.000226664
0.000163005
8.60618e-05
0.000230475
7.23033e-05
4.57431e-05
7.22966e-05
4.5743e-05
0.000163024
0.000230474
8.6032e-05
0.000226658
0.000163002
0.000230474
8.60503e-05
7.22992e-05
4.57447e-05
4.57447e-05
7.2306e-05
0.000163005
0.000226664
8.60619e-05
0.000230475
8.60453e-05
0.000230475
0.000163025
7.22965e-05
4.5743e-05
4.57431e-05
7.23033e-05
0.000163003
0.000226658
0.000230474
8.60503e-05
0.000230474
8.60321e-05
0.000163023
7.22958e-05
4.57472e-05
7.22876e-05
4.57471e-05
0.000163023
0.000230475
8.60534e-05
0.000226661
0.000163001
0.000230475
8.60706e-05
7.22954e-05
4.57456e-05
7.22871e-05
4.57456e-05
0.000163002
0.000226666
8.60677e-05
0.000230475
8.60497e-05
0.000230475
0.000163021
7.22875e-05
4.57471e-05
4.57472e-05
7.22959e-05
0.000163002
0.000226661
0.000230475
8.60705e-05
0.000230475
8.60535e-05
0.000163022
7.2287e-05
4.57456e-05
4.57456e-05
7.22954e-05
4.60535e-05
4.60777e-05
0.000219196
4.60571e-05
4.60798e-05
2.57932e-05
2.57932e-05
2.57909e-05
2.5791e-05
0.000219134
4.6057e-05
4.60797e-05
4.60535e-05
4.60777e-05
2.57932e-05
2.57932e-05
0.000163011
0.000230474
8.60464e-05
0.000226663
0.000162988
0.000230474
8.60638e-05
7.22837e-05
4.57454e-05
7.2275e-05
4.57453e-05
7.2282e-05
4.5745e-05
7.22722e-05
4.57449e-05
0.000162991
0.000226664
0.000230474
8.60717e-05
0.000230475
8.60549e-05
0.00016301
0.00016299
0.000226664
0.000230474
8.60637e-05
0.000230474
8.60465e-05
0.000163009
7.22764e-05
4.57453e-05
4.57454e-05
7.2287e-05
7.22721e-05
4.57449e-05
4.5745e-05
7.22822e-05
2.5793e-05
2.5793e-05
2.57922e-05
2.57922e-05
0.000219135
4.60799e-05
4.60705e-05
4.60779e-05
4.60686e-05
2.5793e-05
2.5793e-05
2.57922e-05
2.57922e-05
2.57941e-05
2.57941e-05
2.57926e-05
2.57925e-05
4.60795e-05
4.60687e-05
0.000219199
4.60814e-05
4.60708e-05
2.57941e-05
2.57941e-05
2.57925e-05
2.57926e-05
0.000219137
4.60813e-05
4.60706e-05
4.60795e-05
4.60687e-05
7.22968e-05
4.57482e-05
7.22887e-05
4.57482e-05
0.000163023
8.60573e-05
0.000230475
0.000226662
0.000163002
8.60741e-05
0.000230475
0.000163024
8.60519e-05
0.000230475
0.000226661
0.000163003
8.60691e-05
0.000230475
7.2288e-05
4.57485e-05
4.57485e-05
7.22964e-05
7.22885e-05
4.57482e-05
4.57482e-05
7.22969e-05
0.000163001
0.000226662
8.60741e-05
0.000230475
8.60575e-05
0.000230475
0.000163023
0.000163002
0.000226661
8.60691e-05
0.000230475
8.6052e-05
0.000230475
0.000163024
4.60694e-05
4.60643e-05
0.000219201
4.60716e-05
4.60685e-05
2.57939e-05
2.57938e-05
2.57932e-05
2.57932e-05
0.000219138
4.60716e-05
4.60681e-05
4.60696e-05
4.60645e-05
2.57938e-05
2.57939e-05
0.000163027
8.6045e-05
0.000230475
0.000226664
0.000163005
8.60618e-05
0.000230475
7.23033e-05
4.57431e-05
7.22966e-05
4.5743e-05
0.000163024
0.000230474
8.6032e-05
0.000226658
0.000163002
0.000230474
8.60503e-05
7.22992e-05
4.57447e-05
4.57447e-05
7.23059e-05
0.000163005
0.000226664
8.60619e-05
0.000230475
8.60453e-05
0.000230475
0.000163026
7.22965e-05
4.5743e-05
4.57431e-05
7.23033e-05
0.000163003
0.000226658
0.000230474
8.60503e-05
0.000230474
8.60321e-05
0.000163023
7.22958e-05
4.57472e-05
7.22877e-05
4.57471e-05
0.000163023
0.000230475
8.60534e-05
0.000226661
0.000163001
0.000230475
8.60706e-05
7.22954e-05