/*--------------------------------*- C++ -*----------------------------------*\
| =========                 |                                                 |
| \\      /  F ield         | OpenFOAM: The Open Source CFD Toolbox           |
|  \\    /   O peration     | Version:  2206                                  |
|   \\  /    A nd           | Website:  www.openfoam.com                      |
|    \\/     M anipulation  |                                                 |
\*---------------------------------------------------------------------------*/
FoamFile
{
    version     2.0;
    format      ascii;
    arch        "LSB;label=32;scalar=64";
    class       surfaceScalarField;
    location    "10.5";
    object      phi;
}
// * * * * * * * * * * * * * * * * * * * * * * * * * * * * * * * * * * * * * //

dimensions      [0 3 -1 0 0 0 0];

oriented        oriented;

internalField   nonuniform List<scalar> 
83378
(
-0.00106709
-1.17022e-06
-1.28835e-09
1.28884e-09
0.00106709
-2.24006e-07
1.17204e-06
2.23532e-07
8.4499e-07
-2.09671e-07
-8.4482e-07
2.08547e-07
1.19803e-06
1.16503e-06
-2.11647e-07
-2.16841e-07
0.000260482
1.6049e-09
1.63286e-09
-0.00106645
-1.26839e-09
-1.16181e-09
0.00106645
-0.00106709
-1.17007e-06
-1.60719e-09
1.16047e-09
0.00106709
-2.23828e-07
1.1722e-06
2.23742e-07
8.45151e-07
-2.09473e-07
-8.4474e-07
2.08822e-07
-0.00106676
-1.16483e-06
-1.66953e-09
1.15304e-09
0.00106676
-2.23898e-07
1.16677e-06
2.2362e-07
8.44893e-07
-2.12144e-07
-8.44667e-07
2.11347e-07
-0.000262416
1.19791e-06
1.16496e-06
-2.11571e-07
-2.16729e-07
0.000260481
-2.01946e-10
1.35957e-10
-0.00106645
-6.08808e-10
-3.47412e-10
0.00106645
-0.00106709
-1.17047e-06
2.94816e-11
1.7923e-09
0.00106709
-2.24388e-07
1.17189e-06
2.23318e-07
8.44718e-07
-2.10546e-07
-8.45337e-07
2.07916e-07
-0.00106675
-1.16514e-06
-1.49668e-11
1.69417e-09
0.00106675
-2.24331e-07
1.16646e-06
2.23168e-07
8.4451e-07
-2.12889e-07
-8.45139e-07
2.10513e-07
-0.000262416
1.19831e-06
1.16538e-06
-2.12114e-07
-2.17249e-07
0.000260481
7.95834e-10
6.03768e-10
-0.00106645
-6.99525e-10
-8.79281e-10
0.00106645
-0.00106709
-1.17033e-06
-8.73418e-10
1.48293e-09
0.00106709
-2.2416e-07
1.172e-06
2.23485e-07
8.44912e-07
-2.09974e-07
-8.45034e-07
2.08387e-07
-0.00106676
-1.16507e-06
-7.37677e-10
1.70084e-09
0.00106676
-2.24219e-07
1.16663e-06
2.2344e-07
8.4472e-07
-2.12673e-07
-8.44945e-07
2.10999e-07
-0.000262416
1.19815e-06
1.16514e-06
-2.11762e-07
-2.16963e-07
0.000260482
8.6739e-10
8.53545e-10
-0.00106645
-8.38576e-10
-9.05215e-10
0.00106645
-0.00106709
-1.17032e-06
-9.3111e-10
1.48286e-09
0.00106709
-2.24149e-07
1.17202e-06
2.23493e-07
8.44934e-07
-2.09941e-07
-8.45012e-07
2.08411e-07
-0.00106676
-1.16502e-06
-9.19694e-10
1.5397e-09
0.00106676
-2.24124e-07
1.16668e-06
2.23487e-07
8.44763e-07
-2.12568e-07
-8.4489e-07
2.11065e-07
-0.000262417
1.19811e-06
1.16512e-06
-2.11737e-07
-2.16924e-07
0.000260482
8.50548e-10
8.79702e-10
-0.00106645
-8.61896e-10
-8.94483e-10
0.00106645
-0.00106709
-1.17032e-06
-9.0686e-10
1.49545e-09
0.00106709
-2.24151e-07
1.17201e-06
2.2349e-07
8.4493e-07
-2.09944e-07
-8.45015e-07
2.08407e-07
-0.00106676
-1.16501e-06
-9.29901e-10
1.51672e-09
0.00106676
-2.24118e-07
1.16668e-06
2.23492e-07
8.44763e-07
-2.12567e-07
-8.44889e-07
2.11065e-07
-0.000262417
1.19811e-06
1.16513e-06
-2.11741e-07
-2.16921e-07
0.000260482
8.49623e-10
8.89187e-10
-0.00106645
-8.70317e-10
-8.95138e-10
0.00106645
-0.00106709
-1.17032e-06
-9.07948e-10
1.49281e-09
0.00106709
-2.24151e-07
1.17201e-06
2.23491e-07
8.4493e-07
-2.09944e-07
-8.45016e-07
2.08408e-07
-0.00106676
-1.16501e-06
-9.32854e-10
1.5111e-09
0.00106676
-2.24118e-07
1.16668e-06
2.23492e-07
8.44763e-07
-2.12567e-07
-8.4489e-07
2.11066e-07
-0.000262417
1.19811e-06
1.16513e-06
-2.11742e-07
-2.16921e-07
0.000260482
8.4999e-10
8.90572e-10
-0.00106645
-8.70769e-10
-8.95132e-10
0.00106645
-0.00106709
-1.17032e-06
-9.09303e-10
1.49318e-09
0.00106709
-2.24151e-07
1.17201e-06
2.2349e-07
8.4493e-07
-2.09943e-07
-8.45014e-07
2.08408e-07
-0.00106676
-1.16501e-06
-9.27594e-10
1.50799e-09
0.00106676
-2.24118e-07
1.16669e-06
2.23462e-07
8.44762e-07
-2.12568e-07
-8.44891e-07
2.11064e-07
-0.000262417
1.19811e-06
1.16513e-06
-2.11741e-07
-2.16919e-07
0.000260482
8.85203e-10
9.41103e-10
-0.00106645
-8.97591e-10
-9.0903e-10
0.00106645
-0.00106709
-1.17031e-06
-9.58626e-10
1.46357e-09
0.00106709
-2.24146e-07
1.17201e-06
2.23483e-07
8.44924e-07
-2.09934e-07
-8.45005e-07
2.084e-07
-0.00106676
-1.16501e-06
-9.72051e-10
1.47337e-09
0.00106676
-2.24115e-07
1.16669e-06
2.23456e-07
8.44755e-07
-2.12557e-07
-8.4488e-07
2.11055e-07
-0.000262417
1.1981e-06
1.16512e-06
-2.11737e-07
-2.16915e-07
0.000260482
1.18311e-10
2.05234e-10
-0.00106645
-5.38804e-10
-5.25241e-10
0.00106645
-0.00106709
-1.17013e-06
-2.25878e-10
1.64018e-09
0.00106709
-2.23932e-07
1.17168e-06
2.23102e-07
8.44181e-07
-2.09111e-07
-8.44517e-07
2.06978e-07
-0.00106676
-1.16482e-06
-2.32384e-10
1.64423e-09
0.00106676
-2.23928e-07
1.16635e-06
2.23112e-07
8.44005e-07
-2.11753e-07
-8.44347e-07
2.09628e-07
-0.000262417
1.19791e-06
1.16493e-06
-2.114e-07
-2.16579e-07
0.000260482
5.43047e-09
5.55938e-09
-0.00106645
-3.61507e-09
-8.58037e-09
0.00106645
-0.0010671
-1.16686e-06
1.08017e-10
-4.71082e-09
0.00106711
-2.19857e-07
1.16816e-06
2.20514e-07
8.37142e-07
-1.97651e-07
-8.39289e-07
1.91323e-07
-0.00106677
-1.15889e-06
-5.58231e-09
6.27715e-10
0.00106678
-2.19778e-07
1.16022e-06
2.17832e-07
8.34308e-07
-1.97584e-07
-8.36462e-07
1.93994e-07
-0.000262426
1.19727e-06
1.16162e-06
-2.02702e-07
-2.07865e-07
0.000260477
8.11768e-07
8.18655e-07
-0.0010663
-6.96955e-07
-6.87009e-07
0.00106606
-0.00106734
-1.08196e-06
-8.12901e-07
-3.6032e-07
0.00106765
-1.5099e-07
1.33265e-06
3.24186e-07
9.94077e-07
-1.2084e-07
-7.51126e-07
3.16817e-07
-0.00106702
-1.07388e-06
-8.234e-07
-3.71054e-07
0.00106735
-1.5085e-07
1.32748e-06
3.27008e-07
9.91137e-07
-1.26201e-07
-7.48259e-07
3.19464e-07
-0.000262499
1.11496e-06
1.07404e-06
-1.25748e-07
-1.28237e-07
0.000260564
4.88492e-06
4.87839e-06
-0.00105254
-1.04145e-05
-1.03191e-05
0.000255487
0.000258822
0.000257918
0.000257918
3.95985e-06
6.21525e-06
6.5033e-06
3.96352e-06
6.216e-06
6.5066e-06
-0.000263976
5.05356e-06
-4.87579e-06
5.64727e-06
-3.20695e-06
0.000261358
-0.000263953
-4.87796e-06
5.05872e-06
-3.21473e-06
5.64435e-06
0.000261342
-0.000262914
-5.05063e-06
-5.06149e-06
5.66376e-06
5.65208e-06
0.00026171
1.21039e-06
0.00106675
-1.20863e-06
2.31555e-07
-2.32134e-07
2.11133e-07
-2.12518e-07
-1.17202e-06
0.000262461
-0.000260508
2.13651e-07
2.15925e-07
-1.17024e-06
2.23497e-07
-2.24041e-07
2.08461e-07
-2.09776e-07
-1.20507e-06
-1.16945e-06
0.000262432
-0.000260487
2.1102e-07
2.18686e-07
1.56479e-09
0.00106632
-2.29411e-07
2.28763e-07
8.44904e-07
-2.09694e-07
-8.44799e-07
2.08417e-07
-1.20861e-06
-1.14673e-09
1.3363e-09
0.00106675
-2.32098e-07
1.21041e-06
2.31591e-07
8.50407e-07
-2.12417e-07
-8.50296e-07
2.11216e-07
0.00106632
-1.48401e-09
-0.00106632
1.32168e-09
-1.20323e-06
2.28872e-07
-2.29293e-07
-8.44728e-07
2.08561e-07
-2.09481e-07
8.44919e-07
1.21052e-06
0.00106675
-1.51669e-09
-0.00106675
1.16742e-09
-1.20856e-06
2.31728e-07
-2.32029e-07
-8.50236e-07
2.11375e-07
-2.12292e-07
8.50475e-07
-2.11831e-07
-2.14115e-07
0.000260508
-1.17215e-06
0.00026246
-0.000260507
2.13825e-07
2.16092e-07
0.00106735
-1.42914e-09
-0.00106735
1.24303e-09
-1.16757e-06
2.26331e-07
-2.26669e-07
-8.47466e-07
2.11348e-07
-2.12305e-07
8.47727e-07
1.20513e-06
0.00106643
-1.29578e-09
-0.00106643
1.34778e-09
-1.20328e-06
2.31624e-07
-2.32039e-07
-8.47423e-07
2.1129e-07
-2.12269e-07
8.47632e-07
-1.18378e-09
1.50826e-09
0.00106623
-2.26649e-07
1.19977e-06
2.26068e-07
8.44923e-07
-2.09702e-07
2.08408e-07
-8.44835e-07
-1.631e-09
-0.00106709
1.10131e-09
-1.17015e-06
2.23676e-07
-2.23932e-07
-8.44768e-07
2.08691e-07
8.4505e-07
-2.09559e-07
1.19983e-06
0.00106623
-1.42849e-09
-0.00106623
1.28537e-09
-1.19795e-06
2.26167e-07
-2.26527e-07
-8.44784e-07
2.08538e-07
-2.09502e-07
8.44923e-07
-1.16675e-06
0.000262411
-0.000260469
2.11224e-07
2.18509e-07
-1.02172e-09
1.3176e-09
0.00106726
-2.24093e-07
1.16679e-06
2.2355e-07
8.4505e-07
-2.12489e-07
2.11159e-07
-8.44971e-07
-1.50444e-09
-0.00106676
1.29665e-09
-1.16487e-06
2.23606e-07
-2.23963e-07
-8.44604e-07
2.11293e-07
8.44889e-07
-2.12208e-07
1.16682e-06
0.00106726
-1.4039e-09
-0.00106726
1.21052e-09
-1.16498e-06
2.23621e-07
-2.23992e-07
-8.44887e-07
2.11312e-07
-2.12267e-07
8.45084e-07
-0.000260481
2.13498e-07
2.18711e-07
1.20315e-06
1.1676e-06
-2.09107e-07
-2.16673e-07
0.000260487
-1.20494e-06
-1.16908e-06
0.000262431
-0.000260486
2.10521e-07
2.18405e-07
1.04737e-09
0.00106632
-2.29241e-07
1.2052e-06
2.29015e-07
8.45032e-07
-2.09509e-07
-8.44756e-07
2.08655e-07
-1.20848e-06
-1.51143e-09
1.25223e-09
0.00106675
-2.3193e-07
1.21056e-06
2.3179e-07
8.50578e-07
-2.12204e-07
-8.50206e-07
2.11504e-07
0.00106632
1.61314e-10
-0.00106632
1.59438e-09
-1.20335e-06
2.28591e-07
-2.2957e-07
-8.45337e-07
2.0775e-07
-2.10195e-07
8.44414e-07
1.21019e-06
0.00106675
2.05183e-10
-0.00106675
2.2277e-09
-1.20893e-06
2.31221e-07
-2.32611e-07
-8.50914e-07
2.10421e-07
-2.13282e-07
8.49935e-07
-2.11637e-07
-2.13928e-07
0.000260507
-1.17183e-06
0.00026246
-0.000260507
2.13344e-07
2.15604e-07
1.20589e-09
0.00106735
-2.26713e-07
1.16949e-06
2.26377e-07
8.47747e-07
-2.12265e-07
-8.4744e-07
2.11401e-07
-1.20327e-06
-1.42863e-09
1.28933e-09
0.00106643
-2.32013e-07
1.20512e-06
2.31612e-07
8.47595e-07
-2.12229e-07
-8.47427e-07
2.11283e-07
0.00106735
-8.31496e-10
-0.00106735
2.10417e-09
-1.16796e-06
2.25816e-07
-2.27175e-07
-8.47655e-07
2.11092e-07
-2.12458e-07
8.47458e-07
1.20496e-06
0.00106643
-1.05191e-09
-0.00106643
1.56629e-09
-1.20338e-06
2.31429e-07
-2.32122e-07
-8.47569e-07
2.11118e-07
-2.12294e-07
8.47385e-07
-1.56918e-09
1.05962e-09
0.00106623
-2.26509e-07
1.19995e-06
2.26296e-07
8.45056e-07
-2.0952e-07
2.08649e-07
-8.44794e-07
1.58148e-10
-0.00106709
2.08903e-09
-1.17053e-06
2.23174e-07
-2.24506e-07
-8.45452e-07
2.07739e-07
8.44502e-07
-2.10548e-07
1.19958e-06
0.00106623
1.30996e-10
-0.00106623
1.80101e-09
-1.19823e-06
2.25768e-07
-2.26938e-07
-8.45366e-07
2.07772e-07
-2.10186e-07
8.44455e-07
-2.09207e-07
-2.16515e-07
0.000260469
-1.16668e-06
0.00026241
-0.000260468
2.11104e-07
2.18247e-07
-1.66006e-09
1.13107e-09
0.00106726
-2.23994e-07
1.16693e-06
2.2373e-07
8.45235e-07
-2.12271e-07
2.1144e-07
-8.44882e-07
-5.35828e-10
-0.00106675
1.15998e-09
-1.16485e-06
2.23498e-07
-2.23942e-07
-8.4501e-07
2.1092e-07
8.44552e-07
-2.12469e-07
1.1665e-06
0.00106726
-3.17728e-11
-0.00106726
2.1638e-09
-1.16533e-06
2.23152e-07
-2.24479e-07
-8.45423e-07
2.10584e-07
-2.12906e-07
8.44646e-07
-0.000260481
2.13024e-07
2.18281e-07
1.2035e-06
1.16804e-06
-2.0965e-07
-2.17162e-07
0.000260486
-1.20495e-06
-1.1694e-06
0.000262432
-0.000260487
2.10878e-07
2.18476e-07
1.89252e-09
0.00106632
-2.29736e-07
1.20486e-06
2.28544e-07
8.44567e-07
-2.10573e-07
-8.45343e-07
2.07639e-07
-1.20888e-06
8.48736e-11
1.89944e-09
0.00106675
-2.32489e-07
1.21025e-06
2.31369e-07
8.5015e-07
-2.1328e-07
-8.50796e-07
2.10597e-07
0.00106632
-7.10391e-10
-0.00106632
1.78809e-09
-1.20346e-06
2.28701e-07
-2.29603e-07
-8.45e-07
2.08256e-07
-2.10003e-07
8.44829e-07
1.21036e-06
0.00106675
-6.47859e-10
-0.00106675
1.53816e-09
-1.20875e-06
2.31532e-07
-2.32268e-07
-8.50518e-07
2.11019e-07
-2.12761e-07
8.50312e-07
-2.12187e-07
-2.14482e-07
0.000260507
-1.17199e-06
0.000262461
-0.000260508
2.13593e-07
2.15872e-07
2.07463e-09
0.00106735
-2.27328e-07
1.16915e-06
2.2587e-07
8.47285e-07
-2.12929e-07
-8.47984e-07
2.10643e-07
-1.20361e-06
-1.56426e-10
1.96124e-09
0.00106643
-2.32468e-07
1.20483e-06
2.31173e-07
8.47169e-07
-2.12837e-07
-8.47945e-07
2.10573e-07
0.00106736
-4.45267e-10
-0.00106736
1.51242e-09
-1.16776e-06
2.26231e-07
-2.26937e-07
-8.47801e-07
2.1091e-07
-2.12963e-07
8.47538e-07
1.20501e-06
0.00106643
-2.81614e-10
-0.00106643
1.75931e-09
-1.2035e-06
2.31439e-07
-2.32349e-07
-8.47765e-07
2.1082e-07
-2.12952e-07
8.47437e-07
1.6855e-10
1.96235e-09
0.00106623
-2.27068e-07
1.19959e-06
2.25789e-07
8.44614e-07
-2.10546e-07
2.07662e-07
-8.45352e-07
-7.94896e-10
-0.00106709
1.49601e-09
-1.17035e-06
2.23473e-07
-2.24176e-07
-8.45044e-07
2.08351e-07
8.44895e-07
-2.10016e-07
1.19972e-06
0.00106623
-6.70779e-10
-0.00106623
1.72002e-09
-1.19817e-06
2.26024e-07
-2.26813e-07
-8.45056e-07
2.08235e-07
-2.10023e-07
8.4483e-07
-2.09598e-07
-2.16989e-07
0.000260468
-1.1666e-06
0.000262411
-0.000260469
2.10978e-07
2.18297e-07
1.27182e-10
2.07103e-09
0.00106726
-2.24583e-07
1.16656e-06
2.23212e-07
8.4477e-07
-2.13289e-07
2.10451e-07
-8.45447e-07
-5.85614e-10
-0.00106676
1.80972e-09
-1.16511e-06
2.23395e-07
-2.24284e-07
-8.44943e-07
2.10863e-07
8.4473e-07
-2.12854e-07
1.16675e-06
0.00106726
-4.92547e-10
-0.00106726
1.4731e-09
-1.16516e-06
2.23515e-07
-2.2425e-07
-8.45193e-07
2.10983e-07
-2.12811e-07
8.44954e-07
-0.000260482
2.13349e-07
2.18525e-07
1.20342e-06
1.16774e-06
-2.09278e-07
-2.16949e-07
0.000260487
-1.20501e-06
-1.16941e-06
0.000262432
-0.000260487
2.10916e-07
2.18548e-07
1.72114e-09
0.00106632
-2.29559e-07
1.20497e-06
2.28738e-07
8.44843e-07
-2.09934e-07
-8.44989e-07
2.08304e-07
-1.20873e-06
-7.27595e-10
1.52391e-09
0.00106675
-2.32251e-07
1.21038e-06
2.31545e-07
8.50327e-07
-2.12722e-07
-8.50511e-07
2.11053e-07
0.00106632
-8.97159e-10
-0.00106632
1.61509e-09
-1.20337e-06
2.28778e-07
-2.29505e-07
-8.44959e-07
2.08336e-07
-2.0988e-07
8.44863e-07
1.21039e-06
0.00106675
-7.93551e-10
-0.00106675
1.53261e-09
-1.20871e-06
2.31549e-07
-2.32241e-07
-8.50488e-07
2.11077e-07
-2.12681e-07
8.50345e-07
-2.11966e-07
-2.14245e-07
0.000260508
-1.17202e-06
0.000262461
-0.000260508
2.1363e-07
2.15904e-07
1.48069e-09
0.00106736
-2.26915e-07
1.16941e-06
2.26246e-07
8.47567e-07
-2.12814e-07
-8.47766e-07
2.11024e-07
-1.20347e-06
-4.91656e-10
1.69928e-09
0.00106643
-2.3229e-07
1.20503e-06
2.31479e-07
8.47467e-07
-2.12776e-07
-8.47729e-07
2.1095e-07
0.00106736
-8.41999e-10
-0.00106736
1.47801e-09
-1.16773e-06
2.2625e-07
-2.26901e-07
-8.47715e-07
2.11111e-07
-2.12677e-07
8.47613e-07
1.20507e-06
0.00106643
-7.60567e-10
-0.00106643
1.58111e-09
-1.20342e-06
2.31516e-07
-2.32234e-07
-8.4767e-07
2.11045e-07
-2.12631e-07
8.47517e-07
-7.88839e-10
1.66137e-09
0.00106623
-2.26787e-07
1.19974e-06
2.26045e-07
8.44857e-07
-2.09944e-07
2.08295e-07
-8.45032e-07
-9.37595e-10
-0.00106709
1.48023e-09
-1.17032e-06
2.23493e-07
-2.24146e-07
-8.45015e-07
2.08406e-07
8.44926e-07
-2.0994e-07
1.19977e-06
0.00106623
-8.72744e-10
-0.00106623
1.59141e-09
-1.19811e-06
2.26069e-07
-2.26753e-07
-8.45008e-07
2.08319e-07
-2.09895e-07
8.44873e-07
-2.09499e-07
-2.16759e-07
0.000260469
-1.16668e-06
0.000262414
-0.000260469
2.11072e-07
2.15855e-07
-6.10153e-10
1.43774e-09
0.00106726
-2.24223e-07
1.16677e-06
2.23534e-07
8.4498e-07
-2.12735e-07
2.11042e-07
-8.45172e-07
-9.16878e-10
-0.00106676
1.55405e-09
-1.16501e-06
2.23454e-07
-2.24157e-07
-8.44846e-07
2.11036e-07
8.44807e-07
-2.12587e-07
1.16678e-06
0.00106726
-7.40379e-10
-0.00106726
1.45237e-09
-1.16512e-06
2.23542e-07
-2.24205e-07
-8.45136e-07
2.11075e-07
-2.12677e-07
8.45007e-07
-0.000260482
2.13389e-07
2.18579e-07
1.20337e-06
1.16774e-06
-2.09254e-07
-2.16892e-07
0.000260487
-1.20502e-06
-1.1694e-06
0.000262432
-0.000260487
2.10912e-07
2.18555e-07
1.59922e-09
0.00106632
-2.29501e-07
1.20502e-06
2.28783e-07
8.44858e-07
-2.09891e-07
-8.4497e-07
2.0833e-07
-1.20871e-06
-7.92825e-10
1.5395e-09
0.00106675
-2.32244e-07
1.21039e-06
2.31549e-07
8.50351e-07
-2.12687e-07
-8.50487e-07
2.1108e-07
0.00106632
-8.80186e-10
-0.00106632
1.5825e-09
-1.20336e-06
2.28786e-07
-2.29496e-07
-8.44962e-07
2.08332e-07
-2.09883e-07
8.44859e-07
1.21038e-06
0.00106675
-7.82968e-10
-0.00106675
1.55511e-09
-1.20872e-06
2.31545e-07
-2.32245e-07
-8.50487e-07
2.11076e-07
-2.12681e-07
8.50344e-07
-2.11942e-07
-2.14225e-07
0.000260508
-1.17201e-06
0.000262461
-0.000260508
2.13629e-07
2.15901e-07
1.49058e-09
0.00106736
-2.26906e-07
1.16941e-06
2.26248e-07
8.47624e-07
-2.12682e-07
-8.47704e-07
2.11116e-07
-1.20343e-06
-7.85858e-10
1.6085e-09
0.00106643
-2.32239e-07
1.20506e-06
2.31514e-07
8.47524e-07
-2.12632e-07
-8.47666e-07
2.11049e-07
0.00106736
-8.8849e-10
-0.00106736
1.50075e-09
-1.16774e-06
2.26245e-07
-2.26906e-07
-8.47702e-07
2.11121e-07
-2.12665e-07
8.47623e-07
1.20507e-06
0.00106643
-8.14449e-10
-0.00106643
1.5677e-09
-1.20341e-06
2.3152e-07
-2.3223e-07
-8.47657e-07
2.11054e-07
-2.12619e-07
8.47526e-07
-8.81128e-10
1.57659e-09
0.00106623
-2.26754e-07
1.19977e-06
2.26071e-07
8.44882e-07
-2.09896e-07
2.08327e-07
-8.45003e-07
-9.17144e-10
-0.00106709
1.49371e-09
-1.17032e-06
2.2349e-07
-2.24149e-07
-8.45015e-07
2.08403e-07
8.44924e-07
-2.09941e-07
1.19977e-06
0.00106623
-8.55388e-10
-0.00106623
1.57256e-09
-1.19811e-06
2.26073e-07
-2.26748e-07
-8.45008e-07
2.08317e-07
-2.09895e-07
8.44871e-07
-2.09424e-07
-2.14205e-07
0.000260469
-1.16669e-06
0.000262414
-0.000260469
2.11081e-07
2.15858e-07
-7.58417e-10
1.45522e-09
0.00106726
-2.2421e-07
1.16678e-06
2.23541e-07
8.45017e-07
-2.12677e-07
2.11085e-07
-8.45131e-07
-9.40046e-10
-0.00106676
1.51813e-09
-1.165e-06
2.23461e-07
-2.24148e-07
-8.44842e-07
2.11039e-07
8.4481e-07
-2.12584e-07
1.16678e-06
0.00106726
-7.64863e-10
-0.00106726
1.47933e-09
-1.16513e-06
2.23537e-07
-2.24209e-07
-8.45128e-07
2.1108e-07
-2.12671e-07
8.45013e-07
-0.000260482
2.13386e-07
2.18583e-07
1.20336e-06
1.16774e-06
-2.09258e-07
-2.16887e-07
0.000260487
-1.20502e-06
-1.1694e-06
0.000262432
-0.000260487
2.10911e-07
2.18557e-07
1.57877e-09
0.00106632
-2.29496e-07
1.20502e-06
2.28787e-07
8.44854e-07
-2.09895e-07
-8.44974e-07
2.08326e-07
-1.20872e-06
-7.79395e-10
1.55985e-09
0.00106675
-2.32248e-07
1.21038e-06
2.31545e-07
8.50348e-07
-2.12689e-07
-8.50488e-07
2.11077e-07
0.00106632
-8.75629e-10
-0.00106632
1.57274e-09
-1.20336e-06
2.28788e-07
-2.29494e-07
-8.44963e-07
2.08331e-07
-2.09885e-07
8.44858e-07
1.21038e-06
0.00106675
-7.78197e-10
-0.00106675
1.56215e-09
-1.20872e-06
2.31544e-07
-2.32247e-07
-8.50488e-07
2.11075e-07
-2.12682e-07
8.50343e-07
-2.11944e-07
-2.14228e-07
0.000260508
-1.17201e-06
0.000262461
-0.000260508
2.13628e-07
2.159e-07
1.50835e-09
0.00106736
-2.2691e-07
1.1694e-06
2.26243e-07
8.47628e-07
-2.12676e-07
-8.47698e-07
2.1112e-07
-1.20343e-06
-8.15712e-10
1.59916e-09
0.00106643
-2.32236e-07
1.20507e-06
2.31516e-07
8.47527e-07
-2.12627e-07
-8.47661e-07
2.11052e-07
0.00106736
-8.9896e-10
-0.00106736
1.50161e-09
-1.16774e-06
2.26244e-07
-2.26907e-07
-8.477e-07
2.11123e-07
-2.12663e-07
8.47625e-07
1.20507e-06
0.00106643
-8.23529e-10
-0.00106643
1.57043e-09
-1.20341e-06
2.31519e-07
-2.32231e-07
-8.47657e-07
2.11055e-07
-2.12619e-07
8.47527e-07
-8.57902e-10
1.56817e-09
0.00106623
-2.26753e-07
1.19977e-06
2.26072e-07
8.44878e-07
-2.099e-07
2.08323e-07
-8.45007e-07
-9.07595e-10
-0.00106709
1.49616e-09
-1.17032e-06
2.2349e-07
-2.2415e-07
-8.45017e-07
2.08402e-07
8.44923e-07
-2.09943e-07
1.19977e-06
0.00106623
-8.46343e-10
-0.00106623
1.57019e-09
-1.19811e-06
2.26073e-07
-2.26748e-07
-8.45011e-07
2.08315e-07
-2.09898e-07
8.44868e-07
-2.09418e-07
-2.14203e-07
0.000260469
-1.16669e-06
0.000262414
-0.000260469
2.11081e-07
2.15857e-07
-7.67102e-10
1.47945e-09
0.00106726
-2.24214e-07
1.16678e-06
2.23536e-07
8.45018e-07
-2.12675e-07
2.11086e-07
-8.45128e-07
-9.38004e-10
-0.00106676
1.51053e-09
-1.165e-06
2.23462e-07
-2.24148e-07
-8.44844e-07
2.11038e-07
8.44809e-07
-2.12585e-07
1.16678e-06
0.00106726
-7.67047e-10
-0.00106726
1.4859e-09
-1.16513e-06
2.23536e-07
-2.24211e-07
-8.45129e-07
2.11079e-07
-2.12671e-07
8.45012e-07
-0.000260482
2.13384e-07
2.18583e-07
1.20336e-06
1.16774e-06
-2.09259e-07
-2.16885e-07
0.000260487
-1.20502e-06
-1.1694e-06
0.000262432
-0.000260487
2.10912e-07
2.18558e-07
1.5699e-09
0.00106632
-2.29494e-07
1.20502e-06
2.28789e-07
8.44853e-07
-2.09896e-07
-8.44974e-07
2.08326e-07
-1.20872e-06
-7.81997e-10
1.55927e-09
0.00106675
-2.32247e-07
1.21038e-06
2.31546e-07
8.50349e-07
-2.12689e-07
-8.50488e-07
2.11077e-07
0.00106632
-8.79725e-10
-0.00106632
1.57133e-09
-1.20336e-06
2.28789e-07
-2.29492e-07
-8.44962e-07
2.08332e-07
-2.09884e-07
8.44859e-07
1.21038e-06
0.00106675
-7.85543e-10
-0.00106675
1.56119e-09
-1.20872e-06
2.31545e-07
-2.32244e-07
-8.50486e-07
2.11077e-07
-2.12679e-07
8.50346e-07
-2.11944e-07
-2.14229e-07
0.000260508
-1.17202e-06
0.000262461
-0.000260508
2.1363e-07
2.15901e-07
1.50675e-09
0.00106736
-2.2691e-07
1.1694e-06
2.26244e-07
8.4763e-07
-2.12675e-07
-8.47696e-07
2.11122e-07
-1.20343e-06
-8.25607e-10
1.59372e-09
0.00106643
-2.32236e-07
1.20507e-06
2.31517e-07
8.47529e-07
-2.12626e-07
-8.47659e-07
2.11054e-07
0.00106736
-9.01153e-10
-0.00106736
1.50405e-09
-1.16774e-06
2.26244e-07
-2.26907e-07
-8.47698e-07
2.11123e-07
-2.12661e-07
8.47626e-07
1.20507e-06
0.00106643
-8.27687e-10
-0.00106643
1.57529e-09
-1.20341e-06
2.31519e-07
-2.32229e-07
-8.47655e-07
2.11056e-07
-2.12617e-07
8.47528e-07
-8.55761e-10
1.56431e-09
0.00106623
-2.26752e-07
1.19977e-06
2.26073e-07
8.44878e-07
-2.09901e-07
2.08323e-07
-8.45008e-07
-9.12332e-10
-0.00106709
1.49337e-09
-1.17032e-06
2.23491e-07
-2.24148e-07
-8.45015e-07
2.08404e-07
8.44924e-07
-2.0994e-07
1.19977e-06
0.00106623
-8.47555e-10
-0.00106623
1.5694e-09
-1.19811e-06
2.26075e-07
-2.26746e-07
-8.4501e-07
2.08316e-07
-2.09897e-07
8.44869e-07
-2.09418e-07
-2.14203e-07
0.000260469
-1.16669e-06
0.000262414
-0.000260469
2.11081e-07
2.15855e-07
-7.71276e-10
1.48085e-09
0.00106726
-2.24215e-07
1.16678e-06
2.23536e-07
8.45019e-07
-2.12674e-07
2.11087e-07
-8.45128e-07
-9.38724e-10
-0.00106676
1.50797e-09
-1.165e-06
2.23463e-07
-2.24146e-07
-8.44842e-07
2.11039e-07
8.44809e-07
-2.12583e-07
1.16678e-06
0.00106726
-7.68055e-10
-0.00106726
1.48735e-09
-1.16513e-06
2.23536e-07
-2.2421e-07
-8.45127e-07
2.11081e-07
-2.12669e-07
8.45014e-07
-0.000260482
2.13385e-07
2.18585e-07
1.20336e-06
1.16774e-06
-2.09259e-07
-2.16884e-07
0.000260487
-1.20502e-06
-1.1694e-06
0.000262432
-0.000260487
2.10908e-07
2.18555e-07
1.56952e-09
0.00106632
-2.29493e-07
1.20502e-06
2.2879e-07
8.44854e-07
-2.09895e-07
-8.44974e-07
2.08326e-07
-1.20872e-06
-7.86472e-10
1.55881e-09
0.00106675
-2.32247e-07
1.21038e-06
2.31545e-07
8.5035e-07
-2.12687e-07
-8.50486e-07
2.11079e-07
0.00106632
-8.41746e-10
-0.00106632
1.593e-09
-1.20336e-06
2.28784e-07
-2.29493e-07
-8.44962e-07
2.08327e-07
-2.09884e-07
8.44854e-07
1.21038e-06
0.00106675
-7.53943e-10
-0.00106675
1.59594e-09
-1.20872e-06
2.31538e-07
-2.32248e-07
-8.50484e-07
2.11071e-07
-2.12678e-07
8.5034e-07
-2.11943e-07
-2.14228e-07
0.000260508
-1.17201e-06
0.000262461
-0.000260508
2.13625e-07
2.15896e-07
1.51001e-09
0.00106736
-2.26911e-07
1.1694e-06
2.26243e-07
8.4763e-07
-2.12673e-07
-8.47695e-07
2.11122e-07
-1.20342e-06
-8.28453e-10
1.58574e-09
0.00106643
-2.32234e-07
1.20507e-06
2.31518e-07
8.4753e-07
-2.12625e-07
-8.47658e-07
2.11054e-07
0.00106736
-8.62607e-10
-0.00106736
1.53017e-09
-1.16774e-06
2.26239e-07
-2.26909e-07
-8.47698e-07
2.11118e-07
-2.12661e-07
8.4762e-07
1.20506e-06
0.00106643
-7.88496e-10
-0.00106643
1.59799e-09
-1.20342e-06
2.31513e-07
-2.32231e-07
-8.47656e-07
2.1105e-07
-2.12618e-07
8.47522e-07
-8.57318e-10
1.56185e-09
0.00106623
-2.26751e-07
1.19977e-06
2.26074e-07
8.44877e-07
-2.099e-07
2.08323e-07
-8.45007e-07
-8.73248e-10
-0.00106709
1.51593e-09
-1.17032e-06
2.23485e-07
-2.24149e-07
-8.45015e-07
2.08397e-07
8.44918e-07
-2.09942e-07
1.19977e-06
0.00106623
-8.05463e-10
-0.00106623
1.59647e-09
-1.19811e-06
2.26069e-07
-2.26748e-07
-8.45011e-07
2.08309e-07
-2.09898e-07
8.44863e-07
-2.09417e-07
-2.14203e-07
0.000260469
-1.16669e-06
0.000262414
-0.000260469
2.11081e-07
2.15855e-07
-7.69156e-10
1.48149e-09
0.00106726
-2.24215e-07
1.16678e-06
2.23535e-07
8.45019e-07
-2.12673e-07
2.11087e-07
-8.45127e-07
-9.04349e-10
-0.00106676
1.52869e-09
-1.16501e-06
2.23458e-07
-2.24117e-07
-8.44842e-07
2.11032e-07
8.44804e-07
-2.12583e-07
1.16677e-06
0.00106726
-7.4448e-10
-0.00106726
1.52072e-09
-1.16513e-06
2.23531e-07
-2.24211e-07
-8.45125e-07
2.11077e-07
-2.12668e-07
8.45011e-07
-0.000260482
2.1338e-07
2.18581e-07
1.20335e-06
1.16774e-06
-2.09255e-07
-2.16879e-07
0.000260487
-1.20497e-06
-1.16935e-06
0.000262432
-0.000260487
2.10778e-07
2.18421e-07
1.52492e-09
0.00106632
-2.29487e-07
1.20502e-06
2.28786e-07
8.44846e-07
-2.09888e-07
-8.44967e-07
2.08316e-07
-1.20871e-06
-8.3522e-10
1.52057e-09
0.00106675
-2.32242e-07
1.21038e-06
2.3154e-07
8.50343e-07
-2.12676e-07
-8.50476e-07
2.11069e-07
0.00106632
-6.52616e-10
-0.00106632
1.71724e-09
-1.20322e-06
2.28714e-07
-2.29326e-07
-8.44713e-07
2.07933e-07
-2.09547e-07
8.44656e-07
1.21033e-06
0.00106675
-5.87023e-10
-0.00106675
1.73874e-09
-1.20858e-06
2.31469e-07
-2.32081e-07
-8.50228e-07
2.1068e-07
-2.12335e-07
8.50143e-07
-2.11939e-07
-2.14224e-07
0.000260508
-1.17196e-06
0.000262461
-0.000260508
2.13489e-07
2.15768e-07
1.47088e-09
0.00106736
-2.26906e-07
1.1694e-06
2.26239e-07
8.47624e-07
-2.12664e-07
-8.47686e-07
2.11114e-07
-1.20341e-06
-8.70823e-10
1.54481e-09
0.00106643
-2.32228e-07
1.20506e-06
2.31513e-07
8.47523e-07
-2.12617e-07
-8.4765e-07
2.11047e-07
0.00106736
-7.04542e-10
-0.00106736
1.66928e-09
-1.1676e-06
2.26169e-07
-2.26748e-07
-8.47443e-07
2.10731e-07
-2.12322e-07
8.47425e-07
1.20502e-06
0.00106643
-6.16772e-10
-0.00106643
1.7279e-09
-1.20327e-06
2.31447e-07
-2.32064e-07
-8.47405e-07
2.10662e-07
-2.12282e-07
8.47326e-07
-9.12549e-10
1.51287e-09
0.00106623
-2.26746e-07
1.19977e-06
2.2607e-07
8.44872e-07
-2.09891e-07
2.08316e-07
-8.44998e-07
-6.90159e-10
-0.00106709
1.66624e-09
-1.17018e-06
2.23413e-07
-2.23985e-07
-8.44761e-07
2.08007e-07
8.44719e-07
-2.09603e-07
1.19972e-06
0.00106623
-6.25435e-10
-0.00106623
1.73393e-09
-1.19797e-06
2.25998e-07
-2.26588e-07
-8.44757e-07
2.07925e-07
-2.09555e-07
8.44669e-07
-2.09412e-07
-2.14196e-07
0.000260469
-1.16664e-06
0.000262412
-0.000260469
2.10958e-07
2.18234e-07
-8.51583e-10
1.4516e-09
0.00106726
-2.24209e-07
1.16678e-06
2.23532e-07
8.45019e-07
-2.1266e-07
2.11084e-07
-8.45114e-07
-7.29258e-10
-0.00106676
1.65551e-09
-1.16486e-06
2.23423e-07
-2.23983e-07
-8.44585e-07
2.10661e-07
8.44552e-07
-2.12242e-07
1.16673e-06
0.00106726
-6.72122e-10
-0.00106726
1.67602e-09
-1.16498e-06
2.23466e-07
-2.24044e-07
-8.44859e-07
2.10703e-07
-2.12313e-07
8.44833e-07
-0.000260482
2.13252e-07
2.18451e-07
1.20316e-06
1.16755e-06
-2.08923e-07
-2.16541e-07
0.000260487
-1.20642e-06
-1.17083e-06
0.000262439
-0.000260487
2.10084e-07
2.15305e-07
1.68461e-09
0.00106632
-2.29268e-07
1.20468e-06
2.28402e-07
8.44098e-07
-2.0907e-07
-8.4449e-07
2.06888e-07
-1.20852e-06
-1.00947e-10
1.69047e-09
0.00106675
-2.32022e-07
1.21005e-06
2.31162e-07
8.49602e-07
-2.11855e-07
-8.49991e-07
2.09652e-07
0.00106632
-6.31277e-09
-0.00106632
-6.07458e-09
-1.20298e-06
2.29648e-07
-2.25952e-07
-8.40587e-07
1.99275e-07
-2.00289e-07
8.41995e-07
1.21176e-06
0.00106677
-1.65125e-08
-0.00106676
-9.81284e-10
-1.20572e-06
2.29676e-07
-2.2871e-07
-8.40841e-07
1.96647e-07
-1.97732e-07
8.42203e-07
-2.11607e-07
-2.1389e-07
0.000260508
-1.17339e-06
0.000262462
-0.000260505
2.10307e-07
2.1759e-07
1.63305e-09
0.00106735
-2.26694e-07
1.1717e-06
2.2856e-07
8.46878e-07
-2.11844e-07
-8.47199e-07
2.09692e-07
-1.20322e-06
-1.41213e-10
1.69149e-09
0.00106643
-2.32004e-07
1.20474e-06
2.31139e-07
8.4678e-07
-2.11799e-07
-8.47167e-07
2.0963e-07
0.00106736
-6.42832e-09
-0.00106736
-1.00929e-09
-1.16741e-06
2.27098e-07
-2.26071e-07
-8.43307e-07
1.99408e-07
-2.00359e-07
8.44782e-07
1.20122e-06
0.00106644
-6.3357e-09
-0.00106643
-6.06138e-09
-1.1978e-06
2.29687e-07
-2.28686e-07
-8.40686e-07
1.99325e-07
-2.00329e-07
8.42076e-07
-1.39647e-10
1.67034e-09
0.00106623
-2.2653e-07
1.19944e-06
2.2569e-07
8.44127e-07
-2.09068e-07
2.06897e-07
-8.44519e-07
-1.153e-08
-0.0010671
-1.01312e-09
-1.16736e-06
2.21645e-07
-2.20625e-07
-8.40634e-07
1.99309e-07
8.44697e-07
-1.97654e-07
1.20118e-06
0.00106624
-1.14589e-08
-0.00106624
-1.02653e-09
-1.19516e-06
2.26941e-07
-2.23233e-07
-8.40636e-07
1.99253e-07
-1.97637e-07
8.41996e-07
-2.09084e-07
-2.16363e-07
0.000260469
-1.16548e-06
0.000262413
-0.000260471
2.10276e-07
2.15057e-07
-1.92318e-10
1.6463e-09
0.00106726
-2.23987e-07
1.16645e-06
2.23155e-07
8.44294e-07
-2.11821e-07
2.09675e-07
-8.44618e-07
-6.42831e-09
-0.00106676
-6.12849e-09
-1.16203e-06
2.21664e-07
-2.2061e-07
-8.37807e-07
1.99327e-07
8.39256e-07
-2.00287e-07
1.16554e-06
0.00106726
-6.38813e-09
-0.00106727
-6.08374e-09
-1.15691e-06
2.2169e-07
-2.17965e-07
-8.35454e-07
1.96677e-07
-1.97679e-07
8.39504e-07
-0.000260487
2.10105e-07
2.17762e-07
1.19987e-06
1.16166e-06
-2.05184e-07
-2.07844e-07
0.00026049
-1.26117e-06
-1.22554e-06
0.000262512
-0.000260514
2.4177e-07
2.47045e-07
5.62378e-09
0.00106633
-2.25134e-07
1.20387e-06
2.23192e-07
8.3707e-07
-1.97641e-07
-8.39252e-07
1.91317e-07
-1.20519e-06
4.95701e-09
7.26703e-10
0.00106676
-2.279e-07
1.20655e-06
2.25896e-07
8.3997e-07
-1.95011e-07
-8.39564e-07
1.94007e-07
0.00106658
-3.28067e-07
-0.00106642
-1.5445e-07
-1.16908e-06
2.61106e-07
-1.9696e-07
-8.06418e-07
2.38986e-07
-1.65523e-07
8.98369e-07
1.26645e-06
0.001067
-3.28074e-07
-0.00106685
-1.49025e-07
-1.17451e-06
2.61062e-07
-1.97096e-07
-8.14616e-07
2.41719e-07
-1.65581e-07
9.06551e-07
-2.05414e-07
-2.10179e-07
0.000260506
-1.2255e-06
0.000262535
-0.000260534
2.445e-07
2.4671e-07
7.06046e-10
0.00106737
-2.22537e-07
1.16295e-06
2.17871e-07
8.37236e-07
-1.97663e-07
-8.39375e-07
1.94099e-07
-1.19469e-06
-5.52363e-09
6.80402e-10
0.00106645
-2.25127e-07
1.19862e-06
2.23158e-07
8.37174e-07
-1.94944e-07
-8.39361e-07
1.91322e-07
0.0010676
-3.34014e-07
-0.00106745
-1.48891e-07
-1.13089e-06
2.5847e-07
-1.91718e-07
-8.11687e-07
2.4185e-07
-1.65506e-07
9.03837e-07
1.25854e-06
0.0010667
-3.33449e-07
-0.00106653
-1.54366e-07
-1.16658e-06
2.61138e-07
-1.94321e-07
-8.09093e-07
2.41763e-07
-1.68118e-07
9.01117e-07
1.60369e-10
6.24021e-10
0.00106624
-2.25113e-07
1.19855e-06
2.23112e-07
8.37091e-07
-1.94908e-07
1.91263e-07
-8.36678e-07
-3.28537e-07
-0.00106719
-1.53968e-07
-1.13349e-06
2.55694e-07
-1.89069e-07
-8.09135e-07
2.38996e-07
9.0109e-07
-1.65491e-07
1.25851e-06
0.00106648
-3.28094e-07
-0.00106633
-1.54417e-07
-1.16389e-06
2.61066e-07
-1.91606e-07
-8.09046e-07