/*--------------------------------*- C++ -*----------------------------------*\
| =========                 |                                                 |
| \\      /  F ield         | OpenFOAM: The Open Source CFD Toolbox           |
|  \\    /   O peration     | Version:  2206                                  |
|   \\  /    A nd           | Website:  www.openfoam.com                      |
|    \\/     M anipulation  |                                                 |
\*---------------------------------------------------------------------------*/
FoamFile
{
    version     2.0;
    format      ascii;
    arch        "LSB;label=32;scalar=64";
    class       volScalarField;
    location    "27.5";
    object      k;
}
// * * * * * * * * * * * * * * * * * * * * * * * * * * * * * * * * * * * * * //

dimensions      [0 2 -2 0 0 0 0];

internalField   nonuniform List<scalar> 
28673
(
2.60458e-05
2.54711e-05
2.65688e-05
2.6046e-05
2.60457e-05
2.54737e-05
2.65688e-05
2.6046e-05
2.60457e-05
2.54738e-05
2.65688e-05
2.6046e-05
2.60458e-05
2.54739e-05
2.65687e-05
2.6046e-05
2.60459e-05
2.54742e-05
2.65685e-05
2.60457e-05
2.60456e-05
2.5474e-05
2.65662e-05
2.6041e-05
2.60431e-05
2.54698e-05
2.65612e-05
2.60374e-05
2.60375e-05
2.54648e-05
2.6561e-05
2.60374e-05
2.60372e-05
2.54647e-05
2.6561e-05
2.60374e-05
2.60372e-05
2.54646e-05
2.6561e-05
2.60374e-05
2.60373e-05
2.54646e-05
2.6561e-05
2.60376e-05
2.60375e-05
2.54649e-05
2.65793e-05
2.60803e-05
2.60803e-05
2.55487e-05
2.60454e-05
2.54776e-05
2.60458e-05
2.54776e-05
2.60455e-05
2.60454e-05
2.60455e-05
2.60454e-05
2.5474e-05
2.54776e-05
2.60458e-05
2.60451e-05
2.60455e-05
2.6046e-05
2.60454e-05
2.54772e-05
2.60458e-05
2.60457e-05
2.60457e-05
2.54775e-05
2.54741e-05
2.54779e-05
2.60457e-05
2.60456e-05
2.60456e-05
2.60456e-05
2.5474e-05
2.54777e-05
2.6046e-05
2.60452e-05
2.60459e-05
2.60452e-05
2.60455e-05
2.6046e-05
2.60455e-05
2.54737e-05
2.54773e-05
2.60458e-05
2.60457e-05
2.60457e-05
2.54776e-05
2.54743e-05
2.54781e-05
2.60458e-05
2.60457e-05
2.60457e-05
2.60457e-05
2.54742e-05
2.5478e-05
2.6046e-05
2.60454e-05
2.6046e-05
2.60453e-05
2.60456e-05
2.6046e-05
2.60455e-05
2.54737e-05
2.54775e-05
2.60458e-05
2.60458e-05
2.60458e-05
2.54777e-05
2.54745e-05
2.54783e-05
2.60459e-05
2.60459e-05
2.60459e-05
2.60459e-05
2.54744e-05
2.54782e-05
2.60462e-05
2.60454e-05
2.60462e-05
2.60454e-05
2.60456e-05
2.6046e-05
2.60456e-05
2.5474e-05
2.54777e-05
2.60459e-05
2.60459e-05
2.60459e-05
2.54779e-05
2.54748e-05
2.54785e-05
2.6046e-05
2.6046e-05
2.60458e-05
2.60456e-05
2.54747e-05
2.54781e-05
2.60464e-05
2.60456e-05
2.60463e-05
2.60454e-05
2.60457e-05
2.60458e-05
2.60455e-05
2.54742e-05
2.54779e-05
2.6046e-05
2.60457e-05
2.60459e-05
2.5478e-05
2.54749e-05
2.5476e-05
2.60457e-05
2.60454e-05
2.6044e-05
2.60425e-05
2.54743e-05
2.54738e-05
2.60462e-05
2.60454e-05
2.60451e-05
2.60444e-05
2.60454e-05
2.6043e-05
2.60434e-05
2.54743e-05
2.54761e-05
2.60457e-05
2.60447e-05
2.60437e-05
2.54749e-05
2.54713e-05
2.54692e-05
2.60421e-05
2.60405e-05
2.60376e-05
2.60371e-05
2.54689e-05
2.54686e-05
2.60436e-05
2.60431e-05
2.60383e-05
2.60378e-05
2.60414e-05
2.60375e-05
2.60374e-05
2.54716e-05
2.54693e-05
2.60417e-05
2.60381e-05
2.60376e-05
2.54689e-05
2.54653e-05
2.54685e-05
2.60372e-05
2.6037e-05
2.6037e-05
2.60369e-05
2.54649e-05
2.54685e-05
2.60377e-05
2.60371e-05
2.60373e-05
2.60366e-05
2.60372e-05
2.60374e-05
2.6037e-05
2.54652e-05
2.54681e-05
2.60374e-05
2.60372e-05
2.60372e-05
2.54685e-05
2.54649e-05
2.54684e-05
2.60371e-05
2.60371e-05
2.6037e-05
2.60369e-05
2.54649e-05
2.54684e-05
2.60374e-05
2.60367e-05
2.60373e-05
2.60367e-05
2.60371e-05
2.60374e-05
2.6037e-05
2.54646e-05
2.54681e-05
2.60374e-05
2.60372e-05
2.60373e-05
2.54684e-05
2.54648e-05
2.54684e-05
2.60371e-05
2.6037e-05
2.60371e-05
2.6037e-05
2.54648e-05
2.54684e-05
2.60375e-05
2.60368e-05
2.60374e-05
2.60367e-05
2.60372e-05
2.60375e-05
2.60371e-05
2.54645e-05
2.54681e-05
2.60374e-05
2.60373e-05
2.60374e-05
2.54684e-05
2.54649e-05
2.54686e-05
2.60372e-05
2.60371e-05
2.60376e-05
2.60375e-05
2.54647e-05
2.54686e-05
2.60375e-05
2.60369e-05
2.60379e-05
2.60372e-05
2.60372e-05
2.60379e-05
2.60376e-05
2.54645e-05
2.54682e-05
2.60375e-05
2.60378e-05
2.60379e-05
2.54686e-05
2.54651e-05
2.55031e-05
2.60373e-05
2.60372e-05
2.60697e-05
2.60696e-05
2.54651e-05
2.5503e-05
2.60376e-05
2.60369e-05
2.60699e-05
2.60695e-05
2.60373e-05
2.60699e-05
2.60697e-05
2.54647e-05
2.55028e-05
2.60376e-05
2.60698e-05
2.60699e-05
2.5503e-05
2.55489e-05
2.60802e-05
2.60802e-05
2.55488e-05
2.60804e-05
2.608e-05
2.65793e-05
2.65793e-05
2.65793e-05
2.60802e-05
2.55486e-05
2.60804e-05
2.85605e-05
6.98687e-05
2.85616e-05
6.98667e-05
7.96962e-05
7.9692e-05
2.8561e-05
6.98681e-05
2.6569e-05
2.65687e-05
2.65688e-05
2.65689e-05
2.65687e-05
2.65687e-05
2.45618e-05
2.81378e-05
2.63495e-05
2.6046e-05
2.45618e-05
2.81346e-05
2.63495e-05
7.96923e-05
2.4561e-05
2.63493e-05
2.60458e-05
2.4561e-05
2.63493e-05
2.8134e-05
3.42651e-05
3.42669e-05
2.54775e-05
3.42646e-05
3.42663e-05
2.8563e-05
6.98675e-05
2.85646e-05
6.98646e-05
7.9689e-05
7.96876e-05
2.8564e-05
6.98703e-05
2.85652e-05
6.98673e-05
2.65689e-05
2.65687e-05
2.65687e-05
2.65688e-05
2.65688e-05
2.65686e-05
2.65686e-05
2.45623e-05
2.81401e-05
2.63494e-05
2.60461e-05
2.45623e-05
2.81365e-05
2.63494e-05
7.96884e-05
7.96852e-05
2.45616e-05
2.63492e-05
2.81398e-05
2.60458e-05
2.45616e-05
2.63492e-05
2.81366e-05
3.4268e-05
3.42697e-05
2.54775e-05
3.42661e-05
3.42679e-05
2.85644e-05
6.98658e-05
2.85664e-05
6.98634e-05
7.9687e-05
7.96864e-05
2.85654e-05
6.98684e-05
2.85672e-05
6.98659e-05
2.65689e-05
2.65686e-05
2.65686e-05
2.65688e-05
2.65687e-05
2.65685e-05
2.65684e-05
2.45627e-05
2.81414e-05
2.63494e-05
2.60461e-05
2.45627e-05
2.81376e-05
2.63495e-05
7.9684e-05
7.96825e-05
2.4562e-05
2.63491e-05
2.81414e-05
2.60458e-05
2.45621e-05
2.63492e-05
2.81378e-05
3.42694e-05
3.42711e-05
2.54777e-05
3.42685e-05
3.42703e-05
2.85651e-05
6.98651e-05
2.85671e-05
6.9863e-05
7.9687e-05
7.96872e-05
2.85658e-05
6.98677e-05
2.85677e-05
6.98656e-05
2.65687e-05
2.65687e-05
2.65686e-05
2.65687e-05
2.65686e-05
2.65687e-05
2.65686e-05
2.4563e-05
2.81423e-05
2.63493e-05
2.60461e-05
2.4563e-05
2.81383e-05
2.63495e-05
7.96829e-05
7.96825e-05
2.45622e-05
2.63492e-05
2.81423e-05
2.60459e-05
2.45623e-05
2.63494e-05
2.81387e-05
3.42727e-05
3.42746e-05
2.54778e-05
3.42718e-05
3.42737e-05
2.85659e-05
6.98652e-05
2.8568e-05
6.98633e-05
7.96886e-05
7.96892e-05
2.8567e-05
6.98679e-05
2.85687e-05
6.9866e-05
2.65686e-05
2.65686e-05
2.65687e-05
2.65686e-05
2.65685e-05
2.65684e-05
2.65684e-05
2.45637e-05
2.81427e-05
2.63494e-05
2.6046e-05
2.45636e-05
2.81387e-05
2.63494e-05
7.96839e-05
7.96839e-05
2.45629e-05
2.63492e-05
2.81429e-05
2.60459e-05
2.45629e-05
2.63492e-05
2.8139e-05
3.42751e-05
3.42769e-05
2.54781e-05
3.42732e-05
3.42751e-05
2.85645e-05
6.98668e-05
2.85676e-05
6.98669e-05
7.96905e-05
7.96898e-05
2.85663e-05
6.98691e-05
2.8569e-05
6.98686e-05
2.65684e-05
2.65683e-05
2.65683e-05
2.65677e-05
2.65666e-05
2.65676e-05
2.65669e-05
2.45621e-05
2.81428e-05
2.63492e-05
2.60454e-05
2.45632e-05
2.81379e-05
2.6349e-05
7.96863e-05
7.96867e-05
2.45615e-05
2.6349e-05
2.81428e-05
2.60455e-05
2.45626e-05
2.63489e-05
2.81384e-05
3.42748e-05
3.42767e-05
2.54773e-05
3.42725e-05
3.42743e-05
2.85598e-05
6.98707e-05
2.85647e-05
6.98719e-05
7.96885e-05
7.96909e-05
2.85627e-05
6.98729e-05
2.85671e-05
6.98745e-05
2.65647e-05
2.65665e-05
2.65652e-05
2.65619e-05
2.65613e-05
2.65619e-05
2.65614e-05
2.45536e-05
2.81383e-05
2.63453e-05
2.60394e-05
2.45586e-05
2.81306e-05
2.63437e-05
7.96858e-05
7.96875e-05
2.45533e-05
2.6346e-05
2.814e-05
2.60412e-05
2.45583e-05
2.63443e-05
2.81329e-05
3.42728e-05
3.42746e-05
2.54712e-05
3.42683e-05
3.42701e-05
2.85552e-05
6.98731e-05
2.85589e-05
6.98764e-05
7.96852e-05
7.96947e-05
2.85569e-05
6.98763e-05
2.85608e-05
6.98796e-05
2.65612e-05
2.65613e-05
2.65612e-05
2.6561e-05
2.65611e-05
2.65609e-05
2.6561e-05
2.45522e-05
2.81317e-05
2.63413e-05
2.60374e-05
2.45525e-05
2.81241e-05
2.63414e-05
7.96832e-05
7.96931e-05
2.45513e-05
2.63413e-05
2.81329e-05
2.60373e-05
2.45516e-05
2.63413e-05
2.81251e-05
3.42692e-05
3.42709e-05
2.54685e-05
3.42644e-05
3.42662e-05
2.85574e-05
6.98695e-05
2.85615e-05
6.98803e-05
7.96823e-05
7.96976e-05
2.85587e-05
6.98727e-05
2.85626e-05
6.98834e-05
2.65612e-05
2.65611e-05
2.65611e-05
2.6561e-05
2.6561e-05
2.65609e-05
2.6561e-05
2.45526e-05
2.81325e-05
2.63413e-05
2.60374e-05
2.45529e-05
2.81213e-05
2.63414e-05
7.96814e-05
7.96973e-05
2.45517e-05
2.63412e-05
2.81329e-05
2.60373e-05
2.4552e-05
2.63413e-05
2.81218e-05
3.42689e-05
3.42706e-05
2.54685e-05
3.42636e-05
3.42652e-05
2.85579e-05
6.98696e-05
2.8561e-05
6.98912e-05
7.96673e-05
7.96867e-05
2.85591e-05
6.98729e-05
2.85619e-05
6.98948e-05
2.65611e-05
2.6561e-05
2.65611e-05
2.6561e-05
2.6561e-05
2.65609e-05
2.6561e-05
2.45524e-05
2.81304e-05
2.63413e-05
2.60375e-05
2.45532e-05
2.81147e-05
2.63415e-05
7.96681e-05
7.96874e-05
2.45517e-05
2.63412e-05
2.8131e-05
2.60374e-05
2.45525e-05
2.63414e-05
2.81159e-05
3.42702e-05
3.42717e-05
2.54684e-05
3.42692e-05
3.42706e-05
2.85615e-05
6.98572e-05
2.85624e-05
6.98926e-05
7.96263e-05
7.9651e-05
2.85627e-05
6.98607e-05
2.85633e-05
6.98963e-05
2.65612e-05
2.65611e-05
2.65611e-05
2.65612e-05
2.65613e-05
2.65612e-05
2.65612e-05
2.45521e-05
2.81397e-05
2.63414e-05
2.60376e-05
2.45541e-05
2.8118e-05
2.63414e-05
7.96281e-05
7.96519e-05
2.45515e-05
2.63413e-05
2.81412e-05
2.60374e-05
2.45535e-05
2.63413e-05
2.81195e-05
3.42695e-05
3.42706e-05
2.54683e-05
3.42723e-05
3.42733e-05
2.85687e-05
6.9817e-05
2.85612e-05
6.98749e-05
7.95332e-05
7.95561e-05
2.85702e-05
6.98209e-05
2.85625e-05
6.98785e-05
2.65613e-05
2.65612e-05
2.65612e-05
2.65664e-05
2.65665e-05
2.65664e-05
2.65665e-05
2.45506e-05
2.81662e-05
2.63422e-05
2.60412e-05
2.4555e-05
2.81041e-05
2.63414e-05
7.95336e-05
7.9556e-05
2.45501e-05
2.63421e-05
2.81672e-05
2.60411e-05
2.45545e-05
2.63413e-05
2.81046e-05
3.42559e-05
3.4257e-05
2.54733e-05
3.42641e-05
3.4265e-05
2.6223e-05
6.78775e-05
2.8486e-05
5.77253e-05
7.49727e-05
4.78539e-05
2.6224e-05
6.78855e-05
2.84877e-05
5.77321e-05
2.67589e-05
2.66969e-05
2.66969e-05
2.65208e-05
2.67561e-05
2.66803e-05
2.66804e-05
2.45857e-05
2.79212e-05
2.63747e-05
2.61187e-05
2.45747e-05
3.05039e-05
2.64326e-05
7.49721e-05
4.78524e-05
2.45853e-05
2.63746e-05
2.7921e-05
2.61187e-05
2.45742e-05
2.64326e-05
3.05028e-05
3.4491e-05
3.4492e-05
2.56516e-05
3.32615e-05
3.32605e-05
6.98696e-05
2.81349e-05
7.96968e-05
3.42645e-05
3.42575e-05
7.96929e-05
2.81332e-05
6.98666e-05
7.96985e-05
7.96944e-05
7.9696e-05
3.42651e-05
2.54775e-05
3.42645e-05
3.42641e-05
7.96905e-05
7.9694e-05
7.96914e-05
7.96955e-05
2.54739e-05
3.42657e-05
3.42665e-05
3.42668e-05
3.42668e-05
2.85608e-05
6.98716e-05
2.8562e-05
6.98695e-05
2.45616e-05
2.81373e-05
2.63494e-05
2.60455e-05
2.45617e-05
2.81344e-05
2.63494e-05
2.45618e-05
2.81395e-05
2.63495e-05
2.60454e-05
2.45618e-05
2.81364e-05
2.63495e-05
2.85634e-05
6.98658e-05
6.98686e-05
2.85619e-05
2.85638e-05
6.9868e-05
6.98711e-05
2.85623e-05
2.45622e-05
2.60455e-05
2.81356e-05
2.63493e-05
2.81389e-05
2.63493e-05
2.45618e-05
2.45623e-05
2.60454e-05
2.81374e-05
2.63494e-05
2.81408e-05
2.63494e-05
2.45619e-05
3.42673e-05
3.42604e-05
2.54776e-05
3.42669e-05
3.42594e-05
7.96931e-05
7.96886e-05
7.96891e-05
7.96918e-05
2.5474e-05
3.42678e-05
3.42609e-05
3.42691e-05
3.42618e-05
7.96856e-05
7.96889e-05
2.4562e-05
2.60458e-05
2.81349e-05
2.63494e-05
2.85605e-05
6.98655e-05
2.45617e-05
2.60451e-05
2.63492e-05
2.81336e-05
2.85637e-05
6.98684e-05
6.98703e-05
2.85627e-05
2.45625e-05
2.60458e-05
2.81363e-05
2.63493e-05
2.81394e-05
2.63493e-05
2.45622e-05
2.85632e-05
6.98652e-05
6.98674e-05
2.85623e-05
2.45622e-05
2.60451e-05
2.63492e-05
2.8135e-05
2.63492e-05
2.81384e-05
2.45619e-05
2.85607e-05
6.98688e-05
2.85618e-05
6.98665e-05
2.45617e-05
2.63494e-05
2.81372e-05
2.60455e-05
2.45617e-05
2.63494e-05
2.81342e-05
2.85606e-05
6.98703e-05
2.85617e-05
6.98684e-05
2.45624e-05
2.6046e-05
2.81357e-05
2.63494e-05
2.81393e-05
2.63495e-05
2.45622e-05
2.85636e-05
6.9865e-05
6.98682e-05
2.85622e-05
2.45622e-05
2.60454e-05
2.63493e-05
2.81354e-05
2.63493e-05
2.81387e-05
2.45619e-05
2.85635e-05
6.98674e-05
6.98702e-05
2.8562e-05
2.54773e-05
3.42596e-05
3.42629e-05
7.96968e-05
7.96882e-05
7.96926e-05
2.54737e-05
3.42614e-05
3.42653e-05
3.42624e-05
3.42656e-05
7.96922e-05
7.96963e-05
2.45609e-05
2.63493e-05
2.81378e-05
2.60458e-05
2.45609e-05
2.63493e-05
2.81349e-05
2.85596e-05
2.8561e-05
6.98681e-05
2.85594e-05
6.98726e-05
2.85608e-05
6.98707e-05
2.45616e-05
2.60458e-05
2.63492e-05
2.81355e-05
2.63493e-05
2.81385e-05
2.45615e-05
2.45614e-05
2.60457e-05
2.63492e-05
2.81361e-05
2.63493e-05
2.81394e-05
2.45612e-05
2.85628e-05
6.98682e-05
6.98701e-05
2.85611e-05
2.85626e-05
6.98698e-05
6.98726e-05
2.85609e-05
7.96983e-05
7.96941e-05
7.96977e-05
7.96935e-05
2.5474e-05
3.42658e-05
3.42676e-05
3.4267e-05
3.42686e-05
7.96902e-05
7.96937e-05
7.96897e-05
7.96932e-05
7.96906e-05
7.96884e-05
7.96912e-05
7.96885e-05
3.42676e-05
3.42685e-05
2.54778e-05
3.4266e-05
3.42669e-05
7.96873e-05
7.96888e-05
7.96868e-05
7.96887e-05
2.54742e-05
3.42669e-05
3.42674e-05
3.42679e-05
3.42688e-05
2.85634e-05
6.98696e-05
2.85651e-05
6.98669e-05
2.45622e-05
2.814e-05
2.63494e-05
2.60457e-05
2.45622e-05
2.81364e-05
2.63494e-05
2.45623e-05
2.81417e-05
2.63494e-05
2.60456e-05
2.45623e-05
2.81381e-05
2.63494e-05
2.85658e-05
6.98639e-05
6.98663e-05
2.85639e-05
2.85661e-05
6.98662e-05
6.98686e-05
2.85642e-05
2.45627e-05
2.60456e-05
2.81371e-05
2.63494e-05
2.81407e-05
2.63494e-05
2.45627e-05
2.45629e-05
2.60456e-05
2.81387e-05
2.63493e-05
2.81424e-05
2.63493e-05
2.45628e-05
3.427e-05
3.42635e-05
2.54777e-05
3.4269e-05
3.42625e-05
7.96862e-05
7.96838e-05
7.96868e-05
7.96881e-05
2.54741e-05
3.42703e-05
3.42637e-05
3.42712e-05
3.42649e-05
7.96829e-05
7.96845e-05
2.45625e-05
2.81406e-05
2.63494e-05
2.6046e-05
2.45626e-05
2.81372e-05
2.63494e-05
2.85636e-05
6.9867e-05
2.85649e-05
6.9864e-05
2.45624e-05
2.63493e-05
2.81397e-05
2.60452e-05
2.45623e-05
2.63493e-05
2.81361e-05
2.85666e-05
6.98664e-05
6.98691e-05
2.8565e-05
2.45631e-05
2.60459e-05
2.81378e-05
2.63493e-05
2.81414e-05
2.63494e-05
2.45631e-05
2.85661e-05
6.9863e-05
6.98658e-05
2.85645e-05
2.45629e-05
2.60452e-05
2.63492e-05
2.81369e-05
2.63492e-05
2.81407e-05
2.45626e-05
2.85633e-05
6.98667e-05
2.8565e-05
6.98639e-05
2.45621e-05
2.63494e-05
2.81398e-05
2.60455e-05
2.45623e-05
2.63494e-05
2.81362e-05
2.85631e-05
6.98689e-05
2.85648e-05
6.9866e-05
2.45629e-05
2.60461e-05
2.81371e-05
2.63494e-05
2.8141e-05
2.63494e-05
2.45626e-05
2.8566e-05
6.98632e-05
6.98658e-05
2.85641e-05
2.45627e-05
2.60455e-05
2.63492e-05
2.81369e-05
2.63493e-05
2.81405e-05
2.45627e-05
2.85659e-05
6.98652e-05
6.98677e-05
2.85639e-05
3.42638e-05
3.42674e-05
2.54773e-05
3.42627e-05
3.42659e-05
7.96919e-05
7.96892e-05
7.96835e-05
7.96858e-05
2.54737e-05
3.42645e-05
3.42665e-05
3.42653e-05
3.42678e-05
7.96876e-05
7.96894e-05
2.45614e-05
2.63492e-05
2.81404e-05
2.60458e-05
2.45617e-05
2.63492e-05
2.81369e-05
2.85622e-05
6.98699e-05
2.85641e-05
6.9867e-05
2.8562e-05
6.98713e-05
2.85639e-05
6.98684e-05
2.45622e-05
2.60457e-05
2.63492e-05
2.81373e-05
2.63492e-05
2.81409e-05
2.4562e-05
2.45619e-05
2.60458e-05
2.63491e-05
2.81375e-05
2.63491e-05
2.81412e-05
2.45619e-05
2.85652e-05
6.98659e-05
6.98686e-05
2.8563e-05
2.8565e-05
6.98676e-05
6.98701e-05
2.85628e-05
7.96904e-05
7.96881e-05
7.96898e-05
7.96876e-05
2.5474e-05
3.4267e-05
3.42687e-05
3.42681e-05
3.42698e-05
7.96871e-05
7.96885e-05
7.96865e-05
7.9688e-05
7.96879e-05
7.96868e-05
7.96873e-05
7.9686e-05
3.4269e-05
3.42694e-05
2.5478e-05
3.42685e-05
3.42686e-05
7.96867e-05
7.96875e-05
7.96856e-05
7.96866e-05
2.54744e-05
3.42704e-05
3.42703e-05
3.42708e-05
3.42708e-05
2.85646e-05
6.98681e-05
2.85669e-05
6.98659e-05
2.45631e-05
2.81414e-05
2.63495e-05
2.60458e-05
2.45633e-05
2.81377e-05
2.63495e-05
2.45632e-05
2.8143e-05
2.63494e-05
2.60457e-05
2.45633e-05
2.81392e-05
2.63494e-05
2.8567e-05
6.98631e-05
6.98653e-05
2.85647e-05
2.85672e-05
6.98657e-05
6.98677e-05
2.85649e-05
2.45637e-05
2.60457e-05
2.81381e-05
2.63495e-05
2.81419e-05
2.63495e-05
2.45634e-05
2.45638e-05
2.60457e-05
2.81396e-05
2.63494e-05
2.81435e-05
2.63494e-05
2.45634e-05
3.42725e-05
3.42663e-05
2.54779e-05
3.42719e-05
3.42655e-05
7.96837e-05
7.96826e-05
7.96866e-05
7.96872e-05
2.54743e-05
3.42735e-05
3.42674e-05
3.42742e-05
3.42682e-05
7.96829e-05
7.96837e-05
2.45635e-05
2.8142e-05
2.63495e-05
2.6046e-05
2.45637e-05
2.81384e-05
2.63495e-05
2.8565e-05
6.98649e-05
2.85669e-05
6.98624e-05
2.45631e-05
2.63493e-05
2.81415e-05
2.60454e-05
2.4563e-05
2.63493e-05
2.81376e-05
2.85677e-05
6.98656e-05
6.98679e-05
2.85656e-05
2.4564e-05
2.6046e-05
2.81389e-05
2.63494e-05
2.81426e-05
2.63494e-05
2.45636e-05
2.85673e-05
6.9862e-05
6.98643e-05
2.85652e-05
2.45637e-05
2.60453e-05
2.63492e-05
2.81381e-05
2.63493e-05
2.81422e-05
2.45634e-05
2.85645e-05
6.98652e-05
2.85667e-05
6.98629e-05
2.4563e-05
2.63493e-05
2.81411e-05
2.60456e-05
2.45633e-05
2.63493e-05
2.81374e-05
2.85644e-05
6.9867e-05
2.85666e-05
6.98647e-05
2.45632e-05
2.60461e-05
2.8138e-05
2.63493e-05
2.81421e-05
2.63494e-05
2.4563e-05
2.85671e-05
6.98627e-05
6.98649e-05
2.85648e-05
2.45635e-05
2.60455e-05
2.63492e-05
2.81379e-05
2.63492e-05
2.81417e-05
2.45631e-05
2.85669e-05
6.98645e-05
6.98666e-05
2.85646e-05
3.42671e-05
3.42686e-05
2.54774e-05
3.42663e-05
3.42678e-05
7.96881e-05
7.96867e-05
7.96823e-05
7.96834e-05
2.54738e-05
3.42678e-05
3.42696e-05
3.42688e-05
3.42701e-05
7.96864e-05
7.96873e-05
2.45623e-05
2.63492e-05
2.81418e-05
2.60458e-05
2.45624e-05
2.63492e-05
2.8138e-05
2.85634e-05
6.98677e-05
2.85659e-05
6.98653e-05
2.85632e-05
6.98694e-05
2.85657e-05
6.98671e-05
2.45625e-05
2.60458e-05
2.63492e-05
2.81383e-05
2.63492e-05
2.81421e-05
2.45622e-05
2.45627e-05
2.60458e-05
2.63491e-05
2.81385e-05
2.63491e-05
2.81423e-05
2.45622e-05
2.85662e-05
6.9865e-05
6.98671e-05
2.85636e-05
2.8566e-05
6.98669e-05
6.9869e-05
2.85635e-05
7.96876e-05
7.96865e-05
7.96871e-05
7.96859e-05
2.54741e-05
3.42703e-05
3.42721e-05
3.42708e-05
3.42726e-05
7.96864e-05
7.96872e-05
7.96859e-05
7.96867e-05
7.96876e-05
7.96871e-05
7.96864e-05
7.96858e-05
3.42727e-05
3.42726e-05
2.54782e-05
3.42721e-05
3.42721e-05
7.96879e-05
7.9688e-05
7.96863e-05
7.96866e-05
2.54747e-05
3.42731e-05
3.42734e-05
3.42742e-05
3.42743e-05
2.85653e-05
6.98676e-05
2.85675e-05
6.98657e-05
2.45636e-05
2.81424e-05
2.63497e-05
2.60459e-05
2.45638e-05
2.81385e-05
2.63496e-05
2.45636e-05
2.81438e-05
2.63496e-05
2.60459e-05
2.45638e-05
2.81399e-05
2.63495e-05
2.85677e-05
6.98632e-05
6.98649e-05
2.85656e-05
2.8568e-05
6.9866e-05
6.98677e-05
2.85659e-05
2.45642e-05
2.60459e-05
2.81388e-05
2.63496e-05
2.81427e-05
2.63496e-05
2.45641e-05
2.45641e-05
2.60459e-05
2.81401e-05
2.63495e-05
2.81441e-05
2.63495e-05
2.45641e-05
3.42758e-05
3.427e-05
2.54781e-05
3.42748e-05
3.42687e-05
7.9684e-05
7.96835e-05
7.96879e-05
7.96881e-05
2.54745e-05
3.42756e-05
3.42694e-05
3.42769e-05
3.4271e-05
7.96843e-05
7.96847e-05
2.45637e-05
2.81431e-05
2.63495e-05
2.60462e-05
2.45639e-05
2.81393e-05
2.63495e-05
2.85655e-05
6.9864e-05
2.85675e-05
6.98619e-05
2.45635e-05
2.63493e-05
2.81426e-05
2.60454e-05
2.45637e-05
2.63493e-05
2.81385e-05
2.85682e-05
6.98657e-05
6.98676e-05
2.85665e-05
2.45643e-05
2.60462e-05
2.81396e-05
2.63495e-05
2.81435e-05
2.63495e-05
2.45642e-05
2.85679e-05
6.9862e-05
6.9864e-05
2.85662e-05
2.4564e-05
2.60454e-05
2.63493e-05
2.81388e-05
2.63493e-05
2.8143e-05
2.45641e-05
2.85652e-05
6.98648e-05
2.85674e-05
6.98628e-05
2.45633e-05
2.63493e-05
2.81421e-05
2.60456e-05
2.45634e-05
2.63493e-05
2.81382e-05
2.8565e-05
6.98664e-05
2.85672e-05
6.98645e-05
2.45636e-05
2.60461e-05
2.81385e-05
2.63494e-05
2.81427e-05
2.63494e-05
2.45635e-05
2.85678e-05
6.98631e-05
6.98649e-05
2.85656e-05
2.45639e-05
2.60456e-05
2.63494e-05
2.81385e-05
2.63493e-05
2.81424e-05
2.45639e-05
2.85677e-05
6.98646e-05
6.98664e-05
2.85656e-05
3.42702e-05
3.42719e-05
2.54776e-05
3.42691e-05
3.42714e-05
7.96872e-05
7.96866e-05
7.9683e-05
7.96836e-05
2.54741e-05
3.42701e-05
3.42727e-05
3.42715e-05
3.42736e-05
7.96872e-05
7.96874e-05
2.45624e-05
2.63492e-05
2.81428e-05
2.60459e-05
2.45626e-05
2.63492e-05
2.81389e-05
2.8564e-05
6.98669e-05
2.85664e-05
6.98649e-05
2.85639e-05
6.98688e-05
2.85663e-05
6.98669e-05
2.45628e-05
2.60459e-05
2.63493e-05
2.81389e-05
2.63493e-05
2.81429e-05
2.45628e-05
2.45631e-05
2.60459e-05
2.63492e-05
2.81392e-05
2.63492e-05
2.81431e-05
2.4563e-05
2.85669e-05
6.98649e-05
6.98668e-05
2.85646e-05
2.85669e-05
6.98671e-05
6.98688e-05
2.85645e-05
7.96873e-05
7.96868e-05
7.96867e-05
7.96862e-05
2.54743e-05
3.42728e-05
3.42747e-05
3.42739e-05
3.42758e-05
7.96875e-05
7.96877e-05
7.9687e-05
7.96872e-05
7.96888e-05
7.96889e-05
7.96873e-05
7.96871e-05
3.42751e-05
3.42755e-05
2.54785e-05
3.42735e-05
3.42744e-05
7.96906e-05
7.969e-05
7.96885e-05
7.96881e-05
2.5475e-05
3.4273e-05
3.42745e-05
3.42752e-05
3.42763e-05
2.85663e-05
6.9868e-05
2.85685e-05
6.98667e-05
2.45641e-05
2.8143e-05
2.63495e-05
2.6046e-05
2.45646e-05
2.8139e-05
2.63495e-05
2.45643e-05
2.81443e-05
2.63495e-05
2.60459e-05
2.45647e-05
2.81403e-05
2.63494e-05
2.85684e-05
6.98644e-05
6.98654e-05
2.85655e-05
2.85688e-05
6.98687e-05
6.9869e-05
2.85658e-05
2.45641e-05
2.60459e-05
2.8139e-05
2.63492e-05
2.81432e-05
2.63493e-05
2.4563e-05
2.45643e-05
2.60457e-05
2.81402e-05
2.63493e-05
2.81445e-05
2.63493e-05
2.45633e-05
3.42775e-05
3.42715e-05
2.54783e-05
3.42755e-05
3.42693e-05
7.96856e-05
7.96855e-05
7.96902e-05
7.96904e-05
2.54747e-05
3.42753e-05
3.42691e-05
3.42774e-05
3.42713e-05
7.96866e-05
7.9687e-05
2.45647e-05
2.81437e-05
2.63496e-05
2.60464e-05
2.45648e-05
2.81399e-05
2.63496e-05
2.85666e-05
6.98641e-05
2.85685e-05
6.98622e-05
2.45645e-05
2.63493e-05
2.81433e-05
2.60456e-05
2.45646e-05
2.63493e-05
2.8139e-05
2.85693e-05
6.98667e-05
6.98681e-05
2.85671e-05
2.45651e-05
2.60463e-05
2.81401e-05
2.63495e-05
2.8144e-05
2.63496e-05
2.45642e-05
2.8569e-05
6.98627e-05
6.98643e-05
2.85667e-05
2.45649e-05
2.60456e-05
2.63492e-05
2.8139e-05
2.63493e-05
2.81434e-05
2.45641e-05
2.8566e-05
6.98652e-05
2.85682e-05
6.98638e-05
2.45639e-05
2.63495e-05
2.81426e-05
2.60457e-05
2.45644e-05
2.63495e-05
2.81387e-05
2.85659e-05
6.98666e-05
2.85682e-05
6.98648e-05
2.45642e-05
2.60459e-05
2.81387e-05
2.63492e-05
2.81431e-05
2.63493e-05
2.45634e-05
2.85685e-05
6.98658e-05
6.98663e-05
2.85657e-05
2.45642e-05
2.60457e-05
2.63492e-05
2.81386e-05
2.63494e-05
2.81428e-05
2.45631e-05
2.85684e-05
6.98659e-05
6.98669e-05
2.85655e-05
3.42724e-05
3.42748e-05
2.54779e-05
3.42708e-05
3.42735e-05
7.96882e-05
7.9688e-05
7.96851e-05
7.96852e-05
2.54744e-05
3.42705e-05
3.42732e-05
3.42729e-05
3.42753e-05
7.96897e-05
7.9689e-05
2.45631e-05
2.63493e-05
2.81434e-05
2.6046e-05
2.45636e-05
2.63492e-05
2.81394e-05
2.8565e-05
6.98669e-05
2.85674e-05
6.9865e-05
2.85649e-05
6.98691e-05
2.85674e-05
6.98673e-05
2.45634e-05
2.60458e-05
2.6349e-05
2.8139e-05
2.63491e-05
2.81431e-05
2.45627e-05
2.45635e-05
2.6046e-05
2.63491e-05
2.81393e-05
2.63492e-05
2.81435e-05
2.45624e-05
2.85677e-05
6.98652e-05
6.98669e-05
2.85647e-05
2.85676e-05
6.98684e-05
6.98694e-05
2.85645e-05
7.96885e-05
7.96885e-05
7.96879e-05
7.96879e-05
2.54745e-05
3.42728e-05
3.42747e-05
3.4275e-05
3.42769e-05
7.96902e-05
7.96897e-05
7.96896e-05
7.96891e-05
7.96915e-05
7.96908e-05
7.96898e-05
7.96902e-05
3.42747e-05
3.42763e-05
2.5478e-05
3.42727e-05
3.42743e-05
7.96899e-05
7.9691e-05
7.96901e-05
7.96908e-05
2.5474e-05
3.42715e-05
3.42735e-05
3.42743e-05
3.4276e-05
2.85649e-05
6.98711e-05
2.85681e-05
6.9871e-05
2.45621e-05
2.8143e-05
2.63491e-05
2.60454e-05
2.45629e-05
2.81384e-05
2.6349e-05
2.45622e-05
2.81443e-05
2.63492e-05
2.60451e-05
2.45632e-05
2.81394e-05
2.6349e-05
2.85669e-05
6.98695e-05
6.9869e-05
2.85629e-05
2.85673e-05
6.9873e-05
6.9873e-05
2.85632e-05
2.4562e-05
2.6045e-05
2.81363e-05
2.63476e-05
2.81422e-05
2.63486e-05
2.45596e-05
2.45621e-05
2.60443e-05
2.81366e-05
2.63472e-05
2.81432e-05
2.63485e-05
2.45597e-05
3.42772e-05
3.42712e-05
2.54769e-05
3.42748e-05
3.42686e-05
7.96875e-05
7.9686e-05
7.96892e-05
7.96901e-05
2.54725e-05
3.42725e-05
3.42664e-05
3.42763e-05
3.42704e-05
7.96855e-05
7.96866e-05
2.4563e-05
2.81441e-05
2.63495e-05
2.6046e-05
2.45641e-05
2.81397e-05
2.63493e-05
2.85659e-05
6.98651e-05
2.85688e-05
6.98646e-05
2.45628e-05
2.63491e-05
2.81434e-05
2.60452e-05
2.4564e-05
2.6349e-05
2.81387e-05
2.85684e-05
6.98714e-05
6.98709e-05
2.85652e-05
2.45629e-05
2.60457e-05
2.81384e-05
2.63485e-05
2.81436e-05
2.6349e-05
2.45618e-05
2.8568e-05
6.98676e-05
6.9867e-05
2.85649e-05
2.45627e-05
2.60449e-05
2.63484e-05
2.81373e-05
2.63488e-05
2.81429e-05
2.45617e-05
2.85647e-05
6.98683e-05
2.85679e-05
6.9868e-05
2.4562e-05
2.63491e-05
2.81427e-05
2.60451e-05
2.4563e-05
2.63489e-05
2.81381e-05
2.85646e-05
6.98682e-05
2.85678e-05
6.98683e-05
2.45619e-05
2.60447e-05
2.81351e-05
2.63472e-05
2.81418e-05
2.63485e-05
2.45595e-05
2.85671e-05
6.98701e-05
6.98702e-05
2.85631e-05
2.45619e-05
2.60446e-05
2.63473e-05
2.81359e-05
2.63485e-05
2.81419e-05
2.45596e-05
2.8567e-05
6.9871e-05
6.98705e-05
2.85629e-05
3.42725e-05
3.42748e-05
2.54776e-05
3.427e-05
3.42725e-05
7.96909e-05
7.96911e-05
7.96865e-05
7.96875e-05
2.54738e-05
3.42694e-05
3.4272e-05
3.42721e-05
3.42743e-05
7.96905e-05
7.96915e-05
2.45614e-05
2.6349e-05
2.81434e-05
2.60455e-05
2.45623e-05
2.63488e-05
2.81387e-05
2.85638e-05
6.98673e-05
2.85672e-05
6.98672e-05
2.85637e-05
6.98707e-05
2.85671e-05
6.98707e-05
2.45613e-05
2.60453e-05
2.63478e-05
2.81367e-05
2.63485e-05
2.81423e-05
2.45591e-05
2.45612e-05
2.60449e-05
2.63475e-05
2.81366e-05
2.63484e-05
2.81426e-05
2.4559e-05
2.85665e-05
6.98704e-05
6.98695e-05
2.85623e-05
2.85663e-05
6.98733e-05
6.98729e-05
2.85621e-05
7.96911e-05
7.96905e-05
7.96905e-05
7.96899e-05
2.54732e-05
3.42713e-05
3.42731e-05
3.42742e-05
3.4276e-05
7.96897e-05
7.96907e-05
7.96892e-05
7.96902e-05
7.96892e-05
7.96914e-05
7.96892e-05
7.96911e-05
3.42728e-05
3.4275e-05
2.54722e-05
3.42686e-05
3.4271e-05
7.96938e-05
7.96888e-05
7.96931e-05
7.96883e-05
2.54674e-05
3.42663e-05
3.42684e-05
3.427e-05
3.42725e-05
2.85601e-05
6.9874e-05
2.85652e-05
6.98751e-05
2.45536e-05
2.81395e-05
2.63457e-05
2.60402e-05
2.45588e-05
2.8132e-05
2.6344e-05
2.45536e-05
2.81398e-05
2.63453e-05
2.60389e-05
2.45588e-05
2.81322e-05
2.63437e-05
2.85617e-05
6.98742e-05
6.98716e-05
2.8557e-05
2.8562e-05
6.98774e-05
6.98748e-05
2.85574e-05
2.45533e-05
2.60386e-05
2.81277e-05
2.63417e-05
2.81354e-05
2.63426e-05
2.45523e-05
2.45534e-05
2.60377e-05
2.81282e-05
2.63416e-05
2.81357e-05
2.63423e-05
2.45524e-05
3.42737e-05
3.42678e-05
2.54702e-05
3.4269e-05
3.42627e-05
7.96852e-05
7.96871e-05
7.96934e-05
7.96883e-05
2.54658e-05
3.42672e-05
3.42603e-05
3.42707e-05
3.42645e-05
7.96909e-05
7.96849e-05
2.45573e-05
2.81418e-05
2.63473e-05
2.60415e-05
2.45615e-05
2.81346e-05
2.63454e-05
2.85623e-05
6.98692e-05
2.85669e-05
6.98709e-05
2.45571e-05
2.63472e-05
2.81411e-05
2.60411e-05
2.45613e-05
2.63454e-05
2.81336e-05
2.85642e-05
6.98774e-05
6.98746e-05
2.85593e-05
2.4556e-05
2.60397e-05
2.81296e-05
2.63424e-05
2.81379e-05
2.63437e-05
2.4553e-05
2.85638e-05
6.98737e-05
6.9871e-05
2.85589e-05
2.45559e-05
2.60393e-05
2.63423e-05
2.81286e-05
2.63436e-05
2.81372e-05
2.45527e-05
2.856e-05
6.98713e-05
2.85651e-05
6.98721e-05
2.45536e-05
2.63455e-05
2.81392e-05
2.60397e-05
2.45588e-05
2.63438e-05
2.81317e-05
2.85599e-05
6.98721e-05
2.85649e-05
6.98734e-05
2.45533e-05
2.60382e-05
2.81266e-05
2.63416e-05
2.81343e-05
2.63424e-05
2.45524e-05
2.85619e-05
6.98745e-05
6.9872e-05
2.85573e-05
2.45533e-05
2.60382e-05
2.63416e-05
2.81274e-05
2.63424e-05
2.81351e-05
2.45523e-05
2.85617e-05
6.98758e-05
6.98732e-05
2.85572e-05
3.42712e-05
3.42736e-05
2.54727e-05
3.42671e-05
3.42699e-05
7.96894e-05
7.96915e-05
7.96909e-05
7.96851e-05
2.54678e-05
3.42641e-05
3.42673e-05
3.42689e-05
3.42714e-05
7.96937e-05
7.96888e-05
2.4553e-05
2.63456e-05
2.81399e-05
2.604e-05
2.45583e-05
2.63439e-05
2.81323e-05
2.8559e-05
6.98718e-05
2.85642e-05
6.98736e-05
2.85589e-05
6.98744e-05
2.85643e-05
6.98758e-05
2.45528e-05
2.60394e-05
2.63418e-05
2.81282e-05
2.63428e-05
2.81362e-05
2.45515e-05
2.45526e-05
2.60385e-05
2.63416e-05
2.81281e-05
2.63425e-05
2.81358e-05
2.45514e-05
2.85607e-05
6.98762e-05
6.98734e-05
2.85557e-05
2.8561e-05
6.98782e-05
6.98755e-05
2.8556e-05
7.96889e-05
7.96911e-05
7.96884e-05
7.96907e-05
2.54666e-05
3.42661e-05
3.42678e-05
3.42698e-05
3.42716e-05
7.96935e-05
7.96885e-05
7.9693e-05
7.9688e-05
7.9686e-05
7.96951e-05
7.96852e-05
7.96942e-05
3.42691e-05
3.42711e-05
2.54684e-05
3.42645e-05
3.42661e-05
7.96981e-05
7.9685e-05
7.96972e-05
7.9684e-05
2.54648e-05
3.42631e-05
3.42643e-05
3.42685e-05
3.427e-05
2.85556e-05
6.98761e-05
2.85595e-05
6.98796e-05
2.45521e-05
2.81327e-05
2.63415e-05
2.60371e-05
2.45526e-05
2.81249e-05
2.63414e-05
2.45523e-05
2.81334e-05
2.63414e-05
2.6037e-05
2.45528e-05
2.81258e-05
2.63414e-05
2.85594e-05
6.98778e-05
6.98721e-05
2.85558e-05
2.85598e-05
6.9881e-05
6.98753e-05
2.85562e-05
2.45528e-05
2.6037e-05
2.81237e-05
2.63412e-05
2.81326e-05
2.63412e-05
2.45523e-05
2.4553e-05
2.60369e-05
2.81246e-05
2.63413e-05
2.81335e-05
2.63413e-05
2.45524e-05
3.42703e-05
3.42636e-05
2.54684e-05
3.42661e-05
3.42592e-05
7.96837e-05
7.96932e-05
7.96977e-05
7.96845e-05
2.54649e-05
3.42644e-05
3.42581e-05
3.42702e-05
3.42638e-05
7.96964e-05
7.96833e-05
2.45527e-05
2.81344e-05
2.63417e-05
2.60375e-05
2.45532e-05
2.81263e-05
2.63414e-05
2.85565e-05
6.98726e-05
2.85605e-05
6.98758e-05
2.45524e-05
2.63416e-05
2.81337e-05
2.60368e-05
2.4553e-05
2.63413e-05
2.81252e-05
2.85607e-05
6.98809e-05
6.98754e-05
2.85572e-05
2.45534e-05
2.60373e-05
2.81248e-05
2.63412e-05
2.81338e-05
2.63412e-05
2.45528e-05
2.85603e-05
6.98771e-05
6.98717e-05
2.85567e-05
2.45531e-05
2.60366e-05
2.63411e-05
2.81236e-05
2.63411e-05
2.8133e-05
2.45526e-05
2.85555e-05
6.98734e-05
2.85594e-05
6.98767e-05
2.45521e-05
2.63414e-05
2.81325e-05
2.60371e-05
2.45527e-05
2.63414e-05
2.81247e-05
2.85554e-05
6.98746e-05
2.85592e-05
6.98781e-05
2.4553e-05
2.60374e-05