/*--------------------------------*- C++ -*----------------------------------*\
| =========                 |                                                 |
| \\      /  F ield         | OpenFOAM: The Open Source CFD Toolbox           |
|  \\    /   O peration     | Version:  2206                                  |
|   \\  /    A nd           | Website:  www.openfoam.com                      |
|    \\/     M anipulation  |                                                 |
\*---------------------------------------------------------------------------*/
FoamFile
{
    version     2.0;
    format      ascii;
    arch        "LSB;label=32;scalar=64";
    class       volScalarField;
    location    "27.5";
    object      p;
}
// * * * * * * * * * * * * * * * * * * * * * * * * * * * * * * * * * * * * * //

dimensions      [0 2 -2 0 0 0 0];

internalField   nonuniform List<scalar> 
28673
(
0.000507555
0.000510048
0.000465359
0.000465324
0.000465324
0.000467816
0.000423131
0.000423095
0.000423095
0.000425588
0.000380904
0.000380869
0.000380869
0.000383362
0.000338679
0.000338645
0.000338644
0.000341137
0.000296452
0.000296417
0.000296418
0.00029891
0.000254212
0.000254179
0.00025418
0.000256669
0.000211981
0.000211937
0.000211937
0.000214428
0.000169742
0.000169716
0.000169716
0.000172194
0.000127504
0.000127478
0.000127477
0.00012995
8.5266e-05
8.52207e-05
8.52191e-05
8.76589e-05
4.36987e-05
4.31466e-05
4.31436e-05
4.54513e-05
9.34525e-06
9.56341e-06
9.56108e-06
9.10905e-06
0.000518113
0.000515627
0.000518113
0.000473395
0.000507555
0.000507555
0.000475881
0.000475881
0.000510047
0.000473395
0.000475881
0.000475881
0.000507555
0.000475881
0.000475881
0.000473395
0.000507555
0.000475881
0.000475881
0.000473395
0.000467816
0.000431166
0.000465324
0.000465323
0.000433652
0.000433652
0.000467816
0.000431167
0.000465323
0.000465323
0.000433652
0.000433652
0.000465324
0.000433652
0.000433653
0.000467816
0.000431166
0.000465323
0.000433652
0.000433652
0.000431166
0.000425588
0.000388939
0.000423095
0.000423095
0.000391425
0.000391425
0.000425588
0.00038894
0.000423095
0.000423095
0.000391425
0.000391425
0.000423096
0.000391425
0.000391425
0.000425588
0.000388939
0.000423095
0.000391425
0.000391425
0.00038894
0.000383361
0.000346715
0.000380869
0.000380869
0.0003492
0.0003492
0.000383361
0.000346716
0.000380869
0.000380869
0.0003492
0.0003492
0.000380869
0.000349201
0.0003492
0.000383361
0.000346714
0.000380869
0.0003492
0.0003492
0.000346715
0.000341137
0.000304489
0.000338644
0.000338645
0.000306975
0.000306975
0.000341138
0.000304489
0.000338644
0.000338644
0.000306975
0.000306975
0.000338645
0.000306975
0.000306975
0.000341137
0.000304489
0.000338645
0.000306975
0.000306975
0.000304489
0.00029891
0.000262251
0.000296418
0.000296417
0.000264739
0.000264738
0.00029891
0.00026225
0.000296418
0.000296418
0.00026474
0.000264741
0.000296418
0.000264739
0.000264739
0.000298911
0.000262252
0.000296417
0.00026474
0.000264739
0.000262251
0.000256669
0.000220013
0.000254179
0.000254179
0.000222492
0.000222492
0.000256668
0.000220014
0.00025418
0.00025418
0.000222492
0.000222491
0.000254179
0.000222492
0.000222492
0.00025667
0.000220012
0.000254179
0.000222492
0.000222492
0.000220013
0.000214427
0.000177799
0.000211937
0.000211937
0.000180291
0.000180291
0.000214428
0.000177799
0.000211937
0.000211937
0.000180291
0.000180291
0.000211938
0.000180291
0.000180291
0.000214427
0.000177799
0.000211937
0.000180291
0.000180291
0.000177799
0.000172193
0.000135556
0.000169716
0.000169716
0.00013803
0.00013803
0.000172194
0.000135557
0.000169716
0.000169716
0.000138029
0.00013803
0.000169716
0.00013803
0.00013803
0.000172194
0.000135556
0.000169717
0.000138029
0.00013803
0.000135556
0.00012995
9.33195e-05
0.000127477
0.000127477
9.57855e-05
9.57858e-05
0.00012995
9.33203e-05
0.000127477
0.000127477
9.57848e-05
9.57846e-05
0.000127477
9.57854e-05
9.57848e-05
0.000129949
9.33187e-05
0.000127477
9.57844e-05
9.57845e-05
9.33189e-05
8.766e-05
5.11119e-05
8.52205e-05
8.52208e-05
5.35828e-05
5.35833e-05
8.766e-05
5.11129e-05
8.52197e-05
8.52192e-05
5.35809e-05
5.35804e-05
8.52199e-05
5.35821e-05
5.35802e-05
8.76594e-05
5.11095e-05
8.52193e-05
5.35796e-05
5.35788e-05
5.11092e-05
4.5455e-05
1.27778e-05
4.31482e-05
4.31484e-05
1.49951e-05
1.49944e-05
4.54554e-05
1.27777e-05
4.31463e-05
4.3145e-05
1.4993e-05
1.49894e-05
4.31443e-05
1.49918e-05
1.49877e-05
4.54519e-05
1.27733e-05
4.3143e-05
1.49897e-05
1.49891e-05
1.27721e-05
9.11296e-06
9.56462e-06
9.56492e-06
9.11409e-06
9.56296e-06
9.56047e-06
9.34518e-06
9.34298e-06
9.34269e-06
9.55959e-06
9.11008e-06
9.56024e-06
0.000494387
0.000510194
0.000510197
0.000494387
0.000510195
0.000494386
0.000494387
0.000494388
0.00050759
0.00050759
0.000475916
0.000475916
0.000475917
0.000475916
0.000494437
0.000510163
0.000507563
0.000496997
0.000510151
0.000494417
0.000497005
0.000494386
0.000494438
0.000507563
0.000496997
0.000510151
0.000497005
0.000494418
0.0005102
0.0005102
0.00049451
0.000494383
0.000494383
0.000452157
0.000467963
0.000467966
0.000452157
0.000467965
0.000452156
0.000452156
0.000467963
0.000467966
0.000452157
0.000465359
0.000465359
0.000465358
0.000433688
0.000433687
0.000433687
0.000433687
0.000452207
0.000467932
0.000465332
0.000454766
0.00046792
0.000452187
0.000454775
0.000467965
0.000452156
0.000452208
0.000465332
0.000467932
0.000454766
0.00046792
0.000454775
0.000452187
0.000467968
0.000467968
0.00045228
0.000452153
0.000452153
0.000409929
0.000425735
0.000425738
0.00040993
0.000425736
0.000409928
0.000409929
0.000425734
0.000425738
0.00040993
0.00042313
0.000423131
0.00042313
0.00039146
0.00039146
0.00039146
0.00039146
0.00040998
0.000425704
0.000423104
0.000412539
0.000425691
0.00040996
0.000412547
0.000425736
0.000409929
0.00040998
0.000423104
0.000425704
0.000412538
0.000425691
0.000412547
0.000409959
0.00042574
0.00042574
0.000410053
0.000409925
0.000409925
0.000367704
0.000383508
0.000383511
0.000367704
0.000383509
0.000367704
0.000367703
0.000383508
0.000383511
0.000367704
0.000380904
0.000380904
0.000380904
0.000349235
0.000349236
0.000349235
0.000349235
0.000367754
0.000383477
0.000380878
0.000370313
0.000383465
0.000367734
0.000370321
0.00038351
0.000367703
0.000367754
0.000380877
0.000383477
0.000370313
0.000383464
0.000370321
0.000367734
0.000383514
0.000383514
0.000367827
0.000367699
0.000367699
0.000325481
0.000341284
0.000341287
0.000325481
0.000341286
0.000325482
0.000325479
0.000341284
0.000341286
0.00032548
0.00033868
0.000338679
0.000338679
0.000307009
0.000307009
0.000307009
0.000307009
0.000325531
0.000341253
0.000338653
0.000328089
0.000341241
0.000325512
0.000328097
0.000341285
0.000325478
0.00032553
0.000338653
0.000341253
0.000328088
0.00034124
0.000328097
0.000325509
0.000341289
0.000341289
0.000325603
0.000325476
0.000325476
0.000283253
0.00029906
0.000299062
0.000283249
0.00029906
0.000283245
0.000283253
0.00029906
0.000299061
0.00028325
0.000296451
0.000296452
0.000296452
0.000264771
0.00026477
0.000264772
0.000264771
0.000283299
0.000299028
0.000296425
0.000285858
0.000299014
0.00028328
0.000285866
0.000299062
0.00028325
0.000283301
0.000296426
0.000299028
0.000285859
0.000299015
0.000285867
0.000283282
0.000299066
0.000299066
0.000283372
0.000283245
0.000283246
0.000241012
0.000256817
0.000256816
0.000241009
0.000256822
0.000240998
0.000241012
0.000256819
0.000256819
0.000241009
0.000254212
0.000254213
0.000254212
0.000222533
0.000222533
0.000222533
0.000222533
0.000241063
0.000256779
0.000254187
0.000243616
0.000256769
0.00024105
0.000243623
0.000256823
0.000240999
0.000241063
0.000254187
0.000256781
0.000243616
0.000256769
0.000243623
0.00024105
0.000256821
0.000256822
0.00024113
0.000241007
0.000241007
0.000198782
0.000214568
0.000214557
0.000198781
0.000214572
0.000198776
0.000198782
0.000214568
0.000214556
0.000198781
0.000211981
0.000211981
0.000211981
0.000180301
0.000180302
0.000180301
0.000180302
0.000198817
0.000214533
0.000211949
0.000201392
0.000214528
0.000198814
0.000201401
0.000214572
0.000198778
0.000198816
0.000211948
0.000214532
0.000201392
0.000214528
0.000201401
0.000198813
0.000214566
0.000214566
0.000198908
0.000198782
0.000198782
0.000156588
0.000172375
0.000172387
0.00015653
0.000172394
0.000156496
0.000156587
0.000172375
0.000172387
0.000156531
0.000169743
0.000169742
0.000169743
0.000138056
0.000138056
0.000138056
0.000138056
0.000156624
0.000172325
0.000169717
0.000159148
0.000172307
0.000156604
0.000159146
0.000172395
0.000156496
0.000156624
0.000169716
0.000172325
0.000159148
0.000172307
0.000159146
0.000156603
0.000172369
0.00017237
0.000156672
0.00015655
0.00015655
0.00011432
0.000130088
0.000130128
0.000114279
0.000130167
0.000114198
0.00011432
0.000130089
0.000130128
0.000114279
0.000127504
0.000127504
0.000127504
9.57961e-05
9.57952e-05
9.57953e-05
9.57953e-05
0.000114366
0.000130041
0.000127484
0.000116923
0.000130074
0.00011435
0.000116911
0.000130166
0.000114197
0.000114366
0.000127484
0.000130042
0.000116922
0.000130074
0.00011691
0.000114349
0.000130071
0.000130071
0.000114438
0.000114306
0.000114308
7.20066e-05
8.78206e-05
8.7853e-05
7.20084e-05
8.79742e-05
7.17894e-05
7.20049e-05
8.782e-05
8.78519e-05
7.20068e-05
8.52652e-05
8.5265e-05
8.5265e-05
5.38227e-05
5.38237e-05
5.38208e-05
5.38209e-05
7.20685e-05
8.77503e-05
8.52406e-05
7.46753e-05
8.78023e-05
7.20739e-05
7.46807e-05
8.79691e-05
7.1793e-05
7.20674e-05
8.52397e-05
8.77492e-05
7.46736e-05
8.78016e-05
7.46796e-05
7.20715e-05
8.7782e-05
8.77824e-05
7.21881e-05
7.20364e-05
7.20366e-05
2.88671e-05
4.5078e-05
4.52348e-05
2.81773e-05
4.55015e-05
2.75333e-05
2.88538e-05
4.50698e-05
4.52288e-05
2.81698e-05
4.36991e-05
4.36959e-05
4.36957e-05
1.64539e-05
1.64532e-05
1.64503e-05
1.645e-05
2.95001e-05
4.50853e-05
4.3407e-05
3.30184e-05
4.53568e-05
2.87275e-05
3.34139e-05
4.54865e-05
2.75408e-05
2.95001e-05
4.34042e-05
4.50833e-05
3.30156e-05
4.53566e-05
3.34114e-05
2.87291e-05
4.50127e-05
4.5012e-05
3.04538e-05
2.83914e-05
2.83889e-05
5.40227e-06
6.39244e-06
6.41285e-06
1.17163e-07
3.46614e-06
-3.80227e-06
5.42012e-06
6.37276e-06
6.39924e-06
1.22246e-07
2.71063e-06
9.76611e-06
9.76435e-06
3.01419e-06
1.00515e-05
2.75065e-06
2.75005e-06
4.78628e-06
6.7305e-06
9.13468e-06
3.11988e-06
8.15664e-06
4.34514e-06
2.85584e-06
3.43138e-06
-3.79701e-06
4.79138e-06
9.13386e-06
6.72643e-06
3.1187e-06
8.15629e-06
2.85617e-06
4.35407e-06
3.20763e-06
3.20455e-06
3.01304e-06
3.01294e-06
3.02405e-06
0.000515503
0.000515533
0.000515502
0.000515499
0.000515499
0.000515501
0.000515534
0.000515504
0.000510195
0.000494387
0.000494386
0.0005102
0.000494511
0.000494383
0.000494383
0.000473271
0.00048908
0.000473271
0.00048908
0.000488932
0.000473267
0.000473267
0.000489083
0.000489084
0.000494386
0.000510194
0.000510197
0.000494387
0.000494437
0.000510164
0.000507563
0.000496997
0.000510151
0.000494417
0.000497005
0.000494437
0.000510163
0.000507563
0.000496997
0.000510151
0.000494417
0.000497005
0.000489081
0.000473272
0.000489078
0.000473271
0.000489081
0.000473272
0.000489078
0.000473271
0.000489035
0.000486439
0.000473302
0.00047589
0.000489047
0.000486447
0.000473322
0.000489035
0.000486439
0.000473302
0.00047589
0.000489047
0.000486447
0.000473322
0.0005102
0.000510199
0.00049451
0.000494383
0.000494383
0.000510196
0.000494386
0.000473271
0.00048908
0.000488931
0.000473267
0.000473268
0.000489083
0.000489083
0.000473271
0.00048908
0.000494438
0.000496997
0.000494418
0.000497006
0.000494387
0.000494388
0.000494438
0.000496997
0.000497006
0.000494418
0.000489082
0.000473272
0.000489078
0.000473271
0.000489035
0.000486439
0.000473302
0.00047589
0.000489048
0.000486448
0.000473322
0.000489082
0.000473272
0.000489078
0.000473271
0.000489035
0.000486439
0.00047589
0.000473302
0.000486448
0.000489048
0.000473322
0.000494386
0.000510194
0.000510197
0.000494387
0.000494437
0.000507563
0.000510164
0.000496997
0.000510151
0.000497005
0.000494417
0.000494386
0.000510194
0.000510197
0.000494387
0.000489035
0.000486439
0.000473302
0.00047589
0.000489047
0.000486447
0.000473322
0.000489081
0.000473272
0.000489078
0.000473271
0.000489035
0.000486439
0.00047589
0.000473301
0.000486447
0.000489047
0.000473322
0.000489081
0.000473272
0.000489078
0.000473271
0.000494511
0.000494384
0.000494384
0.000494386
0.000473271
0.00048908
0.000488932
0.000473267
0.000473267
0.000489084
0.000489084
0.000473271
0.00048908
0.000494438
0.000507563
0.000510164
0.000496997
0.000510151
0.000497005
0.000494417
0.000494387
0.000510197
0.000494387
0.000494387
0.000510194
0.000510197
0.000494387
0.000489035
0.000486439
0.00047589
0.000473302
0.000486447
0.000489048
0.000473322
0.000489035
0.000486439
0.00047589
0.000473302
0.000486447
0.000489047
0.000473322
0.000489081
0.000473272
0.000489078
0.000473271
0.000489081
0.000473272
0.000489078
0.000473271
0.000510195
0.000494387
0.000510195
0.000494387
0.000488931
0.000473267
0.000473267
0.000489083
0.000489083
0.000473271
0.00048908
0.000473271
0.00048908
0.000467965
0.000452157
0.000467964
0.000452157
0.000467968
0.000467968
0.00045228
0.000452153
0.000452153
0.000431042
0.00044685
0.000431042
0.00044685
0.000446702
0.000431039
0.000431039
0.000446854
0.000446854
0.000452157
0.000467963
0.000467966
0.000452157
0.000452207
0.000467932
0.000465332
0.000454766
0.00046792
0.000452187
0.000454775
0.000452207
0.000467932
0.000465332
0.000454766
0.00046792
0.000452187
0.000454775
0.000446852
0.000431043
0.000446849
0.000431043
0.000446852
0.000431043
0.000446849
0.000431043
0.000446805
0.000444209
0.000431073
0.000433661
0.000446818
0.000444218
0.000431093
0.000446806
0.000444209
0.000431073
0.000433661
0.000446818
0.000444218
0.000431093
0.000467968
0.000467968
0.000452281
0.000452153
0.000452153
0.000467965
0.000452156
0.000431043
0.00044685
0.000446702
0.000431039
0.000431039
0.000446854
0.000446853
0.000431042
0.00044685
0.000452207
0.000467932
0.000465332
0.000454766
0.00046792
0.000452187
0.000454775
0.000452156
0.000467963
0.000467966
0.000452157
0.000452207
0.000465332
0.000467932
0.000454766
0.00046792
0.000454775
0.000452187
0.000446852
0.000431043
0.000446849
0.000431042
0.000446805
0.000444209
0.000431073
0.000433661
0.000446818
0.000444218
0.000431093
0.000446852
0.000431043
0.000446849
0.000431042
0.000446805
0.000444209
0.000433661
0.000431073
0.000444218
0.000446818
0.000431093
0.000452157
0.000467963
0.000467966
0.000452157
0.000452207
0.000465332
0.000467932
0.000454766
0.00046792
0.000454775
0.000452187
0.000452157
0.000467963
0.000467966
0.000452157
0.000446805
0.000444209
0.000431073
0.000433661
0.000446818
0.000444218
0.000431093
0.000446852
0.000431044
0.000446848
0.000431043
0.000446805
0.000444209
0.000433661
0.000431073
0.000444218
0.000446818
0.000431093
0.000446852
0.000431043
0.000446849
0.000431043
0.000467968
0.000467968
0.00045228
0.000452153
0.000452153
0.000467964
0.000452157
0.000431042
0.00044685
0.000446702
0.000431039
0.000431039
0.000446854
0.000446854
0.000431042
0.00044685
0.000452208
0.000465332
0.000467932
0.000454766
0.00046792
0.000454775
0.000452187
0.000452157
0.000467963
0.000467966
0.000452157
0.000452157
0.000467963
0.000467966
0.000452157
0.000446805
0.000444209
0.000433661
0.000431073
0.000444218
0.000446818
0.000431093
0.000446805
0.000444209
0.000433661
0.000431073
0.000444218
0.000446818
0.000431093
0.000446851
0.000431043
0.000446849
0.000431043
0.000446851
0.000431043
0.000446849
0.000431043
0.000467965
0.000452157
0.000467965
0.000452157
0.000446702
0.000431039
0.000431039
0.000446854
0.000446854
0.000431042
0.00044685
0.000431042
0.00044685
0.000425736
0.000409929
0.000425736
0.000409929
0.00042574
0.00042574
0.000410053
0.000409925
0.000409925
0.000388816
0.000404622
0.000388815
0.000404622
0.000404474
0.000388812
0.000388812
0.000404626
0.000404626
0.000409929
0.000425735
0.000425738
0.000409929
0.00040998
0.000425704
0.000423104
0.000412539
0.000425691
0.000409959
0.000412547
0.00040998
0.000425704
0.000423104
0.000412538
0.000425691
0.000409959
0.000412547
0.000404624
0.000388817
0.000404621
0.000388816
0.000404624
0.000388817
0.000404621
0.000388816
0.000404578
0.000401982
0.000388846
0.000391434
0.00040459
0.00040199
0.000388866
0.000404578
0.000401982
0.000388846
0.000391434
0.00040459
0.00040199
0.000388866
0.00042574
0.00042574
0.000410053
0.000409925
0.000409925
0.000425737
0.000409928
0.000388816
0.000404623
0.000404474
0.000388812
0.000388812
0.000404627
0.000404626
0.000388815
0.000404623
0.00040998
0.000425704
0.000423104
0.000412538
0.000425691
0.00040996
0.000412547
0.000409929
0.000425734
0.000425738
0.00040993
0.00040998
0.000423104
0.000425703
0.000412538
0.000425691
0.000412547
0.00040996
0.000404624
0.000388816
0.000404621
0.000388815
0.000404578
0.000401982
0.000388846
0.000391434
0.00040459
0.00040199
0.000388866
0.000404624
0.000388816
0.000404621
0.000388815
0.000404578
0.000401982
0.000391434
0.000388846
0.00040199
0.00040459
0.000388866
0.000409929
0.000425735
0.000425738
0.00040993
0.00040998
0.000423104
0.000425704
0.000412539
0.000425691
0.000412547
0.000409959
0.000409929
0.000425735
0.000425738
0.00040993
0.000404578
0.000401982
0.000388847
0.000391434
0.00040459
0.00040199
0.000388867
0.000404624
0.000388817
0.000404621
0.000388816
0.000404578
0.000401982
0.000391434
0.000388846
0.00040199
0.00040459
0.000388867
0.000404624
0.000388817
0.000404621
0.000388816
0.000425739
0.00042574
0.000410053
0.000409925
0.000409925
0.000425736
0.000409929
0.000388815
0.000404623
0.000404474
0.000388812
0.000388812
0.000404626
0.000404626
0.000388815
0.000404623
0.00040998
0.000423104
0.000425704
0.000412538
0.000425691
0.000412547
0.000409959
0.000409929
0.000425735
0.000425737
0.00040993
0.000409929
0.000425735
0.000425737
0.00040993
0.000404577
0.000401982
0.000391434
0.000388846
0.00040199
0.00040459
0.000388866
0.000404577
0.000401982
0.000391434
0.000388846
0.00040199
0.00040459
0.000388867
0.000404624
0.000388816
0.000404621
0.000388816
0.000404624
0.000388817
0.000404621
0.000388816
0.000425736
0.000409929
0.000425736
0.000409929
0.000404474
0.000388812
0.000388812
0.000404626
0.000404626
0.000388816
0.000404622
0.000388816
0.000404622
0.00038351
0.000367703
0.00038351
0.000367703
0.000383514
0.000383513
0.000367827
0.000367699
0.000367699
0.000346591
0.000362397
0.000346591
0.000362397
0.000362249
0.000346588
0.000346587
0.000362401
0.000362401
0.000367704
0.000383508
0.000383511
0.000367705
0.000367754
0.000383477
0.000380877
0.000370313
0.000383465
0.000367734
0.000370321
0.000367754
0.000383477
0.000380878
0.000370313
0.000383465
0.000367734
0.000370321
0.000362399
0.000346592
0.000362396
0.000346591
0.000362399
0.000346592
0.000362397
0.000346591
0.000362353
0.000359757
0.000346622
0.000349209
0.000362365
0.000359765
0.000346642
0.000362353
0.000359756
0.000346622
0.000349209
0.000362365
0.000359765
0.000346642
0.000383513
0.000383513
0.000367827
0.0003677
0.0003677
0.00038351
0.000367703
0.000346591
0.000362398
0.000362249
0.000346588
0.000346588
0.000362401
0.000362401
0.000346591
0.000362398
0.000367754
0.000383477
0.000380877
0.000370312
0.000383464
0.000367734
0.000370321
0.000367703
0.000383508
0.000383511
0.000367704
0.000367754
0.000380877
0.000383477
0.000370312
0.000383464
0.000370321
0.000367734
0.000362399
0.000346592
0.000362395
0.000346591
0.000362352
0.000359756
0.000346622
0.000349209
0.000362365
0.000359765
0.000346642
0.000362399
0.000346592
0.000362395
0.000346591
0.000362352
0.000359756
0.000349209
0.000346622
0.000359765
0.000362364
0.000346641
0.000367704
0.000383508
0.000383511
0.000367705
0.000367754
0.000380878
0.000383477
0.000370313
0.000383465
0.000370321
0.000367734
0.000367704
0.000383508
0.000383511
0.000367704
0.000362353
0.000359757
0.000346622
0.000349209
0.000362365
0.000359765
0.000346642
0.000362399
0.000346592
0.000362397
0.000346591
0.000362353
0.000359757
0.000349209
0.000346622
0.000359765
0.000362365
0.000346642
0.000362399
0.000346592
0.000362396
0.000346591
0.000383513
0.000383513
0.000367827
0.000367699
0.000367699
0.000383509
0.000367703
0.000346591
0.000362397
0.000362249
0.000346587
0.000346587
0.0003624
0.000362401
0.000346591
0.000362397
0.000367754
0.000380877
0.000383477
0.000370313
0.000383464
0.000370321
0.000367734
0.000367704
0.000383508
0.000383511
0.000367704
0.000367704
0.000383508
0.000383511
0.000367704
0.000362352
0.000359756
0.000349209
0.000346622
0.000359765
0.000362365
0.000346642
0.000362352
0.000359756
0.000349209
0.000346622
0.000359765
0.000362365
0.000346642
0.000362399
0.000346592
0.000362395
0.000346591
0.000362399
0.000346592
0.000362396
0.000346591
0.00038351
0.000367703
0.00038351
0.000367703
0.000362249
0.000346588
0.000346588
0.000362401
0.000362401
0.000346591
0.000362397
0.000346591
0.000362397
0.000341285
0.00032548
0.000341285
0.000325479
0.000341289
0.000341289
0.000325603
0.000325476
0.000325476
0.000304369
0.000320174
0.000304368
0.000320173
0.000320025
0.000304365
0.000304364
0.000320178
0.000320177
0.000325481
0.000341284
0.000341287
0.000325483
0.00032553
0.000341253
0.000338653
0.000328089
0.00034124
0.00032551
0.000328097
0.00032553
0.000341253
0.000338653
0.000328089
0.000341241
0.000325512
0.000328097
0.000320176
0.000304369
0.000320173
0.000304368
0.000320176
0.000304368
0.000320175
0.000304368
0.000320129
0.000317533
0.000304398
0.000306983
0.000320142
0.000317541
0.000304417
0.000320129
0.000317532
0.000304398
0.000306983
0.000320143
0.000317541
0.000304417
0.000341289
0.000341289
0.000325603
0.000325478
0.000325478
0.000341286
0.000325482
0.000304368
0.000320176
0.000320025
0.000304365
0.000304365
0.00032018
0.00032018
0.000304367
0.000320177
0.00032553
0.000341252
0.000338653
0.000328088
0.00034124
0.00032551
0.000328096
0.000325479
0.000341284
0.000341286
0.000325479
0.000325529
0.000338653
0.000341252
0.000328088
0.00034124
0.000328096
0.000325509
0.000320175
0.000304369
0.000320172
0.000304367
0.000320128
0.000317532
0.000304398
0.000306983
0.000320141
0.00031754
0.000304417
0.000320175
0.000304368
0.000320171
0.000304367
0.000320128
0.000317532
0.000306983
0.000304398
0.00031754
0.00032014
0.000304417
0.000325481
0.000341284
0.000341287
0.000325483
0.000325531
0.000338653
0.000341253
0.000328089
0.000341241
0.000328097
0.000325511
0.000325481
0.000341284
0.000341287
0.000325481
0.000320129
0.000317533
0.000304398
0.000306983
0.000320143
0.000317541
0.000304417
0.000320176
0.000304368
0.000320175
0.000304368
0.000320129
0.000317533
0.000306983
0.000304398
0.000317541
0.000320142
0.000304417
0.000320176
0.000304369
0.000320174
0.000304368
0.000341289
0.000341289
0.000325602
0.000325475
0.000325475
0.000341285
0.000325479
0.000304367
0.000320173
0.000320025
0.000304364
0.000304365
0.000320176
0.000320177
0.000304368
0.000320173
0.00032553
0.000338653
0.000341253
0.000328089
0.00034124
0.000328097
0.000325511
0.00032548
0.000341284
0.000341286
0.00032548
0.00032548
0.000341284
0.000341286
0.000325481
0.000320128
0.000317532
0.000306983
0.000304398
0.000317541
0.000320141
0.000304417
0.000320128
0.000317533
0.000306983
0.000304398
0.000317541
0.000320142
0.000304417
0.000320175
0.000304368
0.000320172
0.000304368
0.000320175
0.000304369
0.000320173
0.000304368
0.000341285
0.00032548
0.000341285
0.00032548
0.000320025
0.000304365
0.000304365
0.000320178
0.000320178
0.000304369
0.000320175
0.000304369
0.000320175
0.000299062
0.000283247
0.000299062
0.00028325
0.000299066
0.000299066
0.000283372
0.000283246
0.000283247
0.000262121
0.000277941
0.000262122
0.000277944
0.000277792
0.000262122
0.000262123
0.000277945
0.000277947
0.000283252
0.000299059
0.000299062
0.000283247
0.0002833
0.000299028
0.000296425
0.000285859
0.000299014
0.000283281
0.000285866
0.0002833
0.000299028
0.000296425
0.000285858
0.000299014
0.000283279
0.000285866
0.000277943
0.000262124
0.00027794
0.000262128
0.000277943
0.000262124
0.000277939
0.000262128
0.000277894
0.0002753
0.000262161
0.000264746
0.000277908
0.000275308
0.000262178
0.000277894
0.0002753
0.00026216
0.000264746
0.000277906
0.000275308
0.000262178
0.000299065
0.000299064
0.000283371
0.000283244
0.000283244
0.000299061
0.000283245
0.00026212
0.00027794
0.000277791
0.000262121
0.000262121
0.000277943
0.000277943
0.00026212
0.00027794
0.000283301
0.000299028
0.000296426
0.000285859
0.000299014
0.000283281
0.000285867
0.000283253
0.00029906
0.000299061
0.000283251
0.000283301
0.000296426
0.000299028
0.000285859
0.000299014
0.000285867
0.000283282
0.000277945
0.000262126
0.000277942
0.000262131
0.000277896
0.000275301
0.000262163
0.000264748
0.000277909
0.000275309
0.00026218
0.000277945
0.000262126
0.000277943
0.000262131
0.000277896
0.000275301
0.000264748
0.000262164
0.000275309
0.00027791
0.00026218
0.000283252
0.000299059
0.000299062
0.000283247
0.0002833
0.000296425
0.000299028
0.000285859
0.000299014
0.000285866
0.000283281
0.000283252
0.00029906
0.000299062
0.000283248
0.000277894
0.0002753
0.00026216
0.000264746
0.000277906
0.000275308
0.000262178
0.000277942
0.000262124
0.000277939
0.000262128
0.000277894
0.0002753
0.000264746
0.000262161
0.000275308
0.000277908
0.000262178
0.000277942
0.000262124
0.00027794
0.000262128
0.000299065
0.000299066
0.000283373
0.000283248
0.000283248
0.000299062
0.00028325
0.000262123
0.000277945
0.000277793
0.000262124
0.000262123
0.000277948
0.000277947
0.000262122
0.000277944
0.0002833
0.000296426
0.000299028
0.000285858
0.000299014
0.000285866
0.000283281
0.000283254
0.00029906
0.000299062
0.00028325
0.000283253
0.00029906
0.000299062
0.000283249
0.000277895
0.000275301
0.000264747
0.000262162
0.000275309
0.000277909
0.000262179
0.000277894
0.0002753
0.000264747
0.000262161
0.000275308
0.000277908
0.000262179
0.000277943
0.000262125
0.000277942
0.000262129
0.000277943
0.000262124
0.00027794
0.000262129
0.000299062
0.000283247
0.000299062
0.000283247
0.000277791
0.000262121
0.000262121
0.000277945
0.000277945
0.00026212
0.000277941
0.000262121
0.000277941
0.000256822
0.000240999
0.000256823
0.000240998
0.000256822
0.000256823
0.00024113
0.000241007
0.000241007
0.0002199
0.000235698
0.000219899
0.000235697
0.000235543
0.000219906
0.000219906
0.000235693
0.000235693
0.000241012
0.000256817
0.000256816
0.00024101
0.000241063
0.00025678
0.000254187
0.000243616
0.000256769
0.00024105
0.000243623
0.000241063
0.000256779
0.000254187
0.000243616
0.000256769
0.00024105
0.000243623
0.000235688
0.000219906
0.000235687
0.000219916
0.000235688
0.000219907
0.000235687
0.000219916
0.000235642
0.000233053
0.000219942
0.000222499
0.000235647
0.000233062
0.000219953
0.000235641
0.000233053
0.000219942
0.0002225
0.000235647
0.000233063
0.000219953
0.000256821
0.000256821
0.00024113
0.000241007
0.000241006
0.000256822
0.000241
0.0002199
0.000235698
0.000235543
0.000219907
0.000219907
0.000235693
0.000235693
0.000219899
0.000235699
0.000241063
0.000256781
0.000254188
0.000243616
0.00025677
0.000241051
0.000243624
0.000241012
0.000256819
0.000256819
0.00024101
0.000241063
0.000254188
0.000256782
0.000243616
0.00025677
0.000243624
0.000241051
0.000235687
0.000219906
0.000235687
0.000219915
0.000235641
0.000233053
0.000219942
0.000222499
0.000235647
0.000233062
0.000219952
0.000235687
0.000219906
0.000235687
0.000219915
0.000235641
0.000233053
0.000222499
0.000219941
0.000233062
0.000235647
0.000219952
0.000241012
0.000256817
0.000256816
0.00024101
0.000241063
0.000254187
0.00025678
0.000243616
0.000256769
0.000243623
0.00024105
0.000241012
0.000256817
0.000256816
0.000241009
0.000235641
0.000233054
0.000219943
0.0002225
0.000235647
0.000233062
0.000219953
0.000235687
0.000219907
0.000235688
0.000219916
0.000235641
0.000233054
0.0002225
0.000219942
0.000233062
0.000235647
0.000219953
0.000235687
0.000219906
0.000235687
0.000219916
0.000256823
0.000256822
0.00024113
0.000241007
0.000241007
0.000256822
0.000240998
0.000219898
0.000235698
0.000235543
0.000219906
0.000219906
0.000235693
0.000235693
0.000219899
0.000235697
0.000241064
0.000254187
0.00025678
0.000243616
0.000256769
0.000243623
0.00024105
0.000241012
0.000256818
0.000256817
0.000241009
0.000241012
0.000256817
0.000256817
0.000241009
0.000235641
0.000233053
0.000222499
0.000219942
0.000233062
0.000235647
0.000219952
0.000235641
0.000233053
0.000222499
0.000219942
0.000233062
0.000235647
0.000219953
0.000235688
0.000219906
0.000235686
0.000219916
0.000235687
0.000219906
0.000235687
0.000219916
0.000256822
0.000240999
0.000256822
0.000240998
0.000235543
0.000219907
0.000219906
0.000235693
0.000235693
0.0002199
0.000235698
0.000219899
0.000235698
0.000214572
0.000198776
0.000214572
0.000198776
0.000214566
0.000214566
0.000198908
0.000198782
0.000198782
0.000177624
0.000193489
0.000177624
0.00019349
0.000193327
0.000177644
0.000177644
0.000193484
0.000193484
0.000198782
0.000214568
0.000214557
0.000198781
0.000198816
0.000214533
0.000211948
0.000201392
0.000214528
0.000198813
0.000201401
0.000198816
0.000214533
0.000211948
0.000201392
0.000214528
0.000198814
0.000201401
0.000193492
0.000177643
0.000193482
0.000177614
0.000193493
0.000177643
0.000193482
0.000177614
0.000193452
0.000190844
0.000177686
0.000180292
0.000193449
0.000190854
0.000177697
0.000193452
0.000190844
0.000177686
0.000180292
0.000193448
0.000190855
0.000177697
0.000214567
0.000214567
0.000198908
0.000198782
0.000198782
0.000214573
0.000198778
0.000177623
0.00019349
0.000193328
0.000177642
0.000177644
0.000193484
0.000193483
0.00017762
0.000193491
0.000198816
0.000214532
0.000211948
0.000201392
0.000214527
0.000198814
0.000201401
0.000198781
0.000214567
0.000214556
0.000198781
0.000198816
0.000211948
0.000214531
0.000201392
0.000214527
0.000201401
0.000198815
0.000193492
0.000177643
0.000193482
0.000177613
0.000193452
0.000190844
0.000177685
0.000180292
0.000193449
0.000190854
0.000177697
0.000193492
0.000177643
0.000193482
0.000177613
0.000193451
0.000190844
0.000180292
0.000177686
0.000190854
0.000193448
0.000177697
0.000198782
0.000214568
0.000214557
0.000198782
0.000198817
0.000211949
0.000214533
0.000201393
0.000214528
0.000201401
0.000198814
0.000198782
0.000214568
0.000214557
0.000198781
0.000193452
0.000190844
0.000177686
0.000180292