/*--------------------------------*- C++ -*----------------------------------*\
| =========                 |                                                 |
| \\      /  F ield         | OpenFOAM: The Open Source CFD Toolbox           |
|  \\    /   O peration     | Version:  2206                                  |
|   \\  /    A nd           | Website:  www.openfoam.com                      |
|    \\/     M anipulation  |                                                 |
\*---------------------------------------------------------------------------*/
FoamFile
{
    version     2.0;
    format      ascii;
    arch        "LSB;label=32;scalar=64";
    class       surfaceScalarField;
    location    "27.5";
    object      phi;
}
// * * * * * * * * * * * * * * * * * * * * * * * * * * * * * * * * * * * * * //

dimensions      [0 3 -1 0 0 0 0];

oriented        oriented;

internalField   nonuniform List<scalar> 
83378
(
-0.00108517
-1.20304e-06
-1.59643e-09
2.76485e-09
0.00108517
-2.51305e-07
1.20565e-06
2.50204e-07
8.88995e-07
-2.5181e-07
-8.8869e-07
2.48826e-07
1.23129e-06
1.19778e-06
-2.29493e-07
-2.34768e-07
0.000264688
1.58904e-09
1.60994e-09
-0.00108515
-1.52729e-09
-1.61129e-09
0.00108515
-0.00108517
-1.20302e-06
-1.71423e-09
2.69583e-09
0.00108517
-2.51271e-07
1.20566e-06
2.50231e-07
8.89028e-07
-2.51746e-07
-8.88645e-07
2.48882e-07
-0.00108483
-1.19764e-06
-1.70129e-09
2.78394e-09
0.00108483
-2.51285e-07
1.20022e-06
2.5022e-07
8.88856e-07
-2.5441e-07
-8.88523e-07
2.5156e-07
-0.000266653
1.23128e-06
1.19776e-06
-2.29465e-07
-2.34749e-07
0.000264688
1.7079e-09
1.71051e-09
-0.00108515
-1.57334e-09
-1.65562e-09
0.00108515
-0.00108517
-1.20299e-06
-1.81596e-09
2.64542e-09
0.00108517
-2.51242e-07
1.20569e-06
2.50267e-07
8.89062e-07
-2.517e-07
-8.88618e-07
2.48935e-07
-0.00108483
-1.19763e-06
-1.8226e-09
2.74282e-09
0.00108483
-2.5126e-07
1.20024e-06
2.50251e-07
8.88886e-07
-2.54361e-07
-8.88504e-07
2.51621e-07
-0.000266653
1.23125e-06
1.19773e-06
-2.29436e-07
-2.34719e-07
0.000264688
1.96863e-09
1.91653e-09
-0.00108515
-1.68655e-09
-1.7694e-09
0.00108515
-0.00108517
-1.20294e-06
-2.07101e-09
2.52468e-09
0.00108517
-2.51191e-07
1.20575e-06
2.50332e-07
8.8915e-07
-2.51626e-07
-8.88553e-07
2.49039e-07
-0.00108483
-1.1976e-06
-2.00671e-09
2.68574e-09
0.00108483
-2.51229e-07
1.20027e-06
2.50286e-07
8.88945e-07
-2.54307e-07
-8.88453e-07
2.51681e-07
-0.000266652
1.23122e-06
1.1977e-06
-2.294e-07
-2.34682e-07
0.000264688
1.99187e-09
1.98782e-09
-0.00108515
-1.76831e-09
-1.78423e-09
0.00108515
-0.00108517
-1.20291e-06
-2.30877e-09
2.36646e-09
0.00108517
-2.51167e-07
1.20584e-06
2.50413e-07
8.89219e-07
-2.516e-07
-8.88531e-07
2.49108e-07
-0.00108483
-1.19759e-06
-1.99586e-09
2.64913e-09
0.00108483
-2.51194e-07
1.20029e-06
2.50315e-07
8.8895e-07
-2.54319e-07
-8.88467e-07
2.51695e-07
-0.000266652
1.23122e-06
1.19773e-06
-2.29426e-07
-2.34682e-07
0.000264687
4.26251e-10
1.66889e-09
-0.00108514
-1.66476e-09
-1.01371e-09
0.00108515
-0.00108517
-1.20337e-06
-3.51967e-10
3.51601e-09
0.00108517
-2.51704e-07
1.20528e-06
2.49782e-07
8.88487e-07
-2.52167e-07
-8.88998e-07
2.4821e-07
-0.00108483
-1.19751e-06
-1.31094e-09
2.40722e-09
0.00108483
-2.51164e-07
1.20029e-06
2.50248e-07
8.88549e-07
-2.54416e-07
-8.8863e-07
2.51281e-07
-0.000266651
1.23142e-06
1.19799e-06
-2.29668e-07
-2.34881e-07
0.000264687
1.37313e-09
8.07615e-10
-0.00108515
-1.15949e-09
-1.59046e-09
0.00108515
-0.00108517
-1.20281e-06
-1.66174e-09
2.1832e-09
0.00108517
-2.51085e-07
1.20559e-06
2.50214e-07
8.87977e-07
-2.50427e-07
-8.87966e-07
2.46815e-07
-0.00108483
-1.19774e-06
-1.10521e-09
2.96841e-09
0.00108483
-2.51415e-07
1.19989e-06
2.49902e-07
8.87702e-07
-2.53309e-07
-8.87933e-07
2.49279e-07
-0.000266653
1.23117e-06
1.19761e-06
-2.29274e-07
-2.34592e-07
0.000264688
1.32833e-09
1.38322e-09
-0.00108515
-1.78224e-09
-1.85484e-09
0.00108515
-0.00108518
-1.2022e-06
-1.44182e-09
2.69258e-09
0.00108518
-2.49793e-07
1.20463e-06
2.48292e-07
8.87337e-07
-2.48717e-07
-8.8681e-07
2.46029e-07
-0.00108483
-1.19679e-06
-1.46332e-09
2.68384e-09
0.00108483
-2.4972e-07
1.19925e-06
2.48312e-07
8.87147e-07
-2.51374e-07
-8.86711e-07
2.48711e-07
-0.000266654
1.23045e-06
1.19692e-06
-2.27687e-07
-2.32985e-07
0.000264687
-3.4817e-09
-3.3753e-09
-0.00108515
6.38424e-10
6.56362e-10
0.00108515
-0.00108518
-1.20184e-06
3.37632e-09
4.58187e-09
0.00108517
-2.4964e-07
1.20378e-06
2.47748e-07
8.86003e-07
-2.47446e-07
-8.87525e-07
2.42185e-07
-0.00108483
-1.19645e-06
3.35007e-09
4.5641e-09
0.00108483
-2.49603e-07
1.19837e-06
2.47729e-07
8.85836e-07
-2.50078e-07
-8.87383e-07
2.44865e-07
-0.000266655
1.23009e-06
1.19657e-06
-2.2688e-07
-2.32156e-07
0.000264687
-6.88994e-09
-6.78518e-09
-0.00108515
6.75543e-10
7.23255e-10
0.00108516
-0.00108518
-1.20076e-06
6.78356e-09
6.61895e-09
0.00108517
-2.47047e-07
1.20194e-06
2.44771e-07
8.80912e-07
-2.40739e-07
-8.83405e-07
2.34967e-07
-0.00108484
-1.19537e-06
6.74134e-09
6.61306e-09
0.00108483
-2.47049e-07
1.19652e-06
2.44785e-07
8.80734e-07
-2.434e-07
-8.83215e-07
2.37641e-07
-0.000266658
1.22901e-06
1.19549e-06
-2.23698e-07
-2.28969e-07
0.000264686
-8.044e-10
-6.02377e-10
-0.00108515
-3.91583e-09
-8.93008e-09
0.00108516
-0.00108518
-1.19619e-06
5.69823e-09
2.41881e-09
0.00108518
-2.40722e-07
1.1978e-06
2.41485e-07
8.72761e-07
-2.29724e-07
-8.76181e-07
2.20564e-07
-0.00108485
-1.18811e-06
6.10351e-10
7.4606e-09
0.00108485
-2.40652e-07
1.18971e-06
2.3876e-07
8.69904e-07
-2.29667e-07
-8.73314e-07
2.23276e-07
-0.000266668
1.22709e-06
1.1909e-06
-2.12766e-07
-2.17985e-07
0.000264681
8.23391e-07
8.30382e-07
-0.00108501
-7.06801e-07
-6.96685e-07
0.00108476
-0.00108545
-1.09921e-06
-8.24574e-07
-3.62709e-07
0.00108576
-1.56121e-07
1.35483e-06
3.30271e-07
1.01538e-06
-1.18623e-07
-7.6391e-07
3.15568e-07
-0.00108512
-1.09102e-06
-8.35253e-07
-3.73602e-07
0.00108545
-1.55977e-07
1.34956e-06
3.33131e-07
1.01245e-06
-1.24036e-07
-7.61012e-07
3.18292e-07
-0.000266744
1.13278e-06
1.09119e-06
-1.22864e-07
-1.25389e-07
0.000264768
4.96883e-06
4.96218e-06
-0.00107106
-1.05887e-05
-1.04916e-05
0.000259988
0.000263385
0.000262461
0.000262462
4.02956e-06
6.31419e-06
6.6107e-06
4.03331e-06
6.31494e-06
6.61405e-06
-0.000268463
5.13044e-06
-4.95955e-06
5.72343e-06
-3.25699e-06
0.000265826
-0.000268439
-4.96175e-06
5.13566e-06
-3.26489e-06
5.72047e-06
0.00026581
-0.000267194
-5.12743e-06
-5.13847e-06
5.74243e-06
5.73056e-06
0.000265987
1.24463e-06
0.00108483
-1.24207e-06
2.58348e-07
-2.59521e-07
2.51502e-07
-2.54642e-07
-1.20565e-06
0.000266698
-0.000264714
2.32292e-07
2.34579e-07
-1.20304e-06
2.50207e-07
-2.51303e-07
2.48818e-07
-2.51818e-07
-1.23917e-06
-1.203e-06
0.000266669
-0.000264693
2.29524e-07
2.37303e-07
2.91539e-09
0.00108439
-2.56742e-07
2.55545e-07
8.88898e-07
-2.51784e-07
-8.88659e-07
2.48726e-07
-1.24208e-06
-1.3738e-09
2.91829e-09
0.00108483
-2.59524e-07
1.24463e-06
2.58345e-07
8.94479e-07
-2.54635e-07
-8.94279e-07
2.51509e-07
0.00108439
-1.5972e-09
-0.00108439
2.92752e-09
-1.23663e-06
2.55551e-07
-2.56732e-07
-8.88607e-07
2.48781e-07
-2.51725e-07
8.88944e-07
1.24464e-06
0.00108483
-1.46952e-09
-0.00108483
2.84872e-09
-1.24206e-06
2.58367e-07
-2.59497e-07
-8.94236e-07
2.51558e-07
-2.54579e-07
8.94507e-07
-2.29704e-07
-2.32008e-07
0.000264714
-1.20565e-06
0.000266698
-0.000264714
2.32313e-07
2.34597e-07
0.00108544
-1.58997e-09
-0.00108544
2.72285e-09
-1.20042e-06
2.53015e-07
-2.5408e-07
-8.91387e-07
2.51611e-07
-2.54569e-07
8.91781e-07
1.23923e-06
0.0010845
-1.42068e-09
-0.0010845
2.93203e-09
-1.23669e-06
2.58324e-07
-2.5951e-07
-8.91385e-07
2.51513e-07
-2.54531e-07
8.91622e-07
-1.46515e-09
2.90741e-09
0.0010843
-2.53947e-07
1.23383e-06
2.5281e-07
8.88908e-07
-2.51796e-07
2.48714e-07
-8.88711e-07
-1.69943e-09
-0.00108517
2.70136e-09
-1.20302e-06
2.50225e-07
-2.51279e-07
-8.88645e-07
2.48872e-07
8.89024e-07
-2.51754e-07
1.23384e-06
0.0010843
-1.54616e-09
-0.0010843
2.90298e-09
-1.23129e-06
2.52817e-07
-2.53937e-07
-8.88666e-07
2.48762e-07
-2.51743e-07
8.8894e-07
-1.20022e-06
0.000266648
-0.000264675
2.29708e-07
2.37098e-07
-1.44477e-09
2.7459e-09
0.00108535
-2.51368e-07
1.20032e-06
2.50258e-07
8.89098e-07
-2.54603e-07
2.51548e-07
-8.88809e-07
-1.68489e-09
-0.00108483
2.79207e-09
-1.19765e-06
2.50216e-07
-2.51294e-07
-8.88477e-07
2.51522e-07
8.88907e-07
-2.54451e-07
1.20033e-06
0.00108535
-1.50205e-09
-0.00108535
2.70534e-09
-1.19776e-06
2.50272e-07
-2.51351e-07
-8.88774e-07
2.51591e-07
-2.54555e-07
8.89123e-07
-0.000264688
2.32036e-07
2.37336e-07
1.23663e-06
1.20041e-06
-2.26944e-07
-2.34717e-07
0.000264693
-1.23919e-06
-1.20301e-06
0.000266669
-0.000264693
2.29549e-07
2.37335e-07
2.92339e-09
0.00108439
-2.56727e-07
1.23917e-06
2.55552e-07
8.88936e-07
-2.51713e-07
-8.88606e-07
2.48788e-07
-1.24206e-06
-1.48456e-09
2.83984e-09
0.00108483
-2.5949e-07
1.24464e-06
2.58372e-07
8.94511e-07
-2.54568e-07
-8.94234e-07
2.51568e-07
0.00108439
-1.68275e-09
-0.00108439
2.89312e-09
-1.23661e-06
2.55578e-07
-2.56706e-07
-8.88606e-07
2.48826e-07
-2.51686e-07
8.88953e-07
1.24467e-06
0.00108483
-1.57251e-09
-0.00108483
2.77731e-09
-1.24203e-06
2.58401e-07
-2.59463e-07
-8.94222e-07
2.51607e-07
-2.54534e-07
8.94529e-07
-2.29676e-07
-2.31985e-07
0.000264714
-1.20568e-06
0.000266698
-0.000264714
2.32344e-07
2.34635e-07
2.70981e-09
0.00108544
-2.54073e-07
1.203e-06
2.53019e-07
8.91783e-07
-2.54554e-07
-8.91375e-07
2.51623e-07
-1.23669e-06
-1.4625e-09
2.92948e-09
0.0010845
-2.59504e-07
1.23923e-06
2.58328e-07
8.91626e-07
-2.54509e-07
-8.91374e-07
2.5153e-07
0.00108544
-1.66121e-09
-0.00108544
2.68067e-09
-1.2004e-06
2.53041e-07
-2.54055e-07
-8.91383e-07
2.51652e-07
-2.54527e-07
8.91784e-07
1.23924e-06
0.0010845
-1.46572e-09
-0.0010845
2.89992e-09
-1.23668e-06
2.58344e-07
-2.59487e-07
-8.91385e-07
2.51546e-07
-2.54493e-07
8.91619e-07
-1.5742e-09
2.89434e-09
0.0010843
-2.5393e-07
1.23384e-06
2.52821e-07
8.88942e-07
-2.51729e-07
2.48773e-07
-8.88663e-07
-1.82006e-09
-0.00108517
2.64148e-09
-1.203e-06
2.50256e-07
-2.51248e-07
-8.88627e-07
2.48928e-07
8.89051e-07
-2.51704e-07
1.23386e-06
0.0010843
-1.64984e-09
-0.0010843
2.86242e-09
-1.23127e-06
2.52846e-07
-2.53911e-07
-8.88655e-07
2.48815e-07
-2.51697e-07
8.88959e-07
-2.27137e-07
-2.34521e-07
0.000264675
-1.20023e-06
0.000266648
-0.000264675
2.29723e-07
2.37124e-07
-1.51372e-09
2.68559e-09
0.00108535
-2.51342e-07
1.20033e-06
2.50278e-07
8.89127e-07
-2.54542e-07
2.516e-07
-8.88771e-07
-1.76736e-09
-0.00108483
2.76512e-09
-1.19764e-06
2.50234e-07
-2.51272e-07
-8.8847e-07
2.51573e-07
8.88917e-07
-2.544e-07
1.20035e-06
0.00108535
-1.59692e-09
-0.00108535
2.65024e-09
-1.19774e-06
2.50304e-07
-2.51322e-07
-8.88762e-07
2.51639e-07
-2.54516e-07
8.89149e-07
-0.000264688
2.32068e-07
2.37366e-07
1.2366e-06
1.20039e-06
-2.26921e-07
-2.34686e-07
0.000264693
-1.23921e-06
-1.20304e-06
0.000266668
-0.000264693
2.2959e-07
2.37376e-07
2.86205e-09
0.00108439
-2.56695e-07
1.2392e-06
2.55586e-07
8.88972e-07
-2.51668e-07
-8.88586e-07
2.4884e-07
-1.24202e-06
-1.5753e-09
2.77931e-09
0.00108483
-2.59457e-07
1.24467e-06
2.58411e-07
8.94542e-07
-2.54528e-07
-8.94211e-07
2.51616e-07
0.00108439
-1.85573e-09
-0.00108439
2.8581e-09
-1.23658e-06
2.55612e-07
-2.56674e-07
-8.88542e-07
2.48885e-07
-2.51635e-07
8.89024e-07
1.24471e-06
0.00108483
-1.80592e-09
-0.00108483
2.68598e-09
-1.242e-06
2.58453e-07
-2.59424e-07
-8.94166e-07
2.51684e-07
-2.54484e-07
8.94602e-07
-2.29645e-07
-2.31948e-07
0.000264714
-1.20572e-06
0.000266697
-0.000264714
2.32403e-07
2.34689e-07
2.6573e-09
0.00108544
-2.54043e-07
1.20302e-06
2.5305e-07
8.91805e-07
-2.54509e-07
-8.91364e-07
2.51676e-07
-1.23667e-06
-1.54514e-09
2.8854e-09
0.0010845
-2.59477e-07
1.23925e-06
2.58359e-07
8.91651e-07
-2.54474e-07
-8.91366e-07
2.51576e-07
0.00108544
-1.77207e-09
-0.00108544
2.64352e-09
-1.20037e-06
2.53076e-07
-2.54022e-07
-8.91335e-07
2.5171e-07
-2.54472e-07
8.91838e-07
1.23927e-06
0.0010845
-1.57427e-09
-0.0010845
2.86639e-09
-1.23665e-06
2.58383e-07
-2.59457e-07
-8.91328e-07
2.51618e-07
-2.54437e-07
8.91683e-07
-1.70031e-09
2.82331e-09
0.0010843
-2.53895e-07
1.23387e-06
2.52859e-07
8.8898e-07
-2.51676e-07
2.48834e-07
-8.88637e-07
-2.03867e-09
-0.00108517
2.54393e-09
-1.20296e-06
2.5031e-07
-2.51207e-07
-8.88575e-07
2.49001e-07
8.8912e-07
-2.51661e-07
1.23388e-06
0.0010843
-1.80189e-09
-0.0010843
2.83186e-09
-1.23124e-06
2.5288e-07
-2.53879e-07
-8.8861e-07
2.4887e-07
-2.5165e-07
8.89015e-07
-2.2712e-07
-2.34493e-07
0.000264675
-1.20026e-06
0.000266647
-0.000264675
2.29773e-07
2.37161e-07
-1.65968e-09
2.61306e-09
0.00108535
-2.51307e-07
1.20036e-06
2.50315e-07
8.8918e-07
-2.5449e-07
2.51662e-07
-8.88732e-07
-1.88569e-09
-0.00108483
2.73548e-09
-1.1976e-06
2.50274e-07
-2.51239e-07
-8.88427e-07
2.5164e-07
8.88974e-07
-2.54351e-07
1.20037e-06
0.00108534
-1.74665e-09
-0.00108534
2.61783e-09
-1.19772e-06
2.50337e-07
-2.51291e-07
-8.88712e-07
2.51694e-07
-2.54466e-07
8.89202e-07
-0.000264688
2.32109e-07
2.3741e-07
1.23656e-06
1.20035e-06
-2.26878e-07
-2.34651e-07
0.000264693
-1.23923e-06
-1.20304e-06
0.000266668
-0.000264693
2.29617e-07
2.37425e-07
2.75696e-09
0.00108439
-2.56659e-07
1.23924e-06
2.55639e-07
8.89048e-07
-2.51611e-07
-8.88521e-07
2.48923e-07
-1.24198e-06
-1.84807e-09
2.6729e-09
0.00108483
-2.59409e-07
1.24473e-06
2.58473e-07
8.94634e-07
-2.5445e-07
-8.94141e-07
2.51723e-07
0.00108439
-1.68746e-09
-0.00108439
2.864e-09
-1.23656e-06
2.55622e-07
-2.56674e-07
-8.88551e-07
2.48897e-07
-2.51638e-07
8.89015e-07
1.24469e-06
0.00108482
-1.77332e-09
-0.00108483
2.77622e-09
-1.24202e-06
2.58447e-07
-2.59451e-07
-8.94164e-07
2.51716e-07
-2.54477e-07
8.94621e-07
-2.29595e-07
-2.319e-07
0.000264714
-1.20571e-06
0.000266697
-0.000264713
2.32413e-07
2.34697e-07
2.57767e-09
0.00108544
-2.54004e-07
1.20307e-06
2.53105e-07
8.9187e-07
-2.54467e-07
-8.91314e-07
2.51736e-07
-1.23664e-06
-1.70844e-09
2.843e-09
0.0010845
-2.59445e-07
1.23928e-06
2.58393e-07
8.91707e-07
-2.54417e-07
-8.91314e-07
2.5164e-07
0.00108544
-1.83404e-09
-0.00108544
2.72171e-09
-1.20036e-06
2.53088e-07
-2.54016e-07
-8.913e-07
2.51755e-07
-2.54451e-07
8.91891e-07
1.23931e-06
0.0010845
-1.68208e-09
-0.0010845
2.83279e-09
-1.2366e-06
2.58426e-07
-2.59412e-07
-8.91285e-07
2.51684e-07
-2.54386e-07
8.91748e-07
-1.94218e-09
2.7285e-09
0.0010843
-2.53862e-07
1.23391e-06
2.52909e-07
8.89047e-07
-2.51629e-07
2.48907e-07
-8.88584e-07
-1.97362e-09
-0.00108517
2.60145e-09
-1.20298e-06
2.50309e-07
-2.5123e-07
-8.88579e-07
2.49027e-07
8.89133e-07
-2.51658e-07
1.23387e-06
0.0010843
-1.63027e-09
-0.0010843
2.89432e-09
-1.23124e-06
2.52876e-07
-2.53888e-07
-8.88619e-07
2.48871e-07
-2.51662e-07
8.89004e-07
-2.27079e-07
-2.3446e-07
0.000264675
-1.20031e-06
0.000266649
-0.000264674
2.29832e-07
2.3467e-07
-1.90318e-09
2.52719e-09
0.00108534
-2.51274e-07
1.2004e-06
2.50365e-07
8.89234e-07
-2.54445e-07
2.51733e-07
-8.8869e-07
-1.83798e-09
-0.00108483
2.67721e-09
-1.19756e-06
2.50275e-07
-2.5121e-07
-8.88403e-07
2.5167e-07
8.89e-07
-2.54322e-07
1.20034e-06
0.00108534
-1.66851e-09
-0.00108534
2.77489e-09
-1.19773e-06
2.50311e-07
-2.51318e-07
-8.88701e-07
2.51716e-07
-2.5446e-07
8.89216e-07
-0.000264687
2.32112e-07
2.37435e-07
1.23655e-06
1.20038e-06
-2.26895e-07
-2.34618e-07
0.000264692
-1.2393e-06
-1.20298e-06
0.000266667
-0.000264692
2.29499e-07
2.37468e-07
2.67111e-09
0.00108439
-2.56647e-07
1.23928e-06
2.55694e-07
8.8905e-07
-2.51618e-07
-8.88548e-07
2.48942e-07
-1.24195e-06
-2.12074e-09
2.53746e-09
0.00108482
-2.5939e-07
1.24481e-06
2.58548e-07
8.9471e-07
-2.54417e-07
-8.94112e-07
2.51801e-07
0.00108439
-1.06121e-09
-0.00108439
2.64051e-09
-1.23646e-06
2.55613e-07
-2.56626e-07
-8.88589e-07
2.48698e-07
-2.51671e-07
8.88836e-07
1.24437e-06
0.00108482
-5.63091e-10
-0.00108482
3.79218e-09
-1.24223e-06
2.58034e-07
-2.59751e-07
-8.94309e-07
2.51272e-07
-2.54706e-07
8.94301e-07
-2.29575e-07
-2.31886e-07
0.000264713
-1.20541e-06
0.000266696
-0.000264713
2.32047e-07
2.34325e-07
2.63457e-09
0.00108544
-2.54029e-07
1.20305e-06
2.53091e-07
8.91917e-07
-2.54436e-07
-8.91287e-07
2.51809e-07
-1.23665e-06
-1.71129e-09
2.87812e-09
0.0010845
-2.59456e-07
1.23926e-06
2.58387e-07
8.91733e-07
-2.54405e-07
-8.91295e-07
2.51671e-07
0.00108544
-2.11693e-09
-0.00108544
3.03926e-09
-1.20036e-06
2.52981e-07
-2.54053e-07
-8.91163e-07
2.51755e-07
-2.54358e-07
8.91959e-07
1.2394e-06
0.0010845
-2.1629e-09
-0.0010845
2.63289e-09
-1.2365e-06
2.58494e-07
-2.59328e-07
-8.91125e-07
2.51757e-07
-2.54243e-07
8.91857e-07
-1.97422e-09
2.66076e-09
0.0010843
-2.53862e-07
1.23394e-06
2.52952e-07
8.89062e-07
-2.51635e-07
2.48938e-07
-8.88605e-07
-7.26207e-10
-0.00108517
3.53992e-09
-1.20318e-06
2.4991e-07
-2.51518e-07
-8.88729e-07
2.48583e-07
8.88813e-07
-2.51895e-07
1.23385e-06
0.00108429
-9.79048e-10
-0.00108429
2.90682e-09
-1.2312e-06
2.52792e-07
-2.53895e-07
-8.88659e-07
2.48657e-07
-2.51711e-07
8.88825e-07
-2.27037e-07
-2.31898e-07
0.000264674
-1.20045e-06
0.000266649
-0.000264674
2.29949e-07
2.34721e-07
-2.02159e-09
2.55309e-09
0.00108534
-2.51302e-07
1.2004e-06
2.50377e-07
8.89279e-07
-2.54429e-07
2.51789e-07
-8.88682e-07
-1.84247e-09
-0.00108483
2.31905e-09
-1.19742e-06
2.50381e-07
-2.51095e-07
-8.88356e-07
2.51623e-07
8.88938e-07
-2.5426e-07
1.20025e-06
0.00108534
-1.41094e-09
-0.00108534
3.25448e-09
-1.19776e-06
2.50164e-07
-2.51389e-07
-8.8868e-07
2.51565e-07
-2.54454e-07
8.89104e-07
-0.000264687
2.31982e-07
2.37352e-07
1.23661e-06
1.2006e-06
-2.27122e-07
-2.34648e-07
0.000264692
-1.23884e-06
-1.20279e-06
0.000266669
-0.000264693
2.29125e-07
2.36738e-07
2.83924e-09
0.00108439
-2.56804e-07
1.23911e-06
2.55414e-07
8.88452e-07
-2.51957e-07
-8.88882e-07
2.48238e-07
-1.24242e-06
-1.71859e-10
3.76277e-09
0.00108482
-2.59937e-07
1.24425e-06
2.57912e-07
8.93977e-07
-2.54983e-07
-8.94579e-07
2.50898e-07
0.00108439
-3.69621e-10
-0.00108439
3.74063e-09
-1.23684e-06
2.55268e-07
-2.56949e-07
-8.88544e-07
2.47215e-07
-2.51443e-07
8.88083e-07
1.24455e-06
0.00108483
-4.91555e-10
-0.00108483
3.06335e-09
-1.24205e-06
2.58316e-07
-2.59502e-07
-8.94134e-07
2.5011e-07
-2.54173e-07
8.93689e-07
-2.30059e-07
-2.32374e-07
0.000264713
-1.20557e-06
0.000266698
-0.000264714
2.32043e-07
2.34327e-07
3.34391e-09
0.00108544
-2.54305e-07
1.20271e-06
2.52682e-07
8.91696e-07
-2.54458e-07
-8.91279e-07
2.51492e-07
-1.23665e-06
-1.78908e-09
2.89964e-09
0.0010845
-2.59483e-07
1.23917e-06
2.58259e-07
8.91595e-07
-2.54323e-07
-8.91221e-07
2.51472e-07
0.00108544
1.06076e-10
-0.00108544
3.25536e-09
-1.20056e-06
2.52809e-07
-2.54282e-07
-8.91468e-07
2.49885e-07
-2.54332e-07
8.90706e-07
1.23889e-06
0.0010845
3.26373e-10
-0.0010845
3.78874e-09
-1.23692e-06
2.57952e-07
-2.59824e-07
-8.91468e-07
2.49753e-07
-2.54346e-07
8.90546e-07
-4.26496e-10
3.14254e-09
0.00108429
-2.54123e-07
1.23362e-06
2.52554e-07
8.8847e-07
-2.51976e-07
2.48239e-07
-8.88933e-07
-7.4525e-10
-0.00108517
2.96073e-09
-1.20301e-06
2.50174e-07
-2.51283e-07
-8.88555e-07
2.47422e-07
8.88205e-07
-2.51357e-07
1.23361e-06
0.0010843
-3.45969e-10
-0.0010843
3.56899e-09
-1.23142e-06
2.52604e-07
-2.54111e-07
-8.88598e-07
2.47205e-07
-2.51441e-07
8.88078e-07
-2.26947e-07
-2.31896e-07
0.000264674
-1.19981e-06
0.00026665
-0.000264674
2.29066e-07
2.33983e-07
-8.15644e-10
3.45934e-09
0.00108534
-2.51622e-07
1.20002e-06
2.49922e-07
8.88742e-07
-2.54713e-07
2.51146e-07
-8.88952e-07
-9.26127e-11
-0.00108483
3.7576e-09
-1.19792e-06
2.49755e-07
-2.51632e-07
-8.8844e-07
2.49844e-07
8.87991e-07
-2.54218e-07
1.20013e-06
0.00108535
-1.31002e-10
-0.00108534
3.1702e-09
-1.19788e-06
2.50081e-07
-2.51515e-07
-8.88734e-07
2.50013e-07
-2.54263e-07
8.88235e-07
-0.000264688
2.31635e-07
2.36913e-07
1.23663e-06
1.20025e-06
-2.26737e-07
-2.34711e-07
0.000264693
-1.2384e-06
-1.20224e-06
0.00026667
-0.000264693
2.2788e-07
2.35669e-07
2.90116e-09
0.00108439
-2.56745e-07
1.23892e-06
2.55362e-07
8.87863e-07
-2.50475e-07
-8.87951e-07
2.46655e-07
-1.24184e-06
-1.40159e-09
2.26013e-09
0.00108483
-2.59298e-07
1.24458e-06
2.58362e-07
8.93457e-07
-2.53249e-07
-8.93543e-07
2.49493e-07
0.00108439
-1.76569e-09
-0.00108439
3.23292e-09
-1.23578e-06
2.54275e-07
-2.55606e-07
-8.86175e-07
2.45267e-07
-2.47895e-07
8.86716e-07
1.24385e-06
0.00108483
-1.58058e-09
-0.00108483
3.14881e-09
-1.24122e-06
2.57079e-07
-2.58369e-07
-8.91808e-07
2.48027e-07
-2.50766e-07
8.92279e-07
-2.29395e-07
-2.31701e-07
0.000264714
-1.20486e-06
0.000266699
-0.000264714
2.30639e-07
2.32939e-07
2.26353e-09
0.00108544
-2.53954e-07
1.20292e-06
2.52988e-07
8.90459e-07
-2.53546e-07
-8.90972e-07
2.49239e-07
-1.23668e-06
-4.87726e-10
2.88568e-09
0.0010845
-2.59578e-07
1.239e-06
2.58104e-07
8.90297e-07
-2.53543e-07
-8.90965e-07
2.4912e-07
0.00108544
-1.68772e-09
-0.00108544
2.93102e-09
-1.19954e-06
2.51771e-07
-2.52905e-07
-8.88986e-07
2.48072e-07
-2.50787e-07
8.89547e-07
1.23847e-06
0.0010845
-1.51701e-09
-0.0010845
3.18087e-09
-1.23581e-06
2.57085e-07
-2.58338e-07
-8.88977e-07
2.47972e-07
-2.50756e-07
8.89397e-07
-1.3934e-09
2.69207e-09
0.0010843
-2.53864e-07
1.23369e-06
2.52716e-07
8.87858e-07
-2.50491e-07
2.46635e-07
-8.88004e-07
-1.83041e-09
-0.00108518
3.021e-09
-1.20219e-06
2.48928e-07
-2.50157e-07
-8.86218e-07
2.45359e-07
8.86801e-07
-2.47932e-07
1.23305e-06
0.0010843
-1.7011e-09
-0.0010843
3.20882e-09
-1.23044e-06
2.51544e-07
-2.52798e-07
-8.86242e-07
2.45243e-07
-2.47921e-07
8.86713e-07
-2.27215e-07
-2.3195e-07
0.000264675
-1.19947e-06
0.000266652
-0.000264675
2.28074e-07
2.3291e-07
-1.14009e-09
2.21546e-09
0.00108535
-2.51237e-07
1.20023e-06
2.5022e-07
8.88e-07
-2.53336e-07
2.49426e-07
-8.88168e-07
-1.7925e-09
-0.00108483
3.09006e-09
-1.19679e-06
2.48936e-07
-2.50142e-07
-8.86087e-07
2.47994e-07
8.86641e-07
-2.50644e-07
1.19956e-06
0.00108535
-1.61285e-09
-0.00108535
2.91945e-09
-1.19689e-06
2.4902e-07
-2.50181e-07
-8.86366e-07
2.48063e-07
-2.50748e-07
8.86892e-07
-0.000264688
2.30394e-07
2.35682e-07
1.23578e-06
1.19957e-06
-2.25175e-07
-2.32928e-07
0.000264693
-1.2387e-06
-1.2025e-06
0.00026667
-0.000264693
2.27866e-07
2.35675e-07
2.845e-09
0.00108439
-2.55222e-07
1.23818e-06
2.5365e-07
8.87247e-07
-2.48679e-07
-8.86786e-07
2.45938e-07
-1.24124e-06
-1.19906e-09
2.82909e-09
0.00108483
-2.58007e-07
1.24362e-06
2.56439e-07
8.92817e-07
-2.5154e-07
-8.92394e-07
2.48697e-07
0.00108439
-4.55613e-09
-0.00108439
1.59584e-09
-1.2356e-06
2.5458e-07
-2.54887e-07
-8.88607e-07
2.46156e-07
-2.49048e-07
8.89425e-07
1.24414e-06
0.00108483
-4.45062e-09
-0.00108483
1.64006e-09
-1.24105e-06
2.5736e-07
-2.57679e-07
-8.94222e-07
2.48926e-07
-2.51901e-07
8.94995e-07
-2.27922e-07
-2.30228e-07
0.000264714
-1.20516e-06
0.000266699
-0.000264714
2.3066e-07
2.32938e-07
2.63717e-09
0.00108544
-2.52561e-07
1.20199e-06
2.51114e-07
8.9011e-07
-2.51511e-07
-8.89534e-07
2.48779e-07
-1.23584e-06
-1.25855e-09
2.82149e-09
0.0010845
-2.57971e-07
1.23823e-06
2.56443e-07
8.89973e-07
-2.51449e-07
-8.89539e-07
2.48679e-07
0.00108544
-4.67366e-09
-0.00108544
1.46662e-09
-1.19941e-06
2.52023e-07
-2.52255e-07
-8.91365e-07
2.49024e-07
-2.51848e-07
8.92292e-07
1.23874e-06
0.0010845
-4.50824e-09
-0.0010845
1.62976e-09
-1.23567e-06
2.57343e-07
-2.57667e-07
-8.91359e-07
2.48914e-07
-2.51809e-07
8.92148e-07
-1.32271e-09
2.83368e-09
0.0010843
-2.52429e-07
1.23283e-06
2.5091e-07
8.87254e-07
-2.4869e-07
2.45917e-07
-8.86826e-07
-4.64613e-09
-0.00108517
1.47071e-09
-1.20202e-06
2.4922e-07
-2.49462e-07
-8.88655e-07
2.46244e-07
8.89517e-07
-2.49086e-07
1.23335e-06
0.0010843
-4.50752e-09
-0.0010843
1.62137e-09
-1.23027e-06
2.51827e-07
-2.52108e-07
-8.88651e-07
2.46131e-07
-2.49055e-07
8.89416e-07
-2.25333e-07
-2.30186e-07
0.000264675
-1.19976e-06
0.000266652
-0.000264675
2.28083e-07
2.32898e-07
-1.25434e-09
2.61984e-09
0.00108535
-2.49825e-07
1.19932e-06
2.4837e-07
8.87439e-07
-2.51511e-07
2.48742e-07
-8.86944e-07
-4.68469e-09
-0.00108483
1.44472e-09
-1.19662e-06
2.49211e-07
-2.49413e-07
-8.88458e-07
2.48909e-07
8.89382e-07
-2.5174e-07
1.19983e-06
0.00108535
-4.55855e-09
-0.00108534
1.48345e-09
-1.19675e-06
2.49277e-07
-2.49519e-07
-8.88772e-07
2.48978e-07
-2.5186e-07
8.89639e-07
-0.000264688
2.30377e-07
2.35684e-07
1.23542e-06
1.19923e-06
-2.24364e-07
-2.32107e-07
0.000264692
-1.23705e-06
-1.20085e-06
0.000266673
-0.000264691
2.23963e-07
2.31758e-07
4.70526e-09
0.00108439
-2.55068e-07
1.23732e-06
2.53097e-07
8.85921e-07
-2.47414e-07
-8.87491e-07
2.42087e-07
-1.24087e-06
3.54086e-09
4.73796e-09
0.00108483
-2.57857e-07
1.24276e-06
2.55891e-07
8.91492e-07
-2.50253e-07
-8.93089e-07
2.44863e-07
0.00108439
-7.62522e-09
-0.00108439
2.59772e-10
-1.23313e-06
2.51197e-07
-2.50748e-07
-8.82325e-07
2.38295e-07
-2.39589e-07
8.84383e-07
1.24249e-06
0.00108483
-7.56944e-09
-0.00108483
3.08092e-10
-1.23858e-06
2.53981e-07
-2.53533e-07
-8.87928e-07
2.41076e-07
-2.42435e-07
8.89957e-07
-2.27095e-07
-2.29398e-07
0.000264713
-1.20351e-06
0.000266702
-0.000264712
2.26747e-07
2.29033e-07
4.58083e-09
0.00108544
-2.52437e-07
1.20111e-06
2.50537e-07
8.88777e-07
-2.50194e-07
-8.9024e-07
2.44942e-07
-1.23549e-06
3.48638e-09
4.74957e-09
0.0010845
-2.57856e-07
1.23736e-06
2.55864e-07
8.88635e-07
-2.50161e-07
-8.90223e-07
2.4486e-07
0.00108544
-7.78447e-09
-0.00108544
1.53155e-10
-1.19694e-06
2.48637e-07
-2.48114e-07
-8.8507e-07
2.41126e-07
-2.42371e-07
8.87232e-07
1.2371e-06
0.00108451
-7.58263e-09
-0.0010845
2.99265e-10
-1.23319e-06
2.53965e-07
-2.53528e-07
-8.85072e-07
2.41032e-07
-2.42352e-07
8.87084e-07
3.48555e-09
4.70513e-09
0.0010843
-2.52286e-07
1.23197e-06
2.50353e-07
8.85933e-07
-2.47408e-07
2.42073e-07
-8.87527e-07
-7.76203e-09
-0.00108517
1.64209e-10
-1.19954e-06
2.45835e-07
-2.45313e-07
-8.82349e-07
2.38356e-07
8.8446e-07
-2.39604e-07
1.2317e-06
0.0010843
-7.61037e-09
-0.0010843
2.88319e-10
-1.2278e-06
2.48443e-07
-2.4797e-07
-8.82349e-07
2.3828e-07
-2.3959e-07
8.84378e-07
-2.24535e-07
-2.29376e-07
0.000264674
-1.19809e-06
0.000266652
-0.000264673
2.24174e-07
2.31536e-07
3.44084e-09
4.59635e-09
0.00108535
-2.49702e-07
1.19845e-06
2.478e-07
8.86136e-07
-2.5021e-07
2.44912e-07
-8.87641e-07
-7.79116e-09
-0.00108483
1.43746e-10
-1.19415e-06
2.45854e-07
-2.45314e-07
-8.82164e-07
2.41072e-07
8.84288e-07
-2.4227e-07
1.19818e-06
0.00108535
-7.74974e-09
-0.00108535
1.79337e-10
-1.19427e-06
2.45893e-07
-2.45373e-07
-8.82455e-07
2.41131e-07
-2.42373e-07
8.84602e-07
-0.000264686
2.2647e-07
2.31776e-07
1.23434e-06
1.19816e-06
-2.21186e-07
-2.28926e-07
0.000264691
-1.23653e-06
-1.20036e-06
0.000266681
-0.000264689
2.19974e-07
2.253e-07
6.73349e-09
0.00108439
-2.5248e-07
1.23547e-06
2.50133e-07
8.80834e-07
-2.40719e-07
-8.83374e-07
2.34856e-07
-1.2398e-06
6.93954e-09
6.75544e-09
0.00108483
-2.55263e-07
1.24093e-06
2.52923e-07
8.86414e-07
-2.43556e-07
-8.88963e-07
2.37639e-07
0.00108439
-1.4679e-08
-0.00108438
-1.0815e-08
-1.23074e-06
2.49187e-07
-2.44062e-07
-8.75788e-07
2.29688e-07
-2.29478e-07
8.79386e-07
1.24197e-06
0.00108485
-2.51889e-08
-0.00108483
-5.42191e-09
-1.23352e-06
2.49226e-07
-2.4685e-07
-8.7603e-07
2.27032e-07
-2.26912e-07
8.79604e-07
-2.23913e-07
-2.26217e-07
0.000264712
-1.20298e-06
0.000266705
-0.000264708
2.20233e-07
2.27601e-07
6.60352e-09
0.00108543
-2.49852e-07
1.20195e-06
2.50306e-07
8.83679e-07
-2.43508e-07
-8.86122e-07
2.37731e-07
-1.23441e-06
6.89015e-09
6.76963e-09
0.0010845
-2.55256e-07
1.23553e-06
2.529e-07
8.83554e-07
-2.43468e-07
-8.86107e-07
2.37656e-07
0.00108545
-1.49328e-08
-0.00108544
-5.58966e-09
-1.19459e-06
2.46616e-07
-2.44167e-07
-8.78532e-07
2.29827e-07
-2.29558e-07
8.82236e-07
1.23125e-06
0.00108452
-1.47146e-08
-0.0010845
-1.07977e-08
-1.22548e-06
2.49229e-07
-2.4683e-07
-8.759e-07
2.29747e-07
-2.29532e-07
8.7947e-07
6.88952e-09
6.7306e-09
0.0010843
-2.49694e-07
1.23014e-06
2.47384e-07
8.80841e-07
-2.40714e-07
2.34853e-07
-8.83402e-07
-2.01341e-08
-0.00108518
-5.55208e-09
-1.19453e-06
2.41093e-07
-2.38648e-07
-8.75828e-07
2.29747e-07
8.82136e-07
-2.26805e-07
1.23122e-06
0.00108431
-2.00293e-08
-0.0010843
-5.47189e-09
-1.22279e-06
2.46456e-07
-2.41289e-07
-8.75812e-07
2.29667e-07
-2.26775e-07
8.79391e-07
-2.21363e-07
-2.28734e-07
0.000264673
-1.19493e-06
0.000266655
-0.000264674
2.20201e-07
2.25033e-07
6.81297e-09
6.62647e-09
0.00108534
-2.47103e-07
1.19662e-06
2.4483e-07
8.81053e-07
-2.43503e-07
2.37697e-07
-8.83509e-07
-1.49188e-08
-0.00108484
-1.09181e-08
-1.18912e-06
2.4111e-07
-2.38629e-07
-8.72948e-07
2.29749e-07
8.7661e-07
-2.29443e-07
1.195e-06
0.00108535
-1.48567e-08
-0.00108535
-1.08572e-08
-1.18392e-06
2.41134e-07
-2.35949e-07
-8.70556e-07
2.27097e-07
-2.26844e-07
8.76892e-07
-0.000264689
2.20006e-07
2.27805e-07
1.22976e-06
1.19093e-06
-2.15283e-07
-2.17968e-07
0.000264694
-1.28504e-06
-1.24881e-06
0.000266757
-0.000264718
2.4449e-07
2.4989e-07
1.2717e-08
0.00108439
-2.46092e-07
1.23405e-06
2.44147e-07
8.72657e-07
-2.29711e-07
-8.76165e-07
2.20529e-07
-1.23517e-06
1.09853e-08
7.67496e-09
0.00108484
-2.48885e-07
1.23679e-06
2.46909e-07
8.7564e-07
-2.27107e-07
-8.76492e-07
2.23258e-07
0.00108467
-3.41057e-07
-0.00108449
-1.63558e-07
-1.18947e-06
2.72269e-07
-2.08607e-07
-8.19334e-07
2.44636e-07
-1.7357e-07
9.1295e-07
1.29041e-06
0.0010851
-3.41082e-07
-0.00108493
-1.58046e-07
-1.19497e-06
2.72231e-07
-2.08724e-07
-8.27677e-07
2.47374e-07
-1.73654e-07
9.21246e-07
-2.1551e-07
-2.20331e-07
0.000264709
-1.2488e-06
0.000266781
-0.000264739
2.47309e-07
2.49561e-07
7.48958e-09
0.00108546
-2.43445e-07
1.19249e-06
2.38789e-07
8.72889e-07
-2.29762e-07
-8.76249e-07
2.2337e-07
-1.22449e-06
7.35018e-10
7.57586e-09
0.00108452
-2.46081e-07
1.22874e-06
2.44141e-07
8.7279e-07
-2.27034e-07
-8.76307e-07
2.20567e-07
0.00108571
-3.47208e-07
-0.00108554
-1.57993e-07
-1.15065e-06
2.69612e-07
-2.03271e-07
-8.24678e-07
2.47574e-07
-1.73532e-07
9.18588e-07
1.28236e-06
0.00108479
-3.46501e-07
-0.0010846
-1.63485e-07
-1.1869e-06
2.72291e-07
-2.05929e-07
-8.22073e-07
2.4746e-07
-1.76228e-07
9.15752e-07
5.77592e-09
7.55041e-09
0.0010843
-2.46038e-07
1.22871e-06
2.44143e-07
8.72725e-07
-2.26974e-07
2.20513e-07
-8.73554e-07
-3.41634e-07
-0.00108527
-1.63181e-07
-1.15326e-06
2.66809e-07
-2.00571e-07
-8.22085e-07
2.44685e-07
9.15768e-07
-1.7356e-07
1.28233e-06
0.00108457
-3.41114e-07
-0.0010844
-1.63553e-07
-1.18419e-06
2.72255e-07
-2.03134e-07
-8.22023e-07
2.47369e-07
-1.76248e-07
9.15669e-07
-2.1291e-07
-2.17775e-07
0.000264673