/*--------------------------------*- C++ -*----------------------------------*\
| =========                 |                                                 |
| \\      /  F ield         | OpenFOAM: The Open Source CFD Toolbox           |
|  \\    /   O peration     | Version:  2206                                  |
|   \\  /    A nd           | Website:  www.openfoam.com                      |
|    \\/     M anipulation  |                                                 |
\*---------------------------------------------------------------------------*/
FoamFile
{
    version     2.0;
    format      ascii;
    arch        "LSB;label=32;scalar=64";
    class       volScalarField;
    location    "39.5";
    object      epsilon;
}
// * * * * * * * * * * * * * * * * * * * * * * * * * * * * * * * * * * * * * //

dimensions      [0 2 -3 0 0 0 0];

internalField   nonuniform List<scalar> 
28687
(
2.34084e-07
2.64147e-07
2.64158e-07
2.99433e-07
2.34084e-07
2.64153e-07
2.64163e-07
2.99462e-07
2.34086e-07
2.64158e-07
2.64167e-07
2.99472e-07
2.34087e-07
2.64163e-07
2.64171e-07
2.99479e-07
2.34088e-07
2.64167e-07
2.64176e-07
2.99491e-07
2.34089e-07
2.64171e-07
2.6418e-07
2.99498e-07
2.34087e-07
2.64174e-07
2.64183e-07
2.99504e-07
2.34085e-07
2.64176e-07
2.64185e-07
2.9951e-07
2.34083e-07
2.64175e-07
2.64186e-07
2.99514e-07
2.34041e-07
2.64108e-07
2.64129e-07
2.99466e-07
2.33989e-07
2.64061e-07
2.64073e-07
2.99373e-07
2.33987e-07
2.6406e-07
2.64071e-07
2.9938e-07
2.33986e-07
2.6406e-07
2.6407e-07
2.99378e-07
2.33986e-07
2.6406e-07
2.6407e-07
2.99379e-07
2.33986e-07
2.6406e-07
2.6407e-07
2.99379e-07
2.33986e-07
2.6406e-07
2.6407e-07
2.99377e-07
2.33986e-07
2.6406e-07
2.6407e-07
2.99378e-07
2.33986e-07
2.6406e-07
2.6407e-07
2.99381e-07
2.64176e-07
2.99133e-07
2.64145e-07
2.99424e-07
2.99174e-07
2.64172e-07
2.64178e-07
2.64176e-07
2.64182e-07
2.99425e-07
2.9916e-07
2.64155e-07
2.64184e-07
2.64159e-07
2.64188e-07
2.64175e-07
2.64152e-07
2.64179e-07
2.99431e-07
2.99181e-07
2.64153e-07
2.64162e-07
2.64158e-07
2.99182e-07
2.99456e-07
2.99179e-07
2.64178e-07
2.64185e-07
2.6418e-07
2.64188e-07
2.99443e-07
2.99174e-07
2.64161e-07
2.6419e-07
2.64163e-07
2.64192e-07
2.64181e-07
2.64157e-07
2.64183e-07
2.99463e-07
2.99186e-07
2.6416e-07
2.64166e-07
2.64162e-07
2.99188e-07
2.99465e-07
2.99189e-07
2.64182e-07
2.64191e-07
2.64185e-07
2.64192e-07
2.99461e-07
2.99182e-07
2.64166e-07
2.64195e-07
2.64168e-07
2.64196e-07
2.64186e-07
2.64162e-07
2.64187e-07
2.99471e-07
2.99195e-07
2.64165e-07
2.6417e-07
2.64166e-07
2.99197e-07
2.99474e-07
2.99199e-07
2.64188e-07
2.64195e-07
2.64191e-07
2.64196e-07
2.99468e-07
2.99191e-07
2.64171e-07
2.64199e-07
2.64173e-07
2.64201e-07
2.6419e-07
2.64166e-07
2.64192e-07
2.99479e-07
2.99205e-07
2.64169e-07
2.64175e-07
2.6417e-07
2.99208e-07
2.99485e-07
2.99206e-07
2.64194e-07
2.64198e-07
2.64196e-07
2.64198e-07
2.99478e-07
2.99198e-07
2.64176e-07
2.64203e-07
2.64177e-07
2.64205e-07
2.64194e-07
2.64171e-07
2.64196e-07
2.9949e-07
2.99212e-07
2.64173e-07
2.64179e-07
2.64174e-07
2.99214e-07
2.99492e-07
2.99215e-07
2.64199e-07
2.64201e-07
2.64201e-07
2.64201e-07
2.99484e-07
2.99205e-07
2.6418e-07
2.64208e-07
2.64181e-07
2.64208e-07
2.64198e-07
2.64174e-07
2.64199e-07
2.99497e-07
2.99221e-07
2.64177e-07
2.64183e-07
2.64178e-07
2.99221e-07
2.99501e-07
2.99222e-07
2.64203e-07
2.64204e-07
2.64203e-07
2.64205e-07
2.99491e-07
2.99212e-07
2.64183e-07
2.64211e-07
2.64183e-07
2.6421e-07
2.64201e-07
2.64176e-07
2.64201e-07
2.99506e-07
2.99227e-07
2.6418e-07
2.64185e-07
2.64179e-07
2.99227e-07
2.99508e-07
2.99226e-07
2.64205e-07
2.64207e-07
2.64204e-07
2.64207e-07
2.99497e-07
2.99215e-07
2.64185e-07
2.64212e-07
2.64184e-07
2.64212e-07
2.64203e-07
2.64177e-07
2.64203e-07
2.99511e-07
2.99231e-07
2.64182e-07
2.64187e-07
2.64181e-07
2.99232e-07
2.99511e-07
2.99189e-07
2.64202e-07
2.64205e-07
2.64167e-07
2.6416e-07
2.99498e-07
2.99161e-07
2.64183e-07
2.64211e-07
2.6415e-07
2.64179e-07
2.64202e-07
2.64132e-07
2.64169e-07
2.99515e-07
2.99195e-07
2.64181e-07
2.64153e-07
2.64147e-07
2.99195e-07
2.99463e-07
2.9909e-07
2.64144e-07
2.64137e-07
2.64093e-07
2.64095e-07
2.99433e-07
2.9907e-07
2.64127e-07
2.64156e-07
2.64076e-07
2.64105e-07
2.64146e-07
2.64064e-07
2.64096e-07
2.99468e-07
2.99096e-07
2.64125e-07
2.64079e-07
2.64074e-07
2.99097e-07
2.99369e-07
2.99086e-07
2.64088e-07
2.64093e-07
2.64085e-07
2.64091e-07
2.99352e-07
2.99078e-07
2.64071e-07
2.641e-07
2.64068e-07
2.64098e-07
2.64091e-07
2.6406e-07
2.64089e-07
2.99374e-07
2.99093e-07
2.6407e-07
2.64071e-07
2.64068e-07
2.99095e-07
2.99374e-07
2.99089e-07
2.64087e-07
2.64093e-07
2.64084e-07
2.6409e-07
2.99365e-07
2.99076e-07
2.64069e-07
2.64099e-07
2.64067e-07
2.64097e-07
2.64091e-07
2.6406e-07
2.64088e-07
2.99379e-07
2.99095e-07
2.64071e-07
2.64071e-07
2.64069e-07
2.99097e-07
2.99372e-07
2.99087e-07
2.64085e-07
2.64091e-07
2.64083e-07
2.6409e-07
2.9936e-07
2.99077e-07
2.64068e-07
2.64098e-07
2.64066e-07
2.64096e-07
2.64089e-07
2.6406e-07
2.64088e-07
2.99377e-07
2.99094e-07
2.64071e-07
2.6407e-07
2.6407e-07
2.99097e-07
2.99372e-07
2.99086e-07
2.64084e-07
2.64092e-07
2.64083e-07
2.6409e-07
2.99363e-07
2.99077e-07
2.64067e-07
2.64098e-07
2.64066e-07
2.64096e-07
2.64089e-07
2.6406e-07
2.64088e-07
2.99378e-07
2.99093e-07
2.64071e-07
2.6407e-07
2.6407e-07
2.99096e-07
2.99372e-07
2.99085e-07
2.64084e-07
2.64091e-07
2.64082e-07
2.6409e-07
2.99363e-07
2.99075e-07
2.64067e-07
2.64098e-07
2.64066e-07
2.64096e-07
2.64089e-07
2.6406e-07
2.64088e-07
2.99378e-07
2.99093e-07
2.64071e-07
2.6407e-07
2.6407e-07
2.99095e-07
2.9937e-07
2.99087e-07
2.64083e-07
2.64091e-07
2.64082e-07
2.6409e-07
2.99361e-07
2.99077e-07
2.64068e-07
2.64097e-07
2.64066e-07
2.64096e-07
2.64089e-07
2.6406e-07
2.64088e-07
2.99376e-07
2.99095e-07
2.64071e-07
2.6407e-07
2.6407e-07
2.99097e-07
2.99371e-07
2.99088e-07
2.64083e-07
2.64092e-07
2.64082e-07
2.6409e-07
2.9936e-07
2.99079e-07
2.64067e-07
2.64098e-07
2.64066e-07
2.64096e-07
2.64089e-07
2.6406e-07
2.64088e-07
2.99377e-07
2.99096e-07
2.64071e-07
2.6407e-07
2.6407e-07
2.99099e-07
2.99373e-07
2.64083e-07
2.64091e-07
2.99363e-07
2.64067e-07
2.64097e-07
2.64089e-07
2.9938e-07
2.64071e-07
1.85555e-06
8.82266e-06
1.85602e-06
8.82221e-06
2.06237e-05
2.06235e-05
1.8555e-06
8.824e-06
1.85592e-06
8.82352e-06
2.34086e-07
2.34088e-07
2.34086e-07
2.34084e-07
2.34086e-07
2.34088e-07
2.34086e-07
5.30033e-07
1.49451e-06
2.44523e-07
2.64149e-07
5.30194e-07
1.49368e-06
2.44523e-07
2.06242e-05
2.06238e-05
5.30043e-07
2.44524e-07
1.49442e-06
2.6416e-07
5.30204e-07
2.44525e-07
1.49365e-06
3.39441e-06
3.39549e-06
2.9918e-07
3.39379e-06
3.3949e-06
1.85575e-06
8.82234e-06
1.85632e-06
8.82194e-06
2.06224e-05
2.06225e-05
1.85571e-06
8.82366e-06
1.85622e-06
8.82323e-06
2.34088e-07
2.3409e-07
2.34088e-07
2.34086e-07
2.34087e-07
2.34089e-07
2.34087e-07
5.30083e-07
1.49473e-06
2.44523e-07
2.64155e-07
5.30256e-07
1.49385e-06
2.44525e-07
2.06227e-05
2.06228e-05
5.30094e-07
2.44524e-07
1.49465e-06
2.64165e-07
5.30267e-07
2.44525e-07
1.49381e-06
3.3945e-06
3.39558e-06
2.99183e-07
3.39398e-06
3.39506e-06
1.85586e-06
8.82219e-06
1.85644e-06
8.82187e-06
2.06219e-05
2.06222e-05
1.85581e-06
8.82347e-06
1.85635e-06
8.8231e-06
2.34088e-07
2.3409e-07
2.34088e-07
2.34087e-07
2.34087e-07
2.3409e-07
2.34087e-07
5.30119e-07
1.49484e-06
2.44526e-07
2.64161e-07
5.30294e-07
1.49393e-06
2.44528e-07
2.06221e-05
2.06224e-05
5.30132e-07
2.44526e-07
1.49476e-06
2.6417e-07
5.30306e-07
2.44528e-07
1.49391e-06
3.39472e-06
3.39578e-06
2.99195e-07
3.39419e-06
3.39527e-06
1.85592e-06
8.82224e-06
1.85652e-06
8.82196e-06
2.06218e-05
2.06223e-05
1.85587e-06
8.82344e-06
1.85642e-06
8.82311e-06
2.3409e-07
2.34092e-07
2.3409e-07
2.34088e-07
2.34088e-07
2.34091e-07
2.34089e-07
5.30148e-07
1.49488e-06
2.44528e-07
2.64165e-07
5.30326e-07
1.49396e-06
2.4453e-07
2.06219e-05
2.06223e-05
5.30159e-07
2.44527e-07
1.49484e-06
2.64174e-07
5.30337e-07
2.4453e-07
1.49397e-06
3.39489e-06
3.39596e-06
2.992e-07
3.39433e-06
3.39541e-06
1.85595e-06
8.82232e-06
1.85656e-06
8.82205e-06
2.0622e-05
2.06226e-05
1.8559e-06
8.82349e-06
1.85646e-06
8.82318e-06
2.3409e-07
2.34092e-07
2.3409e-07
2.3409e-07
2.34089e-07
2.34092e-07
2.34089e-07
5.30169e-07
1.49491e-06
2.4453e-07
2.6417e-07
5.30351e-07
1.49399e-06
2.44532e-07
2.0622e-05
2.06224e-05
5.30179e-07
2.44529e-07
1.49487e-06
2.64178e-07
5.30361e-07
2.44531e-07
1.494e-06
3.39495e-06
3.39602e-06
2.9921e-07
3.39435e-06
3.39544e-06
1.85595e-06
8.82241e-06
1.85657e-06
8.82212e-06
2.06224e-05
2.06222e-05
1.85589e-06
8.82358e-06
1.85646e-06
8.82327e-06
2.3409e-07
2.34092e-07
2.3409e-07
2.34087e-07
2.34088e-07
2.3409e-07
2.3409e-07
5.30179e-07
1.49493e-06
2.44531e-07
2.64174e-07
5.30364e-07
1.49401e-06
2.44533e-07
2.06222e-05
2.06227e-05
5.30186e-07
2.44531e-07
1.49489e-06
2.64182e-07
5.30372e-07
2.44533e-07
1.49401e-06
3.39496e-06
3.39604e-06
2.99219e-07
3.39437e-06
3.39546e-06
1.85592e-06
8.82242e-06
1.85655e-06
8.82214e-06
2.0622e-05
2.06231e-05
1.85586e-06
8.82369e-06
1.85644e-06
8.82338e-06
2.34088e-07
2.3409e-07
2.34092e-07
2.34085e-07
2.34085e-07
2.34088e-07
2.34087e-07
5.30183e-07
1.49493e-06
2.44531e-07
2.64176e-07
5.30369e-07
1.494e-06
2.44532e-07
2.06227e-05
2.06233e-05
5.3019e-07
2.44531e-07
1.4949e-06
2.64185e-07
5.30376e-07
2.44533e-07
1.49401e-06
3.39498e-06
3.39606e-06
2.99225e-07
3.39437e-06
3.39546e-06
1.85592e-06
8.82261e-06
1.85654e-06
8.82247e-06
2.06231e-05
2.06233e-05
1.85585e-06
8.82386e-06
1.85642e-06
8.82363e-06
2.34085e-07
2.34088e-07
2.34086e-07
2.34084e-07
2.34083e-07
2.34086e-07
2.34083e-07
5.30186e-07
1.49495e-06
2.4453e-07
2.64178e-07
5.30375e-07
1.49405e-06
2.44531e-07
2.06233e-05
2.06236e-05
5.30194e-07
2.44532e-07
1.4949e-06
2.64187e-07
5.30382e-07
2.44533e-07
1.49403e-06
3.39494e-06
3.39602e-06
2.9923e-07
3.39438e-06
3.39547e-06
1.85606e-06
8.82295e-06
1.85667e-06
8.82263e-06
2.06223e-05
2.0622e-05
1.856e-06
8.82407e-06
1.85656e-06
8.82385e-06
2.34082e-07
2.34086e-07
2.34083e-07
2.34062e-07
2.34056e-07
2.34066e-07
2.34064e-07
5.30172e-07
1.49504e-06
2.44528e-07
2.64169e-07
5.30377e-07
1.49409e-06
2.44525e-07
2.06229e-05
2.06229e-05
5.30183e-07
2.44531e-07
1.49498e-06
2.64182e-07
5.30387e-07
2.44529e-07
1.4941e-06
3.3951e-06
3.39618e-06
2.99225e-07
3.39451e-06
3.3956e-06
1.85585e-06
8.82269e-06
1.85657e-06
8.82219e-06
2.06214e-05
2.06216e-05
1.8558e-06
8.82414e-06
1.85646e-06
8.8238e-06
2.34034e-07
2.34044e-07
2.34042e-07
2.33995e-07
2.33992e-07
2.33998e-07
2.33996e-07
5.3005e-07
1.49492e-06
2.44478e-07
2.6409e-07
5.30285e-07
1.49391e-06
2.4446e-07
2.06221e-05
2.06223e-05
5.30063e-07
2.44484e-07
1.49491e-06
2.64109e-07
5.30298e-07
2.44466e-07
1.49395e-06
3.39504e-06
3.39612e-06
2.99143e-07
3.39437e-06
3.39546e-06
1.85572e-06
8.82233e-06
1.85637e-06
8.82192e-06
2.06212e-05
2.06216e-05
1.85566e-06
8.82409e-06
1.85626e-06
8.82377e-06
2.3399e-07
2.33995e-07
2.33992e-07
2.33987e-07
2.33988e-07
2.33992e-07
2.3399e-07
5.29993e-07
1.49477e-06
2.44428e-07
2.64061e-07
5.30193e-07
1.49382e-06
2.44428e-07
2.06218e-05
2.06221e-05
5.30005e-07
2.44431e-07
1.49475e-06
2.64073e-07
5.30206e-07
2.44431e-07
1.49384e-06
3.39487e-06
3.39595e-06
2.99086e-07
3.39424e-06
3.39533e-06
1.85569e-06
8.82218e-06
1.85632e-06
8.8218e-06
2.06213e-05
2.06216e-05
1.85564e-06
8.82411e-06
1.85621e-06
8.82381e-06
2.33989e-07
2.33993e-07
2.33991e-07
2.33987e-07
2.33988e-07
2.33992e-07
2.33989e-07
5.29988e-07
1.49473e-06
2.44427e-07
2.64061e-07
5.30175e-07
1.4938e-06
2.44429e-07
2.06218e-05
2.06221e-05
5.29998e-07
2.4443e-07
1.49471e-06
2.64072e-07
5.30187e-07
2.44431e-07
1.49382e-06
3.39481e-06
3.39589e-06
2.99101e-07
3.39421e-06
3.3953e-06
1.85569e-06
8.8221e-06
1.85631e-06
8.82175e-06
2.06213e-05
2.06217e-05
1.85564e-06
8.82415e-06
1.8562e-06
8.82385e-06
2.33989e-07
2.33993e-07
2.33991e-07
2.33986e-07
2.33988e-07
2.33992e-07
2.3399e-07
5.29985e-07
1.49473e-06
2.44426e-07
2.64061e-07
5.30174e-07
1.4938e-06
2.44427e-07
2.06218e-05
2.06221e-05
5.29996e-07
2.44429e-07
1.4947e-06
2.64072e-07
5.30185e-07
2.4443e-07
1.49382e-06
3.39481e-06
3.39588e-06
2.99095e-07
3.39421e-06
3.3953e-06
1.85569e-06
8.82206e-06
1.85631e-06
8.82171e-06
2.06213e-05
2.06217e-05
1.85564e-06
8.82418e-06
1.8562e-06
8.82387e-06
2.33989e-07
2.33993e-07
2.33991e-07
2.33986e-07
2.33988e-07
2.33992e-07
2.3399e-07
5.29985e-07
1.49473e-06
2.44426e-07
2.64061e-07
5.30173e-07
1.4938e-06
2.44428e-07
2.06218e-05
2.06221e-05
5.29997e-07
2.44429e-07
1.4947e-06
2.64072e-07
5.30184e-07
2.4443e-07
1.49382e-06
3.39481e-06
3.39588e-06
2.99097e-07
3.39421e-06
3.3953e-06
1.85569e-06
8.82203e-06
1.85631e-06
8.82168e-06
2.06214e-05
2.06218e-05
1.85564e-06
8.8242e-06
1.8562e-06
8.82389e-06
2.33989e-07
2.33993e-07
2.33991e-07
2.33986e-07
2.33988e-07
2.33992e-07
2.3399e-07
5.29985e-07
1.49473e-06
2.44426e-07
2.64061e-07
5.30173e-07
1.4938e-06
2.44428e-07
2.06218e-05
2.06221e-05
5.29998e-07
2.44429e-07
1.4947e-06
2.64072e-07
5.30186e-07
2.4443e-07
1.49382e-06
3.39481e-06
3.39588e-06
2.99098e-07
3.39421e-06
3.3953e-06
1.85569e-06
8.82201e-06
1.85631e-06
8.82166e-06
2.06214e-05
2.06218e-05
1.85564e-06
8.82421e-06
1.8562e-06
8.82389e-06
2.33989e-07
2.33993e-07
2.33991e-07
2.33986e-07
2.33988e-07
2.33992e-07
2.3399e-07
5.29986e-07
1.49473e-06
2.44426e-07
2.64061e-07
5.30173e-07
1.4938e-06
2.44428e-07
2.06218e-05
2.06221e-05
5.29999e-07
2.44429e-07
1.4947e-06
2.64072e-07
5.30186e-07
2.4443e-07
1.49382e-06
3.39481e-06
3.39588e-06
2.99097e-07
3.39421e-06
3.3953e-06
1.85569e-06
8.82199e-06
1.85631e-06
8.82165e-06
2.06214e-05
2.06218e-05
1.85564e-06
8.82421e-06
1.8562e-06
8.8239e-06
2.33989e-07
2.33993e-07
2.33991e-07
2.33986e-07
2.33988e-07
2.33992e-07
2.3399e-07
5.29986e-07
1.49473e-06
2.44426e-07
2.64061e-07
5.30173e-07
1.4938e-06
2.44428e-07
2.06218e-05
2.06221e-05
5.29999e-07
2.44429e-07
1.4947e-06
2.64072e-07
5.30187e-07
2.4443e-07
1.49382e-06
3.39481e-06
3.39589e-06
2.99094e-07
3.39421e-06
3.3953e-06
1.85569e-06
8.82198e-06
1.85631e-06
8.82165e-06
2.06214e-05
2.06218e-05
1.85563e-06
8.82422e-06
1.8562e-06
8.82391e-06
2.33988e-07
2.33992e-07
2.3399e-07
5.29985e-07
1.49473e-06
2.44426e-07
2.64061e-07
5.30174e-07
1.4938e-06
2.44428e-07
2.06218e-05
2.06218e-05
5.3e-07
2.44429e-07
1.4947e-06
2.64072e-07
5.30188e-07
2.44431e-07
1.49381e-06
3.39481e-06
3.39589e-06
2.99094e-07
3.39421e-06
3.39553e-06
8.82337e-06
1.49371e-06
2.06244e-05
3.39454e-06
3.39334e-06
2.06218e-05
1.49354e-06
8.82272e-06
2.06234e-05
2.0623e-05
2.06248e-05
2.06246e-05
3.3943e-06
3.39544e-06
2.99171e-07
3.39368e-06
3.39486e-06
2.06223e-05
2.06226e-05
2.06239e-05
2.0624e-05
2.99459e-07
3.39375e-06
3.39492e-06
3.39424e-06
3.39542e-06
1.85558e-06
8.82366e-06
1.85605e-06
8.8232e-06
5.30025e-07
1.49436e-06
2.44522e-07
2.64173e-07
5.30187e-07
1.49357e-06
2.44522e-07
5.30031e-07
1.49464e-06
2.44524e-07
2.64179e-07
5.30193e-07
1.49384e-06
2.44525e-07
1.85619e-06
8.82206e-06
8.8225e-06
1.85567e-06
1.85622e-06
8.82306e-06
8.82349e-06
1.8557e-06
5.30225e-07
2.64174e-07
1.49367e-06
2.44523e-07
1.49448e-06
2.44522e-07
5.30055e-07
5.30231e-07
2.6418e-07
1.49393e-06
2.44525e-07
1.49476e-06
2.44525e-07
5.30061e-07
3.39514e-06
3.39414e-06
2.9916e-07
3.3947e-06
3.39382e-06
2.06214e-05
2.06212e-05
2.06229e-05
2.06231e-05
2.99449e-07
3.39485e-06
3.39405e-06
3.3953e-06
3.39454e-06
2.06207e-05
2.06208e-05
5.30051e-07
1.4948e-06
2.44523e-07
2.64156e-07
5.3021e-07
1.49399e-06
2.44524e-07
1.85548e-06
8.82356e-06
1.8559e-06
8.82308e-06
5.30044e-07
2.44527e-07
1.49477e-06
2.64185e-07
5.30204e-07
2.44527e-07
1.49395e-06
1.85609e-06
8.82336e-06
8.82382e-06
1.85563e-06
5.30248e-07
2.64157e-07
1.49408e-06
2.44525e-07
1.49493e-06
2.44524e-07
5.30082e-07
1.85607e-06
8.82291e-06
8.82338e-06
1.8556e-06
5.30242e-07
2.64187e-07
2.44528e-07
1.49405e-06
2.44528e-07
1.4949e-06
5.30075e-07
1.8556e-06
8.82304e-06
1.85607e-06
8.82257e-06
5.30038e-07
2.44524e-07
1.49443e-06
2.64176e-07
5.30198e-07
2.44524e-07
1.49365e-06
1.85559e-06
8.82365e-06
1.85606e-06
8.82319e-06
5.30231e-07
2.64151e-07
1.49378e-06
2.44523e-07
1.49463e-06
2.44523e-07
5.30063e-07
1.85624e-06
8.82244e-06
8.82289e-06
1.85572e-06
5.30235e-07
2.64178e-07
2.44524e-07
1.49375e-06
2.44524e-07
1.49456e-06
5.30068e-07
1.85623e-06
8.82304e-06
8.82348e-06
1.85571e-06
3.39512e-06
3.39435e-06
2.99178e-07
3.3945e-06
3.39379e-06
2.06244e-05
2.0624e-05
2.06232e-05
2.06234e-05
2.99467e-07
3.39474e-06
3.39385e-06
3.39521e-06
3.39435e-06
2.06233e-05
2.06236e-05
5.3004e-07
2.44523e-07
1.49463e-06
2.64155e-07
5.30201e-07
2.44523e-07
1.49385e-06
1.85549e-06
8.82378e-06
1.85591e-06
8.82333e-06
1.85549e-06
8.82451e-06
1.85591e-06
8.82405e-06
5.30242e-07
2.64161e-07
2.44525e-07
1.49374e-06
2.44525e-07
1.49455e-06
5.30073e-07
5.30239e-07
2.64156e-07
2.44523e-07
1.49394e-06
2.44523e-07
1.49476e-06
5.30071e-07
1.85608e-06
8.82317e-06
8.82361e-06
1.85561e-06
1.85608e-06
8.8239e-06
8.82434e-06
1.85562e-06
2.06246e-05
2.06242e-05
2.06251e-05
2.06247e-05
2.99469e-07
3.39388e-06
3.39497e-06
3.39437e-06
3.39546e-06
2.06235e-05
2.06237e-05
2.0624e-05
2.06243e-05
2.06219e-05
2.06218e-05
2.06234e-05
2.06234e-05
3.39433e-06
3.39549e-06
2.99174e-07
3.39385e-06
3.39501e-06
2.06215e-05
2.06215e-05
2.06231e-05
2.0623e-05
2.99461e-07
3.39396e-06
3.39511e-06
3.39443e-06
3.39559e-06
1.85578e-06
8.82336e-06
1.85633e-06
8.82296e-06
5.30075e-07
1.49457e-06
2.44524e-07
2.64179e-07
5.30252e-07
1.49374e-06
2.44524e-07
5.30082e-07
1.49484e-06
2.44527e-07
2.64186e-07
5.30258e-07
1.494e-06
2.44527e-07
1.85638e-06
8.82188e-06
8.82224e-06
1.85581e-06
1.85641e-06
8.8229e-06
8.82326e-06
1.85584e-06
5.30271e-07
2.64178e-07
1.49378e-06
2.44524e-07
1.49464e-06
2.44524e-07
5.30095e-07
5.30278e-07
2.64187e-07
1.49405e-06
2.44527e-07
1.4949e-06
2.44526e-07
5.30102e-07
3.39545e-06
3.39473e-06
2.99164e-07
3.39499e-06
3.39415e-06
2.06203e-05
2.06204e-05
2.06223e-05
2.06222e-05
2.99453e-07
3.39511e-06
3.39417e-06
3.39559e-06
3.3948e-06
2.06201e-05
2.062e-05
5.30103e-07
1.49502e-06
2.44526e-07
2.64162e-07
5.30276e-07
1.49415e-06
2.44526e-07
1.85568e-06
8.82323e-06
1.85618e-06
8.82279e-06
5.30096e-07
2.4453e-07
1.49499e-06
2.6419e-07
5.3027e-07
2.44529e-07
1.49412e-06
1.85628e-06
8.82314e-06
8.82355e-06
1.85577e-06
5.30296e-07
2.64162e-07
1.4942e-06
2.44526e-07
1.49508e-06
2.44525e-07
5.30123e-07
1.85626e-06
8.82271e-06
8.82311e-06
1.85574e-06
5.3029e-07
2.64191e-07
2.44529e-07
1.49417e-06
2.44529e-07
1.49506e-06
5.30115e-07
1.8558e-06
8.82276e-06
1.85635e-06
8.82234e-06
5.30088e-07
2.44526e-07
1.49465e-06
2.64182e-07
5.30262e-07
2.44526e-07
1.49382e-06
1.8558e-06
8.82333e-06
1.85635e-06
8.82292e-06
5.30277e-07
2.64156e-07
1.4939e-06
2.44525e-07
1.49478e-06
2.44525e-07
5.30102e-07
1.85643e-06
8.82228e-06
8.82267e-06
1.85586e-06
5.30282e-07
2.64182e-07
2.44526e-07
1.49387e-06
2.44525e-07
1.49471e-06
5.30107e-07
1.85642e-06
8.82284e-06
8.82322e-06
1.85586e-06
3.39542e-06
3.39443e-06
2.99181e-07
3.3949e-06
3.39395e-06
2.06229e-05
2.06228e-05
2.06225e-05
2.06224e-05
2.99466e-07
3.39502e-06
3.39405e-06
3.39557e-06
3.39453e-06
2.06225e-05
2.06225e-05
5.30092e-07
2.44525e-07
1.49485e-06
2.6416e-07
5.30267e-07
2.44525e-07
1.49401e-06
1.85569e-06
8.82347e-06
1.85619e-06
8.82305e-06
1.8557e-06
8.82419e-06
1.8562e-06
8.82378e-06
5.30289e-07
2.64165e-07
2.44526e-07
1.49386e-06
2.44525e-07
1.4947e-06
5.30114e-07
5.30287e-07
2.64161e-07
2.44525e-07
1.49407e-06
2.44524e-07
1.49492e-06
5.30112e-07
1.85626e-06
8.82297e-06
8.82335e-06
1.85575e-06
1.85627e-06
8.8237e-06
8.82408e-06
1.85576e-06
2.06231e-05
2.0623e-05
2.06236e-05
2.06235e-05
2.99469e-07
3.39409e-06
3.39517e-06
3.39457e-06
3.39564e-06
2.06227e-05
2.06226e-05
2.06232e-05
2.06232e-05
2.06212e-05
2.06214e-05
2.06227e-05
2.0623e-05
3.39453e-06
3.39569e-06
2.99186e-07
3.39406e-06
3.3952e-06
2.06213e-05
2.06211e-05
2.06229e-05
2.06226e-05
2.99472e-07
3.39416e-06
3.39528e-06
3.39464e-06
3.39578e-06
1.85589e-06
8.82322e-06
1.85646e-06
8.82289e-06
5.30113e-07
1.49468e-06
2.44527e-07
2.64183e-07
5.30291e-07
1.49382e-06
2.44527e-07
5.3012e-07
1.49495e-06
2.44529e-07
2.64191e-07
5.30298e-07
1.49409e-06
2.44529e-07
1.85647e-06
8.82191e-06
8.82221e-06
1.85589e-06
1.8565e-06
8.82292e-06
8.82322e-06
1.85592e-06
5.30308e-07
2.64184e-07
1.49386e-06
2.44527e-07
1.49472e-06
2.44526e-07
5.30129e-07
5.30315e-07
2.64192e-07
1.49413e-06
2.44529e-07
1.49499e-06
2.44529e-07
5.30136e-07
3.3957e-06
3.39481e-06
2.99179e-07
3.39521e-06
3.39414e-06
2.06198e-05
2.06199e-05
2.06221e-05
2.06219e-05
2.99465e-07
3.39531e-06
3.3941e-06
3.39581e-06
3.39477e-06
2.06198e-05
2.06196e-05
5.30141e-07
1.49513e-06
2.44528e-07
2.64166e-07
5.30316e-07
1.49425e-06
2.44529e-07
1.85579e-06
8.82306e-06
1.85631e-06
8.82271e-06
5.30134e-07
2.44532e-07
1.49511e-06
2.64195e-07
5.30309e-07
2.44532e-07
1.49422e-06
1.85638e-06
8.8231e-06
8.82344e-06
1.85585e-06
5.30333e-07
2.64167e-07
1.49428e-06
2.44528e-07
1.49517e-06
2.44528e-07
5.30156e-07
1.85635e-06
8.82274e-06
8.82306e-06
1.85583e-06
5.30327e-07
2.64195e-07
2.44532e-07
1.49425e-06
2.44531e-07
1.49515e-06
5.30149e-07
1.85591e-06
8.82262e-06
1.85648e-06
8.82226e-06
5.30125e-07
2.44528e-07
1.49476e-06
2.64186e-07
5.30301e-07
2.44529e-07
1.49391e-06
1.8559e-06
8.82315e-06
1.85647e-06
8.8228e-06
5.30313e-07
2.64161e-07
1.49395e-06
2.44528e-07
1.49485e-06
2.44528e-07
5.30135e-07
1.85652e-06
8.82226e-06
8.82261e-06
1.85594e-06
5.30318e-07
2.64187e-07
2.44528e-07
1.49395e-06
2.44528e-07
1.49481e-06
5.30141e-07
1.85652e-06
8.82281e-06
8.82313e-06
1.85594e-06
3.39568e-06
3.39463e-06
2.99193e-07
3.39511e-06
3.39415e-06
2.06222e-05
2.06223e-05
2.06223e-05
2.06221e-05
2.99478e-07
3.39518e-06
3.39423e-06
3.39577e-06
3.39472e-06
2.06223e-05
2.06221e-05
5.3013e-07
2.44527e-07
1.49497e-06
2.64165e-07
5.30307e-07
2.44528e-07
1.49411e-06
1.8558e-06
8.82328e-06
1.85632e-06
8.82293e-06
1.85581e-06
8.82401e-06
1.85633e-06
8.82366e-06
5.30326e-07
2.6417e-07
2.44527e-07
1.49394e-06
2.44527e-07
1.49479e-06
5.30146e-07
5.30324e-07
2.64165e-07
2.44527e-07
1.49415e-06
2.44527e-07
1.49501e-06
5.30145e-07
1.85636e-06
8.82293e-06
8.82326e-06
1.85583e-06
1.85637e-06
8.82366e-06
8.82399e-06
1.85584e-06
2.06223e-05
2.06225e-05
2.06229e-05
2.0623e-05
2.9948e-07
3.39428e-06
3.39535e-06
3.39477e-06
3.39584e-06
2.06224e-05
2.06222e-05
2.0623e-05
2.06228e-05
2.06211e-05
2.06213e-05
2.06225e-05
2.06228e-05
3.39473e-06
3.39584e-06
2.99193e-07
3.39422e-06
3.39532e-06
2.06214e-05
2.06211e-05
2.06229e-05
2.06225e-05
2.99479e-07
3.39424e-06
3.39534e-06
3.39478e-06
3.39588e-06
1.85595e-06
8.82325e-06
1.85654e-06
8.82294e-06
5.30142e-07
1.49476e-06
2.44529e-07
2.64189e-07
5.30323e-07
1.49389e-06
2.44529e-07
5.30149e-07
1.49502e-06
2.44531e-07
2.64196e-07
5.3033e-07
1.49414e-06
2.44531e-07
1.85653e-06
8.822e-06
8.82229e-06
1.85594e-06
1.85656e-06
8.82298e-06
8.82328e-06
1.85597e-06
5.30336e-07
2.6419e-07
1.4939e-06
2.44529e-07
1.49478e-06
2.44529e-07
5.30155e-07
5.30343e-07
2.64195e-07
1.49416e-06
2.44531e-07
1.49504e-06
2.44531e-07
5.30162e-07
3.39588e-06
3.39473e-06
2.99185e-07
3.39534e-06
3.39407e-06
2.06195e-05
2.06197e-05
2.06224e-05
2.0622e-05
2.99471e-07
3.39533e-06
3.3941e-06
3.39589e-06
3.39471e-06
2.06198e-05
2.06195e-05
5.30169e-07
1.4952e-06
2.4453e-07
2.64171e-07
5.30348e-07
1.4943e-06
2.44531e-07
1.85585e-06
8.8231e-06
1.85639e-06
8.82277e-06
5.30162e-07
2.44534e-07
1.49519e-06
2.64199e-07
5.30342e-07
2.44534e-07
1.49428e-06
1.85643e-06
8.82314e-06
8.82347e-06
1.85589e-06
5.3036e-07
2.64172e-07
1.49432e-06
2.4453e-07
1.49523e-06
2.4453e-07
5.30181e-07
1.85641e-06
8.8228e-06
8.82313e-06
1.85587e-06
5.30355e-07
2.642e-07
2.44534e-07
1.4943e-06
2.44533e-07
1.49521e-06
5.30175e-07
1.85597e-06
8.82261e-06
1.85655e-06
8.82227e-06
5.30154e-07
2.44531e-07
1.49484e-06
2.6419e-07
5.30333e-07
2.44531e-07
1.49398e-06
1.85596e-06
8.82314e-06
1.85655e-06
8.82282e-06
5.30341e-07
2.64166e-07
1.49398e-06
2.4453e-07
1.49488e-06
2.4453e-07
5.3016e-07
1.85658e-06
8.82231e-06
8.82263e-06
1.85598e-06
5.30346e-07
2.64191e-07
2.4453e-07
1.49399e-06
2.4453e-07
1.49486e-06
5.30166e-07
1.85657e-06
8.82285e-06
8.82316e-06
1.85598e-06
3.39583e-06
3.3948e-06
2.99199e-07
3.39522e-06
3.39429e-06
2.0622e-05
2.06223e-05
2.06223e-05
2.0622e-05
2.99484e-07
3.39524e-06
3.39431e-06
3.39586e-06
3.39485e-06
2.06223e-05
2.0622e-05
5.30158e-07
2.44529e-07
1.49504e-06
2.64169e-07
5.30339e-07
2.44529e-07
1.49417e-06
1.85586e-06
8.82327e-06
1.85639e-06
8.82295e-06
1.85587e-06
8.824e-06
1.8564e-06
8.82368e-06
5.30352e-07
2.64174e-07
2.44529e-07
1.49399e-06
2.4453e-07
1.49485e-06
5.30171e-07
5.30351e-07
2.6417e-07
2.44529e-07
1.49419e-06
2.44529e-07
1.49507e-06
5.3017e-07
1.85641e-06
8.82298e-06
8.82329e-06
1.85587e-06
1.85642e-06
8.8237e-06
8.82402e-06
1.85588e-06
2.06222e-05
2.06224e-05
2.06227e-05
2.0623e-05
2.99486e-07
3.39435e-06
3.39543e-06
3.39489e-06
3.39596e-06
2.06225e-05
2.06222e-05
2.0623e-05
2.06227e-05
2.06211e-05
2.06215e-05
2.06225e-05
2.0623e-05
3.39477e-06
3.3959e-06
2.99203e-07
3.39424e-06
3.39535e-06
2.06216e-05
2.06212e-05
2.06231e-05
2.06226e-05
2.99488e-07
3.39422e-06
3.39536e-06
3.39478e-06
3.3959e-06
1.85598e-06
8.82331e-06
1.85658e-06
8.82302e-06
5.30164e-07
1.49479e-06
2.44532e-07
2.64195e-07
5.30349e-07
1.49392e-06
2.44532e-07
5.30171e-07
1.49505e-06
2.44534e-07
2.64198e-07
5.30356e-07
1.49416e-06
2.44534e-07
1.85656e-06
8.82209e-06
8.82238e-06
1.85596e-06
1.85659e-06
8.82307e-06
8.82336e-06
1.85598e-06
5.30358e-07
2.64195e-07
1.49393e-06
2.44531e-07
1.49481e-06
2.44531e-07
5.30172e-07
5.30364e-07
2.64198e-07
1.49417e-06
2.44533e-07
1.49505e-06
2.44533e-07
5.30179e-07
3.39588e-06
3.39474e-06
2.99195e-07
3.39532e-06
3.39414e-06
2.06196e-05
2.062e-05
2.06228e-05
2.06223e-05
2.9948e-07
3.39532e-06
3.39418e-06
3.39587e-06
3.39478e-06
2.06202e-05
2.06198e-05
5.3019e-07
1.49524e-06
2.44533e-07
2.64176e-07
5.30372e-07
1.49433e-06
2.44533e-07
1.85588e-06
8.82316e-06
1.85643e-06
8.82283e-06
5.30184e-07
2.44536e-07
1.49523e-06
2.64203e-07
5.30367e-07
2.44536e-07
1.49431e-06
1.85645e-06
8.82323e-06
8.82354e-06
1.8559e-06
5.30379e-07
2.64177e-07
1.49434e-06
2.44532e-07
1.49525e-06
2.44532e-07
5.30196e-07
1.85643e-06
8.82286e-06
8.82318e-06
1.85588e-06
5.30374e-07
2.64204e-07
2.44535e-07
1.49432e-06
2.44535e-07
1.49524e-06
5.3019e-07
1.85599e-06
8.82267e-06
1.85659e-06
8.82236e-06
5.30175e-07
2.44533e-07
1.49488e-06
2.64194e-07
5.30357e-07
2.44533e-07
1.494e-06
1.85599e-06
8.82319e-06
1.85659e-06
8.82289e-06
5.3036e-07
2.6417e-07
1.494e-06
2.44531e-07
1.49491e-06
2.44532e-07
5.30175e-07
1.8566e-06
8.82242e-06
8.82272e-06
1.856e-06
5.30365e-07
2.64195e-07
2.44532e-07
1.49401e-06
2.44532e-07
1.49489e-06
5.30181e-07
1.85659e-06
8.82294e-06
8.82323e-06
1.85599e-06
3.39588e-06
3.39486e-06
2.99208e-07
3.39526e-06
3.39432e-06
2.06221e-05
2.06224e-05
2.06225e-05
2.06221e-05
2.99493e-07
3.39528e-06
3.39433e-06
3.3959e-06
3.39487e-06
2.06226e-05
2.06222e-05
5.30178e-07
2.44531e-07
1.49508e-06
2.64173e-07
5.30363e-07
2.44531e-07
1.4942e-06
1.85588e-06
8.82332e-06
1.85643e-06
8.82302e-06
1.85589e-06
8.82404e-06
1.85644e-06
8.82374e-06
5.3037e-07
2.64178e-07
2.44531e-07
1.494e-06
2.44531e-07
1.49487e-06
5.30184e-07
5.3037e-07
2.64174e-07
2.44531e-07
1.49421e-06
2.44531e-07
1.49509e-06
5.30184e-07
1.85643e-06
8.82307e-06
8.82336e-06
1.85588e-06
1.85644e-06
8.82379e-06
8.82408e-06
1.85589e-06
2.06222e-05
2.06226e-05
2.06228e-05
2.06231e-05
2.99495e-07
3.39436e-06
3.39545e-06
3.39491e-06
3.39599e-06
2.06227e-05
2.06223e-05
2.06233e-05
2.06229e-05
2.06214e-05
2.06218e-05
2.06228e-05
2.06234e-05
3.39477e-06
3.39592e-06
2.99211e-07
3.39422e-06
3.39538e-06
2.06221e-05
2.06216e-05
2.06236e-05
2.06231e-05
2.99497e-07
3.39423e-06
3.39539e-06
3.39477e-06
3.39593e-06
1.85597e-06
8.82341e-06
1.85659e-06
8.82295e-06
5.30177e-07
1.49482e-06
2.44534e-07
2.64199e-07
5.30365e-07
1.49393e-06
2.44534e-07
5.30184e-07
1.49506e-06
2.44536e-07
2.64201e-07
5.30371e-07
1.4942e-06
2.44536e-07
1.85655e-06
8.82212e-06
8.82245e-06
1.85594e-06
1.85658e-06
8.82289e-06
8.8233e-06
1.85597e-06
5.30369e-07
2.642e-07
1.49393e-06
2.44533e-07
1.49482e-06
2.44533e-07
5.3018e-07
5.30376e-07
2.64201e-07
1.49426e-06
2.44534e-07
1.49514e-06
2.44534e-07
5.30187e-07
3.39587e-06
3.39482e-06
2.99203e-07
3.39539e-06
3.3942e-06
2.062e-05
2.06204e-05
2.06222e-05
2.06221e-05
2.99488e-07
3.39548e-06
3.3942e-06
3.39603e-06
3.39483e-06
2.06206e-05
2.06202e-05
5.302e-07
1.49525e-06
2.44535e-07
2.6418e-07
5.30385e-07
1.49434e-06
2.44535e-07
1.85586e-06
8.82322e-06
1.85643e-06
8.82289e-06
5.30193e-07
2.44538e-07
1.49524e-06
2.64208e-07
5.3038e-07
2.44538e-07
1.49432e-06
1.85643e-06
8.82333e-06
8.82364e-06
1.85588e-06
5.30388e-07
2.6418e-07
1.49435e-06
2.44534e-07
1.49526e-06
2.44534e-07
5.30202e-07
1.85641e-06
8.82295e-06
8.82325e-06
1.85586e-06
5.30383e-07
2.64208e-07
2.44536e-07
1.49433e-06
2.44537e-07
1.49525e-06
5.30196e-07
1.85598e-06
8.82278e-06
1.8566e-06
8.82247e-06
5.30186e-07
2.44535e-07
1.49489e-06
2.64199e-07
5.30371e-07
2.44535e-07
1.49401e-06
1.85598e-06
8.82328e-06
1.8566e-06
8.82298e-06
5.30369e-07
2.64174e-07
1.49401e-06
2.44531e-07
1.49492e-06
2.44532e-07
5.30181e-07
1.85658e-06
8.82254e-06
8.82284e-06
1.85597e-06
5.30375e-07
2.64199e-07
2.44534e-07
1.49402e-06
2.44534e-07
1.4949e-06
5.30188e-07
1.85658e-06
8.82304e-06
8.82332e-06
1.85597e-06
3.39591e-06
3.39488e-06
2.99217e-07
3.39529e-06
3.39434e-06
2.06224e-05
2.06228e-05
2.0623e-05
2.06226e-05
2.99502e-07
3.3953e-06
3.39435e-06
3.39593e-06
3.39489e-06
2.0623e-05
2.06226e-05
5.30187e-07
2.44533e-07
1.4951e-06
2.64177e-07
5.30375e-07
2.44533e-07
1.49421e-06
1.85586e-06
8.82341e-06
1.85643e-06
8.82311e-06
1.85587e-06
8.82413e-06
1.85644e-06
8.82384e-06
5.30376e-07
2.64182e-07
2.44531e-07
1.49401e-06
2.44532e-07
1.49488e-06
5.30187e-07
5.30377e-07
2.64177e-07
2.44532e-07
1.49422e-06
2.44532e-07
1.4951e-06
5.30189e-07
1.85641e-06
8.82317e-06
8.82345e-06
1.85585e-06
1.85642e-06
8.8239e-06
8.82418e-06
1.85587e-06
2.06225e-05
2.06229e-05
2.06231e-05
2.06235e-05
2.99504e-07
3.39439e-06
3.39548e-06
3.39493e-06
3.39601e-06
2.06232e-05
2.06227e-05
2.06237e-05
2.06233e-05
2.06218e-05
2.06227e-05
2.06233e-05
2.06239e-05
3.39479e-06
3.39595e-06
2.99218e-07
3.39424e-06
3.39539e-06
2.06231e-05
2.06225e-05
2.06242e-05
2.06236e-05
2.99504e-07
3.39422e-06
3.39536e-06
3.39481e-06
3.39593e-06