/*--------------------------------*- C++ -*----------------------------------*\
| =========                 |                                                 |
| \\      /  F ield         | OpenFOAM: The Open Source CFD Toolbox           |
|  \\    /   O peration     | Version:  2206                                  |
|   \\  /    A nd           | Website:  www.openfoam.com                      |
|    \\/     M anipulation  |                                                 |
\*---------------------------------------------------------------------------*/
FoamFile
{
    version     2.0;
    format      ascii;
    arch        "LSB;label=32;scalar=64";
    class       volVectorField;
    location    "3.5";
    object      U;
}
// * * * * * * * * * * * * * * * * * * * * * * * * * * * * * * * * * * * * * //

dimensions      [0 1 -1 0 0 0 0];

internalField   nonuniform List<vector> 
28381
(
(0.00050085 0.00050183 -8.39179e-05)
(0.000434055 0.000433194 -8.65219e-05)
(0.000100767 0.000137002 3.25171e-05)
(0.000137036 0.00010063 3.03793e-05)
(0.000138 -0.000100798 3.31584e-05)
(0.000434367 -0.000433305 -8.58913e-05)
(0.000101135 -0.000137106 3.03882e-05)
(-0.000136684 -0.000100491 3.28342e-05)
(-0.000100317 -0.000136835 3.04362e-05)
(-0.000181064 -0.000181694 9.316e-05)
(-0.000181246 0.000181262 9.30318e-05)
(0.000181513 0.000180998 9.20638e-05)
(-0.000329741 1.57287e-05 1.69281e-05)
(1.58137e-05 -0.000330208 1.70619e-05)
(9.8622e-06 0.000154201 2.34574e-05)
(0.000153829 1.06479e-05 2.31845e-05)
(5.46526e-05 -0.000121602 1.79306e-05)
(-0.000122216 5.52886e-05 1.77592e-05)
(-8.58997e-05 0.000785343 2.46396e-05)
(-1.07148e-05 0.000280167 1.0835e-05)
(1.0636e-05 0.000279874 1.08623e-05)
(0.000161377 -9.52416e-05 1.01898e-05)
(-3.74883e-05 9.66982e-05 5.29966e-05)
(2.38313e-05 -8.36326e-05 -7.37712e-06)
(3.76045e-05 9.57268e-05 5.40745e-05)
(-2.40235e-05 -8.39828e-05 -7.38765e-06)
(0.00078557 -8.54889e-05 2.44794e-05)
(0.000280282 -1.00415e-05 1.04554e-05)
(-9.52314e-05 0.000161984 1.01271e-05)
(9.7533e-05 -3.76237e-05 5.31962e-05)
(-8.33405e-05 2.49565e-05 -7.26454e-06)
(0.00078514 8.56912e-05 2.44085e-05)
(0.00028 1.10684e-05 1.05944e-05)
(9.77516e-05 3.74868e-05 5.32255e-05)
(-9.53702e-05 -0.000161249 1.01394e-05)
(-8.33682e-05 -2.33011e-05 -7.0964e-06)
(0.000153818 -1.04623e-05 2.29844e-05)
(-0.000122367 -5.47588e-05 1.78169e-05)
(5.4525e-05 0.000121992 1.7935e-05)
(9.86269e-06 -0.000154212 2.27499e-05)
(-3.73575e-05 -9.72144e-05 5.33653e-05)
(0.000161519 9.54647e-05 1.02523e-05)
(2.40856e-05 8.31983e-05 -6.37682e-06)
(-8.63048e-05 -0.000785477 2.38689e-05)
(-1.08426e-05 -0.000280343 1.11628e-05)
(-0.000154831 0.00020705 9.99767e-06)
(0.000799521 7.12842e-05 2.15366e-05)
(0.000206631 -0.000154099 9.83184e-06)
(7.1779e-05 0.00080029 2.1564e-05)
(0.000124542 0.000135984 2.06949e-05)
(0.000136862 0.000124461 2.06526e-05)
(-0.000323549 0.000133371 1.18014e-05)
(8.33316e-05 -0.000148097 2.68945e-06)
(2.37862e-05 -8.61972e-05 2.20175e-05)
(0.000122704 -5.45453e-05 1.84202e-05)
(0.000550479 -0.000237915 9.86969e-06)
(-0.000270266 2.18515e-05 3.80859e-06)
(2.14086e-05 5.05823e-06 2.40225e-05)
(0.000132705 -0.000322748 1.16922e-05)
(-0.000148524 8.37607e-05 2.30418e-06)
(-8.56163e-05 2.44996e-05 2.20991e-05)
(-5.49782e-05 0.00012321 1.84468e-05)
(-0.00023758 0.000550148 9.80068e-06)
(2.0728e-05 -0.000269318 3.53704e-06)
(5.3276e-06 2.07834e-05 2.39541e-05)
(1.87124e-05 1.91805e-05 1.98201e-05)
(-0.000298968 0.000528458 2.19939e-05)
(0.000529249 -0.000299529 2.19114e-05)
(1.0133e-05 9.41122e-06 1.82369e-05)
(0.000216153 -0.000383994 2.2832e-05)
(-0.000383997 0.00021575 2.26952e-05)
(-0.000135949 -0.000124615 2.31065e-05)
(-0.000124466 -0.000136704 2.27664e-05)
(0.000237759 -0.000550113 8.77765e-06)
(-2.11115e-05 0.0002699 1.92065e-06)
(-1.58971e-05 0.000328922 1.69869e-05)
(-5.64532e-06 -2.0531e-05 2.51589e-05)
(8.55567e-05 -2.45019e-05 2.36322e-05)
(0.000148098 -8.32333e-05 1.22104e-06)
(-0.000132602 0.000323504 1.0326e-05)
(-0.000549716 0.000237505 8.77299e-06)
(0.000269144 -2.01927e-05 1.75296e-06)
(0.000329714 -1.56742e-05 1.69531e-05)
(-2.02694e-05 -5.34323e-06 2.49372e-05)
(-2.52283e-05 8.52379e-05 2.37137e-05)
(-8.33873e-05 0.000148607 1.06644e-06)
(0.000322615 -0.00013203 1.02666e-05)
(-9.25382e-06 -9.7949e-06 1.81224e-05)
(0.000383009 -0.000215013 2.41112e-05)
(-0.000215057 0.000383444 2.39559e-05)
(-0.000528462 0.000298768 2.37856e-05)
(0.000299118 -0.000528988 2.3892e-05)
(-1.8645e-05 -1.79863e-05 1.8964e-05)
(-3.59327e-05 0.000111855 2.20744e-05)
(-7.14442e-05 -0.000800386 2.34768e-05)
(-8.23117e-05 0.000298024 1.76281e-05)
(-4.58613e-05 -7.79224e-05 2.26922e-05)
(1.82919e-05 -0.000330687 1.65586e-05)
(-5.5938e-06 0.000154988 2.5492e-05)
(3.18111e-06 -0.000324906 9.52798e-06)
(-5.21588e-06 -0.000181106 2.57957e-05)
(-0.000107722 0.000256373 1.19268e-05)
(-4.21891e-05 -0.000166756 2.64326e-05)
(-8.74904e-07 0.000168234 2.48359e-05)
(6.45908e-05 -0.000308698 1.04545e-05)
(3.72105e-05 0.000111657 2.1185e-05)
(8.20544e-05 0.000297596 1.70044e-05)
(-1.77543e-05 -0.000330569 1.59618e-05)
(4.55597e-05 -7.83334e-05 2.35756e-05)
(5.47949e-06 0.000154751 2.54977e-05)
(-3.08978e-06 -0.000324789 9.35025e-06)
(4.66203e-06 -0.000181085 2.5735e-05)
(0.000107614 0.000255775 1.15578e-05)
(1.2246e-06 0.000168523 2.45965e-05)
(-6.41132e-05 -0.000308452 9.9608e-06)
(4.14777e-05 -0.000166591 2.59335e-05)
(0.000112033 -3.66791e-05 2.28018e-05)
(-0.000800426 -7.19132e-05 2.35538e-05)
(0.000298234 -8.17796e-05 1.70093e-05)
(-7.75255e-05 -4.62161e-05 2.30694e-05)
(-0.000330149 1.85996e-05 1.61138e-05)
(0.000154858 -6.40172e-06 2.59078e-05)
(-0.000325087 3.99565e-06 9.44966e-06)
(0.000256707 -0.000106913 1.14275e-05)
(-0.000181122 -5.91312e-06 2.64014e-05)
(-0.000166451 -4.29471e-05 2.67932e-05)
(-0.000308284 6.51882e-05 1.01922e-05)
(0.00016773 -1.62602e-06 2.50895e-05)
(0.000111709 3.5673e-05 2.17533e-05)
(-0.000800624 7.19294e-05 2.29951e-05)
(0.000297517 8.23809e-05 1.74607e-05)
(-0.000330951 -1.82235e-05 1.65246e-05)
(-7.82934e-05 4.49666e-05 2.28013e-05)
(0.000154198 5.04515e-06 2.53451e-05)
(-0.000325136 -2.53587e-06 9.66028e-06)
(-0.000181458 3.88634e-06 2.64096e-05)
(0.000255904 0.000108062 1.16403e-05)
(0.000167589 -4.25685e-08 2.50193e-05)
(-0.000308993 -6.39936e-05 1.06423e-05)
(-0.000167103 4.12538e-05 2.67248e-05)
(-0.000124595 0.000136638 2.23169e-05)
(-0.000549463 -0.000237365 8.84769e-06)
(0.00026971 2.07744e-05 1.79935e-06)
(0.000329792 1.60837e-05 1.70471e-05)
(-1.99785e-05 5.55865e-06 2.46555e-05)
(-8.27983e-05 -0.000148304 1.30661e-06)
(-2.53546e-05 -8.52076e-05 2.35028e-05)
(0.000323187 0.000132534 1.02617e-05)
(0.00023814 0.000550093 9.15067e-06)
(-2.06873e-05 -0.000269612 2.47609e-06)
(-1.56878e-05 -0.000329258 1.69169e-05)
(-5.85522e-06 2.07876e-05 2.42882e-05)
(8.5348e-05 2.41039e-05 2.25452e-05)
(0.000148345 8.3296e-05 1.79491e-06)
(-0.000132409 -0.00032326 1.06905e-05)
(-9.09138e-06 9.73773e-06 1.7916e-05)
(-0.000215122 -0.000383445 2.38457e-05)
(0.000383039 0.000215019 2.3629e-05)
(0.000299259 0.000529409 2.35554e-05)
(-0.000528545 -0.000298973 2.291e-05)
(-1.84781e-05 1.82641e-05 1.8872e-05)
(-0.000136599 0.000124326 2.20908e-05)
(-3.59467e-05 -0.000112005 2.24337e-05)
(-7.15257e-05 0.000800149 2.27975e-05)
(-8.24424e-05 -0.000298084 1.74089e-05)
(1.81771e-05 0.000330526 1.62693e-05)
(-4.58228e-05 7.77024e-05 2.22057e-05)
(-5.82111e-06 -0.000155374 2.51519e-05)
(3.36741e-06 0.000324619 9.93893e-06)
(-0.00010799 -0.000256643 1.19788e-05)
(-5.24513e-06 0.000181291 2.487e-05)
(6.45329e-05 0.000308571 1.06759e-05)
(-6.11364e-07 -0.000168695 2.43183e-05)
(-4.24167e-05 0.000166732 2.5558e-05)
(-0.000784893 8.56669e-05 2.32068e-05)
(4.5093e-05 7.82187e-05 2.22267e-05)
(-1.83344e-05 0.000330677 1.63076e-05)
(8.53363e-05 -0.000784834 2.34777e-05)
(3.62351e-05 -0.000111945 2.08583e-05)
(8.20804e-05 -0.000297466 1.76634e-05)
(-0.000153304 -1.08524e-05 2.17562e-05)
(-1.13584e-05 -0.000153192 2.19936e-05)
(-0.000163862 -0.000162942 -3.24688e-06)
(-5.12409e-05 0.000408038 -2.66572e-05)
(0.000406723 -5.00235e-05 -2.69714e-05)
(-0.000433048 -0.000433715 -8.39552e-05)
(0.000301834 0.000302303 -6.64096e-06)
(-2.26679e-05 -0.000183387 -2.33159e-05)
(-0.000183602 -2.17369e-05 -2.34965e-05)
(-0.000301644 -0.000301264 -7.99917e-06)
(-0.000501818 -0.000500947 -8.56254e-05)
(0.000183992 2.2205e-05 -2.54148e-05)
(2.14179e-05 0.000183982 -2.5843e-05)
(-0.000408009 5.20123e-05 -2.81795e-05)
(5.08827e-05 -0.00040676 -2.86686e-05)
(0.000162899 0.000163712 -5.07797e-06)
(-0.000301289 0.000301354 -7.80997e-06)
(-0.000500907 0.000500965 -8.48388e-05)
(2.20988e-05 -0.00018377 -2.52706e-05)
(0.000184338 -2.20862e-05 -2.52506e-05)
(5.16788e-05 0.000406624 -2.7802e-05)
(-0.000407429 -5.1644e-05 -2.8064e-05)
(0.000163415 -0.000163542 -4.90535e-06)
(0.000155653 -7.5164e-05 3.19685e-05)
(-7.49728e-05 0.000155099 3.20683e-05)
(7.61006e-05 7.61235e-05 2.49272e-05)
(-7.4756e-05 -0.00015561 3.20911e-05)
(0.000155626 7.47423e-05 3.16704e-05)
(7.669e-05 -7.6299e-05 2.47749e-05)
(0.000118974 -0.000495516 -2.71842e-05)
(2.67464e-06 0.000460683 -1.67967e-06)
(-0.000206626 0.000153915 9.31111e-06)
(0.000188259 -0.00013443 -3.1121e-06)
(0.000234154 -0.000408931 5.3462e-07)
(-0.000249816 8.18882e-05 -4.31155e-06)
(-2.87538e-05 0.000437559 -3.02294e-05)
(8.29182e-05 -0.000499602 -3.28899e-05)
(-3.00665e-05 5.59941e-05 -7.94015e-06)
(5.33619e-05 -8.75956e-05 -8.31711e-06)
(-4.37451e-06 0.000333317 -3.10971e-05)
(-9.53645e-05 4.08966e-05 -9.27933e-06)
(1.48789e-05 -0.000472585 -2.69318e-05)
(-3.76176e-05 0.000364806 -3.65859e-05)
(-0.00011875 -0.000495025 -2.756e-05)
(-0.00018769 -0.00013451 -3.78855e-06)
(0.000250942 8.25513e-05 -5.09687e-06)
(2.87198e-05 0.000436943 -3.04788e-05)
(-8.23641e-05 -0.000499628 -3.3245e-05)
(3.03977e-05 5.59091e-05 -8.21615e-06)
(-5.31886e-05 -8.81364e-05 -8.66286e-06)
(3.97187e-06 0.00033208 -3.0752e-05)
(9.60229e-05 4.07826e-05 -9.97889e-06)
(-1.45894e-05 -0.000472544 -2.68979e-05)
(3.70718e-05 0.000363056 -3.65211e-05)
(-0.000495209 0.000119809 -2.82823e-05)
(0.000460482 3.13775e-06 -2.35699e-06)
(0.000153694 -0.000206058 9.23205e-06)
(-0.000134553 0.00018911 -3.63728e-06)
(-0.000409375 0.000234899 -4.62823e-08)
(8.23177e-05 -0.000249036 -4.81253e-06)
(0.000437564 -2.80094e-05 -3.13813e-05)
(-0.000498733 8.35737e-05 -3.25961e-05)
(5.61171e-05 -2.91162e-05 -7.66917e-06)
(-8.7311e-05 5.45899e-05 -8.33034e-06)
(0.000334397 -3.48444e-06 -3.1034e-05)
(4.11802e-05 -9.4411e-05 -9.21462e-06)
(-0.000471328 1.5697e-05 -2.67138e-05)
(0.000365161 -3.65105e-05 -3.64499e-05)
(-0.000494579 -0.00011919 -2.70596e-05)
(0.000461049 -2.4881e-06 -1.90194e-06)
(0.000153741 0.000206731 9.51027e-06)
(-0.000134624 -0.000187992 -3.33252e-06)
(8.19531e-05 0.000250093 -4.37325e-06)
(-0.00040839 -0.000234208 6.31412e-07)
(0.000437976 2.91517e-05 -3.03352e-05)
(-0.000498446 -8.27094e-05 -3.2818e-05)
(5.61508e-05 3.08317e-05 -7.55109e-06)
(0.000334332 5.02561e-06 -3.08347e-05)
(-8.75824e-05 -5.29669e-05 -8.43784e-06)
(-0.000471327 -1.45072e-05 -2.66179e-05)
(4.10497e-05 9.59398e-05 -9.28527e-06)
(0.000365334 3.80534e-05 -3.66992e-05)
(0.000119262 0.000494916 -2.7595e-05)
(3.21889e-06 -0.000460573 -1.78587e-06)
(-0.000206409 -0.000154126 9.36629e-06)
(0.000188618 0.000134548 -2.93707e-06)
(-2.81865e-05 -0.000437388 -3.02509e-05)
(0.000234454 0.000408555 3.62374e-07)
(-0.000249827 -8.21548e-05 -4.25531e-06)
(8.31263e-05 0.000498853 -3.20113e-05)
(-2.98153e-05 -5.60248e-05 -6.93721e-06)
(-4.10957e-06 -0.000333468 -2.99424e-05)
(5.36492e-05 8.72952e-05 -7.53144e-06)
(-3.73102e-05 -0.000364579 -3.54559e-05)
(1.51549e-05 0.000471564 -2.59773e-05)
(-9.54437e-05 -4.09721e-05 -8.45378e-06)
(0.000408679 -0.000233401 1.54406e-06)
(9.59416e-05 -0.000161588 1.13792e-05)
(-0.000460594 -2.93946e-06 1.82543e-08)
(2.77483e-05 -0.000436964 -2.94107e-05)
(-0.000233939 0.000409055 1.01974e-06)
(0.0002499 -8.18425e-05 -4.00703e-06)
(-0.000162031 9.60344e-05 1.09682e-05)
(-3.41427e-06 -0.000460281 -4.93854e-07)
(-0.000118835 0.000495063 -2.69307e-05)
(-0.000189295 0.000134708 -2.47658e-06)
(0.000100607 -0.000136837 2.89947e-05)
(0.00050106 0.00050151 -8.47926e-05)
(-0.000181046 -0.000180968 9.03419e-05)
(-0.000137503 0.00010132 2.85691e-05)
(0.000101066 -0.000137604 2.85201e-05)
(0.000500973 0.000501257 -8.43688e-05)
(-0.000180694 -0.000181018 8.9661e-05)
(-0.00013766 0.000101319 2.83557e-05)
(0.000101611 -0.000138261 2.84885e-05)
(0.00050019 0.000500985 -8.41146e-05)
(-0.000180699 -0.000181256 9.14925e-05)
(-0.000137283 0.000101366 2.88436e-05)
(0.000101438 -0.000137412 2.8962e-05)
(0.000500892 0.000501645 -8.36386e-05)
(-0.000180998 -0.000181235 9.19101e-05)
(-0.000137993 0.0001016 2.915e-05)
(0.000101602 -0.000138061 2.92407e-05)
(0.000500125 0.000500782 -8.39699e-05)
(-0.000181142 -0.000181174 9.21339e-05)
(-0.000137349 0.000101187 2.96237e-05)
(0.000101052 -0.00013729 2.9686e-05)
(0.000500617 0.000501224 -8.44627e-05)
(-0.000180979 -0.000180873 9.09206e-05)
(-0.000137352 0.000101317 2.88435e-05)
(0.000100981 -0.000137116 2.90384e-05)
(0.000500825 0.000501479 -8.38996e-05)
(-0.000181097 -0.000181232 9.14265e-05)
(-0.000137867 0.000101637 2.89655e-05)
(0.000101447 -0.000137871 2.89699e-05)
(0.000500253 0.00050099 -8.40234e-05)
(-0.000180911 -0.000181435 9.14515e-05)
(-0.000137262 0.000101255 2.90066e-05)
(0.000101376 -0.00013742 2.9015e-05)
(0.000500968 0.000501721 -8.38761e-05)
(-0.000180808 -0.000181083 9.01499e-05)
(-0.000137409 0.000101193 2.85584e-05)
(0.000101249 -0.000137591 2.86196e-05)
(0.000500447 0.000501147 -8.38792e-05)
(-0.000180942 -0.000180997 9.1026e-05)
(-0.000137396 0.000101347 2.86858e-05)
(0.000101301 -0.000137574 2.87222e-05)
(0.000500397 0.00050108 -8.37512e-05)
(-0.000181134 -0.000181056 9.16672e-05)
(-0.000137934 0.000101874 2.9071e-05)
(0.000101641 -0.000137792 2.91378e-05)
(0.000500471 0.000501094 -8.42548e-05)
(-0.000181021 -0.000181155 9.13598e-05)
(-0.000137654 0.000101285 2.92922e-05)
(0.000101163 -0.000137741 2.93397e-05)
(0.000500159 0.000500835 -8.42069e-05)
(-0.000180895 -0.000181226 9.231e-05)
(-0.000137395 0.000101258 2.95036e-05)
(0.000101329 -0.000137559 2.95155e-05)
(0.000500651 0.000501441 -8.42218e-05)
(-0.000180937 -0.000181303 9.16988e-05)
(-0.000137023 0.000101053 2.92653e-05)
(0.000101648 -0.000137975 2.91781e-05)
(0.000500949 0.000501784 -8.37469e-05)
(-0.00018101 -0.000181201 9.10187e-05)
(-0.000137493 0.000101086 2.89961e-05)
(0.000100927 -0.000137318 2.9191e-05)
(0.000500363 0.000501048 -8.39527e-05)
(-0.000181192 -0.000180899 9.1403e-05)
(-0.000138114 0.000101765 2.83207e-05)
(0.000101291 -0.000137699 2.84589e-05)
(0.000500714 0.000501365 -8.40196e-05)
(-0.000501449 0.000501579 -8.45545e-05)
(0.000434835 -0.000434086 -8.35516e-05)
(-0.00010128 -0.000137451 2.99918e-05)
(0.00010113 -0.00013749 2.83436e-05)
(-0.000100801 -0.000137569 3.06828e-05)
(-0.00043382 -0.000434841 -8.42837e-05)
(-0.000501259 -0.000500484 -8.4149e-05)
(0.000434804 0.000433923 -8.28214e-05)
(0.000101243 0.000137777 3.0905e-05)
(-0.000100992 0.00013782 3.10557e-05)
(0.000101223 0.00013776 3.0873e-05)
(-0.000101207 0.000137703 3.0929e-05)
(0.000501111 -0.000501119 -8.47697e-05)
(-0.000434408 0.000434588 -8.43603e-05)
(0.000137317 0.000101097 2.84442e-05)
(0.000137813 -0.000100879 3.09047e-05)
(0.000137329 0.000101029 2.85307e-05)
(0.000138065 -0.000101568 3.09104e-05)
(-0.000137135 -0.00010102 2.98266e-05)
(-0.000137496 0.000101203 2.84137e-05)
(-0.000138172 -0.000101781 3.06777e-05)
(-0.000500963 0.000500871 -8.39865e-05)
(0.000434734 -0.000434505 -8.35096e-05)
(-0.00010101 -0.00013771 2.98313e-05)
(0.000101597 -0.000138292 2.8437e-05)
(-0.000101622 -0.000137993 2.82714e-05)
(-0.000434452 -0.000435218 -8.41789e-05)
(-0.00050116 -0.000500315 -8.3665e-05)
(0.00043532 0.000434765 -8.49711e-05)
(0.000101559 0.000138211 3.07741e-05)
(-0.000101282 0.000137873 3.09635e-05)
(0.000102395 0.000138797 3.09908e-05)
(-0.000101251 0.000137985 3.1295e-05)
(0.000500743 -0.00050119 -8.45886e-05)
(-0.000434395 0.000434518 -8.51106e-05)
(0.000137826 0.000101423 2.84753e-05)
(0.000138372 -0.000101633 3.09488e-05)
(0.00013916 0.000102403 2.85868e-05)
(0.000138594 -0.000101501 3.1327e-05)
(-0.000137994 -0.000101609 3.08528e-05)
(-0.000137352 0.000101358 2.88941e-05)
(-0.000136938 -0.000100577 3.1454e-05)
(-0.00050079 0.0005003 -8.39089e-05)
(0.000434419 -0.000434619 -8.48445e-05)
(-0.000101456 -0.000137868 2.85535e-05)
(0.000101491 -0.000137569 2.89429e-05)
(-0.0001004 -0.000136731 2.91422e-05)
(-0.000433494 -0.000434252 -8.39878e-05)
(-0.000500615 -0.000499731 -8.49946e-05)
(0.000434371 0.000433609 -8.56392e-05)
(0.000102404 0.000138825 3.11592e-05)
(-0.000101132 0.000138124 3.12988e-05)
(0.000101284 0.000137591 3.19795e-05)
(-0.000101176 0.000137551 3.18028e-05)
(0.000500795 -0.000501085 -8.49638e-05)
(-0.000433779 0.000434337 -8.47952e-05)
(0.000139094 0.000102391 2.88427e-05)
(0.000138695 -0.000101372 3.14233e-05)
(0.000137684 0.000101181 2.96438e-05)
(0.000137889 -0.000101219 3.19917e-05)
(-0.000137037 -0.000100675 3.13734e-05)
(-0.000137802 0.000101502 2.92396e-05)
(-0.000138022 -0.00010156 3.13988e-05)
(-0.000501046 0.000500621 -8.44832e-05)
(0.000434342 -0.000433811 -8.47152e-05)
(-0.000100489 -0.000136785 2.91347e-05)
(0.00010146 -0.000137869 2.93305e-05)
(-0.000101399 -0.000138043 2.90808e-05)
(-0.000433848 -0.000434675 -8.34903e-05)
(-0.00050123 -0.000500481 -8.4861e-05)
(0.000434335 0.000433404 -8.55344e-05)
(0.000101198 0.000137537 3.18863e-05)
(-0.000101365 0.000137779 3.17026e-05)
(0.000101271 0.00013773 3.20687e-05)
(-0.000101456 0.000138007 3.19463e-05)
(0.000500692 -0.000500722 -8.48583e-05)
(-0.000434097 0.00043442 -8.62355e-05)
(0.000137543 0.000101065 2.95733e-05)
(0.000137933 -0.000101384 3.18673e-05)
(0.000137512 0.000101083 2.97186e-05)
(0.000137928 -0.000101263 3.21302e-05)
(-0.000138387 -0.00010187 3.14337e-05)
(-0.000137959 0.000101607 2.95044e-05)
(-0.00013816 -0.000101743 3.19378e-05)
(-0.000500699 0.00050061 -8.45844e-05)
(0.000434287 -0.000433944 -8.58735e-05)
(-0.000101714 -0.000138336 2.91898e-05)
(0.000101372 -0.00013772 2.96313e-05)
(-0.000101546 -0.000137814 2.96563e-05)
(-0.000433905 -0.000434881 -8.54081e-05)
(-0.000501361 -0.000500659 -8.50431e-05)
(0.000434408 0.000433295 -8.45802e-05)
(0.00010114 0.000137546 3.19003e-05)
(-0.000101064 0.000137857 3.19855e-05)
(0.000101057 0.000137377 3.16063e-05)
(-0.000100828 0.000137158 3.17131e-05)
(0.000501033 -0.000501119 -8.53743e-05)
(-0.000433652 0.000434169 -8.49099e-05)
(0.000137375 0.000100973 2.95977e-05)
(0.00013779 -0.000100913 3.21492e-05)
(0.000137003 0.000100825 2.9327e-05)
(0.000137033 -0.000100643 3.17828e-05)
(-0.000137837 -0.000101371 3.19755e-05)
(-0.000137066 0.000101067 2.91742e-05)
(-0.000137278 -0.000101095 3.15658e-05)
(-0.000501145 0.000501007 -8.4892e-05)
(0.00043421 -0.000433742 -8.4578e-05)
(-0.000101177 -0.000137502 2.96895e-05)
(0.000100913 -0.000137012 2.9281e-05)
(-0.000100908 -0.000137094 2.92738e-05)
(-0.000433478 -0.000434424 -8.43637e-05)
(-0.00050117 -0.000500584 -8.43488e-05)
(0.000434746 0.000433731 -8.51695e-05)
(0.000101236 0.00013777 3.1335e-05)
(-0.000101073 0.000137664 3.1476e-05)
(0.000101625 0.000138163 3.11881e-05)
(-0.000101401 0.000137913 3.1676e-05)
(0.000500823 -0.000500958 -8.47675e-05)
(-0.000434023 0.000434695 -8.49769e-05)
(0.000137367 0.000101031 2.90371e-05)
(0.000137417 -0.000100735 3.15934e-05)
(0.0001375 0.000101385 2.8828e-05)
(0.000137671 -0.000101096 3.15507e-05)
(-0.000137191 -0.000100894 3.15056e-05)
(-0.000137854 0.000101668 2.89398e-05)
(-0.000138161 -0.000101641 3.11014e-05)
(-0.000500973 0.000500889 -8.42027e-05)
(0.000434561 -0.000433839 -8.41497e-05)
(-0.000100717 -0.000137095 2.91997e-05)
(0.000101405 -0.000137832 2.8957e-05)
(-0.000101484 -0.000137947 2.88319e-05)
(-0.000434164 -0.000434978 -8.39035e-05)
(-0.000501174 -0.000500494 -8.49905e-05)
(0.000434399 0.000433688 -8.46804e-05)
(0.00010142 0.000137928 3.13595e-05)
(-0.000101398 0.00013804 3.16091e-05)
(0.000101035 0.000137286 3.154e-05)
(-0.000101196 0.000137898 3.17795e-05)
(0.000500705 -0.000500698 -8.49679e-05)
(-0.000433924 0.000434459 -8.51712e-05)
(0.000137579 0.000101265 2.88241e-05)
(0.000137902 -0.000101184 3.14794e-05)
(0.000137481 0.000100957 2.89731e-05)
(0.000138264 -0.000101315 3.15217e-05)
(-0.000138112 -0.000101494 3.14135e-05)
(-0.000137416 0.000101425 2.91735e-05)
(-0.000137086 -0.000100832 3.17113e-05)
(-0.000500671 0.000500651 -8.42804e-05)
(0.000434557 -0.000434192 -8.45225e-05)
(-0.000101388 -0.000137966 2.91091e-05)
(0.000101485 -0.000137525 2.9071e-05)
(-0.000100726 -0.000137221 2.93579e-05)
(-0.000433539 -0.000434267 -8.40976e-05)
(-0.000501414 -0.000500592 -8.45834e-05)
(0.000434304 0.000433513 -8.35515e-05)
(0.000101056 0.000137155 3.14764e-05)
(-0.000101041 0.000137734 3.17712e-05)
(0.000100672 0.000136856 3.12238e-05)
(-0.000100808 0.00013722 3.1423e-05)
(0.000501024 -0.000501059 -8.48939e-05)
(-0.00043386 0.000434423 -8.44304e-05)
(0.000137408 0.000100954 2.89536e-05)
(0.0001382 -0.000101219 3.15866e-05)
(0.000136874 0.000100527 2.87495e-05)
(0.000137685 -0.000100994 3.1292e-05)
(-0.000137182 -0.000100849 3.1382e-05)
(-0.000137234 0.00010108 2.8768e-05)
(-0.000137819 -0.000101334 3.09574e-05)
(-0.000500788 0.000500695 -8.43692e-05)
(0.000434476 -0.000434002 -8.41247e-05)
(-0.000100712 -0.00013729 2.90711e-05)
(0.000101205 -0.000137378 2.87746e-05)
(-0.000101118 -0.000137492 2.86857e-05)
(-0.000433757 -0.000434621 -8.33555e-05)
(-0.000501436 -0.000500703 -8.40352e-05)
(0.000435074 0.000434123 -8.45267e-05)
(0.000101129 0.000137377 3.09613e-05)
(-0.00010097 0.000137482 3.12329e-05)
(0.000101756 0.000138381 3.10647e-05)
(-0.000101021 0.000137732 3.14243e-05)
(0.00050113 -0.000501197 -8.45256e-05)
(-0.000434021 0.000434641 -8.45565e-05)
(0.000137318 0.000100977 2.8459e-05)
(0.000137794 -0.000101062 3.12112e-05)
(0.000138093 0.000101589 2.85384e-05)
(0.000137926 -0.000101095 3.12856e-05)
(-0.000138116 -0.000101608 3.07983e-05)
(-0.000137312 0.000101267 2.87359e-05)
(-0.000137683 -0.000101304 3.10107e-05)
(-0.000500888 0.00050082 -8.4136e-05)
(0.000434635 -0.00043399 -8.43729e-05)
(-0.000101431 -0.000137889 2.85068e-05)
(0.0001013 -0.000137492 2.87455e-05)
(-0.000101144 -0.000137575 2.87982e-05)
(-0.000433999 -0.000434824 -8.35563e-05)
(-0.000501125 -0.000500458 -8.46545e-05)
(0.000435095 0.000433961 -8.51327e-05)
(0.000101638 0.000138084 3.1119e-05)
(-0.000101062 0.000137751 3.13944e-05)
(0.000101808 0.000138278 3.14216e-05)
(-0.000101722 0.000138272 3.16605e-05)
(0.000501009 -0.00050113 -8.46068e-05)
(-0.000434399 0.000434761 -8.50554e-05)
(0.000137858 0.000101465 2.86172e-05)
(0.000137755 -0.000101011 3.133e-05)
(0.000137839 0.00010155 2.89352e-05)
(0.000138137 -0.000101461 3.15485e-05)
(-0.000138087 -0.00010159 3.10349e-05)
(-0.000138047 0.000101887 2.89973e-05)
(-0.000138314 -0.000101931 3.1325e-05)
(-0.000500986 0.000500879 -8.43209e-05)
(0.000434685 -0.000434346 -8.47885e-05)
(-0.000101422 -0.000137915 2.88258e-05)
(0.000101627 -0.000137914 2.90656e-05)
(-0.000101705 -0.000138051 2.9146e-05)
(-0.000434117 -0.000435091 -8.50606e-05)
(-0.000500921 -0.000500303 -8.47932e-05)
(0.000434309 0.00043337 -8.47469e-05)
(0.000101764 0.000138318 3.15275e-05)
(-0.000101768 0.000138521 3.17339e-05)
(0.000100836 0.000137161 3.20109e-05)
(-0.000101289 0.000137712 3.20523e-05)
(0.000500394 -0.000500602 -8.49036e-05)
(-0.000434052 0.000434437 -8.5735e-05)
(0.000137843 0.000101486 2.90092e-05)
(0.000138391 -0.000101505 3.16362e-05)
(0.000136883 0.00010067 2.94634e-05)
(0.000137538 -0.000101071 3.19904e-05)
(-0.000137822 -0.000101401 3.15756e-05)
(-0.000137746 0.000101442 2.93506e-05)
(-0.000137878 -0.000101399 3.15564e-05)
(-0.000500528 0.00050035 -8.44663e-05)
(0.000434344 -0.000433918 -8.48873e-05)
(-0.000101208 -0.000137547 2.93998e-05)
(0.000101265 -0.000137792 2.93965e-05)
(-0.000101207 -0.000137583 2.93443e-05)
(-0.000433679 -0.000434602 -8.41981e-05)
(-0.00050144 -0.000500728 -8.427e-05)
(0.000434971 0.000434245 -8.5323e-05)
(0.000100933 0.000137349 3.17883e-05)
(-0.00010119 0.000137664 3.19564e-05)
(0.000102227 0.000138781 3.15531e-05)
(-0.000101178 0.000137971 3.21074e-05)
(0.000500726 -0.000500997 -8.50085e-05)
(-0.000433938 0.000434177 -8.54838e-05)
(0.000137157 0.000100768 2.9272e-05)
(0.000137604 -0.00010104 3.18712e-05)
(0.000138615 0.000102138 2.90429e-05)
(0.000138229 -0.00010125 3.1968e-05)
(-0.000138212 -0.000101664 3.14684e-05)
(-0.000137319 0.000101255 2.94639e-05)
(-0.000137336 -0.000101028 3.19111e-05)
(-0.000500898 0.000500622 -8.43447e-05)
(0.000434159 -0.000434009 -8.45764e-05)
(-0.000101485 -0.000137881 2.92611e-05)
(0.000101243 -0.000137438 2.94902e-05)
(-0.000100888 -0.000137162 2.97024e-05)
(-0.000433691 -0.000434443 -8.50147e-05)
(-0.000500482 -0.000499653 -8.50861e-05)
(0.00043417 0.000433354 -8.51959e-05)
(0.000101999 0.000138367 3.18665e-05)
(-0.000101118 0.000137838 3.22273e-05)
(0.00010096 0.000137408 3.20893e-05)
(-0.000101168 0.000137869 3.21441e-05)
(0.00050063 -0.000501018 -8.50578e-05)
(-0.000433968 0.00043406 -8.54173e-05)
(0.000138344 0.0001019 2.92912e-05)
(0.000138152 -0.000101226 3.20863e-05)
(0.000137079 0.000100765 2.95823e-05)
(0.000138278 -0.000101541 3.19738e-05)
(-0.000137223 -0.000100838 3.19577e-05)
(-0.000137068 0.000101188 2.95073e-05)
(-0.000136679 -0.000100578 3.18845e-05)
(-0.000500766 0.000500376 -8.43722e-05)
(0.000434397 -0.000434112 -8.4891e-05)
(-0.000100721 -0.000137088 2.97531e-05)
(0.000101683 -0.000137952 2.94227e-05)
(-0.000100482 -0.000136796 2.96625e-05)
(-0.000433288 -0.000433872 -8.41512e-05)
(-0.000501504 -0.000500727 -8.47353e-05)
(0.000434389 0.000433542 -8.46288e-05)
(0.000100944 0.000137357 3.17474e-05)
(-0.000100979 0.000137662 3.20242e-05)
(0.000101019 0.000137285 3.15794e-05)
(-0.000101034 0.000137467 3.17555e-05)
(0.000500901 -0.000501211 -8.49182e-05)
(-0.000433969 0.000434324 -8.47751e-05)
(0.000137093 0.000100774 2.92383e-05)
(0.000138147 -0.000101502 3.18077e-05)
(0.000137277 0.000100926 2.91455e-05)
(0.000137618 -0.000101084 3.17921e-05)
(-0.000136691 -0.000100547 3.17421e-05)
(-0.00013758 0.000101182 2.90649e-05)
(-0.000137956 -0.000101604 3.11728e-05)
(-0.000500612 0.000500398 -8.45574e-05)
(0.000434386 -0.000434086 -8.50715e-05)
(-0.000100431 -0.000136931 2.95309e-05)
(0.000101196 -0.000137649 2.92134e-05)
(-0.000101453 -0.000137828 2.89802e-05)
(-0.000434032 -0.000434866 -8.40571e-05)
(-0.000501521 -0.000500711 -8.44219e-05)
(0.000434124 0.000434352 -8.45281e-05)
(0.000101001 0.000137337 3.13702e-05)
(-0.000100979 0.000137545 3.16101e-05)
(0.000101706 0.000138178 2.99076e-05)
(-0.000101189 0.000137843 3.1444e-05)
(0.000500978 -0.000501228 -8.46598e-05)
(-0.000434093 0.000434423 -8.4105e-05)
(0.000137277 0.000100871 2.89406e-05)
(0.000137503 -0.00010086 3.17234e-05)
(0.000137374 0.000101162 2.98691e-05)
(0.000137608 -0.000100757 3.14144e-05)
(-0.000137853 -0.000101392 3.13369e-05)
(-0.000137587 0.000101355 2.86959e-05)
(-0.000137471 -0.000101012 3.11702e-05)
(-0.00050127 0.000501044 -8.44413e-05)
(0.000434045 -0.000433764 -8.36495e-05)
(-0.000101212 -0.000137662 2.91002e-05)
(0.000100892 -0.000137136 2.8736e-05)
(-0.000100795 -0.000137092 2.89258e-05)
(-0.000433376 -0.000434459 -8.38765e-05)
(-0.000101666 0.000138281 3.12041e-05)
(0.00050044 -0.000500817 -8.47259e-05)
(0.000137754 0.000101428 3.15244e-05)
(0.000137833 -0.000101236 3.09747e-05)
(-0.00013767 -0.000101176 3.09337e-05)
(-0.000500967 0.000500736 -8.4159e-05)
(-0.000100826 -0.000137315 2.87105e-05)
(-0.000124413 0.000136687 1.94324e-05)
(0.000152519 -1.20274e-05 2.02601e-05)
(2.44259e-05 8.23815e-05 -3.69666e-06)
(-3.75762e-05 -9.69899e-05 5.13696e-05)
(-0.000206696 -0.000154515 1.03123e-05)
(0.000100537 -0.00013671 2.87782e-05)
(0.000162367 9.62694e-05 1.24803e-05)
(-2.95791e-05 -5.54609e-05 -5.30364e-06)
(-3.77219e-05 -9.68147e-05 5.12828e-05)
(-0.00033005 1.57341e-05 1.72099e-05)
(1.57799e-05 -0.000330769 1.76974e-05)
(-0.000435179 -0.000432642 -8.41727e-05)
(-5.49638e-05 0.000123365 1.86823e-05)
(0.00012335 -5.44642e-05 1.90683e-05)
(-1.07398e-05 0.00028176 1.3566e-05)
(-7.15774e-05 -0.000799297 2.1431e-05)
(-8.57377e-05 0.000784432 2.16597e-05)
(3.22744e-06 -0.000325796 1.2358e-05)
(0.000136876 -0.000124358 1.99987e-05)
(-1.18654e-05 0.000152759 1.98826e-05)
(0.000282024 -1.04583e-05 1.35526e-05)
(-0.00079955 -7.16547e-05 2.13059e-05)
(0.000784505 -8.52181e-05 2.18052e-05)
(-0.00032569 3.42829e-06 1.23111e-05)
(0.000180969 -0.000181127 9.05523e-05)
(-0.000181281 0.000180739 8.99763e-05)
(0.000181821 0.000179637 9.01335e-05)
(-0.000180794 -0.000181042 8.96445e-05)
(0.00018102 -0.00018094 9.03702e-05)
(-0.000180895 0.000180866 8.98669e-05)
(0.000181024 0.000180777 9.01642e-05)
(8.19862e-05 2.42365e-05 -3.39448e-06)
(-0.000154871 -0.000207533 1.14516e-05)
(-9.72519e-05 -3.74579e-05 5.09908e-05)
(-0.000137427 0.000101151 2.84761e-05)
(9.62833e-05 0.00016228 1.22664e-05)
(-9.73932e-05 -3.76592e-05 5.06816e-05)
(-5.52424e-05 -3.00928e-05 -4.38642e-06)
(-0.00012427 0.000136764 1.92281e-05)
(0.000152456 -1.19601e-05 1.88922e-05)
(2.39934e-05 8.179e-05 -2.82665e-06)
(-3.73882e-05 -9.71624e-05 5.06336e-05)
(-0.000207268 -0.000155101 1.16235e-05)
(0.0001012 -0.000137838 2.849e-05)
(-3.02036e-05 -5.51339e-05 -3.81806e-06)
(-3.73623e-05 -9.75145e-05 5.07596e-05)
(0.000162038 9.6398e-05 1.26737e-05)
(-0.000330186 1.57555e-05 1.80734e-05)
(1.59781e-05 -0.000330876 1.83066e-05)
(-0.000433934 -0.000434979 -8.37122e-05)
(0.0001234 -5.45068e-05 1.86998e-05)
(-5.46371e-05 0.000123863 1.88637e-05)
(-1.1276e-05 0.000280386 1.3547e-05)
(-7.14105e-05 -0.00079863 2.03505e-05)
(2.95296e-06 -0.000325607 1.31241e-05)
(-8.61877e-05 0.000784107 2.17048e-05)
(0.000137322 -0.000123936 1.98411e-05)
(-1.11511e-05 0.000153305 2.00073e-05)
(0.000280241 -1.09894e-05 1.36621e-05)
(-0.00079845 -7.18687e-05 2.00015e-05)
(-0.000325612 3.36193e-06 1.32804e-05)
(0.000783767 -8.60888e-05 2.14479e-05)
(0.000181176 -0.000180816 9.05093e-05)
(-0.00018077 0.000181101 9.01284e-05)
(0.000181233 0.000180878 9.054e-05)
(-0.000180573 -0.000181178 9.08694e-05)