/*--------------------------------*- C++ -*----------------------------------*\
| =========                 |                                                 |
| \\      /  F ield         | OpenFOAM: The Open Source CFD Toolbox           |
|  \\    /   O peration     | Version:  2206                                  |
|   \\  /    A nd           | Website:  www.openfoam.com                      |
|    \\/     M anipulation  |                                                 |
\*---------------------------------------------------------------------------*/
FoamFile
{
    version     2.0;
    format      ascii;
    arch        "LSB;label=32;scalar=64";
    class       surfaceScalarField;
    location    "4.5";
    object      phi;
}
// * * * * * * * * * * * * * * * * * * * * * * * * * * * * * * * * * * * * * //

dimensions      [0 3 -1 0 0 0 0];

oriented        oriented;

internalField   nonuniform List<scalar> 
81717
(
2.06144e-11
5.61684e-11
-0.00105962
-3.14562e-10
-3.15119e-10
0.00105962
-0.00106031
-1.15452e-06
-5.58936e-11
1.16567e-09
0.00106031
-2.10556e-07
1.15556e-06
2.09657e-07
8.23897e-07
-1.90027e-07
-8.24357e-07
1.88398e-07
-0.00105998
-1.14924e-06
-4.85827e-11
1.15818e-09
0.00105998
-2.10551e-07
1.15027e-06
2.09659e-07
8.2373e-07
-1.92636e-07
-8.24232e-07
1.91029e-07
-0.000260768
1.18211e-06
1.14935e-06
-2.03157e-07
-2.08306e-07
0.000258848
4.17576e-10
4.50059e-10
-0.00105963
-4.70449e-10
-4.70601e-10
0.00105963
-0.00106031
-1.15445e-06
-4.61676e-10
9.88981e-10
0.00106031
-2.10415e-07
1.15564e-06
2.09826e-07
8.24027e-07
-1.89746e-07
-8.24206e-07
1.88749e-07
-0.00105998
-1.14917e-06
-4.55409e-10
9.83713e-10
0.00105998
-2.10409e-07
1.15035e-06
2.09831e-07
8.23857e-07
-1.92358e-07
-8.24085e-07
1.91381e-07
-0.000260768
1.18205e-06
1.14928e-06
-2.03026e-07
-2.08176e-07
0.000258848
4.94067e-10
5.25844e-10
-0.00105963
-5.15212e-10
-5.15802e-10
0.00105963
-0.00106031
-1.15443e-06
-5.36732e-10
9.58526e-10
0.00106031
-2.10397e-07
1.15566e-06
2.09839e-07
8.24045e-07
-1.8972e-07
-8.24182e-07
1.88768e-07
-0.00105998
-1.14915e-06
-5.32002e-10
9.51949e-10
0.00105998
-2.1039e-07
1.15037e-06
2.09844e-07
8.23875e-07
-1.92331e-07
-8.24061e-07
1.914e-07
-0.000260768
1.18203e-06
1.14926e-06
-2.03008e-07
-2.08158e-07
0.000258848
5.05345e-10
5.35291e-10
-0.00105963
-5.20857e-10
-5.23037e-10
0.00105963
-0.00106031
-1.15443e-06
-5.44017e-10
9.53715e-10
0.00106031
-2.10394e-07
1.15566e-06
2.09841e-07
8.24047e-07
-1.89717e-07
-8.2418e-07
1.8877e-07
-0.00105998
-1.14915e-06
-5.3677e-10
9.4867e-10
0.00105998
-2.10388e-07
1.15037e-06
2.09846e-07
8.23877e-07
-1.92329e-07
-8.24059e-07
1.91402e-07
-0.000260768
1.18203e-06
1.14926e-06
-2.03007e-07
-2.08157e-07
0.000258848
4.9841e-10
5.23246e-10
-0.00105963
-5.1337e-10
-5.20557e-10
0.00105963
-0.00106031
-1.15443e-06
-5.38565e-10
9.55172e-10
0.00106031
-2.10395e-07
1.15566e-06
2.0984e-07
8.24044e-07
-1.8972e-07
-8.24182e-07
1.88767e-07
-0.00105998
-1.14915e-06
-5.2851e-10
9.544e-10
0.00105998
-2.10389e-07
1.15036e-06
2.09843e-07
8.23873e-07
-1.92331e-07
-8.24061e-07
1.91398e-07
-0.000260768
1.18203e-06
1.14926e-06
-2.03006e-07
-2.08158e-07
0.000258848
5.08466e-10
5.06157e-10
-0.00105963
-4.9933e-10
-5.28424e-10
0.00105963
-0.00106031
-1.15442e-06
-5.42306e-10
9.28726e-10
0.00106031
-2.10386e-07
1.15566e-06
2.09848e-07
8.24041e-07
-1.89721e-07
-8.24184e-07
1.88766e-07
-0.00105998
-1.14915e-06
-5.20566e-10
9.58193e-10
0.00105998
-2.10391e-07
1.15036e-06
2.09842e-07
8.23872e-07
-1.92333e-07
-8.24063e-07
1.91397e-07
-0.000260768
1.18204e-06
1.14926e-06
-2.03007e-07
-2.08161e-07
0.000258848
5.18156e-10
4.86713e-10
-0.00105963
-4.80906e-10
-5.35903e-10
0.00105963
-0.00106031
-1.15438e-06
-5.58319e-10
8.75386e-10
0.00106031
-2.10339e-07
1.1557e-06
2.0988e-07
8.24035e-07
-1.89727e-07
-8.24189e-07
1.88758e-07
-0.00105998
-1.14916e-06
-5.08279e-10
9.64254e-10
0.00105998
-2.10394e-07
1.15036e-06
2.0984e-07
8.2387e-07
-1.92335e-07
-8.24065e-07
1.91395e-07
-0.000260768
1.18204e-06
1.14927e-06
-2.03009e-07
-2.08164e-07
0.000258848
4.9741e-10
5.09366e-10
-0.00105963
-5.05778e-10
-5.25353e-10
0.00105963
-0.00106031
-1.15443e-06
-5.30869e-10
9.5342e-10
0.00106031
-2.10396e-07
1.15566e-06
2.0984e-07
8.24043e-07
-1.89724e-07
-8.24185e-07
1.88765e-07
-0.00105998
-1.14916e-06
-5.22777e-10
9.61501e-10
0.00105998
-2.10393e-07
1.15036e-06
2.09842e-07
8.23873e-07
-1.92334e-07
-8.24064e-07
1.91398e-07
-0.000260768
1.18204e-06
1.14927e-06
-2.03011e-07
-2.08162e-07
0.000258848
5.08949e-10
5.19264e-10
-0.00105963
-5.11224e-10
-5.33814e-10
0.00105963
-0.00106031
-1.15443e-06
-5.38872e-10
9.5031e-10
0.00106031
-2.10395e-07
1.15566e-06
2.09842e-07
8.24046e-07
-1.89721e-07
-8.24182e-07
1.88768e-07
-0.00105998
-1.14915e-06
-5.54821e-10
9.59112e-10
0.00105998
-2.1039e-07
1.15037e-06
2.09845e-07
8.23879e-07
-1.92328e-07
-8.24058e-07
1.91404e-07
-0.000260768
1.18203e-06
1.14927e-06
-2.03011e-07
-2.08156e-07
0.000258848
5.14031e-10
5.23477e-10
-0.00105963
-5.12456e-10
-5.36014e-10
0.00105963
-0.00106031
-1.15443e-06
-5.40897e-10
9.46398e-10
0.00106031
-2.10393e-07
1.15566e-06
2.09843e-07
8.24046e-07
-1.8972e-07
-8.24181e-07
1.88769e-07
-0.00105998
-1.14915e-06
-5.61129e-10
9.55932e-10
0.00105998
-2.10389e-07
1.15037e-06
2.09845e-07
8.2388e-07
-1.92326e-07
-8.24056e-07
1.91405e-07
-0.000260768
1.18202e-06
1.14927e-06
-2.0301e-07
-2.08154e-07
0.000258848
5.22246e-10
5.32272e-10
-0.00105963
-5.16822e-10
-5.40738e-10
0.00105963
-0.00106031
-1.15443e-06
-5.49136e-10
9.41692e-10
0.00106031
-2.10391e-07
1.15566e-06
2.09844e-07
8.24048e-07
-1.89716e-07
-8.24178e-07
1.88771e-07
-0.00105998
-1.14915e-06
-5.69056e-10
9.52298e-10
0.00105998
-2.10387e-07
1.15037e-06
2.09846e-07
8.23882e-07
-1.92323e-07
-8.24053e-07
1.91407e-07
-0.000260768
1.18202e-06
1.14927e-06
-2.03008e-07
-2.08151e-07
0.000258848
5.22229e-10
5.285e-10
-0.00105963
-5.15951e-10
-5.41159e-10
0.00105963
-0.00106031
-1.15443e-06
-5.46605e-10
9.44024e-10
0.00106031
-2.10391e-07
1.15566e-06
2.09843e-07
8.24048e-07
-1.89717e-07
-8.24178e-07
1.8877e-07
-0.00105998
-1.14915e-06
-5.67618e-10
9.55499e-10
0.00105998
-2.10388e-07
1.15037e-06
2.09845e-07
8.2388e-07
-1.92323e-07
-8.24053e-07
1.91406e-07
-0.000260768
1.18202e-06
1.14927e-06
-2.03008e-07
-2.08151e-07
0.000258848
5.15603e-10
5.24558e-10
-0.00105963
-5.12299e-10
-5.36183e-10
0.00105963
-0.00106031
-1.15443e-06
-5.42792e-10
9.46251e-10
0.00106031
-2.10392e-07
1.15566e-06
2.09842e-07
8.24046e-07
-1.89719e-07
-8.2418e-07
1.88768e-07
-0.00105998
-1.14915e-06
-5.65505e-10
9.55463e-10
0.00105998
-2.10388e-07
1.15037e-06
2.09845e-07
8.23879e-07
-1.92325e-07
-8.24054e-07
1.91405e-07
-0.000260768
1.18202e-06
1.14927e-06
-2.03009e-07
-2.08153e-07
0.000258848
5.09857e-10
5.18801e-10
-0.00105963
-5.10767e-10
-5.34284e-10
0.00105963
-0.00106031
-1.15443e-06
-5.38894e-10
9.51134e-10
0.00106031
-2.10394e-07
1.15566e-06
2.09841e-07
8.24045e-07
-1.8972e-07
-8.24181e-07
1.88767e-07
-0.00105998
-1.14915e-06
-5.6269e-10
9.59241e-10
0.00105998
-2.1039e-07
1.15037e-06
2.09844e-07
8.23879e-07
-1.92326e-07
-8.24055e-07
1.91404e-07
-0.000260768
1.18202e-06
1.14927e-06
-2.03009e-07
-2.08153e-07
0.000258848
5.03069e-10
5.13514e-10
-0.00105963
-5.08775e-10
-5.31625e-10
0.00105963
-0.00106031
-1.15443e-06
-5.3009e-10
9.55751e-10
0.00106031
-2.10396e-07
1.15565e-06
2.09839e-07
8.24043e-07
-1.89722e-07
-8.24184e-07
1.88765e-07
-0.00105998
-1.14916e-06
-5.51997e-10
9.64083e-10
0.00105998
-2.10392e-07
1.15036e-06
2.09842e-07
8.23877e-07
-1.92329e-07
-8.24058e-07
1.91402e-07
-0.000260768
1.18203e-06
1.14927e-06
-2.03013e-07
-2.08155e-07
0.000258848
5.01879e-10
5.20901e-10
-0.00105963
-5.11172e-10
-5.25603e-10
0.00105963
-0.00106031
-1.15443e-06
-5.4266e-10
9.6045e-10
0.00106031
-2.10396e-07
1.15566e-06
2.09839e-07
8.24048e-07
-1.89719e-07
-8.2418e-07
1.88769e-07
-0.00105998
-1.14915e-06
-5.7372e-10
9.61846e-10
0.00105998
-2.10391e-07
1.15037e-06
2.09845e-07
8.23882e-07
-1.92326e-07
-8.24055e-07
1.91408e-07
-0.000260768
1.18202e-06
1.14927e-06
-2.03012e-07
-2.08154e-07
0.000258848
5.53286e-10
6.12907e-10
-0.00105963
-5.632e-10
-5.43507e-10
0.00105963
-0.00106031
-1.15442e-06
-6.52943e-10
9.6587e-10
0.00106031
-2.10381e-07
1.15565e-06
2.09843e-07
8.24067e-07
-1.89688e-07
-8.24139e-07
1.88793e-07
-0.00105998
-1.14912e-06
-7.3313e-10
8.9572e-10
0.00105998
-2.1034e-07
1.15038e-06
2.09863e-07
8.2391e-07
-1.92251e-07
-8.23998e-07
1.91417e-07
-0.000260768
1.18198e-06
1.14923e-06
-2.02969e-07
-2.08108e-07
0.000258848
-1.18836e-06
-1.15298e-06
0.000260783
-0.000258853
2.01643e-07
2.09234e-07
0.00105955
-4.12731e-10
-0.00105955
1.03099e-09
-1.18721e-06
2.14994e-07
-2.15629e-07
-8.24195e-07
1.88548e-07
-1.89477e-07
8.2377e-07
1.19368e-06
0.00105998
-3.96563e-10
-0.00105998
1.03447e-09
-1.19253e-06
2.17734e-07
-2.18364e-07
-8.29663e-07
1.91283e-07
-1.92237e-07
8.29228e-07
-1.15557e-06
0.000260811
-0.000258873
2.04331e-07
2.06602e-07
0.00106057
-4.39509e-10
-0.00106057
9.96526e-10
-1.15183e-06
2.12459e-07
-2.13068e-07
-8.26904e-07
1.91306e-07
-1.92238e-07
8.26507e-07
1.18841e-06
0.00105966
-3.95346e-10
-0.00105966
1.02662e-09
-1.18727e-06
2.17712e-07
-2.18341e-07
-8.26861e-07
1.91258e-07
-1.92186e-07
8.26426e-07
-4.36595e-10
-0.00106031
1.00729e-09
-1.1544e-06
2.0972e-07
-2.10336e-07
-8.24249e-07
1.8861e-07
8.23829e-07
-1.89548e-07
1.18315e-06
0.00105946
-3.98976e-10
-0.00105946
1.03153e-09
-1.182e-06
2.12296e-07
-2.12908e-07
-8.24235e-07
1.88538e-07
-1.89486e-07
8.23791e-07
-1.15028e-06
0.000260763
-0.000258835
2.01806e-07
2.09059e-07
-4.37546e-10
-0.00105998
9.95932e-10
-1.14912e-06
2.09726e-07
-2.10326e-07
-8.24081e-07
1.91227e-07
8.23711e-07
-1.9217e-07
1.15038e-06
0.00106048
-4.31432e-10
-0.00106048
9.94858e-10
-1.14923e-06
2.09782e-07
-2.1038e-07
-8.24343e-07
1.91287e-07
-1.92224e-07
8.23934e-07
-0.000258848
2.04109e-07
2.09265e-07
1.18733e-06
1.15194e-06
-2.00692e-07
-2.08274e-07
0.000258853
-1.18843e-06
-1.15305e-06
0.000260784
-0.000258853
2.01716e-07
2.09306e-07
1.18927e-09
0.00105955
-2.15851e-07
1.18835e-06
2.14932e-07
8.23834e-07
-1.89962e-07
-8.24305e-07
1.88323e-07
-1.19265e-06
-2.5358e-11
1.19364e-09
0.00105998
-2.18586e-07
1.19367e-06
2.1767e-07
8.29297e-07
-1.92715e-07
-8.29762e-07
1.91067e-07
0.00105955
-3.60645e-10
-0.00105955
1.04912e-09
-1.18728e-06
2.1509e-07
-2.15729e-07
-8.24179e-07
1.88652e-07
-1.89722e-07
8.23945e-07
1.19375e-06
0.00105998
-3.4504e-10
-0.00105998
1.04988e-09
-1.19259e-06
2.17828e-07
-2.18464e-07
-8.29643e-07
1.91392e-07
-1.92476e-07
8.294e-07
-2.03361e-07
-2.05643e-07
0.000258873
-1.15563e-06
0.000260812
-0.000258874
2.04403e-07
2.06675e-07
1.15944e-09
0.00106057
-2.1329e-07
1.15297e-06
2.12394e-07
8.26575e-07
-1.92717e-07
-8.27012e-07
1.91088e-07
-1.18738e-06
-2.06999e-11
1.19762e-09
0.00105966
-2.18566e-07
1.1884e-06
2.17643e-07
8.26491e-07
-1.92662e-07
-8.26966e-07
1.91036e-07
0.00106058
-3.8636e-10
-0.00106058
1.0108e-09
-1.15189e-06
2.12554e-07
-2.13167e-07
-8.26888e-07
1.91413e-07
-1.92478e-07
8.2668e-07
1.18847e-06
0.00105966
-3.41338e-10
-0.00105966
1.04791e-09
-1.18733e-06
2.17804e-07
-2.18444e-07
-8.26844e-07
1.91357e-07
-1.92431e-07
8.266e-07
-1.95102e-11
1.19318e-09
0.00105946
-2.13133e-07
1.18313e-06
2.12224e-07
8.23862e-07
-1.89966e-07
1.88325e-07
-8.24334e-07
-3.89133e-10
-0.00106031
1.02092e-09
-1.15447e-06
2.09814e-07
-2.10435e-07
-8.2423e-07
1.88726e-07
8.24007e-07
-1.89782e-07
1.1832e-06
0.00105946
-3.46491e-10
-0.00105946
1.05455e-09
-1.18206e-06
2.12383e-07
-2.13017e-07
-8.24213e-07
1.88651e-07
-1.89724e-07
8.23967e-07
-2.00851e-07
-2.08106e-07
0.000258835
-1.15034e-06
0.000260763
-0.000258835
2.01878e-07
2.0913e-07
-5.11535e-11
1.1574e-09
0.00106048
-2.10604e-07
1.15037e-06
2.09712e-07
8.23999e-07
-1.92704e-07
1.91074e-07
-8.24455e-07
-3.82628e-10
-0.00105998
1.01473e-09
-1.14918e-06
2.09819e-07
-2.10428e-07
-8.24062e-07
1.91335e-07
8.23887e-07
-1.92415e-07
1.15044e-06
0.00106048
-3.69736e-10
-0.00106048
1.01526e-09
-1.1493e-06
2.09869e-07
-2.10487e-07
-8.24328e-07
1.91399e-07
-1.92462e-07
8.24111e-07
-0.000258848
2.04177e-07
2.09331e-07
1.18726e-06
1.15188e-06
-2.00558e-07
-2.0814e-07
0.000258853
-1.18845e-06
-1.15307e-06
0.000260784
-0.000258853
2.01743e-07
2.09335e-07
1.01646e-09
0.00105955
-2.15708e-07
1.18844e-06
2.15102e-07
8.23962e-07
-1.89692e-07
-8.2416e-07
1.8867e-07
-1.19258e-06
-4.20882e-10
1.01934e-09
0.00105998
-2.18444e-07
1.19376e-06
2.1784e-07
8.29421e-07
-1.92442e-07
-8.29619e-07
1.91414e-07
0.00105955
-5.05297e-10
-0.00105955
9.87935e-10
-1.18724e-06
2.1512e-07
-2.15688e-07
-8.24137e-07
1.88695e-07
-1.89659e-07
8.23979e-07
1.19377e-06
0.00105998
-4.89055e-10
-0.00105998
9.90742e-10
-1.19256e-06
2.17858e-07
-2.18423e-07
-8.29601e-07
1.91434e-07
-1.92416e-07
8.29436e-07
-2.03229e-07
-2.05508e-07
0.000258874
-1.15566e-06
0.000260812
-0.000258874
2.0443e-07
2.06703e-07
9.84074e-10
0.00106058
-2.13147e-07
1.15306e-06
2.12565e-07
8.26701e-07
-1.92447e-07
-8.26867e-07
1.91433e-07
-1.18731e-06
-4.16274e-10
1.02276e-09
0.00105966
-2.18424e-07
1.18848e-06
2.17816e-07
8.26622e-07
-1.92397e-07
-8.26819e-07
1.91379e-07
0.00106058
-5.30542e-10
-0.00106058
9.50827e-10
-1.15186e-06
2.12584e-07
-2.13126e-07
-8.26845e-07
1.91455e-07
-1.92415e-07
8.26715e-07
1.1885e-06
0.00105966
-4.86467e-10
-0.00105966
9.85664e-10
-1.18729e-06
2.17835e-07
-2.18402e-07
-8.26802e-07
1.91399e-07
-1.9237e-07
8.26634e-07
-4.20837e-10
1.01897e-09
0.00105946
-2.12995e-07
1.18322e-06
2.12395e-07
8.23988e-07
-1.89687e-07
1.88675e-07
-8.24188e-07
-5.31557e-10
-0.00106031
9.6257e-10
-1.15443e-06
2.09844e-07
-2.10394e-07
-8.24188e-07
1.88767e-07
8.24042e-07
-1.89723e-07
1.18323e-06
0.00105946
-4.86766e-10
-0.00105946
9.95029e-10
-1.18203e-06
2.12411e-07
-2.12975e-07
-8.24172e-07
1.88692e-07
-1.89664e-07
8.24001e-07
-2.00716e-07
-2.07972e-07
0.000258835
-1.15037e-06
0.000260763
-0.000258835
2.01906e-07
2.0916e-07
-4.57445e-10
9.81425e-10
0.00106048
-2.10465e-07
1.15046e-06
2.09882e-07
8.24134e-07
-1.92423e-07
1.91426e-07
-8.24301e-07
-5.29853e-10
-0.00105998
9.52758e-10
-1.14915e-06
2.09849e-07
-2.10386e-07
-8.24019e-07
1.91378e-07
8.23923e-07
-1.92353e-07
1.15047e-06
0.00106048
-5.1607e-10
-0.00106048
9.57086e-10
-1.14926e-06
2.09898e-07
-2.10446e-07
-8.24286e-07
1.91441e-07
-1.92401e-07
8.24145e-07
-0.000258848
2.04205e-07
2.09358e-07
1.18724e-06
1.15186e-06
-2.00539e-07
-2.08121e-07
0.000258853
-1.18845e-06
-1.15308e-06
0.000260784
-0.000258853
2.01747e-07
2.09338e-07
9.84222e-10
0.00105955
-2.15689e-07
1.18845e-06
2.15116e-07
8.23979e-07
-1.89666e-07
-8.24137e-07
1.88688e-07
-1.19256e-06
-4.96489e-10
9.88642e-10
0.00105998
-2.18425e-07
1.19377e-06
2.17854e-07
8.29439e-07
-1.92416e-07
-8.29596e-07
1.91432e-07
0.00105955
-5.22384e-10
-0.00105955
9.8026e-10
-1.18724e-06
2.15124e-07
-2.15683e-07
-8.24132e-07
1.88699e-07
-1.89654e-07
8.23983e-07
1.19378e-06
0.00105998
-5.06055e-10
-0.00105998
9.83952e-10
-1.19256e-06
2.17862e-07
-2.18419e-07
-8.29596e-07
1.91437e-07
-1.92411e-07
8.29439e-07
-2.03211e-07
-2.05488e-07
0.000258874
-1.15566e-06
0.000260812
-0.000258874
2.04433e-07
2.06705e-07
9.52629e-10
0.00106058
-2.13128e-07
1.15307e-06
2.12579e-07
8.26718e-07
-1.92422e-07
-8.26843e-07
1.9145e-07
-1.1873e-06
-4.92152e-10
9.90937e-10
0.00105966
-2.18404e-07
1.1885e-06
2.1783e-07
8.26639e-07
-1.92372e-07
-8.26796e-07
1.91397e-07
0.00106058
-5.45903e-10
-0.00106058
9.41903e-10
-1.15186e-06
2.12588e-07
-2.13121e-07
-8.26841e-07
1.91459e-07
-1.9241e-07
8.26718e-07
1.1885e-06
0.00105966
-5.01305e-10
-0.00105966
9.80438e-10
-1.18729e-06
2.17838e-07
-2.18398e-07
-8.26798e-07
1.91401e-07
-1.92366e-07
8.26637e-07
-4.97392e-10
9.87899e-10
0.00105946
-2.12977e-07
1.18323e-06
2.12408e-07
8.24006e-07
-1.89662e-07
1.88693e-07
-8.24164e-07
-5.4548e-10
-0.00106031
9.53357e-10
-1.15443e-06
2.09846e-07
-2.10391e-07
-8.24184e-07
1.88771e-07
8.24046e-07
-1.89719e-07
1.18323e-06
0.00105946
-4.99907e-10
-0.00105946
9.91045e-10
-1.18203e-06
2.12412e-07
-2.12973e-07
-8.24169e-07
1.88694e-07
-1.89661e-07
8.24004e-07
-2.00697e-07
-2.07951e-07
0.000258835
-1.15037e-06
0.000260763
-0.000258835
2.01908e-07
2.09162e-07
-5.29436e-10
9.50949e-10
0.00106048
-2.10448e-07
1.15047e-06
2.09894e-07
8.24151e-07
-1.92398e-07
1.91443e-07
-8.24278e-07
-5.41204e-10
-0.00105998
9.4489e-10
-1.14915e-06
2.09852e-07
-2.10383e-07
-8.24016e-07
1.91381e-07
8.23925e-07
-1.92349e-07
1.15047e-06
0.00106048
-5.28293e-10
-0.00106048
9.51696e-10
-1.14926e-06
2.099e-07
-2.10443e-07
-8.24283e-07
1.91443e-07
-1.92398e-07
8.24147e-07
-0.000258848
2.04206e-07
2.09359e-07
1.18724e-06
1.15186e-06
-2.00535e-07
-2.08118e-07
0.000258853
-1.18845e-06
-1.15307e-06
0.000260784
-0.000258853
2.01745e-07
2.09335e-07
9.80507e-10
0.00105955
-2.15686e-07
1.18845e-06
2.15118e-07
8.23982e-07
-1.89663e-07
-8.24134e-07
1.88691e-07
-1.19256e-06
-5.07601e-10
9.84682e-10
0.00105998
-2.18422e-07
1.19377e-06
2.17856e-07
8.29441e-07
-1.92414e-07
-8.29592e-07
1.91435e-07
0.00105955
-5.1798e-10
-0.00105955
9.87118e-10
-1.18724e-06
2.15121e-07
-2.15685e-07
-8.24134e-07
1.88696e-07
-1.89656e-07
8.23981e-07
1.19378e-06
0.00105998
-5.02353e-10
-0.00105998
9.83776e-10
-1.19256e-06
2.17861e-07
-2.18419e-07
-8.29598e-07
1.91436e-07
-1.92413e-07
8.29438e-07
-2.03208e-07
-2.05485e-07
0.000258874
-1.15566e-06
0.000260812
-0.000258874
2.04432e-07
2.06705e-07
9.47643e-10
0.00106058
-2.13125e-07
1.15307e-06
2.12581e-07
8.2672e-07
-1.92419e-07
-8.2684e-07
1.91452e-07
-1.18729e-06
-5.0185e-10
9.88645e-10
0.00105966
-2.18402e-07
1.1885e-06
2.17832e-07
8.26641e-07
-1.9237e-07
-8.26794e-07
1.91399e-07
0.00106058
-5.37946e-10
-0.00106058
9.45189e-10
-1.15186e-06
2.12586e-07
-2.13123e-07
-8.26842e-07
1.91456e-07
-1.92412e-07
8.26716e-07
1.1885e-06
0.00105966
-4.96556e-10
-0.00105966
9.82943e-10
-1.18729e-06
2.17836e-07
-2.18399e-07
-8.26799e-07
1.914e-07
-1.92367e-07
8.26635e-07
-5.02378e-10
9.87904e-10
0.00105946
-2.12976e-07
1.18323e-06
2.12409e-07
8.24007e-07
-1.8966e-07
1.88694e-07
-8.24163e-07
-5.45876e-10
-0.00106031
9.54353e-10
-1.15443e-06
2.09846e-07
-2.1039e-07
-8.24184e-07
1.88769e-07
8.24044e-07
-1.8972e-07
1.18323e-06
0.00105946
-5.02873e-10
-0.00105946
9.92415e-10
-1.18203e-06
2.12412e-07
-2.12972e-07
-8.24168e-07
1.88693e-07
-1.89661e-07
8.24004e-07
-2.00695e-07
-2.07949e-07
0.000258835
-1.15037e-06
0.000260763
-0.000258835
2.01907e-07
2.09161e-07
-5.32629e-10
9.49473e-10
0.00106048
-2.10447e-07
1.15047e-06
2.09895e-07
8.24152e-07
-1.92397e-07
1.91444e-07
-8.24277e-07
-5.39707e-10
-0.00105998
9.49754e-10
-1.14915e-06
2.0985e-07
-2.10383e-07
-8.24016e-07
1.91379e-07
8.23924e-07
-1.92349e-07
1.15047e-06
0.00106048
-5.24633e-10
-0.00106048
9.51097e-10
-1.14926e-06
2.09899e-07
-2.10442e-07
-8.24283e-07
1.91442e-07
-1.92399e-07
8.24146e-07
-0.000258848
2.04206e-07
2.09359e-07
1.18724e-06
1.15186e-06
-2.00537e-07
-2.08121e-07
0.000258853
-1.18845e-06
-1.15307e-06
0.000260784
-0.000258853
2.01746e-07
2.0933e-07
9.90392e-10
0.00105955
-2.15689e-07
1.18845e-06
2.15114e-07
8.23979e-07
-1.89665e-07
-8.24136e-07
1.88688e-07
-1.19256e-06
-5.01837e-10
9.86722e-10
0.00105998
-2.18424e-07
1.19377e-06
2.17854e-07
8.29439e-07
-1.92416e-07
-8.29595e-07
1.91432e-07
0.00105955
-5.1974e-10
-0.00105955
1.00665e-09
-1.18725e-06
2.15115e-07
-2.1569e-07
-8.24133e-07
1.88696e-07
-1.89656e-07
8.23982e-07
1.19377e-06
0.00105998
-5.09563e-10
-0.00105998
9.79347e-10
-1.19256e-06
2.17859e-07
-2.1842e-07
-8.29596e-07
1.91434e-07
-1.9241e-07
8.29437e-07
-2.03209e-07
-2.05487e-07
0.000258874
-1.15566e-06
0.000260812
-0.000258874
2.04432e-07
2.06702e-07
9.5171e-10
0.00106058
-2.13127e-07
1.15307e-06
2.12579e-07
8.26716e-07
-1.92421e-07
-8.26843e-07
1.91447e-07
-1.18729e-06
-4.93365e-10
9.94349e-10
0.00105966
-2.18404e-07
1.1885e-06
2.17829e-07
8.26638e-07
-1.92371e-07
-8.26795e-07
1.91396e-07
0.00106058
-5.20056e-10
-0.00106058
9.42769e-10
-1.15186e-06
2.12586e-07
-2.13123e-07
-8.26846e-07
1.91451e-07
-1.92415e-07
8.26712e-07
1.1885e-06
0.00105966
-4.83825e-10
-0.00105966
9.93306e-10
-1.1873e-06
2.17832e-07
-2.18403e-07
-8.26801e-07
1.91397e-07
-1.92369e-07
8.26633e-07
-4.98204e-10
9.96879e-10
0.00105946
-2.12978e-07
1.18323e-06
2.12406e-07
8.24005e-07
-1.89662e-07
1.88692e-07
-8.24164e-07
-5.40801e-10
-0.00106031
9.43392e-10
-1.15443e-06
2.09848e-07
-2.10387e-07
-8.24187e-07
1.88766e-07
8.24041e-07
-1.89722e-07
1.18322e-06
0.00105946
-4.94808e-10
-0.00105946
1.01087e-09
-1.18203e-06
2.12406e-07
-2.12978e-07
-8.24169e-07
1.88692e-07
-1.89662e-07
8.24002e-07
-2.00696e-07
-2.0795e-07
0.000258835
-1.15037e-06
0.000260763
-0.000258835
2.01905e-07
2.09157e-07
-5.19441e-10
9.53652e-10
0.00106048
-2.10447e-07
1.15047e-06
2.09893e-07
8.24147e-07
-1.924e-07
1.91439e-07
-8.2428e-07
-5.26329e-10
-0.00105998
9.57883e-10
-1.14915e-06
2.09848e-07
-2.10386e-07
-8.24019e-07
1.91376e-07
8.23921e-07
-1.92353e-07
1.15047e-06
0.00106048
-5.06668e-10
-0.00106048
9.53349e-10
-1.14926e-06
2.09897e-07
-2.10444e-07
-8.24286e-07
1.91438e-07
-1.92402e-07
8.24142e-07
-0.000258848
2.04204e-07
2.09354e-07
1.18725e-06
1.15186e-06
-2.00535e-07
-2.08125e-07
0.000258853
-1.18844e-06
-1.15308e-06
0.000260784
-0.000258853
2.01747e-07
2.09328e-07
1.01097e-09
0.00105955
-2.15694e-07
1.18844e-06
2.1511e-07
8.23983e-07
-1.89663e-07
-8.24133e-07
1.88691e-07
-1.19256e-06
-5.29622e-10
9.71255e-10
0.00105998
-2.18421e-07
1.19377e-06
2.17856e-07
8.29443e-07
-1.92405e-07
-8.29588e-07
1.91437e-07
0.00105955
-5.38999e-10
-0.00105955
1.03785e-09
-1.18725e-06
2.15111e-07
-2.15695e-07
-8.24127e-07
1.887e-07
-1.89652e-07
8.23986e-07
1.19379e-06
0.00105998
-6.66344e-10
-0.00105998
8.75403e-10
-1.19254e-06
2.17898e-07
-2.18383e-07
-8.29552e-07
1.91501e-07
-1.92343e-07
8.29481e-07
-2.03199e-07
-2.05487e-07
0.000258874
-1.1557e-06
0.000260812
-0.000258874
2.04507e-07
2.06707e-07
9.43188e-10
0.00106058
-2.13125e-07
1.15307e-06
2.12581e-07
8.26713e-07
-1.92424e-07
-8.26846e-07
1.91443e-07
-1.1873e-06
-4.85229e-10
1.0022e-09
0.00105966
-2.18407e-07
1.18849e-06
2.17827e-07
8.26637e-07
-1.92373e-07
-8.26797e-07
1.91395e-07
0.00106058
-5.02667e-10
-0.00106058
9.32521e-10
-1.15186e-06
2.12587e-07
-2.13122e-07
-8.26849e-07
1.91449e-07
-1.92418e-07
8.2671e-07
1.1885e-06
0.00105966
-4.77573e-10
-0.00105966
9.98623e-10
-1.1873e-06
2.17832e-07
-2.18404e-07
-8.26803e-07
1.91396e-07
-1.92371e-07
8.26632e-07
-4.98283e-10
1.0135e-09
0.00105946
-2.12982e-07
1.18322e-06
2.12402e-07
8.24005e-07
-1.89661e-07
1.88692e-07
-8.24163e-07
-5.59963e-10
-0.00106031
8.58857e-10
-1.15439e-06
2.09896e-07
-2.10342e-07
-8.24191e-07
1.88761e-07
8.24034e-07
-1.89724e-07
1.18322e-06
0.00105946
-4.95768e-10
-0.00105946
1.03233e-09
-1.18204e-06
2.12404e-07
-2.12981e-07
-8.2417e-07
1.88691e-07
-1.89663e-07
8.24002e-07
-2.00698e-07
-2.07953e-07
0.000258835
-1.15036e-06
0.000260763
-0.000258835
2.01903e-07
2.09157e-07
-5.08359e-10
9.50707e-10
0.00106048
-2.10448e-07
1.15047e-06
2.09893e-07
8.24146e-07
-1.92402e-07
1.91438e-07
-8.24282e-07
-5.1591e-10
-0.00105998
9.61496e-10
-1.14915e-06
2.09846e-07
-2.10388e-07
-8.24021e-07
1.91375e-07
8.23919e-07
-1.92355e-07
1.15047e-06
0.00106048
-4.89913e-10
-0.00106048
9.51477e-10
-1.14926e-06
2.09897e-07
-2.10445e-07
-8.24289e-07
1.91436e-07
-1.92405e-07
8.2414e-07
-0.000258848
2.04204e-07
2.09352e-07
1.18725e-06
1.15186e-06
-2.00535e-07
-2.08127e-07
0.000258853
-1.18845e-06
-1.15307e-06
0.000260784
-0.000258853
2.01744e-07
2.09332e-07
1.03719e-09
0.00105955
-2.15698e-07
1.18844e-06
2.15106e-07
8.23984e-07
-1.89661e-07
-8.2413e-07
1.88692e-07
-1.19254e-06
-6.05721e-10
9.07364e-10
0.00105998
-2.18389e-07
1.19378e-06
2.17872e-07
8.29466e-07
-1.92363e-07
-8.29551e-07
1.91457e-07
0.00105955
-5.16153e-10
-0.00105955
1.00377e-09
-1.18725e-06
2.15116e-07
-2.15691e-07
-8.24136e-07
1.88696e-07
-1.89658e-07
8.2398e-07
1.19377e-06
0.00105998
-4.97202e-10
-0.00105998
9.80299e-10
-1.19256e-06
2.17858e-07
-2.18424e-07
-8.296e-07
1.91436e-07
-1.92412e-07
8.29436e-07
-2.03126e-07
-2.05484e-07
0.000258874
-1.15566e-06
0.000260812
-0.000258874
2.04433e-07
2.06703e-07
9.39002e-10
0.00106058
-2.13126e-07
1.15307e-06
2.1258e-07
8.26711e-07
-1.92427e-07
-8.26849e-07
1.91441e-07
-1.1873e-06
-4.76304e-10
1.00775e-09
0.00105966
-2.18408e-07
1.18849e-06
2.17826e-07
8.26634e-07
-1.92375e-07
-8.26799e-07
1.91393e-07
0.00106058
-5.16911e-10
-0.00106058
9.44861e-10
-1.15186e-06
2.12584e-07
-2.13125e-07
-8.26849e-07
1.91451e-07
-1.92418e-07
8.26712e-07
1.1885e-06
0.00105966
-4.78191e-10
-0.00105966
9.97332e-10
-1.1873e-06
2.17832e-07
-2.18404e-07
-8.26805e-07
1.91396e-07
-1.92373e-07
8.26631e-07
-4.96384e-10
1.02969e-09
0.00105946
-2.12985e-07
1.18322e-06
2.124e-07
8.24004e-07
-1.89663e-07
1.88691e-07
-8.24165e-07
-5.31346e-10
-0.00106031
9.51306e-10
-1.15443e-06
2.09846e-07
-2.10391e-07
-8.2419e-07
1.88765e-07
8.24041e-07
-1.89727e-07
1.18322e-06
0.00105946
-4.82011e-10
-0.00105946
1.01225e-09
-1.18204e-06
2.12407e-07
-2.12979e-07
-8.24173e-07
1.88689e-07
-1.89666e-07
8.24e-07
-2.007e-07
-2.07954e-07
0.000258835
-1.15036e-06
0.000260763
-0.000258835
2.01903e-07
2.09157e-07
-4.91662e-10
9.5053e-10
0.00106048
-2.1045e-07
1.15047e-06
2.09892e-07
8.24144e-07
-1.92405e-07
1.91436e-07
-8.24285e-07
-5.21171e-10
-0.00105998
9.62666e-10
-1.14915e-06
2.09846e-07
-2.1039e-07
-8.24021e-07
1.91376e-07
8.2392e-07
-1.92355e-07
1.15047e-06
0.00106048
-4.84543e-10
-0.00106048
9.52097e-10
-1.14927e-06
2.09895e-07
-2.10448e-07
-8.24292e-07
1.91434e-07
-1.92408e-07
8.24139e-07
-0.000258848
2.04202e-07
2.09354e-07
1.18725e-06
1.15186e-06
-2.00539e-07
-2.08124e-07
0.000258853
-1.18845e-06
-1.15307e-06
0.000260784
-0.000258853
2.01744e-07
2.09335e-07
1.00066e-09
0.00105955
-2.15693e-07
1.18845e-06
2.15113e-07
8.23979e-07
-1.89667e-07
-8.24138e-07
1.88688e-07
-1.19256e-06
-4.8736e-10
9.82416e-10
0.00105998
-2.18427e-07
1.19377e-06
2.17852e-07
8.29436e-07
-1.92418e-07
-8.29599e-07
1.91431e-07
0.00105955
-5.23793e-10
-0.00105955
9.95204e-10
-1.18724e-06
2.1512e-07
-2.15687e-07
-8.24134e-07
1.88697e-07
-1.89656e-07
8.23982e-07
1.19377e-06
0.00105998
-4.57271e-10
-0.00105998
9.78984e-10
-1.19256e-06
2.17857e-07
-2.18424e-07
-8.29604e-07
1.9143e-07
-1.92419e-07
8.29432e-07
-2.0321e-07
-2.05489e-07
0.000258874
-1.15566e-06
0.000260812
-0.000258874
2.04432e-07
2.06702e-07
9.52564e-10
0.00106058
-2.13129e-07
1.15307e-06
2.12578e-07
8.26714e-07
-1.92425e-07
-8.26848e-07
1.91444e-07
-1.1873e-06
-4.82576e-10
1.00332e-09
0.00105966
-2.18408e-07
1.18849e-06
2.17827e-07
8.26636e-07
-1.92375e-07
-8.268e-07
1.91394e-07
0.00106058
-5.30533e-10
-0.00106058
9.503e-10
-1.15186e-06
2.12584e-07
-2.13125e-07
-8.26846e-07
1.91455e-07
-1.92414e-07
8.26715e-07
1.1885e-06
0.00105966
-4.87858e-10
-0.00105966
9.91939e-10
-1.1873e-06
2.17833e-07
-2.18403e-07
-8.26801e-07
1.914e-07
-1.92368e-07
8.26635e-07
-4.84861e-10
1.0038e-09
0.00105946
-2.12981e-07
1.18322e-06
2.12405e-07
8.24003e-07
-1.89666e-07
1.88689e-07
-8.24167e-07
-5.37738e-10
-0.00106031
9.52426e-10
-1.15443e-06
2.09847e-07
-2.10391e-07
-8.24187e-07
1.88768e-07
8.24044e-07
-1.89723e-07
1.18323e-06
0.00105946
-4.98786e-10
-0.00105946
9.9298e-10
-1.18203e-06
2.12418e-07
-2.12969e-07
-8.24174e-07
1.88688e-07
-1.89668e-07
8.23999e-07
-2.007e-07
-2.07954e-07
0.000258835
-1.15037e-06
0.000260763
-0.000258835
2.01907e-07
2.09159e-07
-4.80472e-10
9.44081e-10
0.00106048
-2.10452e-07
1.15046e-06
2.09891e-07
8.24142e-07
-1.92408e-07
1.91434e-07
-8.24287e-07
-5.56081e-10
-0.00105998
9.57076e-10
-1.14915e-06
2.0985e-07
-2.10385e-07
-8.24015e-07
1.91382e-07
8.23927e-07
-1.92349e-07
1.15046e-06
0.00106048
-4.09903e-10
-0.00106048
9.30069e-10
-1.14927e-06
2.09895e-07
-2.10448e-07
-8.24301e-07
1.91424e-07
-1.92418e-07
8.24129e-07
-0.000258848
2.04203e-07
2.09361e-07
1.18724e-06
1.15186e-06
-2.00539e-07
-2.08121e-07
0.000258853
-1.18845e-06
-1.15307e-06
0.000260784
-0.000258853
2.01744e-07
2.09336e-07
9.93885e-10
0.00105955
-2.1569e-07
1.18845e-06
2.15115e-07
8.23981e-07
-1.89665e-07
-8.24136e-07
1.8869e-07
-1.19256e-06
-4.56314e-10
9.78422e-10
0.00105998
-2.18427e-07
1.19377e-06
2.17852e-07
8.29434e-07
-1.92422e-07
-8.29601e-07
1.91427e-07
0.00105955
-5.2727e-10
-0.00105955
9.92293e-10
-1.18724e-06
2.15121e-07
-2.15686e-07
-8.24134e-07
1.88698e-07
-1.89656e-07
8.23982e-07
1.19377e-06
0.00105998
-4.50465e-10
-0.00105998
9.73566e-10
-1.19256e-06
2.17858e-07
-2.18423e-07
-8.29606e-07
1.91429e-07
-1.92421e-07
8.29431e-07
-2.0321e-07
-2.05489e-07
0.000258874
-1.15566e-06
0.000260812
-0.000258874
2.04432e-07
2.06703e-07
9.5644e-10
0.00106058
-2.13129e-07
1.15307e-06
2.12578e-07
8.26717e-07
-1.92422e-07
-8.26845e-07
1.91447e-07
-1.1873e-06
-4.90479e-10
9.9893e-10
0.00105966
-2.18408e-07
1.18849e-06
2.17827e-07
8.26639e-07
-1.92372e-07
-8.26796e-07
1.91398e-07
0.00106058
-5.31911e-10
-0.00106058
9.52435e-10
-1.15186e-06
2.12584e-07
-2.13126e-07
-8.26845e-07
1.91455e-07
-1.92414e-07
8.26716e-07
1.1885e-06
0.00105966
-4.8977e-10
-0.00105966
9.86952e-10
-1.1873e-06
2.17834e-07
-2.18403e-07
-8.268e-07
1.91401e-07
-1.92368e-07
8.26636e-07
-5.05635e-10
9.88559e-10
0.00105946
-2.12972e-07
1.18323e-06
2.12414e-07
8.24002e-07
-1.89667e-07
1.88688e-07
-8.24169e-07
-5.429e-10
-0.00106031
9.48847e-10
-1.15443e-06
2.09848e-07
-2.1039e-07
-8.24185e-07
1.88769e-07
8.24045e-07
-1.89721e-07
1.18324e-06
0.00105946
-5.09204e-10
-0.00105946
9.83517e-10
-1.18202e-06
2.12421e-07
-2.12965e-07
-8.24173e-07
1.88689e-07
-1.89666e-07
8.24e-07
-2.00697e-07
-2.07953e-07
0.000258835
-1.15037e-06
0.000260763
-0.000258835
2.01907e-07
2.09159e-07
-4.09684e-10
9.28325e-10
0.00106048
-2.10453e-07
1.15046e-06
2.0989e-07
8.24133e-07
-1.92418e-07
1.91424e-07
-8.24297e-07
-5.67661e-10
-0.00105998
9.55963e-10
-1.14915e-06
2.09851e-07
-2.10384e-07
-8.24013e-07
1.91385e-07
8.23929e-07
-1.92346e-07
1.15047e-06
0.00106048
-4.10496e-10
-0.00106048
9.26079e-10
-1.14927e-06
2.09896e-07
-2.10447e-07
-8.24301e-07
1.91424e-07
-1.92418e-07
8.24129e-07
-0.000258848
2.04204e-07
2.09364e-07
1.18724e-06
1.15186e-06
-2.00539e-07
-2.0812e-07
0.000258853
-1.18845e-06
-1.15307e-06
0.000260784
-0.000258853
2.01745e-07
2.09337e-07
9.89234e-10
0.00105955
-2.15689e-07
1.18845e-06
2.15117e-07
8.23982e-07
-1.89664e-07
-8.24135e-07
1.88691e-07
-1.19256e-06
-4.5442e-10
9.74621e-10
0.00105998
-2.18426e-07
1.19377e-06