/*--------------------------------*- C++ -*----------------------------------*\
| =========                 |                                                 |
| \\      /  F ield         | OpenFOAM: The Open Source CFD Toolbox           |
|  \\    /   O peration     | Version:  2206                                  |
|   \\  /    A nd           | Website:  www.openfoam.com                      |
|    \\/     M anipulation  |                                                 |
\*---------------------------------------------------------------------------*/
FoamFile
{
    version     2.0;
    format      ascii;
    arch        "LSB;label=32;scalar=64";
    class       volVectorField;
    location    "15";
    object      U;
}
// * * * * * * * * * * * * * * * * * * * * * * * * * * * * * * * * * * * * * //

dimensions      [0 1 -1 0 0 0 0];

internalField   nonuniform List<vector> 
28335
(
(-5.1861e-07 -5.16691e-07 0.101802)
(-2.85205e-07 4.99659e-07 0.101788)
(4.97514e-07 -2.85319e-07 0.101788)
(-3.8543e-05 -3.85576e-05 0.101767)
(-5.30751e-07 -5.28678e-07 0.101802)
(-2.31187e-07 4.60625e-07 0.101788)
(4.58778e-07 -2.31016e-07 0.101788)
(-3.85334e-05 -3.85478e-05 0.101766)
(-4.15781e-07 -4.13271e-07 0.101802)
(-4.521e-07 6.01929e-07 0.101788)
(5.99845e-07 -4.52615e-07 0.101788)
(-3.87203e-05 -3.87349e-05 0.101766)
(-4.83307e-07 -4.81904e-07 0.101802)
(-3.45458e-07 5.24415e-07 0.101788)
(5.22363e-07 -3.46473e-07 0.101788)
(-3.86005e-05 -3.86165e-05 0.101767)
(-4.93248e-07 -4.92146e-07 0.101802)
(-3.30009e-07 5.23406e-07 0.101788)
(5.2164e-07 -3.30474e-07 0.101788)
(-3.85873e-05 -3.86035e-05 0.101767)
(-4.92676e-07 -4.93811e-07 0.101802)
(-3.28883e-07 5.19905e-07 0.101788)
(5.21481e-07 -3.29724e-07 0.101788)
(-3.85863e-05 -3.86034e-05 0.101767)
(-4.91183e-07 -4.94543e-07 0.101802)
(-3.28841e-07 5.14279e-07 0.101788)
(5.21914e-07 -3.29882e-07 0.101788)
(-3.85861e-05 -3.86036e-05 0.101767)
(-4.92906e-07 -4.92523e-07 0.101802)
(-3.29386e-07 5.21865e-07 0.101788)
(5.2211e-07 -3.29737e-07 0.101788)
(-3.85879e-05 -3.86032e-05 0.101767)
(-4.92158e-07 -4.93211e-07 0.101802)
(-3.31619e-07 5.22639e-07 0.101788)
(5.22589e-07 -3.27936e-07 0.101788)
(-3.85901e-05 -3.86011e-05 0.101767)
(-4.91421e-07 -4.93094e-07 0.101802)
(-3.32605e-07 5.22862e-07 0.101788)
(5.236e-07 -3.28217e-07 0.101788)
(-3.85909e-05 -3.86011e-05 0.101767)
(-4.91666e-07 -4.93507e-07 0.101802)
(-3.31867e-07 5.22267e-07 0.101788)
(5.23225e-07 -3.27419e-07 0.101788)
(-3.85902e-05 -3.86003e-05 0.101767)
(-4.91713e-07 -4.93519e-07 0.101802)
(-3.3137e-07 5.2188e-07 0.101788)
(5.22899e-07 -3.2679e-07 0.101788)
(-3.85895e-05 -3.85997e-05 0.101767)
(-4.92132e-07 -4.93902e-07 0.101802)
(-3.30852e-07 5.21403e-07 0.101788)
(5.22615e-07 -3.26272e-07 0.101788)
(-3.85893e-05 -3.85992e-05 0.101767)
(-4.92669e-07 -4.94381e-07 0.101802)
(-3.3047e-07 5.21186e-07 0.101788)
(5.22427e-07 -3.25731e-07 0.101788)
(-3.85892e-05 -3.8599e-05 0.101767)
(-4.91894e-07 -4.93566e-07 0.101802)
(-3.3093e-07 5.21603e-07 0.101788)
(5.22374e-07 -3.2592e-07 0.101788)
(-3.85879e-05 -3.85978e-05 0.101767)
(-4.91596e-07 -4.93074e-07 0.101802)
(-3.30543e-07 5.21656e-07 0.101788)
(5.23471e-07 -3.2723e-07 0.101788)
(-3.85851e-05 -3.85949e-05 0.101767)
(-4.93102e-07 -4.91724e-07 0.101802)
(-3.29404e-07 5.24315e-07 0.101788)
(5.23664e-07 -3.2316e-07 0.101788)
(-3.85785e-05 -3.85871e-05 0.101767)
(-4.00772e-05 -4.00537e-05 0.101768)
(5.25436e-07 3.14352e-07 0.101788)
(-5.28346e-07 3.20643e-07 0.101788)
(4.00813e-05 -4.0055e-05 0.101768)
(3.05029e-07 5.12886e-07 0.101788)
(3.1915e-07 -5.25421e-07 0.101788)
(-3.03592e-07 5.13273e-07 0.101788)
(-3.16458e-07 -5.23495e-07 0.101788)
(-4.00515e-05 4.0084e-05 0.101768)
(5.11062e-07 -3.0351e-07 0.101788)
(-5.10051e-07 -3.05664e-07 0.101788)
(4.00547e-05 4.00741e-05 0.101768)
(3.85514e-05 3.85336e-05 0.101767)
(-4.01024e-05 -4.00787e-05 0.101767)
(5.11473e-07 3.0027e-07 0.101788)
(-5.14477e-07 3.01898e-07 0.101788)
(5.15137e-07 2.93657e-07 0.101788)
(-5.17733e-07 3.00401e-07 0.101788)
(-3.85479e-05 3.85231e-05 0.101767)
(4.01061e-05 -4.00796e-05 0.101767)
(2.89363e-07 4.99933e-07 0.101788)
(3.00043e-07 -5.11866e-07 0.101788)
(2.84436e-07 5.02318e-07 0.101788)
(2.98573e-07 -5.1476e-07 0.101788)
(-2.96777e-07 -5.09351e-07 0.101788)
(-2.8319e-07 5.02927e-07 0.101788)
(-2.96547e-07 -5.13608e-07 0.101788)
(3.853e-05 -3.85628e-05 0.101767)
(-4.00762e-05 4.01101e-05 0.101767)
(-4.95924e-07 -2.83971e-07 0.101788)
(5.00601e-07 -2.83217e-07 0.101788)
(-5.00657e-07 -2.85293e-07 0.101788)
(4.00786e-05 4.00983e-05 0.101767)
(3.85408e-05 3.85229e-05 0.101766)
(-3.99799e-05 -3.99583e-05 0.101767)
(4.72746e-07 2.46104e-07 0.101788)
(-4.7585e-07 2.47883e-07 0.101788)
(6.08066e-07 4.25779e-07 0.101788)
(-6.10726e-07 4.31816e-07 0.101788)
(-3.85374e-05 3.85128e-05 0.101766)
(3.99847e-05 -3.99587e-05 0.101767)
(2.35209e-07 4.61044e-07 0.101788)
(2.46543e-07 -4.73172e-07 0.101788)
(4.16026e-07 5.95921e-07 0.101788)
(4.30342e-07 -6.08118e-07 0.101788)
(-2.42863e-07 -4.71584e-07 0.101788)
(-4.15176e-07 5.95565e-07 0.101788)
(-4.2773e-07 -6.04172e-07 0.101788)
(3.85197e-05 -3.85516e-05 0.101766)
(-3.9955e-05 3.99887e-05 0.101767)
(-4.58579e-07 -2.30681e-07 0.101788)
(5.92651e-07 -4.14918e-07 0.101788)
(-5.90686e-07 -4.15346e-07 0.101788)
(3.99604e-05 3.99798e-05 0.101767)
(3.87319e-05 3.8713e-05 0.101766)
(-4.0061e-05 -4.00374e-05 0.101768)
(6.14365e-07 4.65756e-07 0.101788)
(-6.17304e-07 4.66309e-07 0.101788)
(5.42932e-07 3.71273e-07 0.101788)
(-5.45795e-07 3.76742e-07 0.101788)
(-3.87271e-05 3.87017e-05 0.101766)
(4.00652e-05 -4.00384e-05 0.101768)
(4.53687e-07 6.03512e-07 0.101788)
(4.65947e-07 -6.16013e-07 0.101788)
(3.61614e-07 5.29876e-07 0.101788)
(3.75678e-07 -5.43768e-07 0.101788)
(-4.61481e-07 -6.10682e-07 0.101788)
(-3.60763e-07 5.30019e-07 0.101788)
(-3.71818e-07 -5.40797e-07 0.101788)
(3.87096e-05 -3.87418e-05 0.101766)
(-4.00352e-05 4.00672e-05 0.101768)
(-5.96676e-07 -4.51117e-07 0.101788)
(5.27936e-07 -3.61556e-07 0.101788)
(-5.26598e-07 -3.62739e-07 0.101788)
(4.00395e-05 4.0057e-05 0.101768)
(3.86103e-05 3.85919e-05 0.101767)
(-4.0079e-05 -4.00562e-05 0.101768)
(5.3724e-07 3.59348e-07 0.101788)
(-5.40207e-07 3.61131e-07 0.101788)
(5.36889e-07 3.40593e-07 0.101788)
(-5.3932e-07 3.4646e-07 0.101788)
(-3.8606e-05 3.85816e-05 0.101767)
(4.00836e-05 -4.00577e-05 0.101768)
(3.48695e-07 5.25179e-07 0.101788)
(3.58896e-07 -5.37891e-07 0.101788)
(3.31781e-07 5.23684e-07 0.101788)
(3.45529e-07 -5.37313e-07 0.101788)
(-3.55802e-07 -5.35393e-07 0.101788)
(-3.30304e-07 5.23736e-07 0.101788)
(-3.42014e-07 -5.34818e-07 0.101788)
(3.8588e-05 -3.86222e-05 0.101767)
(-4.00534e-05 4.00863e-05 0.101768)
(-5.21283e-07 -3.4513e-07 0.101788)
(5.21515e-07 -3.30354e-07 0.101788)
(-5.20691e-07 -3.31927e-07 0.101788)
(4.00578e-05 4.00757e-05 0.101768)
(3.85977e-05 3.8579e-05 0.101767)
(-4.00795e-05 -4.00582e-05 0.101768)
(5.36619e-07 3.44134e-07 0.101788)
(-5.38881e-07 3.45392e-07 0.101788)
(5.37232e-07 3.37651e-07 0.101788)
(-5.38329e-07 3.43577e-07 0.101788)
(-3.85938e-05 3.85683e-05 0.101767)
(4.00846e-05 -4.00604e-05 0.101768)
(3.33736e-07 5.24384e-07 0.101788)
(3.44104e-07 -5.37154e-07 0.101788)
(3.30153e-07 5.22387e-07 0.101788)
(3.43785e-07 -5.37284e-07 0.101788)
(-3.40005e-07 -5.34377e-07 0.101788)
(-3.28176e-07 5.21575e-07 0.101788)
(-3.3979e-07 -5.35459e-07 0.101788)
(3.85759e-05 -3.86084e-05 0.101767)
(-4.00541e-05 4.00871e-05 0.101768)
(-5.19844e-07 -3.29719e-07 0.101788)
(5.21491e-07 -3.28556e-07 0.101788)
(-5.20081e-07 -3.30493e-07 0.101788)
(4.00588e-05 4.00757e-05 0.101768)
(3.85972e-05 3.85768e-05 0.101767)
(-4.00781e-05 -4.0059e-05 0.101768)
(5.37367e-07 3.41652e-07 0.101788)
(-5.36409e-07 3.41199e-07 0.101788)
(5.39413e-07 3.35904e-07 0.101788)
(-5.27344e-07 3.28988e-07 0.101788)
(-3.85922e-05 3.8564e-05 0.101767)
(4.00884e-05 -4.00785e-05 0.101768)
(3.33209e-07 5.22803e-07 0.101788)
(3.43135e-07 -5.37012e-07 0.101788)
(3.30888e-07 5.21518e-07 0.101788)
(3.43732e-07 -5.37449e-07 0.101788)
(-3.38792e-07 -5.35148e-07 0.101788)
(-3.27548e-07 5.11834e-07 0.101788)
(-3.38942e-07 -5.36189e-07 0.101788)
(3.85752e-05 -3.86077e-05 0.101767)
(-4.00539e-05 4.00872e-05 0.101768)
(-5.19242e-07 -3.29336e-07 0.101788)
(5.21626e-07 -3.28159e-07 0.101788)
(-5.19432e-07 -3.30446e-07 0.101788)
(4.00593e-05 4.00754e-05 0.101768)
(3.85984e-05 3.85765e-05 0.101767)
(-4.00793e-05 -4.0057e-05 0.101768)
(5.392e-07 3.40809e-07 0.101788)
(-5.28879e-07 3.33358e-07 0.101788)
(5.37614e-07 3.38617e-07 0.101788)
(-5.38604e-07 3.44507e-07 0.101788)
(-3.85886e-05 3.85463e-05 0.101767)
(4.00858e-05 -4.00596e-05 0.101768)
(3.34088e-07 5.22591e-07 0.101788)
(3.43348e-07 -5.37288e-07 0.101788)
(3.30933e-07 5.23238e-07 0.101788)
(3.44317e-07 -5.37941e-07 0.101788)
(-3.38548e-07 -5.35809e-07 0.101788)
(-3.29521e-07 5.23404e-07 0.101788)
(-3.41113e-07 -5.35384e-07 0.101788)
(3.85755e-05 -3.86078e-05 0.101767)
(-4.00535e-05 4.00866e-05 0.101768)
(-5.18944e-07 -3.29965e-07 0.101788)
(5.22057e-07 -3.28346e-07 0.101788)
(-5.19995e-07 -3.31725e-07 0.101788)
(4.00581e-05 4.00759e-05 0.101768)
(3.85976e-05 3.85788e-05 0.101767)
(-4.00801e-05 -4.00565e-05 0.101768)
(5.36683e-07 3.43263e-07 0.101788)
(-5.36659e-07 3.43118e-07 0.101788)
(5.37219e-07 3.38569e-07 0.101788)
(-5.38599e-07 3.47143e-07 0.101788)
(-3.85922e-05 3.85659e-05 0.101767)
(4.00837e-05 -4.00593e-05 0.101768)
(3.33537e-07 5.24378e-07 0.101788)
(3.43485e-07 -5.37725e-07 0.101788)
(3.29951e-07 5.24136e-07 0.101788)
(3.42658e-07 -5.37994e-07 0.101788)
(-3.41999e-07 -5.34447e-07 0.101788)
(-3.30425e-07 5.22609e-07 0.101788)
(-3.48494e-07 -5.32981e-07 0.101788)
(3.8576e-05 -3.86087e-05 0.101767)
(-4.00545e-05 4.00866e-05 0.101768)
(-5.1923e-07 -3.3256e-07 0.101788)
(5.22095e-07 -3.2646e-07 0.101788)
(-5.19236e-07 -3.39944e-07 0.101788)
(4.00557e-05 4.00781e-05 0.101768)
(3.85969e-05 3.85794e-05 0.101767)
(-4.008e-05 -4.00555e-05 0.101768)
(5.36936e-07 3.43169e-07 0.101788)
(-5.38404e-07 3.47862e-07 0.101788)
(5.37489e-07 3.3879e-07 0.101788)
(-5.39098e-07 3.48957e-07 0.101788)
(-3.85943e-05 3.85671e-05 0.101767)
(4.00824e-05 -4.00585e-05 0.101768)
(3.32951e-07 5.25283e-07 0.101788)
(3.41925e-07 -5.37943e-07 0.101788)
(3.30169e-07 5.25151e-07 0.101788)
(3.43045e-07 -5.38836e-07 0.101788)
(-3.48958e-07 -5.32134e-07 0.101788)
(-3.31748e-07 5.22805e-07 0.101788)
(-3.4927e-07 -5.32202e-07 0.101788)
(3.85752e-05 -3.86088e-05 0.101767)
(-4.00538e-05 4.00856e-05 0.101768)
(-5.18679e-07 -3.40794e-07 0.101788)
(5.23431e-07 -3.26539e-07 0.101788)
(-5.20224e-07 -3.41632e-07 0.101788)
(4.00548e-05 4.00783e-05 0.101768)
(3.8597e-05 3.85803e-05 0.101767)
(-4.00806e-05 -4.00559e-05 0.101768)
(5.37231e-07 3.43412e-07 0.101788)
(-5.38909e-07 3.49374e-07 0.101788)
(5.37261e-07 3.38176e-07 0.101788)
(-5.39409e-07 3.49465e-07 0.101788)
(-3.85953e-05 3.85677e-05 0.101767)
(4.00828e-05 -4.00586e-05 0.101768)
(3.33291e-07 5.26102e-07 0.101788)
(3.42525e-07 -5.38724e-07 0.101788)
(3.29653e-07 5.25047e-07 0.101788)
(3.42456e-07 -5.38835e-07 0.101788)
(-3.49426e-07 -5.3182e-07 0.101788)
(-3.31359e-07 5.22441e-07 0.101788)
(-3.48746e-07 -5.31542e-07 0.101788)
(3.8576e-05 -3.86097e-05 0.101767)
(-4.00544e-05 4.00859e-05 0.101768)
(-5.19686e-07 -3.41881e-07 0.101788)
(5.23115e-07 -3.25895e-07 0.101788)
(-5.20225e-07 -3.4156e-07 0.101788)
(4.00554e-05 4.00791e-05 0.101768)
(3.85966e-05 3.85799e-05 0.101767)
(-4.00805e-05 -4.00557e-05 0.101768)
(5.37037e-07 3.42743e-07 0.101788)
(-5.39014e-07 3.49497e-07 0.101788)
(5.37269e-07 3.38065e-07 0.101788)
(-5.39044e-07 3.49362e-07 0.101788)
(-3.85948e-05 3.85674e-05 0.101767)
(4.00832e-05 -4.0059e-05 0.101768)
(3.32738e-07 5.25953e-07 0.101788)
(3.41861e-07 -5.38613e-07 0.101788)
(3.2953e-07 5.25159e-07 0.101788)
(3.42074e-07 -5.38389e-07 0.101788)
(-3.4845e-07 -5.31049e-07 0.101788)
(-3.30672e-07 5.22002e-07 0.101788)
(-3.47747e-07 -5.30743e-07 0.101788)
(3.85753e-05 -3.86094e-05 0.101767)
(-4.00547e-05 4.00864e-05 0.101768)
(-5.19522e-07 -3.41392e-07 0.101788)
(5.22835e-07 -3.25128e-07 0.101788)
(-5.19854e-07 -3.40855e-07 0.101788)
(4.00562e-05 4.00797e-05 0.101768)
(3.85966e-05 3.858e-05 0.101767)
(-4.0081e-05 -4.00562e-05 0.101768)
(5.36832e-07 3.42472e-07 0.101788)
(-5.38654e-07 3.49308e-07 0.101788)
(5.36792e-07 3.37457e-07 0.101788)
(-5.38809e-07 3.4891e-07 0.101788)
(-3.85945e-05 3.85671e-05 0.101767)
(4.00834e-05 -4.00594e-05 0.101768)
(3.32419e-07 5.25914e-07 0.101788)
(3.41339e-07 -5.38089e-07 0.101788)
(3.28989e-07 5.24802e-07 0.101788)
(3.41716e-07 -5.38188e-07 0.101788)
(-3.4778e-07 -5.30394e-07 0.101788)
(-3.30269e-07 5.21535e-07 0.101788)
(-3.47476e-07 -5.30348e-07 0.101788)
(3.8575e-05 -3.8609e-05 0.101767)
(-4.0055e-05 4.00865e-05 0.101768)
(-5.19277e-07 -3.40904e-07 0.101788)
(5.22589e-07 -3.2467e-07 0.101788)
(-5.19644e-07 -3.40433e-07 0.101788)
(4.00562e-05 4.008e-05 0.101768)
(3.8596e-05 3.85795e-05 0.101767)
(-4.00817e-05 -4.00568e-05 0.101768)
(5.3641e-07 3.41974e-07 0.101788)
(-5.3837e-07 3.4889e-07 0.101788)
(5.36141e-07 3.36761e-07 0.101788)
(-5.38405e-07 3.4833e-07 0.101788)
(-3.85942e-05 3.85667e-05 0.101767)
(4.00838e-05 -4.00598e-05 0.101768)
(3.31942e-07 5.2558e-07 0.101788)
(3.4108e-07 -5.37801e-07 0.101788)
(3.28171e-07 5.24265e-07 0.101788)
(3.4115e-07 -5.37738e-07 0.101788)
(-3.47295e-07 -5.298e-07 0.101788)
(-3.29742e-07 5.21235e-07 0.101788)
(-3.47093e-07 -5.29916e-07 0.101788)
(3.85747e-05 -3.86087e-05 0.101767)
(-4.00553e-05 4.00872e-05 0.101768)
(-5.18851e-07 -3.40293e-07 0.101788)
(5.22299e-07 -3.23974e-07 0.101788)
(-5.19405e-07 -3.39894e-07 0.101788)
(4.00567e-05 4.00806e-05 0.101768)
(3.85955e-05 3.85792e-05 0.101767)
(-4.0081e-05 -4.00563e-05 0.101768)
(5.35936e-07 3.41356e-07 0.101788)
(-5.38083e-07 3.48285e-07 0.101788)
(5.36532e-07 3.37134e-07 0.101788)
(-5.38424e-07 3.48572e-07 0.101788)
(-3.85939e-05 3.85665e-05 0.101767)
(4.00837e-05 -4.00595e-05 0.101768)
(3.31272e-07 5.25228e-07 0.101788)
(3.40576e-07 -5.37522e-07 0.101788)
(3.28801e-07 5.24673e-07 0.101788)
(3.41815e-07 -5.38055e-07 0.101788)
(-3.4701e-07 -5.29535e-07 0.101788)
(-3.29895e-07 5.21374e-07 0.101788)
(-3.47446e-07 -5.30212e-07 0.101788)
(3.85747e-05 -3.86084e-05 0.101767)
(-4.00543e-05 4.0086e-05 0.101768)
(-5.18697e-07 -3.39889e-07 0.101788)
(5.22534e-07 -3.24429e-07 0.101788)
(-5.19461e-07 -3.40213e-07 0.101788)
(4.00557e-05 4.00795e-05 0.101768)
(3.85955e-05 3.85789e-05 0.101767)
(-4.00814e-05 -4.00563e-05 0.101768)
(5.36569e-07 3.42167e-07 0.101788)
(-5.38383e-07 3.49076e-07 0.101788)
(5.37208e-07 3.38157e-07 0.101788)
(-5.39042e-07 3.49849e-07 0.101788)
(-3.85935e-05 3.85659e-05 0.101767)
(4.00838e-05 -4.00596e-05 0.101768)
(3.31993e-07 5.25851e-07 0.101788)
(3.40902e-07 -5.37523e-07 0.101788)
(3.29422e-07 5.25472e-07 0.101788)
(3.40921e-07 -5.37042e-07 0.101788)
(-3.47373e-07 -5.29758e-07 0.101788)
(-3.29763e-07 5.22156e-07 0.101788)
(-3.46461e-07 -5.29216e-07 0.101788)
(3.85733e-05 -3.86072e-05 0.101767)
(-4.00532e-05 4.00853e-05 0.101768)
(-5.1879e-07 -3.40102e-07 0.101788)
(5.21873e-07 -3.2315e-07 0.101788)
(-5.18791e-07 -3.38861e-07 0.101788)
(4.0055e-05 4.00788e-05 0.101768)
(3.85959e-05 3.85799e-05 0.101767)
(-4.00771e-05 -4.00503e-05 0.101768)
(5.3574e-07 3.41453e-07 0.101788)
(-5.3748e-07 3.48511e-07 0.101788)
(5.36109e-07 3.38028e-07 0.101788)
(-5.37699e-07 3.49905e-07 0.101788)
(-3.85939e-05 3.8567e-05 0.101767)
(4.00803e-05 -4.00528e-05 0.101768)
(3.30729e-07 5.25579e-07 0.101788)
(3.42856e-07 -5.38152e-07 0.101788)
(3.28568e-07 5.26104e-07 0.101788)
(3.42257e-07 -5.36476e-07 0.101788)
(-3.48642e-07 -5.30149e-07 0.101788)
(-3.29631e-07 5.23716e-07 0.101788)
(-3.47468e-07 -5.2894e-07 0.101788)
(3.85709e-05 -3.86043e-05 0.101767)
(-4.00463e-05 4.00804e-05 0.101768)
(-5.19437e-07 -3.40948e-07 0.101788)
(5.23074e-07 -3.23349e-07 0.101788)
(-5.19694e-07 -3.39172e-07 0.101788)
(4.00486e-05 4.00736e-05 0.101768)
(3.85873e-05 3.8573e-05 0.101767)
(5.35831e-07 3.42948e-07 0.101788)
(-5.37308e-07 3.50268e-07 0.101788)
(-3.85849e-05 3.85605e-05 0.101767)
(3.29616e-07 5.28347e-07 0.101788)
(3.40495e-07 -5.3552e-07 0.101788)
(-3.46211e-07 -5.27975e-07 0.101788)
(3.85649e-05 -3.85962e-05 0.101767)
(-5.19527e-07 -3.37351e-07 0.101788)
(2.46218e-08 -7.57464e-06 0.100777)
(-1.02284e-06 -5.93024e-06 0.096235)
(1.4928e-06 -2.07795e-06 0.0864899)
(-7.62162e-06 1.7556e-08 0.100776)
(-5.9191e-06 -1.00632e-06 0.0962347)
(-5.11778e-07 -5.0881e-07 0.101802)
(5.10954e-07 -5.09956e-07 0.101802)
(-5.07963e-07 5.10515e-07 0.101802)
(5.07537e-07 5.09196e-07 0.101802)
(1.25086e-05 -1.60137e-09 0.101606)
(-3.20837e-07 5.2204e-07 0.101788)
(1.12917e-05 -3.67382e-06 0.100966)
(-3.95738e-07 -1.51702e-07 0.101799)
(-1.97593e-06 1.43985e-06 0.0864899)
(5.28592e-09 1.25148e-05 0.101606)
(5.18791e-07 -3.20286e-07 0.101788)
(-1.51934e-07 -3.98871e-07 0.101799)
(-3.70182e-06 1.13325e-05 0.100965)
(4.00439e-05 4.00623e-05 0.101768)
(3.59654e-06 4.37438e-06 0.0997034)
(4.36729e-06 3.5928e-06 0.099703)
(1.53893e-08 -7.64806e-06 0.100777)
(7.36197e-07 5.75168e-06 0.0962291)
(-2.44479e-08 7.35963e-06 0.100773)
(-9.55828e-07 -5.98122e-06 0.0962356)
(-1.45991e-06 1.87537e-06 0.0864838)
(1.49687e-06 -2.1515e-06 0.0864913)
(-7.69544e-06 8.42948e-09 0.100776)
(5.73687e-06 7.21318e-07 0.0962288)
(7.40796e-06 -1.2117e-08 0.100773)
(-5.97029e-06 -9.37864e-07 0.0962354)
(5.18626e-07 -5.17501e-07 0.101802)
(-5.14849e-07 5.18426e-07 0.101802)
(5.14632e-07 5.17508e-07 0.101802)
(-5.27438e-07 -5.24546e-07 0.101802)
(5.26978e-07 -5.25645e-07 0.101802)
(-5.2392e-07 5.26615e-07 0.101802)
(5.22953e-07 5.25291e-07 0.101802)
(1.25826e-05 -9.50567e-09 0.101606)
(-1.16308e-05 3.38074e-06 0.10096)
(-3.5256e-07 -1.60736e-07 0.101799)
(-2.88851e-07 5.01031e-07 0.101788)
(-1.24551e-05 -8.51839e-09 0.101605)
(1.13774e-05 -3.75657e-06 0.100966)
(-3.50449e-07 -1.63874e-07 0.101799)
(1.77409e-06 -1.40464e-06 0.0864819)
(-2.05036e-06 1.44312e-06 0.0864914)
(-2.76786e-09 1.25885e-05 0.101606)
(-1.60797e-07 -3.42776e-07 0.101799)
(3.40673e-06 -1.16724e-05 0.10096)
(4.98175e-07 -2.89025e-07 0.101788)
(-1.09166e-08 -1.24604e-05 0.101605)
(-1.64135e-07 -3.5337e-07 0.101799)
(-3.78514e-06 1.14187e-05 0.100965)
(-3.77493e-06 -4.50244e-06 0.0996975)
(-4.49347e-06 -3.76982e-06 0.0996971)
(4.00727e-05 4.00921e-05 0.101767)
(3.5603e-06 4.41246e-06 0.0997033)
(4.40618e-06 3.55541e-06 0.0997029)
(-1.96401e-08 -7.71764e-06 0.100776)
(7.64871e-07 5.70899e-06 0.09623)
(-3.39e-08 7.28917e-06 0.100773)
(-9.16586e-07 -5.9902e-06 0.0962365)
(-1.52086e-06 1.86485e-06 0.0864863)
(1.68816e-06 -2.29083e-06 0.0864937)
(-7.76488e-06 -2.50587e-08 0.100776)
(5.69618e-06 7.43427e-07 0.0962296)
(7.33646e-06 -2.28724e-08 0.100773)
(-5.98497e-06 -8.95217e-07 0.0962362)
(5.3052e-07 -5.29301e-07 0.101802)
(-5.26902e-07 5.30423e-07 0.101802)
(5.26057e-07 5.29224e-07 0.101802)
(-4.56494e-07 -4.53966e-07 0.101801)
(4.54759e-07 -4.54901e-07 0.101801)
(-4.53566e-07 4.55241e-07 0.101801)
(4.53168e-07 4.5478e-07 0.101801)
(1.26587e-05 -2.38931e-08 0.101606)
(-1.15961e-05 3.33261e-06 0.10096)
(-3.00662e-07 -1.67879e-07 0.101799)
(-2.2531e-07 4.59039e-07 0.101788)
(-1.24186e-05 -1.54413e-08 0.101605)
(1.14948e-05 -3.85426e-06 0.100965)
(-2.89403e-07 -1.77383e-07 0.101798)
(1.7628e-06 -1.46143e-06 0.0864844)
(-2.18646e-06 1.63703e-06 0.0864939)
(-1.84272e-08 1.26653e-05 0.101606)
(-1.68061e-07 -2.9096e-07 0.101799)
(3.35939e-06 -1.16376e-05 0.10096)
(4.56029e-07 -2.23788e-07 0.101788)
(-1.71278e-08 -1.24237e-05 0.101604)
(-1.77894e-07 -2.91089e-07 0.101798)
(-3.88037e-06 1.15375e-05 0.100965)
(-3.78898e-06 -4.49528e-06 0.0996973)
(-4.48713e-06 -3.78128e-06 0.0996969)
(4.01658e-05 4.01848e-05 0.101767)
(3.69822e-06 4.52015e-06 0.0997033)
(4.51438e-06 3.69467e-06 0.0997029)
(1.77018e-08 -7.31782e-06 0.100776)
(7.29763e-07 6.15533e-06 0.0962308)
(2.23016e-08 7.53026e-06 0.100772)
(-9.22068e-07 -4.98935e-06 0.0962363)
(-1.87417e-06 2.43922e-06 0.0864888)
(1.19894e-06 -1.45998e-06 0.0864922)
(-7.36622e-06 3.86101e-09 0.100776)
(6.14649e-06 7.05702e-07 0.0962304)
(7.57843e-06 3.56241e-08 0.100772)
(-4.98071e-06 -8.99922e-07 0.096236)
(4.13717e-07 -4.14163e-07 0.101802)
(-4.1181e-07 4.1353e-07 0.101802)
(4.11736e-07 4.1317e-07 0.101802)
(-4.70655e-07 -4.68136e-07 0.101802)
(4.6955e-07 -4.69502e-07 0.101802)
(-4.67035e-07 4.68113e-07 0.101802)
(4.66855e-07 4.67974e-07 0.101802)
(1.20421e-05 2.46043e-08 0.101606)
(-1.19588e-05 3.63196e-06 0.100959)
(-5.61073e-07 -1.16351e-07 0.101798)
(-4.27411e-07 5.737e-07 0.101788)
(-1.28115e-05 1.90095e-08 0.101604)
(1.09467e-05 -3.29318e-06 0.100965)
(-5.60661e-07 -1.16649e-07 0.101799)
(2.33903e-06 -1.81258e-06 0.0864869)
(-1.35886e-06 1.14467e-06 0.0864923)
(2.72149e-08 1.20453e-05 0.101606)
(-1.16662e-07 -5.52812e-07 0.101798)
(3.65794e-06 -1.19969e-05 0.10096)
(5.71347e-07 -4.27603e-07 0.101788)
(1.76288e-08 -1.28147e-05 0.101604)
(-1.16795e-07 -5.64063e-07 0.101799)
(-3.3183e-06 1.09898e-05 0.100965)
(-3.86845e-06 -4.6829e-06 0.099697)
(-4.67466e-06 -3.86228e-06 0.0996966)
(3.99635e-05 3.99805e-05 0.101767)
(3.6741e-06 4.32159e-06 0.0997031)
(4.31734e-06 3.66313e-06 0.0997027)
(1.54456e-08 -7.56059e-06 0.100777)
(7.57909e-07 6.04577e-06 0.0962288)
(-2.72807e-08 7.48289e-06 0.100773)
(-9.59345e-07 -5.77719e-06 0.0962349)
(-1.51954e-06 2.0809e-06 0.0864831)
(1.47166e-06 -2.01246e-06 0.0864898)
(-7.60848e-06 8.0516e-09 0.100776)
(6.0275e-06 7.38659e-07 0.0962284)
(7.5308e-06 -1.69636e-08 0.100773)
(-5.76064e-06 -9.43073e-07 0.0962346)
(4.82866e-07 -4.82892e-07 0.101802)
(-4.80228e-07 4.81816e-07 0.101802)
(4.79841e-07 4.8179e-07 0.101802)
(-4.93635e-07 -4.91219e-07 0.101802)
(4.92777e-07 -4.92524e-07 0.101802)
(-4.90308e-07 4.91809e-07 0.101802)
(4.89659e-07 4.90877e-07 0.101802)
(1.24484e-05 -4.13286e-09 0.101606)
(-1.1797e-05 3.52001e-06 0.10096)
(-4.49431e-07 -1.45187e-07 0.101799)
(-3.36685e-07 5.2354e-07 0.101788)
(-1.26551e-05 -6.30897e-10 0.101605)
(1.12734e-05 -3.66865e-06 0.100966)
(-4.28833e-07 -1.48986e-07 0.101799)
(1.9949e-06 -1.47241e-06 0.0864812)
(-1.91479e-06 1.4244e-06 0.0864899)
(1.26035e-09 1.24537e-05 0.101606)
(-1.4478e-07 -4.41526e-07 0.101799)
(3.55055e-06 -1.1839e-05 0.10096)
(5.20954e-07 -3.37037e-07 0.101788)
(-1.10125e-09 -1.26607e-05 0.101605)
(-1.48727e-07 -4.31864e-07 0.101799)
(-3.69411e-06 1.13154e-05 0.100965)
(-3.76114e-06 -4.51437e-06 0.0996975)
(-4.50502e-06 -3.75639e-06 0.0996971)
(4.00553e-05 4.00736e-05 0.101768)
(3.59508e-06 4.40089e-06 0.0997034)
(4.39578e-06 3.58911e-06 0.099703)
(1.55541e-08 -7.57859e-06 0.100777)
(7.55309e-07 5.92845e-06 0.0962286)
(-2.50555e-08 7.40905e-06 0.100773)
(-9.5596e-07 -5.78995e-06 0.0962349)
(-1.53226e-06 2.00488e-06 0.086483)
(1.45507e-06 -2.01149e-06 0.0864898)
(-7.62612e-06 7.35605e-09 0.100776)
(5.90348e-06 7.33987e-07 0.0962282)
(7.4576e-06 -1.29257e-08 0.100773)
(-5.76325e-06 -9.33737e-07 0.0962346)
(4.93179e-07 -4.93205e-07 0.101802)
(-4.90225e-07 4.92315e-07 0.101802)
(4.90276e-07 4.91495e-07 0.101802)
(-4.93471e-07 -4.92865e-07 0.101802)
(4.94056e-07 -4.9486e-07 0.101802)
(-4.90441e-07 4.91901e-07 0.101802)
(4.90444e-07 4.90272e-07 0.101802)
(1.24656e-05 -4.45119e-09 0.101606)
(-1.17292e-05 3.45973e-06 0.10096)
(-4.13611e-07 -1.50515e-07 0.101799)
(-3.28936e-07 5.23453e-07 0.101788)
(-1.25748e-05 -4.58779e-09 0.101605)
(1.1288e-05 -3.67109e-06 0.100966)
(-4.10458e-07 -1.51386e-07 0.101799)
(1.92364e-06 -1.48742e-06 0.0864811)
(-1.92054e-06 1.40908e-06 0.0864899)
(4.12256e-10 1.24708e-05 0.101606)
(-1.50052e-07 -4.05806e-07 0.101799)
(3.48545e-06 -1.17687e-05 0.10096)
(5.21495e-07 -3.29202e-07 0.101788)
(-6.39843e-09 -1.25795e-05 0.101605)
(-1.50785e-07 -4.13477e-07 0.101799)
(-3.69825e-06 1.13308e-05 0.100965)
(-3.76278e-06 -4.52329e-06 0.0996975)
(-4.51349e-06 -3.75794e-06 0.0996971)
(4.00599e-05 4.00773e-05 0.101768)
(3.60261e-06 4.39797e-06 0.0997034)
(4.39394e-06 3.59533e-06 0.099703)
(2.16838e-08 -7.58055e-06 0.100777)
(7.57881e-07 5.92885e-06 0.0962286)
(-2.27463e-08 7.40783e-06 0.100773)
(-9.53092e-07 -5.79091e-06 0.0962348)
(-1.53284e-06 2.00517e-06 0.086483)
(1.45894e-06 -2.00522e-06 0.0864899)
(-7.62639e-06 6.44309e-09 0.100776)
(5.89816e-06 7.31442e-07 0.0962282)
(7.45724e-06 -1.4028e-08 0.100773)
(-5.75714e-06 -9.3183e-07 0.0962347)
(4.94735e-07 -4.96754e-07 0.101802)
(-4.90274e-07 4.91975e-07 0.101802)
(4.9083e-07 4.90532e-07 0.101802)
(-4.91975e-07 -4.94271e-07 0.101802)
(4.97367e-07 -5.01454e-07 0.101802)
(-4.90274e-07 4.91714e-07 0.101802)
(4.91053e-07 4.89336e-07 0.101802)
(1.24659e-05 -7.18691e-09 0.101606)
(-1.17281e-05 3.45805e-06 0.10096)
(-4.11307e-07 -1.53465e-07 0.101799)
(-3.28088e-07 5.17595e-07 0.101788)
(-1.25743e-05 -6.34847e-09 0.101605)
(1.12873e-05 -3.67624e-06 0.100966)
(-4.08918e-07 -1.55341e-07 0.101799)
(1.92375e-06 -1.48914e-06 0.0864811)
(-1.9204e-06 1.40906e-06 0.0864899)
(8.2292e-10 1.24711e-05 0.101606)
(-1.50024e-07 -4.04753e-07 0.101799)
(3.48755e-06 -1.17682e-05 0.10096)
(5.21423e-07 -3.28693e-07 0.101788)
(-5.81478e-09 -1.25789e-05 0.101605)
(-1.5058e-07 -4.12294e-07 0.101799)
(-3.69768e-06 1.13313e-05 0.100965)
(-3.76147e-06 -4.524e-06 0.0996975)
(-4.51347e-06 -3.75699e-06 0.0996971)
(4.00601e-05 4.00764e-05 0.101768)
(3.60382e-06 4.39718e-06 0.0997034)
(4.39383e-06 3.59608e-06 0.099703)
(2.13268e-08 -7.58106e-06 0.100777)
(7.59991e-07 5.92802e-06 0.0962286)
(-1.38936e-08 7.40582e-06 0.100773)
(-9.53818e-07 -5.79088e-06 0.0962348)
(-1.41443e-06 1.89846e-06 0.0864829)
(1.46981e-06 -2.02516e-06 0.0864898)
(-7.62638e-06 6.40529e-09 0.100776)
(5.89898e-06 7.31201e-07 0.0962282)
(7.45687e-06 -1.4328e-08 0.100773)
(-5.75648e-06 -9.32211e-07 0.0962347)
(4.97624e-07 -5.00979e-07 0.101802)
(-4.89997e-07 4.91751e-07 0.101802)
(4.91528e-07 4.89721e-07 0.101802)
(-4.9297e-07 -4.9236e-07 0.101802)
(4.9427e-07 -4.92073e-07 0.101802)
(-4.89713e-07 4.91886e-07 0.101802)
(4.91083e-07 4.89141e-07 0.101802)
(1.24652e-05 -6.56304e-09 0.101606)
(-1.17309e-05 3.45173e-06 0.10096)
(-4.10776e-07 -1.5735e-07 0.101799)
(-3.29574e-07 5.19664e-07 0.101788)
(-1.25744e-05 -8.58742e-09 0.101605)
(1.12869e-05 -3.6748e-06 0.100966)
(-4.09601e-07 -1.56442e-07 0.101799)
(1.92391e-06 -1.48912e-06 0.0864811)
(-1.92052e-06 1.40887e-06 0.0864899)
(7.76201e-10 1.24705e-05 0.101606)
(-1.49577e-07 -4.06035e-07 0.101799)
(3.48756e-06 -1.1768e-05 0.10096)
(5.2188e-07 -3.2877e-07 0.101788)
(-5.42476e-09 -1.25782e-05 0.101605)
(-1.50156e-07 -4.11168e-07 0.101799)
(-3.69784e-06 1.13313e-05 0.100965)
(-3.76133e-06 -4.5249e-06 0.0996975)
(-4.5132e-06 -3.75722e-06 0.0996971)
(4.00601e-05 4.00766e-05 0.101768)
(3.60356e-06 4.39756e-06 0.0997034)
(4.39452e-06 3.59614e-06 0.099703)
(1.54469e-08 -7.5801e-06 0.100777)
(7.55862e-07 5.92946e-06 0.0962286)
(-2.44418e-08 7.40864e-06 0.100773)
(-9.56293e-07 -5.78978e-06 0.0962348)
(-1.53306e-06 2.01653e-06 0.0864831)
(1.46834e-06 -2.02659e-06 0.0864899)
(-7.62669e-06 6.74897e-09 0.100776)
(5.89713e-06 7.3107e-07 0.0962282)
(7.45656e-06 -1.43626e-08 0.100773)
(-5.75691e-06 -9.3169e-07 0.0962347)
(4.94058e-07 -4.91579e-07 0.101802)
(-4.89542e-07 4.92407e-07 0.101802)
(4.92982e-07 4.89017e-07 0.101802)
(-4.92902e-07 -4.92623e-07 0.101802)
(4.95098e-07 -4.89099e-07 0.101802)
(-4.8828e-07 4.93726e-07 0.101802)
(4.98977e-07 4.82677e-07 0.101802)
(1.24652e-05 -4.21152e-09 0.101606)
(-1.17286e-05 3.46073e-06 0.10096)
(-4.13308e-07 -1.50596e-07 0.101799)
(-3.30195e-07 5.23692e-07 0.101788)
(-1.25741e-05 -4.8131e-09 0.101605)
(1.12883e-05 -3.67061e-06 0.100966)
(-4.12211e-07 -1.51423e-07 0.101799)
(1.92401e-06 -1.48917e-06 0.0864811)
(-1.92021e-06 1.40927e-06 0.0864899)
(-5.09076e-10 1.24681e-05 0.101606)
(-1.49613e-07 -4.08118e-07 0.101799)
(3.48755e-06 -1.17681e-05 0.10096)
(5.21819e-07 -3.27943e-07 0.101788)
(-4.91132e-09 -1.25783e-05 0.101605)
(-1.50269e-07 -4.10376e-07 0.101799)
(-3.69759e-06 1.13312e-05 0.100965)
(-3.76166e-06 -4.52361e-06 0.0996975)
(-4.51353e-06 -3.75687e-06 0.0996971)
(4.00579e-05 4.0078e-05 0.101768)
(3.60286e-06 4.39822e-06 0.0997034)
(4.3934e-06 3.59623e-06 0.099703)
(1.52439e-08 -7.57905e-06 0.100777)
(7.55299e-07 5.92903e-06 0.0962286)
(-2.53843e-08 7.40855e-06 0.100773)
(-9.5702e-07 -5.79007e-06 0.0962348)
(-1.53673e-06 2.01537e-06 0.0864831)
(1.46562e-06 -2.02441e-06 0.0864899)
(-7.62688e-06 7.22646e-09 0.100776)
(5.8981e-06 7.32577e-07 0.0962282)
(7.45665e-06 -1.38339e-08 0.100773)
(-5.75594e-06 -9.31472e-07 0.0962347)
(4.95208e-07 -4.88755e-07 0.101802)
(-4.87776e-07 4.94035e-07 0.101802)
(5.00681e-07 4.8248e-07 0.101802)
(-4.91988e-07 -4.92603e-07 0.101802)
(4.94603e-07 -4.87905e-07 0.101802)
(-4.8702e-07 4.93688e-07 0.101802)
(4.98678e-07 4.8154e-07 0.101802)
(1.24639e-05 -2.95082e-09 0.101606)
(-1.17283e-05 3.46129e-06 0.10096)
(-4.16076e-07 -1.51105e-07 0.101799)
(-3.31606e-07 5.22859e-07 0.101788)
(-1.25752e-05 -3.83092e-09 0.101605)
(1.12878e-05 -3.66991e-06 0.100966)
(-4.14499e-07 -1.5175e-07 0.101799)
(1.92385e-06 -1.48868e-06 0.0864811)
(-1.92022e-06 1.40934e-06 0.0864899)
(-8.57795e-10 1.24664e-05 0.101606)
(-1.50544e-07 -4.10688e-07 0.101799)
(3.48744e-06 -1.17674e-05 0.10096)
(5.22858e-07 -3.26648e-07 0.101788)
(-5.62504e-09 -1.25776e-05 0.101605)
(-1.51105e-07 -4.13475e-07 0.101799)
(-3.69805e-06 1.13317e-05 0.100965)
(-3.76221e-06 -4.52303e-06 0.0996975)
(-4.51398e-06 -3.75676e-06 0.0996971)
(4.0056e-05 4.00796e-05 0.101768)
(3.60224e-06 4.39908e-06 0.0997034)
(4.3935e-06 3.59633e-06 0.099703)
(1.53649e-08 -7.57909e-06 0.100777)
(7.56054e-07 5.92994e-06 0.0962286)
(-2.53417e-08 7.4094e-06 0.100773)
(-9.56872e-07 -5.78973e-06 0.0962348)
(-1.53913e-06 2.01496e-06 0.0864831)
(1.46366e-06 -2.02601e-06 0.0864899)
(-7.62683e-06 6.99393e-09 0.100776)
(5.89867e-06 7.32256e-07 0.0962282)
(7.45714e-06 -1.36501e-08 0.100773)
(-5.75574e-06 -9.31351e-07 0.0962347)
(4.94588e-07 -4.87962e-07 0.101802)
(-4.87066e-07 4.93812e-07 0.101802)
(4.99921e-07 4.8172e-07 0.101802)
(-4.92231e-07 -4.9301e-07 0.101802)
(4.94662e-07 -4.87705e-07 0.101802)
(-4.87264e-07 4.94057e-07 0.101802)
(4.98973e-07 4.81785e-07 0.101802)
(1.24639e-05 -2.69055e-09 0.101606)
(-1.17286e-05 3.46163e-06 0.10096)
(-4.16925e-07 -1.51246e-07 0.101799)
(-3.32125e-07 5.23074e-07 0.101788)