/*--------------------------------*- C++ -*----------------------------------*\
| =========                 |                                                 |
| \\      /  F ield         | OpenFOAM: The Open Source CFD Toolbox           |
|  \\    /   O peration     | Version:  2206                                  |
|   \\  /    A nd           | Website:  www.openfoam.com                      |
|    \\/     M anipulation  |                                                 |
\*---------------------------------------------------------------------------*/
FoamFile
{
    version     2.0;
    format      ascii;
    arch        "LSB;label=32;scalar=64";
    class       volScalarField;
    location    "9.5";
    object      epsilon;
}
// * * * * * * * * * * * * * * * * * * * * * * * * * * * * * * * * * * * * * //

dimensions      [0 2 -3 0 0 0 0];

internalField   nonuniform List<scalar> 
28897
(
4.21866e-07
4.28213e-07
4.28209e-07
4.3816e-07
4.2185e-07
4.2821e-07
4.28197e-07
4.38163e-07
4.21642e-07
4.28041e-07
4.28015e-07
4.38028e-07
4.21609e-07
4.27984e-07
4.27987e-07
4.37996e-07
4.21609e-07
4.27984e-07
4.27986e-07
4.37997e-07
4.21609e-07
4.27984e-07
4.27986e-07
4.37998e-07
4.21609e-07
4.27984e-07
4.27986e-07
4.37998e-07
4.21609e-07
4.27984e-07
4.27986e-07
4.37998e-07
4.21609e-07
4.27984e-07
4.27986e-07
4.37998e-07
4.21609e-07
4.27984e-07
4.27986e-07
4.37998e-07
4.21609e-07
4.27984e-07
4.27987e-07
4.37998e-07
4.21609e-07
4.27984e-07
4.27987e-07
4.37998e-07
4.21609e-07
4.27984e-07
4.27987e-07
4.37998e-07
4.21609e-07
4.27984e-07
4.27987e-07
4.37998e-07
4.21609e-07
4.27984e-07
4.27987e-07
4.37998e-07
4.21609e-07
4.27984e-07
4.27987e-07
4.37998e-07
4.21609e-07
4.27984e-07
4.27987e-07
4.37998e-07
4.21613e-07
4.27988e-07
4.27991e-07
4.37998e-07
4.38065e-07
4.28213e-07
4.28214e-07
4.3807e-07
4.28209e-07
4.28217e-07
4.28214e-07
4.28213e-07
4.38068e-07
4.28209e-07
4.2821e-07
4.38065e-07
4.38163e-07
4.38071e-07
4.28218e-07
4.28219e-07
4.28211e-07
4.28214e-07
4.38171e-07
4.38081e-07
4.28214e-07
4.28221e-07
4.28207e-07
4.28215e-07
4.28217e-07
4.28215e-07
4.28212e-07
4.38166e-07
4.38074e-07
4.28215e-07
4.28204e-07
4.28209e-07
4.38071e-07
4.38166e-07
4.3795e-07
4.28203e-07
4.28206e-07
4.28058e-07
4.28065e-07
4.38176e-07
4.3798e-07
4.282e-07
4.28207e-07
4.28055e-07
4.28063e-07
4.28204e-07
4.28097e-07
4.2806e-07
4.38168e-07
4.37952e-07
4.28201e-07
4.28055e-07
4.28056e-07
4.3795e-07
4.38031e-07
4.37897e-07
4.2802e-07
4.28024e-07
4.27989e-07
4.2799e-07
4.38058e-07
4.37891e-07
4.28017e-07
4.28024e-07
4.27986e-07
4.27993e-07
4.28021e-07
4.27985e-07
4.2799e-07
4.38033e-07
4.379e-07
4.28017e-07
4.27987e-07
4.27986e-07
4.37899e-07
4.37996e-07
4.37904e-07
4.27993e-07
4.27993e-07
4.2799e-07
4.27991e-07
4.37988e-07
4.37902e-07
4.27989e-07
4.27997e-07
4.27986e-07
4.27994e-07
4.27993e-07
4.27985e-07
4.2799e-07
4.37998e-07
4.37907e-07
4.2799e-07
4.27987e-07
4.27987e-07
4.37903e-07
4.37999e-07
4.37905e-07
4.27993e-07
4.27993e-07
4.2799e-07
4.27991e-07
4.37997e-07
4.37901e-07
4.27989e-07
4.27997e-07
4.27986e-07
4.27994e-07
4.27993e-07
4.27984e-07
4.27991e-07
4.38002e-07
4.37908e-07
4.2799e-07
4.27987e-07
4.27987e-07
4.37904e-07
4.38001e-07
4.37904e-07
4.27993e-07
4.27993e-07
4.2799e-07
4.27991e-07
4.37998e-07
4.37901e-07
4.27989e-07
4.27997e-07
4.27986e-07
4.27994e-07
4.27993e-07
4.27984e-07
4.27991e-07
4.38004e-07
4.37907e-07
4.2799e-07
4.27987e-07
4.27987e-07
4.37904e-07
4.38001e-07
4.37904e-07
4.27993e-07
4.27993e-07
4.2799e-07
4.27991e-07
4.37998e-07
4.37901e-07
4.27989e-07
4.27997e-07
4.27986e-07
4.27994e-07
4.27993e-07
4.27985e-07
4.27991e-07
4.38003e-07
4.37907e-07
4.2799e-07
4.27987e-07
4.27987e-07
4.37904e-07
4.38001e-07
4.37905e-07
4.27993e-07
4.27993e-07
4.2799e-07
4.27991e-07
4.37998e-07
4.37901e-07
4.27989e-07
4.27997e-07
4.27986e-07
4.27994e-07
4.27993e-07
4.27984e-07
4.27991e-07
4.38003e-07
4.37907e-07
4.2799e-07
4.27987e-07
4.27987e-07
4.37904e-07
4.38001e-07
4.37905e-07
4.27993e-07
4.27993e-07
4.2799e-07
4.27991e-07
4.37997e-07
4.37901e-07
4.27989e-07
4.27997e-07
4.27986e-07
4.27994e-07
4.27993e-07
4.27984e-07
4.27991e-07
4.38003e-07
4.37908e-07
4.2799e-07
4.27987e-07
4.27987e-07
4.37904e-07
4.38001e-07
4.37905e-07
4.27993e-07
4.27993e-07
4.2799e-07
4.27991e-07
4.37997e-07
4.37901e-07
4.27989e-07
4.27997e-07
4.27986e-07
4.27994e-07
4.27993e-07
4.27984e-07
4.27991e-07
4.38004e-07
4.37908e-07
4.2799e-07
4.27987e-07
4.27987e-07
4.37904e-07
4.38001e-07
4.37904e-07
4.27992e-07
4.27993e-07
4.2799e-07
4.27991e-07
4.37998e-07
4.37902e-07
4.27989e-07
4.27997e-07
4.27986e-07
4.27994e-07
4.27993e-07
4.27984e-07
4.27991e-07
4.38004e-07
4.37907e-07
4.2799e-07
4.27987e-07
4.27987e-07
4.37904e-07
4.38e-07
4.37904e-07
4.27992e-07
4.27993e-07
4.2799e-07
4.27991e-07
4.37998e-07
4.37901e-07
4.27989e-07
4.27997e-07
4.27987e-07
4.27994e-07
4.27993e-07
4.27984e-07
4.27991e-07
4.38004e-07
4.37907e-07
4.2799e-07
4.27987e-07
4.27987e-07
4.37904e-07
4.38e-07
4.37904e-07
4.27992e-07
4.27993e-07
4.2799e-07
4.27991e-07
4.37997e-07
4.37901e-07
4.27989e-07
4.27997e-07
4.27987e-07
4.27994e-07
4.27993e-07
4.27984e-07
4.27991e-07
4.38003e-07
4.37908e-07
4.2799e-07
4.27987e-07
4.27987e-07
4.37904e-07
4.38e-07
4.37904e-07
4.27992e-07
4.27993e-07
4.2799e-07
4.27991e-07
4.37997e-07
4.37901e-07
4.27989e-07
4.27997e-07
4.27987e-07
4.27994e-07
4.27993e-07
4.27984e-07
4.27991e-07
4.38004e-07
4.37907e-07
4.2799e-07
4.27987e-07
4.27987e-07
4.37905e-07
4.38e-07
4.37904e-07
4.27992e-07
4.27993e-07
4.2799e-07
4.27991e-07
4.37997e-07
4.37901e-07
4.27989e-07
4.27997e-07
4.27987e-07
4.27994e-07
4.27993e-07
4.27984e-07
4.27991e-07
4.38003e-07
4.37908e-07
4.2799e-07
4.27987e-07
4.27987e-07
4.37905e-07
4.38e-07
4.37904e-07
4.27992e-07
4.27993e-07
4.2799e-07
4.27991e-07
4.37997e-07
4.37901e-07
4.27989e-07
4.27997e-07
4.27987e-07
4.27994e-07
4.27993e-07
4.27984e-07
4.27991e-07
4.38004e-07
4.37907e-07
4.2799e-07
4.27987e-07
4.27987e-07
4.37904e-07
4.38e-07
4.37904e-07
4.27992e-07
4.27993e-07
4.2799e-07
4.27991e-07
4.37997e-07
4.37901e-07
4.27989e-07
4.27997e-07
4.27987e-07
4.27994e-07
4.27993e-07
4.27985e-07
4.27991e-07
4.38003e-07
4.37908e-07
4.2799e-07
4.27988e-07
4.27987e-07
4.37904e-07
4.38e-07
4.27993e-07
4.27994e-07
4.37997e-07
4.2799e-07
4.27998e-07
4.27994e-07
4.38004e-07
4.27991e-07
4.21866e-07
4.21868e-07
4.21868e-07
4.21867e-07
1.3153e-06
6.70956e-06
1.31559e-06
6.70915e-06
2.33489e-05
2.33457e-05
1.31519e-06
6.71067e-06
1.31544e-06
6.71025e-06
4.21873e-07
4.21872e-07
4.21872e-07
4.21859e-07
4.21864e-07
4.21863e-07
4.21863e-07
5.64287e-07
1.09778e-06
4.23265e-07
4.28218e-07
5.64365e-07
1.09739e-06
4.23268e-07
2.33499e-05
2.33473e-05
5.64282e-07
4.23265e-07
1.09773e-06
4.28209e-07
5.64361e-07
4.23264e-07
1.09738e-06
2.17458e-06
2.17523e-06
4.38071e-07
2.17442e-06
2.175e-06
1.31583e-06
6.70959e-06
1.31566e-06
6.71173e-06
2.33442e-05
2.3346e-05
1.31574e-06
6.71067e-06
1.3155e-06
6.71283e-06
4.21856e-07
4.21854e-07
4.21854e-07
4.21688e-07
4.21695e-07
4.21689e-07
4.21689e-07
5.64326e-07
1.09775e-06
4.23253e-07
4.28199e-07
5.64379e-07
1.09755e-06
4.23232e-07
2.3348e-05
2.33595e-05
5.64341e-07
4.2325e-07
1.09778e-06
4.28176e-07
5.64384e-07
4.23227e-07
1.09777e-06
2.17476e-06
2.17537e-06
4.38047e-07
2.17517e-06
2.17601e-06
1.31649e-06
6.71671e-06
1.31675e-06
6.71627e-06
2.33702e-05
2.33695e-05
1.31637e-06
6.71778e-06
1.31659e-06
6.71735e-06
4.21649e-07
4.21645e-07
4.21645e-07
4.21609e-07
4.21609e-07
4.2161e-07
4.21609e-07
5.64415e-07
1.09846e-06
4.23054e-07
4.28011e-07
5.64488e-07
1.0982e-06
4.23033e-07
2.33732e-05
2.33718e-05
5.64411e-07
4.23048e-07
1.09848e-06
4.27998e-07
5.64489e-07
4.2303e-07
1.09818e-06
2.17684e-06
2.17725e-06
4.37902e-07
2.17651e-06
2.17694e-06
1.3165e-06
6.71652e-06
1.31678e-06
6.71617e-06
2.33703e-05
2.33693e-05
1.31637e-06
6.71761e-06
1.31662e-06
6.71725e-06
4.21613e-07
4.21614e-07
4.21613e-07
4.21609e-07
4.2161e-07
4.21611e-07
4.2161e-07
5.64411e-07
1.09857e-06
4.23017e-07
4.27988e-07
5.64493e-07
1.09822e-06
4.23022e-07
2.33726e-05
2.33716e-05
5.64404e-07
4.23018e-07
1.09852e-06
4.2799e-07
5.64485e-07
4.23022e-07
1.09818e-06
2.17678e-06
2.17722e-06
4.37907e-07
2.17648e-06
2.17693e-06
1.3165e-06
6.7165e-06
1.31678e-06
6.71616e-06
2.33703e-05
2.33693e-05
1.31637e-06
6.71759e-06
1.31662e-06
6.71725e-06
4.21613e-07
4.21613e-07
4.21613e-07
4.21609e-07
4.2161e-07
4.2161e-07
4.2161e-07
5.64411e-07
1.09857e-06
4.23017e-07
4.27987e-07
5.64494e-07
1.09822e-06
4.2302e-07
2.33726e-05
2.33716e-05
5.64406e-07
4.23017e-07
1.09852e-06
4.27989e-07
5.64487e-07
4.2302e-07
1.09818e-06
2.17677e-06
2.17721e-06
4.37905e-07
2.17648e-06
2.17693e-06
1.3165e-06
6.7165e-06
1.31678e-06
6.71617e-06
2.33703e-05
2.33693e-05
1.31637e-06
6.71759e-06
1.31662e-06
6.71725e-06
4.21613e-07
4.21613e-07
4.21613e-07
4.21609e-07
4.2161e-07
4.2161e-07
4.2161e-07
5.64412e-07
1.09857e-06
4.23017e-07
4.27987e-07
5.64494e-07
1.09822e-06
4.2302e-07
2.33726e-05
2.33716e-05
5.64407e-07
4.23017e-07
1.09852e-06
4.27989e-07
5.64487e-07
4.2302e-07
1.09818e-06
2.17677e-06
2.17721e-06
4.37905e-07
2.17648e-06
2.17693e-06
1.3165e-06
6.7165e-06
1.31678e-06
6.71617e-06
2.33703e-05
2.33693e-05
1.31637e-06
6.71759e-06
1.31662e-06
6.71725e-06
4.21613e-07
4.21613e-07
4.21613e-07
4.21609e-07
4.2161e-07
4.2161e-07
4.2161e-07
5.64412e-07
1.09857e-06
4.23017e-07
4.27987e-07
5.64494e-07
1.09822e-06
4.23021e-07
2.33726e-05
2.33716e-05
5.64407e-07
4.23017e-07
1.09852e-06
4.27989e-07
5.64487e-07
4.23021e-07
1.09818e-06
2.17677e-06
2.17721e-06
4.37905e-07
2.17648e-06
2.17693e-06
1.3165e-06
6.7165e-06
1.31678e-06
6.71617e-06
2.33703e-05
2.33693e-05
1.31637e-06
6.71759e-06
1.31662e-06
6.71725e-06
4.21613e-07
4.21613e-07
4.21613e-07
4.21609e-07
4.2161e-07
4.21611e-07
4.2161e-07
5.64412e-07
1.09857e-06
4.23017e-07
4.27987e-07
5.64494e-07
1.09822e-06
4.2302e-07
2.33726e-05
2.33716e-05
5.64407e-07
4.23017e-07
1.09852e-06
4.27989e-07
5.64487e-07
4.23021e-07
1.09818e-06
2.17677e-06
2.17721e-06
4.37905e-07
2.17648e-06
2.17693e-06
1.3165e-06
6.7165e-06
1.31678e-06
6.71616e-06
2.33703e-05
2.33693e-05
1.31637e-06
6.71759e-06
1.31662e-06
6.71725e-06
4.21613e-07
4.21614e-07
4.21613e-07
4.21609e-07
4.2161e-07
4.2161e-07
4.2161e-07
5.64412e-07
1.09857e-06
4.23017e-07
4.27987e-07
5.64494e-07
1.09822e-06
4.2302e-07
2.33726e-05
2.33716e-05
5.64407e-07
4.23017e-07
1.09852e-06
4.27989e-07
5.64487e-07
4.2302e-07
1.09818e-06
2.17677e-06
2.17721e-06
4.37905e-07
2.17648e-06
2.17693e-06
1.3165e-06
6.7165e-06
1.31678e-06
6.71617e-06
2.33703e-05
2.33694e-05
1.31637e-06
6.71759e-06
1.31662e-06
6.71725e-06
4.21613e-07
4.21613e-07
4.21613e-07
4.21609e-07
4.2161e-07
4.2161e-07
4.2161e-07
5.64412e-07
1.09857e-06
4.23017e-07
4.27987e-07
5.64494e-07
1.09822e-06
4.2302e-07
2.33726e-05
2.33716e-05
5.64407e-07
4.23017e-07
1.09852e-06
4.27989e-07
5.64487e-07
4.23021e-07
1.09818e-06
2.17677e-06
2.17721e-06
4.37905e-07
2.17648e-06
2.17693e-06
1.3165e-06
6.71653e-06
1.31678e-06
6.71616e-06
2.33709e-05
2.337e-05
1.31637e-06
6.71758e-06
1.31662e-06
6.71715e-06
4.21613e-07
4.21613e-07
4.21613e-07
4.21609e-07
4.2161e-07
4.2161e-07
4.2161e-07
5.64412e-07
1.09857e-06
4.23017e-07
4.27987e-07
5.64494e-07
1.09822e-06
4.2302e-07
2.33726e-05
2.33716e-05
5.64407e-07
4.23017e-07
1.09852e-06
4.27989e-07
5.64487e-07
4.23021e-07
1.09818e-06
2.17677e-06
2.17721e-06
4.37905e-07
2.17648e-06
2.17693e-06
1.3165e-06
6.71651e-06
1.31678e-06
6.71616e-06
2.3371e-05
2.33703e-05
1.31637e-06
6.71752e-06
1.31662e-06
6.71719e-06
4.21613e-07
4.21613e-07
4.21613e-07
4.21609e-07
4.2161e-07
4.2161e-07
4.2161e-07
5.64412e-07
1.09857e-06
4.23017e-07
4.27987e-07
5.64493e-07
1.09822e-06
4.23021e-07
2.33726e-05
2.33716e-05
5.64408e-07
4.23017e-07
1.09852e-06
4.27989e-07
5.64492e-07
4.23021e-07
1.09818e-06
2.17677e-06
2.17721e-06
4.37904e-07
2.17648e-06
2.17693e-06
1.3165e-06
6.71648e-06
1.31678e-06
6.71614e-06
2.33711e-05
2.33701e-05
1.31637e-06
6.71756e-06
1.31662e-06
6.71725e-06
4.21613e-07
4.21613e-07
4.21613e-07
4.21609e-07
4.2161e-07
4.2161e-07
4.2161e-07
5.64413e-07
1.09857e-06
4.23017e-07
4.27987e-07
5.64494e-07
1.09822e-06
4.2302e-07
2.33726e-05
2.33716e-05
5.64412e-07
4.23017e-07
1.09852e-06
4.27989e-07
5.64496e-07
4.23021e-07
1.09818e-06
2.17677e-06
2.17721e-06
4.37905e-07
2.17648e-06
2.17693e-06
1.3165e-06
6.71648e-06
1.31678e-06
6.71615e-06
2.33712e-05
2.33702e-05
1.31637e-06
6.71758e-06
1.31662e-06
6.71725e-06
4.21613e-07
4.21613e-07
4.21613e-07
4.21609e-07
4.2161e-07
4.21611e-07
4.2161e-07
5.64412e-07
1.09857e-06
4.23017e-07
4.27987e-07
5.64493e-07
1.09822e-06
4.2302e-07
2.33726e-05
2.33716e-05
5.64411e-07
4.23017e-07
1.09852e-06
4.27989e-07
5.64497e-07
4.2302e-07
1.09818e-06
2.17677e-06
2.17721e-06
4.37905e-07
2.17648e-06
2.17693e-06
1.3165e-06
6.71648e-06
1.31678e-06
6.71615e-06
2.33712e-05
2.33703e-05
1.31637e-06
6.71758e-06
1.31662e-06
6.71725e-06
4.21613e-07
4.21613e-07
4.21613e-07
4.21609e-07
4.2161e-07
4.2161e-07
4.2161e-07
5.64412e-07
1.09857e-06
4.23017e-07
4.27987e-07
5.64494e-07
1.09822e-06
4.2302e-07
2.33726e-05
2.33716e-05
5.64413e-07
4.23017e-07
1.09852e-06
4.27989e-07
5.64497e-07
4.23021e-07
1.09818e-06
2.17677e-06
2.17721e-06
4.37905e-07
2.17648e-06
2.17693e-06
1.3165e-06
6.71648e-06
1.31678e-06
6.71615e-06
2.33712e-05
2.33703e-05
1.31637e-06
6.71758e-06
1.31662e-06
6.71725e-06
4.21613e-07
4.21613e-07
4.21613e-07
4.21609e-07
4.2161e-07
4.2161e-07
4.2161e-07
5.64412e-07
1.09857e-06
4.23017e-07
4.27987e-07
5.64494e-07
1.09822e-06
4.2302e-07
2.33726e-05
2.33716e-05
5.64412e-07
4.23017e-07
1.09852e-06
4.27989e-07
5.64497e-07
4.2302e-07
1.09818e-06
2.17677e-06
2.17721e-06
4.37905e-07
2.17648e-06
2.17693e-06
1.3165e-06
6.71648e-06
1.31678e-06
6.71615e-06
2.33712e-05
2.33702e-05
1.31637e-06
6.71758e-06
1.31662e-06
6.71725e-06
4.21613e-07
4.21613e-07
4.21613e-07
4.21611e-07
4.2161e-07
4.2161e-07
4.2161e-07
5.64412e-07
1.09857e-06
4.23017e-07
4.27987e-07
5.64494e-07
1.09822e-06
4.23021e-07
2.33726e-05
2.33716e-05
5.64413e-07
4.23017e-07
1.09852e-06
4.27989e-07
5.64498e-07
4.23021e-07
1.09818e-06
2.17677e-06
2.17722e-06
4.37905e-07
2.17648e-06
2.17693e-06
6.71649e-06
1.31678e-06
2.33712e-05
6.71758e-06
1.31662e-06
4.21614e-07
4.21614e-07
4.21614e-07
1.09858e-06
4.23022e-07
5.64494e-07
2.33725e-05
4.23022e-07
1.09852e-06
5.64498e-07
2.17677e-06
2.17722e-06
2.33461e-05
2.33512e-05
2.33502e-05
2.33541e-05
4.38145e-07
2.17462e-06
2.17488e-06
2.17487e-06
2.17495e-06
1.31576e-06
6.70931e-06
6.70958e-06
1.31532e-06
1.31576e-06
6.70968e-06
6.70998e-06
1.31531e-06
5.64464e-07
4.28213e-07
1.09746e-06
4.23266e-07
1.0982e-06
4.23266e-07
5.64288e-07
5.64461e-07
4.28214e-07
1.09746e-06
4.23265e-07
1.09816e-06
4.23266e-07
5.64284e-07
2.33492e-05
2.17456e-06
2.1744e-06
2.33469e-05
1.3156e-06
6.71041e-06
6.71067e-06
1.31521e-06
5.64452e-07
4.2821e-07
1.09751e-06
4.23265e-07
1.09821e-06
4.23266e-07
5.64284e-07
1.31562e-06
6.71068e-06
6.71104e-06
1.31523e-06
5.6446e-07
4.28218e-07
4.23266e-07
1.09766e-06
4.23266e-07
1.0984e-06
5.64288e-07
1.09746e-06
4.23264e-07
4.23265e-07
5.64283e-07
6.70958e-06
1.31523e-06
4.28213e-07
4.23266e-07
1.09729e-06
4.23266e-07
5.64286e-07
6.71002e-06
1.31523e-06
2.33498e-05
2.33548e-05
4.38148e-07
2.17524e-06
2.17449e-06
2.17546e-06
2.17458e-06
2.33489e-05
2.33529e-05
5.64452e-07
4.28209e-07
4.23265e-07
1.09742e-06
4.23265e-07
1.09812e-06
5.64278e-07
5.64475e-07
4.28211e-07
4.23265e-07
1.09751e-06
4.23266e-07
1.09822e-06
5.64279e-07
1.3156e-06
6.71038e-06
6.71072e-06
1.31521e-06
1.3156e-06
6.71058e-06
6.71091e-06
1.31521e-06
4.38147e-07
2.17424e-06
2.17495e-06
2.17502e-06
2.33496e-05
2.33505e-05
2.33546e-05
2.33461e-05
2.33439e-05
2.335e-05
2.33478e-05
2.17498e-06
2.17505e-06
4.3807e-07
2.17477e-06
2.17494e-06
2.33431e-05
2.33439e-05
2.3347e-05
2.33478e-05
4.38166e-07
2.17475e-06
2.17492e-06
2.1751e-06
2.17508e-06
1.3153e-06
6.70968e-06
1.31552e-06
6.70955e-06
5.64293e-07
1.09777e-06
4.2327e-07
4.28217e-07
5.64366e-07
1.09744e-06
4.2327e-07
5.64289e-07
1.09774e-06
4.2327e-07
4.28219e-07
5.64363e-07
1.09743e-06
4.23269e-07
1.31552e-06
6.70922e-06
6.70917e-06
1.31532e-06
1.31552e-06
6.70952e-06
6.70955e-06
1.31532e-06
5.64372e-07
4.28214e-07
1.09746e-06
4.23262e-07
1.09775e-06
4.23266e-07
5.64298e-07
5.64369e-07
4.28216e-07
1.09743e-06
4.23262e-07
1.09771e-06
4.23266e-07
5.64296e-07
2.17485e-06
2.17478e-06
4.38079e-07
2.17476e-06
2.17461e-06
2.33468e-05
2.33434e-05
2.33437e-05
2.33455e-05
4.38175e-07
2.17477e-06
2.17469e-06
2.17493e-06
2.17494e-06
2.33418e-05
2.33434e-05
5.6429e-07
1.09779e-06
4.2327e-07
4.28213e-07
5.64363e-07
1.09747e-06
4.23269e-07
1.31521e-06
6.71068e-06
1.3154e-06
6.71058e-06
5.64294e-07
4.23271e-07
1.09796e-06
4.28221e-07
5.64367e-07
4.2327e-07
1.09763e-06
1.31536e-06
6.7103e-06
6.71027e-06
1.3152e-06
5.64369e-07
4.28211e-07
1.09749e-06
4.23262e-07
1.09776e-06
4.23266e-07
5.64296e-07
1.31538e-06
6.71062e-06
6.7106e-06
1.31522e-06
5.64373e-07
4.28218e-07
4.23263e-07
1.09766e-06
4.23266e-07
1.09795e-06
5.643e-07
1.31526e-06
6.70965e-06
1.31545e-06
6.70942e-06
5.6429e-07
4.23271e-07
1.09759e-06
4.28217e-07
5.64365e-07
4.2327e-07
1.09731e-06
1.31526e-06
6.71003e-06
1.31546e-06
6.70994e-06
5.64365e-07
4.28217e-07
1.09739e-06
4.23261e-07
1.0977e-06
4.23265e-07
5.64293e-07
1.31549e-06
6.70937e-06
6.70942e-06
1.31529e-06
5.64368e-07
4.28214e-07
4.23263e-07
1.09735e-06
4.23267e-07
1.09762e-06
5.64297e-07
1.31549e-06
6.70999e-06
6.70994e-06
1.31529e-06
2.17555e-06
2.17467e-06
4.38073e-07
2.17538e-06
2.17455e-06
2.33486e-05
2.33465e-05
2.33468e-05
2.33473e-05
4.38168e-07
2.17536e-06
2.17454e-06
2.17566e-06
2.1747e-06
2.33457e-05
2.33464e-05
5.64283e-07
4.2327e-07
1.0978e-06
4.28215e-07
5.64363e-07
4.23269e-07
1.09748e-06
1.31519e-06
6.71037e-06
1.31538e-06
6.71026e-06
1.31518e-06
6.71058e-06
1.31538e-06
6.71046e-06
5.64362e-07
4.28207e-07
4.23259e-07
1.0974e-06
4.23262e-07
1.09767e-06
5.6429e-07
5.6437e-07
4.28212e-07
4.23262e-07
1.0975e-06
4.23266e-07
1.09777e-06
5.64291e-07
1.31537e-06
6.71029e-06
6.71026e-06
1.3152e-06
1.31536e-06
6.71049e-06
6.71046e-06
1.3152e-06
2.33492e-05
2.33467e-05
2.33502e-05
2.33481e-05
4.38167e-07
2.17446e-06
2.17499e-06
2.17462e-06
2.17516e-06
2.33453e-05
2.33466e-05
2.33473e-05
2.3348e-05
2.33436e-05
2.33555e-05
2.33473e-05
2.33598e-05
2.17518e-06
2.17517e-06
4.38045e-07
2.17571e-06
2.17597e-06
2.33684e-05
2.33638e-05
2.33721e-05
2.33671e-05
4.38123e-07
2.17681e-06
2.17691e-06
2.17665e-06
2.17679e-06
1.31582e-06
6.70953e-06
1.3156e-06
6.71113e-06
5.6435e-07
1.09783e-06
4.23254e-07
4.2818e-07
5.64386e-07
1.09783e-06
4.23228e-07
5.64347e-07
1.09775e-06
4.23254e-07
4.28185e-07
5.64384e-07
1.09772e-06
4.23229e-07
1.31634e-06
6.71643e-06
6.71439e-06
1.31644e-06
1.31634e-06
6.71657e-06
6.7136e-06
1.31644e-06
5.64453e-07
4.28119e-07
1.09819e-06
4.23093e-07
1.09829e-06
4.23161e-07
5.64406e-07
5.64451e-07
4.28128e-07
1.09814e-06
4.23094e-07
1.09816e-06
4.23162e-07
5.64405e-07
2.17492e-06
2.17498e-06
4.38068e-07
2.17508e-06
2.17493e-06
2.3342e-05
2.33437e-05
2.33681e-05
2.33512e-05
4.38152e-07
2.17667e-06
2.17643e-06
2.17563e-06
2.17573e-06
2.3365e-05
2.33488e-05
5.6435e-07
1.09784e-06
4.23253e-07
4.28177e-07
5.6438e-07
1.09786e-06
4.23228e-07
1.31576e-06
6.7107e-06
1.31546e-06
6.71304e-06
5.64353e-07
4.23254e-07
1.09803e-06
4.28185e-07
5.64387e-07
4.23229e-07
1.09802e-06
1.31618e-06
6.7175e-06
6.71547e-06
1.31631e-06
5.64452e-07
4.28116e-07
1.09821e-06
4.23093e-07
1.0983e-06
4.23161e-07
5.64407e-07
1.31621e-06
6.71777e-06
6.71574e-06
1.31634e-06
5.64457e-07
4.28124e-07
4.23094e-07
1.09838e-06
4.23161e-07
1.09849e-06
5.6441e-07
1.31561e-06
6.70938e-06
1.31552e-06
6.70971e-06
5.64329e-07
4.23255e-07
1.09767e-06
4.28182e-07
5.64376e-07
4.23231e-07
1.09763e-06
1.31561e-06
6.71e-06
1.31553e-06
6.71097e-06
5.64428e-07
4.28162e-07
1.09802e-06
4.23102e-07
1.09799e-06
4.23169e-07
5.64393e-07
1.31611e-06
6.71549e-06
6.71057e-06
1.3164e-06
5.64432e-07
4.28122e-07
4.23096e-07
1.09808e-06
4.23165e-07
1.09808e-06
5.64396e-07
1.31611e-06
6.71695e-06
6.71306e-06
1.3164e-06
2.17576e-06
2.1748e-06
4.38048e-07
2.17633e-06
2.17556e-06
2.3346e-05
2.33584e-05
2.33725e-05
2.33678e-05
4.38125e-07
2.17742e-06
2.17652e-06
2.17726e-06
2.17639e-06
2.33708e-05
2.33658e-05
5.64342e-07
4.23254e-07
1.09785e-06
4.28178e-07
5.64383e-07
4.23228e-07
1.09786e-06
1.31574e-06
6.71033e-06
1.31544e-06
6.71276e-06
1.31573e-06
6.71053e-06
1.31544e-06
6.71285e-06
5.64446e-07
4.28114e-07
4.23093e-07
1.09812e-06
4.23158e-07
1.09821e-06
5.64398e-07
5.64451e-07
4.28117e-07
4.23093e-07
1.09822e-06
4.23161e-07
1.09831e-06
5.644e-07
1.3162e-06
6.7174e-06
6.7154e-06
1.31632e-06
1.31619e-06
6.71761e-06
6.71549e-06
1.31631e-06
2.33454e-05
2.33509e-05
2.33475e-05
2.33597e-05
4.38124e-07
2.17655e-06
2.17698e-06
2.17604e-06
2.17684e-06
2.33705e-05
2.33595e-05
2.33724e-05
2.33672e-05
2.33686e-05
2.33681e-05
2.33721e-05
2.33718e-05
2.17714e-06
2.17707e-06
4.37902e-07
2.17676e-06
2.17688e-06
2.3368e-05
2.33682e-05
2.33717e-05
2.33718e-05
4.37993e-07
2.17672e-06
2.17687e-06
2.17706e-06
2.17704e-06
1.31649e-06
6.71681e-06
1.31669e-06
6.71666e-06
5.6442e-07
1.09854e-06
4.23051e-07
4.28002e-07
5.64491e-07
1.09825e-06
4.23031e-07
5.64417e-07
1.09848e-06
4.23051e-07
4.28004e-07
5.64489e-07
1.09823e-06
4.23031e-07
1.31672e-06
6.71625e-06
6.71629e-06
1.31649e-06
1.31671e-06
6.7166e-06
6.71666e-06
1.31649e-06
5.64498e-07
4.2799e-07
1.09825e-06
4.23018e-07
1.09857e-06
4.23019e-07
5.64415e-07
5.64496e-07
4.27991e-07
1.09823e-06
4.23018e-07
1.09853e-06
4.23019e-07
5.64411e-07
2.17695e-06
2.17703e-06
4.37913e-07
2.17678e-06
2.17676e-06
2.3368e-05
2.33677e-05
2.33697e-05
2.33695e-05
4.37999e-07
2.17678e-06
2.17668e-06
2.17695e-06
2.17705e-06
2.33674e-05
2.33678e-05
5.64419e-07
1.09854e-06
4.23051e-07
4.27998e-07
5.64491e-07
1.09827e-06
4.23031e-07
1.31639e-06
6.71783e-06
1.31655e-06
6.71769e-06
5.64422e-07
4.23052e-07
1.09874e-06
4.28006e-07
5.64494e-07
4.23031e-07
1.09844e-06
1.31655e-06
6.71733e-06
6.71737e-06
1.31637e-06
5.64496e-07
4.27987e-07
1.09827e-06
4.23017e-07
1.09857e-06
4.23018e-07
5.64408e-07
1.31657e-06
6.71761e-06
6.7177e-06
1.31639e-06
5.645e-07
4.27995e-07
4.23018e-07
1.09844e-06
4.23019e-07
1.09877e-06
5.64414e-07
1.3165e-06
6.71667e-06
1.31668e-06
6.7167e-06
5.64419e-07
4.23053e-07
1.09842e-06
4.28003e-07
5.64485e-07
4.23031e-07
1.09818e-06
1.3165e-06
6.71739e-06
1.31668e-06
6.71726e-06
5.64494e-07
4.27991e-07
1.09822e-06
4.23017e-07
1.09853e-06
4.2302e-07
5.64414e-07
1.31673e-06
6.71661e-06
6.71671e-06
1.3165e-06
5.64498e-07
4.27991e-07
4.23017e-07
1.09819e-06
4.23019e-07
1.09849e-06
5.64417e-07
1.31673e-06
6.71721e-06
6.71726e-06
1.3165e-06
2.1777e-06
2.17669e-06
4.37905e-07
2.17736e-06
2.17649e-06
2.33708e-05
2.33706e-05
2.33717e-05
2.3372e-05
4.37995e-07
2.17733e-06
2.17649e-06
2.17763e-06
2.17666e-06
2.33704e-05
2.33706e-05
5.64415e-07
4.23051e-07
1.09855e-06
4.27999e-07
5.64491e-07
4.2303e-07
1.09828e-06
1.31637e-06
6.71742e-06
1.31654e-06
6.71737e-06
1.31637e-06
6.71763e-06
1.31653e-06
6.71758e-06
5.64489e-07
4.27989e-07
4.23018e-07
1.09818e-06
4.2302e-07
1.09848e-06
5.64405e-07
5.64499e-07
4.27988e-07
4.23017e-07
1.09828e-06
4.23018e-07
1.09858e-06
5.64406e-07
1.31656e-06
6.71732e-06
6.71737e-06
1.31637e-06
1.31656e-06
6.71752e-06
6.71757e-06
1.31636e-06
2.33713e-05
2.33709e-05
2.33724e-05
2.33722e-05
4.37994e-07
2.1765e-06
2.17694e-06
2.17668e-06
2.17711e-06
2.33707e-05
2.33709e-05
2.3372e-05
2.33722e-05
2.33682e-05
2.3368e-05
2.33717e-05
2.33716e-05
2.17705e-06
2.17703e-06
4.37906e-07
2.17674e-06
2.17686e-06
2.3368e-05
2.33682e-05
2.33717e-05
2.33716e-05
4.38002e-07
2.17673e-06
2.17687e-06
2.17706e-06
2.17702e-06
1.31649e-06
6.7166e-06
1.31671e-06
6.71658e-06
5.64416e-07
1.09857e-06
4.23021e-07
4.27993e-07
5.64491e-07
1.09825e-06
4.23021e-07
5.64412e-07
1.09853e-06
4.23021e-07
4.27993e-07
5.64488e-07
1.09823e-06
4.23021e-07
1.31672e-06
6.71622e-06
6.71619e-06
1.3165e-06
1.31671e-06
6.71659e-06
6.71659e-06
1.31649e-06
5.64495e-07
4.27991e-07
1.09824e-06
4.23018e-07
1.09857e-06
4.23019e-07
5.64416e-07
5.64492e-07
4.27991e-07
1.09823e-06
4.23018e-07
1.09853e-06
4.23019e-07
5.64414e-07
2.17696e-06
2.17699e-06
4.37901e-07
2.17677e-06
2.17668e-06
2.33676e-05
2.33674e-05
2.33697e-05
2.33693e-05
4.37999e-07
2.17678e-06
2.17669e-06
2.17694e-06
2.177e-06
2.33674e-05
2.33676e-05
5.64413e-07
1.09857e-06
4.23021e-07
4.27989e-07
5.64485e-07
1.09827e-06
4.23021e-07
1.31639e-06
6.71763e-06
1.31657e-06
6.7176e-06
5.64416e-07
4.23022e-07
1.09876e-06
4.27997e-07
5.64491e-07
4.23022e-07
1.09844e-06
1.31655e-06
6.7173e-06
6.71728e-06
1.31637e-06
5.64493e-07
4.27987e-07
1.09827e-06
4.23018e-07
1.09857e-06
4.23019e-07
5.64413e-07
1.31657e-06
6.71759e-06
6.71762e-06
1.31639e-06
5.64496e-07
4.27995e-07
4.23019e-07
1.09844e-06
4.2302e-07
1.09876e-06
5.64417e-07
1.31651e-06
6.71663e-06
1.31673e-06
6.71658e-06
5.64413e-07
4.23021e-07
1.09849e-06
4.27993e-07
5.64492e-07
4.23021e-07
1.09819e-06
1.31651e-06
6.71721e-06
1.31673e-06
6.71718e-06
5.6449e-07
4.27988e-07
1.09822e-06
4.23018e-07
1.09854e-06
4.23021e-07
5.64414e-07
1.31673e-06
6.71657e-06
6.71661e-06
1.3165e-06
5.64492e-07
4.27991e-07
4.23018e-07
1.09819e-06
4.23019e-07
1.09849e-06
5.64418e-07
1.31673e-06
6.71718e-06
6.71718e-06
1.3165e-06
2.17761e-06
2.17666e-06
4.37908e-07
2.17734e-06
2.17648e-06
2.33704e-05
2.33704e-05
2.33717e-05
2.33718e-05
4.38004e-07
2.17733e-06
2.17648e-06
2.17761e-06
2.17665e-06
2.33703e-05
2.33704e-05
5.64404e-07
4.23021e-07
1.09858e-06
4.2799e-07
5.64488e-07
4.23021e-07
1.09828e-06
1.31638e-06
6.71732e-06
1.31656e-06
6.71729e-06
1.31637e-06
6.71753e-06
1.31655e-06
6.7175e-06
5.64483e-07
4.2799e-07
4.23018e-07
1.09818e-06
4.23021e-07
1.09848e-06
5.64407e-07
5.64492e-07
4.27988e-07
4.23018e-07
1.09828e-06
4.23019e-07
1.09858e-06
5.64411e-07
1.31656e-06
6.71729e-06
6.7173e-06
1.31637e-06
1.31656e-06
6.7175e-06
6.7175e-06
1.31636e-06
2.33707e-05
2.33707e-05
2.33721e-05
2.3372e-05
4.38002e-07
2.17649e-06
2.17694e-06
2.17666e-06
2.17711e-06
2.33706e-05
2.33707e-05
2.3372e-05
2.3372e-05
2.33682e-05
2.3368e-05
2.33717e-05
2.33716e-05
2.17705e-06
2.17703e-06
4.37902e-07
2.17674e-06
2.17686e-06
2.3368e-05
2.33682e-05
2.33716e-05
2.33716e-05
4.37999e-07
2.17673e-06
2.17686e-06
2.17706e-06
2.17702e-06
1.31649e-06
6.71659e-06
1.31671e-06
6.71658e-06
5.64418e-07
1.09857e-06
4.23021e-07
4.27992e-07
5.64492e-07
1.09825e-06
4.23021e-07
5.64412e-07
1.09853e-06
4.23021e-07
4.27993e-07
5.6449e-07
1.09823e-06
4.23021e-07
1.31672e-06
6.71622e-06
6.71619e-06
1.3165e-06
1.31671e-06
6.71658e-06
6.71658e-06
1.31649e-06
5.64496e-07
4.2799e-07
1.09824e-06
4.23018e-07
1.09857e-06
4.23019e-07
5.64414e-07
5.64492e-07
4.27991e-07
1.09823e-06
4.23018e-07
1.09853e-06
4.23019e-07
5.64413e-07
2.17696e-06
2.177e-06
4.37898e-07
2.17677e-06
2.17669e-06
2.33676e-05
2.33674e-05
2.33697e-05
2.33693e-05
4.37995e-07
2.17678e-06
2.17668e-06
2.17694e-06
2.177e-06
2.33674e-05
2.33676e-05
5.64412e-07
1.09857e-06
4.23021e-07
4.27989e-07
5.64489e-07
1.09827e-06
4.23021e-07
1.31639e-06
6.71761e-06
1.31657e-06
6.7176e-06
5.64416e-07
4.23021e-07
1.09876e-06
4.27997e-07
5.64494e-07
4.23021e-07
1.09844e-06
1.31655e-06
6.7173e-06
6.71727e-06
1.31637e-06
5.64491e-07
4.27987e-07
1.09827e-06
4.23018e-07
1.09857e-06
4.23018e-07
5.64412e-07
1.31657e-06
6.71759e-06
6.71763e-06
1.31639e-06
5.64496e-07
4.27995e-07
4.23018e-07
1.09844e-06
4.23019e-07
1.09876e-06
5.64416e-07
1.31651e-06
6.71659e-06
1.31672e-06
6.71658e-06
5.64413e-07
4.23021e-07
1.09849e-06
4.27993e-07
5.64494e-07
4.23021e-07
1.09819e-06
1.31651e-06
6.71719e-06
1.31673e-06
6.71718e-06
5.64489e-07
4.27987e-07
1.09822e-06
4.23017e-07
1.09854e-06
4.23019e-07
5.64413e-07
1.31673e-06
6.71657e-06
6.71661e-06
1.3165e-06
5.64492e-07
4.27991e-07
4.23018e-07
1.09819e-06
4.23018e-07
1.09849e-06
5.64418e-07
1.31673e-06
6.71718e-06
6.71718e-06
1.3165e-06
2.17761e-06
2.17665e-06
4.37905e-07
2.17734e-06
2.17647e-06
2.33703e-05
2.33703e-05
2.33717e-05
2.33718e-05
4.38001e-07
2.17733e-06
2.17648e-06
2.17761e-06
2.17665e-06
2.33703e-05
2.33703e-05
5.64406e-07
4.23021e-07
1.09858e-06
4.2799e-07
5.64492e-07
4.23021e-07
1.09828e-06
1.31637e-06
6.7173e-06
1.31655e-06
6.7173e-06
1.31637e-06
6.7175e-06
1.31655e-06
6.7175e-06
5.64484e-07
4.27989e-07
4.23018e-07
1.09818e-06
4.2302e-07
1.09848e-06
5.64406e-07
5.64491e-07
4.27988e-07
4.23018e-07
1.09828e-06
4.23019e-07
1.09858e-06
5.64409e-07
1.31656e-06
6.7173e-06
6.7173e-06
1.31637e-06
1.31655e-06
6.7175e-06
6.7175e-06
1.31636e-06
2.33706e-05
2.33706e-05
2.3372e-05
2.3372e-05
4.38e-07
2.17649e-06
2.17694e-06
2.17666e-06
2.1771e-06
2.33706e-05
2.33706e-05
2.33719e-05
2.3372e-05
2.33682e-05
2.3368e-05
2.33717e-05
2.33716e-05
2.17705e-06
2.17702e-06
4.37902e-07
2.17674e-06
2.17686e-06
2.3368e-05
2.33682e-05
2.33716e-05
2.33716e-05
4.37998e-07
2.17673e-06
2.17686e-06
2.17706e-06
2.17702e-06
1.31649e-06
6.71658e-06
1.31671e-06
6.71658e-06
5.64419e-07
1.09857e-06
4.23021e-07
4.27993e-07
5.64491e-07
1.09825e-06
4.23021e-07
5.64413e-07
1.09853e-06
4.23021e-07
4.27993e-07
5.6449e-07
1.09823e-06
4.23021e-07
1.31672e-06
6.71622e-06
6.71618e-06
1.3165e-06
1.31671e-06
6.71658e-06
6.71658e-06
1.31649e-06
5.64496e-07
4.2799e-07
1.09824e-06
4.23018e-07
1.09857e-06
4.23019e-07
5.64413e-07
5.64492e-07
4.27991e-07
1.09823e-06
4.23018e-07
1.09853e-06
4.23019e-07
5.64413e-07
2.17696e-06
2.177e-06
4.37899e-07
2.17677e-06
2.17669e-06
2.33676e-05
2.33674e-05
2.33697e-05
2.33693e-05
4.37995e-07
2.17678e-06
2.17668e-06
2.17694e-06
2.177e-06
2.33674e-05
2.33676e-05
5.64413e-07
1.09857e-06
4.23021e-07
4.27989e-07
5.64489e-07
1.09827e-06
4.23021e-07
1.31639e-06
6.71761e-06
1.31657e-06
6.7176e-06
5.64416e-07
4.23021e-07
1.09876e-06
4.27997e-07
5.64493e-07
4.23021e-07
1.09844e-06
1.31655e-06
6.7173e-06
6.71727e-06
1.31637e-06
5.64492e-07
4.27987e-07
1.09827e-06
4.23018e-07
1.09857e-06
4.23018e-07
5.64411e-07
1.31657e-06
6.71759e-06
6.71763e-06
1.31639e-06
5.64496e-07
4.27995e-07
4.23018e-07
1.09844e-06
4.23019e-07
1.09876e-06
5.64416e-07
1.31651e-06
6.71659e-06
1.31672e-06
6.71658e-06
5.64414e-07
4.23021e-07
1.09849e-06
4.27993e-07
5.64494e-07
4.2302e-07
1.09819e-06
1.31651e-06
6.71719e-06
1.31673e-06
6.71718e-06
5.6449e-07
4.27986e-07
1.09822e-06
4.23017e-07
1.09854e-06
4.23019e-07
5.64413e-07
1.31673e-06
6.71657e-06
6.71661e-06