/*--------------------------------*- C++ -*----------------------------------*\
| =========                 |                                                 |
| \\      /  F ield         | OpenFOAM: The Open Source CFD Toolbox           |
|  \\    /   O peration     | Version:  2206                                  |
|   \\  /    A nd           | Website:  www.openfoam.com                      |
|    \\/     M anipulation  |                                                 |
\*---------------------------------------------------------------------------*/
FoamFile
{
    version     2.0;
    format      ascii;
    arch        "LSB;label=32;scalar=64";
    class       volScalarField;
    location    "9.5";
    object      nut;
}
// * * * * * * * * * * * * * * * * * * * * * * * * * * * * * * * * * * * * * //

dimensions      [0 2 -1 0 0 0 0];

internalField   nonuniform List<scalar> 
28897
(
0.000232085
0.000228117
0.000228114
0.000222077
0.000232079
0.000228112
0.000228107
0.000222067
0.000232068
0.000228072
0.000228073
0.000221993
0.000232076
0.000228081
0.00022808
0.000222007
0.000232076
0.000228081
0.00022808
0.000222006
0.000232076
0.000228082
0.00022808
0.000222006
0.000232076
0.000228082
0.00022808
0.000222006
0.000232076
0.000228082
0.00022808
0.000222006
0.000232076
0.000228082
0.00022808
0.000222006
0.000232076
0.000228082
0.00022808
0.000222006
0.000232076
0.000228082
0.00022808
0.000222006
0.000232076
0.000228082
0.00022808
0.000222006
0.000232076
0.000228082
0.00022808
0.000222006
0.000232076
0.000228082
0.00022808
0.000222006
0.000232076
0.000228082
0.00022808
0.000222006
0.000232076
0.000228082
0.00022808
0.000222006
0.000232076
0.000228082
0.00022808
0.000222006
0.000232076
0.000228082
0.000228081
0.000222006
0.000222134
0.000228112
0.000228112
0.000222144
0.000228115
0.00022811
0.000228118
0.000228113
0.000222133
0.000228114
0.000228114
0.000222134
0.000222079
0.000222127
0.000228113
0.000228113
0.00022811
0.00022811
0.000222089
0.00022213
0.000228115
0.00022811
0.000228112
0.000228107
0.000228113
0.000228114
0.00022811
0.000222077
0.000222124
0.000228114
0.000228112
0.000228112
0.000222128
0.00022207
0.000222047
0.000228105
0.000228107
0.000228068
0.000228071
0.000222074
0.000222056
0.000228108
0.000228103
0.00022807
0.000228065
0.000228106
0.000228073
0.00022807
0.000222067
0.000222045
0.000228107
0.00022807
0.00022807
0.000222048
0.000221996
0.000222067
0.000228072
0.000228072
0.000228078
0.000228077
0.000221988
0.00022207
0.000228074
0.000228069
0.00022808
0.000228075
0.000228072
0.000228081
0.000228078
0.000221994
0.000222065
0.000228074
0.00022808
0.00022808
0.000222065
0.000222012
0.000222063
0.000228078
0.000228078
0.000228078
0.000228078
0.000222015
0.000222064
0.000228081
0.000228076
0.00022808
0.000228075
0.000228078
0.000228081
0.000228078
0.000222009
0.000222061
0.00022808
0.00022808
0.00022808
0.000222063
0.00022201
0.000222063
0.000228079
0.000228078
0.000228078
0.000228078
0.00022201
0.000222065
0.000228081
0.000228076
0.00022808
0.000228075
0.000228078
0.000228082
0.000228078
0.000222008
0.000222061
0.00022808
0.000228081
0.00022808
0.000222063
0.000222009
0.000222063
0.000228079
0.000228078
0.000228078
0.000228078
0.00022201
0.000222065
0.000228081
0.000228076
0.00022808
0.000228075
0.000228078
0.000228082
0.000228078
0.000222007
0.000222061
0.00022808
0.000228081
0.00022808
0.000222063
0.000222009
0.000222063
0.000228079
0.000228078
0.000228078
0.000228078
0.00022201
0.000222065
0.000228081
0.000228076
0.00022808
0.000228075
0.000228078
0.000228082
0.000228078
0.000222007
0.000222061
0.00022808
0.000228081
0.00022808
0.000222063
0.000222009
0.000222063
0.000228079
0.000228078
0.000228078
0.000228078
0.00022201
0.000222065
0.000228081
0.000228076
0.00022808
0.000228075
0.000228078
0.000228082
0.000228078
0.000222007
0.000222061
0.00022808
0.000228081
0.00022808
0.000222063
0.000222009
0.000222063
0.000228079
0.000228078
0.000228078
0.000228078
0.00022201
0.000222065
0.000228081
0.000228076
0.00022808
0.000228075
0.000228078
0.000228082
0.000228078
0.000222007
0.000222061
0.00022808
0.000228081
0.00022808
0.000222063
0.000222009
0.000222063
0.000228079
0.000228078
0.000228078
0.000228078
0.00022201
0.000222065
0.000228081
0.000228076
0.00022808
0.000228075
0.000228078
0.000228082
0.000228078
0.000222007
0.000222061
0.00022808
0.000228081
0.00022808
0.000222063
0.000222009
0.000222063
0.000228079
0.000228078
0.000228078
0.000228078
0.00022201
0.000222064
0.000228081
0.000228076
0.00022808
0.000228075
0.000228078
0.000228082
0.000228078
0.000222007
0.000222061
0.00022808
0.000228081
0.00022808
0.000222063
0.000222009
0.000222063
0.000228079
0.000228078
0.000228078
0.000228078
0.00022201
0.000222065
0.000228081
0.000228076
0.00022808
0.000228075
0.000228078
0.000228082
0.000228078
0.000222007
0.000222061
0.00022808
0.000228081
0.00022808
0.000222063
0.000222009
0.000222063
0.000228079
0.000228078
0.000228078
0.000228078
0.00022201
0.000222065
0.000228081
0.000228076
0.00022808
0.000228075
0.000228078
0.000228082
0.000228078
0.000222007
0.000222061
0.00022808
0.000228081
0.00022808
0.000222063
0.000222009
0.000222063
0.000228079
0.000228078
0.000228078
0.000228078
0.00022201
0.000222065
0.000228081
0.000228076
0.00022808
0.000228075
0.000228078
0.000228082
0.000228078
0.000222006
0.000222061
0.00022808
0.000228081
0.00022808
0.000222063
0.000222009
0.000222063
0.000228079
0.000228078
0.000228078
0.000228078
0.00022201
0.000222065
0.000228081
0.000228076
0.00022808
0.000228075
0.000228078
0.000228082
0.000228078
0.000222007
0.000222061
0.00022808
0.000228081
0.00022808
0.000222063
0.000222009
0.000222064
0.000228079
0.000228078
0.000228078
0.000228078
0.00022201
0.000222065
0.000228081
0.000228076
0.00022808
0.000228075
0.000228078
0.000228082
0.000228078
0.000222007
0.000222061
0.00022808
0.000228081
0.00022808
0.000222063
0.000222009
0.000222064
0.000228079
0.000228078
0.000228078
0.000228078
0.00022201
0.000222065
0.000228081
0.000228076
0.00022808
0.000228075
0.000228078
0.000228082
0.000228078
0.000222007
0.000222062
0.00022808
0.00022808
0.00022808
0.000222063
0.000222009
0.000228079
0.000228079
0.00022201
0.000228081
0.000228076
0.000228079
0.000222006
0.000228081
0.000232085
0.000232085
0.000232085
0.000232085
7.68325e-05
4.51469e-05
7.68161e-05
4.5146e-05
2.55762e-05
2.55751e-05
7.68414e-05
4.51447e-05
7.68261e-05
4.51438e-05
0.000232085
0.000232085
0.000232085
0.000232083
0.000232083
0.000232083
0.000232083
0.000169825
9.09941e-05
0.000231177
0.000228117
0.000169798
9.10243e-05
0.000231175
2.55733e-05
2.55723e-05
0.000169825
0.000231177
9.09962e-05
0.000228114
0.000169797
0.000231176
9.1024e-05
4.87819e-05
4.87704e-05
0.000222133
4.87914e-05
4.87805e-05
7.67936e-05
4.51469e-05
7.68147e-05
4.5151e-05
2.55745e-05
2.5575e-05
7.68005e-05
4.51447e-05
7.68253e-05
4.51488e-05
0.00023208
0.000232079
0.000232079
0.000232062
0.000232062
0.000232061
0.000232061
0.000169794
9.10027e-05
0.000231172
0.000228106
0.000169793
9.10084e-05
0.000231162
2.55725e-05
2.55763e-05
0.00016977
0.00023117
9.09958e-05
0.000228091
0.000169791
0.000231156
9.09801e-05
4.87912e-05
4.87774e-05
0.000222099
4.87797e-05
4.87576e-05
7.67113e-05
4.51628e-05
7.67017e-05
4.51618e-05
2.55838e-05
2.55835e-05
7.67211e-05
4.51605e-05
7.67118e-05
4.51596e-05
0.000232068
0.000232068
0.000232068
0.000232076
0.000232076
0.000232075
0.000232075
0.000169649
9.08961e-05
0.000231152
0.000228075
0.000169631
9.08963e-05
0.000231157
2.55816e-05
2.55811e-05
0.000169651
0.000231152
9.088e-05
0.000228077
0.000169627
0.000231157
9.08968e-05
4.87088e-05
4.86946e-05
0.000222064
4.87078e-05
4.86983e-05
7.67114e-05
4.51624e-05
7.66979e-05
4.51616e-05
2.55838e-05
2.55835e-05
7.67213e-05
4.51602e-05
7.67092e-05
4.51594e-05
0.000232076
0.000232076
0.000232076
0.000232076
0.000232076
0.000232075
0.000232075
0.000169651
9.08683e-05
0.00023116
0.000228082
0.000169625
9.08924e-05
0.00023116
2.55814e-05
2.5581e-05
0.000169653
0.00023116
9.08736e-05
0.00022808
0.000169627
0.00023116
9.08963e-05
4.87032e-05
4.86936e-05
0.000222061
4.87084e-05
4.86986e-05
7.67114e-05
4.51623e-05
7.66979e-05
4.51616e-05
2.55838e-05
2.55835e-05
7.67213e-05
4.51601e-05
7.67093e-05
4.51593e-05
0.000232076
0.000232076
0.000232076
0.000232076
0.000232076
0.000232076
0.000232075
0.000169651
9.08683e-05
0.00023116
0.000228082
0.000169624
9.08924e-05
0.000231161
2.55814e-05
2.5581e-05
0.000169653
0.00023116
9.08736e-05
0.000228081
0.000169627
0.00023116
9.08962e-05
4.87033e-05
4.86936e-05
0.000222063
4.87085e-05
4.86986e-05
7.67114e-05
4.51623e-05
7.66979e-05
4.51616e-05
2.55838e-05
2.55835e-05
7.67213e-05
4.51601e-05
7.67093e-05
4.51593e-05
0.000232076
0.000232076
0.000232076
0.000232076
0.000232076
0.000232075
0.000232076
0.000169651
9.08683e-05
0.000231161
0.000228082
0.000169624
9.08924e-05
0.000231161
2.55814e-05
2.5581e-05
0.000169653
0.00023116
9.08736e-05
0.000228081
0.000169627
0.00023116
9.08962e-05
4.87033e-05
4.86936e-05
0.000222063
4.87085e-05
4.86986e-05
7.67114e-05
4.51623e-05
7.66979e-05
4.51616e-05
2.55838e-05
2.55835e-05
7.67213e-05
4.51601e-05
7.67093e-05
4.51593e-05
0.000232076
0.000232076
0.000232076
0.000232076
0.000232076
0.000232075
0.000232075
0.000169651
9.08683e-05
0.00023116
0.000228082
0.000169624
9.08924e-05
0.00023116
2.55814e-05
2.5581e-05
0.000169653
0.00023116
9.08736e-05
0.000228081
0.000169627
0.00023116
9.08962e-05
4.87033e-05
4.86936e-05
0.000222063
4.87085e-05
4.86986e-05
7.67114e-05
4.51623e-05
7.66979e-05
4.51616e-05
2.55838e-05
2.55835e-05
7.67213e-05
4.51601e-05
7.67093e-05
4.51593e-05
0.000232076
0.000232076
0.000232076
0.000232076
0.000232076
0.000232075
0.000232076
0.000169651
9.08683e-05
0.00023116
0.000228082
0.000169624
9.08924e-05
0.000231161
2.55814e-05
2.5581e-05
0.000169653
0.00023116
9.08736e-05
0.000228081
0.000169627
0.00023116
9.08962e-05
4.87033e-05
4.86936e-05
0.000222063
4.87085e-05
4.86987e-05
7.67114e-05
4.51623e-05
7.6698e-05
4.51616e-05
2.55838e-05
2.55835e-05
7.67213e-05
4.51601e-05
7.67093e-05
4.51593e-05
0.000232076
0.000232076
0.000232076
0.000232076
0.000232076
0.000232076
0.000232075
0.000169651
9.08683e-05
0.000231161
0.000228082
0.000169624
9.08924e-05
0.000231161
2.55814e-05
2.5581e-05
0.000169653
0.00023116
9.08736e-05
0.000228081
0.000169627
0.00023116
9.08962e-05
4.87033e-05
4.86936e-05
0.000222063
4.87085e-05
4.86987e-05
7.67114e-05
4.51623e-05
7.66979e-05
4.51616e-05
2.55838e-05
2.55835e-05
7.67213e-05
4.51601e-05
7.67093e-05
4.51593e-05
0.000232076
0.000232076
0.000232076
0.000232076
0.000232076
0.000232076
0.000232076
0.000169651
9.08683e-05
0.000231161
0.000228082
0.000169624
9.08924e-05
0.000231161
2.55814e-05
2.5581e-05
0.000169653
0.00023116
9.08735e-05
0.00022808
0.000169627
0.00023116
9.08964e-05
4.87034e-05
4.86936e-05
0.000222063
4.87085e-05
4.86987e-05
7.67115e-05
4.51627e-05
7.6698e-05
4.51622e-05
2.55835e-05
2.55832e-05
7.67213e-05
4.51598e-05
7.67093e-05
4.51588e-05
0.000232076
0.000232076
0.000232076
0.000232076
0.000232076
0.000232075
0.000232076
0.000169651
9.08683e-05
0.000231161
0.000228082
0.000169624
9.08924e-05
0.000231161
2.55814e-05
2.5581e-05
0.000169653
0.00023116
9.08736e-05
0.00022808
0.000169627
0.00023116
9.08964e-05
4.87033e-05
4.86936e-05
0.000222063
4.87085e-05
4.86987e-05
7.67114e-05
4.51633e-05
7.66979e-05
4.51625e-05
2.55834e-05
2.5583e-05
7.67213e-05
4.51593e-05
7.67093e-05
4.51586e-05
0.000232076
0.000232076
0.000232076
0.000232076
0.000232076
0.000232076
0.000232076
0.000169651
9.08683e-05
0.00023116
0.000228082
0.000169624
9.08924e-05
0.00023116
2.55814e-05
2.5581e-05
0.000169652
0.00023116
9.08736e-05
0.00022808
0.000169625
0.00023116
9.08965e-05
4.87033e-05
4.86937e-05
0.000222063
4.87085e-05
4.86987e-05
7.67115e-05
4.51632e-05
7.66979e-05
4.51625e-05
2.55833e-05
2.5583e-05
7.67214e-05
4.51594e-05
7.67093e-05
4.51587e-05
0.000232076
0.000232076
0.000232076
0.000232076
0.000232076
0.000232076
0.000232076
0.00016965
9.08683e-05
0.00023116
0.000228082
0.000169624
9.08924e-05
0.000231161
2.55814e-05
2.5581e-05
0.000169651
0.00023116
9.08737e-05
0.00022808
0.000169624
0.00023116
9.08966e-05
4.87033e-05
4.86936e-05
0.000222063
4.87085e-05
4.86987e-05
7.67115e-05
4.51632e-05
7.6698e-05
4.51625e-05
2.55834e-05
2.5583e-05
7.67214e-05
4.51595e-05
7.67094e-05
4.51587e-05
0.000232076
0.000232076
0.000232076
0.000232076
0.000232076
0.000232075
0.000232075
0.000169651
9.08683e-05
0.000231161
0.000228082
0.000169624
9.08924e-05
0.000231161
2.55814e-05
2.5581e-05
0.000169652
0.00023116
9.08737e-05
0.00022808
0.000169624
0.00023116
9.08966e-05
4.87033e-05
4.86936e-05
0.000222063
4.87085e-05
4.86987e-05
7.67115e-05
4.51632e-05
7.6698e-05
4.51625e-05
2.55834e-05
2.5583e-05
7.67215e-05
4.51595e-05
7.67094e-05
4.51587e-05
0.000232076
0.000232076
0.000232076
0.000232076
0.000232076
0.000232076
0.000232075
0.00016965
9.08683e-05
0.00023116
0.000228082
0.000169624
9.08924e-05
0.000231161
2.55814e-05
2.5581e-05
0.000169651
0.00023116
9.08737e-05
0.00022808
0.000169624
0.00023116
9.08966e-05
4.87033e-05
4.86936e-05
0.000222063
4.87085e-05
4.86986e-05
7.67115e-05
4.51632e-05
7.6698e-05
4.51625e-05
2.55834e-05
2.5583e-05
7.67214e-05
4.51595e-05
7.67094e-05
4.51587e-05
0.000232076
0.000232076
0.000232076
0.000232076
0.000232076
0.000232076
0.000232076
0.000169651
9.08683e-05
0.000231161
0.000228082
0.000169624
9.08924e-05
0.000231161
2.55814e-05
2.5581e-05
0.000169651
0.00023116
9.08737e-05
0.000228081
0.000169624
0.00023116
9.08966e-05
4.87033e-05
4.86936e-05
0.000222063
4.87085e-05
4.86986e-05
7.67114e-05
4.51632e-05
7.66979e-05
4.51625e-05
2.55834e-05
2.5583e-05
7.67214e-05
4.51595e-05
7.67094e-05
4.51587e-05
0.000232076
0.000232076
0.000232076
0.000232076
0.000232076
0.000232075
0.000232076
0.000169651
9.08683e-05
0.00023116
0.000228082
0.000169624
9.08924e-05
0.00023116
2.55814e-05
2.5581e-05
0.000169651
0.00023116
9.08737e-05
0.00022808
0.000169624
0.00023116
9.08966e-05
4.87033e-05
4.86935e-05
0.000222063
4.87084e-05
4.86986e-05
4.51632e-05
7.66979e-05
2.55834e-05
4.51595e-05
7.67093e-05
0.000232076
0.000232076
0.000232076
9.08682e-05
0.000231161
0.000169624
2.55813e-05
0.000231161
9.08736e-05
0.000169624
4.87032e-05
4.86934e-05
2.55757e-05
2.55776e-05
2.55748e-05
2.55763e-05
0.000222092
4.87732e-05
4.87733e-05
4.87609e-05
4.87643e-05
7.68022e-05
4.51463e-05
4.5147e-05
7.68277e-05
7.68025e-05
4.51473e-05
4.5148e-05
7.68281e-05
0.00016977
0.000228113
9.10107e-05
0.000231177
9.09539e-05
0.000231177
0.000169822
0.000169771
0.000228112
9.10141e-05
0.000231177
9.09603e-05
0.000231177
0.000169824
2.55763e-05
4.87759e-05
4.87704e-05
2.55765e-05
7.68133e-05
4.51442e-05
4.51448e-05
7.6836e-05
0.000169776
0.000228115
9.10098e-05
0.000231177
9.09557e-05
0.000231177
0.000169825
7.68102e-05
4.51418e-05
4.51426e-05
7.6833e-05
0.000169772
0.00022811
0.000231176
9.09958e-05
0.000231176
9.09389e-05
0.000169823
9.10143e-05
0.000231178
0.000231178
0.000169823
4.51457e-05
7.68326e-05
0.000228113
0.000231177
9.10257e-05
0.000231177
0.000169824
4.51438e-05
7.68322e-05
2.55732e-05
2.55751e-05
0.00022209
4.87604e-05
4.87817e-05
4.87488e-05
4.87724e-05
2.55756e-05
2.55771e-05
0.000169774
0.000228115
0.000231177
9.10159e-05
0.000231177
9.09624e-05
0.000169822
0.000169768
0.000228114
0.000231177
9.10091e-05
0.000231177
9.09544e-05
0.000169825
7.68113e-05
4.51441e-05
4.51448e-05
7.68342e-05
7.68117e-05
4.51436e-05
4.51444e-05
7.68351e-05
0.00022209
4.87842e-05
4.87721e-05
4.87631e-05
2.55756e-05
2.55746e-05
2.55761e-05
2.55757e-05
2.55749e-05
2.55748e-05
2.5574e-05
4.87724e-05
4.87745e-05
0.000222135
4.87803e-05
4.87816e-05
2.55745e-05
2.55749e-05
2.55737e-05
2.5574e-05
0.00022208
4.87855e-05
4.87861e-05
4.87783e-05
4.87823e-05
7.6833e-05
4.51473e-05
7.68217e-05
4.5147e-05
0.000169823
9.09948e-05
0.000231177
0.000228112
0.000169804
9.10179e-05
0.000231176
0.000169825
9.10002e-05
0.000231177
0.000228112
0.000169806
9.10221e-05
0.000231176
7.68255e-05
4.51461e-05
4.5146e-05
7.68324e-05
7.68258e-05
4.51469e-05
4.5147e-05
7.68328e-05
0.000169799
0.000228112
9.10177e-05
0.000231174
9.10011e-05
0.000231175
0.000169818
0.000169801
0.000228112
9.10236e-05
0.000231174
9.1007e-05
0.000231175
0.000169818
4.87756e-05
4.87704e-05
0.000222136
4.87838e-05
4.8779e-05
2.55765e-05
2.55753e-05
2.55743e-05
2.5575e-05
0.000222082
4.87906e-05
4.87856e-05
4.8784e-05
4.87777e-05
2.55747e-05
2.55752e-05
0.000169826
9.09953e-05
0.000231177
0.000228115
0.000169807
9.10175e-05
0.000231177
7.68388e-05
4.51418e-05
7.68286e-05
4.51416e-05
0.000169824
0.000231176
9.09802e-05
0.00022811
0.000169805
0.000231176
9.10032e-05
7.68361e-05
4.51439e-05
4.51438e-05
7.68415e-05
0.000169802
0.000228114
9.10175e-05
0.000231174
9.10022e-05
0.000231176
0.00016982
7.68334e-05
4.51416e-05
4.51416e-05
7.68389e-05
0.000169799
0.000228109
0.000231174
9.10024e-05
0.000231175
9.09862e-05
0.000169816
7.68359e-05
4.51459e-05
7.68256e-05
4.51454e-05
0.000169825
0.000231177
9.101e-05
0.000228113
0.000169805
0.000231176
9.10297e-05
7.68356e-05
4.51438e-05
7.68252e-05
4.51436e-05
0.000169806
0.000228116
9.10273e-05
0.000231174
9.10076e-05
0.000231175
0.00016982
7.68284e-05
4.51452e-05
4.51454e-05
7.68365e-05
0.000169801
0.000228112
0.000231174
9.10291e-05
0.000231175
9.10132e-05
0.00016982
7.68279e-05
4.51437e-05
4.51436e-05
7.6836e-05
4.87601e-05
4.87827e-05
0.000222128
4.87676e-05
4.879e-05
2.55755e-05
2.55747e-05
2.55721e-05
2.55723e-05
0.000222075
4.87723e-05
4.87945e-05
4.87659e-05
4.87905e-05
2.55744e-05
2.55747e-05
0.000169827
0.000231177
9.09946e-05
0.000228114
0.000169805
0.000231176
9.10169e-05
7.68398e-05
4.51441e-05
7.68297e-05
4.51438e-05
7.68408e-05
4.51436e-05
7.68303e-05
4.51433e-05
0.000169807
0.000228113
0.000231174
9.10235e-05
0.000231176
9.10088e-05
0.000169822
0.000169805
0.000228113
0.000231174
9.10167e-05
0.000231176
9.1001e-05
0.000169822
7.68345e-05
4.51438e-05
4.51438e-05
7.68403e-05
7.68351e-05
4.51434e-05
4.51433e-05
7.68409e-05
2.55755e-05
2.55746e-05
2.55745e-05
2.55738e-05
0.00022208
4.87967e-05
4.8785e-05
4.87912e-05
4.8781e-05
2.5574e-05
2.55745e-05
2.55734e-05
2.55737e-05
2.55747e-05
2.55786e-05
2.55737e-05
2.55778e-05
4.87786e-05
4.87824e-05
0.000222095
4.87594e-05
4.87585e-05
2.55836e-05
2.55817e-05
2.55826e-05
2.55806e-05
0.000222009
4.87024e-05
4.87025e-05
4.87383e-05
4.87367e-05
7.67942e-05
4.51469e-05
7.68204e-05
4.51499e-05
0.000169766
9.0994e-05
0.00023117
0.000228089
0.000169789
9.09744e-05
0.000231156
0.000169767
9.10038e-05
0.00023117
0.000228096
0.00016979
9.09898e-05
0.000231157
7.67627e-05
4.51621e-05
4.51569e-05
7.67194e-05
7.67624e-05
4.51624e-05
4.51552e-05
7.67191e-05
0.000169703
0.000228071
9.09027e-05
0.000231147
9.09368e-05
0.000231145
0.000169657
0.000169703
0.000228077
9.09148e-05
0.000231147
9.09547e-05
0.000231145
0.000169657
4.87897e-05
4.87831e-05
0.000222114
4.87824e-05
4.87804e-05
2.55747e-05
2.55752e-05
2.55829e-05
2.55766e-05
0.000222046
4.87233e-05
4.87293e-05
4.87701e-05
4.87645e-05
2.55828e-05
2.55768e-05
0.000169767
9.0995e-05
0.000231171
0.000228092
0.000169792
9.09738e-05
0.000231156
7.67984e-05
4.51418e-05
7.68282e-05
4.51463e-05
0.000169765
0.00023117
9.09787e-05
0.000228087
0.000169789
0.000231156
9.09591e-05
7.67717e-05
4.51599e-05
4.51547e-05
7.67274e-05
0.000169704
0.000228074
9.0902e-05
0.000231147
9.09363e-05
0.000231145
0.000169657
7.67686e-05
4.51575e-05
4.51523e-05
7.67243e-05
0.000169701
0.000228069
0.000231146
9.08872e-05
0.000231144
9.09214e-05
0.000169655
7.68111e-05
4.51453e-05
7.68268e-05
4.51459e-05
0.000169792
0.000231171
9.10094e-05
0.000228093
0.000169794
0.00023116
9.09981e-05
7.68105e-05
4.51437e-05
7.68262e-05
4.51455e-05
0.000169742
0.000228086
9.09332e-05
0.000231148
9.09756e-05
0.000231148
0.000169671
7.67831e-05
4.51584e-05
4.51474e-05
7.67291e-05
0.00016974
0.000228075
0.000231147
9.09187e-05
0.000231147
9.09625e-05
0.000169669
7.67825e-05
4.51589e-05
4.51496e-05
7.67285e-05
4.87654e-05
4.87903e-05
0.000222094
4.87462e-05
4.87671e-05
2.55745e-05
2.55785e-05
2.55813e-05
2.55794e-05
0.000222008
4.86884e-05
4.87107e-05
4.87245e-05
4.87448e-05
2.55834e-05
2.55813e-05
0.000169769
0.00023117
9.09942e-05
0.000228092
0.000169792
0.000231156
9.09733e-05
7.67998e-05
4.51439e-05
7.68296e-05
4.51485e-05
7.68005e-05
4.51435e-05
7.68298e-05
4.51479e-05
0.000169706
0.000228073
0.000231146
9.09079e-05
0.000231145
9.09428e-05
0.000169659
0.000169704
0.000228074
0.000231146
9.09013e-05
0.000231144
9.09354e-05
0.000169659
7.67698e-05
4.51596e-05
4.51545e-05
7.67254e-05
7.67705e-05
4.51592e-05
4.51538e-05
7.67261e-05
2.5574e-05
2.55757e-05
2.55735e-05
2.55774e-05
0.000222014
4.87192e-05
4.87017e-05
4.87597e-05
4.87356e-05
2.5583e-05
2.55786e-05
2.55824e-05
2.55803e-05
2.55837e-05
2.55835e-05
2.55826e-05
2.55826e-05
4.8695e-05
4.86986e-05
0.000222066
4.86948e-05
4.86996e-05
2.55835e-05
2.55836e-05
2.55825e-05
2.55825e-05
0.000222015
4.86962e-05
4.86998e-05
4.86907e-05
4.86982e-05
7.67117e-05
4.51632e-05
7.67061e-05
4.51628e-05
0.000169649
9.08774e-05
0.000231152
0.000228076
0.000169632
9.08897e-05
0.000231157
0.000169651
9.08889e-05
0.000231153
0.000228075
0.000169633
9.08956e-05
0.000231157
7.67032e-05
4.51617e-05
4.51618e-05
7.67114e-05
7.67036e-05
4.51626e-05
4.51629e-05
7.6712e-05
0.000169629
0.000228077
9.08889e-05
0.00023116
9.0871e-05
0.000231159
0.000169651
0.00016963
0.000228077
9.08937e-05
0.00023116
9.08781e-05
0.000231159
0.000169652
4.87116e-05
4.87124e-05
0.000222059
4.87008e-05
4.86961e-05
2.5584e-05
2.55839e-05
2.55836e-05
2.55835e-05
0.000222011
4.87009e-05
4.86962e-05
4.86989e-05
4.86916e-05
2.55838e-05
2.5584e-05
0.000169651
9.0879e-05
0.000231153
0.000228078
0.000169634
9.08908e-05
0.000231157
7.6718e-05
4.51577e-05
7.67134e-05
4.51574e-05
0.000169649
0.000231152
9.08623e-05
0.000228073
0.000169631
0.000231156
9.08748e-05
7.67146e-05
4.51595e-05
4.51596e-05
7.6721e-05
0.000169631
0.00022808
9.089e-05
0.00023116
9.08735e-05
0.00023116
0.000169655
7.67116e-05
4.51572e-05
4.51574e-05
7.67182e-05
0.000169629
0.000228075
0.00023116
9.08741e-05
0.000231159
9.08561e-05
0.000169652
7.67109e-05
4.51613e-05
7.67114e-05
4.51615e-05
0.000169649
0.000231153
9.0891e-05
0.000228075
0.000169636
0.000231157
9.08971e-05
7.67106e-05
4.51601e-05
7.67109e-05
4.51598e-05
0.000169629
0.000228079
9.08924e-05
0.00023116
9.08762e-05
0.00023116
0.000169649
7.67026e-05
4.51613e-05
4.51615e-05
7.67109e-05
0.000169629
0.000228077
0.00023116
9.08951e-05
0.000231159
9.0879e-05
0.00016965
7.67022e-05
4.51597e-05
4.51598e-05
7.67105e-05
4.86817e-05
4.87065e-05
0.000222064
4.86831e-05
4.87076e-05
2.55834e-05
2.55833e-05
2.55811e-05
2.55812e-05
0.000222012
4.86844e-05
4.87079e-05
4.86797e-05
4.87059e-05
2.55833e-05
2.55833e-05
0.000169652
0.000231152
9.08782e-05
0.000228077
0.000169632
0.000231157
9.089e-05
7.67189e-05
4.51597e-05
7.67145e-05
4.51596e-05
7.67198e-05
4.51593e-05
7.67149e-05
4.51592e-05
0.000169632
0.00022808
0.00023116
9.0896e-05
0.00023116
9.08798e-05
0.000169652
0.00016963
0.000228079
0.00023116
9.0889e-05
0.00023116
9.08722e-05
0.000169655
7.67125e-05
4.51595e-05
4.51596e-05
7.67193e-05
7.67131e-05
4.5159e-05
4.51592e-05
7.67201e-05
2.55833e-05
2.55832e-05
2.55824e-05
2.55824e-05
0.000222013
4.87081e-05
4.86984e-05
4.8706e-05
4.86966e-05
2.55831e-05
2.55832e-05
2.55823e-05
2.55824e-05
2.55835e-05
2.55835e-05
2.55825e-05
2.55825e-05
4.8692e-05
4.86984e-05
0.000222064
4.86961e-05
4.86999e-05
2.55835e-05
2.55835e-05
2.55825e-05
2.55825e-05
0.00022201
4.86962e-05
4.86998e-05
4.86915e-05
4.86984e-05
7.67119e-05
4.51626e-05
7.67038e-05
4.51626e-05
0.000169651
9.08704e-05
0.00023116
0.000228078
0.000169631
9.0889e-05
0.00023116
0.000169652
9.08771e-05
0.000231161
0.000228078
0.000169632
9.08937e-05
0.000231161
7.67034e-05
4.51617e-05
4.51616e-05
7.67115e-05
7.67038e-05
4.51626e-05
4.51626e-05
7.67119e-05
0.00016963
0.000228078
9.0889e-05
0.00023116
9.08708e-05
0.00023116
0.000169651
0.000169631
0.000228078
9.08936e-05
0.00023116
9.08773e-05
0.00023116
0.000169651
4.86992e-05
4.86921e-05
0.000222067
4.87014e-05
4.86961e-05
2.55839e-05
2.55838e-05
2.55836e-05
2.55835e-05
0.000222011
4.87014e-05
4.86963e-05
4.86997e-05
4.86916e-05
2.55838e-05
2.55839e-05
0.000169654
9.08728e-05
0.000231161
0.000228081
0.000169635
9.089e-05
0.000231161
7.67181e-05
4.51572e-05
7.67117e-05
4.51572e-05
0.000169651
0.00023116
9.08558e-05
0.000228076
0.000169632
0.00023116
9.08741e-05
7.67149e-05
4.51595e-05
4.51594e-05
7.67212e-05
0.000169633
0.000228081
9.08901e-05
0.00023116
9.08732e-05
0.00023116
0.000169654
7.67117e-05
4.51571e-05
4.51572e-05
7.67182e-05
0.00016963
0.000228076
0.00023116
9.0874e-05
0.000231159
9.08558e-05
0.000169651
7.67108e-05
4.51614e-05
7.67027e-05
4.51612e-05
0.000169651
0.000231161
9.08782e-05
0.000228078
0.000169631
0.000231161
9.08954e-05
7.67104e-05
4.51598e-05
7.67023e-05
4.51597e-05
0.000169631
0.000228081
9.08923e-05
0.00023116
9.08743e-05
0.00023116
0.000169649
7.67027e-05
4.51612e-05
4.51613e-05
7.6711e-05
0.000169631
0.000228078
0.00023116
9.08952e-05
0.00023116
9.08783e-05
0.00016965
7.67023e-05
4.51596e-05
4.51596e-05
7.67106e-05
4.86807e-05
4.87063e-05
0.000222062
4.86839e-05
4.87081e-05
2.55832e-05
2.55832e-05
2.5581e-05
2.55811e-05
0.000222008
4.86843e-05
4.87081e-05
4.86802e-05
4.87063e-05
2.55832e-05
2.55832e-05
0.000169655
0.000231161
9.08718e-05
0.00022808
0.000169633
0.000231161
9.08892e-05
7.67192e-05
4.51595e-05
7.67128e-05
4.51594e-05
7.67201e-05
4.5159e-05
7.67134e-05
4.5159e-05
0.000169633
0.00022808
0.00023116
9.08961e-05
0.00023116
9.08796e-05
0.000169651
0.000169632
0.00022808
0.00023116
9.0889e-05
0.00023116
9.08719e-05
0.000169653
7.67128e-05
4.51594e-05
4.51594e-05
7.67194e-05
7.67134e-05
4.5159e-05
4.51591e-05
7.67202e-05
2.55831e-05
2.55831e-05
2.55823e-05
2.55823e-05
0.000222009
4.87084e-05
4.86985e-05
4.87065e-05
4.86968e-05
2.55831e-05
2.55831e-05
2.55823e-05
2.55823e-05
2.55835e-05
2.55835e-05
2.55825e-05
2.55825e-05
4.86919e-05
4.86984e-05
0.000222066
4.8696e-05
4.87e-05
2.55835e-05
2.55835e-05
2.55825e-05
2.55825e-05
0.000222012
4.86962e-05
4.86999e-05
4.86914e-05
4.86985e-05
7.67118e-05
4.51626e-05
7.67038e-05
4.51626e-05
0.00016965
9.08705e-05
0.00023116
0.000228079
0.000169631
9.0889e-05
0.00023116
0.000169652
9.08771e-05
0.00023116
0.000228078
0.000169632
9.08938e-05
0.00023116
7.67034e-05
4.51617e-05
4.51616e-05
7.67115e-05
7.67038e-05
4.51626e-05
4.51626e-05
7.67119e-05
0.00016963
0.000228079
9.0889e-05
0.00023116
9.08708e-05
0.00023116
0.000169651
0.000169631
0.000228078
9.08936e-05
0.00023116
9.08773e-05
0.00023116
0.000169652
4.86995e-05
4.86924e-05
0.000222068
4.87015e-05
4.86961e-05
2.55839e-05
2.55838e-05
2.55836e-05
2.55835e-05
0.000222013
4.87014e-05
4.86963e-05
4.86998e-05
4.86916e-05
2.55838e-05
2.55839e-05
0.000169654
9.08729e-05
0.000231161
0.000228081
0.000169634
9.089e-05
0.000231161
7.67181e-05
4.51572e-05
7.67117e-05
4.51572e-05
0.000169651
0.00023116
9.08557e-05
0.000228076
0.000169631
0.00023116
9.0874e-05
7.67149e-05
4.51595e-05
4.51594e-05
7.67212e-05
0.000169633
0.000228081
9.08901e-05
0.00023116
9.08733e-05
0.000231161
0.000169654
7.67117e-05
4.51571e-05
4.51572e-05
7.67182e-05
0.00016963
0.000228076
0.00023116
9.0874e-05
0.00023116
9.08558e-05
0.000169651
7.67108e-05
4.51613e-05
7.67028e-05
4.51612e-05
0.000169651
0.00023116
9.08782e-05
0.000228078
0.00016963
0.00023116
9.08954e-05
7.67104e-05
4.51596e-05
7.67023e-05
4.51596e-05
0.000169631
0.000228082
9.08923e-05
0.000231161
9.08743e-05
0.000231161
0.000169649
7.67027e-05
4.51612e-05
4.51613e-05
7.6711e-05
0.000169631
0.000228079
0.00023116
9.08952e-05
0.00023116
9.08783e-05
0.00016965
7.67023e-05
4.51596e-05
4.51596e-05
7.67105e-05
4.86806e-05
4.87063e-05
0.000222064
4.86839e-05
4.87081e-05
2.55832e-05
2.55832e-05
2.5581e-05
2.55811e-05
0.000222009
4.86843e-05
4.87081e-05
4.86802e-05
4.87063e-05
2.55832e-05
2.55832e-05
0.000169655
0.00023116
9.08719e-05
0.00022808
0.000169632
0.00023116
9.08892e-05
7.67192e-05
4.51594e-05
7.67129e-05
4.51594e-05
7.67202e-05
4.5159e-05
7.67134e-05
4.5159e-05
0.000169633
0.000228081
0.00023116
9.08961e-05
0.00023116
9.08796e-05
0.000169652
0.000169632
0.000228081
0.00023116
9.0889e-05
0.00023116
9.08719e-05
0.000169654
7.67128e-05
4.51594e-05
4.51594e-05
7.67194e-05
7.67134e-05
4.5159e-05
4.5159e-05
7.67202e-05
2.55831e-05
2.55831e-05
2.55823e-05
2.55823e-05
0.00022201
4.87084e-05
4.86985e-05
4.87066e-05
4.86968e-05
2.55831e-05
2.55831e-05
2.55823e-05
2.55823e-05
2.55835e-05
2.55835e-05
2.55825e-05
2.55825e-05
4.8692e-05
4.86984e-05
0.000222066
4.86959e-05
4.87e-05
2.55835e-05
2.55835e-05
2.55825e-05
2.55825e-05
0.000222012
4.86963e-05
4.86999e-05
4.86913e-05
4.86985e-05
7.67118e-05
4.51626e-05
7.67037e-05
4.51626e-05
0.00016965
9.08705e-05
0.00023116
0.000228078
0.000169631
9.0889e-05
0.00023116
0.000169652
9.08771e-05
0.00023116
0.000228078
0.000169632
9.08938e-05
0.00023116
7.67035e-05
4.51617e-05
4.51616e-05
7.67115e-05
7.67037e-05
4.51626e-05
4.51626e-05
7.67119e-05
0.00016963
0.000228079
9.0889e-05
0.00023116
9.08708e-05
0.00023116
0.000169652
0.000169631
0.000228078
9.08937e-05
0.00023116
9.08773e-05
0.00023116
0.000169652
4.86995e-05
4.86923e-05
0.000222067
4.87015e-05
4.86961e-05
2.55839e-05
2.55838e-05
2.55836e-05
2.55835e-05
0.000222013
4.87014e-05
4.86963e-05
4.86997e-05
4.86917e-05
2.55838e-05
2.55839e-05
0.000169654
9.08729e-05
0.000231161
0.000228081
0.000169634
9.08901e-05
0.000231161
7.67182e-05
4.51572e-05
7.67117e-05
4.51572e-05
0.000169651
0.00023116
9.08557e-05
0.000228076
0.000169631
0.00023116
9.0874e-05
7.6715e-05
4.51595e-05
4.51594e-05
7.67212e-05
0.000169633
0.000228081
9.08901e-05
0.00023116
9.08733e-05
0.000231161
0.000169654
7.67118e-05
4.51571e-05
4.51572e-05
7.67182e-05
0.00016963
0.000228076
0.00023116
9.0874e-05
0.00023116
9.08558e-05
0.000169651
7.67108e-05
4.51613e-05
7.67028e-05
4.51612e-05
0.000169651
0.000231161
9.08782e-05
0.000228078
0.00016963
0.00023116
9.08954e-05
7.67104e-05
4.51596e-05
7.67023e-05
4.51596e-05
0.000169631
0.000228082
9.08923e-05
0.000231161
9.08743e-05
0.000231161
0.000169649
7.67027e-05
4.51612e-05
4.51613e-05
7.6711e-05
0.000169631
0.000228079
0.00023116
9.08952e-05
0.00023116