/*--------------------------------*- C++ -*----------------------------------*\
| =========                 |                                                 |
| \\      /  F ield         | OpenFOAM: The Open Source CFD Toolbox           |
|  \\    /   O peration     | Version:  2206                                  |
|   \\  /    A nd           | Website:  www.openfoam.com                      |
|    \\/     M anipulation  |                                                 |
\*---------------------------------------------------------------------------*/
FoamFile
{
    version     2.0;
    format      ascii;
    arch        "LSB;label=32;scalar=64";
    class       volScalarField;
    location    "40";
    object      p;
}
// * * * * * * * * * * * * * * * * * * * * * * * * * * * * * * * * * * * * * //

dimensions      [0 2 -2 0 0 0 0];

internalField   nonuniform List<scalar> 
171728
(
0.00382134
0.00382167
0.00382167
0.00382473
0.00376598
0.00376639
0.00376639
0.00376939
0.00371522
0.00371519
0.00371519
0.00371795
0.00366283
0.00366284
0.00366284
0.00366561
0.00361148
0.00361148
0.00361148
0.00361422
0.00356149
0.0035615
0.0035615
0.00356421
0.003513
0.003513
0.003513
0.00351567
0.00346636
0.00346624
0.00346624
0.00346878
0.00342275
0.00342261
0.00342261
0.00342499
0.00338209
0.00338202
0.00338202
0.00338441
0.0033421
0.00334205
0.00334205
0.00334442
0.00330226
0.00330222
0.00330222
0.00330458
0.00326247
0.00326242
0.00326242
0.00326479
0.00322267
0.00322263
0.00322263
0.00322499
0.00318288
0.00318284
0.00318284
0.0031852
0.00314309
0.00314305
0.00314305
0.00314541
0.0031033
0.00310326
0.00310326
0.00310562
0.00306351
0.00306347
0.00306346
0.00306583
0.00302372
0.00302368
0.00302368
0.00302604
0.00298393
0.00298389
0.00298389
0.00298625
0.00294413
0.00294409
0.00294409
0.00294645
0.00290434
0.00290429
0.00290429
0.00290666
0.00286454
0.0028645
0.0028645
0.00286686
0.00282475
0.00282471
0.00282471
0.00282707
0.00278496
0.00278492
0.00278492
0.00278728
0.00274517
0.00274513
0.00274513
0.00274749
0.00270538
0.00270534
0.00270534
0.0027077
0.0026656
0.00266555
0.00266555
0.00266791
0.00262581
0.00262577
0.00262577
0.00262813
0.00258602
0.00258598
0.00258598
0.00258834
0.00254624
0.00254619
0.00254619
0.00254856
0.00250645
0.00250641
0.00250641
0.00250877
0.00246666
0.00246662
0.00246662
0.00246898
0.00242688
0.00242684
0.00242684
0.0024292
0.00238709
0.00238705
0.00238705
0.00238941
0.0023473
0.00234726
0.00234726
0.00234962
0.00230751
0.00230747
0.00230747
0.00230983
0.00226772
0.00226768
0.00226767
0.00227004
0.00222792
0.00222787
0.00222787
0.00223024
0.00218812
0.00218807
0.00218807
0.00219044
0.00214832
0.00214828
0.00214828
0.00215064
0.00210853
0.00210849
0.00210849
0.00211085
0.00206874
0.0020687
0.0020687
0.00207106
0.00202895
0.00202891
0.00202891
0.00203127
0.00198916
0.00198912
0.00198912
0.00199148
0.00194937
0.00194933
0.00194933
0.00195169
0.00190959
0.00190954
0.00190954
0.00191191
0.0018698
0.00186976
0.00186976
0.00187212
0.00183002
0.00182997
0.00182997
0.00183234
0.00179024
0.00179019
0.00179019
0.00179256
0.00175046
0.00175042
0.00175042
0.00175278
0.00171068
0.00171064
0.00171064
0.001713
0.0016709
0.00167086
0.00167086
0.00167322
0.00163112
0.00163108
0.00163108
0.00163344
0.00159134
0.0015913
0.0015913
0.00159366
0.00155156
0.00155152
0.00155152
0.00155388
0.00151177
0.00151172
0.00151172
0.00151409
0.00147198
0.00147194
0.00147194
0.0014743
0.0014322
0.00143215
0.00143215
0.00143452
0.00139241
0.00139237
0.00139237
0.00139473
0.00135263
0.00135259
0.00135259
0.00135495
0.00131285
0.00131281
0.00131281
0.00131517
0.00127307
0.00127303
0.00127303
0.00127539
0.00123329
0.00123325
0.00123325
0.00123561
0.00119351
0.00119346
0.00119346
0.00119583
0.00115372
0.00115368
0.00115368
0.00115604
0.00111393
0.00111389
0.00111389
0.00111625
0.00107415
0.00107411
0.00107411
0.00107647
0.00103437
0.00103433
0.00103433
0.00103669
0.000994586
0.000994544
0.000994543
0.000996905
0.000954802
0.00095476
0.000954761
0.000957123
0.000915017
0.000914974
0.000914975
0.000917337
0.000875226
0.000875184
0.000875183
0.000877546
0.000835426
0.000835384
0.000835383
0.000837746
0.000795626
0.000795584
0.000795584
0.000797947
0.000755832
0.00075579
0.00075579
0.000758152
0.000716038
0.000715996
0.000715996
0.000718358
0.000676243
0.000676201
0.000676201
0.000678564
0.000636448
0.000636406
0.000636406
0.000638769
0.000596652
0.00059661
0.00059661
0.000598972
0.000556855
0.000556813
0.000556813
0.000559176
0.000517058
0.000517016
0.000517016
0.000519379
0.00047726
0.000477218
0.000477218
0.000479581
0.000437462
0.00043742
0.00043742
0.000439782
0.000397667
0.000397625
0.000397625
0.000399987
0.000357873
0.000357832
0.000357832
0.000360194
0.000318079
0.000318035
0.000318035
0.000320396
0.000278291
0.000278252
0.000278252
0.000280612
0.000238493
0.000238448
0.000238448
0.000240807
0.000198694
0.000198658
0.000198657
0.000201012
0.000158881
0.000158843
0.000158843
0.000161192
0.000119055
0.00011902
0.00011902
0.000121354
7.92334e-05
7.91871e-05
7.91854e-05
8.14935e-05
4.01096e-05
3.95586e-05
3.95556e-05
4.17275e-05
8.07858e-06
8.17324e-06
8.17099e-06
7.71509e-06
0.00383475
0.00383498
0.00383498
0.00383475
0.00383498
0.00383498
0.00383574
0.00383574
0.00383574
0.00383574
0.00383498
0.00383498
0.00383475
0.00383498
0.00383498
0.00383475
0.00382473
0.00377596
0.00382167
0.00382167
0.00377824
0.00377824
0.00382473
0.00377596
0.00382167
0.00382167
0.00377824
0.00377824
0.00382167
0.00377824
0.00377824
0.00382473
0.00377596
0.00382167
0.00377824
0.00377824
0.00377596
0.00376939
0.00372487
0.0037664
0.0037664
0.00372832
0.00372832
0.00376939
0.00372487
0.00376639
0.0037664
0.00372832
0.00372832
0.0037664
0.00372832
0.00372832
0.00376939
0.00372487
0.00376639
0.00372832
0.00372832
0.00372487
0.00371795
0.00367249
0.00371519
0.00371519
0.00367585
0.00367586
0.00371795
0.00367249
0.00371519
0.00371519
0.00367585
0.00367586
0.00371519
0.00367585
0.00367585
0.00371795
0.00367249
0.00371519
0.00367585
0.00367585
0.00367249
0.00366561
0.00362093
0.00366284
0.00366284
0.0036242
0.00362421
0.00366561
0.00362093
0.00366284
0.00366284
0.0036242
0.00362421
0.00366284
0.0036242
0.00362421
0.00366561
0.00362093
0.00366284
0.0036242
0.0036242
0.00362093
0.00361422
0.00357072
0.00361148
0.00361148
0.00357385
0.00357385
0.00361422
0.00357072
0.00361148
0.00361148
0.00357385
0.00357385
0.00361148
0.00357385
0.00357385
0.00361422
0.00357072
0.00361148
0.00357385
0.00357385
0.00357072
0.00356421
0.00352198
0.0035615
0.0035615
0.00352497
0.00352497
0.00356421
0.00352198
0.0035615
0.0035615
0.00352497
0.00352497
0.0035615
0.00352497
0.00352497
0.00356421
0.00352198
0.0035615
0.00352497
0.00352497
0.00352198
0.00351567
0.0034748
0.003513
0.003513
0.00347765
0.00347765
0.00351567
0.0034748
0.003513
0.003513
0.00347765
0.00347765
0.003513
0.00347765
0.00347765
0.00351567
0.0034748
0.003513
0.00347765
0.00347766
0.0034748
0.00346878
0.00343048
0.00346623
0.00346623
0.00343315
0.00343315
0.00346878
0.00343049
0.00346624
0.00346623
0.00343315
0.00343315
0.00346623
0.00343315
0.00343315
0.00346878
0.00343048
0.00346624
0.00343315
0.00343315
0.00343049
0.00342499
0.00338968
0.00342261
0.00342261
0.00339205
0.00339205
0.00342499
0.00338968
0.00342261
0.00342261
0.00339205
0.00339205
0.00342261
0.00339205
0.00339205
0.00342499
0.00338968
0.00342261
0.00339205
0.00339205
0.00338968
0.00338441
0.00334966
0.00338202
0.00338202
0.00335202
0.00335202
0.00338441
0.00334966
0.00338202
0.00338202
0.00335202
0.00335202
0.00338202
0.00335202
0.00335202
0.00338441
0.00334966
0.00338202
0.00335202
0.00335202
0.00334966
0.00334442
0.00330981
0.00334205
0.00334205
0.00331217
0.00331217
0.00334442
0.00330981
0.00334205
0.00334205
0.00331217
0.00331217
0.00334205
0.00331217
0.00331217
0.00334442
0.00330981
0.00334205
0.00331217
0.00331217
0.00330981
0.00330458
0.00327002
0.00330222
0.00330222
0.00327237
0.00327237
0.00330458
0.00327002
0.00330222
0.00330222
0.00327237
0.00327237
0.00330222
0.00327237
0.00327237
0.00330458
0.00327002
0.00330222
0.00327237
0.00327237
0.00327002
0.00326479
0.00323022
0.00326242
0.00326242
0.00323258
0.00323258
0.00326479
0.00323023
0.00326242
0.00326242
0.00323258
0.00323258
0.00326242
0.00323258
0.00323258
0.00326479
0.00323022
0.00326242
0.00323258
0.00323258
0.00323022
0.00322499
0.00319043
0.00322263
0.00322263
0.00319279
0.00319279
0.00322499
0.00319043
0.00322263
0.00322263
0.00319279
0.00319279
0.00322263
0.00319279
0.00319279
0.00322499
0.00319043
0.00322263
0.00319279
0.00319279
0.00319043
0.0031852
0.00315064
0.00318284
0.00318284
0.003153
0.00315299
0.0031852
0.00315064
0.00318284
0.00318284
0.00315299
0.003153
0.00318284
0.00315299
0.00315299
0.0031852
0.00315064
0.00318284
0.00315299
0.00315299
0.00315064
0.00314541
0.00311085
0.00314305
0.00314305
0.0031132
0.0031132
0.00314541
0.00311085
0.00314305
0.00314305
0.0031132
0.0031132
0.00314305
0.0031132
0.0031132
0.00314541
0.00311085
0.00314305
0.0031132
0.0031132
0.00311085
0.00310562
0.00307106
0.00310326
0.00310326
0.00307341
0.00307341
0.00310562
0.00307106
0.00310326
0.00310326
0.00307341
0.00307341
0.00310326
0.00307341
0.00307341
0.00310562
0.00307106
0.00310326
0.00307341
0.00307341
0.00307106
0.00306583
0.00303127
0.00306347
0.00306347
0.00303362
0.00303362
0.00306583
0.00303127
0.00306346
0.00306346
0.00303362
0.00303362
0.00306346
0.00303362
0.00303362
0.00306583
0.00303127
0.00306346
0.00303362
0.00303362
0.00303127
0.00302604
0.00299148
0.00302368
0.00302368
0.00299383
0.00299383
0.00302604
0.00299148
0.00302368
0.00302368
0.00299383
0.00299383
0.00302368
0.00299383
0.00299383
0.00302604
0.00299148
0.00302368
0.00299383
0.00299383
0.00299148
0.00298625
0.00295169
0.00298389
0.00298388
0.00295404
0.00295404
0.00298625
0.00295169
0.00298389
0.00298389
0.00295404
0.00295404
0.00298389
0.00295404
0.00295404
0.00298625
0.00295169
0.00298389
0.00295404
0.00295404
0.00295169
0.00294645
0.00291189
0.00294409
0.00294409
0.00291424
0.00291424
0.00294645
0.00291189
0.00294409
0.00294409
0.00291424
0.00291424
0.00294409
0.00291424
0.00291424
0.00294645
0.00291189
0.00294409
0.00291424
0.00291424
0.00291189
0.00290666
0.0028721
0.00290429
0.00290429
0.00287445
0.00287445
0.00290666
0.0028721
0.00290429
0.00290429
0.00287445
0.00287445
0.00290429
0.00287445
0.00287445
0.00290666
0.0028721
0.00290429
0.00287445
0.00287445
0.0028721
0.00286686
0.00283231
0.0028645
0.0028645
0.00283466
0.00283466
0.00286686
0.00283231
0.0028645
0.0028645
0.00283466
0.00283466
0.0028645
0.00283466
0.00283466
0.00286686
0.00283231
0.0028645
0.00283466
0.00283466
0.00283231
0.00282707
0.00279252
0.00282471
0.00282471
0.00279487
0.00279487
0.00282707
0.00279252
0.00282471
0.00282471
0.00279487
0.00279487
0.00282471
0.00279487
0.00279487
0.00282707
0.00279252
0.00282471
0.00279487
0.00279487
0.00279252
0.00278728
0.00275272
0.00278492
0.00278492
0.00275508
0.00275508
0.00278728
0.00275273
0.00278492
0.00278492
0.00275508
0.00275508
0.00278492
0.00275508
0.00275508
0.00278728
0.00275272
0.00278492
0.00275508
0.00275508
0.00275272
0.00274749
0.00271293
0.00274513
0.00274513
0.00271529
0.00271529
0.00274749
0.00271293
0.00274513
0.00274513
0.00271529
0.00271529
0.00274513
0.00271529
0.00271529
0.00274749
0.00271293
0.00274513
0.00271529
0.00271529
0.00271293
0.0027077
0.00267315
0.00270534
0.00270534
0.0026755
0.0026755
0.0027077
0.00267315
0.00270534
0.00270534
0.0026755
0.0026755
0.00270534
0.0026755
0.0026755
0.0027077
0.00267315
0.00270534
0.0026755
0.0026755
0.00267315
0.00266791
0.00263336
0.00266555
0.00266555
0.00263571
0.00263571
0.00266791
0.00263336
0.00266555
0.00266555
0.00263571
0.00263571
0.00266555
0.00263571
0.00263571
0.00266791
0.00263336
0.00266555
0.00263571
0.00263571
0.00263336
0.00262813
0.00259358
0.00262577
0.00262577
0.00259593
0.00259593
0.00262813
0.00259358
0.00262577
0.00262577
0.00259593
0.00259593
0.00262577
0.00259593
0.00259593
0.00262813
0.00259358
0.00262577
0.00259593
0.00259593
0.00259358
0.00258834
0.00255379
0.00258598
0.00258598
0.00255614
0.00255614
0.00258834
0.00255379
0.00258598
0.00258598
0.00255614
0.00255614
0.00258598
0.00255614
0.00255614
0.00258834
0.00255379
0.00258598
0.00255614
0.00255614
0.00255379
0.00254856
0.002514
0.00254619
0.00254619
0.00251635
0.00251635
0.00254856
0.002514
0.00254619
0.00254619
0.00251635
0.00251635
0.00254619
0.00251635
0.00251635
0.00254856
0.002514
0.00254619
0.00251635
0.00251635
0.002514
0.00250877
0.00247422
0.00250641
0.00250641
0.00247657
0.00247657
0.00250877
0.00247422
0.00250641
0.00250641
0.00247657
0.00247657
0.00250641
0.00247657
0.00247657
0.00250877
0.00247422
0.00250641
0.00247657
0.00247657
0.00247422
0.00246898
0.00243443
0.00246662
0.00246662
0.00243678
0.00243678
0.00246898
0.00243443
0.00246662
0.00246662
0.00243678
0.00243678
0.00246662
0.00243678
0.00243678
0.00246898
0.00243443
0.00246662
0.00243678
0.00243678
0.00243443
0.0024292
0.00239464
0.00242684
0.00242684
0.002397
0.002397
0.0024292
0.00239464
0.00242684
0.00242684
0.002397
0.002397
0.00242684
0.002397
0.002397
0.0024292
0.00239464
0.00242684
0.002397
0.002397
0.00239464
0.00238941
0.00235486
0.00238705
0.00238705
0.00235721
0.00235721
0.00238941
0.00235486
0.00238705
0.00238705
0.00235721
0.00235721
0.00238705
0.00235721
0.00235721
0.00238941
0.00235486
0.00238705
0.00235721
0.00235721
0.00235486
0.00234962
0.00231507
0.00234726
0.00234726
0.00231742
0.00231742
0.00234962
0.00231506
0.00234726
0.00234726
0.00231742
0.00231742
0.00234726
0.00231742
0.00231742
0.00234962
0.00231507
0.00234726
0.00231742
0.00231742
0.00231506
0.00230983
0.00227527
0.00230747
0.00230747
0.00227763
0.00227762
0.00230983
0.00227527
0.00230747
0.00230747
0.00227762
0.00227762
0.00230747
0.00227763
0.00227763
0.00230983
0.00227527
0.00230747
0.00227762
0.00227762
0.00227527
0.00227004
0.00223547
0.00226768
0.00226768
0.00223782
0.00223782
0.00227004
0.00223547
0.00226767
0.00226768
0.00223782
0.00223782
0.00226768
0.00223782
0.00223782
0.00227004
0.00223547
0.00226768
0.00223782
0.00223782
0.00223547
0.00223024
0.00219567
0.00222787
0.00222787
0.00219802
0.00219802
0.00223024
0.00219567
0.00222787
0.00222787
0.00219802
0.00219802
0.00222787
0.00219802
0.00219802
0.00223024
0.00219567
0.00222787
0.00219802
0.00219802
0.00219567
0.00219044
0.00215588
0.00218808
0.00218807
0.00215823
0.00215823
0.00219044
0.00215588
0.00218807
0.00218807
0.00215823
0.00215823
0.00218807
0.00215823
0.00215823
0.00219044
0.00215588
0.00218808
0.00215823
0.00215823
0.00215588
0.00215064
0.00211608
0.00214828
0.00214828
0.00211844
0.00211844
0.00215064
0.00211608
0.00214828
0.00214828
0.00211844
0.00211844
0.00214828
0.00211844
0.00211844
0.00215064
0.00211608
0.00214828
0.00211844
0.00211844
0.00211608
0.00211085
0.00207629
0.00210849
0.00210849
0.00207865
0.00207864
0.00211085
0.00207629
0.00210849
0.00210849
0.00207865
0.00207865
0.00210849
0.00207864
0.00207865
0.00211085
0.00207629
0.00210849
0.00207865
0.00207865
0.00207629
0.00207106
0.0020365
0.0020687
0.0020687
0.00203885
0.00203885
0.00207106
0.0020365
0.0020687
0.0020687
0.00203885
0.00203885
0.0020687
0.00203885
0.00203885
0.00207106
0.0020365
0.0020687
0.00203885
0.00203885
0.0020365
0.00203127
0.00199671
0.00202891
0.00202891
0.00199906
0.00199906
0.00203127
0.00199671
0.00202891
0.00202891
0.00199906
0.00199906
0.00202891
0.00199906
0.00199906
0.00203127
0.00199671
0.00202891
0.00199906
0.00199906
0.00199671
0.00199148
0.00195692
0.00198912
0.00198912
0.00195928
0.00195928
0.00199148
0.00195692
0.00198912
0.00198912
0.00195928
0.00195928
0.00198912
0.00195928
0.00195928
0.00199148
0.00195692
0.00198912
0.00195928
0.00195928
0.00195692
0.00195169
0.00191714
0.00194933
0.00194933
0.00191949
0.00191949
0.00195169
0.00191714
0.00194933
0.00194933
0.00191949
0.00191949
0.00194933
0.00191949
0.00191949
0.00195169
0.00191714
0.00194933
0.00191949
0.00191949
0.00191714
0.00191191
0.00187735
0.00190954
0.00190954
0.00187971
0.00187971
0.00191191
0.00187735
0.00190954
0.00190954
0.0018797
0.00187971
0.00190954
0.00187971
0.00187971
0.00191191
0.00187735
0.00190954
0.00187971
0.00187971
0.00187735
0.00187212
0.00183757
0.00186976
0.00186976
0.00183992
0.00183992
0.00187212
0.00183757
0.00186976
0.00186976
0.00183992
0.00183992
0.00186976
0.00183992
0.00183992
0.00187212
0.00183757
0.00186976
0.00183992
0.00183992
0.00183757
0.00183234
0.00179779
0.00182997
0.00182997
0.00180014
0.00180014
0.00183234
0.00179779
0.00182997
0.00182997
0.00180014
0.00180014
0.00182997
0.00180014
0.00180014
0.00183234
0.00179779
0.00182997
0.00180014
0.00180014
0.00179779
0.00179256
0.00175801
0.00179019
0.00179019
0.00176036
0.00176036
0.00179256
0.00175801
0.00179019
0.00179019
0.00176036
0.00176036
0.00179019
0.00176036
0.00176036
0.00179256
0.00175801
0.00179019
0.00176036
0.00176036
0.00175801
0.00175278
0.00171823
0.00175042
0.00175042
0.00172058
0.00172058
0.00175278
0.00171823
0.00175042
0.00175042
0.00172058
0.00172058
0.00175042
0.00172058
0.00172058
0.00175278
0.00171823
0.00175042
0.00172058
0.00172058
0.00171823
0.001713
0.00167845
0.00171064
0.00171064
0.0016808
0.0016808
0.001713
0.00167845
0.00171064
0.00171064
0.0016808
0.0016808
0.00171064
0.0016808
0.0016808
0.001713
0.00167845
0.00171064
0.0016808
0.0016808
0.00167845
0.00167322
0.00163867
0.00167086
0.00167086
0.00164103
0.00164102
0.00167322
0.00163867
0.00167086
0.00167086
0.00164103
0.00164103
0.00167086
0.00164103
0.00164103
0.00167322
0.00163867
0.00167086
0.00164103
0.00164103
0.00163867
0.00163344
0.00159889
0.00163108
0.00163108
0.00160125
0.00160125
0.00163344
0.00159889
0.00163108
0.00163108
0.00160125
0.00160125
0.00163108
0.00160125
0.00160125
0.00163344
0.00159889
0.00163108
0.00160125
0.00160125
0.00159889
0.00159366
0.00155911
0.0015913
0.0015913
0.00156146
0.00156146
0.00159366
0.00155911
0.0015913
0.0015913
0.00156146
0.00156146
0.0015913
0.00156146
0.00156146
0.00159366
0.00155911
0.0015913
0.00156146
0.00156146
0.00155911
0.00155388
0.00151932
0.00155152
0.00155152
0.00152167
0.00152167
0.00155388
0.00151932
0.00155152
0.00155152
0.00152167
0.00152167
0.00155152
0.00152167
0.00152167
0.00155388
0.00151932
0.00155152
0.00152167
0.00152167
0.00151932
0.00151409
0.00147953
0.00151172
0.00151172
0.00148188
0.00148188
0.00151409
0.00147953
0.00151172
0.00151172
0.00148188
0.00148188
0.00151172
0.00148188
0.00148188
0.00151409
0.00147953
0.00151172
0.00148188
0.00148188
0.00147953
0.0014743
0.00143975
0.00147194
0.00147194
0.0014421
0.0014421
0.0014743
0.00143975
0.00147194
0.00147194
0.0014421
0.0014421
0.00147194
0.0014421
0.0014421
0.0014743
0.00143975
0.00147194
0.0014421
0.0014421
0.00143975
0.00143452
0.00139996
0.00143215
0.00143215
0.00140232
0.00140232
0.00143452
0.00139996
0.00143215
0.00143215
0.00140232
0.00140232
0.00143215
0.00140232
0.00140232
0.00143452
0.00139996
0.00143215
0.00140232
0.00140232
0.00139996
0.00139473
0.00136018
0.00139237
0.00139237
0.00136254
0.00136254
0.00139473
0.00136018
0.00139237
0.00139237
0.00136254
0.00136254
0.00139237
0.00136254
0.00136254
0.00139473
0.00136018
0.00139237
0.00136254
0.00136254
0.00136018
0.00135495
0.0013204
0.00135259
0.00135259
0.00132276
0.00132275
0.00135495
0.0013204
0.00135259
0.00135259
0.00132275
0.00132275
0.00135259
0.00132275
0.00132276
0.00135495
0.0013204
0.00135259
0.00132275
0.00132275
0.0013204
0.00131517
0.00128062
0.00131281
0.00131281
0.00128297
0.00128297
0.00131517
0.00128062
0.00131281
0.00131281
0.00128297
0.00128297
0.00131281
0.00128297
0.00128297
0.00131517
0.00128062
0.00131281
0.00128297
0.00128297
0.00128062
0.00127539
0.00124084
0.00127303
0.00127303
0.00124319
0.00124319
0.00127539
0.00124084
0.00127303
0.00127303
0.00124319
0.00124319
0.00127303
0.00124319
0.00124319
0.00127539
0.00124084
0.00127303
0.00124319
0.00124319
0.00124084
0.00123561
0.00120106
0.00123325
0.00123325
0.00120341
0.00120341
0.00123561
0.00120106
0.00123325
0.00123325
0.00120341
0.00120341
0.00123325
0.00120341
0.00120341
0.00123561
0.00120106
0.00123325
0.00120341
0.00120341
0.00120106
0.00119583
0.00116127
0.00119346
0.00119346
0.00116363
0.00116363
0.00119583
0.00116127
0.00119346
0.00119346
0.00116362
0.00116362
0.00119346
0.00116363
0.00116363
0.00119583
0.00116127
0.00119346
0.00116362
0.00116362
0.00116127
0.00115604
0.00112148
0.00115368
0.00115368
0.00112384
0.00112384
0.00115604
0.00112149
0.00115368
0.00115368
0.00112384
0.00112384
0.00115368
0.00112384
0.00112384
0.00115604
0.00112148
0.00115368
0.00112384
0.00112384
0.00112148
0.00111625
0.0010817
0.00111389
0.00111389
0.00108405
0.00108405
0.00111625
0.0010817
0.00111389
0.00111389
0.00108405
0.00108405
0.00111389
0.00108405
0.00108405
0.00111625
0.0010817
0.00111389
0.00108405
0.00108405
0.0010817
0.00107647
0.00104192
0.00107411
0.00107411
0.00104427
0.00104427
0.00107647
0.00104192
0.00107411
0.00107411
0.00104427
0.00104427
0.00107411
0.00104427
0.00104427
0.00107647
0.00104192
0.00107411
0.00104427
0.00104427
0.00104192
0.00103669
0.00100214
0.00103433
0.00103433
0.00100449
0.00100449
0.00103669
0.00100214
0.00103433
0.00103433
0.00100449
0.00100449
0.00103433
0.00100449
0.00100449
0.00103669
0.00100214
0.00103433
0.00100449
0.00100449
0.00100214
0.000996905
0.000962353
0.000994544
0.000994543
0.000964706
0.000964706
0.000996905
0.000962353
0.000994543
0.000994543
0.000964706
0.000964706
0.000994544
0.000964706
0.000964706
0.000996905
0.000962353
0.000994543
0.000964707
0.000964707
0.000962353
0.000957122
0.000922568
0.00095476
0.00095476
0.000924921
0.000924921
0.000957122
0.000922568
0.00095476
0.00095476
0.000924921
0.000924921
0.000954761
0.000924921
0.000924921
0.000957122
0.000922568
0.000954761
0.000924921
0.000924921
0.000922568
0.000917336
0.000882779
0.000914974
0.000914974
0.000885133
0.000885133
0.000917336
0.000882779
0.000914974
0.000914975
0.000885132
0.000885132
0.000914975
0.000885132
0.000885132
0.000917337
0.000882778
0.000914975
0.000885132
0.000885132
0.000882778
0.000877546
0.00084298
0.000875184
0.000875184
0.000845334
0.000845334
0.000877546
0.00084298
0.000875184
0.000875183
0.000845334
0.000845334
0.000875184
0.000845334
0.000845334
0.000877546
0.000842979
0.000875183
0.000845334
0.000845334
0.000842979
0.000837746
0.000803179
0.000835384
0.000835384
0.000805533
0.000805533
0.000837746
0.000803179
0.000835384
0.000835383
0.000805533
0.000805533
0.000835383
0.000805533
0.000805534
0.000837745
0.000803179
0.000835383
0.000805533
0.000805533
0.000803179
0.000797946
0.000763384
0.000795584
0.000795584
0.000765738
0.000765738
0.000797946
0.000763385
0.000795584
0.000795584
0.000765738
0.000765739
0.000795585
0.000765738
0.000765739
0.000797947
0.000763385
0.000795584
0.000765739
0.000765739
0.000763385
0.000758152
0.000723591
0.00075579
0.00075579
0.000725945
0.000725944
0.000758152
0.000723591
0.00075579
0.00075579
0.000725944
0.000725945
0.00075579
0.000725944
0.000725945
0.000758152
0.00072359
0.00075579
0.000725944
0.000725944
0.00072359
0.000718358
0.000683796
0.000715996
0.000715996
0.00068615
0.00068615
0.000718358
0.000683796
0.000715996
0.000715996
0.00068615
0.00068615
0.000715996
0.00068615
0.00068615
0.000718358
0.000683796
0.000715996
0.00068615
0.00068615
0.000683796
0.000678564
0.000644001
0.000676201
0.000676201
0.000646355
0.000646355
0.000678564
0.000644001
0.000676201
0.000676201
0.000646355
0.000646355
0.000676202
0.000646355
0.000646355
0.000678564
0.000644001
0.000676201
0.000646355
0.000646355
0.000644001
0.000638769
0.000604205
0.000636406
0.000636406
0.000606559
0.000606559
0.000638768
0.000604205
0.000636406
0.000636406
0.000606559
0.000606559
0.000636406
0.000606559
0.000606559
0.000638769
0.000604205
0.000636406
0.000606559
0.000606559
0.000604205
0.000598973
0.000564408
0.00059661
0.00059661
0.000566763
0.000566762
0.000598972
0.000564409
0.00059661
0.00059661
0.000566762
0.000566763
0.00059661
0.000566763
0.000566763
0.000598972
0.000564408
0.00059661
0.000566763
0.000566763
0.000564408
0.000559176
0.000524611
0.000556813
0.000556813
0.000526965
0.000526965
0.000559176
0.000524611
0.000556813
0.000556813
0.000526965
0.000526965
0.000556814
0.000526965
0.000526966
0.000559176
0.000524611
0.000556813
0.000526965
0.000526965
0.000524611
0.000519378
0.000484813
0.000517016
0.000517016
0.000487167
0.000487167
0.000519378
0.000484813
0.000517016
0.000517016
0.000487167
0.000487167
0.000517016
0.000487167
0.000487168
0.000519378
0.000484813
0.000517016
0.000487167
0.000487167
0.000484813
0.000479581
0.000445015
0.000477218
0.000477218
0.000447369
0.000447369
0.00047958
0.000445015
0.000477218
0.000477218
0.000447369
0.000447369
0.000477218
0.000447369
0.000447369
0.00047958
0.000445015
0.000477218
0.000447369
0.000447369
0.000445015
0.000439782
0.000405219
0.00043742
0.00043742
0.000407573
0.000407573
0.000439782
0.000405219
0.00043742
0.00043742
0.000407573
0.000407573
0.00043742
0.000407573
0.000407573
0.000439782
0.000405219
0.00043742
0.000407573
0.000407573
0.000405219
0.000399987
0.000365426
0.000397625
0.000397625
0.00036778
0.00036778
0.000399987
0.000365426
0.000397625
0.000397625
0.00036778
0.00036778
0.000397625
0.00036778
0.00036778
0.000399987
0.000365426
0.000397625
0.00036778
0.00036778
0.000365426
0.000360194
0.000325632
0.000357832
0.000357832
0.000327984
0.000327984
0.000360194
0.000325632
0.000357832
0.000357832
0.000327984
0.000327984
0.000357833
0.000327984
0.000327984
0.000360194
0.000325631
0.000357832
0.000327984
0.000327984
0.000325632
0.000320396
0.000285843
0.000318035
0.000318035
0.000288198
0.000288198
0.000320396
0.000285843
0.000318035
0.000318035
0.000288198
0.000288198
0.000318035
0.000288198
0.000288198
0.000320396
0.000285842
0.000318035
0.000288198
0.000288197
0.000285842
0.000280613
0.000246049
0.000278253
0.000278252
0.0002484
0.0002484
0.000280612
0.000246049
0.000278252
0.000278252
0.0002484
0.0002484
0.000278252
0.0002484
0.0002484
0.000280613
0.000246049
0.000278252
0.0002484
0.0002484
0.000246049
0.000240807
0.000206256
0.000238448
0.000238448
0.000208608
0.000208608
0.000240807
0.000206256
0.000238448
0.000238448
0.000208607
0.000208607
0.000238448
0.000208608
0.000208608
0.000240807
0.000206256
0.000238448
0.000208607
0.000208608
0.000206256
0.000201012
0.000166451
0.000198658
0.000198658
0.000168799
0.000168798
0.000201012
0.00016645
0.000198657
0.000198658
0.000168799
0.000168799
0.000198658
0.000168798
0.000168798
0.000201012
0.000166451
0.000198658
0.000168799
0.000168798
0.000166451
0.000161192
0.000126634
0.000158843
0.000158843
0.00012898
0.000128979
0.000161191
0.000126634
0.000158843
0.000158844
0.00012898
0.00012898
0.000158843
0.000128979
0.000128979
0.000161192
0.000126634
0.000158843
0.00012898
0.000128979
0.000126634
0.000121355
8.68107e-05
0.00011902
0.00011902
8.91542e-05
8.91547e-05
0.000121354
8.68114e-05
0.00011902
0.00011902
8.91538e-05
8.91531e-05
0.00011902
8.91543e-05
8.91537e-05
0.000121354
8.68094e-05
0.00011902
8.9153e-05
8.91533e-05
8.68101e-05
8.14946e-05
4.70244e-05
7.9187e-05
7.91873e-05
4.93756e-05
4.9376e-05
8.14945e-05
4.70255e-05
7.91863e-05
7.91854e-05
4.93736e-05
4.93731e-05
7.91863e-05
4.93747e-05
4.93729e-05
8.14935e-05
4.70218e-05
7.91857e-05
4.93722e-05
4.93715e-05
4.70215e-05
4.17311e-05
1.1125e-05
3.95605e-05
3.95605e-05
1.32616e-05
1.32609e-05
4.17316e-05
1.11243e-05
3.95584e-05
3.9557e-05
1.326e-05
1.32561e-05
3.95563e-05
1.32583e-05
1.32548e-05
4.17279e-05
1.11199e-05
3.9555e-05
1.32558e-05
1.32559e-05
1.11196e-05
7.71893e-06
8.1753e-06
8.17493e-06
7.71886e-06
8.17377e-06
8.17085e-06
8.07804e-06
8.07591e-06
8.07586e-06
8.17041e-06
7.71525e-06
8.17086e-06
0.00384313
0.00385289
0.00384769
0.00384769
0.00387007
0.00385685
0.00388545
0.0038509
0.00387007
0.00385686
0.0038509
0.00388545
0.00386142
0.00388919
0.0038892
0.00379848
0.00381763
0.00382682
0.00379056
0.00379132
0.00379407
0.00379846
0.00381761
0.00382681
0.00379054
0.00382134
0.00382134
0.00382134
0.00377793
0.00377793
0.00377793
0.00377793
0.00379598
0.00382181
0.00382174
0.00380481
0.00382484
0.00379488
0.00380569
0.00379142
0.00379406
0.00379599
0.00382174
0.00382183
0.00380481
0.00382483
0.00380569
0.00379488
0.00382769
0.00382767
0.00379921
0.00379452
0.00379452
0.00375183
0.00377113
0.00377249
0.00375037
0.00377003
0.00374993
0.00375183
0.00377112
0.00377248
0.00375036
0.00376598
0.00376597
0.00376597
0.00372838
0.00372838
0.00372838
0.00372838
0.00375042
0.0037712
0.00376597
0.00375411
0.00376999
0.00375096
0.00375384
0.00377003
0.00374992
0.00375042
0.00376597
0.0037712
0.00375411
0.00376999
0.00375384
0.00375096
0.00377222
0.00377222
0.00375065
0.00375129
0.00375129
0.00369959
0.00371839
0.00371945
0.00369857
0.00371803
0.00369828
0.00369959
0.00371839
0.00371945
0.00369857
0.00371522
0.00371522
0.00371522
0.00367583
0.00367583
0.00367583
0.00367583
0.00369868
0.00371878
0.0037151
0.00370205
0.00371822
0.00369905
0.00370196
0.00371803
0.00369828
0.00369868
0.0037151
0.00371878
0.00370205
0.00371822
0.00370196
0.00369905
0.00371903
0.00371903
0.00369867
0.00369912
0.00369912
0.00364707
0.00366569
0.00366655
0.00364629
0.00366549
0.00364612
0.00364707
0.00366569
0.00366655
0.00364629
0.00366283
0.00366283
0.00366283
0.0036242
0.0036242
0.0036242
0.0036242
0.00364655
0.0036661
0.00366279
0.00364989
0.00366581
0.00364674
0.00364985
0.00366549
0.00364612
0.00364655
0.00366279
0.0036661
0.00364989
0.00366581
0.00364985
0.00364674
0.00366613
0.00366613
0.00364659
0.00364668
0.00364668
0.00359585
0.00361419
0.00361482
0.0035953
0.00361405
0.00359515
0.00359585
0.00361419
0.00361482
0.0035953
0.00361148
0.00361148
0.00361148
0.00357383
0.00357383
0.00357383
0.00357383
0.00359558
0.00361454
0.00361145
0.00359885
0.00361437
0.00359568
0.00359882
0.00361405
0.00359515
0.00359558
0.00361145
0.00361454
0.00359885
0.00361437
0.00359882
0.00359568
0.00361453
0.00361453
0.00359566
0.00359559
0.00359559
0.00354614
0.00356416
0.00356463
0.00354577
0.00356405
0.00354564
0.00354614
0.00356416
0.00356463
0.00354577
0.00356149
0.00356149
0.00356149
0.00352499
0.00352499
0.00352499
0.00352499
0.00354605
0.00356445
0.00356147
0.00354924
0.00356434
0.00354612
0.00354922
0.00356404