/*--------------------------------*- C++ -*----------------------------------*\
| =========                 |                                                 |
| \\      /  F ield         | OpenFOAM: The Open Source CFD Toolbox           |
|  \\    /   O peration     | Version:  2206                                  |
|   \\  /    A nd           | Website:  www.openfoam.com                      |
|    \\/     M anipulation  |                                                 |
\*---------------------------------------------------------------------------*/
FoamFile
{
    version     2.0;
    format      ascii;
    arch        "LSB;label=32;scalar=64";
    class       volScalarField;
    location    "40";
    object      Ux;
}
// * * * * * * * * * * * * * * * * * * * * * * * * * * * * * * * * * * * * * //

dimensions      [0 1 -1 0 0 0 0];

internalField   nonuniform List<scalar> 
171728
(
0.000107935
-0.000190207
0.000119359
-0.000239536
9.42388e-05
-0.000158931
9.68127e-05
-0.000200956
9.52544e-05
-0.000155679
9.34276e-05
-0.00020174
9.40292e-05
-0.000152457
9.04201e-05
-0.000198521
9.18025e-05
-0.000147214
8.62002e-05
-0.000192539
8.77716e-05
-0.00014007
8.11296e-05
-0.000185511
8.43837e-05
-0.000132388
7.62602e-05
-0.000179302
7.15736e-05
-0.000117817
6.70304e-05
-0.000162911
4.22179e-05
-6.15666e-05
3.62212e-05
-0.000106631
2.11662e-05
-2.98965e-05
2.07373e-05
-7.43401e-05
4.60141e-06
-7.41232e-06
5.81135e-06
-5.46792e-05
-3.15623e-07
-1.29617e-06
1.47276e-06
-4.96595e-05
-9.21603e-07
-6.6716e-07
1.01837e-06
-4.92589e-05
-9.60703e-07
-6.43904e-07
9.9607e-07
-4.92462e-05
-9.64755e-07
-6.39682e-07
9.97122e-07
-4.92479e-05
-9.65226e-07
-6.40006e-07
9.96245e-07
-4.92477e-05
-9.63925e-07
-6.40503e-07
9.96593e-07
-4.92473e-05
-9.63844e-07
-6.40354e-07
9.97007e-07
-4.92475e-05
-9.61857e-07
-6.41015e-07
9.96998e-07
-4.92474e-05
-9.56152e-07
-6.37671e-07
9.97119e-07
-4.9247e-05
-9.51997e-07
-6.43888e-07
9.97815e-07
-4.92462e-05
-9.61504e-07
-6.39797e-07
9.97046e-07
-4.92466e-05
-9.6237e-07
-6.39047e-07
9.97137e-07
-4.92462e-05
-9.62679e-07
-6.38831e-07
9.96998e-07
-4.92469e-05
-9.63245e-07
-6.38227e-07
9.97011e-07
-4.92476e-05
-9.63493e-07
-6.37885e-07
9.96827e-07
-4.92477e-05
-9.64249e-07
-6.37118e-07
9.9645e-07
-4.92477e-05
-9.65074e-07
-6.36578e-07
9.96296e-07
-4.92477e-05
-9.64975e-07
-6.36839e-07
9.96696e-07
-4.92478e-05
-9.64588e-07
-6.3739e-07
9.97012e-07
-4.92483e-05
-9.63682e-07
-6.37352e-07
9.97369e-07
-4.92486e-05
-9.63493e-07
-6.379e-07
9.97121e-07
-4.9249e-05
-9.63909e-07
-6.37709e-07
9.97427e-07
-4.92488e-05
-9.63904e-07
-6.36999e-07
9.97169e-07
-4.92483e-05
-9.64704e-07
-6.36365e-07
9.96503e-07
-4.92481e-05
-9.64663e-07
-6.36194e-07
9.96786e-07
-4.92478e-05
-9.64475e-07
-6.36258e-07
9.96766e-07
-4.92478e-05
-9.64092e-07
-6.36417e-07
9.97364e-07
-4.92483e-05
-9.64073e-07
-6.37482e-07
9.97447e-07
-4.92487e-05
-9.63776e-07
-6.36431e-07
9.96408e-07
-4.92464e-05
-9.59457e-07
-6.35569e-07
9.96822e-07
-4.92471e-05
-9.66946e-07
-6.37067e-07
9.96286e-07
-4.92489e-05
-9.64257e-07
-6.37722e-07
9.96741e-07
-4.92485e-05
-9.63555e-07
-6.37015e-07
9.96511e-07
-4.92478e-05
-9.62925e-07
-6.38276e-07
9.95565e-07
-4.92479e-05
-9.62143e-07
-6.38867e-07
9.9629e-07
-4.92487e-05
-9.61013e-07
-6.39279e-07
9.96525e-07
-4.92487e-05
-9.60566e-07
-6.39793e-07
9.96754e-07
-4.92492e-05
-9.61118e-07
-6.39205e-07
9.96509e-07
-4.92492e-05
-9.61388e-07
-6.39699e-07
9.96393e-07
-4.92494e-05
-9.61692e-07
-6.38182e-07
9.96214e-07
-4.92485e-05
-9.61866e-07
-6.39019e-07
9.96572e-07
-4.92486e-05
-9.61788e-07
-6.3868e-07
9.96583e-07
-4.92486e-05
-9.60211e-07
-6.38824e-07
9.9722e-07
-4.92489e-05
-9.58828e-07
-6.39082e-07
9.97799e-07
-4.92494e-05
-9.60672e-07
-6.40105e-07
9.97216e-07
-4.92502e-05
-9.60264e-07
-6.4264e-07
9.97273e-07
-4.92528e-05
-9.60263e-07
-6.41529e-07
9.97529e-07
-4.92524e-05
-9.6039e-07
-6.41375e-07
9.97458e-07
-4.92518e-05
-9.60563e-07
-6.40799e-07
9.97461e-07
-4.92517e-05
-9.60314e-07
-6.41555e-07
9.97866e-07
-4.92518e-05
-9.59572e-07
-6.41701e-07
9.98056e-07
-4.92521e-05
-9.59398e-07
-6.42383e-07
9.9816e-07
-4.92524e-05
-9.59214e-07
-6.42607e-07
9.98761e-07
-4.92526e-05
-9.59297e-07
-6.41759e-07
9.98299e-07
-4.92521e-05
-9.59365e-07
-6.41542e-07
9.98119e-07
-4.92522e-05
-9.60538e-07
-6.40845e-07
9.97581e-07
-4.92517e-05
-9.60255e-07
-6.41061e-07
9.97947e-07
-4.92517e-05
-9.59619e-07
-6.41128e-07
9.99385e-07
-4.92533e-05
-9.58818e-07
-6.41462e-07
1.00488e-06
-4.92564e-05
-9.58611e-07
-6.42344e-07
1.0021e-06
-4.92561e-05
-9.59047e-07
-6.418e-07
9.98569e-07
-4.92527e-05
-9.59053e-07
-6.42219e-07
9.98305e-07
-4.92526e-05
-9.60016e-07
-6.40995e-07
9.97879e-07
-4.92522e-05
-9.60397e-07
-6.41665e-07
9.97884e-07
-4.92525e-05
-9.6033e-07
-6.40466e-07
9.97724e-07
-4.92525e-05
-9.60023e-07
-6.41572e-07
9.98278e-07
-4.92529e-05
-9.59563e-07
-6.41818e-07
9.98417e-07
-4.92535e-05
-9.59233e-07
-6.4189e-07
9.98948e-07
-4.92537e-05
-9.58951e-07
-6.42385e-07
9.99318e-07
-4.92537e-05
-9.5952e-07
-6.42063e-07
9.98459e-07
-4.92537e-05
-9.59917e-07
-6.41309e-07
9.98079e-07
-4.92532e-05
-9.60263e-07
-6.40666e-07
9.97901e-07
-4.92529e-05
-9.61514e-07
-6.39076e-07
9.95944e-07
-4.92526e-05
-9.6543e-07
-6.32095e-07
9.90221e-07
-4.925e-05
-9.74015e-07
-6.22286e-07
9.78301e-07
-4.92345e-05
-9.82842e-07
-6.3087e-07
9.81983e-07
-4.91141e-05
-9.34091e-07
-7.02858e-07
1.03906e-06
-4.91967e-05
-8.83727e-07
-8.00601e-07
1.07542e-06
-4.87662e-05
-8.05189e-07
-1.01004e-06
1.20932e-06
-4.85589e-05
-7.17074e-07
-1.45752e-06
1.52515e-06
-4.77971e-05
-5.73041e-07
-2.33332e-06
2.18367e-06
-4.62847e-05
-5.40683e-07
-3.99972e-06
3.54884e-06
-4.22383e-05
-5.98975e-06
-2.63735e-06
3.76126e-06
-2.70727e-05
-4.0343e-05
4.28491e-05
-3.38924e-05
4.50754e-05
0.000135004
0.000124245
-0.000124237
-0.000135001
0.000152897
0.000152869
9.08108e-05
-9.0801e-05
9.0785e-05
-9.07827e-05
-0.000152892
-0.000152878
0.000134994
0.000124197
-0.000124194
-0.000135002
0.000239579
0.000111439
0.000119409
-0.00011936
8.91251e-05
-8.90865e-05
-0.000239589
-0.000111401
0.000190244
0.000190182
0.000147217
0.000147251
-0.000190163
-0.000147187
-0.000147209
0.00023951
0.000111393
-0.000119339
8.90997e-05
-8.90791e-05
-0.00011139
0.000201044
0.00010596
9.68204e-05
-9.67934e-05
9.42965e-05
-9.4297e-05
-0.000201005
-0.000105952
0.000158964
0.000158982
0.000156787
0.000156827
-0.000158959
-0.000156784
-0.000156805
0.000200952
0.000105926
-9.67945e-05
9.42978e-05
-9.4304e-05
-0.00010594
0.000201809
9.71567e-05
9.34199e-05
-9.34247e-05
9.13782e-05
-9.13673e-05
-0.000201795
-9.71441e-05
0.000155687
0.000155728
0.00015372
0.000153753
-0.00015571
-0.000153715
-0.000153752
0.00020172
9.71153e-05
-9.34351e-05
9.13809e-05
-9.13706e-05
-9.7171e-05
0.000198552
8.68143e-05
9.04153e-05
-9.04033e-05
8.67377e-05
-8.67279e-05
-0.00019854
-8.67962e-05
0.000152465
0.000152494
0.000148024
0.000148056
-0.000152496
-0.000148019
-0.000148063
0.000198461
8.67667e-05
-9.04056e-05
8.67398e-05
-8.67218e-05
-8.68362e-05
0.000192566
7.74395e-05
8.61934e-05
-8.61864e-05
8.15635e-05
-8.1558e-05
-0.000192552
-7.74379e-05
0.00014722
0.00014725
0.000140686
0.000140717
-0.000147258
-0.000140684
-0.00014073
0.000192471
7.74074e-05
-8.618e-05
8.15698e-05
-8.15473e-05
-7.74798e-05
0.000185519
7.14366e-05
8.11207e-05
-8.11155e-05
7.91616e-05
-7.91398e-05
-0.000185525
-7.1431e-05
0.000140079
0.000140105
0.000136861
0.000136891
-0.000140119
-0.000136856
-0.000136909
0.000185442
7.13965e-05
-8.11076e-05
7.91665e-05
-7.91404e-05
-7.14781e-05
0.000179311
5.87599e-05
7.62655e-05
-7.62432e-05
7.24994e-05
-7.24766e-05
-0.000179297
-5.87531e-05
0.000132398
0.000132423
0.000125455
0.000125494
-0.000132443
-0.000125453
-0.000125487
0.000179216
5.8826e-05
-7.62361e-05
7.2443e-05
-7.24043e-05
-5.87672e-05
0.000162956
1.00424e-05
6.70853e-05
-6.7066e-05
4.13187e-05
-4.13268e-05
-0.000162964
-1.00167e-05
0.000117806
0.000117858
7.30267e-05
7.30626e-05
-0.000117859
-7.30106e-05
-7.306e-05
0.000162941
1.00574e-05
-6.69994e-05
4.12722e-05
-4.12605e-05
-1.00413e-05
0.000106653
-2.40199e-05
3.62721e-05
-3.62784e-05
2.52322e-05
-2.52261e-05
-0.000106642
2.40426e-05
6.15765e-05
6.16066e-05
3.75221e-05
3.75295e-05
-6.16006e-05
-3.75042e-05
-3.75156e-05
0.000106625
-2.40043e-05
-3.62204e-05
2.5176e-05
-2.51782e-05
2.4031e-05
7.43807e-05
-4.49481e-05
2.0789e-05
-2.07816e-05
8.53282e-06
-8.5192e-06
-7.43578e-05
4.49664e-05
2.99178e-05
2.99267e-05
1.12652e-05
1.12823e-05
-2.99075e-05
-1.12478e-05
-1.12834e-05
7.43412e-05
-4.49367e-05
-2.07386e-05
8.48003e-06
-8.48293e-06
4.49344e-05
5.46927e-05
-5.12668e-05
5.86434e-06
-5.84866e-06
1.94841e-06
-1.94788e-06
-5.46774e-05
5.1273e-05
7.43058e-06
7.44498e-06
1.9255e-06
1.95007e-06
-7.44997e-06
-1.91876e-06
-1.95436e-06
5.46587e-05
-5.12414e-05
-5.8151e-06
1.91075e-06
-1.91172e-06
5.12399e-05
4.96597e-05
-5.18428e-05
1.50885e-06
-1.50702e-06
1.0821e-06
-1.08132e-06
-4.96608e-05
5.18455e-05
1.30238e-06
1.32607e-06
6.93358e-07
7.23782e-07
-1.32832e-06
-6.98181e-07
-7.26363e-07
4.96439e-05
-5.18158e-05
-1.47145e-06
1.04668e-06
-1.04417e-06
5.18165e-05
4.92597e-05
-5.18653e-05
1.05314e-06
-1.05112e-06
1.03073e-06
-1.03042e-06
-4.9264e-05
5.18671e-05
6.63476e-07
6.91062e-07
6.40484e-07
6.71021e-07
-6.93801e-07
-6.43854e-07
-6.75465e-07
4.92446e-05
-5.18375e-05
-1.0153e-06
9.96149e-07
-9.94063e-07
5.18374e-05
4.92454e-05
-5.18595e-05
1.03068e-06
-1.03018e-06
1.02929e-06
-1.03478e-06
-4.92514e-05
5.18674e-05
6.43154e-07
6.70914e-07
6.41135e-07
6.71933e-07
-6.74335e-07
-6.38908e-07
-6.7456e-07
4.92312e-05
-5.18351e-05
-9.93267e-07
9.96693e-07
-9.94808e-07
5.1836e-05
4.92496e-05
-5.18611e-05
1.02741e-06
-1.03641e-06
1.02495e-06
-1.04335e-06
-4.92528e-05
5.18639e-05
6.44361e-07
6.72192e-07
6.41357e-07
6.72194e-07
-6.7392e-07
-6.39946e-07
-6.74662e-07
4.92336e-05
-5.18356e-05
-9.94963e-07
9.95412e-07
-9.94796e-07
5.18358e-05
4.92479e-05
-5.18585e-05
1.02417e-06
-1.04023e-06
1.02731e-06
-1.03469e-06
-4.92517e-05
5.1865e-05
6.44501e-07
6.72236e-07
6.42726e-07
6.72536e-07
-6.73907e-07
-6.39439e-07
-6.7425e-07
4.9233e-05
-5.18352e-05
-9.94876e-07
9.96057e-07
-9.94933e-07
5.18361e-05
4.92498e-05
-5.18594e-05
1.02629e-06
-1.03421e-06
1.0268e-06
-1.03347e-06
-4.92489e-05
5.18674e-05
6.45908e-07
6.72563e-07
6.42728e-07
6.72625e-07
-6.73524e-07
-6.39735e-07
-6.73742e-07
4.92333e-05
-5.1835e-05
-9.94588e-07
9.96255e-07
-9.94635e-07
5.18365e-05
4.92499e-05
-5.18625e-05
1.02473e-06
-1.03364e-06
1.02766e-06
-1.03847e-06
-4.92473e-05
5.18661e-05
6.45487e-07
6.7266e-07
6.41814e-07
6.72675e-07
-6.73297e-07
-6.40303e-07
-6.73797e-07
4.92338e-05
-5.18353e-05
-9.94543e-07
9.96042e-07
-9.93722e-07
5.18368e-05
4.92508e-05
-5.18635e-05
1.02978e-06
-1.03989e-06
1.03042e-06
-1.02796e-06
-4.92517e-05
5.18713e-05
6.44502e-07
6.72646e-07
6.42414e-07
6.71969e-07
-6.74362e-07
-6.38872e-07
-6.77802e-07
4.92339e-05
-5.18357e-05
-9.93496e-07
9.96181e-07
-9.91402e-07
5.1836e-05
4.92527e-05
-5.18666e-05
1.03012e-06
-1.01832e-06
1.03363e-06
-1.03204e-06
-4.92342e-05
5.1859e-05
6.46122e-07
6.71781e-07
6.48789e-07
6.72587e-07
-6.77004e-07
-6.42916e-07
-6.7251e-07
4.92328e-05
-5.18353e-05
-9.90994e-07
9.9723e-07
-9.92023e-07
5.18371e-05
4.92501e-05
-5.18641e-05
1.03534e-06
-1.03195e-06
1.02772e-06
-1.03145e-06
-4.92526e-05
5.18699e-05
6.51097e-07
6.72778e-07
6.43556e-07
6.72258e-07
-6.71796e-07
-6.3925e-07
-6.7324e-07
4.92327e-05
-5.18351e-05
-9.92571e-07
9.96578e-07
-9.93314e-07
5.18363e-05
4.92536e-05
-5.18635e-05
1.02754e-06
-1.03322e-06
1.02917e-06
-1.03489e-06
-4.92426e-05
5.18654e-05
6.45641e-07
6.72074e-07
6.42541e-07
6.7252e-07
-6.72235e-07
-6.38436e-07
-6.73196e-07
4.92327e-05
-5.18347e-05
-9.93323e-07
9.96523e-07
-9.93948e-07
5.18369e-05
4.92545e-05
-5.18631e-05
1.02887e-06
-1.03521e-06
1.03e-06
-1.03632e-06
-4.92463e-05
5.1864e-05
6.45934e-07
6.72715e-07
6.4245e-07
6.72862e-07
-6.72791e-07
-6.38363e-07
-6.73943e-07
4.92331e-05
-5.18343e-05
-9.94107e-07
9.9651e-07
-9.9437e-07
5.18361e-05
4.92549e-05
-5.1863e-05
1.03009e-06
-1.0363e-06
1.03074e-06
-1.03665e-06
-4.92474e-05
5.18643e-05
6.45689e-07
6.728e-07
6.4213e-07
6.72876e-07
-6.73125e-07
-6.37611e-07
-6.73447e-07
4.92334e-05
-5.18343e-05
-9.94427e-07
9.9647e-07
-9.94657e-07
5.18356e-05
4.92548e-05
-5.18635e-05
1.03042e-06
-1.03661e-06
1.03096e-06
-1.03653e-06
-4.92472e-05
5.18643e-05
6.45154e-07
6.72848e-07
6.41478e-07
6.72451e-07
-6.72661e-07
-6.37315e-07
-6.72872e-07
4.92334e-05
-5.18346e-05
-9.94608e-07
9.96296e-07
-9.94541e-07
5.18354e-05
4.92543e-05
-5.1864e-05
1.03088e-06
-1.03665e-06
1.03088e-06
-1.03656e-06
-4.92473e-05
5.18646e-05
6.44756e-07
6.72321e-07
6.4088e-07
6.71844e-07
-6.71915e-07
-6.36594e-07
-6.72108e-07
4.92329e-05
-5.18351e-05
-9.94495e-07
9.95971e-07
-9.94519e-07
5.18354e-05
4.92537e-05
-5.18648e-05
1.03051e-06
-1.03687e-06
1.03058e-06
-1.0367e-06
-4.9247e-05
5.18648e-05
6.43869e-07
6.71694e-07
6.39839e-07
6.71263e-07
-6.71245e-07
-6.35978e-07
-6.71621e-07
4.92325e-05
-5.18354e-05
-9.94392e-07
9.95774e-07
-9.94413e-07
5.18355e-05
4.92529e-05
-5.18651e-05
1.03017e-06
-1.03722e-06
1.03031e-06
-1.03612e-06
-4.92469e-05
5.18652e-05
6.42974e-07
6.71223e-07
6.39833e-07
6.71378e-07
-6.70803e-07
-6.35989e-07
-6.7138e-07
4.92323e-05
-5.18353e-05
-9.94302e-07
9.95948e-07
-9.94373e-07
5.18356e-05
4.92529e-05
-5.18644e-05
1.03028e-06
-1.03747e-06
1.03112e-06
-1.03594e-06
-4.92468e-05
5.18647e-05
6.43303e-07
6.71534e-07
6.40362e-07
6.71914e-07
-6.70834e-07
-6.3657e-07
-6.71829e-07
4.92325e-05
-5.18347e-05
-9.94453e-07
9.96463e-07
-9.94724e-07
5.1835e-05
4.92536e-05
-5.18638e-05
1.03106e-06
-1.03875e-06
1.03232e-06
-1.03484e-06
-4.92478e-05
5.1864e-05
6.43706e-07
6.71997e-07
6.40603e-07
6.72153e-07
-6.71068e-07
-6.36637e-07
-6.72032e-07
4.92331e-05
-5.18345e-05
-9.94586e-07
9.96687e-07
-9.94894e-07
5.18348e-05
4.92542e-05
-5.18636e-05
1.03238e-06
-1.04064e-06
1.03296e-06
-1.03673e-06
-4.92487e-05
5.1865e-05
6.44017e-07
6.72479e-07
6.40913e-07
6.7262e-07
-6.7153e-07
-6.37183e-07
-6.72644e-07
4.92333e-05
-5.18343e-05
-9.9493e-07
9.96828e-07
-9.95228e-07
5.18343e-05
4.92544e-05
-5.18642e-05
1.03263e-06
-1.03861e-06
1.03252e-06
-1.03899e-06
-4.92484e-05
5.18655e-05
6.44023e-07
6.72488e-07
6.40492e-07
6.72445e-07
-6.71971e-07
-6.37196e-07
-6.72561e-07
4.92334e-05
-5.18345e-05
-9.95063e-07
9.96817e-07
-9.9519e-07
5.18345e-05
4.92538e-05
-5.18644e-05
1.03214e-06
-1.03892e-06
1.03239e-06
-1.03905e-06
-4.92473e-05
5.18665e-05
6.43764e-07
6.72606e-07
6.40188e-07
6.72128e-07
-6.71708e-07
-6.3643e-07
-6.71888e-07
4.92334e-05
-5.18346e-05
-9.94841e-07
9.96785e-07
-9.94617e-07
5.18351e-05
4.92536e-05
-5.18648e-05
1.03238e-06
-1.03893e-06
1.03203e-06
-1.03912e-06
-4.92461e-05
5.18669e-05
6.43448e-07
6.7212e-07
6.3983e-07
6.71714e-07
-6.71305e-07
-6.35972e-07
-6.71717e-07
4.92331e-05
-5.18351e-05
-9.9457e-07
9.96133e-07
-9.94372e-07
5.18352e-05
4.9253e-05
-5.18651e-05
1.03154e-06
-1.03885e-06
1.03178e-06
-1.03916e-06
-4.92457e-05
5.18673e-05
6.4281e-07
6.71537e-07
6.39206e-07
6.71093e-07
-6.70921e-07
-6.35542e-07
-6.71272e-07
4.92325e-05
-5.18354e-05
-9.941e-07
9.96116e-07
-9.94359e-07
5.18356e-05
4.92529e-05
-5.18645e-05
1.03188e-06
-1.039e-06
1.03228e-06
-1.03934e-06
-4.92454e-05
5.18671e-05
6.42607e-07
6.71346e-07
6.39792e-07
6.7147e-07
-6.70575e-07
-6.35553e-07
-6.71165e-07
4.92324e-05
-5.1835e-05
-9.94245e-07
9.9638e-07
-9.94392e-07
5.18355e-05
4.92535e-05
-5.18646e-05
1.03205e-06
-1.0389e-06
1.0321e-06
-1.03965e-06
-4.92454e-05
5.1867e-05
6.42808e-07
6.71414e-07
6.40041e-07
6.71701e-07
-6.70569e-07
-6.35756e-07
-6.71471e-07
4.92327e-05
-5.18349e-05
-9.94229e-07
9.96664e-07
-9.94891e-07
5.1835e-05
4.92535e-05
-5.1864e-05
1.03231e-06
-1.03907e-06
1.03212e-06
-1.04051e-06
-4.92454e-05
5.18663e-05
6.43343e-07
6.71982e-07
6.40509e-07
6.72143e-07
-6.70972e-07
-6.36525e-07
-6.72202e-07
4.9233e-05
-5.18343e-05
-9.94696e-07
9.97096e-07
-9.95502e-07
5.18343e-05
4.92534e-05
-5.18647e-05
1.03224e-06
-1.03968e-06
1.03064e-06
-1.04119e-06
-4.92461e-05
5.18677e-05
6.43438e-07
6.72335e-07
6.42085e-07
6.729e-07
-6.71748e-07
-6.36318e-07
-6.74582e-07
4.92333e-05
-5.18354e-05
-9.95034e-07
9.96258e-07
-9.94518e-07
5.18368e-05
4.92512e-05
-5.18579e-05
1.03049e-06
-1.03831e-06
1.03098e-06
-1.03873e-06
-4.92443e-05
5.18676e-05
6.46293e-07
6.7331e-07
6.47737e-07
6.73876e-07
-6.75609e-07
-6.34067e-07
-6.77696e-07
4.92325e-05
-5.18358e-05
-9.92274e-07
9.95964e-07
-9.91268e-07
5.18371e-05
4.92581e-05
-5.18684e-05
1.03549e-06
-1.03897e-06
1.02662e-06
-1.04322e-06
-4.92478e-05
5.18619e-05
6.51397e-07
6.7398e-07
6.40155e-07
6.72269e-07
-6.74442e-07
-6.37178e-07
-6.72425e-07
4.92324e-05
-5.18366e-05
-9.92615e-07
9.96261e-07
-9.94636e-07
5.1835e-05
4.92458e-05
-5.18653e-05
1.02697e-06
-1.04462e-06
1.02942e-06
-1.03511e-06
-4.92534e-05
5.18674e-05
6.41556e-07
6.71963e-07
6.40288e-07
6.72134e-07
-6.71967e-07
-6.36384e-07
-6.7237e-07
4.92315e-05
-5.18367e-05
-9.9436e-07
9.9613e-07
-9.94752e-07
5.18351e-05
4.92487e-05
-5.18645e-05
1.02938e-06
-1.0353e-06
1.03047e-06
-1.03482e-06
-4.92455e-05
5.18681e-05
6.43247e-07
6.72424e-07
6.40766e-07
6.72057e-07
-6.71617e-07
-6.36841e-07
-6.71292e-07
4.92315e-05
-5.18365e-05
-9.94502e-07
9.96626e-07
-9.94393e-07
5.18356e-05
4.92492e-05
-5.18644e-05
1.02954e-06
-1.03422e-06
1.03012e-06
-1.0346e-06
-4.92448e-05
5.18684e-05
6.43696e-07
6.72131e-07
6.40885e-07
6.71823e-07
-6.70402e-07
-6.37181e-07
-6.70787e-07
4.92313e-05
-5.1837e-05
-9.93856e-07
9.96101e-07
-9.94118e-07
5.18358e-05
4.92493e-05
-5.1864e-05
1.02937e-06
-1.03456e-06
1.02997e-06
-1.03492e-06
-4.9245e-05
5.18681e-05
6.43935e-07
6.7212e-07
6.41273e-07
6.72541e-07
-6.70616e-07
-6.38329e-07
-6.71771e-07
4.92309e-05
-5.18364e-05
-9.93978e-07
9.96637e-07
-9.95013e-07
5.18348e-05
4.92497e-05
-5.18631e-05
1.0294e-06
-1.03464e-06
1.03049e-06
-1.03453e-06
-4.92451e-05
5.18683e-05
6.44337e-07
6.7274e-07
6.42058e-07
6.72914e-07
-6.71181e-07
-6.38458e-07
-6.71821e-07
4.92316e-05
-5.18361e-05
-9.94602e-07
9.96769e-07
-9.94875e-07
5.18349e-05
4.92505e-05
-5.18624e-05
1.03004e-06
-1.03445e-06
1.0309e-06
-1.03468e-06
-4.92448e-05
5.1868e-05
6.45199e-07
6.73334e-07
6.42555e-07
6.73627e-07
-6.71429e-07
-6.39125e-07
-6.72289e-07
4.92319e-05
-5.18355e-05
-9.9474e-07
9.97217e-07
-9.95522e-07
5.18343e-05
4.9251e-05
-5.18629e-05
1.03018e-06
-1.03453e-06
1.03025e-06
-1.03411e-06
-4.9245e-05
5.18685e-05
6.45535e-07
6.73705e-07
6.42017e-07
6.73083e-07
-6.71653e-07
-6.38695e-07
-6.72024e-07
4.92323e-05
-5.18359e-05
-9.953e-07
9.96876e-07
-9.95714e-07
5.18342e-05
4.92503e-05
-5.18629e-05
1.02934e-06
-1.03396e-06
1.02941e-06
-1.03441e-06
-4.92443e-05
5.18683e-05
6.4493e-07
6.73181e-07
6.42243e-07
6.72879e-07
-6.7145e-07
-6.38995e-07
-6.72105e-07
4.92318e-05
-5.1836e-05
-9.95538e-07
9.96802e-07
-9.95979e-07
5.1834e-05
4.92505e-05
-5.18627e-05
1.02862e-06
-1.03436e-06
1.02898e-06
-1.03373e-06
-4.92446e-05
5.18691e-05
6.4526e-07
6.729e-07
6.42198e-07
6.72457e-07
-6.71309e-07
-6.37947e-07
-6.71087e-07
4.92316e-05
-5.18364e-05
-9.95647e-07
9.96505e-07
-9.95225e-07
5.18348e-05
4.92506e-05
-5.1863e-05
1.02821e-06
-1.03338e-06
1.02855e-06
-1.03389e-06
-4.92436e-05
5.1869e-05
6.45119e-07
6.72565e-07
6.42034e-07
6.72555e-07
-6.70214e-07
-6.38107e-07
-6.70946e-07
4.92313e-05
-5.18361e-05
-9.94816e-07
9.96793e-07
-9.95138e-07
5.18348e-05
4.92503e-05
-5.18628e-05
1.0279e-06
-1.03403e-06
1.02858e-06
-1.03377e-06
-4.92441e-05
5.18689e-05
6.44982e-07
6.72672e-07
6.42e-07
6.72519e-07
-6.7039e-07
-6.38259e-07
-6.7096e-07
4.92316e-05
-5.1836e-05
-9.95003e-07
9.96924e-07
-9.95487e-07
5.18346e-05
4.92503e-05
-5.18611e-05
1.02809e-06
-1.03351e-06
1.03005e-06
-1.03274e-06
-4.92438e-05
5.18686e-05
6.45008e-07
6.72562e-07
6.43032e-07
6.72881e-07
-6.70243e-07
-6.3812e-07
-6.70927e-07
4.92316e-05
-5.18355e-05
-9.95105e-07
9.97339e-07
-9.95679e-07
5.18342e-05
4.92518e-05
-5.18593e-05
1.0301e-06
-1.03175e-06
1.03254e-06
-1.0246e-06
-4.9243e-05
5.18713e-05
6.46539e-07
6.73211e-07
6.44623e-07
6.73874e-07
-6.70428e-07
-6.38248e-07
-6.71324e-07
4.92319e-05
-5.18347e-05
-9.95325e-07
9.97984e-07
-9.95832e-07
5.18339e-05
4.92532e-05
-5.18614e-05
1.03183e-06
-1.02417e-06
1.03031e-06
-1.03405e-06
-4.92406e-05
5.18693e-05
6.47543e-07
6.7387e-07
6.43603e-07
6.73271e-07
-6.70897e-07
-6.3945e-07
-6.71792e-07
4.92326e-05
-5.18352e-05
-9.95442e-07
9.97693e-07
-9.95654e-07
5.18335e-05
4.92518e-05
-5.18623e-05
1.02917e-06
-1.03308e-06
1.02971e-06
-1.0344e-06
-4.92438e-05
5.1867e-05
6.46236e-07
6.72989e-07
6.42387e-07
6.71881e-07
-6.73055e-07
-6.41723e-07
-6.78333e-07
4.92322e-05
-5.18363e-05
-9.9499e-07
9.97437e-07
-9.94778e-07
5.18306e-05
4.92508e-05
-5.18635e-05
1.02898e-06
-1.0342e-06
1.02918e-06
-1.03347e-06
-4.92457e-05
5.18677e-05
6.44978e-07
6.71427e-07
6.41266e-07
6.70658e-07
-6.7947e-07
-6.41228e-07
-6.7749e-07
4.92312e-05
-5.18374e-05
-9.94008e-07
9.97746e-07
-9.9411e-07
5.18309e-05
4.92497e-05
-5.18636e-05
1.02851e-06
-1.03313e-06
1.02917e-06
-1.03296e-06
-4.92449e-05
5.18683e-05
6.44082e-07
6.70525e-07
6.40887e-07
6.70245e-07
-6.77913e-07
-6.40686e-07
-6.76802e-07
4.92302e-05
-5.18376e-05
-9.93359e-07
9.97764e-07
-9.93742e-07
5.18317e-05
4.92496e-05
-5.18638e-05
1.02847e-06
-1.03285e-06
1.02896e-06
-1.03278e-06
-4.92445e-05
5.18683e-05
6.43683e-07
6.70131e-07
6.40621e-07
6.69914e-07
-6.77566e-07
-6.40403e-07
-6.76755e-07
4.923e-05
-5.18378e-05
-9.93255e-07
9.97665e-07
-9.94057e-07
5.18317e-05
4.92494e-05
-5.18637e-05
1.02828e-06
-1.03252e-06
1.02904e-06
-1.03303e-06
-4.92442e-05
5.18682e-05
6.43511e-07
6.69869e-07
6.40715e-07
6.70184e-07
-6.77422e-07
-6.40658e-07
-6.76855e-07
4.92299e-05
-5.18374e-05
-9.93524e-07
9.98017e-07
-9.94279e-07
5.18317e-05
4.92497e-05
-5.18632e-05
1.02848e-06
-1.03312e-06
1.02943e-06
-1.03356e-06
-4.92448e-05
5.18676e-05
6.43701e-07
6.70356e-07
6.41472e-07
6.70873e-07
-6.77772e-07
-6.41206e-07
-6.7728e-07
4.92303e-05
-5.1837e-05
-9.93838e-07
9.98309e-07
-9.94554e-07
5.18315e-05
4.92502e-05
-5.1863e-05
1.02885e-06
-1.03338e-06
1.02952e-06
-1.03373e-06
-4.92452e-05
5.18675e-05
6.44346e-07
6.70936e-07
6.41716e-07
6.71064e-07
-6.78022e-07
-6.41464e-07
-6.77654e-07
4.92307e-05
-5.1837e-05
-9.94068e-07
9.9833e-07
-9.94912e-07
5.18312e-05
4.92504e-05
-5.18627e-05
1.02889e-06
-1.03392e-06
1.02964e-06
-1.03446e-06
-4.92455e-05
5.18667e-05
6.444e-07
6.71162e-07
6.42316e-07
6.71742e-07
-6.78648e-07
-6.42095e-07
-6.78193e-07
4.92308e-05
-5.18363e-05
-9.94562e-07
9.98928e-07
-9.95348e-07
5.18309e-05
4.92507e-05
-5.18627e-05
1.02893e-06
-1.03427e-06
1.02963e-06
-1.0339e-06
-4.9246e-05
5.18676e-05
6.44524e-07
6.71831e-07
6.42389e-07
6.71501e-07
-6.78939e-07
-6.414e-07
-6.77607e-07
4.92316e-05
-5.18364e-05
-9.94815e-07
9.98813e-07
-9.95338e-07
5.18314e-05
4.92507e-05
-5.18629e-05
1.029e-06
-1.03356e-06
1.0297e-06
-1.03369e-06
-4.92451e-05
5.18678e-05
6.43909e-07
6.7125e-07
6.42319e-07
6.7106e-07
-6.78094e-07
-6.40994e-07
-6.77271e-07
4.92313e-05
-5.18369e-05
-9.94763e-07
9.98494e-07
-9.95799e-07
5.18314e-05
4.92504e-05
-5.18639e-05
1.02889e-06
-1.03354e-06
1.02884e-06
-1.03337e-06
-4.9245e-05
5.18682e-05
6.43881e-07
6.70971e-07
6.41394e-07
6.70223e-07
-6.78049e-07
-6.40445e-07
-6.76655e-07
4.92309e-05
-5.18374e-05
-9.95314e-07
9.97959e-07
-9.95661e-07
5.18318e-05
4.92492e-05
-5.18641e-05
1.02797e-06
-1.03311e-06
1.02865e-06
-1.03325e-06
-4.92444e-05
5.18681e-05
6.42723e-07
6.70008e-07
6.41145e-07
6.70212e-07
-6.77156e-07
-6.40264e-07
-6.76376e-07
4.92304e-05
-5.18372e-05
-9.9496e-07
9.98055e-07
-9.95473e-07
5.1832e-05
4.9249e-05
-5.18634e-05
1.02812e-06
-1.03322e-06
1.02902e-06
-1.03349e-06
-4.92443e-05
5.18677e-05
6.43007e-07
6.70496e-07
6.41603e-07
6.71419e-07
-6.77563e-07
-6.40575e-07
-6.7765e-07
4.92308e-05
-5.18349e-05
-9.95199e-07
9.99157e-07
-9.97202e-07
5.18294e-05
4.92492e-05
-5.18633e-05
1.02831e-06
-1.03333e-06
1.02914e-06
-1.03363e-06
-4.92443e-05
5.18676e-05
6.43149e-07
6.71834e-07
6.41687e-07
6.74096e-07
-6.78871e-07
-6.40701e-07
-6.79941e-07
4.9232e-05
-5.18299e-05
-9.97397e-07
1.00358e-06
-1.00119e-06
5.18251e-05
4.92493e-05
-5.18628e-05
1.02862e-06
-1.03362e-06
1.02952e-06
-1.03412e-06
-4.92444e-05
5.18671e-05
6.43518e-07
6.74619e-07
6.42227e-07
6.73463e-07
-6.81349e-07
-6.41573e-07
-6.79912e-07
4.92359e-05
-5.18327e-05
-1.00148e-06
1.00427e-06
-1.00121e-06
5.18268e-05
4.92501e-05
-5.18631e-05
1.02884e-06
-1.03413e-06
1.02947e-06
-1.03397e-06
-4.92453e-05
5.18674e-05
6.43866e-07
6.7273e-07
6.42288e-07
6.71373e-07
-6.79926e-07
-6.41383e-07
-6.77528e-07
4.92346e-05
-5.18363e-05
-9.99518e-07
9.99077e-07
-9.97099e-07
5.18308e-05
4.92502e-05
-5.1863e-05
1.02874e-06
-1.03366e-06
1.02958e-06
-1.03397e-06
-4.92452e-05
5.18674e-05
6.43904e-07
6.71184e-07
6.42602e-07
6.71199e-07
-6.78169e-07
-6.41459e-07
-6.77348e-07
4.92314e-05
-5.18367e-05
-9.96451e-07
9.98649e-07
-9.96751e-07
5.18308e-05
4.92503e-05
-5.18635e-05
1.02894e-06
-1.03392e-06
1.02922e-06
-1.03353e-06
-4.92454e-05
5.18679e-05
6.44241e-07
6.71144e-07
6.4199e-07
6.70554e-07
-6.78115e-07
-6.40721e-07
-6.76627e-07
4.92311e-05
-5.1837e-05
-9.96137e-07
9.98272e-07
-9.96323e-07
5.18312e-05
4.92496e-05
-5.18641e-05
1.02833e-06
-1.03322e-06
1.02878e-06
-1.03377e-06
-4.92446e-05
5.18678e-05
6.4337e-07
6.70414e-07
6.41543e-07
6.70222e-07
-6.77214e-07
-6.40843e-07
-6.76369e-07
4.92307e-05
-5.18372e-05
-9.95699e-07
9.98151e-07
-9.96494e-07
5.1831e-05
4.92492e-05
-5.18642e-05
1.02804e-06
-1.03383e-06
1.02877e-06
-1.03328e-06
-4.92452e-05
5.18682e-05
6.43139e-07
6.70157e-07
6.41476e-07
6.70134e-07
-6.7709e-07
-6.40265e-07
-6.76104e-07
4.92305e-05
-5.18373e-05
-9.96076e-07
9.98019e-07
-9.96635e-07
5.18309e-05
4.92492e-05
-5.18639e-05
1.02811e-06
-1.03278e-06
1.02901e-06
-1.03336e-06
-4.92443e-05
5.18682e-05
6.43027e-07
6.70041e-07
6.41632e-07
6.70269e-07
-6.76646e-07
-6.40543e-07
-6.76149e-07
4.92304e-05
-5.18369e-05
-9.96021e-07
9.98417e-07
-9.96985e-07
5.18307e-05
4.92496e-05
-5.18634e-05
1.02846e-06
-1.03353e-06
1.0294e-06
-1.03369e-06
-4.92448e-05
5.18677e-05
6.43452e-07
6.70527e-07
6.42252e-07
6.70928e-07
-6.77233e-07
-6.41235e-07
-6.76962e-07
4.92309e-05
-5.18364e-05
-9.96688e-07
9.98822e-07
-9.9764e-07
5.18299e-05
4.925e-05
-5.18633e-05
1.02867e-06
-1.03352e-06
1.02945e-06
-1.03374e-06
-4.9245e-05
5.18677e-05
6.43856e-07
6.70862e-07
6.42456e-07
6.71202e-07
-6.77805e-07
-6.41218e-07
-6.77275e-07
4.92313e-05
-5.18362e-05
-9.97159e-07
9.99069e-07
-9.97875e-07
5.18297e-05
4.92501e-05
-5.1863e-05
1.02889e-06
-1.03367e-06
1.0297e-06
-1.03414e-06
-4.92451e-05
5.18672e-05
6.44213e-07
6.71408e-07
6.4281e-07
6.7186e-07
-6.77965e-07
-6.41671e-07
-6.77272e-07
4.92317e-05
-5.18353e-05
-9.9724e-07
9.99774e-07
-9.97947e-07
5.18297e-05
4.92504e-05
-5.18633e-05
1.02901e-06
-1.03416e-06
1.0294e-06
-1.03427e-06
-4.92456e-05
5.18671e-05
6.44416e-07
6.71823e-07
6.42445e-07
6.71348e-07
-6.78162e-07
-6.41678e-07
-6.77467e-07
4.92323e-05
-5.18362e-05
-9.97486e-07
9.9907e-07
-9.98155e-07
5.18295e-05
4.92499e-05
-5.18637e-05
1.02858e-06
-1.03393e-06
1.02918e-06
-1.03349e-06
-4.92455e-05
5.1868e-05
6.43866e-07
6.71082e-07
6.41898e-07
6.70625e-07
-6.77997e-07
-6.40817e-07
-6.76804e-07
4.92312e-05
-5.18367e-05
-9.97469e-07
9.98578e-07
-9.97703e-07
5.18301e-05
4.92495e-05
-5.18638e-05
1.02842e-06
-1.03321e-06
1.02917e-06
-1.0337e-06
-4.92446e-05
5.18679e-05
6.4339e-07
6.70512e-07
6.41921e-07
6.70836e-07
-6.77471e-07
-6.40864e-07
-6.76652e-07
4.92308e-05
-5.18365e-05
-9.96949e-07
9.989e-07
-9.97561e-07
5.18303e-05
4.92493e-05
-5.18637e-05
1.02791e-06
-1.03301e-06
1.03005e-06
-1.0348e-06
-4.92446e-05
5.18676e-05
6.42912e-07
6.70138e-07
6.42833e-07
6.71707e-07
-6.76587e-07
-6.42082e-07
-6.77736e-07
4.92309e-05
-5.18366e-05
-9.96281e-07
9.99662e-07
-9.98429e-07
5.18302e-05
4.92489e-05
-5.1861e-05
1.02599e-06
-1.03132e-06
1.03462e-06
-1.0387e-06
-4.92444e-05
5.18657e-05
6.40674e-07
6.6791e-07
6.48479e-07
6.7715e-07
-6.74741e-07
-6.46986e-07
-6.82998e-07
4.92304e-05
-5.1834e-05
-9.94529e-07
1.00388e-06
-1.00262e-06
5.18277e-05
4.92467e-05
-5.18528e-05
1.02052e-06
-1.02486e-06
1.04294e-06
-1.04707e-06
-4.92413e-05
5.18577e-05
6.34751e-07
6.61712e-07
6.59621e-07
6.88136e-07
-6.68231e-07
-6.58101e-07
-6.94862e-07
4.9228e-05
-5.18261e-05
-9.88601e-07
1.01188e-06
-1.01095e-06
5.18198e-05
4.92313e-05
-5.1756e-05
1.00845e-06
-1.01318e-06
1.04112e-06
-1.04572e-06
-4.92263e-05
5.17601e-05
6.24631e-07
6.51371e-07
6.62407e-07
6.90944e-07
-6.58827e-07
-6.61197e-07
-6.98839e-07
4.92124e-05
-5.17294e-05
-9.76788e-07
1.00996e-06
-1.00919e-06
5.17232e-05
4.91116e-05
-5.17999e-05
1.01189e-06
-1.01681e-06
1.01943e-06
-1.02444e-06
-4.91067e-05
5.18036e-05
6.33424e-07
6.5936e-07
5.99554e-07
6.28524e-07
-6.67962e-07
-5.99018e-07
-6.34293e-07
4.90916e-05
-5.17737e-05
-9.80145e-07
9.88454e-07
-9.8794e-07
5.17664e-05
4.91945e-05
-5.14458e-05
1.06854e-06
-1.074e-06
9.44381e-07
-9.49241e-07
-4.91898e-05
5.14501e-05
7.0465e-07
7.31379e-07
5.05635e-07
5.34385e-07
-7.38884e-07
-5.0429e-07
-5.40005e-07
4.91746e-05
-5.14206e-05
-1.03715e-06
9.12966e-07
-9.12808e-07
5.14133e-05
4.87641e-05
-5.1247e-05
1.10551e-06
-1.11054e-06
8.42793e-07
-8.48239e-07
-4.87584e-05
5.12523e-05
8.04364e-07
8.29914e-07
3.40202e-07
3.68617e-07
-8.37212e-07
-3.39585e-07
-3.74003e-07
4.87437e-05
-5.12215e-05
-1.07435e-06
8.11467e-07
-8.11716e-07
5.1213e-05
4.85566e-05
-5.05397e-05
1.23883e-06
-1.24461e-06
5.82735e-07
-5.89718e-07
-4.85507e-05
5.05427e-05
1.01192e-06
1.03576e-06
9.56517e-10
3.20023e-08
-1.04375e-06
4.31768e-10
-3.34561e-08
4.85376e-05
-5.05146e-05
-1.20822e-06
5.52678e-07
-5.53029e-07
5.05068e-05
4.77966e-05
-4.93236e-05
1.55317e-06
-1.55937e-06
-1.01453e-08
9.23441e-10
-4.77928e-05
4.93275e-05
1.46115e-06
1.48706e-06
-6.98251e-07
-6.61084e-07
-1.49137e-06
6.99651e-07
6.65498e-07
4.77776e-05
-4.93012e-05
-1.52268e-06
-3.65075e-08
3.73918e-08
4.92939e-05
4.62839e-05
-4.61518e-05
2.21019e-06
-2.21577e-06
-1.348e-06
1.33489e-06
-4.62831e-05
4.61575e-05
2.33796e-06
2.36455e-06
-2.1375e-06
-2.10144e-06
-2.35829e-06
2.12877e-06
2.10076e-06
4.62692e-05
-4.61305e-05
-2.18133e-06
-1.3703e-06
1.36616e-06
4.61151e-05
4.22236e-05
-3.69897e-05
3.57305e-06
-3.5819e-06
-5.29337e-06
5.2678e-06
-4.2225e-05
3.6958e-05
3.99136e-06
4.01948e-06
-6.89738e-06
-6.87017e-06
-4.02431e-06
6.87285e-06
6.85891e-06
4.22221e-05
-3.697e-05