/*--------------------------------*- C++ -*----------------------------------*\
| =========                 |                                                 |
| \\      /  F ield         | OpenFOAM: The Open Source CFD Toolbox           |
|  \\    /   O peration     | Version:  2206                                  |
|   \\  /    A nd           | Website:  www.openfoam.com                      |
|    \\/     M anipulation  |                                                 |
\*---------------------------------------------------------------------------*/
FoamFile
{
    version     2.0;
    format      ascii;
    arch        "LSB;label=32;scalar=64";
    class       volScalarField;
    location    "16.5";
    object      epsilon;
}
// * * * * * * * * * * * * * * * * * * * * * * * * * * * * * * * * * * * * * //

dimensions      [0 2 -3 0 0 0 0];

internalField   nonuniform List<scalar> 
28688
(
4.95549e-07
4.97297e-07
4.97297e-07
4.99555e-07
4.45208e-07
4.53506e-07
4.53508e-07
4.63679e-07
4.03419e-07
4.18436e-07
4.1844e-07
4.3934e-07
3.69025e-07
3.87561e-07
3.87567e-07
4.15511e-07
3.60189e-07
3.76724e-07
3.7673e-07
4.00684e-07
3.59509e-07
3.75745e-07
3.75751e-07
3.99358e-07
3.59496e-07
3.75721e-07
3.75726e-07
3.99328e-07
3.59496e-07
3.75721e-07
3.75726e-07
3.99327e-07
3.59496e-07
3.75721e-07
3.75726e-07
3.99329e-07
3.59496e-07
3.75721e-07
3.75726e-07
3.99329e-07
3.59496e-07
3.7572e-07
3.75726e-07
3.99329e-07
3.59496e-07
3.7572e-07
3.75726e-07
3.99329e-07
5.06437e-07
5.05586e-07
5.05585e-07
5.06437e-07
5.05585e-07
5.05585e-07
5.09606e-07
5.09605e-07
5.09605e-07
5.09605e-07
5.05587e-07
5.05586e-07
5.06438e-07
5.05587e-07
5.05585e-07
5.06438e-07
4.99555e-07
4.67249e-07
4.97298e-07
4.97303e-07
4.63542e-07
4.6355e-07
4.99556e-07
4.67247e-07
4.97302e-07
4.97304e-07
4.63546e-07
4.63552e-07
4.97299e-07
4.63538e-07
4.63543e-07
4.99555e-07
4.67252e-07
4.97302e-07
4.63539e-07
4.63547e-07
4.67252e-07
4.63678e-07
4.41506e-07
4.53512e-07
4.5352e-07
4.2713e-07
4.27138e-07
4.63677e-07
4.415e-07
4.53516e-07
4.53523e-07
4.27131e-07
4.27142e-07
4.53513e-07
4.27122e-07
4.27132e-07
4.6368e-07
4.41511e-07
4.53516e-07
4.27126e-07
4.27132e-07
4.41509e-07
4.39336e-07
4.17642e-07
4.18446e-07
4.18454e-07
3.93908e-07
3.93914e-07
4.39335e-07
4.17632e-07
4.18446e-07
4.18459e-07
3.93903e-07
3.9392e-07
4.18449e-07
3.93895e-07
3.93911e-07
4.39343e-07
4.17647e-07
4.18448e-07
3.93901e-07
3.93904e-07
4.17645e-07
4.15506e-07
4.00833e-07
3.87576e-07
3.87583e-07
3.77792e-07
3.77796e-07
4.15502e-07
4.00825e-07
3.87571e-07
3.87589e-07
3.77785e-07
3.77802e-07
3.87579e-07
3.77779e-07
3.77795e-07
4.15513e-07
4.00838e-07
3.87572e-07
3.77785e-07
3.77785e-07
4.00836e-07
4.0068e-07
3.99183e-07
3.76737e-07
3.76741e-07
3.7581e-07
3.75813e-07
4.00675e-07
3.99176e-07
3.7673e-07
3.76748e-07
3.75802e-07
3.7582e-07
3.7674e-07
3.75798e-07
3.75812e-07
4.00687e-07
3.99189e-07
3.7673e-07
3.75804e-07
3.75801e-07
3.99187e-07
3.99357e-07
3.99126e-07
3.75759e-07
3.75762e-07
3.75732e-07
3.75735e-07
3.99351e-07
3.99119e-07
3.75751e-07
3.75769e-07
3.75724e-07
3.75743e-07
3.75761e-07
3.75721e-07
3.75735e-07
3.99363e-07
3.99132e-07
3.7575e-07
3.75726e-07
3.75724e-07
3.9913e-07
3.99326e-07
3.99133e-07
3.75735e-07
3.75738e-07
3.75733e-07
3.75736e-07
3.99321e-07
3.99128e-07
3.75727e-07
3.75746e-07
3.75725e-07
3.75743e-07
3.75738e-07
3.75721e-07
3.75735e-07
3.99332e-07
3.9914e-07
3.75727e-07
3.75726e-07
3.75724e-07
3.99136e-07
3.99326e-07
3.99134e-07
3.75735e-07
3.75738e-07
3.75733e-07
3.75736e-07
3.99322e-07
3.99129e-07
3.75726e-07
3.75745e-07
3.75724e-07
3.75743e-07
3.75737e-07
3.75721e-07
3.75735e-07
3.99333e-07
3.99141e-07
3.75726e-07
3.75726e-07
3.75724e-07
3.99137e-07
3.99328e-07
3.99132e-07
3.75737e-07
3.75738e-07
3.75734e-07
3.75736e-07
3.99324e-07
3.99128e-07
3.75727e-07
3.75745e-07
3.75724e-07
3.75743e-07
3.75737e-07
3.75721e-07
3.75735e-07
3.99335e-07
3.99139e-07
3.75726e-07
3.75726e-07
3.75724e-07
3.99137e-07
3.99327e-07
3.99131e-07
3.75736e-07
3.75738e-07
3.75734e-07
3.75736e-07
3.99323e-07
3.99127e-07
3.75727e-07
3.75745e-07
3.75724e-07
3.75743e-07
3.75737e-07
3.75721e-07
3.75735e-07
3.99334e-07
3.99139e-07
3.75726e-07
3.75726e-07
3.75724e-07
3.99137e-07
3.99326e-07
3.99131e-07
3.75736e-07
3.75738e-07
3.75734e-07
3.75736e-07
3.99323e-07
3.99127e-07
3.75727e-07
3.75745e-07
3.75724e-07
3.75743e-07
3.75737e-07
3.7572e-07
3.75735e-07
3.99334e-07
3.99139e-07
3.75726e-07
3.75726e-07
3.75724e-07
3.99137e-07
3.99325e-07
3.99132e-07
3.75736e-07
3.75738e-07
3.75736e-07
3.99323e-07
3.75727e-07
3.75745e-07
3.75727e-07
3.75746e-07
3.75737e-07
3.75738e-07
3.99334e-07
3.99139e-07
3.75726e-07
3.7573e-07
3.75727e-07
3.99137e-07
5.35672e-07
5.35606e-07
5.35665e-07
5.35665e-07
5.34574e-07
5.35512e-07
5.33635e-07
5.35664e-07
5.34574e-07
5.35512e-07
5.35664e-07
5.33634e-07
5.35265e-07
5.35987e-07
5.35987e-07
1.11002e-06
3.88228e-06
9.3223e-07
4.60449e-06
1.26082e-05
1.65918e-05
1.11011e-06
3.8825e-06
9.32287e-07
4.60484e-06
4.9555e-07
4.9555e-07
4.9555e-07
4.56908e-07
4.56907e-07
4.56908e-07
4.56908e-07
5.43712e-07
1.22011e-06
4.95549e-07
4.85603e-07
5.2504e-07
1.21019e-06
4.82462e-07
1.26098e-05
1.65937e-05
5.43727e-07
4.95549e-07
1.22009e-06
4.85604e-07
5.25022e-07
4.82462e-07
1.21019e-06
2.52141e-06
2.52211e-06
4.84221e-07
2.37392e-06
2.37432e-06
1.43157e-06
5.59484e-06
1.33008e-06
6.13572e-06
2.1292e-05
2.3108e-05
1.43194e-06
5.59553e-06
1.33017e-06
6.13636e-06
4.45209e-07
4.4521e-07
4.4521e-07
4.1422e-07
4.14218e-07
4.14219e-07
4.14219e-07
5.86962e-07
1.19476e-06
4.46111e-07
4.44407e-07
5.73843e-07
1.2045e-06
4.35877e-07
2.1295e-05
2.3111e-05
5.86988e-07
4.46112e-07
1.19477e-06
4.4441e-07
5.73848e-07
4.35878e-07
1.20458e-06
2.31198e-06
2.31248e-06
4.53503e-07
2.3574e-06
2.35787e-06
1.68591e-06
6.91604e-06
1.57841e-06
7.32684e-06
2.46568e-05
2.49373e-05
1.68612e-06
6.91687e-06
1.57825e-06
7.32778e-06
4.03419e-07
4.03421e-07
4.0342e-07
3.75003e-07
3.75001e-07
3.75003e-07
3.75003e-07
6.18647e-07
1.23934e-06
4.06242e-07
4.09805e-07
6.05682e-07
1.27209e-06
3.96327e-07
2.46605e-05
2.49406e-05
6.18669e-07
4.06244e-07
1.2394e-06
4.0981e-07
6.05688e-07
3.96329e-07
1.27233e-06
2.46339e-06
2.46385e-06
4.30038e-07
2.55453e-06
2.55501e-06
1.61295e-06
7.8007e-06
1.69333e-06
8.00562e-06
2.47559e-05
2.47341e-05
1.61324e-06
7.80168e-06
1.69323e-06
8.00669e-06
3.69026e-07
3.69028e-07
3.69028e-07
3.60969e-07
3.6097e-07
3.60971e-07
3.6097e-07
5.955e-07
1.26675e-06
3.73829e-07
3.82835e-07
6.13546e-07
1.25754e-06
3.69755e-07
2.4759e-05
2.47368e-05
5.95513e-07
3.73831e-07
1.26673e-06
3.82841e-07
6.13546e-07
3.69757e-07
1.25763e-06
2.51603e-06
2.51648e-06
4.06395e-07
2.52164e-06
2.52211e-06
1.58309e-06
8.15563e-06
1.58344e-06
8.16777e-06
2.47913e-05
2.48001e-05
1.58295e-06
8.15705e-06
1.58323e-06
8.16908e-06
3.6019e-07
3.60192e-07
3.60191e-07
3.59542e-07
3.59541e-07
3.59543e-07
3.59542e-07
5.85253e-07
1.27416e-06
3.64853e-07
3.76184e-07
5.8611e-07
1.27685e-06
3.64457e-07
2.47934e-05
2.48011e-05
5.85244e-07
3.64854e-07
1.27411e-06
3.7619e-07
5.86106e-07
3.64458e-07
1.27683e-06
2.61892e-06
2.61944e-06
3.99471e-07
2.63212e-06
2.63269e-06
1.58336e-06
8.16948e-06
1.5838e-06
8.16898e-06
2.48025e-05
2.48019e-05
1.58322e-06
8.17077e-06
1.58361e-06
8.17023e-06
3.59512e-07
3.59513e-07
3.59512e-07
3.59496e-07
3.59498e-07
3.59499e-07
3.59498e-07
5.85097e-07
1.27832e-06
3.64152e-07
3.75728e-07
5.85242e-07
1.27777e-06
3.64144e-07
2.48038e-05
2.4803e-05
5.85087e-07
3.64153e-07
1.27824e-06
3.75734e-07
5.85232e-07
3.64145e-07
1.27773e-06
2.63625e-06
2.63681e-06
3.99123e-07
2.63597e-06
2.63654e-06
1.58334e-06
8.16923e-06
1.58377e-06
8.16885e-06
2.48025e-05
2.48021e-05
1.58319e-06
8.17048e-06
1.58358e-06
8.17006e-06
3.59501e-07
3.59502e-07
3.59501e-07
3.59496e-07
3.59498e-07
3.59499e-07
3.59498e-07
5.85097e-07
1.27832e-06
3.64139e-07
3.75724e-07
5.85214e-07
1.27776e-06
3.64142e-07
2.48037e-05
2.4803e-05
5.85088e-07
3.6414e-07
1.27825e-06
3.7573e-07
5.85204e-07
3.64143e-07
1.27772e-06
2.63642e-06
2.63697e-06
3.99144e-07
2.63601e-06
2.63657e-06
1.58334e-06
8.16922e-06
1.58377e-06
8.16885e-06
2.48026e-05
2.48022e-05
1.58319e-06
8.17044e-06
1.58357e-06
8.17005e-06
3.595e-07
3.59502e-07
3.59501e-07
3.59497e-07
3.59498e-07
3.59499e-07
3.59498e-07
5.85096e-07
1.27832e-06
3.64138e-07
3.75723e-07
5.85215e-07
1.27775e-06
3.64141e-07
2.48037e-05
2.4803e-05
5.85087e-07
3.64139e-07
1.27825e-06
3.75728e-07
5.85207e-07
3.64142e-07
1.27772e-06
2.63642e-06
2.63698e-06
3.99138e-07
2.63601e-06
2.63657e-06
1.58334e-06
8.1692e-06
1.58377e-06
8.16884e-06
2.48027e-05
2.48021e-05
1.58319e-06
8.17044e-06
1.58357e-06
8.17005e-06
3.595e-07
3.59502e-07
3.59501e-07
3.59497e-07
3.59498e-07
3.59499e-07
3.59498e-07
5.85096e-07
1.27832e-06
3.64139e-07
3.75723e-07
5.85216e-07
1.27775e-06
3.64141e-07
2.48037e-05
2.4803e-05
5.85086e-07
3.6414e-07
1.27825e-06
3.75728e-07
5.85207e-07
3.64142e-07
1.27772e-06
2.63642e-06
2.63698e-06
3.99138e-07
2.63601e-06
2.63657e-06
1.58334e-06
8.16909e-06
1.58377e-06
8.16862e-06
2.48026e-05
2.48021e-05
1.58319e-06
8.17033e-06
1.58357e-06
8.16989e-06
3.595e-07
3.59502e-07
3.59501e-07
3.59497e-07
3.59498e-07
3.59499e-07
3.59498e-07
5.85096e-07
1.27832e-06
3.64139e-07
3.75723e-07
5.85216e-07
1.27775e-06
3.64141e-07
2.48037e-05
2.4803e-05
5.85086e-07
3.6414e-07
1.27825e-06
3.75728e-07
5.85207e-07
3.64142e-07
1.27772e-06
2.63642e-06
2.63698e-06
3.99138e-07
2.63601e-06
2.63657e-06
1.58334e-06
8.16896e-06
1.58377e-06
8.16863e-06
2.48026e-05
2.48021e-05
1.58319e-06
8.17025e-06
1.58357e-06
8.16984e-06
3.595e-07
3.59502e-07
3.59501e-07
3.59497e-07
3.59498e-07
3.59499e-07
3.59498e-07
5.85096e-07
1.27832e-06
3.64139e-07
3.75722e-07
5.85216e-07
1.27775e-06
3.64141e-07
2.48037e-05
2.4803e-05
5.85086e-07
3.6414e-07
1.27825e-06
3.75728e-07
5.85207e-07
3.64142e-07
1.27772e-06
2.63642e-06
2.63698e-06
3.99138e-07
2.63601e-06
2.63657e-06
1.58334e-06
8.16902e-06
1.58377e-06
8.16866e-06
2.48027e-05
2.48022e-05
1.58319e-06
8.17022e-06
1.58357e-06
8.16981e-06
3.595e-07
3.59502e-07
3.59501e-07
3.59501e-07
3.59505e-07
3.59503e-07
3.59502e-07
5.85096e-07
1.27832e-06
3.64138e-07
3.75722e-07
5.85216e-07
1.27775e-06
3.64141e-07
2.48037e-05
2.4803e-05
5.85086e-07
3.6414e-07
1.27825e-06
3.75728e-07
5.85207e-07
3.64142e-07
1.27772e-06
2.63642e-06
2.63698e-06
3.99138e-07
2.636e-06
2.63657e-06
5.35265e-07
5.3599e-07
5.35988e-07
1.09159e-05
5.81346e-07
1.09172e-05
5.81338e-07
5.28196e-07
2.43146e-06
2.43238e-06
5.40833e-07
5.4083e-07
5.34574e-07
5.35513e-07
5.33635e-07
5.35664e-07
5.34574e-07
5.35513e-07
5.33634e-07
5.35664e-07
5.30398e-07
3.4722e-06
5.68207e-07
8.22439e-07
5.30397e-07
3.47222e-06
5.68206e-07
8.22401e-07
5.29522e-07
5.28387e-07
1.16682e-06
5.09565e-07
5.32664e-07
5.28325e-07
5.1923e-07
5.29522e-07
5.28388e-07
1.16696e-06
5.09564e-07
5.32664e-07
5.28325e-07
5.19233e-07
5.35265e-07
5.35989e-07
5.35988e-07
1.09162e-05
5.81325e-07
5.28196e-07
2.43192e-06
2.43208e-06
5.40834e-07
5.40829e-07
1.09168e-05
5.81319e-07
5.34574e-07
5.35512e-07
5.33635e-07
5.35664e-07
5.34574e-07
5.35513e-07
5.35664e-07
5.33635e-07
5.30397e-07
3.47254e-06
5.68204e-07
8.22566e-07
5.29522e-07
5.28388e-07
1.16708e-06
5.09565e-07
5.32663e-07
5.28325e-07
5.19238e-07
5.30398e-07
3.47263e-06
5.68202e-07
8.22471e-07
5.29522e-07
5.28387e-07
5.09565e-07
1.16699e-06
5.28325e-07
5.32663e-07
5.19233e-07
5.35672e-07
5.35606e-07
5.35665e-07
5.35665e-07
5.35672e-07
5.35606e-07
5.35665e-07
5.35665e-07
5.35672e-07
5.35606e-07
5.35665e-07
5.35665e-07
5.28402e-07
5.28355e-07
5.09672e-07
5.09672e-07
5.28377e-07
5.28377e-07
5.09725e-07
5.28402e-07
5.28355e-07
5.09671e-07
5.09671e-07
5.28377e-07
5.28377e-07
5.09725e-07
5.28402e-07
5.28355e-07
5.09672e-07
5.09672e-07
5.28377e-07
5.28377e-07
5.09725e-07
5.28402e-07
5.28355e-07
5.09671e-07
5.09671e-07
5.28377e-07
5.28377e-07
5.09725e-07
5.34574e-07
5.35513e-07
5.35664e-07
5.33635e-07
5.29522e-07
5.28387e-07
1.16703e-06
5.09565e-07
5.32663e-07
5.28325e-07
5.19236e-07
5.30398e-07
3.47242e-06
5.68198e-07
8.22486e-07
5.29522e-07
5.28387e-07
5.09565e-07
1.1669e-06
5.28325e-07
5.32662e-07
5.19232e-07
5.30398e-07
3.47256e-06
5.68202e-07
8.22434e-07
5.35265e-07
5.35987e-07
5.35986e-07
1.09174e-05
5.81335e-07
5.28196e-07
2.4322e-06
2.43204e-06
5.40829e-07
5.40827e-07
1.09173e-05
5.81314e-07
5.34574e-07
5.35512e-07
5.35664e-07
5.33635e-07
5.29522e-07
5.28387e-07
5.09565e-07
1.16697e-06
5.28325e-07
5.32662e-07
5.19235e-07
5.29522e-07
5.28388e-07
5.09565e-07
1.16708e-06
5.28325e-07
5.32663e-07
5.19238e-07
5.30397e-07
3.47258e-06
5.68196e-07
8.22546e-07
5.30397e-07
3.4726e-06
5.68207e-07
8.22636e-07
5.28196e-07
2.43184e-06
2.43251e-06
5.40828e-07
5.40829e-07
1.09171e-05
5.81318e-07
1.09173e-05
5.81332e-07
1.2608e-05
1.65905e-05
1.26096e-05
1.65934e-05
2.52135e-06
2.5221e-06
4.8422e-07
2.3736e-06
2.37431e-06
2.0523e-05
1.76923e-05
2.05267e-05
1.76951e-05
4.79301e-07
2.30854e-06
2.30921e-06
2.33636e-06
2.33712e-06
1.10986e-06
3.88219e-06
9.32345e-07
4.60442e-06
5.43699e-07
1.21998e-06
4.9555e-07
4.85605e-07
5.25051e-07
1.21013e-06
4.82461e-07
5.43693e-07
1.22017e-06
4.9555e-07
4.85611e-07
5.2506e-07
1.21036e-06
4.82461e-07
1.15842e-06
5.408e-06
4.81081e-06
1.28567e-06
1.15853e-06
5.40798e-06
4.8108e-06
1.28568e-06
5.50559e-07
4.74365e-07
1.19382e-06
4.57484e-07
1.20349e-06
4.69777e-07
5.67167e-07
5.50561e-07
4.74373e-07
1.194e-06
4.57484e-07
1.20366e-06
4.69777e-07
5.67163e-07
2.52184e-06
2.52158e-06
4.84219e-07
2.3742e-06
2.37371e-06
1.26087e-05
1.65915e-05
2.05246e-05
1.76937e-05
4.793e-07
2.30904e-06
2.30877e-06
2.33689e-06
2.33672e-06
2.0524e-05
1.76933e-05
5.43726e-07
1.22025e-06
4.9555e-07
4.85609e-07
5.25057e-07
1.21039e-06
4.82461e-07
1.11006e-06
3.88279e-06
9.32129e-07
4.60516e-06
5.43721e-07
4.9555e-07
1.22021e-06
4.85612e-07
5.25046e-07
4.82461e-07
1.21039e-06
1.15847e-06
5.40846e-06
4.81115e-06
1.28579e-06
5.50564e-07
4.74371e-07
1.19401e-06
4.57485e-07
1.20367e-06
4.69777e-07
5.67184e-07
1.15845e-06
5.4089e-06
4.81165e-06
1.2858e-06
5.50564e-07
4.74375e-07
4.57485e-07
1.19407e-06
4.69778e-07
1.20372e-06
5.6719e-07
1.11002e-06
3.88225e-06
9.32206e-07
4.60466e-06
5.43709e-07
4.9555e-07
1.22007e-06
4.85605e-07
5.25029e-07
4.82461e-07
1.21024e-06
1.11004e-06
3.88267e-06
9.32042e-07
4.60491e-06
5.50555e-07
4.74362e-07
1.19382e-06
4.57484e-07
1.20349e-06
4.69776e-07
5.67173e-07
1.15845e-06
5.40801e-06
4.81061e-06
1.28577e-06
5.50554e-07
4.74366e-07
4.57485e-07
1.19387e-06
4.69777e-07
1.20348e-06
5.67171e-07
1.15836e-06
5.40843e-06
4.81138e-06
1.28574e-06
2.52202e-06
2.52151e-06
4.84222e-07
2.37432e-06
2.37356e-06
1.26096e-05
1.65925e-05
2.05273e-05
1.76959e-05
4.79301e-07
2.30926e-06
2.30871e-06
2.33703e-06
2.33656e-06
2.05255e-05
1.76944e-05
5.43734e-07
4.9555e-07
1.22025e-06
4.8561e-07
5.25034e-07
4.82461e-07
1.21038e-06
1.11026e-06
3.88264e-06
9.31997e-07
4.605e-06
1.11032e-06
3.88252e-06
9.32111e-07
4.6049e-06
5.50557e-07
4.74363e-07
4.57485e-07
1.19387e-06
4.69777e-07
1.20355e-06
5.67188e-07
5.50557e-07
4.7437e-07
4.57485e-07
1.19399e-06
4.69777e-07
1.20365e-06
5.67194e-07
1.15824e-06
5.40869e-06
4.81136e-06
1.28582e-06
1.15826e-06
5.40867e-06
4.8111e-06
1.28585e-06
1.26091e-05
1.65924e-05
1.26097e-05
1.65932e-05
4.79301e-07
2.30866e-06
2.30917e-06
2.33624e-06
2.33707e-06
2.05248e-05
1.76938e-05
2.05264e-05
1.76951e-05
2.12903e-05
2.31061e-05
2.12939e-05
2.31104e-05
2.31184e-06
2.31255e-06
4.535e-07
2.35711e-06
2.35771e-06
2.44496e-05
2.35528e-05
2.44533e-05
2.35563e-05
4.5097e-07
2.43173e-06
2.43228e-06
2.38575e-06
2.38624e-06
1.43155e-06
5.59488e-06
1.33005e-06
6.13588e-06
5.86954e-07
1.19474e-06
4.46112e-07
4.44413e-07
5.7385e-07
1.20452e-06
4.35877e-07
5.86952e-07
1.1949e-06
4.46113e-07
4.44421e-07
5.73843e-07
1.20469e-06
4.35877e-07
1.476e-06
6.76856e-06
6.30759e-06
1.55442e-06
1.47596e-06
6.76869e-06
6.30759e-06
1.55439e-06
5.93346e-07
4.35756e-07
1.22887e-06
4.16353e-07
1.21341e-06
4.26194e-07
6.03409e-07
5.93334e-07
4.35764e-07
1.22896e-06
4.16354e-07
1.21357e-06
4.26194e-07
6.03403e-07
2.3123e-06
2.31201e-06
4.53495e-07
2.35761e-06
2.35682e-06
2.12915e-05
2.31069e-05
2.44509e-05
2.35543e-05
4.50968e-07
2.43214e-06
2.43171e-06
2.38611e-06
2.38612e-06
2.44501e-05
2.35539e-05
5.86981e-07
1.19495e-06
4.46113e-07
4.44416e-07
5.73858e-07
1.2047e-06
4.35877e-07
1.43194e-06
5.59594e-06
1.33017e-06
6.13699e-06
5.86984e-07
4.46114e-07
1.19497e-06
4.44424e-07
5.73864e-07
4.35878e-07
1.20476e-06
1.47575e-06
6.7692e-06
6.30841e-06
1.55474e-06
5.93356e-07
4.3576e-07
1.22897e-06
4.16354e-07
1.21358e-06
4.26194e-07
6.03423e-07
1.47576e-06
6.76993e-06
6.30883e-06
1.55474e-06
5.93357e-07
4.35769e-07
4.16355e-07
1.22907e-06
4.26196e-07
1.21368e-06
6.03431e-07
1.43173e-06
5.59488e-06
1.33004e-06
6.13582e-06
5.86966e-07
4.46113e-07
1.19478e-06
4.44415e-07
5.73848e-07
4.35877e-07
1.20462e-06
1.43161e-06
5.59547e-06
1.33014e-06
6.1364e-06
5.93336e-07
4.35749e-07
1.22879e-06
4.16353e-07
1.2134e-06
4.26192e-07
6.03409e-07
1.47586e-06
6.76868e-06
6.30764e-06
1.55447e-06
5.93341e-07
4.35759e-07
4.16353e-07
1.22889e-06
4.26194e-07
1.2135e-06
6.03412e-07
1.4759e-06
6.76939e-06
6.30826e-06
1.55448e-06
2.31259e-06
2.31183e-06
4.53504e-07
2.35754e-06
2.35722e-06
2.12923e-05
2.31088e-05
2.44543e-05
2.35581e-05
4.50973e-07
2.43241e-06
2.43181e-06
2.38671e-06
2.38586e-06
2.44516e-05
2.35552e-05
5.86981e-07
4.46113e-07
1.19488e-06
4.44418e-07
5.73847e-07
4.35877e-07
1.20472e-06
1.43194e-06
5.59552e-06
1.33016e-06
6.13659e-06
1.43181e-06
5.59539e-06
1.33015e-06
6.13656e-06
5.93344e-07
4.35752e-07
4.16355e-07
1.22887e-06
4.26193e-07
1.21347e-06
6.03427e-07
5.93341e-07
4.35759e-07
4.16354e-07
1.22898e-06
4.26194e-07
1.21361e-06
6.03425e-07
1.47573e-06
6.76942e-06
6.3083e-06
1.55473e-06
1.47576e-06
6.7695e-06
6.30834e-06
1.55476e-06
2.12923e-05
2.3109e-05
2.1294e-05
2.31105e-05
4.50972e-07
2.43189e-06
2.43237e-06
2.38591e-06
2.38636e-06
2.44519e-05
2.35553e-05
2.44534e-05
2.35569e-05
2.46559e-05
2.49365e-05
2.46588e-05
2.49394e-05
2.46333e-06
2.46372e-06
4.30034e-07
2.55423e-06
2.55495e-06
2.47878e-05
2.49257e-05
2.47907e-05
2.49283e-05
4.28095e-07
2.53484e-06
2.53548e-06
2.56137e-06
2.56172e-06
1.68588e-06
6.91598e-06
1.57837e-06
7.32708e-06
6.18646e-07
1.23942e-06
4.06244e-07
4.09816e-07
6.05683e-07
1.27217e-06
3.96327e-07
6.18639e-07
1.23946e-06
4.06245e-07
4.09823e-07
6.05677e-07
1.27237e-06
3.96328e-07
1.71589e-06
7.72182e-06
7.4437e-06
1.71416e-06
1.71586e-06
7.72214e-06
7.44366e-06
1.71415e-06
6.211e-07
4.01495e-07
1.27143e-06
3.79671e-07
1.27709e-06
3.87275e-07
6.17681e-07
6.21096e-07
4.01501e-07
1.27165e-06
3.79672e-07
1.27719e-06
3.87275e-07
6.17679e-07
2.46363e-06
2.46329e-06
4.30025e-07
2.55483e-06
2.55411e-06
2.46563e-05
2.49367e-05
2.47888e-05
2.49263e-05
4.28092e-07
2.53537e-06
2.5347e-06
2.56166e-06
2.5613e-06
2.4788e-05
2.49258e-05
6.18671e-07
1.2395e-06
4.06245e-07
4.09814e-07
6.05704e-07
1.27233e-06
3.96329e-07
1.68613e-06
6.91729e-06
1.57823e-06
7.32837e-06
6.18674e-07
4.06247e-07
1.23962e-06
4.09829e-07
6.05693e-07
3.9633e-07
1.27237e-06
1.71586e-06
7.72289e-06
7.44464e-06
1.71438e-06
6.21123e-07
4.01491e-07
1.2717e-06
3.79673e-07
1.27725e-06
3.87276e-07
6.1772e-07
1.71586e-06
7.72341e-06
7.44507e-06
1.71436e-06
6.21125e-07
4.01507e-07
3.79675e-07
1.27165e-06
3.87278e-07
1.27731e-06
6.17718e-07
1.68594e-06
6.91603e-06
1.57845e-06
7.32712e-06
6.18653e-07
4.06245e-07
1.23938e-06
4.09818e-07
6.05682e-07
3.96328e-07
1.2723e-06
1.68596e-06
6.91666e-06
1.57846e-06
7.3278e-06
6.21102e-07
4.0148e-07
1.27138e-06
3.79671e-07
1.27702e-06
3.87272e-07
6.1769e-07
1.71593e-06
7.72214e-06
7.44379e-06
1.71422e-06
6.21104e-07
4.01497e-07
3.79672e-07
1.27157e-06
3.87276e-07
1.27712e-06
6.17693e-07
1.71593e-06
7.7228e-06
7.44438e-06
1.7142e-06
2.464e-06
2.46333e-06
4.30039e-07
2.55491e-06
2.55451e-06
2.46576e-05
2.4938e-05
2.47917e-05
2.49297e-05
4.28101e-07
2.53547e-06
2.53503e-06
2.56206e-06
2.56131e-06
2.47895e-05
2.4927e-05
6.18666e-07
4.06245e-07
1.23948e-06
4.09816e-07
6.05688e-07
3.96329e-07
1.27239e-06
1.68612e-06
6.9167e-06
1.57822e-06
7.32789e-06
1.68612e-06
6.9168e-06
1.57824e-06
7.32799e-06
6.21117e-07
4.01486e-07
3.79674e-07
1.2716e-06
3.87274e-07
1.27714e-06
6.17709e-07
6.21119e-07
4.01493e-07
3.79673e-07
1.27166e-06
3.87277e-07
1.27722e-06
6.1771e-07
1.71585e-06
7.7229e-06
7.44448e-06
1.71435e-06
1.71586e-06
7.72308e-06
7.44458e-06
1.71438e-06
2.46579e-05
2.49383e-05
2.46593e-05
2.49396e-05
4.28099e-07
2.53507e-06
2.53553e-06
2.56134e-06
2.56182e-06
2.47898e-05
2.49272e-05
2.47909e-05
2.49285e-05
2.47553e-05
2.47331e-05
2.47576e-05
2.47358e-05
2.51611e-06
2.51636e-06
4.06391e-07
2.52163e-06
2.52204e-06
2.4777e-05
2.47404e-05
2.47805e-05
2.47432e-05
4.05268e-07
2.60688e-06
2.60749e-06
2.54897e-06
2.54936e-06
1.61294e-06
7.80076e-06
1.6933e-06
8.00594e-06
5.9549e-07
1.26678e-06
3.73832e-07
3.82847e-07
6.13535e-07
1.25758e-06
3.69754e-07
5.95489e-07
1.26679e-06
3.73833e-07
3.82853e-07
6.13537e-07
1.25769e-06
3.69755e-07
1.60077e-06
8.14216e-06
8.05717e-06
1.58346e-06
1.60077e-06
8.1426e-06
8.05731e-06
1.58346e-06
5.92495e-07
3.79692e-07
1.26988e-06
3.65659e-07
1.26052e-06
3.67162e-07
5.86328e-07
5.92494e-07
3.79697e-07
1.26999e-06
3.6566e-07
1.26065e-06
3.67163e-07
5.86325e-07
2.5163e-06
2.51606e-06
4.06383e-07
2.52197e-06
2.52144e-06
2.47553e-05
2.47331e-05
2.47789e-05
2.47418e-05
4.05264e-07
2.60734e-06
2.60658e-06
2.5493e-06
2.54907e-06
2.47769e-05
2.47417e-05
5.95525e-07
1.26686e-06
3.73833e-07
3.82841e-07
6.13551e-07
1.25775e-06
3.69756e-07
1.61322e-06
7.80213e-06
1.69317e-06
8.00715e-06
5.95524e-07
3.73835e-07
1.26702e-06
3.82859e-07
6.13551e-07
3.69757e-07
1.2578e-06
1.60071e-06
8.14346e-06
8.05826e-06
1.58334e-06
5.92514e-07
3.79685e-07
1.27005e-06
3.65661e-07
1.26071e-06
3.67163e-07
5.86336e-07
1.6007e-06
8.14346e-06
8.05866e-06
1.58335e-06
5.92515e-07
3.79703e-07
3.65662e-07
1.27012e-06
3.67165e-07
1.26083e-06
5.86337e-07
1.61301e-06
7.80087e-06
1.69339e-06
8.00595e-06
5.95501e-07
3.73832e-07
1.26672e-06
3.8285e-07
6.13534e-07
3.69754e-07
1.25763e-06
1.61299e-06
7.80139e-06
1.69336e-06
8.00646e-06
5.92497e-07
3.79678e-07
1.26987e-06
3.65658e-07
1.26056e-06
3.6716e-07
5.86331e-07
1.60082e-06
8.14232e-06
8.05747e-06
1.58348e-06
5.92495e-07
3.79695e-07
3.6566e-07
1.26993e-06
3.67163e-07
1.26059e-06
5.86335e-07
1.6008e-06
8.14306e-06
8.0578e-06
1.58348e-06
2.51679e-06
2.51596e-06
4.06397e-07
2.52224e-06
2.52164e-06
2.47565e-05
2.47347e-05
2.47806e-05
2.47455e-05
4.05274e-07
2.60741e-06
2.60699e-06
2.54986e-06
2.54897e-06
2.47796e-05
2.47425e-05
5.95512e-07
3.73833e-07
1.26682e-06
3.82841e-07
6.13548e-07
3.69755e-07
1.25773e-06
1.61321e-06
7.8015e-06
1.69315e-06
8.00659e-06
1.61324e-06
7.80171e-06
1.69319e-06
8.00685e-06
5.92504e-07
3.79684e-07
3.6566e-07
1.26994e-06
3.67161e-07
1.26058e-06
5.86328e-07
5.92507e-07
3.79685e-07
3.6566e-07
1.27004e-06
3.67163e-07
1.2607e-06
5.86322e-07
1.60068e-06
8.14319e-06
8.05793e-06
1.58333e-06
1.6007e-06
8.14353e-06
8.05822e-06
1.58333e-06
2.47568e-05
2.4735e-05
2.47579e-05
2.47361e-05
4.05272e-07
2.60699e-06
2.60753e-06
2.549e-06
2.54945e-06
2.47798e-05
2.47427e-05
2.47809e-05
2.47438e-05
2.47894e-05
2.47982e-05
2.47929e-05
2.48017e-05
2.61874e-06
2.61935e-06
3.99467e-07
2.63192e-06
2.63259e-06
2.48001e-05
2.47999e-05
2.48034e-05
2.48033e-05
3.99588e-07
2.63546e-06
2.63619e-06
2.63459e-06
2.63528e-06
1.58309e-06
8.15597e-06
1.58342e-06
8.16831e-06
5.85252e-07
1.27408e-06
3.64855e-07
3.76195e-07
5.8611e-07
1.27678e-06
3.64456e-07
5.8525e-07
1.27417e-06
3.64855e-07
3.76198e-07
5.86108e-07
1.27689e-06
3.64457e-07
1.5836e-06
8.16916e-06
8.16926e-06
1.58336e-06
1.58361e-06
8.16971e-06
8.16979e-06
1.58337e-06
5.85345e-07
3.75932e-07
1.2776e-06
3.64186e-07
1.27771e-06
3.64269e-07
5.85132e-07
5.85344e-07
3.75935e-07
1.27775e-06
3.64187e-07
1.27783e-06
3.6427e-07
5.8513e-07
2.61927e-06
2.61912e-06
3.9946e-07
2.63249e-06
2.63213e-06
2.47898e-05
2.47975e-05
2.48019e-05
2.48017e-05
3.99582e-07
2.63608e-06
2.63582e-06
2.63522e-06
2.63504e-06
2.47994e-05
2.47994e-05
5.8525e-07
1.27424e-06
3.64855e-07
3.76187e-07
5.86113e-07
1.27697e-06
3.64457e-07
1.58296e-06
8.15693e-06
1.58323e-06
8.16906e-06
5.85254e-07
3.64857e-07
1.27442e-06
3.76205e-07
5.86116e-07
3.64459e-07
1.27711e-06
1.58341e-06
8.17042e-06
8.17057e-06
1.58322e-06
5.85341e-07
3.75924e-07
1.27783e-06
3.64187e-07
1.2779e-06
3.6427e-07
5.8513e-07
1.58342e-06
8.17047e-06
8.1706e-06
1.58323e-06
5.85346e-07
3.75942e-07
3.64188e-07
1.27797e-06
3.64271e-07
1.27811e-06
5.85134e-07
1.58312e-06
8.15579e-06
1.58344e-06
8.16796e-06
5.85257e-07
3.64855e-07
1.27411e-06
3.76198e-07
5.86114e-07
3.64457e-07
1.27683e-06
1.58311e-06
8.15641e-06
1.58344e-06
8.16873e-06
5.85344e-07
3.75919e-07
1.27772e-06
3.64186e-07
1.27784e-06
3.64268e-07
5.85133e-07
1.58363e-06
8.16939e-06
8.16951e-06
1.58339e-06
5.85347e-07
3.75934e-07
3.64186e-07
1.27767e-06
3.6427e-07
1.27776e-06
5.85137e-07
1.58363e-06
8.17012e-06
8.17019e-06
1.58339e-06
2.61988e-06
2.61889e-06
3.99473e-07
2.63289e-06
2.63211e-06
2.4792e-05
2.48006e-05
2.4803e-05
2.4803e-05
3.99594e-07
2.63658e-06
2.6357e-06
2.63579e-06
2.63482e-06
2.48024e-05
2.48022e-05
5.8524e-07
3.64855e-07
1.27423e-06
3.76187e-07
5.86103e-07
3.64457e-07
1.27694e-06
1.58294e-06
8.15654e-06
1.58321e-06
8.16887e-06
1.58294e-06
8.15689e-06
1.58321e-06
8.16922e-06
5.85335e-07
3.75925e-07
3.64188e-07
1.27767e-06
3.64269e-07
1.27775e-06
5.85123e-07
5.85332e-07
3.75924e-07
3.64186e-07
1.27779e-06
3.64269e-07
1.27788e-06
5.85118e-07
1.5834e-06
8.17026e-06
8.17033e-06
1.58322e-06
1.5834e-06
8.17061e-06
8.17069e-06
1.58321e-06
2.47923e-05
2.48009e-05
2.47934e-05
2.48019e-05
3.99592e-07
2.63572e-06
2.63628e-06
2.63484e-06
2.6354e-06
2.48026e-05
2.48024e-05
2.48037e-05
2.48035e-05
2.48006e-05
2.48001e-05
2.4804e-05
2.48035e-05
2.63596e-06
2.63667e-06
3.9912e-07
2.63575e-06
2.63645e-06
2.48001e-05
2.48007e-05
2.48034e-05
2.4804e-05
3.9931e-07
2.6358e-06
2.63648e-06
2.63613e-06
2.63682e-06
1.58337e-06
8.16989e-06
1.58378e-06
8.16956e-06
5.85095e-07
1.27815e-06
3.64155e-07
3.7574e-07
5.85242e-07
1.27765e-06
3.64144e-07
5.85095e-07
1.27831e-06
3.64155e-07
3.75743e-07
5.85241e-07
1.27781e-06
3.64145e-07
1.58376e-06
8.16888e-06
8.16915e-06
1.58334e-06
1.58377e-06
8.16942e-06
8.16972e-06
1.58335e-06
5.85213e-07
3.75732e-07
1.27764e-06
3.6414e-07
1.27816e-06
3.6414e-07
5.85092e-07
5.85212e-07
3.75736e-07
1.2778e-06
3.64141e-07
1.27833e-06
3.64141e-07
5.85091e-07
2.63659e-06
2.63642e-06
3.99113e-07
2.63636e-06
2.63604e-06
2.48002e-05
2.47994e-05
2.4802e-05
2.48025e-05
3.99304e-07
2.63637e-06
2.63605e-06
2.63674e-06
2.63651e-06
2.47994e-05
2.48002e-05
5.85093e-07
1.27838e-06
3.64155e-07
3.75732e-07
5.85238e-07
1.2779e-06
3.64145e-07
1.58323e-06
8.17066e-06
1.5836e-06
8.17026e-06
5.85097e-07
3.64157e-07
1.27856e-06
3.7575e-07
5.85243e-07
3.64147e-07
1.27803e-06
1.58356e-06
8.1701e-06
8.17043e-06
1.5832e-06
5.85208e-07
3.75724e-07
1.2779e-06
3.6414e-07
1.2784e-06
3.6414e-07
5.85089e-07
1.58358e-06
8.17011e-06
8.17045e-06
1.58321e-06
5.85213e-07
3.75743e-07
3.64142e-07
1.27802e-06
3.64142e-07
1.27857e-06
5.85093e-07
1.58339e-06
8.16958e-06
1.5838e-06
8.16919e-06
5.85101e-07
3.64155e-07
1.27823e-06
3.75743e-07
5.85245e-07
3.64145e-07
1.27773e-06
1.58339e-06
8.17028e-06
1.5838e-06
8.16994e-06
5.85213e-07
3.75721e-07
1.27776e-06
3.64139e-07
1.27831e-06
3.6414e-07
5.85093e-07
1.58379e-06
8.16905e-06
8.16938e-06
1.58337e-06
5.85215e-07
3.75735e-07
3.6414e-07
1.27772e-06
3.6414e-07
1.27825e-06
5.85096e-07
1.58379e-06
8.1698e-06
8.1701e-06
1.58337e-06
2.63715e-06
2.63619e-06
3.99126e-07
2.63681e-06
2.63596e-06
2.4803e-05
2.48024e-05
2.4803e-05
2.48038e-05
3.99316e-07
2.63682e-06
2.63598e-06
2.63727e-06
2.63633e-06
2.48024e-05
2.4803e-05
5.85082e-07
3.64155e-07
1.27835e-06
3.75732e-07
5.85229e-07
3.64144e-07
1.27785e-06
1.58322e-06
8.17043e-06
1.58358e-06
8.17008e-06
1.58322e-06
8.17078e-06
1.58358e-06
8.17043e-06
5.85203e-07
3.75727e-07
3.6414e-07
1.27772e-06
3.64141e-07
1.27824e-06
5.85084e-07
5.85198e-07
3.75724e-07
3.6414e-07
1.27784e-06
3.6414e-07
1.27837e-06
5.85078e-07
1.58357e-06
8.16994e-06
8.17024e-06
1.5832e-06
1.58357e-06
8.1703e-06
8.1706e-06
1.5832e-06
2.48033e-05
2.48027e-05
2.48043e-05
2.48037e-05
3.99313e-07
2.636e-06
2.63657e-06
2.63636e-06
2.63691e-06
2.48026e-05
2.48032e-05
2.48037e-05
2.48043e-05
2.48007e-05
2.48002e-05
2.48039e-05
2.48034e-05
2.63617e-06
2.63683e-06
3.99141e-07
2.63583e-06
2.63648e-06
2.48004e-05
2.48008e-05
2.48034e-05
2.48039e-05
3.99334e-07
2.63587e-06
2.63648e-06
2.63622e-06
2.63683e-06
1.58334e-06
8.16961e-06
1.58375e-06
8.16936e-06
5.85097e-07
1.27816e-06
3.64144e-07
3.75735e-07
5.85213e-07
1.27765e-06
3.64144e-07
5.85095e-07
1.27832e-06
3.64144e-07
3.75739e-07
5.85212e-07
1.2778e-06
3.64144e-07
1.58374e-06
8.16886e-06
8.16906e-06
1.58334e-06
1.58375e-06
8.16934e-06
8.16956e-06
1.58334e-06
5.85218e-07
3.75733e-07
1.27765e-06
3.6414e-07
1.27816e-06
3.64141e-07
5.85098e-07
5.85216e-07
3.75737e-07
1.2778e-06
3.6414e-07
1.27831e-06
3.64141e-07
5.85097e-07
2.63674e-06
2.63651e-06
3.99135e-07
2.63637e-06
2.63605e-06
2.48001e-05
2.47993e-05
2.48021e-05
2.48026e-05
3.99329e-07
2.63637e-06
2.63605e-06
2.63674e-06
2.6365e-06
2.47994e-05
2.48001e-05
5.85094e-07
1.2784e-06
3.64144e-07
3.75728e-07
5.85208e-07
1.2779e-06
3.64144e-07
1.5832e-06
8.17033e-06
1.58356e-06
8.17006e-06
5.85098e-07
3.64146e-07
1.27856e-06
3.75746e-07
5.85213e-07
3.64146e-07
1.27801e-06
1.58354e-06
8.17005e-06
8.17029e-06
1.58319e-06
5.85212e-07
3.75726e-07
1.2779e-06
3.6414e-07
1.27841e-06
3.64141e-07
5.85095e-07
1.58356e-06
8.17004e-06
8.17029e-06
1.5832e-06
5.85217e-07
3.75744e-07
3.64142e-07
1.27801e-06
3.64143e-07
1.27856e-06
5.85099e-07
1.58336e-06
8.16927e-06
1.58377e-06
8.16899e-06
5.851e-07
3.64144e-07
1.27824e-06
3.75738e-07
5.85215e-07
3.64144e-07
1.27772e-06
1.58336e-06
8.16999e-06
1.58377e-06
8.16975e-06
5.85216e-07
3.75723e-07
1.27776e-06
3.64139e-07
1.2783e-06
3.64141e-07
5.85096e-07
1.58377e-06
8.16898e-06
8.16923e-06
1.58336e-06
5.85219e-07
3.75736e-07
3.6414e-07
1.27772e-06
3.64141e-07
1.27824e-06
5.85101e-07
1.58377e-06
8.16973e-06
8.16995e-06
1.58336e-06
2.63727e-06
2.63635e-06
3.99147e-07
2.63682e-06
2.63599e-06
2.48029e-05
2.48023e-05
2.48029e-05
2.48037e-05
3.99341e-07
2.63682e-06