/*--------------------------------*- C++ -*----------------------------------*\
| =========                 |                                                 |
| \\      /  F ield         | OpenFOAM: The Open Source CFD Toolbox           |
|  \\    /   O peration     | Version:  2206                                  |
|   \\  /    A nd           | Website:  www.openfoam.com                      |
|    \\/     M anipulation  |                                                 |
\*---------------------------------------------------------------------------*/
FoamFile
{
    version     2.0;
    format      ascii;
    arch        "LSB;label=32;scalar=64";
    class       volVectorField;
    location    "16.5";
    object      U;
}
// * * * * * * * * * * * * * * * * * * * * * * * * * * * * * * * * * * * * * //

dimensions      [0 1 -1 0 0 0 0];

internalField   nonuniform List<vector> 
28688
(
(0.00010807 0.000107997 0.100299)
(-0.000190849 0.000120153 0.100384)
(0.000120226 -0.00019084 0.100384)
(-0.000238465 -0.000238482 0.100397)
(9.61817e-05 9.6134e-05 0.100862)
(-0.000164783 0.0001006 0.10094)
(0.000100607 -0.00016478 0.10094)
(-0.000199892 -0.000199941 0.100968)
(9.18751e-05 9.187e-05 0.101363)
(-0.000159678 9.66412e-05 0.101448)
(9.66254e-05 -0.000159692 0.101448)
(-0.000195622 -0.00019567 0.101471)
(5.99413e-05 5.98988e-05 0.101816)
(-8.24144e-05 4.86465e-05 0.10187)
(4.86664e-05 -8.24151e-05 0.10187)
(-0.000125365 -0.000125373 0.101885)
(1.22722e-05 1.22592e-05 0.101947)
(-1.55719e-05 1.10527e-05 0.101944)
(1.10582e-05 -1.55688e-05 0.101944)
(-5.2463e-05 -5.24855e-05 0.101926)
(6.1848e-07 6.23757e-07 0.101962)
(-1.53496e-06 1.39046e-06 0.101945)
(1.38071e-06 -1.53497e-06 0.101945)
(-4.01364e-05 -4.01497e-05 0.101918)
(-4.6357e-07 -4.57877e-07 0.101962)
(-3.86587e-07 5.83747e-07 0.101945)
(5.81941e-07 -3.88787e-07 0.101945)
(-3.93725e-05 -3.93871e-05 0.101917)
(-5.19193e-07 -5.15679e-07 0.101962)
(-3.5056e-07 5.5324e-07 0.101945)
(5.50554e-07 -3.52732e-07 0.101945)
(-3.9346e-05 -3.93618e-05 0.101917)
(-5.23745e-07 -5.206e-07 0.101962)
(-3.50597e-07 5.51345e-07 0.101945)
(5.49165e-07 -3.52295e-07 0.101945)
(-3.93453e-05 -3.93617e-05 0.101917)
(-5.22989e-07 -5.19042e-07 0.101962)
(-3.49152e-07 5.51439e-07 0.101945)
(5.48971e-07 -3.51055e-07 0.101945)
(-3.93441e-05 -3.93605e-05 0.101917)
(-5.19395e-07 -5.13769e-07 0.101962)
(-3.49061e-07 5.52072e-07 0.101945)
(5.50009e-07 -3.52115e-07 0.101945)
(-3.93447e-05 -3.93613e-05 0.101917)
(-5.24214e-07 -5.22282e-07 0.101962)
(-3.50743e-07 5.4884e-07 0.101945)
(5.49015e-07 -3.51833e-07 0.101945)
(-3.93392e-05 -3.93566e-05 0.101917)
(0.000135576 0.000135566 0.100282)
(0.000123924 0.000152649 0.100229)
(-0.000123916 0.00015263 0.100229)
(-0.000135573 0.000135535 0.100282)
(0.000152675 0.000123874 0.100229)
(0.000152649 -0.000123891 0.100229)
(9.09731e-05 9.09218e-05 0.10015)
(-9.09637e-05 9.09192e-05 0.10015)
(9.09479e-05 -9.0969e-05 0.10015)
(-9.09455e-05 -9.09671e-05 0.10015)
(-0.000152671 0.00012387 0.100229)
(-0.00015266 -0.000123887 0.100229)
(0.000135567 -0.000135588 0.100282)
(0.000123873 -0.000152678 0.100229)
(-0.00012387 -0.000152661 0.100229)
(-0.000135575 -0.000135562 0.100282)
(0.000238507 0.000238487 0.100397)
(0.000113521 0.000113396 0.100893)
(0.00012027 0.000190735 0.100384)
(-0.000120224 0.000190778 0.100384)
(8.96923e-05 0.000147834 0.100824)
(-8.96554e-05 0.000147833 0.100824)
(-0.000238517 0.000238435 0.100397)
(-0.00011348 0.000113362 0.100893)
(0.000190885 0.000120169 0.100384)
(0.00019082 -0.000120233 0.100384)
(0.000147811 8.96686e-05 0.100824)
(0.000147843 -8.96928e-05 0.100824)
(-0.0001908 -0.000120236 0.100384)
(-0.000147776 8.96693e-05 0.100824)
(-0.000147801 -8.96881e-05 0.100824)
(0.00023844 -0.000238528 0.100397)
(0.000113478 -0.000113493 0.100893)
(-0.000120205 -0.000190869 0.100384)
(8.96793e-05 -0.000147777 0.100824)
(-8.96597e-05 -0.0001478 0.100824)
(-0.000113475 -0.000113495 0.100893)
(0.00019997 0.00019981 0.100968)
(0.000105682 0.000105595 0.101399)
(0.000100606 0.000164839 0.10094)
(-0.00010058 0.000164837 0.10094)
(9.21748e-05 0.000154001 0.101319)
(-9.21775e-05 0.000154003 0.101319)
(-0.000199935 0.000199776 0.100967)
(-0.000105671 0.000105583 0.101399)
(0.000164816 0.000100592 0.10094)
(0.000164834 -0.000100601 0.10094)
(0.000153959 9.21741e-05 0.101319)
(0.000154 -9.21822e-05 0.101319)
(-0.000164811 -0.000100595 0.10094)
(-0.000153958 9.21805e-05 0.101319)
(-0.000153973 -9.21661e-05 0.101319)
(0.000199888 -0.00019995 0.100968)
(0.000105638 -0.000105658 0.1014)
(-0.000100589 -0.000164812 0.10094)
(9.21666e-05 -0.000153958 0.101319)
(-9.21716e-05 -0.000153977 0.101319)
(-0.000105652 -0.000105665 0.101399)
(0.000195686 0.000195563 0.101471)
(5.85335e-05 5.84918e-05 0.101856)
(9.66133e-05 0.000159744 0.101448)
(-9.66255e-05 0.000159745 0.101448)
(6.37919e-05 0.000110202 0.101805)
(-6.37933e-05 0.000110173 0.101805)
(-0.000195676 0.000195547 0.10147)
(-5.85519e-05 5.85481e-05 0.101856)
(0.000159695 9.66354e-05 0.101448)
(0.00015973 -9.66332e-05 0.101448)
(0.000110147 6.37633e-05 0.101805)
(0.000110177 -6.38011e-05 0.101805)
(-0.000159715 -9.66227e-05 0.101448)
(-0.000110148 6.3749e-05 0.101805)
(-0.000110172 -6.37514e-05 0.101805)
(0.000195604 -0.000195677 0.101471)
(5.85576e-05 -5.85014e-05 0.101856)
(-9.66383e-05 -0.000159712 0.101448)
(6.37599e-05 -0.000110147 0.101805)
(-6.37335e-05 -0.000110143 0.101805)
(-5.85006e-05 -5.84806e-05 0.101856)
(0.000125428 0.000125326 0.101885)
(-2.34814e-05 -2.34917e-05 0.101928)
(4.86973e-05 8.24356e-05 0.10187)
(-4.86986e-05 8.24172e-05 0.10187)
(1.74551e-05 2.56346e-05 0.10194)
(-1.74643e-05 2.56515e-05 0.10194)
(-0.000125417 0.000125343 0.101885)
(2.34803e-05 -2.34839e-05 0.101928)
(8.24231e-05 4.86571e-05 0.10187)
(8.24358e-05 -4.87061e-05 0.10187)
(2.56543e-05 1.74193e-05 0.10194)
(2.56614e-05 -1.74596e-05 0.10194)
(-8.24289e-05 -4.8679e-05 0.10187)
(-2.56518e-05 1.74242e-05 0.10194)
(-2.56495e-05 -1.74537e-05 0.10194)
(0.000125368 -0.000125397 0.101885)
(-2.34614e-05 2.34987e-05 0.101928)
(-4.86492e-05 -8.24064e-05 0.10187)
(1.74333e-05 -2.56459e-05 0.10194)
(-1.74339e-05 -2.56508e-05 0.10194)
(2.34762e-05 2.34876e-05 0.101928)
(5.24808e-05 5.24375e-05 0.101926)
(-3.97154e-05 -3.96934e-05 0.10192)
(1.10753e-05 1.55625e-05 0.101944)
(-1.10862e-05 1.55826e-05 0.101944)
(2.26558e-06 2.76009e-06 0.101945)
(-2.27892e-06 2.78141e-06 0.101945)
(-5.24858e-05 5.24408e-05 0.101926)
(3.97144e-05 -3.96788e-05 0.10192)
(1.55712e-05 1.10484e-05 0.101944)
(1.55836e-05 -1.10804e-05 0.101944)
(2.75059e-06 2.25321e-06 0.101945)
(2.76402e-06 -2.26875e-06 0.101945)
(-1.55754e-05 -1.10756e-05 0.101944)
(-2.75119e-06 2.25893e-06 0.101945)
(-2.76841e-06 -2.2657e-06 0.101945)
(5.24549e-05 -5.24927e-05 0.101926)
(-3.96904e-05 3.97209e-05 0.10192)
(-1.10575e-05 -1.55702e-05 0.101944)
(2.25059e-06 -2.74933e-06 0.101945)
(-2.25225e-06 -2.74931e-06 0.101945)
(3.96908e-05 3.97116e-05 0.10192)
(4.01393e-05 4.01234e-05 0.101918)
(-4.08649e-05 -4.08362e-05 0.101918)
(1.39426e-06 1.54539e-06 0.101945)
(-1.40915e-06 1.56688e-06 0.101945)
(6.40974e-07 4.61959e-07 0.101945)
(-6.45173e-07 4.67894e-07 0.101945)
(-4.01444e-05 4.01328e-05 0.101918)
(4.08654e-05 -4.08379e-05 0.101918)
(1.53628e-06 1.38475e-06 0.101945)
(1.54706e-06 -1.3979e-06 0.101945)
(4.46245e-07 6.31786e-07 0.101945)
(4.61664e-07 -6.40758e-07 0.101945)
(-1.54923e-06 -1.39351e-06 0.101945)
(-4.46136e-07 6.30505e-07 0.101945)
(-4.6204e-07 -6.38695e-07 0.101945)
(4.01216e-05 -4.01562e-05 0.101918)
(-4.08381e-05 4.08722e-05 0.101918)
(-1.38134e-06 -1.53072e-06 0.101945)
(6.25103e-07 -4.45241e-07 0.101945)
(-6.26285e-07 -4.45175e-07 0.101945)
(4.08403e-05 4.08612e-05 0.101918)
(3.93791e-05 3.93661e-05 0.101917)
(-4.09027e-05 -4.08698e-05 0.101918)
(6.01472e-07 4.05909e-07 0.101945)
(-5.9799e-07 4.06473e-07 0.101945)
(5.74703e-07 3.7335e-07 0.101945)
(-5.67105e-07 3.72339e-07 0.101945)
(-3.93773e-05 3.93546e-05 0.101917)
(4.09072e-05 -4.08793e-05 0.101918)
(3.90647e-07 5.90143e-07 0.101945)
(4.03374e-07 -5.96782e-07 0.101945)
(3.53421e-07 5.59961e-07 0.101945)
(3.68951e-07 -5.64911e-07 0.101945)
(-4.00966e-07 -5.93529e-07 0.101945)
(-3.5104e-07 5.54247e-07 0.101945)
(-3.67001e-07 -5.64142e-07 0.101945)
(3.93598e-05 -3.93917e-05 0.101917)
(-4.08784e-05 4.09129e-05 0.101918)
(-5.80608e-07 -3.84855e-07 0.101945)
(5.50702e-07 -3.51313e-07 0.101945)
(-5.49688e-07 -3.51595e-07 0.101945)
(4.08827e-05 4.09013e-05 0.101918)
(3.93537e-05 3.93418e-05 0.101917)
(-4.09036e-05 -4.08811e-05 0.101918)
(5.6944e-07 3.69299e-07 0.101945)
(-5.67348e-07 3.72495e-07 0.101945)
(5.68002e-07 3.67175e-07 0.101945)
(-5.6803e-07 3.6819e-07 0.101945)
(-3.93514e-05 3.93309e-05 0.101917)
(4.09068e-05 -4.08804e-05 0.101918)
(3.55224e-07 5.56305e-07 0.101945)
(3.68131e-07 -5.64684e-07 0.101945)
(3.51985e-07 5.53224e-07 0.101945)
(3.67122e-07 -5.63902e-07 0.101945)
(-3.64541e-07 -5.62507e-07 0.101945)
(-3.50472e-07 5.5206e-07 0.101945)
(-3.65202e-07 -5.62676e-07 0.101945)
(3.93348e-05 -3.93659e-05 0.101917)
(-4.08795e-05 4.09131e-05 0.101918)
(-5.48063e-07 -3.49559e-07 0.101945)
(5.48355e-07 -3.49449e-07 0.101945)
(-5.47213e-07 -3.49928e-07 0.101945)
(4.08837e-05 4.09018e-05 0.101918)
(3.93536e-05 3.93328e-05 0.101917)
(-4.09049e-05 -4.08813e-05 0.101918)
(5.66453e-07 3.65657e-07 0.101945)
(-5.67461e-07 3.70953e-07 0.101945)
(5.67986e-07 3.66161e-07 0.101945)
(-5.66917e-07 3.64676e-07 0.101945)
(-3.93521e-05 3.93295e-05 0.101917)
(4.0909e-05 -4.088e-05 0.101918)
(3.5469e-07 5.53232e-07 0.101945)
(3.67067e-07 -5.64599e-07 0.101945)
(3.51065e-07 5.53685e-07 0.101945)
(3.66695e-07 -5.63265e-07 0.101945)
(-3.63877e-07 -5.62133e-07 0.101945)
(-3.49198e-07 5.51781e-07 0.101945)
(-3.64469e-07 -5.62277e-07 0.101945)
(3.93341e-05 -3.9366e-05 0.101917)
(-4.08796e-05 4.09137e-05 0.101918)
(-5.46683e-07 -3.489e-07 0.101945)
(5.48105e-07 -3.48969e-07 0.101945)
(-5.46762e-07 -3.49337e-07 0.101945)
(4.08843e-05 4.09022e-05 0.101918)
(3.93526e-05 3.93341e-05 0.101917)
(-4.0902e-05 -4.08649e-05 0.101918)
(5.68656e-07 3.67854e-07 0.101945)
(-5.65983e-07 3.74769e-07 0.101945)
(5.77806e-07 3.79788e-07 0.101945)
(-5.67078e-07 3.67214e-07 0.101945)
(-3.93489e-05 3.93279e-05 0.101917)
(4.09138e-05 -4.08786e-05 0.101918)
(3.54017e-07 5.55445e-07 0.101945)
(3.66818e-07 -5.63491e-07 0.101945)
(3.51053e-07 5.6171e-07 0.101945)
(3.66953e-07 -5.6174e-07 0.101945)
(-3.62738e-07 -5.61292e-07 0.101945)
(-3.48718e-07 5.53203e-07 0.101945)
(-3.63814e-07 -5.61563e-07 0.101945)
(3.93333e-05 -3.93646e-05 0.101917)
(-4.08801e-05 4.09152e-05 0.101918)
(-5.46003e-07 -3.47829e-07 0.101945)
(5.47991e-07 -3.48141e-07 0.101945)
(-5.45976e-07 -3.48645e-07 0.101945)
(4.08854e-05 4.09032e-05 0.101918)
(3.93567e-05 3.93514e-05 0.101917)
(-4.08987e-05 -4.08784e-05 0.101918)
(5.77225e-07 3.77661e-07 0.101945)
(-5.65364e-07 3.75368e-07 0.101945)
(5.67734e-07 3.64547e-07 0.101945)
(-5.67994e-07 3.63312e-07 0.101945)
(-3.93469e-05 3.93269e-05 0.101917)
(4.09082e-05 -4.0877e-05 0.101918)
(3.55411e-07 5.61792e-07 0.101945)
(3.68519e-07 -5.63495e-07 0.101945)
(3.51546e-07 5.51389e-07 0.101945)
(3.67211e-07 -5.63645e-07 0.101945)
(-3.63711e-07 -5.62231e-07 0.101945)
(-3.49961e-07 5.51305e-07 0.101945)
(-3.64408e-07 -5.63242e-07 0.101945)
(3.93344e-05 -3.9365e-05 0.101917)
(-4.08764e-05 4.091e-05 0.101918)
(-5.46472e-07 -3.49123e-07 0.101945)
(5.48206e-07 -3.49612e-07 0.101945)
(-5.46381e-07 -3.50178e-07 0.101945)
(4.08813e-05 4.08981e-05 0.101918)
(3.9349e-05 3.93266e-05 0.101917)
(-4.08891e-05 -4.08693e-05 0.101918)
(5.68945e-07 3.67328e-07 0.101945)
(-5.66749e-07 3.71444e-07 0.101945)
(5.64863e-07 3.54679e-07 0.101945)
(-3.93435e-05 3.93205e-05 0.101917)
(3.54877e-07 5.53767e-07 0.101945)
(3.66636e-07 -5.64651e-07 0.101945)
(3.446e-07 5.48306e-07 0.101945)
(3.59584e-07 -5.6269e-07 0.101945)
(-3.62655e-07 -5.62578e-07 0.101945)
(-3.58321e-07 -5.61951e-07 0.101945)
(3.93283e-05 -3.93605e-05 0.101917)
(-4.08662e-05 4.08987e-05 0.101918)
(-5.4585e-07 -3.48951e-07 0.101945)
(5.46109e-07 -3.42918e-07 0.101945)
(-5.43963e-07 -3.46038e-07 0.101945)
(4.08704e-05 4.08867e-05 0.101918)
(-3.72172e-07 -3.74651e-07 0.0999988)
(1.6843e-05 1.68379e-05 0.100003)
(-4.59759e-07 1.38028e-05 0.100001)
(1.38102e-05 -4.62192e-07 0.100001)
(-4.69145e-05 5.71408e-06 0.100008)
(-1.5584e-05 1.57677e-05 0.0999999)
(-0.000128108 6.04529e-05 0.100057)
(-1.28973e-05 -8.4581e-07 0.0999959)
(5.70783e-06 -4.68998e-05 0.100008)
(1.57698e-05 -1.55842e-05 0.0999999)
(-8.44138e-07 -1.28965e-05 0.0999959)
(6.04668e-05 -0.000128038 0.100057)
(-1.89919e-05 -1.89958e-05 0.100003)
(-0.000135131 -8.10726e-05 0.100054)
(-8.10809e-05 -0.000135111 0.100054)
(-3.51497e-05 0.000137926 0.100719)
(0.000177185 0.00038539 0.0994268)
(2.51049e-06 0.00030296 0.100521)
(-8.31641e-05 0.00024548 0.0991301)
(-0.000302469 0.000835401 0.0977878)
(-0.000131496 0.000306534 0.0956987)
(0.000137665 -3.52916e-05 0.10072)
(0.000386003 0.000176143 0.0994275)
(0.000303706 2.37305e-06 0.100522)
(0.000245617 -8.30652e-05 0.0991306)
(-0.000108052 0.000108001 0.100299)
(0.000108036 -0.000108049 0.100299)
(-0.000108026 -0.000108058 0.100299)
(9.23259e-05 9.22498e-05 0.100739)
(-9.22788e-05 9.22693e-05 0.100739)
(9.23045e-05 -9.23245e-05 0.100739)
(-9.22848e-05 -9.23344e-05 0.100739)
(-0.000282009 6.39905e-06 0.100753)
(-0.000394997 0.000228492 0.100533)
(-0.000176532 3.73703e-05 0.100332)
(-0.000151183 9.30917e-05 0.100559)
(-0.000357162 1.56474e-05 0.100481)
(-0.000151778 0.000199438 0.100732)
(-0.000150548 3.32437e-05 0.100498)
(0.000834372 -0.000300601 0.0977867)
(0.000306519 -0.000131087 0.0956993)
(6.3487e-06 -0.000281919 0.100753)
(3.74075e-05 -0.000176519 0.100332)
(0.000228577 -0.000394969 0.100533)
(9.306e-05 -0.00015118 0.100559)
(1.56456e-05 -0.000357038 0.100481)
(3.32899e-05 -0.000150523 0.100498)
(0.000199494 -0.00015179 0.100732)
(-0.000369947 -0.000139822 0.100375)
(-0.000140022 -0.000370196 0.100375)
(-0.000112757 -0.000112835 0.100656)
(8.07769e-06 -8.05385e-05 0.100576)
(-8.07993e-05 8.09227e-06 0.100576)
(-1.72466e-05 0.00019915 0.100856)
(-5.66355e-05 0.000284467 0.0983316)
(-2.03944e-05 0.000210143 0.100788)
(-4.41773e-05 0.000277837 0.0979348)
(-0.000145494 0.000306602 0.0926318)
(-0.000144128 0.000280157 0.0909955)
(0.00019906 -1.7415e-05 0.100856)
(0.000284726 -5.65333e-05 0.098332)
(0.00021019 -2.05356e-05 0.100788)
(0.000277964 -4.41037e-05 0.0979351)
(-9.61352e-05 9.61491e-05 0.100862)
(9.61931e-05 -9.61856e-05 0.100862)
(-9.61701e-05 -9.61837e-05 0.100862)
(9.05217e-05 9.05075e-05 0.10123)
(-9.0497e-05 9.05227e-05 0.10123)
(9.0532e-05 -9.05313e-05 0.10123)
(-9.05272e-05 -9.05247e-05 0.10123)
(-0.00026662 1.32167e-05 0.101149)
(-0.000216352 0.000214708 0.10083)
(-0.000169082 3.17378e-05 0.100897)
(-0.000160148 9.80857e-05 0.101062)
(-0.00029802 1.41783e-05 0.10098)
(-0.000188907 0.000199592 0.100935)
(-0.000169278 3.30649e-05 0.101018)
(0.000306614 -0.000145251 0.0926308)
(0.000280215 -0.000143942 0.0909963)
(1.32889e-05 -0.0002666 0.101149)
(3.18184e-05 -0.000169087 0.100897)
(0.000214768 -0.000216412 0.10083)
(9.80813e-05 -0.000160147 0.101062)
(1.42682e-05 -0.000297978 0.10098)
(3.31327e-05 -0.000169279 0.101018)
(0.000199568 -0.000188858 0.100935)
(-8.10207e-05 -9.5353e-05 0.100458)
(-9.5455e-05 -8.10344e-05 0.100458)
(-0.00011673 -0.000116725 0.101141)
(-8.97258e-05 -8.58487e-05 0.100414)
(-8.599e-05 -8.97686e-05 0.100414)
(-1.10309e-05 0.000223524 0.100951)
(-2.61962e-05 0.000277256 0.0971682)
(-1.03857e-05 0.000218422 0.100913)
(-1.18457e-05 0.000273469 0.0967049)
(-0.000122288 0.000223811 0.0884596)
(-9.92604e-05 0.000202782 0.086985)
(0.000223455 -1.11524e-05 0.100951)
(0.000277415 -2.61329e-05 0.0971684)
(0.000218457 -1.05018e-05 0.100914)
(0.000273541 -1.17736e-05 0.096705)
(-9.18493e-05 9.18837e-05 0.101363)
(9.1886e-05 -9.18858e-05 0.101363)
(-9.18809e-05 -9.18803e-05 0.101363)
(7.52059e-05 7.51635e-05 0.101736)
(-7.51847e-05 7.51815e-05 0.101736)
(7.52032e-05 -7.52193e-05 0.101736)
(-7.52058e-05 -7.52182e-05 0.101736)
(-0.000262436 1.09195e-05 0.10158)
(-0.000212991 0.000187422 0.101045)
(-0.000169036 3.21481e-05 0.101403)
(-0.000156003 9.3246e-05 0.101582)
(-0.000280288 1.21898e-05 0.101418)
(-0.000195217 0.000173024 0.101124)
(-0.000170423 3.22315e-05 0.101537)
(0.000223702 -0.000122047 0.0884579)
(0.000202847 -9.9176e-05 0.0869855)
(1.0972e-05 -0.000262435 0.10158)
(3.21863e-05 -0.000169047 0.101403)
(0.000187447 -0.000213023 0.101045)
(9.32371e-05 -0.000156006 0.101582)
(1.22429e-05 -0.000280289 0.101418)
(3.22654e-05 -0.000170424 0.101537)
(0.000172969 -0.00019518 0.101124)
(-0.000109137 -8.91783e-05 0.100207)
(-8.92749e-05 -0.00010921 0.100206)
(-0.000108172 -0.000108179 0.101651)
(-0.000125207 -7.48416e-05 0.100083)
(-7.49273e-05 -0.000125274 0.100082)
(-1.08094e-05 2.46221e-05 0.100859)
(-1.7238e-05 0.000146031 0.0959845)
(-1.76438e-05 0.00012482 0.100935)
(-2.35637e-05 5.226e-05 0.0958371)
(-1.62186e-05 4.38161e-05 0.0855481)
(-7.09265e-06 -6.38262e-06 0.0854837)
(2.45802e-05 -1.08799e-05 0.100859)
(0.000146129 -1.72098e-05 0.0959846)
(0.000124916 -1.77251e-05 0.100936)
(5.23382e-05 -2.35337e-05 0.0958371)
(-5.99255e-05 5.99133e-05 0.101816)
(5.99386e-05 -5.99528e-05 0.101816)
(-5.99359e-05 -5.99524e-05 0.101816)
(2.02491e-05 2.02302e-05 0.101933)
(-2.02428e-05 2.02309e-05 0.101933)
(2.02483e-05 -2.02544e-05 0.101933)
(-2.02495e-05 -2.02572e-05 0.101933)
(-4.58931e-05 2.55165e-06 0.101769)
(-0.000102749 7.64787e-05 0.10113)
(-9.53129e-05 2.02709e-05 0.101844)
(-5.87943e-05 3.60352e-05 0.101909)
(-0.000157778 3.93276e-06 0.101765)
(-2.37922e-05 1.91937e-05 0.101081)
(-6.67438e-05 1.56237e-05 0.101894)
(4.37064e-05 -1.60607e-05 0.0855461)
(-6.27485e-06 -7.11247e-06 0.0854839)
(2.61001e-06 -4.58546e-05 0.101768)
(2.03106e-05 -9.53078e-05 0.101844)
(7.6515e-05 -0.000102779 0.10113)
(3.60549e-05 -5.8793e-05 0.101909)
(3.96146e-06 -0.000157754 0.101765)
(1.56563e-05 -6.67358e-05 0.101894)
(1.91812e-05 -2.3673e-05 0.101081)
(-3.97937e-05 -1.13653e-05 0.0998214)
(-1.13945e-05 -3.9848e-05 0.099821)
(-5.31995e-06 -5.2897e-06 0.101922)
(-3.44371e-06 1.46267e-05 0.0996941)
(1.46276e-05 -3.47295e-06 0.0996936)
(-5.99014e-07 -7.93953e-06 0.100779)
(-4.81419e-06 1.10621e-05 0.0957992)
(-2.19643e-06 7.86754e-06 0.100784)
(-2.33779e-06 -5.63743e-06 0.0958093)
(-6.56454e-06 -1.66562e-06 0.0855392)
(-4.70828e-07 -3.16347e-06 0.0855565)
(-7.99528e-06 -5.98361e-07 0.100778)
(1.10584e-05 -4.87556e-06 0.0957988)
(7.91781e-06 -2.19589e-06 0.100784)
(-5.60532e-06 -2.30756e-06 0.0958095)
(-1.22714e-05 1.22623e-05 0.101947)
(1.22729e-05 -1.2277e-05 0.101947)
(-1.22751e-05 -1.22801e-05 0.101947)
(1.69021e-06 1.69434e-06 0.101961)
(-1.69859e-06 1.69876e-06 0.101961)
(1.69498e-06 -1.69422e-06 0.101961)
(-1.6987e-06 -1.69747e-06 0.101961)
(9.75011e-06 2.95604e-07 0.101733)
(-1.79347e-05 7.19545e-06 0.101003)
(-1.67553e-05 4.62862e-06 0.101949)
(-8.99487e-06 6.64337e-06 0.101945)
(-2.18041e-05 8.62213e-07 0.101739)
(9.66466e-06 -2.47338e-06 0.100994)
(-9.64916e-06 2.60408e-06 0.101954)
(-1.74015e-06 -6.48055e-06 0.0855371)
(-3.13871e-06 -4.09363e-07 0.0855564)
(3.07094e-07 9.757e-06 0.101733)
(4.63982e-06 -1.67547e-05 0.101949)
(7.23202e-06 -1.79573e-05 0.101003)
(6.64128e-06 -8.99119e-06 0.101945)
(8.70767e-07 -2.18095e-05 0.101739)
(2.60788e-06 -9.64455e-06 0.101954)
(-2.49402e-06 9.69641e-06 0.100994)
(-4.49402e-06 -2.66398e-06 0.0995648)
(-2.64044e-06 -4.4911e-06 0.0995644)
(3.57572e-05 3.57748e-05 0.101923)
(3.23537e-06 4.48736e-06 0.0995505)
(4.48088e-06 3.22965e-06 0.09955)
(-8.43772e-09 -7.8681e-06 0.100774)
(6.85969e-07 5.99939e-06 0.0958022)
(-1.1208e-07 7.79708e-06 0.10077)
(-1.0102e-06 -5.98869e-06 0.0958098)
(-1.88174e-06 2.06015e-06 0.0855495)
(1.33433e-06 -2.04312e-06 0.0855578)
(-7.92232e-06 3.73998e-10 0.100774)
(5.95507e-06 6.50917e-07 0.0958016)
(7.84388e-06 -8.65385e-08 0.10077)
(-5.95807e-06 -9.62842e-07 0.0958101)
(-6.27049e-07 6.29223e-07 0.101962)
(6.23347e-07 -6.21904e-07 0.101962)
(-6.27244e-07 -6.24456e-07 0.101962)
(-3.94338e-07 -3.86096e-07 0.101962)
(3.89286e-07 -3.85677e-07 0.101962)
(-3.89418e-07 3.93273e-07 0.101962)
(3.8696e-07 3.90793e-07 0.101962)
(1.27426e-05 1.62852e-08 0.101728)
(-1.26475e-05 3.78553e-06 0.100981)
(-1.68986e-06 2.32488e-07 0.101958)
(-9.08381e-07 9.49807e-07 0.101945)
(-1.35654e-05 1.17409e-08 0.101727)
(1.16647e-05 -3.77688e-06 0.100987)
(-1.02762e-06 3.1042e-08 0.101958)
(1.92826e-06 -1.76392e-06 0.0855473)
(-2.06168e-06 1.40616e-06 0.0855576)
(2.10617e-08 1.27468e-05 0.101728)
(2.25186e-07 -1.68859e-06 0.101958)
(3.8089e-06 -1.26898e-05 0.100981)
(9.3664e-07 -9.06048e-07 0.101945)
(2.15981e-09 -1.3573e-05 0.101727)
(2.2588e-08 -1.02193e-06 0.101958)
(-3.81789e-06 1.16984e-05 0.100987)
(-4.0305e-06 -4.8804e-06 0.0995347)
(-4.87038e-06 -4.02334e-06 0.0995343)
(4.06552e-05 4.06762e-05 0.101918)
(3.70078e-06 4.5289e-06 0.0995413)
(4.52004e-06 3.6963e-06 0.0995408)
(2.75693e-08 -7.90014e-06 0.100774)
(7.59287e-07 6.0836e-06 0.0958022)
(-3.24612e-08 7.71292e-06 0.100769)
(-9.6039e-07 -5.93739e-06 0.0958098)
(-1.62939e-06 2.14779e-06 0.0855496)
(1.52187e-06 -2.13964e-06 0.0855577)
(-7.95149e-06 1.82115e-08 0.100774)
(6.04095e-06 7.20211e-07 0.0958015)
(7.76422e-06 -2.21303e-08 0.100769)
(-5.91234e-06 -9.48416e-07 0.0958101)
(4.61563e-07 -4.59293e-07 0.101962)
(-4.60194e-07 4.63874e-07 0.101962)
(4.58488e-07 4.6169e-07 0.101962)
(-5.16034e-07 -5.0999e-07 0.101962)
(5.18282e-07 -5.14326e-07 0.101962)
(-5.14521e-07 5.18859e-07 0.101962)
(5.1398e-07 5.16068e-07 0.101962)
(1.2907e-05 9.47967e-09 0.101728)
(-1.22751e-05 3.59495e-06 0.10098)
(-4.88413e-07 -1.39262e-07 0.101958)
(-3.63419e-07 5.66051e-07 0.101945)
(-1.30357e-05 -1.42584e-08 0.101726)
(1.17896e-05 -3.82501e-06 0.100987)
(-4.57306e-07 -1.48858e-07 0.101958)
(2.0333e-06 -1.54959e-06 0.0855473)
(-2.03206e-06 1.46456e-06 0.0855576)
(1.6578e-08 1.29142e-05 0.101728)
(-1.44129e-07 -4.87201e-07 0.101958)
(3.62306e-06 -1.23128e-05 0.10098)
(5.61437e-07 -3.62883e-07 0.101945)
(-2.30926e-08 -1.30428e-05 0.101726)
(-1.5194e-07 -4.5196e-07 0.101958)
(-3.85924e-06 1.18262e-05 0.100987)
(-3.91637e-06 -4.72843e-06 0.0995337)
(-4.71964e-06 -3.90911e-06 0.0995333)
(4.08791e-05 4.0898e-05 0.101918)
(3.73557e-06 4.58568e-06 0.0995411)
(4.57683e-06 3.72979e-06 0.0995406)
(2.07785e-08 -7.89822e-06 0.100774)
(7.54478e-07 6.09186e-06 0.0958022)
(-2.72093e-08 7.71404e-06 0.100769)
(-9.97015e-07 -5.94099e-06 0.0958098)
(-1.61693e-06 2.15087e-06 0.0855495)
(1.52397e-06 -2.13715e-06 0.0855576)
(-7.95e-06 1.63962e-08 0.100774)
(6.04939e-06 7.20225e-07 0.0958015)
(7.76438e-06 -2.09429e-08 0.100769)
(-5.90251e-06 -9.51649e-07 0.0958101)
(5.20811e-07 -5.17534e-07 0.101962)
(-5.17402e-07 5.21513e-07 0.101962)
(5.16872e-07 5.19047e-07 0.101962)
(-5.24065e-07 -5.20352e-07 0.101962)
(5.22922e-07 -5.20969e-07 0.101962)
(-5.19645e-07 5.23424e-07 0.101962)
(5.18933e-07 5.20862e-07 0.101962)
(1.29088e-05 9.28318e-09 0.101728)
(-1.22631e-05 3.5938e-06 0.10098)
(-4.40545e-07 -1.53308e-07 0.101958)
(-3.49827e-07 5.52782e-07 0.101945)
(-1.30216e-05 -1.50787e-08 0.101726)
(1.17913e-05 -3.82515e-06 0.100987)
(-4.38634e-07 -1.53935e-07 0.101958)
(2.03714e-06 -1.54254e-06 0.0855473)
(-2.03114e-06 1.4665e-06 0.0855576)
(1.68994e-08 1.29165e-05 0.101728)
(-1.5597e-07 -4.40027e-07 0.101958)
(3.62346e-06 -1.23022e-05 0.10098)
(5.487e-07 -3.49229e-07 0.101945)
(-2.19325e-08 -1.30298e-05 0.101726)
(-1.5633e-07 -4.34001e-07 0.101958)
(-3.85815e-06 1.18276e-05 0.100987)
(-3.91367e-06 -4.71983e-06 0.0995337)
(-4.71014e-06 -3.90738e-06 0.0995333)
(4.08845e-05 4.09029e-05 0.101918)
(3.73607e-06 4.58912e-06 0.0995411)
(4.5806e-06 3.72966e-06 0.0995406)
(2.06264e-08 -7.90285e-06 0.100774)
(7.53458e-07 6.08203e-06 0.0958021)
(-3.20425e-08 7.71492e-06 0.100769)
(-9.86906e-07 -5.9339e-06 0.0958098)
(-1.61047e-06 2.14608e-06 0.0855495)
(1.53266e-06 -2.15085e-06 0.0855576)
(-7.95257e-06 1.49815e-08 0.100774)
(6.04489e-06 7.14965e-07 0.0958015)
(7.76546e-06 -2.31691e-08 0.100769)
(-5.89821e-06 -9.47021e-07 0.0958102)
(5.22801e-07 -5.21019e-07 0.101962)
(-5.19748e-07 5.23218e-07 0.101962)
(5.18994e-07 5.209e-07 0.101962)
(-5.23926e-07 -5.19608e-07 0.101962)
(5.24394e-07 -5.20996e-07 0.101962)
(-5.19772e-07 5.2436e-07 0.101962)
(5.1967e-07 5.21547e-07 0.101962)
(1.2911e-05 8.7028e-09 0.101728)
(-1.22642e-05 3.59465e-06 0.10098)
(-4.40393e-07 -1.5427e-07 0.101958)
(-3.49625e-07 5.51552e-07 0.101945)
(-1.3022e-05 -1.56065e-08 0.101726)
(1.17945e-05 -3.82859e-06 0.100987)
(-4.38426e-07 -1.54588e-07 0.101958)
(2.03856e-06 -1.54265e-06 0.0855473)
(-2.03554e-06 1.4684e-06 0.0855576)
(1.5932e-08 1.29205e-05 0.101728)
(-1.56231e-07 -4.39524e-07 0.101958)
(3.62354e-06 -1.23029e-05 0.10098)
(5.47776e-07 -3.48837e-07 0.101945)
(-2.02728e-08 -1.30334e-05 0.101726)
(-1.56423e-07 -4.33268e-07 0.101958)
(-3.85952e-06 1.183e-05 0.100987)
(-3.91324e-06 -4.72023e-06 0.0995337)
(-4.71024e-06 -3.90718e-06 0.0995333)
(4.08857e-05 4.09035e-05 0.101918)
(3.73737e-06 4.59053e-06 0.0995411)
(4.58263e-06 3.73078e-06 0.0995406)
(3.27092e-08 -7.89361e-06 0.100774)
(7.57293e-07 6.07952e-06 0.0958021)
(-2.92022e-08 7.71219e-06 0.100769)
(-9.83676e-07 -5.92884e-06 0.0958098)
(-1.60587e-06 2.14579e-06 0.0855496)
(1.52845e-06 -2.13918e-06 0.0855576)
(-7.94489e-06 1.99512e-08 0.100774)
(6.04017e-06 7.14991e-07 0.0958015)
(7.7638e-06 -2.14367e-08 0.100769)
(-5.8846e-06 -9.45068e-07 0.0958102)
(5.24085e-07 -5.19948e-07 0.101962)
(-5.19691e-07 5.24397e-07 0.101962)
(5.19783e-07 5.2173e-07 0.101962)
(-5.20519e-07 -5.13299e-07 0.101962)
(5.24802e-07 -5.16855e-07 0.101962)
(-5.19009e-07 5.25012e-07 0.101962)
(5.19812e-07 5.22078e-07 0.101962)
(1.2905e-05 9.14519e-09 0.101728)
(-1.22584e-05 3.58986e-06 0.10098)
(-4.38491e-07 -1.53791e-07 0.101958)
(-3.483e-07 5.52718e-07 0.101945)
(-1.302e-05 -1.56538e-08 0.101726)
(1.17857e-05 -3.82357e-06 0.100987)
(-4.36597e-07 -1.54e-07 0.101958)
(2.04702e-06 -1.54918e-06 0.0855474)
(-2.03095e-06 1.46513e-06 0.0855575)
(1.64128e-08 1.29148e-05 0.101728)
(-1.55873e-07 -4.37955e-07 0.101958)
(3.62397e-06 -1.23009e-05 0.10098)
(5.47645e-07 -3.4776e-07 0.101945)
(-2.09635e-08 -1.30301e-05 0.101726)
(-1.56028e-07 -4.3179e-07 0.101958)
(-3.85283e-06 1.18214e-05 0.100987)
(-3.91034e-06 -4.72169e-06 0.0995337)
(-4.71149e-06 -3.90437e-06 0.0995333)
(4.08844e-05 4.09023e-05 0.101918)
(3.73005e-06 4.58195e-06 0.099541)
(4.57391e-06 3.72334e-06 0.0995405)
(2.92944e-08 -7.88933e-06 0.100774)
(8.55465e-07 6.11393e-06 0.0958022)
(-1.30923e-08 7.71506e-06 0.100769)
(-1.01362e-06 -5.94241e-06 0.0958098)
(-1.60351e-06 2.14913e-06 0.0855496)
(1.52818e-06 -2.13576e-06 0.0855576)
(-7.94152e-06 1.86447e-08 0.100774)
(6.03727e-06 7.22358e-07 0.0958015)
(7.76571e-06 -1.80825e-08 0.100769)
(-5.88635e-06 -9.46581e-07 0.0958102)
(5.25402e-07 -5.17674e-07 0.101962)
(-5.18551e-07 5.24286e-07 0.101962)
(5.19535e-07 5.21217e-07 0.101962)
(-5.23431e-07 -5.21244e-07 0.101962)
(5.25046e-07 -5.18745e-07 0.101962)
(-5.1951e-07 5.2388e-07 0.101962)
(5.20087e-07 5.20489e-07 0.101962)
(1.29041e-05 8.57047e-09 0.101728)
(-1.22598e-05 3.58859e-06 0.10098)
(-4.38646e-07 -1.5344e-07 0.101958)
(-3.48854e-07 5.52505e-07 0.101945)
(-1.30213e-05 -1.5112e-08 0.101726)
(1.17827e-05 -3.82415e-06 0.100987)
(-4.3637e-07 -1.53715e-07 0.101958)
(2.04682e-06 -1.5522e-06 0.0855473)
(-2.03023e-06 1.4625e-06 0.0855576)
(1.66063e-08 1.29135e-05 0.101728)
(-1.55369e-07 -4.38904e-07 0.101958)
(3.62593e-06 -1.23038e-05 0.10098)
(5.48022e-07 -3.47975e-07 0.101945)
(-2.01839e-08 -1.30318e-05 0.101726)
(-1.55521e-07 -4.31939e-07 0.101958)
(-3.85133e-06 1.18187e-05 0.100987)
(-3.92e-06 -4.72315e-06 0.0995337)
(-4.71306e-06 -3.9142e-06 0.0995333)
(4.08816e-05 4.08989e-05 0.101918)
(3.73675e-06 4.5825e-06 0.099541)
(4.57441e-06 3.72979e-06 0.0995405)
(2.03102e-08 -7.89281e-06 0.100774)
(7.52239e-07 6.08836e-06 0.0958022)
(-3.32738e-08 7.70957e-06 0.100769)
(-9.86755e-07 -5.94255e-06 0.0958098)
(-1.60005e-06 2.13537e-06 0.0855495)
(1.51339e-06 -2.12986e-06 0.0855576)
(-7.94395e-06 1.35005e-08 0.100774)
(6.03481e-06 7.04872e-07 0.0958015)
(7.76317e-06 -2.33507e-08 0.100769)
(-5.88619e-06 -9.41695e-07 0.0958102)
(5.25945e-07 -5.18402e-07 0.101962)
(-5.19837e-07 5.23686e-07 0.101962)
(5.20145e-07 5.2018e-07 0.101962)
(-5.25733e-07 -5.26465e-07 0.101962)
(5.36407e-07 -5.17439e-07 0.101962)
(-5.22549e-07 5.27284e-07 0.101962)
(5.2463e-07 5.20105e-07 0.101962)
(1.29047e-05 5.75257e-09 0.101728)
(-1.22566e-05 3.59531e-06 0.10098)
(-4.39148e-07 -1.55007e-07 0.101958)
(-3.49003e-07 5.49347e-07 0.101945)
(-1.3016e-05 -1.64118e-08 0.101726)
(1.17858e-05 -3.82273e-06 0.100987)
(-4.35747e-07 -1.56143e-07 0.101958)
(2.01379e-06 -1.52493e-06 0.0855473)
(-2.01822e-06 1.46234e-06 0.0855576)
(1.58622e-08 1.29145e-05 0.101728)
(-1.55498e-07 -4.38397e-07 0.101958)
(3.6209e-06 -1.22958e-05 0.10098)
(5.45939e-07 -3.46165e-07 0.101945)
(-2.05432e-08 -1.30259e-05 0.101726)
(-1.5597e-07 -4.29574e-07 0.101958)
(-3.85628e-06 1.1823e-05 0.100987)
(-3.90585e-06 -4.71534e-06 0.0995337)
(-4.70432e-06 -3.90051e-06 0.0995333)
(4.08794e-05 4.08959e-05 0.101918)
(3.73401e-06 4.59e-06 0.0995411)
(4.58352e-06 3.72597e-06 0.0995406)
(1.89978e-05 1.89864e-05 0.100003)
(8.10582e-05 0.00013511 0.100054)
(0.000135169 8.10707e-05 0.100054)
(0.00041419 0.00104314 0.0978694)
(0.000115171 0.000204374 0.100125)
(0.00104223 0.000411561 0.0978694)
(0.000204521 0.000115198 0.100125)
(0.000101952 0.000101916 0.100042)
(0.000118891 0.000515393 0.100267)
(0.000514258 0.000118517 0.100267)
(0.000117215 0.000180159 0.100097)
(0.000180298 0.000117234 0.100097)
(5.71151e-06 4.68838e-05 0.100008)
(1.57749e-05 1.55819e-05 0.0999999)
(6.04558e-05 0.000128044 0.100057)
(-8.42746e-07 1.289e-05 0.0999959)
(-5.72331e-06 4.68928e-05 0.100008)
(-1.57729e-05 1.55771e-05 0.0999999)
(-6.04288e-05 0.000128033 0.100057)
(8.4306e-07 1.28905e-05 0.0999959)
(4.59217e-06 0.000154532 0.100054)
(0.000326884 0.000317643 0.0993439)
(9.834e-05 0.000167551 0.100056)
(7.24042e-06 0.000329449 0.100415)
(-4.63159e-06 0.000154547 0.100054)
(-0.000326349 0.000318359 0.099344)
(-9.82789e-05 0.000167511 0.100056)