/*--------------------------------*- C++ -*----------------------------------*\
| =========                 |                                                 |
| \\      /  F ield         | OpenFOAM: The Open Source CFD Toolbox           |
|  \\    /   O peration     | Version:  2206                                  |
|   \\  /    A nd           | Website:  www.openfoam.com                      |
|    \\/     M anipulation  |                                                 |
\*---------------------------------------------------------------------------*/
FoamFile
{
    version     2.0;
    format      ascii;
    arch        "LSB;label=32;scalar=64";
    class       volScalarField;
    location    "5.5";
    object      nut;
}
// * * * * * * * * * * * * * * * * * * * * * * * * * * * * * * * * * * * * * //

dimensions      [0 2 -1 0 0 0 0];

internalField   nonuniform List<scalar> 
28335
(
0.000233345
0.00023236
0.00023236
0.000230932
0.000233346
0.000232349
0.000232349
0.000230895
0.00023335
0.000232352
0.000232352
0.000230899
0.00023335
0.000232352
0.000232352
0.000230899
0.00023335
0.000232352
0.000232352
0.000230899
0.00023335
0.000232352
0.000232352
0.000230899
0.00023335
0.000232352
0.000232352
0.000230899
0.00023335
0.000232352
0.000232352
0.000230899
0.00023335
0.000232352
0.000232352
0.000230899
0.00023335
0.000232352
0.000232352
0.000230899
0.00023335
0.000232352
0.000232352
0.000230899
0.00023335
0.000232352
0.000232352
0.000230899
0.00023335
0.000232352
0.000232352
0.000230899
0.00023335
0.000232352
0.000232352
0.000230899
0.00023335
0.000232352
0.000232352
0.000230899
0.00023335
0.000232352
0.000232352
0.000230899
0.00023335
0.000232352
0.000232352
0.000230899
0.000230955
0.000232368
0.000232368
0.000230955
0.000232368
0.000232367
0.000232369
0.000232368
0.000230954
0.000232368
0.000232368
0.000230955
0.000230933
0.000230912
0.00023236
0.00023236
0.000232342
0.000232342
0.000230933
0.000230912
0.00023236
0.000232359
0.000232342
0.000232341
0.00023236
0.000232343
0.000232342
0.000230933
0.000230911
0.000232361
0.000232342
0.000232343
0.00023091
0.000230901
0.000230919
0.000232349
0.000232348
0.000232352
0.000232351
0.000230902
0.00023092
0.000232349
0.000232348
0.000232352
0.000232351
0.000232348
0.000232353
0.000232351
0.000230901
0.000230919
0.000232349
0.000232352
0.000232352
0.000230917
0.000230905
0.000230919
0.000232351
0.000232351
0.000232352
0.000232351
0.000230906
0.00023092
0.000232352
0.000232351
0.000232352
0.000232351
0.000232351
0.000232353
0.000232352
0.000230905
0.000230919
0.000232352
0.000232352
0.000232352
0.000230918
0.000230906
0.000230919
0.000232352
0.000232352
0.000232351
0.000232351
0.000230906
0.00023092
0.000232352
0.000232351
0.000232352
0.000232351
0.000232352
0.000232353
0.000232351
0.000230905
0.000230919
0.000232352
0.000232352
0.000232352
0.000230918
0.000230906
0.000230919
0.000232352
0.000232352
0.000232352
0.000232351
0.000230906
0.00023092
0.000232352
0.000232351
0.000232352
0.000232351
0.000232352
0.000232353
0.000232352
0.000230905
0.000230919
0.000232352
0.000232352
0.000232352
0.000230918
0.000230906
0.000230919
0.000232352
0.000232352
0.000232352
0.000232351
0.000230906
0.00023092
0.000232352
0.000232351
0.000232352
0.000232351
0.000232352
0.000232353
0.000232351
0.000230905
0.000230919
0.000232352
0.000232352
0.000232352
0.000230918
0.000230906
0.000230919
0.000232352
0.000232352
0.000232352
0.000232351
0.000230906
0.00023092
0.000232352
0.000232351
0.000232352
0.000232351
0.000232352
0.000232353
0.000232351
0.000230905
0.000230919
0.000232352
0.000232352
0.000232352
0.000230918
0.000230906
0.000230919
0.000232352
0.000232352
0.000232352
0.000232351
0.000230906
0.00023092
0.000232352
0.000232351
0.000232352
0.000232351
0.000232352
0.000232353
0.000232351
0.000230905
0.000230919
0.000232352
0.000232352
0.000232352
0.000230918
0.000230906
0.000230919
0.000232352
0.000232352
0.000232352
0.000232351
0.000230906
0.00023092
0.000232352
0.000232351
0.000232352
0.000232351
0.000232352
0.000232353
0.000232351
0.000230905
0.000230919
0.000232352
0.000232352
0.000232352
0.000230918
0.000230906
0.000230919
0.000232352
0.000232352
0.000232352
0.000232351
0.000230906
0.00023092
0.000232352
0.000232351
0.000232352
0.000232351
0.000232352
0.000232353
0.000232351
0.000230905
0.000230919
0.000232352
0.000232352
0.000232352
0.000230918
0.000230906
0.000230919
0.000232352
0.000232352
0.000232352
0.000232351
0.000230906
0.00023092
0.000232352
0.000232351
0.000232352
0.000232351
0.000232352
0.000232353
0.000232351
0.000230905
0.000230919
0.000232352
0.000232352
0.000232352
0.000230918
0.000230906
0.000230919
0.000232352
0.000232352
0.000232352
0.000232351
0.000230906
0.00023092
0.000232352
0.000232351
0.000232352
0.000232351
0.000232352
0.000232353
0.000232351
0.000230905
0.000230919
0.000232352
0.000232352
0.000232352
0.000230918
0.000230906
0.000230919
0.000232352
0.000232352
0.000232352
0.000232351
0.000230906
0.00023092
0.000232352
0.000232351
0.000232352
0.000232351
0.000232352
0.000232353
0.000232351
0.000230905
0.000230919
0.000232352
0.000232352
0.000232352
0.000230918
0.000230906
0.000230919
0.000232352
0.000232352
0.000232352
0.000232351
0.000230906
0.00023092
0.000232352
0.000232351
0.000232352
0.000232351
0.000232352
0.000232353
0.000232351
0.000230905
0.000230919
0.000232352
0.000232352
0.000232352
0.000230918
0.000230906
0.000230919
0.000232352
0.000232352
0.000232352
0.000232351
0.000230906
0.00023092
0.000232352
0.000232351
0.000232352
0.000232351
0.000232352
0.000232353
0.000232351
0.000230905
0.000230919
0.000232352
0.000232352
0.000232352
0.000230918
0.000230906
0.000230919
0.000232352
0.000232352
0.000232352
0.000232351
0.000230906
0.00023092
0.000232352
0.000232351
0.000232352
0.000232351
0.000232352
0.000232353
0.000232351
0.000230905
0.000230919
0.000232352
0.000232352
0.000232352
0.000230918
0.000230906
0.000232352
0.000232352
0.000230906
0.000232352
0.000232351
0.000232352
0.000230905
0.000232352
0.000103343
4.21927e-05
2.37951e-05
0.000103352
4.2189e-05
0.000233354
0.000233354
0.000233354
0.000233353
0.000200059
0.000232372
0.000118975
0.000233194
2.37934e-05
0.00020006
0.000232371
0.000233194
0.000118979
0.00023096
6.75506e-05
6.75378e-05
0.000103238
4.21934e-05
0.000103319
4.2205e-05
2.37945e-05
2.3806e-05
0.000103245
4.21898e-05
0.000103332
4.22013e-05
0.000233346
0.000233346
0.000233346
0.000233339
0.00023334
0.00023334
0.00023334
0.000199947
0.000118937
0.000233182
0.00023234
0.000200032
0.000118867
0.000233164
2.37931e-05
2.38042e-05
0.000199947
0.000233183
0.000118944
0.000232339
0.000200032
0.000233165
0.000118868
6.75495e-05
6.75367e-05
0.000230911
6.74698e-05
6.74565e-05
0.000103114
4.22144e-05
0.000103098
4.2214e-05
2.38132e-05
2.38129e-05
0.000103125
4.22109e-05
0.00010311
4.22104e-05
0.000233346
0.000233346
0.000233346
0.00023335
0.00023335
0.00023335
0.00023335
0.000199853
0.000118718
0.000233181
0.000232352
0.000199831
0.000118744
0.000233184
2.38116e-05
2.38113e-05
0.000199853
0.000233181
0.000118725
0.000232352
0.000199829
0.000233184
0.000118749
6.73614e-05
6.73488e-05
0.000230921
6.73701e-05
6.73574e-05
0.000103114
4.22143e-05
0.000103099
4.2214e-05
2.38131e-05
2.38129e-05
0.000103126
4.22107e-05
0.000103113
4.22103e-05
0.00023335
0.00023335
0.000233349
0.00023335
0.00023335
0.00023335
0.00023335
0.000199853
0.000118717
0.000233184
0.000232353
0.000199833
0.000118744
0.000233184
2.38114e-05
2.38113e-05
0.000199854
0.000233184
0.000118724
0.000232352
0.000199833
0.000233184
0.00011875
6.7363e-05
6.73504e-05
0.00023092
6.73704e-05
6.73577e-05
0.000103114
4.22143e-05
0.000103099
4.2214e-05
2.38131e-05
2.38129e-05
0.000103126
4.22107e-05
0.000103113
4.22103e-05
0.00023335
0.00023335
0.00023335
0.00023335
0.00023335
0.00023335
0.00023335
0.000199853
0.000118717
0.000233184
0.000232353
0.000199834
0.000118744
0.000233184
2.38114e-05
2.38113e-05
0.000199854
0.000233184
0.000118724
0.000232352
0.000199833
0.000233184
0.00011875
6.7363e-05
6.73504e-05
0.00023092
6.73704e-05
6.73576e-05
0.000103114
4.22143e-05
0.000103099
4.2214e-05
2.38131e-05
2.38129e-05
0.000103126
4.22107e-05
0.000103113
4.22103e-05
0.00023335
0.00023335
0.00023335
0.00023335
0.00023335
0.00023335
0.00023335
0.000199853
0.000118717
0.000233184
0.000232353
0.000199834
0.000118744
0.000233184
2.38114e-05
2.38113e-05
0.000199854
0.000233184
0.000118724
0.000232352
0.000199833
0.000233184
0.00011875
6.7363e-05
6.73502e-05
0.00023092
6.73704e-05
6.73577e-05
0.000103114
4.22143e-05
0.0001031
4.2214e-05
2.38131e-05
2.38129e-05
0.000103126
4.22108e-05
0.000103113
4.22104e-05
0.00023335
0.00023335
0.00023335
0.00023335
0.00023335
0.00023335
0.00023335
0.000199853
0.000118717
0.000233184
0.000232353
0.000199834
0.000118744
0.000233184
2.38114e-05
2.38113e-05
0.000199854
0.000233184
0.000118724
0.000232352
0.000199833
0.000233184
0.00011875
6.7363e-05
6.73503e-05
0.00023092
6.73705e-05
6.73576e-05
0.000103114
4.22143e-05
0.0001031
4.2214e-05
2.38132e-05
2.38131e-05
0.000103126
4.22107e-05
0.000103113
4.22104e-05
0.00023335
0.00023335
0.00023335
0.00023335
0.00023335
0.00023335
0.00023335
0.000199853
0.000118717
0.000233184
0.000232353
0.000199834
0.000118744
0.000233184
2.38114e-05
2.38113e-05
0.000199854
0.000233184
0.000118724
0.000232352
0.000199833
0.000233184
0.00011875
6.7363e-05
6.73503e-05
0.00023092
6.73705e-05
6.73577e-05
0.000103114
4.22143e-05
0.000103099
4.2214e-05
2.38133e-05
2.38131e-05
0.000103126
4.22107e-05
0.000103113
4.22104e-05
0.00023335
0.00023335
0.00023335
0.00023335
0.00023335
0.00023335
0.00023335
0.000199853
0.000118717
0.000233184
0.000232353
0.000199834
0.000118744
0.000233184
2.38114e-05
2.38113e-05
0.000199854
0.000233184
0.000118724
0.000232352
0.000199833
0.000233184
0.00011875
6.7363e-05
6.73505e-05
0.00023092
6.73704e-05
6.73577e-05
0.000103114
4.22143e-05
0.0001031
4.2214e-05
2.38132e-05
2.38131e-05
0.000103126
4.22107e-05
0.000103113
4.22104e-05
0.00023335
0.00023335
0.00023335
0.00023335
0.00023335
0.00023335
0.00023335
0.000199853
0.000118717
0.000233184
0.000232353
0.000199834
0.000118744
0.000233184
2.38114e-05
2.38113e-05
0.000199854
0.000233184
0.000118724
0.000232352
0.000199833
0.000233184
0.00011875
6.7363e-05
6.73504e-05
0.00023092
6.73704e-05
6.73577e-05
0.000103114
4.22143e-05
0.000103099
4.2214e-05
2.38132e-05
2.38131e-05
0.000103126
4.22107e-05
0.000103113
4.22104e-05
0.00023335
0.00023335
0.00023335
0.00023335
0.00023335
0.00023335
0.00023335
0.000199853
0.000118717
0.000233184
0.000232353
0.000199834
0.000118744
0.000233184
2.38114e-05
2.38113e-05
0.000199854
0.000233184
0.000118724
0.000232352
0.000199833
0.000233184
0.00011875
6.7363e-05
6.73504e-05
0.00023092
6.73704e-05
6.73577e-05
0.000103114
4.22143e-05
0.0001031
4.2214e-05
2.38132e-05
2.38131e-05
0.000103126
4.22107e-05
0.000103113
4.22104e-05
0.00023335
0.00023335
0.00023335
0.00023335
0.00023335
0.00023335
0.00023335
0.000199853
0.000118717
0.000233184
0.000232353
0.000199834
0.000118744
0.000233184
2.38114e-05
2.38113e-05
0.000199854
0.000233184
0.000118724
0.000232352
0.000199833
0.000233184
0.00011875
6.7363e-05
6.73503e-05
0.00023092
6.73704e-05
6.73577e-05
0.000103114
4.22143e-05
0.000103099
4.2214e-05
2.38132e-05
2.38131e-05
0.000103126
4.22107e-05
0.000103113
4.22104e-05
0.00023335
0.00023335
0.00023335
0.00023335
0.00023335
0.00023335
0.00023335
0.000199853
0.000118717
0.000233184
0.000232353
0.000199834
0.000118744
0.000233184
2.38114e-05
2.38113e-05
0.000199852
0.000233184
0.000118724
0.000232352
0.000199832
0.000233184
0.00011875
6.7363e-05
6.73505e-05
0.00023092
6.73704e-05
6.73577e-05
0.000103114
4.22143e-05
0.000103099
4.2214e-05
2.38132e-05
2.38131e-05
0.000103126
4.22107e-05
0.000103113
4.22104e-05
0.00023335
0.00023335
0.00023335
0.00023335
0.00023335
0.00023335
0.00023335
0.000199853
0.000118717
0.000233184
0.000232353
0.000199834
0.000118744
0.000233184
2.38114e-05
2.38113e-05
0.000199848
0.000233184
0.000118724
0.000232352
0.000199828
0.000233184
0.00011875
6.7363e-05
6.73503e-05
0.00023092
6.73705e-05
6.73576e-05
0.000103114
4.22143e-05
0.0001031
4.2214e-05
2.38132e-05
2.38131e-05
0.000103126
4.22107e-05
0.000103113
4.22104e-05
0.00023335
0.00023335
0.00023335
0.00023335
0.00023335
0.00023335
0.00023335
0.000199853
0.000118717
0.000233184
0.000232353
0.000199834
0.000118744
0.000233184
2.38114e-05
2.38113e-05
0.000199849
0.000233184
0.000118724
0.000232352
0.000199829
0.000233184
0.00011875
6.7363e-05
6.73504e-05
0.00023092
6.73704e-05
6.73577e-05
0.000103114
4.22143e-05
0.000103099
4.2214e-05
2.38132e-05
2.38131e-05
0.000103126
4.22107e-05
0.000103113
4.22104e-05
0.00023335
0.00023335
0.00023335
0.00023335
0.00023335
0.00023335
0.00023335
0.000199853
0.000118717
0.000233184
0.000232353
0.000199834
0.000118744
0.000233184
2.38114e-05
2.38113e-05
0.000199849
0.000233184
0.000118724
0.000232352
0.000199829
0.000233184
0.00011875
6.7363e-05
6.73504e-05
0.00023092
6.73704e-05
6.73578e-05
0.000103114
4.22143e-05
0.000103099
4.2214e-05
2.38132e-05
2.38131e-05
0.000103126
4.22107e-05
0.000103113
4.22104e-05
0.00023335
0.00023335
0.00023335
0.00023335
0.00023335
0.00023335
0.00023335
0.000199853
0.000118717
0.000233184
0.000232353
0.000199834
0.000118744
0.000233184
2.38114e-05
2.38113e-05
0.000199849
0.000233184
0.000118724
0.000232352
0.000199829
0.000233184
0.00011875
6.7363e-05
6.73503e-05
0.00023092
6.73704e-05
6.73577e-05
0.000103114
4.22143e-05
0.000103099
4.2214e-05
2.38132e-05
2.3813e-05
0.000103126
4.22107e-05
0.000103113
4.22104e-05
0.00023335
0.00023335
0.00023335
0.000199861
0.000118717
0.000233184
0.000232352
0.000199834
0.000118744
0.000233185
2.38114e-05
2.38112e-05
0.000199856
0.000233184
0.000118724
0.000232353
0.000199829
0.000233185
0.000118745
6.73629e-05
6.73503e-05
0.000230924
6.73695e-05
6.73571e-05
2.37955e-05
2.37942e-05
0.000230962
6.75553e-05
6.75414e-05
2.37947e-05
2.37951e-05
2.37933e-05
2.37937e-05
0.000230949
6.75638e-05
6.75499e-05
6.75581e-05
6.75443e-05
0.000103348
4.21911e-05
0.000200061
0.000232371
0.000118986
0.000233194
0.000200062
0.000232371
0.00011898
0.000233194
0.000103336
4.21929e-05
4.21926e-05
0.000103342
0.00010334
4.21913e-05
4.21912e-05
0.000103346
0.00020005
0.00023237
0.000118983
0.000233191
0.00011897
0.000233193
0.000200058
0.000200051
0.00023237
0.000118977
0.000233191
0.000118964
0.000233193
0.00020006
0.000230963
6.75404e-05
6.75432e-05
2.37949e-05
2.37942e-05
2.37947e-05
0.000230949
6.75489e-05
6.75522e-05
6.75437e-05
6.75429e-05
2.37945e-05
2.37948e-05
0.000200064
0.000232371
0.000118972
0.000233194
0.000103355
4.21866e-05
0.000200062
0.00023237
0.000233194
0.00011896
0.000103348
4.21893e-05
4.2189e-05
0.000103352
0.000200053
0.00023237
0.000118968
0.000233191
0.000118956
0.000233193
0.000200061
0.000103349
4.21869e-05
4.21867e-05
0.000103352
0.000200051
0.000232369
0.000233191
0.000118957
0.000233193
0.000118942
0.00020006
0.000103347
4.21904e-05
0.000200061
0.000232371
0.000233194
0.000118984
0.000103347
4.21887e-05
0.000200049
0.000232371
0.000118974
0.000233191
0.000118958
0.000233193
0.000200059
0.00010334
4.21907e-05
4.21904e-05
0.000103346
0.000200051
0.00023237
0.000233191
0.00011898
0.000233193
0.000118967
0.00020006
0.000103339
4.2189e-05
4.21887e-05
0.000103345
0.000230962
6.75253e-05
6.75533e-05
2.37947e-05
2.37927e-05
2.37933e-05
0.000230948
6.75333e-05
6.75626e-05
6.7524e-05
6.75561e-05
2.37939e-05
2.37943e-05
0.000200062
0.000232371
0.000233194
0.000118974
0.000103355
4.21885e-05
0.000103355
4.2188e-05
0.000200049
0.000232371
0.000233191
0.000118979
0.000233193
0.000118964
0.00020006
0.000200051
0.00023237
0.000233191
0.000118971
0.000233193
0.000118957
0.000200062
0.00010335
4.21887e-05
4.21885e-05
0.000103354
0.000103349
4.21883e-05
4.2188e-05
0.000103353
2.37945e-05
2.37939e-05
0.000230947
6.75593e-05
6.75463e-05
6.75536e-05
6.75409e-05
2.37937e-05
2.37941e-05
2.3793e-05
2.37934e-05
2.37947e-05
2.38066e-05
2.37934e-05
2.38056e-05
6.75625e-05
6.75482e-05
0.00023091
6.74735e-05
6.7458e-05
2.38138e-05
2.38107e-05
2.38125e-05
2.38096e-05
0.000230877
6.73685e-05
6.73543e-05
6.74116e-05
6.73963e-05
0.000103238
4.21914e-05
0.000103332
4.22046e-05
0.000199945
0.000118958
0.000233183
0.000232338
0.000200033
0.000118873
0.000233164
0.000199946
0.000118951
0.000233183
0.000232339
0.000200034
0.000118866
0.000233165
0.000103162
4.2214e-05
4.22105e-05
0.000103114
0.000103161
4.22134e-05
4.22099e-05
0.000103113
0.000199882
0.000232336
0.000118754
0.000233174
0.000118799
0.000233166
0.000199852
0.000199882
0.000232337
0.000118746
0.000233174
0.000118792
0.000233166
0.000199852
6.75457e-05
6.75406e-05
0.000230912
6.74584e-05
6.74655e-05
2.37946e-05
2.38067e-05
2.38129e-05
2.38099e-05
0.000230878
6.73557e-05
6.7358e-05
6.73963e-05
6.74011e-05
2.38137e-05
2.38109e-05
0.000199946
0.000118942
0.000233183
0.000232339
0.000200036
0.000118856
0.000233165
0.000103243
4.2187e-05
0.000103344
4.21997e-05
0.000199945
0.000233183
0.000118929
0.000232338
0.000200034
0.000233165
0.000118848
0.000103169
4.22105e-05
4.22069e-05
0.000103124
0.000199882
0.000232336
0.000118736
0.000233174
0.000118785
0.000233166
0.000199853
0.000103166
4.2209e-05
4.22053e-05
0.00010312
0.00019988
0.000232335
0.000233174
0.000118724
0.000233166
0.000118772
0.000199852
0.000103238
4.21908e-05
0.000103332
4.22039e-05
0.000199947
0.000233183
0.000118955
0.000232339
0.000200036
0.000233164
0.000118869
0.000103237
4.21891e-05
0.000103331
4.22022e-05
0.000199885
0.000232338
0.000118748
0.000233174
0.000118794
0.000233167
0.000199851
0.000103161
4.22128e-05
4.22094e-05
0.000103113
0.000199883
0.000232337
0.000233174
0.00011875
0.000233166
0.000118794
0.000199852
0.00010316
4.22111e-05
4.22076e-05
0.000103112
6.75241e-05
6.75609e-05
0.00023091
6.74476e-05
6.74711e-05
2.37939e-05
2.38058e-05
2.38113e-05
2.38085e-05
0.000230877
6.73401e-05
6.73671e-05
6.73817e-05
6.74087e-05
2.3813e-05
2.38099e-05
0.000199948
0.000233183
0.000118945
0.00023234
0.000200036
0.000233164
0.000118859
0.000103244
4.21888e-05
0.000103345
4.22019e-05
0.000103246
4.21884e-05
0.000103344
4.22015e-05
0.000199882
0.000232337
0.000233174
0.000118753
0.000233167
0.000118796
0.000199851
0.000199882
0.000232337
0.000233174
0.00011874
0.000233166
0.000118785
0.000199852
0.000103167
4.22109e-05
4.22073e-05
0.000103121
0.000103168
4.22105e-05
4.22069e-05
0.000103121
2.37938e-05
2.3806e-05
2.37931e-05
2.38053e-05
0.000230879
6.73674e-05
6.73547e-05
6.74074e-05
6.73947e-05
2.38129e-05
2.381e-05
2.38122e-05
2.38093e-05
2.38134e-05
2.38137e-05
2.38121e-05
2.38124e-05
6.73694e-05
6.7355e-05
0.000230921
6.73698e-05
6.73558e-05
2.38137e-05
2.38133e-05
2.38124e-05
2.38119e-05
0.00023091
6.73705e-05
6.73566e-05
6.73715e-05
6.73574e-05
0.000103114
4.22129e-05
0.000103106
4.2213e-05
0.000199854
0.000118736
0.000233181
0.000232351
0.000199838
0.00011875
0.000233184
0.000199854
0.000118728
0.000233181
0.000232351
0.000199838
0.000118743
0.000233184
0.000103109
4.22138e-05
4.22135e-05
0.000103115
0.000103108
4.2213e-05
4.22126e-05
0.000103114
0.000199842
0.000232352
0.000118751
0.000233184
0.000118736
0.000233184
0.000199853
0.000199841
0.000232352
0.000118744
0.000233184
0.000118728
0.000233184
0.000199853
6.73548e-05
6.73499e-05
0.000230921
6.73557e-05
6.73563e-05
2.38132e-05
2.38134e-05
2.38126e-05
2.38123e-05
0.000230911
6.73568e-05
6.73578e-05
6.73564e-05
6.73511e-05
2.38135e-05
2.38129e-05
0.000199857
0.000118719
0.000233181
0.000232351
0.000199839
0.000118733
0.000233184
0.000103121
4.22085e-05
0.000103116
4.22086e-05
0.000199854
0.000233181
0.000118705
0.00023235
0.000199838
0.000233183
0.000118721
0.000103122
4.22102e-05
4.22099e-05
0.000103127
0.000199844
0.000232352
0.000118734
0.000233184
0.000118719
0.000233184
0.000199858
0.000103118
4.22085e-05
4.22081e-05
0.000103122
0.000199841
0.000232351
0.000233184
0.000118722
0.000233184
0.000118705
0.000199854
0.000103113
4.22124e-05
0.000103106
4.22124e-05
0.000199853
0.000233181
0.000118732
0.000232351
0.000199838
0.000233184
0.000118748
0.000103113
4.22106e-05
0.000103105
4.22107e-05
0.000199842
0.000232353
0.000118745
0.000233185
0.000118727
0.000233185
0.000199854
0.000103108
4.22124e-05
4.22119e-05
0.000103113
0.000199841
0.000232352
0.000233184
0.000118748
0.000233184
0.000118733
0.000199854
0.000103107
4.22107e-05
4.22102e-05
0.000103113
6.73335e-05
6.73677e-05
0.00023092
6.73388e-05
6.73681e-05
2.38126e-05
2.38129e-05
2.3811e-05
2.38108e-05
0.000230909
6.73403e-05
6.73685e-05
6.73331e-05
6.73696e-05
2.38129e-05
2.38125e-05
0.000199854
0.000233181
0.000118722
0.000232351
0.000199837
0.000233183
0.000118738
0.000103122
4.22104e-05
0.000103117
4.22104e-05
0.000103122
4.22099e-05
0.000103116
4.221e-05
0.000199841
0.000232353
0.000233185
0.00011875
0.000233185
0.000118735
0.000199854
0.000199841
0.000232352
0.000233184
0.000118738
0.000233184
0.000118723
0.000199856
0.000103118
4.22104e-05
4.22099e-05
0.000103122
0.000103118
4.221e-05
4.22095e-05
0.000103122
2.38125e-05
2.38128e-05
2.38117e-05
2.38121e-05
0.000230909
6.73696e-05
6.73568e-05
6.73714e-05
6.73588e-05
2.38128e-05
2.38123e-05
2.38121e-05
2.38116e-05
2.38135e-05
2.38137e-05
2.38122e-05
2.38124e-05
6.73719e-05
6.73578e-05
0.000230919
6.737e-05
6.73561e-05
2.38137e-05
2.38132e-05
2.38124e-05
2.38118e-05
0.000230908
6.73698e-05
6.73562e-05
6.73712e-05
6.73573e-05
0.000103114
4.22126e-05
0.000103108
4.22131e-05
0.000199855
0.000118736
0.000233184
0.000232351
0.000199839
0.00011875
0.000233184
0.000199853
0.000118728
0.000233184
0.000232351
0.000199839
0.000118743
0.000233184
0.000103109
4.22138e-05
4.22136e-05
0.000103115
0.000103108
4.2213e-05
4.22127e-05
0.000103114
0.000199842
0.000232352
0.000118751
0.000233184
0.000118736
0.000233184
0.000199853
0.00019984
0.000232352
0.000118744
0.000233184
0.000118729
0.000233184
0.000199853
6.73566e-05
6.73517e-05
0.00023092
6.73564e-05
6.7356e-05
2.38133e-05
2.38134e-05
2.38126e-05
2.38123e-05
0.000230908
6.73569e-05
6.73582e-05
6.73568e-05
6.73499e-05
2.38135e-05
2.38129e-05
0.000199857
0.000118719
0.000233184
0.000232352
0.000199843
0.000118733
0.000233184
0.000103122
4.2208e-05
0.000103119
4.22086e-05
0.000199854
0.000233184
0.000118705
0.000232351
0.00019984
0.000233184
0.000118722
0.000103123
4.22102e-05
4.22099e-05
0.000103127
0.000199844
0.000232353
0.000118734
0.000233184
0.000118719
0.000233185
0.000199858
0.000103118
4.22085e-05
4.22081e-05
0.000103122
0.000199841
0.000232351
0.000233184
0.000118722
0.000233184
0.000118705
0.000199854
0.000103112
4.22119e-05
0.000103107
4.22125e-05
0.000199853
0.000233184
0.000118732
0.000232351
0.00019984
0.000233184
0.000118748
0.000103112
4.22103e-05
0.000103107
4.22107e-05
0.00019984
0.000232353
0.000118745
0.000233185
0.000118727
0.000233185
0.000199853
0.000103107
4.22124e-05
4.2212e-05
0.000103113
0.00019984
0.000232352
0.000233184
0.000118747
0.000233184
0.000118733
0.000199854
0.000103106
4.22107e-05
4.22102e-05
0.000103113
6.73363e-05
6.73697e-05
0.000230919
6.73386e-05
6.73685e-05
2.38128e-05
2.38129e-05
2.3811e-05
2.38108e-05
0.000230908
6.73405e-05
6.73685e-05
6.73327e-05
6.73697e-05
2.38129e-05
2.38123e-05
0.000199854
0.000233184
0.000118722
0.000232352
0.00019984
0.000233184
0.000118738
0.000103122
4.22101e-05
0.000103119
4.22105e-05
0.000103122
4.22096e-05
0.000103119
4.221e-05
0.00019984
0.000232353
0.000233185
0.00011875
0.000233185
0.000118735
0.000199854
0.00019984
0.000232353
0.000233184
0.000118738
0.000233184
0.000118723
0.000199855
0.000103118
4.22104e-05
4.221e-05
0.000103122
0.000103118
4.221e-05
4.22095e-05
0.000103122
2.38126e-05
2.38128e-05
2.38119e-05
2.38121e-05
0.000230909
6.73696e-05
6.73569e-05
6.73716e-05
6.7359e-05
2.38128e-05
2.38122e-05
2.38121e-05
2.38115e-05
2.38135e-05
2.38137e-05
2.38122e-05
2.38124e-05
6.73713e-05
6.73574e-05
0.000230919
6.73702e-05
6.7356e-05
2.38137e-05
2.38131e-05
2.38123e-05
2.38118e-05
0.000230908
6.73704e-05
6.73559e-05
6.73717e-05
6.73572e-05
0.000103114
4.22126e-05
0.000103108
4.22131e-05
0.000199855
0.000118736
0.000233184
0.000232352
0.000199839
0.00011875
0.000233184
0.000199853
0.000118728
0.000233184
0.000232352
0.000199839
0.000118743
0.000233184
0.000103109
4.22138e-05
4.22136e-05
0.000103115
0.000103108
4.2213e-05
4.22126e-05
0.000103114
0.000199842
0.000232352
0.000118751
0.000233184
0.000118736
0.000233184
0.000199853
0.000199839
0.000232352
0.000118744
0.000233184
0.000118729
0.000233184
0.000199854
6.73566e-05
6.73518e-05
0.00023092
6.73564e-05
6.7356e-05
2.38132e-05
2.38134e-05
2.38126e-05
2.38123e-05
0.000230909
6.73569e-05
6.73582e-05
6.73568e-05
6.735e-05
2.38135e-05
2.38129e-05
0.000199857
0.000118719
0.000233184
0.000232352
0.000199843
0.000118734
0.000233184
0.000103122
4.22081e-05
0.000103119
4.22086e-05
0.000199854
0.000233184
0.000118705
0.000232351
0.00019984
0.000233184
0.000118722
0.000103123
4.22102e-05
4.22099e-05
0.000103127
0.000199844
0.000232352
0.000118734
0.000233184
0.000118719
0.000233184
0.000199857
0.000103118
4.22085e-05
4.22081e-05
0.000103122
0.00019984
0.000232351
0.000233184
0.000118722
0.000233184
0.000118705
0.000199854
0.000103113
4.22119e-05
0.000103108
4.22125e-05
0.000199853
0.000233184
0.000118732
0.000232352
0.000199841
0.000233184
0.000118748
0.000103112
4.22103e-05
0.000103107
4.22107e-05
0.00019984
0.000232353
0.000118745
0.000233184
0.000118727
0.000233185
0.000199853
0.000103107
4.22124e-05
4.2212e-05
0.000103113
0.000199839
0.000232352
0.000233184
0.000118747
0.000233184
0.000118733
0.000199854
0.000103106
4.22107e-05
4.22102e-05
0.000103113
6.73363e-05
6.73697e-05
0.000230919
6.73386e-05
6.73685e-05
2.38128e-05
2.38129e-05
2.3811e-05
2.38108e-05
0.000230907
6.73405e-05
6.73686e-05
6.73326e-05
6.73698e-05
2.38129e-05
2.38123e-05
0.000199854
0.000233184
0.000118723
0.000232352
0.00019984
0.000233184
0.000118738
0.000103122
4.22101e-05
0.000103119
4.22105e-05
0.000103122
4.22096e-05
0.000103119
4.221e-05
0.00019984
0.000232353
0.000233184
0.00011875
0.000233185
0.000118735
0.000199854
0.00019984
0.000232352
0.000233184
0.000118738
0.000233184
0.000118723
0.000199855
0.000103118
4.22104e-05
4.221e-05
0.000103122
0.000103118
4.221e-05
4.22095e-05
0.000103122
2.38126e-05
2.38128e-05
2.38119e-05
2.38121e-05
0.000230909
6.73696e-05
6.73567e-05
6.73716e-05
6.73589e-05
2.38128e-05
2.38122e-05
2.38121e-05
2.38115e-05
2.38135e-05
2.38137e-05
2.38122e-05
2.38124e-05
6.73718e-05
6.73572e-05
0.000230919
6.73703e-05
6.7356e-05
2.38137e-05
2.38131e-05
2.38124e-05
2.38118e-05
0.000230908
6.737e-05
6.73562e-05
6.73715e-05
6.73573e-05
0.000103114
4.22127e-05
0.000103108
4.22131e-05
0.000199855
0.000118736
0.000233184
0.000232352
0.000199839
0.000118751
0.000233184
0.000199853
0.000118728
0.000233184
0.000232352
0.000199839
0.000118743
0.000233184
0.000103109
4.22138e-05
4.22136e-05
0.000103115
0.000103108
4.2213e-05
4.22126e-05
0.000103114
0.000199842
0.000232352
0.000118751
0.000233184
0.000118736
0.000233184
0.000199853
0.000199839
0.000232352
0.000118744
0.000233184
0.000118729
0.000233184
0.000199853
6.73566e-05
6.73518e-05
0.00023092
6.73564e-05
6.7356e-05
2.38132e-05
2.38134e-05
2.38126e-05
2.38123e-05
0.000230908
6.73569e-05
6.73582e-05
6.73568e-05
6.735e-05
2.38135e-05
2.38129e-05
0.000199857
0.000118719
0.000233184
0.000232352
0.000199843
0.000118734
0.000233184
0.000103122
4.22081e-05
0.000103119
4.22086e-05
0.000199854
0.000233184
0.000118705
0.000232351
0.00019984
0.000233184
0.000118722
0.000103123
4.22103e-05
4.221e-05
0.000103127
0.000199844
0.000232352
0.000118734
0.000233184
0.000118719
0.000233184
0.000199858
0.000103118
4.22085e-05
4.22081e-05
0.000103122
0.00019984
0.000232351
0.000233184
0.000118722
0.000233184
0.000118705
0.000199854
0.000103113
4.22119e-05
0.000103108
4.22125e-05
0.000199853
0.000233184
0.000118732
0.000232352
0.000199841
0.000233184
0.000118748
0.000103112
4.22103e-05
0.000103107
4.22107e-05
0.00019984
0.000232353
0.000118745
0.000233185
0.000118727
0.000233185
0.000199853
0.000103107
4.22124e-05
4.2212e-05
0.000103113
0.000199839
0.000232352
0.000233184
0.000118747
0.000233184
0.000118733
0.000199854
0.000103106
4.22107e-05
4.22102e-05
0.000103113
6.73363e-05
6.73697e-05
0.000230919
6.73386e-05
6.73685e-05
2.38128e-05
2.38129e-05
2.3811e-05
2.38108e-05
0.000230908
6.73405e-05
6.73686e-05
6.73327e-05
6.73698e-05
2.38129e-05
2.38123e-05
0.000199854
0.000233184
0.000118722
0.000232352
0.00019984
0.000233184
0.000118738
0.000103122
4.22101e-05
0.000103119
4.22105e-05
0.000103122
4.22096e-05
0.000103119
4.221e-05
0.00019984
0.000232353
0.000233184
0.00011875
0.000233185
0.000118735
0.000199854
0.000199839
0.000232353
0.000233184
0.000118738
0.000233184
0.000118723
0.000199855
0.000103118
4.22104e-05
4.221e-05
0.000103122
0.000103118
4.221e-05
4.22095e-05
0.000103122
2.38126e-05
2.38128e-05
2.38119e-05
2.38121e-05
0.000230909
6.73696e-05
6.73568e-05
6.73716e-05
6.7359e-05
2.38128e-05
2.38122e-05
2.38121e-05
2.38115e-05
2.38135e-05
2.38137e-05
2.38122e-05
2.38124e-05
6.73714e-05
6.73575e-05
0.000230919
6.73698e-05
6.7356e-05
2.38137e-05
2.38131e-05
2.38123e-05
2.38118e-05
0.000230908
6.73696e-05
6.73558e-05
6.73711e-05
6.73571e-05
0.000103114
4.22127e-05
0.000103108
4.22131e-05
0.000199855
0.000118736
0.000233184
0.000232352
0.000199839
0.00011875
0.000233184
0.000199853
0.000118728
0.000233184
0.000232352
0.000199839
0.000118744
0.000233184
0.000103109
4.22138e-05
4.22135e-05
0.000103115
0.000103108
4.22129e-05
4.22126e-05
0.000103114
0.000199842
0.000232352
0.000118751
0.000233184
0.000118736
0.000233184
0.000199853
0.000199839
0.000232352
0.000118744
0.000233184
0.000118729
0.000233184
0.000199853
6.73566e-05
6.73518e-05
0.00023092
6.73565e-05
6.7356e-05
2.38132e-05
2.38134e-05
2.38128e-05
2.38123e-05
0.000230909
6.73543e-05
6.73581e-05
6.7357e-05
6.735e-05
2.38135e-05
2.38129e-05
0.000199857
0.000118716
0.000233184
0.000232352
0.000199843
0.000118732
0.000233184
0.000103122
4.22081e-05
0.000103119
4.22086e-05
0.000199854
0.000233184
0.000118705
0.000232351
0.00019984
0.000233184
0.000118722
0.000103123
4.22103e-05
4.22099e-05
0.000103127
0.000199844
0.000232352
0.000118731
0.000233184
0.000118715
0.000233184
0.000199858
0.000103118
4.22085e-05
4.22081e-05