/*--------------------------------*- C++ -*----------------------------------*\
| =========                 |                                                 |
| \\      /  F ield         | OpenFOAM: The Open Source CFD Toolbox           |
|  \\    /   O peration     | Version:  2206                                  |
|   \\  /    A nd           | Website:  www.openfoam.com                      |
|    \\/     M anipulation  |                                                 |
\*---------------------------------------------------------------------------*/
FoamFile
{
    version     2.0;
    format      ascii;
    arch        "LSB;label=32;scalar=64";
    class       surfaceScalarField;
    location    "5.5";
    object      phi;
}
// * * * * * * * * * * * * * * * * * * * * * * * * * * * * * * * * * * * * * //

dimensions      [0 3 -1 0 0 0 0];

oriented        oriented;

internalField   nonuniform List<scalar> 
81717
(
2.18621e-10
2.62028e-10
-0.00106074
-4.53849e-10
-4.53838e-10
0.00106074
-0.00106142
-1.15719e-06
-2.62588e-10
1.2279e-09
0.00106142
-2.12654e-07
1.15836e-06
2.11832e-07
8.27231e-07
-1.9298e-07
-8.2779e-07
1.91584e-07
-0.00106109
-1.1519e-06
-2.62648e-10
1.21595e-09
0.00106109
-2.12645e-07
1.15306e-06
2.11837e-07
8.27066e-07
-1.95586e-07
-8.27666e-07
1.94226e-07
-0.000261039
1.18482e-06
1.15201e-06
-2.04489e-07
-2.09642e-07
0.000259117
3.93312e-10
4.31783e-10
-0.00106074
-4.97775e-10
-4.98067e-10
0.00106074
-0.00106142
-1.15719e-06
-4.43098e-10
1.14195e-09
0.00106142
-2.12649e-07
1.15845e-06
2.11991e-07
8.27439e-07
-1.93031e-07
-8.27668e-07
1.91846e-07
-0.00106109
-1.15191e-06
-4.34736e-10
1.13745e-09
0.00106109
-2.12642e-07
1.15315e-06
2.11997e-07
8.27268e-07
-1.95649e-07
-8.27548e-07
1.9448e-07
-0.00026104
1.18483e-06
1.15202e-06
-2.04484e-07
-2.0964e-07
0.000259117
5.57824e-10
5.95604e-10
-0.00106074
-5.86055e-10
-5.86031e-10
0.00106074
-0.00106142
-1.15715e-06
-6.06122e-10
1.07504e-09
0.00106142
-2.12604e-07
1.15848e-06
2.12024e-07
8.27479e-07
-1.92965e-07
-8.27621e-07
1.91893e-07
-0.00106109
-1.15187e-06
-6.01786e-10
1.06764e-09
0.00106109
-2.12596e-07
1.15318e-06
2.12029e-07
8.27309e-07
-1.95579e-07
-8.27499e-07
1.94529e-07
-0.00026104
1.18479e-06
1.15198e-06
-2.04438e-07
-2.09594e-07
0.000259117
5.75437e-10
6.11217e-10
-0.00106074
-5.95894e-10
-5.97795e-10
0.00106074
-0.00106142
-1.15715e-06
-6.20389e-10
1.06636e-09
0.00106142
-2.126e-07
1.15848e-06
2.12027e-07
8.27482e-07
-1.9296e-07
-8.27616e-07
1.91896e-07
-0.00106109
-1.15186e-06
-6.13061e-10
1.06068e-09
0.00106109
-2.12593e-07
1.15318e-06
2.12032e-07
8.27311e-07
-1.95576e-07
-8.27496e-07
1.94531e-07
-0.00026104
1.18479e-06
1.15198e-06
-2.04436e-07
-2.09592e-07
0.000259117
5.7272e-10
6.03235e-10
-0.00106074
-5.90208e-10
-5.97532e-10
0.00106074
-0.00106142
-1.15715e-06
-6.19324e-10
1.06561e-09
0.00106142
-2.126e-07
1.15848e-06
2.12027e-07
8.2748e-07
-1.92961e-07
-8.27618e-07
1.91895e-07
-0.00106109
-1.15186e-06
-6.08787e-10
1.0651e-09
0.00106109
-2.12594e-07
1.15318e-06
2.12031e-07
8.27309e-07
-1.95576e-07
-8.27496e-07
1.94529e-07
-0.00026104
1.18479e-06
1.15198e-06
-2.04436e-07
-2.09592e-07
0.000259117
5.78331e-10
5.81875e-10
-0.00106074
-5.74416e-10
-6.02907e-10
0.00106074
-0.00106142
-1.15714e-06
-6.18727e-10
1.04287e-09
0.00106142
-2.12592e-07
1.15849e-06
2.12034e-07
8.27476e-07
-1.92963e-07
-8.2762e-07
1.91892e-07
-0.00106109
-1.15187e-06
-5.96603e-10
1.07173e-09
0.00106109
-2.12596e-07
1.15318e-06
2.12028e-07
8.27307e-07
-1.9558e-07
-8.27499e-07
1.94526e-07
-0.00026104
1.18479e-06
1.15198e-06
-2.04437e-07
-2.09596e-07
0.000259117
5.90614e-10
5.66001e-10
-0.00106074
-5.56243e-10
-6.11066e-10
0.00106074
-0.00106142
-1.1571e-06
-6.3602e-10
9.82425e-10
0.00106142
-2.12548e-07
1.15852e-06
2.12072e-07
8.27471e-07
-1.92969e-07
-8.27625e-07
1.91885e-07
-0.00106109
-1.15187e-06
-5.87632e-10
1.07533e-09
0.00106109
-2.12598e-07
1.15318e-06
2.12027e-07
8.27306e-07
-1.95581e-07
-8.275e-07
1.94526e-07
-0.00026104
1.18479e-06
1.15198e-06
-2.04438e-07
-2.09598e-07
0.000259117
5.66724e-10
5.8415e-10
-0.00106074
-5.80494e-10
-5.99541e-10
0.00106074
-0.00106142
-1.15715e-06
-6.0519e-10
1.06768e-09
0.00106142
-2.12603e-07
1.15848e-06
2.12025e-07
8.27477e-07
-1.92967e-07
-8.27622e-07
1.9189e-07
-0.00106109
-1.15187e-06
-5.97003e-10
1.07509e-09
0.00106109
-2.12599e-07
1.15318e-06
2.12027e-07
8.27307e-07
-1.9558e-07
-8.275e-07
1.94527e-07
-0.00026104
1.18479e-06
1.15198e-06
-2.04441e-07
-2.09597e-07
0.000259117
5.79275e-10
5.95555e-10
-0.00106074
-5.8704e-10
-6.0869e-10
0.00106074
-0.00106142
-1.15715e-06
-6.13241e-10
1.06351e-09
0.00106142
-2.126e-07
1.15848e-06
2.12028e-07
8.2748e-07
-1.92964e-07
-8.27619e-07
1.91894e-07
-0.00106109
-1.15187e-06
-6.29905e-10
1.07116e-09
0.00106109
-2.12595e-07
1.15318e-06
2.12031e-07
8.27313e-07
-1.95574e-07
-8.27494e-07
1.94533e-07
-0.00026104
1.18478e-06
1.15199e-06
-2.0444e-07
-2.09591e-07
0.000259117
5.82828e-10
5.97095e-10
-0.00106074
-5.86957e-10
-6.10143e-10
0.00106074
-0.00106142
-1.15715e-06
-6.17982e-10
1.05945e-09
0.00106142
-2.12599e-07
1.15848e-06
2.12029e-07
8.27481e-07
-1.92962e-07
-8.27617e-07
1.91895e-07
-0.00106109
-1.15186e-06
-6.38798e-10
1.06883e-09
0.00106109
-2.12594e-07
1.15318e-06
2.12031e-07
8.27315e-07
-1.95572e-07
-8.27492e-07
1.94535e-07
-0.00026104
1.18478e-06
1.15198e-06
-2.04439e-07
-2.09588e-07
0.000259117
5.90648e-10
6.05151e-10
-0.00106074
-5.90626e-10
-6.14793e-10
0.00106074
-0.00106142
-1.15715e-06
-6.24779e-10
1.05438e-09
0.00106142
-2.12596e-07
1.15849e-06
2.12031e-07
8.27483e-07
-1.92959e-07
-8.27615e-07
1.91897e-07
-0.00106109
-1.15186e-06
-6.44008e-10
1.06582e-09
0.00106109
-2.12593e-07
1.15319e-06
2.12033e-07
8.27316e-07
-1.9557e-07
-8.2749e-07
1.94536e-07
-0.00026104
1.18478e-06
1.15198e-06
-2.04438e-07
-2.09586e-07
0.000259117
5.94744e-10
6.06871e-10
-0.00106074
-5.92596e-10
-6.1734e-10
0.00106074
-0.00106142
-1.15715e-06
-6.23615e-10
1.05541e-09
0.00106142
-2.12597e-07
1.15848e-06
2.1203e-07
8.27483e-07
-1.92959e-07
-8.27615e-07
1.91896e-07
-0.00106109
-1.15186e-06
-6.4413e-10
1.06764e-09
0.00106109
-2.12593e-07
1.15319e-06
2.12032e-07
8.27316e-07
-1.95569e-07
-8.27489e-07
1.94537e-07
-0.00026104
1.18478e-06
1.15198e-06
-2.04438e-07
-2.09586e-07
0.000259117
5.85407e-10
5.98687e-10
-0.00106074
-5.87208e-10
-6.11131e-10
0.00106074
-0.00106142
-1.15715e-06
-6.19933e-10
1.05814e-09
0.00106142
-2.12597e-07
1.15848e-06
2.12029e-07
8.27481e-07
-1.92961e-07
-8.27617e-07
1.91895e-07
-0.00106109
-1.15186e-06
-6.4276e-10
1.06799e-09
0.00106109
-2.12593e-07
1.15318e-06
2.12032e-07
8.27314e-07
-1.95571e-07
-8.2749e-07
1.94535e-07
-0.00026104
1.18478e-06
1.15198e-06
-2.04438e-07
-2.09587e-07
0.000259117
5.82052e-10
5.95853e-10
-0.00106074
-5.86294e-10
-6.09383e-10
0.00106074
-0.00106142
-1.15715e-06
-6.17524e-10
1.06133e-09
0.00106142
-2.12599e-07
1.15848e-06
2.12028e-07
8.2748e-07
-1.92962e-07
-8.27617e-07
1.91894e-07
-0.00106109
-1.15186e-06
-6.41634e-10
1.07012e-09
0.00106109
-2.12594e-07
1.15318e-06
2.12031e-07
8.27314e-07
-1.95571e-07
-8.27491e-07
1.94535e-07
-0.00026104
1.18478e-06
1.15198e-06
-2.04438e-07
-2.09588e-07
0.000259117
5.73364e-10
5.89766e-10
-0.00106074
-5.84272e-10
-6.06097e-10
0.00106074
-0.00106142
-1.15715e-06
-6.05342e-10
1.06811e-09
0.00106142
-2.12602e-07
1.15848e-06
2.12025e-07
8.27478e-07
-1.92964e-07
-8.2762e-07
1.91892e-07
-0.00106109
-1.15187e-06
-6.29007e-10
1.07609e-09
0.00106109
-2.12598e-07
1.15318e-06
2.12028e-07
8.27312e-07
-1.95574e-07
-8.27494e-07
1.94532e-07
-0.00026104
1.18478e-06
1.15199e-06
-2.04442e-07
-2.0959e-07
0.000259117
5.71014e-10
5.97263e-10
-0.00106074
-5.86305e-10
-5.98952e-10
0.00106074
-0.00106142
-1.15715e-06
-6.20094e-10
1.07267e-09
0.00106142
-2.12602e-07
1.15848e-06
2.12025e-07
8.27483e-07
-1.92961e-07
-8.27616e-07
1.91896e-07
-0.00106109
-1.15187e-06
-6.52039e-10
1.07374e-09
0.00106109
-2.12596e-07
1.15318e-06
2.12032e-07
8.27316e-07
-1.95572e-07
-8.2749e-07
1.9454e-07
-0.00026104
1.18478e-06
1.15199e-06
-2.04442e-07
-2.09587e-07
0.000259117
6.1177e-10
6.88393e-10
-0.00106074
-6.39154e-10
-6.06496e-10
0.00106074
-0.00106142
-1.15714e-06
-7.41238e-10
1.09369e-09
0.00106142
-2.12582e-07
1.15847e-06
2.12014e-07
8.27495e-07
-1.92912e-07
-8.27564e-07
1.91898e-07
-0.00106109
-1.15183e-06
-8.33242e-10
1.00252e-09
0.00106109
-2.12541e-07
1.1532e-06
2.12051e-07
8.27339e-07
-1.95484e-07
-8.27422e-07
1.94559e-07
-0.00026104
1.18473e-06
1.15194e-06
-2.04395e-07
-2.09538e-07
0.000259117
-1.19131e-06
-1.15589e-06
0.000261055
-0.000259122
2.03333e-07
2.10933e-07
0.00106066
-8.79543e-10
-0.00106066
9.6178e-10
-1.18987e-06
2.17354e-07
-2.17677e-07
-8.27418e-07
1.92025e-07
-1.92458e-07
8.2732e-07
1.19664e-06
0.00106108
-8.60498e-10
-0.00106108
9.66956e-10
-1.19519e-06
2.20098e-07
-2.20416e-07
-8.32898e-07
1.94764e-07
-1.95221e-07
8.32779e-07
-1.15848e-06
0.000261083
-0.000259142
2.06024e-07
2.08299e-07
0.00106168
-9.09281e-10
-0.00106168
9.2168e-10
-1.15444e-06
2.14817e-07
-2.15112e-07
-8.3013e-07
1.94786e-07
-1.95223e-07
8.30063e-07
1.19136e-06
0.00106077
-8.59542e-10
-0.00106077
9.57217e-10
-1.18992e-06
2.20077e-07
-2.20393e-07
-8.30089e-07
1.94734e-07
-1.9518e-07
8.29978e-07
-9.10693e-10
-0.00106142
9.33426e-10
-1.15702e-06
2.12072e-07
-2.12378e-07
-8.27468e-07
1.92091e-07
8.27383e-07
-1.9252e-07
1.18608e-06
0.00106057
-8.61821e-10
-0.00106057
9.60841e-10
-1.18465e-06
2.14652e-07
-2.14954e-07
-8.27462e-07
1.92017e-07
-1.92463e-07
8.27336e-07
-1.15318e-06
0.000261034
-0.000259104
2.035e-07
2.10758e-07
-9.12541e-10
-0.00106109
9.19813e-10
-1.15173e-06
2.12081e-07
-2.12368e-07
-8.27301e-07
1.94713e-07
8.27264e-07
-1.95148e-07
1.15329e-06
0.00106159
-9.07428e-10
-0.00106159
9.18101e-10
-1.15184e-06
2.12136e-07
-2.12422e-07
-8.27561e-07
1.94774e-07
-1.95202e-07
8.27493e-07
-0.000259117
2.05802e-07
2.10963e-07
1.19004e-06
1.15461e-06
-2.02026e-07
-2.09615e-07
0.000259122
-1.19126e-06
-1.15584e-06
0.000261056
-0.000259122
2.03207e-07
2.10806e-07
1.25348e-09
0.00106066
-2.17958e-07
1.19119e-06
2.1711e-07
8.27171e-07
-1.92911e-07
-8.27741e-07
1.91521e-07
-1.19536e-06
-2.20506e-10
1.2597e-09
0.00106108
-2.20695e-07
1.19652e-06
2.19853e-07
8.3264e-07
-1.95673e-07
-8.33208e-07
1.94262e-07
0.00106066
-2.77104e-10
-0.00106066
1.23623e-09
-1.19007e-06
2.17237e-07
-2.18006e-07
-8.27645e-07
1.91708e-07
-1.93075e-07
8.27348e-07
1.19659e-06
0.00106109
-2.61612e-10
-0.00106109
1.2355e-09
-1.1954e-06
2.1998e-07
-2.20744e-07
-8.33118e-07
1.94452e-07
-1.95833e-07
8.32811e-07
-2.04697e-07
-2.06977e-07
0.000259142
-1.15843e-06
0.000261084
-0.000259143
2.05899e-07
2.08171e-07
1.2201e-09
0.00106168
-2.15391e-07
1.15577e-06
2.14572e-07
8.29918e-07
-1.95673e-07
-8.3045e-07
1.94289e-07
-1.19009e-06
-2.18048e-10
1.25872e-09
0.00106077
-2.20673e-07
1.19124e-06
2.1983e-07
8.2983e-07
-1.95616e-07
-8.30403e-07
1.94238e-07
0.00106169
-3.08438e-10
-0.00106168
1.19305e-09
-1.15465e-06
2.14701e-07
-2.15439e-07
-8.30358e-07
1.94474e-07
-1.95835e-07
8.30088e-07
1.19131e-06
0.00106077
-2.58426e-10
-0.00106077
1.23562e-09
-1.19013e-06
2.19955e-07
-2.20725e-07
-8.30314e-07
1.94417e-07
-1.95788e-07
8.30007e-07
-2.13837e-10
1.2537e-09
0.00106057
-2.15229e-07
1.18597e-06
2.14408e-07
8.27194e-07
-1.92919e-07
1.91511e-07
-8.27773e-07
-3.10187e-10
-0.00106142
1.20222e-09
-1.15722e-06
2.11957e-07
-2.12703e-07
-8.27696e-07
1.91781e-07
8.27411e-07
-1.93134e-07
1.18603e-06
0.00106057
-2.60258e-10
-0.00106057
1.24214e-09
-1.18486e-06
2.14526e-07
-2.15289e-07
-8.27682e-07
1.91704e-07
-1.93078e-07
8.27368e-07
-2.02181e-07
-2.09442e-07
0.000259104
-1.15313e-06
0.000261035
-0.000259105
2.03371e-07
2.10627e-07
-2.66251e-10
1.21357e-09
0.00106159
-2.12697e-07
1.15317e-06
2.11893e-07
8.27337e-07
-1.95659e-07
1.94269e-07
-8.27883e-07
-3.00033e-10
-0.00106109
1.19561e-09
-1.15194e-06
2.11962e-07
-2.12696e-07
-8.2753e-07
1.94392e-07
8.27291e-07
-1.95773e-07
1.15323e-06
0.00106159
-2.8874e-10
-0.00106159
1.1957e-09
-1.15205e-06
2.12012e-07
-2.12754e-07
-8.27794e-07
1.94459e-07
-1.95819e-07
8.27517e-07
-0.000259117
2.0567e-07
2.10828e-07
1.19004e-06
1.15462e-06
-2.02013e-07
-2.09602e-07
0.000259123
-1.19131e-06
-1.15589e-06
0.000261056
-0.000259123
2.03271e-07
2.1087e-07
1.17546e-09
0.00106066
-2.17951e-07
1.19128e-06
2.17273e-07
8.27371e-07
-1.92979e-07
-8.27624e-07
1.91765e-07
-1.19537e-06
-3.96287e-10
1.17744e-09
0.00106109
-2.2069e-07
1.19661e-06
2.20015e-07
8.32839e-07
-1.95734e-07
-8.3309e-07
1.94513e-07
0.00106066
-5.66828e-10
-0.00106066
1.111e-09
-1.19001e-06
2.17305e-07
-2.17913e-07
-8.27573e-07
1.91824e-07
-1.92904e-07
8.27412e-07
1.19664e-06
0.00106109
-5.49308e-10
-0.00106109
1.11216e-09
-1.19533e-06
2.20049e-07
-2.20651e-07
-8.33047e-07
1.94563e-07
-1.95666e-07
8.32875e-07
-2.04687e-07
-2.06966e-07
0.000259143
-1.15848e-06
0.000261084
-0.000259143
2.05964e-07
2.08235e-07
1.13666e-09
0.00106169
-2.15385e-07
1.15586e-06
2.14735e-07
8.30118e-07
-1.95737e-07
-8.30334e-07
1.94535e-07
-1.1901e-06
-3.91196e-10
1.18238e-09
0.00106077
-2.20672e-07
1.19133e-06
2.1999e-07
8.30035e-07
-1.95688e-07
-8.30286e-07
1.94479e-07
0.00106169
-5.96605e-10
-0.00106169
1.06863e-09
-1.15458e-06
2.14768e-07
-2.15347e-07
-8.30285e-07
1.94589e-07
-1.95664e-07
8.30153e-07
1.19136e-06
0.00106077
-5.48647e-10
-0.00106077
1.10746e-09
-1.19006e-06
2.20025e-07
-2.20631e-07
-8.30242e-07
1.94531e-07
-1.95618e-07
8.30071e-07
-3.90284e-10
1.18377e-09
0.00106057
-2.15236e-07
1.18605e-06
2.14561e-07
8.27397e-07
-1.92976e-07
1.91769e-07
-8.27653e-07
-5.97378e-10
-0.00106142
1.08049e-09
-1.15716e-06
2.12025e-07
-2.1261e-07
-8.27626e-07
1.9189e-07
8.27475e-07
-1.9297e-07
1.18608e-06
0.00106057
-5.48107e-10
-0.00106057
1.11412e-09
-1.18479e-06
2.14597e-07
-2.1519e-07
-8.27612e-07
1.91815e-07
-1.92911e-07
8.27432e-07
-2.02172e-07
-2.09433e-07
0.000259105
-1.15318e-06
0.000261035
-0.000259105
2.03437e-07
2.10694e-07
-4.32689e-10
1.13913e-09
0.00106159
-2.12702e-07
1.15325e-06
2.12046e-07
8.27546e-07
-1.95716e-07
1.94526e-07
-8.27764e-07
-5.94429e-10
-0.00106109
1.06951e-09
-1.15187e-06
2.12032e-07
-2.12602e-07
-8.27458e-07
1.94506e-07
8.27356e-07
-1.95603e-07
1.15329e-06
0.00106159
-5.86439e-10
-0.00106159
1.0693e-09
-1.15198e-06
2.12082e-07
-2.12656e-07
-8.27722e-07
1.94571e-07
-1.9565e-07
8.27581e-07
-0.000259117
2.05737e-07
2.10896e-07
1.19e-06
1.15458e-06
-2.01968e-07
-2.09556e-07
0.000259123
-1.19132e-06
-1.1559e-06
0.000261056
-0.000259123
2.03276e-07
2.10875e-07
1.10599e-09
0.00106066
-2.17906e-07
1.19131e-06
2.17306e-07
8.27409e-07
-1.92909e-07
-8.27578e-07
1.91813e-07
-1.19533e-06
-5.59085e-10
1.10987e-09
0.00106109
-2.20645e-07
1.19664e-06
2.20048e-07
8.32879e-07
-1.95667e-07
-8.33043e-07
1.9456e-07
0.00106066
-5.94775e-10
-0.00106066
1.09825e-09
-1.19e-06
2.17311e-07
-2.17907e-07
-8.27565e-07
1.9183e-07
-1.92896e-07
8.27418e-07
1.19665e-06
0.00106109
-5.77049e-10
-0.00106109
1.10135e-09
-1.19533e-06
2.20054e-07
-2.20645e-07
-8.3304e-07
1.94569e-07
-1.95658e-07
8.32881e-07
-2.04641e-07
-2.0692e-07
0.000259143
-1.15849e-06
0.000261084
-0.000259143
2.05968e-07
2.0824e-07
1.068e-09
0.00106169
-2.1534e-07
1.15589e-06
2.14767e-07
8.30157e-07
-1.95666e-07
-8.30286e-07
1.94583e-07
-1.19006e-06
-5.55343e-10
1.1122e-09
0.00106077
-2.20625e-07
1.19136e-06
2.20024e-07
8.30073e-07
-1.95619e-07
-8.30239e-07
1.94526e-07
0.00106169
-6.22571e-10
-0.00106169
1.05451e-09
-1.15458e-06
2.14774e-07
-2.1534e-07
-8.30278e-07
1.94595e-07
-1.95657e-07
8.30159e-07
1.19136e-06
0.00106077
-5.73537e-10
-0.00106077
1.09834e-09
-1.19006e-06
2.2003e-07
-2.20625e-07
-8.30235e-07
1.94536e-07
-1.95612e-07
8.30076e-07
-5.55285e-10
1.11433e-09
0.00106057
-2.15191e-07
1.18608e-06
2.14592e-07
8.27437e-07
-1.92908e-07
1.91816e-07
-8.27605e-07
-6.21336e-10
-0.00106142
1.06695e-09
-1.15715e-06
2.1203e-07
-2.12605e-07
-8.27619e-07
1.91896e-07
8.2748e-07
-1.92963e-07
1.18609e-06
0.00106057
-5.70256e-10
-0.00106057
1.10763e-09
-1.18478e-06
2.146e-07
-2.15185e-07
-8.27606e-07
1.9182e-07
-1.92905e-07
8.27437e-07
-2.02125e-07
-2.09385e-07
0.000259105
-1.15319e-06
0.000261035
-0.000259105
2.03441e-07
2.10698e-07
-5.95315e-10
1.07077e-09
0.00106159
-2.12657e-07
1.15328e-06
2.12077e-07
8.27585e-07
-1.95647e-07
1.94573e-07
-8.27716e-07
-6.16239e-10
-0.00106109
1.0573e-09
-1.15187e-06
2.12036e-07
-2.12597e-07
-8.27452e-07
1.94511e-07
8.27361e-07
-1.95597e-07
1.15329e-06
0.00106159
-6.06867e-10
-0.00106159
1.06129e-09
-1.15198e-06
2.12086e-07
-2.12651e-07
-8.27716e-07
1.94575e-07
-1.95645e-07
8.27584e-07
-0.000259117
2.0574e-07
2.10899e-07
1.19e-06
1.15458e-06
-2.01963e-07
-2.09553e-07
0.000259123
-1.19131e-06
-1.1559e-06
0.000261056
-0.000259123
2.03276e-07
2.10874e-07
1.09858e-09
0.00106066
-2.17901e-07
1.19131e-06
2.1731e-07
8.27414e-07
-1.92904e-07
-8.27573e-07
1.91817e-07
-1.19533e-06
-5.76134e-10
1.10271e-09
0.00106109
-2.20641e-07
1.19664e-06
2.20051e-07
8.32882e-07
-1.95662e-07
-8.33038e-07
1.94564e-07
0.00106066
-5.9672e-10
-0.00106066
1.10207e-09
-1.19e-06
2.1731e-07
-2.17908e-07
-8.27565e-07
1.91829e-07
-1.92896e-07
8.27418e-07
1.19665e-06
0.00106109
-5.7952e-10
-0.00106109
1.09923e-09
-1.19533e-06
2.20054e-07
-2.20644e-07
-8.3304e-07
1.94569e-07
-1.95658e-07
8.32882e-07
-2.04638e-07
-2.06916e-07
0.000259143
-1.15849e-06
0.000261084
-0.000259143
2.05968e-07
2.0824e-07
1.05905e-09
0.00106169
-2.15335e-07
1.15589e-06
2.14772e-07
8.30161e-07
-1.95662e-07
-8.30282e-07
1.94586e-07
-1.19005e-06
-5.70431e-10
1.1069e-09
0.00106077
-2.20621e-07
1.19136e-06
2.20027e-07
8.30076e-07
-1.95616e-07
-8.30235e-07
1.94529e-07
0.00106169
-6.20204e-10
-0.00106169
1.05453e-09
-1.15458e-06
2.14773e-07
-2.1534e-07
-8.30277e-07
1.94593e-07
-1.95657e-07
8.30158e-07
1.19136e-06
0.00106077
-5.73995e-10
-0.00106077
1.09944e-09
-1.19006e-06
2.20029e-07
-2.20625e-07
-8.30234e-07
1.94535e-07
-1.95611e-07
8.30076e-07
-5.67087e-10
1.1114e-09
0.00106057
-2.15189e-07
1.18608e-06
2.14593e-07
8.27439e-07
-1.92905e-07
1.91818e-07
-8.27602e-07
-6.2548e-10
-0.00106142
1.06472e-09
-1.15715e-06
2.1203e-07
-2.12604e-07
-8.27618e-07
1.91896e-07
8.27481e-07
-1.92962e-07
1.18609e-06
0.00106057
-5.77432e-10
-0.00106057
1.10703e-09
-1.18478e-06
2.146e-07
-2.15184e-07
-8.27604e-07
1.9182e-07
-1.92903e-07
8.27437e-07
-2.02123e-07
-2.09383e-07
0.000259105
-1.15319e-06
0.000261035
-0.000259105
2.0344e-07
2.10697e-07
-6.04159e-10
1.06602e-09
0.00106159
-2.12655e-07
1.15328e-06
2.12079e-07
8.27586e-07
-1.95645e-07
1.94574e-07
-8.27715e-07
-6.18018e-10
-0.00106109
1.05958e-09
-1.15186e-06
2.12035e-07
-2.12597e-07
-8.2745e-07
1.9451e-07
8.27361e-07
-1.95595e-07
1.15329e-06
0.00106159
-6.07536e-10
-0.00106159
1.05839e-09
-1.15197e-06
2.12086e-07
-2.1265e-07
-8.27715e-07
1.94574e-07
-1.95644e-07
8.27584e-07
-0.000259117
2.05741e-07
2.10898e-07
1.19e-06
1.15458e-06
-2.01964e-07
-2.09554e-07
0.000259123
-1.19131e-06
-1.15589e-06
0.000261056
-0.000259123
2.03275e-07
2.10868e-07
1.10654e-09
0.00106066
-2.17904e-07
1.19131e-06
2.17307e-07
8.27412e-07
-1.92905e-07
-8.27574e-07
1.91816e-07
-1.19533e-06
-5.7457e-10
1.10224e-09
0.00106109
-2.20641e-07
1.19664e-06
2.20051e-07
8.32881e-07
-1.95663e-07
-8.33039e-07
1.94563e-07
0.00106066
-5.95209e-10
-0.00106066
1.12332e-09
-1.19001e-06
2.17304e-07
-2.17913e-07
-8.27565e-07
1.91828e-07
-1.92896e-07
8.27417e-07
1.19664e-06
0.00106109
-5.85734e-10
-0.00106109
1.09296e-09
-1.19533e-06
2.20052e-07
-2.20645e-07
-8.33039e-07
1.94566e-07
-1.95655e-07
8.3288e-07
-2.04637e-07
-2.06917e-07
0.000259143
-1.15849e-06
0.000261084
-0.000259143
2.05968e-07
2.08236e-07
1.06128e-09
0.00106169
-2.15336e-07
1.15589e-06
2.1477e-07
8.30158e-07
-1.95663e-07
-8.30283e-07
1.94582e-07
-1.19005e-06
-5.65603e-10
1.11079e-09
0.00106077
-2.20622e-07
1.19136e-06
2.20025e-07
8.30075e-07
-1.95616e-07
-8.30236e-07
1.94527e-07
0.00106169
-5.99825e-10
-0.00106169
1.05415e-09
-1.15458e-06
2.14772e-07
-2.15341e-07
-8.30282e-07
1.94589e-07
-1.9566e-07
8.30154e-07
1.19136e-06
0.00106077
-5.59001e-10
-0.00106077
1.10964e-09
-1.19006e-06
2.20025e-07
-2.20628e-07
-8.30237e-07
1.94533e-07
-1.95614e-07
8.30073e-07
-5.6739e-10
1.11724e-09
0.00106057
-2.1519e-07
1.18608e-06
2.14592e-07
8.27438e-07
-1.92906e-07
1.91817e-07
-8.27602e-07
-6.19812e-10
-0.00106142
1.05418e-09
-1.15715e-06
2.12032e-07
-2.126e-07
-8.27622e-07
1.91893e-07
8.27476e-07
-1.92965e-07
1.18608e-06
0.00106057
-5.70227e-10
-0.00106057
1.1236e-09
-1.18479e-06
2.14595e-07
-2.15188e-07
-8.27605e-07
1.91818e-07
-1.92905e-07
8.27435e-07
-2.02123e-07
-2.09383e-07
0.000259105
-1.15318e-06
0.000261035
-0.000259105
2.03438e-07
2.10694e-07
-5.95774e-10
1.0673e-09
0.00106159
-2.12655e-07
1.15328e-06
2.12078e-07
8.27583e-07
-1.95647e-07
1.94571e-07
-8.27717e-07
-6.04687e-10
-0.00106109
1.06882e-09
-1.15187e-06
2.12033e-07
-2.12599e-07
-8.27454e-07
1.94507e-07
8.27357e-07
-1.95599e-07
1.15329e-06
0.00106159
-5.90726e-10
-0.00106159
1.05928e-09
-1.15198e-06
2.12084e-07
-2.12651e-07
-8.27718e-07
1.94571e-07
-1.95647e-07
8.2758e-07
-0.000259117
2.05739e-07
2.10895e-07
1.19001e-06
1.15458e-06
-2.01963e-07
-2.09559e-07
0.000259123
-1.1913e-06
-1.1559e-06
0.000261056
-0.000259123
2.03277e-07
2.10865e-07
1.12952e-09
0.00106066
-2.17909e-07
1.19131e-06
2.17301e-07
8.27414e-07
-1.92904e-07
-8.27572e-07
1.91817e-07
-1.19533e-06
-5.94461e-10
1.09158e-09
0.00106109
-2.20639e-07
1.19664e-06
2.2005e-07
8.32885e-07
-1.95654e-07
-8.33034e-07
1.94567e-07
0.00106066
-6.12937e-10
-0.00106066
1.15339e-09
-1.19001e-06
2.17299e-07
-2.17917e-07
-8.27559e-07
1.91832e-07
-1.92892e-07
8.27422e-07
1.19666e-06
0.00106109
-7.27906e-10
-0.00106109
1.00114e-09
-1.19531e-06
2.20085e-07
-2.20608e-07
-8.32993e-07
1.94629e-07
-1.95587e-07
8.3292e-07
-2.04627e-07
-2.06918e-07
0.000259143
-1.15853e-06
0.000261084
-0.000259143
2.06035e-07
2.08241e-07
1.05578e-09
0.00106169
-2.15336e-07
1.15589e-06
2.14771e-07
8.30153e-07
-1.95667e-07
-8.30287e-07
1.94577e-07
-1.19006e-06
-5.5404e-10
1.1209e-09
0.00106077
-2.20626e-07
1.19136e-06
2.20021e-07
8.30073e-07
-1.95619e-07
-8.30238e-07
1.94525e-07
0.00106169
-5.84431e-10
-0.00106169
1.04435e-09
-1.15457e-06
2.14774e-07
-2.15338e-07
-8.30284e-07
1.94587e-07
-1.95662e-07
8.30152e-07
1.19136e-06
0.00106077
-5.53616e-10
-0.00106077
1.114e-09
-1.19006e-06
2.20024e-07
-2.2063e-07
-8.30239e-07
1.94532e-07
-1.95615e-07
8.30072e-07
-5.62166e-10
1.13702e-09
0.00106057
-2.15195e-07
1.18608e-06
2.14587e-07
8.27438e-07
-1.92906e-07
1.91817e-07
-8.27603e-07
-6.39356e-10
-0.00106142
9.75952e-10
-1.15711e-06
2.12078e-07
-2.12553e-07
-8.27625e-07
1.91887e-07
8.2747e-07
-1.92967e-07
1.18608e-06
0.00106057
-5.71774e-10
-0.00106057
1.1435e-09
-1.18479e-06
2.14592e-07
-2.15192e-07
-8.27605e-07
1.91818e-07
-1.92905e-07
8.27435e-07
-2.02125e-07
-2.09386e-07
0.000259105
-1.15318e-06
0.000261035
-0.000259105
2.03437e-07
2.10693e-07
-5.79629e-10
1.06779e-09
0.00106159
-2.12657e-07
1.15328e-06
2.12077e-07
8.27582e-07
-1.9565e-07
1.94569e-07
-8.27719e-07
-5.97188e-10
-0.00106109
1.07166e-09
-1.15187e-06
2.12031e-07
-2.126e-07
-8.27455e-07
1.94506e-07
8.27356e-07
-1.956e-07
1.15329e-06
0.00106159
-5.7661e-10
-0.00106159
1.05654e-09
-1.15198e-06
2.12084e-07
-2.12651e-07
-8.2772e-07
1.94569e-07
-1.9565e-07
8.27578e-07
-0.000259117
2.05739e-07
2.10892e-07
1.19001e-06
1.15457e-06
-2.01963e-07
-2.09561e-07
0.000259123
-1.19131e-06
-1.15589e-06
0.000261056
-0.000259123
2.03273e-07
2.10869e-07
1.15504e-09
0.00106066
-2.17913e-07
1.1913e-06
2.17298e-07
8.27416e-07
-1.92901e-07
-8.27569e-07
1.91819e-07
-1.19531e-06
-6.91263e-10
1.01402e-09
0.00106109
-2.20609e-07
1.19665e-06
2.20074e-07
8.32915e-07
-1.9561e-07
-8.32998e-07
1.94595e-07
0.00106066
-5.90859e-10
-0.00106066
1.11941e-09
-1.19001e-06
2.17304e-07
-2.17914e-07
-8.27568e-07
1.91828e-07
-1.92898e-07
8.27415e-07
1.19664e-06
0.00106109
-5.70541e-10
-0.00106109
1.09572e-09
-1.19533e-06
2.20049e-07
-2.20649e-07
-8.33041e-07
1.94569e-07
-1.95654e-07
8.32878e-07
-2.04562e-07
-2.06915e-07
0.000259143
-1.15849e-06
0.000261084
-0.000259143
2.05969e-07
2.08237e-07
1.04986e-09
0.00106169
-2.15336e-07
1.15589e-06
2.14771e-07
8.30151e-07
-1.95669e-07
-8.30289e-07
1.94575e-07
-1.19006e-06
-5.49275e-10
1.12434e-09
0.00106077
-2.20627e-07
1.19136e-06
2.20022e-07
8.30072e-07
-1.9562e-07
-8.3024e-07
1.94525e-07
0.00106169
-5.96572e-10
-0.00106169
1.05643e-09
-1.15458e-06
2.14771e-07
-2.15343e-07
-8.30285e-07
1.94589e-07
-1.95663e-07
8.30153e-07
1.19136e-06
0.00106077
-5.52798e-10
-0.00106077
1.11355e-09
-1.19006e-06
2.20024e-07
-2.2063e-07
-8.30241e-07
1.94531e-07
-1.95617e-07
8.3007e-07
-5.63571e-10
1.15197e-09
0.00106057
-2.15197e-07
1.18607e-06
2.14586e-07
8.27437e-07
-1.92907e-07
1.91816e-07
-8.27603e-07
-6.09901e-10
-0.00106142
1.06395e-09
-1.15715e-06
2.12029e-07
-2.12603e-07
-8.27624e-07
1.91891e-07
8.27477e-07
-1.9297e-07
1.18608e-06
0.00106057
-5.55775e-10
-0.00106057
1.12526e-09
-1.18479e-06
2.14595e-07
-2.1519e-07
-8.27609e-07
1.91815e-07
-1.92909e-07
8.27433e-07
-2.02127e-07
-2.09387e-07
0.000259105
-1.15318e-06
0.000261035
-0.000259105
2.03435e-07
2.10693e-07
-5.66509e-10
1.06596e-09
0.00106159
-2.12657e-07
1.15328e-06
2.12077e-07
8.2758e-07
-1.95652e-07
1.94568e-07
-8.27721e-07
-5.97616e-10
-0.00106109
1.07424e-09
-1.15187e-06
2.1203e-07
-2.12602e-07
-8.27456e-07
1.94506e-07
8.27356e-07
-1.95601e-07
1.15328e-06
0.00106159
-5.66469e-10
-0.00106159
1.05949e-09
-1.15198e-06
2.12082e-07
-2.12655e-07
-8.27723e-07
1.94567e-07
-1.95653e-07
8.27576e-07
-0.000259117
2.05737e-07
2.10894e-07
1.19001e-06
1.15458e-06
-2.01967e-07
-2.09559e-07
0.000259123
-1.19131e-06
-1.15589e-06
0.000261056
-0.000259123
2.03274e-07
2.10873e-07
1.11848e-09
0.00106066
-2.17908e-07
1.19131e-06
2.17304e-07
8.2741e-07
-1.92908e-07
-8.27577e-07
1.91814e-07
-1.19533e-06
-5.55504e-10
1.10046e-09
0.00106109
-2.20647e-07
1.19664e-06
2.20046e-07
8.32877e-07
-1.95666e-07
-8.33045e-07
1.94561e-07
0.00106066
-5.97801e-10
-0.00106066
1.11143e-09
-1.19001e-06
2.17308e-07
-2.1791e-07
-8.27566e-07
1.91829e-07
-1.92897e-07
8.27417e-07
1.19664e-06
0.00106109
-5.30816e-10
-0.00106109
1.0959e-09
-1.19533e-06
2.2005e-07
-2.20649e-07
-8.33047e-07
1.94562e-07
-1.95666e-07
8.32874e-07
-2.04638e-07
-2.0692e-07
0.000259143
-1.15849e-06
0.000261084
-0.000259143
2.05967e-07
2.08237e-07
1.06511e-09
0.00106169
-2.1534e-07
1.15589e-06
2.14768e-07
8.30154e-07
-1.95669e-07
-8.30288e-07
1.94577e-07
-1.19006e-06
-5.5062e-10
1.12189e-09
0.00106077
-2.20627e-07
1.19136e-06
2.20022e-07
8.30071e-07
-1.95621e-07
-8.30241e-07
1.94524e-07
0.00106169
-6.10329e-10
-0.00106169
1.06215e-09
-1.15458e-06
2.14771e-07
-2.15343e-07
-8.30281e-07
1.94593e-07
-1.95659e-07
8.30157e-07
1.19136e-06
0.00106077
-5.63263e-10
-0.00106077
1.10859e-09
-1.19006e-06
2.20026e-07
-2.20629e-07
-8.30238e-07
1.94535e-07
-1.95613e-07
8.30074e-07
-5.48173e-10
1.12726e-09
0.00106057
-2.15193e-07
1.18608e-06
2.1459e-07
8.27435e-07
-1.9291e-07
1.91813e-07
-8.27607e-07
-6.13277e-10
-0.00106142
1.06477e-09
-1.15715e-06
2.1203e-07
-2.12605e-07
-8.27622e-07
1.91893e-07
8.27478e-07
-1.92967e-07
1.18609e-06
0.00106057
-5.68841e-10
-0.00106057
1.10782e-09
-1.18478e-06
2.14605e-07
-2.15181e-07
-8.27612e-07
1.91813e-07
-1.92912e-07
8.27431e-07
-2.02128e-07
-2.09387e-07
0.000259105
-1.15319e-06
0.000261035
-0.000259105
2.0344e-07
2.10695e-07
-5.50374e-10
1.06169e-09
0.00106159
-2.1266e-07
1.15328e-06
2.12074e-07
8.27577e-07
-1.95656e-07
1.94564e-07
-8.27725e-07
-6.31992e-10
-0.00106109
1.06722e-09
-1.15187e-06
2.12035e-07
-2.12598e-07
-8.27451e-07
1.94512e-07
8.27363e-07
-1.95596e-07
1.15328e-06
0.00106159
-4.90378e-10
-0.00106159
1.03897e-09
-1.15198e-06
2.1208e-07
-2.12656e-07
-8.27733e-07
1.94556e-07
-1.95664e-07
8.27567e-07
-0.000259117
2.05737e-07
2.109e-07
1.19e-06
1.15458e-06
-2.01967e-07
-2.09555e-07
0.000259123
-1.19131e-06
-1.15589e-06
0.000261056
-0.000259123
2.03273e-07
2.10873e-07
1.11128e-09
0.00106066
-2.17905e-07
1.19131e-06
2.17307e-07
8.27413e-07
-1.92905e-07
-8.27575e-07
1.91817e-07
-1.19533e-06
-5.24042e-10
1.09766e-09
0.00106109
-2.20646e-07
1.19664e-06
2.20047e-07
8.32875e-07
-1.95671e-07
-8.33047e-07
1.94556e-07
0.00106066
-6.00434e-10
-0.00106066
1.1103e-09
-1.19e-06
2.17309e-07
-2.1791e-07
-8.27566e-07
1.9183e-07
-1.92897e-07
8.27417e-07
1.19664e-06
0.00106109
-5.22113e-10
-0.00106109
1.09128e-09
-1.19533e-06
2.2005e-07
-2.20648e-07
-8.33049e-07
1.9456e-07
-1.95667e-07
8.32873e-07
-2.04639e-07
-2.0692e-07
0.000259143
-1.15849e-06
0.000261084
-0.000259143
2.05967e-07
2.08238e-07
1.06851e-09
0.00106169
-2.15339e-07
1.15589e-06
2.14768e-07
8.30157e-07
-1.95665e-07
-8.30285e-07
1.94581e-07
-1.19006e-06
-5.5923e-10
1.11785e-09
0.00106077
-2.20627e-07
1.19136e-06
2.20022e-07
8.30075e-07
-1.95617e-07
-8.30238e-07
1.94528e-07
0.00106169
-6.09648e-10
-0.00106169
1.06573e-09
-1.15458e-06
2.1477e-07
-2.15344e-07
-8.30281e-07
1.94592e-07
-1.95659e-07
8.30157e-07
1.19136e-06
0.00106077
-5.63379e-10
-0.00106077
1.10446e-09
-1.19006e-06
2.20026e-07
-2.20629e-07
-8.30237e-07
1.94535e-07
-1.95613e-07
8.30075e-07
-5.6854e-10
1.11117e-09
0.00106057
-2.15184e-07
1.18609e-06
2.146e-07
8.27434e-07
-1.92912e-07
1.91812e-07
-8.27608e-07
-6.19787e-10
-0.00106142
1.06106e-09
-1.15715e-06
2.12031e-07
-2.12603e-07
-8.2762e-07
1.91895e-07
8.2748e-07
-1.92964e-07
1.18609e-06
0.00106057
-5.81194e-10
-0.00106057
1.09835e-09
-1.18478e-06
2.14609e-07
-2.15177e-07
-8.27609e-07
1.91815e-07
-1.92909e-07
8.27433e-07
-2.02124e-07
-2.09386e-07
0.000259105
-1.15319e-06
0.000261035
-0.000259105
2.0344e-07
2.10695e-07
-4.813e-10
1.04517e-09
0.00106159
-2.12661e-07
1.15328e-06
2.12074e-07
8.27568e-07
-1.95666e-07
1.94554e-07
-8.27734e-07
-6.44587e-10
-0.00106109
1.06741e-09
-1.15187e-06
2.12035e-07
-2.12597e-07
-8.27447e-07
1.94515e-07
8.27365e-07
-1.95592e-07
1.15328e-06
0.00106159
-4.92816e-10
-0.00106159
1.03579e-09
-1.15198e-06
2.12082e-07
-2.12655e-07
-8.27733e-07
1.94556e-07
-1.95664e-07
8.27567e-07
-0.000259117
2.05738e-07
2.10903e-07
1.19e-06
1.15458e-06
-2.01967e-07
-2.09555e-07
0.000259123
-1.19132e-06
-1.15589e-06
0.000261056
-0.000259123
2.03274e-07
2.10874e-07
1.10868e-09
0.00106066
-2.17904e-07
1.19131e-06
2.17307e-07
8.27413e-07
-1.92904e-07
-8.27574e-07
1.91817e-07
-1.19533e-06
-5.21149e-10
1.09286e-09
0.00106109
-2.20645e-07
1.19664e-06
2.20048e-07
8.32874e-07
-1.95671e-07