/*--------------------------------*- C++ -*----------------------------------*\
| =========                 |                                                 |
| \\      /  F ield         | OpenFOAM: The Open Source CFD Toolbox           |
|  \\    /   O peration     | Version:  2206                                  |
|   \\  /    A nd           | Website:  www.openfoam.com                      |
|    \\/     M anipulation  |                                                 |
\*---------------------------------------------------------------------------*/
FoamFile
{
    version     2.0;
    format      ascii;
    arch        "LSB;label=32;scalar=64";
    class       volScalarField;
    location    "20";
    object      nut;
}
// * * * * * * * * * * * * * * * * * * * * * * * * * * * * * * * * * * * * * //

dimensions      [0 2 -1 0 0 0 0];

internalField   nonuniform List<scalar> 
28515
(
0.000240158
0.000227611
0.00022761
0.000215302
0.000230733
0.00021822
0.000218216
0.000203337
0.0002307
0.000218269
0.000218264
0.000203425
0.000230701
0.000218271
0.000218267
0.000203429
0.000230701
0.000218271
0.000218267
0.000203429
0.000230701
0.000218271
0.000218268
0.000203429
0.000230701
0.000218271
0.000218268
0.000203429
0.000230701
0.000218271
0.000218267
0.000203429
0.000230701
0.000218271
0.000218267
0.000203429
0.000230701
0.000218272
0.000218267
0.000203429
0.000230701
0.000218272
0.000218267
0.000203429
0.0002307
0.000218271
0.000218267
0.000203429
0.000215657
0.000223881
0.000223882
0.000215655
0.000223881
0.000223882
0.000224374
0.000224371
0.000224372
0.000224372
0.00022388
0.000223879
0.000215654
0.000223879
0.000223879
0.000215649
0.0002153
0.000202977
0.000227608
0.000227607
0.00021843
0.000218431
0.000215301
0.00020298
0.000227609
0.000227605
0.000218436
0.000218427
0.000227607
0.000218439
0.00021843
0.000215299
0.000202975
0.000227607
0.000218435
0.000218435
0.000202974
0.000203337
0.000202964
0.000218211
0.000218211
0.000218257
0.000218258
0.00020334
0.000202966
0.000218216
0.000218207
0.000218263
0.000218253
0.00021821
0.000218265
0.000218256
0.000203335
0.000202962
0.000218215
0.000218261
0.000218262
0.000202961
0.000203424
0.000202969
0.000218259
0.000218259
0.000218262
0.000218262
0.000203427
0.000202973
0.000218265
0.000218255
0.000218268
0.000218259
0.000218257
0.000218271
0.000218261
0.000203422
0.000202968
0.000218264
0.000218266
0.000218267
0.000202966
0.000203428
0.00020297
0.000218262
0.000218262
0.000218263
0.000218262
0.000203431
0.000202973
0.000218268
0.000218258
0.000218269
0.000218259
0.00021826
0.000218271
0.000218261
0.000203426
0.000202968
0.000218266
0.000218266
0.000218268
0.000202967
0.000203428
0.00020297
0.000218262
0.000218263
0.000218262
0.000218263
0.000203432
0.000202973
0.000218268
0.000218258
0.000218269
0.000218259
0.00021826
0.000218271
0.000218262
0.000203426
0.000202968
0.000218266
0.000218267
0.000218267
0.000202967
0.000203428
0.00020297
0.000218261
0.000218263
0.000218262
0.000218263
0.000203432
0.000202973
0.000218269
0.000218258
0.000218269
0.000218259
0.00021826
0.000218271
0.000218262
0.000203427
0.000202968
0.000218266
0.000218267
0.000218267
0.000202967
0.000203428
0.00020297
0.000218261
0.000218263
0.000218262
0.000218264
0.000203432
0.000202973
0.000218268
0.000218258
0.000218269
0.00021826
0.00021826
0.000218271
0.000218262
0.000203427
0.000202969
0.000218266
0.000218267
0.000218267
0.000202967
0.000203428
0.00020297
0.000218262
0.000218263
0.000218262
0.000218263
0.000203432
0.000202973
0.000218268
0.000218259
0.000218269
0.000218259
0.000218261
0.000218271
0.000218262
0.000203427
0.000202969
0.000218266
0.000218267
0.000218267
0.000202967
0.000203428
0.00020297
0.000218262
0.000218263
0.000218262
0.000218264
0.000203432
0.000202973
0.000218268
0.000218259
0.000218269
0.000218259
0.00021826
0.000218271
0.000218262
0.000203427
0.000202968
0.000218266
0.000218267
0.000218267
0.000202967
0.000203428
0.00020297
0.000218261
0.000218263
0.000218261
0.000218263
0.000203431
0.000202973
0.000218268
0.000218258
0.000218269
0.000218259
0.000218261
0.000218271
0.000218262
0.000203426
0.000202968
0.000218267
0.000218267
0.000218267
0.000202967
0.000203428
0.00020297
0.000218261
0.000218263
0.000218261
0.000218264
0.000203431
0.000202973
0.000218268
0.000218258
0.000218269
0.000218259
0.000218261
0.000218271
0.000218261
0.000203427
0.000202968
0.000218266
0.000218266
0.000218268
0.000202967
0.000203429
0.000218261
0.000218263
0.000203431
0.000218267
0.000218258
0.000218261
0.000203427
0.000218267
1.63351e-05
1.97646e-05
1.69829e-05
1.69829e-05
2.22186e-05
2.08022e-05
5.88771e-05
1.89975e-05
2.22186e-05
2.08023e-05
1.89985e-05
5.88785e-05
2.18571e-05
5.52593e-05
5.52574e-05
9.21273e-05
2.19807e-05
0.000100723
2.00047e-05
8.32231e-06
7.19157e-06
9.21247e-05
2.19779e-05
0.00010072
2.00024e-05
0.000240155
0.000240156
0.000240155
0.000230984
0.000230984
0.000230983
0.000230983
0.000158734
0.000111368
0.00023442
0.000222699
0.000168196
9.80038e-05
0.000230688
8.32143e-06
7.19108e-06
0.000158731
0.00023442
0.000111365
0.000222697
0.000168194
0.000230687
9.80012e-05
7.28753e-05
7.28729e-05
0.000205971
6.71531e-05
6.71543e-05
9.2975e-05
2.01243e-05
9.51905e-05
2.00345e-05
7.27083e-06
7.20825e-06
9.29722e-05
2.01221e-05
9.51876e-05
2.0032e-05
0.000230733
0.000230732
0.000230732
0.000230699
0.0002307
0.000230698
0.000230699
0.000157908
0.000101727
0.000226442
0.000218254
0.000159125
9.84661e-05
0.000226439
7.27015e-06
7.20755e-06
0.000157904
0.00022644
0.000101723
0.000218249
0.000159122
0.000226436
9.84619e-05
6.91286e-05
6.91286e-05
0.000202941
6.77894e-05
6.77908e-05
9.2999e-05
2.01339e-05
9.52877e-05
2.00359e-05
7.27399e-06
7.209e-06
9.2996e-05
2.01322e-05
9.52851e-05
2.00337e-05
0.0002307
0.000230699
0.000230699
0.0002307
0.000230701
0.0002307
0.0002307
0.000157932
0.00010187
0.000226439
0.00021827
0.000159227
9.84997e-05
0.00022644
7.27317e-06
7.20817e-06
0.000157927
0.000226437
0.000101866
0.000218266
0.000159223
0.000226438
9.84961e-05
6.92041e-05
6.92037e-05
0.000202966
6.78028e-05
6.78035e-05
9.30014e-05
2.01344e-05
9.52928e-05
2.0036e-05
7.27415e-06
7.20904e-06
9.29983e-05
2.01324e-05
9.52902e-05
2.00337e-05
0.000230701
0.000230699
0.000230699
0.000230701
0.000230701
0.0002307
0.0002307
0.000157934
0.000101876
0.000226441
0.000218271
0.000159234
9.85019e-05
0.000226441
7.27333e-06
7.20822e-06
0.00015793
0.000226439
0.000101872
0.000218266
0.00015923
0.000226439
9.84983e-05
6.92069e-05
6.92066e-05
0.000202968
6.78034e-05
6.78043e-05
9.30016e-05
2.01345e-05
9.52931e-05
2.00361e-05
7.27416e-06
7.20901e-06
9.29985e-05
2.01324e-05
9.52905e-05
2.00337e-05
0.000230701
0.000230699
0.000230699
0.0002307
0.000230701
0.0002307
0.0002307
0.000157934
0.000101876
0.000226441
0.000218271
0.000159235
9.8502e-05
0.000226441
7.27334e-06
7.20822e-06
0.00015793
0.000226439
0.000101872
0.000218267
0.00015923
0.000226439
9.84983e-05
6.92071e-05
6.92068e-05
0.000202968
6.78035e-05
6.78042e-05
9.30016e-05
2.01345e-05
9.52932e-05
2.00361e-05
7.27414e-06
7.20895e-06
9.29986e-05
2.01324e-05
9.52906e-05
2.00337e-05
0.0002307
0.000230699
0.000230699
0.0002307
0.000230701
0.0002307
0.0002307
0.000157934
0.000101876
0.000226441
0.00021827
0.000159235
9.8502e-05
0.000226441
7.27335e-06
7.20822e-06
0.00015793
0.000226439
0.000101872
0.000218267
0.00015923
0.000226439
9.84983e-05
6.92072e-05
6.92068e-05
0.000202968
6.78034e-05
6.78042e-05
9.30016e-05
2.01345e-05
9.52932e-05
2.00361e-05
7.27407e-06
7.20894e-06
9.29985e-05
2.01324e-05
9.52906e-05
2.00337e-05
0.0002307
0.000230699
0.0002307
0.0002307
0.000230701
0.0002307
0.0002307
0.000157934
0.000101876
0.000226441
0.000218271
0.000159235
9.85021e-05
0.000226442
7.27335e-06
7.20822e-06
0.00015793
0.000226439
0.000101872
0.000218267
0.00015923
0.000226439
9.84983e-05
6.92071e-05
6.92067e-05
0.000202968
6.78034e-05
6.78042e-05
9.30016e-05
2.01345e-05
9.52932e-05
2.00361e-05
7.27406e-06
7.20894e-06
9.29985e-05
2.01324e-05
9.52906e-05
2.00337e-05
0.000230701
0.000230699
0.000230699
0.0002307
0.000230701
0.0002307
0.0002307
0.000157934
0.000101876
0.000226441
0.000218271
0.000159235
9.8502e-05
0.000226441
7.27334e-06
7.20822e-06
0.00015793
0.000226439
0.000101872
0.000218267
0.00015923
0.000226439
9.84984e-05
6.92072e-05
6.92069e-05
0.000202968
6.78035e-05
6.78043e-05
9.30016e-05
2.01345e-05
9.52932e-05
2.00361e-05
7.27406e-06
7.20894e-06
9.29985e-05
2.01324e-05
9.52906e-05
2.00337e-05
0.000230701
0.000230699
0.000230699
0.0002307
0.000230701
0.0002307
0.0002307
0.000157934
0.000101876
0.000226441
0.000218271
0.000159235
9.8502e-05
0.000226441
7.27334e-06
7.20822e-06
0.00015793
0.000226439
0.000101872
0.000218267
0.00015923
0.000226439
9.84984e-05
6.92072e-05
6.92069e-05
0.000202968
6.78035e-05
6.78043e-05
9.30017e-05
2.01346e-05
9.52932e-05
2.00363e-05
7.27406e-06
7.20893e-06
9.29986e-05
2.01325e-05
9.52906e-05
2.00339e-05
0.000230701
0.000230699
0.0002307
0.0002307
0.000230701
0.0002307
0.0002307
0.000157934
0.000101876
0.000226441
0.000218271
0.000159235
9.85021e-05
0.000226442
7.27334e-06
7.20822e-06
0.00015793
0.000226439
0.000101872
0.000218267
0.00015923
0.000226439
9.84984e-05
6.92071e-05
6.92067e-05
0.000202968
6.78035e-05
6.78042e-05
9.30017e-05
2.01348e-05
9.52932e-05
2.00364e-05
7.27406e-06
7.20894e-06
9.29985e-05
2.01325e-05
9.52906e-05
2.00339e-05
0.000230701
0.000230699
0.000230699
0.0002307
0.000230701
0.000230699
0.0002307
0.000157934
0.000101876
0.000226441
0.000218271
0.000159235
9.85021e-05
0.000226442
7.27335e-06
7.20822e-06
0.00015793
0.000226439
0.000101872
0.000218266
0.00015923
0.000226439
9.84984e-05
6.92072e-05
6.92068e-05
0.000202968
6.78034e-05
6.78042e-05
9.3004e-05
2.01348e-05
9.52932e-05
2.00366e-05
7.27405e-06
7.20895e-06
2.01326e-05
9.52907e-05
0.000230701
0.000230699
0.0002307
0.000157934
0.000101876
0.000226441
0.000218271
0.000159235
9.85023e-05
0.000226441
7.27334e-06
0.000157931
0.000226438
0.000101872
0.00015923
0.000226434
6.92071e-05
6.92068e-05
0.000202969
6.78035e-05
6.78044e-05
2.18572e-05
5.52608e-05
5.52585e-05
9.38438e-06
5.95295e-05
9.38343e-06
5.95281e-05
8.96882e-05
7.34468e-05
7.34391e-05
7.75297e-05
7.75264e-05
2.22189e-05
2.08021e-05
5.88776e-05
1.8997e-05
2.2219e-05
2.0802e-05
5.88763e-05
1.8997e-05
8.50817e-05
2.49144e-05
6.78128e-05
0.000107782
8.50747e-05
2.49139e-05
6.78204e-05
0.000107781
9.57634e-05
7.6183e-05
0.000117829
0.000216673
8.51233e-05
5.01647e-05
0.000173094
9.57621e-05
7.61833e-05
0.000117827
0.000216671
8.51312e-05
5.01638e-05
0.000173092
2.18573e-05
5.5259e-05
5.52609e-05
9.38438e-06
5.95271e-05
8.96886e-05
7.3447e-05
7.34462e-05
7.75248e-05
7.75386e-05
9.38407e-06
5.9527e-05
2.22188e-05
2.08021e-05
5.88745e-05
1.89971e-05
2.22188e-05
2.0802e-05
1.89979e-05
5.88772e-05
8.50794e-05
2.49113e-05
6.78109e-05
0.000107779
9.57591e-05
7.61811e-05
0.00011783
0.000216667
8.51191e-05
5.01612e-05
0.00017309
8.50719e-05
2.49116e-05
6.78213e-05
0.00010778
9.57554e-05
7.61799e-05
0.00021667
0.000117824
5.01621e-05
8.51326e-05
0.00017309
1.63351e-05
1.97648e-05
1.69829e-05
1.6983e-05
1.63352e-05
1.97649e-05
1.69831e-05
1.69834e-05
1.63352e-05
1.97647e-05
1.6983e-05
1.69834e-05
9.25578e-05
6.05747e-05
0.000225202
0.000225199
6.38607e-05
6.38573e-05
0.000227484
9.25582e-05
6.05721e-05
0.0002252
0.000225198
6.38605e-05
6.38582e-05
0.000227483
9.25589e-05
6.0572e-05
0.000225201
0.000225199
6.38593e-05
6.38546e-05
0.000227485
9.25594e-05
6.05723e-05
0.0002252
0.000225199
6.38599e-05
6.38551e-05
0.000227484
2.22187e-05
2.08022e-05
1.89972e-05
5.88773e-05
9.57607e-05
7.61823e-05
0.000117828
0.000216666
8.51322e-05
5.0162e-05
0.00017309
8.5078e-05
2.49123e-05
6.7809e-05
0.000107779
9.57603e-05
7.61799e-05
0.000216669
0.000117832
5.01634e-05
8.51438e-05
0.000173089
8.50717e-05
2.49115e-05
6.78175e-05
0.000107778
2.18571e-05
5.52594e-05
5.52617e-05
9.3838e-06
5.95275e-05
8.96872e-05
7.34413e-05
7.34435e-05
7.75252e-05
7.75399e-05
9.38388e-06
5.9528e-05
2.22185e-05
2.0802e-05
1.89988e-05
5.88755e-05
9.57556e-05
7.61796e-05
0.000216665
0.000117825
5.01578e-05
8.51343e-05
0.000173089
9.57518e-05
7.61802e-05
0.000216663
0.000117828
5.01575e-05
8.51407e-05
0.000173087
8.50746e-05
2.4912e-05
6.78112e-05
0.000107779
8.50667e-05
2.49107e-05
6.78152e-05
0.000107777
8.96855e-05
7.34435e-05
7.34344e-05
7.75342e-05
7.75306e-05
9.38372e-06
5.9525e-05
9.38353e-06
5.95227e-05
8.32246e-06
7.19174e-06
8.3213e-06
7.19122e-06
7.28766e-05
7.28739e-05
0.000205971
6.71543e-05
6.71547e-05
7.20485e-06
7.28407e-06
7.20424e-06
7.28351e-06
0.000204147
6.77304e-05
6.773e-05
6.88513e-05
6.88504e-05
9.21269e-05
2.19803e-05
0.000100723
2.00038e-05
0.000158733
0.000111367
0.000234422
0.000222692
0.000168195
9.80006e-05
0.000230688
0.000158732
0.000111365
0.000234421
0.000222691
0.000168194
9.79974e-05
0.000230687
9.46994e-05
2.00259e-05
2.01096e-05
9.29041e-05
9.46995e-05
2.0025e-05
2.01091e-05
9.29043e-05
0.000159029
0.000218945
9.83395e-05
0.00022667
0.000101314
0.000227354
0.00015791
0.000159029
0.000218946
9.83359e-05
0.00022667
0.000101311
0.000227354
0.000157909
7.28769e-05
7.28777e-05
0.000205973
6.7155e-05
6.71573e-05
8.32207e-06
7.19164e-06
7.2047e-06
7.2838e-06
0.000204149
6.77317e-05
6.77328e-05
6.88511e-05
6.88538e-05
7.20477e-06
7.28405e-06
0.00015873
0.000111364
0.00023442
0.000222696
0.000168192
9.79968e-05
0.000230686
9.21247e-05
2.19777e-05
0.000100721
2.00019e-05
0.000158728
0.00023442
0.000111361
0.000222688
0.000168191
0.000230686
9.79926e-05
9.46973e-05
2.00234e-05
2.01076e-05
9.29007e-05
0.000159026
0.000218951
9.83352e-05
0.000226668
0.00010131
0.000227352
0.000157906
9.46968e-05
2.00228e-05
2.01069e-05
9.29008e-05
0.000159024
0.000218942
0.000226667
9.83303e-05
0.000227351
0.000101306
0.000157904
9.21264e-05
2.19788e-05
0.000100721
2.00037e-05
0.000158732
0.000234421
0.000111366
0.000222691
0.000168193
0.000230687
9.79988e-05
9.21264e-05
2.19781e-05
0.000100721
2.00029e-05
0.00015903
0.000218954
9.83428e-05
0.00022667
0.000101317
0.000227354
0.00015791
9.46991e-05
2.00249e-05
2.01087e-05
9.29029e-05
0.000159028
0.000218945
0.000226669
9.83377e-05
0.000227353
0.000101312
0.000157909
9.4699e-05
2.00243e-05
2.0108e-05
9.29033e-05
7.28739e-05
7.28748e-05
0.00020597
6.71506e-05
6.71541e-05
8.32162e-06
7.19127e-06
7.20407e-06
7.28321e-06
0.000204145
6.77263e-05
6.77296e-05
6.88463e-05
6.8851e-05
7.20439e-06
7.28362e-06
0.00015873
0.000234419
0.000111362
0.000222696
0.000168191
0.000230686
9.79975e-05
9.21255e-05
2.1978e-05
0.000100721
2.00029e-05
9.21256e-05
2.19775e-05
0.00010072
2.00023e-05
0.000159027
0.000218951
0.000226668
9.8339e-05
0.000227353
0.000101314
0.000157906
0.000159026
0.000218951
0.000226668
9.83349e-05
0.000227352
0.000101311
0.000157906
9.46973e-05
2.00238e-05
2.01078e-05
9.29008e-05
9.46977e-05
2.00233e-05
2.01075e-05
9.29009e-05
8.32184e-06
7.19129e-06
8.32112e-06
7.19129e-06
0.000204146
6.77288e-05
6.773e-05
6.88496e-05
6.88506e-05
7.20453e-06
7.28376e-06
7.20431e-06
7.28359e-06
7.27093e-06
7.20846e-06
7.27033e-06
7.20783e-06
6.91303e-05
6.91288e-05
0.000202942
6.77902e-05
6.77905e-05
7.20886e-06
7.27356e-06
7.20839e-06
7.27303e-06
0.000203407
6.78019e-05
6.78019e-05
6.91942e-05
6.91931e-05
9.29751e-05
2.01238e-05
9.51907e-05
2.00336e-05
0.000157907
0.000101724
0.000226441
0.000218245
0.000159124
9.84624e-05
0.000226438
0.000157907
0.00010172
0.000226441
0.000218245
0.000159123
9.84586e-05
0.000226438
9.5274e-05
2.00355e-05
2.01327e-05
9.29923e-05
9.52742e-05
2.00351e-05
2.01321e-05
9.29924e-05
0.000159211
0.000218249
9.84897e-05
0.000226438
0.000101847
0.000226435
0.000157923
0.00015921
0.00021825
9.84855e-05
0.000226438
0.000101843
0.000226435
0.000157922
6.91301e-05
6.91325e-05
0.000202945
6.77916e-05
6.77927e-05
7.27087e-06
7.2084e-06
7.20889e-06
7.27345e-06
0.00020341
6.7803e-05
6.78042e-05
6.91939e-05
6.9197e-05
7.20892e-06
7.27345e-06
0.000157903
0.000101719
0.00022644
0.000218251
0.00015912
9.84581e-05
0.000226437
9.29722e-05
2.01214e-05
9.51874e-05
2.00312e-05
0.000157901
0.000226438
0.000101715
0.000218241
0.000159118
0.000226435
9.84536e-05
9.52714e-05
2.00335e-05
2.01306e-05
9.29894e-05
0.000159207
0.000218255
9.84846e-05
0.000226436
0.000101843
0.000226433
0.000157919
9.52711e-05
2.00326e-05
2.01296e-05
9.29893e-05
0.000159205
0.000218246
0.000226435
9.84805e-05
0.000226432
0.000101838
0.000157917
9.29738e-05
2.01234e-05
9.51896e-05
2.00336e-05
0.000157906
0.00022644
0.000101722
0.000218243
0.000159123
0.000226437
9.84605e-05
9.29738e-05
2.01227e-05
9.51896e-05
2.00327e-05
0.000159211
0.000218258
9.84925e-05
0.000226438
0.00010185
0.000226435
0.000157923
9.52733e-05
2.00349e-05
2.01318e-05
9.29915e-05
0.000159209
0.000218248
0.000226437
9.8488e-05
0.000226434
0.000101845
0.000157922
9.52732e-05
2.0034e-05
2.01309e-05
9.29916e-05
6.91249e-05
6.91294e-05
0.00020294
6.77867e-05
6.77896e-05
7.27057e-06
7.20788e-06
7.20806e-06
7.27261e-06
0.000203406
6.77982e-05
6.78011e-05
6.91894e-05
6.91936e-05
7.20852e-06
7.27303e-06
0.000157903
0.000226439
0.000101719
0.000218249
0.00015912
0.000226436
9.84576e-05
9.29724e-05
2.01224e-05
9.51878e-05
2.00325e-05
9.29723e-05
2.01221e-05
9.5188e-05
2.00318e-05
0.000159208
0.000218253
0.000226436
9.84885e-05
0.000226433
0.000101846
0.000157919
0.000159207
0.000218255
0.000226436
9.84844e-05
0.000226433
0.000101843
0.000157919
9.52715e-05
2.0034e-05
2.01308e-05
9.29896e-05
9.52718e-05
2.00331e-05
2.01302e-05
9.29898e-05
7.27055e-06
7.20783e-06
7.27043e-06
7.20773e-06
0.000203406
6.78009e-05
6.78018e-05
6.91931e-05
6.91933e-05
7.20846e-06
7.27296e-06
7.20835e-06
7.27291e-06
7.27393e-06
7.20898e-06
7.27351e-06
7.2085e-06
6.92053e-05
6.9204e-05
0.000202967
6.78038e-05
6.78038e-05
7.20907e-06
7.27406e-06
7.20853e-06
7.27364e-06
0.000203425
6.78044e-05
6.78045e-05
6.92075e-05
6.92062e-05
9.29991e-05
2.01337e-05
9.52878e-05
2.00354e-05
0.000157931
0.000101866
0.000226439
0.000218261
0.000159226
9.84966e-05
0.00022644
0.00015793
0.000101863
0.000226438
0.000218261
0.000159225
9.84923e-05
0.000226439
9.5292e-05
2.0036e-05
2.01343e-05
9.30008e-05
9.52922e-05
2.00355e-05
2.01341e-05
9.30009e-05
0.000159232
0.00021826
9.84985e-05
0.00022644
0.000101871
0.00022644
0.000157932
0.000159231
0.000218261
9.84941e-05
0.00022644
0.000101867
0.000226439
0.000157931
6.92048e-05
6.92075e-05
0.00020297
6.78048e-05
6.78061e-05
7.274e-06
7.20904e-06
7.20904e-06
7.27412e-06
0.000203429
6.78055e-05
6.78068e-05
6.92069e-05
6.92096e-05
7.20908e-06
7.27413e-06
0.000157926
0.000101862
0.000226437
0.000218266
0.000159222
9.84916e-05
0.000226438
9.2996e-05
2.01311e-05
9.52847e-05
2.00329e-05
0.000157924
0.000226436
0.000101857
0.000218256
0.00015922
0.000226437
9.84868e-05
9.52894e-05
2.00337e-05
2.01324e-05
9.29977e-05
0.000159228
0.000218266
9.84937e-05
0.000226439
0.000101866
0.000226438
0.000157928
9.52891e-05
2.0033e-05
2.01315e-05
9.29977e-05
0.000159226
0.000218256
0.000226438
9.84887e-05
0.000226437
0.000101861
0.000157926
9.29983e-05
2.01334e-05
9.52869e-05
2.00353e-05
0.00015793
0.000226438
0.000101865
0.000218258
0.000159225
0.000226439
9.84946e-05
9.29983e-05
2.01324e-05
9.52867e-05
2.00344e-05
0.000159233
0.000218269
9.85013e-05
0.000226441
0.000101874
0.00022644
0.000157932
9.52914e-05
2.00354e-05
2.01338e-05
9.29999e-05
0.000159231
0.000218259
0.00022644
9.84966e-05
0.000226439
0.000101869
0.000157931
9.52913e-05
2.00345e-05
2.01327e-05
9.3e-05
6.92001e-05
6.92048e-05
0.000202965
6.77996e-05
6.7803e-05
7.27358e-06
7.20862e-06
7.20821e-06
7.27329e-06
0.000203424
6.78002e-05
6.78038e-05
6.9202e-05
6.92069e-05
7.20866e-06
7.2737e-06
0.000157927
0.000226436
0.000101862
0.000218265
0.000159222
0.000226438
9.84911e-05
9.2996e-05
2.01323e-05
9.52848e-05
2.00341e-05
9.2996e-05
2.01318e-05
9.52851e-05
2.00335e-05
0.000159229
0.000218265
0.000226439
9.84977e-05
0.000226438
0.00010187
0.000157928
0.000159228
0.000218266
0.000226439
9.84932e-05
0.000226438
0.000101866
0.000157928
9.52893e-05
2.00342e-05
2.01325e-05
9.29977e-05
9.52896e-05
2.00336e-05
2.01322e-05
9.29979e-05
7.27351e-06
7.20857e-06
7.27345e-06
7.20846e-06
0.000203425
6.78034e-05
6.78043e-05
6.92062e-05
6.92058e-05
7.20861e-06
7.27364e-06
7.2085e-06
7.27358e-06
7.27416e-06
7.20908e-06
7.27367e-06
7.20854e-06
6.92082e-05
6.92069e-05
0.000202969
6.78044e-05
6.78044e-05
7.20919e-06
7.27428e-06
7.20854e-06
7.27367e-06
0.000203427
6.78043e-05
6.78046e-05
6.9208e-05
6.92069e-05
9.30014e-05
2.01342e-05
9.52929e-05
2.00356e-05
0.000157933
0.000101872
0.00022644
0.000218262
0.000159232
9.84989e-05
0.000226441
0.000157932
0.000101868
0.00022644
0.000218262
0.000159232
9.84944e-05
0.00022644
9.52931e-05
2.00361e-05
2.01345e-05
9.30014e-05
9.52933e-05
2.00356e-05
2.01342e-05
9.30015e-05
0.000159233
0.000218261
9.8499e-05
0.000226441
0.000101872
0.00022644
0.000157932
0.000159233
0.000218261
9.84947e-05
0.00022644
0.000101868
0.00022644
0.000157932
6.92076e-05
6.92105e-05
0.000202971
6.78054e-05
6.78067e-05
7.27417e-06
7.20908e-06
7.20904e-06
7.27416e-06
0.00020343
6.78058e-05
6.78071e-05
6.92076e-05
6.92103e-05
7.20909e-06
7.27417e-06
0.000157929
0.000101868
0.000226439
0.000218268
0.000159228
9.84939e-05
0.000226439
9.29982e-05
2.01316e-05
9.52899e-05
2.00331e-05
0.000157927
0.000226437
0.000101863
0.000218258
0.000159226
0.000226438
9.8489e-05
9.52905e-05
2.00337e-05
2.01324e-05
9.29984e-05
0.000159229
0.000218267
9.8494e-05
0.000226439
0.000101868
0.000226439
0.000157928
9.52903e-05
2.00331e-05
2.01317e-05
9.29984e-05
0.000159227
0.000218257
0.000226438
9.84893e-05
0.000226437
0.000101863
0.000157926
9.30008e-05
2.01339e-05
9.52921e-05
2.00354e-05
0.000157932
0.000226439
0.00010187
0.00021826
0.000159231
0.00022644
9.84967e-05
9.30007e-05
2.01328e-05
9.5292e-05
2.00345e-05
0.000159234
0.00021827
9.85019e-05
0.000226441
0.000101875
0.000226441
0.000157932
9.52926e-05
2.00354e-05
2.01339e-05
9.30006e-05
0.000159232
0.00021826
0.00022644
9.84972e-05
0.000226439
0.00010187
0.000157932
9.52925e-05
2.00345e-05
2.01329e-05
9.30007e-05
6.92028e-05
6.92078e-05
0.000202967
6.78003e-05
6.78038e-05
7.27374e-06
7.20867e-06
7.20822e-06
7.27334e-06
0.000203425
6.78005e-05
6.7804e-05
6.92028e-05
6.92077e-05
7.20867e-06
7.27374e-06
0.000157929
0.000226438
0.000101867
0.000218267
0.000159229
0.000226438
9.84934e-05
9.29985e-05
2.01326e-05
9.52901e-05
2.00342e-05
9.29986e-05
2.01323e-05
9.52904e-05
2.00337e-05
0.00015923
0.000218265
0.000226439
9.84983e-05
0.000226438
0.000101872
0.000157928
0.00015923
0.000218266
0.000226439
9.84939e-05
0.000226438
0.000101867
0.000157929
9.52905e-05
2.00342e-05
2.01326e-05
9.29983e-05
9.52909e-05
2.00337e-05
2.01323e-05
9.29986e-05
7.27367e-06
7.20861e-06
7.27362e-06
7.20851e-06
0.000203426
6.78036e-05
6.78045e-05
6.92069e-05
6.92066e-05
7.20862e-06
7.27368e-06
7.20852e-06
7.27362e-06
7.27428e-06
7.20919e-06
7.27368e-06
7.20854e-06
6.92081e-05
6.92071e-05
0.000202969
6.78041e-05
6.78046e-05
7.2092e-06
7.27427e-06
7.20855e-06
7.27368e-06
0.000203426
6.78044e-05
6.78048e-05
6.92079e-05
6.92069e-05
9.30017e-05
2.01342e-05
9.52933e-05
2.00356e-05
0.000157933
0.000101872
0.00022644
0.000218262
0.000159233
9.84988e-05
0.000226441
0.000157933
0.000101869
0.00022644
0.000218263
0.000159232
9.84949e-05
0.00022644
9.52933e-05
2.00361e-05
2.01345e-05
9.30014e-05
9.52935e-05
2.00356e-05
2.01342e-05
9.30015e-05
0.000159233
0.00021826
9.84993e-05
0.00022644
0.000101872
0.00022644
0.000157932
0.000159233
0.000218262
9.8495e-05
0.00022644
0.000101869
0.00022644
0.000157932
6.9208e-05
6.92107e-05
0.000202972
6.78061e-05
6.78069e-05
7.27418e-06
7.20908e-06
7.20902e-06
7.27413e-06
0.00020343
6.78062e-05
6.78071e-05
6.92082e-05
6.92104e-05
7.20909e-06
7.27417e-06
0.000157929
0.000101868
0.000226439
0.000218269
0.000159229
9.84942e-05
0.000226439
9.29985e-05
2.01317e-05
9.52902e-05
2.00331e-05
0.000157927
0.000226438
0.000101863
0.000218259
0.000159227
0.000226438
9.84891e-05
9.52906e-05
2.00337e-05
2.01324e-05
9.29984e-05
0.00015923
0.000218267
9.84943e-05
0.000226439
0.000101868
0.000226439
0.000157928
9.52904e-05
2.00331e-05
2.01317e-05
9.29984e-05
0.000159227
0.000218258
0.000226438
9.84894e-05
0.000226438
0.000101863
0.000157926
9.3001e-05
2.01339e-05
9.52925e-05
2.00354e-05
0.000157932
0.000226439
0.000101871
0.000218261
0.000159232
0.00022644
9.84972e-05
9.30009e-05
2.01329e-05
9.52923e-05
2.00345e-05
0.000159235
0.000218269
9.85019e-05
0.000226441
0.000101875
0.000226441
0.000157932
9.52928e-05
2.00354e-05
2.01339e-05
9.30007e-05
0.000159233
0.000218261
0.00022644
9.84976e-05
0.00022644
0.000101871
0.000157932
9.52927e-05
2.00345e-05
2.01329e-05
9.30008e-05
6.9203e-05
6.9208e-05
0.000202967
6.78002e-05
6.78038e-05
7.27375e-06
7.20867e-06
7.20823e-06
7.27334e-06
0.000203425
6.78006e-05
6.78041e-05
6.92028e-05
6.92077e-05
7.20868e-06
7.27375e-06
0.000157929
0.000226438
0.000101868
0.000218266
0.000159229
0.000226438
9.84932e-05
9.29986e-05
2.01327e-05
9.52904e-05
2.00342e-05
9.29987e-05
2.01323e-05
9.52907e-05
2.00337e-05
0.00015923
0.000218265
0.000226439
9.84984e-05
0.000226438
0.000101872
0.000157928
0.00015923
0.000218266
0.000226439
9.84937e-05
0.000226438
0.000101867
0.000157929
9.52906e-05
2.00342e-05
2.01327e-05
9.29983e-05
9.52909e-05
2.00337e-05
2.01323e-05
9.29986e-05
7.27368e-06
7.20862e-06
7.27363e-06
7.20851e-06
0.000203426
6.78037e-05
6.78045e-05
6.9207e-05
6.92065e-05
7.20863e-06
7.27368e-06
7.20852e-06
7.27362e-06
7.27434e-06
7.20926e-06
7.27368e-06
7.20854e-06
6.92081e-05
6.92072e-05
0.000202969
6.78042e-05
6.78046e-05
7.20926e-06
7.27433e-06
7.20854e-06
7.27368e-06
0.000203426
6.78043e-05
6.78047e-05
6.92079e-05
6.9207e-05
9.30017e-05
2.01342e-05
9.52933e-05
2.00356e-05
0.000157933
0.000101873
0.00022644
0.000218261
0.000159233
9.84993e-05
0.00022644
0.000157933
0.000101869
0.00022644
0.000218263
0.000159232
9.84949e-05
0.00022644
9.52933e-05
2.00361e-05
2.01345e-05
9.30015e-05
9.52935e-05
2.00356e-05
2.01342e-05
9.30016e-05
0.000159233
0.00021826
9.84993e-05
0.000226441
0.000101872
0.00022644
0.000157932
0.000159233
0.000218262
9.8495e-05
0.00022644
0.000101869
0.00022644
0.000157932
6.92084e-05
6.92107e-05
0.000202972
6.78061e-05
6.78069e-05
7.27418e-06
7.20908e-06
7.20895e-06
7.27406e-06
0.00020343
6.78063e-05
6.78071e-05
6.92083e-05
6.92104e-05
7.20909e-06
7.27417e-06
0.000157929
0.000101868
0.000226439
0.000218269
0.000159229
9.84942e-05
0.000226439
9.29985e-05
2.01317e-05
9.52903e-05
2.00331e-05
0.000157927
0.000226437
0.000101863
0.000218259
0.000159227
0.000226438
9.84891e-05
9.52907e-05
2.00337e-05
2.01324e-05
9.29984e-05
0.00015923
0.000218267
9.84943e-05
0.000226439
0.000101868
0.000226439
0.000157928
9.52904e-05
2.00331e-05
2.01317e-05
9.29984e-05
0.000159228
0.000218258
0.000226438
9.84893e-05
0.000226438
0.000101863
0.000157926
9.30009e-05
2.01339e-05
9.52925e-05
2.00354e-05
0.000157932
0.000226439
0.000101871
0.000218261
0.000159232
0.00022644
9.84972e-05
9.30009e-05
2.01329e-05
9.52924e-05
2.00345e-05
0.000159235
0.000218269
9.85019e-05
0.000226441
0.000101875
0.000226441
0.000157933
9.52927e-05
2.00354e-05
2.01339e-05
9.30007e-05
0.000159233
0.000218261
0.00022644
9.84975e-05
0.00022644
0.000101871
0.000157932
9.52927e-05
2.00345e-05
2.01329e-05
9.30008e-05
6.92031e-05
6.92081e-05
0.000202967
6.78003e-05
6.78038e-05
7.27376e-06
7.20867e-06
7.20823e-06
7.27334e-06
0.000203425
6.78006e-05
6.78042e-05
6.92028e-05
6.92077e-05
7.20868e-06
7.27375e-06
0.000157929
0.000226438
0.000101868
0.000218266
0.000159229
0.000226438
9.84932e-05
9.29986e-05
2.01327e-05
9.52904e-05
2.00342e-05
9.29987e-05
2.01323e-05
9.52907e-05
2.00337e-05
0.00015923
0.000218265
0.000226439
9.84985e-05
0.000226438
0.000101872
0.000157928
0.00015923
0.000218266
0.000226439
9.84936e-05
0.000226438
0.000101867
0.000157929
9.52906e-05
2.00342e-05
2.01327e-05
9.29984e-05
9.52909e-05
2.00337e-05
2.01323e-05
9.29986e-05
7.27369e-06
7.20862e-06
7.27363e-06
7.20851e-06
0.000203426
6.78036e-05
6.78044e-05
6.9207e-05
6.92065e-05
7.20862e-06
7.27368e-06
7.20851e-06
7.27362e-06
7.27433e-06
7.20925e-06
7.27368e-06
7.20854e-06
6.9208e-05
6.92071e-05
0.000202968
6.78042e-05
6.78046e-05
7.20922e-06
7.27432e-06
7.20855e-06
7.27368e-06
0.000203426
6.78046e-05
6.78047e-05
6.9208e-05
6.92069e-05
9.30017e-05
2.01342e-05
9.52933e-05
2.00356e-05
0.000157933
0.000101873
0.00022644
0.000218262
0.000159233
9.84993e-05
0.000226441
0.000157933
0.000101869
0.00022644
0.000218262
0.000159232
9.84948e-05
0.00022644
9.52933e-05
2.00361e-05
2.01345e-05
9.30015e-05
9.52934e-05
2.00356e-05
2.01342e-05
9.30016e-05
0.000159234
0.000218261
9.84996e-05
0.000226441
0.000101873
0.00022644
0.000157933
0.000159233
0.000218262
9.84948e-05
0.000226441
0.000101868
0.00022644
0.000157932
6.92085e-05
6.92107e-05
0.000202972
6.78061e-05
6.78069e-05
7.27418e-06
7.20908e-06
7.20894e-06
7.27406e-06
0.00020343
6.78061e-05
6.78071e-05
6.92082e-05
6.92104e-05
7.20909e-06
7.27417e-06
0.000157929
0.000101868
0.000226439
0.000218268
0.000159229
9.84942e-05
0.000226439
9.29985e-05
2.01317e-05
9.52903e-05
2.00331e-05
0.000157927
0.000226437
0.000101863
0.000218258
0.000159227
0.000226438
9.84892e-05
9.52906e-05
2.00337e-05
2.01324e-05
9.29984e-05
0.00015923
0.000218267
9.84942e-05
0.000226439
0.000101868
0.000226439
0.000157928
9.52904e-05
2.00331e-05
2.01317e-05
9.29984e-05
0.000159228
0.000218258
0.000226438
9.84894e-05
0.000226438
0.000101863
0.000157926
9.30009e-05
2.01339e-05
9.52925e-05
2.00354e-05
0.000157932
0.000226439
0.000101871
0.000218261
0.000159232
0.00022644
9.84971e-05
9.30009e-05
2.01329e-05
9.52924e-05
2.00345e-05
0.000159235
0.00021827
9.8502e-05
0.000226441
0.000101875
0.000226441
0.000157933
9.52927e-05
2.00354e-05
2.01339e-05
9.30007e-05
0.000159233
0.000218261
0.00022644
9.84975e-05
0.00022644
0.000101871
0.000157932
9.52926e-05
2.00345e-05
2.01329e-05
9.30008e-05
6.92031e-05
6.92081e-05
0.000202967
6.78003e-05
6.78038e-05
7.27376e-06
7.20867e-06
7.20822e-06
7.27334e-06
0.000203425
6.78004e-05
6.78041e-05
6.92028e-05
6.92077e-05
7.20868e-06
7.27375e-06
0.000157929
0.000226438
0.000101867
0.000218267
0.000159229
0.000226439
9.84933e-05
9.29986e-05
2.01327e-05
9.52904e-05
2.00342e-05
9.29987e-05
2.01323e-05
9.52907e-05
2.00337e-05
0.00015923
0.000218265
0.000226439
9.84983e-05