/*--------------------------------*- C++ -*----------------------------------*\
| =========                 |                                                 |
| \\      /  F ield         | OpenFOAM: The Open Source CFD Toolbox           |
|  \\    /   O peration     | Version:  2206                                  |
|   \\  /    A nd           | Website:  www.openfoam.com                      |
|    \\/     M anipulation  |                                                 |
\*---------------------------------------------------------------------------*/
FoamFile
{
    version     2.0;
    format      ascii;
    arch        "LSB;label=32;scalar=64";
    class       volScalarField;
    location    "6";
    object      nut;
}
// * * * * * * * * * * * * * * * * * * * * * * * * * * * * * * * * * * * * * //

dimensions      [0 2 -1 0 0 0 0];

internalField   nonuniform List<scalar> 
28897
(
0.000233213
0.00023197
0.000231968
0.000230121
0.000233194
0.000231933
0.000231936
0.000230054
0.000233208
0.000231948
0.000231948
0.000230075
0.000233208
0.000231948
0.000231948
0.000230075
0.000233208
0.000231948
0.000231948
0.000230075
0.000233208
0.000231948
0.000231948
0.000230075
0.000233208
0.000231948
0.000231948
0.000230075
0.000233208
0.000231948
0.000231948
0.000230075
0.000233208
0.000231948
0.000231948
0.000230075
0.000233208
0.000231948
0.000231948
0.000230075
0.000233208
0.000231948
0.000231948
0.000230075
0.000233208
0.000231948
0.000231948
0.000230075
0.000233208
0.000231948
0.000231948
0.000230075
0.000233208
0.000231948
0.000231948
0.000230075
0.000233208
0.000231948
0.000231948
0.000230075
0.000233208
0.000231948
0.000231948
0.000230075
0.000233208
0.000231948
0.000231948
0.000230075
0.000233208
0.000231949
0.000231949
0.000230075
0.000230144
0.000231968
0.000231968
0.000230152
0.000231969
0.000231967
0.000231971
0.000231969
0.000230143
0.000231969
0.000231969
0.000230143
0.000230123
0.000230082
0.000231967
0.000231968
0.000231931
0.000231935
0.000230128
0.000230103
0.000231968
0.000231966
0.000231932
0.00023193
0.000231968
0.000231941
0.000231933
0.000230122
0.000230082
0.000231968
0.000231933
0.000231932
0.000230084
0.000230055
0.0002301
0.000231936
0.000231937
0.000231947
0.000231947
0.000230054
0.000230101
0.000231937
0.000231935
0.000231948
0.000231946
0.000231937
0.000231947
0.000231947
0.000230055
0.0002301
0.000231936
0.000231948
0.000231948
0.000230099
0.000230084
0.000230098
0.000231948
0.000231947
0.000231948
0.000231947
0.000230085
0.000230099
0.000231948
0.000231947
0.000231948
0.000231946
0.000231947
0.000231949
0.000231947
0.000230083
0.000230098
0.000231948
0.000231948
0.000231948
0.000230098
0.000230081
0.000230098
0.000231948
0.000231948
0.000231947
0.000231947
0.000230082
0.000230099
0.000231948
0.000231947
0.000231948
0.000231946
0.000231948
0.000231949
0.000231947
0.000230081
0.000230098
0.000231948
0.000231948
0.000231948
0.000230098
0.000230081
0.000230098
0.000231948
0.000231948
0.000231947
0.000231947
0.000230082
0.000230099
0.000231948
0.000231947
0.000231948
0.000231946
0.000231948
0.000231949
0.000231947
0.00023008
0.000230098
0.000231948
0.000231948
0.000231948
0.000230098
0.000230081
0.000230098
0.000231948
0.000231948
0.000231947
0.000231947
0.000230082
0.000230099
0.000231948
0.000231947
0.000231948
0.000231946
0.000231948
0.000231949
0.000231947
0.000230081
0.000230098
0.000231948
0.000231948
0.000231948
0.000230098
0.000230081
0.000230098
0.000231948
0.000231948
0.000231947
0.000231947
0.000230081
0.000230099
0.000231948
0.000231947
0.000231948
0.000231946
0.000231948
0.000231949
0.000231947
0.00023008
0.000230098
0.000231948
0.000231948
0.000231948
0.000230098
0.000230081
0.000230098
0.000231948
0.000231948
0.000231947
0.000231947
0.000230082
0.000230099
0.000231948
0.000231947
0.000231948
0.000231946
0.000231948
0.000231949
0.000231947
0.000230081
0.000230098
0.000231948
0.000231948
0.000231948
0.000230098
0.000230081
0.000230098
0.000231948
0.000231948
0.000231947
0.000231947
0.000230082
0.000230099
0.000231948
0.000231947
0.000231948
0.000231946
0.000231948
0.000231949
0.000231947
0.00023008
0.000230098
0.000231948
0.000231948
0.000231948
0.000230098
0.000230081
0.000230098
0.000231948
0.000231948
0.000231948
0.000231947
0.000230081
0.000230099
0.000231948
0.000231947
0.000231948
0.000231946
0.000231948
0.000231949
0.000231947
0.00023008
0.000230098
0.000231948
0.000231948
0.000231948
0.000230098
0.000230081
0.000230098
0.000231948
0.000231948
0.000231947
0.000231947
0.000230081
0.000230099
0.000231948
0.000231947
0.000231948
0.000231946
0.000231948
0.000231949
0.000231947
0.00023008
0.000230098
0.000231948
0.000231948
0.000231948
0.000230098
0.000230081
0.000230098
0.000231948
0.000231947
0.000231947
0.000231947
0.000230082
0.000230099
0.000231948
0.000231947
0.000231948
0.000231946
0.000231948
0.000231949
0.000231947
0.00023008
0.000230097
0.000231948
0.000231948
0.000231948
0.000230098
0.000230081
0.000230098
0.000231948
0.000231947
0.000231947
0.000231947
0.000230081
0.000230099
0.000231948
0.000231947
0.000231948
0.000231946
0.000231948
0.000231949
0.000231947
0.00023008
0.000230098
0.000231948
0.000231948
0.000231948
0.000230098
0.000230081
0.000230098
0.000231948
0.000231948
0.000231947
0.000231947
0.000230082
0.000230099
0.000231948
0.000231947
0.000231948
0.000231946
0.000231948
0.000231949
0.000231947
0.000230081
0.000230098
0.000231948
0.000231948
0.000231948
0.000230098
0.000230081
0.000230098
0.000231948
0.000231948
0.000231947
0.000231947
0.000230082
0.000230099
0.000231948
0.000231947
0.000231948
0.000231946
0.000231948
0.000231949
0.000231947
0.00023008
0.000230098
0.000231948
0.000231948
0.000231948
0.000230098
0.000230081
0.000230098
0.000231948
0.000231948
0.000231947
0.000231947
0.000230082
0.000230099
0.000231948
0.000231947
0.000231948
0.000231946
0.000231948
0.000231949
0.000231947
0.000230081
0.000230097
0.000231948
0.000231948
0.000231948
0.000230098
0.000230081
0.000230098
0.000231948
0.000231948
0.000231947
0.000231947
0.000230082
0.000230099
0.000231948
0.000231947
0.000231948
0.000231946
0.000231948
0.000231949
0.000231947
0.00023008
0.000230098
0.000231948
0.000231948
0.000231948
0.000230098
0.000230079
0.000231948
0.000231948
0.000230079
0.000231949
0.000231947
0.000231948
0.000230078
0.000231949
0.000233215
0.000233215
0.000233215
0.000233214
9.89217e-05
4.26163e-05
9.89165e-05
4.26161e-05
2.41204e-05
2.41194e-05
9.89308e-05
4.26139e-05
9.89287e-05
4.26137e-05
0.000233214
0.000233213
0.000233213
0.000233187
0.000233187
0.000233186
0.000233186
0.000196016
0.000114424
0.000232996
0.000231969
0.000196
0.00011445
0.000232993
2.41186e-05
2.41184e-05
0.000196012
0.000232996
0.000114422
0.000231963
0.000196001
0.000232992
0.00011443
6.41251e-05
6.41135e-05
0.000230137
6.41334e-05
6.41148e-05
9.87217e-05
4.26365e-05
9.87284e-05
4.26367e-05
2.41324e-05
2.41375e-05
9.87322e-05
4.26341e-05
9.87362e-05
4.26342e-05
0.000233195
0.000233194
0.000233194
0.000233208
0.000233207
0.000233207
0.000233207
0.000195819
0.000114302
0.000232974
0.000231938
0.000195838
0.000114238
0.000232981
2.41354e-05
2.41356e-05
0.000195819
0.000232974
0.000114235
0.000231942
0.000195813
0.000232981
0.000114235
6.3989e-05
6.39563e-05
0.000230096
6.39631e-05
6.39511e-05
9.87234e-05
4.26368e-05
9.87085e-05
4.26363e-05
2.41376e-05
2.41375e-05
9.87342e-05
4.26344e-05
9.87218e-05
4.26338e-05
0.000233208
0.000233208
0.000233208
0.000233208
0.000233208
0.000233208
0.000233208
0.00019582
0.000114202
0.000232987
0.000231949
0.000195799
0.000114229
0.000232987
2.41355e-05
2.41354e-05
0.000195821
0.000232987
0.000114209
0.000231948
0.000195801
0.000232987
0.000114234
6.39572e-05
6.39454e-05
0.000230099
6.39642e-05
6.3952e-05
9.87234e-05
4.26368e-05
9.87086e-05
4.26363e-05
2.41376e-05
2.41375e-05
9.87342e-05
4.26344e-05
9.8722e-05
4.26338e-05
0.000233208
0.000233208
0.000233208
0.000233208
0.000233208
0.000233208
0.000233208
0.000195819
0.000114203
0.000232987
0.000231949
0.000195799
0.000114229
0.000232987
2.41355e-05
2.41354e-05
0.000195821
0.000232987
0.000114209
0.000231948
0.0001958
0.000232987
0.000114234
6.39575e-05
6.39454e-05
0.000230099
6.39642e-05
6.3952e-05
9.87234e-05
4.26368e-05
9.87086e-05
4.26363e-05
2.41376e-05
2.41375e-05
9.87343e-05
4.26343e-05
9.8722e-05
4.26338e-05
0.000233208
0.000233208
0.000233208
0.000233208
0.000233208
0.000233208
0.000233208
0.000195819
0.000114203
0.000232987
0.000231949
0.000195799
0.000114229
0.000232987
2.41355e-05
2.41354e-05
0.000195821
0.000232987
0.000114209
0.000231948
0.0001958
0.000232987
0.000114234
6.39575e-05
6.39453e-05
0.000230099
6.39642e-05
6.39519e-05
9.87234e-05
4.26368e-05
9.87086e-05
4.26363e-05
2.41376e-05
2.41375e-05
9.87343e-05
4.26343e-05
9.8722e-05
4.26338e-05
0.000233208
0.000233208
0.000233208
0.000233208
0.000233208
0.000233208
0.000233208
0.000195819
0.000114203
0.000232987
0.000231949
0.000195798
0.000114229
0.000232987
2.41355e-05
2.41354e-05
0.000195821
0.000232987
0.000114209
0.000231948
0.0001958
0.000232987
0.000114234
6.39575e-05
6.39452e-05
0.000230099
6.39643e-05
6.39519e-05
9.87234e-05
4.26368e-05
9.87086e-05
4.26363e-05
2.41376e-05
2.41375e-05
9.87343e-05
4.26344e-05
9.8722e-05
4.26338e-05
0.000233208
0.000233208
0.000233208
0.000233208
0.000233208
0.000233207
0.000233208
0.00019582
0.000114203
0.000232987
0.000231949
0.000195798
0.000114229
0.000232987
2.41355e-05
2.41354e-05
0.000195821
0.000232987
0.000114209
0.000231948
0.0001958
0.000232987
0.000114234
6.39575e-05
6.39453e-05
0.000230099
6.39642e-05
6.39519e-05
9.87234e-05
4.26368e-05
9.87087e-05
4.26363e-05
2.41376e-05
2.41375e-05
9.87342e-05
4.26343e-05
9.8722e-05
4.26338e-05
0.000233208
0.000233208
0.000233208
0.000233208
0.000233208
0.000233208
0.000233208
0.000195819
0.000114203
0.000232987
0.000231949
0.000195798
0.000114229
0.000232987
2.41355e-05
2.41354e-05
0.000195821
0.000232987
0.000114209
0.000231948
0.0001958
0.000232987
0.000114234
6.39575e-05
6.39455e-05
0.000230099
6.39643e-05
6.39521e-05
9.87234e-05
4.26368e-05
9.87087e-05
4.26363e-05
2.41376e-05
2.41375e-05
9.87343e-05
4.26343e-05
9.8722e-05
4.26338e-05
0.000233208
0.000233208
0.000233208
0.000233208
0.000233208
0.000233208
0.000233208
0.000195819
0.000114203
0.000232987
0.000231949
0.000195799
0.000114229
0.000232987
2.41355e-05
2.41354e-05
0.000195821
0.000232987
0.000114209
0.000231948
0.0001958
0.000232987
0.000114234
6.39575e-05
6.39453e-05
0.000230099
6.39642e-05
6.3952e-05
9.87234e-05
4.26368e-05
9.87087e-05
4.26363e-05
2.41375e-05
2.41376e-05
9.87343e-05
4.26343e-05
9.8722e-05
4.26338e-05
0.000233208
0.000233208
0.000233208
0.000233208
0.000233208
0.000233208
0.000233208
0.000195819
0.000114203
0.000232987
0.000231949
0.000195799
0.000114229
0.000232987
2.41355e-05
2.41354e-05
0.000195821
0.000232987
0.000114209
0.000231948
0.0001958
0.000232987
0.000114234
6.39575e-05
6.39453e-05
0.000230099
6.39642e-05
6.39519e-05
9.87234e-05
4.26371e-05
9.87087e-05
4.26369e-05
2.41373e-05
2.41373e-05
9.87342e-05
4.2634e-05
9.8722e-05
4.26335e-05
0.000233208
0.000233208
0.000233208
0.000233208
0.000233208
0.000233208
0.000233208
0.000195819
0.000114203
0.000232987
0.000231949
0.000195798
0.000114229
0.000232987
2.41355e-05
2.41354e-05
0.000195821
0.000232987
0.000114209
0.000231948
0.000195801
0.000232987
0.000114234
6.39575e-05
6.39455e-05
0.000230099
6.39643e-05
6.39521e-05
9.87234e-05
4.26375e-05
9.87086e-05
4.2637e-05
2.41373e-05
2.41371e-05
9.87344e-05
4.26337e-05
9.87221e-05
4.26334e-05
0.000233208
0.000233208
0.000233208
0.000233208
0.000233208
0.000233208
0.000233208
0.000195819
0.000114203
0.000232987
0.000231949
0.000195798
0.000114229
0.000232987
2.41355e-05
2.41354e-05
0.000195821
0.000232987
0.000114209
0.000231948
0.000195799
0.000232987
0.000114234
6.39575e-05
6.39454e-05
0.000230099
6.39642e-05
6.3952e-05
9.87234e-05
4.26375e-05
9.87087e-05
4.26371e-05
2.41371e-05
2.41371e-05
9.87344e-05
4.26338e-05
9.87222e-05
4.26334e-05
0.000233208
0.000233208
0.000233208
0.000233208
0.000233208
0.000233208
0.000233207
0.000195819
0.000114203
0.000232987
0.000231949
0.000195799
0.000114229
0.000232987
2.41355e-05
2.41354e-05
0.000195821
0.000232987
0.000114209
0.000231948
0.000195799
0.000232987
0.000114234
6.39574e-05
6.39454e-05
0.000230099
6.39642e-05
6.3952e-05
9.87234e-05
4.26375e-05
9.87087e-05
4.26371e-05
2.41371e-05
2.41371e-05
9.87345e-05
4.26338e-05
9.87222e-05
4.26334e-05
0.000233208
0.000233208
0.000233208
0.000233208
0.000233208
0.000233208
0.000233207
0.000195819
0.000114203
0.000232987
0.000231949
0.000195799
0.000114229
0.000232987
2.41355e-05
2.41354e-05
0.00019582
0.000232987
0.000114209
0.000231948
0.000195798
0.000232987
0.000114234
6.39574e-05
6.39454e-05
0.000230099
6.39642e-05
6.3952e-05
9.87234e-05
4.26375e-05
9.87087e-05
4.26371e-05
2.41371e-05
2.41371e-05
9.87345e-05
4.26338e-05
9.87222e-05
4.26334e-05
0.000233208
0.000233208
0.000233208
0.000233208
0.000233208
0.000233208
0.000233208
0.000195819
0.000114203
0.000232987
0.000231949
0.000195799
0.000114229
0.000232987
2.41355e-05
2.41354e-05
0.00019582
0.000232987
0.000114209
0.000231948
0.000195798
0.000232987
0.000114234
6.39575e-05
6.39453e-05
0.000230099
6.39642e-05
6.3952e-05
9.87235e-05
4.26374e-05
9.87087e-05
4.26371e-05
2.41371e-05
2.41371e-05
9.87345e-05
4.26338e-05
9.87223e-05
4.26334e-05
0.000233208
0.000233208
0.000233208
0.000233208
0.000233208
0.000233208
0.000233208
0.00019582
0.000114203
0.000232987
0.000231949
0.000195799
0.000114229
0.000232987
2.41355e-05
2.41354e-05
0.00019582
0.000232987
0.000114209
0.000231948
0.000195798
0.000232987
0.000114234
6.39575e-05
6.39453e-05
0.000230099
6.39643e-05
6.39519e-05
9.87234e-05
4.26375e-05
9.87086e-05
4.26371e-05
2.41371e-05
2.41371e-05
9.87344e-05
4.26338e-05
9.87222e-05
4.26334e-05
0.000233208
0.000233208
0.000233208
0.000233208
0.000233208
0.000233208
0.000233207
0.000195819
0.000114203
0.000232987
0.000231949
0.000195799
0.000114229
0.000232987
2.41355e-05
2.41353e-05
0.00019582
0.000232987
0.000114209
0.000231948
0.000195798
0.000232987
0.000114234
6.39574e-05
6.39451e-05
0.000230099
6.39641e-05
6.39518e-05
4.26375e-05
9.87085e-05
2.41371e-05
4.26338e-05
9.8722e-05
0.000233208
0.000233208
0.000233208
0.000114202
0.000232988
0.000195798
2.41355e-05
0.000232988
0.000114209
0.000195798
6.3957e-05
6.39449e-05
2.41204e-05
2.41219e-05
2.41196e-05
2.41208e-05
0.00023013
6.41174e-05
6.41143e-05
6.41025e-05
6.41068e-05
9.89098e-05
4.2616e-05
4.26158e-05
9.89299e-05
9.89092e-05
4.2616e-05
4.26162e-05
9.89294e-05
0.000195994
0.000231969
0.000114437
0.000232997
0.00011439
0.000232998
0.000196021
0.000195994
0.000231969
0.000114441
0.000232997
0.000114396
0.000232998
0.000196022
2.41206e-05
6.4119e-05
6.4115e-05
2.41208e-05
9.89223e-05
4.26136e-05
4.26134e-05
9.89396e-05
0.000195998
0.000231969
0.000114435
0.000232997
0.000114391
0.000232998
0.000196024
9.89186e-05
4.26112e-05
4.26112e-05
9.89352e-05
0.000195994
0.000231968
0.000232997
0.00011442
0.000232998
0.000114373
0.000196021
0.000114449
0.000232997
0.000232998
0.00019602
4.26144e-05
9.89348e-05
0.000231969
0.000232997
0.000114453
0.000232998
0.000196021
4.26127e-05
9.89345e-05
2.41186e-05
2.41199e-05
0.000230129
6.40993e-05
6.41257e-05
6.40873e-05
6.41176e-05
2.41203e-05
2.41214e-05
0.000195997
0.000231969
0.000232997
0.000114445
0.000232998
0.000114401
0.000196021
0.000195996
0.000231969
0.000232997
0.000114435
0.000232998
0.000114391
0.000196024
9.892e-05
4.2613e-05
4.26131e-05
9.89365e-05
9.89207e-05
4.26125e-05
4.26126e-05
9.89377e-05
0.000230131
6.41269e-05
6.41142e-05
6.41073e-05
2.41202e-05
2.41194e-05
2.41206e-05
2.41204e-05
2.41207e-05
2.41194e-05
2.41198e-05
6.41152e-05
6.41195e-05
0.000230135
6.41157e-05
6.41149e-05
2.41355e-05
2.41221e-05
2.41347e-05
2.41212e-05
0.0002301
6.39963e-05
6.39867e-05
6.40919e-05
6.40978e-05
9.89221e-05
4.2616e-05
9.89252e-05
4.26164e-05
0.000196009
0.000114421
0.000232996
0.000231963
0.000196004
0.000114424
0.000232992
0.000196009
0.000114428
0.000232996
0.000231964
0.000196003
0.000114432
0.000232992
9.88921e-05
4.26335e-05
4.2618e-05
9.87741e-05
9.88923e-05
4.26324e-05
4.26177e-05
9.87742e-05
0.000195971
0.000231945
0.000114284
0.000232967
0.000114383
0.000232976
0.000195861
0.000195971
0.00023195
0.000114313
0.000232967
0.0001144
0.000232976
0.00019586
6.41203e-05
6.41155e-05
0.00023014
6.41291e-05
6.41252e-05
2.41208e-05
2.41203e-05
2.41267e-05
2.41194e-05
0.000230115
6.40777e-05
6.40823e-05
6.41294e-05
6.4119e-05
2.41266e-05
2.41202e-05
0.000196012
0.000114421
0.000232996
0.000231964
0.000196007
0.000114421
0.000232992
9.89274e-05
4.26112e-05
9.89335e-05
4.26117e-05
0.000196008
0.000232996
0.000114404
0.000231962
0.000196002
0.000232991
0.000114406
9.89063e-05
4.26311e-05
4.26156e-05
9.87778e-05
0.000195974
0.000231946
0.000114278
0.000232967
0.000114382
0.000232976
0.000195861
9.89031e-05
4.26291e-05
4.26134e-05
9.87764e-05
0.00019597
0.000231944
0.000232966
0.000114266
0.000232975
0.000114365
0.000195859
9.89323e-05
4.26144e-05
9.89299e-05
4.26148e-05
0.000196016
0.000232996
0.000114439
0.000231964
0.000196006
0.000232992
0.000114446
9.8932e-05
4.26127e-05
9.89295e-05
4.26132e-05
0.000195991
0.000231962
0.000114376
0.000232969
0.000114426
0.00023298
0.000195905
9.89152e-05
4.26214e-05
4.26147e-05
9.8825e-05
0.00019599
0.000231948
0.000232968
0.000114335
0.000232978
0.000114417
0.000195903
9.89147e-05
4.26266e-05
4.26136e-05
9.88242e-05
6.40984e-05
6.41305e-05
0.000230134
6.40992e-05
6.41264e-05
2.412e-05
2.41204e-05
2.41333e-05
2.41202e-05
0.0002301
6.39779e-05
6.39974e-05
6.40754e-05
6.41081e-05
2.41354e-05
2.41218e-05
0.000196012
0.000232996
0.000114421
0.000231963
0.000196005
0.000232992
0.000114421
9.89289e-05
4.26129e-05
9.89349e-05
4.26136e-05
9.89298e-05
4.26125e-05
9.89356e-05
4.26131e-05
0.000195976
0.000231946
0.000232967
0.000114286
0.000232975
0.000114392
0.000195865
0.000195974
0.000231946
0.000232966
0.000114278
0.000232975
0.000114382
0.000195863
9.89048e-05
4.26311e-05
4.26153e-05
9.87782e-05
9.8905e-05
4.26305e-05
4.26147e-05
9.8778e-05
2.41199e-05
2.41197e-05
2.41191e-05
2.41195e-05
0.000230104
6.40392e-05
6.39855e-05
6.41271e-05
6.40963e-05
2.41315e-05
2.412e-05
2.41344e-05
2.41208e-05
2.41371e-05
2.41374e-05
2.41361e-05
2.41366e-05
6.39633e-05
6.39599e-05
0.000230095
6.39486e-05
6.3951e-05
2.41373e-05
2.4137e-05
2.41365e-05
2.41361e-05
0.000230082
6.39495e-05
6.39518e-05
6.39422e-05
6.39525e-05
9.87222e-05
4.26357e-05
9.87318e-05
4.26369e-05
0.000195817
0.000114233
0.000232974
0.000231942
0.000195819
0.000114226
0.000232981
0.000195817
0.000114259
0.000232974
0.000231942
0.000195818
0.000114233
0.000232981
9.87158e-05
4.26364e-05
4.26363e-05
9.87239e-05
9.8716e-05
4.26366e-05
4.26365e-05
9.87232e-05
0.000195803
0.000231946
0.000114225
0.000232987
0.000114207
0.000232985
0.00019582
0.000195803
0.000231945
0.000114229
0.000232987
0.000114215
0.000232985
0.00019582
6.4021e-05
6.40232e-05
0.000230088
6.39534e-05
6.39578e-05
2.41326e-05
2.41377e-05
2.41372e-05
2.41372e-05
0.000230075
6.39531e-05
6.39506e-05
6.39524e-05
6.39478e-05
2.41376e-05
2.41375e-05
0.000195819
0.000114231
0.000232974
0.000231943
0.000195819
0.000114225
0.000232981
9.87292e-05
4.26316e-05
9.8737e-05
4.26319e-05
0.000195817
0.000232974
0.000114215
0.000231941
0.000195816
0.000232981
0.000114208
9.8729e-05
4.26339e-05
4.26338e-05
9.87351e-05
0.000195805
0.000231946
0.000114225
0.000232987
0.000114209
0.000232985
0.000195824
9.87252e-05
4.26317e-05
4.26315e-05
9.87299e-05
0.000195802
0.000231945
0.000232987
0.000114208
0.000232985
0.00011419
0.00019582
9.8721e-05
4.26291e-05
9.87597e-05
4.26358e-05
0.000195818
0.000232974
0.00011427
0.000231942
0.000195844
0.000232981
0.000114236
9.8721e-05
4.26317e-05
9.87591e-05
4.26342e-05
0.000195803
0.000231944
0.000114229
0.000232987
0.000114215
0.000232985
0.000195818
9.87141e-05
4.26357e-05
4.26356e-05
9.87222e-05
0.000195802
0.000231946
0.000232987
0.000114232
0.000232985
0.000114218
0.000195819
9.87139e-05
4.26339e-05
4.26339e-05
9.87218e-05
6.39454e-05
6.39704e-05
0.000230095
6.39317e-05
6.39617e-05
2.41367e-05
2.41372e-05
2.41353e-05
2.41352e-05
0.000230082
6.39344e-05
6.39628e-05
6.39268e-05
6.39626e-05
2.41372e-05
2.41367e-05
0.000195819
0.000232974
0.000114231
0.000231942
0.000195819
0.000232981
0.000114225
9.87302e-05
4.26335e-05
9.87385e-05
4.26338e-05
9.87311e-05
4.26329e-05
9.87382e-05
4.26333e-05
0.000195804
0.000231947
0.000232987
0.000114234
0.000232986
0.000114219
0.00019582
0.000195803
0.000231946
0.000232987
0.000114224
0.000232985
0.000114208
0.000195823
9.87263e-05
4.26336e-05
4.26334e-05
9.87312e-05
9.87269e-05
4.26331e-05
4.26329e-05
9.87322e-05
2.41351e-05
2.41372e-05
2.41358e-05
2.41363e-05
0.000230084
6.39635e-05
6.39517e-05
6.39632e-05
6.39521e-05
2.4137e-05
2.41367e-05
2.41363e-05
2.41359e-05
2.4137e-05
2.41375e-05
2.41363e-05
2.41366e-05
6.39444e-05
6.39529e-05
0.000230098
6.395e-05
6.39518e-05
2.41373e-05
2.4137e-05
2.41364e-05
2.4136e-05
0.000230083
6.39503e-05
6.39519e-05
6.39434e-05
6.3953e-05
9.8723e-05
4.26362e-05
9.87171e-05
4.26367e-05
0.000195819
0.000114207
0.000232987
0.000231948
0.000195806
0.000114225
0.000232987
0.000195819
0.000114214
0.000232987
0.000231947
0.000195806
0.000114229
0.000232987
9.87172e-05
4.26363e-05
4.26359e-05
9.87241e-05
9.87165e-05
4.26366e-05
4.26363e-05
9.87233e-05
0.000195805
0.000231948
0.000114225
0.000232987
0.000114207
0.000232987
0.00019582
0.000195804
0.000231948
0.000114229
0.000232987
0.000114214
0.000232987
0.00019582
6.39539e-05
6.39456e-05
0.000230099
6.3954e-05
6.39504e-05
2.41373e-05
2.41377e-05
2.41372e-05
2.41371e-05
0.000230084
6.39543e-05
6.39516e-05
6.39549e-05
6.39438e-05
2.41376e-05
2.41373e-05
0.000195822
0.000114209
0.000232987
0.000231948
0.00019581
0.000114224
0.000232987
9.87299e-05
4.26313e-05
9.87262e-05
4.26317e-05
0.000195818
0.000232987
0.00011419
0.000231947
0.000195806
0.000232987
0.000114207
9.87304e-05
4.26339e-05
4.26335e-05
9.87355e-05
0.000195807
0.000231949
0.000114225
0.000232987
0.000114209
0.000232987
0.000195824
9.87257e-05
4.26317e-05
4.26313e-05
9.87299e-05
0.000195803
0.000231947
0.000232987
0.000114208
0.000232987
0.00011419
0.00019582
9.87218e-05
4.26353e-05
9.87162e-05
4.26356e-05
0.00019582
0.000232987
0.000114217
0.000231947
0.000195806
0.000232987
0.000114233
9.87215e-05
4.26335e-05
9.87157e-05
4.26339e-05
0.000195805
0.000231949
0.00011423
0.000232988
0.000114212
0.000232988
0.000195818
9.87154e-05
4.26355e-05
4.26352e-05
9.87223e-05
0.000195804
0.000231948
0.000232987
0.000114233
0.000232987
0.000114217
0.000195819
9.8715e-05
4.26338e-05
4.26334e-05
9.8722e-05
6.39304e-05
6.39635e-05
0.000230098
6.39348e-05
6.39628e-05
2.4137e-05
2.41372e-05
2.41352e-05
2.41351e-05
0.000230083
6.39339e-05
6.3963e-05
6.39287e-05
6.39635e-05
2.4137e-05
2.41367e-05
0.000195823
0.000232988
0.000114208
0.000231948
0.000195808
0.000232988
0.000114224
9.87311e-05
4.26332e-05
9.87275e-05
4.26336e-05
9.87324e-05
4.26327e-05
9.87282e-05
4.26332e-05
0.000195807
0.000231948
0.000232987
0.000114234
0.000232988
0.000114219
0.00019582
0.000195805
0.000231948
0.000232987
0.000114224
0.000232987
0.000114208
0.000195823
9.8727e-05
4.26335e-05
4.26332e-05
9.87314e-05
9.87279e-05
4.26331e-05
4.26328e-05
9.87325e-05
2.41369e-05
2.4137e-05
2.41361e-05
2.41363e-05
0.000230085
6.3964e-05
6.39517e-05
6.3965e-05
6.39528e-05
2.41369e-05
2.41365e-05
2.41362e-05
2.41358e-05
2.4137e-05
2.41374e-05
2.41363e-05
2.41366e-05
6.3945e-05
6.39529e-05
0.000230099
6.39496e-05
6.39519e-05
2.41373e-05
2.4137e-05
2.41364e-05
2.41361e-05
0.000230084
6.39507e-05
6.39519e-05
6.3943e-05
6.39531e-05
9.87229e-05
4.26362e-05
9.87172e-05
4.26367e-05
0.000195819
0.000114207
0.000232987
0.000231948
0.000195805
0.000114225
0.000232987
0.000195819
0.000114214
0.000232987
0.000231948
0.000195805
0.000114229
0.000232987
9.87172e-05
4.26363e-05
4.26359e-05
9.87241e-05
9.87165e-05
4.26365e-05
4.26363e-05
9.87233e-05
0.000195806
0.000231948
0.000114225
0.000232987
0.000114207
0.000232987
0.00019582
0.000195804
0.000231948
0.000114229
0.000232987
0.000114214
0.000232987
0.00019582
6.39547e-05
6.39463e-05
0.000230099
6.39542e-05
6.39505e-05
2.41374e-05
2.41377e-05
2.41372e-05
2.41371e-05
0.000230085
6.39543e-05
6.39513e-05
6.3955e-05
6.39442e-05
2.41376e-05
2.41373e-05
0.000195822
0.000114209
0.000232987
0.000231948
0.000195809
0.000114224
0.000232987
9.87298e-05
4.26313e-05
9.87261e-05
4.26318e-05
0.000195818
0.000232987
0.00011419
0.000231947
0.000195805
0.000232987
0.000114207
9.87304e-05
4.26339e-05
4.26335e-05
9.87355e-05
0.000195808
0.000231949
0.000114225
0.000232987
0.000114209
0.000232987
0.000195824
9.87257e-05
4.26317e-05
4.26314e-05
9.87299e-05
0.000195804
0.000231947
0.000232987
0.000114208
0.000232987
0.00011419
0.00019582
9.87218e-05
4.26352e-05
9.87163e-05
4.26357e-05
0.000195819
0.000232987
0.000114217
0.000231948
0.000195805
0.000232987
0.000114233
9.87216e-05
4.26334e-05
9.87159e-05
4.26339e-05
0.000195805
0.000231949
0.00011423
0.000232988
0.000114212
0.000232988
0.000195818
9.87153e-05
4.26355e-05
4.26352e-05
9.87224e-05
0.000195804
0.000231948
0.000232987
0.000114233
0.000232987
0.000114217
0.000195819
9.87151e-05
4.26338e-05
4.26335e-05
9.87219e-05
6.39301e-05
6.39635e-05
0.000230098
6.39348e-05
6.39627e-05
2.41369e-05
2.41371e-05
2.41352e-05
2.41351e-05
0.000230083
6.39339e-05
6.39629e-05
6.39286e-05
6.39635e-05
2.41371e-05
2.41367e-05
0.000195822
0.000232987
0.000114208
0.000231948
0.000195806
0.000232987
0.000114224
9.87311e-05
4.26332e-05
9.87276e-05
4.26337e-05
9.87324e-05
4.26327e-05
9.87283e-05
4.26332e-05
0.000195807
0.000231949
0.000232988
0.000114234
0.000232988
0.000114219
0.00019582
0.000195806
0.000231948
0.000232987
0.000114224
0.000232987
0.000114208
0.000195823
9.8727e-05
4.26336e-05
4.26333e-05
9.87313e-05
9.87278e-05
4.26331e-05
4.26327e-05
9.87325e-05
2.41368e-05
2.4137e-05
2.41361e-05
2.41363e-05
0.000230085
6.3964e-05
6.39517e-05
6.39649e-05
6.39528e-05
2.41369e-05
2.41365e-05
2.41362e-05
2.41358e-05
2.41371e-05
2.41374e-05
2.41363e-05
2.41366e-05
6.39451e-05
6.39529e-05
0.000230099
6.39495e-05
6.39519e-05
2.41373e-05
2.4137e-05
2.41364e-05
2.41361e-05
0.000230084
6.39507e-05
6.39519e-05
6.39431e-05
6.39531e-05
9.87228e-05
4.26362e-05
9.87172e-05
4.26367e-05
0.000195819
0.000114207
0.000232987
0.000231948
0.000195805
0.000114225
0.000232987
0.000195819
0.000114214
0.000232987
0.000231948
0.000195805
0.000114229
0.000232987
9.87172e-05
4.26363e-05
4.26359e-05
9.87241e-05
9.87164e-05
4.26365e-05
4.26363e-05
9.87232e-05
0.000195806
0.000231948
0.000114225
0.000232987
0.000114207
0.000232987
0.00019582
0.000195804
0.000231948
0.000114229
0.000232987
0.000114214
0.000232987
0.000195819
6.39546e-05
6.39461e-05
0.000230099
6.39541e-05
6.39506e-05
2.41374e-05
2.41377e-05
2.41372e-05
2.41371e-05
0.000230085
6.39543e-05
6.39513e-05
6.39549e-05
6.39443e-05
2.41376e-05
2.41373e-05
0.000195822
0.000114209
0.000232987
0.000231948
0.000195809
0.000114224
0.000232987
9.87298e-05
4.26313e-05
9.87261e-05
4.26318e-05
0.000195818
0.000232987
0.00011419
0.000231947
0.000195805
0.000232987
0.000114207
9.87305e-05
4.26339e-05
4.26335e-05
9.87355e-05
0.000195808
0.000231949
0.000114225
0.000232987
0.000114209
0.000232987
0.000195824
9.87257e-05
4.26317e-05
4.26313e-05
9.873e-05
0.000195804
0.000231947
0.000232987
0.000114208
0.000232987
0.00011419
0.00019582
9.8722e-05
4.26352e-05
9.87164e-05
4.26356e-05
0.000195819
0.000232988
0.000114217
0.000231948
0.000195805
0.000232987
0.000114233
9.87216e-05
4.26334e-05
9.87158e-05
4.26339e-05
0.000195805
0.000231949
0.00011423
0.000232988
0.000114212
0.000232988
0.000195818
9.87155e-05
4.26355e-05
4.26352e-05
9.87223e-05
0.000195804
0.000231948
0.000232987
0.000114233
0.000232987
0.000114217
0.000195819
9.8715e-05
4.26338e-05
4.26335e-05
9.87219e-05
6.39301e-05
6.39635e-05
0.000230098
6.39348e-05
6.39628e-05
2.41369e-05
2.41371e-05
2.41352e-05
2.41351e-05
0.000230084
6.39339e-05
6.3963e-05
6.39286e-05
6.39635e-05
2.41371e-05
2.41367e-05
0.000195822
0.000232987
0.000114208
0.000231948
0.000195806
0.000232987
0.000114224
9.87311e-05
4.26332e-05
9.87276e-05
4.26337e-05
9.87323e-05
4.26327e-05
9.87283e-05
4.26332e-05
0.000195807
0.000231949
0.000232988
0.000114234
0.000232988
0.000114219
0.00019582
0.000195806
0.000231948
0.000232987
0.000114224
0.000232987
0.000114208
0.000195822
9.8727e-05
4.26336e-05
4.26333e-05
9.87313e-05
9.87277e-05
4.26331e-05
4.26328e-05
9.87323e-05
2.41368e-05
2.4137e-05
2.41361e-05
2.41363e-05
0.000230085
6.3964e-05
6.39516e-05
6.3965e-05
6.39527e-05
2.41369e-05
2.41365e-05
2.41362e-05
2.41358e-05
2.41371e-05
2.41374e-05
2.41363e-05
2.41366e-05
6.39451e-05
6.39529e-05
0.000230099
6.39495e-05
6.39519e-05
2.41373e-05
2.4137e-05
2.41364e-05
2.41361e-05
0.000230084
6.39507e-05
6.39519e-05
6.39431e-05
6.39531e-05
9.87228e-05
4.26362e-05
9.87171e-05
4.26367e-05
0.000195819
0.000114207
0.000232987
0.000231948
0.000195805
0.000114225
0.000232987
0.000195819
0.000114214
0.000232987
0.000231948
0.000195805
0.000114229
0.000232987
9.87172e-05
4.26363e-05
4.26359e-05
9.87241e-05
9.87163e-05
4.26365e-05
4.26363e-05
9.87232e-05
0.000195806
0.000231948
0.000114225
0.000232987
0.000114207
0.000232987
0.00019582
0.000195804
0.000231948
0.000114229
0.000232987
0.000114214
0.000232987
0.000195819
6.39546e-05
6.3946e-05
0.000230099
6.39541e-05
6.39506e-05
2.41374e-05
2.41377e-05
2.41372e-05
2.41371e-05
0.000230085
6.39543e-05
6.39513e-05
6.39549e-05
6.39443e-05
2.41376e-05
2.41373e-05
0.000195822
0.000114209
0.000232988
0.000231948
0.000195809
0.000114224
0.000232987
9.87298e-05
4.26313e-05
9.87261e-05
4.26318e-05
0.000195818
0.000232987
0.00011419
0.000231947
0.000195805
0.000232987
0.000114207
9.87305e-05
4.26339e-05
4.26335e-05
9.87355e-05
0.000195808
0.000231949
0.000114225
0.000232987
0.000114209
0.000232988
0.000195824
9.87257e-05
4.26317e-05
4.26313e-05
9.87299e-05
0.000195803
0.000231947
0.000232987
0.000114208
0.000232987
0.00011419
0.00019582
9.87217e-05
4.26352e-05
9.87163e-05
4.26356e-05
0.000195819
0.000232988
0.000114217
0.000231948
0.000195805
0.000232987
0.000114233
9.87216e-05
4.26334e-05
9.87158e-05
4.26339e-05