/*--------------------------------*- C++ -*----------------------------------*\
| =========                 |                                                 |
| \\      /  F ield         | OpenFOAM: The Open Source CFD Toolbox           |
|  \\    /   O peration     | Version:  2206                                  |
|   \\  /    A nd           | Website:  www.openfoam.com                      |
|    \\/     M anipulation  |                                                 |
\*---------------------------------------------------------------------------*/
FoamFile
{
    version     2.0;
    format      ascii;
    arch        "LSB;label=32;scalar=64";
    class       volScalarField;
    location    "16";
    object      k;
}
// * * * * * * * * * * * * * * * * * * * * * * * * * * * * * * * * * * * * * //

dimensions      [0 2 -2 0 0 0 0];

internalField   nonuniform List<scalar> 
28687
(
3.04163e-05
3.02451e-05
3.02451e-05
3.00047e-05
3.04162e-05
3.02451e-05
3.02449e-05
3.00052e-05
3.04161e-05
3.02451e-05
3.02448e-05
3.00053e-05
3.0415e-05
3.02429e-05
3.02437e-05
3.00038e-05
3.04076e-05
3.02353e-05
3.02355e-05
2.99949e-05
3.04068e-05
3.0235e-05
3.02349e-05
2.99945e-05
3.04068e-05
3.0235e-05
3.0235e-05
2.99945e-05
3.04068e-05
3.0235e-05
3.0235e-05
2.99945e-05
3.04068e-05
3.0235e-05
3.0235e-05
2.99945e-05
3.04068e-05
3.0235e-05
3.0235e-05
2.99945e-05
3.04068e-05
3.0235e-05
3.0235e-05
2.99945e-05
3.04068e-05
3.0235e-05
3.0235e-05
2.99945e-05
3.04068e-05
3.0235e-05
3.0235e-05
2.99945e-05
3.04068e-05
3.0235e-05
3.0235e-05
2.99945e-05
3.04068e-05
3.0235e-05
3.0235e-05
2.99945e-05
3.04068e-05
3.0235e-05
3.0235e-05
2.99945e-05
3.04068e-05
3.0235e-05
3.0235e-05
2.99945e-05
3.04068e-05
3.0235e-05
3.0235e-05
2.99945e-05
3.0245e-05
3.00071e-05
3.02451e-05
3.00046e-05
3.00071e-05
3.0245e-05
3.0245e-05
3.02449e-05
3.02449e-05
3.00056e-05
3.00071e-05
3.02451e-05
3.02448e-05
3.0245e-05
3.02448e-05
3.0245e-05
3.02451e-05
3.02449e-05
3.00044e-05
3.00069e-05
3.02451e-05
3.0245e-05
3.0245e-05
3.0007e-05
3.00055e-05
3.00071e-05
3.02449e-05
3.0245e-05
3.02448e-05
3.0245e-05
3.00056e-05
3.00073e-05
3.0245e-05
3.02448e-05
3.02449e-05
3.02447e-05
3.02449e-05
3.02452e-05
3.02448e-05
3.00054e-05
3.00069e-05
3.0245e-05
3.02448e-05
3.0245e-05
3.00071e-05
3.00056e-05
3.00063e-05
3.02448e-05
3.02451e-05
3.02443e-05
3.02441e-05
3.00057e-05
3.00056e-05
3.02449e-05
3.02447e-05
3.02444e-05
3.02442e-05
3.02448e-05
3.02444e-05
3.02444e-05
3.00054e-05
3.00062e-05
3.0245e-05
3.02444e-05
3.02445e-05
3.00064e-05
3.00042e-05
2.99976e-05
3.02437e-05
3.02425e-05
3.02366e-05
3.02358e-05
3.00027e-05
2.99966e-05
3.02438e-05
3.02436e-05
3.02367e-05
3.02365e-05
3.02437e-05
3.02361e-05
3.02366e-05
3.00041e-05
2.99974e-05
3.02438e-05
3.02367e-05
3.02368e-05
2.99976e-05
2.99952e-05
2.99963e-05
3.02356e-05
3.02352e-05
3.02348e-05
3.02348e-05
2.99948e-05
2.99963e-05
3.02357e-05
3.02355e-05
3.02349e-05
3.02347e-05
3.02356e-05
3.0235e-05
3.02348e-05
2.99951e-05
2.99962e-05
3.02357e-05
3.02349e-05
3.0235e-05
2.99963e-05
2.99948e-05
2.99963e-05
3.0235e-05
3.0235e-05
3.02349e-05
3.02349e-05
2.99947e-05
2.99963e-05
3.02351e-05
3.02349e-05
3.0235e-05
3.02348e-05
3.0235e-05
3.0235e-05
3.02349e-05
2.99947e-05
2.99961e-05
3.02351e-05
3.0235e-05
3.0235e-05
2.99963e-05
2.99947e-05
2.99963e-05
3.0235e-05
3.0235e-05
3.02349e-05
3.02349e-05
2.99947e-05
2.99963e-05
3.02351e-05
3.02349e-05
3.0235e-05
3.02348e-05
3.0235e-05
3.0235e-05
3.02349e-05
2.99946e-05
2.99961e-05
3.02351e-05
3.0235e-05
3.0235e-05
2.99963e-05
2.99947e-05
2.99963e-05
3.0235e-05
3.0235e-05
3.02349e-05
3.02349e-05
2.99947e-05
2.99963e-05
3.02351e-05
3.02349e-05
3.0235e-05
3.02348e-05
3.0235e-05
3.02351e-05
3.02349e-05
2.99946e-05
2.99961e-05
3.02351e-05
3.0235e-05
3.0235e-05
2.99963e-05
2.99947e-05
2.99963e-05
3.0235e-05
3.0235e-05
3.02349e-05
3.02349e-05
2.99947e-05
2.99963e-05
3.02351e-05
3.02349e-05
3.0235e-05
3.02348e-05
3.0235e-05
3.0235e-05
3.02349e-05
2.99946e-05
2.99961e-05
3.02351e-05
3.0235e-05
3.0235e-05
2.99963e-05
2.99947e-05
2.99963e-05
3.0235e-05
3.0235e-05
3.02349e-05
3.02349e-05
2.99947e-05
2.99963e-05
3.02351e-05
3.02349e-05
3.0235e-05
3.02348e-05
3.0235e-05
3.0235e-05
3.02349e-05
2.99946e-05
2.99961e-05
3.02351e-05
3.0235e-05
3.0235e-05
2.99963e-05
2.99947e-05
2.99963e-05
3.0235e-05
3.0235e-05
3.02349e-05
3.02349e-05
2.99947e-05
2.99963e-05
3.02351e-05
3.02349e-05
3.0235e-05
3.02348e-05
3.0235e-05
3.0235e-05
3.02349e-05
2.99946e-05
2.99961e-05
3.02351e-05
3.0235e-05
3.0235e-05
2.99963e-05
2.99947e-05
2.99962e-05
3.0235e-05
3.0235e-05
3.02349e-05
3.02349e-05
2.99947e-05
2.99962e-05
3.02351e-05
3.02349e-05
3.0235e-05
3.02348e-05
3.0235e-05
3.0235e-05
3.02349e-05
2.99946e-05
2.99961e-05
3.02351e-05
3.0235e-05
3.0235e-05
2.99963e-05
2.99947e-05
2.99963e-05
3.0235e-05
3.0235e-05
3.02349e-05
3.02349e-05
2.99947e-05
2.99962e-05
3.02351e-05
3.02349e-05
3.0235e-05
3.02348e-05
3.0235e-05
3.0235e-05
3.02349e-05
2.99946e-05
2.99961e-05
3.02351e-05
3.0235e-05
3.0235e-05
2.99963e-05
2.99947e-05
2.99963e-05
3.0235e-05
3.0235e-05
3.02349e-05
3.02349e-05
2.99947e-05
2.99962e-05
3.02351e-05
3.02349e-05
3.0235e-05
3.02348e-05
3.0235e-05
3.0235e-05
3.02349e-05
2.99946e-05
2.99961e-05
3.02351e-05
3.0235e-05
3.0235e-05
2.99963e-05
2.99947e-05
2.99963e-05
3.0235e-05
3.0235e-05
3.02349e-05
3.02349e-05
2.99947e-05
2.99963e-05
3.02351e-05
3.02349e-05
3.0235e-05
3.02348e-05
3.0235e-05
3.0235e-05
3.02349e-05
2.99946e-05
2.99961e-05
3.02351e-05
3.0235e-05
3.0235e-05
2.99963e-05
2.99947e-05
2.99963e-05
3.0235e-05
3.0235e-05
3.02349e-05
3.02349e-05
2.99947e-05
2.99962e-05
3.02351e-05
3.02349e-05
3.0235e-05
3.02348e-05
3.0235e-05
3.0235e-05
3.02349e-05
2.99946e-05
2.99961e-05
3.02351e-05
3.0235e-05
3.0235e-05
2.99963e-05
2.99947e-05
2.99963e-05
3.0235e-05
3.0235e-05
3.02349e-05
3.02349e-05
2.99947e-05
2.99962e-05
3.02351e-05
3.02349e-05
3.0235e-05
3.02348e-05
3.0235e-05
3.0235e-05
3.02349e-05
2.99946e-05
2.99961e-05
3.02351e-05
3.0235e-05
3.0235e-05
2.99963e-05
2.99947e-05
3.02349e-05
3.02349e-05
2.99947e-05
3.02351e-05
3.02348e-05
3.0235e-05
2.99946e-05
3.02351e-05
3.1244e-05
6.57184e-05
3.1245e-05
6.57148e-05
8.48592e-05
8.48515e-05
3.12446e-05
6.57206e-05
3.12453e-05
6.57166e-05
3.04166e-05
3.04163e-05
3.04163e-05
3.04162e-05
3.04164e-05
3.04162e-05
3.04162e-05
2.94312e-05
3.0917e-05
3.0359e-05
3.02453e-05
2.94313e-05
3.09153e-05
3.0359e-05
8.48601e-05
8.48525e-05
2.94313e-05
3.03588e-05
3.09164e-05
3.02451e-05
2.94315e-05
3.03588e-05
3.09147e-05
3.32631e-05
3.32634e-05
3.00071e-05
3.32649e-05
3.32653e-05
3.12466e-05
6.57155e-05
3.12471e-05
6.5713e-05
8.48474e-05
8.48446e-05
3.12472e-05
6.57175e-05
3.12474e-05
6.57147e-05
3.04164e-05
3.04162e-05
3.04162e-05
3.04161e-05
3.04163e-05
3.0416e-05
3.04161e-05
2.94316e-05
3.09179e-05
3.03588e-05
3.02452e-05
2.94312e-05
3.09164e-05
3.03588e-05
8.48465e-05
8.48426e-05
2.94317e-05
3.03587e-05
3.09171e-05
3.02449e-05
2.94313e-05
3.03587e-05
3.09156e-05
3.327e-05
3.32703e-05
3.00071e-05
3.3271e-05
3.32713e-05
3.12478e-05
6.57141e-05
3.1249e-05
6.5712e-05
8.4845e-05
8.48455e-05
3.12484e-05
6.57161e-05
3.12493e-05
6.57139e-05
3.04162e-05
3.0416e-05
3.0416e-05
3.04157e-05
3.04157e-05
3.04156e-05
3.04156e-05
2.94318e-05
3.09196e-05
3.03587e-05
3.0245e-05
2.9432e-05
3.09176e-05
3.03587e-05
8.48428e-05
8.48414e-05
2.94319e-05
3.03586e-05
3.09187e-05
3.02448e-05
2.9432e-05
3.03586e-05
3.09171e-05
3.32744e-05
3.32748e-05
3.00071e-05
3.32741e-05
3.32744e-05
3.12443e-05
6.57182e-05
3.12478e-05
6.57277e-05
8.48571e-05
8.48595e-05
3.12449e-05
6.57206e-05
3.12482e-05
6.57291e-05
3.04147e-05
3.0415e-05
3.0415e-05
3.04088e-05
3.04084e-05
3.04087e-05
3.04087e-05
2.94269e-05
3.09184e-05
3.03574e-05
3.02402e-05
2.94307e-05
3.09128e-05
3.03552e-05
8.48502e-05
8.48552e-05
2.94272e-05
3.03575e-05
3.09183e-05
3.02417e-05
2.94307e-05
3.03555e-05
3.09138e-05
3.32738e-05
3.32741e-05
3.0003e-05
3.3271e-05
3.32714e-05
3.12359e-05
6.57372e-05
3.12386e-05
6.5735e-05
8.48605e-05
8.48593e-05
3.12366e-05
6.57392e-05
3.12389e-05
6.57368e-05
3.04075e-05
3.04077e-05
3.04077e-05
3.04068e-05
3.04069e-05
3.04069e-05
3.04069e-05
2.94191e-05
3.09088e-05
3.03497e-05
3.02352e-05
2.94192e-05
3.09056e-05
3.03494e-05
8.48584e-05
8.48564e-05
2.94193e-05
3.03497e-05
3.09097e-05
3.02352e-05
2.94193e-05
3.03494e-05
3.09061e-05
3.32621e-05
3.32624e-05
2.99964e-05
3.32597e-05
3.326e-05
3.12355e-05
6.57367e-05
3.12368e-05
6.57347e-05
8.48603e-05
8.48575e-05
3.12362e-05
6.57388e-05
3.12374e-05
6.57366e-05
3.0407e-05
3.0407e-05
3.0407e-05
3.04068e-05
3.04069e-05
3.04069e-05
3.04069e-05
2.94191e-05
3.09075e-05
3.03491e-05
3.02351e-05
2.94189e-05
3.09053e-05
3.03492e-05
8.48578e-05
8.48562e-05
2.94193e-05
3.03491e-05
3.09075e-05
3.02351e-05
2.94191e-05
3.03492e-05
3.09055e-05
3.32605e-05
3.32608e-05
2.99963e-05
3.32595e-05
3.32598e-05
3.12355e-05
6.57365e-05
3.12368e-05
6.57346e-05
8.48585e-05
8.48581e-05
3.12362e-05
6.57387e-05
3.12374e-05
6.57366e-05
3.0407e-05
3.0407e-05
3.0407e-05
3.04068e-05
3.04069e-05
3.04069e-05
3.04069e-05
2.94191e-05
3.09075e-05
3.03491e-05
3.02351e-05
2.94189e-05
3.09053e-05
3.03492e-05
8.48578e-05
8.48562e-05
2.94193e-05
3.03491e-05
3.09075e-05
3.02351e-05
2.94191e-05
3.03492e-05
3.09055e-05
3.32605e-05
3.32608e-05
2.99964e-05
3.32595e-05
3.32598e-05
3.12355e-05
6.57364e-05
3.12368e-05
6.57345e-05
8.486e-05
8.48591e-05
3.12362e-05
6.57387e-05
3.12374e-05
6.57366e-05
3.0407e-05
3.0407e-05
3.0407e-05
3.04068e-05
3.04069e-05
3.04069e-05
3.04069e-05
2.94191e-05
3.09074e-05
3.03491e-05
3.02351e-05
2.94189e-05
3.09052e-05
3.03492e-05
8.48578e-05
8.48562e-05
2.94193e-05
3.03491e-05
3.09075e-05
3.02351e-05
2.9419e-05
3.03492e-05
3.09055e-05
3.32605e-05
3.32608e-05
2.99964e-05
3.32595e-05
3.32598e-05
3.12355e-05
6.57365e-05
3.12368e-05
6.57344e-05
8.48601e-05
8.48586e-05
3.12362e-05
6.57388e-05
3.12374e-05
6.57372e-05
3.0407e-05
3.0407e-05
3.0407e-05
3.04068e-05
3.04069e-05
3.04069e-05
3.04069e-05
2.94191e-05
3.09075e-05
3.03491e-05
3.02351e-05
2.94189e-05
3.09053e-05
3.03492e-05
8.48578e-05
8.48562e-05
2.94193e-05
3.03491e-05
3.09075e-05
3.02351e-05
2.94191e-05
3.03492e-05
3.09055e-05
3.32605e-05
3.32608e-05
2.99964e-05
3.32595e-05
3.32598e-05
3.12355e-05
6.5736e-05
3.12368e-05
6.57337e-05
8.48598e-05
8.48586e-05
3.12363e-05
6.57395e-05
3.12374e-05
6.57377e-05
3.0407e-05
3.0407e-05
3.0407e-05
3.04068e-05
3.04069e-05
3.04069e-05
3.04069e-05
2.94191e-05
3.09075e-05
3.03491e-05
3.02351e-05
2.94189e-05
3.09053e-05
3.03492e-05
8.48578e-05
8.48562e-05
2.94193e-05
3.03491e-05
3.09075e-05
3.02351e-05
2.94191e-05
3.03492e-05
3.09055e-05
3.32605e-05
3.32608e-05
2.99964e-05
3.32595e-05
3.32598e-05
3.12355e-05
6.57355e-05
3.12368e-05
6.57332e-05
8.48598e-05
8.48586e-05
3.12363e-05
6.574e-05
3.12374e-05
6.5738e-05
3.0407e-05
3.0407e-05
3.0407e-05
3.04068e-05
3.04069e-05
3.04069e-05
3.04069e-05
2.94191e-05
3.09075e-05
3.03491e-05
3.02351e-05
2.94189e-05
3.09053e-05
3.03492e-05
8.48578e-05
8.48562e-05
2.94193e-05
3.03491e-05
3.09075e-05
3.02351e-05
2.9419e-05
3.03492e-05
3.09055e-05
3.32605e-05
3.32608e-05
2.99964e-05
3.32595e-05
3.32598e-05
3.12355e-05
6.57352e-05
3.12368e-05
6.57331e-05
8.48599e-05
8.48587e-05
3.12363e-05
6.57401e-05
3.12374e-05
6.57381e-05
3.0407e-05
3.0407e-05
3.0407e-05
3.04068e-05
3.04069e-05
3.04069e-05
3.04069e-05
2.94191e-05
3.09075e-05
3.03491e-05
3.02351e-05
2.94189e-05
3.09053e-05
3.03492e-05
8.48578e-05
8.48562e-05
2.94193e-05
3.03491e-05
3.09075e-05
3.02351e-05
2.94191e-05
3.03492e-05
3.09055e-05
3.32605e-05
3.32608e-05
2.99964e-05
3.32595e-05
3.32598e-05
3.12355e-05
6.57351e-05
3.12368e-05
6.5733e-05
8.48599e-05
8.48587e-05
3.12363e-05
6.57402e-05
3.12374e-05
6.57382e-05
3.0407e-05
3.0407e-05
3.0407e-05
3.04068e-05
3.04069e-05
3.04069e-05
3.04069e-05
2.94191e-05
3.09075e-05
3.03491e-05
3.02351e-05
2.94189e-05
3.09053e-05
3.03492e-05
8.48578e-05
8.48562e-05
2.94193e-05
3.03491e-05
3.09075e-05
3.02351e-05
2.9419e-05
3.03492e-05
3.09055e-05
3.32605e-05
3.32608e-05
2.99963e-05
3.32595e-05
3.32598e-05
3.12355e-05
6.57351e-05
3.12368e-05
6.5733e-05
8.486e-05
8.48588e-05
3.12363e-05
6.57402e-05
3.12374e-05
6.57382e-05
3.0407e-05
3.0407e-05
3.0407e-05
3.04068e-05
3.04069e-05
3.04069e-05
3.04069e-05
2.94191e-05
3.09075e-05
3.03491e-05
3.02351e-05
2.94189e-05
3.09053e-05
3.03492e-05
8.48578e-05
8.48562e-05
2.94193e-05
3.03491e-05
3.09075e-05
3.02351e-05
2.94191e-05
3.03492e-05
3.09055e-05
3.32605e-05
3.32608e-05
2.99963e-05
3.32595e-05
3.32598e-05
3.12355e-05
6.57351e-05
3.12368e-05
6.5733e-05
8.486e-05
8.48587e-05
3.12363e-05
6.57402e-05
3.12374e-05
6.57382e-05
3.0407e-05
3.0407e-05
3.0407e-05
3.04068e-05
3.04069e-05
3.04069e-05
3.04069e-05
2.94191e-05
3.09075e-05
3.03491e-05
3.02351e-05
2.94189e-05
3.09053e-05
3.03492e-05
8.48578e-05
8.48562e-05
2.94193e-05
3.03491e-05
3.09075e-05
3.02351e-05
2.9419e-05
3.03492e-05
3.09055e-05
3.32605e-05
3.32608e-05
2.99964e-05
3.32595e-05
3.32598e-05
3.12355e-05
6.57351e-05
3.12368e-05
6.5733e-05
8.486e-05
8.48587e-05
3.12362e-05
6.57402e-05
3.12374e-05
6.57382e-05
3.0407e-05
3.0407e-05
3.0407e-05
3.04068e-05
3.04069e-05
3.04069e-05
3.04069e-05
2.94191e-05
3.09075e-05
3.03491e-05
3.02351e-05
2.94189e-05
3.09053e-05
3.03492e-05
8.48578e-05
8.48562e-05
2.94193e-05
3.03491e-05
3.09075e-05
3.02351e-05
2.9419e-05
3.03492e-05
3.09055e-05
3.32605e-05
3.32608e-05
2.99964e-05
3.32595e-05
3.32598e-05
3.12355e-05
6.57351e-05
3.12368e-05
6.5733e-05
8.486e-05
8.48587e-05
3.12362e-05
6.57402e-05
3.12374e-05
6.57382e-05
3.0407e-05
3.0407e-05
3.0407e-05
3.04068e-05
3.04069e-05
3.04069e-05
3.04069e-05
2.94191e-05
3.09075e-05
3.03491e-05
3.02351e-05
2.94189e-05
3.09053e-05
3.03492e-05
8.48578e-05
8.48562e-05
2.94193e-05
3.03491e-05
3.09075e-05
3.02351e-05
2.94191e-05
3.03492e-05
3.09055e-05
3.32605e-05
3.32608e-05
2.99964e-05
3.32595e-05
3.32598e-05
3.12356e-05
6.57351e-05
3.12368e-05
6.57335e-05
8.486e-05
8.48588e-05
3.12362e-05
6.57402e-05
3.12374e-05
6.57388e-05
3.0407e-05
3.04069e-05
3.04069e-05
2.94191e-05
3.09075e-05
3.03491e-05
3.02351e-05
2.94189e-05
3.09053e-05
3.03493e-05
8.48578e-05
8.48563e-05
2.94196e-05
3.03491e-05
3.09075e-05
3.02351e-05
2.9419e-05
3.03493e-05
3.09057e-05
3.32605e-05
3.32608e-05
2.99966e-05
3.32595e-05
3.32596e-05
6.5717e-05
3.09153e-05
8.48596e-05
3.32633e-05
3.32593e-05
8.48553e-05
3.09145e-05
6.57147e-05
8.48618e-05
8.48549e-05
8.48629e-05
8.48559e-05
3.32632e-05
3.32634e-05
3.00071e-05
3.3265e-05
3.32652e-05
8.48482e-05
8.48544e-05
8.48494e-05
8.48554e-05
3.00055e-05
3.32684e-05
3.32685e-05
3.32671e-05
3.32672e-05
3.12441e-05
6.57181e-05
3.12451e-05
6.5716e-05
2.94312e-05
3.09163e-05
3.03588e-05
3.0245e-05
2.94313e-05
3.09146e-05
3.03588e-05
2.94313e-05
3.0918e-05
3.03589e-05
3.0245e-05
2.94314e-05
3.0916e-05
3.03589e-05
3.1246e-05
6.57138e-05
6.57156e-05
3.12454e-05
3.12462e-05
6.5715e-05
6.57168e-05
3.12456e-05
2.94317e-05
3.02449e-05
3.0915e-05
3.03588e-05
3.09172e-05
3.03588e-05
2.94315e-05
2.94318e-05
3.02449e-05
3.09163e-05
3.03589e-05
3.09185e-05
3.03589e-05
2.94317e-05
3.32658e-05
3.32623e-05
3.00071e-05
3.32673e-05
3.32636e-05
8.48556e-05
8.48474e-05
8.48469e-05
8.48512e-05
3.00056e-05
3.32705e-05
3.32667e-05
3.32695e-05
3.32661e-05
8.48427e-05
8.48479e-05
2.94314e-05
3.09173e-05
3.03588e-05
3.02451e-05
2.94316e-05
3.09155e-05
3.03588e-05
3.12441e-05
6.572e-05
3.12449e-05
6.57161e-05
2.94312e-05
3.03588e-05
3.09164e-05
3.02448e-05
2.94314e-05
3.03588e-05
3.09146e-05
3.12464e-05
6.57155e-05
6.57176e-05
3.1246e-05
2.9432e-05
3.0245e-05
3.09158e-05
3.03588e-05
3.09182e-05
3.03588e-05
2.94318e-05
3.1246e-05
6.57149e-05
6.5717e-05
3.12456e-05
2.94318e-05
3.02448e-05
3.03587e-05
3.09149e-05
3.03587e-05
3.09173e-05
2.94316e-05
3.12441e-05
6.5716e-05
3.12451e-05
6.57137e-05
2.94312e-05
3.03588e-05
3.09163e-05
3.0245e-05
2.94313e-05
3.03588e-05
3.09146e-05
3.12439e-05
6.57206e-05
3.12448e-05
6.57169e-05
2.94318e-05
3.02453e-05
3.09156e-05
3.03589e-05
3.09179e-05
3.03589e-05
2.94313e-05
3.12461e-05
6.57127e-05
6.57147e-05
3.12455e-05
2.94317e-05
3.02449e-05
3.03588e-05
3.0915e-05
3.03588e-05
3.09172e-05
2.94315e-05
3.1246e-05
6.57158e-05
6.57177e-05
3.12454e-05
3.32606e-05
3.32629e-05
3.00069e-05
3.32624e-05
3.32648e-05
8.48626e-05
8.48557e-05
8.48458e-05
8.48528e-05
3.00054e-05
3.32659e-05
3.32681e-05
3.32649e-05
3.32668e-05
8.4849e-05
8.48552e-05
2.94315e-05
3.03588e-05
3.09168e-05
3.02451e-05
2.94316e-05
3.03588e-05
3.09152e-05
3.12442e-05
6.5721e-05
3.1245e-05
6.57174e-05
3.12444e-05
6.57221e-05
3.12451e-05
6.57185e-05
2.94319e-05
3.0245e-05
3.03587e-05
3.0915e-05
3.03588e-05
3.09172e-05
2.94314e-05
2.9432e-05
3.02451e-05
3.03588e-05
3.09156e-05
3.03588e-05
3.09178e-05
2.94317e-05
3.12461e-05
6.57162e-05
6.57181e-05
3.12457e-05
3.12462e-05
6.57174e-05
6.57193e-05
3.12458e-05
8.48627e-05
8.48558e-05
8.48631e-05
8.48562e-05
3.00055e-05
3.32683e-05
3.32686e-05
3.32669e-05
3.32673e-05
8.48491e-05
8.48553e-05
8.48495e-05
8.48557e-05
8.48486e-05
8.4845e-05
8.48496e-05
8.48461e-05
3.32702e-05
3.32704e-05
3.00071e-05
3.32711e-05
3.32713e-05
8.48437e-05
8.48458e-05
8.48448e-05
8.48468e-05
3.00056e-05
3.32732e-05
3.32733e-05
3.32728e-05
3.3273e-05
3.12469e-05
6.57158e-05
3.12476e-05
6.57141e-05
2.9432e-05
3.09175e-05
3.03589e-05
3.02449e-05
2.94321e-05
3.09156e-05
3.03589e-05
2.94322e-05
3.09188e-05
3.03589e-05
3.0245e-05
2.94322e-05
3.09171e-05
3.03589e-05
3.12486e-05
6.57123e-05
6.57138e-05
3.12475e-05
3.12488e-05
6.57136e-05
6.5715e-05
3.12478e-05
2.94325e-05
3.02449e-05
3.09166e-05
3.03587e-05
3.09183e-05
3.03588e-05
2.94324e-05
2.94327e-05
3.0245e-05
3.09179e-05
3.03588e-05
3.09197e-05
3.03588e-05
2.94326e-05
3.32723e-05
3.3269e-05
3.00072e-05
3.32729e-05
3.32692e-05
8.48436e-05
8.48402e-05
8.48438e-05
8.48457e-05
3.00057e-05
3.32747e-05
3.3271e-05
3.32746e-05
3.32712e-05
8.48396e-05
8.48417e-05
2.94322e-05
3.09184e-05
3.03588e-05
3.0245e-05
2.94323e-05
3.09164e-05
3.03588e-05
3.12468e-05
6.57159e-05
3.12474e-05
6.5714e-05
2.9432e-05
3.03587e-05
3.09176e-05
3.02448e-05
2.94321e-05
3.03587e-05
3.09156e-05
3.1249e-05
6.5714e-05
6.57158e-05
3.12481e-05
2.94327e-05
3.02449e-05
3.09174e-05
3.03586e-05
3.09192e-05
3.03587e-05
2.94326e-05
3.12485e-05
6.57133e-05
6.5715e-05
3.12477e-05
2.94325e-05
3.02447e-05
3.03585e-05
3.09165e-05
3.03586e-05
3.09184e-05
2.94324e-05
3.12467e-05
6.57137e-05
3.12475e-05
6.57117e-05
2.94319e-05
3.03588e-05
3.09175e-05
3.02449e-05
2.94321e-05
3.03587e-05
3.09156e-05
3.12466e-05
6.57166e-05
3.12474e-05
6.57148e-05
2.94321e-05
3.02452e-05
3.09173e-05
3.03588e-05
3.09192e-05
3.03588e-05
2.9432e-05
3.12486e-05
6.57112e-05
6.57128e-05
3.12476e-05
2.94325e-05
3.02448e-05
3.03586e-05
3.09165e-05
3.03586e-05
3.09182e-05
2.94323e-05
3.12485e-05
6.57141e-05
6.57157e-05
3.12475e-05
3.32681e-05
3.32699e-05
3.00069e-05
3.32688e-05
3.32709e-05
8.48494e-05
8.48458e-05
8.48413e-05
8.48438e-05
3.00054e-05
3.32708e-05
3.32729e-05
3.32707e-05
3.32725e-05
8.48444e-05
8.48466e-05
2.94321e-05
3.03587e-05
3.09181e-05
3.0245e-05
2.94323e-05
3.03587e-05
3.09162e-05
3.12469e-05
6.57171e-05
3.12475e-05
6.57153e-05
3.1247e-05
6.57182e-05
3.12476e-05
6.57164e-05
2.94322e-05
3.02449e-05
3.03586e-05
3.09166e-05
3.03586e-05
3.09182e-05
2.94321e-05
2.94327e-05
3.0245e-05
3.03586e-05
3.09171e-05
3.03586e-05
3.09188e-05
2.94325e-05
3.12486e-05
6.57145e-05
6.57161e-05
3.12477e-05
3.12487e-05
6.57157e-05
6.57172e-05
3.12479e-05
8.48495e-05
8.48459e-05
8.48499e-05
8.48463e-05
3.00056e-05
3.3273e-05
3.32734e-05
3.32727e-05
3.3273e-05
8.48445e-05
8.48467e-05
8.48449e-05
8.48471e-05
8.48449e-05
8.48436e-05
8.48459e-05
8.48446e-05
3.32747e-05
3.32749e-05
3.0007e-05
3.32742e-05
3.32744e-05
8.48477e-05
8.48455e-05
8.48487e-05
8.48465e-05
3.00054e-05
3.32732e-05
3.32734e-05
3.32752e-05
3.32754e-05
3.12482e-05
6.57146e-05
3.12496e-05
6.57141e-05
2.94322e-05
3.09192e-05
3.03587e-05
3.02448e-05
2.94329e-05
3.09172e-05
3.03586e-05
2.94325e-05
3.09205e-05
3.03588e-05
3.0245e-05
2.94331e-05
3.09181e-05
3.03587e-05
3.12493e-05
6.57145e-05
6.57133e-05
3.12468e-05
3.12497e-05
6.57202e-05
6.57159e-05
3.1247e-05
2.94319e-05
3.02446e-05
3.09167e-05
3.03582e-05
3.09196e-05
3.03585e-05
2.94311e-05
2.94322e-05
3.02447e-05
3.09169e-05
3.03582e-05
3.09204e-05
3.03585e-05
2.94313e-05
3.32761e-05
3.32727e-05
3.0007e-05
3.32746e-05
3.32712e-05
8.48414e-05
8.48413e-05
8.48522e-05
8.48481e-05
3.00054e-05
3.32732e-05
3.32701e-05
3.32756e-05
3.32724e-05
8.4848e-05
8.48443e-05
2.94322e-05
3.09201e-05
3.03586e-05
3.02448e-05
2.9433e-05
3.09179e-05
3.03586e-05
3.1248e-05
6.57145e-05
3.12493e-05
6.57132e-05
2.94321e-05
3.03585e-05
3.09194e-05
3.02446e-05
2.94329e-05
3.03585e-05
3.09172e-05
3.12497e-05
6.57164e-05
6.57154e-05
3.12474e-05
2.9432e-05
3.02447e-05
3.09174e-05
3.03582e-05
3.09205e-05
3.03584e-05
2.94313e-05
3.12493e-05
6.57155e-05
6.57146e-05
3.1247e-05
2.94318e-05
3.02445e-05
3.03582e-05
3.09167e-05
3.03584e-05
3.09197e-05
2.9431e-05
3.12479e-05
6.57124e-05
3.12494e-05
6.57121e-05
2.94318e-05
3.03587e-05
3.09191e-05
3.02448e-05
2.94326e-05
3.03587e-05
3.09171e-05
3.12478e-05
6.5715e-05
3.12493e-05
6.57139e-05
2.94317e-05
3.02448e-05
3.09167e-05
3.03582e-05
3.09201e-05
3.03586e-05
2.9431e-05
3.12494e-05
6.57186e-05
6.57143e-05
3.12469e-05
2.94317e-05
3.02446e-05
3.03582e-05
3.09166e-05
3.03585e-05
3.09195e-05
2.9431e-05
3.12493e-05
6.57161e-05
6.57151e-05
3.12467e-05
3.32725e-05
3.32744e-05
3.00069e-05
3.32718e-05
3.3274e-05
8.48456e-05
8.48443e-05
8.48458e-05
8.48439e-05
3.00053e-05
3.32709e-05
3.3273e-05
3.3273e-05
3.3275e-05
8.48485e-05
8.48462e-05
2.94321e-05
3.03586e-05
3.09197e-05
3.02449e-05
2.94329e-05
3.03586e-05
3.09176e-05
3.12481e-05
6.57155e-05
3.12494e-05
6.57143e-05
3.12482e-05
6.57167e-05
3.12495e-05
6.57155e-05
2.94318e-05
3.02447e-05
3.03582e-05
3.09167e-05
3.03584e-05
3.09195e-05
2.9431e-05
2.94319e-05
3.02447e-05
3.03582e-05
3.09171e-05
3.03584e-05
3.092e-05
2.94312e-05
3.12494e-05
6.57166e-05
6.57155e-05
3.12471e-05
3.12495e-05
6.57178e-05
6.57168e-05
3.12472e-05
8.48457e-05
8.48444e-05
8.48462e-05
8.48448e-05
3.00055e-05
3.32731e-05
3.32734e-05
3.3275e-05
3.32754e-05
8.48486e-05
8.48464e-05
8.48489e-05
8.48467e-05
8.48514e-05
8.48577e-05
8.48525e-05
8.48589e-05
3.3274e-05
3.32743e-05
3.0003e-05
3.32711e-05
3.32714e-05
8.4859e-05
8.486e-05
8.48602e-05
8.48612e-05
2.99994e-05
3.32623e-05
3.32626e-05
3.3271e-05
3.32712e-05
3.12443e-05
6.57266e-05
3.12484e-05
6.57365e-05
2.94269e-05
3.09189e-05
3.03575e-05
3.02416e-05
2.94308e-05
3.0914e-05
3.03555e-05
2.94266e-05
3.09187e-05
3.03573e-05
3.02397e-05
2.94309e-05
3.09125e-05
3.0355e-05
3.12449e-05
6.57353e-05
6.57344e-05
3.12382e-05
3.12448e-05
6.57376e-05
6.57387e-05
3.12384e-05
2.94243e-05
3.02388e-05
3.09086e-05
3.03509e-05
3.09152e-05
3.03529e-05
2.94196e-05
2.94239e-05
3.02374e-05
3.09078e-05
3.03507e-05
3.09135e-05
3.03525e-05
2.94196e-05
3.32739e-05
3.32711e-05
3.00005e-05
3.32681e-05
3.32648e-05
8.48535e-05
8.4856e-05
8.48595e-05
8.48608e-05
2.9997e-05
3.32603e-05
3.32571e-05
3.3267e-05
3.32649e-05
8.48557e-05
8.48578e-05
2.94272e-05
3.09197e-05
3.03575e-05
3.02417e-05
2.9431e-05
3.09147e-05
3.03556e-05
3.12444e-05
6.57186e-05
3.12482e-05
6.57281e-05
2.94271e-05
3.03575e-05
3.0919e-05
3.02416e-05
2.94308e-05
3.03555e-05
3.0914e-05
3.12451e-05
6.57371e-05
6.57359e-05
3.12385e-05
2.94245e-05
3.02389e-05
3.09094e-05
3.03509e-05
3.09161e-05
3.03529e-05
2.94198e-05
3.12446e-05
6.5737e-05
6.57353e-05
3.12383e-05
2.94244e-05
3.02387e-05
3.03509e-05
3.09087e-05
3.03528e-05
3.09155e-05
2.94197e-05
3.12443e-05
6.5725e-05
3.12483e-05
6.57341e-05
2.9427e-05
3.03575e-05
3.09187e-05
3.02416e-05
2.94308e-05
3.03555e-05
3.09138e-05
3.12442e-05
6.57187e-05
3.12481e-05
6.57287e-05
2.94245e-05
3.02377e-05
3.09074e-05
3.03507e-05
3.09138e-05
3.03526e-05
2.94197e-05
3.1245e-05
6.57356e-05
6.5737e-05
3.12385e-05
2.94244e-05
3.02388e-05
3.03509e-05
3.09086e-05
3.03528e-05
3.0915e-05
2.94196e-05
3.12448e-05
6.57375e-05
6.57358e-05
3.12383e-05
3.3272e-05
3.32739e-05
3.00029e-05
3.32686e-05
3.32709e-05
8.48521e-05
8.48584e-05
8.48569e-05
8.48583e-05
2.99992e-05
3.32602e-05
3.32621e-05
3.3269e-05
3.32707e-05
8.48598e-05
8.48607e-05
2.94273e-05
3.03575e-05
3.09192e-05
3.02417e-05
2.94309e-05
3.03555e-05
3.09143e-05
3.12445e-05
6.57192e-05
3.12482e-05
6.57293e-05
3.12446e-05
6.57204e-05
3.12483e-05
6.57305e-05
2.94246e-05
3.02388e-05
3.03509e-05
3.09086e-05
3.03528e-05
3.0915e-05
2.94198e-05
2.94246e-05
3.02389e-05
3.03509e-05
3.09091e-05
3.03529e-05
3.09155e-05
2.94198e-05
3.12447e-05
6.5738e-05
6.57364e-05
3.12384e-05
3.12448e-05
6.57392e-05
6.57375e-05
3.12384e-05
8.48523e-05
8.48585e-05
8.48526e-05
8.48589e-05
2.99994e-05
3.32622e-05
3.32625e-05
3.32709e-05
3.32713e-05
8.48598e-05
8.48608e-05
8.48603e-05
8.48613e-05
8.48601e-05
8.48585e-05
8.48612e-05
8.48597e-05
3.32622e-05
3.32626e-05
2.99963e-05
3.32599e-05
3.32602e-05
8.48583e-05
8.48597e-05
8.48595e-05
8.48608e-05
2.99947e-05
3.32595e-05
3.32599e-05
3.32608e-05
3.32612e-05
3.12361e-05
6.57385e-05
3.12391e-05
6.57372e-05
2.94191e-05
3.09101e-05
3.03498e-05
3.02352e-05
2.94197e-05
3.09061e-05
3.03494e-05
2.94193e-05
3.09097e-05
3.03497e-05
3.0235e-05
2.94197e-05
3.09064e-05
3.03494e-05
3.12374e-05
6.57348e-05
6.57359e-05
3.12355e-05
3.12377e-05
6.57371e-05
6.57382e-05
3.12358e-05
2.94195e-05
3.02348e-05
3.09055e-05
3.03491e-05
3.09083e-05
3.03491e-05
2.94191e-05
2.94196e-05
3.02348e-05
3.09061e-05
3.03491e-05
3.09087e-05
3.03491e-05
2.94193e-05
3.3261e-05
3.32579e-05
2.99962e-05
3.32594e-05
3.32558e-05
8.48572e-05
8.48552e-05
8.48593e-05
8.48604e-05
2.99947e-05
3.32593e-05
3.32558e-05
3.32605e-05
3.32572e-05
8.48551e-05
8.48569e-05
2.94194e-05
3.0911e-05
3.03499e-05
3.02353e-05
2.94199e-05
3.09069e-05
3.03494e-05
3.12363e-05
6.57381e-05
3.1239e-05
6.57365e-05
2.94193e-05
3.03498e-05
3.09104e-05
3.0235e-05
2.94197e-05
3.03494e-05
3.0906e-05
3.1238e-05
6.57366e-05
6.5738e-05
3.12363e-05
2.94198e-05
3.0235e-05
3.09063e-05
3.03491e-05
3.09092e-05
3.03491e-05
2.94194e-05
3.12376e-05
6.57362e-05
6.57376e-05
3.12359e-05
2.94197e-05
3.02347e-05
3.03491e-05
3.09054e-05
3.03491e-05
3.09084e-05
2.94193e-05
3.12361e-05
6.57367e-05
3.12392e-05
6.57351e-05
2.94191e-05
3.03498e-05
3.09101e-05
3.02352e-05
2.94196e-05
3.03494e-05
3.09061e-05
3.1236e-05
6.57385e-05
3.1239e-05
6.57371e-05
2.94194e-05
3.02351e-05
3.09053e-05
3.03491e-05
3.09081e-05
3.03492e-05
2.94189e-05
3.12376e-05
6.57349e-05
6.57363e-05
3.12357e-05
2.94194e-05
3.02349e-05
3.03491e-05
3.09055e-05
3.03491e-05
3.09083e-05
2.94191e-05
3.12375e-05
6.57369e-05
6.57381e-05
3.12355e-05
3.32604e-05
3.32621e-05
2.99961e-05
3.32568e-05
3.32597e-05
8.48609e-05
8.48593e-05
8.48562e-05
8.4858e-05
2.99945e-05
3.32566e-05
3.32594e-05
3.3258e-05
3.32607e-05
8.48591e-05
8.48605e-05
2.94194e-05
3.03498e-05
3.09106e-05
3.02353e-05
2.94199e-05
3.03494e-05
3.09066e-05
3.12364e-05
6.5739e-05
3.12391e-05
6.57376e-05
3.12365e-05
6.57401e-05
3.12392e-05
6.57387e-05
2.94196e-05
3.0235e-05
3.03491e-05
3.09056e-05
3.03492e-05
3.09083e-05
2.94191e-05
2.94198e-05
3.0235e-05
3.03491e-05
3.09061e-05
3.03491e-05
3.09088e-05
2.94194e-05
3.12377e-05
6.57373e-05
6.57385e-05
3.1236e-05
3.12378e-05
6.57385e-05
6.57397e-05
3.12361e-05
8.4861e-05
8.48594e-05
8.48614e-05
8.48598e-05
2.99948e-05
3.32595e-05
3.32598e-05
3.32607e-05
3.3261e-05
8.48592e-05
8.48606e-05
8.48596e-05
8.4861e-05
8.48596e-05
8.48583e-05
8.48607e-05
8.48595e-05
3.32606e-05
3.3261e-05
2.99963e-05
3.32594e-05
3.32599e-05
8.48584e-05
8.48596e-05
8.48595e-05
8.48606e-05
2.99948e-05
3.32594e-05
3.32599e-05
3.32605e-05
3.3261e-05
3.12357e-05
6.57381e-05
3.12374e-05
6.57364e-05
2.94191e-05
3.0908e-05
3.03493e-05
3.0235e-05
2.94194e-05
3.09055e-05
3.03493e-05
2.94193e-05
3.09085e-05
3.03493e-05
3.0235e-05
2.94196e-05
3.09063e-05
3.03493e-05
3.12372e-05
6.57345e-05
6.57358e-05
3.12355e-05
3.12374e-05
6.5736e-05
6.57375e-05
3.12357e-05
2.94194e-05
3.02349e-05
3.09054e-05
3.03491e-05
3.09079e-05
3.03492e-05
2.94191e-05
2.94195e-05
3.02349e-05
3.09065e-05
3.03491e-05
3.0909e-05
3.03492e-05
2.94192e-05
3.32604e-05
3.32572e-05
2.99962e-05
3.32595e-05
3.32559e-05
8.48568e-05
8.48551e-05
8.48568e-05
8.4859e-05
2.99947e-05
3.32595e-05
3.32559e-05
3.32608e-05
3.32573e-05
8.48551e-05
8.48568e-05
2.94194e-05
3.09089e-05
3.03493e-05
3.02351e-05
2.94197e-05
3.09062e-05
3.03493e-05
3.12358e-05
6.57373e-05
3.12374e-05
6.57361e-05
2.94193e-05
3.03492e-05
3.0908e-05
3.02349e-05
2.94196e-05
3.03492e-05
3.09053e-05
3.12377e-05
6.57366e-05
6.57379e-05
3.12362e-05
2.94198e-05
3.0235e-05
3.09062e-05
3.03492e-05
3.09088e-05
3.03492e-05
2.94194e-05
3.12373e-05
6.5736e-05
6.57373e-05
3.12358e-05
2.94197e-05
3.02348e-05
3.03491e-05
3.09053e-05
3.03491e-05
3.09079e-05
2.94193e-05
3.12356e-05
6.57361e-05
3.12373e-05
6.57349e-05
2.94191e-05
3.03493e-05
3.09079e-05
3.0235e-05
2.94194e-05
3.03493e-05
3.09054e-05
3.12355e-05
6.57379e-05
3.12372e-05
6.57368e-05
2.94195e-05
3.02351e-05
3.09053e-05
3.03491e-05
3.09079e-05
3.03492e-05
2.9419e-05
3.12373e-05
6.57349e-05
6.57361e-05
3.12356e-05
2.94195e-05
3.0235e-05
3.03491e-05
3.09054e-05
3.03492e-05
3.09079e-05
2.94191e-05
3.12372e-05
6.57368e-05
6.57378e-05
3.12355e-05
3.32579e-05
3.32605e-05
2.99962e-05
3.32566e-05
3.32594e-05
8.48604e-05
8.4859e-05
8.48562e-05
8.48579e-05
2.99946e-05
3.32566e-05
3.32594e-05
3.3258e-05
3.32605e-05
8.48591e-05
8.48603e-05
2.94194e-05
3.03493e-05
3.09085e-05
3.02351e-05
2.94197e-05
3.03493e-05
3.0906e-05
3.12359e-05
6.57383e-05
3.12374e-05
6.57372e-05
3.1236e-05
6.57395e-05
3.12376e-05
6.57384e-05
2.94196e-05
3.02351e-05
3.03491e-05
3.09055e-05
3.03492e-05
3.09079e-05
2.94191e-05
2.94198e-05
3.02351e-05
3.03491e-05
3.0906e-05
3.03492e-05
3.09084e-05
2.94194e-05
3.12374e-05
6.57372e-05
6.57383e-05
3.12359e-05
3.12375e-05
6.57384e-05
6.57394e-05
3.1236e-05
8.48605e-05
8.48592e-05
8.48609e-05
8.48596e-05
2.99948e-05
3.32595e-05
3.32598e-05
3.32606e-05
3.32609e-05
8.48592e-05
8.48605e-05
8.48596e-05
8.48609e-05
8.48596e-05
8.48587e-05
8.48606e-05
8.48594e-05
3.32605e-05
3.3261e-05
2.99963e-05
3.32593e-05
3.32599e-05
8.48587e-05
8.486e-05
8.48595e-05
8.48606e-05
2.99948e-05
3.32593e-05
3.32599e-05
3.32606e-05
3.3261e-05
3.12357e-05
6.57371e-05
3.12374e-05
6.57364e-05
2.94191e-05