/*--------------------------------*- C++ -*----------------------------------*\
| =========                 |                                                 |
| \\      /  F ield         | OpenFOAM: The Open Source CFD Toolbox           |
|  \\    /   O peration     | Version:  2206                                  |
|   \\  /    A nd           | Website:  www.openfoam.com                      |
|    \\/     M anipulation  |                                                 |
\*---------------------------------------------------------------------------*/
FoamFile
{
    version     2.0;
    format      ascii;
    arch        "LSB;label=32;scalar=64";
    class       volScalarField;
    location    "8";
    object      nut;
}
// * * * * * * * * * * * * * * * * * * * * * * * * * * * * * * * * * * * * * //

dimensions      [0 2 -1 0 0 0 0];

internalField   nonuniform List<scalar> 
28897
(
0.000232604
0.000229987
0.000229984
0.000225967
0.000232578
0.000229972
0.000229954
0.000225932
0.000232594
0.000229952
0.000229954
0.000225907
0.000232595
0.000229957
0.000229956
0.000225906
0.000232595
0.000229957
0.000229956
0.000225907
0.000232595
0.000229957
0.000229956
0.000225906
0.000232595
0.000229957
0.000229956
0.000225907
0.000232595
0.000229957
0.000229956
0.000225906
0.000232595
0.000229957
0.000229956
0.000225907
0.000232595
0.000229957
0.000229956
0.000225907
0.000232595
0.000229957
0.000229956
0.000225906
0.000232595
0.000229957
0.000229956
0.000225907
0.000232595
0.000229957
0.000229956
0.000225906
0.000232595
0.000229957
0.000229956
0.000225906
0.000232595
0.000229957
0.000229956
0.000225907
0.000232595
0.000229957
0.000229956
0.000225906
0.000232595
0.000229957
0.000229956
0.000225907
0.000232596
0.000229957
0.000229956
0.000225907
0.000226007
0.000229983
0.000229983
0.000226018
0.000229985
0.000229981
0.000229988
0.000229984
0.000226006
0.000229985
0.000229984
0.000226007
0.000225974
0.000225991
0.000229983
0.000229983
0.000229974
0.000229976
0.000225978
0.000225998
0.000229984
0.000229981
0.000229976
0.000229972
0.000229983
0.000229982
0.000229975
0.000225967
0.00022599
0.000229984
0.000229975
0.000229975
0.000225992
0.000225932
0.000225943
0.000229953
0.000229959
0.000229949
0.000229949
0.000225954
0.000225936
0.000229954
0.000229951
0.000229951
0.000229947
0.000229957
0.000229947
0.000229949
0.000225931
0.000225942
0.000229955
0.00022995
0.00022995
0.000225944
0.000225914
0.000225946
0.000229954
0.000229953
0.000229954
0.000229954
0.000225908
0.000225949
0.000229955
0.000229952
0.000229956
0.000229953
0.000229953
0.000229957
0.000229954
0.000225912
0.000225945
0.000229955
0.000229956
0.000229956
0.000225945
0.000225913
0.000225947
0.000229954
0.000229954
0.000229954
0.000229954
0.000225915
0.000225949
0.000229956
0.000229952
0.000229956
0.000229953
0.000229954
0.000229957
0.000229954
0.000225912
0.000225946
0.000229955
0.000229956
0.000229956
0.000225946
0.000225914
0.000225947
0.000229955
0.000229955
0.000229954
0.000229954
0.000225916
0.000225948
0.000229956
0.000229953
0.000229956
0.000229952
0.000229955
0.000229957
0.000229954
0.000225913
0.000225946
0.000229956
0.000229956
0.000229956
0.000225946
0.000225914
0.000225947
0.000229955
0.000229955
0.000229954
0.000229954
0.000225915
0.000225948
0.000229956
0.000229953
0.000229956
0.000229952
0.000229955
0.000229957
0.000229954
0.000225913
0.000225946
0.000229956
0.000229956
0.000229956
0.000225946
0.000225914
0.000225947
0.000229955
0.000229955
0.000229954
0.000229954
0.000225915
0.000225948
0.000229956
0.000229953
0.000229956
0.000229952
0.000229955
0.000229957
0.000229954
0.000225913
0.000225946
0.000229956
0.000229956
0.000229956
0.000225946
0.000225914
0.000225947
0.000229955
0.000229955
0.000229954
0.000229954
0.000225915
0.000225948
0.000229956
0.000229953
0.000229956
0.000229952
0.000229955
0.000229957
0.000229954
0.000225913
0.000225946
0.000229956
0.000229956
0.000229956
0.000225946
0.000225914
0.000225947
0.000229955
0.000229955
0.000229954
0.000229954
0.000225915
0.000225948
0.000229956
0.000229953
0.000229956
0.000229952
0.000229955
0.000229957
0.000229954
0.000225913
0.000225946
0.000229956
0.000229956
0.000229956
0.000225946
0.000225914
0.000225947
0.000229955
0.000229955
0.000229955
0.000229954
0.000225915
0.000225948
0.000229956
0.000229953
0.000229956
0.000229952
0.000229955
0.000229957
0.000229954
0.000225913
0.000225946
0.000229956
0.000229956
0.000229956
0.000225946
0.000225915
0.000225947
0.000229955
0.000229955
0.000229955
0.000229954
0.000225915
0.000225948
0.000229956
0.000229953
0.000229956
0.000229952
0.000229955
0.000229957
0.000229954
0.000225913
0.000225946
0.000229956
0.000229956
0.000229956
0.000225946
0.000225915
0.000225947
0.000229955
0.000229955
0.000229955
0.000229954
0.000225915
0.000225948
0.000229956
0.000229953
0.000229956
0.000229952
0.000229955
0.000229957
0.000229954
0.000225913
0.000225946
0.000229956
0.000229956
0.000229956
0.000225946
0.000225915
0.000225947
0.000229955
0.000229954
0.000229955
0.000229954
0.000225915
0.000225948
0.000229956
0.000229953
0.000229956
0.000229952
0.000229955
0.000229957
0.000229954
0.000225913
0.000225946
0.000229956
0.000229956
0.000229956
0.000225946
0.000225915
0.000225947
0.000229955
0.000229954
0.000229955
0.000229954
0.000225915
0.000225948
0.000229956
0.000229953
0.000229956
0.000229952
0.000229955
0.000229957
0.000229954
0.000225913
0.000225946
0.000229956
0.000229956
0.000229956
0.000225946
0.000225915
0.000225947
0.000229955
0.000229955
0.000229955
0.000229954
0.000225916
0.000225948
0.000229956
0.000229953
0.000229956
0.000229952
0.000229955
0.000229957
0.000229954
0.000225913
0.000225946
0.000229956
0.000229956
0.000229956
0.000225946
0.000225915
0.000225947
0.000229955
0.000229955
0.000229955
0.000229954
0.000225916
0.000225948
0.000229956
0.000229953
0.000229956
0.000229952
0.000229955
0.000229957
0.000229954
0.000225913
0.000225946
0.000229956
0.000229956
0.000229956
0.000225946
0.000225915
0.000225947
0.000229955
0.000229955
0.000229955
0.000229954
0.000225916
0.000225948
0.000229956
0.000229953
0.000229956
0.000229952
0.000229955
0.000229957
0.000229954
0.000225913
0.000225946
0.000229956
0.000229956
0.000229956
0.000225946
0.000225912
0.000229955
0.000229955
0.000225913
0.000229957
0.000229953
0.000229955
0.000225911
0.000229956
0.000232604
0.000232604
0.000232604
0.000232604
8.48035e-05
4.41548e-05
8.47863e-05
4.41538e-05
2.51082e-05
2.5107e-05
8.48127e-05
4.41525e-05
8.47971e-05
4.41515e-05
0.000232603
0.000232603
0.000232602
0.000232595
0.000232597
0.000232595
0.000232595
0.000180521
9.95828e-05
0.000232061
0.000229986
0.000180497
9.96122e-05
0.000232061
2.51057e-05
2.51047e-05
0.000180523
0.000232061
9.95832e-05
0.000229984
0.000180497
0.00023206
9.96106e-05
5.39303e-05
5.39181e-05
0.000226008
5.39406e-05
5.39299e-05
8.46816e-05
4.41592e-05
8.47484e-05
4.41705e-05
2.5107e-05
2.51142e-05
8.46863e-05
4.41569e-05
8.47602e-05
4.41681e-05
0.000232581
0.000232578
0.000232578
0.000232589
0.000232589
0.000232589
0.000232589
0.000180395
9.95731e-05
0.000232039
0.00022995
0.000180472
9.9536e-05
0.000232033
2.5109e-05
2.51162e-05
0.000180364
0.000232034
9.95425e-05
0.000229945
0.00018045
0.000232031
9.94844e-05
5.3922e-05
5.38959e-05
0.000225931
5.38657e-05
5.38336e-05
8.46529e-05
4.41725e-05
8.46382e-05
4.41716e-05
2.51192e-05
2.51189e-05
8.46633e-05
4.41702e-05
8.46501e-05
4.41692e-05
0.000232594
0.000232594
0.000232594
0.000232595
0.000232595
0.000232595
0.000232595
0.000180333
9.94276e-05
0.000232045
0.000229956
0.000180307
9.94491e-05
0.000232047
2.5117e-05
2.51165e-05
0.000180336
0.000232046
9.94299e-05
0.000229955
0.000180308
0.000232047
9.94531e-05
5.38232e-05
5.38128e-05
0.000225949
5.38291e-05
5.38186e-05
8.46532e-05
4.41722e-05
8.46387e-05
4.41715e-05
2.51191e-05
2.51189e-05
8.46636e-05
4.41699e-05
8.46508e-05
4.41692e-05
0.000232595
0.000232595
0.000232595
0.000232595
0.000232595
0.000232595
0.000232595
0.000180333
9.94236e-05
0.000232048
0.000229956
0.000180309
9.9449e-05
0.000232047
2.51169e-05
2.51165e-05
0.000180336
0.000232047
9.94297e-05
0.000229956
0.000180311
0.000232047
9.94532e-05
5.38239e-05
5.38134e-05
0.000225947
5.38294e-05
5.38187e-05
8.46532e-05
4.41722e-05
8.46387e-05
4.41715e-05
2.51191e-05
2.51189e-05
8.46636e-05
4.41699e-05
8.46508e-05
4.41691e-05
0.000232595
0.000232595
0.000232595
0.000232595
0.000232595
0.000232595
0.000232595
0.000180333
9.94236e-05
0.000232048
0.000229957
0.000180309
9.9449e-05
0.000232048
2.51169e-05
2.51165e-05
0.000180336
0.000232048
9.94296e-05
0.000229956
0.000180311
0.000232048
9.94532e-05
5.3824e-05
5.38134e-05
0.000225947
5.38294e-05
5.38187e-05
8.46532e-05
4.41722e-05
8.46387e-05
4.41715e-05
2.51191e-05
2.51189e-05
8.46637e-05
4.41699e-05
8.46508e-05
4.41691e-05
0.000232595
0.000232595
0.000232595
0.000232595
0.000232595
0.000232595
0.000232595
0.000180333
9.94236e-05
0.000232048
0.000229957
0.000180309
9.9449e-05
0.000232048
2.51169e-05
2.51165e-05
0.000180336
0.000232048
9.94296e-05
0.000229956
0.000180311
0.000232048
9.94532e-05
5.3824e-05
5.38133e-05
0.000225947
5.38295e-05
5.38186e-05
8.46532e-05
4.41722e-05
8.46387e-05
4.41715e-05
2.51191e-05
2.51189e-05
8.46637e-05
4.41699e-05
8.46509e-05
4.41692e-05
0.000232595
0.000232595
0.000232595
0.000232595
0.000232595
0.000232595
0.000232595
0.000180333
9.94236e-05
0.000232048
0.000229957
0.000180309
9.9449e-05
0.000232047
2.51169e-05
2.51165e-05
0.000180336
0.000232047
9.94296e-05
0.000229956
0.000180311
0.000232047
9.94532e-05
5.3824e-05
5.38133e-05
0.000225947
5.38295e-05
5.38187e-05
8.46533e-05
4.41722e-05
8.46387e-05
4.41715e-05
2.51191e-05
2.51189e-05
8.46636e-05
4.41699e-05
8.46509e-05
4.41691e-05
0.000232595
0.000232595
0.000232595
0.000232595
0.000232595
0.000232595
0.000232595
0.000180334
9.94236e-05
0.000232048
0.000229957
0.000180309
9.9449e-05
0.000232048
2.51169e-05
2.51165e-05
0.000180336
0.000232047
9.94296e-05
0.000229956
0.000180311
0.000232048
9.94532e-05
5.3824e-05
5.38134e-05
0.000225947
5.38295e-05
5.38187e-05
8.46533e-05
4.41722e-05
8.46387e-05
4.41715e-05
2.51191e-05
2.51189e-05
8.46637e-05
4.41699e-05
8.46508e-05
4.41691e-05
0.000232596
0.000232595
0.000232595
0.000232595
0.000232595
0.000232595
0.000232595
0.000180334
9.94236e-05
0.000232048
0.000229957
0.000180309
9.9449e-05
0.000232048
2.51169e-05
2.51165e-05
0.000180336
0.000232048
9.94296e-05
0.000229956
0.000180311
0.000232048
9.94532e-05
5.3824e-05
5.38134e-05
0.000225947
5.38295e-05
5.38187e-05
8.46532e-05
4.41722e-05
8.46387e-05
4.41715e-05
2.51191e-05
2.51189e-05
8.46637e-05
4.41699e-05
8.46508e-05
4.41692e-05
0.000232595
0.000232595
0.000232595
0.000232595
0.000232595
0.000232595
0.000232595
0.000180334
9.94236e-05
0.000232048
0.000229957
0.000180309
9.9449e-05
0.000232048
2.51169e-05
2.51165e-05
0.000180336
0.000232048
9.94295e-05
0.000229956
0.000180311
0.000232048
9.94534e-05
5.3824e-05
5.38134e-05
0.000225947
5.38295e-05
5.38187e-05
8.46533e-05
4.41725e-05
8.46388e-05
4.41721e-05
2.51189e-05
2.51186e-05
8.46636e-05
4.41695e-05
8.46508e-05
4.41687e-05
0.000232595
0.000232595
0.000232595
0.000232595
0.000232595
0.000232595
0.000232595
0.000180334
9.94236e-05
0.000232048
0.000229957
0.000180309
9.9449e-05
0.000232048
2.51169e-05
2.51165e-05
0.000180336
0.000232048
9.94295e-05
0.000229956
0.000180311
0.000232048
9.94534e-05
5.3824e-05
5.38134e-05
0.000225947
5.38294e-05
5.38188e-05
8.46532e-05
4.4173e-05
8.46387e-05
4.41723e-05
2.51188e-05
2.51184e-05
8.46637e-05
4.41692e-05
8.46508e-05
4.41685e-05
0.000232595
0.000232595
0.000232595
0.000232595
0.000232595
0.000232595
0.000232595
0.000180334
9.94236e-05
0.000232048
0.000229957
0.000180309
9.9449e-05
0.000232047
2.51169e-05
2.51165e-05
0.000180335
0.000232047
9.94296e-05
0.000229956
0.000180309
0.000232048
9.94534e-05
5.3824e-05
5.38134e-05
0.000225947
5.38295e-05
5.38187e-05
8.46533e-05
4.4173e-05
8.46387e-05
4.41723e-05
2.51186e-05
2.51184e-05
8.46638e-05
4.41694e-05
8.4651e-05
4.41686e-05
0.000232595
0.000232595
0.000232595
0.000232595
0.000232595
0.000232595
0.000232595
0.000180334
9.94236e-05
0.000232048
0.000229957
0.000180309
9.9449e-05
0.000232048
2.51169e-05
2.51165e-05
0.000180335
0.000232047
9.94297e-05
0.000229956
0.000180308
0.000232047
9.94535e-05
5.3824e-05
5.38134e-05
0.000225947
5.38294e-05
5.38187e-05
8.46533e-05
4.4173e-05
8.46387e-05
4.41723e-05
2.51187e-05
2.51184e-05
8.46638e-05
4.41694e-05
8.4651e-05
4.41686e-05
0.000232596
0.000232595
0.000232595
0.000232595
0.000232595
0.000232595
0.000232595
0.000180334
9.94236e-05
0.000232048
0.000229957
0.000180309
9.9449e-05
0.000232048
2.51169e-05
2.51165e-05
0.000180335
0.000232048
9.94297e-05
0.000229956
0.000180309
0.000232048
9.94535e-05
5.3824e-05
5.38134e-05
0.000225947
5.38294e-05
5.38187e-05
8.46533e-05
4.4173e-05
8.46388e-05
4.41723e-05
2.51187e-05
2.51184e-05
8.46638e-05
4.41694e-05
8.4651e-05
4.41686e-05
0.000232596
0.000232595
0.000232595
0.000232595
0.000232595
0.000232595
0.000232595
0.000180333
9.94236e-05
0.000232048
0.000229957
0.000180309
9.9449e-05
0.000232048
2.51169e-05
2.51165e-05
0.000180335
0.000232047
9.94297e-05
0.000229956
0.000180308
0.000232048
9.94535e-05
5.3824e-05
5.38133e-05
0.000225947
5.38294e-05
5.38187e-05
8.46533e-05
4.4173e-05
8.46388e-05
4.41723e-05
2.51187e-05
2.51184e-05
8.46638e-05
4.41694e-05
8.4651e-05
4.41686e-05
0.000232596
0.000232595
0.000232595
0.000232595
0.000232595
0.000232595
0.000232595
0.000180333
9.94236e-05
0.000232048
0.000229957
0.000180309
9.9449e-05
0.000232048
2.51169e-05
2.51165e-05
0.000180335
0.000232048
9.94297e-05
0.000229956
0.000180308
0.000232048
9.94535e-05
5.3824e-05
5.38134e-05
0.000225947
5.38295e-05
5.38187e-05
8.46532e-05
4.4173e-05
8.46387e-05
4.41723e-05
2.51187e-05
2.51184e-05
8.46638e-05
4.41694e-05
8.46509e-05
4.41686e-05
0.000232596
0.000232595
0.000232595
0.000232595
0.000232595
0.000232595
0.000232595
0.000180334
9.94236e-05
0.000232048
0.000229957
0.000180309
9.9449e-05
0.000232047
2.51169e-05
2.51165e-05
0.000180334
0.000232048
9.94296e-05
0.000229956
0.000180308
0.000232048
9.94535e-05
5.38239e-05
5.38132e-05
0.000225947
5.38293e-05
5.38185e-05
4.4173e-05
8.46388e-05
2.51187e-05
4.41694e-05
8.4651e-05
0.000232596
0.000232596
0.000232596
9.94235e-05
0.000232048
0.000180309
2.51169e-05
0.000232048
9.94297e-05
0.000180308
5.38238e-05
5.38132e-05
2.51079e-05
2.51094e-05
2.51071e-05
2.51083e-05
0.000225979
5.39217e-05
5.39208e-05
5.39088e-05
5.39124e-05
8.47757e-05
4.41542e-05
4.41543e-05
8.47992e-05
8.47756e-05
4.41548e-05
4.41551e-05
8.47994e-05
0.000180486
0.000229983
9.9598e-05
0.000232061
9.95467e-05
0.000232061
0.00018052
0.000180486
0.000229983
9.96016e-05
0.000232061
9.95531e-05
0.000232061
0.000180521
2.51084e-05
5.39245e-05
5.3919e-05
2.51084e-05
8.47874e-05
4.41519e-05
4.4152e-05
8.48078e-05
0.000180489
0.000229985
9.95966e-05
0.000232061
9.95483e-05
0.000232061
0.000180523
8.47838e-05
4.41496e-05
4.415e-05
8.48047e-05
0.000180486
0.000229982
0.000232061
9.95824e-05
0.000232061
9.95308e-05
0.00018052
9.96056e-05
0.000232062
0.000232062
0.00018052
4.41532e-05
8.48042e-05
0.000229984
0.000232061
9.96132e-05
0.000232061
0.000180521
4.41514e-05
8.48037e-05
2.51056e-05
2.51071e-05
0.000225978
5.39078e-05
5.39303e-05
5.38954e-05
5.39213e-05
2.51078e-05
2.5109e-05
0.000180488
0.000229985
0.000232061
9.96044e-05
0.000232061
9.95561e-05
0.00018052
0.000180487
0.000229985
0.000232061
9.95962e-05
0.000232061
9.95471e-05
0.000180523
8.47852e-05
4.41516e-05
4.41521e-05
8.4806e-05
8.47856e-05
4.41512e-05
4.41516e-05
8.4807e-05
0.000225979
5.39326e-05
5.392e-05
5.39115e-05
2.51076e-05
2.51068e-05
2.51081e-05
2.51079e-05
2.5107e-05
2.5107e-05
2.51061e-05
5.39201e-05
5.39227e-05
0.000226007
5.39293e-05
5.39306e-05
2.51079e-05
2.51069e-05
2.5107e-05
2.51061e-05
0.000225966
5.39202e-05
5.39207e-05
5.39263e-05
5.39315e-05
8.48037e-05
4.41548e-05
8.47933e-05
4.41546e-05
0.00018052
9.95816e-05
0.00023206
0.000229982
0.000180502
9.96039e-05
0.00023206
0.000180521
9.95878e-05
0.00023206
0.000229983
0.000180505
9.96082e-05
0.00023206
8.47961e-05
4.41552e-05
4.41538e-05
8.47844e-05
8.47962e-05
4.41552e-05
4.41546e-05
8.47854e-05
0.000180497
0.000229981
9.95795e-05
0.000232053
9.95854e-05
0.000232058
0.000180497
0.000180497
0.000229981
9.95912e-05
0.000232053
9.95923e-05
0.000232058
0.000180498
5.3925e-05
5.39188e-05
0.000226009
5.39324e-05
5.39282e-05
2.51084e-05
2.51073e-05
2.51066e-05
2.51068e-05
0.000225969
5.39364e-05
5.39332e-05
5.39343e-05
5.39267e-05
2.51071e-05
2.51073e-05
0.000180522
9.95819e-05
0.00023206
0.000229984
0.000180505
9.96031e-05
0.00023206
8.48098e-05
4.41496e-05
8.48008e-05
4.41495e-05
0.00018052
0.000232059
9.95664e-05
0.000229981
0.000180504
0.000232059
9.95878e-05
8.48073e-05
4.41529e-05
4.41515e-05
8.47932e-05
0.000180499
0.000229982
9.95783e-05
0.000232053
9.95862e-05
0.000232059
0.0001805
8.48043e-05
4.41505e-05
4.41496e-05
8.47909e-05
0.000180496
0.000229979
0.000232052
9.95631e-05
0.000232058
9.95691e-05
0.000180497
8.48067e-05
4.41533e-05
8.47977e-05
4.4153e-05
0.000180521
0.00023206
9.95979e-05
0.000229983
0.000180504
0.00023206
9.9616e-05
8.48064e-05
4.41513e-05
8.47972e-05
4.41513e-05
0.000180499
0.000229985
9.96069e-05
0.000232054
9.95952e-05
0.000232059
0.000180508
8.47997e-05
4.41533e-05
4.4153e-05
8.47975e-05
0.000180499
0.000229981
0.000232054
9.96013e-05
0.000232059
9.95993e-05
0.000180508
8.47993e-05
4.41518e-05
4.41514e-05
8.4797e-05
5.39061e-05
5.3932e-05
0.000226003
5.39144e-05
5.394e-05
2.51076e-05
2.51068e-05
2.51057e-05
2.51047e-05
0.000225964
5.39058e-05
5.39304e-05
5.39125e-05
5.39405e-05
2.51077e-05
2.51068e-05
0.000180523
0.00023206
9.95816e-05
0.000229983
0.000180504
0.00023206
9.96026e-05
8.4811e-05
4.41516e-05
8.4802e-05
4.41515e-05
8.4812e-05
4.41512e-05
8.48026e-05
4.41511e-05
0.0001805
0.000229982
0.000232052
9.95851e-05
0.000232058
9.95938e-05
0.000180501
0.000180498
0.000229982
0.000232052
9.9578e-05
0.000232058
9.95851e-05
0.000180501
8.48056e-05
4.41525e-05
4.41515e-05
8.47924e-05
8.48061e-05
4.4152e-05
4.4151e-05
8.47929e-05
2.51075e-05
2.51066e-05
2.51067e-05
2.51059e-05
0.000225968
5.3938e-05
5.39197e-05
5.39419e-05
5.39305e-05
2.51067e-05
2.51065e-05
2.51067e-05
2.51059e-05
2.51108e-05
2.51183e-05
2.51098e-05
2.51175e-05
5.38956e-05
5.38997e-05
0.000225929
5.38414e-05
5.38338e-05
2.51189e-05
2.51191e-05
2.5118e-05
2.5118e-05
0.000225886
5.38146e-05
5.38191e-05
5.38237e-05
5.38246e-05
8.46798e-05
4.41574e-05
8.4754e-05
4.41696e-05
0.000180362
9.9541e-05
0.000232034
0.000229943
0.000180451
9.94791e-05
0.000232031
0.000180362
9.95584e-05
0.000232034
0.000229948
0.000180451
9.95008e-05
0.000232031
8.46574e-05
4.4172e-05
4.41721e-05
8.46528e-05
8.46563e-05
4.41726e-05
4.41723e-05
8.4653e-05
0.000180324
0.000229944
9.94466e-05
0.000232041
9.94458e-05
0.000232035
0.000180332
0.000180324
0.000229946
9.94534e-05
0.000232041
9.94639e-05
0.000232035
0.000180333
5.3931e-05
5.3923e-05
0.000225955
5.38852e-05
5.38897e-05
2.51074e-05
2.51141e-05
2.5119e-05
2.51172e-05
0.000225889
5.38209e-05
5.38198e-05
5.38534e-05
5.38581e-05
2.51193e-05
2.51175e-05
0.000180361
9.95406e-05
0.000232034
0.000229945
0.000180453
9.94774e-05
0.000232031
8.46821e-05
4.4154e-05
8.47635e-05
4.41657e-05
0.000180359
0.000232033
9.95247e-05
0.000229942
0.000180449
0.00023203
9.94626e-05
8.46672e-05
4.41697e-05
4.41698e-05
8.46626e-05
0.000180325
0.000229946
9.94472e-05
0.000232042
9.94454e-05
0.000232035
0.000180333
8.46632e-05
4.41674e-05
4.41676e-05
8.46595e-05
0.000180322
0.000229942
0.000232041
9.94305e-05
0.000232035
9.94293e-05
0.000180332
8.47081e-05
4.41534e-05
8.47759e-05
4.41617e-05
0.000180393
0.000232037
9.95697e-05
0.000229946
0.000180475
0.000232033
9.95105e-05
8.47076e-05
4.41528e-05
8.47752e-05
4.41652e-05
0.000180342
0.000229945
9.94571e-05
0.000232041
9.94908e-05
0.000232036
0.000180331
8.46717e-05
4.41713e-05
4.41677e-05
8.46526e-05
0.00018034
0.000229945
0.000232041
9.94556e-05
0.000232035
9.94702e-05
0.000180332
8.46714e-05
4.41696e-05
4.41688e-05
8.46523e-05
5.38811e-05
5.39087e-05
0.000225928
5.3825e-05
5.38428e-05
2.51105e-05
2.51182e-05
2.51168e-05
2.51169e-05
0.000225884
5.38008e-05
5.38281e-05
5.38084e-05
5.38335e-05
2.51187e-05
2.51187e-05
0.000180364
0.000232033
9.95401e-05
0.000229945
0.000180453
0.00023203
9.9477e-05
8.46832e-05
4.4156e-05
8.47651e-05
4.41679e-05
8.46837e-05
4.41553e-05
8.4765e-05
4.41672e-05
0.000180326
0.000229946
0.000232041
9.94543e-05
0.000232036
9.94527e-05
0.000180332
0.000180324
0.000229945
0.000232041
9.94464e-05
0.000232035
9.94445e-05
0.000180334
8.46644e-05
4.41694e-05
4.41696e-05
8.46607e-05
8.46646e-05
4.4169e-05
4.41691e-05
8.46614e-05
2.51074e-05
2.51164e-05
2.51094e-05
2.51172e-05
0.000225887
5.38288e-05
5.38182e-05
5.38445e-05
5.38242e-05
2.51186e-05
2.51181e-05
2.51178e-05
2.51178e-05
2.51189e-05
2.51188e-05
2.51178e-05
2.51179e-05
5.38096e-05
5.38185e-05
0.000225951
5.38159e-05
5.38195e-05
2.51189e-05
2.51188e-05
2.51179e-05
2.51178e-05
0.000225917
5.38163e-05
5.38197e-05
5.38115e-05
5.38188e-05
8.46533e-05
4.41725e-05
8.46452e-05
4.41723e-05
0.000180334
9.9427e-05
0.000232046
0.000229955
0.000180314
9.9445e-05
0.000232047
0.000180334
9.94352e-05
0.000232046
0.000229954
0.000180315
9.94498e-05
0.000232047
8.46454e-05
4.41717e-05
4.41715e-05
8.4653e-05
8.46458e-05
4.41723e-05
4.41724e-05
8.46531e-05
0.000180316
0.000229954
9.9445e-05
0.000232047
9.94269e-05
0.000232047
0.000180334
0.000180317
0.000229954
9.94496e-05
0.000232047
9.94336e-05
0.000232047
0.000180335
5.38187e-05
5.3813e-05
0.000225951
5.38208e-05
5.38161e-05
2.51193e-05
2.51192e-05
2.5119e-05
2.51189e-05
0.000225919
5.38214e-05
5.38167e-05
5.38198e-05
5.38116e-05
2.51192e-05
2.51191e-05
0.000180338
9.94292e-05
0.000232046
0.000229956
0.000180316
9.94457e-05
0.000232047
8.46599e-05
4.41674e-05
8.46536e-05
4.41672e-05
0.000180334
0.000232046
9.94114e-05
0.000229953
0.000180314
0.000232047
9.94293e-05
8.46575e-05
4.41693e-05
4.41692e-05
8.46631e-05
0.00018032
0.000229956
9.94457e-05
0.000232047
9.94291e-05
0.000232047
0.000180337
8.46541e-05
4.41671e-05
4.41671e-05
8.46596e-05
0.000180316
0.000229953
0.000232047
9.94291e-05
0.000232047
9.94112e-05
0.000180334
8.46522e-05
4.41713e-05
8.46442e-05
4.41712e-05
0.000180333
0.000232046
9.94369e-05
0.000229954
0.000180314
0.000232047
9.94521e-05
8.46519e-05
4.41697e-05
8.46438e-05
4.41695e-05
0.000180316
0.000229957
9.94488e-05
0.000232048
9.94308e-05
0.000232048
0.000180333
8.46446e-05
4.41711e-05
4.41712e-05
8.46521e-05
0.000180315
0.000229954
0.000232047
9.9452e-05
0.000232047
9.94352e-05
0.000180335
8.46443e-05
4.41694e-05
4.41695e-05
8.46517e-05
5.37969e-05
5.38271e-05
0.000225949
5.38031e-05
5.38286e-05
2.51187e-05
2.51187e-05
2.51166e-05
2.51165e-05
0.000225915
5.38029e-05
5.3829e-05
5.37994e-05
5.38275e-05
2.51186e-05
2.51185e-05
0.000180337
0.000232046
9.94286e-05
0.000229956
0.000180314
0.000232047
9.9445e-05
8.46609e-05
4.41694e-05
8.46547e-05
4.41693e-05
8.46619e-05
4.41689e-05
8.46551e-05
4.41688e-05
0.000180319
0.000229956
0.000232048
9.94531e-05
0.000232048
9.94368e-05
0.000180335
0.000180318
0.000229956
0.000232048
9.94449e-05
0.000232048
9.94279e-05
0.000180338
8.46552e-05
4.41692e-05
4.41692e-05
8.46609e-05
8.46559e-05
4.41687e-05
4.41687e-05
8.46618e-05
2.51186e-05
2.51185e-05
2.51178e-05
2.51178e-05
0.000225914
5.38295e-05
5.38188e-05
5.38279e-05
5.38175e-05
2.51184e-05
2.51184e-05
2.51177e-05
2.51177e-05
2.51189e-05
2.51188e-05
2.51177e-05
2.51179e-05
5.3811e-05
5.3819e-05
0.000225946
5.3816e-05
5.38196e-05
2.51189e-05
2.51188e-05
2.51179e-05
2.51178e-05
0.000225914
5.38163e-05
5.38198e-05
5.38114e-05
5.38189e-05
8.46535e-05
4.41723e-05
8.46454e-05
4.41723e-05
0.000180334
9.94265e-05
0.000232047
0.000229954
0.000180315
9.94451e-05
0.000232047
0.000180334
9.94335e-05
0.000232047
0.000229954
0.000180316
9.94498e-05
0.000232047
8.46456e-05
4.41716e-05
4.41715e-05
8.4653e-05
8.46458e-05
4.41723e-05
4.41723e-05
8.46531e-05
0.000180316
0.000229955
9.9445e-05
0.000232047
9.94271e-05
0.000232048
0.000180333
0.000180316
0.000229955
9.94497e-05
0.000232047
9.94336e-05
0.000232048
0.000180334
5.38203e-05
5.38113e-05
0.000225947
5.38216e-05
5.38164e-05
2.51192e-05
2.51192e-05
2.5119e-05
2.51189e-05
0.000225914
5.38215e-05
5.38166e-05
5.38204e-05
5.38122e-05
2.51192e-05
2.51191e-05
0.000180337
9.94287e-05
0.000232047
0.000229956
0.000180318
9.94457e-05
0.000232047
8.466e-05
4.41672e-05
8.46538e-05
4.41671e-05
0.000180334
0.000232047
9.94109e-05
0.000229953
0.000180315
0.000232047
9.94292e-05
8.46577e-05
4.41693e-05
4.41692e-05
8.46632e-05
0.000180319
0.000229956
9.94457e-05
0.000232048
9.94292e-05
0.000232048
0.000180337
8.46541e-05
4.41671e-05
4.41672e-05
8.46596e-05
0.000180316
0.000229953
0.000232047
9.9429e-05
0.000232047
9.94111e-05
0.000180334
8.46523e-05
4.41712e-05
8.46444e-05
4.41711e-05
0.000180333
0.000232047
9.94354e-05
0.000229954
0.000180316
0.000232047
9.94521e-05
8.4652e-05
4.41694e-05
8.46439e-05
4.41694e-05
0.000180316
0.000229957
9.94488e-05
0.000232048
9.94309e-05
0.000232047
0.000180333
8.46447e-05
4.41711e-05
4.41711e-05
8.46522e-05
0.000180315
0.000229955
0.000232047
9.9452e-05
0.000232048
9.94353e-05
0.000180334
8.46444e-05
4.41694e-05
4.41694e-05
8.46518e-05
5.37982e-05
5.38279e-05
0.000225945
5.38028e-05
5.38288e-05
2.51186e-05
2.51186e-05
2.51166e-05
2.51164e-05
0.000225912
5.3803e-05
5.3829e-05
5.37991e-05
5.38277e-05
2.51186e-05
2.51185e-05
0.000180337
0.000232047
9.9428e-05
0.000229956
0.000180317
0.000232047
9.94451e-05
8.46611e-05
4.41691e-05
8.46551e-05
4.41692e-05
8.46621e-05
4.41688e-05
8.46557e-05
4.41687e-05
0.000180318
0.000229956
0.000232048
9.94531e-05
0.000232047
9.94368e-05
0.000180335
0.000180317
0.000229956
0.000232048
9.9445e-05
0.000232048
9.9428e-05
0.000180337
8.46554e-05
4.41692e-05
4.41691e-05
8.46609e-05
8.4656e-05
4.41687e-05
4.41687e-05
8.46618e-05
2.51184e-05
2.51185e-05
2.51177e-05
2.51177e-05
0.000225913
5.38295e-05
5.38188e-05
5.38282e-05
5.38176e-05
2.51184e-05
2.51184e-05
2.51177e-05
2.51176e-05
2.51189e-05
2.51188e-05
2.51177e-05
2.51179e-05
5.38108e-05
5.38191e-05
0.000225946
5.38161e-05
5.38197e-05
2.51189e-05
2.51188e-05
2.51179e-05
2.51177e-05
0.000225913
5.38161e-05
5.38198e-05
5.38117e-05
5.38189e-05
8.46534e-05
4.41723e-05
8.46454e-05
4.41723e-05
0.000180335
9.94265e-05
0.000232047
0.000229955
0.000180315
9.94451e-05
0.000232047
0.000180335
9.94335e-05
0.000232047
0.000229955
0.000180316
9.94498e-05
0.000232047
8.46456e-05
4.41716e-05
4.41714e-05
8.4653e-05
8.46458e-05
4.41723e-05
4.41722e-05
8.46531e-05
0.000180317
0.000229955
9.9445e-05
0.000232047
9.94271e-05
0.000232047
0.000180333
0.000180316
0.000229955
9.94497e-05
0.000232047
9.94336e-05
0.000232047
0.000180334
5.38203e-05
5.38113e-05
0.000225948
5.38216e-05
5.38165e-05
2.51192e-05
2.51192e-05
2.5119e-05
2.51189e-05
0.000225914
5.38215e-05
5.38166e-05
5.38204e-05
5.38121e-05
2.51192e-05
2.51191e-05
0.000180338
9.94287e-05
0.000232048
0.000229956
0.000180318
9.94457e-05
0.000232048
8.466e-05
4.41671e-05
8.46538e-05
4.41671e-05
0.000180334
0.000232047
9.94108e-05
0.000229953
0.000180315
0.000232047
9.94292e-05
8.46577e-05
4.41693e-05
4.41691e-05
8.46632e-05
0.000180319
0.000229956
9.94457e-05
0.000232047
9.94292e-05
0.000232048
0.000180337
8.46542e-05
4.41671e-05
4.41671e-05
8.46596e-05
0.000180316
0.000229953
0.000232047
9.94291e-05
0.000232047
9.94111e-05
0.000180333
8.46524e-05
4.41711e-05
8.46444e-05
4.41711e-05
0.000180333
0.000232048
9.94354e-05
0.000229955
0.000180316
0.000232048
9.94521e-05
8.4652e-05
4.41695e-05
8.4644e-05
4.41694e-05
0.000180316
0.000229957
9.94488e-05
0.000232048
9.94309e-05
0.000232048
0.000180333
8.46448e-05
4.41711e-05
4.41711e-05
8.46522e-05
0.000180315
0.000229955
0.000232048
9.9452e-05
0.000232048
9.94353e-05
0.000180334
8.46444e-05
4.41694e-05
4.41694e-05
8.46517e-05
5.37982e-05
5.38279e-05
0.000225945
5.38027e-05
5.38288e-05
2.51185e-05
2.51186e-05
2.51166e-05
2.51164e-05
0.000225912
5.3803e-05
5.3829e-05
5.37992e-05
5.38277e-05
2.51186e-05
2.51185e-05
0.000180337
0.000232048
9.94281e-05
0.000229956
0.000180317
0.000232048
9.94451e-05
8.46611e-05
4.41692e-05
8.46551e-05
4.41692e-05
8.46622e-05
4.41688e-05
8.46557e-05
4.41687e-05
0.000180318
0.000229956
0.000232048
9.94531e-05
0.000232048
9.94368e-05
0.000180334
0.000180317
0.000229956
0.000232047
9.94449e-05
0.000232048
9.94279e-05
0.000180337
8.46554e-05
4.41692e-05
4.41692e-05
8.46609e-05
8.4656e-05
4.41687e-05
4.41688e-05
8.46618e-05
2.51184e-05
2.51185e-05
2.51176e-05
2.51177e-05
0.000225913
5.38296e-05
5.38188e-05
5.38282e-05
5.38175e-05
2.51184e-05
2.51183e-05
2.51177e-05
2.51176e-05
2.51189e-05
2.51188e-05
2.51177e-05
2.51179e-05
5.38107e-05
5.38191e-05
0.000225947
5.38162e-05
5.38197e-05
2.51189e-05
2.51188e-05
2.51179e-05
2.51178e-05
0.000225913
5.38161e-05
5.38198e-05
5.38117e-05
5.38189e-05
8.46534e-05
4.41723e-05
8.46454e-05
4.41723e-05
0.000180335
9.94265e-05
0.000232047
0.000229955
0.000180315
9.94451e-05
0.000232047
0.000180335
9.94335e-05
0.000232047
0.000229954
0.000180315
9.94498e-05
0.000232047
8.46456e-05
4.41716e-05
4.41714e-05
8.4653e-05
8.46457e-05
4.41723e-05
4.41723e-05
8.4653e-05
0.000180317
0.000229955
9.9445e-05
0.000232047
9.94271e-05
0.000232047
0.000180333
0.000180316
0.000229955
9.94497e-05
0.000232047
9.94336e-05
0.000232047
0.000180334
5.38203e-05
5.38114e-05
0.000225948
5.38215e-05
5.38165e-05
2.51192e-05
2.51192e-05
2.5119e-05
2.51189e-05
0.000225914
5.38215e-05
5.38166e-05
5.38204e-05
5.3812e-05
2.51192e-05
2.51191e-05
0.000180338
9.94288e-05
0.000232048
0.000229956
0.000180318
9.94457e-05
0.000232048
8.466e-05
4.41671e-05
8.46539e-05
4.41671e-05
0.000180334
0.000232047
9.94109e-05
0.000229953
0.000180315
0.000232047
9.94292e-05
8.46577e-05
4.41693e-05
4.41691e-05
8.46632e-05
0.00018032
0.000229956
9.94457e-05
0.000232048
9.94292e-05
0.000232048
0.000180337
8.46542e-05
4.41671e-05
4.41672e-05
8.46596e-05
0.000180316
0.000229953
0.000232047
9.9429e-05
0.000232047
9.94111e-05
0.000180333
8.46523e-05
4.41711e-05
8.46445e-05
4.41711e-05
0.000180333
0.000232048
9.94354e-05
0.000229955
0.000180316
0.000232048
9.94521e-05
8.4652e-05
4.41694e-05
8.46439e-05