/*--------------------------------*- C++ -*----------------------------------*\
| =========                 |                                                 |
| \\      /  F ield         | OpenFOAM: The Open Source CFD Toolbox           |
|  \\    /   O peration     | Version:  2206                                  |
|   \\  /    A nd           | Website:  www.openfoam.com                      |
|    \\/     M anipulation  |                                                 |
\*---------------------------------------------------------------------------*/
FoamFile
{
    version     2.0;
    format      ascii;
    arch        "LSB;label=32;scalar=64";
    class       volScalarField;
    location    "5.5";
    object      epsilon;
}
// * * * * * * * * * * * * * * * * * * * * * * * * * * * * * * * * * * * * * //

dimensions      [0 2 -3 0 0 0 0];

internalField   nonuniform List<scalar> 
28673
(
4.67761e-07
4.70389e-07
4.65912e-07
4.676e-07
4.67734e-07
4.70351e-07
4.65653e-07
4.67481e-07
4.67491e-07
4.70147e-07
4.65644e-07
4.67481e-07
4.67482e-07
4.70151e-07
4.65643e-07
4.67481e-07
4.67482e-07
4.70151e-07
4.65643e-07
4.67481e-07
4.67482e-07
4.70151e-07
4.65643e-07
4.67481e-07
4.67482e-07
4.70151e-07
4.65643e-07
4.67481e-07
4.67482e-07
4.70151e-07
4.65643e-07
4.67481e-07
4.67482e-07
4.70151e-07
4.65643e-07
4.67481e-07
4.67482e-07
4.70151e-07
4.65643e-07
4.67481e-07
4.67482e-07
4.7015e-07
4.65643e-07
4.67477e-07
4.67478e-07
4.70145e-07
4.65616e-07
4.66656e-07
4.66656e-07
4.69574e-07
4.67765e-07
4.7036e-07
4.67763e-07
4.70377e-07
4.67764e-07
4.67764e-07
4.6774e-07
4.67692e-07
4.70397e-07
4.70266e-07
4.67754e-07
4.67756e-07
4.67764e-07
4.67697e-07
4.67737e-07
4.70366e-07
4.67763e-07
4.67756e-07
4.67736e-07
4.70338e-07
4.70404e-07
4.70128e-07
4.67688e-07
4.676e-07
4.67496e-07
4.67485e-07
4.70271e-07
4.70112e-07
4.67737e-07
4.67739e-07
4.67521e-07
4.67524e-07
4.67677e-07
4.67484e-07
4.67493e-07
4.70396e-07
4.70133e-07
4.67676e-07
4.67519e-07
4.67493e-07
4.70119e-07
4.70156e-07
4.70117e-07
4.67488e-07
4.67486e-07
4.67483e-07
4.67483e-07
4.70146e-07
4.70115e-07
4.67496e-07
4.67498e-07
4.67482e-07
4.67484e-07
4.67488e-07
4.67482e-07
4.67483e-07
4.7016e-07
4.70117e-07
4.67487e-07
4.67483e-07
4.67482e-07
4.7012e-07
4.70152e-07
4.70117e-07
4.67487e-07
4.67486e-07
4.67483e-07
4.67483e-07
4.70149e-07
4.70116e-07
4.67486e-07
4.67488e-07
4.67482e-07
4.67484e-07
4.67487e-07
4.67482e-07
4.67483e-07
4.70152e-07
4.70117e-07
4.67486e-07
4.67482e-07
4.67482e-07
4.7012e-07
4.70151e-07
4.70117e-07
4.67486e-07
4.67486e-07
4.67483e-07
4.67483e-07
4.7015e-07
4.70115e-07
4.67485e-07
4.67488e-07
4.67482e-07
4.67484e-07
4.67486e-07
4.67482e-07
4.67483e-07
4.70151e-07
4.70117e-07
4.67486e-07
4.67483e-07
4.67483e-07
4.7012e-07
4.70151e-07
4.70117e-07
4.67486e-07
4.67486e-07
4.67483e-07
4.67483e-07
4.70149e-07
4.70115e-07
4.67486e-07
4.67488e-07
4.67482e-07
4.67484e-07
4.67486e-07
4.67482e-07
4.67483e-07
4.70151e-07
4.70117e-07
4.67486e-07
4.67483e-07
4.67483e-07
4.7012e-07
4.70151e-07
4.70117e-07
4.67486e-07
4.67486e-07
4.67483e-07
4.67483e-07
4.70149e-07
4.70115e-07
4.67486e-07
4.67488e-07
4.67482e-07
4.67484e-07
4.67486e-07
4.67482e-07
4.67483e-07
4.70151e-07
4.70117e-07
4.67486e-07
4.67483e-07
4.67483e-07
4.7012e-07
4.70151e-07
4.70117e-07
4.67486e-07
4.67486e-07
4.67483e-07
4.67483e-07
4.70149e-07
4.70116e-07
4.67486e-07
4.67488e-07
4.67482e-07
4.67484e-07
4.67486e-07
4.67482e-07
4.67483e-07
4.70151e-07
4.70117e-07
4.67486e-07
4.67483e-07
4.67483e-07
4.7012e-07
4.70151e-07
4.70117e-07
4.67486e-07
4.67486e-07
4.67483e-07
4.67483e-07
4.7015e-07
4.70115e-07
4.67486e-07
4.67488e-07
4.67482e-07
4.67484e-07
4.67486e-07
4.67482e-07
4.67483e-07
4.70151e-07
4.70118e-07
4.67486e-07
4.67483e-07
4.67483e-07
4.7012e-07
4.70151e-07
4.70117e-07
4.67486e-07
4.67486e-07
4.67483e-07
4.67483e-07
4.70149e-07
4.70115e-07
4.67486e-07
4.67488e-07
4.67482e-07
4.67484e-07
4.67486e-07
4.67482e-07
4.67483e-07
4.70152e-07
4.70118e-07
4.67486e-07
4.67482e-07
4.67482e-07
4.7012e-07
4.70151e-07
4.70113e-07
4.67486e-07
4.67486e-07
4.67477e-07
4.67477e-07
4.70149e-07
4.70112e-07
4.67485e-07
4.67487e-07
4.67476e-07
4.67478e-07
4.67486e-07
4.6748e-07
4.67477e-07
4.70151e-07
4.70114e-07
4.67485e-07
4.6748e-07
4.67476e-07
4.70117e-07
4.70147e-07
4.6984e-07
4.67484e-07
4.67483e-07
4.67016e-07
4.67016e-07
4.70145e-07
4.69839e-07
4.67483e-07
4.67485e-07
4.67016e-07
4.67016e-07
4.67483e-07
4.67016e-07
4.67016e-07
4.70147e-07
4.6984e-07
4.67482e-07
4.67016e-07
4.67016e-07
4.69841e-07
4.69577e-07
4.66658e-07
4.66658e-07
4.69575e-07
4.66658e-07
4.66658e-07
4.65613e-07
4.65612e-07
4.65613e-07
4.66659e-07
4.69576e-07
4.66659e-07
1.07059e-06
5.46499e-06
1.07078e-06
5.46505e-06
1.86922e-05
1.86906e-05
1.0705e-06
5.46592e-06
4.6595e-07
4.65944e-07
4.65937e-07
4.65913e-07
4.65936e-07
4.65914e-07
5.40452e-07
9.25076e-07
4.66243e-07
4.67758e-07
5.40523e-07
9.24878e-07
4.66241e-07
1.86961e-05
5.40472e-07
4.66241e-07
4.67766e-07
5.40545e-07
4.66239e-07
9.24835e-07
1.67139e-06
1.6717e-06
4.7036e-07
1.67149e-06
1.67181e-06
1.07213e-06
5.46856e-06
1.07139e-06
5.47326e-06
1.87327e-05
1.87373e-05
1.07137e-06
5.46629e-06
1.07074e-06
5.47124e-06
4.65838e-07
4.65915e-07
4.6585e-07
4.65682e-07
4.65653e-07
4.65683e-07
4.65654e-07
5.40571e-07
9.26019e-07
4.6614e-07
4.67537e-07
5.40554e-07
9.26071e-07
4.66049e-07
1.86961e-05
1.87249e-05
5.40585e-07
4.66152e-07
9.25176e-07
4.6767e-07
5.40572e-07
4.66059e-07
9.25477e-07
1.67302e-06
1.67334e-06
4.70165e-07
1.67483e-06
1.67515e-06
1.0723e-06
5.47361e-06
1.07248e-06
5.47354e-06
1.87379e-05
1.87374e-05
1.07221e-06
5.47452e-06
1.07236e-06
5.47435e-06
4.65648e-07
4.65657e-07
4.65649e-07
4.65645e-07
4.65643e-07
4.65643e-07
4.65644e-07
5.40597e-07
9.26341e-07
4.65944e-07
4.67484e-07
5.40654e-07
9.26101e-07
4.65946e-07
1.87403e-05
1.87395e-05
5.40622e-07
4.65945e-07
9.26276e-07
4.67487e-07
5.40676e-07
4.65947e-07
9.26067e-07
1.67513e-06
1.67545e-06
4.70116e-07
1.67492e-06
1.67524e-06
1.0723e-06
5.47362e-06
1.07247e-06
5.47352e-06
1.87379e-05
1.87375e-05
1.0722e-06
5.47446e-06
1.07235e-06
5.47434e-06
4.65647e-07
4.65648e-07
4.65647e-07
4.65643e-07
4.65643e-07
4.65643e-07
4.65643e-07
5.406e-07
9.26338e-07
4.65943e-07
4.67485e-07
5.40651e-07
9.26101e-07
4.65946e-07
1.87397e-05
1.87394e-05
5.40624e-07
4.65943e-07
9.26286e-07
4.67485e-07
5.40671e-07
4.65946e-07
9.26067e-07
1.67512e-06
1.67544e-06
4.70117e-07
1.67492e-06
1.67524e-06
1.0723e-06
5.47362e-06
1.07247e-06
5.47352e-06
1.87379e-05
1.87375e-05
1.0722e-06
5.47446e-06
1.07235e-06
5.47434e-06
4.65647e-07
4.65647e-07
4.65647e-07
4.65644e-07
4.65643e-07
4.65643e-07
4.65644e-07
5.406e-07
9.26338e-07
4.65943e-07
4.67484e-07
5.40651e-07
9.26101e-07
4.65946e-07
1.87397e-05
1.87394e-05
5.40624e-07
4.65943e-07
9.26285e-07
4.67485e-07
5.4067e-07
4.65946e-07
9.26067e-07
1.67512e-06
1.67543e-06
4.70117e-07
1.67492e-06
1.67524e-06
1.0723e-06
5.47362e-06
1.07247e-06
5.47352e-06
1.87379e-05
1.87375e-05
1.0722e-06
5.47446e-06
1.07235e-06
5.47434e-06
4.65647e-07
4.65647e-07
4.65647e-07
4.65644e-07
4.65643e-07
4.65643e-07
4.65644e-07
5.40599e-07
9.26338e-07
4.65943e-07
4.67485e-07
5.40649e-07
9.26101e-07
4.65946e-07
1.87397e-05
1.87394e-05
5.40624e-07
4.65943e-07
9.26285e-07
4.67485e-07
5.4067e-07
4.65946e-07
9.26067e-07
1.67512e-06
1.67543e-06
4.70117e-07
1.67492e-06
1.67524e-06
1.0723e-06
5.47362e-06
1.07247e-06
5.47352e-06
1.87379e-05
1.87375e-05
1.0722e-06
5.47446e-06
1.07235e-06
5.47434e-06
4.65647e-07
4.65647e-07
4.65647e-07
4.65644e-07
4.65643e-07
4.65643e-07
4.65644e-07
5.40599e-07
9.26338e-07
4.65943e-07
4.67485e-07
5.4065e-07
9.26101e-07
4.65946e-07
1.87397e-05
1.87394e-05
5.40622e-07
4.65943e-07
9.26285e-07
4.67485e-07
5.40669e-07
4.65946e-07
9.26067e-07
1.67512e-06
1.67543e-06
4.70117e-07
1.67492e-06
1.67524e-06
1.0723e-06
5.47362e-06
1.07247e-06
5.47352e-06
1.87379e-05
1.87375e-05
1.0722e-06
5.47446e-06
1.07235e-06
5.47434e-06
4.65647e-07
4.65647e-07
4.65647e-07
4.65644e-07
4.65643e-07
4.65643e-07
4.65644e-07
5.406e-07
9.26338e-07
4.65943e-07
4.67485e-07
5.40651e-07
9.26101e-07
4.65946e-07
1.87397e-05
1.87394e-05
5.40613e-07
4.65943e-07
9.26285e-07
4.67485e-07
5.40662e-07
4.65946e-07
9.26067e-07
1.67512e-06
1.67543e-06
4.70117e-07
1.67492e-06
1.67524e-06
1.0723e-06
5.47362e-06
1.07247e-06
5.47352e-06
1.87379e-05
1.87375e-05
1.0722e-06
5.47446e-06
1.07235e-06
5.47434e-06
4.65647e-07
4.65647e-07
4.65647e-07
4.65644e-07
4.65643e-07
4.65643e-07
4.65643e-07
5.40599e-07
9.26338e-07
4.65943e-07
4.67485e-07
5.4065e-07
9.26101e-07
4.65946e-07
1.87397e-05
1.87394e-05
5.40609e-07
4.65943e-07
9.26285e-07
4.67485e-07
5.40657e-07
4.65946e-07
9.26067e-07
1.67512e-06
1.67543e-06
4.70117e-07
1.67492e-06
1.67524e-06
1.0723e-06
5.47362e-06
1.07247e-06
5.47352e-06
1.87379e-05
1.87375e-05
1.0722e-06
5.47441e-06
1.07235e-06
5.47427e-06
4.65647e-07
4.65647e-07
4.65647e-07
4.65644e-07
4.65643e-07
4.65643e-07
4.65643e-07
5.40599e-07
9.26338e-07
4.65942e-07
4.67485e-07
5.40649e-07
9.26101e-07
4.65946e-07
1.87397e-05
1.87394e-05
5.40608e-07
4.65943e-07
9.26285e-07
4.67485e-07
5.40657e-07
4.65946e-07
9.26067e-07
1.67512e-06
1.67543e-06
4.70117e-07
1.67492e-06
1.67524e-06
1.07227e-06
5.47362e-06
1.07246e-06
5.47365e-06
1.8738e-05
1.87377e-05
1.07218e-06
5.47438e-06
1.07233e-06
5.47441e-06
4.65646e-07
4.65647e-07
4.65646e-07
4.65643e-07
4.65643e-07
4.65643e-07
4.65643e-07
5.40594e-07
9.26327e-07
4.65943e-07
4.67484e-07
5.4065e-07
9.26073e-07
4.65946e-07
1.87397e-05
1.87398e-05
5.40605e-07
4.65943e-07
9.26275e-07
4.67485e-07
5.40659e-07
4.65946e-07
9.26041e-07
1.6751e-06
1.67542e-06
4.70116e-07
1.67489e-06
1.6752e-06
1.071e-06
5.47113e-06
1.07261e-06
5.47045e-06
1.87289e-05
1.87242e-05
1.07103e-06
5.47197e-06
1.07251e-06
5.47121e-06
4.65646e-07
4.65646e-07
4.65646e-07
4.65639e-07
4.65636e-07
4.65636e-07
4.65636e-07
5.40195e-07
9.26152e-07
4.65939e-07
4.67447e-07
5.40607e-07
9.25898e-07
4.65943e-07
1.87316e-05
1.87267e-05
5.40202e-07
4.65939e-07
9.26171e-07
4.67447e-07
5.40617e-07
4.65944e-07
9.25914e-07
1.67541e-06
1.6757e-06
4.70069e-07
1.68327e-06
1.68344e-06
8.12741e-07
4.91822e-06
1.06208e-06
2.11153e-06
1.4934e-05
5.11401e-06
8.12758e-07
4.91926e-06
1.06214e-06
2.11181e-06
4.65565e-07
4.65569e-07
4.65569e-07
4.65658e-07
4.65563e-07
4.65572e-07
4.65572e-07
5.27901e-07
8.9656e-07
4.65851e-07
4.66319e-07
5.3657e-07
9.12119e-07
4.6568e-07
1.49355e-05
5.11381e-06
5.27907e-07
4.65851e-07
8.96546e-07
4.66319e-07
5.36573e-07
4.6568e-07
9.12108e-07
1.65933e-06
1.65983e-06
4.68923e-07
1.41413e-06
1.41413e-06
5.46505e-06
9.2488e-07
1.86927e-05
1.67154e-06
1.67139e-06
1.86902e-05
9.24848e-07
5.4651e-06
1.86935e-05
1.86917e-05
1.86943e-05
1.67135e-06
4.70383e-07
1.67143e-06
1.67154e-06
1.86955e-05
1.86909e-05
1.86924e-05
1.86932e-05
4.70419e-07
1.6718e-06
1.67168e-06
1.67143e-06
1.67161e-06
1.07058e-06
5.46505e-06
1.07079e-06
5.46536e-06
5.40451e-07
9.25186e-07
4.66239e-07
4.67762e-07
5.40527e-07
9.24846e-07
4.66238e-07
5.40451e-07
9.25062e-07
4.66242e-07
4.67758e-07
5.40525e-07
9.24918e-07
4.66239e-07
1.07069e-06
5.46607e-06
5.46505e-06
1.07083e-06
1.07068e-06
5.47069e-06
5.46549e-06
1.07081e-06
5.40499e-07
4.67756e-07
9.2505e-07
4.66211e-07
9.25007e-07
4.6623e-07
5.40478e-07
5.40499e-07
4.67742e-07
9.25489e-07
4.6621e-07
9.2514e-07
4.66231e-07
5.40475e-07
1.67166e-06
1.67163e-06
4.70364e-07
1.67166e-06
1.67155e-06
1.86902e-05
1.86898e-05
1.87222e-05
1.86914e-05
4.70396e-07
1.6737e-06
1.67349e-06
1.67178e-06
1.67186e-06
1.87207e-05
1.86903e-05
5.40445e-07
4.67762e-07
9.2496e-07
4.66239e-07
1.07047e-06
5.46588e-06
5.40448e-07
4.67764e-07
4.66238e-07
9.25017e-07
1.0706e-06
5.46609e-06
5.46593e-06
1.07054e-06
5.40492e-07
4.6776e-07
9.24993e-07
4.6623e-07
9.25129e-07
4.66236e-07
5.40455e-07
1.07057e-06
5.466e-06
5.46588e-06
1.07052e-06
5.40494e-07
4.67762e-07
4.6623e-07
9.25055e-07
4.66236e-07
9.25216e-07
5.40455e-07
1.0706e-06
5.4651e-06
1.0708e-06
5.46541e-06
5.40453e-07
4.66239e-07
9.25216e-07
4.67762e-07
5.40523e-07
4.66237e-07
9.24878e-07
1.0706e-06
5.46568e-06
1.0708e-06
5.46581e-06
5.40498e-07
4.67744e-07
9.25461e-07
4.66211e-07
9.25125e-07
4.66233e-07
5.40472e-07
1.07069e-06
5.4707e-06
5.46557e-06
1.07081e-06
5.40499e-07
4.67755e-07
4.66211e-07
9.25078e-07
4.6623e-07
9.25042e-07
5.40473e-07
1.07069e-06
5.46665e-06
5.46581e-06
1.07082e-06
4.70361e-07
1.67191e-06
1.6713e-06
1.86934e-05
1.86949e-05
1.86958e-05
4.70399e-07
1.67207e-06
1.67143e-06
1.67216e-06
1.6714e-06
1.86916e-05
1.86923e-05
5.40474e-07
4.6624e-07
9.25298e-07
4.67761e-07
5.40546e-07
4.66238e-07
9.24957e-07
1.07072e-06
1.07097e-06
5.46555e-06
1.07072e-06
5.46592e-06
1.07098e-06
5.46604e-06
5.40517e-07
4.67763e-07
4.66214e-07
9.24886e-07
4.66232e-07
9.25013e-07
5.4049e-07
5.40519e-07
4.67754e-07
4.66211e-07
9.25156e-07
4.6623e-07
9.25123e-07
5.40491e-07
1.07086e-06
5.46564e-06
5.46556e-06
1.07095e-06
1.07087e-06
5.46689e-06
5.46603e-06
1.07095e-06
1.86952e-05
1.86934e-05
1.86963e-05
1.86945e-05
4.70395e-07
1.67191e-06
1.67224e-06
1.67149e-06
1.67181e-06
1.86976e-05
1.86926e-05
1.86987e-05
1.86938e-05
1.8708e-05
1.87349e-05
1.86929e-05
1.87241e-05
1.67281e-06
1.67197e-06
4.70244e-07
1.67478e-06
1.67398e-06
1.87359e-05
1.8735e-05
1.87385e-05
1.87326e-05
4.7025e-07
1.67492e-06
1.6753e-06
1.675e-06
1.67507e-06
1.07213e-06
5.47271e-06
1.07132e-06
5.47378e-06
5.40576e-07
9.25449e-07
4.66149e-07
4.67599e-07
5.40556e-07
9.25916e-07
4.66054e-07
5.40576e-07
9.25988e-07
4.66142e-07
4.67538e-07
5.40554e-07
9.26092e-07
4.66049e-07
1.07239e-06
5.47339e-06
5.47333e-06
1.0723e-06
1.0724e-06
5.47366e-06
5.47359e-06
1.0723e-06
5.40643e-07
4.67531e-07
9.26045e-07
4.65954e-07
9.26153e-07
4.65986e-07
5.40607e-07
5.40643e-07
4.67499e-07
9.26119e-07
4.65953e-07
9.26274e-07
4.65983e-07
5.40607e-07
1.67498e-06
1.67488e-06
4.70133e-07
1.67528e-06
1.67514e-06
1.87304e-05
1.87353e-05
1.87367e-05
1.87358e-05
4.7016e-07
1.67521e-06
1.67516e-06
1.67531e-06
1.67537e-06
1.8735e-05
1.8734e-05
5.40521e-07
9.25222e-07
4.66212e-07
4.67681e-07
5.40508e-07
9.25589e-07
4.66153e-07
1.07139e-06
5.46608e-06
1.07064e-06
5.47145e-06
5.40523e-07
4.66212e-07
9.25307e-07
4.67683e-07
5.40511e-07
4.66153e-07
9.25635e-07
1.07202e-06
5.47435e-06
5.47322e-06
1.07221e-06
5.40608e-07
4.67585e-07
9.26167e-07
4.65984e-07
9.26057e-07
4.66051e-07
5.40603e-07
1.07205e-06
5.47466e-06
5.47347e-06
1.07223e-06
5.40612e-07
4.67587e-07
4.65984e-07
9.26258e-07
4.66051e-07
9.26157e-07
5.40605e-07
1.07214e-06
5.47276e-06
1.07132e-06
5.4738e-06
5.40573e-07
4.66148e-07
9.25481e-07
4.67587e-07
5.40549e-07
4.66053e-07
9.25941e-07
1.07214e-06
5.46897e-06
1.07133e-06
5.47397e-06
5.40639e-07
4.675e-07
9.26107e-07
4.65953e-07
9.26273e-07
4.65984e-07
5.40605e-07
1.07241e-06
5.47368e-06
5.47361e-06
1.07231e-06
5.4064e-07
4.67524e-07
4.65953e-07
9.26078e-07
4.65985e-07
9.26187e-07
5.40606e-07
1.07241e-06
5.47413e-06
5.47409e-06
1.07231e-06
1.67237e-06
1.67152e-06
4.70262e-07
1.67399e-06
1.6734e-06
1.86919e-05
1.87224e-05
1.87395e-05
1.8734e-05
4.70266e-07
1.67564e-06
1.67499e-06
1.67535e-06
1.67462e-06
1.87376e-05
1.87313e-05
5.40588e-07
4.66148e-07
9.25564e-07
4.67587e-07
5.40567e-07
4.66053e-07
9.26018e-07
1.07223e-06
5.46576e-06
1.07151e-06
5.47132e-06
1.07223e-06
5.46921e-06
1.07152e-06
5.47421e-06
5.40654e-07
4.67577e-07
4.65956e-07
9.26043e-07
4.6599e-07
9.25955e-07
5.40625e-07
5.40657e-07
4.67523e-07
4.65954e-07
9.26158e-07
4.65985e-07
9.26269e-07
5.40627e-07
1.07257e-06
5.47432e-06
5.47318e-06
1.07247e-06
1.07258e-06
5.47436e-06
5.47434e-06
1.07248e-06
1.87105e-05
1.87367e-05
1.87117e-05
1.87379e-05
4.70185e-07
1.67496e-06
1.67528e-06
1.67502e-06
1.67534e-06
1.87376e-05
1.87367e-05
1.87387e-05
1.87378e-05
1.87355e-05
1.87359e-05
1.87373e-05
1.87383e-05
1.67494e-06
1.67532e-06
4.70114e-07
1.67491e-06
1.67527e-06
1.87359e-05
1.87345e-05
1.87382e-05
1.8737e-05
4.70149e-07
1.67491e-06
1.67526e-06
1.67492e-06
1.67528e-06
1.0723e-06
5.47348e-06
1.0724e-06
5.47367e-06
5.40595e-07
9.26214e-07
4.65948e-07
4.67486e-07
5.40652e-07
9.2606e-07
4.65946e-07
5.40596e-07
9.26285e-07
4.65947e-07
4.67486e-07
5.40653e-07
9.2612e-07
4.65946e-07
1.0724e-06
5.47343e-06
5.47332e-06
1.07229e-06
1.0724e-06
5.47365e-06
5.47348e-06
1.0723e-06
5.40642e-07
4.67483e-07
9.26051e-07
4.65943e-07
9.26219e-07
4.65943e-07
5.40604e-07
5.40644e-07
4.67483e-07
9.26118e-07
4.65942e-07
9.26282e-07
4.65942e-07
5.40603e-07
1.67527e-06
1.67537e-06
4.70116e-07
1.67524e-06
1.6751e-06
1.87343e-05
1.87349e-05
1.87367e-05
1.8736e-05
4.70152e-07
1.67521e-06
1.67512e-06
1.67528e-06
1.67531e-06
1.8735e-05
1.87337e-05
5.40594e-07
9.26343e-07
4.65957e-07
4.67487e-07
5.40651e-07
9.26199e-07
4.65948e-07
1.07223e-06
5.47446e-06
1.0723e-06
5.47449e-06
5.40599e-07
4.65957e-07
9.26456e-07
4.67489e-07
5.40654e-07
4.65948e-07
9.26281e-07
1.07227e-06
5.47428e-06
5.47415e-06
1.07219e-06
5.40637e-07
4.67482e-07
9.2619e-07
4.65942e-07
9.26354e-07
4.65942e-07
5.40594e-07
1.0723e-06
5.47447e-06
5.47429e-06
1.07223e-06
5.40642e-07
4.67484e-07
4.65942e-07
9.26276e-07
4.65942e-07
9.26462e-07
5.40601e-07
1.07231e-06
5.4735e-06
1.07241e-06
5.4737e-06
5.40597e-07
4.65948e-07
9.26241e-07
4.67486e-07
5.40651e-07
4.65946e-07
9.26078e-07
1.07231e-06
5.47392e-06
1.07241e-06
5.47409e-06
5.40642e-07
4.67484e-07
9.26102e-07
4.65944e-07
9.2628e-07
4.65946e-07
5.406e-07
1.07241e-06
5.47367e-06
5.4735e-06
1.07231e-06
5.40643e-07
4.67483e-07
4.65943e-07
9.26079e-07
4.65943e-07
9.2624e-07
5.40602e-07
1.07241e-06
5.47409e-06
5.47387e-06
1.07231e-06
1.67583e-06
1.675e-06
4.70115e-07
1.67562e-06
1.67496e-06
1.87365e-05
1.87374e-05
1.87388e-05
1.87382e-05
4.7015e-07
1.67559e-06
1.67495e-06
1.67581e-06
1.67497e-06
1.87374e-05
1.87361e-05
5.40624e-07
4.65948e-07
9.26324e-07
4.67485e-07
5.40674e-07
4.65946e-07
9.26158e-07
1.07246e-06
5.47413e-06
1.07261e-06
5.47415e-06
1.07246e-06
5.47416e-06
1.07262e-06
5.47431e-06
5.40666e-07
4.67485e-07
4.65944e-07
9.26068e-07
4.65946e-07
9.26228e-07
5.40619e-07
5.40668e-07
4.67482e-07
4.65943e-07
9.26158e-07
4.65943e-07
9.26322e-07
5.4062e-07
1.0726e-06
5.47416e-06
5.47395e-06
1.07245e-06
1.07261e-06
5.47432e-06
5.4741e-06
1.07246e-06
1.87371e-05
1.87375e-05
1.87383e-05
1.87387e-05
4.70153e-07
1.67494e-06
1.67526e-06
1.67494e-06
1.67526e-06
1.87376e-05
1.87361e-05
1.87387e-05
1.87373e-05
1.87355e-05
1.87359e-05
1.87378e-05
1.87382e-05
1.67493e-06
1.67529e-06
4.70117e-07
1.67491e-06
1.67527e-06
1.87359e-05
1.87345e-05
1.87382e-05
1.87368e-05
4.70153e-07
1.67491e-06
1.67527e-06
1.67492e-06
1.67528e-06
1.0723e-06
5.47352e-06
1.0724e-06
5.47368e-06
5.40597e-07
9.26216e-07
4.65947e-07
4.67486e-07
5.40651e-07
9.2606e-07
4.65946e-07
5.406e-07
9.26284e-07
4.65946e-07
4.67486e-07
5.40651e-07
9.2612e-07
4.65946e-07
1.0724e-06
5.47343e-06
5.47332e-06
1.07229e-06
1.0724e-06
5.47365e-06
5.47349e-06
1.0723e-06
5.40642e-07
4.67484e-07
9.26051e-07
4.65943e-07
9.26219e-07
4.65944e-07
5.40603e-07
5.40647e-07
4.67484e-07
9.26118e-07
4.65942e-07
9.26282e-07
4.65943e-07
5.40601e-07
1.67527e-06
1.67532e-06
4.70116e-07
1.67524e-06
1.67514e-06
1.87344e-05
1.87348e-05
1.87367e-05
1.8736e-05
4.70151e-07
1.67521e-06
1.6751e-06
1.67528e-06
1.67534e-06
1.8735e-05
1.87336e-05
5.40594e-07
9.26351e-07
4.65947e-07
4.67486e-07
5.40643e-07
9.26198e-07
4.65947e-07
1.07222e-06
5.4743e-06
1.07229e-06
5.47452e-06
5.406e-07
4.65948e-07
9.26459e-07
4.67488e-07
5.40649e-07
4.65947e-07
9.26281e-07
1.07227e-06
5.47427e-06
5.47416e-06
1.07219e-06
5.40639e-07
4.67483e-07
9.26191e-07
4.65942e-07
9.26353e-07
4.65943e-07
5.40594e-07
1.0723e-06
5.47447e-06
5.47432e-06
1.07223e-06
5.40645e-07
4.67485e-07
4.65943e-07
9.26276e-07
4.65943e-07
9.26461e-07
5.40601e-07
1.07231e-06
5.4735e-06
1.07241e-06
5.47371e-06
5.40601e-07
4.65946e-07
9.26241e-07
4.67486e-07
5.40648e-07
4.65946e-07
9.26077e-07
1.07231e-06
5.47394e-06
1.07241e-06
5.47408e-06
5.40645e-07
4.67484e-07
9.26102e-07
4.65943e-07
9.26281e-07
4.65945e-07
5.40601e-07
1.07241e-06
5.47367e-06
5.4735e-06
1.07231e-06
5.40647e-07
4.67484e-07
4.65942e-07
9.26078e-07
4.65943e-07
9.26239e-07
5.40601e-07
1.07241e-06
5.47409e-06
5.47387e-06
1.07231e-06
1.67574e-06
1.67497e-06
4.70118e-07
1.67563e-06
1.67496e-06
1.8737e-05
1.87373e-05
1.87388e-05
1.87381e-05
4.70153e-07
1.67558e-06
1.67495e-06
1.67582e-06
1.67497e-06
1.87374e-05
1.87359e-05
5.40627e-07
4.65947e-07
9.26323e-07
4.67486e-07
5.40668e-07
4.65947e-07
9.26156e-07
1.07246e-06
5.47403e-06
1.0726e-06
5.47417e-06
1.07246e-06
5.47416e-06
1.07261e-06
5.47431e-06
5.40669e-07
4.67485e-07
4.65943e-07
9.26068e-07
4.65946e-07
9.26227e-07
5.40619e-07
5.40671e-07
4.67483e-07
4.65943e-07
9.26158e-07
4.65943e-07
9.26321e-07
5.40619e-07
1.07261e-06
5.47416e-06
5.47397e-06
1.07245e-06
1.07261e-06
5.47432e-06
5.4741e-06
1.07246e-06
1.87372e-05
1.87375e-05
1.87384e-05
1.87387e-05
4.70153e-07
1.67494e-06
1.67526e-06
1.67494e-06
1.67526e-06
1.87376e-05
1.87362e-05
1.87387e-05
1.87373e-05
1.87355e-05
1.87359e-05
1.87378e-05
1.87382e-05
1.67493e-06
1.67529e-06
4.70117e-07
1.67491e-06
1.67527e-06
1.87359e-05
1.87345e-05
1.87382e-05
1.87368e-05
4.70153e-07
1.67491e-06
1.67526e-06
1.67492e-06
1.67528e-06
1.0723e-06
5.47352e-06
1.0724e-06
5.47368e-06
5.40598e-07
9.26216e-07
4.65946e-07
4.67486e-07
5.40651e-07
9.2606e-07
4.65946e-07
5.40601e-07
9.26284e-07
4.65946e-07
4.67486e-07
5.40649e-07
9.2612e-07
4.65945e-07
1.0724e-06
5.47343e-06
5.47331e-06
1.07229e-06
1.0724e-06
5.47365e-06
5.47349e-06
1.0723e-06
5.40643e-07
4.67484e-07
9.26051e-07
4.65943e-07
9.26219e-07
4.65944e-07
5.40603e-07
5.40647e-07
4.67484e-07
9.26118e-07
4.65942e-07
9.26282e-07
4.65943e-07
5.40601e-07
1.67527e-06
1.67533e-06
4.70116e-07
1.67524e-06
1.67513e-06
1.87344e-05
1.87348e-05
1.87367e-05
1.8736e-05
4.70151e-07
1.67521e-06
1.6751e-06
1.67528e-06
1.67534e-06
1.8735e-05
1.87336e-05
5.40595e-07
9.26351e-07
4.65946e-07
4.67485e-07
5.40642e-07
9.26198e-07
4.65946e-07
1.07222e-06
5.4743e-06
1.07229e-06
5.47453e-06
5.406e-07
4.65946e-07
9.26459e-07
4.67488e-07
5.40648e-07
4.65946e-07
9.26281e-07
1.07227e-06
5.47427e-06
5.47416e-06
1.07219e-06
5.4064e-07
4.67483e-07
9.2619e-07
4.65943e-07
9.26353e-07
4.65943e-07
5.40594e-07
1.0723e-06
5.47447e-06
5.47433e-06
1.07223e-06
5.40646e-07
4.67485e-07
4.65942e-07
9.26276e-07
4.65943e-07
9.26462e-07
5.406e-07
1.07231e-06
5.4735e-06
1.07241e-06
5.47371e-06
5.40601e-07
4.65946e-07
9.26241e-07
4.67486e-07
5.40646e-07
4.65946e-07
9.26077e-07
1.07231e-06
5.47395e-06
1.07241e-06
5.47408e-06
5.40646e-07
4.67484e-07
9.26102e-07
4.65943e-07
9.26281e-07
4.65945e-07
5.406e-07
1.07241e-06
5.47367e-06
5.47351e-06
1.07231e-06
5.40648e-07
4.67484e-07
4.65943e-07
9.26078e-07
4.65943e-07
9.26239e-07
5.406e-07
1.07241e-06
5.47409e-06
5.47387e-06
1.07231e-06
1.67574e-06
1.67497e-06
4.70118e-07
1.67563e-06
1.67496e-06
1.8737e-05
1.87373e-05
1.87388e-05
1.87381e-05
4.70153e-07
1.67558e-06
1.67495e-06
1.67582e-06
1.67497e-06
1.87374e-05
1.87359e-05
5.40627e-07
4.65946e-07
9.26323e-07
4.67486e-07
5.40667e-07
4.65946e-07
9.26157e-07
1.07246e-06
5.47403e-06
1.0726e-06
5.47417e-06
1.07246e-06
5.47417e-06
1.07261e-06
5.47431e-06
5.4067e-07
4.67485e-07
4.65943e-07
9.26068e-07
4.65946e-07
9.26227e-07
5.40619e-07
5.40672e-07
4.67484e-07
4.65943e-07
9.26158e-07
4.65944e-07
9.26321e-07
5.40619e-07
1.07261e-06
5.47416e-06
5.47398e-06
1.07245e-06
1.07261e-06
5.47432e-06
5.4741e-06
1.07246e-06
1.87372e-05
1.87375e-05
1.87383e-05
1.87387e-05
4.70153e-07
1.67494e-06
1.67526e-06
1.67494e-06
1.67526e-06
1.87376e-05
1.87362e-05
1.87387e-05
1.87373e-05
1.87355e-05
1.87359e-05
1.87378e-05
1.87382e-05
1.67493e-06
1.67529e-06
4.70117e-07
1.67491e-06
1.67527e-06
1.87359e-05
1.87345e-05
1.87382e-05
1.87368e-05
4.70153e-07
1.67491e-06
1.67527e-06
1.67492e-06
1.67528e-06
1.0723e-06
5.47353e-06
1.0724e-06
5.47368e-06
5.40598e-07
9.26216e-07
4.65946e-07
4.67486e-07
5.40651e-07
9.2606e-07
4.65946e-07
5.40601e-07
9.26284e-07
4.65946e-07
4.67486e-07
5.40649e-07
9.2612e-07
4.65945e-07
1.0724e-06
5.47343e-06
5.47331e-06
1.07229e-06
1.0724e-06
5.47365e-06
5.47349e-06
1.0723e-06
5.40643e-07
4.67484e-07
9.26051e-07
4.65943e-07
9.26219e-07
4.65944e-07
5.40603e-07
5.40647e-07
4.67484e-07
9.26118e-07
4.65942e-07
9.26282e-07
4.65943e-07
5.40601e-07
1.67527e-06
1.67532e-06
4.70116e-07
1.67524e-06
1.67513e-06
1.87344e-05
1.87348e-05
1.87367e-05
1.8736e-05
4.70151e-07
1.67521e-06
1.6751e-06
1.67528e-06
1.67534e-06
1.8735e-05
1.87337e-05
5.40595e-07
9.26351e-07
4.65946e-07
4.67485e-07
5.40643e-07
9.26199e-07
4.65946e-07
1.07222e-06
5.4743e-06
1.07229e-06
5.47452e-06
5.406e-07
4.65946e-07
9.26459e-07
4.67488e-07
5.40648e-07
4.65946e-07
9.26281e-07
1.07227e-06
5.47427e-06
5.47416e-06
1.07219e-06
5.4064e-07
4.67483e-07
9.26191e-07
4.65943e-07
9.26354e-07
4.65944e-07
5.40594e-07
1.0723e-06
5.47447e-06
5.47432e-06
1.07223e-06
5.40646e-07
4.67485e-07
4.65943e-07
9.26276e-07
4.65944e-07
9.26461e-07
5.406e-07
1.07231e-06
5.4735e-06
1.07241e-06
5.47371e-06
5.40601e-07
4.65946e-07
9.26241e-07
4.67486e-07
5.40646e-07
4.65946e-07
9.26077e-07
1.07231e-06
5.47395e-06
1.07241e-06
5.47408e-06
5.40645e-07
4.67484e-07
9.26102e-07
4.65944e-07
9.2628e-07
4.65946e-07
5.406e-07
1.07241e-06
5.47367e-06
5.47351e-06
1.07231e-06
5.40648e-07
4.67484e-07
4.65943e-07
9.26078e-07
4.65943e-07
9.26239e-07
5.406e-07
1.07241e-06
5.47409e-06
5.47387e-06
1.07231e-06
1.67574e-06
1.67497e-06
4.70118e-07
1.67563e-06
1.67496e-06
1.8737e-05
1.87373e-05
1.87387e-05
1.87381e-05
4.70153e-07
1.67558e-06
1.67495e-06
1.67582e-06
1.67497e-06
1.87374e-05
1.87359e-05
5.40627e-07
4.65946e-07
9.26323e-07
4.67486e-07
5.40667e-07
4.65946e-07
9.26156e-07
1.07246e-06
5.47403e-06
1.0726e-06
5.47417e-06
1.07246e-06
5.47417e-06
1.07261e-06
5.47431e-06
5.4067e-07
4.67485e-07
4.65943e-07
9.26068e-07
4.65945e-07
9.26227e-07
5.40619e-07
5.40672e-07
4.67483e-07
4.65943e-07
9.26158e-07
4.65944e-07
9.26321e-07
5.40619e-07
1.07261e-06
5.47416e-06
5.47398e-06
1.07246e-06
1.07261e-06
5.47432e-06
5.4741e-06
1.07246e-06
1.87372e-05
1.87376e-05
1.87383e-05
1.87387e-05
4.70153e-07
1.67494e-06
1.67526e-06
1.67494e-06
1.67526e-06
1.87376e-05
1.87362e-05
1.87387e-05
1.87373e-05
1.87355e-05
1.87359e-05
1.87378e-05
1.87382e-05
1.67493e-06
1.67529e-06
4.70117e-07
1.67491e-06
1.67527e-06
1.87359e-05
1.87345e-05
1.87382e-05
1.87368e-05
4.70153e-07
1.67491e-06
1.67526e-06
1.67492e-06
1.67528e-06
1.0723e-06
5.47353e-06
1.0724e-06
5.47368e-06
5.40598e-07
9.26216e-07
4.65946e-07
4.67486e-07
5.40651e-07
9.2606e-07
4.65946e-07
5.40601e-07
9.26284e-07
4.65946e-07
4.67486e-07
5.40649e-07
9.2612e-07
4.65946e-07
1.0724e-06
5.47343e-06
5.47332e-06
1.07229e-06
1.0724e-06
5.47365e-06
5.47349e-06
1.0723e-06
5.40643e-07
4.67484e-07
9.26051e-07
4.65943e-07
9.26219e-07
4.65944e-07
5.40603e-07
5.40647e-07
4.67484e-07
9.26118e-07
4.65943e-07
9.26282e-07
4.65943e-07
5.40601e-07
1.67527e-06
1.67532e-06
4.70116e-07
1.67524e-06
1.67513e-06
1.87343e-05
1.87348e-05
1.87367e-05
1.8736e-05
4.70151e-07
1.67521e-06
1.6751e-06
1.67528e-06
1.67534e-06
1.8735e-05
1.87336e-05
5.40595e-07
9.26352e-07
4.65946e-07
4.67485e-07
5.40642e-07
9.26198e-07
4.65946e-07
1.07222e-06
5.4743e-06
1.07229e-06
5.47452e-06
5.406e-07
4.65946e-07
9.26459e-07
4.67488e-07
5.40648e-07
4.65946e-07
9.2628e-07
1.07227e-06
5.47427e-06
5.47416e-06
1.07219e-06
5.4064e-07
4.67483e-07
9.2619e-07
4.65943e-07
9.26353e-07
4.65943e-07
5.40594e-07
1.0723e-06
5.47447e-06
5.47432e-06
1.07223e-06
5.40646e-07
4.67485e-07
4.65943e-07
9.26276e-07
4.65944e-07
9.26461e-07
5.406e-07
1.07231e-06
5.4735e-06
1.07241e-06
5.47371e-06
5.40601e-07
4.65946e-07
9.26241e-07
4.67486e-07
5.40646e-07
4.65946e-07
9.26077e-07
1.07231e-06
5.47395e-06
1.07241e-06
5.47408e-06
5.40645e-07
4.67484e-07
9.26102e-07
4.65943e-07
9.2628e-07
4.65945e-07
5.40601e-07
1.07241e-06
5.47367e-06
5.4735e-06
1.07231e-06
5.40648e-07
4.67484e-07
4.65942e-07
9.26078e-07
4.65943e-07
9.26239e-07
5.40601e-07
1.07241e-06
5.47409e-06
5.47387e-06
1.07231e-06
1.67574e-06
1.67497e-06
4.70118e-07
1.67563e-06
1.67496e-06
1.8737e-05
1.87373e-05
1.87388e-05
1.87381e-05
4.70153e-07
1.67558e-06
1.67495e-06
1.67582e-06
1.67497e-06
1.87374e-05
1.87359e-05
5.40627e-07
4.65946e-07
9.26322e-07
4.67486e-07
5.40667e-07
4.65946e-07
9.26156e-07
1.07244e-06
5.47403e-06
1.07256e-06
5.47417e-06
1.07246e-06
5.47417e-06
1.07261e-06
5.47431e-06
5.40666e-07
4.67485e-07
4.65943e-07
9.26068e-07
4.65945e-07
9.26227e-07
5.40613e-07
5.40671e-07
4.67483e-07
4.65943e-07
9.26158e-07
4.65944e-07
9.26321e-07
5.40618e-07
1.07253e-06
5.47416e-06
5.47398e-06
1.07238e-06
1.07261e-06
5.47432e-06
5.4741e-06
1.07245e-06
1.87372e-05
1.87375e-05
1.87383e-05
1.87387e-05
4.70153e-07
1.67494e-06
1.67526e-06
1.67494e-06
1.67525e-06
1.87376e-05
1.87362e-05
1.87387e-05
1.87373e-05
1.87355e-05
1.87359e-05
1.87378e-05
1.87382e-05
1.67493e-06
1.67529e-06
4.70117e-07
1.67491e-06
1.67527e-06
1.87359e-05
1.87345e-05
1.87382e-05
1.87368e-05
4.70153e-07
1.67491e-06
1.67526e-06
1.67492e-06
1.67528e-06
1.0723e-06
5.47353e-06
1.0724e-06
5.47368e-06
5.40598e-07
9.26216e-07
4.65946e-07
4.67486e-07
5.40651e-07
9.2606e-07
4.65946e-07
5.40601e-07
9.26284e-07
4.65946e-07
4.67486e-07
5.40649e-07
9.2612e-07
4.65946e-07
1.0724e-06
5.47343e-06
5.47331e-06
1.07229e-06
1.0724e-06
5.47365e-06
5.47349e-06
1.0723e-06
5.40643e-07
4.67484e-07
9.26051e-07
4.65943e-07
9.26219e-07
4.65943e-07
5.40603e-07
5.40648e-07
4.67484e-07
9.26118e-07
4.65943e-07
9.26282e-07
4.65943e-07
5.40601e-07
1.67527e-06
1.67532e-06
4.70116e-07
1.67524e-06
1.67513e-06
1.87344e-05
1.87348e-05
1.87367e-05
1.8736e-05
4.70151e-07
1.67521e-06
1.6751e-06
1.67528e-06
1.67534e-06
1.8735e-05
1.87336e-05
5.40595e-07
9.26351e-07
4.65946e-07
4.67485e-07
5.40642e-07
9.26198e-07
4.65946e-07
1.07222e-06
5.4743e-06
1.07229e-06
5.47452e-06
5.406e-07
4.65946e-07
9.26459e-07
4.67488e-07
5.40648e-07
4.65946e-07
9.26281e-07
1.07227e-06
5.47427e-06
5.47416e-06
1.07219e-06
5.4064e-07
4.67483e-07
9.2619e-07
4.65943e-07
9.26353e-07
4.65943e-07
5.40594e-07
1.0723e-06
5.47447e-06
5.47433e-06
1.07223e-06
5.40646e-07
4.67485e-07
4.65943e-07
9.26276e-07
4.65944e-07
9.26462e-07
5.40601e-07
1.07231e-06
5.4735e-06
1.07241e-06
5.47371e-06
5.40601e-07
4.65946e-07
9.26241e-07
4.67486e-07
5.40646e-07
4.65946e-07
9.26077e-07
1.07231e-06
5.47395e-06
1.07241e-06
5.47408e-06
5.40646e-07