/*--------------------------------*- C++ -*----------------------------------*\
| =========                 |                                                 |
| \\      /  F ield         | OpenFOAM: The Open Source CFD Toolbox           |
|  \\    /   O peration     | Version:  2206                                  |
|   \\  /    A nd           | Website:  www.openfoam.com                      |
|    \\/     M anipulation  |                                                 |
\*---------------------------------------------------------------------------*/
FoamFile
{
    version     2.0;
    format      ascii;
    arch        "LSB;label=32;scalar=64";
    class       volScalarField;
    location    "34.5";
    object      Ux;
}
// * * * * * * * * * * * * * * * * * * * * * * * * * * * * * * * * * * * * * //

dimensions      [0 1 -1 0 0 0 0];

internalField   nonuniform List<scalar> 
171728
(
0.000107979
-0.000190219
0.000119354
-0.000239502
9.41522e-05
-0.000159004
9.69101e-05
-0.000200915
9.55426e-05
-0.000156158
9.37187e-05
-0.000201562
9.46126e-05
-0.000153019
9.07091e-05
-0.000197946
9.09584e-05
-0.0001467
8.5672e-05
-0.000190587
8.64216e-05
-0.000136355
7.86484e-05
-0.000182624
7.17537e-05
-0.000116641
6.5374e-05
-0.000163219
4.05728e-05
-5.77139e-05
3.47451e-05
-9.91399e-05
1.5847e-05
-2.20876e-05
1.58451e-05
-6.57241e-05
2.08316e-06
-4.01291e-06
3.36864e-06
-4.96936e-05
-6.05393e-07
-7.80184e-07
1.05329e-06
-4.71873e-05
-8.49485e-07
-5.76361e-07
8.85946e-07
-4.70528e-05
-8.59682e-07
-5.80435e-07
8.81638e-07
-4.70512e-05
-8.59355e-07
-5.79447e-07
8.8154e-07
-4.70521e-05
-8.62318e-07
-5.73974e-07
8.81321e-07
-4.70524e-05
-8.62662e-07
-5.73926e-07
8.81043e-07
-4.70521e-05
-8.61782e-07
-5.74497e-07
8.8101e-07
-4.70513e-05
-8.62043e-07
-5.73459e-07
8.81009e-07
-4.70514e-05
-8.59801e-07
-5.74153e-07
8.81071e-07
-4.70512e-05
-8.53209e-07
-5.72105e-07
8.82116e-07
-4.70521e-05
-8.4936e-07
-5.77942e-07
8.82685e-07
-4.7051e-05
-8.58397e-07
-5.7485e-07
8.82392e-07
-4.70516e-05
-8.59288e-07
-5.73365e-07
8.81942e-07
-4.70512e-05
-8.60329e-07
-5.72962e-07
8.81763e-07
-4.70514e-05
-8.60765e-07
-5.72346e-07
8.81265e-07
-4.70515e-05
-8.61719e-07
-5.71411e-07
8.80892e-07
-4.70516e-05
-8.62497e-07
-5.71038e-07
8.80837e-07
-4.70518e-05
-8.62176e-07
-5.71491e-07
8.81386e-07
-4.7052e-05
-8.61817e-07
-5.71966e-07
8.81649e-07
-4.70524e-05
-8.60804e-07
-5.72079e-07
8.82162e-07
-4.7053e-05
-8.60906e-07
-5.72484e-07
8.81672e-07
-4.70531e-05
-8.61308e-07
-5.72218e-07
8.82136e-07
-4.70527e-05
-8.61269e-07
-5.71602e-07
8.81607e-07
-4.70524e-05
-8.62359e-07
-5.70794e-07
8.80988e-07
-4.70519e-05
-8.61816e-07
-5.70908e-07
8.81267e-07
-4.70518e-05
-8.61852e-07
-5.70918e-07
8.81241e-07
-4.70519e-05
-8.6131e-07
-5.71195e-07
8.82089e-07
-4.70526e-05
-8.61231e-07
-5.72225e-07
8.82147e-07
-4.7053e-05
-8.61023e-07
-5.71768e-07
8.82297e-07
-4.70529e-05
-8.61222e-07
-5.71467e-07
8.80687e-07
-4.70502e-05
-8.57353e-07
-5.68533e-07
8.80601e-07
-4.70501e-05
-8.64441e-07
-5.72003e-07
8.81364e-07
-4.70529e-05
-8.62138e-07
-5.70591e-07
8.80662e-07
-4.70518e-05
-8.6096e-07
-5.72516e-07
8.81025e-07
-4.70524e-05
-8.60135e-07
-5.72857e-07
8.80659e-07
-4.70528e-05
-8.58654e-07
-5.73558e-07
8.81543e-07
-4.7053e-05
-8.5826e-07
-5.7379e-07
8.81297e-07
-4.7053e-05
-8.59034e-07
-5.73308e-07
8.81159e-07
-4.70532e-05
-8.59304e-07
-5.73563e-07
8.80793e-07
-4.70531e-05
-8.59628e-07
-5.7204e-07
8.80774e-07
-4.70523e-05
-8.59785e-07
-5.7319e-07
8.81043e-07
-4.70527e-05
-8.59798e-07
-5.72704e-07
8.81052e-07
-4.70528e-05
-8.58675e-07
-5.73642e-07
8.81586e-07
-4.70535e-05
-8.57571e-07
-5.73295e-07
8.82161e-07
-4.70534e-05
-8.56595e-07
-5.73694e-07
8.82199e-07
-4.70529e-05
-8.58737e-07
-5.743e-07
8.81371e-07
-4.70541e-05
-8.58528e-07
-5.74996e-07
8.81444e-07
-4.70556e-05
-8.58452e-07
-5.75352e-07
8.81803e-07
-4.70558e-05
-8.58505e-07
-5.74611e-07
8.8185e-07
-4.70557e-05
-8.57926e-07
-5.7572e-07
8.82474e-07
-4.70558e-05
-8.57278e-07
-5.75605e-07
8.82653e-07
-4.7056e-05
-8.57075e-07
-5.7664e-07
8.82912e-07
-4.70565e-05
-8.57025e-07
-5.76469e-07
8.8337e-07
-4.70564e-05
-8.57054e-07
-5.75551e-07
8.82667e-07
-4.70558e-05
-8.57409e-07
-5.75406e-07
8.82449e-07
-4.70559e-05
-8.58623e-07
-5.74604e-07
8.81985e-07
-4.70551e-05
-8.57907e-07
-5.75205e-07
8.82551e-07
-4.70557e-05
-8.5768e-07
-5.75019e-07
8.82405e-07
-4.7056e-05
-8.56875e-07
-5.75703e-07
8.8444e-07
-4.70574e-05
-8.56265e-07
-5.76397e-07
8.89937e-07
-4.70612e-05
-8.56353e-07
-5.75717e-07
8.86239e-07
-4.70601e-05
-8.5681e-07
-5.76041e-07
8.83151e-07
-4.70564e-05
-8.57995e-07
-5.74686e-07
8.82421e-07
-4.70558e-05
-8.58268e-07
-5.75546e-07
8.82039e-07
-4.70559e-05
-8.58171e-07
-5.74139e-07
8.82206e-07
-4.7056e-05
-8.57632e-07
-5.75802e-07
8.82849e-07
-4.70569e-05
-8.5736e-07
-5.75778e-07
8.82896e-07
-4.70573e-05
-8.56859e-07
-5.76009e-07
8.83751e-07
-4.70574e-05
-8.56798e-07
-5.7644e-07
8.83717e-07
-4.70576e-05
-8.57516e-07
-5.75755e-07
8.82807e-07
-4.70573e-05
-8.57765e-07
-5.75241e-07
8.82674e-07
-4.70569e-05
-8.58154e-07
-5.74783e-07
8.82548e-07
-4.70565e-05
-8.58176e-07
-5.75318e-07
8.82395e-07
-4.70566e-05
-8.57613e-07
-5.74677e-07
8.82562e-07
-4.7057e-05
-8.57785e-07
-5.74393e-07
8.81684e-07
-4.70574e-05
-8.62201e-07
-5.68477e-07
8.76134e-07
-4.70545e-05
-8.72781e-07
-5.57737e-07
8.62626e-07
-4.7035e-05
-8.86856e-07
-5.65627e-07
8.59195e-07
-4.6884e-05
-8.40352e-07
-6.78157e-07
9.58346e-07
-4.69237e-05
-7.09197e-07
-8.97851e-07
1.05359e-06
-4.63046e-05
-6.11042e-07
-1.28451e-06
1.3273e-06
-4.60282e-05
-4.98154e-07
-2.13398e-06
1.95562e-06
-4.47043e-05
-4.77676e-07
-3.75394e-06
3.26386e-06
-4.11586e-05
-5.87416e-06
-2.47169e-06
3.56831e-06
-2.68102e-05
-4.08531e-05
4.23468e-05
-3.38923e-05
4.58288e-05
0.000135045
0.000124255
-0.000124246
-0.000135042
0.00015291
0.000152882
9.08038e-05
-9.07938e-05
9.0778e-05
-9.07756e-05
-0.000152906
-0.000152892
0.000135035
0.000124207
-0.000124203
-0.000135043
0.000239544
0.000111575
0.000119404
-0.000119355
8.92235e-05
-8.9185e-05
-0.000239554
-0.000111534
0.000190255
0.000190193
0.00014742
0.000147454
-0.000190175
-0.000147391
-0.000147412
0.000239475
0.000111527
-0.000119334
8.91983e-05
-8.91779e-05
-0.000111525
0.000201002
0.000106114
9.69166e-05
-9.68897e-05
9.4296e-05
-9.42962e-05
-0.000200966
-0.000106105
0.000159037
0.000159055
0.000156839
0.00015688
-0.000159032
-0.000156837
-0.000156858
0.000200913
0.00010608
-9.68921e-05
9.42976e-05
-9.43035e-05
-0.000106093
0.00020163
9.72559e-05
9.37109e-05
-9.37162e-05
9.12194e-05
-9.12092e-05
-0.000201622
-9.72339e-05
0.000156166
0.000156206
0.000153609
0.000153641
-0.000156188
-0.000153604
-0.000153642
0.000201547
9.72065e-05
-9.37268e-05
9.1221e-05
-9.12116e-05
-9.72691e-05
0.000197979
8.69177e-05
9.0705e-05
-9.06933e-05
8.51989e-05
-8.519e-05
-0.000197964
-8.6912e-05
0.000153026
0.000153056
0.000145861
0.000145894
-0.000153057
-0.000145858
-0.000145901
0.000197885
8.68851e-05
-9.06949e-05
8.52029e-05
-8.51846e-05
-8.69479e-05
0.000190603
7.96222e-05
8.56685e-05
-8.56619e-05
8.13385e-05
-8.13319e-05
-0.000190605
-7.96173e-05
0.000146708
0.000146733
0.000140457
0.000140488
-0.000146744
-0.000140456
-0.000140504
0.000190524
7.95845e-05
-8.56542e-05
8.13489e-05
-8.13254e-05
-7.96561e-05
0.000182638
6.65513e-05
7.86486e-05
-7.86452e-05
7.38185e-05
-7.37952e-05
-0.000182632
-6.65323e-05
0.000136363
0.000136388
0.000128815
0.000128848
-0.000136404
-0.00012882
-0.00012886
0.000182546
6.64825e-05
-7.86268e-05
7.38426e-05
-7.38112e-05
-6.65907e-05
0.000163233
7.34512e-06
6.54087e-05
-6.53898e-05
3.95072e-05
-3.95073e-05
-0.000163236
-7.31977e-06
0.00011663
0.000116677
6.8966e-05
6.8996e-05
-0.00011669
-6.89549e-05
-6.89909e-05
0.000163154
7.35718e-06
-6.5344e-05
3.94606e-05
-3.9448e-05
-7.33832e-06
9.91602e-05
-2.75781e-05
3.47905e-05
-3.47927e-05
2.09303e-05
-2.09268e-05
-9.91595e-05
2.75959e-05
5.77176e-05
5.77381e-05
3.01225e-05
3.0128e-05
-5.77273e-05
-3.01071e-05
-3.01149e-05
9.91405e-05
-2.75658e-05
-3.47393e-05
2.08846e-05
-2.08851e-05
2.75869e-05
6.57562e-05
-4.58466e-05
1.58855e-05
-1.58832e-05
5.18593e-06
-5.18261e-06
-6.57436e-05
4.58609e-05
2.21038e-05
2.21122e-05
6.49827e-06
6.51424e-06
-2.21002e-05
-6.48702e-06
-6.52013e-06
6.57198e-05
-4.58322e-05
-1.58447e-05
5.14588e-06
-5.15024e-06
4.58271e-05
4.97009e-05
-4.92121e-05
3.40617e-06
-3.40126e-06
1.28104e-06
-1.26843e-06
-4.96919e-05
4.92205e-05
4.02531e-06
4.03901e-06
1.06134e-06
1.08355e-06
-4.04476e-06
-1.05356e-06
-1.08518e-06
4.96742e-05
-4.9186e-05
-3.37145e-06
1.23874e-06
-1.23767e-06
4.91881e-05
4.71913e-05
-4.9412e-05
1.09431e-06
-1.08016e-06
9.27321e-07
-9.26476e-07
-4.71894e-05
4.94206e-05
7.89799e-07
8.10805e-07
5.86759e-07
6.13439e-07
-8.10083e-07
-5.82299e-07
-6.13423e-07
4.7175e-05
-4.93859e-05
-1.05045e-06
8.94171e-07
-8.92165e-07
4.93888e-05
4.70567e-05
-4.94175e-05
9.18383e-07
-9.17239e-07
9.1066e-07
-9.12468e-07
-4.70558e-05
4.94212e-05
5.81765e-07
6.05292e-07
5.73711e-07
6.01381e-07
-6.04522e-07
-5.77168e-07
-6.03485e-07
4.70404e-05
-4.93899e-05
-8.83363e-07
8.80241e-07
-8.78173e-07
4.93917e-05
4.70528e-05
-4.94174e-05
9.10997e-07
-9.12012e-07
9.10708e-07
-9.11893e-07
-4.7057e-05
4.94183e-05
5.76591e-07
6.01824e-07
5.74059e-07
6.01786e-07
-6.03542e-07
-5.79063e-07
-6.05377e-07
4.70383e-05
-4.93894e-05
-8.7842e-07
8.80954e-07
-8.78712e-07
4.93906e-05
4.70529e-05
-4.94128e-05
9.12135e-07
-9.12251e-07
9.09914e-07
-9.14991e-07
-4.70594e-05
4.9421e-05
5.77261e-07
6.02081e-07
5.74775e-07
6.01905e-07
-6.04534e-07
-5.73254e-07
-6.04429e-07
4.70384e-05
-4.93892e-05
-8.7889e-07
8.80512e-07
-8.79691e-07
4.93904e-05
4.70555e-05
-4.94146e-05
9.08256e-07
-9.16974e-07
9.06013e-07
-9.24009e-07
-4.70585e-05
4.94174e-05
5.77849e-07
6.02327e-07
5.7501e-07
6.02099e-07
-6.03499e-07
-5.7387e-07
-6.0426e-07
4.70385e-05
-4.93891e-05
-8.79895e-07
8.80063e-07
-8.79965e-07
4.93906e-05
4.70538e-05
-4.94127e-05
9.05257e-07
-9.20996e-07
9.07777e-07
-9.152e-07
-4.70577e-05
4.94184e-05
5.78136e-07
6.02336e-07
5.75695e-07
6.0209e-07
-6.03301e-07
-5.73354e-07
-6.03347e-07
4.70386e-05
-4.93892e-05
-8.80074e-07
8.80101e-07
-8.79477e-07
4.93914e-05
4.7055e-05
-4.94141e-05
9.07115e-07
-9.15363e-07
9.07125e-07
-9.13753e-07
-4.70554e-05
4.94212e-05
5.78788e-07
6.02359e-07
5.75419e-07
6.0214e-07
-6.02501e-07
-5.72982e-07
-6.02782e-07
4.70386e-05
-4.93893e-05
-8.79412e-07
8.80187e-07
-8.79093e-07
4.93919e-05
4.70546e-05
-4.94163e-05
9.05076e-07
-9.13776e-07
9.08635e-07
-9.18406e-07
-4.7053e-05
4.94205e-05
5.78092e-07
6.0239e-07
5.7468e-07
6.02027e-07
-6.02151e-07
-5.73099e-07
-6.02541e-07
4.70389e-05
-4.93895e-05
-8.78894e-07
8.80137e-07
-8.78148e-07
4.93924e-05
4.70562e-05
-4.94167e-05
9.10786e-07
-9.2012e-07
9.11967e-07
-9.09033e-07
-4.70573e-05
4.94246e-05
5.77555e-07
6.0223e-07
5.76059e-07
6.01967e-07
-6.02939e-07
-5.73008e-07
-6.0778e-07
4.7039e-05
-4.93894e-05
-8.77733e-07
8.8088e-07
-8.76899e-07
4.93906e-05
4.7059e-05
-4.94201e-05
9.12213e-07
-8.99561e-07
9.1488e-07
-9.1304e-07
-4.70409e-05
4.94126e-05
5.80083e-07
6.02329e-07
5.82549e-07
6.02783e-07
-6.07415e-07
-5.77038e-07
-6.02346e-07
4.70388e-05
-4.93886e-05
-8.76794e-07
8.81918e-07
-8.77453e-07
4.93915e-05
4.70562e-05
-4.9418e-05
9.16487e-07
-9.12716e-07
9.08829e-07
-9.12131e-07
-4.70586e-05
4.94234e-05
5.84682e-07
6.03286e-07
5.77365e-07
6.02864e-07
-6.01283e-07
-5.73742e-07
-6.03105e-07
4.70389e-05
-4.93883e-05
-8.77764e-07
8.81514e-07
-8.78606e-07
4.9391e-05
4.70596e-05
-4.94166e-05
9.09099e-07
-9.14603e-07
9.10839e-07
-9.15721e-07
-4.70494e-05
4.94187e-05
5.79645e-07
6.03058e-07
5.76662e-07
6.028e-07
-6.02351e-07
-5.72874e-07
-6.03162e-07
4.70391e-05
-4.9388e-05
-8.79026e-07
8.8123e-07
-8.7939e-07
4.93912e-05
4.70612e-05
-4.9417e-05
9.10733e-07
-9.16231e-07
9.11188e-07
-9.16318e-07
-4.70527e-05
4.94185e-05
5.7967e-07
6.03107e-07
5.75769e-07
6.02787e-07
-6.02476e-07
-5.7222e-07
-6.03384e-07
4.70392e-05
-4.9388e-05
-8.79415e-07
8.81017e-07
-8.79284e-07
4.93911e-05
4.70608e-05
-4.94175e-05
9.10985e-07
-9.16657e-07
9.11452e-07
-9.16546e-07
-4.7053e-05
4.94182e-05
5.78759e-07
6.03022e-07
5.75082e-07
6.02246e-07
-6.02441e-07
-5.71635e-07
-6.0247e-07
4.70392e-05
-4.93886e-05
-8.79408e-07
8.80501e-07
-8.7919e-07
4.9391e-05
4.70603e-05
-4.94182e-05
9.11611e-07
-9.16797e-07
9.1123e-07
-9.16641e-07
-4.70533e-05
4.94187e-05
5.78379e-07
6.02401e-07
5.74215e-07
6.01602e-07
-6.0144e-07
-5.70737e-07
-6.01627e-07
4.70385e-05
-4.93892e-05
-8.79235e-07
8.80064e-07
-8.79009e-07
4.93909e-05
4.70594e-05
-4.94189e-05
9.11109e-07
-9.17119e-07
9.10929e-07
-9.16761e-07
-4.70528e-05
4.94189e-05
5.77226e-07
6.0175e-07
5.73271e-07
6.01073e-07
-6.00718e-07
-5.70203e-07
-6.01158e-07
4.7038e-05
-4.93893e-05
-8.79043e-07
8.79991e-07
-8.7913e-07
4.93908e-05
4.70588e-05
-4.94188e-05
9.10691e-07
-9.17168e-07
9.11065e-07
-9.16577e-07
-4.70526e-05
4.94189e-05
5.76578e-07
6.014e-07
5.73621e-07
6.01393e-07
-6.00244e-07
-5.70531e-07
-6.01124e-07
4.70379e-05
-4.93889e-05
-8.79136e-07
8.8039e-07
-8.7927e-07
4.93906e-05
4.70592e-05
-4.94182e-05
9.11265e-07
-9.17546e-07
9.11817e-07
-9.16747e-07
-4.70529e-05
4.94181e-05
5.7714e-07
6.01857e-07
5.74037e-07
6.01865e-07
-6.00573e-07
-5.71059e-07
-6.01364e-07
4.70383e-05
-4.93884e-05
-8.7947e-07
8.8079e-07
-8.79488e-07
4.93901e-05
4.70598e-05
-4.94176e-05
9.1204e-07
-9.1843e-07
9.13166e-07
-9.15818e-07
-4.70538e-05
4.94185e-05
5.77449e-07
6.02233e-07
5.74418e-07
6.02328e-07
-6.00613e-07
-5.71055e-07
-6.01938e-07
4.70388e-05
-4.93881e-05
-8.79509e-07
8.81165e-07
-8.79895e-07
4.93896e-05
4.70602e-05
-4.94174e-05
9.13311e-07
-9.18899e-07
9.13477e-07
-9.14925e-07
-4.70536e-05
4.94174e-05
5.77955e-07
6.02999e-07
5.74536e-07
6.02441e-07
-6.01463e-07
-5.71683e-07
-6.02299e-07
4.70391e-05
-4.93882e-05
-8.80061e-07
8.81019e-07
-8.8008e-07
4.93893e-05
4.70603e-05
-4.9418e-05
9.13312e-07
-9.21285e-07
9.12927e-07
-9.16757e-07
-4.70552e-05
4.94186e-05
5.77677e-07
6.02609e-07
5.74224e-07
6.0249e-07
-6.01491e-07
-5.7162e-07
-6.01969e-07
4.70388e-05
-4.9388e-05
-8.8011e-07
8.81265e-07
-8.79817e-07
4.93897e-05
4.70598e-05
-4.94182e-05
9.12755e-07
-9.19009e-07
9.13167e-07
-9.18406e-07
-4.70544e-05
4.94199e-05
5.77514e-07
6.02847e-07
5.73802e-07
6.01902e-07
-6.00949e-07
-5.70838e-07
-6.01507e-07
4.70392e-05
-4.93885e-05
-8.7958e-07
8.80951e-07
-8.79502e-07
4.93901e-05
4.70595e-05
-4.94188e-05
9.13196e-07
-9.1868e-07
9.12184e-07
-9.18572e-07
-4.70525e-05
4.94206e-05
5.77156e-07
6.02231e-07
5.732e-07
6.01289e-07
-6.00822e-07
-5.70204e-07
-6.00994e-07
4.70385e-05
-4.9389e-05
-8.79557e-07
8.80345e-07
-8.79068e-07
4.93904e-05
4.70588e-05
-4.94187e-05
9.1194e-07
-9.18659e-07
9.12571e-07
-9.18976e-07
-4.70517e-05
4.94208e-05
5.76228e-07
6.01431e-07
5.73007e-07
6.01159e-07
-6.001e-07
-5.70207e-07
-6.00825e-07
4.70379e-05
-4.93891e-05
-8.78948e-07
8.8034e-07
-8.78955e-07
4.93907e-05
4.7059e-05
-4.94183e-05
9.12788e-07
-9.19146e-07
9.12717e-07
-9.18955e-07
-4.70517e-05
4.94208e-05
5.76621e-07
6.0178e-07
5.73338e-07
6.01321e-07
-6.00169e-07
-5.70051e-07
-6.00805e-07
4.7038e-05
-4.93889e-05
-8.78906e-07
8.80491e-07
-8.79121e-07
4.93905e-05
4.70593e-05
-4.9418e-05
9.126e-07
-9.19037e-07
9.12947e-07
-9.19402e-07
-4.70516e-05
4.94207e-05
5.76491e-07
6.01596e-07
5.74015e-07
6.0195e-07
-6.00181e-07
-5.70323e-07
-6.01382e-07
4.70381e-05
-4.93883e-05
-8.79197e-07
8.81164e-07
-8.79753e-07
4.93898e-05
4.70599e-05
-4.9418e-05
9.13131e-07
-9.19417e-07
9.12874e-07
-9.20155e-07
-4.70517e-05
4.94196e-05
5.77398e-07
6.02482e-07
5.74189e-07
6.02154e-07
-6.00849e-07
-5.71265e-07
-6.01918e-07
4.70389e-05
-4.93881e-05
-8.79768e-07
8.81387e-07
-8.80261e-07
4.93893e-05
4.70596e-05
-4.94176e-05
9.13104e-07
-9.20038e-07
9.12852e-07
-9.20375e-07
-4.70527e-05
4.94199e-05
5.77381e-07
6.02593e-07
5.745e-07
6.02355e-07
-6.01328e-07
-5.70962e-07
-6.01934e-07
4.7039e-05
-4.93878e-05
-8.80129e-07
8.81547e-07
-8.80356e-07
4.93892e-05
4.70596e-05
-4.94184e-05
9.13348e-07
-9.19596e-07
9.11081e-07
-9.21336e-07
-4.7052e-05
4.94209e-05
5.7757e-07
6.0286e-07
5.75872e-07
6.0299e-07
-6.01511e-07
-5.71264e-07
-6.04542e-07
4.70391e-05
-4.93891e-05
-8.80093e-07
8.80536e-07
-8.7945e-07
4.93918e-05
4.7057e-05
-4.94118e-05
9.10933e-07
-9.18695e-07
9.11042e-07
-9.17542e-07
-4.70509e-05
4.94224e-05
5.79915e-07
6.03542e-07
5.804e-07
6.02706e-07
-6.05559e-07
-5.67119e-07
-6.06598e-07
4.70378e-05
-4.93904e-05
-8.76964e-07
8.79371e-07
-8.75069e-07
4.93932e-05
4.70635e-05
-4.94219e-05
9.15888e-07
-9.17855e-07
9.07162e-07
-9.23119e-07
-4.70523e-05
4.94153e-05
5.84161e-07
6.02982e-07
5.73585e-07
6.02275e-07
-6.03133e-07
-5.71771e-07
-6.02135e-07
4.7037e-05
-4.93898e-05
-8.76743e-07
8.80913e-07
-8.79395e-07
4.939e-05
4.70516e-05
-4.94192e-05
9.07604e-07
-9.25373e-07
9.09454e-07
-9.14437e-07
-4.70598e-05
4.94214e-05
5.75157e-07
6.02401e-07
5.73449e-07
6.01476e-07
-6.01683e-07
-5.69497e-07
-6.01106e-07
4.70376e-05
-4.93906e-05
-8.79283e-07
8.80088e-07
-8.79008e-07
4.93907e-05
4.7054e-05
-4.94178e-05
9.09675e-07
-9.14851e-07
9.11167e-07
-9.1529e-07
-4.70507e-05
4.94209e-05
5.76399e-07
6.0194e-07
5.74409e-07
6.01751e-07
-6.00111e-07
-5.71414e-07
-6.01128e-07
4.70366e-05
-4.93904e-05
-8.78749e-07
8.8044e-07
-8.79419e-07
4.93903e-05
4.70552e-05
-4.94175e-05
9.10438e-07
-9.15302e-07
9.10961e-07
-9.15253e-07
-4.70519e-05
4.9421e-05
5.77507e-07
6.02482e-07
5.74815e-07
6.02373e-07
-6.00951e-07
-5.72228e-07
-6.01532e-07
4.70368e-05
-4.93898e-05
-8.79587e-07
8.81006e-07
-8.79848e-07
4.93897e-05
4.70556e-05
-4.94165e-05
9.10557e-07
-9.15186e-07
9.11679e-07
-9.14868e-07
-4.70516e-05
4.94213e-05
5.78005e-07
6.02884e-07
5.75522e-07
6.02976e-07
-6.00804e-07
-5.72567e-07
-6.01795e-07
4.70374e-05
-4.93893e-05
-8.79425e-07
8.8149e-07
-8.80049e-07
4.93896e-05
4.70565e-05
-4.94156e-05
9.11436e-07
-9.15206e-07
9.11999e-07
-9.14979e-07
-4.70514e-05
4.94212e-05
5.78878e-07
6.03752e-07
5.76504e-07
6.03578e-07
-6.01364e-07
-5.73114e-07
-6.01955e-07
4.7038e-05
-4.93891e-05
-8.79913e-07
8.81561e-07
-8.80018e-07
4.93895e-05
4.70571e-05
-4.94164e-05
9.11365e-07
-9.15018e-07
9.11017e-07
-9.14435e-07
-4.70515e-05
4.94219e-05
5.79325e-07
6.0386e-07
5.75425e-07
6.02869e-07
-6.01238e-07
-5.72502e-07
-6.01744e-07
4.7038e-05
-4.93895e-05
-8.79814e-07
8.81246e-07
-8.80272e-07
4.93895e-05
4.70563e-05
-4.94163e-05
9.10286e-07
-9.14709e-07
9.1013e-07
-9.14809e-07
-4.70506e-05
4.94214e-05
5.78523e-07
6.03328e-07
5.75727e-07
6.02497e-07
-6.01208e-07
-5.72956e-07
-6.01623e-07
4.70376e-05
-4.93898e-05
-8.80277e-07
8.8101e-07
-8.80499e-07
4.93894e-05
4.70565e-05
-4.94163e-05
9.0955e-07
-9.14913e-07
9.09616e-07
-9.13739e-07
-4.70512e-05
4.94229e-05
5.78763e-07
6.02786e-07
5.75436e-07
6.02082e-07
-6.00678e-07
-5.71375e-07
-6.00463e-07
4.70373e-05
-4.93901e-05
-8.8019e-07
8.80765e-07
-8.79716e-07
4.93902e-05
4.70563e-05
-4.94166e-05
9.09045e-07
-9.1392e-07
9.0925e-07
-9.14408e-07
-4.70496e-05
4.94219e-05
5.78432e-07
6.0253e-07
5.75323e-07
6.02248e-07
-5.99678e-07
-5.72315e-07
-6.00766e-07
4.70371e-05
-4.93898e-05
-8.79562e-07
8.81131e-07
-8.79943e-07
4.93899e-05
4.7056e-05
-4.94167e-05
9.08776e-07
-9.14706e-07
9.09189e-07
-9.14042e-07
-4.70509e-05
4.94226e-05
5.7834e-07
6.02697e-07
5.7511e-07
6.02205e-07
-6.00149e-07
-5.71985e-07
-6.00833e-07
4.70374e-05
-4.93898e-05
-8.79882e-07
8.81037e-07
-8.80014e-07
4.93898e-05
4.7056e-05
-4.94155e-05
9.08876e-07
-9.14301e-07
9.10024e-07
-9.14387e-07
-4.70501e-05
4.94219e-05
5.7827e-07
6.02615e-07
5.76126e-07
6.02795e-07
-6.00145e-07
-5.72535e-07
-6.01296e-07
4.70373e-05
-4.93892e-05
-8.79961e-07
8.8152e-07
-8.80733e-07
4.9389e-05
4.70571e-05
-4.94141e-05
9.09884e-07
-9.14784e-07
9.11367e-07
-9.13568e-07
-4.70509e-05
4.94213e-05
5.79514e-07
6.03451e-07
5.77222e-07
6.03514e-07
-6.00677e-07
-5.72901e-07
-6.0154e-07
4.70378e-05
-4.93885e-05
-8.80565e-07
8.82095e-07
-8.80808e-07
4.93887e-05
4.7058e-05
-4.94126e-05
9.11362e-07
-9.12638e-07
9.13459e-07
-9.04973e-07
-4.70499e-05
4.94242e-05
5.80433e-07
6.03809e-07
5.78048e-07
6.03429e-07
-6.00539e-07
-5.72381e-07
-6.00646e-07
4.70382e-05
-4.93884e-05
-8.80468e-07
8.82224e-07
-8.80362e-07
4.93894e-05
4.70593e-05
-4.94149e-05
9.13109e-07
-9.05216e-07
9.11049e-07
-9.14878e-07
-4.70475e-05
4.94221e-05
5.81199e-07
6.03851e-07
5.77096e-07
6.03108e-07
-6.00287e-07
-5.74117e-07
-6.01928e-07
4.70382e-05
-4.93888e-05
-8.8015e-07
8.81726e-07
-8.80554e-07
4.93886e-05
4.70574e-05
-4.94167e-05
9.09786e-07
-9.13967e-07
9.09825e-07
-9.13688e-07
-4.70505e-05
4.94215e-05
5.79504e-07
6.02858e-07
5.75072e-07
6.00626e-07
-6.0279e-07
-5.74381e-07
-6.07222e-07
4.70378e-05
-4.93907e-05
-8.79825e-07
8.81197e-07
-8.78628e-07
4.93868e-05
4.70559e-05
-4.94172e-05
9.09493e-07
-9.13561e-07
9.09875e-07
-9.13284e-07
-4.70509e-05
4.94215e-05
5.77848e-07
6.00554e-07
5.74342e-07
5.99799e-07
-6.07855e-07
-5.74622e-07
-6.06968e-07
4.70362e-05
-4.93913e-05
-8.77847e-07
8.81793e-07
-8.78365e-07
4.93867e-05
4.70554e-05
-4.94174e-05
9.09368e-07
-9.13508e-07
9.097e-07
-9.12792e-07
-4.70511e-05
4.9422e-05
5.7723e-07
6.00002e-07
5.7401e-07
5.99441e-07
-6.07454e-07
-5.74101e-07
-6.06917e-07
4.70357e-05
-4.93914e-05
-8.78021e-07
8.81765e-07
-8.78535e-07
4.93868e-05
4.70553e-05
-4.94171e-05
9.09271e-07
-9.12996e-07
9.09971e-07
-9.13468e-07
-4.70503e-05
4.9421e-05
5.77055e-07
5.99781e-07
5.74309e-07
5.99928e-07
-6.07299e-07
-5.74898e-07
-6.0714e-07
4.70356e-05
-4.93909e-05
-8.78166e-07
8.82292e-07
-8.7895e-07
4.93868e-05
4.70557e-05
-4.94165e-05
9.09645e-07
-9.13848e-07
9.10364e-07
-9.13715e-07
-4.70516e-05
4.94208e-05
5.77513e-07
6.00424e-07
5.75067e-07
6.00502e-07
-6.07748e-07
-5.75101e-07
-6.07424e-07
4.70362e-05
-4.93905e-05
-8.78675e-07
8.82667e-07
-8.7937e-07
4.93865e-05
4.70561e-05
-4.94164e-05
9.09953e-07
-9.13852e-07
9.10415e-07
-9.14247e-07
-4.70516e-05
4.94203e-05
5.78082e-07
6.00843e-07
5.7523e-07
6.00731e-07
-6.07873e-07
-5.75754e-07
-6.08001e-07
4.70365e-05
-4.93904e-05
-8.78978e-07
8.82766e-07
-8.79898e-07
4.9386e-05
4.70563e-05
-4.94161e-05
9.10027e-07
-9.14735e-07
9.10494e-07
-9.14718e-07
-4.70524e-05
4.942e-05
5.78259e-07
6.01203e-07
5.75698e-07
6.01505e-07
-6.0872e-07
-5.76085e-07
-6.08364e-07
4.70367e-05
-4.93896e-05
-8.79625e-07
8.83353e-07
-8.80073e-07
4.9386e-05
4.70565e-05
-4.94163e-05
9.09934e-07
-9.14771e-07
9.1052e-07
-9.14013e-07
-4.70524e-05
4.94209e-05
5.78257e-07
6.01798e-07
5.75598e-07
6.01003e-07
-6.08691e-07
-5.75153e-07
-6.07593e-07
4.70375e-05
-4.93902e-05
-8.79575e-07
8.82852e-07
-8.79698e-07
4.93866e-05
4.70564e-05
-4.94163e-05
9.10103e-07
-9.14098e-07
9.10399e-07
-9.13995e-07
-4.70515e-05
4.9421e-05
5.77878e-07
6.01163e-07
5.75738e-07
6.00732e-07
-6.0792e-07
-5.7496e-07
-6.07515e-07
4.70367e-05
-4.93905e-05
-8.79254e-07
8.82605e-07
-8.80101e-07
4.93866e-05
4.70563e-05
-4.94176e-05
9.09741e-07
-9.14147e-07
9.09474e-07
-9.13495e-07
-4.70515e-05
4.94216e-05
5.77208e-07
6.00841e-07
5.745e-07
5.99587e-07
-6.07885e-07
-5.74151e-07
-6.06486e-07
4.70365e-05
-4.93912e-05
-8.79696e-07
8.82071e-07
-8.79877e-07
4.93874e-05
4.7055e-05
-4.94173e-05
9.08884e-07
-9.13607e-07
9.09689e-07
-9.13675e-07
-4.70509e-05
4.94213e-05
5.75975e-07
5.99783e-07
5.7495e-07
5.99973e-07
-6.06746e-07
-5.74441e-07
-6.06685e-07
4.7036e-05
-4.93907e-05
-8.79294e-07
8.82393e-07
-8.8005e-07
4.93871e-05
4.70554e-05
-4.9417e-05
9.09376e-07
-9.13972e-07
9.0993e-07
-9.1373e-07
-4.70512e-05
4.94211e-05
5.7685e-07
6.00507e-07
5.75204e-07
6.00135e-07
-6.07505e-07
-5.74493e-07
-6.06864e-07
4.70366e-05
-4.93906e-05
-8.7993e-07
8.82483e-07
-8.80609e-07
4.93866e-05
4.70554e-05
-4.94167e-05
9.09398e-07
-9.1389e-07
9.101e-07
-9.13974e-07
-4.70511e-05
4.94207e-05
5.76778e-07
6.00403e-07
5.75548e-07
6.01433e-07
-6.07358e-07
-5.74912e-07
-6.07939e-07
4.70367e-05
-4.93883e-05
-8.80227e-07
8.83604e-07
-8.81753e-07
4.93848e-05
4.70555e-05
-4.94162e-05
9.09783e-07
-9.14317e-07
9.10381e-07
-9.14611e-07
-4.70513e-05
4.942e-05
5.77382e-07
6.02505e-07
5.75792e-07
6.04428e-07
-6.09214e-07
-5.758e-07
-6.11078e-07
4.70385e-05
-4.93828e-05
-8.8218e-07
8.88594e-07
-8.86457e-07
4.93795e-05
4.70557e-05
-4.94163e-05
9.09934e-07
-9.14891e-07
9.10435e-07
-9.14238e-07
-4.70518e-05
4.94207e-05
5.77439e-07
6.05129e-07
5.75781e-07
6.03172e-07
-6.1211e-07
-5.75219e-07
-6.10234e-07
4.70424e-05
-4.93867e-05
-8.8698e-07
8.88219e-07
-8.86021e-07
4.93819e-05
4.70561e-05
-4.94164e-05
9.09866e-07
-9.14342e-07
9.10451e-07
-9.14304e-07
-4.70514e-05
4.94204e-05
5.774e-07
6.02519e-07
5.76022e-07
6.00981e-07
-6.09628e-07
-5.75502e-07
-6.07444e-07
4.704e-05
-4.939e-05
-8.84236e-07
8.83423e-07
-8.81514e-07
4.93864e-05
4.70563e-05
-4.94174e-05
9.09909e-07
-9.14437e-07
9.09805e-07
-9.13565e-07
-4.70521e-05
4.94216e-05
5.77563e-07
6.01226e-07
5.75134e-07
6.00104e-07
-6.08071e-07
-5.74242e-07
-6.06695e-07
4.70373e-05
-4.93908e-05
-8.80939e-07
8.82472e-07
-8.80616e-07
4.93868e-05
4.70553e-05
-4.94177e-05
9.0921e-07
-9.13728e-07
9.09553e-07
-9.14195e-07
-4.70509e-05
4.94207e-05
5.76634e-07
6.00236e-07
5.7496e-07
5.99914e-07
-6.06945e-07
-5.7498e-07
-6.06748e-07
4.70364e-05
-4.9391e-05
-8.80184e-07
8.82262e-07
-8.8064e-07
4.93867e-05
4.70551e-05
-4.94177e-05
9.09015e-07
-9.1441e-07
9.09602e-07
-9.1315e-07
-4.7052e-05
4.94221e-05
5.76556e-07
6.00099e-07
5.74843e-07
5.9962e-07
-6.07025e-07
-5.73697e-07
-6.06044e-07
4.70362e-05
-4.93911e-05
-8.80193e-07
8.82147e-07
-8.80786e-07
4.93866e-05
4.70551e-05
-4.94172e-05
9.09193e-07
-9.13214e-07
9.09969e-07
-9.13949e-07
-4.70503e-05
4.94209e-05
5.76458e-07
5.99919e-07
5.75322e-07
6.00133e-07
-6.06384e-07
-5.74969e-07
-6.06659e-07
4.70362e-05
-4.93904e-05
-8.80327e-07
8.82768e-07
-8.81463e-07
4.93859e-05
4.70557e-05
-4.94169e-05
9.09639e-07
-9.14323e-07
9.1026e-07
-9.13934e-07
-4.70519e-05
4.94211e-05
5.77218e-07
6.0072e-07
5.75806e-07
6.00501e-07
-6.07432e-07
-5.75189e-07
-6.0725e-07
4.70369e-05
-4.93901e-05
-8.81202e-07
8.82961e-07
-8.81976e-07
4.93853e-05
4.70559e-05
-4.94166e-05
9.09708e-07
-9.14157e-07
9.10418e-07
-9.14062e-07
-4.70514e-05
4.94209e-05
5.77396e-07
6.0075e-07
5.7614e-07
6.00984e-07
-6.07776e-07
-5.75283e-07
-6.07464e-07
4.7037e-05
-4.93895e-05
-8.81722e-07
8.83563e-07
-8.82279e-07
4.93851e-05
4.70562e-05
-4.94164e-05
9.10041e-07
-9.14345e-07
9.1061e-07
-9.14642e-07
-4.70517e-05
4.94202e-05
5.77923e-07
6.01529e-07
5.76388e-07
6.0155e-07
-6.07854e-07
-5.75812e-07
-6.07572e-07
4.70379e-05
-4.9389e-05
-8.81793e-07
8.83995e-07
-8.82435e-07
4.9385e-05
4.70563e-05
-4.9417e-05
9.10063e-07
-9.14938e-07
9.10114e-07
-9.1434e-07
-4.70524e-05
4.94205e-05
5.77952e-07
6.01719e-07
5.75778e-07
6.0073e-07
-6.08203e-07
-5.75447e-07
-6.07503e-07
4.7038e-05
-4.93901e-05
-8.82135e-07
8.83051e-07
-8.82431e-07
4.93851e-05
4.70557e-05
-4.94173e-05
9.0955e-07
-9.14324e-07
9.09996e-07
-9.13613e-07
-4.70519e-05
4.94214e-05
5.77225e-07
6.00797e-07
5.75327e-07
6.00212e-07
-6.07702e-07
-5.74648e-07
-6.06915e-07
4.70369e-05
-4.93905e-05
-8.81842e-07
8.82728e-07
-8.8192e-07
4.93856e-05
4.70555e-05
-4.94175e-05
9.09476e-07
-9.13786e-07
9.09721e-07
-9.1378e-07
-4.70511e-05
4.94212e-05
5.7693e-07
6.00516e-07
5.75093e-07
6.0015e-07
-6.07416e-07
-5.7439e-07
-6.06363e-07
4.70367e-05
-4.93903e-05
-8.8145e-07
8.82815e-07
-8.81561e-07
4.9386e-05
4.70553e-05
-4.94177e-05
9.09185e-07
-9.13916e-07
9.09518e-07
-9.13768e-07
-4.70513e-05
4.94212e-05
5.76627e-07
6.00303e-07
5.74764e-07
5.9978e-07
-6.06657e-07
-5.74668e-07
-6.06424e-07
4.70367e-05
-4.93907e-05
-8.80972e-07
8.82518e-07
-8.81489e-07
4.9386e-05
4.7055e-05
-4.9417e-05
9.09073e-07
-9.13926e-07
9.10225e-07
-9.13466e-07
-4.70513e-05
4.94217e-05
5.7654e-07
6.00129e-07
5.7551e-07
6.00257e-07
-6.06955e-07
-5.74327e-07
-6.06593e-07
4.70364e-05
-4.93903e-05
-8.81059e-07
8.82863e-07
-8.81668e-07
4.93857e-05
4.70558e-05
-4.94164e-05
9.09546e-07
-9.13417e-07
9.11402e-07
-9.1506e-07
-4.70508e-05
4.94204e-05
5.76903e-07
6.00287e-07
5.76942e-07
6.01671e-07
-6.06868e-07
-5.76319e-07
-6.08242e-07
4.70369e-05
-4.93897e-05
-8.81033e-07
8.83939e-07
-8.82888e-07
4.9385e-05
4.70561e-05
-4.94142e-05
9.0858e-07
-9.1294e-07
9.15169e-07
-9.19145e-07
-4.70519e-05
4.94181e-05
5.7604e-07
5.99413e-07
5.81834e-07
6.06457e-07
-6.06142e-07
-5.81277e-07
-6.13084e-07
4.70372e-05
-4.93873e-05
-8.80122e-07
8.87527e-07
-8.86683e-07
4.93828e-05
4.70533e-05
-4.94029e-05
9.02734e-07
-9.07358e-07
9.23888e-07
-9.28328e-07
-4.70493e-05
4.94068e-05
5.70121e-07
5.93379e-07
5.92594e-07
6.17284e-07
-6.00033e-07
-5.92186e-07
-6.24514e-07
4.70343e-05
-4.93764e-05
-8.74362e-07
8.96329e-07
-8.95712e-07
4.93716e-05
4.70339e-05
-4.93033e-05
8.88891e-07
-8.93849e-07
9.23381e-07
-9.2724e-07
-4.70302e-05
4.93076e-05
5.5917e-07
5.82285e-07
5.95589e-07
6.20402e-07
-5.8962e-07
-5.94486e-07
-6.29426e-07
4.7014e-05
-4.92775e-05
-8.60903e-07
8.95805e-07
-8.95114e-07
4.92726e-05
4.68839e-05
-4.92294e-05
8.85523e-07
-8.89698e-07
8.90028e-07
-8.94591e-07
-4.6879e-05
4.92333e-05
5.68022e-07
5.90235e-07
5.08681e-07
5.34056e-07
-5.99159e-07
-5.08759e-07
-5.40828e-07
4.68633e-05
-4.92038e-05
-8.57427e-07
8.62142e-07
-8.62009e-07
4.91979e-05
4.69242e-05
-4.88293e-05
9.84863e-07
-9.89744e-07
7.41796e-07
-7.46889e-07
-4.69195e-05
4.8834e-05
6.79967e-07
7.02491e-07
3.11205e-07
3.36096e-07
-7.10692e-07
-3.10416e-07
-3.42429e-07
4.6904e-05
-4.88028e-05
-9.56937e-07
7.14314e-07
-7.14176e-07
4.87983e-05
4.63052e-05
-4.85542e-05
1.08009e-06
-1.08514e-06
5.28458e-07
-5.34844e-07
-4.63001e-05
4.85582e-05
9.00299e-07
9.21398e-07
2.6337e-08
5.37371e-08
-9.30357e-07
-2.56689e-08
-5.90868e-08
4.62861e-05
-4.85293e-05
-1.05289e-06
5.01604e-07
-5.02271e-07
4.85237e-05
4.60298e-05
-4.73809e-05
1.35214e-06
-1.35748e-06
-2.20981e-09
-5.96879e-09
-4.60254e-05
4.73844e-05
1.28674e-06
1.30704e-06
-6.29038e-07
-5.98951e-07
-1.31366e-06
6.3001e-07
6.03874e-07
4.60111e-05
-4.73581e-05
-1.32513e-06
-2.74904e-08
2.56327e-08
4.73518e-05
4.47041e-05
-4.46729e-05
1.97543e-06
-1.98056e-06
-1.26022e-06
1.24887e-06
-4.47026e-05
4.46766e-05
2.13808e-06
2.16372e-06
-2.03259e-06
-1.99913e-06
-2.16243e-06
2.02421e-06
1.99821e-06
4.46903e-05
-4.46473e-05
-1.94926e-06
-1.28066e-06
1.27585e-06
4.46334e-05
4.11469e-05
-3.63688e-05
3.28407e-06
-3.29358e-06
-5.22404e-06
5.20079e-06
-4.1148e-05
3.63399e-05
3.74228e-06
3.76577e-06
-6.82943e-06
-6.80566e-06
-3.77143e-06
6.80518e-06
6.7945e-06
4.11431e-05
-3.6347e-05
-3.26252e-06
-5.22666e-06