/*--------------------------------*- C++ -*----------------------------------*\
| =========                 |                                                 |
| \\      /  F ield         | OpenFOAM: The Open Source CFD Toolbox           |
|  \\    /   O peration     | Version:  2206                                  |
|   \\  /    A nd           | Website:  www.openfoam.com                      |
|    \\/     M anipulation  |                                                 |
\*---------------------------------------------------------------------------*/
FoamFile
{
    version     2.0;
    format      ascii;
    arch        "LSB;label=32;scalar=64";
    class       volScalarField;
    location    "37.5";
    object      k;
}
// * * * * * * * * * * * * * * * * * * * * * * * * * * * * * * * * * * * * * //

dimensions      [0 2 -2 0 0 0 0];

internalField   nonuniform List<scalar> 
28687
(
2.37555e-05
2.2993e-05
2.29929e-05
2.22937e-05
2.37556e-05
2.29934e-05
2.29932e-05
2.22968e-05
2.37557e-05
2.29937e-05
2.29935e-05
2.22969e-05
2.37557e-05
2.29939e-05
2.29936e-05
2.22973e-05
2.37558e-05
2.29941e-05
2.29938e-05
2.22975e-05
2.37559e-05
2.29942e-05
2.2994e-05
2.22977e-05
2.37557e-05
2.29943e-05
2.29939e-05
2.22979e-05
2.37555e-05
2.29941e-05
2.29937e-05
2.2298e-05
2.37545e-05
2.29919e-05
2.29924e-05
2.22958e-05
2.37498e-05
2.29871e-05
2.29873e-05
2.22908e-05
2.37492e-05
2.29867e-05
2.29866e-05
2.22896e-05
2.37492e-05
2.29868e-05
2.29866e-05
2.22897e-05
2.37492e-05
2.29868e-05
2.29866e-05
2.22898e-05
2.37492e-05
2.29868e-05
2.29866e-05
2.22897e-05
2.37492e-05
2.29868e-05
2.29866e-05
2.22897e-05
2.37492e-05
2.29868e-05
2.29866e-05
2.22897e-05
2.37492e-05
2.29868e-05
2.29866e-05
2.22897e-05
2.37492e-05
2.29868e-05
2.29866e-05
2.22897e-05
2.29921e-05
2.22947e-05
2.29929e-05
2.22937e-05
2.23009e-05
2.29924e-05
2.29922e-05
2.29928e-05
2.29926e-05
2.22911e-05
2.22999e-05
2.2993e-05
2.29919e-05
2.29933e-05
2.29923e-05
2.29925e-05
2.29934e-05
2.29928e-05
2.22933e-05
2.23005e-05
2.2993e-05
2.29932e-05
2.29934e-05
2.23009e-05
2.2297e-05
2.2301e-05
2.29929e-05
2.29928e-05
2.2993e-05
2.29929e-05
2.22964e-05
2.23009e-05
2.29934e-05
2.29924e-05
2.29936e-05
2.29926e-05
2.29929e-05
2.29937e-05
2.29931e-05
2.22966e-05
2.23006e-05
2.29935e-05
2.29934e-05
2.29937e-05
2.2301e-05
2.22971e-05
2.23014e-05
2.29932e-05
2.29931e-05
2.29933e-05
2.29932e-05
2.2297e-05
2.23013e-05
2.29937e-05
2.29927e-05
2.29938e-05
2.29928e-05
2.29932e-05
2.29939e-05
2.29933e-05
2.22966e-05
2.23009e-05
2.29938e-05
2.29936e-05
2.29939e-05
2.23013e-05
2.22975e-05
2.23017e-05
2.29934e-05
2.29933e-05
2.29935e-05
2.29934e-05
2.22974e-05
2.23016e-05
2.2994e-05
2.29929e-05
2.2994e-05
2.29929e-05
2.29934e-05
2.2994e-05
2.29935e-05
2.2297e-05
2.23012e-05
2.2994e-05
2.29938e-05
2.29941e-05
2.23016e-05
2.22977e-05
2.23019e-05
2.29936e-05
2.29935e-05
2.29936e-05
2.29935e-05
2.22977e-05
2.23018e-05
2.29941e-05
2.29931e-05
2.29941e-05
2.29931e-05
2.29936e-05
2.29942e-05
2.29936e-05
2.22972e-05
2.23014e-05
2.29942e-05
2.29939e-05
2.29942e-05
2.23018e-05
2.2298e-05
2.23021e-05
2.29937e-05
2.29937e-05
2.29938e-05
2.29937e-05
2.22979e-05
2.23021e-05
2.29942e-05
2.29932e-05
2.29943e-05
2.29932e-05
2.29937e-05
2.29943e-05
2.29938e-05
2.22974e-05
2.23016e-05
2.29943e-05
2.2994e-05
2.29943e-05
2.2302e-05
2.22982e-05
2.23022e-05
2.29938e-05
2.29938e-05
2.29936e-05
2.29938e-05
2.22981e-05
2.23022e-05
2.29943e-05
2.29933e-05
2.29941e-05
2.29933e-05
2.29938e-05
2.29941e-05
2.29938e-05
2.22977e-05
2.23017e-05
2.29944e-05
2.29937e-05
2.29944e-05
2.23021e-05
2.22982e-05
2.23007e-05
2.29935e-05
2.29937e-05
2.29928e-05
2.29924e-05
2.22982e-05
2.23001e-05
2.2994e-05
2.29932e-05
2.29933e-05
2.29923e-05
2.29937e-05
2.29932e-05
2.29929e-05
2.22977e-05
2.23003e-05
2.29943e-05
2.29932e-05
2.29935e-05
2.23006e-05
2.22962e-05
2.22957e-05
2.29919e-05
2.2991e-05
2.29877e-05
2.29871e-05
2.22954e-05
2.2295e-05
2.29925e-05
2.29915e-05
2.29882e-05
2.29872e-05
2.29919e-05
2.29879e-05
2.29877e-05
2.22958e-05
2.22952e-05
2.29925e-05
2.29882e-05
2.29883e-05
2.22955e-05
2.22912e-05
2.22938e-05
2.29869e-05
2.29865e-05
2.29861e-05
2.2986e-05
2.22907e-05
2.22937e-05
2.29874e-05
2.29864e-05
2.29867e-05
2.29857e-05
2.29869e-05
2.29867e-05
2.29862e-05
2.22907e-05
2.22933e-05
2.29875e-05
2.29866e-05
2.29868e-05
2.22938e-05
2.22898e-05
2.2294e-05
2.29862e-05
2.29861e-05
2.29862e-05
2.29861e-05
2.22897e-05
2.22939e-05
2.29868e-05
2.29858e-05
2.29867e-05
2.29857e-05
2.29863e-05
2.29868e-05
2.29863e-05
2.22893e-05
2.22935e-05
2.29869e-05
2.29866e-05
2.29868e-05
2.22939e-05
2.229e-05
2.22939e-05
2.29863e-05
2.29861e-05
2.29862e-05
2.29861e-05
2.22898e-05
2.22939e-05
2.29868e-05
2.29858e-05
2.29868e-05
2.29858e-05
2.29863e-05
2.29868e-05
2.29863e-05
2.22895e-05
2.22935e-05
2.29869e-05
2.29867e-05
2.29869e-05
2.22939e-05
2.229e-05
2.22939e-05
2.29863e-05
2.29861e-05
2.29862e-05
2.29861e-05
2.22899e-05
2.22938e-05
2.29868e-05
2.29859e-05
2.29868e-05
2.29858e-05
2.29864e-05
2.29868e-05
2.29863e-05
2.22896e-05
2.22934e-05
2.29869e-05
2.29867e-05
2.29868e-05
2.22938e-05
2.22899e-05
2.22939e-05
2.29863e-05
2.29862e-05
2.29862e-05
2.29861e-05
2.22898e-05
2.22939e-05
2.29868e-05
2.29858e-05
2.29868e-05
2.29858e-05
2.29864e-05
2.29868e-05
2.29863e-05
2.22895e-05
2.22935e-05
2.29869e-05
2.29867e-05
2.29868e-05
2.22938e-05
2.22899e-05
2.22938e-05
2.29863e-05
2.29862e-05
2.29862e-05
2.29861e-05
2.22899e-05
2.22939e-05
2.29869e-05
2.29859e-05
2.29868e-05
2.29858e-05
2.29864e-05
2.29868e-05
2.29863e-05
2.22895e-05
2.22934e-05
2.29869e-05
2.29867e-05
2.29868e-05
2.22938e-05
2.22899e-05
2.22938e-05
2.29862e-05
2.29862e-05
2.29861e-05
2.29861e-05
2.22899e-05
2.22938e-05
2.29869e-05
2.29859e-05
2.29868e-05
2.29858e-05
2.29864e-05
2.29868e-05
2.29863e-05
2.22895e-05
2.22934e-05
2.29869e-05
2.29867e-05
2.29868e-05
2.22938e-05
2.22899e-05
2.22938e-05
2.29862e-05
2.29862e-05
2.29861e-05
2.29861e-05
2.22898e-05
2.22938e-05
2.29869e-05
2.29859e-05
2.29868e-05
2.29858e-05
2.29864e-05
2.29868e-05
2.29863e-05
2.22895e-05
2.22935e-05
2.29869e-05
2.29867e-05
2.29868e-05
2.22938e-05
2.22899e-05
2.29862e-05
2.29862e-05
2.22898e-05
2.29869e-05
2.29858e-05
2.29863e-05
2.22895e-05
2.29869e-05
2.8105e-05
6.97025e-05
2.81065e-05
6.97001e-05
7.55764e-05
7.55753e-05
2.81068e-05
6.97051e-05
2.8108e-05
6.97025e-05
2.37557e-05
2.37553e-05
2.37554e-05
2.37555e-05
2.37557e-05
2.37554e-05
2.37556e-05
2.15791e-05
2.75918e-05
2.33927e-05
2.29932e-05
2.1579e-05
2.75874e-05
2.33928e-05
7.55733e-05
7.55719e-05
2.15796e-05
2.33926e-05
2.75917e-05
2.29931e-05
2.15795e-05
2.33927e-05
2.75875e-05
3.74278e-05
3.74319e-05
2.23008e-05
3.74251e-05
3.74291e-05
2.81078e-05
6.97008e-05
2.81099e-05
6.96986e-05
7.55725e-05
7.55725e-05
2.81097e-05
6.97032e-05
2.81115e-05
6.97009e-05
2.37559e-05
2.37556e-05
2.37557e-05
2.37557e-05
2.37559e-05
2.37556e-05
2.37558e-05
2.15802e-05
2.7595e-05
2.33929e-05
2.29936e-05
2.15802e-05
2.75899e-05
2.3393e-05
7.55691e-05
7.55689e-05
2.15808e-05
2.33928e-05
2.75947e-05
2.29934e-05
2.15808e-05
2.33929e-05
2.759e-05
3.74301e-05
3.7434e-05
2.23009e-05
3.74288e-05
3.74328e-05
2.81099e-05
6.97001e-05
2.81122e-05
6.96984e-05
7.55711e-05
7.55716e-05
2.81117e-05
6.97022e-05
2.81137e-05
6.97003e-05
2.3756e-05
2.37557e-05
2.37559e-05
2.37557e-05
2.37559e-05
2.37555e-05
2.37557e-05
2.1581e-05
2.75967e-05
2.33931e-05
2.29938e-05
2.15811e-05
2.75913e-05
2.33932e-05
7.55674e-05
7.55678e-05
2.15816e-05
2.3393e-05
2.75967e-05
2.29936e-05
2.15817e-05
2.3393e-05
2.75918e-05
3.74336e-05
3.74376e-05
2.23011e-05
3.7432e-05
3.7436e-05
2.81113e-05
6.97003e-05
2.81139e-05
6.96987e-05
7.55704e-05
7.55715e-05
2.81131e-05
6.97021e-05
2.81154e-05
6.97002e-05
2.3756e-05
2.37556e-05
2.37558e-05
2.37558e-05
2.37559e-05
2.37556e-05
2.37557e-05
2.15817e-05
2.75976e-05
2.33932e-05
2.2994e-05
2.15819e-05
2.75921e-05
2.33933e-05
7.55669e-05
7.55675e-05
2.15823e-05
2.3393e-05
2.75981e-05
2.29937e-05
2.15824e-05
2.33931e-05
2.75929e-05
3.74357e-05
3.74398e-05
2.23014e-05
3.74334e-05
3.74375e-05
2.81123e-05
6.97006e-05
2.8115e-05
6.9699e-05
7.55712e-05
7.55724e-05
2.81139e-05
6.97022e-05
2.81164e-05
6.97005e-05
2.3756e-05
2.37557e-05
2.37558e-05
2.37559e-05
2.3756e-05
2.37557e-05
2.37558e-05
2.15822e-05
2.75984e-05
2.33933e-05
2.29942e-05
2.15824e-05
2.75929e-05
2.33934e-05
7.5567e-05
7.55678e-05
2.15827e-05
2.33931e-05
2.75988e-05
2.29939e-05
2.15829e-05
2.33933e-05
2.75935e-05
3.74364e-05
3.74406e-05
2.23017e-05
3.74341e-05
3.74383e-05
2.81126e-05
6.97009e-05
2.81155e-05
6.96993e-05
7.55723e-05
7.55721e-05
2.81141e-05
6.97027e-05
2.81168e-05
6.9701e-05
2.37561e-05
2.37558e-05
2.3756e-05
2.37558e-05
2.3756e-05
2.37556e-05
2.37558e-05
2.15825e-05
2.7599e-05
2.33934e-05
2.29943e-05
2.15828e-05
2.75933e-05
2.33934e-05
7.55679e-05
7.55691e-05
2.15829e-05
2.33932e-05
2.75993e-05
2.29941e-05
2.15831e-05
2.33933e-05
2.7594e-05
3.74374e-05
3.74416e-05
2.23019e-05
3.74351e-05
3.74394e-05
2.81127e-05
6.97012e-05
2.81157e-05
6.96998e-05
7.55719e-05
7.55738e-05
2.81143e-05
6.97033e-05
2.8117e-05
6.97017e-05
2.37559e-05
2.37555e-05
2.37558e-05
2.37555e-05
2.37557e-05
2.37553e-05
2.37556e-05
2.15827e-05
2.75991e-05
2.33933e-05
2.29943e-05
2.1583e-05
2.75933e-05
2.33933e-05
7.55692e-05
7.55706e-05
2.15831e-05
2.33931e-05
2.75996e-05
2.29939e-05
2.15834e-05
2.3393e-05
2.7594e-05
3.7438e-05
3.74423e-05
2.2302e-05
3.74351e-05
3.74394e-05
2.81114e-05
6.97026e-05
2.81149e-05
6.97016e-05
7.55735e-05
7.55738e-05
2.81132e-05
6.97047e-05
2.81164e-05
6.97034e-05
2.37556e-05
2.37552e-05
2.37556e-05
2.37551e-05
2.37551e-05
2.37549e-05
2.37551e-05
2.15814e-05
2.7599e-05
2.33931e-05
2.2994e-05
2.15827e-05
2.75929e-05
2.33931e-05
7.55704e-05
7.55705e-05
2.15819e-05
2.33928e-05
2.75994e-05
2.29936e-05
2.15831e-05
2.33928e-05
2.75937e-05
3.74377e-05
3.74419e-05
2.23018e-05
3.74351e-05
3.74394e-05
2.81089e-05
6.97036e-05
2.81134e-05
6.97013e-05
7.55714e-05
7.55712e-05
2.81106e-05
6.97055e-05
2.81148e-05
6.9704e-05
2.37542e-05
2.37544e-05
2.37545e-05
2.37507e-05
2.37504e-05
2.37505e-05
2.37506e-05
2.15765e-05
2.75972e-05
2.33916e-05
2.29905e-05
2.15796e-05
2.75898e-05
2.33902e-05
7.55683e-05
7.55682e-05
2.15771e-05
2.33917e-05
2.75982e-05
2.2991e-05
2.15802e-05
2.33905e-05
2.75912e-05
3.74376e-05
3.74417e-05
2.22982e-05
3.74342e-05
3.74384e-05
2.81056e-05
6.97016e-05
2.81096e-05
6.9699e-05
7.55701e-05
7.55707e-05
2.81073e-05
6.97055e-05
2.8111e-05
6.97038e-05
2.37498e-05
2.37498e-05
2.37499e-05
2.37492e-05
2.37493e-05
2.37491e-05
2.37493e-05
2.15734e-05
2.75932e-05
2.33868e-05
2.29869e-05
2.15739e-05
2.75865e-05
2.33865e-05
7.55669e-05
7.55673e-05
2.15741e-05
2.33868e-05
2.75944e-05
2.29869e-05
2.15746e-05
2.33865e-05
2.75879e-05
3.74351e-05
3.74393e-05
2.22942e-05
3.74316e-05
3.74358e-05
2.81046e-05
6.97001e-05
2.81078e-05
6.96979e-05
7.55701e-05
7.55708e-05
2.81063e-05
6.97056e-05
2.81093e-05
6.9704e-05
2.37494e-05
2.37492e-05
2.37494e-05
2.37492e-05
2.37493e-05
2.37491e-05
2.37493e-05
2.15733e-05
2.75917e-05
2.33863e-05
2.29868e-05
2.15736e-05
2.75858e-05
2.33864e-05
7.55666e-05
7.55672e-05
2.15739e-05
2.33862e-05
2.75926e-05
2.29867e-05
2.15743e-05
2.33863e-05
2.75869e-05
3.74335e-05
3.74377e-05
2.22938e-05
3.74306e-05
3.74349e-05
2.81044e-05
6.96994e-05
2.81075e-05
6.96974e-05
7.55702e-05
7.55709e-05
2.81062e-05
6.97059e-05
2.8109e-05
6.97043e-05
2.37494e-05
2.37492e-05
2.37493e-05
2.37492e-05
2.37493e-05
2.37491e-05
2.37493e-05
2.15732e-05
2.75915e-05
2.33863e-05
2.29869e-05
2.15736e-05
2.75857e-05
2.33863e-05
7.55665e-05
7.55672e-05
2.15738e-05
2.33862e-05
2.75923e-05
2.29867e-05
2.15741e-05
2.33863e-05
2.75868e-05
3.74332e-05
3.74373e-05
2.22938e-05
3.74305e-05
3.74347e-05
2.81044e-05
6.9699e-05
2.81074e-05
6.96971e-05
7.55703e-05
7.5571e-05
2.81062e-05
6.97062e-05
2.8109e-05
6.97045e-05
2.37494e-05
2.37492e-05
2.37494e-05
2.37492e-05
2.37493e-05
2.37491e-05
2.37493e-05
2.15732e-05
2.75915e-05
2.33863e-05
2.29869e-05
2.15736e-05
2.75857e-05
2.33863e-05
7.55665e-05
7.55672e-05
2.15738e-05
2.33862e-05
2.75923e-05
2.29867e-05
2.15741e-05
2.33863e-05
2.75868e-05
3.74331e-05
3.74373e-05
2.22939e-05
3.74305e-05
3.74347e-05
2.81044e-05
6.96988e-05
2.81074e-05
6.96969e-05
7.55704e-05
7.55711e-05
2.81062e-05
6.97063e-05
2.8109e-05
6.97046e-05
2.37494e-05
2.37492e-05
2.37493e-05
2.37492e-05
2.37493e-05
2.37491e-05
2.37493e-05
2.15732e-05
2.75915e-05
2.33863e-05
2.29869e-05
2.15735e-05
2.75857e-05
2.33863e-05
7.55665e-05
7.55672e-05
2.15738e-05
2.33862e-05
2.75923e-05
2.29867e-05
2.15741e-05
2.33863e-05
2.75868e-05
3.74331e-05
3.74373e-05
2.22938e-05
3.74305e-05
3.74347e-05
2.81044e-05
6.96987e-05
2.81074e-05
6.96968e-05
7.55705e-05
7.55712e-05
2.81062e-05
6.97064e-05
2.8109e-05
6.97047e-05
2.37494e-05
2.37492e-05
2.37493e-05
2.37492e-05
2.37493e-05
2.37491e-05
2.37493e-05
2.15732e-05
2.75915e-05
2.33863e-05
2.29869e-05
2.15736e-05
2.75857e-05
2.33863e-05
7.55665e-05
7.55672e-05
2.15738e-05
2.33862e-05
2.75923e-05
2.29867e-05
2.15741e-05
2.33863e-05
2.75868e-05
3.74331e-05
3.74373e-05
2.22938e-05
3.74305e-05
3.74347e-05
2.81044e-05
6.96985e-05
2.81074e-05
6.96967e-05
7.55706e-05
7.55713e-05
2.81062e-05
6.97064e-05
2.8109e-05
6.97047e-05
2.37494e-05
2.37492e-05
2.37493e-05
2.37492e-05
2.37493e-05
2.37491e-05
2.37493e-05
2.15732e-05
2.75915e-05
2.33863e-05
2.29869e-05
2.15736e-05
2.75857e-05
2.33863e-05
7.55665e-05
7.55672e-05
2.15738e-05
2.33862e-05
2.75923e-05
2.29867e-05
2.15741e-05
2.33863e-05
2.75868e-05
3.74331e-05
3.74373e-05
2.22938e-05
3.74305e-05
3.74347e-05
2.81044e-05
6.96985e-05
2.81074e-05
6.96966e-05
7.55706e-05
7.55713e-05
2.81062e-05
6.97065e-05
2.8109e-05
6.97048e-05
2.37494e-05
2.37492e-05
2.37493e-05
2.37492e-05
2.37493e-05
2.37491e-05
2.37493e-05
2.15732e-05
2.75915e-05
2.33863e-05
2.29869e-05
2.15736e-05
2.75857e-05
2.33863e-05
7.55665e-05
7.55672e-05
2.15738e-05
2.33862e-05
2.75923e-05
2.29867e-05
2.15741e-05
2.33863e-05
2.75868e-05
3.74331e-05
3.74373e-05
2.22938e-05
3.74305e-05
3.74347e-05
2.81044e-05
6.96984e-05
2.81074e-05
6.96966e-05
7.55706e-05
7.55713e-05
2.81062e-05
6.97065e-05
2.8109e-05
6.97048e-05
2.37493e-05
2.37492e-05
2.37493e-05
2.15732e-05
2.75915e-05
2.33863e-05
2.29868e-05
2.15736e-05
2.75857e-05
2.33864e-05
7.55665e-05
7.55665e-05
2.15739e-05
2.33862e-05
2.75923e-05
2.29867e-05
2.15741e-05
2.33863e-05
2.75868e-05
3.74331e-05
3.74373e-05
2.22939e-05
3.74305e-05
3.74363e-05
6.97049e-05
2.7588e-05
7.55778e-05
3.74273e-05
3.74262e-05
7.55737e-05
2.75855e-05
6.97011e-05
7.55783e-05
7.55768e-05
7.55771e-05
7.5576e-05
3.74276e-05
3.74328e-05
2.23008e-05
3.74249e-05
3.74297e-05
7.55748e-05
7.55758e-05
7.55741e-05
7.55748e-05
2.22969e-05
3.74267e-05
3.74315e-05
3.74275e-05
3.74325e-05
2.81055e-05
6.97064e-05
2.81069e-05
6.97039e-05
2.15791e-05
2.75917e-05
2.33925e-05
2.29926e-05
2.1579e-05
2.75875e-05
2.33926e-05
2.15793e-05
2.75941e-05
2.33926e-05
2.29923e-05
2.15792e-05
2.75898e-05
2.33927e-05
2.81084e-05
6.96992e-05
6.97016e-05
2.81066e-05
2.81089e-05
6.97032e-05
6.97055e-05
2.8107e-05
2.15799e-05
2.29927e-05
2.75889e-05
2.33927e-05
2.75935e-05
2.33927e-05
2.15798e-05
2.15801e-05
2.29925e-05
2.75912e-05
2.33928e-05
2.75958e-05
2.33927e-05
2.158e-05
3.74304e-05
3.74295e-05
2.22969e-05
3.74299e-05
3.74282e-05
7.55729e-05
7.55717e-05
7.55736e-05
7.55743e-05
2.22935e-05
3.74321e-05
3.74289e-05
3.74327e-05
3.7431e-05
7.55702e-05
7.5571e-05
2.15797e-05
2.75939e-05
2.33925e-05
2.29931e-05
2.15796e-05
2.75894e-05
2.33926e-05
2.81063e-05
6.97009e-05
2.81075e-05
6.96983e-05
2.15795e-05
2.33923e-05
2.7592e-05
2.29921e-05
2.15793e-05
2.33924e-05
2.75875e-05
2.811e-05
6.97016e-05
6.97041e-05
2.81084e-05
2.15805e-05
2.29932e-05
2.75908e-05
2.33927e-05
2.75956e-05
2.33927e-05
2.15804e-05
2.81095e-05
6.96974e-05
6.96999e-05
2.81079e-05
2.15803e-05
2.29922e-05
2.33925e-05
2.7589e-05
2.33925e-05
2.75938e-05
2.15802e-05
2.81054e-05
6.97029e-05
2.81069e-05
6.97003e-05
2.15791e-05
2.33925e-05
2.75917e-05
2.29926e-05
2.15791e-05
2.33926e-05
2.75875e-05
2.81053e-05
6.9704e-05
2.81068e-05
6.97015e-05
2.15799e-05
2.29932e-05
2.75889e-05
2.33929e-05
2.75936e-05
2.33928e-05
2.15798e-05
2.81088e-05
6.96995e-05
6.9702e-05
2.81069e-05
2.158e-05
2.29927e-05
2.33927e-05
2.75889e-05
2.33927e-05
2.75934e-05
2.15798e-05
2.81087e-05
6.97006e-05
6.9703e-05
2.81069e-05
3.74259e-05
3.74278e-05
2.23004e-05
3.74235e-05
3.74249e-05
7.55779e-05
7.55764e-05
7.55701e-05
7.5571e-05
2.22965e-05
3.74255e-05
3.74267e-05
3.74266e-05
3.74276e-05
7.55744e-05
7.55754e-05
2.15798e-05
2.33926e-05
2.75931e-05
2.29932e-05
2.15796e-05
2.33927e-05
2.75888e-05
2.81067e-05
6.97043e-05
2.81078e-05
6.97018e-05
2.81068e-05
6.97073e-05
2.81079e-05
6.97048e-05
2.15805e-05
2.29931e-05
2.33927e-05
2.75889e-05
2.33927e-05
2.75934e-05
2.15804e-05
2.15806e-05
2.29933e-05
2.33928e-05
2.75902e-05
2.33927e-05
2.75948e-05
2.15805e-05
2.81098e-05
6.9701e-05
6.97034e-05
2.81082e-05
2.81099e-05
6.9704e-05
6.97064e-05
2.81084e-05
7.55779e-05
7.55764e-05
7.55773e-05
7.55758e-05
2.22969e-05
3.74269e-05
3.74309e-05
3.74278e-05
3.74318e-05
7.55744e-05
7.55754e-05
7.55737e-05
7.55748e-05
7.5574e-05
7.55733e-05
7.5573e-05
7.55728e-05
3.74294e-05
3.74343e-05
2.2301e-05
3.74285e-05
3.74333e-05
7.55726e-05
7.55727e-05
7.55719e-05
7.55718e-05
2.2297e-05
3.74303e-05
3.7435e-05
3.74312e-05
3.74361e-05
2.81083e-05
6.97048e-05
2.81104e-05
6.97026e-05
2.15802e-05
2.75949e-05
2.33929e-05
2.2993e-05
2.15805e-05
2.75901e-05
2.33929e-05
2.15804e-05
2.75971e-05
2.33929e-05
2.29929e-05
2.15807e-05
2.75924e-05
2.3393e-05
2.81111e-05
6.96984e-05
6.97003e-05
2.81089e-05
2.81116e-05
6.97024e-05
6.97043e-05
2.81094e-05
2.1581e-05
2.2993e-05
2.7591e-05
2.3393e-05
2.7596e-05
2.33929e-05
2.15807e-05
2.15812e-05
2.29929e-05
2.75933e-05
2.3393e-05
2.75982e-05
2.3393e-05
2.15809e-05
3.74349e-05
3.74315e-05
2.23011e-05
3.7434e-05
3.7429e-05
7.55696e-05
7.55693e-05
7.55719e-05
7.55719e-05
2.22971e-05
3.74356e-05
3.74286e-05
3.74367e-05
3.74315e-05
7.55685e-05
7.55687e-05
2.15809e-05
2.75969e-05
2.33929e-05
2.29935e-05
2.15812e-05
2.75919e-05
2.33929e-05
2.81091e-05
6.96991e-05
2.81109e-05
6.96968e-05
2.15806e-05
2.33927e-05
2.75951e-05
2.29925e-05
2.15809e-05
2.33927e-05
2.75901e-05
2.81127e-05
6.97004e-05
6.97026e-05
2.81108e-05
2.15816e-05
2.29935e-05
2.75928e-05
2.3393e-05
2.7598e-05
2.33929e-05
2.15813e-05
2.81122e-05
6.96965e-05
6.96985e-05
2.81102e-05
2.15813e-05
2.29925e-05
2.33928e-05
2.75911e-05
2.33927e-05
2.75962e-05
2.15811e-05
2.81082e-05
6.97013e-05
2.81103e-05
6.9699e-05
2.15802e-05
2.33929e-05
2.75948e-05
2.2993e-05
2.15805e-05
2.33929e-05
2.75901e-05
2.81081e-05
6.97022e-05
2.81102e-05
6.97e-05
2.15809e-05
2.29936e-05
2.75907e-05
2.33931e-05
2.7596e-05
2.3393e-05
2.15806e-05
2.81114e-05
6.96988e-05
6.97008e-05
2.81093e-05
2.1581e-05
2.2993e-05
2.3393e-05
2.7591e-05
2.33929e-05
2.75959e-05
2.15807e-05
2.81114e-05
6.96996e-05
6.97016e-05
2.81092e-05
3.74285e-05
3.74294e-05
2.23005e-05
3.74272e-05
3.74286e-05
7.55736e-05
7.55729e-05
7.55682e-05
7.55684e-05
2.22966e-05
3.74287e-05
3.74303e-05
3.74302e-05
3.74312e-05
7.55721e-05
7.55723e-05
2.1581e-05
2.33929e-05
2.75961e-05
2.29936e-05
2.15812e-05
2.3393e-05
2.75914e-05
2.81095e-05
6.97026e-05
2.81113e-05
6.97003e-05
2.81096e-05
6.97056e-05
2.81114e-05
6.97033e-05
2.15815e-05
2.29934e-05
2.33929e-05
2.7591e-05
2.33929e-05
2.75958e-05
2.15813e-05
2.15817e-05
2.29936e-05
2.3393e-05
2.75924e-05
2.3393e-05
2.75972e-05
2.15814e-05
2.81125e-05
6.96999e-05
6.97019e-05
2.81106e-05
2.81126e-05
6.97029e-05
6.9705e-05
2.81107e-05
7.55736e-05
7.55729e-05
7.5573e-05
7.55723e-05
2.2297e-05
3.74306e-05
3.74346e-05
3.74315e-05
3.74355e-05
7.55721e-05
7.55723e-05
7.55715e-05
7.55717e-05
7.55721e-05
7.55723e-05
7.55711e-05
7.55714e-05
3.7433e-05
3.74376e-05
2.23012e-05
3.74321e-05
3.74363e-05
7.55721e-05
7.55718e-05
7.55711e-05
7.55707e-05
2.22973e-05
3.74332e-05
3.74372e-05
3.74347e-05
3.74389e-05
2.81103e-05
6.97041e-05
2.81126e-05
6.97023e-05
2.15811e-05
2.75969e-05
2.33931e-05
2.29933e-05
2.15814e-05
2.75919e-05
2.33931e-05
2.15813e-05
2.75991e-05
2.33932e-05
2.29931e-05
2.15816e-05
2.7594e-05
2.33932e-05
2.81131e-05
6.96986e-05
6.97002e-05
2.81107e-05
2.81135e-05
6.97024e-05
6.97041e-05
2.81111e-05
2.15819e-05
2.29933e-05
2.75926e-05
2.33932e-05
2.75977e-05
2.33931e-05
2.15815e-05
2.15821e-05
2.29931e-05
2.75946e-05
2.33932e-05
2.75998e-05
2.33932e-05
2.15817e-05
3.74382e-05
3.74311e-05
2.23012e-05
3.74368e-05
3.7428e-05
7.5568e-05
7.5568e-05
7.55711e-05
7.55713e-05
2.22973e-05
3.74376e-05
3.74278e-05
3.74394e-05
3.74305e-05
7.55677e-05
7.55676e-05
2.15818e-05
2.75988e-05
2.33931e-05
2.29938e-05
2.1582e-05
2.75936e-05
2.33931e-05
2.81112e-05
6.96984e-05
2.81132e-05
6.96965e-05
2.15815e-05
2.33929e-05
2.75971e-05
2.29928e-05
2.15818e-05
2.33929e-05
2.75919e-05
2.81146e-05
6.97002e-05
6.97021e-05
2.81125e-05
2.15825e-05
2.29938e-05
2.75942e-05
2.33932e-05
2.75996e-05
2.33932e-05
2.15821e-05
2.81141e-05
6.96966e-05
6.96984e-05
2.8112e-05
2.15822e-05
2.29928e-05
2.33929e-05
2.75925e-05
2.33929e-05
2.75979e-05
2.15819e-05
2.81102e-05
6.97006e-05
2.81125e-05
6.96986e-05
2.15811e-05
2.33931e-05
2.75968e-05
2.29933e-05
2.15814e-05
2.33931e-05
2.75918e-05
2.81101e-05
6.97013e-05
2.81124e-05
6.96994e-05
2.15818e-05
2.29938e-05
2.75917e-05
2.33932e-05
2.75972e-05
2.33932e-05
2.15814e-05
2.81134e-05
6.96986e-05
6.97005e-05
2.8111e-05
2.15818e-05
2.29933e-05
2.33931e-05
2.75925e-05
2.33931e-05
2.75976e-05
2.15815e-05
2.81133e-05
6.96994e-05
6.97012e-05
2.81109e-05
3.74315e-05
3.74329e-05
2.23007e-05
3.74298e-05
3.74317e-05
7.55716e-05
7.55717e-05
7.55675e-05
7.55674e-05
2.22968e-05
3.74306e-05
3.74327e-05
3.74326e-05
3.74342e-05
7.55715e-05
7.55713e-05
2.15818e-05
2.33932e-05
2.75982e-05
2.29939e-05
2.15821e-05
2.33932e-05
2.75932e-05
2.81115e-05
6.97016e-05
2.81135e-05
6.96998e-05
2.81116e-05
6.97046e-05
2.81137e-05
6.97028e-05
2.15823e-05
2.29936e-05
2.3393e-05
2.75924e-05
2.3393e-05
2.75974e-05
2.1582e-05
2.15825e-05
2.29939e-05
2.33932e-05
2.75938e-05
2.33932e-05
2.75989e-05
2.15822e-05
2.81144e-05
6.96998e-05
6.97015e-05
2.81123e-05
2.81146e-05
6.97028e-05
6.97045e-05
2.81124e-05
7.55716e-05
7.55717e-05
7.5571e-05
7.55711e-05
2.22973e-05
3.74329e-05
3.7437e-05
3.74345e-05
3.74385e-05
7.55716e-05
7.55713e-05
7.55709e-05
7.55707e-05
7.55716e-05
7.5572e-05
7.55704e-05
7.55711e-05
3.74355e-05
3.74396e-05
2.23015e-05
3.74335e-05
3.74376e-05
7.55722e-05
7.55716e-05
7.55712e-05
7.55704e-05
2.22976e-05
3.74337e-05
3.74379e-05
3.74358e-05
3.744e-05
2.81118e-05
6.97042e-05
2.81143e-05
6.97025e-05
2.15818e-05
2.75983e-05
2.33933e-05
2.29934e-05
2.15822e-05
2.7593e-05
2.33933e-05
2.1582e-05
2.76003e-05
2.33933e-05
2.29933e-05
2.15824e-05
2.7595e-05
2.33933e-05
2.81145e-05
6.96988e-05
6.97005e-05
2.81119e-05
2.81149e-05
6.97026e-05
6.97043e-05
2.81124e-05
2.15825e-05
2.29934e-05
2.75934e-05
2.33932e-05
2.75988e-05
2.33932e-05
2.15821e-05
2.15827e-05
2.29933e-05
2.75953e-05
2.33933e-05
2.76007e-05
2.33933e-05
2.15823e-05
3.74401e-05
3.74305e-05
2.23015e-05
3.74381e-05
3.74282e-05
7.55674e-05
7.55678e-05
7.55719e-05
7.55711e-05
2.22975e-05
3.74383e-05
3.74291e-05
3.74404e-05
3.74309e-05
7.55681e-05
7.55675e-05
2.15824e-05
2.76001e-05
2.33933e-05
2.2994e-05
2.15828e-05
2.75946e-05
2.33933e-05
2.81127e-05
6.96985e-05
2.81149e-05
6.96966e-05
2.15821e-05
2.3393e-05
2.75985e-05
2.29929e-05
2.15825e-05
2.3393e-05
2.7593e-05
2.81159e-05
6.97003e-05
6.97021e-05
2.81136e-05
2.1583e-05
2.2994e-05
2.75949e-05
2.33932e-05
2.76005e-05
2.33932e-05
2.15827e-05
2.81155e-05
6.96967e-05
6.96985e-05
2.81132e-05
2.15828e-05
2.29929e-05
2.33929e-05
2.75934e-05
2.33929e-05
2.7599e-05
2.15824e-05
2.81117e-05
6.97005e-05
2.81142e-05
6.96986e-05
2.15818e-05
2.33932e-05
2.75982e-05
2.29934e-05
2.15822e-05
2.33932e-05
2.75929e-05
2.81116e-05
6.97012e-05
2.81141e-05
6.96995e-05
2.15824e-05
2.2994e-05
2.75925e-05
2.33933e-05
2.7598e-05
2.33933e-05
2.1582e-05
2.81148e-05
6.96988e-05
6.97006e-05
2.81122e-05
2.15825e-05
2.29934e-05
2.33932e-05
2.75933e-05
2.33932e-05
2.75986e-05
2.15821e-05
2.81147e-05
6.96996e-05
6.97013e-05
2.81121e-05
3.74333e-05
3.74351e-05
2.2301e-05
3.74311e-05
3.74332e-05
7.55711e-05
7.55715e-05
7.55675e-05
7.55671e-05
2.22971e-05
3.74317e-05
3.74335e-05
3.74338e-05
3.74355e-05
7.55717e-05
7.55711e-05
2.15825e-05
2.33933e-05
2.75995e-05
2.2994e-05
2.15829e-05
2.33932e-05
2.75943e-05
2.81129e-05
6.97016e-05
2.81152e-05
6.96998e-05
2.81131e-05
6.97045e-05
2.81153e-05
6.97028e-05
2.15829e-05
2.29937e-05
2.33931e-05
2.75932e-05
2.33931e-05
2.75985e-05
2.15825e-05
2.15831e-05
2.2994e-05
2.33931e-05
2.75946e-05
2.33931e-05
2.75999e-05
2.15827e-05
2.81158e-05
6.96999e-05
6.97016e-05
2.81134e-05
2.81159e-05
6.97029e-05
6.97046e-05
2.81135e-05
7.55711e-05
7.55715e-05
7.55705e-05
7.55709e-05
2.22975e-05
3.74337e-05
3.74379e-05
3.74357e-05
3.74398e-05
7.55717e-05
7.55711e-05
7.55711e-05
7.55705e-05
7.55719e-05
7.55726e-05
7.55706e-05
7.55716e-05
3.74359e-05
3.74403e-05
2.23018e-05
3.74341e-05
3.74384e-05
7.5573e-05
7.55722e-05
7.55721e-05
7.55711e-05
2.22978e-05
3.74346e-05
3.74391e-05
3.74364e-05
3.74409e-05
2.81127e-05
6.97044e-05
2.81154e-05
6.97028e-05
2.15824e-05
2.75991e-05
2.33933e-05
2.29936e-05
2.15828e-05
2.75937e-05
2.33933e-05
2.15826e-05
2.7601e-05
2.33934e-05
2.29935e-05
2.1583e-05
2.75956e-05
2.33934e-05
2.81153e-05
6.96992e-05
6.97008e-05
2.81125e-05
2.81158e-05
6.97031e-05
6.97047e-05
2.8113e-05
2.15831e-05
2.29936e-05
2.7594e-05
2.33933e-05
2.75994e-05
2.33933e-05
2.15826e-05
2.15832e-05
2.29935e-05
2.75958e-05
2.33934e-05
2.76012e-05
2.33934e-05
2.15828e-05
3.74406e-05
3.74318e-05
2.23017e-05
3.74387e-05
3.74299e-05
7.55678e-05
7.55685e-05
7.5573e-05
7.5572e-05
2.22978e-05
3.7439e-05
3.74305e-05
3.7441e-05
3.74326e-05
7.55691e-05
7.55683e-05
2.15829e-05
2.76008e-05
2.33933e-05
2.29941e-05
2.15833e-05
2.75953e-05
2.33933e-05
2.81134e-05
6.96986e-05
2.8116e-05
6.96967e-05
2.15827e-05
2.3393e-05
2.75993e-05
2.29931e-05
2.15831e-05
2.3393e-05
2.75937e-05
2.81166e-05
6.97008e-05
6.97025e-05
2.8114e-05
2.15835e-05
2.29941e-05
2.75955e-05
2.33933e-05
2.76011e-05
2.33933e-05
2.15831e-05
2.81162e-05
6.96969e-05
6.96987e-05
2.81136e-05
2.15833e-05
2.29931e-05
2.3393e-05
2.7594e-05
2.3393e-05
2.75996e-05
2.15828e-05
2.81125e-05
6.97008e-05
2.81152e-05
6.9699e-05
2.15823e-05
2.33932e-05
2.75989e-05
2.29936e-05
2.15827e-05
2.33932e-05
2.75936e-05
2.81124e-05
6.97014e-05
2.81152e-05
6.96997e-05
2.15829e-05
2.29942e-05
2.75931e-05
2.33933e-05
2.75988e-05
2.33933e-05
2.15824e-05
2.81155e-05
6.96993e-05
6.9701e-05
2.81127e-05
2.1583e-05
2.29936e-05
2.33932e-05
2.75939e-05
2.33932e-05
2.75992e-05
2.15825e-05
2.81155e-05
6.97e-05
6.97016e-05
2.81126e-05
3.74343e-05
3.74358e-05
2.23012e-05
3.74322e-05
3.7434e-05
7.55714e-05
7.5572e-05
7.55683e-05
7.55676e-05
2.22973e-05
3.74327e-05
3.74346e-05
3.74349e-05
3.74363e-05
7.55725e-05
7.55718e-05
2.15829e-05
2.33932e-05
2.76003e-05
2.29942e-05
2.15834e-05
2.33932e-05
2.75949e-05
2.81136e-05
6.97017e-05
2.81162e-05
6.97e-05
2.81138e-05
6.97047e-05
2.81163e-05
6.9703e-05
2.15833e-05
2.29939e-05
2.33932e-05
2.75938e-05
2.33932e-05
2.75991e-05
2.15828e-05
2.15835e-05
2.29942e-05
2.33932e-05
2.75952e-05
2.33932e-05
2.76006e-05
2.1583e-05
2.81164e-05
6.97003e-05
6.97019e-05
2.81137e-05
2.81166e-05
6.97033e-05
6.97049e-05
2.81139e-05
7.55713e-05
7.5572e-05
7.55707e-05
7.55714e-05
2.22977e-05
3.74347e-05
3.74389e-05
3.74365e-05
3.74407e-05
7.55725e-05
7.55717e-05
7.55719e-05
7.55712e-05
7.55727e-05
7.55737e-05
7.55716e-05
7.55727e-05
3.74369e-05
3.74415e-05
2.2302e-05
3.7435e-05
3.74396e-05
7.55743e-05
7.55733e-05
7.55733e-05
7.55722e-05
2.22981e-05
3.74352e-05
3.744e-05
3.74373e-05
3.7442e-05
2.81131e-05
6.97049e-05
2.8116e-05
6.97026e-05
2.15828e-05
2.75997e-05
2.33935e-05
2.29937e-05
2.15833e-05
2.75943e-05
2.33935e-05
2.1583e-05
2.76014e-05
2.33936e-05
2.29937e-05
2.15835e-05
2.75962e-05
2.33936e-05
2.81156e-05
6.96995e-05
6.97011e-05
2.81127e-05
2.81161e-05
6.97023e-05
6.97045e-05
2.81132e-05
2.15834e-05
2.29937e-05
2.75944e-05
2.33935e-05
2.75999e-05
2.33935e-05
2.1583e-05
2.15837e-05
2.29937e-05
2.75965e-05
2.33936e-05
2.76021e-05
2.33936e-05
2.15832e-05
3.74414e-05
3.74331e-05
2.2302e-05
3.74394e-05
3.74308e-05
7.5569e-05
7.55698e-05
7.55718e-05
7.55719e-05
2.22981e-05
3.74392e-05
3.74308e-05
3.74418e-05
3.74334e-05
7.55705e-05
7.55696e-05
2.15832e-05
2.76014e-05
2.33933e-05
2.29942e-05
2.15837e-05
2.75958e-05
2.33933e-05
2.81137e-05
6.96989e-05
2.81163e-05
6.96972e-05
2.1583e-05
2.33931e-05
2.75999e-05
2.29932e-05
2.15835e-05
2.33931e-05
2.75942e-05
2.81169e-05
6.97013e-05
6.9703e-05
2.81142e-05
2.15838e-05
2.29942e-05
2.7596e-05
2.33932e-05
2.76017e-05
2.33933e-05
2.15834e-05
2.81164e-05
6.96974e-05
6.96991e-05
2.81138e-05
2.15836e-05
2.29932e-05
2.33931e-05
2.75943e-05
2.33931e-05
2.76001e-05
2.15832e-05
2.81128e-05
6.97013e-05
2.81157e-05
6.96997e-05
2.15826e-05
2.33934e-05
2.75995e-05
2.29937e-05
2.15831e-05
2.33934e-05
2.75941e-05
2.81127e-05
6.97018e-05
2.81156e-05
6.97002e-05
2.15832e-05
2.29943e-05
2.75933e-05
2.33933e-05
2.75991e-05
2.33934e-05
2.15826e-05
2.81158e-05
6.97e-05
6.97017e-05
2.81128e-05
2.15833e-05
2.29937e-05
2.33934e-05
2.75942e-05
2.33934e-05
2.75997e-05
2.15828e-05
2.81157e-05
6.97005e-05
6.97021e-05
2.81128e-05
3.74354e-05
3.74369e-05
2.23015e-05
3.74332e-05
3.74351e-05
7.55722e-05
7.55731e-05
7.55696e-05
7.55689e-05
2.22976e-05
3.74334e-05
3.74354e-05
3.74358e-05
3.74374e-05
7.55737e-05
7.55729e-05
2.15832e-05
2.33934e-05
2.76008e-05
2.29943e-05
2.15837e-05
2.33934e-05
2.75954e-05
2.81138e-05
6.97021e-05
2.81164e-05
6.97006e-05
2.8114e-05
6.97051e-05
2.81166e-05
6.97036e-05
2.15835e-05
2.29941e-05
2.33931e-05
2.75941e-05
2.33933e-05
2.75995e-05
2.1583e-05
2.15838e-05
2.29943e-05
2.33934e-05
2.75956e-05
2.33934e-05
2.76011e-05
2.15833e-05
2.81165e-05
6.97008e-05
6.97024e-05
2.81139e-05
2.81168e-05
6.97039e-05
6.97054e-05
2.81141e-05
7.55722e-05
7.55731e-05
7.55716e-05
7.55725e-05
2.2298e-05
3.74354e-05
3.74397e-05
3.74375e-05
3.74417e-05
7.55737e-05
7.55729e-05
7.55731e-05
7.55723e-05
7.5574e-05
7.55755e-05
7.55729e-05
7.55742e-05
3.74375e-05
3.74422e-05
2.23022e-05
3.74349e-05
3.74398e-05
7.5576e-05
7.55752e-05
7.55746e-05