/*--------------------------------*- C++ -*----------------------------------*\
| =========                 |                                                 |
| \\      /  F ield         | OpenFOAM: The Open Source CFD Toolbox           |
|  \\    /   O peration     | Version:  2206                                  |
|   \\  /    A nd           | Website:  www.openfoam.com                      |
|    \\/     M anipulation  |                                                 |
\*---------------------------------------------------------------------------*/
FoamFile
{
    version     2.0;
    format      ascii;
    arch        "LSB;label=32;scalar=64";
    class       volVectorField;
    location    "37.5";
    object      U;
}
// * * * * * * * * * * * * * * * * * * * * * * * * * * * * * * * * * * * * * //

dimensions      [0 1 -1 0 0 0 0];

internalField   nonuniform List<vector> 
28687
(
(-9.08096e-07 -9.03546e-07 0.104041)
(-6.21912e-07 9.49743e-07 0.103913)
(9.46567e-07 -6.15931e-07 0.103913)
(-4.82328e-05 -4.82488e-05 0.10374)
(-9.16776e-07 -9.13562e-07 0.104041)
(-6.15194e-07 9.43712e-07 0.103913)
(9.43354e-07 -6.10209e-07 0.103913)
(-4.82315e-05 -4.82466e-05 0.10374)
(-9.20856e-07 -9.11613e-07 0.104041)
(-6.03338e-07 9.46153e-07 0.103913)
(9.41802e-07 -6.05946e-07 0.103913)
(-4.82253e-05 -4.82407e-05 0.10374)
(-9.21671e-07 -9.10558e-07 0.104041)
(-6.00266e-07 9.50935e-07 0.103913)
(9.40177e-07 -6.02156e-07 0.103913)
(-4.82216e-05 -4.82372e-05 0.10374)
(-9.2623e-07 -9.14698e-07 0.104041)
(-5.99931e-07 9.4698e-07 0.103913)
(9.32464e-07 -5.94238e-07 0.103913)
(-4.82131e-05 -4.82288e-05 0.10374)
(-9.41893e-07 -9.27804e-07 0.104041)
(-5.71885e-07 9.32921e-07 0.103913)
(9.2128e-07 -5.66933e-07 0.103913)
(-4.82092e-05 -4.82242e-05 0.103739)
(-9.36956e-07 -9.14716e-07 0.10404)
(-5.67204e-07 9.38543e-07 0.103912)
(9.28847e-07 -5.78131e-07 0.103912)
(-4.8228e-05 -4.82369e-05 0.103739)
(-8.73826e-07 -8.51991e-07 0.10404)
(-7.11236e-07 1.04759e-06 0.103912)
(1.00858e-06 -6.83222e-07 0.103912)
(-4.82853e-05 -4.82883e-05 0.103739)
(-8.46522e-07 -8.61752e-07 0.104041)
(-6.55579e-07 9.25593e-07 0.103913)
(9.63242e-07 -6.73199e-07 0.103913)
(-4.8332e-05 -4.83561e-05 0.10374)
(-9.36372e-07 -9.33958e-07 0.104041)
(-5.8383e-07 9.26457e-07 0.103913)
(9.16412e-07 -5.83736e-07 0.103913)
(-4.82098e-05 -4.82288e-05 0.10374)
(-9.22831e-07 -9.14805e-07 0.104041)
(-6.03722e-07 9.45131e-07 0.103913)
(9.38171e-07 -6.0509e-07 0.103913)
(-4.82403e-05 -4.82556e-05 0.10374)
(-9.16804e-07 -9.09526e-07 0.104041)
(-6.08405e-07 9.46245e-07 0.103913)
(9.43072e-07 -6.11964e-07 0.103913)
(-4.82467e-05 -4.82624e-05 0.10374)
(-9.16567e-07 -9.09318e-07 0.104041)
(-6.08262e-07 9.45728e-07 0.103913)
(9.43546e-07 -6.12376e-07 0.103913)
(-4.82475e-05 -4.82632e-05 0.10374)
(-9.16969e-07 -9.09631e-07 0.104041)
(-6.07709e-07 9.45104e-07 0.103913)
(9.43269e-07 -6.12183e-07 0.103913)
(-4.82476e-05 -4.82631e-05 0.10374)
(-9.17428e-07 -9.09493e-07 0.104041)
(-6.07488e-07 9.45662e-07 0.103913)
(9.43393e-07 -6.12188e-07 0.103913)
(-4.82477e-05 -4.82629e-05 0.10374)
(-9.17982e-07 -9.09895e-07 0.104041)
(-6.07243e-07 9.45193e-07 0.103913)
(9.43258e-07 -6.12145e-07 0.103913)
(-4.82472e-05 -4.82624e-05 0.10374)
(-9.17383e-07 -9.09409e-07 0.104041)
(-6.07773e-07 9.45489e-07 0.103913)
(9.44001e-07 -6.12622e-07 0.103913)
(-4.82457e-05 -4.82611e-05 0.10374)
(-9.15997e-07 -9.08205e-07 0.104041)
(-6.0716e-07 9.45469e-07 0.103913)
(9.43923e-07 -6.12519e-07 0.103913)
(-4.82395e-05 -4.82552e-05 0.10374)
(-9.83906e-07 6.60829e-07 0.103913)
(5.07408e-05 -5.0714e-05 0.103749)
(-6.20426e-07 9.54048e-07 0.103913)
(4.82338e-05 4.82159e-05 0.10374)
(-5.07308e-05 -5.07083e-05 0.103749)
(9.79006e-07 6.4172e-07 0.103913)
(-9.79949e-07 6.6379e-07 0.103913)
(9.75595e-07 6.31278e-07 0.103913)
(-9.75876e-07 6.5295e-07 0.103913)
(-4.82469e-05 4.82137e-05 0.10374)
(5.07312e-05 -5.07086e-05 0.103749)
(6.18841e-07 9.55113e-07 0.103913)
(6.44768e-07 -9.7797e-07 0.103913)
(6.10699e-07 9.48829e-07 0.103913)
(6.39627e-07 -9.75651e-07 0.103913)
(-6.47664e-07 -9.73514e-07 0.103913)
(-6.1484e-07 9.43456e-07 0.103913)
(-6.43598e-07 -9.69335e-07 0.103913)
(4.82193e-05 -4.82552e-05 0.10374)
(-5.0703e-05 5.07368e-05 0.103749)
(-9.43764e-07 -6.13756e-07 0.103913)
(9.42772e-07 -6.08128e-07 0.103913)
(-9.40264e-07 -6.09407e-07 0.103913)
(5.07038e-05 5.07245e-05 0.103749)
(4.82318e-05 4.82145e-05 0.10374)
(-5.07314e-05 -5.07085e-05 0.103749)
(9.77006e-07 6.34678e-07 0.103913)
(-9.76876e-07 6.50622e-07 0.103913)
(9.71516e-07 6.29136e-07 0.103913)
(-9.76588e-07 6.42612e-07 0.103913)
(-4.82393e-05 4.82034e-05 0.10374)
(5.07402e-05 -5.07098e-05 0.103749)
(6.13013e-07 9.53123e-07 0.103913)
(6.37843e-07 -9.75965e-07 0.103913)
(6.05328e-07 9.48743e-07 0.103913)
(6.3479e-07 -9.72729e-07 0.103913)
(-6.42444e-07 -9.69469e-07 0.103913)
(-6.04037e-07 9.44699e-07 0.103913)
(-6.36403e-07 -9.65857e-07 0.103913)
(4.82169e-05 -4.82543e-05 0.10374)
(-5.07061e-05 5.07417e-05 0.103749)
(-9.40863e-07 -6.08338e-07 0.103913)
(9.40233e-07 -6.02781e-07 0.103913)
(-9.37773e-07 -6.01135e-07 0.103913)
(5.07082e-05 5.07288e-05 0.103749)
(4.82278e-05 4.82145e-05 0.10374)
(-5.07361e-05 -5.07123e-05 0.103749)
(9.71335e-07 6.34637e-07 0.103913)
(-9.77316e-07 6.42163e-07 0.103913)
(9.6609e-07 6.24783e-07 0.103913)
(-9.81239e-07 6.49075e-07 0.103913)
(-4.82296e-05 4.82031e-05 0.10374)
(5.07434e-05 -5.06967e-05 0.103749)
(6.08887e-07 9.50235e-07 0.103913)
(6.35453e-07 -9.7328e-07 0.103913)
(5.99578e-07 9.4581e-07 0.103913)
(6.29057e-07 -9.68239e-07 0.103913)
(-6.36148e-07 -9.66935e-07 0.103913)
(-5.95991e-07 9.5084e-07 0.103913)
(-6.29124e-07 -9.63039e-07 0.103913)
(4.82126e-05 -4.82473e-05 0.10374)
(-5.07109e-05 5.07468e-05 0.103749)
(-9.38939e-07 -6.01197e-07 0.103913)
(9.37174e-07 -5.96167e-07 0.103913)
(-9.34835e-07 -5.92992e-07 0.103913)
(5.0713e-05 5.07333e-05 0.103749)
(4.82242e-05 4.82098e-05 0.10374)
(-5.07442e-05 -5.0719e-05 0.103749)
(9.66566e-07 6.31605e-07 0.103913)
(-9.81338e-07 6.44327e-07 0.103913)
(9.58645e-07 6.15766e-07 0.103913)
(-9.68103e-07 6.29736e-07 0.103913)
(-4.8224e-05 4.82124e-05 0.10374)
(5.07515e-05 -5.07291e-05 0.103749)
(6.06247e-07 9.47806e-07 0.103913)
(6.33938e-07 -9.70904e-07 0.103913)
(5.89302e-07 9.37606e-07 0.103913)
(6.18338e-07 -9.59255e-07 0.103913)
(-6.32029e-07 -9.64626e-07 0.103913)
(-5.90445e-07 9.3862e-07 0.103913)
(-6.1868e-07 -9.54788e-07 0.103913)
(4.82093e-05 -4.8244e-05 0.10374)
(-5.07192e-05 5.07567e-05 0.103749)
(-9.36465e-07 -5.964e-07 0.103913)
(9.28067e-07 -5.85428e-07 0.103913)
(-9.26275e-07 -5.82343e-07 0.103913)
(5.07225e-05 5.07424e-05 0.103749)
(4.82161e-05 4.82029e-05 0.10374)
(-5.07552e-05 -5.07308e-05 0.103749)
(9.62299e-07 6.26849e-07 0.103913)
(-9.7569e-07 6.34119e-07 0.103913)
(9.57438e-07 6.00819e-07 0.103913)
(-9.56406e-07 6.06074e-07 0.103913)
(-4.82175e-05 4.81863e-05 0.10374)
(5.07696e-05 -5.07411e-05 0.103749)
(5.98159e-07 9.42963e-07 0.103913)
(6.2237e-07 -9.63798e-07 0.103913)
(5.76854e-07 9.36894e-07 0.103913)
(6.05626e-07 -9.59262e-07 0.103912)
(-6.25192e-07 -9.59441e-07 0.103913)
(-5.69515e-07 9.29023e-07 0.103913)
(-6.05891e-07 -9.54295e-07 0.103913)
(4.81999e-05 -4.82348e-05 0.10374)
(-5.07303e-05 5.0766e-05 0.103749)
(-9.31057e-07 -5.88107e-07 0.103913)
(9.28076e-07 -5.73128e-07 0.103913)
(-9.26001e-07 -5.69849e-07 0.103913)
(5.07329e-05 5.07535e-05 0.103749)
(4.82121e-05 4.81962e-05 0.103739)
(-5.07608e-05 -5.07183e-05 0.103749)
(9.47818e-07 5.98857e-07 0.103912)
(-9.59355e-07 6.10214e-07 0.103912)
(9.75672e-07 6.35568e-07 0.103912)
(-9.77582e-07 6.31898e-07 0.103912)
(-4.82048e-05 4.81822e-05 0.10374)
(5.0763e-05 -5.07155e-05 0.103749)
(5.70789e-07 9.30823e-07 0.103913)
(5.97872e-07 -9.51148e-07 0.103912)
(6.00298e-07 9.65402e-07 0.103912)
(6.3052e-07 -9.75151e-07 0.103912)
(-5.9865e-07 -9.45836e-07 0.103912)
(-5.8631e-07 9.57926e-07 0.103912)
(-6.31242e-07 -9.69365e-07 0.103912)
(4.8197e-05 -4.82314e-05 0.10374)
(-5.07315e-05 5.07705e-05 0.103749)
(-9.18384e-07 -5.6074e-07 0.103913)
(9.47682e-07 -5.95424e-07 0.103912)
(-9.46202e-07 -5.92289e-07 0.103912)
(5.07326e-05 5.07585e-05 0.103749)
(4.82276e-05 4.82316e-05 0.103739)
(-5.07597e-05 -5.07081e-05 0.103749)
(9.57891e-07 6.27007e-07 0.103912)
(-9.55585e-07 6.14609e-07 0.103912)
(9.77084e-07 6.52277e-07 0.103912)
(-1.03597e-06 7.00137e-07 0.103912)
(-4.82254e-05 4.82197e-05 0.103739)
(5.07055e-05 -5.06624e-05 0.103749)
(5.82373e-07 9.51266e-07 0.103912)
(6.10444e-07 -9.55295e-07 0.103912)
(6.06721e-07 9.77259e-07 0.103912)
(6.38572e-07 -9.80613e-07 0.103912)
(-6.13964e-07 -9.49008e-07 0.103912)
(-6.44374e-07 1.01628e-06 0.103912)
(-6.52984e-07 -9.69036e-07 0.103912)
(4.82128e-05 -4.82452e-05 0.103739)
(-5.0727e-05 5.07652e-05 0.103749)
(-9.28132e-07 -5.73295e-07 0.103912)
(9.54158e-07 -6.03164e-07 0.103912)
(-9.56149e-07 -6.0447e-07 0.103912)
(5.07224e-05 5.07561e-05 0.103749)
(4.8281e-05 4.82815e-05 0.103739)
(-5.06322e-05 -5.06055e-05 0.103749)
(1.02995e-06 7.23651e-07 0.103912)
(-1.06698e-06 7.5379e-07 0.103912)
(1.04019e-06 7.56045e-07 0.103913)
(-9.91937e-07 7.25281e-07 0.103913)
(-4.83283e-05 4.83158e-05 0.103739)
(5.06731e-05 -5.06701e-05 0.103749)
(6.88211e-07 1.02503e-06 0.103912)
(7.14418e-07 -1.03488e-06 0.103912)
(7.33775e-07 9.998e-07 0.103913)
(7.53672e-07 -1.02811e-06 0.103913)
(-7.28693e-07 -1.02379e-06 0.103912)
(-7.03561e-07 9.57167e-07 0.103913)
(-7.47104e-07 -1.02758e-06 0.103913)
(4.82663e-05 -4.82995e-05 0.103739)
(-5.06044e-05 5.06404e-05 0.103749)
(-1.00809e-06 -6.84126e-07 0.103912)
(9.98407e-07 -7.19012e-07 0.103913)
(-9.88518e-07 -7.19771e-07 0.103913)
(5.06123e-05 5.06256e-05 0.103749)
(4.83467e-05 4.832e-05 0.10374)
(-5.07836e-05 -5.07541e-05 0.103749)
(1.00885e-06 7.03552e-07 0.103913)
(-9.59386e-07 6.73541e-07 0.103913)
(9.47136e-07 6.08253e-07 0.103913)
(-9.47506e-07 6.19246e-07 0.103913)
(-4.83004e-05 4.82492e-05 0.10374)
(5.07902e-05 -5.07563e-05 0.10375)
(6.8771e-07 9.63331e-07 0.103913)
(7.04888e-07 -9.92436e-07 0.103913)
(5.88559e-07 9.1769e-07 0.103913)
(6.13108e-07 -9.44395e-07 0.103913)
(-6.9655e-07 -9.94547e-07 0.103913)
(-5.8077e-07 9.17042e-07 0.103913)
(-6.11575e-07 -9.4329e-07 0.103913)
(4.83256e-05 -4.83597e-05 0.10374)
(-5.07581e-05 5.07921e-05 0.103749)
(-9.52711e-07 -6.71616e-07 0.103913)
(9.1333e-07 -5.81923e-07 0.103913)
(-9.0831e-07 -5.81881e-07 0.103913)
(5.07611e-05 5.07767e-05 0.103749)
(4.82207e-05 4.81944e-05 0.10374)
(-5.07608e-05 -5.07274e-05 0.103749)
(9.47724e-07 6.0627e-07 0.103913)
(-9.57362e-07 6.22848e-07 0.103913)
(9.63558e-07 6.27341e-07 0.103913)
(-9.7522e-07 6.39026e-07 0.103913)
(-4.82126e-05 4.8195e-05 0.10374)
(5.07577e-05 -5.07287e-05 0.103749)
(5.88883e-07 9.21554e-07 0.103913)
(6.11217e-07 -9.476e-07 0.103913)
(6.0039e-07 9.39012e-07 0.103913)
(6.28569e-07 -9.64754e-07 0.103913)
(-6.11799e-07 -9.44842e-07 0.103913)
(-5.98972e-07 9.42889e-07 0.103913)
(-6.30221e-07 -9.60023e-07 0.103913)
(4.81965e-05 -4.82341e-05 0.10374)
(-5.07313e-05 5.0766e-05 0.103749)
(-9.13015e-07 -5.7963e-07 0.103913)
(9.33134e-07 -5.97536e-07 0.103913)
(-9.31955e-07 -5.94259e-07 0.103913)
(5.07325e-05 5.07529e-05 0.103749)
(4.82473e-05 4.8224e-05 0.10374)
(-5.07511e-05 -5.07185e-05 0.103749)
(9.67863e-07 6.29387e-07 0.103913)
(-9.784e-07 6.42187e-07 0.103913)
(9.7332e-07 6.37549e-07 0.103913)
(-9.806e-07 6.46854e-07 0.103913)
(-4.82436e-05 4.82196e-05 0.10374)
(5.07507e-05 -5.07229e-05 0.103749)
(6.08346e-07 9.43582e-07 0.103913)
(6.33279e-07 -9.69195e-07 0.103913)
(6.10223e-07 9.46367e-07 0.103913)
(6.39369e-07 -9.73282e-07 0.103913)
(-6.3497e-07 -9.64471e-07 0.103913)
(-6.0707e-07 9.46549e-07 0.103913)
(-6.4046e-07 -9.68934e-07 0.103913)
(4.82262e-05 -4.82624e-05 0.10374)
(-5.07213e-05 5.07567e-05 0.103749)
(-9.36696e-07 -5.98562e-07 0.103913)
(9.41788e-07 -6.08103e-07 0.103913)
(-9.40235e-07 -6.03386e-07 0.103913)
(5.07233e-05 5.07435e-05 0.103749)
(4.82545e-05 4.82301e-05 0.10374)
(-5.07497e-05 -5.07179e-05 0.103749)
(9.7434e-07 6.35409e-07 0.103913)
(-9.81157e-07 6.47107e-07 0.103913)
(9.75174e-07 6.38233e-07 0.103913)
(-9.80536e-07 6.48127e-07 0.103913)
(-4.82477e-05 4.82231e-05 0.10374)
(5.07514e-05 -5.07226e-05 0.103749)
(6.14666e-07 9.47307e-07 0.103913)
(6.40105e-07 -9.74144e-07 0.103913)
(6.11285e-07 9.4632e-07 0.103913)
(6.40382e-07 -9.73929e-07 0.103913)
(-6.4099e-07 -9.69956e-07 0.103913)
(-6.07053e-07 9.45921e-07 0.103913)
(-6.40557e-07 -9.70032e-07 0.103913)
(4.82334e-05 -4.8269e-05 0.10374)
(-5.07204e-05 5.07559e-05 0.103749)
(-9.4128e-07 -6.0583e-07 0.103913)
(9.42587e-07 -6.09365e-07 0.103913)
(-9.40782e-07 -6.06786e-07 0.103913)
(5.07224e-05 5.07423e-05 0.103749)
(4.82552e-05 4.82303e-05 0.10374)
(-5.07505e-05 -5.07187e-05 0.103749)
(9.75672e-07 6.36015e-07 0.103913)
(-9.81018e-07 6.47301e-07 0.103913)
(9.75434e-07 6.37484e-07 0.103913)
(-9.80631e-07 6.47355e-07 0.103913)
(-4.82482e-05 4.8224e-05 0.10374)
(5.07507e-05 -5.07232e-05 0.103749)
(6.14798e-07 9.46957e-07 0.103913)
(6.40325e-07 -9.7441e-07 0.103913)
(6.10589e-07 9.45243e-07 0.103913)
(6.39736e-07 -9.73674e-07 0.103913)
(-6.40502e-07 -9.70616e-07 0.103913)
(-6.06687e-07 9.45337e-07 0.103913)
(-6.39714e-07 -9.69754e-07 0.103913)
(4.82337e-05 -4.82693e-05 0.10374)
(-5.0721e-05 5.07565e-05 0.103749)
(-9.41488e-07 -6.07454e-07 0.103913)
(9.42318e-07 -6.08879e-07 0.103913)
(-9.40569e-07 -6.07019e-07 0.103913)
(5.07224e-05 5.07427e-05 0.103749)
(4.82547e-05 4.82297e-05 0.10374)
(-5.07505e-05 -5.07179e-05 0.103749)
(9.75756e-07 6.35445e-07 0.103913)
(-9.81224e-07 6.47137e-07 0.103913)
(9.75399e-07 6.37822e-07 0.103913)
(-9.81325e-07 6.48398e-07 0.103913)
(-4.82482e-05 4.82231e-05 0.10374)
(5.07503e-05 -5.07217e-05 0.103749)
(6.14382e-07 9.46042e-07 0.103913)
(6.39921e-07 -9.74201e-07 0.103913)
(6.10089e-07 9.45071e-07 0.103913)
(6.39681e-07 -9.73704e-07 0.103913)
(-6.39911e-07 -9.70274e-07 0.103913)
(-6.06542e-07 9.45746e-07 0.103913)
(-6.39508e-07 -9.69583e-07 0.103913)
(4.82333e-05 -4.8269e-05 0.10374)
(-5.07206e-05 5.07561e-05 0.103749)
(-9.414e-07 -6.07887e-07 0.103913)
(9.42445e-07 -6.09048e-07 0.103913)
(-9.40842e-07 -6.07682e-07 0.103913)
(5.07218e-05 5.07423e-05 0.103749)
(4.82541e-05 4.82299e-05 0.10374)
(-5.07506e-05 -5.0718e-05 0.103749)
(9.75812e-07 6.35772e-07 0.103913)
(-9.82062e-07 6.48045e-07 0.103913)
(9.75196e-07 6.37421e-07 0.103913)
(-9.81125e-07 6.48311e-07 0.103913)
(-4.82481e-05 4.82243e-05 0.10374)
(5.07504e-05 -5.07213e-05 0.103749)
(6.13819e-07 9.45893e-07 0.103913)
(6.39764e-07 -9.74176e-07 0.103913)
(6.09534e-07 9.44473e-07 0.103913)
(6.39377e-07 -9.73703e-07 0.103913)
(-6.39516e-07 -9.70109e-07 0.103913)
(-6.06029e-07 9.45447e-07 0.103913)
(-6.39192e-07 -9.69517e-07 0.103913)
(4.82332e-05 -4.82688e-05 0.10374)
(-5.07203e-05 5.07558e-05 0.103749)
(-9.41597e-07 -6.08355e-07 0.103913)
(9.42339e-07 -6.089e-07 0.103913)
(-9.40834e-07 -6.07747e-07 0.103913)
(5.07213e-05 5.07419e-05 0.103749)
(4.8253e-05 4.82287e-05 0.10374)
(-5.07487e-05 -5.07169e-05 0.103749)
(9.75329e-07 6.35267e-07 0.103913)
(-9.81979e-07 6.48012e-07 0.103913)
(9.75473e-07 6.37711e-07 0.103913)
(-9.81235e-07 6.48618e-07 0.103913)
(-4.82473e-05 4.82237e-05 0.10374)
(5.07491e-05 -5.07202e-05 0.103749)
(6.13441e-07 9.45106e-07 0.103913)
(6.39657e-07 -9.74241e-07 0.103913)
(6.09888e-07 9.44188e-07 0.103913)
(6.39654e-07 -9.74119e-07 0.103913)
(-6.39285e-07 -9.69997e-07 0.103913)
(-6.06739e-07 9.45744e-07 0.103913)
(-6.39511e-07 -9.69844e-07 0.103913)
(4.82325e-05 -4.82681e-05 0.10374)
(-5.07184e-05 5.07538e-05 0.103749)
(-9.41471e-07 -6.08396e-07 0.103913)
(9.42851e-07 -6.09297e-07 0.103913)
(-9.40994e-07 -6.08292e-07 0.103913)
(5.07197e-05 5.07401e-05 0.103749)
(4.82519e-05 4.82269e-05 0.10374)
(-5.07433e-05 -5.07117e-05 0.103749)
(9.76206e-07 6.35711e-07 0.103913)
(-9.82616e-07 6.48139e-07 0.103913)
(9.76227e-07 6.37948e-07 0.103913)
(-9.80125e-07 6.4851e-07 0.103913)
(-4.82468e-05 4.82229e-05 0.10374)
(5.07482e-05 -5.07189e-05 0.103749)
(6.13967e-07 9.45272e-07 0.103913)
(6.40033e-07 -9.74836e-07 0.103913)
(6.10451e-07 9.44275e-07 0.103913)
(6.40152e-07 -9.73893e-07 0.103913)
(-6.39591e-07 -9.70534e-07 0.103913)
(-6.0673e-07 9.45584e-07 0.103913)
(-6.39771e-07 -9.70051e-07 0.103913)
(4.82314e-05 -4.8267e-05 0.10374)
(-5.07134e-05 5.07491e-05 0.103749)
(-9.41852e-07 -6.0912e-07 0.103913)
(9.42955e-07 -6.09566e-07 0.103913)
(-9.40584e-07 -6.08726e-07 0.103913)
(5.07149e-05 5.07349e-05 0.103749)
(4.82465e-05 4.82216e-05 0.10374)
(9.7705e-07 6.36004e-07 0.103913)
(-9.82079e-07 6.48214e-07 0.103913)
(-4.82451e-05 4.82212e-05 0.10374)
(6.14181e-07 9.45552e-07 0.103913)
(6.40172e-07 -9.74332e-07 0.103913)
(-6.38668e-07 -9.70341e-07 0.103913)
(4.82255e-05 -4.82609e-05 0.10374)
(-9.41247e-07 -6.09253e-07 0.103913)
(9.38952e-08 -1.03618e-05 0.0999049)
(6.08792e-07 7.37973e-06 0.0906227)
(-1.25443e-07 9.96313e-06 0.0998788)
(-1.22595e-06 -7.03829e-06 0.0906546)
(-2.18641e-06 3.31248e-06 0.0778828)
(2.20119e-06 -3.18589e-06 0.0779141)
(-1.04401e-05 8.41592e-08 0.0999036)
(7.32451e-06 5.69433e-07 0.0906215)
(1.00466e-05 -1.08211e-07 0.0998794)
(-6.9806e-06 -1.18876e-06 0.0906557)
(9.15409e-07 -8.92113e-07 0.104041)
(-8.99926e-07 9.08478e-07 0.104041)
(9.02617e-07 8.99663e-07 0.104041)
(-9.15357e-07 -9.11567e-07 0.104041)
(9.21515e-07 -8.99997e-07 0.104041)
(-9.06436e-07 9.1569e-07 0.104041)
(9.09118e-07 9.06545e-07 0.104041)
(1.73188e-05 1.53881e-07 0.10301)
(-1.66248e-05 4.63553e-06 0.100447)
(-8.01889e-07 -2.27382e-07 0.103999)
(-6.18925e-07 9.46251e-07 0.103913)
(-1.75142e-05 -1.77918e-07 0.102997)
(1.57995e-05 -5.224e-06 0.100487)
(-8.0082e-07 -2.28341e-07 0.103999)
(3.21404e-06 -2.12852e-06 0.0778796)
(-3.06313e-06 2.1409e-06 0.0779153)
(1.64881e-07 1.73314e-05 0.10301)
(-2.30712e-07 -7.88757e-07 0.103999)
(4.68294e-06 -1.66952e-05 0.100447)
(9.45142e-07 -6.12987e-07 0.103913)
(-1.79283e-07 -1.75318e-05 0.102997)
(-2.31692e-07 -7.84046e-07 0.103999)
(-5.26895e-06 1.58578e-05 0.100486)
(-4.8684e-06 -5.90533e-06 0.0964266)
(-5.89178e-06 -4.86292e-06 0.0964256)
(5.0703e-05 5.07234e-05 0.103749)
(4.40657e-06 5.73691e-06 0.0964623)
(5.73296e-06 4.39945e-06 0.0964607)
(9.28244e-08 -1.03763e-05 0.0999049)
(6.13316e-07 7.35466e-06 0.0906228)
(-1.25675e-07 9.96054e-06 0.0998788)
(-1.21357e-06 -7.06719e-06 0.0906547)
(-2.16541e-06 3.27218e-06 0.0778827)
(2.20636e-06 -3.20743e-06 0.0779143)
(-1.04511e-05 8.75125e-08 0.0999036)
(7.30457e-06 5.65214e-07 0.0906216)
(1.00469e-05 -1.08416e-07 0.0998795)
(-7.00718e-06 -1.18213e-06 0.0906557)
(9.22672e-07 -9.03004e-07 0.104041)
(-9.08494e-07 9.16918e-07 0.104041)
(9.10155e-07 9.08314e-07 0.104041)
(-9.21458e-07 -9.1244e-07 0.104041)
(9.16674e-07 -9.09467e-07 0.104041)
(-9.0913e-07 9.18614e-07 0.104041)
(9.10604e-07 9.13073e-07 0.104041)
(1.73326e-05 1.57863e-07 0.10301)
(-1.66243e-05 4.63269e-06 0.100447)
(-7.93809e-07 -2.30059e-07 0.103999)
(-6.11116e-07 9.44278e-07 0.103913)
(-1.74995e-05 -1.77543e-07 0.102997)
(1.58089e-05 -5.23985e-06 0.100487)
(-7.86358e-07 -2.301e-07 0.103999)
(3.16685e-06 -2.10424e-06 0.0778795)
(-3.09092e-06 2.14401e-06 0.0779153)
(1.66925e-07 1.73464e-05 0.10301)
(-2.32548e-07 -7.82808e-07 0.103999)
(4.68238e-06 -1.66869e-05 0.100447)
(9.41815e-07 -6.05944e-07 0.103913)
(-1.79591e-07 -1.75162e-05 0.102997)
(-2.33324e-07 -7.74737e-07 0.103999)
(-5.28892e-06 1.58727e-05 0.100486)
(-4.87924e-06 -5.90669e-06 0.0964268)
(-5.89357e-06 -4.87444e-06 0.0964258)
(5.07047e-05 5.07256e-05 0.103749)
(4.39441e-06 5.7463e-06 0.0964624)
(5.74154e-06 4.38749e-06 0.0964608)
(9.07457e-08 -1.03909e-05 0.0999049)
(6.12912e-07 7.33613e-06 0.090623)
(-1.25571e-07 9.94511e-06 0.0998788)
(-1.21057e-06 -7.06756e-06 0.0906549)
(-2.16182e-06 3.24634e-06 0.0778828)
(2.16476e-06 -3.18355e-06 0.0779146)
(-1.04682e-05 8.65202e-08 0.0999036)
(7.2872e-06 5.79646e-07 0.0906217)
(1.0033e-05 -1.09156e-07 0.0998795)
(-7.01997e-06 -1.16932e-06 0.0906559)
(9.16829e-07 -9.10216e-07 0.104041)
(-9.08963e-07 9.18223e-07 0.104041)
(9.10116e-07 9.13072e-07 0.104041)
(-9.23246e-07 -9.10968e-07 0.104041)
(9.16982e-07 -9.05637e-07 0.104041)
(-9.109e-07 9.2067e-07 0.104041)
(9.11423e-07 9.15689e-07 0.104041)
(1.73517e-05 1.58807e-07 0.10301)
(-1.6611e-05 4.62059e-06 0.100447)
(-7.76998e-07 -2.28525e-07 0.103999)
(-5.98896e-07 9.47274e-07 0.103913)
(-1.74843e-05 -1.75715e-07 0.102997)
(1.58323e-05 -5.25209e-06 0.100487)
(-7.70764e-07 -2.28771e-07 0.103999)
(3.15177e-06 -2.10758e-06 0.0778796)
(-3.09796e-06 2.14229e-06 0.0779155)
(1.67323e-07 1.73633e-05 0.10301)
(-2.33722e-07 -7.75222e-07 0.103999)
(4.66764e-06 -1.66719e-05 0.100447)
(9.40399e-07 -6.00925e-07 0.103913)
(-1.80369e-07 -1.75019e-05 0.102997)
(-2.34121e-07 -7.66426e-07 0.103999)
(-5.29903e-06 1.58872e-05 0.100486)
(-4.88101e-06 -5.89846e-06 0.0964268)
(-5.88583e-06 -4.8763e-06 0.0964258)
(5.07098e-05 5.07302e-05 0.103749)
(4.40107e-06 5.75262e-06 0.0964624)
(5.74715e-06 4.3939e-06 0.0964608)
(9.9419e-08 -1.04042e-05 0.0999048)
(6.18457e-07 7.32716e-06 0.0906231)
(-1.26347e-07 9.93077e-06 0.0998788)
(-1.22452e-06 -7.07885e-06 0.0906552)
(-2.2283e-06 3.30707e-06 0.0778832)
(2.19977e-06 -3.1937e-06 0.077915)
(-1.04811e-05 8.96569e-08 0.0999036)
(7.28107e-06 5.77916e-07 0.0906219)
(1.00154e-05 -9.96878e-08 0.0998794)
(-7.03554e-06 -1.18469e-06 0.0906561)
(9.17769e-07 -9.08679e-07 0.104041)
(-9.09676e-07 9.19447e-07 0.104041)
(9.10778e-07 9.14412e-07 0.104041)
(-9.2856e-07 -9.15317e-07 0.104041)
(9.22679e-07 -9.15803e-07 0.104041)
(-9.1734e-07 9.26478e-07 0.104041)
(9.16469e-07 9.21403e-07 0.104041)
(1.73678e-05 1.58601e-07 0.10301)
(-1.65877e-05 4.60993e-06 0.100447)
(-7.70054e-07 -2.27053e-07 0.103999)
(-5.96282e-07 9.4522e-07 0.103913)
(-1.74683e-05 -1.74859e-07 0.102997)
(1.58492e-05 -5.26741e-06 0.100487)
(-7.65813e-07 -2.29147e-07 0.103999)
(3.15092e-06 -2.10291e-06 0.0778798)
(-3.10131e-06 2.15082e-06 0.0779157)
(1.67486e-07 1.73784e-05 0.10301)
(-2.33143e-07 -7.67416e-07 0.103999)
(4.65714e-06 -1.66591e-05 0.100447)
(9.41618e-07 -5.99876e-07 0.103913)
(-1.78281e-07 -1.74876e-05 0.102997)
(-2.34026e-07 -7.62242e-07 0.103999)
(-5.3169e-06 1.59022e-05 0.100486)
(-4.87127e-06 -5.89635e-06 0.0964268)
(-5.88488e-06 -4.86613e-06 0.0964258)
(5.07154e-05 5.07355e-05 0.103749)
(4.41037e-06 5.7547e-06 0.0964624)
(5.74877e-06 4.40401e-06 0.0964609)
(1.0397e-07 -1.04201e-05 0.0999048)
(5.98878e-07 7.3221e-06 0.0906234)
(-1.12031e-07 9.9236e-06 0.0998788)
(-1.22448e-06 -7.09303e-06 0.0906555)
(-2.15086e-06 3.22357e-06 0.0778833)
(2.19014e-06 -3.18618e-06 0.0779158)
(-1.05022e-05 9.52738e-08 0.0999036)
(7.27372e-06 5.67447e-07 0.0906222)
(1.00063e-05 -1.02687e-07 0.0998794)
(-7.05471e-06 -1.19379e-06 0.0906564)
(9.21522e-07 -9.15847e-07 0.104041)
(-9.16867e-07 9.2457e-07 0.104041)
(9.14699e-07 9.1915e-07 0.104041)
(-9.3839e-07 -9.2689e-07 0.104041)
(9.37972e-07 -9.29371e-07 0.104041)
(-9.2794e-07 9.36993e-07 0.104041)
(9.26704e-07 9.31055e-07 0.104041)
(1.73825e-05 1.58963e-07 0.10301)
(-1.65813e-05 4.58854e-06 0.100447)
(-7.63867e-07 -2.31689e-07 0.103999)
(-5.95742e-07 9.45165e-07 0.103913)
(-1.74595e-05 -1.77631e-07 0.102997)
(1.58572e-05 -5.27291e-06 0.100487)
(-7.60696e-07 -2.33323e-07 0.103999)
(3.13894e-06 -2.1025e-06 0.0778802)
(-3.11133e-06 2.16245e-06 0.0779163)
(1.67742e-07 1.73957e-05 0.10301)
(-2.35801e-07 -7.56127e-07 0.103999)
(4.63694e-06 -1.66496e-05 0.100447)
(9.4012e-07 -5.97998e-07 0.103913)
(-1.79498e-07 -1.74772e-05 0.102997)
(-2.35829e-07 -7.55964e-07 0.103998)
(-5.3259e-06 1.59215e-05 0.100486)
(-4.86173e-06 -5.89637e-06 0.096427)
(-5.88408e-06 -4.85639e-06 0.096426)
(5.07224e-05 5.07428e-05 0.103749)
(4.4262e-06 5.75558e-06 0.0964626)
(5.74911e-06 4.41938e-06 0.096461)
(1.02142e-07 -1.04344e-05 0.0999049)
(5.85477e-07 7.28185e-06 0.0906236)
(-1.22355e-07 9.88582e-06 0.0998788)
(-1.21646e-06 -7.08496e-06 0.090656)
(-2.11548e-06 3.20192e-06 0.0778836)
(2.16965e-06 -3.185e-06 0.0779166)
(-1.05159e-05 9.34441e-08 0.0999037)
(7.25308e-06 5.53168e-07 0.0906227)
(9.96446e-06 -1.00405e-07 0.0998794)
(-7.05969e-06 -1.18907e-06 0.0906567)
(9.33038e-07 -9.2327e-07 0.104041)
(-9.29967e-07 9.3959e-07 0.104041)
(9.28399e-07 9.35168e-07 0.104041)
(-9.32277e-07 -9.13468e-07 0.10404)
(9.335e-07 -9.17775e-07 0.10404)
(-9.21804e-07 9.34737e-07 0.10404)
(9.2075e-07 9.27529e-07 0.10404)
(1.7401e-05 1.62978e-07 0.10301)
(-1.6545e-05 4.60087e-06 0.100447)
(-7.34281e-07 -2.31546e-07 0.103998)
(-5.81009e-07 9.43709e-07 0.103913)
(-1.74148e-05 -1.78079e-07 0.102997)
(1.5863e-05 -5.28863e-06 0.100487)
(-7.35856e-07 -2.30427e-07 0.103998)
(3.12918e-06 -2.08662e-06 0.0778809)
(-3.10243e-06 2.15742e-06 0.0779171)
(1.68657e-07 1.74159e-05 0.10301)
(-2.38257e-07 -7.24876e-07 0.103998)
(4.64381e-06 -1.66165e-05 0.100447)
(9.24573e-07 -5.71577e-07 0.103913)
(-1.80068e-07 -1.74317e-05 0.102996)
(-2.39166e-07 -7.22167e-07 0.103998)
(-5.32778e-06 1.59338e-05 0.100486)
(-4.84171e-06 -5.89431e-06 0.0964271)
(-5.88475e-06 -4.83532e-06 0.0964261)
(5.07464e-05 5.07688e-05 0.103749)
(4.42208e-06 5.76528e-06 0.0964627)
(5.7564e-06 4.41846e-06 0.0964611)
(6.97231e-08 -1.03866e-05 0.0999049)
(5.9068e-07 7.3093e-06 0.090624)
(-1.32405e-07 9.87346e-06 0.0998788)
(-1.14171e-06 -7.02443e-06 0.0906567)
(-2.18981e-06 3.33626e-06 0.0778853)
(2.08872e-06 -3.17215e-06 0.0779166)
(-1.04853e-05 8.27574e-08 0.0999037)
(7.26087e-06 5.40761e-07 0.0906232)
(9.94301e-06 -9.12262e-08 0.0998794)
(-7.0639e-06 -1.1987e-06 0.090657)
(9.3546e-07 -9.18328e-07 0.10404)
(-9.26848e-07 9.40157e-07 0.10404)
(9.25183e-07 9.32751e-07 0.10404)
(-9.17705e-07 -8.85588e-07 0.10404)
(8.82523e-07 -8.59543e-07 0.10404)
(-9.04645e-07 9.20487e-07 0.10404)
(9.04132e-07 9.12215e-07 0.10404)
(1.73701e-05 1.85153e-07 0.10301)
(-1.6534e-05 4.60629e-06 0.100447)
(-7.53968e-07 -2.22367e-07 0.103998)
(-5.54978e-07 9.29268e-07 0.103912)
(-1.74155e-05 -1.63507e-07 0.102996)
(1.58494e-05 -5.24816e-06 0.100487)
(-7.28985e-07 -2.2232e-07 0.103998)
(3.13993e-06 -2.0516e-06 0.0778817)
(-3.09733e-06 2.17457e-06 0.077918)
(1.65949e-07 1.73899e-05 0.10301)
(-2.38528e-07 -7.51382e-07 0.103998)
(4.62611e-06 -1.66052e-05 0.100447)
(9.0156e-07 -5.46597e-07 0.103912)
(-1.83226e-07 -1.74351e-05 0.102996)
(-2.42774e-07 -7.09557e-07 0.103998)
(-5.33807e-06 1.59344e-05 0.100486)
(-4.8269e-06 -5.86752e-06 0.0964272)
(-5.86552e-06 -4.81575e-06 0.0964262)
(5.07571e-05 5.07881e-05 0.103749)
(4.43571e-06 5.77592e-06 0.0964629)
(5.75714e-06 4.43838e-06 0.0964613)
(8.82003e-08 -1.02013e-05 0.099905)
(6.32837e-07 7.37638e-06 0.0906244)
(-1.18324e-07 9.9376e-06 0.0998789)
(-1.11266e-06 -6.84694e-06 0.090657)
(-2.2197e-06 3.32981e-06 0.0778848)
(2.36992e-06 -3.18628e-06 0.077915)
(-1.02771e-05 8.61791e-08 0.0999038)
(7.37884e-06 6.12603e-07 0.0906239)
(1.00018e-05 -6.53737e-08 0.0998795)
(-6.86359e-06 -1.14992e-06 0.090657)
(8.45869e-07 -8.29008e-07 0.10404)
(-8.64383e-07 8.78668e-07 0.10404)
(8.68765e-07 8.6918e-07 0.10404)
(-8.14309e-07 -8.27715e-07 0.104041)
(8.59355e-07 -8.61428e-07 0.104041)
(-8.19571e-07 8.31101e-07 0.104041)
(8.3089e-07 8.18049e-07 0.104041)
(1.70789e-05 1.94132e-07 0.10301)
(-1.66726e-05 4.71844e-06 0.100447)
(-8.75464e-07 -1.81302e-07 0.103998)
(-7.47721e-07 1.03621e-06 0.103913)
(-1.7519e-05 -1.40077e-07 0.102996)
(1.56278e-05 -5.1601e-06 0.100487)
(-9.36966e-07 -1.88274e-07 0.103998)
(3.21326e-06 -2.21434e-06 0.077882)
(-3.00912e-06 2.1446e-06 0.0779171)
(1.80768e-07 1.70977e-05 0.10301)
(-2.16464e-07 -8.53431e-07 0.103998)
(4.69607e-06 -1.67149e-05 0.100447)
(1.03566e-06 -7.37141e-07 0.103912)
(-1.68473e-07 -1.75189e-05 0.102996)
(-2.04509e-07 -9.27369e-07 0.103998)
(-5.22692e-06 1.57162e-05 0.100486)
(-4.90494e-06 -5.95122e-06 0.0964275)
(-5.94187e-06 -4.89609e-06 0.0964265)
(5.05822e-05 5.06084e-05 0.103749)
(4.26384e-06 5.69126e-06 0.096463)
(5.69339e-06 4.25385e-06 0.0964614)
(1.32305e-07 -1.02242e-05 0.0999045)
(6.89672e-07 7.5561e-06 0.0906231)
(-9.84479e-08 1.0224e-05 0.0998785)
(-1.16885e-06 -6.84571e-06 0.090656)
(-2.06233e-06 3.16251e-06 0.0778834)
(2.23e-06 -3.25766e-06 0.0779142)
(-1.02938e-05 6.6095e-08 0.0999034)
(7.58049e-06 5.98944e-07 0.0906234)
(1.03059e-05 -1.42136e-07 0.0998791)
(-6.91651e-06 -1.19963e-06 0.0906553)
(8.89901e-07 -8.9234e-07 0.104041)
(-8.51694e-07 8.61439e-07 0.104041)
(8.62556e-07 8.4935e-07 0.104041)
(-9.31699e-07 -9.31491e-07 0.104041)
(9.37819e-07 -9.30294e-07 0.104041)
(-9.2637e-07 9.34546e-07 0.104041)
(9.30106e-07 9.24212e-07 0.104041)
(1.72197e-05 1.29205e-07 0.10301)
(-1.68364e-05 4.69665e-06 0.100447)
(-8.55987e-07 -2.4308e-07 0.103999)
(-6.13417e-07 9.10409e-07 0.103913)
(-1.7778e-05 -1.9607e-07 0.102997)
(1.56929e-05 -5.19099e-06 0.100487)
(-8.05198e-07 -2.46828e-07 0.103999)
(3.21086e-06 -2.0518e-06 0.0778803)
(-3.05777e-06 2.173e-06 0.0779157)
(1.7115e-07 1.72241e-05 0.10301)
(-2.14453e-07 -8.69675e-07 0.103999)
(4.79419e-06 -1.69037e-05 0.100447)
(9.34186e-07 -6.24615e-07 0.103913)
(-1.70435e-07 -1.77999e-05 0.102997)
(-2.25657e-07 -8.0945e-07 0.103999)
(-5.19287e-06 1.57361e-05 0.100486)
(-5.02023e-06 -5.92624e-06 0.0964268)
(-5.90398e-06 -5.02423e-06 0.0964258)
(5.07246e-05 5.07353e-05 0.103749)
(4.31597e-06 5.73354e-06 0.0964621)
(5.73662e-06 4.30308e-06 0.0964606)
(9.00959e-08 -1.03685e-05 0.0999047)
(6.06031e-07 7.33212e-06 0.090622)
(-1.2284e-07 9.98525e-06 0.0998786)
(-1.18911e-06 -6.97658e-06 0.0906556)
(-2.18687e-06 3.28599e-06 0.0778831)
(2.20626e-06 -3.21208e-06 0.0779142)
(-1.04441e-05 8.54594e-08 0.0999036)
(7.40282e-06 5.97583e-07 0.0906225)
(1.0067e-05 -1.0689e-07 0.0998792)
(-7.02975e-06 -1.18875e-06 0.0906551)
(9.35376e-07 -9.30048e-07 0.104041)
(-9.29688e-07 9.36935e-07 0.104041)
(9.30656e-07 9.29422e-07 0.104041)
(-9.27292e-07 -9.17542e-07 0.104041)
(9.1999e-07 -9.17073e-07 0.104041)
(-9.17024e-07 9.24387e-07 0.104041)
(9.15581e-07 9.19704e-07 0.104041)
(1.7349e-05 1.59383e-07 0.10301)
(-1.66348e-05 4.64667e-06 0.100447)
(-7.57989e-07 -2.36406e-07 0.103999)
(-5.88654e-07 9.34238e-07 0.103913)
(-1.74954e-05 -1.84243e-07 0.102997)
(1.58155e-05 -5.2306e-06 0.100487)
(-7.59912e-07 -2.32629e-07 0.103999)
(3.17411e-06 -2.10443e-06 0.0778797)
(-3.07804e-06 2.1445e-06 0.0779154)
(1.64597e-07 1.73598e-05 0.10301)
(-2.39857e-07 -7.56962e-07 0.103999)