/*--------------------------------*- C++ -*----------------------------------*\
| =========                 |                                                 |
| \\      /  F ield         | OpenFOAM: The Open Source CFD Toolbox           |
|  \\    /   O peration     | Version:  2206                                  |
|   \\  /    A nd           | Website:  www.openfoam.com                      |
|    \\/     M anipulation  |                                                 |
\*---------------------------------------------------------------------------*/
FoamFile
{
    version     2.0;
    format      ascii;
    arch        "LSB;label=32;scalar=64";
    class       volScalarField;
    location    "35.5";
    object      p;
}
// * * * * * * * * * * * * * * * * * * * * * * * * * * * * * * * * * * * * * //

dimensions      [0 2 -2 0 0 0 0];

internalField   nonuniform List<scalar> 
171728
(
0.00388051
0.00388084
0.00388084
0.0038839
0.00382516
0.00382557
0.00382557
0.00382856
0.0037744
0.00377437
0.00377437
0.00377713
0.00372201
0.00372202
0.00372202
0.00372478
0.00367067
0.00367068
0.00367068
0.00367343
0.00362073
0.00362072
0.00362072
0.00362344
0.00357262
0.00357247
0.00357247
0.00357505
0.00352789
0.00352774
0.00352774
0.00353014
0.00348647
0.00348641
0.00348641
0.00348884
0.00344576
0.00344571
0.00344571
0.00344813
0.00340519
0.00340515
0.00340515
0.00340755
0.00336466
0.00336462
0.00336462
0.00336702
0.00332412
0.00332408
0.00332408
0.00332648
0.00328358
0.00328355
0.00328354
0.00328595
0.00324305
0.00324301
0.00324301
0.00324541
0.00320251
0.00320247
0.00320247
0.00320487
0.00316197
0.00316193
0.00316193
0.00316434
0.00312144
0.0031214
0.0031214
0.0031238
0.0030809
0.00308086
0.00308086
0.00308326
0.00304036
0.00304032
0.00304032
0.00304273
0.00299983
0.00299979
0.00299979
0.00300219
0.00295929
0.00295925
0.00295925
0.00296165
0.00291876
0.00291872
0.00291872
0.00292112
0.00287822
0.00287818
0.00287818
0.00288058
0.00283768
0.00283764
0.00283764
0.00284005
0.00279715
0.00279711
0.00279711
0.00279951
0.00275661
0.00275657
0.00275657
0.00275897
0.00271608
0.00271604
0.00271604
0.00271844
0.00267554
0.0026755
0.0026755
0.00267791
0.00263501
0.00263497
0.00263497
0.00263737
0.00259447
0.00259443
0.00259443
0.00259684
0.00255394
0.0025539
0.0025539
0.0025563
0.0025134
0.00251336
0.00251336
0.00251576
0.00247286
0.00247282
0.00247282
0.00247522
0.00243232
0.00243228
0.00243228
0.00243469
0.00239179
0.00239175
0.00239175
0.00239415
0.00235125
0.00235121
0.00235121
0.00235361
0.00231072
0.00231068
0.00231068
0.00231308
0.00227018
0.00227014
0.00227014
0.00227254
0.00222964
0.0022296
0.0022296
0.00223201
0.00218911
0.00218907
0.00218907
0.00219147
0.00214857
0.00214853
0.00214853
0.00215093
0.00210803
0.00210799
0.002108
0.0021104
0.0020675
0.00206746
0.00206746
0.00206986
0.00202696
0.00202692
0.00202692
0.00202932
0.00198641
0.00198637
0.00198637
0.00198877
0.00194587
0.00194583
0.00194583
0.00194823
0.00190532
0.00190528
0.00190528
0.00190769
0.00186478
0.00186474
0.00186474
0.00186714
0.00182424
0.0018242
0.0018242
0.0018266
0.0017837
0.00178366
0.00178366
0.00178606
0.00174316
0.00174312
0.00174312
0.00174552
0.00170262
0.00170258
0.00170258
0.00170498
0.00166207
0.00166203
0.00166203
0.00166444
0.00162153
0.00162149
0.00162149
0.00162389
0.00158099
0.00158095
0.00158095
0.00158335
0.00154044
0.0015404
0.0015404
0.0015428
0.0014999
0.00149986
0.00149986
0.00150226
0.00145935
0.00145931
0.00145931
0.00146172
0.00141881
0.00141877
0.00141877
0.00142117
0.00137827
0.00137823
0.00137823
0.00138063
0.00133772
0.00133768
0.00133768
0.00134008
0.00129718
0.00129714
0.00129714
0.00129954
0.00125663
0.00125659
0.00125659
0.00125899
0.00121609
0.00121605
0.00121605
0.00121845
0.00117554
0.0011755
0.0011755
0.00117791
0.001135
0.00113496
0.00113496
0.00113736
0.00109446
0.00109442
0.00109442
0.00109682
0.00105391
0.00105387
0.00105387
0.00105627
0.00101337
0.00101333
0.00101333
0.00101573
0.000972824
0.000972784
0.000972785
0.000975187
0.000932281
0.000932242
0.000932242
0.000934644
0.000891739
0.000891699
0.000891699
0.000894102
0.000851198
0.000851158
0.000851158
0.000853561
0.000810658
0.000810618
0.000810618
0.00081302
0.00077012
0.00077008
0.00077008
0.000772483
0.000729584
0.000729545
0.000729544
0.000731946
0.00068905
0.00068901
0.00068901
0.000691412
0.000648517
0.000648477
0.000648477
0.000650879
0.000607987
0.000607947
0.000607947
0.000610349
0.000567459
0.000567419
0.000567419
0.000569821
0.000526932
0.000526893
0.000526893
0.000529294
0.000486406
0.000486367
0.000486367
0.000488768
0.000445878
0.000445838
0.000445838
0.00044824
0.000405347
0.000405308
0.000405308
0.00040771
0.000364816
0.000364777
0.000364777
0.000367179
0.000324283
0.000324245
0.000324245
0.000326646
0.000283749
0.000283705
0.000283705
0.000286106
0.00024322
0.000243187
0.000243186
0.000245584
0.000202679
0.000202634
0.000202634
0.000205032
0.000162139
0.000162103
0.000162103
0.000164492
0.000121589
0.000121558
0.000121558
0.000123935
8.10432e-05
8.0999e-05
8.09978e-05
8.33461e-05
4.11807e-05
4.06304e-05
4.06277e-05
4.28405e-05
8.45694e-06
8.59858e-06
8.59618e-06
8.14254e-06
0.00389392
0.00389414
0.00389414
0.00389392
0.00389415
0.00389415
0.00389491
0.00389491
0.00389491
0.00389491
0.00389415
0.00389415
0.00389392
0.00389415
0.00389415
0.00389392
0.0038839
0.00383514
0.00388084
0.00388084
0.00383741
0.00383741
0.0038839
0.00383514
0.00388084
0.00388084
0.00383741
0.00383741
0.00388084
0.00383741
0.00383741
0.0038839
0.00383514
0.00388084
0.00383741
0.00383741
0.00383514
0.00382856
0.00378405
0.00382558
0.00382558
0.0037875
0.0037875
0.00382856
0.00378406
0.00382557
0.00382558
0.0037875
0.0037875
0.00382558
0.0037875
0.0037875
0.00382856
0.00378405
0.00382557
0.0037875
0.0037875
0.00378406
0.00377713
0.00373167
0.00377438
0.00377438
0.00373504
0.00373504
0.00377713
0.00373167
0.00377437
0.00377438
0.00373504
0.00373504
0.00377437
0.00373504
0.00373504
0.00377713
0.00373167
0.00377437
0.00373504
0.00373504
0.00373167
0.00372479
0.00368014
0.00372202
0.00372202
0.00368341
0.00368341
0.00372478
0.00368014
0.00372202
0.00372202
0.00368341
0.00368341
0.00372202
0.00368341
0.00368341
0.00372478
0.00368014
0.00372202
0.00368341
0.00368341
0.00368014
0.00367343
0.00362994
0.00367068
0.00367068
0.00363305
0.00363305
0.00367343
0.00362994
0.00367068
0.00367068
0.00363305
0.00363305
0.00367068
0.00363305
0.00363305
0.00367343
0.00362994
0.00367068
0.00363305
0.00363305
0.00362994
0.00362344
0.00358128
0.00362072
0.00362072
0.00358426
0.00358426
0.00362344
0.00358128
0.00362072
0.00362072
0.00358426
0.00358426
0.00362072
0.00358426
0.00358426
0.00362344
0.00358128
0.00362072
0.00358426
0.00358426
0.00358128
0.00357505
0.00353575
0.00357247
0.00357247
0.00353852
0.00353852
0.00357505
0.00353575
0.00357247
0.00357247
0.00353852
0.00353852
0.00357247
0.00353852
0.00353852
0.00357505
0.00353575
0.00357247
0.00353852
0.00353852
0.00353575
0.00353014
0.00349421
0.00352774
0.00352774
0.00349661
0.00349661
0.00353014
0.00349421
0.00352774
0.00352774
0.00349661
0.00349661
0.00352774
0.00349661
0.00349661
0.00353014
0.00349421
0.00352774
0.00349661
0.00349661
0.00349421
0.00348884
0.00345347
0.00348641
0.00348641
0.00345587
0.00345587
0.00348884
0.00345347
0.00348641
0.00348641
0.00345587
0.00345587
0.00348641
0.00345587
0.00345587
0.00348884
0.00345347
0.00348641
0.00345587
0.00345587
0.00345347
0.00344813
0.00341289
0.00344571
0.00344571
0.00341529
0.00341529
0.00344813
0.00341289
0.00344571
0.00344571
0.00341529
0.00341529
0.00344571
0.00341529
0.00341529
0.00344813
0.00341289
0.00344571
0.00341529
0.00341529
0.00341289
0.00340755
0.00337235
0.00340515
0.00340515
0.00337475
0.00337475
0.00340755
0.00337235
0.00340515
0.00340515
0.00337475
0.00337475
0.00340515
0.00337475
0.00337475
0.00340755
0.00337235
0.00340515
0.00337475
0.00337475
0.00337235
0.00336702
0.00333182
0.00336462
0.00336462
0.00333421
0.00333421
0.00336702
0.00333182
0.00336462
0.00336462
0.00333421
0.00333421
0.00336462
0.00333421
0.00333421
0.00336702
0.00333182
0.00336462
0.00333421
0.00333421
0.00333182
0.00332648
0.00329128
0.00332408
0.00332408
0.00329368
0.00329368
0.00332648
0.00329129
0.00332408
0.00332408
0.00329368
0.00329368
0.00332408
0.00329368
0.00329368
0.00332648
0.00329128
0.00332408
0.00329368
0.00329368
0.00329128
0.00328595
0.00325075
0.00328355
0.00328355
0.00325314
0.00325314
0.00328595
0.00325075
0.00328354
0.00328354
0.00325314
0.00325314
0.00328355
0.00325314
0.00325314
0.00328595
0.00325075
0.00328355
0.00325314
0.00325314
0.00325075
0.00324541
0.00321021
0.00324301
0.00324301
0.00321261
0.00321261
0.00324541
0.00321021
0.00324301
0.00324301
0.00321261
0.00321261
0.00324301
0.00321261
0.00321261
0.00324541
0.00321021
0.00324301
0.00321261
0.00321261
0.00321021
0.00320487
0.00316967
0.00320247
0.00320247
0.00317207
0.00317207
0.00320487
0.00316967
0.00320247
0.00320247
0.00317207
0.00317207
0.00320247
0.00317207
0.00317207
0.00320487
0.00316967
0.00320247
0.00317207
0.00317207
0.00316967
0.00316434
0.00312914
0.00316193
0.00316193
0.00313153
0.00313153
0.00316434
0.00312914
0.00316193
0.00316193
0.00313153
0.00313153
0.00316193
0.00313153
0.00313153
0.00316434
0.00312914
0.00316193
0.00313153
0.00313153
0.00312914
0.0031238
0.0030886
0.0031214
0.0031214
0.00309099
0.00309099
0.0031238
0.0030886
0.0031214
0.0031214
0.00309099
0.00309099
0.0031214
0.00309099
0.00309099
0.0031238
0.0030886
0.0031214
0.00309099
0.00309099
0.0030886
0.00308326
0.00304806
0.00308086
0.00308086
0.00305046
0.00305046
0.00308326
0.00304806
0.00308086
0.00308086
0.00305046
0.00305046
0.00308086
0.00305046
0.00305046
0.00308326
0.00304806
0.00308086
0.00305046
0.00305046
0.00304806
0.00304272
0.00300753
0.00304032
0.00304032
0.00300992
0.00300992
0.00304272
0.00300753
0.00304032
0.00304032
0.00300992
0.00300992
0.00304032
0.00300992
0.00300992
0.00304273
0.00300753
0.00304032
0.00300992
0.00300992
0.00300753
0.00300219
0.00296699
0.00299979
0.00299979
0.00296938
0.00296938
0.00300219
0.00296699
0.00299979
0.00299979
0.00296938
0.00296938
0.00299979
0.00296938
0.00296939
0.00300219
0.00296699
0.00299979
0.00296938
0.00296938
0.00296699
0.00296165
0.00292646
0.00295925
0.00295925
0.00292885
0.00292885
0.00296165
0.00292646
0.00295925
0.00295925
0.00292885
0.00292885
0.00295925
0.00292885
0.00292885
0.00296165
0.00292645
0.00295925
0.00292885
0.00292885
0.00292645
0.00292112
0.00288592
0.00291872
0.00291872
0.00288831
0.00288831
0.00292112
0.00288592
0.00291872
0.00291872
0.00288831
0.00288831
0.00291872
0.00288831
0.00288831
0.00292112
0.00288592
0.00291872
0.00288831
0.00288831
0.00288592
0.00288058
0.00284538
0.00287818
0.00287818
0.00284778
0.00284778
0.00288058
0.00284538
0.00287818
0.00287818
0.00284778
0.00284778
0.00287818
0.00284778
0.00284778
0.00288058
0.00284538
0.00287818
0.00284778
0.00284778
0.00284538
0.00284005
0.00280485
0.00283764
0.00283764
0.00280724
0.00280724
0.00284005
0.00280485
0.00283764
0.00283764
0.00280724
0.00280724
0.00283764
0.00280724
0.00280724
0.00284005
0.00280485
0.00283764
0.00280724
0.00280724
0.00280485
0.00279951
0.00276431
0.00279711
0.00279711
0.0027667
0.0027667
0.00279951
0.00276431
0.00279711
0.00279711
0.0027667
0.0027667
0.00279711
0.0027667
0.00276671
0.00279951
0.00276431
0.00279711
0.0027667
0.00276671
0.00276431
0.00275897
0.00272378
0.00275657
0.00275657
0.00272617
0.00272617
0.00275897
0.00272378
0.00275657
0.00275657
0.00272617
0.00272617
0.00275657
0.00272617
0.00272617
0.00275897
0.00272378
0.00275657
0.00272617
0.00272617
0.00272378
0.00271844
0.00268324
0.00271604
0.00271604
0.00268564
0.00268564
0.00271844
0.00268324
0.00271604
0.00271604
0.00268564
0.00268564
0.00271604
0.00268564
0.00268564
0.00271844
0.00268324
0.00271604
0.00268564
0.00268564
0.00268324
0.00267791
0.00264271
0.0026755
0.0026755
0.0026451
0.0026451
0.00267791
0.00264271
0.0026755
0.0026755
0.0026451
0.0026451
0.0026755
0.0026451
0.0026451
0.00267791
0.00264271
0.0026755
0.0026451
0.0026451
0.00264271
0.00263737
0.00260217
0.00263497
0.00263497
0.00260457
0.00260457
0.00263737
0.00260217
0.00263497
0.00263497
0.00260457
0.00260457
0.00263497
0.00260457
0.00260457
0.00263737
0.00260217
0.00263497
0.00260457
0.00260457
0.00260217
0.00259684
0.00256164
0.00259443
0.00259443
0.00256403
0.00256403
0.00259684
0.00256164
0.00259443
0.00259443
0.00256403
0.00256403
0.00259443
0.00256403
0.00256403
0.00259684
0.00256164
0.00259443
0.00256403
0.00256403
0.00256164
0.0025563
0.0025211
0.0025539
0.0025539
0.00252349
0.00252349
0.0025563
0.0025211
0.0025539
0.0025539
0.00252349
0.00252349
0.0025539
0.00252349
0.00252349
0.0025563
0.0025211
0.0025539
0.00252349
0.00252349
0.0025211
0.00251576
0.00248056
0.00251336
0.00251336
0.00248296
0.00248296
0.00251576
0.00248056
0.00251336
0.00251336
0.00248296
0.00248296
0.00251336
0.00248296
0.00248296
0.00251576
0.00248056
0.00251336
0.00248296
0.00248296
0.00248056
0.00247522
0.00244002
0.00247282
0.00247282
0.00244242
0.00244242
0.00247522
0.00244002
0.00247282
0.00247282
0.00244242
0.00244242
0.00247282
0.00244242
0.00244242
0.00247522
0.00244002
0.00247282
0.00244242
0.00244242
0.00244002
0.00243469
0.00239949
0.00243228
0.00243228
0.00240188
0.00240188
0.00243469
0.00239949
0.00243228
0.00243228
0.00240188
0.00240188
0.00243228
0.00240188
0.00240188
0.00243469
0.00239949
0.00243228
0.00240188
0.00240188
0.00239949
0.00239415
0.00235895
0.00239175
0.00239175
0.00236135
0.00236135
0.00239415
0.00235895
0.00239175
0.00239175
0.00236135
0.00236135
0.00239175
0.00236135
0.00236135
0.00239415
0.00235895
0.00239175
0.00236135
0.00236135
0.00235895
0.00235361
0.00231842
0.00235121
0.00235121
0.00232081
0.00232081
0.00235361
0.00231842
0.00235121
0.00235121
0.00232081
0.00232081
0.00235121
0.00232081
0.00232081
0.00235361
0.00231842
0.00235121
0.00232081
0.00232081
0.00231842
0.00231308
0.00227788
0.00231068
0.00231068
0.00228027
0.00228027
0.00231308
0.00227788
0.00231068
0.00231068
0.00228027
0.00228027
0.00231068
0.00228027
0.00228027
0.00231308
0.00227788
0.00231068
0.00228027
0.00228027
0.00227788
0.00227254
0.00223734
0.00227014
0.00227014
0.00223974
0.00223974
0.00227254
0.00223734
0.00227014
0.00227014
0.00223974
0.00223974
0.00227014
0.00223974
0.00223974
0.00227254
0.00223734
0.00227014
0.00223974
0.00223974
0.00223734
0.00223201
0.00219681
0.0022296
0.0022296
0.0021992
0.0021992
0.00223201
0.00219681
0.0022296
0.0022296
0.0021992
0.0021992
0.0022296
0.0021992
0.0021992
0.00223201
0.00219681
0.0022296
0.0021992
0.0021992
0.00219681
0.00219147
0.00215627
0.00218907
0.00218907
0.00215866
0.00215867
0.00219147
0.00215627
0.00218907
0.00218907
0.00215866
0.00215866
0.00218907
0.00215866
0.00215866
0.00219147
0.00215627
0.00218907
0.00215866
0.00215866
0.00215627
0.00215093
0.00211574
0.00214853
0.00214853
0.00211813
0.00211813
0.00215093
0.00211573
0.00214853
0.00214853
0.00211813
0.00211813
0.00214853
0.00211813
0.00211813
0.00215093
0.00211573
0.00214853
0.00211813
0.00211813
0.00211573
0.0021104
0.0020752
0.002108
0.00210799
0.00207759
0.00207759
0.0021104
0.0020752
0.002108
0.002108
0.00207759
0.00207759
0.002108
0.00207759
0.00207759
0.0021104
0.0020752
0.002108
0.00207759
0.00207759
0.0020752
0.00206986
0.00203466
0.00206746
0.00206746
0.00203705
0.00203705
0.00206986
0.00203466
0.00206746
0.00206746
0.00203705
0.00203705
0.00206746
0.00203705
0.00203705
0.00206986
0.00203466
0.00206746
0.00203705
0.00203705
0.00203466
0.00202932
0.00199411
0.00202692
0.00202692
0.00199651
0.00199651
0.00202932
0.00199411
0.00202692
0.00202692
0.00199651
0.00199651
0.00202692
0.00199651
0.00199651
0.00202932
0.00199411
0.00202692
0.00199651
0.00199651
0.00199411
0.00198877
0.00195357
0.00198637
0.00198637
0.00195596
0.00195596
0.00198877
0.00195357
0.00198637
0.00198637
0.00195596
0.00195596
0.00198637
0.00195596
0.00195596
0.00198877
0.00195357
0.00198637
0.00195596
0.00195596
0.00195357
0.00194823
0.00191303
0.00194583
0.00194583
0.00191542
0.00191542
0.00194823
0.00191303
0.00194583
0.00194583
0.00191542
0.00191542
0.00194583
0.00191542
0.00191542
0.00194823
0.00191303
0.00194583
0.00191542
0.00191542
0.00191303
0.00190769
0.00187248
0.00190528
0.00190528
0.00187488
0.00187488
0.00190769
0.00187248
0.00190528
0.00190528
0.00187488
0.00187488
0.00190528
0.00187488
0.00187488
0.00190769
0.00187248
0.00190528
0.00187488
0.00187488
0.00187248
0.00186714
0.00183194
0.00186474
0.00186474
0.00183434
0.00183434
0.00186714
0.00183194
0.00186474
0.00186474
0.00183434
0.00183434
0.00186474
0.00183434
0.00183434
0.00186714
0.00183194
0.00186474
0.00183434
0.00183434
0.00183194
0.0018266
0.0017914
0.0018242
0.0018242
0.0017938
0.00179379
0.0018266
0.0017914
0.0018242
0.0018242
0.00179379
0.0017938
0.0018242
0.00179379
0.0017938
0.0018266
0.0017914
0.0018242
0.0017938
0.0017938
0.0017914
0.00178606
0.00175086
0.00178366
0.00178366
0.00175325
0.00175325
0.00178606
0.00175086
0.00178366
0.00178366
0.00175325
0.00175325
0.00178366
0.00175325
0.00175325
0.00178606
0.00175086
0.00178366
0.00175325
0.00175325
0.00175086
0.00174552
0.00171032
0.00174312
0.00174312
0.00171271
0.00171271
0.00174552
0.00171032
0.00174312
0.00174312
0.00171271
0.00171271
0.00174312
0.00171271
0.00171271
0.00174552
0.00171032
0.00174312
0.00171271
0.00171271
0.00171032
0.00170498
0.00166978
0.00170258
0.00170258
0.00167217
0.00167217
0.00170498
0.00166978
0.00170258
0.00170258
0.00167217
0.00167217
0.00170258
0.00167217
0.00167217
0.00170498
0.00166978
0.00170258
0.00167217
0.00167217
0.00166977
0.00166444
0.00162923
0.00166203
0.00166203
0.00163163
0.00163163
0.00166444
0.00162923
0.00166203
0.00166203
0.00163163
0.00163163
0.00166203
0.00163163
0.00163163
0.00166444
0.00162923
0.00166203
0.00163163
0.00163163
0.00162923
0.00162389
0.00158869
0.00162149
0.00162149
0.00159108
0.00159108
0.00162389
0.00158869
0.00162149
0.00162149
0.00159108
0.00159108
0.00162149
0.00159108
0.00159108
0.00162389
0.00158869
0.00162149
0.00159108
0.00159108
0.00158869
0.00158335
0.00154814
0.00158095
0.00158095
0.00155054
0.00155054
0.00158335
0.00154814
0.00158095
0.00158095
0.00155054
0.00155054
0.00158095
0.00155054
0.00155054
0.00158335
0.00154814
0.00158095
0.00155054
0.00155054
0.00154814
0.0015428
0.0015076
0.0015404
0.0015404
0.00150999
0.00150999
0.0015428
0.0015076
0.0015404
0.0015404
0.00150999
0.00150999
0.0015404
0.00150999
0.00150999
0.0015428
0.0015076
0.0015404
0.00150999
0.00150999
0.0015076
0.00150226
0.00146705
0.00149986
0.00149986
0.00146945
0.00146945
0.00150226
0.00146705
0.00149986
0.00149986
0.00146945
0.00146945
0.00149986
0.00146945
0.00146945
0.00150226
0.00146705
0.00149986
0.00146945
0.00146945
0.00146705
0.00146171
0.00142651
0.00145931
0.00145931
0.0014289
0.0014289
0.00146171
0.00142651
0.00145931
0.00145931
0.0014289
0.0014289
0.00145931
0.0014289
0.0014289
0.00146172
0.00142651
0.00145931
0.0014289
0.0014289
0.00142651
0.00142117
0.00138597
0.00141877
0.00141877
0.00138836
0.00138836
0.00142117
0.00138597
0.00141877
0.00141877
0.00138836
0.00138836
0.00141877
0.00138836
0.00138836
0.00142117
0.00138597
0.00141877
0.00138836
0.00138836
0.00138597
0.00138063
0.00134542
0.00137823
0.00137823
0.00134782
0.00134782
0.00138063
0.00134542
0.00137823
0.00137823
0.00134782
0.00134782
0.00137823
0.00134782
0.00134782
0.00138063
0.00134542
0.00137823
0.00134782
0.00134782
0.00134542
0.00134008
0.00130488
0.00133768
0.00133768
0.00130727
0.00130727
0.00134008
0.00130488
0.00133768
0.00133768
0.00130727
0.00130727
0.00133768
0.00130727
0.00130727
0.00134008
0.00130488
0.00133768
0.00130727
0.00130727
0.00130488
0.00129954
0.00126433
0.00129714
0.00129714
0.00126673
0.00126673
0.00129954
0.00126433
0.00129714
0.00129714
0.00126673
0.00126673
0.00129714
0.00126673
0.00126673
0.00129954
0.00126433
0.00129714
0.00126673
0.00126673
0.00126433
0.00125899
0.00122379
0.00125659
0.00125659
0.00122618
0.00122618
0.00125899
0.00122379
0.00125659
0.00125659
0.00122618
0.00122618
0.00125659
0.00122618
0.00122618
0.00125899
0.00122379
0.00125659
0.00122618
0.00122618
0.00122379
0.00121845
0.00118324
0.00121605
0.00121605
0.00118564
0.00118564
0.00121845
0.00118324
0.00121605
0.00121605
0.00118564
0.00118564
0.00121605
0.00118564
0.00118564
0.00121845
0.00118324
0.00121605
0.00118564
0.00118564
0.00118324
0.00117791
0.0011427
0.0011755
0.0011755
0.0011451
0.0011451
0.00117791
0.0011427
0.0011755
0.0011755
0.0011451
0.0011451
0.0011755
0.0011451
0.0011451
0.00117791
0.0011427
0.0011755
0.0011451
0.0011451
0.0011427
0.00113736
0.00110216
0.00113496
0.00113496
0.00110455
0.00110455
0.00113736
0.00110216
0.00113496
0.00113496
0.00110455
0.00110455
0.00113496
0.00110455
0.00110455
0.00113736
0.00110216
0.00113496
0.00110455
0.00110455
0.00110216
0.00109682
0.00106161
0.00109442
0.00109442
0.00106401
0.00106401
0.00109682
0.00106161
0.00109442
0.00109442
0.00106401
0.00106401
0.00109442
0.00106401
0.00106401
0.00109682
0.00106161
0.00109442
0.00106401
0.00106401
0.00106161
0.00105627
0.00102107
0.00105387
0.00105387
0.00102346
0.00102346
0.00105627
0.00102107
0.00105387
0.00105387
0.00102346
0.00102346
0.00105387
0.00102346
0.00102346
0.00105627
0.00102107
0.00105387
0.00102346
0.00102346
0.00102107
0.00101573
0.000980526
0.00101333
0.00101333
0.00098292
0.00098292
0.00101573
0.000980526
0.00101333
0.00101333
0.00098292
0.000982921
0.00101333
0.00098292
0.00098292
0.00101573
0.000980526
0.00101333
0.000982921
0.000982921
0.000980526
0.000975187
0.000939983
0.000972785
0.000972784
0.000942377
0.000942377
0.000975187
0.000939983
0.000972785
0.000972785
0.000942377
0.000942377
0.000972785
0.000942377
0.000942378
0.000975187
0.000939983
0.000972785
0.000942377
0.000942377
0.000939983
0.000934644
0.00089944
0.000932242
0.000932241
0.000901835
0.000901835
0.000934644
0.00089944
0.000932242
0.000932242
0.000901835
0.000901835
0.000932242
0.000901835
0.000901835
0.000934644
0.00089944
0.000932242
0.000901835
0.000901835
0.00089944
0.000894102
0.000858899
0.000891699
0.000891699
0.000861293
0.000861293
0.000894102
0.000858899
0.000891699
0.000891699
0.000861293
0.000861293
0.000891699
0.000861293
0.000861294
0.000894102
0.000858898
0.000891699
0.000861293
0.000861293
0.000858899
0.00085356
0.000818358
0.000851158
0.000851158
0.000820753
0.000820753
0.00085356
0.000818359
0.000851158
0.000851158
0.000820752
0.000820753
0.000851158
0.000820753
0.000820753
0.00085356
0.000818358
0.000851158
0.000820753
0.000820752
0.000818358
0.00081302
0.00077782
0.000810618
0.000810618
0.000780215
0.000780214
0.00081302
0.00077782
0.000810618
0.000810618
0.000780215
0.000780214
0.000810618
0.000780214
0.000780215
0.00081302
0.00077782
0.000810618
0.000780214
0.000780215
0.00077782
0.000772483
0.000737284
0.000770081
0.00077008
0.000739678
0.000739678
0.000772482
0.000737284
0.00077008
0.00077008
0.000739678
0.000739678
0.000770081
0.000739678
0.000739678
0.000772482
0.000737284
0.00077008
0.000739678
0.000739678
0.000737283
0.000731946
0.000696749
0.000729544
0.000729545
0.000699143
0.000699143
0.000731947
0.000696749
0.000729544
0.000729544
0.000699143
0.000699143
0.000729544
0.000699143
0.000699144
0.000731947
0.000696749
0.000729544
0.000699143
0.000699143
0.000696749
0.000691412
0.000656216
0.00068901
0.00068901
0.00065861
0.00065861
0.000691411
0.000656216
0.00068901
0.00068901
0.00065861
0.00065861
0.00068901
0.00065861
0.000658611
0.000691411
0.000656216
0.00068901
0.00065861
0.00065861
0.000656216
0.000650879
0.000615685
0.000648477
0.000648477
0.000618079
0.000618079
0.000650879
0.000615685
0.000648477
0.000648477
0.000618079
0.000618079
0.000648478
0.000618079
0.000618079
0.000650879
0.000615685
0.000648477
0.000618079
0.000618079
0.000615685
0.000610349
0.000575157
0.000607947
0.000607947
0.000577551
0.000577551
0.000610349
0.000575157
0.000607947
0.000607947
0.000577551
0.000577551
0.000607947
0.000577551
0.000577551
0.000610349
0.000575157
0.000607947
0.000577551
0.000577551
0.000575157
0.000569821
0.00053463
0.00056742
0.000567419
0.000537024
0.000537024
0.000569821
0.00053463
0.000567419
0.000567419
0.000537024
0.000537024
0.00056742
0.000537024
0.000537024
0.000569821
0.00053463
0.000567419
0.000537024
0.000537024
0.00053463
0.000529294
0.000494104
0.000526893
0.000526893
0.000496498
0.000496498
0.000529294
0.000494105
0.000526893
0.000526893
0.000496498
0.000496498
0.000526893
0.000496498
0.000496498
0.000529294
0.000494105
0.000526893
0.000496498
0.000496498
0.000494104
0.000488768
0.000453576
0.000486367
0.000486366
0.00045597
0.00045597
0.000488768
0.000453576
0.000486366
0.000486367
0.00045597
0.00045597
0.000486367
0.00045597
0.000455971
0.000488769
0.000453576
0.000486366
0.00045597
0.00045597
0.000453577
0.00044824
0.000413046
0.000445838
0.000445838
0.00041544
0.00041544
0.000448239
0.000413046
0.000445838
0.000445838
0.00041544
0.00041544
0.000445838
0.00041544
0.000415441
0.00044824
0.000413046
0.000445838
0.00041544
0.00041544
0.000413046
0.00040771
0.000372515
0.000405308
0.000405308
0.00037491
0.000374909
0.00040771
0.000372516
0.000405308
0.000405308
0.000374909
0.000374909
0.000405308
0.000374909
0.00037491
0.00040771
0.000372515
0.000405308
0.000374909
0.000374909
0.000372515
0.000367179
0.000331983
0.000364777
0.000364777
0.000334378
0.000334378
0.000367179
0.000331983
0.000364777
0.000364777
0.000334377
0.000334377
0.000364777
0.000334378
0.000334378
0.000367178
0.000331983
0.000364777
0.000334377
0.000334378
0.000331983
0.000326646
0.000291448
0.000324245
0.000324245
0.00029384
0.00029384
0.000326646
0.000291448
0.000324245
0.000324245
0.00029384
0.00029384
0.000324245
0.00029384
0.00029384
0.000326646
0.000291447
0.000324245
0.00029384
0.00029384
0.000291448
0.000286106
0.000250921
0.000283705
0.000283705
0.000253317
0.000253317
0.000286106
0.000250921
0.000283705
0.000283705
0.000253317
0.000253317
0.000283705
0.000253317
0.000253318
0.000286106
0.000250921
0.000283705
0.000253317
0.000253317
0.000250921
0.000245584
0.000210383
0.000243186
0.000243187
0.000212772
0.000212772
0.000245584
0.000210383
0.000243186
0.000243186
0.000212772
0.000212772
0.000243187
0.000212772
0.000212773
0.000245584
0.000210382
0.000243186
0.000212772
0.000212772
0.000210383
0.000205031
0.000169851
0.000202634
0.000202634
0.000172245
0.000172245
0.000205031
0.00016985
0.000202634
0.000202634
0.000172245
0.000172245
0.000202635
0.000172245
0.000172245
0.000205032
0.00016985
0.000202634
0.000172245
0.000172245
0.000169851
0.000164491
0.00012931
0.000162103
0.000162103
0.000131699
0.000131699
0.000164491
0.00012931
0.000162103
0.000162103
0.000131699
0.000131699
0.000162103
0.000131699
0.000131699
0.000164491
0.00012931
0.000162103
0.000131699
0.0001317
0.00012931
0.000123935
8.87608e-05
0.000121558
0.000121558
9.11461e-05
9.11463e-05
0.000123935
8.87613e-05
0.000121558
0.000121558
9.11458e-05
9.11456e-05
0.000121558
9.11461e-05
9.11456e-05
0.000123935
8.87601e-05
0.000121558
9.11454e-05
9.11453e-05
8.87601e-05
8.33473e-05
4.82481e-05
8.0999e-05
8.09991e-05
5.06369e-05
5.06371e-05
8.33471e-05
4.82488e-05
8.09983e-05
8.09979e-05
5.0635e-05
5.06343e-05
8.09982e-05
5.06357e-05
5.0634e-05
8.33469e-05
4.82454e-05
8.09978e-05
5.06335e-05
5.06328e-05
4.82452e-05
4.28443e-05
1.16198e-05
4.06325e-05
4.06324e-05
1.37728e-05
1.37723e-05
4.28443e-05
1.16198e-05
4.06306e-05
4.06291e-05
1.3771e-05
1.37672e-05
4.06283e-05
1.37699e-05
1.37657e-05
4.28409e-05
1.16151e-05
4.0627e-05
1.37675e-05
1.37672e-05
1.16144e-05
8.14624e-06
8.59977e-06
8.60005e-06
8.14723e-06
8.59821e-06
8.5954e-06
8.45681e-06
8.45457e-06
8.45439e-06
8.59487e-06
8.14295e-06
8.5956e-06
0.00390229
0.00391205
0.00390685
0.00390686
0.00392923
0.00391602
0.00394462
0.00391006
0.00392923
0.00391602
0.00391007
0.00394462
0.00392059
0.00394835
0.00394836
0.00385765
0.0038768
0.00388599
0.00384973
0.00385049
0.00385324
0.00385763
0.00387678
0.00388598
0.00384971
0.00388051
0.00388051
0.00388051
0.00383711
0.00383711
0.0038371
0.0038371
0.00385516
0.00388098
0.00388091
0.00386398
0.003884
0.00385406
0.00386486
0.00385059
0.00385324
0.00385516
0.00388091
0.003881
0.00386398
0.003884
0.00386486
0.00385405
0.00388686
0.00388684
0.00385838
0.00385369
0.00385369
0.00381101
0.00383031
0.00383167
0.00380953
0.00382921
0.00380911
0.003811
0.0038303
0.00383166
0.00380953
0.00382516
0.00382515
0.00382515
0.00378757
0.00378757
0.00378756
0.00378757
0.0038096
0.00383038
0.00382515
0.00381329
0.00382917
0.00381014
0.00381302
0.00382921
0.0038091
0.0038096
0.00382515
0.00383038
0.00381328
0.00382916
0.00381301
0.00381013
0.0038314
0.0038314
0.00380983
0.00381046
0.00381046
0.00375877
0.00377759
0.00377865
0.00375775
0.00377724
0.00375746
0.00375877
0.00377759
0.00377865
0.00375775
0.0037744
0.0037744
0.0037744
0.00373502
0.00373502
0.00373502
0.00373502
0.00375787
0.00377798
0.00377428
0.00376123
0.00377741
0.00375823
0.00376114
0.00377724
0.00375745
0.00375787
0.00377428
0.00377797
0.00376123
0.00377741
0.00376114
0.00375823
0.00377822
0.00377822
0.00375786
0.0037583
0.0037583
0.00370627
0.00372489
0.00372572
0.00370547
0.00372469
0.0037053
0.00370627
0.00372489
0.00372572
0.00370547
0.00372201
0.00372201
0.00372201
0.0036834
0.0036834
0.0036834
0.0036834
0.00370574
0.00372529
0.00372197
0.00370907
0.00372499
0.00370592
0.00370903
0.00372469
0.00370529
0.00370574
0.00372197
0.00372529
0.00370907
0.00372499
0.00370903
0.00370592
0.00372533
0.00372533
0.00370577
0.00370586
0.00370586
0.00365498
0.00367342
0.00367406
0.00365446
0.00367328
0.00365431
0.00365498
0.00367342
0.00367406
0.00365445
0.00367067
0.00367067
0.00367067
0.00363306
0.00363306
0.00363306
0.00363306
0.00365473
0.00367377
0.00367065
0.00365803
0.00367359
0.00365484
0.00365801
0.00367328
0.00365431
0.00365473
0.00367065
0.00367377
0.00365803
0.00367359
0.00365801
0.00365484
0.00367376
0.00367376
0.00365483
0.00365475
0.00365475
0.0036053
0.00362333
0.00362384
0.00360498
0.00362322
0.00360485
0.0036053
0.00362333
0.00362384
0.00360498
0.00362073
0.00362073
0.00362073
0.00358439
0.00358439
0.00358439
0.00358439
0.00360524
0.00362364
0.0036207
0.00360849
0.00362353
0.00360531
0.00360847
0.00362321
0.00360486
0.00360524
0.0036207