/*--------------------------------*- C++ -*----------------------------------*\
| =========                 |                                                 |
| \\      /  F ield         | OpenFOAM: The Open Source CFD Toolbox           |
|  \\    /   O peration     | Version:  2206                                  |
|   \\  /    A nd           | Website:  www.openfoam.com                      |
|    \\/     M anipulation  |                                                 |
\*---------------------------------------------------------------------------*/
FoamFile
{
    version     2.0;
    format      ascii;
    arch        "LSB;label=32;scalar=64";
    class       volScalarField;
    location    "35.5";
    object      Ux;
}
// * * * * * * * * * * * * * * * * * * * * * * * * * * * * * * * * * * * * * //

dimensions      [0 1 -1 0 0 0 0];

internalField   nonuniform List<scalar> 
171728
(
0.000108004
-0.000190229
0.000119358
-0.000239518
9.43296e-05
-0.000159153
9.69718e-05
-0.000200929
9.57873e-05
-0.000156238
9.36888e-05
-0.000201546
9.43461e-05
-0.000152358
9.01588e-05
-0.000197745
9.0242e-05
-0.000145076
8.45416e-05
-0.000191115
8.76757e-05
-0.000138493
8.00042e-05
-0.000184766
7.60181e-05
-0.000125811
7.18119e-05
-0.000169473
4.57513e-05
-6.63808e-05
3.83129e-05
-0.000110153
2.10598e-05
-2.9329e-05
2.04223e-05
-7.23926e-05
3.93245e-06
-6.38385e-06
5.07631e-06
-5.21083e-05
-3.86339e-07
-1.06133e-06
1.25659e-06
-4.77511e-05
-8.52966e-07
-5.96925e-07
9.15497e-07
-4.74573e-05
-8.77509e-07
-5.92024e-07
9.01515e-07
-4.74493e-05
-8.77762e-07
-5.91391e-07
9.02213e-07
-4.74508e-05
-8.80726e-07
-5.85996e-07
9.01701e-07
-4.74511e-05
-8.80986e-07
-5.86018e-07
9.01316e-07
-4.74508e-05
-8.80123e-07
-5.86609e-07
9.0147e-07
-4.74502e-05
-8.80363e-07
-5.85748e-07
9.01568e-07
-4.74503e-05
-8.78187e-07
-5.86252e-07
9.01588e-07
-4.74501e-05
-8.7176e-07
-5.84082e-07
9.0252e-07
-4.74506e-05
-8.67808e-07
-5.90065e-07
9.03101e-07
-4.745e-05
-8.76974e-07
-5.86689e-07
9.02719e-07
-4.74501e-05
-8.7776e-07
-5.85505e-07
9.02418e-07
-4.74501e-05
-8.78741e-07
-5.85012e-07
9.0226e-07
-4.74502e-05
-8.79176e-07
-5.84505e-07
9.01789e-07
-4.74505e-05
-8.80036e-07
-5.83553e-07
9.01382e-07
-4.74506e-05
-8.80895e-07
-5.8305e-07
9.01301e-07
-4.74507e-05
-8.80789e-07
-5.83365e-07
9.01708e-07
-4.74508e-05
-8.80398e-07
-5.83902e-07
9.02099e-07
-4.74513e-05
-8.79453e-07
-5.83883e-07
9.02482e-07
-4.74517e-05
-8.79264e-07
-5.84467e-07
9.02256e-07
-4.74521e-05
-8.797e-07
-5.84397e-07
9.0255e-07
-4.74518e-05
-8.7973e-07
-5.83597e-07
9.0219e-07
-4.74512e-05
-8.80584e-07
-5.82968e-07
9.01581e-07
-4.74511e-05
-8.80476e-07
-5.82931e-07
9.01646e-07
-4.74507e-05
-8.80303e-07
-5.82834e-07
9.01751e-07
-4.74509e-05
-8.79896e-07
-5.83076e-07
9.0243e-07
-4.74515e-05
-8.79722e-07
-5.84043e-07
9.02616e-07
-4.74519e-05
-8.7953e-07
-5.83749e-07
9.02727e-07
-4.74518e-05
-8.79563e-07
-5.83579e-07
9.01342e-07
-4.74494e-05
-8.75818e-07
-5.80564e-07
9.01104e-07
-4.74491e-05
-8.82797e-07
-5.84022e-07
9.01811e-07
-4.74519e-05
-8.80543e-07
-5.82734e-07
9.01322e-07
-4.74509e-05
-8.79448e-07
-5.84241e-07
9.01348e-07
-4.74511e-05
-8.78597e-07
-5.85017e-07
9.01156e-07
-4.74518e-05
-8.77338e-07
-5.85432e-07
9.01825e-07
-4.74519e-05
-8.76559e-07
-5.85912e-07
9.01843e-07
-4.74521e-05
-8.77315e-07
-5.85318e-07
9.01592e-07
-4.74521e-05
-8.77604e-07
-5.85783e-07
9.01378e-07
-4.74522e-05
-8.77948e-07
-5.84207e-07
9.0118e-07
-4.74514e-05
-8.7811e-07
-5.85156e-07
9.01537e-07
-4.74516e-05
-8.78242e-07
-5.84813e-07
9.01502e-07
-4.74518e-05
-8.77269e-07
-5.85368e-07
9.01982e-07
-4.74523e-05
-8.75879e-07
-5.8547e-07
9.02644e-07
-4.74524e-05
-8.75018e-07
-5.85545e-07
9.02712e-07
-4.74519e-05
-8.76967e-07
-5.86586e-07
9.02023e-07
-4.74533e-05
-8.76884e-07
-5.87387e-07
9.01932e-07
-4.74549e-05
-8.76717e-07
-5.87376e-07
9.02341e-07
-4.74548e-05
-8.76868e-07
-5.86733e-07
9.02304e-07
-4.74547e-05
-8.76501e-07
-5.87581e-07
9.02835e-07
-4.74547e-05
-8.75701e-07
-5.87735e-07
9.03148e-07
-4.7455e-05
-8.75549e-07
-5.88438e-07
9.03257e-07
-4.74554e-05
-8.75351e-07
-5.88668e-07
9.03814e-07
-4.74555e-05
-8.75438e-07
-5.87761e-07
9.03278e-07
-4.74549e-05
-8.75594e-07
-5.87584e-07
9.03105e-07
-4.74549e-05
-8.76831e-07
-5.86782e-07
9.02524e-07
-4.74543e-05
-8.7651e-07
-5.87127e-07
9.02899e-07
-4.74544e-05
-8.76055e-07
-5.87122e-07
9.03016e-07
-4.74551e-05
-8.75399e-07
-5.87569e-07
9.04682e-07
-4.74561e-05
-8.74715e-07
-5.88438e-07
9.10441e-07
-4.746e-05
-8.7472e-07
-5.87828e-07
9.06798e-07
-4.74591e-05
-8.7507e-07
-5.88159e-07
9.03693e-07
-4.74552e-05
-8.76222e-07
-5.8687e-07
9.02981e-07
-4.74548e-05
-8.76599e-07
-5.87656e-07
9.02626e-07
-4.74549e-05
-8.76557e-07
-5.86359e-07
9.02704e-07
-4.7455e-05
-8.76213e-07
-5.87635e-07
9.03225e-07
-4.74555e-05
-8.75741e-07
-5.87852e-07
9.03461e-07
-4.74562e-05
-8.75384e-07
-5.87915e-07
9.04013e-07
-4.74564e-05
-8.75143e-07
-5.88462e-07
9.04416e-07
-4.74564e-05
-8.75735e-07
-5.88068e-07
9.03487e-07
-4.74563e-05
-8.76101e-07
-5.87293e-07
9.03152e-07
-4.74558e-05
-8.76423e-07
-5.87008e-07
9.03204e-07
-4.74555e-05
-8.76648e-07
-5.8732e-07
9.02923e-07
-4.74554e-05
-8.76104e-07
-5.86504e-07
9.02889e-07
-4.74557e-05
-8.76805e-07
-5.85531e-07
9.01474e-07
-4.7456e-05
-8.82158e-07
-5.78531e-07
8.94573e-07
-4.74517e-05
-8.92968e-07
-5.68023e-07
8.79843e-07
-4.7425e-05
-9.08515e-07
-5.85605e-07
8.91606e-07
-4.72503e-05
-8.18156e-07
-7.15259e-07
9.79961e-07
-4.73115e-05
-7.57721e-07
-9.06203e-07
1.08684e-06
-4.66812e-05
-6.12035e-07
-1.32223e-06
1.36835e-06
-4.62451e-05
-4.88914e-07
-2.18143e-06
2.01246e-06
-4.50051e-05
-4.90518e-07
-3.802e-06
3.32596e-06
-4.1333e-05
-5.90189e-06
-2.48066e-06
3.59952e-06
-2.68742e-05
-4.07349e-05
4.24432e-05
-3.3892e-05
4.56474e-05
0.000135029
0.00012425
-0.000124242
-0.000135025
0.000152899
0.000152871
9.07993e-05
-9.07894e-05
9.07734e-05
-9.0771e-05
-0.000152895
-0.000152881
0.000135019
0.000124202
-0.000124198
-0.000135027
0.000239561
0.000111527
0.000119408
-0.00011936
8.91481e-05
-8.91096e-05
-0.000239571
-0.000111487
0.000190265
0.000190203
0.000147311
0.000147345
-0.000190185
-0.000147282
-0.000147303
0.000239492
0.000111478
-0.000119338
8.91222e-05
-8.91017e-05
-0.000111476
0.000201017
0.000105984
9.69787e-05
-9.69521e-05
9.4102e-05
-9.41023e-05
-0.000200978
-0.000105972
0.000159186
0.000159204
0.000156537
0.000156577
-0.000159181
-0.000156534
-0.000156555
0.000200925
0.000105947
-9.69538e-05
9.41036e-05
-9.41096e-05
-0.000105963
0.000201615
9.7027e-05
9.36814e-05
-9.36867e-05
9.07161e-05
-9.07055e-05
-0.000201604
-9.70107e-05
0.000156246
0.000156286
0.000152761
0.000152794
-0.000156268
-0.000152756
-0.000152795
0.000201529
9.6983e-05
-9.36968e-05
9.07192e-05
-9.07095e-05
-9.70427e-05
0.000197777
8.7297e-05
9.01564e-05
-9.01446e-05
8.54727e-05
-8.54611e-05
-0.00019776
-8.72781e-05
0.000152366
0.000152396
0.000145913
0.000145948
-0.000152398
-0.00014591
-0.000145953
0.000197681
8.72505e-05
-9.0145e-05
8.54778e-05
-8.54579e-05
-8.73179e-05
0.000191134
8.02177e-05
8.45367e-05
-8.45308e-05
8.31824e-05
-8.31736e-05
-0.000191129
-8.02174e-05
0.000145082
0.000145109
0.000142935
0.000142969
-0.000145119
-0.000142934
-0.00014298
0.00019105
8.01921e-05
-8.45221e-05
8.31986e-05
-8.31734e-05
-8.0257e-05
0.000184776
6.8463e-05
7.9997e-05
-7.99905e-05
7.6522e-05
-7.64936e-05
-0.000184777
-6.84504e-05
0.000138498
0.000138526
0.000132078
0.000132102
-0.000138543
-0.000132071
-0.000132112
0.000184697
6.83973e-05
-7.99806e-05
7.6566e-05
-7.65373e-05
-6.84947e-05
0.000169452
1.82466e-05
7.17898e-05
-7.17703e-05
4.43588e-05
-4.43604e-05
-0.000169434
-1.82266e-05
0.000125806
0.000125844
7.95946e-05
7.963e-05
-0.000125856
-7.95738e-05
-7.96333e-05
0.000169358
1.82755e-05
-7.17834e-05
4.43084e-05
-4.42966e-05
-1.82602e-05
0.000110181
-2.17167e-05
3.83563e-05
-3.83589e-05
2.5414e-05
-2.54121e-05
-0.000110164
2.17287e-05
6.63945e-05
6.64205e-05
3.78953e-05
3.79018e-05
-6.64169e-05
-3.78813e-05
-3.78885e-05
0.000110146
-2.16945e-05
-3.8302e-05
2.53643e-05
-2.53641e-05
2.17278e-05
7.24315e-05
-4.3793e-05
2.04674e-05
-2.04648e-05
7.67565e-06
-7.67212e-06
-7.24167e-05
4.38062e-05
2.93469e-05
2.93509e-05
1.00152e-05
1.00315e-05
-2.9337e-05
-1.00029e-05
-1.00338e-05
7.23995e-05
-4.37791e-05
-2.04222e-05
7.6344e-06
-7.63739e-06
4.37765e-05
5.21196e-05
-4.94142e-05
5.11688e-06
-5.11095e-06
1.65214e-06
-1.63976e-06
-5.21071e-05
4.94229e-05
6.39867e-06
6.41172e-06
1.57109e-06
1.59204e-06
-6.41714e-06
-1.56269e-06
-1.59537e-06
5.20887e-05
-4.93898e-05
-5.07978e-06
1.60855e-06
-1.60863e-06
4.93903e-05
4.77556e-05
-4.9847e-05
1.29843e-06
-1.28423e-06
9.68848e-07
-9.67665e-07
-4.7753e-05
4.98548e-05
1.07132e-06
1.09139e-06
6.20617e-07
6.4759e-07
-1.09248e-06
-6.16085e-07
-6.4801e-07
4.77374e-05
-4.98207e-05
-1.25479e-06
9.35079e-07
-9.32699e-07
4.98236e-05
4.74611e-05
-4.98619e-05
9.48727e-07
-9.47113e-07
9.32249e-07
-9.33348e-07
-4.74606e-05
4.98656e-05
6.02358e-07
6.2614e-07
5.86034e-07
6.13824e-07
-6.26052e-07
-5.89143e-07
-6.16356e-07
4.74448e-05
-4.98347e-05
-9.12909e-07
9.00674e-07
-8.98682e-07
4.98361e-05
4.74511e-05
-4.98614e-05
9.32006e-07
-9.32461e-07
9.32118e-07
-9.3321e-07
-4.7455e-05
4.9862e-05
5.8856e-07
6.13962e-07
5.86201e-07
6.14308e-07
-6.16385e-07
-5.90959e-07
-6.18199e-07
4.74358e-05
-4.98332e-05
-8.98768e-07
9.01755e-07
-8.99222e-07
4.98344e-05
4.74516e-05
-4.98567e-05
9.33427e-07
-9.33589e-07
9.30987e-07
-9.36007e-07
-4.74581e-05
4.98646e-05
5.89387e-07
6.14601e-07
5.86987e-07
6.14506e-07
-6.17585e-07
-5.85374e-07
-6.1739e-07
4.74369e-05
-4.98331e-05
-8.99559e-07
9.00959e-07
-8.9998e-07
4.98341e-05
4.74541e-05
-4.98585e-05
9.29402e-07
-9.38072e-07
9.27233e-07
-9.45235e-07
-4.74572e-05
4.98611e-05
5.90002e-07
6.14795e-07
5.87202e-07
6.14767e-07
-6.16639e-07
-5.86102e-07
-6.17187e-07
4.74369e-05
-4.9833e-05
-9.0051e-07
9.00641e-07
-9.00319e-07
4.98343e-05
4.74526e-05
-4.98563e-05
9.26291e-07
-9.42028e-07
9.29171e-07
-9.36351e-07
-4.74564e-05
4.98621e-05
5.90331e-07
6.14899e-07
5.88042e-07
6.1475e-07
-6.16498e-07
-5.85436e-07
-6.163e-07
4.74371e-05
-4.98329e-05
-9.00549e-07
9.00871e-07
-9.00022e-07
4.98349e-05
4.7454e-05
-4.98577e-05
9.28299e-07
-9.36367e-07
9.28487e-07
-9.35164e-07
-4.74539e-05
4.98645e-05
5.91074e-07
6.14944e-07
5.87751e-07
6.14776e-07
-6.15713e-07
-5.85314e-07
-6.15728e-07
4.74371e-05
-4.9833e-05
-9.00025e-07
9.00912e-07
-8.99639e-07
4.98353e-05
4.74535e-05
-4.986e-05
9.26283e-07
-9.35152e-07
9.29884e-07
-9.39645e-07
-4.74519e-05
4.9864e-05
5.90385e-07
6.14987e-07
5.86983e-07
6.14747e-07
-6.15372e-07
-5.8538e-07
-6.15582e-07
4.74375e-05
-4.98331e-05
-8.9966e-07
9.00828e-07
-8.9867e-07
4.98358e-05
4.7455e-05
-4.98606e-05
9.31952e-07
-9.41257e-07
9.33002e-07
-9.30017e-07
-4.7456e-05
4.98684e-05
5.89791e-07
6.14819e-07
5.88068e-07
6.144e-07
-6.16162e-07
-5.84915e-07
-6.20342e-07
4.74376e-05
-4.98332e-05
-8.98442e-07
9.01355e-07
-8.97012e-07
4.98345e-05
4.74576e-05
-4.98637e-05
9.33199e-07
-9.20606e-07
9.36193e-07
-9.34272e-07
-4.74394e-05
4.9856e-05
5.92102e-07
6.14767e-07
5.94735e-07
6.15337e-07
-6.20296e-07
-5.89268e-07
-6.15293e-07
4.74371e-05
-4.98323e-05
-8.97255e-07
9.02476e-07
-8.97874e-07
4.9835e-05
4.74551e-05
-4.98617e-05
9.3765e-07
-9.33926e-07
9.30024e-07
-9.33134e-07
-4.74575e-05
4.98673e-05
5.96856e-07
6.15721e-07
5.89456e-07
6.15259e-07
-6.14451e-07
-5.85606e-07
-6.15773e-07
4.74374e-05
-4.98322e-05
-8.98442e-07
9.01932e-07
-8.98768e-07
4.98348e-05
4.74584e-05
-4.98605e-05
9.3018e-07
-9.35515e-07
9.3199e-07
-9.37015e-07
-4.74478e-05
4.98622e-05
5.91653e-07
6.15436e-07
5.88864e-07
6.15409e-07
-6.15302e-07
-5.85075e-07
-6.1609e-07
4.74375e-05
-4.98318e-05
-8.99472e-07
9.01834e-07
-8.99792e-07
4.98347e-05
4.746e-05
-4.98606e-05
9.31806e-07
-9.37477e-07
9.32513e-07
-9.37663e-07
-4.74517e-05
4.98621e-05
5.919e-07
6.15641e-07
5.88084e-07
6.15381e-07
-6.15618e-07
-5.84274e-07
-6.1629e-07
4.74378e-05
-4.98319e-05
-9.00078e-07
9.01559e-07
-8.99664e-07
4.98348e-05
4.74598e-05
-4.98611e-05
9.32215e-07
-9.38002e-07
9.32679e-07
-9.37787e-07
-4.74518e-05
4.98619e-05
5.911e-07
6.15624e-07
5.87319e-07
6.14928e-07
-6.15629e-07
-5.83775e-07
-6.15484e-07
4.74377e-05
-4.98323e-05
-9.00132e-07
9.01144e-07
-8.99616e-07
4.98345e-05
4.74592e-05
-4.98615e-05
9.32771e-07
-9.38069e-07
9.32723e-07
-9.37868e-07
-4.7452e-05
4.98622e-05
5.90575e-07
6.15027e-07
5.86683e-07
6.14302e-07
-6.14708e-07
-5.82971e-07
-6.1463e-07
4.74372e-05
-4.98328e-05
-8.99928e-07
9.00742e-07
-8.99509e-07
4.98344e-05
4.74586e-05
-4.98625e-05
9.32391e-07
-9.38285e-07
9.32436e-07
-9.38137e-07
-4.74517e-05
4.98623e-05
5.8963e-07
6.14372e-07
5.85574e-07
6.13702e-07
-6.1392e-07
-5.82332e-07
-6.14121e-07
4.74366e-05
-4.9833e-05
-8.99778e-07
9.00614e-07
-8.99537e-07
4.98344e-05
4.74578e-05
-4.98628e-05
9.32088e-07
-9.3856e-07
9.32176e-07
-9.37759e-07
-4.74516e-05
4.98626e-05
5.8876e-07
6.13892e-07
5.8559e-07
6.13818e-07
-6.13454e-07
-5.82424e-07
-6.13826e-07
4.74364e-05
-4.9833e-05
-8.99851e-07
9.00808e-07
-8.99535e-07
4.98343e-05
4.74577e-05
-4.9862e-05
9.32251e-07
-9.38727e-07
9.33032e-07
-9.37872e-07
-4.74515e-05
4.9862e-05
5.89112e-07
6.14221e-07
5.86165e-07
6.14371e-07
-6.1349e-07
-5.82963e-07
-6.14275e-07
4.74367e-05
-4.98323e-05
-9.00005e-07
9.01337e-07
-8.99911e-07
4.98337e-05
4.74585e-05
-4.98614e-05
9.3303e-07
-9.39618e-07
9.34266e-07
-9.3717e-07
-4.74523e-05
4.98619e-05
5.89555e-07
6.14723e-07
5.86438e-07
6.14636e-07
-6.13719e-07
-5.83026e-07
-6.14515e-07
4.74373e-05
-4.98321e-05
-9.00188e-07
9.01589e-07
-9.00087e-07
4.98335e-05
4.7459e-05
-4.98611e-05
9.34371e-07
-9.40082e-07
9.34886e-07
-9.3623e-07
-4.74526e-05
4.98612e-05
5.8993e-07
6.15226e-07
5.86833e-07
6.15209e-07
-6.14295e-07
-5.83653e-07
-6.15159e-07
4.74375e-05
-4.98318e-05
-9.00571e-07
9.01777e-07
-9.00432e-07
4.98329e-05
4.74593e-05
-4.98617e-05
9.34667e-07
-9.42543e-07
9.34428e-07
-9.38061e-07
-4.74539e-05
4.98622e-05
5.89991e-07
6.15274e-07
5.86369e-07
6.14961e-07
-6.14595e-07
-5.83733e-07
-6.15012e-07
4.74376e-05
-4.98321e-05
-9.00742e-07
9.01693e-07
-9.00363e-07
4.98332e-05
4.74587e-05
-4.9862e-05
9.3411e-07
-9.40369e-07
9.34358e-07
-9.39777e-07
-4.74532e-05
4.98635e-05
5.89716e-07
6.15392e-07
5.86022e-07
6.14607e-07
-6.1431e-07
-5.82924e-07
-6.14313e-07
4.74376e-05
-4.98321e-05
-9.0046e-07
9.0168e-07
-8.99786e-07
4.98338e-05
4.74584e-05
-4.98623e-05
9.34379e-07
-9.3997e-07
9.33938e-07
-9.40058e-07
-4.74514e-05
4.98641e-05
5.89302e-07
6.14802e-07
5.85679e-07
6.1414e-07
-6.13892e-07
-5.82517e-07
-6.14112e-07
4.74372e-05
-4.98327e-05
-9.00156e-07
9.01111e-07
-8.99656e-07
4.98338e-05
4.74579e-05
-4.98627e-05
9.33387e-07
-9.401e-07
9.33687e-07
-9.40181e-07
-4.74508e-05
4.98646e-05
5.88655e-07
6.14193e-07
5.8498e-07
6.13558e-07
-6.13399e-07
-5.82163e-07
-6.13689e-07
4.74367e-05
-4.98332e-05
-8.9972e-07
9.00808e-07
-8.99359e-07
4.98343e-05
4.74577e-05
-4.9862e-05
9.33846e-07
-9.40421e-07
9.34228e-07
-9.40343e-07
-4.74504e-05
4.98644e-05
5.88515e-07
6.1409e-07
5.85642e-07
6.14013e-07
-6.13331e-07
-5.82016e-07
-6.13644e-07
4.74364e-05
-4.98327e-05
-8.99657e-07
9.01179e-07
-8.99469e-07
4.98342e-05
4.74583e-05
-4.98622e-05
9.33992e-07
-9.40341e-07
9.34099e-07
-9.40656e-07
-4.74505e-05
4.98643e-05
5.88726e-07
6.14161e-07
5.85876e-07
6.14251e-07
-6.13238e-07
-5.82298e-07
-6.14054e-07
4.74368e-05
-4.98325e-05
-8.99808e-07
9.01526e-07
-9.00026e-07
4.98336e-05
4.74584e-05
-4.98617e-05
9.34263e-07
-9.40665e-07
9.34242e-07
-9.41283e-07
-4.74506e-05
4.98637e-05
5.89373e-07
6.1483e-07
5.863e-07
6.14656e-07
-6.13802e-07
-5.82982e-07
-6.14631e-07
4.74372e-05
-4.98319e-05
-9.00375e-07
9.01969e-07
-9.00539e-07
4.98331e-05
4.74586e-05
-4.98615e-05
9.34338e-07
-9.41205e-07
9.34115e-07
-9.4184e-07
-4.74513e-05
4.98633e-05
5.89442e-07
6.15017e-07
5.86593e-07
6.14877e-07
-6.1436e-07
-5.83141e-07
-6.14755e-07
4.74376e-05
-4.98318e-05
-9.00774e-07
9.02055e-07
-9.00697e-07
4.98329e-05
4.74584e-05
-4.98621e-05
9.34512e-07
-9.40945e-07
9.32604e-07
-9.42549e-07
-4.74511e-05
4.98649e-05
5.89668e-07
6.15344e-07
5.88094e-07
6.15604e-07
-6.14506e-07
-5.83175e-07
-6.17498e-07
4.74377e-05
-4.98329e-05
-9.00663e-07
9.01249e-07
-8.99972e-07
4.98354e-05
4.74561e-05
-4.98556e-05
9.3229e-07
-9.401e-07
9.32512e-07
-9.39138e-07
-4.74496e-05
4.98656e-05
5.92199e-07
6.16196e-07
5.9278e-07
6.15513e-07
-6.18796e-07
-5.7947e-07
-6.1949e-07
4.74367e-05
-4.98342e-05
-8.97859e-07
9.00077e-07
-8.95524e-07
4.98368e-05
4.74625e-05
-4.98659e-05
9.3721e-07
-9.39245e-07
9.28503e-07
-9.44213e-07
-4.74515e-05
4.98594e-05
5.9634e-07
6.15556e-07
5.85735e-07
6.14733e-07
-6.16182e-07
-5.83554e-07
-6.14896e-07
4.74358e-05
-4.98339e-05
-8.974e-07
9.01311e-07
-8.99722e-07
4.98337e-05
4.74505e-05
-4.98631e-05
9.29061e-07
-9.46616e-07
9.30786e-07
-9.35932e-07
-4.74584e-05
4.98647e-05
5.87442e-07
6.14983e-07
5.85648e-07
6.14215e-07
-6.14842e-07
-5.81943e-07
-6.14218e-07
4.74361e-05
-4.98343e-05
-8.99995e-07
9.00888e-07
-8.9956e-07
4.98342e-05
4.74528e-05
-4.98617e-05
9.30904e-07
-9.36125e-07
9.32476e-07
-9.3632e-07
-4.74498e-05
4.98651e-05
5.88612e-07
6.14568e-07
5.86446e-07
6.14207e-07
-6.13367e-07
-5.83116e-07
-6.13603e-07
4.74354e-05
-4.98344e-05
-8.9954e-07
9.00934e-07
-8.99492e-07
4.98343e-05
4.74541e-05
-4.98615e-05
9.31659e-07
-9.36408e-07
9.32226e-07
-9.36555e-07
-4.74504e-05
4.98647e-05
5.89557e-07
6.14831e-07
5.86961e-07
6.14924e-07
-6.13641e-07
-5.84411e-07
-6.14467e-07
4.74353e-05
-4.98338e-05
-8.99931e-07
9.01566e-07
-9.003e-07
4.98334e-05
4.74543e-05
-4.98607e-05
9.31658e-07
-9.36546e-07
9.32643e-07
-9.36053e-07
-4.74505e-05
4.98652e-05
5.90074e-07
6.15433e-07
5.87431e-07
6.15279e-07
-6.13995e-07
-5.84488e-07
-6.14389e-07
4.7436e-05
-4.98335e-05
-9.00177e-07
9.01834e-07
-9.00234e-07
4.98335e-05
4.74552e-05
-4.98595e-05
9.32395e-07
-9.36339e-07
9.33287e-07
-9.36229e-07
-4.74501e-05
4.9865e-05
5.90747e-07
6.16e-07
5.88661e-07
6.16183e-07
-6.14267e-07
-5.85166e-07
-6.14839e-07
4.74363e-05
-4.98329e-05
-9.00424e-07
9.02181e-07
-9.00413e-07
4.98332e-05
4.74561e-05
-4.98602e-05
9.32661e-07
-9.36363e-07
9.32447e-07
-9.35643e-07
-4.74503e-05
4.98656e-05
5.91593e-07
6.16518e-07
5.87633e-07
6.15442e-07
-6.14389e-07
-5.84685e-07
-6.14514e-07
4.74367e-05
-4.98334e-05
-9.00504e-07
9.01789e-07
-9.00568e-07
4.98332e-05
4.74552e-05
-4.98602e-05
9.31669e-07
-9.35847e-07
9.31512e-07
-9.35932e-07
-4.74495e-05
4.98654e-05
5.90595e-07
6.15825e-07
5.87853e-07
6.15219e-07
-6.14187e-07
-5.84981e-07
-6.14597e-07
4.74362e-05
-4.98335e-05
-9.00849e-07
9.01683e-07
-9.0097e-07
4.98329e-05
4.74553e-05
-4.986e-05
9.3084e-07
-9.36197e-07
9.31025e-07
-9.35199e-07
-4.74499e-05
4.98662e-05
5.90909e-07
6.15454e-07
5.87738e-07
6.14724e-07
-6.14017e-07
-5.83871e-07
-6.13504e-07
4.7436e-05
-4.9834e-05
-9.01036e-07
9.01329e-07
-9.00232e-07
4.98337e-05
4.74553e-05
-4.98604e-05
9.30357e-07
-9.35173e-07
9.30577e-07
-9.35404e-07
-4.74487e-05
4.98661e-05
5.90641e-07
6.15047e-07
5.8755e-07
6.14834e-07
-6.12847e-07
-5.84116e-07
-6.13473e-07
4.74356e-05
-4.98337e-05
-9.00271e-07
9.01681e-07
-9.00257e-07
4.98336e-05
4.7455e-05
-4.98605e-05
9.29997e-07
-9.35866e-07
9.30452e-07
-9.35323e-07
-4.74493e-05
4.98661e-05
5.90532e-07
6.15235e-07
5.87342e-07
6.14828e-07
-6.13145e-07
-5.84205e-07
-6.13692e-07
4.74359e-05
-4.98336e-05
-9.00488e-07
9.01626e-07
-9.00415e-07
4.98334e-05
4.74549e-05
-4.98596e-05
9.29986e-07
-9.35493e-07
9.31126e-07
-9.35384e-07
-4.7449e-05
4.98659e-05
5.90351e-07
6.15142e-07
5.8805e-07
6.15141e-07
-6.13178e-07
-5.84321e-07
-6.13942e-07
4.74359e-05
-4.98332e-05
-9.00604e-07
9.01991e-07
-9.00963e-07
4.98329e-05
4.74559e-05
-4.98579e-05
9.30923e-07
-9.35781e-07
9.32694e-07
-9.34829e-07
-4.74494e-05
4.9865e-05
5.914e-07
6.15735e-07
5.89498e-07
6.16133e-07
-6.13559e-07
-5.85105e-07
-6.14408e-07
4.74362e-05
-4.98324e-05
-9.0121e-07
9.02622e-07
-9.01114e-07
4.98324e-05
4.7457e-05
-4.98566e-05
9.32657e-07
-9.33895e-07
9.34646e-07
-9.26068e-07
-4.74488e-05
4.98684e-05
5.92685e-07
6.16443e-07
5.90162e-07
6.16008e-07
-6.13805e-07
-5.84309e-07
-6.1345e-07
4.74368e-05
-4.98323e-05
-9.0122e-07
9.0286e-07
-9.00718e-07
4.98331e-05
4.74581e-05
-4.98585e-05
9.34227e-07
-9.26296e-07
9.32517e-07
-9.361e-07
-4.7446e-05
4.98658e-05
5.93259e-07
6.16306e-07
5.89429e-07
6.15815e-07
-6.13263e-07
-5.86266e-07
-6.14816e-07
4.74368e-05
-4.98326e-05
-9.00803e-07
9.0242e-07
-9.0095e-07
4.98322e-05
4.74566e-05
-4.98605e-05
9.31206e-07
-9.35327e-07
9.31136e-07
-9.3519e-07
-4.74494e-05
4.9865e-05
5.91857e-07
6.15608e-07
5.87378e-07
6.13371e-07
-6.16109e-07
-5.86838e-07
-6.20352e-07
4.74366e-05
-4.98345e-05
-9.00711e-07
9.01795e-07
-8.99211e-07
4.98303e-05
4.74548e-05
-4.9861e-05
9.30681e-07
-9.35009e-07
9.31223e-07
-9.3436e-07
-4.74499e-05
4.98655e-05
5.9005e-07
6.13173e-07
5.86608e-07
6.12523e-07
-6.2121e-07
-5.86531e-07
-6.19706e-07
4.74349e-05
-4.98351e-05
-8.9878e-07
9.02442e-07
-8.98667e-07
4.98305e-05
4.74544e-05
-4.98613e-05
9.30638e-07
-9.34668e-07
9.31003e-07
-9.3419e-07
-4.74496e-05
4.98654e-05
5.89468e-07
6.12647e-07
5.86216e-07
6.12098e-07
-6.20488e-07
-5.86439e-07
-6.19771e-07
4.74344e-05
-4.98354e-05
-8.98703e-07
9.02357e-07
-8.98906e-07
4.98305e-05
4.74542e-05
-4.98611e-05
9.30469e-07
-9.34208e-07
9.31131e-07
-9.34465e-07
-4.74494e-05
4.98652e-05
5.89198e-07
6.12313e-07
5.86324e-07
6.12359e-07
-6.2043e-07
-5.86676e-07
-6.19766e-07
4.74342e-05
-4.98349e-05
-8.98898e-07
9.02744e-07
-8.99214e-07
4.98306e-05
4.74544e-05
-4.98604e-05
9.30732e-07
-9.34895e-07
9.31574e-07
-9.35004e-07
-4.745e-05
4.98645e-05
5.8945e-07
6.12791e-07
5.87126e-07
6.13067e-07
-6.20689e-07
-5.87286e-07
-6.20225e-07
4.74347e-05
-4.98344e-05
-8.99303e-07
9.0324e-07
-8.99715e-07
4.98302e-05
4.7455e-05
-4.98603e-05
9.31117e-07
-9.35125e-07
9.31656e-07
-9.35178e-07
-4.74504e-05
4.98645e-05
5.90168e-07
6.13377e-07
5.87325e-07
6.13272e-07
-6.20934e-07
-5.87524e-07
-6.20574e-07
4.74351e-05
-4.98344e-05
-8.99675e-07
9.03244e-07
-9.00073e-07
4.983e-05
4.74551e-05
-4.986e-05
9.31151e-07
-9.35689e-07
9.31809e-07
-9.35966e-07
-4.74508e-05
4.98637e-05
5.90212e-07
6.13604e-07
5.87899e-07
6.13994e-07
-6.2159e-07
-5.88238e-07
-6.21173e-07
4.74352e-05
-4.98337e-05
-9.00221e-07
9.03796e-07
-9.00417e-07
4.98297e-05
4.74555e-05
-4.98602e-05
9.31179e-07
-9.36085e-07
9.31727e-07
-9.35367e-07
-4.74513e-05
4.98646e-05
5.9044e-07
6.14335e-07
5.878e-07
6.13782e-07
-6.21847e-07
-5.87448e-07
-6.20555e-07
4.74359e-05
-4.98339e-05
-9.00337e-07
9.03602e-07
-9.00107e-07
4.98302e-05
4.74552e-05
-4.986e-05
9.31229e-07
-9.3537e-07
9.31793e-07
-9.35161e-07
-4.74503e-05
4.98648e-05
5.90011e-07
6.13816e-07
5.87943e-07
6.13373e-07
-6.2111e-07
-5.87036e-07
-6.20235e-07
4.74355e-05
-4.98344e-05
-9.0002e-07
9.03209e-07
-9.00384e-07
4.98304e-05
4.74554e-05
-4.98612e-05
9.31109e-07
-9.35388e-07
9.30923e-07
-9.34818e-07
-4.74502e-05
4.98652e-05
5.89485e-07
6.13543e-07
5.86969e-07
6.12401e-07
-6.21039e-07
-5.86407e-07
-6.19516e-07
4.74351e-05
-4.9835e-05
-9.00543e-07
9.02675e-07
-9.00336e-07
4.98308e-05
4.7454e-05
-4.98614e-05
9.30162e-07
-9.34878e-07
9.30804e-07
-9.34759e-07
-4.74496e-05
4.98652e-05
5.88237e-07
6.124e-07
5.86862e-07
6.12359e-07
-6.2001e-07
-5.86337e-07
-6.19192e-07
4.74345e-05
-4.98348e-05
-9.00231e-07
9.0273e-07
-9.00177e-07
4.98311e-05
4.7454e-05
-4.98607e-05
9.30412e-07
-9.35088e-07
9.31228e-07
-9.34986e-07
-4.74497e-05
4.98648e-05
5.88754e-07
6.1287e-07
5.87446e-07
6.12887e-07
-6.20351e-07
-5.86691e-07
-6.19814e-07
4.74349e-05
-4.98344e-05
-9.00497e-07
9.03161e-07
-9.01006e-07
4.98301e-05
4.74543e-05
-4.98607e-05
9.30612e-07
-9.35118e-07
9.31219e-07
-9.35043e-07
-4.74498e-05
4.98646e-05
5.88932e-07
6.13022e-07
5.87487e-07
6.13764e-07
-6.20512e-07
-5.86798e-07
-6.20521e-07
4.74352e-05
-4.98325e-05
-9.01045e-07
9.03856e-07
-9.01998e-07
4.98286e-05
4.74541e-05
-4.98599e-05
9.3082e-07
-9.354e-07
9.31633e-07
-9.35653e-07
-4.74497e-05
4.98639e-05
5.89306e-07
6.14838e-07
5.87936e-07
6.16983e-07
-6.22066e-07
-5.87697e-07
-6.23754e-07
4.74365e-05
-4.98266e-05
-9.02837e-07
9.0909e-07
-9.06634e-07
4.98232e-05
4.74546e-05
-4.986e-05
9.31088e-07
-9.36033e-07
9.31764e-07
-9.35568e-07
-4.74503e-05
4.98641e-05
5.89522e-07
6.17596e-07
5.88007e-07
6.15868e-07
-6.25119e-07
-5.8747e-07
-6.23061e-07
4.74409e-05
-4.98304e-05
-9.07632e-07
9.08868e-07
-9.06429e-07
4.98254e-05
4.74549e-05
-4.98602e-05
9.31115e-07
-9.35579e-07
9.31659e-07
-9.35426e-07
-4.74502e-05
4.98643e-05
5.89549e-07
6.15158e-07
5.88157e-07
6.13539e-07
-6.22792e-07
-5.8745e-07
-6.20156e-07
4.74385e-05
-4.98339e-05
-9.05059e-07
9.0388e-07
-9.01806e-07
4.983e-05
4.7455e-05
-4.98608e-05
9.31143e-07
-9.35682e-07
9.3127e-07
-9.34948e-07
-4.74506e-05
4.98649e-05
5.89805e-07
6.13816e-07
5.8755e-07
6.12938e-07
-6.2114e-07
-5.867e-07
-6.19737e-07
4.74356e-05
-4.98344e-05
-9.01761e-07
9.03113e-07
-9.01121e-07
4.98302e-05
4.74543e-05
-4.98613e-05
9.30522e-07
-9.3496e-07
9.30893e-07
-9.35191e-07
-4.74497e-05
4.98647e-05
5.88901e-07
6.12875e-07
5.87194e-07
6.12521e-07
-6.20086e-07
-5.86833e-07
-6.19483e-07
4.7435e-05
-4.98348e-05
-9.01011e-07
9.02852e-07
-9.01036e-07
4.98303e-05
4.7454e-05
-4.98615e-05
9.30268e-07
-9.3561e-07
9.30824e-07
-9.34715e-07
-4.74504e-05
4.98652e-05
5.88762e-07
6.12711e-07
5.87067e-07
6.1231e-07
-6.20173e-07
-5.8622e-07
-6.19001e-07
4.74347e-05
-4.98349e-05
-9.01014e-07
9.02691e-07
-9.01213e-07
4.98302e-05
4.74539e-05
-4.98611e-05
9.30332e-07
-9.34546e-07
9.31133e-07
-9.34804e-07
-4.74494e-05
4.98651e-05
5.88621e-07
6.12508e-07
5.87272e-07
6.12468e-07
-6.19576e-07
-5.86577e-07
-6.1911e-07
4.74346e-05
-4.98345e-05
-9.01206e-07
9.03096e-07
-9.01608e-07
4.98298e-05
4.74543e-05
-4.98606e-05
9.30699e-07
-9.35363e-07
9.31532e-07
-9.35178e-07
-4.745e-05
4.98646e-05
5.89132e-07
6.12995e-07
5.8795e-07
6.13168e-07
-6.20231e-07
-5.87275e-07
-6.19951e-07
4.74351e-05
-4.98339e-05
-9.01898e-07
9.03528e-07
-9.0221e-07
4.98289e-05
4.74547e-05
-4.98605e-05
9.30928e-07
-9.35356e-07
9.31571e-07
-9.35226e-07
-4.74501e-05
4.98646e-05
5.89528e-07
6.13345e-07
5.88154e-07
6.13382e-07
-6.20758e-07
-5.8729e-07
-6.20243e-07
4.74355e-05
-4.98337e-05
-9.02409e-07
9.03815e-07
-9.02642e-07
4.98287e-05
4.74549e-05
-4.98601e-05
9.31144e-07
-9.35444e-07
9.31878e-07
-9.35666e-07
-4.74502e-05
4.9864e-05
5.89926e-07
6.13844e-07
5.88556e-07
6.14168e-07
-6.20987e-07
-5.87797e-07
-6.20211e-07
4.74359e-05
-4.98327e-05
-9.02649e-07
9.0456e-07
-9.0268e-07
4.98286e-05
4.74551e-05
-4.98605e-05
9.31276e-07
-9.3604e-07
9.31495e-07
-9.35742e-07
-4.74508e-05
4.9864e-05
5.90104e-07
6.1437e-07
5.88123e-07
6.1356e-07
-6.21142e-07
-5.87727e-07
-6.20402e-07
4.74365e-05
-4.98337e-05
-9.02845e-07
9.03765e-07
-9.02839e-07
4.98285e-05
4.74546e-05
-4.98609e-05
9.30806e-07
-9.35725e-07
9.31284e-07
-9.34907e-07
-4.74506e-05
4.98649e-05
5.89512e-07
6.13553e-07
5.87544e-07
6.12857e-07
-6.2097e-07
-5.86798e-07
-6.19652e-07
4.74354e-05
-4.98342e-05
-9.02766e-07
9.03236e-07
-9.02329e-07
4.98291e-05
4.74542e-05
-4.98611e-05
9.30725e-07
-9.34976e-07
9.31056e-07
-9.34967e-07
-4.74496e-05
4.98649e-05
5.8911e-07
6.13061e-07
5.87343e-07
6.12831e-07
-6.20498e-07
-5.86645e-07
-6.19321e-07
4.7435e-05
-4.98341e-05
-9.0234e-07
9.03374e-07
-9.02021e-07
4.98294e-05
4.7454e-05
-4.98613e-05
9.30417e-07
-9.35168e-07
9.30854e-07
-9.34951e-07
-4.74498e-05
4.98649e-05
5.88855e-07
6.12979e-07
5.86972e-07
6.12436e-07
-6.19861e-07
-5.86585e-07
-6.1911e-07
4.74351e-05
-4.98344e-05
-9.01921e-07
9.03072e-07
-9.01767e-07
4.98296e-05
4.74537e-05
-4.98608e-05
9.3023e-07
-9.35131e-07
9.31469e-07
-9.34833e-07
-4.74498e-05
4.98651e-05
5.88572e-07
6.12626e-07
5.87704e-07
6.12928e-07
-6.19979e-07
-5.86642e-07
-6.19407e-07
4.74348e-05
-4.98341e-05
-9.01856e-07
9.0338e-07
-9.02034e-07
4.98293e-05
4.74544e-05
-4.986e-05
9.30557e-07
-9.34407e-07
9.33042e-07
-9.36522e-07
-4.74494e-05
4.98642e-05
5.88862e-07
6.12655e-07
5.89487e-07
6.14655e-07
-6.19684e-07
-5.88676e-07
-6.21385e-07
4.74351e-05
-4.98334e-05
-9.0165e-07
9.04826e-07
-9.03597e-07
4.98284e-05
4.74546e-05
-4.98565e-05
9.28995e-07
-9.33313e-07
9.37946e-07
-9.4185e-07
-4.74501e-05
4.98605e-05
5.8724e-07
6.1107e-07
5.95811e-07
6.20881e-07
-6.18311e-07
-5.95158e-07
-6.2771e-07
4.74352e-05
-4.98299e-05
-9.00182e-07
9.09536e-07
-9.08495e-07
4.98251e-05
4.74505e-05
-4.98432e-05
9.21877e-07
-9.26541e-07
9.46717e-07
-9.50997e-07
-4.74462e-05
4.98472e-05
5.80179e-07
6.03842e-07
6.07171e-07
6.32309e-07
-6.11073e-07
-6.06507e-07
-6.39876e-07
4.74311e-05
-4.98169e-05
-8.93114e-07
9.18403e-07
-9.17538e-07
4.9812e-05
4.74239e-05
-4.96994e-05
9.06719e-07
-9.11716e-07
9.42303e-07
-9.46279e-07
-4.74199e-05
4.97032e-05
5.69528e-07
5.93076e-07
6.04163e-07
6.2943e-07
-6.01318e-07
-6.03294e-07
-6.38473e-07
4.74037e-05
-4.96736e-05
-8.78375e-07
9.13986e-07
-9.13163e-07
4.96684e-05
4.72501e-05
-4.9728e-05
9.18607e-07
-9.2279e-07
8.93413e-07
-8.97847e-07
-4.72453e-05
4.97318e-05
5.88153e-07
6.10758e-07
4.95182e-07
5.20895e-07
-6.20291e-07
-4.94588e-07
-5.27098e-07
4.72293e-05
-4.97025e-05
-8.90104e-07
8.64722e-07
-8.64519e-07
4.96965e-05
4.73117e-05
-4.92164e-05
1.00709e-06
-1.01211e-06
7.72985e-07
-7.78044e-07
-4.73063e-05
4.9221e-05
7.17046e-07
7.40119e-07
3.24819e-07
3.49461e-07
-7.48458e-07
-3.24441e-07
-3.57193e-07
4.72912e-05
-4.91896e-05
-9.7895e-07
7.45066e-07
-7.44419e-07
4.91851e-05
4.66827e-05
-4.89402e-05
1.11389e-06
-1.11847e-06
5.28853e-07
-5.35369e-07
-4.66763e-05
4.8944e-05
9.08874e-07
9.30323e-07
1.55811e-08
4.24902e-08
-9.38885e-07
-1.46993e-08
-4.81192e-08
4.66628e-05
-4.89146e-05
-1.08585e-06
5.01058e-07
-5.01661e-07
4.89087e-05
4.62476e-05
-4.78381e-05
1.39383e-06
-1.39921e-06
-1.7894e-08
1.01502e-08
-4.62425e-05
4.78413e-05
1.32446e-06
1.34745e-06
-6.48245e-07
-6.17287e-07
-1.35289e-06
6.49071e-07
6.21903e-07
4.62279e-05
-4.78147e-05
-1.36657e-06
-4.41548e-08
4.20618e-08
4.7808e-05
4.5005e-05
-4.49918e-05
2.03343e-06
-2.03859e-06
-1.26904e-06
1.25764e-06
-4.50039e-05
4.49951e-05
2.18621e-06
2.21142e-06
-2.04051e-06
-2.00651e-06
-2.20984e-06
2.03253e-06
2.00521e-06
4.49908e-05
-4.49674e-05
-2.00693e-06
-1.28978e-06
1.28519e-06
4.49535e-05
4.13209e-05
-3.64905e-05
3.34712e-06
-3.3567e-06
-5.22389e-06
5.20051e-06
-4.1323e-05
3.64623e-05
3.79126e-06
3.81506e-06
-6.82616e-06
-6.80149e-06
-3.82036e-06
6.80259e-06
6.79043e-06
4.13184e-05
-3.64686e-05
-3.32542e-06