/*--------------------------------*- C++ -*----------------------------------*\
| =========                 |                                                 |
| \\      /  F ield         | OpenFOAM: The Open Source CFD Toolbox           |
|  \\    /   O peration     | Version:  2206                                  |
|   \\  /    A nd           | Website:  www.openfoam.com                      |
|    \\/     M anipulation  |                                                 |
\*---------------------------------------------------------------------------*/
FoamFile
{
    version     2.0;
    format      ascii;
    arch        "LSB;label=32;scalar=64";
    class       surfaceScalarField;
    location    "15";
    object      phi;
}
// * * * * * * * * * * * * * * * * * * * * * * * * * * * * * * * * * * * * * //

dimensions      [0 3 -1 0 0 0 0];

oriented        oriented;

internalField   nonuniform List<scalar> 
82026
(
1.12379e-09
1.26762e-09
-0.00107159
-1.1501e-09
-1.10054e-09
0.00107159
-0.00107214
-1.18019e-06
-1.31847e-09
1.85295e-09
0.00107214
-2.32827e-07
1.18216e-06
2.32108e-07
8.58699e-07
-2.23167e-07
-8.58539e-07
2.21499e-07
-0.00107181
-1.17484e-06
-1.44446e-09
1.752e-09
0.00107181
-2.32796e-07
1.17683e-06
2.32157e-07
8.58562e-07
-2.25758e-07
-8.58394e-07
2.24219e-07
-0.000263623
1.20808e-06
1.17496e-06
-2.17205e-07
-2.22405e-07
0.00026168
1.41902e-09
1.47977e-09
-0.00107159
-1.27542e-09
-1.29708e-09
0.00107159
-0.00107214
-1.18011e-06
-1.50717e-09
1.64121e-09
0.00107214
-2.32734e-07
1.18226e-06
2.32243e-07
8.58773e-07
-2.2305e-07
-8.58478e-07
2.21647e-07
-0.0010718
-1.17477e-06
-1.59897e-09
1.62795e-09
0.0010718
-2.32707e-07
1.17688e-06
2.32226e-07
8.58578e-07
-2.2566e-07
-8.58354e-07
2.24294e-07
-0.000263622
1.20803e-06
1.17489e-06
-2.171e-07
-2.22312e-07
0.000261679
1.50899e-09
1.15223e-09
-0.00107159
-1.11776e-09
-1.50541e-09
0.00107159
-0.00107214
-1.18e-06
-8.75784e-10
1.32836e-09
0.00107214
-2.3262e-07
1.18231e-06
2.3228e-07
8.58468e-07
-2.23156e-07
-8.58688e-07
2.21443e-07
-0.0010718
-1.175e-06
-8.98464e-11
2.18202e-09
0.0010718
-2.33017e-07
1.17661e-06
2.31858e-07
8.58081e-07
-2.26113e-07
-8.58812e-07
2.23715e-07
-0.000263622
1.20832e-06
1.17514e-06
-2.1737e-07
-2.22614e-07
0.000261678
2.60994e-10
5.24512e-10
-0.00107159
-7.70958e-10
-6.36856e-10
0.00107159
-0.00107214
-1.18042e-06
-6.27671e-10
2.25873e-09
0.00107214
-2.33119e-07
1.18207e-06
2.32003e-07
8.58601e-07
-2.23822e-07
-8.58814e-07
2.21105e-07
-0.00107181
-1.17498e-06
-9.54118e-10
1.95772e-09
0.00107181
-2.32962e-07
1.17679e-06
2.32115e-07
8.58499e-07
-2.26233e-07
-8.5861e-07
2.23957e-07
-0.000263623
1.2082e-06
1.1751e-06
-2.17377e-07
-2.22557e-07
0.000261679
9.42735e-10
1.08768e-09
-0.00107159
-1.0515e-09
-9.88308e-10
0.00107159
-0.00107214
-1.18026e-06
-1.12891e-09
1.91153e-09
0.00107214
-2.32911e-07
1.18218e-06
2.32137e-07
8.58692e-07
-2.23359e-07
-8.58683e-07
2.21445e-07
-0.00107181
-1.17493e-06
-1.32849e-09
1.90879e-09
0.00107181
-2.32911e-07
1.17681e-06
2.32134e-07
8.58584e-07
-2.25939e-07
-8.58491e-07
2.24157e-07
-0.000263623
1.20813e-06
1.17504e-06
-2.17297e-07
-2.22456e-07
0.00026168
1.01889e-09
1.10763e-09
-0.00107159
-1.06872e-09
-1.05746e-09
0.00107159
-0.00107214
-1.18024e-06
-1.13503e-09
1.85478e-09
0.00107214
-2.329e-07
1.18219e-06
2.32148e-07
8.58694e-07
-2.23358e-07
-8.58681e-07
2.21445e-07
-0.00107181
-1.17491e-06
-1.22338e-09
1.86935e-09
0.00107181
-2.329e-07
1.17683e-06
2.3215e-07
8.58544e-07
-2.25972e-07
-8.58537e-07
2.24132e-07
-0.000263623
1.20814e-06
1.17503e-06
-2.17288e-07
-2.22472e-07
0.00026168
1.0388e-09
1.10532e-09
-0.00107159
-1.07135e-09
-1.0846e-09
0.00107159
-0.00107214
-1.18024e-06
-1.12045e-09
1.83244e-09
0.00107214
-2.32898e-07
1.1822e-06
2.32151e-07
8.5869e-07
-2.23362e-07
-8.58685e-07
2.21442e-07
-0.00107181
-1.17491e-06
-1.15764e-09
1.84063e-09
0.00107181
-2.32894e-07
1.17684e-06
2.32155e-07
8.58522e-07
-2.25987e-07
-8.58557e-07
2.24113e-07
-0.000263623
1.20816e-06
1.17503e-06
-2.17282e-07
-2.22485e-07
0.00026168
1.04172e-09
1.09903e-09
-0.00107159
-1.0678e-09
-1.091e-09
0.00107159
-0.00107214
-1.18024e-06
-1.11827e-09
1.82671e-09
0.00107214
-2.32897e-07
1.1822e-06
2.32151e-07
8.5869e-07
-2.23362e-07
-8.58685e-07
2.21442e-07
-0.00107181
-1.17491e-06
-1.1442e-09
1.8394e-09
0.00107181
-2.32893e-07
1.17684e-06
2.32156e-07
8.58523e-07
-2.25991e-07
-8.58559e-07
2.24111e-07
-0.000263623
1.20816e-06
1.17503e-06
-2.17282e-07
-2.22488e-07
0.00026168
1.03712e-09
1.09217e-09
-0.00107159
-1.06342e-09
-1.08902e-09
0.00107159
-0.00107214
-1.18024e-06
-1.1164e-09
1.82573e-09
0.00107214
-2.32897e-07
1.1822e-06
2.32152e-07
8.58689e-07
-2.23363e-07
-8.58686e-07
2.2144e-07
-0.00107181
-1.17491e-06
-1.13826e-09
1.84315e-09
0.00107181
-2.32894e-07
1.17684e-06
2.32155e-07
8.58521e-07
-2.25994e-07
-8.5856e-07
2.24109e-07
-0.000263623
1.20816e-06
1.17503e-06
-2.17283e-07
-2.2249e-07
0.00026168
1.03876e-09
1.09711e-09
-0.00107159
-1.06711e-09
-1.08895e-09
0.00107159
-0.00107214
-1.18024e-06
-1.11534e-09
1.82738e-09
0.00107214
-2.32898e-07
1.1822e-06
2.32151e-07
8.5869e-07
-2.23363e-07
-8.58686e-07
2.21441e-07
-0.00107181
-1.17491e-06
-1.14657e-09
1.84011e-09
0.00107181
-2.32891e-07
1.17684e-06
2.32157e-07
8.58523e-07
-2.25993e-07
-8.58559e-07
2.2411e-07
-0.000263623
1.20816e-06
1.17503e-06
-2.17282e-07
-2.22488e-07
0.00026168
1.04336e-09
1.10156e-09
-0.00107159
-1.07058e-09
-1.09281e-09
0.00107159
-0.00107214
-1.18024e-06
-1.11698e-09
1.82456e-09
0.00107214
-2.32896e-07
1.1822e-06
2.32152e-07
8.58689e-07
-2.23363e-07
-8.58686e-07
2.2144e-07
-0.00107181
-1.17491e-06
-1.1464e-09
1.83961e-09
0.00107181
-2.32892e-07
1.17684e-06
2.32157e-07
8.58522e-07
-2.25992e-07
-8.58558e-07
2.2411e-07
-0.000263623
1.20816e-06
1.17503e-06
-2.17283e-07
-2.22489e-07
0.00026168
1.04676e-09
1.10371e-09
-0.00107159
-1.07003e-09
-1.09418e-09
0.00107159
-0.00107214
-1.18024e-06
-1.12621e-09
1.82108e-09
0.00107214
-2.32895e-07
1.1822e-06
2.32154e-07
8.58692e-07
-2.23361e-07
-8.58684e-07
2.21443e-07
-0.00107181
-1.17491e-06
-1.14827e-09
1.84022e-09
0.00107181
-2.32891e-07
1.17684e-06
2.32158e-07
8.58523e-07
-2.25992e-07
-8.58558e-07
2.2411e-07
-0.000263623
1.20816e-06
1.17503e-06
-2.17281e-07
-2.22487e-07
0.00026168
1.04989e-09
1.10865e-09
-0.00107159
-1.07325e-09
-1.09429e-09
0.00107159
-0.00107214
-1.18024e-06
-1.12875e-09
1.82208e-09
0.00107214
-2.32895e-07
1.1822e-06
2.32153e-07
8.58693e-07
-2.2336e-07
-8.58683e-07
2.21443e-07
-0.00107181
-1.1749e-06
-1.1577e-09
1.83522e-09
0.00107181
-2.3289e-07
1.17684e-06
2.32159e-07
8.58525e-07
-2.2599e-07
-8.58556e-07
2.24113e-07
-0.000263623
1.20816e-06
1.17503e-06
-2.1728e-07
-2.22486e-07
0.00026168
1.04902e-09
1.1085e-09
-0.00107159
-1.07392e-09
-1.09452e-09
0.00107159
-0.00107214
-1.18024e-06
-1.12388e-09
1.82282e-09
0.00107214
-2.32896e-07
1.1822e-06
2.32153e-07
8.58692e-07
-2.23362e-07
-8.58685e-07
2.21443e-07
-0.00107181
-1.1749e-06
-1.15388e-09
1.83545e-09
0.00107181
-2.3289e-07
1.17684e-06
2.32159e-07
8.58524e-07
-2.2599e-07
-8.58557e-07
2.24112e-07
-0.000263623
1.20816e-06
1.17503e-06
-2.17281e-07
-2.22487e-07
0.00026168
1.04926e-09
1.10353e-09
-0.00107159
-1.07069e-09
-1.09642e-09
0.00107159
-0.00107214
-1.18024e-06
-1.12238e-09
1.82316e-09
0.00107214
-2.32895e-07
1.1822e-06
2.3215e-07
8.5869e-07
-2.23362e-07
-8.58684e-07
2.21439e-07
-0.00107181
-1.17491e-06
-1.1477e-09
1.83878e-09
0.00107181
-2.32892e-07
1.17684e-06
2.32158e-07
8.58524e-07
-2.25994e-07
-8.58559e-07
2.24112e-07
-0.000263623
1.20816e-06
1.17503e-06
-2.17282e-07
-2.22488e-07
0.00026168
1.03982e-09
1.09204e-09
-0.00107159
-1.06019e-09
-1.0924e-09
0.00107159
-0.00107214
-1.18024e-06
-1.12397e-09
1.8227e-09
0.00107214
-2.32898e-07
1.1822e-06
2.32151e-07
8.58691e-07
-2.23362e-07
-8.58683e-07
2.2144e-07
-0.00107181
-1.17491e-06
-1.14044e-09
1.84484e-09
0.00107181
-2.32888e-07
1.17683e-06
2.32152e-07
8.5852e-07
-2.25985e-07
-8.58555e-07
2.24104e-07
-0.000263623
1.20816e-06
1.17503e-06
-2.17282e-07
-2.2249e-07
0.00026168
1.05616e-09
1.08306e-09
-0.00107159
-1.05262e-09
-1.10271e-09
0.00107159
-0.00107214
-1.18023e-06
-1.13564e-09
1.81097e-09
0.00107214
-2.32878e-07
1.18219e-06
2.32138e-07
8.58671e-07
-2.23334e-07
-8.58665e-07
2.21414e-07
-0.00107181
-1.1749e-06
-1.15024e-09
1.85246e-09
0.00107181
-2.32882e-07
1.17683e-06
2.32145e-07
8.58506e-07
-2.25974e-07
-8.58542e-07
2.24094e-07
-0.000263623
1.20816e-06
1.17502e-06
-2.17274e-07
-2.22485e-07
0.00026168
1.13409e-09
-0.00107159
-1.1744e-09
-0.00107181
-1.17487e-06
-1.24293e-09
-2.32843e-07
1.17681e-06
2.32112e-07
-2.25887e-07
2.24092e-07
-1.21533e-06
-1.17953e-06
0.000263639
-0.000261685
2.1667e-07
2.24373e-07
0.00107137
-1.11392e-09
1.89344e-09
-1.21339e-06
2.37431e-07
-2.38204e-07
-8.58546e-07
2.21343e-07
-2.23209e-07
8.58582e-07
1.22072e-06
0.0010718
-1.01213e-09
1.87363e-09
-1.21877e-06
2.40204e-07
-2.40962e-07
-8.64102e-07
2.24097e-07
-2.26028e-07
8.64095e-07
-1.18215e-06
0.000263667
-0.000261705
2.19406e-07
2.21702e-07
0.00107241
-1.22937e-09
1.86645e-09
-1.17761e-06
2.3487e-07
-2.35615e-07
-8.61272e-07
2.24169e-07
-2.25984e-07
8.61398e-07
1.21538e-06
0.00107148
-1.10242e-09
-0.00107148
1.84438e-09
-1.21344e-06
2.40186e-07
-2.40932e-07
-8.61237e-07
2.24121e-07
-2.259e-07
8.61273e-07
-1.24667e-09
1.8633e-09
-1.1802e-06
2.32102e-07
-2.32845e-07
-8.58569e-07
2.21442e-07
8.58674e-07
-2.23232e-07
1.21005e-06
0.00107128
-1.15416e-09
-0.00107128
1.83585e-09
-1.2081e-06
2.34717e-07
-2.35424e-07
-8.58567e-07
2.21382e-07
-2.23158e-07
8.58617e-07
-1.1768e-06
0.000263618
-0.000261667
2.16863e-07
2.24192e-07
-1.31962e-09
-0.00107181
1.81339e-09
-1.17485e-06
2.32122e-07
-2.32817e-07
-8.5838e-07
2.24132e-07
8.58574e-07
-2.25837e-07
1.1769e-06
0.00107231
-1.14981e-09
-0.00107231
1.787e-09
-1.17497e-06
2.32166e-07
-2.32883e-07
-8.58677e-07
2.24179e-07
-2.25935e-07
8.58786e-07
-0.00026168
2.19173e-07
2.24411e-07
1.21338e-06
1.17761e-06
-2.14736e-07
-2.22384e-07
0.000261685
-1.21539e-06
-1.1796e-06
0.000263638
-0.000261684
2.16763e-07
2.24453e-07
1.87989e-09
0.00107137
-2.38185e-07
1.21533e-06
2.37433e-07
8.58595e-07
-2.23152e-07
-8.58527e-07
2.21387e-07
-1.21876e-06
-1.05064e-09
1.85643e-09
0.0010718
-2.40942e-07
1.22072e-06
2.40206e-07
8.6412e-07
-2.25964e-07
-8.64071e-07
2.24149e-07
0.00107137
-1.45812e-09
-0.00107137
1.73173e-09
-1.21333e-06
2.37511e-07
-2.38121e-07
-8.58466e-07
2.21506e-07
-2.23029e-07
8.58661e-07
1.22078e-06
0.0010718
-1.36555e-09
-0.0010718
1.73043e-09
-1.21871e-06
2.40281e-07
-2.40883e-07
-8.64024e-07
2.24264e-07
-2.25848e-07
8.64174e-07
-2.17434e-07
-2.19707e-07
0.000261705
-1.18223e-06
0.000263667
-0.000261705
2.19501e-07
2.21781e-07
1.86459e-09
0.00107241
-2.356e-07
1.17953e-06
2.34871e-07
8.61421e-07
-2.25924e-07
-8.61235e-07
2.24217e-07
-1.21342e-06
-1.23746e-09
1.78156e-09
0.00107148
-2.40908e-07
1.21541e-06
2.40223e-07
8.61318e-07
-2.25846e-07
-8.61203e-07
2.24189e-07
0.00107241
-1.50212e-09
-0.00107241
1.654e-09
-1.17754e-06
2.34962e-07
-2.35525e-07
-8.61207e-07
2.2432e-07
-2.25813e-07
8.61456e-07
1.21546e-06
0.00107148
-1.37644e-09
-0.00107148
1.76026e-09
-1.21337e-06
2.40295e-07
-2.40848e-07
-8.61158e-07
2.24293e-07
-2.2576e-07
8.61385e-07
-1.29335e-09
1.76095e-09
0.00107128
-2.354e-07
1.21008e-06
2.34756e-07
8.58658e-07
-2.23098e-07
2.21451e-07
-8.58527e-07
-1.4926e-09
-0.00107214
1.6543e-09
-1.18013e-06
2.32194e-07
-2.32752e-07
-8.58512e-07
2.21595e-07
8.58753e-07
-2.23073e-07
1.21013e-06
0.00107128
-1.39534e-09
-0.00107128
1.75705e-09
-1.20803e-06
2.34827e-07
-2.3534e-07
-8.58498e-07
2.21544e-07
-2.23025e-07
8.58714e-07
-2.14888e-07
-2.2219e-07
0.000261667
-1.17689e-06
0.000263617
-0.000261666
2.17003e-07
2.24313e-07
-1.28964e-09
1.71725e-09
0.00107231
-2.32859e-07
1.17693e-06
2.32206e-07
8.58831e-07
-2.25874e-07
2.2425e-07
-8.58638e-07
-1.51142e-09
-0.0010718
1.67258e-09
-1.17478e-06
2.32244e-07
-2.32723e-07
-8.58319e-07
2.24283e-07
8.58664e-07
-2.25712e-07
1.17699e-06
0.00107231
-1.35547e-09
-0.00107231
1.66423e-09
-1.1749e-06
2.32285e-07
-2.32793e-07
-8.58613e-07
2.24334e-07
-2.25808e-07
8.58877e-07
-0.000261679
2.19306e-07
2.24535e-07
1.21331e-06
1.17752e-06
-2.14638e-07
-2.22303e-07
0.000261684
-1.21559e-06
-1.17986e-06
0.000263638
-0.000261684
2.17054e-07
2.24695e-07
1.75651e-09
0.00107137
-2.38101e-07
1.21541e-06
2.37554e-07
8.5871e-07
-2.23017e-07
-8.58452e-07
2.21565e-07
-1.2187e-06
-1.35337e-09
1.75671e-09
0.0010718
-2.40863e-07
1.2208e-06
2.40323e-07
8.64231e-07
-2.25828e-07
-8.63999e-07
2.24327e-07
0.00107137
-2.1511e-09
-0.00107137
1.46888e-09
-1.21319e-06
2.37743e-07
-2.37964e-07
-8.58259e-07
2.21816e-07
-2.22831e-07
8.5896e-07
1.22095e-06
0.0010718
-2.08663e-09
-0.0010718
1.53041e-09
-1.21858e-06
2.40493e-07
-2.40736e-07
-8.63811e-07
2.24574e-07
-2.25645e-07
8.64477e-07
-2.1734e-07
-2.19625e-07
0.000261705
-1.18247e-06
0.000263666
-0.000261704
2.19787e-07
2.21993e-07
1.65294e-09
0.0010724
-2.35499e-07
1.17964e-06
2.35014e-07
8.61508e-07
-2.25804e-07
-8.61185e-07
2.24378e-07
-1.21337e-06
-1.47786e-09
1.75531e-09
0.00107148
-2.40838e-07
1.21543e-06
2.40268e-07
8.61355e-07
-2.25729e-07
-8.61141e-07
2.24282e-07
0.0010724
-1.88491e-09
-0.0010724
1.0864e-09
-1.17735e-06
2.35246e-07
-2.3532e-07
-8.61061e-07
2.24563e-07
-2.25669e-07
8.61677e-07
1.21539e-06
0.00107148
-1.3618e-09
-0.00107148
2.12697e-09
-1.21335e-06
2.40212e-07
-2.40836e-07
-8.61088e-07
2.24297e-07
-2.25671e-07
8.61353e-07
-1.50943e-09
1.73547e-09
0.00107128
-2.35331e-07
1.21011e-06
2.34801e-07
8.58688e-07
-2.2299e-07
2.21538e-07
-8.58476e-07
-1.71381e-09
-0.00107214
1.11127e-09
-1.17995e-06
2.32463e-07
-2.32567e-07
-8.5838e-07
2.2176e-07
8.58865e-07
-2.22964e-07
1.21007e-06
0.00107127
-1.3065e-09
-0.00107128
2.10071e-09
-1.20801e-06
2.34747e-07
-2.35325e-07
-8.5844e-07
2.21528e-07
-2.22948e-07
8.58654e-07
-2.14776e-07
-2.22096e-07
0.000261666
-1.17688e-06
0.000263616
-0.000261665
2.17007e-07
2.24271e-07
-1.4565e-09
1.61447e-09
0.00107231
-2.32776e-07
1.17698e-06
2.32268e-07
8.58847e-07
-2.25775e-07
2.24326e-07
-8.58596e-07
-1.16469e-09
-0.0010718
1.71096e-09
-1.17471e-06
2.32213e-07
-2.32663e-07
-8.58304e-07
2.24226e-07
8.58555e-07
-2.2567e-07
1.17697e-06
0.00107231
-1.03856e-09
-0.00107231
1.73728e-09
-1.17484e-06
2.32249e-07
-2.32735e-07
-8.58593e-07
2.2428e-07
-2.25763e-07
8.58775e-07
-0.000261678
2.19302e-07
2.24495e-07
1.21327e-06
1.17741e-06
-2.1446e-07
-2.22184e-07
0.000261683
-1.21516e-06
-1.17935e-06
0.000263638
-0.000261684
2.16362e-07
2.24078e-07
1.86516e-09
0.00107137
-2.38058e-07
1.21537e-06
2.37504e-07
8.58651e-07
-2.22919e-07
-8.58387e-07
2.2156e-07
-1.2187e-06
-1.49651e-09
1.95813e-09
0.0010718
-2.40849e-07
1.22071e-06
2.40239e-07
8.64183e-07
-2.25725e-07
-8.63925e-07
2.24335e-07
0.00107137
7.69462e-11
-0.00107137
2.3574e-09
-1.2137e-06
2.37192e-07
-2.38624e-07
-8.59031e-07
2.20702e-07
-2.24029e-07
8.5831e-07
1.22056e-06
0.0010718
1.37843e-10
-0.0010718
2.32607e-09
-1.21907e-06
2.39973e-07
-2.41376e-07
-8.64571e-07
2.23469e-07
-2.2683e-07
8.63835e-07
-2.17157e-07
-2.19554e-07
0.000261704
-1.18196e-06
0.000263667
-0.000261705
2.19094e-07
2.21419e-07
1.34437e-09
0.0010724
-2.35391e-07
1.17967e-06
2.35033e-07
8.61338e-07
-2.2579e-07
-8.61222e-07
2.24283e-07
-1.21366e-06
-4.52454e-10
2.75987e-09
0.00107148
-2.4121e-07
1.2151e-06
2.39833e-07
8.60971e-07
-2.26096e-07
-8.61489e-07
2.23798e-07
0.00107241
-6.61687e-11
-0.0010724
2.41679e-09
-1.17793e-06
2.3462e-07
-2.36035e-07
-8.6175e-07
2.2354e-07
-2.26805e-07
8.61145e-07
1.21534e-06
0.00107148
-3.14774e-10
-0.00107148
1.99608e-09
-1.21363e-06
2.40126e-07
-2.41181e-07
-8.61565e-07
2.23699e-07
-2.26578e-07
8.61141e-07
-3.39059e-10
2.66904e-09
0.00107127
-2.35694e-07
1.20978e-06
2.34379e-07
8.58247e-07
-2.23395e-07
2.21009e-07
-8.58874e-07
-1.85493e-10
-0.00107214
2.42632e-09
-1.18054e-06
2.3184e-07
-2.3328e-07
-8.58959e-07
2.2084e-07
8.58488e-07
-2.2403e-07
1.21e-06
0.00107128
-3.80592e-10
-0.00107128
2.02977e-09
-1.2083e-06
2.34654e-07
-2.35677e-07
-8.58881e-07
2.20963e-07
-2.23833e-07
8.58493e-07
-2.15027e-07
-2.22403e-07
0.000261665
-1.17674e-06
0.000263618
-0.000261666
2.16726e-07
2.2407e-07
1.71612e-11
2.21417e-09
0.00107231
-2.33097e-07
1.17669e-06
2.3189e-07
8.58352e-07
-2.26228e-07
2.23748e-07
-8.59048e-07
-5.8871e-10
-0.0010718
2.06693e-09
-1.17505e-06
2.32049e-07
-2.33067e-07
-8.58693e-07
2.23718e-07
8.58466e-07
-2.26515e-07
1.17684e-06
0.00107231
-4.04622e-10
-0.00107231
2.05063e-09
-1.17517e-06
2.32095e-07
-2.33134e-07
-8.58996e-07
2.23768e-07
-2.26611e-07
8.58672e-07
-0.000261679
2.19039e-07
2.24285e-07
1.21358e-06
1.17783e-06
-2.15039e-07
-2.22666e-07
0.000261685
-1.21535e-06
-1.17955e-06
0.000263639
-0.000261685
2.1667e-07
2.24383e-07
2.14289e-09
0.00107137
-2.3845e-07
1.21527e-06
2.37356e-07
8.58462e-07
-2.23851e-07
-8.5886e-07
2.20952e-07
-1.21895e-06
-1.74858e-10
2.09454e-09
0.0010718
-2.41199e-07
1.22067e-06
2.40136e-07
8.63984e-07
-2.2666e-07
-8.644e-07
2.23713e-07
0.00107137
-9.1124e-10
-0.00107137
1.91805e-09
-1.21344e-06
2.3747e-07
-2.38262e-07
-8.58669e-07
2.21322e-07
-2.23364e-07
8.58585e-07
1.22075e-06
0.0010718
-8.00665e-10
-0.0010718
1.89542e-09
-1.21882e-06
2.40242e-07
-2.41019e-07
-8.64229e-07
2.24074e-07
-2.26187e-07
8.64094e-07
-2.17739e-07
-2.19972e-07
0.000261705
-1.18217e-06
0.000263667
-0.000261705
2.19407e-07
2.21716e-07
2.25935e-09
0.00107241
-2.35887e-07
1.17944e-06
2.34767e-07
8.61319e-07
-2.26595e-07
-8.61535e-07
2.23813e-07
-1.21353e-06
-6.1226e-10
1.82666e-09
0.00107148
-2.41046e-07
1.21541e-06
2.40214e-07
8.61211e-07
-2.26347e-07
-8.6146e-07
2.23899e-07
0.00107241
-1.07045e-09
-0.00107241
1.93966e-09
-1.17768e-06
2.34899e-07
-2.35688e-07
-8.61387e-07
2.24159e-07
-2.26123e-07
8.61403e-07
1.21544e-06
0.00107148
-9.04652e-10
-0.00107148
1.79651e-09
-1.21347e-06
2.40243e-07
-2.40979e-07
-8.61383e-07
2.24067e-07
-2.26092e-07
8.61261e-07
-6.89571e-10
1.84258e-09
0.00107128
-2.35543e-07
1.21007e-06
2.34744e-07
8.58558e-07
-2.23592e-07
2.21165e-07
-8.58774e-07
-1.11301e-09
-0.00107214
1.93387e-09
-1.18027e-06
2.32134e-07
-2.32916e-07
-8.58691e-07
2.21437e-07
8.58685e-07
-2.23376e-07
1.21011e-06
0.00107128
-9.65978e-10
-0.00107128
1.78992e-09
-1.20813e-06
2.34776e-07
-2.35474e-07
-8.58711e-07
2.21328e-07
-2.23349e-07
8.58602e-07
-2.1506e-07
-2.22337e-07
0.000261667
-1.17681e-06
0.000263618
-0.000261667
2.16848e-07
2.24223e-07
-7.84597e-10
1.92585e-09
0.00107231
-2.33023e-07
1.17689e-06
2.32166e-07
8.58763e-07
-2.26349e-07
2.23987e-07
-8.58859e-07
-1.33519e-09
-0.00107181
1.90109e-09
-1.17493e-06
2.32138e-07
-2.32904e-07
-8.58452e-07
2.24134e-07
8.58636e-07
-2.25971e-07
1.17691e-06
0.00107231
-1.1286e-09
-0.00107231
1.87899e-09
-1.17505e-06
2.32185e-07
-2.32971e-07
-8.58768e-07
2.2417e-07
-2.26082e-07
8.58826e-07
-0.00026168
2.19161e-07
2.2444e-07
1.21344e-06
1.17767e-06
-2.1481e-07
-2.22452e-07
0.000261685
-1.21536e-06
-1.17957e-06
0.000263639
-0.000261685
2.16691e-07
2.24387e-07
1.91319e-09
0.00107137
-2.3826e-07
1.21536e-06
2.37469e-07
8.58591e-07
-2.23342e-07
-8.58665e-07
2.21338e-07
-1.21882e-06
-8.58514e-10
1.89395e-09
0.0010718
-2.4102e-07
1.22075e-06
2.4024e-07
8.64109e-07
-2.26157e-07
-8.64214e-07
2.24098e-07
0.00107137
-1.0339e-09
-0.00107137
1.91472e-09
-1.21344e-06
2.37468e-07
-2.38263e-07
-8.58643e-07
2.21356e-07
-2.23316e-07
8.58609e-07
1.22074e-06
0.0010718
-9.28911e-10
-0.0010718
1.90382e-09
-1.21882e-06
2.40237e-07
-2.41024e-07
-8.64199e-07
2.24111e-07
-2.26135e-07
8.64122e-07
-2.17508e-07
-2.19773e-07
0.000261705
-1.18219e-06
0.000263667
-0.000261705
2.19429e-07
2.21712e-07
1.92091e-09
0.00107241
-2.35682e-07
1.17955e-06
2.34902e-07
8.61409e-07
-2.2611e-07
-8.61378e-07
2.24169e-07
-1.21347e-06
-9.38211e-10
1.81488e-09
0.00107148
-2.40984e-07
1.21544e-06
2.40239e-07
8.61275e-07
-2.26083e-07
-8.61372e-07
2.24079e-07
0.00107241
-1.11952e-09
-0.00107241
1.86712e-09
-1.17766e-06
2.34913e-07
-2.3567e-07
-8.61381e-07
2.24176e-07
-2.26095e-07
8.61411e-07
1.21542e-06
0.00107148
-9.92359e-10
-0.00107148
1.86869e-09
-1.21349e-06
2.40226e-07
-2.41e-07
-8.61356e-07
2.2409e-07
-2.26067e-07
8.61289e-07
-9.93034e-10
1.79294e-09
0.00107128
-2.35473e-07
1.21011e-06
2.34777e-07
8.58612e-07
-2.23336e-07
2.21339e-07
-8.58699e-07
-1.14336e-09
-0.00107214
1.86364e-09
-1.18025e-06
2.32149e-07
-2.32899e-07
-8.58683e-07
2.21445e-07
8.58691e-07
-2.23358e-07
1.2101e-06
0.00107128
-1.03004e-09
-0.00107128
1.84334e-09
-1.20814e-06
2.34765e-07
-2.35485e-07
-8.58693e-07
2.21344e-07
-2.23331e-07
8.5862e-07
-2.14982e-07
-2.22239e-07
0.000261667
-1.17683e-06
0.000263618
-0.000261667
2.16867e-07
2.24204e-07
-1.16534e-09
1.87486e-09
0.00107231
-2.32971e-07
1.17692e-06
2.32186e-07
8.58844e-07
-2.26062e-07
2.24187e-07
-8.58748e-07
-1.2455e-09
-0.00107181
1.88859e-09
-1.17492e-06
2.32147e-07
-2.32902e-07
-8.58488e-07
2.24108e-07
8.58596e-07
-2.25991e-07
1.17692e-06
0.00107231
-1.08498e-09
-0.00107231
1.84831e-09
-1.17504e-06
2.32189e-07
-2.32973e-07
-8.58766e-07
2.24164e-07
-2.26078e-07
8.58816e-07
-0.00026168
2.19173e-07
2.24431e-07
1.21344e-06
1.17766e-06
-2.14796e-07
-2.22452e-07
0.000261685
-1.21536e-06
-1.17957e-06
0.000263639
-0.000261685
2.16694e-07
2.24386e-07
1.91608e-09
0.00107137
-2.38264e-07
1.21536e-06
2.37467e-07
8.58607e-07
-2.23322e-07
-8.5865e-07
2.21354e-07
-1.21882e-06
-9.40099e-10
1.90262e-09
0.0010718
-2.41025e-07
1.22075e-06
2.40237e-07
8.64128e-07
-2.26133e-07
-8.64195e-07
2.24116e-07
0.00107137
-1.06081e-09
-0.00107137
1.91732e-09
-1.21344e-06
2.37467e-07
-2.38264e-07
-8.5864e-07
2.2136e-07
-2.23313e-07
8.58613e-07
1.22074e-06
0.0010718
-9.56649e-10
-0.0010718
1.9129e-09
-1.21882e-06
2.40235e-07
-2.41027e-07
-8.64195e-07
2.24115e-07
-2.26132e-07
8.64126e-07
-2.17492e-07
-2.19777e-07
0.000261705
-1.18219e-06
0.000263667
-0.000261705
2.19431e-07
2.21709e-07
1.86504e-09
0.00107241
-2.35672e-07
1.17957e-06
2.34913e-07
8.61413e-07
-2.26103e-07
-8.61375e-07
2.24173e-07
-1.21349e-06
-1.00232e-09
1.88905e-09
0.00107148
-2.41004e-07
1.21542e-06
2.40222e-07
8.61295e-07
-2.26067e-07
-8.61353e-07
2.24095e-07
0.00107241
-1.11756e-09
-0.00107241
1.83928e-09
-1.17765e-06
2.34918e-07
-2.35666e-07
-8.61382e-07
2.24175e-07
-2.26097e-07
8.6141e-07
1.21541e-06
0.00107148
-1.00822e-09
-0.00107148
1.91813e-09
-1.2135e-06
2.40213e-07
-2.41013e-07
-8.61352e-07
2.24094e-07
-2.26063e-07
8.61293e-07
-1.04175e-09
1.8578e-09
0.00107128
-2.3549e-07
1.2101e-06
2.34762e-07
8.58627e-07
-2.23326e-07
2.21351e-07
-8.58686e-07
-1.12563e-09
-0.00107214
1.83468e-09
-1.18024e-06
2.32151e-07
-2.32897e-07
-8.58686e-07
2.21441e-07
8.58688e-07
-2.23361e-07
1.21008e-06
0.00107128
-1.03882e-09
-0.00107128
1.89998e-09
-1.20816e-06
2.3475e-07
-2.35503e-07
-8.58688e-07
2.21347e-07
-2.23327e-07
8.58624e-07
-2.14965e-07
-2.22263e-07
0.000261667
-1.17684e-06
0.000263618
-0.000261667
2.16873e-07
2.24193e-07
-1.07678e-09
1.83017e-09
0.00107231
-2.32967e-07
1.17693e-06
2.32197e-07
8.58805e-07
-2.26086e-07
2.24159e-07
-8.58783e-07
-1.18167e-09
-0.00107181
1.84027e-09
-1.17491e-06
2.32157e-07
-2.32891e-07
-8.58503e-07
2.24098e-07
8.58583e-07
-2.26004e-07
1.17693e-06
0.00107231
-9.94157e-10
-0.00107231
1.81898e-09
-1.17503e-06
2.322e-07
-2.32961e-07
-8.58802e-07
2.24145e-07
-2.26101e-07
8.58789e-07
-0.00026168
2.19181e-07
2.24416e-07
1.21344e-06
1.17765e-06
-2.14793e-07
-2.22453e-07
0.000261685
-1.21536e-06
-1.17957e-06
0.000263639
-0.000261685
2.16695e-07
2.24386e-07
1.9174e-09
0.00107137
-2.38265e-07
1.21536e-06
2.37467e-07
8.58609e-07
-2.23319e-07
-8.58647e-07
2.21357e-07
-1.21882e-06
-9.61523e-10
1.90942e-09
0.0010718
-2.41028e-07
1.22074e-06
2.40235e-07
8.6413e-07
-2.26131e-07
-8.64193e-07
2.24119e-07
0.00107137
-1.06794e-09
-0.00107137
1.91984e-09
-1.21344e-06
2.37467e-07
-2.38265e-07
-8.58638e-07
2.21361e-07
-2.23312e-07
8.58615e-07
1.22074e-06
0.0010718
-9.66561e-10
-0.0010718
1.9122e-09
-1.21882e-06
2.40235e-07
-2.41027e-07
-8.64193e-07
2.24117e-07
-2.26129e-07
8.64128e-07
-2.17491e-07
-2.1978e-07
0.000261705
-1.1822e-06
0.000263667
-0.000261705
2.19433e-07
2.2171e-07
1.84416e-09
0.00107241
-2.35669e-07
1.17957e-06
2.34916e-07
8.61412e-07
-2.26105e-07
-8.61376e-07
2.24172e-07
-1.2135e-06
-1.01262e-09
1.92549e-09
0.00107148
-2.41015e-07
1.21541e-06
2.40212e-07
8.61297e-07
-2.26065e-07
-8.6135e-07
2.24097e-07
0.00107241
-1.11358e-09
-0.00107241
1.83207e-09
-1.17765e-06
2.34919e-07
-2.35665e-07
-8.61383e-07
2.24174e-07
-2.26098e-07
8.61409e-07
1.2154e-06
0.00107148
-1.00701e-09
-0.00107148
1.93097e-09
-1.2135e-06
2.40209e-07
-2.41017e-07
-8.61351e-07
2.24095e-07
-2.26062e-07
8.61293e-07
-1.04455e-09
1.89807e-09
0.00107128
-2.35502e-07
1.21008e-06
2.3475e-07
8.58628e-07
-2.23324e-07
2.21351e-07
-8.58685e-07
-1.12475e-09
-0.00107214
1.82448e-09
-1.18024e-06
2.32153e-07
-2.32894e-07
-8.58686e-07
2.21441e-07
8.58688e-07
-2.23361e-07
1.21008e-06
0.00107128
-1.0399e-09
-0.00107128
1.91343e-09
-1.20816e-06
2.34745e-07
-2.35506e-07
-8.58688e-07
2.21349e-07
-2.23326e-07
8.58625e-07
-2.14961e-07
-2.22272e-07
0.000261667
-1.17684e-06
0.000263618
-0.000261667
2.16874e-07
2.24189e-07
-1.01088e-09
1.81387e-09
0.00107231
-2.32959e-07
1.17694e-06
2.32202e-07
8.58787e-07
-2.26102e-07
2.24143e-07
-8.58797e-07
-1.15773e-09
-0.00107181
1.8369e-09
-1.17491e-06
2.32158e-07
-2.32889e-07
-8.58511e-07
2.24089e-07
8.58574e-07
-2.26011e-07
1.17693e-06
0.00107231
-9.786e-10
-0.00107231
1.8167e-09
-1.17503e-06
2.32201e-07
-2.3296e-07
-8.58809e-07
2.24136e-07
-2.2611e-07
8.58782e-07
-0.00026168
2.19181e-07
2.24412e-07
1.21344e-06
1.17765e-06
-2.14792e-07
-2.22453e-07
0.000261685
-1.21535e-06
-1.17957e-06
0.000263639
-0.000261685
2.16694e-07
2.24384e-07
1.92138e-09
0.00107137
-2.38266e-07
1.21536e-06
2.37466e-07
8.58609e-07
-2.23319e-07
-8.58646e-07
2.21357e-07
-1.21882e-06
-9.65214e-10
1.90986e-09
0.0010718
-2.41028e-07
1.22074e-06
2.40234e-07
8.64131e-07
-2.2613e-07
-8.64192e-07
2.2412e-07
0.00107137
-1.06372e-09
-0.00107137
1.92332e-09
-1.21344e-06
2.37465e-07
-2.38266e-07
-8.5864e-07
2.21359e-07
-2.23313e-07
8.58613e-07
1.22074e-06
0.0010718
-9.60784e-10
-0.0010718
1.91393e-09
-1.21882e-06
2.40234e-07
-2.41028e-07
-8.64195e-07
2.24115e-07
-2.26131e-07
8.64126e-07
-2.1749e-07
-2.1978e-07
0.000261705
-1.18219e-06
0.000263667
-0.000261705
2.19432e-07
2.21709e-07
1.84041e-09
0.00107241
-2.35668e-07
1.17957e-06
2.34917e-07
8.61411e-07
-2.26106e-07
-8.61378e-07
2.2417e-07
-1.2135e-06
-1.00781e-09
1.93633e-09
0.00107148
-2.41018e-07
1.2154e-06
2.40209e-07
8.61296e-07
-2.26065e-07
-8.61351e-07
2.24097e-07
0.00107241
-1.10488e-09
-0.00107241
1.83202e-09
-1.17765e-06
2.34919e-07
-2.35665e-07
-8.61386e-07
2.24171e-07
-2.26101e-07
8.61406e-07
1.2154e-06
0.00107148
-9.98619e-10
-0.00107148
1.93804e-09
-1.21351e-06
2.40205e-07
-2.4102e-07
-8.61353e-07
2.24093e-07
-2.26063e-07
8.61291e-07
-1.04579e-09
1.91015e-09
0.00107128
-2.35506e-07
1.21008e-06
2.34747e-07
8.58629e-07
-2.23323e-07
2.21353e-07
-8.58684e-07
-1.12061e-09
-0.00107214
1.82478e-09
-1.18024e-06
2.32153e-07
-2.32894e-07
-8.58687e-07
2.2144e-07
8.58687e-07
-2.23363e-07
1.21008e-06
0.00107128
-1.0391e-09
-0.00107128
1.91908e-09
-1.20816e-06
2.34744e-07
-2.35508e-07
-8.58688e-07
2.21348e-07
-2.23326e-07
8.58624e-07
-2.1496e-07
-2.22275e-07
0.000261667
-1.17683e-06
0.000263618
-0.000261667
2.16872e-07
2.24186e-07
-9.8713e-10
1.81057e-09
0.00107231
-2.32958e-07
1.17694e-06
2.32204e-07
8.58786e-07
-2.26105e-07
2.24141e-07
-8.58795e-07
-1.14747e-09
-0.00107181
1.84152e-09
-1.17491e-06
2.32156e-07
-2.32891e-07
-8.58513e-07
2.24086e-07
8.58572e-07
-2.26014e-07
1.17693e-06
0.00107231
-9.76783e-10
-0.00107231
1.81778e-09
-1.17503e-06
2.32201e-07
-2.3296e-07
-8.58804e-07
2.24134e-07
-2.26111e-07
8.58781e-07
-0.00026168
2.19181e-07
2.2441e-07
1.21344e-06
1.17765e-06
-2.14793e-07
-2.22455e-07
0.000261685
-1.21535e-06
-1.17957e-06
0.000263639
-0.000261685
2.16693e-07
2.24384e-07
1.92412e-09
0.00107137
-2.38267e-07
1.21536e-06
2.37465e-07
8.58608e-07
-2.2332e-07
-8.58648e-07
2.21355e-07
-1.21882e-06
-9.62617e-10
1.91028e-09
0.0010718
-2.41029e-07
1.22074e-06
2.40234e-07
8.6413e-07
-2.26131e-07
-8.64193e-07
2.24119e-07
0.00107137
-1.06126e-09
-0.00107137
1.92403e-09
-1.21344e-06
2.37465e-07
-2.38267e-07
-8.5864e-07
2.21359e-07
-2.23314e-07
8.58613e-07
1.22074e-06
0.0010718
-9.60132e-10
-0.0010718
1.91611e-09
-1.21883e-06
2.40232e-07
-2.41029e-07
-8.64195e-07
2.24115e-07
-2.26131e-07
8.64126e-07
-2.1749e-07
-2.1978e-07
0.000261705
-1.18219e-06
0.000263667
-0.000261705
2.19432e-07
2.21707e-07
1.84054e-09
0.00107241
-2.35669e-07
1.17957e-06
2.34916e-07
8.61409e-07
-2.26108e-07
-8.6138e-07
2.24169e-07
-1.21351e-06
-1.0034e-09
1.94153e-09
0.00107148
-2.41021e-07
1.2154e-06
2.40206e-07
8.61295e-07
-2.26065e-07
-8.61352e-07
2.24096e-07
0.00107241
-1.10627e-09
-0.00107241
1.83462e-09
-1.17765e-06
2.34918e-07
-2.35666e-07
-8.61385e-07
2.24171e-07
-2.26101e-07
8.61407e-07
1.2154e-06
0.00107148
-1.00477e-09
-0.00107148
1.93469e-09
-1.2135e-06
2.40207e-07
-2.41019e-07
-8.61352e-07
2.24095e-07
-2.26062e-07
8.61292e-07
-1.04662e-09
1.91355e-09
0.00107128
-2.35507e-07
1.21008e-06
2.34746e-07
8.58628e-07
-2.23323e-07
2.21353e-07
-8.58684e-07
-1.11885e-09
-0.00107214
1.82629e-09
-1.18024e-06
2.32152e-07
-2.32895e-07
-8.58688e-07
2.21439e-07
8.58686e-07
-2.23364e-07
1.21008e-06
0.00107128
-1.04034e-09
-0.00107128
1.91611e-09
-1.20816e-06
2.34744e-07
-2.35508e-07
-8.58688e-07
2.21349e-07
-2.23325e-07
8.58624e-07
-2.14962e-07
-2.22278e-07
0.000261667
-1.17684e-06
0.000263618
-0.000261667
2.16874e-07
2.24188e-07
-9.79554e-10
1.81122e-09
0.00107231
-2.32958e-07
1.17694e-06
2.32203e-07
8.58785e-07
-2.26108e-07
2.24138e-07
-8.58801e-07
-1.15342e-09
-0.00107181
1.83956e-09
-1.17491e-06
2.32158e-07
-2.32888e-07
-8.58512e-07
2.24086e-07
8.58572e-07
-2.26014e-07
1.17693e-06
0.00107231
-9.82039e-10
-0.00107231
1.81823e-09
-1.17503e-06
2.322e-07
-2.3296e-07
-8.58802e-07
2.24135e-07
-2.2611e-07
8.58782e-07
-0.00026168
2.1918e-07
2.24411e-07
1.21344e-06
1.17765e-06
-2.14793e-07
-2.22454e-07
0.000261685
-1.21536e-06
-1.17957e-06
0.000263639
-0.000261685
2.16696e-07
2.24386e-07
1.92231e-09
0.00107137
-2.38267e-07
1.21536e-06
2.37465e-07
8.58609e-07
-2.2332e-07
-8.58647e-07
2.21356e-07
-1.21882e-06
-9.62936e-10
1.91232e-09
0.0010718
-2.4103e-07
1.22074e-06
2.40233e-07
8.64131e-07