/*--------------------------------*- C++ -*----------------------------------*\
| =========                 |                                                 |
| \\      /  F ield         | OpenFOAM: The Open Source CFD Toolbox           |
|  \\    /   O peration     | Version:  2206                                  |
|   \\  /    A nd           | Website:  www.openfoam.com                      |
|    \\/     M anipulation  |                                                 |
\*---------------------------------------------------------------------------*/
FoamFile
{
    version     2.0;
    format      ascii;
    arch        "LSB;label=32;scalar=64";
    class       volScalarField;
    location    "39";
    object      k;
}
// * * * * * * * * * * * * * * * * * * * * * * * * * * * * * * * * * * * * * //

dimensions      [0 2 -2 0 0 0 0];

internalField   nonuniform List<scalar> 
28673
(
2.25851e-05
2.18838e-05
2.33705e-05
2.25852e-05
2.2585e-05
2.18866e-05
2.33705e-05
2.25854e-05
2.25852e-05
2.18866e-05
2.33705e-05
2.25855e-05
2.25852e-05
2.18868e-05
2.33706e-05
2.25856e-05
2.25853e-05
2.18871e-05
2.33706e-05
2.25857e-05
2.25854e-05
2.18873e-05
2.33705e-05
2.25857e-05
2.25855e-05
2.18875e-05
2.33704e-05
2.25856e-05
2.25854e-05
2.18877e-05
2.33701e-05
2.2585e-05
2.2585e-05
2.18868e-05
2.33665e-05
2.258e-05
2.25812e-05
2.18821e-05
2.33641e-05
2.25787e-05
2.25786e-05
2.18798e-05
2.33648e-05
2.2579e-05
2.25789e-05
2.18801e-05
2.33963e-05
2.26176e-05
2.26176e-05
2.19643e-05
2.25845e-05
2.18849e-05
2.25852e-05
2.18871e-05
2.25847e-05
2.25844e-05
2.25845e-05
2.25844e-05
2.18814e-05
2.18888e-05
2.2585e-05
2.2584e-05
2.25847e-05
2.25852e-05
2.25846e-05
2.18862e-05
2.25851e-05
2.2585e-05
2.25851e-05
2.18906e-05
2.18835e-05
2.18889e-05
2.25846e-05
2.25845e-05
2.25846e-05
2.25846e-05
2.18854e-05
2.1891e-05
2.25851e-05
2.25841e-05
2.25851e-05
2.25841e-05
2.25847e-05
2.25854e-05
2.25847e-05
2.18828e-05
2.18904e-05
2.25852e-05
2.25852e-05
2.25852e-05
2.18906e-05
2.18852e-05
2.18906e-05
2.25847e-05
2.25847e-05
2.25847e-05
2.25847e-05
2.1887e-05
2.18911e-05
2.25852e-05
2.25843e-05
2.25852e-05
2.25843e-05
2.25848e-05
2.25855e-05
2.25848e-05
2.18867e-05
2.18904e-05
2.25853e-05
2.25852e-05
2.25852e-05
2.18908e-05
2.18869e-05
2.18913e-05
2.25849e-05
2.25848e-05
2.25849e-05
2.25848e-05
2.18873e-05
2.18913e-05
2.25854e-05
2.25844e-05
2.25854e-05
2.25844e-05
2.25849e-05
2.25856e-05
2.25849e-05
2.18867e-05
2.18907e-05
2.25853e-05
2.25853e-05
2.25853e-05
2.18911e-05
2.18874e-05
2.18916e-05
2.25851e-05
2.2585e-05
2.25851e-05
2.2585e-05
2.18875e-05
2.18915e-05
2.25856e-05
2.25846e-05
2.25856e-05
2.25846e-05
2.2585e-05
2.25857e-05
2.2585e-05
2.18869e-05
2.18909e-05
2.25855e-05
2.25854e-05
2.25855e-05
2.18913e-05
2.18877e-05
2.18918e-05
2.25852e-05
2.25851e-05
2.25853e-05
2.25851e-05
2.18877e-05
2.18918e-05
2.25857e-05
2.25847e-05
2.25857e-05
2.25847e-05
2.25851e-05
2.25858e-05
2.25852e-05
2.18871e-05
2.18912e-05
2.25856e-05
2.25855e-05
2.25856e-05
2.18915e-05
2.1888e-05
2.1892e-05
2.25854e-05
2.25852e-05
2.25854e-05
2.25852e-05
2.18879e-05
2.18919e-05
2.25859e-05
2.25848e-05
2.25859e-05
2.25848e-05
2.25853e-05
2.25856e-05
2.25853e-05
2.18874e-05
2.18914e-05
2.25858e-05
2.25855e-05
2.25858e-05
2.18917e-05
2.18882e-05
2.18918e-05
2.25855e-05
2.25852e-05
2.25851e-05
2.25846e-05
2.18881e-05
2.18911e-05
2.2586e-05
2.2585e-05
2.25859e-05
2.25845e-05
2.25853e-05
2.25853e-05
2.25848e-05
2.18876e-05
2.18912e-05
2.25858e-05
2.25851e-05
2.25853e-05
2.18911e-05
2.18878e-05
2.18879e-05
2.25848e-05
2.25843e-05
2.25816e-05
2.25804e-05
2.18868e-05
2.18864e-05
2.25857e-05
2.25844e-05
2.25828e-05
2.25819e-05
2.25845e-05
2.25812e-05
2.2581e-05
2.18873e-05
2.1888e-05
2.2585e-05
2.25825e-05
2.25815e-05
2.18869e-05
2.18832e-05
2.18841e-05
2.25803e-05
2.25793e-05
2.25782e-05
2.25779e-05
2.18819e-05
2.18838e-05
2.25815e-05
2.25806e-05
2.25788e-05
2.25778e-05
2.25799e-05
2.25787e-05
2.25781e-05
2.18833e-05
2.18838e-05
2.25804e-05
2.25786e-05
2.25786e-05
2.18838e-05
2.18802e-05
2.18842e-05
2.25783e-05
2.2578e-05
2.25788e-05
2.25785e-05
2.18799e-05
2.18842e-05
2.25788e-05
2.25778e-05
2.25793e-05
2.25782e-05
2.25782e-05
2.25793e-05
2.25787e-05
2.18798e-05
2.18837e-05
2.25787e-05
2.25791e-05
2.25792e-05
2.18841e-05
2.18804e-05
2.19175e-05
2.25785e-05
2.25783e-05
2.26095e-05
2.26093e-05
2.18804e-05
2.19174e-05
2.25791e-05
2.2578e-05
2.26099e-05
2.26091e-05
2.25785e-05
2.26099e-05
2.26095e-05
2.18799e-05
2.19171e-05
2.2579e-05
2.26098e-05
2.26099e-05
2.19174e-05
2.19644e-05
2.26174e-05
2.26172e-05
2.19644e-05
2.26177e-05
2.2617e-05
2.33963e-05
2.33963e-05
2.33963e-05
2.26174e-05
2.1964e-05
2.26177e-05
2.8196e-05
6.96134e-05
2.81977e-05
6.9611e-05
7.50963e-05
7.50956e-05
2.8197e-05
6.96137e-05
2.33707e-05
2.33705e-05
2.33705e-05
2.33706e-05
2.33704e-05
2.33704e-05
2.1242e-05
2.76553e-05
2.29898e-05
2.25853e-05
2.12423e-05
2.76503e-05
2.29898e-05
7.5093e-05
2.12412e-05
2.29896e-05
2.2585e-05
2.12415e-05
2.29896e-05
2.76501e-05
3.80162e-05
3.80207e-05
2.18905e-05
3.8013e-05
3.80174e-05
2.81986e-05
6.96115e-05
2.82009e-05
6.96094e-05
7.50928e-05
7.5093e-05
2.82001e-05
6.96147e-05
2.82019e-05
6.96126e-05
2.33706e-05
2.33704e-05
2.33704e-05
2.33705e-05
2.33705e-05
2.33703e-05
2.33704e-05
2.12429e-05
2.76579e-05
2.29897e-05
2.25854e-05
2.1243e-05
2.76526e-05
2.29898e-05
7.509e-05
7.50898e-05
2.12419e-05
2.29895e-05
2.76577e-05
2.25852e-05
2.12421e-05
2.29896e-05
2.76529e-05
3.80177e-05
3.80221e-05
2.18906e-05
3.80164e-05
3.80208e-05
2.82007e-05
6.96107e-05
2.82031e-05
6.9609e-05
7.50915e-05
7.50921e-05
2.82023e-05
6.96139e-05
2.82044e-05
6.9612e-05
2.33706e-05
2.33703e-05
2.33704e-05
2.33705e-05
2.33706e-05
2.33702e-05
2.33703e-05
2.12437e-05
2.76597e-05
2.29898e-05
2.25855e-05
2.12438e-05
2.76542e-05
2.29898e-05
7.50879e-05
7.50884e-05
2.12427e-05
2.29895e-05
2.766e-05
2.25853e-05
2.12429e-05
2.29896e-05
2.76548e-05
3.80212e-05
3.80256e-05
2.18907e-05
3.80197e-05
3.80241e-05
2.82023e-05
6.96109e-05
2.82049e-05
6.96096e-05
7.50912e-05
7.50923e-05
2.8204e-05
6.96138e-05
2.82063e-05
6.96124e-05
2.33707e-05
2.33703e-05
2.33703e-05
2.33706e-05
2.33706e-05
2.33703e-05
2.33703e-05
2.12444e-05
2.76609e-05
2.29898e-05
2.25857e-05
2.12446e-05
2.76552e-05
2.29899e-05
7.50873e-05
7.50882e-05
2.12434e-05
2.29895e-05
2.76616e-05
2.25853e-05
2.12436e-05
2.29896e-05
2.76562e-05
3.80237e-05
3.80281e-05
2.1891e-05
3.80215e-05
3.8026e-05
2.82033e-05
6.96113e-05
2.82062e-05
6.96112e-05
7.50917e-05
7.5095e-05
2.82051e-05
6.96142e-05
2.82077e-05
6.9614e-05
2.33706e-05
2.33704e-05
2.33705e-05
2.33707e-05
2.33705e-05
2.33704e-05
2.33704e-05
2.12449e-05
2.76615e-05
2.29898e-05
2.25857e-05
2.12452e-05
2.76552e-05
2.29899e-05
7.50874e-05
7.50905e-05
2.12439e-05
2.29895e-05
2.76623e-05
2.25854e-05
2.12442e-05
2.29897e-05
2.76562e-05
3.80247e-05
3.80292e-05
2.18912e-05
3.80222e-05
3.80268e-05
2.82031e-05
6.96124e-05
2.82066e-05
6.96132e-05
7.50931e-05
7.50997e-05
2.82049e-05
6.96154e-05
2.82081e-05
6.96162e-05
2.33706e-05
2.33705e-05
2.33705e-05
2.33705e-05
2.33705e-05
2.33703e-05
2.33705e-05
2.12451e-05
2.76621e-05
2.29898e-05
2.25858e-05
2.12456e-05
2.76547e-05
2.299e-05
7.50885e-05
7.50949e-05
2.1244e-05
2.29897e-05
2.76629e-05
2.25856e-05
2.12446e-05
2.29898e-05
2.76558e-05
3.80265e-05
3.80311e-05
2.18914e-05
3.8023e-05
3.80276e-05
2.82043e-05
6.96117e-05
2.82086e-05
6.96147e-05
7.50935e-05
7.51041e-05
2.82061e-05
6.9615e-05
2.82101e-05
6.9618e-05
2.33705e-05
2.33703e-05
2.33706e-05
2.33704e-05
2.33703e-05
2.33701e-05
2.33703e-05
2.12453e-05
2.76633e-05
2.29899e-05
2.25857e-05
2.12461e-05
2.76542e-05
2.29899e-05
7.50889e-05
7.50993e-05
2.12443e-05
2.29896e-05
2.76642e-05
2.25856e-05
2.1245e-05
2.29896e-05
2.76554e-05
3.80289e-05
3.80335e-05
2.18916e-05
3.80237e-05
3.80284e-05
2.82032e-05
6.9613e-05
2.82078e-05
6.9621e-05
7.5095e-05
7.51085e-05
2.82055e-05
6.96164e-05
2.82097e-05
6.96242e-05
2.33703e-05
2.33701e-05
2.33703e-05
2.33702e-05
2.33701e-05
2.33699e-05
2.337e-05
2.12446e-05
2.76628e-05
2.29897e-05
2.25855e-05
2.12462e-05
2.76512e-05
2.29896e-05
7.50914e-05
7.51067e-05
2.12437e-05
2.29895e-05
2.76636e-05
2.25854e-05
2.12452e-05
2.29895e-05
2.76522e-05
3.80295e-05
3.80341e-05
2.18916e-05
3.80256e-05
3.80302e-05
2.82025e-05
6.96165e-05
2.82067e-05
6.96314e-05
7.50868e-05
7.5104e-05
2.8205e-05
6.962e-05
2.82087e-05
6.96351e-05
2.33699e-05
2.33698e-05
2.33698e-05
2.33678e-05
2.33668e-05
2.33679e-05
2.3367e-05
2.12412e-05
2.76612e-05
2.29893e-05
2.25841e-05
2.12447e-05
2.76443e-05
2.29887e-05
7.50868e-05
7.51044e-05
2.12405e-05
2.29891e-05
2.76621e-05
2.25848e-05
2.12439e-05
2.29888e-05
2.76459e-05
3.80336e-05
3.80379e-05
2.18896e-05
3.80302e-05
3.80344e-05
2.82015e-05
6.96182e-05
2.82044e-05
6.96399e-05
7.50663e-05
7.50906e-05
2.82041e-05
6.96228e-05
2.82069e-05
6.96446e-05
2.33656e-05
2.33666e-05
2.33658e-05
2.33642e-05
2.33641e-05
2.33641e-05
2.33641e-05
2.12358e-05
2.76578e-05
2.29848e-05
2.25792e-05
2.12405e-05
2.76362e-05
2.29838e-05
7.50672e-05
7.50914e-05
2.1235e-05
2.29852e-05
2.76603e-05
2.25799e-05
2.12398e-05
2.2984e-05
2.76391e-05
3.80343e-05
3.80382e-05
2.18848e-05
3.8029e-05
3.80329e-05
2.82046e-05
6.96017e-05
2.82034e-05
6.96368e-05
7.50289e-05
7.50594e-05
2.82066e-05
6.96061e-05
2.8205e-05
6.96411e-05
2.33642e-05
2.33641e-05
2.33641e-05
2.33643e-05
2.33642e-05
2.3364e-05
2.33642e-05
2.12333e-05
2.76697e-05
2.29832e-05
2.25789e-05
2.12394e-05
2.76384e-05
2.29832e-05
7.50305e-05
7.50603e-05
2.12324e-05
2.2983e-05
2.76722e-05
2.25787e-05
2.12386e-05
2.2983e-05
2.76407e-05
3.80262e-05
3.80299e-05
2.18837e-05
3.80219e-05
3.80255e-05
2.82034e-05
6.95575e-05
2.81995e-05
6.96145e-05
7.49475e-05
7.49779e-05
2.82054e-05
6.95617e-05
2.82011e-05
6.96183e-05
2.33649e-05
2.33647e-05
2.33648e-05
2.33745e-05
2.33745e-05
2.33744e-05
2.33745e-05
2.12292e-05
2.76988e-05
2.29846e-05
2.25829e-05
2.12409e-05
2.7613e-05
2.29837e-05
7.4948e-05
7.4978e-05
2.12285e-05
2.29844e-05
2.77003e-05
2.25828e-05
2.124e-05
2.29835e-05
2.76139e-05
3.80022e-05
3.80057e-05
2.18886e-05
3.79733e-05
3.79766e-05
2.487e-05
6.73288e-05
2.79835e-05
6.21497e-05
7.15147e-05
5.03394e-05
2.48715e-05
6.73335e-05
2.79859e-05
6.21563e-05
2.37966e-05
2.3635e-05
2.36351e-05
2.33058e-05
2.37893e-05
2.36031e-05
2.36031e-05
2.12415e-05
2.71753e-05
2.30368e-05
2.26654e-05
2.12577e-05
3.0403e-05
2.31225e-05
7.15147e-05
5.03375e-05
2.12408e-05
2.30366e-05
2.71754e-05
2.26653e-05
2.1257e-05
2.31225e-05
3.04006e-05
3.80731e-05
3.80759e-05
2.20737e-05
3.53976e-05
3.53979e-05
6.96155e-05
2.76519e-05
7.50977e-05
3.80166e-05
3.80073e-05
7.50936e-05
2.76488e-05
6.96121e-05
7.50979e-05
7.50968e-05
7.50967e-05
3.80162e-05
2.18858e-05
3.80129e-05
3.80156e-05
7.50949e-05
7.50957e-05
7.50946e-05
7.50955e-05
2.18823e-05
3.80144e-05
3.80172e-05
3.80154e-05
3.80183e-05
2.81965e-05
6.9617e-05
2.81982e-05
6.96146e-05
2.1242e-05
2.76557e-05
2.29897e-05
2.25846e-05
2.12423e-05
2.76511e-05
2.29897e-05
2.12422e-05
2.76581e-05
2.29897e-05
2.25844e-05
2.12425e-05
2.76533e-05
2.29897e-05
2.81994e-05
6.96101e-05
6.96124e-05
2.81974e-05
2.82e-05
6.96139e-05
6.96162e-05
2.8198e-05
2.12428e-05
2.25845e-05
2.76524e-05
2.29896e-05
2.76572e-05
2.29896e-05
2.12425e-05
2.1243e-05
2.25844e-05
2.76546e-05
2.29897e-05
2.76595e-05
2.29897e-05
2.12427e-05
3.80196e-05
3.80106e-05
2.18865e-05
3.80187e-05
3.80096e-05
7.50925e-05
7.50916e-05
7.5094e-05
7.50945e-05
2.1883e-05
3.80205e-05
3.80113e-05
3.80214e-05
3.80126e-05
7.50902e-05
7.50906e-05
2.12428e-05
2.25851e-05
2.76517e-05
2.29897e-05
2.81965e-05
6.96096e-05
2.12425e-05
2.2584e-05
2.29894e-05
2.76501e-05
2.82002e-05
6.96131e-05
6.96154e-05
2.81987e-05
2.12435e-05
2.25851e-05
2.7653e-05
2.29896e-05
2.76577e-05
2.29896e-05
2.12432e-05
2.81998e-05
6.96086e-05
6.96112e-05
2.81982e-05
2.12432e-05
2.2584e-05
2.29894e-05
2.76516e-05
2.29894e-05
2.76566e-05
2.1243e-05
2.81964e-05
6.96138e-05
2.8198e-05
6.96113e-05
2.1242e-05
2.29897e-05
2.76555e-05
2.25847e-05
2.12424e-05
2.29897e-05
2.76509e-05
2.81963e-05
6.96148e-05
2.8198e-05
6.96123e-05
2.12428e-05
2.25852e-05
2.76515e-05
2.29897e-05
2.76566e-05
2.29898e-05
2.12425e-05
2.81998e-05
6.96105e-05
6.96129e-05
2.81978e-05
2.12428e-05
2.25846e-05
2.29896e-05
2.76522e-05
2.29896e-05
2.7657e-05
2.12425e-05
2.81998e-05
6.96115e-05
6.96138e-05
2.81978e-05
2.18845e-05
3.80104e-05
3.80119e-05
7.50977e-05
7.50911e-05
7.50919e-05
2.18809e-05
3.80127e-05
3.80136e-05
3.80137e-05
3.80146e-05
7.50955e-05
7.50964e-05
2.1241e-05
2.29896e-05
2.76566e-05
2.25851e-05
2.12414e-05
2.29895e-05
2.76519e-05
2.81949e-05
2.8197e-05
6.96124e-05
2.81947e-05
6.96175e-05
2.81968e-05
6.96151e-05
2.1242e-05
2.2585e-05
2.29895e-05
2.76516e-05
2.29895e-05
2.76562e-05
2.12416e-05
2.12418e-05
2.25851e-05
2.29895e-05
2.76531e-05
2.29895e-05
2.7658e-05
2.12414e-05
2.81986e-05
6.96117e-05
6.9614e-05
2.81963e-05
2.81984e-05
6.96142e-05
6.96165e-05
2.8196e-05
7.50975e-05
7.50963e-05
7.50968e-05
7.50957e-05
2.18867e-05
3.80146e-05
3.8019e-05
3.80156e-05
3.802e-05
7.50945e-05
7.50953e-05
7.50939e-05
7.50946e-05
7.5094e-05
7.50936e-05
7.50935e-05
7.5093e-05
3.8017e-05
3.80199e-05
2.18881e-05
3.80161e-05
3.8019e-05
7.50929e-05
7.50928e-05
7.5092e-05
7.50921e-05
2.18845e-05
3.80178e-05
3.80207e-05
3.80187e-05
3.80216e-05
2.81992e-05
6.96154e-05
2.82014e-05
6.96133e-05
2.12429e-05
2.76584e-05
2.29897e-05
2.25846e-05
2.12433e-05
2.76534e-05
2.29897e-05
2.12431e-05
2.76606e-05
2.29898e-05
2.25846e-05
2.12434e-05
2.76556e-05
2.29898e-05
2.8202e-05
6.9609e-05
6.9611e-05
2.81997e-05
2.82025e-05
6.9613e-05
6.96149e-05
2.82002e-05
2.12437e-05
2.25846e-05
2.76544e-05
2.29897e-05
2.76594e-05
2.29897e-05
2.12433e-05
2.12438e-05
2.25846e-05
2.76565e-05
2.29896e-05
2.76617e-05
2.29897e-05
2.12435e-05
3.80233e-05
3.80143e-05
2.18906e-05
3.80224e-05
3.80128e-05
7.50894e-05
7.50892e-05
7.50924e-05
7.50922e-05
2.1887e-05
3.8024e-05
3.80141e-05
3.80251e-05
3.80157e-05
7.50887e-05
7.50886e-05
2.12437e-05
2.76589e-05
2.29897e-05
2.25851e-05
2.1244e-05
2.76541e-05
2.29897e-05
2.81996e-05
6.96103e-05
2.82014e-05
6.96078e-05
2.12434e-05
2.29895e-05
2.7658e-05
2.25841e-05
2.12437e-05
2.29895e-05
2.76529e-05
2.82032e-05
6.96122e-05
6.96143e-05
2.82013e-05
2.12444e-05
2.25851e-05
2.76551e-05
2.29896e-05
2.766e-05
2.29897e-05
2.12441e-05
2.82027e-05
6.96073e-05
6.96095e-05
2.82008e-05
2.12441e-05
2.25841e-05
2.29894e-05
2.76539e-05
2.29894e-05
2.76592e-05
2.12438e-05
2.8199e-05
6.96122e-05
2.82012e-05
6.961e-05
2.12429e-05
2.29897e-05
2.76582e-05
2.25847e-05
2.12433e-05
2.29897e-05
2.76532e-05
2.8199e-05
6.9613e-05
2.82011e-05
6.96108e-05
2.12436e-05
2.25854e-05
2.76535e-05
2.29898e-05
2.76588e-05
2.29898e-05
2.12433e-05
2.82023e-05
6.96096e-05
6.96117e-05
2.82001e-05
2.12437e-05
2.25847e-05
2.29896e-05
2.76542e-05
2.29896e-05
2.76592e-05
2.12433e-05
2.82023e-05
6.96104e-05
6.96124e-05
2.82e-05
3.80158e-05
3.80162e-05
2.18889e-05
3.80145e-05
3.80153e-05
7.50944e-05
7.50938e-05
7.50889e-05
7.5089e-05
2.18855e-05
3.80161e-05
3.80172e-05
3.80175e-05
3.8018e-05
7.50928e-05
7.5093e-05
2.12418e-05
2.29896e-05
2.76592e-05
2.25852e-05
2.12422e-05
2.29896e-05
2.76542e-05
2.81975e-05
6.96133e-05
2.81999e-05
6.96111e-05
2.81972e-05
6.96157e-05
2.81997e-05
6.96135e-05
2.12427e-05
2.25852e-05
2.29895e-05
2.76539e-05
2.29896e-05
2.76589e-05
2.12423e-05
2.12426e-05
2.25852e-05
2.29895e-05
2.76551e-05
2.29895e-05
2.76603e-05
2.12422e-05
2.82011e-05
6.96107e-05
6.96127e-05
2.81985e-05
2.82008e-05
6.96132e-05
6.96151e-05
2.81982e-05
7.50936e-05
7.50933e-05
7.50929e-05
7.50926e-05
2.18868e-05
3.80181e-05
3.80225e-05
3.80191e-05
3.80234e-05
7.50925e-05
7.50925e-05
7.50918e-05
7.50918e-05
7.50922e-05
7.50925e-05
7.50912e-05
7.50914e-05
3.80204e-05
3.80234e-05
2.18896e-05
3.80194e-05
3.80224e-05
7.50924e-05
7.50919e-05
7.50912e-05
7.50907e-05
2.1886e-05
3.80206e-05
3.80238e-05
3.80219e-05
3.8025e-05
2.82012e-05
6.96146e-05
2.82035e-05
6.96129e-05
2.12437e-05
2.76603e-05
2.29898e-05
2.25847e-05
2.12441e-05
2.76552e-05
2.29898e-05
2.12439e-05
2.76625e-05
2.29897e-05
2.25847e-05
2.12443e-05
2.76573e-05
2.29897e-05
2.8204e-05
6.96092e-05
6.96108e-05
2.82015e-05
2.82045e-05
6.96129e-05
6.96146e-05
2.8202e-05
2.12445e-05
2.25847e-05
2.76559e-05
2.29898e-05
2.76611e-05
2.29898e-05
2.12441e-05
2.12447e-05
2.25847e-05
2.76579e-05
2.29897e-05
2.76633e-05
2.29897e-05
2.12443e-05
3.80266e-05
3.8017e-05
2.18908e-05
3.80252e-05
3.80152e-05
7.50881e-05
7.50884e-05
7.50921e-05
7.50915e-05
2.1887e-05
3.80261e-05
3.8016e-05
3.80278e-05
3.8018e-05
7.50883e-05
7.50878e-05
2.12444e-05
2.7661e-05
2.29897e-05
2.25852e-05
2.12448e-05
2.7656e-05
2.29897e-05
2.82018e-05
6.96091e-05
2.82038e-05
6.96071e-05
2.12442e-05
2.29895e-05
2.76602e-05
2.25843e-05
2.12445e-05
2.29895e-05
2.76549e-05
2.82053e-05
6.96121e-05
6.96138e-05
2.82032e-05
2.12452e-05
2.25852e-05
2.76568e-05
2.29897e-05
2.76619e-05
2.29897e-05
2.12448e-05
2.82049e-05
6.96072e-05
6.9609e-05
2.82028e-05
2.12449e-05
2.25843e-05
2.29895e-05
2.76556e-05
2.29895e-05
2.76611e-05
2.12445e-05
2.82011e-05
6.96115e-05
2.82034e-05
6.96095e-05
2.12437e-05
2.29897e-05
2.76602e-05
2.25848e-05
2.12441e-05
2.29897e-05
2.7655e-05
2.8201e-05
6.96121e-05
2.82033e-05
6.96102e-05
2.12445e-05
2.25855e-05
2.76548e-05
2.29898e-05
2.76604e-05
2.29898e-05
2.12441e-05
2.82043e-05
6.96096e-05
6.96114e-05
2.82019e-05
2.12445e-05
2.25848e-05
2.29897e-05
2.76557e-05
2.29897e-05
2.76609e-05
2.12441e-05
2.82043e-05
6.96103e-05
6.96119e-05
2.82018e-05
3.8019e-05
3.80198e-05
2.18903e-05
3.80174e-05
3.80188e-05
7.50921e-05
7.50922e-05
7.50882e-05
7.50878e-05
2.18864e-05
3.80185e-05
3.80202e-05
3.80202e-05
3.80214e-05
7.5092e-05
7.50916e-05
2.12425e-05
2.29896e-05
2.76612e-05
2.25853e-05
2.1243e-05
2.29896e-05
2.7656e-05
2.81995e-05
6.96124e-05
2.82021e-05
6.96105e-05
2.81991e-05
6.96149e-05
2.82018e-05
6.96131e-05
2.12435e-05
2.25853e-05
2.29895e-05
2.76556e-05
2.29896e-05
2.76608e-05
2.12431e-05
2.12433e-05
2.25852e-05
2.29895e-05
2.76567e-05
2.29895e-05
2.7662e-05
2.12429e-05
2.8203e-05
6.96106e-05
6.96122e-05
2.82003e-05
2.82027e-05
6.96133e-05
6.96149e-05
2.82e-05
7.50918e-05
7.50921e-05
7.50911e-05
7.50915e-05
2.18869e-05
3.80208e-05
3.80253e-05
3.80223e-05
3.80266e-05
7.5092e-05
7.50915e-05
7.50913e-05
7.50908e-05
7.50918e-05
7.50925e-05
7.50906e-05
7.50913e-05
3.80231e-05
3.80263e-05
2.18912e-05
3.80214e-05
3.80248e-05
7.50932e-05
7.50918e-05
7.50919e-05
7.50905e-05
2.18874e-05
3.80218e-05
3.80253e-05
3.80237e-05
3.80272e-05
2.82028e-05
6.96146e-05
2.82053e-05
6.96132e-05
2.12445e-05
2.76618e-05
2.29899e-05
2.25849e-05
2.12449e-05
2.76564e-05
2.29899e-05
2.12446e-05
2.76638e-05
2.29898e-05
2.25848e-05
2.12451e-05
2.76583e-05
2.29898e-05
2.82055e-05
6.96102e-05
6.96111e-05
2.82029e-05
2.8206e-05
6.96138e-05
6.96147e-05
2.82034e-05
2.12452e-05
2.25849e-05
2.76566e-05
2.29899e-05
2.76622e-05
2.29899e-05
2.12447e-05
2.12454e-05
2.25848e-05
2.76584e-05
2.29898e-05
2.76641e-05
2.29898e-05
2.12449e-05
3.80286e-05
3.80188e-05
2.18912e-05
3.80267e-05
3.80167e-05
7.50877e-05
7.50884e-05
7.50931e-05
7.50916e-05
2.18873e-05
3.80271e-05
3.80173e-05
3.80291e-05
3.80194e-05
7.50892e-05
7.50878e-05
2.12451e-05
2.76627e-05
2.29898e-05
2.25854e-05
2.12455e-05
2.76574e-05
2.29898e-05
2.82036e-05
6.96091e-05
2.82058e-05
6.96075e-05
2.12448e-05
2.29896e-05
2.76618e-05
2.25844e-05
2.12452e-05
2.29896e-05
2.76562e-05
2.8207e-05
6.9613e-05
6.9614e-05
2.82047e-05
2.12458e-05
2.25854e-05
2.76576e-05
2.29898e-05
2.76632e-05
2.29898e-05
2.12454e-05
2.82066e-05
6.96081e-05
6.96092e-05
2.82043e-05
2.12455e-05
2.25844e-05
2.29895e-05
2.76564e-05
2.29895e-05
2.76623e-05
2.12451e-05
2.82026e-05
6.96114e-05
2.82051e-05
6.96098e-05
2.12445e-05
2.29898e-05
2.76616e-05
2.25849e-05
2.12449e-05
2.29897e-05
2.76561e-05
2.82025e-05
6.9612e-05
2.82051e-05
6.96105e-05
2.12452e-05
2.25857e-05
2.76554e-05
2.29898e-05
2.76613e-05
2.29899e-05
2.12447e-05
2.82059e-05
6.96105e-05
6.96115e-05
2.82032e-05
2.12452e-05
2.25849e-05
2.29897e-05
2.76563e-05
2.29897e-05
2.7662e-05
2.12447e-05
2.82058e-05
6.96111e-05
6.96121e-05
2.82032e-05
3.80212e-05
3.80227e-05
2.18906e-05
3.80192e-05
3.80212e-05
7.50914e-05
7.50921e-05
7.50888e-05
7.50875e-05
2.18868e-05
3.80198e-05
3.80218e-05
3.80219e-05
3.80236e-05
7.50927e-05
7.50914e-05
2.12433e-05
2.29896e-05
2.76626e-05
2.25853e-05
2.12437e-05
2.29896e-05
2.76572e-05
2.8201e-05
6.96123e-05
2.82038e-05
6.96109e-05
2.82007e-05
6.9615e-05
2.82035e-05
6.96136e-05
2.12442e-05
2.25853e-05
2.29895e-05
2.76564e-05
2.29895e-05
2.7662e-05
2.12437e-05
2.1244e-05
2.25853e-05
2.29895e-05
2.76573e-05
2.29895e-05
2.7663e-05
2.12435e-05
2.82045e-05
6.96115e-05
6.96124e-05
2.82016e-05
2.82042e-05
6.96142e-05
6.96151e-05
2.82013e-05
7.50914e-05
7.50921e-05
7.50907e-05
7.50915e-05
2.18872e-05
3.80219e-05
3.80264e-05
3.80239e-05
3.80284e-05
7.50928e-05
7.50914e-05
7.50922e-05
7.50908e-05
7.50921e-05
7.5095e-05
7.50907e-05
7.50935e-05
3.80242e-05
3.80277e-05
2.18914e-05
3.80222e-05
3.80257e-05
7.50975e-05
7.50927e-05
7.5096e-05
7.50912e-05
2.18876e-05
3.80227e-05
3.80261e-05
3.80249e-05
3.80283e-05
2.82038e-05
6.9615e-05
2.82065e-05
6.96149e-05
2.1245e-05
2.76624e-05
2.299e-05
2.25851e-05
2.12455e-05
2.76564e-05
2.299e-05
2.12451e-05
2.76643e-05
2.29899e-05
2.2585e-05
2.12456e-05
2.76582e-05
2.29899e-05
2.82063e-05
6.96124e-05
6.96119e-05
2.82034e-05
2.82068e-05
6.96161e-05
6.96156e-05
2.82038e-05
2.12457e-05
2.25851e-05
2.76561e-05
2.299e-05
2.76626e-05
2.299e-05
2.12452e-05
2.12459e-05
2.2585e-05
2.76578e-05
2.29899e-05
2.76644e-05
2.29899e-05
2.12453e-05
3.80296e-05
3.802e-05
2.18914e-05
3.80276e-05
3.80178e-05
7.50881e-05
7.50911e-05
7.50975e-05
7.50926e-05
2.18876e-05
3.80281e-05
3.80184e-05
3.80303e-05
3.80209e-05
7.50937e-05
7.50889e-05
2.12456e-05
2.76634e-05
2.29898e-05
2.25856e-05
2.12461e-05
2.76575e-05
2.29898e-05
2.82047e-05
6.96094e-05
2.82072e-05
6.9609e-05
2.12453e-05
2.29896e-05
2.76626e-05
2.25846e-05
2.12458e-05
2.29896e-05
2.76563e-05
2.82079e-05
6.96151e-05
6.96149e-05
2.82052e-05
2.12463e-05
2.25856e-05
2.76571e-05
2.29898e-05
2.76636e-05
2.29898e-05
2.12458e-05
2.82075e-05
6.961e-05
6.96099e-05
2.82047e-05
2.12461e-05
2.25846e-05
2.29896e-05
2.7656e-05
2.29896e-05
2.76629e-05
2.12455e-05
2.82036e-05
6.96118e-05
2.82064e-05
6.96114e-05
2.12449e-05
2.29898e-05
2.76621e-05
2.2585e-05
2.12455e-05
2.29897e-05
2.76561e-05
2.82036e-05
6.96123e-05
2.82063e-05
6.96121e-05
2.12456e-05
2.25857e-05
2.76548e-05
2.29898e-05
2.76616e-05
2.29898e-05
2.1245e-05
2.82066e-05
6.96126e-05
6.96124e-05
2.82036e-05
2.12457e-05
2.2585e-05
2.29897e-05
2.76557e-05
2.29897e-05
2.76623e-05
2.12451e-05
2.82065e-05
6.96133e-05
6.96128e-05
2.82035e-05
3.80226e-05
3.80241e-05
2.18908e-05
3.80205e-05
3.80222e-05
7.50916e-05
7.50944e-05
7.50929e-05
7.50882e-05
2.1887e-05
3.80211e-05
3.80226e-05
3.80236e-05
3.80248e-05
7.50968e-05
7.50921e-05
2.12437e-05
2.29896e-05
2.76632e-05
2.25855e-05
2.12443e-05
2.29896e-05
2.76571e-05
2.8202e-05
6.96126e-05
2.82051e-05
6.96125e-05
2.82017e-05
6.96153e-05
2.82048e-05
6.96151e-05
2.12446e-05
2.25854e-05
2.29897e-05
2.76559e-05
2.29897e-05
2.76624e-05
2.1244e-05
2.12445e-05
2.25855e-05
2.29896e-05
2.76567e-05
2.29896e-05
2.76634e-05
2.12438e-05
2.82053e-05
6.96136e-05
6.96132e-05
2.8202e-05
2.8205e-05
6.96162e-05
6.96158e-05
2.82017e-05
7.50916e-05
7.50945e-05
7.5091e-05
7.50939e-05
2.18874e-05
3.80227e-05
3.80273e-05
3.8025e-05
3.80295e-05
7.5097e-05
7.50922e-05
7.50964e-05
7.50916e-05
7.50933e-05
7.50996e-05
7.50918e-05
7.5098e-05
3.80261e-05
3.80294e-05
2.18917e-05
3.80231e-05
3.80264e-05
7.51014e-05
7.50937e-05
7.50999e-05
7.5092e-05
2.18879e-05
3.80235e-05
3.80268e-05
3.80274e-05
3.80307e-05
2.82035e-05
6.96162e-05
2.82069e-05
6.96171e-05
2.12453e-05
2.76631e-05
2.29901e-05
2.25852e-05
2.1246e-05
2.7656e-05
2.29901e-05
2.12454e-05
2.76649e-05
2.299e-05
2.25851e-05
2.12462e-05
2.76577e-05
2.299e-05
2.82074e-05
6.96136e-05
6.96122e-05
2.82035e-05
2.82078e-05
6.96177e-05
6.96162e-05
2.82039e-05
2.12464e-05
2.25852e-05
2.7656e-05
2.29901e-05
2.76638e-05
2.29901e-05
2.12455e-05
2.12465e-05
2.25851e-05
2.76576e-05
2.299e-05
2.76656e-05
2.299e-05
2.12456e-05
3.80315e-05
3.80222e-05
2.18916e-05
3.80284e-05
3.80188e-05
7.50896e-05
7.5096e-05
7.51014e-05
7.50937e-05
2.18878e-05
3.80285e-05
3.8019e-05
3.80327e-05
3.80234e-05
7.50977e-05
7.50901e-05
2.12459e-05
2.76641e-05
2.29899e-05
2.25857e-05
2.12466e-05
2.7657e-05
2.29899e-05
2.82045e-05
6.96104e-05
2.82076e-05
6.9611e-05
2.12456e-05
2.29897e-05
2.76634e-05
2.25847e-05
2.12463e-05
2.29897e-05
2.7656e-05
2.82088e-05
6.96168e-05
6.96153e-05
2.82052e-05
2.12469e-05
2.25857e-05
2.76571e-05
2.29899e-05
2.76648e-05
2.29899e-05
2.1246e-05
2.82085e-05
6.96115e-05
6.96102e-05
2.82048e-05
2.12466e-05
2.25847e-05
2.29897e-05
2.7656e-05
2.29897e-05
2.76641e-05
2.12458e-05
2.82033e-05
6.96131e-05
2.82067e-05
6.96138e-05
2.12451e-05
2.29899e-05
2.76627e-05
2.25851e-05
2.12459e-05
2.29899e-05
2.76556e-05
2.82033e-05
6.96134e-05
2.82067e-05
6.96142e-05
2.12461e-05
2.25858e-05
2.76547e-05
2.29899e-05
2.76628e-05
2.299e-05
2.12452e-05
2.82075e-05
6.96144e-05
6.9613e-05
2.82036e-05
2.12462e-05
2.25851e-05
2.29898e-05
2.76556e-05
2.29899e-05
2.76635e-05
2.12453e-05
2.82075e-05
6.96148e-05
6.96133e-05
2.82036e-05
3.80249e-05
3.8026e-05
2.18911e-05
3.80216e-05
3.8023e-05
7.50927e-05
7.5099e-05
7.50968e-05
7.5089e-05
2.18873e-05
3.80218e-05
3.80233e-05
3.80262e-05
3.80273e-05
7.51008e-05
7.5093e-05
2.12439e-05
2.29898e-05
2.76638e-05
2.25856e-05
2.12447e-05
2.29898e-05
2.76566e-05
2.82017e-05
6.96137e-05
2.82054e-05
6.96145e-05
2.82014e-05
6.96162e-05
2.82051e-05
6.9617e-05
2.12451e-05
2.25856e-05
2.29896e-05
2.76558e-05
2.29897e-05
2.76636e-05
2.12442e-05
2.1245e-05
2.25856e-05
2.29897e-05
2.76566e-05
2.29897e-05
2.76645e-05
2.1244e-05
2.82062e-05
6.96151e-05
6.96136e-05
2.82021e-05
2.82059e-05
6.96176e-05
6.96161e-05
2.82017e-05
7.50929e-05
7.50992e-05
7.50922e-05
7.50985e-05
2.18876e-05
3.80233e-05
3.8028e-05
3.80273e-05
3.80319e-05
7.5101e-05
7.50932e-05
7.51003e-05
7.50926e-05
7.50937e-05
7.5104e-05
7.50921e-05
7.51023e-05
3.80286e-05
3.8032e-05
2.18919e-05
3.80239e-05
3.80276e-05
7.51074e-05
7.50947e-05
7.51059e-05
7.5093e-05
2.18881e-05
3.80242e-05
3.80281e-05
3.80289e-05
3.80327e-05
2.82047e-05
6.96159e-05
2.82089e-05
6.96191e-05
2.12456e-05
2.76644e-05
2.29901e-05
2.25854e-05
2.12466e-05
2.76556e-05
2.299e-05
2.12458e-05
2.7666e-05
2.29901e-05
2.25852e-05
2.12467e-05
2.76572e-05
2.299e-05
2.82085e-05
6.96173e-05
6.96119e-05
2.82042e-05
2.8209e-05
6.96219e-05
6.96164e-05
2.82047e-05
2.12466e-05
2.25854e-05
2.76544e-05
2.29898e-05
2.76642e-05
2.29899e-05
2.12454e-05
2.12468e-05
2.25853e-05
2.7656e-05
2.29897e-05
2.76659e-05
2.29899e-05
2.12455e-05
3.80337e-05
3.80244e-05
2.18919e-05
3.80288e-05
3.80192e-05
7.50901e-05
7.51005e-05
7.5107e-05
7.50947e-05
2.1888e-05
3.80294e-05
3.80198e-05
3.80339e-05
3.80246e-05
7.51034e-05
7.50911e-05
2.12462e-05
2.76655e-05
2.299e-05
2.25859e-05
2.12471e-05
2.76568e-05
2.299e-05
2.82057e-05
6.96098e-05
2.82096e-05
6.96127e-05
2.1246e-05
2.29898e-05
2.76647e-05
2.25848e-05
2.12469e-05
2.29898e-05
2.76557e-05
2.821e-05
6.96205e-05
6.96153e-05
2.82062e-05
2.12473e-05
2.25859e-05
2.76557e-05
2.299e-05
2.76654e-05
2.299e-05
2.12462e-05
2.82097e-05
6.96152e-05
6.96101e-05
2.82058e-05
2.1247e-05
2.25848e-05
2.29897e-05
2.76545e-05
2.29898e-05
2.76645e-05
2.12459e-05
2.82045e-05
6.96127e-05
2.82086e-05
6.96158e-05
2.12454e-05
2.299e-05
2.7664e-05
2.25853e-05
2.12464e-05
2.299e-05
2.76552e-05
2.82045e-05
6.9613e-05
2.82086e-05
6.9616e-05
2.12464e-05
2.25857e-05
2.76531e-05
2.29897e-05
2.76631e-05
2.29898e-05
2.12452e-05
2.82087e-05
6.96186e-05
6.96132e-05
2.82044e-05
2.12465e-05
2.25853e-05
2.29899e-05
2.7654e-05
2.299e-05
2.76638e-05
2.12453e-05
2.82087e-05
6.96186e-05
6.96132e-05
2.82044e-05
3.80273e-05
3.80285e-05
2.18913e-05
3.80223e-05
3.80239e-05
7.50931e-05
7.51033e-05
7.51028e-05
7.509e-05
2.18875e-05
3.80227e-05
3.80242e-05
3.80277e-05
3.8029e-05
7.51069e-05
7.50939e-05
2.12442e-05
2.29898e-05
2.76651e-05
2.25858e-05
2.12452e-05
2.29898e-05
2.76563e-05
2.82027e-05
6.96132e-05
2.8207e-05
6.96162e-05
2.82026e-05
6.96158e-05
2.8207e-05
6.96188e-05
2.12453e-05
2.25855e-05
2.29895e-05
2.76541e-05
2.29896e-05
2.76639e-05
2.12442e-05
2.12453e-05
2.25858e-05
2.29897e-05
2.76551e-05
2.29898e-05
2.76649e-05
2.12441e-05
2.82069e-05
6.96185e-05
6.96134e-05
2.82024e-05
2.82071e-05
6.96214e-05
6.9616e-05
2.82025e-05
7.50932e-05
7.51036e-05
7.50926e-05
7.51029e-05
2.18878e-05
3.80241e-05
3.80288e-05
3.80288e-05
3.80335e-05
7.51069e-05
7.50942e-05
7.51062e-05
7.50935e-05
7.50958e-05
7.51093e-05
7.50944e-05
7.51083e-05
3.8029e-05
3.8033e-05
2.18921e-05
3.80256e-05
3.80294e-05
7.5108e-05
7.50933e-05
7.51075e-05
7.50924e-05
2.18883e-05
3.80281e-05
3.80317e-05
3.80309e-05
3.80348e-05
2.82038e-05
6.96178e-05
2.82083e-05
6.96255e-05
2.12446e-05
2.76638e-05
2.29897e-05
2.25854e-05
2.12465e-05
2.76525e-05
2.29896e-05
2.12448e-05
2.76655e-05
2.29897e-05
2.25851e-05
2.12467e-05
2.76542e-05
2.29896e-05
2.82072e-05
6.96258e-05
6.96149e-05
2.8203e-05
2.82077e-05
6.963e-05
6.96193e-05
2.82035e-05
2.1246e-05
2.25853e-05
2.765e-05
2.29894e-05
2.76633e-05
2.29896e-05
2.12434e-05
2.12462e-05
2.25849e-05
2.76515e-05
2.29894e-05
2.7665e-05
2.29895e-05
2.12435e-05
3.80344e-05
3.8025e-05
2.18918e-05
3.80305e-05
3.8021e-05
7.5092e-05
7.51064e-05
7.51073e-05
7.50925e-05
2.18879e-05
3.80321e-05
3.80232e-05
3.80358e-05
3.80266e-05
7.51062e-05
7.50908e-05
2.12457e-05
2.76651e-05
2.29901e-05
2.2586e-05
2.12474e-05
2.7654e-05
2.29901e-05
2.82051e-05
6.9611e-05
2.82093e-05
6.96188e-05
2.12455e-05
2.29897e-05
2.76642e-05
2.25849e-05
2.12471e-05
2.29896e-05
2.76527e-05
2.82091e-05
6.96291e-05
6.96182e-05
2.82051e-05
2.12471e-05
2.2586e-05
2.76515e-05
2.29899e-05
2.76647e-05
2.299e-05
2.12447e-05
2.82087e-05
6.96238e-05
6.96129e-05
2.82047e-05
2.12468e-05
2.25847e-05
2.29894e-05
2.76503e-05
2.29895e-05
2.76638e-05
2.12445e-05
2.82035e-05
6.96146e-05
2.82081e-05
6.96222e-05
2.12446e-05
2.29899e-05
2.76634e-05
2.25852e-05
2.12465e-05
2.29897e-05
2.76521e-05
2.82035e-05
6.96144e-05
2.8208e-05
6.96223e-05
2.1246e-05
2.25854e-05
2.76487e-05
2.29895e-05
2.76623e-05