/*--------------------------------*- C++ -*----------------------------------*\
| =========                 |                                                 |
| \\      /  F ield         | OpenFOAM: The Open Source CFD Toolbox           |
|  \\    /   O peration     | Version:  2206                                  |
|   \\  /    A nd           | Website:  www.openfoam.com                      |
|    \\/     M anipulation  |                                                 |
\*---------------------------------------------------------------------------*/
FoamFile
{
    version     2.0;
    format      ascii;
    arch        "LSB;label=32;scalar=64";
    class       volScalarField;
    location    "39";
    object      nut;
}
// * * * * * * * * * * * * * * * * * * * * * * * * * * * * * * * * * * * * * //

dimensions      [0 2 -1 0 0 0 0];

internalField   nonuniform List<scalar> 
28673
(
0.000172597
0.000143101
0.000208261
0.000172597
0.000172585
0.000143129
0.00020826
0.000172596
0.000172586
0.000143126
0.00020826
0.000172595
0.000172584
0.000143125
0.00020826
0.000172594
0.000172583
0.000143124
0.000208261
0.000172593
0.000172583
0.000143123
0.00020826
0.000172593
0.000172583
0.000143123
0.00020826
0.00017259
0.000172582
0.000143124
0.000208256
0.000172586
0.000172578
0.000143113
0.000208228
0.00017256
0.000172554
0.000143083
0.000208233
0.000172577
0.000172564
0.000143099
0.00020825
0.000172585
0.000172575
0.000143121
0.000209623
0.000175805
0.000175802
0.000147227
0.000172566
0.000143255
0.000172597
0.000143272
0.000172574
0.000172565
0.000172571
0.000172565
0.000143073
0.0001433
0.000172589
0.000172555
0.000172571
0.000172597
0.000172571
0.000143261
0.00017259
0.000172586
0.00017259
0.000143316
0.00014309
0.000143294
0.00017257
0.000172565
0.000172569
0.000172564
0.00014312
0.000143323
0.000172588
0.000172555
0.000172588
0.000172555
0.00017257
0.000172596
0.00017257
0.000143082
0.00014331
0.00017259
0.000172586
0.000172589
0.000143312
0.000143111
0.000143311
0.00017257
0.000172564
0.000172569
0.000172564
0.000143136
0.000143322
0.000172589
0.000172555
0.000172588
0.000172555
0.000172569
0.000172595
0.000172568
0.000143126
0.000143307
0.000172588
0.000172584
0.000172587
0.000143311
0.000143128
0.000143316
0.00017257
0.000172564
0.000172569
0.000172563
0.000143136
0.00014332
0.000172588
0.000172555
0.000172587
0.000172554
0.000172568
0.000172594
0.000172567
0.000143122
0.000143306
0.000172587
0.000172583
0.000172586
0.00014331
0.00014313
0.000143315
0.00017257
0.000172563
0.000172569
0.000172563
0.000143135
0.00014332
0.000172588
0.000172554
0.000172588
0.000172554
0.000172567
0.000172594
0.000172567
0.000143121
0.000143306
0.000172586
0.000172583
0.000172586
0.000143309
0.00014313
0.000143315
0.00017257
0.000172563
0.00017257
0.000172564
0.000143134
0.000143319
0.000172588
0.000172554
0.000172589
0.000172554
0.000172567
0.000172593
0.000172568
0.000143121
0.000143306
0.000172587
0.000172583
0.000172587
0.000143309
0.00014313
0.000143316
0.000172571
0.000172565
0.000172572
0.000172565
0.000143134
0.000143319
0.00017259
0.000172555
0.000172591
0.000172557
0.000172569
0.000172591
0.00017257
0.000143121
0.000143306
0.000172589
0.000172583
0.000172589
0.000143309
0.000143131
0.000143313
0.000172573
0.000172564
0.000172568
0.000172559
0.000143134
0.000143309
0.000172592
0.000172558
0.000172592
0.000172554
0.000172569
0.000172588
0.000172564
0.000143122
0.000143304
0.000172588
0.000172579
0.000172583
0.000143302
0.000143126
0.000143282
0.000172566
0.000172555
0.000172545
0.000172535
0.000143121
0.000143282
0.000172589
0.000172552
0.000172568
0.000172534
0.000172561
0.000172568
0.00017254
0.000143118
0.000143278
0.00017258
0.000172564
0.00017256
0.000143273
0.000143093
0.000143286
0.000172538
0.000172528
0.000172549
0.000172543
0.000143096
0.000143292
0.000172558
0.000172524
0.000172566
0.000172531
0.000172534
0.000172576
0.000172547
0.000143087
0.000143276
0.000172552
0.000172562
0.000172567
0.000143282
0.000143103
0.000143309
0.000172552
0.000172546
0.0001726
0.000172592
0.000143108
0.000143313
0.00017257
0.000172535
0.00017262
0.000172586
0.000172551
0.000172624
0.000172596
0.000143094
0.000143301
0.00017257
0.000172615
0.000172618
0.000143303
0.000143128
0.000144999
0.00017256
0.000172553
0.000174719
0.000174715
0.000143131
0.000145002
0.00017258
0.000172545
0.000174734
0.000174711
0.000172556
0.000174736
0.000174718
0.00014312
0.000144993
0.000172578
0.000174732
0.000174735
0.000144998
0.000147229
0.000175792
0.000175788
0.00014723
0.000175804
0.000175785
0.000209622
0.000209622
0.000209623
0.000175791
0.000147223
0.000175804
3.86805e-05
4.94024e-05
3.86749e-05
4.94016e-05
2.45347e-05
2.45346e-05
3.86862e-05
4.93974e-05
0.000208263
0.000208259
0.000208262
0.000208262
0.000208256
0.000208259
7.64828e-05
4.62297e-05
0.000193018
0.000172598
7.646e-05
4.62394e-05
0.000193018
2.45322e-05
7.64743e-05
0.000193014
0.000172587
7.64517e-05
0.000193014
4.6242e-05
3.85324e-05
3.85299e-05
0.000143316
3.85333e-05
3.85299e-05
3.86839e-05
4.94018e-05
3.86782e-05
4.9401e-05
2.45342e-05
2.45342e-05
3.86898e-05
4.93978e-05
3.86845e-05
4.9397e-05
0.000208261
0.000208254
0.000208259
0.00020826
0.000208261
0.000208254
0.000208258
7.64837e-05
4.62331e-05
0.000193018
0.000172597
7.64598e-05
4.62427e-05
0.000193018
2.45317e-05
2.45317e-05
7.6475e-05
0.000193013
4.62359e-05
0.000172586
7.64512e-05
0.000193013
4.62454e-05
3.85349e-05
3.85316e-05
0.000143314
3.85381e-05
3.85348e-05
3.86874e-05
4.94015e-05
3.86818e-05
4.94009e-05
2.4534e-05
2.45341e-05
3.86933e-05
4.93975e-05
3.8688e-05
4.93968e-05
0.000208261
0.000208253
0.000208257
0.00020826
0.000208261
0.000208252
0.000208255
7.64847e-05
4.6236e-05
0.000193017
0.000172596
7.64606e-05
4.62454e-05
0.000193017
2.45314e-05
2.45315e-05
7.64757e-05
0.000193012
4.62392e-05
0.000172585
7.64518e-05
0.000193012
4.62485e-05
3.85395e-05
3.85364e-05
0.000143311
3.85423e-05
3.85392e-05
3.86904e-05
4.94015e-05
3.8685e-05
4.94011e-05
2.45339e-05
2.45341e-05
3.86964e-05
4.93975e-05
3.86913e-05
4.9397e-05
0.000208261
0.000208253
0.000208255
0.00020826
0.000208259
0.000208253
0.000208256
7.64858e-05
4.62384e-05
0.000193016
0.000172595
7.64617e-05
4.62475e-05
0.000193015
2.45313e-05
2.45314e-05
7.64767e-05
0.00019301
4.6242e-05
0.000172584
7.64528e-05
0.00019301
4.6251e-05
3.85428e-05
3.85398e-05
0.000143311
3.85449e-05
3.85418e-05
3.86925e-05
4.94017e-05
3.86875e-05
4.94017e-05
2.4534e-05
2.45345e-05
3.86986e-05
4.93976e-05
3.86939e-05
4.93976e-05
0.000208259
0.000208254
0.000208257
0.000208261
0.00020826
0.000208254
0.000208257
7.64865e-05
4.62413e-05
0.000193014
0.000172594
7.64629e-05
4.62496e-05
0.000193014
2.45313e-05
2.45318e-05
7.64775e-05
0.000193009
4.6245e-05
0.000172583
7.64539e-05
0.00019301
4.62531e-05
3.85455e-05
3.85425e-05
0.00014331
3.85475e-05
3.85445e-05
3.86946e-05
4.94021e-05
3.86903e-05
4.94023e-05
2.45342e-05
2.45353e-05
3.87006e-05
4.9398e-05
3.86967e-05
4.93983e-05
0.000208262
0.000208255
0.000208258
0.00020826
0.000208262
0.000208252
0.00020826
7.64887e-05
4.62448e-05
0.000193015
0.000172594
7.64648e-05
4.62515e-05
0.000193016
2.45315e-05
2.45325e-05
7.64796e-05
0.000193011
4.62485e-05
0.000172583
7.64558e-05
0.000193011
4.6255e-05
3.85512e-05
3.85483e-05
0.000143309
3.85522e-05
3.85494e-05
3.86917e-05
4.94018e-05
3.86886e-05
4.94029e-05
2.45343e-05
2.4536e-05
3.8698e-05
4.93979e-05
3.8695e-05
4.9399e-05
0.00020826
0.000208252
0.000208262
0.00020826
0.000208259
0.000208253
0.000208259
7.64877e-05
4.62473e-05
0.000193016
0.000172592
7.64651e-05
4.62519e-05
0.000193015
2.45316e-05
2.45333e-05
7.64786e-05
0.00019301
4.62512e-05
0.000172583
7.64559e-05
0.00019301
4.62557e-05
3.85551e-05
3.85523e-05
0.000143309
3.85549e-05
3.85521e-05
3.86885e-05
4.94023e-05
3.86866e-05
4.94051e-05
2.45345e-05
2.45368e-05
3.86963e-05
4.93984e-05
3.86939e-05
4.94012e-05
0.000208258
0.000208253
0.000208259
0.000208257
0.000208256
0.00020825
0.000208254
7.64838e-05
4.62524e-05
0.000193013
0.000172589
7.64651e-05
4.62527e-05
0.000193012
2.4532e-05
2.45345e-05
7.64763e-05
0.000193009
4.62571e-05
0.000172581
7.64568e-05
0.000193008
4.62573e-05
3.85611e-05
3.85584e-05
0.000143309
3.85575e-05
3.85547e-05
3.86798e-05
4.94036e-05
3.86783e-05
4.94088e-05
2.45332e-05
2.4536e-05
3.86877e-05
4.93997e-05
3.86871e-05
4.94051e-05
0.000208254
0.000208249
0.000208253
0.000208235
0.000208232
0.000208231
0.000208229
7.64651e-05
4.62587e-05
0.000193009
0.000172582
7.64536e-05
4.62518e-05
0.000193003
2.45312e-05
2.45341e-05
7.64592e-05
0.000193005
4.62639e-05
0.000172577
7.64472e-05
0.000193002
4.62568e-05
3.85589e-05
3.85557e-05
0.000143289
3.85461e-05
3.85426e-05
3.86695e-05
4.94042e-05
3.8667e-05
4.94118e-05
2.45299e-05
2.45338e-05
3.8677e-05
4.94009e-05
3.86751e-05
4.94087e-05
0.000208227
0.000208222
0.000208224
0.000208232
0.000208234
0.000208225
0.000208231
7.64477e-05
4.62697e-05
0.000192979
0.000172566
7.64367e-05
4.62452e-05
0.000192979
2.4528e-05
2.4532e-05
7.64418e-05
0.000192978
4.62734e-05
0.000172557
7.64311e-05
0.000192976
4.62475e-05
3.8536e-05
3.85327e-05
0.000143273
3.85054e-05
3.85021e-05
3.86538e-05
4.93983e-05
3.86495e-05
4.94108e-05
2.45237e-05
2.45287e-05
3.86608e-05
4.93953e-05
3.86567e-05
4.94077e-05
0.000208236
0.000208228
0.000208233
0.00020825
0.00020825
0.000208243
0.000208247
7.64437e-05
4.6271e-05
0.00019299
0.000172588
7.6436e-05
4.62156e-05
0.000192989
2.4522e-05
2.45269e-05
7.64376e-05
0.000192985
4.62714e-05
0.000172578
7.64301e-05
0.000192985
4.62151e-05
3.84845e-05
3.84812e-05
0.000143286
3.84261e-05
3.84227e-05
3.86788e-05
4.93863e-05
3.86239e-05
4.94264e-05
2.45122e-05
2.45261e-05
3.86828e-05
4.93828e-05
3.86296e-05
4.94235e-05
0.00020825
0.000208244
0.000208247
0.000208652
0.000208652
0.000208649
0.000208651
7.6583e-05
4.62668e-05
0.000193059
0.000172855
7.64686e-05
4.62015e-05
0.000192992
2.45102e-05
2.45241e-05
7.65783e-05
0.000193055
4.62659e-05
0.000172847
7.64629e-05
0.000192989
4.62011e-05
3.8374e-05
3.83705e-05
0.000143563
3.82098e-05
3.82076e-05
4.13845e-05
5.26175e-05
3.87835e-05
8.62717e-05
2.6983e-05
3.00334e-05
4.13872e-05
5.26146e-05
3.87864e-05
8.62691e-05
0.000224446
0.000218878
0.000218881
0.000206059
0.000224219
0.000217726
0.000217728
8.14193e-05
4.71718e-05
0.000195261
0.000178568
7.84347e-05
5.77841e-05
0.00019879
2.69815e-05
3.00314e-05
8.14141e-05
0.000195258
4.71719e-05
0.000178566
7.84307e-05
0.000198789
5.77777e-05
3.91351e-05
3.91293e-05
0.000152569
3.8846e-05
3.8843e-05
4.94019e-05
4.62425e-05
2.4535e-05
3.85314e-05
3.85282e-05
2.45354e-05
4.62377e-05
4.94002e-05
2.4536e-05
2.45358e-05
2.4534e-05
3.85332e-05
0.000143258
3.85336e-05
3.8528e-05
2.45355e-05
2.45357e-05
2.45337e-05
2.45338e-05
0.000143075
3.85362e-05
3.85308e-05
3.85325e-05
3.85272e-05
3.86814e-05
4.94025e-05
3.86758e-05
4.94017e-05
7.64838e-05
4.62355e-05
0.000193018
0.000172573
7.64609e-05
4.62446e-05
0.000193018
7.64842e-05
4.62348e-05
0.000193016
0.000172564
7.64612e-05
4.62442e-05
0.000193016
3.86766e-05
4.94012e-05
4.94021e-05
3.86822e-05
3.86775e-05
4.94014e-05
4.94022e-05
3.86831e-05
7.64615e-05
0.000172572
4.62461e-05
0.000193018
4.62371e-05
0.000193018
7.64844e-05
7.64618e-05
0.000172565
4.62458e-05
0.000193016
4.62365e-05
0.000193016
7.64848e-05
3.85306e-05
3.85268e-05
0.000143274
3.85341e-05
3.85297e-05
2.45353e-05
2.45351e-05
2.45344e-05
2.45345e-05
0.000143093
3.85363e-05
3.8531e-05
3.85329e-05
3.8528e-05
2.45349e-05
2.4535e-05
7.64849e-05
0.00017259
4.62366e-05
0.000193015
3.86853e-05
4.93941e-05
7.64851e-05
0.000172556
0.000193009
4.62321e-05
3.86828e-05
4.93972e-05
4.9398e-05
3.86881e-05
7.6463e-05
0.00017259
4.62386e-05
0.000193014
4.62292e-05
0.000193015
7.64856e-05
3.86818e-05
4.93937e-05
4.93946e-05
3.8687e-05
7.64629e-05
0.000172555
0.000193008
4.62339e-05
0.000193009
4.62243e-05
7.64857e-05
3.86807e-05
4.94008e-05
3.8675e-05
4.93999e-05
7.64822e-05
0.000193016
4.62327e-05
0.000172571
7.64596e-05
0.000193016
4.62419e-05
3.86806e-05
4.93987e-05
3.8675e-05
4.93978e-05
7.64607e-05
0.000172597
4.62411e-05
0.000193018
4.62316e-05
0.000193019
7.64835e-05
3.86768e-05
4.93996e-05
4.94005e-05
3.86823e-05
7.64602e-05
0.000172571
0.000193016
4.62435e-05
0.000193016
4.62343e-05
7.64828e-05
3.86767e-05
4.93975e-05
4.93984e-05
3.86823e-05
0.000143241
3.8522e-05
3.85317e-05
2.45349e-05
2.45319e-05
2.4532e-05
0.000143059
3.85235e-05
3.85345e-05
3.85205e-05
3.85309e-05
2.45345e-05
2.45347e-05
7.64731e-05
0.000193014
4.62304e-05
0.00017259
7.64508e-05
0.000193014
4.62396e-05
3.86732e-05
3.86673e-05
4.93974e-05
3.86726e-05
4.93985e-05
3.86669e-05
4.93977e-05
7.64522e-05
0.000172586
0.000193014
4.62437e-05
0.000193014
4.62344e-05
7.64749e-05
7.64512e-05
0.00017259
0.000193013
4.62412e-05
0.000193014
4.62319e-05
7.64736e-05
3.86689e-05
4.93972e-05
4.9398e-05
3.86747e-05
3.86684e-05
4.93973e-05
4.93982e-05
3.86742e-05
2.45347e-05
2.45345e-05
2.45337e-05
2.45335e-05
0.000143131
3.85357e-05
3.85324e-05
3.85321e-05
3.85288e-05
2.45342e-05
2.45343e-05
2.45332e-05
2.45333e-05
2.45354e-05
2.45353e-05
2.45335e-05
2.45334e-05
3.8535e-05
3.85297e-05
0.000143286
3.85386e-05
3.85333e-05
2.45352e-05
2.45352e-05
2.45333e-05
2.45333e-05
0.000143103
3.8541e-05
3.85357e-05
3.85375e-05
3.85321e-05
3.86848e-05
4.94019e-05
3.86792e-05
4.94012e-05
7.64848e-05
4.62386e-05
0.000193017
0.00017257
7.64621e-05
4.62478e-05
0.000193017
7.64851e-05
4.62382e-05
0.000193016
0.000172565
7.64624e-05
4.62475e-05
0.000193016
3.86801e-05
4.94009e-05
4.94016e-05
3.86857e-05
3.86809e-05
4.94011e-05
4.94017e-05
3.86865e-05
7.64624e-05
0.00017257
4.62493e-05
0.000193017
4.62403e-05
0.000193017
7.64852e-05
7.64627e-05
0.000172564
4.6249e-05
0.000193014
4.62398e-05
0.000193015
7.64855e-05
3.85352e-05
3.85294e-05
0.000143321
3.85386e-05
3.85325e-05
2.45348e-05
2.45347e-05
2.45341e-05
2.45341e-05
0.000143138
3.85405e-05
3.8534e-05
3.85374e-05
3.85309e-05
2.45347e-05
2.45346e-05
7.64859e-05
4.62312e-05
0.000193014
0.000172588
7.64636e-05
4.62406e-05
0.000193014
3.86888e-05
4.93943e-05
3.86835e-05
4.93934e-05
7.6486e-05
0.000193008
4.62261e-05
0.000172555
7.64635e-05
0.000193008
4.62356e-05
3.86863e-05
4.93969e-05
4.93976e-05
3.86916e-05
7.64638e-05
0.000172588
4.62424e-05
0.000193014
4.62332e-05
0.000193014
7.64861e-05
3.86853e-05
4.93932e-05
4.9394e-05
3.86906e-05
7.64637e-05
0.000172555
0.000193008
4.62372e-05
0.000193008
4.62277e-05
7.64863e-05
3.8684e-05
4.94002e-05
3.86784e-05
4.93994e-05
7.64832e-05
0.000193015
4.62359e-05
0.00017257
7.64608e-05
0.000193015
4.62451e-05
3.8684e-05
4.93981e-05
3.86784e-05
4.93973e-05
7.64615e-05
0.000172597
4.62441e-05
0.000193017
4.62348e-05
0.000193018
7.64843e-05
3.86801e-05
4.93993e-05
4.94e-05
3.86858e-05
7.64611e-05
0.00017257
0.000193015
4.62467e-05
0.000193015
4.62375e-05
7.64836e-05
3.86801e-05
4.93971e-05
4.93979e-05
3.86857e-05
3.85218e-05
3.85334e-05
0.000143294
3.85249e-05
3.8537e-05
2.45344e-05
2.45343e-05
2.45316e-05
2.45316e-05
0.000143114
3.85264e-05
3.85394e-05
3.85232e-05
3.85358e-05
2.45341e-05
2.45341e-05
7.64738e-05
0.000193013
4.62335e-05
0.00017259
7.64516e-05
0.000193013
4.62428e-05
3.86764e-05
4.93978e-05
3.86705e-05
4.9397e-05
3.86758e-05
4.93979e-05
3.86699e-05
4.93971e-05
7.64528e-05
0.000172586
0.000193012
4.6247e-05
0.000193013
4.62378e-05
7.64754e-05
7.64517e-05
0.000172589
0.000193012
4.62444e-05
0.000193013
4.62351e-05
7.64741e-05
3.86721e-05
4.93968e-05
4.93976e-05
3.86781e-05
3.86716e-05
4.9397e-05
4.93977e-05
3.86775e-05
2.45341e-05
2.4534e-05
2.4533e-05
2.4533e-05
0.000143129
3.85404e-05
3.85372e-05
3.85369e-05
3.85337e-05
2.45339e-05
2.45339e-05
2.45329e-05
2.45328e-05
2.45351e-05
2.45351e-05
2.45331e-05
2.45332e-05
3.85398e-05
3.85345e-05
0.000143303
3.85431e-05
3.85379e-05
2.45351e-05
2.4535e-05
2.45331e-05
2.45331e-05
0.00014312
3.85447e-05
3.85397e-05
3.85418e-05
3.85366e-05
3.86882e-05
4.94017e-05
3.86826e-05
4.9401e-05
7.64858e-05
4.62418e-05
0.000193016
0.00017257
7.64629e-05
4.62508e-05
0.000193016
7.64861e-05
4.62413e-05
0.000193013
0.000172564
7.64632e-05
4.62503e-05
0.000193013
3.86835e-05
4.94009e-05
4.94015e-05
3.8689e-05
3.86843e-05
4.94011e-05
4.94016e-05
3.86898e-05
7.64634e-05
0.00017257
4.6252e-05
0.000193016
4.62432e-05
0.000193016
7.64863e-05
7.64638e-05
0.000172564
4.62514e-05
0.000193014
4.62426e-05
0.000193014
7.64867e-05
3.85393e-05
3.85323e-05
0.00014332
3.85422e-05
3.85353e-05
2.45345e-05
2.45346e-05
2.45341e-05
2.4534e-05
0.000143135
3.85433e-05
3.85364e-05
3.85408e-05
3.85336e-05
2.45346e-05
2.45345e-05
7.64863e-05
4.6235e-05
0.000193014
0.000172589
7.64641e-05
4.62442e-05
0.000193014
3.86924e-05
4.93939e-05
3.86872e-05
4.93932e-05
7.64865e-05
0.000193008
4.62293e-05
0.000172555
7.6464e-05
0.000193008
4.62387e-05
3.86898e-05
4.93969e-05
4.93975e-05
3.86949e-05
7.64642e-05
0.000172588
4.62456e-05
0.000193014
4.62367e-05
0.000193014
7.64865e-05
3.86889e-05
4.93932e-05
4.93938e-05
3.86941e-05
7.64642e-05
0.000172555
0.000193008
4.624e-05
0.000193008
4.62308e-05
7.64867e-05
3.86875e-05
4.93999e-05
3.86819e-05
4.93993e-05
7.64842e-05
0.000193014
4.6239e-05
0.000172569
7.64616e-05
0.000193014
4.62481e-05
3.86874e-05
4.93977e-05
3.86818e-05
4.93971e-05
7.64626e-05
0.000172596
4.62465e-05
0.000193016
4.62375e-05
0.000193017
7.64854e-05
3.86836e-05
4.93993e-05
4.93999e-05
3.86891e-05
7.64622e-05
0.000172569
0.000193014
4.62493e-05
0.000193014
4.62404e-05
7.64848e-05
3.86835e-05
4.93971e-05
4.93977e-05
3.8689e-05
3.85247e-05
3.85382e-05
0.000143308
3.85279e-05
3.85416e-05
2.4534e-05
2.4534e-05
2.45314e-05
2.45314e-05
0.000143122
3.85292e-05
3.85434e-05
3.85262e-05
3.85404e-05
2.4534e-05
2.45339e-05
7.64746e-05
0.000193012
4.62367e-05
0.000172588
7.64522e-05
0.000193011
4.62458e-05
3.86797e-05
4.93974e-05
3.86738e-05
4.93968e-05
3.86791e-05
4.93976e-05
3.86733e-05
4.9397e-05
7.64536e-05
0.000172585
0.00019301
4.62498e-05
0.000193012
4.62409e-05
7.64763e-05
7.64527e-05
0.000172588
0.00019301
4.62471e-05
0.000193011
4.62381e-05
7.64752e-05
3.86755e-05
4.93968e-05
4.93974e-05
3.86813e-05
3.86749e-05
4.9397e-05
4.93976e-05
3.86807e-05
2.45338e-05
2.45338e-05
2.45327e-05
2.45328e-05
0.000143126
3.85439e-05
3.85408e-05
3.8541e-05
3.85379e-05
2.45338e-05
2.45337e-05
2.45328e-05
2.45327e-05
2.4535e-05
2.45351e-05
2.4533e-05
2.45332e-05
3.85433e-05
3.85384e-05
0.000143316
3.85458e-05
3.8541e-05
2.45353e-05
2.4535e-05
2.45333e-05
2.4533e-05
0.000143132
3.85468e-05
3.85421e-05
3.85445e-05
3.85397e-05
3.86911e-05
4.94017e-05
3.86858e-05
4.94011e-05
7.64868e-05
4.62445e-05
0.000193017
0.00017257
7.64641e-05
4.62531e-05
0.000193017
7.64872e-05
4.62437e-05
0.000193014
0.000172564
7.64644e-05
4.62524e-05
0.000193014
3.86864e-05
4.94013e-05
4.94016e-05
3.86915e-05
3.86871e-05
4.94014e-05
4.94017e-05
3.86922e-05
7.64645e-05
0.000172569
4.62541e-05
0.000193016
4.62458e-05
0.000193017
7.64872e-05
7.64648e-05
0.000172563
4.62533e-05
0.000193013
4.62449e-05
0.000193014
7.64875e-05
3.85419e-05
3.85347e-05
0.000143321
3.85441e-05
3.85374e-05
2.45345e-05
2.45346e-05
2.45342e-05
2.4534e-05
0.000143135
3.85451e-05
3.85386e-05
3.85429e-05
3.85358e-05
2.45347e-05
2.45345e-05
7.64867e-05
4.62382e-05
0.000193013
0.000172588
7.64645e-05
4.62469e-05
0.000193013
3.86955e-05
4.93939e-05
3.86905e-05
4.93933e-05
7.6487e-05
0.000193007
4.62322e-05
0.000172555
7.64645e-05
0.000193007
4.62412e-05
3.86927e-05
4.93972e-05
4.93975e-05
3.86976e-05
7.64648e-05
0.000172588
4.6248e-05
0.000193013
4.62396e-05
0.000193014
7.6487e-05
3.86919e-05
4.93935e-05
4.93939e-05
3.86967e-05
7.64647e-05
0.000172554
0.000193007
4.62423e-05
0.000193007
4.62336e-05
7.64872e-05
3.86904e-05
4.93999e-05
3.86851e-05
4.93994e-05
7.64852e-05
0.000193013
4.62417e-05
0.000172568
7.64628e-05
0.000193013
4.62504e-05
3.86903e-05
4.93977e-05
3.8685e-05
4.93972e-05
7.64637e-05
0.000172595
4.62485e-05
0.000193014
4.62399e-05
0.000193015
7.64862e-05
3.86864e-05
4.93996e-05
4.93999e-05
3.86915e-05
7.64633e-05
0.000172567
0.000193012
4.62513e-05
0.000193012
4.62429e-05
7.64855e-05
3.86863e-05
4.93974e-05
4.93977e-05
3.86914e-05
3.85275e-05
3.85421e-05
0.000143307
3.85303e-05
3.85447e-05
2.45339e-05
2.4534e-05
2.45316e-05
2.45313e-05
0.000143123
3.85314e-05
3.85459e-05
3.85287e-05
3.85435e-05
2.45341e-05
2.45339e-05
7.64757e-05
0.00019301
4.62393e-05
0.000172587
7.64533e-05
0.00019301
4.62481e-05
3.86826e-05
4.93974e-05
3.8677e-05
4.93969e-05
3.86821e-05
4.93976e-05
3.86764e-05
4.93972e-05
7.64547e-05
0.000172583
0.000193009
4.6252e-05
0.000193009
4.62436e-05
7.64772e-05
7.64538e-05
0.000172586
0.000193009
4.62491e-05
0.000193009
4.62406e-05
7.6476e-05
3.86782e-05
4.93971e-05
4.93975e-05
3.86837e-05
3.86777e-05
4.93974e-05
4.93977e-05
3.86831e-05
2.45337e-05
2.45338e-05
2.45327e-05
2.45328e-05
0.000143126
3.85458e-05
3.85428e-05
3.85435e-05
3.85405e-05
2.45339e-05
2.45337e-05
2.45329e-05
2.45327e-05
2.45351e-05
2.45356e-05
2.45331e-05
2.45335e-05
3.85461e-05
3.85414e-05
0.000143315
3.85486e-05
3.85438e-05
2.4536e-05
2.45352e-05
2.45339e-05
2.45331e-05
0.000143131
3.85512e-05
3.85463e-05
3.85489e-05
3.85441e-05
3.86932e-05
4.94018e-05
3.86882e-05
4.94018e-05
7.64878e-05
4.62474e-05
0.000193016
0.00017257
7.64653e-05
4.62553e-05
0.000193016
7.64881e-05
4.62464e-05
0.000193013
0.000172563
7.64656e-05
4.62544e-05
0.000193013
3.8689e-05
4.94021e-05
4.94019e-05
3.86937e-05
3.86896e-05
4.94022e-05
4.9402e-05
3.86944e-05
7.64665e-05
0.000172569
4.62565e-05
0.000193016
4.62494e-05
0.000193016
7.64891e-05
7.64668e-05
0.000172563
4.62555e-05
0.000193014
4.62483e-05
0.000193014
7.64894e-05
3.85445e-05
3.85377e-05
0.00014332
3.85469e-05
3.85405e-05
2.45346e-05
2.4535e-05
2.45349e-05
2.45342e-05
0.000143135
3.85496e-05
3.85432e-05
3.85473e-05
3.85406e-05
2.45355e-05
2.45347e-05
7.64875e-05
4.62413e-05
0.000193013
0.000172588
7.64655e-05
4.62492e-05
0.000193013
3.86977e-05
4.9394e-05
3.86931e-05
4.93938e-05
7.64877e-05
0.000193007
4.62353e-05
0.000172554
7.64654e-05
0.000193006
4.62435e-05
3.86954e-05
4.93979e-05
4.93979e-05
3.86998e-05
7.64666e-05
0.000172588
4.62504e-05
0.000193013
4.62433e-05
0.000193013
7.64887e-05
3.86946e-05
4.93942e-05
4.93942e-05
3.8699e-05
7.64664e-05
0.000172554
0.000193006
4.62448e-05
0.000193007
4.62373e-05
7.64888e-05
3.86924e-05
4.94e-05
3.86875e-05
4.93999e-05
7.6486e-05
0.000193011
4.62445e-05
0.000172567
7.64639e-05
0.000193011
4.62524e-05
3.86924e-05
4.93978e-05
3.86874e-05
4.93978e-05
7.64654e-05
0.000172594
4.62508e-05
0.000193014
4.62434e-05
0.000193013
7.64876e-05
3.86889e-05
4.94004e-05
4.94003e-05
3.86936e-05
7.6465e-05
0.000172567
0.000193012
4.62536e-05
0.000193012
4.62464e-05
7.64871e-05
3.86888e-05
4.93982e-05
4.9398e-05
3.86936e-05
3.85305e-05
3.85452e-05
0.000143306
3.85335e-05
3.85476e-05
2.45339e-05
2.45344e-05
2.45322e-05
2.45314e-05
0.000143122
3.85363e-05
3.85502e-05
3.85335e-05
3.85479e-05
2.45348e-05
2.4534e-05
7.64765e-05
0.000193009
4.62422e-05
0.000172586
7.64545e-05
0.000193009
4.62502e-05
3.86846e-05
4.93975e-05
3.86793e-05
4.93975e-05
3.8684e-05
4.93978e-05
3.86788e-05
4.93977e-05
7.64564e-05
0.000172583
0.00019301
4.62543e-05
0.00019301
4.62471e-05
7.64786e-05
7.64555e-05
0.000172586
0.00019301
4.62514e-05
0.00019301
4.62441e-05
7.64775e-05
3.86806e-05
4.93979e-05
4.93977e-05
3.86857e-05
3.86801e-05
4.93981e-05
4.93979e-05
3.86852e-05
2.45337e-05
2.45342e-05
2.45327e-05
2.45332e-05
0.000143125
3.85501e-05
3.85471e-05
3.85478e-05
3.85448e-05
2.45346e-05
2.45338e-05
2.45336e-05
2.45328e-05
2.45353e-05
2.45363e-05
2.45332e-05
2.45343e-05
3.8552e-05
3.85471e-05
0.000143315
3.85535e-05
3.85486e-05
2.45366e-05
2.45353e-05
2.45346e-05
2.45333e-05
0.000143131
3.85547e-05
3.85498e-05
3.85542e-05
3.85492e-05
3.86952e-05
4.94022e-05
3.8691e-05
4.94025e-05
7.64905e-05
4.6251e-05
0.000193017
0.00017257
7.64677e-05
4.62573e-05
0.000193017
7.64908e-05
4.62499e-05
0.000193014
0.000172563
7.6468e-05
4.62562e-05
0.000193014
3.86903e-05
4.94025e-05
4.9402e-05
3.86936e-05
3.86909e-05
4.94027e-05
4.94022e-05
3.86943e-05
7.64679e-05
0.00017257
4.62575e-05
0.000193017
4.62523e-05
0.000193017
7.64904e-05
7.64682e-05
0.000172563
4.62564e-05
0.000193016
4.6251e-05
0.000193015
7.64907e-05
3.85504e-05
3.85438e-05
0.000143319
3.85517e-05
3.85454e-05
2.45348e-05
2.45358e-05
2.45356e-05
2.45343e-05
0.000143134
3.85528e-05
3.85464e-05
3.85523e-05
3.85457e-05
2.45361e-05
2.45349e-05
7.649e-05
4.6245e-05
0.000193013
0.000172588
7.64677e-05
4.62513e-05
0.000193013
3.86998e-05
4.93943e-05
3.8696e-05
4.93946e-05
7.64902e-05
0.000193006
4.6239e-05
0.000172554
7.64675e-05
0.000193006
4.62456e-05
3.86967e-05
4.93985e-05
4.9398e-05
3.86996e-05
7.64678e-05
0.000172589
4.62516e-05
0.000193013
4.62463e-05
0.000193013
7.64898e-05
3.86959e-05
4.93947e-05
4.93943e-05
3.86988e-05
7.64677e-05
0.000172554
0.000193007
4.62459e-05
0.000193007
4.62403e-05
7.649e-05
3.86944e-05
4.94005e-05
3.86902e-05
4.94008e-05
7.64883e-05
0.000193013
4.6248e-05
0.000172567
7.6466e-05
0.000193013
4.62543e-05
3.86944e-05
4.93982e-05
3.86902e-05
4.93985e-05
7.64663e-05
0.000172594
4.62516e-05
0.000193016
4.62461e-05
0.000193016
7.64884e-05
3.869e-05
4.9401e-05
4.94005e-05
3.86933e-05
7.6466e-05
0.000172568
0.000193014
4.62545e-05
0.000193013
4.62492e-05
7.6488e-05
3.869e-05
4.93987e-05
4.93982e-05
3.86933e-05
3.85368e-05
3.8551e-05
0.000143306
3.85386e-05
3.85524e-05
2.45341e-05
2.45351e-05
2.45329e-05
2.45316e-05
0.000143122
3.85397e-05
3.85537e-05
3.85389e-05
3.85531e-05
2.45354e-05
2.45341e-05
7.64787e-05
0.000193011
4.62457e-05
0.000172587
7.64565e-05
0.000193011
4.62521e-05
3.86864e-05
4.93979e-05
3.86819e-05
4.93982e-05
3.8686e-05
4.93981e-05
3.86815e-05
4.93984e-05
7.64571e-05
0.000172583
0.00019301
4.62552e-05
0.000193011
4.62499e-05
7.64792e-05
7.64564e-05
0.000172587
0.000193011
4.62523e-05
0.000193011
4.62469e-05
7.64783e-05
3.86817e-05
4.93984e-05
4.93979e-05
3.86853e-05
3.86813e-05
4.93986e-05
4.9398e-05
3.8685e-05
2.45339e-05
2.4535e-05
2.45329e-05
2.45339e-05
0.000143124
3.85534e-05
3.85506e-05
3.85528e-05
3.855e-05
2.45353e-05
2.4534e-05
2.45342e-05
2.4533e-05
2.45353e-05
2.4537e-05
2.45333e-05
2.4535e-05
3.8556e-05
3.85512e-05
0.000143316
3.85562e-05
3.85518e-05
2.45376e-05
2.45355e-05
2.45355e-05
2.45334e-05
0.000143131
3.85586e-05
3.85548e-05
3.85587e-05
3.85545e-05
3.86925e-05
4.94021e-05
3.86893e-05
4.94032e-05
7.64897e-05
4.62538e-05
0.000193017
0.000172571
7.64684e-05
4.62581e-05
0.000193016
7.64901e-05
4.62525e-05
0.000193016
0.000172565
7.64687e-05
4.62568e-05
0.000193015
3.86875e-05
4.94038e-05
4.94019e-05
3.86907e-05
3.86882e-05
4.94042e-05
4.94023e-05
3.86915e-05
7.64688e-05
0.000172571
4.62589e-05
0.000193014
4.62564e-05
0.000193015
7.64887e-05
7.64691e-05
0.000172565
4.62574e-05
0.000193012
4.62548e-05
0.000193014
7.64891e-05
3.85541e-05
3.85474e-05
0.00014332
3.85541e-05
3.85477e-05
2.45349e-05
2.45366e-05
2.45365e-05
2.45345e-05
0.000143134
3.85568e-05
3.85505e-05
3.85566e-05
3.855e-05
2.45371e-05
2.4535e-05
7.64895e-05
4.62479e-05
0.000193013
0.00017259
7.64683e-05
4.62523e-05
0.000193014
3.86973e-05
4.93941e-05
3.86943e-05
4.93952e-05
7.64897e-05
0.000193009
4.62417e-05
0.000172555
7.64682e-05
0.000193009
4.62464e-05
3.86943e-05
4.93999e-05
4.9398e-05
3.86975e-05
7.64692e-05
0.00017259
4.62535e-05
0.000193016
4.62507e-05
0.000193015
7.64895e-05
3.86935e-05
4.9396e-05
4.93942e-05
3.86967e-05
7.64691e-05
0.000172556
0.00019301
4.62476e-05
0.00019301
4.62444e-05
7.64896e-05
3.86915e-05
4.94004e-05
3.86884e-05
4.94015e-05
7.64873e-05
0.000193015
4.62507e-05
0.00017257
7.64664e-05
0.000193015
4.6255e-05
3.86915e-05
4.9398e-05
3.86884e-05
4.93991e-05
7.64671e-05
0.000172592
4.62526e-05
0.000193013
4.62499e-05
0.000193014
7.64873e-05
3.86872e-05
4.94025e-05
4.94006e-05
3.86906e-05
7.64668e-05
0.00017257
0.000193016
4.62559e-05
0.000193015
4.62532e-05
7.64867e-05
3.86873e-05
4.94001e-05
4.93981e-05
3.86906e-05
3.85407e-05
3.8555e-05
0.000143306
3.85413e-05
3.85554e-05
2.45342e-05
2.45358e-05
2.45338e-05
2.45317e-05
0.000143122
3.8544e-05
3.85579e-05
3.85435e-05
3.85579e-05
2.45364e-05
2.45343e-05
7.64777e-05
0.000193012
4.62484e-05
0.000172589
7.64568e-05
0.000193012
4.62529e-05
3.8684e-05
4.93977e-05
3.86807e-05
4.93988e-05
3.86832e-05
4.93979e-05
3.86797e-05
4.9399e-05
7.64581e-05
0.000172582
0.00019301
4.62568e-05
0.00019301
4.6254e-05
7.64788e-05
7.64573e-05
0.000172589
0.000193012
4.62538e-05
0.000193013
4.6251e-05
7.64774e-05
3.868e-05
4.93996e-05
4.93978e-05
3.86843e-05
3.86786e-05
4.93999e-05
4.9398e-05
3.86824e-05
2.4534e-05
2.45357e-05
2.4533e-05
2.45347e-05
0.000143125
3.85574e-05
3.85547e-05
3.85574e-05
3.85547e-05
2.45362e-05
2.45342e-05
2.45352e-05
2.45331e-05
2.45357e-05
2.45379e-05
2.45337e-05
2.45359e-05
3.85619e-05
3.85582e-05
0.000143317
3.85587e-05
3.8555e-05
2.45377e-05
2.45353e-05
2.45358e-05
2.45333e-05
0.000143132
3.8555e-05
3.85506e-05
3.85628e-05
3.8559e-05
3.86894e-05
4.94028e-05
3.86875e-05
4.94055e-05
7.64846e-05
4.62594e-05
0.000193012
0.000172572
7.64676e-05
4.62591e-05
0.000193011
7.6485e-05
4.62576e-05
0.000193011
0.000172562
7.6468e-05
4.62573e-05
0.00019301
3.86833e-05
4.94068e-05
4.9403e-05
3.86842e-05
3.86842e-05
4.94071e-05
4.94033e-05
3.8685e-05
7.64634e-05
0.00017257
4.62585e-05
0.00019301
4.62623e-05
0.000193011
7.64766e-05
7.64638e-05
0.00017256
4.62564e-05
0.000193008
4.62602e-05
0.000193009
7.64768e-05
3.85601e-05
3.85538e-05
0.000143318
3.85566e-05
3.85527e-05
2.45352e-05
2.45375e-05
2.45366e-05
2.45341e-05
0.000143132
3.85519e-05
3.85509e-05
3.85605e-05
3.8557e-05
2.45375e-05
2.4535e-05
7.64873e-05
4.62541e-05
0.000193019
0.000172592
7.64692e-05
4.62544e-05
0.000193019
3.86955e-05
4.93946e-05
3.86932e-05
4.93973e-05
7.64875e-05
0.000193009
4.62478e-05
0.000172558
7.6469e-05
0.000193007
4.62485e-05
3.86919e-05
4.94029e-05
4.9399e-05
3.86927e-05
7.64672e-05
0.000172592
4.62543e-05
0.000193016
4.62578e-05
0.000193019
7.64813e-05
3.86911e-05
4.93991e-05
4.93952e-05
3.86919e-05
7.64671e-05
0.000172555
0.000193006
4.62486e-05
0.000193006
4.62515e-05
7.64814e-05
3.86886e-05
4.94011e-05
3.86867e-05
4.94038e-05
7.6483e-05
0.000193015
4.62562e-05
0.000172568
7.64661e-05
0.000193012
4.62562e-05
3.86885e-05
4.93986e-05
3.86866e-05
4.94014e-05
7.64629e-05
0.000172588
4.62521e-05
0.000193012