/*--------------------------------*- C++ -*----------------------------------*\
| =========                 |                                                 |
| \\      /  F ield         | OpenFOAM: The Open Source CFD Toolbox           |
|  \\    /   O peration     | Version:  2206                                  |
|   \\  /    A nd           | Website:  www.openfoam.com                      |
|    \\/     M anipulation  |                                                 |
\*---------------------------------------------------------------------------*/
FoamFile
{
    version     2.0;
    format      ascii;
    arch        "LSB;label=32;scalar=64";
    class       surfaceScalarField;
    location    "39";
    object      phi;
}
// * * * * * * * * * * * * * * * * * * * * * * * * * * * * * * * * * * * * * //

dimensions      [0 3 -1 0 0 0 0];

oriented        oriented;

internalField   nonuniform List<scalar> 
83378
(
-0.00109585
-1.22144e-06
-2.06695e-09
3.71221e-09
0.00109585
-2.65097e-07
1.22466e-06
2.63604e-07
9.11862e-07
-2.71513e-07
-9.11244e-07
2.67508e-07
1.24994e-06
1.21613e-06
-2.39018e-07
-2.44343e-07
0.000267053
1.97235e-09
2.08073e-09
-0.00109661
-1.99775e-09
-2.03394e-09
0.00109661
-0.00109585
-1.22142e-06
-2.13672e-09
3.67068e-09
0.00109585
-2.65077e-07
1.22465e-06
2.63612e-07
9.1189e-07
-2.71475e-07
-9.11202e-07
2.67535e-07
-0.0010955
-1.216e-06
-2.16283e-09
3.7175e-09
0.0010955
-2.65079e-07
1.21917e-06
2.6362e-07
9.11724e-07
-2.74141e-07
-9.11072e-07
2.70238e-07
-0.000269036
1.24993e-06
1.21612e-06
-2.39007e-07
-2.44331e-07
0.000267053
2.0585e-09
2.18475e-09
-0.00109661
-2.05128e-09
-2.07589e-09
0.00109661
-0.00109585
-1.22139e-06
-2.22538e-09
3.61702e-09
0.00109585
-2.65056e-07
1.22466e-06
2.63623e-07
9.11889e-07
-2.71436e-07
-9.11178e-07
2.67547e-07
-0.0010955
-1.21597e-06
-2.25684e-09
3.65236e-09
0.0010955
-2.65054e-07
1.21918e-06
2.63631e-07
9.11719e-07
-2.74099e-07
-9.1105e-07
2.70253e-07
-0.000269036
1.24992e-06
1.2161e-06
-2.38984e-07
-2.44313e-07
0.000267053
2.22027e-09
2.32104e-09
-0.00109661
-2.12396e-09
-2.1604e-09
0.00109661
-0.00109585
-1.22135e-06
-2.39125e-09
3.49769e-09
0.00109585
-2.65025e-07
1.22467e-06
2.63645e-07
9.11784e-07
-2.71231e-07
-9.11038e-07
2.6738e-07
-0.0010955
-1.21593e-06
-2.40296e-09
3.5477e-09
0.0010955
-2.65026e-07
1.21919e-06
2.63653e-07
9.11606e-07
-2.73911e-07
-9.10918e-07
2.70067e-07
-0.000269036
1.24988e-06
1.21606e-06
-2.38938e-07
-2.44275e-07
0.000267053
2.32802e-09
2.43501e-09
-0.00109661
-2.20868e-09
-2.24256e-09
0.00109661
-0.00109585
-1.22114e-06
-2.51677e-09
3.36772e-09
0.00109585
-2.64893e-07
1.22449e-06
2.63515e-07
9.10991e-07
-2.70015e-07
-9.10297e-07
2.66145e-07
-0.0010955
-1.21574e-06
-2.52588e-09
3.44172e-09
0.0010955
-2.64872e-07
1.21899e-06
2.63507e-07
9.10814e-07
-2.72686e-07
-9.10176e-07
2.68838e-07
-0.000269036
1.24968e-06
1.21585e-06
-2.38557e-07
-2.43895e-07
0.000267053
1.93758e-09
1.97364e-09
-0.00109661
-1.95483e-09
-2.04018e-09
0.00109661
-0.00109585
-1.22127e-06
-2.15952e-09
3.66486e-09
0.00109585
-2.64701e-07
1.22453e-06
2.63209e-07
9.1179e-07
-2.7086e-07
-9.10804e-07
2.67213e-07
-0.0010955
-1.21588e-06
-2.05771e-09
3.81009e-09
0.0010955
-2.64706e-07
1.21902e-06
2.63177e-07
9.11597e-07
-2.73532e-07
-9.1069e-07
2.69884e-07
-0.000269035
1.24981e-06
1.21599e-06
-2.3869e-07
-2.44016e-07
0.000267052
4.54632e-10
8.00337e-10
-0.0010966
-1.45301e-09
-1.38478e-09
0.00109661
-0.00109585
-1.22054e-06
-7.21015e-10
3.90707e-09
0.00109585
-2.63874e-07
1.22376e-06
2.6238e-07
9.10174e-07
-2.68576e-07
-9.09909e-07
2.64158e-07
-0.0010955
-1.21508e-06
-6.99466e-10
3.83666e-09
0.0010955
-2.63818e-07
1.21833e-06
2.62431e-07
9.09993e-07
-2.71244e-07
-9.09777e-07
2.66837e-07
-0.000269036
1.24905e-06
1.21524e-06
-2.37244e-07
-2.42558e-07
0.000267051
-8.76596e-10
-3.47874e-10
-0.0010966
-1.21352e-09
-8.11657e-10
0.00109661
-0.00109584
-1.22037e-06
1.03023e-09
4.87028e-09
0.00109584
-2.63118e-07
1.22316e-06
2.61208e-07
9.08785e-07
-2.6662e-07
-9.0897e-07
2.61723e-07
-0.0010955
-1.2148e-06
4.33342e-10
4.19168e-09
0.0010955
-2.6292e-07
1.21791e-06
2.61406e-07
9.08749e-07
-2.69147e-07
-9.0873e-07
2.6458e-07
-0.000269036
1.24877e-06
1.21501e-06
-2.36411e-07
-2.41692e-07
0.000267051
-4.6696e-09
-4.70462e-09
-0.0010966
4.69567e-10
2.7996e-10
0.00109661
-0.00109585
-1.21933e-06
4.29454e-09
6.13095e-09
0.00109585
-2.61171e-07
1.22136e-06
2.58404e-07
9.04611e-07
-2.61952e-07
-9.06525e-07
2.5507e-07
-0.0010955
-1.21399e-06
4.60295e-09
6.56229e-09
0.0010955
-2.61234e-07
1.21572e-06
2.58185e-07
9.04392e-07
-2.64653e-07
-9.06393e-07
2.57657e-07
-0.000269039
1.24793e-06
1.21411e-06
-2.34119e-07
-2.39444e-07
0.00026705
-8.59326e-09
-8.81524e-09
-0.00109661
1.05903e-09
7.3077e-10
0.00109662
-0.00109585
-1.21688e-06
8.41175e-09
8.8918e-09
0.00109585
-2.57486e-07
1.2183e-06
2.53942e-07
8.97551e-07
-2.52246e-07
-9.00147e-07
2.44385e-07
-0.00109551
-1.21157e-06
8.63134e-09
9.24757e-09
0.00109551
-2.57622e-07
1.21275e-06
2.53869e-07
8.97301e-07
-2.55001e-07
-9.00043e-07
2.47028e-07
-0.000269042
1.24543e-06
1.21154e-06
-2.29398e-07
-2.34766e-07
0.00026705
-2.30565e-09
-2.00997e-09
-0.00109661
-4.30128e-09
-9.31875e-09
0.00109662
-0.00109586
-1.21088e-06
7.30485e-09
5.31551e-09
0.00109586
-2.49013e-07
1.21206e-06
2.47762e-07
8.85195e-07
-2.36947e-07
-8.89101e-07
2.25413e-07
-0.00109552
-1.20268e-06
2.02621e-09
1.03281e-08
0.00109553
-2.4888e-07
1.20395e-06
2.45083e-07
8.82317e-07
-2.36869e-07
-8.86205e-07
2.2814e-07
-0.000269053
1.24205e-06
1.20553e-06
-2.17321e-07
-2.22585e-07
0.000267045
8.31407e-07
8.38547e-07
-0.00109647
-7.14475e-07
-7.04221e-07
0.00109621
-0.00109613
-1.10929e-06
-8.32673e-07
-3.64449e-07
0.00109645
-1.57851e-07
1.36696e-06
3.32327e-07
1.023e-06
-1.19208e-07
-7.69713e-07
3.16383e-07
-0.0010958
-1.10102e-06
-8.4346e-07
-3.75461e-07
0.00109614
-1.57702e-07
1.36164e-06
3.35226e-07
1.01995e-06
-1.24631e-07
-7.66826e-07
3.19111e-07
-0.000269129
1.14318e-06
1.10121e-06
-1.23969e-07
-1.26504e-07
0.000267135
5.02308e-06
5.01638e-06
-0.00108244
-1.06976e-05
-1.05995e-05
0.000262752
0.000266183
0.000265249
0.000265249
4.0748e-06
6.37613e-06
6.67836e-06
4.0786e-06
6.3769e-06
6.68175e-06
-0.000271113
5.17658e-06
-5.0137e-06
5.76495e-06
-3.28485e-06
0.00026847
-0.000271089
-5.01595e-06
5.18185e-06
-3.29278e-06
5.76198e-06
0.000268454
-0.000269607
-5.17352e-06
-5.18466e-06
5.78148e-06
5.76952e-06
0.000268414
1.26399e-06
0.0010955
-1.26084e-06
2.71789e-07
-2.73388e-07
2.70183e-07
-2.74391e-07
-1.22467e-06
0.000269081
-0.00026708
2.42441e-07
2.44734e-07
-1.22144e-06
2.63605e-07
-2.65102e-07
2.67504e-07
-2.7152e-07
-1.25848e-06
-1.22198e-06
0.000269052
-0.000267059
2.39613e-07
2.4749e-07
3.89178e-09
0.00109506
-2.70592e-07
2.68971e-07
9.11755e-07
-2.71503e-07
-9.1122e-07
2.67392e-07
-1.26084e-06
-1.7753e-09
3.91314e-09
0.0010955
-2.73384e-07
1.26399e-06
2.71788e-07
9.1738e-07
-2.74385e-07
-9.1689e-07
2.70188e-07
0.00109506
-1.95578e-09
-0.00109506
3.90709e-09
-1.25534e-06
2.68969e-07
-2.70587e-07
-9.11173e-07
2.67418e-07
-2.7147e-07
9.11791e-07
1.26397e-06
0.0010955
-1.81066e-09
-0.0010955
3.89381e-09
-1.26082e-06
2.71791e-07
-2.73372e-07
-9.16853e-07
2.70208e-07
-2.74357e-07
9.17404e-07
-2.39232e-07
-2.41554e-07
0.00026708
-1.22465e-06
0.000269081
-0.00026708
2.42436e-07
2.4473e-07
0.00109612
-2.05218e-09
-0.00109612
3.68932e-09
-1.21881e-06
2.66426e-07
-2.67909e-07
-9.13959e-07
2.70303e-07
-2.74305e-07
9.14682e-07
1.25853e-06
0.00109517
-1.82157e-09
-0.00109517
3.93047e-09
-1.25541e-06
2.71758e-07
-2.73382e-07
-9.13969e-07
2.70183e-07
-2.74278e-07
9.14498e-07
-1.86424e-09
3.88432e-09
0.00109497
-2.67768e-07
1.25308e-06
2.66218e-07
9.11761e-07
-2.71517e-07
2.67379e-07
-9.11272e-07
-2.10502e-09
-0.00109585
3.69193e-09
-1.22143e-06
2.63608e-07
-2.65084e-07
-9.11208e-07
2.67529e-07
9.11887e-07
-2.71486e-07
1.25308e-06
0.00109497
-1.8872e-09
-0.00109497
3.89318e-09
-1.24994e-06
2.66217e-07
-2.67762e-07
-9.11239e-07
2.67398e-07
-2.7149e-07
9.11783e-07
-1.21917e-06
0.000269031
-0.00026704
2.39814e-07
2.47258e-07
-1.91528e-09
3.69837e-09
0.00109602
-2.65167e-07
1.21926e-06
2.63656e-07
9.11986e-07
-2.74329e-07
2.70257e-07
-9.11357e-07
-2.13193e-09
-0.0010955
3.73441e-09
-1.216e-06
2.63615e-07
-2.65086e-07
-9.11031e-07
2.70204e-07
9.11769e-07
-2.74179e-07
1.21926e-06
0.00109602
-1.94714e-09
-0.00109602
3.69123e-09
-1.21613e-06
2.63655e-07
-2.6516e-07
-9.11317e-07
2.70277e-07
-2.743e-07
9.12014e-07
-0.000267053
2.42135e-07
2.47508e-07
1.25533e-06
1.2188e-06
-2.36467e-07
-2.44299e-07
0.000267059
-1.25847e-06
-1.22197e-06
0.000269052
-0.000267059
2.39613e-07
2.47493e-07
3.88963e-09
0.00109506
-2.70578e-07
1.25848e-06
2.68974e-07
9.11792e-07
-2.71459e-07
-9.11168e-07
2.67426e-07
-1.26082e-06
-1.8487e-09
3.8738e-09
0.0010955
-2.73365e-07
1.26398e-06
2.71795e-07
9.17409e-07
-2.74345e-07
-9.16845e-07
2.70217e-07
0.00109506
-1.97201e-09
-0.00109506
3.91344e-09
-1.25532e-06
2.68973e-07
-2.70566e-07
-9.11164e-07
2.67433e-07
-2.71432e-07
9.11775e-07
1.26398e-06
0.0010955
-1.82002e-09
-0.0010955
3.89608e-09
-1.2608e-06
2.71795e-07
-2.73356e-07
-9.1684e-07
2.70218e-07
-2.74326e-07
9.17397e-07
-2.39213e-07
-2.41534e-07
0.00026708
-1.22465e-06
0.000269081
-0.00026708
2.42443e-07
2.44737e-07
3.66942e-09
0.00109612
-2.67899e-07
1.22198e-06
2.66431e-07
9.1469e-07
-2.74297e-07
-9.13945e-07
2.70311e-07
-1.2554e-06
-1.86847e-09
3.92372e-09
0.00109517
-2.73375e-07
1.25852e-06
2.71762e-07
9.14508e-07
-2.74263e-07
-9.13957e-07
2.70197e-07
0.00109612
-2.06626e-09
-0.00109612
3.6944e-09
-1.21879e-06
2.66425e-07
-2.6789e-07
-9.13939e-07
2.70313e-07
-2.74271e-07
9.14676e-07
1.25852e-06
0.00109517
-1.84146e-09
-0.00109517
3.93791e-09
-1.25539e-06
2.71759e-07
-2.73365e-07
-9.13948e-07
2.702e-07
-2.74237e-07
9.1449e-07
-1.92924e-09
3.87285e-09
0.00109497
-2.67754e-07
1.25308e-06
2.66223e-07
9.11788e-07
-2.71477e-07
2.67407e-07
-9.11231e-07
-2.112e-09
-0.00109585
3.69501e-09
-1.22141e-06
2.6361e-07
-2.65069e-07
-9.11195e-07
2.67537e-07
9.11879e-07
-2.71456e-07
1.25308e-06
0.00109497
-1.90213e-09
-0.00109497
3.8999e-09
-1.24993e-06
2.66219e-07
-2.67747e-07
-9.11224e-07
2.67411e-07
-2.71456e-07
9.11776e-07
-2.36657e-07
-2.44098e-07
0.00026704
-1.21917e-06
0.000269031
-0.00026704
2.39821e-07
2.47259e-07
-1.97608e-09
3.6643e-09
0.00109602
-2.65151e-07
1.21927e-06
2.63662e-07
9.12017e-07
-2.74287e-07
2.70287e-07
-9.11308e-07
-2.14357e-09
-0.0010955
3.73439e-09
-1.21598e-06
2.63618e-07
-2.65066e-07
-9.11016e-07
2.70218e-07
9.11761e-07
-2.74142e-07
1.21927e-06
0.00109602
-1.94801e-09
-0.00109602
3.69192e-09
-1.21611e-06
2.63662e-07
-2.6514e-07
-9.11316e-07
2.70288e-07
-2.74267e-07
9.11994e-07
-0.000267053
2.42144e-07
2.47513e-07
1.2553e-06
1.21878e-06
-2.36443e-07
-2.4427e-07
0.000267058
-1.25845e-06
-1.22195e-06
0.000269052
-0.000267058
2.39599e-07
2.47479e-07
3.83337e-09
0.00109506
-2.70549e-07
1.25849e-06
2.68988e-07
9.11779e-07
-2.71415e-07
-9.11156e-07
2.67442e-07
-1.26079e-06
-1.93724e-09
3.81709e-09
0.0010955
-2.73342e-07
1.26399e-06
2.71808e-07
9.17407e-07
-2.74306e-07
-9.16822e-07
2.70228e-07
0.00109506
-1.88229e-09
-0.00109506
3.99648e-09
-1.2553e-06
2.6896e-07
-2.70552e-07
-9.11095e-07
2.67333e-07
-2.71343e-07
9.11703e-07
1.26398e-06
0.0010955
-1.75397e-09
-0.0010955
3.92838e-09
-1.26077e-06
2.71796e-07
-2.73336e-07
-9.16767e-07
2.70128e-07
-2.74228e-07
9.17326e-07
-2.39192e-07
-2.41513e-07
0.00026708
-1.22465e-06
0.000269081
-0.00026708
2.42438e-07
2.44739e-07
3.61864e-09
0.00109612
-2.67875e-07
1.22198e-06
2.66439e-07
9.1469e-07
-2.74252e-07
-9.13918e-07
2.70328e-07
-1.25538e-06
-1.97441e-09
3.87428e-09
0.00109517
-2.73351e-07
1.25853e-06
2.71772e-07
9.14496e-07
-2.74215e-07
-9.13937e-07
2.70215e-07
0.00109612
-1.94866e-09
-0.00109612
3.76057e-09
-1.21877e-06
2.66416e-07
-2.67874e-07
-9.13874e-07
2.70211e-07
-2.74178e-07
9.14595e-07
1.25851e-06
0.00109517
-1.71969e-09
-0.00109517
3.99852e-09
-1.25537e-06
2.71756e-07
-2.73345e-07
-9.13895e-07
2.70098e-07
-2.74148e-07
9.14403e-07
-2.0269e-09
3.81815e-09
0.00109496
-2.67733e-07
1.25309e-06
2.66234e-07
9.11788e-07
-2.71433e-07
2.67425e-07
-9.11205e-07
-2.05499e-09
-0.00109585
3.73287e-09
-1.22138e-06
2.63608e-07
-2.65052e-07
-9.11119e-07
2.67455e-07
9.11813e-07
-2.71353e-07
1.25306e-06
0.00109496
-1.82542e-09
-0.00109496
3.98208e-09
-1.24991e-06
2.66208e-07
-2.67738e-07
-9.11153e-07
2.67315e-07
-2.71362e-07
9.11702e-07
-2.3663e-07
-2.44075e-07
0.00026704
-1.21916e-06
0.000269031
-0.00026704
2.39809e-07
2.47249e-07
-2.05867e-09
3.60939e-09
0.00109602
-2.65125e-07
1.21928e-06
2.63678e-07
9.12004e-07
-2.74247e-07
2.70299e-07
-9.11298e-07
-2.04318e-09
-0.0010955
3.79974e-09
-1.21596e-06
2.63612e-07
-2.65052e-07
-9.10947e-07
2.70119e-07
9.11684e-07
-2.74049e-07
1.21926e-06
0.00109602
-1.83897e-09
-0.00109602
3.75379e-09
-1.21609e-06
2.63656e-07
-2.65126e-07
-9.11251e-07
2.70183e-07
-2.74184e-07
9.11915e-07
-0.000267053
2.42137e-07
2.47499e-07
1.25526e-06
1.21873e-06
-2.36397e-07
-2.44227e-07
0.000267058
-1.25834e-06
-1.22184e-06
0.000269052
-0.000267058
2.39361e-07
2.47241e-07
3.73997e-09
0.00109506
-2.70522e-07
1.25848e-06
2.69001e-07
9.11677e-07
-2.71222e-07
-9.11014e-07
2.67264e-07
-1.26074e-06
-2.10251e-09
3.69069e-09
0.0010955
-2.73308e-07
1.264e-06
2.71833e-07
9.17299e-07
-2.74105e-07
-9.16683e-07
2.70058e-07
0.00109506
-1.69734e-09
-0.00109506
4.07177e-09
-1.25517e-06
2.68916e-07
-2.705e-07
-9.10565e-07
2.66326e-07
-2.70426e-07
9.111e-07
1.26387e-06
0.0010955
-1.59828e-09
-0.0010955
3.97897e-09
-1.26065e-06
2.71756e-07
-2.7328e-07
-9.1623e-07
2.69123e-07
-2.73312e-07
9.16735e-07
-2.39144e-07
-2.41462e-07
0.000267079
-1.22454e-06
0.000269081
-0.000267079
2.42199e-07
2.44497e-07
3.50973e-09
0.00109612
-2.67844e-07
1.22198e-06
2.66461e-07
9.14572e-07
-2.74065e-07
-9.13789e-07
2.70139e-07
-1.25534e-06
-2.12212e-09
3.76863e-09
0.00109517
-2.73321e-07
1.25854e-06
2.71794e-07
9.14385e-07
-2.74029e-07
-9.13808e-07
2.70032e-07
0.00109612
-1.75971e-09
-0.00109612
3.83284e-09
-1.21864e-06
2.66376e-07
-2.67817e-07
-9.13342e-07
2.69209e-07
-2.73263e-07
9.14003e-07
1.2584e-06
0.00109517
-1.49947e-09
-0.00109517
4.0824e-09
-1.25524e-06
2.71711e-07
-2.73295e-07
-9.13357e-07
2.69092e-07
-2.73238e-07
9.1381e-07
-2.19372e-09
3.72644e-09
0.00109496
-2.67708e-07
1.25309e-06
2.66251e-07
9.11678e-07
-2.71239e-07
2.67248e-07
-9.11068e-07
-1.909e-09
-0.00109585
3.79735e-09
-1.22126e-06
2.63568e-07
-2.64996e-07
-9.10586e-07
2.66449e-07
9.11221e-07
-2.70438e-07
1.25295e-06
0.00109496
-1.66344e-09
-0.00109496
4.04848e-09
-1.24979e-06
2.66167e-07
-2.67684e-07
-9.10615e-07
2.66317e-07
-2.70441e-07
9.11114e-07
-2.36588e-07
-2.44031e-07
0.00026704
-1.21905e-06
0.000269033
-0.00026704
2.39565e-07
2.44442e-07
-2.20249e-09
3.49493e-09
0.00109602
-2.65094e-07
1.21929e-06
2.63701e-07
9.11891e-07
-2.74062e-07
2.70115e-07
-9.11168e-07
-1.8423e-09
-0.0010955
3.8937e-09
-1.21584e-06
2.63534e-07
-2.65005e-07
-9.10418e-07
2.69112e-07
9.11086e-07
-2.73138e-07
1.21915e-06
0.00109602
-1.66757e-09
-0.00109602
3.81341e-09
-1.21596e-06
2.63619e-07
-2.65069e-07
-9.10722e-07
2.6918e-07
-2.73267e-07
9.11323e-07
-0.000267053
2.41902e-07
2.47262e-07
1.25506e-06
1.21853e-06
-2.36021e-07
-2.43845e-07
0.000267058
-1.25829e-06
-1.22179e-06
0.000269051
-0.000267058
2.39215e-07
2.47102e-07
3.59875e-09
0.00109506
-2.70394e-07
1.2583e-06
2.68867e-07
9.1087e-07
-2.70008e-07
-9.10285e-07
2.66017e-07
-1.26054e-06
-2.212e-09
3.54278e-09
0.0010955
-2.73175e-07
1.26383e-06
2.71705e-07
9.16506e-07
-2.72892e-07
-9.1594e-07
2.68817e-07
0.00109506
-2.27673e-09
-0.00109506
4.02279e-09
-1.25507e-06
2.68615e-07
-2.70214e-07
-9.1026e-07
2.66711e-07
-2.70293e-07
9.11188e-07
1.26382e-06
0.0010955
-2.21591e-09
-0.0010955
3.92229e-09
-1.26055e-06
2.71466e-07
-2.72987e-07
-9.15926e-07
2.69511e-07
-2.73182e-07
9.1682e-07
-2.38762e-07
-2.41078e-07
0.000267079
-1.2245e-06
0.000269081
-0.000267079
2.42074e-07
2.44367e-07
3.37405e-09
0.00109612
-2.67718e-07
1.22179e-06
2.66316e-07
9.13772e-07
-2.72839e-07
-9.13048e-07
2.68908e-07
-1.25514e-06
-2.20276e-09
3.64919e-09
0.00109517
-2.73196e-07
1.25834e-06
2.7165e-07
9.1358e-07
-2.72814e-07
-9.13065e-07
2.68785e-07
0.00109612
-2.33446e-09
-0.00109612
3.78794e-09
-1.21854e-06
2.66073e-07
-2.67529e-07
-9.13052e-07
2.69595e-07
-2.73126e-07
9.1406e-07
1.25835e-06
0.00109517
-2.10683e-09
-0.00109517
4.02067e-09
-1.25513e-06
2.71411e-07
-2.72999e-07
-9.13048e-07
2.69478e-07
-2.73102e-07
9.13896e-07
-2.33854e-09
3.56378e-09
0.00109496
-2.67578e-07
1.25292e-06
2.66119e-07
9.10893e-07
-2.70014e-07
2.66016e-07
-9.10318e-07
-2.50797e-09
-0.00109585
3.73667e-09
-1.22115e-06
2.63282e-07
-2.64702e-07
-9.10293e-07
2.66838e-07
9.11295e-07
-2.70314e-07
1.25291e-06
0.00109496
-2.21527e-09
-0.00109496
4.00374e-09
-1.24969e-06
2.65868e-07
-2.67396e-07
-9.1032e-07
2.6669e-07
-2.70314e-07
9.11188e-07
-2.36212e-07
-2.41083e-07
0.00026704
-1.219e-06
0.000269033
-0.000267039
2.39428e-07
2.44303e-07
-2.35442e-09
3.33579e-09
0.00109602
-2.64963e-07
1.21911e-06
2.63569e-07
9.11107e-07
-2.72837e-07
2.68884e-07
-9.10423e-07
-2.4196e-09
-0.0010955
3.84638e-09
-1.21573e-06
2.63232e-07
-2.64714e-07
-9.10115e-07
2.69506e-07
9.11162e-07
-2.72992e-07
1.21909e-06
0.00109602
-2.26484e-09
-0.00109602
3.7868e-09
-1.21587e-06
2.63307e-07
-2.64789e-07
-9.10404e-07
2.69578e-07
-2.73122e-07
9.11415e-07
-0.000267052
2.41751e-07
2.47127e-07
1.25519e-06
1.21867e-06
-2.36149e-07
-2.43974e-07
0.000267058
-1.25793e-06
-1.22141e-06
0.000269052
-0.000267057
2.38347e-07
2.46239e-07
3.94409e-09
0.00109506
-2.70217e-07
1.25833e-06
2.68549e-07
9.11684e-07
-2.70852e-07
-9.10782e-07
2.67085e-07
-1.26066e-06
-1.87385e-09
3.8549e-09
0.0010955
-2.72987e-07
1.26386e-06
2.7139e-07
9.17314e-07
-2.73727e-07
-9.16434e-07
2.69891e-07
0.00109506
-3.07781e-09
-0.00109506
3.50863e-09
-1.25448e-06
2.68101e-07
-2.69332e-07
-9.10525e-07
2.65531e-07
-2.69446e-07
9.11349e-07
1.26341e-06
0.0010955
-2.94254e-09
-0.0010955
3.63282e-09
-1.25999e-06
2.70903e-07
-2.72139e-07
-9.16199e-07
2.68322e-07
-2.7234e-07
9.16965e-07
-2.38876e-07
-2.41202e-07
0.000267079
-1.22409e-06
0.000269081
-0.000267078
2.41189e-07
2.43477e-07
3.71834e-09
0.00109612
-2.67541e-07
1.22183e-06
2.66008e-07
9.14557e-07
-2.737e-07
-9.1357e-07
2.69956e-07
-1.25528e-06
-1.7311e-09
4.00132e-09
0.00109517
-2.73027e-07
1.25837e-06
2.71326e-07
9.14386e-07
-2.73671e-07
-9.13575e-07
2.69837e-07
0.00109612
-3.33478e-09
-0.00109612
3.34505e-09
-1.21796e-06
2.65548e-07
-2.66665e-07
-9.133e-07
2.68421e-07
-2.72252e-07
9.14253e-07
1.25798e-06
0.00109517
-3.16252e-09
-0.00109517
3.51945e-09
-1.25455e-06
2.70887e-07
-2.72131e-07
-9.13299e-07
2.6832e-07
-2.72223e-07
9.14076e-07
-1.91823e-09
3.91184e-09
0.00109496
-2.67399e-07
1.25295e-06
2.65804e-07
9.11683e-07
-2.70872e-07
2.67063e-07
-9.10831e-07
-3.19356e-09
-0.00109585
3.40185e-09
-1.22059e-06
2.62724e-07
-2.63848e-07
-9.10572e-07
2.65642e-07
9.11443e-07
-2.6947e-07
1.25253e-06
0.00109496
-2.97643e-09
-0.00109496
3.55399e-09
-1.2491e-06
2.65342e-07
-2.66526e-07
-9.10592e-07
2.65498e-07
-2.69476e-07
9.11336e-07
-2.36342e-07
-2.41217e-07
0.000267039
-1.21864e-06
0.000269033
-0.000267039
2.3857e-07
2.43421e-07
-1.94122e-09
3.69583e-09
0.00109602
-2.64793e-07
1.21913e-06
2.63242e-07
9.11909e-07
-2.73683e-07
2.69948e-07
-9.1092e-07
-3.321e-09
-0.0010955
3.30158e-09
-1.21514e-06
2.62713e-07
-2.63831e-07
-9.10373e-07
2.68323e-07
9.11325e-07
-2.72128e-07
1.21871e-06
0.00109602
-3.11704e-09
-0.00109602
3.41583e-09
-1.21529e-06
2.62776e-07
-2.63922e-07
-9.1068e-07
2.68389e-07
-2.72277e-07
9.11578e-07
-0.000267052
2.4088e-07
2.46257e-07
1.25441e-06
1.2179e-06
-2.34688e-07
-2.42504e-07
0.000267057
-1.2576e-06
-1.22102e-06
0.000269052
-0.000267056
2.37276e-07
2.45225e-07
4.02692e-09
0.00109505
-2.69338e-07
1.25762e-06
2.67785e-07
9.10066e-07
-2.68565e-07
-9.09882e-07
2.64044e-07
-1.25994e-06
-4.46813e-10
4.14117e-09
0.0010955
-2.72167e-07
1.26308e-06
2.70559e-07
9.15698e-07
-2.71442e-07
-9.15535e-07
2.66837e-07
0.00109505
-4.29038e-09
-0.00109505
2.97634e-09
-1.25388e-06
2.67076e-07
-2.68101e-07
-9.08508e-07
2.62942e-07
-2.6621e-07
9.0995e-07
1.26303e-06
0.0010955
-4.02502e-09
-0.00109549
3.36875e-09
-1.25942e-06
2.69802e-07
-2.70966e-07
-9.14171e-07
2.6569e-07
-2.69092e-07
9.15556e-07
-2.37454e-07
-2.3978e-07
0.000267078
-1.22371e-06
0.000269082
-0.000267077
2.40117e-07
2.424e-07
3.8943e-09
0.00109611
-2.66662e-07
1.2211e-06
2.65242e-07
9.13005e-07
-2.71377e-07
-9.12623e-07
2.66953e-07
-1.25449e-06
-6.01535e-10
4.07758e-09
0.00109517
-2.7214e-07
1.25767e-06
2.70582e-07
9.12827e-07
-2.71338e-07
-9.12634e-07
2.66858e-07
0.00109611
-4.53959e-09
-0.00109611
3.0302e-09
-1.21742e-06
2.64439e-07
-2.65515e-07
-9.11256e-07
2.65824e-07
-2.68986e-07
9.12848e-07
1.25759e-06
0.00109517
-4.30255e-09
-0.00109517
3.13614e-09
-1.254e-06
2.69811e-07
-2.70949e-07
-9.1131e-07
2.6572e-07
-2.68952e-07
9.12643e-07
-4.1999e-10
4.08375e-09
0.00109496
-2.66537e-07
1.25221e-06
2.65021e-07
9.10062e-07
-2.68596e-07
2.64016e-07
-9.09942e-07
-4.24024e-09
-0.00109584
3.10789e-09
-1.22001e-06
2.61629e-07
-2.62667e-07
-9.08545e-07
2.63022e-07
9.10029e-07
-2.66259e-07
1.25221e-06
0.00109496
-4.15651e-09
-0.00109496
3.02135e-09
-1.2485e-06
2.64314e-07
-2.65302e-07
-9.08566e-07
2.62894e-07
-2.66214e-07
9.09932e-07
-2.34863e-07
-2.39754e-07
0.000267038
-1.21828e-06
0.000269034
-0.000267038
2.37538e-07
2.42369e-07
-5.41691e-10
3.96225e-09
0.00109602
-2.6394e-07
1.21837e-06
2.62445e-07
9.10299e-07
-2.71393e-07
2.66902e-07
-9.10025e-07
-4.58307e-09
-0.0010955
2.8503e-09
-1.21456e-06
2.61673e-07
-2.62612e-07
-9.08349e-07
2.65754e-07
9.0993e-07
-2.68872e-07
1.21834e-06
0.00109602
-4.46327e-09
-0.00109602
3.06351e-09
-1.21473e-06
2.61701e-07
-2.62734e-07
-9.08616e-07
2.65819e-07
-2.68983e-07
9.10214e-07
-0.000267051
2.39829e-07
2.45245e-07
1.25412e-06
1.21767e-06
-2.3387e-07
-2.41621e-07
0.000267056
-1.25613e-06
-1.21949e-06
0.000269054
-0.000267055
2.34341e-07
2.42338e-07
4.39349e-09
0.00109505
-2.68449e-07
1.25719e-06
2.66775e-07
9.08763e-07
-2.6652e-07
-9.08883e-07
2.61712e-07
-1.25978e-06
1.19284e-09
5.16009e-09
0.00109549
-2.71415e-07
1.26248e-06
2.69382e-07
9.1432e-07
-2.69475e-07
-9.1459e-07
2.64429e-07
0.00109506
-4.3091e-09
-0.00109505
2.96974e-09
-1.2528e-06
2.649e-07
-2.66427e-07
-9.0617e-07
2.57662e-07
-2.62204e-07
9.0675e-07
1.2616e-06
0.0010955
-4.3343e-09
-0.0010955
3.089e-09
-1.2584e-06
2.67687e-07
-2.69326e-07
-9.1185e-07
2.60508e-07
-2.65063e-07
9.12373e-07
-2.36677e-07
-2.39005e-07
0.000267077
-1.22227e-06
0.000269084
-0.000267077
2.37238e-07
2.39524e-07
4.54185e-09
0.00109611
-2.65849e-07
1.22059e-06
2.64155e-07
9.11774e-07
-2.69286e-07
-9.11579e-07
2.64691e-07
-1.25422e-06
4.25406e-10
4.49028e-09
0.00109517
-2.71266e-07
1.25722e-06
2.69566e-07
9.11623e-07
-2.69233e-07
-9.11584e-07
2.64622e-07
0.00109612
-4.84195e-09
-0.00109611
3.07019e-09
-1.21641e-06
2.62195e-07
-2.6391e-07
-9.08743e-07
2.60783e-07
-2.64736e-07
9.09781e-07
1.25614e-06
0.00109517
-4.7056e-09
-0.00109517
3.08839e-09
-1.2529e-06
2.67643e-07
-2.6925e-07
-9.08745e-07
2.60663e-07
-2.64726e-07
9.09619e-07
9.60997e-10
4.55502e-09
0.00109496
-2.6567e-07
1.25175e-06
2.63978e-07
9.08753e-07
-2.66559e-07
2.61685e-07
-9.08942e-07
-4.57676e-09
-0.00109585
2.85428e-09
-1.219e-06
2.59501e-07
-2.61037e-07
-9.06207e-07
2.57826e-07
9.06857e-07
-2.62209e-07
1.25068e-06
0.00109496
-4.32383e-09
-0.00109496
3.0713e-09
-1.2475e-06
2.62092e-07
-2.63691e-07
-9.06204e-07
2.57683e-07
-2.62181e-07
9.06766e-07
-2.33987e-07
-2.38893e-07
0.000267038
-1.21688e-06
0.000269036
-0.000267037
2.34729e-07
2.39504e-07
6.57386e-10
4.7097e-09
0.00109602
-2.63118e-07
1.21786e-06
2.6135e-07
9.09038e-07
-2.69318e-07
2.6462e-07
-9.08982e-07
-4.73136e-09
-0.0010955
2.64128e-09
-1.21341e-06
2.59549e-07
-2.6084e-07
-9.05914e-07
2.60547e-07
9.068e-07
-2.64769e-07
1.21685e-06
0.00109602
-4.48216e-09
-0.00109602
3.00844e-09
-1.21371e-06
2.59499e-07
-2.61114e-07
-9.06275e-07
2.60589e-07
-2.64952e-07
9.0701e-07
-0.00026705
2.36908e-07
2.42292e-07
1.25332e-06
1.21683e-06
-2.31617e-07
-2.39388e-07
0.000267055
-1.25485e-06
-1.21852e-06
0.000269058
-0.000267056
2.31491e-07
2.39178e-07
6.7482e-09
0.00109506
-2.66746e-07
1.25503e-06
2.63625e-07
9.0448e-07
-2.62012e-07
-9.06532e-07
2.54865e-07
-1.25873e-06
4.5324e-09
6.30705e-09
0.0010955
-2.69451e-07
1.26069e-06
2.66595e-07
9.10132e-07
-2.64802e-07
-9.12159e-07
2.57752e-07
0.00109506
-9.75309e-09
-0.00109506
1.75142e-10
-1.25029e-06
2.62648e-07
-2.62786e-07
-9.00006e-07
2.50439e-07
-2.53003e-07
9.02527e-07
1.26052e-06
0.0010955
-9.71927e-09
-0.0010955
-3.99882e-10
-1.25559e-06
2.65634e-07
-2.65378e-07
-9.05651e-07
2.53232e-07
-2.5587e-07
9.08163e-07
-2.34261e-07
-2.36583e-07
0.000267077
-1.22117e-06
0.000269088
-0.000267077
2.343e-07
2.36602e-07
6.45879e-09
0.00109612
-2.64153e-07
1.21853e-06
2.61035e-07
9.07322e-07
-2.64717e-07
-9.09263e-07
2.57766e-07
-1.25341e-06
4.90402e-09
6.81298e-09
0.00109517
-2.69597e-07
1.25507e-06
2.66348e-07
9.07137e-07
-2.64727e-07
-9.0929e-07
2.57631e-07
0.00109612
-9.33923e-09
-0.00109612
-6.00145e-10
-1.21357e-06
2.60288e-07
-2.59906e-07
-9.02982e-07
2.53107e-07
-2.5607e-07
9.05226e-07
1.25496e-06
0.00109518
-8.96509e-09
-0.00109517
9.33742e-11
-1.2503e-06
2.65486e-07
-2.65538e-07
-9.03029e-07
2.52993e-07
-2.56068e-07
9.05037e-07
4.63312e-09
6.65766e-09
0.00109496
-2.63944e-07
1.24968e-06
2.60892e-07
9.04489e-07
-2.61983e-07
2.54879e-07
-9.06556e-07
-1.00406e-08
-0.00109585
-5.26576e-10
-1.21621e-06
2.57429e-07
-2.57111e-07
-9.00008e-07
2.50578e-07
9.02653e-07
-2.53016e-07
1.24954e-06
0.00109497
-9.76918e-09
-0.00109497
2.46487e-11
-1.24482e-06
2.59971e-07
-2.59886e-07
-9.00052e-07
2.50412e-07
-2.53026e-07
9.02525e-07
-2.3173e-07
-2.36636e-07
0.000267037
-1.2155e-06
0.000269037
-0.000267037
2.31479e-07
2.39006e-07
4.67036e-09
6.35233e-09
0.00109602
-2.61328e-07
1.21588e-06
2.58337e-07
9.04699e-07
-2.64789e-07
2.57747e-07
-9.06663e-07
-9.59625e-09
-0.0010955
1.50218e-10
-1.21101e-06
2.57221e-07
-2.57376e-07
-8.99914e-07
2.53145e-07
9.02366e-07
-2.55807e-07
1.2158e-06
0.00109603
-9.68575e-09
-0.00109602
-5.80318e-10
-1.21091e-06
2.57489e-07
-2.57183e-07
-9.00193e-07
2.53245e-07
-2.55871e-07
9.0272e-07
-0.00026705
2.34e-07
2.393e-07
1.25086e-06
1.21421e-06
-2.26839e-07
-2.34798e-07
0.000267055
-1.25325e-06
-1.21673e-06
0.000269066
-0.000267054
2.26294e-07
2.3172e-07
9.33128e-09
0.00109506
-2.6307e-07
1.25207e-06
2.59257e-07
8.97443e-07
-2.52239e-07
-9.00149e-07
2.4428e-07
-1.25625e-06
8.69066e-09
9.02391e-09
0.0010955
-2.65748e-07
1.25766e-06
2.62155e-07
9.03069e-07
-2.55122e-07
-9.05789e-07
2.47064e-07
0.00109506
-1.59659e-08
-0.00109505
-1.15555e-08
-1.2465e-06
2.58896e-07
-2.53809e-07
-8.89342e-07
2.37603e-07
-2.37998e-07
8.93557e-07
1.2587e-06
0.00109552
-2.65512e-08
-0.00109551
-6.04755e-09
-1.24935e-06
2.58904e-07
-2.56651e-07
-8.89601e-07
2.34934e-07
-2.35448e-07
8.93794e-07
-2.29626e-07
-2.31924e-07
0.000267076
-1.21937e-06
0.00026909
-0.000267073
2.26574e-07
2.33996e-07
8.75928e-09
0.00109611
-2.60241e-07
1.21837e-06
2.59582e-07
9.0022e-07
-2.55222e-07
-9.03041e-07
2.47015e-07
-1.25088e-06
9.04588e-09
9.25686e-09
0.00109517
-2.6581e-07
1.25217e-06
2.62097e-07
9.00043e-07
-2.55198e-07
-9.03072e-07
2.46924e-07
0.00109613
-1.6317e-08
-0.00109612
-6.31669e-09
-1.21004e-06
2.56305e-07
-2.53903e-07
-8.92054e-07
2.37799e-07
-2.38055e-07
8.96491e-07
1.24791e-06
0.00109519
-1.60599e-08
-0.00109517
-1.15314e-08
-1.2412e-06
2.58936e-07
-2.56586e-07
-8.89437e-07
2.37691e-07
-2.38045e-07
8.93665e-07
8.57181e-09
9.1979e-09
0.00109497
-2.60197e-07
1.24673e-06
2.56549e-07
8.97449e-07
-2.52256e-07
2.44268e-07
-9.00183e-07
-2.14981e-08
-0.00109585
-6.22008e-09
-1.21e-06
2.50726e-07
-2.48383e-07
-8.8937e-07
2.37703e-07
8.9636e-07
-2.35317e-07
1.24787e-06
0.00109497
-2.13557e-08
-0.00109497
-6.15149e-09
-1.23849e-06
2.56134e-07
-2.51027e-07
-8.89381e-07
2.37588e-07
-2.35295e-07
8.93573e-07
-2.27222e-07
-2.34544e-07
0.000267037
-1.21129e-06
0.00026904
-0.000267039
2.26579e-07
2.31424e-07
8.63269e-09
8.79684e-09
0.00109602
-2.5751e-07
1.21296e-06
2.54039e-07
8.9765e-07
-2.55092e-07
2.47103e-07
-9.00313e-07
-1.62731e-08
-0.00109551
-1.17451e-08
-1.20449e-06
2.50799e-07
-2.48296e-07
-8.86478e-07
2.37695e-07
8.90776e-07
-2.37964e-07
1.21132e-06
0.00109603
-1.61848e-08
-0.00109603
-1.15969e-08
-1.19927e-06
2.50785e-07
-2.4563e-07
-8.84056e-07
2.35025e-07
-2.35348e-07
8.91074e-07
-0.000267054
2.26336e-07
2.34216e-07
1.24471e-06
1.20556e-06
-2.19868e-07
-2.2253e-07
0.000267058
-1.29814e-06
-1.26157e-06
0.000269142
-0.000267084
2.47866e-07
2.53313e-07
1.57482e-08
0.00109506
-2.54393e-07
1.24867e-06
2.50464e-07
8.85074e-07
-2.36931e-07
-8.8908e-07
2.25332e-07
-1.25022e-06
1.27226e-08
1.0726e-08
0.00109551
-2.57248e-07
1.25141e-06
2.53209e-07
8.88095e-07
-2.34338e-07
-8.89399e-07
2.28076e-07
0.00109534
-3.44083e-07
-0.00109516
-1.6516e-07
-1.20126e-06
2.76046e-07
-2.12338e-07
-8.2706e-07
2.46337e-07
-1.7572e-07
9.21511e-07
1.30355e-06
0.00109578
-3.44127e-07
-0.0010956
-1.59516e-07
-1.20684e-06
2.75993e-07
-2.12467e-07
-8.35448e-07
2.491e-07
-1.75819e-07
9.29859e-07
-2.20113e-07
-2.24957e-07
0.000267074
-1.26156e-06
0.000269167
-0.000267105
2.50706e-07
2.52978e-07
1.04554e-08
0.00109614
-2.51733e-07
1.2067e-06
2.45053e-07
8.85357e-07
-2.36948e-07
-8.89133e-07
2.2825e-07
-1.23941e-06
2.16814e-09
1.05349e-08
0.00109519
-2.54384e-07
1.2433e-06
2.50458e-07
8.8523e-07
-2.34204e-07
-8.89198e-07
2.25411e-07
0.0010964
-3.50419e-07
-0.00109622
-1.59511e-07
-1.1621e-06
2.73361e-07
-2.06964e-07
-8.32435e-07
2.4934e-07
-1.75664e-07
9.27205e-07
1.29543e-06
0.00109546
-3.49667e-07
-0.00109528
-1.65044e-07
-1.19868e-06
2.76059e-07
-2.09642e-07
-8.29819e-07
2.49185e-07
-1.78377e-07
9.24347e-07
7.42919e-09
1.05364e-08
0.00109497
-2.54355e-07
1.24325e-06
2.50443e-07
8.85146e-07
-2.34186e-07
2.25318e-07
-8.86437e-07
-3.44763e-07
-0.00109595
-1.64754e-07
-1.16474e-06
2.70537e-07
-2.04237e-07
-8.29816e-07
2.46434e-07
9.24355e-07
-1.75708e-07
1.2954e-06
0.00109525
-3.44172e-07
-0.00109507
-1.65133e-07
-1.19592e-06
2.76009e-07
-2.06846e-07
-8.29764e-07
2.49096e-07
-1.78413e-07
9.24245e-07
-2.17433e-07
-2.22355e-07
0.000267037
-1.25618e-06
0.000269116