/*--------------------------------*- C++ -*----------------------------------*\
| =========                 |                                                 |
| \\      /  F ield         | OpenFOAM: The Open Source CFD Toolbox           |
|  \\    /   O peration     | Version:  2206                                  |
|   \\  /    A nd           | Website:  www.openfoam.com                      |
|    \\/     M anipulation  |                                                 |
\*---------------------------------------------------------------------------*/
FoamFile
{
    version     2.0;
    format      ascii;
    arch        "LSB;label=32;scalar=64";
    class       volScalarField;
    location    "33";
    object      nut;
}
// * * * * * * * * * * * * * * * * * * * * * * * * * * * * * * * * * * * * * //

dimensions      [0 2 -1 0 0 0 0];

internalField   nonuniform List<scalar> 
171728
(
0.000233973
0.000233116
0.000233116
0.000233421
0.000232534
0.000227804
0.000227803
0.000223865
0.000230518
0.000220321
0.000220319
0.00020911
0.000227777
0.000211636
0.000211632
0.000193782
0.000224403
0.000202612
0.000202606
0.000179733
0.000220725
0.000194013
0.000194006
0.000167449
0.000215918
0.000184917
0.000184909
0.000156685
0.000213481
0.000181127
0.000181118
0.000151731
0.000214123
0.000182476
0.000182467
0.000153926
0.000214487
0.000183139
0.000183131
0.000154841
0.000214529
0.000183216
0.000183207
0.000154958
0.000214533
0.000183225
0.000183216
0.000154961
0.000214561
0.000183273
0.000183265
0.000154988
0.000214561
0.000183274
0.000183267
0.000155022
0.00021456
0.000183275
0.000183267
0.00015502
0.000214559
0.000183275
0.000183265
0.00015502
0.000214559
0.000183274
0.000183264
0.000155019
0.000214561
0.000183274
0.000183263
0.000155017
0.000214557
0.000183269
0.000183259
0.000155015
0.000214544
0.000183246
0.000183243
0.000154987
0.000214528
0.000183227
0.000183218
0.000154963
0.000214535
0.00018323
0.000183222
0.00015497
0.000214535
0.000183231
0.000183222
0.000154964
0.000214535
0.000183231
0.000183223
0.000154967
0.000214536
0.000183231
0.000183223
0.000154966
0.000214536
0.000183231
0.000183223
0.000154967
0.000214536
0.000183231
0.000183223
0.000154967
0.000214536
0.000183231
0.000183223
0.000154965
0.000214536
0.000183231
0.000183223
0.000154965
0.000214536
0.000183231
0.000183223
0.000154966
0.000214562
0.000183279
0.000183268
0.000155023
0.000214561
0.000183279
0.000183267
0.000155022
0.000214561
0.000183277
0.000183266
0.000155021
0.000214561
0.000183275
0.000183265
0.000155021
0.000214558
0.000183275
0.000183263
0.00015502
0.000214561
0.000183271
0.000183262
0.000155018
0.000214557
0.000183268
0.000183256
0.000155008
0.000214529
0.000183236
0.000183223
0.000154965
0.000214534
0.000183229
0.000183221
0.00015497
0.000214535
0.00018323
0.000183222
0.000154964
0.000214535
0.000183231
0.000183222
0.000154966
0.000214535
0.000183231
0.000183222
0.000154966
0.000214535
0.000183232
0.000183222
0.000154966
0.000214535
0.000183232
0.000183222
0.000154965
0.000214536
0.000183232
0.000183222
0.000154966
0.000214536
0.000183232
0.000183222
0.000154966
0.000214536
0.000183232
0.000183222
0.000154966
0.000214536
0.000183232
0.000183222
0.000154965
0.000214561
0.000183277
0.000183268
0.000155015
0.000214561
0.000183276
0.000183266
0.000155019
0.000214561
0.000183274
0.000183265
0.000155019
0.000214561
0.000183273
0.000183263
0.000155019
0.000214561
0.000183275
0.000183265
0.000155018
0.00021456
0.000183272
0.000183262
0.000155017
0.000214554
0.000183262
0.000183252
0.000154999
0.000214528
0.000183228
0.000183218
0.00015496
0.000214535
0.000183231
0.000183221
0.000154971
0.000214535
0.000183231
0.000183222
0.000154963
0.000214536
0.000183232
0.000183222
0.000154966
0.000214536
0.000183232
0.000183222
0.000154966
0.000214536
0.000183232
0.000183222
0.000154967
0.000214536
0.000183232
0.000183222
0.000154965
0.000214536
0.000183232
0.000183222
0.000154965
0.000214536
0.000183232
0.000183222
0.000154965
0.000214536
0.000183232
0.000183222
0.000154966
0.000214562
0.000183279
0.000183268
0.000155022
0.000214562
0.000183279
0.000183267
0.000155021
0.000214561
0.000183276
0.000183265
0.000155021
0.000214561
0.000183275
0.000183264
0.00015502
0.000214561
0.000183276
0.000183262
0.000155019
0.000214561
0.000183274
0.000183262
0.000155016
0.000214559
0.000183267
0.000183256
0.000155006
0.000214533
0.000183238
0.000183223
0.000154964
0.000214532
0.000183229
0.00018322
0.00015497
0.000214535
0.000183231
0.000183221
0.000154964
0.000214536
0.000183232
0.000183222
0.000154966
0.000214536
0.000183232
0.000183222
0.000154966
0.000214536
0.000183232
0.000183222
0.000154965
0.000214536
0.000183232
0.000183222
0.000154965
0.000214536
0.000183232
0.000183222
0.000154966
0.000214536
0.000183232
0.000183222
0.000154966
0.000214536
0.000183232
0.000183222
0.000154966
0.000214538
0.000183279
0.000183223
0.000154989
0.000214563
0.000183278
0.000183268
0.000155021
0.000214562
0.000183277
0.000183267
0.00015502
0.000214561
0.000183276
0.000183265
0.000155019
0.000214562
0.000183274
0.000183265
0.000155018
0.000214561
0.000183273
0.000183264
0.000155017
0.000214561
0.00018327
0.000183262
0.000155015
0.000214552
0.000183248
0.000183251
0.000154987
0.000214527
0.00018323
0.00018322
0.000154964
0.000214536
0.000183239
0.000183229
0.000154974
0.000214537
0.000183247
0.000183237
0.000154974
0.000214541
0.000183252
0.000183243
0.000155004
0.000215656
0.000186401
0.000186398
0.000159134
0.000234268
0.000234448
0.000234449
0.000234268
0.000234448
0.000234449
0.000234274
0.000234274
0.000234274
0.000234274
0.000234448
0.000234448
0.000234268
0.000234448
0.000234448
0.000234268
0.000233421
0.000226205
0.000233116
0.000233114
0.00022936
0.000229355
0.000233421
0.000226207
0.000233114
0.000233114
0.000229358
0.000229354
0.000233116
0.000229363
0.000229359
0.000233421
0.000226204
0.000233114
0.000229362
0.000229357
0.000226204
0.000223865
0.000212227
0.000227801
0.000227796
0.000222325
0.000222319
0.000223866
0.000212231
0.000227798
0.000227794
0.000222325
0.000222316
0.0002278
0.000222331
0.000222323
0.000223864
0.000212225
0.000227799
0.000222329
0.000222324
0.000212226
0.000209113
0.000197042
0.000220314
0.000220308
0.000213857
0.000213851
0.000209114
0.000197047
0.000220315
0.000220305
0.00021386
0.000213847
0.000220312
0.000213867
0.000213854
0.000209109
0.000197038
0.000220314
0.000213863
0.000213859
0.000197039
0.000193786
0.00018289
0.000211624
0.000211619
0.000204937
0.000204931
0.000193789
0.000182897
0.000211629
0.000211614
0.000204945
0.000204926
0.000211622
0.000204952
0.000204934
0.000193781
0.000182886
0.000211628
0.000204946
0.000204943
0.000182887
0.000179737
0.000170291
0.000202596
0.000202591
0.000196003
0.000195998
0.00017974
0.000170297
0.000202605
0.000202585
0.000196015
0.000195991
0.000202593
0.000196022
0.000196
0.000179732
0.000170287
0.000202603
0.000196015
0.000196013
0.000170287
0.000167454
0.000159332
0.000193994
0.000193988
0.000187181
0.000187176
0.000167459
0.00015934
0.000194006
0.000193981
0.000187197
0.000187169
0.000193991
0.000187204
0.000187178
0.000167449
0.000159328
0.000194005
0.000187196
0.000187195
0.000159327
0.000156689
0.000152505
0.000184893
0.000184887
0.000181191
0.000181183
0.000156694
0.00015251
0.000184909
0.000184881
0.000181205
0.000181175
0.00018489
0.000181212
0.000181187
0.000156685
0.000152498
0.000184907
0.000181204
0.000181206
0.000152498
0.000151739
0.000153948
0.000181105
0.000181097
0.000182192
0.000182185
0.000151742
0.000153953
0.000181119
0.000181089
0.000182207
0.000182177
0.000181101
0.000182213
0.000182188
0.000151732
0.000153941
0.00018112
0.000182205
0.000182208
0.00015394
0.000153932
0.000155014
0.000182455
0.000182448
0.000183046
0.000183041
0.000153936
0.000155018
0.00018247
0.00018244
0.000183062
0.000183032
0.000182451
0.000183068
0.000183044
0.000153924
0.000155006
0.000182471
0.00018306
0.000183064
0.00015501
0.000154847
0.000155146
0.000183119
0.000183114
0.000183188
0.000183184
0.000154849
0.00015515
0.000183135
0.000183104
0.000183206
0.000183174
0.000183117
0.000183211
0.000183187
0.000154838
0.000155137
0.000183137
0.000183202
0.000183207
0.000155142
0.000154964
0.000155149
0.000183193
0.000183189
0.0001832
0.000183195
0.000154966
0.000155152
0.000183211
0.000183179
0.000183218
0.000183186
0.000183192
0.000183222
0.000183199
0.000154955
0.00015514
0.000183213
0.000183215
0.000183219
0.000155144
0.000154967
0.000155158
0.000183201
0.000183197
0.000183205
0.000183246
0.000154969
0.000155217
0.000183219
0.000183188
0.000183222
0.000183191
0.0001832
0.000183273
0.000183204
0.000154958
0.000155149
0.000183221
0.000183218
0.000183224
0.000155154
0.000154993
0.000155209
0.000183252
0.000183247
0.000183254
0.000183248
0.000155031
0.000155211
0.000183269
0.000183238
0.000183271
0.00018324
0.000183251
0.000183274
0.000183252
0.000154983
0.0001552
0.000183271
0.000183266
0.000183273
0.000155205
0.000155027
0.00015521
0.000183254
0.000183249
0.000183254
0.000183249
0.000155028
0.000155212
0.000183271
0.00018324
0.000183272
0.000183241
0.000183253
0.000183275
0.000183253
0.000155018
0.000155201
0.000183274
0.000183267
0.000183274
0.000155205
0.000155027
0.00015521
0.000183255
0.000183249
0.000183253
0.000183249
0.000155028
0.000155212
0.000183272
0.000183241
0.00018327
0.00018324
0.000183253
0.000183275
0.000183253
0.000155018
0.0001552
0.000183274
0.000183266
0.000183273
0.000155205
0.000155026
0.000155208
0.000183253
0.000183249
0.000183251
0.000183249
0.000155028
0.000155211
0.00018327
0.000183239
0.000183269
0.000183239
0.000183252
0.000183274
0.000183252
0.000155017
0.000155198
0.000183272
0.000183264
0.000183272
0.000155203
0.000155025
0.000155207
0.000183252
0.00018325
0.000183251
0.000183251
0.000155028
0.00015521
0.000183269
0.000183239
0.000183269
0.000183239
0.000183252
0.000183274
0.000183252
0.000155016
0.000155197
0.000183273
0.000183264
0.000183272
0.000155202
0.000155023
0.000155205
0.000183251
0.000183251
0.000183248
0.000183251
0.000155027
0.000155209
0.000183269
0.00018324
0.000183266
0.000183238
0.000183253
0.00018327
0.000183251
0.000155014
0.000155196
0.000183272
0.00018326
0.000183272
0.000155201
0.000155021
0.000155185
0.000183245
0.000183248
0.000183236
0.000183231
0.000155025
0.000155182
0.000183264
0.000183235
0.000183254
0.000183225
0.000183248
0.000183258
0.000183238
0.000155012
0.000155177
0.000183269
0.000183251
0.000183258
0.000155181
0.000154994
0.000155154
0.000183226
0.000183218
0.000183203
0.000183201
0.00015499
0.000155159
0.000183245
0.000183215
0.000183221
0.000183191
0.000183227
0.000183227
0.000183203
0.000154986
0.000155145
0.000183246
0.000183219
0.000183224
0.00015515
0.000154969
0.000155159
0.000183204
0.000183202
0.000183207
0.000183203
0.000154977
0.000155163
0.000183222
0.000183191
0.000183225
0.000183194
0.000183204
0.00018323
0.000183207
0.000154961
0.00015515
0.000183224
0.000183222
0.000183227
0.000155156
0.000154975
0.000155152
0.000183208
0.000183204
0.000183209
0.000183204
0.000154978
0.000155157
0.000183226
0.000183195
0.000183226
0.000183195
0.000183207
0.000183231
0.000183207
0.000154967
0.000155144
0.000183228
0.000183222
0.000183227
0.000155148
0.000154969
0.000155156
0.000183209
0.000183205
0.00018321
0.000183205
0.000154974
0.00015516
0.000183226
0.000183195
0.000183227
0.000183196
0.000183208
0.000183232
0.000183209
0.000154961
0.000155147
0.000183228
0.000183223
0.000183228
0.000155152
0.000154972
0.000155155
0.00018321
0.000183205
0.00018321
0.000183205
0.000154976
0.000155158
0.000183227
0.000183196
0.000183227
0.000183196
0.000183209
0.000183232
0.000183208
0.000154964
0.000155146
0.000183228
0.000183223
0.000183226
0.000155151
0.000154971
0.000155156
0.00018321
0.000183205
0.00018321
0.000183205
0.000154974
0.00015516
0.000183228
0.000183196
0.000183228
0.000183196
0.000183209
0.000183232
0.000183209
0.000154963
0.000155147
0.000183226
0.000183223
0.000183226
0.000155152
0.000154973
0.000155155
0.00018321
0.000183205
0.00018321
0.000183205
0.000154976
0.00015516
0.000183228
0.000183196
0.000183228
0.000183196
0.000183208
0.000183232
0.000183208
0.000154965
0.000155146
0.000183226
0.000183223
0.000183226
0.00015515
0.000154972
0.000155154
0.00018321
0.000183205
0.00018321
0.000183205
0.000154977
0.000155158
0.000183228
0.000183196
0.000183228
0.000183196
0.000183209
0.000183232
0.000183208
0.000154964
0.000155146
0.000183226
0.000183223
0.000183226
0.00015515
0.000154971
0.000155155
0.00018321
0.000183206
0.00018321
0.000183205
0.000154975
0.000155158
0.000183228
0.000183196
0.000183228
0.000183196
0.000183209
0.000183232
0.000183209
0.000154963
0.000155146
0.000183226
0.000183223
0.000183226
0.00015515
0.000154971
0.000155155
0.00018321
0.000183205
0.000183209
0.000183205
0.000154975
0.000155158
0.000183228
0.000183196
0.000183228
0.000183196
0.000183209
0.000183232
0.000183208
0.000154963
0.000155146
0.000183226
0.000183223
0.000183226
0.00015515
0.000154971
0.000155213
0.00018321
0.000183205
0.000183256
0.000183251
0.000154975
0.00015515
0.000183228
0.000183196
0.000183274
0.000183242
0.000183208
0.000183279
0.000183255
0.000154963
0.000155203
0.000183226
0.000183269
0.000183273
0.000155208
0.000155028
0.000155211
0.000183257
0.000183253
0.000183256
0.000183252
0.000154974
0.000155212
0.000183275
0.000183243
0.000183275
0.000183243
0.000183256
0.000183279
0.000183256
0.00015502
0.000155202
0.000183274
0.000183267
0.000183273
0.000155206
0.000155027
0.00015521
0.000183256
0.000183252
0.000183256
0.000183251
0.000155028
0.000155214
0.000183275
0.000183242
0.000183274
0.000183242
0.000183255
0.000183277
0.000183255
0.000155019
0.000155201
0.000183273
0.000183266
0.000183272
0.000155205
0.000155026
0.000155209
0.000183257
0.000183252
0.000183256
0.00018325
0.00015503
0.000155213
0.000183275
0.000183243
0.000183275
0.000183242
0.000183256
0.000183275
0.000183255
0.000155018
0.0001552
0.000183271
0.000183266
0.000183271
0.000155205
0.000155026
0.000155208
0.000183255
0.00018325
0.000183253
0.00018325
0.00015503
0.000155213
0.000183275
0.000183243
0.000183271
0.000183242
0.000183256
0.000183275
0.000183256
0.000155017
0.000155198
0.000183272
0.000183264
0.000183272
0.000155204
0.000155024
0.000155206
0.000183252
0.00018325
0.000183253
0.00018325
0.000155029
0.000155212
0.00018327
0.00018324
0.000183271
0.000183236
0.000183256
0.000183272
0.000183255
0.000155015
0.000155196
0.000183272
0.000183263
0.000183269
0.000155203
0.000155023
0.000155202
0.000183253
0.000183249
0.00018325
0.000183243
0.000155028
0.000155208
0.000183272
0.000183235
0.000183268
0.000183232
0.000183253
0.000183269
0.000183247
0.000155013
0.000155191
0.000183267
0.000183258
0.000183262
0.000155196
0.000155016
0.000155164
0.000183246
0.000183241
0.000183217
0.000183216
0.000155023
0.000155175
0.000183264
0.000183229
0.000183236
0.000183205
0.000183244
0.000183247
0.000183218
0.000155006
0.000155155
0.00018326
0.000183232
0.000183235
0.00015516
0.000154972
0.000155158
0.000183209
0.000183207
0.000183206
0.0001832
0.000154982
0.000155162
0.000183228
0.000183196
0.000183224
0.000183192
0.000183209
0.000183227
0.000183204
0.000154964
0.000155149
0.000183226
0.000183219
0.000183222
0.000155154
0.000154976
0.000155155
0.000183208
0.000183202
0.000183208
0.000183203
0.00015498
0.000155161
0.000183227
0.000183194
0.000183227
0.000183194
0.000183207
0.00018323
0.000183207
0.000154968
0.000155146
0.000183225
0.000183222
0.000183224
0.00015515
0.000154971
0.000155155
0.000183208
0.000183203
0.00018321
0.000183204
0.000154976
0.000155158
0.000183227
0.000183194
0.000183228
0.000183195
0.000183207
0.000183231
0.000183208
0.000154963
0.000155146
0.000183224
0.000183222
0.000183225
0.000155151
0.000154972
0.000155155
0.00018321
0.000183205
0.00018321
0.000183205
0.000154975
0.000155159
0.000183228
0.000183196
0.000183227
0.000183196
0.000183209
0.000183232
0.000183208
0.000154964
0.000155146
0.000183226
0.000183223
0.000183226
0.000155151
0.000154972
0.000155154
0.000183209
0.000183206
0.000183209
0.000183205
0.000154976
0.000155158
0.000183227
0.000183196
0.000183227
0.000183196
0.000183208
0.000183232
0.000183208
0.000154964
0.000155146
0.000183226
0.000183223
0.000183226
0.00015515
0.000154971
0.000155154
0.00018321
0.000183205
0.00018321
0.000183205
0.000154975
0.00015516
0.000183228
0.000183196
0.000183227
0.000183196
0.000183209
0.000183232
0.000183208
0.000154963
0.000155146
0.000183226
0.000183223
0.000183226
0.00015515
0.000154971
0.000155155
0.00018321
0.000183205
0.00018321
0.000183205
0.000154976
0.00015516
0.000183227
0.000183196
0.000183227
0.000183196
0.000183209
0.000183232
0.000183208
0.000154963
0.000155147
0.000183226
0.000183223
0.000183226
0.000155151
0.000154972
0.000155155
0.00018321
0.000183205
0.00018321
0.000183205
0.000154977
0.000155159
0.000183227
0.000183196
0.000183227
0.000183196
0.000183209
0.000183232
0.000183209
0.000154964
0.000155146
0.000183226
0.000183223
0.000183226
0.000155151
0.000154972
0.000155154
0.000183211
0.000183205
0.000183211
0.000183205
0.000154976
0.000155158
0.000183227
0.000183196
0.000183227
0.000183196
0.000183209
0.000183232
0.000183208
0.000154964
0.000155146
0.000183226
0.000183223
0.000183226
0.000155151
0.000154971
0.000155154
0.000183211
0.000183205
0.000183211
0.000183205
0.000154975
0.000155159
0.000183227
0.000183196
0.000183227
0.000183196
0.000183209
0.000183232
0.000183209
0.000154963
0.000155146
0.000183226
0.000183222
0.000183226
0.000155151
0.000154971
0.000155208
0.000183211
0.000183206
0.000183256
0.000183251
0.000154975
0.000155213
0.000183227
0.000183196
0.000183273
0.000183242
0.000183209
0.000183277
0.000183254
0.000154963
0.0001552
0.000183226
0.000183268
0.000183271
0.000155196
0.000155025
0.000155209
0.000183256
0.000183251
0.000183256
0.00018325
0.000155029
0.000155213
0.000183272
0.000183241
0.000183272
0.000183241
0.000183254
0.000183276
0.000183253
0.000155017
0.0001552
0.000183271
0.000183266
0.000183271
0.000155203
0.000155026
0.000155208
0.000183257
0.00018325
0.000183256
0.00018325
0.00015503
0.000155213
0.000183272
0.000183242
0.000183271
0.000183241
0.000183253
0.000183275
0.000183253
0.000155017
0.0001552
0.00018327
0.000183265
0.00018327
0.000155203
0.000155025
0.000155208
0.000183256
0.000183251
0.000183255
0.00018325
0.000155029
0.000155212
0.000183272
0.000183241
0.000183271
0.00018324
0.000183254
0.000183273
0.000183253
0.000155017
0.000155198
0.000183271
0.000183264
0.00018327
0.000155203
0.000155025
0.000155207
0.000183256
0.000183251
0.000183255
0.000183251
0.000155028
0.000155211
0.000183271
0.000183241
0.000183271
0.000183241
0.000183254
0.000183275
0.000183254
0.000155015
0.000155198
0.00018327
0.000183265
0.00018327
0.000155202
0.000155024
0.000155207
0.000183256
0.000183252
0.000183255
0.000183251
0.000155027
0.000155211
0.000183272
0.000183242
0.000183273
0.00018324
0.000183255
0.000183273
0.000183253
0.000155015
0.000155197
0.000183271
0.000183263
0.000183271
0.000155202
0.000155023
0.000155195
0.000183253
0.000183249
0.000183245
0.000183241
0.000155027
0.000155199
0.000183271
0.000183238
0.000183263
0.00018323
0.000183251
0.000183265
0.000183243
0.000155014
0.000155186
0.000183269
0.000183255
0.000183261
0.00015519
0.000155007
0.000155156
0.000183241
0.000183236
0.00018321
0.000183204
0.000155011
0.000155161
0.000183258
0.000183226
0.000183226
0.000183195
0.000183239
0.000183232
0.000183207
0.000154998
0.000155147
0.000183256
0.000183223
0.000183224
0.00015515
0.000154968
0.000155159
0.000183206
0.000183201
0.000183208
0.000183203
0.000154973
0.000155164
0.000183223
0.000183191
0.000183225
0.000183193
0.000183204
0.00018323
0.000183206
0.00015496
0.000155151
0.00018322
0.000183221
0.000183223
0.000155156
0.000154977
0.000155153
0.000183209
0.000183204
0.000183209
0.000183204
0.000154981
0.000155157
0.000183226
0.000183194
0.000183226
0.000183194
0.000183207
0.000183231
0.000183207
0.000154968
0.000155144
0.000183224
0.000183221
0.000183224
0.000155148
0.000154969
0.000155155
0.00018321
0.000183204
0.000183211
0.000183205
0.000154974
0.00015516
0.000183226
0.000183195
0.000183227
0.000183196
0.000183207
0.000183232
0.000183208
0.000154961
0.000155147
0.000183224
0.000183223
0.000183225
0.000155151
0.000154972
0.000155155
0.000183211
0.000183206
0.00018321
0.000183205
0.000154977
0.00015516
0.000183227
0.000183196
0.000183226
0.000183196
0.000183209
0.000183232
0.000183208
0.000154964
0.000155146
0.000183226
0.000183223
0.000183225
0.000155151
0.000154972
0.000155155
0.00018321
0.000183205
0.000183211
0.000183205
0.000154976
0.00015516
0.000183227
0.000183196
0.000183227
0.000183196
0.000183208
0.000183232
0.000183208
0.000154964
0.000155147
0.000183225
0.000183223
0.000183225
0.000155151
0.000154972
0.000155154
0.000183211
0.000183205
0.00018321
0.000183205
0.000154977
0.000155158
0.000183227
0.000183196
0.000183227
0.000183196
0.000183209
0.000183232
0.000183208
0.000154964
0.000155145
0.000183226
0.000183223
0.000183225
0.000155149
0.000154971
0.000155154
0.000183211
0.000183206
0.000183211
0.000183205
0.000154975
0.000155159
0.000183227
0.000183196
0.000183227
0.000183196
0.000183209
0.000183232
0.000183208
0.000154963
0.000155146
0.000183226
0.000183223
0.000183225
0.00015515
0.000154971
0.000155155
0.000183211
0.000183205
0.000183211
0.000183205
0.000154975
0.000155159
0.000183227
0.000183196
0.000183227
0.000183196
0.000183208
0.000183232
0.000183209
0.000154963
0.000155146
0.000183225
0.000183223
0.000183225
0.000155151
0.000154972
0.000155155
0.000183211
0.000183206
0.000183211
0.000183205
0.000154976
0.000155159
0.000183227
0.000183196
0.000183227
0.000183196
0.000183209
0.000183232
0.000183208
0.000154963
0.000155146
0.000183226
0.000183223
0.000183225
0.000155151
0.000154971
0.000155213
0.000183211
0.000183206
0.000183257
0.000183252
0.000154976
0.000155218
0.000183227
0.000183196
0.000183273
0.000183242
0.000183209
0.00018328
0.000183255
0.000154963
0.000155204
0.000183225
0.000183268
0.000183272
0.000155208
0.000155028
0.000155209
0.000183257
0.000183252
0.000183257
0.000183252
0.000155033
0.000155214
0.000183273
0.000183244
0.000183273
0.000183243
0.000183256
0.000183279
0.000183255
0.00015502
0.000155202
0.000183273
0.000183267
0.000183272
0.000155206
0.000155026
0.000155209
0.000183257
0.000183251
0.000183256
0.000183251
0.00015503
0.000155214
0.000183273
0.000183242
0.000183272
0.000183242
0.000183255
0.000183277
0.000183255
0.000155019
0.0001552
0.000183272
0.000183266
0.000183271
0.000155205
0.000155026
0.000155208
0.000183256
0.000183252
0.000183256
0.000183251
0.00015503
0.000155213
0.000183272
0.000183243
0.000183271
0.000183242
0.000183256
0.000183275
0.000183255
0.000155018
0.000155199
0.000183272
0.000183264
0.000183271
0.000155205
0.000155025
0.000155208
0.000183256
0.000183251
0.000183255
0.000183251
0.000155029
0.000155212
0.000183272
0.000183243
0.000183271
0.000183242
0.000183256
0.000183276
0.000183255
0.000155017
0.000155198
0.000183271
0.000183262
0.00018327
0.000155204
0.000155025
0.000155207
0.000183256
0.000183251
0.000183256
0.000183252
0.000155029
0.000155212
0.000183271
0.00018324
0.000183271
0.000183236
0.000183254
0.000183275
0.00018325
0.000155015
0.000155196
0.000183271
0.000183262
0.000183268
0.000155201
0.000155024
0.000155205
0.000183256
0.000183251
0.000183252
0.000183246
0.000155028
0.000155208
0.00018327
0.000183235
0.000183269
0.000183232
0.000183248
0.000183269
0.000183245
0.000155013
0.000155191
0.000183266
0.000183258
0.000183261
0.000155195
0.000155021
0.000155174
0.000183249
0.000183243
0.00018323
0.000183224
0.000155023
0.000155178
0.000183266
0.00018323
0.000183245
0.000183205
0.000183242
0.00018325
0.000183217
0.000155006
0.000155156
0.000183259
0.000183232
0.000183233
0.000155158
0.000154981
0.000155155
0.000183218
0.000183212
0.000183205
0.000183199
0.000154985
0.000155159
0.000183233
0.000183196
0.000183221
0.000183192
0.000183208
0.000183227
0.000183204
0.000154964
0.000155149
0.000183225
0.000183219
0.000183221
0.000155154
0.000154973
0.000155157
0.000183207
0.000183202
0.000183209
0.000183203
0.000154978
0.000155162
0.000183224
0.000183194
0.000183225
0.000183194
0.000183207
0.000183231
0.000183207
0.000154968
0.000155146
0.000183224
0.000183221
0.000183224
0.00015515
0.000154973
0.000155153
0.00018321
0.000183204
0.00018321
0.000183204
0.000154977
0.000155158
0.000183226
0.000183194
0.000183226
0.000183195
0.000183207
0.000183232
0.000183208
0.000154962
0.000155146
0.000183224
0.000183222
0.000183225
0.00015515
0.000154971
0.000155155
0.000183211
0.000183205
0.000183211
0.000183205
0.000154975
0.00015516
0.000183227
0.000183196
0.000183227
0.000183196
0.000183209
0.000183232
0.000183208
0.000154964
0.000155146
0.000183226
0.000183223
0.000183225
0.000155151
0.000154972
0.000155154
0.000183211
0.000183205
0.00018321
0.000183205
0.000154976
0.000155158
0.000183227
0.000183196
0.000183226
0.000183196
0.000183208
0.000183232
0.000183208
0.000154964
0.000155146
0.000183226
0.000183223
0.000183225
0.00015515
0.000154971
0.000155156
0.000183211
0.000183206
0.00018321
0.000183205
0.000154975
0.000155161
0.000183227
0.000183196
0.000183226
0.000183196
0.000183209
0.000183232
0.000183208
0.000154963
0.000155146
0.000183226
0.000183223
0.000183225
0.00015515
0.000154972
0.000155155
0.00018321
0.000183205
0.000183211
0.000183205
0.000154977
0.00015516
0.000183226
0.000183196
0.000183227
0.000183196
0.000183209
0.000183232
0.000183208
0.000154963
0.000155147
0.000183226
0.000183223
0.000183225
0.000155151
0.000154973
0.000155154
0.000183211
0.000183206
0.000183211
0.000183205
0.000154977
0.000155159
0.000183227
0.000183196
0.000183227
0.000183196
0.000183209
0.000183232
0.000183208
0.000154964
0.000155146
0.000183225
0.000183223
0.000183225
0.000155151
0.000154972
0.000155154
0.000183211
0.000183206
0.000183211
0.000183205
0.000154976
0.000155159
0.000183227
0.000183196
0.000183226
0.000183196
0.000183209
0.000183232
0.000183208
0.000154964
0.000155146
0.000183226
0.000183223
0.000183225
0.000155151
0.000154971
0.000155154
0.000183211
0.000183206
0.000183212
0.000183252
0.000154975
0.000155218
0.000183227
0.000183196
0.000183227
0.000183196
0.000183209
0.000183279
0.00018321
0.000154963
0.000155146
0.000183226
0.000183222
0.000183226
0.000155153
0.000154974
0.000155166
0.000183258
0.000183252
0.000183256
0.000183252
0.000155032
0.000155214
0.000183227
0.000183196
0.000183271
0.000183242
0.000183256
0.000183279
0.000183255
0.000154963
0.0001552
0.000183272
0.000183269
0.000183272
0.000155205
0.000154989
0.000155207
0.000183256
0.000183253
0.000183257
0.000183252
0.00015503
0.000155214
0.000183272
0.000183241
0.000183272
0.000183241
0.000183255
0.000183277
0.000183254
0.000155017
0.0001552
0.000183271
0.000183267
0.000183271
0.000155205
0.000155025
0.000155209
0.000183257
0.000183251
0.000183256
0.000183251
0.00015503
0.000155213
0.000183272
0.000183242
0.000183272
0.000183241
0.000183253
0.000183276
0.000183253
0.000155017
0.0001552
0.00018327
0.000183265
0.000183269
0.000155204
0.000155026
0.000155209
0.000183256
0.000183251
0.000183256
0.000183251
0.00015503
0.000155212
0.000183272
0.000183241
0.000183272
0.00018324
0.000183252
0.000183274
0.000183252
0.000155017
0.000155199
0.000183269
0.000183264
0.000183268
0.000155202
0.000155026
0.000155208
0.000183256
0.000183251
0.000183256
0.000183251
0.000155029
0.000155211
0.000183272
0.000183241
0.000183272
0.000183241
0.000183253
0.000183273
0.000183252
0.000155016
0.000155198
0.000183269
0.000183264
0.000183269
0.000155201
0.000155025
0.000155208
0.000183256
0.000183251
0.000183256
0.000183248
0.000155028
0.000155209
0.000183272
0.000183241
0.000183274
0.000183242
0.000183252
0.000183271
0.000183252
0.000155016
0.000155198
0.00018327
0.000183263
0.000183269
0.000155201
0.000155025
0.000155191
0.000183253
0.000183246
0.000183244
0.000183233
0.000155025
0.000155184
0.000183273
0.000183241
0.000183265
0.000183233
0.00018325
0.00018326
0.000183239
0.000155015
0.000155185
0.000183267
0.000183256
0.000183256
0.000155181
0.000155002
0.000155155
0.000183236
0.00018322
0.00018321
0.000183203
0.000154991
0.00015516
0.000183259
0.000183228
0.000183228
0.000183198
0.000183228
0.00018323
0.000183207
0.000154998
0.000155148
0.000183245
0.000183224
0.000183223
0.00015515
0.00015497
0.000155163
0.000183208
0.000183204
0.000183217
0.000183211
0.000154978
0.000155166
0.000183225
0.000183194
0.000183233
0.000183202
0.000183206
0.000183239
0.000183214
0.000154962
0.000155155
0.000183223
0.000183229
0.000183232
0.000155159
0.000154981
0.000155161
0.00018322
0.000183213
0.000183225
0.00018322
0.000154983
0.000155165
0.000183236
0.000183204
0.000183242
0.000183211
0.000183216
0.000183247
0.000183223
0.000154973
0.000155152
0.000183234
0.000183237
0.00018324
0.000155156
0.00015498
0.000155187
0.000183226
0.000183222
0.000183266
0.000183262
0.000154984
0.000155193
0.000183243
0.000183212
0.000183284
0.000183253
0.000183225
0.00018329
0.000183264
0.000154971
0.00015518
0.000183241
0.000183281
0.000183283
0.000155184
0.000155008
0.000156894
0.000183228
0.000183224
0.00018534
0.000185337
0.000155013
0.000156895
0.000183246
0.000183215
0.000185353
0.000185333
0.000183225
0.000185355
0.000185339
0.000155002
0.000156889
0.000183245
0.000185351
0.000185353
0.000156892
0.000159137
0.000186391
0.000186388
0.000159137
0.000186401
0.000186385
0.000215656
0.000215655
0.000215656
0.00018639
0.000159131
0.000186401
0.00023473
0.000234746
0.000234729
0.000234729
0.000235118
0.000234798
0.000234701
0.000234727
0.000235118
0.000234798
0.000234727
0.000234701
0.000234867
0.000233566
0.000233566
0.000104624
3.87457e-05
0.000129165
3.98203e-05
2.16834e-05
2.28283e-05
0.000104612
3.87417e-05
0.000129165
3.98168e-05
0.000233974
0.000233974
0.000233974
0.000232934
0.000232934
0.000232934
0.000232934
0.000206175
9.36567e-05
0.00023397
0.000231994
0.000222639
8.72463e-05
0.000233611
2.16824e-05
2.28276e-05
0.000206167
0.00023397
9.3656e-05
0.000231993
0.000222649
0.000233611
8.72524e-05
4.77874e-05
4.77753e-05
0.000231347
4.40398e-05
4.40304e-05
7.25457e-05
4.24379e-05
8.14322e-05
4.37588e-05
2.47778e-05
2.54611e-05
7.25309e-05