/*--------------------------------*- C++ -*----------------------------------*\
| =========                 |                                                 |
| \\      /  F ield         | OpenFOAM: The Open Source CFD Toolbox           |
|  \\    /   O peration     | Version:  2206                                  |
|   \\  /    A nd           | Website:  www.openfoam.com                      |
|    \\/     M anipulation  |                                                 |
\*---------------------------------------------------------------------------*/
FoamFile
{
    version     2.0;
    format      ascii;
    arch        "LSB;label=32;scalar=64";
    class       volScalarField;
    location    "33";
    object      p;
}
// * * * * * * * * * * * * * * * * * * * * * * * * * * * * * * * * * * * * * //

dimensions      [0 2 -2 0 0 0 0];

internalField   nonuniform List<scalar> 
171728
(
0.00391906
0.00391939
0.00391939
0.00392245
0.0038637
0.00386412
0.00386412
0.00386711
0.00381295
0.00381292
0.00381292
0.00381568
0.00376053
0.00376055
0.00376055
0.00376334
0.0037092
0.00370919
0.00370919
0.00371194
0.00365932
0.00365926
0.00365926
0.00366192
0.00361199
0.00361185
0.00361184
0.00361425
0.00356883
0.00356872
0.00356872
0.00357118
0.0035275
0.00352745
0.00352745
0.0035299
0.00348641
0.00348636
0.00348636
0.00348879
0.00344538
0.00344534
0.00344534
0.00344777
0.00340436
0.00340432
0.00340432
0.00340675
0.00336335
0.00336331
0.00336331
0.00336574
0.00332233
0.00332229
0.00332229
0.00332472
0.00328132
0.00328128
0.00328128
0.00328371
0.00324031
0.00324027
0.00324027
0.0032427
0.00319929
0.00319925
0.00319925
0.00320168
0.00315827
0.00315823
0.00315823
0.00316066
0.00311725
0.00311721
0.00311721
0.00311964
0.00307622
0.00307619
0.00307619
0.00307861
0.0030352
0.00303517
0.00303516
0.00303759
0.00299418
0.00299414
0.00299414
0.00299657
0.00295316
0.00295312
0.00295312
0.00295555
0.00291214
0.0029121
0.0029121
0.00291453
0.00287113
0.00287109
0.00287109
0.00287351
0.00283011
0.00283007
0.00283007
0.0028325
0.00278909
0.00278905
0.00278905
0.00279148
0.00274808
0.00274804
0.00274804
0.00275047
0.00270706
0.00270702
0.00270702
0.00270945
0.00266604
0.002666
0.002666
0.00266843
0.00262502
0.00262498
0.00262498
0.00262741
0.002584
0.00258396
0.00258396
0.00258639
0.00254298
0.00254294
0.00254294
0.00254537
0.00250196
0.00250193
0.00250193
0.00250435
0.00246095
0.00246091
0.00246091
0.00246334
0.00241993
0.00241989
0.00241989
0.00242232
0.00237891
0.00237887
0.00237887
0.0023813
0.00233789
0.00233785
0.00233785
0.00234028
0.00229687
0.00229684
0.00229684
0.00229926
0.00225586
0.00225582
0.00225582
0.00225825
0.00221484
0.0022148
0.0022148
0.00221723
0.00217382
0.00217378
0.00217378
0.00217621
0.0021328
0.00213276
0.00213276
0.00213519
0.00209178
0.00209174
0.00209174
0.00209417
0.00205076
0.00205072
0.00205072
0.00205315
0.00200975
0.00200971
0.00200971
0.00201214
0.00196873
0.00196869
0.00196869
0.00197112
0.00192772
0.00192768
0.00192768
0.00193011
0.00188671
0.00188667
0.00188667
0.00188909
0.00184569
0.00184565
0.00184565
0.00184808
0.00180468
0.00180464
0.00180464
0.00180707
0.00176367
0.00176363
0.00176363
0.00176606
0.00172265
0.00172261
0.00172261
0.00172504
0.00168164
0.0016816
0.0016816
0.00168403
0.00164062
0.00164058
0.00164058
0.00164301
0.0015996
0.00159957
0.00159956
0.00160199
0.00155859
0.00155855
0.00155855
0.00156098
0.00151758
0.00151754
0.00151754
0.00151997
0.00147656
0.00147653
0.00147653
0.00147895
0.00143555
0.00143551
0.00143551
0.00143794
0.00139454
0.0013945
0.0013945
0.00139693
0.00135353
0.00135349
0.00135349
0.00135592
0.00131252
0.00131248
0.00131248
0.00131491
0.0012715
0.00127146
0.00127146
0.00127389
0.00123049
0.00123045
0.00123045
0.00123288
0.00118947
0.00118943
0.00118943
0.00119186
0.00114845
0.00114842
0.00114842
0.00115084
0.00110744
0.0011074
0.0011074
0.00110983
0.00106642
0.00106638
0.00106638
0.00106881
0.00102541
0.00102537
0.00102537
0.0010278
0.000984396
0.000984357
0.000984358
0.000986786
0.000943385
0.000943347
0.000943347
0.000945774
0.000902375
0.000902337
0.000902337
0.000904764
0.000861365
0.000861327
0.000861327
0.000863754
0.000820354
0.000820316
0.000820316
0.000822744
0.000779344
0.000779306
0.000779306
0.000781733
0.000738334
0.000738296
0.000738295
0.000740723
0.000697324
0.000697286
0.000697286
0.000699713
0.000656314
0.000656276
0.000656275
0.000658703
0.000615305
0.000615267
0.000615267
0.000617694
0.000574297
0.000574259
0.000574259
0.000576686
0.000533291
0.000533253
0.000533253
0.00053568
0.000492287
0.000492249
0.000492249
0.000494676
0.000451284
0.000451246
0.000451246
0.000453673
0.000410283
0.000410245
0.000410245
0.000412672
0.000369283
0.000369245
0.000369245
0.000371672
0.000328282
0.000328245
0.000328245
0.000330671
0.000287278
0.000287241
0.000287241
0.000289666
0.000246278
0.000246236
0.000246236
0.000248662
0.000205268
0.000205232
0.000205232
0.00020765
0.000164257
0.000164225
0.000164225
0.00016664
0.000123232
0.000123198
0.000123197
0.000125597
8.22094e-05
8.21638e-05
8.21625e-05
8.45348e-05
4.18685e-05
4.13157e-05
4.13128e-05
4.35519e-05
8.6965e-06
8.85798e-06
8.85482e-06
8.40222e-06
0.00393247
0.0039327
0.00393269
0.00393247
0.0039327
0.0039327
0.00393346
0.00393346
0.00393346
0.00393346
0.0039327
0.0039327
0.00393247
0.0039327
0.0039327
0.00393247
0.00392245
0.00387368
0.00391939
0.00391939
0.00387596
0.00387596
0.00392245
0.00387368
0.00391939
0.00391939
0.00387596
0.00387596
0.00391939
0.00387596
0.00387596
0.00392245
0.00387368
0.00391939
0.00387596
0.00387596
0.00387368
0.00386711
0.0038226
0.00386412
0.00386412
0.00382604
0.00382604
0.00386711
0.0038226
0.00386412
0.00386412
0.00382604
0.00382604
0.00386412
0.00382604
0.00382604
0.00386711
0.0038226
0.00386412
0.00382604
0.00382604
0.0038226
0.00381568
0.00377021
0.00381292
0.00381292
0.00377357
0.00377357
0.00381568
0.00377021
0.00381292
0.00381292
0.00377357
0.00377357
0.00381292
0.00377357
0.00377357
0.00381568
0.00377021
0.00381292
0.00377357
0.00377357
0.00377021
0.00376334
0.00371866
0.00376055
0.00376056
0.00372193
0.00372193
0.00376334
0.00371866
0.00376055
0.00376056
0.00372193
0.00372193
0.00376055
0.00372193
0.00372193
0.00376334
0.00371866
0.00376055
0.00372193
0.00372193
0.00371866
0.00371194
0.00366844
0.00370919
0.00370919
0.00367162
0.00367162
0.00371194
0.00366844
0.00370919
0.00370919
0.00367162
0.00367162
0.00370919
0.00367162
0.00367162
0.00371194
0.00366844
0.00370919
0.00367162
0.00367162
0.00366844
0.00366192
0.00362032
0.00365926
0.00365926
0.00362332
0.00362332
0.00366192
0.00362032
0.00365926
0.00365926
0.00362332
0.00362332
0.00365926
0.00362332
0.00362332
0.00366192
0.00362032
0.00365926
0.00362333
0.00362333
0.00362032
0.00361425
0.00357665
0.00361184
0.00361184
0.00357917
0.00357917
0.00361425
0.00357666
0.00361184
0.00361184
0.00357917
0.00357917
0.00361184
0.00357917
0.00357917
0.00361425
0.00357666
0.00361185
0.00357917
0.00357917
0.00357666
0.00357117
0.00353532
0.00356872
0.00356872
0.00353774
0.00353774
0.00357117
0.00353532
0.00356872
0.00356872
0.00353774
0.00353774
0.00356872
0.00353774
0.00353774
0.00357118
0.00353532
0.00356872
0.00353774
0.00353774
0.00353532
0.0035299
0.0034942
0.00352745
0.00352745
0.00349663
0.00349662
0.0035299
0.0034942
0.00352744
0.00352745
0.00349663
0.00349662
0.00352745
0.00349662
0.00349663
0.0035299
0.0034942
0.00352745
0.00349662
0.00349662
0.0034942
0.00348879
0.00345317
0.00348636
0.00348636
0.0034556
0.0034556
0.00348879
0.00345317
0.00348636
0.00348636
0.0034556
0.0034556
0.00348636
0.00345559
0.0034556
0.00348879
0.00345317
0.00348636
0.00345559
0.00345559
0.00345317
0.00344777
0.00341216
0.00344534
0.00344534
0.00341458
0.00341458
0.00344777
0.00341216
0.00344534
0.00344534
0.00341458
0.00341458
0.00344534
0.00341458
0.00341458
0.00344777
0.00341216
0.00344534
0.00341458
0.00341458
0.00341216
0.00340675
0.00337114
0.00340432
0.00340432
0.00337356
0.00337356
0.00340675
0.00337114
0.00340432
0.00340432
0.00337356
0.00337356
0.00340432
0.00337356
0.00337356
0.00340675
0.00337114
0.00340432
0.00337356
0.00337356
0.00337114
0.00336574
0.00333013
0.00336331
0.00336331
0.00333255
0.00333255
0.00336573
0.00333013
0.00336331
0.00336331
0.00333255
0.00333255
0.00336331
0.00333255
0.00333255
0.00336573
0.00333013
0.00336331
0.00333255
0.00333255
0.00333013
0.00332472
0.00328911
0.00332229
0.00332229
0.00329154
0.00329154
0.00332472
0.00328912
0.00332229
0.00332229
0.00329153
0.00329153
0.00332229
0.00329154
0.00329154
0.00332472
0.00328911
0.00332229
0.00329153
0.00329154
0.00328911
0.00328371
0.0032481
0.00328128
0.00328128
0.00325052
0.00325052
0.00328371
0.0032481
0.00328128
0.00328128
0.00325052
0.00325052
0.00328128
0.00325052
0.00325052
0.00328371
0.0032481
0.00328128
0.00325052
0.00325052
0.0032481
0.0032427
0.00320708
0.00324027
0.00324027
0.00320951
0.0032095
0.0032427
0.00320708
0.00324027
0.00324027
0.00320951
0.00320951
0.00324027
0.0032095
0.00320951
0.0032427
0.00320708
0.00324027
0.00320951
0.00320951
0.00320708
0.00320168
0.00316606
0.00319925
0.00319925
0.00316849
0.00316849
0.00320168
0.00316606
0.00319925
0.00319925
0.00316849
0.00316849
0.00319925
0.00316849
0.00316849
0.00320168
0.00316606
0.00319925
0.00316849
0.00316849
0.00316606
0.00316066
0.00312504
0.00315823
0.00315823
0.00312746
0.00312746
0.00316066
0.00312504
0.00315823
0.00315823
0.00312746
0.00312746
0.00315823
0.00312746
0.00312746
0.00316066
0.00312504
0.00315823
0.00312746
0.00312746
0.00312504
0.00311964
0.00308402
0.00311721
0.00311721
0.00308644
0.00308644
0.00311964
0.00308402
0.00311721
0.00311721
0.00308644
0.00308644
0.00311721
0.00308644
0.00308644
0.00311964
0.00308402
0.00311721
0.00308644
0.00308644
0.00308402
0.00307861
0.003043
0.00307619
0.00307618
0.00304542
0.00304542
0.00307861
0.003043
0.00307619
0.00307619
0.00304542
0.00304542
0.00307619
0.00304542
0.00304542
0.00307861
0.003043
0.00307619
0.00304542
0.00304542
0.003043
0.00303759
0.00300198
0.00303516
0.00303517
0.0030044
0.0030044
0.00303759
0.00300198
0.00303516
0.00303516
0.0030044
0.0030044
0.00303517
0.0030044
0.0030044
0.00303759
0.00300198
0.00303517
0.0030044
0.0030044
0.00300198
0.00299657
0.00296096
0.00299414
0.00299414
0.00296338
0.00296338
0.00299657
0.00296096
0.00299414
0.00299414
0.00296338
0.00296338
0.00299414
0.00296338
0.00296338
0.00299657
0.00296096
0.00299414
0.00296338
0.00296338
0.00296096
0.00295555
0.00291994
0.00295312
0.00295312
0.00292236
0.00292236
0.00295555
0.00291994
0.00295312
0.00295312
0.00292236
0.00292236
0.00295312
0.00292236
0.00292236
0.00295555
0.00291994
0.00295312
0.00292236
0.00292236
0.00291994
0.00291453
0.00287892
0.0029121
0.0029121
0.00288134
0.00288134
0.00291453
0.00287892
0.0029121
0.0029121
0.00288134
0.00288134
0.0029121
0.00288134
0.00288134
0.00291453
0.00287892
0.0029121
0.00288134
0.00288134
0.00287892
0.00287351
0.0028379
0.00287109
0.00287109
0.00284032
0.00284032
0.00287351
0.0028379
0.00287109
0.00287109
0.00284032
0.00284032
0.00287109
0.00284032
0.00284032
0.00287351
0.0028379
0.00287109
0.00284032
0.00284032
0.0028379
0.0028325
0.00279689
0.00283007
0.00283007
0.00279931
0.00279931
0.0028325
0.00279689
0.00283007
0.00283007
0.00279931
0.00279931
0.00283007
0.00279931
0.00279931
0.0028325
0.00279689
0.00283007
0.00279931
0.00279931
0.00279689
0.00279148
0.00275587
0.00278905
0.00278905
0.00275829
0.00275829
0.00279148
0.00275587
0.00278905
0.00278905
0.00275829
0.00275829
0.00278905
0.00275829
0.00275829
0.00279148
0.00275587
0.00278905
0.00275829
0.00275829
0.00275587
0.00275047
0.00271485
0.00274804
0.00274804
0.00271727
0.00271727
0.00275047
0.00271485
0.00274804
0.00274804
0.00271727
0.00271727
0.00274804
0.00271727
0.00271727
0.00275047
0.00271485
0.00274804
0.00271727
0.00271727
0.00271485
0.00270945
0.00267383
0.00270702
0.00270702
0.00267626
0.00267626
0.00270945
0.00267383
0.00270702
0.00270702
0.00267626
0.00267626
0.00270702
0.00267626
0.00267626
0.00270945
0.00267383
0.00270702
0.00267626
0.00267626
0.00267383
0.00266843
0.00263282
0.002666
0.002666
0.00263524
0.00263524
0.00266843
0.00263282
0.002666
0.002666
0.00263524
0.00263524
0.002666
0.00263524
0.00263524
0.00266843
0.00263282
0.002666
0.00263524
0.00263524
0.00263282
0.00262741
0.0025918
0.00262498
0.00262498
0.00259422
0.00259422
0.00262741
0.0025918
0.00262498
0.00262498
0.00259422
0.00259422
0.00262498
0.00259422
0.00259422
0.00262741
0.0025918
0.00262498
0.00259422
0.00259422
0.0025918
0.00258639
0.00255078
0.00258396
0.00258396
0.0025532
0.0025532
0.00258639
0.00255078
0.00258396
0.00258396
0.0025532
0.0025532
0.00258396
0.0025532
0.0025532
0.00258639
0.00255078
0.00258396
0.0025532
0.0025532
0.00255078
0.00254537
0.00250976
0.00254294
0.00254294
0.00251218
0.00251218
0.00254537
0.00250976
0.00254294
0.00254294
0.00251218
0.00251218
0.00254294
0.00251218
0.00251218
0.00254537
0.00250976
0.00254294
0.00251218
0.00251218
0.00250976
0.00250435
0.00246874
0.00250193
0.00250193
0.00247116
0.00247116
0.00250435
0.00246874
0.00250193
0.00250193
0.00247116
0.00247116
0.00250193
0.00247116
0.00247116
0.00250435
0.00246874
0.00250193
0.00247116
0.00247116
0.00246874
0.00246334
0.00242773
0.00246091
0.00246091
0.00243015
0.00243015
0.00246334
0.00242773
0.00246091
0.00246091
0.00243015
0.00243015
0.00246091
0.00243015
0.00243015
0.00246334
0.00242773
0.00246091
0.00243015
0.00243015
0.00242773
0.00242232
0.00238671
0.00241989
0.00241989
0.00238913
0.00238913
0.00242232
0.00238671
0.00241989
0.00241989
0.00238913
0.00238913
0.00241989
0.00238913
0.00238913
0.00242232
0.00238671
0.00241989
0.00238913
0.00238913
0.00238671
0.0023813
0.00234569
0.00237887
0.00237887
0.00234811
0.00234811
0.0023813
0.00234569
0.00237887
0.00237887
0.00234811
0.00234811
0.00237887
0.00234811
0.00234811
0.0023813
0.00234569
0.00237887
0.00234811
0.00234811
0.00234569
0.00234028
0.00230467
0.00233785
0.00233785
0.00230709
0.00230709
0.00234028
0.00230467
0.00233785
0.00233785
0.00230709
0.00230709
0.00233785
0.00230709
0.00230709
0.00234028
0.00230467
0.00233785
0.00230709
0.00230709
0.00230467
0.00229926
0.00226365
0.00229684
0.00229684
0.00226607
0.00226607
0.00229926
0.00226365
0.00229684
0.00229684
0.00226607
0.00226607
0.00229684
0.00226607
0.00226607
0.00229926
0.00226365
0.00229684
0.00226607
0.00226607
0.00226365
0.00225824
0.00222263
0.00225582
0.00225582
0.00222505
0.00222505
0.00225824
0.00222263
0.00225582
0.00225582
0.00222505
0.00222505
0.00225582
0.00222505
0.00222505
0.00225825
0.00222263
0.00225582
0.00222505
0.00222505
0.00222263
0.00221723
0.00218161
0.0022148
0.0022148
0.00218403
0.00218403
0.00221723
0.00218161
0.0022148
0.0022148
0.00218403
0.00218403
0.0022148
0.00218403
0.00218403
0.00221723
0.00218161
0.0022148
0.00218403
0.00218403
0.00218161
0.00217621
0.00214059
0.00217378
0.00217378
0.00214301
0.00214301
0.00217621
0.00214059
0.00217378
0.00217378
0.00214301
0.00214301
0.00217378
0.00214301
0.00214301
0.00217621
0.00214059
0.00217378
0.00214301
0.00214301
0.00214059
0.00213519
0.00209957
0.00213276
0.00213276
0.002102
0.002102
0.00213519
0.00209957
0.00213276
0.00213276
0.002102
0.002102
0.00213276
0.002102
0.002102
0.00213519
0.00209957
0.00213276
0.002102
0.002102
0.00209957
0.00209417
0.00205856
0.00209174
0.00209174
0.00206098
0.00206098
0.00209417
0.00205856
0.00209174
0.00209174
0.00206098
0.00206098
0.00209174
0.00206098
0.00206098
0.00209417
0.00205856
0.00209174
0.00206098
0.00206098
0.00205856
0.00205315
0.00201754
0.00205072
0.00205072
0.00201996
0.00201996
0.00205315
0.00201754
0.00205072
0.00205072
0.00201996
0.00201996
0.00205072
0.00201996
0.00201996
0.00205315
0.00201754
0.00205072
0.00201996
0.00201996
0.00201754
0.00201214
0.00197653
0.00200971
0.00200971
0.00197895
0.00197895
0.00201214
0.00197653
0.00200971
0.00200971
0.00197895
0.00197895
0.00200971
0.00197895
0.00197895
0.00201214
0.00197653
0.00200971
0.00197895
0.00197895
0.00197653
0.00197112
0.00193551
0.00196869
0.00196869
0.00193793
0.00193793
0.00197112
0.00193551
0.00196869
0.00196869
0.00193793
0.00193793
0.00196869
0.00193793
0.00193793
0.00197112
0.00193551
0.00196869
0.00193793
0.00193793
0.00193551
0.00193011
0.0018945
0.00192768
0.00192768
0.00189692
0.00189692
0.00193011
0.0018945
0.00192768
0.00192768
0.00189692
0.00189692
0.00192768
0.00189692
0.00189692
0.00193011
0.0018945
0.00192768
0.00189692
0.00189692
0.0018945
0.00188909
0.00185349
0.00188667
0.00188667
0.00185591
0.00185591
0.00188909
0.00185349
0.00188667
0.00188667
0.00185591
0.00185591
0.00188667
0.00185591
0.00185591
0.00188909
0.00185349
0.00188667
0.00185591
0.00185591
0.00185349
0.00184808
0.00181247
0.00184565
0.00184565
0.0018149
0.00181489
0.00184808
0.00181247
0.00184565
0.00184565
0.00181489
0.00181489
0.00184565
0.00181489
0.0018149
0.00184808
0.00181247
0.00184565
0.00181489
0.0018149
0.00181247
0.00180707
0.00177146
0.00180464
0.00180464
0.00177388
0.00177388
0.00180707
0.00177146
0.00180464
0.00180464
0.00177388
0.00177388
0.00180464
0.00177388
0.00177388
0.00180707
0.00177146
0.00180464
0.00177388
0.00177388
0.00177146
0.00176606
0.00173045
0.00176363
0.00176363
0.00173287
0.00173287
0.00176606
0.00173045
0.00176363
0.00176363
0.00173287
0.00173287
0.00176363
0.00173287
0.00173287
0.00176606
0.00173045
0.00176363
0.00173287
0.00173287
0.00173045
0.00172504
0.00168943
0.00172261
0.00172261
0.00169185
0.00169185
0.00172504
0.00168943
0.00172261
0.00172261
0.00169185
0.00169185
0.00172261
0.00169185
0.00169185
0.00172504
0.00168943
0.00172261
0.00169185
0.00169185
0.00168943
0.00168403
0.00164842
0.0016816
0.0016816
0.00165084
0.00165084
0.00168403
0.00164842
0.0016816
0.0016816
0.00165084
0.00165084
0.0016816
0.00165084
0.00165084
0.00168403
0.00164842
0.0016816
0.00165084
0.00165084
0.00164842
0.00164301
0.0016074
0.00164058
0.00164058
0.00160982
0.00160982
0.00164301
0.0016074
0.00164058
0.00164058
0.00160982
0.00160982
0.00164058
0.00160982
0.00160982
0.00164301
0.0016074
0.00164058
0.00160982
0.00160982
0.0016074
0.00160199
0.00156638
0.00159957
0.00159956
0.0015688
0.0015688
0.00160199
0.00156638
0.00159956
0.00159956
0.0015688
0.0015688
0.00159956
0.0015688
0.0015688
0.00160199
0.00156638
0.00159956
0.0015688
0.0015688
0.00156638
0.00156098
0.00152537
0.00155855
0.00155855
0.00152779
0.00152779
0.00156098
0.00152537
0.00155855
0.00155855
0.00152779
0.00152779
0.00155855
0.00152779
0.00152779
0.00156098
0.00152537
0.00155855
0.00152779
0.00152779
0.00152537
0.00151997
0.00148436
0.00151754
0.00151754
0.00148678
0.00148678
0.00151997
0.00148436
0.00151754
0.00151754
0.00148678
0.00148678
0.00151754
0.00148678
0.00148678
0.00151997
0.00148436
0.00151754
0.00148678
0.00148678
0.00148436
0.00147895
0.00144335
0.00147653
0.00147653
0.00144577
0.00144577
0.00147895
0.00144335
0.00147653
0.00147653
0.00144577
0.00144577
0.00147653
0.00144577
0.00144577
0.00147895
0.00144335
0.00147653
0.00144577
0.00144577
0.00144335
0.00143794
0.00140234
0.00143551
0.00143551
0.00140476
0.00140476
0.00143794
0.00140234
0.00143551
0.00143551
0.00140476
0.00140476
0.00143551
0.00140476
0.00140476
0.00143794
0.00140234
0.00143551
0.00140476
0.00140476
0.00140234
0.00139693
0.00136132
0.0013945
0.0013945
0.00136374
0.00136374
0.00139693
0.00136132
0.0013945
0.0013945
0.00136374
0.00136374
0.0013945
0.00136374
0.00136374
0.00139693
0.00136132
0.0013945
0.00136374
0.00136374
0.00136132
0.00135592
0.00132031
0.00135349
0.00135349
0.00132273
0.00132273
0.00135592
0.00132031
0.00135349
0.00135349
0.00132273
0.00132273
0.00135349
0.00132273
0.00132273
0.00135592
0.00132031
0.00135349
0.00132273
0.00132273
0.00132031
0.00131491
0.0012793
0.00131248
0.00131248
0.00128172
0.00128172
0.00131491
0.0012793
0.00131248
0.00131248
0.00128172
0.00128172
0.00131248
0.00128172
0.00128172
0.00131491
0.0012793
0.00131248
0.00128172
0.00128172
0.0012793
0.00127389
0.00123828
0.00127146
0.00127146
0.0012407
0.0012407
0.00127389
0.00123828
0.00127146
0.00127146
0.0012407
0.0012407
0.00127146
0.0012407
0.0012407
0.00127389
0.00123828
0.00127146
0.0012407
0.0012407
0.00123828
0.00123288
0.00119727
0.00123045
0.00123045
0.00119969
0.00119969
0.00123288
0.00119727
0.00123045
0.00123045
0.00119969
0.00119969
0.00123045
0.00119969
0.00119969
0.00123288
0.00119727
0.00123045
0.00119969
0.00119969
0.00119727
0.00119186
0.00115625
0.00118943
0.00118943
0.00115867
0.00115867
0.00119186
0.00115625
0.00118943
0.00118943
0.00115867
0.00115867
0.00118943
0.00115867
0.00115867
0.00119186
0.00115625
0.00118943
0.00115867
0.00115867
0.00115625
0.00115084
0.00111523
0.00114842
0.00114842
0.00111765
0.00111765
0.00115084
0.00111523
0.00114842
0.00114842
0.00111765
0.00111765
0.00114842
0.00111765
0.00111765
0.00115084
0.00111523
0.00114842
0.00111765
0.00111765
0.00111523
0.00110983
0.00107422
0.0011074
0.0011074
0.00107664
0.00107664
0.00110983
0.00107422
0.0011074
0.0011074
0.00107664
0.00107664
0.0011074
0.00107664
0.00107664
0.00110983
0.00107422
0.0011074
0.00107664
0.00107664
0.00107422
0.00106881
0.0010332
0.00106638
0.00106638
0.00103562
0.00103562
0.00106881
0.0010332
0.00106638
0.00106638
0.00103562
0.00103562
0.00106638
0.00103562
0.00103562
0.00106881
0.0010332
0.00106638
0.00103562
0.00103562
0.0010332
0.0010278
0.00099219
0.00102537
0.00102537
0.00099461
0.00099461
0.0010278
0.00099219
0.00102537
0.00102537
0.00099461
0.000994611
0.00102537
0.000994611
0.000994611
0.0010278
0.000992191
0.00102537
0.000994611
0.000994611
0.000992191
0.000986785
0.000951179
0.000984357
0.000984357
0.000953599
0.000953599
0.000986785
0.000951179
0.000984357
0.000984358
0.000953599
0.000953599
0.000984358
0.000953599
0.000953599
0.000986786
0.000951179
0.000984358
0.000953599
0.000953599
0.000951179
0.000945774
0.000910169
0.000943347
0.000943347
0.000912589
0.000912589
0.000945774
0.000910169
0.000943347
0.000943347
0.000912589
0.000912589
0.000943347
0.000912589
0.00091259
0.000945774
0.000910169
0.000943347
0.000912589
0.000912589
0.000910169
0.000904764
0.000869159
0.000902337
0.000902337
0.000871579
0.000871579
0.000904764
0.000869159
0.000902337
0.000902337
0.000871579
0.000871579
0.000902337
0.000871579
0.000871579
0.000904764
0.000869159
0.000902337
0.000871579
0.000871579
0.000869159
0.000863754
0.000828148
0.000861326
0.000861326
0.000830569
0.000830568
0.000863754
0.000828148
0.000861326
0.000861327
0.000830568
0.000830568
0.000861327
0.000830569
0.000830569
0.000863754
0.000828148
0.000861327
0.000830568
0.000830569
0.000828148
0.000822743
0.000787138
0.000820316
0.000820316
0.000789558
0.000789558
0.000822743
0.000787138
0.000820316
0.000820316
0.000789558
0.000789558
0.000820316
0.000789558
0.000789558
0.000822743
0.000787138
0.000820316
0.000789558
0.000789558
0.000787138
0.000781733
0.000746128
0.000779306
0.000779306
0.000748548
0.000748548
0.000781733
0.000746128
0.000779306
0.000779306
0.000748548
0.000748548
0.000779306
0.000748548
0.000748548
0.000781733
0.000746128
0.000779305
0.000748548
0.000748548
0.000746128
0.000740723
0.000705118
0.000738296
0.000738295
0.000707538
0.000707538
0.000740723
0.000705118
0.000738295
0.000738295
0.000707538
0.000707538
0.000738296
0.000707538
0.000707538
0.000740723
0.000705118
0.000738295
0.000707538
0.000707538
0.000705118
0.000699713
0.000664108
0.000697286
0.000697285
0.000666528
0.000666528
0.000699713
0.000664108
0.000697285
0.000697286
0.000666528
0.000666528
0.000697286
0.000666528
0.000666528
0.000699713
0.000664108
0.000697286
0.000666528
0.000666528
0.000664108
0.000658703
0.000623099
0.000656276
0.000656275
0.000625519
0.000625519
0.000658703
0.000623099
0.000656275
0.000656276
0.000625519
0.000625519
0.000656276
0.000625519
0.000625519
0.000658703
0.000623099
0.000656275
0.000625519
0.000625519
0.000623098
0.000617694
0.000582091
0.000615267
0.000615267
0.000584511
0.000584511
0.000617694
0.000582091
0.000615266
0.000615267
0.000584511
0.000584511
0.000615267
0.000584511
0.000584511
0.000617694
0.000582091
0.000615266
0.000584511
0.000584511
0.000582091
0.000576686
0.000541084
0.000574259
0.000574259
0.000543504
0.000543504
0.000576686
0.000541084
0.000574259
0.000574259
0.000543504
0.000543504
0.000574259
0.000543504
0.000543504
0.000576686
0.000541084
0.000574259
0.000543504
0.000543504
0.000541084
0.00053568
0.00050008
0.000533253
0.000533253
0.0005025
0.000502499
0.00053568
0.00050008
0.000533252
0.000533253
0.000502499
0.000502499
0.000533253
0.000502499
0.0005025
0.00053568
0.00050008
0.000533253
0.000502499
0.000502499
0.00050008
0.000494676
0.000459077
0.000492249
0.000492249
0.000461497
0.000461496
0.000494676
0.000459077
0.000492249
0.000492249
0.000461496
0.000461497
0.000492249
0.000461497
0.000461497
0.000494676
0.000459077
0.000492249
0.000461497
0.000461497
0.000459077
0.000453673
0.000418075
0.000451246
0.000451246
0.000420495
0.000420495
0.000453673
0.000418075
0.000451246
0.000451246
0.000420495
0.000420495
0.000451246
0.000420495
0.000420495
0.000453673
0.000418075
0.000451246
0.000420495
0.000420495
0.000418075
0.000412672
0.000377075
0.000410245
0.000410245
0.000379495
0.000379494
0.000412672
0.000377075
0.000410245
0.000410245
0.000379494
0.000379495
0.000410245
0.000379495
0.000379495
0.000412672
0.000377075
0.000410245
0.000379495
0.000379495
0.000377075
0.000371672
0.000336075
0.000369245
0.000369245
0.000338494
0.000338494
0.000371671
0.000336075
0.000369245
0.000369245
0.000338494
0.000338494
0.000369245
0.000338494
0.000338495
0.000371672
0.000336075
0.000369245
0.000338494
0.000338494
0.000336075
0.000330671
0.000295072
0.000328245
0.000328245
0.000297493
0.000297492
0.000330671
0.000295072
0.000328245
0.000328245
0.000297492
0.000297492
0.000328245
0.000297492
0.000297492
0.000330672
0.000295072
0.000328245
0.000297492
0.000297492
0.000295072
0.000289666
0.000254067
0.000287241
0.000287241
0.000256482
0.000256482
0.000289666
0.000254067
0.000287241
0.000287241
0.000256482
0.000256482
0.000287241
0.000256482
0.000256482
0.000289666
0.000254067
0.000287241
0.000256482
0.000256482
0.000254067
0.000248662
0.000213073
0.000246236
0.000246236
0.000215495
0.000215495
0.000248662
0.000213074
0.000246236
0.000246236
0.000215494
0.000215495
0.000246236
0.000215495
0.000215495
0.000248662
0.000213073
0.000246236
0.000215495
0.000215495
0.000213073
0.00020765
0.00017206
0.000205232
0.000205232
0.000174471
0.000174471
0.00020765
0.00017206
0.000205232
0.000205232
0.000174471
0.000174471
0.000205232
0.000174471
0.000174471
0.00020765
0.00017206
0.000205232
0.000174471
0.000174471
0.00017206
0.00016664
0.000131049
0.000164225
0.000164225
0.000133454
0.000133454
0.00016664
0.000131049
0.000164225
0.000164225
0.000133454
0.000133454
0.000164225
0.000133454
0.000133454
0.00016664
0.000131048
0.000164225
0.000133454
0.000133454
0.000131049
0.000125597
9.00263e-05
0.000123198
0.000123198
9.24314e-05
9.24319e-05
0.000125597
9.00272e-05
0.000123198
0.000123198
9.24312e-05
9.24308e-05
0.000123198
9.24316e-05
9.24312e-05
0.000125597
9.00257e-05
0.000123198
9.24306e-05
9.24307e-05
9.0026e-05
8.45357e-05
4.90337e-05
8.21637e-05
8.2164e-05
5.14461e-05
5.14465e-05
8.45357e-05
4.90347e-05
8.21629e-05
8.21625e-05
5.14441e-05
5.14437e-05
8.21632e-05
5.14453e-05
5.14435e-05
8.45352e-05
4.90313e-05
8.21626e-05
5.14428e-05
5.14423e-05
4.9031e-05
4.35554e-05
1.19251e-05
4.13176e-05
4.13177e-05
1.40947e-05
1.40942e-05
4.35558e-05
1.19248e-05
4.13156e-05
4.13142e-05
1.4093e-05
1.40887e-05
4.13137e-05
1.40917e-05
1.40875e-05
4.35522e-05
1.19196e-05
4.13124e-05
1.40889e-05
1.40888e-05
1.19193e-05
8.40637e-06
8.85896e-06
8.85922e-06
8.40728e-06
8.85762e-06
8.85424e-06
8.6964e-06
8.69382e-06
8.69372e-06
8.85387e-06
8.40243e-06
8.85458e-06
0.00394084
0.00395061
0.0039454
0.00394541
0.00396778
0.00395457
0.00398317
0.00394862
0.00396778
0.00395457
0.00394862
0.00398317
0.00395914
0.00398691
0.00398691
0.0038962
0.00391535
0.00392454
0.00388827
0.00388904
0.00389179
0.00389618
0.00391533
0.00392453
0.00388825
0.00391906
0.00391907
0.00391907
0.00387566
0.00387566
0.00387565
0.00387565
0.0038937
0.00391953
0.00391946
0.00390253
0.00392255
0.0038926
0.00390341
0.00388915
0.00389178
0.00389371
0.00391946
0.00391955
0.00390253
0.00392255
0.00390341
0.0038926
0.00392541
0.00392539
0.00389693
0.00389224
0.00389223
0.00384954
0.00386885
0.00387021
0.00384806
0.00386776
0.00384764
0.00384954
0.00386885
0.00387021
0.00384806
0.0038637
0.0038637
0.0038637
0.00382611
0.00382611
0.00382611
0.00382611
0.00384814
0.00386892
0.0038637
0.00385183
0.00386771
0.00384867
0.00385156
0.00386775
0.00384763
0.00384814
0.0038637
0.00386892
0.00385183
0.00386771
0.00385156
0.00384867
0.00386995
0.00386995
0.00384837
0.00384899
0.00384899
0.00379732
0.00381615
0.0038172
0.00379628
0.00381581
0.00379598
0.00379732
0.00381615
0.0038172
0.00379628
0.00381295
0.00381295
0.00381295
0.00377356
0.00377356
0.00377356
0.00377356
0.00379641
0.00381653
0.00381282
0.00379978
0.00381596
0.00379677
0.00379968
0.00381581
0.00379598
0.00379641
0.00381282
0.00381653
0.00379978
0.00381596
0.00379968
0.00379677
0.00381679
0.00381679
0.0037964
0.00379684
0.00379684
0.00374476
0.00376346
0.00376431
0.00374399
0.00376325
0.00374382
0.00374476
0.00376346
0.00376431
0.00374399
0.00376053
0.00376053
0.00376053
0.00372194
0.00372194
0.00372194
0.00372194
0.00374427
0.00376385
0.0037605
0.00374761
0.00376355
0.00374444
0.00374757
0.00376325
0.00374382
0.00374427
0.0037605
0.00376385
0.00374761
0.00376355
0.00374757
0.00374444
0.00376389
0.00376389
0.00374431
0.00374439
0.00374438
0.00369356
0.00371196
0.00371255
0.00369295
0.00371181
0.00369282
0.00369356
0.00371196
0.00371255
0.00369295
0.0037092
0.0037092
0.0037092
0.00367162
0.00367162
0.00367162
0.00367162
0.00369328
0.00371229
0.00370918
0.00369656
0.00371211
0.00369336
0.00369654
0.00371181
0.00369282
0.00369328
0.00370918
0.00371229
0.00369656
0.00371211
0.00369654
0.00369336
0.00371229
0.00371229
0.00369338
0.00369326
0.00369326
0.00364389
0.00366182
0.00366218
0.00364332
0.00366172
0.00364322
0.00364389
0.00366182
0.00366218
0.00364333
0.00365932
0.00365932
0.00365932
0.00362346
0.00362346
0.00362346
0.00362346
0.00364381
0.0036621
0.00365927
0.00364701
0.00366201
0.00364374
0.00364705