/*--------------------------------*- C++ -*----------------------------------*\
| =========                 |                                                 |
| \\      /  F ield         | OpenFOAM: The Open Source CFD Toolbox           |
|  \\    /   O peration     | Version:  2206                                  |
|   \\  /    A nd           | Website:  www.openfoam.com                      |
|    \\/     M anipulation  |                                                 |
\*---------------------------------------------------------------------------*/
FoamFile
{
    version     2.0;
    format      ascii;
    arch        "LSB;label=32;scalar=64";
    class       volScalarField;
    location    "10.5";
    object      nut;
}
// * * * * * * * * * * * * * * * * * * * * * * * * * * * * * * * * * * * * * //

dimensions      [0 2 -1 0 0 0 0];

internalField   nonuniform List<scalar> 
28687
(
0.000231704
0.000226702
0.000226701
0.000219219
0.000231704
0.000226702
0.000226699
0.000219204
0.000231682
0.000226664
0.000226672
0.000219169
0.000231691
0.000226664
0.000226661
0.000219131
0.000231694
0.000226665
0.000226663
0.000219131
0.000231694
0.000226665
0.000226664
0.000219133
0.000231694
0.000226665
0.000226663
0.000219133
0.000231694
0.000226665
0.000226663
0.000219133
0.000231694
0.000226665
0.000226663
0.000219133
0.000231694
0.000226665
0.000226664
0.000219133
0.000231694
0.000226665
0.000226663
0.000219133
0.000231694
0.000226665
0.000226663
0.000219133
0.000231694
0.000226665
0.000226664
0.000219133
0.000231694
0.000226665
0.000226663
0.000219133
0.000231694
0.000226665
0.000226663
0.000219133
0.000231694
0.000226665
0.000226663
0.000219133
0.000231694
0.000226665
0.000226663
0.000219133
0.000231694
0.000226665
0.000226663
0.000219133
0.000226698
0.000219282
0.000226703
0.000219222
0.000219273
0.000226699
0.000226698
0.000226698
0.000226699
0.000219216
0.000219273
0.000226701
0.000226695
0.000226701
0.000226695
0.000226699
0.000226702
0.000226698
0.000219218
0.00021927
0.000226702
0.0002267
0.000226701
0.000219271
0.000219208
0.000219256
0.000226696
0.000226697
0.000226689
0.000226677
0.000219208
0.000219231
0.000226699
0.000226693
0.000226691
0.000226686
0.000226696
0.000226685
0.000226688
0.000219206
0.000219253
0.000226699
0.000226691
0.000226691
0.000219253
0.000219176
0.000219193
0.000226671
0.000226658
0.000226654
0.000226657
0.000219135
0.000219202
0.000226674
0.000226668
0.000226657
0.000226651
0.000226671
0.000226661
0.000226654
0.000219173
0.00021919
0.000226674
0.000226656
0.000226657
0.000219192
0.000219134
0.000219201
0.000226659
0.00022666
0.00022666
0.000226661
0.000219141
0.0002192
0.000226661
0.000226656
0.000226663
0.000226657
0.000226659
0.000226665
0.00022666
0.000219131
0.000219198
0.000226662
0.000226663
0.000226663
0.000219198
0.000219136
0.000219202
0.00022666
0.000226661
0.000226661
0.000226661
0.000219135
0.000219203
0.000226663
0.000226658
0.000226663
0.000226658
0.000226661
0.000226666
0.000226661
0.000219133
0.000219199
0.000226664
0.000226664
0.000226664
0.000219199
0.000219137
0.000219202
0.000226661
0.000226661
0.000226661
0.000226661
0.000219138
0.000219203
0.000226664
0.000226658
0.000226663
0.000226658
0.000226661
0.000226666
0.000226661
0.000219134
0.000219199
0.000226664
0.000226664
0.000226664
0.000219198
0.000219137
0.000219201
0.000226661
0.000226661
0.00022666
0.00022666
0.000219139
0.000219203
0.000226664
0.000226658
0.000226663
0.000226658
0.000226661
0.000226666
0.000226661
0.000219134
0.000219198
0.000226664
0.000226664
0.000226664
0.000219199
0.000219137
0.000219201
0.000226661
0.000226661
0.000226661
0.00022666
0.000219138
0.000219203
0.000226664
0.000226658
0.000226663
0.000226658
0.000226661
0.000226666
0.000226661
0.000219134
0.000219198
0.000226664
0.000226664
0.000226664
0.000219198
0.000219137
0.000219202
0.000226661
0.000226661
0.000226661
0.000226661
0.000219138
0.000219203
0.000226664
0.000226658
0.000226664
0.000226658
0.000226661
0.000226666
0.000226661
0.000219134
0.000219199
0.000226664
0.000226664
0.000226664
0.000219198
0.000219137
0.000219202
0.000226662
0.000226661
0.000226661
0.000226661
0.000219138
0.000219203
0.000226664
0.000226658
0.000226664
0.000226658
0.000226661
0.000226666
0.000226661
0.000219134
0.000219199
0.000226664
0.000226664
0.000226664
0.000219198
0.000219137
0.000219201
0.000226661
0.000226661
0.000226661
0.000226661
0.000219138
0.000219203
0.000226664
0.000226658
0.000226664
0.000226658
0.000226661
0.000226666
0.000226661
0.000219134
0.000219198
0.000226664
0.000226664
0.000226664
0.000219198
0.000219137
0.000219201
0.000226661
0.000226661
0.000226661
0.000226661
0.000219138
0.000219203
0.000226664
0.000226658
0.000226664
0.000226658
0.000226661
0.000226666
0.000226661
0.000219134
0.000219199
0.000226664
0.000226664
0.000226663
0.000219198
0.000219137
0.000219201
0.000226661
0.000226661
0.000226661
0.000226661
0.000219138
0.000219203
0.000226664
0.000226658
0.000226664
0.000226658
0.000226661
0.000226666
0.000226661
0.000219134
0.000219199
0.000226664
0.000226664
0.000226663
0.000219198
0.000219136
0.000219201
0.000226661
0.000226661
0.000226661
0.000226661
0.000219138
0.000219203
0.000226664
0.000226658
0.000226664
0.000226658
0.000226661
0.000226666
0.000226661
0.000219134
0.000219198
0.000226664
0.000226664
0.000226663
0.000219198
0.000219137
0.000219201
0.000226661
0.000226661
0.000226661
0.000226661
0.000219138
0.000219203
0.000226664
0.000226658
0.000226664
0.000226658
0.000226661
0.000226666
0.000226661
0.000219134
0.000219198
0.000226664
0.000226664
0.000226663
0.000219198
0.000219136
0.000219201
0.000226661
0.000226661
0.000226661
0.00022666
0.000219138
0.000219203
0.000226664
0.000226658
0.000226664
0.000226658
0.000226661
0.000226666
0.000226661
0.000219134
0.000219199
0.000226664
0.000226664
0.000226663
0.000219198
0.000219137
0.000219201
0.000226661
0.000226661
0.000226661
0.00022666
0.000219138
0.000219203
0.000226664
0.000226658
0.000226664
0.000226658
0.000226661
0.000226666
0.000226661
0.000219134
0.000219199
0.000226664
0.000226664
0.000226663
0.000219198
0.000219137
0.000226661
0.000226661
0.000219138
0.000226664
0.000226658
0.000226661
0.000219134
0.000226663
7.23967e-05
4.57354e-05
7.23707e-05
4.57347e-05
2.57879e-05
2.57868e-05
7.24041e-05
4.57318e-05
7.2381e-05
4.57311e-05
0.000231706
0.000231704
0.000231704
0.000231704
0.000231705
0.000231704
0.000231704
0.000163179
8.61464e-05
0.000230494
0.000226703
0.000163125
8.61806e-05
0.000230494
2.57868e-05
2.5785e-05
0.000163181
0.000230493
8.61215e-05
0.000226701
0.000163127
0.000230493
8.61725e-05
4.613e-05
4.61209e-05
0.000219276
4.61401e-05
4.61308e-05
7.24052e-05
4.57349e-05
7.23907e-05
4.57341e-05
2.57861e-05
2.57858e-05
7.24139e-05
4.57314e-05
7.24006e-05
4.57305e-05
0.000231705
0.000231703
0.000231704
0.000231697
0.000231695
0.000231697
0.000231697
0.000163183
8.61643e-05
0.000230494
0.000226701
0.00016316
8.6185e-05
0.000230493
2.57842e-05
2.57835e-05
0.000163185
0.000230493
8.6162e-05
0.000226698
0.000163163
0.000230492
8.61861e-05
4.61448e-05
4.61358e-05
0.000219269
4.61535e-05
4.61444e-05
7.23259e-05
4.57381e-05
7.23629e-05
4.57469e-05
2.57925e-05
2.57934e-05
7.23328e-05
4.57347e-05
7.23719e-05
4.57431e-05
0.000231678
0.000231682
0.000231682
0.000231686
0.000231687
0.000231686
0.000231686
0.000163058
8.61086e-05
0.000230467
0.000226657
0.000163121
8.60828e-05
0.00023046
2.57867e-05
2.57906e-05
0.00016306
0.000230469
8.61328e-05
0.000226658
0.000163124
0.000230461
8.61039e-05
4.61297e-05
4.61208e-05
0.000219196
4.60998e-05
4.60906e-05
7.22961e-05
4.57491e-05
7.22837e-05
4.57483e-05
2.57933e-05
2.57931e-05
7.23053e-05
4.57456e-05
7.22943e-05
4.57448e-05
0.000231692
0.000231691
0.000231691
0.000231694
0.000231694
0.000231694
0.000231694
0.000163022
8.60448e-05
0.000230472
0.000226665
0.000162995
8.60678e-05
0.000230474
2.57913e-05
2.57909e-05
0.000163025
0.000230472
8.60511e-05
0.000226663
0.000162997
0.000230474
8.60715e-05
4.60745e-05
4.60652e-05
0.000219205
4.60796e-05
4.60702e-05
7.22962e-05
4.5749e-05
7.22834e-05
4.57483e-05
2.57934e-05
2.57931e-05
7.23054e-05
4.57455e-05
7.22941e-05
4.57447e-05
0.000231694
0.000231694
0.000231694
0.000231694
0.000231694
0.000231694
0.000231694
0.000163022
8.60445e-05
0.000230475
0.000226665
0.000162996
8.60679e-05
0.000230475
2.57912e-05
2.57909e-05
0.000163025
0.000230474
8.60493e-05
0.000226664
0.000162999
0.000230475
8.60713e-05
4.6075e-05
4.60658e-05
0.000219198
4.608e-05
4.60707e-05
7.22962e-05
4.5749e-05
7.22835e-05
4.57483e-05
2.57934e-05
2.57932e-05
7.23055e-05
4.57455e-05
7.22941e-05
4.57447e-05
0.000231694
0.000231694
0.000231694
0.000231694
0.000231694
0.000231693
0.000231694
0.000163023
8.60445e-05
0.000230475
0.000226666
0.000162996
8.60678e-05
0.000230475
2.57912e-05
2.57909e-05
0.000163026
0.000230475
8.60493e-05
0.000226664
0.000162999
0.000230475
8.60713e-05
4.60751e-05
4.60659e-05
0.000219199
4.608e-05
4.60707e-05
7.22962e-05
4.57492e-05
7.22834e-05
4.57485e-05
2.57932e-05
2.57928e-05
7.23056e-05
4.57455e-05
7.22942e-05
4.57447e-05
0.000231694
0.000231694
0.000231694
0.000231694
0.000231694
0.000231694
0.000231694
0.000163023
8.60442e-05
0.000230475
0.000226666
0.000162995
8.60677e-05
0.000230475
2.57912e-05
2.57909e-05
0.000163026
0.000230475
8.60493e-05
0.000226664
0.000162998
0.000230475
8.60713e-05
4.60751e-05
4.60659e-05
0.000219199
4.608e-05
4.60707e-05
7.22961e-05
4.5749e-05
7.22833e-05
4.5748e-05
2.57934e-05
2.57934e-05
7.23057e-05
4.57455e-05
7.22943e-05
4.57447e-05
0.000231694
0.000231694
0.000231694
0.000231694
0.000231694
0.000231694
0.000231694
0.000163023
8.60445e-05
0.000230475
0.000226666
0.000162996
8.60678e-05
0.000230475
2.57912e-05
2.57909e-05
0.000163026
0.000230475
8.60493e-05
0.000226664
0.000162998
0.000230475
8.60713e-05
4.60751e-05
4.60659e-05
0.000219199
4.608e-05
4.60707e-05
7.22961e-05
4.57487e-05
7.22833e-05
4.57477e-05
2.57937e-05
2.57935e-05
7.23058e-05
4.57457e-05
7.22943e-05
4.57451e-05
0.000231694
0.000231694
0.000231694
0.000231694
0.000231694
0.000231694
0.000231694
0.000163023
8.60444e-05
0.000230475
0.000226666
0.000162995
8.60678e-05
0.000230475
2.57912e-05
2.57909e-05
0.000163026
0.000230475
8.60493e-05
0.000226664
0.000162998
0.000230475
8.60713e-05
4.60751e-05
4.60659e-05
0.000219199
4.608e-05
4.60707e-05
7.22961e-05
4.57483e-05
7.22833e-05
4.57475e-05
2.57938e-05
2.57935e-05
7.23058e-05
4.57459e-05
7.22944e-05
4.57452e-05
0.000231694
0.000231694
0.000231694
0.000231694
0.000231694
0.000231694
0.000231694
0.000163023
8.60444e-05
0.000230475
0.000226666
0.000162995
8.60678e-05
0.000230475
2.57912e-05
2.57909e-05
0.000163026
0.000230475
8.60493e-05
0.000226664
0.000162998
0.000230475
8.60713e-05
4.60751e-05
4.60659e-05
0.000219199
4.608e-05
4.60707e-05
7.22962e-05
4.57482e-05
7.22834e-05
4.57475e-05
2.57937e-05
2.57935e-05
7.23057e-05
4.5746e-05
7.22943e-05
4.57453e-05
0.000231694
0.000231694
0.000231694
0.000231694
0.000231694
0.000231694
0.000231694
0.000163023
8.60444e-05
0.000230475
0.000226666
0.000162995
8.60678e-05
0.000230475
2.57912e-05
2.57909e-05
0.000163026
0.000230475
8.60493e-05
0.000226664
0.000162998
0.000230475
8.60713e-05
4.60751e-05
4.60659e-05
0.000219199
4.608e-05
4.60707e-05
7.22962e-05
4.57482e-05
7.22834e-05
4.57474e-05
2.57938e-05
2.57935e-05
7.23058e-05
4.5746e-05
7.22943e-05
4.57453e-05
0.000231694
0.000231694
0.000231694
0.000231694
0.000231694
0.000231694
0.000231694
0.000163023
8.60444e-05
0.000230475
0.000226666
0.000162996
8.60678e-05
0.000230475
2.57912e-05
2.57909e-05
0.000163026
0.000230475
8.60493e-05
0.000226664
0.000162998
0.000230475
8.60713e-05
4.60751e-05
4.60659e-05
0.000219199
4.608e-05
4.60707e-05
7.22962e-05
4.57482e-05
7.22834e-05
4.57474e-05
2.57938e-05
2.57935e-05
7.23057e-05
4.5746e-05
7.22943e-05
4.57453e-05
0.000231694
0.000231694
0.000231694
0.000231694
0.000231694
0.000231693
0.000231694
0.000163023
8.60444e-05
0.000230475
0.000226666
0.000162995
8.60678e-05
0.000230475
2.57912e-05
2.57909e-05
0.000163026
0.000230475
8.60493e-05
0.000226664
0.000162998
0.000230475
8.60714e-05
4.60751e-05
4.60659e-05
0.000219199
4.608e-05
4.60707e-05
7.22962e-05
4.57482e-05
7.22834e-05
4.57474e-05
2.57938e-05
2.57935e-05
7.23057e-05
4.5746e-05
7.22943e-05
4.57453e-05
0.000231694
0.000231694
0.000231694
0.000231694
0.000231694
0.000231694
0.000231694
0.000163023
8.60444e-05
0.000230475
0.000226666
0.000162995
8.60678e-05
0.000230475
2.57912e-05
2.57909e-05
0.000163026
0.000230475
8.60493e-05
0.000226664
0.000162998
0.000230475
8.60713e-05
4.60751e-05
4.60659e-05
0.000219199
4.608e-05
4.60707e-05
7.22962e-05
4.57482e-05
7.22834e-05
4.57474e-05
2.57938e-05
2.57935e-05
7.23057e-05
4.5746e-05
7.22943e-05
4.57453e-05
0.000231694
0.000231694
0.000231694
0.000231694
0.000231694
0.000231694
0.000231694
0.000163023
8.60444e-05
0.000230475
0.000226666
0.000162995
8.60678e-05
0.000230475
2.57912e-05
2.57909e-05
0.000163026
0.000230475
8.60493e-05
0.000226664
0.000162998
0.000230475
8.60713e-05
4.60751e-05
4.60659e-05
0.000219199
4.608e-05
4.60707e-05
7.22962e-05
4.57482e-05
7.22834e-05
4.57474e-05
2.57938e-05
2.57935e-05
7.23057e-05
4.5746e-05
7.22943e-05
4.57453e-05
0.000231694
0.000231694
0.000231694
0.000231694
0.000231694
0.000231694
0.000231694
0.000163023
8.60444e-05
0.000230475
0.000226666
0.000162995
8.60678e-05
0.000230475
2.57912e-05
2.57909e-05
0.000163026
0.000230475
8.60493e-05
0.000226664
0.000162998
0.000230475
8.60713e-05
4.60751e-05
4.60659e-05
0.000219199
4.608e-05
4.60706e-05
7.22962e-05
4.57482e-05
7.22834e-05
4.57474e-05
2.57938e-05
2.57935e-05
7.23057e-05
4.5746e-05
7.22943e-05
4.57453e-05
0.000231694
0.000231694
0.000231694
0.000231694
0.000231694
0.000231693
0.000231694
0.000163023
8.60444e-05
0.000230475
0.000226666
0.000162995
8.60678e-05
0.000230475
2.57912e-05
2.57909e-05
0.000163026
0.000230475
8.60493e-05
0.000226664
0.000162998
0.000230475
8.60713e-05
4.60752e-05
4.60658e-05
0.000219199
4.608e-05
4.60706e-05
7.22921e-05
4.57482e-05
7.22834e-05
4.57475e-05
2.57937e-05
2.57935e-05
7.22996e-05
4.5746e-05
7.22943e-05
4.57454e-05
0.000231694
0.000231693
0.000231694
0.000163023
8.60444e-05
0.000230475
0.000226665
0.000162995
8.60678e-05
0.000230476
2.57912e-05
2.57909e-05
0.000163022
0.000230475
8.60493e-05
0.000226664
0.000162998
0.000230475
8.60567e-05
4.60752e-05
4.60658e-05
0.000219204
4.60803e-05
4.6068e-05
4.5734e-05
8.61634e-05
2.5788e-05
4.61309e-05
4.61292e-05
2.57883e-05
8.61637e-05
4.57332e-05
2.57902e-05
2.57885e-05
2.57882e-05
2.57865e-05
4.61324e-05
4.61219e-05
0.000219278
4.61422e-05
4.61318e-05
2.57875e-05
2.57884e-05
2.57855e-05
2.57864e-05
0.000219213
4.61498e-05
4.61395e-05
4.61426e-05
4.61323e-05
7.23973e-05
4.57341e-05
7.23711e-05
4.57336e-05
0.000163176
8.61244e-05
0.000230494
0.000226699
0.000163126
8.61762e-05
0.000230494
0.000163178
8.61513e-05
0.000230494
0.000226698
0.000163126
8.61796e-05
0.000230494
7.23901e-05
4.57344e-05
4.57347e-05
7.24024e-05
7.23907e-05
4.57333e-05
4.57336e-05
7.2403e-05
0.000163161
0.000226699
8.61864e-05
0.000230494
8.61628e-05
0.000230494
0.000163188
0.000163163
0.000226699
8.6186e-05
0.000230494
8.61648e-05
0.000230495
0.00016319
4.61304e-05
4.61284e-05
0.000219276
4.61377e-05
4.61366e-05
2.57883e-05
2.57871e-05
2.5786e-05
2.57867e-05
0.000219212
4.61449e-05
4.6143e-05
4.61384e-05
4.61356e-05
2.57864e-05
2.57871e-05
0.000163182
8.61082e-05
0.000230494
0.000226701
0.000163128
8.61617e-05
0.000230494
7.24019e-05
4.573e-05
7.23783e-05
4.57291e-05
0.000163179
0.000230493
8.60995e-05
0.000226695
0.000163124
0.000230493
8.61533e-05
7.23993e-05
4.57307e-05
4.57312e-05
7.24107e-05
0.000163166
0.000226701
8.61712e-05
0.000230493
8.61471e-05
0.000230494
0.00016319
7.23969e-05
4.57287e-05
4.57292e-05
7.2408e-05
0.000163163
0.000226695
0.000230493
8.6163e-05
0.000230493
8.61387e-05
0.000163187
7.23963e-05
4.57334e-05
7.23702e-05
4.57327e-05
0.000163179
0.000230493
8.61204e-05
0.000226698
0.000163124
0.000230493
8.6172e-05
7.23959e-05
4.57326e-05
7.23697e-05
4.57317e-05
0.000163164
0.000226703
8.61865e-05
0.000230494
8.61648e-05
0.000230494
0.000163187
7.23896e-05
4.57324e-05
4.57328e-05
7.24016e-05
0.000163163
0.000226699
0.000230493
8.61819e-05
0.000230494
8.61586e-05
0.000163187
7.23891e-05
4.57313e-05
4.57317e-05
7.24011e-05
4.61083e-05
4.61298e-05
0.000219274
4.61197e-05
4.61399e-05
2.5789e-05
2.57873e-05
2.57841e-05
2.5785e-05
0.000219209
4.61266e-05
4.61477e-05
4.61188e-05
4.61403e-05
2.57863e-05
2.57871e-05
0.000163183
0.000230494
8.61145e-05
0.000226701
0.000163129
0.000230494
8.61663e-05
7.24031e-05
4.57323e-05
7.23796e-05
4.57315e-05
7.24035e-05
4.57319e-05
7.238e-05
4.57311e-05
0.000163166
0.000226701
0.000230493
8.61826e-05
0.000230494
8.61596e-05
0.00016319
0.000163167
0.000226702
0.000230494
8.61763e-05
0.000230494
8.61527e-05
0.000163192
7.23981e-05
4.57311e-05
4.57315e-05
7.24092e-05
7.23985e-05
4.57306e-05
4.57311e-05
7.24095e-05
2.57888e-05
2.57871e-05
2.5788e-05
2.57863e-05
0.000219211
4.61479e-05
4.61386e-05
4.61404e-05
4.61312e-05
2.57861e-05
2.5787e-05
2.57853e-05
2.57862e-05
2.57875e-05
2.57871e-05
2.57856e-05
2.57851e-05
4.61494e-05
4.61392e-05
0.000219268
4.6156e-05
4.61456e-05
2.57878e-05
2.57871e-05
2.57859e-05
2.57852e-05
0.000219203
4.6147e-05
4.61364e-05
4.61546e-05
4.61445e-05
7.24057e-05
4.57333e-05
7.23959e-05
4.57334e-05
0.000163185
8.61705e-05
0.000230493
0.000226696
0.000163168
8.61901e-05
0.000230493
0.000163188
8.617e-05
0.000230494
0.000226695
0.00016317
8.61838e-05
0.000230493
7.23964e-05
4.57352e-05
4.57341e-05
7.23881e-05
7.2397e-05
4.57387e-05
4.57336e-05
7.23892e-05
0.000163158
0.000226694
8.61718e-05
0.000230486
8.61722e-05
0.000230491
0.000163164
0.000163161
0.000226691
8.61427e-05
0.000230484
8.61609e-05
0.000230491
0.000163165
4.61449e-05
4.61411e-05
0.000219267
4.61471e-05
4.61468e-05
2.57865e-05
2.57864e-05
2.57902e-05
2.5786e-05
0.000219199
4.61204e-05
4.61221e-05
4.61417e-05
4.61396e-05
2.57903e-05
2.57866e-05
0.000163187
8.61542e-05
0.000230493
0.000226698
0.00016317
8.61745e-05
0.000230492
7.2411e-05
4.57288e-05
7.24025e-05
4.57287e-05
0.000163183
0.000230492
8.61461e-05
0.000226692
0.000163167
0.000230492
8.61663e-05
7.24068e-05
4.57318e-05
4.57307e-05
7.23962e-05
0.000163161
0.000226696
8.61557e-05
0.000230485
8.61555e-05
0.000230491
0.000163167
7.2404e-05
4.57297e-05
4.57288e-05
7.23947e-05
0.000163157
0.000226691
0.000230485
8.61478e-05
0.00023049
8.61471e-05
0.000163164
7.2404e-05
4.57325e-05
7.23943e-05
4.57327e-05
0.000163182
0.000230493
8.61662e-05
0.000226695
0.000163165
0.000230492
8.61853e-05
7.24036e-05
4.57313e-05
7.23937e-05
4.57313e-05
0.000163158
0.000226698
8.61464e-05
0.000230485
8.61617e-05
0.000230491
0.000163164
7.23955e-05
4.57383e-05
4.57331e-05
7.23884e-05
0.000163157
0.000226694
0.000230486
8.61669e-05
0.000230491
8.61674e-05
0.000163164
7.2395e-05
4.57321e-05
4.57313e-05
7.23878e-05
4.61253e-05
4.61472e-05
0.000219265
4.61325e-05
4.61537e-05
2.57863e-05
2.57859e-05
2.57846e-05
2.57837e-05
0.0002192
4.61239e-05
4.61445e-05
4.61296e-05
4.61523e-05
2.57867e-05
2.57859e-05
0.000163187
0.000230493
8.61604e-05
0.000226698
0.000163171
0.000230492
8.61797e-05
7.24121e-05
4.57311e-05
7.24037e-05
4.5731e-05
7.24124e-05
4.57307e-05
7.24039e-05
4.57306e-05
0.000163159
0.000226696
0.000230485
8.61674e-05
0.000230491
8.61686e-05
0.000163167
0.000163161
0.000226697
0.000230486
8.61611e-05
0.000230491
8.61615e-05
0.000163169
7.24051e-05
4.57319e-05
4.57311e-05
7.23959e-05
7.24054e-05
4.57315e-05
4.57307e-05
7.23962e-05
2.57861e-05
2.57857e-05
2.57853e-05
2.57849e-05
0.000219204
4.61437e-05
4.61347e-05
4.61519e-05
4.61429e-05
2.57865e-05
2.57858e-05
2.57857e-05
2.57849e-05
2.57896e-05
2.5794e-05
2.57878e-05
2.5792e-05
4.61355e-05
4.6125e-05
0.000219196
4.6101e-05
4.6091e-05
2.57945e-05
2.57946e-05
2.57925e-05
2.57926e-05
0.000219114
4.60817e-05
4.60716e-05
4.60908e-05
4.6081e-05
7.23252e-05
4.57444e-05
7.23677e-05
4.57482e-05
0.000163056
8.61412e-05
0.000230469
0.000226656
0.000163123
8.6109e-05
0.000230461
0.000163054
8.61081e-05
0.000230466
0.000226653
0.000163122
8.60806e-05
0.00023046
7.23055e-05
4.57485e-05
4.57487e-05
7.22973e-05
7.2305e-05
4.57482e-05
4.57483e-05
7.2298e-05
0.000163013
0.000226652
8.60792e-05
0.000230467
8.60787e-05
0.000230462
0.000163022
0.000163013
0.000226653
8.60699e-05
0.000230467
8.6058e-05
0.000230462
0.000163023
4.61033e-05
4.61043e-05
0.000219186
4.60742e-05
4.60737e-05
2.57928e-05
2.5794e-05
2.57931e-05
2.57934e-05
0.000219123
4.60703e-05
4.60679e-05
4.60698e-05
4.60673e-05
2.57938e-05
2.57941e-05
0.000163057
8.61243e-05
0.000230469
0.000226659
0.000163126
8.60928e-05
0.000230461
7.23313e-05
4.57321e-05
7.23745e-05
4.5741e-05
0.000163056
0.000230469
8.61167e-05
0.000226654
0.000163123
0.00023046
8.60858e-05
7.23134e-05
4.57449e-05
4.57452e-05
7.23064e-05
0.000163016
0.000226655
8.60625e-05
0.000230467
8.60624e-05
0.000230462
0.000163025
7.23116e-05
4.57433e-05
4.57435e-05
7.2304e-05
0.000163013
0.000226649
0.000230466
8.60538e-05
0.000230461
8.60549e-05
0.000163022
7.23254e-05
4.57436e-05
7.23674e-05
4.57475e-05
0.000163057
0.000230469
8.61368e-05
0.000226656
0.000163124
0.000230461
8.61037e-05
7.2325e-05
4.57343e-05
7.23668e-05
4.57436e-05
0.000163016
0.000226658
8.60686e-05
0.000230467
8.60574e-05
0.000230463
0.000163021
7.23049e-05
4.57473e-05
4.57476e-05
7.22971e-05
0.000163014
0.000226652
0.000230467
8.60739e-05
0.000230462
8.60738e-05
0.000163022
7.23044e-05
4.57458e-05
4.57459e-05
7.22965e-05
4.61091e-05
4.61328e-05
0.000219193
4.60803e-05
4.60987e-05
2.57885e-05
2.57928e-05
2.5791e-05
2.57913e-05
0.000219111
4.60559e-05
4.60794e-05
4.60678e-05
4.60885e-05
2.57933e-05
2.57934e-05
0.000163061
0.000230469
8.61307e-05
0.000226659
0.000163129
0.000230461
8.6098e-05
7.23325e-05
4.57342e-05
7.23758e-05
4.57435e-05
7.23327e-05
4.57337e-05
7.2376e-05
4.5743e-05
0.000163018
0.000226654
0.000230467
8.60746e-05
0.000230462
8.60745e-05
0.000163024
0.000163018
0.000226655
0.000230467
8.60681e-05
0.000230462
8.60678e-05
0.000163027
7.23127e-05
4.57456e-05
4.57457e-05
7.23052e-05
7.23129e-05
4.57452e-05
4.57453e-05
7.23055e-05
2.57884e-05
2.57926e-05
2.57875e-05
2.57918e-05
0.000219115
4.60794e-05
4.607e-05
4.60891e-05
4.608e-05
2.57931e-05
2.57932e-05
2.57923e-05
2.57924e-05
2.57945e-05
2.57944e-05
2.57925e-05
2.57924e-05
4.60795e-05
4.60696e-05
0.000219206
4.60817e-05
4.60716e-05
2.57944e-05
2.57944e-05
2.57924e-05
2.57925e-05
0.000219142
4.60818e-05
4.60717e-05
4.60798e-05
4.60699e-05
7.22968e-05
4.57482e-05
7.22889e-05
4.57481e-05
0.000163022
8.606e-05
0.000230472
0.00022666
0.000163001
8.60759e-05
0.000230474
0.000163023
8.6052e-05
0.000230473
0.00022666
0.000163002
8.60691e-05
0.000230475
7.22879e-05
4.57484e-05
4.57483e-05
7.22964e-05
7.22886e-05
4.5748e-05
4.57481e-05
7.2297e-05
0.000163001
0.00022666
8.60756e-05
0.000230475
8.60584e-05
0.000230475
0.000163024
0.000163003
0.000226661
8.60691e-05
0.000230475
8.60518e-05
0.000230475
0.000163025
4.6068e-05
4.60642e-05
0.000219205
4.60705e-05
4.60687e-05
2.57939e-05
2.57938e-05
2.57931e-05
2.57931e-05
0.000219141
4.6071e-05
4.60686e-05
4.60686e-05
4.60648e-05
2.57938e-05
2.57939e-05
0.000163026
8.60424e-05
0.000230472
0.000226663
0.000163004
8.60591e-05
0.000230474
7.23028e-05
4.57433e-05
7.22965e-05
4.5743e-05
0.000163023
0.000230472
8.60338e-05
0.000226657
0.000163002
0.000230474
8.60504e-05
7.22987e-05
4.57448e-05
4.57449e-05
7.23055e-05
0.000163006
0.000226663
8.6059e-05
0.000230475
8.60409e-05
0.000230475
0.000163028
7.22961e-05
4.5743e-05
4.57431e-05
7.2303e-05
0.000163002
0.000226657
0.000230474
8.60503e-05
0.000230474
8.60321e-05
0.000163024
7.22958e-05
4.57474e-05
7.2288e-05
4.57471e-05
0.000163022
0.000230472
8.60552e-05
0.00022666
0.000163001
0.000230474
8.60707e-05
7.22953e-05
4.57458e-05
7.22874e-05
4.57456e-05
0.000163002
0.000226665
8.60677e-05
0.000230475
8.60497e-05
0.000230475
0.000163022
7.22875e-05
4.57471e-05
4.57473e-05
7.2296e-05
0.000163001
0.00022666
0.000230475
8.60704e-05
0.000230475
8.60535e-05
0.000163023
7.2287e-05
4.57456e-05
4.57457e-05
7.22955e-05
4.6052e-05
4.60772e-05
0.000219202
4.60564e-05
4.60795e-05
2.57933e-05
2.57932e-05
2.57909e-05
2.5791e-05
0.000219139
4.6057e-05
4.60797e-05
4.60531e-05
4.60775e-05
2.57932e-05
2.57932e-05
0.000163028
0.000230472
8.60492e-05
0.000226663
0.000163005
0.000230475
8.60651e-05
7.23038e-05
4.57456e-05
7.22976e-05
4.57454e-05
7.23042e-05
4.57452e-05
7.22979e-05
4.5745e-05
0.000163005
0.000226664
0.000230475
8.60712e-05
0.000230475
8.60547e-05
0.000163025
0.000163007
0.000226663
0.000230475
8.60648e-05
0.000230475
8.60476e-05
0.000163029
7.22971e-05
4.57453e-05
4.57454e-05
7.23041e-05
7.22975e-05
4.57449e-05
4.5745e-05
7.23045e-05
2.57931e-05
2.5793e-05
2.57923e-05
2.57922e-05
0.00021914
4.60798e-05
4.60705e-05
4.60775e-05
4.60683e-05
2.5793e-05
2.5793e-05
2.57922e-05
2.57922e-05
2.57944e-05
2.57944e-05
2.57924e-05
2.57924e-05
4.60798e-05
4.60699e-05
0.000219199
4.60818e-05
4.60718e-05
2.57944e-05
2.57944e-05
2.57924e-05
2.57924e-05
0.000219136
4.6082e-05
4.60718e-05
4.60799e-05
4.60701e-05
7.22968e-05
4.57481e-05
7.22887e-05
4.5748e-05
0.000163022
8.60582e-05
0.000230474
0.00022666
0.000163003
8.60754e-05
0.000230474
0.000163023
8.60517e-05
0.000230474
0.000226661
0.000163003
8.60692e-05
0.000230474
7.2288e-05
4.57484e-05
4.57483e-05
7.22964e-05
7.22885e-05
4.5748e-05
4.57481e-05
7.22969e-05
0.000163001
0.000226661
8.60754e-05
0.000230475
8.60583e-05
0.000230475
0.000163023
0.000163002
0.000226662
8.60694e-05
0.000230475
8.6052e-05
0.000230475
0.000163024
4.60689e-05
4.60648e-05
0.000219201
4.60714e-05
4.60691e-05
2.57939e-05
2.57938e-05
2.57932e-05
2.57931e-05
0.000219138
4.60719e-05
4.60685e-05
4.60696e-05
4.60651e-05
2.57938e-05
2.57939e-05
0.000163026
8.60406e-05
0.000230474
0.000226663
0.000163007
8.60589e-05
0.000230474
7.23029e-05
4.57431e-05
7.22962e-05
4.5743e-05
0.000163023
0.000230474
8.6032e-05
0.000226657
0.000163003
0.000230474
8.60503e-05
7.22988e-05
4.57448e-05
4.57449e-05
7.23056e-05
0.000163005
0.000226664
8.6059e-05
0.000230475
8.60408e-05
0.000230475
0.000163027
7.22961e-05
4.5743e-05
4.57431e-05
7.23031e-05
0.000163002
0.000226658
0.000230474
8.60503e-05
0.000230474
8.60321e-05
0.000163023
7.22957e-05
4.57472e-05
7.22877e-05
4.57471e-05
0.000163022
0.000230475
8.60534e-05
0.000226661
0.000163002
0.000230474
8.60706e-05
7.22953e-05
4.57456e-05
7.22872e-05
4.57455e-05
0.000163002
0.000226666
8.60678e-05
0.000230475
8.60498e-05
0.000230475
0.000163021
7.22874e-05
4.57471e-05
4.57472e-05
7.22959e-05
0.000163001
0.000226661
0.000230475
8.60704e-05
0.000230475
8.60535e-05
0.000163022
7.2287e-05
4.57456e-05
4.57456e-05
7.22954e-05
4.60535e-05
4.60776e-05
0.000219196
4.6057e-05
4.60798e-05
2.57932e-05
2.57932e-05
2.57909e-05
2.5791e-05
0.000219133
4.6057e-05
4.60797e-05
4.60535e-05
4.60777e-05
2.57932e-05
2.57932e-05
0.000163028
0.000230475
8.60475e-05
0.000226664
0.000163007
0.000230474
8.60649e-05
7.23039e-05
4.57454e-05
7.22973e-05
4.57453e-05
7.23044e-05
4.5745e-05
7.22977e-05
4.57449e-05
0.000163005
0.000226664
0.000230475
8.60712e-05
0.000230475
8.60546e-05
0.000163024
0.000163006
0.000226664
0.000230475
8.60648e-05
0.000230475
8.60476e-05
0.000163028
7.22972e-05
4.57453e-05
4.57454e-05
7.23041e-05
7.22976e-05
4.57449e-05
4.57449e-05
7.23045e-05
2.5793e-05
2.5793e-05
2.57922e-05
2.57922e-05
0.000219135
4.60799e-05
4.60706e-05
4.60778e-05
4.60686e-05
2.5793e-05
2.5793e-05
2.57922e-05
2.57922e-05
2.57944e-05
2.57944e-05
2.57924e-05
2.57924e-05
4.60799e-05
4.607e-05
0.000219199
4.60819e-05
4.60719e-05
2.57944e-05
2.57944e-05
2.57924e-05
2.57924e-05
0.000219136
4.60818e-05
4.60718e-05
4.60799e-05
4.60701e-05
7.22968e-05
4.57481e-05
7.22886e-05
4.5748e-05
0.000163023
8.6058e-05
0.000230475
0.000226661
0.000163003
8.60752e-05
0.000230475
0.000163024
8.60521e-05
0.000230475
0.000226661
0.000163003
8.60685e-05
0.000230475
7.2288e-05
4.57484e-05
4.57484e-05
7.22964e-05
7.22885e-05
4.57478e-05
4.57481e-05
7.22968e-05
0.000163001
0.000226661
8.60755e-05
0.000230475
8.60581e-05
0.000230475
0.000163023
0.000163002
0.000226662
8.60658e-05
0.000230475
8.60493e-05
0.000230475
0.000163024
4.607e-05
4.60647e-05
0.000219201
4.60705e-05
4.60686e-05
2.57939e-05
2.57938e-05
2.5793e-05
2.57932e-05
0.000219138
4.60669e-05
4.60676e-05
4.60663e-05
4.60644e-05
2.57938e-05
2.57939e-05
0.000163027
8.60406e-05
0.000230475
0.000226664
0.000163006
8.60589e-05
0.000230475
7.23031e-05
4.57431e-05
7.22963e-05
4.5743e-05
0.000163024
0.000230474
8.6032e-05
0.000226658
0.000163003
0.000230474
8.60503e-05
7.22989e-05
4.57448e-05
4.57449e-05
7.23056e-05
0.000163006
0.000226664
8.6059e-05
0.000230475
8.60408e-05
0.000230475
0.000163026
7.22964e-05
4.5743e-05
4.57431e-05
7.23033e-05
0.000163002
0.000226658
0.000230474
8.60503e-05
0.000230474
8.60321e-05
0.000163023
7.22957e-05
4.57472e-05
7.22876e-05
4.57471e-05
0.000163023
0.000230475
8.60534e-05
0.000226661
0.000163001
0.000230475
8.60706e-05
7.22953e-05
4.57456e-05
7.22871e-05
4.57456e-05
0.000163002
0.000226666
8.60675e-05
0.000230475
8.60496e-05
0.000230475
0.000163021
7.22874e-05
4.57471e-05
4.57472e-05
7.22959e-05
0.000163002
0.000226661
0.000230475
8.60704e-05
0.000230475
8.60535e-05
0.000163022
7.2287e-05
4.57456e-05
4.57456e-05
7.22954e-05
4.60535e-05
4.60776e-05
0.000219196
4.6057e-05
4.60798e-05
2.57932e-05
2.57932e-05
2.57909e-05
2.5791e-05
0.000219133
4.6057e-05
4.60797e-05
4.60535e-05
4.60777e-05
2.57932e-05
2.57932e-05
0.000163028
0.000230475
8.60475e-05
0.000226664
0.000163007
0.000230475
8.6065e-05
7.23039e-05
4.57454e-05
7.22973e-05
4.57453e-05
7.23044e-05
4.57449e-05
7.22977e-05
4.57449e-05
0.000163005
0.000226664
0.000230474
8.60712e-05
0.000230475
8.60546e-05
0.000163024
0.000163007
0.000226664
0.000230475
8.60648e-05
0.000230475
8.60476e-05
0.000163028
7.22971e-05
4.57453e-05
4.57454e-05
7.23041e-05
7.22976e-05
4.57449e-05
4.57449e-05
7.23044e-05
2.5793e-05
2.5793e-05
2.57922e-05
2.57922e-05
0.000219135
4.60799e-05
4.60706e-05
4.60778e-05
4.60686e-05
2.5793e-05
2.5793e-05
2.57922e-05
2.57922e-05
2.57944e-05
2.57941e-05
2.57924e-05
2.57924e-05
4.60796e-05
4.607e-05
0.000219199
4.6081e-05
4.60719e-05
2.57941e-05