/*--------------------------------*- C++ -*----------------------------------*\
| =========                 |                                                 |
| \\      /  F ield         | OpenFOAM: The Open Source CFD Toolbox           |
|  \\    /   O peration     | Version:  2206                                  |
|   \\  /    A nd           | Website:  www.openfoam.com                      |
|    \\/     M anipulation  |                                                 |
\*---------------------------------------------------------------------------*/
FoamFile
{
    version     2.0;
    format      ascii;
    arch        "LSB;label=32;scalar=64";
    class       volScalarField;
    location    "39";
    object      p;
}
// * * * * * * * * * * * * * * * * * * * * * * * * * * * * * * * * * * * * * //

dimensions      [0 2 -2 0 0 0 0];

internalField   nonuniform List<scalar> 
171728
(
0.00383134
0.00383167
0.00383167
0.00383472
0.00377598
0.0037764
0.00377639
0.00377939
0.00372522
0.0037252
0.0037252
0.00372795
0.00367284
0.00367285
0.00367285
0.00367562
0.0036215
0.0036215
0.0036215
0.00362425
0.00357152
0.00357152
0.00357152
0.00357423
0.00352306
0.00352306
0.00352306
0.0035257
0.0034767
0.00347659
0.00347659
0.00347907
0.0034337
0.00343357
0.00343357
0.00343596
0.00339318
0.00339311
0.00339311
0.00339551
0.00335309
0.00335304
0.00335304
0.00335542
0.00331312
0.00331307
0.00331308
0.00331545
0.00327317
0.00327313
0.00327313
0.0032755
0.00323323
0.00323319
0.00323319
0.00323556
0.00319328
0.00319324
0.00319324
0.00319561
0.00315334
0.00315329
0.00315329
0.00315566
0.00311339
0.00311335
0.00311335
0.00311572
0.00307345
0.00307341
0.00307341
0.00307578
0.00303351
0.00303347
0.00303347
0.00303584
0.00299357
0.00299353
0.00299353
0.0029959
0.00295363
0.00295359
0.00295359
0.00295596
0.0029137
0.00291366
0.00291366
0.00291603
0.00287376
0.00287372
0.00287372
0.00287609
0.00283382
0.00283378
0.00283378
0.00283615
0.00279389
0.00279385
0.00279385
0.00279622
0.00275395
0.00275391
0.00275391
0.00275628
0.00271402
0.00271398
0.00271398
0.00271635
0.00267409
0.00267405
0.00267405
0.00267642
0.00263416
0.00263412
0.00263412
0.00263649
0.00259423
0.00259419
0.00259419
0.00259656
0.0025543
0.00255426
0.00255426
0.00255663
0.00251437
0.00251433
0.00251433
0.0025167
0.00247444
0.0024744
0.0024744
0.00247677
0.00243451
0.00243447
0.00243447
0.00243684
0.00239459
0.00239455
0.00239454
0.00239691
0.00235466
0.00235462
0.00235462
0.00235699
0.00231474
0.0023147
0.0023147
0.00231707
0.00227481
0.00227477
0.00227477
0.00227714
0.00223489
0.00223485
0.00223485
0.00223722
0.00219497
0.00219493
0.00219493
0.0021973
0.00215505
0.00215501
0.00215501
0.00215738
0.00211513
0.00211509
0.00211509
0.00211746
0.00207521
0.00207517
0.00207517
0.00207754
0.00203529
0.00203525
0.00203525
0.00203762
0.00199537
0.00199533
0.00199533
0.0019977
0.00195545
0.00195541
0.00195541
0.00195778
0.00191553
0.00191549
0.00191549
0.00191786
0.00187561
0.00187557
0.00187557
0.00187794
0.0018357
0.00183565
0.00183565
0.00183802
0.00179578
0.00179574
0.00179574
0.0017981
0.00175586
0.00175582
0.00175582
0.00175819
0.00171594
0.0017159
0.0017159
0.00171827
0.00167602
0.00167598
0.00167598
0.00167835
0.0016361
0.00163606
0.00163606
0.00163843
0.00159618
0.00159614
0.00159614
0.00159851
0.00155626
0.00155622
0.00155622
0.00155859
0.00151635
0.0015163
0.0015163
0.00151867
0.00147643
0.00147639
0.00147639
0.00147876
0.00143651
0.00143647
0.00143647
0.00143884
0.0013966
0.00139655
0.00139655
0.00139892
0.00135668
0.00135664
0.00135664
0.00135901
0.00131676
0.00131672
0.00131672
0.00131909
0.00127685
0.00127681
0.00127681
0.00127918
0.00123694
0.0012369
0.0012369
0.00123926
0.00119702
0.00119698
0.00119698
0.00119935
0.00115711
0.00115707
0.00115707
0.00115944
0.0011172
0.00111716
0.00111716
0.00111952
0.00107728
0.00107724
0.00107724
0.00107961
0.00103737
0.00103733
0.00103733
0.0010397
0.000997463
0.000997421
0.000997421
0.00099979
0.000957553
0.000957511
0.000957512
0.000959881
0.000917642
0.000917601
0.000917601
0.00091997
0.000877731
0.000877689
0.000877689
0.000880058
0.000837819
0.000837777
0.000837777
0.000840146
0.000797906
0.000797864
0.000797864
0.000800233
0.000757992
0.000757951
0.000757951
0.00076032
0.000718079
0.000718038
0.000718038
0.000720407
0.000678167
0.000678125
0.000678125
0.000680494
0.000638255
0.000638213
0.000638213
0.000640582
0.000598343
0.000598301
0.000598301
0.00060067
0.000558431
0.000558389
0.000558389
0.000560758
0.000518518
0.000518476
0.000518476
0.000520845
0.000478606
0.000478565
0.000478564
0.000480933
0.000438695
0.000438653
0.000438653
0.000441022
0.000398785
0.000398743
0.000398743
0.000401112
0.000358876
0.000358835
0.000358835
0.000361203
0.000318967
0.000318924
0.000318924
0.000321292
0.000279065
0.000279025
0.000279025
0.000281392
0.000239156
0.000239112
0.000239112
0.000241476
0.000199249
0.000199213
0.000199213
0.000201572
0.000159337
0.000159298
0.000159298
0.00016165
0.000119416
0.000119381
0.000119381
0.00012172
7.94934e-05
7.94477e-05
7.94463e-05
8.17589e-05
4.02643e-05
3.9713e-05
3.97102e-05
4.18878e-05
8.13297e-06
8.23758e-06
8.23516e-06
7.7787e-06
0.00384475
0.00384497
0.00384497
0.00384475
0.00384497
0.00384497
0.00384573
0.00384573
0.00384574
0.00384574
0.00384497
0.00384497
0.00384475
0.00384497
0.00384497
0.00384475
0.00383472
0.00378596
0.00383166
0.00383167
0.00378824
0.00378824
0.00383472
0.00378596
0.00383167
0.00383167
0.00378823
0.00378824
0.00383167
0.00378823
0.00378824
0.00383472
0.00378596
0.00383167
0.00378823
0.00378823
0.00378596
0.00377939
0.00373488
0.0037764
0.0037764
0.00373832
0.00373832
0.00377939
0.00373488
0.0037764
0.0037764
0.00373832
0.00373832
0.0037764
0.00373832
0.00373832
0.00377939
0.00373488
0.00377639
0.00373832
0.00373832
0.00373488
0.00372795
0.0036825
0.0037252
0.0037252
0.00368586
0.00368587
0.00372795
0.0036825
0.0037252
0.0037252
0.00368587
0.00368587
0.0037252
0.00368586
0.00368587
0.00372795
0.0036825
0.0037252
0.00368586
0.00368587
0.0036825
0.00367562
0.00363096
0.00367285
0.00367285
0.00363422
0.00363422
0.00367562
0.00363096
0.00367285
0.00367285
0.00363422
0.00363422
0.00367285
0.00363422
0.00363422
0.00367562
0.00363096
0.00367285
0.00363422
0.00363422
0.00363096
0.00362425
0.00358074
0.00362151
0.00362151
0.00358387
0.00358387
0.00362425
0.00358074
0.0036215
0.00362151
0.00358387
0.00358387
0.0036215
0.00358387
0.00358387
0.00362425
0.00358074
0.0036215
0.00358387
0.00358387
0.00358074
0.00357423
0.00353201
0.00357152
0.00357153
0.00353503
0.00353503
0.00357423
0.00353201
0.00357152
0.00357153
0.00353503
0.00353503
0.00357152
0.00353503
0.00353503
0.00357423
0.00353201
0.00357152
0.00353503
0.00353503
0.00353201
0.0035257
0.00348505
0.00352307
0.00352307
0.00348789
0.00348789
0.0035257
0.00348505
0.00352307
0.00352307
0.00348789
0.00348789
0.00352307
0.00348789
0.00348789
0.0035257
0.00348505
0.00352306
0.00348789
0.00348789
0.00348505
0.00347907
0.00344138
0.00347659
0.00347659
0.00344395
0.00344395
0.00347907
0.00344138
0.00347659
0.00347659
0.00344395
0.00344395
0.00347659
0.00344395
0.00344395
0.00347907
0.00344138
0.00347659
0.00344395
0.00344395
0.00344138
0.00343596
0.00340079
0.00343357
0.00343357
0.00340317
0.00340317
0.00343596
0.00340079
0.00343357
0.00343357
0.00340317
0.00340317
0.00343357
0.00340316
0.00340316
0.00343596
0.00340079
0.00343357
0.00340317
0.00340316
0.00340079
0.00339551
0.00336068
0.00339311
0.00339311
0.00336304
0.00336304
0.00339551
0.00336068
0.00339311
0.00339311
0.00336304
0.00336304
0.00339311
0.00336304
0.00336304
0.00339551
0.00336068
0.00339311
0.00336304
0.00336304
0.00336068
0.00335542
0.0033207
0.00335304
0.00335304
0.00332306
0.00332306
0.00335542
0.0033207
0.00335304
0.00335304
0.00332306
0.00332306
0.00335304
0.00332306
0.00332306
0.00335542
0.0033207
0.00335304
0.00332306
0.00332306
0.0033207
0.00331545
0.00328076
0.00331307
0.00331307
0.00328312
0.00328312
0.00331544
0.00328075
0.00331307
0.00331308
0.00328312
0.00328312
0.00331307
0.00328312
0.00328312
0.00331545
0.00328076
0.00331307
0.00328312
0.00328312
0.00328075
0.0032755
0.00324081
0.00327313
0.00327313
0.00324317
0.00324317
0.0032755
0.00324081
0.00327313
0.00327313
0.00324317
0.00324317
0.00327313
0.00324317
0.00324317
0.0032755
0.00324081
0.00327313
0.00324317
0.00324317
0.00324081
0.00323556
0.00320086
0.00323319
0.00323319
0.00320323
0.00320323
0.00323556
0.00320086
0.00323319
0.00323319
0.00320323
0.00320323
0.00323319
0.00320323
0.00320323
0.00323556
0.00320086
0.00323319
0.00320323
0.00320323
0.00320086
0.00319561
0.00316092
0.00319324
0.00319324
0.00316328
0.00316328
0.00319561
0.00316092
0.00319324
0.00319324
0.00316328
0.00316328
0.00319324
0.00316328
0.00316328
0.00319561
0.00316092
0.00319324
0.00316328
0.00316328
0.00316092
0.00315566
0.00312098
0.00315329
0.00315329
0.00312334
0.00312334
0.00315566
0.00312097
0.00315329
0.0031533
0.00312334
0.00312334
0.00315329
0.00312334
0.00312334
0.00315567
0.00312098
0.00315329
0.00312334
0.00312334
0.00312097
0.00311572
0.00308103
0.00311335
0.00311335
0.0030834
0.0030834
0.00311572
0.00308103
0.00311335
0.00311335
0.0030834
0.0030834
0.00311335
0.0030834
0.0030834
0.00311572
0.00308103
0.00311335
0.0030834
0.0030834
0.00308103
0.00307578
0.00304109
0.00307341
0.00307341
0.00304346
0.00304345
0.00307578
0.00304109
0.00307341
0.00307341
0.00304346
0.00304346
0.00307341
0.00304345
0.00304345
0.00307578
0.00304109
0.00307341
0.00304345
0.00304345
0.00304109
0.00303584
0.00300115
0.00303347
0.00303347
0.00300351
0.00300351
0.00303584
0.00300115
0.00303347
0.00303347
0.00300351
0.00300352
0.00303347
0.00300351
0.00300351
0.00303584
0.00300115
0.00303347
0.00300352
0.00300351
0.00300115
0.0029959
0.00296121
0.00299353
0.00299353
0.00296358
0.00296358
0.0029959
0.00296122
0.00299353
0.00299353
0.00296358
0.00296358
0.00299353
0.00296358
0.00296358
0.0029959
0.00296121
0.00299353
0.00296358
0.00296358
0.00296121
0.00295596
0.00292128
0.00295359
0.00295359
0.00292364
0.00292364
0.00295596
0.00292128
0.00295359
0.00295359
0.00292364
0.00292364
0.00295359
0.00292364
0.00292364
0.00295596
0.00292128
0.00295359
0.00292364
0.00292364
0.00292128
0.00291603
0.00288134
0.00291366
0.00291366
0.0028837
0.0028837
0.00291603
0.00288134
0.00291366
0.00291366
0.0028837
0.0028837
0.00291366
0.0028837
0.0028837
0.00291603
0.00288134
0.00291366
0.0028837
0.0028837
0.00288134
0.00287609
0.0028414
0.00287372
0.00287372
0.00284377
0.00284377
0.00287609
0.0028414
0.00287372
0.00287372
0.00284377
0.00284377
0.00287372
0.00284377
0.00284377
0.00287609
0.00284141
0.00287372
0.00284377
0.00284377
0.00284141
0.00283615
0.00280147
0.00283378
0.00283378
0.00280383
0.00280383
0.00283615
0.00280147
0.00283378
0.00283378
0.00280383
0.00280383
0.00283378
0.00280383
0.00280383
0.00283615
0.00280147
0.00283378
0.00280383
0.00280383
0.00280147
0.00279622
0.00276153
0.00279385
0.00279385
0.00276389
0.00276389
0.00279622
0.00276153
0.00279385
0.00279385
0.00276389
0.00276389
0.00279385
0.00276389
0.0027639
0.00279622
0.00276153
0.00279385
0.00276389
0.0027639
0.00276153
0.00275628
0.0027216
0.00275391
0.00275391
0.00272396
0.00272396
0.00275628
0.0027216
0.00275391
0.00275391
0.00272396
0.00272396
0.00275391
0.00272396
0.00272396
0.00275628
0.0027216
0.00275391
0.00272396
0.00272396
0.0027216
0.00271635
0.00268167
0.00271398
0.00271398
0.00268403
0.00268403
0.00271635
0.00268167
0.00271398
0.00271398
0.00268403
0.00268403
0.00271398
0.00268403
0.00268403
0.00271635
0.00268167
0.00271398
0.00268403
0.00268403
0.00268167
0.00267642
0.00264174
0.00267405
0.00267405
0.0026441
0.0026441
0.00267642
0.00264174
0.00267405
0.00267405
0.0026441
0.0026441
0.00267405
0.0026441
0.0026441
0.00267642
0.00264174
0.00267405
0.0026441
0.0026441
0.00264174
0.00263649
0.00260181
0.00263412
0.00263412
0.00260417
0.00260417
0.00263649
0.00260181
0.00263412
0.00263412
0.00260417
0.00260417
0.00263412
0.00260417
0.00260417
0.00263649
0.00260181
0.00263412
0.00260417
0.00260417
0.00260181
0.00259656
0.00256188
0.00259419
0.00259419
0.00256424
0.00256424
0.00259656
0.00256188
0.00259419
0.00259419
0.00256424
0.00256424
0.00259419
0.00256424
0.00256424
0.00259656
0.00256188
0.00259419
0.00256424
0.00256424
0.00256188
0.00255663
0.00252195
0.00255426
0.00255426
0.00252431
0.00252431
0.00255663
0.00252195
0.00255426
0.00255426
0.00252431
0.00252431
0.00255426
0.00252431
0.00252431
0.00255663
0.00252195
0.00255426
0.00252431
0.00252431
0.00252195
0.0025167
0.00248202
0.00251433
0.00251433
0.00248438
0.00248438
0.0025167
0.00248202
0.00251433
0.00251433
0.00248438
0.00248438
0.00251433
0.00248438
0.00248438
0.0025167
0.00248202
0.00251433
0.00248438
0.00248438
0.00248202
0.00247677
0.00244209
0.0024744
0.0024744
0.00244445
0.00244445
0.00247677
0.00244209
0.0024744
0.0024744
0.00244445
0.00244445
0.0024744
0.00244445
0.00244445
0.00247677
0.00244209
0.0024744
0.00244445
0.00244445
0.00244209
0.00243684
0.00240216
0.00243447
0.00243447
0.00240453
0.00240453
0.00243684
0.00240217
0.00243447
0.00243447
0.00240453
0.00240453
0.00243447
0.00240453
0.00240453
0.00243684
0.00240216
0.00243447
0.00240453
0.00240453
0.00240217
0.00239691
0.00236224
0.00239454
0.00239454
0.0023646
0.0023646
0.00239691
0.00236224
0.00239454
0.00239454
0.0023646
0.0023646
0.00239455
0.0023646
0.0023646
0.00239691
0.00236224
0.00239455
0.0023646
0.0023646
0.00236224
0.00235699
0.00232232
0.00235462
0.00235462
0.00232468
0.00232468
0.00235699
0.00232232
0.00235462
0.00235462
0.00232468
0.00232468
0.00235462
0.00232468
0.00232468
0.00235699
0.00232232
0.00235462
0.00232468
0.00232468
0.00232232
0.00231706
0.00228239
0.0023147
0.0023147
0.00228475
0.00228475
0.00231706
0.00228239
0.0023147
0.0023147
0.00228475
0.00228475
0.0023147
0.00228475
0.00228475
0.00231707
0.00228239
0.0023147
0.00228475
0.00228475
0.00228239
0.00227714
0.00224247
0.00227477
0.00227477
0.00224483
0.00224483
0.00227714
0.00224247
0.00227477
0.00227477
0.00224483
0.00224483
0.00227477
0.00224483
0.00224483
0.00227714
0.00224247
0.00227477
0.00224483
0.00224483
0.00224247
0.00223722
0.00220255
0.00223485
0.00223485
0.00220491
0.00220491
0.00223722
0.00220255
0.00223485
0.00223485
0.00220491
0.00220491
0.00223485
0.00220491
0.00220491
0.00223722
0.00220255
0.00223485
0.00220491
0.00220491
0.00220255
0.0021973
0.00216263
0.00219493
0.00219493
0.00216499
0.00216499
0.0021973
0.00216263
0.00219493
0.00219493
0.00216499
0.00216499
0.00219493
0.00216499
0.00216499
0.0021973
0.00216263
0.00219493
0.00216499
0.00216499
0.00216263
0.00215738
0.00212271
0.00215501
0.00215501
0.00212507
0.00212507
0.00215738
0.00212271
0.00215501
0.00215501
0.00212507
0.00212507
0.00215501
0.00212507
0.00212507
0.00215738
0.00212271
0.00215501
0.00212507
0.00212507
0.00212271
0.00211746
0.00208279
0.00211509
0.00211509
0.00208515
0.00208515
0.00211746
0.00208279
0.00211509
0.00211509
0.00208515
0.00208515
0.00211509
0.00208515
0.00208515
0.00211746
0.00208279
0.00211509
0.00208515
0.00208515
0.00208279
0.00207754
0.00204287
0.00207517
0.00207517
0.00204523
0.00204523
0.00207754
0.00204287
0.00207517
0.00207517
0.00204523
0.00204523
0.00207517
0.00204523
0.00204523
0.00207754
0.00204286
0.00207517
0.00204523
0.00204523
0.00204286
0.00203762
0.00200295
0.00203525
0.00203525
0.00200531
0.00200531
0.00203762
0.00200295
0.00203525
0.00203525
0.00200531
0.00200531
0.00203525
0.00200531
0.00200531
0.00203762
0.00200295
0.00203525
0.00200531
0.00200531
0.00200294
0.0019977
0.00196303
0.00199533
0.00199533
0.00196539
0.00196539
0.0019977
0.00196303
0.00199533
0.00199533
0.00196539
0.00196539
0.00199533
0.00196539
0.00196539
0.0019977
0.00196303
0.00199533
0.00196539
0.00196539
0.00196303
0.00195778
0.00192311
0.00195541
0.00195541
0.00192547
0.00192547
0.00195778
0.00192311
0.00195541
0.00195541
0.00192547
0.00192547
0.00195541
0.00192547
0.00192547
0.00195778
0.00192311
0.00195541
0.00192547
0.00192547
0.00192311
0.00191786
0.00188319
0.00191549
0.00191549
0.00188555
0.00188555
0.00191786
0.00188319
0.00191549
0.00191549
0.00188555
0.00188555
0.00191549
0.00188555
0.00188555
0.00191786
0.00188319
0.00191549
0.00188555
0.00188555
0.00188319
0.00187794
0.00184327
0.00187557
0.00187557
0.00184563
0.00184563
0.00187794
0.00184327
0.00187557
0.00187557
0.00184563
0.00184563
0.00187557
0.00184563
0.00184563
0.00187794
0.00184327
0.00187557
0.00184563
0.00184563
0.00184327
0.00183802
0.00180335
0.00183565
0.00183565
0.00180571
0.00180571
0.00183802
0.00180335
0.00183565
0.00183565
0.00180571
0.00180571
0.00183565
0.00180571
0.00180571
0.00183802
0.00180335
0.00183565
0.00180571
0.00180571
0.00180335
0.0017981
0.00176344
0.00179574
0.00179574
0.0017658
0.0017658
0.0017981
0.00176343
0.00179574
0.00179574
0.0017658
0.0017658
0.00179574
0.0017658
0.0017658
0.0017981
0.00176343
0.00179573
0.0017658
0.0017658
0.00176343
0.00175819
0.00172352
0.00175582
0.00175582
0.00172588
0.00172588
0.00175819
0.00172352
0.00175582
0.00175582
0.00172588
0.00172588
0.00175582
0.00172588
0.00172588
0.00175819
0.00172352
0.00175582
0.00172588
0.00172588
0.00172352
0.00171827
0.0016836
0.0017159
0.0017159
0.00168596
0.00168596
0.00171827
0.0016836
0.0017159
0.0017159
0.00168596
0.00168596
0.0017159
0.00168596
0.00168596
0.00171827
0.0016836
0.0017159
0.00168596
0.00168596
0.0016836
0.00167835
0.00164368
0.00167598
0.00167598
0.00164604
0.00164604
0.00167835
0.00164368
0.00167598
0.00167598
0.00164604
0.00164604
0.00167598
0.00164604
0.00164604
0.00167835
0.00164368
0.00167598
0.00164604
0.00164604
0.00164368
0.00163843
0.00160376
0.00163606
0.00163606
0.00160612
0.00160612
0.00163843
0.00160376
0.00163606
0.00163606
0.00160612
0.00160612
0.00163606
0.00160612
0.00160612
0.00163843
0.00160376
0.00163606
0.00160612
0.00160612
0.00160376
0.00159851
0.00156384
0.00159614
0.00159614
0.0015662
0.0015662
0.00159851
0.00156384
0.00159614
0.00159614
0.0015662
0.0015662
0.00159614
0.0015662
0.0015662
0.00159851
0.00156384
0.00159614
0.0015662
0.0015662
0.00156384
0.00155859
0.00152392
0.00155622
0.00155622
0.00152628
0.00152628
0.00155859
0.00152392
0.00155622
0.00155622
0.00152628
0.00152628
0.00155622
0.00152628
0.00152628
0.00155859
0.00152392
0.00155622
0.00152628
0.00152628
0.00152392
0.00151867
0.00148401
0.0015163
0.0015163
0.00148637
0.00148637
0.00151867
0.00148401
0.0015163
0.0015163
0.00148637
0.00148637
0.0015163
0.00148637
0.00148637
0.00151867
0.00148401
0.0015163
0.00148637
0.00148637
0.00148401
0.00147876
0.00144409
0.00147639
0.00147639
0.00144645
0.00144645
0.00147876
0.00144409
0.00147639
0.00147639
0.00144645
0.00144645
0.00147639
0.00144645
0.00144645
0.00147876
0.00144409
0.00147639
0.00144645
0.00144645
0.00144409
0.00143884
0.00140417
0.00143647
0.00143647
0.00140653
0.00140653
0.00143884
0.00140417
0.00143647
0.00143647
0.00140653
0.00140653
0.00143647
0.00140653
0.00140653
0.00143884
0.00140417
0.00143647
0.00140653
0.00140653
0.00140417
0.00139892
0.00136426
0.00139655
0.00139655
0.00136662
0.00136662
0.00139892
0.00136426
0.00139655
0.00139655
0.00136662
0.00136662
0.00139655
0.00136662
0.00136662
0.00139892
0.00136426
0.00139655
0.00136662
0.00136662
0.00136426
0.00135901
0.00132434
0.00135664
0.00135664
0.0013267
0.0013267
0.00135901
0.00132434
0.00135664
0.00135664
0.0013267
0.0013267
0.00135664
0.0013267
0.0013267
0.00135901
0.00132434
0.00135664
0.0013267
0.0013267
0.00132434
0.00131909
0.00128443
0.00131672
0.00131672
0.00128679
0.00128679
0.00131909
0.00128443
0.00131672
0.00131672
0.00128679
0.00128679
0.00131672
0.00128679
0.00128679
0.00131909
0.00128443
0.00131672
0.00128679
0.00128679
0.00128443
0.00127918
0.00124451
0.00127681
0.00127681
0.00124687
0.00124687
0.00127918
0.00124451
0.00127681
0.00127681
0.00124687
0.00124687
0.00127681
0.00124687
0.00124687
0.00127918
0.00124451
0.00127681
0.00124687
0.00124687
0.00124451
0.00123926
0.0012046
0.0012369
0.0012369
0.00120696
0.00120696
0.00123926
0.0012046
0.0012369
0.0012369
0.00120696
0.00120696
0.0012369
0.00120696
0.00120696
0.00123926
0.0012046
0.0012369
0.00120696
0.00120696
0.0012046
0.00119935
0.00116469
0.00119698
0.00119698
0.00116705
0.00116705
0.00119935
0.00116469
0.00119698
0.00119698
0.00116705
0.00116705
0.00119698
0.00116705
0.00116705
0.00119935
0.00116469
0.00119698
0.00116705
0.00116705
0.00116469
0.00115944
0.00112477
0.00115707
0.00115707
0.00112713
0.00112713
0.00115944
0.00112477
0.00115707
0.00115707
0.00112713
0.00112713
0.00115707
0.00112713
0.00112713
0.00115944
0.00112477
0.00115707
0.00112713
0.00112713
0.00112477
0.00111952
0.00108486
0.00111716
0.00111716
0.00108722
0.00108722
0.00111952
0.00108486
0.00111716
0.00111716
0.00108722
0.00108722
0.00111716
0.00108722
0.00108722
0.00111952
0.00108486
0.00111716
0.00108722
0.00108722
0.00108486
0.00107961
0.00104495
0.00107724
0.00107724
0.00104731
0.00104731
0.00107961
0.00104495
0.00107724
0.00107724
0.00104731
0.00104731
0.00107724
0.00104731
0.00104731
0.00107961
0.00104495
0.00107724
0.00104731
0.00104731
0.00104495
0.0010397
0.00100504
0.00103733
0.00103733
0.0010074
0.0010074
0.0010397
0.00100504
0.00103733
0.00103733
0.0010074
0.0010074
0.00103733
0.0010074
0.0010074
0.0010397
0.00100504
0.00103733
0.0010074
0.0010074
0.00100504
0.00099979
0.000965128
0.000997421
0.000997421
0.000967489
0.000967489
0.00099979
0.000965129
0.000997421
0.000997421
0.000967489
0.000967489
0.000997422
0.000967489
0.000967489
0.00099979
0.000965129
0.000997421
0.000967489
0.000967489
0.000965129
0.00095988
0.000925218
0.000957511
0.000957511
0.000927578
0.000927578
0.00095988
0.000925218
0.000957511
0.000957512
0.000927578
0.000927578
0.000957512
0.000927578
0.000927579
0.00095988
0.000925218
0.000957512
0.000927579
0.000927579
0.000925218
0.000919969
0.000885307
0.000917601
0.000917601
0.000887667
0.000887667
0.000919969
0.000885307
0.0009176
0.000917601
0.000887667
0.000887667
0.000917601
0.000887667
0.000887667
0.00091997
0.000885306
0.000917601
0.000887667
0.000887667
0.000885307
0.000880058
0.000845394
0.000877689
0.000877689
0.000847755
0.000847755
0.000880058
0.000845395
0.000877689
0.000877689
0.000847755
0.000847755
0.000877689
0.000847755
0.000847755
0.000880058
0.000845394
0.000877689
0.000847755
0.000847755
0.000845394
0.000840146
0.000805482
0.000837777
0.000837777
0.000807843
0.000807842
0.000840146
0.000805482
0.000837777
0.000837777
0.000807842
0.000807842
0.000837777
0.000807842
0.000807843
0.000840146
0.000805482
0.000837777
0.000807842
0.000807842
0.000805482
0.000800233
0.000765568
0.000797864
0.000797864
0.000767929
0.000767929
0.000800233
0.000765568
0.000797864
0.000797864
0.000767929
0.000767929
0.000797864
0.000767929
0.000767929
0.000800233
0.000765568
0.000797864
0.000767929
0.000767929
0.000765568
0.00076032
0.000725655
0.000757951
0.000757951
0.000728016
0.000728016
0.000760319
0.000725655
0.000757951
0.000757951
0.000728016
0.000728016
0.000757951
0.000728016
0.000728016
0.000760319
0.000725655
0.000757951
0.000728016
0.000728016
0.000725655
0.000720406
0.000685743
0.000718038
0.000718038
0.000688103
0.000688103
0.000720406
0.000685743
0.000718037
0.000718038
0.000688103
0.000688103
0.000718038
0.000688103
0.000688103
0.000720406
0.000685742
0.000718038
0.000688103
0.000688103
0.000685743
0.000680494
0.000645831
0.000678125
0.000678125
0.000648191
0.000648191
0.000680494
0.000645831
0.000678125
0.000678125
0.000648191
0.000648191
0.000678125
0.000648191
0.000648191
0.000680494
0.00064583
0.000678125
0.000648191
0.000648191
0.00064583
0.000640582
0.000605919
0.000638213
0.000638213
0.000608279
0.000608279
0.000640582
0.000605919
0.000638213
0.000638213
0.000608279
0.000608279
0.000638213
0.000608279
0.000608279
0.000640582
0.000605919
0.000638213
0.000608279
0.000608279
0.000605918
0.00060067
0.000566007
0.000598301
0.000598301
0.000568367
0.000568367
0.00060067
0.000566007
0.000598301
0.000598301
0.000568367
0.000568367
0.000598301
0.000568367
0.000568367
0.00060067
0.000566006
0.000598301
0.000568367
0.000568367
0.000566007
0.000560758
0.000526094
0.000558389
0.000558389
0.000528455
0.000528455
0.000560758
0.000526094
0.000558389
0.000558389
0.000528454
0.000528455
0.000558389
0.000528455
0.000528455
0.000560758
0.000526094
0.000558389
0.000528455
0.000528454
0.000526094
0.000520845
0.000486182
0.000518477
0.000518476
0.000488543
0.000488542
0.000520845
0.000486182
0.000518476
0.000518476
0.000488542
0.000488542
0.000518477
0.000488542
0.000488543
0.000520845
0.000486182
0.000518476
0.000488542
0.000488542
0.000486182
0.000480933
0.000446271
0.000478565
0.000478564
0.000448631
0.000448631
0.000480933
0.000446271
0.000478564
0.000478564
0.000448631
0.000448631
0.000478565
0.000448631
0.000448631
0.000480933
0.00044627
0.000478565
0.000448631
0.000448631
0.00044627
0.000441022
0.00040636
0.000438653
0.000438653
0.00040872
0.00040872
0.000441022
0.00040636
0.000438653
0.000438653
0.00040872
0.00040872
0.000438653
0.00040872
0.00040872
0.000441022
0.00040636
0.000438653
0.00040872
0.00040872
0.00040636
0.000401112
0.000366451
0.000398743
0.000398743
0.000368811
0.000368811
0.000401111
0.000366451
0.000398743
0.000398743
0.000368811
0.000368811
0.000398743
0.000368811
0.000368811
0.000401111
0.000366451
0.000398743
0.000368811
0.000368811
0.000366451
0.000361203
0.000326542
0.000358835
0.000358835
0.000328902
0.000328902
0.000361203
0.000326542
0.000358835
0.000358835
0.000328902
0.000328902
0.000358835
0.000328902
0.000328902
0.000361203
0.000326542
0.000358835
0.000328902
0.000328902
0.000326542
0.000321292
0.000286637
0.000318924
0.000318924
0.000288997
0.000288997
0.000321292
0.000286637
0.000318924
0.000318924
0.000288997
0.000288997
0.000318924
0.000288997
0.000288997
0.000321292
0.000286637
0.000318924
0.000288997
0.000288997
0.000286637
0.000281392
0.000246736
0.000279025
0.000279025
0.000249094
0.000249094
0.000281392
0.000246737
0.000279025
0.000279025
0.000249094
0.000249094
0.000279025
0.000249094
0.000249094
0.000281392
0.000246736
0.000279025
0.000249094
0.000249094
0.000246736
0.000241476
0.00020683
0.000239112
0.000239112
0.000209186
0.000209186
0.000241476
0.00020683
0.000239112
0.000239112
0.000209185
0.000209186
0.000239113
0.000209186
0.000209186
0.000241476
0.00020683
0.000239112
0.000209185
0.000209185
0.00020683
0.000201572
0.000166925
0.000199213
0.000199213
0.000169277
0.000169276
0.000201572
0.000166925
0.000199213
0.000199213
0.000169276
0.000169276
0.000199213
0.000169276
0.000169276
0.000201572
0.000166925
0.000199213
0.000169276
0.000169276
0.000166925
0.000161651
0.000127016
0.000159298
0.000159298
0.000129366
0.000129366
0.00016165
0.000127016
0.000159298
0.000159298
0.000129366
0.000129366
0.000159298
0.000129366
0.000129366
0.00016165
0.000127016
0.000159298
0.000129366
0.000129366
0.000127016
0.00012172
8.70909e-05
0.000119381
0.000119381
8.94405e-05
8.94414e-05
0.00012172
8.70923e-05
0.000119381
0.000119381
8.94402e-05
8.94403e-05
0.000119381
8.94412e-05
8.94404e-05
0.00012172
8.70909e-05
0.000119381
8.94402e-05
8.94399e-05
8.70906e-05
8.17596e-05
4.72014e-05
7.9447e-05
7.94478e-05
4.95567e-05
4.95568e-05
8.17602e-05
4.72022e-05
7.94465e-05
7.94463e-05
4.95547e-05
4.95542e-05
7.94467e-05
4.95556e-05
4.9554e-05
8.17597e-05
4.71988e-05
7.94461e-05
4.95533e-05
4.95526e-05
4.71985e-05
4.18914e-05
1.11959e-05
3.97149e-05
3.97148e-05
1.33322e-05
1.3332e-05
4.18917e-05
1.11963e-05
3.97129e-05
3.97116e-05
1.33305e-05
1.33272e-05
3.97108e-05
1.33297e-05
1.33251e-05
4.18883e-05
1.11917e-05
3.97096e-05
1.33272e-05
1.33265e-05
1.11903e-05
7.78274e-06
8.23834e-06
8.23904e-06
7.78411e-06
8.23671e-06
8.2347e-06
8.13318e-06
8.13093e-06
8.13022e-06
8.23314e-06
7.78015e-06
8.23382e-06
0.00385312
0.00386288
0.00385768
0.00385769
0.00388006
0.00386685
0.00389545
0.00386089
0.00388006
0.00386685
0.00386089
0.00389545
0.00387142
0.00389919
0.00389919
0.00380848
0.00382763
0.00383682
0.00380055
0.00380132
0.00380406
0.00380846
0.0038276
0.00383681
0.00380053
0.00383134
0.00383134
0.00383134
0.00378793
0.00378793
0.00378793
0.00378793
0.00380598
0.00383181
0.00383174
0.0038148
0.00383483
0.00380488
0.00381569
0.00380142
0.00380406
0.00380598
0.00383174
0.00383182
0.00381481
0.00383483
0.00381569
0.00380488
0.00383768
0.00383767
0.00380921
0.00380452
0.00380451
0.00376183
0.00378113
0.00378249
0.00376036
0.00378003
0.00375993
0.00376183
0.00378112
0.00378249
0.00376036
0.00377598
0.00377597
0.00377597
0.00373839
0.00373839
0.00373839
0.00373839
0.00376042
0.0037812
0.00377597
0.00376411
0.00377999
0.00376096
0.00376384
0.00378003
0.00375992
0.00376042
0.00377597
0.0037812
0.0037641
0.00377999
0.00376384
0.00376096
0.00378222
0.00378222
0.00376065
0.00376129
0.00376129
0.00370959
0.0037284
0.00372946
0.00370857
0.00372804
0.00370828
0.00370959
0.0037284
0.00372946
0.00370857
0.00372522
0.00372522
0.00372522
0.00368584
0.00368584
0.00368584
0.00368584
0.00370869
0.00372879
0.0037251
0.00371206
0.00372822
0.00370905
0.00371197
0.00372804
0.00370828
0.00370869
0.0037251
0.00372879
0.00371206
0.00372822
0.00371197
0.00370905
0.00372903
0.00372903
0.00370868
0.00370913
0.00370913
0.00365709
0.0036757
0.00367655
0.00365632
0.0036755
0.00365614
0.00365709
0.0036757
0.00367655
0.00365632
0.00367284
0.00367284
0.00367284
0.00363422
0.00363422
0.00363422
0.00363422
0.00365657
0.0036761
0.00367281
0.0036599
0.00367582
0.00365676
0.00365986
0.0036755
0.00365614
0.00365657
0.00367281
0.00367611
0.0036599
0.00367582
0.00365986
0.00365676
0.00367614
0.00367614
0.0036566
0.0036567
0.0036567
0.00360585
0.00362422
0.00362486
0.0036053
0.00362408
0.00360516
0.00360585
0.00362422
0.00362486
0.0036053
0.0036215
0.0036215
0.0036215
0.00358386
0.00358386
0.00358386
0.00358386
0.0036056
0.00362457
0.00362148
0.00360888
0.0036244
0.0036057
0.00360885
0.00362408
0.00360516
0.00360559
0.00362148
0.00362457
0.00360888
0.0036244
0.00360885
0.0036057
0.00362456
0.00362456
0.00360568
0.0036056
0.0036056
0.0035562
0.00357418
0.00357462
0.00355579
0.00357406
0.00355567
0.0035562
0.00357418
0.00357462
0.00355579
0.00357152
0.00357152
0.00357152
0.00353503
0.00353503
0.00353503
0.00353503
0.0035561
0.00357447
0.0035715
0.00355927
0.00357435
0.00355615
0.00355925
0.00357405